/*--------------------------------*- C++ -*----------------------------------*\
  =========                 |
  \\      /  F ield         | OpenFOAM: The Open Source CFD Toolbox
   \\    /   O peration     | Website:  https://openfoam.org
    \\  /    A nd           | Version:  7
     \\/     M anipulation  |
\*---------------------------------------------------------------------------*/
FoamFile
{
    version     2.0;
    format      ascii;
    class       surfaceScalarField;
    location    "2.2";
    object      phi;
}
// * * * * * * * * * * * * * * * * * * * * * * * * * * * * * * * * * * * * * //

dimensions      [0 3 -1 0 0 0 0];

internalField   nonuniform List<scalar> 
1740
(
3.54349e-07
-3.54337e-07
-2.14497e-07
5.68846e-07
-1.84078e-06
1.62628e-06
-4.33791e-06
2.49713e-06
-7.44426e-06
3.10636e-06
-1.09181e-05
3.47386e-06
-1.45616e-05
3.64349e-06
-1.8219e-05
3.65741e-06
-2.17661e-05
3.54708e-06
-2.50982e-05
3.33206e-06
-2.81201e-05
3.02195e-06
-3.07395e-05
2.61935e-06
-3.28629e-05
2.12346e-06
-3.43966e-05
1.53369e-06
-3.525e-05
8.53398e-07
-3.53431e-05
9.31044e-08
-3.46152e-05
-7.27954e-07
-3.30379e-05
-1.57727e-06
-3.06263e-05
-2.41163e-06
-2.74487e-05
-3.17761e-06
-2.36334e-05
-3.81528e-06
-1.93695e-05
-4.26383e-06
-1.4901e-05
-4.46855e-06
-1.05129e-05
-4.38811e-06
-6.51174e-06
-4.00115e-06
-3.19967e-06
-3.31207e-06
-8.39726e-07
-2.35994e-06
3.99567e-07
-1.23929e-06
5.4284e-07
-1.43272e-07
5.4284e-07
-5.5962e-07
2.05283e-07
-3.19194e-06
3.20116e-06
-8.02152e-06
6.45586e-06
-1.46787e-05
9.15431e-06
-2.26819e-05
1.11095e-05
-3.15414e-05
1.23334e-05
-4.08145e-05
1.29166e-05
-5.01214e-05
1.29642e-05
-5.91386e-05
1.25643e-05
-6.75842e-05
1.17777e-05
-7.52019e-05
1.06396e-05
-8.17488e-05
9.16623e-06
-8.69899e-05
7.36455e-06
-9.06994e-05
5.24319e-06
-9.26694e-05
2.82342e-06
-9.27274e-05
1.51137e-07
-9.07508e-05
-2.70458e-06
-8.66994e-05
-5.62867e-06
-8.06342e-05
-8.47691e-06
-7.27378e-05
-1.1074e-05
-6.33266e-05
-1.32265e-05
-5.28495e-05
-1.4741e-05
-4.18718e-05
-1.54462e-05
-3.10423e-05
-1.52176e-05
-2.10437e-05
-1.39997e-05
-1.25277e-05
-1.18281e-05
-6.03295e-06
-8.85469e-06
-1.88847e-06
-5.38377e-06
-9.43372e-08
-1.93741e-06
4.48501e-07
-1.67818e-06
1.88347e-06
-6.66966e-06
8.19264e-06
-1.46371e-05
1.44232e-05
-2.50351e-05
1.95523e-05
-3.72179e-05
2.32924e-05
-5.05362e-05
2.56518e-05
-6.43893e-05
2.67696e-05
-7.82441e-05
2.6819e-05
-9.16329e-05
2.59532e-05
-0.00010414
2.42844e-05
-0.000115383
2.18831e-05
-0.000125005
1.87881e-05
-0.000132663
1.50228e-05
-0.000138036
1.06155e-05
-0.000140832
5.61933e-06
-0.000140816
1.35469e-07
-0.000137827
-5.69352e-06
-0.000131822
-1.16332e-05
-0.0001229
-1.73988e-05
-0.000111329
-2.26458e-05
-9.75583e-05
-2.69969e-05
-8.22217e-05
-3.00775e-05
-6.61093e-05
-3.15586e-05
-5.01224e-05
-3.12045e-05
-3.52025e-05
-2.89196e-05
-2.22412e-05
-2.47894e-05
-1.1974e-05
-1.91218e-05
-4.86756e-06
-1.24902e-05
-1.00518e-06
-5.7998e-06
-5.56678e-07
-2.72608e-06
4.60954e-06
-9.96898e-06
1.54355e-05
-2.09143e-05
2.53686e-05
-3.47438e-05
3.33818e-05
-5.06377e-05
3.91862e-05
-6.78137e-05
4.28278e-05
-8.55563e-05
4.45123e-05
-0.000103226
4.44891e-05
-0.000120256
4.29823e-05
-0.000136132
4.01608e-05
-0.000150384
3.6135e-05
-0.000162566
3.09704e-05
-0.000172255
2.47122e-05
-0.000179054
1.74142e-05
-0.000182605
9.16988e-06
-0.000182616
1.46951e-07
-0.000178891
-9.41885e-06
-0.000171371
-1.91529e-05
-0.000160171
-2.8599e-05
-0.00014561
-3.72069e-05
-0.000128232
-4.43747e-05
-0.000108806
-4.95038e-05
-8.82959e-05
-5.20684e-05
-6.78075e-05
-5.16929e-05
-4.84996e-05
-4.82275e-05
-3.1476e-05
-4.1813e-05
-1.76648e-05
-3.2933e-05
-7.7031e-06
-2.2452e-05
-1.85122e-06
-1.16517e-05
-2.4079e-06
-3.637e-06
8.24654e-06
-1.29408e-05
2.47393e-05
-2.66402e-05
3.9068e-05
-4.36219e-05
5.03635e-05
-6.2877e-05
5.84412e-05
-8.34959e-05
6.34467e-05
-0.000104669
6.56851e-05
-0.000125679
6.54992e-05
-0.000145889
6.31922e-05
-0.000164721
5.89933e-05
-0.000181641
5.30544e-05
-0.000196139
4.54683e-05
-0.000207727
3.63008e-05
-0.000215944
2.56308e-05
-0.000220367
1.35926e-05
-0.000220641
4.21211e-07
-0.000216519
-1.35404e-05
-0.000207902
-2.777e-05
-0.000194887
-4.16143e-05
-0.000177809
-5.42854e-05
-0.000157268
-6.49155e-05
-0.000134138
-7.26337e-05
-0.000109538
-7.6668e-05
-8.47713e-05
-7.64598e-05
-6.12226e-05
-7.17762e-05
-4.02322e-05
-6.28034e-05
-2.29557e-05
-5.02096e-05
-1.02404e-05
-3.51672e-05
-2.55128e-06
-1.93408e-05
-4.95917e-06
-4.42286e-06
1.26694e-05
-1.55849e-05
3.59014e-05
-3.18106e-05
5.52937e-05
-5.16985e-05
7.02514e-05
-7.40474e-05
8.07902e-05
-9.78228e-05
8.72221e-05
-0.000122132
8.99939e-05
-0.000146198
8.95657e-05
-0.000169338
8.63324e-05
-0.000190933
8.05884e-05
-0.000210405
7.25266e-05
-0.0002272
6.22625e-05
-0.000240775
4.98757e-05
-0.000250605
3.54614e-05
-0.000256198
1.91855e-05
-0.000257119
1.34193e-06
-0.000253039
-1.76202e-05
-0.000243781
-3.70281e-05
-0.000229381
-5.60141e-05
-0.000210145
-7.35212e-05
-0.000186693
-8.83672e-05
-0.00015998
-9.93468e-05
-0.000131277
-0.000105372
-0.000102105
-0.000105632
-7.41218e-05
-9.97591e-05
-4.89659e-05
-8.79593e-05
-2.80845e-05
-7.1091e-05
-1.25839e-05
-5.06679e-05
-3.13833e-06
-2.87864e-05
-8.0975e-06
-5.1139e-06
1.77833e-05
-1.79603e-05
4.87478e-05
-3.65141e-05
7.38474e-05
-5.91062e-05
9.28435e-05
-8.43501e-05
0.000106034
-0.000111091
0.000113963
-0.000138362
0.000117265
-0.000165343
0.000116547
-0.000191322
0.000112311
-0.000215657
0.000104924
-0.000237748
9.46171e-05
-0.000257005
8.15203e-05
-0.000272843
6.57133e-05
-0.000284671
4.72895e-05
-0.000291912
2.64259e-05
-0.000294026
3.45599e-06
-0.000290563
-2.10825e-05
-0.00028122
-4.63718e-05
-0.000265913
-7.13208e-05
-0.000244863
-9.45715e-05
-0.000218659
-0.00011457
-0.000188311
-0.000129695
-0.000155243
-0.00013844
-0.000121235
-0.00013964
-8.82908e-05
-0.000132703
-5.84418e-05
-0.000117808
-3.35243e-05
-9.60085e-05
-1.49739e-05
-6.92182e-05
-3.69076e-06
-4.00696e-05
-1.17883e-05
-5.74032e-06
2.35236e-05
-2.01406e-05
6.31481e-05
-4.08696e-05
9.45764e-05
-6.60138e-05
0.000117988
-9.40132e-05
0.000134034
-0.000123602
0.000143551
-0.000153749
0.000147412
-0.000183604
0.000146402
-0.000212445
0.000141152
-0.000239627
0.000132106
-0.00026454
0.000119531
-0.00028658
0.00010356
-0.000305118
8.42515e-05
-0.000319499
6.16703e-05
-0.000329044
3.59712e-05
-0.00033308
7.49193e-06
-0.000330988
-2.31738e-05
-0.000322275
-5.50851e-05
-0.000306667
-8.69288e-05
-0.00028422
-0.000117019
-0.000255427
-0.000143363
-0.000221306
-0.000163817
-0.000183429
-0.000176317
-0.000143881
-0.000179187
-0.000105106
-0.000171479
-6.96603e-05
-0.000153254
-3.991e-05
-0.000125759
-1.77327e-05
-9.13956e-05
-4.30622e-06
-5.3496e-05
-1.60945e-05
-6.32664e-06
2.98502e-05
-2.21935e-05
7.9015e-05
-4.49922e-05
0.000117375
-7.25844e-05
0.00014558
-0.000103249
0.000164699
-0.000135621
0.000175923
-0.000168617
0.000180408
-0.000201374
0.000179159
-0.000233176
0.000172954
-0.000263394
0.000162324
-0.000291432
0.000147569
-0.000316682
0.000128809
-0.000338487
0.000106057
-0.000356125
7.9308e-05
-0.000368803
4.86495e-05
-0.000375682
1.43708e-05
-0.000375925
-2.29311e-05
-0.000368774
-6.22361e-05
-0.000353675
-0.000102028
-0.000330419
-0.000140275
-0.000299303
-0.000174478
-0.00026128
-0.00020184
-0.000218043
-0.000219553
-0.000172016
-0.000225215
-0.000126192
-0.000217303
-8.38259e-05
-0.00019562
-4.80117e-05
-0.000161573
-2.12455e-05
-0.000118162
-5.09536e-06
-6.96462e-05
-2.11898e-05
-6.89117e-06
3.67414e-05
-2.4174e-05
9.62978e-05
-4.89786e-05
0.00014218
-7.89547e-05
0.000175556
-0.000112232
0.000197976
-0.000147354
0.000211045
-0.000183204
0.000216259
-0.00021892
0.000214875
-0.000253814
0.000207847
-0.000287296
0.000195806
-0.000318807
0.00017908
-0.000347757
0.000157759
-0.000373477
0.000131777
-0.000395184
0.000101015
-0.000411966
6.54312e-05
-0.00042279
2.51943e-05
-0.00042655
-1.91709e-05
-0.000422146
-6.66395e-05
-0.000408638
-0.000115536
-0.000385424
-0.000163489
-0.000352473
-0.000207429
-0.000310552
-0.000243762
-0.000261402
-0.000268703
-0.000207794
-0.000278822
-0.000153384
-0.000271714
-0.000102331
-0.000246672
-5.87293e-05
-0.000205175
-2.59614e-05
-0.00015093
-6.18391e-06
-8.94237e-05
-2.73737e-05
-7.44692e-06
4.41883e-05
-2.61235e-05
0.000114974
-5.29027e-05
0.000168959
-8.52267e-05
0.00020788
-0.000121081
0.00023383
-0.000158932
0.000248896
-0.000197638
0.000254965
-0.00023636
0.000253597
-0.000274461
0.000245948
-0.000311417
0.000232762
-0.000346733
0.000214396
-0.000379866
0.000190892
-0.000410158
0.000162069
-0.000436784
0.000127642
-0.000458717
8.73638e-05
-0.000474714
4.11919e-05
-0.000483366
-1.05195e-05
-0.000483147
-6.6858e-05
-0.000472622
-0.000126062
-0.000450649
-0.000185462
-0.000416694
-0.000241384
-0.000371165
-0.00028929
-0.000315715
-0.000324153
-0.00025341
-0.000341128
-0.000188646
-0.000336478
-0.000126724
-0.000308594
-7.30896e-05
-0.000258809
-3.23988e-05
-0.00019162
-7.71675e-06
-0.000114106
-3.50905e-05
-8.0031e-06
5.21914e-05
-2.80728e-05
0.000135044
-5.68185e-05
0.000197704
-9.14693e-05
0.000242531
-0.000129867
0.000272228
-0.000170406
0.000289434
-0.000211935
0.000296494
-0.000253656
0.000295318
-0.000295007
0.0002873
-0.00033556
0.000273314
-0.000374915
0.000253751
-0.000412611
0.000228588
-0.000448037
0.000197495
-0.000480358
0.000159962
-0.00050845
0.000115456
-0.000530868
6.361e-05
-0.000545875
4.48803e-06
-0.000551468
-6.12652e-05
-0.000545613
-0.000131917
-0.000526476
-0.000204599
-0.000492816
-0.000275044
-0.00044445
-0.000337657
-0.000382715
-0.000385888
-0.000310821
-0.000413021
-0.000233909
-0.00041339
-0.000158636
-0.000383867
-9.22263e-05
-0.000325219
-4.11476e-05
-0.000242699
-9.86164e-06
-0.000145392
-4.49521e-05
-8.56721e-06
6.07586e-05
-3.00476e-05
0.000156525
-6.07679e-05
0.000228425
-9.77275e-05
0.000279491
-0.000138616
0.000313117
-0.000181756
0.000332574
-0.000226
0.000340738
-0.000270606
0.000339924
-0.000315114
0.000331807
-0.000359217
0.000317418
-0.000402649
0.000297183
-0.000445069
0.000271008
-0.000485957
0.000238382
-0.000524509
0.000198514
-0.000559551
0.000150498
-0.000589475
9.35338e-05
-0.000612195
2.72083e-05
-0.000625271
-4.81889e-05
-0.000625972
-0.000131217
-0.000611644
-0.000218927
-0.000580136
-0.000306551
-0.000530389
-0.000387404
-0.000463097
-0.00045318
-0.000381317
-0.000494801
-0.000290782
-0.000503925
-0.000199632
-0.000475017
-0.000117331
-0.000407519
-5.2865e-05
-0.000307166
-1.28129e-05
-0.000185444
-5.7765e-05
-9.14803e-06
6.99067e-05
-3.20764e-05
0.000179453
-6.47944e-05
0.000261143
-0.000104039
0.000318736
-0.00014733
0.000356408
-0.000192912
0.000378156
-0.000239645
0.000387471
-0.000286863
0.000387141
-0.000334225
0.000379169
-0.000381575
0.000364769
-0.000428811
0.000344419
-0.000475752
0.000317949
-0.000522016
0.000284646
-0.000566891
0.000243389
-0.000609216
0.000192824
-0.000647281
0.000131599
-0.00067876
5.86866e-05
-0.000700752
-2.61967e-05
-0.000709875
-0.000122093
-0.000702588
-0.000226214
-0.000675656
-0.000333483
-0.000626846
-0.000436215
-0.000555787
-0.000524238
-0.000464901
-0.000585687
-0.000360118
-0.000608708
-0.000250971
-0.000584164
-0.000149562
-0.000508927
-6.82598e-05
-0.000388468
-1.67951e-05
-0.000236909
-7.45601e-05
-9.75985e-06
7.96665e-05
-3.42033e-05
0.000203896
-6.89631e-05
0.000295902
-0.000110462
0.000360234
-0.000156014
0.00040196
-0.000203777
0.000425919
-0.000252621
0.000436315
-0.000301962
0.000436482
-0.000351596
0.000428803
-0.000401538
0.000414711
-0.000451874
0.000394756
-0.000502621
0.000368696
-0.00055358
0.000335605
-0.000604196
0.000294006
-0.00065341
0.000242037
-0.000699516
0.000177706
-0.000740068
9.92387e-05
-0.000771845
5.57971e-06
-0.000790917
-0.000103022
-0.000792902
-0.000224229
-0.000773412
-0.000352972
-0.000728789
-0.000480839
-0.000657122
-0.000595905
-0.000559524
-0.000683285
-0.000441407
-0.000726826
-0.000313227
-0.000712344
-0.00018988
-0.000632275
-8.80593e-05
-0.000490288
-2.20677e-05
-0.0003029
-9.66278e-05
-1.04284e-05
9.0095e-05
-3.65045e-05
0.000229972
-7.33875e-05
0.000332785
-0.000117104
0.000403951
-0.000164718
0.000449574
-0.000214277
0.000475478
-0.000264658
0.000486696
-0.000315368
0.000487192
-0.000366348
0.000479783
-0.000417794
0.000466156
-0.000469995
0.000446956
-0.000523186
0.000421886
-0.000577396
0.000389815
-0.000632291
0.000348901
-0.000687012
0.000296757
-0.000740004
0.000230698
-0.000788883
0.000148118
-0.000830328
4.70241e-05
-0.000860105
-7.32449e-05
-0.000873188
-0.000211145
-0.000864132
-0.000362028
-0.000827731
-0.00051724
-0.000760107
-0.00066353
-0.000660267
-0.000783124
-0.000532028
-0.000855065
-0.000385759
-0.000858613
-0.000238786
-0.000779247
-0.00011294
-0.000616134
-2.89258e-05
-0.000386915
-0.000125554
-1.11997e-05
0.000101295
-3.9112e-05
0.000257885
-7.8266e-05
0.00037194
-0.000124173
0.000449858
-0.000173579
0.00049898
-0.000224401
0.0005263
-0.000275521
0.000537816
-0.00032654
0.000538212
-0.000377548
0.000530791
-0.000428921
0.000517529
-0.000481152
0.000499188
-0.000534705
0.000475439
-0.00058986
0.00044497
-0.000646563
0.000405605
-0.000704257
0.000354451
-0.000761703
0.000288144
-0.000816806
0.000203221
-0.000866466
9.66842e-05
-0.000906469
-3.3242e-05
-0.000931559
-0.000186055
-0.000935522
-0.000358065
-0.000911723
-0.00054104
-0.000854065
-0.000721187
-0.000758684
-0.000878506
-0.000626457
-0.000987291
-0.000466021
-0.00101905
-0.000295921
-0.000949347
-0.000143403
-0.000768653
-3.76944e-05
-0.000492623
-0.000163248
-1.2153e-05
0.000113448
-4.22471e-05
0.000287979
-8.39294e-05
0.000413622
-0.000132022
0.000497951
-0.000182876
0.000549833
-0.000234255
0.00057768
-0.000285057
0.000588617
-0.000334989
0.000588144
-0.000384291
0.000580093
-0.000433513
0.000566751
-0.000483342
0.000549017
-0.00053446
0.000526557
-0.00058741
0.00049792
-0.000642459
0.000460654
-0.000699443
0.000411435
-0.000757597
0.000346297
-0.000815367
0.000260991
-0.000870225
0.000151543
-0.000918403
1.49357e-05
-0.000954963
-0.000149496
-0.000973443
-0.000339584
-0.000966201
-0.000548282
-0.000925021
-0.000762367
-0.000842658
-0.000960869
-0.000715694
-0.00111426
-0.000548832
-0.00118591
-0.000359521
-0.00113866
-0.000179559
-0.000948614
-4.87099e-05
-0.000623473
-0.000211958
-1.34221e-05
0.00012687
-4.62696e-05
0.000320826
-9.09031e-05
0.000458255
-0.000141214
0.000548262
-0.000193071
0.00060169
-0.000244093
0.000628702
-0.000293224
0.000637748
-0.00034031
0.00063523
-0.000385757
0.00062554
-0.000430283
0.000611277
-0.000474752
0.000593486
-0.000520045
0.00057185
-0.000566961
0.000544836
-0.000616106
0.000509798
-0.000667774
0.000463103
-0.000721803
0.000400326
-0.000777398
0.000316587
-0.000832911
0.000207055
-0.000885621
6.76456e-05
-0.000931259
-0.000103857
-0.000963989
-0.000306854
-0.00097587
-0.000536402
-0.000957123
-0.000781113
-0.000897156
-0.00102084
-0.000787268
-0.00122414
-0.00062585
-0.00134733
-0.00042581
-0.0013387
-0.000220845
-0.00115358
-6.22922e-05
-0.000782025
-0.00027425
-1.52323e-05
0.000142102
-5.1752e-05
0.000357346
-9.99885e-05
0.000506492
-0.000152577
0.00060085
-0.000204838
0.000653951
-0.000254302
0.000678166
-0.00030005
0.000683497
-0.000342138
0.000677318
-0.000381176
0.000664578
-0.000418063
0.000648164
-0.000453826
0.000629249
-0.000489529
0.000607553
-0.000526202
0.00058151
-0.000564789
0.000548385
-0.000606068
0.000504382
-0.000650556
0.000444814
-0.000698363
0.000364394
-0.000748982
0.000257674
-0.000801008
0.000119671
-0.000851532
-5.33325e-05
-0.000896079
-0.000262308
-0.000927357
-0.000505124
-0.000935075
-0.000773395
-0.00090607
-0.00104984
-0.000826203
-0.00130401
-0.000685612
-0.00148792
-0.000488533
-0.00153578
-0.000265675
-0.00137644
-7.87201e-05
-0.000968981
-0.00035297
-1.79661e-05
0.000160068
-5.95965e-05
0.000398977
-0.000112366
0.000559261
-0.000167246
0.000655731
-0.000219017
0.000705721
-0.000265287
0.000724436
-0.000305455
0.000723665
-0.000339921
0.000711784
-0.000369585
0.000694242
-0.000395564
0.000674143
-0.000419056
0.000652742
-0.000441292
0.000629788
-0.000463514
0.000603732
-0.000486975
0.000571846
-0.000512919
0.000530326
-0.000542542
0.000474437
-0.000576898
0.00039875
-0.000616711
0.000297487
-0.000662156
0.000165116
-0.000711907
-3.58152e-06
-0.000763754
-0.000210461
-0.000811901
-0.000456977
-0.000846998
-0.000738299
-0.000854865
-0.00104197
-0.000816955
-0.00134192
-0.000714402
-0.00159047
-0.000538847
-0.00171133
-0.00031111
-0.00160417
-9.82232e-05
-0.00118187
-0.000451193
-2.22889e-05
0.000182357
-7.12172e-05
0.000447905
-0.000129705
0.000617749
-0.000186632
0.000712658
-0.000236423
0.000755513
-0.000277127
0.000765139
-0.000308781
0.000755318
-0.00033236
0.000735364
-0.000349194
0.000711076
-0.000360694
0.000685642
-0.00036826
0.000660308
-0.000373288
0.000634816
-0.000377205
0.00060765
-0.00038153
0.00057617
-0.000387906
0.000536703
-0.00039813
0.000484661
-0.000414124
0.000414744
-0.000437766
0.000321129
-0.000470638
0.000197988
-0.000514034
3.98144e-05
-0.000566933
-0.000157563
-0.000626818
-0.000397091
-0.000686571
-0.000678545
-0.000733115
-0.00099543
-0.000745791
-0.00132924
-0.000697806
-0.00163846
-0.000565715
-0.00184342
-0.000352565
-0.00181732
-0.000120975
-0.00141346
-0.000572169
-2.93855e-05
0.000211743
-8.88092e-05
0.000507328
-0.000154223
0.000683163
-0.000212152
0.000770586
-0.000257265
0.000800626
-0.000288728
0.000796603
-0.000307739
0.000774329
-0.000316187
0.000743812
-0.000316033
0.000710922
-0.000309092
0.000678701
-0.000297017
0.000648233
-0.000281371
0.00061917
-0.000263735
0.000590014
-0.000245821
0.000558256
-0.000229569
0.000520451
-0.000217205
0.000472296
-0.000211414
0.000408953
-0.00021496
0.000324675
-0.000230822
0.000213851
-0.000261804
7.0796e-05
-0.000309586
-0.00010978
-0.000374656
-0.000332021
-0.00045321
-0.000599991
-0.000535643
-0.000912998
-0.000602506
-0.00126238
-0.000622275
-0.00161869
-0.000556536
-0.00190916
-0.000383502
-0.00199036
-0.000146971
-0.00164999
-0.00071914
-4.13975e-05
0.00025314
-0.000115665
0.000581596
-0.000188421
0.00075592
-0.000244306
0.000826472
-0.000279632
0.000835952
-0.000295856
0.000812827
-0.000296105
0.000774578
-0.000283629
0.000731335
-0.000261259
0.000688553
-0.000231327
0.00064877
-0.00019577
0.000612676
-0.000156298
0.000579698
-0.000114581
0.000548297
-7.24216e-05
0.000516097
-3.19293e-05
0.000479959
4.33018e-06
0.000436037
3.36068e-05
0.000379677
5.21532e-05
0.000306129
5.6037e-05
0.000209967
4.10536e-05
8.57794e-05
3.1334e-06
-7.186e-05
-5.98799e-05
-0.000269007
-0.000149582
-0.000510289
-0.000261303
-0.000801277
-0.000380378
-0.0011433
-0.000475638
-0.00152343
-0.000497346
-0.00188745
-0.000394736
-0.00209297
-0.000175444
-0.00186928
-0.000894584
-6.21724e-05
0.000315312
-0.000156224
0.000675648
-0.000233656
0.000833352
-0.000279844
0.000872659
-0.000295624
0.000851731
-0.000286597
0.0008038
-0.000258813
0.000746794
-0.000217356
0.000689878
-0.000166102
0.000637299
-0.000107918
0.000590585
-4.4957e-05
0.000549715
2.1032e-05
0.000513709
8.84386e-05
0.00048089
0.000155551
0.000448985
0.000220349
0.00041516
0.00028035
0.000376037
0.000332314
0.000327712
0.000372504
0.000265939
0.000396378
0.000186093
0.000398813
8.33445e-05
0.000374349
-4.73966e-05
0.000317208
-0.000211866
0.00022314
-0.00041622
9.05963e-05
-0.000668734
-7.37148e-05
-0.000978993
-0.000245617
-0.00135153
-0.000371489
-0.00176158
-0.000372529
-0.00209193
-0.000203129
-0.00203868
-0.00109771
-9.81765e-05
0.000413489
-0.00021436
0.000791831
-0.000284725
0.000903716
-0.000303637
0.000891571
-0.000281733
0.000829827
-0.00023121
0.000753277
-0.000161956
0.00067754
-8.10314e-05
0.000608954
6.83134e-06
0.000549436
9.85487e-05
0.000498868
0.000192074
0.000456189
0.000285942
0.000419841
0.000378895
0.000387937
0.000469588
0.000358292
0.000556336
0.000328411
0.000636908
0.000295465
0.000708335
0.000256285
0.000766841
0.000207433
0.000807726
0.000145208
0.000825343
6.57274e-05
0.000813156
-3.52094e-05
0.000764011
-0.000162721
0.000670224
-0.000322434
0.000524829
-0.000523338
0.000325236
-0.0007794
8.34941e-05
-0.00110979
-0.000155146
-0.00152294
-0.00029427
-0.00195281
-0.000221073
-0.00211188
-0.00131879
-0.000157888
0.000571377
-0.000282981
0.000916924
-0.000311392
0.000932127
-0.000266486
0.000846665
-0.000176351
0.000739692
-6.138e-05
0.000638306
6.52967e-05
0.000550864
0.000195853
0.000478398
0.000325928
0.00041936
0.000453259
0.000371537
0.000576747
0.000332702
0.000695841
0.000300748
0.00081012
0.000273657
0.000918984
0.000249428
0.0010214
0.000225993
0.0011157
0.000201162
0.0011994
0.000172587
0.00126907
0.00013777
0.00132019
9.40848e-05
0.00134704
3.88733e-05
0.00134277
-3.0933e-05
0.00129929
-0.000119242
0.00120698
-0.000230126
0.00105491
-0.000371264
0.000832001
-0.000556496
0.000533898
-0.000811684
0.000185545
-0.00117459
-0.000119449
-0.00164781
-0.000209787
-0.00202154
-0.00152857
-0.000239634
0.000811011
-0.000296762
0.000974052
-0.000200651
0.000836017
-3.06351e-05
0.000676649
0.000165285
0.000543772
0.00036414
0.000439451
0.00055533
0.000359674
0.000734546
0.000299182
0.000900755
0.000253151
0.00105447
0.00021782
0.0011968
0.000190371
0.00132892
0.00016863
0.00145175
0.000150823
0.00156578
0.000135404
0.00167084
0.000120934
0.001766
0.000105996
0.00184944
8.9154e-05
0.00191828
6.89276e-05
0.00196854
4.38185e-05
0.00199496
1.24584e-05
0.00199117
-2.71443e-05
0.00194876
-7.68271e-05
0.00185775
-0.000139124
0.00170537
-0.000218876
0.0014749
-0.000326034
0.00114643
-0.000483214
0.000711099
-0.000739253
0.000229231
-0.00116594
-9.26678e-05
-0.00169964
-0.00162124
-0.000188512
0.000999523
3.17098e-05
0.00075383
0.000389954
0.000477772
0.00073009
0.000336513
0.0010297
0.000244162
0.00128878
0.000180373
0.00151156
0.000136896
0.00170356
0.000107182
0.00187027
8.644e-05
0.00201648
7.16074e-05
0.0021461
6.07492e-05
0.00226217
5.25672e-05
0.00236686
4.61247e-05
0.00246158
4.06929e-05
0.00254685
3.56561e-05
0.00262239
3.04547e-05
0.00268699
2.45552e-05
0.00273847
1.74493e-05
0.00277359
8.69834e-06
0.00278832
-2.27522e-06
0.00277758
-1.64017e-05
0.00273401
-3.32576e-05
0.00264933
-5.44459e-05
0.00251187
-8.14084e-05
0.00230393
-0.000118099
0.0019962
-0.000175478
0.00154303
-0.000286088
0.000920358
-0.00054327
0.000260632
-0.00103991
-0.00136061
0.000999523
0.00175335
0.00223113
0.00256764
0.0028118
0.00299217
0.00312907
0.00323625
0.00332269
0.0033943
0.00345505
0.00350762
0.00355374
0.00359443
0.00363009
0.00366054
0.0036851
0.00370255
0.00371125
0.00370897
0.00369257
0.00365931
0.00360487
0.00352346
0.00340536
0.00322988
0.00294379
0.00240052
0.00136061
)
;

boundaryField
{
    movingWall
    {
        type            calculated;
        value           uniform 0;
    }
    fixedWalls
    {
        type            calculated;
        value           uniform 0;
    }
    frontAndBack
    {
        type            empty;
        value           nonuniform 0();
    }
}


// ************************************************************************* //
