/*--------------------------------*- C++ -*----------------------------------*\
  =========                 |
  \\      /  F ield         | OpenFOAM: The Open Source CFD Toolbox
   \\    /   O peration     | Website:  https://openfoam.org
    \\  /    A nd           | Version:  7
     \\/     M anipulation  |
\*---------------------------------------------------------------------------*/
FoamFile
{
    version     2.0;
    format      ascii;
    class       surfaceScalarField;
    location    "2.7";
    object      phi;
}
// * * * * * * * * * * * * * * * * * * * * * * * * * * * * * * * * * * * * * //

dimensions      [0 3 -1 0 0 0 0];

internalField   nonuniform List<scalar> 
1740
(
4.05671e-07
-4.05664e-07
-1.49674e-07
5.55336e-07
-1.82696e-06
1.6773e-06
-4.4467e-06
2.61974e-06
-7.73718e-06
3.29048e-06
-1.1444e-05
3.70681e-06
-1.53574e-05
3.91342e-06
-1.93104e-05
3.95301e-06
-2.31668e-05
3.85631e-06
-2.68077e-05
3.64099e-06
-3.01216e-05
3.31389e-06
-3.29964e-05
2.87476e-06
-3.5317e-05
2.32058e-06
-3.69671e-05
1.65016e-06
-3.78358e-05
8.68696e-07
-3.78274e-05
-8.38048e-09
-3.6874e-05
-9.53413e-07
-3.49516e-05
-1.92238e-06
-3.20935e-05
-2.85811e-06
-2.84008e-05
-3.69268e-06
-2.40475e-05
-4.35333e-06
-1.92767e-05
-4.77078e-06
-1.43881e-05
-4.88866e-06
-9.71537e-06
-4.67269e-06
-5.59762e-06
-4.11775e-06
-2.34463e-06
-3.25299e-06
-1.93327e-07
-2.1513e-06
7.66447e-07
-9.59777e-07
6.33388e-07
1.33057e-07
6.33387e-07
-5.45436e-07
1.39763e-07
-3.26723e-06
3.27713e-06
-8.35001e-06
6.76006e-06
-1.5419e-05
9.68867e-06
-2.39757e-05
1.18472e-05
-3.35062e-05
1.32374e-05
-4.35404e-05
1.39476e-05
-5.36685e-05
1.40811e-05
-6.35334e-05
1.37212e-05
-7.28143e-05
1.29219e-05
-8.12099e-05
1.17094e-05
-8.84268e-05
1.00917e-05
-9.41767e-05
8.07045e-06
-9.8181e-05
5.6545e-06
-0.000100186
2.87337e-06
-9.99873e-05
-2.06779e-07
-9.74486e-05
-3.49208e-06
-9.25459e-05
-6.82511e-06
-8.53855e-05
-1.00185e-05
-7.62271e-05
-1.28511e-05
-6.54906e-05
-1.50898e-05
-5.37457e-05
-1.65157e-05
-4.16807e-05
-1.69537e-05
-3.00512e-05
-1.63021e-05
-1.96115e-05
-1.45574e-05
-1.10309e-05
-1.18337e-05
-4.79879e-06
-8.38339e-06
-1.13396e-06
-4.62461e-06
1.86544e-07
-1.18745e-06
8.19928e-07
-1.7414e-06
1.88117e-06
-7.01672e-06
8.55246e-06
-1.5506e-05
1.52494e-05
-2.66527e-05
2.08353e-05
-3.97841e-05
2.49786e-05
-5.42168e-05
2.76702e-05
-6.9311e-05
2.90418e-05
-8.44892e-05
2.92592e-05
-9.92324e-05
2.84645e-05
-0.000113065
2.67545e-05
-0.000125538
2.41825e-05
-0.000136218
2.07717e-05
-0.000144685
1.65371e-05
-0.00015054
1.15101e-05
-0.00015343
5.76289e-06
-0.00015307
-5.6618e-07
-0.000149288
-7.27488e-06
-0.000142057
-1.40552e-05
-0.000131542
-2.05345e-05
-0.000118113
-2.62801e-05
-0.000102363
-3.08388e-05
-8.50931e-05
-3.37861e-05
-6.72629e-05
-3.47839e-05
-4.99265e-05
-3.36386e-05
-3.41332e-05
-3.03508e-05
-2.08139e-05
-2.51529e-05
-1.06589e-05
-1.85385e-05
-3.99653e-06
-1.1287e-05
-6.82888e-07
-4.50109e-06
1.37038e-07
-2.89459e-06
4.77575e-06
-1.0653e-05
1.63109e-05
-2.24373e-05
2.70336e-05
-3.73933e-05
3.57913e-05
-5.46603e-05
4.22455e-05
-7.34118e-05
4.64217e-05
-9.28835e-05
4.85135e-05
-0.000112381
4.87564e-05
-0.000131271
4.73543e-05
-0.000148966
4.44496e-05
-0.000164908
4.01247e-05
-0.000178557
3.44212e-05
-0.000189392
2.73719e-05
-0.000196919
1.90368e-05
-0.000200697
9.54134e-06
-0.000200375
-8.88008e-07
-0.000195731
-1.19194e-05
-0.000186723
-2.3063e-05
-0.000173535
-3.37231e-05
-0.000156605
-4.32097e-05
-0.000136646
-5.0798e-05
-0.000114626
-5.58058e-05
-9.17241e-05
-5.76859e-05
-6.92429e-05
-5.61198e-05
-4.8493e-05
-5.11007e-05
-3.06531e-05
-4.29928e-05
-1.66268e-05
-3.25648e-05
-6.91532e-06
-2.09984e-05
-1.52834e-06
-9.88807e-06
-1.39131e-06
-3.92043e-06
8.69617e-06
-1.39961e-05
2.63866e-05
-2.8881e-05
4.19185e-05
-4.73954e-05
5.43057e-05
-6.84719e-05
6.3322e-05
-9.11462e-05
6.90959e-05
-0.000114552
7.1919e-05
-0.000137909
7.21134e-05
-0.000160506
6.99514e-05
-0.000181679
6.56227e-05
-0.000200792
5.92379e-05
-0.000217226
5.08549e-05
-0.000230375
4.05211e-05
-0.000239661
2.8323e-05
-0.000244558
1.44387e-05
-0.000244636
-8.10236e-07
-0.000239594
-1.69614e-05
-0.00022934
-3.33168e-05
-0.000214032
-4.9031e-05
-0.000194128
-6.31145e-05
-0.000170409
-7.45164e-05
-0.00014398
-8.22347e-05
-0.000116217
-8.54495e-05
-8.86722e-05
-8.36643e-05
-6.29412e-05
-7.68317e-05
-4.04921e-05
-6.54418e-05
-2.24971e-05
-5.05598e-05
-9.6886e-06
-3.3807e-05
-2.28007e-06
-1.72966e-05
-3.67137e-06
-4.82385e-06
1.352e-05
-1.70236e-05
3.85864e-05
-3.47936e-05
5.96885e-05
-5.6633e-05
7.61451e-05
-8.12638e-05
8.79528e-05
-0.000107587
9.54189e-05
-0.000134647
9.89794e-05
-0.000161602
9.90684e-05
-0.000187689
9.60381e-05
-0.000212195
9.01285e-05
-0.000234432
8.14748e-05
-0.00025372
7.01431e-05
-0.000269383
5.61845e-05
-0.000280759
3.9699e-05
-0.000287223
2.0902e-05
-0.000288242
2.08598e-07
-0.000283391
-2.18116e-05
-0.000272481
-4.42275e-05
-0.000255582
-6.593e-05
-0.000233111
-8.55854e-05
-0.000205874
-0.000101753
-0.000175083
-0.000113027
-0.000142309
-0.000118223
-0.000109393
-0.00011658
-7.82777e-05
-0.000107947
-5.08054e-05
-9.29141e-05
-2.85047e-05
-7.28605e-05
-1.24085e-05
-4.99031e-05
-2.95492e-06
-2.67502e-05
-6.62629e-06
-5.62995e-06
1.915e-05
-1.9775e-05
5.27314e-05
-4.0226e-05
8.01395e-05
-6.51826e-05
0.000101102
-9.31645e-05
0.000115935
-0.000122945
0.0001252
-0.000153495
0.000129529
-0.000183926
0.000129499
-0.000213447
0.000125559
-0.000241321
0.000118003
-0.00026683
0.000106984
-0.000289251
9.25638e-05
-0.000307844
7.47775e-05
-0.000321857
5.37129e-05
-0.000330553
2.95978e-05
-0.000333232
2.88772e-06
-0.000329341
-2.5703e-05
-0.000318492
-5.50766e-05
-0.000300602
-8.38201e-05
-0.000275972
-0.000110215
-0.000245374
-0.000132351
-0.000210089
-0.000148312
-0.000171895
-0.000156416
-0.00013297
-0.000155506
-9.56997e-05
-0.000145218
-6.2426e-05
-0.000126188
-3.51592e-05
-0.000100127
-1.53291e-05
-6.97332e-05
-3.63295e-06
-3.84464e-05
-1.02592e-05
-6.36318e-06
2.55132e-05
-2.23035e-05
6.86717e-05
-4.52568e-05
0.000103093
-7.31513e-05
0.000128996
-0.00010432
0.000147104
-0.000137423
0.000158303
-0.000171369
0.000163474
-0.000205244
0.000163375
-0.000238253
0.000158568
-0.000269655
0.000149405
-0.000298725
0.000136054
-0.000324712
0.000118551
-0.000346821
9.68857e-05
-0.000364204
7.10965e-05
-0.000375983
4.13769e-05
-0.000381281
8.18532e-06
-0.000379306
-2.76782e-05
-0.000369425
-6.49576e-05
-0.000351302
-0.000101942
-0.00032503
-0.000136487
-0.000291258
-0.000166124
-0.000251287
-0.000188283
-0.000207093
-0.00020061
-0.000161246
-0.000201353
-0.000116694
-0.00018977
-7.64394e-05
-0.000166442
-4.31514e-05
-0.000133415
-1.88007e-05
-9.40839e-05
-4.42073e-06
-5.28264e-05
-1.468e-05
-7.04131e-06
3.25545e-05
-2.46539e-05
8.62843e-05
-4.99569e-05
0.000128396
-8.06339e-05
0.000159673
-0.000114851
0.000181321
-0.00015117
0.000194622
-0.000188455
0.00020076
-0.00022579
0.000200709
-0.000262393
0.000195171
-0.000297551
0.000184562
-0.00033055
0.000169053
-0.000360632
0.000148633
-0.000386956
0.000123209
-0.000408579
9.27195e-05
-0.000424463
5.72614e-05
-0.000433509
1.72314e-05
-0.000434633
-2.65548e-05
-0.000426861
-7.27287e-05
-0.000409502
-0.000119302
-0.000382317
-0.000163672
-0.000345718
-0.000202722
-0.000300936
-0.000233065
-0.000250107
-0.000251438
-0.000196231
-0.00025523
-0.000142943
-0.000243058
-9.41109e-05
-0.000215274
-5.32989e-05
-0.000174227
-2.32368e-05
-0.000124146
-5.43866e-06
-7.06245e-05
-2.01186e-05
-7.67499e-06
4.02295e-05
-2.68559e-05
0.000105465
-5.43742e-05
0.000155914
-8.76915e-05
0.000192991
-0.000124826
0.000218455
-0.000164256
0.000234052
-0.000204825
0.000241328
-0.00024563
0.000241515
-0.000285934
0.000235475
-0.000325072
0.0002237
-0.000362372
0.000206354
-0.000397094
0.000183354
-0.000428366
0.000154482
-0.000455157
0.000119511
-0.000476262
7.83667e-05
-0.000490327
3.1296e-05
-0.000495922
-2.096e-05
-0.000491646
-7.70044e-05
-0.000476333
-0.000134615
-0.000449274
-0.000190731
-0.000410492
-0.000241505
-0.000361004
-0.000282553
-0.000303013
-0.000309429
-0.000239942
-0.000318301
-0.000176225
-0.000306774
-0.000116825
-0.000274674
-6.65157e-05
-0.000224537
-2.91012e-05
-0.000161561
-6.81911e-06
-9.29066e-05
-2.69377e-05
-8.26889e-06
4.84984e-05
-2.89243e-05
0.000126121
-5.85309e-05
0.000185521
-9.43458e-05
0.000228806
-0.000134252
0.000258362
-0.000176665
0.000276465
-0.000220419
0.000285082
-0.000264652
0.000285747
-0.000308692
0.000279515
-0.000351955
0.000266962
-0.000393842
0.000248241
-0.000433657
0.000223169
-0.000470529
0.000191353
-0.000503356
0.000152338
-0.000530775
0.000105785
-0.000551162
5.1683e-05
-0.00056271
-9.41175e-06
-0.000563515
-7.61992e-05
-0.00055183
-0.0001463
-0.000526322
-0.000216238
-0.000486437
-0.00028139
-0.000432778
-0.000336213
-0.000367438
-0.000374769
-0.000294171
-0.000391568
-0.000218266
-0.00038268
-0.000146014
-0.000346925
-8.37854e-05
-0.000286766
-3.69037e-05
-0.000208442
-8.70806e-06
-0.000121102
-3.56458e-05
-8.8237e-06
5.73221e-05
-3.08625e-05
0.000148159
-6.24288e-05
0.000217087
-0.000100584
0.00026696
-0.000143084
0.000300863
-0.000188291
0.000321672
-0.000235048
0.000331839
-0.000282552
0.000333251
-0.000330223
0.000327187
-0.000377586
0.000314325
-0.000424146
0.000294801
-0.00046929
0.000268313
-0.000512183
0.000234246
-0.000551689
0.000191844
-0.000586316
0.000140412
-0.000614196
7.95625e-05
-0.000633126
9.51854e-06
-0.000640687
-6.86384e-05
-0.000634456
-0.00015253
-0.000612339
-0.000238356
-0.000572996
-0.000320733
-0.000516353
-0.000392855
-0.000444115
-0.000447007
-0.000360146
-0.000475537
-0.000270522
-0.000472304
-0.000183046
-0.000434401
-0.000106125
-0.000363688
-4.71968e-05
-0.00026737
-1.1268e-05
-0.000157031
-4.69138e-05
-9.33881e-06
6.66609e-05
-3.26705e-05
0.000171491
-6.60607e-05
0.000250477
-0.000106372
0.000307271
-0.000151235
0.000345725
-0.000198959
0.000369397
-0.000248409
0.000381288
-0.000298855
0.000383697
-0.000349831
0.000378164
-0.000400997
0.00036549
-0.000451996
0.0003458
-0.000502335
0.000318652
-0.000551262
0.000283173
-0.000597663
0.000238245
-0.000639975
0.000182724
-0.000676142
0.00011573
-0.000703616
3.69923e-05
-0.000719489
-5.27659e-05
-0.000720638
-0.00015138
-0.000704111
-0.000254883
-0.000667588
-0.000357256
-0.000610015
-0.000450429
-0.000532317
-0.000524705
-0.000438067
-0.000569786
-0.000333865
-0.000576507
-0.000229057
-0.000539209
-0.000134521
-0.000458224
-6.05669e-05
-0.000341324
-1.4682e-05
-0.000202916
-6.15958e-05
-9.81617e-06
7.64771e-05
-3.4356e-05
0.000196031
-6.94292e-05
0.00028555
-0.000111683
0.000349525
-0.000158607
0.00039265
-0.000208459
0.000419249
-0.000260122
0.000432951
-0.000312952
0.000436527
-0.000366613
0.000431825
-0.000420917
0.000419794
-0.000475675
0.000400559
-0.000530554
0.000373531
-0.000584938
0.000337558
-0.000637802
0.000291109
-0.000687602
0.000232524
-0.000732197
0.000160325
-0.000768822
7.36171e-05
-0.000794153
-2.74343e-05
-0.000804458
-0.000141075
-0.000795912
-0.000263429
-0.00076508
-0.000388087
-0.000709625
-0.000505884
-0.000629212
-0.000605118
-0.000526527
-0.00067247
-0.000408138
-0.000694896
-0.000284688
-0.000662659
-0.000169826
-0.000573085
-7.76141e-05
-0.000433536
-1.91569e-05
-0.000261373
-8.07528e-05
-1.02656e-05
8.67426e-05
-3.59491e-05
0.000221714
-7.25731e-05
0.000322174
-0.000116529
0.000393481
-0.000165141
0.000441262
-0.000216594
0.000470701
-0.00026979
0.000486147
-0.000324171
0.000490908
-0.000379537
0.00048719
-0.000435867
0.000476124
-0.000493158
0.000457851
-0.000551273
0.000431645
-0.000609784
0.000396069
-0.000667837
0.000349162
-0.000724021
0.000288707
-0.000776258
0.000212562
-0.000821744
0.000119103
-0.00085694
7.76184e-06
-0.000877679
-0.000120337
-0.000879384
-0.000261724
-0.000857489
-0.000409982
-0.000808147
-0.000555226
-0.000729263
-0.000684002
-0.000621868
-0.000779865
-0.0004916
-0.000825164
-0.000349707
-0.000804552
-0.000212578
-0.000710215
-9.89069e-05
-0.000547207
-2.49243e-05
-0.000335356
-0.000105677
-1.07118e-05
9.74544e-05
-3.75243e-05
0.000248527
-7.5602e-05
0.000360252
-0.000121012
0.000438891
-0.000170864
0.000491114
-0.000223248
0.000523085
-0.000277075
0.000539974
-0.00033187
0.000545703
-0.000387566
0.000542886
-0.000444314
0.000532872
-0.00050231
0.000515847
-0.000561634
0.000490969
-0.000622098
0.000456533
-0.000683103
0.000410168
-0.000743499
0.000349103
-0.000801454
0.000270517
-0.000854355
0.000172004
-0.000898734
5.21404e-05
-0.000930275
-8.87955e-05
-0.000943934
-0.000248065
-0.000934173
-0.000419743
-0.000895572
-0.000593827
-0.000823874
-0.0007557
-0.000717618
-0.000886122
-0.000580298
-0.000962483
-0.000422508
-0.000962342
-0.000262723
-0.00087
-0.000124896
-0.000685034
-3.22343e-05
-0.000428017
-0.000137911
-1.12046e-05
0.000108659
-3.92273e-05
0.00027655
-7.87402e-05
0.000399765
-0.000125374
0.000485525
-0.000175958
0.000541698
-0.00022846
0.000575587
-0.000281787
0.000593301
-0.000335546
0.000599461
-0.0003898
0.000597141
-0.000444869
0.000587941
-0.000501147
0.000572124
-0.000558948
0.00054877
-0.000618364
0.000515949
-0.00067913
0.000470933
-0.000740481
0.000410454
-0.000801024
0.000331061
-0.000858602
0.000229582
-0.000910156
0.000103695
-0.000951555
-4.7397e-05
-0.000977805
-0.000221815
-0.000982715
-0.000414833
-0.000959491
-0.000617051
-0.000901558
-0.000813633
-0.000804253
-0.000983426
-0.000667551
-0.00109918
-0.000499545
-0.00113035
-0.000319241
-0.0010503
-0.000155777
-0.000848498
-4.13405e-05
-0.000542454
-0.000179252
-1.18331e-05
0.000120492
-4.13129e-05
0.000306029
-8.23827e-05
0.000440835
-0.000130067
0.00053321
-0.000180831
0.000592462
-0.000232496
0.000627252
-0.000283969
0.000644775
-0.000334944
0.000650436
-0.00038562
0.000647817
-0.000436481
0.000638802
-0.000488116
0.000623759
-0.00054108
0.000601734
-0.000595774
0.000570643
-0.000652322
0.000527481
-0.000710459
0.000468591
-0.000769398
0.00039
-0.000827683
0.000287867
-0.000883053
0.000159066
-0.00093181
1.35938e-06
-0.000969804
-0.00018382
-0.000990565
-0.000394072
-0.000986479
-0.000621138
-0.000948891
-0.00085122
-0.000869596
-0.00106272
-0.000743804
-0.00122498
-0.000574865
-0.00129929
-0.000379702
-0.00124547
-0.000191299
-0.0010369
-5.24781e-05
-0.000681274
-0.00023173
-1.27484e-05
0.00013324
-4.41979e-05
0.000337479
-8.7164e-05
0.000483801
-0.000135819
0.000581864
-0.000186173
0.000642817
-0.000235901
0.000676979
-0.000283944
0.000692818
-0.000330117
0.00069661
-0.000374777
0.000692477
-0.000418578
0.000682603
-0.000462306
0.000667488
-0.00050676
0.000646189
-0.000552659
0.000616541
-0.000600557
0.000575379
-0.000650755
0.000518789
-0.000703192
0.000442436
-0.000757291
0.000341965
-0.000811714
0.000213489
-0.000864459
5.41044e-05
-0.000911344
-0.000136935
-0.000947188
-0.000358228
-0.00096419
-0.000604136
-0.000952305
-0.000863106
-0.000900042
-0.00111498
-0.000797133
-0.00132789
-0.000639986
-0.00145643
-0.000439893
-0.00144556
-0.000230546
-0.00124625
-6.5845e-05
-0.000845975
-0.000297575
-1.42014e-05
0.000147442
-4.85396e-05
0.000371817
-9.40463e-05
0.000529308
-0.000143703
0.000631521
-0.000192994
0.000692108
-0.000239499
0.000723485
-0.000282292
0.00073561
-0.000321389
0.000735707
-0.000357358
0.000728446
-0.000391056
0.000716301
-0.000423478
0.000699909
-0.000455666
0.000678377
-0.000488662
0.000649537
-0.00052346
0.000610177
-0.000560955
0.000556284
-0.000601862
0.000483344
-0.000646587
0.00038669
-0.000695022
0.000261924
-0.000746302
0.000105385
-0.000798019
-8.52184e-05
-0.000846101
-0.000310146
-0.000883653
-0.000566583
-0.000900384
-0.000846375
-0.000882526
-0.00113284
-0.000814532
-0.00139588
-0.000684323
-0.00158664
-0.000493638
-0.00163624
-0.00027173
-0.00146816
-8.16048e-05
-0.0010361
-0.00037918
-1.66111e-05
0.000164053
-5.53553e-05
0.000410561
-0.000104425
0.000578378
-0.000155184
0.000682279
-0.000202583
0.000739507
-0.000244282
0.000765184
-0.000279671
0.000770999
-0.000309125
0.000765161
-0.000333526
0.000752847
-0.000353993
0.000736768
-0.000371755
0.000717671
-0.00038811
0.000694731
-0.00040441
0.000665838
-0.000422071
0.000627837
-0.000442554
0.000576768
-0.000467326
0.000508115
-0.000497756
0.00041712
-0.00053494
0.000299109
-0.00057941
0.000149855
-0.000630553
-3.40759e-05
-0.000686103
-0.000254595
-0.000740941
-0.000511745
-0.000785915
-0.000801401
-0.000806658
-0.0011121
-0.000783693
-0.00141884
-0.000696196
-0.00167414
-0.000532954
-0.00179949
-0.000312018
-0.00168909
-9.99222e-05
-0.0012482
-0.000479102
-2.06917e-05
0.000184745
-6.6208e-05
0.000456078
-0.000120245
0.000632415
-0.000172079
0.000734113
-0.000216314
0.000783741
-0.000251051
0.000799921
-0.000276336
0.000796284
-0.000293147
0.000781972
-0.000302837
0.000762537
-0.000306879
0.000740809
-0.000306782
0.000717574
-0.0003041
0.00069205
-0.00030048
0.000662217
-0.000297706
0.000625063
-0.000297731
0.000576792
-0.00030267
0.000513054
-0.000314737
0.000429188
-0.00033611
0.000320481
-0.000368671
0.000182416
-0.000413596
1.08497e-05
-0.000470661
-0.000197531
-0.000537254
-0.000445153
-0.000606703
-0.000731952
-0.000666139
-0.00105266
-0.000694611
-0.00139037
-0.000664051
-0.0017047
-0.000548452
-0.00191509
-0.000347375
-0.00189017
-0.000121006
-0.00147457
-0.000600108
-2.76903e-05
0.000212435
-8.34719e-05
0.000511859
-0.000144039
0.000692982
-0.000196285
0.000786358
-0.000235044
0.000822501
-0.000259553
0.00082443
-0.000271043
0.000807774
-0.000271448
0.000782377
-0.000262803
0.000753892
-0.000247044
0.00072505
-0.000226004
0.000696533
-0.00020149
0.000667537
-0.000175393
0.00063612
-0.000149779
0.00059945
-0.000126975
0.000553988
-0.000109582
0.000495661
-0.000100467
0.000420073
-0.000102665
0.000322678
-0.000119196
0.000198947
-0.000152809
4.44634e-05
-0.000205325
-0.000145015
-0.000276938
-0.000373539
-0.000364469
-0.000644421
-0.00045861
-0.000958523
-0.000540177
-0.00130881
-0.000577227
-0.00166765
-0.000529635
-0.00196268
-0.000372243
-0.00204756
-0.000145021
-0.00170179
-0.000745129
-3.9822e-05
0.000252257
-0.000110632
0.00058267
-0.000178645
0.000760995
-0.00022879
0.000836504
-0.000257531
0.000851241
-0.000266412
0.000833311
-0.00025863
0.000799992
-0.000237518
0.000761265
-0.000206021
0.000722396
-0.000166637
0.000685666
-0.000121532
0.000651428
-7.27206e-05
0.000618725
-2.22445e-05
0.000585644
2.76776e-05
0.000549527
7.45409e-05
0.000507125
0.000115451
0.000454751
0.000147131
0.000388392
0.000165953
0.000303857
0.000168033
0.000196867
0.000149416
6.30801e-05
0.000106433
-0.000102031
3.62551e-05
-0.000303362
-6.17785e-05
-0.000546387
-0.000183572
-0.00083673
-0.000315171
-0.00117721
-0.000425527
-0.00155729
-0.000464471
-0.00192373
-0.00037866
-0.00213337
-0.00017152
-0.00190893
-0.000916648
-6.1001e-05
0.000313258
-0.000152286
0.000673955
-0.000225677
0.000834385
-0.000266724
0.000877551
-0.00027639
0.000860907
-0.000260378
0.000817299
-0.000224836
0.000764451
-0.000174952
0.00071138
-0.000114735
0.000662179
-4.72303e-05
0.000618162
2.51569e-05
0.000579041
0.000100354
0.000543529
0.000176351
0.000509646
0.000250989
0.00047489
0.000321781
0.000436333
0.000385816
0.000390716
0.000439677
0.000334531
0.000479434
0.0002641
0.000500673
0.000175628
0.000498561
6.51929e-05
0.000468019
-7.14894e-05
0.000404015
-0.000239358
0.000302202
-0.000444575
0.00016111
-0.000695637
-1.29155e-05
-0.00100318
-0.000197057
-0.00137315
-0.00033749
-0.0017833
-0.000354024
-0.00211684
-0.000197675
-0.00206528
-0.00111432
-9.77036e-05
0.000410962
-0.000212301
0.000788552
-0.00027992
0.000902005
-0.000294957
0.000892588
-0.00026813
0.00083408
-0.000211741
0.000760911
-0.000135777
0.000688487
-4.74015e-05
0.000623004
4.85305e-05
0.000566247
0.00014876
0.000517932
0.000251008
0.000476793
0.000353489
0.000441047
0.000454552
0.000408584
0.000552397
0.000377045
0.000644871
0.000343858
0.000729319
0.000306269
0.000802476
0.000261373
0.000860415
0.000206161
0.000898505
0.000137537
0.00091138
5.23176e-05
0.000893036
-5.31446e-05
0.000836848
-0.00018317
0.000735601
-0.000343327
0.00058257
-0.000542606
0.000374914
-0.000795527
0.000124271
-0.00112251
-0.000124769
-0.00153426
-0.000276394
-0.00196521
-0.000215078
-0.00212659
-0.0013294
-0.000158251
0.000569212
-0.000283214
0.000913515
-0.000310552
0.000929343
-0.000263497
0.000845533
-0.000170146
0.000740729
-5.09776e-05
0.000641742
8.08065e-05
0.000556703
0.0002173
0.000486511
0.000354042
0.000429505
0.000488622
0.000383353
0.000619724
0.000345691
0.000746505
0.000314266
0.000868174
0.000286915
0.000983698
0.000261521
0.00109159
0.000235969
0.00118974
0.000208114
0.00127534
0.000175777
0.00134475
0.000136749
0.00139348
8.88139e-05
0.00141596
2.98352e-05
0.00140587
-4.30526e-05
0.00135562
-0.000132922
0.0012562
-0.000243915
0.00109721
-0.000383608
0.000867809
-0.000566129
0.000563418
-0.000818118
0.000207938
-0.00117878
-0.000105152
-0.00165212
-0.000204341
-0.0020274
-0.00153374
-0.000240599
0.000809812
-0.00029878
0.000971696
-0.000203174
0.000833736
-3.27151e-05
0.000675074
0.000164605
0.00054341
0.000365842
0.000440505
0.000560368
0.000362176
0.000743825
0.000303054
0.000915094
0.000258236
0.00107456
0.000223889
0.00122313
0.000197122
0.00136171
0.000175685
0.00149089
0.000157728
0.00161077
0.00014165
0.00172074
0.000125991
0.00181949
0.000109369
0.00190482
9.04436e-05
0.00197367
6.79e-05
0.00202202
4.04615e-05
0.00204468
7.17344e-06
0.0020357
-3.40654e-05
0.00198719
-8.44176e-05
0.00188981
-0.000146532
0.00173139
-0.000225188
0.00149575
-0.000330493
0.00116311
-0.000485472
0.000724084
-0.000739758
0.000238054
-0.00116609
-8.85636e-05
-0.00170079
-0.00162231
-0.00018947
0.000999282
2.92118e-05
0.000753015
0.000386267
0.000476681
0.000725672
0.000335669
0.00102531
0.00024377
0.0012853
0.000180522
0.00150988
0.000137596
0.00170454
0.000108391
0.00187469
8.80815e-05
0.002025
7.35814e-05
0.00215919
6.29331e-05
0.00228006
5.48155e-05
0.00238951
4.82714e-05
0.00248861
4.25578e-05
0.00257754
3.70583e-05
0.00265568
3.1232e-05
0.00272153
2.45898e-05
0.00277273
1.66994e-05
0.00280596
7.23351e-06
0.00281774
-4.60293e-06
0.00280253
-1.88556e-05
0.002754
-3.58945e-05
0.0026643
-5.68338e-05
0.00252234
-8.32275e-05
0.00231096
-0.000119112
0.00200109
-0.0001756
0.00154682
-0.000285491
0.000923169
-0.000542439
0.000261845
-0.00103946
-0.00136046
0.000999282
0.0017523
0.00222898
0.00256465
0.00280842
0.00298894
0.00312653
0.00323492
0.00332301
0.00339659
0.00345952
0.00351434
0.00356261
0.00360517
0.00364222
0.00367346
0.00369805
0.00371474
0.00372198
0.00371738
0.00369852
0.00366263
0.00360579
0.00352256
0.00340345
0.00322785
0.00294236
0.00239992
0.00136046
)
;

boundaryField
{
    movingWall
    {
        type            calculated;
        value           uniform 0;
    }
    fixedWalls
    {
        type            calculated;
        value           uniform 0;
    }
    frontAndBack
    {
        type            empty;
        value           nonuniform 0();
    }
}


// ************************************************************************* //
