/*--------------------------------*- C++ -*----------------------------------*\
  =========                 |
  \\      /  F ield         | OpenFOAM: The Open Source CFD Toolbox
   \\    /   O peration     | Website:  https://openfoam.org
    \\  /    A nd           | Version:  7
     \\/     M anipulation  |
\*---------------------------------------------------------------------------*/
FoamFile
{
    version     2.0;
    format      ascii;
    class       volVectorField;
    location    "2.7";
    object      U;
}
// * * * * * * * * * * * * * * * * * * * * * * * * * * * * * * * * * * * * * //

dimensions      [0 1 -1 0 0 0 0];

internalField   nonuniform List<vector> 
900
(
(9.25829e-05 -9.18261e-05 0)
(0.000109677 -6.12159e-06 0)
(-0.000215922 0.000112591 0)
(-0.000848005 0.000210394 0)
(-0.00170732 0.000276651 0)
(-0.00272051 0.000315442 0)
(-0.0038209 0.000333634 0)
(-0.00495457 0.000336973 0)
(-0.0060787 0.000329178 0)
(-0.00715748 0.000312119 0)
(-0.00815845 0.00028627 0)
(-0.00904989 0.000251222 0)
(-0.00979938 0.00020618 0)
(-0.0103736 0.000150475 0)
(-0.0107396 8.4053e-05 0)
(-0.0108672 7.90178e-06 0)
(-0.0107322 -7.59069e-05 0)
(-0.0103207 -0.000163283 0)
(-0.00963324 -0.000248834 0)
(-0.00868871 -0.000325932 0)
(-0.00752638 -0.000387292 0)
(-0.00620636 -0.000425838 0)
(-0.00480725 -0.000435665 0)
(-0.00342107 -0.000412939 0)
(-0.00214592 -0.000356536 0)
(-0.00107613 -0.000268436 0)
(-0.000289182 -0.000155147 0)
(0.000155399 -3.23492e-05 0)
(0.000254445 7.9573e-05 0)
(0.000111753 0.000110423 0)
(9.96083e-06 -0.000112863 0)
(-0.00037319 0.000372911 0)
(-0.00150936 0.000951152 0)
(-0.00327903 0.0014392 0)
(-0.00554516 0.00179319 0)
(-0.00816219 0.00201717 0)
(-0.0109872 0.00213046 0)
(-0.0138938 0.00215326 0)
(-0.0167733 0.00210089 0)
(-0.0195298 0.00198255 0)
(-0.0220754 0.0018022 0)
(-0.0243257 0.00156025 0)
(-0.0261973 0.00125584 0)
(-0.0276087 0.000889082 0)
(-0.0284826 0.000463459 0)
(-0.0287518 -1.22143e-05 0)
(-0.0283659 -0.000522214 0)
(-0.0272999 -0.00104321 0)
(-0.0255641 -0.00154475 0)
(-0.0232099 -0.00199092 0)
(-0.0203344 -0.00234355 0)
(-0.0170805 -0.00256646 0)
(-0.0136306 -0.00263046 0)
(-0.0101947 -0.0025181 0)
(-0.00699374 -0.0022276 0)
(-0.00423675 -0.00177587 0)
(-0.00209556 -0.00120298 0)
(-0.000678497 -0.000581697 0)
(6.61928e-06 -1.94541e-05 0)
(8.65151e-05 0.000253902 0)
(-0.00011417 0.000212996 0)
(-0.000993881 0.00151808 0)
(-0.00300234 0.00290397 0)
(-0.00586162 0.00407329 0)
(-0.0093773 0.00494128 0)
(-0.013361 0.00550471 0)
(-0.0176219 0.00579397 0)
(-0.021985 0.00584688 0)
(-0.0262943 0.00569515 0)
(-0.0304088 0.00535987 0)
(-0.0341975 0.00485202 0)
(-0.0375348 0.00417568 0)
(-0.0402984 0.00333276 0)
(-0.0423704 0.00232826 0)
(-0.0436417 0.00117564 0)
(-0.0440188 -9.85769e-05 0)
(-0.0434338 -0.00145115 0)
(-0.0418556 -0.00282136 0)
(-0.0393019 -0.00413183 0)
(-0.0358479 -0.00529311 0)
(-0.0316317 -0.00621129 0)
(-0.026854 -0.00679842 0)
(-0.02177 -0.00698445 0)
(-0.0166732 -0.00672916 0)
(-0.011871 -0.00603233 0)
(-0.00765488 -0.00494166 0)
(-0.00426445 -0.00356013 0)
(-0.00184906 -0.00205501 0)
(-0.000444211 -0.00067095 0)
(4.19847e-06 0.000191942 0)
(-0.000230925 0.00088521 0)
(-0.00159552 0.00339207 0)
(-0.00445805 0.0058216 0)
(-0.00835464 0.00783515 0)
(-0.0130175 0.00932851 0)
(-0.0182187 0.0102995 0)
(-0.0237311 0.0107924 0)
(-0.0293452 0.0108635 0)
(-0.0348722 0.0105617 0)
(-0.0401389 0.00992118 0)
(-0.0449828 0.00896113 0)
(-0.0492474 0.00769087 0)
(-0.0527807 0.0061171 0)
(-0.0554363 0.0042527 0)
(-0.0570789 0.00212546 0)
(-0.0575925 -0.000214187 0)
(-0.056892 -0.00268814 0)
(-0.0549366 -0.00518714 0)
(-0.0517439 -0.00757432 0)
(-0.0474013 -0.00969242 0)
(-0.0420731 -0.0113767 0)
(-0.0360015 -0.0124731 0)
(-0.0294976 -0.0128586 0)
(-0.0229226 -0.0124629 0)
(-0.0166587 -0.0112867 0)
(-0.0110719 -0.00941471 0)
(-0.00646865 -0.00702564 0)
(-0.00304859 -0.00439738 0)
(-0.000897708 -0.00191446 0)
(-7.21954e-05 -0.00012502 0)
(-0.000329963 0.00186538 0)
(-0.00213919 0.00595154 0)
(-0.00580649 0.0096459 0)
(-0.0106782 0.0126339 0)
(-0.0164058 0.0148267 0)
(-0.0227201 0.0162409 0)
(-0.0293619 0.0169428 0)
(-0.0360955 0.0170104 0)
(-0.0427093 0.0165111 0)
(-0.0490082 0.0154921 0)
(-0.0548077 0.0139811 0)
(-0.059929 0.0119927 0)
(-0.0641966 0.00953874 0)
(-0.0674402 0.00664076 0)
(-0.0694999 0.00334242 0)
(-0.0702359 -0.0002792 0)
(-0.0695401 -0.00410649 0)
(-0.0673526 -0.00797522 0)
(-0.0636793 -0.01168 0)
(-0.0586057 -0.0149839 0)
(-0.0523081 -0.0176374 0)
(-0.0450578 -0.0194049 0)
(-0.0372135 -0.0200963 0)
(-0.0292014 -0.0195999 0)
(-0.0214819 -0.0179109 0)
(-0.0145051 -0.0151524 0)
(-0.00865862 -0.011585 0)
(-0.00420985 -0.0076061 0)
(-0.00131142 -0.00374186 0)
(-0.000131992 -0.000673909 0)
(-0.000413474 0.00312036 0)
(-0.00262357 0.0091458 0)
(-0.0070362 0.0143251 0)
(-0.0128186 0.0184137 0)
(-0.0195411 0.0213717 0)
(-0.0268921 0.0232559 0)
(-0.0345829 0.0241668 0)
(-0.042357 0.0242102 0)
(-0.0499871 0.0234745 0)
(-0.0572644 0.0220206 0)
(-0.0639903 0.0198841 0)
(-0.0699703 0.0170834 0)
(-0.0750105 0.0136336 0)
(-0.0789182 0.00956265 0)
(-0.0815075 0.00492808 0)
(-0.0826093 -0.000167627 0)
(-0.0820829 -0.00556373 0)
(-0.0798357 -0.0110403 0)
(-0.0758457 -0.0163156 0)
(-0.0701789 -0.0210608 0)
(-0.0630077 -0.0249251 0)
(-0.0546209 -0.0275712 0)
(-0.0454206 -0.0287205 0)
(-0.035903 -0.0282006 0)
(-0.0266209 -0.0259885 0)
(-0.0181313 -0.022241 0)
(-0.0109287 -0.017306 0)
(-0.00537252 -0.0117126 0)
(-0.00169606 -0.00614169 0)
(-0.000176085 -0.00142158 0)
(-0.000485791 0.00461865 0)
(-0.00305863 0.0129202 0)
(-0.00815942 0.0197985 0)
(-0.0147922 0.0251126 0)
(-0.0224504 0.028901 0)
(-0.0307813 0.0312825 0)
(-0.0394689 0.0324061 0)
(-0.0482407 0.0324139 0)
(-0.0568599 0.0314189 0)
(-0.0651111 0.029497 0)
(-0.0727883 0.0266902 0)
(-0.0796871 0.0230178 0)
(-0.0855986 0.0184936 0)
(-0.0903091 0.0131468 0)
(-0.0936031 0.00704299 0)
(-0.0952719 0.000305104 0)
(-0.0951317 -0.00686888 0)
(-0.0930418 -0.0142008 0)
(-0.0889288 -0.0213274 0)
(-0.0828175 -0.0278157 0)
(-0.0748566 -0.0331931 0)
(-0.0653381 -0.0369938 0)
(-0.0547027 -0.0388191 0)
(-0.0435247 -0.0384058 0)
(-0.0324714 -0.0356893 0)
(-0.0222389 -0.0308495 0)
(-0.0134667 -0.0243268 0)
(-0.00663979 -0.0168015 0)
(-0.00209265 -0.00913977 0)
(-0.000212573 -0.00235669 0)
(-0.000550476 0.00633579 0)
(-0.00345553 0.0172271 0)
(-0.00919479 0.0260104 0)
(-0.0166251 0.0326744 0)
(-0.025169 0.0373618 0)
(-0.0344359 0.0402745 0)
(-0.0440865 0.041625 0)
(-0.0538367 0.0416012 0)
(-0.0634466 0.0403462 0)
(-0.0727003 0.0379518 0)
(-0.0813916 0.0344646 0)
(-0.0893115 0.0299002 0)
(-0.09624 0.0242642 0)
(-0.101942 0.0175779 0)
(-0.10617 0.00990508 0)
(-0.108667 0.00137866 0)
(-0.109192 -0.007777 0)
(-0.107532 -0.0172276 0)
(-0.10354 -0.0265258 0)
(-0.0971728 -0.0351222 0)
(-0.0885279 -0.0423986 0)
(-0.0778794 -0.0477247 0)
(-0.065697 -0.0505382 0)
(-0.0526396 -0.0504391 0)
(-0.0395136 -0.0472836 0)
(-0.0271966 -0.0412539 0)
(-0.016524 -0.0328869 0)
(-0.00815439 -0.0230434 0)
(-0.00255747 -0.0128232 0)
(-0.000251693 -0.0034942 0)
(-0.000609822 0.00825375 0)
(-0.00382294 0.0220277 0)
(-0.0101588 0.0329138 0)
(-0.0183407 0.0410518 0)
(-0.0277272 0.0467119 0)
(-0.0378939 0.050199 0)
(-0.0484828 0.0518045 0)
(-0.059204 0.0517728 0)
(-0.0698201 0.0502829 0)
(-0.0801225 0.0474442 0)
(-0.0899113 0.0433055 0)
(-0.0989793 0.0378726 0)
(-0.1071 0.0311335 0)
(-0.114019 0.0230887 0)
(-0.119452 0.0137846 0)
(-0.12309 0.00334804 0)
(-0.124614 -0.00798265 0)
(-0.123723 -0.0198302 0)
(-0.120166 -0.0316646 0)
(-0.113798 -0.0428093 0)
(-0.10463 -0.0524733 0)
(-0.0928878 -0.0598183 0)
(-0.0790503 -0.0640595 0)
(-0.0638591 -0.0645951 0)
(-0.0482833 -0.0611426 0)
(-0.0334303 -0.05385 0)
(-0.0203978 -0.0433485 0)
(-0.010086 -0.0307167 0)
(-0.00315568 -0.0173569 0)
(-0.000304197 -0.00488156 0)
(-0.000665045 0.0103586 0)
(-0.00416628 0.0272903 0)
(-0.0110627 0.0404683 0)
(-0.0199552 0.0502034 0)
(-0.0301439 0.0569141 0)
(-0.0411756 0.0610279 0)
(-0.0526785 0.0629312 0)
(-0.0643625 0.062936 0)
(-0.0759998 0.0612637 0)
(-0.0873961 0.0580437 0)
(-0.0983658 0.0533243 0)
(-0.108712 0.0470944 0)
(-0.118206 0.0393125 0)
(-0.126579 0.0299423 0)
(-0.133511 0.018993 0)
(-0.138633 0.00656268 0)
(-0.141541 -0.00711817 0)
(-0.141819 -0.0216473 0)
(-0.139087 -0.0364213 0)
(-0.133059 -0.0506305 0)
(-0.123619 -0.0632856 0)
(-0.110899 -0.0732895 0)
(-0.0953498 -0.0795617 0)
(-0.07778 -0.0812097 0)
(-0.0593344 -0.0777237 0)
(-0.0414002 -0.0691534 0)
(-0.0254191 -0.0562076 0)
(-0.0126261 -0.0402234 0)
(-0.00395987 -0.0229954 0)
(-0.000381406 -0.00660253 0)
(-0.000716582 0.0126387 0)
(-0.00448814 0.0329872 0)
(-0.0119122 0.0486374 0)
(-0.0214753 0.0600893 0)
(-0.0324242 0.0679304 0)
(-0.0442806 0.0727301 0)
(-0.0566635 0.0749858 0)
(-0.0692884 0.0750898 0)
(-0.0819439 0.0733135 0)
(-0.0944579 0.0698088 0)
(-0.106668 0.0646215 0)
(-0.118395 0.0577158 0)
(-0.12942 0.0490074 0)
(-0.139464 0.0384043 0)
(-0.148175 0.0258543 0)
(-0.155125 0.0113986 0)
(-0.159817 -0.00477038 0)
(-0.161709 -0.0222511 0)
(-0.160263 -0.0403871 0)
(-0.155017 -0.0582394 0)
(-0.145676 -0.0745998 0)
(-0.132221 -0.0880623 0)
(-0.11502 -0.0971653 0)
(-0.0949045 -0.10061 0)
(-0.0731857 -0.0975349 0)
(-0.0515717 -0.0877839 0)
(-0.0319401 -0.0720952 0)
(-0.0159847 -0.052099 0)
(-0.00505062 -0.0300934 0)
(-0.000495725 -0.00878065 0)
(-0.000764373 0.0150828 0)
(-0.00478913 0.0390922 0)
(-0.0127085 0.0573852 0)
(-0.0229007 0.0706677 0)
(-0.0345611 0.0797163 0)
(-0.0471889 0.0852622 0)
(-0.0603976 0.0879314 0)
(-0.0739134 0.0882096 0)
(-0.0875477 0.0864275 0)
(-0.101158 0.082763 0)
(-0.114615 0.0772579 0)
(-0.127767 0.0698443 0)
(-0.140414 0.0603818 0)
(-0.152278 0.0487023 0)
(-0.162987 0.0346649 0)
(-0.17206 0.0182213 0)
(-0.178909 -0.000510961 0)
(-0.182863 -0.0211678 0)
(-0.183211 -0.0430719 0)
(-0.179281 -0.0651726 0)
(-0.170551 -0.0860375 0)
(-0.156785 -0.103909 0)
(-0.138184 -0.116857 0)
(-0.115526 -0.12304 0)
(-0.0902408 -0.121071 0)
(-0.0643695 -0.110425 0)
(-0.0403162 -0.0917627 0)
(-0.0203874 -0.0670161 0)
(-0.00651766 -0.0391138 0)
(-0.000661415 -0.0115835 0)
(-0.000808196 0.0176796 0)
(-0.00506927 0.0455795 0)
(-0.0134516 0.0666739 0)
(-0.0242271 0.0818904 0)
(-0.0365396 0.0922144 0)
(-0.0498656 0.0985598 0)
(-0.0638154 0.1017 0)
(-0.0781294 0.10223 0)
(-0.0926473 0.100549 0)
(-0.107264 0.0968668 0)
(-0.121889 0.0912206 0)
(-0.13641 0.0835047 0)
(-0.150658 0.0735098 0)
(-0.164372 0.0609723 0)
(-0.177174 0.0456357 0)
(-0.188548 0.0273272 0)
(-0.197832 0.00604825 0)
(-0.204236 -0.0179235 0)
(-0.206877 -0.0439318 0)
(-0.204862 -0.0708525 0)
(-0.197399 -0.0970466 0)
(-0.183963 -0.120386 0)
(-0.164487 -0.138397 0)
(-0.139576 -0.148547 0)
(-0.110674 -0.148712 0)
(-0.0801098 -0.137747 0)
(-0.0508763 -0.116042 0)
(-0.0260689 -0.085776 0)
(-0.00846147 -0.0506344 0)
(-0.00089571 -0.0152282 0)
(-0.000848092 0.0204178 0)
(-0.00533003 0.0524233 0)
(-0.0141442 0.0764638 0)
(-0.0254534 0.0937006 0)
(-0.038345 0.105349 0)
(-0.0522705 0.112529 0)
(-0.0668366 0.116182 0)
(-0.0817998 0.117028 0)
(-0.0970315 0.115548 0)
(-0.112468 0.111989 0)
(-0.128068 0.106387 0)
(-0.143765 0.0985938 0)
(-0.159433 0.0883225 0)
(-0.174848 0.0751972 0)
(-0.189647 0.058822 0)
(-0.203308 0.0388668 0)
(-0.215126 0.0151744 0)
(-0.224224 -0.012115 0)
(-0.229575 -0.0424245 0)
(-0.230073 -0.074616 0)
(-0.224641 -0.106894 0)
(-0.212404 -0.13678 0)
(-0.192916 -0.161216 0)
(-0.166449 -0.176852 0)
(-0.134282 -0.180574 0)
(-0.098898 -0.170286 0)
(-0.0638733 -0.145772 0)
(-0.03326 -0.109281 0)
(-0.0109942 -0.0653496 0)
(-0.00122031 -0.0199879 0)
(-0.000884942 0.0232875 0)
(-0.00557707 0.0596013 0)
(-0.0147978 0.0867146 0)
(-0.0265897 0.106033 0)
(-0.0399742 0.119025 0)
(-0.0543712 0.127041 0)
(-0.0693811 0.131214 0)
(-0.0847769 0.132408 0)
(-0.100463 0.131199 0)
(-0.11642 0.127881 0)
(-0.132658 0.12249 0)
(-0.149166 0.114839 0)
(-0.165875 0.104557 0)
(-0.182612 0.091145 0)
(-0.19906 0.0740518 0)
(-0.214726 0.0527641 0)
(-0.228914 0.026929 0)
(-0.24071 -0.00349986 0)
(-0.249001 -0.0380939 0)
(-0.252514 -0.07578 0)
(-0.249907 -0.114696 0)
(-0.239923 -0.152088 0)
(-0.22164 -0.184339 0)
(-0.19481 -0.207198 0)
(-0.160298 -0.216329 0)
(-0.120489 -0.208261 0)
(-0.0794053 -0.181666 0)
(-0.0421612 -0.138478 0)
(-0.0142386 -0.0840633 0)
(-0.00166315 -0.026199 0)
(-0.000921265 0.0262829 0)
(-0.00582397 0.0670997 0)
(-0.0154407 0.0973914 0)
(-0.0276701 0.118816 0)
(-0.0414502 0.133123 0)
(-0.0561601 0.141924 0)
(-0.0713899 0.14657 0)
(-0.0869269 0.14809 0)
(-0.102708 0.147168 0)
(-0.11876 0.144155 0)
(-0.135143 0.139098 0)
(-0.151909 0.131768 0)
(-0.169055 0.121716 0)
(-0.186476 0.10832 0)
(-0.203934 0.0908663 0)
(-0.221007 0.0686448 0)
(-0.237065 0.0410828 0)
(-0.251237 0.00790374 0)
(-0.262403 -0.0306793 0)
(-0.269211 -0.0737474 0)
(-0.270123 -0.119503 0)
(-0.263522 -0.165056 0)
(-0.247947 -0.206347 0)
(-0.222462 -0.238243 0)
(-0.187216 -0.255011 0)
(-0.144114 -0.251355 0)
(-0.0972998 -0.224127 0)
(-0.0528962 -0.174254 0)
(-0.0183221 -0.107664 0)
(-0.00226039 -0.0342687 0)
(-0.000962385 0.0294086 0)
(-0.00609743 0.0749247 0)
(-0.0161286 0.108474 0)
(-0.0287661 0.131981 0)
(-0.0428396 0.147507 0)
(-0.057675 0.156966 0)
(-0.0728471 0.16196 0)
(-0.0881569 0.163703 0)
(-0.103573 0.163005 0)
(-0.119166 0.160283 0)
(-0.135049 0.155599 0)
(-0.151335 0.148699 0)
(-0.168094 0.139059 0)
(-0.185309 0.125946 0)
(-0.202844 0.10849 0)
(-0.220397 0.0857916 0)
(-0.237468 0.0570496 0)
(-0.253315 0.0217321 0)
(-0.266906 -0.0202205 0)
(-0.27694 -0.0681381 0)
(-0.281803 -0.120444 0)
(-0.279604 -0.174311 0)
(-0.26836 -0.225452 0)
(-0.246336 -0.268022 0)
(-0.212671 -0.29486 0)
(-0.168311 -0.298457 0)
(-0.116966 -0.272992 0)
(-0.0654397 -0.217271 0)
(-0.023365 -0.137072 0)
(-0.00305847 -0.0446781 0)
(-0.00101824 0.0326879 0)
(-0.00644452 0.0831183 0)
(-0.016958 0.119974 0)
(-0.0300054 0.145465 0)
(-0.0442717 0.162024 0)
(-0.0590178 0.171916 0)
(-0.073802 0.17703 0)
(-0.0884412 0.178791 0)
(-0.102938 0.178148 0)
(-0.117406 0.175597 0)
(-0.132009 0.171224 0)
(-0.146923 0.164759 0)
(-0.162293 0.155621 0)
(-0.178203 0.142986 0)
(-0.194642 0.125853 0)
(-0.211467 0.103152 0)
(-0.228367 0.0738747 0)
(-0.244811 0.0372384 0)
(-0.259963 -0.00711675 0)
(-0.272711 -0.0589309 0)
(-0.281534 -0.116918 0)
(-0.284415 -0.178565 0)
(-0.278975 -0.239686 0)
(-0.262685 -0.294053 0)
(-0.233468 -0.333284 0)
(-0.190814 -0.347464 0)
(-0.137243 -0.327228 0)
(-0.0795201 -0.267728 0)
(-0.0294606 -0.173145 0)
(-0.00411703 -0.057981 0)
(-0.00110646 0.036177 0)
(-0.00694375 0.0917819 0)
(-0.0180849 0.131951 0)
(-0.0315915 0.159231 0)
(-0.0459576 0.176512 0)
(-0.0603715 0.18648 0)
(-0.0743833 0.19136 0)
(-0.0878365 0.192815 0)
(-0.100776 0.191942 0)
(-0.113363 0.189322 0)
(-0.125813 0.185078 0)
(-0.138364 0.178934 0)
(-0.151237 0.170277 0)
(-0.164623 0.158217 0)
(-0.178651 0.141659 0)
(-0.193362 0.119405 0)
(-0.20867 0.0902707 0)
(-0.22432 0.053244 0)
(-0.239838 0.00765841 0)
(-0.254366 -0.0466234 0)
(-0.266591 -0.1088 0)
(-0.274669 -0.176903 0)
(-0.27604 -0.247215 0)
(-0.267538 -0.313621 0)
(-0.245843 -0.366999 0)
(-0.208601 -0.395195 0)
(-0.156294 -0.384659 0)
(-0.0945128 -0.325048 0)
(-0.036653 -0.216529 0)
(-0.00551454 -0.0747954 0)
(-0.00125821 0.0399872 0)
(-0.00772278 0.101111 0)
(-0.0197504 0.144542 0)
(-0.033828 0.173273 0)
(-0.0482046 0.190796 0)
(-0.062004 0.200322 0)
(-0.0747938 0.20447 0)
(-0.0864717 0.205161 0)
(-0.0971448 0.203652 0)
(-0.107033 0.20061 0)
(-0.116409 0.196197 0)
(-0.125573 0.190147 0)
(-0.134826 0.181836 0)
(-0.144464 0.170342 0)
(-0.154762 0.154523 0)
(-0.165954 0.133098 0)
(-0.178207 0.104763 0)
(-0.191576 0.0683182 0)
(-0.205942 0.0228225 0)
(-0.22086 -0.0321965 0)
(-0.235442 -0.0965675 0)
(-0.24817 -0.169041 0)
(-0.256619 -0.246729 0)
(-0.257324 -0.324216 0)
(-0.245941 -0.392404 0)
(-0.218144 -0.437551 0)
(-0.171624 -0.441801 0)
(-0.10935 -0.387544 0)
(-0.0449147 -0.267446 0)
(-0.00736001 -0.0957919 0)
(-0.00152961 0.0443216 0)
(-0.00898853 0.111442 0)
(-0.0223159 0.15798 0)
(-0.0371418 0.187615 0)
(-0.0514183 0.204675 0)
(-0.0642461 0.213045 0)
(-0.0752687 0.215801 0)
(-0.0844887 0.215144 0)
(-0.092112 0.212487 0)
(-0.09844 0.208574 0)
(-0.103816 0.203606 0)
(-0.108605 0.197335 0)
(-0.113187 0.189147 0)
(-0.117959 0.178123 0)
(-0.123336 0.163115 0)
(-0.129737 0.142818 0)
(-0.137572 0.115869 0)
(-0.147206 0.080955 0)
(-0.158887 0.0369297 0)
(-0.172631 -0.0170388 0)
(-0.188076 -0.081326 0)
(-0.204233 -0.155499 0)
(-0.219142 -0.237781 0)
(-0.229494 -0.324036 0)
(-0.230406 -0.406136 0)
(-0.215826 -0.469919 0)
(-0.180231 -0.493927 0)
(-0.122473 -0.452122 0)
(-0.0541286 -0.325426 0)
(-0.00981453 -0.121688 0)
(-0.00202534 0.0495384 0)
(-0.0110796 0.123316 0)
(-0.0263122 0.172619 0)
(-0.0420974 0.202288 0)
(-0.0560691 0.217876 0)
(-0.0674118 0.224139 0)
(-0.0759544 0.224681 0)
(-0.0818886 0.221985 0)
(-0.0855763 0.217595 0)
(-0.087435 0.212314 0)
(-0.0878952 0.206365 0)
(-0.087395 0.199522 0)
(-0.0863905 0.191192 0)
(-0.0853699 0.180489 0)
(-0.0848668 0.166298 0)
(-0.0854626 0.14734 0)
(-0.0877784 0.122256 0)
(-0.0924484 0.0896863 0)
(-0.100067 0.0483608 0)
(-0.111095 -0.0028187 0)
(-0.125716 -0.0646886 0)
(-0.143597 -0.137593 0)
(-0.163527 -0.220973 0)
(-0.182852 -0.312397 0)
(-0.19684 -0.405673 0)
(-0.198382 -0.487799 0)
(-0.178855 -0.535396 0)
(-0.13183 -0.514123 0)
(-0.0640538 -0.388984 0)
(-0.0131215 -0.153263 0)
(-0.00294646 0.0562661 0)
(-0.0145562 0.137561 0)
(-0.0324937 0.188909 0)
(-0.0493659 0.217243 0)
(-0.0625653 0.22994 0)
(-0.0715851 0.232879 0)
(-0.0766244 0.230237 0)
(-0.0781896 0.224747 0)
(-0.0768757 0.218032 0)
(-0.0732598 0.210904 0)
(-0.0678803 0.203583 0)
(-0.0612534 0.19585 0)
(-0.053902 0.187139 0)
(-0.0463866 0.176614 0)
(-0.0393312 0.163223 0)
(-0.0334371 0.145753 0)
(-0.0294846 0.1229 0)
(-0.0283203 0.0933266 0)
(-0.0308195 0.0557186 0)
(-0.0378242 0.00882947 0)
(-0.0500208 -0.048488 0)
(-0.0677603 -0.117203 0)
(-0.0907409 -0.197864 0)
(-0.117381 -0.289894 0)
(-0.143888 -0.389788 0)
(-0.163125 -0.487452 0)
(-0.164164 -0.560193 0)
(-0.134849 -0.567355 0)
(-0.0742103 -0.455229 0)
(-0.0176226 -0.19137 0)
(-0.00468525 0.0656165 0)
(-0.0203439 0.155374 0)
(-0.0418559 0.207286 0)
(-0.0595442 0.232135 0)
(-0.07088 0.239995 0)
(-0.0760913 0.238114 0)
(-0.076033 0.231227 0)
(-0.0716936 0.222211 0)
(-0.0639914 0.212665 0)
(-0.0537058 0.203334 0)
(-0.0414957 0.194381 0)
(-0.0279489 0.185567 0)
(-0.0136344 0.176345 0)
(0.000848612 0.165933 0)
(0.014829 0.153358 0)
(0.0275399 0.137508 0)
(0.0381062 0.117172 0)
(0.045542 0.0910906 0)
(0.0487723 0.057987 0)
(0.0466698 0.0165824 0)
(0.0381283 -0.0344174 0)
(0.0221793 -0.0963616 0)
(-0.00179109 -0.170614 0)
(-0.0335107 -0.258239 0)
(-0.0708149 -0.358728 0)
(-0.107782 -0.466408 0)
(-0.13268 -0.562532 0)
(-0.128254 -0.604268 0)
(-0.0835418 -0.519351 0)
(-0.0236759 -0.236825 0)
(-0.00799763 0.0795792 0)
(-0.0299188 0.178325 0)
(-0.0554413 0.227803 0)
(-0.0725018 0.245835 0)
(-0.0795278 0.246284 0)
(-0.0782176 0.237885 0)
(-0.070477 0.22574 0)
(-0.0579634 0.212654 0)
(-0.0419929 0.200027 0)
(-0.0235604 0.18841 0)
(-0.00342631 0.177836 0)
(0.0177871 0.167997 0)
(0.0395115 0.158345 0)
(0.061164 0.148144 0)
(0.0820905 0.136512 0)
(0.101528 0.122453 0)
(0.118578 0.104888 0)
(0.132198 0.082682 0)
(0.141199 0.0546667 0)
(0.144262 0.0196373 0)
(0.139968 -0.0236943 0)
(0.126862 -0.0767897 0)
(0.103547 -0.141426 0)
(0.0690033 -0.219805 0)
(0.0233571 -0.314096 0)
(-0.0298712 -0.423761 0)
(-0.0802818 -0.537456 0)
(-0.107465 -0.616217 0)
(-0.089621 -0.573921 0)
(-0.0312702 -0.290023 0)
(-0.014234 0.101685 0)
(-0.0453205 0.207995 0)
(-0.0732873 0.249199 0)
(-0.0853115 0.255456 0)
(-0.0828655 0.245371 0)
(-0.0702207 0.228838 0)
(-0.0507435 0.210825 0)
(-0.0268612 0.193648 0)
(-0.000253212 0.178229 0)
(0.0279595 0.164758 0)
(0.0570196 0.153033 0)
(0.0863732 0.142625 0)
(0.11555 0.132954 0)
(0.144072 0.123325 0)
(0.171389 0.112951 0)
(0.196823 0.10097 0)
(0.219538 0.0864603 0)
(0.238516 0.0684577 0)
(0.252541 0.0459663 0)
(0.260193 0.0179472 0)
(0.259858 -0.0167451 0)
(0.249745 -0.0594499 0)
(0.22787 -0.111961 0)
(0.192159 -0.17694 0)
(0.14088 -0.258336 0)
(0.074221 -0.360415 0)
(-0.00119922 -0.481528 0)
(-0.0652789 -0.593872 0)
(-0.0872077 -0.608261 0)
(-0.0390221 -0.350793 0)
(-0.0252469 0.138061 0)
(-0.0677333 0.243849 0)
(-0.0900557 0.266148 0)
(-0.0860545 0.2541 0)
(-0.0643846 0.230646 0)
(-0.0328915 0.205434 0)
(0.00365693 0.182198 0)
(0.0423988 0.162097 0)
(0.0816702 0.145203 0)
(0.12056 0.131158 0)
(0.158585 0.119445 0)
(0.195469 0.109478 0)
(0.231004 0.100638 0)
(0.264945 0.092279 0)
(0.296946 0.0837244 0)
(0.326505 0.0742685 0)
(0.352927 0.0631797 0)
(0.375302 0.0497048 0)
(0.39248 0.033073 0)
(0.403029 0.0124839 0)
(0.405274 -0.0129394 0)
(0.397253 -0.0442347 0)
(0.376623 -0.0829106 0)
(0.340635 -0.131423 0)
(0.286112 -0.19419 0)
(0.210054 -0.278713 0)
(0.11352 -0.39312 0)
(0.0104702 -0.528055 0)
(-0.0661688 -0.608042 0)
(-0.0421389 -0.417823 0)
(-0.0406895 0.199847 0)
(-0.0888457 0.276122 0)
(-0.0788125 0.261098 0)
(-0.0369088 0.225629 0)
(0.0178027 0.189929 0)
(0.0758138 0.159308 0)
(0.132856 0.134561 0)
(0.187056 0.115002 0)
(0.237774 0.0996224 0)
(0.284987 0.0874889 0)
(0.32893 0.0778089 0)
(0.369891 0.0699065 0)
(0.4081 0.0631861 0)
(0.443666 0.0571014 0)
(0.476528 0.0511322 0)
(0.506419 0.0447706 0)
(0.532846 0.037513 0)
(0.555065 0.0288571 0)
(0.572073 0.0182958 0)
(0.582557 0.00529913 0)
(0.584957 -0.0106219 0)
(0.577317 -0.0301359 0)
(0.55722 -0.0542559 0)
(0.521683 -0.0847342 0)
(0.466771 -0.125152 0)
(0.387169 -0.183273 0)
(0.277859 -0.273823 0)
(0.14045 -0.410453 0)
(-0.00640838 -0.552956 0)
(-0.0261762 -0.476225 0)
(-0.0335099 0.295008 0)
(-0.0459458 0.274936 0)
(0.0569742 0.201454 0)
(0.1605 0.15042 0)
(0.252401 0.114167 0)
(0.332293 0.0879239 0)
(0.401316 0.0691949 0)
(0.460939 0.0558455 0)
(0.512769 0.046196 0)
(0.558288 0.0390869 0)
(0.598715 0.0337322 0)
(0.634984 0.0295723 0)
(0.667768 0.0261813 0)
(0.697488 0.0232146 0)
(0.724325 0.0203755 0)
(0.748218 0.0173962 0)
(0.768866 0.0140271 0)
(0.785725 0.0100338 0)
(0.797987 0.00519583 0)
(0.804666 -0.000684646 0)
(0.804508 -0.00783845 0)
(0.795837 -0.0165839 0)
(0.776645 -0.0273307 0)
(0.744318 -0.0409012 0)
(0.695058 -0.0591968 0)
(0.622721 -0.0871071 0)
(0.517225 -0.137912 0)
(0.363861 -0.240931 0)
(0.143175 -0.407155 0)
(0.0585297 -0.458272 0)
(0.303488 0.181069 0)
(0.383543 0.144831 0)
(0.56292 0.0917708 0)
(0.6896 0.0593921 0)
(0.7724 0.0394114 0)
(0.831282 0.0265716 0)
(0.875731 0.0183787 0)
(0.910315 0.0131905 0)
(0.937981 0.00986927 0)
(0.960775 0.00769464 0)
(0.980065 0.00622809 0)
(0.99674 0.00519642 0)
(1.01137 0.00442055 0)
(1.02428 0.0037757 0)
(1.03563 0.00316863 0)
(1.04539 0.00252455 0)
(1.05339 0.00178023 0)
(1.05935 0.000882743 0)
(1.06285 -0.000210247 0)
(1.06333 -0.00149528 0)
(1.06013 -0.00306216 0)
(1.05247 -0.00499047 0)
(1.03941 -0.00733352 0)
(1.01963 -0.0102594 0)
(0.991024 -0.0142255 0)
(0.949497 -0.0205285 0)
(0.885394 -0.0330063 0)
(0.777049 -0.0641117 0)
(0.544994 -0.13967 0)
(0.382488 -0.201829 0)
)
;

boundaryField
{
    movingWall
    {
        type            fixedValue;
        value           uniform (1.2 0 0);
    }
    fixedWalls
    {
        type            noSlip;
    }
    frontAndBack
    {
        type            empty;
    }
}


// ************************************************************************* //
