/*--------------------------------*- C++ -*----------------------------------*\
  =========                 |
  \\      /  F ield         | OpenFOAM: The Open Source CFD Toolbox
   \\    /   O peration     | Website:  https://openfoam.org
    \\  /    A nd           | Version:  7
     \\/     M anipulation  |
\*---------------------------------------------------------------------------*/
FoamFile
{
    version     2.0;
    format      ascii;
    class       surfaceScalarField;
    location    "7.4";
    object      phi;
}
// * * * * * * * * * * * * * * * * * * * * * * * * * * * * * * * * * * * * * //

dimensions      [0 3 -1 0 0 0 0];

internalField   nonuniform List<scalar> 
1740
(
8.07106e-07
-8.07085e-07
4.58615e-07
3.48497e-07
-1.46269e-06
1.9213e-06
-4.79102e-06
3.32833e-06
-9.18047e-06
4.38945e-06
-1.42842e-05
5.10377e-06
-1.98105e-05
5.52624e-06
-2.55218e-05
5.71135e-06
-3.1214e-05
5.69213e-06
-3.66916e-05
5.47764e-06
-4.17506e-05
5.05905e-06
-4.61696e-05
4.41902e-06
-4.9712e-05
3.54234e-06
-5.21382e-05
2.4262e-06
-5.32272e-05
1.08905e-06
-5.28035e-05
-4.23673e-07
-5.07675e-05
-2.03605e-06
-4.71247e-05
-3.64283e-06
-4.20078e-05
-5.11682e-06
-3.56863e-05
-6.32151e-06
-2.85588e-05
-7.12749e-06
-2.11271e-05
-7.43178e-06
-1.39509e-05
-7.17617e-06
-7.58958e-06
-6.36131e-06
-2.53524e-06
-5.05434e-06
8.58608e-07
-3.39385e-06
2.44975e-06
-1.59114e-06
2.35609e-06
9.36685e-08
1.12683e-06
1.22926e-06
1.12684e-06
-3.31555e-07
-4.75527e-07
-3.50387e-06
3.52081e-06
-1.00805e-05
8.49792e-06
-1.96816e-05
1.29294e-05
-3.16616e-05
1.63695e-05
-4.53156e-05
1.87578e-05
-5.99773e-05
2.0188e-05
-7.50436e-05
2.07777e-05
-8.99561e-05
2.06046e-05
-0.000104171
1.96921e-05
-0.000117133
1.80212e-05
-0.00012827
1.55562e-05
-0.000137002
1.22748e-05
-0.000142774
8.19832e-06
-0.000145101
3.41596e-06
-0.000143633
-1.89226e-06
-0.000138196
-7.47259e-06
-0.000128873
-1.2966e-05
-0.000116024
-1.79659e-05
-0.000100304
-2.20413e-05
-8.26419e-05
-2.47898e-05
-6.41788e-05
-2.58948e-05
-4.6174e-05
-2.5181e-05
-2.9877e-05
-2.26583e-05
-1.63834e-05
-1.85479e-05
-6.48792e-06
-1.32894e-05
-5.42261e-07
-7.53679e-06
1.73083e-06
-2.17943e-06
1.28592e-06
1.67417e-06
2.41277e-06
-2.08248e-06
1.60695e-06
-9.08921e-06
1.05275e-05
-2.08698e-05
2.02785e-05
-3.67576e-05
2.88172e-05
-5.58514e-05
3.54633e-05
-7.71942e-05
4.01006e-05
-9.98606e-05
4.28544e-05
-0.000122979
4.38961e-05
-0.000145716
4.33416e-05
-0.000167248
4.12244e-05
-0.000186743
3.75158e-05
-0.000203356
3.2169e-05
-0.000216254
2.51735e-05
-0.000224664
1.66075e-05
-0.000227929
6.68184e-06
-0.000225588
-4.23361e-06
-0.000217447
-1.56134e-05
-0.00020365
-2.67635e-05
-0.000184718
-3.68972e-05
-0.000161569
-4.51906e-05
-0.000135483
-5.08755e-05
-0.000108033
-5.33452e-05
-8.09565e-05
-5.22575e-05
-5.59936e-05
-4.76212e-05
-3.4692e-05
-3.98495e-05
-1.82055e-05
-2.97759e-05
-7.1012e-06
-1.8641e-05
-1.21778e-06
-8.06284e-06
5.03856e-07
-4.74598e-08
2.91663e-06
-3.96144e-06
5.56839e-06
-1.50507e-05
2.16168e-05
-3.22621e-05
3.749e-05
-5.44418e-05
5.09969e-05
-8.03798e-05
6.14013e-05
-0.00010889
6.86103e-05
-0.000138845
7.28094e-05
-0.000169176
7.42271e-05
-0.000198846
7.30116e-05
-0.000226822
6.92008e-05
-0.000252061
6.27546e-05
-0.000273514
5.36218e-05
-0.000290158
4.18184e-05
-0.000301054
2.75035e-05
-0.000305414
1.10413e-05
-0.000302682
-6.96549e-06
-0.000292623
-2.56724e-05
-0.000275393
-4.39935e-05
-0.000251592
-6.0698e-05
-0.000222287
-7.44957e-05
-0.000188988
-8.4175e-05
-0.000153572
-8.87605e-05
-0.000118155
-8.76755e-05
-8.48927e-05
-8.0883e-05
-5.57617e-05
-6.89805e-05
-3.23066e-05
-5.32311e-05
-1.54138e-05
-3.55338e-05
-5.13359e-06
-1.8343e-05
-6.10444e-07
-4.5706e-06
2.30618e-06
-5.7821e-06
1.13505e-05
-2.09333e-05
3.6768e-05
-4.35439e-05
6.01005e-05
-7.18915e-05
7.93446e-05
-0.000104413
9.39232e-05
-0.000139694
0.000103891
-0.000176437
0.000109553
-0.000213426
0.000111216
-0.000249479
0.000109064
-0.000283414
0.000103136
-0.000314035
9.33761e-05
-0.000340143
7.97297e-05
-0.000360568
6.22431e-05
-0.000374228
4.11643e-05
-0.000380209
1.70213e-05
-0.000377841
-9.33343e-06
-0.000366792
-3.67212e-05
-0.000347154
-6.36316e-05
-0.000319506
-8.83454e-05
-0.00028496
-0.000109042
-0.000245153
-0.000123982
-0.000202193
-0.00013172
-0.000158528
-0.00013134
-0.000116742
-0.000122669
-7.92895e-05
-0.000106433
-4.82038e-05
-8.43169e-05
-2.48148e-05
-5.89227e-05
-9.54042e-06
-3.36174e-05
-1.79262e-06
-1.23184e-05
5.13565e-07
-7.48352e-06
1.8834e-05
-2.65165e-05
5.5801e-05
-5.43143e-05
8.78983e-05
-8.85731e-05
0.000113603
-0.000127365
0.000132715
-0.000169049
0.000145575
-0.000212185
0.000152688
-0.000255446
0.000154477
-0.000297554
0.000151172
-0.000337231
0.000142813
-0.000373179
0.000129324
-0.000404087
0.000110638
-0.000428666
8.6822e-05
-0.000445703
5.82011e-05
-0.000454134
2.54526e-05
-0.000453135
-1.03329e-05
-0.000442201
-4.76545e-05
-0.000421265
-8.45676e-05
-0.000390775
-0.000118835
-0.000351774
-0.000148044
-0.000305931
-0.000169824
-0.000255523
-0.000182128
-0.000203318
-0.000183545
-0.000152373
-0.000173614
-0.00010573
-0.000153076
-6.6055e-05
-0.000123992
-3.52835e-05
-8.96942e-05
-1.43427e-05
-5.45583e-05
-3.02084e-06
-2.36403e-05
-2.50727e-06
-9.04125e-06
2.78753e-05
-3.16736e-05
7.84333e-05
-6.43107e-05
0.000120535
-0.000104099
0.000153392
-0.000148762
0.000177378
-0.00019645
0.000193264
-0.000245603
0.000201841
-0.00029482
0.000203694
-0.00034277
0.000199122
-0.000388123
0.000188166
-0.000429521
0.000170722
-0.000465578
0.000146694
-0.000494902
0.000116147
-0.00051615
7.94485e-05
-0.000528084
3.73869e-05
-0.000529671
-8.74585e-06
-0.000520152
-5.71736e-05
-0.000499195
-0.000105525
-0.000466995
-0.000151035
-0.0004244
-0.000190639
-0.000373002
-0.000221222
-0.000315168
-0.000239963
-0.000253972
-0.000244741
-0.000193
-0.000234587
-0.00013601
-0.000210066
-8.64909e-05
-0.000173511
-4.71893e-05
-0.000128996
-1.97171e-05
-8.20304e-05
-4.34674e-06
-3.90107e-05
-6.85402e-06
-1.04334e-05
3.83087e-05
-3.63021e-05
0.000104302
-7.33153e-05
0.000157549
-0.000118131
0.000198207
-0.00016816
0.000227406
-0.000221374
0.000246478
-0.000276121
0.000256588
-0.000330962
0.000258535
-0.000384548
0.000252708
-0.000435539
0.000239157
-0.000482557
0.000217741
-0.000524172
0.000188309
-0.000558913
0.000150887
-0.000585302
0.000105837
-0.000601907
5.39928e-05
-0.000607446
-3.20767e-06
-0.000600818
-6.38017e-05
-0.00058133
-0.000125012
-0.000548795
-0.00018357
-0.000503723
-0.000235711
-0.000447484
-0.000277462
-0.000382422
-0.000305024
-0.000311862
-0.000315301
-0.000239947
-0.000306501
-0.000171286
-0.000278727
-0.000110407
-0.000234389
-6.11265e-05
-0.000178277
-2.5977e-05
-0.00011718
-5.86902e-06
-5.91187e-05
-1.2723e-05
-1.16305e-05
4.99392e-05
-4.02937e-05
0.000132965
-8.11093e-05
0.000198364
-0.000130325
0.000247423
-0.000185091
0.000282173
-0.000243238
0.000304624
-0.000303049
0.000316399
-0.000363079
0.000318565
-0.000422001
0.000311629
-0.0004785
0.000295657
-0.000531218
0.000270459
-0.000578714
0.000235805
-0.000619463
0.000191636
-0.000651868
0.000138243
-0.000674307
7.64314e-05
-0.000685176
7.66147e-06
-0.000683047
-6.59315e-05
-0.000666736
-0.000141322
-0.000635555
-0.000214751
-0.000589517
-0.000281749
-0.000529593
-0.000337386
-0.00045793
-0.000376687
-0.000377971
-0.00039526
-0.000294386
-0.000390086
-0.000212728
-0.000360385
-0.000138797
-0.000308321
-7.7796e-05
-0.000239277
-3.35029e-05
-0.000161473
-7.70747e-06
-8.49141e-05
-2.04305e-05
-1.2596e-05
6.25352e-05
-4.35295e-05
0.000163899
-8.74627e-05
0.000242298
-0.000140323
0.000300283
-0.000199058
0.000340908
-0.000261391
0.000366957
-0.000325577
0.000380585
-0.000390189
0.000383177
-0.000453952
0.000375393
-0.000515618
0.000357323
-0.000573883
0.000328723
-0.000627336
0.000289259
-0.000674435
0.000238735
-0.0007135
0.000177308
-0.000742731
0.000105662
-0.000760243
2.51738e-05
-0.000764208
-6.1966e-05
-0.000752933
-0.000152598
-0.000725113
-0.000242571
-0.000680107
-0.000326755
-0.00061827
-0.000399223
-0.000541306
-0.000453652
-0.000452548
-0.000484018
-0.000357044
-0.00048559
-0.000261304
-0.000456125
-0.000172607
-0.000397017
-9.79221e-05
-0.000313963
-4.27037e-05
-0.000216691
-9.99148e-06
-0.000117626
-3.0422e-05
-1.32913e-05
7.58265e-05
-4.58893e-05
0.000196497
-9.21461e-05
0.000288555
-0.000147765
0.000355902
-0.000209547
0.00040269
-0.000275146
0.000432556
-0.00034281
0.000448249
-0.000411157
0.000451525
-0.000478991
0.000443226
-0.000545159
0.000423491
-0.000608455
0.000392019
-0.000667544
0.000348348
-0.000720919
0.00029211
-0.000766869
0.000223258
-0.000803477
0.000142269
-0.000828635
5.03318e-05
-0.000840133
-5.04679e-05
-0.000835768
-0.000156963
-0.000813564
-0.000264775
-0.00077208
-0.000368239
-0.000710827
-0.000460476
-0.000630752
-0.000533727
-0.000534727
-0.000580043
-0.00042788
-0.000592437
-0.000317542
-0.000566463
-0.000212598
-0.000501961
-0.000122181
-0.00040438
-5.39906e-05
-0.000284882
-1.28556e-05
-0.000158761
-4.32776e-05
-1.36812e-05
8.95077e-05
-4.72666e-05
0.000230082
-9.4956e-05
0.000336244
-0.000152323
0.000413269
-0.000216078
0.000466445
-0.000283831
0.000500309
-0.000353844
0.000518261
-0.000424793
0.000522474
-0.000495582
0.000514016
-0.000565185
0.000493094
-0.000632528
0.000459362
-0.000696406
0.000412226
-0.000755413
0.000351116
-0.000807888
0.000275733
-0.000851889
0.00018627
-0.00088518
8.36232e-05
-0.000905263
-3.03849e-05
-0.000909497
-0.000152728
-0.000895234
-0.000279038
-0.000860149
-0.000403324
-0.000802695
-0.00051793
-0.000722714
-0.000613708
-0.000622156
-0.0006806
-0.000505741
-0.000708852
-0.000381264
-0.000690941
-0.00025917
-0.000624055
-0.000151123
-0.000512427
-6.77533e-05
-0.000368251
-1.64375e-05
-0.000210077
-5.97151e-05
-1.37425e-05
0.00010325
-4.75902e-05
0.00026393
-9.57492e-05
0.000384403
-0.000153753
0.000471273
-0.000218266
0.000530958
-0.000286877
0.00056892
-0.000357866
0.00058925
-0.000429981
0.000594589
-0.000502236
0.00058627
-0.000573753
0.000564611
-0.000643632
0.000529242
-0.00071085
0.000479444
-0.000774174
0.000414441
-0.000832096
0.000333655
-0.000882771
0.000236945
-0.000923984
0.000124836
-0.000953076
-1.29293e-06
-0.000967149
-0.000138655
-0.00096295
-0.000283238
-0.00093728
-0.000428993
-0.000887397
-0.000567814
-0.000811705
-0.0006894
-0.000710698
-0.000781607
-0.000588016
-0.000831535
-0.000451281
-0.000827675
-0.000312166
-0.00076317
-0.000185072
-0.000639521
-8.43304e-05
-0.000468993
-2.08754e-05
-0.000273532
-8.05905e-05
-1.34712e-05
0.000116721
-4.68464e-05
0.000297305
-9.44839e-05
0.00043204
-0.000151952
0.000528741
-0.000215901
0.000594908
-0.00028391
0.000636929
-0.000354282
0.000659622
-0.000425834
0.00066614
-0.0004977
0.000658137
-0.000569169
0.00063608
-0.000639547
0.000599619
-0.000708044
0.000547941
-0.000773681
0.000480078
-0.000835207
0.000395181
-0.000891013
0.000292752
-0.000939057
0.00017288
-0.000976836
3.64863e-05
-0.00100122
-0.000114271
-0.00100866
-0.000275796
-0.000995196
-0.000442459
-0.000956863
-0.000606147
-0.000890396
-0.000755867
-0.000794314
-0.000877689
-0.000670375
-0.000955474
-0.000525095
-0.000972955
-0.00037063
-0.000917635
-0.000224002
-0.000786149
-0.000103967
-0.000589028
-2.63033e-05
-0.000351196
-0.000106894
-1.28907e-05
0.000129612
-4.51038e-05
0.000329518
-9.12622e-05
0.000478199
-0.000147018
0.000584496
-0.000209027
0.000656917
-0.000274861
0.000702763
-0.000342844
0.000727605
-0.000411863
0.000735159
-0.000481178
0.000727452
-0.00055026
0.000705162
-0.000618647
0.000668006
-0.000685833
0.000615126
-0.000751163
0.000545408
-0.000813745
0.000457762
-0.000872347
0.000351354
-0.000925298
0.000225831
-0.000970374
8.15623e-05
-0.00100463
-8.00131e-05
-0.00102442
-0.00025601
-0.00102527
-0.000441611
-0.00100216
-0.000629252
-0.00095011
-0.000807917
-0.000865272
-0.000962528
-0.000746715
-0.00107403
-0.000598673
-0.001121
-0.000432564
-0.00108374
-0.000267376
-0.000951337
-0.000126761
-0.000729643
-3.28432e-05
-0.000445114
-0.000139737
-1.20601e-05
0.000141672
-4.25377e-05
0.000359996
-8.63736e-05
0.000522035
-0.000139314
0.000637437
-0.000198021
0.000715623
-0.000260057
0.000764799
-0.000323771
0.000791319
-0.000388125
0.000799513
-0.000452515
0.000791842
-0.000516607
0.000769255
-0.000580202
0.000731601
-0.000643114
0.000678038
-0.000705073
0.000607367
-0.000765628
0.000518317
-0.000824041
0.000409767
-0.000879166
0.000280956
-0.000929291
0.000131687
-0.000971885
-3.74187e-05
-0.00100357
-0.000224326
-0.00101972
-0.000425456
-0.00101462
-0.000634355
-0.000981746
-0.000840794
-0.000914766
-0.00102951
-0.000809424
-0.00117937
-0.000666412
-0.00126401
-0.000494745
-0.00125541
-0.000313988
-0.00113209
-0.000152592
-0.000891039
-4.05953e-05
-0.000557111
-0.000180332
-1.10818e-05
0.000152754
-3.94549e-05
0.000388369
-8.03373e-05
0.000562917
-0.000129523
0.000686623
-0.000183658
0.000769758
-0.0002403
0.000821441
-0.000297836
0.000848856
-0.000355325
0.000857002
-0.00041232
0.000848837
-0.000468711
0.000825645
-0.000524582
0.000787472
-0.000580102
0.000733558
-0.000635424
0.00066269
-0.000690595
0.000573488
-0.000745447
0.000464619
-0.000799468
0.000334977
-0.000851631
0.00018385
-0.000900045
1.09953e-05
-0.00094194
-0.00018243
-0.000972966
-0.00039443
-0.00098719
-0.000620131
-0.000977039
-0.000850945
-0.000933941
-0.00107261
-0.000850033
-0.00126328
-0.000721384
-0.00139266
-0.000552664
-0.00142413
-0.000361823
-0.00132293
-0.00018106
-0.0010718
-4.96311e-05
-0.00068854
-0.000229963
-1.01126e-05
0.000162867
-3.63238e-05
0.00041458
-7.39472e-05
0.00060054
-0.000118699
0.000731374
-0.000167165
0.000818224
-0.000216911
0.000871188
-0.000266405
0.00089835
-0.000314851
0.000905448
-0.000362008
0.000895994
-0.000408023
0.00087166
-0.000453299
0.000832749
-0.000498382
0.000778641
-0.00054387
0.000708177
-0.000590325
0.000619943
-0.000638178
0.000512472
-0.000687597
0.000384396
-0.000738292
0.000234545
-0.000789361
6.20648e-05
-0.000838604
-0.000133188
-0.00088255
-0.000350484
-0.000915615
-0.000587066
-0.000929868
-0.000836691
-0.000915139
-0.00108734
-0.00086021
-0.00131821
-0.000755906
-0.00149696
-0.000600682
-0.00157936
-0.000407989
-0.00151563
-0.000211433
-0.00126836
-5.99974e-05
-0.000839975
-0.000289961
-9.38125e-06
0.000172248
-3.38178e-05
0.000439016
-6.83275e-05
0.00063505
-0.000108316
0.000771363
-0.000150247
0.000860155
-0.000191734
0.000912675
-0.000231414
0.00093803
-0.000268727
0.000942761
-0.000303715
0.000930982
-0.000336845
0.00090479
-0.000368873
0.000864777
-0.000400742
0.00081051
-0.000433496
0.000740931
-0.000468201
0.000654649
-0.000505866
0.000550137
-0.000547319
0.000425849
-0.000593046
0.000280272
-0.000642969
0.000111987
-0.000695972
-8.0185e-05
-0.000749569
-0.000296887
-0.000799131
-0.000537504
-0.000837203
-0.00079862
-0.00085301
-0.00107153
-0.000832829
-0.00133839
-0.000762343
-0.00156745
-0.000632399
-0.0017093
-0.000448747
-0.00169928
-0.000242618
-0.00147449
-7.17436e-05
-0.00101085
-0.000361704
-9.2242e-06
0.000181472
-3.28891e-05
0.000462681
-6.50126e-05
0.000667174
-0.000100325
0.000806676
-0.000135101
0.00089493
-0.000167101
0.000944675
-0.00019528
0.000966208
-0.000219467
0.000966949
-0.000240108
0.000951622
-0.000258067
0.000922749
-0.000274501
0.000881211
-0.000290759
0.000826769
-0.000308316
0.000758487
-0.0003287
0.000675033
-0.000353432
0.000574869
-0.000383925
0.000456342
-0.000421352
0.000317699
-0.000466441
0.000157076
-0.000519139
-2.74871e-05
-0.000578168
-0.000237859
-0.000640284
-0.000475387
-0.000699322
-0.000739582
-0.000745105
-0.00102574
-0.000762788
-0.00132071
-0.00073388
-0.00159636
-0.000641138
-0.00180204
-0.000479632
-0.00186079
-0.000273165
-0.00168095
-8.49832e-05
-0.00119903
-0.000446688
-1.01586e-05
0.000191631
-3.48992e-05
0.000487422
-6.60669e-05
0.000698341
-9.72076e-05
0.000837816
-0.000124385
0.000922107
-0.000145707
0.000965998
-0.000160702
0.000981203
-0.000169808
0.000976054
-0.000174031
0.000955846
-0.000174739
0.000923457
-0.000173531
0.000880004
-0.000172167
0.000825405
-0.000172512
0.000758832
-0.000176491
0.000679012
-0.00018604
0.000584418
-0.00020305
0.000473352
-0.000229247
0.000343896
-0.00026605
0.000193879
-0.00031436
2.08232e-05
-0.000374137
-0.000178082
-0.000443785
-0.00040574
-0.000519069
-0.000664297
-0.000591615
-0.000953199
-0.000647197
-0.00126512
-0.000664967
-0.00157859
-0.00062032
-0.00184669
-0.00049555
-0.00198556
-0.000301218
-0.00187529
-9.99858e-05
-0.00140026
-0.000546673
-1.30253e-05
0.000204656
-4.18392e-05
0.000516236
-7.42448e-05
0.000730747
-0.000101996
0.000865568
-0.000121081
0.000941192
-0.000130341
0.000975258
-0.000130263
0.000981125
-0.000122195
0.000967986
-0.000107904
0.000941554
-8.93557e-05
0.000904909
-6.86444e-05
0.000859292
-4.79106e-05
0.000804671
-2.9363e-05
0.000740284
-1.52434e-05
0.000664893
-7.79361e-06
0.000576968
-9.19567e-06
0.000474754
-2.15828e-05
0.000356284
-4.69606e-05
0.000219256
-8.70135e-05
6.08762e-05
-0.000142858
-0.000122237
-0.000214564
-0.000334034
-0.000300212
-0.00057865
-0.000394204
-0.000859207
-0.000484752
-0.00117458
-0.000551136
-0.0015122
-0.000563467
-0.00183436
-0.000490671
-0.00205835
-0.000324329
-0.00204163
-0.000117252
-0.00160734
-0.000663926
-1.92599e-05
0.000223916
-5.66597e-05
0.000553636
-9.31193e-05
0.000767207
-0.000118099
0.000890548
-0.000128023
0.000951115
-0.000123156
0.000970391
-0.000105508
0.000963478
-7.77084e-05
0.000940187
-4.24952e-05
0.000906341
-2.53925e-06
0.000864953
3.96238e-05
0.000817129
8.14706e-05
0.000762824
0.000120547
0.000701207
0.000154414
0.000631026
0.000180633
0.000550748
0.000196767
0.000458621
0.000200402
0.000352648
0.000189177
0.000230482
0.000160797
8.92558e-05
0.000113158
-7.45987e-05
4.46529e-05
-0.000265528
-4.51617e-05
-0.000488835
-0.000154077
-0.000750292
-0.000274335
-0.00105432
-0.000388079
-0.00139846
-0.000463604
-0.00175883
-0.000457873
-0.00206408
-0.000338897
-0.0021606
-0.000137423
-0.00180881
-0.000801349
-3.13686e-05
0.000255285
-8.36343e-05
0.000605901
-0.000126867
0.00081044
-0.000148414
0.000912095
-0.000146432
0.000949132
-0.000123765
0.000947724
-8.47024e-05
0.000924415
-3.35676e-05
0.000889052
2.57555e-05
0.000847018
8.98773e-05
0.000800831
0.000155775
0.000751231
0.000220707
0.000697892
0.000282066
0.000639849
0.000337317
0.000575775
0.000383946
0.00050412
0.00041942
0.000423147
0.000441162
0.000330906
0.000446517
0.000225127
0.000432712
0.00010306
0.000396838
-3.87248e-05
0.000335997
-0.000204687
0.000247565
-0.000400403
0.000130354
-0.000633081
-1.27697e-05
-0.000911194
-0.000169999
-0.00124123
-0.000311926
-0.00161691
-0.000387452
-0.00198856
-0.000338861
-0.0022092
-0.000160664
-0.00198701
-0.000962013
-5.36659e-05
0.000308951
-0.000128322
0.000680558
-0.00017867
0.000860787
-0.000192262
0.000925687
-0.000171743
0.000928614
-0.000124304
0.000900285
-5.74153e-05
0.000857526
2.2548e-05
0.000809089
0.000110496
0.00075907
0.000202385
0.000708942
0.000294905
0.000658711
0.00038521
0.000607587
0.000470705
0.000554353
0.000548911
0.000497569
0.000617363
0.000435667
0.000673539
0.000366972
0.000714791
0.000289654
0.000738273
0.000201645
0.000740844
0.000100489
0.000718933
-1.68137e-05
0.000668673
-0.000154427
0.000585645
-0.000317375
0.000465598
-0.000513033
0.000306187
-0.000751784
0.000112092
-0.00104713
-9.53029e-05
-0.00140951
-0.000264638
-0.00181922
-0.000312978
-0.00216086
-0.00018484
-0.00211515
-0.00114685
-9.29938e-05
0.000401944
-0.000195362
0.000782926
-0.00024453
0.000909956
-0.000236215
0.000917372
-0.000182635
0.000875034
-9.76117e-05
0.000815262
7.47169e-06
0.000752443
0.000124201
0.000692359
0.000246579
0.000636692
0.000370301
0.000585221
0.000492126
0.000536886
0.00060943
0.000490283
0.000719899
0.000443885
0.000821322
0.000396146
0.000911461
0.000345528
0.000987945
0.000290487
0.00104818
0.000229417
0.00108926
0.00016057
0.0011078
8.19446e-05
0.00109972
-8.733e-06
0.00106057
-0.00011528
0.00098459
-0.000241392
0.000865247
-0.00039369
0.00069581
-0.000582347
0.000472573
-0.000823896
0.000204943
-0.00114188
-6.36753e-05
-0.0015506
-0.000239718
-0.00198481
-0.000202353
-0.00215251
-0.00134921
-0.0001575
0.000559445
-0.000276837
0.000902263
-0.000292943
0.000926062
-0.000229414
0.000853843
-0.000115436
0.000761055
2.71447e-05
0.000672681
0.000183825
0.000595762
0.000345479
0.000530705
0.000506491
0.00047568
0.000663343
0.000428369
0.000813668
0.000386561
0.000955669
0.000348283
0.00108775
0.000311802
0.00120831
0.000275585
0.0013156
0.000238245
0.00140759
0.00019849
0.00148195
0.000155056
0.00153589
0.000106632
0.00156603
5.18103e-05
0.00156814
-1.08478e-05
0.00153739
-8.45324e-05
0.00146737
-0.000171364
0.00135017
-0.00027649
0.00117599
-0.000408167
0.000933888
-0.000581799
0.000618014
-0.000826007
0.000249895
-0.00118249
-7.78046e-05
-0.00165711
-0.000193659
-0.00203666
-0.00154287
-0.000243711
0.000803155
-0.000303181
0.000961733
-0.000204605
0.000827486
-2.57791e-05
0.000675017
0.000184553
0.000550723
0.000402545
0.000454689
0.000616485
0.000381822
0.000820854
0.000326336
0.00101335
0.000283184
0.00119317
0.00024855
0.00136007
0.000219662
0.00151388
0.000194469
0.00165428
0.000171407
0.00178062
0.000149238
0.00189192
0.000126945
0.00198676
0.00010365
0.00206326
7.85567e-05
0.002119
5.08957e-05
0.0021509
1.99092e-05
0.00215548
-1.54275e-05
0.00212743
-5.64872e-05
0.00206076
-0.000104685
0.00194725
-0.000162987
0.0017757
-0.000236619
0.00153033
-0.000336429
0.00119083
-0.000486501
0.000746198
-0.000737855
0.000253576
-0.00116449
-8.11194e-05
-0.00170196
-0.00162398
-0.000194121
0.000997276
1.86378e-05
0.000748974
0.00037341
0.000472714
0.000714305
0.000334122
0.00101988
0.000245147
0.00128992
0.000184652
0.00152783
0.000143912
0.00173803
0.000116135
0.00192477
9.64466e-05
0.00209152
8.17948e-05
0.00224088
7.02994e-05
0.00237461
6.07439e-05
0.00249372
5.22991e-05
0.00259858
4.43737e-05
0.002689
3.65253e-05
0.00276425
2.84034e-05
0.00282309
1.9712e-05
0.00286377
1.02238e-05
0.00288359
8.21306e-08
0.00288081
-1.26419e-05
0.00285039
-2.60653e-05
0.00278778
-4.2079e-05
0.00268613
-6.13365e-05
0.00253522
-8.57113e-05
0.00231833
-0.000119538
0.00200612
-0.000174294
0.00155148
-0.000283211
0.000927292
-0.000540304
0.000263781
-0.00103845
-0.0013602
0.000997276
0.00174625
0.00221896
0.00255309
0.00279823
0.00298288
0.0031268
0.00324293
0.00333938
0.00342117
0.00349147
0.00355222
0.00360452
0.00364889
0.00368542
0.00371382
0.00373353
0.00374375
0.00374384
0.00373119
0.00370513
0.00366305
0.00360171
0.003516
0.00339646
0.00322217
0.00293896
0.00239865
0.0013602
)
;

boundaryField
{
    movingWall
    {
        type            calculated;
        value           uniform 0;
    }
    fixedWalls
    {
        type            calculated;
        value           uniform 0;
    }
    frontAndBack
    {
        type            empty;
        value           nonuniform 0();
    }
}


// ************************************************************************* //
