/*--------------------------------*- C++ -*----------------------------------*\
  =========                 |
  \\      /  F ield         | OpenFOAM: The Open Source CFD Toolbox
   \\    /   O peration     | Website:  https://openfoam.org
    \\  /    A nd           | Version:  7
     \\/     M anipulation  |
\*---------------------------------------------------------------------------*/
FoamFile
{
    version     2.0;
    format      ascii;
    class       volScalarField;
    location    "9.9";
    object      p;
}
// * * * * * * * * * * * * * * * * * * * * * * * * * * * * * * * * * * * * * //

dimensions      [0 2 -2 0 0 0 0];

internalField   nonuniform List<scalar> 
900
(
-1.52792e-06
-0.000356051
-0.000939581
-0.00157165
-0.00214002
-0.00257923
-0.00285519
-0.00295106
-0.00285648
-0.00256286
-0.00206311
-0.00135419
-0.000441187
0.000658218
0.00191
0.00326169
0.00464266
0.0059678
0.00714434
0.00808176
0.00870364
0.00895971
0.00883593
0.00836059
0.00760518
0.00667787
0.00571442
0.00487385
0.00432189
0.00418374
0.000348529
-1.92246e-05
-0.00046682
-0.000932949
-0.00135146
-0.00167527
-0.0018777
-0.00194287
-0.00185923
-0.00161715
-0.00120904
-0.00063137
0.000112323
0.00100798
0.0020279
0.00312899
0.00425506
0.0053356
0.00629491
0.00705939
0.00756746
0.00777975
0.00768725
0.00731577
0.00672551
0.00600591
0.00526555
0.00460651
0.00416891
0.00404324
0.000954435
0.000412415
-5.0564e-05
-0.000469226
-0.00082955
-0.00110361
-0.0012761
-0.00133724
-0.00127764
-0.00108743
-0.000757274
-0.000280665
0.000342998
0.00110492
0.00198386
0.00294466
0.0039366
0.00489691
0.0057558
0.00644411
0.00690312
0.00709452
0.00700861
0.00666833
0.00612827
0.00546836
0.00478328
0.00416839
0.00371924
0.00350722
0.00163643
0.000856415
0.000311931
-0.00011838
-0.000469342
-0.000731879
-0.000903669
-0.000983106
-0.000964061
-0.000836364
-0.000587822
-0.000207131
0.000312445
0.000969023
0.00174836
0.00262122
0.00354173
0.00444973
0.00527542
0.0059472
0.00640198
0.00659613
0.00651456
0.00617558
0.00562987
0.00495326
0.00423602
0.00357075
0.00303251
0.00265675
0.00224538
0.00120914
0.000559338
9.04733e-05
-0.000278388
-0.00055555
-0.000751193
-0.000871586
-0.000913444
-0.00086551
-0.000711535
-0.000433938
-1.82535e-05
0.000541984
0.00124045
0.00205414
0.00294165
0.00384322
0.00468589
0.00539128
0.00588675
0.00611781
0.00605903
0.00572065
0.00514838
0.00441615
0.00361529
0.00284231
0.00216168
0.00156977
0.00265598
0.00136613
0.000601998
7.79417e-05
-0.000329993
-0.000645775
-0.000890674
-0.00107756
-0.00120481
-0.00125888
-0.00121812
-0.00105718
-0.000752199
-0.000286719
0.000342361
0.00111945
0.00200784
0.00294749
0.00386032
0.00465759
0.00525196
0.00557182
0.00557491
0.00525787
0.00465836
0.00384872
0.00292593
0.00199837
0.00112817
0.000278994
0.00275803
0.00123078
0.000352804
-0.0002362
-0.000700051
-0.00107684
-0.0013973
-0.00167928
-0.0019214
-0.00210645
-0.00220597
-0.00218519
-0.00200904
-0.00164885
-0.0010898
-0.000337813
0.000577388
0.00159618
0.00263489
0.00359173
0.00435954
0.00484224
0.00497209
0.00472379
0.00412083
0.00323206
0.0021633
0.00104296
-5.98957e-05
-0.00120967
0.002454
0.000714222
-0.000270999
-0.00093032
-0.00146429
-0.0019239
-0.00234782
-0.00275736
-0.00315001
-0.00350365
-0.00378163
-0.00393812
-0.00392462
-0.00369751
-0.00322678
-0.00250486
-0.00154975
-0.00041827
0.000801989
0.00199505
0.00302919
0.00377542
0.00412923
0.00403117
0.00348029
0.00253622
0.00131483
-2.75333e-05
-0.00140562
-0.00290924
0.0016576
-0.00026356
-0.00134599
-0.00207913
-0.00269684
-0.00326196
-0.00381991
-0.00439426
-0.00498038
-0.00555031
-0.0060581
-0.00644527
-0.00664751
-0.00660285
-0.00626117
-0.00559468
-0.00460728
-0.00334344
-0.00189102
-0.00037918
0.00103236
0.00217279
0.00288678
0.00306374
0.0026619
0.00172036
0.000362385
-0.00122045
-0.00291737
-0.00484266
0.000295273
-0.00177086
-0.00293843
-0.00374848
-0.00446409
-0.0051591
-0.00588478
-0.00666625
-0.00749635
-0.00834089
-0.00914398
-0.0098332
-0.0103261
-0.0105385
-0.0103945
-0.00983812
-0.00885291
-0.00745958
-0.00573862
-0.00382746
-0.00191428
-0.000219564
0.00103469
0.00166447
0.00156286
0.000728377
-0.000717455
-0.00254289
-0.00460191
-0.00703339
-0.00169055
-0.00386065
-0.00509993
-0.00598998
-0.00681826
-0.0076688
-0.00859825
-0.00963316
-0.010764
-0.0119508
-0.0131277
-0.0142077
-0.0150881
-0.0156589
-0.0158129
-0.0154596
-0.0145434
-0.0130566
-0.0110581
-0.00868298
-0.00614292
-0.00371209
-0.00169448
-0.000374059
4.34536e-05
-0.00051629
-0.00195372
-0.00399751
-0.00645705
-0.00949588
-0.00433744
-0.00656692
-0.00786328
-0.00883591
-0.00979109
-0.0108223
-0.0119916
-0.0133272
-0.0148185
-0.0164205
-0.0180585
-0.0196309
-0.0210137
-0.022068
-0.0226499
-0.0226254
-0.0218898
-0.0203906
-0.0181485
-0.0152798
-0.0120072
-0.00865475
-0.00561896
-0.0033112
-0.00207822
-0.00211501
-0.00338109
-0.00557763
-0.00846304
-0.012225
-0.00765927
-0.00990161
-0.0112391
-0.012295
-0.0133883
-0.0146215
-0.0160622
-0.0177417
-0.0196495
-0.0217379
-0.0239248
-0.0260954
-0.0281046
-0.0297826
-0.0309447
-0.031406
-0.0310019
-0.0296219
-0.0272263
-0.0238906
-0.0198265
-0.0153931
-0.0110787
-0.0074436
-0.00502227
-0.00419413
-0.00503822
-0.00726071
-0.0105718
-0.0151828
-0.0116437
-0.0138528
-0.015214
-0.0163497
-0.0175857
-0.019033
-0.0207661
-0.0228208
-0.0251891
-0.0278232
-0.0306361
-0.0335017
-0.0362553
-0.0386965
-0.0405983
-0.0417207
-0.0418332
-0.0407456
-0.0383462
-0.0346415
-0.0298023
-0.0241928
-0.0183751
-0.0130648
-0.00902512
-0.00689509
-0.00696116
-0.00899852
-0.0126926
-0.0182812
-0.0162517
-0.0183852
-0.0197505
-0.0209555
-0.0223268
-0.0239851
-0.026013
-0.0284534
-0.0313038
-0.0345188
-0.0380099
-0.0416426
-0.0452348
-0.0485581
-0.0513438
-0.053297
-0.0541169
-0.0535254
-0.0513226
-0.0474219
-0.0419181
-0.0351385
-0.0276795
-0.0203927
-0.0142911
-0.0103472
-0.0091674
-0.0107019
-0.0146723
-0.0213593
-0.0214194
-0.023443
-0.0247906
-0.0260435
-0.0275253
-0.0293679
-0.0316656
-0.0344717
-0.0377924
-0.0415881
-0.0457715
-0.0502028
-0.0546861
-0.0589679
-0.0627422
-0.0656626
-0.067357
-0.0674556
-0.0656798
-0.0618161
-0.055852
-0.0480302
-0.0389234
-0.0294683
-0.0209133
-0.0146157
-0.0116247
-0.0122169
-0.0162695
-0.0241529
-0.0270636
-0.0289565
-0.0302618
-0.0315258
-0.0330685
-0.0350375
-0.037544
-0.0406566
-0.0443939
-0.0487252
-0.0535671
-0.0587772
-0.0641485
-0.0694067
-0.0742132
-0.0781753
-0.0808541
-0.0817797
-0.0806678
-0.0770964
-0.0709386
-0.0623132
-0.0517021
-0.0400474
-0.0287721
-0.0196238
-0.0141997
-0.0132895
-0.0171197
-0.0262561
-0.0330902
-0.0348523
-0.0360868
-0.0373045
-0.0388259
-0.0408233
-0.0434338
-0.0467478
-0.0508014
-0.0555751
-0.0609911
-0.0669055
-0.0731026
-0.0792904
-0.0851024
-0.0901061
-0.0938277
-0.0957879
-0.0953798
-0.0922922
-0.0862101
-0.0770808
-0.0652324
-0.0515185
-0.0374334
-0.0250565
-0.0165859
-0.0135147
-0.0166909
-0.0270734
-0.0394068
-0.0410667
-0.0421966
-0.0432815
-0.0446576
-0.0465373
-0.0490974
-0.0524602
-0.0566837
-0.061762
-0.0676224
-0.0741192
-0.0810273
-0.0880387
-0.0947631
-0.100735
-0.105434
-0.108309
-0.108771
-0.106316
-0.10052
-0.0911694
-0.0783997
-0.0628916
-0.0460849
-0.0302695
-0.0182169
-0.012271
-0.0142278
-0.0257585
-0.0459393
-0.0475655
-0.0485455
-0.0493701
-0.0504231
-0.0519828
-0.0542864
-0.0575001
-0.0617092
-0.0669212
-0.0730661
-0.0799925
-0.0874635
-0.0951532
-0.102649
-0.109457
-0.11502
-0.118739
-0.119988
-0.118164
-0.112737
-0.103337
-0.0899007
-0.0728804
-0.0535453
-0.0342366
-0.0181825
-0.00863934
-0.00868139
-0.021133
-0.052658
-0.0543696
-0.0551297
-0.0555048
-0.0559866
-0.0569608
-0.0587518
-0.0615832
-0.0655703
-0.0707307
-0.076991
-0.0841872
-0.0920636
-0.100273
-0.108378
-0.115852
-0.122109
-0.126515
-0.128387
-0.127063
-0.121923
-0.112466
-0.0984428
-0.0800687
-0.0583656
-0.0355663
-0.015174
-0.00131647
0.00137915
-0.0115687
-0.059621
-0.0615933
-0.0620084
-0.0616475
-0.0612187
-0.0612732
-0.0622532
-0.0644498
-0.0680057
-0.0729391
-0.0791617
-0.0864856
-0.0946256
-0.103207
-0.111768
-0.119732
-0.126482
-0.131383
-0.133636
-0.132566
-0.127466
-0.117727
-0.102943
-0.083118
-0.0590018
-0.0325983
-0.00748646
0.0114595
0.0178747
0.00519474
-0.0670601
-0.0695068
-0.0693293
-0.0677893
-0.0659914
-0.0647228
-0.0645673
-0.0658822
-0.0688225
-0.0733893
-0.0794624
-0.0868134
-0.0951189
-0.103961
-0.11283
-0.121132
-0.1282
-0.133315
-0.135692
-0.134551
-0.129112
-0.118665
-0.102675
-0.0809696
-0.0540176
-0.0235763
0.00689874
0.0319452
0.0433624
0.0323531
-0.075567
-0.0786421
-0.077362
-0.0739497
-0.0701733
-0.067117
-0.0655021
-0.0657244
-0.067919
-0.0720388
-0.0779049
-0.0852328
-0.0936439
-0.102669
-0.111751
-0.12025
-0.12745
-0.132567
-0.134766
-0.133178
-0.126929
-0.115202
-0.0973362
-0.0730093
-0.0423163
-0.00693402
0.0300885
0.0628494
0.0812506
0.0745266
-0.086518
-0.0899792
-0.0865312
-0.0801683
-0.0736264
-0.0682784
-0.0649159
-0.0639043
-0.0653003
-0.0689648
-0.0746313
-0.0819374
-0.0904365
-0.0996001
-0.108817
-0.117395
-0.12456
-0.129464
-0.131193
-0.128784
-0.121238
-0.107607
-0.0870591
-0.0590531
-0.0235891
0.0182383
0.0637855
0.107098
0.135977
0.138269
-0.103069
-0.105286
-0.0974278
-0.0864703
-0.0761884
-0.0680397
-0.0627152
-0.0604253
-0.0610616
-0.0643387
-0.0698696
-0.0771956
-0.0857924
-0.0950674
-0.104353
-0.112902
-0.119883
-0.124379
-0.125391
-0.12185
-0.112596
-0.096524
-0.0725734
-0.0399196
0.00177082
0.0519246
0.108544
0.167048
0.21255
0.232006
-0.132381
-0.127651
-0.110862
-0.0928759
-0.0776649
-0.0662229
-0.0588254
-0.0553318
-0.0553512
-0.0583859
-0.0638965
-0.0713146
-0.0800355
-0.0894045
-0.0987021
-0.107132
-0.11381
-0.117758
-0.117899
-0.113054
-0.101904
-0.0831323
-0.0553831
-0.017409
0.031726
0.0923441
0.163842
0.242656
0.3148
0.367371
-0.190621
-0.160669
-0.127399
-0.099035
-0.0774584
-0.0623477
-0.0530025
-0.0486008
-0.0483097
-0.0513561
-0.0570298
-0.0646552
-0.0735584
-0.0830367
-0.0923345
-0.100621
-0.106976
-0.110371
-0.109666
-0.103588
-0.0907767
-0.0696043
-0.0383805
0.00471569
0.0616067
0.134217
0.224383
0.331433
0.444857
0.571149
-0.321695
-0.200376
-0.138863
-0.0974856
-0.0697836
-0.052238
-0.0423718
-0.0382813
-0.0385912
-0.0422972
-0.0485912
-0.0567529
-0.0660888
-0.0758897
-0.0853978
-0.0937817
-0.100117
-0.103365
-0.102353
-0.0956922
-0.0821134
-0.0597815
-0.0267191
0.0194578
0.0818596
0.164849
0.274909
0.420575
0.608884
0.898395
-0.649113
-0.236893
-0.107447
-0.062522
-0.0379109
-0.0241808
-0.0184435
-0.0180496
-0.021318
-0.0273236
-0.0354222
-0.0450301
-0.0555566
-0.066371
-0.0767759
-0.0859866
-0.0931153
-0.0971619
-0.0970216
-0.0915091
-0.0788798
-0.0575972
-0.0256668
0.019499
0.0815881
0.166822
0.287647
0.472414
0.77854
1.37239
)
;

boundaryField
{
    movingWall
    {
        type            zeroGradient;
    }
    fixedWalls
    {
        type            zeroGradient;
    }
    frontAndBack
    {
        type            empty;
    }
}


// ************************************************************************* //
