/*--------------------------------*- C++ -*----------------------------------*\
  =========                 |
  \\      /  F ield         | OpenFOAM: The Open Source CFD Toolbox
   \\    /   O peration     | Website:  https://openfoam.org
    \\  /    A nd           | Version:  7
     \\/     M anipulation  |
\*---------------------------------------------------------------------------*/
FoamFile
{
    version     2.0;
    format      ascii;
    class       surfaceScalarField;
    location    "9.9";
    object      phi;
}
// * * * * * * * * * * * * * * * * * * * * * * * * * * * * * * * * * * * * * //

dimensions      [0 3 -1 0 0 0 0];

internalField   nonuniform List<scalar> 
1740
(
8.60897e-07
-8.59695e-07
5.43003e-07
3.17909e-07
-1.40516e-06
1.94816e-06
-4.81896e-06
3.41381e-06
-9.34303e-06
4.52406e-06
-1.46184e-05
5.27537e-06
-2.03424e-05
5.72401e-06
-2.62686e-05
5.92616e-06
-3.21838e-05
5.91522e-06
-3.78832e-05
5.69938e-06
-4.31514e-05
5.26817e-06
-4.7754e-05
4.60267e-06
-5.14408e-05
3.68682e-06
-5.39591e-05
2.51822e-06
-5.50765e-05
1.11745e-06
-5.46101e-05
-4.66417e-07
-5.24581e-05
-2.15198e-06
-4.86305e-05
-3.82763e-06
-4.32713e-05
-5.35923e-06
-3.66675e-05
-6.60376e-06
-2.92408e-05
-7.42669e-06
-2.15186e-05
-7.72219e-06
-1.40864e-05
-7.43224e-06
-7.52544e-06
-6.56097e-06
-2.343e-06
-5.18244e-06
1.10275e-06
-3.44575e-06
2.67403e-06
-1.57128e-06
2.49705e-06
1.76974e-07
1.17645e-06
1.32057e-06
1.17642e-06
-3.00116e-07
-5.59563e-07
-3.52349e-06
3.54127e-06
-1.02824e-05
8.70708e-06
-2.01967e-05
1.33281e-05
-3.26004e-05
1.69277e-05
-4.67624e-05
1.94374e-05
-6.19903e-05
2.09519e-05
-7.76552e-05
2.15911e-05
-9.31728e-05
2.14327e-05
-0.000107971
2.04974e-05
-0.000121465
1.87621e-05
-0.00013305
1.61878e-05
-0.000142115
1.27521e-05
-0.000148077
8.47979e-06
-0.000150428
3.4691e-06
-0.000148808
-2.08628e-06
-0.000143045
-7.91535e-06
-0.000133235
-1.36382e-05
-0.000119767
-1.88272e-05
-0.000103338
-2.30325e-05
-8.49277e-05
-2.58368e-05
-6.5734e-05
-2.69159e-05
-4.70708e-05
-2.60954e-05
-3.02358e-05
-2.3396e-05
-1.63587e-05
-1.90595e-05
-6.25124e-06
-1.35532e-05
-2.57565e-07
-7.56495e-06
1.95536e-06
-2.03592e-06
1.37905e-06
1.89692e-06
2.55545e-06
-2.12356e-06
1.564e-06
-9.34601e-06
1.07637e-05
-2.15381e-05
2.08992e-05
-3.80166e-05
2.98066e-05
-5.78479e-05
3.6759e-05
-8.00371e-05
4.16266e-05
-0.00010362
4.45344e-05
-0.000127684
4.56559e-05
-0.000151357
4.51057e-05
-0.000173772
4.29123e-05
-0.000194051
3.90409e-05
-0.000211305
3.34416e-05
-0.000224659
2.61063e-05
-0.000233303
1.71241e-05
-0.00023656
6.72564e-06
-0.000233954
-4.69189e-06
-0.000225301
-1.65684e-05
-0.000210768
-2.81716e-05
-0.000190918
-3.86769e-05
-0.000166725
-4.7226e-05
-0.000139536
-5.30251e-05
-0.000110999
-5.54536e-05
-8.2923e-05
-5.41712e-05
-5.71131e-05
-4.92059e-05
-3.51651e-05
-4.10076e-05
-1.82564e-05
-3.04619e-05
-6.94708e-06
-1.88743e-05
-1.04293e-06
-7.9401e-06
5.87241e-07
2.66766e-07
3.14268e-06
-4.09765e-06
5.66165e-06
-1.56093e-05
2.22754e-05
-3.35029e-05
3.87927e-05
-5.65806e-05
5.28843e-05
-8.35826e-05
6.3761e-05
-0.000113272
7.13154e-05
-0.00014447
7.57332e-05
-0.000176059
7.7245e-05
-0.00020695
7.5996e-05
-0.000236055
7.20171e-05
-0.000262275
6.52618e-05
-0.000284511
5.56773e-05
-0.000301693
4.32883e-05
-0.000312844
2.82747e-05
-0.000317153
1.10344e-05
-0.000314058
-7.78624e-06
-0.000303337
-2.72892e-05
-0.000285177
-4.63324e-05
-0.000260224
-6.36292e-05
-0.00022961
-7.78398e-05
-0.000194921
-8.77146e-05
-0.000158117
-9.22574e-05
-0.000121396
-9.08926e-05
-8.69922e-05
-8.36095e-05
-5.69416e-05
-7.10582e-05
-3.28252e-05
-5.45783e-05
-1.55341e-05
-3.61654e-05
-5.08945e-06
-1.83848e-05
-5.58485e-07
-4.2642e-06
2.58419e-06
-6.02173e-06
1.16834e-05
-2.18168e-05
3.80704e-05
-4.53938e-05
6.23697e-05
-7.49523e-05
8.24428e-05
-0.000108858
9.7667e-05
-0.000145631
0.000108088
-0.000183915
0.000114017
-0.000222433
0.000115763
-0.000259944
0.000113507
-0.000295206
0.000107279
-0.000326963
9.70187e-05
-0.00035396
8.26739e-05
-0.000374979
6.43082e-05
-0.000388907
4.22026e-05
-0.000394807
1.69339e-05
-0.000392008
-1.05851e-05
-0.000380194
-3.91036e-05
-0.000359488
-6.70384e-05
-0.000330519
-9.25975e-05
-0.000294463
-0.000113896
-0.000253035
-0.000129143
-0.000208429
-0.000136864
-0.000163182
-0.000136139
-0.000119967
-0.000126825
-8.13114e-05
-0.000109713
-4.93007e-05
-8.6589e-05
-2.52845e-05
-6.01816e-05
-9.66303e-06
-3.40063e-05
-1.78947e-06
-1.21378e-05
7.94718e-07
-7.82402e-06
1.95074e-05
-2.77163e-05
5.79628e-05
-5.67538e-05
9.14071e-05
-9.25179e-05
0.000118207
-0.000132987
0.000138136
-0.000176442
0.000151544
-0.000221373
0.000158948
-0.000266388
0.000160778
-0.000310145
0.000157264
-0.000351303
0.000148436
-0.000388502
0.000134218
-0.000420379
0.000114551
-0.000445599
8.95291e-05
-0.000462921
5.95244e-05
-0.000471265
2.52777e-05
-0.000469805
-1.20447e-05
-0.000458056
-5.08533e-05
-0.000435977
-8.91172e-05
-0.000404063
-0.000124512
-0.000363414
-0.000154545
-0.000315774
-0.000176783
-0.000263503
-0.000189134
-0.000209466
-0.000190176
-0.000156814
-0.000179477
-0.000108679
-0.000157849
-6.77979e-05
-0.00012747
-3.61469e-05
-9.18326e-05
-1.4655e-05
-5.54982e-05
-3.07115e-06
-2.37216e-05
-2.27644e-06
-9.47195e-06
2.89793e-05
-3.31554e-05
8.16462e-05
-6.72726e-05
0.000125524
-0.000108821
0.000159756
-0.000155409
0.000184724
-0.000205096
0.000201231
-0.000256246
0.000210097
-0.000307389
0.000211921
-0.000357127
0.000207003
-0.000404069
0.000195378
-0.000446798
0.000176948
-0.00048388
0.000151632
-0.000513886
0.000119535
-0.000535446
8.10843e-05
-0.000547313
3.71444e-05
-0.000548452
-1.09058e-05
-0.000538121
-6.11843e-05
-0.00051601
-0.000111228
-0.000482352
-0.00015817
-0.000438042
-0.000198855
-0.000384734
-0.00023009
-0.000324875
-0.000248993
-0.000261633
-0.000253419
-0.000198697
-0.000242413
-0.000139932
-0.000216614
-8.89195e-05
-0.000178482
-4.84728e-05
-0.000132279
-2.02317e-05
-8.37393e-05
-4.45257e-06
-3.95007e-05
-6.72901e-06
-1.09367e-05
3.99161e-05
-3.80093e-05
0.000108719
-7.66917e-05
0.000164207
-0.000123464
0.000206527
-0.000175603
0.000236863
-0.000230981
0.000256609
-0.000287863
0.000266979
-0.000344739
0.000268797
-0.000400196
0.00026246
-0.000452835
0.000248017
-0.000501227
0.000225339
-0.000543898
0.000194303
-0.000579348
0.000154985
-0.00060608
0.000107817
-0.00062266
5.37237e-05
-0.000627796
-5.76906e-06
-0.000620413
-6.85682e-05
-0.000599825
-0.000131815
-0.000565871
-0.000192125
-0.000519093
-0.000245633
-0.000460912
-0.000288272
-0.000393735
-0.000316169
-0.000320976
-0.000326178
-0.000246884
-0.000316504
-0.000176189
-0.000287309
-0.000113538
-0.000241133
-6.28446e-05
-0.000182973
-2.67016e-05
-0.000119882
-6.03211e-06
-6.01702e-05
-1.27611e-05
-1.21828e-05
5.20989e-05
-4.21513e-05
0.000138687
-8.47588e-05
0.000206814
-0.000136054
0.000257823
-0.000193042
0.000293851
-0.000253441
0.000317008
-0.000315452
0.00032899
-0.000377558
0.000330903
-0.000438369
0.00032327
-0.000496519
0.000306168
-0.000550604
0.000279424
-0.000599151
0.00024285
-0.000640613
0.000196447
-0.000673384
0.000140588
-0.000695837
7.61765e-05
-0.000706387
4.78167e-06
-0.000703591
-7.13644e-05
-0.00068629
-0.000149116
-0.000653802
-0.000224612
-0.000606159
-0.000293276
-0.000544357
-0.000350074
-0.000470588
-0.000389938
-0.000388369
-0.000408398
-0.000302469
-0.000402404
-0.000218572
-0.000371206
-0.00014262
-0.000317085
-7.99516e-05
-0.000245642
-3.4442e-05
-0.000165392
-7.92975e-06
-8.66825e-05
-2.06909e-05
-1.3169e-05
6.52679e-05
-4.54477e-05
0.000170966
-9.12179e-05
0.000252584
-0.000146197
0.000312802
-0.000207178
0.000354832
-0.000271769
0.0003816
-0.000338138
0.00039536
-0.00040479
0.000397554
-0.00047039
0.00038887
-0.000533643
0.000369421
-0.000593211
0.000338992
-0.000647661
0.0002973
-0.000695438
0.000244224
-0.000734862
0.000180012
-0.00076414
0.000105455
-0.000781396
2.20373e-05
-0.000784814
-6.79461e-05
-0.000772702
-0.000161228
-0.000743759
-0.000253555
-0.00069734
-0.000339695
-0.000633804
-0.000413611
-0.00055487
-0.000468872
-0.000463916
-0.000499352
-0.000366073
-0.000500247
-0.00026798
-0.000469299
-0.000177076
-0.000407988
-0.000100502
-0.000322217
-4.38574e-05
-0.000222036
-1.02748e-05
-0.000120265
-3.09657e-05
-1.3853e-05
7.91209e-05
-4.77688e-05
0.000204882
-9.58227e-05
0.000300638
-0.000153508
0.000370487
-0.000217469
0.000418793
-0.000285243
0.000449373
-0.000354988
0.000465105
-0.000425256
0.000467822
-0.000494796
0.00045841
-0.000562416
0.000437041
-0.000626882
0.000403459
-0.000686849
0.000357266
-0.000740809
0.000298183
-0.000787062
0.000226266
-0.000823708
0.000142101
-0.000848659
4.69882e-05
-0.000859722
-5.68834e-05
-0.000854698
-0.000166252
-0.000831607
-0.000276646
-0.000788992
-0.00038231
-0.000726338
-0.000476265
-0.000644574
-0.000550636
-0.000546577
-0.000597349
-0.000437523
-0.000609301
-0.00032485
-0.000581972
-0.000217612
-0.000515226
-0.000125147
-0.000414682
-5.53507e-05
-0.000291832
-1.32009e-05
-0.000162415
-4.41665e-05
-1.41988e-05
9.33196e-05
-4.90045e-05
0.000239688
-9.83633e-05
0.000349997
-0.000157651
0.000429775
-0.000223425
0.000484567
-0.000293179
0.000519127
-0.000365084
0.000537011
-0.000437753
0.000540491
-0.000510038
0.000530695
-0.000580879
0.000507882
-0.000649186
0.000471766
-0.000713751
0.000421832
-0.00077318
0.000357612
-0.000825836
0.000278922
-0.000869809
0.000186074
-0.000902896
8.00751e-05
-0.000922632
-3.71475e-05
-0.000926381
-0.000162503
-0.000911497
-0.000291531
-0.000875629
-0.000418178
-0.000817182
-0.000534711
-0.000735942
-0.000631875
-0.000633814
-0.000699478
-0.00051551
-0.000727604
-0.000388892
-0.00070859
-0.000264559
-0.000639559
-0.0001544
-0.000524841
-6.92981e-05
-0.000376934
-1.68432e-05
-0.00021487
-6.10097e-05
-1.41838e-05
0.000107503
-4.90862e-05
0.00027459
-9.87017e-05
0.000399612
-0.000158389
0.000489462
-0.000224671
0.000550848
-0.00029502
0.000589477
-0.000367632
0.000609623
-0.000441186
0.000614045
-0.000514651
0.00060416
-0.000587121
0.000580352
-0.000657685
0.000542331
-0.000725329
0.000489475
-0.000788844
0.000421127
-0.000846758
0.000336837
-0.000897274
0.00023659
-0.000938221
0.000121022
-0.000967014
-8.35376e-06
-0.000980741
-0.000148776
-0.000976185
-0.000296087
-0.000950115
-0.000444248
-0.000899724
-0.000585102
-0.000823327
-0.000708273
-0.000721318
-0.000801487
-0.000597264
-0.000851658
-0.000458789
-0.000847065
-0.000317672
-0.000780677
-0.000188539
-0.000653975
-8.60185e-05
-0.000479454
-2.13357e-05
-0.000279553
-8.23454e-05
-1.38075e-05
0.000121311
-4.801e-05
0.000308792
-9.68126e-05
0.000448415
-0.000155643
0.000548293
-0.000221027
0.000616232
-0.000290435
0.000658885
-0.000362085
0.000681272
-0.000434728
0.000686688
-0.000507456
0.000676888
-0.000579534
0.000652429
-0.000650263
0.00061306
-0.00071887
0.000558083
-0.000784412
0.000486668
-0.000845686
0.00039811
-0.000901147
0.000292051
-0.000948827
0.000168702
-0.000986252
2.90711e-05
-0.0010104
-0.000124628
-0.00101771
-0.000288772
-0.00100422
-0.000457744
-0.000965886
-0.000623434
-0.000899338
-0.00077482
-0.000802949
-0.000897876
-0.000678335
-0.000976272
-0.000531923
-0.000993476
-0.0003759
-0.000936699
-0.000227477
-0.000802398
-0.000105731
-0.0006012
-2.68061e-05
-0.000358478
-0.000109152
-1.3099e-05
0.00013441
-4.58601e-05
0.000341553
-9.28251e-05
0.00049538
-0.00014955
0.000605018
-0.00021259
0.000679271
-0.000279417
0.000725712
-0.000348275
0.00075013
-0.000417987
0.000756401
-0.000487774
0.000746675
-0.000557084
0.00072174
-0.000625459
0.000681435
-0.000692414
0.000625038
-0.000757339
0.000551593
-0.000819399
0.000460171
-0.00087744
0.000350092
-0.000929872
0.000221133
-0.000974545
7.3745e-05
-0.0010086
-9.05785e-05
-0.00102842
-0.000268951
-0.00102954
-0.000456617
-0.00100691
-0.000646073
-0.000955394
-0.000826332
-0.000870994
-0.000982276
-0.000752572
-0.00109469
-0.000604182
-0.00114187
-0.000437167
-0.00110371
-0.000270621
-0.000968944
-0.000128504
-0.000743317
-3.33682e-05
-0.000453614
-0.00014252
-1.21243e-05
0.000146534
-4.28319e-05
0.000372261
-8.70642e-05
0.000539612
-0.000140524
0.000658479
-0.000199801
0.000738548
-0.000262377
0.000788288
-0.000326524
0.000814277
-0.000391145
0.000821022
-0.000455598
0.000811128
-0.000519535
0.000785676
-0.000582759
0.000744659
-0.000645115
0.000687393
-0.000706378
0.000612856
-0.000766163
0.000519956
-0.000823815
0.000407744
-0.000878278
0.000275597
-0.000927931
0.000123398
-0.000970274
-4.82355e-05
-0.00100209
-0.000237131
-0.00101875
-0.000439958
-0.00101448
-0.000650341
-0.000982676
-0.00085814
-0.000916827
-0.00104812
-0.000812443
-0.00119908
-0.000669961
-0.00128435
-0.000498202
-0.00127547
-0.000316714
-0.00115043
-0.000154187
-0.000905844
-4.1113e-05
-0.000566687
-0.000183633
-1.09939e-05
0.000157528
-3.92555e-05
0.000400523
-8.00898e-05
0.000580447
-0.000129307
0.000707695
-0.000183515
0.000792756
-0.000240213
0.000844985
-0.000297722
0.000871786
-0.000355047
0.000878347
-0.000411709
0.00086779
-0.000467585
0.000841552
-0.000522771
0.000799845
-0.000577464
0.000742086
-0.000631866
0.000667258
-0.00068609
0.00057418
-0.000740046
0.0004617
-0.000793313
0.000328864
-0.000845017
0.000175102
-0.000893
-2.52779e-07
-0.000935147
-0.000194984
-0.000966799
-0.000408307
-0.00098208
-0.000635059
-0.000973365
-0.000866855
-0.000931939
-0.00108955
-0.000849708
-0.00128131
-0.000722443
-0.00141161
-0.00055452
-0.0014434
-0.000363723
-0.00134123
-0.000182358
-0.00108721
-5.01029e-05
-0.000698943
-0.000233736
-9.87226e-06
0.000167401
-3.56231e-05
0.000426273
-7.27389e-05
0.000617563
-0.000117014
0.00075197
-0.000165039
0.000840782
-0.000214346
0.000894292
-0.000263353
0.000920793
-0.000311222
0.000926216
-0.000357684
0.000914253
-0.000402883
0.00088675
-0.000447232
0.000844194
-0.000491307
0.000786162
-0.000535751
0.000711703
-0.000581183
0.000619611
-0.0006281
0.000508616
-0.000676738
0.000377502
-0.00072683
0.000225194
-0.000777895
5.08123e-05
-0.000827248
-0.00014563
-0.000871825
-0.000363731
-0.000906019
-0.000600865
-0.000921878
-0.000850996
-0.000909138
-0.00110229
-0.000856394
-0.00133405
-0.00075418
-0.00151383
-0.000600593
-0.00159698
-0.00040878
-0.00153304
-0.000212277
-0.00128371
-6.03781e-05
-0.000850842
-0.000294114
-8.99477e-06
0.000176395
-3.263e-05
0.000449909
-6.61768e-05
0.000651109
-0.000105182
0.000790976
-0.000146159
0.000881759
-0.00018672
0.000934853
-0.00022547
0.000959544
-0.000261825
0.000962571
-0.00029581
0.000948238
-0.000327893
0.000918833
-0.000358846
0.000875146
-0.000389638
0.000816954
-0.000421352
0.000743416
-0.000455098
0.000653358
-0.000491931
0.00054545
-0.000532727
0.000418298
-0.000578031
0.000270497
-0.000627887
0.000100668
-0.00068112
-9.23967e-05
-0.000735356
-0.000309495
-0.000786024
-0.000550197
-0.000825694
-0.000811326
-0.000843567
-0.00108442
-0.000825806
-0.00135181
-0.000757858
-0.00158178
-0.000630219
-0.00172462
-0.000448233
-0.00171503
-0.000242871
-0.00148907
-7.19862e-05
-0.00102173
-0.0003661
-8.70311e-06
0.000185098
-3.12474e-05
0.000472453
-6.1976e-05
0.000681838
-9.58194e-05
0.000824819
-0.000129148
0.000915088
-0.000159755
0.000965459
-0.000186593
0.000986382
-0.000209485
0.000985463
-0.000228874
0.000967626
-0.000245633
0.000935593
-0.000260938
0.000890451
-0.000276163
0.000832179
-0.000292806
0.000760059
-0.000312427
0.000672979
-0.00033657
0.000569592
-0.000366663
0.000448391
-0.000403905
0.000307739
-0.000449069
0.000145833
-0.000502113
-3.93528e-05
-0.0005618
-0.000249808
-0.000624951
-0.000487046
-0.000685456
-0.000750821
-0.000733178
-0.0010367
-0.000753244
-0.00133175
-0.000727019
-0.001608
-0.000636975
-0.00181467
-0.000477751
-0.00187425
-0.000272731
-0.00169409
-8.50456e-05
-0.00120941
-0.000451146
-9.51813e-06
0.000194617
-3.28537e-05
0.000495788
-6.22366e-05
0.000711221
-9.14629e-05
0.000854045
-0.000116737
0.000940362
-0.000136236
0.000984958
-0.000149517
0.000999663
-0.000157036
0.000992982
-0.000159817
0.000970407
-0.000159243
0.000935019
-0.000156936
0.000888144
-0.000154673
0.000829916
-0.00015433
0.000759716
-0.000157841
0.00067649
-0.00016716
0.000578911
-0.000184125
0.000465356
-0.000210444
0.000334059
-0.000247615
0.000183003
-0.000296448
9.48022e-06
-0.000356948
-0.000189307
-0.000427568
-0.000416427
-0.000504142
-0.000674246
-0.000578375
-0.000962464
-0.000636094
-0.00127403
-0.000656411
-0.00158768
-0.000614546
-0.00185653
-0.000492413
-0.00199639
-0.000300074
-0.00188643
-9.98388e-05
-0.00140965
-0.000550984
-1.22849e-05
0.000206901
-3.94595e-05
0.000522963
-6.97536e-05
0.000741515
-9.52078e-05
0.000879499
-0.000111988
0.000957142
-0.000119043
0.000992013
-0.000116925
0.000997545
-0.000107027
0.000983084
-9.11511e-05
0.000954531
-7.12979e-05
0.000915166
-4.95724e-05
0.000866419
-2.81397e-05
0.000808483
-9.21179e-06
0.000740788
5.00346e-06
0.000662275
1.23396e-05
0.000571574
1.05492e-05
0.000467146
-2.46886e-06
0.000347077
-2.84539e-05
0.000208988
-6.92537e-05
5.028e-05
-0.000125948
-0.000132613
-0.000198619
-0.000343756
-0.000285406
-0.00058746
-0.000380811
-0.000867059
-0.000473146
-0.00118169
-0.000541739
-0.00151909
-0.000556658
-0.00184161
-0.00048656
-0.00206648
-0.000322541
-0.00205045
-0.000116886
-0.0016153
-0.000667871
-1.8448e-05
0.000225349
-5.40473e-05
0.000558562
-8.81597e-05
0.000775628
-0.000110549
0.000901889
-0.000117846
0.000964439
-0.00011046
0.000984627
-9.05029e-05
0.000977588
-6.06783e-05
0.00095326
-2.3779e-05
0.000917632
1.74915e-05
0.000873895
6.05507e-05
0.00082336
0.000102895
0.000766139
0.000142086
0.000701598
0.000175712
0.000628649
0.000201371
0.000545915
0.000216729
0.000451788
0.000219459
0.000344346
0.000207183
0.000221265
0.000177746
7.97171e-05
0.000129063
-8.39304e-05
5.95229e-05
-0.000274215
-3.13639e-05
-0.000496573
-0.000141477
-0.000756946
-0.000263218
-0.00105995
-0.000378705
-0.0014036
-0.000456435
-0.00176388
-0.000453203
-0.00206972
-0.000336621
-0.00216703
-0.000136856
-0.00181507
-0.000804727
-3.05345e-05
0.000255884
-8.09492e-05
0.000608977
-0.000121732
0.00081641
-0.000140525
0.000920682
-0.000135709
0.000959624
-0.000110308
0.000959225
-6.87454e-05
0.000936025
-1.54481e-05
0.000899962
4.5626e-05
0.000856558
0.000111036
0.000808485
0.000177749
0.000756647
0.000243015
0.000700873
0.000304256
0.000640356
0.000358986
0.000573919
0.000404757
0.000500145
0.000439127
0.000417418
0.00045961
0.000323864
0.000463626
0.000217249
0.000448491
9.48521e-05
0.000411357
-4.67973e-05
0.000349345
-0.000212202
0.000259823
-0.000407051
0.000141572
-0.000638695
-2.57815e-06
-0.000915801
-0.000161353
-0.00124483
-0.000305076
-0.00162016
-0.000382712
-0.00199208
-0.000336338
-0.00221341
-0.000159941
-0.00199146
-0.000964668
-5.28989e-05
0.000308783
-0.000125821
0.000681899
-0.000173806
0.000864395
-0.000184668
0.000931544
-0.000161281
0.000936237
-0.000111036
0.000908981
-4.15668e-05
0.000866556
4.06267e-05
0.000817769
0.000130365
0.000766819
0.00022355
0.0007153
0.00031685
0.000663348
0.000407419
0.000610304
0.000492692
0.000555083
0.000570242
0.000496369
0.000637676
0.000432711
0.000692562
0.000362532
0.000732348
0.000284077
0.000754279
0.000195319
0.000755304
9.38264e-05
0.000731941
-2.34342e-05
0.000680339
-0.0001606
0.000596111
-0.000322824
0.000474975
-0.000517559
0.000314474
-0.0007553
0.000119334
-0.00104969
-8.93496e-05
-0.00141148
-0.000260326
-0.0018211
-0.000310498
-0.00216323
-0.00018404
-0.00211792
-0.00114871
-9.24348e-05
0.000401218
-0.000193417
0.000782881
-0.000240569
0.000911547
-0.000229803
0.000920778
-0.000173553
0.000879987
-8.58461e-05
0.000821274
2.17575e-05
0.000758952
0.000140704
0.000698822
0.000264898
0.000642625
0.000389968
0.00059023
0.000512639
0.000540677
0.000630279
0.000492664
0.000740592
0.00044477
0.00084141
0.000395551
0.000930559
0.000343562
0.00100575
0.000287342
0.00106448
0.000225348
0.00110392
0.000155874
0.0011208
7.69476e-05
0.00111114
-1.37775e-05
0.0010705
-0.000119959
0.000993194
-0.000245513
0.000872696
-0.000397062
0.000702256
-0.00058486
0.000478125
-0.000825559
0.000209557
-0.00114291
-6.01368e-05
-0.00155141
-0.000237574
-0.0019858
-0.000201595
-0.0021539
-0.0013503
-0.000157309
0.000558527
-0.000275858
0.000901431
-0.000290582
0.000926271
-0.000225169
0.000855364
-0.000108977
0.000763795
3.59534e-05
0.000676344
0.000194945
0.000599961
0.000358728
0.000535039
0.000521571
0.000479782
0.00067987
0.000431931
0.000831204
0.000389343
0.000973743
0.000350125
0.00110589
0.000312622
0.00122606
0.000275376
0.00133255
0.000237072
0.00142342
0.000196479
0.00149639
0.00015238
0.00154876
0.000103502
0.00157724
4.84645e-05
0.00157772
-1.42606e-05
0.00154543
-8.76617e-05
0.001474
-0.000174091
0.00135561
-0.000278667
0.00118046
-0.000409706
0.000937592
-0.000582693
0.000621062
-0.000826377
0.000252241
-0.00118259
-7.62578e-05
-0.0016573
-0.000193046
-0.00203711
-0.00154335
-0.000243935
0.000802462
-0.000303335
0.000960831
-0.000204196
0.000827132
-2.42425e-05
0.00067541
0.000187653
0.000551899
0.000407492
0.000456505
0.000623402
0.000384051
0.000829715
0.000328726
0.001024
0.000285502
0.00120533
0.000250597
0.00137339
0.000221282
0.00152796
0.00019556
0.00166867
0.000171913
0.00179489
0.000149154
0.00190565
0.000126307
0.0019996
0.000102535
0.00207491
7.70678e-05
0.00212926
4.91533e-05
0.00215967
1.8051e-05
0.00216268
-1.72705e-05
0.00213317
-5.81558e-05
0.00206518
-0.000106095
0.00195057
-0.000164055
0.00177816
-0.000237301
0.00153219
-0.000336726
0.0011923
-0.000486482
0.000747374
-0.000737667
0.000254413
-0.00116434
-8.07111e-05
-0.00170199
-0.00162406
-0.000194575
0.000997038
1.76781e-05
0.000748577
0.000372415
0.000472395
0.00071372
0.000334105
0.00102017
0.00024545
0.00129145
0.000185221
0.00153085
0.000144656
0.00174262
0.000116952
0.00193088
9.72407e-05
0.00209899
8.24878e-05
0.00224944
7.08333e-05
0.00238392
6.10819e-05
0.00250341
5.24248e-05
0.00260827
4.42898e-05
0.00269833
3.62511e-05
0.00277289
2.79728e-05
0.00283078
1.91731e-05
0.0028703
9.63753e-06
0.00288899
-6.42752e-07
0.00288492
-1.31979e-05
0.00285334
-2.65738e-05
0.00278972
-4.24772e-05
0.00268727
-6.15984e-05
0.00253579
-8.58289e-05
0.00231859
-0.000119521
0.00200628
-0.000174174
0.00155166
-0.000283044
0.00092748
-0.00054016
0.000263874
-0.00103838
-0.00136019
0.000997038
0.00174561
0.00221801
0.00255211
0.00279756
0.00298279
0.00312744
0.00324439
0.00334163
0.00342412
0.00349496
0.00355604
0.00360846
0.00365275
0.003689
0.00371698
0.00373615
0.00374579
0.00374514
0.00373195
0.00370537
0.00366289
0.0036013
0.00351547
0.00339595
0.00322177
0.00293873
0.00239857
0.00136019
)
;

boundaryField
{
    movingWall
    {
        type            calculated;
        value           uniform 0;
    }
    fixedWalls
    {
        type            calculated;
        value           uniform 0;
    }
    frontAndBack
    {
        type            empty;
        value           nonuniform 0();
    }
}


// ************************************************************************* //
