/*--------------------------------*- C++ -*----------------------------------*\
  =========                 |
  \\      /  F ield         | OpenFOAM: The Open Source CFD Toolbox
   \\    /   O peration     | Website:  https://openfoam.org
    \\  /    A nd           | Version:  7
     \\/     M anipulation  |
\*---------------------------------------------------------------------------*/
FoamFile
{
    version     2.0;
    format      ascii;
    class       volVectorField;
    location    "9.9";
    object      U;
}
// * * * * * * * * * * * * * * * * * * * * * * * * * * * * * * * * * * * * * //

dimensions      [0 1 -1 0 0 0 0];

internalField   nonuniform List<vector> 
900
(
(0.000166197 -0.00016492 0)
(0.000296648 -7.24038e-05 0)
(-2.54263e-05 9.76302e-05 0)
(-0.000810266 0.000247515 0)
(-0.00196548 0.000356105 0)
(-0.0033852 0.000426063 0)
(-0.00497405 0.000466815 0)
(-0.00665381 0.000486622 0)
(-0.00835981 0.000490093 0)
(-0.0100334 0.000478288 0)
(-0.0116152 0.000449707 0)
(-0.0130409 0.000401551 0)
(-0.0142409 0.000330999 0)
(-0.015142 0.000236431 0)
(-0.0156735 0.000118509 0)
(-0.0157742 -1.90873e-05 0)
(-0.0154019 -0.000169652 0)
(-0.0145419 -0.0003224 0)
(-0.0132155 -0.000464082 0)
(-0.0114844 -0.000580131 0)
(-0.00945098 -0.000656523 0)
(-0.00725316 -0.000681989 0)
(-0.00505306 -0.000650088 0)
(-0.00302097 -0.000560713 0)
(-0.00131563 -0.000420885 0)
(-6.45079e-05 -0.000245486 0)
(0.000652695 -5.63196e-05 0)
(0.000825343 0.000120133 0)
(0.00056286 0.00022643 0)
(0.000173173 0.000172055 0)
(8.11417e-05 -0.000303949 0)
(-0.000297585 0.000295042 0)
(-0.00174079 0.00114144 0)
(-0.00416299 0.0019042 0)
(-0.00739838 0.00249143 0)
(-0.011242 0.00289555 0)
(-0.0154863 0.00313955 0)
(-0.0199418 0.00324892 0)
(-0.0244368 0.00323949 0)
(-0.028808 0.00311537 0)
(-0.0328911 0.00287175 0)
(-0.0365158 0.00249997 0)
(-0.0395066 0.0019932 0)
(-0.04169 0.00135199 0)
(-0.0429065 0.000588876 0)
(-0.0430281 -0.000268606 0)
(-0.0419746 -0.00117611 0)
(-0.0397324 -0.00207421 0)
(-0.0363695 -0.00289245 0)
(-0.0320417 -0.0035561 0)
(-0.0269913 -0.00399531 0)
(-0.0215349 -0.00415547 0)
(-0.0160387 -0.00400699 0)
(-0.0108851 -0.00355277 0)
(-0.00643106 -0.00283236 0)
(-0.00296287 -0.0019234 0)
(-0.000650953 -0.000940612 0)
(0.000475543 -3.67436e-05 0)
(0.000608349 0.000572758 0)
(0.00023444 0.00056029 0)
(-0.000105701 2.34642e-05 0)
(-0.00125247 0.00176132 0)
(-0.00407317 0.00383283 0)
(-0.00824045 0.00568529 0)
(-0.0134955 0.00713689 0)
(-0.0195672 0.00815536 0)
(-0.0261726 0.00877076 0)
(-0.0330427 0.00902479 0)
(-0.0399241 0.00894515 0)
(-0.0465699 0.00853913 0)
(-0.0527314 0.00779844 0)
(-0.0581552 0.00670978 0)
(-0.0625866 0.00526734 0)
(-0.0657808 0.00348495 0)
(-0.0675201 0.00140589 0)
(-0.0676349 -0.000890809 0)
(-0.066026 -0.003288 0)
(-0.0626872 -0.0056361 0)
(-0.0577214 -0.00776209 0)
(-0.0513491 -0.0094857 0)
(-0.0439055 -0.0106404 0)
(-0.0358254 -0.0110969 0)
(-0.0276125 -0.0107856 0)
(-0.0197958 -0.00971496 0)
(-0.012875 -0.00798181 0)
(-0.00726024 -0.00577407 0)
(-0.00321272 -0.0033686 0)
(-0.000796443 -0.00113139 0)
(0.000175587 0.000488149 0)
(0.000170863 0.000873881 0)
(-0.000304402 0.000912595 0)
(-0.00228544 0.00443282 0)
(-0.00658288 0.00813602 0)
(-0.0125465 0.0113597 0)
(-0.0197893 0.0138716 0)
(-0.0279732 0.0156293 0)
(-0.0367541 0.0166734 0)
(-0.0458031 0.0170604 0)
(-0.0548067 0.0168273 0)
(-0.0634556 0.0159829 0)
(-0.0714377 0.0145154 0)
(-0.078437 0.0124098 0)
(-0.0841401 0.00966747 0)
(-0.0882498 0.00632535 0)
(-0.0905053 0.00247094 0)
(-0.0907047 -0.00174854 0)
(-0.0887308 -0.00612525 0)
(-0.0845743 -0.0103976 0)
(-0.0783524 -0.014267 0)
(-0.0703196 -0.0174244 0)
(-0.0608673 -0.0195833 0)
(-0.0505095 -0.0205189 0)
(-0.0398512 -0.0201062 0)
(-0.02954 -0.0183521 0)
(-0.0202029 -0.0154156 0)
(-0.0123744 -0.0116134 0)
(-0.0064229 -0.00741304 0)
(-0.00248585 -0.00341817 0)
(-0.000437466 -0.000350293 0)
(7.3383e-05 0.000896446 0)
(-0.000492683 0.00236389 0)
(-0.003301 0.0083407 0)
(-0.00907949 0.01407 0)
(-0.0168247 0.0188944 0)
(-0.0260015 0.0225952 0)
(-0.0361987 0.0251534 0)
(-0.0470164 0.0266341 0)
(-0.0580793 0.0271122 0)
(-0.0690303 0.0266333 0)
(-0.0795164 0.0252063 0)
(-0.0891805 0.0228161 0)
(-0.0976618 0.0194475 0)
(-0.104604 0.0151133 0)
(-0.109668 0.00987909 0)
(-0.112555 0.00388359 0)
(-0.113031 -0.00265007 0)
(-0.110948 -0.00941356 0)
(-0.106274 -0.016022 0)
(-0.0991134 -0.0220376 0)
(-0.089723 -0.027004 0)
(-0.0785178 -0.0304935 0)
(-0.0660624 -0.0321614 0)
(-0.0530441 -0.0318031 0)
(-0.0402229 -0.0294048 0)
(-0.0283617 -0.0251779 0)
(-0.0181417 -0.0195705 0)
(-0.0100719 -0.013255 0)
(-0.00440418 -0.00709411 0)
(-0.00111598 -0.00209555 0)
(-2.42272e-05 0.000569191 0)
(-0.000664985 0.00434984 0)
(-0.00425832 0.0134556 0)
(-0.0114602 0.0216076 0)
(-0.0209169 0.0282507 0)
(-0.03194 0.0332476 0)
(-0.0440432 0.0366439 0)
(-0.0567752 0.0385513 0)
(-0.0697242 0.0390724 0)
(-0.0825034 0.0382641 0)
(-0.0947318 0.0361351 0)
(-0.106024 0.032666 0)
(-0.115988 0.0278418 0)
(-0.124236 0.0216861 0)
(-0.130394 0.0142935 0)
(-0.134126 0.0058535 0)
(-0.135153 -0.00333489 0)
(-0.133281 -0.0128614 0)
(-0.128431 -0.0222137 0)
(-0.12066 -0.0308042 0)
(-0.110195 -0.0380124 0)
(-0.0974392 -0.0432424 0)
(-0.0829846 -0.0459959 0)
(-0.0675873 -0.0459512 0)
(-0.0521239 -0.0430391 0)
(-0.0375157 -0.0374985 0)
(-0.0246288 -0.0299006 0)
(-0.0141599 -0.0211325 0)
(-0.0065224 -0.0123398 0)
(-0.00183618 -0.00484386 0)
(-0.000115398 -0.000117084 0)
(-0.00082037 0.00683086 0)
(-0.00513607 0.0197046 0)
(-0.0136596 0.030661 0)
(-0.024711 0.0393303 0)
(-0.0374558 0.0457203 0)
(-0.0513357 0.0499853 0)
(-0.0658543 0.0523094 0)
(-0.0805724 0.0528362 0)
(-0.0950858 0.051639 0)
(-0.108999 0.0487273 0)
(-0.121912 0.0440764 0)
(-0.133416 0.0376679 0)
(-0.143099 0.0295323 0)
(-0.150557 0.0197866 0)
(-0.15541 0.00866335 0)
(-0.157327 -0.00347113 0)
(-0.156048 -0.0161117 0)
(-0.151413 -0.0286206 0)
(-0.143405 -0.0402552 0)
(-0.132178 -0.0502127 0)
(-0.11809 -0.0576978 0)
(-0.101729 -0.0620138 0)
(-0.0839033 -0.0626681 0)
(-0.0656115 -0.0594812 0)
(-0.0479597 -0.0526765 0)
(-0.0320474 -0.0429263 0)
(-0.0188195 -0.0313378 0)
(-0.00890922 -0.0193718 0)
(-0.00262398 -0.00870999 0)
(-0.000205206 -0.00117925 0)
(-0.000957526 0.00975869 0)
(-0.00591663 0.0269852 0)
(-0.0156245 0.0411005 0)
(-0.0281127 0.0519912 0)
(-0.0424157 0.0598684 0)
(-0.0579121 0.0650367 0)
(-0.074068 0.0677799 0)
(-0.0904264 0.0682978 0)
(-0.106577 0.0666874 0)
(-0.122123 0.0629609 0)
(-0.136661 0.0570858 0)
(-0.149776 0.0490355 0)
(-0.161042 0.0388381 0)
(-0.170027 0.026621 0)
(-0.176308 0.0126443 0)
(-0.17949 -0.00267487 0)
(-0.179226 -0.0187504 0)
(-0.175257 -0.0348308 0)
(-0.16745 -0.0500181 0)
(-0.155848 -0.0633117 0)
(-0.140721 -0.0736828 0)
(-0.122611 -0.0801815 0)
(-0.102354 -0.082073 0)
(-0.08106 -0.0789897 0)
(-0.0600427 -0.0710701 0)
(-0.0406873 -0.0590457 0)
(-0.0242596 -0.0442425 0)
(-0.0116886 -0.028476 0)
(-0.00353075 -0.0138582 0)
(-0.000303816 -0.00265794 0)
(-0.00107359 0.0130761 0)
(-0.00658037 0.0351696 0)
(-0.0173025 0.0527608 0)
(-0.0310301 0.0660533 0)
(-0.0466878 0.075511 0)
(-0.063602 0.081627 0)
(-0.081211 0.0848106 0)
(-0.0990494 0.0853339 0)
(-0.11671 0.0833262 0)
(-0.133806 0.0788046 0)
(-0.149944 0.0717268 0)
(-0.164715 0.0620503 0)
(-0.177685 0.0497893 0)
(-0.188402 0.0350642 0)
(-0.196401 0.0181416 0)
(-0.201218 -0.000534804 0)
(-0.202412 -0.0203207 0)
(-0.199601 -0.0403707 0)
(-0.192508 -0.0596395 0)
(-0.181024 -0.0769209 0)
(-0.165278 -0.0909207 0)
(-0.145715 -0.100376 0)
(-0.123144 -0.104223 0)
(-0.0987622 -0.101801 0)
(-0.0740943 -0.0930613 0)
(-0.0508578 -0.0787202 0)
(-0.0307229 -0.0603033 0)
(-0.0150119 -0.0400251 0)
(-0.00462001 -0.0205218 0)
(-0.000423317 -0.00462595 0)
(-0.00116455 0.0167148 0)
(-0.00710549 0.0441034 0)
(-0.0186399 0.0654413 0)
(-0.033371 0.0812967 0)
(-0.0501379 0.0924265 0)
(-0.0682271 0.099544 0)
(-0.0870586 0.103208 0)
(-0.106167 0.10378 0)
(-0.125157 0.101429 0)
(-0.143662 0.0961813 0)
(-0.161309 0.0879829 0)
(-0.177705 0.0767675 0)
(-0.192424 0.0625216 0)
(-0.205003 0.0453393 0)
(-0.214943 0.0254684 0)
(-0.221716 0.00335003 0)
(-0.224787 -0.0203485 0)
(-0.223643 -0.0447129 0)
(-0.217841 -0.0685724 0)
(-0.207082 -0.0905206 0)
(-0.191302 -0.108977 0)
(-0.170775 -0.12231 0)
(-0.146213 -0.129031 0)
(-0.118835 -0.128053 0)
(-0.0903494 -0.118995 0)
(-0.0628349 -0.102438 0)
(-0.0384525 -0.0800508 0)
(-0.0190406 -0.0544833 0)
(-0.00596089 -0.029012 0)
(-0.00057665 -0.00719234 0)
(-0.001226 0.0205943 0)
(-0.00747024 0.0536063 0)
(-0.0195849 0.0789069 0)
(-0.0350469 0.0974615 0)
(-0.0526351 0.110348 0)
(-0.0716082 0.118527 0)
(-0.0913759 0.122725 0)
(-0.111479 0.123408 0)
(-0.131542 0.120798 0)
(-0.151227 0.114934 0)
(-0.170192 0.105748 0)
(-0.188072 0.0931452 0)
(-0.204462 0.0770698 0)
(-0.218904 0.0575703 0)
(-0.230885 0.0348496 0)
(-0.23983 0.00931312 0)
(-0.245122 -0.0183868 0)
(-0.246122 -0.0473062 0)
(-0.242218 -0.0761863 0)
(-0.232894 -0.103445 0)
(-0.217839 -0.127218 0)
(-0.197079 -0.145464 0)
(-0.171125 -0.156175 0)
(-0.141115 -0.157689 0)
(-0.108866 -0.149096 0)
(-0.0768061 -0.130654 0)
(-0.0476618 -0.104058 0)
(-0.0239334 -0.0723974 0)
(-0.00762503 -0.0397195 0)
(-0.000777567 -0.0105041 0)
(-0.0012541 0.0246225 0)
(-0.00765617 0.0634742 0)
(-0.0200938 0.092891 0)
(-0.0359817 0.114249 0)
(-0.0540637 0.128965 0)
(-0.0735805 0.138259 0)
(-0.0939377 0.143048 0)
(-0.114687 0.143916 0)
(-0.135478 0.141146 0)
(-0.156005 0.134798 0)
(-0.17597 0.124794 0)
(-0.195048 0.111004 0)
(-0.212871 0.0933214 0)
(-0.229009 0.0717317 0)
(-0.242956 0.0463681 0)
(-0.254123 0.0175679 0)
(-0.26184 -0.0140703 0)
(-0.265369 -0.0476248 0)
(-0.263941 -0.081803 0)
(-0.256817 -0.114899 0)
(-0.243401 -0.144794 0)
(-0.223388 -0.169034 0)
(-0.196971 -0.185019 0)
(-0.165057 -0.190354 0)
(-0.129435 -0.183363 0)
(-0.0928065 -0.163706 0)
(-0.0585002 -0.132887 0)
(-0.0298333 -0.0943737 0)
(-0.00968456 -0.05311 0)
(-0.00104101 -0.0147471 0)
(-0.00124643 0.0286987 0)
(-0.00765205 0.0734849 0)
(-0.0201392 0.107101 0)
(-0.0361244 0.131329 0)
(-0.0543392 0.14792 0)
(-0.0740144 0.158371 0)
(-0.0945549 0.163796 0)
(-0.115525 0.164912 0)
(-0.136602 0.162079 0)
(-0.15752 0.155385 0)
(-0.178028 0.144746 0)
(-0.197856 0.129999 0)
(-0.216692 0.110982 0)
(-0.234157 0.0876063 0)
(-0.249786 0.0599167 0)
(-0.263014 0.0281543 0)
(-0.273161 -0.00717699 0)
(-0.279436 -0.0452359 0)
(-0.280954 -0.0847621 0)
(-0.276773 -0.124005 0)
(-0.265993 -0.160667 0)
(-0.247922 -0.191921 0)
(-0.222306 -0.214551 0)
(-0.189642 -0.225292 0)
(-0.151486 -0.221442 0)
(-0.110645 -0.201695 0)
(-0.07101 -0.167007 0)
(-0.0368522 -0.121038 0)
(-0.0122098 -0.0697124 0)
(-0.00138361 -0.0201462 0)
(-0.00120297 0.0327182 0)
(-0.00745803 0.0834082 0)
(-0.0197188 0.121232 0)
(-0.0354625 0.148345 0)
(-0.0534281 0.166826 0)
(-0.0728408 0.178442 0)
(-0.0931065 0.18452 0)
(-0.113803 0.185922 0)
(-0.134634 0.183097 0)
(-0.155378 0.176176 0)
(-0.175839 0.165077 0)
(-0.195812 0.149611 0)
(-0.215058 0.129561 0)
(-0.233276 0.104762 0)
(-0.250077 0.0751612 0)
(-0.264964 0.0408832 0)
(-0.277305 0.00230043 0)
(-0.286316 -0.0398812 0)
(-0.291052 -0.0845114 0)
(-0.290424 -0.129899 0)
(-0.283256 -0.173684 0)
(-0.268434 -0.212769 0)
(-0.245162 -0.243367 0)
(-0.213334 -0.261274 0)
(-0.174007 -0.262506 0)
(-0.129824 -0.24435 0)
(-0.0850745 -0.206685 0)
(-0.0450492 -0.152975 0)
(-0.0152659 -0.0900987 0)
(-0.00182416 -0.0269643 0)
(-0.0011269 0.0365801 0)
(-0.00708973 0.0930203 0)
(-0.0188648 0.13498 0)
(-0.0340375 0.164935 0)
(-0.0513673 0.185269 0)
(-0.0700763 0.198016 0)
(-0.0895717 0.204718 0)
(-0.109444 0.206398 0)
(-0.129426 0.203608 0)
(-0.14934 0.196538 0)
(-0.169052 0.185123 0)
(-0.188433 0.169156 0)
(-0.207332 0.14838 0)
(-0.22555 0.122556 0)
(-0.242807 0.0915345 0)
(-0.258719 0.0553138 0)
(-0.272758 0.0141097 0)
(-0.284213 -0.0315523 0)
(-0.292165 -0.0807078 0)
(-0.29546 -0.13185 0)
(-0.292708 -0.182705 0)
(-0.282406 -0.230073 0)
(-0.263162 -0.269735 0)
(-0.234108 -0.296578 0)
(-0.19551 -0.305154 0)
(-0.149472 -0.290879 0)
(-0.100359 -0.251842 0)
(-0.0544024 -0.190635 0)
(-0.0189068 -0.114851 0)
(-0.00238396 -0.0354998 0)
(-0.00102538 0.0401966 0)
(-0.00658221 0.102123 0)
(-0.0176532 0.148063 0)
(-0.0319585 0.180751 0)
(-0.0482836 0.202837 0)
(-0.0658473 0.216614 0)
(-0.0840589 0.223849 0)
(-0.102523 0.225736 0)
(-0.121005 0.222949 0)
(-0.139375 0.215751 0)
(-0.157563 0.204114 0)
(-0.175528 0.187831 0)
(-0.19322 0.166615 0)
(-0.210558 0.140173 0)
(-0.227401 0.108266 0)
(-0.243513 0.0707709 0)
(-0.258522 0.0277367 0)
(-0.271846 -0.020526 0)
(-0.28269 -0.0733023 0)
(-0.289941 -0.12939 0)
(-0.292098 -0.186769 0)
(-0.287358 -0.242358 0)
(-0.273763 -0.291742 0)
(-0.249595 -0.329069 0)
(-0.214069 -0.347393 0)
(-0.16831 -0.339849 0)
(-0.116256 -0.301899 0)
(-0.0647771 -0.234228 0)
(-0.0231694 -0.144515 0)
(-0.00308733 -0.0460809 0)
(-0.000910234 0.0435045 0)
(-0.00599398 0.110566 0)
(-0.0162125 0.160253 0)
(-0.0294158 0.19548 0)
(-0.0444095 0.219134 0)
(-0.0604079 0.233761 0)
(-0.0768266 0.241359 0)
(-0.0932918 0.243306 0)
(-0.109605 0.240419 0)
(-0.125693 0.233051 0)
(-0.14156 0.221228 0)
(-0.157256 0.204764 0)
(-0.172843 0.183362 0)
(-0.188371 0.156691 0)
(-0.203851 0.124446 0)
(-0.219224 0.0863978 0)
(-0.234304 0.042445 0)
(-0.248686 -0.00732668 0)
(-0.261786 -0.0625905 0)
(-0.272639 -0.122435 0)
(-0.279765 -0.185275 0)
(-0.281213 -0.248402 0)
(-0.274585 -0.307528 0)
(-0.257333 -0.356386 0)
(-0.227457 -0.38671 0)
(-0.184676 -0.38913 0)
(-0.131849 -0.355625 0)
(-0.0758937 -0.283574 0)
(-0.028067 -0.179538 0)
(-0.00396281 -0.0590586 0)
(-0.000799065 0.0464793 0)
(-0.00541209 0.118277 0)
(-0.0147339 0.171401 0)
(-0.0266937 0.208875 0)
(-0.0400966 0.233809 0)
(-0.0541518 0.249005 0)
(-0.0682921 0.256701 0)
(-0.0821798 0.258482 0)
(-0.0956696 0.255317 0)
(-0.108755 0.247672 0)
(-0.121526 0.235642 0)
(-0.134129 0.219081 0)
(-0.146745 0.197702 0)
(-0.159558 0.171159 0)
(-0.172735 0.139101 0)
(-0.186386 0.101212 0)
(-0.20053 0.0572516 0)
(-0.215067 0.00708468 0)
(-0.229578 -0.0492759 0)
(-0.243273 -0.111353 0)
(-0.254936 -0.178114 0)
(-0.262646 -0.24745 0)
(-0.263769 -0.315558 0)
(-0.255089 -0.376222 0)
(-0.233379 -0.420281 0)
(-0.196632 -0.435948 0)
(-0.145918 -0.411039 0)
(-0.087303 -0.337959 0)
(-0.0335874 -0.220187 0)
(-0.00504658 -0.0747978 0)
(-0.00071753 0.0491523 0)
(-0.00496063 0.125293 0)
(-0.0134859 0.181472 0)
(-0.0241857 0.220784 0)
(-0.0358265 0.246576 0)
(-0.0476163 0.261933 0)
(-0.0590275 0.269358 0)
(-0.0697873 0.270656 0)
(-0.0798296 0.266969 0)
(-0.0892367 0.258884 0)
(-0.0981944 0.246582 0)
(-0.106958 0.229969 0)
(-0.115826 0.208785 0)
(-0.125116 0.182687 0)
(-0.135143 0.151299 0)
(-0.146188 0.11424 0)
(-0.158468 0.0711492 0)
(-0.172092 0.0217021 0)
(-0.18692 -0.0343047 0)
(-0.202477 -0.0969263 0)
(-0.217821 -0.165729 0)
(-0.231277 -0.239374 0)
(-0.240252 -0.31489 0)
(-0.241161 -0.386653 0)
(-0.229739 -0.445279 0)
(-0.202131 -0.477061 0)
(-0.156986 -0.465382 0)
(-0.0983755 -0.395991 0)
(-0.0396989 -0.266465 0)
(-0.0063906 -0.0936749 0)
(-0.000704711 0.0516346 0)
(-0.00481722 0.131807 0)
(-0.0128375 0.190588 0)
(-0.0224142 0.231173 0)
(-0.0322196 0.257227 0)
(-0.0414765 0.272182 0)
(-0.0497395 0.278844 0)
(-0.0568478 0.27926 0)
(-0.0628547 0.274747 0)
(-0.0679607 0.266023 0)
(-0.0724671 0.253357 0)
(-0.0767438 0.236715 0)
(-0.0812052 0.215873 0)
(-0.086292 0.190503 0)
(-0.0924522 0.16022 0)
(-0.100115 0.124604 0)
(-0.109667 0.0832135 0)
(-0.121408 0.035582 0)
(-0.135465 -0.0187664 0)
(-0.151688 -0.0802624 0)
(-0.169501 -0.149076 0)
(-0.187642 -0.224728 0)
(-0.203849 -0.30534 0)
(-0.214559 -0.386428 0)
(-0.214857 -0.459225 0)
(-0.199199 -0.509044 0)
(-0.163395 -0.515204 0)
(-0.108299 -0.455476 0)
(-0.0463661 -0.318001 0)
(-0.00807927 -0.116088 0)
(-0.000825433 0.0541562 0)
(-0.00524552 0.138217 0)
(-0.0132975 0.199059 0)
(-0.0220585 0.240136 0)
(-0.0300404 0.265624 0)
(-0.0365261 0.279423 0)
(-0.0412257 0.284698 0)
(-0.0441622 0.283748 0)
(-0.0455651 0.278068 0)
(-0.0457908 0.268491 0)
(-0.0452765 0.255369 0)
(-0.0445123 0.238721 0)
(-0.0440227 0.218359 0)
(-0.0443544 0.193974 0)
(-0.0460672 0.165182 0)
(-0.0497057 0.131536 0)
(-0.055781 0.0925421 0)
(-0.0647677 0.0476399 0)
(-0.0770119 -0.00386107 0)
(-0.0926561 -0.0626796 0)
(-0.111532 -0.129503 0)
(-0.132901 -0.204674 0)
(-0.155086 -0.287529 0)
(-0.174971 -0.375153 0)
(-0.18755 -0.460306 0)
(-0.186046 -0.528631 0)
(-0.163371 -0.55654 0)
(-0.116066 -0.513345 0)
(-0.0535653 -0.373926 0)
(-0.0102581 -0.14249 0)
(-0.00119678 0.0571341 0)
(-0.00665638 0.145209 0)
(-0.015577 0.207417 0)
(-0.0239857 0.247886 0)
(-0.0301839 0.27167 0)
(-0.0336192 0.283324 0)
(-0.0342793 0.286441 0)
(-0.0324728 0.283575 0)
(-0.0286773 0.276366 0)
(-0.0234474 0.265736 0)
(-0.0173755 0.252091 0)
(-0.0110731 0.235484 0)
(-0.00516154 0.215751 0)
(-0.000271464 0.192594 0)
(0.00294935 0.165627 0)
(0.00387716 0.134398 0)
(0.0019249 0.0983752 0)
(-0.00352804 0.0569216 0)
(-0.013 0.00925964 0)
(-0.0268686 -0.0455483 0)
(-0.0453635 -0.108566 0)
(-0.0683087 -0.180808 0)
(-0.0947792 -0.262767 0)
(-0.122502 -0.353324 0)
(-0.147007 -0.447569 0)
(-0.161038 -0.533009 0)
(-0.155001 -0.585131 0)
(-0.120402 -0.565599 0)
(-0.0612672 -0.432696 0)
(-0.0131727 -0.173458 0)
(-0.00204188 0.0613006 0)
(-0.00971408 0.153859 0)
(-0.0206681 0.216423 0)
(-0.0292511 0.254693 0)
(-0.0335864 0.275211 0)
(-0.0335044 0.283456 0)
(-0.0294617 0.283501 0)
(-0.0221868 0.27812 0)
(-0.0124862 0.269036 0)
(-0.00115304 0.257197 0)
(0.0110538 0.243011 0)
(0.0234085 0.226533 0)
(0.035209 0.2076 0)
(0.0457643 0.185908 0)
(0.0543853 0.161068 0)
(0.0603968 0.132628 0)
(0.063138 0.100036 0)
(0.0619304 0.062612 0)
(0.0561237 0.0195624 0)
(0.0451104 -0.0301618 0)
(0.028338 -0.087835 0)
(0.00544956 -0.154917 0)
(-0.0234453 -0.232827 0)
(-0.0571966 -0.322197 0)
(-0.0924676 -0.420962 0)
(-0.122483 -0.520024 0)
(-0.136068 -0.596634 0)
(-0.119579 -0.607266 0)
(-0.06931 -0.49181 0)
(-0.017193 -0.209767 0)
(-0.00379215 0.0679436 0)
(-0.0154987 0.165745 0)
(-0.029886 0.226978 0)
(-0.0389482 0.260689 0)
(-0.0408933 0.275836 0)
(-0.0363469 0.27911 0)
(-0.0265158 0.275059 0)
(-0.0127086 0.266569 0)
(0.00386083 0.255327 0)
(0.0221344 0.242206 0)
(0.041192 0.227543 0)
(0.0602147 0.211345 0)
(0.0784475 0.193416 0)
(0.0951719 0.173437 0)
(0.109686 0.151009 0)
(0.121293 0.125671 0)
(0.129297 0.0968771 0)
(0.132974 0.0639655 0)
(0.131578 0.0261342 0)
(0.124322 -0.0176534 0)
(0.110385 -0.0687203 0)
(0.0889539 -0.128721 0)
(0.0593756 -0.199655 0)
(0.0215651 -0.28357 0)
(-0.0227208 -0.381233 0)
(-0.0682473 -0.488307 0)
(-0.103699 -0.586803 0)
(-0.111018 -0.632311 0)
(-0.0770166 -0.547291 0)
(-0.0227394 -0.252317 0)
(-0.00726195 0.0793422 0)
(-0.0256905 0.183005 0)
(-0.044663 0.2398 0)
(-0.0535351 0.265426 0)
(-0.0514084 0.272449 0)
(-0.0404136 0.268946 0)
(-0.0228781 0.259772 0)
(-0.000849598 0.247697 0)
(0.024005 0.234176 0)
(0.0503738 0.219861 0)
(0.0772119 0.204927 0)
(0.103651 0.189271 0)
(0.12893 0.172631 0)
(0.152343 0.154654 0)
(0.173208 0.134929 0)
(0.190842 0.113 0)
(0.204539 0.0883415 0)
(0.213548 0.060339 0)
(0.21705 0.0282458 0)
(0.214118 -0.00888701 0)
(0.203721 -0.0522976 0)
(0.184682 -0.103601 0)
(0.155718 -0.164996 0)
(0.115697 -0.239389 0)
(0.0644738 -0.329926 0)
(0.00477352 -0.437492 0)
(-0.0537463 -0.551772 0)
(-0.0905085 -0.633519 0)
(-0.0823291 -0.592854 0)
(-0.0299055 -0.301798 0)
(-0.0138572 0.0994582 0)
(-0.0425072 0.207976 0)
(-0.0653572 0.254493 0)
(-0.0705656 0.266894 0)
(-0.060131 0.262458 0)
(-0.0387453 0.250394 0)
(-0.0102186 0.23537 0)
(0.0226052 0.219619 0)
(0.0576735 0.204071 0)
(0.0935288 0.18898 0)
(0.12911 0.17425 0)
(0.163598 0.159608 0)
(0.196303 0.144701 0)
(0.226601 0.129132 0)
(0.253879 0.112484 0)
(0.277507 0.0943183 0)
(0.296808 0.0741587 0)
(0.311031 0.0514653 0)
(0.319316 0.0255995 0)
(0.320637 -0.00423897 0)
(0.313821 -0.0390891 0)
(0.297434 -0.0803614 0)
(0.269746 -0.130103 0)
(0.228792 -0.191432 0)
(0.172747 -0.269013 0)
(0.101326 -0.368291 0)
(0.0202537 -0.488631 0)
(-0.0507587 -0.602596 0)
(-0.0802902 -0.619049 0)
(-0.0374696 -0.35856 0)
(-0.0254063 0.134911 0)
(-0.0670529 0.240923 0)
(-0.0864813 0.266637 0)
(-0.0779269 0.259112 0)
(-0.0503149 0.24013 0)
(-0.0118384 0.218696 0)
(0.0323227 0.19821 0)
(0.078905 0.179698 0)
(0.125866 0.163205 0)
(0.17194 0.148403 0)
(0.21631 0.134847 0)
(0.2584 0.122071 0)
(0.297739 0.109624 0)
(0.333885 0.0970825 0)
(0.366376 0.0840419 0)
(0.394698 0.0701096 0)
(0.418256 0.0548848 0)
(0.436352 0.0379346 0)
(0.448138 0.0187642 0)
(0.452568 -0.00323578 0)
(0.448413 -0.0287928 0)
(0.434098 -0.0590181 0)
(0.407647 -0.0955648 0)
(0.36658 -0.141174 0)
(0.307826 -0.200743 0)
(0.228204 -0.282537 0)
(0.128208 -0.395609 0)
(0.0209699 -0.531063 0)
(-0.0608353 -0.612679 0)
(-0.0408146 -0.421917 0)
(-0.0413333 0.197085 0)
(-0.0902749 0.272481 0)
(-0.0798301 0.259222 0)
(-0.0360635 0.226526 0)
(0.0220778 0.193877 0)
(0.0848511 0.16601 0)
(0.147645 0.143394 0)
(0.208223 0.125199 0)
(0.265564 0.110375 0)
(0.319267 0.0980022 0)
(0.369198 0.0873403 0)
(0.415302 0.0777986 0)
(0.457509 0.0688984 0)
(0.495684 0.0602429 0)
(0.529604 0.0514923 0)
(0.558938 0.0423424 0)
(0.583239 0.0325052 0)
(0.601925 0.0216879 0)
(0.614237 0.00956651 0)
(0.619267 -0.00425727 0)
(0.61584 -0.0201831 0)
(0.60238 -0.0389271 0)
(0.576928 -0.0615865 0)
(0.536843 -0.0900947 0)
(0.47841 -0.128325 0)
(0.39633 -0.184475 0)
(0.285276 -0.273842 0)
(0.146123 -0.410552 0)
(-0.00330778 -0.554042 0)
(-0.025364 -0.477554 0)
(-0.0341775 0.293635 0)
(-0.0480348 0.272433 0)
(0.0535478 0.199424 0)
(0.156633 0.149682 0)
(0.249701 0.114995 0)
(0.332181 0.0902277 0)
(0.404965 0.0726704 0)
(0.469206 0.0600903 0)
(0.52614 0.0507829 0)
(0.576869 0.0436043 0)
(0.622241 0.0378068 0)
(0.662851 0.0328843 0)
(0.699078 0.0284781 0)
(0.731109 0.0243229 0)
(0.758968 0.0202136 0)
(0.782529 0.0159823 0)
(0.801526 0.011482 0)
(0.815554 0.00657706 0)
(0.824011 0.00112764 0)
(0.826288 -0.0049476 0)
(0.821438 -0.0119671 0)
(0.80818 -0.0202033 0)
(0.784909 -0.0301249 0)
(0.749318 -0.042668 0)
(0.697813 -0.0598851 0)
(0.624295 -0.0868673 0)
(0.518488 -0.137145 0)
(0.365159 -0.240249 0)
(0.144151 -0.406965 0)
(0.0588754 -0.458304 0)
(0.303189 0.180885 0)
(0.382339 0.144189 0)
(0.560461 0.0910334 0)
(0.686174 0.0589259 0)
(0.768912 0.0393443 0)
(0.828689 0.0269019 0)
(0.874835 0.0190305 0)
(0.911687 0.014051 0)
(0.941929 0.0108172 0)
(0.967351 0.00861681 0)
(0.989086 0.00702729 0)
(1.00782 0.005795 0)
(1.02398 0.00476252 0)
(1.03776 0.00382851 0)
(1.04925 0.0029246 0)
(1.05844 0.00200168 0)
(1.0652 0.00102078 0)
(1.06936 -4.76653e-05 0)
(1.07068 -0.00123597 0)
(1.06879 -0.00247405 0)
(1.06321 -0.00394286 0)
(1.05345 -0.00567849 0)
(1.03873 -0.00775897 0)
(1.01787 -0.0103936 0)
(0.988806 -0.0140829 0)
(0.947426 -0.0201724 0)
(0.883914 -0.0325561 0)
(0.776321 -0.0637364 0)
(0.544814 -0.139456 0)
(0.38249 -0.201733 0)
)
;

boundaryField
{
    movingWall
    {
        type            fixedValue;
        value           uniform (1.2 0 0);
    }
    fixedWalls
    {
        type            noSlip;
    }
    frontAndBack
    {
        type            empty;
    }
}


// ************************************************************************* //
