/*--------------------------------*- C++ -*----------------------------------*\
  =========                 |
  \\      /  F ield         | OpenFOAM: The Open Source CFD Toolbox
   \\    /   O peration     | Website:  https://openfoam.org
    \\  /    A nd           | Version:  7
     \\/     M anipulation  |
\*---------------------------------------------------------------------------*/
FoamFile
{
    version     2.0;
    format      ascii;
    class       volScalarField;
    location    "1";
    object      p;
}
// * * * * * * * * * * * * * * * * * * * * * * * * * * * * * * * * * * * * * //

dimensions      [0 2 -2 0 0 0 0];

internalField   nonuniform List<scalar> 
900
(
-2.98302e-09
-0.000241621
-0.00050093
-0.000694808
-0.000767669
-0.000693082
-0.000465078
-8.76637e-05
0.000431074
0.00108149
0.00185316
0.00273475
0.00371355
0.00477489
0.00590161
0.00707376
0.00826837
0.00945953
0.0106186
0.0117151
0.0127169
0.0135924
0.0143117
0.0148491
0.0151867
0.0153184
0.0152572
0.0150444
0.0147543
0.0144903
0.000238819
-5.39e-06
-0.000193645
-0.000310221
-0.00032749
-0.000223768
9.27755e-06
0.000372153
0.000861333
0.00147079
0.00219263
0.00301718
0.00393284
0.00492578
0.00597964
0.0070753
0.00819087
0.00930186
0.0103815
0.0114013
0.0123326
0.0131471
0.0138198
0.0143305
0.014667
0.0148281
0.0148282
0.0147018
0.0144925
0.0142283
0.000503462
0.000176685
-1.69044e-05
-0.000113833
-0.000112813
1.32499e-06
0.000235017
0.000588979
0.0010611
0.00164705
0.00234051
0.00313314
0.0040144
0.00497135
0.00598841
0.00704714
0.0081264
0.00920226
0.0102486
0.011238
0.0121422
0.0129345
0.0135908
0.0140925
0.0144286
0.0145981
0.0146136
0.0145035
0.0142854
0.0139344
0.000710561
0.000284742
5.7411e-05
-4.60448e-05
-4.4946e-05
6.96264e-05
0.000300864
0.000648094
0.0011093
0.00168103
0.00235806
0.00313319
0.00399696
0.00493735
0.00593953
0.00698568
0.00805501
0.00912378
0.0101658
0.0111534
0.0120579
0.0128518
0.0135107
0.0140151
0.014353
0.0145217
0.0145313
0.0144058
0.014145
0.0136893
0.000799021
0.000282988
1.70571e-05
-0.000102007
-0.000108515
1.71907e-06
0.000228945
0.000570955
0.00102551
0.0015897
0.00225923
0.00302794
0.00388741
0.00482654
0.00583121
0.00688407
0.00796447
0.00904844
0.0101092
0.0111177
0.0120441
0.012859
0.013536
0.0140535
0.0143977
0.0145636
0.0145593
0.014407
0.0140961
0.0135441
0.000731721
0.000137761
-0.000166458
-0.000305145
-0.00032315
-0.000219518
3.70628e-06
0.000342999
0.000795865
0.00135982
0.00203139
0.00280541
0.00367447
0.00462837
0.00565368
0.00673339
0.00784677
0.0089692
0.0100726
0.0111262
0.0120974
0.0129539
0.0136659
0.0142089
0.0145661
0.0147304
0.0147087
0.0145237
0.0141603
0.0135217
0.00048862
-0.000173948
-0.000514959
-0.000674656
-0.000705541
-0.000608803
-0.000388189
-4.82455e-05
0.00040837
0.000979621
0.00166285
0.00245391
0.00334644
0.00433119
0.00539544
0.00652246
0.00769126
0.00887627
0.0100476
0.0111717
0.0122124
0.0131331
0.0138996
0.0144827
0.0148621
0.0150282
0.014988
0.0147665
0.0143481
0.013627
5.73527e-05
-0.000669399
-0.00104619
-0.00122704
-0.00127069
-0.00117985
-0.000959555
-0.000615141
-0.000149286
0.000436521
0.00114054
0.00195977
0.00288904
0.00392017
0.00504127
0.006236
0.00748301
0.00875557
0.0100215
0.0112437
0.0123813
0.0133922
0.0142356
0.0148766
0.0152901
0.0154639
0.0154052
0.0151435
0.0146652
0.0138578
-0.000572506
-0.00136406
-0.00177707
-0.00197912
-0.00203491
-0.00194841
-0.00172584
-0.00137315
-0.000892933
-0.000285981
0.000447068
0.00130456
0.00228275
0.00337486
0.00457009
0.00585268
0.00720111
0.00858741
0.00997676
0.0113278
0.0125939
0.0137252
0.0146731
0.0153946
0.0158578
0.0160471
0.0159706
0.0156635
0.0151164
0.0142103
-0.00141248
-0.00227384
-0.00272519
-0.00294896
-0.00301636
-0.00293273
-0.00270547
-0.00234122
-0.00184238
-0.00120888
-0.000440024
0.000464191
0.00150186
0.00266799
0.00395337
0.00534331
0.00681651
0.00834399
0.00988816
0.0114028
0.0128341
0.014123
0.0152098
0.0160407
0.0165748
0.0167909
0.0166976
0.0163378
0.0157078
0.0146812
-0.00247689
-0.00341664
-0.00391006
-0.0041568
-0.00423571
-0.00415384
-0.00392012
-0.00354198
-0.00302161
-0.00235792
-0.00154858
-0.000591527
0.00051366
0.00176442
0.00315381
0.00466903
0.00628972
0.00798655
0.00971943
0.011437
0.013077
0.0145688
0.0158387
0.0168179
0.017452
0.0177112
0.0176037
0.0171814
0.0164478
0.015268
-0.00378376
-0.00481357
-0.00535427
-0.00562593
-0.00571675
-0.00563616
-0.00539508
-0.00500203
-0.00445903
-0.00376381
-0.00291209
-0.00189931
-0.000722071
0.000620261
0.00212403
0.00377941
0.00556826
0.00746211
0.00941926
0.0113835
0.0132833
0.0150342
0.0165443
0.0177241
0.0184998
0.0188274
0.0187116
0.0182144
0.0173487
0.0159684
-0.00535546
-0.00648994
-0.00708444
-0.00738358
-0.00748714
-0.0074079
-0.00715951
-0.00675202
-0.00618742
-0.00546213
-0.00456964
-0.00350236
-0.00225329
-0.000817638
0.000805456
0.0026107
0.00458391
0.00669955
0.0089162
0.0111741
0.0133926
0.0154714
0.0172955
0.0187478
0.0197256
0.0201617
0.0200509
0.0194655
0.0184286
0.0167792
-0.0072193
-0.00847631
-0.00913236
-0.00946181
-0.00957903
-0.00950147
-0.00924656
-0.00882656
-0.00824364
-0.00749289
-0.00656531
-0.00544988
-0.00413531
-0.00261165
-0.000872157
0.00108428
0.00324978
0.00560524
0.00811235
0.0107109
0.0133131
0.0158019
0.0180351
0.0198586
0.0211278
0.0217372
0.0216602
0.0209752
0.0197155
0.0176977
-0.00940837
-0.0108097
-0.0115362
-0.0118986
-0.0120297
-0.0119537
-0.0116933
-0.0112638
-0.010668
-0.00989957
-0.00894706
-0.00779569
-0.00642936
-0.00483217
-0.00299011
-0.000893561
0.00145931
0.00405925
0.00687669
0.00985634
0.0129081
0.0159006
0.0186621
0.0209914
0.0226842
0.023573
0.0235879
0.0228025
0.0212544
0.0187248
-0.0119629
-0.0135357
-0.0143424
-0.014739
-0.0148824
-0.0148063
-0.0145406
-0.0141048
-0.0135028
-0.0127274
-0.0117645
-0.0105956
-0.00919967
-0.00755439
-0.00563755
-0.00342874
-0.000912517
0.00191412
0.00503967
0.00842232
0.0119792
0.0155732
0.0190053
0.0220196
0.0243297
0.0256709
0.0258911
0.0250323
0.0231193
0.0198736
-0.0149326
-0.0167111
-0.017608
-0.0180371
-0.0181873
-0.0181057
-0.0178321
-0.0173919
-0.0167907
-0.0160205
-0.0150652
-0.0139029
-0.012508
-0.0108521
-0.00890431
-0.00663284
-0.00400672
-0.00100198
0.00239331
0.00616401
0.0102514
0.0145302
0.0187877
0.0227139
0.0259178
0.027988
0.0286251
0.0277833
0.0254319
0.0211886
-0.0183807
-0.0204087
-0.0214049
-0.0218584
-0.0220023
-0.0219029
-0.0216135
-0.0211668
-0.020571
-0.0198179
-0.0188894
-0.0177615
-0.016405
-0.0147868
-0.0128688
-0.0106081
-0.00795755
-0.00486833
-0.00129581
0.00278687
0.00736857
0.0123673
0.017589
0.0226895
0.0271612
0.0303863
0.0318163
0.031211
0.0283873
0.0227774
-0.0223905
-0.0247251
-0.0258252
-0.0262832
-0.0263943
-0.0262528
-0.0259297
-0.0254667
-0.024875
-0.0241462
-0.0232613
-0.022195
-0.0209168
-0.0193916
-0.0175772
-0.0154232
-0.0128679
-0.00983712
-0.00624798
-0.00201679
0.00292302
0.00857813
0.0148321
0.0213622
0.0275642
0.0325595
0.0354112
0.0354984
0.0322885
0.0248662
-0.0270774
-0.0297921
-0.03099
-0.0314103
-0.0314395
-0.0312115
-0.0308203
-0.0303179
-0.0297177
-0.0290107
-0.0281773
-0.0271924
-0.0260271
-0.0246481
-0.0230148
-0.021075
-0.0187596
-0.015975
-0.0125968
-0.00848208
-0.00345261
0.00264212
0.00984972
0.0179743
0.0263975
0.0339706
0.0392125
0.0408359
0.037592
0.0278963
-0.0326092
-0.0357973
-0.0370618
-0.0373616
-0.0372208
-0.0368301
-0.0363108
-0.0357246
-0.0350846
-0.0343796
-0.0335889
-0.0326887
-0.0316545
-0.0304597
-0.0290717
-0.0274461
-0.025517
-0.0231847
-0.0202976
-0.0166304
-0.011906
-0.00576571
0.00210453
0.0117898
0.0228287
0.0338974
0.042868
0.0474204
0.0449808
0.0326996
-0.0392458
-0.0430166
-0.0442611
-0.0442835
-0.0438202
-0.0431401
-0.042394
-0.0416482
-0.04091
-0.0401617
-0.0393794
-0.0385408
-0.0376277
-0.0366244
-0.035513
-0.0342661
-0.0328341
-0.0311261
-0.0289768
-0.0260997
-0.0221319
-0.0164558
-0.00840929
0.00254218
0.016344
0.0317502
0.0460548
0.0555592
0.0555014
0.0408201
-0.0474151
-0.0518686
-0.0528865
-0.0523401
-0.0512962
-0.0501235
-0.0489958
-0.0479714
-0.0470407
-0.0461717
-0.0453325
-0.0445003
-0.0436631
-0.0428178
-0.0419651
-0.0411012
-0.0402023
-0.0391997
-0.0379396
-0.0361244
-0.0332041
-0.0284257
-0.020716
-0.00896019
0.00745528
0.0277553
0.049006
0.0660082
0.0708391
0.055068
-0.0578733
-0.0630032
-0.0633304
-0.0616839
-0.0596325
-0.0576524
-0.0559126
-0.0544374
-0.0531803
-0.0520816
-0.0510931
-0.0501859
-0.0493503
-0.0485935
-0.0479333
-0.0473886
-0.0469616
-0.0466077
-0.0461866
-0.0453831
-0.0435781
-0.0398169
-0.0326695
-0.0204257
-0.00164126
0.0237863
0.0533164
0.0805882
0.0938395
0.0803631
-0.0720638
-0.0774397
-0.0760549
-0.0723636
-0.0686261
-0.0653739
-0.0627028
-0.0605526
-0.0588074
-0.0573575
-0.0561238
-0.0550602
-0.0541512
-0.0534062
-0.0528515
-0.0525184
-0.052423
-0.0525307
-0.0526978
-0.052583
-0.0515172
-0.0483498
-0.0413801
-0.0283842
-0.00710314
0.0236876
0.0625298
0.102874
0.129263
0.124608
-0.0929622
-0.0967751
-0.0914405
-0.0840943
-0.0776589
-0.0725043
-0.0685108
-0.0654502
-0.0630763
-0.0611967
-0.0596748
-0.0584298
-0.0574261
-0.056662
-0.0561576
-0.0559389
-0.0560131
-0.056327
-0.0567
-0.0567323
-0.0556804
-0.0521553
-0.0442796
-0.029424
-0.00466858
0.0323357
0.081667
0.138464
0.184204
0.198621
-0.127034
-0.123428
-0.109526
-0.0959631
-0.0854385
-0.0776286
-0.0719437
-0.0678446
-0.0648347
-0.0625921
-0.0608825
-0.0595634
-0.058562
-0.0578507
-0.0574278
-0.057295
-0.0574256
-0.0577158
-0.0579117
-0.0575164
-0.0556791
-0.0506634
-0.0404525
-0.0220292
0.00813704
0.0533227
0.115238
0.193684
0.266889
0.316482
-0.18907
-0.159589
-0.129383
-0.106059
-0.0897795
-0.0786779
-0.0712568
-0.0663168
-0.062998
-0.0607329
-0.0591561
-0.0580483
-0.0572892
-0.0568191
-0.0566083
-0.0566248
-0.056794
-0.0569427
-0.0567157
-0.0554605
-0.0520788
-0.0450226
-0.031534
-0.00822679
0.0291674
0.0853907
0.164904
0.268775
0.383622
0.507842
-0.321418
-0.199981
-0.141341
-0.105778
-0.0838254
-0.0706499
-0.0630026
-0.0586251
-0.0561341
-0.0547405
-0.0539935
-0.0536376
-0.0535373
-0.0536263
-0.0538668
-0.0542104
-0.054552
-0.0546676
-0.0541279
-0.0521806
-0.0475798
-0.0386378
-0.0224413
0.00488389
0.0485386
0.115373
0.214157
0.354509
0.541998
0.832099
-0.646884
-0.234873
-0.108833
-0.0698411
-0.0514142
-0.0426365
-0.0397627
-0.0397397
-0.0408222
-0.0422646
-0.0437621
-0.0451874
-0.0465032
-0.0477176
-0.0488466
-0.0498781
-0.0507295
-0.0511916
-0.0508529
-0.0490049
-0.0445164
-0.0354319
-0.0190387
0.00846016
0.0525994
0.121823
0.230711
0.408999
0.713563
1.30771
)
;

boundaryField
{
    movingWall
    {
        type            zeroGradient;
    }
    fixedWalls
    {
        type            zeroGradient;
    }
    frontAndBack
    {
        type            empty;
    }
}


// ************************************************************************* //
