/*--------------------------------*- C++ -*----------------------------------*\
  =========                 |
  \\      /  F ield         | OpenFOAM: The Open Source CFD Toolbox
   \\    /   O peration     | Website:  https://openfoam.org
    \\  /    A nd           | Version:  7
     \\/     M anipulation  |
\*---------------------------------------------------------------------------*/
FoamFile
{
    version     2.0;
    format      ascii;
    class       surfaceScalarField;
    location    "1";
    object      phi;
}
// * * * * * * * * * * * * * * * * * * * * * * * * * * * * * * * * * * * * * //

dimensions      [0 3 -1 0 0 0 0];

internalField   nonuniform List<scalar> 
1740
(
1.98348e-07
-1.98349e-07
-5.87453e-07
7.85801e-07
-2.37211e-06
1.78465e-06
-4.86683e-06
2.49471e-06
-7.77425e-06
2.90741e-06
-1.08556e-05
3.0814e-06
-1.39387e-05
3.0831e-06
-1.69058e-05
2.96702e-06
-1.96762e-05
2.77045e-06
-2.21919e-05
2.51569e-06
-2.44064e-05
2.21446e-06
-2.62784e-05
1.87207e-06
-2.77691e-05
1.49069e-06
-2.88407e-05
1.07156e-06
-2.94571e-05
6.16438e-07
-2.95856e-05
1.285e-07
-2.91986e-05
-3.86972e-07
-2.82767e-05
-9.21949e-07
-2.68117e-05
-1.46502e-06
-2.48111e-05
-2.0006e-06
-2.23031e-05
-2.50794e-06
-1.93433e-05
-2.95986e-06
-1.60219e-05
-3.32137e-06
-1.24734e-05
-3.54848e-06
-8.88561e-06
-3.58781e-06
-5.50662e-06
-3.37899e-06
-2.64267e-06
-2.86394e-06
-6.34177e-07
-2.0085e-06
2.26657e-07
-8.60837e-07
2.26657e-07
-7.79923e-07
5.81574e-07
-3.68059e-06
3.68647e-06
-8.52823e-06
6.6323e-06
-1.48146e-05
8.78111e-06
-2.19905e-05
1.00832e-05
-2.95695e-05
1.06605e-05
-3.7166e-05
1.06796e-05
-4.44917e-05
1.02927e-05
-5.1335e-05
9.61371e-06
-5.75366e-05
8.71735e-06
-6.297e-05
7.64783e-06
-6.75273e-05
6.42934e-06
-7.11117e-05
5.07517e-06
-7.36348e-05
3.59461e-06
-7.5016e-05
1.99768e-06
-7.51859e-05
2.98355e-07
-7.40899e-05
-1.48288e-06
-7.16947e-05
-3.31717e-06
-6.79954e-05
-5.16438e-06
-6.30249e-05
-6.97107e-06
-5.68658e-05
-8.66707e-06
-4.96636e-05
-1.0162e-05
-4.16428e-05
-1.13422e-05
-3.31221e-05
-1.20692e-05
-2.45268e-05
-1.21831e-05
-1.63888e-05
-1.15169e-05
-9.32267e-06
-9.93013e-06
-3.9589e-06
-7.37228e-06
-8.17888e-07
-4.00185e-06
-5.91233e-07
-1.82367e-06
2.40524e-06
-6.79181e-06
8.6546e-06
-1.43039e-05
1.41444e-05
-2.36568e-05
1.81341e-05
-3.41401e-05
2.05665e-05
-4.51236e-05
2.1644e-05
-5.60942e-05
2.16501e-05
-6.66549e-05
2.08535e-05
-7.65048e-05
1.94635e-05
-8.5412e-05
1.76245e-05
-9.31909e-05
1.54267e-05
-9.96851e-05
1.29235e-05
-0.000104757
1.01473e-05
-0.000108284
7.12178e-06
-0.000110158
3.87137e-06
-0.000110287
4.27533e-07
-0.000108603
-3.1673e-06
-0.000105067
-6.85299e-06
-9.96821e-05
-1.05492e-05
-9.2504e-05
-1.41492e-05
-8.36568e-05
-1.75143e-05
-7.33509e-05
-2.0468e-05
-6.19019e-05
-2.27912e-05
-4.97484e-05
-2.42227e-05
-3.74619e-05
-2.44697e-05
-2.57412e-05
-2.32376e-05
-1.53792e-05
-2.02921e-05
-7.19003e-06
-1.55614e-05
-1.8911e-06
-9.30077e-06
-2.48233e-06
-2.66115e-06
5.0664e-06
-9.38153e-06
1.5375e-05
-1.91439e-05
2.39068e-05
-3.10108e-05
3.0001e-05
-4.41266e-05
3.36822e-05
-5.77574e-05
3.52748e-05
-7.13089e-05
3.52016e-05
-8.4317e-05
3.38615e-05
-9.64243e-05
3.15709e-05
-0.000107352
2.85526e-05
-0.000116876
2.49508e-05
-0.000124807
2.08542e-05
-0.000130979
1.63193e-05
-0.000135246
1.13888e-05
-0.00013748
6.10516e-06
-0.000137574
5.21428e-07
-0.000135448
-5.29297e-06
-0.00013106
-1.12408e-05
-0.000124416
-1.71934e-05
-0.000115585
-2.29804e-05
-0.000104718
-2.83814e-05
-9.20681e-05
-3.31177e-05
-7.80126e-05
-3.68467e-05
-6.307e-05
-3.91652e-05
-4.79107e-05
-3.96291e-05
-3.33493e-05
-3.77991e-05
-2.03134e-05
-3.3328e-05
-9.78248e-06
-2.60923e-05
-2.70919e-06
-1.63741e-05
-5.19152e-06
-3.29053e-06
8.35693e-06
-1.14311e-05
2.35156e-05
-2.30545e-05
3.55301e-05
-3.69947e-05
4.39412e-05
-5.22548e-05
4.89423e-05
-6.80115e-05
5.10316e-05
-8.361e-05
5.08001e-05
-9.85421e-05
4.87936e-05
-0.000112416
4.54446e-05
-0.000124924
4.10609e-05
-0.000135818
3.58444e-05
-0.000144886
2.99224e-05
-0.000151944
2.33776e-05
-0.000156829
1.6273e-05
-0.000159394
8.67072e-06
-0.000159519
6.46378e-07
-0.00015711
-7.70157e-06
-0.000152115
-1.62358e-05
-0.000144534
-2.47744e-05
-0.000134439
-3.30759e-05
-0.000121993
-4.08276e-05
-0.000107476
-4.76345e-05
-9.13088e-05
-5.30137e-05
-7.40725e-05
-5.64016e-05
-5.65195e-05
-5.7182e-05
-3.95687e-05
-5.47499e-05
-2.42776e-05
-4.86192e-05
-1.17933e-05
-3.85765e-05
-3.29695e-06
-2.48705e-05
-8.48846e-06
-3.76846e-06
1.21254e-05
-1.30653e-05
3.28124e-05
-2.62483e-05
4.87132e-05
-4.19462e-05
5.96391e-05
-5.90261e-05
6.60222e-05
-7.65801e-05
6.85856e-05
-9.39009e-05
6.81209e-05
-0.000110447
6.53401e-05
-0.000125806
6.08027e-05
-0.000139651
5.49065e-05
-0.000151721
4.79138e-05
-0.000161789
3.9991e-05
-0.000169658
3.12464e-05
-0.000175147
2.17626e-05
-0.000178096
1.16192e-05
-0.000178363
9.1333e-07
-0.000175835
-1.0229e-05
-0.000170441
-2.16301e-05
-0.000162164
-3.30521e-05
-0.000151063
-4.41765e-05
-0.000137303
-5.4588e-05
-0.000121177
-6.37599e-05
-0.000103142
-7.10492e-05
-8.38364e-05
-7.57069e-05
-6.40998e-05
-7.69186e-05
-4.49649e-05
-7.38848e-05
-2.7633e-05
-6.5951e-05
-1.34275e-05
-5.27821e-05
-3.73887e-06
-3.45591e-05
-1.22273e-05
-4.15863e-06
1.6284e-05
-1.44471e-05
4.31009e-05
-2.90043e-05
6.32704e-05
-4.62753e-05
7.691e-05
-6.49976e-05
8.47445e-05
-8.41798e-05
8.77678e-05
-0.000103065
8.70063e-05
-0.000121084
8.33595e-05
-0.000137808
7.75261e-05
-0.000152901
6.99998e-05
-0.000166092
6.11049e-05
-0.000177147
5.10461e-05
-0.000185856
3.99551e-05
-0.000192023
2.79297e-05
-0.000195467
1.50632e-05
-0.000196023
1.46901e-06
-0.000193548
-1.27033e-05
-0.00018794
-2.72386e-05
-0.000179149
-4.18428e-05
-0.00016721
-5.61152e-05
-0.000152272
-6.95263e-05
-0.000134633
-8.1399e-05
-0.000114779
-9.09028e-05
-9.34156e-05
-9.70707e-05
-7.14816e-05
-9.88526e-05
-5.01486e-05
-9.52179e-05
-3.07877e-05
-8.53118e-05
-1.49146e-05
-6.86552e-05
-4.11896e-06
-4.53547e-05
-1.63463e-05
-4.51597e-06
2.08e-05
-1.5731e-05
5.43159e-05
-3.15925e-05
7.91318e-05
-5.03749e-05
9.56924e-05
-7.0689e-05
0.000105059
-9.14598e-05
0.000108539
-0.000111881
0.000107428
-0.000131358
0.000102836
-0.000149447
9.56159e-05
-0.000165811
8.63633e-05
-0.000180172
7.5466e-05
-0.000192291
6.31648e-05
-0.000201946
4.96108e-05
-0.000208928
3.49112e-05
-0.00021303
1.91652e-05
-0.000214055
2.49421e-06
-0.000211822
-1.49362e-05
-0.000206181
-3.28803e-05
-0.000197034
-5.09898e-05
-0.000184371
-6.87783e-05
-0.000168308
-8.55891e-05
-0.000149136
-0.000100571
-0.000127369
-0.00011267
-0.000103785
-0.000120655
-7.94477e-05
-0.000123189
-5.57021e-05
-0.000118963
-3.41278e-05
-0.000106886
-1.64632e-05
-8.63198e-05
-4.50584e-06
-5.73121e-05
-2.08521e-05
-4.88225e-06
2.56822e-05
-1.70431e-05
6.64767e-05
-3.42401e-05
9.63289e-05
-5.45774e-05
0.00011603
-7.65367e-05
0.000127018
-9.89567e-05
0.000130959
-0.000120981
0.000129452
-0.000141989
0.000123845
-0.000161531
0.000115158
-0.000179265
0.000104097
-0.000194914
9.11155e-05
-0.000208237
7.64878e-05
-0.000219005
6.03781e-05
-0.000226988
4.28947e-05
-0.000231955
2.41323e-05
-0.000233669
4.20824e-06
-0.000231897
-1.67085e-05
-0.000226425
-3.83526e-05
-0.000217085
-6.03289e-05
-0.0002038
-8.20636e-05
-0.000186629
-0.00010276
-0.000165837
-0.000121363
-0.000141957
-0.00013655
-0.00011585
-0.000146762
-8.8734e-05
-0.000150306
-6.21712e-05
-0.000145526
-3.80068e-05
-0.000131051
-1.82542e-05
-0.000106072
-4.95248e-06
-7.06138e-05
-2.58046e-05
-5.28761e-06
3.09699e-05
-1.84797e-05
7.96688e-05
-3.71255e-05
0.000114975
-5.91459e-05
0.00013805
-8.28842e-05
0.000150756
-0.000107088
0.000155162
-0.000130849
0.000153213
-0.000153525
0.00014652
-0.000174658
0.000136291
-0.00019391
0.00012335
-0.000211012
0.000108217
-0.000225722
9.11978e-05
-0.000237806
7.24625e-05
-0.000247021
5.21099e-05
-0.000253105
3.02164e-05
-0.000255775
6.87819e-06
-0.000254734
-1.77503e-05
-0.000249684
-4.34023e-05
-0.000240364
-6.9649e-05
-0.000226593
-9.58341e-05
-0.000208344
-0.00012101
-0.000185822
-0.000143884
-0.000159566
-0.000162806
-0.00013052
-0.000175807
-0.000100087
-0.000180739
-7.01085e-05
-0.000175505
-4.27749e-05
-0.000158384
-2.04579e-05
-0.000128389
-5.5036e-06
-8.55681e-05
-3.13082e-05
-5.75401e-06
3.67239e-05
-2.01142e-05
9.4029e-05
-4.03867e-05
0.000135247
-6.42839e-05
0.000161947
-8.99955e-05
0.000176468
-0.00011617
0.000181337
-0.000141844
0.000178888
-0.000166357
0.000171032
-0.00018925
0.000159184
-0.000210195
0.000144296
-0.000228936
0.000126958
-0.000245241
0.000107503
-0.000258878
8.60992e-05
-0.000269591
6.28235e-05
-0.000277091
3.77163e-05
-0.000281044
1.08312e-05
-0.000281077
-1.77176e-05
-0.00027679
-4.76897e-05
-0.000267793
-7.86462e-05
-0.000253763
-0.000109863
-0.000234536
-0.000140237
-0.000210213
-0.000168208
-0.000181296
-0.000191723
-0.000148806
-0.000208297
-0.00011436
-0.000215185
-8.01538e-05
-0.000209711
-4.88367e-05
-0.000189701
-2.32663e-05
-0.00015396
-6.20654e-06
-0.000102628
-3.75148e-05
-6.29903e-06
4.30229e-05
-2.20067e-05
0.000109737
-4.41365e-05
0.000157377
-7.01562e-05
0.000187967
-9.80788e-05
0.00020439
-0.000126443
0.000209701
-0.000154232
0.000206676
-0.000180765
0.000197566
-0.000205595
0.000184014
-0.000228414
0.000167114
-0.000248987
0.000147531
-0.000267105
0.00012562
-0.000282547
0.000101541
-0.000295057
7.53332e-05
-0.000304321
4.69806e-05
-0.000309956
1.64669e-05
-0.000311506
-1.61682e-05
-0.000308445
-5.07505e-05
-0.000300221
-8.68702e-05
-0.000286317
-0.000123768
-0.00026636
-0.000160195
-0.000240271
-0.000194296
-0.000208452
-0.000223542
-0.000171961
-0.000244788
-0.000132645
-0.000254501
-9.31465e-05
-0.000249209
-5.67312e-05
-0.000226117
-2.69375e-05
-0.000183753
-7.12503e-06
-0.00012244
-4.46398e-05
-6.93942e-06
4.99623e-05
-2.42137e-05
0.000127011
-4.84791e-05
0.000181642
-7.69104e-05
0.000216398
-0.000107315
0.000234795
-0.000138107
0.000240494
-0.000168217
0.000236785
-0.000196953
0.000226302
-0.000223886
0.000210947
-0.000248744
0.000191972
-0.000271329
0.000170116
-0.000291469
0.000145761
-0.000308973
0.000119045
-0.000323598
8.99581e-05
-0.000335022
5.84043e-05
-0.000342819
2.42642e-05
-0.000346447
-1.254e-05
-0.000345241
-5.19568e-05
-0.000338446
-9.36649e-05
-0.000325287
-0.000136927
-0.000305092
-0.00018039
-0.00027749
-0.000221898
-0.000242662
-0.00025837
-0.000201619
-0.000285831
-0.000156426
-0.000299694
-0.000110266
-0.000295369
-6.72389e-05
-0.000269144
-3.18555e-05
-0.000219137
-8.35748e-06
-0.000145938
-5.29973e-05
-7.69462e-06
5.76569e-05
-2.67984e-05
0.000146115
-5.35274e-05
0.000208371
-8.47e-05
0.000247571
-0.000117881
0.000267975
-0.000151348
0.000273961
-0.000183974
0.000269412
-0.000215072
0.0002574
-0.000244244
0.00024012
-0.00027127
0.000218997
-0.000296011
0.000194857
-0.000318353
0.000168103
-0.000338157
0.000138849
-0.000355218
0.000107019
-0.000369228
7.24139e-05
-0.000379738
3.47751e-05
-0.000386137
-6.14186e-06
-0.000387604
-5.04891e-05
-0.000383156
-9.81129e-05
-0.000371686
-0.000148397
-0.000352108
-0.000199968
-0.000323597
-0.000250409
-0.000285931
-0.000296037
-0.000239905
-0.000331856
-0.000187724
-0.000351876
-0.000133189
-0.000349903
-8.15105e-05
-0.000320823
-3.86065e-05
-0.000262041
-1.00613e-05
-0.000174484
-6.30586e-05
-8.59052e-06
6.62475e-05
-2.98421e-05
0.000167366
-5.94202e-05
0.00023795
-9.3706e-05
0.000281857
-0.000129976
0.000304245
-0.000166357
0.000310342
-0.000201671
0.000304725
-0.000235244
0.000290973
-0.000266735
0.000271611
-0.000295995
0.000248257
-0.00032297
0.000221832
-0.000347629
0.000192763
-0.000369916
0.000161136
-0.000389696
0.000126799
-0.000406713
8.94303e-05
-0.000420529
4.85919e-05
-0.000430495
3.8239e-06
-0.000435647
-4.53371e-05
-0.000434757
-9.90035e-05
-0.000426318
-0.000156835
-0.000408699
-0.000217587
-0.000380411
-0.000278698
-0.000340556
-0.000335892
-0.00028943
-0.000382982
-0.000229172
-0.000412134
-0.000164215
-0.00041486
-0.000101198
-0.00038384
-4.8067e-05
-0.000315172
-1.24837e-05
-0.000210067
-7.55423e-05
-9.66421e-06
7.59117e-05
-3.3456e-05
0.000191158
-6.63413e-05
0.000270835
-0.000104158
0.000319674
-0.000143843
0.00034393
-0.000183354
0.000349853
-0.000221472
0.000342844
-0.000257562
0.000327063
-0.000291361
0.00030541
-0.000322821
0.000279717
-0.000351996
0.000251008
-0.000378974
0.000219741
-0.000403813
0.000185975
-0.000426495
0.00014948
-0.00044686
0.000109796
-0.000464547
6.62785e-05
-0.000478886
1.81633e-05
-0.000488871
-3.53524e-05
-0.000493007
-9.48673e-05
-0.000489357
-0.000160486
-0.000475611
-0.000231333
-0.000449375
-0.000304933
-0.000408715
-0.000376552
-0.000352986
-0.00043871
-0.000283867
-0.000481254
-0.000206259
-0.000492467
-0.000128531
-0.000461568
-6.14855e-05
-0.000382217
-1.5995e-05
-0.000255557
-9.15373e-05
-1.09705e-05
8.68822e-05
-3.77985e-05
0.000217986
-7.4542e-05
0.000307578
-0.000116358
0.00036149
-0.000159777
0.000387349
-0.000202585
0.000392661
-0.00024354
0.000383798
-0.000282073
0.000365595
-0.000318031
0.000341368
-0.000351496
0.000313182
-0.000382666
0.000282177
-0.000411774
0.000248848
-0.000439034
0.000213235
-0.000464588
0.000175034
-0.000488438
0.000133646
-0.00051036
8.82e-05
-0.000529786
3.75898e-05
-0.000545694
-1.94446e-05
-0.000556422
-8.41388e-05
-0.000559611
-0.000157297
-0.000552193
-0.000238751
-0.000530634
-0.000326492
-0.000491541
-0.000415645
-0.000432734
-0.000497517
-0.000354764
-0.000559224
-0.000262535
-0.000584697
-0.000166242
-0.000557861
-8.05161e-05
-0.000467943
-2.11194e-05
-0.000314954
-0.000112657
-1.25922e-05
9.94744e-05
-4.30975e-05
0.000248491
-8.43678e-05
0.000348849
-0.000130695
0.000407817
-0.00017814
0.000434794
-0.000224313
0.000438834
-0.000267989
0.000427474
-0.000308707
0.000406313
-0.000346465
0.000379125
-0.000381506
0.000348224
-0.000414198
0.00031487
-0.000444953
0.000279603
-0.000474176
0.000242459
-0.000502216
0.000203074
-0.000529295
0.000160725
-0.000555414
0.000114319
-0.000580206
6.23823e-05
-0.000602779
3.12784e-06
-0.000621416
-6.55018e-05
-0.000633455
-0.000145257
-0.000635093
-0.000237113
-0.000621523
-0.000340062
-0.000587509
-0.000449659
-0.00052864
-0.000556386
-0.000443385
-0.00064448
-0.000335687
-0.000692394
-0.000217172
-0.000676376
-0.000107152
-0.000577964
-2.85572e-05
-0.000393549
-0.000141214
-1.46564e-05
0.000114131
-4.9684e-05
0.000283519
-9.62902e-05
0.000395455
-0.000147665
0.000459192
-0.00019933
0.000486459
-0.000248757
0.000488261
-0.000294793
0.000473511
-0.00033715
0.00044867
-0.000376021
0.000417997
-0.000411851
0.000384053
-0.000445201
0.00034822
-0.000476685
0.000311087
-0.000506923
0.000272697
-0.000536505
0.000232655
-0.000565925
0.000190145
-0.000595486
0.00014388
-0.000625144
9.20402e-05
-0.000654251
3.22353e-05
-0.000681318
-3.84353e-05
-0.000703565
-0.00012301
-0.00071667
-0.000224008
-0.000714639
-0.000342092
-0.000690219
-0.00047408
-0.000636158
-0.000610447
-0.000547681
-0.000732957
-0.000426195
-0.000813879
-0.000283416
-0.000819155
-0.000143492
-0.000717887
-3.92035e-05
-0.000497837
-0.000180417
-1.73631e-05
0.000131494
-5.80415e-05
0.000324197
-0.000110944
0.000448358
-0.000167856
0.000516103
-0.000223722
0.000542325
-0.000275951
0.00054049
-0.000323573
0.000521133
-0.000366559
0.000491656
-0.000405362
0.0004568
-0.000440662
0.000419354
-0.00047324
0.000380798
-0.000503921
0.000341767
-0.000533548
0.000302324
-0.000562958
0.000262066
-0.00059294
0.000220126
-0.000624143
0.000175083
-0.000656928
0.000124826
-0.000691113
6.64206e-05
-0.000725594
-3.95507e-06
-0.000757909
-9.06943e-05
-0.000783644
-0.000198273
-0.000796067
-0.00032967
-0.000786161
-0.000483985
-0.000743609
-0.000652999
-0.000659315
-0.000817251
-0.000530028
-0.000943167
-0.000364854
-0.000984329
-0.00019127
-0.000891471
-5.41741e-05
-0.000634934
-0.000234592
-2.10383e-05
0.000152532
-6.88855e-05
0.000372045
-0.000129165
0.000508637
-0.000191899
0.000578837
-0.000251489
0.000601916
-0.000305458
0.000594459
-0.000353195
0.00056887
-0.000395061
0.000533521
-0.000431852
0.000493591
-0.000464533
0.000452034
-0.000494122
0.000410387
-0.000521658
0.000369303
-0.000548189
0.000328855
-0.000574776
0.000288653
-0.000602469
0.000247819
-0.000632256
0.00020487
-0.000664938
0.000157507
-0.000700898
0.000102381
-0.000739721
3.48675e-05
-0.000779629
-5.0786e-05
-0.000816868
-0.000161034
-0.000844821
-0.000301717
-0.000853607
-0.000475199
-0.000830363
-0.000676243
-0.000761192
-0.000886422
-0.000635966
-0.00106839
-0.000457066
-0.00116323
-0.000250985
-0.00109755
-7.48211e-05
-0.000811098
-0.000309413
-2.62371e-05
0.000178769
-8.3291e-05
0.000429098
-0.000152013
0.000577359
-0.000220304
0.000647127
-0.00028224
0.000663852
-0.000335799
0.000648019
-0.000381019
0.00061409
-0.000418848
0.00057135
-0.000450546
0.000525289
-0.000477428
0.000478917
-0.000500778
0.000433737
-0.000521836
0.000390362
-0.000541822
0.000348841
-0.000561954
0.000308785
-0.000583465
0.00026933
-0.000607591
0.000228996
-0.000635509
0.000185425
-0.00066818
0.000135052
-0.000706071
7.27581e-05
-0.000748436
-8.42062e-06
-0.000793075
-0.000116396
-0.00083465
-0.000260142
-0.000864008
-0.000445841
-0.000867314
-0.000672937
-0.000826609
-0.000927126
-0.000723503
-0.0011715
-0.000548841
-0.00133789
-0.000320401
-0.00132599
-0.000102616
-0.00102888
-0.000412029
-3.3951e-05
0.00021272
-0.000102897
0.000498044
-0.000180724
0.000655186
-0.000253057
0.000719461
-0.000314247
0.000725041
-0.000363363
0.000697135
-0.000401552
0.000652279
-0.000430646
0.000600444
-0.000452541
0.000547184
-0.000468995
0.00049537
-0.000481589
0.000446331
-0.000491756
0.00040053
-0.000500832
0.000357917
-0.000510098
0.000318051
-0.000520838
0.00028007
-0.000534378
0.000242536
-0.000552105
0.000203152
-0.000575426
0.000158373
-0.000605621
0.000102954
-0.000643504
2.94623e-05
-0.000688638
-7.12622e-05
-0.000738501
-0.000210278
-0.000786631
-0.000397712
-0.000820816
-0.000638752
-0.000821504
-0.000926437
-0.000762732
-0.00123027
-0.000620058
-0.00148057
-0.000392266
-0.00155378
-0.000138608
-0.00128254
-0.000550637
-4.60198e-05
0.00025874
-0.000130183
0.000582207
-0.0002164
0.000741403
-0.000288611
0.000791672
-0.000342825
0.000779255
-0.000380314
0.000734625
-0.000404047
0.000676013
-0.000417152
0.000613548
-0.000422381
0.000552413
-0.000422037
0.000495027
-0.000418025
0.000442319
-0.000411937
0.000394441
-0.00040514
0.000351119
-0.00039886
0.000311771
-0.000394273
0.000275483
-0.000392594
0.000240857
-0.000395185
0.000205742
-0.000403642
0.00016683
-0.000419845
0.000119157
-0.000445962
5.55795e-05
-0.000483739
-3.3485e-05
-0.000534149
-0.000159868
-0.000595262
-0.000336599
-0.000659601
-0.000574413
-0.000710224
-0.000875815
-0.000717413
-0.00122308
-0.000641208
-0.00155677
-0.000451604
-0.00174339
-0.000181986
-0.00155216
-0.000732623
-6.59037e-05
0.000324644
-0.000168611
0.000684915
-0.000258732
0.000831524
-0.00032126
0.000854201
-0.000356737
0.000814731
-0.000370445
0.000748333
-0.000368152
0.00067372
-0.000354767
0.000600163
-0.000334076
0.000531722
-0.000308947
0.000469898
-0.000281534
0.000414906
-0.000253462
0.00036637
-0.000225981
0.000323638
-0.000200098
0.000285887
-0.000176699
0.000252084
-0.000156692
0.000220851
-0.00014117
0.00019022
-0.000131615
0.000157275
-0.000130139
0.000117681
-0.00013972
6.51601e-05
-0.000164162
-9.04306e-06
-0.000207625
-0.000116405
-0.000273602
-0.000270623
-0.000361842
-0.000486173
-0.000463088
-0.000774568
-0.000550915
-0.00113526
-0.000575522
-0.00153216
-0.000473378
-0.00184553
-0.000227152
-0.00179838
-0.000959775
-9.97724e-05
0.000424416
-0.000221343
0.000806485
-0.000301256
0.000911437
-0.000333949
0.000886894
-0.000329808
0.00081059
-0.000300611
0.000719136
-0.000255865
0.000628974
-0.000202528
0.000546826
-0.000145166
0.00047436
-8.69149e-05
0.000411647
-2.9815e-05
0.000357806
2.48235e-05
0.000311731
7.61697e-05
0.000272292
0.00012369
0.000238367
0.00016699
0.000208784
0.000205653
0.000182188
0.000239039
0.000156833
0.000266023
0.000130291
0.00028464
9.90641e-05
0.000291661
5.81391e-05
0.000281879
7.39402e-07
0.000249165
-8.36913e-05
0.000185082
-0.000206539
8.20882e-05
-0.000383179
-6.15545e-05
-0.000630926
-0.000231961
-0.00096485
-0.000382692
-0.00138143
-0.000420761
-0.00180746
-0.000259481
-0.00195966
-0.00121926
-0.000156425
0.000580841
-0.000281883
0.000931944
-0.000314494
0.000944048
-0.000278236
0.000850636
-0.000201175
0.000733529
-0.000103279
0.00062124
2.5652e-06
0.00052313
0.000108955
0.000440436
0.000211346
0.000371969
0.000307545
0.000315447
0.000396545
0.000268806
0.000478037
0.000230239
0.000552114
0.000198215
0.000619067
0.000171414
0.000679229
0.000148622
0.000732814
0.000128603
0.000779729
0.000109918
0.000819309
9.07111e-05
0.000849947
6.84265e-05
0.000868622
3.94642e-05
0.000869397
-3.61376e-08
0.000845696
-5.99906e-05
0.000785862
-0.000146705
0.000676382
-0.000273699
0.000503727
-0.000458271
0.000264123
-0.000725246
-1.34335e-05
-0.00110388
-0.000242256
-0.00157864
-0.000253925
-0.001948
-0.00147318
-0.000235575
0.000816416
-0.000288229
0.000984598
-0.000190249
0.000846069
-2.26413e-05
0.000683027
0.000166648
0.00054424
0.000354561
0.000433326
0.0005307
0.000346991
0.000690821
0.000280315
0.00083412
0.000228669
0.000961232
0.000188336
0.00107347
0.000156563
0.00117239
0.000131322
0.00125952
0.000111084
0.00133628
9.46541e-05
0.00140386
8.10419e-05
0.00146314
6.93277e-05
0.00151452
5.85356e-05
0.00155774
4.74943e-05
0.00159149
3.46764e-05
0.00161289
1.80617e-05
0.00161771
-4.85185e-06
0.00159701
-3.92933e-05
0.00153965
-8.93499e-05
0.0014291
-0.000163143
0.00124382
-0.00027299
0.000960115
-0.000441543
0.000568914
-0.000712675
0.000137241
-0.00114697
-0.000133095
-0.00167766
-0.00160628
-0.000184238
0.00100065
4.27099e-05
0.00075765
0.000406121
0.000482657
0.000749034
0.000340115
0.00104773
0.000245547
0.00130183
0.00017922
0.00151558
0.000133243
0.00169465
0.000101245
0.0018448
7.85242e-05
0.00197111
6.20243e-05
0.00207786
4.98158e-05
0.00216854
4.06336e-05
0.00224602
3.36126e-05
0.00231253
2.81369e-05
0.00236984
2.37368e-05
0.00241915
2.00115e-05
0.00246112
1.6565e-05
0.00249567
1.29498e-05
0.00252172
8.62404e-06
0.00253682
2.95893e-06
0.00253755
-5.57652e-06
0.00251611
-1.78531e-05
0.00246241
-3.56532e-05
0.00236115
-6.18819e-05
0.00218933
-0.000101169
0.00191225
-0.000164459
0.00148241
-0.000282837
0.000880872
-0.000545431
0.000244942
-0.00104173
-0.00136133
0.00100065
0.0017583
0.00224096
0.00258108
0.00282662
0.00300584
0.00313909
0.00324033
0.00331885
0.00338088
0.00343069
0.00347133
0.00350494
0.00353308
0.00355681
0.00357683
0.00359339
0.00360634
0.00361497
0.00361792
0.00361235
0.00359449
0.00355884
0.00349696
0.00339579
0.00323133
0.00294849
0.00240306
0.00136133
)
;

boundaryField
{
    movingWall
    {
        type            calculated;
        value           uniform 0;
    }
    fixedWalls
    {
        type            calculated;
        value           uniform 0;
    }
    frontAndBack
    {
        type            empty;
        value           nonuniform 0();
    }
}


// ************************************************************************* //
