/*--------------------------------*- C++ -*----------------------------------*\
  =========                 |
  \\      /  F ield         | OpenFOAM: The Open Source CFD Toolbox
   \\    /   O peration     | Website:  https://openfoam.org
    \\  /    A nd           | Version:  7
     \\/     M anipulation  |
\*---------------------------------------------------------------------------*/
FoamFile
{
    version     2.0;
    format      ascii;
    class       volVectorField;
    location    "1";
    object      U;
}
// * * * * * * * * * * * * * * * * * * * * * * * * * * * * * * * * * * * * * //

dimensions      [0 1 -1 0 0 0 0];

internalField   nonuniform List<vector> 
900
(
(6.77327e-05 -6.7125e-05 0)
(1.4353e-05 2.98075e-05 0)
(-0.000372043 0.000140664 0)
(-0.00100166 0.00021672 0)
(-0.00178834 0.000258436 0)
(-0.00265602 0.00027463 0)
(-0.0035457 0.000273967 0)
(-0.0044164 0.000262859 0)
(-0.00524062 0.00024525 0)
(-0.00599925 0.000223202 0)
(-0.00667784 0.000197581 0)
(-0.00726417 0.000168601 0)
(-0.00774692 0.000136201 0)
(-0.00811514 0.000100272 0)
(-0.00835827 6.0797e-05 0)
(-0.00846638 1.79314e-05 0)
(-0.0084307 -2.79478e-05 0)
(-0.00824435 -7.61876e-05 0)
(-0.00790316 -0.000125796 0)
(-0.00740678 -0.000175375 0)
(-0.00675998 -0.000223016 0)
(-0.00597428 -0.000266157 0)
(-0.00507005 -0.000301397 0)
(-0.00407889 -0.000324262 0)
(-0.00304644 -0.000328968 0)
(-0.00203518 -0.000308358 0)
(-0.00112525 -0.00025462 0)
(-0.000408918 -0.000161679 0)
(1.99646e-05 -3.3711e-05 0)
(7.55145e-05 7.38318e-05 0)
(-2.754e-05 -1.59797e-05 0)
(-0.000483064 0.000482835 0)
(-0.0016265 0.000987018 0)
(-0.0032585 0.00135235 0)
(-0.00521629 0.0015697 0)
(-0.00735318 0.00166422 0)
(-0.00954379 0.00166747 0)
(-0.0116923 0.00160665 0)
(-0.0137288 0.00150114 0)
(-0.0156019 0.00136296 0)
(-0.0172719 0.00119876 0)
(-0.0187059 0.00101181 0)
(-0.019875 0.000803641 0)
(-0.020753 0.000575239 0)
(-0.0213156 0.000327787 0)
(-0.0215411 6.31869e-05 0)
(-0.0214116 -0.000215589 0)
(-0.0209139 -0.000504074 0)
(-0.0200422 -0.000796051 0)
(-0.0187998 -0.00108309 0)
(-0.0172023 -0.001354 0)
(-0.0152814 -0.00159425 0)
(-0.0130889 -0.00178526 0)
(-0.0107014 -0.00190394 0)
(-0.00822468 -0.00192284 0)
(-0.00579649 -0.00181193 0)
(-0.00358312 -0.00154404 0)
(-0.0017624 -0.00110642 0)
(-0.000511188 -0.000527727 0)
(-2.50206e-05 2.24264e-05 0)
(-0.000141384 0.00037033 0)
(-0.00101316 0.00163183 0)
(-0.00285202 0.00279054 0)
(-0.00532203 0.00363994 0)
(-0.00820269 0.00415882 0)
(-0.0113087 0.00439063 0)
(-0.0144765 0.00439787 0)
(-0.0175763 0.00423912 0)
(-0.0205102 0.00395933 0)
(-0.0232039 0.00358876 0)
(-0.0255992 0.00314581 0)
(-0.0276481 0.00264096 0)
(-0.0293091 0.00208026 0)
(-0.0305453 0.00146805 0)
(-0.0313234 0.000808873 0)
(-0.0316148 0.000108781 0)
(-0.031396 -0.000623627 0)
(-0.0306514 -0.00137625 0)
(-0.0293749 -0.00213262 0)
(-0.0275741 -0.00287084 0)
(-0.0252736 -0.00356227 0)
(-0.0225198 -0.00417023 0)
(-0.0193867 -0.00464887 0)
(-0.0159808 -0.00494294 0)
(-0.0124461 -0.00498957 0)
(-0.00896583 -0.00472448 0)
(-0.00575545 -0.00409562 0)
(-0.00303985 -0.00308747 0)
(-0.00105765 -0.00176377 0)
(-0.000140944 -0.000381824 0)
(-0.000228227 0.00102401 0)
(-0.0014479 0.00332882 0)
(-0.00388129 0.0052971 0)
(-0.00704959 0.0067201 0)
(-0.0106747 0.00758668 0)
(-0.0145418 0.00796833 0)
(-0.0184621 0.00796399 0)
(-0.0222849 0.00766782 0)
(-0.0258946 0.0071542 0)
(-0.0292026 0.00647503 0)
(-0.0321384 0.00566339 0)
(-0.0346439 0.00473928 0)
(-0.0366691 0.00371515 0)
(-0.0381696 0.00260028 0)
(-0.0391061 0.00140405 0)
(-0.0394448 0.000138231 0)
(-0.0391585 -0.00118115 0)
(-0.0382291 -0.00253218 0)
(-0.0366505 -0.00388538 0)
(-0.0344322 -0.00520177 0)
(-0.0316044 -0.00643088 0)
(-0.0282236 -0.00750864 0)
(-0.0243782 -0.00835601 0)
(-0.020195 -0.00887938 0)
(-0.0158436 -0.00897477 0)
(-0.011538 -0.00853881 0)
(-0.00752884 -0.00749023 0)
(-0.00407833 -0.00580393 0)
(-0.00148594 -0.00356154 0)
(-0.000223331 -0.00105354 0)
(-0.000288817 0.00188361 0)
(-0.00178245 0.00547127 0)
(-0.0047062 0.00837616 0)
(-0.00845286 0.0104334 0)
(-0.0126888 0.0116688 0)
(-0.0171712 0.0121961 0)
(-0.0216916 0.0121579 0)
(-0.0260846 0.0116879 0)
(-0.0302238 0.0108923 0)
(-0.0340118 0.00984643 0)
(-0.0373706 0.0085996 0)
(-0.0402357 0.0071825 0)
(-0.0425513 0.00561495 0)
(-0.0442678 0.00391203 0)
(-0.0453409 0.0020887 0)
(-0.0457324 0.000163207 0)
(-0.0454109 -0.0018401 0)
(-0.0443549 -0.00388825 0)
(-0.0425557 -0.00593698 0)
(-0.0400224 -0.00792794 0)
(-0.0367871 -0.0097857 0)
(-0.0329115 -0.011415 0)
(-0.0284939 -0.0126991 0)
(-0.0236762 -0.0135014 0)
(-0.0186485 -0.0136721 0)
(-0.0136516 -0.0130637 0)
(-0.0089684 -0.0115593 0)
(-0.00489955 -0.00911325 0)
(-0.00180416 -0.00580443 0)
(-0.000276019 -0.00192094 0)
(-0.00033137 0.00289855 0)
(-0.00204169 0.00797602 0)
(-0.00537218 0.0119361 0)
(-0.00960748 0.0146841 0)
(-0.0143622 0.0163054 0)
(-0.0193661 0.0169712 0)
(-0.0243924 0.0168765 0)
(-0.0292641 0.0161995 0)
(-0.0338475 0.0150812 0)
(-0.0380397 0.013622 0)
(-0.0417586 0.0118879 0)
(-0.0449355 0.00992101 0)
(-0.0475108 0.00774865 0)
(-0.0494306 0.00539176 0)
(-0.0506461 0.00287082 0)
(-0.0511139 0.000210514 0)
(-0.050797 -0.00255637 0)
(-0.0496682 -0.00538531 0)
(-0.0477134 -0.00821627 0)
(-0.0449374 -0.0109697 0)
(-0.0413703 -0.0135422 0)
(-0.0370754 -0.0158035 0)
(-0.0321579 -0.0175942 0)
(-0.0267727 -0.0187288 0)
(-0.0211304 -0.0190051 0)
(-0.0155007 -0.0182248 0)
(-0.0102029 -0.016227 0)
(-0.00558048 -0.0129352 0)
(-0.00205104 -0.00841196 0)
(-0.000310372 -0.00293134 0)
(-0.00036403 0.00403441 0)
(-0.00225618 0.0107813 0)
(-0.0059408 0.0159076 0)
(-0.0106105 0.0194024 0)
(-0.0158321 0.021428 0)
(-0.0213078 0.0222265 0)
(-0.026793 0.0220553 0)
(-0.0321002 0.021143 0)
(-0.03709 0.0196685 0)
(-0.0416561 0.0177586 0)
(-0.045714 0.015497 0)
(-0.0491929 0.0129368 0)
(-0.05203 0.0101125 0)
(-0.0541677 0.00705027 0)
(-0.0555523 0.00377515 0)
(-0.0561339 0.000317394 0)
(-0.0558679 -0.00328251 0)
(-0.0547182 -0.00696886 0)
(-0.0526615 -0.0106654 0)
(-0.0496939 -0.0142698 0)
(-0.0458391 -0.0176477 0)
(-0.0411586 -0.0206289 0)
(-0.0357619 -0.0230049 0)
(-0.0298172 -0.0245332 0)
(-0.0235587 -0.0249505 0)
(-0.0172905 -0.0239982 0)
(-0.0113763 -0.0214629 0)
(-0.00620955 -0.0172296 0)
(-0.00226787 -0.0113387 0)
(-0.00033651 -0.00405503 0)
(-0.000393188 0.00527429 0)
(-0.0024535 0.0138544 0)
(-0.00647151 0.0202542 0)
(-0.0115561 0.0245534 0)
(-0.0172285 0.0270045 0)
(-0.0231631 0.0279333 0)
(-0.0290973 0.0276692 0)
(-0.0348335 0.0264976 0)
(-0.0402273 0.024639 0)
(-0.0451704 0.0222484 0)
(-0.0495772 0.0194276 0)
(-0.0533757 0.0162403 0)
(-0.0565009 0.0127272 0)
(-0.0588917 0.00891821 0)
(-0.0604885 0.00484132 0)
(-0.0612335 0.000530509 0)
(-0.061072 -0.00396776 0)
(-0.0599553 -0.00858782 0)
(-0.0578462 -0.0132375 0)
(-0.0547269 -0.0177901 0)
(-0.0506095 -0.0220773 0)
(-0.0455488 -0.0258826 0)
(-0.0396565 -0.0289395 0)
(-0.0331145 -0.0309376 0)
(-0.0261853 -0.0315402 0)
(-0.0192161 -0.0304165 0)
(-0.0126259 -0.0272914 0)
(-0.00686933 -0.0220061 0)
(-0.00249007 -0.0145806 0)
(-0.000361732 -0.00528461 0)
(-0.000423286 0.0066154 0)
(-0.00265532 0.0171901 0)
(-0.00701384 0.0249716 0)
(-0.0125242 0.0301358 0)
(-0.0186613 0.0330369 0)
(-0.0250713 0.0340966 0)
(-0.0314728 0.0337259 0)
(-0.037658 0.032274 0)
(-0.0434784 0.0300073 0)
(-0.0488247 0.0271111 0)
(-0.0536114 0.0237055 0)
(-0.0577664 0.0198642 0)
(-0.0612232 0.0156328 0)
(-0.0639174 0.0110426 0)
(-0.0657831 0.00612225 0)
(-0.0667532 0.000906487 0)
(-0.0667598 -0.0045551 0)
(-0.0657376 -0.0101893 0)
(-0.06363 -0.015889 0)
(-0.0603987 -0.0215029 0)
(-0.0560371 -0.0268242 0)
(-0.0505871 -0.0315828 0)
(-0.0441583 -0.0354426 0)
(-0.0369462 -0.0380102 0)
(-0.0292468 -0.0388583 0)
(-0.0214613 -0.0375684 0)
(-0.0140797 -0.0337925 0)
(-0.00763361 -0.0273247 0)
(-0.00274637 -0.0181721 0)
(-0.000390804 -0.00663008 0)
(-0.000457272 0.00806516 0)
(-0.00287767 0.0208044 0)
(-0.00760625 0.030082 0)
(-0.0135778 0.0361757 0)
(-0.0202177 0.0395537 0)
(-0.0271416 0.040746 0)
(-0.0340487 0.0402559 0)
(-0.0407211 0.0385041 0)
(-0.0470071 0.0358075 0)
(-0.0527974 0.032384 0)
(-0.0580082 0.0283725 0)
(-0.0625688 0.023856 0)
(-0.0664126 0.0188829 0)
(-0.0694723 0.0134835 0)
(-0.0716762 0.00768336 0)
(-0.0729461 0.001514 0)
(-0.0731986 -0.00497618 0)
(-0.0723472 -0.0117104 0)
(-0.0703095 -0.0185695 0)
(-0.0670182 -0.0253774 0)
(-0.0624384 -0.0318855 0)
(-0.0565894 -0.037761 0)
(-0.0495714 -0.0425832 0)
(-0.0415911 -0.0458552 0)
(-0.0329822 -0.0470358 0)
(-0.0242134 -0.0455966 0)
(-0.0158664 -0.0411014 0)
(-0.00857387 -0.0332949 0)
(-0.00306214 -0.0221828 0)
(-0.00042697 -0.00811494 0)
(-0.000497142 0.00963823 0)
(-0.00313245 0.0247299 0)
(-0.00827836 0.0356278 0)
(-0.0147659 0.0427203 0)
(-0.0219648 0.0466031 0)
(-0.0294574 0.0479289 0)
(-0.036922 0.0473052 0)
(-0.0441309 0.0452331 0)
(-0.0509303 0.0420852 0)
(-0.0572131 0.0381148 0)
(-0.0628992 0.0334802 0)
(-0.0679214 0.0282727 0)
(-0.072215 0.0225414 0)
(-0.0757118 0.0163122 0)
(-0.0783346 0.00960307 0)
(-0.0799943 0.00243701 0)
(-0.0805897 -0.00514504 0)
(-0.0800085 -0.0130689 0)
(-0.078135 -0.0212086 0)
(-0.0748626 -0.0293656 0)
(-0.0701148 -0.0372469 0)
(-0.063874 -0.0444472 0)
(-0.0562178 -0.0504428 0)
(-0.0473561 -0.0546059 0)
(-0.0376627 -0.0562487 0)
(-0.0276886 -0.0547004 0)
(-0.0181351 -0.049414 0)
(-0.0097719 -0.0400797 0)
(-0.00346504 -0.0267191 0)
(-0.000473136 -0.00977512 0)
(-0.000544426 0.0113547 0)
(-0.00342931 0.0290121 0)
(-0.00905441 0.0416681 0)
(-0.0161286 0.049833 0)
(-0.0239567 0.0542478 0)
(-0.0320837 0.0557044 0)
(-0.0401657 0.054929 0)
(-0.0479657 0.0525129 0)
(-0.0553296 0.0488911 0)
(-0.0621551 0.0443552 0)
(-0.068369 0.0390839 0)
(-0.0739106 0.033176 0)
(-0.0787207 0.0266786 0)
(-0.0827327 0.0196095 0)
(-0.0858664 0.0119737 0)
(-0.088023 0.00377848 0)
(-0.0890824 -0.00495109 0)
(-0.0889029 -0.0141528 0)
(-0.0873273 -0.0237025 0)
(-0.084197 -0.0333853 0)
(-0.0793764 -0.042864 0)
(-0.0727897 -0.0516521 0)
(-0.0644699 -0.059101 0)
(-0.0546137 -0.0644167 0)
(-0.0436303 -0.0667183 0)
(-0.032168 -0.0651443 0)
(-0.0210843 -0.059 0)
(-0.0113376 -0.04791 0)
(-0.00399233 -0.0319337 0)
(-0.000533192 -0.0116614 0)
(-0.000600596 0.0132394 0)
(-0.00377743 0.033708 0)
(-0.00995718 0.0482757 0)
(-0.0177024 0.0575908 0)
(-0.026241 0.0625609 0)
(-0.0350757 0.0641388 0)
(-0.0438385 0.0631863 0)
(-0.0522843 0.060397 0)
(-0.0602615 0.0562756 0)
(-0.0676762 0.051156 0)
(-0.074466 0.0452384 0)
(-0.0805817 0.0386282 0)
(-0.0859737 0.0313685 0)
(-0.0905822 0.0234645 0)
(-0.0943282 0.0149019 0)
(-0.0971063 0.00566365 0)
(-0.0987789 -0.0042521 0)
(-0.0991728 -0.0148086 0)
(-0.0980819 -0.0258972 0)
(-0.0952814 -0.0372987 0)
(-0.0905539 -0.0486382 0)
(-0.0837353 -0.0593422 0)
(-0.0747801 -0.0686145 0)
(-0.0638397 -0.0754505 0)
(-0.0513416 -0.0787115 0)
(-0.0380414 -0.0772717 0)
(-0.0249977 -0.0702266 0)
(-0.0134329 -0.0571098 0)
(-0.00470078 -0.0380447 0)
(-0.000613703 -0.0138466 0)
(-0.000667454 0.0153221 0)
(-0.00418739 0.038886 0)
(-0.0110119 0.0555369 0)
(-0.0195261 0.0660821 0)
(-0.0288665 0.0716239 0)
(-0.0384864 0.0733024 0)
(-0.0479928 0.0721359 0)
(-0.0571343 0.0689353 0)
(-0.0657657 0.0642834 0)
(-0.0738061 0.058561 0)
(-0.0812096 0.0519915 0)
(-0.087944 0.0446868 0)
(-0.093976 0.0366835 0)
(-0.0992591 0.0279701 0)
(-0.103722 0.0185063 0)
(-0.107261 0.00824053 0)
(-0.109724 -0.00286995 0)
(-0.110908 -0.0148313 0)
(-0.110554 -0.0275715 0)
(-0.108355 -0.0408885 0)
(-0.103987 -0.0543856 0)
(-0.0971572 -0.0674056 0)
(-0.0876898 -0.0789849 0)
(-0.0756375 -0.0878559 0)
(-0.0614059 -0.0925347 0)
(-0.0458527 -0.0915197 0)
(-0.0302879 -0.0835915 0)
(-0.0163021 -0.0681369 0)
(-0.00567985 -0.0453683 0)
(-0.000726279 -0.0164382 0)
(-0.000747543 0.0176389 0)
(-0.00467309 0.0446282 0)
(-0.0122503 0.063553 0)
(-0.021647 0.0754069 0)
(-0.031889 0.0815239 0)
(-0.0423735 0.0832652 0)
(-0.0526812 0.0818317 0)
(-0.0625579 0.0781683 0)
(-0.0718696 0.0729468 0)
(-0.0805549 0.0666001 0)
(-0.0885909 0.0593772 0)
(-0.0959696 0.0513964 0)
(-0.102682 0.0426865 0)
(-0.108704 0.0332156 0)
(-0.113983 0.0229109 0)
(-0.118424 0.011675 0)
(-0.121875 -0.00059173 0)
(-0.124108 -0.0139588 0)
(-0.124809 -0.0284229 0)
(-0.123584 -0.0438323 0)
(-0.11997 -0.0598003 0)
(-0.113499 -0.075606 0)
(-0.103793 -0.0901096 0)
(-0.0907231 -0.101726 0)
(-0.0745943 -0.108513 0)
(-0.0563311 -0.108428 0)
(-0.0375364 -0.0997614 0)
(-0.0203052 -0.0816377 0)
(-0.00706794 -0.0543684 0)
(-0.000890805 -0.0196 0)
(-0.000844707 0.0202343 0)
(-0.00525423 0.0510348 0)
(-0.0137154 0.0724434 0)
(-0.0241264 0.085678 0)
(-0.0353783 0.0923529 0)
(-0.0468046 0.0940938 0)
(-0.0579605 0.0923165 0)
(-0.0685934 0.0881207 0)
(-0.0785881 0.0822785 0)
(-0.0879099 0.0752809 0)
(-0.0965665 0.0674052 0)
(-0.104583 0.0587774 0)
(-0.111983 0.0494181 0)
(-0.118776 0.0392729 0)
(-0.124943 0.0282308 0)
(-0.130412 0.0161394 0)
(-0.135043 0.00282453 0)
(-0.138602 -0.0118762 0)
(-0.140734 -0.0280641 0)
(-0.140948 -0.0456866 0)
(-0.138625 -0.0644217 0)
(-0.133067 -0.0835312 0)
(-0.12361 -0.101716 0)
(-0.10982 -0.117029 0)
(-0.0917746 -0.126935 0)
(-0.0703704 -0.128621 0)
(-0.0475093 -0.119602 0)
(-0.0259461 -0.0985122 0)
(-0.00906994 -0.0657219 0)
(-0.00113959 -0.0235819 0)
(-0.000964937 0.023166 0)
(-0.00595958 0.0582306 0)
(-0.0154676 0.0823511 0)
(-0.0270466 0.0970218 0)
(-0.0394235 0.104204 0)
(-0.0518609 0.105845 0)
(-0.0638912 0.103615 0)
(-0.075272 0.0987912 0)
(-0.0859156 0.0922595 0)
(-0.0958231 0.0845749 0)
(-0.105041 0.0760462 0)
(-0.113636 0.0668087 0)
(-0.121675 0.0568762 0)
(-0.129214 0.0461717 0)
(-0.136278 0.034544 0)
(-0.142842 0.0217779 0)
(-0.148801 0.00760861 0)
(-0.153938 -0.00825022 0)
(-0.157878 -0.0260481 0)
(-0.160051 -0.0458967 0)
(-0.159673 -0.0676207 0)
(-0.155775 -0.0905495 0)
(-0.147313 -0.113284 0)
(-0.133403 -0.133506 0)
(-0.113701 -0.147952 0)
(-0.0888955 -0.152736 0)
(-0.0611054 -0.144167 0)
(-0.0338755 -0.119966 0)
(-0.0119721 -0.0803946 0)
(-0.00152257 -0.0287611 0)
(-0.00111778 0.0265103 0)
(-0.00683194 0.0663754 0)
(-0.0175919 0.0934488 0)
(-0.030518 0.109579 0)
(-0.0441366 0.117168 0)
(-0.0576348 0.118557 0)
(-0.0705304 0.115719 0)
(-0.082603 0.110138 0)
(-0.0938048 0.102823 0)
(-0.104183 0.0943995 0)
(-0.113831 0.0852102 0)
(-0.122866 0.0754023 0)
(-0.131407 0.0649858 0)
(-0.139566 0.053864 0)
(-0.147431 0.0418468 0)
(-0.155042 0.0286534 0)
(-0.162356 0.0139163 0)
(-0.169209 -0.00279885 0)
(-0.175243 -0.0219372 0)
(-0.179845 -0.0438565 0)
(-0.182092 -0.0686364 0)
(-0.180734 -0.095805 0)
(-0.174275 -0.123987 0)
(-0.16123 -0.150548 0)
(-0.140592 -0.171402 0)
(-0.112543 -0.181253 0)
(-0.0791793 -0.174594 0)
(-0.0448409 -0.147512 0)
(-0.0161498 -0.0997096 0)
(-0.00211464 -0.0356902 0)
(-0.00131883 0.0303727 0)
(-0.00793591 0.0756778 0)
(-0.0202091 0.105947 0)
(-0.0346869 0.123503 0)
(-0.0496526 0.13132 0)
(-0.06422 0.132231 0)
(-0.0779089 0.128571 0)
(-0.0905399 0.122054 0)
(-0.102121 0.113829 0)
(-0.112757 0.10459 0)
(-0.122598 0.0947161 0)
(-0.131816 0.0843688 0)
(-0.14059 0.0735579 0)
(-0.149098 0.0621736 0)
(-0.157498 0.0499932 0)
(-0.165913 0.0366746 0)
(-0.174395 0.0217458 0)
(-0.182862 0.0046071 0)
(-0.191031 -0.0154292 0)
(-0.198317 -0.0390423 0)
(-0.203719 -0.0666955 0)
(-0.205753 -0.0982907 0)
(-0.202472 -0.132676 0)
(-0.191682 -0.167065 0)
(-0.171468 -0.196566 0)
(-0.141102 -0.214177 0)
(-0.102181 -0.211829 0)
(-0.0595473 -0.18284 0)
(-0.0220654 -0.125372 0)
(-0.00302912 -0.0451523 0)
(-0.00159455 0.0349038 0)
(-0.00937068 0.0864154 0)
(-0.0234898 0.120099 0)
(-0.0397409 0.138946 0)
(-0.0561191 0.146695 0)
(-0.0716818 0.146799 0)
(-0.0859823 0.14202 0)
(-0.0989115 0.134333 0)
(-0.110555 0.125023 0)
(-0.121089 0.114858 0)
(-0.130729 0.104249 0)
(-0.139706 0.0933706 0)
(-0.148262 0.0822378 0)
(-0.156639 0.0707352 0)
(-0.165073 0.058619 0)
(-0.173778 0.045498 0)
(-0.182913 0.0308058 0)
(-0.192524 0.0137771 0)
(-0.202457 -0.00654559 0)
(-0.212237 -0.0312272 0)
(-0.220912 -0.0612312 0)
(-0.226898 -0.0970353 0)
(-0.227908 -0.137981 0)
(-0.221063 -0.181432 0)
(-0.203375 -0.221901 0)
(-0.172761 -0.250583 0)
(-0.129579 -0.25611 0)
(-0.0783881 -0.227469 0)
(-0.0302521 -0.1594 0)
(-0.00444376 -0.058224 0)
(-0.00199178 0.0403264 0)
(-0.0112926 0.0989612 0)
(-0.0276748 0.136202 0)
(-0.0459092 0.156035 0)
(-0.063665 0.163243 0)
(-0.0799911 0.162068 0)
(-0.0945305 0.15577 0)
(-0.10729 0.1466 0)
(-0.118464 0.13598 0)
(-0.128318 0.124736 0)
(-0.13714 0.113303 0)
(-0.145226 0.101868 0)
(-0.152875 0.0904495 0)
(-0.16039 0.0789351 0)
(-0.168073 0.0670725 0)
(-0.176223 0.0544408 0)
(-0.185108 0.0404019 0)
(-0.194919 0.0240469 0)
(-0.205684 0.00416218 0)
(-0.21713 -0.0207304 0)
(-0.228515 -0.0521727 0)
(-0.238391 -0.0913967 0)
(-0.244392 -0.138542 0)
(-0.243184 -0.191555 0)
(-0.230753 -0.244842 0)
(-0.203328 -0.288087 0)
(-0.159119 -0.306207 0)
(-0.100994 -0.282068 0)
(-0.041258 -0.203865 0)
(-0.00664417 -0.0763482 0)
(-0.00259797 0.046984 0)
(-0.0139565 0.113819 0)
(-0.0331033 0.154579 0)
(-0.0534463 0.174802 0)
(-0.0723261 0.180737 0)
(-0.0888895 0.177618 0)
(-0.102968 0.16927 0)
(-0.114755 0.158222 0)
(-0.124595 0.146009 0)
(-0.13287 0.133493 0)
(-0.139956 0.121114 0)
(-0.146211 0.10906 0)
(-0.151988 0.0973497 0)
(-0.157633 0.0858742 0)
(-0.163496 0.0743835 0)
(-0.169934 0.0624486 0)
(-0.177299 0.0493941 0)
(-0.185917 0.0342147 0)
(-0.196017 0.0154985 0)
(-0.207605 -0.00859327 0)
(-0.220319 -0.0402099 0)
(-0.233138 -0.0813998 0)
(-0.244024 -0.133367 0)
(-0.249668 -0.195155 0)
(-0.245415 -0.261839 0)
(-0.225803 -0.32246 0)
(-0.186092 -0.358548 0)
(-0.12557 -0.345403 0)
(-0.0554715 -0.260331 0)
(-0.0100723 -0.101403 0)
(-0.00358416 0.0554321 0)
(-0.0177917 0.131664 0)
(-0.0402461 0.175513 0)
(-0.0625706 0.195054 0)
(-0.0818754 0.198603 0)
(-0.0976206 0.192626 0)
(-0.109991 0.181554 0)
(-0.119472 0.168155 0)
(-0.126626 0.154031 0)
(-0.131983 0.140035 0)
(-0.136024 0.126584 0)
(-0.139175 0.113842 0)
(-0.14183 0.101813 0)
(-0.144359 0.0903839 0)
(-0.147127 0.0793091 0)
(-0.150505 0.0681682 0)
(-0.154883 0.0562866 0)
(-0.160669 0.0426291 0)
(-0.168269 0.025684 0)
(-0.178015 0.00337746 0)
(-0.19002 -0.0269122 0)
(-0.20393 -0.0680018 0)
(-0.218537 -0.122266 0)
(-0.231229 -0.190302 0)
(-0.237487 -0.26882 0)
(-0.230716 -0.347699 0)
(-0.20297 -0.40658 0)
(-0.148116 -0.413044 0)
(-0.0726853 -0.3288 0)
(-0.0153266 -0.135692 0)
(-0.00529575 0.0666185 0)
(-0.0235392 0.153376 0)
(-0.0497168 0.199082 0)
(-0.0732772 0.21609 0)
(-0.0914404 0.21562 0)
(-0.104389 0.205585 0)
(-0.112925 0.190987 0)
(-0.117981 0.174742 0)
(-0.120418 0.15842 0)
(-0.120963 0.142802 0)
(-0.120213 0.128228 0)
(-0.118662 0.114799 0)
(-0.116727 0.102476 0)
(-0.114774 0.0911218 0)
(-0.113138 0.0804847 0)
(-0.112159 0.0701595 0)
(-0.112198 0.0595035 0)
(-0.113678 0.0475209 0)
(-0.117102 0.0327214 0)
(-0.123064 0.0129856 0)
(-0.132164 -0.014496 0)
(-0.144855 -0.0530977 0)
(-0.161096 -0.106204 0)
(-0.179678 -0.176155 0)
(-0.197301 -0.262182 0)
(-0.207483 -0.356917 0)
(-0.199828 -0.440929 0)
(-0.161845 -0.476322 0)
(-0.0912535 -0.406092 0)
(-0.022978 -0.181607 0)
(-0.00842972 0.0822412 0)
(-0.0324608 0.180004 0)
(-0.0621332 0.224744 0)
(-0.0847651 0.23617 0)
(-0.0985871 0.229398 0)
(-0.105225 0.213858 0)
(-0.106486 0.194931 0)
(-0.10394 0.175477 0)
(-0.0988316 0.156873 0)
(-0.0921026 0.139716 0)
(-0.0844576 0.124195 0)
(-0.0764251 0.11029 0)
(-0.068406 0.0978795 0)
(-0.0607144 0.086769 0)
(-0.053613 0.0766837 0)
(-0.0473497 0.0672276 0)
(-0.0422007 0.0578086 0)
(-0.0385233 0.0475269 0)
(-0.0368207 0.0350317 0)
(-0.0378148 0.0183674 0)
(-0.0424905 -0.00515712 0)
(-0.0520119 -0.0390541 0)
(-0.0675532 -0.0872533 0)
(-0.0897502 -0.15357 0)
(-0.117578 -0.240139 0)
(-0.146458 -0.344111 0)
(-0.165655 -0.450835 0)
(-0.157146 -0.522284 0)
(-0.10682 -0.483877 0)
(-0.03294 -0.240675 0)
(-0.0142979 0.10541 0)
(-0.0464608 0.212414 0)
(-0.077266 0.250425 0)
(-0.0936616 0.251542 0)
(-0.0970141 0.235594 0)
(-0.091505 0.213138 0)
(-0.0803718 0.189434 0)
(-0.0659523 0.166907 0)
(-0.0498576 0.146456 0)
(-0.0331517 0.128348 0)
(-0.0165477 0.112508 0)
(-0.000503877 0.0987355 0)
(0.0146887 0.0867797 0)
(0.0288463 0.0763631 0)
(0.0418461 0.0671698 0)
(0.0535821 0.0588077 0)
(0.0639153 0.0507437 0)
(0.0726089 0.0422094 0)
(0.0792453 0.0320764 0)
(0.0831058 0.0187113 0)
(0.0829863 -0.000178317 0)
(0.0773135 -0.0277494 0)
(0.0639802 -0.0678414 0)
(0.0405972 -0.124971 0)
(0.00540728 -0.203653 0)
(-0.0406656 -0.306275 0)
(-0.0899199 -0.426768 0)
(-0.121969 -0.53506 0)
(-0.110934 -0.547337 0)
(-0.0431051 -0.312521 0)
(-0.024818 0.141836 0)
(-0.0669256 0.24937 0)
(-0.090118 0.269978 0)
(-0.0884665 0.254412 0)
(-0.0706783 0.22664 0)
(-0.0445409 0.196888 0)
(-0.0146894 0.169219 0)
(0.0160553 0.14492 0)
(0.0460861 0.124116 0)
(0.0745821 0.10651 0)
(0.101098 0.0916811 0)
(0.125469 0.0792037 0)
(0.147684 0.0686863 0)
(0.16781 0.059769 0)
(0.185945 0.0521015 0)
(0.202177 0.0453056 0)
(0.216535 0.0389219 0)
(0.228925 0.0323354 0)
(0.239051 0.0246791 0)
(0.246283 0.0147121 0)
(0.249351 0.000692993 0)
(0.24659 -0.0196374 0)
(0.235373 -0.0495503 0)
(0.21216 -0.0932125 0)
(0.172878 -0.156046 0)
(0.114131 -0.244625 0)
(0.0370745 -0.363334 0)
(-0.0416309 -0.498225 0)
(-0.0903111 -0.575332 0)
(-0.0473295 -0.39395 0)
(-0.0399215 0.20258 0)
(-0.0864422 0.280904 0)
(-0.0752723 0.265418 0)
(-0.0333879 0.228051 0)
(0.0198144 0.189625 0)
(0.074779 0.155977 0)
(0.127313 0.128223 0)
(0.175564 0.105802 0)
(0.218949 0.0878168 0)
(0.257535 0.0733609 0)
(0.291647 0.0617006 0)
(0.321717 0.0522516 0)
(0.348198 0.0445473 0)
(0.371519 0.0382061 0)
(0.39206 0.032897 0)
(0.41012 0.0283013 0)
(0.425892 0.0240696 0)
(0.439407 0.0197704 0)
(0.450462 0.014826 0)
(0.458504 0.00842946 0)
(0.462493 -0.000547829 0)
(0.46074 -0.013444 0)
(0.450373 -0.0324239 0)
(0.427564 -0.0604297 0)
(0.386967 -0.101924 0)
(0.32179 -0.164562 0)
(0.226346 -0.260918 0)
(0.103996 -0.399882 0)
(-0.0247343 -0.541139 0)
(-0.0306195 -0.466665 0)
(-0.0329186 0.296078 0)
(-0.0436599 0.277648 0)
(0.0614926 0.204412 0)
(0.166789 0.152638 0)
(0.259164 0.115079 0)
(0.33813 0.0873283 0)
(0.404794 0.0670931 0)
(0.460649 0.052342 0)
(0.507382 0.0414578 0)
(0.546594 0.0332976 0)
(0.579645 0.0270946 0)
(0.607645 0.0223213 0)
(0.631497 0.0186017 0)
(0.651927 0.0156577 0)
(0.669503 0.0132703 0)
(0.684649 0.0112479 0)
(0.697635 0.0093978 0)
(0.708547 0.00749808 0)
(0.717238 0.00526923 0)
(0.723223 0.00234452 0)
(0.725674 -0.00174017 0)
(0.723105 -0.00774589 0)
(0.712991 -0.0165877 0)
(0.691829 -0.0296067 0)
(0.654397 -0.0490791 0)
(0.592815 -0.0798598 0)
(0.495725 -0.134312 0)
(0.348941 -0.239594 0)
(0.134852 -0.405991 0)
(0.0559701 -0.457425 0)
(0.303623 0.181074 0)
(0.384454 0.145376 0)
(0.565372 0.0925903 0)
(0.693665 0.060115 0)
(0.777452 0.0398421 0)
(0.83645 0.0266305 0)
(0.880108 0.0180589 0)
(0.913046 0.0125279 0)
(0.938312 0.00892097 0)
(0.958072 0.00652277 0)
(0.973816 0.00489614 0)
(0.986569 0.00377145 0)
(0.997051 0.00297761 0)
(1.00578 0.00240235 0)
(1.01312 0.00196765 0)
(1.01932 0.00161313 0)
(1.02451 0.00128419 0)
(1.02872 0.000922704 0)
(1.03181 0.000461074 0)
(1.0335 -0.000185405 0)
(1.03322 -0.001079 0)
(1.03004 -0.0024622 0)
(1.02263 -0.00454109 0)
(1.00905 -0.00758275 0)
(0.986252 -0.0120929 0)
(0.949123 -0.019305 0)
(0.887179 -0.0327794 0)
(0.778784 -0.0644705 0)
(0.545716 -0.140276 0)
(0.382544 -0.202377 0)
)
;

boundaryField
{
    movingWall
    {
        type            fixedValue;
        value           uniform (1.2 0 0);
    }
    fixedWalls
    {
        type            noSlip;
    }
    frontAndBack
    {
        type            empty;
    }
}


// ************************************************************************* //
