/*--------------------------------*- C++ -*----------------------------------*\
  =========                 |
  \\      /  F ield         | OpenFOAM: The Open Source CFD Toolbox
   \\    /   O peration     | Website:  https://openfoam.org
    \\  /    A nd           | Version:  7
     \\/     M anipulation  |
\*---------------------------------------------------------------------------*/
FoamFile
{
    version     2.0;
    format      ascii;
    class       volScalarField;
    location    "0.9";
    object      p;
}
// * * * * * * * * * * * * * * * * * * * * * * * * * * * * * * * * * * * * * //

dimensions      [0 2 -2 0 0 0 0];

internalField   nonuniform List<scalar> 
900
(
-4.21288e-09
-0.000247021
-0.000499554
-0.000679059
-0.000730843
-0.000630481
-0.00037392
3.34708e-05
0.000582727
0.00126361
0.00206523
0.00297581
0.00398224
0.00506949
0.00622025
0.00741459
0.0086299
0.00984094
0.0110201
0.012138
0.013164
0.0140674
0.014819
0.0153927
0.015769
0.0159389
0.015911
0.0157222
0.0154447
0.0151742
0.000244105
-5.40278e-06
-0.000188742
-0.000293383
-0.000293242
-0.000167723
9.03996e-05
0.000480688
0.000998858
0.00163824
0.00239034
0.00324495
0.00418999
0.00521124
0.00629211
0.00741347
0.00855369
0.00968874
0.0107926
0.0118376
0.012796
0.0136401
0.014345
0.0148899
0.0152612
0.0154553
0.0154834
0.0153773
0.0151771
0.0149063
0.00050175
0.000171645
-1.69685e-05
-0.000102873
-8.60263e-05
4.81217e-05
0.00030535
0.000685717
0.00118647
0.00180266
0.00252729
0.0033514
0.00426388
0.00525133
0.00629784
0.00738489
0.00849149
0.00959409
0.0106672
0.011684
0.0126172
0.0134403
0.0141293
0.0146651
0.0150353
0.0152365
0.0152789
0.0151884
0.0149795
0.0146238
0.000693848
0.000267411
4.6087e-05
-4.62825e-05
-2.97834e-05
0.000104222
0.000358592
0.000732229
0.0012226
0.00182561
0.00253535
0.00334389
0.00424109
0.00521435
0.00624842
0.00732528
0.00842421
0.0095218
0.0105925
0.0116091
0.0125439
0.01337
0.0140627
0.0146022
0.0149751
0.0151767
0.0152144
0.0151099
0.01486
0.014402
0.000760279
0.000247761
-1.03392e-05
-0.00011758
-0.000108356
2.15561e-05
0.000272355
0.000641607
0.00112665
0.00172393
0.00242839
0.00323305
0.00412866
0.00510339
0.00614259
0.0072286
0.00834077
0.00945542
0.0105463
0.0115853
0.0125433
0.0133915
0.0141038
0.0146583
0.0150396
0.0152409
0.0152676
0.0151392
0.0148425
0.0142919
0.00066626
8.0493e-05
-0.000213622
-0.000339222
-0.000340499
-0.000216177
3.18893e-05
0.000400108
0.000885612
0.00148527
0.00219474
0.00300789
0.00391635
0.00490902
0.00597178
0.0070872
0.00823448
0.00938926
0.0105242
0.0116092
0.012613
0.0135041
0.0142533
0.0148356
0.0152331
0.0154366
0.0154502
0.0152934
0.0149484
0.0143159
0.000394131
-0.000255824
-0.000584352
-0.000729338
-0.000741956
-0.000622823
-0.000375313
-3.92486e-06
0.000488335
0.00109873
0.00182362
0.00265775
0.00359359
0.00462081
0.00572582
0.00689133
0.00809618
0.00931507
0.0105189
0.0116752
0.0127493
0.0137058
0.0145112
0.0151366
0.0155604
0.0157707
0.0157714
0.0155838
0.0151891
0.014479
-6.67121e-05
-0.000777127
-0.00113916
-0.00130345
-0.00132686
-0.0012113
-0.000961323
-0.000582121
-7.67345e-05
0.000552565
0.00130293
0.00217003
0.00314732
0.00422533
0.00539106
0.00662742
0.00791278
0.0092207
0.0105199
0.0117747
0.012946
0.0139934
0.0148777
0.0155642
0.0160269
0.0162511
0.0162403
0.0160195
0.0155712
0.0147801
-0.000725659
-0.00149799
-0.00189417
-0.00207765
-0.00211083
-0.00199674
-0.00174095
-0.00134927
-0.000824675
-0.000168844
0.000616304
0.00152757
0.00255958
0.00370394
0.00494847
0.00627643
0.00766587
0.00908904
0.0105121
0.0118956
0.013195
0.0143632
0.0153534
0.0161236
0.0166414
0.0168884
0.0168684
0.016611
0.0161016
0.015218
-0.00159383
-0.00243386
-0.00286651
-0.00306956
-0.00311161
-0.00299689
-0.00273212
-0.00232372
-0.00177454
-0.00108551
-0.000257436
0.000707894
0.0018066
0.00303173
0.00437232
0.00581236
0.00732985
0.00889591
0.0104741
0.0120203
0.0134837
0.0148084
0.0159381
0.0168205
0.0174147
0.0176968
0.0176704
0.0173713
0.0167889
0.0157931
-0.00268561
-0.00360256
-0.00407558
-0.00429928
-0.00434966
-0.00423258
-0.00395615
-0.00352758
-0.00294954
-0.0022221
-0.00134465
-0.000317232
0.000858205
0.00217669
0.00362905
0.00520067
0.00687009
0.00860782
0.0103749
0.0121224
0.0137917
0.0153168
0.0166281
0.0176602
0.0183594
0.0186937
0.0186652
0.0183172
0.0176446
0.0165077
-0.00401942
-0.00502551
-0.00554417
-0.00579025
-0.0058489
-0.0057282
-0.00543814
-0.00498701
-0.00437733
-0.00360813
-0.00267711
-0.00158214
-0.000322698
0.00109891
0.00267616
0.00439673
0.00624079
0.00817918
0.0101711
0.0121629
0.0140876
0.0158663
0.0174134
0.0186446
0.0194886
0.0199
0.0198769
0.0194711
0.0186844
0.0173652
-0.00561828
-0.00672858
-0.00729946
-0.0075702
-0.00763737
-0.00751222
-0.00720733
-0.00673244
-0.00609005
-0.00527803
-0.00429205
-0.0031274
-0.00178041
-0.000249937
0.00146119
0.00334431
0.00538266
0.00754915
0.0098026
0.0120856
0.0143225
0.0164201
0.0182719
0.019769
0.020814
0.0213402
0.0213367
0.0208631
0.0199295
0.0183694
-0.00751037
-0.00874319
-0.00937409
-0.00967203
-0.00974798
-0.00961766
-0.00929727
-0.00879858
-0.00812425
-0.00727088
-0.00623188
-0.00499948
-0.00356629
-0.00192678
-7.88401e-05
0.00197412
0.00422045
0.00663791
0.00918731
0.0118099
0.0144227
0.016917
0.0191617
0.0210147
0.0223415
0.0230415
0.0230843
0.0225347
0.0214104
0.0195244
-0.00972987
-0.0111076
-0.0118075
-0.0121349
-0.0122192
-0.0120826
-0.011746
-0.0112243
-0.0105205
-0.00962985
-0.0085434
-0.00724997
-0.0057379
-0.00399643
-0.00201728
0.000203264
0.00266108
0.00534305
0.00821535
0.0112225
0.014278
0.0172588
0.0200066
0.0223371
0.0240633
0.0250303
0.0251705
0.0245441
0.0231723
0.0208363
-0.0123184
-0.0138689
-0.0146477
-0.0150057
-0.0150962
-0.0149503
-0.0145962
-0.0140523
-0.0133225
-0.012401
-0.0112763
-0.00993368
-0.00835693
-0.00652953
-0.00443593
-0.00206324
0.000596058
0.00353766
0.00674359
0.0101678
0.0137275
0.0172918
0.0206754
0.0236447
0.0259403
0.0273238
0.0276573
0.0269749
0.0252863
0.0223194
-0.0153273
-0.0170858
-0.017954
-0.0183408
-0.0184315
-0.0182703
-0.0178946
-0.017328
-0.0165758
-0.0156313
-0.0144805
-0.0131054
-0.0114853
-0.00959805
-0.00742036
-0.00492902
-0.00210308
0.00107053
0.00459328
0.00843996
0.0125448
0.0167825
0.0209509
0.0247648
0.0278723
0.0299092
0.030613
0.0299452
0.0278667
0.0240112
-0.0188218
-0.0208338
-0.0218011
-0.0222091
-0.022287
-0.0220978
-0.0216915
-0.0210983
-0.0203255
-0.0193654
-0.0182019
-0.0168143
-0.0151785
-0.0132671
-0.0110501
-0.00849398
-0.00556287
-0.00222209
0.00155693
0.00578328
0.0104279
0.0153956
0.0204921
0.0253947
0.0296461
0.0327034
0.0340938
0.033616
0.031098
0.0260013
-0.0228878
-0.0252124
-0.0262848
-0.0266951
-0.0267349
-0.0264941
-0.0260393
-0.0254089
-0.0246121
-0.0236403
-0.0224758
-0.021096
-0.0194748
-0.0175822
-0.0153832
-0.0128365
-0.00989232
-0.00649334
-0.00257756
0.00191291
0.00701003
0.012687
0.0188049
0.0250475
0.0308643
0.0354838
0.0380999
0.0381886
0.0352712
0.0284834
-0.0276437
-0.0303574
-0.0315309
-0.0319035
-0.0318585
-0.0315242
-0.0309886
-0.0302988
-0.029465
-0.0284772
-0.0273163
-0.0259592
-0.02438
-0.0225493
-0.0204319
-0.017983
-0.0151445
-0.0118401
-0.00797185
-0.00342586
0.00191855
0.00815091
0.0152623
0.023032
0.030884
0.0378023
0.0425039
0.0438853
0.0408302
0.0318467
-0.0332616
-0.0364612
-0.0377077
-0.037964
-0.0377513
-0.0372524
-0.0365805
-0.0357902
-0.0348903
-0.0338675
-0.032701
-0.0313681
-0.0298459
-0.0281099
-0.0261305
-0.0238675
-0.0212634
-0.0182325
-0.0146483
-0.0103444
-0.00509034
0.00136839
0.00924584
0.0185576
0.028855
0.0389554
0.0469885
0.0509231
0.0484359
0.0368412
-0.0400071
-0.0438056
-0.0450432
-0.0450335
-0.0445096
-0.0437288
-0.0428298
-0.0418696
-0.0408499
-0.0397503
-0.0385464
-0.0372164
-0.035743
-0.0341105
-0.0323013
-0.030289
-0.0280284
-0.0254419
-0.0223941
-0.0186563
-0.0139166
-0.00771375
0.000478914
0.0110821
0.0240174
0.038171
0.0511234
0.0595511
0.0590737
0.0448823
-0.0483165
-0.0528165
-0.0538457
-0.0532903
-0.0522112
-0.0509591
-0.0496902
-0.0484504
-0.0472234
-0.0459745
-0.0446721
-0.0432944
-0.0418299
-0.0402747
-0.0386279
-0.036884
-0.0350212
-0.0329826
-0.0306406
-0.0277428
-0.0239015
-0.0184511
-0.0105015
0.000913723
0.0163628
0.0352034
0.0547827
0.0702983
0.0742848
0.0585995
-0.0589576
-0.0641527
-0.0645193
-0.0629042
-0.0608632
-0.0588432
-0.0569882
-0.0553065
-0.0537446
-0.0522415
-0.0507515
-0.0492485
-0.0477247
-0.0461871
-0.0446519
-0.0431361
-0.0416445
-0.0401465
-0.0385396
-0.036583
-0.033772
-0.0293236
-0.0219868
-0.0101977
0.00745274
0.0312655
0.0589748
0.0845655
0.096661
0.0827208
-0.0733863
-0.0788422
-0.0775374
-0.0739411
-0.0702833
-0.0670498
-0.064302
-0.0619613
-0.0599047
-0.0580255
-0.0562508
-0.0545414
-0.0528867
-0.0512983
-0.0498031
-0.0484337
-0.0472135
-0.0461298
-0.0450896
-0.0438442
-0.0418579
-0.0381726
-0.031256
-0.019009
0.000741774
0.0297243
0.0667198
0.10546
0.130658
0.125057
-0.0945845
-0.0984836
-0.0932832
-0.0861184
-0.0798518
-0.0747864
-0.0707598
-0.0675229
-0.0648272
-0.0624869
-0.0603794
-0.058436
-0.0566301
-0.0549663
-0.0534697
-0.0521731
-0.0510993
-0.050229
-0.049448
-0.0484655
-0.046689
-0.0429501
-0.0354999
-0.0217287
0.000635213
0.0356428
0.0831156
0.138349
0.183212
0.196558
-0.128995
-0.125469
-0.111762
-0.0984777
-0.0882164
-0.0805631
-0.0748818
-0.0706077
-0.0672601
-0.0645211
-0.0621788
-0.0601101
-0.0582552
-0.0565973
-0.0551454
-0.0539151
-0.052905
-0.052058
-0.0512003
-0.0499605
-0.0476585
-0.0427534
-0.0334122
-0.0166843
0.010993
0.0536615
0.113693
0.18989
0.262897
0.311666
-0.191331
-0.161897
-0.13194
-0.108983
-0.0930514
-0.0821571
-0.0747593
-0.0696488
-0.0659732
-0.0631833
-0.0609397
-0.0590456
-0.057398
-0.0559526
-0.0546954
-0.0536158
-0.0526736
-0.051752
-0.050586
-0.0486544
-0.0450329
-0.0383347
-0.0260009
-0.00469105
0.0300118
0.0833405
0.16039
0.262597
0.377124
0.500688
-0.323806
-0.202363
-0.144004
-0.108896
-0.0873518
-0.0744316
-0.0668383
-0.0623062
-0.0594638
-0.057545
-0.0561252
-0.0549728
-0.0539731
-0.0530788
-0.0522729
-0.0515335
-0.0507955
-0.0498969
-0.0485001
-0.0459786
-0.0412481
-0.032772
-0.0177951
0.00752618
0.0485396
0.112485
0.208696
0.347313
0.534118
0.824162
-0.649113
-0.237141
-0.111417
-0.0729171
-0.0549584
-0.0465033
-0.0437497
-0.0436297
-0.0444099
-0.0453651
-0.0462158
-0.0468604
-0.0472851
-0.0475205
-0.0476064
-0.0475602
-0.0473413
-0.0468014
-0.0456161
-0.0431914
-0.0385318
-0.0298588
-0.0145515
0.0111449
0.0528764
0.119396
0.225764
0.402262
0.706066
1.3001
)
;

boundaryField
{
    movingWall
    {
        type            zeroGradient;
    }
    fixedWalls
    {
        type            zeroGradient;
    }
    frontAndBack
    {
        type            empty;
    }
}


// ************************************************************************* //
