/*--------------------------------*- C++ -*----------------------------------*\
  =========                 |
  \\      /  F ield         | OpenFOAM: The Open Source CFD Toolbox
   \\    /   O peration     | Website:  https://openfoam.org
    \\  /    A nd           | Version:  7
     \\/     M anipulation  |
\*---------------------------------------------------------------------------*/
FoamFile
{
    version     2.0;
    format      ascii;
    class       surfaceScalarField;
    location    "0.9";
    object      phi;
}
// * * * * * * * * * * * * * * * * * * * * * * * * * * * * * * * * * * * * * //

dimensions      [0 3 -1 0 0 0 0];

internalField   nonuniform List<scalar> 
1740
(
1.68195e-07
-1.68194e-07
-6.74852e-07
8.43047e-07
-2.52079e-06
1.84593e-06
-5.05641e-06
2.53562e-06
-7.97464e-06
2.91822e-06
-1.10371e-05
3.06242e-06
-1.40769e-05
3.03988e-06
-1.69837e-05
2.90673e-06
-1.96835e-05
2.69981e-06
-2.21237e-05
2.44019e-06
-2.42621e-05
2.13848e-06
-2.60615e-05
1.7994e-06
-2.74865e-05
1.425e-06
-2.85032e-05
1.01671e-06
-2.90797e-05
5.76496e-07
-2.91873e-05
1.07596e-07
-2.88023e-05
-3.85076e-07
-2.79078e-05
-8.944e-07
-2.64972e-05
-1.41065e-06
-2.45763e-05
-1.92085e-06
-2.21686e-05
-2.4077e-06
-1.93205e-05
-2.84818e-06
-1.6109e-05
-3.2115e-06
-1.26522e-05
-3.45678e-06
-9.12113e-06
-3.53107e-06
-5.75116e-06
-3.36997e-06
-2.84561e-06
-2.90555e-06
-7.58478e-07
-2.08713e-06
1.8183e-07
-9.40311e-07
1.8183e-07
-8.37773e-07
6.69578e-07
-3.8449e-06
3.85018e-06
-8.78214e-06
6.78317e-06
-1.51065e-05
8.85998e-06
-2.22524e-05
1.00641e-05
-2.97345e-05
1.05445e-05
-3.71787e-05
1.04841e-05
-4.43131e-05
1.00411e-05
-5.09424e-05
9.32916e-06
-5.6922e-05
8.41978e-06
-6.21374e-05
7.35392e-06
-6.64917e-05
6.15364e-06
-6.98981e-05
4.83143e-06
-7.2278e-05
3.39659e-06
-7.35608e-05
1.85929e-06
-7.36863e-05
2.33096e-07
-7.2608e-05
-1.46337e-06
-7.02977e-05
-3.20465e-06
-6.67518e-05
-4.95662e-06
-6.19981e-05
-6.67452e-06
-5.61063e-05
-8.29946e-06
-4.92004e-05
-9.75414e-06
-4.14743e-05
-1.09376e-05
-3.3211e-05
-1.17201e-05
-2.47996e-05
-1.19424e-05
-1.67455e-05
-1.14241e-05
-9.65587e-06
-9.9952e-06
-4.18292e-06
-7.56008e-06
-8.98408e-07
-4.22482e-06
-7.16579e-07
-1.88563e-06
2.55521e-06
-6.94271e-06
8.90724e-06
-1.4505e-05
1.43454e-05
-2.3829e-05
1.8184e-05
-3.4188e-05
2.04232e-05
-4.49563e-05
2.13128e-05
-5.56381e-05
2.11659e-05
-6.586e-05
2.02631e-05
-7.53448e-05
1.88139e-05
-8.38822e-05
1.69572e-05
-9.13053e-05
1.4777e-05
-9.74741e-05
1.23225e-05
-0.000102267
9.624e-06
-0.000105575
6.70467e-06
-0.000107304
3.58838e-06
-0.000107376
3.05111e-07
-0.000105732
-3.10692e-06
-0.000102342
-6.59494e-06
-9.72079e-05
-1.00908e-05
-9.03773e-05
-1.3505e-05
-8.19557e-05
-1.67211e-05
-7.21225e-05
-1.95874e-05
-6.1151e-05
-2.1909e-05
-4.94301e-05
-2.34411e-05
-3.74817e-05
-2.38908e-05
-2.59665e-05
-2.29392e-05
-1.56638e-05
-2.0298e-05
-7.40887e-06
-1.5815e-05
-1.9811e-06
-9.65258e-06
-2.69768e-06
-2.70108e-06
5.2563e-06
-9.45452e-06
1.56607e-05
-1.91822e-05
2.4073e-05
-3.091e-05
2.99119e-05
-4.3771e-05
3.32841e-05
-5.7041e-05
3.45828e-05
-7.01491e-05
3.42739e-05
-8.26606e-05
3.27746e-05
-9.42479e-05
3.04013e-05
-0.000104659
2.73687e-05
-0.000113694
2.38116e-05
-0.000121183
1.98117e-05
-0.000126981
1.54219e-05
-0.00013096
1.06832e-05
-0.000133008
5.63691e-06
-0.000133036
3.32823e-07
-0.000130976
-5.16693e-06
-0.000126793
-1.07774e-05
-0.000120495
-1.63897e-05
-0.000112138
-2.18612e-05
-0.000101853
-2.70069e-05
-8.98527e-05
-3.15874e-05
-7.64636e-05
-3.5298e-05
-6.21432e-05
-3.77615e-05
-4.74999e-05
-3.85341e-05
-3.32991e-05
-3.71401e-05
-2.04457e-05
-3.31514e-05
-9.93552e-06
-2.63251e-05
-2.78311e-06
-1.6805e-05
-5.48079e-06
-3.2965e-06
8.5528e-06
-1.13932e-05
2.37574e-05
-2.28736e-05
3.55534e-05
-3.65436e-05
4.35819e-05
-5.1402e-05
4.81425e-05
-6.66418e-05
4.98226e-05
-8.16373e-05
4.92695e-05
-9.59149e-05
4.70522e-05
-0.000109117
4.36033e-05
-0.000120967
3.92188e-05
-0.000131243
3.40875e-05
-0.000139758
2.83271e-05
-0.000146351
2.20147e-05
-0.000150879
1.52108e-05
-0.000153217
7.97511e-06
-0.000153263
3.78683e-07
-0.000150939
-7.49107e-06
-0.000146202
-1.55145e-05
-0.000139053
-2.35382e-05
-0.000129554
-3.13606e-05
-0.000117841
-3.87195e-05
-0.000104152
-4.52768e-05
-8.88456e-05
-5.0604e-05
-7.24322e-05
-5.4175e-05
-5.55898e-05
-5.53765e-05
-3.91752e-05
-5.35547e-05
-2.42119e-05
-4.81147e-05
-1.1856e-05
-3.8681e-05
-3.34663e-06
-2.53144e-05
-8.82742e-06
-3.739e-06
1.22918e-05
-1.29112e-05
3.29296e-05
-2.58395e-05
4.84817e-05
-4.11343e-05
5.88767e-05
-5.76667e-05
6.46749e-05
-7.45516e-05
6.67074e-05
-9.11165e-05
6.58343e-05
-0.000106859
6.27947e-05
-0.000121402
5.81464e-05
-0.000134455
5.22719e-05
-0.000145784
4.54165e-05
-0.000155191
3.77337e-05
-0.000162501
2.93252e-05
-0.00016756
2.027e-05
-0.00017023
1.06451e-05
-0.000170393
5.4131e-07
-0.000167955
-9.92957e-06
-0.000162856
-2.06132e-05
-0.000155084
-3.131e-05
-0.00014469
-4.1755e-05
-0.000131808
-5.16009e-05
-0.000116686
-6.03985e-05
-9.97112e-05
-6.75792e-05
-8.14389e-05
-7.24472e-05
-6.26198e-05
-7.41956e-05
-4.42096e-05
-7.1965e-05
-2.73621e-05
-6.49622e-05
-1.33993e-05
-5.26438e-05
-3.76594e-06
-3.49478e-05
-1.25934e-05
-4.09843e-06
1.63902e-05
-1.41898e-05
4.3021e-05
-2.83907e-05
6.26826e-05
-4.51375e-05
7.56235e-05
-6.31794e-05
8.27168e-05
-8.15541e-05
8.50821e-05
-9.95439e-05
8.38242e-05
-0.000116622
7.98726e-05
-0.000132397
7.39217e-05
-0.000146571
6.64454e-05
-0.000158901
5.7747e-05
-0.000169183
4.80156e-05
-0.000177233
3.73753e-05
-0.000182884
2.59205e-05
-0.00018598
1.3742e-05
-0.000186385
9.46264e-07
-0.000183981
-1.23337e-05
-0.000178683
-2.59119e-05
-0.00017045
-3.95424e-05
-0.000159312
-5.28934e-05
-0.000145389
-6.5524e-05
-0.000128928
-7.68589e-05
-0.00011034
-8.61675e-05
-9.02315e-05
-9.2556e-05
-6.94363e-05
-9.49907e-05
-4.90298e-05
-9.23715e-05
-3.03184e-05
-8.36736e-05
-1.48047e-05
-6.81575e-05
-4.12882e-06
-4.56236e-05
-1.67222e-05
-4.43233e-06
2.08226e-05
-1.53918e-05
5.39805e-05
-3.08126e-05
7.81033e-05
-4.89681e-05
9.3779e-05
-6.84873e-05
0.000102236
-8.83294e-05
0.000104924
-0.000107731
0.000103226
-0.000126141
9.82827e-05
-0.000143158
9.09388e-05
-0.000158478
8.17656e-05
-0.000171857
7.11254e-05
-0.000183083
5.92418e-05
-0.000191965
4.62576e-05
-0.000198323
3.22782e-05
-0.000201983
1.74019e-05
-0.000202781
1.74401e-06
-0.000200567
-1.45476e-05
-0.000195218
-3.1261e-05
-0.000186653
-4.81066e-05
-0.000174864
-6.46832e-05
-0.000159941
-8.04467e-05
-0.000142122
-9.46774e-05
-0.000121837
-0.000106453
-9.97493e-05
-0.000114644
-7.67967e-05
-0.000117943
-5.42025e-05
-0.000114966
-3.34596e-05
-0.000104416
-1.62785e-05
-8.53386e-05
-4.5036e-06
-5.73985e-05
-2.12258e-05
-4.78259e-06
2.56051e-05
-1.66443e-05
6.58423e-05
-3.33348e-05
9.47937e-05
-5.2962e-05
0.000113406
-7.40305e-05
0.000123305
-9.54173e-05
0.000126311
-0.000116311
0.00012412
-0.000136138
0.00011811
-0.000154487
0.000109288
-0.000171053
9.83313e-05
-0.000185591
8.56627e-05
-0.000197887
7.15381e-05
-0.000207744
5.61147e-05
-0.000214967
3.95017e-05
-0.000219362
2.17965e-05
-0.000220731
3.11344e-06
-0.000218884
-1.63949e-05
-0.000213644
-3.65006e-05
-0.000204875
-5.6876e-05
-0.000192507
-7.70508e-05
-0.000176586
-9.63683e-05
-0.000157322
-0.000113941
-0.000135157
-0.000128618
-0.00011082
-0.000138981
-8.5374e-05
-0.000143389
-6.02292e-05
-0.000140111
-3.71128e-05
-0.000127533
-1.79895e-05
-0.000104462
-4.9402e-06
-7.04478e-05
-2.6166e-05
-5.17817e-06
3.07833e-05
-1.80409e-05
7.87051e-05
-3.61308e-05
0.000112884
-5.7375e-05
0.00013465
-8.0143e-05
0.000146073
-0.000103223
0.000149391
-0.000125754
0.000146651
-0.000147138
0.000139494
-0.00016696
0.00012911
-0.000184914
0.000116286
-0.000200761
0.00010151
-0.00021429
8.50668e-05
-0.000225299
6.71231e-05
-0.00023358
4.77833e-05
-0.000238916
2.71323e-05
-0.000241073
5.26992e-06
-0.000239806
-1.76618e-05
-0.000234873
-4.14334e-05
-0.000226058
-6.56913e-05
-0.000213208
-8.99006e-05
-0.000196292
-0.000113284
-0.000175472
-0.000134761
-0.000151185
-0.000152905
-0.000124228
-0.000165938
-9.58138e-05
-0.000171804
-6.75891e-05
-0.000168335
-4.15832e-05
-0.000153539
-2.00868e-05
-0.000125958
-5.47804e-06
-8.50566e-05
-3.1644e-05
-5.63962e-06
3.64229e-05
-1.9651e-05
9.27164e-05
-3.93316e-05
0.000132564
-6.24007e-05
0.00015772
-8.70753e-05
0.000170747
-0.000112046
0.000174361
-0.000136398
0.000171003
-0.000159513
0.000162609
-0.000180973
0.00015057
-0.000200482
0.000135795
-0.000217809
0.000118837
-0.000232753
0.000100011
-0.000245113
7.94834e-05
-0.000254675
5.73447e-05
-0.000261196
3.36532e-05
-0.000264402
8.47596e-06
-0.000263987
-1.80762e-05
-0.000259625
-4.57953e-05
-0.000250995
-7.43216e-05
-0.000237827
-0.000103068
-0.000219975
-0.000131136
-0.000197512
-0.000157225
-0.000170841
-0.000179576
-0.000140816
-0.000195963
-0.000108826
-0.000203794
-7.68142e-05
-0.000200347
-4.7207e-05
-0.000183146
-2.27301e-05
-0.000150435
-6.1562e-06
-0.000101631
-3.78002e-05
-6.18344e-06
4.26064e-05
-2.15313e-05
0.000108064
-4.30443e-05
0.000154077
-6.81955e-05
0.000182871
-9.50252e-05
0.000197577
-0.000122114
0.000201451
-0.000148493
0.000197382
-0.000173526
0.000187641
-0.000196798
0.000173842
-0.000218031
0.000157027
-0.000237014
0.00013782
-0.000253563
0.00011656
-0.00026749
9.34102e-05
-0.000278578
6.84326e-05
-0.000286568
4.16428e-05
-0.000291144
1.30523e-05
-0.000291933
-1.72875e-05
-0.000288506
-4.92226e-05
-0.000280408
-8.24196e-05
-0.000267209
-0.000116267
-0.000248594
-0.000149751
-0.000224484
-0.000181336
-0.000195195
-0.000208864
-0.000161609
-0.000229549
-0.000125301
-0.000240101
-8.85886e-05
-0.000237059
-5.4423e-05
-0.000217312
-2.61283e-05
-0.00017873
-7.02536e-06
-0.000120733
-4.48256e-05
-6.82585e-06
4.94322e-05
-2.37369e-05
0.000124975
-4.73706e-05
0.000177711
-7.49036e-05
0.000210404
-0.000104169
0.000226842
-0.000133625
0.000230906
-0.000162244
0.000226
-0.000189377
0.000214775
-0.000214627
0.000199091
-0.000237741
0.000180142
-0.000258543
0.000158623
-0.000276882
0.000134899
-0.000292593
0.000109121
-0.000305473
8.13123e-05
-0.000315255
5.14243e-05
-0.000321588
1.93862e-05
-0.00032403
-1.4846e-05
-0.000322035
-5.1218e-05
-0.000314983
-8.94714e-05
-0.000302232
-0.000129017
-0.000283222
-0.000168762
-0.000257631
-0.000206927
-0.000225595
-0.0002409
-0.000187953
-0.000267191
-0.000146459
-0.000281595
-0.000103879
-0.000279639
-6.38678e-05
-0.000257322
-3.05921e-05
-0.000212006
-8.16345e-06
-0.000143162
-5.29891e-05
-7.58641e-06
5.70186e-05
-2.63315e-05
0.000143721
-5.24242e-05
0.000203803
-8.26805e-05
0.00024066
-0.000114689
0.000258851
-0.000146768
0.000262986
-0.000177834
0.000257066
-0.000207234
0.000244175
-0.000234599
0.000226456
-0.000259722
0.000205265
-0.000282478
0.000181379
-0.000302766
0.000155187
-0.000320466
0.000126821
-0.000335407
9.62532e-05
-0.000347334
6.33514e-05
-0.000355879
2.79307e-05
-0.000360534
-1.01908e-05
-0.000360632
-5.11203e-05
-0.00035536
-9.47434e-05
-0.000343804
-0.000140572
-0.000325064
-0.000187502
-0.000298445
-0.000233545
-0.000263754
-0.000275591
-0.000221651
-0.000309294
-0.000174003
-0.000329243
-0.000124091
-0.000329552
-7.65023e-05
-0.000304911
-3.66068e-05
-0.000251901
-9.69797e-06
-0.000170071
-6.2687e-05
-8.49163e-06
6.55103e-05
-2.93984e-05
0.000164627
-5.83487e-05
0.000232754
-9.17154e-05
0.000274027
-0.000126796
0.000293932
-0.000161755
0.000297945
-0.000195454
0.000290765
-0.00022725
0.000275972
-0.000256822
0.000256028
-0.000284029
0.000232471
-0.000308819
0.000206169
-0.000331165
0.000177533
-0.000351018
0.000146675
-0.000368268
0.000113503
-0.000382701
7.77842e-05
-0.000393957
3.91869e-05
-0.000401493
-2.65536e-06
-0.000404521
-4.80916e-05
-0.000402024
-9.72405e-05
-0.000392759
-0.000149838
-0.000375372
-0.000204889
-0.000348626
-0.000260292
-0.000311768
-0.000312449
-0.000265045
-0.000356017
-0.000210269
-0.000384019
-0.000151245
-0.000388575
-9.3765e-05
-0.000362391
-4.49286e-05
-0.000300738
-1.18377e-05
-0.000203162
-7.45247e-05
-9.57975e-06
7.509e-05
-3.30531e-05
0.000188101
-6.53365e-05
0.000265037
-0.000102253
0.000310943
-0.000140754
0.000332433
-0.000178834
0.000336025
-0.00021531
0.000327241
-0.000249571
0.000310234
-0.000281367
0.000287824
-0.000310649
0.000261753
-0.000337463
0.000232984
-0.000361888
0.000201957
-0.000383975
0.000168762
-0.000403712
0.00013324
-0.000420968
9.50399e-05
-0.000435437
5.36561e-05
-0.000446575
8.48289e-06
-0.000453525
-4.11411e-05
-0.000455063
-9.57026e-05
-0.000449581
-0.00015532
-0.00043516
-0.000219309
-0.000409808
-0.000285644
-0.000371904
-0.000350353
-0.000320905
-0.000407016
-0.000258231
-0.000446693
-0.000188082
-0.000458725
-0.000117719
-0.000432755
-5.66953e-05
-0.000361761
-1.4914e-05
-0.000244943
-8.94387e-05
-1.09074e-05
8.59974e-05
-3.74603e-05
0.000214654
-7.3652e-05
0.000301229
-0.000114615
0.000351906
-0.000156891
0.000374709
-0.000198297
0.000377431
-0.000237623
0.000366567
-0.000274321
0.000346931
-0.000308241
0.000321745
-0.000339458
0.000292969
-0.000368148
0.000261674
-0.000394523
0.000228332
-0.000418774
0.000193013
-0.000441028
0.000155494
-0.000461288
0.0001153
-0.000479368
7.17355e-05
-0.000494789
2.39035e-05
-0.000506695
-2.92343e-05
-0.000513708
-8.86903e-05
-0.000513858
-0.00015517
-0.000504583
-0.000228584
-0.000482917
-0.000307309
-0.000445989
-0.000387281
-0.000391931
-0.000461074
-0.000321188
-0.000517437
-0.000237959
-0.000541954
-0.000151102
-0.000519611
-7.35212e-05
-0.000439342
-1.94265e-05
-0.000299038
-0.000108865
-1.256e-05
9.85574e-05
-4.28574e-05
0.000244951
-8.36598e-05
0.000342031
-0.000129224
0.000397469
-0.000175615
0.0004211
-0.000220472
0.000422289
-0.000262597
0.000408692
-0.000301545
0.000385878
-0.000337311
0.00035751
-0.000370123
0.000325782
-0.000400323
0.000291873
-0.000428285
0.000256294
-0.000454377
0.000219105
-0.000478909
0.000180025
-0.000502076
0.000138468
-0.000523883
9.35423e-05
-0.000544023
4.40432e-05
-0.000561734
-1.15228e-05
-0.000575602
-7.48221e-05
-0.000583379
-0.000147394
-0.000581854
-0.000230108
-0.000566936
-0.000322228
-0.000534115
-0.000420102
-0.000479536
-0.000515653
-0.000401793
-0.00059518
-0.000304259
-0.000639488
-0.000197119
-0.000626751
-9.75113e-05
-0.00053895
-2.60865e-05
-0.000370463
-0.000134952
-1.46687e-05
0.000113226
-4.95886e-05
0.000279871
-9.58583e-05
0.000388301
-0.000146618
0.000448229
-0.00019739
0.000471872
-0.000245668
0.000470567
-0.000290325
0.000453349
-0.000331083
0.000426636
-0.000368132
0.000394559
-0.000401895
0.000359546
-0.000432905
0.000322883
-0.000461732
0.000285121
-0.000488946
0.000246319
-0.000515078
0.000206157
-0.00054057
0.00016396
-0.000565692
0.000118664
-0.000590414
6.87652e-05
-0.000614213
1.22771e-05
-0.000635817
-5.3219e-05
-0.00065288
-0.000130331
-0.000661695
-0.000221294
-0.000657052
-0.00032687
-0.000632556
-0.000444598
-0.000581712
-0.000566497
-0.00050015
-0.000676742
-0.00038901
-0.000750627
-0.000258742
-0.000757019
-0.000131106
-0.000666586
-3.58499e-05
-0.000465719
-0.000170802
-1.74394e-05
0.000130666
-5.81554e-05
0.000320587
-0.000110917
0.000441063
-0.000167444
0.000504756
-0.000222675
0.000527103
-0.000274038
0.00052193
-0.000320585
0.000499896
-0.000362295
0.000468346
-0.000399616
0.00043188
-0.000433213
0.000393142
-0.000463836
0.000353506
-0.00049227
0.000313556
-0.000519307
0.000273356
-0.000545717
0.000232567
-0.000572216
0.00019046
-0.000599398
0.000145845
-0.0006276
9.69671e-05
-0.000656695
4.13724e-05
-0.000685759
-2.41547e-05
-0.000712681
-0.000103409
-0.00073359
-0.000200385
-0.000742472
-0.000317988
-0.000731145
-0.000455925
-0.000690114
-0.000607527
-0.000610925
-0.000755931
-0.000490515
-0.000871038
-0.000337295
-0.000910239
-0.000176648
-0.000827233
-4.99493e-05
-0.000592417
-0.000220751
-2.12048e-05
0.00015187
-6.92926e-05
0.000368675
-0.00012971
0.00050148
-0.000192395
0.000567442
-0.000251739
0.000586447
-0.000305278
0.000575469
-0.000352419
0.000547037
-0.000393528
0.000509456
-0.000429401
0.000467753
-0.000460991
0.000424732
-0.000489301
0.000381815
-0.000515339
0.000339593
-0.000540111
0.000298128
-0.000564621
0.000257077
-0.000589848
0.000215687
-0.000616709
0.000172707
-0.000645956
0.000126214
-0.000677983
7.33995e-05
-0.000712398
1.02605e-05
-0.000747771
-6.8036e-05
-0.000780602
-0.000167553
-0.000804794
-0.000293797
-0.000811062
-0.000449657
-0.000787214
-0.000631375
-0.000720074
-0.000823071
-0.000600192
-0.00099092
-0.000430195
-0.00108024
-0.000235509
-0.00102192
-6.99178e-05
-0.000758008
-0.000290669
-2.65245e-05
0.000178395
-8.40865e-05
0.000426237
-0.000153318
0.000570712
-0.000222024
0.000636148
-0.00028426
0.000648683
-0.000338011
0.00062922
-0.000383323
0.000592348
-0.000421145
0.000547278
-0.00045274
0.000499348
-0.000479423
0.000451415
-0.000502475
0.000404867
-0.00052313
0.000360249
-0.000542588
0.000317586
-0.000562032
0.00027652
-0.000582642
0.000236297
-0.000605593
0.000195657
-0.000631996
0.000152617
-0.00066276
0.000104163
-0.000698361
4.58612e-05
-0.000738083
-2.83137e-05
-0.000779778
-0.000125858
-0.00081828
-0.000255295
-0.000844594
-0.000423343
-0.000845168
-0.000630801
-0.000802599
-0.00086564
-0.000699493
-0.00109403
-0.000527999
-0.00125173
-0.000306524
-0.00124339
-9.75114e-05
-0.000967021
-0.00038818
-3.43838e-05
0.000212779
-0.000104156
0.000496009
-0.00018295
0.000649505
-0.000256286
0.000709484
-0.000318483
0.000710879
-0.000368602
0.000679339
-0.00040778
0.000631526
-0.00043784
0.000577338
-0.00046068
0.000522189
-0.00047807
0.000468805
-0.000491607
0.000418405
-0.000502742
0.000371384
-0.000512818
0.000327662
-0.000523112
0.000286814
-0.000534886
0.000248071
-0.000549424
0.000210195
-0.000568047
0.00017124
-0.000592077
0.000128194
-0.000622736
7.65208e-05
-0.000660386
9.3355e-06
-0.000704869
-8.13751e-05
-0.000753105
-0.000207059
-0.000798366
-0.000378082
-0.000828215
-0.000600953
-0.000823255
-0.0008706
-0.000758461
-0.00115882
-0.00061143
-0.00139876
-0.000383448
-0.00147137
-0.000134208
-0.00121626
-0.000522388
-4.65901e-05
0.000259369
-0.000131894
0.000581313
-0.000219563
0.000737175
-0.000293433
0.000783354
-0.000349467
0.000766913
-0.000388899
0.000718771
-0.000414657
0.000657284
-0.000429841
0.000592522
-0.000437205
0.000529553
-0.000439072
0.000470671
-0.000437375
0.000416708
-0.000433742
0.000367751
-0.000429571
0.000323491
-0.000426109
0.000283353
-0.000424533
0.000246495
-0.000426031
0.000211693
-0.000431896
0.000177105
-0.000443597
0.000139895
-0.000462785
9.57084e-05
-0.000491457
3.80079e-05
-0.000530701
-4.21318e-05
-0.000581084
-0.000156675
-0.000639976
-0.00031919
-0.000699217
-0.000541712
-0.000741554
-0.000828263
-0.000737707
-0.00116267
-0.000649804
-0.00148667
-0.000451591
-0.00166959
-0.000179675
-0.00148818
-0.000702063
-6.65272e-05
0.000325896
-0.000170562
0.000685348
-0.000262512
0.000829124
-0.000327284
0.000848127
-0.000365347
0.000804975
-0.000381904
0.000735328
-0.000382648
0.000658029
-0.000372429
0.000582303
-0.000355037
0.000512161
-0.000333358
0.000448992
-0.000309576
0.000392926
-0.000285356
0.000343532
-0.000261985
0.00030012
-0.000240497
0.000261864
-0.000221785
0.000227783
-0.000206729
0.000196637
-0.000196337
0.000166713
-0.000191923
0.000135481
-0.000195317
9.91027e-05
-0.000209121
5.18117e-05
-0.000236471
-1.4782e-05
-0.000280966
-0.00011218
-0.000345271
-0.000254885
-0.000428281
-0.000458702
-0.000520302
-0.000736242
-0.000594455
-0.00108851
-0.000602427
-0.00147869
-0.000484546
-0.00178747
-0.000228467
-0.00174426
-0.000930529
-0.000100245
0.00042614
-0.000223018
0.000808122
-0.000304813
0.000910919
-0.00034002
0.000883334
-0.00033893
0.000803885
-0.000313202
0.0007096
-0.000272263
0.000617089
-0.000222913
0.000532953
-0.000169788
0.000459036
-0.000116
0.000395204
-6.36013e-05
0.000340527
-1.39237e-05
0.000293854
3.21819e-05
0.000254015
7.4171e-05
0.000219875
0.000111659
0.000190295
0.000144277
0.000164019
0.000171498
0.000139492
0.000192405
0.000114574
0.000205369
8.61386e-05
0.000207621
4.95603e-05
0.000194697
-1.85785e-06
0.000160873
-7.83564e-05
9.84314e-05
-0.000192443
3.9409e-07
-0.000360665
-0.000133721
-0.000602127
-0.00029038
-0.000931854
-0.000422891
-0.00134618
-0.000442163
-0.0017682
-0.000265159
-0.00192126
-0.00119569
-0.000156459
0.0005826
-0.000282521
0.000934184
-0.000316528
0.000944925
-0.000282491
0.000849297
-0.000208393
0.000729787
-0.000114038
0.000615246
-1.21526e-05
0.000515203
8.97241e-05
0.000431076
0.000187325
0.000361435
0.000278449
0.00030408
0.000362097
0.000256879
0.000437977
0.000217974
0.000506199
0.000185793
0.000567079
0.000158995
0.000620989
0.000136385
0.00066822
0.000116788
0.000708822
9.88904e-05
0.000742366
8.10293e-05
0.000767614
6.08909e-05
0.000782059
3.51153e-05
0.00078034
-1.38609e-07
0.000756545
-5.45619e-05
0.000699459
-0.000135357
0.000595789
-0.000256994
0.000431748
-0.000438086
0.000203789
-0.000703895
-5.97775e-05
-0.00108262
-0.000268958
-0.00155902
-0.000262894
-0.00192732
-0.00145858
-0.000235028
0.000817627
-0.000287329
0.000986485
-0.000189751
0.000847347
-2.35086e-05
0.000683054
0.00016353
0.000542748
0.00034839
0.000430385
0.000520777
0.000342817
0.000676652
0.000275201
0.000815228
0.000222859
0.000937249
0.000182059
0.00104412
0.000150013
0.00113744
0.000124652
0.00121882
0.000104413
0.00128973
8.80872e-05
0.00135142
7.46871e-05
0.00140488
6.33279e-05
0.00145067
5.31036e-05
0.00148875
4.29476e-05
0.00151818
3.14577e-05
0.00153657
1.67254e-05
0.00154009
-3.65411e-06
0.00152058
-3.50472e-05
0.00146708
-8.18636e-05
0.001363
-0.000152908
0.00118624
-0.000261329
0.000912677
-0.000430334
0.000533536
-0.000703475
0.000114339
-0.00113982
-0.000142856
-0.00167013
-0.00160144
-0.000183389
0.00100102
4.46321e-05
0.000758465
0.000408551
0.000483429
0.000751193
0.000340413
0.00104869
0.000245249
0.00130073
0.000178351
0.00151164
0.000131898
0.00168729
9.95578e-05
0.00183354
7.66061e-05
0.00195563
5.99737e-05
0.00205793
4.77108e-05
0.00214405
3.85313e-05
0.00221691
3.15551e-05
0.00227884
2.61583e-05
0.00233165
2.18735e-05
0.00237666
1.83134e-05
0.00241466
1.51084e-05
0.00244576
1.18482e-05
0.00246919
8.03116e-06
0.00248286
3.04749e-06
0.00248373
-4.51943e-06
0.00246448
-1.57967e-05
0.00241515
-3.25343e-05
0.00232021
-5.79676e-05
0.00215592
-9.70383e-05
0.00188653
-0.000160943
0.00146383
-0.000280778
0.000868908
-0.000544898
0.00024028
-0.0010415
-0.00136116
0.00100102
0.00175948
0.00224291
0.00258332
0.00282857
0.00300692
0.00313882
0.00323838
0.00331498
0.00337496
0.00342267
0.0034612
0.00349275
0.00351891
0.00354079
0.0035591
0.00357421
0.00358606
0.00359409
0.00359714
0.00359262
0.00357682
0.00354429
0.00348632
0.00338928
0.00322834
0.00294756
0.00240266
0.00136116
)
;

boundaryField
{
    movingWall
    {
        type            calculated;
        value           uniform 0;
    }
    fixedWalls
    {
        type            calculated;
        value           uniform 0;
    }
    frontAndBack
    {
        type            empty;
        value           nonuniform 0();
    }
}


// ************************************************************************* //
