/*--------------------------------*- C++ -*----------------------------------*\
  =========                 |
  \\      /  F ield         | OpenFOAM: The Open Source CFD Toolbox
   \\    /   O peration     | Website:  https://openfoam.org
    \\  /    A nd           | Version:  7
     \\/     M anipulation  |
\*---------------------------------------------------------------------------*/
FoamFile
{
    version     2.0;
    format      ascii;
    class       volVectorField;
    location    "0.9";
    object      U;
}
// * * * * * * * * * * * * * * * * * * * * * * * * * * * * * * * * * * * * * //

dimensions      [0 1 -1 0 0 0 0];

internalField   nonuniform List<vector> 
900
(
(6.56459e-05 -6.50319e-05 0)
(-4.01245e-07 3.62405e-05 0)
(-0.000406728 0.000148398 0)
(-0.0010517 0.000222703 0)
(-0.00184592 0.000261491 0)
(-0.00271224 0.000274795 0)
(-0.00359264 0.000271821 0)
(-0.00444811 0.000259102 0)
(-0.00525321 0.000240485 0)
(-0.00599063 0.000217874 0)
(-0.00664731 0.000192016 0)
(-0.00721214 0.000163074 0)
(-0.00767488 0.000130992 0)
(-0.00802563 9.57049e-05 0)
(-0.00825497 5.72443e-05 0)
(-0.00835414 1.57943e-05 0)
(-0.00831556 -2.82803e-05 0)
(-0.00813331 -7.43904e-05 0)
(-0.00780385 -0.00012169 0)
(-0.00732684 -0.000169021 0)
(-0.00670618 -0.000214816 0)
(-0.00595145 -0.000256939 0)
(-0.00507977 -0.000292436 0)
(-0.00411839 -0.000317196 0)
(-0.00310804 -0.000325524 0)
(-0.00210667 -0.00030988 0)
(-0.00119201 -0.000261382 0)
(-0.000457504 -0.000171972 0)
(-1.71607e-06 -4.29875e-05 0)
(7.21131e-05 7.03247e-05 0)
(-3.411e-05 -1.12054e-06 0)
(-0.000513452 0.000513031 0)
(-0.00168853 0.00101757 0)
(-0.00334086 0.00137193 0)
(-0.00530022 0.00157346 0)
(-0.00741842 0.00165224 0)
(-0.00957237 0.00164256 0)
(-0.0116706 0.00157259 0)
(-0.0136481 0.00146151 0)
(-0.015458 0.00132078 0)
(-0.0170643 0.00115648 0)
(-0.0184374 0.000971565 0)
(-0.0195515 0.000767476 0)
(-0.020383 0.000545256 0)
(-0.0209104 0.000306177 0)
(-0.0211149 5.2133e-05 0)
(-0.0209811 -0.000214125 0)
(-0.0204979 -0.000488652 0)
(-0.0196603 -0.000766148 0)
(-0.0184714 -0.00103956 0)
(-0.0169442 -0.00129955 0)
(-0.0151056 -0.00153372 0)
(-0.0129998 -0.00172566 0)
(-0.0106936 -0.00185383 0)
(-0.00828217 -0.00189093 0)
(-0.00589357 -0.00180476 0)
(-0.00368855 -0.00156307 0)
(-0.00184602 -0.00114499 0)
(-0.00055341 -0.000569092 0)
(-3.43509e-05 9.0904e-07 0)
(-0.000149292 0.000405342 0)
(-0.00104387 0.00169375 0)
(-0.00290652 0.00284521 0)
(-0.00538185 0.00366471 0)
(-0.00824094 0.00414382 0)
(-0.0112975 0.00433646 0)
(-0.0143917 0.00431152 0)
(-0.0174002 0.00413013 0)
(-0.0202319 0.00383719 0)
(-0.0228191 0.00346177 0)
(-0.0251095 0.00302099 0)
(-0.02706 0.00252444 0)
(-0.0286336 0.00197781 0)
(-0.0297975 0.00138538 0)
(-0.0305228 0.00075168 0)
(-0.0307845 8.25159e-05 0)
(-0.0305629 -0.000614272 0)
(-0.0298446 -0.00132808 0)
(-0.028625 -0.00204491 0)
(-0.0269105 -0.00274639 0)
(-0.0247222 -0.00340844 0)
(-0.0220992 -0.00399962 0)
(-0.0191051 -0.00447913 0)
(-0.0158328 -0.00479518 0)
(-0.0124114 -0.00488494 0)
(-0.00901078 -0.00467887 0)
(-0.00583818 -0.00411332 0)
(-0.00311844 -0.00315525 0)
(-0.00110249 -0.00184807 0)
(-0.000152457 -0.000431309 0)
(-0.000234242 0.00107446 0)
(-0.00146673 0.00341054 0)
(-0.00390349 0.00535665 0)
(-0.00704887 0.00672332 0)
(-0.0106177 0.00751942 0)
(-0.0143955 0.00783306 0)
(-0.0181989 0.00777359 0)
(-0.0218851 0.00743947 0)
(-0.0253476 0.00690519 0)
(-0.0285057 0.00622073 0)
(-0.0312962 0.00541699 0)
(-0.0336673 0.00451237 0)
(-0.0355746 0.00351854 0)
(-0.0369792 0.00244447 0)
(-0.0378469 0.00129931 0)
(-0.0381487 9.4166e-05 0)
(-0.0378616 -0.00115648 0)
(-0.0369706 -0.00243354 0)
(-0.035471 -0.00371197 0)
(-0.033371 -0.00495913 0)
(-0.0306963 -0.00613254 0)
(-0.0274945 -0.00717722 0)
(-0.0238411 -0.00802276 0)
(-0.0198464 -0.00858143 0)
(-0.0156616 -0.00874927 0)
(-0.0114841 -0.00841419 0)
(-0.00755297 -0.0074758 0)
(-0.00412852 -0.00588071 0)
(-0.00152177 -0.00367781 0)
(-0.000233822 -0.00112719 0)
(-0.000291538 0.00194088 0)
(-0.00178345 0.00555217 0)
(-0.00468341 0.00841114 0)
(-0.00837226 0.0103788 0)
(-0.0125117 0.0115082 0)
(-0.016861 0.0119355 0)
(-0.0212189 0.0118179 0)
(-0.0254297 0.0112947 0)
(-0.0293772 0.0104725 0)
(-0.032973 0.00942381 0)
(-0.0361478 0.00819459 0)
(-0.038844 0.00681324 0)
(-0.0410126 0.00529828 0)
(-0.0426101 0.00366418 0)
(-0.0435985 0.00192536 0)
(-0.043945 9.89002e-05 0)
(-0.0436234 -0.0017933 0)
(-0.0426159 -0.00372265 0)
(-0.0409157 -0.00565171 0)
(-0.0385306 -0.00753167 0)
(-0.0354876 -0.00929915 0)
(-0.0318386 -0.0108725 0)
(-0.027667 -0.0121479 0)
(-0.0230951 -0.0129977 0)
(-0.0182914 -0.0132723 0)
(-0.0134763 -0.0128121 0)
(-0.00891767 -0.011473 0)
(-0.00491156 -0.00916966 0)
(-0.0018268 -0.00593445 0)
(-0.000284604 -0.00201236 0)
(-0.000330682 0.00295236 0)
(-0.00202398 0.00803261 0)
(-0.00530232 0.0119139 0)
(-0.00944403 0.0145329 0)
(-0.0140619 0.0160086 0)
(-0.0188897 0.0165404 0)
(-0.0237096 0.0163415 0)
(-0.0283556 0.0155972 0)
(-0.0327051 0.0144484 0)
(-0.0366654 0.0129916 0)
(-0.0401633 0.0112886 0)
(-0.0431381 0.0093782 0)
(-0.0455373 0.00728602 0)
(-0.0473142 0.0050321 0)
(-0.0484269 0.00263611 0)
(-0.0488385 0.000121113 0)
(-0.0485183 -0.00248352 0)
(-0.0474438 -0.00513935 0)
(-0.0456037 -0.00779577 0)
(-0.0430021 -0.0103864 0)
(-0.039664 -0.0128248 0)
(-0.0356422 -0.0149993 0)
(-0.0310249 -0.0167689 0)
(-0.0259449 -0.0179606 0)
(-0.0205873 -0.0183736 0)
(-0.0151969 -0.0177938 0)
(-0.0100738 -0.0160253 0)
(-0.00555347 -0.0129389 0)
(-0.00206098 -0.00853585 0)
(-0.00031745 -0.0030336 0)
(-0.000360499 0.00407507 0)
(-0.00222209 0.0107911 0)
(-0.00582887 0.0157971 0)
(-0.0103724 0.0191176 0)
(-0.0154203 0.0209545 0)
(-0.0206808 0.0215837 0)
(-0.0259196 0.0212833 0)
(-0.0309613 0.0202904 0)
(-0.0356784 0.0187831 0)
(-0.0399753 0.0168831 0)
(-0.0437768 0.0146689 0)
(-0.0470203 0.0121893 0)
(-0.049651 0.00947679 0)
(-0.051619 0.00655646 0)
(-0.0528783 0.00345254 0)
(-0.053387 0.000193287 0)
(-0.053108 -0.00318506 0)
(-0.0520116 -0.00663458 0)
(-0.0500788 -0.0100913 0)
(-0.0473064 -0.0134701 0)
(-0.0437137 -0.016659 0)
(-0.0393511 -0.0195129 0)
(-0.0343097 -0.0218479 0)
(-0.0287323 -0.0234392 0)
(-0.0228231 -0.0240264 0)
(-0.016856 -0.0233325 0)
(-0.0111699 -0.0211 0)
(-0.00614625 -0.0171474 0)
(-0.0022675 -0.0114374 0)
(-0.000342949 -0.00416237 0)
(-0.000387626 0.00529398 0)
(-0.00240674 0.0137986 0)
(-0.00632586 0.0200285 0)
(-0.0112569 0.0241028 0)
(-0.0167241 0.0263189 0)
(-0.0224096 0.0270412 0)
(-0.0280621 0.0266226 0)
(-0.033497 0.0253574 0)
(-0.0385824 0.0234644 0)
(-0.0432208 0.0210924 0)
(-0.0473361 0.0183364 0)
(-0.0508646 0.0152556 0)
(-0.0537498 0.0118882 0)
(-0.0559388 0.00826316 0)
(-0.0573811 0.00440804 0)
(-0.0580282 0.00035476 0)
(-0.0578349 -0.00385506 0)
(-0.0567611 -0.00816506 0)
(-0.0547764 -0.0124982 0)
(-0.0518659 -0.0167498 0)
(-0.0480387 -0.02078 0)
(-0.0433391 -0.024405 0)
(-0.0378587 -0.0273912 0)
(-0.0317508 -0.0294523 0)
(-0.0252421 -0.0302579 0)
(-0.0186428 -0.0294561 0)
(-0.0123403 -0.0267186 0)
(-0.0067713 -0.0218044 0)
(-0.00248158 -0.0146364 0)
(-0.00036843 -0.00539294 0)
(-0.000416481 0.0066085 0)
(-0.00259973 0.0170541 0)
(-0.00684332 0.0246094 0)
(-0.0121783 0.0294929 0)
(-0.0180844 0.0321093 0)
(-0.0242164 0.0329232 0)
(-0.0303053 0.0323713 0)
(-0.036157 0.0308121 0)
(-0.0416354 0.0285089 0)
(-0.0466421 0.0256394 0)
(-0.051101 0.0223157 0)
(-0.0549482 0.0186065 0)
(-0.0581261 0.0145549 0)
(-0.0605791 0.0101921 0)
(-0.0622518 0.00554672 0)
(-0.0630881 0.00065209 0)
(-0.063032 -0.00444717 0)
(-0.0620299 -0.0096883 0)
(-0.0600355 -0.0149823 0)
(-0.0570168 -0.0202047 0)
(-0.0529671 -0.0251845 0)
(-0.0479189 -0.0296938 0)
(-0.0419612 -0.0334393 0)
(-0.0352571 -0.0360611 0)
(-0.0280603 -0.0371432 0)
(-0.0207259 -0.0362449 0)
(-0.013703 -0.0329546 0)
(-0.00749725 -0.0269664 0)
(-0.00273022 -0.0181668 0)
(-0.000398453 -0.00673653 0)
(-0.00044986 0.00802806 0)
(-0.00281652 0.0205779 0)
(-0.00741864 0.0295669 0)
(-0.0131981 0.0353194 0)
(-0.0195859 0.0383593 0)
(-0.0262073 0.0392636 0)
(-0.0327745 0.0385636 0)
(-0.0390836 0.0366887 0)
(-0.0449949 0.0339515 0)
(-0.0504101 0.0305606 0)
(-0.0552542 0.0266457 0)
(-0.0594646 0.0222845 0)
(-0.0629836 0.0175235 0)
(-0.0657534 0.0123938 0)
(-0.0677138 0.00692251 0)
(-0.0687999 0.00114088 0)
(-0.0689432 -0.00490696 0)
(-0.0680728 -0.0111552 0)
(-0.0661213 -0.0175054 0)
(-0.0630326 -0.0238135 0)
(-0.0587765 -0.0298749 0)
(-0.0533661 -0.0354105 0)
(-0.0468812 -0.0400556 0)
(-0.0394925 -0.0433589 0)
(-0.0314842 -0.0447992 0)
(-0.0232674 -0.0438261 0)
(-0.0153697 -0.0399298 0)
(-0.00838661 -0.0327338 0)
(-0.0030358 -0.0220945 0)
(-0.000435909 -0.00821665 0)
(-0.000489596 0.0095689 0)
(-0.00306833 0.0244059 0)
(-0.00807987 0.034948 0)
(-0.0143627 0.041634 0)
(-0.0212924 0.0451212 0)
(-0.0284614 0.0461134 0)
(-0.0355615 0.0452478 0)
(-0.0423787 0.0430336 0)
(-0.0487712 0.0398374 0)
(-0.0546418 0.0359013 0)
(-0.0599187 0.0313735 0)
(-0.0645424 0.0263398 0)
(-0.0684568 0.0208484 0)
(-0.0716036 0.0149278 0)
(-0.0739182 0.0085995 0)
(-0.0753269 0.0018886 0)
(-0.0757468 -0.00516649 0)
(-0.0750861 -0.0125021 0)
(-0.0732501 -0.0200145 0)
(-0.0701505 -0.0275423 0)
(-0.0657224 -0.0348459 0)
(-0.0599481 -0.0415871 0)
(-0.0528874 -0.0473148 0)
(-0.0447126 -0.0514641 0)
(-0.0357393 -0.0533803 0)
(-0.026447 -0.0523748 0)
(-0.0174646 -0.0478174 0)
(-0.00950741 -0.0392524 0)
(-0.00342122 -0.0265166 0)
(-0.000483149 -0.00986736 0)
(-0.0005371 0.0112523 0)
(-0.00336422 0.0285864 0)
(-0.00885003 0.0408149 0)
(-0.0157102 0.0485037 0)
(-0.0232553 0.0524609 0)
(-0.0310406 0.0535342 0)
(-0.0387355 0.0524808 0)
(-0.0461167 0.0498992 0)
(-0.0530411 0.0462164 0)
(-0.0594156 0.0417106 0)
(-0.0651739 0.0365495 0)
(-0.0702624 0.0308266 0)
(-0.0746295 0.0245896 0)
(-0.0782187 0.0178611 0)
(-0.0809631 0.0106529 0)
(-0.0827811 0.00297779 0)
(-0.0835742 -0.00513829 0)
(-0.0832269 -0.0136415 0)
(-0.0816104 -0.0224301 0)
(-0.0785938 -0.0313308 0)
(-0.0740636 -0.040069 0)
(-0.0679537 -0.0482409 0)
(-0.0602867 -0.0552914 0)
(-0.0512226 -0.0605132 0)
(-0.0411051 -0.063079 0)
(-0.0304939 -0.0621199 0)
(-0.0201493 -0.0568512 0)
(-0.0109489 -0.0467239 0)
(-0.00391639 -0.0315679 0)
(-0.000543108 -0.0117347 0)
(-0.000593793 0.0131041 0)
(-0.00371312 0.0331785 0)
(-0.00975129 0.0472435 0)
(-0.0172762 0.0560084 0)
(-0.0255212 0.0604546 0)
(-0.0339987 0.0615949 0)
(-0.0423542 0.0603234 0)
(-0.0503554 0.0573397 0)
(-0.0578609 0.0531378 0)
(-0.0647844 0.0480363 0)
(-0.0710691 0.0422233 0)
(-0.0766711 0.0357993 0)
(-0.0815473 0.0288096 0)
(-0.0856471 0.0212674 0)
(-0.0889046 0.0131695 0)
(-0.0912331 0.00450913 0)
(-0.0925196 -0.00470935 0)
(-0.0926223 -0.0144528 0)
(-0.0913726 -0.0246329 0)
(-0.0885851 -0.0350742 0)
(-0.0840793 -0.0454729 0)
(-0.0777165 -0.0553549 0)
(-0.0694544 -0.064043 0)
(-0.0594152 -0.0706509 0)
(-0.0479572 -0.0741254 0)
(-0.0357279 -0.0733548 0)
(-0.0236557 -0.0673445 0)
(-0.0128427 -0.0554257 0)
(-0.00456679 -0.0374364 0)
(-0.000620687 -0.013882 0)
(-0.000661482 0.0151549 0)
(-0.00412567 0.0382529 0)
(-0.010809 0.0543229 0)
(-0.0191 0.0642396 0)
(-0.0281394 0.0691866 0)
(-0.0373903 0.0703683 0)
(-0.0464723 0.0688365 0)
(-0.055146 0.0654059 0)
(-0.0632749 0.0606463 0)
(-0.0707842 0.0549205 0)
(-0.0776314 0.0484387 0)
(-0.0837875 0.0413082 0)
(-0.0892235 0.03357 0)
(-0.0939003 0.0252243 0)
(-0.0977589 0.0162467 0)
(-0.100712 0.00660294 0)
(-0.102637 -0.00373605 0)
(-0.103365 -0.0147724 0)
(-0.102684 -0.0264483 0)
(-0.100343 -0.0386033 0)
(-0.0960706 -0.0509174 0)
(-0.0896244 -0.0628494 0)
(-0.0808553 -0.0735839 0)
(-0.0698041 -0.0820126 0)
(-0.0568104 -0.0867844 0)
(-0.0426063 -0.0864515 0)
(-0.0283292 -0.0797192 0)
(-0.0153921 -0.0657459 0)
(-0.00544561 -0.0443905 0)
(-0.000724812 -0.0164002 0)
(-0.000742768 0.0174418 0)
(-0.0046161 0.0438939 0)
(-0.0120559 0.0621574 0)
(-0.0212306 0.0733012 0)
(-0.0311689 0.0787481 0)
(-0.0412771 0.0799285 0)
(-0.0511481 0.0780773 0)
(-0.0605383 0.0741416 0)
(-0.0693209 0.0687763 0)
(-0.0774383 0.0623937 0)
(-0.0848685 0.0552282 0)
(-0.091604 0.0473938 0)
(-0.0976371 0.0389258 0)
(-0.102948 0.0298077 0)
(-0.107492 0.0199886 0)
(-0.111192 0.00939706 0)
(-0.11392 -0.002043 0)
(-0.115489 -0.0143868 0)
(-0.115641 -0.0276318 0)
(-0.114049 -0.0416599 0)
(-0.110332 -0.0561611 0)
(-0.104099 -0.0705427 0)
(-0.0950374 -0.0838441 0)
(-0.083036 -0.094691 0)
(-0.0683521 -0.101341 0)
(-0.0517721 -0.101873 0)
(-0.0346781 -0.0945433 0)
(-0.0189088 -0.0782339 0)
(-0.00667081 -0.0528236 0)
(-0.000871599 -0.0194263 0)
(-0.00084159 0.0200107 0)
(-0.00520475 0.0502048 0)
(-0.0135368 0.0708709 0)
(-0.0237324 0.0833106 0)
(-0.0346843 0.0892363 0)
(-0.0457343 0.0903476 0)
(-0.0564485 0.0880948 0)
(-0.0665839 0.0835769 0)
(-0.0760306 0.0775455 0)
(-0.0847554 0.0704679 0)
(-0.092764 0.0626047 0)
(-0.100079 0.0540775 0)
(-0.106721 0.0449151 0)
(-0.112699 0.0350822 0)
(-0.117998 0.0244959 0)
(-0.122557 0.0130387 0)
(-0.126262 0.000573118 0)
(-0.128915 -0.0130318 0)
(-0.130222 -0.0278604 0)
(-0.129778 -0.043877 0)
(-0.127069 -0.0608255 0)
(-0.121515 -0.0781008 0)
(-0.112562 -0.0946108 0)
(-0.0998451 -0.108679 0)
(-0.0834284 -0.11806 0)
(-0.0640736 -0.120168 0)
(-0.0434153 -0.112569 0)
(-0.0238546 -0.0936675 0)
(-0.00842681 -0.0633179 0)
(-0.001089 -0.023172 0)
(-0.000964087 0.0229208 0)
(-0.00592136 0.0573146 0)
(-0.0153145 0.0806118 0)
(-0.0266927 0.0944016 0)
(-0.0387824 0.100753 0)
(-0.0508536 0.101691 0)
(-0.0624488 0.0989225 0)
(-0.0733336 0.0937205 0)
(-0.0834239 0.0869455 0)
(-0.0927197 0.0791252 0)
(-0.101264 0.0705495 0)
(-0.109115 0.0613485 0)
(-0.116335 0.0515449 0)
(-0.122973 0.0410835 0)
(-0.129052 0.0298471 0)
(-0.13455 0.0176647 0)
(-0.139379 0.00432352 0)
(-0.143357 -0.010409 0)
(-0.146171 -0.0267405 0)
(-0.147347 -0.0447718 0)
(-0.146232 -0.0643696 0)
(-0.142015 -0.0849871 0)
(-0.133817 -0.105453 0)
(-0.120886 -0.12378 0)
(-0.102922 -0.137109 0)
(-0.0805038 -0.14193 0)
(-0.0554561 -0.134747 0)
(-0.0308696 -0.113123 0)
(-0.0109878 -0.0767284 0)
(-0.00142312 -0.0279657 0)
(-0.00112004 0.0262507 0)
(-0.00681018 0.0653885 0)
(-0.0174781 0.0915612 0)
(-0.0302289 0.106725 0)
(-0.0435863 0.113399 0)
(-0.0567435 0.114011 0)
(-0.0692276 0.110568 0)
(-0.0808249 0.104547 0)
(-0.0914896 0.0969273 0)
(-0.101266 0.0883031 0)
(-0.110242 0.078995 0)
(-0.118524 0.0691435 0)
(-0.126221 0.0587665 0)
(-0.133435 0.047791 0)
(-0.140241 0.0360651 0)
(-0.146674 0.0233617 0)
(-0.152701 0.00938168 0)
(-0.15818 -0.00623149 0)
(-0.162813 -0.02385 0)
(-0.166088 -0.0437775 0)
(-0.167229 -0.0660971 0)
(-0.165175 -0.0904347 0)
(-0.158651 -0.115648 0)
(-0.146365 -0.139492 0)
(-0.127428 -0.158409 0)
(-0.101971 -0.167671 0)
(-0.071808 -0.16218 0)
(-0.0407579 -0.138019 0)
(-0.0147369 -0.0942749 0)
(-0.00194695 -0.0343077 0)
(-0.00132544 0.0301093 0)
(-0.00793793 0.0746433 0)
(-0.0201537 0.103941 0)
(-0.0344972 0.120447 0)
(-0.0492462 0.127267 0)
(-0.0635197 0.127327 0)
(-0.0768457 0.122994 0)
(-0.0890506 0.115974 0)
(-0.100143 0.107379 0)
(-0.110225 0.0978693 0)
(-0.119439 0.0877979 0)
(-0.127946 0.0773166 0)
(-0.135913 0.0664416 0)
(-0.143499 0.055086 0)
(-0.150848 0.0430676 0)
(-0.158069 0.0301056 0)
(-0.165206 0.0158119 0)
(-0.172197 -0.000309462 0)
(-0.178804 -0.0188339 0)
(-0.184531 -0.040337 0)
(-0.188529 -0.0652337 0)
(-0.18952 -0.0934811 0)
(-0.185802 -0.124147 0)
(-0.175426 -0.154879 0)
(-0.156659 -0.181428 0)
(-0.128807 -0.197569 0)
(-0.093268 -0.195918 0)
(-0.0543839 -0.170054 0)
(-0.0201739 -0.117609 0)
(-0.00277406 -0.0429382 0)
(-0.00160732 0.0346517 0)
(-0.00940673 0.0853674 0)
(-0.0235189 0.11802 0)
(-0.0396978 0.135742 0)
(-0.0559295 0.142416 0)
(-0.0712759 0.141598 0)
(-0.0852973 0.136083 0)
(-0.09789 0.12783 0)
(-0.10914 0.118089 0)
(-0.11922 0.107585 0)
(-0.128339 0.0966999 0)
(-0.13672 0.0855976 0)
(-0.144589 0.0742952 0)
(-0.152172 0.0626972 0)
(-0.159684 0.0506004 0)
(-0.16732 0.0376797 0)
(-0.175224 0.0234651 0)
(-0.183444 0.00731956 0)
(-0.191855 -0.0115597 0)
(-0.200055 -0.0340805 0)
(-0.207223 -0.0611058 0)
(-0.21196 -0.0931135 0)
(-0.21221 -0.129637 0)
(-0.205341 -0.168491 0)
(-0.188584 -0.204918 0)
(-0.159984 -0.231064 0)
(-0.119855 -0.236535 0)
(-0.0724205 -0.210952 0)
(-0.0279047 -0.148801 0)
(-0.00408402 -0.054915 0)
(-0.0020133 0.0401072 0)
(-0.0113762 0.0979487 0)
(-0.0278225 0.134117 0)
(-0.046074 0.152761 0)
(-0.0637875 0.158829 0)
(-0.0800151 0.156671 0)
(-0.0944064 0.149581 0)
(-0.106972 0.139793 0)
(-0.117907 0.128687 0)
(-0.127474 0.117045 0)
(-0.135959 0.105271 0)
(-0.143651 0.0935356 0)
(-0.150838 0.081857 0)
(-0.157809 0.0701378 0)
(-0.164848 0.0581638 0)
(-0.172232 0.0455819 0)
(-0.180209 0.0318599 0)
(-0.188961 0.0162377 0)
(-0.19852 -0.00231166 0)
(-0.208663 -0.0250715 0)
(-0.218734 -0.0534202 0)
(-0.227405 -0.0885444 0)
(-0.232474 -0.130743 0)
(-0.230794 -0.178405 0)
(-0.218545 -0.226691 0)
(-0.19215 -0.266323 0)
(-0.149979 -0.283408 0)
(-0.0948866 -0.261859 0)
(-0.0385927 -0.190145 0)
(-0.00616731 -0.071704 0)
(-0.00263136 0.046828 0)
(-0.014103 0.112909 0)
(-0.0334079 0.152579 0)
(-0.0538892 0.171572 0)
(-0.0728715 0.17632 0)
(-0.0895039 0.172174 0)
(-0.103622 0.162995 0)
(-0.11542 0.151291 0)
(-0.125244 0.138553 0)
(-0.133475 0.125598 0)
(-0.14049 0.112836 0)
(-0.146646 0.100432 0)
(-0.152292 0.088403 0)
(-0.157766 0.0766498 0)
(-0.163406 0.0649565 0)
(-0.169551 0.0529599 0)
(-0.176534 0.0400937 0)
(-0.184662 0.0255121 0)
(-0.194157 0.00800503 0)
(-0.205026 -0.0140483 0)
(-0.216926 -0.0425732 0)
(-0.228873 -0.0795725 0)
(-0.238882 -0.126381 0)
(-0.243703 -0.182452 0)
(-0.238779 -0.243568 0)
(-0.218843 -0.299753 0)
(-0.179495 -0.333774 0)
(-0.120421 -0.322301 0)
(-0.0527988 -0.243654 0)
(-0.00948416 -0.0952736 0)
(-0.00363181 0.0553783 0)
(-0.018013 0.130942 0)
(-0.0407386 0.17372 0)
(-0.0633531 0.192018 0)
(-0.0829463 0.194363 0)
(-0.0989782 0.187341 0)
(-0.111633 0.175419 0)
(-0.121392 0.161346 0)
(-0.128817 0.146678 0)
(-0.134442 0.132228 0)
(-0.13875 0.11838 0)
(-0.142173 0.105276 0)
(-0.14511 0.0929139 0)
(-0.14793 0.0811868 0)
(-0.150994 0.0698782 0)
(-0.154665 0.0586289 0)
(-0.159316 0.0468699 0)
(-0.165336 0.0337239 0)
(-0.173103 0.0178868 0)
(-0.182883 -0.00248765 0)
(-0.194771 -0.0298415 0)
(-0.208371 -0.0669088 0)
(-0.222372 -0.116198 0)
(-0.234075 -0.17868 0)
(-0.238918 -0.251668 0)
(-0.230409 -0.325836 0)
(-0.201011 -0.381857 0)
(-0.145339 -0.388761 0)
(-0.0705461 -0.310015 0)
(-0.0146836 -0.128124 0)
(-0.0053559 0.0667103 0)
(-0.0238305 0.152938 0)
(-0.0503954 0.197635 0)
(-0.0744115 0.213433 0)
(-0.0930748 0.211778 0)
(-0.106561 0.200712 0)
(-0.115665 0.185273 0)
(-0.121306 0.168357 0)
(-0.124344 0.151497 0)
(-0.125507 0.135434 0)
(-0.125401 0.120479 0)
(-0.12453 0.106712 0)
(-0.123319 0.0940884 0)
(-0.122143 0.0824703 0)
(-0.121341 0.0716316 0)
(-0.121247 0.0612204 0)
(-0.122211 0.0506904 0)
(-0.124627 0.0391918 0)
(-0.128952 0.0254271 0)
(-0.135718 0.00748212 0)
(-0.145418 -0.0173242 0)
(-0.158359 -0.0522885 0)
(-0.174343 -0.100962 0)
(-0.191961 -0.166043 0)
(-0.207722 -0.247237 0)
(-0.215089 -0.337715 0)
(-0.203972 -0.418652 0)
(-0.16277 -0.453293 0)
(-0.0903922 -0.386859 0)
(-0.0224291 -0.172992 0)
(-0.00849055 0.0825113 0)
(-0.0327801 0.179932 0)
(-0.0629218 0.223776 0)
(-0.0861494 0.234077 0)
(-0.100666 0.226189 0)
(-0.108082 0.209669 0)
(-0.110185 0.189938 0)
(-0.108524 0.169838 0)
(-0.104338 0.150722 0)
(-0.0985706 0.133154 0)
(-0.0919349 0.117294 0)
(-0.0849692 0.103108 0)
(-0.0780858 0.0904623 0)
(-0.0716083 0.0791631 0)
(-0.0658044 0.0689533 0)
(-0.0609197 0.0594815 0)
(-0.0572153 0.0502369 0)
(-0.0550131 0.0404431 0)
(-0.0547554 0.0289079 0)
(-0.0570744 0.0138419 0)
(-0.0628074 -0.00732215 0)
(-0.0729464 -0.0380985 0)
(-0.0884737 -0.0826255 0)
(-0.109785 -0.145092 0)
(-0.135637 -0.227978 0)
(-0.161237 -0.328834 0)
(-0.175876 -0.43304 0)
(-0.162348 -0.503022 0)
(-0.107935 -0.466464 0)
(-0.0327281 -0.231859 0)
(-0.0143322 0.105849 0)
(-0.0467089 0.212723 0)
(-0.0779734 0.250007 0)
(-0.0950118 0.250145 0)
(-0.0991636 0.233203 0)
(-0.0945875 0.209863 0)
(-0.0844958 0.185426 0)
(-0.0711895 0.162296 0)
(-0.0562682 0.141388 0)
(-0.0408046 0.122923 0)
(-0.0255089 0.106809 0)
(-0.0108445 0.0928292 0)
(0.00289115 0.0807215 0)
(0.0155099 0.0702063 0)
(0.0268883 0.0609793 0)
(0.0369278 0.0526821 0)
(0.0455109 0.0448447 0)
(0.0524451 0.0367955 0)
(0.057387 0.0275293 0)
(0.0597291 0.0155405 0)
(0.0584426 -0.00137576 0)
(0.0521124 -0.0264297 0)
(0.0388132 -0.0636647 0)
(0.0163982 -0.11799 0)
(-0.0168602 -0.194331 0)
(-0.0597749 -0.295243 0)
(-0.10424 -0.414403 0)
(-0.13063 -0.521299 0)
(-0.11419 -0.533959 0)
(-0.0434521 -0.304734 0)
(-0.02479 0.142359 0)
(-0.0669622 0.249955 0)
(-0.090457 0.270052 0)
(-0.0893328 0.253718 0)
(-0.0722847 0.225135 0)
(-0.0470775 0.194641 0)
(-0.0183307 0.166348 0)
(0.0112019 0.141551 0)
(0.0399346 0.120366 0)
(0.0670203 0.10248 0)
(0.0920431 0.0874536 0)
(0.114846 0.0748475 0)
(0.135421 0.064258 0)
(0.153841 0.0553203 0)
(0.170213 0.0476901 0)
(0.18464 0.041012 0)
(0.19718 0.0348705 0)
(0.207794 0.0287187 0)
(0.216268 0.0217768 0)
(0.222093 0.012894 0)
(0.224164 0.000386578 0)
(0.220976 -0.0180748 0)
(0.210085 -0.0459262 0)
(0.188036 -0.087688 0)
(0.150729 -0.149255 0)
(0.0948441 -0.237256 0)
(0.0221148 -0.355836 0)
(-0.0515066 -0.490431 0)
(-0.094897 -0.567231 0)
(-0.0481887 -0.388463 0)
(-0.039823 0.203031 0)
(-0.0861946 0.28154 0)
(-0.0750399 0.265782 0)
(-0.0334017 0.22792 0)
(0.0192932 0.188926 0)
(0.0735009 0.154742 0)
(0.125059 0.126529 0)
(0.172162 0.103764 0)
(0.214262 0.0855111 0)
(0.251439 0.0708703 0)
(0.284049 0.0590951 0)
(0.312546 0.0495867 0)
(0.337401 0.0418678 0)
(0.359061 0.035551 0)
(0.377922 0.0303074 0)
(0.394306 0.0258311 0)
(0.408439 0.0217995 0)
(0.420409 0.0178216 0)
(0.430095 0.0133709 0)
(0.437059 0.0076911 0)
(0.4404 -0.000316212 0)
(0.438578 -0.0120227 0)
(0.428885 -0.0297223 0)
(0.407523 -0.0566065 0)
(0.369046 -0.0974628 0)
(0.306521 -0.160124 0)
(0.214295 -0.257 0)
(0.0956325 -0.396661 0)
(-0.0288951 -0.537741 0)
(-0.031578 -0.46414 0)
(-0.0328158 0.296304 0)
(-0.0432989 0.27809 0)
(0.0621052 0.204783 0)
(0.167479 0.152777 0)
(0.259661 0.114926 0)
(0.338164 0.086894 0)
(0.404125 0.0664205 0)
(0.459078 0.0514938 0)
(0.504757 0.0404843 0)
(0.5428 0.0322462 0)
(0.574604 0.0260042 0)
(0.601309 0.0212212 0)
(0.623844 0.0175143 0)
(0.642955 0.0146014 0)
(0.659231 0.0122643 0)
(0.673117 0.0103174 0)
(0.684913 0.00858075 0)
(0.694755 0.00685105 0)
(0.702563 0.00487091 0)
(0.707948 0.00229291 0)
(0.710186 -0.0013468 0)
(0.707913 -0.00680539 0)
(0.698702 -0.0150772 0)
(0.679054 -0.0276295 0)
(0.643616 -0.0468938 0)
(0.584252 -0.0778497 0)
(0.489351 -0.132841 0)
(0.344604 -0.238782 0)
(0.132521 -0.405376 0)
(0.0552851 -0.457043 0)
(0.303668 0.181103 0)
(0.384658 0.145498 0)
(0.565808 0.0927264 0)
(0.694277 0.0602048 0)
(0.77808 0.0398602 0)
(0.836916 0.0265751 0)
(0.880254 0.0179413 0)
(0.912754 0.0123659 0)
(0.937498 0.00873127 0)
(0.956684 0.00631956 0)
(0.97183 0.0046902 0)
(0.983978 0.00357019 0)
(0.993863 0.00278597 0)
(1.00201 0.00222402 0)
(1.0088 0.00180645 0)
(1.01449 0.00147466 0)
(1.01923 0.00117744 0)
(1.02307 0.000861417 0)
(1.02591 0.000463933 0)
(1.02752 -9.5177e-05 0)
(1.02738 -0.000885851 0)
(1.02464 -0.00214128 0)
(1.01796 -0.004095 0)
(1.00538 -0.00704821 0)
(0.983742 -0.0115421 0)
(0.947742 -0.0188347 0)
(0.886653 -0.0324698 0)
(0.778674 -0.0643514 0)
(0.545696 -0.140305 0)
(0.382521 -0.202464 0)
)
;

boundaryField
{
    movingWall
    {
        type            fixedValue;
        value           uniform (1.2 0 0);
    }
    fixedWalls
    {
        type            noSlip;
    }
    frontAndBack
    {
        type            empty;
    }
}


// ************************************************************************* //
