/*--------------------------------*- C++ -*----------------------------------*\
  =========                 |
  \\      /  F ield         | OpenFOAM: The Open Source CFD Toolbox
   \\    /   O peration     | Website:  https://openfoam.org
    \\  /    A nd           | Version:  7
     \\/     M anipulation  |
\*---------------------------------------------------------------------------*/
FoamFile
{
    version     2.0;
    format      ascii;
    class       volScalarField;
    location    "500";
    object      epsilon;
}
// * * * * * * * * * * * * * * * * * * * * * * * * * * * * * * * * * * * * * //

dimensions      [0 2 -3 0 0 0 0];

internalField   nonuniform List<scalar> 
4500
(
789.607
724.717
675.056
641.444
616.337
596.999
581.733
569.399
559.236
550.727
543.512
537.331
531.994
527.355
523.302
519.746
516.618
513.86
511.426
509.275
507.376
505.702
504.228
502.934
501.803
500.821
499.972
499.247
498.634
498.125
497.712
497.388
497.148
496.987
496.902
496.891
496.951
497.081
497.28
497.545
497.872
498.255
498.687
499.157
499.654
500.165
500.679
501.18
501.658
502.102
502.503
502.853
503.146
503.381
503.553
503.664
503.713
503.704
503.639
503.521
503.353
503.141
502.889
502.599
502.278
501.929
501.557
501.166
500.76
500.343
499.92
499.493
499.067
498.643
498.247
180.467
258.6
265.807
255.427
244.809
236.24
229.47
224.046
219.618
215.941
212.845
210.208
207.941
205.978
204.268
202.77
201.455
200.297
199.274
198.371
197.573
196.869
196.248
195.702
195.222
194.804
194.442
194.129
193.863
193.64
193.455
193.307
193.194
193.112
193.062
193.041
193.048
193.082
193.143
193.229
193.337
193.466
193.611
193.768
193.932
194.099
194.263
194.421
194.568
194.7
194.815
194.911
194.987
195.041
195.074
195.086
195.078
195.051
195.006
194.946
194.872
194.785
194.687
194.58
194.464
194.343
194.217
194.088
193.956
193.824
193.692
193.562
193.434
193.31
193.195
52.4732
112.464
134.457
135.922
132.522
128.669
125.265
122.401
120.007
117.993
116.284
114.823
113.562
112.469
111.515
110.679
109.944
109.296
108.724
108.219
107.772
107.376
107.028
106.72
106.451
106.215
106.01
105.833
105.682
105.554
105.448
105.362
105.295
105.246
105.214
105.198
105.197
105.211
105.238
105.278
105.329
105.391
105.46
105.536
105.615
105.695
105.774
105.85
105.922
105.986
106.043
106.092
106.131
106.161
106.182
106.194
106.197
106.192
106.179
106.16
106.136
106.106
106.071
106.033
105.991
105.947
105.901
105.853
105.804
105.755
105.707
105.658
105.611
105.565
105.521
18.9423
52.8112
76.111
83.4465
84.1244
82.8547
81.1903
79.5846
78.1513
76.9017
75.8187
74.8793
74.0618
73.3479
72.7222
72.1719
71.6868
71.2581
70.8788
70.5429
70.2455
69.9822
69.7494
69.544
69.3633
69.205
69.067
68.9476
68.8451
68.7582
68.6857
68.6265
68.5797
68.5445
68.5202
68.5063
68.5018
68.5061
68.5189
68.5397
68.5676
68.6018
68.6411
68.6845
68.7307
68.7786
68.827
68.8747
68.9209
68.9646
69.0053
69.0425
69.0757
69.1049
69.1299
69.1507
69.1673
69.1801
69.1893
69.1952
69.198
69.198
69.1953
69.1903
69.1831
69.1741
69.1633
69.1512
69.1377
69.1233
69.108
69.0922
69.0758
69.0592
69.041
8.1872
25.0217
43.8942
53.7537
57.1337
57.7145
57.2786
56.5262
55.7185
54.9491
54.2478
53.6201
53.0624
52.5681
52.1302
51.742
51.3976
51.0917
50.82
50.5786
50.3641
50.1737
50.005
49.8557
49.7242
49.6086
49.5076
49.4199
49.3444
49.2801
49.2261
49.1816
49.146
49.1186
49.099
49.0864
49.0804
49.0804
49.0861
49.0974
49.1138
49.1348
49.1599
49.1887
49.2205
49.2548
49.2909
49.3283
49.3664
49.4046
49.4424
49.4795
49.5154
49.5498
49.5825
49.6132
49.6419
49.6685
49.693
49.7153
49.7355
49.7534
49.7691
49.7826
49.7939
49.8031
49.8102
49.8153
49.8185
49.8198
49.8193
49.8172
49.8135
49.8083
49.7996
4.2188
11.9892
24.7098
34.5695
39.5749
41.5705
42.1325
42.0729
41.7614
41.3618
40.9462
40.5459
40.1736
39.8334
39.5253
39.2478
38.9985
38.7751
38.575
38.3962
38.2364
38.094
37.9673
37.8548
37.7554
37.6677
37.5909
37.524
37.4662
37.4168
37.3751
37.3405
37.3125
37.2906
37.2743
37.2632
37.2569
37.2549
37.2571
37.2635
37.274
37.2885
37.3068
37.3288
37.3544
37.3832
37.4151
37.4495
37.4862
37.5246
37.5644
37.6049
37.6457
37.6864
37.7266
37.7659
37.804
37.8407
37.8757
37.9088
37.9398
37.9685
37.9948
38.0186
38.0397
38.0583
38.0741
38.0872
38.0977
38.1055
38.1107
38.1134
38.1136
38.1114
38.1047
2.53586
6.06763
13.4269
21.5411
27.1065
30.0891
31.4755
32.0206
32.1462
32.069
31.8979
31.6884
31.4685
31.2526
31.0476
30.8568
30.6813
30.521
30.3754
30.2438
30.1251
30.0186
29.9231
29.838
29.7624
29.6955
29.6366
29.5852
29.5406
29.5024
29.47
29.443
29.421
29.4035
29.3902
29.3808
29.375
29.3725
29.3733
29.3775
29.3852
29.3967
29.412
29.4312
29.4546
29.4819
29.513
29.5477
29.5857
29.6263
29.6693
29.7139
29.7596
29.8059
29.8521
29.8978
29.9427
29.9861
30.0279
30.0675
30.1048
30.1395
30.1713
30.2001
30.2258
30.2483
30.2675
30.2833
30.2958
30.305
30.3109
30.3136
30.3132
30.3098
30.3012
1.72014
3.39495
7.19137
12.8165
17.9493
21.4137
23.4192
24.4852
25.0083
25.2292
25.2842
25.2494
25.1674
25.0624
24.9482
24.8326
24.7203
24.6137
24.514
24.4218
24.3374
24.2604
24.1908
24.1281
24.072
24.0221
23.9779
23.9393
23.9056
23.8767
23.8522
23.8317
23.8148
23.8014
23.7911
23.7838
23.7791
23.7772
23.7778
23.7814
23.7883
23.7987
23.8131
23.8317
23.8548
23.8823
23.9143
23.9504
23.9904
24.0337
24.0798
24.1279
24.1775
24.2279
24.2784
24.3284
24.3774
24.4249
24.4703
24.5134
24.5537
24.591
24.6249
24.6554
24.6822
24.7052
24.7244
24.7398
24.7512
24.7589
24.7628
24.7629
24.7595
24.7527
24.7405
1.27853
2.13151
3.97937
7.32524
11.3239
14.7132
17.0625
18.5327
19.4051
19.9031
20.1732
20.3058
20.3557
20.3562
20.3275
20.2824
20.2286
20.1713
20.1134
20.057
20.0032
19.9528
19.9061
19.8633
19.8246
19.7897
19.7587
19.7314
19.7075
19.687
19.6696
19.6551
19.6432
19.6338
19.6267
19.6217
19.6188
19.6181
19.6196
19.6237
19.6308
19.6414
19.6561
19.6751
19.6988
19.7273
19.7605
19.7983
19.8402
19.8857
19.9342
19.9848
20.037
20.09
20.1429
20.1953
20.2463
20.2956
20.3425
20.3866
20.4276
20.465
20.4988
20.5286
20.5543
20.5757
20.593
20.6059
20.6146
20.6191
20.6195
20.6158
20.6083
20.5971
20.5805
1.01869
1.48311
2.38188
4.15478
6.80161
9.62717
11.9836
13.6873
14.8322
15.5744
16.0458
16.3399
16.5189
16.623
16.6785
16.7023
16.7057
16.6961
16.6786
16.6564
16.632
16.6068
16.5819
16.558
16.5356
16.515
16.4964
16.4798
16.4653
16.4528
16.4423
16.4337
16.4268
16.4216
16.4179
16.4157
16.4151
16.4162
16.4192
16.4244
16.4326
16.4441
16.4596
16.4795
16.5042
16.5338
16.5682
16.6073
16.6506
16.6975
16.7474
16.7995
16.853
16.907
16.9609
17.0139
17.0654
17.1147
17.1613
17.2048
17.2447
17.2808
17.3128
17.3404
17.3636
17.3823
17.3964
17.406
17.411
17.4116
17.4078
17.3998
17.3878
17.372
17.351
0.856486
1.12027
1.57153
2.45563
3.97547
5.97825
8.01089
9.72611
11.0249
11.954
12.6007
13.0453
13.349
13.5554
13.6948
13.7877
13.8485
13.8869
13.9097
13.9219
13.9266
13.9265
13.9233
13.9181
13.912
13.9055
13.8991
13.8932
13.888
13.8837
13.8802
13.8776
13.8759
13.8751
13.8752
13.8762
13.8783
13.8817
13.8867
13.8937
13.9033
13.9161
13.9328
13.9538
13.9794
14.0099
14.0452
14.0851
14.1291
14.1766
14.227
14.2794
14.333
14.3869
14.4405
14.4928
14.5434
14.5915
14.6366
14.6782
14.716
14.7497
14.7789
14.8036
14.8236
14.8388
14.8492
14.8549
14.8559
14.8524
14.8444
14.8321
14.8158
14.7956
14.7706
0.751138
0.901882
1.1357
1.57101
2.36209
3.58036
5.07589
6.57156
7.86573
8.89151
9.66657
10.2385
10.6564
10.9608
11.1828
11.345
11.4638
11.551
11.6151
11.6622
11.6969
11.7225
11.7414
11.7553
11.7658
11.7738
11.78
11.7852
11.7896
11.7936
11.7974
11.8012
11.8051
11.8092
11.8134
11.8181
11.8234
11.8295
11.8368
11.846
11.8574
11.8718
11.8897
11.9118
11.9383
11.9695
12.0052
12.0453
12.0894
12.1367
12.1867
12.2384
12.2911
12.344
12.3962
12.447
12.4957
12.5417
12.5844
12.6235
12.6585
12.6891
12.7151
12.7364
12.7528
12.7643
12.771
12.7728
12.7699
12.7624
12.7505
12.7343
12.7141
12.6901
12.6616
0.681084
0.763094
0.884561
1.10001
1.49244
2.15026
3.09086
4.2063
5.32813
6.32978
7.15924
7.81699
8.32691
8.71822
9.01769
9.24721
9.42379
9.56035
9.6666
9.74982
9.81548
9.86769
9.90958
9.94353
9.97136
9.99448
10.014
10.0307
10.0452
10.0582
10.0698
10.0805
10.0904
10.0998
10.1088
10.1175
10.1264
10.1357
10.1458
10.1574
10.1709
10.187
10.2064
10.2295
10.2567
10.2882
10.324
10.3638
10.4073
10.4538
10.5026
10.553
10.6041
10.6551
10.7053
10.7538
10.8
10.8433
10.8832
10.9193
10.9511
10.9785
11.0011
11.0189
11.0318
11.0398
11.0428
11.0411
11.0346
11.0236
11.0082
10.9887
10.9652
10.9381
10.9069
0.63403
0.671598
0.730768
0.83575
1.02644
1.35691
1.87632
2.58645
3.41896
4.27087
5.05819
5.73808
6.30134
6.75721
7.12188
7.41233
7.64372
7.8286
7.97704
8.09693
8.19441
8.27426
8.34018
8.39508
8.44121
8.48035
8.51389
8.54294
8.56838
8.59089
8.61101
8.62917
8.64572
8.66095
8.67511
8.68851
8.70145
8.71434
8.72765
8.74193
8.7578
8.77583
8.79662
8.82072
8.84849
8.88014
8.91565
8.95482
8.99726
9.0424
9.08959
9.13805
9.18702
9.23568
9.28329
9.32911
9.37249
9.41286
9.44971
9.48262
9.51125
9.53534
9.55471
9.56922
9.57883
9.58354
9.58341
9.57852
9.56902
9.55508
9.5369
9.51473
9.4888
9.45939
9.4263
0.602484
0.610007
0.63217
0.67868
0.768007
0.927183
1.19007
1.58499
2.11209
2.73181
3.38151
4.0041
4.56404
5.04728
5.45396
5.79146
6.06965
6.29853
6.48706
6.64286
6.7722
6.88018
6.97088
7.04758
7.11291
7.16897
7.21745
7.25969
7.2968
7.32966
7.35896
7.38528
7.4091
7.4308
7.45075
7.4693
7.48684
7.5038
7.52068
7.53804
7.55649
7.57663
7.59901
7.62416
7.65245
7.6841
7.71913
7.75737
7.79847
7.84193
7.88711
7.93332
7.97981
8.02583
8.07065
8.11358
8.15398
8.19132
8.22511
8.25495
8.28051
8.30155
8.31791
8.32948
8.33623
8.33816
8.33536
8.32793
8.31603
8.29985
8.2796
8.25554
8.22792
8.19703
8.16285
0.581598
0.568258
0.567053
0.580682
0.61734
0.689625
0.815044
1.01459
1.30566
1.69024
2.14768
2.64103
3.13178
3.59126
4.00373
4.36394
4.67321
4.93622
5.15888
5.34716
5.50658
5.64194
5.75733
5.85616
5.94124
6.01491
6.07908
6.1353
6.18487
6.22884
6.26807
6.30326
6.33502
6.36385
6.39019
6.41448
6.43715
6.45867
6.47956
6.50038
6.52173
6.54421
6.56838
6.5947
6.62357
6.65522
6.68971
6.72692
6.76654
6.80815
6.85116
6.89496
6.93883
6.9821
7.02406
7.06407
7.10155
7.13595
7.16684
7.19382
7.2166
7.23494
7.2487
7.25779
7.26217
7.2619
7.25703
7.24771
7.23411
7.2164
7.19484
7.16966
7.14115
7.10958
7.07508
0.568079
0.540126
0.523431
0.51743
0.525304
0.552668
0.607669
0.701329
0.846657
1.05501
1.32993
1.66241
2.03209
2.41414
2.7866
3.13432
3.44925
3.72875
3.97363
4.1866
4.37111
4.53081
4.66914
4.78922
4.89377
4.98515
5.06535
5.13605
5.19867
5.25438
5.3042
5.34893
5.38929
5.42588
5.45923
5.48983
5.51818
5.54477
5.57013
5.59484
5.61946
5.64459
5.67078
5.6985
5.72813
5.75991
5.79395
5.83017
5.86835
5.9081
5.94896
5.99034
6.03163
6.07218
6.11137
6.1486
6.18331
6.21501
6.24326
6.26772
6.28809
6.30417
6.31581
6.32293
6.32553
6.32364
6.31737
6.30684
6.29222
6.27373
6.25158
6.22604
6.19736
6.16585
6.13174
0.559602
0.521507
0.494215
0.475854
0.467123
0.470264
0.488837
0.527918
0.594281
0.695973
0.840597
1.03225
1.26844
1.53938
1.83035
2.12588
2.41303
2.68294
2.93066
3.15433
3.35412
3.53139
3.68811
3.82648
3.94865
4.05666
4.15237
4.2374
4.31317
4.38093
4.44173
4.49648
4.54595
4.59084
4.63173
4.66919
4.70373
4.73589
4.76621
4.79523
4.82354
4.85171
4.88026
4.90967
4.94034
4.97251
5.00631
5.04174
5.07864
5.11671
5.15555
5.19467
5.23354
5.27157
5.3082
5.34287
5.37509
5.40438
5.43036
5.45269
5.47109
5.48537
5.4954
5.50111
5.50251
5.49964
5.49259
5.4815
5.46655
5.44794
5.42589
5.40066
5.37251
5.34172
5.30862
0.5545
0.509542
0.474918
0.448452
0.429644
0.419073
0.418104
0.428877
0.454437
0.498844
0.567017
0.66401
0.793577
0.956396
1.14891
1.36364
1.59092
1.82102
2.04586
2.25963
2.45884
2.64182
2.80825
2.95863
3.09399
3.21557
3.32472
3.42274
3.51088
3.59026
3.66191
3.72673
3.78552
3.83899
3.88778
3.93248
3.97364
4.01179
4.04748
4.08127
4.11369
4.14529
4.1766
4.20808
4.24013
4.27303
4.30694
4.3419
4.37782
4.4145
4.45161
4.48875
4.52546
4.56125
4.59561
4.62806
4.65812
4.68538
4.70948
4.7301
4.74698
4.75996
4.7689
4.77375
4.77451
4.77122
4.764
4.75296
4.73829
4.72018
4.69884
4.67453
4.6475
4.61802
4.58649
0.551578
0.502159
0.462517
0.430613
0.405436
0.386738
0.374813
0.370408
0.374735
0.389544
0.417193
0.460615
0.52306
0.607482
0.715642
0.847209
0.999339
1.16703
1.34408
1.52425
1.70217
1.87373
2.03619
2.18798
2.32843
2.4575
2.57558
2.68331
2.78145
2.8708
2.95218
3.02636
3.09404
3.15591
3.21257
3.2646
3.31254
3.35694
3.3983
3.43717
3.47406
3.50949
3.54395
3.57791
3.61176
3.64578
3.6802
3.7151
3.75045
3.78612
3.82188
3.85741
3.89233
3.92624
3.9587
3.98928
4.01757
4.0432
4.06582
4.08516
4.10098
4.11311
4.12145
4.12594
4.12657
4.12341
4.11654
4.10609
4.09224
4.07516
4.05507
4.0322
4.0068
3.97914
3.94963
0.549997
0.497833
0.454862
0.419311
0.390008
0.366314
0.347991
0.335115
0.328033
0.327378
0.334101
0.349515
0.375307
0.413461
0.46604
0.534794
0.620652
0.723263
0.840805
0.970169
1.10746
1.24861
1.38992
1.52835
1.66166
1.78835
1.90755
2.01888
2.1223
2.21804
2.30644
2.38795
2.46305
2.53225
2.59605
2.65494
2.7094
2.75991
2.80695
2.851
2.89254
2.93204
2.96998
3.00677
3.0428
3.07838
3.11374
3.14901
3.18423
3.21934
3.25418
3.28853
3.32209
3.35452
3.38548
3.41459
3.4415
3.46587
3.48742
3.50589
3.52106
3.53277
3.54094
3.5455
3.54646
3.54387
3.53782
3.52842
3.51584
3.50025
3.48185
3.46087
3.43753
3.41209
3.38498
0.549196
0.49545
0.450382
0.412443
0.380459
0.353629
0.331457
0.313683
0.300245
0.291252
0.28699
0.287933
0.294771
0.308424
0.330031
0.360892
0.402324
0.455437
0.520857
0.598475
0.687317
0.785601
0.890966
1.00079
1.11252
1.22388
1.33303
1.43859
1.53959
1.63545
1.72586
1.81073
1.89013
1.96423
2.03329
2.0976
2.1575
2.21335
2.26552
2.31441
2.36042
2.40397
2.44545
2.48526
2.52373
2.56119
2.59786
2.63392
2.66943
2.70442
2.73878
2.77238
2.805
2.83637
2.86622
2.89424
2.92015
2.94365
2.96448
2.98243
2.99731
3.00897
3.01733
3.02234
3.024
3.02235
3.01749
3.00951
2.99857
2.98484
2.9685
2.94976
2.92883
2.90595
2.88156
0.54882
0.494229
0.447927
0.408498
0.374812
0.346017
0.321496
0.300829
0.283749
0.270116
0.259909
0.253214
0.250232
0.251294
0.256863
0.267551
0.2841
0.307348
0.338153
0.377272
0.42521
0.482078
0.54749
0.620553
0.699939
0.784044
0.871158
0.959633
1.048
1.13505
1.21982
1.30161
1.37995
1.45456
1.52529
1.59213
1.65514
1.71448
1.77034
1.82297
1.87263
1.91964
1.9643
2.00693
2.04781
2.08723
2.12539
2.16248
2.1986
2.2338
2.26805
2.30127
2.33332
2.36399
2.39309
2.42036
2.44559
2.46852
2.48895
2.50668
2.52155
2.53345
2.54228
2.54802
2.55067
2.55026
2.54687
2.54062
2.53162
2.52004
2.50605
2.48984
2.4716
2.45156
2.43014
0.548657
0.493654
0.446683
0.406388
0.371673
0.341678
0.31574
0.293358
0.274166
0.257902
0.244398
0.233559
0.225367
0.219876
0.217213
0.217587
0.221296
0.228722
0.240335
0.25667
0.278288
0.305721
0.339393
0.379536
0.426116
0.478796
0.536941
0.599666
0.665923
0.734598
0.804597
0.874923
0.944711
1.01325
1.08
1.14455
1.20663
1.26608
1.32284
1.37691
1.42839
1.4774
1.52411
1.56871
1.6114
1.65237
1.69181
1.72985
1.7666
1.80213
1.83644
1.86948
1.90118
1.9314
1.95998
1.98675
2.01152
2.03411
2.05434
2.07206
2.08714
2.09947
2.109
2.11568
2.11952
2.12057
2.11889
2.11458
2.10776
2.09858
2.08718
2.07374
2.05844
2.04148
2.02325
0.548592
0.493406
0.446107
0.405351
0.370059
0.339371
0.312608
0.289233
0.268829
0.251075
0.235728
0.222608
0.211595
0.202617
0.19565
0.190716
0.187888
0.187286
0.189086
0.193519
0.200869
0.211469
0.225679
0.243868
0.26637
0.293444
0.325224
0.361685
0.402618
0.447632
0.496179
0.547597
0.601163
0.656143
0.71184
0.767623
0.822951
0.877379
0.930564
0.982251
1.03228
1.08055
1.12703
1.17175
1.21475
1.25611
1.29592
1.33424
1.37115
1.40668
1.44083
1.47359
1.5049
1.53467
1.56278
1.5891
1.6135
1.63583
1.65596
1.67378
1.68917
1.70206
1.71241
1.72018
1.72539
1.72806
1.72828
1.72612
1.72168
1.71511
1.70653
1.69609
1.68396
1.67032
1.6555
0.548569
0.49331
0.445866
0.40489
0.369304
0.338249
0.311036
0.287114
0.266042
0.247465
0.231105
0.216739
0.204196
0.193345
0.184094
0.176382
0.17018
0.165488
0.162338
0.160793
0.160948
0.162932
0.16691
0.173077
0.181656
0.192888
0.207013
0.224254
0.244788
0.268723
0.296073
0.326745
0.360535
0.397131
0.43614
0.477107
0.519551
0.56299
0.606969
0.651076
0.694955
0.738312
0.780914
0.822586
0.8632
0.902674
0.940952
0.978
1.01379
1.0483
1.0815
1.11334
1.14377
1.17271
1.20006
1.22573
1.24961
1.27159
1.29157
1.30947
1.3252
1.33871
1.34996
1.35893
1.36564
1.37012
1.37242
1.37261
1.37079
1.36707
1.36155
1.35437
1.34566
1.33558
1.32441
0.548561
0.493276
0.445775
0.404707
0.368989
0.337759
0.310324
0.286125
0.264707
0.245702
0.22881
0.213787
0.200435
0.188595
0.17814
0.168972
0.161016
0.154218
0.148548
0.143992
0.140556
0.138266
0.137167
0.137327
0.138831
0.141788
0.146325
0.152588
0.160731
0.170914
0.183288
0.197982
0.215091
0.23466
0.256675
0.281051
0.30764
0.336229
0.366557
0.398326
0.431223
0.464931
0.499145
0.533586
0.568001
0.602173
0.635914
0.669064
0.701488
0.733068
0.763699
0.793282
0.821723
0.848928
0.87481
0.899262
0.922189
0.943504
0.963123
0.980972
0.996989
1.01113
1.02335
1.03365
1.04203
1.0485
1.05311
1.0559
1.05696
1.05634
1.05416
1.05049
1.04546
1.03918
1.03187
0.548559
0.493266
0.445745
0.404642
0.368873
0.337571
0.31004
0.285716
0.264139
0.24493
0.227779
0.212432
0.198676
0.186338
0.175272
0.165362
0.156511
0.148642
0.141694
0.13562
0.13039
0.125983
0.122391
0.11962
0.117686
0.116617
0.116455
0.117254
0.11908
0.122013
0.126141
0.131562
0.138377
0.146688
0.156586
0.168149
0.18143
0.196453
0.213204
0.231628
0.251631
0.27308
0.295813
0.319639
0.344356
0.369751
0.395614
0.42174
0.447937
0.474022
0.499829
0.525203
0.550002
0.574095
0.597367
0.619699
0.640982
0.661118
0.680017
0.697598
0.713791
0.72854
0.741797
0.75353
0.763722
0.772366
0.779473
0.785063
0.789173
0.791849
0.793146
0.793129
0.791873
0.789462
0.786047
0.548558
0.493263
0.445735
0.404622
0.368836
0.337509
0.309944
0.285572
0.26393
0.244636
0.227375
0.211885
0.197946
0.185378
0.174026
0.163764
0.154484
0.146098
0.138532
0.131724
0.125625
0.120197
0.11541
0.111242
0.10768
0.10472
0.102362
0.100617
0.0995
0.0990368
0.0992588
0.100205
0.101923
0.104466
0.107892
0.112265
0.117648
0.124103
0.131689
0.140451
0.150425
0.161624
0.174045
0.187656
0.202407
0.21822
0.234997
0.252625
0.270973
0.289903
0.309269
0.328925
0.348723
0.368519
0.388175
0.407558
0.426534
0.444978
0.462769
0.479796
0.495958
0.511162
0.525326
0.538382
0.550273
0.560954
0.570396
0.578581
0.585508
0.591184
0.595633
0.598886
0.600986
0.601987
0.601975
0.548558
0.493263
0.445733
0.404617
0.368827
0.337493
0.309918
0.285532
0.26387
0.244548
0.227249
0.211707
0.197701
0.185045
0.173583
0.163183
0.153733
0.145139
0.137321
0.130213
0.123758
0.11791
0.112631
0.10789
0.103663
0.099932
0.0966848
0.0939146
0.0916196
0.0898032
0.0884736
0.087644
0.0873325
0.0875623
0.0883613
0.0897627
0.0918038
0.0945264
0.0979754
0.102198
0.107243
0.113155
0.119979
0.12775
0.136496
0.146231
0.156956
0.168655
0.181293
0.194817
0.209156
0.224222
0.23991
0.256104
0.272677
0.289497
0.306422
0.323308
0.340013
0.356394
0.372316
0.387653
0.402286
0.416112
0.429036
0.440982
0.451886
0.461702
0.470396
0.477952
0.484367
0.489651
0.493826
0.496927
0.499005
0.548558
0.493263
0.445733
0.404617
0.368827
0.337493
0.309918
0.285532
0.26387
0.244548
0.227249
0.211707
0.197701
0.185045
0.173583
0.163183
0.153733
0.145138
0.137321
0.130212
0.123758
0.11791
0.112631
0.10789
0.103663
0.0999317
0.0966844
0.0939141
0.0916191
0.0898026
0.0884729
0.0876432
0.0873316
0.0875612
0.0883602
0.0897614
0.0918024
0.0945249
0.097974
0.102197
0.107242
0.113155
0.119981
0.127754
0.136503
0.146243
0.156974
0.168682
0.181331
0.19487
0.209227
0.224315
0.24003
0.256255
0.272861
0.289714
0.306678
0.323605
0.340352
0.356774
0.372737
0.388111
0.402778
0.416632
0.429579
0.441542
0.452456
0.462276
0.470968
0.478516
0.484918
0.490184
0.494338
0.497413
0.499462
0.548558
0.493263
0.445735
0.404622
0.368836
0.337509
0.309944
0.285572
0.26393
0.244636
0.227375
0.211884
0.197946
0.185377
0.174026
0.163763
0.154484
0.146097
0.138531
0.131722
0.125623
0.120195
0.115407
0.111239
0.107677
0.104716
0.102357
0.100611
0.0994936
0.0990294
0.0992502
0.100196
0.101912
0.104453
0.107877
0.112248
0.117628
0.124081
0.131665
0.140426
0.150398
0.161598
0.174021
0.187638
0.202398
0.218226
0.235025
0.252682
0.271069
0.290049
0.309478
0.329208
0.349093
0.368987
0.388748
0.408242
0.427338
0.445903
0.463814
0.480956
0.497224
0.512523
0.526768
0.539889
0.551826
0.562535
0.571987
0.580165
0.587067
0.592704
0.597099
0.600285
0.602307
0.603221
0.603118
0.548559
0.493266
0.445745
0.404642
0.368873
0.337571
0.31004
0.285716
0.264138
0.244929
0.227779
0.212431
0.198675
0.186336
0.175271
0.16536
0.156509
0.148639
0.14169
0.135616
0.130384
0.125976
0.122383
0.119611
0.117674
0.116603
0.116439
0.117235
0.119058
0.121987
0.126111
0.131527
0.138337
0.146641
0.156532
0.168088
0.181362
0.196378
0.213122
0.23154
0.25154
0.272991
0.295729
0.319569
0.344308
0.369738
0.39565
0.421841
0.448122
0.474311
0.500241
0.525759
0.550719
0.574988
0.59844
0.620965
0.642443
0.662768
0.681845
0.699589
0.715925
0.730791
0.744139
0.755935
0.766159
0.774807
0.781888
0.787427
0.791461
0.794037
0.795215
0.795063
0.793655
0.791083
0.787501
0.548561
0.493276
0.445775
0.404707
0.368988
0.337758
0.310324
0.286124
0.264706
0.245701
0.228808
0.213785
0.200432
0.188591
0.178136
0.168967
0.161009
0.15421
0.148538
0.143979
0.14054
0.138247
0.137145
0.1373
0.138799
0.14175
0.146281
0.152535
0.160669
0.170842
0.183204
0.197885
0.21498
0.234535
0.256534
0.280896
0.30747
0.336046
0.366364
0.398127
0.431024
0.464739
0.498972
0.533444
0.567909
0.60215
0.635983
0.669252
0.701821
0.733574
0.764404
0.794209
0.822889
0.850346
0.876484
0.901195
0.924374
0.945924
0.965754
0.983785
0.99995
1.0142
1.02649
1.03682
1.04519
1.05161
1.05614
1.05882
1.05972
1.05894
1.05656
1.05268
1.04742
1.0409
1.03335
0.548569
0.49331
0.445866
0.404889
0.369303
0.338248
0.311035
0.287112
0.266039
0.247462
0.2311
0.216733
0.204189
0.193336
0.184083
0.176368
0.170163
0.165467
0.162313
0.160762
0.16091
0.162886
0.166855
0.173011
0.181577
0.192794
0.206902
0.224124
0.244637
0.268549
0.295875
0.326523
0.360287
0.39686
0.435846
0.476793
0.51922
0.562646
0.606619
0.650726
0.694617
0.737999
0.780643
0.822378
0.863082
0.902673
0.941102
0.978334
1.01434
1.0491
1.08258
1.11472
1.14546
1.17471
1.20239
1.22837
1.25253
1.27477
1.29497
1.31305
1.32891
1.3425
1.35378
1.36273
1.36938
1.37375
1.3759
1.37591
1.37387
1.3699
1.36412
1.35666
1.34765
1.33726
1.32578
0.548592
0.493406
0.446106
0.40535
0.370057
0.339369
0.312604
0.289228
0.268823
0.251067
0.235717
0.222595
0.211579
0.202597
0.195624
0.190685
0.187849
0.187238
0.189027
0.193447
0.200782
0.211362
0.225551
0.243714
0.266187
0.293228
0.324974
0.361399
0.402295
0.447272
0.495784
0.54717
0.600707
0.655662
0.711337
0.767104
0.822421
0.876845
0.930033
0.981737
1.03179
1.08011
1.12667
1.17149
1.21464
1.25617
1.2962
1.33478
1.37198
1.40783
1.44234
1.47547
1.50715
1.53729
1.56577
1.59243
1.61712
1.63971
1.66005
1.67802
1.69351
1.70645
1.71677
1.72448
1.72956
1.73207
1.73208
1.72967
1.72497
1.71809
1.70919
1.69841
1.68593
1.67193
1.65676
0.548657
0.493653
0.446681
0.406385
0.371669
0.341672
0.315732
0.293348
0.274153
0.257886
0.244376
0.233532
0.225333
0.219833
0.217159
0.21752
0.221212
0.228618
0.240206
0.256511
0.278094
0.305486
0.339112
0.379205
0.425732
0.478359
0.536451
0.599127
0.66534
0.733974
0.80394
0.874238
0.944004
1.01253
1.07927
1.14381
1.20589
1.26535
1.32212
1.37624
1.42777
1.47686
1.52368
1.56843
1.61131
1.65253
1.69225
1.73062
1.76774
1.80366
1.83839
1.87186
1.90398
1.93462
1.96359
1.9907
2.01577
2.0386
2.05901
2.07685
2.09199
2.10431
2.11377
2.12033
2.12401
2.12484
2.1229
2.1183
2.11116
2.10163
2.08987
2.07606
2.06038
2.04304
2.02444
0.54882
0.494228
0.447924
0.408492
0.374804
0.346005
0.321481
0.300809
0.283722
0.270083
0.259867
0.253159
0.250163
0.251206
0.256753
0.267411
0.283923
0.307126
0.337878
0.376935
0.424804
0.481598
0.546935
0.619922
0.699239
0.783281
0.870341
0.958771
1.04711
1.13412
1.21887
1.30065
1.37898
1.45358
1.52431
1.59116
1.65419
1.71355
1.76945
1.82213
1.87188
1.919
1.96382
2.00664
2.04777
2.08749
2.126
2.16349
2.20004
2.2357
2.27043
2.30412
2.33662
2.36773
2.39721
2.42483
2.45033
2.47348
2.49405
2.51186
2.52675
2.53859
2.54732
2.5529
2.55533
2.55466
2.55098
2.5444
2.53506
2.52311
2.50874
2.49215
2.47352
2.4531
2.43131
0.549195
0.495446
0.450375
0.412431
0.380442
0.353607
0.331427
0.313645
0.300196
0.291189
0.286908
0.287827
0.294635
0.308247
0.329804
0.360602
0.401957
0.454981
0.520302
0.597814
0.68655
0.784734
0.890009
0.999757
1.11142
1.22273
1.33185
1.43738
1.53837
1.63422
1.72463
1.8095
1.8889
1.96301
2.03208
2.09641
2.15633
2.21222
2.26444
2.31341
2.35953
2.40322
2.4449
2.48495
2.52373
2.56155
2.59863
2.63514
2.67114
2.70663
2.7415
2.7756
2.80869
2.8405
2.87073
2.89907
2.92523
2.9489
2.96985
2.98783
3.00268
3.01425
3.02246
3.02727
3.02868
3.02675
3.02157
3.01325
3.00196
2.98786
2.97115
2.95203
2.93072
2.90748
2.88275
0.549994
0.497825
0.454848
0.419289
0.389977
0.366273
0.347938
0.335046
0.327943
0.32726
0.333945
0.34931
0.375036
0.413106
0.46558
0.534211
0.61993
0.722395
0.839792
0.969022
1.1062
1.24725
1.38849
1.52687
1.66014
1.78681
1.906
2.01733
2.12076
2.21651
2.30492
2.38644
2.46156
2.53078
2.5946
2.65351
2.70801
2.75856
2.80567
2.84981
2.89149
2.93117
2.96934
3.00642
3.0428
3.07879
3.1146
3.15037
3.18612
3.22176
3.25714
3.292
3.32603
3.35888
3.39019
3.41959
3.44671
3.47122
3.49284
3.5113
3.52639
3.53798
3.54597
3.5503
3.551
3.54811
3.54174
3.532
3.51907
3.50313
3.48438
3.46304
3.43936
3.41359
3.38619
0.551572
0.502144
0.462491
0.430575
0.405384
0.386669
0.374721
0.370286
0.374571
0.389323
0.416894
0.460212
0.522523
0.606781
0.714752
0.846117
0.99805
1.16556
1.34246
1.52252
1.70035
1.87185
2.03428
2.18606
2.3265
2.45559
2.57368
2.68143
2.77959
2.86897
2.95037
3.02457
3.09228
3.15417
3.21085
3.26291
3.3109
3.35535
3.3968
3.43578
3.47282
3.50846
3.54319
3.57748
3.6117
3.64617
3.68108
3.71651
3.75241
3.78863
3.82492
3.86095
3.89633
3.93063
3.96341
3.99424
4.02269
4.04841
4.07106
4.09035
4.10607
4.11804
4.12617
4.13042
4.13078
4.12732
4.12014
4.10937
4.09519
4.07778
4.05738
4.0342
4.0085
3.98057
3.95082
0.55449
0.509515
0.474874
0.448389
0.429558
0.418956
0.417945
0.428659
0.454136
0.498425
0.566438
0.663225
0.792544
0.95509
1.14733
1.36182
1.58889
1.81885
2.04358
2.25729
2.45647
2.63945
2.80589
2.95629
3.09168
3.2133
3.32248
3.42053
3.5087
3.58811
3.65979
3.72464
3.78346
3.83696
3.88578
3.93051
3.97171
4.00993
4.04571
4.07962
4.11222
4.14405
4.17565
4.20748
4.23994
4.2733
4.30773
4.34323
4.37971
4.41693
4.45456
4.49217
4.5293
4.56544
4.60008
4.63271
4.6629
4.69021
4.71429
4.73482
4.75157
4.76437
4.77309
4.7777
4.77818
4.77462
4.7671
4.75577
4.7408
4.7224
4.7008
4.67623
4.64896
4.61928
4.58758
0.559583
0.521462
0.494144
0.475753
0.466982
0.470068
0.48856
0.527523
0.593716
0.69517
0.839487
1.03078
1.2666
1.53718
1.82787
2.12319
2.41021
2.68004
2.92774
3.15142
3.35124
3.52855
3.68532
3.82373
3.94595
4.05401
4.14976
4.23483
4.31065
4.37844
4.43927
4.49405
4.54356
4.58847
4.62939
4.66688
4.70148
4.7337
4.76411
4.79328
4.82177
4.85018
4.87903
4.90881
4.9399
4.97255
5.00687
5.04284
5.08027
5.11886
5.15818
5.19774
5.23697
5.27529
5.31214
5.34696
5.37925
5.40855
5.43447
5.45668
5.47492
5.48901
5.49882
5.50429
5.50543
5.50229
5.49498
5.48363
5.46843
5.44959
5.42733
5.40191
5.37359
5.34267
5.30949
0.568046
0.540055
0.523319
0.517269
0.525073
0.552333
0.607175
0.700596
0.845582
1.05349
1.3279
1.65988
2.02915
2.41088
2.78314
3.13077
3.44567
3.72519
3.97012
4.18314
4.36773
4.52749
4.66589
4.78604
4.89065
4.98209
5.06234
5.13308
5.19574
5.2515
5.30134
5.34611
5.3865
5.42311
5.45649
5.48713
5.51553
5.54219
5.56765
5.59249
5.6173
5.64268
5.66917
5.69727
5.72732
5.75958
5.79411
5.83084
5.86952
5.90975
5.95103
5.99278
6.03438
6.07518
6.11453
6.15185
6.18657
6.21823
6.24639
6.27071
6.29091
6.30678
6.31819
6.32508
6.32744
6.32532
6.31881
6.30807
6.29326
6.27459
6.25229
6.22663
6.19787
6.16631
6.1322
0.581544
0.568148
0.56688
0.580426
0.616956
0.689037
0.814135
1.0132
1.30366
1.68754
2.14433
2.63718
3.1276
3.58692
3.99935
4.35958
4.66893
4.93203
5.15478
5.34317
5.50268
5.63813
5.7536
5.8525
5.93765
6.01138
6.0756
6.13187
6.18148
6.22549
6.26475
6.29998
6.33176
6.36062
6.38699
6.41131
6.43403
6.45561
6.4766
6.49756
6.51909
6.54181
6.56627
6.59295
6.62223
6.65432
6.68927
6.72694
6.76702
6.80903
6.85242
6.89651
6.94063
6.98407
7.02613
7.06618
7.10361
7.13793
7.16869
7.19551
7.2181
7.23624
7.24978
7.25865
7.26282
7.26234
7.25728
7.2478
7.23404
7.21623
7.19459
7.16937
7.14085
7.10932
7.07491
0.6024
0.609839
0.631903
0.678265
0.767348
0.926113
1.18836
1.58242
2.10857
2.72746
3.37659
3.99885
4.55868
5.04194
5.44872
5.78634
6.06468
6.2937
6.48236
6.63828
6.76773
6.8758
6.96659
7.04337
7.10876
7.16488
7.21341
7.2557
7.29286
7.32575
7.35508
7.38143
7.40527
7.427
7.44697
7.46555
7.48314
7.50016
7.51713
7.53461
7.55324
7.5736
7.59626
7.62173
7.65039
7.68243
7.71787
7.75652
7.798
7.84179
7.88726
7.9337
7.98036
8.02648
8.07133
8.11423
8.15455
8.19176
8.22539
8.25504
8.2804
8.30124
8.31739
8.32876
8.33532
8.33709
8.33414
8.32659
8.31461
8.29837
8.27811
8.25408
8.22653
8.19577
8.16177
0.633903
0.671346
0.73035
0.835057
1.02526
1.35491
1.87316
2.582
3.41343
4.26465
5.05167
5.73151
6.29488
6.75093
7.1158
7.40645
7.63802
7.82307
7.97166
8.09167
8.18926
8.26921
8.33522
8.3902
8.43639
8.47559
8.50918
8.53828
8.56375
8.5863
8.60645
8.62464
8.64121
8.65645
8.67064
8.68406
8.69704
8.70998
8.72337
8.73777
8.75378
8.77201
8.79305
8.81743
8.84551
8.87749
8.91334
8.95283
8.99556
9.04096
9.08834
9.13695
9.186
9.23469
9.28226
9.328
9.37125
9.41144
9.4481
9.4808
9.50922
9.53311
9.55227
9.56661
9.57606
9.58064
9.5804
9.57545
9.56592
9.55199
9.53387
9.5118
9.48603
9.45683
9.424
0.680892
0.762711
0.883889
1.0988
1.49025
2.14654
3.08538
4.19938
5.32037
6.32173
7.15124
7.80921
8.3194
8.711
9.01073
9.24048
9.41726
9.554
9.6604
9.74375
9.80952
9.86183
9.9038
9.93782
9.96572
9.98889
10.0084
10.0252
10.0398
10.0527
10.0644
10.0751
10.0851
10.0945
10.1035
10.1122
10.1211
10.1304
10.1407
10.1523
10.166
10.1822
10.2018
10.2251
10.2525
10.2843
10.3203