/*--------------------------------*- C++ -*----------------------------------*\
  =========                 |
  \\      /  F ield         | OpenFOAM: The Open Source CFD Toolbox
   \\    /   O peration     | Website:  https://openfoam.org
    \\  /    A nd           | Version:  7
     \\/     M anipulation  |
\*---------------------------------------------------------------------------*/
FoamFile
{
    version     2.0;
    format      ascii;
    class       volScalarField;
    location    "500";
    object      k;
}
// * * * * * * * * * * * * * * * * * * * * * * * * * * * * * * * * * * * * * //

dimensions      [0 2 -2 0 0 0 0];

internalField   nonuniform List<scalar> 
4500
(
2.10711
1.99003
1.89804
1.8345
1.78632
1.74875
1.71881
1.69443
1.67421
1.65718
1.64268
1.6302
1.61939
1.60996
1.6017
1.59444
1.58803
1.58238
1.57737
1.57295
1.56904
1.56558
1.56254
1.55986
1.55753
1.55549
1.55374
1.55223
1.55096
1.54991
1.54905
1.54838
1.54788
1.54754
1.54736
1.54733
1.54745
1.54772
1.54812
1.54867
1.54934
1.55013
1.55102
1.552
1.55303
1.55411
1.55519
1.55625
1.55727
1.55823
1.55911
1.55988
1.56054
1.56108
1.5615
1.56179
1.56195
1.562
1.56192
1.56173
1.56144
1.56106
1.56059
1.56003
1.55941
1.55873
1.55799
1.55721
1.5564
1.55556
1.5547
1.55383
1.55295
1.55208
1.55126
1.10354
1.6732
1.8379
1.85191
1.83283
1.80901
1.78664
1.7669
1.74973
1.73484
1.72188
1.71057
1.70066
1.69195
1.68428
1.6775
1.67151
1.6662
1.66151
1.65736
1.6537
1.65047
1.64764
1.64516
1.64301
1.64115
1.63956
1.63823
1.63712
1.63622
1.63552
1.63499
1.63465
1.63446
1.63443
1.63455
1.63481
1.63521
1.63574
1.63641
1.63721
1.63812
1.63914
1.64023
1.64138
1.64257
1.64377
1.64495
1.64609
1.64717
1.64818
1.64909
1.64989
1.65058
1.65115
1.6516
1.65192
1.65212
1.65221
1.65218
1.65204
1.65181
1.65148
1.65107
1.65058
1.65002
1.6494
1.64872
1.648
1.64724
1.64645
1.64564
1.64481
1.64397
1.64316
0.644943
1.23225
1.53537
1.63719
1.66542
1.66864
1.66318
1.65482
1.64581
1.63702
1.62881
1.62129
1.61447
1.60833
1.60283
1.5979
1.59351
1.5896
1.58613
1.58307
1.58037
1.578
1.57594
1.57416
1.57264
1.57135
1.57029
1.56942
1.56875
1.56825
1.56791
1.56772
1.56767
1.56776
1.56797
1.56832
1.56877
1.56935
1.57004
1.57086
1.57179
1.57284
1.574
1.57525
1.57658
1.57797
1.57941
1.58086
1.58231
1.58374
1.58511
1.58642
1.58765
1.58878
1.5898
1.5907
1.59147
1.59211
1.59263
1.59301
1.59326
1.59339
1.59339
1.59327
1.59305
1.59271
1.59228
1.59175
1.59113
1.59044
1.58968
1.58886
1.58799
1.58707
1.58612
0.463615
0.893401
1.25805
1.43575
1.5127
1.54555
1.55894
1.56332
1.56337
1.56132
1.55829
1.55487
1.55137
1.54798
1.54477
1.54181
1.5391
1.53665
1.53446
1.53253
1.53083
1.52936
1.52811
1.52705
1.52619
1.5255
1.52498
1.52461
1.52439
1.52431
1.52436
1.52452
1.5248
1.52518
1.52567
1.52626
1.52694
1.52772
1.5286
1.5296
1.53071
1.53195
1.53331
1.53479
1.53637
1.53806
1.53983
1.54165
1.54351
1.54538
1.54723
1.54904
1.55079
1.55244
1.55398
1.5554
1.55668
1.55781
1.55878
1.55959
1.56023
1.56071
1.56103
1.56118
1.56117
1.561
1.56069
1.56024
1.55966
1.55895
1.55813
1.5572
1.55618
1.55508
1.55389
0.39407
0.646738
0.998479
1.23088
1.35547
1.4206
1.45545
1.47456
1.48513
1.49089
1.49385
1.49516
1.49547
1.49521
1.49462
1.49387
1.49306
1.49226
1.49151
1.49084
1.49026
1.48979
1.48943
1.48919
1.48906
1.48904
1.48912
1.48931
1.48961
1.48999
1.49047
1.49103
1.49167
1.49238
1.49318
1.49405
1.49499
1.49601
1.49713
1.49835
1.49969
1.50117
1.50278
1.50455
1.50646
1.50851
1.51069
1.51296
1.51531
1.5177
1.5201
1.52248
1.5248
1.52703
1.52914
1.53112
1.53293
1.53455
1.53599
1.53722
1.53825
1.53905
1.53964
1.54001
1.54017
1.54012
1.53987
1.53942
1.53879
1.53799
1.53702
1.53591
1.53465
1.53327
1.53175
0.370615
0.488905
0.769299
1.02349
1.18836
1.28645
1.34497
1.38088
1.40366
1.41854
1.4285
1.43532
1.44007
1.44345
1.44589
1.4477
1.44908
1.45017
1.45107
1.45184
1.45255
1.45323
1.45389
1.45457
1.45527
1.45601
1.45679
1.45761
1.45848
1.4594
1.46036
1.46137
1.46243
1.46353
1.46468
1.46588
1.46712
1.46843
1.46982
1.47131
1.47293
1.47469
1.47662
1.47874
1.48103
1.4835
1.48614
1.48892
1.49181
1.49478
1.49777
1.50076
1.50369
1.50652
1.50923
1.51176
1.5141
1.51623
1.51811
1.51975
1.52112
1.52221
1.52303
1.52358
1.52385
1.52385
1.5236
1.52309
1.52235
1.52137
1.52019
1.5188
1.51724
1.51551
1.51358
0.364546
0.403111
0.587007
0.823641
1.01304
1.14094
1.22398
1.27842
1.31506
1.34046
1.35856
1.3718
1.38173
1.38935
1.39533
1.40011
1.40404
1.40732
1.41012
1.41258
1.41476
1.41675
1.4186
1.42033
1.42199
1.4236
1.42517
1.42672
1.42825
1.42978
1.4313
1.43283
1.43437
1.43591
1.43746
1.43904
1.44064
1.44229
1.444
1.44581
1.44775
1.44985
1.45215
1.45465
1.45738
1.46032
1.46347
1.46679
1.47026
1.47383
1.47744
1.48105
1.4846
1.48804
1.49133
1.49443
1.49729
1.49988
1.50219
1.50419
1.50587
1.50721
1.50822
1.50889
1.50922
1.50922
1.5089
1.50828
1.50735
1.50615
1.50468
1.50297
1.50103
1.49889
1.4965
0.364603
0.363346
0.460994
0.64658
0.836783
0.985712
1.09154
1.16521
1.21704
1.25428
1.28169
1.30236
1.31829
1.33084
1.34093
1.34918
1.35605
1.36188
1.3669
1.37129
1.37519
1.3787
1.38191
1.38487
1.38763
1.39024
1.39272
1.3951
1.39739
1.39962
1.40179
1.40392
1.406
1.40805
1.41007
1.41209
1.4141
1.41614
1.41823
1.42041
1.42273
1.42522
1.42792
1.43086
1.43405
1.43749
1.44118
1.44507
1.44914
1.45332
1.45755
1.46179
1.46596
1.47
1.47386
1.47749
1.48084
1.48388
1.48658
1.48891
1.49086
1.49241
1.49355
1.4943
1.49464
1.49459
1.49416
1.49336
1.49221
1.49073
1.48893
1.48684
1.48448
1.48188
1.479
0.366685
0.347483
0.386684
0.507132
0.671669
0.826391
0.949252
1.04089
1.10836
1.15845
1.19625
1.22534
1.24815
1.26638
1.28121
1.29348
1.30378
1.31256
1.32014
1.32678
1.33266
1.33794
1.34271
1.34708
1.35112
1.35488
1.35841
1.36174
1.36492
1.36795
1.37086
1.37367
1.37639
1.37902
1.38159
1.38411
1.3866
1.3891
1.39163
1.39424
1.39698
1.3999
1.40305
1.40646
1.41015
1.41412
1.41836
1.42283
1.42749
1.43228
1.43714
1.44199
1.44675
1.45137
1.45578
1.45992
1.46373
1.46718
1.47023
1.47286
1.47503
1.47675
1.47799
1.47877
1.47909
1.47895
1.47837
1.47736
1.47595
1.47415
1.47199
1.46949
1.46668
1.4636
1.46019
0.369317
0.342581
0.348917
0.412157
0.531963
0.672822
0.801903
0.907129
0.989078
1.05222
1.10113
1.13949
1.17002
1.1947
1.21496
1.23184
1.24608
1.25827
1.26882
1.27805
1.28623
1.29353
1.30012
1.30612
1.31163
1.31672
1.32146
1.3259
1.33008
1.33404
1.33781
1.3414
1.34485
1.34816
1.35135
1.35446
1.3575
1.36052
1.36355
1.36665
1.36987
1.37328
1.37692
1.38083
1.38504
1.38955
1.39435
1.3994
1.40465
1.41004
1.41549
1.42093
1.42627
1.43144
1.43636
1.44097
1.44521
1.44904
1.45241
1.45529
1.45767
1.45952
1.46083
1.46162
1.46188
1.46162
1.46086
1.45962
1.45792
1.45579
1.45324
1.45032
1.44705
1.44347
1.43953
0.371958
0.342445
0.332102
0.356566
0.42837
0.537786
0.658014
0.768348
0.860997
0.935939
0.995905
1.044
1.08291
1.11474
1.1411
1.16319
1.18194
1.19802
1.21198
1.2242
1.23501
1.24466
1.25334
1.26122
1.26842
1.27504
1.28118
1.28689
1.29223
1.29726
1.30201
1.30651
1.3108
1.31489
1.31881
1.32259
1.32627
1.32988
1.33349
1.33714
1.3409
1.34483
1.349
1.35344
1.35819
1.36325
1.36861
1.37424
1.38007
1.38603
1.39206
1.39806
1.40394
1.40962
1.41503
1.42008
1.42472
1.42889
1.43255
1.43567
1.43821
1.44017
1.44154
1.44231
1.4425
1.44211
1.44116
1.43968
1.43769
1.43521
1.43228
1.42894
1.42521
1.42113
1.41668
0.374409
0.344309
0.325896
0.328085
0.362098
0.432748
0.529167
0.632415
0.728536
0.811707
0.881286
0.938793
0.986292
1.02573
1.05874
1.08663
1.11042
1.13091
1.14873
1.16436
1.17819
1.19052
1.20161
1.21164
1.22079
1.22918
1.23691
1.24408
1.25077
1.25702
1.26291
1.26845
1.2737
1.27868
1.28344
1.288
1.29241
1.29671
1.30097
1.30524
1.3096
1.31412
1.31885
1.32386
1.32916
1.33478
1.3407
1.34688
1.35327
1.3598
1.36637
1.3729
1.37929
1.38546
1.39131
1.39678
1.40178
1.40628
1.4102
1.41353
1.41624
1.41829
1.4197
1.42045
1.42056
1.42004
1.41891
1.41719
1.41491
1.4121
1.40881
1.40505
1.40088
1.39634
1.39139
0.376595
0.346935
0.32478
0.315189
0.325142
0.361913
0.426574
0.510145
0.599357
0.684171
0.759763
0.824969
0.880429
0.92743
0.967348
1.00143
1.03072
1.05608
1.07822
1.09769
1.11493
1.13032
1.14415
1.15665
1.16802
1.17843
1.188
1.19685
1.20507
1.21274
1.21991
1.22666
1.23302
1.23903
1.24475
1.2502
1.25544
1.26053
1.26553
1.27051
1.27554
1.28069
1.28604
1.29164
1.29753
1.30371
1.31019
1.31692
1.32385
1.3309
1.33799
1.34502
1.35189
1.35851
1.36479
1.37064
1.376
1.38079
1.38498
1.38851
1.39136
1.39351
1.39496
1.3957
1.39574
1.3951
1.3938
1.39187
1.38933
1.38622
1.38259
1.37846
1.37388
1.3689
1.36351
0.378494
0.349749
0.326042
0.310425
0.306798
0.320311
0.355502
0.412199
0.483847
0.561114
0.636428
0.705553
0.766924
0.820518
0.867011
0.907312
0.942336
0.972909
0.999742
1.02343
1.04448
1.06329
1.08019
1.09548
1.10938
1.12209
1.13375
1.14452
1.1545
1.16378
1.17244
1.18056
1.18819
1.19539
1.2022
1.20868
1.21488
1.22087
1.22671
1.23248
1.23825
1.24411
1.25013
1.25636
1.26285
1.26962
1.27666
1.28393
1.29139
1.29895
1.30653
1.31403
1.32136
1.32841
1.33509
1.34131
1.347
1.35208
1.35652
1.36025
1.36326
1.36552
1.36703
1.36777
1.36777
1.36704
1.36561
1.36349
1.36073
1.35737
1.35344
1.34898
1.34405
1.33869
1.3329
0.380104
0.352469
0.328352
0.309741
0.298825
0.298554
0.31258
0.343818
0.391993
0.452699
0.519406
0.586268
0.64949
0.707223
0.758929
0.804789
0.845312
0.881119
0.912829
0.94101
0.96616
0.988712
1.00903
1.02742
1.04416
1.05944
1.07348
1.08641
1.09838
1.1095
1.11986
1.12955
1.13864
1.14718
1.15525
1.1629
1.1702
1.17721
1.184
1.19066
1.19728
1.20392
1.21066
1.21758
1.22471
1.23208
1.23969
1.24751
1.25548
1.26354
1.2716
1.27955
1.28732
1.29478
1.30184
1.30842
1.31443
1.31981
1.3245
1.32845
1.33164
1.33403
1.33561
1.3364
1.3364
1.33562
1.3341
1.33185
1.32893
1.32536
1.32119
1.31647
1.31125
1.30558
1.29946
0.381432
0.354953
0.331036
0.311052
0.296302
0.288389
0.289475
0.302115
0.328313
0.36807
0.418684
0.475701
0.534633
0.59211
0.646117
0.695722
0.740693
0.781189
0.817558
0.850219
0.879597
0.906091
0.930062
0.951828
0.971665
0.989815
1.00648
1.02184
1.03605
1.04924
1.06152
1.07298
1.08372
1.0938
1.1033
1.11229
1.12083
1.129
1.13688
1.14455
1.1521
1.15961
1.16717
1.17483
1.18265
1.19066
1.19886
1.20723
1.21572
1.22427
1.2328
1.2412
1.24939
1.25725
1.2647
1.27163
1.27798
1.28366
1.28862
1.29281
1.29619
1.29874
1.30046
1.30133
1.30137
1.3006
1.29905
1.29674
1.29371
1.29001
1.28569
1.28078
1.27534
1.26943
1.26307
0.382496
0.357126
0.333732
0.313269
0.296566
0.284515
0.278275
0.279385
0.28963
0.310488
0.342261
0.383516
0.431393
0.482568
0.53415
0.584096
0.631194
0.674873
0.714976
0.751595
0.784951
0.815323
0.843002
0.868274
0.8914
0.91262
0.932148
0.95017
0.966852
0.982338
0.996753
1.01021
1.0228
1.03461
1.04572
1.05622
1.06617
1.07566
1.08476
1.09357
1.10218
1.11067
1.11912
1.1276
1.13618
1.14487
1.1537
1.16265
1.17169
1.18074
1.18974
1.19859
1.2072
1.21547
1.2233
1.2306
1.23729
1.24329
1.24854
1.253
1.25662
1.25939
1.26128
1.26229
1.26244
1.26175
1.26024
1.25794
1.25489
1.25114
1.24673
1.24172
1.23616
1.23011
1.22359
0.383317
0.358954
0.336237
0.315805
0.298201
0.28395
0.27367
0.268176
0.268537
0.276002
0.291697
0.316126
0.348733
0.387879
0.431278
0.47661
0.521952
0.565944
0.607754
0.646952
0.683386
0.71708
0.748158
0.776798
0.803195
0.827551
0.850058
0.870896
0.890228
0.908203
0.924953
0.940595
0.955237
0.968972
0.981889
0.994073
1.00561
1.01657
1.02706
1.03715
1.04694
1.05652
1.06597
1.07537
1.08478
1.09423
1.10375
1.11332
1.12292
1.1325
1.14199
1.1513
1.16035
1.16904
1.17727
1.18496
1.19201
1.19836
1.20395
1.20872
1.21263
1.21565
1.21778
1.219
1.21933
1.21879
1.2174
1.2152
1.21222
1.20851
1.20412
1.19911
1.19352
1.18741
1.18084
0.383926
0.360429
0.338437
0.318319
0.300425
0.285071
0.272597
0.26342
0.258096
0.257353
0.262057
0.273062
0.290942
0.315686
0.346543
0.382133
0.420773
0.460828
0.500941
0.540122
0.577726
0.61338
0.646914
0.678293
0.707566
0.734832
0.760217
0.783857
0.80589
0.826448
0.845658
0.863635
0.880485
0.896308
0.911196
0.925237
0.938517
0.951122
0.963141
0.974663
0.98578
0.996583
1.00716
1.01758
1.02791
1.0382
1.04848
1.05874
1.06896
1.07911
1.08912
1.09893
1.10844
1.11757
1.12623
1.13433
1.14178
1.14852
1.15448
1.15961
1.16386
1.1672
1.16963
1.17114
1.17173
1.17143
1.17025
1.16824
1.16542
1.16186
1.15759
1.15267
1.14716
1.14111
1.13459
0.384356
0.361567
0.340271
0.320613
0.302785
0.286971
0.273357
0.262155
0.253642
0.248183
0.246262
0.248465
0.255422
0.267671
0.285474
0.308658
0.336564
0.368157
0.40222
0.437572
0.473202
0.508334
0.542423
0.575121
0.606232
0.63567
0.663424
0.689533
0.714065
0.737104
0.758744
0.779079
0.798203
0.816207
0.833178
0.849201
0.864363
0.878747
0.892441
0.905534
0.918114
0.930271
0.942091
0.953651
0.965019
0.976245
0.987362
0.998381
1.00929
1.02007
1.03066
1.041
1.05102
1.06063
1.06975
1.0783
1.0862
1.09337
1.09975
1.10529
1.10994
1.11368
1.11648
1.11835
1.11929
1.11931
1.11844
1.11672
1.11417
1.11086
1.10682
1.10211
1.09679
1.09091
1.08455
0.384645
0.3624
0.341721
0.322574
0.305012
0.28912
0.274988
0.262719
0.252442
0.244331
0.238618
0.235613
0.235703
0.239328
0.246928
0.258848
0.275219
0.295877
0.320342
0.347879
0.377621
0.408696
0.440324
0.471868
0.502846
0.532919
0.561867
0.589562
0.615942
0.640996
0.664743
0.687224
0.708496
0.72862
0.747664
0.7657
0.7828
0.799042
0.814505
0.829272
0.843425
0.857051
0.870231
0.883042
0.895553
0.907816
0.919871
0.931737
0.943416
0.954889
0.966118
0.977051
0.987625
0.997766
1.0074
1.01644
1.02483
1.03248
1.03934
1.04535
1.05046
1.05466
1.05792
1.06024
1.06161
1.06205
1.06159
1.06026
1.05809
1.05513
1.05144
1.04705
1.04204
1.03645
1.03038
0.384827
0.362976
0.342805
0.324148
0.306947
0.291198
0.276922
0.264155
0.252946
0.243368
0.235524
0.229553
0.225648
0.224051
0.225056
0.228985
0.236149
0.246788
0.260999
0.278687
0.299546
0.323088
0.348708
0.375765
0.403652
0.431835
0.459882
0.487463
0.514336
0.540338
0.565367
0.589364
0.612311
0.634209
0.655081
0.674964
0.693902
0.711951
0.729171
0.745631
0.761401
0.776556
0.791171
0.805315
0.819054
0.832443
0.845524
0.858322
0.870847
0.88309
0.895026
0.906615
0.917802
0.928526
0.938719
0.94831
0.95723
0.965414
0.972802
0.979342
0.984992
0.989721
0.99351
0.99635
0.998243
0.999202
0.99925
0.998417
0.996739
0.99426
0.991027
0.987092
0.982509
0.977341
0.971674
0.384935
0.363349
0.343566
0.325333
0.308509
0.293015
0.278815
0.265893
0.254251
0.243905
0.234889
0.227257
0.221089
0.216497
0.213627
0.212662
0.213817
0.217326
0.223417
0.232273
0.243994
0.258559
0.275806
0.295441
0.317067
0.340231
0.364466
0.389336
0.414458
0.439513
0.464249
0.488477
0.512058
0.5349
0.556943
0.57816
0.598541
0.6181
0.636861
0.654863
0.672151
0.688779
0.704806
0.720288
0.735282
0.749837
0.763993
0.777779
0.791209
0.804281
0.816981
0.829278
0.841132
0.852488
0.863288
0.873472
0.882976
0.891741
0.899711
0.906837
0.91308
0.918408
0.922801
0.92625
0.928755
0.930328
0.930988
0.930764
0.929691
0.92781
0.925166
0.921809
0.917793
0.913178
0.908056
0.384994
0.363574
0.344062
0.326166
0.309682
0.294477
0.280464
0.267588
0.255813
0.24512
0.235503
0.226971
0.219547
0.21327
0.208201
0.204423
0.202042
0.201191
0.202024
0.20471
0.209419
0.216301
0.22546
0.236932
0.250663
0.266508
0.284234
0.303545
0.324109
0.345585
0.367648
0.390008
0.412413
0.434659
0.456582
0.47806
0.499004
0.519354
0.539076
0.558157
0.576599
0.594421
0.611647
0.628313
0.644453
0.660104
0.675294
0.690048
0.70438
0.71829
0.731771
0.744799
0.757343
0.769359
0.780797
0.791604
0.801727
0.811111
0.819707
0.82747
0.834361
0.840352
0.845422
0.849562
0.852771
0.855057
0.856439
0.856942
0.856599
0.855448
0.853531
0.850896
0.847592
0.84368
0.839254
0.385025
0.363699
0.344363
0.326707
0.310498
0.295561
0.281772
0.269042
0.257306
0.246517
0.236644
0.227667
0.219578
0.21238
0.206088
0.20073
0.196348
0.193
0.190761
0.189721
0.18999
0.191688
0.19494
0.199869
0.206575
0.215125
0.225537
0.237769
0.251715
0.267211
0.284047
0.301985
0.320773
0.340166
0.359935
0.379877
0.399816
0.419611
0.439149
0.458342
0.477131
0.495476
0.513354
0.530756
0.547684
0.564143
0.580144
0.595692
0.610792
0.625441
0.639628
0.653333
0.666529
0.679181
0.691243
0.702672
0.71342
0.723441
0.732689
0.741126
0.748715
0.755431
0.761252
0.766169
0.77018
0.773291
0.775517
0.77688
0.777409
0.777137
0.776105
0.774356
0.771934
0.768897
0.765337
0.385039
0.363763
0.344529
0.327031
0.311019
0.296298
0.282719
0.270166
0.25855
0.247804
0.237875
0.228725
0.220326
0.21266
0.205716
0.199495
0.194005
0.189262
0.185294
0.182139
0.179847
0.178479
0.178108
0.178817
0.180697
0.18384
0.188336
0.194259
0.201662
0.210564
0.220945
0.232745
0.245857
0.260145
0.275441
0.291567
0.308336
0.325569
0.343101
0.360784
0.378489
0.396112
0.413568
0.43079
0.447728
0.464343
0.480608
0.496498
0.511994
0.527076
0.54172
0.555902
0.56959
0.582752
0.595346
0.60733
0.618661
0.6293
0.639204
0.648339
0.65667
0.664174
0.670829
0.676625
0.681556
0.685625
0.688843
0.691227
0.6928
0.693591
0.693632
0.692963
0.691622
0.689661
0.687164
0.385045
0.363793
0.344613
0.327207
0.311323
0.296756
0.283344
0.270952
0.259476
0.248832
0.238951
0.229781
0.221278
0.213411
0.206155
0.199492
0.193412
0.187912
0.182994
0.178668
0.17495
0.171863
0.169439
0.167716
0.166741
0.16657
0.167264
0.16889
0.171516
0.175209
0.180028
0.18602
0.193209
0.201598
0.211161
0.221843
0.233561
0.246209
0.259666
0.273799
0.288473
0.303556
0.318925
0.334465
0.350078
0.365676
0.381184
0.396537
0.411678
0.426557
0.441127
0.455344
0.469164
0.482546
0.495446
0.507817
0.519616
0.530801
0.541333
0.551174
0.560293
0.56866
0.576252
0.583055
0.589056
0.594253
0.598649
0.602252
0.605078
0.607147
0.608484
0.609118
0.609083
0.608421
0.607201
0.385047
0.363805
0.344651
0.327293
0.311482
0.297013
0.283715
0.271447
0.260093
0.249557
0.239761
0.230639
0.22214
0.21422
0.206844
0.199984
0.193619
0.187734
0.182318
0.177365
0.172874
0.16885
0.165302
0.162241
0.159688
0.157665
0.156202
0.155334
0.155098
0.155542
0.156711
0.158657
0.161429
0.165075
0.169634
0.175136
0.181597
0.189015
0.197372
0.206626
0.216721
0.227584
0.239128
0.25126
0.26388
0.276891
0.290197
0.303704
0.317327
0.330986
0.344606
0.358117
0.371453
0.384555
0.397364
0.409821
0.421873
0.433468
0.444555
0.45509
0.46503
0.474338
0.48298
0.490929
0.498163
0.504666
0.51043
0.51545
0.51973
0.523279
0.526111
0.528245
0.529705
0.530523
0.53075
0.385048
0.36381
0.344666
0.32733
0.311556
0.29714
0.28391
0.271721
0.260452
0.250001
0.240283
0.231225
0.222767
0.214859
0.207459
0.200533
0.194052
0.187994
0.18234
0.177077
0.172195
0.167688
0.163555
0.159795
0.156413
0.153417
0.150818
0.148631
0.146872
0.145563
0.14473
0.144402
0.14461
0.145388
0.146774
0.148805
0.151519
0.154948
0.159124
0.164068
0.169793
0.176302
0.183584
0.191617
0.200364
0.209779
0.219804
0.230373
0.241414
0.252852
0.264606
0.276599
0.288749
0.300977
0.313207
0.325363
0.337369
0.349152
0.360641
0.37177
0.382477
0.392702
0.402395
0.411507
0.419999
0.427838
0.434997
0.441457
0.447208
0.452245
0.45657
0.460191
0.463125
0.465391
0.467025
0.385048
0.363811
0.344671
0.327343
0.311584
0.297191
0.283992
0.271841
0.260616
0.250212
0.24054
0.231524
0.2231
0.215215
0.207823
0.200885
0.19437
0.18825
0.182505
0.177117
0.172072
0.16736
0.162973
0.158908
0.155163
0.151739
0.148639
0.14587
0.14344
0.14136
0.139644
0.138308
0.13737
0.136854
0.136782
0.137182
0.138082
0.139516
0.141514
0.144109
0.147334
0.151219
0.155788
0.161062
0.167053
0.173764
0.181189
0.189307
0.198089
0.20749
0.217458
0.227927
0.238824
0.250069
0.261576
0.273258
0.285022
0.296775
0.308428
0.319891
0.331081
0.341918
0.352329
0.362249
0.371621
0.380395
0.388531
0.395997
0.40277
0.408835
0.414187
0.418827
0.422763
0.42601
0.428591
0.385048
0.363811
0.344671
0.327343
0.311584
0.297191
0.283992
0.271841
0.260616
0.250212
0.24054
0.231524
0.2231
0.215215
0.207823
0.200885
0.19437
0.18825
0.182505
0.177117
0.172072
0.16736
0.162973
0.158908
0.155163
0.151739
0.148639
0.14587
0.14344
0.14136
0.139644
0.138307
0.13737
0.136853
0.136781
0.137181
0.138082
0.139515
0.141513
0.144109
0.147334
0.151218
0.155788
0.161062
0.167054
0.173767
0.181193
0.189314
0.198098
0.207504
0.217477
0.227953
0.238859
0.250116
0.261636
0.273332
0.285113
0.296888
0.308563
0.32005
0.331264
0.342126
0.352563
0.362508
0.371903
0.380699
0.388855
0.396339
0.403128
0.409207
0.41457
0.419219
0.423161
0.426414
0.428998
0.385048
0.36381
0.344666
0.32733
0.311556
0.29714
0.28391
0.271721
0.260452
0.250001
0.240283
0.231225
0.222767
0.214859
0.207459
0.200533
0.194052
0.187994
0.18234
0.177077
0.172194
0.167688
0.163554
0.159794
0.156412
0.153416
0.150817
0.148628
0.146869
0.14556
0.144727
0.144397
0.144604
0.145382
0.146767
0.148797
0.151509
0.154938
0.159112
0.164055
0.169779
0.176287
0.183569
0.191603
0.200352
0.20977
0.2198
0.230376
0.241428
0.252879
0.264653
0.276668
0.288848
0.301111
0.313381
0.325584
0.337642
0.349483
0.361034
0.372227
0.382999
0.393291
0.403048
0.412222
0.420773
0.428665
0.435873
0.442378
0.448166
0.453235
0.457585
0.461227
0.464175
0.466451
0.468091
0.385047
0.363805
0.344651
0.327293
0.311482
0.297013
0.283715
0.271447
0.260093
0.249557
0.239761
0.23064
0.222141
0.21422
0.206844
0.199984
0.193619
0.187734
0.182317
0.177364
0.172873
0.168849
0.165299
0.162238
0.159684
0.15766
0.156196
0.155326
0.155089
0.155531
0.156698
0.158641
0.161411
0.165054
0.16961
0.175109
0.181566
0.188982
0.197335
0.206587
0.21668
0.227542
0.239087
0.25122
0.263846
0.276865
0.290182
0.303705
0.317351
0.331039
0.344694
0.358249
0.371638
0.384799
0.397674
0.410208
0.422341
0.434021
0.445198
0.455823
0.465853
0.475248
0.483974
0.492002
0.499309
0.505879
0.5117
0.516771
0.521094
0.524677
0.527535
0.529688
0.531159
0.531981
0.532209
0.385045
0.363793
0.344613
0.327207
0.311323
0.296757
0.283344
0.270953
0.259477
0.248833
0.238952
0.229782
0.221279
0.213412
0.206155
0.199492
0.193412
0.187911
0.182993
0.178666
0.174946
0.171858
0.169432
0.167707
0.166731
0.166557
0.167248
0.16887
0.171492
0.175181
0.179996
0.185982
0.193166
0.201549
0.211107
0.221783
0.233495
0.246139
0.259592
0.273722
0.288396
0.30348
0.318852
0.334399
0.350024
0.365638
0.381168
0.39655
0.411729
0.426654
0.441279
0.455561
0.469455
0.482918
0.495907
0.508375
0.520276
0.531565
0.5422
0.552145
0.561362
0.569823
0.577504
0.584387
0.590461
0.595722
0.600171
0.603819
0.60668
0.608775
0.610129
0.610772
0.610739
0.610071
0.608841
0.385039
0.363763
0.344529
0.327031
0.311019
0.296299
0.28272
0.270167
0.258551
0.247805
0.237876
0.228726
0.220327
0.21266
0.205716
0.199494
0.194003
0.189258
0.185289
0.182132
0.179838
0.178466
0.178092
0.178797
0.180671
0.183809
0.188298
0.194215
0.20161
0.210504
0.220877
0.232668
0.245773
0.260053
0.275343
0.291463
0.308227
0.325457
0.342987
0.360669
0.378377
0.396005
0.413471
0.430707
0.447664
0.464307
0.480606
0.496541
0.51209
0.527236
0.541954
0.556219
0.569999
0.583259
0.59596
0.608055
0.619499
0.630249
0.640264
0.649503
0.657934
0.665529
0.672268
0.678137
0.683131
0.687254
0.690515
0.692931
0.694527
0.695332
0.695379
0.694706
0.693355
0.691377
0.688859
0.385025
0.363699
0.344363
0.326708
0.310499
0.295562
0.281774
0.269044
0.257308
0.246519
0.236645
0.227668
0.219578
0.212379
0.206086
0.200726
0.196342
0.192991
0.190748
0.189704
0.189968
0.191659
0.194904
0.199824
0.20652
0.215061
0.225462
0.237683
0.251618
0.267104
0.28393
0.30186
0.320641
0.340027
0.359792
0.379729
0.399667
0.419462
0.439
0.458198
0.476994
0.49535
0.513244
0.530669
0.547626
0.564124
0.580173
0.59578
0.610949
0.625678
0.639954
0.653758
0.667059
0.679822
0.692002
0.703549
0.714414
0.724548
0.733905
0.742443
0.750125
0.756924
0.762818
0.767798
0.77186
0.775012
0.777267
0.77865
0.77919
0.77892
0.777881
0.776117
0.773675
0.770613
0.767023
0.384994
0.363574
0.344063
0.326167
0.309684
0.294479
0.280466
0.267591
0.255816
0.245122
0.235505
0.226971
0.219545
0.213266
0.208194
0.204412
0.202027
0.20117
0.201995
0.204673
0.209371
0.216241
0.225387
0.236845
0.250562
0.266393
0.284106
0.303405
0.323959
0.345426
0.367482
0.389835
0.412236
0.434479
0.456401
0.477879
0.498825
0.519178
0.538905
0.557994
0.576449
0.594287
0.611537
0.628234
0.644414
0.660114
0.675365
0.690191
0.704606
0.71861
0.732192
0.745331
0.75799
0.770126
0.781685
0.792612
0.80285
0.812344
0.821042
0.828897
0.835872
0.841935
0.847066
0.851256
0.854503
0.856818
0.858217
0.858729
0.858385
0.857225
0.855292
0.852635
0.849304
0.84536
0.840899
0.384935
0.36335
0.343567
0.325335
0.308511
0.293018
0.278818
0.265896
0.254254
0.243907
0.234889
0.227254
0.221083
0.216486
0.21361
0.212637
0.213783
0.21728
0.223357
0.232198
0.243902
0.258448
0.275678
0.295296
0.316907
0.340058
0.364282
0.389143
0.414259
0.439309
0.464043
0.488269
0.51185
0.534693
0.556738
0.577957
0.598344
0.617909
0.636679
0.654692
0.671997
0.688648
0.704705
0.720227
0.73527
0.749885
0.764113
0.777982
0.791505
0.804681
0.817493
0.829907
0.841881
0.85336
0.864281
0.874581
0.884196
0.893063
0.901126
0.908335
0.914649
0.920037
0.924479
0.927965
0.930497
0.932086
0.932754
0.932529
0.931446
0.929549
0.926883
0.9235
0.919451
0.914802
0.909645
0.384827
0.362977
0.342807
0.324151
0.30695
0.291202
0.276926
0.264158
0.252948
0.243368
0.235519
0.229544
0.225631
0.224025
0.225019
0.228933
0.23608
0.246699
0.260888
0.278554
0.299392
0.322913
0.348516
0.37556
0.403435
0.431611
0.459653
0.487231
0.514103
0.540106
0.565135
0.589135
0.612085
0.633987
0.654863
0.674751
0.693696
0.711753
0.728985
0.74546
0.761252
0.776435
0.791086
0.805277
0.819074
0.832532
0.845693
0.858583
0.87121
0.883564
0.895617
0.907325
0.918635
0.92948
0.93979
0.949491
0.958514
0.96679
0.97426
0.980871
0.986581
0.991358
0.995184
0.998049
0.999959
1.00093
1.00097
1.00013
0.998436
0.995936
0.992678
0.988714
0.984098
0.978897
0.973196
0.384645
0.362402
0.341724
0.322578
0.305017
0.289125
0.274992
0.262721
0.252441
0.244324
0.238605
0.23559
0.235666
0.239274
0.246854
0.258749
0.275094
0.295725
0.320163
0.347677
0.3774
0.408461
0.440078
0.471615
0.502589
0.532661
0.56161
0.589307
0.61569
0.640748
0.664499
0.686986
0.708262
0.728392
0.747442
0.765484
0.782593
0.798846
0.814323
0.829107
0.843286
0.856944
0.870166
0.88303
0.895604
0.907943
0.920086
0.93205
0.943836
0.955423
0.96677
0.977824
0.988518
0.998775
1.00852
1.01766
1.02614
1.03387
1.0408
1.04687
1.05204
1.05627
1.05956
1.06189
1.06327
1.06371
1.06324
1.06189
1.05971
1.05673
1.05301
1.04859
1.04355
1.03793
1.03183
0.384357
0.361569
0.340275
0.320619
0.302791
0.286976
0.273359
0.262154
0.253634
0.248166
0.246231
0.248416
0.255349
0.267569
0.28534
0.30849
0.336365
0.36793
0.401972
0.437308
0.472928
0.508054
0.542141
0.574839
0.605953
0.635395
0.663154
0.689269
0.713807
0.736852
0.758499
0.77884
0.79797
0.81598
0.832958
0.848989
0.86416
0.878556
0.892266
0.905379
0.917987
0.93018
0.942047
0.953664
0.965101
0.976408
0.987616
0.998737
1.00976
1.02065
1.03135
1.04181
1.05194
1.06166
1.07089
1.07953
1.08751
1.09475
1.10119
1.10677
1.11146
1.11523
1.11805
1.11993
1.12087
1.12088
1.12
1.11826
1.1157
1.11236
1.10829
1.10356
1.09821
1.0923
1.08592
0.383927
0.360433
0.338442
0.318325
0.300431
0.285075
0.272596
0.263411
0.258075
0.257314
0.261993
0.272966
0.290808
0.315512
0.34633
0.381887
0.420501
0.460537
0.50064
0.539817
0.577419
0.613076
0.646616
0.678001
0.707281
0.734554
0.759946
0.783594
0.805635
0.826201
0.845418
0.863401
0.880258
0.896088
0.910983
0.925032
0.938322
0.95094
0.962975
0.97452
0.985668
0.996509
1.00713
1.01762
1.02802
1.0384
1.04876
1.05912
1.06945
1.07971
1.08984
1.09976
1.10938
1.11861
1.12735
1.13553
1.14306
1.14986
1.15587
1.16103
1.16531
1.16867
1.17111
1.17262
1.17321
1.17289
1.1717
1.16967
1.16683
1.16325
1.15896
1.15401
1.14848
1.14241
1.13587
0.383319
0.358958
0.336244
0.315811
0.298206
0.283951
0.273661
0.268152
0.26849
0.275923
0.291577
0.315958
0.348517
0.38762
0.430987
0.476297
0.521626
0.565614
0.607424
0.646626
0.683068
0.71677
0.747858
0.776507
0.802914
0.827279
0.849795
0.870642
0.889982
0.907965
0.924722
0.940371
0.955019
0.968761
0.981686
0.993878
1.00542
1.0164
1.0269
1.03702
1.04684
1.05646
1.06596
1.07543
1.08491
1.09444
1.10405
1.11373
1.12343
1.13312
1.14271
1.15213
1.16127
1.17005
1.17836
1.18612
1.19323
1.19963
1.20526
1.21005
1.21398
1.21702
1.21914
1.22037
1.22069
1.22013
1.21873
1.21651
1.21351
1.20978
1.20537
1.20034
1.19473
1.18861
1.18203
0.382499
0.357132
0.333739
0.313276
0.296568
0.284508
0.27825
0.279332
0.289537
0.310342
0.342057
0.383258
0.431091
0.482235
0.533801
0.583741
0.630842
0.674526
0.714639
0.751269
0.784637
0.81502
0.842711
0.867994
0.89113
0.912361
0.931897
0.949928
0.966619
0.982112
0.996534
1.01
1.02259
1.03441
1.04553
1.05604
1.066
1.0755
1.08462
1.09345
1.10209
1.11062
1.11912
1.12767
1.13632
1.14509
1.15402
1.16306
1.17219
1.18135
1.19044
1.19939
1.20808
1.21643
1.22433
1.23169
1.23843
1.24447
1.24975
1.25423
1.25787
1.26063
1.26252
1.26353
1.26367
1.26296
1.26143
1.25912
1.25605
1.25229
1.24786
1.24284
1.23727
1.2312
1.22469
0.381436
0.354959
0.331044
0.311056
0.296297
0.288366
0.28942
0.30201
0.328145
0.367832
0.418385
0.475358
0.534265
0.591732
0.64574
0.695353
0.740336
0.780846
0.817229
0.849905
0.879296
0.905804
0.929787
0.951564
0.971412
0.989571
1.00625
1.02162
1.03584
1.04903
1.06131
1.07279
1.08353
1.09361
1.10312
1.11211
1.12067
1.12885
1.13675
1.14444
1.15202
1.15957
1.16718
1.1749
1.18279
1.19088
1.19917
1.20763
1.21621
1.22485
1.23347
1.24196
1.25022
1.25815
1.26565
1.27264
1.27902
1.28473
1.28971
1.29392
1.2973
1.29986
1.30157
1.30243
1.30246
1.30168
1.30011
1.29779
1.29475
1.29103
1.28669
1.28178
1.27633
1.27042
1.26407
0.380108
0.352477
0.328359
0.309741
0.298807
0.2985
0.312469
0.343631
0.391724
0.452364
0.519027
0.585869
0.649089
0.70683
0.75855
0.804426
0.844967
0.880792
0.912518
0.940714
0.965879
0.988444
1.00877
1.02718
1.04392
1.05922
1.07326
1.0862
1.09818
1.10931
1.11967
1.12937
1.13846
1.14701
1.15508
1.16274
1.17005
1.17707
1.18388
1.19057
1.19721
1.20389
1.21068
1.21766
1.22485
1.2323
1.23998
1.24788
1.25594
1.26408
1.27222
1.28025
1.28808
1.2956
1.30271
1.30933
1.31537
1.32077
1.32548
1.32943
1.33262
1.33501
1.33659
1.33737
1.33735
1.33656
1.33502
1.33276
1.32983
1.32625
1.32208
1.31735
1.31213
1.30646
1.30035
0.378499
0.349757
0.326046
0.310415
0.306752
0.320203
0.355304
0.411906
0.483479
0.560703
0.636003
0.705133
0.766519
0.820133
0.866647
0.90697
0.942013