/*--------------------------------*- C++ -*----------------------------------*\
  =========                 |
  \\      /  F ield         | OpenFOAM: The Open Source CFD Toolbox
   \\    /   O peration     | Website:  https://openfoam.org
    \\  /    A nd           | Version:  7
     \\/     M anipulation  |
\*---------------------------------------------------------------------------*/
FoamFile
{
    version     2.0;
    format      ascii;
    class       volScalarField;
    location    "500";
    object      p;
}
// * * * * * * * * * * * * * * * * * * * * * * * * * * * * * * * * * * * * * //

dimensions      [0 2 -2 0 0 0 0];

internalField   nonuniform List<scalar> 
4500
(
67.4459
64.4341
63.2743
62.1401
61.0121
59.9272
58.8761
57.8492
56.843
55.8547
54.882
53.9231
52.9764
52.0407
51.115
50.1985
49.2904
48.3901
47.497
46.6106
45.7305
44.8563
43.9875
43.124
42.2653
41.4113
40.5617
39.7163
38.8748
38.0371
37.203
36.3723
35.545
34.7209
33.9
33.082
32.2669
31.4545
30.6446
29.8368
29.0307
28.2258
27.4214
26.6168
25.8113
25.004
24.1941
23.381
22.5641
21.7428
20.9168
20.0859
19.2501
18.4094
17.5641
16.7145
15.861
15.004
14.1442
13.282
12.418
11.5528
10.6869
9.82103
8.95549
8.09094
7.22771
6.36643
5.50731
4.65088
3.79735
2.94719
2.10064
1.25768
0.419956
67.0591
64.4059
63.2732
62.1406
61.0125
59.9275
58.8763
57.8494
56.8432
55.8549
54.8821
53.9232
52.9764
52.0408
51.1151
50.1986
49.2905
48.3902
47.4971
46.6107
45.7305
44.8563
43.9875
43.124
42.2654
41.4114
40.5617
39.7163
38.8748
38.0371
37.203
36.3724
35.545
34.7209
33.9
33.082
32.2669
31.4545
30.6446
29.8368
29.0307
28.2258
27.4214
26.6168
25.8113
25.004
24.1941
23.381
22.5641
21.7428
20.9168
20.0859
19.2501
18.4094
17.5641
16.7145
15.861
15.004
14.1442
13.282
12.418
11.5528
10.6869
9.82104
8.9555
8.09094
7.22771
6.36644
5.50732
4.65088
3.79736
2.94719
2.10065
1.25769
0.419959
66.9716
64.4128
63.2753
62.1416
61.0132
59.928
58.8767
57.8497
56.8434
55.8551
54.8823
53.9233
52.9766
52.0409
51.1152
50.1987
49.2906
48.3902
47.4971
46.6107
45.7306
44.8563
43.9876
43.124
42.2654
41.4114
40.5618
39.7163
38.8748
38.0371
37.203
36.3724
35.5451
34.721
33.9
33.082
32.2669
31.4545
30.6446
29.8368
29.0307
28.2258
27.4214
26.6168
25.8113
25.004
24.1941
23.381
22.5641
21.7427
20.9168
20.0859
19.2501
18.4094
17.5641
16.7145
15.861
15.004
14.1442
13.282
12.418
11.5528
10.687
9.82104
8.95551
8.09095
7.22772
6.36645
5.50733
4.65089
3.79737
2.9472
2.10066
1.2577
0.419963
66.9713
64.421
63.2771
62.1428
61.014
59.9286
58.8772
57.8501
56.8437
55.8553
54.8825
53.9235
52.9767
52.041
51.1153
50.1988
49.2907
48.3903
47.4972
46.6108
45.7306
44.8564
43.9876
43.1241
42.2654
41.4114
40.5618
39.7164
38.8749
38.0371
37.203
36.3724
35.5451
34.721
33.9
33.082
32.2669
31.4545
30.6446
29.8368
29.0307
28.2258
27.4214
26.6168
25.8113
25.004
24.1941
23.381
22.5641
21.7427
20.9168
20.0859
19.2501
18.4094
17.5641
16.7145
15.861
15.004
14.1442
13.282
12.418
11.5528
10.687
9.82105
8.95552
8.09096
7.22773
6.36646
5.50733
4.6509
3.79738
2.94721
2.10067
1.2577
0.419967
66.9674
64.4242
63.2783
62.1439
61.0148
59.9292
58.8777
57.8505
56.844
55.8556
54.8828
53.9237
52.9769
52.0412
51.1155
50.1989
49.2908
48.3904
47.4973
46.6109
45.7307
44.8564
43.9877
43.1241
42.2655
41.4115
40.5618
39.7164
38.8749
38.0372
37.2031
36.3724
35.5451
34.721
33.9
33.082
32.2669
31.4545
30.6446
29.8368
29.0307
28.2258
27.4214
26.6168
25.8113
25.004
24.1941
23.381
22.5641
21.7427
20.9168
20.0859
19.2501
18.4094
17.5641
16.7145
15.861
15.0041
14.1442
13.282
12.418
11.5528
10.687
9.82107
8.95553
8.09097
7.22774
6.36646
5.50734
4.65091
3.79738
2.94721
2.10067
1.2577
0.41997
66.9572
64.4265
63.2793
62.1449
61.0157
59.93
58.8783
57.851
56.8445
55.856
54.8831
53.924
52.9771
52.0414
51.1156
50.1991
49.2909
48.3905
47.4974
46.611
45.7308
44.8565
43.9878
43.1242
42.2655
41.4115
40.5619
39.7164
38.8749
38.0372
37.2031
36.3724
35.5451
34.721
33.9
33.082
32.2669
31.4545
30.6446
29.8368
29.0307
28.2258
27.4214
26.6168
25.8113
25.004
24.1941
23.381
22.5641
21.7427
20.9168
20.0859
19.2501
18.4094
17.5641
16.7145
15.861
15.0041
14.1442
13.282
12.418
11.5528
10.687
9.82108
8.95554
8.09098
7.22775
6.36647
5.50735
4.65091
3.79739
2.94721
2.10067
1.2577
0.419972
66.9475
64.4294
63.2802
62.1459
61.0166
59.9307
58.8789
57.8515
56.8449
55.8564
54.8834
53.9243
52.9774
52.0416
51.1158
50.1992
49.2911
48.3907
47.4975
46.6111
45.7309
44.8566
43.9878
43.1243
42.2656
41.4116
40.5619
39.7165
38.875
38.0372
37.2031
36.3725
35.5451
34.721
33.9
33.082
32.2669
31.4545
30.6446
29.8368
29.0307
28.2258
27.4214
26.6168
25.8113
25.004
24.1941
23.381
22.5641
21.7428
20.9168
20.0859
19.2501
18.4094
17.5641
16.7145
15.861
15.0041
14.1442
13.282
12.418
11.5528
10.687
9.82109
8.95555
8.09099
7.22775
6.36647
5.50735
4.65091
3.79738
2.94721
2.10066
1.25769
0.419972
66.9388
64.4326
63.2809
62.1467
61.0175
59.9315
58.8796
57.8521
56.8454
55.8568
54.8838
53.9246
52.9777
52.0418
51.1161
50.1994
49.2913
48.3909
47.4977
46.6112
45.731
44.8567
43.9879
43.1244
42.2657
41.4116
40.562
39.7165
38.875
38.0373
37.2032
36.3725
35.5452
34.721
33.9001
33.0821
32.267
31.4545
30.6446
29.8368
29.0308
28.2258
27.4214
26.6168
25.8113
25.004
24.1941
23.381
22.5641
21.7428
20.9169
20.0859
19.2501
18.4094
17.5641
16.7145
15.8611
15.0041
14.1442
13.282
12.418
11.5529
10.687
9.82109
8.95555
8.09099
7.22775
6.36647
5.50734
4.6509
3.79737
2.9472
2.10065
1.25768
0.41997
66.9299
64.4358
63.2816
62.1473
61.0182
59.9323
58.8803
57.8527
56.846
55.8573
54.8842
53.925
52.978
52.0421
51.1163
50.1997
49.2915
48.3911
47.4979
46.6114
45.7312
44.8569
43.9881
43.1245
42.2658
41.4117
40.5621
39.7166
38.8751
38.0374
37.2032
36.3725
35.5452
34.7211
33.9001
33.0821
32.267
31.4546
30.6446
29.8368
29.0308
28.2258
27.4214
26.6168
25.8113
25.004
24.1942
23.381
22.5641
21.7428
20.9169
20.086
19.2501
18.4094
17.5642
16.7145
15.8611
15.0041
14.1443
13.2821
12.4181
11.5529
10.687
9.8211
8.95555
8.09099
7.22775
6.36646
5.50733
4.65089
3.79736
2.94718
2.10063
1.25766
0.419965
66.9204
64.4391
63.2821
62.1479
61.0188
59.9329
58.881
57.8534
56.8466
55.8578
54.8847
53.9254
52.9784
52.0425
51.1166
50.2
49.2917
48.3913
47.4981
46.6116
45.7313
44.857
43.9882
43.1246
42.2659
41.4118
40.5622
39.7167
38.8752
38.0374
37.2033
36.3726
35.5453
34.7211
33.9001
33.0821
32.267
31.4546
30.6447
29.8368
29.0308
28.2258
27.4215
26.6169
25.8114
25.004
24.1942
23.3811
22.5641
21.7428
20.9169
20.086
19.2502
18.4095
17.5642
16.7146
15.8611
15.0041
14.1443
13.2821
12.4181
11.5529
10.687
9.8211
8.95555
8.09098
7.22774
6.36645
5.50732
4.65087
3.79734
2.94716
2.1006
1.25763
0.419958
66.9101
64.4427
63.2824
62.1483
61.0193
59.9335
58.8816
57.854
56.8471
55.8583
54.8852
53.9258
52.9788
52.0429
51.117
50.2003
49.292
48.3915
47.4983
46.6118
45.7315
44.8572
43.9884
43.1247
42.266
41.412
40.5623
39.7168
38.8753
38.0375
37.2034
36.3727
35.5453
34.7212
33.9002
33.0822
32.2671
31.4546
30.6447
29.8369
29.0308
28.2259
27.4215
26.6169
25.8114
25.0041
24.1942
23.3811
22.5642
21.7429
20.9169
20.086
19.2502
18.4095
17.5642
16.7146
15.8611
15.0042
14.1443
13.2821
12.4181
11.5529
10.687
9.8211
8.95555
8.09097
7.22773
6.36643
5.5073
4.65085
3.79731
2.94713
2.10057
1.2576
0.419947
66.8992
64.4465
63.2827
62.1487
61.0197
59.9339
58.8821
57.8545
56.8477
55.8589
54.8857
53.9263
52.9792
52.0433
51.1173
50.2006
49.2923
48.3918
47.4986
46.612
45.7318
44.8574
43.9886
43.1249
42.2662
41.4121
40.5624
39.7169
38.8754
38.0376
37.2035
36.3728
35.5454
34.7213
33.9003
33.0822
32.2671
31.4547
30.6448
29.8369
29.0309
28.2259
27.4215
26.6169
25.8114
25.0041
24.1943
23.3811
22.5642
21.7429
20.917
20.0861
19.2502
18.4095
17.5643
16.7146
15.8612
15.0042
14.1443
13.2821
12.4181
11.5529
10.687
9.82109
8.95553
8.09096
7.22771
6.36641
5.50727
4.65081
3.79727
2.94709
2.10053
1.25755
0.419932
66.8875
64.4507
63.2828
62.1489
61.0199
59.9343
58.8825
57.855
56.8482
55.8594
54.8862
53.9268
52.9797
52.0437
51.1177
50.201
49.2927
48.3921
47.4988
46.6123
45.732
44.8576
43.9888
43.1251
42.2664
41.4123
40.5626
39.7171
38.8755
38.0378
37.2036
36.3729
35.5455
34.7214
33.9003
33.0823
32.2672
31.4548
30.6448
29.837
29.0309
28.226
27.4216
26.617
25.8115
25.0042
24.1943
23.3812
22.5643
21.743
20.917
20.0861
19.2503
18.4096
17.5643
16.7147
15.8612
15.0042
14.1443
13.2821
12.4181
11.5529
10.687
9.82108
8.95552
8.09094
7.22768
6.36638
5.50723
4.65078
3.79723
2.94704
2.10048
1.2575
0.419912
66.8751
64.4552
63.283
62.1491
61.0201
59.9345
58.8828
57.8554
56.8486
55.8599
54.8867
53.9273
52.9802
52.0441
51.1181
50.2014
49.293
48.3925
47.4992
46.6126
45.7323
44.8579
43.989
43.1253
42.2666
41.4125
40.5628
39.7173
38.8757
38.0379
37.2037
36.373
35.5456
34.7215
33.9005
33.0824
32.2673
31.4549
30.6449
29.8371
29.031
28.226
27.4217
26.6171
25.8115
25.0042
24.1944
23.3812
22.5643
21.743
20.9171
20.0862
19.2503
18.4096
17.5643
16.7147
15.8612
15.0042
14.1443
13.2821
12.4181
11.5529
10.687
9.82107
8.9555
8.09091
7.22765
6.36634
5.50719
4.65073
3.79718
2.94699
2.10042
1.25745
0.419886
66.8619
64.4602
63.2831
62.1493
61.0202
59.9346
58.883
57.8556
56.8489
55.8602
54.8871
53.9277
52.9806
52.0446
51.1186
50.2018
49.2934
48.3929
47.4995
46.6129
45.7326
44.8582
43.9893
43.1256
42.2668
41.4127
40.563
39.7175
38.8759
38.0381
37.2039
36.3732
35.5458
34.7216
33.9006
33.0825
32.2674
31.455
30.645
29.8372
29.0311
28.2261
27.4217
26.6171
25.8116
25.0043
24.1944
23.3813
22.5644
21.7431
20.9171
20.0862
19.2504
18.4097
17.5644
16.7147
15.8612
15.0043
14.1444
13.2821
12.4181
11.5529
10.687
9.82105
8.95548
8.09088
7.22762
6.3663
5.50715
4.65068
3.79713
2.94693
2.10036
1.25739
0.419853
66.848
64.4656
63.2833
62.1495
61.0203
59.9346
58.8831
57.8557
56.8491
55.8605
54.8874
53.9281
52.981
52.045
51.119
50.2022
49.2938
48.3932
47.4999
46.6133
45.7329
44.8585
43.9896
43.1259
42.2671
41.413
40.5632
39.7177
38.8761
38.0383
37.2041
36.3733
35.546
34.7218
33.9007
33.0827
32.2675
31.4551
30.6451
29.8373
29.0312
28.2262
27.4218
26.6172
25.8117
25.0044
24.1945
23.3814
22.5645
21.7431
20.9172
20.0863
19.2504
18.4097
17.5644
16.7148
15.8613
15.0043
14.1444
13.2821
12.4181
11.5529
10.687
9.82103
8.95545
8.09085
7.22758
6.36626
5.5071
4.65063
3.79707
2.94687
2.1003
1.25732
0.419812
66.8333
64.4715
63.2834
62.1497
61.0204
59.9347
58.8831
57.8558
56.8492
55.8607
54.8877
53.9284
52.9814
52.0454
51.1194
50.2026
49.2942
48.3936
47.5003
46.6136
45.7333
44.8588
43.9899
43.1262
42.2674
41.4133
40.5635
39.7179
38.8763
38.0385
37.2043
36.3735
35.5461
34.722
33.9009
33.0828
32.2677
31.4552
30.6452
29.8374
29.0313
28.2263
27.4219
26.6173
25.8118
25.0045
24.1946
23.3815
22.5645
21.7432
20.9173
20.0864
19.2505
18.4098
17.5645
16.7148
15.8613
15.0043
14.1444
13.2822
12.4181
11.5529
10.687
9.82102
8.95543
8.09082
7.22754
6.36622
5.50705
4.65058
3.79701
2.94681
2.10023
1.25725
0.419759
66.8177
64.4778
63.2836
62.15
61.0205
59.9347
58.8831
57.8558
56.8493
55.8607
54.8878
53.9286
52.9816
52.0456
51.1197
50.2029
49.2946
48.394
47.5007
46.614
45.7337
44.8592
43.9903
43.1265
42.2677
41.4136
40.5638
39.7182
38.8766
38.0388
37.2045
36.3738
35.5464
34.7222
33.9011
33.083
32.2679
31.4554
30.6454
29.8376
29.0315
28.2265
27.4221
26.6175
25.8119
25.0046
24.1947
23.3816
22.5646
21.7433
20.9174
20.0864
19.2506
18.4098
17.5645
16.7149
15.8614
15.0044
14.1444
13.2822
12.4181
11.5529
10.687
9.82101
8.95541
8.0908
7.22751
6.36618
5.507
4.65052
3.79696
2.94675
2.10016
1.25719
0.419692
66.8014
64.4845
63.2837
62.1504
61.0207
59.9348
58.8831
57.8558
56.8492
55.8607
54.8878
53.9286
52.9817
52.0458
51.1199
50.2032
49.2949
48.3944
47.501
46.6144
45.734
44.8596
43.9906
43.1269
42.2681
41.4139
40.5641
39.7185
38.8769
38.039
37.2048
36.374
35.5466
34.7224
33.9013
33.0833
32.2681
31.4556
30.6456
29.8377
29.0316
28.2266
27.4222
26.6176
25.8121
25.0047
24.1948
23.3817
22.5648
21.7434
20.9175
20.0865
19.2507
18.4099
17.5646
16.7149
15.8614
15.0044
14.1445
13.2822
12.4182
11.5529
10.687
9.821
8.9554
8.09078
7.22748
6.36614
5.50696
4.65047
3.7969
2.94669
2.1001
1.25712
0.419608
66.7844
64.4917
63.2839
62.1508
61.021
59.9349
58.8831
57.8557
56.8492
55.8607
54.8877
53.9286
52.9817
52.0459
51.1201
50.2034
49.2951
48.3946
47.5013
46.6147
45.7344
44.8599
43.991
43.1272
42.2684
41.4142
40.5645
39.7188
38.8772
38.0394
37.2051
36.3743
35.5469
34.7227
33.9016
33.0835
32.2683
31.4558
30.6458
29.8379
29.0318
28.2268
27.4224
26.6178
25.8122
25.0049
24.195
23.3818
22.5649
21.7436
20.9176
20.0866
19.2508
18.41
17.5647
16.715
15.8615
15.0045
14.1445
13.2822
12.4182
11.5529
10.687
9.82101
8.95539
8.09076
7.22746
6.36611
5.50693
4.65043
3.79685
2.94663
2.10004
1.25706
0.419503
66.7667
64.4993
63.284
62.1513
61.0213
59.935
58.8832
57.8558
56.8492
55.8606
54.8877
53.9285
52.9817
52.0458
51.1201
50.2034
49.2952
48.3948
47.5015
46.6149
45.7346
44.8602
43.9913
43.1276
42.2687
41.4146
40.5648
39.7192
38.8775
38.0397
37.2054
36.3746
35.5472
34.723
33.9019
33.0838
32.2686
31.4561
30.6461
29.8382
29.0321
28.2271
27.4226
26.618
25.8124
25.0051
24.1952
23.382
22.565
21.7437
20.9177
20.0868
19.2509
18.4101
17.5648
16.7151
15.8616
15.0045
14.1446
13.2823
12.4182
11.553
10.687
9.82103
8.9554
8.09076
7.22745
6.3661
5.5069
4.6504
3.79682
2.94659
2.09999
1.25701
0.419372
66.7485
64.5072
63.284
62.1519
61.0216
59.9352
58.8833
57.8558
56.8492
55.8606
54.8876
53.9285
52.9816
52.0458
51.12
50.2034
49.2952
48.3948
47.5016
46.6151
45.7348
44.8604
43.9915
43.1278
42.269
41.4149
40.5651
39.7195
38.8779
38.04
37.2057
36.375
35.5475
34.7233
33.9022
33.0841
32.2689
31.4564
30.6463
29.8384
29.0323
28.2273
27.4229
26.6182
25.8126
25.0053
24.1954
23.3822
22.5652
21.7439
20.9179
20.0869
19.251
18.4103
17.5649
16.7152
15.8617
15.0046
14.1447
13.2824
12.4183
11.553
10.6871
9.82106
8.95543
8.09078
7.22746
6.3661
5.50689
4.65038
3.79679
2.94656
2.09995
1.25697
0.419211
66.7299
64.5153
63.284
62.1525
61.022
59.9354
58.8835
57.8559
56.8492
55.8606
54.8876
53.9284
52.9815
52.0457
51.1199
50.2033
49.2951
48.3947
47.5016
46.6151
45.7349
44.8605
43.9917
43.128
42.2693
41.4151
40.5654
39.7198
38.8782
38.0403
37.2061
36.3753
35.5478
34.7236
33.9025
33.0844
32.2692
31.4567
30.6466
29.8387
29.0326
28.2276
27.4231
26.6185
25.8129
25.0055
24.1956
23.3824
22.5654
21.744
20.9181
20.0871
19.2512
18.4104
17.5651
16.7154
15.8618
15.0047
14.1448
13.2825
12.4184
11.5531
10.6871
9.82112
8.95548
8.09082
7.22749
6.36612
5.5069
4.65039
3.79678
2.94654
2.09993
1.25695
0.419015
66.7114
64.5235
63.2839
62.1532
61.0224
59.9357
58.8837
57.8561
56.8493
55.8607
54.8876
53.9284
52.9815
52.0456
51.1198
50.2032
49.295
48.3947
47.5015
46.615
45.7348
44.8605
43.9917
43.1281
42.2694
41.4153
40.5655
39.72
38.8784
38.0406
37.2063
36.3756
35.5481
34.7239
33.9028
33.0847
32.2695
31.457
30.6469
29.839
29.0329
28.2279
27.4234
26.6187
25.8131
25.0057
24.1958
23.3826
22.5656
21.7443
20.9183
20.0873
19.2514
18.4106
17.5652
16.7155
15.862
15.0049
14.1449
13.2826
12.4185
11.5532
10.6872
9.8212
8.95555
8.09088
7.22754
6.36616
5.50694
4.65041
3.7968
2.94655
2.09993
1.25694
0.41878
66.6931
64.5317
63.2837
62.1538
61.0229
59.936
58.8839
57.8562
56.8495
55.8607
54.8877
53.9284
52.9815
52.0456
51.1198
50.2032
49.295
48.3946
47.5014
46.6149
45.7347
44.8604
43.9916
43.128
42.2693
41.4153
40.5656
39.7201
38.8785
38.0407
37.2065
36.3758
35.5484
34.7242
33.9031
33.085
32.2698
31.4573
30.6472
29.8393
29.0332
28.2282
27.4237
26.619
25.8134
25.006
24.1961
23.3829
22.5659
21.7445
20.9185
20.0875
19.2516
18.4108
17.5654
16.7157
15.8621
15.0051
14.1451
13.2828
12.4186
11.5533
10.6874
9.82131
8.95565
8.09097
7.22762
6.36623
5.50699
4.65046
3.79684
2.94658
2.09994
1.25696
0.418505
66.6757
64.5397
63.2835
62.1544
61.0233
59.9362
58.8841
57.8564
56.8496
55.8609
54.8878
53.9285
52.9815
52.0456
51.1198
50.2031
49.2949
48.3945
47.5013
46.6148
45.7346
44.8603
43.9915
43.1279
42.2693
41.4152
40.5656
39.7201
38.8785
38.0408
37.2066
36.3759
35.5485
34.7243
33.9033
33.0852
32.27
31.4575
30.6475
29.8396
29.0335
28.2284
27.424
26.6193
25.8137
25.0063
24.1963
23.3831
22.5661
21.7447
20.9187
20.0877
19.2518
18.411
17.5656
16.7159
15.8623
15.0053
14.1453
13.2829
12.4188
11.5535
10.6875
9.82145
8.95578
8.09109
7.22772
6.36632
5.50708
4.65053
3.7969
2.94664
2.09999
1.257
0.418195
66.6596
64.5471
63.2832
62.155
61.0238
59.9365
58.8843
57.8566
56.8497
55.861
54.8879
53.9286
52.9816
52.0457
51.1198
50.2031
49.2949
48.3945
47.5013
46.6148
45.7346
44.8602
43.9914
43.1278
42.2692
41.4151
40.5655
39.72
38.8785
38.0407
37.2066
36.3759
35.5485
34.7244
33.9034
33.0853
32.2702
31.4577
30.6477
29.8398
29.0337
28.2287
27.4242
26.6195
25.8139
25.0065
24.1966
23.3834
22.5664
21.745
20.919
20.088
19.2521
18.4113
17.5659
16.7162
15.8626
15.0055
14.1455
13.2831
12.419
11.5537
10.6877
9.82162
8.95593
8.09123
7.22786
6.36645
5.50719
4.65064
3.79699
2.94672
2.10006
1.25706
0.417864
66.6458
64.5535
63.2828
62.1555
61.0241
59.9367
58.8845
57.8568
56.8499
55.8611
54.888
53.9286
52.9816
52.0457
51.1198
50.2032
49.2949
48.3945
47.5012
46.6147
45.7345
44.8602
43.9914
43.1278
42.2691
41.415
40.5654
39.7199
38.8784
38.0406
37.2065
36.3758
35.5485
34.7243
33.9033
33.0853
32.2702
31.4577
30.6478
29.8399
29.0338
28.2288
27.4244
26.6197
25.8141
25.0067
24.1968
23.3836
22.5666
21.7452
20.9192
20.0882
19.2523
18.4115
17.5661
16.7164
15.8628
15.0057
14.1457
13.2834
12.4192
11.5539
10.6879
9.82181
8.95611
8.0914
7.22801
6.36659
5.50733
4.65076
3.79711
2.94682
2.10015
1.25714
0.417541
66.6351
64.5586
63.2825
62.1559
61.0244
59.9369
58.8847
57.8569
56.85
55.8612
54.888
53.9287
52.9817
52.0458
51.1199
50.2032
49.2949
48.3945
47.5012
46.6147
45.7345
44.8602
43.9913
43.1277
42.269
41.415
40.5653
39.7198
38.8783
38.0405
37.2064
36.3757
35.5484
34.7242
33.9032
33.0852
32.2701
31.4577
30.6477
29.8399
29.0338
28.2288
27.4244
26.6198
25.8142
25.0068
24.1969
23.3838
22.5668
21.7454
20.9194
20.0884
19.2525
18.4117
17.5663
16.7166
15.863
15.0059
14.1459
13.2836
12.4194
11.5541
10.6881
9.82199
8.95628
8.09157
7.22817
6.36674
5.50746
4.65089
3.79722
2.94693
2.10025
1.25723
0.41727
66.629
64.5615
63.2823
62.1561
61.0246
59.937
58.8848
57.857
56.8501
55.8612
54.8881
53.9288
52.9817
52.0458
51.1199
50.2032
49.295
48.3945
47.5013
46.6147
45.7345
44.8601
43.9913
43.1277
42.269
41.4149
40.5653
39.7198
38.8782
38.0405
37.2063
36.3757
35.5483
34.7242
33.9032
33.0852
32.2701
31.4576
30.6477
29.8399
29.0338
28.2288
27.4244
26.6198
25.8142
25.0069
24.197
23.3838
22.5668
21.7455
20.9195
20.0885
19.2526
18.4118
17.5664
16.7167
15.8631
15.006
14.146
13.2837
12.4196
11.5542
10.6882
9.82211
8.9564
8.09168
7.22828
6.36684
5.50756
4.65098
3.79731
2.94701
2.10032
1.2573
0.417111
66.629
64.5615
63.2823
62.1561
61.0246
59.937
58.8848
57.857
56.8501
55.8612
54.8881
53.9288
52.9817
52.0458
51.1199
50.2032
49.295
48.3945
47.5013
46.6147
45.7345
44.8601
43.9913
43.1277
42.269
41.4149
40.5653
39.7198
38.8782
38.0405
37.2063
36.3757
35.5483
34.7242
33.9032
33.0852
32.2701
31.4576
30.6477
29.8399
29.0338
28.2288
27.4244
26.6198
25.8142
25.0069
24.197
23.3838
22.5668
21.7455
20.9195
20.0885
19.2526
18.4118
17.5664
16.7167
15.8631
15.006
14.146
13.2837
12.4195
11.5542
10.6882
9.82211
8.9564
8.09168
7.22827
6.36684
5.50755
4.65098
3.7973
2.94701
2.10032
1.2573
0.417124
66.6351
64.5586
63.2825
62.1559
61.0244
59.9369
58.8847
57.8569
56.85
55.8612
54.888
53.9287
52.9817
52.0458
51.1199
50.2032
49.2949
48.3945
47.5012
46.6147
45.7345
44.8602
43.9913
43.1277
42.269
41.415
40.5653
39.7198
38.8783
38.0405
37.2064
36.3757
35.5484
34.7242
33.9032
33.0852
32.2701
31.4577
30.6477
29.8399
29.0338
28.2289
27.4244
26.6198
25.8142
25.0069
24.1969
23.3838
22.5668
21.7454
20.9194
20.0884
19.2525
18.4117
17.5663
16.7166
15.863
15.0059
14.1459
13.2836
12.4194
11.5541
10.6881
9.82198
8.95627
8.09156
7.22816
6.36674
5.50745
4.65089
3.79721
2.94693
2.10024
1.25723
0.417308
66.6457
64.5535
63.2828
62.1555
61.0241
59.9367
58.8845
57.8568
56.8499
55.8611
54.888
53.9286
52.9816
52.0457
51.1198
50.2032
49.2949
48.3945
47.5012
46.6147
45.7345
44.8602
43.9914
43.1278
42.2691
41.415
40.5654
39.7199
38.8784
38.0406
37.2065
36.3758
35.5485
34.7243
33.9033
33.0853
32.2702
31.4577
30.6478
29.8399
29.0338
28.2288
27.4244
26.6197
25.8142
25.0068
24.1968
23.3836
22.5666
21.7452
20.9192
20.0882
19.2523
18.4115
17.5661
16.7164
15.8628
15.0057
14.1457
13.2833
12.4192
11.5539
10.6879
9.82179
8.95609
8.09139
7.22799
6.36658
5.50731
4.65075
3.79709
2.94682
2.10014
1.25714
0.4176
66.6596
64.5471
63.2832
62.155
61.0238
59.9365
58.8843
57.8566
56.8497
55.861
54.8879
53.9286
52.9816
52.0457
51.1198
50.2031
49.2949
48.3945
47.5013
46.6148
45.7346
44.8602
43.9914
43.1278
42.2692
41.4151
40.5655
39.72
38.8785
38.0407
37.2066
36.3759
35.5485
34.7244
33.9034
33.0853
32.2702
31.4577
30.6477
29.8398
29.0337
28.2287
27.4242
26.6196
25.814
25.0066
24.1966
23.3834
22.5664
21.745
20.919
20.088
19.2521
18.4113
17.5659
16.7161
15.8626
15.0055
14.1455
13.2831
12.419
11.5537
10.6877
9.8216
8.95591
8.09121
7.22783
6.36643
5.50716
4.65062
3.79697
2.94671
2.10004
1.25705
0.417943
66.6756
64.5397
63.2835
62.1544
61.0233
59.9362
58.8841
57.8564
56.8496
55.8609
54.8878
53.9285
52.9815
52.0456
51.1198
50.2031
49.2949
48.3945
47.5013
46.6148
45.7346
44.8603
43.9915
43.1279
42.2693
41.4152
40.5656
39.7201
38.8785
38.0408
37.2066
36.3759
35.5485
34.7243
33.9033
33.0852
32.27
31.4575
30.6475
29.8396
29.0335
28.2285
27.424
26.6193
25.8137
25.0063
24.1964
23.3832
22.5662
21.7448
20.9187
20.0877
19.2518
18.411
17.5656
16.7159
15.8623
15.0052
14.1452
13.2829
12.4188
11.5535
10.6875
9.82143
8.95574
8.09106
7.22768
6.3663
5.50704
4.65052
3.79687
2.94662
2.09997
1.25699
0.418291
66.6931
64.5318
63.2837
62.1538
61.0229
59.936
58.8839
57.8562
56.8495
55.8607
54.8877
53.9284
52.9815
52.0456
51.1198
50.2032
49.295
48.3946
47.5014
46.6149
45.7347
44.8604
43.9916
43.128
42.2693
41.4153
40.5656
39.7201
38.8785
38.0407
37.2065
36.3758
35.5484
34.7242
33.9031
33.085
32.2698
31.4573
30.6472
29.8393
29.0332
28.2282
27.4237
26.619
25.8134
25.006
24.1961
23.3829
22.5659
21.7445
20.9185
20.0875
19.2516
18.4108
17.5654
16.7157
15.8621
15.005
14.1451
13.2827
12.4186
11.5533
10.6873
9.82128
8.95561
8.09094
7.22757
6.3662
5.50695
4.65044
3.7968
2.94656
2.09992
1.25695
0.418616
66.7113
64.5236
63.2839
62.1532
61.0224
59.9357
58.8837
57.8561
56.8493
55.8607
54.8876
53.9284
52.9815
52.0456
51.1198
50.2032
49.295
48.3947
47.5015
46.615
45.7348
44.8605
43.9917
43.1281
42.2694
41.4153
40.5655
39.72
38.8784
38.0406
37.2063
36.3756
35.5481
34.7239
33.9028
33.0847
32.2695
31.457
30.6469
29.839
29.0329
28.2279
27.4234
26.6187
25.8132
25.0058
24.1958
23.3826
22.5657
21.7443
20.9183
20.0873
19.2514
18.4106
17.5652
16.7155
15.8619
15.0049
14.1449
13.2826
12.4185
11.5532
10.6872
9.82117
8.9555
8.09085
7.22749
6.36613
5.50689
4.65039
3.79675
2.94653
2.09989
1.25693
0.418903
66.7299
64.5153
63.284
62.1525
61.022
59.9354
58.8835
57.8559
56.8492
55.8606
54.8876
53.9284
52.9815
52.0457
51.1199
50.2033
49.2951
48.3947
47.5016
46.6151
45.7349
44.8605
43.9917
43.128
42.2693
41.4151
40.5654
39.7198
38.8782
38.0403
37.2061
36.3753
35.5478
34.7236
33.9025
33.0844
32.2692
31.4567
30.6466
29.8387
29.0326
28.2276
27.4231
26.6185
25.8129
25.0055
24.1956
23.3824
22.5654
21.7441
20.9181
20.0871
19.2512
18.4104
17.5651
16.7153
15.8618
15.0047
14.1448
13.2824
12.4183
11.5531
10.6871
9.82108
8.95543
8.09078
7.22743
6.36609
5.50685
4.65036
3.79674
2.94652
2.09989
1.25693
0.419149
66.7484
64.5072
63.284
62.1519
61.0216
59.9352
58.8833
57.8558
56.8492
55.8606
54.8876
53.9285
52.9816
52.0458
51.12
50.2034
49.2952
48.3948
47.5016
46.6151
45.7348
44.8604
43.9915
43.1278
42.269
41.4149
40.5651
39.7195
38.8779
38.04
37.2057
36.375
35.5475
34.7233
33.9022
33.0841
32.2689
31.4564
30.6463
29.8385
29.0323
28.2273
27.4229
26.6182
25.8127
25.0053
24.1954
23.3822
22.5652
21.7439
20.9179
20.0869
19.251
18.4103
17.5649
16.7152
15.8617
15.0046
14.1446
13.2823
12.4183
11.553
10.687
9.82102
8.95538
8.09074
7.2274
6.36607
5.50684
4.65036
3.79674
2.94654
2.09991
1.25696
0.419355
66.7666
64.4993
63.284
62.1513
61.0213
59.935
58.8832
57.8558
56.8492
55.8606
54.8877
53.9285
52.9817
52.0458
51.1201
50.2034
49.2952
48.3948
47.5015
46.6149
45.7346
44.8602
43.9913
43.1276
42.2688
41.4146
40.5648
39.7192
38.8775
38.0397
37.2054
36.3746
35.5472
34.723
33.9019
33.0838
32.2686
31.4561
30.6461
29.8382
29.0321
28.2271
27.4227
26.618
25.8125
25.0051
24.1952
23.382
22.5651
21.7437
20.9177
20.0868
19.2509
18.4101
17.5648
16.7151
15.8615
15.0045
14.1446
13.2823
12.4182
11.5529
10.687
9.82098
8.95535
8.09072
7.22739
6.36607
5.50685
4.65037
3.79676
2.94657
2.09995
1.257
0.419524
66.7843
64.4918
63.2839
62.1508
61.021
59.9349
58.8831
57.8557
56.8492
55.8607
54.8877
53.9286
52.9817
52.0459
51.1201
50.2034
49.2951
48.3946
47.5013
46.6147
45.7344
44.8599
43.991
43.1272
42.2684
41.4142
40.5645
39.7188
38.8772
38.0394
37.2051
36.3743
35.5469
34.7227
33.9016
33.0835
32.2683
31.4558
30.6458
29.838
29.0319
28.2269
27.4224
26.6178
25.8123
25.0049
24.195
23.3819
22.5649
21.7436
20.9176
20.0866
19.2508
18.41
17.5647
16.715
15.8615
15.0044
14.1445
13.2822
12.4181
11.5529
10.6869
9.82096
8.95534
8.09072
7.2274
6.36608
5.50687
4.6504
3.7968
2.94661
2.1
1.25705
0.419661
66.8013
64.4846
63.2837
62.1504
61.0207
59.9348
58.8831
57.8558
56.8492
55.8607
54.8878
53.9286
52.9817
52.0458
51.1199
50.2032
49.2949
48.3944
47.501
46.6144
45.734
44.8596
43.9906
43.1269
42.2681
41.4139
40.5641
39.7185
38.8769
38.039
37.2048
36.374
35.5466
34.7224
33.9013
33.0833
32.2681
31.4556
30.6456
29.8378
29.0317
28.2267
27.4223
26.6176
25.8121
25.0047
24.1949
23.3817
22.5648
21.7434
20.9175
20.0865
19.2507
18.4099
17.5646
16.7149
15.8614
15.0044
14.1444
13.2822
12.4181
11.5528
10.6869
9.82095
8.95534
8.09073
7.22742
6.36611
5.5069
4.65045
3.79684
2.94666
2.10006
1.25711
0.419771
66.8177
64.4778
63.2836
62.15
61.0205
59.9347
58.8831
57.8558
56.8493
55.8607
54.8878
53.9286
52.9816
52.0456
51.1197
50.2029
49.2946
48.394
47.5007
46.614
45.7337
44.8592
43.9903
43.1265
42.2677
41.4136
40.5638
39.7182
38.8766
38.0388
37.2045
36.3738
35.5464
34.7222
33.9011
33.083
32.2679
31.4554
30.6454
29.8376
29.0315
28.2265
27.4221
26.6175
25.812
25.0046
24.1948
23.3816
22.5647
21.7433
20.9174
20.0864
19.2506
18.4098
17.5645
16.7148
15.8613
15.0043
14.1444
13.2821
12.4181
11.5528
10.6869
9.82096
8.95535
8.09075
7.22744
6.36614
5.50695
4.65049
3.7969
2.94672
2.10013
1.25717
0.419859
66.8332
64.4715
63.2834
62.1497
61.0204
59.9347
58.8831
57.8558
56.8492
55.8607
54.8877
53.9284
52.9814
52.0454
51.1194
50.2026
49.2942
48.3936
47.5003
46.6136
45.7333
44.8588
43.9899
43.1262
42.2674
41.4133
40.5635
39.7179
38.8763
38.0385
37.2043
36.3735
35.5461
34.722
33.9009
33.0828
32.2677
31.4552
30.6453
29.8374
29.0313
28.2264
27.422
26.6174
25.8119
25.0045
24.1946
23.3815
22.5646
21.7432
20.9173
20.0863
19.2505
18.4098
17.5645
16.7148
15.8613
15.0043
14.1444
13.2821
12.4181
11.5528
10.6869
9.82097
8.95537
8.09078
7.22748
6.36619
5.50699
4.65055
3.79696
2.94679
2.10019
1.25724
0.419929
66.8479
64.4656
63.2833
62.1495
61.0203
59.9346
58.8831
57.8557
56.8491
55.8605
54.8874
53.9281
52.981
52.045
51.119
50.2022
49.2938
48.3932
47.4999
46.6133
45.7329
44.8585
43.9896
43.1259
42.2671
41.413
40.5632
39.7177
38.8761
38.0383
37.2041
36.3733
35.546
34.7218
33.9007
33.0827
32.2676
31.4551
30.6451
29.8373
29.0312
28.2262
27.4219
26.6173
25.8117
25.0044
24.1946
23.3814
22.5645
21.7432
20.9172
20.0863
19.2504
18.4097
17.5644
16.7147
15.8612
15.0042
14.1443
13.2821
12.4181
11.5528
10.6869
9.82099
8.95539
8.09081
7.22751
6.36623
5.50704
4.6506
3.79702
2.94685
2.10026
1.25731
0.419984
66.8619
64.4602
63.2831
62.1493
61.0202
59.9346
58.883
57.8556
56.8489
55.8602
54.8871
53.9277
52.9806
52.0446
51.1186
50.2018
49.2934
48.3929
47.4995
46.6129
45.7326
44.8582
43.9893
43.1256
42.2668
41.4127
40.563
39.7175
38.8759
38.0381
37.2039
36.3732
35.5458
34.7216
33.9006
33.0825
32.2674
31.455
30.645
29.8372
29.0311
28.2261
27.4218
26.6172
25.8117
25.0043
24.1945
23.3813
22.5644
21.7431
20.9172
20.0862
19.2504
18.4096
17.5644
16.7147
15.8612
15.0042
14.1443
13.2821
12.4181
11.5528
10.6869
9.821
8.95542
8.09084
7.22755
6.36627
5.50709
4.65066
3.79707
2.94691
2.10033
1.25737
0.420028
66.875
64.4552
63.283
62.1491
61.0201
59.9345
58.8828
57.8554
56.8486
55.8599
54.8867
53.9273
52.9802
52.0441
51.1182
50.2014
49.293
48.3925
47.4992
46.6126
45.7323
44.8579
43.989
43.1253
42.2666
41.4125
40.5628
39.7173
38.8757
38.0379
37.2037
36.373
35.5456
34.7215
33.9005
33.0824
32.2673
31.4549
30.6449
29.8371
29.031
28.2261
27.4217
26.6171
25.8116
25.0042
24.1944
23.3813
22.5643
21.743
20.9171
20.0862
19.2503
18.4096
17.5643
16.7147
15.8612
15.0042
14.1443
13.2821
12.418
11.5528
10.687
9.82102
8.95544
8.09087
7.22758
6.36631
5.50713
4.65071
3.79713
2.94697
2.10039
1.25744
0.420063
66.8874
64.4507
63.2828
62.1489
61.0199
59.9343
58.8825
57.855
56.8482
55.8594
54.8862
53.9268
52.9797
52.0437
51.1177
50.201
49.2927
48.3921
47.4988
46.6123
45.732
44.8576
43.9888
43.1251
42.2664
41.4123
40.5626
39.7171
38.8755
38.0378
37.2036
36.3729
35.5455
34.7214
33.9003
33.0823
32.2672
31.4548
30.6448
29.837
29.031
28.226
27.4216
26.617
25.8115
25.0042
24.1943
23.3812
22.5643
21.743
20.917
20.0861
19.2503
18.4095
17.5643
16.7146
15.8611
15.0042
14.1443
13.282
12.418
11.5528
10.687
9.82103
8.95546
8.09089
7.22761
6.36635
5.50717
4.65075
3.79718
2.94702
2.10044
1.25749
0.42009
66.8991
64.4465
63.2827
62.1487
61.0197
59.9339
58.8821
57.8545
56.8477
55.8589
54.8857
53.9263
52.9792
52.0433
51.1173
50.2006
49.2923
48.3918
47.4986
46.612
45.7318
44.8574
43.9886
43.1249
42.2662
41.4121
40.5624
39.7169
38.8754
38.0376
37.2035
36.3728
35.5454
34.7213
33.9003
33.0822
32.2671
31.4547
30.6448
29.8369
29.0309
28.2259
27.4216
26.617
25.8115
25.0041
24.1943
23.3812
22.5642
21.7429
20.917
20.0861
19.2502
18.4095
17.5642
16.7146
15.8611
15.0041
14.1443
13.282
12.418
11.5528
10.687
9.82104
8.95547
8.09092
7.22764
6.36638
5.50721
4.65079
3.79722
2.94707
2.10049
1.25754
0.420111
66.9101
64.4427
63.2824
62.1483
61.0193
59.9335
58.8816
57.854
56.8471
55.8583
54.8852
53.9258
52.9788
52.0429
51.117
50.2003
49.292
48.3915
47.4983
46.6118
45.7315
44.8572
43.9884
43.1247
42.266
41.412
40.5623
39.7168
38.8753
38.0375
37.2034
36.3727
35.5453
34.7212
33.9002
33.0822
32.2671
31.4546