/*--------------------------------*- C++ -*----------------------------------*\
  =========                 |
  \\      /  F ield         | OpenFOAM: The Open Source CFD Toolbox
   \\    /   O peration     | Website:  https://openfoam.org
    \\  /    A nd           | Version:  7
     \\/     M anipulation  |
\*---------------------------------------------------------------------------*/
FoamFile
{
    version     2.0;
    format      ascii;
    class       surfaceScalarField;
    location    "500";
    object      phi;
}
// * * * * * * * * * * * * * * * * * * * * * * * * * * * * * * * * * * * * * //

dimensions      [0 3 -1 0 0 0 0];

internalField   nonuniform List<scalar> 
8865
(
0.00452285
0.00168694
0.00415016
0.00037269
0.0039903
0.000159866
0.00389729
9.30109e-05
0.00383339
6.38985e-05
0.00378555
4.78348e-05
0.00374796
3.75907e-05
0.00371747
3.04976e-05
0.00369216
2.53061e-05
0.00367081
2.13472e-05
0.00365258
1.82337e-05
0.00363685
1.57255e-05
0.00362319
1.36651e-05
0.00361124
1.1945e-05
0.00360075
1.04895e-05
0.00359151
9.24365e-06
0.00358334
8.16648e-06
0.00357612
7.22708e-06
0.00356971
6.40156e-06
0.00356404
5.67113e-06
0.00355902
5.02108e-06
0.00355458
4.43922e-06
0.00355067
3.91612e-06
0.00354722
3.44349e-06
0.00354421
3.01505e-06
0.00354158
2.62501e-06
0.00353931
2.26899e-06
0.00353737
1.94291e-06
0.00353573
1.64454e-06
0.00353436
1.36806e-06
0.00353325
1.11174e-06
0.00353238
8.72463e-07
0.00353173
6.49443e-07
0.0035313
4.35181e-07
0.00353107
2.3003e-07
0.00353104
2.88614e-08
0.00353121
-1.63445e-07
0.00353157
-3.56909e-07
0.00353212
-5.43331e-07
0.00353284
-7.25499e-07
0.00353374
-8.88091e-07
0.00353478
-1.04361e-06
0.00353596
-1.17659e-06
0.00353725
-1.28561e-06
0.0035386
-1.35725e-06
0.00354
-1.39432e-06
0.00354141
-1.40328e-06
0.00354278
-1.37739e-06
0.00354409
-1.31637e-06
0.00354532
-1.22878e-06
0.00354642
-1.10249e-06
0.00354739
-9.64345e-07
0.00354821
-8.16816e-07
0.00354886
-6.59393e-07
0.00354935
-4.9383e-07
0.00354967
-3.2957e-07
0.00354983
-1.5794e-07
0.00354983
2.0981e-09
0.00354967
1.52036e-07
0.00354937
2.97796e-07
0.00354893
4.31347e-07
0.00354837
5.536e-07
0.00354769
6.66677e-07
0.00354691
7.67311e-07
0.00354605
8.61134e-07
0.0035451
9.38139e-07
0.00354409
1.00692e-06
0.00354303
1.06057e-06
0.00354192
1.11224e-06
0.00354078
1.14417e-06
0.00353962
1.17073e-06
0.00353845
1.17573e-06
0.00353727
1.18455e-06
0.00353614
1.1485e-06
5.47909e-07
0.00573448
0.00277626
0.00532416
0.000783017
0.00510631
0.00037771
0.00497607
0.000223255
0.00488795
0.000152018
0.00482307
0.000112709
0.00477273
8.79388e-05
0.00473224
7.0979e-05
0.00469887
5.86788e-05
0.00467085
4.93648e-05
0.00464701
4.20795e-05
0.0046265
3.62353e-05
0.00460871
3.14508e-05
0.00459319
2.74677e-05
0.00457958
2.41051e-05
0.00456759
2.12322e-05
0.004557
1.87525e-05
0.00454763
1.65929e-05
0.00453934
1.46975e-05
0.00453199
1.30224e-05
0.00452548
1.15327e-05
0.00451971
1.02007e-05
0.00451463
9.00394e-06
0.00451015
7.92356e-06
0.00450622
6.94446e-06
0.00450279
6.05393e-06
0.00449982
5.2413e-06
0.00449726
4.49722e-06
0.00449509
3.81581e-06
0.00449327
3.18526e-06
0.00449179
2.60086e-06
0.0044906
2.05545e-06
0.00448971
1.54551e-06
0.00448909
1.05732e-06
0.00448873
5.89489e-07
0.00448863
1.32572e-07
0.00448877
-3.07428e-07
0.00448916
-7.45694e-07
0.00448979
-1.16761e-06
0.00449064
-1.57583e-06
0.0044917
-1.94377e-06
0.00449294
-2.28712e-06
0.00449435
-2.57804e-06
0.00449587
-2.8111e-06
0.00449748
-2.96299e-06
0.00449912
-3.03637e-06
0.00450076
-3.04106e-06
0.00450235
-2.96748e-06
0.00450385
-2.81751e-06
0.00450522
-2.60739e-06
0.00450644
-2.32195e-06
0.00450749
-2.0065e-06
0.00450834
-1.66849e-06
0.00450899
-1.31081e-06
0.00450943
-9.3947e-07
0.00450967
-5.71891e-07
0.00450971
-1.96352e-07
0.00450955
1.56601e-07
0.00450921
4.87204e-07
0.00450871
8.03346e-07
0.00450804
1.09215e-06
0.00450724
1.35482e-06
0.0045063
1.59473e-06
0.00450526
1.80633e-06
0.00450412
1.99858e-06
0.0045029
2.15621e-06
0.00450161
2.29348e-06
0.00450027
2.39881e-06
0.00449889
2.49343e-06
0.00449749
2.54998e-06
0.00449607
2.59203e-06
0.00449465
2.5934e-06
0.00449325
2.59692e-06
0.0044919
2.49735e-06
1.1917e-06
0.00677261
0.00350217
0.00634446
0.00121116
0.00607519
0.000646986
0.00590745
0.000390987
0.00579398
0.000265489
0.00571123
0.000195464
0.00564762
0.00015155
0.00559688
0.000121718
0.00555531
0.000100246
0.00552058
8.40915e-05
0.00549114
7.15232e-05
0.00546589
6.14851e-05
0.00544404
5.32969e-05
0.00542501
4.65007e-05
0.00540834
4.07776e-05
0.00539367
3.58986e-05
0.00538073
3.16951e-05
0.00536928
2.80403e-05
0.00535914
2.4837e-05
0.00535016
2.20093e-05
0.00534219
1.94976e-05
0.00533514
1.72539e-05
0.0053289
1.52397e-05
0.0053234
1.34228e-05
0.00531857
1.17775e-05
0.00531434
1.02819e-05
0.00531066
8.91784e-06
0.00530749
7.6695e-06
0.00530478
6.52563e-06
0.0053025
5.46848e-06
0.00530061
4.48886e-06
0.00529909
3.57482e-06
0.00529792
2.71896e-06
0.00529708
1.90148e-06
0.00529655
1.11819e-06
0.00529633
3.55577e-07
0.0052964
-3.80744e-07
0.00529677
-1.10875e-06
0.00529741
-1.80755e-06
0.00529831
-2.4778e-06
0.00529945
-3.08287e-06
0.0053008
-3.63737e-06
0.00530233
-4.10214e-06
0.00530398
-4.46652e-06
0.00530572
-4.69892e-06
0.00530748
-4.80132e-06
0.00530923
-4.78577e-06
0.0053109
-4.64249e-06
0.00531246
-4.37741e-06
0.00531387
-4.01477e-06
0.00531509
-3.54108e-06
0.0053161
-3.01728e-06
0.00531689
-2.45735e-06
0.00531745
-1.86965e-06
0.00531777
-1.26588e-06
0.00531787
-6.70725e-07
0.00531774
-7.16157e-08
0.00531741
4.9165e-07
0.00531687
1.01688e-06
0.00531616
1.51306e-06
0.00531529
1.96368e-06
0.00531427
2.37039e-06
0.00531312
2.73715e-06
0.00531187
3.05732e-06
0.00531052
3.34198e-06
0.00530911
3.57324e-06
0.00530763
3.76881e-06
0.00530611
3.91522e-06
0.00530457
4.03844e-06
0.00530301
4.10604e-06
0.00530146
4.14732e-06
0.00529993
4.13076e-06
0.00529841
4.11166e-06
0.00529699
3.92482e-06
1.86318e-06
0.00776838
0.00397374
0.00736522
0.00161432
0.00705881
0.000953393
0.00685371
0.000596095
0.00671229
0.00040691
0.00660913
0.000298623
0.00653023
0.000230446
0.00646767
0.000184282
0.00641669
0.000151228
0.00637428
0.000126494
0.00633846
0.000107343
0.00630784
9.2113e-05
0.0062814
7.97343e-05
0.00625841
6.94918e-05
0.00623829
6.08896e-05
0.00622062
5.3573e-05
0.00620503
4.7282e-05
0.00619125
4.18217e-05
0.00617905
3.70433e-05
0.00616822
3.28311e-05
0.00615863
2.9094e-05
0.00615012
2.57594e-05
0.00614259
2.27687e-05
0.00613594
2.00735e-05
0.00613009
1.76347e-05
0.00612495
1.54194e-05
0.00612047
1.34001e-05
0.00611658
1.15531e-05
0.00611325
9.86073e-06
0.00611042
8.29783e-06
0.00610806
6.85e-06
0.00610613
5.49956e-06
0.00610462
4.23434e-06
0.00610349
3.0281e-06
0.00610274
1.87335e-06
0.00610234
7.5267e-07
0.00610229
-3.29073e-07
0.00610258
-1.39201e-06
0.00610318
-2.40793e-06
0.00610407
-3.37429e-06
0.00610524
-4.24394e-06
0.00610663
-5.02902e-06
0.00610821
-5.67899e-06
0.00610992
-6.17781e-06
0.0061117
-6.48638e-06
0.00611351
-6.60622e-06
0.00611528
-6.55291e-06
0.00611695
-6.31785e-06
0.00611849
-5.91268e-06
0.00611984
-5.37101e-06
0.00612098
-4.68297e-06
0.00612189
-3.92544e-06
0.00612256
-3.12024e-06
0.00612297
-2.282e-06
0.00612313
-1.42876e-06
0.00612305
-5.92221e-07
0.00612274
2.40294e-07
0.00612221
1.01984e-06
0.00612148
1.74185e-06
0.00612058
2.41665e-06
0.00611951
3.02462e-06
0.00611831
3.56798e-06
0.00611699
4.05186e-06
0.00611558
4.46847e-06
0.00611409
4.83146e-06
0.00611254
5.12074e-06
0.00611095
5.35832e-06
0.00610933
5.52794e-06
0.00610771
5.66111e-06
0.0061061
5.72057e-06
0.00610451
5.74217e-06
0.00610295
5.68821e-06
0.00610144
5.62796e-06
0.00610004
5.32926e-06
2.51943e-06
0.00876053
0.0042679
0.00841816
0.00195669
0.00809688
0.00127467
0.00785897
0.000834004
0.00768847
0.000577413
0.00756264
0.000424453
0.00746628
0.000326806
0.00739005
0.000260516
0.00732813
0.000213142
0.00727681
0.000177816
0.00723358
0.00015057
0.00719672
0.00012898
0.00716496
0.000111491
0.00713739
9.7063e-05
0.0071133
8.49771e-05
0.00709215
7.47212e-05
0.00707351
6.59209e-05
0.00705704
5.82965e-05
0.00704245
5.1635e-05
0.00702951
4.57712e-05
0.00701803
4.05757e-05
0.00700784
3.5945e-05
0.00699881
3.17962e-05
0.00699083
2.80609e-05
0.00698378
2.4684e-05
0.00697758
2.16187e-05
0.00697215
1.88267e-05
0.00696743
1.62743e-05
0.00696335
1.39359e-05
0.00695987
1.17781e-05
0.00695694
9.77997e-06
0.00695453
7.9171e-06
0.00695259
6.17171e-06
0.00695111
4.5108e-06
0.00695006
2.92308e-06
0.00694942
1.38752e-06
0.00694919
-9.18529e-08
0.00694933
-1.53668e-06
0.00694984
-2.91108e-06
0.00695067
-4.20752e-06
0.0069518
-5.3685e-06
0.00695317
-6.40206e-06
0.00695474
-7.24694e-06
0.00695644
-7.88173e-06
0.00695822
-8.26115e-06
0.00696
-8.38724e-06
0.00696173
-8.27951e-06
0.00696334
-7.93278e-06
0.00696479
-7.36624e-06
0.00696604
-6.62382e-06
0.00696706
-5.70181e-06
0.00696783
-4.69258e-06
0.00696834
-3.62665e-06
0.00696858
-2.52593e-06
0.00696857
-1.41528e-06
0.00696831
-3.32716e-07
0.00696781
7.33082e-07
0.00696711
1.72505e-06
0.00696621
2.63685e-06
0.00696515
3.47988e-06
0.00696394
4.23222e-06
0.00696261
4.89714e-06
0.00696117
5.48078e-06
0.00695966
5.97518e-06
0.0069581
6.39614e-06
0.00695649
6.72289e-06
0.00695487
6.98054e-06
0.00695325
7.15204e-06
0.00695164
7.27269e-06
0.00695006
7.30269e-06
0.00694852
7.28263e-06
0.00694704
7.17134e-06
0.00694562
7.04967e-06
0.00694433
6.61648e-06
3.10607e-06
0.00977742
0.00444047
0.00951399
0.00222012
0.00920569
0.00158298
0.00894539
0.0010943
0.00874723
0.000775576
0.0085973
0.000574375
0.00848145
0.000442657
0.00838959
0.000352373
0.00831504
0.000287698
0.00825334
0.000239516
0.00820147
0.000202437
0.00815732
0.000173135
0.00811935
0.000149463
0.00808642
0.000129986
0.00805769
0.000113709
0.00803248
9.99274e-05
0.00801028
8.81251e-05
0.00799066
7.7918e-05
0.00797328
6.90144e-05
0.00795786
6.11885e-05
0.00794417
5.42636e-05
0.00793202
4.80989e-05
0.00792123
4.25818e-05
0.00791168
3.76196e-05
0.00790322
3.31372e-05
0.00789577
2.90721e-05
0.00788922
2.53718e-05
0.00788351
2.19913e-05
0.00787855
1.88953e-05
0.00787429
1.60404e-05
0.00787067
1.3398e-05
0.00786765
1.09361e-05
0.00786519
8.63037e-06
0.00786326
6.4405e-06
0.00786183
4.35112e-06
0.00786088
2.33757e-06
0.00786039
4.04071e-07
0.00786033
-1.47298e-06
0.00786067
-3.24991e-06
0.00786137
-4.91245e-06
0.0078624
-6.39234e-06
0.00786369
-7.69338e-06
0.00786519
-8.74387e-06
0.00786682
-9.51772e-06
0.00786853
-9.96461e-06
0.00787023
-1.0088e-05
0.00787186
-9.91342e-06
0.00787337
-9.4404e-06
0.0078747
-8.69733e-06
0.00787581
-7.73981e-06
0.00787668
-6.5714e-06
0.00787729
-5.30074e-06
0.00787763
-3.96789e-06
0.00787771
-2.60221e-06
0.00787753
-1.23552e-06
0.00787711
8.81025e-08
0.00787646
1.37828e-06
0.00787562
2.5701e-06
0.00787459
3.65615e-06
0.00787342
4.64934e-06
0.00787213
5.5259e-06
0.00787073
6.29047e-06
0.00786926
6.95098e-06
0.00786773
7.49914e-06
0.00786617
7.9537e-06
0.0078646
8.29314e-06
0.00786303
8.54693e-06
0.00786149
8.69603e-06
0.00785998
8.7808e-06
0.00785853
8.75838e-06
0.00785714
8.67545e-06
0.00785583
8.4858e-06
0.00785459
8.28425e-06
0.00785352
7.69555e-06
3.58655e-06
0.0108418
0.0045325
0.0106586
0.00240329
0.0103907
0.00185088
0.0101252
0.00135979
0.00990488
0.000995899
0.00973121
0.000748042
0.00959448
0.000579386
0.00948519
0.000461659
0.00939623
0.000376666
0.00932255
0.000313187
0.00926065
0.000264341
0.009208
0.000225789
0.00916276
0.000194702
0.00912357
0.000169174
0.00908939
0.000147885
0.00905943
0.000129893
0.00903304
0.000114513
0.00900972
0.000101235
0.00898907
8.96695e-05
0.00897074
7.95188e-05
0.00895445
7.05486e-05
0.00893998
6.25725e-05
0.00892712
5.54422e-05
0.0089157
4.90354e-05
0.00890559
4.32536e-05
0.00889664
3.80143e-05
0.00888877
3.32488e-05
0.00888186
2.8898e-05
0.00887584
2.49148e-05
0.00887064
2.1245e-05
0.00886618
1.78502e-05
0.00886243
1.46897e-05
0.00885933
1.17318e-05
0.00885684
8.92851e-06
0.00885493
6.25987e-06
0.00885357
3.69757e-06
0.00885273
1.24693e-06
0.00885238
-1.11761e-06
0.00885247
-3.3454e-06
0.00885298
-5.4137e-06
0.00885383
-7.24368e-06
0.00885497
-8.83431e-06
0.00885633
-1.01045e-05
0.00885784
-1.10243e-05
0.00885941
-1.15399e-05
0.00886098
-1.16577e-05
0.00886248
-1.141e-05
0.00886384
-1.08033e-05
0.00886502
-9.87667e-06
0.00886598
-8.69832e-06
0.00886669
-7.28087e-06
0.00886714
-5.74891e-06
0.00886732
-4.1525e-06
0.00886725
-2.52891e-06
0.00886693
-9.16866e-07
0.00886638
6.33689e-07
0.00886563
2.13008e-06
0.0088647
3.50106e-06
0.00886361
4.73853e-06
0.00886241
5.85697e-06
0.0088611
6.83152e-06
0.00885972
7.6688e-06
0.00885829
8.37838e-06
0.00885683
8.95265e-06
0.00885537
9.41299e-06
0.00885392
9.73839e-06
0.00885251
9.96161e-06
0.00885114
1.00635e-05
0.00884983
1.00879e-05
0.0088486
9.99077e-06
0.00884746
9.82327e-06
0.00884641
9.53647e-06
0.00884546
9.23716e-06
0.00884468
8.47599e-06
3.9078e-06
0.0119752
0.00457226
0.0118614
0.00251703
0.0116523
0.00206002
0.0114041
0.00160801
0.0111727
0.00122725
0.0109787
0.00094203
0.0108211
0.000736974
0.0106932
0.000589616
0.0105882
0.000481647
0.0105009
0.000400442
0.0104275
0.000337777
0.010365
0.000288286
0.0103113
0.000248398
0.0102648
0.00021568
0.0102243
0.000188432
0.0101887
0.000165439
0.0101574
0.000145814
0.0101298
0.000128895
0.0101052
0.00011418
0.0100835
0.000101282
0.0100641
8.98973e-05
0.0100469
7.97865e-05
0.0100316
7.07572e-05
0.010018
6.26524e-05
0.0100059
5.53446e-05
0.00999518
4.87282e-05
0.00998571
4.27147e-05
0.00997738
3.72283e-05
0.00997009
3.22081e-05
0.00996375
2.75862e-05
0.00995829
2.33138e-05
0.00995364
1.93399e-05
0.00994974
1.56243e-05
0.00994656
1.21108e-05
0.00994405
8.77445e-06
0.00994216
5.58315e-06
0.00994087
2.54405e-06
0.00994012
-3.70306e-07
0.00993988
-3.10308e-06
0.00994009
-5.62286e-06
0.00994068
-7.83946e-06
0.0099416
-9.74767e-06
0.00994275
-1.12578e-05
0.00994407
-1.23371e-05
0.00994546
-1.293e-05
0.00994685
-1.30469e-05
0.00994817
-1.27292e-05
0.00994935
-1.19912e-05
0.00995036
-1.08842e-05
0.00995115
-9.49017e-06
0.0099517
-7.83122e-06
0.009952
-6.04858e-06
0.00995205
-4.20275e-06
0.00995186
-2.33875e-06
0.00995144
-5.01732e-07
0.00995082
1.25222e-06
0.00995002
2.92846e-06
0.00994908
4.4503e-06
0.009948
5.80922e-06
0.00994684
7.02195e-06
0.0099456
8.06296e-06
0.00994433
8.94117e-06
0.00994304
9.66862e-06
0.00994175
1.02382e-05
0.00994049
1.06746e-05
0.00993927
1.09573e-05
0.0099381
1.11235e-05
0.00993701
1.11526e-05
0.00993601
1.10934e-05
0.0099351
1.08997e-05
0.0099343
1.06288e-05
0.00993361
1.0227e-05
0.00993303
9.81588e-06
0.00993264
8.86856e-06
4.03592e-06
0.0131983
0.00457686
0.0131373
0.00257801
0.0129915
0.00220581
0.0127826
0.00181691
0.0125574
0.00145244
0.0123512
0.00114828
0.0121753
0.000912857
0.0120287
0.000736235
0.0119067
0.000603686
0.0118044
0.000502686
0.011718
0.000424209
0.0116442
0.000362025
0.0115808
0.000311841
0.0115258
0.00027067
0.0114778
0.0002364
0.0114358
0.000207506
0.0113987
0.00018287
0.011366
0.000161655
0.0113369
0.000143224
0.0113111
0.000127088
0.0112881
0.000112861
0.0112677
0.000100238
0.0112495
8.89775e-05
0.0112332
7.8879e-05
0.0112188
6.97819e-05
0.011206
6.1552e-05
0.0111946
5.40776e-05
0.0111846
4.72632e-05
0.0111758
4.1031e-05
0.011168
3.52981e-05
0.0111614
3.00027e-05
0.0111556
2.50824e-05
0.0111508
2.04874e-05
0.0111467
1.61522e-05
0.0111434
1.20467e-05
0.0111409
8.13458e-06
0.011139
4.42465e-06
0.0111378
8.89225e-07
0.0111371
-2.41058e-06
0.0111369
-5.43577e-06
0.0111371
-8.08399e-06
0.0111377
-1.0346e-05
0.0111386
-1.2125e-05
0.0111396
-1.33868e-05
0.0111408
-1.40754e-05
0.0111419
-1.42074e-05
0.011143
-1.38336e-05
0.011144
-1.29783e-05
0.0111449
-1.17063e-05
0.0111455
-1.01135e-05
0.0111459
-8.23305e-06
0.0111461
-6.22225e-06
0.011146
-4.15208e-06
0.0111457
-2.07543e-06
0.0111453
-4.38199e-08
0.0111446
1.88093e-06
0.0111439
3.70219e-06
0.011143
5.33922e-06
0.011142
6.78345e-06
0.011141
8.05396e-06
0.0111399
9.12529e-06
0.0111388
1.00092e-05
0.0111378
1.07202e-05
0.0111368
1.12523e-05
0.0111358
1.16336e-05
0.0111349
1.18447e-05
0.0111341
1.19265e-05
0.0111334
1.18586e-05
0.0111328
1.16933e-05
0.0111323
1.13838e-05
0.011132
1.09918e-05
0.0111317
1.04613e-05
0.0111316
9.92632e-06
0.0111317
8.78496e-06
3.9181e-06
0.0145294
0.00455582
0.0145054
0.00260198
0.0144157
0.00229555
0.0142598
0.00197282
0.0140612
0.00165105
0.0138564
0.00135304
0.0136688
0.00110045
0.0135058
0.000899213
0.0133669
0.000742613
0.0132489
0.000620723
0.0131482
0.000524839
0.0130619
0.000448325
0.0129874
0.000386336
0.0129227
0.00033538
0.0128662
0.00029293
0.0128166
0.000257137
0.0127728
0.000226629
0.0127341
0.000200374
0.0126997
0.000177582
0.0126692
0.000157643
0.012642
0.000140079
0.0126177
0.00012451
0.012596
0.000110632
0.0125767
9.81974e-05
0.0125595
8.70043e-05
0.0125442
7.68862e-05
0.0125305
6.77034e-05
0.0125185
5.9337e-05
0.0125078
5.16899e-05
0.0124984
4.4661e-05
0.0124903
3.8174e-05
0.0124832
3.21531e-05
0.0124771
2.65375e-05
0.012472
2.1252e-05
0.0124678
1.62601e-05
0.0124644
1.15214e-05
0.0124618
7.04533e-06
0.0124599
2.80548e-06
0.0124586
-1.13398e-06
0.0124579
-4.72913e-06
0.0124577
-7.86465e-06
0.0124579
-1.0528e-05
0.0124584
-1.26165e-05
0.0124591
-1.40959e-05
0.0124599
-1.49117e-05
0.0124608
-1.50874e-05
0.0124617
-1.46856e-05
0.0124624
-1.3741e-05
0.0124631
-1.23331e-05
0.0124635
-1.05724e-05
0.0124638
-8.50326e-06
0.0124639
-6.29919e-06
0.0124637
-4.0419e-06
0.0124635
-1.79148e-06
0.012463
3.94084e-07
0.0124625
2.4476e-06
0.0124618
4.37142e-06
0.012461
6.08104e-06
0.0124603
7.56817e-06
0.0124595
8.85503e-06
0.0124587
9.91649e-06
0.0124579
1.07675e-05
0.0124572
1.14255e-05
0.0124566
1.18859e-05
0.012456
1.21805e-05
0.0124556
1.22909e-05
0.0124552
1.22629e-05
0.012455
1.20746e-05
0.0124549
1.17834e-05
0.012455
1.13408e-05
0.0124551
1.08145e-05
0.0124555
1.01436e-05
0.0124559
9.47819e-06
0.0124566
8.13962e-06
3.52373e-06
0.0159844
0.00451431
0.0159863
0.00260012
0.0159396
0.0023422
0.015838
0.00207445
0.0156829
0.00180618
0.0154978
0.00153813
0.0153103
0.00128793
0.015137
0.00107255
0.0149835
0.000896033
0.0148502
0.000754095
0.0147348
0.000640183
0.014635
0.000548156
0.0145483
0.000473036
0.0144727
0.000411005
0.0144064
0.000359191
0.0143481
0.00031544
0.0142966
0.000278124
0.014251
0.000246004
0.0142104
0.000218127
0.0141743
0.000193748
0.0141421
0.000172285
0.0141134
0.000153272
0.0140877
0.000136334
0.0140647
0.000121168
0.0140442
0.000107526
0.0140259
9.52011e-05
0.0140095
8.40231e-05
0.013995
7.38454e-05
0.0139822
6.45476e-05
0.0139708
5.60083e-05
0.0139609
4.81339e-05
0.0139522
4.08336e-05
0.0139447
3.40342e-05
0.0139383
2.76493e-05
0.0139329
2.16356e-05
0.0139285
1.59473e-05
0.0139249
1.05943e-05
0.0139222
5.55118e-06
0.0139202
8.85624e-07
0.0139188
-3.3565e-06
0.013918
-7.04926e-06
0.0139176
-1.01757e-05
0.0139177
-1.26289e-05
0.0139179
-1.4376e-05
0.0139184
-1.53659e-05
0.0139189
-1.56303e-05
0.0139195
-1.52443e-05
0.01392
-1.42543e-05
0.0139204
-1.27552e-05
0.0139207
-1.08724e-05
0.0139209
-8.6621e-06
0.0139209
-6.31341e-06
0.0139208
-3.9184e-06
0.0139205
-1.54438e-06
0.0139202
7.44161e-07
0.0139197
2.87548e-06
0.0139193
4.85113e-06
0.0139188
6.58387e-06
0.0139183
8.06612e-06
0.0139178
9.32322e-06
0.0139174
1.03311e-05
0.013917
1.11083e-05
0.0139168
1.16751e-05
0.0139166
1.20288e-05
0.0139166
1.22049e-05
0.0139167
1.21867e-05
0.013917
1.20238e-05
0.0139173
1.16946e-05
0.0139179
1.12598e-05
0.0139185
1.06706e-05
0.0139193
9.99908e-06
0.0139203
9.18186e-06
0.0139214
8.3824e-06
0.0139227
6.85071e-06
2.80198e-06
0.0175785
0.00445507
0.0175995
0.00257919
0.0175837
0.00235791
0.0175281
0.00213005
0.0174232
0.00191109
0.0172751
0.00168623
0.0171043
0.00145878
0.0169315
0.00124532
0.0167696
0.00105797
0.0166236
0.000900065
0.0164944
0.000769374
0.0163809
0.000661678
0.0162813
0.000572637
0.0161938
0.0004985
0.0161167
0.000436244
0.0160487
0.000383495
0.0159884
0.000338409
0.0159348
0.000299552
0.0158872
0.000265805
0.0158446
0.000236287
0.0158066
0.000210298
0.0157726
0.000187279
0.0157422
0.000166781
0.0157149
0.000148434
0.0156905
0.000131938
0.0156686
0.000117042
0.0156491
0.000103539
0.0156317
9.12509e-05
0.0156162
8.00307e-05
0.0156025
6.97331e-05
0.0155904
6.02452e-05
0.0155798
5.14588e-05
0.0155705
4.32866e-05
0.0155625
3.56298e-05
0.0155557
2.84371e-05
0.01555
2.16565e-05
0.0155453
1.52969e-05
0.0155416
9.33319e-06
0.0155386
3.8379e-06
0.0155364
-1.14404e-06
0.0155348
-5.48031e-06
0.0155338
-9.14896e-06
0.0155332
-1.204e-05
0.015533
-1.41233e-05
0.0155329
-1.53526e-05
0.0155331
-1.57688e-05
0.0155333
-1.54609e-05
0.0155335
-1.44875e-05
0.0155337
-1.29595e-05
0.0155339
-1.10173e-05
0.0155339
-8.72868e-06
0.0155339
-6.29825e-06
0.0155338
-3.82847e-06
0.0155337
-1.39311e-06
0.0155335
9.36724e-07
0.0155333
3.08541e-06
0.0155331
5.05459e-06
0.0155329
6.75442e-06
0.0155328
8.17831e-06
0.0155328
9.35539e-06
0.0155328
1.02627e-05
0.015533
1.09227e-05
0.0155333
1.13592e-05
0.0155338
1.15709e-05
0.0155344
1.15975e-05
0.0155352
1.14237e-05
0.0155361
1.1104e-05
0.0155371
1.06152e-05
0.0155384
1.00231e-05
0.0155398
9.277e-06
0.0155413
8.455e-06
0.015543
7.48852e-06
0.0155448
6.5578e-06
0.0155469
4.84298e-06
1.72969e-06
0.0193271
0.00437951
0.0193633
0.00254302
0.0193699
0.00235126
0.0193491
0.00215085
0.0192904
0.00196985
0.0191886
0.00178799
0.0190512
0.00159619
0.0188945
0.00140198
0.0187348
0.00121769
0.0185826
0.00105228
0.0184429
0.000909105
0.0183171
0.00078748
0.0182049
0.000684848
0.0181051
0.000598216
0.0180166
0.00052479
0.0179379
0.000462184
0.0178679
0.000408444
0.0178054
0.000361996
0.0177496
0.000321578
0.0176998
0.000286181
0.0176551
0.000254993
0.017615
0.000227358
0.017579
0.000202744
0.0175467
0.000180715
0.0175178
0.00016091
0.0174918
0.000143031
0.0174685
0.000126828
0.0174476
0.000112088
0.017429
9.86336e-05
0.0174125
8.62935e-05
0.0173978
7.49321e-05
0.0173848
6.44216e-05
0.0173735
5.46589e-05
0.0173636
4.55311e-05
0.017355
3.69773e-05
0.0173477
2.89385e-05
0.0173416
2.14211e-05
0.0173366
1.43987e-05
0.0173324
7.94788e-06
0.0173292
2.11363e-06
0.0173267
-2.97077e-06
0.0173248
-7.28144e-06
0.0173235
-1.07042e-05
0.0173226
-1.32131e-05
0.017322
-1.47683e-05
0.0173216
-1.54211e-05
0.0173214
-1.52743e-05
0.0173214
-1.43997e-05
0.0173213
-1.29244e-05
0.0173213
-1.10034e-05
0.0173213
-8.71659e-06
0.0173213
-6.28309e-06
0.0173213
-3.81514e-06
0.0173213
-1.39306e-06
0.0173213
9.05483e-07
0.0173214
3.00189e-06
0.0173215
4.89796e-06
0.0173218
6.50219e-06
0.0173222
7.80929e-06
0.0173227
8.85205e-06
0.0173233
9.60911e-06
0.0173241
1.01072e-05
0.0173251
1.03731e-05
0.0173263
1.04079e-05
0.0173276
1.02549e-05
0.0173291
9.90081e-06
0.0173308
9.40382e-06
0.0173327
8.74083e-06
0.0173348
7.98056e-06
0.017337
7.07206e-06
0.0173393
6.09751e-06
0.0173418
4.98517e-06
0.0173445
3.92963e-06
0.0173472
2.05018e-06
2.62299e-07
0.0212463
0.00428825
0.0212957
0.00249367
0.0213195
0.00232744
0.0213242
0.00214617
0.0213021
0.00199196
0.0212453
0.00184475
0.0211515
0.00169
0.021027
0.00152649
0.0208846
0.00136013
0.0207372
0.00119968
0.020594
0.0010523
0.02046
0.000921453
0.0203373
0.000807544
0.0202262
0.000709285
0.0201263
0.000624735
0.0200366
0.000551879
0.0199562
0.000488871
0.019884
0.000434124
0.0198193
0.000386304
0.0197612
0.000344313
0.0197089
0.000307245
0.0196619
0.000274358
0.0196196
0.00024504
0.0195816
0.000218785
0.0195473
0.000195173
0.0195165
0.000173855
0.0194888
0.000154534
0.0194639
0.000136959
0.0194416
0.00012092
0.0194217
0.000106215
0.0194039
9.26839e-05
0.0193882
8.01778e-05
0.0193743
6.85753e-05
0.019362
5.77478e-05
0.0193514
4.76235e-05
0.0193422
3.81344e-05
0.0193343
2.92831e-05
0.0193277
2.10399e-05
0.0193222
1.34837e-05
0.0193176
6.66005e-06
0.0193139
7.01065e-07
0.019311
-4.37359e-06
0.0193088
-8.4461e-06
0.0193071
-1.14944e-05
0.0193058
-1.34863e-05
0.0193048
-1.44836e-05
0.0193042
-1.46046e-05
0.0193037
-1.39334e-05
0.0193034
-1.26136e-05
0.0193032
-1.08145e-05
0.0193031
-8.6277e-06
0.0193031
-6.28617e-06
0.0193032
-3.91189e-06
0.0193034
-1.59103e-06
0.0193037
5.92043e-07
0.0193042
2.55663e-06
0.0193048
4.30514e-06
0.0193055
5.74459e-06
0.0193065
6.87106e-06
0.0193076
7.72149e-06
0.0193089
8.27609e-06
0.0193105
8.56572e-06
0.0193122
8.62093e-06
0.0193142
8.44428e-06
0.0193163
8.08337e-06
0.0193187
7.52598e-06
0.0193213
6.83538e-06
0.019324
5.98627e-06
0.019327
5.05195e-06
0.0193301
3.97923e-06
0.0193333
2.85636e-06
0.0193367
1.60529e-06
0.0193402
4.38111e-07
0.0193438
-1.58039e-06
-1.60984e-06
0.0233536
0.00418142
0.0234151
0.0024322
0.0234532
0.00228933
0.0234772
0.00212214
0.0234826
0.00198665
0.0234628
0.0018645
0.0234125
0.0017403
0.02333
0.00160898
0.0232201
0.00147005
0.0230924
0.00132737
0.0229574
0.00118727
0.0228234
0.00105551
0.0226954
0.000935567
0.022576
0.000828655
0.0224663
0.000734457
0.0223663
0.000651894
0.0222755
0.00057961
0.0221934
0.000516238
0.0221192
0.000460523
0.0220521
0.000411361
0.0219916
0.000367808
0.0219369
0.000329066
0.0218874
0.000294461
0.0218428
0.000263426
0.0218025
0.000235487
0.0217661
0.000210242
0.0217333
0.000187351
0.0217037
0.000166522
0.0216771
0.00014751
0.0216533
0.000130082
0.0216319
0.000114051
0.0216128
9.92444e-05
0.0215959
8.55204e-05
0.0215809
7.27336e-05
0.0215677
6.07995e-05
0.0215562
4.96398e-05
0.0215463
3.92511e-05
0.0215377
2.95987e-05
0.0215304
2.07611e-05
0.0215243
1.27825e-05
0.0215192
5.79575e-06
0.021515
-1.88206e-07
0.0215116
-5.05471e-06
0.0215089
-8.7829e-06
0.0215068
-1.13489e-05
0.0215051
-1.28258e-05
0.0215039
-1.33465e-05
0.0215029
-1.30077e-05
0.0215023
-1.19695e-05
0.0215019
-1.04144e-05
0.0215017
-8.44605e-06
0.0215017
-6.30973e-06
0.021502
-4.13663e-06
0.0215024
-2.01866e-06
0.021503
-4.69757e-08
0.0215039
1.69624e-06
0.021505
3.21402e-06
0.0215063
4.41273e-06
0.0215079
5.28991e-06
0.0215097
5.88633e-06
0.0215118
6.18393e-06
0.0215142
6.21793e-06
0.0215167
6.02189e-06
0.0215196
5.60061e-06
0.0215227
5.00516e-06
0.021526
4.22476e-06
0.0215295
3.32629e-06
0.0215332
2.2839e-06
0.0215371
1.17323e-06
0.0215411
-6.00998e-08
0.0215453
-1.32356e-06
0.0215496
-2.699e-06
0.021554
-3.959e-06
0.0215585
-6.08247e-06
-3.91803e-06
0.025668
0.00405883
0.0257411
0.00235909
0.025792
0.00223841
0.0258318
0.00208235
0.025858
0.00196046
0.0258665
0.00185601
0.0258526
0.00175414
0.0258122
0.00164945
0.0257435
0.00153871
0.0256497
0.00142115
0.0255378
0.00129914
0.0254163
0.00117709
0.0252923
0.00105955
0.0251711
0.000949846
0.0250558
0.000849723
0.0249481
0.000759626
0.0248485
0.000679192
0.0247571
0.000607648
0.0246736
0.000544065
0.0245974
0.000487505
0.0245281
0.000437091
0.0244652
0.000392034
0.024408
0.000351645
0.0243561
0.000315323
0.024309
0.000282556
0.0242664
0.0002529
0.0242277
0.000225977
0.0241928
0.000201457
0.0241612
0.000179061
0.0241328
0.000158524
0.0241072
0.000139633
0.0240843
0.000122189
0.0240638
0.000106032
0.0240455
9.09964e-05
0.0240293
7.6984e-05
0.0240151
6.39043e-05
0.0240026
5.17464e-05
0.0239917
4.04683e-05
0.0239823
3.01455e-05
0.0239743
2.08186e-05
0.0239675
1.2619e-05
0.0239617
5.55203e-06
0.0239569
-2.7722e-07
0.023953
-4.85515e-06
0.0239498
-8.16197e-06
0.0239473
-1.02816e-05
0.0239453
-1.1362e-05
0.0239438
-1.15115e-05
0.0239427
-1.09061e-05
0.0239421
-9.74077e-06
0.0239417
-8.1301e-06
0.0239418
-6.33119e-06
0.0239421
-4.48423e-06
0.0239428
-2.68574e-06
0.0239438
-1.03408e-06
0.0239451
3.87468e-07
0.0239467
1.58296e-06
0.0239487
2.45825e-06
0.0239509
3.01212e-06
0.0239535
3.28944e-06
0.0239564
3.27351e-06
0.0239597
3.00348e-06
0.0239632
2.51644e-06
0.0239669
1.81846e-06
0.023971
9.64486e-07
0.0239753
-5.62921e-08
0.0239798
-1.17195e-06
0.0239844
-2.41138e-06
0.0239893
-3.69449e-06
0.0239943
-5.07927e-06
0.0239995
-6.46822e-06
0.0240047
-7.95054e-06
0.0240101
-9.27929e-06
0.0240154
-1.14688e-05
-6.65047e-06
0.02821
0.00392004
0.0282946
0.00227448
0.0283577
0.00217531
0.0284114
0.00202872
0.0284545
0.00191736
0.0284846
0.00182582
0.028499
0.00173975
0.0284939
0.00165457
0.0284658
0.00156685
0.0284129
0.00147399
0.0283369
0.00137516
0.0282424
0.00127159
0.0281359
0.00116607
0.0280237
0.00106203
0.027911
0.000962457
0.0278012
0.000869359
0.0276967
0.000783742
0.0275985
0.000705841
0.0275072
0.000635404
0.0274227
0.000571917
0.0273451
0.000514755
0.0272738
0.000463267
0.0272087
0.000416833
0.0271491
0.000374878
0.0270948
0.000336886
0.0270453
0.000302401
0.0270002
0.00027102
0.0269593
0.000242388
0.0269222
0.000216199
0.0268885
0.000192162
0.0268581
0.000170036
0.0268307
0.000149603
0.0268061
0.000130679
0.026784
0.000113081
0.0267643
9.6697e-05
0.0267467
8.14223e-05
0.0267313
6.72366e-05
0.0267176
5.40891e-05
0.0267057
4.20498e-05
0.0266954
3.11535e-05
0.0266865
2.15269e-05
0.0266789
1.31689e-05
0.0266724
6.17838e-06
0.026667
5.56135e-07
0.0266625
-3.68829e-06
0.0266589
-6.64469e-06
0.026656
-8.4741e-06
0.0266538
-9.29584e-06
0.0266522
-9.3012e-06
0.0266511
-8.6958e-06
0.0266506
-7.60549e-06
0.0266506
-6.29699e-06
0.026651
-4.91896e-06
0.0266519
-3.57245e-06
0.0266532
-2.36251e-06
0.026655
-1.37347e-06
0.0266572
-6.01269e-07
0.0266598
-1.39123e-07
0.0266628
1.27082e-08
0.0266662
-9.75017e-08
0.0266699
-4.85311e-07
0.026674
-1.10775e-06
0.0266785
-1.92502e-06
0.0266832
-2.92953e-06
0.0266882
-4.06343e-06
0.0266935
-5.33641e-06
0.026699
-6.67436e-06
0.0267047
-8.10911e-06
0.0267106
-9.55745e-06
0.0267166
-1.10802e-05
0.0267227
-1.25768e-05
0.0267289
-1.41421e-05
0.0267351
-1.55122e-05
0.0267414
-1.7721e-05
-9.81431e-06
0.0310025
0.00376437
0.0310986
0.00217833
0.0311738
0.00210012
0.0312404
0.00196217
0.0312982
0.00185951
0.0313461
0.00177799
0.0313824
0.00170341
0.0314049
0.00163208
0.0314106
0.00156114
0.0313966
0.00148794
0.0313612
0.00141063
0.0313045
0.00132831
0.0312292
0.00124132
0.03114
0.00115123
0.0310421
0.00106038
0.0309402
0.000971214
0.0308382
0.000885745
0.0307387
0.000805322
0.0306435
0.000730648
0.0305535
0.00066193
0.0304692
0.000599048
0.0303908
0.000541688
0.0303182
0.000489441
0.0302512
0.000441861
0.0301896
0.000398506
0.030133
0.000358957
0.0300812
0.000322823
0.0300338
0.000289747
0.0299906
0.000259415
0.0299513
0.00023152
0.0299155
0.000205807
0.0298831
0.000182037
0.0298537
0.000160012
0.0298273
0.000139531
0.0298035
0.000120469
0.0297822
0.000102707
0.0297633
8.62157e-05
0.0297464
7.09335e-05
0.0297315
5.6923e-05
0.0297185
4.42106e-05
0.0297071
3.29169e-05
0.0296972
2.30324e-05
0.0296888
1.4648e-05