/*--------------------------------*- C++ -*----------------------------------*\
  =========                 |
  \\      /  F ield         | OpenFOAM: The Open Source CFD Toolbox
   \\    /   O peration     | Website:  https://openfoam.org
    \\  /    A nd           | Version:  7
     \\/     M anipulation  |
\*---------------------------------------------------------------------------*/
FoamFile
{
    version     2.0;
    format      ascii;
    class       volVectorField;
    location    "500";
    object      U;
}
// * * * * * * * * * * * * * * * * * * * * * * * * * * * * * * * * * * * * * //

dimensions      [0 1 -1 0 0 0 0];

internalField   nonuniform List<vector> 
4500
(
(15.4058 -0.778201 0)
(13.7077 -0.0619025 0)
(13.0325 -0.00325615 0)
(12.6708 0.00046499 0)
(12.4331 0.00050143 0)
(12.2594 0.000386177 0)
(12.125 0.000303744 0)
(12.0172 0.000246405 0)
(11.9286 0.0002045 0)
(11.8542 0.000172559 0)
(11.7911 0.000147436 0)
(11.7368 0.000127187 0)
(11.6898 0.000110545 0)
(11.6488 9.66463e-05 0)
(11.6128 8.48801e-05 0)
(11.5812 7.48043e-05 0)
(11.5533 6.60903e-05 0)
(11.5286 5.84884e-05 0)
(11.5067 5.18065e-05 0)
(11.4874 4.58936e-05 0)
(11.4702 4.06273e-05 0)
(11.455 3.5915e-05 0)
(11.4416 3.16779e-05 0)
(11.4298 2.78497e-05 0)
(11.4194 2.43752e-05 0)
(11.4104 2.12141e-05 0)
(11.4025 1.83288e-05 0)
(11.3957 1.56877e-05 0)
(11.39 1.32723e-05 0)
(11.3852 1.10345e-05 0)
(11.3812 8.96285e-06 0)
(11.378 7.0322e-06 0)
(11.3756 5.24139e-06 0)
(11.3738 3.52205e-06 0)
(11.3728 1.88072e-06 0)
(11.3724 2.67277e-07 0)
(11.3726 -1.266e-06 0)
(11.3735 -2.82848e-06 0)
(11.3749 -4.34537e-06 0)
(11.377 -5.85742e-06 0)
(11.3796 -7.21363e-06 0)
(11.3827 -8.56424e-06 0)
(11.3863 -9.76497e-06 0)
(11.3903 -1.08071e-05 0)
(11.3946 -1.155e-05 0)
(11.3991 -1.20197e-05 0)
(11.4036 -1.22875e-05 0)
(11.4081 -1.22722e-05 0)
(11.4125 -1.19504e-05 0)
(11.4166 -1.13989e-05 0)
(11.4204 -1.04654e-05 0)
(11.4237 -9.42051e-06 0)
(11.4266 -8.28834e-06 0)
(11.429 -7.04449e-06 0)
(11.4308 -5.69731e-06 0)
(11.4321 -4.35565e-06 0)
(11.4329 -2.9039e-06 0)
(11.4331 -1.52697e-06 0)
(11.4329 -2.30711e-07 0)
(11.4321 1.06182e-06 0)
(11.4309 2.25868e-06 0)
(11.4293 3.37747e-06 0)
(11.4273 4.42972e-06 0)
(11.4249 5.38462e-06 0)
(11.4223 6.29879e-06 0)
(11.4193 7.06928e-06 0)
(11.4162 7.77903e-06 0)
(11.4128 8.35833e-06 0)
(11.4093 8.94205e-06 0)
(11.4057 9.34397e-06 0)
(11.402 9.70802e-06 0)
(11.3982 9.86439e-06 0)
(11.3944 1.00711e-05 0)
(11.3906 9.90582e-06 0)
(11.3871 4.87234e-06 0)
(17.5879 0.16307 0)
(16.0152 0.0238108 0)
(15.1976 0.00458796 0)
(14.7348 0.00198899 0)
(14.4341 0.00129709 0)
(14.2183 0.000960549 0)
(14.0538 0.000751469 0)
(13.9232 0.000608021 0)
(13.8165 0.000503607 0)
(13.7275 0.000424282 0)
(13.6522 0.000362065 0)
(13.5878 0.000312044 0)
(13.532 0.000271017 0)
(13.4835 0.00023681 0)
(13.441 0.000207894 0)
(13.4037 0.000183163 0)
(13.3708 0.000161797 0)
(13.3416 0.000143174 0)
(13.3158 0.000126818 0)
(13.293 0.000112354 0)
(13.2728 9.94814e-05 0)
(13.2548 8.79687e-05 0)
(13.239 7.762e-05 0)
(13.225 6.82752e-05 0)
(13.2127 5.97988e-05 0)
(13.202 5.20898e-05 0)
(13.1926 4.50535e-05 0)
(13.1846 3.86119e-05 0)
(13.1777 3.27103e-05 0)
(13.1718 2.72514e-05 0)
(13.167 2.21947e-05 0)
(13.1631 1.74784e-05 0)
(13.1601 1.30754e-05 0)
(13.1579 8.86208e-06 0)
(13.1564 4.82778e-06 0)
(13.1558 8.81239e-07 0)
(13.1558 -2.91567e-06 0)
(13.1566 -6.71764e-06 0)
(13.1581 -1.0397e-05 0)
(13.1603 -1.39923e-05 0)
(13.1631 -1.72549e-05 0)
(13.1665 -2.03574e-05 0)
(13.1704 -2.304e-05 0)
(13.1747 -2.52563e-05 0)
(13.1793 -2.6777e-05 0)
(13.1841 -2.76254e-05 0)
(13.189 -2.78928e-05 0)
(13.1937 -2.74707e-05 0)
(13.1983 -2.63579e-05 0)
(13.2025 -2.46976e-05 0)
(13.2064 -2.23194e-05 0)
(13.2097 -1.96545e-05 0)
(13.2125 -1.67648e-05 0)
(13.2147 -1.36624e-05 0)
(13.2163 -1.03997e-05 0)
(13.2173 -7.15343e-06 0)
(13.2177 -3.79097e-06 0)
(13.2175 -6.01878e-07 0)
(13.2168 2.40542e-06 0)
(13.2155 5.31749e-06 0)
(13.2138 7.99989e-06 0)
(13.2116 1.04686e-05 0)
(13.2091 1.27486e-05 0)
(13.2061 1.47859e-05 0)
(13.2029 1.66657e-05 0)
(13.1994 1.82377e-05 0)
(13.1958 1.96356e-05 0)
(13.1919 2.07482e-05 0)
(13.1879 2.17794e-05 0)
(13.1838 2.24592e-05 0)
(13.1797 2.30135e-05 0)
(13.1755 2.31867e-05 0)
(13.1714 2.33882e-05 0)
(13.1673 2.26853e-05 0)
(13.1635 1.09074e-05 0)
(18.7449 0.0973745 0)
(17.3725 0.0156216 0)
(16.4743 0.00605636 0)
(15.9331 0.00350033 0)
(15.5795 0.00236975 0)
(15.3279 0.00174957 0)
(15.138 0.00136082 0)
(14.9886 0.00109591 0)
(14.8673 0.000904526 0)
(14.7668 0.000760049 0)
(14.6821 0.000647307 0)
(14.6098 0.000557034 0)
(14.5474 0.000483241 0)
(14.4932 0.000421882 0)
(14.4459 0.000370132 0)
(14.4043 0.000325958 0)
(14.3676 0.000287856 0)
(14.3353 0.000254694 0)
(14.3066 0.000225604 0)
(14.2812 0.000199907 0)
(14.2586 0.000177061 0)
(14.2387 0.000156644 0)
(14.221 0.000138306 0)
(14.2054 0.000121757 0)
(14.1917 0.000106758 0)
(14.1796 9.3123e-05 0)
(14.1691 8.06829e-05 0)
(14.16 6.92973e-05 0)
(14.1522 5.88615e-05 0)
(14.1456 4.92162e-05 0)
(14.14 4.02794e-05 0)
(14.1355 3.19416e-05 0)
(14.1319 2.41398e-05 0)
(14.1292 1.66838e-05 0)
(14.1274 9.53836e-06 0)
(14.1264 2.56937e-06 0)
(14.1262 -4.15739e-06 0)
(14.1268 -1.08431e-05 0)
(14.1282 -1.72852e-05 0)
(14.1302 -2.35101e-05 0)
(14.133 -2.91491e-05 0)
(14.1363 -3.43878e-05 0)
(14.1402 -3.88351e-05 0)
(14.1445 -4.23955e-05 0)
(14.149 -4.47404e-05 0)
(14.1537 -4.58917e-05 0)
(14.1585 -4.59732e-05 0)
(14.163 -4.48612e-05 0)
(14.1674 -4.25907e-05 0)
(14.1714 -3.93927e-05 0)
(14.1749 -3.5091e-05 0)
(14.1779 -3.03022e-05 0)
(14.1803 -2.51512e-05 0)
(14.1821 -1.97007e-05 0)
(14.1833 -1.40574e-05 0)
(14.1838 -8.47176e-06 0)
(14.1838 -2.78977e-06 0)
(14.1831 2.57805e-06 0)
(14.182 7.60537e-06 0)
(14.1803 1.23954e-05 0)
(14.1782 1.67729e-05 0)
(14.1756 2.07525e-05 0)
(14.1727 2.43774e-05 0)
(14.1695 2.75715e-05 0)
(14.166 3.04533e-05 0)
(14.1623 3.28248e-05 0)
(14.1585 3.48732e-05 0)
(14.1545 3.64499e-05 0)
(14.1504 3.78335e-05 0)
(14.1462 3.86677e-05 0)
(14.1421 3.92646e-05 0)
(14.1379 3.92813e-05 0)
(14.1339 3.92962e-05 0)
(14.1299 3.7738e-05 0)
(14.1263 1.80049e-05 0)
(19.3754 0.0462247 0)
(18.326 0.0150409 0)
(17.4307 0.00910101 0)
(16.8356 0.00564414 0)
(16.435 0.00383709 0)
(16.1491 0.00281757 0)
(15.9342 0.00217867 0)
(15.7661 0.00174595 0)
(15.6305 0.00143549 0)
(15.5186 0.00120258 0)
(15.4247 0.00102181 0)
(15.3447 0.000877711 0)
(15.276 0.000760364 0)
(15.2164 0.0006631 0)
(15.1644 0.000581289 0)
(15.1188 0.000511614 0)
(15.0786 0.000451637 0)
(15.0431 0.000399526 0)
(15.0117 0.000353883 0)
(14.9839 0.000313618 0)
(14.9592 0.000277865 0)
(14.9373 0.000245945 0)
(14.9179 0.000217301 0)
(14.9007 0.000191476 0)
(14.8856 0.000168089 0)
(14.8723 0.000146841 0)
(14.8607 0.000127467 0)
(14.8505 0.000109743 0)
(14.8418 9.34969e-05 0)
(14.8343 7.84926e-05 0)
(14.8281 6.45919e-05 0)
(14.8229 5.16244e-05 0)
(14.8187 3.94771e-05 0)
(14.8155 2.78869e-05 0)
(14.8133 1.67828e-05 0)
(14.8119 5.98398e-06 0)
(14.8113 -4.449e-06 0)
(14.8116 -1.47459e-05 0)
(14.8127 -2.46241e-05 0)
(14.8145 -3.40788e-05 0)
(14.8171 -4.2619e-05 0)
(14.8202 -5.04098e-05 0)
(14.8238 -5.6926e-05 0)
(14.8279 -6.20096e-05 0)
(14.8321 -6.5239e-05 0)
(14.8365 -6.66304e-05 0)
(14.8409 -6.63424e-05 0)
(14.8451 -6.42573e-05 0)
(14.849 -6.04678e-05 0)
(14.8526 -5.53082e-05 0)
(14.8556 -4.86328e-05 0)
(14.8581 -4.12426e-05 0)
(14.86 -3.33481e-05 0)
(14.8613 -2.50837e-05 0)
(14.862 -1.66233e-05 0)
(14.8621 -8.29312e-06 0)
(14.8616 6.22805e-08 0)
(14.8606 7.91952e-06 0)
(14.8591 1.5228e-05 0)
(14.8571 2.21059e-05 0)
(14.8547 2.83386e-05 0)
(14.8519 3.39469e-05 0)
(14.8488 3.89853e-05 0)
(14.8455 4.33642e-05 0)
(14.842 4.72304e-05 0)
(14.8383 5.03569e-05 0)
(14.8344 5.29773e-05 0)
(14.8305 5.49146e-05 0)
(14.8266 5.65091e-05 0)
(14.8227 5.73451e-05 0)
(14.8188 5.78081e-05 0)
(14.8149 5.74861e-05 0)
(14.8112 5.7114e-05 0)
(14.8076 5.43813e-05 0)
(14.8044 2.5821e-05 0)
(19.693 0.0456702 0)
(18.9995 0.0202329 0)
(18.1918 0.0128969 0)
(17.577 0.00823931 0)
(17.1407 0.00564736 0)
(16.8239 0.00414117 0)
(16.5849 0.00318982 0)
(16.3982 0.00254609 0)
(16.2481 0.00208608 0)
(16.1247 0.00174263 0)
(16.0214 0.00147727 0)
(15.9337 0.00126663 0)
(15.8585 0.0010957 0)
(15.7934 0.000954472 0)
(15.7367 0.000836003 0)
(15.687 0.000735347 0)
(15.6433 0.00064888 0)
(15.6047 0.000573892 0)
(15.5705 0.000508315 0)
(15.5402 0.000450548 0)
(15.5133 0.000399321 0)
(15.4895 0.000353638 0)
(15.4683 0.000312685 0)
(15.4496 0.000275797 0)
(15.4331 0.000242421 0)
(15.4185 0.00021212 0)
(15.4057 0.000184509 0)
(15.3945 0.000159262 0)
(15.3848 0.000136124 0)
(15.3765 0.000114769 0)
(15.3694 9.49914e-05 0)
(15.3636 7.65474e-05 0)
(15.3588 5.92638e-05 0)
(15.355 4.28013e-05 0)
(15.3522 2.70469e-05 0)
(15.3504 1.1776e-05 0)
(15.3494 -2.96043e-06 0)
(15.3493 -1.74121e-05 0)
(15.3501 -3.12084e-05 0)
(15.3516 -4.42964e-05 0)
(15.3537 -5.60621e-05 0)
(15.3565 -6.66312e-05 0)
(15.3598 -7.53485e-05 0)
(15.3635 -8.19923e-05 0)
(15.3673 -8.60606e-05 0)
(15.3713 -8.75697e-05 0)
(15.3752 -8.67215e-05 0)
(15.3789 -8.34256e-05 0)
(15.3823 -7.7853e-05 0)
(15.3854 -7.04537e-05 0)
(15.3879 -6.11391e-05 0)
(15.3899 -5.08929e-05 0)
(15.3913 -4.00247e-05 0)
(15.3921 -2.87512e-05 0)
(15.3923 -1.73181e-05 0)
(15.392 -6.12534e-06 0)
(15.3912 4.96781e-06 0)
(15.3898 1.53369e-05 0)
(15.3881 2.49096e-05 0)
(15.3859 3.38186e-05 0)
(15.3834 4.18163e-05 0)
(15.3805 4.89351e-05 0)
(15.3775 5.52404e-05 0)
(15.3742 6.06362e-05 0)
(15.3708 6.52962e-05 0)
(15.3673 6.89778e-05 0)
(15.3637 7.19566e-05 0)
(15.3601 7.40362e-05 0)
(15.3565 7.56097e-05 0)
(15.353 7.62203e-05 0)
(15.3496 7.63178e-05 0)
(15.3462 7.54358e-05 0)
(15.343 7.44563e-05 0)
(15.3399 7.02771e-05 0)
(15.3373 3.31785e-05 0)
(19.8488 0.0504549 0)
(19.4507 0.0244881 0)
(18.7997 0.016652 0)
(18.2081 0.0111579 0)
(17.7532 0.007791 0)
(17.4116 0.00573675 0)
(17.1505 0.00441439 0)
(16.9458 0.00351467 0)
(16.7812 0.00287186 0)
(16.6461 0.00239313 0)
(16.5332 0.00202448 0)
(16.4376 0.00173281 0)
(16.3557 0.00149689 0)
(16.2849 0.00130252 0)
(16.2233 0.00113989 0)
(16.1694 0.00100204 0)
(16.122 0.000883861 0)
(16.0802 0.000781559 0)
(16.0431 0.000692244 0)
(16.0103 0.000613681 0)
(15.9812 0.000544106 0)
(15.9553 0.000482135 0)
(15.9323 0.00042664 0)
(15.9119 0.000376701 0)
(15.8939 0.00033156 0)
(15.8779 0.000290609 0)
(15.8639 0.000253319 0)
(15.8516 0.000219244 0)
(15.8409 0.000188022 0)
(15.8317 0.000159227 0)
(15.8238 0.000132569 0)
(15.8171 0.000107722 0)
(15.8117 8.44424e-05 0)
(15.8073 6.23096e-05 0)
(15.8039 4.11645e-05 0)
(15.8015 2.07408e-05 0)
(15.8001 1.08523e-06 0)
(15.7995 -1.80711e-05 0)
(15.7998 -3.6266e-05 0)
(15.8009 -5.33784e-05 0)
(15.8027 -6.86705e-05 0)
(15.805 -8.22187e-05 0)
(15.8079 -9.3244e-05 0)
(15.811 -0.000101465 0)
(15.8144 -0.000106315 0)
(15.8179 -0.000107821 0)
(15.8213 -0.000106243 0)
(15.8245 -0.000101538 0)
(15.8273 -9.39758e-05 0)
(15.8298 -8.41343e-05 0)
(15.8318 -7.20029e-05 0)
(15.8333 -5.87495e-05 0)
(15.8343 -4.47937e-05 0)
(15.8347 -3.04388e-05 0)
(15.8346 -1.60031e-05 0)
(15.834 -1.96119e-06 0)
(15.8329 1.1804e-05 0)
(15.8314 2.45792e-05 0)
(15.8295 3.62754e-05 0)
(15.8272 4.70408e-05 0)
(15.8248 5.66031e-05 0)
(15.822 6.50099e-05 0)
(15.8191 7.2342e-05 0)
(15.8161 7.85011e-05 0)
(15.813 8.36904e-05 0)
(15.8098 8.76597e-05 0)
(15.8067 9.07277e-05 0)
(15.8035 9.2682e-05 0)
(15.8005 9.3967e-05 0)
(15.7975 9.40939e-05 0)
(15.7946 9.35754e-05 0)
(15.7919 9.18957e-05 0)
(15.7893 9.00851e-05 0)
(15.7869 8.42093e-05 0)
(15.785 3.94848e-05 0)
(19.929 0.0521809 0)
(19.7286 0.0270124 0)
(19.2674 0.0200258 0)
(18.7457 0.0142434 0)
(18.2961 0.0102331 0)
(17.9397 0.00761459 0)
(17.6607 0.00587475 0)
(17.4395 0.00467512 0)
(17.2609 0.0038141 0)
(17.114 0.00317259 0)
(16.9914 0.00267928 0)
(16.8876 0.00228985 0)
(16.7988 0.00197561 0)
(16.7221 0.00171734 0)
(16.6554 0.00150174 0)
(16.597 0.00131938 0)
(16.5458 0.00116334 0)
(16.5005 0.00102851 0)
(16.4605 0.000910982 0)
(16.4249 0.000807755 0)
(16.3934 0.00071646 0)
(16.3654 0.000635242 0)
(16.3405 0.00056259 0)
(16.3183 0.000497279 0)
(16.2987 0.000438299 0)
(16.2813 0.000384837 0)
(16.266 0.00033619 0)
(16.2525 0.000291764 0)
(16.2407 0.000251075 0)
(16.2305 0.000213576 0)
(16.2217 0.000178878 0)
(16.2142 0.00014656 0)
(16.2079 0.000116296 0)
(16.2028 8.75814e-05 0)
(16.1988 6.02062e-05 0)
(16.1959 3.38624e-05 0)
(16.1939 8.60423e-06 0)
(16.1928 -1.58597e-05 0)
(16.1926 -3.89797e-05 0)
(16.1931 -6.05454e-05 0)
(16.1944 -7.96945e-05 0)
(16.1963 -9.64501e-05 0)
(16.1986 -0.000109918 0)
(16.2012 -0.000119766 0)
(16.2041 -0.000125377 0)
(16.207 -0.000126805 0)
(16.2098 -0.000124384 0)
(16.2125 -0.00011814 0)
(16.2148 -0.000108458 0)
(16.2168 -9.60584e-05 0)
(16.2183 -8.10242e-05 0)
(16.2194 -6.47109e-05 0)
(16.22 -4.76562e-05 0)
(16.2201 -3.02505e-05 0)
(16.2197 -1.2885e-05 0)
(16.2189 3.88912e-06 0)
(16.2177 2.01625e-05 0)
(16.2161 3.51457e-05 0)
(16.2143 4.87375e-05 0)
(16.2122 6.11046e-05 0)
(16.2099 7.19577e-05 0)
(16.2074 8.13641e-05 0)
(16.2048 8.94248e-05 0)
(16.2022 9.60434e-05 0)
(16.1995 0.000101456 0)
(16.1968 0.000105411 0)
(16.1942 0.000108271 0)
(16.1916 0.000109813 0)
(16.1892 0.00011053 0)
(16.1868 0.000109909 0)
(16.1847 0.000108523 0)
(16.1827 0.000105814 0)
(16.1808 0.00010296 0)
(16.1792 9.51683e-05 0)
(16.178 4.42421e-05 0)
(19.9739 0.052718 0)
(19.8889 0.0285834 0)
(19.6025 0.0227995 0)
(19.1903 0.0172661 0)
(18.776 0.0128803 0)
(18.4202 0.00975677 0)
(18.1302 0.00758162 0)
(17.8955 0.00604682 0)
(17.7042 0.0049334 0)
(17.546 0.00410026 0)
(17.4137 0.00345889 0)
(17.3016 0.00295286 0)
(17.2056 0.00254508 0)
(17.1228 0.00221049 0)
(17.0508 0.0019317 0)
(16.9878 0.00169629 0)
(16.9324 0.00149522 0)
(16.8836 0.00132175 0)
(16.8404 0.00117077 0)
(16.802 0.00103835 0)
(16.7679 0.000921393 0)
(16.7376 0.000817464 0)
(16.7106 0.000724599 0)
(16.6866 0.000641202 0)
(16.6653 0.000565961 0)
(16.6463 0.000497816 0)
(16.6296 0.000435855 0)
(16.6148 0.000379308 0)
(16.6019 0.000327543 0)
(16.5905 0.000279872 0)
(16.5807 0.00023579 0)
(16.5724 0.000194765 0)
(16.5653 0.000156382 0)
(16.5594 0.000120042 0)
(16.5547 8.54815e-05 0)
(16.551 5.23486e-05 0)
(16.5484 2.07171e-05 0)
(16.5467 -9.72824e-06 0)
(16.5459 -3.83606e-05 0)
(16.5459 -6.48667e-05 0)
(16.5466 -8.82571e-05 0)
(16.5479 -0.000108502 0)
(16.5497 -0.000124604 0)
(16.5517 -0.00013619 0)
(16.554 -0.000142613 0)
(16.5564 -0.000143968 0)
(16.5587 -0.000140682 0)
(16.5608 -0.000132866 0)
(16.5626 -0.000121041 0)
(16.5641 -0.000106079 0)
(16.5652 -8.81696e-05 0)
(16.566 -6.88599e-05 0)
(16.5662 -4.88101e-05 0)
(16.5661 -2.84958e-05 0)
(16.5656 -8.38242e-06 0)
(16.5647 1.09016e-05 0)
(16.5635 2.94228e-05 0)
(16.5621 4.63276e-05 0)
(16.5604 6.15063e-05 0)
(16.5585 7.51487e-05 0)
(16.5565 8.69555e-05 0)
(16.5544 9.70188e-05 0)
(16.5522 0.000105464 0)
(16.5501 0.000112201 0)
(16.548 0.000117502 0)
(16.5459 0.000121119 0)
(16.5439 0.000123463 0)
(16.542 0.000124298 0)
(16.5403 0.000124169 0)
(16.5387 0.000122543 0)
(16.5372 0.000120055 0)
(16.536 0.000116103 0)
(16.5349 0.000112021 0)
(16.5341 0.000102134 0)
(16.5336 4.69589e-05 0)
(20.0011 0.0528694 0)
(19.9807 0.0295175 0)
(19.8226 0.0248232 0)
(19.5371 0.019951 0)
(19.1896 0.0155661 0)
(18.8549 0.0120995 0)
(18.5647 0.00952307 0)
(18.3221 0.00763897 0)
(18.1205 0.00624631 0)
(17.9523 0.0051943 0)
(17.8107 0.00438085 0)
(17.6905 0.00373795 0)
(17.5873 0.00321978 0)
(17.4983 0.00279489 0)
(17.4207 0.00244122 0)
(17.3529 0.00214297 0)
(17.2933 0.00188857 0)
(17.2407 0.00166939 0)
(17.194 0.00147888 0)
(17.1527 0.00131199 0)
(17.1159 0.00116477 0)
(17.0831 0.00103409 0)
(17.0539 0.000917451 0)
(17.0279 0.000812804 0)
(17.0047 0.00071848 0)
(16.9842 0.000633119 0)
(16.9659 0.000555565 0)
(16.9497 0.000484838 0)
(16.9355 0.000420126 0)
(16.923 0.000360578 0)
(16.9121 0.000305554 0)
(16.9027 0.000254396 0)
(16.8947 0.000206585 0)
(16.888 0.000161421 0)
(16.8825 0.000118582 0)
(16.8781 7.7671e-05 0)
(16.8748 3.87836e-05 0)
(16.8724 1.59132e-06 0)
(16.8709 -3.32187e-05 0)
(16.8703 -6.52346e-05 0)
(16.8704 -9.33303e-05 0)
(16.871 -0.000117429 0)
(16.8722 -0.000136441 0)
(16.8737 -0.00014997 0)
(16.8754 -0.000157357 0)
(16.8772 -0.000158754 0)
(16.8789 -0.000154698 0)
(16.8805 -0.000145403 0)
(16.8819 -0.000131541 0)
(16.883 -0.000114143 0)
(16.8838 -9.35182e-05 0)
(16.8842 -7.14057e-05 0)
(16.8843 -4.85903e-05 0)
(16.8841 -2.56289e-05 0)
(16.8835 -3.06406e-06 0)
(16.8827 1.84007e-05 0)
(16.8816 3.8814e-05 0)
(16.8803 5.72679e-05 0)
(16.8789 7.36486e-05 0)
(16.8774 8.81737e-05 0)
(16.8758 0.000100541 0)
(16.8741 0.000110871 0)
(16.8725 0.00011932 0)
(16.8709 0.000125806 0)
(16.8694 0.00013064 0)
(16.868 0.000133586 0)
(16.8667 0.0001351 0)
(16.8656 0.00013494 0)
(16.8646 0.0001337 0)
(16.8638 0.00013083 0)
(16.8631 0.000127028 0)
(16.8627 0.000121648 0)
(16.8624 0.000116187 0)
(16.8623 0.000104082 0)
(16.8627 4.71369e-05 0)
(20.0187 0.0527445 0)
(20.0354 0.0299682 0)
(19.9582 0.026127 0)
(19.7862 0.0220655 0)
(19.5283 0.0180611 0)
(19.2388 0.0145161 0)
(18.9637 0.0116492 0)
(18.7216 0.00944108 0)
(18.5144 0.00775985 0)
(18.3385 0.00646875 0)
(18.189 0.00546134 0)
(18.0611 0.00466132 0)
(17.951 0.00401502 0)
(17.8557 0.00348461 0)
(17.7726 0.0030431 0)
(17.6999 0.00267097 0)
(17.6358 0.00235379 0)
(17.5792 0.00208078 0)
(17.5291 0.00184373 0)
(17.4845 0.00163628 0)
(17.4448 0.00145346 0)
(17.4094 0.00129135 0)
(17.3779 0.00114679 0)
(17.3497 0.00101722 0)
(17.3246 0.000900522 0)
(17.3023 0.000795001 0)
(17.2824 0.000699201 0)
(17.2647 0.000611893 0)
(17.2491 0.000532058 0)
(17.2353 0.000458653 0)
(17.2233 0.000390878 0)
(17.2128 0.000327934 0)
(17.2038 0.00026918 0)
(17.1961 0.000213811 0)
(17.1897 0.000161436 0)
(17.1845 0.000111611 0)
(17.1804 6.44467e-05 0)
(17.1773 1.96219e-05 0)
(17.1751 -2.21359e-05 0)
(17.1737 -6.03403e-05 0)
(17.1731 -9.3716e-05 0)
(17.1731 -0.000122145 0)
(17.1736 -0.000144463 0)
(17.1745 -0.000160265 0)
(17.1756 -0.000168899 0)
(17.1768 -0.000170591 0)
(17.178 -0.000166005 0)
(17.1792 -0.000155474 0)
(17.1801 -0.00013983 0)
(17.1809 -0.000120273 0)
(17.1814 -9.72389e-05 0)
(17.1816 -7.26581e-05 0)
(17.1816 -4.74391e-05 0)
(17.1813 -2.2217e-05 0)
(17.1808 2.38584e-06 0)
(17.1801 2.55965e-05 0)
(17.1793 4.74527e-05 0)
(17.1783 6.70008e-05 0)
(17.1772 8.41273e-05 0)
(17.1761 9.9082e-05 0)
(17.175 0.000111566 0)
(17.1739 0.000121735 0)
(17.1729 0.000129776 0)
(17.172 0.000135622 0)
(17.1711 0.000139626 0)
(17.1705 0.000141564 0)
(17.1699 0.000141942 0)
(17.1695 0.00014051 0)
(17.1693 0.000137913 0)
(17.1693 0.000133587 0)
(17.1694 0.000128292 0)
(17.1698 0.000121339 0)
(17.1703 0.000114391 0)
(17.171 0.000100003 0)
(17.1721 4.42923e-05 0)
(20.0306 0.0523702 0)
(20.0698 0.03007 0)
(20.0406 0.0268629 0)
(19.9512 0.0235191 0)
(19.7855 0.0201272 0)
(19.5621 0.0168135 0)
(19.3211 0.0138542 0)
(19.0917 0.0114083 0)
(18.8862 0.0094621 0)
(18.7068 0.00792766 0)
(18.5516 0.00671164 0)
(18.4174 0.00573709 0)
(18.3011 0.00494558 0)
(18.1999 0.00429407 0)
(18.1114 0.00375094 0)
(18.0336 0.00329287 0)
(17.9651 0.00290244 0)
(17.9044 0.00256648 0)
(17.8506 0.00227493 0)
(17.8027 0.00201996 0)
(17.76 0.00179543 0)
(17.7219 0.00159649 0)
(17.6879 0.00141923 0)
(17.6574 0.00126046 0)
(17.6302 0.00111759 0)
(17.6059 0.000988484 0)
(17.5843 0.000871357 0)
(17.565 0.000764682 0)
(17.5479 0.000667196 0)
(17.5327 0.000577631 0)
(17.5194 0.000495006 0)
(17.5078 0.000418357 0)
(17.4976 0.000346909 0)
(17.4889 0.000279735 0)
(17.4816 0.000216371 0)
(17.4755 0.000156316 0)
(17.4705 9.96895e-05 0)
(17.4666 4.61875e-05 0)
(17.4636 -3.42789e-06 0)
(17.4615 -4.86321e-05 0)
(17.4601 -8.80075e-05 0)
(17.4595 -0.000121391 0)
(17.4593 -0.000147562 0)
(17.4595 -0.000166124 0)
(17.46 -0.000176453 0)
(17.4606 -0.000178864 0)
(17.4613 -0.000174161 0)
(17.462 -0.000162807 0)
(17.4626 -0.000145808 0)
(17.4631 -0.000124535 0)
(17.4634 -9.95579e-05 0)
(17.4635 -7.29944e-05 0)
(17.4634 -4.58738e-05 0)
(17.4632 -1.89072e-05 0)
(17.4628 7.20096e-06 0)
(17.4623 3.16177e-05 0)
(17.4617 5.4376e-05 0)
(17.4611 7.4484e-05 0)
(17.4604 9.18331e-05 0)
(17.4598 0.00010671 0)
(17.4593 0.000118824 0)
(17.4588 0.000128369 0)
(17.4584 0.000135571 0)
(17.4582 0.000140375 0)
(17.458 0.000143181 0)
(17.4581 0.00014378 0)
(17.4583 0.00014273 0)
(17.4587 0.000139771 0)
(17.4592 0.000135601 0)
(17.46 0.000129642 0)
(17.4609 0.000122715 0)
(17.462 0.000114086 0)
(17.4633 0.000105593 0)
(17.4648 8.89267e-05 0)
(17.4666 3.79583e-05 0)
(20.039 0.0517789 0)
(20.0926 0.0299213 0)
(20.092 0.027188 0)
(20.0552 0.0243789 0)
(19.9649 0.0216134 0)
(19.8158 0.0187666 0)
(19.6268 0.0159671 0)
(19.4257 0.0134437 0)
(19.2323 0.0113079 0)
(19.0559 0.00955549 0)
(18.899 0.0081319 0)
(18.761 0.00697327 0)
(18.6398 0.00602317 0)
(18.5336 0.00523641 0)
(18.4401 0.0045781 0)
(18.3576 0.00402166 0)
(18.2847 0.0035468 0)
(18.22 0.00313796 0)
(18.1624 0.00278311 0)
(18.1111 0.00247283 0)
(18.0653 0.00219969 0)
(18.0243 0.00195778 0)
(17.9877 0.00174235 0)
(17.9548 0.0015495 0)
(17.9254 0.00137607 0)
(17.8991 0.00121944 0)
(17.8755 0.00107743 0)
(17.8545 0.000948161 0)
(17.8358 0.000830094 0)
(17.8192 0.000721703 0)
(17.8045 0.000621795 0)
(17.7915 0.000529219 0)
(17.7802 0.000443047 0)
(17.7704 0.000362217 0)
(17.762 0.000286177 0)
(17.7549 0.000214364 0)
(17.749 0.000146894 0)
(17.7441 8.34715e-05 0)
(17.7403 2.4909e-05 0)
(17.7374 -2.82673e-05 0)
(17.7353 -7.45394e-05 0)
(17.7338 -0.000113686 0)
(17.7329 -0.000144446 0)
(17.7325 -0.000166448 0)
(17.7324 -0.000179115 0)
(17.7324 -0.000182867 0)
(17.7327 -0.000178658 0)
(17.7329 -0.000167093 0)
(17.7332 -0.000149358 0)
(17.7334 -0.000126996 0)
(17.7335 -0.000100717 0)
(17.7336 -7.28172e-05 0)
(17.7335 -4.44448e-05 0)
(17.7334 -1.63856e-05 0)
(17.7332 1.05736e-05 0)
(17.7329 3.55512e-05 0)
(17.7327 5.85796e-05 0)
(17.7324 7.86363e-05 0)
(17.7323 9.56213e-05 0)
(17.7322 0.000109861 0)
(17.7322 0.000121081 0)
(17.7323 0.000129515 0)
(17.7326 0.000135428 0)
(17.733 0.000138784 0)
(17.7336 0.000140029 0)
(17.7344 0.000138972 0)
(17.7354 0.00013622 0)
(17.7365 0.00013151 0)
(17.7378 0.000125585 0)
(17.7393 0.000117855 0)
(17.741 0.000109202 0)
(17.7429 9.8847e-05 0)
(17.7449 8.88028e-05 0)
(17.747 6.99411e-05 0)
(17.7495 2.77043e-05 0)
(20.0449 0.0509937 0)
(20.1082 0.029581 0)
(20.1254 0.0272183 0)
(20.1206 0.0247808 0)
(20.0821 0.0225188 0)
(19.9986 0.0202042 0)
(19.8707 0.0177773 0)
(19.7131 0.0153876 0)
(19.5451 0.0132012 0)
(19.3812 0.0113027 0)
(19.2289 0.00970101 0)
(19.0909 0.00836499 0)
(18.9675 0.00725183 0)
(18.8578 0.00632036 0)
(18.7603 0.0055356 0)
(18.6738 0.00486927 0)
(18.5968 0.00429896 0)
(18.5283 0.00380701 0)
(18.4671 0.00337952 0)
(18.4124 0.0030055 0)
(18.3634 0.00267615 0)
(18.3195 0.00238445 0)
(18.2801 0.00212471 0)
(18.2448 0.00189226 0)
(18.2131 0.00168329 0)
(18.1846 0.00149463 0)
(18.1591 0.00132365 0)
(18.1362 0.00116809 0)
(18.1158 0.00102608 0)
(18.0975 0.000895787 0)
(18.0814 0.00077579 0)
(18.067 0.000664721 0)
(18.0544 0.000561479 0)
(18.0434 0.000464849 0)
(18.0339 0.00037418 0)
(18.0257 0.000288832 0)
(18.0187 0.000208901 0)
(18.0129 0.000134088 0)
(18.0082 6.52602e-05 0)
(18.0044 2.93568e-06 0)
(18.0014 -5.13291e-05 0)
(17.9992 -9.72694e-05 0)
(17.9976 -0.000133578 0)
(17.9964 -0.000159928 0)
(17.9957 -0.000175809 0)
(17.9952 -0.000181752 0)
(17.9949 -0.000178878 0)
(17.9948 -0.000167933 0)
(17.9948 -0.000150294 0)
(17.9947 -0.000127672 0)
(17.9947 -0.000100919 0)
(17.9947 -7.25033e-05 0)
(17.9947 -4.36859e-05 0)
(17.9947 -1.53277e-05 0)
(17.9947 1.17037e-05 0)
(17.9948 3.64896e-05 0)
(17.9949 5.90648e-05 0)
(17.9951 7.83829e-05 0)
(17.9954 9.43562e-05 0)
(17.9958 0.000107355 0)
(17.9964 0.000117121 0)
(17.9972 0.000123933 0)
(17.9981 0.000128099 0)
(17.9992 0.0001296 0)
(18.0005 0.000128931 0)
(18.002 0.000125918 0)
(18.0037 0.000121223 0)
(18.0055 0.000114567 0)
(18.0076 0.000106745 0)
(18.0098 9.71526e-05 0)
(18.0122 8.67323e-05 0)
(18.0147 7.46533e-05 0)
(18.0174 6.31129e-05 0)
(18.0201 4.22239e-05 0)
(18.0232 1.31456e-05 0)
(20.0492 0.0500256 0)
(20.1193 0.0290806 0)
(20.1481 0.0270286 0)
(20.1628 0.0248477 0)
(20.1569 0.0229464 0)
(20.1211 0.0210868 0)
(20.0495 0.0191112 0)
(19.9437 0.0170398 0)
(19.8141 0.0149855 0)
(19.6744 0.0130688 0)
(19.5354 0.0113618 0)
(19.4037 0.00988348 0)
(19.2821 0.00862018 0)
(19.1717 0.0075449 0)
(19.0721 0.00662841 0)
(18.9827 0.00584401 0)
(18.9025 0.00516892 0)
(18.8306 0.00458437 0)
(18.7661 0.00407509 0)
(18.7082 0.00362869 0)
(18.6562 0.00323516 0)
(18.6094 0.00288635 0)
(18.5673 0.00257561 0)
(18.5295 0.00229747 0)
(18.4954 0.00204741 0)
(18.4647 0.00182168 0)
(18.4371 0.00161714 0)
(18.4123 0.00143108 0)
(18.39 0.00126128 0)
(18.3701 0.00110558 0)
(18.3524 0.000962278 0)
(18.3366 0.000829772 0)
(18.3226 0.000706762 0)
(18.3103 0.000591863 0)
(18.2995 0.000484307 0)
(18.2901 0.000383359 0)
(18.2821 0.000289081 0)
(18.2753 0.000201148 0)
(18.2695 0.000120466 0)
(18.2648 4.75584e-05 0)
(18.261 -1.60246e-05 0)
(18.2579 -7.00335e-05 0)
(18.2555 -0.000113115 0)
(18.2536 -0.000144985 0)
(18.2522 -0.000165216 0)
(18.2512 -0.000174464 0)
(18.2504 -0.000174018 0)
(18.2499 -0.000164773 0)
(18.2496 -0.000148296 0)
(18.2493 -0.000126465 0)
(18.2492 -0.000100271 0)
(18.2492 -7.23436e-05 0)
(18.2492 -4.4055e-05 0)
(18.2493 -1.634e-05 0)
(18.2496 9.85576e-06 0)
(18.2499 3.35873e-05 0)
(18.2504 5.48929e-05 0)
(18.2511 7.27097e-05 0)
(18.2518 8.69642e-05 0)
(18.2528 9.8071e-05 0)
(18.254 0.000105795 0)
(18.2553 0.000110458 0)
(18.2569 0.000112412 0)
(18.2586 0.000111657 0)
(18.2606 0.000108738 0)
(18.2627 0.000103494 0)
(18.2651 9.66408e-05 0)
(18.2676 8.78871e-05 0)
(18.2703 7.80718e-05 0)
(18.2731 6.65746e-05 0)
(18.2761 5.43996e-05 0)
(18.2793 4.06588e-05 0)
(18.2825 2.77399e-05 0)
(18.2859 5.08468e-06 0)
(18.2894 -6.03516e-06 0)
(20.0522 0.0488783 0)
(20.1272 0.0284366 0)
(20.164 0.0266625 0)
(20.1912 0.0246654 0)
(20.2052 0.0230151 0)
(20.2004 0.0214911 0)
(20.1713 0.0199148 0)
(20.1139 0.0182338 0)
(20.0293 0.0164681 0)
(19.9247 0.0146947 0)
(19.8096 0.0130044 0)
(19.6925 0.0114605 0)
(19.579 0.0100893 0)
(19.4722 0.00889024 0)
(19.3736 0.00784889 0)
(19.2834 0.00694579 0)
(19.2015 0.00616125 0)
(19.1273 0.00547736 0)
(19.0602 0.00487863 0)
(18.9996 0.00435201 0)
(18.9448 0.00388656 0)
(18.8953 0.00347326 0)
(18.8507 0.0031046 0)
(18.8103 0.00277432 0)
(18.7739 0.0024772 0)
(18.7409 0.00220889 0)
(18.7112 0.0019657 0)
(18.6845 0.00174448 0)
(18.6604 0.0015426 0)
(18.6387 0.00135754 0)
(18.6193 0.0011873 0)
(18.602 0.00103002 0)
(18.5865 0.000884165 0)
(18.5728 0.000748174 0)
(18.5607 0.000621135 0)
(18.5501 0.000502205 0)
(18.5409 0.00039139 0)
(18.533 0.000288316 0)
(18.5262 0.000193899 0)
(18.5205 0.000108661 0)
(18.5157 3.41495e-05 0)
(18.5117 -2.94651e-05 0)
(18.5085 -8.08297e-05 0)
(18.5059 -0.00011969 0)
(18.5038 -0.000145707 0)
(18.5022 -0.000159664 0)
(18.501 -0.000163024 0)
(18.5 -0.000156831 0)
(18.4994 -0.00014284 0)
(18.4989 -0.000123089 0)
(18.4987 -9.87083e-05 0)
(18.4986 -7.24732e-05 0)
(18.4987 -4.58656e-05 0)
(18.499 -1.98925e-05 0)
(18.4994 4.4248e-06 0)
(18.5001 2.61248e-05 0)
(18.5009 4.52494e-05 0)
(18.502 6.07259e-05 0)
(18.5032 7.24958e-05 0)
(18.5047 8.1019e-05 0)
(18.5064 8.60838e-05 0)
(18.5083 8.80563e-05 0)
(18.5104 8.7333e-05 0)
(18.5127 8.39308e-05 0)
(18.5153 7.84429e-05 0)
(18.518 7.07208e-05 0)
(18.521 6.15346e-05 0)
(18.5241 5.05721e-05 0)
(18.5273 3.87167e-05 0)
(18.5307 2.53278e-05 0)
(18.5343 1.14721e-05 0)
(18.5379 -3.80281e-06 0)
(18.5417 -1.79128e-05 0)
(18.5455 -4.19861e-05 0)
(18.5494 -3.00704e-05 0)
(20.0542 0.0475508 0)
(20.1328 0.0276568 0)
(20.1754 0.0261432 0)
(20.2109 0.0242867 0)
(20.2375 0.0228152 0)
(20.252 0.0215276 0)
(20.2508 0.02025 0)
(20.2303 0.0189168 0)
(20.1875 0.0174951 0)
(20.1228 0.0159937 0)
(20.0406 0.014464 0)
(19.9476 0.0129732 0)
(19.8502 0.0115763 0)
(19.7535 0.0103042 0)
(19.6605 0.00916629 0)
(19.573 0.00815829 0)
(19.4918 0.00726913 0)
(19.417 0.00648537 0)
(19.3486 0.00579358 0)
(19.2862 0.00518138 0)
(19.2294 0.00463783 0)
(19.1777 0.00415353 0)
(19.1308 0.00372042 0)
(19.0882 0.00333164 0)
(19.0496 0.0029814 0)
(19.0145 0.00266477 0)
(18.9828 0.00237756 0)
(18.954 0.00211617 0)
(18.9281 0.00187753 0)
(18.9046 0.00165877 0)
(18.8835 0.00145757 0)
(18.8646 0.00127178 0)
(18.8476 0.00109964 0)
(18.8324 0.000939372 0)
(18.819 0.000789909 0)
(18.8071 0.000650278 0)
(18.7967 0.000520405 0)
(18.7875 0.000399847 0)
(18.7796 0.0002895 0)
(18.7729 0.000189858 0)
(18.7671 0.000102463 0)
(18.7622 2.74007e-05 0)
(18.7581 -3.40515e-05 0)
(18.7547 -8.16908e-05 0)
(18.7519 -0.000115256 0)
(18.7497 -0.000135648 0)
(18.7479 -0.000144505 0)
(18.7466 -0.000143012 0)
(18.7456 -0.000133112 0)
(18.7449 -0.000116992 0)
(18.7446 -9.59157e-05 0)
(18.7444 -7.27914e-05 0)
(18.7446 -4.92085e-05 0)
(18.745 -2.62415e-05 0)
(18.7456 -4.98722e-06 0)
(18.7465 1.35844e-05 0)
(18.7477 2.95179e-05 0)
(18.7491 4.17373e-05 0)
(18.7507 5.01982e-05 0)
(18.7526 5.5405e-05 0)
(18.7548 5.71701e-05 0)
(18.7572 5.58995e-05 0)
(18.7598 5.20345e-05 0)
(18.7627 4.56076e-05 0)
(18.7657 3.72582e-05 0)
(18.769 2.6844e-05 0)
(18.7724 1.51896e-05 0)
(18.776 1.95807e-06 0)
(18.7798 -1.19244e-05 0)
(18.7836 -2.71298e-05 0)
(18.7876 -4.25318e-05 0)
(18.7917 -5.91519e-05 0)
(18.7959 -7.42028e-05 0)
(18.8 -9.92716e-05 0)
(18.8043 -5.9086e-05 0)
(20.0555 0.046039 0)
(20.1367 0.0267443 0)
(20.1836 0.0254815 0)
(20.2248 0.023741 0)
(20.2598 0.022404 0)
(20.2863 0.0212858 0)
(20.3028 0.0202192 0)
(20.3068 0.019147 0)
(20.2955 0.0180268 0)
(20.2667 0.0168313 0)
(20.2202 0.0155621 0)
(20.1584 0.0142502 0)
(20.0856 0.0129428 0)
(20.0066 0.0116859 0)
(19.9257 0.0105116 0)
(19.846 0.00943648 0)
(19.7693 0.0084647 0)
(19.697 0.0075925 0)
(19.6294 0.00681223 0)
(19.5668 0.00611472 0)
(19.5091 0.00549069 0)
(19.4562 0.0049314 0)
(19.4076 0.00442897 0)
(19.3633 0.00397638 0)
(19.3228 0.00356754 0)
(19.2858 0.00319715 0)
(19.2522 0.00286062 0)
(19.2217 0.00255394 0)
(19.1939 0.00227371 0)
(19.1687 0.00201667 0)
(19.146 0.00178021 0)
(19.1254 0.00156188 0)
(19.1069 0.00135968 0)
(19.0903 0.00117162 0)
(19.0754 0.000996462 0)
(19.0622 0.000833081 0)
(19.0505 0.000681303 0)
(19.0401 0.000540593 0)
(19.0311 0.000411795 0)
(19.0232 0.000295345 0)