/*--------------------------------*- C++ -*----------------------------------*\
  =========                 |
  \\      /  F ield         | OpenFOAM: The Open Source CFD Toolbox
   \\    /   O peration     | Website:  https://openfoam.org
    \\  /    A nd           | Version:  7
     \\/     M anipulation  |
\*---------------------------------------------------------------------------*/
FoamFile
{
    version     2.0;
    format      ascii;
    class       volVectorField;
    location    "5.4";
    object      U;
}
// * * * * * * * * * * * * * * * * * * * * * * * * * * * * * * * * * * * * * //

dimensions      [0 1 -1 0 0 0 0];

internalField   nonuniform List<vector> 
900
(
(0.000139043 -0.000138153 0)
(0.000227438 -4.68008e-05 0)
(-0.000100095 0.000104538 0)
(-0.000836541 0.000236156 0)
(-0.00189161 0.000329731 0)
(-0.00317215 0.000388532 0)
(-0.00459301 0.000421158 0)
(-0.00608468 0.000434998 0)
(-0.00759038 0.000434359 0)
(-0.00905963 0.000420592 0)
(-0.0104425 0.000392862 0)
(-0.011686 0.000349127 0)
(-0.0127327 0.000287156 0)
(-0.0135225 0.00020552 0)
(-0.0139963 0.000104514 0)
(-0.0141021 -1.31495e-05 0)
(-0.0138025 -0.000142256 0)
(-0.013082 -0.000274166 0)
(-0.011955 -0.000398005 0)
(-0.0104695 -0.00050153 0)
(-0.00870874 -0.000572624 0)
(-0.00678732 -0.000601141 0)
(-0.00484294 -0.00058069 0)
(-0.00302331 -0.000509983 0)
(-0.00146927 -0.000393495 0)
(-0.000294444 -0.000242562 0)
(0.000416242 -7.82149e-05 0)
(0.000644381 8.19747e-05 0)
(0.000475053 0.000186077 0)
(0.000153749 0.000152547 0)
(5.36877e-05 -0.000233488 0)
(-0.0003318 0.000330215 0)
(-0.00167394 0.00108212 0)
(-0.00387456 0.00174815 0)
(-0.00677677 0.00225301 0)
(-0.0101974 0.00259363 0)
(-0.0139526 0.00279192 0)
(-0.0178759 0.00287151 0)
(-0.0218185 0.002848 0)
(-0.0256412 0.00272709 0)
(-0.0292065 0.00250664 0)
(-0.032373 0.00218048 0)
(-0.0349954 0.00174306 0)
(-0.0369287 0.00119395 0)
(-0.0380379 0.000541954 0)
(-0.0382115 -0.000191935 0)
(-0.0373754 -0.000972683 0)
(-0.0355097 -0.00175194 0)
(-0.0326621 -0.00247103 0)
(-0.0289555 -0.00306625 0)
(-0.0245882 -0.00347641 0)
(-0.0198254 -0.00365163 0)
(-0.0149799 -0.00356198 0)
(-0.0103845 -0.00320435 0)
(-0.006356 -0.00260656 0)
(-0.00315587 -0.00183005 0)
(-0.000956364 -0.000973762 0)
(0.000199097 -0.000158953 0)
(0.000453651 0.000420841 0)
(0.00019363 0.000472492 0)
(-0.000109972 9.72748e-05 0)
(-0.00116714 0.00169008 0)
(-0.00370894 0.00352192 0)
(-0.00742435 0.00513437 0)
(-0.012078 0.00638149 0)
(-0.0174296 0.00724208 0)
(-0.0232306 0.00774662 0)
(-0.0292467 0.00793534 0)
(-0.0352601 0.00783694 0)
(-0.0410619 0.00746266 0)
(-0.046444 0.00680946 0)
(-0.0511953 0.00586795 0)
(-0.055103 0.00463253 0)
(-0.0579599 0.00311167 0)
(-0.0595782 0.00133685 0)
(-0.0598062 -0.000631066 0)
(-0.0585486 -0.00269861 0)
(-0.0557856 -0.00474284 0)
(-0.0515901 -0.0066182 0)
(-0.0461363 -0.00816942 0)
(-0.0397006 -0.00924913 0)
(-0.0326499 -0.00973812 0)
(-0.0254173 -0.00956557 0)
(-0.0184652 -0.00872585 0)
(-0.0122386 -0.0072893 0)
(-0.0071123 -0.00540659 0)
(-0.00333919 -0.00330909 0)
(-0.00100092 -0.00130408 0)
(3.39914e-05 0.000211899 0)
(0.000128194 0.000692092 0)
(-0.000279033 0.000913364 0)
(-0.0020452 0.00408584 0)
(-0.00584248 0.00734457 0)
(-0.0110879 0.010146 0)
(-0.0174392 0.0123056 0)
(-0.0246 0.0137962 0)
(-0.0322704 0.0146601 0)
(-0.0401664 0.0149532 0)
(-0.0480201 0.0147156 0)
(-0.0555707 0.0139624 0)
(-0.0625569 0.0126894 0)
(-0.068714 0.0108853 0)
(-0.073777 0.00854827 0)
(-0.0774906 0.00570222 0)
(-0.0796247 0.00241135 0)
(-0.0799944 -0.00121025 0)
(-0.0784818 -0.00499543 0)
(-0.0750594 -0.00872726 0)
(-0.069808 -0.0121522 0)
(-0.0629292 -0.0150014 0)
(-0.0547478 -0.0170192 0)
(-0.0457012 -0.0179973 0)
(-0.0363137 -0.0178091 0)
(-0.0271547 -0.0164394 0)
(-0.0187842 -0.0140044 0)
(-0.0116891 -0.0107596 0)
(-0.00621803 -0.00709602 0)
(-0.00251991 -0.00352832 0)
(-0.000518565 -0.000685773 0)
(4.05889e-05 0.000641957 0)
(-0.000434894 0.00219888 0)
(-0.00289176 0.00752135 0)
(-0.00793219 0.0125433 0)
(-0.0146807 0.0167334 0)
(-0.0226727 0.0199217 0)
(-0.0315517 0.022103 0)
(-0.0409718 0.0233427 0)
(-0.0506107 0.0237157 0)
(-0.0601647 0.0232725 0)
(-0.0693365 0.0220309 0)
(-0.0778261 0.0199838 0)
(-0.0853286 0.0171181 0)
(-0.0915382 0.0134372 0)
(-0.096159 0.0089839 0)
(-0.0989215 0.00385983 0)
(-0.0996046 -0.00176126 0)
(-0.0980584 -0.00762962 0)
(-0.0942298 -0.0134231 0)
(-0.0881854 -0.018766 0)
(-0.0801279 -0.023258 0)
(-0.0704043 -0.0265143 0)
(-0.0594999 -0.0282147 0)
(-0.0480154 -0.028155 0)
(-0.0366238 -0.0262934 0)
(-0.0260085 -0.022784 0)
(-0.0167889 -0.0179903 0)
(-0.00943869 -0.0124768 0)
(-0.00420834 -0.00698301 0)
(-0.00111256 -0.00238591 0)
(-4.35702e-05 0.000282523 0)
(-0.000575327 0.00392629 0)
(-0.00368251 0.0119628 0)
(-0.00991302 0.0190873 0)
(-0.018104 0.0248593 0)
(-0.0276653 0.0291786 0)
(-0.0381789 0.0320956 0)
(-0.0492568 0.0337174 0)
(-0.0605466 0.0341451 0)
(-0.0717203 0.0334417 0)
(-0.0824565 0.031626 0)
(-0.0924293 0.0286863 0)
(-0.101304 0.0246053 0)
(-0.108743 0.0193898 0)
(-0.114413 0.0130998 0)
(-0.118002 0.00587362 0)
(-0.119245 -0.00205527 0)
(-0.117944 -0.0103523 0)
(-0.113998 -0.0185841 0)
(-0.107431 -0.0262416 0)
(-0.0984202 -0.0327751 0)
(-0.0873053 -0.0376453 0)
(-0.0745998 -0.0403889 0)
(-0.0609719 -0.0406903 0)
(-0.0472041 -0.0384509 0)
(-0.0341252 -0.0338418 0)
(-0.0225222 -0.0273286 0)
(-0.0130366 -0.0196599 0)
(-0.00606181 -0.0118217 0)
(-0.00173627 -0.00496561 0)
(-0.000120108 -0.000387628 0)
(-0.000701779 0.00606095 0)
(-0.0044093 0.017349 0)
(-0.0117513 0.0269063 0)
(-0.0212975 0.0344485 0)
(-0.0323383 0.0399967 0)
(-0.0443966 0.0436928 0)
(-0.0570473 0.0457068 0)
(-0.0699158 0.0461769 0)
(-0.0826596 0.045182 0)
(-0.0949441 0.0427417 0)
(-0.106428 0.0388365 0)
(-0.116758 0.0334403 0)
(-0.125568 0.0265575 0)
(-0.132489 0.0182586 0)
(-0.137166 0.00871097 0)
(-0.139278 -0.00179882 0)
(-0.138558 -0.0128552 0)
(-0.134833 -0.0239142 0)
(-0.128056 -0.0343256 0)
(-0.118342 -0.0433716 0)
(-0.105994 -0.0503283 0)
(-0.0915288 -0.0545476 0)
(-0.0756701 -0.0555542 0)
(-0.0593168 -0.0531446 0)
(-0.0434709 -0.0474699 0)
(-0.0291323 -0.0390802 0)
(-0.0171663 -0.0289162 0)
(-0.00816207 -0.0182408 0)
(-0.00242076 -0.00852525 0)
(-0.000194906 -0.00138128 0)
(-0.000814983 0.00856607 0)
(-0.00506586 0.0236036 0)
(-0.0134213 0.0359058 0)
(-0.0242118 0.0454003 0)
(-0.03662 0.0522764 0)
(-0.0501166 0.0568019 0)
(-0.0642459 0.0592318 0)
(-0.078619 0.0597543 0)
(-0.0928878 0.058469 0)
(-0.106715 0.0553961 0)
(-0.119754 0.0505046 0)
(-0.13164 0.043753 0)
(-0.141987 0.0351335 0)
(-0.150393 0.0247151 0)
(-0.156454 0.0126805 0)
(-0.159782 -0.00064524 0)
(-0.160028 -0.0147732 0)
(-0.156921 -0.0290597 0)
(-0.15031 -0.0427096 0)
(-0.14021 -0.0548199 0)
(-0.126849 -0.064448 0)
(-0.110714 -0.0707098 0)
(-0.0925604 -0.072905 0)
(-0.0734025 -0.070656 0)
(-0.05444 -0.0640337 0)
(-0.0369374 -0.0536385 0)
(-0.0220527 -0.0406051 0)
(-0.0106401 -0.0265132 0)
(-0.00321914 -0.01322 0)
(-0.000278064 -0.00273657 0)
(-0.000914014 0.0114018 0)
(-0.00564268 0.0306373 0)
(-0.0148944 0.0459713 0)
(-0.026794 0.0575917 0)
(-0.0404315 0.0658969 0)
(-0.0552344 0.0713126 0)
(-0.0707244 0.0742007 0)
(-0.0865059 0.074812 0)
(-0.102234 0.0732733 0)
(-0.117578 0.0696056 0)
(-0.132196 0.0637621 0)
(-0.145722 0.0556774 0)
(-0.157756 0.0453195 0)
(-0.16787 0.0327398 0)
(-0.175609 0.0181171 0)
(-0.180511 0.00179488 0)
(-0.182136 -0.0156898 0)
(-0.180097 -0.0336026 0)
(-0.174103 -0.0510083 0)
(-0.164033 -0.066808 0)
(-0.149992 -0.0798073 0)
(-0.132387 -0.0888284 0)
(-0.111969 -0.0928653 0)
(-0.089844 -0.0912709 0)
(-0.0674219 -0.0839453 0)
(-0.0462817 -0.0714774 0)
(-0.0279551 -0.0551837 0)
(-0.0136531 -0.037006 0)
(-0.00419536 -0.0192772 0)
(-0.000381196 -0.00452398 0)
(-0.000996564 0.0145225 0)
(-0.00612644 0.0383454 0)
(-0.0161365 0.056966 0)
(-0.0289831 0.0708729 0)
(-0.0436812 0.0807088 0)
(-0.0596246 0.0870848 0)
(-0.0763203 0.0904906 0)
(-0.0933733 0.0912526 0)
(-0.11045 0.0895316 0)
(-0.127235 0.0853504 0)
(-0.143402 0.0786428 0)
(-0.158591 0.0693102 0)
(-0.172403 0.0572824 0)
(-0.184387 0.0425741 0)
(-0.194049 0.0253375 0)
(-0.200859 0.00590769 0)
(-0.204275 -0.0151614 0)
(-0.20378 -0.0370648 0)
(-0.198926 -0.0587437 0)
(-0.189415 -0.0789028 0)
(-0.175178 -0.0960715 0)
(-0.156478 -0.108721 0)
(-0.133995 -0.115447 0)
(-0.108879 -0.115211 0)
(-0.082734 -0.107612 0)
(-0.0574899 -0.0931225 0)
(-0.0351403 -0.0731994 0)
(-0.0173705 -0.0501867 0)
(-0.00541933 -0.0270056 0)
(-0.000516711 -0.00685009 0)
(-0.00105953 0.0178742 0)
(-0.00650157 0.046605 0)
(-0.0171098 0.068728 0)
(-0.030713 0.0850638 0)
(-0.0462686 0.0965269 0)
(-0.0631458 0.103938 0)
(-0.0808434 0.107932 0)
(-0.0989735 0.108925 0)
(-0.11722 0.107119 0)
(-0.135292 0.102542 0)
(-0.152886 0.095104 0)
(-0.169665 0.0846662 0)
(-0.185238 0.0711058 0)
(-0.19915 0.0543814 0)
(-0.21088 0.0345922 0)
(-0.219843 0.0120338 0)
(-0.225407 -0.012752 0)
(-0.226925 -0.0389301 0)
(-0.22378 -0.0653476 0)
(-0.215466 -0.0905297 0)
(-0.20169 -0.112722 0)
(-0.182494 -0.13 0)
(-0.158395 -0.140465 0)
(-0.130498 -0.142545 0)
(-0.100544 -0.13536 0)
(-0.0708178 -0.119101 0)
(-0.0438567 -0.0952655 0)
(-0.0219641 -0.0666186 0)
(-0.00696502 -0.0367987 0)
(-0.000698003 -0.00985983 0)
(-0.00109972 0.0213944 0)
(-0.0067528 0.0552749 0)
(-0.0177778 0.0810701 0)
(-0.031919 0.0999522 0)
(-0.0480932 0.113127 0)
(-0.0656519 0.121642 0)
(-0.0840907 0.126296 0)
(-0.103033 0.127607 0)
(-0.122185 0.125827 0)
(-0.141286 0.120992 0)
(-0.160068 0.112991 0)
(-0.178226 0.101637 0)
(-0.195395 0.0867433 0)
(-0.211136 0.0681953 0)
(-0.224924 0.0460146 0)
(-0.236143 0.0204254 0)
(-0.244096 -0.00808183 0)
(-0.248024 -0.0386868 0)
(-0.247151 -0.0701892 0)
(-0.240751 -0.100976 0)
(-0.228257 -0.129029 0)
(-0.209416 -0.15201 0)
(-0.184465 -0.167451 0)
(-0.154333 -0.173086 0)
(-0.120779 -0.167337 0)
(-0.0863905 -0.149861 0)
(-0.0543034 -0.122016 0)
(-0.0275981 -0.0869439 0)
(-0.00890947 -0.0491335 0)
(-0.000940021 -0.0137384 0)
(-0.00111462 0.0250124 0)
(-0.00686852 0.0641976 0)
(-0.0181124 0.0937821 0)
(-0.0325492 0.115295 0)
(-0.0490695 0.130242 0)
(-0.0670114 0.139914 0)
(-0.0858699 0.145286 0)
(-0.105281 0.146992 0)
(-0.124977 0.145343 0)
(-0.144732 0.140392 0)
(-0.164322 0.132007 0)
(-0.183486 0.119954 0)
(-0.201906 0.103975 0)
(-0.21918 0.0838694 0)
(-0.234811 0.0595604 0)
(-0.248188 0.0311722 0)
(-0.258589 -0.000896487 0)
(-0.265185 -0.0358926 0)
(-0.267068 -0.0726303 0)
(-0.263302 -0.109426 0)
(-0.253031 -0.144059 0)
(-0.235631 -0.173801 0)
(-0.210941 -0.195572 0)
(-0.179539 -0.206277 0)
(-0.143016 -0.203377 0)
(-0.104125 -0.185662 0)
(-0.0665882 -0.154029 0)
(-0.0344144 -0.11185 0)
(-0.0113314 -0.0645632 0)
(-0.00125994 -0.0187131 0)
(-0.00110321 0.0286525 0)
(-0.00684469 0.0732051 0)
(-0.0181026 0.106637 0)
(-0.0325776 0.130822 0)
(-0.0491449 0.147569 0)
(-0.0671307 0.158418 0)
(-0.0860286 0.164535 0)
(-0.105487 0.166681 0)
(-0.125266 0.165242 0)
(-0.145179 0.160296 0)
(-0.16505 0.151698 0)
(-0.184679 0.139168 0)
(-0.203809 0.122381 0)
(-0.222105 0.10104 0)
(-0.23913 0.0749619 0)
(-0.254325 0.0441461 0)
(-0.266995 0.00886354 0)
(-0.276297 -0.0302539 0)
(-0.281248 -0.072108 0)
(-0.280749 -0.11504 0)
(-0.273661 -0.156724 0)
(-0.258956 -0.194131 0)
(-0.23596 -0.223591 0)
(-0.204711 -0.241088 0)
(-0.16638 -0.242868 0)
(-0.12364 -0.226429 0)
(-0.0806719 -0.19172 0)
(-0.0425114 -0.142011 0)
(-0.014308 -0.0837012 0)
(-0.00167782 -0.0250544 0)
(-0.00106693 0.0322394 0)
(-0.0066891 0.0821298 0)
(-0.0177637 0.119402 0)
(-0.0320193 0.146249 0)
(-0.0483207 0.164774 0)
(-0.0659802 0.176772 0)
(-0.0844882 0.18361 0)
(-0.103505 0.186193 0)
(-0.122816 0.184994 0)
(-0.142278 0.180129 0)
(-0.161771 0.171453 0)
(-0.181164 0.158651 0)
(-0.200281 0.141333 0)
(-0.218877 0.119117 0)
(-0.236614 0.0917042 0)
(-0.25303 0.0589619 0)
(-0.267518 0.021005 0)
(-0.279288 -0.0217045 0)
(-0.287361 -0.0682343 0)
(-0.290553 -0.117061 0)
(-0.287498 -0.165896 0)
(-0.27677 -0.211552 0)
(-0.25712 -0.249888 0)
(-0.227865 -0.275968 0)
(-0.189467 -0.284622 0)
(-0.144159 -0.271589 0)
(-0.0962983 -0.235198 0)
(-0.0519128 -0.178008 0)
(-0.0179094 -0.107193 0)
(-0.00221712 -0.0330753 0)
(-0.00101051 0.0357054 0)
(-0.00642604 0.0908195 0)
(-0.0171482 0.13186 0)
(-0.0309465 0.161294 0)
(-0.046673 0.181509 0)
(-0.0636211 0.19456 0)
(-0.0812758 0.202027 0)
(-0.0993081 0.204973 0)
(-0.117532 0.203974 0)
(-0.135848 0.199202 0)
(-0.1542 0.190527 0)
(-0.172532 0.177613 0)
(-0.190768 0.160023 0)
(-0.208776 0.137297 0)
(-0.226343 0.109035 0)
(-0.243153 0.0749705 0)
(-0.258738 0.0350518 0)
(-0.272439 -0.0104644 0)
(-0.28337 -0.060897 0)
(-0.29036 -0.114955 0)
(-0.291918 -0.170555 0)
(-0.286297 -0.224563 0)
(-0.271673 -0.272577 0)
(-0.24653 -0.308877 0)
(-0.210336 -0.326806 0)
(-0.164448 -0.319913 0)
(-0.112921 -0.284085 0)
(-0.0625289 -0.2202 0)
(-0.0221909 -0.135671 0)
(-0.00290524 -0.0431281 0)
(-0.000943078 0.0390011 0)
(-0.00610136 0.0991582 0)
(-0.0163564 0.143824 0)
(-0.0295047 0.175696 0)
(-0.0443728 0.19743 0)
(-0.0602288 0.21135 0)
(-0.076552 0.219266 0)
(-0.0930275 0.222414 0)
(-0.109502 0.221494 0)
(-0.125927 0.21675 0)
(-0.142313 0.208084 0)
(-0.158694 0.19516 0)
(-0.175099 0.177512 0)
(-0.191527 0.154624 0)
(-0.207917 0.126012 0)
(-0.224122 0.0912899 0)
(-0.239866 0.0502409 0)
(-0.254694 0.00289979 0)
(-0.267887 -0.0503441 0)
(-0.278389 -0.108541 0)
(-0.284733 -0.16998 0)
(-0.284989 -0.231822 0)
(-0.276856 -0.28971 0)
(-0.257975 -0.337434 0)
(-0.226614 -0.366974 0)
(-0.1828 -0.369421 0)
(-0.129642 -0.337341 0)
(-0.0741126 -0.268579 0)
(-0.0271839 -0.169686 0)
(-0.00377458 -0.0555972 0)
(-0.000879606 0.0421084 0)
(-0.00578902 0.107093 0)
(-0.0155494 0.155177 0)
(-0.0279294 0.189241 0)
(-0.0417042 0.212218 0)
(-0.0561106 0.226717 0)
(-0.0706282 0.234796 0)
(-0.0849671 0.237891 0)
(-0.0990182 0.236838 0)
(-0.112794 0.231974 0)
(-0.126382 0.22325 0)
(-0.139914 0.210353 0)
(-0.153532 0.192807 0)
(-0.167374 0.170067 0)
(-0.181543 0.141588 0)
(-0.196081 0.106886 0)
(-0.210927 0.0655972 0)
(-0.225864 0.0175394 0)
(-0.240415 -0.0371937 0)
(-0.253755 -0.0980779 0)
(-0.264576 -0.163911 0)
(-0.270954 -0.232393 0)
(-0.270304 -0.29957 0)
(-0.259553 -0.359184 0)
(-0.235717 -0.402237 0)
(-0.197122 -0.417377 0)
(-0.145193 -0.393114 0)
(-0.0862214 -0.322592 0)
(-0.0328895 -0.209625 0)
(-0.00486559 -0.0708906 0)
(-0.000843605 0.0450581 0)
(-0.00560093 0.114665 0)
(-0.014966 0.165895 0)
(-0.0265646 0.201792 0)
(-0.0390795 0.2256 0)
(-0.0517157 0.240254 0)
(-0.0639704 0.248096 0)
(-0.0756023 0.250777 0)
(-0.0865687 0.249293 0)
(-0.096961 0.244085 0)
(-0.106958 0.235173 0)
(-0.116793 0.22228 0)
(-0.126732 0.204945 0)
(-0.13705 0.182615 0)
(-0.148014 0.15471 0)
(-0.159854 0.120679 0)
(-0.172729 0.0800394 0)
(-0.186669 0.0324183 0)
(-0.20148 -0.0223841 0)
(-0.216645 -0.0842751 0)
(-0.23115 -0.152649 0)
(-0.243275 -0.225943 0)
(-0.250425 -0.300965 0)
(-0.249084 -0.371952 0)
(-0.235162 -0.429565 0)
(-0.205106 -0.460443 0)
(-0.157967 -0.448674 0)
(-0.0981918 -0.380954 0)
(-0.0392794 -0.255601 0)
(-0.0062342 -0.0894329 0)
(-0.00087276 0.047955 0)
(-0.00570434 0.122057 0)
(-0.0149472 0.17609 0)
(-0.0258846 0.213307 0)
(-0.0370513 0.23736 0)
(-0.0476338 0.251587 0)
(-0.0571841 0.258658 0)
(-0.0655515 0.260466 0)
(-0.0727963 0.258176 0)
(-0.0791155 0.252345 0)
(-0.0847955 0.243066 0)
(-0.0901825 0.230115 0)
(-0.0956628 0.21306 0)
(-0.101646 0.191356 0)
(-0.108551 0.164414 0)
(-0.11678 0.131643 0)
(-0.126692 0.0924757 0)
(-0.138555 0.0463899 0)
(-0.152451 -0.00706666 0)
(-0.168212 -0.0682279 0)
(-0.185209 -0.137063 0)
(-0.202112 -0.212852 0)
(-0.216614 -0.293463 0)
(-0.225142 -0.374189 0)
(-0.222866 -0.446185 0)
(-0.20446 -0.494967 0)
(-0.166108 -0.500469 0)
(-0.109131 -0.441505 0)
(-0.0463063 -0.307329 0)
(-0.00796746 -0.11167 0)
(-0.00103108 0.0510181 0)
(-0.0063537 0.129644 0)
(-0.0159749 0.186045 0)
(-0.0265205 0.223856 0)
(-0.0363159 0.247338 0)
(-0.0445727 0.260362 0)
(-0.0509679 0.265986 0)
(-0.0555082 0.266369 0)
(-0.0584094 0.262844 0)
(-0.0600097 0.256077 0)
(-0.060723 0.246237 0)
(-0.0610153 0.233151 0)
(-0.0613902 0.216422 0)
(-0.0623793 0.195528 0)
(-0.0645302 0.169885 0)
(-0.0683909 0.138883 0)
(-0.074486 0.101902 0)
(-0.0832816 0.0583112 0)
(-0.0951422 0.00746324 0)
(-0.110205 -0.0512976 0)
(-0.128247 -0.118476 0)
(-0.14849 -0.194183 0)
(-0.169182 -0.277499 0)
(-0.187133 -0.365234 0)
(-0.197324 -0.449959 0)
(-0.193085 -0.517368 0)
(-0.167609 -0.544311 0)
(-0.11791 -0.501098 0)
(-0.053917 -0.363971 0)
(-0.0102113 -0.138095 0)
(-0.00143445 0.0546494 0)
(-0.00794882 0.138075 0)
(-0.0187282 0.196247 0)
(-0.0292839 0.233605 0)
(-0.0376903 0.255393 0)
(-0.0432909 0.266204 0)
(-0.0460067 0.269561 0)
(-0.0460997 0.267888 0)
(-0.0440101 0.26267 0)
(-0.0402585 0.25466 0)
(-0.0354055 0.24408 0)
(-0.0300397 0.230797 0)
(-0.0247727 0.214446 0)
(-0.0202373 0.194529 0)
(-0.0170833 0.170474 0)
(-0.0159695 0.141668 0)
(-0.0175477 0.107463 0)
(-0.0224411 0.0671597 0)
(-0.0312142 0.0199846 0)
(-0.0442986 -0.0349161 0)
(-0.0618908 -0.0984817 0)
(-0.0837865 -0.17152 0)
(-0.108983 -0.254296 0)
(-0.135089 -0.345403 0)
(-0.157561 -0.439662 0)
(-0.16913 -0.52451 0)
(-0.160346 -0.575644 0)
(-0.123115 -0.555553 0)
(-0.0620367 -0.423951 0)
(-0.0132082 -0.169307 0)
(-0.00230233 0.0595592 0)
(-0.0111344 0.148368 0)
(-0.024152 0.207381 0)
(-0.0351527 0.242751 0)
(-0.0420057 0.261305 0)
(-0.0444081 0.268627 0)
(-0.0427156 0.268755 0)
(-0.037578 0.264353 0)
(-0.0297398 0.257 0)
(-0.0199447 0.24748 0)
(-0.00891253 0.236033 0)
(0.00265114 0.222536 0)
(0.0140445 0.206641 0)
(0.0245613 0.187867 0)
(0.0334822 0.165656 0)
(0.0400757 0.1394 0)
(0.0436044 0.108445 0)
(0.0433339 0.0720646 0)
(0.0385454 0.0294305 0)
(0.028564 -0.0204359 0)
(0.012835 -0.0787188 0)
(-0.00900185 -0.146717 0)
(-0.0367755 -0.225649 0)
(-0.0691887 -0.315896 0)
(-0.10283 -0.415085 0)
(-0.130819 -0.513983 0)
(-0.141958 -0.58982 0)
(-0.122887 -0.599644 0)
(-0.0704465 -0.484659 0)
(-0.0173213 -0.20608 0)
(-0.00405677 0.0669988 0)
(-0.0169529 0.162014 0)
(-0.0334829 0.220244 0)
(-0.045099 0.251319 0)
(-0.0497462 0.264568 0)
(-0.047893 0.266838 0)
(-0.0406138 0.262678 0)
(-0.029108 0.25489 0)
(-0.0145043 0.245036 0)
(0.00220225 0.233843 0)
(0.0201339 0.221499 0)
(0.03849 0.207851 0)
(0.0565107 0.192544 0)
(0.0734501 0.1751 0)
(0.0885574 0.154972 0)
(0.101067 0.131565 0)
(0.110196 0.104237 0)
(0.115136 0.0722708 0)
(0.115055 0.0348404 0)
(0.109077 -0.00905209 0)
(0.0963529 -0.0606822 0)
(0.0760564 -0.121581 0)
(0.0475572 -0.193581 0)
(0.0109123 -0.278537 0)
(-0.0320925 -0.376976 0)
(-0.0760687 -0.484284 0)
(-0.109519 -0.582346 0)
(-0.114552 -0.62706 0)
(-0.0784079 -0.541941 0)
(-0.0229589 -0.249282 0)
(-0.00749433 0.0791797 0)
(-0.0270219 0.181014 0)
(-0.0480334 0.235391 0)
(-0.0594019 0.258702 0)
(-0.0599793 0.263939 0)
(-0.0517257 0.25937 0)
(-0.0368114 0.249887 0)
(-0.0171513 0.238203 0)
(0.00569015 0.225674 0)
(0.0304749 0.212838 0)
(0.0562046 0.199742 0)
(0.082031 0.18615 0)
(0.107187 0.171665 0)
(0.130937 0.155799 0)
(0.152547 0.138015 0)
(0.171258 0.117741 0)
(0.186276 0.0943661 0)
(0.196759 0.0672162 0)
(0.201797 0.0355165 0)
(0.20034 -0.00166912 0)
(0.191331 -0.0455202 0)
(0.173567 -0.097594 0)
(0.145745 -0.159971 0)
(0.106789 -0.235409 0)
(0.0566124 -0.326901 0)
(-0.00190319 -0.434992 0)
(-0.0589148 -0.549202 0)
(-0.0938592 -0.630348 0)
(-0.0838073 -0.589302 0)
(-0.030196 -0.299541 0)
(-0.0139986 0.0999479 0)
(-0.043485 0.207499 0)
(-0.068025 0.252196 0)
(-0.075412 0.262665 0)
(-0.067438 0.256621 0)
(-0.0486261 0.243481 0)
(-0.0226194 0.227978 0)
(0.00788336 0.21232 0)
(0.0409442 0.197375 0)
(0.0751896 0.183307 0)
(0.109615 0.169922 0)
(0.143431 0.156844 0)
(0.175953 0.143607 0)
(0.206534 0.129704 0)
(0.234519 0.114615 0)
(0.259212 0.0978037 0)
(0.279855 0.0787181 0)
(0.295603 0.0567638 0)
(0.305507 0.031272 0)
(0.308436 0.00144479 0)
(0.303164 -0.0337255 0)
(0.288178 -0.0756106 0)
(0.261721 -0.126181 0)
(0.221834 -0.188451 0)
(0.166718 -0.266949 0)
(0.0961902 -0.366876 0)
(0.0161726 -0.487408 0)
(-0.0535469 -0.601057 0)
(-0.0816452 -0.617076 0)
(-0.0377831 -0.357105 0)
(-0.0253935 0.135766 0)
(-0.067428 0.241482 0)
(-0.0879326 0.26596 0)
(-0.0809529 0.256957 0)
(-0.0552893 0.236638 0)
(-0.0189883 0.214213 0)
(0.0229307 0.193168 0)
(0.0673518 0.174534 0)
(0.112358 0.15832 0)
(0.156783 0.144143 0)
(0.199885 0.131483 0)
(0.241138 0.119795 0)
(0.280096 0.108543 0)
(0.316317 0.0972172 0)
(0.349314 0.0853328 0)
(0.378525 0.0724218 0)
(0.403285 0.0580207 0)
(0.422816 0.0416501 0)
(0.436191 0.0227857 0)
(0.442226 0.000807962 0)
(0.439649 -0.0249637 0)
(0.426802 -0.0556359 0)
(0.401644 -0.0928155 0)
(0.361656 -0.139168 0)
(0.303763 -0.199487 0)
(0.224829 -0.281883 0)
(0.125477 -0.395236 0)
(0.0190054 -0.530589 0)
(-0.0618469 -0.61187 0)
(-0.0410711 -0.421171 0)
(-0.0411602 0.19791 0)
(-0.0899766 0.273427 0)
(-0.0798474 0.25947 0)
(-0.0368635 0.225822 0)
(0.0200254 0.19222 0)
(0.0811894 0.163582 0)
(0.142161 0.140467 0)
(0.200847 0.12207 0)
(0.256362 0.107324 0)
(0.308426 0.0952736 0)
(0.357 0.0851313 0)
(0.402105 0.0762508 0)
(0.443719 0.0680949 0)
(0.48173 0.0602083 0)
(0.515906 0.0521949 0)
(0.545887 0.0436995 0)
(0.571167 0.0343914 0)
(0.591091 0.0239453 0)
(0.604814 0.012017 0)
(0.611347 -0.00181124 0)
(0.60944 -0.0178866 0)
(0.597362 -0.03693 0)
(0.573117 -0.0600119 0)
(0.534014 -0.0890157 0)
(0.476306 -0.127749 0)
(0.394704 -0.18432 0)
(0.283961 -0.273918 0)
(0.145105 -0.410599 0)
(-0.00387298 -0.553881 0)
(-0.0255142 -0.477325 0)
(-0.0339698 0.294084 0)
(-0.0474351 0.273163 0)
(0.0544356 0.199918 0)
(0.157479 0.149712 0)
(0.249985 0.11452 0)
(0.331477 0.0893193 0)
(0.402966 0.0714645 0)
(0.465737 0.0587424 0)
(0.521163 0.0494419 0)
(0.570474 0.0423985 0)
(0.614623 0.0368371 0)
(0.654291 0.0322211 0)
(0.689912 0.0281605 0)
(0.721702 0.0243599 0)
(0.749687 0.0205859 0)
(0.773716 0.016646 0)
(0.793475 0.0123732 0)
(0.808496 0.00761815 0)
(0.818096 0.00223477 0)
(0.821586 -0.0038562 0)
(0.817946 -0.0109931 0)
(0.805775 -0.0194111 0)
(0.783412 -0.0295581 0)
(0.748511 -0.0423481 0)
(0.697448 -0.0598029 0)
(0.624132 -0.0869732 0)
(0.518345 -0.137343 0)
(0.364968 -0.240412 0)
(0.14399 -0.407018 0)
(0.0588158 -0.458305 0)
(0.303299 0.180962 0)
(0.382737 0.144397 0)
(0.561203 0.0912478 0)
(0.687125 0.059036 0)
(0.769764 0.0393202 0)
(0.829143 0.0267561 0)
(0.874669 0.0187978 0)
(0.910771 0.0137748 0)
(0.94023 0.0105393 0)
(0.964919 0.00837238 0)
(0.98604 0.00684231 0)
(1.00433 0.00568603 0)
(1.02023 0.00473703 0)
(1.03396 0.00388564 0)
(1.04561 0.00305626 0)
(1.05512 0.00219392 0)
(1.06235 0.00125549 0)
(1.06707 0.000209214 0)
(1.069 -0.000979137 0)
(1.06773 -0.0022356 0)
(1.0627 -0.00375025 0)
(1.05341 -0.00554615 0)
(1.03903 -0.00769211 0)
(1.01836 -0.0103914 0)
(0.989352 -0.0141371 0)
(0.947903 -0.0202656 0)
(0.88424 -0.0326614 0)
(0.776477 -0.0638197 0)
(0.544852 -0.139501 0)
(0.38249 -0.201752 0)
)
;

boundaryField
{
    movingWall
    {
        type            fixedValue;
        value           uniform (1.2 0 0);
    }
    fixedWalls
    {
        type            noSlip;
    }
    frontAndBack
    {
        type            empty;
    }
}


// ************************************************************************* //
