/*--------------------------------*- C++ -*----------------------------------*\
  =========                 |
  \\      /  F ield         | OpenFOAM: The Open Source CFD Toolbox
   \\    /   O peration     | Website:  https://openfoam.org
    \\  /    A nd           | Version:  7
     \\/     M anipulation  |
\*---------------------------------------------------------------------------*/
FoamFile
{
    version     2.0;
    format      ascii;
    class       volScalarField;
    location    "400";
    object      epsilon;
}
// * * * * * * * * * * * * * * * * * * * * * * * * * * * * * * * * * * * * * //

dimensions      [0 2 -3 0 0 0 0];

internalField   nonuniform List<scalar> 
16900
(
4.18513
4.807
6.10777
7.04298
7.51256
7.48057
7.69437
7.43932
35.6045
42.6742
50.2569
58.3134
66.81
75.7248
85.0411
94.7463
104.834
115.296
126.133
137.341
148.925
160.882
173.219
185.936
199.039
212.526
226.402
240.664
255.311
270.339
285.739
301.502
317.613
334.052
350.797
367.819
385.085
402.554
420.183
437.921
455.716
473.51
491.249
508.886
526.388
543.758
561.058
578.466
595.435
611.704
627.166
641.708
655.22
667.594
678.729
688.531
696.916
703.815
709.173
712.95
715.127
715.702
714.693
712.139
708.097
702.642
695.866
687.875
678.789
668.736
657.855
646.289
634.181
621.679
608.929
596.078
583.276
570.684
558.501
547.017
536.737
527.97
519.916
512.612
506.097
500.392
495.507
491.436
488.165
485.664
483.897
482.815
482.364
482.484
483.109
484.17
485.597
487.317
489.26
491.356
493.536
495.735
497.89
499.943
501.84
503.532
504.979
506.15
507.03
507.629
507.996
508.245
508.634
508.534
507.945
506.858
505.263
503.154
500.527
497.385
493.73
489.567
484.902
479.746
474.114
468.023
461.483
454.513
447.138
439.377
431.242
422.763
413.967
404.856
395.471
385.83
375.909
365.809
355.542
344.909
334.175
323.947
313.967
305.656
300.998
296.961
293.019
289.077
285.109
281.106
277.067
272.992
268.887
264.754
260.6
256.429
252.247
248.059
243.87
239.684
235.506
231.34
227.189
223.058
218.949
214.866
210.812
206.79
202.802
198.853
194.943
191.077
187.256
183.482
179.759
176.089
172.473
168.914
165.414
161.975
158.598
155.285
152.038
148.859
145.748
142.706
139.736
136.838
134.014
131.266
128.611
126.046
123.561
121.152
118.815
116.547
114.347
112.212
110.144
108.154
5.98097
5.57373
6.82176
8.46187
10.3944
12.7883
15.7398
20.0728
25.9787
30.1611
34.3226
38.6083
43.033
47.5988
52.3051
57.1533
62.144
67.2783
72.5571
77.9797
83.5466
89.2564
95.1087
101.101
107.231
113.496
119.893
126.416
133.06
139.818
146.682
153.645
160.696
167.824
175.017
182.261
189.542
196.844
204.153
211.45
218.72
225.949
233.121
240.229
247.268
254.242
261.168
268.078
274.848
281.344
287.516
293.323
298.727
303.688
308.172
312.145
315.577
318.444
320.726
322.408
323.484
323.952
323.82
323.102
321.818
319.997
317.674
314.889
311.688
308.12
304.24
300.103
295.77
291.299
286.753
282.195
277.694
273.323
269.166
265.324
261.916
259.047
256.513
254.249
252.256
250.537
249.092
247.914
246.994
246.316
245.864
245.616
245.551
245.642
245.866
246.196
246.607
247.073
247.573
248.083
248.583
249.054
249.48
249.846
250.143
250.359
250.491
250.536
250.5
250.394
250.24
250.063
249.936
249.739
249.392
248.886
248.218
247.385
246.388
245.225
243.897
242.404
240.748
238.929
236.951
234.817
232.529
230.089
227.502
224.773
221.904
218.897
215.76
212.489
209.089
205.56
201.896
198.099
194.155
190.041
185.63
181.335
177.189
173.197
169.853
166.686
163.562
160.444
157.323
154.197
151.067
147.937
144.812
141.695
138.592
135.507
132.444
129.409
126.404
123.433
120.5
117.608
114.76
111.959
109.205
106.503
103.852
101.255
98.7131
96.2269
93.7974
91.4253
89.1108
86.8544
84.656
82.5156
80.4331
78.408
76.4401
74.5288
72.6735
70.8735
69.1281
67.4366
65.798
64.2116
62.6764
61.1913
59.7555
58.3679
57.0362
55.7578
54.527
53.3407
52.1966
51.0929
50.0285
49.0025
48.0171
47.1079
7.98882
7.10001
8.36479
10.3091
12.6966
15.4629
18.5197
21.9703
25.6308
29.1288
32.665
36.2863
40.0077
43.8348
47.7704
51.8166
55.9745
60.2445
64.6262
69.1187
73.7203
78.4291
83.2426
88.1579
93.1717
98.2803
103.48
108.765
114.132
119.574
125.086
130.663
136.297
141.982
147.71
153.474
159.267
165.08
170.905
176.734
182.56
188.373
194.168
199.937
205.675
211.377
217.037
222.652
228.139
233.443
238.527
243.361
247.913
252.155
256.057
259.591
262.733
265.46
267.753
269.599
270.987
271.915
272.382
272.398
271.975
271.132
269.894
268.29
266.356
264.128
261.65
258.964
256.119
253.162
250.143
247.113
244.126
241.237
238.501
235.975
233.713
231.747
229.995
228.433
227.062
225.883
224.894
224.091
223.465
223.006
222.699
222.53
222.483
222.54
222.683
222.895
223.158
223.456
223.774
224.098
224.415
224.713
224.984
225.219
225.412
225.56
225.66
225.711
225.719
225.687
225.622
225.531
225.396
225.167
224.824
224.363
223.781
223.075
222.244
221.285
220.2
218.987
217.646
216.176
214.576
212.85
210.999
209.019
206.914
204.685
202.332
199.853
197.251
194.52
191.658
188.652
185.513
182.18
178.685
175.085
171.305
167.546
163.842
160.215
156.761
153.372
150.003
146.64
143.28
139.926
136.582
133.252
129.942
126.658
123.402
120.182
117
113.861
110.769
107.726
104.738
101.804
98.9297
96.1152
93.3628
90.6737
88.0492
85.4902
82.9973
80.5709
78.2112
75.9181
73.6915
71.5309
69.4358
67.4055
65.4392
63.536
61.6949
59.9146
58.1942
56.5322
54.9275
53.3787
51.8846
50.4436
49.0546
47.716
46.4266
45.185
43.9915
42.8477
41.7505
40.6975
39.6865
38.7155
37.783
36.8881
36.0331
35.2563
9.74866
8.6115
9.83961
11.8007
14.1941
16.8915
19.7959
22.8926
26.1068
29.3667
32.6948
36.1069
39.6139
43.2221
46.9352
50.7553
54.6829
58.718
62.8595
67.1055
71.4538
75.9018
80.4464
85.0844
89.8122
94.626
99.5221
104.496
109.545
114.664
119.848
125.094
130.398
135.755
141.162
146.614
152.107
157.638
163.201
168.793
174.409
180.043
185.691
191.346
197.001
202.646
208.273
213.857
219.345
224.698
229.884
234.874
239.637
244.144
248.366
252.273
255.838
259.036
261.846
264.249
266.232
267.786
268.909
269.602
269.874
269.74
269.219
268.336
267.121
265.609
263.837
261.847
259.681
257.385
255.005
252.589
250.184
247.837
245.595
243.5
241.589
239.881
238.335
236.944
235.711
234.637
233.723
232.965
232.358
231.894
231.561
231.346
231.238
231.221
231.28
231.401
231.571
231.774
231.998
232.232
232.464
232.685
232.887
233.063
233.208
233.317
233.387
233.418
233.41
233.362
233.273
233.115
232.869
232.516
232.05
231.467
230.764
229.937
228.985
227.904
226.694
225.356
223.888
222.288
220.553
218.688
216.692
214.562
212.297
209.9
207.369
204.7
201.886
198.934
195.83
192.523
189.114
185.543
181.856
178.08
174.211
170.327
166.466
162.644
158.875
155.126
151.388
147.659
143.943
140.247
136.575
132.934
129.33
125.767
122.251
118.786
115.376
112.025
108.736
105.512
102.355
99.2681
96.2521
93.3086
90.4386
87.6429
84.9219
82.2759
79.7048
77.2085
74.7865
72.4382
70.163
67.9598
65.8277
63.7656
61.7722
59.8462
57.9863
56.1909
54.4585
52.7878
51.177
49.6246
48.1291
46.6888
45.3023
43.9678
42.684
41.4493
40.263
39.1248
38.0334
36.9867
35.9827
35.0198
34.0964
33.2115
32.3681
31.6099
11.1204
9.99628
11.1355
12.983
15.263
17.8379
20.6161
23.5539
26.6109
29.759
32.9959
36.3272
39.7606
43.3013
46.9529
50.717
54.5941
58.5834
62.6834
66.8919
71.2062
75.6233
80.1401
84.7531
89.4589
94.254
99.1349
104.098
109.141
114.26
119.452
124.715
130.046
135.443
140.906
146.431
152.017
157.663
163.368
169.129
174.944
180.808
186.719
192.669
198.65
204.654
210.667
216.657
222.582
228.41
234.11
239.651
245.001
250.129
255.001
259.586
263.853
267.772
271.316
274.463
277.194
279.496
281.359
282.782
283.768
284.327
284.475
284.235
283.632
282.699
281.471
279.989
278.294
276.43
274.443
272.379
270.283
268.2
266.173
264.24
262.435
260.78
259.253
257.856
256.593
255.47
254.489
253.649
252.948
252.379
251.933
251.601
251.371
251.231
251.167
251.166
251.215
251.302
251.414
251.539
251.667
251.788
251.894
251.977
252.03
252.047
252.024
251.959
251.848
251.684
251.454
251.112
250.655
250.077
249.373
248.541
247.576
246.475
245.234
243.851
242.325
240.656
238.844
236.885
234.775
232.519
230.116
227.566
224.863
222.003
218.998
215.839
212.481
208.995
205.366
201.573
197.675
193.658
189.554
185.385
181.164
176.929
172.711
168.52
164.354
160.202
156.065
151.948
147.859
143.806
139.796
135.835
131.93
128.085
124.305
120.594
116.956
113.393
109.909
106.504
103.181
99.9404
96.7835
93.7106
90.7218
87.8171
84.996
82.258
79.6024
77.0282
74.5343
72.1196
69.7828
67.5225
65.3372
63.2254
61.1854
59.2157
57.3146
55.4804
53.7114
52.0059
50.3622
48.7786
47.2534
45.7848
44.3712
43.0111
41.7028
40.4449
39.2363
38.0758
36.962
35.8933
34.8681
33.8847
32.9418
32.0384
31.1782
30.4103
11.9375
11.638
12.3505
13.9552
16.0722
18.5185
21.1892
24.027
26.997
30.0798
33.2696
36.5688
39.9822
43.5144
47.1684
50.9454
54.8458
58.8685
63.0118
67.2732
71.6499
76.1389
80.737
85.4408
90.2471
95.1527
100.155
105.25
110.436
115.712
121.074
126.522
132.055
137.673
143.375
149.161
155.033
160.991
167.034
173.164
179.379
185.676
192.053
198.504
205.02
211.591
218.204
224.818
231.4
237.918
244.34
250.635
256.767
262.703
268.405
273.837
278.964
283.751
288.165
292.179
295.767
298.911
301.595
303.813
305.564
306.852
307.69
308.096
308.095
307.716
306.995
305.968
304.678
303.169
301.486
299.675
297.781
295.85
293.923
292.04
290.233
288.537
286.941
285.449
284.07
282.814
281.686
280.689
279.821
279.079
278.458
277.947
277.539
277.221
276.982
276.809
276.69
276.611
276.561
276.526
276.496
276.459
276.406
276.328
276.216
276.063
275.861
275.608
275.296
274.916
274.41
273.771
272.996
272.08
271.019
269.811
268.452
266.938
265.264
263.428
261.427
259.264
256.938
254.447
251.785
248.951
245.952
242.791
239.456
235.918
232.243
228.412
224.402
220.263
215.994
211.601
207.115
202.545
197.916
193.248
188.558
183.87
179.208
174.579
169.98
165.408
160.869
156.369
151.918
147.524
143.194
138.935
134.752
130.651
126.636
122.709
118.873
115.131
111.483
107.931
104.475
101.114
97.8502
94.6811
91.6062
88.6244
85.7342
82.9343
80.2229
77.5983
75.0587
72.6021
70.2267
67.9306
65.7116
63.568
61.4978
59.4989
57.5695
55.7078
53.9117
52.1796
50.5096
48.9
47.349
45.8549
44.416
43.0307
41.6976
40.4152
39.1822
37.997
36.8581
35.764
34.7135
33.7051
32.7376
31.8102
30.9275
30.1424
53.1244
16.3039
13.7085
14.7769
16.6912
19.0067
21.5778
24.3345
27.2402
30.2769
33.4384
36.7256
40.142
43.6915
47.3765
51.1984
55.1573
59.2523
63.4816
67.8427
72.333
76.9496
81.6893
86.5491
91.526
96.6172
101.82
107.133
112.552
118.078
123.71
129.446
135.287
141.234
147.288
153.451
159.726
166.114
172.618
179.238
185.976
192.831
199.799
206.876
214.054
221.323
228.663
236.032
243.399
250.734
258.003
265.171
272.203
279.059
285.7
292.084
298.171
303.919
309.293
314.256
318.778
322.833
326.401
329.47
332.032
334.09
335.649
336.726
337.342
337.525
337.307
336.727
335.825
334.645
333.233
331.635
329.899
328.07
326.192
324.305
322.447
320.658
318.941
317.302
315.755
314.312
312.983
311.772
310.683
309.713
308.86
308.116
307.473
306.922
306.451
306.048
305.699
305.393
305.115
304.853
304.594
304.325
304.035
303.713
303.349
302.932
302.455
301.912
301.29
300.562
299.669
298.619
297.411
296.038
294.498
292.788
290.906
288.845
286.601
284.172
281.553
278.746
275.757
272.582
269.216
265.639
261.883
257.959
253.853
249.556
245.11
240.514
235.77
230.906
225.936
220.875
215.745
210.564
205.355
200.135
194.922
189.736
184.594
179.504
174.465
169.478
164.55
159.686
154.897
150.19
145.572
141.05
136.628
132.31
128.099
123.998
120.009
116.131
112.365
108.711
105.167
101.734
98.408
95.1884
92.0727
89.0586
86.1435
83.3248
80.5998
77.966
75.4205
72.9607
70.5839
68.2875
66.0691
63.9262
61.8565
59.8576
57.9275
56.0639
54.265
52.5288
50.8533
49.237
47.6779
46.1745
44.7252
43.3283
41.9826
40.6868
39.4391
38.2375
37.0811
35.9686
34.899
33.871
32.8837
31.9364
31.0345
30.2333
11.6483
15.2817
14.4687
15.3973
17.1457
19.3379
21.8145
24.4974
27.3473
30.3461
33.4871
36.7708
40.2
43.7781
47.5077
51.3902
55.4259
59.6142
63.9535
68.4419
73.0768
77.8556
82.7757
87.8343
93.0287
98.3566
103.816
109.404
115.121
120.964
126.935
133.032
139.257
145.613
152.1
158.723
165.485
172.389
179.438
186.636
193.985
201.483
209.13
216.921
224.849
232.905
241.054
249.261
257.496
265.726
273.916
282.031
290.032
297.875
305.517
312.913
320.017
326.781
333.164
339.125
344.626
349.635
354.126
358.08
361.486
364.341
366.647
368.414
369.663
370.419
370.713
370.582
370.066
369.209
368.058
366.66
365.064
363.316
361.464
359.551
357.616
355.704
353.835
352.016
350.266
348.598
347.027
345.56
344.204
342.959
341.824
340.795
339.864
339.022
338.259
337.563
336.92
336.317
335.74
335.175
334.608
334.024
333.41
332.753
332.04
331.261
330.407
329.469
328.428
327.217
325.822
324.246
322.488
320.54
318.4
316.064
313.531
310.795
307.852
304.699
301.328
297.732
293.945
289.953
285.755
281.341
276.737
271.953
266.993
261.861
256.583
251.172
245.641
240.013
234.307
228.543
222.742
216.924
211.11
205.319
199.566
193.87
188.244
182.697
177.23
171.847
166.553
161.355
156.261
151.277
146.411
141.666
137.047
132.557
128.197
123.969
119.873
115.908
112.072
108.365
104.784
101.326
97.9876
94.7663
91.6583
88.6599
85.7673
82.9767
80.2844
77.6865
75.1794
72.7595
70.4234
68.1678
65.9895
63.8855
61.853
59.8894
57.9922
56.1591
54.3878
52.6765
51.0231
49.426
47.8833
46.3935
44.9551
43.5667
42.227
40.9346
39.6872
38.4836
37.323
36.2044
35.1272
34.0902
33.0929
32.1346
31.2214
30.41
11.7744
16.0338
15.1263
15.8599
17.4589
19.5369
21.924
24.5371
27.3351
30.2993
33.423
36.7064
40.1523
43.7641
47.5448
51.4961
55.619
59.9134
64.3783
69.0122
73.8134
78.7796
83.9088
89.1987
94.6471
100.252
106.012
111.924
117.989
124.205
130.572
137.092
143.765
150.594
157.582
164.733
172.051
179.541
187.206
195.052
203.081
211.292
219.686
228.257
237
245.904
254.922
264.023
273.175
282.347
291.502
300.601
309.603
318.463
327.134
335.566
343.706
351.506
358.914
365.887
372.38
378.355
383.779
388.629
392.888
396.549
399.608
402.072
403.959
405.292
406.101
406.421
406.292
405.757
404.865
403.663
402.202
400.53
398.695
396.744
394.72
392.671
390.632
388.613
386.634
384.714
382.869
381.113
379.451
377.89
376.429
375.065
373.794
372.606
371.491
370.439
369.434
368.465
367.514
366.568
365.61
364.624
363.596
362.51
361.353
360.111
358.775
357.331
355.742
353.937
351.928
349.714
347.291
344.653
341.791
338.707
335.404
331.872
328.108
324.11
319.875
315.404
310.716
305.808
300.687
295.357
289.835
284.135
278.271
272.257
266.115
259.863
253.523
247.115
240.662
234.187
227.71
221.252
214.835
208.475
202.19
195.994
189.9
183.917
178.049
172.299
166.673
161.177
155.816
150.596
145.523
140.6
135.829
131.213
126.75
122.441
118.285
114.28
110.422
106.709
103.137
99.7007
96.3969
93.2203
90.166
87.229
84.4042
81.6866
79.0711
76.5529
74.1272
71.7895
69.5356
67.3612
65.2625
63.236
61.2782
59.3862
57.557
55.7881
54.0771
52.4218
50.8203
49.2708
47.7716
46.3211
44.918
43.5609
42.2487
40.979
39.7501
38.5618
37.4133
36.3042
35.2338
34.2015
33.2068
32.2493
31.3357
30.5225
53.4317
19.1724
15.7861
16.1936
17.6518
19.6251
21.9281
24.4748
27.2232
30.1545
33.2623
36.5469
40.0113
43.6595
47.4952
51.5209
55.7384
60.1485
64.7513
69.546
74.5317
79.7072
85.0709
90.6212
96.3566
102.275
108.376
114.658
121.119
127.759
134.578
141.578
148.758
156.123
163.675
171.418
179.357
187.498
195.845
204.403
213.174
222.16
231.36
240.77
250.381
260.179
270.107
280.135
290.234
300.37
310.505
320.598
330.606
340.481
350.175
359.633
368.798
377.615
386.031
393.996
401.463
408.384
414.721
420.446
425.541
429.992
433.79
436.938
439.452
441.352
442.668
443.433
443.685
443.469
442.833
441.826
440.498
438.9
437.082
435.092
432.976
430.782
428.563
426.33
424.106
421.914
419.773
417.698
415.701
413.787
411.959
410.217
408.556
406.968
405.445
403.974
402.543
401.136
399.737
398.331
396.9
395.427
393.895
392.287
390.587
388.783
386.863
384.805
382.538
380.035
377.303
374.34
371.143
367.704
364.018
360.083
355.902
351.469
346.783
341.844
336.655
331.224
325.561
319.674
313.575
307.277
300.797
294.152
287.362
280.449
273.433
266.338
259.188
252.005
244.815
237.64
230.502
223.422
216.42
209.515
202.721
196.053
189.523
183.139
176.905
170.827
164.908
159.154
153.569
148.157
142.92
137.863
132.984
128.285
123.763
119.418
115.245
111.243
107.405
103.728
100.206
96.8341
93.6054
90.5141
87.5538
84.7181
82.0006
79.3951
76.8953
74.4952
72.189
69.9712
67.8365
65.78
63.7971
61.8835
60.0352
58.2487
56.5207
54.8483
53.2289
51.66
50.1397
48.6661
47.2374
45.8522
44.5091
43.2068
41.9433
40.7164
39.5258
38.3714
37.2528
36.1699
35.1223
34.1096
33.1317
32.1884
31.2866
30.4816
55.3735
20.3079
16.2012
16.4043
17.7436
19.6222
21.8469
24.3309
27.0324
29.9328
33.0262
36.3135
39.7986
43.4862
47.381
51.4869
55.8068
60.3429
65.0963
70.0678
75.2573
80.6647
86.2895
92.1309
98.1881
104.46
110.945
117.643
124.551
131.67
138.999
146.539
154.29
162.255
170.437
178.84
187.468
196.327
205.422
214.757
224.335
234.157
244.22
254.521
265.051
275.777
286.641
297.617
308.674
319.777
330.886
341.957
352.947
363.806
374.485
384.928
395.071
404.854
414.223
423.127
431.515
439.329
446.526
453.076
458.958
464.158
468.656
472.451
475.56
478
479.8
480.991
481.612
481.704
481.317
480.498
479.299
477.772
475.967
473.936
471.726
469.381
466.974
464.517
462.035
459.554
457.097
454.682
452.322
450.026
447.798
445.638
443.545
441.51
439.526
437.58
435.66
433.75
431.833
429.892
427.909
425.865
423.742
421.52
419.184
416.721
414.113
411.323
408.273
404.97
401.414
397.603
393.531
389.194
384.587
379.711
374.566
369.15
363.466
357.518
351.314
344.865
338.183
331.28
324.176
316.887
309.434
301.839
294.125
286.317
278.44
270.518
262.579
254.646
246.745
238.9
231.132
223.464
215.914
208.499
201.236
194.137
187.212
180.47
173.916
167.554
161.387
155.42
149.654
144.093
138.738
133.588
128.644
123.903
119.363
115.02
110.87
106.907
103.127
99.5216
96.0854
92.8109
89.6907
86.7175
83.8835
81.1809
78.6023
76.1401
73.787
71.5358
69.3797
67.3122
65.3271
63.4186
61.5814
59.8104
58.101
56.4492
54.8511
53.3035
51.8033
50.3481
48.9354
47.5635
46.2304
44.9346
43.6747
42.4491
41.2542
40.0903
38.9574
37.8556
36.7849
35.7453
34.7367
33.7591
32.8125
31.8972
31.0201
30.2342
56.3291
20.8096
16.4439
16.5143
17.7533
19.5468
21.6996
24.1258
26.7842
29.657
32.7394
36.033
39.5429
43.2751
47.2359
51.4307
55.8641
60.5397
65.4606
70.6288
76.0459
81.7131
87.6311
93.8
100.22
106.89
113.81
120.978
128.393
136.053
143.958
152.107
160.501
169.14
178.027
187.165
196.558
206.21
216.126
226.31
236.764
247.486
258.473
269.72
281.218
292.894
304.712
316.642
328.653
340.708
352.763
364.772
376.692
388.475
400.07
411.424
422.463
433.125
443.357
453.105
462.328
470.948
478.918
486.209
492.798
498.663
503.791
508.177
511.831
514.769
517.016
518.601
519.562
519.94
519.781
519.134
518.052
516.585
514.785
512.705
510.394
507.894
505.288
502.596
499.844
497.061
494.271
491.495
488.748
486.042
483.382
480.77
478.204
475.678
473.184
470.711
468.244
465.769
463.267
460.721
458.111
455.418
452.622
449.702
446.643
443.43
440.038
436.405
432.49
428.299
423.833
419.089
414.062
408.749
403.148
397.26
391.088
384.633
377.901
370.902
363.647
356.151
348.43
340.501
332.387
324.11
315.694
307.164
298.547
289.871
281.162
272.448
263.757
255.114
246.545
238.074
229.723
221.513
213.463
205.589
197.906
190.425
183.157
176.108
169.284
162.687
156.321
150.188
144.288
138.622
133.19
127.99
123.02
118.276
113.753
109.448
105.353
101.462
97.7681
94.2634
90.94
87.7893
84.8029
81.9719
79.2876
76.7411
74.3238
72.027
69.8423
67.7618
65.7775
63.8821
62.0684
60.33
58.6606
57.0545
55.5065
54.0118
52.5661
51.1658
49.8074
48.4881
47.2053
45.9568
44.7407
43.5552
42.3987
41.2674
40.1601
39.0779
38.0209
36.9892
35.9832
35.0031
34.0491
33.1215
32.2205
31.3466
30.5069
29.7511
56.8758
21.0577
16.573
16.5462
17.6991
19.4169
21.5055
23.8803
26.5017
29.3531
32.4307
35.7376
39.2805
43.0671
47.1055
51.4033
55.9672
60.803
65.9153
71.3083
76.9853
82.9492
89.2021
95.7454
102.58
109.706
117.123
124.829
132.822
141.1
149.66
158.502
167.623
177.023
186.703
196.664
206.909
217.441
228.263
239.378
250.785
262.478
274.454
286.703
299.201
311.854
324.634
337.511
350.454
363.43
376.38
389.262
402.032
414.644
427.05
439.209
451.029
462.443
473.407
483.867
493.771
503.058
511.679
519.601
526.792
533.231
538.902
543.798
547.924
551.293
553.928
555.856
557.111
557.735
557.771
557.269
556.279
554.853
553.043
550.901
548.479
545.816
543
540.06
537.025
533.924
530.784
527.628
524.473
521.332
518.211
515.114
512.04
508.983
505.935
502.885
499.819
496.722
493.575
490.36
487.057
483.644
480.101
476.408
472.549
468.506
464.244
459.686
454.832
449.684
444.24
438.498
432.455
426.109
419.462
412.516
405.277
397.75
389.946
381.877
373.56
365.013
356.257
347.313
338.206
328.964
319.614
310.184
300.704
291.203
281.709
272.253
262.863
253.564
244.383
235.343
226.467
217.774
209.282
201.007
192.962
185.158
177.604
170.304
163.265
156.487
149.973
143.722
137.734
132.008
126.541
121.33
116.371
111.658
107.186
102.948
98.9363
95.1429
91.5594
88.1769
84.9861
81.9777
79.1418
76.4687
73.9487
71.572
69.3289
67.2101
65.2062
63.3084
61.508
59.797
58.1673
56.6117
55.1234
53.6959
52.3233
51.0004
49.7223
48.4847
47.2839
46.1166
44.98
43.8714
42.7888
41.7299
40.6918
39.6697
38.6664
37.6819
36.7165
35.7704
34.8442
33.9382
33.0529
32.1888
31.3466
30.5266
29.7362
29.021
57.1243
21.1673
16.6222
16.5188
17.5981
19.2505
21.2843
23.617
26.2107
29.0506
32.1344
35.4672
39.0573
42.9149
47.0504
51.4741
56.1952
61.2219
66.5611
72.2192
78.2018
84.5135
91.1581
98.1384
105.456
113.112
121.107
129.437
138.099
147.089
156.403
166.039
175.991
186.258
196.837
207.727
218.927
230.439
242.263
254.403
266.851
279.596
292.632
305.946
319.462
333.102
346.837
360.637
374.469
388.314
402.084
415.742
429.251
442.564
455.635
468.414
480.832
492.83
504.358
515.362
525.791
535.591
544.713
553.12
560.779
567.667
573.763
579.061
583.56
587.272
590.214
592.413
593.9
594.715
594.899
594.501
593.569
592.155
590.311
588.088
585.538
582.706
579.66
576.458
573.125
569.691
566.185
562.631
559.047
555.448
551.842
548.231
544.616
540.992
537.351
533.682
529.971
526.203
522.358
518.419
514.364
510.171
505.819
501.29
496.567
491.624
486.412
480.879
475.033
468.875
462.404
455.62
448.52
441.107
433.384
425.357
417.034
408.426
399.546
390.412
381.044
371.464
361.697
351.768
341.706
331.541
321.304
311.025
300.736
290.467
280.251
270.115
260.09
250.201
240.474
230.933
221.598
212.489
203.622
195.012
186.67
178.606
170.827
163.338
156.14
149.237
142.626
136.307
130.278
124.536
119.075
113.891
108.977
104.328
99.9351
95.7902
91.8848
88.2093
84.7543
81.5096
78.4651
75.6102
72.9344
70.4272
68.078
65.8764
63.8121
61.8748
60.0549
58.3428
56.7292
55.2054
53.7629
52.3938
51.0906
49.8464
48.6548
47.5099
46.4062
45.3391
44.3043
43.2982
42.3175
41.3591
40.4205
39.4988
38.5873
37.6878
36.8008
35.9266
35.0652
34.2172
33.3831
32.5634
31.7588
30.9699
30.1976
29.4426
28.712
28.0469
57.0915
21.178
16.6119
16.449
17.4673
19.0664
21.0578
23.3615
25.9417
28.7858
31.8936
35.2725
38.9332
42.8885
47.152
51.737
56.6561
61.9205
67.5391
73.5211
79.8745
86.606
93.7212
101.224
109.117
117.403
126.08
135.147
144.594
154.417
164.609
175.164
186.076
197.337
208.941
220.883
233.16
245.767
258.704
271.973
285.561
299.442
313.609
328.032
342.574
357.195
371.859
386.532
401.178
415.76
430.221
444.518
458.609
472.453
486.006
499.221
512.043
524.421
536.306
547.652
558.408
568.526
577.961
586.675
594.634
601.812
608.189
613.753
618.503
622.446
625.596
627.977
629.617
630.553
630.825
630.478
629.561
628.121
626.211
623.881
621.183
618.163
614.874
611.394
607.747
603.964
600.076
596.107
592.077
588
583.885
579.736
575.553
571.332
567.065
562.741
558.347
553.866
549.28
544.57
539.716
534.694
529.484
524.069
518.43
512.537
506.32
499.774
492.9
485.699
478.173
470.321
462.145
453.65
444.843
435.732
426.331
416.652
406.715
396.54
386.151
375.575
364.839
353.973
343.009
331.979
320.916
309.853
298.822
287.857
276.989
266.248
255.662
245.258
235.06
225.092
215.373
205.921
196.752
187.877
179.307
171.05
163.11
155.493
148.197
141.224
134.57
128.233
122.209
116.492
111.077
105.955
101.12
96.5632
92.2751
88.2462
84.4665
80.9255
77.6125
74.5164
71.6262
68.9308
66.4187
64.079
61.9005
59.8723
57.9837
56.2241
54.5834
53.0515
51.6191
50.2768
49.0159
47.8281
46.7055
45.6407
44.6268
43.6575
42.727
41.83
40.9619
40.1186
39.2964
38.4917
37.7013
36.9195
36.1418
35.3718
34.6089
33.8531
33.1045
32.3635
31.6305
30.9063
30.1915
29.4871
28.7939
28.1127
27.4505
26.8435
56.7942
21.1089
16.5572
16.3517
17.3241
18.8854
20.8512
23.1446
25.7326
28.6049
31.7644
35.2214
38.9891
43.0837
47.5226
52.323
57.5018
63.0742
69.0498
75.4413
82.2594
89.5131
97.2095
105.354
113.949
122.996
132.496
142.449
152.832
163.64
174.865
186.497
198.522
210.931
223.71
236.85
250.34
264.172
278.339
292.83
307.63
322.717
338.07
353.584
369.136
384.695
400.222
415.68
431.028
446.226
461.226
475.986
490.469
504.635
518.448
531.87
544.857
557.37
569.366
580.807
591.651
601.855
611.379
620.186
628.244
635.526
642.01
647.683
652.539
656.582
659.823
662.281
663.982
664.958
665.246
664.89
663.933
662.424
660.411
657.943
655.07
651.839
648.293
644.517
640.541
636.395
632.11
627.711
623.218
618.646
614.003
609.296
604.522
599.68
594.76
589.753
584.645
579.42
574.059
568.544
562.854
556.967
550.863
544.525
537.932
531.041
523.803
516.222
508.303
500.045
491.453
482.529
473.278
463.707
453.827
443.651
433.194
422.475
411.516
400.342
388.981
377.462
365.816
354.076
342.276
330.451
318.636
306.865
295.172
283.59
272.151
260.885
249.82
238.982
228.395
218.08
208.056
198.338
188.94
179.873
171.146
162.763
154.729
147.045
139.711
132.723
126.078
119.772
113.797
108.147
102.814
97.7887
93.062
88.6239
84.4637
80.5705
76.933
73.5396
70.3787
67.4385
64.7072
62.1729
59.824
57.6488
55.6361
53.7745
52.0532
50.4615
48.9891
47.6259
46.3623
45.1889
44.0969
43.0778
42.1235
41.2264
40.3793
39.5756
38.8091
38.0744
37.3662
36.6801
36.0119
35.3575
34.7123
34.067
33.4255
32.7872
32.1513
31.5177
30.8861
30.2568
29.6303
29.0072
28.3883
27.7743
27.1665
26.5656
25.9782
25.4357
56.2601
20.9731
16.4708
16.2424
17.1879
18.7324
20.6965
23.007
25.6343
28.5711
31.8242
35.4087
39.3393
43.637
48.3237
53.4215
58.9525
64.9392
71.3864
78.3127
85.7318
93.6545
102.089
111.04
120.51
130.499
141.003
152.016
163.52
175.502
187.947
200.839
214.158
227.887
242.005
256.496
271.341
286.525
302.031
317.841
333.934
350.279
366.826
383.372
399.873
416.285
432.566
448.676
464.57
480.209
495.549
510.552
525.186
539.42
553.227
566.578
579.447
591.805
603.623
614.873
625.525
635.545
644.898
653.554
661.481
668.654
675.049
680.651
685.451
689.448
692.649
695.068
696.727
697.653
697.88
697.447
696.394
694.766
692.609
689.969
686.893
683.428
679.609
675.523
671.202
666.679
661.983
657.142
652.173
647.093
641.909
636.627
631.247
625.766
620.175
614.464
608.621
602.629
596.47
590.127
583.577
576.801
569.78
562.499
554.929
547.018
538.752
530.134
521.168
511.858
502.209
492.226
481.917
471.294
460.371
449.164
437.693
425.981
414.053
401.938
389.666
377.271
364.786
352.247
339.69
327.151
314.667
302.273
290.003
277.891
265.969
254.265
242.808
231.621
220.728
210.148
199.899
189.993
180.443
171.257
162.443
154.002
145.938
138.249
130.932
123.984
117.398
111.168
105.285
99.7401
94.5242
89.6265
85.0357
80.7405
76.7288
72.9885
69.5072
66.2723
63.2713
60.4918
57.9212
55.5474
53.3583
51.3421
49.4872
47.7823
46.2166
44.7794
43.4604
42.2499
41.1382
40.1162
39.1751
38.3064
37.5023
36.755
36.0574
35.4027
34.7847
34.1974
33.6356
33.0944
32.5691
32.0549
31.5439
31.0316
30.5212
30.011
29.4998
28.9869
28.472
27.9551
27.4363
26.9162
26.3955
25.8751
25.3559
24.8389
24.3303
23.8563
55.5254
20.7834
16.3654
16.1385
17.0828
18.6401
20.637
23.0051
25.7194
28.7755
32.1859
35.9746
40.1543
44.753
49.7987
55.3188
61.3393
67.8835
74.9671
82.608
90.8213
99.6184
109.007
118.99
129.567
140.734
152.483
164.799
177.662
191.051
204.944
219.313
234.131
249.37
265.003
281.001
297.337
313.986
330.923
348.12
365.548
383.165
400.77
418.255
435.577
452.692
469.552
486.114
502.334
518.172
533.591
548.559
563.05
577.044
590.525
603.482
615.901
627.772
639.082
649.819
659.963
669.495
678.391
686.624
694.168
700.998
707.091
712.428
716.997
720.792
723.814
726.072
727.581
728.365
728.45
727.87
726.662
724.867
722.525
719.679
716.373
712.652
708.55
704.136
699.459
694.547
689.432
684.139
678.686
673.089
667.356
661.491
655.494
649.363
643.09
636.664
630.074
623.302
616.334
609.149
601.729
594.053
586.108
577.873
569.314
560.391
551.106
541.464
531.469
521.126
510.445
499.433
488.102
476.468
464.547
452.361
439.932
427.288
414.457
401.471
388.364
375.172
361.93
348.676
335.449
322.285
309.222
296.296
283.541
270.99
258.674
246.623
234.861
223.413
212.299
201.537
191.142
181.125
171.497
162.264
153.43
144.996
136.962
129.325
122.08
115.221
108.74
102.629
96.8764
91.4724
86.4052
81.6628
77.2326
73.1015
69.2563
65.6838
62.3704
59.3029
56.4678
53.8522
51.443
49.2278
47.1941
45.3301
43.6241
42.0649
40.6418
39.3443
38.1625
37.0868
36.108
35.2173
34.4063
33.6668
32.9912
32.3721
31.8024
31.2756
30.7853
30.3257
29.8915
29.4774
29.0784
28.6886
28.2969
27.9076
27.5187
27.1281
26.7343
26.3361
25.933
25.5244
25.1104
24.6913
24.2677
23.8402
23.4098
22.9773
22.5485
22.1448
54.6368
20.5525
16.2554
16.062
17.0421
18.6557
20.7372
23.2236
26.0988
29.3586
33.0236
37.1214
41.6775
46.7248
52.2972
58.4277
65.1468
72.4809
80.4506
89.074
98.3654
108.334
118.985
130.315
142.318
154.981
168.288
182.214
196.732
211.808
227.409
243.496
260.03
276.971
294.28
311.918
329.846
348.029
366.431
385.014
403.735
422.431
440.908
459.13
477.048
494.615
511.782
528.505
544.742
560.455
575.615
590.197
604.186
617.574
630.36
642.549
654.148
665.163
675.602
685.471
694.768
703.488
711.617
719.139
726.034
732.277
737.846
742.719
746.878
750.313
753.018
754.995
756.251
756.802
756.669
755.878
754.46
752.452
749.888
746.807
743.249
739.255
734.861
730.111
725.069
719.764
714.226
708.477
702.538
696.421
690.136
683.686
677.071
670.288
663.33
656.187
648.847
641.295
633.515
625.49
617.2
608.628
599.762
590.578
581.037
571.125
560.847
550.208
539.215
527.877
516.204
504.208
491.906
479.315
466.457
453.356
440.039