/*--------------------------------*- C++ -*----------------------------------*\
  =========                 |
  \\      /  F ield         | OpenFOAM: The Open Source CFD Toolbox
   \\    /   O peration     | Website:  https://openfoam.org
    \\  /    A nd           | Version:  7
     \\/     M anipulation  |
\*---------------------------------------------------------------------------*/
FoamFile
{
    version     2.0;
    format      ascii;
    class       volScalarField;
    location    "400";
    object      k;
}
// * * * * * * * * * * * * * * * * * * * * * * * * * * * * * * * * * * * * * //

dimensions      [0 2 -2 0 0 0 0];

internalField   nonuniform List<scalar> 
16900
(
0.0562868
0.0799791
0.102061
0.118719
0.129301
0.135156
0.139499
0.137734
0.137816
0.154898
0.172745
0.190755
0.208869
0.227068
0.245337
0.263676
0.282081
0.30057
0.31913
0.337795
0.356545
0.375417
0.394392
0.413502
0.432733
0.452105
0.471615
0.491262
0.511044
0.530954
0.550985
0.571123
0.591352
0.611651
0.631996
0.652356
0.672698
0.692983
0.713168
0.733206
0.75305
0.77265
0.791959
0.810939
0.829569
0.847861
0.865887
0.883831
0.901249
0.91782
0.933461
0.948087
0.961613
0.973955
0.985035
0.994783
1.00313
1.01004
1.01545
1.01934
1.0217
1.02252
1.02182
1.01963
1.016
1.01098
1.00465
0.997104
0.988432
0.978747
0.968167
0.956817
0.944827
0.932329
0.91946
0.906358
0.893169
0.880046
0.867169
0.854788
0.843319
0.833518
0.824626
0.816479
0.809131
0.80262
0.796972
0.792196
0.788285
0.78522
0.782968
0.781483
0.780712
0.780591
0.78105
0.782015
0.783408
0.785151
0.787164
0.78937
0.791695
0.794064
0.796409
0.798667
0.800776
0.802684
0.804345
0.80572
0.806789
0.807551
0.808045
0.808376
0.808759
0.808859
0.808443
0.807503
0.806025
0.804002
0.801426
0.798296
0.79461
0.79037
0.785574
0.78023
0.774346
0.767936
0.761003
0.753558
0.745619
0.737204
0.728314
0.71897
0.709199
0.698997
0.688379
0.677384
0.665985
0.654239
0.642189
0.629588
0.616601
0.604025
0.591751
0.580202
0.573739
0.568601
0.563627
0.558641
0.553602
0.548493
0.543312
0.538057
0.532732
0.527341
0.521889
0.516382
0.510827
0.505228
0.499592
0.493925
0.488231
0.482516
0.476784
0.47104
0.465289
0.459535
0.453782
0.448035
0.442297
0.436572
0.430865
0.42518
0.419521
0.413892
0.408297
0.40274
0.397225
0.391756
0.386338
0.380973
0.375667
0.370422
0.365242
0.360132
0.355095
0.350133
0.345251
0.340452
0.33574
0.331119
0.326614
0.322233
0.317963
0.313797
0.309728
0.305755
0.301874
0.298084
0.294389
0.290811
0.0805231
0.109716
0.136068
0.159003
0.17926
0.199562
0.221895
0.248781
0.277795
0.309631
0.342087
0.374873
0.407942
0.441259
0.474791
0.508525
0.542448
0.576566
0.610876
0.645391
0.680115
0.715068
0.750256
0.785701
0.821413
0.85741
0.893707
0.930312
0.967235
1.00448
1.04206
1.07995
1.11817
1.15669
1.19549
1.23455
1.27384
1.3133
1.35289
1.39255
1.4322
1.47175
1.51113
1.55024
1.58896
1.62718
1.66479
1.70165
1.73731
1.77176
1.80486
1.83644
1.86634
1.89436
1.92035
1.94414
1.96557
1.98451
2.00084
2.01447
2.02531
2.03333
2.03851
2.04087
2.04045
2.03734
2.03163
2.02347
2.01301
2.00044
1.98595
1.96978
1.95215
1.93331
1.91351
1.89299
1.87204
1.8509
1.82986
1.80919
1.78917
1.77003
1.75165
1.73425
1.71795
1.70285
1.68901
1.67646
1.66523
1.65531
1.64667
1.63926
1.63303
1.6279
1.62378
1.62059
1.61824
1.61661
1.61562
1.61515
1.61512
1.61543
1.616
1.61673
1.61756
1.6184
1.61919
1.61987
1.62039
1.62071
1.62079
1.62063
1.61976
1.61814
1.61597
1.61327
1.61001
1.60617
1.60173
1.59667
1.59098
1.58465
1.57766
1.57
1.56167
1.55267
1.54299
1.53263
1.52158
1.50987
1.49747
1.48438
1.47062
1.45617
1.44102
1.42518
1.40861
1.39126
1.37314
1.35421
1.33372
1.31314
1.29264
1.27123
1.25055
1.22989
1.20911
1.18821
1.16721
1.14612
1.12499
1.10383
1.08268
1.06155
1.04049
1.01951
0.998649
0.977923
0.957359
0.93698
0.916808
0.896862
0.87716
0.85772
0.838559
0.81969
0.801128
0.782886
0.764974
0.747404
0.730185
0.713325
0.696832
0.680712
0.66497
0.649612
0.63464
0.620056
0.605863
0.59206
0.578649
0.565627
0.552992
0.540743
0.528875
0.517386
0.506269
0.49552
0.485133
0.475096
0.465373
0.455981
0.44692
0.43818
0.429751
0.421625
0.413795
0.406253
0.399014
0.392364
0.107534
0.142126
0.174187
0.204609
0.234832
0.26655
0.300579
0.337525
0.376666
0.417263
0.458466
0.500048
0.541975
0.584218
0.626755
0.669567
0.712643
0.755976
0.799561
0.8434
0.887492
0.931843
0.976459
1.02135
1.06652
1.11198
1.15775
1.20382
1.2502
1.29691
1.34393
1.39127
1.43892
1.48686
1.53509
1.58358
1.6323
1.68121
1.73026
1.77939
1.82853
1.87761
1.92653
1.97519
2.02347
2.07126
2.11841
2.1646
2.20963
2.25335
2.29558
2.3361
2.37471
2.41119
2.44533
2.47691
2.50573
2.53163
2.55444
2.57401
2.59026
2.60311
2.61252
2.61849
2.62108
2.62036
2.61644
2.60949
2.59969
2.58725
2.57243
2.55548
2.5367
2.51637
2.4948
2.47231
2.44922
2.42583
2.40248
2.37947
2.35711
2.33556
2.31485
2.29515
2.2766
2.25928
2.24328
2.22862
2.21533
2.20339
2.19278
2.18343
2.17529
2.16827
2.16227
2.1572
2.15294
2.14939
2.14644
2.14399
2.14191
2.14013
2.13853
2.13703
2.13555
2.134
2.13233
2.13046
2.12835
2.12594
2.12317
2.11991
2.11568
2.11072
2.10509
2.09879
2.09179
2.08407
2.0756
2.06637
2.05637
2.04559
2.03401
2.02162
2.0084
1.99438
1.97954
1.96387
1.94736
1.93004
1.91189
1.89288
1.87304
1.85234
1.83075
1.8082
1.78481
1.76017
1.73451
1.70819
1.68072
1.65303
1.62524
1.59714
1.56911
1.54095
1.51263
1.48422
1.45575
1.42728
1.39884
1.37048
1.34223
1.31413
1.28621
1.25852
1.23107
1.20389
1.17702
1.15048
1.12429
1.09846
1.07303
1.048
1.0234
0.999225
0.975502
0.952236
0.929439
0.907118
0.88528
0.863931
0.843076
0.822719
0.802861
0.783506
0.764652
0.746301
0.728449
0.711097
0.69424
0.677875
0.661997
0.646601
0.631683
0.617234
0.60325
0.589721
0.576642
0.564002
0.551793
0.539994
0.528609
0.517626
0.507032
0.496818
0.486973
0.477492
0.46841
0.460238
0.131517
0.172252
0.210186
0.246658
0.283566
0.322233
0.363183
0.406484
0.451701
0.498145
0.545272
0.592885
0.640932
0.689387
0.738225
0.787425
0.836969
0.88684
0.937025
0.987513
1.03829
1.08936
1.14072
1.19236
1.24429
1.2965
1.34901
1.40181
1.45491
1.50831
1.56202
1.61603
1.67035
1.72496
1.77985
1.83502
1.89044
1.94609
2.00192
2.05789
2.11394
2.17
2.22599
2.28181
2.33734
2.39246
2.44703
2.50068
2.55324
2.60453
2.65434
2.70243
2.74856
2.79249
2.83396
2.87273
2.90857
2.94125
2.97057
2.99637
3.0185
3.03686
3.0514
3.06208
3.06894
3.07204
3.07149
3.06747
3.06014
3.04976
3.03658
3.02089
3.00299
2.98322
2.96191
2.9394
2.91605
2.8922
2.86819
2.84434
2.82097
2.79828
2.77636
2.75535
2.7354
2.71662
2.69907
2.68281
2.66785
2.65419
2.6418
2.63061
2.62057
2.61159
2.60357
2.59641
2.58999
2.58421
2.57895
2.5741
2.56956
2.5652
2.56095
2.5567
2.55237
2.54788
2.54316
2.53814
2.53277
2.527
2.52077
2.51355
2.50542
2.49647
2.48672
2.47618
2.46481
2.45259
2.4395
2.42551
2.41062
2.39483
2.37813
2.36049
2.34191
2.3224
2.30197
2.28059
2.25826
2.23498
2.21077
2.18559
2.15937
2.13222
2.10403
2.07445
2.0442
2.0129
1.98084
1.9482
1.91489
1.88134
1.84769
1.81395
1.78012
1.74616
1.71211
1.67805
1.64405
1.61016
1.57645
1.54295
1.50973
1.4768
1.44421
1.41199
1.38017
1.34877
1.31783
1.28736
1.25737
1.22789
1.19894
1.17051
1.14263
1.1153
1.08852
1.06231
1.03667
1.0116
0.9871
0.963176
0.939826
0.917051
0.894847
0.873213
0.852146
0.831642
0.811698
0.792307
0.773465
0.755165
0.737402
0.720168
0.703455
0.687257
0.671565
0.656371
0.641667
0.627445
0.613698
0.600412
0.587576
0.575177
0.563205
0.55165
0.540503
0.529761
0.519485
0.510361
0.150858
0.197911
0.241929
0.283452
0.325202
0.368616
0.414176
0.461827
0.511219
0.561843
0.613301
0.665407
0.718086
0.771299
0.825012
0.879196
0.933822
0.988864
1.0443
1.10009
1.15624
1.21272
1.26952
1.32662
1.38403
1.44174
1.49975
1.55805
1.61665
1.67556
1.73477
1.79428
1.85411
1.91426
1.97471
2.03548
2.09655
2.15791
2.21954
2.2814
2.34345
2.40563
2.46787
2.53009
2.59216
2.65396
2.71536
2.77597
2.83563
2.89414
2.95126
3.00676
3.06036
3.11178
3.16076
3.207
3.25024
3.29021
3.32668
3.35943
3.38829
3.4131
3.43378
3.45027
3.46256
3.47071
3.4748
3.47499
3.47145
3.46443
3.45418
3.441
3.42521
3.40716
3.38719
3.36568
3.34298
3.31947
3.29549
3.27137
3.24744
3.22397
3.20108
3.17893
3.15767
3.13742
3.11826
3.10027
3.08346
3.06784
3.05338
3.04004
3.02774
3.01642
3.00597
2.99628
2.98726
2.97879
2.97074
2.96301
2.95548
2.94806
2.94062
2.93308
2.92535
2.91734
2.90898
2.9002
2.89095
2.88114
2.87057
2.85883
2.8461
2.83243
2.81783
2.80229
2.78581
2.76834
2.74986
2.73036
2.70983
2.68828
2.66571
2.64209
2.61741
2.59167
2.56492
2.53714
2.50828
2.47831
2.44736
2.41536
2.38197
2.34773
2.31256
2.27633
2.23942
2.20177
2.16359
2.12499
2.08607
2.04702
2.00801
1.96905
1.9301
1.89115
1.85225
1.81349
1.77495
1.7367
1.69879
1.66128
1.62421
1.58763
1.55155
1.51602
1.48106
1.44668
1.41292
1.37977
1.34725
1.31537
1.28414
1.25357
1.22364
1.19437
1.16575
1.13779
1.11047
1.08379
1.05776
1.03236
1.00758
0.983431
0.959895
0.936966
0.914639
0.892905
0.871758
0.85119
0.831192
0.811758
0.792878
0.774545
0.75675
0.739485
0.722741
0.706509
0.690783
0.675553
0.660817
0.646559
0.632758
0.619408
0.606499
0.594025
0.581976
0.570355
0.559243
0.549464
0.162326
0.217956
0.268817
0.314786
0.360237
0.407076
0.455892
0.506659
0.559097
0.612838
0.667578
0.723147
0.779454
0.836446
0.894078
0.95231
1.0111
1.07042
1.13022
1.19046
1.25113
1.3122
1.37363
1.43542
1.49754
1.56
1.62277
1.68587
1.74928
1.81301
1.87707
1.94146
2.00619
2.07127
2.1367
2.20251
2.26868
2.33523
2.40215
2.46942
2.53701
2.60489
2.67299
2.74124
2.80953
2.87774
2.94571
3.01309
3.0797
3.14534
3.20978
3.27273
3.33393
3.39307
3.44984
3.50394
3.55504
3.60286
3.64709
3.6875
3.72384
3.75594
3.78365
3.80687
3.82557
3.83976
3.84949
3.85491
3.85616
3.85348
3.84712
3.83737
3.82456
3.80903
3.79115
3.77129
3.74982
3.72713
3.70358
3.67952
3.65526
3.63116
3.60738
3.58409
3.56145
3.53961
3.51867
3.49872
3.4798
3.46191
3.44504
3.42917
3.41422
3.40013
3.3868
3.37413
3.36201
3.35034
3.33899
3.32785
3.3168
3.30572
3.29453
3.2831
3.27135
3.25918
3.24653
3.23333
3.21949
3.20495
3.18915
3.17216
3.15408
3.13492
3.11469
3.09338
3.07098
3.04747
3.02282
2.99701
2.97004
2.94192
2.91268
2.88229
2.85073
2.81797
2.78409
2.74914
2.71301
2.67547
2.63707
2.59767
2.5571
2.51574
2.47358
2.43068
2.38725
2.34336
2.29917
2.25481
2.2104
2.16608
2.12198
2.07812
2.03447
1.99104
1.94788
1.90507
1.86268
1.82078
1.77944
1.73871
1.69862
1.65921
1.62051
1.58255
1.54533
1.50888
1.4732
1.4383
1.40418
1.37083
1.33826
1.30646
1.27542
1.24513
1.21557
1.18675
1.15864
1.13124
1.10452
1.07848
1.05311
1.02838
1.00429
0.980828
0.957977
0.935727
0.914068
0.892988
0.872477
0.852526
0.833125
0.814264
0.795935
0.778129
0.760837
0.74405
0.727762
0.711966
0.696657
0.681814
0.66742
0.65347
0.639961
0.626885
0.614238
0.602025
0.590348
0.580121
0.152895
0.231356
0.290928
0.34096
0.389351
0.438733
0.489905
0.542936
0.597633
0.653723
0.710975
0.769235
0.82841
0.888435
0.949256
1.01082
1.07308
1.13599
1.19949
1.26354
1.32811
1.39315
1.45864
1.52455
1.59085
1.65753
1.72458
1.79199
1.85975
1.92787
1.99635
2.06521
2.13444
2.20407
2.27411
2.34459
2.41552
2.48692
2.5588
2.63116
2.70399
2.77726
2.85094
2.92495
2.99922
3.07363
3.14798
3.22195
3.29539
3.36808
3.43978
3.51021
3.57908
3.64607
3.71084
3.77305
3.83236
3.88841
3.94089
3.98948
4.0339
4.07392
4.10935
4.14003
4.16589
4.18689
4.20307
4.21449
4.22132
4.22375
4.22201
4.2164
4.20722
4.19483
4.1796
4.16189
4.1421
4.12061
4.09781
4.07404
4.04965
4.02503
4.0004
3.97595
3.95188
3.92834
3.90547
3.88336
3.86207
3.84163
3.82205
3.80329
3.78531
3.76805
3.75141
3.7353
3.71962
3.70425
3.68908
3.67399
3.65886
3.64357
3.62802
3.61209
3.59569
3.57872
3.5611
3.54278
3.52363
3.50344
3.48178
3.45884
3.43467
3.40927
3.38265
3.3548
3.32573
3.29541
3.26383
3.23096
3.19679
3.16131
3.12463
3.08673
3.04756
3.00695
2.96518
2.92237
2.87841
2.83324
2.78716
2.7402
2.69235
2.64384
2.59475
2.5452
2.49535
2.44533
2.39527
2.34533
2.2956
2.24622
2.19728
2.14882
2.10084
2.05335
2.00638
1.96002
1.91433
1.86937
1.8252
1.78187
1.73941
1.69785
1.65722
1.61752
1.57876
1.54095
1.50409
1.46817
1.43319
1.39912
1.36596
1.33368
1.30227
1.2717
1.24196
1.21302
1.18485
1.15744
1.13075
1.10478
1.07949
1.05486
1.03088
1.00752
0.984773
0.962615
0.941034
0.920015
0.899545
0.879611
0.860203
0.84131
0.822923
0.805032
0.787629
0.770706
0.754256
0.738274
0.72275
0.707656
0.692989
0.678747
0.664928
0.65153
0.63855
0.625996
0.613986
0.603489
0.164477
0.246993
0.309958
0.362604
0.413212
0.464489
0.517372
0.572041
0.62839
0.686229
0.745381
0.805717
0.867143
0.929591
0.992998
1.05731
1.12246
1.18839
1.25505
1.32238
1.39034
1.45888
1.52796
1.59754
1.6676
1.73811
1.80906
1.88043
1.95221
2.0244
2.097
2.17002
2.24347
2.31738
2.39176
2.46665
2.54207
2.61805
2.69463
2.77181
2.8496
2.928
3.00699
3.08651
3.1665
3.24687
3.32732
3.40765
3.4877
3.56725
3.64606
3.72386
3.80032
3.87513
3.94793
4.01835
4.086
4.1505
4.21147
4.26857
4.32146
4.36983
4.41345
4.45211
4.48567
4.51406
4.53725
4.55529
4.56828
4.5764
4.57986
4.57894
4.57394
4.56518
4.55305
4.53792
4.52018
4.50022
4.47844
4.45521
4.43088
4.40585
4.38045
4.35489
4.32936
4.30405
4.27913
4.25471
4.23087
4.20766
4.1851
4.16317
4.14183
4.12104
4.10071
4.08075
4.06107
4.04155
4.02207
4.00252
3.98279
3.96273
3.94226
3.92124
3.89957
3.87717
3.85395
3.82984
3.80471
3.77805
3.74988
3.72032
3.68938
3.65707
3.62336
3.58827
3.55183
3.51402
3.47482
3.43421
3.39214
3.34855
3.30376
3.25769
3.21032
3.16158
3.11169
3.06074
3.00874
2.95574
2.90193
2.84741
2.79226
2.73667
2.68076
2.62467
2.56856
2.51258
2.45685
2.40152
2.3467
2.2925
2.23901
2.18628
2.13431
2.08313
2.03277
1.9833
1.93477
1.88724
1.84075
1.79535
1.75106
1.7079
1.66588
1.62502
1.5853
1.54673
1.50928
1.47294
1.4377
1.40351
1.37037
1.33823
1.30706
1.27684
1.24751
1.21906
1.19144
1.16462
1.13857
1.11325
1.08862
1.06467
1.04136
1.01867
0.996565
0.975031
0.954046
0.933591
0.91365
0.894208
0.875253
0.856771
0.838753
0.821189
0.80407
0.787388
0.771138
0.75531
0.739885
0.724847
0.710202
0.695949
0.682091
0.668626
0.655557
0.642892
0.630764
0.620164
0.169555
0.258689
0.324992
0.379992
0.432382
0.485084
0.539193
0.595013
0.652529
0.711626
0.772174
0.834068
0.897224
0.961572
1.02705
1.09359
1.16113
1.22961
1.29895
1.36912
1.44003
1.51165
1.58393
1.65683
1.7303
1.80433
1.87887
1.95392
2.02945
2.10547
2.18195
2.25892
2.33638
2.41435
2.49286
2.57195
2.65164
2.73199
2.81302
2.89477
2.97727
3.06052
3.14453
3.22925
3.31464
3.40063
3.48687
3.57324
3.65958
3.74567
3.83129
3.91616
3.99997
4.08239
4.16305
4.24156
4.31748
4.39042
4.45994
4.52564
4.58715
4.64409
4.69616
4.74309
4.78471
4.82086
4.85148
4.87655
4.89615
4.9104
4.91951
4.92372
4.92331
4.9186
4.90996
4.89776
4.88241
4.8643
4.84383
4.82138
4.79731
4.77204
4.74599
4.71937
4.69242
4.66535
4.63833
4.61152
4.585
4.55886
4.53311
4.50777
4.48282
4.4582
4.43385
4.40969
4.38562
4.36153
4.33732
4.31286
4.28803
4.26271
4.23679
4.21013
4.18265
4.15423
4.12482
4.09429
4.06242
4.02876
3.9935
3.95671
3.9184
3.87857
3.83715
3.79419
3.74977
3.70387
3.65645
3.60752
3.55708
3.50515
3.45188
3.39731
3.34146
3.28437
3.22619
3.16702
3.10696
3.04611
2.98464
2.92267
2.86036
2.79786
2.73532
2.67291
2.61077
2.54906
2.48792
2.42747
2.36784
2.30912
2.2514
2.19473
2.13913
2.08463
2.03126
1.97908
1.92813
1.87845
1.83008
1.78305
1.73738
1.69308
1.65016
1.60859
1.56839
1.52952
1.49196
1.45568
1.42066
1.38684
1.3542
1.32269
1.29226
1.26286
1.23445
1.20698
1.1804
1.15466
1.12972
1.10554
1.08207
1.05928
1.03711
1.01555
0.994557
0.974103
0.954161
0.934709
0.915726
0.897194
0.879097
0.861421
0.844155
0.827287
0.810809
0.794711
0.778986
0.763613
0.748577
0.733881
0.719531
0.70553
0.691882
0.678591
0.665661
0.653105
0.64106
0.630515
0.163554
0.264146
0.336023
0.393511
0.447387
0.501147
0.556101
0.612681
0.670965
0.730906
0.792421
0.85543
0.919864
0.985657
1.05275
1.12107
1.19056
1.26115
1.33277
1.40536
1.47886
1.55321
1.62836
1.70425
1.78085
1.85813
1.93603
2.01454
2.09362
2.17327
2.25347
2.33422
2.41552
2.4974
2.57987
2.66298
2.74676
2.83126
2.91653
3.00262
3.08956
3.17738
3.26608
3.35567
3.4461
3.53729
3.62891
3.72087
3.81304
3.90522
3.99719
4.08869
4.17942
4.26905
4.3572
4.44346
4.52739
4.60852
4.68641
4.76062
4.8307
4.89622
4.95679
5.01211
5.06194
5.10608
5.14436
5.17673
5.20322
5.22393
5.23902
5.24869
5.25321
5.25289
5.24808
5.23916
5.22651
5.21054
5.19165
5.17024
5.14668
5.12137
5.09482
5.06728
5.03899
5.01019
4.9811
4.95186
4.92261
4.89343
4.86437
4.83545
4.80667
4.778
4.74936
4.7207
4.69192
4.66292
4.6336
4.60382
4.57348
4.54245
4.51062
4.47785
4.44404
4.40911
4.37297
4.33548
4.29621
4.25507
4.2122
4.16767
4.12149
4.07363
4.02408
3.97288
3.92008
3.86568
3.80968
3.75212
3.69304
3.63248
3.57058
3.50738
3.44299
3.3775
3.31105
3.24375
3.17576
3.10721
3.03827
2.96909
2.89985
2.83071
2.76183
2.69339
2.62553
2.55841
2.49218
2.42695
2.36284
2.29995
2.23835
2.17811
2.11925
2.0618
2.0058
1.95128
1.89829
1.84684
1.79697
1.7487
1.70204
1.65698
1.61351
1.57163
1.53131
1.49252
1.45523
1.41938
1.38495
1.35187
1.3201
1.28958
1.26026
1.23206
1.20493
1.17882
1.15366
1.12939
1.10595
1.08329
1.06136
1.0401
1.01947
0.999418
0.979914
0.960915
0.942391
0.924311
0.90665
0.889385
0.872498
0.855972
0.839793
0.823947
0.808424
0.793212
0.778292
0.763641
0.749265
0.735172
0.721369
0.707862
0.694659
0.681765
0.669188
0.656942
0.64517
0.634833
0.165529
0.269481
0.344429
0.403754
0.45874
0.513236
0.568719
0.625735
0.684451
0.744884
0.806996
0.870736
0.936051
1.00289
1.07119
1.1409
1.21195
1.28427
1.3578
1.43247
1.50822
1.58499
1.66271
1.74135
1.82084
1.90115
1.98222
2.06401
2.1465
2.22965
2.31343
2.39784
2.48288
2.56854
2.65485
2.74184
2.82956
2.91804
3.00735
3.09754
3.18866
3.28074
3.37382
3.46789
3.56295
3.65884
3.75533
3.85235
3.94978
4.04746
4.14518
4.2427
4.33974
4.43598
4.53105
4.62455
4.71599
4.80489
4.89076
4.97313
5.05156
5.12547
5.19442
5.25805
5.31606
5.36825
5.4143
5.45411
5.48767
5.51504
5.53633
5.55173
5.56147
5.56583
5.56515
5.5598
5.55015
5.53661
5.51958
5.49947
5.47666
5.45152
5.42466
5.39634
5.36683
5.3364
5.30528
5.27364
5.24164
5.20939
5.17695
5.14435
5.11162
5.07871
5.0456
5.01222
4.97847
4.94428
4.90954
4.87412
4.83792
4.80081
4.76268
4.72339
4.68285
4.64097
4.59765
4.55267
4.50561
4.45661
4.40577
4.35314
4.29871
4.24249
4.18449
4.12475
4.06331
4.0002
3.93546
3.86913
3.8013
3.73206
3.66151
3.58976
3.51694
3.44318
3.36863
3.29343
3.21777
3.1418
3.0657
2.98965
2.91383
2.83841
2.76357
2.68947
2.61628
2.54415
2.47321
2.40358
2.33539
2.26872
2.20364
2.14022
2.07848
2.01847
1.9602
1.90371
1.84903
1.79616
1.74514
1.69596
1.64863
1.60312
1.55944
1.51754
1.4774
1.43897
1.40222
1.36708
1.33351
1.30143
1.2708
1.24153
1.21357
1.18683
1.16126
1.13676
1.11328
1.09074
1.06908
1.04822
1.0281
1.00866
0.989844
0.971599
0.953875
0.936627
0.919814
0.9034
0.887354
0.87165
0.856262
0.841172
0.826361
0.811813
0.797512
0.78344
0.769557
0.755874
0.742401
0.729146
0.716119
0.703327
0.690781
0.678489
0.666461
0.654715
0.643392
0.633409
0.168009
0.273841
0.350596
0.411158
0.466902
0.521847
0.577587
0.634766
0.693628
0.75425
0.816639
0.880775
0.946627
1.01416
1.08332
1.15406
1.22632
1.30004
1.37516
1.45161
1.52933
1.60826
1.68833
1.7695
1.85169
1.93487
2.01897
2.10393
2.18972
2.27628
2.36358
2.45158
2.54028
2.62966
2.71973
2.81051
2.90203
2.99436
3.08753
3.18161
3.27665
3.3727
3.46978
3.56794
3.66717
3.7672
3.86796
3.96939
4.07141
4.17389
4.27662
4.37939
4.48195
4.58402
4.68526
4.7853
4.88357
4.97957
5.07283
5.16285
5.24919
5.33113
5.40814
5.47985
5.54588
5.60591
5.65967
5.70695
5.74768
5.78185
5.80954
5.83088
5.84606
5.85536
5.85907
5.85755
5.85116
5.84031
5.8254
5.80683
5.78501
5.76028
5.73331
5.70438
5.6738
5.64185
5.60879
5.57483
5.54013
5.50481
5.46897
5.43265
5.39588
5.35865
5.32092
5.28265
5.24377
5.20418
5.16378
5.12247
5.08014
5.03667
4.99193
4.94581
4.89821
4.84906
4.79821
4.74532
4.69025
4.63315
4.57409
4.51311
4.45024
4.38548
4.31887
4.25045
4.18029
4.10842
4.03492
3.95987
3.88337
3.80555
3.72653
3.64643
3.56543
3.48368
3.40134
3.3186
3.23564
3.15264
3.06981
2.98731
2.90535
2.8241
2.74375
2.66446
2.58639
2.50969
2.43449
2.36091
2.28907
2.21905
2.15092
2.08473
2.02053
1.95834
1.89818
1.84008
1.78405
1.73009
1.67823
1.62844
1.58072
1.53504
1.49138
1.44971
1.40997
1.37212
1.33611
1.30187
1.26934
1.23844
1.20911
1.18126
1.15481
1.12969
1.10582
1.0831
1.06145
1.04081
1.02108
1.00218
0.984053
0.966617
0.949806
0.933557
0.917812
0.902518
0.887626
0.873093
0.858881
0.844957
0.831292
0.817861
0.80464
0.791609
0.778744
0.765998
0.753365
0.740863
0.728502
0.71629
0.704238
0.692356
0.680656
0.669148
0.657847
0.646769
0.636056
0.626562
0.169856
0.276852
0.354734
0.416084
0.472281
0.527424
0.583188
0.640294
0.699057
0.759608
0.822
0.886245
0.952337
1.02026
1.08997
1.16145
1.23463
1.30948
1.38592
1.4639
1.54337
1.62425
1.70648
1.79002
1.87479
1.96072
2.04777
2.13585
2.22489
2.31484
2.40562
2.49721
2.58955
2.68262
2.77641
2.87092
2.96618
3.06223
3.15911
3.25689
3.35561
3.45531
3.55604
3.65785
3.76068
3.86429
3.96866
4.07377
4.17959
4.28605
4.39292
4.50002
4.60717
4.71412
4.82057
4.92626
5.03051
5.13279
5.23264
5.32956
5.42299
5.51229
5.59689
5.67629
5.75006
5.81779
5.87914
5.93385
5.98176
6.0228
6.05698
6.0844
6.1052
6.11961
6.12792
6.13045
6.12756
6.11964
6.10708
6.0903
6.06971
6.04564
6.01876
5.98941
5.95793
5.92462
5.88976
5.85357
5.81624
5.77792
5.73871
5.69867
5.65785
5.61624
5.57384
5.5306
5.48645
5.44133
5.39513
5.34776
5.29911
5.24907
5.19752
5.14436
5.08949
5.03284
4.9742
4.91322
4.85001
4.78468
4.71729
4.64789
4.5765
4.50316
4.42793
4.35087
4.27204
4.19153
4.10942
4.02583
3.9409
3.85476
3.76756
3.67947
3.59066
3.50132
3.41163
3.3218
3.23202
3.14249
3.05341
2.96498
2.8774
2.79084
2.70549
2.62152
2.53908
2.45832
2.37936
2.30233
2.22732
2.15442
2.08369
2.01518
1.94893
1.88497
1.8233
1.76395
1.70691
1.65219
1.59977
1.54965
1.5018
1.45618
1.41277
1.37151
1.33235
1.29524
1.2601
1.22688
1.1955
1.16587
1.13792
1.11156
1.0867
1.06325
1.04113
1.02024
1.00049
0.981796
0.96406
0.9472
0.931132
0.915775
0.901054
0.886897
0.873236
0.860008
0.847159
0.834636
0.822394
0.810394
0.798602
0.786984
0.775512
0.764155
0.752869
0.7416
0.730389
0.71924
0.708162
0.697163
0.686254
0.675447
0.664754
0.654189
0.643767
0.633507
0.623545
0.614664
0.170965
0.278534
0.357074
0.418863
0.475249
0.530369
0.585951
0.642783
0.701238
0.761501
0.823665
0.887779
0.953862
1.02192
1.09194
1.16391
1.23778
1.31353
1.3911
1.47043
1.55147
1.63416
1.71845
1.80426
1.89154
1.9802
2.07017
2.16136
2.25368
2.34704
2.44136
2.53656
2.63259
2.72938
2.8269
2.92513
3.02408
3.12376
3.22422
3.32552
3.42769
3.53074
3.63474
3.73973
3.84556
3.95208
4.05933
4.1673
4.27603
4.38558
4.49559
4.60598
4.71663
4.82734
4.93785
5.04785
5.15683
5.2643
5.36975
5.47266
5.57243
5.66842
5.76
5.84662
5.92773
6.00286
6.07159
6.13358
6.18859
6.23648
6.27719
6.31076
6.3373
6.35698
6.37005
6.37682
6.37763
6.37286
6.36289
6.34813
6.32901
6.30588
6.27928
6.24972
6.21753
6.18303
6.14653
6.10826
6.06842
6.02719
5.98469
5.94099
5.89615
5.85019
5.8031
5.75486
5.70542
5.6547
5.60263
5.54911
5.49405
5.43734
5.37887
5.31855
5.25631
5.19202
5.12543
5.05639
4.98504
4.91148
4.83579
4.758
4.67818
4.59637
4.51265
4.42711
4.33983
4.25091
4.16048
4.06868
3.97567
3.8816
3.78665
3.69101
3.59488
3.49845
3.40195
3.30556
3.20951
3.11402
3.01928
2.92549
2.83286
2.74157
2.6518
2.56372
2.47747
2.39319
2.31102
2.23105
2.15339
2.0781
2.00526
1.93489
1.86704
1.80171
1.73893
1.67868
1.62098
1.5658
1.51313
1.46293
1.41519
1.36985
1.32686
1.28618
1.24774
1.21147
1.17731
1.14518
1.115
1.08667
1.06012
1.03525
1.01197
0.990181
0.969789
0.950697
0.932806
0.916021
0.900246
0.885388
0.871355
0.858061
0.84542
0.833354
0.821785
0.810646
0.79987
0.7894
0.779184
0.769173
0.759326
0.749604
0.739968
0.730372
0.72073
0.711071
0.701405
0.691735
0.682069
0.672413
0.662779
0.653177
0.643622
0.634128
0.624712
0.615393
0.606302
0.59814
0.171362
0.279016
0.357851
0.419794
0.47614
0.531041
0.586266
0.642653
0.700628
0.760425
0.822178
0.885973
0.951856
1.01986
1.09
1.16228
1.23668
1.31319
1.39175
1.47232
1.55486
1.63931
1.7256
1.81368
1.90347
1.99489
2.08784
2.18224
2.27792
2.37479
2.47274
2.57166
2.67146
2.77205
2.87336
2.97533
3.07795
3.1812
3.28511
3.38977
3.49515
3.60123
3.70808
3.81571
3.92389
4.03261
4.14192
4.25186
4.36247
4.47379
4.58569
4.6981
4.81095
4.9241
5.03734
5.1504
5.26288
5.37432
5.48425
5.5921
5.69727
5.79911
5.89695
5.99015
6.07809
6.16021
6.236
6.30505
6.36702
6.42168
6.46891
6.50866
6.54101
6.56607
6.58405
6.59524
6.59995
6.59853
6.59137
6.57887
6.56144
6.53949
6.51344
6.4839
6.45121
6.41573
6.37776
6.33758
6.2954
6.25141
6.20573
6.15848
6.10971
6.05946
6.00775
5.95456
5.89984
5.84354
5.7856
5.72594
5.66446
5.60106
5.53566
5.46819
5.39856
5.32663
5.25211
5.17511
5.09573
5.01408
4.93022
4.84423
4.75617
4.66613
4.57419
4.48046
4.38505
4.28811
4.18976
4.09018
3.98954
3.88804
3.78587
3.68322
3.58033
3.47741
3.37467
3.27235
3.17066
3.06982
2.97004
2.87153
2.77448
2.67908
2.58551
2.49391
2.40445
2.31724
2.23242
2.15007
2.07029
1.99314
1.91867
1.84692
1.77791
1.71166
1.64815
1.58739
1.52937
1.47404
1.4214
1.37139
1.32398
1.27911
1.23673
1.19677
1.15917
1.12384
1.09072
1.05971
1.03074
1.00371
0.978529
0.955103
0.933334
0.913122
0.894368
0.87697
0.860829
0.845843
0.831913
0.818941
0.806832
0.795493
0.784832
0.774765
0.76521
0.756089
0.747332
0.738872
0.73065
0.722611
0.714706
0.706886
0.6991
0.691265
0.683326
0.675333
0.667281
0.659168
0.650996
0.642771
0.634502
0.6262
0.617879
0.609553
0.60124
0.592959
0.584834
0.577481
0.171142
0.278462
0.357286
0.419141
0.47525
0.529766
0.584487
0.640292
0.697656
0.756853
0.818065
0.881413
0.94697
1.0148
1.08495
1.15744
1.2323
1.30952
1.38905
1.47085
1.55489
1.64113
1.7295
1.81993
1.91234
2.00663
2.10272
2.2005
2.29971
2.40026
2.502
2.60479
2.7085
2.81299
2.91816
3.02392
3.13019
3.23694
3.34416
3.45187
3.56005
3.66871
3.77787
3.8874
3.99718
4.10724
4.21766
4.32852
4.43988
4.55182
4.66432
4.77741
4.89106
5.00522
5.11976
5.23448
5.34906
5.46313
5.57623
5.68783
5.79733
5.90404
6.00726
6.10629
6.20044
6.28904
6.3715
6.4473
6.51602
6.57733
6.63101
6.67696
6.71517
6.74571
6.76874
6.78451
6.7933
6.79545
6.79132
6.78132
6.76584
6.7453
6.72008
6.69081
6.65787
6.62163
6.58242
6.54053
6.4962
6.44961
6.40094
6.35028
6.29772
6.24332
6.1871
6.12906
6.06916
6.00738
5.94366
5.87792
5.8101
5.7401
5.66786
5.59332
5.51638
5.43687
5.35466
5.2699
5.18272
5.09321
5.00146
4.90755
4.81158
4.71364
4.61385
4.51234
4.40926
4.30474
4.19898
4.09214
3.98444
3.87608
3.76727
3.65825
3.54923
3.44045
3.33215
3.22455
3.11789
3.01237
2.90823
2.80565
2.70484
2.60598
2.50923
2.41476
2.32269
2.23316
2.14627
2.06211
1.98076
1.90227
1.82668
1.75403
1.68432
1.61756
1.55374
1.49284
1.43484
1.37969
1.32736
1.27779
1.23094
1.18675
1.14513
1.10603
1.06937
1.03506
1.00303
0.973174
0.945411
0.919646
0.895782
0.873721
0.853364
0.83461
0.817358
0.801505
0.786949
0.773591
0.761327
0.75006
0.739691
0.730125
0.721268
0.713031
0.705328
0.698076
0.691199
0.684624
0.678287
0.672126
0.666081
0.660094
0.654094
0.647952
0.641727
0.635407
0.628983
0.622449
0.615805
0.609051
0.602195
0.595246
0.588216
0.58112
0.573975
0.566799
0.559708
0.55323
0.170357
0.277012
0.35557
0.417134
0.472842
0.526839
0.580942
0.636068
0.692735
0.751254
0.811854
0.874708
0.939895
1.00752
1.07765
1.15037
1.22572
1.30375
1.38433
1.46748
1.55317
1.64137
1.732
1.825
1.92024
2.01764
2.11706
2.21834
2.32128
2.42569
2.5314
2.63823
2.74597
2.85446
2.96354
3.07306
3.18291
3.29301
3.40329
3.51373
3.62431
3.73502
3.8458
3.95643
4.06694
4.1774
4.28789
4.39853
4.50943
4.62071
4.73247
4.8448
4.95777
5.07141
5.18569
5.30052
5.41569
5.5309
5.64576
5.75977
5.87235
5.98282
6.09044
6.19445
6.29408
6.38857
6.47724
6.55944
6.63465
6.70245
6.76251
6.81465
6.85877
6.89489
6.92311
6.94363
6.9567
6.96263
6.96178
6.95452
6.94126
6.9224
6.8983
6.86958
6.83665
6.79992
6.75972
6.71636
6.67011
6.62116
6.56969
6.51583
6.45968
6.40131
6.34076
6.27803
6.21312
6.14602
6.07667
6.00502
5.93101
5.85458
5.77568
5.69425
5.61018
5.52331
5.43371
5.34152
5.24685
5.14982
5.05054
4.9491
4.84562
4.74023
4.63307
4.52428
4.41403
4.30251
4.1899
4.07641
3.96226
3.84768
3.73291
3.61817
3.50371
3.38977
3.27659
3.16442
3.05347
2.94398
2.83616
2.7302
2.62631
2.52465
2.42538
2.32867
2.23462
2.14337
2.05499
1.96959
1.8872
1.8079
1.7317
1.65863
1.58867
1.52184
1.4581
1.39743
1.33979
1.28512
1.23339
1.18453
1.13846
1.09513
1.05446
1.01636
0.980746
0.947537
0.916638
0.887956
0.861396
0.836861
0.814251
0.793468
0.774411
0.756979
0.741071
0.726586
0.713424
0.701485
0.690669
0.680878
0.672015
0.663986
0.656696
0.650056
0.643976
0.638374
0.633168
0.628282
0.623647
0.619193
0.614855
0.61056
0.606189
0.601685
0.597093
0.592387
0.587548
0.582564
0.577428
0.572138
0.566697
0.561111
0.555391
0.549549
0.543603
0.537567
0.531549
0.52599
0.169118
0.274807
0.352871
0.413976
0.469152
0.522531
0.575946
0.630345
0.686293
0.744119
0.804113
0.866537
0.931417
0.998915
1.06916
1.14224
1.21824
1.29718
1.37902
1.46377
1.5514
1.64185
1.73506
1.83094
1.92935
2.03017
2.13323
2.23834
2.34527
2.4538
2.56369
2.6747
2.78659
2.89913
3.0121
3.12529
3.23855
3.35171
3.46469
3.57741
3.68982
3.80186
3.9133
4.02413
4.13439
4.24417
4.35359
4.46278
4.57192
4.68119
4.79075
4.90081
5.01152
5.12302
5.23542
5.34873
5.46285
5.57761
5.69269
5.80766
5.92198
6.03498
6.14591
6.25395
6.35825
6.45798
6.55233
6.64054
6.72198
6.79609
6.86245
6.92077
6.97087
7.01268
7.04625
7.07172
7.0893
7.09926
7.10195
7.09772
7.08695
7.07007
7.04743
7.01956
6.98696
6.95002
6.90912
6.86458
6.81667
6.76563
6.71163
6.65482
6.59532
6.53321
6.46855
6.40138
6.33169
6.25949
6.18474
6.10742
6.02747
5.94485
5.85954
5.77149
5.68055
5.5867
5.49009
5.39085
5.28911
5.18499
5.07862
4.97013
4.85965
4.74733
4.63334
4.51785
4.40104
4.28312
4.16431
4.04482
3.92491
3.8048
3.68475
3.565
3.44581
3.32743
3.21011
3.09407
2.97956
2.8668
2.756
2.64735
2.54105
2.43725
2.33612
2.23779
2.14238
2.04999
1.96071
1.87461
1.79173
1.71212
1.6358
1.56276
1.493
1.4265
1.36323
1.30314
1.24619
1.19232
1.14146
1.09354
1.04849
1.00622
0.966653
0.929691
0.895243
0.863216
0.833512
0.806032
0.780677
0.757346
0.735938
0.716353
0.69849
0.682249
0.667531
0.654236
0.642269
0.631532
0.621929
0.613366
0.605751
0.598991
0.592996
0.587677
0.582948
0.578725
0.574927
0.571477
0.568299
0.565323
0.562474
0.559661
0.556725
0.553729