/*--------------------------------*- C++ -*----------------------------------*\
  =========                 |
  \\      /  F ield         | OpenFOAM: The Open Source CFD Toolbox
   \\    /   O peration     | Website:  https://openfoam.org
    \\  /    A nd           | Version:  7
     \\/     M anipulation  |
\*---------------------------------------------------------------------------*/
FoamFile
{
    version     2.0;
    format      ascii;
    class       volScalarField;
    location    "400";
    object      nut;
}
// * * * * * * * * * * * * * * * * * * * * * * * * * * * * * * * * * * * * * //

dimensions      [0 2 -1 0 0 0 0];

internalField   nonuniform List<scalar> 
16900
(
6.81313e-05
0.000119763
0.00015349
0.000180105
0.000200289
0.000219773
0.000227621
0.000229505
4.80107e-05
5.0602e-05
5.34388e-05
5.61599e-05
5.87693e-05
6.12795e-05
6.36999e-05
6.60423e-05
6.83108e-05
7.05215e-05
7.2669e-05
7.47739e-05
7.68253e-05
7.88432e-05
8.08168e-05
8.27626e-05
8.46729e-05
8.65583e-05
8.84175e-05
9.02523e-05
9.20638e-05
9.3853e-05
9.56206e-05
9.73668e-05
9.90916e-05
0.000100794
0.000102474
0.00010413
0.000105761
0.000107365
0.00010894
0.000110484
0.000111994
0.000113469
0.000114907
0.000116305
0.000117663
0.000118983
0.00012027
0.000121535
0.000122771
0.000123941
0.000125041
0.000126067
0.000127015
0.000127881
0.000128662
0.000129353
0.000129951
0.000130454
0.00013086
0.000131166
0.000131372
0.000131478
0.000131484
0.00013139
0.0001312
0.000130916
0.000130541
0.000130081
0.000129539
0.000128923
0.000128237
0.000127489
0.000126687
0.000125839
0.000124951
0.000124034
0.000123094
0.00012214
0.000121179
0.000120215
0.000119252
0.00011843
0.000117713
0.000117042
0.000116425
0.000115865
0.000115366
0.000114932
0.000114562
0.000114259
0.000114019
0.000113842
0.000113723
0.00011366
0.000113646
0.000113678
0.000113748
0.000113851
0.000113981
0.000114132
0.000114298
0.000114473
0.000114652
0.000114829
0.000115001
0.000115161
0.000115307
0.000115434
0.000115539
0.000115621
0.000115679
0.000115717
0.000115738
0.000115789
0.000115804
0.000115783
0.000115724
0.000115626
0.000115489
0.000115313
0.000115096
0.000114839
0.000114541
0.000114203
0.000113823
0.000113403
0.000112943
0.000112442
0.000111901
0.000111322
0.000110703
0.000110044
0.000109349
0.000108616
0.000107841
0.000107033
0.000106191
0.000105308
0.000104394
0.000103431
0.000102394
0.000101363
0.000100377
9.91216e-05
9.84257e-05
9.79849e-05
9.7573e-05
9.71615e-05
9.67444e-05
9.63196e-05
9.58864e-05
9.54441e-05
9.49929e-05
9.45328e-05
9.40643e-05
9.35874e-05
9.31029e-05
9.26108e-05
9.21118e-05
9.16061e-05
9.10942e-05
9.05763e-05
9.0053e-05
8.95244e-05
8.8991e-05
8.8453e-05
8.79109e-05
8.73649e-05
8.68154e-05
8.62627e-05
8.57073e-05
8.51493e-05
8.45894e-05
8.40277e-05
8.34648e-05
8.29011e-05
8.23369e-05
8.17728e-05
8.12091e-05
8.06463e-05
8.00849e-05
7.95254e-05
7.89682e-05
7.84138e-05
7.78626e-05
7.73152e-05
7.67721e-05
7.62337e-05
7.57004e-05
7.51725e-05
7.46504e-05
7.41402e-05
7.36402e-05
7.31492e-05
7.26665e-05
7.21919e-05
7.17249e-05
7.12657e-05
7.08147e-05
7.03753e-05
9.75689e-05
0.000194373
0.000244263
0.000268899
0.000278233
0.000280275
0.000281539
0.000277504
0.000267346
0.000286078
0.000306857
0.00032759
0.000348046
0.000368157
0.000387886
0.000407217
0.000426148
0.000444697
0.00046288
0.000480736
0.000498286
0.000515581
0.00053265
0.000549544
0.000566297
0.000582959
0.000599569
0.000616167
0.000632791
0.000649478
0.000666263
0.000683177
0.000700248
0.000717498
0.000734948
0.00075261
0.00077049
0.000788587
0.000806891
0.000825383
0.00084403
0.000862786
0.000881589
0.000900352
0.000918964
0.000937274
0.000955082
0.000972119
0.000988329
0.00100418
0.00101969
0.00103479
0.00104942
0.00106351
0.00107699
0.00108979
0.00110183
0.00111306
0.0011234
0.00113281
0.00114123
0.00114862
0.00115495
0.0011602
0.00116436
0.00116741
0.00116937
0.00117025
0.00117008
0.00116889
0.00116672
0.00116361
0.00115962
0.0011548
0.0011492
0.00114286
0.00113581
0.00112806
0.00111959
0.00111028
0.00109998
0.00108849
0.00107654
0.00106465
0.00105299
0.00104165
0.00103073
0.0010203
0.00101043
0.00100117
0.000992565
0.000984647
0.000977435
0.000970941
0.000965161
0.000960088
0.000955702
0.000951979
0.000948888
0.000946394
0.000944457
0.000943036
0.000942085
0.000941557
0.000941401
0.000941565
0.000941992
0.000942617
0.000943359
0.000944125
0.000944806
0.000945283
0.000944745
0.000943595
0.000942383
0.000941147
0.000939871
0.000938539
0.000937133
0.000935636
0.000934038
0.000932323
0.000930475
0.000928476
0.000926319
0.000923997
0.000921497
0.000918799
0.000915901
0.000912801
0.00090948
0.000905923
0.000902141
0.000898119
0.000893826
0.000889283
0.000884496
0.000879376
0.00087403
0.000868497
0.000862425
0.000855822
0.000848715
0.000839746
0.000828653
0.00081673
0.000804441
0.000791963
0.000779373
0.000766709
0.000753999
0.00074126
0.000728511
0.000715766
0.000703039
0.000690345
0.000677695
0.000665102
0.000652579
0.000640136
0.000627786
0.000615538
0.000603404
0.000591393
0.000579516
0.000567782
0.000556201
0.000544781
0.000533533
0.000522465
0.000511584
0.0005009
0.00049042
0.000480151
0.000470099
0.000460272
0.000450674
0.00044131
0.000432185
0.000423302
0.000414664
0.000406273
0.000398131
0.000390237
0.000382592
0.000375196
0.000368045
0.00036114
0.000354475
0.000348042
0.000341739
0.000335606
0.000329678
0.000323958
0.000318445
0.000313137
0.000308031
0.000303123
0.000298416
0.000294121
0.000130272
0.000256052
0.000326452
0.000365486
0.000390905
0.000413532
0.000439061
0.000466678
0.000498188
0.000537947
0.000579129
0.000620189
0.00066078
0.000700767
0.00074008
0.000778684
0.000816575
0.00085377
0.000890302
0.00092622
0.000961577
0.000996439
0.00103087
0.00106495
0.00109874
0.00113233
0.00116578
0.00119916
0.00123253
0.00126597
0.00129952
0.00133325
0.00136718
0.00140137
0.00143583
0.00147059
0.00150563
0.00154097
0.00157656
0.00161237
0.00164833
0.00168436
0.00172035
0.00175617
0.00179166
0.00182664
0.00186092
0.00189397
0.00192612
0.00195758
0.00198833
0.00201825
0.00204722
0.0020751
0.00210174
0.00212702
0.00215079
0.00217292
0.0021933
0.0022118
0.00222834
0.00224282
0.00225518
0.00226539
0.00227339
0.0022792
0.00228282
0.00228427
0.00228361
0.00228089
0.00227619
0.0022696
0.0022612
0.00225109
0.00223937
0.00222614
0.00221147
0.00219544
0.00217808
0.00215942
0.00213953
0.00211841
0.00209687
0.00207542
0.00205433
0.00203376
0.00201386
0.00199476
0.00197655
0.00195934
0.00194318
0.00192812
0.00191417
0.00190134
0.00188962
0.00187898
0.00186936
0.00186072
0.00185298
0.00184607
0.0018399
0.0018344
0.00182946
0.00182499
0.00182089
0.00181707
0.00181342
0.00180983
0.00180618
0.00180234
0.00179816
0.00179338
0.0017873
0.00178074
0.00177395
0.00176696
0.00175976
0.00175232
0.00174462
0.00173663
0.00172834
0.00171973
0.00171079
0.0017015
0.00169185
0.00168183
0.00167144
0.00166066
0.00164947
0.0016379
0.00162593
0.00161353
0.00160073
0.00158753
0.0015739
0.00155982
0.00154543
0.00153056
0.00151534
0.0014999
0.0014841
0.00146782
0.00145094
0.00143293
0.00141356
0.00139338
0.00137281
0.00135203
0.00133116
0.00131027
0.00128939
0.00126856
0.0012478
0.00122712
0.00120655
0.0011861
0.00116579
0.00114563
0.00112563
0.0011058
0.00108616
0.00106671
0.00104746
0.00102843
0.00100962
0.000991032
0.000972686
0.000954587
0.000936743
0.000919161
0.000901851
0.000884821
0.000868079
0.000851632
0.000835488
0.000819656
0.000804141
0.000788951
0.000774092
0.000759569
0.000745388
0.000731552
0.000718066
0.000704933
0.000692153
0.00067973
0.000667663
0.000655952
0.000644596
0.000633592
0.00062291
0.000612482
0.000602351
0.000592524
0.000583003
0.000573789
0.000564879
0.000556273
0.000548017
0.000540718
0.000159684
0.000310094
0.000404086
0.000464005
0.000509852
0.000553241
0.000599678
0.00064958
0.000703381
0.000760498
0.000818447
0.000876181
0.000933297
0.000989607
0.00104501
0.00109946
0.00115295
0.00120549
0.00125711
0.00130789
0.00135787
0.00140714
0.00145577
0.00150386
0.00155148
0.00159874
0.0016457
0.00169246
0.00173909
0.00178567
0.00183225
0.00187891
0.00192568
0.00197262
0.00201973
0.00206705
0.00211456
0.00216225
0.0022101
0.00225804
0.002306
0.00235388
0.00240158
0.00244896
0.00249585
0.0025421
0.00258754
0.00263168
0.00267485
0.00271709
0.00275834
0.00279845
0.00283727
0.00287461
0.00291031
0.00294417
0.00297602
0.0030057
0.00303303
0.00305788
0.0030801
0.0030996
0.00311627
0.00313006
0.00314092
0.00314884
0.00315382
0.0031559
0.00315513
0.0031516
0.0031454
0.00313664
0.00312544
0.00311193
0.00309626
0.00307856
0.00305896
0.00303762
0.00301466
0.00299025
0.00296457
0.00293785
0.00291075
0.00288371
0.00285698
0.00283076
0.00280524
0.00278055
0.00275682
0.00273412
0.00271254
0.00269212
0.00267286
0.00265476
0.0026378
0.00262193
0.00260709
0.00259319
0.00258015
0.00256787
0.00255625
0.00254518
0.00253454
0.00252423
0.00251412
0.00250411
0.00249409
0.00248393
0.00247352
0.00246276
0.00245157
0.0024392
0.00242601
0.00241236
0.00239837
0.00238406
0.00236942
0.00235442
0.00233903
0.00232325
0.00230706
0.00229046
0.00227343
0.00225596
0.00223805
0.00221969
0.00220089
0.00218165
0.00216195
0.0021418
0.00212123
0.0021002
0.0020787
0.00205682
0.00203454
0.00201171
0.00198868
0.00196537
0.00194186
0.00191819
0.00189433
0.00187022
0.00184577
0.00182076
0.00179509
0.00176899
0.00174267
0.0017163
0.00168997
0.00166375
0.00163768
0.0016118
0.00158614
0.0015607
0.0015355
0.00151057
0.00148591
0.00146153
0.00143743
0.00141364
0.00139014
0.00136696
0.00134408
0.00132151
0.00129927
0.00127734
0.00125573
0.00123445
0.0012135
0.00119287
0.00117258
0.00115262
0.001133
0.00111372
0.00109479
0.00107621
0.00105798
0.00104011
0.0010226
0.00100546
0.000988684
0.000972284
0.000956261
0.000940616
0.000925354
0.000910475
0.000895982
0.000881875
0.000868155
0.000854823
0.00084187
0.000829258
0.000816969
0.000805008
0.00079338
0.000782089
0.000771135
0.000760526
0.000750361
0.000741608
0.000184186
0.00035265
0.000473053
0.000556961
0.000623604
0.000685562
0.000748868
0.000814964
0.000883888
0.000954672
0.00102596
0.00109694
0.00116719
0.00123648
0.00130467
0.0013717
0.00143756
0.00150225
0.0015658
0.00162828
0.00168975
0.00175028
0.00180996
0.00186888
0.00192713
0.0019848
0.00204198
0.00209875
0.0021552
0.0022114
0.00226741
0.00232331
0.00237913
0.00243492
0.00249071
0.00254651
0.00260233
0.00265815
0.00271394
0.00276966
0.00282524
0.00288059
0.00293563
0.00299021
0.00304422
0.00309751
0.00314992
0.00320109
0.00325125
0.00330038
0.0033484
0.00339516
0.00344047
0.00348415
0.003526
0.00356582
0.00360339
0.00363853
0.00367104
0.00370076
0.00372751
0.00375116
0.00377161
0.00378875
0.00380254
0.00381294
0.00381995
0.00382359
0.00382393
0.00382104
0.00381503
0.00380601
0.00379414
0.00377956
0.00376244
0.00374295
0.00372128
0.0036976
0.00367212
0.00364505
0.00361662
0.00358716
0.00355723
0.00352718
0.00349729
0.00346775
0.00343874
0.00341041
0.00338288
0.00335625
0.00333057
0.00330588
0.0032822
0.00325951
0.00323779
0.00321698
0.003197
0.00317779
0.00315924
0.00314126
0.00312373
0.00310655
0.0030896
0.00307277
0.00305595
0.00303903
0.00302191
0.00300448
0.00298667
0.00296834
0.00294932
0.00292922
0.00290847
0.00288726
0.00286564
0.00284363
0.00282121
0.00279839
0.00277513
0.00275143
0.00272727
0.00270267
0.00267764
0.00265216
0.00262623
0.00259983
0.00257302
0.00254579
0.00251812
0.00248998
0.0024615
0.00243263
0.00240322
0.00237358
0.0023437
0.00231355
0.0022833
0.00225296
0.00222258
0.00219222
0.00216186
0.00213152
0.00210114
0.00207063
0.00203997
0.00200922
0.00197851
0.00194796
0.00191764
0.00188762
0.00185792
0.00182859
0.00179964
0.00177109
0.00174296
0.00171525
0.00168797
0.00166113
0.00163472
0.00160875
0.00158321
0.00155812
0.00153345
0.00150921
0.00148539
0.00146198
0.00143899
0.0014164
0.00139421
0.00137242
0.00135101
0.00132999
0.00130935
0.00128909
0.0012692
0.00124968
0.00123053
0.00121176
0.00119335
0.00117532
0.00115765
0.00114036
0.00112344
0.00110689
0.00109072
0.00107493
0.00105951
0.00104447
0.00102982
0.00101554
0.00100165
0.00098812
0.000974905
0.000962015
0.000949457
0.000937234
0.000925351
0.000913823
0.000902802
0.000893511
0.000198659
0.000367369
0.000526586
0.000639052
0.000726681
0.000805356
0.000882776
0.000961554
0.00104208
0.00112372
0.00120559
0.00128702
0.00136759
0.00144705
0.00152526
0.00160212
0.00167761
0.00175172
0.0018245
0.00189598
0.00196623
0.00203532
0.00210334
0.00217036
0.00223649
0.0023018
0.00236639
0.00243034
0.00249373
0.00255662
0.0026191
0.00268122
0.00274302
0.00280457
0.00286588
0.00292699
0.0029879
0.00304861
0.00310912
0.00316938
0.00322936
0.00328901
0.00334824
0.00340696
0.00346508
0.00352247
0.00357899
0.00363441
0.00368889
0.00374241
0.00379487
0.00384612
0.00389597
0.00394424
0.00399072
0.00403518
0.0040774
0.00411717
0.00415427
0.00418848
0.00421963
0.00424755
0.00427208
0.00429311
0.00431055
0.00432435
0.00433448
0.00434094
0.00434379
0.00434309
0.00433894
0.00433146
0.00432079
0.00430711
0.00429058
0.00427141
0.00424978
0.00422592
0.00420004
0.00417237
0.00414316
0.00411275
0.00408164
0.00405016
0.00401856
0.00398705
0.0039558
0.00392497
0.00389466
0.00386496
0.00383595
0.00380765
0.00378009
0.00375324
0.00372708
0.00370156
0.00367661
0.00365216
0.00362813
0.0036044
0.00358089
0.0035575
0.00353411
0.00351063
0.00348696
0.003463
0.00343867
0.00341389
0.00338858
0.00336268
0.00333574
0.003308
0.00327968
0.00325087
0.0032216
0.0031919
0.00316176
0.0031312
0.00310019
0.00306873
0.0030368
0.00300443
0.00297165
0.00293847
0.00290486
0.00287078
0.00283634
0.00280158
0.00276643
0.00273075
0.0026949
0.00265882
0.00262248
0.00258602
0.0025495
0.00251294
0.00247643
0.00244004
0.00240382
0.00236782
0.00233206
0.00229657
0.00226135
0.00222634
0.00219154
0.00215698
0.00212273
0.00208887
0.00205545
0.00202254
0.00199015
0.00195832
0.00192707
0.00189641
0.00186634
0.00183688
0.00180802
0.00177976
0.0017521
0.00172503
0.00169854
0.00167262
0.00164726
0.00162245
0.00159817
0.0015744
0.00155114
0.00152837
0.00150607
0.00148422
0.00146282
0.00144185
0.0014213
0.00140115
0.0013814
0.00136204
0.00134305
0.00132444
0.00130619
0.0012883
0.00127077
0.00125359
0.00123677
0.00122029
0.00120417
0.00118839
0.00117297
0.00115789
0.00114317
0.0011288
0.00111479
0.0011011
0.0010877
0.0010746
0.00106182
0.00104936
0.00103722
0.00102543
0.00101417
0.00100485
3.96038e-05
0.00029547
0.000555677
0.000708053
0.000817405
0.000911455
0.00100106
0.00109023
0.00118005
0.00127034
0.00136052
0.00145008
0.00153863
0.00162591
0.00171177
0.00179612
0.0018789
0.00196012
0.0020398
0.00211797
0.0021947
0.00227004
0.00234409
0.00241691
0.0024886
0.00255924
0.00262891
0.00269769
0.00276566
0.00283288
0.00289944
0.00296539
0.00303078
0.00309566
0.00316009
0.00322408
0.00328768
0.00335089
0.00341374
0.00347621
0.0035383
0.00359998
0.00366122
0.00372195
0.00378213
0.00384166
0.00390041
0.0039583
0.00401546
0.00407187
0.00412742
0.00418198
0.00423538
0.00428741
0.00433787
0.00438652
0.00443312
0.00447742
0.00451919
0.00455818
0.00459415
0.00462691
0.00465626
0.00468204
0.00470412
0.00472241
0.00473685
0.00474741
0.00475411
0.00475699
0.00475615
0.00475168
0.00474374
0.00473247
0.00471806
0.00470071
0.00468062
0.00465801
0.00463311
0.00460617
0.0045774
0.00454713
0.00451585
0.00448387
0.00445143
0.00441875
0.00438599
0.00435331
0.00432081
0.00428858
0.0042567
0.0042252
0.00419409
0.00416338
0.00413304
0.00410303
0.00407329
0.00404375
0.00401435
0.003985
0.00395561
0.00392609
0.00389635
0.00386631
0.00383588
0.00380499
0.00377356
0.00374153
0.00370884
0.00367534
0.00364085
0.00360566
0.00356989
0.0035336
0.00349682
0.00345957
0.00342187
0.00338375
0.00334518
0.00330617
0.0032667
0.00322677
0.0031865
0.00314588
0.00310489
0.0030634
0.00302161
0.00297964
0.00293742
0.00289494
0.00285237
0.00280974
0.00276706
0.00272444
0.00268194
0.00263962
0.00259756
0.00255583
0.00251448
0.00247359
0.00243318
0.00239329
0.00235394
0.0023151
0.00227678
0.00223899
0.00220177
0.00216519
0.00212927
0.00209407
0.00205962
0.00202592
0.00199301
0.00196088
0.00192954
0.00189899
0.00186923
0.00184024
0.00181201
0.00178453
0.00175779
0.00173176
0.00170642
0.00168175
0.00165773
0.00163433
0.00161152
0.00158929
0.0015676
0.00154644
0.00152577
0.00150558
0.00148584
0.00146653
0.00144763
0.00142913
0.00141101
0.00139325
0.00137584
0.00135878
0.00134205
0.00132564
0.00130956
0.00129379
0.00127833
0.00126318
0.00124834
0.00123381
0.00121958
0.00120566
0.00119205
0.00117868
0.00116558
0.00115275
0.0011402
0.00112793
0.00111597
0.00110433
0.00109324
0.00108417
0.000209022
0.000359286
0.000597612
0.000768534
0.000896256
0.00100412
0.00110434
0.0012022
0.00129953
0.00139662
0.00149321
0.00158893
0.00168344
0.00177652
0.00186799
0.00195778
0.00204582
0.00213211
0.00221667
0.00229952
0.00238071
0.00246032
0.00253841
0.00261507
0.00269036
0.00276437
0.00283717
0.00290885
0.00297948
0.00304913
0.00311787
0.00318575
0.00325285
0.00331922
0.00338491
0.00344998
0.00351446
0.00357842
0.00364187
0.00370486
0.00376742
0.00382954
0.00389125
0.00395253
0.00401338
0.00407375
0.00413349
0.00419274
0.00425158
0.00431
0.0043679
0.00442518
0.00448165
0.00453713
0.00459141
0.00464423
0.00469533
0.00474445
0.00479129
0.00483557
0.00487703
0.00491539
0.00495041
0.00498188
0.00500962
0.00503348
0.00505336
0.00506917
0.00508091
0.00508859
0.00509225
0.00509201
0.00508796
0.00508027
0.0050691
0.00505466
0.00503715
0.00501679
0.0049938
0.00496843
0.0049409
0.00491149
0.00488068
0.00484879
0.00481606
0.0047827
0.00474888
0.00471476
0.00468044
0.00464603
0.00461159
0.00457717
0.00454279
0.00450845
0.00447415
0.00443985
0.00440551
0.00437108
0.00433649
0.00430168
0.00426658
0.00423112
0.00419521
0.00415879
0.00412179
0.00408415
0.00404581
0.00400672
0.00396684
0.00392594
0.00388417
0.00384173
0.00379871
0.00375513
0.00371101
0.00366639
0.00362132
0.00357583
0.00352992
0.00348358
0.00343678
0.00338946
0.00334191
0.00329408
0.00324597
0.00319756
0.00314897
0.00310027
0.00305148
0.00300264
0.00295385
0.00290516
0.00285663
0.00280836
0.0027604
0.00271284
0.00266576
0.00261922
0.0025733
0.00252806
0.00248354
0.00243978
0.00239681
0.00235463
0.00231324
0.00227265
0.00223289
0.00219399
0.00215601
0.00211895
0.00208286
0.00204774
0.0020136
0.00198045
0.00194829
0.0019171
0.00188688
0.00185762
0.00182929
0.00180187
0.00177534
0.00174967
0.00172483
0.00170078
0.0016775
0.00165495
0.0016331
0.0016119
0.00159132
0.00157133
0.00155189
0.00153297
0.00151454
0.00149656
0.00147901
0.00146186
0.00144508
0.00142866
0.00141257
0.00139681
0.00138134
0.00136616
0.00135127
0.00133665
0.00132229
0.00130819
0.00129435
0.00128075
0.00126741
0.0012543
0.00124142
0.00122874
0.00121627
0.00120403
0.00119202
0.00118026
0.00116877
0.00115757
0.00114689
0.00113825
0.000219746
0.000375632
0.000628426
0.00081939
0.000963741
0.00108398
0.00119347
0.00129859
0.00140191
0.00150423
0.00160556
0.0017057
0.0018044
0.00190146
0.00199674
0.00209014
0.00218163
0.00227117
0.0023588
0.00244454
0.00252844
0.00261056
0.00269097
0.00276974
0.00284695
0.00292267
0.00299698
0.00306995
0.00314166
0.00321218
0.00328157
0.00334991
0.00341725
0.00348367
0.00354922
0.00361399
0.00367803
0.00374142
0.00380423
0.00386652
0.00392835
0.0039898
0.00405089
0.00411169
0.00417222
0.00423248
0.00429247
0.00435237
0.00441227
0.00447218
0.00453202
0.0045917
0.00465106
0.00470992
0.00476805
0.0048252
0.00488109
0.00493539
0.0049878
0.00503798
0.0050856
0.00513033
0.00517186
0.00520992
0.00524426
0.00527468
0.00530099
0.00532309
0.00534089
0.00535437
0.00536355
0.0053685
0.0053693
0.0053661
0.00535905
0.00534834
0.00533418
0.00531678
0.00529638
0.00527319
0.00524745
0.00521941
0.00518954
0.00515815
0.00512551
0.00509182
0.00505727
0.005022
0.00498615
0.00494981
0.00491306
0.00487595
0.00483852
0.00480078
0.00476272
0.00472434
0.00468561
0.00464649
0.00460692
0.00456687
0.00452627
0.00448507
0.0044432
0.00440062
0.00435726
0.00431309
0.00426805
0.00422211
0.0041752
0.00412724
0.00407846
0.00402901
0.00397894
0.0039283
0.00387703
0.00382522
0.00377299
0.00372033
0.00366728
0.00361383
0.00356
0.0035058
0.00345137
0.00339675
0.00334195
0.003287
0.003232
0.00317701
0.00312209
0.00306729
0.00301271
0.00295841
0.00290447
0.00285098
0.00279802
0.00274566
0.002694
0.0026431
0.00259304
0.00254388
0.00249567
0.00244846
0.00240227
0.00235712
0.00231301
0.00226995
0.00222797
0.00218709
0.00214735
0.00210875
0.00207133
0.0020351
0.00200005
0.00196618
0.0019335
0.00190198
0.00187162
0.00184239
0.00181426
0.00178721
0.0017612
0.0017362
0.00171217
0.00168907
0.00166685
0.00164547
0.00162489
0.00160505
0.00158592
0.00156744
0.00154957
0.00153226
0.00151547
0.00149917
0.00148331
0.00146785
0.00145277
0.00143803
0.0014236
0.00140946
0.0013956
0.00138198
0.00136861
0.00135545
0.00134251
0.00132977
0.00131722
0.00130486
0.00129267
0.00128065
0.00126875
0.001257
0.00124542
0.001234
0.00122278
0.00121175
0.00120094
0.00119039
0.00118032
0.00117223
4.50575e-05
0.000327533
0.000643734
0.000860619
0.00102051
0.00115175
0.00126925
0.00138036
0.00148834
0.00159446
0.00169903
0.00180203
0.0019033
0.0020027
0.00210011
0.00219546
0.00228871
0.00237986
0.00246892
0.00255592
0.00264093
0.00272399
0.00280518
0.00288457
0.00296223
0.00303823
0.00311266
0.00318558
0.00325707
0.00332719
0.00339602
0.00346362
0.00353007
0.00359544
0.0036598
0.00372325
0.00378586
0.00384774
0.00390898
0.00396969
0.00402996
0.0040899
0.00414962
0.00420919
0.00426871
0.00432823
0.00438792
0.004448
0.00450854
0.00456959
0.0046311
0.00469301
0.00475516
0.00481739
0.00487947
0.00494114
0.00500208
0.00506194
0.00512037
0.00517699
0.00523139
0.00528318
0.00533197
0.00537742
0.0054192
0.00545704
0.00549068
0.00551994
0.00554468
0.00556484
0.00558039
0.00559136
0.00559781
0.00559984
0.00559762
0.00559132
0.00558113
0.00556727
0.00554997
0.00552946
0.00550595
0.0054797
0.00545113
0.00542058
0.00538833
0.00535461
0.00531959
0.00528344
0.00524629
0.00520825
0.00516941
0.00512983
0.00508956
0.00504863
0.00500704
0.0049648
0.00492189
0.00487829
0.00483397
0.0047889
0.00474303
0.00469632
0.00464873
0.00460021
0.00455073
0.00450025
0.00444875
0.00439619
0.00434248
0.00428777
0.00423225
0.00417603
0.00411916
0.00406169
0.00400362
0.00394503
0.00388599
0.00382654
0.00376671
0.00370654
0.00364606
0.00358532
0.00352441
0.00346339
0.00340231
0.00334122
0.0032802
0.00321933
0.00315869
0.00309835
0.00303839
0.0029789
0.00291997
0.00286169
0.00280413
0.00274739
0.00269155
0.00263668
0.00258287
0.00253016
0.00247863
0.00242831
0.00237923
0.00233142
0.00228489
0.00223965
0.00219571
0.00215311
0.00211185
0.00207196
0.00203344
0.00199631
0.00196056
0.0019262
0.0018932
0.00186156
0.00183125
0.00180224
0.00177451
0.00174801
0.00172272
0.00169858
0.00167555
0.00165358
0.00163262
0.00161261
0.0015935
0.00157523
0.00155775
0.00154099
0.0015249
0.00150943
0.00149452
0.00148012
0.00146618
0.00145265
0.0014395
0.00142668
0.00141416
0.0014019
0.00138987
0.00137806
0.00136644
0.00135499
0.0013437
0.00133254
0.00132152
0.0013106
0.00129976
0.001289
0.0012783
0.00126769
0.00125718
0.00124679
0.00123653
0.00122641
0.00121645
0.0012067
0.00119738
0.00118994
4.45337e-05
0.000321837
0.000659012
0.000894373
0.00106742
0.00120817
0.00133244
0.00144832
0.00155971
0.0016683
0.00177471
0.00187909
0.00198141
0.0020816
0.00217958
0.00227531
0.00236877
0.00245996
0.00254892
0.0026357
0.00272034
0.00280291
0.0028835
0.00296216
0.00303898
0.00311404
0.0031874
0.00325914
0.00332933
0.00339803
0.00346533
0.00353128
0.00359596
0.00365946
0.00372185
0.00378324
0.00384372
0.00390342
0.00396245
0.00402096
0.00407908
0.00413695
0.00419473
0.00425255
0.00431055
0.0043689
0.00442792
0.00448782
0.0045487
0.00461063
0.00467361
0.00473758
0.00480243
0.004868
0.00493407
0.00500038
0.00506657
0.00513228
0.00519709
0.00526057
0.00532227
0.00538169
0.00543837
0.00549187
0.0055418
0.00558781
0.00562955
0.00566674
0.00569919
0.00572678
0.00574944
0.00576716
0.00577995
0.00578791
0.00579116
0.00578987
0.00578423
0.00577444
0.00576073
0.00574333
0.00572248
0.00569839
0.00567147
0.00564209
0.00561052
0.00557702
0.00554178
0.00550498
0.00546676
0.00542724
0.00538652
0.00534468
0.00530178
0.00525787
0.00521296
0.00516707
0.0051202
0.00507236
0.00502352
0.00497366
0.00492276
0.0048708
0.00481774
0.00476356
0.00470823
0.00465173
0.00459405
0.00453515
0.00447505
0.00441397
0.00435206
0.00428941
0.00422609
0.00416215
0.00409763
0.0040326
0.00396712
0.00390124
0.00383503
0.00376853
0.00370179
0.00363489
0.0035679
0.00350089
0.00343394
0.00336711
0.0033005
0.00323418
0.00316825
0.00310278
0.00303788
0.00297363
0.00291012
0.00284745
0.0027857
0.00272497
0.00266534
0.00260688
0.00254967
0.00249377
0.00243924
0.00238614
0.00233448
0.0022843
0.00223561
0.00218843
0.00214277
0.00209865
0.00205608
0.00201508
0.00197565
0.00193779
0.00190151
0.00186679
0.00183362
0.00180197
0.00177184
0.00174317
0.00171594
0.0016901
0.00166562
0.00164243
0.0016205
0.00159975
0.00158014
0.0015616
0.00154406
0.00152746
0.00151173
0.0014968
0.00148261
0.0014691
0.00145619
0.00144382
0.00143195
0.0014205
0.00140942
0.00139868
0.00138822
0.00137799
0.00136798
0.00135814
0.00134844
0.00133887
0.0013294
0.00132
0.00131065
0.00130132
0.00129198
0.00128263
0.0012733
0.00126398
0.00125471
0.00124549
0.00123633
0.00122726
0.0012183
0.00120947
0.00120102
0.0011943
4.50996e-05
0.00032432
0.000672749
0.000921294
0.00110513
0.00125387
0.00138365
0.0015031
0.00161666
0.00172642
0.00183329
0.00193764
0.00203954
0.00213902
0.00223605
0.00233065
0.00242281
0.00251257
0.00259999
0.00268512
0.00276803
0.00284881
0.00292753
0.00300427
0.00307912
0.00315215
0.00322344
0.00329306
0.00336108
0.00342756
0.00349258
0.0035562
0.00361849
0.00367955
0.00373944
0.00379828
0.00385618
0.00391327
0.0039697
0.00402561
0.0040812
0.00413663
0.0041921
0.0042478
0.0043039
0.00436084
0.00441893
0.00447839
0.00453936
0.00460194
0.00466617
0.00473203
0.00479943
0.00486824
0.00493826
0.00500922
0.00508076
0.00515244
0.00522384
0.00529447
0.00536385
0.00543135
0.00549639
0.00555848
0.00561713
0.00567189
0.00572234
0.00576813
0.00580899
0.00584472
0.00587519
0.00590034
0.00592015
0.00593467
0.00594401
0.00594832
0.00594776
0.00594255
0.00593291
0.00591906
0.00590126
0.00587973
0.00585482
0.00582693
0.00579636
0.00576337
0.00572818
0.00569098
0.00565193
0.00561117
0.00556882
0.00552495
0.00547966
0.005433
0.00538501
0.00533572
0.00528515
0.00523331
0.0051802
0.00512583
0.00507018
0.00501324
0.004955
0.00489544
0.00483456
0.00477236
0.00470881
0.00464391
0.00457782
0.00451074
0.00444281
0.0043741
0.0043047
0.00423467
0.00416407
0.00409296
0.00402143
0.00394953
0.00387734
0.00380492
0.00373234
0.00365968
0.00358704
0.00351448
0.00344209
0.00336997
0.0032982
0.00322687
0.00315609
0.00308594
0.00301653
0.00294795
0.00288029
0.00281365
0.00274812
0.00268379
0.00262074
0.00255906
0.00249882
0.00244007
0.00238288
0.0023273
0.00227335
0.00222108
0.00217049
0.0021216
0.00207443
0.00202899
0.00198529
0.00194334
0.00190315
0.0018647
0.001828
0.00179303
0.00175977
0.00172821
0.00169831
0.00167004
0.00164335
0.00161821
0.00159456
0.00157236
0.00155153
0.00153203
0.00151377
0.0014967
0.00148074
0.00146582
0.00145187
0.00143879
0.00142653
0.001415
0.00140414
0.00139386
0.00138409
0.00137478
0.00136586
0.00135727
0.00134895
0.00134086
0.00133295
0.00132519
0.00131753
0.00130994
0.0013024
0.00129486
0.0012873
0.00127965
0.00127192
0.00126412
0.00125627
0.00124838
0.00124046
0.00123252
0.00122459
0.00121668
0.00120881
0.00120102
0.00119353
0.00118759
4.56535e-05
0.000327589
0.000683357
0.00094169
0.00113421
0.00128939
0.00142335
0.00154512
0.00165956
0.00176917
0.00187513
0.00197799
0.00207801
0.00217528
0.00226987
0.00236183
0.00245123
0.00253813
0.0026226
0.00270475
0.00278466
0.00286242
0.00293814
0.00301189
0.00308378
0.00315388
0.00322227
0.00328902
0.00335421
0.00341788
0.0034801
0.00354094
0.00360046
0.00365874
0.00371585
0.0037719
0.003827
0.0038813
0.00393493
0.00398809
0.00404096
0.00409377
0.00414674
0.00420011
0.00425414
0.00430953
0.00436653
0.00442535
0.0044862
0.00454922
0.00461447
0.00468198
0.00475171
0.00482356
0.00489734
0.00497285
0.00504966
0.00512732
0.00520535
0.00528323
0.00536037
0.00543612
0.00550982
0.00558088
0.0056487
0.00571273
0.00577245
0.00582744
0.00587733
0.00592184
0.00596077
0.00599399
0.00602144
0.00604314
0.00605917
0.00606963
0.0060747
0.00607457
0.00606947
0.00605963
0.0060453
0.00602673
0.00600421
0.00597817
0.00594892
0.00591676
0.00588193
0.00584462
0.00580503
0.0057633
0.00571958
0.00567395
0.00562654
0.00557739
0.00552659
0.00547417
0.00542017
0.00536462
0.00530754
0.00524894
0.00518883
0.00512722
0.0050641
0.00499949
0.00493338
0.00486579
0.00479671
0.00472622
0.00465455
0.00458186
0.00450828
0.00443391
0.00435882
0.00428309
0.00420681
0.00413003
0.00405286
0.00397536
0.00389761
0.00381971
0.00374173
0.00366377
0.00358592
0.00350826
0.00343091
0.00335395
0.00327749
0.00320162
0.00312644
0.00305207
0.0029786
0.00290612
0.00283474
0.00276456
0.00269566
0.00262814
0.00256207
0.00249755
0.00243462
0.00237338
0.00231385
0.00225611
0.00220017
0.00214608
0.00209384
0.00204349
0.00199502
0.00194846
0.0019038
0.00186106
0.00182023
0.00178131
0.00174429
0.00170916
0.00167588
0.00164445
0.00161482
0.00158695
0.00156082
0.00153636
0.00151353
0.00149227
0.00147251
0.00145419
0.00143724
0.00142159
0.00140715
0.00139385
0.0013816
0.00137033
0.00135994
0.00135035
0.00134148
0.00133326
0.00132559
0.0013184
0.00131163
0.00130519
0.00129904
0.0012931
0.00128733
0.00128168
0.0012761
0.00127055
0.001265
0.00125938
0.00125365
0.00124774
0.0012417
0.00123554
0.00122927
0.00122289
0.00121642
0.00120986
0.00120325
0.00119659
0.0011899
0.00118322
0.00117677
0.00117167
4.60507e-05
0.000329863
0.000690353
0.00095589
0.0011551
0.00131509
0.0014518
0.00157451
0.00168847
0.0017965
0.00190008
0.00199998
0.00209658
0.00219012
0.00228074
0.00236859
0.00245376
0.00253639
0.00261659
0.00269449
0.0027702
0.00284385
0.00291555
0.0029854
0.00305351
0.00311996
0.00318482
0.00324817
0.00331007
0.00337058
0.00342973
0.00348759
0.00354419
0.00359961
0.0036539
0.00370717
0.0037595
0.00381104
0.00386194
0.00391238
0.00396257
0.00401277
0.0040632
0.00411414
0.00416622
0.00422005
0.00427587