/*--------------------------------*- C++ -*----------------------------------*\
  =========                 |
  \\      /  F ield         | OpenFOAM: The Open Source CFD Toolbox
   \\    /   O peration     | Website:  https://openfoam.org
    \\  /    A nd           | Version:  7
     \\/     M anipulation  |
\*---------------------------------------------------------------------------*/
FoamFile
{
    version     2.0;
    format      ascii;
    class       volScalarField;
    location    "400";
    object      p;
}
// * * * * * * * * * * * * * * * * * * * * * * * * * * * * * * * * * * * * * //

dimensions      [0 2 -2 0 0 0 0];

internalField   nonuniform List<scalar> 
16900
(
-23.402
-23.4101
-23.4244
-23.4425
-23.4623
-23.485
-23.5144
-23.5471
-23.5828
-23.6261
-23.6743
-23.7242
-23.7752
-23.8267
-23.8781
-23.929
-23.9791
-24.0279
-24.0753
-24.121
-24.1648
-24.2065
-24.2457
-24.2823
-24.3159
-24.3463
-24.3731
-24.3959
-24.4144
-24.4279
-24.4362
-24.4385
-24.4343
-24.423
-24.4039
-24.3763
-24.3396
-24.2929
-24.2356
-24.1669
-24.0862
-23.9929
-23.8864
-23.7661
-23.6319
-23.4834
-23.3205
-23.1429
-22.9507
-22.7442
-22.524
-22.291
-22.0461
-21.7904
-21.5251
-21.2517
-20.9718
-20.687
-20.399
-20.1097
-19.8207
-19.5339
-19.251
-18.9735
-18.7031
-18.441
-18.1885
-17.9467
-17.7165
-17.4985
-17.2933
-17.1013
-16.9227
-16.7574
-16.6055
-16.4666
-16.3405
-16.2268
-16.1251
-16.0349
-15.9553
-15.8858
-15.8256
-15.7739
-15.7302
-15.6937
-15.6636
-15.6393
-15.62
-15.6047
-15.5926
-15.5829
-15.5744
-15.5662
-15.5572
-15.5462
-15.532
-15.5135
-15.4893
-15.4581
-15.4189
-15.3702
-15.3109
-15.2398
-15.1557
-15.0576
-14.9444
-14.8153
-14.6697
-14.5069
-14.3261
-14.1269
-13.9088
-13.6718
-13.4162
-13.1421
-12.85
-12.5403
-12.2137
-11.871
-11.5132
-11.1412
-10.7563
-10.3597
-9.95283
-9.5371
-9.11406
-8.68535
-8.25257
-7.8174
-7.38158
-6.94678
-6.51468
-6.087
-5.66532
-5.25122
-4.84633
-4.45192
-4.06959
-3.70036
-3.34501
-3.00633
-2.68512
-2.37736
-2.08433
-1.81063
-1.55659
-1.32205
-1.10684
-0.910768
-0.733554
-0.574841
-0.434178
-0.311014
-0.204711
-0.114539
-0.0396944
0.0207034
0.0675894
0.101957
0.124835
0.137287
0.140394
0.135248
0.122938
0.104542
0.0811122
0.0536728
0.0232004
-0.00937365
-0.0431811
-0.0774138
-0.111338
-0.144289
-0.175683
-0.205012
-0.231847
-0.255835
-0.276697
-0.294226
-0.308281
-0.318784
-0.32571
-0.329087
-0.328985
-0.325515
-0.318817
-0.309063
-0.296447
-0.281183
-0.263442
-0.243379
-0.221197
-0.19714
-0.17144
-0.144317
-0.115943
-0.0864811
-0.0559134
-0.0257223
-23.3928
-23.4014
-23.4099
-23.4197
-23.432
-23.4501
-23.4735
-23.5052
-23.5478
-23.5955
-23.6434
-23.6925
-23.7427
-23.7934
-23.844
-23.8943
-23.9437
-23.9919
-24.0388
-24.0841
-24.1275
-24.1688
-24.2078
-24.2442
-24.2778
-24.3082
-24.3352
-24.3584
-24.3773
-24.3915
-24.4006
-24.404
-24.4011
-24.3914
-24.3741
-24.3486
-24.3142
-24.2702
-24.2159
-24.1505
-24.0735
-23.9841
-23.8818
-23.7661
-23.6367
-23.4933
-23.3356
-23.1632
-22.9763
-22.7752
-22.5604
-22.3326
-22.0928
-21.8419
-21.5812
-21.312
-21.0359
-20.7543
-20.469
-20.1817
-19.8942
-19.6081
-19.3252
-19.047
-18.7751
-18.5109
-18.2557
-18.0104
-17.7761
-17.5536
-17.3434
-17.1459
-16.9614
-16.7901
-16.632
-16.4867
-16.3542
-16.2342
-16.1263
-16.0301
-15.9449
-15.87
-15.8047
-15.7484
-15.7004
-15.6602
-15.6268
-15.5997
-15.5781
-15.561
-15.5477
-15.5371
-15.5284
-15.5203
-15.5119
-15.5019
-15.4892
-15.4725
-15.4505
-15.4219
-15.3855
-15.34
-15.2842
-15.2168
-15.1367
-15.0427
-14.9339
-14.8095
-14.6687
-14.5109
-14.3351
-14.1407
-13.9274
-13.6954
-13.4447
-13.1755
-12.8883
-12.5834
-12.2616
-11.9237
-11.5704
-11.2029
-10.8223
-10.4298
-10.027
-9.61501
-9.19554
-8.77018
-8.34051
-7.90817
-7.47493
-7.04244
-6.61229
-6.1863
-5.76605
-5.35307
-4.9492
-4.55535
-4.17331
-3.80398
-3.44666
-3.10444
-2.77986
-2.4713
-2.17945
-1.90634
-1.65225
-1.41717
-1.20099
-1.00358
-0.824723
-0.664087
-0.521256
-0.395714
-0.286848
-0.193959
-0.116266
-0.0529154
-0.00299196
0.0344732
0.0604907
0.0761043
0.0823776
0.0803858
0.0712024
0.0558906
0.0354913
0.0110144
-0.0165716
-0.0463473
-0.0774501
-0.109081
-0.14051
-0.171079
-0.200207
-0.227387
-0.252192
-0.27427
-0.29334
-0.309195
-0.321691
-0.330746
-0.336334
-0.338477
-0.337243
-0.332734
-0.325088
-0.314464
-0.301044
-0.285026
-0.266622
-0.245997
-0.223324
-0.198838
-0.172766
-0.145317
-0.116666
-0.0869689
-0.0561687
-0.0261058
-23.3778
-23.3929
-23.4036
-23.4133
-23.4255
-23.4431
-23.4671
-23.4971
-23.5347
-23.5776
-23.6228
-23.6698
-23.7181
-23.7671
-23.8161
-23.8649
-23.9129
-23.9599
-24.0057
-24.0499
-24.0924
-24.133
-24.1713
-24.2072
-24.2404
-24.2707
-24.2976
-24.3209
-24.3402
-24.3549
-24.3648
-24.3692
-24.3676
-24.3593
-24.3439
-24.3205
-24.2886
-24.2474
-24.1962
-24.1343
-24.061
-23.9758
-23.8779
-23.767
-23.6426
-23.5045
-23.3522
-23.1854
-23.004
-22.8084
-22.5991
-22.3768
-22.1421
-21.8962
-21.6401
-21.3752
-21.1027
-20.8244
-20.5417
-20.2563
-19.97
-19.6844
-19.4013
-19.1221
-18.8484
-18.5817
-18.3232
-18.074
-17.8352
-17.6075
-17.3916
-17.1881
-16.9973
-16.8194
-16.6545
-16.5024
-16.3631
-16.2364
-16.1221
-16.0198
-15.9289
-15.8486
-15.7784
-15.7176
-15.6658
-15.6222
-15.5862
-15.557
-15.5337
-15.5157
-15.5019
-15.4915
-15.4833
-15.4763
-15.4694
-15.4613
-15.4509
-15.4369
-15.4179
-15.3927
-15.3599
-15.3183
-15.2666
-15.2036
-15.128
-15.0388
-14.9349
-14.8156
-14.6801
-14.5276
-14.3569
-14.1675
-13.9593
-13.7323
-13.4866
-13.2225
-12.9401
-12.6401
-12.323
-11.9896
-11.6408
-11.2776
-10.9012
-10.5127
-10.1137
-9.70545
-9.28942
-8.86737
-8.44085
-8.01138
-7.58087
-7.15103
-6.72324
-6.29962
-5.8817
-5.47078
-5.06919
-4.67693
-4.2955
-3.9271
-3.57125
-3.23003
-2.90489
-2.59448
-2.30004
-2.02378
-1.76625
-1.52761
-1.30784
-1.10682
-0.924335
-0.760072
-0.613617
-0.484457
-0.371987
-0.275512
-0.194258
-0.127379
-0.0739674
-0.0330606
-0.00365535
0.015286
0.0248204
0.0260177
0.0199457
0.00766335
-0.00979343
-0.0314181
-0.0562459
-0.0833597
-0.1119
-0.141069
-0.170139
-0.198451
-0.225427
-0.250558
-0.273419
-0.293654
-0.310985
-0.3252
-0.336156
-0.343768
-0.348007
-0.348894
-0.346492
-0.340902
-0.332256
-0.320714
-0.306451
-0.28966
-0.270541
-0.24927
-0.226028
-0.20104
-0.174529
-0.146703
-0.117731
-0.087786
-0.0567534
-0.0271586
-23.361
-23.3844
-23.3998
-23.4118
-23.4254
-23.4437
-23.4681
-23.4982
-23.534
-23.5742
-23.6171
-23.6621
-23.7085
-23.7555
-23.8029
-23.85
-23.8965
-23.9422
-23.9868
-24.03
-24.0717
-24.1115
-24.1493
-24.1848
-24.2178
-24.248
-24.275
-24.2986
-24.3183
-24.3338
-24.3445
-24.35
-24.3498
-24.3431
-24.3295
-24.3083
-24.2787
-24.2401
-24.1917
-24.1328
-24.0629
-23.9811
-23.8869
-23.7798
-23.6593
-23.5251
-23.3767
-23.2136
-23.0359
-22.8439
-22.6379
-22.4187
-22.1869
-21.9435
-21.6895
-21.4262
-21.1551
-20.8775
-20.595
-20.3094
-20.0222
-19.7353
-19.4502
-19.1686
-18.8921
-18.6221
-18.3598
-18.1066
-17.8635
-17.6312
-17.4106
-17.2023
-17.0066
-16.8238
-16.6541
-16.4975
-16.3538
-16.223
-16.1048
-15.9991
-15.9051
-15.8222
-15.7498
-15.6873
-15.6341
-15.5896
-15.5531
-15.5238
-15.501
-15.4837
-15.4711
-15.4621
-15.4557
-15.4509
-15.4464
-15.441
-15.4335
-15.4226
-15.4069
-15.3852
-15.356
-15.3182
-15.2703
-15.2113
-15.1397
-15.0545
-14.9548
-14.8397
-14.7086
-14.5599
-14.3929
-14.2071
-14.0026
-13.7792
-13.537
-13.2762
-12.9972
-12.7003
-12.3862
-12.0557
-11.7097
-11.3491
-10.975
-10.5889
-10.192
-9.78565
-9.37132
-8.95091
-8.52593
-8.09769
-7.66839
-7.23987
-6.813
-6.39035
-5.97339
-5.56241
-5.1601
-4.76747
-4.38553
-4.01614
-3.65953
-3.31737
-2.99068
-2.67896
-2.38333
-2.10549
-1.84612
-1.60548
-1.38362
-1.18047
-0.995836
-0.829404
-0.680769
-0.549424
-0.434766
-0.336105
-0.252671
-0.183622
-0.128054
-0.085007
-0.0534812
-0.032443
-0.0208367
-0.0175966
-0.0216554
-0.0319578
-0.0474678
-0.0671823
-0.0901363
-0.115416
-0.142161
-0.169577
-0.196935
-0.223581
-0.248935
-0.272494
-0.293829
-0.312591
-0.328501
-0.34135
-0.350995
-0.357353
-0.360397
-0.360147
-0.356668
-0.350061
-0.340456
-0.328012
-0.312907
-0.29533
-0.275467
-0.253498
-0.22963
-0.204089
-0.177097
-0.148855
-0.119538
-0.089336
-0.0580714
-0.0290964
-23.3473
-23.3805
-23.4009
-23.4161
-23.4319
-23.4515
-23.4763
-23.5063
-23.5412
-23.5798
-23.6212
-23.6645
-23.7091
-23.7545
-23.8002
-23.8458
-23.891
-23.9355
-23.979
-24.0213
-24.0623
-24.1015
-24.1389
-24.1742
-24.2071
-24.2374
-24.2647
-24.2887
-24.3091
-24.3254
-24.3372
-24.344
-24.3451
-24.3402
-24.3284
-24.3092
-24.2818
-24.2456
-24.1997
-24.1436
-24.0764
-23.9974
-23.9061
-23.8019
-23.6843
-23.5529
-23.407
-23.2461
-23.0705
-22.8803
-22.6759
-22.4579
-22.227
-21.984
-21.7301
-21.4665
-21.1945
-20.9157
-20.6316
-20.3438
-20.0542
-19.7644
-19.4762
-19.1911
-18.9109
-18.6369
-18.3707
-18.1133
-17.866
-17.6296
-17.405
-17.1928
-16.9933
-16.8071
-16.6342
-16.4747
-16.3285
-16.1955
-16.0756
-15.9684
-15.8735
-15.7901
-15.7176
-15.6554
-15.6029
-15.5594
-15.5243
-15.4968
-15.476
-15.461
-15.4509
-15.4447
-15.4413
-15.4396
-15.4384
-15.4364
-15.4323
-15.4249
-15.4129
-15.3948
-15.3693
-15.3351
-15.2909
-15.2354
-15.1674
-15.0857
-14.9895
-14.8781
-14.7502
-14.6043
-14.4397
-14.2565
-14.0545
-13.8336
-13.5938
-13.3352
-13.0582
-12.7633
-12.451
-12.1222
-11.7778
-11.4185
-11.0457
-10.6606
-10.2648
-9.85926
-9.44552
-9.02578
-8.60149
-8.17355
-7.74457
-7.31665
-6.88965
-6.46601
-6.04823
-5.6367
-5.2334
-4.83962
-4.45653
-4.08567
-3.72774
-3.38418
-3.05592
-2.74311
-2.44668
-2.16786
-1.90732
-1.66537
-1.44213
-1.23754
-1.05142
-0.883494
-0.733351
-0.600493
-0.484321
-0.384151
-0.299214
-0.228671
-0.171619
-0.127102
-0.0941209
-0.0716431
-0.0586127
-0.0539651
-0.056632
-0.0655581
-0.0797065
-0.0980734
-0.119693
-0.14365
-0.169086
-0.195204
-0.221276
-0.24665
-0.270745
-0.29306
-0.313169
-0.330725
-0.34545
-0.35714
-0.365654
-0.370912
-0.372891
-0.371613
-0.367145
-0.359589
-0.349079
-0.335773
-0.319855
-0.301512
-0.280905
-0.258222
-0.233712
-0.207604
-0.180117
-0.151452
-0.121787
-0.0913421
-0.0598426
-0.0316863
-23.342
-23.3823
-23.4078
-23.4266
-23.4444
-23.4651
-23.4903
-23.5201
-23.5541
-23.5915
-23.6314
-23.6732
-23.7162
-23.7601
-23.8044
-23.8487
-23.8926
-23.936
-23.9786
-24.0202
-24.0605
-24.0994
-24.1365
-24.1717
-24.2048
-24.2353
-24.2631
-24.2878
-24.309
-24.3263
-24.3393
-24.3474
-24.3501
-24.3469
-24.337
-24.3198
-24.2945
-24.2606
-24.2171
-24.1633
-24.0986
-24.0221
-23.9331
-23.8312
-23.7158
-23.5863
-23.4418
-23.2822
-23.1075
-22.918
-22.7138
-22.4957
-22.2642
-22.0203
-21.765
-21.4996
-21.2254
-20.9439
-20.6567
-20.3656
-20.0723
-19.7786
-19.4862
-19.1969
-18.9124
-18.6341
-18.3635
-18.1019
-17.8505
-17.6103
-17.382
-17.1665
-16.9641
-16.7752
-16.6
-16.4387
-16.2912
-16.1573
-16.0368
-15.9296
-15.835
-15.7525
-15.6813
-15.6208
-15.5704
-15.5294
-15.497
-15.4724
-15.4549
-15.4433
-15.4369
-15.4344
-15.4349
-15.4371
-15.4398
-15.4418
-15.4418
-15.4384
-15.4302
-15.416
-15.3943
-15.3638
-15.3232
-15.2712
-15.2065
-15.1281
-15.0352
-14.9269
-14.8015
-14.6576
-14.495
-14.3139
-14.1138
-13.8946
-13.6565
-13.3994
-13.1237
-12.83
-12.5189
-12.1911
-11.8475
-11.4889
-11.1165
-10.7319
-10.3366
-9.93128
-9.51751
-9.098
-8.67408
-8.24595
-7.81615
-7.38739
-6.95996
-6.53569
-6.1168
-5.70429
-5.29985
-4.9048
-4.52044
-4.14813
-3.78883
-3.44384
-3.11404
-2.79998
-2.50251
-2.22262
-1.96091
-1.71772
-1.49319
-1.28729
-1.09986
-0.930625
-0.779189
-0.645055
-0.527627
-0.426223
-0.340074
-0.268343
-0.210127
-0.164469
-0.130368
-0.106792
-0.0926806
-0.0869686
-0.0885839
-0.0964691
-0.109583
-0.12692
-0.147509
-0.170435
-0.194834
-0.219911
-0.244935
-0.269253
-0.292285
-0.313533
-0.332571
-0.349055
-0.362711
-0.373338
-0.3808
-0.38502
-0.38598
-0.383705
-0.378268
-0.369773
-0.358357
-0.344181
-0.327437
-0.308298
-0.2869
-0.263462
-0.238277
-0.211568
-0.183555
-0.154439
-0.124405
-0.0937084
-0.0619477
-0.0348067
-23.3449
-23.391
-23.4195
-23.4413
-23.4607
-23.4825
-23.508
-23.5375
-23.5707
-23.6069
-23.6456
-23.686
-23.7277
-23.7702
-23.8132
-23.8563
-23.8992
-23.9417
-23.9835
-24.0245
-24.0644
-24.103
-24.1401
-24.1755
-24.2088
-24.2398
-24.2682
-24.2937
-24.3159
-24.3344
-24.3486
-24.3583
-24.3626
-24.3611
-24.3531
-24.338
-24.3149
-24.2831
-24.2418
-24.1903
-24.1277
-24.0532
-23.9663
-23.8661
-23.7523
-23.6239
-23.4802
-23.321
-23.1464
-22.9565
-22.7516
-22.5323
-22.2992
-22.0532
-21.7953
-21.5269
-21.2493
-20.964
-20.6728
-20.3773
-20.0794
-19.7809
-19.4837
-19.1896
-18.9002
-18.6172
-18.342
-18.0762
-17.8207
-17.5768
-17.3453
-17.1268
-16.922
-16.7311
-16.5545
-16.3922
-16.2442
-16.1103
-15.9903
-15.8839
-15.7908
-15.7102
-15.6414
-15.5837
-15.5365
-15.4989
-15.4703
-15.4497
-15.4363
-15.4291
-15.4271
-15.4292
-15.4342
-15.441
-15.4483
-15.4548
-15.4591
-15.46
-15.4561
-15.4459
-15.4281
-15.4014
-15.3645
-15.3159
-15.2545
-15.1792
-15.0894
-14.9837
-14.8602
-14.7179
-14.557
-14.3775
-14.1789
-13.9611
-13.7241
-13.468
-13.1932
-12.9002
-12.5896
-12.2623
-11.9191
-11.5606
-11.1882
-10.8037
-10.4087
-10.0034
-9.58919
-9.16901
-8.74439
-8.31594
-7.8856
-7.45575
-7.02737
-6.60216
-6.18202
-5.76826
-5.36249
-4.96605
-4.58029
-4.20651
-3.8458
-3.49936
-3.1681
-2.85273
-2.55411
-2.27307
-2.01018
-1.76579
-1.54005
-1.33294
-1.14433
-0.973933
-0.821364
-0.68613
-0.567634
-0.465197
-0.378047
-0.305349
-0.246194
-0.199628
-0.164642
-0.140204
-0.125248
-0.118706
-0.1195
-0.126567
-0.138861
-0.155373
-0.175126
-0.1972
-0.220729
-0.244914
-0.269024
-0.292404
-0.314476
-0.33474
-0.352775
-0.36824
-0.380864
-0.390451
-0.396872
-0.400054
-0.399984
-0.396695
-0.390263
-0.380795
-0.368435
-0.353352
-0.335739
-0.31573
-0.293469
-0.269234
-0.243332
-0.215982
-0.187403
-0.157803
-0.127371
-0.0964128
-0.064347
-0.0384021
-23.3577
-23.4039
-23.4344
-23.4585
-23.4793
-23.5019
-23.5276
-23.5568
-23.5893
-23.6245
-23.662
-23.7013
-23.7417
-23.7831
-23.8249
-23.867
-23.909
-23.9508
-23.9921
-24.0327
-24.0723
-24.1109
-24.1481
-24.1837
-24.2175
-24.2492
-24.2784
-24.3048
-24.3281
-24.3479
-24.3636
-24.3748
-24.3809
-24.3813
-24.3752
-24.3621
-24.341
-24.3114
-24.2722
-24.2227
-24.162
-24.0894
-24.004
-23.9053
-23.7926
-23.6648
-23.5211
-23.3616
-23.1863
-22.9953
-22.7888
-22.5674
-22.3318
-22.0828
-21.8214
-21.5491
-21.2671
-20.9771
-20.6809
-20.3802
-20.077
-19.7731
-19.4704
-19.1709
-18.8763
-18.5883
-18.3084
-18.0382
-17.7788
-17.5313
-17.2968
-17.0758
-16.869
-16.6768
-16.4993
-16.3367
-16.189
-16.0559
-15.9372
-15.8325
-15.7416
-15.664
-15.5985
-15.5445
-15.5012
-15.468
-15.444
-15.4282
-15.4197
-15.4176
-15.4207
-15.4279
-15.4381
-15.4499
-15.4622
-15.4735
-15.4826
-15.4881
-15.4886
-15.4826
-15.4689
-15.446
-15.4127
-15.3674
-15.3091
-15.237
-15.15
-15.0465
-14.9244
-14.7835
-14.6241
-14.4458
-14.2484
-14.0316
-13.7954
-13.5399
-13.2656
-12.9729
-12.6626
-12.3355
-11.9926
-11.6342
-11.2615
-10.8766
-10.4809
-10.0754
-9.66092
-9.24003
-8.81438
-8.38505
-7.95383
-7.52272
-7.0931
-6.66666
-6.24511
-5.82994
-5.42269
-5.02476
-4.63752
-4.26224
-3.90008
-3.5522
-3.21954
-2.90289
-2.60309
-2.32091
-2.05689
-1.81136
-1.5845
-1.3763
-1.18662
-1.01519
-0.861633
-0.725449
-0.606046
-0.50274
-0.414762
-0.341272
-0.281359
-0.234065
-0.198377
-0.173259
-0.157638
-0.150441
-0.150582
-0.156995
-0.168624
-0.184453
-0.203502
-0.224845
-0.247609
-0.270995
-0.294267
-0.316772
-0.337929
-0.357243
-0.374294
-0.388744
-0.40033
-0.408859
-0.414209
-0.416315
-0.415171
-0.410816
-0.403332
-0.392831
-0.379466
-0.363417
-0.344856
-0.323866
-0.300659
-0.275577
-0.248903
-0.220854
-0.191657
-0.161522
-0.130648
-0.0993951
-0.0669677
-0.0423707
-23.376
-23.4174
-23.4496
-23.4763
-23.4987
-23.522
-23.5479
-23.5768
-23.6086
-23.643
-23.6794
-23.7176
-23.757
-23.7973
-23.8382
-23.8795
-23.9208
-23.962
-24.0029
-24.0433
-24.0829
-24.1216
-24.1591
-24.1952
-24.2296
-24.262
-24.2922
-24.3198
-24.3443
-24.3655
-24.3827
-24.3956
-24.4035
-24.4057
-24.4016
-24.3905
-24.3715
-24.3439
-24.3067
-24.2591
-24.2002
-24.1291
-24.045
-23.9474
-23.8353
-23.7075
-23.5633
-23.403
-23.2264
-23.0336
-22.8249
-22.6007
-22.3617
-22.1089
-21.8432
-21.5661
-21.279
-20.9836
-20.6817
-20.3751
-20.0659
-19.756
-19.4474
-19.1421
-18.8419
-18.5488
-18.2641
-17.9894
-17.7262
-17.4754
-17.2381
-17.0151
-16.8068
-16.6136
-16.4358
-16.2736
-16.1269
-15.9953
-15.8786
-15.7763
-15.6885
-15.6144
-15.553
-15.5035
-15.465
-15.4369
-15.4181
-15.4077
-15.4048
-15.4083
-15.417
-15.4299
-15.4455
-15.4628
-15.4804
-15.497
-15.5111
-15.5213
-15.5263
-15.5247
-15.515
-15.496
-15.4662
-15.4242
-15.369
-15.2998
-15.2155
-15.1134
-14.9925
-14.853
-14.6948
-14.5176
-14.3211
-14.1051
-13.8697
-13.6147
-13.3407
-13.0482
-12.7379
-12.4107
-12.0676
-11.7091
-11.3362
-10.9508
-10.5544
-10.148
-9.73283
-9.311
-8.88414
-8.45362
-8.02121
-7.58872
-7.1577
-6.72983
-6.30678
-5.89009
-5.4813
-5.08184
-4.69308
-4.31631
-3.95272
-3.60345
-3.26945
-2.95157
-2.65064
-2.36737
-2.10229
-1.85573
-1.62786
-1.41868
-1.22806
-1.05574
-0.901328
-0.764338
-0.644171
-0.540147
-0.451488
-0.377356
-0.316833
-0.268959
-0.232715
-0.207058
-0.190909
-0.183188
-0.182801
-0.188673
-0.199741
-0.214982
-0.233408
-0.254087
-0.276142
-0.298769
-0.32123
-0.342871
-0.363113
-0.381461
-0.397501
-0.410898
-0.421397
-0.428811
-0.433026
-0.433985
-0.431692
-0.426191
-0.417574
-0.405959
-0.391514
-0.374416
-0.354776
-0.332692
-0.308482
-0.282492
-0.254986
-0.22618
-0.196307
-0.16559
-0.134229
-0.102654
-0.0697984
-0.0466732
-23.396
-23.4345
-23.4664
-23.4946
-23.5182
-23.5421
-23.568
-23.5965
-23.6277
-23.6612
-23.6968
-23.734
-23.7724
-23.8119
-23.8521
-23.8927
-23.9335
-23.9744
-24.015
-24.0554
-24.0951
-24.1341
-24.172
-24.2087
-24.2439
-24.2773
-24.3085
-24.3373
-24.3632
-24.3858
-24.4047
-24.4193
-24.429
-24.4332
-24.4311
-24.4219
-24.405
-24.3793
-24.344
-24.2981
-24.2407
-24.171
-24.088
-23.9911
-23.8792
-23.7508
-23.6057
-23.4441
-23.2657
-23.0705
-22.8589
-22.6313
-22.3884
-22.131
-21.8605
-21.578
-21.2851
-20.9835
-20.6753
-20.3623
-20.0466
-19.7302
-19.4153
-19.1039
-18.7981
-18.4997
-18.2101
-17.9311
-17.6642
-17.4103
-17.1706
-16.9457
-16.7362
-16.5425
-16.3649
-16.2036
-16.0584
-15.929
-15.815
-15.7159
-15.6317
-15.5619
-15.5053
-15.4609
-15.4279
-15.4054
-15.3925
-15.3881
-15.3913
-15.4008
-15.4156
-15.4344
-15.456
-15.479
-15.5021
-15.524
-15.5433
-15.5584
-15.5681
-15.5708
-15.5652
-15.55
-15.5237
-15.4849
-15.4328
-15.3666
-15.2844
-15.1836
-15.0639
-14.9258
-14.7688
-14.5925
-14.3968
-14.1814
-13.9465
-13.692
-13.4183
-13.1259
-12.8156
-12.4881
-12.1444
-11.7854
-11.4121
-11.0259
-10.6285
-10.221
-9.80483
-9.38184
-8.95365
-8.52178
-8.08799
-7.65401
-7.22148
-6.79209
-6.36749
-5.94924
-5.5389
-5.13791
-4.74766
-4.36944
-4.00447
-3.65386
-3.31861
-2.99958
-2.69759
-2.4133
-2.14725
-1.89975
-1.67098
-1.46095
-1.26951
-1.09642
-0.941289
-0.803624
-0.682826
-0.578214
-0.489008
-0.414364
-0.353363
-0.305036
-0.268359
-0.242283
-0.22572
-0.217581
-0.216763
-0.222184
-0.23277
-0.24749
-0.265346
-0.285403
-0.306776
-0.328658
-0.350307
-0.371071
-0.39037
-0.407713
-0.42269
-0.434974
-0.444314
-0.450533
-0.453528
-0.453249
-0.449713
-0.44297
-0.433121
-0.4203
-0.404685
-0.386412
-0.365533
-0.342256
-0.316984
-0.290014
-0.2616
-0.231963
-0.201348
-0.169981
-0.138075
-0.106127
-0.0727719
-0.0512047
-23.4171
-23.4532
-23.4847
-23.5132
-23.5374
-23.5615
-23.5872
-23.6153
-23.6458
-23.6785
-23.7132
-23.7496
-23.7873
-23.826
-23.8656
-23.9057
-23.9462
-23.9869
-24.0276
-24.0681
-24.1081
-24.1475
-24.1861
-24.2235
-24.2596
-24.294
-24.3264
-24.3564
-24.3837
-24.4079
-24.4284
-24.4447
-24.4563
-24.4623
-24.4622
-24.455
-24.44
-24.4162
-24.3826
-24.3383
-24.2824
-24.2137
-24.1316
-24.0352
-23.9229
-23.7935
-23.6471
-23.4837
-23.3031
-23.1051
-22.89
-22.6585
-22.411
-22.1487
-21.8726
-21.5841
-21.2848
-20.9767
-20.6617
-20.3419
-20.0193
-19.6961
-19.3746
-19.057
-18.7454
-18.4415
-18.1469
-17.8635
-17.5928
-17.3359
-17.0939
-16.8675
-16.6572
-16.4635
-16.2866
-16.1268
-15.9837
-15.8572
-15.7466
-15.6513
-15.5713
-15.5064
-15.4553
-15.4166
-15.3897
-15.3735
-15.367
-15.3691
-15.3788
-15.3949
-15.4161
-15.4412
-15.469
-15.498
-15.527
-15.5544
-15.5789
-15.5991
-15.6134
-15.6206
-15.6192
-15.6078
-15.5849
-15.5494
-15.5005
-15.437
-15.3564
-15.2568
-15.1385
-15.0017
-14.8458
-14.6705
-14.4754
-14.2606
-14.0259
-13.7716
-13.4978
-13.2053
-12.8946
-12.5667
-12.2223
-11.8625
-11.4883
-11.1012
-10.7027
-10.2939
-9.87654
-9.45221
-9.02258
-8.58925
-8.15397
-7.71845
-7.28437
-6.85342
-6.42726
-6.00747
-5.59561
-5.19315
-4.80147
-4.42189
-4.05562
-3.70379
-3.3674
-3.04734
-2.74438
-2.45921
-2.19231
-1.94401
-1.71448
-1.50373
-1.31163
-1.13792
-0.982205
-0.844007
-0.722718
-0.617656
-0.528033
-0.453008
-0.391648
-0.342987
-0.305987
-0.279594
-0.262711
-0.25424
-0.253066
-0.258099
-0.268253
-0.282489
-0.2998
-0.319243
-0.339929
-0.361044
-0.381849
-0.401687
-0.419983
-0.436248
-0.450081
-0.461157
-0.469239
-0.474157
-0.475821
-0.47419
-0.469295
-0.461193
-0.450004
-0.435873
-0.41897
-0.399336
-0.377083
-0.352559
-0.32615
-0.29812
-0.268723
-0.238184
-0.206758
-0.174685
-0.142176
-0.109816
-0.0758837
-0.055931
-23.4397
-23.4738
-23.504
-23.5319
-23.5558
-23.5797
-23.605
-23.6325
-23.6623
-23.6943
-23.7282
-23.7639
-23.8009
-23.8391
-23.8782
-23.9181
-23.9584
-23.9991
-24.0399
-24.0807
-24.1212
-24.1611
-24.2004
-24.2387
-24.2757
-24.3112
-24.3448
-24.3762
-24.4049
-24.4306
-24.4528
-24.4708
-24.4842
-24.4921
-24.4938
-24.4886
-24.4754
-24.4533
-24.4214
-24.3786
-24.3238
-24.256
-24.1745
-24.0782
-23.9651
-23.8343
-23.6864
-23.5208
-23.3375
-23.1362
-22.9174
-22.6814
-22.4289
-22.1611
-21.8791
-21.5842
-21.2781
-20.9629
-20.6408
-20.3139
-19.9841
-19.6537
-19.3252
-19.001
-18.6832
-18.3735
-18.0739
-17.7861
-17.5118
-17.2521
-17.0081
-16.7805
-16.5699
-16.3767
-16.2012
-16.0434
-15.9031
-15.78
-15.6735
-15.5827
-15.5076
-15.4482
-15.4031
-15.3708
-15.3505
-15.3411
-15.3415
-15.3506
-15.3672
-15.3902
-15.4182
-15.45
-15.4843
-15.5195
-15.5545
-15.5876
-15.6176
-15.6429
-15.6621
-15.6738
-15.6765
-15.6689
-15.6495
-15.6173
-15.5715
-15.5103
-15.431
-15.3325
-15.2157
-15.08
-14.9251
-14.7505
-14.556
-14.3414
-14.1068
-13.8524
-13.5784
-13.2855
-12.9743
-12.6457
-12.3005
-11.9397
-11.5645
-11.1763
-10.7764
-10.3664
-9.94761
-9.52184
-9.09071
-8.65586
-8.21904
-7.78196
-7.34633
-6.91383
-6.48615
-6.06487
-5.65156
-5.2477
-4.85469
-4.47386
-4.10642
-3.7535
-3.4161
-3.09512
-2.79134
-2.50541
-2.2378
-1.98885
-1.75871
-1.5474
-1.35477
-1.18059
-1.02444
-0.885852
-0.764212
-0.658832
-0.568926
-0.493642
-0.432046
-0.383161
-0.345946
-0.319334
-0.302219
-0.293494
-0.292032
-0.296731
-0.306494
-0.320274
-0.337052
-0.355881
-0.375861
-0.396179
-0.416092
-0.434944
-0.452164
-0.467268
-0.479859
-0.489624
-0.496336
-0.499834
-0.500043
-0.496936
-0.490554
-0.480968
-0.468321
-0.452765
-0.434397
-0.413214
-0.389493
-0.363653
-0.336018
-0.306835
-0.276367
-0.244842
-0.212528
-0.17967
-0.146489
-0.113654
-0.0790681
-0.0607429
-23.4635
-23.4951
-23.5234
-23.5498
-23.573
-23.5963
-23.621
-23.6478
-23.6769
-23.7081
-23.7414
-23.7764
-23.8129
-23.8507
-23.8895
-23.9292
-23.9696
-24.0104
-24.0515
-24.0927
-24.1337
-24.1744
-24.2144
-24.2536
-24.2916
-24.3282
-24.363
-24.3957
-24.4258
-24.453
-24.4767
-24.4965
-24.5115
-24.5212
-24.5248
-24.5213
-24.5098
-24.4894
-24.459
-24.4174
-24.3636
-24.2965
-24.2155
-24.1187
-24.0043
-23.872
-23.7221
-23.5542
-23.3678
-23.1629
-22.9398
-22.699
-22.4413
-22.1676
-21.8794
-21.5778
-21.2646
-20.9419
-20.6121
-20.2774
-19.9399
-19.602
-19.2664
-18.9353
-18.611
-18.2957
-17.9911
-17.6992
-17.4216
-17.1594
-16.9138
-16.6855
-16.4751
-16.283
-16.1094
-15.9543
-15.8174
-15.6983
-15.5965
-15.511
-15.4413
-15.3878
-15.3493
-15.324
-15.3107
-15.3086
-15.3163
-15.3328
-15.3567
-15.3869
-15.422
-15.4607
-15.5016
-15.5434
-15.5844
-15.6235
-15.6589
-15.6894
-15.7135
-15.7297
-15.7366
-15.7327
-15.7167
-15.6878
-15.6449
-15.5855
-15.5072
-15.4101
-15.2945
-15.1599
-15.0058
-14.8317
-14.6375
-14.4231
-14.1884
-13.9337
-13.6593
-13.3658
-13.0539
-12.7244
-12.3781
-12.0163
-11.6399
-11.2504
-10.8492
-10.4377
-10.0175
-9.59024
-9.15757
-8.72118
-8.28281
-7.84418
-7.40702
-6.97304
-6.5439
-6.12122
-5.70657
-5.30143
-4.90723
-4.52528
-4.15682
-3.80298
-3.46475
-3.14303
-2.83859
-2.55207
-2.28394
-2.03451
-1.80394
-1.59224
-1.39927
-1.22478
-1.06837
-0.929558
-0.807718
-0.702172
-0.612119
-0.53671
-0.474999
-0.426006
-0.388676
-0.361939
-0.344673
-0.335762
-0.334065
-0.338469
-0.347866
-0.361197
-0.377434
-0.395621
-0.414856
-0.434319
-0.453267
-0.471047
-0.487092
-0.500922
-0.512152
-0.520476
-0.525682
-0.527621
-0.526233
-0.521503
-0.513492
-0.502288
-0.488057
-0.470917
-0.450856
-0.427987
-0.402748
-0.375502
-0.346543
-0.316116
-0.28449
-0.251901
-0.218623
-0.184917
-0.151
-0.11764
-0.0823215
-0.0656089
-23.4875
-23.5161
-23.542
-23.5666
-23.5885
-23.6109
-23.6348
-23.6609
-23.6892
-23.7197
-23.7523
-23.7868
-23.8229
-23.8604
-23.8991
-23.9388
-23.9793
-24.0204
-24.0619
-24.1036
-24.1452
-24.1866
-24.2274
-24.2675
-24.3065
-24.3441
-24.3801
-24.414
-24.4454
-24.474
-24.4993
-24.5205
-24.5372
-24.5486
-24.5538
-24.552
-24.5421
-24.5232
-24.4941
-24.4536
-24.4005
-24.334
-24.253
-24.1552
-24.039
-23.9051
-23.7531
-23.5825
-23.3931
-23.1845
-22.9569
-22.7111
-22.4477
-22.1678
-21.8728
-21.5641
-21.2433
-20.9129
-20.5749
-20.232
-19.8866
-19.5409
-19.1979
-18.8599
-18.5293
-18.2084
-17.8991
-17.6033
-17.3226
-17.0583
-16.8116
-16.5831
-16.3734
-16.183
-16.0119
-15.86
-15.7271
-15.6127
-15.5162
-15.4365
-15.3729
-15.3258
-15.2943
-15.2763
-15.2706
-15.2761
-15.2915
-15.3156
-15.3472
-15.3848
-15.4272
-15.473
-15.5207
-15.569
-15.6163
-15.6612
-15.7023
-15.738
-15.7669
-15.7875
-15.7985
-15.7983
-15.7857
-15.7601
-15.7197
-15.6616
-15.5844
-15.4886
-15.3742
-15.2405
-15.087
-14.9133
-14.7193
-14.5048
-14.2699
-14.0147
-13.7398
-13.4456
-13.1328
-12.8022
-12.4549
-12.0917
-11.7141
-11.3232
-10.9206
-10.5076
-10.0859
-9.65711
-9.2229
-8.78497
-8.34508
-7.90495
-7.46633
-7.03093
-6.60043
-6.17646
-5.7606
-5.35433
-4.95908
-4.57619
-4.20687
-3.85228
-3.51339
-3.19111
-2.8862
-2.59927
-2.33078
-2.08106
-1.85024
-1.63834
-1.44521
-1.27059
-1.11409
-0.975207
-0.853329
-0.747764
-0.657711
-0.58231
-0.520613
-0.471628
-0.434294
-0.407527
-0.390195
-0.381169
-0.379295
-0.383447
-0.392503
-0.405394
-0.421082
-0.438603
-0.457049
-0.475599
-0.493508
-0.510127
-0.524894
-0.537336
-0.547079
-0.553829
-0.557388
-0.557621
-0.554487
-0.547985
-0.538196
-0.525237
-0.509278
-0.490327
-0.468381
-0.443752
-0.416908
-0.388147
-0.357758
-0.325984
-0.293104
-0.259358
-0.225033
-0.190394
-0.155665
-0.121705
-0.0855819
-0.070419
-23.5107
-23.5361
-23.5593
-23.5817
-23.6022
-23.6233
-23.6463
-23.6714
-23.6989
-23.7288
-23.7608
-23.7948
-23.8306
-23.868
-23.9067
-23.9465
-23.9873
-24.0287
-24.0707
-24.1129
-24.1551
-24.1972
-24.2388
-24.2797
-24.3196
-24.3582
-24.3952
-24.4302
-24.4628
-24.4927
-24.5192
-24.5419
-24.5601
-24.5729
-24.5796
-24.5793
-24.5708
-24.5532
-24.5252
-24.4857
-24.4333
-24.3672
-24.2859
-24.1865
-24.0688
-23.9331
-23.7788
-23.6053
-23.4124
-23.1999
-22.9678
-22.7167
-22.4473
-22.1608
-21.8586
-21.5423
-21.2137
-20.875
-20.5288
-20.1776
-19.8239
-19.4705
-19.12
-18.7752
-18.4384
-18.1121
-17.7982
-17.4988
-17.2155
-16.9495
-16.7021
-16.4739
-16.2655
-16.0773
-15.9093
-15.7612
-15.6329
-15.5237
-15.4331
-15.3598
-15.3029
-15.2626
-15.2385
-15.2283
-15.2305
-15.2439
-15.2673
-15.2994
-15.3387
-15.384
-15.4339
-15.4868
-15.5415
-15.5963
-15.6499
-15.7008
-15.7474
-15.7882
-15.8219
-15.847
-15.8619
-15.8653
-15.8561
-15.8335
-15.7951
-15.738
-15.662
-15.5675
-15.4541
-15.3211
-15.1681
-14.9947
-14.8006
-14.5859
-14.3506
-14.0948
-13.8192
-13.524
-13.2102
-12.8785
-12.5299
-12.1655
-11.7865
-11.3942
-10.99
-10.5755
-10.1523
-9.72195
-9.28621
-8.84677
-8.4054
-7.96385
-7.52385
-7.08714
-6.6554
-6.23028
-5.81335
-5.40612
-5.01
-4.62635
-4.25638
-3.90123
-3.5619
-3.23927
-2.93409
-2.64697
-2.37835
-2.12855
-1.8977
-1.6858
-1.49271
-1.31816
-1.16175
-1.02299
-0.901248
-0.795834
-0.705932
-0.630689
-0.569137
-0.520286
-0.483056
-0.456358
-0.439042
-0.429969
-0.427968
-0.431902
-0.440633
-0.45308
-0.468197
-0.48501
-0.502608
-0.520165
-0.536943
-0.55229
-0.565656
-0.576573
-0.584686
-0.589708
-0.591462
-0.589826
-0.584781
-0.576342
-0.564623
-0.549761
-0.531878
-0.510871
-0.486912
-0.460458
-0.431904
-0.401519
-0.369593
-0.336375
-0.30215
-0.267165
-0.231713
-0.196072
-0.160463
-0.125845
-0.0888436
-0.0751433
-23.5327
-23.5549
-23.575
-23.5949
-23.6136
-23.6334
-23.6551
-23.6793
-23.706
-23.7351
-23.7667
-23.8003
-23.8359
-23.8732
-23.912
-23.952
-23.9931
-24.0349
-24.0773
-24.1201
-24.1629
-24.2056
-24.2479
-24.2895
-24.3301
-24.3696
-24.4074
-24.4434
-24.477
-24.5079
-24.5356
-24.5595
-24.5789
-24.5931
-24.6012
-24.6022
-24.595
-24.5785
-24.5515
-24.5128
-24.4611
-24.3953
-24.3128
-24.2117
-24.0925
-23.9549
-23.7982
-23.6218
-23.4252
-23.2084
-22.9714
-22.7147
-22.4392
-22.1459
-21.8363
-21.5122
-21.1754
-20.8285
-20.4738
-20.1142
-19.7523
-19.391
-19.0332
-18.6815
-18.3387
-18.0072
-17.6891
-17.3864
-17.1007
-16.8336
-16.5859
-16.3585
-16.152
-15.9665
-15.802
-15.6584
-15.5352
-15.4318
-15.3476
-15.2813
-15.2316
-15.1985
-15.182
-15.1799
-15.1904
-15.2121
-15.2437
-15.2839
-15.3312
-15.3843
-15.4416
-15.5019
-15.5635
-15.625
-15.6848
-15.7416
-15.7937
-15.8396
-15.878
-15.9074
-15.9261
-15.933
-15.9272
-15.9073
-15.8702
-15.8142
-15.7395
-15.6462
-15.5336
-15.4012
-15.2485
-15.0752
-14.881
-14.6659
-14.43
-14.1735
-13.897
-13.6008
-13.2859
-12.9529
-12.603
-12.2372
-11.8567
-11.4629
-11.0572
-10.6412
-10.2164
-9.78454
-9.3473
-8.90641
-8.46364
-8.02073
-7.57946
-7.14156
-6.70872
-6.28259
-5.86475
-5.45672
-5.05992
-4.6757
-4.30527
-3.94977
-3.6102
-3.28742
-2.98218
-2.69507
-2.42653
-2.17686
-1.94618
-1.73449
-1.54164
-1.36736
-1.21124
-1.07277
-0.951341
-0.846241
-0.756656
-0.681717
-0.620456
-0.571868
-0.534865
-0.508341
-0.491137
-0.482096
-0.480033
-0.483793
-0.492225
-0.504237
-0.51877
-0.534845
-0.551543
-0.568041
-0.583598
-0.597572
-0.609419
-0.618685
-0.625025
-0.62817
-0.627962
-0.624295
-0.617175
-0.606636
-0.592834
-0.575903
-0.55584
-0.53259
-0.506552
-0.47817
-0.447784
-0.415655
-0.38208
-0.347309
-0.311639
-0.275318
-0.238652
-0.201923
-0.165354
-0.129996
-0.0920514
-0.0796759
-23.5531
-23.5721
-23.5889
-23.6061