/*--------------------------------*- C++ -*----------------------------------*\
  =========                 |
  \\      /  F ield         | OpenFOAM: The Open Source CFD Toolbox
   \\    /   O peration     | Website:  https://openfoam.org
    \\  /    A nd           | Version:  7
     \\/     M anipulation  |
\*---------------------------------------------------------------------------*/
FoamFile
{
    version     2.0;
    format      ascii;
    class       surfaceScalarField;
    location    "400";
    object      phi;
}
// * * * * * * * * * * * * * * * * * * * * * * * * * * * * * * * * * * * * * //

dimensions      [0 3 -1 0 0 0 0];

internalField   nonuniform List<scalar> 
33502
(
7.22073e-09
-7.40821e-09
-2.65115e-08
3.35736e-08
-8.65261e-08
5.9921e-08
-1.61889e-07
7.53364e-08
-2.47655e-07
8.57874e-08
-3.39932e-07
9.23807e-08
-4.42263e-07
1.0239e-07
-5.45984e-07
1.03775e-07
-6.43099e-07
9.7114e-08
-7.38599e-07
9.5511e-08
-8.316e-07
9.29926e-08
-9.21742e-07
9.01445e-08
-1.00898e-06
8.72445e-08
-1.0934e-06
8.44105e-08
-1.17508e-06
8.17033e-08
-1.25427e-06
7.91643e-08
-1.331e-06
7.68182e-08
-1.40568e-06
7.46345e-08
-1.47821e-06
7.2662e-08
-1.54908e-06
7.08034e-08
-1.61809e-06
6.9122e-08
-1.68567e-06
6.75092e-08
-1.75162e-06
6.60229e-08
-1.81623e-06
6.45593e-08
-1.87934e-06
6.31572e-08
-1.94106e-06
6.17444e-08
-2.00136e-06
6.03171e-08
-2.06021e-06
5.8845e-08
-2.11753e-06
5.73085e-08
-2.17323e-06
5.56854e-08
-2.2272e-06
5.39549e-08
-2.27931e-06
5.20967e-08
-2.32941e-06
5.00927e-08
-2.37735e-06
4.79259e-08
-2.42295e-06
4.55818e-08
-2.46601e-06
4.30476e-08
-2.50634e-06
4.03129e-08
-2.54373e-06
3.73703e-08
-2.57796e-06
3.42146e-08
-2.60883e-06
3.08445e-08
-2.6361e-06
2.72611e-08
-2.65959e-06
2.34703e-08
-2.67909e-06
1.94801e-08
-2.69442e-06
1.5303e-08
-2.70539e-06
1.09524e-08
-2.71185e-06
6.44663e-09
-2.71367e-06
1.80764e-09
-2.71077e-06
-2.92069e-09
-2.70309e-06
-7.68154e-09
-2.69067e-06
-1.24347e-08
-2.67352e-06
-1.71558e-08
-2.65171e-06
-2.18075e-08
-2.62536e-06
-2.6352e-08
-2.59462e-06
-3.07462e-08
-2.55966e-06
-3.49493e-08
-2.52074e-06
-3.89169e-08
-2.47813e-06
-4.26083e-08
-2.43214e-06
-4.59808e-08
-2.38313e-06
-4.89971e-08
-2.33151e-06
-5.16196e-08
-2.27768e-06
-5.38171e-08
-2.22211e-06
-5.55599e-08
-2.16528e-06
-5.68251e-08
-2.10768e-06
-5.75927e-08
-2.04982e-06
-5.78504e-08
-1.99223e-06
-5.75893e-08
-1.93542e-06
-5.68075e-08
-1.87992e-06
-5.55064e-08
-1.82622e-06
-5.36946e-08
-1.77484e-06
-5.13839e-08
-1.72625e-06
-4.85934e-08
-1.6809e-06
-4.53448e-08
-1.63924e-06
-4.16654e-08
-1.60166e-06
-3.75837e-08
-1.56853e-06
-3.31334e-08
-1.54017e-06
-2.83522e-08
-1.51688e-06
-2.32874e-08
-1.49889e-06
-1.799e-08
-1.48637e-06
-1.25124e-08
-1.47946e-06
-6.90232e-09
-1.47822e-06
-1.23426e-09
-1.48264e-06
4.42715e-09
-1.49263e-06
1.00143e-08
-1.50806e-06
1.54477e-08
-1.52871e-06
2.06715e-08
-1.55432e-06
2.56314e-08
-1.58457e-06
3.02773e-08
-1.61911e-06
3.45613e-08
-1.65753e-06
3.84433e-08
-1.69939e-06
4.18862e-08
-1.74423e-06
4.48631e-08
-1.79156e-06
4.73493e-08
-1.84088e-06
4.93318e-08
-1.89166e-06
5.07981e-08
-1.94339e-06
5.17479e-08
-1.99555e-06
5.21793e-08
-2.04765e-06
5.21029e-08
-2.09916e-06
5.15254e-08
-2.14962e-06
5.04658e-08
-2.19855e-06
4.89363e-08
-2.2455e-06
4.69605e-08
-2.29006e-06
4.45538e-08
-2.3318e-06
4.17441e-08
-2.37035e-06
3.85515e-08
-2.40536e-06
3.50081e-08
-2.4365e-06
3.11322e-08
-2.46345e-06
2.69479e-08
-2.48592e-06
2.24656e-08
-2.50364e-06
1.7714e-08
-2.51637e-06
1.27223e-08
-2.52391e-06
7.52395e-09
-2.52602e-06
2.10931e-09
-2.52264e-06
-3.39062e-09
-2.51376e-06
-8.89456e-09
-2.49931e-06
-1.44536e-08
-2.47926e-06
-2.00674e-08
-2.45356e-06
-2.5713e-08
-2.42221e-06
-3.13766e-08
-2.38519e-06
-3.70361e-08
-2.34253e-06
-4.26793e-08
-2.29426e-06
-4.82878e-08
-2.24043e-06
-5.38484e-08
-2.18112e-06
-5.93341e-08
-2.11642e-06
-6.47274e-08
-2.04643e-06
-7.00156e-08
-1.97125e-06
-7.52033e-08
-1.89101e-06
-8.02617e-08
-1.80587e-06
-8.5159e-08
-1.71599e-06
-8.99031e-08
-1.6215e-06
-9.45078e-08
-1.52261e-06
-9.89142e-08
-1.41953e-06
-1.03112e-07
-1.31237e-06
-1.07179e-07
-1.20135e-06
-1.11027e-07
-1.08671e-06
-1.14624e-07
-9.68573e-07
-1.18133e-07
-8.47244e-07
-1.21322e-07
-7.22788e-07
-1.24447e-07
-5.95084e-07
-1.27683e-07
-4.65158e-07
-1.29909e-07
-3.32692e-07
-1.32467e-07
-1.96432e-07
-1.36259e-07
-5.66746e-08
-1.39716e-07
8.44196e-08
-1.41061e-07
2.25142e-07
-1.40738e-07
3.65244e-07
-1.40171e-07
5.04613e-07
-1.39453e-07
6.43113e-07
-1.38577e-07
7.80557e-07
-1.37507e-07
9.16719e-07
-1.36209e-07
1.05135e-06
-1.34667e-07
1.18419e-06
-1.32871e-07
1.31499e-06
-1.30821e-07
1.4435e-06
-1.2852e-07
1.56947e-06
-1.25976e-07
1.69266e-06
-1.23197e-07
1.81286e-06
-1.20195e-07
1.92984e-06
-1.16979e-07
2.04341e-06
-1.13566e-07
2.15339e-06
-1.09965e-07
2.25959e-06
-1.06196e-07
2.36187e-06
-1.0227e-07
2.46009e-06
-9.82064e-08
2.55413e-06
-9.40202e-08
2.64387e-06
-8.97319e-08
2.72925e-06
-8.53577e-08
2.81018e-06
-8.09194e-08
2.88663e-06
-7.64346e-08
2.95857e-06
-7.19258e-08
3.026e-06
-6.74115e-08
3.08893e-06
-6.29137e-08
3.1474e-06
-5.84512e-08
3.20147e-06
-5.40447e-08
3.2512e-06
-4.97123e-08
3.29669e-06
-4.54727e-08
3.33805e-06
-4.1342e-08
3.3754e-06
-3.73362e-08
3.40889e-06
-3.34691e-08
3.43866e-06
-2.97528e-08
3.46487e-06
-2.61983e-08
3.48771e-06
-2.28136e-08
3.50733e-06
-1.96066e-08
3.52392e-06
-1.65812e-08
3.53768e-06
-1.3742e-08
3.54879e-06
-1.10895e-08
3.55743e-06
-8.62586e-09
3.56379e-06
-6.34923e-09
3.56806e-06
-4.26224e-09
3.57045e-06
-2.3712e-09
3.57118e-06
-7.14901e-10
3.57045e-06
7.4412e-10
3.5684e-06
2.06286e-09
3.56517e-06
3.24404e-09
3.56089e-06
4.29498e-09
3.55568e-06
5.23363e-09
3.54963e-06
6.0713e-09
3.54282e-06
6.82941e-09
3.53532e-06
7.52845e-09
3.52709e-06
8.24483e-09
9.47411e-09
-3.21228e-08
2.46595e-08
-7.92633e-08
8.06266e-08
-1.41304e-07
1.21925e-07
-2.15681e-07
1.49663e-07
-2.98928e-07
1.69049e-07
-3.88606e-07
1.82062e-07
-4.76423e-07
1.90241e-07
-5.65416e-07
1.92765e-07
-6.5631e-07
1.88033e-07
-7.43675e-07
1.82887e-07
-8.28076e-07
1.7742e-07
-9.09755e-07
1.71831e-07
-9.88746e-07
1.66259e-07
-1.06518e-06
1.60851e-07
-1.13916e-06
1.55711e-07
-1.21087e-06
1.5088e-07
-1.28041e-06
1.46394e-07
-1.34799e-06
1.42238e-07
-1.4137e-06
1.38401e-07
-1.47772e-06
1.34846e-07
-1.54013e-06
1.31541e-07
-1.60105e-06
1.28435e-07
-1.66051e-06
1.25488e-07
-1.71859e-06
1.22646e-07
-1.7753e-06
1.19861e-07
-1.83063e-06
1.17087e-07
-1.88458e-06
1.14269e-07
-1.93711e-06
1.11366e-07
-1.98814e-06
1.08336e-07
-2.0376e-06
1.05136e-07
-2.08538e-06
1.01728e-07
-2.13136e-06
9.80721e-08
-2.17541e-06
9.41349e-08
-2.21738e-06
8.98849e-08
-2.2571e-06
8.52945e-08
-2.2944e-06
8.03401e-08
-2.3291e-06
7.50032e-08
-2.36101e-06
6.92698e-08
-2.38994e-06
6.31328e-08
-2.4157e-06
5.65894e-08
-2.43809e-06
4.96455e-08
-2.45695e-06
4.23116e-08
-2.47209e-06
3.46078e-08
-2.48335e-06
2.65577e-08
-2.4906e-06
1.81943e-08
-2.49372e-06
9.5511e-09
-2.49259e-06
6.68348e-10
-2.48716e-06
-8.35783e-09
-2.47743e-06
-1.74182e-08
-2.46341e-06
-2.64603e-08
-2.44515e-06
-3.54184e-08
-2.42274e-06
-4.42235e-08
-2.39629e-06
-5.27965e-08
-2.36598e-06
-6.10601e-08
-2.332e-06
-6.89308e-08
-2.29459e-06
-7.6329e-08
-2.25402e-06
-8.31723e-08
-2.21061e-06
-8.93853e-08
-2.16471e-06
-9.48931e-08
-2.1167e-06
-9.96309e-08
-2.06697e-06
-1.03537e-07
-2.01597e-06
-1.06561e-07
-1.96413e-06
-1.0866e-07
-1.91192e-06
-1.09803e-07
-1.85981e-06
-1.09966e-07
-1.80825e-06
-1.09141e-07
-1.75773e-06
-1.07327e-07
-1.70871e-06
-1.04535e-07
-1.66162e-06
-1.00784e-07
-1.6169e-06
-9.61062e-08
-1.57496e-06
-9.05401e-08
-1.53617e-06
-8.41367e-08
-1.50089e-06
-7.69514e-08
-1.46942e-06
-6.90498e-08
-1.44206e-06
-6.05009e-08
-1.41903e-06
-5.13842e-08
-1.40053e-06
-4.17858e-08
-1.38672e-06
-3.18021e-08
-1.3777e-06
-2.15316e-08
-1.37352e-06
-1.10752e-08
-1.3742e-06
-5.46445e-10
-1.3797e-06
9.93135e-09
-1.38991e-06
2.02268e-08
-1.40466e-06
3.02139e-08
-1.42377e-06
3.97852e-08
-1.44697e-06
4.88435e-08
-1.47397e-06
5.72964e-08
-1.50446e-06
6.50626e-08
-1.53807e-06
7.20665e-08
-1.57442e-06
7.82473e-08
-1.61309e-06
8.35507e-08
-1.65366e-06
8.7939e-08
-1.6957e-06
9.13803e-08
-1.73875e-06
9.38597e-08
-1.78235e-06
9.53664e-08
-1.82606e-06
9.59057e-08
-1.86944e-06
9.54848e-08
-1.91202e-06
9.41257e-08
-1.9534e-06
9.18494e-08
-1.99314e-06
8.86896e-08
-2.03085e-06
8.46764e-08
-2.06614e-06
7.98508e-08
-2.09864e-06
7.42498e-08
-2.128e-06
6.79222e-08
-2.1539e-06
6.09115e-08
-2.17603e-06
5.32673e-08
-2.19411e-06
4.50254e-08
-2.20786e-06
3.62257e-08
-2.21706e-06
2.69071e-08
-2.22146e-06
1.71306e-08
-2.22087e-06
6.93642e-09
-2.21522e-06
-3.53732e-09
-2.20448e-06
-1.41418e-08
-2.1885e-06
-2.48655e-08
-2.16724e-06
-3.57262e-08
-2.14061e-06
-4.66953e-08
-2.1086e-06
-5.7736e-08
-2.07117e-06
-6.88069e-08
-2.02834e-06
-7.98761e-08
-1.98012e-06
-9.09095e-08
-1.92653e-06
-1.01883e-07
-1.86763e-06
-1.12762e-07
-1.80347e-06
-1.235e-07
-1.73416e-06
-1.34055e-07
-1.65978e-06
-1.4441e-07
-1.58042e-06
-1.5457e-07
-1.49622e-06
-1.64485e-07
-1.4073e-06
-1.74087e-07
-1.31382e-06
-1.83394e-07
-1.2159e-06
-1.92439e-07
-1.11372e-06
-2.01115e-07
-1.00746e-06
-2.09384e-07
-8.97245e-07
-2.17408e-07
-7.83232e-07
-2.25047e-07
-6.65652e-07
-2.32207e-07
-5.44586e-07
-2.39202e-07
-4.20184e-07
-2.45729e-07
-2.92706e-07
-2.5193e-07
-1.62121e-07
-2.5827e-07
-2.77676e-08
-2.64265e-07
1.08913e-07
-2.6916e-07
2.46098e-07
-2.73455e-07
3.83914e-07
-2.77531e-07
5.22162e-07
-2.79308e-07
6.60403e-07
-2.78989e-07
7.98396e-07
-2.78188e-07
9.35904e-07
-2.76989e-07
1.07268e-06
-2.75381e-07
1.20847e-06
-2.73321e-07
1.34302e-06
-2.70777e-07
1.47607e-06
-2.67729e-07
1.60736e-06
-2.64173e-07
1.73665e-06
-2.60113e-07
1.86369e-06
-2.55559e-07
1.98824e-06
-2.50525e-07
2.11007e-06
-2.45032e-07
2.22899e-06
-2.39101e-07
2.34477e-06
-2.32755e-07
2.45723e-06
-2.26019e-07
2.5662e-06
-2.18922e-07
2.67151e-06
-2.11493e-07
2.77301e-06
-2.03761e-07
2.87057e-06
-1.9576e-07
2.96409e-06
-1.87523e-07
3.05346e-06
-1.79086e-07
3.1386e-06
-1.70485e-07
3.21945e-06
-1.61759e-07
3.29597e-06
-1.52947e-07
3.36815e-06
-1.44088e-07
3.43597e-06
-1.35221e-07
3.49946e-06
-1.26387e-07
3.55864e-06
-1.17625e-07
3.61358e-06
-1.08973e-07
3.66435e-06
-1.00467e-07
3.71103e-06
-9.21419e-08
3.75373e-06
-8.40305e-08
3.79256e-06
-7.61623e-08
3.82767e-06
-6.85641e-08
3.85918e-06
-6.12594e-08
3.88726e-06
-5.42686e-08
3.91206e-06
-4.7608e-08
3.93375e-06
-4.1291e-08
3.9525e-06
-3.53269e-08
3.96848e-06
-2.97222e-08
3.98188e-06
-2.448e-08
3.99285e-06
-1.96012e-08
4.00159e-06
-1.50846e-08
4.00826e-06
-1.0928e-08
4.01302e-06
-7.13052e-09
4.01601e-06
-3.69634e-09
4.01739e-06
-6.33113e-10
4.01737e-06
2.0891e-09
4.0161e-06
4.51649e-09
4.01373e-06
6.67797e-09
4.01037e-06
8.60454e-09
4.00613e-06
1.03292e-08
4.00109e-06
1.1888e-08
3.99531e-06
1.33351e-08
3.98877e-06
1.48061e-08
1.68556e-08
-5.2764e-08
7.73778e-08
-1.10341e-07
1.38213e-07
-1.75582e-07
1.87075e-07
-2.48076e-07
2.22148e-07
-3.25369e-07
2.46294e-07
-4.04733e-07
2.6142e-07
-4.83255e-07
2.68749e-07
-5.60464e-07
2.69991e-07
-6.38067e-07
2.65652e-07
-7.14238e-07
2.59086e-07
-7.88449e-07
2.51648e-07
-8.60513e-07
2.43922e-07
-9.3043e-07
2.36191e-07
-9.98238e-07
2.28674e-07
-1.06401e-06
2.215e-07
-1.12786e-06
2.14742e-07
-1.18987e-06
2.08433e-07
-1.25018e-06
2.02568e-07
-1.30889e-06
1.97131e-07
-1.3661e-06
1.92075e-07
-1.4219e-06
1.87353e-07
-1.47637e-06
1.82902e-07
-1.52954e-06
1.78663e-07
-1.58146e-06
1.74563e-07
-1.63214e-06
1.7054e-07
-1.68157e-06
1.66519e-07
-1.72974e-06
1.62436e-07
-1.77661e-06
1.58226e-07
-1.82211e-06
1.53828e-07
-1.86616e-06
1.49182e-07
-1.90866e-06
1.44232e-07
-1.94952e-06
1.38923e-07
-1.9886e-06
1.33207e-07
-2.02576e-06
1.27039e-07
-2.06085e-06
1.20379e-07
-2.0937e-06
1.13193e-07
-2.12416e-06
1.05455e-07
-2.15204e-06
9.71456e-08
-2.17717e-06
8.82545e-08
-2.19937e-06
7.878e-08
-2.21846e-06
6.87298e-08
-2.23428e-06
5.81221e-08
-2.24666e-06
4.69848e-08
-2.25547e-06
3.53571e-08
-2.26057e-06
2.32864e-08
-2.26185e-06
1.083e-08
-2.25925e-06
-1.9397e-09
-2.25272e-06
-1.48933e-08
-2.24225e-06
-2.78958e-08
-2.22785e-06
-4.08539e-08
-2.2096e-06
-5.36717e-08
-2.18758e-06
-6.62436e-08
-2.16192e-06
-7.84588e-08
-2.13278e-06
-9.02013e-08
-2.10035e-06
-1.01354e-07
-2.06488e-06
-1.11799e-07
-2.02663e-06
-1.21422e-07
-1.9859e-06
-1.3011e-07
-1.94303e-06
-1.37763e-07
-1.89837e-06
-1.44284e-07
-1.85232e-06
-1.49592e-07
-1.80526e-06
-1.53616e-07
-1.75762e-06
-1.56298e-07
-1.70982e-06
-1.57597e-07
-1.6623e-06
-1.57487e-07
-1.61548e-06
-1.55959e-07
-1.56979e-06
-1.5302e-07
-1.52563e-06
-1.48691e-07
-1.48341e-06
-1.43009e-07
-1.44349e-06
-1.36024e-07
-1.40623e-06
-1.278e-07
-1.37196e-06
-1.18415e-07
-1.34095e-06
-1.07959e-07
-1.31347e-06
-9.65304e-08
-1.28974e-06
-8.42369e-08
-1.26993e-06
-7.11955e-08
-1.25418e-06
-5.75329e-08
-1.2426e-06
-4.33838e-08
-1.23524e-06
-2.88879e-08
-1.23213e-06
-1.41851e-08
-1.23325e-06
5.7797e-10
-1.23855e-06
1.52282e-08
-1.2479e-06
2.95801e-08
-1.26115e-06
4.34656e-08
-1.27809e-06
5.6737e-08
-1.29851e-06
6.92588e-08
-1.32211e-06
8.09074e-08
-1.34861e-06
9.15706e-08
-1.37769e-06
1.0115e-07
-1.409e-06
1.09559e-07
-1.44217e-06
1.1673e-07
-1.47684e-06
1.22607e-07
-1.5126e-06
1.27151e-07
-1.54907e-06
1.30335e-07
-1.58585e-06
1.32151e-07
-1.62255e-06
1.32599e-07
-1.65875e-06
1.31692e-07
-1.69408e-06
1.29455e-07
-1.72815e-06
1.25921e-07
-1.76058e-06
1.21128e-07
-1.79103e-06
1.15124e-07
-1.81914e-06
1.07958e-07
-1.84458e-06
9.96857e-08
-1.86702e-06
9.03672e-08
-1.88618e-06
8.00673e-08
-1.90176e-06
6.88489e-08
-1.91351e-06
5.6771e-08
-1.92118e-06
4.38863e-08
-1.92453e-06
3.02581e-08
-1.92337e-06
1.59611e-08
-1.91755e-06
1.12008e-09
-1.90704e-06
-1.40578e-08
-1.89172e-06
-2.94582e-08
-1.8715e-06
-4.50904e-08
-1.8463e-06
-6.09364e-08
-1.81605e-06
-7.69519e-08
-1.78072e-06
-9.30745e-08
-1.74028e-06
-1.09247e-07
-1.69475e-06
-1.25417e-07
-1.64413e-06
-1.4154e-07
-1.58844e-06
-1.5758e-07
-1.52771e-06
-1.73492e-07
-1.46202e-06
-1.89201e-07
-1.39144e-06
-2.04645e-07
-1.31606e-06
-2.19795e-07
-1.23597e-06
-2.34674e-07
-1.15125e-06
-2.49206e-07
-1.06206e-06
-2.63285e-07
-9.68531e-07
-2.76926e-07
-8.70766e-07
-2.90209e-07
-7.68901e-07
-3.02986e-07
-6.63142e-07
-3.15147e-07
-5.53586e-07
-3.26966e-07
-4.40332e-07
-3.38299e-07
-3.23614e-07
-3.48919e-07
-2.03561e-07
-3.59249e-07
-7.99883e-08
-3.69296e-07
4.65951e-08
-3.78508e-07
1.75163e-07
-3.86831e-07
3.05321e-07
-3.94418e-07
4.36895e-07
-4.00732e-07
5.69394e-07
-4.05954e-07
7.02112e-07
-4.10239e-07
8.3521e-07
-4.12394e-07
9.68782e-07
-4.12556e-07
1.10232e-06
-4.11734e-07
1.23546e-06
-4.10141e-07
1.36788e-06
-4.07815e-07
1.49929e-06
-4.04748e-07
1.62942e-06
-4.00925e-07
1.75802e-06
-3.9634e-07
1.88483e-06
-3.90996e-07
2.00961e-06
-3.84906e-07
2.13213e-06
-3.78088e-07
2.25217e-06
-3.70569e-07
2.3695e-06
-3.62377e-07
2.48394e-06
-3.53544e-07
2.59529e-06
-3.44105e-07
2.70336e-06
-3.341e-07
2.808e-06
-3.23567e-07
2.90906e-06
-3.12552e-07
3.00639e-06
-3.01098e-07
3.09989e-06
-2.89254e-07
3.18943e-06
-2.77069e-07
3.27495e-06
-2.64598e-07
3.35635e-06
-2.51892e-07
3.4336e-06
-2.39009e-07
3.50667e-06
-2.26007e-07
3.57552e-06
-2.12942e-07
3.64018e-06
-1.99875e-07
3.70066e-06
-1.86862e-07
3.757e-06
-1.73962e-07
3.80927e-06
-1.6123e-07
3.85753e-06
-1.48719e-07
3.90187e-06
-1.3648e-07
3.94241e-06
-1.2456e-07
3.97926e-06
-1.13002e-07
4.01255e-06
-1.01845e-07
4.04242e-06
-9.11234e-08
4.06903e-06
-8.08652e-08
4.09252e-06
-7.10943e-08
4.11307e-06
-6.18295e-08
4.13084e-06
-5.30837e-08
4.14599e-06
-4.4866e-08
4.1587e-06
-3.71799e-08
4.16914e-06
-3.00265e-08
4.17747e-06
-2.34021e-08
4.18385e-06
-1.73024e-08
4.18845e-06
-1.17198e-08
4.19141e-06
-6.65045e-09
4.19289e-06
-2.10029e-09
4.19305e-06
1.94299e-09
4.19204e-06
5.53607e-09
4.18999e-06
8.73323e-09
4.18703e-06
1.15826e-08
4.18324e-06
1.41296e-08
4.17871e-06
1.64296e-08
4.1735e-06
1.85602e-08
4.16764e-06
2.06708e-08
2.341e-08
-6.18256e-08
1.39237e-07
-1.25527e-07
2.01857e-07
-1.92106e-07
2.53654e-07
-2.6137e-07
2.9133e-07
-3.31726e-07
3.16625e-07
-4.0188e-07
3.31557e-07
-4.71129e-07
3.37995e-07
-5.39171e-07
3.38045e-07
-6.06652e-07
3.33152e-07
-6.73077e-07
3.25532e-07
-7.38065e-07
3.16664e-07
-8.01424e-07
3.07291e-07
-8.63076e-07
2.97856e-07
-9.23022e-07
2.88631e-07
-9.81299e-07
2.79789e-07
-1.03797e-06
2.71426e-07
-1.09311e-06
2.63587e-07
-1.1468e-06
2.56278e-07
-1.19912e-06
2.49471e-07
-1.25016e-06
2.43122e-07
-1.29997e-06
2.37171e-07
-1.34861e-06
2.31545e-07
-1.39611e-06
2.26167e-07
-1.4425e-06
2.20956e-07
-1.4878e-06
2.15826e-07
-1.53197e-06
2.10694e-07
-1.57502e-06
2.05474e-07
-1.61688e-06
2.00086e-07
-1.65751e-06
1.94452e-07
-1.69683e-06
1.88497e-07
-1.73474e-06
1.82147e-07
-1.77116e-06
1.75334e-07
-1.80595e-06
1.67995e-07
-1.83899e-06
1.60073e-07
-1.87013e-06
1.51515e-07
-1.89922e-06
1.4228e-07
-1.9261e-06
1.32333e-07
-1.95061e-06
1.21648e-07
-1.97257e-06
1.10213e-07
-1.99182e-06
9.80248e-08
-2.00819e-06
8.50953e-08
-2.02153e-06
7.1448e-08
-2.03167e-06
5.71211e-08
-2.03848e-06
4.2166e-08
-2.04185e-06
2.66472e-08
-2.04166e-06
1.06424e-08
-2.03787e-06
-5.74024e-09
-2.03043e-06
-2.23389e-08
-2.01933e-06
-3.89934e-08
-2.00461e-06
-5.55774e-08
-1.98632e-06
-7.19614e-08
-1.96456e-06
-8.80082e-08
-1.93944e-06
-1.03573e-07
-1.91114e-06
-1.18505e-07
-1.87984e-06
-1.32654e-07
-1.84577e-06
-1.45867e-07
-1.8092e-06
-1.57996e-07
-1.77041e-06
-1.689e-07
-1.72972e-06
-1.78448e-07
-1.68748e-06
-1.8652e-07
-1.64406e-06
-1.93015e-07
-1.59983e-06
-1.97844e-07
-1.55519e-06
-2.00938e-07
-1.51054e-06
-2.0225e-07
-1.46627e-06
-2.01753e-07
-1.42279e-06
-1.99442e-07
-1.38048e-06
-1.95333e-07
-1.33971e-06
-1.8946e-07
-1.30084e-06
-1.81878e-07
-1.26421e-06
-1.7266e-07
-1.23011e-06
-1.61896e-07
-1.19883e-06
-1.49694e-07
-1.17062e-06
-1.36173e-07
-1.14568e-06
-1.2147e-07
-1.1242e-06
-1.05727e-07
-1.1063e-06
-8.90976e-08
-1.09208e-06
-7.17461e-08
-1.08162e-06
-5.3844e-08
-1.07494e-06
-3.55657e-08
-1.07204e-06
-1.70838e-08
-1.07289e-06
1.42738e-09
-1.07741e-06
1.97517e-08
-1.08549e-06
3.76559e-08
-1.09695e-06
5.49354e-08
-1.11162e-06
7.14075e-08
-1.12926e-06
8.69065e-08
-1.14963e-06
1.01281e-07
-1.17245e-06
1.14396e-07
-1.19742e-06
1.26132e-07
-1.22424e-06
1.36386e-07
-1.25258e-06
1.45075e-07
-1.28209e-06
1.52131e-07
-1.31244e-06
1.57508e-07
-1.34327e-06
1.61174e-07
-1.37423e-06
1.63115e-07
-1.40495e-06
1.63333e-07
-1.4351e-06
1.61843e-07
-1.46431e-06
1.58674e-07
-1.49224e-06
1.53864e-07
-1.51857e-06
1.47462e-07
-1.54296e-06
1.39521e-07
-1.5651e-06
1.30104e-07
-1.58469e-06
1.19277e-07
-1.60143e-06
1.07114e-07
-1.61505e-06
9.36919e-08
-1.62529e-06
7.90893e-08
-1.63189e-06
6.33788e-08
-1.63463e-06
4.6632e-08
-1.6333e-06
2.89332e-08
-1.62772e-06
1.03791e-08
-1.61781e-06
-8.78801e-09
-1.60352e-06
-2.83461e-08
-1.58471e-06
-4.82636e-08
-1.56129e-06
-6.85132e-08
-1.53317e-06
-8.90568e-08
-1.50029e-06
-1.0983e-07
-1.46262e-06
-1.3075e-07
-1.42013e-06
-1.51739e-07
-1.37282e-06
-1.7273e-07
-1.32071e-06
-1.93662e-07
-1.2638e-06
-2.14494e-07
-1.20212e-06
-2.35173e-07
-1.13573e-06
-2.55598e-07
-1.0647e-06
-2.7568e-07
-9.89127e-07
-2.95377e-07
-9.09069e-07
-3.14739e-07
-8.24612e-07
-3.33673e-07
-7.3588e-07
-3.52024e-07
-6.43023e-07
-3.69791e-07
-5.46122e-07
-3.87119e-07
-4.45274e-07
-4.03844e-07
-3.40671e-07
-4.1976e-07
-2.32452e-07
-4.35194e-07
-1.20654e-07
-4.50103e-07
-5.32314e-09
-4.64255e-07
1.12885e-07
-4.77461e-07
2.33353e-07
-4.8977e-07
3.55912e-07
-5.01072e-07
4.80221e-07
-5.11145e-07
6.05853e-07
-5.20055e-07
7.32581e-07
-5.27469e-07
8.60083e-07
-5.33463e-07
9.87851e-07
-5.38009e-07
1.11595e-06
-5.40491e-07
1.2444e-06
-5.41015e-07
1.37282e-06
-5.40158e-07
1.50082e-06
-5.38156e-07
1.62808e-06
-5.35089e-07
1.7543e-06
-5.30984e-07
1.87922e-06
-5.25849e-07
2.00257e-06
-5.19696e-07
2.12411e-06
-5.1254e-07
2.2436e-06
-5.04405e-07
2.36083e-06
-4.9532e-07
2.47559e-06
-4.8532e-07
2.58766e-06
-4.74444e-07
2.69685e-06
-4.62736e-07
2.80299e-06
-4.50243e-07
2.90591e-06
-4.37014e-07
3.00546e-06
-4.23104e-07
3.10148e-06
-4.0857e-07
3.19386e-06
-3.9347e-07
3.28249e-06
-3.77868e-07
3.36725e-06
-3.6183e-07
3.44809e-06
-3.45425e-07
3.52493e-06
-3.28724e-07
3.59773e-06
-3.11801e-07
3.66646e-06
-2.94731e-07
3.73112e-06
-2.77591e-07
3.79172e-06
-2.60458e-07
3.84827e-06
-2.43408e-07
3.90083e-06
-2.26516e-07
3.94947e-06
-2.09854e-07
3.99425e-06
-1.93493e-07
4.03527e-06
-1.77497e-07
4.07264e-06
-1.61928e-07
4.10649e-06
-1.46842e-07
4.13694e-06
-1.32289e-07
4.16413e-06
-1.18312e-07
4.18822e-06
-1.04948e-07
4.20936e-06
-9.22282e-08
4.2277e-06
-8.01748e-08
4.24343e-06
-6.88041e-08
4.25669e-06
-5.81267e-08
4.26765e-06
-4.81466e-08
4.27649e-06
-3.88637e-08
4.28336e-06
-3.02729e-08
4.28843e-06
-2.23663e-08
4.29184e-06
-1.51337e-08
4.29376e-06
-8.56823e-09
4.29434e-06
-2.67767e-09
4.29373e-06
2.55827e-09
4.29206e-06
7.21041e-09
4.28945e-06
1.1348e-08
4.28601e-06
1.50295e-08
4.28183e-06
1.83151e-08
4.277e-06
2.12728e-08
4.27158e-06
2.40041e-08
4.26562e-06
2.66503e-08
2.99848e-08
-6.49898e-08
2.04327e-07
-1.31334e-07
2.68212e-07
-1.9713e-07
3.1936e-07
-2.61991e-07
3.56181e-07
-3.25627e-07
3.80223e-07
-3.87881e-07
3.93797e-07
-4.48869e-07
3.98986e-07
-5.08672e-07
3.97863e-07
-5.67622e-07
3.92122e-07
-6.25612e-07
3.83545e-07
-6.82436e-07
3.73499e-07
-7.37944e-07
3.62816e-07
-7.9208e-07
3.52e-07
-8.44824e-07
3.41383e-07
-8.96196e-07
3.3117e-07
-9.46237e-07
3.21478e-07
-9.94998e-07
3.12364e-07
-1.04254e-06
3.03835e-07
-1.08893e-06
2.9587e-07
-1.13421e-06
2.88417e-07
-1.17844e-06
2.81408e-07
-1.22166e-06
2.74764e-07
-1.26388e-06
2.68395e-07
-1.30514e-06
2.62207e-07
-1.34542e-06
2.56104e-07
-1.38472e-06
2.49985e-07
-1.423e-06
2.43753e-07
-1.46023e-06
2.37312e-07
-1.49635e-06
2.30569e-07
-1.53129e-06
2.23434e-07
-1.56497e-06
2.1582e-07
-1.59728e-06
2.07644e-07
-1.62812e-06
1.98831e-07
-1.65736e-06
1.89309e-07
-1.68486e-06
1.79018e-07
-1.71049e-06
1.67903e-07
-1.73408e-06
1.55922e-07
-1.75548e-06
1.43045e-07
-1.77453e-06
1.29256e-07
-1.79106e-06
1.1455e-07
-1.80491e-06
9.89419e-08
-1.81593e-06
8.24614e-08
-1.82397e-06
6.51556e-08
-1.82889e-06
4.70894e-08
-1.83059e-06
2.83417e-08
-1.82896e-06
9.0084e-09
-1.82394e-06
-1.07635e-08
-1.81551e-06
-3.07744e-08
-1.80366e-06
-5.08461e-08
-1.78841e-06
-7.08217e-08
-1.76983e-06
-9.05403e-08
-1.74801e-06
-1.09832e-07
-1.72306e-06
-1.28519e-07
-1.69515e-06
-1.46418e-07
-1.66446e-06
-1.63345e-07
-1.63121e-06
-1.79114e-07
-1.59566e-06
-1.93545e-07
-1.55809e-06
-2.06467e-07
-1.51881e-06
-2.17723e-07
-1.47816e-06
-2.27171e-07
-1.43648e-06
-2.34691e-07
-1.39414e-06
-2.40181e-07
-1.35151e-06
-2.43562e-07
-1.30898e-06
-2.44781e-07
-1.26692e-06
-2.43814e-07
-1.2257e-06
-2.40662e-07
-1.18568e-06
-2.35353e-07
-1.1472e-06
-2.27938e-07
-1.11059e-06
-2.18491e-07
-1.07614e-06
-2.07107e-07
-1.04414e-06
-1.93905e-07
-1.01481e-06
-1.79022e-07
-9.88373e-07
-1.6261e-07
-9.65004e-07
-1.4484e-07
-9.44843e-07
-1.25889e-07
-9.27995e-07
-1.05947e-07
-9.14532e-07
-8.52102e-08
-9.04491e-07
-6.38859e-08
-8.97876e-07
-4.2181e-08
-8.94664e-07
-2.0297e-08
-8.94806e-07
1.56881e-09
-8.98219e-07
2.31648e-08
-9.04778e-07
4.42147e-08
-9.14323e-07
6.44811e-08
-9.26666e-07
8.3752e-08
-9.41594e-07
1.01836e-07
-9.5887e-07
1.18559e-07
-9.78239e-07
1.33767e-07
-9.99429e-07
1.47323e-07
-1.02215e-06
1.59113e-07
-1.04612e-06
1.69039e-07
-1.07101e-06
1.77027e-07
-1.09653e-06
1.83023e-07
-1.12234e-06
1.86991e-07
-1.14814e-06
1.88915e-07
-1.17361e-06
1.88796e-07
-1.19841e-06
1.86652e-07
-1.22225e-06
1.82514e-07
-1.24481e-06
1.76425e-07
-1.26579e-06
1.68439e-07
-1.28489e-06
1.58621e-07
-1.30183e-06
1.4704e-07
-1.31633e-06
1.33772e-07
-1.32811e-06
1.189e-07
-1.33694e-06
1.02514e-07
-1.34255e-06
8.47048e-08
-1.34473e-06
6.55557e-08
-1.34326e-06
4.51532e-08
-1.33793e-06
2.35998e-08
-1.32864e-06
1.08826e-09
-1.31534e-06
-2.20855e-08
-1.29793e-06
-4.57664e-08
-1.27626e-06
-6.99286e-08
-1.25026e-06
-9.45219e-08
-1.21983e-06
-1.19489e-07
-1.18491e-06
-1.4475e-07
-1.14547e-06
-1.70197e-07
-1.10148e-06
-1.95733e-07
-1.05293e-06
-2.21278e-07
-9.99842e-07
-2.46757e-07
-9.4222e-07
-2.72119e-07
-8.80079e-07
-2.97317e-07
-8.13467e-07
-3.22213e-07
-7.42451e-07
-3.46699e-07
-6.67118e-07
-3.70714e-07
-5.87526e-07
-3.94335e-07
-5.03747e-07
-4.17453e-07
-4.15879e-07
-4.39894e-07
-3.2406e-07
-4.6161e-07
-2.28407e-07
-4.82772e-07
-1.29003e-07
-5.0325e-07
-2.58013e-08
-5.22962e-07
8.07478e-08
-5.4174e-07
1.90133e-07
-5.59484e-07
3.02206e-07
-5.76322e-07
4.16693e-07
-5.91942e-07
5.33261e-07
-6.0633e-07
6.51583e-07
-6.19389e-07
7.71399e-07
-6.30955e-07
8.92353e-07
-6.41004e-07
1.01421e-06
-6.49329e-07
1.1367e-06
-6.55948e-07
1.25947e-06
-6.60769e-07
1.38247e-06
-6.63483e-07
1.50563e-06
-6.64173e-07
1.62865e-06
-6.63183e-07
1.7512e-06
-6.60715e-07
1.87298e-06
-6.56869e-07
1.99368e-06
-6.51697e-07
2.11305e-06
-6.45228e-07
2.23083e-06
-6.37491e-07
2.34679e-06
-6.28515e-07
2.46071e-06
-6.18334e-07
2.57237e-06
-6.0699e-07
2.68157e-06
-5.94527e-07
2.78811e-06
-5.80994e-07
2.89181e-06
-5.66447e-07
2.99251e-06
-5.50944e-07
3.09003e-06
-5.34547e-07
3.18424e-06
-5.17321e-07
3.275e-06
-4.99336e-07
3.36219e-06
-4.80668e-07
3.44571e-06
-4.61392e-07
3.52546e-06
-4.41591e-07
3.60138e-06
-4.21349e-07
3.67341e-06
-4.00755e-07
3.74151e-06
-3.79901e-07
3.80566e-06
-3.58879e-07
3.86585e-06
-3.37783e-07
3.9221e-06
-3.16708e-07
3.97444e-06
-2.95749e-07
4.02292e-06
-2.74997e-07
4.06761e-06
-2.54542e-07
4.10859e-06
-2.34468e-07
4.14595e-06
-2.14857e-07
4.17981e-06
-1.95784e-07
4.21029e-06
-1.77316e-07
4.23753e-06
-1.59514e-07
4.26165e-06
-1.42431e-07
4.28282e-06
-1.26111e-07
4.30119e-06
-1.1059e-07
4.31692e-06
-9.5896e-08
4.33017e-06
-8.20468e-08
4.34111e-06
-6.90544e-08
4.3499e-06
-5.69225e-08
4.35669e-06
-4.56501e-08
4.36166e-06
-3.52296e-08
4.36495e-06
-2.56515e-08
4.36673e-06
-1.69041e-08
4.36716e-06
-8.98309e-09
4.36638e-06
-1.89736e-09
4.36455e-06
4.3998e-09
4.36177e-06
1.0002e-08
4.35815e-06
1.49758e-08
4.3538e-06
1.93904e-08
4.34881e-06
2.33168e-08
4.34325e-06
2.68367e-08
4.33719e-06
3.00693e-08
4.33071e-06
3.31484e-08
3.69797e-08
-6.48982e-08
2.69102e-07
-1.31904e-07
3.35117e-07
-1.95007e-07
3.82438e-07
-2.54695e-07
4.15801e-07
-3.1177e-07
4.37291e-07
-3.66875e-07
4.48904e-07
-4.20461e-07
4.52584e-07
-4.72813e-07
4.50232e-07
-5.24198e-07
4.43525e-07
-5.7466e-07
4.34021e-07
-6.24107e-07
4.22964e-07
-6.72469e-07
4.11182e-07
-7.19697e-07
3.99234e-07
-7.65782e-07
3.87474e-07
-8.10736e-07
3.76131e-07
-8.54586e-07
3.65338e-07
-8.97373e-07
3.55161e-07
-9.39139e-07
3.45615e-07
-9.79931e-07
3.36672e-07
-1.01979e-06
3.28282e-07
-1.05875e-06
3.20371e-07
-1.09683e-06
3.12851e-07
-1.13406e-06
3.05624e-07
-1.17044e-06
2.98586e-07
-1.20597e-06
2.91628e-07
-1.24062e-06
2.84639e-07
-1.27439e-06
2.7751e-07
-1.30721e-06
2.70131e-07
-1.33904e-06
2.62397e-07
-1.36981e-06
2.54203e-07
-1.39944e-06
2.45451e-07
-1.42784e-06
2.36044e-07
-1.45491e-06
2.25893e-07
-1.48052e-06
2.14916e-07
-1.50454e-06
2.0304e-07
-1.52684e-06
1.90202e-07
-1.54728e-06
1.76351e-07
-1.56568e-06
1.6145e-07
-1.58191e-06
1.45478e-07
-1.59579e-06
1.28431e-07
-1.60718e-06
1.10324e-07
-1.61592e-06
9.11925e-08
-1.62186e-06
7.10925e-08
-1.62487e-06
5.0101e-08
-1.62485e-06
2.83126e-08
-1.62168e-06
5.83618e-09
-1.61531e-06
-1.71353e-08
-1.60572e-06
-4.03626e-08
-1.59291e-06
-6.3657e-08
-1.5769e-06
-8.68332e-08
-1.55775e-06
-1.09699e-07
-1.53553e-06
-1.32053e-07
-1.51036e-06
-1.53683e-07
-1.48241e-06
-1.74375e-07
-1.45184e-06
-1.93909e-07
-1.41889e-06
-2.1207e-07
-1.38379e-06
-2.28644e-07
-1.34682e-06
-2.43433e-07
-1.30829e-06
-2.56252e-07
-1.26852e-06
-2.6694e-07
-1.22786e-06
-2.75359e-07
-1.18664e-06
-2.81396e-07
-1.14524e-06
-2.84963e-07
-1.10402e-06
-2.86005e-07
-1.06333e-06
-2.845e-07
-1.02354e-06
-2.8046e-07
-9.84963e-07
-2.73927e-07
-9.47934e-07
-2.64969e-07
-9.12746e-07
-2.53681e-07
-8.79671e-07
-2.40184e-07
-8.48955e-07
-2.24624e-07
-8.2081e-07
-2.07169e-07
-7.95418e-07
-1.88004e-07
-7.72926e-07
-1.67334e-07
-7.53448e-07
-1.4537e-07
-7.37062e-07
-1.22334e-07
-7.23815e-07
-9.84576e-08
-7.13723e-07
-7.39785e-08
-7.06769e-07
-4.91352e-08
-7.02909e-07
-2.41567e-08
-7.0208e-07
7.40324e-10
-7.0419e-07
2.52766e-08
-7.09111e-07
4.91384e-08
-7.16685e-07
7.20582e-08
-7.26728e-07
9.37981e-08
-7.39032e-07
1.14145e-07
-7.53375e-07
1.32907e-07
-7.69516e-07
1.49913e-07
-7.87202e-07
1.65015e-07
-8.06169e-07
1.78086e-07
-8.26145e-07
1.89022e-07
-8.46851e-07
1.9774e-07
-8.68001e-07
2.0418e-07
-8.89308e-07
2.08306e-07
-9.10483e-07
2.10098e-07
-9.31237e-07
2.09558e-07
-9.51282e-07
2.06704e-07
-9.70332e-07
2.01572e-07
-9.88108e-07
1.94208e-07
-1.00433e-06
1.84673e-07
-1.01874e-06
1.73035e-07
-1.03107e-06
1.59373e-07
-1.04106e-06
1.43771e-07
-1.04848e-06
1.26321e-07
-1.05308e-06
1.07122e-07
-1.05464e-06
8.62735e-08
-1.05295e-06
6.38694e-08
-1.04781e-06
4.00143e-08
-1.03904e-06
1.48339e-08
-1.02659e-06
-1.13525e-08
-1.01042e-06
-3.82537e-08
-9.90371e-07
-6.58109e-08
-9.66333e-07
-9.39647e-08
-9.38209e-07
-1.22644e-07
-9.0592e-07
-1.51777e-07
-8.694e-07
-1.8127e-07
-8.2861e-07
-2.10988e-07
-7.83526e-07
-2.40818e-07
-7.34139e-07
-2.70667e-07
-6.80451e-07
-3.00447e-07
-6.22478e-07
-3.30096e-07
-5.60226e-07
-3.59573e-07
-4.93738e-07
-3.88706e-07
-4.23066e-07
-4.17377e-07
-3.48274e-07
-4.45512e-07
-2.69434e-07
-4.73182e-07
-1.86649e-07
-5.00245e-07
-9.99541e-08
-5.26595e-07
-9.35052e-09
-5.5222e-07
8.48194e-08
-5.76951e-07
1.8223e-07
-6.0067e-07
2.8277e-07
-6.2351e-07
3.86203e-07
-6.45182e-07
4.92294e-07
-6.65582e-07
6.00725e-07
-6.84759e-07
7.11258e-07
-7.02481e-07
8.23614e-07
-7.18693e-07
9.37502e-07
-7.33283e-07
1.05267e-06
-7.46129e-07
1.16882e-06
-7.57164e-07
1.28573e-06
-7.66249e-07
1.40314e-06
-7.73366e-07
1.52079e-06
-7.78424e-07
1.63857e-06
-7.81264e-07
1.75635e-06
-7.81955e-07
1.87387e-06
-7.80713e-07
1.99085e-06
-7.77703e-07
2.107e-06
-7.73028e-07
2.22205e-06
-7.66755e-07
2.33575e-06
-7.58931e-07
2.44785e-06
-7.49599e-07
2.55813e-06
-7.388e-07
2.66638e-06
-7.26582e-07
2.77239e-06
-7.12995e-07
2.87596e-06
-6.98095e-07
2.97691e-06
-6.81941e-07
3.07506e-06
-6.64599e-07
3.17026e-06
-6.46137e-07
3.26235e-06
-6.26631e-07
3.35119e-06
-6.06156e-07
3.43666e-06
-5.84796e-07
3.51864e-06
-5.62638e-07
3.59703e-06
-5.39775e-07
3.67175e-06
-5.16303e-07
3.74274e-06
-4.92323e-07
3.80993e-06
-4.67939e-07
3.87329e-06
-4.4326e-07
3.93282e-06
-4.18396e-07
3.98851e-06
-3.9346e-07
4.04037e-06
-3.68563e-07
4.08845e-06
-3.43817e-07
4.13279e-06
-3.19332e-07
4.17347e-06
-2.95212e-07