/*--------------------------------*- C++ -*----------------------------------*\
  =========                 |
  \\      /  F ield         | OpenFOAM: The Open Source CFD Toolbox
   \\    /   O peration     | Website:  https://openfoam.org
    \\  /    A nd           | Version:  7
     \\/     M anipulation  |
\*---------------------------------------------------------------------------*/
FoamFile
{
    version     2.0;
    format      ascii;
    class       volVectorField;
    location    "400";
    object      U;
}
// * * * * * * * * * * * * * * * * * * * * * * * * * * * * * * * * * * * * * //

dimensions      [0 1 -1 0 0 0 0];

internalField   nonuniform List<vector> 
16900
(
(0.00779033 -0.0103045 0)
(-0.00258067 0.0195901 0)
(-0.0456143 0.0410402 0)
(-0.106022 0.054578 0)
(-0.174765 0.0657474 0)
(-0.251303 0.0723385 0)
(-0.332226 0.0874744 0)
(-0.423821 0.0781421 0)
(-0.520439 0.0571726 0)
(-0.600679 0.0565046 0)
(-0.680973 0.0548381 0)
(-0.760307 0.0527034 0)
(-0.83717 0.0505481 0)
(-0.911561 0.048488 0)
(-0.983555 0.0465672 0)
(-1.05328 0.0448025 0)
(-1.12088 0.0431932 0)
(-1.18653 0.0417249 0)
(-1.25037 0.0403924 0)
(-1.31255 0.0391666 0)
(-1.37321 0.0380444 0)
(-1.43244 0.0369938 0)
(-1.49034 0.0360123 0)
(-1.54696 0.0350691 0)
(-1.60234 0.0341598 0)
(-1.6565 0.0332608 0)
(-1.70944 0.0323599 0)
(-1.76113 0.0314434 0)
(-1.81153 0.0304989 0)
(-1.86057 0.0295144 0)
(-1.90816 0.0284788 0)
(-1.9542 0.0273815 0)
(-1.99856 0.0262131 0)
(-2.04113 0.0249652 0)
(-2.08174 0.0236301 0)
(-2.12023 0.0222015 0)
(-2.15644 0.020674 0)
(-2.19019 0.0190438 0)
(-2.22128 0.0173081 0)
(-2.24955 0.0154658 0)
(-2.27478 0.0135173 0)
(-2.29681 0.0114647 0)
(-2.31545 0.00931104 0)
(-2.33053 0.00706148 0)
(-2.3419 0.0047219 0)
(-2.34943 0.00229899 0)
(-2.35299 -0.000196888 0)
(-2.3524 -0.00273145 0)
(-2.34768 -0.00527388 0)
(-2.33882 -0.00781577 0)
(-2.32583 -0.0103485 0)
(-2.30875 -0.0128534 0)
(-2.28766 -0.0153106 0)
(-2.26267 -0.0176986 0)
(-2.23393 -0.0199953 0)
(-2.20163 -0.0221777 0)
(-2.166 -0.0242232 0)
(-2.12729 -0.0261087 0)
(-2.08581 -0.0278124 0)
(-2.04188 -0.029313 0)
(-1.99587 -0.0305911 0)
(-1.94815 -0.0316284 0)
(-1.89914 -0.0324094 0)
(-1.84926 -0.0329203 0)
(-1.79896 -0.0331503 0)
(-1.74868 -0.0330911 0)
(-1.69888 -0.0327375 0)
(-1.65001 -0.032087 0)
(-1.60252 -0.0311409 0)
(-1.55685 -0.0299032 0)
(-1.51342 -0.028381 0)
(-1.47264 -0.026584 0)
(-1.43489 -0.0245254 0)
(-1.40054 -0.0222212 0)
(-1.36991 -0.0196918 0)
(-1.34329 -0.0169601 0)
(-1.32095 -0.014051 0)
(-1.30312 -0.0109948 0)
(-1.29002 -0.00783464 0)
(-1.28178 -0.00462954 0)
(-1.27844 -0.00144598 0)
(-1.27998 0.00171463 0)
(-1.28642 0.0048316 0)
(-1.29765 0.00783422 0)
(-1.31352 0.0106872 0)
(-1.33381 0.0133591 0)
(-1.35828 0.0158226 0)
(-1.38665 0.0180543 0)
(-1.41856 0.020036 0)
(-1.45367 0.0217536 0)
(-1.49158 0.023199 0)
(-1.53188 0.0243673 0)
(-1.57412 0.0252592 0)
(-1.61787 0.0258772 0)
(-1.66267 0.0262286 0)
(-1.70807 0.0263217 0)
(-1.75364 0.0261682 0)
(-1.79891 0.0257793 0)
(-1.84348 0.0251688 0)
(-1.88691 0.024349 0)
(-1.92882 0.0233348 0)
(-1.96881 0.0221389 0)
(-2.00654 0.0207763 0)
(-2.04165 0.0192594 0)
(-2.07383 0.0176036 0)
(-2.10277 0.0158221 0)
(-2.12817 0.0139261 0)
(-2.14981 0.0119154 0)
(-2.16745 0.00978469 0)
(-2.18089 0.00753436 0)
(-2.18988 0.00519023 0)
(-2.19421 0.00278758 0)
(-2.19369 0.000387297 0)
(-2.18843 -0.00200273 0)
(-2.17837 -0.004417 0)
(-2.16344 -0.00685481 0)
(-2.1436 -0.00930979 0)
(-2.11884 -0.0117778 0)
(-2.08915 -0.0142531 0)
(-2.05454 -0.0167329 0)
(-2.01502 -0.0192137 0)
(-1.97064 -0.0216921 0)
(-1.92143 -0.0241602 0)
(-1.86749 -0.0266145 0)
(-1.8089 -0.0290581 0)
(-1.74572 -0.031494 0)
(-1.67808 -0.0339107 0)
(-1.6061 -0.0363048 0)
(-1.52989 -0.0386923 0)
(-1.4496 -0.0410721 0)
(-1.36538 -0.0434286 0)
(-1.27739 -0.0457857 0)
(-1.18577 -0.0481521 0)
(-1.0907 -0.0504965 0)
(-0.992339 -0.0528666 0)
(-0.890813 -0.0552774 0)
(-0.786391 -0.0577239 0)
(-0.679054 -0.0603913 0)
(-0.569223 -0.0633413 0)
(-0.456708 -0.0666341 0)
(-0.340531 -0.0705419 0)
(-0.223812 -0.0749164 0)
(-0.107301 -0.0786168 0)
(0.0208696 -0.0785359 0)
(0.14204 -0.0755512 0)
(0.263142 -0.0726558 0)
(0.383876 -0.0700324 0)
(0.503976 -0.0676188 0)
(0.623268 -0.0653562 0)
(0.741557 -0.0631982 0)
(0.858629 -0.0611114 0)
(0.974264 -0.059071 0)
(1.08824 -0.0570606 0)
(1.20034 -0.0550677 0)
(1.31034 -0.0530848 0)
(1.41805 -0.051106 0)
(1.52326 -0.0491289 0)
(1.62578 -0.0471509 0)
(1.72543 -0.0451725 0)
(1.82206 -0.0431935 0)
(1.9155 -0.0412162 0)
(2.00562 -0.0392418 0)
(2.09229 -0.0372739 0)
(2.17539 -0.0353152 0)
(2.25483 -0.0333698 0)
(2.33053 -0.0314415 0)
(2.40242 -0.029535 0)
(2.47045 -0.0276547 0)
(2.5346 -0.0258056 0)
(2.59485 -0.0239924 0)
(2.6512 -0.0222201 0)
(2.70368 -0.0204933 0)
(2.75233 -0.0188166 0)
(2.79721 -0.0171944 0)
(2.83837 -0.0156306 0)
(2.87592 -0.0141287 0)
(2.90996 -0.0126921 0)
(2.94059 -0.0113232 0)
(2.96794 -0.0100242 0)
(2.99215 -0.00879673 0)
(3.01335 -0.00764171 0)
(3.03171 -0.00655973 0)
(3.04737 -0.00555058 0)
(3.06049 -0.00461389 0)
(3.07124 -0.00374851 0)
(3.07977 -0.00295344 0)
(3.08625 -0.00222734 0)
(3.09084 -0.00157067 0)
(3.0937 -0.00098759 0)
(3.095 -0.000480475 0)
(3.09498 -3.55326e-05 0)
(3.09377 0.000359911 0)
(3.09147 0.000709848 0)
(3.0882 0.00101776 0)
(3.08407 0.001289 0)
(3.07916 0.00152776 0)
(3.07356 0.00174025 0)
(3.06731 0.00193272 0)
(3.06064 0.0021216 0)
(3.05063 0.00255441 0)
(-0.0190562 0.0028489 0)
(-0.045175 0.0508872 0)
(-0.0943403 0.0840625 0)
(-0.155691 0.104389 0)
(-0.224835 0.117941 0)
(-0.302422 0.12711 0)
(-0.38303 0.13272 0)
(-0.46398 0.136493 0)
(-0.543743 0.134511 0)
(-0.621558 0.131868 0)
(-0.697956 0.127949 0)
(-0.771851 0.123706 0)
(-0.843181 0.119382 0)
(-0.912165 0.115162 0)
(-0.978923 0.111142 0)
(-1.04358 0.107367 0)
(-1.10628 0.103859 0)
(-1.16715 0.100609 0)
(-1.22632 0.0976084 0)
(-1.28392 0.094825 0)
(-1.34005 0.0922385 0)
(-1.3948 0.0898066 0)
(-1.44825 0.0875051 0)
(-1.50044 0.0852902 0)
(-1.55142 0.0831345 0)
(-1.60118 0.0809995 0)
(-1.64972 0.0788533 0)
(-1.69701 0.0766648 0)
(-1.74302 0.0744049 0)
(-1.78766 0.072046 0)
(-1.83087 0.0695621 0)
(-1.87254 0.0669292 0)
(-1.91255 0.0641255 0)
(-1.95079 0.0611316 0)
(-1.9871 0.0579307 0)
(-2.02134 0.0545089 0)
(-2.05336 0.0508556 0)
(-2.08298 0.0469631 0)
(-2.11003 0.042828 0)
(-2.13434 0.0384504 0)
(-2.15575 0.0338349 0)
(-2.17409 0.0289902 0)
(-2.1892 0.0239294 0)
(-2.20092 0.0186692 0)
(-2.20913 0.0132305 0)
(-2.21374 0.00763257 0)
(-2.21461 0.00189884 0)
(-2.21162 -0.00390725 0)
(-2.20482 -0.00971008 0)
(-2.19419 -0.0154744 0)
(-2.17977 -0.0211637 0)
(-2.1616 -0.0267355 0)
(-2.13979 -0.0321429 0)
(-2.11445 -0.0373382 0)
(-2.08576 -0.042272 0)
(-2.0539 -0.0468961 0)
(-2.01912 -0.0511621 0)
(-1.98166 -0.0550248 0)
(-1.94184 -0.058441 0)
(-1.89996 -0.0613723 0)
(-1.8564 -0.0637838 0)
(-1.8115 -0.0656467 0)
(-1.76567 -0.0669369 0)
(-1.71932 -0.0676375 0)
(-1.67285 -0.0677373 0)
(-1.62668 -0.0672324 0)
(-1.58124 -0.0661242 0)
(-1.53692 -0.0644214 0)
(-1.49415 -0.0621379 0)
(-1.4533 -0.0592945 0)
(-1.41476 -0.0559171 0)
(-1.37886 -0.0520367 0)
(-1.34593 -0.0476885 0)
(-1.31627 -0.0429126 0)
(-1.29014 -0.0377537 0)
(-1.26777 -0.0322618 0)
(-1.24933 -0.0264896 0)
(-1.23499 -0.0204923 0)
(-1.22489 -0.0143316 0)
(-1.21912 -0.00808013 0)
(-1.21765 -0.00181423 0)
(-1.22047 0.00439615 0)
(-1.22753 0.0104727 0)
(-1.23871 0.016339 0)
(-1.25386 0.0219319 0)
(-1.27277 0.0271951 0)
(-1.2952 0.0320767 0)
(-1.32088 0.0365317 0)
(-1.3495 0.0405209 0)
(-1.38074 0.0440128 0)
(-1.41424 0.0469827 0)
(-1.44962 0.049414 0)
(-1.48651 0.0512963 0)
(-1.5245 0.0526264 0)
(-1.56319 0.0534068 0)
(-1.60219 0.053646 0)
(-1.64108 0.0533566 0)
(-1.67948 0.0525558 0)
(-1.71699 0.0512632 0)
(-1.75323 0.0495014 0)
(-1.78784 0.0472944 0)
(-1.82046 0.0446684 0)
(-1.85077 0.0416497 0)
(-1.87845 0.0382656 0)
(-1.90318 0.0345458 0)
(-1.92467 0.0305232 0)
(-1.94267 0.0262281 0)
(-1.95695 0.0216767 0)
(-1.96731 0.0168708 0)
(-1.97353 0.0118218 0)
(-1.97536 0.00658017 0)
(-1.9726 0.00122701 0)
(-1.96539 -0.00414887 0)
(-1.95357 -0.0095302 0)
(-1.93708 -0.01494 0)
(-1.91583 -0.020369 0)
(-1.8898 -0.0257987 0)
(-1.85895 -0.031211 0)
(-1.82329 -0.0365893 0)
(-1.78281 -0.0419185 0)
(-1.73755 -0.0471875 0)
(-1.68753 -0.0523814 0)
(-1.63279 -0.0574777 0)
(-1.57342 -0.0624574 0)
(-1.50949 -0.0673185 0)
(-1.44109 -0.0720667 0)
(-1.3683 -0.0766727 0)
(-1.29127 -0.0811088 0)
(-1.21011 -0.0854007 0)
(-1.12492 -0.0895489 0)
(-1.03587 -0.0934978 0)
(-0.943108 -0.0972743 0)
(-0.846729 -0.100916 0)
(-0.74696 -0.10434 0)
(-0.643887 -0.107613 0)
(-0.537622 -0.110795 0)
(-0.428518 -0.113785 0)
(-0.316171 -0.116792 0)
(-0.20162 -0.119867 0)
(-0.0845725 -0.122791 0)
(0.0380011 -0.125641 0)
(0.15923 -0.128558 0)
(0.280847 -0.1313 0)
(0.404278 -0.13182 0)
(0.527047 -0.130422 0)
(0.649731 -0.128876 0)
(0.772105 -0.127242 0)
(0.893931 -0.125523 0)
(1.01498 -0.123691 0)
(1.13502 -0.121721 0)
(1.25383 -0.119596 0)
(1.37118 -0.117306 0)
(1.48684 -0.114848 0)
(1.60059 -0.112223 0)
(1.71223 -0.109435 0)
(1.82155 -0.106492 0)
(1.92835 -0.1034 0)
(2.03246 -0.100171 0)
(2.13369 -0.0968132 0)
(2.2319 -0.0933391 0)
(2.32692 -0.0897609 0)
(2.41862 -0.086091 0)
(2.50689 -0.0823432 0)
(2.59161 -0.0785314 0)
(2.67268 -0.0746706 0)
(2.75004 -0.0707755 0)
(2.82362 -0.0668619 0)
(2.89338 -0.0629453 0)
(2.95929 -0.0590417 0)
(3.02133 -0.0551666 0)
(3.07953 -0.0513358 0)
(3.13389 -0.0475641 0)
(3.18446 -0.0438663 0)
(3.23131 -0.0402561 0)
(3.27448 -0.0367462 0)
(3.31409 -0.0333485 0)
(3.35021 -0.0300736 0)
(3.38297 -0.0269308 0)
(3.41249 -0.0239278 0)
(3.43888 -0.0210713 0)
(3.46231 -0.0183662 0)
(3.4829 -0.015816 0)
(3.50081 -0.0134229 0)
(3.51619 -0.0111877 0)
(3.5292 -0.0091101 0)
(3.53999 -0.00718891 0)
(3.54871 -0.0054222 0)
(3.55552 -0.00380884 0)
(3.56057 -0.00235069 0)
(3.564 -0.00105431 0)
(3.56588 9.14399e-05 0)
(3.56647 0.00110803 0)
(3.56587 0.002009 0)
(3.56424 0.00280569 0)
(3.56167 0.00351067 0)
(3.55827 0.00413603 0)
(3.55412 0.00469624 0)
(3.54927 0.0052097 0)
(3.54395 0.00573833 0)
(3.53578 0.00650353 0)
(-0.034421 0.0463132 0)
(-0.0712149 0.10317 0)
(-0.127153 0.147012 0)
(-0.190554 0.17754 0)
(-0.258734 0.198538 0)
(-0.330813 0.211613 0)
(-0.403791 0.217739 0)
(-0.475346 0.218698 0)
(-0.545516 0.21416 0)
(-0.615024 0.207642 0)
(-0.683481 0.200723 0)
(-0.750057 0.193756 0)
(-0.814626 0.18688 0)
(-0.877239 0.180237 0)
(-0.937961 0.173923 0)
(-0.99688 0.167988 0)
(-1.05409 0.162454 0)
(-1.1097 0.157315 0)
(-1.16381 0.152548 0)
(-1.21652 0.148115 0)
(-1.2679 0.143975 0)
(-1.31803 0.140075 0)
(-1.36697 0.136366 0)
(-1.41476 0.132793 0)
(-1.46141 0.129303 0)
(-1.50695 0.125843 0)
(-1.55134 0.122361 0)
(-1.59457 0.118811 0)
(-1.63659 0.115145 0)
(-1.67733 0.11132 0)
(-1.71672 0.107297 0)
(-1.75465 0.103037 0)
(-1.79104 0.0985069 0)
(-1.82574 0.0936774 0)
(-1.85863 0.0885229 0)
(-1.88957 0.0830226 0)
(-1.9184 0.0771612 0)
(-1.94497 0.0709285 0)
(-1.96911 0.0643209 0)
(-1.99067 0.057341 0)
(-2.00947 0.0499982 0)
(-2.02537 0.0423087 0)
(-2.03822 0.034296 0)
(-2.04786 0.0259899 0)
(-2.05419 0.0174269 0)
(-2.0571 0.00864558 0)
(-2.05648 -0.000303913 0)
(-2.0523 -0.00932634 0)
(-2.04452 -0.0183235 0)
(-2.03316 -0.0272347 0)
(-2.01825 -0.0359956 0)
(-1.99986 -0.0445366 0)
(-1.97809 -0.052784 0)
(-1.95307 -0.0606624 0)
(-1.92497 -0.0680956 0)
(-1.89398 -0.0750089 0)
(-1.86034 -0.0813289 0)
(-1.8243 -0.0869875 0)
(-1.78615 -0.0919211 0)
(-1.74621 -0.0960737 0)
(-1.70483 -0.0993967 0)
(-1.66235 -0.10185 0)
(-1.61916 -0.103404 0)
(-1.57563 -0.104038 0)
(-1.53217 -0.103743 0)
(-1.48916 -0.102519 0)
(-1.44698 -0.10038 0)
(-1.40603 -0.0973439 0)
(-1.36666 -0.0934426 0)
(-1.32923 -0.0887151 0)
(-1.29407 -0.0832091 0)
(-1.26149 -0.0769798 0)
(-1.23176 -0.0700888 0)
(-1.20514 -0.0626034 0)
(-1.18183 -0.0545969 0)
(-1.16202 -0.0461488 0)
(-1.14584 -0.0373441 0)
(-1.13341 -0.0282702 0)
(-1.12482 -0.0190161 0)
(-1.12012 -0.00967532 0)
(-1.11927 -0.000346564 0)
(-1.12224 0.00886308 0)
(-1.12896 0.0178399 0)
(-1.13931 0.0264798 0)
(-1.15313 0.0346925 0)
(-1.17021 0.042397 0)
(-1.19033 0.0495199 0)
(-1.21323 0.0559967 0)
(-1.23863 0.0617712 0)
(-1.26622 0.0667976 0)
(-1.29569 0.0710395 0)
(-1.32668 0.0744711 0)
(-1.35886 0.0770759 0)
(-1.39187 0.0788473 0)
(-1.42535 0.0797868 0)
(-1.45893 0.0799047 0)
(-1.49225 0.0792175 0)
(-1.52495 0.0777487 0)
(-1.55668 0.0755257 0)
(-1.58709 0.072581 0)
(-1.61585 0.0689494 0)
(-1.64264 0.0646692 0)
(-1.66715 0.0597792 0)
(-1.68908 0.0543205 0)
(-1.70815 0.0483371 0)
(-1.72407 0.0418771 0)
(-1.73661 0.0349829 0)
(-1.74556 0.0276818 0)
(-1.75072 0.0199913 0)
(-1.75187 0.0119562 0)
(-1.74874 0.00367468 0)
(-1.74135 -0.00472933 0)
(-1.72966 -0.0131915 0)
(-1.71355 -0.0217119 0)
(-1.69292 -0.0302857 0)
(-1.66773 -0.0388888 0)
(-1.63791 -0.0474883 0)
(-1.60345 -0.0560529 0)
(-1.56434 -0.0645551 0)
(-1.52059 -0.0729694 0)
(-1.47221 -0.0812777 0)
(-1.41922 -0.0894555 0)
(-1.36167 -0.0974649 0)
(-1.29962 -0.105273 0)
(-1.23317 -0.112871 0)
(-1.16238 -0.120271 0)
(-1.08731 -0.127429 0)
(-1.00812 -0.13429 0)
(-0.924921 -0.140888 0)
(-0.837777 -0.147237 0)
(-0.746868 -0.153243 0)
(-0.652332 -0.158926 0)
(-0.554198 -0.164377 0)
(-0.452788 -0.169479 0)
(-0.348074 -0.174279 0)
(-0.240098 -0.178917 0)
(-0.129581 -0.183275 0)
(-0.0151379 -0.187332 0)
(0.101063 -0.191115 0)
(0.218561 -0.194439 0)
(0.338159 -0.197042 0)
(0.458307 -0.19921 0)
(0.578801 -0.200923 0)
(0.699922 -0.2014 0)
(0.821331 -0.200785 0)
(0.942896 -0.199704 0)
(1.06425 -0.198279 0)
(1.18507 -0.196527 0)
(1.3051 -0.194441 0)
(1.42407 -0.192011 0)
(1.54175 -0.189235 0)
(1.6579 -0.186115 0)
(1.77231 -0.182658 0)
(1.88475 -0.178877 0)
(1.99502 -0.174785 0)
(2.10293 -0.1704 0)
(2.20828 -0.165738 0)
(2.3109 -0.16082 0)
(2.41062 -0.155666 0)
(2.50729 -0.150297 0)
(2.60076 -0.144734 0)
(2.69089 -0.139002 0)
(2.77759 -0.133124 0)
(2.86074 -0.127124 0)
(2.94026 -0.121029 0)
(3.01608 -0.114863 0)
(3.08814 -0.108653 0)
(3.15641 -0.102426 0)
(3.22086 -0.0962086 0)
(3.28148 -0.0900269 0)
(3.3383 -0.0839072 0)
(3.39134 -0.0778744 0)
(3.44065 -0.071953 0)
(3.48628 -0.0661655 0)
(3.52832 -0.0605336 0)
(3.56685 -0.0550766 0)
(3.60197 -0.0498121 0)
(3.6338 -0.0447554 0)
(3.66246 -0.0399197 0)
(3.68809 -0.0353158 0)
(3.71082 -0.0309519 0)
(3.7308 -0.026834 0)
(3.74818 -0.0229658 0)
(3.76311 -0.019349 0)
(3.77574 -0.015983 0)
(3.78623 -0.0128659 0)
(3.79473 -0.00999451 0)
(3.80139 -0.00736443 0)
(3.80635 -0.00497057 0)
(3.80977 -0.00281138 0)
(3.81175 -0.00088709 0)
(3.81246 0.000815376 0)
(3.81205 0.00232066 0)
(3.81064 0.0036508 0)
(3.80834 0.00482713 0)
(3.80524 0.00587074 0)
(3.80143 0.00680546 0)
(3.79696 0.00766451 0)
(3.79207 0.00851942 0)
(3.78459 0.00965278 0)
(-0.0408597 0.103329 0)
(-0.0848953 0.163033 0)
(-0.146056 0.21114 0)
(-0.210132 0.245654 0)
(-0.275359 0.268599 0)
(-0.341221 0.28191 0)
(-0.406724 0.287368 0)
(-0.470948 0.287034 0)
(-0.533944 0.281905 0)
(-0.596152 0.274168 0)
(-0.657372 0.265488 0)
(-0.717169 0.256531 0)
(-0.775391 0.247629 0)
(-0.832013 0.238998 0)
(-0.887055 0.230766 0)
(-0.940571 0.223006 0)
(-0.992628 0.215746 0)
(-1.0433 0.208982 0)
(-1.09266 0.202686 0)
(-1.14079 0.196813 0)
(-1.18775 0.19131 0)
(-1.23359 0.186114 0)
(-1.27836 0.181157 0)
(-1.32209 0.176371 0)
(-1.36479 0.171687 0)
(-1.40646 0.167037 0)
(-1.44709 0.162353 0)
(-1.48664 0.157572 0)
(-1.52508 0.152632 0)
(-1.56233 0.147477 0)
(-1.59832 0.142052 0)
(-1.63297 0.136308 0)
(-1.66616 0.130199 0)
(-1.69779 0.123685 0)
(-1.72771 0.116733 0)
(-1.7558 0.109314 0)
(-1.78191 0.101408 0)
(-1.80588 0.093001 0)
(-1.82756 0.0840889 0)
(-1.84679 0.0746755 0)
(-1.86341 0.0647744 0)
(-1.87727 0.0544083 0)
(-1.88822 0.04361 0)
(-1.89613 0.032422 0)
(-1.90089 0.0208948 0)
(-1.90239 0.0090849 0)
(-1.90051 -0.00292683 0)
(-1.89526 -0.0150175 0)
(-1.88659 -0.0270689 0)
(-1.87452 -0.038991 0)
(-1.8591 -0.050693 0)
(-1.84038 -0.0620792 0)
(-1.81848 -0.0730493 0)
(-1.79352 -0.0835012 0)
(-1.76567 -0.0933322 0)
(-1.73513 -0.102441 0)
(-1.70212 -0.110731 0)
(-1.66691 -0.118111 0)
(-1.62978 -0.124496 0)
(-1.59104 -0.129814 0)
(-1.55103 -0.134002 0)
(-1.51009 -0.13701 0)
(-1.46858 -0.138801 0)
(-1.42688 -0.139353 0)
(-1.38536 -0.138657 0)
(-1.34439 -0.136721 0)
(-1.30434 -0.133565 0)
(-1.26556 -0.129224 0)
(-1.22839 -0.123743 0)
(-1.19315 -0.117182 0)
(-1.16015 -0.109609 0)
(-1.12966 -0.101105 0)
(-1.10191 -0.0917573 0)
(-1.07713 -0.0816624 0)
(-1.05549 -0.0709215 0)
(-1.03714 -0.0596429 0)
(-1.02218 -0.0479419 0)
(-1.01069 -0.0359366 0)
(-1.00273 -0.023743 0)
(-0.998314 -0.0114762 0)
(-0.997402 0.000741321 0)
(-0.999948 0.0127658 0)
(-1.00587 0.0244488 0)
(-1.01503 0.0356592 0)
(-1.02728 0.0462818 0)
(-1.04241 0.0562138 0)
(-1.0602 0.0653629 0)
(-1.08041 0.0736482 0)
(-1.10278 0.0810004 0)
(-1.12701 0.0873623 0)
(-1.15282 0.0926892 0)
(-1.17989 0.0969489 0)
(-1.2079 0.100121 0)
(-1.23653 0.102199 0)
(-1.26544 0.103183 0)
(-1.29431 0.103086 0)
(-1.3228 0.101931 0)
(-1.35059 0.0997449 0)
(-1.37735 0.0965643 0)
(-1.40276 0.0924296 0)
(-1.42652 0.0873855 0)
(-1.44833 0.0814802 0)
(-1.4679 0.0747632 0)
(-1.48496 0.0672875 0)
(-1.49922 0.0591109 0)
(-1.51044 0.0502937 0)
(-1.51838 0.0408864 0)
(-1.52285 0.0309213 0)
(-1.52366 0.0204354 0)
(-1.52055 0.00951813 0)
(-1.51332 -0.00167741 0)
(-1.50212 -0.0130232 0)
(-1.48676 -0.0244863 0)
(-1.46714 -0.0360543 0)
(-1.44316 -0.0477058 0)
(-1.41478 -0.0594043 0)
(-1.38193 -0.0711022 0)
(-1.3446 -0.0827558 0)
(-1.30277 -0.0943275 0)
(-1.25644 -0.105783 0)
(-1.20564 -0.1171 0)
(-1.15038 -0.128247 0)
(-1.09068 -0.13917 0)
(-1.02662 -0.14982 0)
(-0.958286 -0.160184 0)
(-0.885729 -0.17029 0)
(-0.80901 -0.180075 0)
(-0.728269 -0.189456 0)
(-0.643619 -0.198475 0)
(-0.555089 -0.207177 0)
(-0.462906 -0.21544 0)
(-0.367177 -0.223259 0)
(-0.267762 -0.230784 0)
(-0.165333 -0.237925 0)
(-0.059564 -0.244616 0)
(0.0498341 -0.250936 0)
(0.160861 -0.25681 0)
(0.274311 -0.262058 0)
(0.389411 -0.266656 0)
(0.505872 -0.270609 0)
(0.62365 -0.273712 0)
(0.742169 -0.276109 0)
(0.861051 -0.277696 0)
(0.980313 -0.278083 0)
(1.09992 -0.277407 0)
(1.21966 -0.276033 0)
(1.33917 -0.274099 0)
(1.45812 -0.271648 0)
(1.57624 -0.268695 0)
(1.69324 -0.265245 0)
(1.8089 -0.261305 0)
(1.92297 -0.256885 0)
(2.03524 -0.252002 0)
(2.14549 -0.246674 0)
(2.25352 -0.240923 0)
(2.35914 -0.234773 0)
(2.46216 -0.228248 0)
(2.56241 -0.221377 0)
(2.65974 -0.214187 0)
(2.75399 -0.206709 0)
(2.84502 -0.198973 0)
(2.9327 -0.191011 0)
(3.01694 -0.182857 0)
(3.09763 -0.174543 0)
(3.17469 -0.166105 0)
(3.24805 -0.157579 0)
(3.31767 -0.149001 0)
(3.38351 -0.140408 0)
(3.44556 -0.131835 0)
(3.50382 -0.12332 0)
(3.55831 -0.114898 0)
(3.60905 -0.106603 0)
(3.65611 -0.098468 0)
(3.69955 -0.0905241 0)
(3.73944 -0.0828 0)
(3.77589 -0.0753221 0)
(3.809 -0.0681138 0)
(3.83888 -0.0611956 0)
(3.86567 -0.0545849 0)
(3.8895 -0.0482958 0)
(3.91051 -0.042339 0)
(3.92885 -0.0367221 0)
(3.94467 -0.0314493 0)
(3.95813 -0.0265222 0)
(3.96937 -0.0219397 0)
(3.97856 -0.0176985 0)
(3.98584 -0.0137934 0)
(3.99137 -0.0102177 0)
(3.99528 -0.00696322 0)
(3.99774 -0.00402532 0)
(3.99887 -0.00140433 0)
(3.99882 0.000913937 0)
(3.99774 0.00296207 0)
(3.99572 0.00477098 0)
(3.99288 0.0063693 0)
(3.98931 0.00778552 0)
(3.98509 0.00905141 0)
(3.98027 0.0102119 0)
(3.97513 0.011338 0)
(3.9674 0.0127633 0)
(-0.0438292 0.168311 0)
(-0.0917454 0.226141 0)
(-0.155989 0.274589 0)
(-0.218834 0.309492 0)
(-0.28018 0.331984 0)
(-0.34032 0.344286 0)
(-0.399314 0.348558 0)
(-0.457025 0.346903 0)
(-0.513608 0.34084 0)
(-0.569322 0.332091 0)
(-0.624085 0.322078 0)
(-0.677669 0.311593 0)
(-0.729963 0.301093 0)
(-0.780932 0.290859 0)
(-0.83058 0.28106 0)
(-0.878938 0.271789 0)
(-0.926054 0.263086 0)
(-0.97198 0.25495 0)
(-1.01677 0.247353 0)
(-1.06049 0.240246 0)
(-1.10318 0.233566 0)
(-1.14489 0.227241 0)
(-1.18564 0.221193 0)
(-1.22545 0.21534 0)
(-1.26434 0.209599 0)
(-1.3023 0.203891 0)
(-1.33932 0.198133 0)
(-1.37535 0.192249 0)
(-1.41035 0.186164 0)
(-1.44426 0.179808 0)
(-1.47701 0.173115 0)
(-1.50851 0.166023 0)
(-1.53867 0.158476 0)
(-1.56736 0.150425 0)
(-1.59446 0.141826 0)
(-1.61984 0.132645 0)
(-1.64335 0.122855 0)
(-1.66485 0.112441 0)
(-1.68418 0.101395 0)
(-1.70119 0.0897229 0)
(-1.71571 0.0774422 0)
(-1.7276 0.0645817 0)
(-1.73672 0.0511836 0)
(-1.74292 0.0373025 0)
(-1.7461 0.0230025 0)
(-1.74615 0.00835545 0)
(-1.74295 -0.00652497 0)
(-1.73652 -0.0214847 0)
(-1.72682 -0.0363892 0)
(-1.71386 -0.051123 0)
(-1.69768 -0.0655695 0)
(-1.67835 -0.0796074 0)
(-1.65598 -0.0931107 0)
(-1.63069 -0.105951 0)
(-1.60265 -0.118001 0)
(-1.57206 -0.129134 0)
(-1.53915 -0.139228 0)
(-1.50417 -0.148172 0)
(-1.46741 -0.155863 0)
(-1.42917 -0.162212 0)
(-1.38979 -0.167144 0)
(-1.3496 -0.1706 0)
(-1.30896 -0.172538 0)
(-1.26823 -0.172934 0)
(-1.22778 -0.171784 0)
(-1.18796 -0.169102 0)
(-1.14912 -0.164921 0)
(-1.11159 -0.159288 0)
(-1.0757 -0.152267 0)
(-1.04174 -0.143936 0)
(-1.00999 -0.134387 0)
(-0.980688 -0.123725 0)
(-0.954055 -0.112065 0)
(-0.930274 -0.0995301 0)
(-0.909497 -0.0862493 0)
(-0.89184 -0.0723583 0)
(-0.877384 -0.0579995 0)
(-0.866179 -0.0433189 0)
(-0.858251 -0.0284575 0)
(-0.853605 -0.0135499 0)
(-0.852187 0.00126184 0)
(-0.853926 0.0158035 0)
(-0.858736 0.0298952 0)
(-0.866479 0.0433817 0)
(-0.87699 0.0561261 0)
(-0.890076 0.0680072 0)
(-0.905521 0.0789171 0)
(-0.923091 0.0887617 0)
(-0.942534 0.0974607 0)
(-0.963583 0.104948 0)
(-0.985959 0.111173 0)
(-1.00938 0.116098 0)
(-1.03354 0.119701 0)
(-1.05814 0.121972 0)
(-1.08288 0.122915 0)
(-1.10746 0.122544 0)
(-1.13156 0.120884 0)
(-1.1549 0.11797 0)
(-1.17716 0.113842 0)
(-1.19805 0.10855 0)
(-1.21729 0.102145 0)
(-1.2346 0.0946838 0)
(-1.24972 0.0862254 0)
(-1.26238 0.0768331 0)
(-1.27232 0.0665769 0)
(-1.2793 0.0555271 0)
(-1.28312 0.0437376 0)
(-1.28358 0.0312472 0)
(-1.28048 0.0181218 0)
(-1.27352 0.00451121 0)
(-1.26279 -0.00939923 0)
(-1.2482 -0.0235125 0)
(-1.22961 -0.0378036 0)
(-1.20692 -0.0522444 0)
(-1.18003 -0.0668006 0)
(-1.14889 -0.0814238 0)
(-1.11343 -0.0960514 0)
(-1.07364 -0.110627 0)
(-1.0295 -0.125104 0)
(-0.981005 -0.139437 0)
(-0.928181 -0.153603 0)
(-0.871025 -0.167568 0)
(-0.809564 -0.181257 0)
(-0.743863 -0.194606 0)
(-0.674021 -0.207593 0)
(-0.600052 -0.220268 0)
(-0.522034 -0.232557 0)
(-0.440104 -0.244349 0)
(-0.354353 -0.255681 0)
(-0.26472 -0.266634 0)
(-0.171646 -0.277102 0)
(-0.0751411 -0.287035 0)
(0.0254885 -0.296526 0)
(0.128443 -0.305463 0)
(0.234143 -0.313787 0)
(0.342462 -0.321401 0)
(0.452753 -0.328348 0)
(0.564949 -0.334514 0)
(0.678653 -0.339834 0)
(0.793591 -0.344293 0)
(0.909565 -0.347765 0)
(1.02623 -0.350311 0)
(1.14325 -0.351827 0)
(1.26054 -0.352111 0)
(1.37806 -0.351273 0)
(1.49558 -0.349547 0)
(1.61281 -0.347063 0)
(1.72942 -0.343885 0)
(1.84513 -0.340041 0)
(1.95969 -0.335554 0)
(2.07284 -0.330439 0)
(2.18436 -0.324718 0)
(2.29403 -0.318414 0)
(2.40163 -0.311552 0)
(2.50698 -0.30416 0)
(2.60987 -0.296271 0)
(2.71014 -0.287915 0)
(2.8076 -0.279129 0)
(2.90212 -0.269948 0)
(2.99354 -0.260409 0)
(3.08172 -0.250551 0)
(3.16656 -0.240415 0)
(3.24793 -0.230043 0)
(3.32576 -0.219477 0)
(3.39995 -0.208763 0)
(3.47046 -0.197944 0)
(3.53724 -0.187067 0)
(3.60025 -0.176178 0)
(3.65949 -0.165324 0)
(3.71496 -0.15455 0)
(3.76669 -0.143901 0)
(3.81472 -0.13342 0)
(3.85909 -0.123148 0)
(3.89989 -0.113126 0)
(3.9372 -0.103388 0)
(3.97111 -0.0939669 0)
(4.00174 -0.084893 0)
(4.02921 -0.0761912 0)
(4.05365 -0.0678828 0)
(4.0752 -0.0599851 0)
(4.09401 -0.052511 0)
(4.11023 -0.0454693 0)
(4.12401 -0.0388649 0)
(4.13551 -0.0326989 0)
(4.14487 -0.0269694 0)
(4.15227 -0.0216716 0)
(4.15784 -0.0167983 0)
(4.16175 -0.0123403 0)
(4.16414 -0.00828789 0)
(4.16515 -0.00463718 0)
(4.16495 -0.0013858 0)
(4.16369 0.00149001 0)
(4.16147 0.00403033 0)
(4.15839 0.00627126 0)
(4.15457 0.00824735 0)
(4.15009 0.00999361 0)
(4.14503 0.0115487 0)
(4.13945 0.0129676 0)
(4.13365 0.0143178 0)
(4.12515 0.0159919 0)
(-0.0491104 0.23374 0)
(-0.0955037 0.288984 0)
(-0.159865 0.335454 0)
(-0.219946 0.368424 0)
(-0.276995 0.389066 0)
(-0.331752 0.399694 0)
(-0.384877 0.402499 0)
(-0.436631 0.399497 0)
(-0.487263 0.392332 0)
(-0.53698 0.382541 0)
(-0.585778 0.371368 0)
(-0.633553 0.359623 0)
(-0.680241 0.347815 0)
(-0.725813 0.336266 0)
(-0.770274 0.325172 0)
(-0.813645 0.314645 0)
(-0.85596 0.304734 0)
(-0.897258 0.295443 0)
(-0.937584 0.286744 0)
(-0.976977 0.278584 0)
(-1.01547 0.270894 0)
(-1.05311 0.263595 0)
(-1.08989 0.256598 0)
(-1.12585 0.249812 0)
(-1.16098 0.243144 0)
(-1.19527 0.236502 0)
(-1.2287 0.229792 0)
(-1.26124 0.222927 0)
(-1.29284 0.215819 0)
(-1.32344 0.208388 0)
(-1.35297 0.200554 0)
(-1.38135 0.192247 0)
(-1.40847 0.183399 0)
(-1.43423 0.173952 0)
(-1.45852 0.163854 0)
(-1.48118 0.153062 0)
(-1.5021 0.141546 0)
(-1.52111 0.129284 0)
(-1.53807 0.116268 0)
(-1.55282 0.102505 0)
(-1.5652 0.0880138 0)
(-1.57506 0.0728308 0)
(-1.58225 0.0570066 0)
(-1.58665 0.0406076 0)
(-1.58813 0.023711 0)
(-1.5866 0.00640312 0)
(-1.58191 -0.0111681 0)
(-1.57411 -0.028816 0)
(-1.56315 -0.0463934 0)
(-1.54904 -0.0637615 0)
(-1.53181 -0.0807789 0)
(-1.51155 -0.0972985 0)
(-1.48834 -0.113169 0)
(-1.46232 -0.128237 0)
(-1.43366 -0.142349 0)
(-1.40254 -0.155355 0)
(-1.3692 -0.167111 0)
(-1.33389 -0.177483 0)
(-1.2969 -0.186351 0)
(-1.25855 -0.193611 0)
(-1.21914 -0.199179 0)
(-1.17903 -0.202987 0)
(-1.13857 -0.204989 0)
(-1.0981 -0.205163 0)
(-1.05798 -0.203508 0)
(-1.01857 -0.200049 0)
(-0.980202 -0.194831 0)
(-0.943191 -0.187916 0)
(-0.907842 -0.179386 0)
(-0.874435 -0.169341 0)
(-0.843221 -0.157896 0)
(-0.814426 -0.145181 0)
(-0.788242 -0.131335 0)
(-0.764829 -0.11651 0)
(-0.744316 -0.100862 0)
(-0.726795 -0.0845516 0)
(-0.712327 -0.0677469 0)
(-0.700938 -0.0506191 0)
(-0.692628 -0.0333332 0)
(-0.687382 -0.0160421 0)
(-0.685143 0.00109706 0)
(-0.685812 0.0178859 0)
(-0.6893 0.0341168 0)
(-0.695465 0.0496125 0)
(-0.704139 0.0642181 0)
(-0.71513 0.0777969 0)
(-0.728228 0.0902283 0)
(-0.743205 0.101408 0)
(-0.759821 0.111246 0)
(-0.777821 0.119672 0)
(-0.796944 0.126628 0)
(-0.816921 0.132074 0)
(-0.837474 0.135986 0)
(-0.858324 0.138354 0)
(-0.879189 0.139182 0)
(-0.899786 0.138487 0)
(-0.919832 0.136296 0)
(-0.939047 0.13265 0)
(-0.957153 0.127593 0)
(-0.973879 0.121181 0)
(-0.988957 0.113473 0)
(-1.00213 0.104532 0)
(-1.01315 0.0944238 0)
(-1.02176 0.0832226 0)
(-1.02773 0.0710086 0)
(-1.03083 0.0578573 0)
(-1.03087 0.043823 0)
(-1.02767 0.0289571 0)
(-1.02098 0.0133725 0)
(-1.01058 -0.00272259 0)
(-0.996681 -0.0191473 0)
(-0.979049 -0.0358455 0)
(-0.957563 -0.0527797 0)
(-0.932123 -0.0699068 0)
(-0.902645 -0.0871827 0)
(-0.869055 -0.104549 0)
(-0.831303 -0.121925 0)
(-0.789359 -0.139244 0)
(-0.743204 -0.156448 0)
(-0.692843 -0.173485 0)
(-0.638285 -0.190327 0)
(-0.579521 -0.206943 0)
(-0.516588 -0.223235 0)
(-0.449535 -0.239129 0)
(-0.378466 -0.254593 0)
(-0.303316 -0.269686 0)
(-0.22427 -0.284335 0)
(-0.141453 -0.298446 0)
(-0.0548935 -0.31202 0)
(0.0357693 -0.325104 0)
(0.12936 -0.337564 0)
(0.226088 -0.349402 0)
(0.325974 -0.360503 0)
(0.428421 -0.370865 0)
(0.533316 -0.380475 0)
(0.640435 -0.389206 0)
(0.749435 -0.397065 0)
(0.860084 -0.403968 0)
(0.97209 -0.409858 0)
(1.08519 -0.414701 0)
(1.19917 -0.41842 0)
(1.31374 -0.421037 0)
(1.42863 -0.422474 0)
(1.54371 -0.422628 0)
(1.65886 -0.421581 0)
(1.7739 -0.419488 0)
(1.88854 -0.416461 0)
(2.0025 -0.41257 0)
(2.1155 -0.407858 0)
(2.2273 -0.402357 0)
(2.33764 -0.396097 0)
(2.44631 -0.389106 0)
(2.55308 -0.381414 0)
(2.65776 -0.373055 0)
(2.76014 -0.364066 0)
(2.86005 -0.354483 0)
(2.9573 -0.344346 0)
(3.05174 -0.333697 0)
(3.14321 -0.322579 0)
(3.23157 -0.311038 0)
(3.31669 -0.299121 0)
(3.39844 -0.286875 0)
(3.47674 -0.274351 0)
(3.55149 -0.261602 0)
(3.62262 -0.24868 0)
(3.69007 -0.235641 0)
(3.75379 -0.222539 0)
(3.81376 -0.20943 0)
(3.86999 -0.196371 0)
(3.92246 -0.183415 0)
(3.97122 -0.170618 0)
(4.01631 -0.158031 0)
(4.05778 -0.145704 0)
(4.09571 -0.133684 0)
(4.1302 -0.122014 0)
(4.16134 -0.110733 0)
(4.18925 -0.0998751 0)
(4.21406 -0.0894716 0)
(4.2359 -0.0795472 0)
(4.25492 -0.070122 0)
(4.27127 -0.0612108 0)
(4.2851 -0.0528237 0)
(4.29656 -0.0449655 0)
(4.30583 -0.0376371 0)
(4.31304 -0.0308353 0)
(4.31837 -0.0245539 0)
(4.32196 -0.0187834 0)
(4.32397 -0.0135131 0)
(4.32455 -0.00873401 0)
(4.32386 -0.00444506 0)
(4.32209 -0.000633633 0)
(4.31932 0.00273832 0)
(4.31568 0.00571524 0)
(4.31126 0.00833622 0)
(4.30618 0.0106406 0)
(4.30052 0.0126692 0)
(4.29436 0.0144667 0)
(4.28775 0.0160969 0)
(4.28105 0.017622 0)
(4.27144 0.0194989 0)
(-0.0722608 0.290518 0)
(-0.0984867 0.348148 0)
(-0.159268 0.392537 0)
(-0.215343 0.422194 0)
(-0.267925 0.440109 0)
(-0.317605 0.448635 0)
(-0.3653 0.449789 0)
(-0.411498 0.445423 0)
(-0.456524 0.437131 0)
(-0.500596 0.426318 0)
(-0.543772 0.414109 0)
(-0.586031 0.401291 0)
(-0.62735 0.38839 0)
(-0.66772 0.375748 0)
(-0.707148 0.363579 0)
(-0.745654 0.352007 0)
(-0.783264 0.341087 0)
(-0.82001 0.330827 0)
(-0.855923 0.321198 0)
(-0.891032 0.312143 0)
(-0.925365 0.303591 0)
(-0.958942 0.295454 0)
(-0.991775 0.287636 0)
(-1.02387 0.280039 0)
(-1.05523 0.27256 0)
(-1.08583 0.265095 0)
(-1.11565 0.257545 0)
(-1.14466 0.249808 0)
(-1.17281 0.24179 0)
(-1.20005 0.233396 0)
(-1.22631 0.22454 0)
(-1.2515 0.215139 0)
(-1.27553 0.205116 0)
(-1.2983 0.194404 0)
(-1.31969 0.182941 0)
(-1.33956 0.170678 0)
(-1.35779 0.157577 0)
(-1.37422 0.143613 0)
(-1.38871 0.128776 0)
(-1.40109 0.113071 0)
(-1.4112 0.0965213 0)
(-1.41891 0.0791671 0)
(-1.42404 0.0610677 0)
(-1.42647 0.0423006 0)
(-1.42609 0.022955 0)
(-1.42275 0.00313762 0)
(-1.41638 -0.0169695 0)
(-1.40698 -0.037155 0)
(-1.39452 -0.0572572 0)
(-1.37899 -0.0771154 0)
(-1.36043 -0.0965635 0)
(-1.33891 -0.11543 0)
(-1.31452 -0.133537 0)
(-1.2874 -0.150706 0)
(-1.2577 -0.166759 0)
(-1.22563 -0.181523 0)
(-1.1914 -0.194829 0)
(-1.15529 -0.206524 0)
(-1.11757 -0.216468 0)
(-1.07856 -0.224546 0)
(-1.03859 -0.230662 0)
(-0.997984 -0.234746 0)
(-0.957106 -0.236745 0)
(-0.916304 -0.236639 0)
(-0.875932 -0.234435 0)
(-0.836331 -0.230167 0)
(-0.79783 -0.223896 0)
(-0.760739 -0.2157 0)
(-0.725347 -0.205681 0)
(-0.691918 -0.19396 0)
(-0.660688 -0.180676 0)
(-0.631863 -0.165983 0)
(-0.605618 -0.150046 0)
(-0.582092 -0.133046 0)
(-0.56139 -0.115163 0)