/*--------------------------------*- C++ -*----------------------------------*\
  =========                 |
  \\      /  F ield         | OpenFOAM: The Open Source CFD Toolbox
   \\    /   O peration     | Website:  https://openfoam.org
    \\  /    A nd           | Version:  7
     \\/     M anipulation  |
\*---------------------------------------------------------------------------*/
FoamFile
{
    version     2.0;
    format      ascii;
    class       volScalarField;
    location    "4.9";
    object      p;
}
// * * * * * * * * * * * * * * * * * * * * * * * * * * * * * * * * * * * * * //

dimensions      [0 2 -2 0 0 0 0];

internalField   nonuniform List<scalar> 
900
(
1.26077e-06
-0.000304903
-0.000785778
-0.00127345
-0.00168386
-0.00196103
-0.00207764
-0.00202228
-0.00179
-0.00137828
-0.000786279
-1.63421e-05
0.000923155
0.00201458
0.00322813
0.00452006
0.00583269
0.00709668
0.00823604
0.00917561
0.00985017
0.0102142
0.0102503
0.0099751
0.00944308
0.00874381
0.00795417
0.00726499
0.00678219
0.00663344
0.000306907
-9.44664e-06
-0.000369642
-0.000720396
-0.00100796
-0.00119237
-0.00125182
-0.00117489
-0.000954992
-0.000588089
-7.24982e-05
0.00059002
0.00139219
0.00231882
0.00334458
0.00443243
0.00553545
0.00659564
0.00755066
0.00833932
0.00890916
0.0092246
0.00927381
0.009073
0.00866747
0.00812797
0.00753859
0.00700203
0.00662111
0.00648321
0.000806058
0.000339457
-3.2639e-05
-0.000344274
-0.000584324
-0.000728155
-0.000762791
-0.000681413
-0.000478918
-0.000151028
0.000305241
0.000890239
0.00159959
0.00242183
0.00333617
0.0043114
0.00530498
0.00626495
0.00713396
0.00785483
0.00837796
0.00866929
0.008717
0.00853559
0.00816605
0.00767142
0.00712904
0.00662313
0.00623201
0.00601482
0.00133257
0.000674429
0.000236147
-8.50137e-05
-0.000316811
-0.000449354
-0.000479822
-0.000407839
-0.000231039
5.47792e-05
0.000454418
0.000971438
0.0016057
0.00235059
0.00319036
0.00409827
0.00503549
0.00595223
0.00679148
0.00749454
0.00800883
0.00829638
0.00834141
0.00815486
0.00777464
0.00726065
0.00668717
0.00613464
0.0056659
0.00530263
0.00177785
0.000914872
0.000391426
3.92088e-05
-0.000205162
-0.00034508
-0.000387498
-0.000338456
-0.000198249
3.75656e-05
0.000376239
0.000825442
0.0013903
0.00207007
0.00285466
0.00372187
0.00463637
0.00554867
0.00639956
0.00712529
0.00766606
0.00797561
0.00803025
0.00783473
0.00742319
0.00685428
0.00620363
0.00555461
0.00496122
0.00441321
0.00204404
0.00097941
0.00036369
-3.24021e-05
-0.000304599
-0.000468019
-0.00053834
-0.000527217
-0.000436984
-0.000262312
7.2644e-06
0.000384471
0.000880793
0.00150247
0.00224608
0.00309467
0.00401695
0.00496261
0.00586858
0.00666315
0.0072751
0.00764499
0.00773619
0.00754317
0.00709417
0.00644721
0.00568314
0.00489542
0.00413675
0.00337054
0.00204952
0.000795167
8.71593e-05
-0.00035992
-0.000671298
-0.000872521
-0.000986876
-0.00103062
-0.00100729
-0.000909857
-0.000723794
-0.000430294
-1.024e-05
0.000551104
0.00125865
0.00210213
0.0030569
0.00407118
0.00507764
0.00599436
0.0067346
0.00721985
0.00739387
0.00723453
0.00675982
0.00602602
0.00512223
0.00415908
0.00319577
0.00217309
0.00172362
0.000296006
-0.000500091
-0.0010017
-0.0013613
-0.001614
-0.00178971
-0.00190839
-0.00197394
-0.00197693
-0.00189791
-0.00171087
-0.00138755
-0.000902667
-0.000240006
0.000601109
0.00160069
0.00271265
0.00386537
0.00496522
0.00590592
0.00658309
0.00691187
0.00684401
0.0063795
0.00556894
0.00451112
0.00334084
0.00213129
0.000802135
0.00100301
-0.000578384
-0.0014562
-0.00201452
-0.00243101
-0.00274982
-0.00300684
-0.00322502
-0.00340815
-0.00354387
-0.00360713
-0.00356365
-0.00337426
-0.00300047
-0.00241099
-0.00158925
-0.000547187
0.000681165
0.00202292
0.0033734
0.00460363
0.00557567
0.00616442
0.00628179
0.00589677
0.00504577
0.00383597
0.00243297
0.000931535
-0.000770402
-0.000168536
-0.00188148
-0.00283355
-0.00345068
-0.00393365
-0.00433534
-0.00469725
-0.00504511
-0.00538247
-0.00569398
-0.00594868
-0.00610315
-0.00610549
-0.00590088
-0.00543879
-0.0046822
-0.00362079
-0.00227537
-0.000711881
0.000958186
0.00258215
0.00398119
0.00497595
0.00541949
0.00522978
0.00441308
0.00307853
0.0014279
-0.000414424
-0.00257413
-0.00183862
-0.00365814
-0.00467631
-0.00535487
-0.00591528
-0.00641903
-0.00691325
-0.00742666
-0.00796304
-0.00850457
-0.00901466
-0.00944035
-0.00971543
-0.00976556
-0.00951564
-0.00890038
-0.00787857
-0.00644549
-0.00464934
-0.00259991
-0.00047033
0.00151472
0.00310672
0.00407575
0.00425957
0.00360742
0.00221488
0.000321379
-0.00191057
-0.00463243
-0.00404381
-0.00594235
-0.00701795
-0.00776095
-0.00841066
-0.00903721
-0.00969381
-0.0104129
-0.0111996
-0.0120349
-0.0128776
-0.0136655
-0.0143172
-0.0147362
-0.0148173
-0.0144585
-0.0135767
-0.0121269
-0.010124
-0.00766106
-0.00492181
-0.0021759
0.00024651
0.00200523
0.00281874
0.00253757
0.00121337
-0.000883989
-0.00354675
-0.00695364
-0.00680681
-0.00875505
-0.00987874
-0.0106887
-0.0114389
-0.0122084
-0.0130572
-0.0140229
-0.0151138
-0.0163115
-0.0175722
-0.0188259
-0.0199761
-0.020902
-0.0214645
-0.0215165
-0.0209213
-0.0195772
-0.0174453
-0.0145812
-0.0111599
-0.00748534
-0.00397376
-0.00110101
0.000685464
0.00107832
3.31269e-05
-0.00217409
-0.00528938
-0.00951957
-0.010134
-0.0121023
-0.0132639
-0.0141412
-0.0149996
-0.0159276
-0.0169935
-0.0182418
-0.0196862
-0.0213121
-0.0230756
-0.024901
-0.0266784
-0.0282628
-0.0294779
-0.030126
-0.0300063
-0.0289426
-0.026822
-0.0236354
-0.0195207
-0.0147917
-0.00994005
-0.00559219
-0.00240842
-0.000928874
-0.00137452
-0.00351604
-0.00706851
-0.0122696
-0.0140138
-0.0159746
-0.0171627
-0.0181033
-0.0190701
-0.0201621
-0.021458
-0.0230117
-0.0248456
-0.0269516
-0.0292892
-0.0317806
-0.0343046
-0.0366937
-0.0387343
-0.0401756
-0.0407441
-0.0401736
-0.038268
-0.0349166
-0.030185
-0.0243583
-0.017973
-0.0117988
-0.00674287
-0.00365961
-0.00305671
-0.0048459
-0.00875949
-0.0150781
-0.0184169
-0.0203485
-0.0215499
-0.0225419
-0.0236041
-0.0248486
-0.0263671
-0.0282265
-0.0304611
-0.0330729
-0.0360285
-0.0392509
-0.0426116
-0.0459234
-0.0489379
-0.0513511
-0.0528142
-0.0529591
-0.0515222
-0.0482356
-0.0430615
-0.0362094
-0.028208
-0.0199318
-0.012538
-0.00726398
-0.00503485
-0.00604811
-0.0101572
-0.017724
-0.0232991
-0.02519
-0.0263893
-0.0274082
-0.0285333
-0.0298931
-0.0315973
-0.0337301
-0.0363413
-0.0394466
-0.0430225
-0.0469964
-0.0512357
-0.0555375
-0.0596223
-0.063137
-0.0656719
-0.0667927
-0.0660216
-0.0630549
-0.0576927
-0.050011
-0.0404613
-0.0299506
-0.0198433
-0.0117893
-0.00725711
-0.00692193
-0.0109405
-0.0198488
-0.0286062
-0.0304618
-0.03164
-0.0326436
-0.0337706
-0.0351737
-0.036988
-0.0393203
-0.0422404
-0.0457805
-0.0499289
-0.0546196
-0.0597181
-0.0650093
-0.0701883
-0.0748598
-0.0785521
-0.0807423
-0.0808787
-0.0784912
-0.0732303
-0.065007
-0.0541267
-0.0414335
-0.0284052
-0.0170693
-0.00952255
-0.00712998
-0.010625
-0.0209037
-0.0342844
-0.036135
-0.0372669
-0.0381862
-0.0392159
-0.0405458
-0.0423474
-0.0447582
-0.0478723
-0.0517397
-0.0563616
-0.061678
-0.0675536
-0.0737628
-0.0799793
-0.0857737
-0.0906228
-0.0939321
-0.0950669
-0.0934306
-0.0885196
-0.0800607
-0.0681606
-0.0535036
-0.0375512
-0.0226001
-0.011378
-0.00612534
-0.00850185
-0.0200802
-0.0402948
-0.0422058
-0.043254
-0.0439802
-0.0447617
-0.0458473
-0.0474613
-0.0497814
-0.0529296
-0.0569746
-0.0619278
-0.0677332
-0.0742519
-0.0812473
-0.0883734
-0.0951713
-0.101076
-0.105437
-0.107549
-0.106707
-0.102278
-0.0938092
-0.0811858
-0.0648612
-0.0461465
-0.0274411
-0.0120051
-0.00305696
-0.00355881
-0.0162198
-0.0466392
-0.0487211
-0.049622
-0.0499854
-0.0502989
-0.0509048
-0.052102
-0.054119
-0.0571078
-0.0611526
-0.0662702
-0.072402
-0.0794005
-0.0870137
-0.0948744
-0.102496
-0.109276
-0.114519
-0.117462
-0.117309
-0.113325
-0.104898
-0.0917052
-0.0739397
-0.0526615
-0.0301903
-0.0101304
0.00333767
0.00561725
-0.00768666
-0.0534048
-0.0558182
-0.0564509
-0.056185
-0.0557185
-0.0555368
-0.0560379
-0.0575089
-0.0601292
-0.0639907
-0.0691052
-0.0754015
-0.0827156
-0.0907711
-0.0991758
-0.107412
-0.114841
-0.120724
-0.124242
-0.124538
-0.120775
-0.112218
-0.0983592
-0.0791501
-0.0553556
-0.0290662
-0.00399939
0.0148296
0.0209599
0.00782182
-0.0608531
-0.0637891
-0.0639092
-0.0625915
-0.0609106
-0.0595558
-0.0590432
-0.0597159
-0.0617685
-0.0652842
-0.0702543
-0.0765798
-0.084073
-0.0924155
-0.101186
-0.109831
-0.117669
-0.123915
-0.127695
-0.128084
-0.124152
-0.115069
-0.100146
-0.0791457
-0.0525397
-0.0221055
0.00854371
0.03375
0.0450781
0.0335797
-0.0696076
-0.0731895
-0.0722905
-0.069248
-0.0657601
-0.062772
-0.0609113
-0.0605527
-0.0618767
-0.0649316
-0.0696667
-0.0759375
-0.0835055
-0.0920195
-0.10101
-0.109877
-0.117895
-0.124222
-0.127921
-0.127992
-0.123397
-0.113186
-0.0965495
-0.0730483
-0.0428817
-0.00748992
0.0298139
0.0629481
0.0814748
0.0743176
-0.0810736
-0.0850234
-0.0820456
-0.0762156
-0.0701364
-0.0649942
-0.0614658
-0.0598953
-0.0603971
-0.0629447
-0.0674146
-0.073598
-0.0811949
-0.0898011
-0.0988942
-0.107824
-0.115811
-0.121951
-0.125228
-0.124554
-0.118764
-0.106774
-0.087607
-0.0606122
-0.0257485
0.0159745
0.0617641
0.105535
0.13472
0.136719
-0.0984097
-0.101063
-0.0937689
-0.0835096
-0.0738428
-0.0659954
-0.060535
-0.0576594
-0.0573378
-0.0594148
-0.0636609
-0.06978
-0.0773992
-0.0860513
-0.0951577
-0.104014
-0.111784
-0.117497
-0.120056
-0.118267
-0.110819
-0.0964594
-0.0739877
-0.0424651
-0.00148723
0.0484112
0.105209
0.164074
0.209988
0.22934
-0.128694
-0.124322
-0.108181
-0.0910342
-0.0765428
-0.0654383
-0.0578859
-0.0537429
-0.0527217
-0.0544692
-0.0586112
-0.0647458
-0.0724191
-0.0810998
-0.0901548
-0.09883
-0.106237
-0.111345
-0.112995
-0.109924
-0.100518
-0.0834532
-0.0572119
-0.0204238
0.0279196
0.088166
0.15968
0.238805
0.311314
0.363883
-0.187845
-0.158143
-0.125571
-0.0981512
-0.07735
-0.0625747
-0.053032
-0.0479279
-0.0465404
-0.0482479
-0.0525071
-0.0588059
-0.0666167
-0.075356
-0.0843507
-0.0928115
-0.0998127
-0.104277
-0.104971
-0.100493
-0.0894682
-0.0699743
-0.0402278
0.00168441
0.0577549
0.129928
0.219999
0.327213
0.440908
0.567192
-0.319392
-0.198216
-0.137372
-0.0970711
-0.070199
-0.0530117
-0.0429608
-0.0381789
-0.0374019
-0.039775
-0.0446525
-0.0514732
-0.0596863
-0.068699
-0.0778356
-0.086307
-0.0931881
-0.0973973
-0.0976826
-0.0925541
-0.0806421
-0.0599212
-0.028297
0.0167075
0.0782717
0.160779
0.270668
0.416375
0.604803
0.894365
-0.64653
-0.234527
-0.105881
-0.0620724
-0.0383893
-0.0251364
-0.0193342
-0.0183547
-0.0206143
-0.0253294
-0.0320151
-0.0402478
-0.0495833
-0.0595133
-0.0694303
-0.0786009
-0.0861476
-0.0910386
-0.0920958
-0.0880204
-0.0769812
-0.0572821
-0.0268038
0.0171439
0.0783233
0.162987
0.283556
0.468296
0.774499
1.36839
)
;

boundaryField
{
    movingWall
    {
        type            zeroGradient;
    }
    fixedWalls
    {
        type            zeroGradient;
    }
    frontAndBack
    {
        type            empty;
    }
}


// ************************************************************************* //
