/*--------------------------------*- C++ -*----------------------------------*\
  =========                 |
  \\      /  F ield         | OpenFOAM: The Open Source CFD Toolbox
   \\    /   O peration     | Website:  https://openfoam.org
    \\  /    A nd           | Version:  7
     \\/     M anipulation  |
\*---------------------------------------------------------------------------*/
FoamFile
{
    version     2.0;
    format      ascii;
    class       volVectorField;
    location    "4.9";
    object      U;
}
// * * * * * * * * * * * * * * * * * * * * * * * * * * * * * * * * * * * * * //

dimensions      [0 1 -1 0 0 0 0];

internalField   nonuniform List<vector> 
900
(
(0.000131864 -0.000131047 0)
(0.000209318 -3.99358e-05 0)
(-0.000119792 0.000106305 0)
(-0.000843844 0.000233139 0)
(-0.00187252 0.000322756 0)
(-0.00311612 0.000378563 0)
(-0.00449216 0.000408972 0)
(-0.00593333 0.000421154 0)
(-0.00738491 0.000419345 0)
(-0.00879858 0.000404977 0)
(-0.010127 0.000377406 0)
(-0.0113202 0.000334812 0)
(-0.0123242 0.000275142 0)
(-0.0130827 0.000197042 0)
(-0.0135399 0.000100721 0)
(-0.0136467 -1.13703e-05 0)
(-0.0133671 -0.000134438 0)
(-0.0126857 -0.000260454 0)
(-0.0116148 -0.000379235 0)
(-0.0101987 -0.000479218 0)
(-0.00851503 -0.00054885 0)
(-0.00667171 -0.000578317 0)
(-0.00479931 -0.000561237 0)
(-0.00303914 -0.000495903 0)
(-0.00152664 -0.000385793 0)
(-0.000367095 -0.000241401 0)
(0.000345189 -8.77453e-05 0)
(0.000588291 6.82904e-05 0)
(0.000448266 0.000173295 0)
(0.000148134 0.000146823 0)
(4.63638e-05 -0.000214967 0)
(-0.000341103 0.000339761 0)
(-0.001657 0.00106662 0)
(-0.0037996 0.00170708 0)
(-0.0066138 0.00218992 0)
(-0.00992198 0.00251328 0)
(-0.0135462 0.00269885 0)
(-0.0173259 0.00276984 0)
(-0.0211184 0.00274184 0)
(-0.0247907 0.00262106 0)
(-0.0282126 0.00240617 0)
(-0.0312508 0.00209185 0)
(-0.0337686 0.00167298 0)
(-0.0356295 0.00114902 0)
(-0.0367055 0.000527847 0)
(-0.0368906 -0.000171363 0)
(-0.036113 -0.000916209 0)
(-0.0343514 -0.00166156 0)
(-0.0316482 -0.00235223 0)
(-0.0281167 -0.00292781 0)
(-0.0239426 -0.00332972 0)
(-0.019376 -0.00350956 0)
(-0.0147141 -0.0034373 0)
(-0.010275 -0.00310795 0)
(-0.00636357 -0.00254552 0)
(-0.00323301 -0.00180694 0)
(-0.00105874 -0.000991621 0)
(0.000110831 -0.000201429 0)
(0.000406007 0.000372755 0)
(0.000181527 0.000446265 0)
(-0.000111154 0.000116917 0)
(-0.00114521 0.00167206 0)
(-0.00361426 0.00344068 0)
(-0.00721075 0.00498924 0)
(-0.0117049 0.00618119 0)
(-0.016864 0.00699835 0)
(-0.0224482 0.00747142 0)
(-0.0282322 0.00764042 0)
(-0.0340074 0.00753452 0)
(-0.0395749 0.00716631 0)
(-0.0447378 0.00653448 0)
(-0.0492971 0.00563113 0)
(-0.0530521 0.00445113 0)
(-0.055807 0.00300184 0)
(-0.0573834 0.00131169 0)
(-0.0576359 -0.000563474 0)
(-0.0564711 -0.00253697 0)
(-0.0538664 -0.00449374 0)
(-0.0498864 -0.00629645 0)
(-0.0446923 -0.00779747 0)
(-0.0385431 -0.00885532 0)
(-0.0317857 -0.00935402 0)
(-0.024832 -0.00922244 0)
(-0.0181247 -0.00845078 0)
(-0.0120923 -0.00710129 0)
(-0.00709914 -0.00531355 0)
(-0.00339674 -0.00330635 0)
(-0.00107265 -0.00136698 0)
(-1.17195e-05 0.000122939 0)
(0.000115292 0.00063636 0)
(-0.000272582 0.000914488 0)
(-0.00198284 0.00399602 0)
(-0.00564885 0.00713707 0)
(-0.0107042 0.00982535 0)
(-0.0168175 0.0118889 0)
(-0.0237027 0.0133049 0)
(-0.0310711 0.0141163 0)
(-0.0386501 0.0143791 0)
(-0.0461838 0.0141346 0)
(-0.0534245 0.0134006 0)
(-0.0601249 0.0121754 0)
(-0.0660353 0.0104496 0)
(-0.0709053 0.00822126 0)
(-0.0744928 0.00551151 0)
(-0.076578 0.0023784 0)
(-0.0769825 -0.00107321 0)
(-0.0755901 -0.00468804 0)
(-0.0723689 -0.00826255 0)
(-0.0673899 -0.011557 0)
(-0.0608395 -0.0143149 0)
(-0.0530227 -0.0162905 0)
(-0.0443539 -0.0172808 0)
(-0.0353327 -0.0171587 0)
(-0.026505 -0.0159025 0)
(-0.0184103 -0.0136156 0)
(-0.0115214 -0.0105346 0)
(-0.00618166 -0.0070275 0)
(-0.00254413 -0.00358162 0)
(-0.000548148 -0.000798698 0)
(2.99503e-05 0.000561765 0)
(-0.000420025 0.00215701 0)
(-0.00278483 0.00730767 0)
(-0.00763022 0.0121413 0)
(-0.0141129 0.01616 0)
(-0.021786 0.0192069 0)
(-0.0303063 0.0212807 0)
(-0.0393418 0.0224474 0)
(-0.0485836 0.0227826 0)
(-0.0577422 0.0223389 0)
(-0.0665354 0.0211375 0)
(-0.0746796 0.0191749 0)
(-0.0818868 0.0164401 0)
(-0.0878671 0.0129352 0)
(-0.0923387 0.00869773 0)
(-0.095043 0.00381961 0)
(-0.0957653 -0.00153944 0)
(-0.0943568 -0.00714704 0)
(-0.0907598 -0.0127002 0)
(-0.0850308 -0.0178427 0)
(-0.0773567 -0.0221918 0)
(-0.0680637 -0.0253766 0)
(-0.0576126 -0.027085 0)
(-0.0465773 -0.0271129 0)
(-0.035604 -0.0254103 0)
(-0.0253517 -0.0221137 0)
(-0.0164209 -0.0175603 0)
(-0.00927505 -0.0122821 0)
(-0.00416504 -0.00698041 0)
(-0.00111781 -0.00249306 0)
(-5.05198e-05 0.000189451 0)
(-0.000552027 0.00381681 0)
(-0.00353086 0.0115712 0)
(-0.00950256 0.0184205 0)
(-0.017353 0.0239549 0)
(-0.0265168 0.0280843 0)
(-0.0365927 0.0308611 0)
(-0.0472088 0.0323919 0)
(-0.0580281 0.0327785 0)
(-0.0687383 0.0320868 0)
(-0.0790347 0.0303403 0)
(-0.0886089 0.0275314 0)
(-0.0971446 0.0236445 0)
(-0.10432 0.0186837 0)
(-0.109816 0.0127009 0)
(-0.113333 0.00582063 0)
(-0.114611 -0.00174249 0)
(-0.113454 -0.00967653 0)
(-0.109756 -0.0175731 0)
(-0.103534 -0.0249482 0)
(-0.0949466 -0.031275 0)
(-0.084316 -0.0360328 0)
(-0.0721306 -0.0387697 0)
(-0.0590304 -0.0391722 0)
(-0.0457682 -0.0371328 0)
(-0.0331441 -0.0328016 0)
(-0.0219204 -0.0266109 0)
(-0.0127223 -0.019267 0)
(-0.0059379 -0.0117065 0)
(-0.00171248 -0.00502976 0)
(-0.000122762 -0.000479358 0)
(-0.000670614 0.00586008 0)
(-0.00421599 0.0167275 0)
(-0.01124 0.0259074 0)
(-0.020377 0.0331387 0)
(-0.0309488 0.0384469 0)
(-0.0424987 0.0419715 0)
(-0.0546196 0.0438797 0)
(-0.0669538 0.0443102 0)
(-0.0791754 0.0433453 0)
(-0.0909676 0.0410101 0)
(-0.102007 0.0372896 0)
(-0.111959 0.032159 0)
(-0.120473 0.0256181 0)
(-0.127196 0.017726 0)
(-0.131781 0.0086325 0)
(-0.133915 -0.00139967 0)
(-0.133334 -0.0119812 0)
(-0.12986 -0.0225997 0)
(-0.12344 -0.0326349 0)
(-0.114174 -0.0413973 0)
(-0.102349 -0.0481863 0)
(-0.0884588 -0.05237 0)
(-0.0731983 -0.0534787 0)
(-0.0574345 -0.0513013 0)
(-0.0421363 -0.0459658 0)
(-0.0282726 -0.0379838 0)
(-0.0166845 -0.0282442 0)
(-0.00794833 -0.0179486 0)
(-0.00236491 -0.00850371 0)
(-0.000192983 -0.0014557 0)
(-0.000777036 0.00825244 0)
(-0.00483689 0.0227056 0)
(-0.0128242 0.0345151 0)
(-0.0231476 0.0436201 0)
(-0.0350273 0.0502052 0)
(-0.0479572 0.0545298 0)
(-0.0615017 0.0568429 0)
(-0.0752895 0.0573319 0)
(-0.0889901 0.0561002 0)
(-0.102284 0.0531741 0)
(-0.114843 0.0485272 0)
(-0.126319 0.0421182 0)
(-0.136343 0.0339329 0)
(-0.144526 0.0240261 0)
(-0.150474 0.0125589 0)
(-0.153804 -0.000171072 0)
(-0.154172 -0.0137079 0)
(-0.151305 -0.0274415 0)
(-0.145046 -0.0406113 0)
(-0.1354 -0.0523478 0)
(-0.122583 -0.0617373 0)
(-0.107058 -0.0679174 0)
(-0.0895586 -0.0701991 0)
(-0.0710638 -0.0682006 0)
(-0.0527369 -0.0619708 0)
(-0.0358046 -0.0520683 0)
(-0.0213915 -0.0395671 0)
(-0.0103296 -0.0259736 0)
(-0.00312882 -0.0130661 0)
(-0.000271307 -0.00277644 0)
(-0.00087088 0.010958 0)
(-0.0053868 0.0294254 0)
(-0.014233 0.0441411 0)
(-0.0256228 0.0552895 0)
(-0.0386886 0.063253 0)
(-0.0528834 0.0684407 0)
(-0.0677503 0.0712046 0)
(-0.0829124 0.0717929 0)
(-0.0980425 0.0703359 0)
(-0.112827 0.066861 0)
(-0.126943 0.0613258 0)
(-0.140039 0.053664 0)
(-0.151732 0.0438346 0)
(-0.161603 0.0318721 0)
(-0.16921 0.0179304 0)
(-0.174094 0.00232216 0)
(-0.175818 -0.014453 0)
(-0.173993 -0.0316963 0)
(-0.168329 -0.0485111 0)
(-0.158697 -0.0638359 0)
(-0.145194 -0.0765105 0)
(-0.12821 -0.0853853 0)
(-0.108476 -0.0894726 0)
(-0.0870672 -0.0881282 0)
(-0.0653541 -0.0812349 0)
(-0.0448716 -0.069339 0)
(-0.0271081 -0.0536905 0)
(-0.0132409 -0.0361451 0)
(-0.00406842 -0.0189412 0)
(-0.00036924 -0.00451096 0)
(-0.000950336 0.0139365 0)
(-0.00585497 0.0367943 0)
(-0.0154384 0.0546645 0)
(-0.0277515 0.068015 0)
(-0.0418549 0.0774592 0)
(-0.0571695 0.083583 0)
(-0.0732247 0.0868608 0)
(-0.0896447 0.0876142 0)
(-0.106114 0.0860069 0)
(-0.122333 0.0820679 0)
(-0.137993 0.0757345 0)
(-0.152751 0.0669058 0)
(-0.166217 0.0555001 0)
(-0.177953 0.0415121 0)
(-0.187471 0.0250658 0)
(-0.194244 0.00646237 0)
(-0.197733 -0.0137813 0)
(-0.19742 -0.0349005 0)
(-0.192857 -0.0558765 0)
(-0.183744 -0.0754539 0)
(-0.170009 -0.0922002 0)
(-0.151906 -0.104621 0)
(-0.130102 -0.111339 0)
(-0.105721 -0.111329 0)
(-0.0803313 -0.104181 0)
(-0.0558136 -0.0903307 0)
(-0.0341085 -0.0711645 0)
(-0.0168543 -0.0489298 0)
(-0.00525392 -0.0264361 0)
(-0.000499044 -0.00676474 0)
(-0.00101274 0.0171409 0)
(-0.00622793 0.0447042 0)
(-0.0164074 0.0659427 0)
(-0.0294757 0.0816378 0)
(-0.044437 0.0926611 0)
(-0.0606885 0.0997984 0)
(-0.0777523 0.103664 0)
(-0.0952599 0.104667 0)
(-0.112913 0.103011 0)
(-0.130437 0.0987276 0)
(-0.147544 0.0917312 0)
(-0.163911 0.0818774 0)
(-0.179155 0.0690298 0)
(-0.192831 0.0531233 0)
(-0.204421 0.0342263 0)
(-0.21334 0.0125981 0)
(-0.218955 -0.0112583 0)
(-0.220618 -0.0365482 0)
(-0.217713 -0.0621587 0)
(-0.209735 -0.0866552 0)
(-0.196391 -0.108323 0)
(-0.177727 -0.125277 0)
(-0.154255 -0.135655 0)
(-0.127067 -0.137909 0)
(-0.0978719 -0.131166 0)
(-0.0689079 -0.11559 0)
(-0.042652 -0.0926129 0)
(-0.0213456 -0.0648946 0)
(-0.00675999 -0.0359441 0)
(-0.000673996 -0.00968175 0)
(-0.00105518 0.0205162 0)
(-0.00649191 0.0530309 0)
(-0.0171071 0.0778103 0)
(-0.0307364 0.0959699 0)
(-0.0463423 0.108659 0)
(-0.0633047 0.116883 0)
(-0.0811427 0.121412 0)
(-0.0994995 0.122755 0)
(-0.118099 0.121164 0)
(-0.136697 0.116678 0)
(-0.155039 0.109186 0)
(-0.17283 0.0984945 0)
(-0.189714 0.0843998 0)
(-0.205255 0.0667595 0)
(-0.218927 0.0455613 0)
(-0.230112 0.0209908 0)
(-0.238107 -0.00650094 0)
(-0.242148 -0.036133 0)
(-0.241457 -0.0667427 0)
(-0.235311 -0.0967543 0)
(-0.22315 -0.124188 0)
(-0.204731 -0.146747 0)
(-0.180302 -0.162003 0)
(-0.150793 -0.167733 0)
(-0.117946 -0.16238 0)
(-0.0843087 -0.145598 0)
(-0.0529533 -0.118689 0)
(-0.0268854 -0.0846911 0)
(-0.00866513 -0.0479445 0)
(-0.00090901 -0.0134466 0)
(-0.00107528 0.0240002 0)
(-0.0066359 0.061635 0)
(-0.0175108 0.0900803 0)
(-0.0314842 0.110793 0)
(-0.0474889 0.125214 0)
(-0.0648911 0.13458 0)
(-0.0832092 0.139835 0)
(-0.102099 0.141599 0)
(-0.121312 0.140181 0)
(-0.140637 0.135637 0)
(-0.159861 0.12783 0)
(-0.178733 0.116516 0)
(-0.196938 0.101417 0)
(-0.214075 0.082299 0)
(-0.22964 0.0590482 0)
(-0.243016 0.0317478 0)
(-0.253466 0.000755996 0)
(-0.260154 -0.033211 0)
(-0.262163 -0.0689998 0)
(-0.258561 -0.104959 0)
(-0.2485 -0.138898 0)
(-0.231375 -0.168127 0)
(-0.207048 -0.189611 0)
(-0.176119 -0.200305 0)
(-0.140183 -0.197718 0)
(-0.101969 -0.180662 0)
(-0.0651417 -0.150005 0)
(-0.0336253 -0.109024 0)
(-0.0110505 -0.0629971 0)
(-0.00122138 -0.018287 0)
(-0.00107192 0.0275257 0)
(-0.00665545 0.0703668 0)
(-0.0176067 0.102549 0)
(-0.0316918 0.125865 0)
(-0.0478227 0.142048 0)
(-0.065352 0.152581 0)
(-0.0837967 0.158593 0)
(-0.102826 0.160828 0)
(-0.122217 0.159667 0)
(-0.141798 0.155188 0)
(-0.161404 0.147237 0)
(-0.18084 0.135522 0)
(-0.199851 0.119688 0)
(-0.218097 0.0994046 0)
(-0.235131 0.0744434 0)
(-0.250378 0.0447615 0)
(-0.263126 0.0105874 0)
(-0.272514 -0.0274807 0)
(-0.277546 -0.0683676 0)
(-0.277123 -0.11044 0)
(-0.270112 -0.151393 0)
(-0.255509 -0.188222 0)
(-0.232677 -0.217299 0)
(-0.201692 -0.234666 0)
(-0.163758 -0.236638 0)
(-0.121548 -0.220771 0)
(-0.0792038 -0.187024 0)
(-0.0416763 -0.138596 0)
(-0.0139972 -0.0817274 0)
(-0.00163151 -0.0244752 0)
(-0.00104618 0.0310251 0)
(-0.00655687 0.0790761 0)
(-0.0174069 0.115008 0)
(-0.0313694 0.140926 0)
(-0.047338 0.158855 0)
(-0.0646487 0.17053 0)
(-0.0828148 0.177279 0)
(-0.101517 0.179985 0)
(-0.120558 0.179115 0)
(-0.139807 0.174778 0)
(-0.159155 0.166819 0)
(-0.178473 0.154903 0)
(-0.197584 0.138607 0)
(-0.216235 0.117506 0)
(-0.234071 0.0912527 0)
(-0.250612 0.0596667 0)
(-0.265223 0.0228196 0)
(-0.277088 -0.0188583 0)
(-0.285214 -0.0644461 0)
(-0.288408 -0.112439 0)
(-0.285304 -0.160553 0)
(-0.274502 -0.205609 0)
(-0.254794 -0.243494 0)
(-0.225555 -0.269328 0)
(-0.187302 -0.278026 0)
(-0.142306 -0.265423 0)
(-0.0949117 -0.229912 0)
(-0.0510777 -0.174027 0)
(-0.0175805 -0.1048 0)
(-0.00216351 -0.0323284 0)
(-0.00100226 0.0344378 0)
(-0.00636195 0.0876261 0)
(-0.0169585 0.127257 0)
(-0.0305804 0.155715 0)
(-0.0460987 0.175309 0)
(-0.0628266 0.188034 0)
(-0.0802702 0.19543 0)
(-0.0981201 0.198536 0)
(-0.116207 0.197918 0)
(-0.134444 0.193737 0)
(-0.15278 0.185847 0)
(-0.171164 0.173886 0)
(-0.189513 0.157378 0)
(-0.207682 0.135812 0)
(-0.225442 0.108736 0)
(-0.242452 0.0758298 0)
(-0.258216 0.0370001 0)
(-0.272031 -0.00752668 0)
(-0.283 -0.0570997 0)
(-0.289942 -0.110405 0)
(-0.291349 -0.165348 0)
(-0.285497 -0.218787 0)
(-0.270604 -0.266326 0)
(-0.245218 -0.302291 0)
(-0.208884 -0.320112 0)
(-0.163031 -0.313465 0)
(-0.111743 -0.278361 0)
(-0.0617561 -0.215727 0)
(-0.0218621 -0.132874 0)
(-0.00284574 -0.042206 0)
(-0.000948592 0.0377193 0)
(-0.0061133 0.095913 0)
(-0.0163543 0.139129 0)
(-0.0294586 0.16999 0)
(-0.0442592 0.191084 0)
(-0.0600392 0.204679 0)
(-0.076296 0.212542 0)
(-0.0927326 0.215888 0)
(-0.109211 0.215399 0)
(-0.125692 0.211305 0)
(-0.142192 0.203486 0)
(-0.158744 0.191575 0)
(-0.17537 0.175057 0)
(-0.192053 0.153362 0)
(-0.208713 0.125945 0)
(-0.225175 0.0923617 0)
(-0.241135 0.0523518 0)
(-0.256116 0.00591852 0)
(-0.269359 -0.04657 0)
(-0.279773 -0.104132 0)
(-0.285896 -0.165028 0)
(-0.285804 -0.226388 0)
(-0.277229 -0.283835 0)
(-0.257874 -0.33118 0)
(-0.226093 -0.360481 0)
(-0.182011 -0.362973 0)
(-0.128812 -0.331401 0)
(-0.0734779 -0.263746 0)
(-0.02688 -0.166537 0)
(-0.00371196 -0.0545031 0)
(-0.000899431 0.0408548 0)
(-0.00588121 0.103892 0)
(-0.0157471 0.150517 0)
(-0.0282253 0.183552 0)
(-0.0420839 0.205876 0)
(-0.056568 0.220049 0)
(-0.0711711 0.228095 0)
(-0.0856181 0.231419 0)
(-0.0998122 0.230842 0)
(-0.113773 0.226679 0)
(-0.127592 0.218854 0)
(-0.141394 0.207014 0)
(-0.155316 0.190632 0)
(-0.169478 0.169101 0)
(-0.183965 0.141809 0)
(-0.198793 0.10821 0)
(-0.213875 0.0678885 0)
(-0.228969 0.0206332 0)
(-0.243565 -0.0334557 0)
(-0.256806 -0.0938458 0)
(-0.267374 -0.159286 0)
(-0.27334 -0.227421 0)
(-0.272139 -0.29425 0)
(-0.260745 -0.353504 0)
(-0.236257 -0.396236 0)
(-0.197109 -0.411236 0)
(-0.14484 -0.387229 0)
(-0.085806 -0.317587 0)
(-0.0326408 -0.206215 0)
(-0.00480411 -0.0696418 0)
(-0.000877622 0.0438764 0)
(-0.00577385 0.111608 0)
(-0.0153663 0.161402 0)
(-0.027209 0.196268 0)
(-0.0399631 0.219416 0)
(-0.0528339 0.233746 0)
(-0.0653267 0.241566 0)
(-0.0772102 0.244502 0)
(-0.0884501 0.243526 0)
(-0.0991416 0.239055 0)
(-0.109462 0.231074 0)
(-0.119639 0.219265 0)
(-0.129928 0.203108 0)
(-0.140591 0.181982 0)
(-0.151877 0.15524 0)
(-0.163997 0.122265 0)
(-0.177088 0.0825209 0)
(-0.19116 0.0356053 0)
(-0.205997 -0.0186801 0)
(-0.221054 -0.0802307 0)
(-0.235296 -0.148377 0)
(-0.246994 -0.221487 0)
(-0.253554 -0.296301 0)
(-0.251487 -0.367011 0)
(-0.236763 -0.424292 0)
(-0.205934 -0.454895 0)
(-0.158181 -0.443136 0)
(-0.0980686 -0.376011 0)
(-0.0391185 -0.25206 0)
(-0.00617962 -0.0880632 0)
(-0.00092032 0.0468882 0)
(-0.00595485 0.119244 0)
(-0.0155434 0.171897 0)
(-0.0268679 0.208099 0)
(-0.0384265 0.231492 0)
(-0.0493969 0.245393 0)
(-0.0593321 0.252446 0)
(-0.0680853 0.25452 0)
(-0.0757193 0.252753 0)
(-0.0824303 0.247671 0)
(-0.0884995 0.239333 0)
(-0.0942648 0.227464 0)
(-0.100102 0.211574 0)
(-0.10641 0.191048 0)
(-0.113593 0.165228 0)
(-0.122044 0.133454 0)
(-0.132107 0.0951066 0)
(-0.144038 0.0496296 0)
(-0.157918 -0.00343399 0)
(-0.173549 -0.0643805 0)
(-0.190281 -0.133137 0)
(-0.206774 -0.208908 0)
(-0.220709 -0.289473 0)
(-0.228512 -0.370054 0)
(-0.225387 -0.441779 0)
(-0.206083 -0.490231 0)
(-0.166913 -0.495544 0)
(-0.109348 -0.436874 0)
(-0.046263 -0.303819 0)
(-0.00792667 -0.11023 0)
(-0.00109107 0.0501067 0)
(-0.00667503 0.127169 0)
(-0.0167503 0.182279 0)
(-0.0278156 0.219107 0)
(-0.0381453 0.241935 0)
(-0.0469335 0.254628 0)
(-0.0538492 0.260229 0)
(-0.0588952 0.26087 0)
(-0.0622831 0.257858 0)
(-0.0643447 0.251827 0)
(-0.0654847 0.242905 0)
(-0.0661585 0.230868 0)
(-0.0668608 0.215261 0)
(-0.0681145 0.195493 0)
(-0.0704603 0.17091 0)
(-0.0744435 0.140837 0)
(-0.0805882 0.104601 0)
(-0.0893614 0.0615377 0)
(-0.101117 0.010992 0)
(-0.115993 -0.0476556 0)
(-0.133769 -0.114876 0)
(-0.153635 -0.190706 0)
(-0.173819 -0.274132 0)
(-0.191113 -0.361877 0)
(-0.2005 -0.44645 0)
(-0.195348 -0.513557 0)
(-0.168949 -0.540197 0)
(-0.118475 -0.497008 0)
(-0.0540119 -0.360673 0)
(-0.0101915 -0.13665 0)
(-0.00150511 0.0539296 0)
(-0.00832958 0.13602 0)
(-0.0196542 0.19302 0)
(-0.030843 0.229447 0)
(-0.0399081 0.250591 0)
(-0.0461663 0.261064 0)
(-0.0495213 0.264378 0)
(-0.050222 0.262936 0)
(-0.0486966 0.258196 0)
(-0.0454534 0.250874 0)
(-0.0410404 0.241154 0)
(-0.0360329 0.228852 0)
(-0.0310366 0.213549 0)
(-0.0266799 0.194677 0)
(-0.0236108 0.171601 0)
(-0.0224941 0.143647 0)
(-0.023992 0.110116 0)
(-0.0287394 0.0702787 0)
(-0.037308 0.0233523 0)
(-0.0501396 -0.0315091 0)
(-0.0674367 -0.0951951 0)
(-0.0889756 -0.168455 0)
(-0.113729 -0.251465 0)
(-0.13928 -0.342729 0)
(-0.161057 -0.436982 0)
(-0.171789 -0.521625 0)
(-0.162085 -0.572437 0)
(-0.123985 -0.552179 0)
(-0.0622748 -0.421035 0)
(-0.0132159 -0.167933 0)
(-0.00238042 0.0590601 0)
(-0.0115559 0.146797 0)
(-0.0251825 0.204783 0)
(-0.0369 0.239288 0)
(-0.044508 0.25722 0)
(-0.0476684 0.264193 0)
(-0.0467099 0.264247 0)
(-0.0422597 0.260028 0)
(-0.0350421 0.253088 0)
(-0.0257832 0.244179 0)
(-0.0151875 0.2335 0)
(-0.0039434 0.220883 0)
(0.00724741 0.205927 0)
(0.0176774 0.188092 0)
(0.0266284 0.16676 0)
(0.033353 0.14127 0)
(0.0370946 0.110918 0)
(0.0370972 0.0749513 0)
(0.0326219 0.032526 0)
(0.0229765 -0.0173301 0)
(0.00758877 -0.0757621 0)
(-0.0138908 -0.144023 0)
(-0.0412699 -0.223263 0)
(-0.0732256 -0.313779 0)
(-0.106305 -0.413103 0)
(-0.133594 -0.511933 0)
(-0.143906 -0.587509 0)
(-0.123972 -0.597072 0)
(-0.0708127 -0.48226 0)
(-0.0173604 -0.204851 0)
(-0.00413592 0.0667369 0)
(-0.0173838 0.160964 0)
(-0.0345458 0.218329 0)
(-0.0469187 0.248624 0)
(-0.0523753 0.26128 0)
(-0.0513427 0.263192 0)
(-0.0448589 0.258919 0)
(-0.0340916 0.251248 0)
(-0.0201424 0.241719 0)
(-0.00398366 0.23103 0)
(0.0135244 0.219333 0)
(0.0315954 0.206436 0)
(0.049472 0.191932 0)
(0.0664046 0.175299 0)
(0.081636 0.155937 0)
(0.0943814 0.1332 0)
(0.103831 0.106406 0)
(0.109151 0.0748078 0)
(0.10948 0.037564 0)
(0.103923 -0.00632403 0)
(0.0916035 -0.0580928 0)
(0.0716874 -0.119249 0)
(0.0435602 -0.191579 0)
(0.00730407 -0.276864 0)
(-0.0352589 -0.375545 0)
(-0.0786903 -0.482921 0)
(-0.111462 -0.580832 0)
(-0.115726 -0.625282 0)
(-0.0788653 -0.540139 0)
(-0.0230294 -0.248265 0)
(-0.00756278 0.0791493 0)
(-0.027412 0.180476 0)
(-0.0490202 0.234162 0)
(-0.0611234 0.256794 0)
(-0.0625054 0.261482 0)
(-0.0550809 0.256553 0)
(-0.0409772 0.246914 0)
(-0.0220707 0.235271 0)
(0.000106443 0.222966 0)
(0.024342 0.210508 0)
(0.0496569 0.197919 0)
(0.0752165 0.184929 0)
(0.100258 0.171099 0)
(0.124043 0.155903 0)
(0.145826 0.138759 0)
(0.164829 0.119053 0)
(0.180232 0.0961381 0)
(0.19116 0.0693153 0)
(0.196669 0.0377958 0)
(0.195708 0.000643296 0)
(0.187166 -0.0433309 0)
(0.169818 -0.0956396 0)
(0.142375 -0.158327 0)
(0.103774 -0.234102 0)
(0.0539534 -0.32589 0)
(-0.00415357 -0.434147 0)
(-0.060652 -0.548328 0)
(-0.094981 -0.629271 0)
(-0.0842989 -0.588101 0)
(-0.0302915 -0.298781 0)
(-0.0140385 0.100107 0)
(-0.0437639 0.2074 0)
(-0.0687902 0.251583 0)
(-0.0768097 0.261491 0)
(-0.0695585 0.254962 0)
(-0.0515149 0.241473 0)
(-0.0262771 0.225782 0)
(0.00349778 0.210095 0)
(0.0359073 0.195271 0)
(0.0696062 0.181457 0)
(0.103612 0.168438 0)
(0.13715 0.155809 0)
(0.169544 0.143073 0)
(0.200148 0.129693 0)
(0.228297 0.11511 0)
(0.25328 0.0987576 0)
(0.274313 0.0800514 0)
(0.290527 0.0583748 0)
(0.30094 0.033048 0)
(0.304381 0.00327544 0)
(0.299593 -0.0319923 0)
(0.285069 -0.0740703 0)
(0.259022 -0.124904 0)
(0.219488 -0.187476 0)
(0.164682 -0.266266 0)
(0.0944565 -0.366401 0)
(0.0147954 -0.486991 0)
(-0.0544859 -0.60053 0)
(-0.0820989 -0.616405 0)
(-0.0378873 -0.356613 0)
(-0.0253868 0.136026 0)
(-0.0675243 0.241675 0)
(-0.0883283 0.26581 0)
(-0.0817948 0.256383 0)
(-0.0566923 0.235668 0)
(-0.0210277 0.212933 0)
(0.0202202 0.191692 0)
(0.0639768 0.172983 0)
(0.108365 0.156811 0)
(0.152247 0.142781 0)
(0.194911 0.130358 0)
(0.235847 0.118976 0)
(0.274627 0.108079 0)
(0.310812 0.0971294 0)
(0.343914 0.085616 0)
(0.373358 0.0730452 0)
(0.398463 0.0589298 0)
(0.418427 0.0427711 0)
(0.432298 0.0240304 0)
(0.438831 0.00207998 0)
(0.436743 -0.0237408 0)
(0.424375 -0.0545451 0)
(0.39964 -0.0919228 0)
(0.360004 -0.138513 0)
(0.302393 -0.199073 0)
(0.223688 -0.281664 0)
(0.124553 -0.395107 0)
(0.0183407 -0.530423 0)
(-0.0621881 -0.611591 0)
(-0.0411572 -0.420917 0)
(-0.0411075 0.198153 0)
(-0.0898768 0.273719 0)
(-0.0798229 0.259574 0)
(-0.037049 0.225657 0)
(0.0194912 0.191777 0)
(0.0801964 0.162904 0)
(0.140636 0.139625 0)
(0.198755 0.121144 0)
(0.25371 0.106395 0)
(0.305253 0.0944164 0)
(0.35338 0.0844082 0)
(0.398136 0.0757116 0)
(0.439519 0.0677736 0)
(0.477428 0.0601217 0)
(0.511637 0.0523422 0)
(0.541778 0.0440625 0)
(0.567333 0.0349357 0)
(0.587622 0.0246233 0)
(0.601776 0.0127696 0)
(0.608777 -0.00105131 0)
(0.607344 -0.0171571 0)
(0.595707 -0.0362862 0)
(0.571852 -0.0594998 0)
(0.533068 -0.0886622 0)
(0.475595 -0.127558 0)
(0.394151 -0.184266 0)
(0.283512 -0.27394 0)
(0.144757 -0.41061 0)
(-0.00406537 -0.553823 0)
(-0.0255652 -0.477245 0)
(-0.0339094 0.294212 0)
(-0.0472553 0.27338 0)
(0.0547113 0.200075 0)
(0.157759 0.14974 0)
(0.250119 0.114402 0)
(0.33134 0.089072 0)
(0.402461 0.0711227 0)
(0.464803 0.0583487 0)
(0.519778 0.0490385 0)
(0.56865 0.0420236 0)
(0.612409 0.0365227 0)
(0.651761 0.0319915 0)
(0.687161 0.0280318 0)
(0.71884 0.0243392 0)
(0.746827 0.0206716 0)
(0.770969 0.0168279 0)
(0.79094 0.012634 0)
(0.80625 0.00793493 0)
(0.816199 0.00258268 0)
(0.820067 -0.00351172 0)
(0.816805 -0.0106813 0)
(0.804981 -0.0191533 0)
(0.782913 -0.0293714 0)
(0.748235 -0.0422411 0)
(0.697317 -0.0597735 0)
(0.624069 -0.0870058 0)
(0.51829 -0.137406 0)
(0.3649 -0.240465 0)
(0.143933 -0.407034 0)
(0.0587951 -0.458304 0)
(0.303329 0.180983 0)
(0.382851 0.144457 0)
(0.561422 0.0913116 0)
(0.687413 0.0590713 0)
(0.770034 0.0393173 0)
(0.829308 0.0267175 0)
(0.874661 0.0187324 0)
(0.910548 0.0136944 0)
(0.939774 0.0104559 0)
(0.96424 0.00829622 0)
(0.985165 0.00678169 0)
(1.0033 0.00564672 0)
(1.01911 0.00472232 0)
(1.03281 0.00389638 0)
(1.04448 0.00309101 0)
(1.05408 0.0022492 0)
(1.06144 0.00132639 0)
(1.06634 0.000289857 0)
(1.06845 -0.000892387 0)
(1.06737 -0.00215642 0)
(1.06253 -0.00368605 0)
(1.05339 -0.0055009 0)
(1.03912 -0.00766814 0)
(1.01851 -0.0103889 0)
(0.989527 -0.0141534 0)
(0.948057 -0.0202952 0)
(0.884345 -0.0326954 0)
(0.776527 -0.0638468 0)
(0.544864 -0.139516 0)
(0.38249 -0.201758 0)
)
;

boundaryField
{
    movingWall
    {
        type            fixedValue;
        value           uniform (1.2 0 0);
    }
    fixedWalls
    {
        type            noSlip;
    }
    frontAndBack
    {
        type            empty;
    }
}


// ************************************************************************* //
