/*--------------------------------*- C++ -*----------------------------------*\
  =========                 |
  \\      /  F ield         | OpenFOAM: The Open Source CFD Toolbox
   \\    /   O peration     | Website:  https://openfoam.org
    \\  /    A nd           | Version:  7
     \\/     M anipulation  |
\*---------------------------------------------------------------------------*/
FoamFile
{
    version     2.0;
    format      ascii;
    class       volScalarField;
    location    "5.1";
    object      p;
}
// * * * * * * * * * * * * * * * * * * * * * * * * * * * * * * * * * * * * * //

dimensions      [0 2 -2 0 0 0 0];

internalField   nonuniform List<scalar> 
900
(
1.13225e-06
-0.000309315
-0.000798933
-0.0012993
-0.00172355
-0.0020149
-0.00214544
-0.00210329
-0.00188304
-0.00148164
-0.000897704
-0.000133111
0.000804052
0.00189614
0.00311297
0.00440999
0.00572835
0.00699722
0.00813909
0.00907737
0.00974582
0.0100984
0.0101182
0.00982298
0.00926826
0.00854449
0.00774551
0.00703984
0.00654972
0.00640228
0.000310764
-1.01268e-05
-0.000377939
-0.00073878
-0.00103777
-0.00123431
-0.00130617
-0.00124157
-0.00103346
-0.000677369
-0.000171103
0.000484018
0.00128102
0.00220482
0.00322983
0.00431848
0.00542298
0.0064842
0.00743861
0.00822388
0.00878674
0.00909129
0.00912601
0.00890806
0.00848416
0.00792689
0.00732401
0.00677564
0.0063895
0.00625319
0.00081906
0.000345993
-3.40247e-05
-0.000355
-0.00060551
-0.000760614
-0.000807132
-0.000738001
-0.000547769
-0.000231705
0.000213691
0.000789276
0.00149108
0.00230786
0.00321875
0.00419219
0.00518492
0.006144
0.00701096
0.00772757
0.00824344
0.00852413
0.00855809
0.00836067
0.00797418
0.0074634
0.00690749
0.00639116
0.00599452
0.00577866
0.00135926
0.000690523
0.000242956
-8.77287e-05
-0.000329851
-0.000473565
-0.000516101
-0.000457002
-0.000293617
-2.12798e-05
0.000365405
0.000870625
0.00149481
0.00223173
0.00306578
0.00396997
0.00490486
0.00581976
0.00665651
0.00735529
0.00786259
0.00813999
0.0081718
0.00796973
0.00757293
0.0070429
0.00645551
0.00589212
0.00541687
0.00505296
0.001819
0.000940856
0.000406317
4.39219e-05
-0.00021118
-0.000362788
-0.000418151
-0.000383379
-0.000258524
-3.86263e-05
0.000284276
0.000718658
0.00127043
0.00193944
0.00271594
0.00357767
0.00448878
0.0053989
0.00624759
0.00696984
0.00750471
0.00780526
0.00784767
0.0076373
0.00720941
0.00662414
0.00595866
0.00529753
0.00469582
0.00414411
0.0020981
0.00101363
0.000384819
-2.24389e-05
-0.000306267
-0.000482539
-0.000567463
-0.000572876
-0.000500873
-0.000345515
-9.54549e-05
0.000263062
0.000742558
0.00135016
0.00208304
0.00292441
0.00384248
0.00478617
0.00569109
0.00648403
0.00709235
0.00745555
0.00753655
0.00733008
0.00686534
0.00620175
0.0054217
0.00462009
0.00385058
0.00307677
0.00211251
0.000833923
0.000110836
-0.000348622
-0.000672985
-0.000888898
-0.00102037
-0.00108392
-0.00108279
-0.00100923
-0.000847596
-0.000577775
-0.00017929
0.000363829
0.00105741
0.00189165
0.00284142
0.00385441
0.00486187
0.00578011
0.00652055
0.00700315
0.00717066
0.00700072
0.00651192
0.00576179
0.00484102
0.00386197
0.00288484
0.00185004
0.00178919
0.000333593
-0.000479386
-0.000994743
-0.00136912
-0.00163904
-0.00183531
-0.00197816
-0.00207116
-0.00210393
-0.00205566
-0.00189872
-0.00160309
-0.00114182
-0.000497496
0.00033094
0.00132526
0.00243708
0.00359373
0.00469969
0.0056464
0.00632724
0.00665558
0.0065822
0.00610706
0.00528169
0.00420654
0.00301851
0.00179197
0.000445715
0.00106272
-0.000549458
-0.00144566
-0.00201919
-0.00245267
-0.00279196
-0.00307395
-0.00332189
-0.00353908
-0.00371203
-0.00381403
-0.00380877
-0.00365488
-0.00331171
-0.00274607
-0.00193989
-0.000905495
0.00032356
0.00167288
0.00303553
0.00427973
0.00526451
0.00586196
0.0059819
0.00559239
0.00473015
0.00350397
0.00208198
0.000560488
-0.00116379
-0.000124778
-0.00187013
-0.00284168
-0.00347559
-0.00397819
-0.00440433
-0.00479662
-0.00518104
-0.00556051
-0.00591832
-0.00622153
-0.00642426
-0.00647187
-0.00630681
-0.00587603
-0.00514048
-0.00408903
-0.00274224
-0.00116719
0.000522334
0.00217037
0.00359415
0.00461028
0.00506827
0.00488378
0.00406237
0.00271447
0.00104479
-0.000820173
-0.00300751
-0.00182203
-0.00367416
-0.00471244
-0.0054094
-0.00599247
-0.00652531
-0.00705623
-0.00761414
-0.00820205
-0.00880052
-0.00937065
-0.00985652
-0.0101886
-0.0102892
-0.0100799
-0.00949278
-0.00848474
-0.00705053
-0.00523901
-0.0031622
-0.000996841
0.00102761
0.0026572
0.00365676
0.0038598
0.00321335
0.00181346
-9.72206e-05
-0.00235344
-0.00510802
-0.00406597
-0.00599578
-0.00709157
-0.00785456
-0.00853024
-0.00919106
-0.00989142
-0.0106639
-0.0115127
-0.0124168
-0.0133325
-0.0141941
-0.0149163
-0.0153983
-0.015531
-0.0152089
-0.0143462
-0.0128968
-0.0108754
-0.00837746
-0.00559013
-0.00278853
-0.000309468
0.00149972
0.00235101
0.00209047
0.000768782
-0.00134118
-0.00402829
-0.00747236
-0.00687881
-0.00885535
-0.0099987
-0.0108301
-0.0116097
-0.0124189
-0.013319
-0.0143474
-0.0155115
-0.0167907
-0.0181382
-0.0194798
-0.0207148
-0.0217174
-0.0223433
-0.0224415
-0.0218718
-0.0205305
-0.0183785
-0.0154729
-0.0119921
-0.00824567
-0.00465736
-0.00171173
0.000134876
0.000567858
-0.00046055
-0.00267231
-0.00580977
-0.0100804
-0.0102655
-0.0122576
-0.0134376
-0.0143376
-0.0152286
-0.0162016
-0.0173261
-0.0186464
-0.0201751
-0.021895
-0.0237587
-0.0256863
-0.0275625
-0.0292365
-0.0305265
-0.0312297
-0.0311414
-0.0300835
-0.0279424
-0.0247098
-0.0205267
-0.015712
-0.0107653
-0.0063224
-0.00305451
-0.00151198
-0.00192231
-0.00405634
-0.00762589
-0.0128688
-0.0142124
-0.0161909
-0.0173954
-0.0183593
-0.0193613
-0.0205031
-0.0218642
-0.0234983
-0.0254264
-0.0276377
-0.0300879
-0.0326938
-0.0353287
-0.0378183
-0.039943
-0.0414458
-0.04205
-0.0414888
-0.0395615
-0.0361609
-0.031355
-0.0254334
-0.0189396
-0.0126522
-0.00749028
-0.00432061
-0.00366106
-0.00542697
-0.00934918
-0.0157084
-0.0186871
-0.0206289
-0.0218439
-0.0228589
-0.0239581
-0.0252558
-0.0268446
-0.0287911
-0.031128
-0.0338542
-0.0369318
-0.0402783
-0.0437585
-0.047178
-0.0502815
-0.052759
-0.0542598
-0.0544191
-0.0529521
-0.0496122
-0.0443607
-0.0374101
-0.0292942
-0.0208948
-0.0133799
-0.00799984
-0.00569302
-0.00666486
-0.0107707
-0.0183733
-0.0236418
-0.0255343
-0.0267435
-0.0277843
-0.0289465
-0.030361
-0.0321385
-0.0343625
-0.0370812
-0.0403069
-0.0440109
-0.0481143
-0.0524771
-0.0568885
-0.0610619
-0.0646387
-0.0672039
-0.0683169
-0.0675237
-0.0645023
-0.0590614
-0.0512823
-0.0416203
-0.0309872
-0.0207547
-0.012584
-0.00795799
-0.00756376
-0.0115648
-0.0205001
-0.0290186
-0.0308666
-0.0320501
-0.0330728
-0.0342351
-0.0356921
-0.0375797
-0.0400044
-0.043034
-0.0466967
-0.0509754
-0.0557966
-0.0610179
-0.0664154
-0.0716767
-0.0764012
-0.080114
-0.0822911
-0.0823869
-0.0799349
-0.0745922
-0.0662745
-0.0552901
-0.0424851
-0.0293404
-0.0178904
-0.0102436
-0.00777902
-0.0112419
-0.0215346
-0.0347598
-0.0365933
-0.037725
-0.038659
-0.0397198
-0.0410998
-0.0429717
-0.0454727
-0.0486947
-0.0526837
-0.0574343
-0.0628786
-0.0688721
-0.0751798
-0.0814675
-0.0873002
-0.0921527
-0.0954321
-0.096509
-0.0947948
-0.0897949
-0.0812426
-0.0692481
-0.0544962
-0.0384473
-0.0233985
-0.0120838
-0.00675532
-0.00908767
-0.0206638
-0.0408229
-0.0427074
-0.0437491
-0.0444839
-0.0452897
-0.0464183
-0.0480963
-0.0505012
-0.0537531
-0.0579157
-0.0629937
-0.0689219
-0.0755513
-0.0826349
-0.0898184
-0.0966373
-0.102525
-0.106835
-0.108865
-0.10793
-0.1034
-0.0948335
-0.0821217
-0.0657189
-0.0469324
-0.0281564
-0.0126488
-0.00363351
-0.0040855
-0.0167264
-0.047206
-0.0492529
-0.0501403
-0.0505042
-0.0508323
-0.0514712
-0.0527231
-0.0548171
-0.0579033
-0.0620607
-0.0672981
-0.0735471
-0.0806486
-0.0883399
-0.0962444
-0.10387
-0.110613
-0.115783
-0.118627
-0.118355
-0.114252
-0.105717
-0.0924342
-0.0746007
-0.0532726
-0.0307608
-0.0106597
0.00285436
0.00518032
-0.00808695
-0.0539931
-0.0563644
-0.0569763
-0.0567008
-0.0562363
-0.0560747
-0.056619
-0.058158
-0.060869
-0.064838
-0.0700684
-0.0764778
-0.0838888
-0.0920146
-0.100452
-0.108678
-0.116054
-0.121844
-0.125241
-0.125398
-0.121495
-0.112816
-0.0988568
-0.0795798
-0.0557477
-0.0294421
-0.00436619
0.0144794
0.0206427
0.00755317
-0.0614423
-0.0643313
-0.064423
-0.0630833
-0.0613893
-0.0600398
-0.0595581
-0.0602899
-0.0624276
-0.0660479
-0.0711323
-0.0775708
-0.0851563
-0.0935656
-0.102363
-0.110988
-0.118761
-0.124899
-0.12854
-0.128771
-0.124673
-0.115467
-0.100421
-0.0793414
-0.0526975
-0.0222598
0.00837331
0.0335654
0.0449053
0.0334598
-0.0701735
-0.0737069
-0.0727713
-0.0696924
-0.0661746
-0.0631762
-0.0613347
-0.0610284
-0.0624351
-0.0655951
-0.070446
-0.0768307
-0.084495
-0.0930749
-0.102089
-0.110933
-0.118879
-0.12509
-0.128638
-0.128538
-0.123768
-0.1134
-0.09663
-0.073036
-0.04282
-0.00742488
0.0298506
0.0629466
0.0814615
0.0743517
-0.0815894
-0.0854926
-0.0824695
-0.0765872
-0.0704607
-0.0652942
-0.0617764
-0.0602552
-0.0608411
-0.0634981
-0.0680897
-0.0743922
-0.0820903
-0.0907656
-0.0998849
-0.108792
-0.116705
-0.122725
-0.125846
-0.124999
-0.119019
-0.106854
-0.08754
-0.0604359
-0.0255087
0.0162265
0.0619908
0.105713
0.134867
0.136898
-0.0988487
-0.101461
-0.0941125
-0.0837846
-0.0740553
-0.0661736
-0.0607198
-0.0578953
-0.0576633
-0.0598573
-0.064233
-0.0704786
-0.0782054
-0.0869321
-0.0960692
-0.104906
-0.112605
-0.118199
-0.120601
-0.118628
-0.110993
-0.0964531
-0.0738246
-0.0421806
-0.00112595
0.0488006
0.10558
0.164406
0.210277
0.229641
-0.129039
-0.124634
-0.108431
-0.0912016
-0.076637
-0.0654942
-0.0579484
-0.0538623
-0.0529383
-0.0548106
-0.0590898
-0.0653575
-0.0731443
-0.081905
-0.0909961
-0.0996571
-0.106998
-0.111995
-0.113496
-0.110268
-0.100656
-0.0834059
-0.0570034
-0.0200876
0.0283415
0.0886286
0.160141
0.239234
0.311703
0.364273
-0.188104
-0.15838
-0.125741
-0.0982285
-0.0773481
-0.0625335
-0.0530017
-0.0479586
-0.0466729
-0.0485097
-0.0529097
-0.0593449
-0.0672724
-0.0760955
-0.0851312
-0.093584
-0.100527
-0.104886
-0.10543
-0.100764
-0.0895908
-0.0699243
-0.040017
0.00202358
0.0581828
0.130404
0.220486
0.327683
0.441349
0.567634
-0.319607
-0.19842
-0.137512
-0.0971064
-0.0701494
-0.0529201
-0.0428786
-0.0381562
-0.0374794
-0.0399803
-0.0449978
-0.0519551
-0.0602866
-0.0693867
-0.07857
-0.0870414
-0.0938742
-0.0979902
-0.098147
-0.0928647
-0.0807865
-0.0598949
-0.0281144
0.017017
0.0786718
0.161232
0.27114
0.416843
0.605259
0.894816
-0.646774
-0.234753
-0.106031
-0.0621135
-0.0383363
-0.0250301
-0.0192257
-0.0182949
-0.0206463
-0.0254838
-0.0323079
-0.0406791
-0.0501384
-0.0601644
-0.070139
-0.0793221
-0.0868338
-0.0916441
-0.092582
-0.0883648
-0.0771634
-0.0572991
-0.0266665
0.0174116
0.0786889
0.163414
0.284012
0.468756
0.774951
1.36884
)
;

boundaryField
{
    movingWall
    {
        type            zeroGradient;
    }
    fixedWalls
    {
        type            zeroGradient;
    }
    frontAndBack
    {
        type            empty;
    }
}


// ************************************************************************* //
