/*--------------------------------*- C++ -*----------------------------------*\
  =========                 |
  \\      /  F ield         | OpenFOAM: The Open Source CFD Toolbox
   \\    /   O peration     | Website:  https://openfoam.org
    \\  /    A nd           | Version:  7
     \\/     M anipulation  |
\*---------------------------------------------------------------------------*/
FoamFile
{
    version     2.0;
    format      ascii;
    class       volVectorField;
    location    "5.1";
    object      U;
}
// * * * * * * * * * * * * * * * * * * * * * * * * * * * * * * * * * * * * * //

dimensions      [0 1 -1 0 0 0 0];

internalField   nonuniform List<vector> 
900
(
(0.000134876 -0.000134028 0)
(0.000216886 -4.28158e-05 0)
(-0.000111584 0.000105581 0)
(-0.000840826 0.000234415 0)
(-0.00188058 0.000325686 0)
(-0.00313967 0.000382745 0)
(-0.00453452 0.000414082 0)
(-0.00599687 0.000426959 0)
(-0.00747116 0.000425643 0)
(-0.00890817 0.00041153 0)
(-0.0102595 0.000383896 0)
(-0.0114738 0.000340826 0)
(-0.0124959 0.000280192 0)
(-0.0132675 0.000200605 0)
(-0.0137317 0.00010231 0)
(-0.0138381 -1.21334e-05 0)
(-0.0135501 -0.000137752 0)
(-0.0128522 -0.000266262 0)
(-0.0117576 -0.000387184 0)
(-0.0103121 -0.000488666 0)
(-0.00859581 -0.000558916 0)
(-0.00671945 -0.000587977 0)
(-0.00481662 -0.000569459 0)
(-0.00303135 -0.000501829 0)
(-0.00150139 -0.000389033 0)
(-0.000336315 -0.000242028 0)
(0.000375094 -8.34422e-05 0)
(0.000612395 7.41541e-05 0)
(0.00045974 0.000178755 0)
(0.000150533 0.000149262 0)
(4.94335e-05 -0.000222706 0)
(-0.000337228 0.000335782 0)
(-0.00166415 0.00107316 0)
(-0.00383109 0.00172432 0)
(-0.0066822 0.00221638 0)
(-0.0100376 0.00254698 0)
(-0.0137167 0.00273789 0)
(-0.0175567 0.00281251 0)
(-0.0214122 0.00278642 0)
(-0.0251478 0.00266562 0)
(-0.0286301 0.00244843 0)
(-0.0317224 0.00212917 0)
(-0.0342843 0.00170252 0)
(-0.0361759 0.00116799 0)
(-0.0372661 0.000533827 0)
(-0.0374464 -0.000180023 0)
(-0.0366442 -0.000940048 0)
(-0.0348387 -0.00169975 0)
(-0.0320745 -0.00240246 0)
(-0.028469 -0.00298637 0)
(-0.0242132 -0.00339177 0)
(-0.0195636 -0.00356963 0)
(-0.0148242 -0.00348995 0)
(-0.0103191 -0.00314853 0)
(-0.00635846 -0.00257107 0)
(-0.00319905 -0.00181658 0)
(-0.00101457 -0.000983465 0)
(0.00014879 -0.000183085 0)
(0.000426434 0.000393398 0)
(0.000186689 0.000457466 0)
(-0.000110671 0.000108726 0)
(-0.00115442 0.00167967 0)
(-0.00365397 0.00347479 0)
(-0.00730032 0.00505012 0)
(-0.0118613 0.0062652 0)
(-0.0171013 0.00710059 0)
(-0.0227765 0.00758691 0)
(-0.028658 0.00776426 0)
(-0.0345334 0.00766162 0)
(-0.0401996 0.00729098 0)
(-0.045455 0.00665031 0)
(-0.0500955 0.00573103 0)
(-0.0539151 0.0045278 0)
(-0.0567135 0.00304842 0)
(-0.058308 0.00132258 0)
(-0.0585506 -0.000591769 0)
(-0.0573469 -0.00260506 0)
(-0.0546755 -0.0045989 0)
(-0.0506045 -0.00643243 0)
(-0.0453007 -0.00795477 0)
(-0.0390302 -0.0090219 0)
(-0.0321486 -0.00951644 0)
(-0.0250769 -0.00936738 0)
(-0.0182662 -0.00856672 0)
(-0.0121519 -0.00718015 0)
(-0.00710272 -0.0053521 0)
(-0.00337092 -0.00330658 0)
(-0.00104137 -0.00133948 0)
(7.9754e-06 0.000161286 0)
(0.000120776 0.00066026 0)
(-0.000275285 0.00091404 0)
(-0.00200897 0.00403371 0)
(-0.00573 0.0072241 0)
(-0.0108651 0.00995985 0)
(-0.0170782 0.0120637 0)
(-0.0240792 0.0135111 0)
(-0.0315745 0.0143447 0)
(-0.0392869 0.0146204 0)
(-0.0469555 0.0143791 0)
(-0.0543271 0.0136373 0)
(-0.0611484 0.0123923 0)
(-0.0671634 0.0106338 0)
(-0.0721157 0.00835992 0)
(-0.0757573 0.00559282 0)
(-0.077864 0.00239316 0)
(-0.0782546 -0.00113034 0)
(-0.076812 -0.00481734 0)
(-0.0735061 -0.00845862 0)
(-0.068412 -0.0118085 0)
(-0.0617227 -0.0146053 0)
(-0.0537515 -0.0165989 0)
(-0.0449225 -0.017584 0)
(-0.0357459 -0.0174337 0)
(-0.0267778 -0.0161292 0)
(-0.0185664 -0.0137792 0)
(-0.0115904 -0.0106286 0)
(-0.00619546 -0.00705504 0)
(-0.00253285 -0.00355759 0)
(-0.000535191 -0.000749717 0)
(3.45283e-05 0.000596287 0)
(-0.000426245 0.00217456 0)
(-0.00282962 0.00739726 0)
(-0.00775677 0.0123099 0)
(-0.014351 0.0164005 0)
(-0.022158 0.0195069 0)
(-0.0308292 0.021626 0)
(-0.0400266 0.0228237 0)
(-0.0494358 0.0231752 0)
(-0.0587615 0.0227322 0)
(-0.067715 0.0215145 0)
(-0.0760059 0.019517 0)
(-0.0833389 0.0167276 0)
(-0.0894174 0.0131488 0)
(-0.0939535 0.00882048 0)
(-0.0966838 0.00383849 0)
(-0.0973908 -0.00163153 0)
(-0.095925 -0.00734978 0)
(-0.0922306 -0.0130051 0)
(-0.0863683 -0.018233 0)
(-0.0785318 -0.022643 0)
(-0.069056 -0.0258584 0)
(-0.0584123 -0.0275635 0)
(-0.0471861 -0.0275541 0)
(-0.036035 -0.0257838 0)
(-0.0256286 -0.0223965 0)
(-0.0165753 -0.0177409 0)
(-0.00934304 -0.0123627 0)
(-0.00418245 -0.00697952 0)
(-0.00111515 -0.00244601 0)
(-4.74836e-05 0.000229675 0)
(-0.000561777 0.00386268 0)
(-0.00359441 0.0117354 0)
(-0.00967469 0.0187002 0)
(-0.0176681 0.0243345 0)
(-0.0269991 0.0285439 0)
(-0.0372593 0.03138 0)
(-0.0480702 0.0329497 0)
(-0.0590883 0.0333543 0)
(-0.0699949 0.0326586 0)
(-0.0804782 0.0308839 0)
(-0.0902223 0.0280209 0)
(-0.0989033 0.024053 0)
(-0.106192 0.0189853 0)
(-0.111763 0.0128731 0)
(-0.115313 0.0058465 0)
(-0.116578 -0.00187178 0)
(-0.115361 -0.00996014 0)
(-0.111559 -0.0179995 0)
(-0.105191 -0.0254952 0)
(-0.0964242 -0.0319104 0)
(-0.0855877 -0.0367164 0)
(-0.0731807 -0.0394564 0)
(-0.0598557 -0.039816 0)
(-0.046378 -0.0376913 0)
(-0.0335602 -0.0332416 0)
(-0.022175 -0.0269135 0)
(-0.0128548 -0.0194314 0)
(-0.00598977 -0.011753 0)
(-0.00172221 -0.00500053 0)
(-0.000121548 -0.000439474 0)
(-0.000683667 0.00594425 0)
(-0.00429706 0.0169881 0)
(-0.0114546 0.0263265 0)
(-0.0207637 0.0336887 0)
(-0.031533 0.0390983 0)
(-0.0432973 0.0426957 0)
(-0.0556421 0.0446494 0)
(-0.0682027 0.0450979 0)
(-0.0806463 0.0441218 0)
(-0.0926484 0.0417438 0)
(-0.103878 0.0379469 0)
(-0.113993 0.0327055 0)
(-0.122635 0.0260209 0)
(-0.129445 0.0179572 0)
(-0.134072 0.00867135 0)
(-0.136198 -0.00156379 0)
(-0.13556 -0.0123476 0)
(-0.13198 -0.0231542 0)
(-0.125409 -0.0333504 0)
(-0.115953 -0.0422344 0)
(-0.103905 -0.0490956 0)
(-0.0897688 -0.0532949 0)
(-0.0742527 -0.0543603 0)
(-0.058237 -0.0520839 0)
(-0.0427047 -0.0466037 0)
(-0.0286382 -0.0384478 0)
(-0.016889 -0.0285273 0)
(-0.00803878 -0.0180701 0)
(-0.00238838 -0.0085106 0)
(-0.000193725 -0.00142298 0)
(-0.000792951 0.00838391 0)
(-0.00493304 0.0230824 0)
(-0.0130751 0.035099 0)
(-0.0235952 0.0443682 0)
(-0.0356978 0.0510765 0)
(-0.0488672 0.0554868 0)
(-0.0626595 0.0578508 0)
(-0.076696 0.0583557 0)
(-0.0906389 0.0571036 0)
(-0.104161 0.0541177 0)
(-0.116926 0.0493696 0)
(-0.12858 0.0428175 0)
(-0.138744 0.0344497 0)
(-0.147026 0.0243268 0)
(-0.153025 0.0126189 0)
(-0.156357 -0.000364654 0)
(-0.156675 -0.014154 0)
(-0.153707 -0.0281243 0)
(-0.147299 -0.0415001 0)
(-0.137459 -0.0533973 0)
(-0.124409 -0.0628896 0)
(-0.108623 -0.0691053 0)
(-0.0908431 -0.0713505 0)
(-0.0720641 -0.0692451 0)
(-0.0534648 -0.0628477 0)
(-0.0362883 -0.0527347 0)
(-0.0216734 -0.0400064 0)
(-0.0104618 -0.0262005 0)
(-0.00316713 -0.0131292 0)
(-0.000274123 -0.00275829 0)
(-0.000889002 0.0111442 0)
(-0.00549442 0.0299342 0)
(-0.0145114 0.0449101 0)
(-0.0261162 0.0562578 0)
(-0.0394236 0.0643663 0)
(-0.0538759 0.0696518 0)
(-0.0690075 0.0724704 0)
(-0.0844336 0.0730711 0)
(-0.0998195 0.0715826 0)
(-0.114845 0.0680292 0)
(-0.129177 0.0623665 0)
(-0.14246 0.0545279 0)
(-0.154302 0.0444762 0)
(-0.164281 0.0322525 0)
(-0.171948 0.0180214 0)
(-0.176843 0.00210854 0)
(-0.178527 -0.0149704 0)
(-0.176612 -0.032501 0)
(-0.170808 -0.0495699 0)
(-0.160988 -0.0650992 0)
(-0.147254 -0.0779141 0)
(-0.130004 -0.0868525 0)
(-0.109975 -0.0909188 0)
(-0.0882583 -0.0894677 0)
(-0.0662405 -0.0823895 0)
(-0.0454756 -0.070249 0)
(-0.0274705 -0.0543247 0)
(-0.013417 -0.0365093 0)
(-0.00412253 -0.019082 0)
(-0.000374293 -0.00451528 0)
(-0.000969799 0.0141825 0)
(-0.00596936 0.0374459 0)
(-0.0157328 0.0556322 0)
(-0.0282713 0.0692181 0)
(-0.0426265 0.078829 0)
(-0.058208 0.0850617 0)
(-0.074536 0.0883966 0)
(-0.0912266 0.0891573 0)
(-0.107957 0.0875058 0)
(-0.12442 0.0834684 0)
(-0.1403 0.0769801 0)
(-0.155246 0.0679406 0)
(-0.168864 0.0562728 0)
(-0.180711 0.0419795 0)
(-0.190295 0.0251966 0)
(-0.197087 0.00623976 0)
(-0.200548 -0.014358 0)
(-0.200158 -0.0358145 0)
(-0.195471 -0.0570934 0)
(-0.186187 -0.076922 0)
(-0.172235 -0.093851 0)
(-0.153875 -0.106371 0)
(-0.131777 -0.113093 0)
(-0.107079 -0.112987 0)
(-0.0813641 -0.105646 0)
(-0.0565335 -0.0915215 0)
(-0.0345512 -0.0720312 0)
(-0.0170755 -0.0494638 0)
(-0.00532467 -0.0266768 0)
(-0.000506557 -0.00679992 0)
(-0.00103249 0.017449 0)
(-0.00634349 0.0455035 0)
(-0.0167042 0.0671149 0)
(-0.029999 0.0830815 0)
(-0.0452124 0.0942926 0)
(-0.0617302 0.101549 0)
(-0.0790647 0.105473 0)
(-0.0968393 0.106476 0)
(-0.114748 0.104762 0)
(-0.13251 0.100359 0)
(-0.149829 0.0931795 0)
(-0.166377 0.0830813 0)
(-0.181767 0.0699329 0)
(-0.195549 0.0536792 0)
(-0.207203 0.0344014 0)
(-0.216145 0.0123745 0)
(-0.221741 -0.0118816 0)
(-0.223343 -0.0375545 0)
(-0.220335 -0.0635137 0)
(-0.212212 -0.0883069 0)
(-0.198681 -0.110202 0)
(-0.179786 -0.127296 0)
(-0.156042 -0.137713 0)
(-0.128547 -0.139893 0)
(-0.0990237 -0.13296 0)
(-0.0697302 -0.11709 0)
(-0.0431701 -0.0937454 0)
(-0.0216113 -0.0656294 0)
(-0.00684792 -0.0363071 0)
(-0.000684245 -0.00975663 0)
(-0.00107404 0.0208856 0)
(-0.00660238 0.0539754 0)
(-0.0173912 0.0791836 0)
(-0.0312377 0.0976496 0)
(-0.0470853 0.110547 0)
(-0.0643021 0.118897 0)
(-0.0823976 0.123485 0)
(-0.101006 0.12482 0)
(-0.119845 0.123155 0)
(-0.138663 0.118527 0)
(-0.157197 0.110824 0)
(-0.175151 0.0998548 0)
(-0.192162 0.0854228 0)
(-0.207794 0.0673964 0)
(-0.221521 0.0457779 0)
(-0.232724 0.0207699 0)
(-0.240703 -0.00715962 0)
(-0.244698 -0.0372123 0)
(-0.243929 -0.0682088 0)
(-0.237672 -0.0985566 0)
(-0.225366 -0.12626 0)
(-0.206762 -0.149002 0)
(-0.182105 -0.164338 0)
(-0.152325 -0.170028 0)
(-0.11917 -0.164504 0)
(-0.0852073 -0.147424 0)
(-0.0535354 -0.120113 0)
(-0.0271923 -0.0856537 0)
(-0.00877015 -0.0484514 0)
(-0.000922285 -0.0135703 0)
(-0.001092 0.0244264 0)
(-0.00673471 0.0627146 0)
(-0.0177664 0.0916413 0)
(-0.0319369 0.112694 0)
(-0.0481614 0.12734 0)
(-0.0657946 0.136841 0)
(-0.084345 0.142152 0)
(-0.10346 0.143898 0)
(-0.122883 0.142389 0)
(-0.142397 0.137679 0)
(-0.161783 0.129633 0)
(-0.180785 0.118009 0)
(-0.199088 0.102538 0)
(-0.21629 0.0829986 0)
(-0.231888 0.0592944 0)
(-0.245268 0.0315256 0)
(-0.2557 6.83968e-05 0)
(-0.262349 -0.0343446 0)
(-0.264303 -0.0705459 0)
(-0.26063 -0.106869 0)
(-0.250475 -0.14111 0)
(-0.233228 -0.170562 0)
(-0.208741 -0.192171 0)
(-0.177604 -0.20287 0)
(-0.141411 -0.200147 0)
(-0.102902 -0.182808 0)
(-0.0657668 -0.15173 0)
(-0.0339658 -0.110234 0)
(-0.0111715 -0.0636665 0)
(-0.00123793 -0.0184685 0)
(-0.00108529 0.0280007 0)
(-0.00673617 0.0715637 0)
(-0.0178181 0.104275 0)
(-0.0320696 0.12796 0)
(-0.0483872 0.144385 0)
(-0.0661125 0.155058 0)
(-0.0847528 0.161122 0)
(-0.103969 0.163327 0)
(-0.12353 0.162057 0)
(-0.143257 0.157386 0)
(-0.162982 0.149167 0)
(-0.182507 0.13711 0)
(-0.201575 0.120872 0)
(-0.219847 0.100137 0)
(-0.236882 0.0746964 0)
(-0.25211 0.0445252 0)
(-0.264827 0.00987103 0)
(-0.274179 -0.0286529 0)
(-0.279176 -0.0699619 0)
(-0.278718 -0.112409 0)
(-0.271671 -0.153682 0)
(-0.25702 -0.190762 0)
(-0.234113 -0.220006 0)
(-0.203009 -0.237429 0)
(-0.164899 -0.239318 0)
(-0.122456 -0.223203 0)
(-0.07984 -0.189041 0)
(-0.0420375 -0.140062 0)
(-0.0141313 -0.082573 0)
(-0.00165143 -0.0247226 0)
(-0.00105513 0.0315375 0)
(-0.00661367 0.0803651 0)
(-0.0175599 0.116864 0)
(-0.031648 0.143178 0)
(-0.0477595 0.161363 0)
(-0.0652207 0.173182 0)
(-0.0835351 0.179977 0)
(-0.102375 0.18264 0)
(-0.121535 0.181639 0)
(-0.140881 0.177086 0)
(-0.160296 0.168829 0)
(-0.179651 0.15654 0)
(-0.19877 0.139811 0)
(-0.217402 0.118232 0)
(-0.235199 0.0914806 0)
(-0.251689 0.0593947 0)
(-0.266249 0.0220658 0)
(-0.278075 -0.0200614 0)
(-0.286178 -0.0660624 0)
(-0.289369 -0.114421 0)
(-0.286282 -0.16285 0)
(-0.275509 -0.208169 0)
(-0.255821 -0.24625 0)
(-0.22657 -0.272191 0)
(-0.18825 -0.280869 0)
(-0.143114 -0.268078 0)
(-0.0955146 -0.232186 0)
(-0.0514399 -0.175738 0)
(-0.0177228 -0.105827 0)
(-0.00218662 -0.0326483 0)
(-0.00100594 0.0349733 0)
(-0.00638999 0.0889752 0)
(-0.0170409 0.129203 0)
(-0.030739 0.158077 0)
(-0.0463474 0.177939 0)
(-0.0631711 0.190809 0)
(-0.0807072 0.198244 0)
(-0.0986381 0.201292 0)
(-0.116787 0.200522 0)
(-0.135062 0.196099 0)
(-0.15341 0.187881 0)
(-0.171776 0.175519 0)
(-0.190081 0.158551 0)
(-0.208184 0.136489 0)
(-0.225865 0.108901 0)
(-0.242789 0.0754926 0)
(-0.258477 0.0361874 0)
(-0.272245 -0.00877399 0)
(-0.283198 -0.0587228 0)
(-0.290158 -0.112359 0)
(-0.291627 -0.167591 0)
(-0.285871 -0.221279 0)
(-0.27109 -0.269025 0)
(-0.245805 -0.305136 0)
(-0.209526 -0.323002 0)
(-0.163653 -0.316247 0)
(-0.112258 -0.280828 0)
(-0.0620924 -0.217653 0)
(-0.0220047 -0.134077 0)
(-0.00287145 -0.0426017 0)
(-0.000946442 0.0382613 0)
(-0.00610911 0.0972851 0)
(-0.0163571 0.141116 0)
(-0.0294814 0.172407 0)
(-0.0443122 0.193778 0)
(-0.0601264 0.207518 0)
(-0.0764137 0.215413 0)
(-0.0928696 0.218685 0)
(-0.109349 0.218023 0)
(-0.12581 0.213662 0)
(-0.142264 0.205489 0)
(-0.158746 0.19315 0)
(-0.17528 0.176151 0)
(-0.191856 0.153945 0)
(-0.208402 0.126012 0)
(-0.224755 0.0919341 0)
(-0.240623 0.0514692 0)
(-0.255536 0.00463584 0)
(-0.268755 -0.0481841 0)
(-0.279206 -0.106027 0)
(-0.285423 -0.167163 0)
(-0.285479 -0.228736 0)
(-0.277092 -0.286376 0)
(-0.257938 -0.333885 0)
(-0.226334 -0.36329 0)
(-0.182363 -0.36576 0)
(-0.129178 -0.333966 0)
(-0.0737555 -0.265831 0)
(-0.0270123 -0.167893 0)
(-0.00373909 -0.0549735 0)
(-0.000891184 0.0413853 0)
(-0.00584286 0.105246 0)
(-0.0156649 0.152489 0)
(-0.0281025 0.185963 0)
(-0.0419267 0.208569 0)
(-0.0563791 0.222889 0)
(-0.0709474 0.230958 0)
(-0.0853501 0.234196 0)
(-0.0994851 0.233426 0)
(-0.113369 0.228974 0)
(-0.127091 0.220773 0)
(-0.140779 0.208486 0)
(-0.154571 0.191609 0)
(-0.168597 0.169559 0)
(-0.182948 0.141753 0)
(-0.197651 0.107674 0)
(-0.212631 0.06693 0)
(-0.227655 0.0193219 0)
(-0.24223 -0.0350535 0)
(-0.255512 -0.0956652 0)
(-0.266189 -0.161281 0)
(-0.27233 -0.229572 0)
(-0.271366 -0.296554 0)
(-0.260248 -0.355965 0)
(-0.236038 -0.398836 0)
(-0.197126 -0.413894 0)
(-0.145 -0.389774 0)
(-0.0859895 -0.319749 0)
(-0.0327496 -0.207686 0)
(-0.00483083 -0.0701796 0)
(-0.0008633 0.0443767 0)
(-0.00570102 0.112902 0)
(-0.0151976 0.163305 0)
(-0.0269374 0.19861 0)
(-0.0395906 0.222044 0)
(-0.0523624 0.236519 0)
(-0.0647545 0.244358 0)
(-0.0765314 0.247196 0)
(-0.0876552 0.246014 0)
(-0.0982192 0.241238 0)
(-0.108401 0.232867 0)
(-0.118432 0.220599 0)
(-0.12857 0.203939 0)
(-0.139084 0.182296 0)
(-0.15023 0.155051 0)
(-0.162228 0.121616 0)
(-0.175224 0.0814792 0)
(-0.189237 0.0342521 0)
(-0.204062 -0.020264 0)
(-0.219165 -0.0819704 0)
(-0.233519 -0.150222 0)
(-0.2454 -0.223416 0)
(-0.252215 -0.298323 0)
(-0.250461 -0.369155 0)
(-0.236082 -0.426579 0)
(-0.205586 -0.4573 0)
(-0.158095 -0.445534 0)
(-0.098126 -0.378149 0)
(-0.0391896 -0.25359 0)
(-0.00620343 -0.0886541 0)
(-0.000900178 0.04734 0)
(-0.00584879 0.120434 0)
(-0.015291 0.173673 0)
(-0.0264514 0.210307 0)
(-0.0378436 0.233986 0)
(-0.048649 0.248032 0)
(-0.0584202 0.255102 0)
(-0.0670084 0.257074 0)
(-0.0744755 0.255094 0)
(-0.0810179 0.249701 0)
(-0.086919 0.240969 0)
(-0.0925203 0.228641 0)
(-0.0982022 0.212253 0)
(-0.104368 0.191221 0)
(-0.111429 0.164914 0)
(-0.119781 0.132706 0)
(-0.129777 0.0939978 0)
(-0.141675 0.0482499 0)
(-0.155563 -0.00499286 0)
(-0.17125 -0.0660375 0)
(-0.188094 -0.134833 0)
(-0.204765 -0.210616 0)
(-0.218945 -0.291204 0)
(-0.227062 -0.371849 0)
(-0.224304 -0.443693 0)
(-0.205388 -0.492286 0)
(-0.166571 -0.497679 0)
(-0.109258 -0.43888 0)
(-0.0462833 -0.305337 0)
(-0.00794458 -0.110852 0)
(-0.00106558 0.0504926 0)
(-0.00653859 0.128216 0)
(-0.0164211 0.183874 0)
(-0.0272656 0.221121 0)
(-0.0373679 0.244231 0)
(-0.0459294 0.257071 0)
(-0.0526224 0.262691 0)
(-0.0574512 0.263232 0)
(-0.0606293 0.26001 0)
(-0.0624911 0.253673 0)
(-0.0634456 0.244366 0)
(-0.0639526 0.231884 0)
(-0.0645109 0.215798 0)
(-0.065647 0.195545 0)
(-0.0679055 0.170503 0)
(-0.0718328 0.140025 0)
(-0.0779537 0.103461 0)
(-0.0867352 0.0601616 0)
(-0.0985329 0.00947677 0)
(-0.113487 -0.0492246 0)
(-0.131378 -0.116431 0)
(-0.151409 -0.192211 0)
(-0.171813 -0.275592 0)
(-0.189393 -0.363335 0)
(-0.199129 -0.447975 0)
(-0.194373 -0.515212 0)
(-0.168373 -0.541983 0)
(-0.118233 -0.498781 0)
(-0.0539723 -0.362101 0)
(-0.0102004 -0.137275 0)
(-0.00147503 0.054234 0)
(-0.00816766 0.136889 0)
(-0.0192605 0.194385 0)
(-0.03018 0.231209 0)
(-0.0389645 0.252631 0)
(-0.0449417 0.263254 0)
(-0.0480227 0.266593 0)
(-0.048462 0.265062 0)
(-0.0466926 0.260127 0)
(-0.0432283 0.252519 0)
(-0.038623 0.242437 0)
(-0.0334579 0.229719 0)
(-0.0283407 0.213968 0)
(-0.0239023 0.194646 0)
(-0.0207925 0.171147 0)
(-0.0196736 0.142821 0)
(-0.0212033 0.108994 0)
(-0.0260118 0.0689489 0)
(-0.0346667 0.0219098 0)
(-0.0476062 -0.0329759 0)
(-0.0650288 -0.0966159 0)
(-0.0867231 -0.169778 0)
(-0.111672 -0.252691 0)
(-0.137465 -0.34389 0)
(-0.159544 -0.438147 0)
(-0.170639 -0.522879 0)
(-0.161334 -0.57383 0)
(-0.12361 -0.553643 0)
(-0.0621729 -0.422299 0)
(-0.0132128 -0.168528 0)
(-0.00234716 0.0592706 0)
(-0.0113766 0.14746 0)
(-0.0247443 0.205881 0)
(-0.0361568 0.240754 0)
(-0.043443 0.258954 0)
(-0.0462794 0.26608 0)
(-0.0450062 0.266172 0)
(-0.0402601 0.261883 0)
(-0.0327737 0.254775 0)
(-0.023281 0.245612 0)
(-0.0124937 0.23461 0)
(-0.00110868 0.22162 0)
(0.0101744 0.206263 0)
(0.0206479 0.188024 0)
(0.0295904 0.166312 0)
(0.0362622 0.140487 0)
(0.0399149 0.10987 0)
(0.0398017 0.07372 0)
(0.0351919 0.0311997 0)
(0.0254007 -0.0186663 0)
(0.00987195 -0.0770374 0)
(-0.0117631 -0.145188 0)
(-0.0393211 -0.224296 0)
(-0.071475 -0.314698 0)
(-0.104798 -0.413964 0)
(-0.132392 -0.512824 0)
(-0.143063 -0.588514 0)
(-0.123503 -0.598189 0)
(-0.0706548 -0.483301 0)
(-0.0173437 -0.205384 0)
(-0.00410225 0.0668465 0)
(-0.0172007 0.161406 0)
(-0.0340943 0.219137 0)
(-0.0461454 0.249763 0)
(-0.0512571 0.262673 0)
(-0.0498741 0.264742 0)
(-0.0430494 0.260522 0)
(-0.0319642 0.252808 0)
(-0.0177317 0.243147 0)
(-0.0013341 0.232249 0)
(0.0163604 0.22028 0)
(0.0345585 0.207065 0)
(0.0525024 0.192219 0)
(0.0694438 0.175237 0)
(0.0846265 0.155544 0)
(0.0972744 0.132515 0)
(0.106589 0.105487 0)
(0.111747 0.073726 0)
(0.111899 0.0363975 0)
(0.106162 -0.00749596 0)
(0.0936693 -0.0592059 0)
(0.0735877 -0.120259 0)
(0.045296 -0.192446 0)
(0.00887057 -0.277589 0)
(-0.0338847 -0.376166 0)
(-0.0775532 -0.483513 0)
(-0.11062 -0.58149 0)
(-0.115218 -0.626055 0)
(-0.0786675 -0.540922 0)
(-0.022999 -0.248706 0)
(-0.00753376 0.0791606 0)
(-0.0272467 0.1807 0)
(-0.0486018 0.234678 0)
(-0.0603932 0.257599 0)
(-0.061433 0.262521 0)
(-0.0536548 0.257748 0)
(-0.0392042 0.24818 0)
(-0.0199739 0.236525 0)
(0.0024904 0.22413 0)
(0.0269652 0.211516 0)
(0.0524626 0.198714 0)
(0.0781417 0.185469 0)
(0.103238 0.17136 0)
(0.127013 0.155877 0)
(0.148726 0.138456 0)
(0.167607 0.118504 0)
(0.182848 0.095388 0)
(0.193586 0.0684215 0)
(0.198892 0.0368233 0)
(0.197718 -0.00034156 0)
(0.188975 -0.0442687 0)
(0.171447 -0.0964827 0)
(0.143839 -0.159037 0)
(0.105083 -0.234668 0)
(0.0551079 -0.326328 0)
(-0.00317676 -0.434514 0)
(-0.0598982 -0.548708 0)
(-0.0944946 -0.629739 0)
(-0.084086 -0.588623 0)
(-0.0302503 -0.299111 0)
(-0.0140218 0.100038 0)
(-0.0436464 0.207438 0)
(-0.0684672 0.251838 0)
(-0.0762189 0.261984 0)
(-0.068661 0.255661 0)
(-0.0502902 0.242323 0)
(-0.0247243 0.226716 0)
(0.00536244 0.211045 0)
(0.0380528 0.196173 0)
(0.0719889 0.182255 0)
(0.106179 0.169083 0)
(0.13984 0.156264 0)
(0.172294 0.143315 0)
(0.202893 0.129711 0)
(0.230977 0.11491 0)
(0.255839 0.0983587 0)
(0.276708 0.079487 0)
(0.292725 0.0576888 0)
(0.302923 0.0322922 0)
(0.306139 0.00250657 0)
(0.301135 -0.0327306 0)
(0.286414 -0.0747329 0)
(0.260192 -0.125456 0)
(0.220506 -0.187898 0)
(0.165566 -0.266562 0)
(0.0952092 -0.366608 0)
(0.0153934 -0.487173 0)
(-0.0540783 -0.60076 0)
(-0.0819021 -0.616697 0)
(-0.0378422 -0.356827 0)
(-0.0253899 0.135915 0)
(-0.0674846 0.241591 0)
(-0.088163 0.26587 0)
(-0.0814415 0.256622 0)
(-0.0561018 0.236076 0)
(-0.0201667 0.213474 0)
(0.0213668 0.192318 0)
(0.0654066 0.173643 0)
(0.11006 0.157457 0)
(0.154177 0.143366 0)
(0.197031 0.130845 0)
(0.238107 0.119334 0)
(0.276967 0.108286 0)
(0.313172 0.0971761 0)
(0.346233 0.0855029 0)
(0.375581 0.0727845 0)
(0.400542 0.0585437 0)
(0.420325 0.0422897 0)
(0.433998 0.0234875 0)
(0.440299 0.00150773 0)
(0.437987 -0.0242808 0)
(0.42542 -0.0550202 0)
(0.400507 -0.0923106 0)
(0.360721 -0.138797 0)
(0.302988 -0.199253 0)
(0.224184 -0.28176 0)
(0.124955 -0.395164 0)
(0.0186296 -0.530495 0)
(-0.0620399 -0.611713 0)
(-0.0411198 -0.421028 0)
(-0.04113 0.19805 0)
(-0.0899202 0.273594 0)
(-0.0798358 0.259527 0)
(-0.0369743 0.225724 0)
(0.0197123 0.191962 0)
(0.0806115 0.16319 0)
(0.141277 0.139981 0)
(0.199636 0.121537 0)
(0.254831 0.106791 0)
(0.306597 0.0947838 0)
(0.354917 0.0847202 0)
(0.399826 0.0759463 0)
(0.441311 0.067916 0)
(0.479267 0.0601639 0)
(0.513465 0.0522838 0)
(0.54354 0.0439104 0)
(0.568979 0.0347038 0)
(0.58911 0.0243307 0)
(0.603072 0.0124388 0)
(0.609879 -0.00140234 0)
(0.608265 -0.0174852 0)
(0.596432 -0.0365693 0)
(0.572403 -0.0597235 0)
(0.53348 -0.0888166 0)
(0.475905 -0.127642 0)
(0.394392 -0.18429 0)
(0.283708 -0.273931 0)
(0.144908 -0.410606 0)
(-0.00398161 -0.553849 0)
(-0.025543 -0.47728 0)
(-0.033935 0.294158 0)
(-0.0473319 0.273287 0)
(0.0545931 0.200008 0)
(0.157638 0.149727 0)
(0.250058 0.11445 0)
(0.331393 0.0891756 0)
(0.402669 0.0712668 0)
(0.465192 0.0585155 0)
(0.520359 0.0492103 0)
(0.569419 0.0421841 0)
(0.613346 0.0366581 0)
(0.652835 0.0320913 0)
(0.688331 0.0280889 0)
(0.72006 0.0243502 0)
(0.748049 0.0206368 0)
(0.772145 0.0167513 0)
(0.792026 0.0125229 0)
(0.807213 0.00779929 0)
(0.817011 0.00243517 0)
(0.820721 -0.0036477 0)
(0.817303 -0.0108104 0)
(0.805328 -0.0192638 0)
(0.783131 -0.0294523 0)
(0.748356 -0.0422877 0)
(0.697375 -0.0597866 0)
(0.624097 -0.086992 0)
(0.518314 -0.137379 0)
(0.36493 -0.240442 0)
(0.143958 -0.407027 0)
(0.0588041 -0.458304 0)
(0.303316 0.180974 0)
(0.382803 0.144432 0)
(0.561329 0.0912844 0)
(0.68729 0.059056 0)
(0.769917 0.0393182 0)
(0.829236 0.0267335 0)
(0.874661 0.0187599 0)
(0.910639 0.0137284 0)
(0.939964 0.0104914 0)
(0.964525 0.00832884 0)
(0.985534 0.00680785 0)
(1.00374 0.00566391 0)
(1.01958 0.00472906 0)
(1.0333 0.00389223 0)
(1.04496 0.00307651 0)
(1.05452 0.00222577 0)
(1.06183 0.00129618 0)
(1.06665 0.000255658 0)
(1.06869 -0.000928709 0)
(1.06752 -0.00218781 0)
(1.06261 -0.00371295 0)
(1.0534 -0.00552092 0)
(1.03908 -0.00767901 0)
(1.01845 -0.0103903 0)
(0.989452 -0.0141465 0)
(0.947991 -0.0202826 0)
(0.8843 -0.0326808 0)
(0.776506 -0.0638351 0)
(0.544859 -0.13951 0)
(0.38249 -0.201755 0)
)
;

boundaryField
{
    movingWall
    {
        type            fixedValue;
        value           uniform (1.2 0 0);
    }
    fixedWalls
    {
        type            noSlip;
    }
    frontAndBack
    {
        type            empty;
    }
}


// ************************************************************************* //
