/*--------------------------------*- C++ -*----------------------------------*\
  =========                 |
  \\      /  F ield         | OpenFOAM: The Open Source CFD Toolbox
   \\    /   O peration     | Website:  https://openfoam.org
    \\  /    A nd           | Version:  7
     \\/     M anipulation  |
\*---------------------------------------------------------------------------*/
FoamFile
{
    version     2.0;
    format      ascii;
    class       volVectorField;
    location    "8.5";
    object      U;
}
// * * * * * * * * * * * * * * * * * * * * * * * * * * * * * * * * * * * * * //

dimensions      [0 1 -1 0 0 0 0];

internalField   nonuniform List<vector> 
900
(
(0.000162539 -0.000161425 0)
(0.000287407 -6.908e-05 0)
(-3.51982e-05 9.84977e-05 0)
(-0.000813403 0.000245967 0)
(-0.00195524 0.000352589 0)
(-0.00335654 0.000421104 0)
(-0.0049233 0.000460819 0)
(-0.00657845 0.000479871 0)
(-0.00825837 0.000482827 0)
(-0.00990546 0.000470783 0)
(-0.0114615 0.000442327 0)
(-0.0128638 0.000394755 0)
(-0.0140441 0.000325321 0)
(-0.0149311 0.000232426 0)
(-0.0154553 0.00011668 0)
(-0.0155568 -1.83591e-05 0)
(-0.0151939 -0.000166179 0)
(-0.0143518 -0.000316266 0)
(-0.0130509 -0.000455672 0)
(-0.0113511 -0.00057012 0)
(-0.00935248 -0.000645824 0)
(-0.00718994 -0.000671655 0)
(-0.00502254 -0.000641178 0)
(-0.00301775 -0.000554139 0)
(-0.00133208 -0.00041725 0)
(-9.14604e-05 -0.000244898 0)
(0.00062403 -5.85965e-05 0)
(0.000803143 0.000115611 0)
(0.000552 0.000221451 0)
(0.000170725 0.000169586 0)
(7.75182e-05 -0.000294735 0)
(-0.000301918 0.00029942 0)
(-0.00173133 0.00113328 0)
(-0.00412379 0.00188328 0)
(-0.0073149 0.00245977 0)
(-0.0111027 0.00285574 0)
(-0.0152828 0.00309396 0)
(-0.0196688 0.00319966 0)
(-0.0240922 0.00318862 0)
(-0.0283925 0.00306512 0)
(-0.0324091 0.00282469 0)
(-0.0359753 0.00245896 0)
(-0.0389195 0.00196126 0)
(-0.0410716 0.00133198 0)
(-0.0422753 0.00058315 0)
(-0.0424044 -0.000258529 0)
(-0.0413794 -0.00114989 0)
(-0.0391858 -0.00203291 0)
(-0.035889 -0.00283861 0)
(-0.0316405 -0.0034936 0)
(-0.0266772 -0.00392911 0)
(-0.0213091 -0.00409111 0)
(-0.0158959 -0.00394995 0)
(-0.0108139 -0.00350779 0)
(-0.00641474 -0.00280273 0)
(-0.00298188 -0.00191037 0)
(-0.000686158 -0.000943247 0)
(0.000442361 -5.07541e-05 0)
(0.000589643 0.000554346 0)
(0.000229484 0.000549416 0)
(-0.000106201 3.29498e-05 0)
(-0.00124074 0.00175118 0)
(-0.00402391 0.00379084 0)
(-0.00813093 0.00561177 0)
(-0.0133064 0.00703685 0)
(-0.0192833 0.00803516 0)
(-0.0257836 0.00863674 0)
(-0.0325428 0.00888298 0)
(-0.0393121 0.00880164 0)
(-0.0458497 0.00840046 0)
(-0.0519121 0.00767176 0)
(-0.0572511 0.00660265 0)
(-0.0616173 0.00518729 0)
(-0.0647704 0.00343873 0)
(-0.0664965 0.00139869 0)
(-0.0666276 -0.000856127 0)
(-0.0650652 -0.00321156 0)
(-0.0618009 -0.00552134 0)
(-0.0569338 -0.00761583 0)
(-0.0506785 -0.00931784 0)
(-0.0433629 -0.0104632 0)
(-0.0354134 -0.0109237 0)
(-0.0273249 -0.0106297 0)
(-0.0196182 -0.00958781 0)
(-0.0127862 -0.00789168 0)
(-0.00723471 -0.00572462 0)
(-0.0032239 -0.00335783 0)
(-0.000819615 -0.00114979 0)
(0.000158944 0.000455979 0)
(0.000165877 0.000851893 0)
(-0.000300906 0.000912056 0)
(-0.00225301 0.00438555 0)
(-0.00648364 0.00802989 0)
(-0.012352 0.0111984 0)
(-0.0194774 0.0136648 0)
(-0.0275274 0.0153887 0)
(-0.0361639 0.0164108 0)
(-0.0450642 0.0167872 0)
(-0.0539206 0.0165551 0)
(-0.06243 0.0157241 0)
(-0.0702869 0.0142832 0)
(-0.0771816 0.0122177 0)
(-0.0828067 0.00952827 0)
(-0.0868699 0.00625014 0)
(-0.0891137 0.00246772 0)
(-0.0893381 -0.00167596 0)
(-0.0874256 -0.00597819 0)
(-0.0833641 -0.0101828 0)
(-0.0772662 -0.0139969 0)
(-0.0693797 -0.017116 0)
(-0.0600879 -0.0192575 0)
(-0.0498952 -0.0201985 0)
(-0.0393969 -0.0198139 0)
(-0.029231 -0.0181076 0)
(-0.0200163 -0.0152335 0)
(-0.0122813 -0.0115009 0)
(-0.00639186 -0.00736776 0)
(-0.00248667 -0.0034268 0)
(-0.000446227 -0.0003883 0)
(6.94148e-05 0.000866087 0)
(-0.000484851 0.002341 0)
(-0.00324618 0.00823031 0)
(-0.00892668 0.0138663 0)
(-0.0165404 0.0186081 0)
(-0.0255621 0.0222434 0)
(-0.0355879 0.0247545 0)
(-0.0462253 0.0262065 0)
(-0.0571061 0.0266738 0)
(-0.06788 0.0262026 0)
(-0.0782012 0.0248024 0)
(-0.0877198 0.022459 0)
(-0.0960818 0.0191571 0)
(-0.102936 0.014908 0)
(-0.10795 0.00977412 0)
(-0.110828 0.00388939 0)
(-0.111334 -0.00252931 0)
(-0.109323 -0.00918087 0)
(-0.104758 -0.0156881 0)
(-0.0977397 -0.0216205 0)
(-0.0885173 -0.0265287 0)
(-0.0774976 -0.0299898 0)
(-0.0652359 -0.0316622 0)
(-0.0524089 -0.0313412 0)
(-0.0397661 -0.0290096 0)
(-0.0280608 -0.0248717 0)
(-0.0179666 -0.0193655 0)
(-0.00998797 -0.0131502 0)
(-0.00437647 -0.00707339 0)
(-0.00111411 -0.00212689 0)
(-2.63981e-05 0.00053545 0)
(-0.000652945 0.00429237 0)
(-0.00418171 0.0132558 0)
(-0.0112554 0.0212729 0)
(-0.0205463 0.0278033 0)
(-0.0313793 0.0327143 0)
(-0.0432774 0.0360517 0)
(-0.0557979 0.0379263 0)
(-0.0685367 0.03844 0)
(-0.0811148 0.0376501 0)
(-0.0931587 0.035566 0)
(-0.10429 0.032169 0)
(-0.114124 0.0274431 0)
(-0.122278 0.0214094 0)
(-0.128383 0.0141577 0)
(-0.132104 0.00587106 0)
(-0.133165 -0.00315979 0)
(-0.13137 -0.0125338 0)
(-0.126635 -0.0217481 0)
(-0.119017 -0.0302244 0)
(-0.108733 -0.0373505 0)
(-0.0961809 -0.0425372 0)
(-0.0819424 -0.0452904 0)
(-0.0667635 -0.045289 0)
(-0.0515094 -0.0424602 0)
(-0.0370903 -0.0370348 0)
(-0.0243627 -0.0295714 0)
(-0.0140166 -0.0209399 0)
(-0.00646248 -0.0122669 0)
(-0.00182248 -0.0048527 0)
(-0.000115705 -0.000148045 0)
(-0.000804578 0.00672738 0)
(-0.00504009 0.019391 0)
(-0.0134088 0.0301646 0)
(-0.0242644 0.038689 0)
(-0.0367893 0.0449735 0)
(-0.0504362 0.0491701 0)
(-0.0647183 0.0514605 0)
(-0.0792048 0.0519869 0)
(-0.0934994 0.0508228 0)
(-0.107215 0.0479783 0)
(-0.119957 0.0434285 0)
(-0.131323 0.0371535 0)
(-0.140907 0.0291797 0)
(-0.148308 0.0196178 0)
(-0.153149 0.00869224 0)
(-0.155098 -0.00324063 0)
(-0.153894 -0.0156864 0)
(-0.149376 -0.0280183 0)
(-0.141522 -0.0395046 0)
(-0.130481 -0.0493522 0)
(-0.116606 -0.0567744 0)
(-0.100477 -0.0610799 0)
(-0.0828911 -0.0617783 0)
(-0.0648358 -0.0586875 0)
(-0.0474048 -0.0520219 0)
(-0.0316855 -0.0424394 0)
(-0.0186129 -0.0310272 0)
(-0.00881497 -0.0192219 0)
(-0.00259783 -0.00867965 0)
(-0.000203679 -0.00120105 0)
(-0.000938718 0.00959951 0)
(-0.00580519 0.0265374 0)
(-0.0153373 0.0404168 0)
(-0.0276064 0.0511294 0)
(-0.041667 0.0588826 0)
(-0.05691 0.0639755 0)
(-0.072812 0.0666874 0)
(-0.088925 0.0672156 0)
(-0.104846 0.0656566 0)
(-0.120186 0.0620227 0)
(-0.134548 0.0562806 0)
(-0.147523 0.0484007 0)
(-0.158687 0.038406 0)
(-0.167613 0.026416 0)
(-0.173877 0.012681 0)
(-0.177086 -0.002393 0)
(-0.176891 -0.0182311 0)
(-0.173032 -0.0340946 0)
(-0.165372 -0.0490972 0)
(-0.153953 -0.0622494 0)
(-0.13904 -0.0725326 0)
(-0.121169 -0.0790043 0)
(-0.101165 -0.0809341 0)
(-0.0801278 -0.0779534 0)
(-0.0593587 -0.0701928 0)
(-0.0402279 -0.0583681 0)
(-0.023988 -0.0437826 0)
(-0.0115587 -0.0282233 0)
(-0.00349172 -0.0137713 0)
(-0.000300434 -0.002664 0)
(-0.00105276 0.012854 0)
(-0.00645871 0.0345724 0)
(-0.0169914 0.0518715 0)
(-0.0304852 0.0649522 0)
(-0.0458869 0.074269 0)
(-0.0625363 0.0803052 0)
(-0.079883 0.0834629 0)
(-0.0974704 0.0840105 0)
(-0.114899 0.0820754 0)
(-0.131789 0.0776742 0)
(-0.147752 0.0707626 0)
(-0.162383 0.061294 0)
(-0.175253 0.049276 0)
(-0.185909 0.0348199 0)
(-0.193889 0.0181812 0)
(-0.198726 -0.000208066 0)
(-0.199979 -0.0197162 0)
(-0.197265 -0.0395102 0)
(-0.190306 -0.0585573 0)
(-0.178992 -0.0756632 0)
(-0.163449 -0.0895453 0)
(-0.144118 -0.0989506 0)
(-0.121803 -0.102822 0)
(-0.0976889 -0.100502 0)
(-0.0732889 -0.0919337 0)
(-0.0503035 -0.0778208 0)
(-0.0303863 -0.0596636 0)
(-0.0148458 -0.0396435 0)
(-0.00456769 -0.0203603 0)
(-0.000417987 -0.00460952 0)
(-0.00114288 0.0164257 0)
(-0.00697984 0.0433487 0)
(-0.0183199 0.0643367 0)
(-0.0328123 0.0799471 0)
(-0.0493197 0.0909207 0)
(-0.0671428 0.0979566 0)
(-0.0857132 0.101603 0)
(-0.104574 0.102215 0)
(-0.123338 0.0999606 0)
(-0.141645 0.0948627 0)
(-0.159125 0.0868642 0)
(-0.17539 0.0758935 0)
(-0.190014 0.0619291 0)
(-0.202535 0.0450546 0)
(-0.212455 0.0255063 0)
(-0.219242 0.0037128 0)
(-0.222361 -0.0196715 0)
(-0.221299 -0.0437441 0)
(-0.215611 -0.0673467 0)
(-0.204998 -0.0890848 0)
(-0.189398 -0.107391 0)
(-0.169083 -0.120645 0)
(-0.144764 -0.127367 0)
(-0.11765 -0.12648 0)
(-0.0894401 -0.117598 0)
(-0.0621942 -0.101291 0)
(-0.0380538 -0.0792031 0)
(-0.0188387 -0.0539475 0)
(-0.00589496 -0.028758 0)
(-0.000569211 -0.00714641 0)
(-0.00120484 0.0202378 0)
(-0.00734751 0.0526936 0)
(-0.0192722 0.0775872 0)
(-0.0345015 0.0958646 0)
(-0.0518376 0.108582 0)
(-0.0705539 0.116679 0)
(-0.0900719 0.12087 0)
(-0.109941 0.121613 0)
(-0.129794 0.119124 0)
(-0.149296 0.113439 0)
(-0.168111 0.104487 0)
(-0.185875 0.0921637 0)
(-0.202183 0.0764055 0)
(-0.216578 0.0572487 0)
(-0.228542 0.0348837 0)
(-0.237499 0.00970358 0)
(-0.24283 -0.0176515 0)
(-0.243895 -0.0462492 0)
(-0.240079 -0.074842 0)
(-0.230871 -0.10186 0)
(-0.215961 -0.125449 0)
(-0.195377 -0.143582 0)
(-0.169635 -0.154266 0)
(-0.139867 -0.155848 0)
(-0.107883 -0.147423 0)
(-0.0760958 -0.129243 0)
(-0.0472083 -0.10298 0)
(-0.0236975 -0.0716844 0)
(-0.00754545 -0.0393555 0)
(-0.000767817 -0.0104215 0)
(-0.00123483 0.0242021 0)
(-0.0075435 0.0624111 0)
(-0.0198054 0.0913663 0)
(-0.0354773 0.112417 0)
(-0.0533256 0.126951 0)
(-0.0726058 0.136166 0)
(-0.092735 0.140961 0)
(-0.113274 0.141908 0)
(-0.133879 0.139286 0)
(-0.15425 0.133148 0)
(-0.174089 0.12341 0)
(-0.193074 0.109933 0)
(-0.210837 0.0926001 0)
(-0.226944 0.0713832 0)
(-0.240886 0.0464026 0)
(-0.25207 0.0179829 0)
(-0.25982 -0.0132888 0)
(-0.263398 -0.0465009 0)
(-0.262034 -0.0803705 0)
(-0.254989 -0.113201 0)
(-0.241672 -0.142884 0)
(-0.221786 -0.166979 0)
(-0.195529 -0.182901 0)
(-0.163813 -0.18827 0)
(-0.128426 -0.181426 0)
(-0.0920537 -0.162028 0)
(-0.058005 -0.131564 0)
(-0.029568 -0.0934654 0)
(-0.00959194 -0.0526202 0)
(-0.00102876 -0.0146207 0)
(-0.00123039 0.0282217 0)
(-0.00755632 0.0722875 0)
(-0.0198914 0.105392 0)
(-0.035688 0.129284 0)
(-0.0536983 0.145685 0)
(-0.0731672 0.156059 0)
(-0.0935112 0.161504 0)
(-0.114304 0.162721 0)
(-0.135228 0.160063 0)
(-0.156023 0.153609 0)
(-0.176439 0.143268 0)
(-0.196206 0.128866 0)
(-0.215011 0.110227 0)
(-0.232469 0.087249 0)
(-0.248112 0.0599627 0)
(-0.261368 0.0285966 0)
(-0.27155 -0.00635659 0)
(-0.277865 -0.0440648 0)
(-0.279423 -0.0832739 0)
(-0.275282 -0.122239 0)
(-0.264551 -0.15867 0)
(-0.246544 -0.189751 0)
(-0.221022 -0.21228 0)
(-0.188491 -0.223016 0)
(-0.150512 -0.219276 0)
(-0.109889 -0.199767 0)
(-0.0704938 -0.165441 0)
(-0.0365657 -0.119924 0)
(-0.0121058 -0.0690842 0)
(-0.00136874 -0.0199692 0)
(-0.00119131 0.0321954 0)
(-0.00738535 0.0821 0)
(-0.0195262 0.119369 0)
(-0.0351185 0.146122 0)
(-0.0529185 0.164402 0)
(-0.0721647 0.175947 0)
(-0.0922741 0.18206 0)
(-0.112833 0.183585 0)
(-0.133553 0.180962 0)
(-0.154214 0.174311 0)
(-0.174622 0.163541 0)
(-0.194573 0.148448 0)
(-0.213823 0.128802 0)
(-0.232065 0.104421 0)
(-0.248906 0.0752371 0)
(-0.263838 0.0413616 0)
(-0.276223 0.00315696 0)
(-0.285269 -0.038678 0)
(-0.290026 -0.0829976 0)
(-0.289405 -0.128111 0)
(-0.282233 -0.17166 0)
(-0.267409 -0.210554 0)
(-0.244152 -0.24102 0)
(-0.212374 -0.258877 0)
(-0.173147 -0.260169 0)
(-0.129118 -0.242211 0)
(-0.0845671 -0.204892 0)
(-0.044754 -0.151655 0)
(-0.0151534 -0.0893246 0)
(-0.00180672 -0.026731 0)
(-0.00112051 0.0360256 0)
(-0.00704503 0.0916316 0)
(-0.0187397 0.133001 0)
(-0.0338065 0.162576 0)
(-0.051018 0.182702 0)
(-0.069608 0.195382 0)
(-0.0889943 0.202133 0)
(-0.108776 0.203959 0)
(-0.128692 0.201398 0)
(-0.148569 0.194627 0)
(-0.168271 0.18357 0)
(-0.187669 0.168003 0)
(-0.20661 0.147652 0)
(-0.224886 0.122261 0)
(-0.24221 0.0916638 0)
(-0.258188 0.0558436 0)
(-0.272283 0.0150079 0)
(-0.283776 -0.0303225 0)
(-0.29174 -0.0791916 0)
(-0.295014 -0.13008 0)
(-0.292214 -0.180713 0)
(-0.281847 -0.227889 0)
(-0.262538 -0.267399 0)
(-0.233442 -0.294151 0)
(-0.194849 -0.302731 0)
(-0.148879 -0.288594 0)
(-0.0998985 -0.249863 0)
(-0.0541165 -0.189127 0)
(-0.0187909 -0.113931 0)
(-0.00236427 -0.0352062 0)
(-0.0010248 0.0396265 0)
(-0.0065689 0.100689 0)
(-0.0176044 0.146015 0)
(-0.0318557 0.178305 0)
(-0.0481163 0.200177 0)
(-0.0656146 0.213892 0)
(-0.0837694 0.22119 0)
(-0.102194 0.223243 0)
(-0.120658 0.22071 0)
(-0.139035 0.21384 0)
(-0.157257 0.202586 0)
(-0.175278 0.186727 0)
(-0.193047 0.165955 0)
(-0.210474 0.139955 0)
(-0.227409 0.108473 0)
(-0.243606 0.0713699 0)
(-0.258682 0.028686 0)
(-0.272054 -0.0192708 0)
(-0.282909 -0.071801 0)
(-0.290119 -0.127673 0)
(-0.292194 -0.184861 0)
(-0.287338 -0.240276 0)
(-0.273608 -0.289504 0)
(-0.249308 -0.32671 0)
(-0.213686 -0.344982 0)
(-0.167895 -0.337505 0)
(-0.115887 -0.299795 0)
(-0.0645232 -0.232564 0)
(-0.0230572 -0.143461 0)
(-0.00306607 -0.0457263 0)
(-0.000915639 0.0429364 0)
(-0.00601376 0.109126 0)
(-0.016245 0.158185 0)
(-0.0294506 0.193003 0)
(-0.0444381 0.216438 0)
(-0.0604285 0.231006 0)
(-0.0768453 0.238677 0)
(-0.0933219 0.240809 0)
(-0.109665 0.238198 0)
(-0.125804 0.231181 0)
(-0.141743 0.219765 0)
(-0.157529 0.203743 0)
(-0.17322 0.182797 0)
(-0.188859 0.156574 0)
(-0.204449 0.12475 0)
(-0.219916 0.0870758 0)
(-0.235067 0.0434372 0)
(-0.249511 -0.00608388 0)
(-0.262625 -0.0611234 0)
(-0.273425 -0.120792 0)
(-0.280449 -0.183485 0)
(-0.281749 -0.246474 0)
(-0.274934 -0.305462 0)
(-0.257479 -0.354188 0)
(-0.227414 -0.384416 0)
(-0.184497 -0.38683 0)
(-0.131616 -0.353481 0)
(-0.0756976 -0.281807 0)
(-0.0279673 -0.178371 0)
(-0.00394109 -0.0586458 0)
(-0.000810301 0.0459312 0)
(-0.00546501 0.116872 0)
(-0.0148491 0.169367 0)
(-0.0268694 0.206426 0)
(-0.0403265 0.231136 0)
(-0.0544328 0.246274 0)
(-0.0686267 0.254052 0)
(-0.0825762 0.25603 0)
(-0.0961403 0.253158 0)
(-0.109315 0.245881 0)
(-0.122188 0.234275 0)
(-0.134905 0.218169 0)
(-0.147641 0.197254 0)
(-0.160576 0.171159 0)
(-0.173868 0.139513 0)
(-0.187623 0.10198 0)
(-0.201852 0.0583047 0)
(-0.21642 0.00835077 0)
(-0.23092 -0.0478316 0)
(-0.244576 -0.109788 0)
(-0.256138 -0.176458 0)
(-0.263689 -0.245707 0)
(-0.264599 -0.313715 0)
(-0.25567 -0.37426 0)
(-0.233702 -0.418198 0)
(-0.196728 -0.433796 0)
(-0.14586 -0.408951 0)
(-0.0871906 -0.33616 0)
(-0.0335105 -0.218944 0)
(-0.00502597 -0.074335 0)
(-0.000734181 0.0486416 0)
(-0.00504525 0.123964 0)
(-0.0136815 0.179527 0)
(-0.0244997 0.218422 0)
(-0.036255 0.243986 0)
(-0.0481544 0.259283 0)
(-0.0596733 0.266792 0)
(-0.0705425 0.268295 0)
(-0.0806985 0.26491 0)
(-0.0902246 0.257204 0)
(-0.0993058 0.245333 0)
(-0.108195 0.22918 0)
(-0.117186 0.20846 0)
(-0.126592 0.182805 0)
(-0.136723 0.151816 0)
(-0.147856 0.115097 0)
(-0.160203 0.0722742 0)
(-0.173853 0.0230219 0)
(-0.188668 -0.0328739 0)
(-0.204178 -0.0954348 0)
(-0.219422 -0.164206 0)
(-0.232721 -0.237824 0)
(-0.241482 -0.313291 0)
(-0.242127 -0.384968 0)
(-0.23041 -0.443475 0)
(-0.20251 -0.475146 0)
(-0.157124 -0.463448 0)
(-0.0983681 -0.39424 0)
(-0.0396552 -0.265194 0)
(-0.00637311 -0.0931756 0)
(-0.000726217 0.0511778 0)
(-0.00493095 0.130591 0)
(-0.0131079 0.188783 0)
(-0.0228583 0.228956 0)
(-0.0328361 0.254778 0)
(-0.042259 0.269668 0)
(-0.0506808 0.276412 0)
(-0.0579417 0.277031 0)
(-0.0640958 0.272821 0)
(-0.0693435 0.264475 0)
(-0.0739843 0.252238 0)
(-0.0783859 0.23605 0)
(-0.0829596 0.215662 0)
(-0.0881425 0.190721 0)
(-0.0943795 0.160821 0)
(-0.1021 0.125524 0)
(-0.111687 0.084377 0)
(-0.123435 0.0369015 0)
(-0.137465 -0.0173687 0)
(-0.153631 -0.0788457 0)
(-0.171348 -0.147678 0)
(-0.189345 -0.223358 0)
(-0.205355 -0.30398 0)
(-0.215813 -0.38503 0)
(-0.215813 -0.457734 0)
(-0.199834 -0.50743 0)
(-0.16373 -0.513507 0)
(-0.108408 -0.453858 0)
(-0.0463644 -0.316759 0)
(-0.00806715 -0.115571 0)
(-0.000851184 0.053768 0)
(-0.00538484 0.137151 0)
(-0.0136344 0.197441 0)
(-0.0226193 0.238118 0)
(-0.0308271 0.263373 0)
(-0.0375308 0.277098 0)
(-0.042436 0.282444 0)
(-0.0455636 0.281688 0)
(-0.0471414 0.276299 0)
(-0.0475241 0.267087 0)
(-0.0471466 0.254379 0)
(-0.046497 0.238168 0)
(-0.0460983 0.218241 0)
(-0.0464943 0.194262 0)
(-0.0482434 0.165831 0)
(-0.0518934 0.132482 0)
(-0.0579687 0.0937137 0)
(-0.0669297 0.0489319 0)
(-0.0791175 -0.00251341 0)
(-0.0946895 -0.0613411 0)
(-0.113469 -0.12822 0)
(-0.134709 -0.203464 0)
(-0.156724 -0.28638 0)
(-0.176388 -0.374021 0)
(-0.188694 -0.459125 0)
(-0.186876 -0.527344 0)
(-0.163876 -0.555137 0)
(-0.116289 -0.511933 0)
(-0.0536107 -0.372773 0)
(-0.0102536 -0.141978 0)
(-0.00122609 0.0568273 0)
(-0.00681673 0.144323 0)
(-0.0159687 0.20603 0)
(-0.024644 0.246118 0)
(-0.0311144 0.269666 0)
(-0.0348139 0.281236 0)
(-0.0357211 0.284406 0)
(-0.034139 0.281713 0)
(-0.0305406 0.274772 0)
(-0.0254771 0.264482 0)
(-0.0195379 0.251222 0)
(-0.0133335 0.235023 0)
(-0.00748649 0.215695 0)
(-0.00262257 0.192917 0)
(0.000610824 0.166283 0)
(0.00158334 0.135324 0)
(-0.000332091 0.0994965 0)
(-0.00572422 0.0581584 0)
(-0.0150958 0.0105364 0)
(-0.0288701 -0.0442974 0)
(-0.0472616 -0.107391 0)
(-0.0700876 -0.179735 0)
(-0.0964139 -0.261794 0)
(-0.123952 -0.35242 0)
(-0.148228 -0.446664 0)
(-0.16198 -0.532038 0)
(-0.155627 -0.584046 0)
(-0.120722 -0.564445 0)
(-0.06136 -0.431687 0)
(-0.0131777 -0.172977 0)
(-0.0020737 0.0610854 0)
(-0.00988887 0.153176 0)
(-0.0210979 0.215299 0)
(-0.0299792 0.253213 0)
(-0.0346233 0.273498 0)
(-0.034843 0.281645 0)
(-0.0310818 0.28172 0)
(-0.0240585 0.276481 0)
(-0.0145724 0.267631 0)
(-0.00341071 0.256092 0)
(0.00867024 0.24225 0)
(0.0209456 0.226138 0)
(0.0327127 0.20757 0)
(0.0432793 0.186223 0)
(0.0519528 0.161685 0)
(0.0580492 0.133486 0)
(0.0608851 0.101059 0)
(0.0597877 0.0637521 0)
(0.0541088 0.0207368 0)
(0.043218 -0.0290174 0)
(0.0265652 -0.0867709 0)
(0.00379576 -0.153967 0)
(-0.0249723 -0.232001 0)
(-0.0585665 -0.321477 0)
(-0.0936547 -0.420284 0)
(-0.123447 -0.519332 0)
(-0.136752 -0.595856 0)
(-0.119965 -0.606393 0)
(-0.069444 -0.490988 0)
(-0.0172086 -0.209341 0)
(-0.00382438 0.0678261 0)
(-0.0156771 0.165279 0)
(-0.0303284 0.226138 0)
(-0.0397048 0.259525 0)
(-0.0419807 0.274444 0)
(-0.0377611 0.277607 0)
(-0.0282356 0.273559 0)
(-0.0146996 0.265174 0)
(0.00164334 0.25412 0)
(0.019742 0.241249 0)
(0.0386799 0.226878 0)
(0.0576388 0.210994 0)
(0.0758622 0.19338 0)
(0.0926274 0.1737 0)
(0.107226 0.151537 0)
(0.118952 0.126415 0)
(0.127094 0.0977758 0)
(0.130922 0.0649659 0)
(0.129684 0.0271699 0)
(0.122579 -0.0166408 0)
(0.108782 -0.0677802 0)
(0.0874787 -0.127889 0)
(0.0580208 -0.198951 0)
(0.0203562 -0.282988 0)
(-0.0237853 -0.380745 0)
(-0.0691504 -0.487848 0)
(-0.104372 -0.586295 0)
(-0.111427 -0.631711 0)
(-0.0771787 -0.546678 0)
(-0.0227654 -0.251968 0)
(-0.00729034 0.0793205 0)
(-0.0258541 0.182753 0)
(-0.0450781 0.239246 0)
(-0.0542577 0.264586 0)
(-0.0524625 0.271393 0)
(-0.041801 0.267768 0)
(-0.0245805 0.258569 0)
(-0.00283215 0.246557 0)
(0.0217892 0.233173 0)
(0.04798 0.219051 0)
(0.0746997 0.204349 0)
(0.101081 0.188948 0)
(0.12636 0.172568 0)
(0.149828 0.154841 0)
(0.170794 0.135341 0)
(0.188566 0.113599 0)
(0.202425 0.0890803 0)
(0.211611 0.0611688 0)
(0.215294 0.029113 0)
(0.212537 -0.00803247 0)
(0.202303 -0.0515012 0)
(0.183409 -0.102898 0)
(0.154576 -0.164408 0)
(0.114682 -0.238921 0)
(0.0635788 -0.329581 0)
(0.00400831 -0.437208 0)
(-0.0543399 -0.55148 0)
(-0.0908942 -0.633158 0)
(-0.0825 -0.592449 0)
(-0.0299393 -0.301539 0)
(-0.0138747 0.0995168 0)
(-0.0426284 0.207912 0)
(-0.065688 0.2542 0)
(-0.0711659 0.266361 0)
(-0.0610344 0.26173 0)
(-0.0399633 0.249539 0)
(-0.0117413 0.234466 0)
(0.0208059 0.218737 0)
(0.0556394 0.203275 0)
(0.0913115 0.18832 0)
(0.126767 0.173761 0)
(0.161188 0.159314 0)
(0.193886 0.144609 0)
(0.22423 0.129238 0)
(0.251604 0.112772 0)
(0.275368 0.0947605 0)
(0.294834 0.0747201 0)
(0.309241 0.0521064 0)
(0.317719 0.0262777 0)
(0.31923 -0.00356555 0)
(0.312592 -0.038458 0)
(0.29637 -0.0798047 0)
(0.268825 -0.129644 0)
(0.227997 -0.191082 0)
(0.172059 -0.268776 0)
(0.100738 -0.36813 0)
(0.0197867 -0.488493 0)
(-0.0510783 -0.602422 0)
(-0.0804461 -0.618824 0)
(-0.0375058 -0.358394 0)
(-0.0254051 0.135015 0)
(-0.0671009 0.240988 0)
(-0.0866644 0.266545 0)
(-0.0783067 0.258836 0)
(-0.0509366 0.23969 0)
(-0.0127282 0.218137 0)
(0.0311593 0.197589 0)
(0.0774814 0.17907 0)
(0.124211 0.162619 0)
(0.170093 0.147902 0)
(0.214321 0.134461 0)
(0.256322 0.121821 0)
(0.295628 0.109521 0)
(0.331794 0.0971246 0)
(0.364357 0.0842197 0)
(0.392793 0.0704049 0)
(0.416501 0.0552728 0)
(0.43477 0.0383863 0)
(0.446745 0.0192478 0)
(0.451367 -0.0027552 0)
(0.447399 -0.0283416 0)
(0.433255 -0.0586215 0)
(0.406956 -0.0952431 0)
(0.366015 -0.14094 0)
(0.307362 -0.200597 0)
(0.227818 -0.282462 0)
(0.127896 -0.395567 0)
(0.0207455 -0.53101 0)
(-0.0609511 -0.612588 0)
(-0.0408441 -0.421832 0)
(-0.0413122 0.197186 0)
(-0.0902399 0.272595 0)
(-0.0798367 0.259247 0)
(-0.0361698 0.226432 0)
(0.0218138 0.193665 0)
(0.0843865 0.165704 0)
(0.146956 0.143031 0)
(0.207302 0.124816 0)
(0.264424 0.110006 0)
(0.317933 0.097678 0)
(0.367708 0.0870838 0)
(0.4137 0.0776255 0)
(0.455846 0.0688169 0)
(0.494011 0.060254 0)
(0.527971 0.0515904 0)
(0.557391 0.0425161 0)
(0.581815 0.0327386 0)
(0.600654 0.0219628 0)
(0.613134 0.00986454 0)
(0.618342 -0.00396375 0)
(0.615094 -0.0199112 0)
(0.601798 -0.0386926 0)
(0.576488 -0.0614024 0)
(0.536518 -0.0899689 0)
(0.47817 -0.128258 0)
(0.396145 -0.184458 0)
(0.285127 -0.273852 0)
(0.146008 -0.410559 0)
(-0.00337205 -0.554025 0)
(-0.0253811 -0.477528 0)
(-0.0341517 0.293691 0)
(-0.0479616 0.272523 0)
(0.0536548 0.199483 0)
(0.156733 0.149682 0)
(0.249728 0.114933 0)
(0.332083 0.0901122 0)
(0.404705 0.0725196 0)
(0.468764 0.0599241 0)
(0.525515 0.0506199 0)
(0.576074 0.0434602 0)
(0.621301 0.0376936 0)
(0.661804 0.0328099 0)
(0.697965 0.0284462 0)
(0.729975 0.0243338 0)
(0.757856 0.0202639 0)
(0.78148 0.0160658 0)
(0.800573 0.0115897 0)
(0.814729 0.00669783 0)
(0.823318 0.00124582 0)
(0.825736 -0.00482729 0)
(0.82103 -0.0118558 0)
(0.807901 -0.0201118 0)
(0.784736 -0.0300595 0)
(0.749226 -0.0426312 0)
(0.697773 -0.059876 0)
(0.624278 -0.0868801 0)
(0.518473 -0.137168 0)
(0.365138 -0.240268 0)
(0.144133 -0.406972 0)
(0.0588687 -0.458305 0)
(0.303203 0.180895 0)
(0.382389 0.144215 0)
(0.560552 0.0910598 0)
(0.686289 0.058939 0)
(0.769013 0.0393406 0)
(0.828739 0.0268831 0)
(0.874808 0.0190013 0)
(0.911566 0.0140169 0)
(0.941712 0.0107834 0)
(0.967046 0.00858763 0)
(0.988708 0.00700582 0)
(1.0074 0.00578309 0)
(1.02352 0.00476086 0)
(1.0373 0.00383674 0)
(1.04882 0.00294148 0)
(1.05804 0.00202519 0)
(1.06486 0.00104783 0)
(1.06908 -2.08374e-05 0)
(1.07048 -0.00122091 0)
(1.06868 -0.00245566 0)
(1.06316 -0.00392435 0)
(1.05345 -0.00566478 0)
(1.03877 -0.0077521 0)
(1.01793 -0.0103939 0)
(0.98887 -0.0140896 0)
(0.947482 -0.0201834 0)
(0.883952 -0.0325685 0)
(0.77634 -0.0637461 0)
(0.544819 -0.139462 0)
(0.38249 -0.201735 0)
)
;

boundaryField
{
    movingWall
    {
        type            fixedValue;
        value           uniform (1.2 0 0);
    }
    fixedWalls
    {
        type            noSlip;
    }
    frontAndBack
    {
        type            empty;
    }
}


// ************************************************************************* //
