/*--------------------------------*- C++ -*----------------------------------*\
  =========                 |
  \\      /  F ield         | OpenFOAM: The Open Source CFD Toolbox
   \\    /   O peration     | Website:  https://openfoam.org
    \\  /    A nd           | Version:  7
     \\/     M anipulation  |
\*---------------------------------------------------------------------------*/
FoamFile
{
    version     2.0;
    format      ascii;
    class       volScalarField;
    location    "4.8";
    object      p;
}
// * * * * * * * * * * * * * * * * * * * * * * * * * * * * * * * * * * * * * //

dimensions      [0 2 -2 0 0 0 0];

internalField   nonuniform List<scalar> 
900
(
1.72448e-06
-0.000301813
-0.000777992
-0.00125891
-0.00166203
-0.00193176
-0.00204108
-0.00197879
-0.00174023
-0.00132312
-0.000726899
4.58336e-05
0.000986552
0.00207763
0.00328947
0.00457874
0.00588841
0.00714988
0.00828801
0.00922837
0.00990628
0.0102764
0.0103212
0.0100567
0.00953574
0.00884558
0.00807242
0.00738774
0.00690786
0.00675841
0.000305638
-8.19975e-06
-0.000364311
-0.00070972
-0.000991276
-0.00116932
-0.00122227
-0.00113891
-0.000912851
-0.000540308
-1.98463e-05
0.000646533
0.0014514
0.00237952
0.00340568
0.00449315
0.00559543
0.00665514
0.00761058
0.00840115
0.00897481
0.00929612
0.00935309
0.00916146
0.00876567
0.00823537
0.00765502
0.00712427
0.00674612
0.0066074
0.000800224
0.000337062
-3.08409e-05
-0.000337554
-0.00057211
-0.000710038
-0.000738467
-0.000650706
-0.000441822
-0.000107772
0.000354167
0.000944075
0.00165737
0.00248247
0.00339863
0.00437483
0.00536891
0.00632944
0.00719964
0.00792288
0.00844999
0.00874708
0.0088022
0.0086294
0.00826896
0.0077831
0.00724847
0.00674821
0.00636007
0.00614209
0.00131972
0.000667151
0.000233746
-8.24151e-05
-0.000308802
-0.000435515
-0.000459699
-0.000381015
-0.000197241
9.5585e-05
0.000501964
0.00102513
0.00166465
0.00241371
0.00325651
0.0041664
0.00510491
0.00602272
0.00686341
0.00756888
0.00808701
0.00838011
0.0084323
0.00825415
0.00788286
0.00737757
0.00681184
0.00626523
0.00579999
0.00543702
0.00175755
0.000902512
0.000384886
3.79943e-05
-0.000200772
-0.000334607
-0.000370305
-0.000313856
-0.000165688
7.83853e-05
0.000425249
0.000882164
0.00145386
0.00213925
0.00292811
0.00379823
0.00471459
0.00562815
0.00648034
0.00720808
0.00775215
0.00806668
0.008128
0.00794057
0.0075379
0.00697785
0.00633531
0.00569288
0.00510397
0.0045579
0.00201707
0.000962823
0.000353969
-3.62917e-05
-0.000302436
-0.000459181
-0.000521936
-0.000502253
-0.000402587
-0.000217908
6.17966e-05
0.000448721
0.000953817
0.00158285
0.00233212
0.00318455
0.00410913
0.00505596
0.00596265
0.00675828
0.0073724
0.0077461
0.00784296
0.00765732
0.0072169
0.00657899
0.00582361
0.00504342
0.00429057
0.0035284
0.00201795
0.00077628
7.61674e-05
-0.000364448
-0.000669074
-0.000862689
-0.000968191
-0.0010017
-0.000966883
-0.000857094
-0.000658361
-0.000352549
7.87531e-05
0.000649632
0.00136452
0.0022129
0.00317044
0.00418556
0.00519171
0.00610788
0.00684829
0.00733528
0.00751307
0.00735965
0.0068927
0.00616785
0.00527328
0.00431874
0.00336286
0.00234664
0.00169073
0.00027778
-0.000509474
-0.00100391
-0.00135584
-0.00159962
-0.00176472
-0.0018709
-0.00192226
-0.00190982
-0.00181483
-0.00161213
-0.00127436
-0.000777108
-0.000104788
0.000743055
0.00174559
0.00285783
0.00400871
0.00510563
0.00604352
0.00671914
0.00704852
0.00698397
0.00652545
0.00572308
0.00467472
0.00351406
0.00231366
0.000993637
0.000973188
-0.000592044
-0.00146023
-0.00201059
-0.00241826
-0.00272649
-0.0029706
-0.0031734
-0.00333889
-0.0034553
-0.00349842
-0.00343502
-0.00322705
-0.00283718
-0.0022351
-0.001405
-0.00035875
0.000869471
0.00220753
0.00355193
0.00477518
0.00574093
0.00632552
0.00644193
0.00605971
0.00521507
0.0040143
0.00262163
0.00113103
-0.000558926
-0.000189998
-0.00188591
-0.00282775
-0.00343612
-0.0039089
-0.00429793
-0.00464413
-0.00497306
-0.00528858
-0.00557601
-0.00580543
-0.00593468
-0.00591325
-0.00568781
-0.00520913
-0.00444127
-0.00337437
-0.00202937
-0.000471632
0.00118856
0.00280026
0.0041867
0.00517061
0.00560695
0.00541493
0.00460116
0.00327411
0.00163389
-0.00019616
-0.00234099
-0.00184585
-0.00364819
-0.00465579
-0.00532475
-0.00587339
-0.00636205
-0.00683725
-0.00732756
-0.00783715
-0.00834898
-0.00882769
-0.0092218
-0.00946685
-0.0094903
-0.00921879
-0.00858847
-0.00755908
-0.0061262
-0.00433775
-0.00230232
-0.000191149
0.00177354
0.0033461
0.0042994
0.00447349
0.00381877
0.00243057
0.000546568
-0.00167218
-0.0043764
-0.00403071
-0.00591274
-0.00697771
-0.00771027
-0.00834647
-0.00895523
-0.0095891
-0.0102804
-0.0110348
-0.011834
-0.0126384
-0.0133875
-0.014002
-0.0143874
-0.014441
-0.0140626
-0.0131703
-0.0117198
-0.00972605
-0.00728111
-0.00456672
-0.00184983
0.000542966
0.0022753
0.00306918
0.00277747
0.00145237
-0.000637881
-0.00328734
-0.00667414
-0.0067675
-0.00870075
-0.00981409
-0.0106128
-0.0113477
-0.0120965
-0.0129187
-0.0138517
-0.0149042
-0.0160591
-0.0172741
-0.0184812
-0.0195864
-0.0204715
-0.0210001
-0.0210273
-0.0204181
-0.019072
-0.01695
-0.014107
-0.0107165
-0.00707962
-0.00360848
-0.000774202
0.000980595
0.00135245
0.000298698
-0.00190571
-0.0050088
-0.00921706
-0.0100633
-0.012019
-0.0131708
-0.0140364
-0.0148778
-0.0157823
-0.0168176
-0.0180281
-0.0194284
-0.0210047
-0.022715
-0.0244862
-0.0262109
-0.0277473
-0.0289221
-0.0295408
-0.0294042
-0.0283371
-0.0262257
-0.023062
-0.0189829
-0.0142989
-0.00949781
-0.00520051
-0.00206148
-0.000615327
-0.00107953
-0.0032247
-0.00676766
-0.011946
-0.0139076
-0.0158591
-0.0170385
-0.017967
-0.0189153
-0.0199814
-0.0212431
-0.0227546
-0.0245388
-0.026589
-0.0288669
-0.031297
-0.0337615
-0.0360963
-0.0380916
-0.0394999
-0.0400496
-0.0394726
-0.0375767
-0.0342496
-0.0295569
-0.0237806
-0.0174533
-0.0113397
-0.0063406
-0.00330357
-0.00273082
-0.00453219
-0.00844081
-0.0147373
-0.0182729
-0.0201991
-0.0213933
-0.0223731
-0.023416
-0.0246327
-0.0261143
-0.0279278
-0.0301083
-0.0326594
-0.0355497
-0.0387055
-0.0420017
-0.0452549
-0.0482206
-0.0505987
-0.0520404
-0.0521705
-0.0507524
-0.0474941
-0.042361
-0.0355617
-0.027622
-0.0194121
-0.0120837
-0.00686674
-0.00467931
-0.00571463
-0.0098251
-0.0173723
-0.0231166
-0.0250065
-0.0262006
-0.0272082
-0.0283138
-0.0296448
-0.0313106
-0.0333951
-0.0359493
-0.0389905
-0.0424977
-0.0464017
-0.050574
-0.0548156
-0.0588512
-0.06233
-0.0648468
-0.0659752
-0.0652101
-0.0622716
-0.0569516
-0.0493224
-0.0398336
-0.0293893
-0.01935
-0.0113591
-0.00687768
-0.00657426
-0.010602
-0.0194954
-0.0283867
-0.0302462
-0.0314216
-0.0324152
-0.0335237
-0.0348985
-0.0366741
-0.0389575
-0.0418195
-0.045294
-0.0493724
-0.0539922
-0.0590237
-0.0642561
-0.0693884
-0.0740282
-0.0777057
-0.0799015
-0.080059
-0.0777065
-0.0724899
-0.0643179
-0.0534943
-0.040862
-0.0278972
-0.0166235
-0.0091312
-0.00677763
-0.0102899
-0.0205607
-0.0340313
-0.0358909
-0.037023
-0.0379345
-0.0389478
-0.0402514
-0.0420159
-0.044379
-0.0474356
-0.0512379
-0.0557902
-0.061037
-0.0668478
-0.073002
-0.0791777
-0.0849484
-0.0897925
-0.0931153
-0.0942806
-0.0926864
-0.0878236
-0.0794155
-0.067567
-0.0529621
-0.0370628
-0.0221652
-0.0109938
-0.00578244
-0.00818282
-0.0197621
-0.0400136
-0.0419386
-0.0429903
-0.0437119
-0.0444807
-0.0455436
-0.0471239
-0.049399
-0.0524921
-0.0564738
-0.0613595
-0.0670977
-0.0735556
-0.0805012
-0.0875938
-0.0943776
-0.100289
-0.104676
-0.106829
-0.106038
-0.101664
-0.0932478
-0.0806728
-0.0643913
-0.0457163
-0.02705
-0.0116535
-0.00274212
-0.0032711
-0.0159428
-0.0463372
-0.0484377
-0.0493457
-0.0497089
-0.0500148
-0.0506034
-0.0517718
-0.0537479
-0.0566849
-0.0606694
-0.0657219
-0.0717895
-0.0787311
-0.0863
-0.0941345
-0.101751
-0.108549
-0.113829
-0.116826
-0.116735
-0.112815
-0.104447
-0.0913036
-0.0735756
-0.0523252
-0.0298768
-0.00983976
0.00360276
0.00585696
-0.00746669
-0.0530912
-0.055527
-0.0561707
-0.05591
-0.0554426
-0.0552503
-0.0557288
-0.0571639
-0.0597361
-0.0635401
-0.0685917
-0.0748246
-0.0820873
-0.0901015
-0.0984859
-0.106725
-0.114182
-0.120113
-0.123696
-0.124066
-0.120377
-0.111888
-0.0980832
-0.0789114
-0.0551378
-0.0288578
-0.00379641
0.0150231
0.0211352
0.0079708
-0.060539
-0.0634998
-0.0636351
-0.0623291
-0.0606552
-0.0592979
-0.0587693
-0.0594109
-0.0614184
-0.0648786
-0.0697861
-0.076043
-0.0834995
-0.0917967
-0.10055
-0.109203
-0.117076
-0.123378
-0.127232
-0.127705
-0.12386
-0.114852
-0.0999923
-0.0790343
-0.0524491
-0.0220172
0.00864035
0.0338539
0.0451753
0.0336482
-0.0693059
-0.0729136
-0.0720339
-0.0690107
-0.065539
-0.0625566
-0.060686
-0.0603001
-0.0615806
-0.0645797
-0.0692527
-0.0754602
-0.0829761
-0.0914511
-0.100426
-0.109304
-0.11736
-0.123749
-0.127528
-0.127691
-0.12319
-0.113065
-0.0965011
-0.0730503
-0.0429105
-0.00752088
0.029798
0.0629528
0.0814857
0.0743026
-0.0807987
-0.084773
-0.0818192
-0.0760172
-0.0699633
-0.0648344
-0.0613007
-0.0597046
-0.0601621
-0.0626516
-0.0670563
-0.0731748
-0.0807156
-0.0892826
-0.0983598
-0.107301
-0.115326
-0.121528
-0.124889
-0.124308
-0.118622
-0.106726
-0.0876389
-0.0607036
-0.0258745
0.0158417
0.0616449
0.105442
0.134644
0.136626
-0.0981755
-0.10085
-0.0935852
-0.0833624
-0.0737292
-0.0659007
-0.0604368
-0.0575347
-0.057166
-0.0591809
-0.0633574
-0.069408
-0.0769685
-0.0855789
-0.0946669
-0.103532
-0.111339
-0.117114
-0.119757
-0.118065
-0.11072
-0.0964583
-0.074072
-0.0426155
-0.00167945
0.0482036
0.105011
0.163898
0.209836
0.229181
-0.12851
-0.124155
-0.108047
-0.090944
-0.0764921
-0.0654096
-0.0578513
-0.05368
-0.052608
-0.0542892
-0.0583578
-0.0644205
-0.0720322
-0.0806686
-0.0897027
-0.0983838
-0.105824
-0.110992
-0.112721
-0.109735
-0.100439
-0.0834751
-0.0573214
-0.0206025
0.0276943
0.0879184
0.159432
0.238576
0.311106
0.363674
-0.187706
-0.158016
-0.125479
-0.0981084
-0.0773497
-0.0625959
-0.0530477
-0.0479122
-0.0464712
-0.0481103
-0.0522943
-0.0585197
-0.0662672
-0.0749605
-0.0839319
-0.0923955
-0.0994267
-0.103947
-0.10472
-0.100343
-0.0893999
-0.0699992
-0.0403392
0.00150375
0.0575261
0.129673
0.219739
0.326962
0.440672
0.566955
-0.319275
-0.198106
-0.137295
-0.0970501
-0.0702234
-0.0530591
-0.0430039
-0.0381914
-0.0373618
-0.0396673
-0.0444702
-0.0512176
-0.0593666
-0.0683315
-0.0774419
-0.0859121
-0.0928179
-0.0970764
-0.0974305
-0.0923851
-0.0805631
-0.0599338
-0.0283934
0.0165426
0.0780578
0.160536
0.270415
0.416124
0.604559
0.894123
-0.646399
-0.234406
-0.105799
-0.0620481
-0.0384152
-0.0251912
-0.0193909
-0.0183865
-0.0205981
-0.0252485
-0.0318608
-0.0400193
-0.0492881
-0.0591659
-0.069051
-0.0782136
-0.085778
-0.0907115
-0.0918322
-0.0878332
-0.0768815
-0.0572712
-0.0268758
0.0170016
0.078128
0.162758
0.283312
0.46805
0.774257
1.36815
)
;

boundaryField
{
    movingWall
    {
        type            zeroGradient;
    }
    fixedWalls
    {
        type            zeroGradient;
    }
    frontAndBack
    {
        type            empty;
    }
}


// ************************************************************************* //
