/*--------------------------------*- C++ -*----------------------------------*\
  =========                 |
  \\      /  F ield         | OpenFOAM: The Open Source CFD Toolbox
   \\    /   O peration     | Website:  https://openfoam.org
    \\  /    A nd           | Version:  7
     \\/     M anipulation  |
\*---------------------------------------------------------------------------*/
FoamFile
{
    version     2.0;
    format      ascii;
    class       volScalarField;
    location    "9";
    object      p;
}
// * * * * * * * * * * * * * * * * * * * * * * * * * * * * * * * * * * * * * //

dimensions      [0 2 -2 0 0 0 0];

internalField   nonuniform List<scalar> 
900
(
-1.01531e-07
-0.000352165
-0.000929924
-0.00155379
-0.00211311
-0.00254297
-0.0028097
-0.00289679
-0.00279421
-0.00249374
-0.00198864
-0.0012762
-0.000361708
0.00073716
0.0019866
0.00333465
0.00471142
0.00603266
0.00720656
0.00814349
0.00876765
0.00902904
0.00891349
0.00844863
0.00770498
0.00678956
0.0058363
0.00500386
0.00445564
0.00431714
0.000346892
-1.79344e-05
-0.000460655
-0.000920232
-0.00133121
-0.00164693
-0.00184104
-0.0018979
-0.00180627
-0.00155687
-0.00114248
-0.000559875
0.000187166
0.00108451
0.00210459
0.00320465
0.00432901
0.00540789
0.00636637
0.00713155
0.00764239
0.00785975
0.00777449
0.00741191
0.00683139
0.0061213
0.00538891
0.00473687
0.00430233
0.00417621
0.000946046
0.000408499
-4.92759e-05
-0.000461785
-0.000815135
-0.0010816
-0.00124599
-0.00129872
-0.00123066
-0.0010323
-0.000694717
-0.00021177
0.000416837
0.00118214
0.00206291
0.00302421
0.00401578
0.0049755
0.0058343
0.00652373
0.00698559
0.00718186
0.0071027
0.00677064
0.00623955
0.00558841
0.00491094
0.004302
0.00385624
0.003644
0.00161867
0.000845858
0.000307541
-0.00011644
-0.000460444
-0.000715323
-0.000878722
-0.000949114
-0.000920635
-0.00078351
-0.000526007
-0.000137295
0.000388936
0.00105051
0.00183308
0.00270757
0.00362851
0.00453636
0.00536206
0.00603479
0.00649208
0.00669065
0.00661537
0.00628418
0.00574707
0.00507902
0.00436943
0.00371019
0.00317554
0.00280093
0.00221789
0.00119187
0.000549432
8.73617e-05
-0.000274177
-0.000543163
-0.000729592
-0.000839755
-0.00087063
-0.000811413
-0.000646421
-0.000358689
6.56775e-05
0.000632706
0.00133585
0.00215215
0.00304059
0.00394202
0.00478429
0.00548989
0.00598694
0.00622144
0.0061681
0.00583685
0.0052728
0.00454903
0.00375607
0.00298968
0.00231373
0.00172447
0.00262009
0.00134342
0.000587917
7.13435e-05
-0.000328536
-0.000635142
-0.000869434
-0.00104426
-0.0011583
-0.00119858
-0.00114414
-0.000970413
-0.000654305
-0.00017995
0.000455374
0.00123602
0.00212561
0.00306472
0.00397616
0.00477219
0.00536641
0.00568793
0.00569485
0.00538372
0.00479168
0.00399031
0.00307573
0.0021555
0.00129125
0.00044672
0.00271674
0.00120531
0.000337172
-0.000243511
-0.000698242
-0.00106437
-0.00137221
-0.00163962
-0.00186558
-0.00203358
-0.00211605
-0.00207921
-0.00188892
-0.00151736
-0.000950235
-0.000193681
0.000722888
0.00174039
0.00277611
0.00372944
0.00449438
0.00497588
0.00510689
0.00486231
0.00426538
0.00338424
0.00232383
0.00121159
0.000116065
-0.00102682
0.00241186
0.000690009
-0.000284337
-0.000934395
-0.00145787
-0.00190484
-0.00231352
-0.00270526
-0.00307804
-0.0034106
-0.00366738
-0.00380378
-0.00377248
-0.00353093
-0.00304988
-0.00232217
-0.00136547
-0.000236295
0.000978814
0.0021652
0.00319262
0.00393348
0.00428439
0.00418657
0.00363915
0.0027013
0.00148793
0.00015427
-0.0012151
-0.00270947
0.00162046
-0.0002814
-0.00135214
-0.002075
-0.00268055
-0.00323061
-0.00377011
-0.00432275
-0.00488453
-0.00542855
-0.0059102
-0.00627245
-0.00645248
-0.00638962
-0.00603471
-0.00536036
-0.00437141
-0.00311107
-0.00166641
-0.000165183
0.00123463
0.00236405
0.00306947
0.00324154
0.00283912
0.00190118
0.000550134
-0.00102384
-0.00271081
-0.00462446
0.000269895
-0.00177642
-0.00293176
-0.00373046
-0.00443201
-0.00510911
-0.00581259
-0.00656783
-0.00736845
-0.00818153
-0.00895279
-0.00961151
-0.010077
-0.0102667
-0.0101061
-0.00954012
-0.00855227
-0.00716337
-0.00545294
-0.00355689
-0.00166142
1.5299e-05
0.0012536
0.0018715
0.00176344
0.000928395
-0.000512761
-0.00232987
-0.00437807
-0.0067956
-0.00169696
-0.00384769
-0.00507448
-0.00595209
-0.00676422
-0.00759369
-0.0084968
-0.00950048
-0.0105962
-0.0117455
-0.0128842
-0.0139275
-0.0147748
-0.0153178
-0.0154511
-0.0150853
-0.0141655
-0.0126838
-0.0106985
-0.00834316
-0.00582732
-0.00342246
-0.00142963
-0.000129915
0.000273301
-0.000293063
-0.00172959
-0.00376662
-0.00621503
-0.00923782
-0.00431782
-0.00652933
-0.00781329
-0.00877243
-0.00970925
-0.0107161
-0.0118546
-0.0131538
-0.014604
-0.0161621
-0.0177554
-0.0192846
-0.0206283
-0.0216495
-0.0222063
-0.0221662
-0.0214254
-0.0199316
-0.017705
-0.0148603
-0.0116183
-0.00830004
-0.00529865
-0.00302179
-0.00181278
-0.00186424
-0.00313499
-0.00532769
-0.0082025
-0.0119467
-0.00760725
-0.00983395
-0.0111595
-0.012201
-0.0132738
-0.0144793
-0.015885
-0.0175228
-0.0193837
-0.0214219
-0.0235578
-0.025679
-0.0276431
-0.0292828
-0.0304158
-0.0308585
-0.0304475
-0.0290731
-0.0266946
-0.0233863
-0.0193582
-0.0149664
-0.0106956
-0.00710197
-0.00471543
-0.00391168
-0.00476791
-0.00699107
-0.0102932
-0.0148854
-0.0115542
-0.0137508
-0.0151009
-0.0162216
-0.0174351
-0.0188518
-0.0205459
-0.0225542
-0.0248703
-0.0274485
-0.0302046
-0.0330155
-0.035719
-0.0381179
-0.0399872
-0.041089
-0.0411941
-0.0401115
-0.0377302
-0.0340555
-0.029256
-0.0236936
-0.017927
-0.0126675
-0.00867315
-0.00657806
-0.00666521
-0.00870941
-0.0123975
-0.0179674
-0.0161212
-0.0182462
-0.0196018
-0.0207914
-0.022139
-0.0237642
-0.0257498
-0.0281399
-0.0309337
-0.0340884
-0.0375182
-0.0410921
-0.044631
-0.0479094
-0.0506611
-0.0525928
-0.0534046
-0.0528194
-0.0506365
-0.0467677
-0.0413056
-0.0345758
-0.0271721
-0.0199424
-0.0138945
-0.00999534
-0.00884611
-0.0103949
-0.0143637
-0.0210333
-0.0212467
-0.0232663
-0.0246059
-0.0258437
-0.0273011
-0.0291092
-0.0313625
-0.0341156
-0.0373767
-0.041109
-0.0452284
-0.0495987
-0.0540274
-0.0582642
-0.0620053
-0.0649052
-0.0665938
-0.0667047
-0.0649494
-0.0611183
-0.0551961
-0.0474238
-0.0383726
-0.0289763
-0.0204793
-0.0142333
-0.0112812
-0.0118957
-0.0159523
-0.0238211
-0.0268495
-0.0287435
-0.030043
-0.0312929
-0.0328115
-0.0347457
-0.0372069
-0.0402653
-0.0439417
-0.0482084
-0.0529855
-0.0581345
-0.0634521
-0.0686675
-0.0734444
-0.0773907
-0.0800719
-0.0810312
-0.0799276
-0.0763871
-0.0702706
-0.0616926
-0.0511336
-0.0395345
-0.028316
-0.0192213
-0.0138413
-0.0129603
-0.0168009
-0.0259274
-0.0328379
-0.0346061
-0.0358376
-0.037043
-0.0385419
-0.0405056
-0.0430715
-0.0463318
-0.0503247
-0.0550342
-0.0603863
-0.0662414
-0.0723876
-0.0785368
-0.0843251
-0.0893209
-0.0930467
-0.0950091
-0.09465
-0.0916038
-0.0855646
-0.0764806
-0.0646791
-0.0510138
-0.0369786
-0.0246512
-0.0162251
-0.0131872
-0.0163799
-0.0267586
-0.0391213
-0.0407924
-0.0419225
-0.0429979
-0.0443543
-0.046203
-0.048721
-0.0520319
-0.0561965
-0.0612125
-0.0670113
-0.0734518
-0.0803132
-0.0872915
-0.0939992
-0.0999721
-0.104688
-0.107589
-0.108091
-0.105681
-0.0999306
-0.0906242
-0.0778963
-0.0624279
-0.0456605
-0.0298849
-0.0178711
-0.0119582
-0.0139359
-0.0254701
-0.0456275
-0.0472697
-0.0482535
-0.0490724
-0.0501098
-0.0516428
-0.0539082
-0.0570735
-0.0612266
-0.0663787
-0.0724648
-0.0793386
-0.0867673
-0.0944292
-0.101915
-0.108732
-0.114322
-0.118079
-0.119376
-0.117604
-0.112227
-0.102874
-0.0894767
-0.0724885
-0.0531813
-0.0338993
-0.0178728
-0.00835716
-0.00842134
-0.0208842
-0.0523279
-0.0540599
-0.0548277
-0.055202
-0.0556739
-0.0566272
-0.0583852
-0.0611724
-0.0651068
-0.0702101
-0.0764142
-0.0835612
-0.0913991
-0.0995817
-0.107687
-0.115175
-0.121468
-0.12592
-0.127851
-0.126588
-0.121506
-0.112101
-0.0981172
-0.0797713
-0.058087
-0.0353012
-0.0149228
-0.00108234
0.00159379
-0.0113721
-0.0592821
-0.0612784
-0.0617053
-0.0613493
-0.0609178
-0.0609584
-0.0619115
-0.0640685
-0.0675748
-0.0724531
-0.0786213
-0.0858981
-0.0940015
-0.102546
-0.111137
-0.119106
-0.12591
-0.130847
-0.133173
-0.132174
-0.127142
-0.117461
-0.102722
-0.0829258
-0.0588234
-0.0324238
-0.00731278
0.0116291
0.0180314
0.00532885
-0.0667232
-0.0691962
-0.0690349
-0.0675065
-0.0657142
-0.0644396
-0.0642636
-0.065543
-0.0684359
-0.0729482
-0.0789669
-0.0862701
-0.0945406
-0.10336
-0.112235
-0.120556
-0.127672
-0.132845
-0.135297
-0.134234
-0.128869
-0.118489
-0.102552
-0.0808784
-0.0539449
-0.0235018
0.00698222
0.0320374
0.0434512
0.0324183
-0.0752443
-0.0783465
-0.0770868
-0.0736941
-0.0699322
-0.0668781
-0.0652482
-0.065438
-0.0675858
-0.0716502
-0.0774595
-0.0847368
-0.0931105
-0.102115
-0.111198
-0.119721
-0.126967
-0.132149
-0.134425
-0.132921
-0.126754
-0.115101
-0.0972935
-0.0729985
-0.0423514
-0.00695937
0.0300788
0.0628584
0.0812665
0.0745219
-0.086223
-0.0897104
-0.0862875
-0.0799527
-0.0734344
-0.0680957
-0.0647221
-0.0636789
-0.0650265
-0.0686325
-0.0742383
-0.0814897
-0.0899472
-0.0990877
-0.108304
-0.116905
-0.124116
-0.129085
-0.130894
-0.128572
-0.121113
-0.107562
-0.087081
-0.0591232
-0.0236925
0.0181319
0.0636917
0.107027
0.135921
0.138199
-0.102815
-0.105056
-0.097228
-0.0863072
-0.0760569
-0.0679222
-0.062588
-0.0602648
-0.0608491
-0.064063
-0.0695283
-0.0767947
-0.0853454
-0.0945935
-0.103876
-0.112445
-0.11947
-0.12403
-0.125121
-0.121668
-0.112504
-0.0965152
-0.0726366
-0.0400379
0.00161729
0.0517592
0.108388
0.166909
0.212431
0.231883
-0.13218
-0.127469
-0.110715
-0.0927724
-0.0775983
-0.066172
-0.0587633
-0.0552329
-0.0551956
-0.0581624
-0.0636027
-0.0709568
-0.0796275
-0.0889659
-0.0982562
-0.106703
-0.113422
-0.117431
-0.117648
-0.112889
-0.101829
-0.0831415
-0.0554659
-0.0175495
0.031547
0.0921474
0.163646
0.242475
0.314637
0.367208
-0.190469
-0.16053
-0.127297
-0.0989833
-0.0774463
-0.0623508
-0.052992
-0.0485504
-0.0481996
-0.051175
-0.0567756
-0.0643344
-0.0731845
-0.0826291
-0.0919159
-0.100216
-0.106607
-0.110059
-0.109426
-0.103429
-0.0907045
-0.069615
-0.0384637
0.00457481
0.0614261
0.134016
0.224178
0.331236
0.444673
0.570964
-0.321568
-0.200258
-0.138781
-0.09746
-0.0698004
-0.0522711
-0.0423919
-0.0382618
-0.0385122
-0.0421473
-0.0483676
-0.0564614
-0.0657422
-0.0755063
-0.0849994
-0.0933918
-0.0997586
-0.103059
-0.102121
-0.0955304
-0.0820328
-0.0597806
-0.0267888
0.0193309
0.0816921
0.164659
0.27471
0.420379
0.608693
0.898207
-0.648972
-0.236764
-0.107362
-0.0624955
-0.0379321
-0.0242246
-0.0184806
-0.0180526
-0.0212653
-0.0272017
-0.0352263
-0.0447638
-0.055231
-0.0660031
-0.0763867
-0.0855987
-0.0927507
-0.0968391
-0.096755
-0.0913296
-0.0787809
-0.0575748
-0.025715
0.0193914
0.0814363
0.166642
0.287455
0.472222
0.778352
1.3722
)
;

boundaryField
{
    movingWall
    {
        type            zeroGradient;
    }
    fixedWalls
    {
        type            zeroGradient;
    }
    frontAndBack
    {
        type            empty;
    }
}


// ************************************************************************* //
