/*--------------------------------*- C++ -*----------------------------------*\
  =========                 |
  \\      /  F ield         | OpenFOAM: The Open Source CFD Toolbox
   \\    /   O peration     | Website:  https://openfoam.org
    \\  /    A nd           | Version:  7
     \\/     M anipulation  |
\*---------------------------------------------------------------------------*/
FoamFile
{
    version     2.0;
    format      ascii;
    class       surfaceScalarField;
    location    "9";
    object      phi;
}
// * * * * * * * * * * * * * * * * * * * * * * * * * * * * * * * * * * * * * //

dimensions      [0 3 -1 0 0 0 0];

internalField   nonuniform List<scalar> 
1740
(
8.47989e-07
-8.47886e-07
5.23267e-07
3.2477e-07
-1.41847e-06
1.94174e-06
-4.81228e-06
3.39381e-06
-9.305e-06
4.4927e-06
-1.45405e-05
5.23549e-06
-2.02186e-05
5.67813e-06
-2.6095e-05
5.8764e-06
-3.19586e-05
5.86358e-06
-3.76067e-05
5.64809e-06
-4.28265e-05
5.21984e-06
-4.73868e-05
4.56026e-06
-5.10403e-05
3.65349e-06
-5.35373e-05
2.49702e-06
-5.46482e-05
1.11095e-06
-5.41917e-05
-4.56503e-07
-5.20665e-05
-2.12519e-06
-4.82816e-05
-3.78497e-06
-4.29783e-05
-5.3033e-06
-3.64396e-05
-6.53866e-06
-2.90819e-05
-7.35768e-06
-2.14267e-05
-7.6552e-06
-1.40536e-05
-7.37313e-06
-7.53876e-06
-6.51481e-06
-2.38603e-06
-5.15273e-06
1.0475e-06
-3.43353e-06
2.62296e-06
-1.57547e-06
2.46472e-06
1.58242e-07
1.16504e-06
1.29968e-06
1.16504e-06
-3.07467e-07
-5.40373e-07
-3.51876e-06
3.53607e-06
-1.0235e-05
8.65798e-06
-2.00763e-05
1.32351e-05
-3.23813e-05
1.67978e-05
-4.64254e-05
1.92795e-05
-6.1522e-05
2.07748e-05
-7.70483e-05
2.14027e-05
-9.24259e-05
2.12412e-05
-0.000107089
2.03113e-05
-0.00012046
1.85911e-05
-0.000131942
1.60422e-05
-0.000140931
1.26423e-05
-0.000146849
8.41526e-06
-0.000149196
3.45729e-06
-0.000147611
-2.04109e-06
-0.000141923
-7.81287e-06
-0.000132225
-1.34829e-05
-0.0001189
-1.86285e-05
-0.000102635
-2.28039e-05
-8.43973e-05
-2.55954e-05
-6.53721e-05
-2.66805e-05
-4.68608e-05
-2.58844e-05
-3.015e-05
-2.32256e-05
-1.63617e-05
-1.8941e-05
-6.30354e-06
-1.34917e-05
-3.21257e-07
-7.55775e-06
1.90465e-06
-2.06766e-06
1.35786e-06
1.84648e-06
2.52291e-06
-2.11392e-06
1.57355e-06
-9.28588e-06
1.0708e-05
-2.1382e-05
2.0754e-05
-3.77229e-05
2.9576e-05
-5.73829e-05
3.64577e-05
-7.93757e-05
4.12724e-05
-0.000102746
4.4145e-05
-0.000126592
4.52487e-05
-0.000150049
4.4698e-05
-0.00017226
4.25228e-05
-0.000192359
3.86895e-05
-0.000209465
3.31488e-05
-0.000222715
2.58924e-05
-0.000231306
1.70064e-05
-0.000234566
6.71697e-06
-0.000232022
-4.58491e-06
-0.000223488
-1.63472e-05
-0.000209125
-2.78463e-05
-0.000189487
-3.82663e-05
-0.000165534
-4.67568e-05
-0.000138599
-5.25298e-05
-0.000110312
-5.49678e-05
-8.24665e-05
-5.37301e-05
-5.68518e-05
-4.88402e-05
-3.5053e-05
-4.07398e-05
-1.82422e-05
-3.03025e-05
-6.98099e-06
-1.88189e-05
-1.08205e-06
-7.9666e-06
5.68251e-07
1.96186e-07
3.09116e-06
-4.0658e-06
5.63935e-06
-1.54789e-05
2.21211e-05
-3.32136e-05
3.84887e-05
-5.60826e-05
5.2445e-05
-8.28377e-05
6.32128e-05
-0.000112253
7.06881e-05
-0.000143165
7.50563e-05
-0.000174463
7.65473e-05
-0.000205072
7.53071e-05
-0.000233918
7.13681e-05
-0.000259914
6.46851e-05
-0.00028197
5.52057e-05
-0.00029903
4.29523e-05
-0.000310124
2.81001e-05
-0.000314446
1.10391e-05
-0.000311437
-7.59435e-06
-0.000300869
-2.69145e-05
-0.000282924
-4.57921e-05
-0.000258237
-6.29533e-05
-0.000227924
-7.70695e-05
-0.000193554
-8.68997e-05
-0.000157069
-9.14524e-05
-0.000120647
-9.01519e-05
-8.65064e-05
-8.29813e-05
-5.66675e-05
-7.05787e-05
-3.27036e-05
-5.42664e-05
-1.55048e-05
-3.60177e-05
-5.09872e-06
-1.83727e-05
-5.69994e-07
-4.33253e-06
2.52117e-06
-5.96582e-06
1.16051e-05
-2.16109e-05
3.77662e-05
-4.49632e-05
6.18411e-05
-7.42407e-05
8.17225e-05
-0.000107826
9.67982e-05
-0.000144254
0.000107116
-0.000182182
0.000112985
-0.000220348
0.000114713
-0.000257524
0.000112483
-0.000292482
0.000106326
-0.00032398
9.61828e-05
-0.000350774
8.20002e-05
-0.00037166
6.3838e-05
-0.000385529
4.19693e-05
-0.000391449
1.69596e-05
-0.000388752
-1.02921e-05
-0.000377115
-3.85514e-05
-0.000356655
-6.62518e-05
-0.000327991
-9.16177e-05
-0.000292281
-0.000112779
-0.000251225
-0.000127956
-0.000206996
-0.000135681
-0.000162112
-0.000135036
-0.000119224
-0.000125869
-8.08452e-05
-0.000108958
-4.9047e-05
-8.60646e-05
-2.51752e-05
-5.98895e-05
-9.63401e-06
-3.39139e-05
-1.78985e-06
-1.21767e-05
7.31326e-07
-7.74473e-06
1.93499e-05
-2.74373e-05
5.74588e-05
-5.6187e-05
9.05908e-05
-9.16025e-05
0.000117138
-0.000131684
0.000136879
-0.00017473
0.000150163
-0.000219248
0.000157502
-0.00026386
0.000159326
-0.000307239
0.000155863
-0.000348059
0.000147145
-0.000384974
0.000133098
-0.000416632
0.000113658
-0.000441709
8.89151e-05
-0.000458969
5.92292e-05
-0.000467336
2.53267e-05
-0.000465984
-1.16435e-05
-0.000454424
-5.0112e-05
-0.000432608
-8.80674e-05
-0.000401021
-0.000123205
-0.000360749
-0.000153051
-0.000313521
-0.000175185
-0.000261676
-0.000187526
-0.000208057
-0.000188654
-0.000155796
-0.000178131
-0.000108002
-0.000156752
-6.73973e-05
-0.000126669
-3.5948e-05
-9.13388e-05
-1.45827e-05
-5.52791e-05
-3.05934e-06
-2.37001e-05
-2.32801e-06
-9.37185e-06
2.87217e-05
-3.28114e-05
8.08983e-05
-6.65858e-05
0.000124365
-0.000107727
0.00015828
-0.000153871
0.000183023
-0.000203098
0.00019939
-0.000253789
0.000208193
-0.000304491
0.000210028
-0.000353822
0.000205193
-0.000400402
0.000193726
-0.000442831
0.000175526
-0.000479682
0.000150509
-0.000509537
0.00011877
-0.000531029
8.0722e-05
-0.000542916
3.72128e-05
-0.00054416
-1.0399e-05
-0.000534017
-6.0255e-05
-0.000512172
-0.000109913
-0.000478847
-0.00015653
-0.000434928
-0.000196969
-0.000382056
-0.000228057
-0.000322659
-0.000246923
-0.000259883
-0.00025143
-0.000197395
-0.000240619
-0.000139035
-0.000215112
-8.83636e-05
-0.000177341
-4.81785e-05
-0.000131524
-2.01135e-05
-8.33442e-05
-4.42813e-06
-3.93854e-05
-6.75615e-06
-1.082e-05
3.95417e-05
-3.76139e-05
0.000107692
-7.59105e-05
0.000162662
-0.000122231
0.0002046
-0.000173885
0.000234677
-0.000228766
0.000254272
-0.00028516
0.000264586
-0.000341571
0.000266439
-0.000396603
0.000260225
-0.000448869
0.000245992
-0.000496951
0.000223608
-0.000539386
0.000192944
-0.000574679
0.000154063
-0.000601339
0.000107381
-0.000617929
5.38027e-05
-0.00062316
-5.16756e-06
-0.000615951
-6.7464e-05
-0.000595616
-0.000130248
-0.000561985
-0.00019016
-0.000515596
-0.000243358
-0.000457856
-0.000285797
-0.00039116
-0.000313619
-0.0003189
-0.00032369
-0.000245303
-0.000314216
-0.000175071
-0.000285344
-0.000112824
-0.000239588
-6.24521e-05
-0.000181896
-2.65358e-05
-0.000119261
-5.9947e-06
-5.99265e-05
-1.27508e-05
-1.20551e-05
5.15968e-05
-4.17221e-05
0.000137359
-8.39165e-05
0.000204856
-0.000134733
0.000255417
-0.000191211
0.000291154
-0.000251094
0.000314155
-0.000312604
0.000326095
-0.000374238
0.000328073
-0.000434621
0.000320608
-0.000492399
0.000303771
-0.000546178
0.000277387
-0.000594491
0.000241258
-0.000635797
0.000195368
-0.00066849
0.000140075
-0.000690944
7.6257e-05
-0.000701571
5.45938e-06
-0.000698929
-7.01061e-05
-0.000681855
-0.000147323
-0.000649664
-0.000222351
-0.000602384
-0.000290638
-0.000541007
-0.000347174
-0.000467715
-0.000386911
-0.000386007
-0.000405398
-0.000300632
-0.000399591
-0.000217243
-0.000368733
-0.00014175
-0.000315081
-7.94606e-05
-0.000244185
-3.42279e-05
-0.000164493
-7.87896e-06
-8.62754e-05
-2.06298e-05
-1.30369e-05
6.46337e-05
-4.50058e-05
0.000169328
-9.03535e-05
0.000250204
-0.000144846
0.00030991
-0.000205313
0.000351621
-0.000269389
0.000378231
-0.000335262
0.000391968
-0.000401451
0.000394263
-0.000466637
0.000385794
-0.000529535
0.000366668
-0.000588813
0.000336665
-0.000643042
0.000295487
-0.000690672
0.000242998
-0.00073002
0.000179423
-0.000759293
0.000105529
-0.000776611
2.27774e-05
-0.000780155
-6.65614e-05
-0.000768234
-0.000159244
-0.000739545
-0.00025104
-0.000693445
-0.000336738
-0.000630291
-0.000410328
-0.000551801
-0.000465401
-0.000461341
-0.000495857
-0.000364027
-0.000496905
-0.000266465
-0.000466295
-0.000176062
-0.000405485
-9.99156e-05
-0.000320331
-4.3595e-05
-0.000220814
-1.02103e-05
-0.00011966
-3.08401e-05
-1.37239e-05
7.83576e-05
-4.73372e-05
0.000202941
-9.49791e-05
0.000297846
-0.000152191
0.000367122
-0.000215655
0.000415085
-0.000282934
0.000445509
-0.000352208
0.000461242
-0.000422043
0.000464097
-0.0004912
0.000454951
-0.000558496
0.000433965
-0.000622704
0.000400873
-0.000682479
0.000355262
-0.000736313
0.000296832
-0.000782504
0.000225614
-0.000819147
0.000142172
-0.000844149
4.7779e-05
-0.000855312
-5.5398e-05
-0.000850438
-0.000164118
-0.000827546
-0.000273932
-0.000785184
-0.0003791
-0.000722843
-0.000472669
-0.000641457
-0.000546787
-0.000543902
-0.000593412
-0.000435344
-0.000605464
-0.000323197
-0.000578442
-0.000216477
-0.000512205
-0.000124474
-0.000412334
-5.50419e-05
-0.000290246
-1.31224e-05
-0.00016158
-4.39624e-05
-1.40804e-05
9.24379e-05
-4.8607e-05
0.000237468
-9.75844e-05
0.000346823
-0.000156434
0.000425972
-0.000221749
0.0004804
-0.000291049
0.00051481
-0.000362528
0.000532721
-0.000434811
0.00053638
-0.000506762
0.000526902
-0.000577329
0.000504532
-0.000645425
0.000468969
-0.000709843
0.00041968
-0.000769183
0.000356172
-0.000821805
0.000278237
-0.00086579
0.000186156
-0.000898926
8.09156e-05
-0.000918743
-3.55811e-05
-0.000922602
-0.00016026
-0.000907856
-0.000288678
-0.00087216
-0.000414796
-0.000813933
-0.000530896
-0.000732971
-0.000627749
-0.000631192
-0.000695191
-0.000513309
-0.000723346
-0.000387171
-0.00070458
-0.000263342
-0.000636034
-0.000153659
-0.000522017
-6.89482e-05
-0.000374956
-1.67511e-05
-0.000213777
-6.07136e-05
-1.40834e-05
0.000106521
-4.87459e-05
0.00027213
-9.803e-05
0.000396107
-0.000157335
0.000485277
-0.000223216
0.00054628
-0.000293173
0.000584767
-0.00036542
0.000604968
-0.000438653
0.000609613
-0.00051185
0.000600099
-0.000584112
0.000576793
-0.00065453
0.000539387
-0.000722085
0.000487235
-0.000785564
0.000419652
-0.000843487
0.000336159
-0.000894044
0.000236713
-0.000935053
0.000121925
-0.000963919
-6.71543e-06
-0.000977723
-0.000146456
-0.000973244
-0.000293157
-0.000947259
-0.00044078
-0.000896976
-0.000581179
-0.000820731
-0.000703995
-0.00071894
-0.000796982
-0.000595189
-0.000847097
-0.000457101
-0.000842668
-0.000316431
-0.000776704
-0.000187756
-0.000650692
-8.5637e-05
-0.000477076
-2.12315e-05
-0.000278182
-8.19451e-05
-1.37317e-05
0.000120253
-4.77473e-05
0.000306146
-9.62865e-05
0.000444647
-0.000154809
0.0005438
-0.00021987
0.000611341
-0.000288964
0.000653861
-0.000360328
0.000676332
-0.00043273
0.000682015
-0.00050527
0.000672639
-0.000577218
0.000648741
-0.000647875
0.000610045
-0.000716466
0.000555825
-0.000782036
0.000485222
-0.000843373
0.000397496
-0.000898917
0.000292257
-0.000946683
0.000169691
-0.000984187
3.07885e-05
-0.00100839
-0.000122254
-0.00101573
-0.000285816
-0.00100223
-0.000454275
-0.000963895
-0.000619519
-0.000897358
-0.000770532
-0.000801029
-0.00089331
-0.000676558
-0.000971568
-0.000530394
-0.000988832
-0.000374717
-0.000932381
-0.000226695
-0.000798714
-0.000105334
-0.000598437
-2.66925e-05
-0.000356824
-0.000108638
-1.3053e-05
0.000133306
-4.56919e-05
0.000338785
-9.24765e-05
0.000491431
-0.000148985
0.000600308
-0.000211794
0.00067415
-0.0002784
0.000720467
-0.000347065
0.000744997
-0.000416626
0.000751576
-0.000486313
0.000742326
-0.000555578
0.000718007
-0.000623963
0.00067843
-0.000690978
0.00062284
-0.000756
0.000550245
-0.000818183
0.000459679
-0.000876355
0.000350429
-0.000928906
0.000222242
-0.000973671
7.55538e-05
-0.00100777
-8.81553e-05
-0.00102758
-0.000266005
-0.00102864
-0.000453216
-0.00100589
-0.00064227
-0.000954247
-0.000822174
-0.000869738
-0.000977819
-0.000751277
-0.00109003
-0.000602956
-0.00113715
-0.000436138
-0.0010992
-0.000269893
-0.000964959
-0.000128112
-0.000740219
-3.32499e-05
-0.000451686
-0.000141888
-1.21115e-05
0.000145418
-4.27702e-05
0.000369444
-8.69165e-05
0.000535577
-0.000140263
0.000653655
-0.000199415
0.000733302
-0.000261873
0.000782925
-0.000325927
0.000809051
-0.000390493
0.000816143
-0.000454938
0.000806771
-0.000518916
0.000781985
-0.00058223
0.000741744
-0.000644717
0.000685326
-0.000706141
0.000611669
-0.000766103
0.000519641
-0.000823928
0.000408254
-0.00087854
0.000276853
-0.000928295
0.000125309
-0.000970712
-4.57389e-05
-0.0010025
-0.000234221
-0.00101903
-0.000436679
-0.00101457
-0.000646734
-0.000982513
-0.000854231
-0.0009164
-0.00104393
-0.000811792
-0.00119464
-0.000669181
-0.00127976
-0.000497436
-0.00127094
-0.000316106
-0.00114629
-0.00015383
-0.000902495
-4.09967e-05
-0.000564518
-0.000182884
-1.1016e-05
0.000156434
-3.93071e-05
0.000397735
-8.01572e-05
0.000576428
-0.000129372
0.000702869
-0.000183569
0.000787499
-0.000240259
0.000839615
-0.000297778
0.000866571
-0.000355145
0.00087351
-0.000411888
0.000863513
-0.000467885
0.000837982
-0.000523229
0.000797088
-0.000578112
0.000740209
-0.000632724
0.000666281
-0.000687161
0.000574078
-0.000741317
0.000462411
-0.00079475
0.000330286
-0.000846528
0.000177087
-0.000894682
2.41516e-06
-0.000936741
-0.000192162
-0.000968243
-0.000405177
-0.00098328
-0.000631697
-0.000974236
-0.000863275
-0.000932427
-0.00108574
-0.000849811
-0.00127725
-0.000722227
-0.00140735
-0.000554117
-0.00143905
-0.000363303
-0.0013371
-0.000182069
-0.00108373
-4.99973e-05
-0.00069659
-0.000232882
-9.92911e-06
0.000166363
-3.57891e-05
0.000423595
-7.30256e-05
0.000613664
-0.000117414
0.000747258
-0.000165544
0.000835629
-0.000214956
0.000889026
-0.000264077
0.000915693
-0.00031208
0.000921513
-0.000358703
0.000910136
-0.000404088
0.000883367
-0.000448648
0.000841648
-0.000492952
0.000784512
-0.000537631
0.00071096
-0.000583293
0.00061974
-0.000630423
0.00050954
-0.00067924
0.000379103
-0.000729495
0.000227342
-0.000780483
5.34035e-05
-0.00082984
-0.000142805
-0.000874277
-0.000360739
-0.000908217
-0.000597757
-0.000923712
-0.00084778
-0.00091052
-0.00109893
-0.00085728
-0.00133049
-0.00075459
-0.00151004
-0.000600628
-0.00159302
-0.000408611
-0.00152912
-0.000212091
-0.00128025
-6.02933e-05
-0.000848388
-0.000293175
-9.08474e-06
0.000175447
-3.29066e-05
0.000447416
-6.66776e-05
0.000647435
-0.000105912
0.000786492
-0.00014711
0.000876827
-0.000187885
0.000929801
-0.000226849
0.000954657
-0.000263423
0.000958087
-0.000297636
0.000944349
-0.000329956
0.000915687
-0.000361151
0.000872843
-0.000392184
0.000815546
-0.000424128
0.000742904
-0.000458087
0.000653699
-0.00049511
0.000546563
-0.000536056
0.00042005
-0.000581457
0.000272743
-0.000631307
0.000103253
-0.000684487
-8.96247e-05
-0.00073858
-0.000306646
-0.000788999
-0.000547338
-0.000828309
-0.000808471
-0.000845715
-0.00108153
-0.000827408
-0.0013488
-0.000758886
-0.00157856
-0.000630723
-0.00172118
-0.000448357
-0.00171149
-0.000242818
-0.00148579
-7.19327e-05
-0.00101927
-0.000365107
-8.82342e-06
0.000184271
-3.16265e-05
0.00047022
-6.26771e-05
0.000678486
-9.68592e-05
0.000820674
-0.000130521
0.000910489
-0.000161446
0.000960727
-0.000188591
0.000981801
-0.000211777
0.000981273
-0.000231448
0.00096402
-0.000248477
0.000932716
-0.000264034
0.0008884
-0.000279489
0.000831
-0.00029633
0.000759745
-0.000316112
0.000673481
-0.000340391
0.000570843
-0.000370576
0.000450234
-0.000407859
0.000310026
-0.000452999
0.000148393
-0.00050596
-3.66637e-05
-0.000565497
-0.000247109
-0.000628414
-0.000484421
-0.000688589
-0.000748295
-0.000735875
-0.00103424
-0.000755405
-0.00132927
-0.000728576
-0.00160539
-0.000637923
-0.00181183
-0.000478182
-0.00187123
-0.000272832
-0.00169114
-8.50328e-05
-0.00120707
-0.00045014
-9.66517e-06
0.000193936
-3.33235e-05
0.000493878
-6.31165e-05
0.000708279
-9.27819e-05
0.000850339
-0.000118491
0.000936198
-0.000138406
0.000980642
-0.000152077
0.000995471
-0.000159955
0.000989151
-0.000163061
0.000967126
-0.000162773
0.000932429
-0.000160711
0.000886338
-0.000158647
0.000828936
-0.000158453
0.000759551
-0.00016202
0.000677048
-0.000171429
0.000580251
-0.000188396
0.000467202
-0.0002147
0.00033633
-0.000251772
0.000185465
-0.000300482
1.20465e-05
-0.000360818
-0.000186773
-0.000431219
-0.00041402
-0.000507503
-0.000672011
-0.000581358
-0.000960385
-0.000638597
-0.00127203
-0.000658343
-0.00158564
-0.000615852
-0.00185432
-0.000493125
-0.00199395
-0.000300335
-0.00188393
-9.9873e-05
-0.00140753
-0.000550013
-1.24543e-05
0.00020639
-4.00041e-05
0.000521428
-7.07816e-05
0.000739056
-9.67613e-05
0.000876319
-0.000114068
0.000953505
-0.000121624
0.000988198
-0.000119969
0.000993816
-0.000110484
0.000979666
-9.49644e-05
0.000951606
-7.54034e-05
0.000912868
-5.39032e-05
0.000864837
-3.26251e-05
0.000807658
-1.37987e-05
0.000740725
2.84674e-07
0.000662965
7.75551e-06
0.00057278
6.07213e-06
0.000468886
-6.74773e-06
0.00034915
-3.26114e-05
0.000211328
-7.32449e-05
5.268e-05
-0.000129747
-0.000130271
-0.000202202
-0.000341566
-0.000288733
-0.000585479
-0.000383821
-0.000865298
-0.000475754
-0.0011801
-0.000543855
-0.00151754
-0.000558193
-0.00183998
-0.000487489
-0.00206466
-0.000322946
-0.00204847
-0.00011697
-0.00161351
-0.000666983
-1.86332e-05
0.000225023
-5.46437e-05
0.000557438
-8.92923e-05
0.000773705
-0.000112273
0.0008993
-0.000120169
0.0009614
-0.000113355
0.000981385
-9.39212e-05
0.000974382
-6.45534e-05
0.000950298
-2.80319e-05
0.000915084
1.29469e-05
0.000871889
5.58076e-05
0.000821977
9.80444e-05
0.000765421
0.000137219
0.00070155
0.00017095
0.000629234
0.000196702
0.000547028
0.000212242
0.000453346
0.000215163
0.000346229
0.000203136
0.000223355
0.00017394
8.18757e-05
0.000125493
-8.1824e-05
5.61854e-05
-0.000272258
-3.44616e-05
-0.000494832
-0.000144305
-0.000755454
-0.000265704
-0.0010587
-0.000380813
-0.00140243
-0.00045805
-0.00176275
-0.000454256
-0.00206845
-0.000337135
-0.00216559
-0.000136984
-0.00181366
-0.000803967
-3.07245e-05
0.000255748
-8.15613e-05
0.000608275
-0.000122903
0.000815047
-0.000142324
0.000918721
-0.000138154
0.00095723
-0.000113373
0.000956605
-7.23772e-05
0.000933386
-1.95676e-05
0.000897489
4.11138e-05
0.000854403
0.000106237
0.000806766
0.000172772
0.000755442
0.000237971
0.000700223
0.00029925
0.000640271
0.000354111
0.000574372
0.000400077
0.000501062
0.000434696
0.000418727
0.000455462
0.000325463
0.000459782
0.000219035
0.000444948
9.67093e-05
0.000408099
-4.49748e-05
0.000346348
-0.000210508
0.000257069
-0.000405553
0.000139043
-0.000637428
-4.90561e-06
-0.00091475
-0.000163305
-0.00124403
-0.000306619
-0.00161943
-0.000383779
-0.00199129
-0.000336907
-0.00221246
-0.000160105
-0.00199046
-0.000964072
-5.30735e-05
0.000308821
-0.000126391
0.000681593
-0.000174915
0.00086357
-0.000186399
0.000930205
-0.000163665
0.000934496
-0.000114058
0.000906998
-4.51735e-05
0.000864501
3.65166e-05
0.000815799
0.000125853
0.000765067
0.00021875
0.000713869
0.000311879
0.000662312
0.000402395
0.000609707
0.000487727
0.000554939
0.000565436
0.000496663
0.000633103
0.000433395
0.000688282
0.000363548
0.000728399
0.000285346
0.000750681
0.000196754
0.000752056
9.53345e-05
0.00072902
-2.19394e-05
0.00067772
-0.000159208
0.000593762
-0.000321595
0.000472871
-0.000516537
0.000312626
-0.000754505
0.000117709
-0.00104912
-9.06868e-05
-0.00141104
-0.000261295
-0.00182068
-0.000311056
-0.0021627
-0.00018422
-0.0021173
-0.00114829
-9.25621e-05
0.000401383
-0.00019386
0.000782891
-0.000241472
0.000911182
-0.000231265
0.000919998
-0.000175624
0.000878854
-8.85272e-05
0.000819901
1.85047e-05
0.000757469
0.00013695
0.000697354
0.000260735
0.000641281
0.000385504
0.0005891
0.000507989
0.000539827
0.000625559
0.000492137
0.000735914
0.000444584
0.000836877
0.0003957
0.000926253
0.000344019
0.00100174
0.000288063
0.00106081
0.000226275
0.00110062
0.000156941
0.00111788
7.808e-05
0.00110858
-1.26395e-05
0.00106827
-0.000118903
0.000991262
-0.000244584
0.000871026
-0.000396301
0.000700813
-0.000584293
0.000476881
-0.000825186
0.000208522
-0.00114268
-6.09313e-05
-0.00155123
-0.000238055
-0.00198558
-0.000201766
-0.00215359
-0.00135006
-0.000157353
0.000558736
-0.000276082
0.00090162
-0.000291122
0.000926222
-0.000226138
0.000855015
-0.000110451
0.000763167
3.39436e-05
0.000675507
0.00019241
0.000599003
0.00035571
0.000534053
0.00051814
0.000478851
0.000676115
0.000431126
0.000827224
0.000388718
0.000969646
0.000349715
0.00110178
0.000312446
0.00122205
0.000275433
0.00132873
0.000237346
0.00141985
0.00019694
0.00149313
0.00015299
0.00154586
0.000104214
0.00157472
4.92232e-05
0.00157557
-1.34908e-05
0.00154362
-8.69561e-05
0.00147251
-0.000173477
0.00135439
-0.000278177
0.00117946
-0.00040936
0.000936762
-0.000582493
0.000620379
-0.000826295
0.000251715
-0.00118257
-7.66047e-05
-0.00165726
-0.000193184
-0.00203701
-0.00154324
-0.000243884
0.00080262
-0.0003033
0.000961037
-0.00020429
0.000827212
-2.45949e-05
0.000675319
0.000186943
0.000551629
0.000406361
0.000456089
0.000621822
0.000383542
0.000827693
0.000328182
0.00102157
0.000284975
0.00120256
0.000250133
0.00137036
0.000220917
0.00152476
0.000195316
0.0016654
0.000171803
0.00179166
0.000149178
0.00190255
0.000126456
0.0019967
0.000102791
0.00207228
7.74069e-05
0.00212694
4.95505e-05
0.00215769
1.84759e-05
0.00216106
-1.68569e-05
0.00213188
-5.77811e-05
0.00206418
-0.000105778
0.00194982
-0.000163815
0.00177761
-0.000237148
0.00153178
-0.000336659
0.00119197
-0.000486487
0.000747111
-0.000737709
0.000254225
-0.00116437
-8.08026e-05
-0.00170198
-0.00162404
-0.000194472
0.000997092
1.78972e-05
0.000748667
0.000372642
0.000472467
0.000713852
0.000334109
0.0010201
0.00024538
0.0012911
0.000185091
0.00153016
0.000144486
0.00174157
0.000116765
0.00192949
9.70602e-05
0.00209729
8.23308e-05
0.00224749
7.0713e-05
0.0023818
6.10065e-05
0.00250121
5.23978e-05
0.00260608
4.43103e-05
0.00269622
3.63144e-05
0.00277094
2.80706e-05
0.00282905
1.92932e-05
0.00286884
9.76388e-06
0.00288777
-4.54638e-07
0.00288399
-1.30832e-05
0.00285268
-2.64615e-05
0.00278929
-4.23885e-05
0.00268701
-6.154e-05
0.00253567
-8.58027e-05
0.00231853
-0.000119525
0.00200625
-0.000174201
0.00155162
-0.000283082
0.000927438
-0.000540193
0.000263854
-0.0010384
-0.00136019
0.000997092
0.00174576
0.00221823
0.00255234
0.00279772
0.00298281
0.00312729
0.00324406
0.00334112
0.00342345
0.00349416
0.00355517
0.00360757
0.00365188
0.00368819
0.00371626
0.00373556
0.00374532
0.00374486
0.00373178
0.00370532
0.00366293
0.00360139
0.00351559
0.00339606
0.00322186
0.00293878
0.00239859
0.00136019
)
;

boundaryField
{
    movingWall
    {
        type            calculated;
        value           uniform 0;
    }
    fixedWalls
    {
        type            calculated;
        value           uniform 0;
    }
    frontAndBack
    {
        type            empty;
        value           nonuniform 0();
    }
}


// ************************************************************************* //
