/*--------------------------------*- C++ -*----------------------------------*\
  =========                 |
  \\      /  F ield         | OpenFOAM: The Open Source CFD Toolbox
   \\    /   O peration     | Website:  https://openfoam.org
    \\  /    A nd           | Version:  7
     \\/     M anipulation  |
\*---------------------------------------------------------------------------*/
FoamFile
{
    version     2.0;
    format      ascii;
    class       volVectorField;
    location    "9";
    object      U;
}
// * * * * * * * * * * * * * * * * * * * * * * * * * * * * * * * * * * * * * //

dimensions      [0 1 -1 0 0 0 0];

internalField   nonuniform List<vector> 
900
(
(0.000164107 -0.000162991 0)
(0.000291406 -7.05514e-05 0)
(-3.09341e-05 9.81101e-05 0)
(-0.000812028 0.00024664 0)
(-0.00195972 0.000354127 0)
(-0.00336909 0.000423276 0)
(-0.00494553 0.000463449 0)
(-0.00661147 0.000482833 0)
(-0.00830284 0.000486016 0)
(-0.00996156 0.000474077 0)
(-0.0115289 0.000445566 0)
(-0.0129415 0.000397738 0)
(-0.0141305 0.000327813 0)
(-0.0150236 0.000234184 0)
(-0.015551 0.000117482 0)
(-0.0156522 -1.86802e-05 0)
(-0.0152852 -0.000167705 0)
(-0.0144352 -0.000318961 0)
(-0.0131231 -0.000459367 0)
(-0.0114095 -0.000574519 0)
(-0.00939565 -0.000650525 0)
(-0.00721762 -0.000676195 0)
(-0.00503585 -0.000645091 0)
(-0.00301907 -0.000557025 0)
(-0.00132477 -0.000418844 0)
(-7.95454e-05 -0.00024515 0)
(0.000636673 -5.7584e-05 0)
(0.000812922 0.000117588 0)
(0.00055678 0.000223643 0)
(0.0001718 0.000170672 0)
(7.90955e-05 -0.000298828 0)
(-0.000300027 0.000297465 0)
(-0.00173546 0.00113683 0)
(-0.00414093 0.00189242 0)
(-0.00735143 0.00247363 0)
(-0.0111637 0.00287318 0)
(-0.0153719 0.00311396 0)
(-0.0197884 0.00322127 0)
(-0.0242432 0.00321094 0)
(-0.0285747 0.00308718 0)
(-0.0326205 0.00284535 0)
(-0.0362124 0.00247697 0)
(-0.0391771 0.00197529 0)
(-0.0413429 0.00134078 0)
(-0.0425523 0.000585676 0)
(-0.0426781 -0.000262944 0)
(-0.0416406 -0.0011614 0)
(-0.0394257 -0.00205104 0)
(-0.0360999 -0.00286225 0)
(-0.0318165 -0.00352105 0)
(-0.026815 -0.00395819 0)
(-0.0214081 -0.00411938 0)
(-0.0159584 -0.003975 0)
(-0.010845 -0.00352754 0)
(-0.00642172 -0.00281573 0)
(-0.00297336 -0.00191607 0)
(-0.000670596 -0.000942057 0)
(0.000457 -4.45673e-05 0)
(0.000597908 0.000562476 0)
(0.000231668 0.000554209 0)
(-0.000105982 2.8749e-05 0)
(-0.00124587 0.00175556 0)
(-0.00404546 0.00380918 0)
(-0.00817887 0.00564395 0)
(-0.0133892 0.00708067 0)
(-0.0194077 0.00808785 0)
(-0.025954 0.00869552 0)
(-0.0327619 0.0089452 0)
(-0.0395805 0.00886463 0)
(-0.0461656 0.00846135 0)
(-0.0522715 0.00772741 0)
(-0.0576478 0.00664973 0)
(-0.0620427 0.00522249 0)
(-0.0652139 0.00345908 0)
(-0.0669459 0.00140191 0)
(-0.0670699 -0.000871306 0)
(-0.0654871 -0.00324509 0)
(-0.0621901 -0.00557172 0)
(-0.0572797 -0.00768006 0)
(-0.050973 -0.00939157 0)
(-0.0436011 -0.010541 0)
(-0.0355942 -0.0109998 0)
(-0.0274511 -0.0106982 0)
(-0.0196961 -0.00964365 0)
(-0.012825 -0.00793123 0)
(-0.00724576 -0.00574629 0)
(-0.00321886 -0.00336249 0)
(-0.000809335 -0.00114162 0)
(0.000166307 0.000470162 0)
(0.00016807 0.00086158 0)
(-0.000302435 0.000912241 0)
(-0.00226721 0.00440618 0)
(-0.00652709 0.00807632 0)
(-0.0124371 0.011269 0)
(-0.019614 0.0137554 0)
(-0.0277228 0.0154942 0)
(-0.0364227 0.016526 0)
(-0.0453883 0.0169071 0)
(-0.0543093 0.0166747 0)
(-0.0628801 0.0158378 0)
(-0.070792 0.0143852 0)
(-0.0777328 0.0123021 0)
(-0.0833922 0.00958954 0)
(-0.087476 0.00628333 0)
(-0.089725 0.00246928 0)
(-0.0899386 -0.00170771 0)
(-0.0879992 -0.00604268 0)
(-0.083896 -0.0102771 0)
(-0.0777436 -0.0141155 0)
(-0.0697928 -0.0172515 0)
(-0.0604305 -0.0194006 0)
(-0.0501652 -0.0203393 0)
(-0.0395965 -0.0199423 0)
(-0.0293667 -0.018215 0)
(-0.0200982 -0.0153135 0)
(-0.0123221 -0.0115503 0)
(-0.0064054 -0.00738755 0)
(-0.00248625 -0.00342288 0)
(-0.000442336 -0.000371509 0)
(7.11813e-05 0.000879476 0)
(-0.000488281 0.00235097 0)
(-0.00327019 0.00827858 0)
(-0.00899363 0.0139555 0)
(-0.016665 0.0187335 0)
(-0.0257547 0.0223976 0)
(-0.0358558 0.0249295 0)
(-0.0465724 0.0263941 0)
(-0.0575331 0.0268663 0)
(-0.0683849 0.0263918 0)
(-0.0787786 0.0249799 0)
(-0.0883613 0.022616 0)
(-0.0967759 0.0192849 0)
(-0.103669 0.0149985 0)
(-0.108705 0.00982054 0)
(-0.111587 0.00388714 0)
(-0.11208 -0.00258212 0)
(-0.110038 -0.00928292 0)
(-0.105425 -0.0158347 0)
(-0.0983441 -0.0218037 0)
(-0.0890478 -0.0267375 0)
(-0.0779464 -0.0302112 0)
(-0.0655995 -0.0318816 0)
(-0.0526883 -0.0315442 0)
(-0.039967 -0.0291833 0)
(-0.0281931 -0.0250063 0)
(-0.0180435 -0.0194556 0)
(-0.0100248 -0.0131961 0)
(-0.00438861 -0.00708233 0)
(-0.0011149 -0.00211295 0)
(-2.54301e-05 0.000550362 0)
(-0.000658219 0.00431749 0)
(-0.00421528 0.0133433 0)
(-0.0113452 0.0214195 0)
(-0.0207088 0.0279994 0)
(-0.0316253 0.0329482 0)
(-0.0436134 0.0363116 0)
(-0.0562269 0.0382007 0)
(-0.0690581 0.0387178 0)
(-0.0817247 0.0379199 0)
(-0.0938498 0.0358162 0)
(-0.105052 0.0323877 0)
(-0.114943 0.0276187 0)
(-0.123139 0.0215315 0)
(-0.129267 0.0142179 0)
(-0.132994 0.00586383 0)
(-0.13404 -0.00323634 0)
(-0.132211 -0.0126775 0)
(-0.127426 -0.0219525 0)
(-0.119741 -0.0304792 0)
(-0.109376 -0.0376415 0)
(-0.096735 -0.0428473 0)
(-0.0824014 -0.0456006 0)
(-0.0671262 -0.0455803 0)
(-0.05178 -0.0427148 0)
(-0.0372775 -0.0372387 0)
(-0.0244798 -0.0297161 0)
(-0.0140796 -0.0210244 0)
(-0.00648882 -0.0122988 0)
(-0.00182848 -0.00484864 0)
(-0.000115563 -0.000134339 0)
(-0.0008115 0.00677266 0)
(-0.00508217 0.0195283 0)
(-0.0135188 0.0303821 0)
(-0.0244604 0.0389702 0)
(-0.0370818 0.0453012 0)
(-0.0508312 0.049528 0)
(-0.0652172 0.0518334 0)
(-0.0798057 0.0523601 0)
(-0.0941967 0.0511817 0)
(-0.107999 0.0483079 0)
(-0.120817 0.0437139 0)
(-0.132244 0.0373803 0)
(-0.141872 0.0293355 0)
(-0.149298 0.0196928 0)
(-0.154145 0.00868026 0)
(-0.15608 -0.00334136 0)
(-0.154843 -0.0158729 0)
(-0.150274 -0.0282829 0)
(-0.142352 -0.0398346 0)
(-0.131229 -0.0497306 0)
(-0.11726 -0.0571806 0)
(-0.101028 -0.0614908 0)
(-0.0833372 -0.0621698 0)
(-0.0651776 -0.0590367 0)
(-0.0476493 -0.0523099 0)
(-0.0318449 -0.0426536 0)
(-0.0187039 -0.0311637 0)
(-0.00885646 -0.0192877 0)
(-0.00260933 -0.00869282 0)
(-0.000204346 -0.00119136 0)
(-0.000946968 0.00966922 0)
(-0.00585409 0.0267336 0)
(-0.0154634 0.0407166 0)
(-0.0278287 0.0515074 0)
(-0.0419959 0.0593153 0)
(-0.0573503 0.0644415 0)
(-0.0733641 0.0671675 0)
(-0.0895852 0.0676914 0)
(-0.105608 0.0661101 0)
(-0.121038 0.0624358 0)
(-0.135478 0.0566355 0)
(-0.148515 0.0486808 0)
(-0.159724 0.0385971 0)
(-0.168677 0.0265072 0)
(-0.174949 0.0126659 0)
(-0.178146 -0.00251613 0)
(-0.177921 -0.0184589 0)
(-0.174013 -0.0344181 0)
(-0.166289 -0.0495021 0)
(-0.154789 -0.0627168 0)
(-0.139782 -0.0730388 0)
(-0.121805 -0.0795225 0)
(-0.101689 -0.0814355 0)
(-0.0805389 -0.0784097 0)
(-0.0596604 -0.070579 0)
(-0.0404305 -0.0586663 0)
(-0.0241077 -0.0439849 0)
(-0.011616 -0.0283343 0)
(-0.00350891 -0.0138094 0)
(-0.00030192 -0.00266124 0)
(-0.0010619 0.0129513 0)
(-0.00651213 0.0348342 0)
(-0.0171281 0.0522616 0)
(-0.0307246 0.0654354 0)
(-0.0462389 0.0748144 0)
(-0.0630049 0.0808859 0)
(-0.0804672 0.0840554 0)
(-0.0981652 0.0845927 0)
(-0.115697 0.082626 0)
(-0.132678 0.0781722 0)
(-0.148718 0.0711879 0)
(-0.163411 0.0616281 0)
(-0.176325 0.0495033 0)
(-0.187009 0.0349288 0)
(-0.194997 0.0181651 0)
(-0.199826 -0.000350722 0)
(-0.201053 -0.0199814 0)
(-0.198297 -0.0398884 0)
(-0.191279 -0.0590334 0)
(-0.179889 -0.0762168 0)
(-0.164257 -0.0901509 0)
(-0.144823 -0.0995784 0)
(-0.122395 -0.103439 0)
(-0.0981626 -0.101074 0)
(-0.0736443 -0.0924304 0)
(-0.050548 -0.0782169 0)
(-0.0305347 -0.0599453 0)
(-0.0149191 -0.0398114 0)
(-0.00459075 -0.0204313 0)
(-0.000420333 -0.00461667 0)
(-0.0011524 0.0165525 0)
(-0.00703507 0.0436797 0)
(-0.0184606 0.0648215 0)
(-0.033058 0.0805397 0)
(-0.0496796 0.0915822 0)
(-0.06762 0.0986544 0)
(-0.0863055 0.102309 0)
(-0.105275 0.102904 0)
(-0.12414 0.100607 0)
(-0.142534 0.0954441 0)
(-0.160088 0.087358 0)
(-0.176411 0.0762799 0)
(-0.191078 0.0621917 0)
(-0.203625 0.0451817 0)
(-0.213554 0.0254912 0)
(-0.220335 0.00355448 0)
(-0.223433 -0.0199685 0)
(-0.222335 -0.04417 0)
(-0.216596 -0.0678862 0)
(-0.205919 -0.0897171 0)
(-0.19024 -0.10809 0)
(-0.169831 -0.121379 0)
(-0.145404 -0.1281 0)
(-0.118173 -0.127173 0)
(-0.0898416 -0.118214 0)
(-0.0624771 -0.101796 0)
(-0.0382298 -0.0795765 0)
(-0.0189278 -0.0541835 0)
(-0.00592404 -0.0288697 0)
(-0.000572489 -0.00716657 0)
(-0.00121415 0.0203942 0)
(-0.00740151 0.0530941 0)
(-0.0194098 0.0781666 0)
(-0.0347415 0.096566 0)
(-0.0521887 0.109358 0)
(-0.0710183 0.117491 0)
(-0.0906465 0.121686 0)
(-0.110619 0.122404 0)
(-0.130565 0.119862 0)
(-0.150148 0.114099 0)
(-0.16903 0.105044 0)
(-0.186845 0.092598 0)
(-0.20319 0.0767003 0)
(-0.217606 0.0573925 0)
(-0.229578 0.0348707 0)
(-0.23853 0.00953326 0)
(-0.243844 -0.0179742 0)
(-0.24488 -0.046714 0)
(-0.241026 -0.0754339 0)
(-0.231766 -0.102558 0)
(-0.216792 -0.126229 0)
(-0.19613 -0.144412 0)
(-0.170294 -0.155108 0)
(-0.140418 -0.15666 0)
(-0.108318 -0.148161 0)
(-0.0764096 -0.129865 0)
(-0.0474086 -0.103455 0)
(-0.0238016 -0.0719986 0)
(-0.00758057 -0.0395158 0)
(-0.000772116 -0.0104579 0)
(-0.00124332 0.0243867 0)
(-0.00759314 0.0628779 0)
(-0.0199325 0.092036 0)
(-0.0356996 0.113222 0)
(-0.0536509 0.127836 0)
(-0.0730356 0.137087 0)
(-0.0932655 0.14188 0)
(-0.113897 0.142793 0)
(-0.134585 0.140106 0)
(-0.155025 0.133877 0)
(-0.17492 0.124022 0)
(-0.193947 0.110407 0)
(-0.211737 0.0929205 0)
(-0.227858 0.0715393 0)
(-0.241803 0.0463897 0)
(-0.25298 0.017802 0)
(-0.260715 -0.0136317 0)
(-0.264272 -0.0469953 0)
(-0.262879 -0.0810015 0)
(-0.255799 -0.113949 0)
(-0.242438 -0.143727 0)
(-0.222495 -0.167886 0)
(-0.196168 -0.183835 0)
(-0.164363 -0.18919 0)
(-0.128872 -0.182281 0)
(-0.0923866 -0.162768 0)
(-0.0582238 -0.132147 0)
(-0.0296852 -0.0938659 0)
(-0.00963284 -0.0528361 0)
(-0.00103416 -0.0146764 0)
(-0.00123747 0.0284312 0)
(-0.00759857 0.0728135 0)
(-0.0200007 0.106143 0)
(-0.0358805 0.130183 0)
(-0.0539812 0.146668 0)
(-0.0735413 0.157076 0)
(-0.0939722 0.162514 0)
(-0.114843 0.163687 0)
(-0.135836 0.160952 0)
(-0.156685 0.154394 0)
(-0.177142 0.143922 0)
(-0.196937 0.129368 0)
(-0.215756 0.110563 0)
(-0.233218 0.0874094 0)
(-0.248855 0.0599451 0)
(-0.262099 0.0284038 0)
(-0.272265 -0.00671665 0)
(-0.278563 -0.0445801 0)
(-0.280103 -0.0839298 0)
(-0.275944 -0.123018 0)
(-0.265191 -0.159551 0)
(-0.247155 -0.190709 0)
(-0.221591 -0.213283 0)
(-0.189001 -0.224021 0)
(-0.150943 -0.220232 0)
(-0.110223 -0.200618 0)
(-0.0707221 -0.166132 0)
(-0.0366924 -0.120416 0)
(-0.0121518 -0.0693612 0)
(-0.0013753 -0.0200472 0)
(-0.00119648 0.0324252 0)
(-0.00741751 0.0826749 0)
(-0.0196114 0.120188 0)
(-0.0352706 0.147099 0)
(-0.0531438 0.165469 0)
(-0.0724637 0.177046 0)
(-0.0926424 0.183144 0)
(-0.113262 0.184616 0)
(-0.134032 0.181905 0)
(-0.15473 0.175136 0)
(-0.175162 0.164221 0)
(-0.195123 0.148964 0)
(-0.214372 0.12914 0)
(-0.232604 0.104575 0)
(-0.249427 0.0752066 0)
(-0.26434 0.041153 0)
(-0.276705 0.002781 0)
(-0.285736 -0.0392075 0)
(-0.290484 -0.083665 0)
(-0.289859 -0.1289 0)
(-0.282688 -0.172554 0)
(-0.267865 -0.211532 0)
(-0.244601 -0.242057 0)
(-0.2128 -0.259936 0)
(-0.173528 -0.261201 0)
(-0.129431 -0.243155 0)
(-0.0847917 -0.205684 0)
(-0.0448846 -0.152238 0)
(-0.0152031 -0.0896662 0)
(-0.00181442 -0.0268339 0)
(-0.00112337 0.0362694 0)
(-0.00706492 0.0922422 0)
(-0.0187953 0.133871 0)
(-0.033909 0.163614 0)
(-0.051173 0.183832 0)
(-0.0698158 0.196542 0)
(-0.0892505 0.203273 0)
(-0.109072 0.205035 0)
(-0.129018 0.202374 0)
(-0.148912 0.195472 0)
(-0.168619 0.184258 0)
(-0.18801 0.168515 0)
(-0.206933 0.147977 0)
(-0.225183 0.122395 0)
(-0.242478 0.09161 0)
(-0.258427 0.0556126 0)
(-0.272497 0.014614 0)
(-0.283974 -0.030863 0)
(-0.291933 -0.07986 0)
(-0.295215 -0.130862 0)
(-0.292436 -0.181593 0)
(-0.282098 -0.228854 0)
(-0.262817 -0.268432 0)
(-0.233738 -0.295223 0)
(-0.195143 -0.303802 0)
(-0.149142 -0.289603 0)
(-0.100103 -0.250737 0)
(-0.0542431 -0.189793 0)
(-0.0188422 -0.114337 0)
(-0.00237298 -0.0353358 0)
(-0.0010251 0.0398773 0)
(-0.006575 0.10132 0)
(-0.0176265 0.146916 0)
(-0.0319019 0.179382 0)
(-0.0481912 0.201348 0)
(-0.0657187 0.215092 0)
(-0.083899 0.222362 0)
(-0.102341 0.224343 0)
(-0.120814 0.221699 0)
(-0.139188 0.214686 0)
(-0.157395 0.203264 0)
(-0.175392 0.187218 0)
(-0.193127 0.16625 0)
(-0.210515 0.140055 0)
(-0.227409 0.108385 0)
(-0.243569 0.0711084 0)
(-0.258614 0.0282698 0)
(-0.271966 -0.0198216 0)
(-0.282817 -0.0724631 0)
(-0.290044 -0.128432 0)
(-0.292155 -0.185704 0)
(-0.28735 -0.241197 0)
(-0.273679 -0.290494 0)
(-0.249437 -0.327753 0)
(-0.213857 -0.346048 0)
(-0.16808 -0.338541 0)
(-0.11605 -0.300725 0)
(-0.0646358 -0.233299 0)
(-0.0231068 -0.143926 0)
(-0.00307547 -0.0458828 0)
(-0.000913308 0.0431864 0)
(-0.0060053 0.10976 0)
(-0.0162313 0.159095 0)
(-0.0294362 0.194093 0)
(-0.0444268 0.217625 0)
(-0.060421 0.232221 0)
(-0.076839 0.23986 0)
(-0.0933108 0.241912 0)
(-0.109641 0.23918 0)
(-0.125758 0.232009 0)
(-0.141665 0.220414 0)
(-0.157411 0.204197 0)
(-0.173056 0.18305 0)
(-0.188647 0.156629 0)
(-0.204188 0.124619 0)
(-0.219612 0.0867784 0)
(-0.23473 0.0429986 0)
(-0.24915 -0.00663679 0)
(-0.26226 -0.0617732 0)
(-0.273082 -0.121519 0)
(-0.28015 -0.184277 0)
(-0.281515 -0.247327 0)
(-0.274782 -0.306376 0)
(-0.257416 -0.35516 0)
(-0.227435 -0.385431 0)
(-0.184577 -0.387847 0)
(-0.13172 -0.354429 0)
(-0.0757846 -0.282588 0)
(-0.0280115 -0.178886 0)
(-0.0039507 -0.0588281 0)
(-0.000805397 0.0461726 0)
(-0.00544194 0.11749 0)
(-0.0147989 0.170262 0)
(-0.0267929 0.207504 0)
(-0.0402264 0.232314 0)
(-0.0543105 0.247478 0)
(-0.068481 0.255221 0)
(-0.0824034 0.257113 0)
(-0.095935 0.254112 0)
(-0.10907 0.246674 0)
(-0.121898 0.234882 0)
(-0.134565 0.218575 0)
(-0.147248 0.197455 0)
(-0.160129 0.171163 0)
(-0.17337 0.139334 0)
(-0.18708 0.101643 0)
(-0.201273 0.0578388 0)
(-0.215824 0.00778748 0)
(-0.230326 -0.0484711 0)
(-0.244001 -0.110481 0)
(-0.255608 -0.177191 0)
(-0.26323 -0.246479 0)
(-0.264234 -0.314531 0)
(-0.255415 -0.375129 0)
(-0.233561 -0.41912 0)
(-0.196686 -0.434748 0)
(-0.145887 -0.409875 0)
(-0.0872407 -0.336955 0)
(-0.0335446 -0.219493 0)
(-0.0050351 -0.0745395 0)
(-0.000726883 0.0488666 0)
(-0.00500818 0.124549 0)
(-0.0135958 0.180384 0)
(-0.0243621 0.219463 0)
(-0.0360672 0.245128 0)
(-0.0479186 0.260452 0)
(-0.0593901 0.267924 0)
(-0.0702112 0.269338 0)
(-0.0803171 0.265821 0)
(-0.0897906 0.257948 0)
(-0.0988172 0.245887 0)
(-0.107651 0.229531 0)
(-0.116587 0.208606 0)
(-0.125941 0.182756 0)
(-0.136026 0.151591 0)
(-0.147121 0.114722 0)
(-0.159439 0.0717798 0)
(-0.173076 0.0224421 0)
(-0.187895 -0.033505 0)
(-0.203426 -0.096094 0)
(-0.218715 -0.16488 0)
(-0.232083 -0.23851 0)
(-0.240939 -0.313999 0)
(-0.241701 -0.385715 0)
(-0.230114 -0.444274 0)
(-0.202343 -0.475993 0)
(-0.157064 -0.464304 0)
(-0.0983718 -0.395015 0)
(-0.0396747 -0.265756 0)
(-0.00638086 -0.0933963 0)
(-0.000716768 0.0513792 0)
(-0.004881 0.131127 0)
(-0.0129891 0.189578 0)
(-0.0226632 0.229933 0)
(-0.0325653 0.255858 0)
(-0.0419152 0.270777 0)
(-0.050267 0.277485 0)
(-0.0574606 0.278016 0)
(-0.0635497 0.273673 0)
(-0.0687347 0.265161 0)
(-0.073316 0.252735 0)
(-0.0776622 0.236346 0)
(-0.0821855 0.215757 0)
(-0.0873234 0.190626 0)
(-0.0935268 0.160562 0)
(-0.101224 0.125122 0)
(-0.110796 0.0838652 0)
(-0.12254 0.0363202 0)
(-0.136581 -0.0179856 0)
(-0.152772 -0.0794718 0)
(-0.170531 -0.148297 0)
(-0.188592 -0.223965 0)
(-0.20469 -0.304582 0)
(-0.215258 -0.385649 0)
(-0.21539 -0.458395 0)
(-0.199554 -0.508145 0)
(-0.163582 -0.514258 0)
(-0.10836 -0.454574 0)
(-0.0463653 -0.317308 0)
(-0.00807253 -0.115799 0)
(-0.00083985 0.0539392 0)
(-0.00532355 0.137621 0)
(-0.0134862 0.198154 0)
(-0.0223727 0.239007 0)
(-0.030481 0.264365 0)
(-0.0370887 0.278124 0)
(-0.0419032 0.283439 0)
(-0.0449464 0.282598 0)
(-0.0464469 0.277081 0)
(-0.0467601 0.267709 0)
(-0.046322 0.254819 0)
(-0.0456222 0.238414 0)
(-0.0451831 0.218293 0)
(-0.0455423 0.194131 0)
(-0.0472764 0.165557 0)
(-0.0509298 0.132069 0)
(-0.0570043 0.0931975 0)
(-0.0659743 0.0483608 0)
(-0.0781858 -0.00310898 0)
(-0.0937897 -0.0619329 0)
(-0.112612 -0.128788 0)
(-0.133909 -0.204 0)
(-0.155999 -0.286889 0)
(-0.175761 -0.374523 0)
(-0.188188 -0.459648 0)
(-0.186509 -0.527914 0)
(-0.163653 -0.555758 0)
(-0.116191 -0.512558 0)
(-0.0535907 -0.373283 0)
(-0.0102556 -0.142204 0)
(-0.00121318 0.0569627 0)
(-0.00674611 0.144714 0)
(-0.0157963 0.206641 0)
(-0.0243541 0.246897 0)
(-0.0307046 0.27055 0)
(-0.0342877 0.282157 0)
(-0.0350858 0.285304 0)
(-0.0334047 0.282535 0)
(-0.0297191 0.275477 0)
(-0.024582 0.265038 0)
(-0.0185841 0.251608 0)
(-0.0123383 0.235229 0)
(-0.00646568 0.215722 0)
(-0.00156779 0.192776 0)
(0.00165922 0.165997 0)
(0.00258885 0.134916 0)
(0.000660414 0.0990016 0)
(-0.0047538 0.0576122 0)
(-0.0141674 0.00997226 0)
(-0.0279837 -0.0448505 0)
(-0.0464212 -0.107911 0)
(-0.0693 -0.18021 0)
(-0.0956902 -0.262225 0)
(-0.12331 -0.352821 0)
(-0.147688 -0.447064 0)
(-0.161563 -0.532468 0)
(-0.15535 -0.584526 0)
(-0.120581 -0.564956 0)
(-0.061319 -0.432133 0)
(-0.0131755 -0.17319 0)
(-0.00205966 0.0611804 0)
(-0.00981182 0.153477 0)
(-0.0209085 0.215795 0)
(-0.0296583 0.253865 0)
(-0.0341663 0.274253 0)
(-0.034253 0.282444 0)
(-0.0303675 0.282506 0)
(-0.023233 0.277205 0)
(-0.0136521 0.268252 0)
(-0.00241445 0.256582 0)
(0.00972246 0.242588 0)
(0.0220324 0.226316 0)
(0.0338137 0.207589 0)
(0.0443855 0.186095 0)
(0.0530364 0.161406 0)
(0.0590848 0.133104 0)
(0.0618795 0.100606 0)
(0.0607353 0.0632492 0)
(0.055001 0.0202181 0)
(0.044056 -0.0295233 0)
(0.0273502 -0.0872417 0)
(0.00452801 -0.154388 0)
(-0.0242963 -0.232367 0)
(-0.0579591 -0.321797 0)
(-0.0931284 -0.420583 0)
(-0.123021 -0.519638 0)
(-0.136449 -0.596201 0)
(-0.119794 -0.60678 0)
(-0.0693848 -0.491352 0)
(-0.0172017 -0.20953 0)
(-0.00381015 0.067878 0)
(-0.0155984 0.165485 0)
(-0.0301333 0.226508 0)
(-0.0393712 0.260038 0)
(-0.0415013 0.275058 0)
(-0.0371375 0.27827 0)
(-0.0274771 0.274221 0)
(-0.0138213 0.26579 0)
(0.00262191 0.254654 0)
(0.0207981 0.241673 0)
(0.0397894 0.227173 0)
(0.0587768 0.211151 0)
(0.0770048 0.1934 0)
(0.0937553 0.17359 0)
(0.108317 0.151302 0)
(0.119988 0.126085 0)
(0.128068 0.0973783 0)
(0.13183 0.064524 0)
(0.130522 0.0267122 0)
(0.123351 -0.0170886 0)
(0.109492 -0.0681961 0)
(0.0881316 -0.128257 0)
(0.05862 -0.199262 0)
(0.0208931 -0.283245 0)
(-0.0233125 -0.380962 0)
(-0.0687514 -0.488051 0)
(-0.104075 -0.58652 0)
(-0.111246 -0.631977 0)
(-0.0771071 -0.546949 0)
(-0.0227539 -0.252122 0)
(-0.0072778 0.0793301 0)
(-0.0257819 0.182864 0)
(-0.044895 0.23949 0)
(-0.053939 0.264956 0)
(-0.0519976 0.271859 0)
(-0.0411891 0.268287 0)
(-0.0238296 0.2591 0)
(-0.00195742 0.247061 0)
(0.0227671 0.233616 0)
(0.0490369 0.219409 0)
(0.0758093 0.204606 0)
(0.102217 0.189092 0)
(0.127496 0.172598 0)
(0.150941 0.154761 0)
(0.171864 0.13516 0)
(0.189573 0.113334 0)
(0.20336 0.0887538 0)
(0.212468 0.0608021 0)
(0.216071 0.0287297 0)
(0.213237 -0.00841032 0)
(0.202931 -0.0518534 0)
(0.183973 -0.103209 0)
(0.155082 -0.164668 0)
(0.115132 -0.239127 0)
(0.0639759 -0.329734 0)
(0.00434708 -0.437334 0)
(-0.0540771 -0.551609 0)
(-0.0907235 -0.633318 0)
(-0.0824244 -0.592628 0)
(-0.0299243 -0.301654 0)
(-0.013867 0.099491 0)
(-0.042575 0.20794 0)
(-0.0655421 0.25433 0)
(-0.0709012 0.266596 0)
(-0.060636 0.262051 0)
(-0.0394261 0.249916 0)
(-0.0110697 0.234865 0)
(0.0215997 0.219126 0)
(0.056537 0.203627 0)
(0.0922903 0.188612 0)
(0.127802 0.173978 0)
(0.162253 0.159445 0)
(0.194954 0.144651 0)
(0.225279 0.129192 0)
(0.252611 0.112645 0)
(0.276314 0.0945653 0)
(0.295707 0.0744721 0)
(0.310033 0.0518231 0)
(0.318426 0.025978 0)
(0.319853 -0.00386327 0)
(0.313136 -0.038737 0)
(0.296841 -0.0800509 0)
(0.269233 -0.129847 0)
(0.228349 -0.191237 0)
(0.172364 -0.268881 0)
(0.100999 -0.368201 0)
(0.0199935 -0.488554 0)
(-0.0509368 -0.602499 0)
(-0.0803771 -0.618924 0)
(-0.0374898 -0.358468 0)
(-0.0254056 0.134969 0)
(-0.0670797 0.24096 0)
(-0.0865836 0.266586 0)
(-0.0781392 0.258958 0)
(-0.0506625 0.239884 0)
(-0.0123359 0.218383 0)
(0.0316724 0.197863 0)
(0.0781093 0.179347 0)
(0.124941 0.162878 0)
(0.170908 0.148123 0)
(0.215199 0.134632 0)
(0.25724 0.121932 0)
(0.29656 0.109568 0)
(0.332718 0.0971069 0)
(0.36525 0.0841416 0)
(0.393636 0.0702747 0)
(0.417277 0.0551015 0)
(0.43547 0.0381868 0)
(0.447361 0.0190341 0)
(0.451898 -0.00296762 0)
(0.447848 -0.0285412 0)
(0.433628 -0.0587969 0)
(0.407262 -0.0953854 0)
(0.366265 -0.141044 0)
(0.307568 -0.200662 0)
(0.227989 -0.282495 0)
(0.128034 -0.395586 0)
(0.0208449 -0.531033 0)
(-0.0608998 -0.612629 0)
(-0.040831 -0.421869 0)
(-0.0413215 0.197142 0)
(-0.0902553 0.272545 0)
(-0.0798337 0.259236 0)
(-0.036123 0.226474 0)
(0.0219301 0.193758 0)
(0.0845913 0.165839 0)
(0.14726 0.143191 0)
(0.207708 0.124985 0)
(0.264927 0.110169 0)
(0.318522 0.0978213 0)
(0.368365 0.0871973 0)
(0.414408 0.0777023 0)
(0.45658 0.0688534 0)
(0.49475 0.0602497 0)
(0.528693 0.0515474 0)
(0.558075 0.0424396 0)
(0.582445 0.0326356 0)
(0.601216 0.0218414 0)
(0.613622 0.00973301 0)
(0.618751 -0.00409343 0)
(0.615424 -0.0200314 0)
(0.602055 -0.0387963 0)
(0.576683 -0.0614839 0)
(0.536662 -0.0900246 0)
(0.478277 -0.128288 0)
(0.396227 -0.184466 0)
(0.285193 -0.273848 0)
(0.146059 -0.410556 0)
(-0.00334358 -0.554033 0)
(-0.0253735 -0.47754 0)
(-0.0341631 0.293666 0)
(-0.0479939 0.272483 0)
(0.0536076 0.199457 0)
(0.156689 0.149682 0)
(0.249716 0.11496 0)
(0.332126 0.0901631 0)
(0.40482 0.0725861 0)
(0.468959 0.0599974 0)
(0.525791 0.0506919 0)
(0.576424 0.0435238 0)
(0.621716 0.0377437 0)
(0.662266 0.0328429 0)
(0.698457 0.0284605 0)
(0.730476 0.0243292 0)
(0.758348 0.0202418 0)
(0.781944 0.0160289 0)
(0.800994 0.0115421 0)
(0.815094 0.00664428 0)
(0.823625 0.00119301 0)
(0.825981 -0.0048809 0)
(0.82121 -0.0119052 0)
(0.808024 -0.0201523 0)
(0.784813 -0.0300885 0)
(0.749267 -0.0426475 0)
(0.697791 -0.05988 0)
(0.624286 -0.0868745 0)
(0.51848 -0.137158 0)
(0.365147 -0.240259 0)
(0.144141 -0.406969 0)
(0.0588717 -0.458304 0)
(0.303197 0.18089 0)
(0.382367 0.144203 0)
(0.560512 0.0910482 0)
(0.686238 0.0589333 0)
(0.768969 0.0393422 0)
(0.828717 0.0268914 0)
(0.87482 0.0190141 0)
(0.911619 0.0140319 0)
(0.941808 0.0107983 0)
(0.967181 0.00860052 0)
(0.988875 0.00701532 0)
(1.00759 0.00578839 0)
(1.02372 0.00476164 0)
(1.0375 0.00383315 0)
(1.04901 0.00293405 0)
(1.05822 0.00201481 0)
(1.06501 0.00103583 0)
(1.0692 -3.28391e-05 0)
(1.07057 -0.00122819 0)
(1.06873 -0.00246426 0)
(1.06318 -0.00393277 0)
(1.05345 -0.00567095 0)
(1.03875 -0.0077552 0)
(1.0179 -0.0103938 0)
(0.988842 -0.0140867 0)
(0.947457 -0.0201785 0)
(0.883935 -0.032563 0)
(0.776332 -0.0637418 0)
(0.544817 -0.139459 0)
(0.38249 -0.201735 0)
)
;

boundaryField
{
    movingWall
    {
        type            fixedValue;
        value           uniform (1.2 0 0);
    }
    fixedWalls
    {
        type            noSlip;
    }
    frontAndBack
    {
        type            empty;
    }
}


// ************************************************************************* //
