/*--------------------------------*- C++ -*----------------------------------*\
  =========                 |
  \\      /  F ield         | OpenFOAM: The Open Source CFD Toolbox
   \\    /   O peration     | Website:  https://openfoam.org
    \\  /    A nd           | Version:  7
     \\/     M anipulation  |
\*---------------------------------------------------------------------------*/
FoamFile
{
    version     2.0;
    format      ascii;
    class       volScalarField;
    location    "6.2";
    object      p;
}
// * * * * * * * * * * * * * * * * * * * * * * * * * * * * * * * * * * * * * //

dimensions      [0 2 -2 0 0 0 0];

internalField   nonuniform List<scalar> 
900
(
7.0831e-07
-0.000328218
-0.000857333
-0.00141393
-0.00189975
-0.00225428
-0.00244697
-0.00246379
-0.00229724
-0.0019419
-0.00139395
-0.0006532
0.000273549
0.00136862
0.00260014
0.00392011
0.00526454
0.00655634
0.00771134
0.00864684
0.00929218
0.00959954
0.00955331
0.00917604
0.00853013
0.00771338
0.0068438
0.00607967
0.00555947
0.00541684
0.000327904
-1.28087e-05
-0.000414507
-0.000820197
-0.00117013
-0.00142088
-0.00154832
-0.00153889
-0.00138369
-0.00107607
-0.00061158
1.04716e-05
0.000784544
0.00169595
0.00271816
0.0038112
0.00492362
0.00599136
0.00694563
0.00771922
0.00825529
0.00851649
0.0084925
0.00820442
0.00770496
0.00707408
0.00640889
0.00581003
0.00540274
0.0052721
0.000877545
0.000375501
-3.97727e-05
-0.000402341
-0.000699568
-0.000905185
-0.00100508
-0.00099108
-0.000856099
-0.000593296
-0.000196776
0.00033665
0.00100491
0.00179773
0.00269409
0.00366084
0.00465152
0.00560897
0.00646986
0.00717125
0.00765921
0.00789773
0.00787613
0.00761322
0.00715682
0.0065785
0.00596432
0.0054036
0.00498409
0.0047709
0.00147845
0.000762589
0.000273738
-9.93717e-05
-0.000387703
-0.000581682
-0.000678712
-0.000677921
-0.00057528
-0.000363901
-3.56218e-05
0.000416671
0.000996012
0.00169799
0.00250754
0.00339673
0.00432342
0.00523283
0.00606185
0.00674563
0.00722658
0.00746411
0.00744291
0.00717769
0.00671276
0.00611608
0.00546999
0.00486074
0.00435745
0.00398936
0.00200232
0.0010569
0.000473142
6.53932e-05
-0.000237885
-0.000442352
-0.000556531
-0.00058671
-0.000531692
-0.000384024
-0.000132387
0.000235437
0.000728917
0.00135069
0.00209247
0.00293171
0.00383028
0.00473378
0.00557648
0.00628766
0.0068014
0.00706759
0.00706182
0.0067917
0.00629719
0.00564462
0.00491752
0.00420575
0.00356874
0.00300006
0.00233845
0.00116619
0.000479423
2.24009e-05
-0.000313838
-0.000548554
-0.0007002
-0.000781248
-0.000792461
-0.000724915
-0.000563102
-0.000288487
0.000116201
0.000662101
0.00134897
0.00216051
0.00306284
0.00400127
0.00490568
0.0056962
0.00629388
0.00663348
0.00667579
0.00641651
0.00588866
0.00515748
0.00431192
0.00345287
0.00263795
0.00183109
0.00239177
0.00100636
0.000216691
-0.000297968
-0.000681052
-0.000964084
-0.0011741
-0.00132848
-0.00142886
-0.00146378
-0.00141242
-0.00124863
-0.000945713
-0.00048216
0.000151658
0.000947212
0.00187881
0.00289023
0.00390672
0.00483687
0.00558406
0.00606135
0.00620702
0.00599755
0.00545384
0.00463851
0.00364907
0.00260505
0.00157072
0.000484537
0.00207876
0.000500381
-0.000386918
-0.000963613
-0.001405
-0.00175386
-0.00204461
-0.0022984
-0.00251663
-0.00268439
-0.00277444
-0.00275158
-0.0025779
-0.00221919
-0.00165324
-0.000878806
9.84158e-05
0.00121477
0.00239399
0.00353248
0.00451166
0.00521519
0.00554869
0.00545857
0.00494451
0.00406178
0.00291774
0.00165804
0.000361961
-0.0010555
0.0013249
-0.000421646
-0.0013985
-0.00204002
-0.00255074
-0.00298396
-0.00338062
-0.0037647
-0.0041367
-0.00447749
-0.00475256
-0.0049163
-0.00491756
-0.00470639
-0.00424108
-0.00349585
-0.00249136
-0.00125365
0.000134736
0.00155663
0.00286804
0.00391489
0.0045572
0.00469586
0.00429466
0.00339153
0.00210182
0.000604233
-0.000998457
-0.00281457
6.5216e-05
-0.00182064
-0.0028774
-0.00358632
-0.00417821
-0.00471635
-0.00524765
-0.00579847
-0.00636815
-0.00693319
-0.00745128
-0.00786536
-0.00810879
-0.00811235
-0.0078123
-0.00716097
-0.00614549
-0.00478525
-0.00315292
-0.00137247
0.000386026
0.00192306
0.00303803
0.00356553
0.00341119
0.00257758
0.00118024
-0.000563839
-0.00251945
-0.00481925
-0.00175335
-0.00374586
-0.00487182
-0.00565102
-0.00633702
-0.00700266
-0.00770061
-0.00845971
-0.00927853
-0.0101296
-0.0109629
-0.0117095
-0.0122853
-0.0125981
-0.0125562
-0.0120807
-0.011122
-0.00967318
-0.00778697
-0.0055852
-0.00326008
-0.00106116
0.000735044
0.0018713
0.0021635
0.00154915
0.000126108
-0.00184984
-0.00420202
-0.00708853
-0.00416868
-0.00623201
-0.00741558
-0.00826793
-0.00906123
-0.00987766
-0.0107758
-0.0117876
-0.0129119
-0.0141185
-0.0153506
-0.0165275
-0.0175467
-0.0182902
-0.0186323
-0.0184539
-0.0176594
-0.0161989
-0.0140888
-0.0114332
-0.00843541
-0.00539272
-0.00266927
-0.00064172
0.000375131
0.000208807
-0.00109437
-0.00324942
-0.00603135
-0.00962403
-0.00720016
-0.0092964
-0.010525
-0.0114522
-0.0123644
-0.0133527
-0.0144825
-0.0157899
-0.0172758
-0.018909
-0.0206282
-0.0223418
-0.0239292
-0.0252443
-0.0261239
-0.0263999
-0.0259196
-0.024575
-0.0223251
-0.0192347
-0.0154974
-0.0114455
-0.00753286
-0.00427925
-0.0021771
-0.00157068
-0.00252177
-0.00474459
-0.00796666
-0.0123976
-0.010846
-0.0129372
-0.014197
-0.0151978
-0.0162352
-0.01741
-0.018795
-0.0204326
-0.0223279
-0.0244517
-0.0267403
-0.0290937
-0.0313744
-0.0334086
-0.0349925
-0.0359046
-0.0359267
-0.0348723
-0.0326281
-0.0291915
-0.0247165
-0.0195436
-0.0142019
-0.00936507
-0.00574755
-0.00394085
-0.00419931
-0.0062951
-0.0099275
-0.0153347
-0.015082
-0.0171329
-0.0184084
-0.0194758
-0.0206354
-0.0219983
-0.023647
-0.0256323
-0.0279666
-0.0306257
-0.0335467
-0.0366242
-0.0397063
-0.0425932
-0.045041
-0.0467729
-0.0474987
-0.0469456
-0.0449093
-0.0412918
-0.0361725
-0.0298594
-0.0229218
-0.0161738
-0.0105794
-0.00705511
-0.00615993
-0.0078245
-0.0117747
-0.0182912
-0.0198627
-0.0218448
-0.0231186
-0.0242359
-0.0254993
-0.0270317
-0.0289285
-0.0312522
-0.0340259
-0.0372336
-0.0408164
-0.0446668
-0.0486218
-0.0524589
-0.0558971
-0.0586062
-0.0602244
-0.0603872
-0.0587939
-0.0552249
-0.0496508
-0.0422984
-0.0337211
-0.0248284
-0.0168276
-0.0110207
-0.00839804
-0.00919771
-0.0132841
-0.0210234
-0.0251247
-0.0270214
-0.0282733
-0.0294105
-0.0307367
-0.0323915
-0.0344876
-0.0371041
-0.0402784
-0.0440058
-0.0482345
-0.0528575
-0.057704
-0.0625326
-0.06703
-0.0708181
-0.0734703
-0.0745392
-0.073609
-0.0703442
-0.0645768
-0.0564041
-0.0462954
-0.0351786
-0.0244521
-0.0158199
-0.0108195
-0.0101862
-0.0141119
-0.0231475
-0.0307942
-0.0326075
-0.0338139
-0.0349209
-0.0362387
-0.0379309
-0.0401359
-0.0429556
-0.0464459
-0.0506162
-0.0554234
-0.0607629
-0.0664581
-0.072252
-0.0778044
-0.0826964
-0.0864466
-0.0885374
-0.0884384
-0.0857083
-0.080028
-0.0713311
-0.0599367
-0.0466965
-0.0331002
-0.0212062
-0.0131672
-0.0104169
-0.0137481
-0.0240891
-0.0367974
-0.0385564
-0.0396875
-0.0406868
-0.0418844
-0.0434825
-0.0456576
-0.0485427
-0.0522173
-0.0567063
-0.0619758
-0.0679231
-0.074366
-0.0810336
-0.0875626
-0.0935005
-0.0983193
-0.101439
-0.102255
-0.100209
-0.0948444
-0.085918
-0.0735539
-0.0584365
-0.0420189
-0.0265972
-0.0149258
-0.00930204
-0.0114583
-0.0230187
-0.043077
-0.0448482
-0.0458626
-0.046636
-0.0475488
-0.0488657
-0.0508195
-0.0535854
-0.0572707
-0.0619164
-0.0674951
-0.0739029
-0.0809496
-0.0883493
-0.0957169
-0.102571
-0.108345
-0.112409
-0.114096
-0.112759
-0.107815
-0.0988578
-0.0858003
-0.0690978
-0.0500412
-0.0310012
-0.0152244
-0.00595258
-0.0062094
-0.0187655
-0.0496176
-0.0515156
-0.0523465
-0.0527142
-0.053108
-0.0538924
-0.0553813
-0.0578041
-0.0612981
-0.0659173
-0.0716352
-0.0783404
-0.0858282
-0.093794
-0.101829
-0.109423
-0.115975
-0.120813
-0.123222
-0.122471
-0.117887
-0.108919
-0.0952838
-0.0771887
-0.0556746
-0.0330162
-0.0127668
0.00091831
0.0034227
-0.00969641
-0.0564902
-0.0586832
-0.0592072
-0.0588924
-0.0584408
-0.058371
-0.0591054
-0.0609363
-0.0640288
-0.068441
-0.0741365
-0.080986
-0.0887611
-0.0971308
-0.105657
-0.113799
-0.12092
-0.126305
-0.129189
-0.128782
-0.124322
-0.115143
-0.100794
-0.0812536
-0.0572808
-0.0309217
-0.00582126
0.0130794
0.0193665
0.00646985
-0.0639397
-0.0666305
-0.0666017
-0.065171
-0.0634269
-0.0621078
-0.0617658
-0.0627546
-0.065253
-0.0693067
-0.074852
-0.0817285
-0.0896697
-0.0983093
-0.107172
-0.115679
-0.123151
-0.12883
-0.131895
-0.131491
-0.12677
-0.116967
-0.101479
-0.0801005
-0.0533116
-0.0228668
0.00769546
0.0328237
0.0442046
0.0329663
-0.0725727
-0.0759004
-0.0748102
-0.0715801
-0.0679419
-0.0649105
-0.0631625
-0.0630869
-0.0648455
-0.0684444
-0.0737662
-0.0805993
-0.0886298
-0.0974429
-0.106518
-0.11523
-0.122852
-0.128571
-0.131499
-0.130706
-0.125243
-0.114232
-0.0969428
-0.0729896
-0.0425771
-0.00717379
0.0299859
0.0629261
0.0813903
0.0744649
-0.0837793
-0.0874844
-0.0842702
-0.0781699
-0.0718514
-0.066595
-0.0631371
-0.0618363
-0.0627841
-0.0658984
-0.070987
-0.0777635
-0.0858506
-0.0947763
-0.103968
-0.112747
-0.120334
-0.12585
-0.12833
-0.126754
-0.120039
-0.107183
-0.0872846
-0.0597519
-0.0245763
0.0172056
0.0628682
0.106398
0.135423
0.137579
-0.100718
-0.103154
-0.0955761
-0.0849624
-0.0749782
-0.0669667
-0.0615596
-0.058966
-0.0591202
-0.0618047
-0.0667129
-0.0734658
-0.0816111
-0.0906135
-0.0998439
-0.108571
-0.115956
-0.121053
-0.122817
-0.12013
-0.111721
-0.0964551
-0.0732002
-0.0410777
0.000277544
0.0503127
0.107017
0.165689
0.211387
0.230796
-0.130513
-0.125963
-0.109497
-0.091924
-0.0770612
-0.065773
-0.0582799
-0.0544501
-0.0539451
-0.056343
-0.061188
-0.0679932
-0.0762257
-0.0852875
-0.0944965
-0.103072
-0.110123
-0.114644
-0.11551
-0.111489
-0.101201
-0.0832412
-0.0562011
-0.0187838
0.0299797
0.0904246
0.161931
0.240891
0.313207
0.365779
-0.189208
-0.159385
-0.126463
-0.0985641
-0.0773618
-0.0624012
-0.0529391
-0.0481727
-0.0473282
-0.0497108
-0.0546942
-0.0616829
-0.0700729
-0.0792163
-0.0883934
-0.0967894
-0.103477
-0.107403
-0.107381
-0.102081
-0.090111
-0.0697319
-0.0392044
0.0033353
0.0598416
0.132248
0.222372
0.329499
0.443051
0.56934
-0.320523
-0.199281
-0.138101
-0.0972553
-0.0699541
-0.0525687
-0.042591
-0.03814
-0.0378997
-0.0409428
-0.046543
-0.0540581
-0.0628627
-0.0723016
-0.0816532
-0.0901026
-0.0967221
-0.100451
-0.100082
-0.0941484
-0.0813618
-0.059795
-0.0274128
0.0182116
0.0802202
0.162984
0.272966
0.418652
0.607018
0.896553
-0.647806
-0.235699
-0.106653
-0.0622802
-0.0381192
-0.0246088
-0.018819
-0.0181158
-0.0208705
-0.0262313
-0.0336344
-0.0425753
-0.0525338
-0.0629365
-0.0731263
-0.0823392
-0.0896879
-0.0941521
-0.0945891
-0.089793
-0.0779254
-0.0573941
-0.0261509
0.01844
0.0801012
0.165068
0.285774
0.47053
0.776693
1.37056
)
;

boundaryField
{
    movingWall
    {
        type            zeroGradient;
    }
    fixedWalls
    {
        type            zeroGradient;
    }
    frontAndBack
    {
        type            empty;
    }
}


// ************************************************************************* //
