/*--------------------------------*- C++ -*----------------------------------*\
  =========                 |
  \\      /  F ield         | OpenFOAM: The Open Source CFD Toolbox
   \\    /   O peration     | Website:  https://openfoam.org
    \\  /    A nd           | Version:  7
     \\/     M anipulation  |
\*---------------------------------------------------------------------------*/
FoamFile
{
    version     2.0;
    format      ascii;
    class       surfaceScalarField;
    location    "6.2";
    object      phi;
}
// * * * * * * * * * * * * * * * * * * * * * * * * * * * * * * * * * * * * * //

dimensions      [0 3 -1 0 0 0 0];

internalField   nonuniform List<scalar> 
1740
(
7.49754e-07
-7.50352e-07
3.67371e-07
3.8239e-07
-1.52638e-06
1.89376e-06
-4.76437e-06
3.238e-06
-9.01038e-06
4.24602e-06
-1.39303e-05
4.91988e-06
-1.92436e-05
5.31332e-06
-2.47228e-05
5.47925e-06
-3.01731e-05
5.45031e-06
-3.54097e-05
5.23661e-06
-4.02408e-05
4.83111e-06
-4.44591e-05
4.21828e-06
-4.7843e-05
3.38392e-06
-5.01678e-05
2.32479e-06
-5.12249e-05
1.05713e-06
-5.08473e-05
-3.77609e-07
-4.89378e-05
-1.90955e-06
-4.54973e-05
-3.44047e-06
-4.06464e-05
-4.85092e-06
-3.46347e-05
-6.01166e-06
-2.78357e-05
-6.79906e-06
-2.07224e-05
-7.11332e-06
-1.38263e-05
-6.89608e-06
-7.68221e-06
-6.14407e-06
-2.76567e-06
-4.91653e-06
5.74838e-07
-3.34051e-06
2.19275e-06
-1.61791e-06
2.20075e-06
-7.99526e-09
1.07232e-06
1.12844e-06
1.07232e-06
-3.66265e-07
-3.84075e-07
-3.4862e-06
3.50234e-06
-9.87103e-06
8.27858e-06
-1.91396e-05
1.25065e-05
-3.0667e-05
1.57735e-05
-4.37756e-05
1.80284e-05
-5.78269e-05
1.93646e-05
-7.2245e-05
1.98974e-05
-8.64998e-05
1.97051e-05
-0.000100077
1.88142e-05
-0.000112457
1.72105e-05
-0.000123101
1.4862e-05
-0.000131464
1.17473e-05
-0.000137023
7.88374e-06
-0.000139317
3.35119e-06
-0.000138009
-1.68549e-06
-0.000132927
-6.99162e-06
-0.000124136
-1.22314e-05
-0.000111965
-1.70217e-05
-9.70238e-05
-2.0953e-05
-8.01833e-05
-2.36396e-05
-6.25227e-05
-2.47739e-05
-4.52396e-05
-2.41792e-05
-2.953e-05
-2.18536e-05
-1.64512e-05
-1.79953e-05
-6.77958e-06
-1.30121e-05
-8.77212e-07
-7.52027e-06
1.47173e-06
-2.35693e-06
1.17908e-06
1.4211e-06
2.2514e-06
-2.04034e-06
1.65627e-06
-8.82052e-06
1.02825e-05
-2.01651e-05
1.96232e-05
-3.54234e-05
2.77648e-05
-5.3727e-05
3.40772e-05
-7.41587e-05
3.84601e-05
-9.58342e-05
4.10401e-05
-0.000117924
4.19874e-05
-0.000139639
4.142e-05
-0.000160203
3.93777e-05
-0.000178831
3.5839e-05
-0.000194731
3.07617e-05
-0.000207117
2.41332e-05
-0.000215254
1.60206e-05
-0.000218516
6.61347e-06
-0.000216453
-3.74863e-06
-0.000208866
-1.45788e-05
-0.000195871
-2.52256e-05
-0.000177948
-3.49455e-05
-0.000155947
-4.29532e-05
-0.000131077
-4.85103e-05
-0.000104825
-5.10257e-05
-7.88488e-05
-5.01554e-05
-5.48158e-05
-4.58866e-05
-3.42198e-05
-3.85913e-05
-1.81878e-05
-2.90442e-05
-7.29487e-06
-1.84132e-05
-1.41988e-06
-8.23191e-06
4.03164e-07
-4.01938e-07
2.65457e-06
-3.81849e-06
5.47476e-06
-1.44608e-05
2.09248e-05
-3.09463e-05
3.61087e-05
-5.21651e-05
4.89836e-05
-7.69587e-05
5.88708e-05
-0.000104194
6.56952e-05
-0.000132797
6.96434e-05
-0.000161754
7.09437e-05
-0.000190082
6.97488e-05
-0.00021681
6.61055e-05
-0.000240954
5.99829e-05
-0.000261525
5.13325e-05
-0.000277554
4.01626e-05
-0.000288144
2.66106e-05
-0.000292535
1.10045e-05
-0.000290182
-6.10157e-06
-0.000280838
-2.39235e-05
-0.000264625
-4.14385e-05
-0.000242091
-5.74793e-05
-0.000214232
-7.08126e-05
-0.000182471
-8.02706e-05
-0.000148595
-8.49021e-05
-0.000114621
-8.41294e-05
-8.26218e-05
-7.78857e-05
-5.45041e-05
-6.6709e-05
-3.17726e-05
-5.17757e-05
-1.53102e-05
-3.48756e-05
-5.20506e-06
-1.8337e-05
-6.70213e-07
-4.93679e-06
1.98436e-06
-5.52886e-06
1.10036e-05
-1.99953e-05
3.53913e-05
-4.15728e-05
5.76861e-05
-6.86191e-05
7.603e-05
-9.96458e-05
8.98975e-05
-0.000133305
9.93543e-05
-0.000168364
0.000104703
-0.000203671
0.00010625
-0.000238107
0.000104185
-0.00027056
9.85584e-05
-0.000299901
8.93236e-05
-0.000324993
7.64242e-05
-0.000344721
5.9891e-05
-0.000358048
3.99372e-05
-0.000364081
1.7038e-05
-0.000362161
-8.02195e-06
-0.000351938
-3.41462e-05
-0.00033347
-5.99064e-05
-0.000307283
-8.36668e-05
-0.000274413
-0.000103682
-0.000236412
-0.000118271
-0.00019529
-0.000126025
-0.000153389
-0.00012603
-0.000113195
-0.000118079
-7.70804e-05
-0.000102824
-4.70189e-05
-8.18373e-05
-2.43196e-05
-5.75748e-05
-9.42155e-06
-3.32351e-05
-1.80067e-06
-1.25577e-05
1.83684e-07
-7.12167e-06
1.81253e-05
-2.52362e-05
5.35058e-05
-5.17024e-05
8.41523e-05
-8.43355e-05
0.000108663
-0.000121305
0.000126867
-0.000161054
0.000139103
-0.000202214
0.000145863
-0.000243529
0.000147566
-0.000283794
0.00014445
-0.000321799
0.000136564
-0.000356317
0.000123842
-0.000386101
0.000106208
-0.000409913
8.37033e-05
-0.00042658
5.66044e-05
-0.000435061
2.55192e-05
-0.000434536
-8.54713e-06
-0.000424485
-4.41976e-05
-0.000404807
-7.95846e-05
-0.000375901
-0.000112573
-0.000338741
-0.000140841
-0.000294916
-0.000162097
-0.0002466
-0.00017434
-0.000196457
-0.000176174
-0.00014743
-0.000167106
-0.000102459
-0.000147794
-6.41327e-05
-0.000120164
-3.434e-05
-8.73675e-05
-1.40074e-05
-5.35677e-05
-2.96943e-06
-2.35956e-05
-2.78575e-06
-8.58093e-06
2.67062e-05
-3.00838e-05
7.50087e-05
-6.11225e-05
0.000115191
-9.89995e-05
0.00014654
-0.000141558
0.000169426
-0.000187047
0.000184591
-0.000233985
0.0001928
-0.000281048
0.000194629
-0.000326978
0.000190379
-0.000370515
0.000180102
-0.000410371
0.000163697
-0.000445217
0.000141054
-0.000473712
0.000112198
-0.000494543
7.7436e-05
-0.000506495
3.74708e-05
-0.000508542
-6.4996e-06
-0.000499901
-5.28388e-05
-0.00048022
-9.92662e-05
-0.000449653
-0.000143139
-0.000408993
-0.000181502
-0.000359756
-0.000211334
-0.000304217
-0.000229879
-0.000245341
-0.000235049
-0.000186593
-0.000225854
-0.000131611
-0.000202777
-8.37768e-05
-0.000167998
-4.57622e-05
-0.000125382
-1.91496e-05
-8.01804e-05
-4.23193e-06
-3.85132e-05
-7.01769e-06
-9.89201e-06
3.65982e-05
-3.44592e-05
9.95758e-05
-6.96589e-05
0.000150391
-0.000112336
0.000189217
-0.000160043
0.000217133
-0.000210858
0.000235407
-0.000263218
0.00024516
-0.000315759
0.000247171
-0.000367208
0.000241828
-0.000416293
0.000229187
-0.000461698
0.000209102
-0.000502046
0.000181402
-0.000535907
0.000146059
-0.00056183
0.000103359
-0.000578393
5.40332e-05
-0.000584352
-5.40633e-07
-0.000578535
-5.86552e-05
-0.000560273
-0.000117528
-0.000529342
-0.000174071
-0.00048621
-0.000224634
-0.000432191
-0.000265353
-0.000369549
-0.000292521
-0.000301505
-0.000303093
-0.000232078
-0.000295281
-0.000165736
-0.000269118
-0.000106873
-0.000226861
-5.91942e-05
-0.000173061
-2.51662e-05
-0.000114208
-5.68811e-06
-5.79913e-05
-1.27058e-05
-1.1032e-05
4.76303e-05
-3.82745e-05
0.000126818
-7.71302e-05
0.000189246
-0.000124057
0.000236145
-0.000176362
0.000269438
-0.00023199
0.000291035
-0.000289319
0.000302489
-0.000346981
0.000304833
-0.000403719
0.000298566
-0.000458284
0.000283752
-0.000509372
0.00026019
-0.000555586
0.000227616
-0.000595434
0.000185907
-0.00062734
0.000135266
-0.000649697
7.63896e-05
-0.000660856
1.06187e-05
-0.000659457
-6.00545e-05
-0.000644261
-0.000132724
-0.000614573
-0.000203759
-0.000570384
-0.000268822
-0.000512631
-0.000323106
-0.000443404
-0.000361748
-0.000366059
-0.000380438
-0.000285144
-0.000376196
-0.000206061
-0.000348201
-0.000134445
-0.000298476
-7.53502e-05
-0.000232157
-3.24414e-05
-0.000157117
-7.45774e-06
-8.2975e-05
-2.01636e-05
-1.19701e-05
5.96004e-05
-4.1428e-05
0.000156276
-8.33369e-05
0.000231155
-0.000133848
0.000286656
-0.000190075
0.000325664
-0.000249861
0.000350822
-0.000311559
0.000364186
-0.000373819
0.000367093
-0.000435433
0.00036018
-0.000495211
0.000343529
-0.000551895
0.000316874
-0.00060411
0.000279831
-0.000650334
0.000232131
-0.000688897
0.000173828
-0.000717996
0.000105489
-0.00073574
2.83624e-05
-0.000740301
-5.54937e-05
-0.000729975
-0.000143049
-0.000703457
-0.000230277
-0.000660102
-0.000312177
-0.000600259
-0.00038295
-0.000525605
-0.000436402
-0.000439415
-0.000466628
-0.000346637
-0.000468975
-0.000253629
-0.000441209
-0.000167483
-0.000384622
-9.49728e-05
-0.000304667
-4.13893e-05
-0.000210701
-9.6703e-06
-0.000114694
-2.98339e-05
-1.26715e-05
7.22719e-05
-4.38112e-05
0.000187416
-8.80711e-05
0.000275415
-0.000141379
0.000339964
-0.000200707
0.000384991
-0.000263831
0.000413947
-0.000329098
0.000429453
-0.000395203
0.000433198
-0.000461012
0.000425989
-0.000525425
0.000407942
-0.000587272
0.00037872
-0.000645242
0.000337801
-0.000697835
0.000284725
-0.000743339
0.000219332
-0.000779821
0.000141972
-0.00080516
5.37013e-05
-0.000817131
-4.35227e-05
-0.000813523
-0.000146657
-0.000792365
-0.000251436
-0.000752231
-0.000352311
-0.000692654
-0.000442527
-0.000614595
-0.000514461
-0.000520913
-0.000560309
-0.000416674
-0.000573215
-0.000309075
-0.000548808
-0.000206807
-0.00048689
-0.000118767
-0.000392707
-5.24303e-05
-0.000277037
-1.24614e-05
-0.000154663
-4.22953e-05
-1.31034e-05
8.53753e-05
-4.53241e-05
0.000219636
-9.11401e-05
0.000321231
-0.00014634
0.000395164
-0.000207798
0.00044645
-0.000273253
0.000479401
-0.00034106
0.000497261
-0.000409975
0.000502113
-0.00047896
0.000494974
-0.000547032
0.000476014
-0.000613148
0.000444836
-0.000676113
0.000400766
-0.000734516
0.000343127
-0.000786678
0.000271494
-0.000830627
0.000185921
-0.000864097
8.71707e-05
-0.000884565
-2.30541e-05
-0.000889363
-0.000141859
-0.000875851
-0.000264949
-0.000841731
-0.00038643
-0.000785505
-0.000498753
-0.000707072
-0.000592894
-0.000608427
-0.000658954
-0.000494284
-0.000687358
-0.000372353
-0.000670738
-0.0002529
-0.000606343
-0.000147324
-0.000498283
-6.59696e-05
-0.000358391
-1.59714e-05
-0.000204661
-5.82666e-05
-1.32421e-05
9.86174e-05
-4.58945e-05
0.000252289
-9.23997e-05
0.000367736
-0.000148483
0.000451247
-0.000210962
0.00050893
-0.000277551
0.000545989
-0.000346625
0.000566335
-0.000417008
0.000572495
-0.000487771
0.000565737
-0.000558074
0.000546317
-0.000627037
0.000513799
-0.000693635
0.000467365
-0.00075662
0.000406112
-0.000814447
0.000329321
-0.000865224
0.000236698
-0.000906676
0.000128622
-0.000936131
6.40124e-06
-0.000950599
-0.000127391
-0.000946854
-0.000268695
-0.00092172
-0.000411564
-0.00087252
-0.000547953
-0.000797756
-0.000667658
-0.000698027
-0.000758683
-0.000577046
-0.000808339
-0.000442427
-0.000805357
-0.000305707
-0.000743063
-0.000181025
-0.000622965
-8.23683e-05
-0.000457048
-2.03433e-05
-0.000266686
-7.86099e-05
-1.30807e-05
0.000111698
-4.55007e-05
0.000284709
-9.17939e-05
0.00041403
-0.000147685
0.000507137
-0.000209961
0.000571207
-0.000276319
0.000612347
-0.000345155
0.000635172
-0.000415363
0.000642703
-0.00048613
0.000636504
-0.000556778
0.000616965
-0.000626625
0.000583645
-0.00069487
0.00053561
-0.000760505
0.000471747
-0.000822226
0.000391042
-0.00087836
0.000292832
-0.000926796
0.000177058
-0.000964926
4.45312e-05
-0.000989614
-0.000102703
-0.000997253
-0.000261056
-0.000983899
-0.000424917
-0.000945667
-0.000586186
-0.000879412
-0.000733912
-0.000783815
-0.00085428
-0.000660791
-0.000931364
-0.000516944
-0.000949204
-0.000364384
-0.000895623
-0.000219911
-0.000767439
-0.000101902
-0.000575057
-2.57182e-05
-0.00034287
-0.000104328
-1.26375e-05
0.000124336
-4.41964e-05
0.000316268
-8.93989e-05
0.000459232
-0.000144007
0.000561745
-0.000204789
0.000631989
-0.000269423
0.00067698
-0.000336325
0.000702074
-0.000404454
0.000710832
-0.000473121
0.000705172
-0.000541826
0.00068567
-0.000610112
0.000651931
-0.000677453
0.000602951
-0.000743155
0.000537449
-0.000806259
0.000454147
-0.000865455
0.000352028
-0.000918978
0.00023058
-0.000964501
9.00549e-05
-0.000999013
-6.81915e-05
-0.0010188
-0.000241265
-0.0010194
-0.000424321
-0.000995847
-0.000609739
-0.000943284
-0.000786474
-0.000858065
-0.000939499
-0.000739486
-0.00104994
-0.000591979
-0.00109671
-0.000427038
-0.00106056
-0.000263517
-0.00093096
-0.000124703
-0.00071387
-3.22278e-05
-0.000435346
-0.000136556
-1.19642e-05
0.0001363
-4.21359e-05
0.000346439
-8.54677e-05
0.000502564
-0.000137759
0.000614036
-0.000195753
0.000689982
-0.000257103
0.000738331
-0.000320243
0.000765214
-0.000384203
0.000774792
-0.000448426
0.000769395
-0.000512602
0.000749847
-0.00057653
0.000715859
-0.000639999
0.00066642
-0.000702691
0.00060014
-0.000764081
0.000515538
-0.000823345
0.000411292
-0.000879229
0.000286465
-0.000929914
0.00014074
-0.00097277
-2.53356e-05
-0.00100435
-0.000209689
-0.00101999
-0.000408681
-0.001014
-0.00061573
-0.000979972
-0.000820498
-0.000911785
-0.00100769
-0.000805449
-0.00115628
-0.000661946
-0.00124021
-0.000490505
-0.001232
-0.000310699
-0.00111077
-0.000150689
-0.00087388
-3.99833e-05
-0.000546051
-0.000176539
-1.11549e-05
0.000147455
-3.96015e-05
0.000374886
-8.04756e-05
0.000543438
-0.000129561
0.000663121
-0.000183545
0.000743967
-0.000240056
0.000794842
-0.000297554
0.000822712
-0.000355158
0.000832396
-0.000412464
0.0008267
-0.000469376
0.000806759
-0.000525975
0.000772458
-0.000582398
0.000722843
-0.000638747
0.000656488
-0.000694994
0.000571785
-0.000750884
0.000467181
-0.000805799
0.00034138
-0.000858592
0.000193534
-0.000907329
2.34014e-05
-0.000949049
-0.000167969
-0.000979408
-0.000378323
-0.00099246
-0.000602678
-0.000980703
-0.000832254
-0.000935735
-0.00105265
-0.000849964
-0.00124205
-0.000719803
-0.00137038
-0.000550263
-0.00140154
-0.000359472
-0.00130156
-0.000179488
-0.00105386
-4.90675e-05
-0.000676472
-0.000225607
-1.03579e-05
0.000157813
-3.70357e-05
0.000401564
-7.51693e-05
0.000581572
-0.000120396
0.000708348
-0.000169299
0.00079287
-0.000219488
0.00084503
-0.000269484
0.000872708
-0.000318542
0.000881454
-0.000366452
0.00087461
-0.000413372
0.000853679
-0.000459691
0.000818777
-0.000505922
0.000769075
-0.000552615
0.00070318
-0.000600264
0.000619434
-0.000649222
0.000516139
-0.000699566
0.000391724
-0.000750917
0.000244886
-0.000802239
7.47234e-05
-0.000851304
-0.000118904
-0.000894531
-0.000335096
-0.000926305
-0.000570904
-0.000938718
-0.000819841
-0.000921708
-0.00106966
-0.000864282
-0.00129948
-0.000757607
-0.00147705
-0.000600553
-0.0015586
-0.00040692
-0.00149519
-0.000210379
-0.0012504
-5.95358e-05
-0.000827315
-0.000285142
-9.79413e-06
0.000167607
-3.50867e-05
0.000426857
-7.06259e-05
0.000617111
-0.00011167
0.000749392
-0.000154629
0.00083583
-0.000197129
0.00088753
-0.000237835
0.000913414
-0.000276221
0.000919841
-0.000312349
0.000910738
-0.000346683
0.000888014
-0.000379964
0.000852057
-0.0004131
0.000802211
-0.00044709
0.000737171
-0.000482951
0.000655295
-0.000521628
0.000554816
-0.000563886
0.000433982
-0.000610143
0.000291143
-0.00066024
0.00012482
-0.000713002
-6.61426e-05
-0.00076587
-0.000282228
-0.00081415
-0.000522624
-0.000850359
-0.000783632
-0.000863758
-0.00105627
-0.000840764
-0.00132247
-0.000767338
-0.00155048
-0.000634749
-0.00169119
-0.000449213
-0.00168073
-0.000242254
-0.00145736
-7.14408e-05
-0.000998128
-0.000356583
-9.79403e-06
0.000177401
-3.4684e-05
0.000451746
-6.83347e-05
0.000650762
-0.000105263
0.00078632
-0.00014164
0.000872207
-0.000175198
0.000921088
-0.000204895
0.000943111
-0.000230568
0.000945514
-0.000252665
0.000932834
-0.000272038
0.000907387
-0.00028982
0.000869839
-0.000307331
0.000819721
-0.000326008
0.000755849
-0.00034735
0.000676636
-0.000372841
0.000580306
-0.000403862
0.000465003
-0.000441555
0.000328836
-0.000486618
0.000169882
-0.000538946
-1.38145e-05
-0.000597222
-0.000223951
-0.000658129
-0.000461717
-0.000715437
-0.000726324
-0.000758933
-0.00101277
-0.000773812
-0.00130759
-0.000741753
-0.00158253
-0.000645866
-0.00178707
-0.000481724
-0.00184487
-0.00027361
-0.00166548
-8.48908e-05
-0.00118685
-0.000441474
-1.08696e-05
0.00018827
-3.71676e-05
0.000478044
-7.03155e-05
0.00068391
-0.000103588
0.000819593
-0.0001329
0.000901519
-0.000156287
0.000944475
-0.000173244
0.000960068
-0.000184192
0.000956462
-0.000190118
0.000938759
-0.000192362
0.000909631
-0.000192496
0.000869974
-0.000192254
0.000819479
-0.00019348
0.000757075
-0.000198089
0.000681245
-0.000208015
0.000590232
-0.000225145
0.000482134
-0.000251219
0.000354909
-0.000287668
0.000206332
-0.000335408
3.39252e-05
-0.000394346
-0.000165013
-0.000462847
-0.000393216
-0.000536599
-0.000652573
-0.000607136
-0.000942231
-0.00066018
-0.00125455
-0.000674931
-0.00156778
-0.000627006
-0.001835
-0.000499151
-0.00197272
-0.000302509
-0.00186212
-0.000100141
-0.00138922
-0.000541615
-1.38559e-05
0.000202126
-4.45033e-05
0.000508692
-7.92714e-05
0.000718678
-0.000109602
0.000849923
-0.000131289
0.000923206
-0.000143062
0.000956248
-0.000145335
0.000962341
-0.000139405
0.000950532
-0.000126997
0.000926351
-0.000110042
0.000892676
-9.05864e-05
0.000850519
-7.07662e-05
0.000799659
-5.27756e-05
0.000739084
-3.88638e-05
0.000667333
-3.13029e-05
0.000582671
-3.23466e-05
0.000483178
-4.4178e-05
0.000366741
-6.88254e-05
0.000230979
-0.000108012
7.31113e-05
-0.000162863
-0.000110162
-0.000233424
-0.000322654
-0.000317712
-0.000568284
-0.000410016
-0.000849927
-0.000498431
-0.00116613
-0.000562176
-0.00150404
-0.000571434
-0.00182574
-0.000495456
-0.0020487
-0.000326395
-0.00203118
-0.000117667
-0.00159794
-0.000659282
-2.01767e-05
0.000222303
-5.9602e-05
0.000548117
-9.87013e-05
0.000757777
-0.000126602
0.000877824
-0.000139503
0.000936107
-0.000137515
0.00095426
-0.000122536
0.000947362
-9.71077e-05
0.000925104
-6.38987e-05
0.000893142
-2.55292e-05
0.000854306
1.54733e-05
0.000809516
5.66335e-05
0.000758499
9.54749e-05
0.000700243
0.000129521
0.000633287
0.00015628
0.000555912
0.000173249
0.000466209
0.000177931
0.000362059
0.000167872
0.000241038
0.000140707
0.000100276
9.42866e-05
-6.37421e-05
2.70041e-05
-0.000255372
-6.15252e-05
-0.000479755
-0.00016901
-0.000742443
-0.000287533
-0.00104761
-0.000399144
-0.00139243
-0.000472038
-0.00175285
-0.00046335
-0.00205739
-0.000341552
-0.00215298
-0.000138081
-0.00180141
-0.000797363
-3.23129e-05
0.000254616
-8.66666e-05
0.000602471
-0.000132662
0.000803773
-0.000157321
0.000902483
-0.000158554
0.00093734
-0.000139015
0.000934721
-0.000102841
0.000911188
-5.42375e-05
0.000876501
2.99163e-06
0.000835913
6.55331e-05
0.000791765
0.000130396
0.000744653
0.000194834
0.000694062
0.000256223
0.000638854
0.00031198
0.000577529
0.000359519
0.000508374
0.000396215
0.000429513
0.000419388
0.000338885
0.000426278
0.000234149
0.000414014
0.00011254
0.000379611
-2.93386e-05
0.000320156
-0.000195917
0.000233024
-0.000392623
0.000117092
-0.000626511
-2.46753e-05
-0.000905843
-0.000180189
-0.00123691
-0.000320007
-0.00161303
-0.000393035
-0.00198436
-0.000341824
-0.00220419
-0.00016151
-0.00198173
-0.000958873
-5.45335e-05
0.000309149
-0.000131145
0.000679083
-0.000184156
0.000856783
-0.000200832
0.000919159
-0.000183566
0.000920074
-0.000139331
0.000890486
-7.5417e-05
0.000847274
1.94015e-06
0.000799144
8.77675e-05
0.000750085
0.000178074
0.000701458
0.000269597
0.00065313
0.000359493
0.000604166
0.000445144
0.000553202
0.000524019
0.000498654
0.000593576
0.000438818
0.000651194
0.000371895
0.000694118
0.000295961
0.000719387
0.00020888
0.000723757
0.00010817
0.000703526
-9.1077e-06
0.000654847
-0.000147238
0.000573237
-0.000311013
0.000454473
-0.000507747
0.000296308
-0.000747677
0.000103507
-0.00104411
-0.000102349
-0.00140717
-0.000269737
-0.00181698
-0.000315904
-0.00215802
-0.000185781
-0.00211185
-0.00114465
-9.36225e-05
0.000402772
-0.000197548
0.000783008
-0.000248982
0.000908218
-0.000243426
0.000913603
-0.000192865
0.000869512
-0.000110893
0.000808514
-8.69975e-06
0.000745081
0.000105457
0.000684987
0.000225692
0.00062985
0.000347787
0.000579364
0.000468549
0.000532368
0.000585372
0.000487343
0.000695928
0.000442647
0.000797966
0.000396616
0.000889181
0.000347603
0.000967114
0.000293962
0.00102907
0.000234006
0.00107202
0.000165926
0.00109251
8.76799e-05
0.00108623
-2.81925e-06
0.00104884
-0.00010985
0.000974411
-0.000236587
0.00085642
-0.000389755
0.000688154
-0.000579411
0.000465983
-0.000821941
0.000199473
-0.00114066
-6.78634e-05
-0.00154964
-0.000242254
-0.00198363
-0.000203248
-0.00215086
-0.0013479
-0.00015771
0.000560482
-0.000277922
0.00090322
-0.000295571
0.000925867
-0.000234152
0.000852183
-0.000122662
0.000758023
1.72603e-05
0.000668591
0.000171306
0.000591036
0.000330509
0.000525784
0.000489384
0.000470974
0.000644516
0.000424232
0.00079361
0.000383273
0.000934911
0.000346042
0.00106684
0.00031072
0.00118777
0.000275685
0.0012959
0.000239469
0.00138916
0.000200705
0.0014651
0.000158066
0.00152083
0.000110195
0.00155286
5.56512e-05
0.0015569
-6.8602e-06
0.00152794
-8.08934e-05
0.00145954
-0.000168183
0.00134373
-0.000273947
0.00117069
-0.000406367
0.000929492
-0.000580747
0.000614395
-0.000825567
0.000247108
-0.00118235
-7.96397e-05
-0.00165688
-0.000194385
-0.00203611
-0.00154229
-0.000243452
0.000803934
-0.000302987
0.000962755
-0.000205028
0.000827907
-2.74519e-05
0.000674607
0.000181137
0.000549435
0.000397056
0.000452672
0.000608767
0.000379325
0.000810918
0.000323633
0.00100135
0.000280537
0.0011794
0.000246186
0.00134491
0.000217759
0.0014978
0.000193155
0.00163777
0.000170753
0.00176419
0.000149261
0.00187605
0.000127611
0.00197187
0.000104881
0.00204971
8.02352e-05
0.00210703
5.28747e-05
0.00214066
2.20217e-05
0.00214706
-1.32658e-05
0.0021207
-5.45333e-05
0.00205555
-0.000103036
0.00194334
-0.000161735
0.00177279
-0.000235819
0.00152812
-0.000336078
0.00118908
-0.00048652
0.000744796
-0.000738071
0.000252579
-0.00116467
-8.16052e-05
-0.00170193
-0.00162389
-0.000193609
0.000997543
1.97235e-05
0.000749423
0.000374552
0.000473079
0.000715006
0.000334153
0.00101962
0.000244819
0.00128827
0.000184022
0.00152452
0.000143081
0.00173293
0.000115214
0.00191793
9.55421e-05
0.00208312
8.09956e-05
0.00223121
6.96732e-05
0.00236403
6.03353e-05
0.00248265
5.21303e-05
0.00258746
4.44456e-05
0.00267825
3.68199e-05
0.00275425
2.88866e-05
0.00281415
2.03385e-05
0.00285608
1.09381e-05
0.00287734
7.65697e-07
0.002876
-1.1923e-05
0.00284692
-2.54569e-05
0.00278549
-4.16069e-05
0.00268478
-6.10252e-05
0.00253453
-8.55704e-05
0.00231801
-0.000119556
0.00200592
-0.000174434
0.00155126
-0.000283406
0.000927065
-0.000540472
0.000263667
-0.00103853
-0.00136022
0.000997543
0.00174697
0.00222004
0.0025542
0.00279902
0.00298304
0.00312612
0.00324133
0.00333688
0.00341787
0.00348754
0.00354788
0.00360001
0.00364446
0.00368128
0.00371016
0.0037305
0.00374144
0.0037422
0.00373028
0.00370482
0.00366322
0.00360219
0.00351662
0.00339707
0.00322263
0.00293923
0.00239875
0.00136022
)
;

boundaryField
{
    movingWall
    {
        type            calculated;
        value           uniform 0;
    }
    fixedWalls
    {
        type            calculated;
        value           uniform 0;
    }
    frontAndBack
    {
        type            empty;
        value           nonuniform 0();
    }
}


// ************************************************************************* //
