/*--------------------------------*- C++ -*----------------------------------*\
  =========                 |
  \\      /  F ield         | OpenFOAM: The Open Source CFD Toolbox
   \\    /   O peration     | Website:  https://openfoam.org
    \\  /    A nd           | Version:  7
     \\/     M anipulation  |
\*---------------------------------------------------------------------------*/
FoamFile
{
    version     2.0;
    format      ascii;
    class       surfaceScalarField;
    location    "3.5";
    object      phi;
}
// * * * * * * * * * * * * * * * * * * * * * * * * * * * * * * * * * * * * * //

dimensions      [0 3 -1 0 0 0 0];

internalField   nonuniform List<scalar> 
1740
(
4.92246e-07
-4.92258e-07
-3.77752e-08
5.30015e-07
-1.79035e-06
1.75258e-06
-4.60459e-06
2.81423e-06
-8.18714e-06
3.58254e-06
-1.22586e-05
4.07142e-06
-1.65882e-05
4.32962e-06
-2.09913e-05
4.40308e-06
-2.53144e-05
4.32315e-06
-2.94198e-05
4.10535e-06
-3.31722e-05
3.75248e-06
-3.64319e-05
3.25963e-06
-3.90519e-05
2.62005e-06
-4.08832e-05
1.83128e-06
-4.17842e-05
9.01047e-07
-4.16363e-05
-1.47905e-07
-4.03612e-05
-1.27509e-06
-3.79416e-05
-2.4196e-06
-3.44377e-05
-3.50386e-06
-2.99985e-05
-4.4392e-06
-2.48635e-05
-5.13504e-06
-1.93526e-05
-5.51089e-06
-1.38436e-05
-5.50896e-06
-8.73822e-06
-5.10542e-06
-4.42014e-06
-4.31808e-06
-1.20874e-06
-3.2114e-06
6.96715e-07
-1.90546e-06
1.28064e-06
-5.83927e-07
7.7444e-07
5.06195e-07
7.74439e-07
-5.19443e-07
2.71802e-08
-3.37793e-06
3.38851e-06
-8.87602e-06
7.25067e-06
-1.66147e-05
1.05529e-05
-2.60601e-05
1.30279e-05
-3.66518e-05
1.46631e-05
-4.78715e-05
1.55493e-05
-5.92621e-05
1.57937e-05
-7.0417e-05
1.5478e-05
-8.09597e-05
1.4648e-05
-9.05246e-05
1.33175e-05
-9.87463e-05
1.14813e-05
-0.000105259
9.13227e-06
-0.000109706
6.27907e-06
-0.000111769
2.96352e-06
-0.000111196
-7.21043e-07
-0.000107835
-4.63568e-06
-0.000101686
-8.56864e-06
-9.29232e-05
-1.22667e-05
-8.19184e-05
-1.54439e-05
-6.92406e-05
-1.78129e-05
-5.56303e-05
-1.91212e-05
-4.19485e-05
-1.91907e-05
-2.91004e-05
-1.79536e-05
-1.79406e-05
-1.54779e-05
-9.16778e-06
-1.19842e-05
-3.21685e-06
-7.85639e-06
-1.44117e-07
-3.65667e-06
5.56921e-07
-1.94845e-07
1.33136e-06
-1.83791e-06
1.86509e-06
-7.58424e-06
9.13483e-06
-1.69361e-05
1.66025e-05
-2.93071e-05
2.2924e-05
-4.39679e-05
2.76887e-05
-6.01701e-05
3.08652e-05
-7.72057e-05
3.2585e-05
-9.44269e-05
3.3015e-05
-0.000111238
3.22896e-05
-0.000127078
3.04878e-05
-0.000141399
2.76386e-05
-0.00015366
2.37421e-05
-0.000163327
1.87992e-05
-0.000169893
1.28452e-05
-0.000172911
5.98111e-06
-0.000172034
-1.59811e-06
-0.000167068
-9.60143e-06
-0.000158024
-1.76123e-05
-0.000145159
-2.51321e-05
-0.000128998
-3.16044e-05
-0.00011034
-3.64719e-05
-9.02154e-05
-3.92453e-05
-6.9827e-05
-3.95791e-05
-5.04397e-05
-3.73408e-05
-3.32541e-05
-3.26636e-05
-1.92609e-05
-2.59774e-05
-9.09577e-06
-1.80215e-05
-2.90395e-06
-9.84849e-06
-2.54725e-07
-2.84407e-06
1.07663e-06
-3.17118e-06
5.03628e-06
-1.1786e-05
1.77497e-05
-2.49569e-05
2.97734e-05
-4.17544e-05
3.97215e-05
-6.12352e-05
4.71695e-05
-8.24892e-05
5.21193e-05
-0.000104668
5.47639e-05
-0.00012699
5.53363e-05
-0.000148723
5.40234e-05
-0.000169172
5.09365e-05
-0.000187652
4.61186e-05
-0.000203486
3.95758e-05
-0.000216008
3.13213e-05
-0.000224588
2.1425e-05
-0.000228668
1.0061e-05
-0.000227814
-2.45201e-06
-0.000221774
-1.56412e-05
-0.000210541
-2.88446e-05
-0.000194405
-4.12689e-05
-0.000173981
-5.20285e-05
-0.00015022
-6.02319e-05
-0.000124376
-6.50897e-05
-9.79218e-05
-6.60334e-05
-7.24336e-05
-6.2829e-05
-4.94316e-05
-5.56657e-05
-3.0203e-05
-4.52059e-05
-1.56297e-05
-3.25948e-05
-6.04456e-06
-1.94336e-05
-1.14862e-06
-7.74e-06
-7.199e-08
-4.39001e-06
9.42629e-06
-1.57453e-05
2.91049e-05
-3.25827e-05
4.66108e-05
-5.35942e-05
6.0733e-05
-7.75989e-05
7.11742e-05
-0.000103531
7.80509e-05
-0.000130426
8.16594e-05
-0.000157405
8.23157e-05
-0.000183646
8.02639e-05
-0.000208355
7.56455e-05
-0.000230749
6.85131e-05
-0.000250047
5.88733e-05
-0.000265472
4.67462e-05
-0.00027628
3.2233e-05
-0.0002818
1.55808e-05
-0.000281492
-2.75999e-06
-0.000275006
-2.21267e-05
-0.000262269
-4.15822e-05
-0.000243537
-6.00006e-05
-0.000219453
-7.61124e-05
-0.000191063
-8.86224e-05
-0.000159791
-9.63614e-05
-0.000127366
-9.84585e-05
-9.56825e-05
-9.45123e-05
-6.6619e-05
-8.47292e-05
-4.18232e-05
-7.00018e-05
-2.25029e-05
-5.1915e-05
-9.26042e-06
-3.26761e-05
-2.00782e-06
-1.49926e-05
-2.0798e-06
-5.48705e-06
1.49133e-05
-1.93994e-05
4.30173e-05
-3.97001e-05
6.69114e-05
-6.47033e-05
8.57362e-05
-9.29855e-05
9.94564e-05
-0.00012333
0.000108395
-0.000154675
0.000113005
-0.000186071
0.000113712
-0.000216635
0.000110828
-0.000245514
0.000104524
-0.000271854
9.48536e-05
-0.000294792
8.18109e-05
-0.000313453
6.54075e-05
-0.000326979
4.57581e-05
-0.000334564
2.31658e-05
-0.000335529
-1.79463e-06
-0.000329369
-2.82869e-05
-0.000315875
-5.5076e-05
-0.000295198
-8.06771e-05
-0.000267931
-0.000103379
-0.000235153
-0.000121401
-0.000198429
-0.000133086
-0.000159743
-0.000137145
-0.000121354
-0.000132901
-8.55844e-05
-0.000120499
-5.4551e-05
-0.000101035
-2.9904e-05
-7.6562e-05
-1.261e-05
-4.99702e-05
-2.84241e-06
-2.47602e-05
-4.92221e-06
-6.47973e-06
2.13931e-05
-2.27563e-05
5.92939e-05
-4.6298e-05
9.04532e-05
-7.50653e-05
0.000114504
-0.000107403
0.000131795
-0.000141955
0.000142946
-0.000177579
0.000148629
-0.000213279
0.000149412
-0.000248141
0.00014569
-0.000281278
0.000137661
-0.000311794
0.00012537
-0.000338761
0.000108778
-0.000361215
8.78613e-05
-0.000378172
6.27154e-05
-0.00038867
3.36636e-05
-0.000391839
1.37402e-06
-0.000386958
-3.31678e-05
-0.0003736
-6.84342e-05
-0.000351717
-0.00010256
-0.000321761
-0.000133335
-0.000284771
-0.00015839
-0.000242411
-0.000175446
-0.000196925
-0.00018263
-0.000151
-0.000178825
-0.000107515
-0.000163985
-6.92084e-05
-0.000139341
-3.83307e-05
-0.00010744
-1.63383e-05
-7.19626e-05
-3.72639e-06
-3.73721e-05
-8.6486e-06
-7.38357e-06
2.87766e-05
-2.58368e-05
7.77471e-05
-5.23915e-05
0.000117008
-8.46894e-05
0.000146801
-0.000120867
0.000167972
-0.000159444
0.000181524
-0.00019922
0.000188405
-0.000239176
0.000189368
-0.000278391
0.000184905
-0.000315975
0.000175245
-0.000351012
0.000160407
-0.00038253
0.000140296
-0.000409479
0.000114811
-0.000430746
8.39822e-05
-0.000445185
4.81029e-05
-0.00045167
7.85891e-06
-0.000449227
-3.56111e-05
-0.000437097
-8.05636e-05
-0.000414933
-0.000124725
-0.000382935
-0.000165333
-0.000342002
-0.000199324
-0.000293825
-0.000223623
-0.000240896
-0.000235559
-0.000186384
-0.000233337
-0.000133856
-0.000216513
-8.68649e-05
-0.000186332
-4.84691e-05
-0.000145835
-2.07956e-05
-9.96362e-05
-4.76664e-06
-5.3401e-05
-1.34152e-05
-8.20566e-06
3.69823e-05
-2.86497e-05
9.81912e-05
-5.79809e-05
0.000146339
-9.35616e-05
0.000182382
-0.000133347
0.000207757
-0.000175756
0.000223934
-0.000219552
0.0002322
-0.000263715
0.000233532
-0.000307348
0.000228538
-0.000349582
0.000217479
-0.00038951
0.000200335
-0.000426133
0.000176918
-0.00045833
0.000147008
-0.000484856
0.000110508
-0.000504361
6.76072e-05
-0.000515443
1.89417e-05
-0.000516773
-3.42815e-05
-0.000507194
-9.01422e-05
-0.000485938
-0.000145981
-0.00045282
-0.000198451
-0.000408463
-0.000243681
-0.000354473
-0.000277613
-0.000293527
-0.000296505
-0.000229297
-0.000297567
-0.000166168
-0.000279642
-0.000108728
-0.000243773
-6.11168e-05
-0.000193446
-2.63921e-05
-0.000134361
-6.08507e-06
-7.3708e-05
-1.95003e-05
-8.94441e-06
4.59267e-05
-3.11848e-05
0.000120432
-6.30377e-05
0.000178192
-0.000101625
0.000220969
-0.000144747
0.000250879
-0.000190749
0.000269936
-0.000238377
0.000279828
-0.000286638
0.000281793
-0.000334681
0.000276581
-0.00038169
0.000264488
-0.000426793
0.000245438
-0.000468992
0.000219118
-0.000507119
0.000185135
-0.000539805
0.000143194
-0.000565494
9.32967e-05
-0.00058249
3.5937e-05
-0.00058906
-2.77113e-05
-0.000583569
-9.56327e-05
-0.000564715
-0.000164836
-0.000531781
-0.000231385
-0.000484939
-0.000290523
-0.000425534
-0.000337018
-0.000356291
-0.000365748
-0.000281343
-0.000372515
-0.000205976
-0.000355009
-0.00013605
-0.000313699
-7.71328e-05
-0.000252363
-3.35769e-05
-0.000177917
-7.81348e-06
-9.94714e-05
-2.73138e-05
-9.59143e-06
5.55182e-05
-3.34152e-05
0.000144255
-6.75046e-05
0.000212281
-0.000108776
0.00026224
-0.000154903
0.000297006
-0.000204175
0.000319209
-0.000255342
0.000330995
-0.00030746
0.00033391
-0.00035975
0.000328872
-0.000411476
0.000316214
-0.000461834
0.000295796
-0.000509863
0.000267146
-0.000554374
0.000229646
-0.00059391
0.00018273
-0.000626733
0.00012612
-0.000650856
6.00593e-05
-0.000664137
-1.44298e-05
-0.00066441
-9.53596e-05
-0.000649747
-0.000179499
-0.000618749
-0.000262383
-0.00057093
-0.000338341
-0.000507135
-0.000400813
-0.0004299
-0.000442982
-0.000343655
-0.000458761
-0.000254585
-0.000444078
-0.000170031
-0.000398253
-9.73974e-05
-0.000324997
-4.28269e-05
-0.000232487
-1.00939e-05
-0.000132204
-3.74077e-05
-1.01345e-05
6.56526e-05
-3.53036e-05
0.000169424
-7.13056e-05
0.000248283
-0.000114881
0.000305815
-0.000163595
0.000345721
-0.000215698
0.000371312
-0.000269958
0.000385255
-0.000325496
0.000389448
-0.00038163
0.000385005
-0.000437729
0.000372313
-0.000493089
0.000351156
-0.000546824
0.000320882
-0.000597778
0.000280599
-0.000644454
0.000229407
-0.000684988
0.000166654
-0.000717152
9.22229e-05
-0.000738426
6.84438e-06
-0.000746126
-8.76596e-05
-0.000737645
-0.00018798
-0.000710778
-0.000289251
-0.000664171
-0.000384948
-0.000597863
-0.000467121
-0.000513849
-0.000526997
-0.000416532
-0.000556077
-0.000312834
-0.000547776
-0.000211687
-0.000499401
-0.000122761
-0.000413923
-5.46383e-05
-0.00030061
-1.30807e-05
-0.000173762
-5.04883e-05
-1.05617e-05
7.62143e-05
-3.68148e-05
0.000195678
-7.4366e-05
0.000285835
-0.0001198
0.000351249
-0.000170585
0.000396505
-0.000224936
0.000425663
-0.000281647
0.000441966
-0.000339917
0.000447718
-0.000399172
0.00044426
-0.000458912
0.000432052
-0.000518566
0.00041081
-0.000577369
0.000379685
-0.000634252
0.000337481
-0.000687756
0.000282911
-0.00073598
0.000214878
-0.000776556
0.000132799
-0.000806672
3.69608e-05
-0.000823218
-7.11134e-05
-0.000822924
-0.000188274
-0.000802721
-0.000309454
-0.000760201
-0.000427467
-0.000694268
-0.000533054
-0.000605912
-0.000615353
-0.000498996
-0.000662993
-0.000380766
-0.000666006
-0.000261653
-0.000618515
-0.000153966
-0.00052161
-6.95109e-05
-0.000385065
-1.6943e-05
-0.00022633
-6.74314e-05
-1.08668e-05
8.70811e-05
-3.79308e-05
0.000222742
-7.66398e-05
0.000324544
-0.000123428
0.000398038
-0.000175662
0.000448739
-0.000231519
0.000481519
-0.000289818
0.000500265
-0.000349833
0.000507734
-0.000411113
0.000505539
-0.000473303
0.000494242
-0.000535994
0.000473502
-0.000598588
0.000442278
-0.00066017
0.000399064
-0.000719414
0.000342155
-0.000774499
0.000269963
-0.000823062
0.000181361
-0.000862184
7.60827e-05
-0.000888446
-4.48512e-05
-0.000898068
-0.000178652
-0.00088715
-0.000320372
-0.000852131
-0.000462485
-0.000790481
-0.000594704
-0.00070166
-0.000704174
-0.000588286
-0.000776367
-0.000457207
-0.000797085
-0.000319914
-0.000755807
-0.000191523
-0.000650002
-8.79161e-05
-0.000488671
-2.18646e-05
-0.000292381
-8.9296e-05
-1.10562e-05
9.81373e-05
-3.86719e-05
0.000250357
-7.81455e-05
0.000364017
-0.000125744
0.000445637
-0.000178713
0.000501708
-0.000235174
0.00053798
-0.000293961
0.000559053
-0.000354425
0.000568197
-0.000416231
0.000567346
-0.000479185
0.000557196
-0.000543063
0.00053738
-0.000607475
0.00050669
-0.000671733
0.000463322
-0.000734744
0.000405166
-0.000794912
0.000330131
-0.000850059
0.000236509
-0.000897376
0.0001234
-0.000933371
-8.85642e-06
-0.000954
-0.000158023
-0.000954695
-0.000319677
-0.000930786
-0.000486394
-0.000878125
-0.000647365
-0.000794151
-0.000788148
-0.000679404
-0.000891114
-0.000539292
-0.000937198
-0.000385446
-0.000909653
-0.00023552
-0.000799928
-0.000110238
-0.000613953
-2.80389e-05
-0.00037458
-0.000117335
-1.11576e-05
0.000109295
-3.91214e-05
0.000278321
-7.90093e-05
0.000403905
-0.000126872
0.000493499
-0.000179791
0.000554627
-0.000235813
0.000594001
-0.000293771
0.000617011
-0.000353082
0.000627508
-0.000413532
0.000627796
-0.000475089
0.000618752
-0.000537734
0.000600026
-0.000601324
0.00057028
-0.000665462
0.00052746
-0.000729389
0.000469094
-0.00079188
0.000392621
-0.000851141
0.00029577
-0.00090471
0.00017697
-0.000949373
3.5806e-05
-0.000981067
-0.000126329
-0.000994926
-0.000305818
-0.00098539
-0.000495931
-0.000946717
-0.000686039
-0.000873995
-0.00086087
-0.000764881
-0.00100023
-0.000622047
-0.00108003
-0.000455798
-0.0010759
-0.000285364
-0.000970362
-0.000136683
-0.000762634
-3.56579e-05
-0.000475606
-0.000152993
-1.12303e-05
0.000120525
-3.94573e-05
0.000306548
-7.95162e-05
0.000443964
-0.000127145
0.000541128
-0.000179205
0.000606687
-0.000233633
0.00064843
-0.000289256
0.000672634
-0.000345555
0.000683807
-0.000402438
0.000684679
-0.000460042
0.000676356
-0.000518569
0.000658553
-0.000578152
0.000629863
-0.000638742
0.000588049
-0.000700001
0.000530353
-0.000761205
0.000453826
-0.000821127
0.000355692
-0.000877906
0.000233748
-0.000928895
8.67949e-05
-0.000970425
-8.47992e-05
-0.000997757
-0.000278486
-0.00100486
-0.000488824
-0.000984709
-0.000706193
-0.000930016
-0.000915563
-0.000834977
-0.00109527
-0.000698209
-0.0012168
-0.00052673
-0.00124738
-0.000339483
-0.00115761
-0.000167157
-0.000934961
-4.48954e-05
-0.000597867
-0.000197888
-1.13811e-05
0.000131906
-3.99914e-05
0.000335158
-8.017e-05
0.000484143
-0.000127182
0.000588139
-0.000177589
0.000657094
-0.000229199
0.00070004
-0.000280838
0.000724273
-0.00033207
0.000735039
-0.00038294
0.000735549
-0.000433769
0.000727186
-0.000484997
0.000709781
-0.00053706
0.000681925
-0.000590294
0.000641283
-0.000644848
0.000584908
-0.000700595
0.000509572
-0.000757012
0.000412109
-0.00081304
0.000289776
-0.000866876
0.000140631
-0.000915615
-3.6061e-05
-0.000955157
-0.000238943
-0.000979569
-0.000464412
-0.000981118
-0.000704645
-0.000950557
-0.000946123
-0.000878501
-0.00116732
-0.000758474
-0.00133683
-0.00059204
-0.00141381
-0.000395044
-0.0013546
-0.000201124
-0.00112888
-5.58925e-05
-0.000743098
-0.000253781
-1.1786e-05
0.000143692
-4.12239e-05
0.000364596
-8.17653e-05
0.000524684
-0.000127957
0.000634331
-0.000175972
0.000705109
-0.000223497
0.000747565
-0.0002694
0.000770176
-0.000313379
0.000779018
-0.00035566
0.000777831
-0.000396783
0.000768308
-0.000437446
0.000750444
-0.00047841
0.000722889
-0.000520422
0.000683295
-0.00056415
0.000628636
-0.000610109
0.000555531
-0.000658558
0.000460559
-0.000709354
0.000340571
-0.000761723
0.000193
-0.000813869
1.60858e-05
-0.00086271
-0.000190103
-0.000903093
-0.000424029
-0.0009274
-0.000680338
-0.00092526
-0.000948263
-0.000884218
-0.00120837
-0.000792321
-0.00142872
-0.000643761
-0.00156237
-0.000447786
-0.00155058
-0.000237483
-0.00133918
-6.87572e-05
-0.000911824
-0.000322538
-1.27292e-05
0.000156421
-4.39228e-05
0.00039579
-8.54765e-05
0.000566238
-0.00013087
0.000679724
-0.000175811
0.00075005
-0.000217927
0.000789682
-0.000256243
0.000808493
-0.000290696
0.00081347
-0.000321774
0.000808909
-0.000350289
0.000796823
-0.000377236
0.000777392
-0.00040372
0.000749373
-0.000430903
0.000710479
-0.000459973
0.000657706
-0.000492084
0.000587641
-0.000528276
0.000496751
-0.000569335
0.000381631
-0.000615567
0.000239232
-0.000666567
6.70865e-05
-0.00072041
-0.00013626
-0.000773421
-0.000371017
-0.000818986
-0.000634773
-0.000846792
-0.000920457
-0.000842514
-0.00121264
-0.000789264
-0.00148197
-0.000672756
-0.00167888
-0.000492054
-0.00173128
-0.000274465
-0.00155677
-8.35961e-05
-0.00110269
-0.000406134
-1.46728e-05
0.000171094
-4.92474e-05
0.000430364
-9.29685e-05
0.000609959
-0.000137792
0.000724547
-0.00017895
0.000791208
-0.00021419
0.000824922
-0.000242902
0.000837205
-0.000265441
0.000836008
-0.000282688
0.000826156
-0.000295811
0.000809946
-0.000306144
0.000787725
-0.00031515
0.000758378
-0.000324398
0.000719727
-0.000335559
0.000668867
-0.000350373
0.000602455
-0.000370592
0.000516971
-0.000397865
0.000408904
-0.000433543
0.000274909
-0.00047843
0.000111974
-0.000532225
-8.24655e-05
-0.000592932
-0.00031031
-0.000655783
-0.000571922
-0.000711862
-0.000864378
-0.000746725
-0.00117778
-0.00074015
-0.00148855
-0.000669576
-0.00174946
-0.000521019
-0.00187984
-0.000309566
-0.00176823
-0.000100583
-0.00131168
-0.000506717
-1.8388e-05
0.000189482
-5.89394e-05
0.000470916
-0.000106515
0.000657534
-0.000151036
0.000769069
-0.000187427
0.000827599
-0.00021393
0.000851425
-0.000230655
0.00085393
-0.000238642
0.000843995
-0.000239342
0.000826856
-0.000234379
0.000804983
-0.000225475
0.000778822
-0.000214452
0.000747355
-0.000203252
0.000708527
-0.000193963
0.000659578
-0.00018881
0.000597301
-0.000190131
0.000518292
-0.000200317
0.00041909
-0.000221568
0.00029616
-0.000255804
0.000146211
-0.000304308
-3.39619e-05
-0.000366888
-0.00024773
-0.000441193
-0.000497617
-0.000520913
-0.000784657
-0.000593497
-0.0011052
-0.00063792
-0.00144413
-0.000625157
-0.00176222
-0.000526918
-0.00197808
-0.000339414
-0.00195573
-0.000120029
-0.00153106
-0.000626747
-2.51981e-05
0.00021468
-7.55956e-05
0.000521313
-0.000129048
0.000710987
-0.000173081
0.000813102
-0.000202877
0.000857394
-0.000217865
0.000866413
-0.000219424
0.000855489
-0.000209641
0.000834212
-0.000190745
0.00080796
-0.000164923
0.000779161
-0.000134313
0.000748212
-0.000101072
0.000714113
-6.74503e-05
0.000674906
-3.58572e-05
0.000627985
-8.89685e-06
0.000570341
1.06841e-05
0.000498711
2.00618e-05
0.000409712
1.61993e-05
0.000300022
-3.70153e-06
0.000166111
-4.19659e-05
4.30242e-06
-0.000100546
-0.00018915
-0.00017963
-0.000418533
-0.000276305
-0.000687982
-0.000381781
-0.000999722
-0.000477322
-0.00134859
-0.000530888
-0.00170865
-0.000500952
-0.00200801
-0.000359361
-0.00209732
-0.000142303
-0.00174812
-0.00076905
-3.74162e-05
0.000252097
-0.000102962
0.000586859
-0.000163849
0.000771874
-0.000205561
0.000854815
-0.000224909
0.000876741
-0.000223687
0.000865191
-0.000205314
0.000837116
-0.000173358
0.000802256
-0.000131041
0.000765642
-8.11787e-05
0.000729299
-2.63083e-05
0.000693342
3.11564e-05
0.000656649
8.87805e-05
0.000617282
0.000143993
0.000572772
0.000194027
0.000520307
0.000235876
0.000456862
0.000266288
0.0003793
0.000281897
0.000284413
0.00027917
0.000168839
0.000254497
2.8975e-05
0.000204656
-0.000139309
0.000126993
-0.000340869
2.07035e-05
-0.000581693
-0.000110512
-0.000868506
-0.000253388
-0.00120571
-0.000377601
-0.00158444
-0.000432388
-0.00195323
-0.0003624
-0.00216731
-0.000167241
-0.00194328
-0.000936291
-5.90633e-05
0.00031116
-0.000145887
0.000673683
-0.000212945
0.000838931
-0.000246194
0.000888064
-0.000246918
0.000877466
-0.00022111
0.000839383
-0.00017519
0.000791197
-0.000114631
0.000741697
-4.37627e-05
0.000694774
3.40211e-05
0.000651515
0.000115918
0.000611444
0.000199432
0.000573135
0.000282135
0.00053458
0.000361497
0.00049341
0.000434775
0.000447029
0.000498934
0.000392703
0.000550628
0.000327606
0.00058619
0.000248851
0.000601623
0.000153406
0.000592588
3.80097e-05
0.000554566
-0.000101287
0.00048289
-0.000269193
0.000373378
-0.000472181
0.000224291
-0.000719419
4.12923e-05
-0.00102271
-0.000153151
-0.00139
-0.000306287
-0.00180009
-0.000336661
-0.00213694
-0.000192356
-0.00208758
-0.00112865
-9.66707e-05
0.000407831
-0.000208333
0.000785346
-0.000271267
0.000901865
-0.000280066
0.000896862
-0.000245706
0.000843107
-0.000180778
0.000774454
-9.55527e-05
0.000705972
2.51347e-06
0.000643631
0.000108265
0.000589022
0.000218075
0.000541705
0.000329269
0.00050025
0.000439639
0.000462765
0.000547101
0.000427117
0.000649471
0.00039104
0.000744303
0.000352197
0.000828792
0.000308214
0.000899701
0.000256697
0.000953325
0.000195227
0.000985426
0.000121305
0.00099113
3.23055e-05
0.0009651
-7.52572e-05
0.000901163
-0.000205256
0.000792493
-0.000363511
0.000632468
-0.000559395
0.000417978
-0.00080822
0.000159718
-0.00113174
-9.81067e-05
-0.00154227
-0.000260495
-0.00197455
-0.000209628
-0.00213845
-0.00133827
-0.000158409
0.00056624
-0.000282477
0.000909413
-0.000307423
0.000926812
-0.000256423
0.000845861
-0.000157716
0.0007444
-3.20238e-05
0.000648762
0.000107207
0.00056674
0.000251814
0.000499024
0.00039704
0.000443797
0.000540142
0.000398603
0.00067942
0.000360972
0.000813606
0.000328579
0.000941474
0.00029925
0.00106158
0.00027093
0.00117212
0.000241662
0.00127077
0.000209559
0.00135469
0.000172784
0.00142038
0.000129534
0.00146365
7.80333e-05
0.00147931
1.6645e-05
0.00146186
-5.78088e-05
0.00140412
-0.000147514
0.00129762
-0.000257013
0.00113231
-0.000394084
0.000897419
-0.000573326
0.00058789
-0.000822208
0.000226681
-0.00118106
-9.30244e-05
-0.00165484
-0.000199646
-0.00203183
-0.00153792
-0.000241753
0.000807993
-0.000300899
0.000968559
-0.000205252
0.000831165
-3.32839e-05
0.000673893
0.000166935
0.000544181
0.000372365
0.000443332
0.00057221
0.000366896
0.000761892
0.000309342
0.000940024
0.000265664
0.00110667
0.000231956
0.00126237
0.000205274
0.00140761
0.000183335
0.00154257
0.000164293
0.00166691
0.000146592
0.00177971
0.000128865
0.00187938
0.000109882
0.00196367
8.84995e-05
0.00202958
6.36175e-05
0.00207345
3.41673e-05
0.00208993
1.64623e-07
0.00207443
-4.23074e-05
0.00201918
-9.22661e-05
0.00191548
-0.000153309
0.00175164
-0.000230252
0.00151178
-0.000333465
0.00117599
-0.000486415
0.000734294
-0.00073936
0.000245144
-0.00116569
-8.52e-05
-0.00170148
-0.00162312
-0.00019083
0.000998823
2.58824e-05
0.000751846
0.000381731
0.000475317
0.000720798
0.000334826
0.0010213
0.000243676
0.00128341
0.000181229
0.00151127
0.000139036
0.00171018
0.000110424
0.00188532
9.05258e-05
0.00204104
7.62349e-05
0.00218074
6.55824e-05
0.00230683
5.72451e-05
0.00242084
5.02743e-05
0.00252349
4.39509e-05
0.00261465
3.76996e-05
0.00269349
3.10395e-05
0.00275843
2.35586e-05
0.00280713
1.49204e-05
0.00283637
4.92899e-06
0.00284391
-7.37852e-06
0.00282317
-2.15643e-05
0.00276933
-3.84219e-05
0.00267484
-5.8821e-05
0.00252906
-8.44779e-05
0.00231514
-0.000119539
0.00200399
-0.000175271
0.00154931
-0.000284671
0.000925205
-0.000541592
0.000262769
-0.00103905
-0.00136035
0.000998823
0.00175067
0.00222599
0.00256081
0.00280449
0.00298572
0.00312475
0.00323518
0.0033257
0.00340194
0.00346752
0.00352476
0.00357504
0.00361899
0.00365669
0.00368773
0.00371129
0.00372621
0.00373114
0.00372376
0.00370219
0.00366377
0.00360495
0.00352047
0.00340093
0.00322566
0.00294099
0.0023994
0.00136035
)
;

boundaryField
{
    movingWall
    {
        type            calculated;
        value           uniform 0;
    }
    fixedWalls
    {
        type            calculated;
        value           uniform 0;
    }
    frontAndBack
    {
        type            empty;
        value           nonuniform 0();
    }
}


// ************************************************************************* //
