/*--------------------------------*- C++ -*----------------------------------*\
  =========                 |
  \\      /  F ield         | OpenFOAM: The Open Source CFD Toolbox
   \\    /   O peration     | Website:  https://openfoam.org
    \\  /    A nd           | Version:  7
     \\/     M anipulation  |
\*---------------------------------------------------------------------------*/
FoamFile
{
    version     2.0;
    format      ascii;
    class       volVectorField;
    location    "3.5";
    object      U;
}
// * * * * * * * * * * * * * * * * * * * * * * * * * * * * * * * * * * * * * //

dimensions      [0 1 -1 0 0 0 0];

internalField   nonuniform List<vector> 
900
(
(0.000106398 -0.000105535 0)
(0.000147378 -1.64833e-05 0)
(-0.000183049 0.000110692 0)
(-0.000858771 0.000220532 0)
(-0.00178903 0.000296347 0)
(-0.0028972 0.000341841 0)
(-0.00411037 0.000364702 0)
(-0.00536902 0.000371293 0)
(-0.00662543 0.00036555 0)
(-0.00783871 0.000349183 0)
(-0.0089704 0.000322244 0)
(-0.00998142 0.00028377 0)
(-0.0108307 0.000232464 0)
(-0.0114755 0.000167361 0)
(-0.0118736 8.84801e-05 0)
(-0.0119868 -2.63725e-06 0)
(-0.0117859 -0.00010277 0)
(-0.0112562 -0.00020624 0)
(-0.0104031 -0.000305607 0)
(-0.00925617 -0.000392095 0)
(-0.00787119 -0.000456523 0)
(-0.00632911 -0.000490565 0)
(-0.00473128 -0.000488071 0)
(-0.00319125 -0.000446205 0)
(-0.00182365 -0.000366165 0)
(-0.000730875 -0.000253715 0)
(9.27312e-06 -0.000120568 0)
(0.000356632 1.45672e-05 0)
(0.000341698 0.000121311 0)
(0.000126726 0.000125442 0)
(2.10688e-05 -0.000151902 0)
(-0.000368451 0.000367277 0)
(-0.00158209 0.00100289 0)
(-0.00350874 0.00155227 0)
(-0.00600033 0.00195758 0)
(-0.00889912 0.00222057 0)
(-0.0120484 0.00236182 0)
(-0.0153082 0.00240279 0)
(-0.018556 0.00235892 0)
(-0.0216813 0.00223824 0)
(-0.024579 0.00204259 0)
(-0.0271451 0.00177011 0)
(-0.0292745 0.00141811 0)
(-0.0308631 0.000986296 0)
(-0.0318124 0.000479716 0)
(-0.0320384 -8.87482e-05 0)
(-0.0314812 -0.000696605 0)
(-0.0301165 -0.00131136 0)
(-0.0279675 -0.00189191 0)
(-0.0251117 -0.00239159 0)
(-0.0216843 -0.00276304 0)
(-0.017875 -0.00296441 0)
(-0.0139166 -0.0029659 0)
(-0.0100671 -0.00275564 0)
(-0.00658439 -0.00234386 0)
(-0.00369753 -0.00176559 0)
(-0.00157583 -0.0010839 0)
(-0.000295364 -0.000393887 0)
(0.000196163 0.000163792 0)
(0.000130149 0.000339663 0)
(-0.000113312 0.000179799 0)
(-0.00105908 0.00159298 0)
(-0.00325989 0.00313283 0)
(-0.00642156 0.00445311 0)
(-0.0103349 0.00544927 0)
(-0.0147945 0.00611261 0)
(-0.0195905 0.00647385 0)
(-0.0245281 0.00657162 0)
(-0.0294305 0.00643656 0)
(-0.0341339 0.00608631 0)
(-0.0384807 0.00552684 0)
(-0.0423157 0.0047572 0)
(-0.0454845 0.00377602 0)
(-0.0478366 0.00258868 0)
(-0.0492331 0.00121408 0)
(-0.0495574 -0.000309745 0)
(-0.0487288 -0.00192184 0)
(-0.0467179 -0.00353846 0)
(-0.0435608 -0.00505623 0)
(-0.0393685 -0.00635978 0)
(-0.0343311 -0.00733352 0)
(-0.0287136 -0.00787619 0)
(-0.0228406 -0.00791663 0)
(-0.0170725 -0.00742802 0)
(-0.0117707 -0.00643867 0)
(-0.00725848 -0.00503842 0)
(-0.00377801 -0.00338261 0)
(-0.00144663 -0.00169609 0)
(-0.000229052 -0.000286305 0)
(5.77796e-05 0.000396867 0)
(-0.000248154 0.000908881 0)
(-0.00175406 0.00365361 0)
(-0.00494303 0.00636874 0)
(-0.00930806 0.00865077 0)
(-0.0145561 0.0103704 0)
(-0.0204369 0.0115182 0)
(-0.0266998 0.0121378 0)
(-0.0331108 0.0122855 0)
(-0.039455 0.0120069 0)
(-0.0455299 0.0113292 0)
(-0.0511392 0.0102628 0)
(-0.0560885 0.00880895 0)
(-0.0601848 0.00696952 0)
(-0.063241 0.00475933 0)
(-0.065084 0.00221703 0)
(-0.0655686 -0.000585673 0)
(-0.0645925 -0.00353895 0)
(-0.0621149 -0.00649347 0)
(-0.0581732 -0.00926719 0)
(-0.0528956 -0.0116581 0)
(-0.0465069 -0.0134637 0)
(-0.0393256 -0.0145063 0)
(-0.0317478 -0.0146598 0)
(-0.0242185 -0.0138751 0)
(-0.0171916 -0.0121997 0)
(-0.0110808 -0.00978892 0)
(-0.00620712 -0.00690909 0)
(-0.00274563 -0.00393568 0)
(-0.000710805 -0.00135245 0)
(-2.13168e-05 0.000201941 0)
(-0.000366375 0.00199536 0)
(-0.00239893 0.00651677 0)
(-0.00653904 0.0106683 0)
(-0.0120575 0.0140677 0)
(-0.0185677 0.0166019 0)
(-0.0257727 0.0182814 0)
(-0.0333855 0.0191726 0)
(-0.0411429 0.0193522 0)
(-0.0488034 0.0188811 0)
(-0.056138 0.0177955 0)
(-0.0629226 0.0161096 0)
(-0.0689338 0.0138257 0)
(-0.0739477 0.0109494 0)
(-0.0777449 0.00750572 0)
(-0.0801198 0.00355527 0)
(-0.0808951 -0.000792841 0)
(-0.079939 -0.00537375 0)
(-0.0771861 -0.00996369 0)
(-0.0726588 -0.0142901 0)
(-0.0664833 -0.0180491 0)
(-0.0589008 -0.0209337 0)
(-0.0502675 -0.0226705 0)
(-0.041041 -0.0230603 0)
(-0.0317493 -0.0220182 0)
(-0.0229455 -0.0196044 0)
(-0.0151489 -0.0160419 0)
(-0.00878041 -0.0117185 0)
(-0.00409659 -0.0071736 0)
(-0.00118588 -0.00307707 0)
(-8.81599e-05 -0.000248018 0)
(-0.000468766 0.00341215 0)
(-0.00298557 0.0101386 0)
(-0.00802101 0.0159882 0)
(-0.014632 0.0206566 0)
(-0.0223375 0.0240872 0)
(-0.0307924 0.0263364 0)
(-0.0396775 0.027507 0)
(-0.0487065 0.0277028 0)
(-0.0576203 0.0270022 0)
(-0.0661731 0.02545 0)
(-0.0741227 0.0230619 0)
(-0.0812241 0.0198393 0)
(-0.0872281 0.0157882 0)
(-0.0918845 0.0109411 0)
(-0.0949523 0.00537818 0)
(-0.0962148 -0.000754904 0)
(-0.0954971 -0.00723594 0)
(-0.0926911 -0.0137625 0)
(-0.0877833 -0.0199614 0)
(-0.0808759 -0.0254111 0)
(-0.0722058 -0.0296788 0)
(-0.0621529 -0.0323691 0)
(-0.051231 -0.0331832 0)
(-0.0400584 -0.0319761 0)
(-0.0293059 -0.0288046 0)
(-0.0196277 -0.0239555 0)
(-0.0115784 -0.0179463 0)
(-0.00552765 -0.0114988 0)
(-0.00166017 -0.00549004 0)
(-0.000143379 -0.000937763 0)
(-0.000559178 0.00512729 0)
(-0.00351924 0.014464 0)
(-0.00938809 0.022267 0)
(-0.0170259 0.0283544 0)
(-0.0258616 0.0327629 0)
(-0.0355047 0.035621 0)
(-0.0456068 0.0370847 0)
(-0.055865 0.0372939 0)
(-0.0660099 0.036348 0)
(-0.0757878 0.0343 0)
(-0.0849463 0.0311647 0)
(-0.0932254 0.0269376 0)
(-0.100354 0.0216191 0)
(-0.106053 0.015242 0)
(-0.11004 0.00789874 0)
(-0.112047 -0.000235081 0)
(-0.111842 -0.00888184 0)
(-0.109253 -0.0176613 0)
(-0.104204 -0.0260917 0)
(-0.0967463 -0.0336171 0)
(-0.0870887 -0.0396521 0)
(-0.0756167 -0.0436455 0)
(-0.0628944 -0.0451587 0)
(-0.0496391 -0.0439488 0)
(-0.0366656 -0.0400408 0)
(-0.0248027 -0.0337729 0)
(-0.0147854 -0.0258004 0)
(-0.00713872 -0.0170533 0)
(-0.00217249 -0.00865437 0)
(-0.0001943 -0.00186698 0)
(-0.000640473 0.00711295 0)
(-0.0040061 0.0194377 0)
(-0.0106456 0.0294395 0)
(-0.0192418 0.0370947 0)
(-0.0291422 0.0425665 0)
(-0.0399152 0.0460811 0)
(-0.0511887 0.0478652 0)
(-0.0626491 0.0481052 0)
(-0.0740244 0.0469261 0)
(-0.0850604 0.0443891 0)
(-0.0955024 0.0405046 0)
(-0.105082 0.0352553 0)
(-0.113511 0.0286267 0)
(-0.120479 0.0206405 0)
(-0.125659 0.0113888 0)
(-0.128721 0.00106523 0)
(-0.129359 -0.0100095 0)
(-0.127315 -0.0213789 0)
(-0.122421 -0.0324483 0)
(-0.114646 -0.0425111 0)
(-0.104137 -0.0507991 0)
(-0.0912619 -0.0565607 0)
(-0.0766203 -0.0591636 0)
(-0.0610339 -0.0582109 0)
(-0.0454887 -0.053649 0)
(-0.0310357 -0.0458426 0)
(-0.0186506 -0.0355898 0)
(-0.00907225 -0.024065 0)
(-0.0027793 -0.0126949 0)
(-0.000251252 -0.00306394 0)
(-0.000713978 0.00934505 0)
(-0.00444905 0.0250069 0)
(-0.0117953 0.0374397 0)
(-0.0212782 0.0468094 0)
(-0.032173 0.0534354 0)
(-0.0440138 0.0576653 0)
(-0.0564105 0.0598145 0)
(-0.0690454 0.060127 0)
(-0.0816514 0.0587587 0)
(-0.0939819 0.0557792 0)
(-0.105788 0.0511901 0)
(-0.116799 0.044953 0)
(-0.126714 0.0370259 0)
(-0.135195 0.0274039 0)
(-0.141867 0.0161613 0)
(-0.146332 0.003491 0)
(-0.148192 -0.0102612 0)
(-0.14708 -0.0245718 0)
(-0.142708 -0.0387341 0)
(-0.134925 -0.0518774 0)
(-0.123781 -0.0630186 0)
(-0.109583 -0.0711531 0)
(-0.0929425 -0.0753852 0)
(-0.0747769 -0.0750849 0)
(-0.0562639 -0.0700484 0)
(-0.0387286 -0.0606208 0)
(-0.0234621 -0.0477398 0)
(-0.011496 -0.0328671 0)
(-0.00354626 -0.0178139 0)
(-0.000325433 -0.00458986 0)
(-0.00077973 0.0118004 0)
(-0.00484703 0.031118 0)
(-0.0128324 0.0461983 0)
(-0.0231232 0.0574249 0)
(-0.0349326 0.0652995 0)
(-0.0477668 0.0703144 0)
(-0.0612239 0.0728905 0)
(-0.074989 0.0733413 0)
(-0.0888069 0.0718593 0)
(-0.102447 0.0685237 0)
(-0.115672 0.0633222 0)
(-0.128222 0.0561856 0)
(-0.139787 0.0470303 0)
(-0.150007 0.0358055 0)
(-0.15846 0.0225447 0)
(-0.164678 0.00741568 0)
(-0.168162 -0.0092324 0)
(-0.168418 -0.0268304 0)
(-0.16501 -0.0445688 0)
(-0.157631 -0.061406 0)
(-0.146182 -0.0761149 0)
(-0.130864 -0.0873819 0)
(-0.112249 -0.0939633 0)
(-0.0913203 -0.0948923 0)
(-0.0694522 -0.0897087 0)
(-0.04829 -0.0786586 0)
(-0.029527 -0.0627942 0)
(-0.0145937 -0.043909 0)
(-0.00454525 -0.0243012 0)
(-0.000428601 -0.00654239 0)
(-0.000836861 0.0144543 0)
(-0.00519573 0.0377133 0)
(-0.0137458 0.055639 0)
(-0.0247553 0.0688567 0)
(-0.0373842 0.0780744 0)
(-0.0511166 0.0839502 0)
(-0.0655448 0.0870279 0)
(-0.0803622 0.0877022 0)
(-0.0953325 0.0862095 0)
(-0.110248 0.0826391 0)
(-0.124895 0.0769612 0)
(-0.139027 0.069066 0)
(-0.152342 0.0588125 0)
(-0.164462 0.0460835 0)
(-0.174931 0.0308456 0)
(-0.183211 0.013212 0)
(-0.188704 -0.00649586 0)
(-0.190782 -0.0276912 0)
(-0.188841 -0.0494836 0)
(-0.182382 -0.0706667 0)
(-0.171111 -0.0897511 0)
(-0.15505 -0.105063 0)
(-0.134664 -0.114918 0)
(-0.110941 -0.117883 0)
(-0.0854203 -0.113094 0)
(-0.0600958 -0.100567 0)
(-0.0371542 -0.0814035 0)
(-0.0185598 -0.0577586 0)
(-0.0058541 -0.0325406 0)
(-0.000573527 -0.0090584 0)
(-0.000884002 0.0172789 0)
(-0.00548903 0.0447287 0)
(-0.0145206 0.0656751 0)
(-0.0261459 0.0810053 0)
(-0.0394792 0.0916543 0)
(-0.0539864 0.0984661 0)
(-0.069258 0.102124 0)
(-0.0850004 0.103117 0)
(-0.101001 0.101734 0)
(-0.117083 0.0980748 0)
(-0.133063 0.0920907 0)
(-0.148723 0.0836224 0)
(-0.163774 0.072457 0)
(-0.177841 0.0583902 0)
(-0.190446 0.0412949 0)
(-0.200998 0.0211972 0)
(-0.208814 -0.00164614 0)
(-0.213135 -0.0266683 0)
(-0.213188 -0.0529344 0)
(-0.208258 -0.0790978 0)
(-0.197806 -0.10341 0)
(-0.181606 -0.1238 0)
(-0.159914 -0.138059 0)
(-0.13362 -0.14414 0)
(-0.104352 -0.140577 0)
(-0.0744362 -0.126958 0)
(-0.0466304 -0.104294 0)
(-0.0235935 -0.0750957 0)
(-0.00755729 -0.0430139 0)
(-0.000774812 -0.0123172 0)
(-0.000919772 0.0202425 0)
(-0.0057211 0.0520924 0)
(-0.0151426 0.0762081 0)
(-0.0272666 0.0937529 0)
(-0.0411664 0.105907 0)
(-0.0562908 0.113718 0)
(-0.0722301 0.118027 0)
(-0.0887063 0.11943 0)
(-0.105535 0.118275 0)
(-0.122573 0.114683 0)
(-0.139679 0.108581 0)
(-0.156669 0.0997552 0)
(-0.173288 0.0879095 0)
(-0.18918 0.0727346 0)
(-0.203866 0.0539857 0)
(-0.216735 0.0315696 0)
(-0.227041 0.00563925 0)
(-0.233927 -0.0233079 0)
(-0.236463 -0.0543401 0)
(-0.233718 -0.0860198 0)
(-0.224872 -0.116372 0)
(-0.209381 -0.14293 0)
(-0.187177 -0.162894 0)
(-0.158905 -0.173457 0)
(-0.126135 -0.172318 0)
(-0.0914406 -0.158345 0)
(-0.0581844 -0.132211 0)
(-0.029889 -0.0966911 0)
(-0.00974647 -0.0563006 0)
(-0.00104994 -0.0165447 0)
(-0.000943374 0.0233107 0)
(-0.0058892 0.0597269 0)
(-0.0156043 0.0871292 0)
(-0.0280985 0.106963 0)
(-0.0424041 0.120668 0)
(-0.0579512 0.129516 0)
(-0.0743287 0.134521 0)
(-0.091274 0.136402 0)
(-0.108632 0.135578 0)
(-0.126299 0.132193 0)
(-0.144178 0.126156 0)
(-0.162133 0.117197 0)
(-0.179956 0.104929 0)
(-0.197334 0.088927 0)
(-0.21382 0.0688089 0)
(-0.228816 0.044336 0)
(-0.241564 0.0155191 0)
(-0.251152 -0.0172648 0)
(-0.256537 -0.0531499 0)
(-0.256597 -0.0906822 0)
(-0.250233 -0.127733 0)
(-0.236521 -0.161486 0)
(-0.214956 -0.18854 0)
(-0.185757 -0.205213 0)
(-0.150219 -0.208111 0)
(-0.110975 -0.195003 0)
(-0.0719315 -0.165823 0)
(-0.0376176 -0.123365 0)
(-0.0125194 -0.0730725 0)
(-0.0014204 -0.0220177 0)
(-0.000955339 0.0264485 0)
(-0.00599734 0.0675542 0)
(-0.0159133 0.0983241 0)
(-0.0286445 0.120484 0)
(-0.0431772 0.135748 0)
(-0.0589169 0.145626 0)
(-0.0754473 0.151328 0)
(-0.0925194 0.153709 0)
(-0.110006 0.153272 0)
(-0.127846 0.150195 0)
(-0.14599 0.144375 0)
(-0.164361 0.135486 0)
(-0.182813 0.123055 0)
(-0.201098 0.106536 0)
(-0.218836 0.0854008 0)
(-0.235492 0.059248 0)
(-0.250351 0.0279158 0)
(-0.262512 -0.00838575 0)
(-0.270889 -0.0489348 0)
(-0.274236 -0.0923504 0)
(-0.271202 -0.136465 0)
(-0.260477 -0.178222 0)
(-0.241022 -0.213688 0)
(-0.212443 -0.238256 0)
(-0.175479 -0.247216 0)
(-0.132515 -0.236788 0)
(-0.0877931 -0.205577 0)
(-0.0468965 -0.155911 0)
(-0.015976 -0.0940745 0)
(-0.00191285 -0.0290679 0)
(-0.000958457 0.0296255 0)
(-0.00606069 0.0755051 0)
(-0.0161015 0.109683 0)
(-0.0289441 0.134158 0)
(-0.0435161 0.150929 0)
(-0.0591887 0.161769 0)
(-0.0755353 0.1681 0)
(-0.0923175 0.170934 0)
(-0.109436 0.170873 0)
(-0.12687 0.168138 0)
(-0.144623 0.162624 0)
(-0.162683 0.153962 0)
(-0.180981 0.141597 0)
(-0.199357 0.124871 0)
(-0.217536 0.103115 0)
(-0.235089 0.0757594 0)
(-0.251412 0.0424517 0)
(-0.265695 0.00319592 0)
(-0.276899 -0.0414979 0)
(-0.283742 -0.0904293 0)
(-0.284716 -0.14154 0)
(-0.278163 -0.19171 0)
(-0.26248 -0.236634 0)
(-0.236501 -0.270857 0)
(-0.200106 -0.288216 0)
(-0.155013 -0.282932 0)
(-0.105393 -0.25151 0)
(-0.0577414 -0.194982 0)
(-0.0202098 -0.120089 0)
(-0.00256005 -0.0380839 0)
(-0.000959015 0.0328225 0)
(-0.00611129 0.0835338 0)
(-0.0162377 0.121117 0)
(-0.029091 0.147831 0)
(-0.0435179 0.165981 0)
(-0.058844 0.177628 0)
(-0.0746272 0.184432 0)
(-0.0906388 0.187581 0)
(-0.106807 0.187791 0)
(-0.123153 0.185342 0)
(-0.139737 0.180137 0)
(-0.156616 0.171782 0)
(-0.17381 0.159655 0)
(-0.191269 0.143005 0)
(-0.208849 0.121036 0)
(-0.226276 0.0930213 0)
(-0.243115 0.0584194 0)
(-0.258729 0.0170055 0)
(-0.272223 -0.0309727 0)
(-0.282403 -0.0846044 0)
(-0.287728 -0.142104 0)
(-0.286306 -0.200516 0)
(-0.276022 -0.255425 0)
(-0.254869 -0.300759 0)
(-0.221609 -0.328944 0)
(-0.176804 -0.331856 0)
(-0.123949 -0.303014 0)
(-0.0700029 -0.24092 0)
(-0.0252956 -0.15187 0)
(-0.0034022 -0.0495081 0)
(-0.000968625 0.0360437 0)
(-0.00620561 0.091639 0)
(-0.0164416 0.132577 0)
(-0.0292515 0.161374 0)
(-0.0433683 0.180672 0)
(-0.0580597 0.192861 0)
(-0.0728682 0.19987 0)
(-0.0875789 0.203087 0)
(-0.102153 0.203356 0)
(-0.116658 0.201029 0)
(-0.131213 0.196038 0)
(-0.145953 0.187976 0)
(-0.160993 0.176181 0)
(-0.176409 0.159831 0)
(-0.19221 0.138034 0)
(-0.208308 0.109932 0)
(-0.224487 0.0748117 0)
(-0.240347 0.0322218 0)
(-0.25523 -0.0178838 0)
(-0.268157 -0.0749699 0)
(-0.277709 -0.137671 0)
(-0.281932 -0.203445 0)
(-0.278358 -0.268117 0)
(-0.264202 -0.325385 0)
(-0.236966 -0.366555 0)
(-0.195609 -0.381058 0)
(-0.14218 -0.358604 0)
(-0.0832968 -0.293537 0)
(-0.0312747 -0.190048 0)
(-0.00448939 -0.0638295 0)
(-0.00100731 0.0393316 0)
(-0.00643576 0.0998934 0)
(-0.0169027 0.144084 0)
(-0.0296867 0.174697 0)
(-0.0433609 0.194781 0)
(-0.057129 0.207111 0)
(-0.0705281 0.213927 0)
(-0.0833723 0.216841 0)
(-0.09567 0.216843 0)
(-0.107545 0.21437 0)
(-0.119185 0.209393 0)
(-0.130805 0.201515 0)
(-0.142626 0.190057 0)
(-0.154855 0.17416 0)
(-0.167664 0.15287 0)
(-0.181171 0.125234 0)
(-0.1954 0.0904002 0)
(-0.210233 0.0477165 0)
(-0.225322 -0.00315565 0)
(-0.240003 -0.0621057 0)
(-0.253128 -0.128292 0)
(-0.262902 -0.199813 0)
(-0.266753 -0.27311 0)
(-0.261337 -0.342181 0)
(-0.242953 -0.397774 0)
(-0.208668 -0.427169 0)
(-0.158297 -0.415744 0)
(-0.0969404 -0.351862 0)
(-0.0381431 -0.234993 0)
(-0.00588785 -0.0815734 0)
(-0.00110935 0.0427926 0)
(-0.00694744 0.108482 0)
(-0.0179069 0.155758 0)
(-0.0307761 0.187774 0)
(-0.0439127 0.208107 0)
(-0.0564649 0.22001 0)
(-0.0679942 0.22609 0)
(-0.0783767 0.228207 0)
(-0.0876947 0.227508 0)
(-0.0961492 0.224523 0)
(-0.104007 0.219274 0)
(-0.111574 0.211388 0)
(-0.119177 0.200198 0)
(-0.127155 0.184835 0)
(-0.135846 0.164318 0)
(-0.145566 0.137645 0)
(-0.156585 0.103866 0)
(-0.169073 0.0621676 0)
(-0.183036 0.011952 0)
(-0.198175 -0.047063 0)
(-0.213736 -0.11463 0)
(-0.228303 -0.189639 0)
(-0.239503 -0.269484 0)
(-0.2438 -0.349041 0)
(-0.236586 -0.419313 0)
(-0.213025 -0.4662 0)
(-0.170067 -0.470813 0)
(-0.109913 -0.413899 0)
(-0.0458479 -0.286644 0)
(-0.00769343 -0.103295 0)
(-0.0013351 0.0466351 0)
(-0.00797083 0.117757 0)
(-0.0198727 0.167854 0)
(-0.0330426 0.200646 0)
(-0.0455661 0.22046 0)
(-0.0565779 0.23117 0)
(-0.0657267 0.235815 0)
(-0.0730084 0.236524 0)
(-0.0786238 0.234603 0)
(-0.0828801 0.230673 0)
(-0.0861424 0.224809 0)
(-0.0888134 0.216675 0)
(-0.0913279 0.205629 0)
(-0.0941499 0.190822 0)
(-0.0977678 0.171282 0)
(-0.102683 0.145991 0)
(-0.109388 0.113951 0)
(-0.118322 0.0742342 0)
(-0.129812 0.0260431 0)
(-0.143963 -0.0312293 0)
(-0.160495 -0.0979126 0)
(-0.178514 -0.173727 0)
(-0.196157 -0.257233 0)
(-0.210151 -0.344717 0)
(-0.215513 -0.428377 0)
(-0.205849 -0.493981 0)
(-0.174977 -0.51926 0)
(-0.120847 -0.476445 0)
(-0.0542886 -0.344302 0)
(-0.0100564 -0.129587 0)
(-0.00179519 0.0512373 0)
(-0.00987466 0.128306 0)
(-0.0234016 0.18078 0)
(-0.0371674 0.2134 0)
(-0.0489562 0.231623 0)
(-0.0579967 0.240141 0)
(-0.0641383 0.242493 0)
(-0.0675872 0.241089 0)
(-0.0687258 0.237376 0)
(-0.0680065 0.232044 0)
(-0.0659122 0.225213 0)
(-0.0629494 0.216581 0)
(-0.0596552 0.205543 0)
(-0.0566046 0.191286 0)
(-0.0544122 0.172872 0)
(-0.0537303 0.149304 0)
(-0.055241 0.119575 0)
(-0.0596057 0.0826934 0)
(-0.0674263 0.0377356 0)
(-0.0791892 -0.0161502 0)
(-0.0950914 -0.0797616 0)
(-0.114843 -0.153557 0)
(-0.137329 -0.237308 0)
(-0.160005 -0.32906 0)
(-0.178198 -0.42311 0)
(-0.184679 -0.506677 0)
(-0.170375 -0.555937 0)
(-0.128012 -0.535013 0)
(-0.063298 -0.406378 0)
(-0.0132164 -0.161121 0)
(-0.00269948 0.0572663 0)
(-0.0132581 0.141042 0)
(-0.0293342 0.195094 0)
(-0.0439605 0.226099 0)
(-0.0546851 0.241249 0)
(-0.0610552 0.246307 0)
(-0.0633092 0.245371 0)
(-0.0619928 0.241098 0)
(-0.0577488 0.235026 0)
(-0.0512177 0.227872 0)
(-0.0430177 0.219769 0)
(-0.0337588 0.210436 0)
(-0.0240667 0.199301 0)
(-0.0146029 0.1856 0)
(-0.00607246 0.16844 0)
(0.00076417 0.146867 0)
(0.00508006 0.119894 0)
(0.00604804 0.0865307 0)
(0.0028632 0.0457846 0)
(-0.00530205 -0.00335761 0)
(-0.0190701 -0.0619475 0)
(-0.0387394 -0.131035 0)
(-0.0640755 -0.211441 0)
(-0.0936248 -0.303031 0)
(-0.123751 -0.402856 0)
(-0.14741 -0.501257 0)
(-0.153497 -0.57552 0)
(-0.129225 -0.58386 0)
(-0.0725285 -0.470077 0)
(-0.0175228 -0.198687 0)
(-0.0044526 0.0658981 0)
(-0.0190946 0.157294 0)
(-0.0387645 0.211389 0)
(-0.0541733 0.238564 0)
(-0.0629394 0.248633 0)
(-0.0653532 0.248692 0)
(-0.0623284 0.243383 0)
(-0.0549154 0.235512 0)
(-0.0441041 0.226606 0)
(-0.0307587 0.217329 0)
(-0.0156367 0.207773 0)
(0.000563543 0.197646 0)
(0.0171566 0.186397 0)
(0.0334331 0.173304 0)
(0.0486366 0.157535 0)
(0.0619476 0.138187 0)
(0.07247 0.114324 0)
(0.0792595 0.0850017 0)
(0.0813349 0.0492215 0)
(0.0776646 0.00591356 0)
(0.0672632 -0.0460685 0)
(0.0492575 -0.108113 0)
(0.0230523 -0.181769 0)
(-0.0111647 -0.268461 0)
(-0.0513971 -0.368188 0)
(-0.0919666 -0.475808 0)
(-0.121224 -0.57292 0)
(-0.121561 -0.616069 0)
(-0.0810969 -0.530897 0)
(-0.0233585 -0.243109 0)
(-0.00782468 0.0792181 0)
(-0.0289092 0.178813 0)
(-0.0528275 0.229933 0)
(-0.0678173 0.249893 0)
(-0.0724293 0.252251 0)
(-0.068429 0.245567 0)
(-0.0577947 0.234849 0)
(-0.0422604 0.222833 0)
(-0.0232276 0.210857 0)
(-0.00178626 0.199405 0)
(0.0211966 0.18845 0)
(0.0449803 0.17764 0)
(0.0688743 0.166419 0)
(0.0921806 0.1541 0)
(0.114153 0.139908 0)
(0.133974 0.123018 0)
(0.150734 0.102572 0)
(0.163437 0.0776916 0)
(0.170994 0.0474488 0)
(0.172214 0.0108368 0)
(0.165839 -0.0333061 0)
(0.15055 -0.086416 0)
(0.125033 -0.150372 0)
(0.0882642 -0.227624 0)
(0.0402935 -0.320743 0)
(-0.0156737 -0.429737 0)
(-0.0694966 -0.543719 0)
(-0.100653 -0.623638 0)
(-0.0867539 -0.581882 0)
(-0.0307574 -0.294889 0)
(-0.0141736 0.100881 0)
(-0.044762 0.207397 0)
(-0.071594 0.249718 0)
(-0.0820167 0.257466 0)
(-0.0775853 0.248937 0)
(-0.062634 0.233852 0)
(-0.0406038 0.217079 0)
(-0.0140001 0.200872 0)
(0.01541 0.186096 0)
(0.0464105 0.172887 0)
(0.0781394 0.160992 0)
(0.109923 0.149947 0)
(0.141166 0.139165 0)
(0.171273 0.127981 0)
(0.199592 0.11569 0)
(0.225383 0.101555 0)
(0.247786 0.0848265 0)
(0.265819 0.0647363 0)
(0.278359 0.0404837 0)
(0.284103 0.0112004 0)
(0.281615 -0.0241602 0)
(0.269267 -0.0668763 0)
(0.245201 -0.118783 0)
(0.207424 -0.18269 0)
(0.154192 -0.262819 0)
(0.085527 -0.363916 0)
(0.00771435 -0.484754 0)
(-0.0592929 -0.59773 0)
(-0.0843999 -0.612891 0)
(-0.0384081 -0.354062 0)
(-0.0253322 0.13713 0)
(-0.0677681 0.2427 0)
(-0.0895923 0.26564 0)
(-0.0846623 0.254625 0)
(-0.0616549 0.232329 0)
(-0.0284609 0.208248 0)
(0.0100885 0.186018 0)
(0.0510627 0.166732 0)
(0.092719 0.150413 0)
(0.134056 0.136666 0)
(0.174489 0.12493 0)
(0.213625 0.114597 0)
(0.25113 0.105041 0)
(0.286638 0.0956371 0)
(0.319696 0.0857625 0)
(0.349721 0.0748013 0)
(0.375983 0.0621412 0)
(0.397584 0.0471703 0)
(0.413443 0.0292648 0)
(0.42221 0.00776397 0)
(0.422399 -0.0181511 0)
(0.412218 -0.0494514 0)
(0.389471 -0.0876554 0)
(0.351539 -0.135302 0)
(0.295323 -0.196981 0)
(0.217776 -0.280496 0)
(0.119757 -0.394371 0)
(0.0149002 -0.529492 0)
(-0.063943 -0.610099 0)
(-0.0415954 -0.419583 0)
(-0.0408819 0.199122 0)
(-0.0893756 0.274997 0)
(-0.079466 0.260237 0)
(-0.0373463 0.225347 0)
(0.0179876 0.190392 0)
(0.0770117 0.16054 0)
(0.135415 0.136499 0)
(0.191271 0.117525 0)
(0.243871 0.102574 0)
(0.293108 0.0906836 0)
(0.339118 0.0810395 0)
(0.382074 0.072951 0)
(0.422087 0.0658203 0)
(0.459144 0.0591154 0)
(0.493072 0.0523508 0)
(0.52352 0.045074 0)
(0.549942 0.0368561 0)
(0.571595 0.0272809 0)
(0.587536 0.0159274 0)
(0.596467 0.00233237 0)
(0.597037 -0.0138242 0)
(0.587452 -0.0332747 0)
(0.565449 -0.0570421 0)
(0.528196 -0.0869151 0)
(0.47188 -0.126571 0)
(0.391229 -0.18394 0)
(0.281134 -0.273992 0)
(0.142923 -0.410614 0)
(-0.00507366 -0.553484 0)
(-0.0258305 -0.476815 0)
(-0.0336757 0.294694 0)
(-0.0465211 0.274258 0)
(0.0559165 0.200789 0)
(0.159119 0.150003 0)
(0.251071 0.114113 0)
(0.331382 0.088261 0)
(0.401174 0.0698943 0)
(0.461879 0.0568435 0)
(0.515041 0.0474091 0)
(0.562063 0.0404194 0)
(0.604069 0.0350808 0)
(0.641893 0.0308302 0)
(0.676098 0.027244 0)
(0.707001 0.0239869 0)
(0.734686 0.020781 0)
(0.759017 0.017386 0)
(0.779647 0.0135888 0)
(0.796022 0.00919678 0)
(0.807359 0.00403166 0)
(0.812819 -0.00207559 0)
(0.811253 -0.00929058 0)
(0.801011 -0.0179398 0)
(0.780323 -0.0284546 0)
(0.746728 -0.0416867 0)
(0.696531 -0.0595879 0)
(0.623639 -0.0871263 0)
(0.517928 -0.137689 0)
(0.364498 -0.240705 0)
(0.143621 -0.407101 0)
(0.0586835 -0.458293 0)
(0.303433 0.181048 0)
(0.383273 0.144682 0)
(0.562285 0.0915701 0)
(0.688617 0.0592351 0)
(0.77126 0.0393412 0)
(0.830221 0.0266012 0)
(0.874975 0.018502 0)
(0.910059 0.0133894 0)
(0.938372 0.0101193 0)
(0.961904 0.00796887 0)
(0.981962 0.006499 0)
(0.999375 0.00543725 0)
(1.01465 0.00460658 0)
(1.02806 0.00388593 0)
(1.03971 0.00318773 0)
(1.04954 0.00244503 0)
(1.05738 0.00160419 0)
(1.06293 0.000624343 0)
(1.06583 -0.000523918 0)
(1.06559 -0.00179913 0)
(1.06159 -0.00337772 0)
(1.05316 -0.00526935 0)
(1.03944 -0.00753318 0)
(1.01918 -0.0103565 0)
(0.99032 -0.0142148 0)
(0.948774 -0.0204257 0)
(0.884846 -0.0328528 0)
(0.776767 -0.0639748 0)
(0.544921 -0.139587 0)
(0.382488 -0.201788 0)
)
;

boundaryField
{
    movingWall
    {
        type            fixedValue;
        value           uniform (1.2 0 0);
    }
    fixedWalls
    {
        type            noSlip;
    }
    frontAndBack
    {
        type            empty;
    }
}


// ************************************************************************* //
