/*--------------------------------*- C++ -*----------------------------------*\
  =========                 |
  \\      /  F ield         | OpenFOAM: The Open Source CFD Toolbox
   \\    /   O peration     | Website:  https://openfoam.org
    \\  /    A nd           | Version:  7
     \\/     M anipulation  |
\*---------------------------------------------------------------------------*/
FoamFile
{
    version     2.0;
    format      ascii;
    class       volVectorField;
    location    "8.7";
    object      U;
}
// * * * * * * * * * * * * * * * * * * * * * * * * * * * * * * * * * * * * * //

dimensions      [0 1 -1 0 0 0 0];

internalField   nonuniform List<vector> 
900
(
(0.000163254 -0.000162054 0)
(0.00028919 -6.96927e-05 0)
(-3.33263e-05 9.83393e-05 0)
(-0.000812781 0.000246259 0)
(-0.00195713 0.000353251 0)
(-0.0033619 0.000422038 0)
(-0.00493281 0.000461948 0)
(-0.00659259 0.000481142 0)
(-0.00827743 0.000484195 0)
(-0.00992951 0.000472197 0)
(-0.0114904 0.000443717 0)
(-0.0128972 0.000396035 0)
(-0.0140812 0.00032639 0)
(-0.0149708 0.00023318 0)
(-0.0154963 0.000117025 0)
(-0.0155977 -1.84967e-05 0)
(-0.015233 -0.000166834 0)
(-0.0143876 -0.000317423 0)
(-0.0130818 -0.000457258 0)
(-0.0113762 -0.000572008 0)
(-0.00937099 -0.000647842 0)
(-0.0072018 -0.000673604 0)
(-0.00502823 -0.000642857 0)
(-0.0030183 -0.000555377 0)
(-0.00132892 -0.000417933 0)
(-8.63286e-05 -0.000245004 0)
(0.000629469 -5.81594e-05 0)
(0.000807349 0.000116458 0)
(0.000554055 0.000222393 0)
(0.000171187 0.000170053 0)
(7.82138e-05 -0.000296424 0)
(-0.00030107 0.000298614 0)
(-0.00173307 0.00113481 0)
(-0.00413111 0.00188721 0)
(-0.00733053 0.00246572 0)
(-0.0111288 0.00286322 0)
(-0.015321 0.00310254 0)
(-0.0197201 0.00320894 0)
(-0.0241569 0.0031982 0)
(-0.0284707 0.00307458 0)
(-0.0324998 0.00283356 0)
(-0.036077 0.00246669 0)
(-0.03903 0.00196728 0)
(-0.041188 0.00133576 0)
(-0.0423942 0.000584236 0)
(-0.0425218 -0.000260423 0)
(-0.0414915 -0.00115483 0)
(-0.0392888 -0.0020407 0)
(-0.0359795 -0.00284876 0)
(-0.031716 -0.00350538 0)
(-0.0267363 -0.00394159 0)
(-0.0213515 -0.00410325 0)
(-0.0159227 -0.0039607 0)
(-0.0108272 -0.00351627 0)
(-0.0064177 -0.00280831 0)
(-0.00297819 -0.00191281 0)
(-0.000679457 -0.000942729 0)
(0.00044866 -4.80917e-05 0)
(0.000593202 0.000557845 0)
(0.000230423 0.000551477 0)
(-0.000106098 3.11869e-05 0)
(-0.00124292 0.00175308 0)
(-0.00403312 0.00379872 0)
(-0.00815146 0.00562558 0)
(-0.0133418 0.00705565 0)
(-0.0193366 0.00805777 0)
(-0.0258567 0.00866196 0)
(-0.0326368 0.00890968 0)
(-0.0394272 0.00882867 0)
(-0.0459852 0.00842659 0)
(-0.0520663 0.00769565 0)
(-0.0574213 0.00662287 0)
(-0.0617998 0.0052024 0)
(-0.0649607 0.00344747 0)
(-0.0666893 0.00140008 0)
(-0.0668175 -0.000862635 0)
(-0.0652463 -0.00322595 0)
(-0.061968 -0.00554296 0)
(-0.0570823 -0.0076434 0)
(-0.0508049 -0.00934949 0)
(-0.0434651 -0.0104966 0)
(-0.035491 -0.0109564 0)
(-0.027379 -0.0106591 0)
(-0.0196516 -0.00961177 0)
(-0.0128028 -0.00790865 0)
(-0.00723942 -0.00573391 0)
(-0.00322171 -0.00335982 0)
(-0.000815179 -0.00114627 0)
(0.000162116 0.000462074 0)
(0.000166819 0.000856056 0)
(-0.000301556 0.000912158 0)
(-0.00225908 0.00439441 0)
(-0.00650225 0.00804981 0)
(-0.0123885 0.0112287 0)
(-0.019536 0.0137037 0)
(-0.0276112 0.015434 0)
(-0.0362749 0.0164602 0)
(-0.0452032 0.0168386 0)
(-0.0540874 0.0166064 0)
(-0.0626231 0.0157729 0)
(-0.0705036 0.014327 0)
(-0.0774182 0.0122539 0)
(-0.083058 0.00955459 0)
(-0.08713 0.00626441 0)
(-0.0893761 0.00246842 0)
(-0.0895959 -0.00168957 0)
(-0.0876719 -0.00600586 0)
(-0.0835925 -0.0102233 0)
(-0.0774712 -0.0140478 0)
(-0.0695571 -0.0171741 0)
(-0.060235 -0.0193189 0)
(-0.0500111 -0.020259 0)
(-0.0394826 -0.019869 0)
(-0.0292892 -0.0181537 0)
(-0.0200514 -0.0152679 0)
(-0.0122987 -0.0115221 0)
(-0.00639765 -0.00737623 0)
(-0.00248648 -0.00342509 0)
(-0.000444547 -0.000381077 0)
(7.01789e-05 0.000871844 0)
(-0.000486317 0.00234529 0)
(-0.00325647 0.00825102 0)
(-0.00895537 0.0139046 0)
(-0.0165938 0.0186619 0)
(-0.0256447 0.0223096 0)
(-0.0357028 0.0248296 0)
(-0.0463742 0.026287 0)
(-0.0572893 0.0267564 0)
(-0.0680967 0.0262838 0)
(-0.078449 0.0248786 0)
(-0.0879951 0.0225264 0)
(-0.0963798 0.019212 0)
(-0.103251 0.0149469 0)
(-0.108274 0.0097941 0)
(-0.111154 0.00388847 0)
(-0.111655 -0.00255194 0)
(-0.10963 -0.00922465 0)
(-0.105045 -0.015751 0)
(-0.0979993 -0.0216992 0)
(-0.0887451 -0.0266183 0)
(-0.0776904 -0.0300849 0)
(-0.0653921 -0.0317564 0)
(-0.0525289 -0.0314284 0)
(-0.0398524 -0.0290842 0)
(-0.0281176 -0.0249295 0)
(-0.0179996 -0.0194042 0)
(-0.0100038 -0.0131699 0)
(-0.00438167 -0.00707719 0)
(-0.00111445 -0.00212087 0)
(-2.59789e-05 0.00054187 0)
(-0.000655203 0.00430315 0)
(-0.0041961 0.0132933 0)
(-0.0112939 0.0213358 0)
(-0.020616 0.0278874 0)
(-0.0314848 0.0328146 0)
(-0.0434215 0.0361632 0)
(-0.0559819 0.0380441 0)
(-0.0687605 0.0385593 0)
(-0.0813766 0.0377659 0)
(-0.0934554 0.0356735 0)
(-0.104617 0.032263 0)
(-0.114476 0.0275186 0)
(-0.122647 0.0214619 0)
(-0.128763 0.0141836 0)
(-0.132486 0.00586804 0)
(-0.13354 -0.00319259 0)
(-0.131731 -0.0125955 0)
(-0.126975 -0.0218358 0)
(-0.119328 -0.0303338 0)
(-0.109009 -0.0374755 0)
(-0.096419 -0.0426704 0)
(-0.0821396 -0.0454236 0)
(-0.0669194 -0.0454141 0)
(-0.0516257 -0.0425695 0)
(-0.0371707 -0.0371224 0)
(-0.024413 -0.0296335 0)
(-0.0140436 -0.0209762 0)
(-0.00647378 -0.0122805 0)
(-0.00182505 -0.00485092 0)
(-0.000115642 -0.000142138 0)
(-0.000807544 0.0067468 0)
(-0.00505813 0.0194499 0)
(-0.013456 0.0302579 0)
(-0.0243485 0.0388096 0)
(-0.0369148 0.0451141 0)
(-0.0506057 0.0493237 0)
(-0.0649324 0.0516205 0)
(-0.0794627 0.0521472 0)
(-0.0937988 0.0509769 0)
(-0.107551 0.0481199 0)
(-0.120326 0.0435512 0)
(-0.131719 0.037251 0)
(-0.141322 0.0292467 0)
(-0.148733 0.0196502 0)
(-0.153577 0.00868722 0)
(-0.15552 -0.00328378 0)
(-0.154302 -0.0157664 0)
(-0.149762 -0.0281319 0)
(-0.141879 -0.0396463 0)
(-0.130802 -0.0495148 0)
(-0.116887 -0.0569489 0)
(-0.100714 -0.0612564 0)
(-0.0830829 -0.0619465 0)
(-0.0649827 -0.0588375 0)
(-0.0475098 -0.0521456 0)
(-0.031754 -0.0425314 0)
(-0.018652 -0.0310858 0)
(-0.00883279 -0.0192501 0)
(-0.00260276 -0.00868527 0)
(-0.000203964 -0.00119686 0)
(-0.000942255 0.00962941 0)
(-0.00582617 0.0266215 0)
(-0.0153914 0.0405454 0)
(-0.0277018 0.0512916 0)
(-0.0418081 0.0590683 0)
(-0.0570989 0.0641755 0)
(-0.073049 0.0668935 0)
(-0.0892084 0.0674199 0)
(-0.105173 0.0658514 0)
(-0.120552 0.0622002 0)
(-0.134947 0.0564332 0)
(-0.147949 0.0485212 0)
(-0.159133 0.0384883 0)
(-0.16807 0.0264554 0)
(-0.174338 0.0126747 0)
(-0.177541 -0.00244573 0)
(-0.177334 -0.0183288 0)
(-0.173454 -0.0342335 0)
(-0.165766 -0.0492711 0)
(-0.154313 -0.0624502 0)
(-0.139359 -0.0727501 0)
(-0.121442 -0.0792269 0)
(-0.10139 -0.0811495 0)
(-0.0803045 -0.0781495 0)
(-0.0594884 -0.0703587 0)
(-0.040315 -0.0584962 0)
(-0.0240395 -0.0438695 0)
(-0.0115833 -0.0282709 0)
(-0.00349911 -0.0137876 0)
(-0.000301071 -0.00266279 0)
(-0.00105668 0.0128958 0)
(-0.00648163 0.0346847 0)
(-0.0170501 0.0520389 0)
(-0.030588 0.0651596 0)
(-0.046038 0.0745031 0)
(-0.0627375 0.0805545 0)
(-0.0801339 0.0837174 0)
(-0.0977688 0.0842606 0)
(-0.115242 0.082312 0)
(-0.132171 0.0778883 0)
(-0.148168 0.0709455 0)
(-0.162825 0.0614378 0)
(-0.175714 0.0493739 0)
(-0.186382 0.034867 0)
(-0.194366 0.0181746 0)
(-0.199199 -0.00026915 0)
(-0.200441 -0.0198299 0)
(-0.197709 -0.0396726 0)
(-0.190725 -0.0587618 0)
(-0.179378 -0.0759011 0)
(-0.163797 -0.0898056 0)
(-0.144421 -0.0992204 0)
(-0.122058 -0.103087 0)
(-0.0978926 -0.100748 0)
(-0.0734418 -0.0921472 0)
(-0.0504086 -0.077991 0)
(-0.0304501 -0.0597846 0)
(-0.0148773 -0.0397156 0)
(-0.0045776 -0.0203908 0)
(-0.000418994 -0.00461257 0)
(-0.00114697 0.0164801 0)
(-0.00700355 0.0434907 0)
(-0.0183803 0.0645447 0)
(-0.0329178 0.0802014 0)
(-0.0494743 0.0912047 0)
(-0.0673478 0.0982562 0)
(-0.0859676 0.101906 0)
(-0.104875 0.102511 0)
(-0.123683 0.100239 0)
(-0.142027 0.0951127 0)
(-0.159539 0.0870766 0)
(-0.175829 0.0760599 0)
(-0.190471 0.0620423 0)
(-0.203004 0.0451096 0)
(-0.212928 0.0255001 0)
(-0.219712 0.00364502 0)
(-0.222823 -0.0197989 0)
(-0.221745 -0.043927 0)
(-0.216035 -0.0675785 0)
(-0.205395 -0.0893566 0)
(-0.18976 -0.107691 0)
(-0.169405 -0.12096 0)
(-0.14504 -0.127682 0)
(-0.117875 -0.126778 0)
(-0.0896128 -0.117863 0)
(-0.0623159 -0.101508 0)
(-0.0381295 -0.0793636 0)
(-0.018877 -0.0540489 0)
(-0.00590746 -0.028806 0)
(-0.000570619 -0.00715505 0)
(-0.00120884 0.0203049 0)
(-0.0073707 0.0528654 0)
(-0.0193313 0.0778358 0)
(-0.0346046 0.0961657 0)
(-0.0519884 0.108915 0)
(-0.0707535 0.117028 0)
(-0.0903189 0.121221 0)
(-0.110232 0.121953 0)
(-0.130126 0.119441 0)
(-0.149663 0.113723 0)
(-0.168506 0.104727 0)
(-0.186292 0.0923507 0)
(-0.202617 0.0765326 0)
(-0.217021 0.0573109 0)
(-0.228988 0.0348785 0)
(-0.237943 0.00963069 0)
(-0.243266 -0.01779 0)
(-0.244319 -0.0464489 0)
(-0.240487 -0.0750964 0)
(-0.231257 -0.10216 0)
(-0.216319 -0.125784 0)
(-0.195701 -0.143939 0)
(-0.169919 -0.154628 0)
(-0.140104 -0.156197 0)
(-0.10807 -0.147741 0)
(-0.0762308 -0.12951 0)
(-0.0472945 -0.103184 0)
(-0.0237423 -0.0718195 0)
(-0.00756056 -0.0394244 0)
(-0.000769665 -0.0104371 0)
(-0.00123848 0.0242813 0)
(-0.00756483 0.0626114 0)
(-0.01986 0.0916537 0)
(-0.0355729 0.112763 0)
(-0.0534654 0.127331 0)
(-0.0727905 0.136562 0)
(-0.0929631 0.141356 0)
(-0.113542 0.142288 0)
(-0.134182 0.139639 0)
(-0.154583 0.133462 0)
(-0.174447 0.123674 0)
(-0.19345 0.110138 0)
(-0.211225 0.0927383 0)
(-0.227338 0.0714508 0)
(-0.241281 0.0463975 0)
(-0.252462 0.0179055 0)
(-0.260206 -0.0134359 0)
(-0.263775 -0.0467133 0)
(-0.262398 -0.0806417 0)
(-0.255338 -0.113523 0)
(-0.242002 -0.143246 0)
(-0.222091 -0.167369 0)
(-0.195804 -0.183303 0)
(-0.16405 -0.188666 0)
(-0.128618 -0.181794 0)
(-0.092197 -0.162346 0)
(-0.0580992 -0.131815 0)
(-0.0296185 -0.0936376 0)
(-0.00960953 -0.0527129 0)
(-0.00103108 -0.0146446 0)
(-0.00123343 0.0283116 0)
(-0.00757449 0.0725132 0)
(-0.0199384 0.105715 0)
(-0.0357708 0.12967 0)
(-0.0538199 0.146107 0)
(-0.0733281 0.156496 0)
(-0.0937096 0.161938 0)
(-0.114536 0.163136 0)
(-0.135489 0.160445 0)
(-0.156308 0.153947 0)
(-0.176742 0.14355 0)
(-0.196521 0.129082 0)
(-0.215332 0.110372 0)
(-0.232792 0.0873185 0)
(-0.248432 0.0599557 0)
(-0.261683 0.0285141 0)
(-0.271859 -0.00651111 0)
(-0.278166 -0.0442861 0)
(-0.279716 -0.0835559 0)
(-0.275568 -0.122574 0)
(-0.264827 -0.159049 0)
(-0.246808 -0.190163 0)
(-0.221267 -0.212712 0)
(-0.18871 -0.223449 0)
(-0.150698 -0.219687 0)
(-0.110033 -0.200133 0)
(-0.0705921 -0.165738 0)
(-0.0366202 -0.120135 0)
(-0.0121256 -0.0692033 0)
(-0.00137156 -0.0200027 0)
(-0.00119353 0.032294 0)
(-0.0073992 0.0823468 0)
(-0.0195629 0.119721 0)
(-0.035184 0.146542 0)
(-0.0530155 0.16486 0)
(-0.0722934 0.176419 0)
(-0.0924327 0.182526 0)
(-0.113018 0.184029 0)
(-0.133759 0.181368 0)
(-0.154437 0.174666 0)
(-0.174855 0.163834 0)
(-0.19481 0.14867 0)
(-0.21406 0.128948 0)
(-0.232298 0.104488 0)
(-0.249131 0.0752245 0)
(-0.264055 0.0412723 0)
(-0.276431 0.00299562 0)
(-0.285471 -0.0389055 0)
(-0.290224 -0.0832845 0)
(-0.289601 -0.12845 0)
(-0.28243 -0.172044 0)
(-0.267606 -0.210975 0)
(-0.244346 -0.241466 0)
(-0.212558 -0.259333 0)
(-0.173311 -0.260613 0)
(-0.129253 -0.242617 0)
(-0.0846638 -0.205233 0)
(-0.0448103 -0.151906 0)
(-0.0151748 -0.0894715 0)
(-0.00181004 -0.0267752 0)
(-0.00112175 0.0361302 0)
(-0.00705361 0.0918938 0)
(-0.0187637 0.133375 0)
(-0.0338507 0.163022 0)
(-0.0510848 0.183188 0)
(-0.0696976 0.195881 0)
(-0.0891048 0.202623 0)
(-0.108904 0.204421 0)
(-0.128833 0.201818 0)
(-0.148717 0.194991 0)
(-0.168421 0.183866 0)
(-0.187817 0.168224 0)
(-0.20675 0.147793 0)
(-0.225015 0.12232 0)
(-0.242326 0.0916412 0)
(-0.258292 0.0557447 0)
(-0.272376 0.0148388 0)
(-0.283862 -0.0305547 0)
(-0.291824 -0.079479 0)
(-0.295101 -0.130417 0)
(-0.292311 -0.181091 0)
(-0.281956 -0.228305 0)
(-0.262659 -0.267843 0)
(-0.23357 -0.294612 0)
(-0.194975 -0.303192 0)
(-0.148992 -0.289028 0)
(-0.0999865 -0.250239 0)
(-0.0541711 -0.189413 0)
(-0.018813 -0.114106 0)
(-0.00236802 -0.0352619 0)
(-0.00102494 0.0397342 0)
(-0.00657156 0.10096 0)
(-0.017614 0.146402 0)
(-0.0318757 0.178768 0)
(-0.0481487 0.20068 0)
(-0.0656597 0.214408 0)
(-0.0838255 0.221694 0)
(-0.102258 0.223716 0)
(-0.120725 0.221136 0)
(-0.139101 0.214204 0)
(-0.157317 0.202878 0)
(-0.175328 0.186939 0)
(-0.193082 0.166082 0)
(-0.210492 0.139999 0)
(-0.22741 0.108436 0)
(-0.243591 0.0712579 0)
(-0.258653 0.0285074 0)
(-0.272017 -0.0195074 0)
(-0.28287 -0.0720858 0)
(-0.290087 -0.127999 0)
(-0.292178 -0.185224 0)
(-0.287344 -0.240672 0)
(-0.273639 -0.28993 0)
(-0.249364 -0.327159 0)
(-0.21376 -0.345441 0)
(-0.167975 -0.337951 0)
(-0.115957 -0.300195 0)
(-0.0645717 -0.23288 0)
(-0.0230786 -0.143661 0)
(-0.00307012 -0.0457936 0)
(-0.000914647 0.0430438 0)
(-0.00601017 0.109398 0)
(-0.0162392 0.158576 0)
(-0.0294446 0.193471 0)
(-0.0444334 0.216948 0)
(-0.0604256 0.231528 0)
(-0.076843 0.239186 0)
(-0.0933176 0.241284 0)
(-0.109656 0.238621 0)
(-0.125785 0.231538 0)
(-0.14171 0.220045 0)
(-0.157479 0.203939 0)
(-0.17315 0.182907 0)
(-0.188768 0.156599 0)
(-0.204337 0.124694 0)
(-0.219786 0.0869482 0)
(-0.234923 0.0432486 0)
(-0.249356 -0.00632202 0)
(-0.262469 -0.0614031 0)
(-0.273278 -0.121105 0)
(-0.280321 -0.183826 0)
(-0.281649 -0.246842 0)
(-0.274869 -0.305856 0)
(-0.257452 -0.354607 0)
(-0.227423 -0.384853 0)
(-0.184532 -0.387268 0)
(-0.131661 -0.353889 0)
(-0.0757351 -0.282143 0)
(-0.0279864 -0.178592 0)
(-0.00394523 -0.0587242 0)
(-0.000808203 0.0460349 0)
(-0.00545514 0.117138 0)
(-0.0148276 0.169752 0)
(-0.0268367 0.206889 0)
(-0.0402837 0.231642 0)
(-0.0543805 0.246792 0)
(-0.0685644 0.254554 0)
(-0.0825023 0.256496 0)
(-0.0960525 0.253569 0)
(-0.10921 0.246223 0)
(-0.122064 0.234537 0)
(-0.134759 0.218345 0)
(-0.147472 0.197341 0)
(-0.160384 0.171162 0)
(-0.173655 0.139437 0)
(-0.18739 0.101835 0)
(-0.201603 0.0581043 0)
(-0.216164 0.00810811 0)
(-0.230665 -0.0481069 0)
(-0.244329 -0.110086 0)
(-0.255911 -0.176773 0)
(-0.263492 -0.24604 0)
(-0.264442 -0.314067 0)
(-0.255561 -0.374634 0)
(-0.233642 -0.418595 0)
(-0.19671 -0.434206 0)
(-0.145872 -0.409349 0)
(-0.0872123 -0.336502 0)
(-0.0335252 -0.21918 0)
(-0.0050299 -0.074423 0)
(-0.000731053 0.0487383 0)
(-0.00502936 0.124216 0)
(-0.0136447 0.179895 0)
(-0.0244407 0.218869 0)
(-0.0361745 0.244477 0)
(-0.0480533 0.259786 0)
(-0.0595518 0.267279 0)
(-0.0704004 0.268744 0)
(-0.0805348 0.265302 0)
(-0.0900383 0.257525 0)
(-0.099096 0.245572 0)
(-0.107961 0.229332 0)
(-0.116929 0.208524 0)
(-0.126313 0.182784 0)
(-0.136423 0.15172 0)
(-0.147541 0.114936 0)
(-0.159875 0.0720617 0)
(-0.173519 0.0227727 0)
(-0.188336 -0.0331454 0)
(-0.203854 -0.0957185 0)
(-0.219118 -0.164496 0)
(-0.232447 -0.23812 0)
(-0.241249 -0.313596 0)
(-0.241944 -0.38529 0)
(-0.230282 -0.443819 0)
(-0.202439 -0.475511 0)
(-0.157098 -0.463816 0)
(-0.0983698 -0.394574 0)
(-0.0396636 -0.265435 0)
(-0.00637645 -0.0932706 0)
(-0.000722162 0.0512643 0)
(-0.00490951 0.130821 0)
(-0.0130569 0.189124 0)
(-0.0227746 0.229376 0)
(-0.0327198 0.255242 0)
(-0.0421114 0.270145 0)
(-0.0505031 0.276874 0)
(-0.0577351 0.277455 0)
(-0.0638612 0.273188 0)
(-0.0690819 0.26477 0)
(-0.0736971 0.252452 0)
(-0.0780747 0.236178 0)
(-0.0826268 0.215704 0)
(-0.0877907 0.190681 0)
(-0.0940132 0.16071 0)
(-0.101723 0.125351 0)
(-0.111304 0.0841568 0)
(-0.123049 0.0366515 0)
(-0.137085 -0.0176341 0)
(-0.153261 -0.0791152 0)
(-0.170996 -0.147945 0)
(-0.189021 -0.22362 0)
(-0.205069 -0.304239 0)
(-0.215574 -0.385296 0)
(-0.215631 -0.458019 0)
(-0.199714 -0.507738 0)
(-0.163666 -0.513831 0)
(-0.108388 -0.454167 0)
(-0.0463648 -0.316995 0)
(-0.00806947 -0.115669 0)
(-0.000846316 0.0538416 0)
(-0.00535852 0.137353 0)
(-0.0135707 0.197748 0)
(-0.0225134 0.2385 0)
(-0.0306784 0.2638 0)
(-0.0373409 0.277539 0)
(-0.0422071 0.282872 0)
(-0.0452984 0.28208 0)
(-0.0468429 0.276636 0)
(-0.0471956 0.267355 0)
(-0.046792 0.254569 0)
(-0.0461205 0.238275 0)
(-0.0457043 0.218264 0)
(-0.0460859 0.194207 0)
(-0.0478283 0.165712 0)
(-0.0514786 0.132304 0)
(-0.0575536 0.0934912 0)
(-0.0665181 0.048686 0)
(-0.0787161 -0.00276971 0)
(-0.0943019 -0.0615958 0)
(-0.1131 -0.128464 0)
(-0.134365 -0.203694 0)
(-0.156411 -0.286599 0)
(-0.176118 -0.374237 0)
(-0.188476 -0.45935 0)
(-0.186718 -0.527589 0)
(-0.16378 -0.555405 0)
(-0.116247 -0.512202 0)
(-0.0536021 -0.372992 0)
(-0.0102545 -0.142075 0)
(-0.00122054 0.0568855 0)
(-0.00678638 0.144491 0)
(-0.0158946 0.206293 0)
(-0.0245194 0.246453 0)
(-0.0309383 0.270046 0)
(-0.0345877 0.281632 0)
(-0.0354481 0.284793 0)
(-0.0338233 0.282067 0)
(-0.0301873 0.275075 0)
(-0.0250921 0.264721 0)
(-0.0191275 0.251389 0)
(-0.0129047 0.235112 0)
(-0.00704596 0.215707 0)
(-0.00217105 0.192857 0)
(0.00105972 0.16616 0)
(0.00201664 0.135149 0)
(9.51151e-05 0.0992838 0)
(-0.00530584 0.0579236 0)
(-0.0146956 0.0102938 0)
(-0.0284881 -0.0445354 0)
(-0.0468995 -0.107615 0)
(-0.0697483 -0.179939 0)
(-0.0961022 -0.26198 0)
(-0.123676 -0.352593 0)
(-0.147995 -0.446836 0)
(-0.161801 -0.532223 0)
(-0.155508 -0.584253 0)
(-0.120661 -0.564665 0)
(-0.0613424 -0.431879 0)
(-0.0131767 -0.173069 0)
(-0.00206766 0.0611263 0)
(-0.00985575 0.153306 0)
(-0.0210165 0.215512 0)
(-0.0298413 0.253493 0)
(-0.0344269 0.273822 0)
(-0.0345894 0.281988 0)
(-0.0307747 0.282058 0)
(-0.0237035 0.276793 0)
(-0.0141765 0.267898 0)
(-0.00298215 0.256303 0)
(0.00912298 0.242396 0)
(0.0214136 0.226215 0)
(0.0331871 0.207578 0)
(0.0437542 0.186167 0)
(0.0524179 0.161566 0)
(0.0584951 0.133322 0)
(0.0613131 0.100865 0)
(0.0601959 0.0635363 0)
(0.0544932 0.0205139 0)
(0.0435791 -0.029235 0)
(0.0269034 -0.0869735 0)
(0.00411125 -0.154148 0)
(-0.024681 -0.232159 0)
(-0.0583047 -0.321615 0)
(-0.0934279 -0.420413 0)
(-0.123264 -0.519464 0)
(-0.136621 -0.596005 0)
(-0.119891 -0.60656 0)
(-0.0694185 -0.491144 0)
(-0.0172056 -0.209422 0)
(-0.00381826 0.0678484 0)
(-0.0156433 0.165368 0)
(-0.0302445 0.226297 0)
(-0.0395614 0.259745 0)
(-0.0417746 0.274708 0)
(-0.037493 0.277892 0)
(-0.0279095 0.273844 0)
(-0.0143219 0.265439 0)
(0.00206423 0.25435 0)
(0.0201963 0.241432 0)
(0.0391573 0.227005 0)
(0.0581285 0.211062 0)
(0.0763541 0.193389 0)
(0.0931125 0.173652 0)
(0.107695 0.151436 0)
(0.119398 0.126273 0)
(0.127513 0.0976052 0)
(0.131313 0.0647762 0)
(0.130045 0.0269732 0)
(0.122911 -0.0168334 0)
(0.109088 -0.0679591 0)
(0.08776 -0.128048 0)
(0.0582789 -0.199085 0)
(0.0205877 -0.283099 0)
(-0.0235814 -0.380839 0)
(-0.0689786 -0.487935 0)
(-0.104244 -0.586392 0)
(-0.111349 -0.631826 0)
(-0.0771479 -0.546795 0)
(-0.0227604 -0.252034 0)
(-0.00728495 0.0793246 0)
(-0.0258231 0.182801 0)
(-0.0449994 0.239351 0)
(-0.0541207 0.264745 0)
(-0.0522626 0.271593 0)
(-0.0415379 0.267991 0)
(-0.0242576 0.258797 0)
(-0.00245599 0.246774 0)
(0.0222098 0.233363 0)
(0.0484346 0.219205 0)
(0.0751771 0.20446 0)
(0.10157 0.18901 0)
(0.126849 0.172581 0)
(0.150307 0.154806 0)
(0.171254 0.135263 0)
(0.188999 0.113485 0)
(0.202827 0.08894 0)
(0.21198 0.0610112 0)
(0.215628 0.0289482 0)
(0.212839 -0.00819497 0)
(0.202573 -0.0516528 0)
(0.183652 -0.103032 0)
(0.154794 -0.16452 0)
(0.114876 -0.23901 0)
(0.06375 -0.329647 0)
(0.00415427 -0.437262 0)
(-0.0542267 -0.551536 0)
(-0.0908207 -0.633227 0)
(-0.0824674 -0.592526 0)
(-0.0299329 -0.301589 0)
(-0.0138714 0.0995057 0)
(-0.0426054 0.207924 0)
(-0.0656252 0.254256 0)
(-0.0710521 0.266462 0)
(-0.0608631 0.261868 0)
(-0.0397324 0.249701 0)
(-0.0114526 0.234637 0)
(0.0211472 0.218905 0)
(0.0560254 0.203427 0)
(0.0917325 0.188445 0)
(0.127212 0.173854 0)
(0.161646 0.15937 0)
(0.194345 0.144627 0)
(0.224681 0.129218 0)
(0.252037 0.112717 0)
(0.275775 0.0946767 0)
(0.295209 0.0746136 0)
(0.309582 0.0519847 0)
(0.318023 0.0261489 0)
(0.319498 -0.0036936 0)
(0.312826 -0.0385781 0)
(0.296573 -0.0799106 0)
(0.269001 -0.129731 0)
(0.228149 -0.191149 0)
(0.17219 -0.268821 0)
(0.100851 -0.368161 0)
(0.0198758 -0.488519 0)
(-0.0510173 -0.602455 0)
(-0.0804164 -0.618867 0)
(-0.0374989 -0.358426 0)
(-0.0254053 0.134995 0)
(-0.0670918 0.240976 0)
(-0.0866297 0.266563 0)
(-0.0782347 0.258888 0)
(-0.0508188 0.239774 0)
(-0.0125596 0.218243 0)
(0.0313799 0.197707 0)
(0.0777513 0.179189 0)
(0.124525 0.16273 0)
(0.170444 0.147997 0)
(0.214699 0.134535 0)
(0.256717 0.121869 0)
(0.296029 0.109541 0)
(0.332192 0.097117 0)
(0.364741 0.0841862 0)
(0.393156 0.070349 0)
(0.416835 0.0551992 0)
(0.435071 0.0383006 0)
(0.44701 0.0191561 0)
(0.451596 -0.00284655 0)
(0.447592 -0.0284275 0)
(0.433416 -0.058697 0)
(0.407087 -0.0953044 0)
(0.366123 -0.140985 0)
(0.307451 -0.200625 0)
(0.227892 -0.282476 0)
(0.127956 -0.395575 0)
(0.0207883 -0.53102 0)
(-0.060929 -0.612606 0)
(-0.0408384 -0.421848 0)
(-0.0413162 0.197167 0)
(-0.0902465 0.272574 0)
(-0.0798354 0.259242 0)
(-0.0361497 0.22645 0)
(0.0218638 0.193705 0)
(0.0844745 0.165762 0)
(0.147086 0.1431 0)
(0.207477 0.124888 0)
(0.26464 0.110077 0)
(0.318186 0.0977397 0)
(0.367991 0.0871327 0)
(0.414005 0.0776586 0)
(0.456162 0.0688326 0)
(0.494329 0.0602522 0)
(0.528281 0.0515719 0)
(0.557685 0.0424832 0)
(0.582086 0.0326943 0)
(0.600896 0.0219107 0)
(0.613344 0.00980835 0)
(0.618518 -0.00401939 0)
(0.615236 -0.0199629 0)
(0.601909 -0.0387372 0)
(0.576572 -0.0614375 0)
(0.53658 -0.0899928 0)
(0.478216 -0.128271 0)
(0.39618 -0.184461 0)
(0.285156 -0.27385 0)
(0.14603 -0.410558 0)
(-0.00335978 -0.554028 0)
(-0.0253778 -0.477533 0)
(-0.0341566 0.29368 0)
(-0.0479754 0.272506 0)
(0.0536345 0.199472 0)
(0.156714 0.149682 0)
(0.249723 0.114945 0)
(0.332101 0.0901341 0)
(0.404754 0.0725482 0)
(0.468848 0.0599556 0)
(0.525633 0.0506509 0)
(0.576224 0.0434876 0)
(0.62148 0.0377152 0)
(0.662003 0.0328241 0)
(0.698176 0.0284524 0)
(0.73019 0.0243318 0)
(0.758068 0.0202544 0)
(0.78168 0.0160499 0)
(0.800755 0.011569 0)
(0.814886 0.00667424 0)
(0.82345 0.00122161 0)
(0.825841 -0.00485123 0)
(0.821107 -0.0118774 0)
(0.807954 -0.0201293 0)
(0.784769 -0.030072 0)
(0.749244 -0.0426382 0)
(0.697781 -0.0598777 0)
(0.624281 -0.0868777 0)
(0.518476 -0.137164 0)
(0.365142 -0.240264 0)
(0.144136 -0.40697 0)
(0.05887 -0.458304 0)
(0.3032 0.180893 0)
(0.382379 0.14421 0)
(0.560535 0.0910548 0)
(0.686267 0.0589366 0)
(0.768994 0.0393413 0)
(0.82873 0.0268867 0)
(0.874813 0.0190068 0)
(0.911589 0.0140233 0)
(0.941753 0.0107898 0)
(0.967104 0.00859317 0)
(0.98878 0.00700991 0)
(1.00748 0.00578537 0)
(1.02361 0.0047612 0)
(1.03739 0.0038352 0)
(1.0489 0.00293827 0)
(1.05812 0.00202069 0)
(1.06492 0.00104251 0)
(1.06914 -2.64088e-05 0)
(1.07052 -0.00122564 0)
(1.0687 -0.00246041 0)
(1.06317 -0.00392841 0)
(1.05345 -0.0056676 0)
(1.03876 -0.00775351 0)
(1.01791 -0.0103939 0)
(0.988858 -0.0140883 0)
(0.947471 -0.0201813 0)
(0.883945 -0.0325661 0)
(0.776336 -0.0637443 0)
(0.544818 -0.139461 0)
(0.38249 -0.201735 0)
)
;

boundaryField
{
    movingWall
    {
        type            fixedValue;
        value           uniform (1.2 0 0);
    }
    fixedWalls
    {
        type            noSlip;
    }
    frontAndBack
    {
        type            empty;
    }
}


// ************************************************************************* //
