/*--------------------------------*- C++ -*----------------------------------*\
  =========                 |
  \\      /  F ield         | OpenFOAM: The Open Source CFD Toolbox
   \\    /   O peration     | Website:  https://openfoam.org
    \\  /    A nd           | Version:  7
     \\/     M anipulation  |
\*---------------------------------------------------------------------------*/
FoamFile
{
    version     2.0;
    format      ascii;
    class       volScalarField;
    location    "4.7";
    object      p;
}
// * * * * * * * * * * * * * * * * * * * * * * * * * * * * * * * * * * * * * //

dimensions      [0 2 -2 0 0 0 0];

internalField   nonuniform List<scalar> 
900
(
1.58719e-08
-0.000302931
-0.000775531
-0.00125034
-0.00164658
-0.00190916
-0.00201139
-0.00194237
-0.00169768
-0.00127531
-0.000674986
0.000100429
0.00104225
0.00213284
0.00334283
0.00462929
0.00593584
0.00719466
0.00833146
0.00927259
0.00995392
0.0103303
0.0103841
0.0101306
0.00962142
0.00894184
0.00818235
0.00750356
0.00702694
0.00687671
0.000299971
-1.20843e-05
-0.000364759
-0.000705336
-0.000981271
-0.00115323
-0.00119989
-0.00111027
-0.00087819
-0.000500124
2.51066e-05
0.000695269
0.00150276
0.00243231
0.0034588
0.0045458
0.00564728
0.00670644
0.00766228
0.00845476
0.00903231
0.00935965
0.00942462
0.00924244
0.00885668
0.00833599
0.00776445
0.00723982
0.00686451
0.00672484
0.00078862
0.000328584
-3.54666e-05
-0.000337576
-0.000566923
-0.000699189
-0.000721602
-0.000627594
-0.000412428
-7.23012e-05
0.000395241
0.000990017
0.00170723
0.00253517
0.00345313
0.00443027
0.00542482
0.00638588
0.00725726
0.0079829
0.00851408
0.00881706
0.00887979
0.00871584
0.00836475
0.0078879
0.00736112
0.00686666
0.00648159
0.00626261
0.00130002
0.000652944
0.000224258
-8.70801e-05
-0.000308238
-0.000429281
-0.000447319
-0.000362039
-0.000171359
0.000128439
0.000541546
0.00107086
0.00171566
0.00246891
0.00331475
0.00422665
0.00516643
0.00608531
0.00692745
0.00763536
0.00815742
0.00845618
0.00851571
0.00834616
0.00798407
0.00748774
0.00692992
0.00638935
0.00592768
0.0055649
0.00172949
0.000882507
0.000370653
2.90098e-05
-0.000204246
-0.000332089
-0.000361143
-0.000297343
-0.000141229
0.000111121
0.000466227
0.000930923
0.00150953
0.00220063
0.00299381
0.0038669
0.00478514
0.00569997
0.00655346
0.00728324
0.00783067
0.00815027
0.00821843
0.00803928
0.00764573
0.00709484
0.00646063
0.00582494
0.00524059
0.00469644
0.00198159
0.000937975
0.00033604
-4.83978e-05
-0.000308514
-0.000458618
-0.000513828
-0.000485577
-0.000376427
-0.000181652
0.000108305
0.000505099
0.00101912
0.00165567
0.00241072
0.00326709
0.00419403
0.00514204
0.00604945
0.00684613
0.00746241
0.00783995
0.00794261
0.00776454
0.00733296
0.00670437
0.00595794
0.00518549
0.00443864
0.00368056
0.00197726
0.000748627
5.65598e-05
-0.000377542
-0.000675398
-0.000861384
-0.000957999
-0.000981202
-0.000934772
-0.000812446
-0.000600815
-0.000282432
0.000160382
0.000741059
0.00146351
0.00231691
0.00327734
0.00429332
0.0052991
0.00621465
0.00695517
0.00744384
0.00762546
0.00747811
0.00701915
0.00630351
0.00541849
0.00447283
0.00352464
0.00251506
0.0016483
0.00025044
-0.000527763
-0.00101493
-0.00135912
-0.00159393
-0.00174831
-0.00184185
-0.0018788
-0.00185064
-0.00173933
-0.00152056
-0.00116793
-0.000657895
2.44363e-05
0.000879267
0.00188487
0.00299741
0.00414638
0.0052402
0.00617505
0.00684894
0.00717888
0.00711769
0.00666532
0.00587138
0.00483281
0.00368212
0.00249121
0.00118066
0.000933588
-0.000614992
-0.0014733
-0.00201559
-0.00241434
-0.00271187
-0.00294292
-0.0031301
-0.00327763
-0.00337428
-0.00339673
-0.0033128
-0.00308564
-0.00267908
-0.00206386
-0.00122496
-0.000174316
0.0010538
0.00238801
0.00372602
0.00494188
0.00590094
0.0064811
0.00659648
0.0062171
0.00537897
0.00418753
0.00280561
0.00132627
-0.000351222
-0.000221297
-0.00189963
-0.00283098
-0.00343044
-0.0038929
-0.00426912
-0.00459938
-0.00490904
-0.00520223
-0.00546497
-0.00566836
-0.00577153
-0.00572545
-0.00547827
-0.00498218
-0.00420238
-0.0031296
-0.00178493
-0.00023319
0.00141661
0.00301535
0.00438845
0.00536094
0.00578968
0.00559519
0.0047844
0.00346508
0.00183574
1.84784e-05
-0.00211083
-0.00186277
-0.00364735
-0.00464412
-0.00530331
-0.00584003
-0.00631339
-0.00676924
-0.00723598
-0.00771811
-0.00819941
-0.00864571
-0.00900709
-0.00922085
-0.00921633
-0.00892198
-0.00827553
-0.00723789
-0.00580507
-0.00402465
-0.00200403
8.761e-05
0.00203077
0.00358282
0.00451959
0.00468343
0.00402599
0.00264229
0.000768209
-0.00143672
-0.00412247
-0.00402695
-0.00589189
-0.00694596
-0.00766791
-0.0082904
-0.00888108
-0.00949177
-0.0101547
-0.0108758
-0.0116379
-0.0124027
-0.0131114
-0.0136869
-0.0140371
-0.0140614
-0.0136616
-0.0127577
-0.0113063
-0.00932213
-0.0068964
-0.00420857
-0.00152246
0.000839073
0.00254366
0.0033169
0.00301417
0.00168815
-0.000394642
-0.00303013
-0.00639584
-0.00673697
-0.00865469
-0.00975741
-0.0105448
-0.0112641
-0.0119919
-0.0127868
-0.0136862
-0.0146993
-0.0158101
-0.0169777
-0.0181362
-0.0191941
-0.0200361
-0.020528
-0.020528
-0.0199029
-0.018554
-0.0164427
-0.0136229
-0.0102658
-0.00666898
-0.00324059
-0.000446804
0.00127472
0.00162459
0.000561968
-0.00163941
-0.00472964
-0.00891484
-0.0100006
-0.0119432
-0.0130851
-0.0139386
-0.0147627
-0.0156432
-0.0166472
-0.017819
-0.0191737
-0.0206988
-0.022354
-0.0240685
-0.0257378
-0.0272231
-0.0283544
-0.0289395
-0.028782
-0.0277094
-0.0256102
-0.0224733
-0.0184331
-0.0137973
-0.00904952
-0.00480545
-0.00171341
-0.000302242
-0.000785773
-0.00293464
-0.00646752
-0.0116218
-0.0138086
-0.0157503
-0.0169208
-0.0178368
-0.0187664
-0.0198059
-0.0210326
-0.0225006
-0.0242336
-0.0262262
-0.0284418
-0.030808
-0.03321
-0.0354871
-0.0374329
-0.0388023
-0.039327
-0.0387445
-0.0368613
-0.0335632
-0.0289128
-0.02319
-0.0169239
-0.0108741
-0.00593471
-0.00294617
-0.00240496
-0.00421897
-0.00812221
-0.0143953
-0.0181349
-0.0200553
-0.0212422
-0.0222097
-0.0232328
-0.024421
-0.0258647
-0.0276309
-0.0297556
-0.0322437
-0.0350663
-0.0381524
-0.0413809
-0.0445721
-0.0474853
-0.0498229
-0.0512409
-0.0513726
-0.0499619
-0.0467313
-0.0416414
-0.0348976
-0.0270228
-0.0188828
-0.0116231
-0.00646621
-0.00432255
-0.00538093
-0.0094927
-0.017019
-0.0229389
-0.0248278
-0.0260165
-0.0270124
-0.0280981
-0.0293997
-0.0310258
-0.0330606
-0.0355559
-0.0385306
-0.0419664
-0.0457974
-0.0498991
-0.0540773
-0.0580609
-0.0615035
-0.0640001
-0.0651196
-0.0643743
-0.0614662
-0.0561894
-0.048615
-0.0391901
-0.0288159
-0.0188482
-0.010924
-0.00649593
-0.00622584
-0.010263
-0.0191405
-0.0281706
-0.0300342
-0.0312068
-0.0321901
-0.0332796
-0.0346254
-0.0363612
-0.0385942
-0.041396
-0.0448026
-0.048808
-0.0533539
-0.058315
-0.0634856
-0.0685696
-0.0731787
-0.0768447
-0.0790442
-0.0792204
-0.0769005
-0.0717283
-0.0636094
-0.0528452
-0.0402773
-0.0273796
-0.0161717
-0.00873689
-0.00642441
-0.00995467
-0.0202168
-0.0337804
-0.0356493
-0.0367816
-0.0376852
-0.0386818
-0.0399583
-0.0416847
-0.0439984
-0.0469955
-0.0507303
-0.0552104
-0.0603846
-0.0661275
-0.072224
-0.0783571
-0.0841042
-0.0889449
-0.0922824
-0.0934761
-0.0919225
-0.0871084
-0.0787529
-0.0669584
-0.0524084
-0.0365653
-0.0217245
-0.0106069
-0.00543921
-0.00786468
-0.0194447
-0.0397334
-0.0416729
-0.0427282
-0.0434454
-0.0442011
-0.0452408
-0.0467863
-0.049015
-0.0520509
-0.0559672
-0.0607828
-0.0664513
-0.0728451
-0.0797387
-0.0867962
-0.0935652
-0.0994832
-0.103896
-0.106092
-0.105352
-0.101034
-0.0926732
-0.0801488
-0.0639127
-0.0452799
-0.0266552
-0.0113007
-0.00242844
-0.00298605
-0.0156687
-0.0460354
-0.0481552
-0.0490706
-0.0494337
-0.0497319
-0.0503028
-0.0514416
-0.0533756
-0.0562588
-0.0601805
-0.0651658
-0.0711671
-0.078049
-0.0855717
-0.0933786
-0.100989
-0.107805
-0.113124
-0.116175
-0.11615
-0.112296
-0.10399
-0.0908972
-0.0732087
-0.0519878
-0.0295637
-0.00955129
0.00386399
0.00609131
-0.007253
-0.0527775
-0.0552364
-0.0558916
-0.0556364
-0.0551681
-0.0549653
-0.0554206
-0.0568186
-0.0593407
-0.0630844
-0.0680712
-0.0742419
-0.0814462
-0.0894205
-0.0977834
-0.106024
-0.113508
-0.119489
-0.123139
-0.123586
-0.119976
-0.111557
-0.0978097
-0.0786772
-0.0549258
-0.0286557
-0.00360047
0.0152087
0.0213015
0.00810935
-0.0602248
-0.0632115
-0.0633624
-0.0620686
-0.0604023
-0.0590427
-0.0584979
-0.0591075
-0.061068
-0.0644693
-0.0693137
-0.0755152
-0.082902
-0.0911685
-0.0999052
-0.108565
-0.116471
-0.122832
-0.126763
-0.127324
-0.12357
-0.114641
-0.0998485
-0.0789352
-0.0523719
-0.0219424
0.00872374
0.0339448
0.045259
0.0337016
-0.0690047
-0.0726391
-0.0717796
-0.0687766
-0.0653219
-0.0623459
-0.0604656
-0.0600517
-0.0612869
-0.064227
-0.0688348
-0.0749796
-0.0824398
-0.0908781
-0.0998366
-0.108724
-0.116818
-0.123271
-0.127134
-0.127393
-0.122991
-0.112957
-0.0964692
-0.0730715
-0.0429601
-0.00757264
0.0297622
0.0629387
0.0814779
0.0742675
-0.0805255
-0.0845254
-0.0815965
-0.0758235
-0.0697963
-0.0646818
-0.0611433
-0.059521
-0.0599328
-0.0623617
-0.0666982
-0.0727499
-0.0802338
-0.0887607
-0.0978206
-0.106772
-0.114836
-0.121104
-0.124552
-0.12407
-0.118491
-0.106694
-0.0876924
-0.0608198
-0.0260273
0.0156818
0.0614995
0.105324
0.134545
0.136507
-0.0979451
-0.100642
-0.0934071
-0.0832223
-0.0736245
-0.065816
-0.0603494
-0.0574206
-0.0570034
-0.058954
-0.0630583
-0.0690379
-0.0765371
-0.0851042
-0.0941729
-0.103047
-0.110891
-0.116732
-0.119462
-0.117872
-0.110636
-0.0964773
-0.0741812
-0.0427944
-0.00190253
0.0479642
0.104782
0.163691
0.209654
0.228992
-0.128331
-0.123994
-0.107921
-0.0908633
-0.0764526
-0.0653932
-0.0578312
-0.0536307
-0.0525064
-0.0541191
-0.0581117
-0.0640997
-0.0716468
-0.0802368
-0.0892488
-0.0979358
-0.105411
-0.110641
-0.112453
-0.109559
-0.100378
-0.0835187
-0.0574572
-0.0208115
0.027436
0.0876366
0.159151
0.238314
0.310865
0.363434
-0.187575
-0.157897
-0.125396
-0.0980767
-0.0773628
-0.0626322
-0.0530795
-0.0479121
-0.0464163
-0.0479847
-0.0520907
-0.0582398
-0.0659211
-0.074566
-0.0835127
-0.091979
-0.0990412
-0.10362
-0.104475
-0.100201
-0.0893481
-0.0700462
-0.0404772
0.0012926
0.0572641
0.129384
0.219442
0.326675
0.440402
0.566684
-0.319167
-0.198003
-0.137228
-0.097041
-0.070262
-0.0531224
-0.0430639
-0.0382205
-0.0373371
-0.0395728
-0.0442984
-0.0509695
-0.0590517
-0.0679663
-0.0770491
-0.0855177
-0.0924492
-0.096759
-0.0971851
-0.0922273
-0.0805008
-0.0599681
-0.0285159
0.0163481
0.0778115
0.16026
0.270127
0.415838
0.60428
0.893848
-0.646274
-0.234291
-0.105726
-0.0620352
-0.038455
-0.0252621
-0.0194649
-0.0184356
-0.0205982
-0.0251821
-0.0317182
-0.0397997
-0.0489989
-0.058822
-0.0686734
-0.0778276
-0.0854102
-0.0903879
-0.0915751
-0.0876565
-0.0767971
-0.0572804
-0.0269724
0.0168307
0.0779013
0.162496
0.283033
0.467769
0.773981
1.36788
)
;

boundaryField
{
    movingWall
    {
        type            zeroGradient;
    }
    fixedWalls
    {
        type            zeroGradient;
    }
    frontAndBack
    {
        type            empty;
    }
}


// ************************************************************************* //
