/*--------------------------------*- C++ -*----------------------------------*\
  =========                 |
  \\      /  F ield         | OpenFOAM: The Open Source CFD Toolbox
   \\    /   O peration     | Website:  https://openfoam.org
    \\  /    A nd           | Version:  7
     \\/     M anipulation  |
\*---------------------------------------------------------------------------*/
FoamFile
{
    version     2.0;
    format      ascii;
    class       surfaceScalarField;
    location    "7.2";
    object      phi;
}
// * * * * * * * * * * * * * * * * * * * * * * * * * * * * * * * * * * * * * //

dimensions      [0 3 -1 0 0 0 0];

internalField   nonuniform List<scalar> 
1740
(
7.99678e-07
-7.99386e-07
4.46656e-07
3.5301e-07
-1.47097e-06
1.9176e-06
-4.78726e-06
3.31629e-06
-9.15764e-06
4.3704e-06
-1.4237e-05
5.0794e-06
-1.97351e-05
5.49806e-06
-2.54158e-05
5.6807e-06
-3.1076e-05
5.66024e-06
-3.65219e-05
5.4459e-06
-4.1551e-05
5.02907e-06
-4.59436e-05
4.39265e-06
-4.94652e-05
3.52157e-06
-5.18781e-05
2.41293e-06
-5.2963e-05
1.08491e-06
-5.25455e-05
-4.17587e-07
-5.0526e-05
-2.01943e-06
-4.69097e-05
-3.61628e-06
-4.18278e-05
-5.08197e-06
-3.55469e-05
-6.28091e-06
-2.84624e-05
-7.08446e-06
-2.10724e-05
-7.39003e-06
-1.3933e-05
-7.13941e-06
-7.60024e-06
-6.33273e-06
-2.56412e-06
-5.03612e-06
8.2256e-07
-3.38668e-06
2.41696e-06
-1.5944e-06
2.33589e-06
8.10727e-08
1.11971e-06
1.21619e-06
1.11972e-06
-3.36023e-07
-4.63372e-07
-3.50128e-06
3.51825e-06
-1.00523e-05
8.46861e-06
-1.96091e-05
1.28731e-05
-3.1529e-05
1.62903e-05
-4.51107e-05
1.86611e-05
-5.96918e-05
2.00791e-05
-7.46725e-05
2.06615e-05
-8.94983e-05
2.04861e-05
-0.000103629
1.95766e-05
-0.000116515
1.79148e-05
-0.000127587
1.54652e-05
-0.000136272
1.22059e-05
-0.000142016
8.15744e-06
-0.000144339
3.40787e-06
-0.000142892
-1.86478e-06
-0.000137502
-7.40925e-06
-0.000128249
-1.28696e-05
-0.000115489
-1.78421e-05
-9.9871e-05
-2.18987e-05
-8.23163e-05
-2.46391e-05
-6.39584e-05
-2.5748e-05
-4.60482e-05
-2.50496e-05
-2.98284e-05
-2.25525e-05
-1.63895e-05
-1.8475e-05
-6.52391e-06
-1.32523e-05
-5.84508e-07
-7.5338e-06
1.69812e-06
-2.20154e-06
1.2722e-06
1.64211e-06
2.39192e-06
-2.07678e-06
1.61338e-06
-9.05317e-06
1.04946e-05
-2.07756e-05
2.01911e-05
-3.65797e-05
2.86773e-05
-5.55688e-05
3.52793e-05
-7.6791e-05
3.98834e-05
-9.93266e-05
4.26146e-05
-0.00012231
4.36444e-05
-0.000144912
4.30887e-05
-0.000166318
4.0982e-05
-0.000185699
3.72961e-05
-0.000202219
3.19851e-05
-0.000215051
2.50382e-05
-0.000223425
1.65318e-05
-0.000226692
6.67415e-06
-0.000224388
-4.16893e-06
-0.00021632
-1.5477e-05
-0.000202628
-2.65615e-05
-0.000183829
-3.66414e-05
-0.00016083
-4.48976e-05
-0.000134903
-5.05659e-05
-0.000107609
-5.30416e-05
-8.06768e-05
-5.19821e-05
-5.58357e-05
-4.73936e-05
-3.46269e-05
-3.96838e-05
-1.82004e-05
-2.96788e-05
-7.1246e-06
-1.86096e-05
-1.2425e-06
-8.08364e-06
4.90592e-07
-9.0985e-08
2.88252e-06
-3.94229e-06
5.55568e-06
-1.49719e-05
2.15243e-05
-3.20868e-05
3.7306e-05
-5.4139e-05
5.07294e-05
-7.99254e-05
6.10658e-05
-0.000108267
6.82247e-05
-0.000138044
7.23915e-05
-0.000168194
7.37948e-05
-0.000197688
7.2583e-05
-0.000225502
6.87952e-05
-0.000250598
6.23925e-05
-0.000271937
5.33238e-05
-0.000288502
4.1604e-05
-0.00029936
2.73894e-05
-0.000303725
1.10393e-05
-0.000301044
-6.84995e-06
-0.00029108
-2.54415e-05
-0.000273983
-4.36579e-05
-0.000250348
-6.02762e-05
-0.000221232
-7.40138e-05
-0.000188134
-8.36644e-05
-0.000152919
-8.8256e-05
-0.00011769
-8.72116e-05
-8.45927e-05
-8.04904e-05
-5.55944e-05
-6.86822e-05
-3.22343e-05
-5.30389e-05
-1.53985e-05
-3.54454e-05
-5.14247e-06
-1.83397e-05
-6.17523e-07
-4.61593e-06
2.265e-06
-5.74829e-06
1.1304e-05
-2.08084e-05
3.65843e-05
-4.32818e-05
5.97794e-05
-7.1457e-05
7.89047e-05
-0.000103781
9.33902e-05
-0.000138848
0.000103292
-0.00017537
0.000108914
-0.000212139
0.000110563
-0.00024798
0.000108425
-0.000281723
0.000102537
-0.000312178
9.28483e-05
-0.000338156
7.9301e-05
-0.000358492
6.19402e-05
-0.000372111
4.1009e-05
-0.000378101
1.70286e-05
-0.000375793
-9.15761e-06
-0.000364853
-3.63812e-05
-0.000345369
-6.31425e-05
-0.000317912
-8.77329e-05
-0.000283584
-0.000108342
-0.000244012
-0.000123236
-0.000201292
-0.000130977
-0.000157856
-0.000130647
-0.000116277
-0.00012207
-7.89992e-05
-0.00010596
-4.80472e-05
-8.39908e-05
-2.47488e-05
-5.87438e-05
-9.52415e-06
-3.35643e-05
-1.79324e-06
-1.23468e-05
4.71759e-07
-7.43534e-06
1.87393e-05
-2.63464e-05
5.54954e-05
-5.39678e-05
8.74008e-05
-8.80118e-05
0.000112949
-0.000126563
0.000131942
-0.000167993
0.000144722
-0.00021087
0.00015179
-0.000253877
0.00015357
-0.000295746
0.000150293
-0.000335207
0.000141998
-0.000370971
0.000128612
-0.000401735
0.000110066
-0.000426218
8.64226e-05
-0.00044321
5.8001e-05
-0.000451651
2.54693e-05
-0.000450715
-1.0093e-05
-0.000439898
-4.7198e-05
-0.000419127
-8.39138e-05
-0.000388844
-0.000118016
-0.000350081
-0.000147104
-0.000304501
-0.000168817
-0.000254363
-0.000181114
-0.000202426
-0.000182585
-0.00015173
-0.000172766
-0.000105303
-0.000152387
-6.58035e-05
-0.000123491
-3.51596e-05
-8.93877e-05
-1.42983e-05
-5.44256e-05
-3.01385e-06
-2.36313e-05
-2.5421e-06
-8.98013e-06
2.77195e-05
-3.14629e-05
7.79781e-05
-6.38888e-05
0.000119827
-0.000103425
0.000152485
-0.000147812
0.000176328
-0.000195212
0.000192122
-0.000244075
0.000200654
-0.000293013
0.000202508
-0.000340702
0.000197982
-0.000385821
0.000187118
-0.000427022
0.000169813
-0.000462925
0.000145969
-0.000492146
0.000115644
-0.000513344
7.91986e-05
-0.000525284
3.74096e-05
-0.000526934
-8.44369e-06
-0.00051753
-5.66011e-05
-0.00049674
-0.000104704
-0.000464752
-0.000150004
-0.000422408
-0.000189448
-0.000371289
-0.000219936
-0.000313751
-0.000238652
-0.000252854
-0.000243481
-0.000192169
-0.000233451
-0.000135439
-0.000209117
-8.61382e-05
-0.000172791
-4.70034e-05
-0.000128522
-1.96429e-05
-8.1786e-05
-4.3316e-06
-3.89426e-05
-6.87371e-06
-1.03617e-05
3.80812e-05
-3.60585e-05
0.000103675
-7.28328e-05
0.000156601
-0.000117367
0.00019702
-0.000167092
0.000226053
-0.000219993
0.000245023
-0.00027443
0.00025509
-0.000328973
0.000257051
-0.000382284
0.000251293
-0.000433032
0.000237865
-0.000479845
0.000216627
-0.000521301
0.000187425
-0.000555933
0.000150276
-0.000582266
0.000105532
-0.000598872
5.40147e-05
-0.000604465
-2.84985e-06
-0.000597945
-6.31215e-05
-0.000578617
-0.000124032
-0.00054629
-0.000182331
-0.000501467
-0.000234271
-0.000445514
-0.00027589
-0.000380763
-0.000303402
-0.000310526
-0.000313718
-0.000238931
-0.000305046
-0.000170569
-0.00027748
-0.00010995
-0.00023341
-6.08762e-05
-0.000177597
-2.58717e-05
-0.00011679
-5.84542e-06
-5.89689e-05
-1.27191e-05
-1.15515e-05
4.96327e-05
-4.00276e-05
0.000132151
-8.05858e-05
0.000197159
-0.000129502
0.000245936
-0.000183947
0.000280498
-0.000241765
0.000302842
-0.000301256
0.000314581
-0.000360981
0.000316776
-0.000419623
0.000309935
-0.000475877
0.000294119
-0.00052839
0.00026914
-0.000575726
0.000234761
-0.000616364
0.000190913
-0.00064871
0.000137879
-0.000671142
7.64466e-05
-0.000682054
8.06192e-06
-0.00068002
-6.51559e-05
-0.000663854
-0.000140198
-0.000632865
-0.000213321
-0.000587063
-0.000280072
-0.000527417
-0.000335536
-0.000456065
-0.000374754
-0.000376441
-0.000393342
-0.000293198
-0.000388289
-0.00021187
-0.000358807
-0.000138236
-0.000307044
-7.74805e-05
-0.000238352
-3.33657e-05
-0.000160905
-7.6751e-06
-8.46596e-05
-2.03942e-05
-1.25138e-05
6.21464e-05
-4.32536e-05
0.000162891
-8.69218e-05
0.000240827
-0.000139475
0.000298489
-0.000197884
0.000338906
-0.000259887
0.000364845
-0.000323752
0.000378446
-0.000388063
0.000381088
-0.000451553
0.000373424
-0.000512981
0.000355547
-0.000571048
0.000327207
-0.000624349
0.000288061
-0.000671342
0.000237907
-0.000710348
0.000176885
-0.000739566
0.000105665
-0.000757112
2.56078e-05
-0.000761156
-6.11123e-05
-0.000750003
-0.000151351
-0.000722349
-0.000240974
-0.000677554
-0.000324868
-0.00061597
-0.00039712
-0.000539299
-0.000451425
-0.000450868
-0.000481774
-0.000355711
-0.000483445
-0.00026032
-0.000454199
-0.00017195
-0.000395414
-9.75429e-05
-0.000312759
-4.25345e-05
-0.000215914
-9.95002e-06
-0.000117244
-3.03442e-05
-1.32102e-05
7.53566e-05
-4.56176e-05
0.000195298
-9.16141e-05
0.000286824
-0.000146932
0.000353807
-0.000208396
0.000400371
-0.000273676
0.000430125
-0.000341033
0.000445802
-0.000409094
0.000449149
-0.000476672
0.000441002
-0.000542621
0.000421496
-0.000605737
0.000390323
-0.00066469
0.000347014
-0.000717972
0.000291188
-0.000763871
0.000222784
-0.000800468
0.000142262
-0.000825652
5.07924e-05
-0.000837212
-4.95527e-05
-0.000832944
-0.000155619
-0.000810873
-0.000263045
-0.00076956
-0.000366181
-0.000708517
-0.000458162
-0.000628696
-0.000531246
-0.000532967
-0.000577503
-0.000426451
-0.000589962
-0.00031646
-0.000564189
-0.000211857
-0.000500018
-0.000121743
-0.000402873
-5.37903e-05
-0.000283867
-1.28049e-05
-0.000158229
-4.31491e-05
-1.3606e-05
8.89626e-05
-4.7014e-05
0.000228706
-9.44601e-05
0.00033427
-0.000151546
0.000410893
-0.000215005
0.00046383
-0.000282464
0.000497583
-0.000352195
0.000515534
-0.000422887
0.000519841
-0.00049345
0.000511566
-0.000562863
0.000490908
-0.000630056
0.000457517
-0.000693825
0.000410783
-0.000752761
0.000350125
-0.000805203
0.000275226
-0.000849204
0.000186262
-0.000882523
8.41115e-05
-0.00090265
-2.94252e-05
-0.000906957
-0.000151312
-0.000892789
-0.000277214
-0.000857824
-0.000401145
-0.000800523
-0.000515464
-0.000720734
-0.000611034
-0.000620416
-0.000677821
-0.000504286
-0.000706092
-0.00038013
-0.000688345
-0.000258371
-0.000621777
-0.000150637
-0.000510606
-6.75251e-05
-0.000366979
-1.63777e-05
-0.000209377
-5.95269e-05
-1.36779e-05
0.000102641
-4.7371e-05
0.000262399
-9.53165e-05
0.000382215
-0.000153073
0.00046865
-0.000217325
0.000528082
-0.000285678
0.000565936
-0.000356425
0.00058628
-0.000428322
0.000591738
-0.000500391
0.000583635
-0.00057176
0.000562277
-0.00064153
0.000527286
-0.000708676
0.000477929
-0.000771965
0.000413414
-0.000829882
0.000333143
-0.000880577
0.000236956
-0.000921832
0.000125367
-0.000950949
-3.09073e-07
-0.000965081
-0.000137179
-0.000960938
-0.000281356
-0.000935334
-0.00042675
-0.000885532
-0.000565265
-0.000809952
-0.000686614
-0.000709102
-0.000778672
-0.00058663
-0.000828564
-0.00045016
-0.000824815
-0.000311346
-0.000760591
-0.000184557
-0.000637395
-8.40802e-05
-0.000467456
-2.08074e-05
-0.00027265
-8.03342e-05
-1.34212e-05
0.000116062
-4.6674e-05
0.000295652
-9.41392e-05
0.00042968
-0.000151405
0.000525916
-0.000215141
0.000591818
-0.000282941
0.000633736
-0.00035312
0.000656459
-0.000424505
0.000663123
-0.000496237
0.000655367
-0.000567608
0.000633649
-0.000637926
0.000597604
-0.000706398
0.000546401
-0.000772042
0.000479057
-0.000833598
0.000394699
-0.00088945
0.000292808
-0.000937537
0.000173455
-0.000975387
3.75404e-05
-0.000999799
-0.000112767
-0.00100726
-0.000273894
-0.000993805
-0.000440207
-0.000955478
-0.000603592
-0.000889031
-0.000753061
-0.000793003
-0.0008747
-0.000669173
-0.000952394
-0.000524068
-0.000969919
-0.00036984
-0.000914819
-0.000223484
-0.000783751
-0.000103705
-0.000587235
-2.62287e-05
-0.000350126
-0.000106563
-1.2859e-05
0.000128921
-4.49895e-05
0.000327783
-9.10268e-05
0.000475718
-0.000146637
0.000581526
-0.000208491
0.000653672
-0.000274175
0.000699419
-0.000342024
0.000724308
-0.000410934
0.000732033
-0.000480173
0.000724606
-0.000549213
0.000702689
-0.000617595
0.000665985
-0.000684807
0.000613614
-0.000750191
0.000544441
-0.000812844
0.000457352
-0.000871525
0.00035149
-0.00092455
0.00022648
-0.00096969
8.26802e-05
-0.00100398
-7.84784e-05
-0.00102376
-0.000254111
-0.00102457
-0.000439396
-0.0010014
-0.000626761
-0.000949281
-0.000805184
-0.000864386
-0.000959594
-0.000745819
-0.00107096
-0.000597837
-0.0011179
-0.00043187
-0.00108079
-0.000266889
-0.000948732
-0.0001265
-0.000727624
-3.2765e-05
-0.000443861
-0.000139328
-1.2049e-05
0.00014097
-4.24897e-05
0.000358223
-8.62637e-05
0.000519492
-0.000139124
0.000634387
-0.000197742
0.00071229
-0.000259695
0.000761371
-0.00032334
0.000787953
-0.000387648
0.000796342
-0.000452022
0.00078898
-0.000516132
0.000766799
-0.000579775
0.000729628
-0.000642764
0.000676602
-0.000704821
0.000606498
-0.000765486
0.000518017
-0.00082401
0.000410014
-0.000879233
0.000281703
-0.00092943
0.000132877
-0.000972058
-3.58507e-05
-0.00100373
-0.000222443
-0.00101981
-0.00042331
-0.00101459
-0.000631981
-0.000981562
-0.000838213
-0.000914421
-0.00102673
-0.000808945
-0.00117644
-0.000665863
-0.00126098
-0.000494218
-0.00125243
-0.000313576
-0.00112937
-0.000152352
-0.000888847
-4.05179e-05
-0.000555696
-0.000179846
-1.10928e-05
0.000152063
-3.94784e-05
0.000386609
-8.03633e-05
0.000560377
-0.00012954
0.000683563
-0.000183659
0.00076641
-0.000240289
0.000818001
-0.000297824
0.000845489
-0.000355332
0.00085385
-0.000412372
0.00084602
-0.000468834
0.000823261
-0.000524802
0.000785597
-0.000580441
0.000732241
-0.000635897
0.000661955
-0.000691207
0.000573327
-0.000746192
0.000464999
-0.000800327
0.000335838
-0.000852569
0.000185119
-0.000901024
1.26048e-05
-0.000942894
-0.000180573
-0.000973832
-0.000392373
-0.000987903
-0.00061791
-0.000977544
-0.000848572
-0.000934203
-0.00107008
-0.000850052
-0.00126059
-0.000721203
-0.00138983
-0.000552373
-0.00142126
-0.000361532
-0.00132021
-0.000180864
-0.00106952
-4.95601e-05
-0.000686999
-0.000229406
-1.01459e-05
0.000162208
-3.64205e-05
0.000412884
-7.41135e-05
0.00059807
-0.00011893
0.00072838
-0.000167456
0.000814936
-0.000217263
0.000867807
-0.000266825
0.000895051
-0.000315353
0.000902378
-0.000362609
0.000893276
-0.000408743
0.000869394
-0.000454154
0.000831008
-0.000499385
0.000777472
-0.000545027
0.000707596
-0.000591634
0.000619934
-0.000639627
0.000512992
-0.000689163
0.000385374
-0.00073994
0.000235897
-0.000791038
6.3702e-05
-0.000840256
-0.000131355
-0.000884108
-0.00034852
-0.000917007
-0.000585012
-0.000931024
-0.000834555
-0.000916002
-0.0010851
-0.000860752
-0.00131584
-0.000756142
-0.00149444
-0.000600679
-0.00157672
-0.000407861
-0.00151303
-0.000211303
-0.00126607
-5.99397e-05
-0.000838362
-0.000289346
-9.43603e-06
0.000171644
-3.39862e-05
0.000437434
-6.86324e-05
0.000632716
-0.000108761
0.000768509
-0.000150827
0.000857002
-0.000192448
0.000909428
-0.000232262
0.000934865
-0.000269714
0.00093983
-0.000304849
0.000928411
-0.000338134
0.000902679
-0.000370322
0.000863196
-0.000402351
0.000809502
-0.000435261
0.000740506
-0.000470112
0.000654785
-0.000507903
0.000550783
-0.000549456
0.000426926
-0.000595248
0.000281688
-0.000645189
0.000113643
-0.000698159
-7.83846e-05
-0.000751663
-0.000295017
-0.000801061
-0.000535613
-0.000838895
-0.000796721
-0.000854395
-0.0010696
-0.000833856
-0.00133638
-0.000762993
-0.0015653
-0.00063271
-0.00170701
-0.000448815
-0.00169693
-0.000242576
-0.00147231
-7.17063e-05
-0.00100923
-0.000361052
-9.29899e-06
0.000180943
-3.31247e-05
0.000461259
-6.54486e-05
0.00066504
-0.000100973
0.000804033
-0.000135957
0.000891987
-0.00016816
0.00094163
-0.000196534
0.00096324
-0.000220913
0.000964209
-0.000241739
0.000949237
-0.000259878
0.000920817
-0.000276481
0.0008798
-0.000292897
0.000825917
-0.000310592
0.000758202
-0.000331095
0.000675288
-0.00035592
0.000575608
-0.000386476
0.000457483
-0.000423933
0.000319146
-0.000469016
0.000158726
-0.000521665
-2.57353e-05
-0.000580597
-0.000236086
-0.000642559
-0.000473651
-0.000701378
-0.000737903
-0.000746871
-0.0010241
-0.000764199
-0.00131905
-0.00073489
-0.00159461
-0.000641748
-0.00180015
-0.000479905
-0.00185877
-0.000273225
-0.00167899
-8.49727e-05
-0.00119748
-0.000446025
-1.02513e-05
0.000191195
-3.5195e-05
0.000486203
-6.6621e-05
0.000696466
-9.80392e-05
0.000835451
-0.000125493
0.000919441
-0.000147083
0.00096322
-0.000162329
0.000978486
-0.00017167
0.00097355
-0.000176109
0.000953677
-0.00017701
0.000921718
-0.00017597
0.000878759
-0.000174744
0.000824691
-0.000175196
0.000758653
-0.00017925
0.000679342
-0.000188844
0.000585201
-0.000205864
0.000474503
-0.00023204
0.000345322
-0.000268795
0.00019548
-0.000317031
2.25003e-05
-0.000376701
-0.000176416
-0.000446203
-0.000404148
-0.000521294
-0.000662811
-0.000593587
-0.000951812
-0.000648849
-0.00126379
-0.000666237
-0.00157722
-0.000621174
-0.00184521
-0.000496012
-0.00198393
-0.000301385
-0.00187362
-0.000100007
-0.00139886
-0.000546031
-1.31331e-05
0.000204328
-4.21852e-05
0.000515255
-7.48977e-05
0.000729178
-0.000102984
0.000863537
-0.000122405
0.000938862
-0.000131989
0.000972803
-0.000132212
0.00097871
-0.000124416
0.000965754
-0.000110362
0.000939623
-9.20145e-05
0.00090337
-7.14565e-05
0.000858201
-5.08327e-05
0.000804068
-3.23491e-05
0.00074017
-1.82478e-05
0.000665241
-1.07741e-05
0.000577727
-1.21266e-05
0.000475856
-2.44437e-05
0.000357639
-4.97279e-05
0.000220765
-8.96698e-05
6.24422e-05
-0.000145388
-0.000120698
-0.00021695
-0.000332587
-0.000302426
-0.000577335
-0.000396206
-0.000858032
-0.000486485
-0.00117351
-0.000552537
-0.00151117
-0.00056448
-0.00183327
-0.00049128
-0.00205713
-0.000324593
-0.00204031
-0.000117306
-0.00160615
-0.000663337
-1.93786e-05
0.000223706
-5.70409e-05
0.000552918
-9.38427e-05
0.00076598
-0.000119201
0.000888895
-0.000129509
0.00094917
-0.000125012
0.000968306
-0.000107705
0.000961403
-8.02068e-05
0.000938255
-4.52451e-05
0.000904661
-5.48223e-06
0.000863607
3.65349e-05
0.000816184
7.82995e-05
0.000762303
0.000117352
0.000701117
0.000151248
0.000631346
0.00017754
0.000551435
0.000193784
0.000459612
0.000197557
0.000353866
0.000186483
0.000231839
0.000158259
9.06663e-05
0.000110775
-7.3214e-05
4.24247e-05
-0.000264236
-4.72285e-05
-0.000487682
-0.000155964
-0.000749296
-0.000276003
-0.00105347
-0.00038948
-0.00139769
-0.000464673
-0.00175808
-0.000458569
-0.00206324
-0.000339235
-0.00215964
-0.000137507
-0.00180788
-0.000800844
-3.14907e-05
0.000255197
-8.40268e-05
0.000605454
-0.000127618
0.000809571
-0.000149567
0.000910845
-0.000147999
0.000947602
-0.000125735
0.000946041
-8.70418e-05
0.00092271
-3.62288e-05
0.000887442
2.2831e-05
0.000845601
8.67541e-05
0.000799684
0.000152528
0.000750411
0.000217404
0.000697427
0.000278773
0.000639748
0.000334095
0.000576024
0.000380844
0.000504685
0.000416478
0.000423978
0.000438405
0.000331939
0.000443957
0.000226287
0.00043035
0.000104274
0.000394663
-3.75274e-05
0.000333997
-0.00020357
0.000245729
-0.000399413
0.000128678
-0.000632246
-1.42778e-05
-0.000910514
-0.000171289
-0.00124068
-0.000312949
-0.00161642
-0.00038816
-0.00198803
-0.000339237
-0.00220856
-0.000160772
-0.00198634
-0.000961616
-5.37782e-05
0.000308975
-0.000128688
0.000680364
-0.000179381
0.000860263
-0.000193372
0.000924836
-0.000173273
0.000927503
-0.000126247
0.000899015
-5.97385e-05
0.000856202
1.98933e-05
0.00080781
0.000107573
0.000757922
0.000199264
0.000707993
0.000291663
0.000658011
0.000381922
0.000607168
0.000467444
0.000554226
0.000545741
0.000497727
0.000614339
0.000436087
0.000670702
0.000367615
0.00071217
0.000290471
0.000735881
0.000202576
0.000738682
0.000101473
0.000716986
-1.58315e-05
0.000666926
-0.000153511
0.000584078
-0.000316564
0.000464192
-0.00051236
0.00030494
-0.000751262
0.000111007
-0.00104675
-9.61938e-05
-0.00140922
-0.000265283
-0.00181894
-0.000313349
-0.0021605
-0.000184959
-0.00211473
-0.00114658
-9.30755e-05
0.000402051
-0.000195646
0.000782934
-0.000245109
0.000909726
-0.000237151
0.000916879
-0.000183962
0.000874314
-9.9332e-05
0.000814385
5.37979e-06
0.00075149
0.000121781
0.000691409
0.000243888
0.000635815
0.000367405
0.000584475
0.0004891
0.000536317
0.000606349
0.000489919
0.000716835
0.00044374
0.000818342
0.00039622
0.000908623
0.000345807
0.000985295
0.000290942
0.00104575
0.000230012
0.00108707
0.00016126
0.00110586
8.26818e-05
0.00109801
-7.98318e-06
0.00105909
-0.000114586
0.000983302
-0.000240779
0.000864131
-0.000393189
0.000694842
-0.000581973
0.00047174
-0.000823648
0.000204252
-0.00114173
-6.4205e-05
-0.00155048
-0.000240038
-0.00198466
-0.000202467
-0.0021523
-0.00134904
-0.000157528
0.000559579
-0.000276979
0.000902385
-0.000293287
0.000926034
-0.000230032
0.000853624
-0.000116377
0.000760658
2.58602e-05
0.000672148
0.000182201
0.000595149
0.000343541
0.00053007
0.000504281
0.000475075
0.000660915
0.000427841
0.000811088
0.000386144
0.000953003
0.000348003
0.00108507
0.000311672
0.00120568
0.000275607
0.00131308
0.00023841
0.00140524
0.000198781
0.00147981
0.000155447
0.00153398
0.000107092
0.00156435
5.23036e-05
0.00156671
-1.03406e-05
0.00153619
-8.40681e-05
0.00146637
-0.000170959
0.00134935
-0.000276166
0.00117532
-0.000407938
0.000933333
-0.000581665
0.000617557
-0.000825951
0.000249543
-0.00118247
-7.80365e-05
-0.00165709
-0.000193751
-0.00203659
-0.00154279
-0.000243677
0.000803256
-0.000303157
0.000961865
-0.000204662
0.000827539
-2.60003e-05
0.000674962
0.000184104
0.000550554
0.000401827
0.000454425
0.000615479
0.000381498
0.000819563
0.000325986
0.00101179
0.000282843
0.00119139
0.000248248
0.00135811
0.00021942
0.00151181
0.000194304
0.00165216
0.000171328
0.00177852
0.000149246
0.00188989
0.000127035
0.00198486
0.000103812
0.00206153
7.87743e-05
0.00211747
5.11514e-05
0.0021496
2.0182e-05
0.00215441
-1.51531e-05
0.00212658
-5.62388e-05
0.0020601
-0.000104475
0.00194676
-0.000162827
0.00177534
-0.000236518
0.00153006
-0.000336384
0.00119061
-0.000486504
0.000746022
-0.000737882
0.00025345
-0.00116451
-8.11807e-05
-0.00170196
-0.00162397
-0.000194055
0.000997311
1.87781e-05
0.000749032
0.000373556
0.000472761
0.000714392
0.000334126
0.00101984
0.000245103
0.0012897
0.000184569
0.00152739
0.000143804
0.00173736
0.000116016
0.00192388
9.633e-05
0.00209043
8.16924e-05
0.00223963
7.02199e-05
0.00237324
6.06928e-05
0.00249229
5.2279e-05
0.00259715
4.43845e-05
0.00268762
3.65644e-05
0.00276297
2.84661e-05
0.00282195
1.9792e-05
0.00286279
1.03128e-05
0.00288279
1.7996e-07
0.00288019
-1.2555e-05
0.00284994
-2.59888e-05
0.00278749
-4.20194e-05
0.00268596
-6.12972e-05
0.00253513
-8.56935e-05
0.00231829
-0.00011954
0.0020061
-0.000174312
0.00155145
-0.000283236
0.000927264
-0.000540325
0.000263766
-0.00103846
-0.00136021
0.000997311
0.00174634
0.0022191
0.00255323
0.00279833
0.0029829
0.00312671
0.00324272
0.00333905
0.00342074
0.00349096
0.00355166
0.00360394
0.00364832
0.00368488
0.00371335
0.00373314
0.00374346
0.00374364
0.00373108
0.00370509
0.00366307
0.00360178
0.00351608
0.00339654
0.00322223
0.00293899
0.00239867
0.00136021
)
;

boundaryField
{
    movingWall
    {
        type            calculated;
        value           uniform 0;
    }
    fixedWalls
    {
        type            calculated;
        value           uniform 0;
    }
    frontAndBack
    {
        type            empty;
        value           nonuniform 0();
    }
}


// ************************************************************************* //
