/*--------------------------------*- C++ -*----------------------------------*\
  =========                 |
  \\      /  F ield         | OpenFOAM: The Open Source CFD Toolbox
   \\    /   O peration     | Website:  https://openfoam.org
    \\  /    A nd           | Version:  7
     \\/     M anipulation  |
\*---------------------------------------------------------------------------*/
FoamFile
{
    version     2.0;
    format      ascii;
    class       volVectorField;
    location    "7.2";
    object      U;
}
// * * * * * * * * * * * * * * * * * * * * * * * * * * * * * * * * * * * * * //

dimensions      [0 1 -1 0 0 0 0];

internalField   nonuniform List<vector> 
900
(
(0.000156258 -0.000155143 0)
(0.000271364 -6.31401e-05 0)
(-5.23973e-05 0.000100088 0)
(-0.000819146 0.000243293 0)
(-0.00193757 0.00034643 0)
(-0.00330649 0.000412378 0)
(-0.00483429 0.000450238 0)
(-0.00644597 0.000467938 0)
(-0.00807972 0.000469971 0)
(-0.00967984 0.000457498 0)
(-0.0111903 0.000429259 0)
(-0.012551 0.000382719 0)
(-0.0136964 0.000315265 0)
(-0.014558 0.000225337 0)
(-0.0150692 0.000113459 0)
(-0.0151721 -1.70369e-05 0)
(-0.0148258 -0.000159974 0)
(-0.0140156 -0.000305326 0)
(-0.01276 -0.000440679 0)
(-0.0111161 -0.00055228 0)
(-0.00917938 -0.000626768 0)
(-0.00707966 -0.000653264 0)
(-0.00497047 -0.000625344 0)
(-0.00301418 -0.000542494 0)
(-0.00136332 -0.000410865 0)
(-0.000141015 -0.000243986 0)
(0.000571935 -6.28544e-05 0)
(0.000763142 0.000107808 0)
(0.000532583 0.000212664 0)
(0.000166366 0.000165219 0)
(7.11813e-05 -0.000278265 0)
(-0.000309622 0.000307443 0)
(-0.00171513 0.00111923 0)
(-0.00405565 0.00184674 0)
(-0.00716904 0.0024042 0)
(-0.0108586 0.00278562 0)
(-0.0149254 0.00301349 0)
(-0.0191886 0.00311256 0)
(-0.0234849 0.00309852 0)
(-0.0276596 0.00297601 0)
(-0.0315579 0.00274113 0)
(-0.0350199 0.00238607 0)
(-0.0378808 0.00190439 0)
(-0.0399769 0.00129625 0)
(-0.0411571 0.000572804 0)
(-0.041299 -0.000240751 0)
(-0.0403243 -0.00110336 0)
(-0.038217 -0.00195948 0)
(-0.0350376 -0.00274276 0)
(-0.0309303 -0.00338229 0)
(-0.0261221 -0.00381121 0)
(-0.0209115 -0.00397653 0)
(-0.0156463 -0.00384852 0)
(-0.0106914 -0.003428 0)
(-0.00638975 -0.00275046 0)
(-0.00301916 -0.00188783 0)
(-0.000750838 -0.00094873 0)
(0.000382238 -7.62999e-05 0)
(0.000555562 0.000521157 0)
(0.000220438 0.000529882 0)
(-0.000107119 4.9987e-05 0)
(-0.00122043 0.00173402 0)
(-0.00393808 0.00371776 0)
(-0.00793951 0.00548302 0)
(-0.012975 0.00686101 0)
(-0.018785 0.00782333 0)
(-0.0250994 0.0084 0)
(-0.0316621 0.00863198 0)
(-0.0382326 0.00854717 0)
(-0.0445776 0.00815414 0)
(-0.050463 0.00744631 0)
(-0.0556502 0.00641159 0)
(-0.0598991 0.00504407 0)
(-0.0629779 0.0033555 0)
(-0.0646789 0.00138486 0)
(-0.0648381 -0.00079531 0)
(-0.0633573 -0.00307618 0)
(-0.0602251 -0.00531742 0)
(-0.0555336 -0.00735552 0)
(-0.0494868 -0.00901879 0)
(-0.0423997 -0.0101473 0)
(-0.0346833 -0.010615 0)
(-0.0268168 -0.0103521 0)
(-0.0193064 -0.00936188 0)
(-0.0126325 -0.00773219 0)
(-0.00719316 -0.00563806 0)
(-0.00324659 -0.00334051 0)
(-0.000862415 -0.00118505 0)
(0.000128417 0.000396527 0)
(0.000156638 0.000811896 0)
(-0.000294856 0.000911702 0)
(-0.00219645 0.00430359 0)
(-0.00631006 0.00784443 0)
(-0.0120111 0.0109152 0)
(-0.0189296 0.0133009 0)
(-0.0267432 0.0149643 0)
(-0.0351241 0.0159463 0)
(-0.0437602 0.0163028 0)
(-0.0523543 0.0160716 0)
(-0.0606147 0.0152634 0)
(-0.0682472 0.0138689 0)
(-0.0749537 0.0118737 0)
(-0.0804373 0.00927792 0)
(-0.0844149 0.00611341 0)
(-0.0866355 0.00245922 0)
(-0.0869025 -0.00154913 0)
(-0.0850977 -0.00571804 0)
(-0.0812046 -0.00980129 0)
(-0.0753276 -0.0135158 0)
(-0.0677024 -0.0165661 0)
(-0.0586976 -0.0186763 0)
(-0.0488006 -0.019627 0)
(-0.0385888 -0.0192925 0)
(-0.028683 -0.0176722 0)
(-0.0196869 -0.0149103 0)
(-0.0121186 -0.0113025 0)
(-0.00633942 -0.00728997 0)
(-0.00249028 -0.00344561 0)
(-0.000462781 -0.000459174 0)
(6.22823e-05 0.000810629 0)
(-0.000471209 0.00230164 0)
(-0.00315026 0.00803781 0)
(-0.00865868 0.0135095 0)
(-0.016041 0.0181051 0)
(-0.0247886 0.0216234 0)
(-0.034511 0.0240498 0)
(-0.0448282 0.0254491 0)
(-0.0553844 0.0258955 0)
(-0.0658418 0.0254359 0)
(-0.0758672 0.0240815 0)
(-0.0851235 0.0218197 0)
(-0.0932692 0.0186352 0)
(-0.0999645 0.0145367 0)
(-0.104885 0.00958119 0)
(-0.10774 0.00389414 0)
(-0.1083 -0.00231877 0)
(-0.106414 -0.00876949 0)
(-0.102043 -0.0150946 0)
(-0.095278 -0.0208772 0)
(-0.0863561 -0.0256801 0)
(-0.0756693 -0.0290899 0)
(-0.0637555 -0.03077 0)
(-0.0512723 -0.0305159 0)
(-0.03895 -0.0283041 0)
(-0.0275246 -0.0243265 0)
(-0.0176557 -0.0190022 0)
(-0.00984008 -0.0129667 0)
(-0.0043287 -0.00704035 0)
(-0.00111164 -0.00218609 0)
(-3.04163e-05 0.00047362 0)
(-0.000631894 0.00419245 0)
(-0.00404729 0.0129063 0)
(-0.0108954 0.0206853 0)
(-0.0198934 0.0270156 0)
(-0.0303898 0.0317729 0)
(-0.0419236 0.0350038 0)
(-0.0540671 0.0368174 0)
(-0.0664302 0.0373149 0)
(-0.0786472 0.0365545 0)
(-0.0903582 0.0345474 0)
(-0.101198 0.031276 0)
(-0.110794 0.0267233 0)
(-0.118775 0.0209058 0)
(-0.124779 0.0139053 0)
(-0.128477 0.00589294 0)
(-0.129594 -0.00285512 0)
(-0.127933 -0.0119547 0)
(-0.123405 -0.0209199 0)
(-0.116059 -0.0291897 0)
(-0.106101 -0.0361671 0)
(-0.0939156 -0.0412751 0)
(-0.0800669 -0.044027 0)
(-0.0652819 -0.0441032 0)
(-0.0504053 -0.0414244 0)
(-0.0363272 -0.0362066 0)
(-0.0238865 -0.028985 0)
(-0.0137608 -0.0205993 0)
(-0.00635628 -0.0121408 0)
(-0.00179861 -0.00487236 0)
(-0.000116423 -0.000205351 0)
(-0.000776873 0.00654668 0)
(-0.00487115 0.0188411 0)
(-0.0129665 0.0292914 0)
(-0.0234754 0.0375581 0)
(-0.0356097 0.0436529 0)
(-0.0488414 0.0477246 0)
(-0.0627004 0.0499509 0)
(-0.076771 0.0504722 0)
(-0.090671 0.0493625 0)
(-0.104026 0.0466334 0)
(-0.116456 0.0422603 0)
(-0.12757 0.0362206 0)
(-0.13697 0.0285341 0)
(-0.144262 0.0193006 0)
(-0.149074 0.00872951 0)
(-0.151076 -0.00284031 0)
(-0.150004 -0.0149344 0)
(-0.145693 -0.026946 0)
(-0.138116 -0.0381631 0)
(-0.127412 -0.047811 0)
(-0.113924 -0.0551181 0)
(-0.0982132 -0.0594038 0)
(-0.0810624 -0.0601814 0)
(-0.0634355 -0.0572634 0)
(-0.0464041 -0.050849 0)
(-0.0310337 -0.041569 0)
(-0.0182418 -0.0304742 0)
(-0.00864615 -0.0189578 0)
(-0.0025513 -0.0086295 0)
(-0.00020108 -0.00124226 0)
(-0.000905598 0.00932068 0)
(-0.00560841 0.0257502 0)
(-0.0148291 0.0392121 0)
(-0.0267091 0.0496067 0)
(-0.0403376 0.0571361 0)
(-0.0551275 0.06209 0)
(-0.0705736 0.0647402 0)
(-0.0862436 0.0652805 0)
(-0.101749 0.063807 0)
(-0.116713 0.0603326 0)
(-0.130751 0.054823 0)
(-0.143465 0.0472442 0)
(-0.154438 0.0376102 0)
(-0.163249 0.0260266 0)
(-0.169477 0.0127263 0)
(-0.172729 -0.00190499 0)
(-0.172655 -0.0173128 0)
(-0.168992 -0.0327821 0)
(-0.161599 -0.0474483 0)
(-0.150512 -0.0603426 0)
(-0.135987 -0.0704647 0)
(-0.118549 -0.0768864 0)
(-0.0990058 -0.0788848 0)
(-0.0784375 -0.0760893 0)
(-0.0581198 -0.0686159 0)
(-0.0393967 -0.0571523 0)
(-0.0234973 -0.0429598 0)
(-0.0113247 -0.0277738 0)
(-0.00342164 -0.0136194 0)
(-0.000294455 -0.00267713 0)
(-0.00101591 0.012464 0)
(-0.00624304 0.0335206 0)
(-0.0164391 0.0503014 0)
(-0.0295161 0.0630031 0)
(-0.0444598 0.0720643 0)
(-0.0606339 0.0779517 0)
(-0.0775073 0.0810556 0)
(-0.0946395 0.0816379 0)
(-0.111645 0.0798244 0)
(-0.128156 0.0756309 0)
(-0.143796 0.0690105 0)
(-0.158166 0.05991 0)
(-0.170844 0.0483254 0)
(-0.181383 0.0343519 0)
(-0.18932 0.0182254 0)
(-0.194186 0.000355993 0)
(-0.195542 -0.0186469 0)
(-0.193004 -0.0379741 0)
(-0.186288 -0.056616 0)
(-0.175283 -0.0734007 0)
(-0.160111 -0.0870667 0)
(-0.141206 -0.0963794 0)
(-0.119358 -0.100295 0)
(-0.0957346 -0.0981571 0)
(-0.071824 -0.0899012 0)
(-0.0492966 -0.0762018 0)
(-0.0297757 -0.0585142 0)
(-0.0145451 -0.0389604 0)
(-0.00447321 -0.0200737 0)
(-0.000408447 -0.00458218 0)
(-0.00110437 0.0159168 0)
(-0.00675614 0.0420166 0)
(-0.0177492 0.0623827 0)
(-0.0318146 0.0775534 0)
(-0.047856 0.0882424 0)
(-0.0651993 0.0951239 0)
(-0.0832964 0.0987292 0)
(-0.101706 0.0994035 0)
(-0.120056 0.0973104 0)
(-0.137995 0.0924712 0)
(-0.155165 0.0848234 0)
(-0.171181 0.0742868 0)
(-0.185623 0.0608255 0)
(-0.198031 0.0445051 0)
(-0.207904 0.0255405 0)
(-0.214712 0.00433759 0)
(-0.217915 -0.0184735 0)
(-0.216998 -0.042012 0)
(-0.211518 -0.0651432 0)
(-0.201175 -0.0864957 0)
(-0.185907 -0.104525 0)
(-0.165984 -0.117632 0)
(-0.142111 -0.124358 0)
(-0.115484 -0.123634 0)
(-0.0877797 -0.115073 0)
(-0.0610261 -0.0992199 0)
(-0.0373281 -0.0776749 0)
(-0.0184716 -0.052984 0)
(-0.00577541 -0.0283034 0)
(-0.000555808 -0.00706575 0)
(-0.00116702 0.0196087 0)
(-0.00712788 0.0510791 0)
(-0.0187121 0.0752476 0)
(-0.0335229 0.0930265 0)
(-0.0504043 0.105433 0)
(-0.0686555 0.113374 0)
(-0.0877186 0.117541 0)
(-0.107159 0.118377 0)
(-0.126623 0.116093 0)
(-0.145786 0.110719 0)
(-0.164317 0.102177 0)
(-0.181859 0.0903512 0)
(-0.198008 0.0751612 0)
(-0.212305 0.0566229 0)
(-0.22423 0.0349039 0)
(-0.233203 0.0103735 0)
(-0.238601 -0.0163509 0)
(-0.239781 -0.0443568 0)
(-0.236131 -0.0724204 0)
(-0.227137 -0.0989929 0)
(-0.212497 -0.122244 0)
(-0.192244 -0.14017 0)
(-0.166894 -0.150802 0)
(-0.137574 -0.152508 0)
(-0.106082 -0.144391 0)
(-0.0747956 -0.126688 0)
(-0.0463798 -0.10103 0)
(-0.0232673 -0.0703976 0)
(-0.00740067 -0.0387006 0)
(-0.000750175 -0.0102743 0)
(-0.00120014 0.0234582 0)
(-0.00734059 0.0605266 0)
(-0.0192857 0.0886579 0)
(-0.0345675 0.109155 0)
(-0.0519923 0.123355 0)
(-0.0708414 0.132415 0)
(-0.0905529 0.137206 0)
(-0.110703 0.138281 0)
(-0.130962 0.135909 0)
(-0.151037 0.130136 0)
(-0.170638 0.120866 0)
(-0.189443 0.107947 0)
(-0.207084 0.0912413 0)
(-0.223124 0.0706992 0)
(-0.237048 0.046416 0)
(-0.248256 0.0186923 0)
(-0.256064 -0.0119068 0)
(-0.25973 -0.0444857 0)
(-0.258483 -0.0777844 0)
(-0.251589 -0.110123 0)
(-0.238461 -0.139414 0)
(-0.218815 -0.163241 0)
(-0.192862 -0.179046 0)
(-0.161518 -0.184481 0)
(-0.126566 -0.177905 0)
(-0.0906703 -0.158981 0)
(-0.0570969 -0.129166 0)
(-0.0290827 -0.0918207 0)
(-0.00942288 -0.0517354 0)
(-0.00100651 -0.0143937 0)
(-0.0012012 0.0273754 0)
(-0.00738244 0.07016 0)
(-0.0194415 0.10235 0)
(-0.0348953 0.125637 0)
(-0.0525328 0.141683 0)
(-0.0716238 0.151907 0)
(-0.0916055 0.15737 0)
(-0.112067 0.158753 0)
(-0.132705 0.156391 0)
(-0.153264 0.150356 0)
(-0.173501 0.140541 0)
(-0.193145 0.126753 0)
(-0.211881 0.108795 0)
(-0.229318 0.0865397 0)
(-0.244978 0.059991 0)
(-0.25828 0.0293543 0)
(-0.268521 -0.00489842 0)
(-0.274904 -0.0419596 0)
(-0.276539 -0.0805806 0)
(-0.27248 -0.119029 0)
(-0.261846 -0.155031 0)
(-0.243968 -0.185791 0)
(-0.218627 -0.208137 0)
(-0.186351 -0.218864 0)
(-0.148709 -0.215327 0)
(-0.108495 -0.196256 0)
(-0.0695436 -0.162591 0)
(-0.0360395 -0.117901 0)
(-0.0119153 -0.0679456 0)
(-0.00134166 -0.0196498 0)
(-0.00116973 0.0312656 0)
(-0.00725164 0.0797705 0)
(-0.0191729 0.116046 0)
(-0.0344877 0.142148 0)
(-0.0519835 0.160057 0)
(-0.0709222 0.171458 0)
(-0.090741 0.177613 0)
(-0.111042 0.179342 0)
(-0.131548 0.177064 0)
(-0.152048 0.170885 0)
(-0.172349 0.160696 0)
(-0.192246 0.146271 0)
(-0.211491 0.127353 0)
(-0.229769 0.103733 0)
(-0.246672 0.0753132 0)
(-0.261681 0.0421815 0)
(-0.274146 0.00467962 0)
(-0.283259 -0.0365137 0)
(-0.288056 -0.0802529 0)
(-0.287452 -0.124853 0)
(-0.280283 -0.167961 0)
(-0.265467 -0.206502 0)
(-0.242249 -0.236725 0)
(-0.210575 -0.254492 0)
(-0.171543 -0.255897 0)
(-0.127808 -0.238305 0)
(-0.0836284 -0.201623 0)
(-0.04421 -0.149253 0)
(-0.0149469 -0.0879176 0)
(-0.00177486 -0.0263083 0)
(-0.00110819 0.0350367 0)
(-0.00696062 0.0891534 0)
(-0.0185054 0.129465 0)
(-0.0333753 0.15835 0)
(-0.0503669 0.178091 0)
(-0.0687348 0.190634 0)
(-0.0879155 0.197453 0)
(-0.107524 0.19952 0)
(-0.12731 0.197352 0)
(-0.147107 0.191106 0)
(-0.166781 0.180682 0)
(-0.186202 0.165833 0)
(-0.205209 0.146251 0)
(-0.223583 0.12165 0)
(-0.241024 0.0918307 0)
(-0.257119 0.0567504 0)
(-0.271317 0.0165967 0)
(-0.282879 -0.0281159 0)
(-0.290864 -0.0764404 0)
(-0.294105 -0.12685 0)
(-0.291226 -0.177063 0)
(-0.28075 -0.223882 0)
(-0.261333 -0.26311 0)
(-0.232172 -0.289696 0)
(-0.1936 -0.298287 0)
(-0.147768 -0.28441 0)
(-0.0990415 -0.246243 0)
(-0.0535871 -0.186373 0)
(-0.0185773 -0.112255 0)
(-0.00232817 -0.0346728 0)
(-0.0010228 0.0386071 0)
(-0.00654031 0.0981251 0)
(-0.0175059 0.142347 0)
(-0.0316533 0.173917 0)
(-0.0477906 0.195392 0)
(-0.0651634 0.208977 0)
(-0.0832076 0.216366 0)
(-0.101551 0.218697 0)
(-0.119974 0.216603 0)
(-0.138356 0.210306 0)
(-0.15663 0.199735 0)
(-0.174748 0.184636 0)
(-0.192649 0.164667 0)
(-0.210234 0.139479 0)
(-0.227335 0.108779 0)
(-0.243688 0.0724014 0)
(-0.25889 0.0303673 0)
(-0.272343 -0.0170219 0)
(-0.283211 -0.0690723 0)
(-0.290356 -0.124531 0)
(-0.29229 -0.181355 0)
(-0.28723 -0.236443 0)
(-0.273261 -0.285383 0)
(-0.248732 -0.322367 0)
(-0.212945 -0.340548 0)
(-0.167106 -0.333202 0)
(-0.115193 -0.295939 0)
(-0.06405 -0.229517 0)
(-0.0228492 -0.141534 0)
(-0.00302692 -0.0450799 0)
(-0.000924388 0.041918 0)
(-0.00604455 0.106546 0)
(-0.0162926 0.154476 0)
(-0.0294955 0.188552 0)
(-0.0444649 0.211579 0)
(-0.0604342 0.226023 0)
(-0.0768409 0.233806 0)
(-0.0933315 0.236249 0)
(-0.109723 0.234116 0)
(-0.125947 0.227717 0)
(-0.142011 0.217025 0)
(-0.157957 0.201799 0)
(-0.173835 0.181682 0)
(-0.189677 0.156281 0)
(-0.205467 0.125234 0)
(-0.221116 0.0882595 0)
(-0.236409 0.0452223 0)
(-0.250945 -0.00380293 0)
(-0.264074 -0.0584354 0)
(-0.274791 -0.117776 0)
(-0.281638 -0.180189 0)
(-0.28267 -0.242917 0)
(-0.275519 -0.301647 0)
(-0.257699 -0.350131 0)
(-0.227298 -0.380185 0)
(-0.18414 -0.382595 0)
(-0.131171 -0.34954 0)
(-0.0753286 -0.278565 0)
(-0.0277815 -0.176233 0)
(-0.00390091 -0.0578917 0)
(-0.000829623 0.0449461 0)
(-0.00555573 0.114349 0)
(-0.0150461 0.165713 0)
(-0.0271692 0.202017 0)
(-0.040718 0.226312 0)
(-0.054911 0.241328 0)
(-0.0691967 0.249232 0)
(-0.0832539 0.251546 0)
(-0.0969491 0.249184 0)
(-0.110282 0.242558 0)
(-0.123339 0.231707 0)
(-0.136263 0.216422 0)
(-0.14922 0.196351 0)
(-0.162378 0.17108 0)
(-0.175884 0.140196 0)
(-0.189827 0.103331 0)
(-0.204202 0.0602052 0)
(-0.218851 0.0106768 0)
(-0.233354 -0.0451844 0)
(-0.246927 -0.106911 0)
(-0.258303 -0.173404 0)
(-0.26556 -0.242487 0)
(-0.266082 -0.310305 0)
(-0.256699 -0.370627 0)
(-0.234264 -0.414346 0)
(-0.196879 -0.429822 0)
(-0.145735 -0.405104 0)
(-0.0869744 -0.33285 0)
(-0.0333659 -0.216662 0)
(-0.00498768 -0.0734874 0)
(-0.00076343 0.0477217 0)
(-0.00519381 0.121572 0)
(-0.0140248 0.176025 0)
(-0.0250511 0.214165 0)
(-0.0370081 0.239307 0)
(-0.0491017 0.25448 0)
(-0.0608123 0.262121 0)
(-0.0718777 0.263974 0)
(-0.0822394 0.261117 0)
(-0.0919825 0.25408 0)
(-0.10129 0.242981 0)
(-0.11041 0.227659 0)
(-0.11963 0.207785 0)
(-0.129254 0.182943 0)
(-0.139581 0.152694 0)
(-0.150878 0.116607 0)
(-0.163345 0.0742852 0)
(-0.177054 0.0253978 0)
(-0.19186 -0.0302667 0)
(-0.207281 -0.0926971 0)
(-0.222341 -0.161398 0)
(-0.235352 -0.234957 0)
(-0.243719 -0.310329 0)
(-0.243878 -0.381845 0)
(-0.23162 -0.440133 0)
(-0.203188 -0.471603 0)
(-0.157363 -0.459875 0)
(-0.0983452 -0.391015 0)
(-0.0395713 -0.262855 0)
(-0.00634039 -0.0922591 0)
(-0.000764469 0.0503531 0)
(-0.00513306 0.128402 0)
(-0.0135884 0.185528 0)
(-0.023648 0.224956 0)
(-0.0339336 0.250352 0)
(-0.0436541 0.265109 0)
(-0.0523622 0.271981 0)
(-0.0599003 0.272949 0)
(-0.066324 0.269269 0)
(-0.0718328 0.261593 0)
(-0.0767234 0.250125 0)
(-0.0813584 0.23476 0)
(-0.0861438 0.215202 0)
(-0.0915109 0.191052 0)
(-0.0978981 0.161859 0)
(-0.105729 0.127154 0)
(-0.115383 0.0864576 0)
(-0.127146 0.039288 0)
(-0.141137 -0.0148174 0)
(-0.1572 -0.0762446 0)
(-0.174739 -0.1451 0)
(-0.192471 -0.220825 0)
(-0.208118 -0.301456 0)
(-0.21811 -0.382434 0)
(-0.217559 -0.454968 0)
(-0.20099 -0.504439 0)
(-0.164334 -0.510367 0)
(-0.108602 -0.450871 0)
(-0.0463577 -0.314469 0)
(-0.00804422 -0.11462 0)
(-0.000897392 0.0530658 0)
(-0.00563443 0.135228 0)
(-0.0142376 0.194523 0)
(-0.0236239 0.234476 0)
(-0.0322376 0.2593 0)
(-0.0393349 0.27288 0)
(-0.0446135 0.278337 0)
(-0.0480902 0.277913 0)
(-0.0499902 0.273036 0)
(-0.0506644 0.264474 0)
(-0.0505432 0.252509 0)
(-0.0501101 0.23709 0)
(-0.0498847 0.217959 0)
(-0.0504103 0.194733 0)
(-0.052241 0.166966 0)
(-0.0559274 0.134167 0)
(-0.0619935 0.095802 0)
(-0.0709009 0.0512807 0)
(-0.0829995 -4.76017e-05 0)
(-0.0984424 -0.0588817 0)
(-0.117044 -0.125852 0)
(-0.138046 -0.201224 0)
(-0.159744 -0.284248 0)
(-0.179 -0.371918 0)
(-0.190799 -0.456933 0)
(-0.188399 -0.524956 0)
(-0.164799 -0.552538 0)
(-0.116696 -0.509322 0)
(-0.0536916 -0.370644 0)
(-0.0102447 -0.141035 0)
(-0.00127903 0.0562715 0)
(-0.00710563 0.142723 0)
(-0.0166739 0.203524 0)
(-0.025829 0.242922 0)
(-0.0327909 0.26604 0)
(-0.036969 0.277446 0)
(-0.0383264 0.280699 0)
(-0.0371555 0.278303 0)
(-0.0339214 0.271834 0)
(-0.0291682 0.262148 0)
(-0.0234796 0.249582 0)
(-0.0174616 0.23412 0)
(-0.0117358 0.215532 0)
(-0.0069362 0.193451 0)
(-0.00370344 0.167434 0)
(-0.0026813 0.136979 0)
(-0.00450118 0.101522 0)
(-0.00975479 0.0604101 0)
(-0.0189727 0.0128734 0)
(-0.0325766 -0.0419984 0)
(-0.0507763 -0.105223 0)
(-0.0733808 -0.177749 0)
(-0.0994388 -0.259991 0)
(-0.126637 -0.350739 0)
(-0.150484 -0.444988 0)
(-0.163716 -0.530238 0)
(-0.156778 -0.582033 0)
(-0.12131 -0.562308 0)
(-0.0615289 -0.429822 0)
(-0.0131863 -0.172089 0)
(-0.00213142 0.0606952 0)
(-0.010205 0.151943 0)
(-0.0218744 0.213269 0)
(-0.0312944 0.250538 0)
(-0.0364972 0.270397 0)
(-0.0372646 0.278358 0)
(-0.0340169 0.278477 0)
(-0.0274554 0.273484 0)
(-0.0183659 0.265043 0)
(-0.0075253 0.25404 0)
(0.00431675 0.240817 0)
(0.0164385 0.225367 0)
(0.0281365 0.207462 0)
(0.0387109 0.186741 0)
(0.0474641 0.162763 0)
(0.0536977 0.135019 0)
(0.0567156 0.102933 0)
(0.0558319 0.0658304 0)
(0.0503761 0.0228863 0)
(0.0397089 -0.026914 0)
(0.0232775 -0.0848091 0)
(0.000730086 -0.152209 0)
(-0.0278012 -0.230468 0)
(-0.0611133 -0.320137 0)
(-0.0958595 -0.419035 0)
(-0.125227 -0.518052 0)
(-0.138012 -0.594412 0)
(-0.120675 -0.604775 0)
(-0.0696897 -0.489466 0)
(-0.0172369 -0.208554 0)
(-0.00388297 0.0676127 0)
(-0.0160004 0.164438 0)
(-0.0311293 0.224622 0)
(-0.0410742 0.257422 0)
(-0.0439493 0.271927 0)
(-0.0403233 0.274881 0)
(-0.0313556 0.27083 0)
(-0.0183171 0.262624 0)
(-0.00239297 0.251901 0)
(0.0153786 0.239476 0)
(0.0340887 0.225629 0)
(0.0529216 0.210313 0)
(0.0711182 0.193273 0)
(0.0879473 0.174139 0)
(0.102689 0.152466 0)
(0.114623 0.127748 0)
(0.123017 0.0994129 0)
(0.127126 0.0667909 0)
(0.126173 0.0290665 0)
(0.119345 -0.01478 0)
(0.105808 -0.0660485 0)
(0.0847449 -0.126355 0)
(0.0555144 -0.197649 0)
(0.0180988 -0.281912 0)
(-0.0257734 -0.379839 0)
(-0.0708155 -0.486995 0)
(-0.105613 -0.585351 0)
(-0.112182 -0.630598 0)
(-0.0774772 -0.545541 0)
(-0.0228128 -0.251321 0)
(-0.00734198 0.079281 0)
(-0.0261509 0.182299 0)
(-0.04583 0.238248 0)
(-0.055566 0.263071 0)
(-0.0543714 0.269486 0)
(-0.0443153 0.265635 0)
(-0.0276691 0.256383 0)
(-0.00643426 0.244477 0)
(0.0177566 0.231332 0)
(0.0436155 0.217553 0)
(0.0701104 0.203269 0)
(0.0963767 0.188329 0)
(0.121648 0.172422 0)
(0.145206 0.155152 0)
(0.166348 0.136067 0)
(0.184364 0.114673 0)
(0.198518 0.0904207 0)
(0.208027 0.0626813 0)
(0.212043 0.0307004 0)
(0.209608 -0.00646308 0)
(0.199672 -0.0500358 0)
(0.181051 -0.101604 0)
(0.15246 -0.163327 0)
(0.112793 -0.238066 0)
(0.0619113 -0.328935 0)
(0.00258996 -0.436677 0)
(-0.055439 -0.550936 0)
(-0.0916079 -0.632486 0)
(-0.0828157 -0.591695 0)
(-0.0300017 -0.30106 0)
(-0.0139065 0.099623 0)
(-0.0428479 0.207796 0)
(-0.0662864 0.253674 0)
(-0.0722519 0.265403 0)
(-0.0626689 0.260415 0)
(-0.0421686 0.247993 0)
(-0.014501 0.232825 0)
(0.0175404 0.217131 0)
(0.0519418 0.201818 0)
(0.0872736 0.187102 0)
(0.122492 0.17285 0)
(0.156783 0.158754 0)
(0.189458 0.144417 0)
(0.21988 0.129409 0)
(0.247421 0.113277 0)
(0.271427 0.0955528 0)
(0.291192 0.0757366 0)
(0.305936 0.0532738 0)
(0.314768 0.0275175 0)
(0.316626 -0.00233073 0)
(0.310318 -0.0372977 0)
(0.294397 -0.0787797 0)
(0.267118 -0.128799 0)
(0.226519 -0.190441 0)
(0.170779 -0.268333 0)
(0.099648 -0.367828 0)
(0.0189201 -0.488234 0)
(-0.0516708 -0.602097 0)
(-0.0807347 -0.618407 0)
(-0.0375728 -0.358086 0)
(-0.0254028 0.135204 0)
(-0.0671874 0.241106 0)
(-0.0869945 0.266383 0)
(-0.0789917 0.258342 0)
(-0.0520587 0.238899 0)
(-0.0143357 0.217129 0)
(0.0290554 0.196464 0)
(0.0749031 0.177928 0)
(0.121208 0.16155 0)
(0.166738 0.146981 0)
(0.2107 0.133747 0)
(0.252532 0.121352 0)
(0.291769 0.109316 0)
(0.327967 0.0971859 0)
(0.360652 0.0845304 0)
(0.389293 0.070933 0)
(0.413269 0.0559739 0)
(0.431855 0.0392069 0)
(0.444176 0.0201287 0)
(0.449149 -0.0018756 0)
(0.445524 -0.0275124 0)
(0.431697 -0.0578912 0)
(0.405675 -0.0946506 0)
(0.364967 -0.140508 0)
(0.306498 -0.200328 0)
(0.227102 -0.282322 0)
(0.127317 -0.395489 0)
(0.0203287 -0.530911 0)
(-0.061166 -0.612418 0)
(-0.0408987 -0.421675 0)
(-0.041274 0.19737 0)
(-0.0901761 0.272803 0)
(-0.0798471 0.259295 0)
(-0.0363593 0.226266 0)
(0.0213404 0.193285 0)
(0.0835511 0.165155 0)
(0.145713 0.142374 0)
(0.205641 0.12412 0)
(0.262362 0.109335 0)
(0.315516 0.0970844 0)
(0.365001 0.0866106 0)
(0.410785 0.0773021 0)
(0.452813 0.0686594 0)
(0.490954 0.0602653 0)
(0.524982 0.0517613 0)
(0.554553 0.0428269 0)
(0.579198 0.0331609 0)
(0.598313 0.0224621 0)
(0.611103 0.0104034 0)
(0.616638 -0.00342772 0)
(0.613717 -0.0194118 0)
(0.600721 -0.0382607 0)
(0.575673 -0.061063 0)
(0.535915 -0.0897368 0)
(0.477723 -0.128135 0)
(0.395801 -0.184425 0)
(0.284849 -0.273869 0)
(0.145792 -0.41057 0)
(-0.00349163 -0.553992 0)
(-0.0254129 -0.47748 0)
(-0.0341052 0.293791 0)
(-0.0478287 0.272685 0)
(0.0538493 0.199591 0)
(0.156914 0.149685 0)
(0.249779 0.114822 0)
(0.331909 0.089905 0)
(0.40424 0.0722478 0)
(0.467971 0.0596232 0)
(0.524388 0.0503236 0)
(0.574636 0.0431969 0)
(0.6196 0.0374851 0)
(0.659903 0.032671 0)
(0.695939 0.0283844 0)
(0.727905 0.0243499 0)
(0.755823 0.0203526 0)
(0.779557 0.0162166 0)
(0.798824 0.0117878 0)
(0.813202 0.00692564 0)
(0.822041 0.00148303 0)
(0.824723 -0.00459423 0)
(0.820278 -0.0116469 0)
(0.807385 -0.0199418 0)
(0.784417 -0.0299381 0)
(0.749055 -0.0425629 0)
(0.697697 -0.0598588 0)
(0.624245 -0.0869032 0)
(0.518444 -0.137211 0)
(0.365099 -0.240303 0)
(0.144099 -0.406983 0)
(0.0588562 -0.458305 0)
(0.303228 0.180912 0)
(0.382478 0.144261 0)
(0.560717 0.0911074 0)
(0.6865 0.0589629 0)
(0.769199 0.0393342 0)
(0.828833 0.0268496 0)
(0.874761 0.0189487 0)
(0.911351 0.0139551 0)
(0.941323 0.0107219 0)
(0.966496 0.00853427 0)
(0.988026 0.00696621 0)
(1.00662 0.00576067 0)
(1.02269 0.004757 0)
(1.03646 0.00385097 0)
(1.04802 0.00297175 0)
(1.05732 0.00206821 0)
(1.06424 0.00109925 0)
(1.06859 3.41258e-05 0)
(1.07012 -0.00117017 0)
(1.06845 -0.00240753 0)
(1.06305 -0.00388442 0)
(1.05344 -0.0056371 0)
(1.03883 -0.00773827 0)
(1.01803 -0.0103938 0)
(0.988989 -0.0141015 0)
(0.947585 -0.0202036 0)
(0.884023 -0.0325912 0)
(0.776373 -0.0637641 0)
(0.544827 -0.139471 0)
(0.382491 -0.201739 0)
)
;

boundaryField
{
    movingWall
    {
        type            fixedValue;
        value           uniform (1.2 0 0);
    }
    fixedWalls
    {
        type            noSlip;
    }
    frontAndBack
    {
        type            empty;
    }
}


// ************************************************************************* //
