/*--------------------------------*- C++ -*----------------------------------*\
  =========                 |
  \\      /  F ield         | OpenFOAM: The Open Source CFD Toolbox
   \\    /   O peration     | Website:  https://openfoam.org
    \\  /    A nd           | Version:  7
     \\/     M anipulation  |
\*---------------------------------------------------------------------------*/
FoamFile
{
    version     2.0;
    format      ascii;
    class       volScalarField;
    location    "0.8";
    object      p;
}
// * * * * * * * * * * * * * * * * * * * * * * * * * * * * * * * * * * * * * //

dimensions      [0 2 -2 0 0 0 0];

internalField   nonuniform List<scalar> 
900
(
-3.90295e-09
-0.000253691
-0.00049734
-0.000658611
-0.000683979
-0.000551398
-0.000259037
0.000186238
0.000774556
0.00149507
0.00233636
0.00328614
0.00433073
0.00545465
0.0066402
0.00786735
0.00911363
0.0103543
0.0115626
0.0127102
0.0137676
0.0147054
0.015495
0.0161103
0.0165304
0.0167433
0.0167533
0.0165924
0.01633
0.0160525
0.000250634
-5.4425e-06
-0.000182364
-0.000271771
-0.000249496
-9.62355e-05
0.000193936
0.000619496
0.00117529
0.00185392
0.00264619
0.00354123
0.00452633
0.00558673
0.00670545
0.00786319
0.00903837
0.0102073
0.0113445
0.0124233
0.0134163
0.0142969
0.0150401
0.0156249
0.0160361
0.0162677
0.016328
0.0162453
0.0160562
0.0157782
0.000499166
0.000165027
-1.71178e-05
-8.88565e-05
-5.16551e-05
0.000108303
0.000396013
0.000810742
0.00134897
0.00200496
0.00277096
0.0036372
0.00459187
0.00562092
0.00670797
0.00783426
0.00897875
0.0101181
0.0112275
0.0122804
0.0132504
0.0141115
0.0148397
0.0154153
0.0158246
0.0160623
0.0161355
0.0160677
0.01587
0.0155098
0.000672358
0.000245095
3.1434e-05
-4.66698e-05
-1.02179e-05
0.000149088
0.000433684
0.000841924
0.0013706
0.00201486
0.0027679
0.00362093
0.00456294
0.0055806
0.00665806
0.00777694
0.0089164
0.0100532
0.0111623
0.012217
0.0131904
0.0140558
0.014789
0.0153695
0.0157827
0.0160218
0.0160917
0.0160113
0.0157747
0.0153153
0.0007113
0.000202635
-4.57338e-05
-0.000137828
-0.000108164
4.75028e-05
0.000329254
0.000734315
0.00125943
0.00190026
0.0026508
0.00350302
0.00444671
0.00546914
0.00655494
0.00768593
0.00884134
0.00999756
0.0111289
0.0122077
0.0132058
0.0140951
0.0148494
0.0154468
0.0158707
0.0161121
0.0161739
0.0160728
0.0157927
0.0152455
0.000583864
7.07047e-06
-0.00027478
-0.00038375
-0.000363334
-0.000211916
6.87816e-05
0.000474985
0.00100329
0.00164972
0.00240888
0.00327348
0.00423397
0.0052782
0.00639117
0.00755483
0.00874811
0.00994679
0.011124
0.0122505
0.0132958
0.0142295
0.0150228
0.0156506
0.0160939
0.0163413
0.0163944
0.0162694
0.0159457
0.0153218
0.000274974
-0.000361348
-0.000675005
-0.000801473
-0.000790521
-0.00064217
-0.000359465
5.30234e-05
0.000591766
0.00125311
0.00203225
0.00292257
0.00391518
0.00499849
0.00615782
0.00737517
0.00862898
0.0098941
0.0111419
0.0123411
0.013458
0.0144587
0.0153104
0.0159844
0.0164581
0.0167175
0.0167634
0.0166133
0.0162453
0.0155491
-0.000224257
-0.00091725
-0.00126196
-0.00140558
-0.00140305
-0.00125547
-0.00096691
-0.000542575
1.39594e-05
0.000699417
0.0015096
0.00243865
0.0034784
0.00461787
0.00584274
0.00713503
0.00847262
0.00982915
0.011174
0.0124727
0.0136879
0.0147808
0.0157136
0.0164523
0.0169698
0.0172493
0.0172907
0.0171145
0.0166993
0.0159275
-0.000922409
-0.00167444
-0.00205104
-0.00221153
-0.00221596
-0.00206641
-0.00176785
-0.00132606
-0.000744586
-2.62372e-05
0.000825529
0.00180572
0.00290707
0.00411937
0.00542883
0.00681756
0.00826293
0.00973723
0.0112075
0.0126356
0.0139793
0.0151939
0.0162346
0.0170605
0.0176388
0.0179485
0.0179892
0.0177851
0.0173165
0.0164584
-0.00183049
-0.00264811
-0.0030591
-0.00323665
-0.00324671
-0.00309244
-0.00277985
-0.0023153
-0.00170227
-0.000942998
-4.00115e-05
0.00100279
0.00217929
0.00348033
0.00489298
0.00639971
0.00797757
0.00959761
0.0112243
0.0128153
0.0143226
0.0156937
0.016875
0.0178165
0.0184771
0.0188304
0.018875
0.01864
0.0181081
0.0171455
-0.00296321
-0.00385623
-0.00430559
-0.00450104
-0.00451574
-0.00435427
-0.00402398
-0.00353198
-0.00288165
-0.00207451
-0.00111195
3.52358e-06
0.00126731
0.00267175
0.0042052
0.00585103
0.00758648
0.00938167
0.0111985
0.0129903
0.014702
0.0162717
0.0176344
0.0187276
0.0194989
0.0199137
0.0199684
0.019698
0.0190886
0.0179959
-0.00433965
-0.00532066
-0.00581369
-0.00602849
-0.00604717
-0.0058764
-0.00552527
-0.00500192
-0.00430966
-0.00344914
-0.00242037
-0.00122408
0.000137088
0.00165756
0.00332768
0.00513246
0.00705014
0.00905073
0.0110941
0.0131291
0.0150927
0.016912
0.0185073
0.0197994
0.0207197
0.0212209
0.0212952
0.0209837
0.0202771
0.0190187
-0.00598368
-0.00706806
-0.00761127
-0.00784734
-0.00786958
-0.00768764
-0.00731305
-0.00675533
-0.00601781
-0.00510014
-0.00400064
-0.0027179
-0.00125203
0.000394159
0.00221387
0.00419487
0.00631763
0.00855341
0.0108612
0.0131858
0.0154565
0.017587
0.0194796
0.0210328
0.0221547
0.0227788
0.0228879
0.0225291
0.0216988
0.0202248
-0.00792449
-0.00913085
-0.00973196
-0.0099914
-0.0100167
-0.00982168
-0.0094213
-0.00882699
-0.00804222
-0.00706552
-0.0058933
-0.00452157
-0.00294735
-0.00116992
0.000807851
0.00297785
0.00532449
0.00782255
0.0104319
0.0130954
0.0157351
0.0182507
0.0205222
0.0224192
0.0238167
0.0246179
0.0247879
0.0243771
0.0233873
0.0216262
-0.0101975
-0.0115486
-0.0122165
-0.0125012
-0.0125282
-0.0123177
-0.011889
-0.0112563
-0.0104235
-0.00938783
-0.00814365
-0.00668404
-0.0050024
-0.00309372
-0.000955792
0.00140887
0.00399058
0.00677198
0.00971581
0.0127665
0.0158418
0.018828
0.0215803
0.023931
0.0257091
0.0267705
0.0270475
0.026586
0.0253894
0.0232366
-0.0128457
-0.01437
-0.0151147
-0.0154252
-0.0154511
-0.0152207
-0.0147603
-0.0140872
-0.0132062
-0.0121134
-0.0108008
-0.00925833
-0.00747555
-0.00544248
-0.00315085
-0.000596087
0.00221888
0.00529427
0.00859448
0.0120731
0.0156495
0.0192008
0.0225571
0.0255064
0.0278146
0.0292657
0.0297321
0.0292374
0.0277746
0.0250751
-0.0159223
-0.0176559
-0.0184881
-0.0188225
-0.0188405
-0.0185829
-0.0180846
-0.0173678
-0.0164382
-0.0152909
-0.0139157
-0.0122993
-0.0104273
-0.00828467
-0.00585629
-0.00312766
-8.57597e-05
0.00326267
0.00691852
0.0108466
0.0149769
0.0191872
0.0232889
0.0270222
0.0300719
0.0321148
0.0329187
0.032447
0.0306503
0.0271769
-0.0194946
-0.0214843
-0.0224142
-0.0227651
-0.0227618
-0.0224635
-0.0219166
-0.0211495
-0.0201691
-0.0189695
-0.0175382
-0.0158595
-0.0139155
-0.0116865
-0.00915099
-0.00628557
-0.00306607
0.000526574
0.00450805
0.00887211
0.0135765
0.0185191
0.0235106
0.0282524
0.0323348
0.0352818
0.0366856
0.0363756
0.0341885
0.0296168
-0.0236509
-0.0259577
-0.0269926
-0.0273417
-0.0272924
-0.0269296
-0.0263154
-0.0254851
-0.0244471
-0.0231942
-0.0217122
-0.0199832
-0.0179871
-0.0157013
-0.0130994
-0.0101501
-0.00681647
-0.00305744
0.00116955
0.00589796
0.0111338
0.0168258
0.0228209
0.028814
0.0343066
0.0386247
0.0410807
0.0412362
0.0386636
0.0325563
-0.0285123
-0.031216
-0.0323538
-0.0326633
-0.0325231
-0.0320554
-0.0313418
-0.0304253
-0.0293144
-0.0280002
-0.0264667
-0.0246953
-0.0226656
-0.0203545
-0.0177341
-0.0147686
-0.0114116
-0.00760298
-0.00326926
0.00167219
0.00729832
0.0136491
0.0206694
0.0281189
0.0354621
0.0418063
0.0460556
0.0472825
0.0445029
0.03633
-0.0342549
-0.0374563
-0.0386725
-0.0388676
-0.0385581
-0.0379183
-0.0370526
-0.0360099
-0.0347966
-0.0334002
-0.0318029
-0.0299862
-0.0279321
-0.0256208
-0.0230278
-0.0201191
-0.0168459
-0.0131365
-0.00888973
-0.00397537
0.00177393
0.00853312
0.0164264
0.0254002
0.0350115
0.044207
0.0513729
0.0547737
0.0523497
0.0416021
-0.0411493
-0.0449668
-0.0461849
-0.0461232
-0.0455095
-0.0445881
-0.0434857
-0.0422513
-0.0408838
-0.0393638
-0.0376704
-0.0357863
-0.0336982
-0.0313939
-0.0288581
-0.0260668
-0.022979
-0.0195248
-0.0155891
-0.0110005
-0.00550697
0.00123738
0.00961964
0.0199323
0.0320541
0.0449759
0.0565779
0.0639525
0.0631485
0.0496548
-0.0496402
-0.0541815
-0.0552104
-0.0546251
-0.0534778
-0.052099
-0.0506271
-0.0490981
-0.0474927
-0.0457788
-0.0439298
-0.0419293
-0.0397704
-0.0374517
-0.0349722
-0.0323251
-0.0294881
-0.0264096
-0.0229817
-0.0189977
-0.0141623
-0.00794119
0.000367848
0.0115516
0.026108
0.0434569
0.0612521
0.0751747
0.0783192
0.0629187
-0.0605076
-0.0657696
-0.066168
-0.0645659
-0.0625011
-0.0603875
-0.0583436
-0.0563655
-0.0543985
-0.0523872
-0.0502942
-0.0481017
-0.0458082
-0.0434236
-0.040963
-0.0384404
-0.0358579
-0.0331906
-0.0303551
-0.0271569
-0.0232135
-0.0178861
-0.0101474
0.0013464
0.0179921
0.0401155
0.0657653
0.0893986
0.100184
0.0858793
-0.0752243
-0.0807715
-0.079549
-0.0760381
-0.0724303
-0.0691586
-0.0662492
-0.06361
-0.0611214
-0.0586878
-0.0562507
-0.0537839
-0.0512866
-0.0487752
-0.0462769
-0.0438221
-0.0414335
-0.0391081
-0.0367847
-0.034281
-0.0311689
-0.0266877
-0.0195412
-0.00799546
0.0105488
0.0375839
0.0723827
0.109101
0.132796
0.126175
-0.0967861
-0.100794
-0.0957481
-0.0887746
-0.0826601
-0.0776286
-0.0734729
-0.0699319
-0.0667702
-0.0638212
-0.0609846
-0.0582114
-0.0554896
-0.0528321
-0.0502675
-0.0478304
-0.0455486
-0.0434217
-0.0413821
-0.0392266
-0.0364914
-0.0322157
-0.0247942
-0.0128859
0.00831285
0.0408362
0.0859393
0.13922
0.182782
0.194823
-0.131622
-0.128209
-0.114743
-0.101777
-0.0917816
-0.0842339
-0.0784491
-0.0738521
-0.0699965
-0.0665877
-0.0634462
-0.0604754
-0.057635
-0.0549209
-0.0523499
-0.0499452
-0.0477194
-0.0456464
-0.0436154
-0.0413592
-0.0383377
-0.0333306
-0.024667
-0.00972786
0.015589
0.0553214
0.112758
0.18679
0.259005
0.306624
-0.194359
-0.165011
-0.135379
-0.11286
-0.0972946
-0.0865597
-0.0790702
-0.0736225
-0.0693987
-0.0658881
-0.0627896
-0.0599374
-0.057252
-0.0547056
-0.0522972
-0.0500304
-0.0478884
-0.0457981
-0.0435721
-0.0408195
-0.036806
-0.0302518
-0.0189648
0.000279141
0.0320832
0.082032
0.156003
0.256149
0.370043
0.49264
-0.327037
-0.205617
-0.147643
-0.113085
-0.0919847
-0.0792767
-0.0716211
-0.066763
-0.0633683
-0.0607148
-0.058419
-0.0562836
-0.0542207
-0.0522035
-0.0502323
-0.0483057
-0.0463888
-0.0443707
-0.0419961
-0.0387602
-0.0337477
-0.0256128
-0.011816
0.0113841
0.0494509
0.109979
0.202983
0.339331
0.525111
0.814988
-0.652165
-0.24028
-0.114988
-0.0770982
-0.059667
-0.0515122
-0.048779
-0.048403
-0.0486835
-0.048938
-0.0489296
-0.0485945
-0.0479502
-0.0470521
-0.0459622
-0.0447225
-0.0433256
-0.0416752
-0.0395252
-0.0363945
-0.0314342
-0.0230672
-0.00882517
0.0149574
0.0539943
0.117328
0.220584
0.394772
0.697493
1.2913
)
;

boundaryField
{
    movingWall
    {
        type            zeroGradient;
    }
    fixedWalls
    {
        type            zeroGradient;
    }
    frontAndBack
    {
        type            empty;
    }
}


// ************************************************************************* //
