/*--------------------------------*- C++ -*----------------------------------*\
  =========                 |
  \\      /  F ield         | OpenFOAM: The Open Source CFD Toolbox
   \\    /   O peration     | Website:  https://openfoam.org
    \\  /    A nd           | Version:  7
     \\/     M anipulation  |
\*---------------------------------------------------------------------------*/
FoamFile
{
    version     2.0;
    format      ascii;
    class       volVectorField;
    location    "0.8";
    object      U;
}
// * * * * * * * * * * * * * * * * * * * * * * * * * * * * * * * * * * * * * //

dimensions      [0 1 -1 0 0 0 0];

internalField   nonuniform List<vector> 
900
(
(6.30497e-05 -6.24197e-05 0)
(-1.88517e-05 4.40942e-05 0)
(-0.000449821 0.000157791 0)
(-0.00111334 0.000229929 0)
(-0.00191659 0.000265222 0)
(-0.00278161 0.000275221 0)
(-0.00365194 0.00026974 0)
(-0.0044911 0.000255367 0)
(-0.00527608 0.000235764 0)
(-0.00599146 0.000212615 0)
(-0.00662556 0.000186513 0)
(-0.00716836 0.000157567 0)
(-0.00761054 0.000125733 0)
(-0.00794322 9.09936e-05 0)
(-0.00815803 5.34351e-05 0)
(-0.00824738 1.32769e-05 0)
(-0.00820478 -2.91245e-05 0)
(-0.00802533 -7.32174e-05 0)
(-0.00770619 -0.000118272 0)
(-0.00724724 -0.000163333 0)
(-0.0066518 -0.000207145 0)
(-0.00592777 -0.000247989 0)
(-0.00508932 -0.000283414 0)
(-0.0041594 -0.000309775 0)
(-0.00317339 -0.000321629 0)
(-0.00218404 -0.00031118 0)
(-0.00126571 -0.000268458 0)
(-0.000512266 -0.000183133 0)
(-2.65559e-05 -5.32264e-05 0)
(6.81798e-05 6.62593e-05 0)
(-4.21131e-05 1.74522e-05 0)
(-0.000550753 0.000550098 0)
(-0.00176452 0.00105463 0)
(-0.0034412 0.00139546 0)
(-0.00540232 0.00157825 0)
(-0.00749899 0.00163917 0)
(-0.00961165 0.00161554 0)
(-0.0116545 0.0015362 0)
(-0.0135681 0.00141982 0)
(-0.0153106 0.00127691 0)
(-0.0168498 0.00111282 0)
(-0.0181593 0.000930088 0)
(-0.0192158 0.00073009 0)
(-0.0199986 0.000513938 0)
(-0.0204889 0.000283016 0)
(-0.0206706 3.92417e-05 0)
(-0.0205305 -0.000214806 0)
(-0.0200598 -0.000475576 0)
(-0.0192546 -0.000738539 0)
(-0.0181179 -0.000997857 0)
(-0.016661 -0.0012459 0)
(-0.0149063 -0.00147248 0)
(-0.0128911 -0.00166358 0)
(-0.0106724 -0.00179978 0)
(-0.00833358 -0.00185461 0)
(-0.00599176 -0.0017943 0)
(-0.00380012 -0.00158147 0)
(-0.00193697 -0.00118606 0)
(-0.000600052 -0.000614762 0)
(-4.4696e-05 -2.38185e-05 0)
(-0.000158906 0.000448824 0)
(-0.0010813 0.00176964 0)
(-0.00297279 0.00291131 0)
(-0.00545426 0.00369425 0)
(-0.00828763 0.00412661 0)
(-0.0112868 0.00427511 0)
(-0.0142974 0.00421566 0)
(-0.017204 0.0040114 0)
(-0.0199239 0.0037063 0)
(-0.0223964 0.00332742 0)
(-0.0245751 0.00289011 0)
(-0.0264217 0.00240289 0)
(-0.0279035 0.00187101 0)
(-0.0289917 0.0012987 0)
(-0.0296613 0.000690547 0)
(-0.0298911 5.22051e-05 0)
(-0.0296646 -0.00060913 0)
(-0.0289711 -0.00128404 0)
(-0.0278075 -0.00196063 0)
(-0.0261797 -0.00262367 0)
(-0.0241056 -0.00325343 0)
(-0.0216184 -0.00382379 0)
(-0.0187712 -0.00429968 0)
(-0.0156435 -0.00463403 0)
(-0.0123487 -0.00476569 0)
(-0.00904112 -0.00462111 0)
(-0.00591707 -0.004125 0)
(-0.00319923 -0.00322478 0)
(-0.00115027 -0.00193972 0)
(-0.000165002 -0.000487167 0)
(-0.000241598 0.00113673 0)
(-0.00148998 0.00351051 0)
(-0.00393134 0.00542855 0)
(-0.00704977 0.00672714 0)
(-0.0105527 0.00744107 0)
(-0.0142274 0.00767865 0)
(-0.0178982 0.00756056 0)
(-0.0214324 0.00718874 0)
(-0.0247334 0.00663618 0)
(-0.0277295 0.00594961 0)
(-0.0303648 0.00515686 0)
(-0.0325937 0.00427438 0)
(-0.0343773 0.00331288 0)
(-0.0356815 0.00228106 0)
(-0.0364772 0.00118788 0)
(-0.0367399 4.39727e-05 0)
(-0.0364506 -0.0011375 0)
(-0.0355974 -0.00233973 0)
(-0.0341771 -0.00354154 0)
(-0.0321975 -0.00471596 0)
(-0.0296802 -0.00582811 0)
(-0.0266652 -0.00683227 0)
(-0.0232156 -0.00766783 0)
(-0.0194252 -0.00825505 0)
(-0.0154258 -0.00849272 0)
(-0.0113957 -0.00826212 0)
(-0.00755959 -0.00744387 0)
(-0.00417307 -0.00595325 0)
(-0.00155756 -0.00380052 0)
(-0.000244894 -0.00120836 0)
(-0.000295112 0.00201181 0)
(-0.00178626 0.00565211 0)
(-0.00465989 0.00845473 0)
(-0.00828228 0.0103154 0)
(-0.0123105 0.011322 0)
(-0.0165081 0.0116384 0)
(-0.0206834 0.0114371 0)
(-0.0246924 0.0108621 0)
(-0.0284304 0.0100178 0)
(-0.0318193 0.00897186 0)
(-0.034798 0.00776589 0)
(-0.0373162 0.00642524 0)
(-0.0393309 0.0049669 0)
(-0.0408047 0.0034047 0)
(-0.0417051 0.00175263 0)
(-0.0420049 2.68264e-05 0)
(-0.0416825 -0.00175284 0)
(-0.0407236 -0.00356146 0)
(-0.0391238 -0.0053675 0)
(-0.0368902 -0.00713074 0)
(-0.0340455 -0.00879926 0)
(-0.0306327 -0.0103052 0)
(-0.0267212 -0.0115594 0)
(-0.0224142 -0.012446 0)
(-0.0178574 -0.0128197 0)
(-0.0132483 -0.0125119 0)
(-0.00883655 -0.0113519 0)
(-0.00491034 -0.00921038 0)
(-0.00184635 -0.00606582 0)
(-0.000293235 -0.00211065 0)
(-0.000330553 0.00302045 0)
(-0.0020064 0.00810625 0)
(-0.00522739 0.0118928 0)
(-0.0092636 0.014359 0)
(-0.0137265 0.0156675 0)
(-0.0183563 0.0160517 0)
(-0.0229466 0.0157441 0)
(-0.0273447 0.0149354 0)
(-0.0314407 0.0137632 0)
(-0.0351528 0.0123175 0)
(-0.0384167 0.0106543 0)
(-0.0411796 0.00880823 0)
(-0.0433958 0.00680273 0)
(-0.0450253 0.00465692 0)
(-0.0460325 0.00238974 0)
(-0.0463868 2.28765e-05 0)
(-0.0460633 -0.00241694 0)
(-0.045044 -0.0048966 0)
(-0.0433205 -0.00737364 0)
(-0.0408969 -0.00979355 0)
(-0.0377941 -0.0120857 0)
(-0.0340554 -0.0141577 0)
(-0.0297535 -0.0158886 0)
(-0.0249991 -0.0171221 0)
(-0.0199512 -0.0176639 0)
(-0.0148272 -0.0172889 0)
(-0.00990478 -0.0157666 0)
(-0.00550753 -0.012911 0)
(-0.00206555 -0.00865263 0)
(-0.000324182 -0.00314063 0)
(-0.000357494 0.00413005 0)
(-0.0021876 0.0108145 0)
(-0.00571013 0.0156781 0)
(-0.0101139 0.0187939 0)
(-0.0149682 0.0204155 0)
(-0.0199897 0.0208591 0)
(-0.0249573 0.0204253 0)
(-0.0297102 0.0193567 0)
(-0.0341342 0.0178267 0)
(-0.0381451 0.0159491 0)
(-0.0416772 0.0137943 0)
(-0.0446758 0.0114063 0)
(-0.0470937 0.00881487 0)
(-0.0488882 0.00604389 0)
(-0.0500207 0.00311678 0)
(-0.0504563 6.01624e-05 0)
(-0.0501652 -0.00309313 0)
(-0.0491237 -0.00630186 0)
(-0.0473171 -0.00951263 0)
(-0.0447433 -0.0126559 0)
(-0.0414184 -0.0156406 0)
(-0.0373829 -0.018347 0)
(-0.0327111 -0.0206181 0)
(-0.027521 -0.0222517 0)
(-0.0219863 -0.0229974 0)
(-0.0163483 -0.0225651 0)
(-0.0109181 -0.0206553 0)
(-0.00606061 -0.0170152 0)
(-0.00226039 -0.0115184 0)
(-0.000348819 -0.0042714 0)
(-0.000382749 0.00532806 0)
(-0.00235995 0.0137526 0)
(-0.00617363 0.019784 0)
(-0.010937 0.023596 0)
(-0.0161784 0.0255454 0)
(-0.0215901 0.0260426 0)
(-0.0269355 0.0254655 0)
(-0.0320454 0.0241138 0)
(-0.0368018 0.0222002 0)
(-0.0411189 0.0198629 0)
(-0.04493 0.0171878 0)
(-0.0481799 0.0142278 0)
(-0.0508198 0.0110184 0)
(-0.0528048 0.00758733 0)
(-0.0540926 0.00396144 0)
(-0.0546434 0.000171098 0)
(-0.0544206 -0.00374614 0)
(-0.0533925 -0.00774171 0)
(-0.051535 -0.0117516 0)
(-0.0488365 -0.0156908 0)
(-0.0453043 -0.019446 0)
(-0.0409734 -0.0228665 0)
(-0.0359173 -0.0257536 0)
(-0.0302614 -0.0278515 0)
(-0.0241969 -0.0288441 0)
(-0.0179947 -0.028366 0)
(-0.0120074 -0.0260383 0)
(-0.00664953 -0.0215327 0)
(-0.0024657 -0.0146625 0)
(-0.000374437 -0.00549939 0)
(-0.000410601 0.00661649 0)
(-0.00254485 0.0169245 0)
(-0.00666732 0.0242181 0)
(-0.0118129 0.0287764 0)
(-0.0174668 0.031071 0)
(-0.0232955 0.031618 0)
(-0.0290459 0.0308814 0)
(-0.0345399 0.0292245 0)
(-0.0396557 0.0269024 0)
(-0.0443065 0.0240799 0)
(-0.0484255 0.0208583 0)
(-0.0519575 0.0172995 0)
(-0.0548529 0.0134434 0)
(-0.0570647 0.00932064 0)
(-0.0585468 0.00495972 0)
(-0.0592534 0.00039281 0)
(-0.0591395 -0.00433958 0)
(-0.0581626 -0.00918338 0)
(-0.0562858 -0.0140651 0)
(-0.0534836 -0.018884 0)
(-0.0497501 -0.0235026 0)
(-0.04511 -0.0277348 0)
(-0.0396333 -0.0313328 0)
(-0.0334522 -0.0339769 0)
(-0.0267784 -0.0352723 0)
(-0.0199197 -0.0347649 0)
(-0.0132807 -0.0319838 0)
(-0.00733771 -0.0265181 0)
(-0.00270668 -0.0181198 0)
(-0.000405337 -0.00683732 0)
(-0.000443604 0.00800683 0)
(-0.00275679 0.0203549 0)
(-0.00722646 0.0290127 0)
(-0.0127994 0.0343718 0)
(-0.0189132 0.0370307 0)
(-0.0252059 0.0376236 0)
(-0.0314063 0.0367106 0)
(-0.0373269 0.0347251 0)
(-0.0428427 0.0319689 0)
(-0.0478664 0.0286354 0)
(-0.0523325 0.024842 0)
(-0.0561865 0.0206588 0)
(-0.059379 0.0161296 0)
(-0.0618617 0.0112857 0)
(-0.0635846 0.00615508 0)
(-0.0644952 0.000769162 0)
(-0.0645386 -0.00483146 0)
(-0.0636586 -0.0105901 0)
(-0.0618012 -0.0164257 0)
(-0.0589219 -0.0222226 0)
(-0.054995 -0.0278173 0)
(-0.0500288 -0.032983 0)
(-0.0440847 -0.0374137 0)
(-0.0372993 -0.0407115 0)
(-0.0299074 -0.0423861 0)
(-0.0222622 -0.0418759 0)
(-0.0148345 -0.038603 0)
(-0.00817948 -0.0320646 0)
(-0.00300292 -0.0219533 0)
(-0.000444087 -0.00830902 0)
(-0.000483373 0.00951678 0)
(-0.00300596 0.0240828 0)
(-0.00787686 0.0342186 0)
(-0.0139395 0.0404378 0)
(-0.0205766 0.0434805 0)
(-0.0273939 0.044113 0)
(-0.0341005 0.0430031 0)
(-0.0404995 0.0406624 0)
(-0.0464628 0.037444 0)
(-0.0519043 0.0335723 0)
(-0.0567611 0.0291816 0)
(-0.0609814 0.0243498 0)
(-0.0645175 0.0191229 0)
(-0.0673206 0.0135311 0)
(-0.0693379 0.00759882 0)
(-0.0705101 0.00135305 0)
(-0.0707707 -0.00516957 0)
(-0.0700469 -0.0119139 0)
(-0.0682634 -0.018795 0)
(-0.0653491 -0.0256844 0)
(-0.0612505 -0.0323915 0)
(-0.0559502 -0.0386435 0)
(-0.0494921 -0.0440642 0)
(-0.0420119 -0.0481597 0)
(-0.0337685 -0.0503206 0)
(-0.0251697 -0.0498525 0)
(-0.0167711 -0.0460488 0)
(-0.00923111 -0.0383034 0)
(-0.00337346 -0.0262524 0)
(-0.00049264 -0.00994728 0)
(-0.000531183 0.0111686 0)
(-0.00330075 0.0281586 0)
(-0.0086399 0.0399008 0)
(-0.0152685 0.0470441 0)
(-0.0225045 0.0504884 0)
(-0.0299168 0.0511495 0)
(-0.0371928 0.0498165 0)
(-0.0441257 0.0470885 0)
(-0.0505864 0.0433758 0)
(-0.0564916 0.0389363 0)
(-0.0617833 0.0339223 0)
(-0.0664149 0.028419 0)
(-0.0703427 0.0224733 0)
(-0.07352 0.0161114 0)
(-0.0758923 0.00935076 0)
(-0.0773942 0.0022091 0)
(-0.0779473 -0.0052865 0)
(-0.0774595 -0.0130886 0)
(-0.0758283 -0.0211144 0)
(-0.0729486 -0.0292268 0)
(-0.0687275 -0.0372093 0)
(-0.0631079 -0.0447378 0)
(-0.0561024 -0.0513526 0)
(-0.0478352 -0.0564408 0)
(-0.0385859 -0.0592415 0)
(-0.0288262 -0.0588915 0)
(-0.01922 -0.0545234 0)
(-0.0105643 -0.0454108 0)
(-0.00384223 -0.0311374 0)
(-0.000553279 -0.0117946 0)
(-0.000588402 0.0129888 0)
(-0.00364979 0.0326431 0)
(-0.00953702 0.0461369 0)
(-0.0168209 0.0542723 0)
(-0.024742 0.0581322 0)
(-0.0328268 0.0588031 0)
(-0.0407387 0.0572121 0)
(-0.048262 0.0540569 0)
(-0.055268 0.0498117 0)
(-0.0616797 0.0447717 0)
(-0.0674471 0.039108 0)
(-0.0725323 0.032913 0)
(-0.0768991 0.0262326 0)
(-0.0805061 0.0190862 0)
(-0.0833003 0.0114798 0)
(-0.0852121 0.00341621 0)
(-0.0861515 -0.00509465 0)
(-0.0860056 -0.0140218 0)
(-0.0846397 -0.0232938 0)
(-0.0819049 -0.032773 0)
(-0.0776543 -0.0422215 0)
(-0.0717722 -0.0512612 0)
(-0.0642179 -0.0593349 0)
(-0.0550839 -0.0656814 0)
(-0.0446594 -0.0693451 0)
(-0.0334863 -0.0692412 0)
(-0.0223659 -0.0642926 0)
(-0.0122835 -0.0536238 0)
(-0.00444496 -0.0367707 0)
(-0.000629653 -0.013907 0)
(-0.000656848 0.0150086 0)
(-0.00406372 0.0376082 0)
(-0.0105937 0.0530177 0)
(-0.0186363 0.0622159 0)
(-0.0273391 0.0664979 0)
(-0.0361793 0.0671479 0)
(-0.0447946 0.0652513 0)
(-0.0529615 0.0616185 0)
(-0.0605554 0.0567951 0)
(-0.0675091 0.0511176 0)
(-0.0737853 0.0447776 0)
(-0.0793593 0.0378745 0)
(-0.0842076 0.0304516 0)
(-0.0882986 0.0225181 0)
(-0.0915854 0.0140638 0)
(-0.0939985 0.00506932 0)
(-0.0954389 -0.00448165 0)
(-0.0957729 -0.0145867 0)
(-0.0948295 -0.0251992 0)
(-0.0924064 -0.0361951 0)
(-0.0882851 -0.0473255 0)
(-0.0822653 -0.0581611 0)
(-0.0742202 -0.0680344 0)
(-0.0641761 -0.0760024 0)
(-0.0524061 -0.0808564 0)
(-0.0395192 -0.0812133 0)
(-0.0264867 -0.0757088 0)
(-0.0145514 -0.0632677 0)
(-0.00523942 -0.043379 0)
(-0.000728359 -0.0163619 0)
(-0.000739174 0.0172658 0)
(-0.00455713 0.0431399 0)
(-0.0118434 0.0606499 0)
(-0.0207651 0.070981 0)
(-0.0303571 0.075679 0)
(-0.0400399 0.07626 0)
(-0.049424 0.0739933 0)
(-0.058281 0.0698178 0)
(-0.0664948 0.0643604 0)
(-0.0740135 0.0580033 0)
(-0.0808184 0.0509605 0)
(-0.0869041 0.0433382 0)
(-0.0922656 0.0351756 0)
(-0.0968881 0.026469 0)
(-0.100737 0.0171865 0)
(-0.103751 0.00727888 0)
(-0.105826 -0.00330775 0)
(-0.106813 -0.0146152 0)
(-0.106502 -0.0266402 0)
(-0.10463 -0.039294 0)
(-0.100888 -0.0523381 0)
(-0.0949584 -0.0653041 0)
(-0.0865811 -0.0774093 0)
(-0.0756607 -0.0874934 0)
(-0.0624033 -0.0940197 0)
(-0.047461 -0.0951955 0)
(-0.0320036 -0.0892447 0)
(-0.0176247 -0.0747996 0)
(-0.00632108 -0.0512897 0)
(-0.000861667 -0.0192728 0)
(-0.000839401 0.0198073 0)
(-0.00515087 0.0493437 0)
(-0.0133326 0.0691601 0)
(-0.0232748 0.0806886 0)
(-0.0338754 0.0857764 0)
(-0.0444901 0.0862156 0)
(-0.0547024 0.0834906 0)
(-0.0642835 0.0786886 0)
(-0.0731325 0.072528 0)
(-0.08122 0.0654422 0)
(-0.0885527 0.0576695 0)
(-0.0951519 0.0493234 0)
(-0.101039 0.0404379 0)
(-0.106224 0.0309935 0)
(-0.110695 0.0209319 0)
(-0.114406 0.0101658 0)
(-0.117263 -0.00140931 0)
(-0.119105 -0.013894 0)
(-0.119692 -0.0273578 0)
(-0.118696 -0.0417784 0)
(-0.1157 -0.0569623 0)
(-0.110232 -0.072433 0)
(-0.101837 -0.0873034 0)
(-0.0902141 -0.100167 0)
(-0.0754121 -0.109071 0)
(-0.0580619 -0.111655 0)
(-0.0395391 -0.105532 0)
(-0.021902 -0.0888706 0)
(-0.00784635 -0.0609889 0)
(-0.00105211 -0.0228139 0)
(-0.000963782 0.0226935 0)
(-0.00587556 0.0563517 0)
(-0.0151265 0.0787014 0)
(-0.0262571 0.0914776 0)
(-0.0379978 0.0968978 0)
(-0.0496322 0.097087 0)
(-0.0607193 0.0937836 0)
(-0.0710378 0.0882462 0)
(-0.0805111 0.0812961 0)
(-0.0891412 0.0734231 0)
(-0.0969689 0.0648921 0)
(-0.104051 0.0558242 0)
(-0.110443 0.0462479 0)
(-0.116191 0.0361264 0)
(-0.121316 0.0253714 0)
(-0.125804 0.0138508 0)
(-0.129579 0.0013979 0)
(-0.132491 -0.01217 0)
(-0.134285 -0.0270229 0)
(-0.134571 -0.0432495 0)
(-0.132816 -0.0607558 0)
(-0.12836 -0.0791147 0)
(-0.12048 -0.0973768 0)
(-0.108556 -0.113884 0)
(-0.0923338 -0.126175 0)
(-0.0722904 -0.131114 0)
(-0.0499582 -0.125392 0)
(-0.0279743 -0.106403 0)
(-0.0100628 -0.0732051 0)
(-0.0013396 -0.02726 0)
(-0.00112229 0.026005 0)
(-0.00677686 0.064334 0)
(-0.017318 0.0894615 0)
(-0.0298368 0.103507 0)
(-0.0428589 0.109154 0)
(-0.0555905 0.108935 0)
(-0.0675745 0.104891 0)
(-0.0786092 0.0984771 0)
(-0.0886547 0.0906291 0)
(-0.0977557 0.0818977 0)
(-0.105997 0.0725762 0)
(-0.113478 0.0627939 0)
(-0.120301 0.0525742 0)
(-0.126557 0.0418631 0)
(-0.132314 0.0305411 0)
(-0.137603 0.0184277 0)
(-0.142392 0.00528407 0)
(-0.146564 -0.00917665 0)
(-0.149871 -0.0252563 0)
(-0.151889 -0.0432087 0)
(-0.15198 -0.0631167 0)
(-0.149272 -0.0846966 0)
(-0.142707 -0.107028 0)
(-0.131206 -0.128246 0)
(-0.11401 -0.145314 0)
(-0.0912117 -0.15407 0)
(-0.0643364 -0.149831 0)
(-0.036653 -0.128664 0)
(-0.0133421 -0.0890158 0)
(-0.00179194 -0.033045 0)
(-0.0013313 0.0298533 0)
(-0.00792375 0.0735141 0)
(-0.0200393 0.101672 0)
(-0.034181 0.116957 0)
(-0.0486259 0.122652 0)
(-0.0625053 0.121798 0)
(-0.0753618 0.116795 0)
(-0.0870329 0.109321 0)
(-0.0975324 0.100438 0)
(-0.106961 0.0907599 0)
(-0.115458 0.0806082 0)
(-0.123176 0.0701209 0)
(-0.130272 0.0593173 0)
(-0.136891 0.0481279 0)
(-0.14316 0.0364043 0)
(-0.149173 0.0239174 0)
(-0.154966 0.0103522 0)
(-0.160483 -0.00469376 0)
(-0.165525 -0.0216891 0)
(-0.169679 -0.0411118 0)
(-0.172239 -0.0633181 0)
(-0.172137 -0.0883032 0)
(-0.16794 -0.115333 0)
(-0.157982 -0.142468 0)
(-0.140755 -0.166103 0)
(-0.115622 -0.180807 0)
(-0.0837547 -0.179915 0)
(-0.0489218 -0.157276 0)
(-0.0182058 -0.109955 0)
(-0.00252041 -0.0408413 0)
(-0.0016185 0.0343978 0)
(-0.00942198 0.0841914 0)
(-0.0234773 0.115618 0)
(-0.0395065 0.132019 0)
(-0.0554918 0.137475 0)
(-0.0705061 0.135662 0)
(-0.0841234 0.129406 0)
(-0.09625 0.120638 0)
(-0.106976 0.110548 0)
(-0.116475 0.0998132 0)
(-0.124952 0.0887796 0)
(-0.132623 0.0775931 0)
(-0.139702 0.0662699 0)
(-0.146398 0.0547285 0)
(-0.152907 0.042797 0)
(-0.159397 0.0302045 0)
(-0.165991 0.0165641 0)
(-0.17273 0.00135441 0)
(-0.17951 -0.0160817 0)
(-0.185992 -0.0364988 0)
(-0.19148 -0.0606321 0)
(-0.194785 -0.0889256 0)
(-0.194131 -0.121062 0)
(-0.187207 -0.155277 0)
(-0.171535 -0.187554 0)
(-0.145324 -0.211053 0)
(-0.108803 -0.216454 0)
(-0.0657352 -0.194064 0)
(-0.0253302 -0.138069 0)
(-0.00370561 -0.0516581 0)
(-0.00203259 0.0398748 0)
(-0.0114363 0.0967697 0)
(-0.0278928 0.131641 0)
(-0.0460783 0.148875 0)
(-0.0636414 0.153639 0)
(-0.079644 0.150411 0)
(-0.0937476 0.142517 0)
(-0.105972 0.132155 0)
(-0.116515 0.120646 0)
(-0.125643 0.108717 0)
(-0.13364 0.096734 0)
(-0.140791 0.0848448 0)
(-0.147376 0.0730623 0)
(-0.153665 0.0612964 0)
(-0.159922 0.0493595 0)
(-0.166395 0.0369509 0)
(-0.173304 0.0236267 0)
(-0.180807 0.00875921 0)
(-0.188937 -0.00849773 0)
(-0.197507 -0.0292073 0)
(-0.20595 -0.0545682 0)
(-0.2131 -0.0856496 0)
(-0.216993 -0.122836 0)
(-0.214768 -0.164916 0)
(-0.202899 -0.20784 0)
(-0.178053 -0.243496 0)
(-0.138714 -0.259375 0)
(-0.08757 -0.240578 0)
(-0.035508 -0.175812 0)
(-0.00564266 -0.0669562 0)
(-0.00266281 0.0466464 0)
(-0.0142285 0.111793 0)
(-0.0336418 0.150121 0)
(-0.0541826 0.167633 0)
(-0.0731626 0.171007 0)
(-0.0897381 0.165731 0)
(-0.103754 0.155695 0)
(-0.11541 0.143371 0)
(-0.125057 0.130187 0)
(-0.133081 0.116904 0)
(-0.13986 0.10389 0)
(-0.145753 0.0912867 0)
(-0.151104 0.0790967 0)
(-0.156241 0.0672221 0)
(-0.161485 0.0554665 0)
(-0.167148 0.0435144 0)
(-0.173535 0.0308887 0)
(-0.18092 0.0168867 0)
(-0.189498 0.000502885 0)
(-0.199295 -0.0196306 0)
(-0.209999 -0.0451956 0)
(-0.220694 -0.0780164 0)
(-0.22953 -0.119457 0)
(-0.233425 -0.169327 0)
(-0.228028 -0.224182 0)
(-0.208317 -0.275235 0)
(-0.170206 -0.306784 0)
(-0.113643 -0.297132 0)
(-0.0495028 -0.225627 0)
(-0.00880738 -0.0887744 0)
(-0.00367984 0.0552901 0)
(-0.0182259 0.129983 0)
(-0.0411918 0.171409 0)
(-0.0640392 0.18819 0)
(-0.0838396 0.189118 0)
(-0.100056 0.180928 0)
(-0.112874 0.168117 0)
(-0.122779 0.153395 0)
(-0.130335 0.138257 0)
(-0.13608 0.123459 0)
(-0.140505 0.109344 0)
(-0.14405 0.0960258 0)
(-0.147114 0.0834854 0)
(-0.150065 0.0716089 0)
(-0.153255 0.0601919 0)
(-0.157029 0.0489162 0)
(-0.161736 0.0372974 0)
(-0.167735 0.0246021 0)
(-0.175368 0.00973108 0)
(-0.184881 -0.00890358 0)
(-0.196322 -0.0334289 0)
(-0.209271 -0.0664132 0)
(-0.222407 -0.110364 0)
(-0.233025 -0.166562 0)
(-0.236585 -0.233013 0)
(-0.226747 -0.301431 0)
(-0.196382 -0.353915 0)
(-0.1408 -0.361305 0)
(-0.0676269 -0.288967 0)
(-0.0138983 -0.119807 0)
(-0.00542175 0.0667697 0)
(-0.0241405 0.152255 0)
(-0.0511001 0.195643 0)
(-0.0755621 0.209932 0)
(-0.0946967 0.20686 0)
(-0.108675 0.194622 0)
(-0.118283 0.178287 0)
(-0.124435 0.160713 0)
(-0.127988 0.143379 0)
(-0.12968 0.126973 0)
(-0.130124 0.111765 0)
(-0.129835 0.0978066 0)
(-0.129248 0.0850299 0)
(-0.12874 0.073287 0)
(-0.128653 0.0623568 0)
(-0.129312 0.0519209 0)
(-0.131052 0.0415088 0)
(-0.134243 0.0304038 0)
(-0.139301 0.0175049 0)
(-0.146666 0.0011476 0)
(-0.156766 -0.0210795 0)
(-0.169811 -0.0523001 0)
(-0.185433 -0.0960797 0)
(-0.202048 -0.155403 0)
(-0.215981 -0.230596 0)
(-0.220654 -0.315547 0)
(-0.206323 -0.392488 0)
(-0.162312 -0.42623 0)
(-0.0887531 -0.364487 0)
(-0.0216877 -0.16317 0)
(-0.00856464 0.0827702 0)
(-0.0331572 0.179646 0)
(-0.0638324 0.22229 0)
(-0.0877187 0.231154 0)
(-0.102985 0.221903 0)
(-0.111224 0.204248 0)
(-0.114203 0.183642 0)
(-0.11345 0.162899 0)
(-0.110199 0.143327 0)
(-0.105401 0.125443 0)
(-0.0997748 0.10937 0)
(-0.0938714 0.0950432 0)
(-0.0881123 0.0823052 0)
(-0.0828285 0.0709469 0)
(-0.0782918 0.060712 0)
(-0.0747465 0.0512753 0)
(-0.0724432 0.0421903 0)
(-0.0716789 0.0327968 0)
(-0.0728472 0.0220771 0)
(-0.076491 0.0084537 0)
(-0.0833138 -0.0104567 0)
(-0.0941304 -0.0380014 0)
(-0.109708 -0.078395 0)
(-0.130223 -0.136073 0)
(-0.154059 -0.214234 0)
(-0.176161 -0.310669 0)
(-0.185981 -0.411333 0)
(-0.167154 -0.47952 0)
(-0.10857 -0.44542 0)
(-0.0323248 -0.221419 0)
(-0.0143846 0.106322 0)
(-0.0470485 0.212899 0)
(-0.0788957 0.249168 0)
(-0.0967217 0.248021 0)
(-0.101828 0.229835 0)
(-0.0983432 0.205444 0)
(-0.0894425 0.180191 0)
(-0.0773971 0.156461 0)
(-0.0637928 0.135139 0)
(-0.0497004 0.116406 0)
(-0.0358318 0.100136 0)
(-0.0226547 0.0860809 0)
(-0.0104706 0.0739549 0)
(0.000528722 0.0634605 0)
(0.0102183 0.0542906 0)
(0.0185021 0.0461058 0)
(0.0252745 0.0384875 0)
(0.0303725 0.0308563 0)
(0.033509 0.0223435 0)
(0.034174 0.0116085 0)
(0.0315179 -0.00340659 0)
(0.024318 -0.025813 0)
(0.0109239 -0.0598 0)
(-0.0108042 -0.110617 0)
(-0.0420981 -0.183659 0)
(-0.0813234 -0.281828 0)
(-0.120428 -0.398773 0)
(-0.14028 -0.503926 0)
(-0.117565 -0.517163 0)
(-0.0437067 -0.295139 0)
(-0.0247731 0.14297 0)
(-0.067083 0.250521 0)
(-0.0910291 0.26986 0)
(-0.0906286 0.252483 0)
(-0.0745543 0.222856 0)
(-0.0505362 0.191462 0)
(-0.023147 0.162462 0)
(0.0049043 0.137151 0)
(0.0320596 0.115624 0)
(0.0574869 0.0975365 0)
(0.0807855 0.0824182 0)
(0.101809 0.0698006 0)
(0.120556 0.0592553 0)
(0.137106 0.0504 0)
(0.151572 0.0428854 0)
(0.164066 0.036369 0)
(0.174664 0.0304729 0)
(0.18336 0.024718 0)
(0.190004 0.018424 0)
(0.194189 0.0105645 0)
(0.195032 -0.000429251 0)
(0.191176 -0.016922 0)
(0.180379 -0.042434 0)
(0.15932 -0.0818831 0)
(0.124101 -0.141402 0)
(0.071585 -0.228222 0)
(0.00380734 -0.346183 0)
(-0.063583 -0.480122 0)
(-0.100243 -0.556609 0)
(-0.0491269 -0.381401 0)
(-0.0397131 0.203594 0)
(-0.0859581 0.282247 0)
(-0.0749212 0.266046 0)
(-0.033707 0.227479 0)
(0.0182339 0.187737 0)
(0.071384 0.152888 0)
(0.121637 0.124152 0)
(0.167243 0.101016 0)
(0.207705 0.0825264 0)
(0.243144 0.0677628 0)
(0.273948 0.0559529 0)
(0.300601 0.0464731 0)
(0.323596 0.038825 0)
(0.343395 0.0326068 0)
(0.360407 0.0274844 0)
(0.374968 0.0231599 0)
(0.387326 0.0193345 0)
(0.397608 0.0156603 0)
(0.405764 0.0116722 0)
(0.411465 0.00668859 0)
(0.413933 -0.000315086 0)
(0.411814 -0.0107571 0)
(0.402648 -0.0269952 0)
(0.38269 -0.0524581 0)
(0.346508 -0.0922672 0)
(0.287083 -0.154674 0)
(0.198753 -0.251975 0)
(0.0847945 -0.392132 0)
(-0.0342053 -0.533018 0)
(-0.0327653 -0.460705 0)
(-0.0326844 0.296613 0)
(-0.0428605 0.278631 0)
(0.0627923 0.205173 0)
(0.16815 0.152823 0)
(0.259953 0.114578 0)
(0.337732 0.0861912 0)
(0.402678 0.0654412 0)
(0.456393 0.0503267 0)
(0.50068 0.039209 0)
(0.537237 0.0309275 0)
(0.567508 0.0246897 0)
(0.592674 0.0199429 0)
(0.613689 0.0162912 0)
(0.631317 0.0134448 0)
(0.646161 0.0111828 0)
(0.658678 0.00932432 0)
(0.66919 0.00770168 0)
(0.677863 0.00613247 0)
(0.684679 0.00438671 0)
(0.689339 0.00214477 0)
(0.691227 -0.00104578 0)
(0.689126 -0.00589563 0)
(0.680765 -0.0134891 0)
(0.66269 -0.0254156 0)
(0.62948 -0.0442861 0)
(0.57275 -0.0753025 0)
(0.480595 -0.130855 0)
(0.33857 -0.237537 0)
(0.129299 -0.404396 0)
(0.0543558 -0.456432 0)
(0.303737 0.181155 0)
(0.384941 0.145664 0)
(0.566365 0.0928937 0)
(0.695 0.060298 0)
(0.778743 0.0398534 0)
(0.837286 0.0264733 0)
(0.88014 0.0177655 0)
(0.912022 0.0121427 0)
(0.93607 0.00848507 0)
(0.954527 0.00606932 0)
(0.968943 0.00444877 0)
(0.980381 0.00334497 0)
(0.989591 0.00258036 0)
(0.997107 0.00203913 0)
(1.00331 0.00164302 0)
(1.00846 0.00133504 0)
(1.01272 0.00106768 0)
(1.01615 0.000793156 0)
(1.01871 0.000455386 0)
(1.02019 -1.89886e-05 0)
(1.02016 -0.000703502 0)
(1.01781 -0.00181495 0)
(1.01188 -0.00361232 0)
(1.00039 -0.00643369 0)
(0.980112 -0.0108635 0)
(0.945511 -0.0182072 0)
(0.885565 -0.0320084 0)
(0.778238 -0.0641204 0)
(0.545534 -0.140284 0)
(0.382461 -0.202547 0)
)
;

boundaryField
{
    movingWall
    {
        type            fixedValue;
        value           uniform (1.2 0 0);
    }
    fixedWalls
    {
        type            noSlip;
    }
    frontAndBack
    {
        type            empty;
    }
}


// ************************************************************************* //
