/*--------------------------------*- C++ -*----------------------------------*\
  =========                 |
  \\      /  F ield         | OpenFOAM: The Open Source CFD Toolbox
   \\    /   O peration     | Website:  https://openfoam.org
    \\  /    A nd           | Version:  7
     \\/     M anipulation  |
\*---------------------------------------------------------------------------*/
FoamFile
{
    version     2.0;
    format      ascii;
    class       volScalarField;
    location    "750";
    object      epsilon;
}
// * * * * * * * * * * * * * * * * * * * * * * * * * * * * * * * * * * * * * //

dimensions      [0 2 -3 0 0 0 0];

internalField   nonuniform List<scalar> 
4500
(
789.607
724.717
675.056
641.444
616.337
596.999
581.733
569.399
559.236
550.727
543.512
537.331
531.994
527.355
523.302
519.746
516.618
513.86
511.426
509.275
507.376
505.702
504.228
502.934
501.803
500.821
499.973
499.247
498.635
498.126
497.712
497.386
497.141
496.972
496.873
496.839
496.865
496.947
497.082
497.265
497.495
497.767
498.079
498.428
498.813
499.229
499.675
500.148
500.647
501.168
501.71
502.27
502.845
503.434
504.034
504.643
505.26
505.883
506.511
507.144
507.784
508.429
509.082
509.741
510.405
511.072
511.734
512.386
513.014
513.606
514.145
514.614
514.996
515.271
515.429
180.467
258.6
265.807
255.427
244.809
236.24
229.47
224.046
219.618
215.941
212.845
210.208
207.941
205.978
204.268
202.77
201.455
200.297
199.274
198.371
197.573
196.869
196.248
195.702
195.223
194.804
194.442
194.129
193.863
193.64
193.455
193.306
193.19
193.105
193.048
193.018
193.012
193.028
193.065
193.123
193.199
193.292
193.402
193.527
193.665
193.817
193.981
194.157
194.342
194.537
194.74
194.951
195.168
195.391
195.619
195.851
196.087
196.325
196.566
196.81
197.055
197.302
197.551
197.801
198.05
198.298
198.543
198.78
199.007
199.218
199.41
199.577
199.714
199.817
199.879
52.4732
112.464
134.457
135.922
132.522
128.669
125.265
122.401
120.007
117.993
116.284
114.823
113.562
112.469
111.515
110.679
109.944
109.296
108.724
108.219
107.772
107.376
107.028
106.72
106.451
106.215
106.01
105.833
105.682
105.554
105.448
105.361
105.293
105.242
105.207
105.187
105.18
105.185
105.202
105.229
105.268
105.315
105.372
105.438
105.51
105.591
105.678
105.771
105.869
105.973
106.082
106.194
106.31
106.43
106.552
106.676
106.802
106.929
107.057
107.187
107.317
107.449
107.581
107.714
107.848
107.981
108.114
108.244
108.371
108.491
108.602
108.701
108.787
108.855
108.899
18.9423
52.8112
76.111
83.4465
84.1244
82.8547
81.1903
79.5846
78.1513
76.9017
75.8187
74.8793
74.0618
73.3479
72.7222
72.1719
71.6868
71.2581
70.8788
70.5429
70.2455
69.9822
69.7494
69.544
69.3633
69.205
69.067
68.9476
68.8451
68.7581
68.6854
68.6259
68.5785
68.5424
68.5167
68.5007
68.4936
68.4945
68.503
68.5188
68.5415
68.5705
68.6054
68.6459
68.6914
68.7418
68.7965
68.8553
68.9177
68.9836
69.0525
69.124
69.1979
69.2737
69.3512
69.43
69.5099
69.5907
69.6722
69.7544
69.8375
69.9214
70.0063
70.0924
70.1796
70.2677
70.3561
70.4441
70.5302
70.6129
70.6903
70.76
70.8198
70.8672
70.8967
8.1872
25.0217
43.8942
53.7537
57.1337
57.7145
57.2786
56.5262
55.7185
54.9491
54.2478
53.6201
53.0624
52.5681
52.1302
51.742
51.3976
51.0917
50.82
50.5786
50.3641
50.1737
50.005
49.8557
49.7242
49.6086
49.5076
49.4199
49.3443
49.28
49.226
49.1814
49.1457
49.118
49.0979
49.0847
49.0781
49.0773
49.0818
49.0916
49.1064
49.1257
49.1493
49.1769
49.2082
49.2429
49.2808
49.3215
49.365
49.4108
49.4588
49.5087
49.5601
49.613
49.6669
49.7218
49.7774
49.8337
49.8906
49.9482
50.0066
50.0661
50.1269
50.189
50.2527
50.3177
50.3835
50.4494
50.5142
50.5762
50.6338
50.6846
50.7266
50.7574
50.7721
4.2188
11.9892
24.7098
34.5695
39.5749
41.5705
42.1325
42.0729
41.7614
41.3618
40.9462
40.5459
40.1736
39.8334
39.5253
39.2478
38.9985
38.7751
38.575
38.3962
38.2364
38.094
37.9673
37.8548
37.7554
37.6677
37.5909
37.524
37.4662
37.4168
37.3752
37.3407
37.3128
37.2911
37.275
37.2642
37.2584
37.257
37.2597
37.2663
37.2766
37.2904
37.3074
37.3274
37.3503
37.3757
37.4036
37.4336
37.4656
37.4994
37.5348
37.5716
37.6096
37.6485
37.6882
37.7286
37.7695
37.811
37.8531
37.8959
37.9396
37.9846
38.0309
38.0789
38.1284
38.1794
38.2313
38.2832
38.3341
38.3821
38.4256
38.4625
38.4904
38.5074
38.5093
2.53586
6.06763
13.4269
21.5411
27.1065
30.0891
31.4755
32.0206
32.1462
32.069
31.8979
31.6884
31.4685
31.2526
31.0476
30.8568
30.6813
30.521
30.3754
30.2438
30.1251
30.0186
29.9231
29.838
29.7624
29.6955
29.6366
29.5852
29.5407
29.5025
29.4703
29.4435
29.4217
29.4047
29.3921
29.3836
29.3789
29.3777
29.3797
29.3846
29.3924
29.4029
29.4159
29.4313
29.4488
29.4684
29.4898
29.5129
29.5375
29.5635
29.5907
29.6189
29.6479
29.6777
29.7081
29.7389
29.7702
29.8019
29.8342
29.8673
29.9013
29.9366
29.9733
30.0116
30.0515
30.0927
30.1347
30.1765
30.217
30.2544
30.2871
30.3129
30.3299
30.3359
30.3276
1.72014
3.39495
7.19137
12.8165
17.9493
21.4137
23.4192
24.4852
25.0083
25.2292
25.2842
25.2494
25.1674
25.0624
24.9482
24.8326
24.7203
24.6137
24.514
24.4218
24.3374
24.2604
24.1908
24.1281
24.072
24.0221
23.9779
23.9393
23.9057
23.8769
23.8525
23.8323
23.8159
23.8032
23.7938
23.7877
23.7844
23.7839
23.786
23.7902
23.7967
23.8053
23.8159
23.8283
23.8423
23.858
23.8751
23.8936
23.9132
23.9338
23.9554
23.9777
24.0007
24.0241
24.048
24.0722
24.0967
24.1216
24.1471
24.1733
24.2004
24.2286
24.2583
24.2895
24.322
24.3557
24.3899
24.4237
24.4559
24.4849
24.5089
24.5261
24.5345
24.5324
24.517
1.27853
2.13151
3.97937
7.32524
11.3239
14.7132
17.0625
18.5327
19.4051
19.9031
20.1732
20.3058
20.3557
20.3562
20.3275
20.2824
20.2286
20.1713
20.1134
20.057
20.0032
19.9528
19.9061
19.8633
19.8246
19.7897
19.7587
19.7314
19.7076
19.6872
19.67
19.6558
19.6445
19.6359
19.6298
19.6261
19.6247
19.6254
19.6281
19.6324
19.6384
19.6461
19.6552
19.6658
19.6777
19.6909
19.7051
19.7203
19.7365
19.7534
19.771
19.7892
19.8078
19.8267
19.8459
19.8653
19.885
19.905
19.9254
19.9464
19.9683
19.9912
20.0154
20.0408
20.0675
20.095
20.1228
20.1499
20.1753
20.1974
20.2146
20.2251
20.2273
20.2194
20.1995
1.01869
1.48311
2.38188
4.15478
6.80161
9.62717
11.9836
13.6873
14.8322
15.5744
16.0458
16.3399
16.5189
16.623
16.6785
16.7023
16.7057
16.6961
16.6786
16.6564
16.632
16.6068
16.5819
16.558
16.5356
16.5151
16.4964
16.4799
16.4654
16.4531
16.4428
16.4345
16.4282
16.4238
16.4212
16.4203
16.421
16.4233
16.427
16.4321
16.4383
16.4457
16.4543
16.4639
16.4745
16.486
16.4984
16.5115
16.5253
16.5396
16.5544
16.5696
16.5851
16.6007
16.6165
16.6324
16.6485
16.6647
16.6813
16.6984
16.7162
16.7348
16.7545
16.7753
16.797
16.8194
16.8417
16.8633
16.883
16.8995
16.9113
16.9168
16.9144
16.903
16.8807
0.856486
1.12027
1.57153
2.45563
3.97547
5.97825
8.01089
9.72611
11.0249
11.954
12.6007
13.0453
13.349
13.5554
13.6948
13.7877
13.8485
13.8869
13.9097
13.9219
13.9266
13.9265
13.9233
13.9181
13.912
13.9055
13.8991
13.8933
13.8881
13.8839
13.8806
13.8784
13.8773
13.8773
13.8784
13.8806
13.8838
13.8881
13.8934
13.8996
13.9066
13.9144
13.923
13.9323
13.9423
13.9529
13.9642
13.9759
13.9881
14.0007
14.0136
14.0267
14.0399
14.0532
14.0665
14.0798
14.0931
14.1066
14.1202
14.1342
14.1487
14.164
14.18
14.1968
14.2144
14.2323
14.2501
14.267
14.282
14.2939
14.3015
14.3032
14.2979
14.2843
14.2612
0.751138
0.901882
1.1357
1.57101
2.36209
3.58036
5.07589
6.57156
7.86573
8.89151
9.66657
10.2385
10.6564
10.9608
11.1828
11.345
11.4638
11.551
11.6151
11.6622
11.6969
11.7225
11.7413
11.7553
11.7658
11.7738
11.7801
11.7852
11.7897
11.7938
11.7979
11.802
11.8064
11.8112
11.8164
11.8221
11.8283
11.835
11.8423
11.8501
11.8583
11.867
11.8761
11.8857
11.8957
11.9061
11.9168
11.9278
11.9391
11.9506
11.9622
11.9739
11.9855
11.9971
12.0087
12.0201
12.0314
12.0427
12.054
12.0656
12.0775
12.0899
12.1029
12.1165
12.1305
12.1448
12.1587
12.1716
12.1828
12.191
12.1953
12.1943
12.1871
12.1725
12.1497
0.681084
0.763094
0.884561
1.10001
1.49244
2.15026
3.09086
4.2063
5.32813
6.32978
7.15924
7.81699
8.32691
8.71822
9.01769
9.24721
9.42379
9.56035
9.6666
9.74982
9.81548
9.86769
9.90958
9.94353
9.97136
9.99448
10.014
10.0307
10.0453
10.0584
10.0702
10.0812
10.0916
10.1016
10.1114
10.121
10.1306
10.1402
10.1499
10.1598
10.1698
10.1798
10.19
10.2003
10.2108
10.2214
10.2321
10.2429
10.2538
10.2648
10.2756
10.2865
10.2971
10.3076
10.3179
10.328
10.3378
10.3475
10.3572
10.3668
10.3767
10.3868
10.3973
10.4082
10.4193
10.4304
10.441
10.4507
10.4587
10.464
10.4658
10.4629
10.4545
10.4397
10.4179
0.63403
0.671598
0.730768
0.83575
1.02644
1.35691
1.87632
2.58645
3.41896
4.27087
5.05819
5.73808
6.30134
6.75721
7.12188
7.41233
7.64372
7.8286
7.97704
8.09693
8.19441
8.27426
8.34018
8.39508
8.44121
8.48035
8.5139
8.54298
8.56847
8.59108
8.61137
8.62981
8.64676
8.66253
8.67735
8.69142
8.70489
8.7179
8.73054
8.7429
8.75503
8.76694
8.77864
8.79017
8.80159
8.8129
8.82411
8.83521
8.84618
8.857
8.86764
8.87805
8.88819
8.89803
8.90755
8.91673
8.92558
8.93416
8.94254
8.9508
8.95904
8.96737
8.97584
8.98446
8.99313
9.00165
9.00966
9.01668
9.02208
9.02511
9.02495
9.02077
9.01175
8.99721
8.97674
0.602484
0.610007
0.63217
0.67868
0.768007
0.927183
1.19007
1.58499
2.11209
2.73181
3.38151
4.0041
4.56404
5.04728
5.45396
5.79146
6.06965
6.29853
6.48706
6.64286
6.7722
6.88017
6.97088
7.04758
7.11291
7.16898
7.21746
7.25973
7.29688
7.32982
7.35927
7.38582
7.40997
7.43212
7.45259
7.47166
7.48956
7.50647
7.52254
7.5379
7.55264
7.56686
7.58055
7.59376
7.60658
7.61903
7.63115
7.64296
7.65444
7.66559
7.6764
7.68683
7.69686
7.70646
7.71561
7.72431
7.73257
7.74043
7.74793
7.75517
7.76221
7.76915
7.77604
7.78288
7.7896
7.79602
7.80186
7.80672
7.81007
7.8113
7.80972
7.80464
7.79538
7.7814
7.76242
0.581598
0.568258
0.567053
0.580682
0.61734
0.689625
0.815044
1.01459
1.30566
1.69024
2.14768
2.64103
3.13178
3.59126
4.00373
4.36394
4.67321
4.93622
5.15888
5.34716
5.50658
5.64194
5.75733
5.85616
5.94124
6.01492
6.07909
6.13533
6.18494
6.22897
6.26832
6.3037
6.33573
6.36492
6.39167
6.41634
6.43923
6.46059
6.48061
6.49948
6.51733
6.53429
6.55043
6.56579
6.58045
6.59449
6.60795
6.62087
6.63326
6.64515
6.65651
6.66735
6.67764
6.68737
6.69654
6.70512
6.71314
6.72062
6.72762
6.73419
6.74041
6.74634
6.75204
6.75751
6.76269
6.76746
6.77157
6.77472
6.77647
6.77631
6.77369
6.76803
6.75879
6.74551
6.72805
0.568079
0.540126
0.523431
0.51743
0.525304
0.552668
0.607669
0.701329
0.846657
1.05501
1.32993
1.66241
2.03209
2.41414
2.7866
3.13432
3.44925
3.72875
3.97363
4.1866
4.37111
4.53081
4.66914
4.78922
4.89377
4.98516
5.06536
5.13607
5.19872
5.25449
5.30439
5.34928
5.38985
5.42671
5.46037
5.49125
5.51971
5.54608
5.5706
5.59349
5.61495
5.63513
5.65416
5.67213
5.68909
5.70513
5.72035
5.73479
5.7485
5.7615
5.7738
5.78541
5.79632
5.80654
5.81604
5.82485
5.83295
5.84039
5.84721
5.85345
5.85917
5.86445
5.86931
5.87378
5.87782
5.88132
5.88412
5.88595
5.88647
5.88527
5.88192
5.87593
5.86686
5.85435
5.83836
0.559602
0.521507
0.494215
0.475854
0.467123
0.470264
0.488837
0.527918
0.594281
0.695973
0.840597
1.03225
1.26844
1.53938
1.83035
2.12588
2.41303
2.68294
2.93066
3.15433
3.35412
3.53139
3.68811
3.82648
3.94865
4.05666
4.15237
4.23741
4.31321
4.38101
4.44188
4.49674
4.54637
4.59146
4.63258
4.67023
4.70483
4.73674
4.76628
4.79372
4.81928
4.84316
4.86554
4.88654
4.90624
4.92473
4.94212
4.95849
4.9739
4.98839
5.00199
5.01473
5.0266
5.03763
5.0478
5.05714
5.06565
5.07335
5.08028
5.0865
5.09204
5.09698
5.10134
5.10515
5.10839
5.11099
5.11282
5.11368
5.11331
5.11138
5.10754
5.1014
5.09262
5.08091
5.06629
0.5545
0.509542
0.474918
0.448452
0.429644
0.419073
0.418104
0.428877
0.454437
0.498844
0.567017
0.66401
0.793577
0.956396
1.14891
1.36364
1.59092
1.82102
2.04586
2.25963
2.45884
2.64182
2.80825
2.95863
3.09399
3.21558
3.32473
3.42275
3.5109
3.59032
3.66202
3.72691
3.78582
3.83944
3.8884
3.93322
3.97439
4.01231
4.04734
4.07978
4.10991
4.13795
4.1641
4.18854
4.21141
4.23277
4.25274
4.27143
4.28892
4.30527
4.32053
4.33473
4.3479
4.36006
4.37121
4.38138
4.39057
4.39883
4.40617
4.41264
4.41829
4.42318
4.42734
4.43081
4.43357
4.4356
4.43678
4.43699
4.43602
4.43361
4.4295
4.42339
4.41498
4.40407
4.39074
0.551578
0.502159
0.462517
0.430613
0.405436
0.386738
0.374813
0.370408
0.374735
0.389544
0.417193
0.460615
0.52306
0.607482
0.715642
0.847209
0.999339
1.16703
1.34408
1.52425
1.70217
1.87373
2.03619
2.18798
2.32843
2.4575
2.57558
2.68332
2.78147
2.87084
2.95226
3.02649
3.09425
3.15622
3.21299
3.26511
3.31305
3.35724
3.39807
3.43586
3.47091
3.50347
3.53379
3.56204
3.58841
3.61303
3.63596
3.65734
3.67727
3.69583
3.71308
3.72908
3.74386
3.75745
3.76988
3.78116
3.79132
3.80039
3.80841
3.8154
3.82143
3.82654
3.83079
3.83419
3.83677
3.83851
3.83935
3.83919
3.83788
3.83524
3.83107
3.82511
3.81717
3.80707
3.79494
0.549997
0.497833
0.454862
0.419311
0.390008
0.366314
0.347991
0.335115
0.328033
0.327378
0.334101
0.349515
0.375307
0.413461
0.46604
0.534794
0.620652
0.723263
0.840805
0.970169
1.10746
1.24861
1.38992
1.52835
1.66166
1.78835
1.90755
2.01888
2.12232
2.21806
2.30649
2.38803
2.46319
2.53246
2.59634
2.65528
2.70973
2.76008
2.8067
2.84993
2.89006
2.92736
2.96207
2.99441
3.02456
3.05268
3.07889
3.10328
3.12596
3.14704
3.16659
3.18468
3.20135
3.21666
3.23062
3.24328
3.25467
3.2648
3.27373
3.28149
3.28814
3.29373
3.2983
3.30191
3.30457
3.30629
3.30705
3.30678
3.30539
3.30275
3.29869
3.29306
3.28567
3.27642
3.26546
0.549196
0.49545
0.450382
0.412443
0.380459
0.353629
0.331457
0.313683
0.300245
0.291252
0.28699
0.287933
0.294771
0.308424
0.330031
0.360892
0.402324
0.455437
0.520857
0.598475
0.687317
0.785601
0.890966
1.00079
1.11252
1.22388
1.33303
1.43859
1.5396
1.63547
1.72589
1.81079
1.89022
1.96437
2.03347
2.09782
2.15771
2.21344
2.26531
2.3136
2.35859
2.40051
2.4396
2.47606
2.51008
2.54183
2.57145
2.59904
2.6247
2.64851
2.67059
2.691
2.7098
2.72705
2.74278
2.75704
2.76986
2.78128
2.79134
2.80008
2.80757
2.81385
2.81898
2.82302
2.82601
2.82796
2.82889
2.82877
2.82753
2.8251
2.82137
2.8162
2.80949
2.80116
2.79137
0.54882
0.494229
0.447927
0.408498
0.374812
0.346017
0.321496
0.300829
0.283749
0.270116
0.259909
0.253214
0.250232
0.251294
0.256863
0.267551
0.2841
0.307348
0.338153
0.377272
0.42521
0.482078
0.54749
0.620553
0.699939
0.784044
0.871158
0.959635
1.04801
1.13506
1.21984
1.30164
1.38
1.45464
1.5254
1.59226
1.65527
1.71453
1.77019
1.82241
1.87136
1.91724
1.9602
2.00043
2.03807
2.07329
2.10621
2.13697
2.16562
2.19224
2.21694
2.23978
2.26084
2.28017
2.29782
2.31382
2.32824
2.34109
2.35245
2.36235
2.37085
2.37802
2.38391
2.3886
2.39213
2.39456
2.39589
2.39615
2.39531
2.39332
2.39012
2.38562
2.37974
2.37243
2.36389
0.548657
0.493654
0.446683
0.406388
0.371673
0.341678
0.31574
0.293358
0.274166
0.257902
0.244398
0.233559
0.225367
0.219876
0.217213
0.217587
0.221296
0.228722
0.240335
0.25667
0.278288
0.305721
0.339393
0.379536
0.426116
0.478796
0.536941
0.599667
0.665925
0.734602
0.804607
0.87494
0.944741
1.0133
1.08007
1.14463
1.20671
1.26611
1.32274
1.37656
1.42758
1.47584
1.52141
1.56438
1.60483
1.64287
1.67858
1.71206
1.74339
1.7726
1.79977
1.82495
1.8482
1.86959
1.88916
1.90695
1.92301
1.93739
1.95013
1.96129
1.97095
1.97915
1.98598
1.9915
1.99579
1.99891
2.00089
2.00178
2.00158
2.00029
1.99786
1.99425
1.98941
1.98333
1.97617
0.548592
0.493406
0.446107
0.405351
0.370059
0.339371
0.312608
0.289233
0.268829
0.251075
0.235728
0.222608
0.211595
0.202617
0.19565
0.190716
0.187888
0.187286
0.189086
0.193519
0.200869
0.211469
0.225679
0.243868
0.26637
0.293444
0.325224
0.361686
0.402619
0.447634
0.496183
0.547606
0.601178
0.656168
0.711876
0.767668
0.822995
0.877399
0.930512
0.98205
1.0318
1.07961
1.12539
1.16906
1.21061
1.25003
1.28733
1.32253
1.35567
1.38678
1.41585
1.44292
1.46801
1.49117
1.51244
1.53185
1.54946
1.56529
1.57941
1.59187
1.60274
1.61208
1.61998
1.62652
1.63178
1.63582
1.63871
1.64051
1.64125
1.64095
1.63959
1.63717
1.63366
1.62905
1.62352
0.548569
0.49331
0.445866
0.40489
0.369304
0.338249
0.311036
0.287114
0.266042
0.247465
0.231105
0.216739
0.204196
0.193345
0.184094
0.176382
0.17018
0.165488
0.162338
0.160793
0.160948
0.162932
0.16691
0.173077
0.181656
0.192888
0.207014
0.224254
0.244789
0.268724
0.296075
0.326749
0.360542
0.397143
0.436158
0.47713
0.519575
0.563004
0.606949
0.650978
0.694708
0.73781
0.780004
0.821063
0.860804
0.899081
0.935784
0.970829
1.00416
1.03573
1.06552
1.09347
1.11956
1.14381
1.16622
1.18681
1.2056
1.22264
1.23797
1.25164
1.26371
1.27426
1.28336
1.29109
1.29753
1.30277
1.30689
1.30994
1.31197
1.31303
1.31312
1.31226
1.31044
1.30767
1.30409
0.548561
0.493276
0.445775
0.404707
0.368989
0.337759
0.310324
0.286125
0.264707
0.245702
0.22881
0.213787
0.200435
0.188595
0.17814
0.168972
0.161016
0.154218
0.148548
0.143992
0.140556
0.138266
0.137167
0.137327
0.138831
0.141788
0.146325
0.152588
0.160732
0.170915
0.183288
0.197983
0.215094
0.234666
0.256683
0.281062
0.307653
0.336239
0.366552
0.398287
0.431114
0.464695
0.498701
0.532817
0.566757
0.600258
0.633093
0.665063
0.696
0.725764
0.754245
0.781356
0.806986
0.831081
0.853605
0.874538
0.893875
0.911626
0.927815
0.942477
0.955659
0.967418
0.97782
0.986935
0.994839
1.00161
1.00731
1.01201
1.01577
1.01863
1.02062
1.02177
1.02206
1.02153
1.02028
0.548559
0.493266
0.445745
0.404642
0.368873
0.337571
0.31004
0.285716
0.264139
0.24493
0.227779
0.212432
0.198676
0.186338
0.175272
0.165362
0.156511
0.148642
0.141694
0.13562
0.13039
0.125983
0.122391
0.11962
0.117686
0.116617
0.116455
0.117254
0.11908
0.122013
0.126141
0.131563
0.138379
0.14669
0.156589
0.168154
0.181436
0.196459
0.213205
0.231616
0.251591
0.272988
0.295629
0.319307
0.343797
0.368862
0.394264
0.41977
0.445161
0.470233
0.494805
0.518724
0.541851
0.564049
0.585222
0.605292
0.624206
0.641928
0.658439
0.673736
0.68783
0.700743
0.712508
0.723167
0.732767
0.74136
0.748997
0.75573
0.761603
0.766658
0.770923
0.774422
0.777166
0.77917
0.780499
0.548558
0.493263
0.445735
0.404622
0.368836
0.337509
0.309944
0.285572
0.26393
0.244636
0.227375
0.211885
0.197946
0.185378
0.174026
0.163764
0.154484
0.146098
0.138532
0.131724
0.125625
0.120197
0.11541
0.111242
0.10768
0.10472
0.102362
0.100617
0.0995
0.0990368
0.0992589
0.100206
0.101924
0.104467
0.107894
0.112267
0.11765
0.124106
0.13169
0.140449
0.150413
0.161594
0.173981
0.187535
0.202194
0.217867
0.234441
0.251783
0.269746
0.288172
0.306901
0.325774
0.344646
0.363368
0.381798
0.399813
0.417303
0.434177
0.450359
0.465787
0.480416
0.494213
0.507161
0.519252
0.53049
0.540884
0.550455
0.559223
0.567213
0.574448
0.580951
0.586738
0.591822
0.596214
0.599943
0.548558
0.493263
0.445733
0.404617
0.368827
0.337493
0.309918
0.285532
0.26387
0.244548
0.227249
0.211707
0.197701
0.185045
0.173583
0.163183
0.153733
0.145139
0.137321
0.130213
0.123758
0.11791
0.112631
0.10789
0.103663
0.099932
0.0966848
0.0939146
0.0916196
0.0898032
0.0884736
0.0876441
0.0873327
0.0875625
0.0883618
0.0897634
0.0918048
0.0945275
0.0979764
0.102198
0.107239
0.113145
0.119956
0.127704
0.136411
0.146085
0.156716
0.168279
0.180724
0.193984
0.207975
0.222593
0.237725
0.253251
0.269037
0.284947
0.300848
0.316613
0.332124
0.347275
0.361973
0.376138
0.389706
0.402628
0.414866
0.426397
0.437209
0.447297
0.456664
0.46532
0.473273
0.480536
0.487118
0.493028
0.498274
0.548558
0.493263
0.445733
0.404617
0.368827
0.337493
0.309918
0.285532
0.26387
0.244548
0.227249
0.211707
0.197701
0.185045
0.173583
0.163183
0.153733
0.145138
0.137321
0.130212
0.123758
0.11791
0.112631
0.10789
0.103663
0.0999317
0.0966844
0.0939141
0.0916191
0.0898026
0.0884729
0.0876433
0.0873318
0.0875615
0.0883607
0.0897621
0.0918033
0.0945259
0.0979745
0.102196
0.107237
0.113143
0.119953
0.127701
0.136408
0.146081
0.156713
0.168275
0.18072
0.19398
0.207971
0.222589
0.237721
0.253246
0.269032
0.284943
0.300844
0.316609
0.33212
0.347271
0.361969
0.376135
0.389704
0.402627
0.414867
0.4264
0.437213
0.447304
0.456673
0.465331
0.473285
0.480548
0.487127
0.493033
0.498271
0.548558
0.493263
0.445735
0.404622
0.368836
0.337509
0.309944
0.285572
0.26393
0.244636
0.227375
0.211884
0.197946
0.185377
0.174026
0.163763
0.154484
0.146097
0.138531
0.131722
0.125623
0.120195
0.115407
0.111239
0.107677
0.104716
0.102357
0.100611
0.0994937
0.0990294
0.0992503
0.100196
0.101912
0.104454
0.107878
0.112249
0.11763
0.124083
0.131665
0.14042
0.150381
0.161559
0.173942
0.187492
0.202147
0.217817
0.234388
0.251727
0.269686
0.28811
0.306836
0.325707
0.344577
0.363297
0.381726
0.399739
0.417229
0.434103
0.450284
0.465713
0.480343
0.494143
0.507094
0.519189
0.530431
0.540832
0.550409
0.559184
0.567179
0.574419
0.580922
0.586705
0.59178
0.596157
0.599864
0.548559
0.493266
0.445745
0.404642
0.368873
0.337571
0.31004
0.285716
0.264138
0.244929
0.227779
0.212431
0.198675
0.186336
0.175271
0.16536
0.156509
0.148639
0.14169
0.135616
0.130384
0.125976
0.122383
0.119611
0.117674
0.116603
0.116439
0.117235
0.119058
0.121987
0.126111
0.131527
0.138338
0.146643
0.156536
0.168092
0.181367
0.196381
0.213119
0.231521
0.251487
0.272876
0.295508
0.319178
0.343661
0.368719
0.394114
0.419615
0.445
0.470068
0.494637
0.518552
0.541676
0.563872
0.585043
0.605112
0.624025
0.641747
0.658259
0.673557
0.687653
0.70057
0.712341
0.723007
0.732615
0.741217
0.748864
0.755605
0.761485
0.766542
0.770806
0.774295
0.777021
0.778998
0.780292
0.548561
0.493276
0.445775
0.404707
0.368988
0.337758
0.310324
0.286124
0.264706
0.245701
0.228808
0.213785
0.200432
0.188591
0.178136
0.168967
0.161009
0.15421
0.148538
0.143979
0.14054
0.138247
0.137145
0.1373
0.138799
0.14175
0.146281
0.152535
0.16067
0.170842
0.183205
0.197887
0.214983
0.23454
0.256542
0.280906
0.307481
0.336052
0.366351
0.398072
0.430886
0.464455
0.498451
0.532558
0.56649
0.599984
0.632813
0.664778
0.695711
0.725472
0.753949
0.781058
0.806687
0.830781
0.853304
0.874236
0.893573
0.911325
0.927515
0.94218
0.955366
0.967131
0.97754
0.986664
0.994579
1.00136
1.00707
1.01178
1.01555
1.01841
1.0204
1.02153
1.0218
1.02123
1.01994
0.548569
0.49331
0.445866
0.404889
0.369303
0.338248
0.311035
0.287112
0.266039
0.247462
0.2311
0.216733
0.204189
0.193336
0.184083
0.176368
0.170163
0.165467
0.162313
0.160762
0.16091
0.162886
0.166854
0.173011
0.181577
0.192794
0.206902
0.224124
0.244637
0.268549
0.295877
0.326527
0.360295
0.396872
0.435863
0.476815
0.51924
0.562652
0.606581
0.650597
0.694317
0.737409
0.779596
0.820649
0.860384
0.898658
0.935358
0.970401
1.00373
1.0353
1.06509
1.09303
1.11913
1.14338
1.16579
1.18638
1.20518
1.22222
1.23755
1.25122
1.2633
1.27385
1.28296
1.2907
1.29716
1.30241
1.30654
1.3096
1.31164
1.3127
1.3128
1.31192
1.31008
1.30727
1.30364
0.548592
0.493406
0.446106
0.40535
0.370057
0.339369
0.312604
0.289228
0.268823
0.251067
0.235717
0.222595
0.211579
0.202597
0.195624
0.190685
0.187849
0.187238
0.189027
0.193447
0.200782
0.211362
0.225551
0.243714
0.266187
0.293228
0.324974
0.361399
0.402296
0.447274
0.495789
0.547179
0.600722
0.655686
0.711372
0.767145
0.822457
0.876849
0.929953
0.981483
1.03123
1.07904
1.12481
1.16848
1.21003
1.24945
1.28675
1.32196
1.35509
1.38621
1.41528
1.44235
1.46744
1.4906
1.51187
1.53129
1.5489
1.56473
1.57885
1.59132
1.60219
1.61155
1.61946
1.62602
1.63128
1.63535
1.63826
1.64008
1.64083
1.64053
1.63918
1.63675
1.63322
1.62858
1.62299
0.548657
0.493653
0.446681
0.406385
0.371669
0.341672
0.315732
0.293348
0.274153
0.257886
0.244376
0.233532
0.225333
0.219833
0.217159
0.21752
0.221212
0.228618
0.240206
0.256511
0.278094
0.305486
0.339112
0.379205
0.425732
0.478359
0.536452
0.599128
0.665342
0.733979
0.80395
0.874255
0.944034
1.01258
1.07933
1.14388
1.20595
1.26535
1.32198
1.3758
1.42682
1.47508
1.52066
1.56363
1.60409
1.64213
1.67784
1.71132
1.74265
1.77188
1.79904
1.82423
1.84749
1.86888
1.88845
1.90624
1.9223
1.93668
1.94943
1.9606
1.97026
1.97848
1.98532
1.99086
1.99518
1.99832
2.00033
2.00125
2.00107
1.99979
1.99738
1.99377
1.98891
1.98279
1.97558
0.54882
0.494228
0.447924
0.408492
0.374804
0.346005
0.321481
0.300809
0.283722
0.270083
0.259867
0.253159
0.250163
0.251206
0.256753
0.267411
0.283923
0.307126
0.337878
0.376935
0.424804
0.481598
0.546934
0.619922
0.699239
0.783281
0.870341
0.958773
1.04711
1.13413
1.21889
1.30068
1.37903
1.45366
1.52442
1.59128
1.65429
1.71356
1.76922
1.82145
1.87041
1.91629
1.95927
1.9995
2.03715
2.07237
2.1053
2.13606
2.16472
2.19135
2.21605
2.2389
2.25996
2.27929
2.29694
2.31295
2.32737
2.34023
2.35159
2.3615
2.37001
2.37719
2.38311
2.38782
2.39138
2.39384
2.39522
2.39552
2.39471
2.39275
2.38957
2.38507
2.37917
2.37183
2.36322
0.549195
0.495446
0.450375
0.412431
0.380442
0.353607
0.331427
0.313645
0.300196
0.291189
0.286908
0.287827
0.294635
0.308247
0.329804
0.360602
0.401957
0.454981
0.520302
0.597814
0.68655
0.784734
0.890008
0.999757
1.11142
1.22273
1.33185
1.43738
1.53838
1.63424
1.72466
1.80955
1.88899
1.96314
2.03226
2.09661
2.15651
2.21225
2.26414
2.31244
2.35744
2.39937
2.43847
2.47494
2.50896
2.54072
2.57035
2.59795
2.62361
2.64744
2.66952
2.68993
2.70874
2.72599
2.74173
2.75599
2.76881
2.78023
2.79029
2.79905
2.80655
2.81285
2.81801
2.82208
2.82511
2.82711
2.8281
2.82803
2.82684
2.82445
2.82075
2.81559
2.80886
2.80047
2.79059
0.549994
0.497825
0.454848
0.419289
0.389977
0.366273
0.347938
0.335046
0.327943
0.32726
0.333945
0.34931
0.375036
0.413106
0.46558
0.534211
0.61993
0.722395
0.839792
0.969022
1.1062
1.24725
1.38849
1.52687
1.66014
1.78681
1.906
2.01733
2.12077
2.21653
2.30497
2.38653
2.4617
2.53099
2.59488
2.65384
2.7083
2.75866
2.8053
2.84854
2.88868
2.926
2.96072
2.99307
3.02323
3.05136
3.07758
3.10197
3.12466
3.14575
3.1653
3.18339
3.20007
3.21538
3.22935
3.24202
3.2534
3.26354
3.27248
3.28025
3.28692
3.29253
3.29714
3.30079
3.3035
3.30529
3.30612
3.30592
3.30459
3.30201
3.29799
3.29236
3.28494
3.27562
3.26453
0.551572
0.502144
0.462491
0.430575
0.405384
0.386669
0.374721
0.370286
0.374571
0.389323
0.416894
0.460212
0.522523
0.606781
0.714752
0.846117
0.99805
1.16556
1.34246
1.52252
1.70035
1.87185
2.03428
2.18606
2.3265
2.45559
2.57369
2.68144
2.77961
2.86901
2.95045
3.0247
3.09249
3.15448
3.21127
3.26341
3.31137
3.35558
3.39642
3.43422
3.46928
3.50186
3.53219
3.56046
3.58683
3.61146
3.6344
3.65579
3.67573
3.69429
3.71155
3.72755
3.74234
3.75593
3.76836
3.77964
3.78981
3.79888
3.8069
3.81392
3.81997
3.82511
3.8294
3.83286
3.83551
3.83733
3.83825
3.83818
3.83695
3.83438
3.83024
3.8243
3.81631
3.80611
3.79382
0.55449
0.509515
0.474874
0.448389
0.429558
0.418956
0.417945
0.428659
0.454136
0.498425
0.566438
0.663225
0.792544
0.95509
1.14733
1.36182
1.58889
1.81885
2.04358
2.25729
2.45647
2.63945
2.80589
2.95629
3.09168
3.2133
3.32248
3.42054
3.50873
3.58817
3.6599
3.72483
3.78376
3.83741
3.88638
3.93123
3.97242
4.01036
4.04541
4.07786
4.108
4.13605
4.16222
4.18667
4.20954
4.23091
4.2509
4.26959
4.28709
4.30344
4.3187
4.33291
4.34608
4.35824
4.3694
4.37957
4.38876
4.39702
4.40437
4.41086
4.41654
4.42147
4.42569
4.42923
4.43208
4.4342
4.43549
4.4358
4.43493
4.4326
4.42853
4.42241
4.41394
4.4029
4.38934
0.559583
0.521462
0.494144
0.475753
0.466982
0.470068
0.48856
0.527523
0.593716
0.69517
0.839487
1.03078
1.2666
1.53718
1.82787
2.12319
2.41021
2.68004
2.92774
3.15142
3.35124
3.52854
3.68531
3.82373
3.94595
4.05401
4.14977
4.23485
4.31069
4.37852
4.43942
4.49431
4.54398
4.58909
4.63024
4.6679
4.70252
4.73445
4.76401
4.79146
4.81703
4.84093
4.86331
4.88433
4.90404
4.92254
4.93994
4.95631
4.97173
4.98622
4.99982
5.01256
5.02444
5.03547
5.04564
5.05498
5.06349
5.0712
5.07814
5.08438
5.08996
5.09494
5.09937
5.10327
5.10661
5.10933
5.11129
5.11228
5.11202
5.11017
5.10637
5.10022
5.09135
5.07945
5.06454
0.568046
0.540055
0.523319
0.517269
0.525073
0.552333
0.607175
0.700596
0.845582
1.05349
1.3279
1.65988
2.02915
2.41088
2.78314
3.13077
3.44567
3.72519
3.97012
4.18314
4.36773
4.52749
4.66589
4.78604
4.89065
4.98209
5.06235
5.13311
5.19579
5.2516
5.30154
5.34646
5.38706
5.42394
5.45762
5.48853
5.51701
5.54339
5.56793
5.59083
5.6123
5.6325
5.65154
5.66952
5.68648
5.70254
5.71776
5.73221
5.74592
5.75892
5.77122
5.78284
5.79375
5.80396
5.81347
5.82227
5.83038
5.83783
5.84465
5.85092
5.85669
5.86202
5.86696
5.87154
5.8757
5.87934
5.88229
5.88426
5.88492
5.88382
5.88051
5.87448
5.86528
5.85254
5.83617
0.581544
0.568148
0.56688
0.580426
0.616956
0.689037
0.814135
1.0132
1.30366
1.68754
2.14433
2.63718
3.1276
3.58692
3.99935
4.35958
4.66893
4.93203
5.15478
5.34317
5.50268
5.63813
5.7536
5.8525
5.93765
6.01139
6.07561
6.1319
6.18155
6.22562
6.265
6.30042
6.33248
6.36168
6.38846
6.41315
6.43606
6.45743
6.47747
6.49634
6.51421
6.53118
6.54733
6.5627
6.57737
6.59141
6.60487
6.61779
6.6302
6.64208
6.65345
6.66428
6.67458
6.68431
6.69347
6.70205
6.71007
6.71756
6.72457
6.73117
6.73743
6.74344
6.74923
6.75482
6.76014
6.76508
6.76937
6.77269
6.77459
6.77454
6.77196
6.76625
6.75684
6.74326
6.72533
0.6024
0.609839
0.631903
0.678265
0.767348
0.926113
1.18836
1.58242
2.10857
2.72746
3.37659
3.99885
4.55868
5.04194
5.44872
5.78634
6.06468
6.2937
6.48236
6.63827
6.76772
6.8758
6.96659
7.04337
7.10877
7.16489
7.21342
7.25574
7.29294
7.32591
7.35539
7.38198
7.40615
7.42832
7.44881
7.4679
7.48582
7.50274
7.51882
7.53419
7.54895
7.56317
7.57687
7.59009
7.60291
7.61537
7.6275
7.6393
7.65079
7.66194
7.67275
7.68317
7.6932
7.7028
7.71195
7.72065
7.7289
7.73676
7.74429
7.75155
7.75865
7.76567
7.77267
7.77964
7.78653
7.79314
7.79919
7.80425
7.80777
7.80912
7.80759
7.80244
7.79297
7.77862
7.75907
0.633903
0.671346
0.73035
0.835057
1.02526
1.35491
1.87316
2.582
3.41343
4.26465
5.05167
5.73151
6.29488
6.75093
7.1158
7.40645
7.63802
7.82307
7.97166
8.09167
8.18926
8.26921
8.33522
8.3902
8.43639
8.47559
8.5092
8.53832
8.56385
8.58649
8.60681
8.62528
8.64226
8.65804
8.67288
8.68697
8.70045
8.71348
8.72613
8.7385
8.75063
8.76256
8.77426
8.7858
8.79722
8.80853
8.81974
8.83085
8.84182
8.85264
8.86328
8.87368
8.88382
8.89366
8.90317
8.91234
8.92119
8.92978
8.93817
8.94646
8.95476
8.96318
8.97177
8.98055
8.98941
8.99815
9.0064
9.01365
9.01925
9.02242
9.02231
9.01804
9.00877
8.99379
8.97264
0.680892
0.762711
0.883889
1.0988
1.49025
2.14654
3.08538
4.19938
5.32037
6.32173
7.15124
7.80921
8.3194
8.711
9.01073
9.24048
9.41726
9.554
9.6604
9.74375
9.80952
9.86183
9.9038
9.93782
9.96572
9.9889
10.0084
10.0252
10.0399
10.053
10.0648
10.0759
10.0863
10.0963
10.1061
10.1157
10.1253
10.135
10.1447
10.1545
10.1645