/*--------------------------------*- C++ -*----------------------------------*\
  =========                 |
  \\      /  F ield         | OpenFOAM: The Open Source CFD Toolbox
   \\    /   O peration     | Website:  https://openfoam.org
    \\  /    A nd           | Version:  7
     \\/     M anipulation  |
\*---------------------------------------------------------------------------*/
FoamFile
{
    version     2.0;
    format      ascii;
    class       volScalarField;
    location    "750";
    object      k;
}
// * * * * * * * * * * * * * * * * * * * * * * * * * * * * * * * * * * * * * //

dimensions      [0 2 -2 0 0 0 0];

internalField   nonuniform List<scalar> 
4500
(
2.10711
1.99003
1.89804
1.8345
1.78632
1.74875
1.71881
1.69443
1.67421
1.65718
1.64268
1.6302
1.61939
1.60996
1.6017
1.59444
1.58803
1.58238
1.57737
1.57295
1.56904
1.56558
1.56254
1.55986
1.55753
1.55549
1.55374
1.55223
1.55096
1.54991
1.54905
1.54837
1.54786
1.54751
1.54731
1.54724
1.54729
1.54746
1.54774
1.54812
1.5486
1.54916
1.54981
1.55053
1.55133
1.55219
1.55312
1.5541
1.55513
1.55621
1.55733
1.55849
1.55968
1.5609
1.56214
1.5634
1.56467
1.56595
1.56725
1.56855
1.56986
1.57118
1.57252
1.57387
1.57523
1.5766
1.57796
1.57931
1.58061
1.58185
1.58298
1.58399
1.58482
1.58544
1.58582
1.10354
1.6732
1.8379
1.85191
1.83283
1.80901
1.78664
1.7669
1.74973
1.73484
1.72188
1.71057
1.70066
1.69195
1.68428
1.6775
1.67151
1.6662
1.66151
1.65736
1.6537
1.65047
1.64764
1.64516
1.64301
1.64115
1.63956
1.63823
1.63712
1.63622
1.63551
1.63499
1.63463
1.63443
1.63437
1.63445
1.63464
1.63495
1.63536
1.63588
1.63649
1.63719
1.63797
1.63882
1.63975
1.64074
1.6418
1.64291
1.64407
1.64527
1.64652
1.64779
1.6491
1.65043
1.65178
1.65313
1.6545
1.65587
1.65723
1.6586
1.65997
1.66135
1.66274
1.66415
1.66558
1.66703
1.6685
1.66997
1.67143
1.67286
1.67421
1.67545
1.67652
1.67739
1.67796
0.644943
1.23225
1.53537
1.63719
1.66542
1.66864
1.66318
1.65482
1.64581
1.63702
1.62881
1.62129
1.61447
1.60833
1.60283
1.5979
1.59351
1.5896
1.58613
1.58307
1.58037
1.578
1.57594
1.57416
1.57264
1.57135
1.57029
1.56943
1.56875
1.56825
1.56791
1.56772
1.56767
1.56775
1.56795
1.56826
1.56868
1.56918
1.56978
1.57046
1.57122
1.57206
1.57297
1.57394
1.57497
1.57606
1.57719
1.57837
1.57959
1.58085
1.58214
1.58345
1.58478
1.58612
1.58747
1.58882
1.59016
1.5915
1.59282
1.59414
1.59545
1.59677
1.59811
1.59948
1.60088
1.60234
1.60385
1.6054
1.60698
1.60856
1.61009
1.61151
1.61277
1.61379
1.61445
0.463615
0.893401
1.25805
1.43575
1.5127
1.54555
1.55894
1.56332
1.56337
1.56132
1.55829
1.55487
1.55137
1.54798
1.54477
1.54181
1.5391
1.53665
1.53446
1.53253
1.53083
1.52936
1.52811
1.52705
1.52619
1.5255
1.52498
1.52462
1.5244
1.52432
1.52436
1.52453
1.52481
1.52519
1.52567
1.52625
1.52691
1.52765
1.52845
1.52933
1.53027
1.53127
1.53233
1.53345
1.53461
1.53582
1.53706
1.53834
1.53965
1.54099
1.54235
1.54373
1.54511
1.54649
1.54787
1.54924
1.5506
1.55193
1.55324
1.55454
1.55584
1.55714
1.55846
1.55983
1.56127
1.56278
1.56437
1.56604
1.56776
1.5695
1.5712
1.57279
1.57419
1.5753
1.57595
0.39407
0.646738
0.998479
1.23088
1.35547
1.4206
1.45545
1.47456
1.48513
1.49089
1.49385
1.49516
1.49547
1.49521
1.49462
1.49387
1.49306
1.49226
1.49151
1.49084
1.49026
1.48979
1.48943
1.48919
1.48906
1.48904
1.48912
1.48932
1.48961
1.49
1.49048
1.49104
1.49169
1.49242
1.49323
1.4941
1.49504
1.49604
1.49708
1.49818
1.49934
1.50053
1.50178
1.50306
1.50438
1.50573
1.50711
1.50851
1.50994
1.51138
1.51284
1.51429
1.51575
1.5172
1.51863
1.52004
1.52142
1.52278
1.5241
1.52541
1.52671
1.52802
1.52936
1.53076
1.53225
1.53383
1.53553
1.53732
1.53919
1.54108
1.54292
1.54463
1.5461
1.54722
1.54777
0.370615
0.488905
0.769299
1.02349
1.18836
1.28645
1.34497
1.38088
1.40366
1.41854
1.4285
1.43532
1.44007
1.44345
1.44589
1.4477
1.44908
1.45017
1.45107
1.45184
1.45255
1.45323
1.45389
1.45457
1.45527
1.45601
1.45679
1.45761
1.45848
1.45941
1.46038
1.4614
1.46248
1.4636
1.46477
1.46598
1.46724
1.46853
1.46986
1.47122
1.47261
1.47404
1.47549
1.47697
1.47847
1.47999
1.48153
1.48309
1.48465
1.48622
1.48779
1.48935
1.4909
1.49243
1.49393
1.4954
1.49683
1.49822
1.49958
1.50091
1.50223
1.50356
1.50494
1.50639
1.50794
1.50961
1.51141
1.51332
1.51531
1.51733
1.51928
1.52106
1.52254
1.52358
1.52397
0.364546
0.403111
0.587007
0.823641
1.01304
1.14094
1.22398
1.27842
1.31506
1.34046
1.35856
1.3718
1.38173
1.38935
1.39533
1.40011
1.40404
1.40732
1.41012
1.41258
1.41476
1.41675
1.4186
1.42033
1.42199
1.4236
1.42517
1.42672
1.42826
1.42979
1.43133
1.43287
1.43443
1.436
1.43759
1.43919
1.44081
1.44245
1.44409
1.44575
1.44742
1.44911
1.4508
1.45251
1.45422
1.45595
1.45767
1.4594
1.46112
1.46284
1.46454
1.46623
1.46789
1.46952
1.47111
1.47265
1.47415
1.47559
1.477
1.47837
1.47973
1.48111
1.48253
1.48404
1.48566
1.48741
1.4893
1.49131
1.49341
1.49552
1.49753
1.49933
1.50078
1.5017
1.50187
0.364603
0.363346
0.460994
0.64658
0.836783
0.985712
1.09154
1.16521
1.21704
1.25428
1.28169
1.30236
1.31829
1.33084
1.34093
1.34918
1.35605
1.36188
1.3669
1.37129
1.37519
1.3787
1.38191
1.38487
1.38763
1.39024
1.39272
1.3951
1.3974
1.39963
1.40182
1.40396
1.40607
1.40816
1.41023
1.41228
1.41431
1.41634
1.41835
1.42035
1.42235
1.42433
1.4263
1.42827
1.43023
1.43218
1.43412
1.43605
1.43796
1.43985
1.44171
1.44354
1.44534
1.44709
1.44878
1.45042
1.452
1.45352
1.45498
1.45641
1.45782
1.45925
1.46073
1.4623
1.46398
1.46581
1.46778
1.46987
1.47204
1.47421
1.47626
1.47804
1.47941
1.48018
1.48011
0.366685
0.347483
0.386684
0.507132
0.671669
0.826391
0.949252
1.04089
1.10836
1.15845
1.19625
1.22534
1.24815
1.26638
1.28121
1.29348
1.30378
1.31256
1.32014
1.32678
1.33266
1.33794
1.34271
1.34708
1.35112
1.35488
1.35841
1.36175
1.36493
1.36797
1.3709
1.37373
1.37647
1.37915
1.38177
1.38433
1.38685
1.38932
1.39175
1.39415
1.3965
1.39883
1.40113
1.4034
1.40564
1.40786
1.41004
1.4122
1.41433
1.41641
1.41846
1.42047
1.42242
1.42431
1.42613
1.42788
1.42956
1.43117
1.43271
1.43421
1.43569
1.43718
1.43871
1.44034
1.44208
1.44397
1.446
1.44816
1.45037
1.45257
1.45461
1.45636
1.45763
1.45824
1.45793
0.369317
0.342581
0.348917
0.412157
0.531963
0.672822
0.801903
0.907129
0.989078
1.05222
1.10113
1.13949
1.17002
1.1947
1.21496
1.23184
1.24608
1.25827
1.26882
1.27805
1.28623
1.29353
1.30012
1.30612
1.31163
1.31672
1.32146
1.3259
1.33009
1.33406
1.33784
1.34146
1.34494
1.3483
1.35154
1.35469
1.35776
1.36074
1.36366
1.3665
1.36928
1.372
1.37467
1.37729
1.37985
1.38237
1.38484
1.38727
1.38964
1.39196
1.39423
1.39643
1.39856
1.40062
1.40259
1.40448
1.40628
1.408
1.40964
1.41122
1.41278
1.41433
1.41593
1.41761
1.41941
1.42135
1.42342
1.42561
1.42785
1.43004
1.43206
1.43374
1.43491
1.43536
1.43483
0.371958
0.342445
0.332102
0.356566
0.42837
0.537786
0.658014
0.768348
0.860997
0.935939
0.995905
1.044
1.08291
1.11474
1.1411
1.16319
1.18194
1.19802
1.21198
1.2242
1.23501
1.24466
1.25334
1.26122
1.26842
1.27504
1.28118
1.28689
1.29224
1.29728
1.30205
1.30658
1.3109
1.31503
1.319
1.32283
1.32652
1.33009
1.33356
1.33692
1.34018
1.34336
1.34645
1.34946
1.3524
1.35527
1.35807
1.3608
1.36346
1.36605
1.36856
1.37099
1.37334
1.37559
1.37775
1.3798
1.38174
1.38359
1.38535
1.38703
1.38867
1.39031
1.39197
1.39371
1.39555
1.39752
1.39962
1.40182
1.40406
1.40623
1.4082
1.40982
1.41087
1.41118
1.41047
0.374409
0.344309
0.325896
0.328085
0.362098
0.432748
0.529167
0.632415
0.728536
0.811707
0.881286
0.938793
0.986292
1.02573
1.05874
1.08663
1.11042
1.13091
1.14873
1.16436
1.17819
1.19052
1.20161
1.21164
1.22079
1.22918
1.23691
1.24409
1.25078
1.25705
1.26294
1.26851
1.2738
1.27883
1.28363
1.28823
1.29265
1.29689
1.30099
1.30495
1.30877
1.31246
1.31604
1.31951
1.32288
1.32615
1.32933
1.33241
1.3354
1.33829
1.34109
1.34379
1.34639
1.34887
1.35123
1.35347
1.35559
1.35759
1.35949
1.36129
1.36304
1.36476
1.3665
1.36829
1.37017
1.37217
1.37428
1.37647
1.37868
1.38081
1.38273
1.38426
1.38522
1.3854
1.38454
0.376595
0.346935
0.32478
0.315189
0.325142
0.361913
0.426574
0.510145
0.599357
0.684171
0.759763
0.824969
0.880429
0.92743
0.967348
1.00143
1.03072
1.05608
1.07822
1.09769
1.11493
1.13032
1.14415
1.15665
1.16802
1.17843
1.188
1.19685
1.20508
1.21276
1.21995
1.22672
1.23312
1.23917
1.24493
1.25042
1.25566
1.26068
1.2655
1.27014
1.2746
1.27889
1.28303
1.28703
1.29089
1.29462
1.29823
1.30172
1.30509
1.30834
1.31147
1.31448
1.31736
1.3201
1.32271
1.32518
1.3275
1.32969
1.33174
1.33369
1.33556
1.33738
1.3392
1.34105
1.34297
1.34498
1.34709
1.34926
1.35143
1.35351
1.35536
1.35681
1.35768
1.35776
1.3568
0.378494
0.349749
0.326042
0.310425
0.306798
0.320311
0.355502
0.412199
0.483847
0.561114
0.636428
0.705553
0.766924
0.820518
0.867011
0.907312
0.942336
0.972909
0.999742
1.02343
1.04448
1.06329
1.08019
1.09548
1.10938
1.12209
1.13376
1.14452
1.1545
1.1638
1.17248
1.18062
1.18828
1.19552
1.20237
1.20888
1.21507
1.22098
1.22663
1.23205
1.23724
1.24222
1.247
1.2516
1.25603
1.26029
1.2644
1.26835
1.27216
1.27582
1.27934
1.2827
1.28591
1.28897
1.29186
1.29459
1.29715
1.29955
1.3018
1.30392
1.30593
1.30787
1.30978
1.3117
1.31366
1.31568
1.31778
1.31991
1.32204
1.32405
1.32583
1.3272
1.32799
1.328
1.32698
0.380104
0.352469
0.328352
0.309741
0.298825
0.298554
0.31258
0.343818
0.391993
0.452699
0.519406
0.586268
0.64949
0.707223
0.758929
0.804788
0.845312
0.881119
0.912829
0.94101
0.96616
0.988712
1.00903
1.02742
1.04416
1.05945
1.07348
1.08642
1.09839
1.10952
1.11989
1.1296
1.13872
1.1473
1.15541
1.16308
1.17036
1.17729
1.18389
1.19019
1.19622
1.20198
1.2075
1.2128
1.21787
1.22275
1.22743
1.23192
1.23623
1.24037
1.24432
1.2481
1.25169
1.2551
1.25833
1.26136
1.2642
1.26685
1.26933
1.27165
1.27383
1.27591
1.27793
1.27993
1.28194
1.28398
1.28606
1.28816
1.29023
1.29217
1.29387
1.29517
1.2959
1.29586
1.29483
0.381432
0.354953
0.331036
0.311052
0.296302
0.288389
0.289475
0.302115
0.328313
0.36807
0.418684
0.475701
0.534633
0.59211
0.646117
0.695722
0.740693
0.781189
0.817558
0.850219
0.879597
0.906091
0.930062
0.951828
0.971665
0.989815
1.00648
1.02185
1.03606
1.04926
1.06155
1.07303
1.08379
1.0939
1.10343
1.11244
1.12096
1.12905
1.13673
1.14405
1.15103
1.1577
1.16407
1.17015
1.17598
1.18155
1.18689
1.192
1.19689
1.20157
1.20603
1.21028
1.21432
1.21814
1.22175
1.22514
1.2283
1.23125
1.23399
1.23654
1.23893
1.24118
1.24333
1.24542
1.24749
1.24956
1.25163
1.2537
1.25571
1.25758
1.25921
1.26045
1.26112
1.26107
1.26006
0.382496
0.357126
0.333732
0.313269
0.296566
0.284515
0.278275
0.279385
0.28963
0.310488
0.342261
0.383516
0.431393
0.482568
0.53415
0.584096
0.631194
0.674873
0.714976
0.751595
0.784951
0.815323
0.843002
0.868273
0.8914
0.912621
0.932149
0.950173
0.966858
0.982351
0.996777
1.01025
1.02286
1.0347
1.04584
1.05634
1.06627
1.07568
1.0846
1.09308
1.10115
1.10884
1.11617
1.12316
1.12984
1.13622
1.14231
1.14813
1.15368
1.15898
1.16403
1.16883
1.17338
1.17768
1.18172
1.18552
1.18906
1.19236
1.19541
1.19824
1.20086
1.20331
1.20563
1.20784
1.20999
1.21209
1.21417
1.21621
1.21817
1.21998
1.22154
1.22272
1.22337
1.22331
1.22236
0.383317
0.358954
0.336237
0.315805
0.298201
0.28395
0.27367
0.268176
0.268537
0.276002
0.291697
0.316126
0.348733
0.387879
0.431278
0.47661
0.521952
0.565944
0.607754
0.646952
0.683386
0.71708
0.748158
0.776798
0.803195
0.827551
0.850059
0.870898
0.890233
0.908214
0.924972
0.940628
0.955288
0.969045
0.981982
0.994173
1.00568
1.01657
1.02689
1.03667
1.04598
1.05482
1.06325
1.07128
1.07893
1.08622
1.09317
1.0998
1.10611
1.11212
1.11784
1.12327
1.1284
1.13325
1.13781
1.14208
1.14605
1.14975
1.15316
1.15631
1.15922
1.16192
1.16443
1.16679
1.16905
1.17122
1.17332
1.17534
1.17726
1.17902
1.18053
1.18167
1.1823
1.18227
1.18141
0.383926
0.360429
0.338437
0.318319
0.300425
0.285071
0.272597
0.26342
0.258096
0.257353
0.262057
0.273062
0.290942
0.315686
0.346543
0.382133
0.420773
0.460828
0.500941
0.540122
0.577726
0.61338
0.646914
0.678293
0.707566
0.734832
0.760217
0.783859
0.805894
0.826457
0.845674
0.863661
0.880526
0.896366
0.911269
0.925315
0.938573
0.951109
0.962978
0.974231
0.984913
0.995065
1.00472
1.01391
1.02266
1.03099
1.03892
1.04646
1.05364
1.06047
1.06695
1.07309
1.0789
1.08437
1.08952
1.09433
1.09881
1.10296
1.1068
1.11032
1.11357
1.11655
1.1193
1.12186
1.12425
1.12652
1.12867
1.13071
1.13261
1.13434
1.13581
1.13692
1.13756
1.13758
1.13684
0.384356
0.361567
0.340271
0.320613
0.302785
0.286971
0.273357
0.262155
0.253642
0.248183
0.246262
0.248465
0.255422
0.267671
0.285474
0.308658
0.336564
0.368157
0.40222
0.437572
0.473202
0.508334
0.542423
0.575121
0.606232
0.63567
0.663425
0.689534
0.714068
0.73711
0.758756
0.779099
0.798235
0.816251
0.833234
0.84926
0.864403
0.878727
0.892294
0.905156
0.917363
0.928959
0.939982
0.950467
0.960445
0.969938
0.978965
0.987547
0.995703
1.00345
1.01079
1.01775
1.02432
1.03051
1.03632
1.04175
1.0468
1.05148
1.0558
1.05977
1.0634
1.06672
1.06976
1.07256
1.07514
1.07754
1.07978
1.08186
1.08378
1.0855
1.08696
1.08808
1.08875
1.08885
1.08825
0.384645
0.3624
0.341721
0.322574
0.305012
0.28912
0.274988
0.262719
0.252442
0.244331
0.238618
0.235613
0.235703
0.239328
0.246928
0.258848
0.275219
0.295877
0.320342
0.347879
0.377621
0.408696
0.440324
0.471868
0.502846
0.532919
0.561867
0.589563
0.615944
0.641
0.664751
0.687239
0.708519
0.728653
0.747706
0.765743
0.782828
0.799021
0.81438
0.828957
0.842802
0.855959
0.86847
0.880371
0.891695
0.902469
0.912716
0.922451
0.931697
0.940471
0.948786
0.956653
0.96408
0.971072
0.977632
0.983764
0.98947
0.994755
0.999627
1.0041
1.00818
1.01191
1.0153
1.01839
1.02121
1.02379
1.02616
1.02834
1.03031
1.03207
1.03355
1.0347
1.03543
1.03563
1.03521
0.384827
0.362976
0.342805
0.324148
0.306947
0.291198
0.276922
0.264155
0.252946
0.243368
0.235524
0.229553
0.225648
0.224051
0.225056
0.228985
0.236149
0.246788
0.260999
0.278687
0.299546
0.323088
0.348708
0.375765
0.403652
0.431835
0.459883
0.487464
0.514338
0.540342
0.565373
0.589375
0.612327
0.634233
0.655112
0.674995
0.693921
0.711932
0.729071
0.745382
0.760907
0.775686
0.789758
0.803157
0.815916
0.828064
0.839625
0.850616
0.861053
0.870956
0.880338
0.889213
0.89759
0.905475
0.912873
0.919788
0.926225
0.932189
0.937687
0.942732
0.947339
0.95153
0.955332
0.958777
0.961897
0.964726
0.967292
0.969615
0.971701
0.97354
0.975101
0.976333
0.977163
0.977513
0.977306
0.384935
0.363349
0.343566
0.325333
0.308509
0.293015
0.278815
0.265893
0.254251
0.243905
0.234889
0.227257
0.221089
0.216497
0.213627
0.212662
0.213817
0.217326
0.223417
0.232273
0.243994
0.258559
0.275806
0.295441
0.317067
0.340231
0.364466
0.389336
0.414459
0.439515
0.464253
0.488484
0.51207
0.534916
0.556964
0.578181
0.598555
0.618086
0.636787
0.654677
0.671778
0.688118
0.703722
0.718618
0.732831
0.746386
0.759305
0.771607
0.783304
0.794407
0.804933
0.814893
0.824297
0.833152
0.841465
0.84924
0.856483
0.863198
0.869396
0.875086
0.880286
0.885016
0.889302
0.893175
0.896669
0.899816
0.902649
0.905193
0.907462
0.909456
0.911158
0.912534
0.913529
0.914083
0.914144
0.384994
0.363574
0.344062
0.326166
0.309682
0.294477
0.280464
0.267588
0.255813
0.24512
0.235503
0.226971
0.219547
0.21327
0.208201
0.204423
0.202042
0.201191
0.202024
0.20471
0.209419
0.216301
0.22546
0.236932
0.250663
0.266508
0.284234
0.303546
0.32411
0.345586
0.367651
0.390012
0.41242
0.434669
0.456596
0.478075
0.499014
0.519345
0.539026
0.558028
0.576336
0.593946
0.610859
0.627083
0.642627
0.657503
0.671724
0.685301
0.698245
0.71056
0.72225
0.733328
0.743799
0.753672
0.762952
0.771642
0.77975
0.787281
0.794244
0.80065
0.806515
0.81186
0.81671
0.821096
0.825049
0.828606
0.831799
0.834658
0.837205
0.839449
0.841386
0.842996
0.844242
0.845082
0.845487
0.385025
0.363699
0.344363
0.326707
0.310498
0.295561
0.281772
0.269042
0.257306
0.246517
0.236644
0.227667
0.219578
0.21238
0.206088
0.20073
0.196348
0.193
0.190761
0.189721
0.18999
0.191688
0.19494
0.199869
0.206575
0.215125
0.225537
0.237769
0.251715
0.267211
0.284048
0.301987
0.320778
0.340173
0.359944
0.379887
0.399824
0.419607
0.439118
0.45826
0.476958
0.495158
0.512816
0.529903
0.546397
0.562286
0.577559
0.592213
0.606244
0.619652
0.632425
0.644563
0.656068
0.666942
0.677189
0.686811
0.695813
0.704199
0.711978
0.719161
0.725764
0.731806
0.737311
0.742308
0.746829
0.75091
0.754585
0.757885
0.760839
0.763464
0.765766
0.767739
0.76936
0.770606
0.771464
0.385039
0.363763
0.344529
0.327031
0.311019
0.296298
0.282719
0.270166
0.25855
0.247804
0.237875
0.228725
0.220326
0.21266
0.205716
0.199495
0.194005
0.189262
0.185294
0.182139
0.179847
0.178479
0.178108
0.178817
0.180697
0.18384
0.188336
0.194259
0.201662
0.210564
0.220946
0.232746
0.24586
0.260148
0.275447
0.291573
0.308341
0.325569
0.343085
0.360737
0.378386
0.395917
0.413229
0.430241
0.446883
0.463102
0.478852
0.494096
0.508808
0.522964
0.536546
0.549527
0.561896
0.573645
0.584769
0.595266
0.605134
0.614375
0.622996
0.631005
0.638414
0.645242
0.651509
0.657242
0.662471
0.667228
0.671547
0.675461
0.678999
0.682185
0.685033
0.687547
0.689719
0.691536
0.693004
0.385045
0.363793
0.344613
0.327207
0.311323
0.296756
0.283344
0.270952
0.259476
0.248832
0.238951
0.229781
0.221278
0.213411
0.206155
0.199492
0.193412
0.187912
0.182994
0.178668
0.17495
0.171863
0.169439
0.167716
0.166741
0.16657
0.167264
0.16889
0.171516
0.175209
0.180029
0.18602
0.19321
0.2016
0.211164
0.221846
0.233564
0.24621
0.259659
0.273776
0.288419
0.303449
0.318733
0.334145
0.349573
0.364916
0.380085
0.395003
0.409604
0.423832
0.437641
0.450991
0.463838
0.476155
0.487921
0.499121
0.509743
0.519779
0.529228
0.538091
0.546375
0.55409
0.56125
0.567876
0.573992
0.579624
0.584801
0.589553
0.593907
0.59789
0.601519
0.604806
0.607753
0.610358
0.612632
0.385047
0.363805
0.344651
0.327293
0.311482
0.297013
0.283715
0.271447
0.260093
0.249557
0.239761
0.230639
0.22214
0.21422
0.206844
0.199984
0.193619
0.187734
0.182318
0.177365
0.172874
0.16885
0.165302
0.162241
0.159688
0.157665
0.156202
0.155334
0.155098
0.155542
0.156711
0.158657
0.16143
0.165076
0.169635
0.175137
0.181598
0.189016
0.19737
0.206617
0.216698
0.227534
0.239034
0.251096
0.263613
0.276477
0.28958
0.30282
0.316102
0.329338
0.342449
0.355368
0.368031
0.380377
0.39236
0.403941
0.415087
0.425772
0.435976
0.445685
0.454888
0.463584
0.471771
0.479458
0.486654
0.493376
0.499641
0.505471
0.510888
0.515914
0.520567
0.524862
0.528808
0.532408
0.535675
0.385048
0.36381
0.344666
0.32733
0.311556
0.29714
0.28391
0.271721
0.260452
0.250001
0.240283
0.231225
0.222767
0.214859
0.207459
0.200533
0.194052
0.187994
0.18234
0.177077
0.172195
0.167688
0.163555
0.159795
0.156413
0.153417
0.150818
0.148631
0.146872
0.145563
0.144731
0.144402
0.14461
0.145388
0.146775
0.148806
0.15152
0.154949
0.159124
0.164065
0.169784
0.176281
0.183544
0.191544
0.200241
0.20958
0.219498
0.229919
0.240763
0.251947
0.263386
0.274996
0.286698
0.298412
0.310062
0.321579
0.332901
0.343973
0.354746
0.365177
0.375231
0.384881
0.394105
0.402888
0.411223
0.419106
0.426542
0.433539
0.440109
0.446268
0.452029
0.457408
0.462416
0.467063
0.471352
0.385048
0.363811
0.344671
0.327343
0.311584
0.297191
0.283992
0.271841
0.260616
0.250212
0.24054
0.231524
0.2231
0.215215
0.207823
0.200885
0.19437
0.18825
0.182505
0.177117
0.172072
0.16736
0.162973
0.158908
0.155163
0.151739
0.148639
0.14587
0.14344
0.14136
0.139644
0.138308
0.137371
0.136854
0.136782
0.137182
0.138083
0.139516
0.141514
0.144108
0.147331
0.15121
0.155769
0.161027
0.166992
0.173664
0.181029
0.189061
0.197724
0.206965
0.216725
0.226931
0.237507
0.24837
0.259435
0.270612
0.281819
0.292974
0.304002
0.314835
0.325414
0.335688
0.345612
0.355154
0.364287
0.372993
0.381263
0.389095
0.396492
0.403462
0.410016
0.416167
0.421928
0.427309
0.432311
0.385048
0.363811
0.344671
0.327343
0.311584
0.297191
0.283992
0.271841
0.260616
0.250212
0.24054
0.231524
0.2231
0.215215
0.207823
0.200885
0.19437
0.18825
0.182505
0.177117
0.172072
0.16736
0.162973
0.158908
0.155163
0.151739
0.148639
0.14587
0.14344
0.14136
0.139644
0.138307
0.13737
0.136853
0.136781
0.137181
0.138082
0.139515
0.141513
0.144107
0.14733
0.151209
0.155768
0.161026
0.166991
0.173662
0.181027
0.18906
0.197722
0.206964
0.216723
0.226929
0.237505
0.248369
0.259433
0.270611
0.281817
0.292972
0.304
0.314833
0.325412
0.335685
0.34561
0.355152
0.364285
0.372992
0.381264
0.389099
0.396499
0.403474
0.410034
0.416192
0.421961
0.42735
0.432361
0.385048
0.36381
0.344666
0.32733
0.311556
0.29714
0.28391
0.271721
0.260452
0.250001
0.240283
0.231225
0.222767
0.214859
0.207459
0.200533
0.194052
0.187994
0.18234
0.177077
0.172194
0.167688
0.163554
0.159794
0.156412
0.153416
0.150817
0.148628
0.146869
0.14556
0.144727
0.144397
0.144604
0.145382
0.146767
0.148798
0.15151
0.154938
0.159111
0.16405
0.169768
0.176264
0.183525
0.191523
0.200219
0.209557
0.219473
0.229892
0.240736
0.251919
0.263357
0.274966
0.286667
0.298381
0.310031
0.321548
0.33287
0.343942
0.354714
0.365145
0.375199
0.384849
0.394073
0.402858
0.411194
0.41908
0.426522
0.433527
0.440108
0.44628
0.452059
0.457458
0.462487
0.467157
0.471468
0.385047
0.363805
0.344651
0.327293
0.311482
0.297013
0.283715
0.271447
0.260093
0.249557
0.239761
0.23064
0.222141
0.21422
0.206844
0.199984
0.193619
0.187734
0.182317
0.177364
0.172873
0.168849
0.165299
0.162238
0.159684
0.15766
0.156196
0.155326
0.155089
0.155531
0.156698
0.158642
0.161412
0.165055
0.169611
0.17511
0.181568
0.188982
0.197332
0.206575
0.216652
0.227485
0.238982
0.251041
0.263556
0.276417
0.289518
0.302756
0.316037
0.329272
0.342382
0.3553
0.367963
0.380309
0.392292
0.403872
0.415018
0.425703
0.435907
0.445616
0.45482
0.463515
0.471704
0.479393
0.486593
0.49332
0.499595
0.505438
0.510872
0.515919
0.520598
0.524923
0.5289
0.532532
0.535828
0.385045
0.363793
0.344613
0.327207
0.311323
0.296757
0.283344
0.270953
0.259477
0.248833
0.238952
0.229782
0.221279
0.213412
0.206155
0.199492
0.193412
0.187911
0.182993
0.178666
0.174946
0.171858
0.169432
0.167707
0.166731
0.166557
0.167248
0.16887
0.171492
0.175181
0.179996
0.185982
0.193167
0.201551
0.211109
0.221786
0.233498
0.246138
0.259583
0.273695
0.288334
0.303361
0.318641
0.334051
0.349476
0.364818
0.379985
0.394902
0.409503
0.42373
0.437539
0.450889
0.463736
0.476053
0.48782
0.49902
0.509641
0.519678
0.529127
0.537991
0.546275
0.55399
0.561152
0.567782
0.573903
0.579544
0.584734
0.589503
0.593881
0.597892
0.601554
0.604877
0.607862
0.610504
0.612811
0.385039
0.363763
0.344529
0.327031
0.311019
0.296299
0.28272
0.270167
0.258551
0.247805
0.237876
0.228726
0.220327
0.21266
0.205716
0.199494
0.194003
0.189258
0.185289
0.182132
0.179838
0.178466
0.178092
0.178796
0.180671
0.183809
0.188298
0.194215
0.20161
0.210504
0.220878
0.23267
0.245775
0.260057
0.275348
0.291468
0.308231
0.325453
0.342966
0.360614
0.378261
0.39579
0.413101
0.430111
0.446753
0.462971
0.478721
0.493966
0.508678
0.522834
0.536417
0.549399
0.561769
0.573519
0.584643
0.59514
0.605009
0.614251
0.622872
0.630881
0.638291
0.64512
0.65139
0.657127
0.662364
0.667132
0.671468
0.675404
0.67897
0.68219
0.685078
0.687634
0.68985
0.691708
0.693209
0.385025
0.363699
0.344363
0.326708
0.310499
0.295562
0.281774
0.269044
0.257308
0.246519
0.236645
0.227668
0.219578
0.212379
0.206086
0.200726
0.196342
0.192991
0.190748
0.189704
0.189968
0.191659
0.194904
0.199824
0.20652
0.215061
0.225462
0.237683
0.251618
0.267104
0.283932
0.301862
0.320645
0.340034
0.3598
0.379738
0.399672
0.419453
0.438962
0.458103
0.476801
0.495001
0.512659
0.529747
0.546242
0.562132
0.577407
0.592061
0.606094
0.619503
0.632277
0.644417
0.655923
0.666799
0.677047
0.68667
0.695672
0.704058
0.711838
0.719021
0.725625
0.731668
0.737177
0.74218
0.746711
0.750807
0.754502
0.75783
0.760817
0.763482
0.76583
0.767851
0.769521
0.770809
0.771701
0.384994
0.363574
0.344063
0.326167
0.309684
0.294479
0.280466
0.267591
0.255816
0.245122
0.235505
0.226971
0.219545
0.213266
0.208194
0.204412
0.202027
0.20117
0.201995
0.204673
0.209371
0.216241
0.225387
0.236845
0.250562
0.266393
0.284106
0.303406
0.323959
0.345427
0.367484
0.38984
0.412243
0.43449
0.456415
0.477893
0.498831
0.519163
0.538844
0.557847
0.576157
0.593769
0.610684
0.62691
0.642456
0.657334
0.671557
0.685136
0.698083
0.710399
0.722092
0.733171
0.743644
0.753518
0.762799
0.771491
0.779599
0.787131
0.794093
0.8005
0.806366
0.811714
0.816568
0.820961
0.824927
0.828502
0.831719
0.834611
0.837197
0.839487
0.841476
0.84314
0.844438
0.845323
0.845759
0.384935
0.36335
0.343567
0.325335
0.308511
0.293018
0.278818
0.265896
0.254254
0.243907
0.234889
0.227254
0.221083
0.216486
0.21361
0.212637
0.213783
0.21728
0.223357
0.232198
0.243902
0.258448
0.275678
0.295296
0.316907
0.340058
0.364282
0.389144
0.41426
0.439311
0.464047
0.488276
0.511861
0.534709
0.556758
0.577977
0.598352
0.617886
0.63659
0.654482
0.671587
0.687929
0.703537
0.718435
0.732651
0.746209
0.75913
0.771435
0.783134
0.79424
0.804768
0.81473
0.824136
0.832993
0.841307
0.849083
0.856326
0.863042
0.86924
0.874931
0.880132
0.884864
0.889156
0.893039
0.896547
0.899716
0.902578
0.905159
0.907473
0.90952
0.911279
0.912714
0.913763
0.914363
0.914453
0.384827
0.362977
0.342807
0.324151
0.30695
0.291202
0.276926
0.264158
0.252948
0.243368
0.235519
0.229544
0.225631
0.224025
0.225019
0.228933
0.23608
0.246699
0.260888
0.278554
0.299392
0.322913
0.348516
0.37556
0.403435
0.431611
0.459654
0.487232
0.514105
0.540109
0.565141
0.589146
0.612101
0.63401
0.654892
0.674779
0.693709
0.711723
0.728866
0.745181
0.76071
0.775493
0.789568
0.802971
0.815733
0.827884
0.839447
0.850442
0.860882
0.870787
0.880172
0.889049
0.897427
0.905314
0.912713
0.91963
0.926067
0.932031
0.93753
0.942574
0.947183
0.951377
0.955186
0.958641
0.961779
0.964633
0.967232
0.969598
0.971735
0.973632
0.975256
0.97655
0.977437
0.977833
0.977651
0.384645
0.362402
0.341724
0.322578
0.305017
0.289125
0.274992
0.262721
0.252441
0.244324
0.238605
0.23559
0.235666
0.239274
0.246854
0.258749
0.275094
0.295725
0.320163
0.347677
0.3774
0.408461
0.440078
0.471615
0.502589
0.532661
0.56161
0.589308
0.615692
0.640752
0.664508
0.687
0.708285
0.728424
0.747482
0.765524
0.782613
0.798811
0.814174
0.828756
0.842605
0.855766
0.868281
0.880185
0.891512
0.90229
0.912539
0.922278
0.931527
0.940303
0.948621
0.95649
0.963919
0.970912
0.977474
0.983606
0.989313
0.994598
0.99947
1.00394
1.00803
1.01175
1.01515
1.01825
1.02109
1.02371
1.02612
1.02834
1.03037
1.03219
1.03374
1.03496
1.03574
1.03599
1.03559
0.384357
0.361569
0.340275
0.320619
0.302791
0.286976
0.273359
0.262154
0.253634
0.248166
0.246231
0.248416
0.255349
0.267569
0.28534
0.30849
0.336365
0.36793
0.401972
0.437308
0.472928
0.508054
0.542141
0.574839
0.605953
0.635395
0.663155
0.68927
0.71381
0.736859
0.75851
0.77886
0.798001
0.816024
0.833012
0.849044
0.864191
0.878521
0.892092
0.904958
0.91717
0.928769
0.939796
0.950285
0.960266
0.969763
0.978792
0.987377
0.995537
1.00328
1.01063
1.01759
1.02416
1.03035
1.03616
1.04159
1.04665
1.05133
1.05565
1.05961
1.06325
1.06657
1.06962
1.07243
1.07504
1.07747
1.07975
1.08189
1.08387
1.08565
1.08719
1.08837
1.0891
1.08924
1.08865
0.383927
0.360433
0.338442
0.318325
0.300431
0.285075
0.272596
0.263411
0.258075
0.257314
0.261993
0.272966
0.290808
0.315512
0.34633
0.381887
0.420501
0.460537
0.50064
0.539816
0.577419
0.613076
0.646615
0.678001
0.707281
0.734554
0.759947
0.783596
0.805639
0.826209
0.845433
0.863427
0.880299
0.896145
0.911054
0.925105
0.938368
0.950909
0.962782
0.97404
0.984727
0.994882
1.00454
1.01374
1.02249
1.03082
1.03875
1.0463
1.05348
1.06031
1.06679
1.07294
1.07875
1.08422
1.08937
1.09418
1.09866
1.10281
1.10664
1.11017
1.11342
1.1164
1.11916
1.12174
1.12416
1.12646
1.12865
1.13075
1.13272
1.13452
1.13606
1.13725
1.13794
1.13801
1.13727
0.383319
0.358958
0.336244
0.315811
0.298206
0.283951
0.273661
0.268152
0.26849
0.275923
0.291577
0.315958
0.348517
0.38762
0.430987
0.476297
0.521626
0.565614
0.607424
0.646626
0.683068
0.71677
0.747858
0.776507
0.802914
0.82728
0.849796
0.870644
0.889987
0.907975
0.924741
0.940404
0.95507
0.968833
0.981776
0.993972
1.00549
1.01638
1.0267
1.03649
1.0458
1.05465
1.06308
1.07111
1.07876
1.08606
1.09301
1.09964
1.10596
1.11197
1.11769
1.12312
1.12826
1.1331
1.13766
1.14193
1.14591
1.1496
1.15301
1.15617
1.15908
1.16177
1.1643
1.16668
1.16896
1.17117
1.17332
1.1754
1.17739
1.17923
1.18081
1.18202
1.18271
1.18272
1.18186
0.382499
0.357132
0.333739
0.313276
0.296568
0.284508
0.27825
0.279332
0.289537
0.310342
0.342057
0.383258
0.431091
0.482235
0.533801
0.583741
0.630842
0.674526
0.714639
0.751269
0.784637
0.81502
0.842711
0.867994
0.89113
0.912361
0.931899
0.949931
0.966625
0.982125
0.996558
1.01003
1.02265
1.0345
1.04564
1.05615
1.06609
1.0755
1.08442
1.09291
1.10098
1.10867
1.11601
1.12301
1.12968
1.13606
1.14216
1.14798
1.15353
1.15883
1.16388
1.16868
1.17324
1.17754
1.18159
1.18538
1.18892
1.19221
1.19527
1.19809
1.20072
1.20318
1.2055
1.20774
1.20991
1.21206
1.21418
1.21628
1.21831
1.2202
1.22184
1.2231
1.2238
1.22378
1.22283
0.381436
0.354959
0.331044
0.311056
0.296297
0.288366
0.28942
0.30201
0.328145
0.367832
0.418385
0.475358
0.534265
0.591732
0.64574
0.695353
0.740336
0.780846
0.817229
0.849905
0.879296
0.905804
0.929787
0.951564
0.971412
0.989572
1.00625
1.02162
1.03584
1.04905
1.06134
1.07283
1.0836
1.09372
1.10325
1.11226
1.12079
1.12888
1.13657
1.14389
1.15087
1.15754
1.16392
1.17
1.17583
1.18141
1.18675
1.19186
1.19675
1.20143
1.20589
1.21015
1.21419
1.21801
1.22162
1.225
1.22817
1.23112
1.23386
1.23641
1.23879
1.24105
1.24321
1.24533
1.24742
1.24953
1.25165
1.25378
1.25587
1.25782
1.25953
1.26084
1.26158
1.26155
1.26054
0.380108
0.352477
0.328359
0.309741
0.298807
0.2985
0.312469
0.343631
0.391724
0.452364
0.519027
0.585869
0.649089
0.70683
0.75855
0.804426
0.844967
0.880792
0.912518
0.940714
0.965879
0.988444
1.00877
1.02718
1.04392
1.05922
1.07326
1.08621
1.09819
1.10932
1.11971
1.12942
1.13854
1.14713
1.15524
1.16291
1.1702
1.17713
1.18373
1.19004
1.19607
1.20184
1.20736
1.21266
1.21774
1.22261
1.22729
1.23179
1.2361
1.24024
1.24419
1.24797
1.25157
1.25498
1.2582
1.26124
1.26408
1.26673
1.2692
1.27152
1.2737
1.27579
1.27782
1.27983
1.28187
1.28395
1.28609
1.28825
1.2904
1.29242
1.2942
1.29558
1.29636
1.29636
1.29532
0.378499
0.349757
0.326046
0.310415
0.306752
0.320203
0.355304
0.411906
0.483479
0.560703
0.636003
0.705133
0.766519
0.820133
0.866647