/*--------------------------------*- C++ -*----------------------------------*\
  =========                 |
  \\      /  F ield         | OpenFOAM: The Open Source CFD Toolbox
   \\    /   O peration     | Website:  https://openfoam.org
    \\  /    A nd           | Version:  7
     \\/     M anipulation  |
\*---------------------------------------------------------------------------*/
FoamFile
{
    version     2.0;
    format      ascii;
    class       volScalarField;
    location    "750";
    object      nut;
}
// * * * * * * * * * * * * * * * * * * * * * * * * * * * * * * * * * * * * * //

dimensions      [0 2 -1 0 0 0 0];

internalField   nonuniform List<scalar> 
4500
(
0.000506064
0.000491803
0.000480303
0.000472195
0.000465952
0.000461027
0.000457063
0.00045381
0.000451094
0.000448794
0.000446826
0.000445126
0.000443647
0.000442353
0.000441217
0.000440216
0.000439331
0.000438548
0.000437854
0.000437239
0.000436695
0.000436214
0.00043579
0.000435417
0.000435091
0.000434806
0.000434561
0.000434351
0.000434173
0.000434025
0.000433905
0.00043381
0.000433739
0.00043369
0.000433661
0.000433651
0.000433659
0.000433683
0.000433722
0.000433775
0.000433842
0.000433921
0.000434011
0.000434113
0.000434224
0.000434345
0.000434475
0.000434612
0.000434756
0.000434907
0.000435064
0.000435226
0.000435392
0.000435562
0.000435735
0.00043591
0.000436086
0.000436264
0.000436443
0.000436623
0.000436803
0.000436984
0.000437167
0.000437352
0.000437539
0.000437727
0.000437917
0.000438106
0.000438292
0.000438472
0.000438642
0.000438797
0.000438932
0.00043904
0.000439119
0.000607327
0.000974335
0.00114372
0.00120841
0.00123497
0.00124672
0.00125197
0.00125409
0.00125464
0.00125437
0.00125368
0.00125278
0.00125181
0.00125083
0.00124989
0.001249
0.00124819
0.00124745
0.0012468
0.00124623
0.00124574
0.00124532
0.00124497
0.0012447
0.00124449
0.00124434
0.00124426
0.00124423
0.00124425
0.00124432
0.00124443
0.0012446
0.0012448
0.00124504
0.00124531
0.00124562
0.00124596
0.00124632
0.00124671
0.00124713
0.00124757
0.00124803
0.00124851
0.00124901
0.00124953
0.00125006
0.00125061
0.00125117
0.00125174
0.00125232
0.00125291
0.0012535
0.00125409
0.00125468
0.00125526
0.00125583
0.0012564
0.00125694
0.00125748
0.001258
0.00125851
0.00125902
0.00125954
0.00126008
0.00126066
0.00126127
0.00126194
0.00126266
0.00126343
0.00126425
0.00126507
0.00126588
0.00126664
0.00126729
0.00126777
0.000713424
0.00121515
0.00157793
0.00177481
0.00188365
0.00194758
0.00198742
0.00201353
0.0020314
0.00204407
0.00205335
0.00206032
0.00206571
0.00206996
0.0020734
0.00207624
0.00207864
0.00208072
0.00208255
0.0020842
0.00208571
0.00208712
0.00208846
0.00208974
0.00209099
0.00209221
0.00209341
0.00209461
0.0020958
0.002097
0.0020982
0.00209941
0.00210063
0.00210186
0.0021031
0.00210435
0.00210561
0.00210687
0.00210813
0.00210941
0.00211069
0.00211198
0.00211328
0.00211458
0.00211588
0.00211719
0.0021185
0.00211981
0.00212111
0.00212241
0.00212369
0.00212496
0.0021262
0.00212742
0.0021286
0.00212974
0.00213083
0.00213187
0.00213286
0.0021338
0.00213472
0.00213564
0.00213659
0.0021376
0.00213871
0.00213995
0.00214136
0.00214292
0.00214464
0.00214647
0.00214834
0.00215017
0.00215184
0.00215323
0.0021541
0.00102124
0.00136022
0.0018715
0.00222328
0.00244808
0.00259473
0.00269401
0.00276382
0.00281468
0.00285291
0.00288244
0.00290581
0.00292469
0.00294025
0.00295329
0.00296439
0.00297397
0.00298236
0.00298979
0.00299644
0.00300247
0.00300798
0.00301307
0.0030178
0.00302224
0.00302642
0.0030304
0.0030342
0.00303785
0.00304136
0.00304477
0.00304807
0.0030513
0.00305444
0.00305753
0.00306055
0.00306352
0.00306643
0.00306928
0.0030721
0.00307486
0.00307759
0.00308029
0.00308295
0.00308557
0.00308816
0.00309071
0.00309322
0.00309569
0.00309812
0.00310049
0.0031028
0.00310504
0.00310721
0.00310928
0.00311125
0.0031131
0.00311484
0.00311647
0.003118
0.00311948
0.00312095
0.00312248
0.00312413
0.00312598
0.0031281
0.00313054
0.0031333
0.00313637
0.00313965
0.00314302
0.00314628
0.0031492
0.00315153
0.00315284
0.00170708
0.00150447
0.00204415
0.00253669
0.00289421
0.00314704
0.00332847
0.0034619
0.00356263
0.0036406
0.00370233
0.00375222
0.00379326
0.00382758
0.0038567
0.00388174
0.00390351
0.00392266
0.00393966
0.00395491
0.00396869
0.00398124
0.00399275
0.00400339
0.00401327
0.00402251
0.00403119
0.00403938
0.00404715
0.00405454
0.00406161
0.00406838
0.0040749
0.00408118
0.00408725
0.00409313
0.00409884
0.00410437
0.00410974
0.00411496
0.00412005
0.00412501
0.00412986
0.00413459
0.00413922
0.00414373
0.00414815
0.00415245
0.00415665
0.00416073
0.00416469
0.00416852
0.00417221
0.00417573
0.00417907
0.00418222
0.00418515
0.00418787
0.00419038
0.00419272
0.00419496
0.00419716
0.00419945
0.00420193
0.00420476
0.00420802
0.00421181
0.00421614
0.00422096
0.00422615
0.00423147
0.00423659
0.00424115
0.00424468
0.00424651
0.00293021
0.00179432
0.00215557
0.00272719
0.0032116
0.00358299
0.00386409
0.004079
0.0042461
0.00437848
0.00448527
0.00457289
0.00464589
0.00470757
0.00476034
0.00480601
0.00484595
0.0048812
0.0049126
0.00494078
0.00496625
0.00498944
0.00501069
0.00503026
0.00504838
0.00506526
0.00508103
0.00509585
0.00510982
0.00512304
0.00513559
0.00514754
0.00515896
0.00516989
0.00518038
0.00519047
0.0052002
0.00520957
0.00521861
0.00522735
0.0052358
0.00524399
0.00525193
0.00525964
0.00526712
0.00527438
0.00528143
0.00528827
0.00529489
0.0053013
0.00530748
0.00531343
0.00531911
0.00532452
0.00532962
0.00533439
0.00533881
0.00534287
0.0053466
0.00535004
0.00535329
0.00535648
0.00535976
0.00536333
0.00536739
0.00537209
0.00537758
0.00538388
0.00539092
0.00539849
0.00540626
0.00541374
0.00542033
0.00542539
0.0054279
0.00471652
0.00241031
0.00230969
0.00283433
0.00340742
0.00389369
0.00428366
0.0045937
0.00484179
0.00504269
0.00520757
0.00534471
0.00546027
0.00555879
0.00564371
0.00571766
0.00578263
0.00584021
0.00589162
0.00593786
0.00597972
0.00601784
0.00605276
0.0060849
0.00611463
0.00614226
0.00616804
0.00619219
0.00621489
0.00623631
0.00625657
0.00627579
0.00629408
0.00631152
0.00632819
0.00634415
0.00635947
0.00637418
0.00638831
0.00640192
0.00641502
0.00642767
0.00643987
0.00645166
0.00646305
0.00647407
0.00648471
0.00649499
0.00650491
0.00651447
0.00652366
0.00653246
0.00654085
0.0065488
0.00655627
0.00656323
0.00656966
0.00657554
0.00658092
0.00658585
0.00659047
0.00659497
0.00659957
0.00660454
0.00661017
0.0066167
0.0066243
0.00663302
0.00664278
0.00665328
0.00666404
0.00667439
0.00668349
0.00669041
0.00669374
0.00695534
0.00349985
0.00265963
0.00293574
0.00351092
0.00408367
0.00457876
0.00499055
0.00533047
0.0056121
0.00584735
0.00604576
0.00621481
0.00636025
0.00648655
0.00659718
0.00669488
0.0067818
0.00685966
0.00692986
0.00699353
0.00705158
0.00710479
0.00715379
0.0071991
0.00724119
0.00728043
0.00731714
0.0073516
0.00738404
0.00741468
0.00744369
0.00747122
0.00749741
0.00752238
0.00754623
0.00756906
0.00759092
0.00761187
0.00763198
0.0076513
0.00766989
0.00768777
0.007705
0.0077216
0.00773759
0.00775301
0.00776785
0.00778214
0.00779586
0.00780902
0.00782159
0.00783355
0.00784485
0.00785545
0.00786532
0.00787441
0.00788272
0.00789029
0.00789723
0.0079037
0.00790995
0.0079163
0.00792311
0.00793074
0.00793955
0.00794975
0.00796143
0.00797446
0.00798846
0.00800279
0.00801655
0.00802862
0.00803774
0.00804202
0.00946494
0.00509827
0.00338174
0.00315982
0.00358556
0.0041774
0.00475296
0.00526158
0.00569759
0.00606845
0.00638432
0.00665477
0.00688795
0.00709051
0.00726779
0.00742409
0.00756284
0.00768683
0.0077983
0.00789909
0.00799071
0.00807441
0.00815122
0.00822202
0.00828754
0.0083484
0.00840513
0.00845819
0.00850797
0.00855481
0.00859899
0.00864076
0.00868037
0.00871798
0.00875379
0.00878793
0.00882054
0.00885172
0.00888156
0.00891015
0.00893757
0.00896389
0.00898917
0.00901347
0.00903683
0.0090593
0.0090809
0.00910166
0.0091216
0.00914073
0.00915902
0.00917648
0.00919305
0.00920871
0.00922338
0.00923703
0.00924961
0.00926111
0.0092716
0.00928121
0.00929014
0.00929873
0.00930739
0.00931657
0.00932675
0.00933838
0.00935176
0.00936698
0.00938388
0.00940199
0.00942047
0.00943816
0.00945363
0.00946524
0.00947056
0.0120503
0.00712193
0.0046001
0.00367976
0.00374451
0.00423199
0.00482945
0.00541081
0.00593604
0.00639799
0.00680078
0.00715173
0.00745842
0.00772772
0.00796548
0.00817659
0.00836512
0.00853441
0.00868723
0.00882588
0.00895227
0.00906798
0.00917438
0.00927259
0.00936358
0.00944817
0.00952706
0.00960086
0.00967009
0.00973522
0.00979663
0.00985468
0.00990967
0.00996186
0.0100115
0.0100588
0.0101039
0.0101469
0.0101881
0.0102275
0.0102653
0.0103015
0.0103362
0.0103695
0.0104015
0.0104322
0.0104617
0.01049
0.0105172
0.0105432
0.010568
0.0105917
0.0106142
0.0106354
0.0106553
0.0106738
0.0106909
0.0107066
0.0107208
0.010734
0.0107461
0.0107578
0.0107695
0.0107817
0.0107951
0.0108102
0.0108273
0.0108467
0.0108681
0.0108909
0.0109141
0.0109363
0.0109555
0.0109699
0.0109763
0.0145382
0.00942111
0.00631631
0.00465971
0.00415424
0.00435399
0.00486444
0.00546284
0.00605162
0.00659513
0.00708406
0.00751953
0.00790638
0.0082504
0.0085572
0.00883188
0.00907883
0.00930184
0.0095041
0.00968833
0.00985683
0.0100115
0.0101541
0.010286
0.0104083
0.0105222
0.0106285
0.010728
0.0108215
0.0109094
0.0109923
0.0110706
0.0111449
0.0112153
0.0112822
0.0113459
0.0114067
0.0114647
0.0115201
0.0115731
0.0116238
0.0116724
0.011719
0.0117637
0.0118065
0.0118476
0.011887
0.0119248
0.011961
0.0119957
0.0120288
0.0120603
0.0120902
0.0121184
0.0121449
0.0121696
0.0121924
0.0122134
0.0122326
0.0122502
0.0122666
0.0122823
0.0122978
0.0123139
0.0123312
0.0123505
0.0123721
0.0123964
0.0124229
0.012451
0.0124794
0.0125064
0.0125299
0.0125472
0.0125548
0.0167964
0.0118301
0.00841662
0.00616647
0.00499572
0.00470745
0.00496497
0.00547746
0.00607302
0.00666908
0.00723109
0.00774722
0.00821571
0.00863906
0.00902134
0.00936699
0.00968026
0.00996504
0.0102248
0.0104624
0.0106807
0.0108817
0.0110675
0.0112398
0.0113999
0.0115493
0.0116889
0.0118197
0.0119427
0.0120584
0.0121676
0.0122709
0.0123688
0.0124616
0.0125499
0.0126339
0.0127139
0.0127904
0.0128634
0.0129332
0.013
0.0130639
0.0131252
0.0131839
0.0132402
0.0132941
0.0133459
0.0133954
0.0134429
0.0134883
0.0135316
0.0135729
0.0136121
0.0136491
0.0136838
0.0137162
0.0137463
0.013774
0.0137994
0.0138228
0.0138446
0.0138654
0.0138858
0.0139066
0.0139288
0.013953
0.0139799
0.0140096
0.0140418
0.0140758
0.01411
0.0141423
0.0141703
0.014191
0.0142
0.0187409
0.0141959
0.0107323
0.00812806
0.00637517
0.00548226
0.0052985
0.00556839
0.00606791
0.00665555
0.00725658
0.00783569
0.00837814
0.00887927
0.00933926
0.00976046
0.0101461
0.0104994
0.0108239
0.0111225
0.011398
0.0116528
0.0118892
0.0121089
0.0123137
0.0125051
0.0126843
0.0128526
0.0130109
0.0131602
0.0133011
0.0134345
0.0135609
0.0136809
0.013795
0.0139037
0.0140072
0.0141061
0.0142006
0.0142909
0.0143773
0.01446
0.0145392
0.0146152
0.0146879
0.0147577
0.0148245
0.0148885
0.0149498
0.0150084
0.0150643
0.0151176
0.0151682
0.015216
0.015261
0.015303
0.0153421
0.0153782
0.0154114
0.0154421
0.0154707
0.0154978
0.0155243
0.015551
0.015579
0.0156091
0.0156419
0.0156778
0.0157164
0.0157567
0.0157972
0.0158354
0.0158684
0.0158927
0.0159035
0.0203353
0.0163925
0.0130921
0.0103772
0.00825299
0.00680513
0.00606205
0.00591225
0.00616261
0.00663481
0.00720686
0.00780792
0.00840069
0.00896709
0.00949942
0.00999542
0.0104556
0.0108818
0.0112765
0.0116424
0.0119818
0.0122974
0.0125913
0.0128656
0.013122
0.0133623
0.0135879
0.0138001
0.0140001
0.0141889
0.0143674
0.0145366
0.014697
0.0148495
0.0149946
0.0151328
0.0152646
0.0153904
0.0155107
0.0156258
0.0157358
0.0158412
0.0159422
0.0160389
0.0161316
0.0162205
0.0163057
0.0163872
0.0164653
0.01654
0.0166113
0.0166792
0.0167437
0.0168047
0.0168622
0.0169161
0.0169662
0.0170127
0.0170557
0.0170954
0.0171325
0.0171675
0.0172014
0.0172352
0.0172701
0.0173071
0.0173468
0.0173895
0.0174351
0.0174824
0.0175296
0.0175741
0.0176126
0.0176413
0.0176544
0.0215825
0.0183294
0.0153493
0.0127226
0.0104644
0.0086521
0.0073891
0.00671235
0.00654767
0.00675168
0.00718034
0.00772556
0.00831836
0.00891864
0.00950458
0.0100651
0.0105953
0.0110936
0.0115604
0.0119971
0.0124054
0.0127874
0.0131451
0.0134804
0.0137951
0.014091
0.0143697
0.0146324
0.0148806
0.0151154
0.0153378
0.0155488
0.0157492
0.0159399
0.0161214
0.0162946
0.0164598
0.0166177
0.0167687
0.0169132
0.0170515
0.017184
0.0173109
0.0174326
0.0175492
0.0176611
0.0177682
0.0178709
0.0179692
0.0180633
0.0181531
0.0182386
0.01832
0.018397
0.0184697
0.0185379
0.0186016
0.0186608
0.0187157
0.0187666
0.018814
0.0188587
0.0189016
0.0189441
0.0189872
0.019032
0.0190795
0.0191299
0.0191831
0.0192379
0.0192925
0.019344
0.0193886
0.0194223
0.0194388
0.0225141
0.0199544
0.0173928
0.0149958
0.0127993
0.010854
0.00925304
0.00809649
0.00743
0.00721364
0.00734589
0.00771147
0.00821417
0.00878619
0.00938426
0.00998242
0.0105658
0.0111265
0.0116607
0.0121669
0.0126453
0.0130966
0.0135221
0.0139234
0.0143021
0.0146596
0.0149974
0.0153171
0.0156199
0.0159071
0.0161797
0.0164388
0.0166854
0.0169203
0.0171444
0.0173582
0.0175626
0.017758
0.017945
0.0181241
0.0182957
0.0184602
0.0186178
0.018769
0.0189141
0.0190532
0.0191865
0.0193143
0.0194367
0.0195539
0.0196658
0.0197725
0.019874
0.0199703
0.0200612
0.0201467
0.0202268
0.0203014
0.0203707
0.0204351
0.0204951
0.0205515
0.0206054
0.0206581
0.0207109
0.0207649
0.0208212
0.0208803
0.0209418
0.0210049
0.0210675
0.0211266
0.0211782
0.021218
0.021239
0.0231786
0.0212515
0.0191504
0.0170697
0.0150687
0.0131822
0.011469
0.0100167
0.00891707
0.0082239
0.00792738
0.00796293
0.00824224
0.00868153
0.00921499
0.00979641
0.0103955
0.0109932
0.0115781
0.0121436
0.0126863
0.0132046
0.0136982
0.0141674
0.0146131
0.0150364
0.0154384
0.0158204
0.0161835
0.0165289
0.0168579
0.0171713
0.0174702
0.0177555
0.0180281
0.0182887
0.018538
0.0187768
0.0190055
0.0192248
0.0194351
0.0196369
0.0198305
0.0200163
0.0201946
0.0203657
0.0205299
0.0206873
0.0208381
0.0209825
0.0211206
0.0212524
0.0213778
0.021497
0.0216096
0.0217158
0.0218154
0.0219085
0.0219951
0.0220757
0.0221509
0.0222215
0.0222885
0.0223534
0.0224175
0.0224823
0.0225487
0.0226174
0.0226883
0.0227604
0.0228317
0.0228993
0.0229589
0.0230059
0.0230331
0.0236309
0.0222362
0.0205882
0.0188628
0.0171328
0.0154307
0.0137891
0.0122607
0.0109209
0.00985089
0.00911003
0.00871324
0.00862895
0.00879609
0.00914584
0.0096168
0.0101611
0.0107443
0.0113431
0.011942
0.0125313
0.0131048
0.0136592
0.0141925
0.014704
0.0151937
0.0156619
0.0161093
0.0165367
0.0169451
0.0173354
0.0177085
0.0180653
0.0184068
0.0187338
0.0190471
0.0193473
0.0196353
0.0199117
0.0201769
0.0204317
0.0206764
0.0209114
0.0211371
0.021354
0.0215623
0.0217622
0.0219542
0.0221382
0.0223145
0.0224832
0.0226444
0.022798
0.0229439
0.0230823
0.0232128
0.0233356
0.0234505
0.0235578
0.0236578
0.0237511
0.0238385
0.0239212
0.0240006
0.0240781
0.0241553
0.0242333
0.0243129
0.0243942
0.0244764
0.0245575
0.0246346
0.0247035
0.0247593
0.0247945
0.0239241
0.0229458
0.0217059
0.0203354
0.0189062
0.0174526
0.0159956
0.0145615
0.0131926
0.0119492
0.0109003
0.0101063
0.0095999
0.00937813
0.00940743
0.00963764
0.0100159
0.0104955
0.0110393
0.0116196
0.0122168
0.0128173
0.0134122
0.0139954
0.0145632
0.0151133
0.0156445
0.0161563
0.0166487
0.0171218
0.0175763
0.0180127
0.0184318
0.0188341
0.0192205
0.0195917
0.0199484
0.0202912
0.0206208
0.0209377
0.0212425
0.0215358
0.0218179
0.0220892
0.0223501
0.022601
0.0228421
0.0230737
0.023296
0.0235092
0.0237134
0.0239086
0.0240949
0.0242722
0.0244404
0.0245995
0.0247494
0.0248901
0.0250217
0.0251445
0.0252592
0.0253666
0.0254678
0.0255643
0.0256577
0.0257494
0.0258408
0.025933
0.0260262
0.0261197
0.0262118
0.0262997
0.0263793
0.0264457
0.0264913
0.0241048
0.0234303
0.0225301
0.0214842
0.0203512
0.0191647
0.0179427
0.0166986
0.0154511
0.0142309
0.0130828
0.0120624
0.0112256
0.0106148
0.010249
0.0101206
0.0102015
0.0104527
0.0108329
0.0113054
0.0118395
0.0124118
0.0130047
0.0136056
0.0142055
0.0147983
0.0153798
0.0159471
0.0164986
0.0170333
0.0175506
0.0180505
0.0185331
0.0189987
0.0194476
0.0198805
0.0202977
0.0206999
0.0210876
0.0214612
0.0218214
0.0221685
0.022503
0.0228254
0.0231358
0.0234347
0.0237223
0.023999
0.0242648
0.02452
0.0247647
0.024999
0.0252228
0.0254361
0.0256389
0.025831
0.0260123
0.0261829
0.0263429
0.0264925
0.0266324
0.0267632
0.0268863
0.027003
0.0271149
0.0272238
0.027331
0.0274378
0.0275446
0.0276511
0.0277558
0.0278562
0.0279483
0.0280275
0.0280862
0.0242104
0.023743
0.0231051
0.0223339
0.0214686
0.0205374
0.0195569
0.0185366
0.0174843
0.0164115
0.0153381
0.0142947
0.0133225
0.0124679
0.011775
0.0112758
0.0109838
0.0108936
0.0109844
0.0112267
0.0115885
0.0120397
0.0125545
0.0131118
0.0136953
0.0142927
0.0148948
0.015495
0.0160885
0.0166719
0.0172429
0.0177999
0.018342
0.0188687
0.0193795
0.0198746
0.020354
0.0208179
0.0212667
0.0217006
0.0221201
0.0225254
0.022917
0.023295
0.0236599
0.0240119
0.0243511
0.0246779
0.0249924
0.0252948
0.0255851
0.0258634
0.0261297
0.026384
0.0266261
0.0268559
0.0270733
0.0272784
0.0274711
0.0276518
0.0278209
0.0279792
0.028128
0.0282685
0.0284023
0.0285314
0.0286572
0.0287811
0.0289039
0.0290256
0.0291451
0.0292601
0.0293671
0.0294616
0.0295364
0.0242687
0.0239331
0.0234832
0.022928
0.0222874
0.0215809
0.0208224
0.0200202
0.0191788
0.0183021
0.0173958
0.0164709
0.015546
0.0146483
0.0138124
0.0130761
0.012475
0.0120354
0.0117707
0.0116797
0.0117493
0.0119586
0.012283
0.0126979
0.013181
0.0137132
0.014279
0.0148659
0.0154643
0.0160671
0.0166686
0.0172647
0.0178524
0.0184297
0.0189948
0.0195468
0.0200849
0.0206088
0.0211181
0.0216128
0.0220929
0.0225585
0.0230098
0.0234468
0.0238697
0.0242787
0.0246738
0.0250551
0.0254228
0.025777
0.0261177
0.0264448
0.0267584
0.0270584
0.0273446
0.0276169
0.0278752
0.0281194
0.0283496
0.0285659
0.0287689
0.0289592
0.029138
0.0293065
0.0294664
0.0296194
0.0297674
0.0299119
0.0300539
0.0301937
0.0303307
0.0304631
0.0305878
0.0307008
0.0307955
0.0242989
0.0240415
0.0237167
0.023319
0.0228541
0.0223318
0.0217619
0.0211513
0.0205038
0.0198214
0.019105
0.0183565
0.0175807
0.0167867
0.0159902
0.015213
0.0144829
0.0138304
0.013285
0.0128702
0.0126008
0.0124808
0.0125047
0.0126592
0.0129266
0.0132877
0.0137233
0.0142163
0.0147516
0.0153169
0.015902
0.0164988
0.0171009
0.0177035
0.0183026
0.0188954
0.0194797
0.0200537
0.0206163
0.0211666
0.0217038
0.0222276
0.0227376
0.0232336
0.0237154
0.0241829
0.0246361
0.0250748
0.0254989
0.0259084
0.0263032
0.0266832
0.0270483
0.0273983
0.0277332
0.0280526
0.0283565
0.0286447
0.0289173
0.0291743
0.0294162
0.0296435
0.0298573
0.0300589
0.0302497
0.0304316
0.0306065
0.0307759
0.0309412
0.0311032
0.0312616
0.0314152
0.0315615
0.0316971
0.031816
0.0243137
0.0240994
0.0238516
0.0235602
0.0232227
0.0228417
0.0224217
0.0219673
0.021482
0.0209674
0.020424
0.0198512
0.0192489
0.0186176
0.0179607
0.017285
0.0166018
0.0159277
0.0152838
0.0146943
0.0141835
0.0137732
0.0134797
0.0133118
0.0132708
0.0133509
0.0135415
0.0138287
0.0141972
0.014632
0.0151192
0.0156466
0.0162035
0.0167812
0.0173722
0.0179709
0.0185723
0.0191727
0.0197691
0.0203591
0.0209409
0.0215128
0.0220739
0.022623
0.0231596
0.0236829
0.0241926
0.0246881
0.025169
0.0256349
0.0260856
0.0265209
0.0269404
0.0273439
0.0277312
0.0281019
0.0284559
0.0287929
0.029113
0.0294161
0.0297025
0.0299727
0.0302276
0.0304684
0.0306964
0.0309134
0.0311211
0.0313215
0.0315161
0.0317058
0.031891
0.0320711
0.0322442
0.0324075
0.0325561
0.0243203
0.0241281
0.0239241
0.023699
0.0234471
0.0231665
0.022858
0.0225234
0.0221648
0.0217837
0.0213807
0.0209556
0.0205075
0.0200352
0.0195375
0.0190143
0.0184671
0.0179
0.0173205
0.0167398
0.016173
0.0156382
0.0151549
0.0147427
0.0144182
0.0141938
0.0140765
0.0140677
0.0141634
0.0143559
0.0146348
0.0149883
0.0154045
0.0158718
0.0163798
0.0169191
0.0174816
0.0180606
0.0186502
0.0192456
0.019843
0.0204391
0.0210312
0.0216171
0.0221949
0.0227633
0.0233209
0.0238667
0.0243996
0.024919
0.0254239
0.0259138
0.0263883
0.0268467
0.0272888
0.027714
0.0281221
0.0285127
0.0288856
0.0292407
0.0295782
0.0298983
0.0302018
0.0304895
0.0307627
0.031023
0.031272
0.0315116
0.0317434
0.0319687
0.0321884
0.0324022
0.0326092
0.0328074
0.0329926
0.0243232
0.0241413
0.0239602
0.0237729
0.0235739
0.0233596
0.0231282
0.0228796
0.0226142
0.0223328
0.0220359
0.0217237
0.0213958
0.0210513
0.020689
0.0203073
0.0199048
0.0194805
0.0190346
0.0185687
0.018087
0.0175959
0.0171052
0.0166273
0.0161768
0.0157695
0.0154209
0.0151448
0.014952
0.0148493
0.0148393
0.0149208
0.015089
0.0153369
0.0156558
0.0160362
0.0164686
0.016944
0.017454
0.0179911
0.0185486
0.0191208
0.0197028
0.0202903
0.0208798
0.0214683
0.0220531
0.022632
0.0232033
0.0237651
0.0243162
0.0248551
0.0253809
0.0258926
0.0263896
0.026871
0.0273364
0.027785
0.0282164
0.0286304
0.0290268
0.0294056
0.0297671
0.0301119
0.0304409
0.0307554
0.0310568
0.0313468
0.0316269
0.0318987
0.0321632
0.0324209
0.0326714
0.0329135
0.0331441
0.0243243
0.0241468
0.0239767
0.0238093
0.0236402
0.0234659
0.0232838
0.0230926
0.0228914
0.0226801
0.0224587
0.0222274
0.021986
0.0217344
0.0214717
0.0211972
0.0209094
0.020607
0.0202885
0.0199526
0.0195985
0.0192262
0.0188373
0.0184347
0.0180237
0.0176116
0.0172079
0.016824
0.0164722
0.0161651
0.0159144
0.0157302
0.0156198
0.0155875
0.0156346
0.0157596
0.0159585
0.0162258
0.0165544
0.016937
0.017366
0.0178339
0.0183339
0.0188596
0.0194053
0.0199659
0.0205369
0.0211145
0.0216951
0.0222759
0.0228542
0.0234277
0.0239944
0.0245525
0.0251007
0.0256375
0.0261618
0.0266725
0.0271686
0.0276493
0.0281139
0.028562
0.0289932
0.0294077
0.0298059
0.0301883
0.030556
0.0309103
0.0312525
0.0315841
0.0319063
0.0322199
0.0325252
0.0328217
0.0331073
0.0243246
0.024149
0.0239836
0.0238256
0.0236718
0.0235195
0.0233663
0.0232101
0.0230498
0.0228845
0.0227135
0.0225367
0.0223538
0.0221647
0.0219692
0.0217669
0.0215573
0.0213397
0.021113
0.0208762
0.0206281
0.0203674
0.020093
0.0198044
0.0195013
0.0191846
0.0188565
0.0185202
0.018181
0.0178456
0.0175221
0.0172198
0.0169488
0.0167189
0.0165391
0.016417
0.0163585
0.016367
0.0164439
0.0165884
0.0167979
0.0170683
0.0173946
0.017771
0.0181917
0.0186507
0.0191422
0.0196607
0.0202013
0.0207593
0.0213305
0.021911
0.0224974
0.0230863
0.0236751
0.0242613
0.0248423
0.0254162
0.0259808
0.0265343
0.0270752
0.027602
0.0281136
0.0286091
0.0290882
0.0295508
0.029997
0.0304277
0.0308436
0.0312461
0.0316363
0.0320152
0.0323835
0.0327416
0.0330882
0.0243248
0.0241497
0.0239862
0.0238322
0.0236855
0.023544
0.0234057
0.0232688
0.0231318
0.0229936
0.0228531
0.0227097
0.0225629
0.0224126
0.0222584
0.0221002
0.0219379
0.0217713
0.0216001
0.021424
0.0212425
0.0210549
0.0208606
0.0206585
0.0204481
0.0202285
0.0199992
0.0197601
0.0195117
0.0192553
0.018993
0.0187282
0.0184655
0.0182106
0.01797
0.0177515
0.0175626
0.0174112
0.0173045
0.0172486
0.0172484
0.0173073
0.0174269
0.0176075
0.0178476
0.0181448
0.0184956
0.0188957
0.0193405
0.0198248
0.0203437
0.0208919
0.0214643
0.022056
0.0226624
0.0232789
0.0239013
0.0245259
0.0251488
0.0257668
0.0263769
0.0269762
0.0275626
0.0281341
0.0286893
0.0292271
0.0297471
0.0302492
0.0307339
0.031202
0.0316546
0.0320927
0.0325175
0.0329299
0.0333291
0.0243248
0.0241499
0.023987
0.0238344
0.0236903
0.0235531
0.0234211
0.0232926
0.0231662
0.0230406
0.0229147
0.0227876
0.0226587
0.0225274
0.0223935
0.0222568
0.0221174
0.0219751
0.0218302
0.0216826
0.0215323
0.0213794
0.0212236
0.0210647
0.0209024
0.0207364
0.0205661
0.0203912
0.0202114
0.0200265
0.0198369
0.0196433
0.019447
0.0192503
0.0190561
0.0188685
0.0186921
0.0185325
0.0183958
0.0182885
0.0182169
0.0181872
0.0182048
0.0182742
0.0183987
0.0185805
0.0188201
0.0191169
0.0194691
0.0198734
0.0203259
0.0208219
0.021356
0.0219225
0.0225158
0.0231299
0.0237594
0.0243989
0.0250434
0.0256883
0.0263293
0.0269629
0.0275857
0.028195
0.0287886
0.029365
0.0299229
0.0304621
0.0309824
0.0314845
0.0319693
0.0324379
0.0328916
0.0333314
0.0337573
0.0243248
0.0241499
0.023987
0.0238344
0.0236903
0.0235531
0.0234211
0.0232926
0.0231662
0.0230406
0.0229147
0.0227876
0.0226587
0.0225274
0.0223935
0.0222568
0.0221174
0.0219751
0.0218302
0.0216826
0.0215323
0.0213794
0.0212236
0.0210647
0.0209025
0.0207364
0.0205662
0.0203913
0.0202114
0.0200266
0.019837
0.0196433
0.0194471
0.0192504
0.0190562
0.0188686
0.0186922
0.0185326
0.0183959
0.0182886
0.018217
0.0181873
0.0182049
0.0182743
0.0183989
0.0185806
0.0188202
0.019117
0.0194692
0.0198735
0.020326
0.0208219
0.0213561
0.0219226
0.0225158
0.02313
0.0237595
0.024399
0.0250434
0.0256882
0.0263293
0.0269628
0.0275855
0.0281947
0.0287883
0.0293646
0.0299227
0.0304621
0.0309828
0.0314855
0.0319712
0.0324409
0.032896
0.0333375
0.0337652
0.0243248
0.0241497
0.0239862
0.0238322
0.0236855
0.023544
0.0234057
0.0232688
0.0231318
0.0229936
0.0228531
0.0227097
0.022563
0.0224127
0.0222585
0.0221003
0.021938
0.0217714
0.0216003
0.0214242
0.0212427
0.0210552
0.0208608
0.0206588
0.0204484
0.0202289
0.0199996
0.0197606
0.0195122
0.0192558
0.0189936
0.0187289
0.0184662
0.0182112
0.0179708
0.0177522
0.0175633
0.0174119
0.0173051
0.0172491
0.0172489
0.0173076
0.0174272
0.0176077
0.0178477
0.0181449
0.0184956
0.0188957
0.0193403
0.0198247
0.0203435
0.0208917
0.0214641
0.0220558
0.0226621
0.0232786
0.0239011
0.0245256
0.0251485
0.0257664
0.0263764
0.0269756
0.0275619
0.0281333
0.0286884
0.0292264
0.0297467
0.0302496
0.0307355
0.0312053
0.0316602
0.0321014
0.0325298
0.0329463
0.0333499
0.0243246
0.024149
0.0239836
0.0238256
0.0236719
0.0235196
0.0233663
0.0232102
0.0230499
0.0228846
0.0227136
0.0225368
0.022354
0.0221649
0.0219695
0.0217672
0.0215577
0.0213401
0.0211135
0.0208768
0.0206287
0.0203681
0.0200938
0.0198052
0.0195022
0.0191857
0.0188576
0.0185214
0.0181822
0.0178468
0.0175233
0.0172211
0.0169501
0.01672
0.0165401
0.0164179
0.0163592
0.0163675
0.0164442
0.0165886
0.0167978
0.0170681
0.0173942
0.0177705
0.018191
0.0186499
0.0191413
0.0196598
0.0202003
0.0207582
0.0213294
0.0219099
0.0224963
0.0230852
0.0236741
0.0242602
0.0248413
0.0254151
0.0259797
0.0265332
0.0270739
0.0276006
0.0281121
0.0286077
0.0290869
0.0295498
0.0299968
0.0304287
0.0308465
0.0312514
0.0316449
0.0320278
0.0324008
0.0327641
0.0331159
0.0243243
0.0241468
0.0239767
0.0238093
0.0236402
0.0234659
0.0232839
0.0230927
0.0228916
0.0226803
0.022459
0.0222278
0.0219865
0.0217349
0.0214724
0.0211979
0.0209102
0.020608
0.0202896
0.0199538
0.0195998
0.0192277
0.0188389
0.0184364
0.0180255
0.0176135
0.0172098
0.0168258
0.016474
0.0161667
0.0159159
0.0157315
0.0156208
0.0155882
0.015635
0.0157597
0.0159584
0.0162254
0.0165537
0.0169361
0.0173649
0.0178327
0.0183326
0.0188582
0.0194038
0.0199643
0.0205352
0.0211127
0.0216934
0.0222741
0.0228525
0.023426
0.0239927
0.0245509
0.0250991
0.0256359
0.0261602
0.0266709
0.027167
0.0276476
0.0281122
0.0285602
0.0289914
0.029406
0.0298044
0.0301875
0.0305562
0.030912
0.0312565
0.0315911
0.031917
0.032235
0.0325452
0.0328469
0.0331377
0.0243232
0.0241413
0.0239602
0.023773
0.023574
0.0233598
0.0231285
0.02288
0.0226147
0.0223334
0.0220366
0.0217245
0.0213967
0.0210524
0.0206903
0.0203087
0.0199064
0.0194823
0.0190365
0.0185709
0.0180893
0.0175983
0.0171077
0.0166298
0.0161793
0.0157719
0.0154231
0.0151467
0.0149536
0.0148505
0.0148401
0.0149212
0.0150891
0.0153366
0.0156551
0.0160352
0.0164674
0.0169426
0.0174524
0.0179894
0.0185468
0.0191189
0.0197008
0.0202883
0.0208778
0.0214663
0.0220511
0.02263
0.0232013
0.0237632
0.0243143
0.0248533
0.0253791
0.0258909
0.026388
0.0268695
0.0273348
0.0277834
0.0282148
0.0286288
0.0290251
0.0294038
0.0297654
0.0301104
0.0304398
0.0307551
0.0310577
0.0313495
0.0316321
0.0319071
0.0321755
0.0324376
0.0326929
0.0329399
0.0331751
0.0243204
0.0241281
0.0239242
0.0236991
0.0234473
0.0231669
0.0228585
0.0225241
0.0221657
0.0217847
0.0213819
0.0209571
0.0205092
0.020037
0.0195396
0.0190166
0.0184697
0.0179029
0.0173235
0.016743
0.0161762
0.0156413
0.0151579
0.0147454
0.0144205
0.0141957
0.014078
0.0140686
0.0141639
0.0143559
0.0146344
0.0149875
0.0154034
0.0158705
0.0163783
0.0169174
0.0174798
0.0180586
0.0186482
0.0192436
0.019841
0.020437
0.0210291
0.0216151
0.022193
0.0227614
0.0233191
0.0238649
0.0243979
0.0249173
0.0254223
0.0259123
0.0263869
0.0268454
0.0272875
0.0277128
0.0281209
0.0285115
0.0288844
0.0292394
0.0295769
0.029897
0.0302006
0.0304885
0.0307623
0.0310234
0.0312738
0.0315153
0.0317497
0.0319783
0.0322018
0.03242
0.0326317
0.0328343
0.0330235
0.0243137
0.0240994
0.0238518
0.0235606
0.0232232
0.0228424
0.0224226
0.0219685
0.0214835
0.0209692
0.020426
0.0198536
0.0192515
0.0186206
0.017964
0.0172885
0.0166055
0.0159315
0.0152876
0.0146979
0.0141868
0.0137762
0.0134821
0.0133136
0.013272
0.0133516
0.0135417
0.0138283
0.0141964
0.0146309
0.0151179
0.015645
0.0162018
0.0167793
0.0173703
0.0179689
0.0185703
0.0191707
0.0197672
0.0203572
0.020939
0.021511
0.0220721
0.0226214
0.023158
0.0236815
0.0241912
0.0246868
0.0251678
0.0256338
0.0260847
0.02652
0.0269396
0.0273432
0.0277305
0.0281013
0.0284553
0.0287924
0.0291124
0.0294154
0.0297018
0.0299721
0.0302271
0.0304682
0.0306968
0.0309147
0.0311239
0.0313263
0.0315235
0.0317165
0.0319056
0.0320898
0.0322673
0.0324348
0.0325868
0.024299
0.0240417
0.0237171
0.0233196
0.022855
0.0223331
0.0217635
0.0211532
0.0205061
0.0198241
0.0191081
0.01836
0.0175845
0.0167909
0.0159945
0.0152174
0.0144873
0.0138346
0.0132887
0.0128734
0.0126033
0.0124826
0.0125058
0.0126596
0.0129265
0.0132871
0.0137223
0.014215
0.0147501
0.0153152
0.0159002
0.0164969
0.0170991
0.0177016
0.0183008
0.0188937
0.019478
0.0200521
0.0206148
0.0211651
0.0217025
0.0222263
0.0227364
0.0232325
0.0237145
0.0241821
0.0246354
0.0250742
0.0254984
0.025908
0.0263029
0.026683
0.0270483
0.0273984
0.0277333
0.0280528
0.0283567
0.0286449
0.0289175
0.0291744
0.0294163
0.0296437
0.0298576
0.0300595
0.030251
0.0304339
0.0306102
0.0307817
0.0309497
0.031115
0.0312771
0.0314348
0.0315852
0.0317246
0.0318465
0.0242687
0.0239334
0.0234838
0.022929
0.0222889
0.0215829
0.0208248
0.0200231
0.0191822
0.018306
0.0174001
0.0164756
0.015551
0.0146534
0.0138173
0.0130808
0.0124791
0.0120388
0.0117733
0.0116814
0.0117503
0.0119589
0.0122827