/*--------------------------------*- C++ -*----------------------------------*\
  =========                 |
  \\      /  F ield         | OpenFOAM: The Open Source CFD Toolbox
   \\    /   O peration     | Website:  https://openfoam.org
    \\  /    A nd           | Version:  7
     \\/     M anipulation  |
\*---------------------------------------------------------------------------*/
FoamFile
{
    version     2.0;
    format      ascii;
    class       volScalarField;
    location    "750";
    object      p;
}
// * * * * * * * * * * * * * * * * * * * * * * * * * * * * * * * * * * * * * //

dimensions      [0 2 -2 0 0 0 0];

internalField   nonuniform List<scalar> 
4500
(
65.8318
62.82
61.6602
60.526
59.398
58.3131
57.262
56.2351
55.2289
54.2406
53.2679
52.309
51.3622
50.4266
49.5009
48.5844
47.6763
46.776
45.8829
44.9965
44.1164
43.2421
42.3734
41.5099
40.6512
39.7972
38.9476
38.1022
37.2607
36.4229
35.5888
34.758
33.9305
33.106
32.2846
31.4659
30.6499
29.8364
29.0254
28.2166
27.41
26.6055
25.803
25.0023
24.2032
23.4058
22.6099
21.8153
21.022
20.2298
19.4386
18.6482
17.8586
17.0697
16.2812
15.4931
14.7053
13.9177
13.13
12.3424
11.5545
10.7662
9.97747
9.18806
8.3978
7.60649
6.81393
6.01985
5.2241
4.42647
3.62683
2.82507
2.02115
1.2152
0.40875
65.445
62.7918
61.659
60.5265
59.3984
58.3134
57.2622
56.2353
55.229
54.2407
53.268
52.309
51.3623
50.4266
49.501
48.5845
47.6764
46.7761
45.8829
44.9965
44.1164
43.2422
42.3734
41.5099
40.6512
39.7972
38.9476
38.1022
37.2607
36.4229
35.5888
34.758
33.9305
33.106
32.2846
31.4659
30.6499
29.8364
29.0254
28.2166
27.41
26.6055
25.803
25.0023
24.2032
23.4058
22.6099
21.8153
21.022
20.2298
19.4386
18.6482
17.8586
17.0697
16.2812
15.4931
14.7053
13.9177
13.13
12.3423
11.5544
10.7662
9.97746
9.18805
8.39779
7.60648
6.81392
6.01984
5.22409
4.42646
3.62683
2.82507
2.02114
1.2152
0.408748
65.3575
62.7987
61.6611
60.5275
59.3991
58.3139
57.2626
56.2356
55.2293
54.241
53.2682
52.3092
51.3624
50.4267
49.5011
48.5846
47.6765
46.7761
45.883
44.9966
44.1165
43.2422
42.3735
41.5099
40.6513
39.7973
38.9476
38.1022
37.2607
36.4229
35.5888
34.758
33.9305
33.1061
32.2846
31.4659
30.6499
29.8364
29.0254
28.2166
27.41
26.6055
25.803
25.0022
24.2032
23.4058
22.6099
21.8153
21.022
20.2298
19.4386
18.6482
17.8586
17.0696
16.2812
15.4931
14.7053
13.9176
13.13
12.3423
11.5544
10.7662
9.97745
9.18803
8.39778
7.60646
6.8139
6.01983
5.22408
4.42645
3.62682
2.82506
2.02114
1.21519
0.408746
65.3571
62.8069
61.663
60.5286
59.3998
58.3145
57.2631
56.2359
55.2296
54.2412
53.2684
52.3094
51.3626
50.4269
49.5012
48.5847
47.6765
46.7762
45.8831
44.9967
44.1165
43.2423
42.3735
41.51
40.6513
39.7973
38.9477
38.1022
37.2607
36.423
35.5888
34.758
33.9305
33.1061
32.2846
31.4659
30.6499
29.8364
29.0254
28.2166
27.41
26.6055
25.803
25.0022
24.2032
23.4058
22.6099
21.8153
21.022
20.2298
19.4385
18.6482
17.8586
17.0696
16.2812
15.4931
14.7053
13.9176
13.13
12.3423
11.5544
10.7662
9.97743
9.18802
8.39776
7.60645
6.81389
6.01982
5.22407
4.42644
3.62681
2.82505
2.02113
1.21518
0.408742
65.3533
62.81
61.6642
60.5297
59.4007
58.3151
57.2636
56.2364
55.2299
54.2415
53.2687
52.3096
51.3628
50.427
49.5013
48.5848
47.6767
46.7763
45.8832
44.9967
44.1166
43.2423
42.3736
41.51
40.6513
39.7973
38.9477
38.1022
37.2607
36.423
35.5888
34.758
33.9305
33.1061
32.2846
31.4659
30.6499
29.8364
29.0254
28.2166
27.41
26.6055
25.803
25.0022
24.2032
23.4058
22.6099
21.8153
21.022
20.2298
19.4385
18.6482
17.8586
17.0696
16.2811
15.4931
14.7053
13.9176
13.13
12.3423
11.5544
10.7662
9.97741
9.188
8.39775
7.60643
6.81388
6.0198
5.22406
4.42643
3.6268
2.82504
2.02112
1.21518
0.408737
65.3431
62.8124
61.6652
60.5308
59.4016
58.3159
57.2642
56.2369
55.2303
54.2418
53.269
52.3098
51.363
50.4272
49.5015
48.5849
47.6768
46.7764
45.8833
44.9968
44.1167
43.2424
42.3736
41.5101
40.6514
39.7974
38.9478
38.1023
37.2608
36.423
35.5888
34.7581
33.9305
33.1061
32.2846
31.4659
30.6499
29.8364
29.0254
28.2166
27.41
26.6055
25.803
25.0022
24.2032
23.4058
22.6099
21.8153
21.022
20.2297
19.4385
18.6482
17.8586
17.0696
16.2811
15.4931
14.7052
13.9176
13.13
12.3423
11.5544
10.7661
9.9774
9.18798
8.39773
7.60642
6.81386
6.01979
5.22404
4.42642
3.62679
2.82503
2.02111
1.21517
0.408731
65.3334
62.8153
61.6661
60.5318
59.4025
58.3166
57.2648
56.2374
55.2308
54.2422
53.2693
52.3101
51.3633
50.4275
49.5017
48.5851
47.677
46.7766
45.8834
44.997
44.1168
43.2425
42.3737
41.5101
40.6515
39.7974
38.9478
38.1023
37.2608
36.4231
35.5889
34.7581
33.9306
33.1061
32.2846
31.4659
30.6499
29.8364
29.0254
28.2166
27.41
26.6055
25.803
25.0022
24.2032
23.4058
22.6099
21.8153
21.022
20.2297
19.4385
18.6482
17.8586
17.0696
16.2811
15.493
14.7052
13.9176
13.13
12.3423
11.5544
10.7661
9.97738
9.18796
8.39771
7.6064
6.81384
6.01977
5.22403
4.4264
3.62677
2.82502
2.0211
1.21515
0.408722
65.3247
62.8185
61.6668
60.5326
59.4034
58.3174
57.2655
56.238
55.2313
54.2427
53.2697
52.3105
51.3636
50.4277
49.5019
48.5853
47.6771
46.7767
45.8836
44.9971
44.1169
43.2426
42.3738
41.5102
40.6516
39.7975
38.9479
38.1024
37.2609
36.4231
35.5889
34.7581
33.9306
33.1062
32.2846
31.466
30.6499
29.8364
29.0254
28.2166
27.41
26.6055
25.803
25.0022
24.2032
23.4058
22.6099
21.8153
21.0219
20.2297
19.4385
18.6481
17.8585
17.0696
16.2811
15.493
14.7052
13.9176
13.1299
12.3422
11.5543
10.7661
9.97736
9.18795
8.39769
7.60638
6.81383
6.01976
5.22401
4.42639
3.62676
2.82501
2.02109
1.21514
0.40871
65.3158
62.8217
61.6674
60.5332
59.4041
58.3181
57.2662
56.2386
55.2319
54.2432
53.2701
52.3109
51.3639
50.428
49.5022
48.5856
47.6774
46.7769
45.8837
44.9973
44.1171
43.2427
42.3739
41.5103
40.6517
39.7976
38.948
38.1025
37.2609
36.4232
35.589
34.7582
33.9306
33.1062
32.2847
31.466
30.65
29.8365
29.0254
28.2166
27.4101
26.6055
25.803
25.0022
24.2032
23.4058
22.6099
21.8153
21.0219
20.2297
19.4385
18.6481
17.8585
17.0696
16.2811
15.493
14.7052
13.9175
13.1299
12.3422
11.5543
10.7661
9.97734
9.18793
8.39768
7.60636
6.81381
6.01974
5.224
4.42638
3.62675
2.82499
2.02107
1.21512
0.408694
65.3063
62.825
61.6679
60.5338
59.4047
58.3188
57.2669
56.2392
55.2324
54.2437
53.2706
52.3113
51.3643
50.4284
49.5025
48.5858
47.6776
46.7772
45.8839
44.9974
44.1172
43.2429
42.3741
41.5105
40.6518
39.7977
38.9481
38.1026
37.261
36.4232
35.589
34.7583
33.9307
33.1062
32.2847
31.466
30.65
29.8365
29.0254
28.2167
27.4101
26.6056
25.803
25.0023
24.2032
23.4058
22.6099
21.8153
21.0219
20.2297
19.4385
18.6481
17.8585
17.0695
16.2811
15.493
14.7052
13.9175
13.1299
12.3422
11.5543
10.7661
9.97732
9.18791
8.39766
7.60635
6.81379
6.01972
5.22398
4.42636
3.62673
2.82498
2.02105
1.21511
0.408675
65.296
62.8286
61.6683
60.5342
59.4052
58.3194
57.2675
56.2399
55.233
54.2442
53.2711
52.3117
51.3647
50.4287
49.5028
48.5861
47.6779
46.7774
45.8842
44.9977
44.1174
43.2431
42.3742
41.5106
40.6519
39.7978
38.9482
38.1027
37.2611
36.4233
35.5891
34.7583
33.9308
33.1063
32.2848
31.4661
30.65
29.8365
29.0255
28.2167
27.4101
26.6056
25.803
25.0023
24.2032
23.4058
22.6099
21.8153
21.0219
20.2297
19.4385
18.6481
17.8585
17.0695
16.2811
15.493
14.7052
13.9175
13.1299
12.3422
11.5543
10.766
9.9773
9.18789
8.39764
7.60633
6.81378
6.01971
5.22397
4.42634
3.62671
2.82496
2.02103
1.21508
0.40865
65.285
62.8324
61.6685
60.5346
59.4056
58.3198
57.268
56.2404
55.2336
54.2448
53.2716
52.3122
51.3651
50.4291
49.5032
48.5865
47.6782
46.7777
45.8844
44.9979
44.1176
43.2433
42.3744
41.5108
40.6521
39.798
38.9483
38.1028
37.2612
36.4234
35.5892
34.7584
33.9309
33.1064
32.2849
31.4661
30.6501
29.8366
29.0255
28.2167
27.4102
26.6056
25.803
25.0023
24.2033
23.4058
22.6099
21.8153
21.022
20.2297
19.4385
18.6481
17.8585
17.0695
16.2811
15.493
14.7052
13.9175
13.1299
12.3422
11.5543
10.766
9.97729
9.18787
8.39762
7.60631
6.81376
6.01969
5.22395
4.42633
3.6267
2.82494
2.02101
1.21506
0.408619
65.2734
62.8365
61.6687
60.5348
59.4058
58.3201
57.2684
56.2409
55.2341
54.2453
53.2721
52.3127
51.3656
50.4296
49.5036
48.5869
47.6785
46.778
45.8847
44.9982
44.1179
43.2435
42.3746
41.511
40.6523
39.7982
38.9485
38.1029
37.2614
36.4236
35.5893
34.7585
33.931
33.1065
32.2849
31.4662
30.6502
29.8367
29.0256
28.2168
27.4102
26.6057
25.8031
25.0023
24.2033
23.4059
22.6099
21.8153
21.022
20.2297
19.4385
18.6481
17.8585
17.0695
16.2811
15.493
14.7052
13.9175
13.1299
12.3422
11.5543
10.766
9.97727
9.18786
8.39761
7.6063
6.81375
6.01968
5.22394
4.42631
3.62668
2.82492
2.02099
1.21504
0.408579
65.261
62.8411
61.6689
60.535
59.406
58.3203
57.2687
56.2412
55.2345
54.2457
53.2726
52.3132
51.366
50.43
49.504
48.5872
47.6789
46.7784
45.885
44.9985
44.1182
43.2438
42.3749
41.5112
40.6525
39.7984
38.9487
38.1031
37.2615
36.4237
35.5895
34.7587
33.9311
33.1066
32.2851
31.4663
30.6503
29.8367
29.0257
28.2169
27.4103
26.6057
25.8031
25.0024
24.2033
23.4059
22.6099
21.8154
21.022
20.2298
19.4385
18.6482
17.8585
17.0696
16.2811
15.493
14.7052
13.9175
13.1299
12.3422
11.5543
10.766
9.97726
9.18784
8.39759
7.60628
6.81373
6.01967
5.22392
4.4263
3.62667
2.82491
2.02097
1.21501
0.40853
65.2478
62.8461
61.669
60.5352
59.4061
58.3205
57.2689
56.2415
55.2348
54.2461
53.273
52.3136
51.3665
50.4305
49.5045
48.5877
47.6793
46.7787
45.8854
44.9988
44.1185
43.2441
42.3752
41.5115
40.6527
39.7986
38.9489
38.1033
37.2617
36.4239
35.5897
34.7588
33.9312
33.1067
32.2852
31.4664
30.6504
29.8368
29.0258
28.217
27.4104
26.6058
25.8032
25.0024
24.2034
23.406
22.61
21.8154
21.022
20.2298
19.4386
18.6482
17.8586
17.0696
16.2811
15.493
14.7052
13.9175
13.1299
12.3422
11.5542
10.766
9.97725
9.18784
8.39759
7.60628
6.81372
6.01966
5.22391
4.42629
3.62665
2.82489
2.02095
1.21499
0.408468
65.2339
62.8515
61.6691
60.5354
59.4062
58.3205
57.2689
56.2416
55.235
54.2464
53.2733
52.314
51.3669
50.4309
49.5049
48.5881
47.6797
46.7791
45.8858
44.9992
44.1188
43.2444
42.3755
41.5118
40.653
39.7988
38.9491
38.1035
37.2619
36.4241
35.5898
34.759
33.9314
33.1069
32.2853
31.4666
30.6505
29.837
29.0259
28.2171
27.4104
26.6059
25.8033
25.0025
24.2035
23.406
22.6101
21.8155
21.0221
20.2298
19.4386
18.6482
17.8586
17.0696
16.2811
15.493
14.7052
13.9175
13.1299
12.3422
11.5542
10.766
9.97725
9.18783
8.39758
7.60627
6.81372
6.01965
5.22391
4.42628
3.62664
2.82487
2.02093
1.21496
0.408391
65.2191
62.8573
61.6693
60.5356
59.4063
58.3205
57.269
56.2417
55.2351
54.2465
53.2735
52.3143
51.3672
50.4312
49.5053
48.5885
47.6801
46.7795
45.8862
44.9995
44.1192
43.2447
42.3758
41.5121
40.6533
39.7991
38.9494
38.1038
37.2622
36.4243
35.5901
34.7592
33.9316
33.1071
32.2855
31.4667
30.6507
29.8371
29.026
28.2172
27.4106
26.606
25.8034
25.0026
24.2036
23.4061
22.6101
21.8155
21.0222
20.2299
19.4387
18.6483
17.8586
17.0696
16.2811
15.493
14.7052
13.9175
13.1299
12.3422
11.5543
10.766
9.97726
9.18784
8.39758
7.60627
6.81372
6.01965
5.2239
4.42628
3.62663
2.82486
2.02091
1.21494
0.408297
65.2036
62.8637
61.6694
60.5359
59.4064
58.3206
57.269
56.2417
55.2351
54.2466
53.2737
52.3144
51.3675
50.4315
49.5056
48.5888
47.6805
46.7799
45.8865
44.9999
44.1195
43.2451
42.3761
41.5124
40.6536
39.7994
38.9497
38.1041
37.2625
36.4246
35.5903
34.7594
33.9318
33.1073
32.2857
31.4669
30.6508
29.8373
29.0262
28.2173
27.4107
26.6061
25.8035
25.0027
24.2037
23.4062
22.6102
21.8156
21.0222
20.23
19.4387
18.6483
17.8587
17.0697
16.2812
15.4931
14.7052
13.9176
13.1299
12.3422
11.5543
10.766
9.97727
9.18785
8.39759
7.60628
6.81373
6.01965
5.22391
4.42628
3.62663
2.82485
2.0209
1.21492
0.40818
65.1873
62.8704
61.6696
60.5363
59.4066
58.3206
57.269
56.2416
55.2351
54.2466
53.2737
52.3145
51.3676
50.4317
49.5058
48.5891
47.6808
46.7802
45.8869
45.0003
44.1199
43.2454
42.3765
41.5128
40.6539
39.7998
38.95
38.1044
37.2627
36.4249
35.5906
34.7597
33.9321
33.1075
32.2859
31.4671
30.651
29.8375
29.0264
28.2175
27.4109
26.6063
25.8037
25.0029
24.2038
23.4063
22.6104
21.8157
21.0224
20.2301
19.4388
18.6484
17.8588
17.0698
16.2813
15.4931
14.7053
13.9176
13.13
12.3422
11.5543
10.766
9.9773
9.18787
8.39761
7.6063
6.81374
6.01967
5.22392
4.42628
3.62664
2.82485
2.02089
1.2149
0.408038
65.1702
62.8776
61.6697
60.5367
59.4068
58.3207
57.269
56.2416
55.2351
54.2465
53.2736
52.3145
51.3676
50.4318
49.5059
48.5893
47.681
46.7805
45.8872
45.0006
44.1202
43.2458
42.3768
41.5131
40.6543
39.8001
38.9503
38.1047
37.2631
36.4252
35.5909
34.76
33.9323
33.1078
32.2862
31.4674
30.6513
29.8377
29.0266
28.2177
27.4111
26.6065
25.8039
25.0031
24.204
23.4065
22.6105
21.8159
21.0225
20.2302
19.4389
18.6485
17.8589
17.0699
16.2814
15.4932
14.7054
13.9177
13.13
12.3423
11.5544
10.7661
9.97733
9.1879
8.39764
7.60632
6.81376
6.01969
5.22394
4.4263
3.62665
2.82486
2.02089
1.2149
0.407865
65.1525
62.8852
61.6698
60.5372
59.4071
58.3209
57.2691
56.2417
55.235
54.2465
53.2736
52.3144
51.3675
50.4317
49.5059
48.5893
47.6811
46.7806
45.8874
45.0008
44.1205
43.2461
42.3772
41.5134
40.6546
39.8004
38.9507
38.105
37.2634
36.4255
35.5912
34.7603
33.9326
33.1081
32.2865
31.4677
30.6515
29.838
29.0268
28.218
27.4113
26.6067
25.8041
25.0033
24.2042
23.4067
22.6107
21.816
21.0226
20.2304
19.4391
18.6487
17.859
17.07
16.2815
15.4933
14.7055
13.9178
13.1301
12.3424
11.5544
10.7662
9.97739
9.18795
8.39769
7.60636
6.8138
6.01972
5.22397
4.42632
3.62667
2.82488
2.0209
1.2149
0.407656
65.1343
62.8931
61.6699
60.5378
59.4075
58.3211
57.2692
56.2417
55.2351
54.2465
53.2735
52.3143
51.3675
50.4317
49.5059
48.5893
47.6811
46.7807
45.8875
45.0009
44.1207
43.2463
42.3774
41.5137
40.6549
39.8008
38.951
38.1054
37.2637
36.4258
35.5915
34.7606
33.9329
33.1084
32.2868
31.468
30.6518
29.8382
29.0271
28.2182
27.4116
26.607
25.8043
25.0035
24.2044
23.4069
22.6109
21.8162
21.0228
20.2305
19.4392
18.6488
17.8592
17.0701
16.2816
15.4935
14.7056
13.9179
13.1302
12.3425
11.5545
10.7662
9.97746
9.18802
8.39775
7.60642
6.81385
6.01976
5.22401
4.42636
3.6267
2.8249
2.02092
1.21491
0.407407
65.1158
62.9012
61.6699
60.5384
59.4079
58.3213
57.2694
56.2418
55.2351
54.2465
53.2735
52.3143
51.3674
50.4316
49.5058
48.5892
47.681
46.7806
45.8874
45.001
44.1207
43.2464
42.3775
41.5139
40.6551
39.801
38.9512
38.1057
37.264
36.4261
35.5918
34.7609
33.9333
33.1087
32.2871
31.4683
30.6521
29.8385
29.0274
28.2185
27.4118
26.6072
25.8046
25.0037
24.2046
23.4071
22.6111
21.8165
21.023
20.2307
19.4394
18.649
17.8593
17.0703
16.2818
15.4936
14.7057
13.918
13.1303
12.3426
11.5546
10.7663
9.97755
9.1881
8.39782
7.60649
6.81391
6.01983
5.22406
4.42641
3.62675
2.82495
2.02096
1.21494
0.407113
65.0973
62.9094
61.6698
60.539
59.4083
58.3216
57.2696
56.242
55.2352
54.2465
53.2735
52.3143
51.3674
50.4315
49.5057
48.5891
47.6809
46.7805
45.8873
45.0009
44.1207
43.2464
42.3776
41.5139
40.6552
39.8011
38.9514
38.1059
37.2643
36.4264
35.5921
34.7612
33.9336
33.109
32.2874
31.4686
30.6524
29.8388
29.0277
28.2188
27.4121
26.6075
25.8049
25.004
24.2049
23.4074
22.6114
21.8167
21.0233
20.231
19.4397
18.6492
17.8595
17.0705
16.2819
15.4938
14.7059
13.9182
13.1305
12.3427
11.5547
10.7664
9.97766
9.1882
8.39792
7.60658
6.814
6.0199
5.22414
4.42648
3.62681
2.825
2.02101
1.21498
0.406771
65.079
62.9176
61.6696
60.5397
59.4088
58.3219
57.2698
56.2421
55.2353
54.2466
53.2736
52.3143
51.3674
50.4315
49.5057
48.589
47.6808
46.7804
45.8873
45.0008
44.1206
43.2463
42.3775
41.5139
40.6552
39.8012
38.9515
38.106
37.2644
36.4266
35.5923
34.7614
33.9338
33.1093
32.2877
31.4689
30.6527
29.8391
29.028
28.2191
27.4124
26.6078
25.8052
25.0043
24.2052
23.4077
22.6116
21.817
21.0235
20.2312
19.4399
18.6495
17.8598
17.0707
16.2822
15.494
14.7061
13.9183
13.1306
12.3429
11.5549
10.7666
9.97779
9.18833
8.39803
7.60668
6.8141
6.02
5.22423
4.42657
3.62689
2.82508
2.02108
1.21504
0.406383
65.0616
62.9256
61.6694
60.5403
59.4092
58.3221
57.27
56.2423
55.2355
54.2467
53.2737
52.3144
51.3674
50.4315
49.5057
48.589
47.6808
46.7804
45.8872
45.0007
44.1205
43.2462
42.3774
41.5138
40.6551
39.8011
38.9514
38.1059
37.2644
36.4266
35.5924
34.7615
33.9339
33.1094
32.2879
31.4691
30.653
29.8394
29.0283
28.2194
27.4127
26.6081
25.8054
25.0046
24.2055
23.408
22.6119
21.8173
21.0238
20.2315
19.4402
18.6497
17.86
17.071
16.2824
15.4942
14.7063
13.9186
13.1308
12.3431
11.5551
10.7668
9.97795
9.18848
8.39817
7.60681
6.81422
6.02011
5.22433
4.42667
3.62699
2.82517
2.02116
1.21512
0.405957
65.0455
62.933
61.6691
60.5409
59.4096
58.3224
57.2702
56.2425
55.2356
54.2469
53.2738
52.3144
51.3675
50.4315
49.5057
48.589
47.6808
46.7803
45.8871
45.0006
44.1204
43.2461
42.3773
41.5137
40.655
39.801
38.9513
38.1058
37.2643
36.4265
35.5923
34.7615
33.934
33.1095
32.2879
31.4692
30.6531
29.8396
29.0284
28.2196
27.413
26.6084
25.8057
25.0049
24.2058
23.4083
22.6122
21.8175
21.0241
20.2318
19.4405
18.65
17.8603
17.0712
16.2826
15.4945
14.7065
13.9188
13.1311
12.3433
11.5553
10.7669
9.97813
9.18864
8.39833
7.60696
6.81436
6.02024
5.22446
4.42679
3.62711
2.82528
2.02127
1.21522
0.405512
65.0316
62.9394
61.6687
60.5414
59.41
58.3226
57.2704
56.2427
55.2358
54.247
53.2738
52.3145
51.3675
50.4316
49.5057
48.589
47.6808
46.7803
45.8871
45.0006
44.1204
43.2461
42.3772
41.5136
40.6549
39.8009
38.9512
38.1057
37.2642
36.4264
35.5922
34.7614
33.9339
33.1094
32.2879
31.4692
30.6531
29.8396
29.0285
28.2197
27.4131
26.6085
25.8059
25.0051
24.206
23.4085
22.6125
21.8178
21.0244
20.232
19.4407
18.6503
17.8606
17.0715
16.2829
15.4947
14.7068
13.919
13.1313
12.3435
11.5555
10.7671
9.97832
9.18883
8.3985
7.60713
6.81452
6.02039
5.2246
4.42692
3.62724
2.82541
2.02138
1.21532
0.405084
65.021
62.9445
61.6684
60.5418
59.4103
58.3228
57.2706
56.2428
55.2359
54.2471
53.2739
52.3146
51.3676
50.4316
49.5058
48.5891
47.6808
46.7804
45.8871
45.0006
44.1204
43.246
42.3772
41.5136
40.6549
39.8008
38.9512
38.1057
37.2641
36.4263
35.5921
34.7614
33.9338
33.1093
32.2878
31.4691
30.6531
29.8396
29.0285
28.2197
27.4131
26.6085
25.8059
25.0051
24.2061
23.4086
22.6126
21.8179
21.0245
20.2322
19.4409
18.6505
17.8608
17.0717
16.2831
15.4949
14.707
13.9192
13.1315
12.3437
11.5557
10.7673
9.97851
9.189
8.39868
7.60729
6.81467
6.02054
5.22474
4.42706
3.62736
2.82553
2.0215
1.21543
0.404727
65.0149
62.9474
61.6682
60.542
59.4105
58.3229
57.2707
56.2429
55.2359
54.2471
53.274
52.3146
51.3676
50.4317
49.5058
48.5891
47.6808
46.7804
45.8871
45.0006
44.1204
43.246
42.3772
41.5136
40.6549
39.8008
38.9511
38.1056
37.2641
36.4263
35.5921
34.7613
33.9337
33.1093
32.2878
31.469
30.653
29.8395
29.0284
28.2197
27.4131
26.6085
25.8059
25.0051
24.2061
23.4086
22.6126
21.818
21.0246
20.2323
19.441
18.6506
17.8609
17.0718
16.2832
15.4951
14.7071
13.9194
13.1316
12.3438
11.5558
10.7675
9.97863
9.18913
8.39879
7.6074
6.81478
6.02064
5.22484
4.42715
3.62745
2.82561
2.02158
1.2155
0.404511
65.0149
62.9474
61.6682
60.542
59.4105
58.3229
57.2707
56.2429
55.2359
54.2471
53.274
52.3146
51.3676
50.4317
49.5058
48.5891
47.6808
46.7804
45.8871
45.0006
44.1204
43.246
42.3772
41.5136
40.6549
39.8008
38.9511
38.1056
37.2641
36.4263
35.5921
34.7613
33.9337
33.1093
32.2878
31.469
30.653
29.8395
29.0284
28.2197
27.4131
26.6085
25.8059
25.0051
24.2061
23.4086
22.6126
21.818
21.0246
20.2323
19.441
18.6506
17.8609
17.0718
16.2832
15.4951
14.7071
13.9194
13.1316
12.3438
11.5558
10.7675
9.97863
9.18913
8.39879
7.6074
6.81478
6.02064
5.22484
4.42715
3.62745
2.82561
2.02158
1.2155
0.404509
65.021
62.9445
61.6684
60.5418
59.4103
58.3228
57.2706
56.2428
55.2359
54.2471
53.2739
52.3146
51.3676
50.4316
49.5058
48.5891
47.6808
46.7804
45.8871
45.0006
44.1204
43.246
42.3772
41.5136
40.6549
39.8008
38.9512
38.1057
37.2641
36.4263
35.5921
34.7614
33.9338
33.1093
32.2878
31.4691
30.6531
29.8396
29.0285
28.2197
27.4131
26.6085
25.8059
25.0051
24.2061
23.4086
22.6126
21.8179
21.0245
20.2322
19.4409
18.6505
17.8608
17.0717
16.2831
15.4949
14.707
13.9192
13.1315
12.3437
11.5557
10.7673
9.97851
9.18901
8.39868
7.60729
6.81468
6.02054
5.22475
4.42706
3.62737
2.82553
2.0215
1.21543
0.40472
65.0316
62.9394
61.6687
60.5414
59.41
58.3226
57.2704
56.2427
55.2358
54.247
53.2738
52.3145
51.3675
50.4316
49.5057
48.589
47.6808
46.7803
45.8871
45.0006
44.1204
43.2461
42.3772
41.5136
40.6549
39.8009
38.9512
38.1057
37.2642
36.4264
35.5922
34.7614
33.9339
33.1094
32.2879
31.4692
30.6531
29.8396
29.0285
28.2197
27.4131
26.6085
25.8059
25.0051
24.206
23.4085
22.6125
21.8178
21.0244
20.232
19.4407
18.6503
17.8606
17.0715
16.2829
15.4947
14.7068
13.919
13.1313
12.3435
11.5555
10.7671
9.97832
9.18883
8.39851
7.60713
6.81452
6.02039
5.22461
4.42692
3.62724
2.82541
2.02138
1.21532
0.405073
65.0455
62.933
61.6691
60.5409
59.4096
58.3224
57.2702
56.2425
55.2356
54.2469
53.2738
52.3144
51.3675
50.4315
49.5057
48.589
47.6808
46.7803
45.8871
45.0006
44.1204
43.2461
42.3773
41.5137
40.655
39.801
38.9513
38.1058
37.2643
36.4265
35.5923
34.7615
33.934
33.1095
32.2879
31.4692
30.6531
29.8396
29.0284
28.2196
27.413
26.6084
25.8057
25.0049
24.2058
23.4083
22.6122
21.8175
21.0241
20.2318
19.4405
18.65
17.8603
17.0712
16.2826
15.4945
14.7065
13.9188
13.1311
12.3433
11.5553
10.7669
9.97813
9.18865
8.39834
7.60696
6.81437
6.02025
5.22447
4.42679
3.62711
2.82528
2.02127
1.21521
0.405498
65.0615
62.9256
61.6694
60.5403
59.4092
58.3221
57.27
56.2423
55.2355
54.2467
53.2737
52.3144
51.3674
50.4315
49.5057
48.589
47.6808
46.7804
45.8872
45.0007
44.1205
43.2462
42.3774
41.5138
40.6551
39.8011
38.9514
38.1059
37.2644
36.4266
35.5924
34.7615
33.9339
33.1094
32.2879
31.4691
30.653
29.8394
29.0283
28.2194
27.4127
26.6081
25.8054
25.0046
24.2055
23.408
22.6119
21.8173
21.0238
20.2315
19.4402
18.6497
17.86
17.071
16.2824
15.4942
14.7063
13.9186
13.1308
12.3431
11.5551
10.7668
9.97796
9.18848
8.39818
7.60681
6.81423
6.02011
5.22434
4.42667
3.62699
2.82517
2.02116
1.21512
0.40594
65.079
62.9176
61.6696
60.5397
59.4088
58.3219
57.2698
56.2421
55.2353
54.2466
53.2736
52.3143
51.3674
50.4315
49.5057
48.589
47.6808
46.7804
45.8873
45.0008
44.1206
43.2463
42.3775
41.5139
40.6552
39.8012
38.9515
38.106
37.2644
36.4266
35.5923
34.7614
33.9338
33.1093
32.2877
31.4689
30.6527
29.8391
29.028
28.2191
27.4124
26.6078
25.8052
25.0043
24.2052
23.4077
22.6116
21.817
21.0235
20.2312
19.4399
18.6495
17.8598
17.0707
16.2822
15.494
14.7061
13.9183
13.1306
12.3429
11.5549
10.7666
9.9778
9.18833
8.39804
7.60669
6.81411
6.02
5.22423
4.42656
3.6269
2.82507
2.02107
1.21504
0.406363
65.0972
62.9095
61.6698
60.539
59.4083
58.3216
57.2696
56.242
55.2352
54.2465
53.2735
52.3143
51.3674
50.4315
49.5057
48.5891
47.6809
46.7805
45.8873
45.0009
44.1207
43.2464
42.3776
41.5139
40.6552
39.8011
38.9514
38.1059
37.2643
36.4264
35.5921
34.7612
33.9336
33.109
32.2874
31.4686
30.6524
29.8388
29.0277
28.2188
27.4121
26.6075
25.8049
25.004
24.2049
23.4074
22.6114
21.8167
21.0233
20.231
19.4397
18.6492
17.8595
17.0705
16.2819
15.4938
14.7059
13.9182
13.1305
12.3427
11.5548
10.7664
9.97766
9.18821
8.39792
7.60658
6.81401
6.0199
5.22414
4.42648
3.62682
2.825
2.021
1.21497
0.406748
65.1158
62.9012
61.6699
60.5384
59.4079
58.3213
57.2694
56.2418
55.2351
54.2465
53.2735
52.3143
51.3674
50.4316
49.5058
48.5892
47.681
46.7806
45.8874
45.001
44.1207
43.2464
42.3775
41.5139
40.6551
39.801
38.9512
38.1057
37.264
36.4261
35.5918
34.7609
33.9333
33.1087
32.2871
31.4683
30.6521
29.8385
29.0274
28.2185
27.4118
26.6072
25.8046
25.0037
24.2046
23.4071
22.6111
21.8165
21.023
20.2307
19.4394
18.649
17.8593
17.0703
16.2818
15.4936
14.7057
13.918
13.1303
12.3426
11.5546
10.7663
9.97755
9.1881
8.39783
7.60649
6.81392
6.01982
5.22407
4.42641
3.62675
2.82494
2.02095
1.21493
0.407087
65.1343
62.8931
61.6699
60.5378
59.4075
58.3211
57.2692
56.2417
55.2351
54.2465
53.2735
52.3143
51.3675
50.4317
49.5059
48.5893
47.6811
46.7807
45.8875
45.0009
44.1207
43.2463
42.3774
41.5137
40.6549
39.8008
38.951
38.1054
37.2637
36.4258
35.5915
34.7606
33.9329
33.1084
32.2868
31.468
30.6518
29.8382
29.0271
28.2182
27.4116
26.607
25.8043
25.0035
24.2044
23.4069
22.6109
21.8162
21.0228
20.2305
19.4392
18.6488
17.8592
17.0701
16.2816
15.4935
14.7056
13.9179
13.1302
12.3425
11.5545
10.7662
9.97746
9.18802
8.39775
7.60642
6.81386
6.01976
5.22401
4.42636
3.6267
2.8249
2.02092
1.2149
0.40738
65.1525
62.8852
61.6698
60.5372
59.4071
58.3209
57.2691
56.2417
55.235
54.2465
53.2736
52.3144
51.3675
50.4317
49.5059
48.5893
47.6811
46.7806
45.8874
45.0008
44.1205
43.2461
42.3772
41.5134
40.6546
39.8004
38.9507
38.105
37.2634
36.4255
35.5912
34.7603
33.9326
33.1081
32.2865
31.4677
30.6515
29.838
29.0268
28.218
27.4113
26.6067
25.8041
25.0033
24.2042
23.4067
22.6107
21.816
21.0226
20.2304
19.4391
18.6487
17.859
17.07
16.2815
15.4933
14.7055
13.9178
13.1301
12.3424
11.5544
10.7662
9.97739
9.18795
8.39769
7.60636
6.81381
6.01972
5.22397
4.42632
3.62667
2.82487
2.0209
1.21489
0.407628
65.1702
62.8776
61.6697
60.5367
59.4068
58.3207
57.269
56.2416
55.2351
54.2465
53.2736
52.3145
51.3676
50.4318
49.5059
48.5893
47.681
46.7805
45.8872
45.0006
44.1202
43.2458
42.3768
41.5131
40.6543
39.8001
38.9503
38.1047
37.2631
36.4252
35.5909
34.76
33.9323
33.1078
32.2862
31.4674
30.6513
29.8377
29.0266
28.2177
27.4111
26.6065
25.8039
25.0031
24.204
23.4065
22.6105
21.8159
21.0225
20.2302
19.4389
18.6485
17.8589
17.0699
16.2814
15.4932
14.7054
13.9177
13.13
12.3423
11.5544
10.7661
9.97734
9.18791
8.39765
7.60632
6.81377
6.01968
5.22394
4.42629
3.62665
2.82485
2.02089
1.21488
0.407835
65.1872
62.8705
61.6696
60.5363
59.4066
58.3206
57.269
56.2416
55.2351
54.2466
53.2737
52.3145
51.3676
50.4317
49.5058
48.5891
47.6808
46.7802
45.8869
45.0003
44.1199
43.2454
42.3765
41.5128
40.6539
39.7998
38.95
38.1044
37.2627
36.4249
35.5906
34.7597
33.9321
33.1075
32.2859
31.4671
30.651
29.8375
29.0264
28.2175
27.4109
26.6063
25.8037
25.0029
24.2038
23.4063
22.6104
21.8157
21.0224
20.2301
19.4388
18.6484
17.8588
17.0698
16.2813
15.4931
14.7053
13.9176
13.13
12.3422
11.5543
10.7661
9.9773
9.18787
8.39762
7.6063
6.81375
6.01966
5.22392
4.42627
3.62664
2.82484
2.02089
1.21489
0.408007
65.2035
62.8637
61.6695
60.5359
59.4064
58.3206
57.269
56.2417
55.2351
54.2466
53.2737
52.3144
51.3675
50.4315
49.5056
48.5888
47.6805
46.7799
45.8865
44.9999
44.1195
43.2451
42.3761
41.5124
40.6536
39.7994
38.9497
38.1041
37.2625
36.4246
35.5903
34.7594
33.9318
33.1073
32.2857
31.4669
30.6508
29.8373
29.0262
28.2173
27.4107
26.6061
25.8035
25.0027
24.2037
23.4062
22.6102
21.8156
21.0222
20.23
19.4387
18.6483
17.8587
17.0697
16.2812
15.4931
14.7052
13.9176
13.1299
12.3422
11.5543
10.766
9.97728
9.18785
8.3976
7.60628
6.81373
6.01965
5.22391
4.42627
3.62663
2.82484
2.02089
1.2149
0.408148
65.2191
62.8574
61.6693
60.5356
59.4063
58.3205
57.269
56.2417
55.2351
54.2465
53.2735
52.3143
51.3672
50.4312
49.5053
48.5885
47.6801
46.7795
45.8862
44.9995
44.1192
43.2447
42.3758
41.5121
40.6533
39.7991
38.9494
38.1038
37.2622
36.4243
35.5901
34.7592
33.9316
33.1071
32.2855
31.4667
30.6507
29.8371
29.026
28.2172
27.4106
26.606
25.8034
25.0026
24.2036
23.4061
22.6101
21.8155
21.0222
20.2299
19.4387
18.6483
17.8586
17.0696
16.2811
15.493
14.7052
13.9175
13.1299
12.3422
11.5543
10.766
9.97726
9.18784
8.39759
7.60627
6.81373
6.01964
5.22391
4.42626
3.62663
2.82485
2.02091
1.21492
0.408264
65.2338
62.8515
61.6691
60.5354
59.4062
58.3205
57.2689
56.2416
55.235
54.2464
53.2733
52.314
51.3669
50.4309
49.5049
48.5881
47.6797
46.7791
45.8858
44.9992
44.1188
43.2444
42.3755
41.5118
40.653
39.7988
38.9491
38.1035
37.2619
36.4241
35.5898
34.759
33.9314
33.1069
32.2853
31.4666
30.6505
29.837
29.0259
28.2171
27.4105
26.6059
25.8033
25.0025
24.2035
23.406
22.6101
21.8155
21.0221
20.2298
19.4386
18.6482
17.8586
17.0696
16.2811
15.493
14.7052
13.9175
13.1299
12.3422
11.5543
10.766
9.97726
9.18783
8.39759
7.60627
6.81373
6.01964
5.22391
4.42627
3.62664
2.82486
2.02093
1.21495
0.408358
65.2478
62.8461
61.669
60.5352
59.4061
58.3205
57.2689
56.2415
55.2348
54.2461
53.273
52.3136
51.3665
50.4305
49.5045
48.5877
47.6793
46.7787
45.8854
44.9988
44.1185
43.2441
42.3752
41.5115
40.6527
39.7986
38.9489
38.1033
37.2617
36.4239
35.5897
34.7588
33.9312
33.1067
32.2852
31.4664
30.6504
29.8368
29.0258
28.217
27.4104
26.6058
25.8032
25.0024
24.2034
23.406
22.61
21.8154
21.022
20.2298
19.4386
18.6482
17.8586
17.0696
16.2811
15.493
14.7052
13.9175
13.1299
12.3422
11.5543
10.766
9.97726
9.18784
8.39759
7.60627
6.81373
6.01965
5.22392
4.42628
3.62665
2.82487
2.02095
1.21497
0.408434
65.2609
62.8411
61.6689
60.535
59.406
58.3203
57.2687
56.2412
55.2345
54.2457
53.2726
52.3132
51.366
50.43
49.504
48.5872
47.6789
46.7784
45.885
44.9985
44.1182
43.2438
42.3749
41.5112
40.6525
39.7984
38.9487
38.1031
37.2615
36.4237
35.5895
34.7587
33.9311
33.1066
32.2851
31.4663
30.6503
29.8367
29.0257
28.2169
27.4103
26.6057
25.8031
25.0024
24.2033
23.4059
22.6099
21.8154
21.022
20.2298
19.4385
18.6482
17.8585
17.0696
16.2811
15.493
14.7052
13.9175
13.1299
12.3422
11.5543
10.766
9.97727
9.18784
8.3976
7.60628
6.81374
6.01966
5.22393
4.42629
3.62667
2.82489
2.02097
1.21499
0.408495
65.2733
62.8366
61.6687
60.5348
59.4058
58.3201
57.2684
56.2409
55.2341
54.2453
53.2721
52.3127
51.3656
50.4296
49.5036
48.5869
47.6785
46.778
45.8847
44.9982
44.1179
43.2435
42.3746
41.511
40.6523
39.7982
38.9485
38.1029
37.2614
36.4236
35.5893
34.7585
33.931
33.1065
32.2849
31.4662
30.6502
29.8367
29.0256
28.2168
27.4102
26.6057
25.8031
25.0023
24.2033
23.4059
22.6099
21.8153
21.022
20.2297
19.4385
18.6481
17.8585
17.0695
16.2811
15.493
14.7052
13.9175
13.1299
12.3422
11.5543
10.766
9.97728
9.18786
8.39761
7.60629
6.81375
6.01967
5.22394
4.4263
3.62668
2.8249
2.02099
1.21502
0.408545
65.285
62.8324
61.6685
60.5346
59.4056
58.3198
57.268
56.2404
55.2336
54.2448
53.2716
52.3122
51.3651
50.4291
49.5032
48.5865
47.6782
46.7777
45.8844
44.9979
44.1176
43.2433
42.3744
41.5108
40.6521
39.798
38.9483
38.1028
37.2612
36.4234
35.5892
34.7584
33.9309
33.1064
32.2849
31.4661
30.6501
29.8366
29.0255
28.2167
27.4102
26.6056
25.803
25.0023
24.2033
23.4058
22.6099
21.8153
21.022
20.2297
19.4385
18.6481
17.8585
17.0695
16.2811
15.493
14.7052
13.9175
13.1299
12.3422
11.5543
10.766
9.97729
9.18787
8.39763
7.60631
6.81377
6.01968
5.22395
4.42631
3.6267
2.82492
2.02101
1.21504
0.408584
65.2959
62.8286
61.6683
60.5342
59.4052
58.3194
57.2675
56.2399
55.233
54.2442
53.2711
52.3117
51.3647
50.4287
49.5028
48.5861
47.6779
46.7774
45.8842
44.9977
44.1174
43.2431
42.3742
41.5106
40.6519
39.7978
38.9482
38.1027
37.2611
36.4233
35.5891
34.7583
33.9308
33.1063
32.2848
31.4661
30.65
29.8365