/*--------------------------------*- C++ -*----------------------------------*\
  =========                 |
  \\      /  F ield         | OpenFOAM: The Open Source CFD Toolbox
   \\    /   O peration     | Website:  https://openfoam.org
    \\  /    A nd           | Version:  7
     \\/     M anipulation  |
\*---------------------------------------------------------------------------*/
FoamFile
{
    version     2.0;
    format      ascii;
    class       surfaceScalarField;
    location    "750";
    object      phi;
}
// * * * * * * * * * * * * * * * * * * * * * * * * * * * * * * * * * * * * * //

dimensions      [0 3 -1 0 0 0 0];

internalField   nonuniform List<scalar> 
8865
(
0.00452285
0.00168694
0.00415016
0.00037269
0.0039903
0.000159866
0.00389729
9.30109e-05
0.00383339
6.38985e-05
0.00378555
4.78348e-05
0.00374796
3.75907e-05
0.00371747
3.04976e-05
0.00369216
2.53061e-05
0.00367081
2.13471e-05
0.00365258
1.82337e-05
0.00363685
1.57255e-05
0.00362319
1.36651e-05
0.00361124
1.1945e-05
0.00360075
1.04895e-05
0.00359151
9.24361e-06
0.00358334
8.16645e-06
0.00357612
7.22705e-06
0.00356971
6.40152e-06
0.00356404
5.67114e-06
0.00355902
5.02103e-06
0.00355458
4.43924e-06
0.00355067
3.91605e-06
0.00354722
3.44347e-06
0.00354421
3.01491e-06
0.00354158
2.62485e-06
0.00353931
2.26868e-06
0.00353737
1.94245e-06
0.00353573
1.64291e-06
0.00353436
1.36706e-06
0.00353325
1.1125e-06
0.00353237
8.77119e-07
0.00353171
6.59153e-07
0.00353126
4.56818e-07
0.00353099
2.68832e-07
0.0035309
9.3597e-08
0.00353097
-7.00342e-08
0.00353119
-2.22443e-07
0.00353155
-3.63876e-07
0.00353205
-4.95776e-07
0.00353267
-6.18618e-07
0.0035334
-7.33357e-07
0.00353424
-8.40285e-07
0.00353518
-9.39863e-07
0.00353621
-1.03237e-06
0.00353733
-1.11808e-06
0.00353853
-1.19728e-06
0.0035398
-1.27008e-06
0.00354114
-1.33653e-06
0.00354253
-1.39661e-06
0.00354398
-1.45027e-06
0.00354548
-1.4976e-06
0.00354702
-1.5385e-06
0.00354859
-1.57327e-06
0.0035502
-1.60239e-06
0.00355182
-1.62635e-06
0.00355347
-1.64622e-06
0.00355513
-1.66267e-06
0.00355681
-1.67793e-06
0.00355851
-1.69177e-06
0.00356022
-1.7073e-06
0.00356194
-1.7207e-06
0.00356368
-1.73633e-06
0.00356543
-1.7484e-06
0.00356719
-1.75673e-06
0.00356894
-1.75134e-06
0.00357067
-1.73045e-06
0.00357235
-1.68393e-06
0.00357396
-1.61115e-06
0.00357546
-1.49826e-06
0.0035768
-1.34713e-06
0.00357795
-1.14885e-06
0.00357885
-9.08642e-07
0.00357948
-6.38085e-07
-2.78516e-07
0.00573448
0.00277626
0.00532416
0.000783017
0.00510631
0.00037771
0.00497607
0.000223255
0.00488795
0.000152018
0.00482307
0.000112709
0.00477273
8.79388e-05
0.00473224
7.0979e-05
0.00469887
5.86788e-05
0.00467085
4.93648e-05
0.00464701
4.20794e-05
0.0046265
3.62353e-05
0.00460871
3.14508e-05
0.00459319
2.74677e-05
0.00457958
2.4105e-05
0.00456759
2.12321e-05
0.004557
1.87524e-05
0.00454763
1.65929e-05
0.00453934
1.46975e-05
0.00453199
1.30223e-05
0.00452548
1.15327e-05
0.00451971
1.02007e-05
0.00451463
9.00381e-06
0.00451015
7.92342e-06
0.00450622
6.94424e-06
0.00450279
6.05354e-06
0.00449982
5.2406e-06
0.00449726
4.49635e-06
0.00449509
3.8132e-06
0.00449328
3.18435e-06
0.00449178
2.60424e-06
0.00449059
2.06798e-06
0.00448968
1.57146e-06
0.00448903
1.11073e-06
0.00448861
6.82725e-07
0.00448842
2.84258e-07
0.00448844
-8.78127e-08
0.00448865
-4.34856e-07
0.00448905
-7.57147e-07
0.00448961
-1.05753e-06
0.00449033
-1.33735e-06
0.00449119
-1.59858e-06
0.00449219
-1.84206e-06
0.00449332
-2.06882e-06
0.00449457
-2.27957e-06
0.00449593
-2.47496e-06
0.00449739
-2.65561e-06
0.00449894
-2.82177e-06
0.00450057
-2.97362e-06
0.00450229
-3.11119e-06
0.00450407
-3.23445e-06
0.00450592
-3.34356e-06
0.00450782
-3.43845e-06
0.00450977
-3.51979e-06
0.00451175
-3.58859e-06
0.00451377
-3.64604e-06
0.00451582
-3.69432e-06
0.00451789
-3.73499e-06
0.00451999
-3.77206e-06
0.0045221
-3.80556e-06
0.00452424
-3.84043e-06
0.00452639
-3.87013e-06
0.00452855
-3.90064e-06
0.00453073
-3.92084e-06
0.0045329
-3.92827e-06
0.00453505
-3.90424e-06
0.00453717
-3.84306e-06
0.00453921
-3.72488e-06
0.00454114
-3.54631e-06
0.00454292
-3.28325e-06
0.00454451
-2.93801e-06
0.00454586
-2.49615e-06
0.00454691
-1.96489e-06
0.00454765
-1.38235e-06
-5.89891e-07
0.00677261
0.00350217
0.00634446
0.00121116
0.00607519
0.000646986
0.00590745
0.000390987
0.00579398
0.000265489
0.00571123
0.000195464
0.00564762
0.00015155
0.00559688
0.000121718
0.00555531
0.000100246
0.00552058
8.40915e-05
0.00549114
7.15231e-05
0.00546589
6.14851e-05
0.00544404
5.32969e-05
0.00542501
4.65006e-05
0.00540834
4.07775e-05
0.00539367
3.58985e-05
0.00538073
3.1695e-05
0.00536928
2.80402e-05
0.00535914
2.48369e-05
0.00535016
2.20093e-05
0.00534219
1.94976e-05
0.00533514
1.72539e-05
0.0053289
1.52395e-05
0.0053234
1.34226e-05
0.00531857
1.17771e-05
0.00531434
1.02813e-05
0.00531067
8.91677e-06
0.00530749
7.66824e-06
0.00530478
6.5227e-06
0.0053025
5.46871e-06
0.00530061
4.4968e-06
0.00529908
3.59866e-06
0.00529788
2.76728e-06
0.005297
1.99607e-06
0.0052964
1.27981e-06
0.00529607
6.13408e-07
0.00529599
-8.63354e-09
0.00529615
-5.89301e-07
0.00529652
-1.12904e-06
0.00529709
-1.63182e-06
0.00529785
-2.10021e-06
0.00529879
-2.53733e-06
0.0052999
-2.94477e-06
0.00530115
-3.3243e-06
0.00530255
-3.67716e-06
0.00530408
-4.00449e-06
0.00530573
-4.30729e-06
0.00530749
-4.58608e-06
0.00530936
-4.8412e-06
0.00531132
-5.07279e-06
0.00531337
-5.28088e-06
0.00531549
-5.46578e-06
0.00531768
-5.62753e-06
0.00531993
-5.76716e-06
0.00532223
-5.88628e-06
0.00532457
-5.98674e-06
0.00532695
-6.0718e-06
0.00532936
-6.14392e-06
0.00533179
-6.2085e-06
0.00533425
-6.2659e-06
0.00533674
-6.32194e-06
0.00533923
-6.36809e-06
0.00534174
-6.41005e-06
0.00534426
-6.43219e-06
0.00534676
-6.42852e-06
0.00534923
-6.37282e-06
0.00535164
-6.2541e-06
0.00535396
-6.04487e-06
0.00535615
-5.73764e-06
0.00535816
-5.30107e-06
0.00535996
-4.73707e-06
0.00536149
-4.02894e-06
0.00536271
-3.1837e-06
0.0053636
-2.2741e-06
-9.68402e-07
0.00776838
0.00397374
0.00736522
0.00161432
0.00705881
0.000953393
0.00685371
0.000596095
0.00671229
0.00040691
0.00660913
0.000298623
0.00653023
0.000230446
0.00646767
0.000184282
0.00641669
0.000151228
0.00637428
0.000126493
0.00633846
0.000107343
0.00630784
9.2113e-05
0.0062814
7.97342e-05
0.00625841
6.94918e-05
0.00623829
6.08896e-05
0.00622062
5.35729e-05
0.00620503
4.72819e-05
0.00619125
4.18216e-05
0.00617905
3.70432e-05
0.00616822
3.2831e-05
0.00615863
2.9094e-05
0.00615012
2.57594e-05
0.00614259
2.27684e-05
0.00613594
2.00732e-05
0.00613009
1.76341e-05
0.00612495
1.54185e-05
0.00612047
1.33987e-05
0.00611658
1.15517e-05
0.00611325
9.85799e-06
0.00611042
8.3004e-06
0.00610805
6.86474e-06
0.00610611
5.53859e-06
0.00610456
4.3114e-06
0.00610339
3.17344e-06
0.00610255
2.11682e-06
0.00610203
1.1341e-06
0.0061018
2.1761e-07
0.00610185
-6.38321e-07
0.00610216
-1.43499e-06
0.0061027
-2.17678e-06
0.00610347
-2.86779e-06
0.00610445
-3.51251e-06
0.00610561
-4.11349e-06
0.00610696
-4.67337e-06
0.00610848
-5.1941e-06
0.00611015
-5.67741e-06
0.00611197
-6.12479e-06
0.00611392
-6.5371e-06
0.006116
-6.91493e-06
0.00611818
-7.2586e-06
0.00612047
-7.5683e-06
0.00612285
-7.84447e-06
0.00612531
-8.08734e-06
0.00612784
-8.29833e-06
0.00613043
-8.47957e-06
0.00613308
-8.63359e-06
0.00613577
-8.76455e-06
0.00613851
-8.87566e-06
0.00614127
-8.97346e-06
0.00614406
-9.05836e-06
0.00614688
-9.13689e-06
0.00614971
-9.19805e-06
0.00615255
-9.24735e-06
0.00615538
-9.26428e-06
0.00615819
-9.23967e-06
0.00616096
-9.13997e-06
0.00616366
-8.94992e-06
0.00616625
-8.63436e-06
0.00616869
-8.18324e-06
0.00617095
-7.55875e-06
0.00617297
-6.76392e-06
0.00617472
-5.78012e-06
0.00617615
-4.61457e-06
0.00617725
-3.3776e-06
-1.45414e-06
0.00876053
0.0042679
0.00841816
0.00195669
0.00809688
0.00127467
0.00785897
0.000834004
0.00768847
0.000577413
0.00756264
0.000424452
0.00746628
0.000326806
0.00739005
0.000260516
0.00732813
0.000213142
0.00727681
0.000177816
0.00723358
0.00015057
0.00719672
0.00012898
0.00716496
0.000111491
0.00713739
9.7063e-05
0.0071133
8.49771e-05
0.00709215
7.47211e-05
0.00707351
6.59208e-05
0.00705704
5.82964e-05
0.00704245
5.16348e-05
0.00702951
4.57712e-05
0.00701803
4.05756e-05
0.00700784
3.5945e-05
0.00699881
3.17959e-05
0.00699083
2.80606e-05
0.00698378
2.46832e-05
0.00697758
2.16177e-05
0.00697215
1.88251e-05
0.00696743
1.62731e-05
0.00696335
1.39342e-05
0.00695987
1.17845e-05
0.00695693
9.80407e-06
0.00695449
7.9755e-06
0.00695252
6.284e-06
0.00695098
4.7161e-06
0.00694983
3.26071e-06
0.00694906
1.90751e-06
0.00694863
6.46683e-07
0.00694852
-5.30979e-07
0.00694872
-1.62846e-06
0.00694919
-2.65023e-06
0.00694993
-3.60198e-06
0.0069509
-4.48978e-06
0.00695211
-5.3174e-06
0.00695352
-6.08851e-06
0.00695513
-6.80595e-06
0.00695693
-7.47216e-06
0.00695889
-8.08925e-06
0.00696101
-8.65854e-06
0.00696328
-9.18095e-06
0.00696568
-9.65709e-06
0.0069682
-1.00873e-05
0.00697083
-1.04723e-05
0.00697355
-1.08125e-05
0.00697636
-1.11096e-05
0.00697925
-1.13664e-05
0.0069822
-1.15859e-05
0.00698521
-1.17729e-05
0.00698827
-1.19314e-05
0.00699136
-1.20686e-05
0.00699449
-1.21851e-05
0.00699764
-1.22874e-05
0.00700081
-1.23626e-05
0.00700397
-1.24152e-05
0.00700713
-1.24207e-05
0.00701026
-1.23666e-05
0.00701333
-1.22131e-05
0.00701632
-1.19407e-05
0.0070192
-1.15085e-05
0.00702192
-1.09038e-05
0.00702444
-1.00844e-05
0.00702673
-9.05419e-06
0.00702874
-7.79463e-06
0.00703044
-6.31135e-06
0.00703182
-4.75469e-06
-2.07793e-06
0.00977742
0.00444047
0.00951399
0.00222012
0.00920569
0.00158298
0.00894539
0.0010943
0.00874723
0.000775576
0.0085973
0.000574375
0.00848145
0.000442657
0.00838959
0.000352373
0.00831504
0.000287698
0.00825334
0.000239516
0.00820147
0.000202437
0.00815732
0.000173135
0.00811935
0.000149463
0.00808642
0.000129986
0.00805769
0.000113709
0.00803248
9.99273e-05
0.00801028
8.8125e-05
0.00799066
7.79179e-05
0.00797328
6.90143e-05
0.00795786
6.11885e-05
0.00794417
5.42636e-05
0.00793202
4.80989e-05
0.00792123
4.25815e-05
0.00791168
3.76191e-05
0.00790322
3.31364e-05
0.00789577
2.90709e-05
0.00788922
2.53703e-05
0.00788351
2.19908e-05
0.00787855
1.88954e-05
0.00787428
1.60521e-05
0.00787065
1.34341e-05
0.00786761
1.10179e-05
0.00786511
8.78383e-06
0.00786311
6.71381e-06
0.00786158
4.79296e-06
0.00786048
3.00757e-06
0.00785978
1.34536e-06
0.00785945
-2.06814e-07
0.00785948
-1.65467e-06
0.00785983
-3.00307e-06
0.00786049
-4.25896e-06
0.00786143
-5.43028e-06
0.00786263
-6.52222e-06
0.00786409
-7.53974e-06
0.00786577
-8.48672e-06
0.00786766
-9.36649e-06
0.00786975
-1.01819e-05
0.00787203
-1.0935e-05
0.00787448
-1.16269e-05
0.00787708
-1.22588e-05
0.00787982
-1.28312e-05
0.00788269
-1.33451e-05
0.00788568
-1.38011e-05
0.00788878
-1.42014e-05
0.00789196
-1.45491e-05
0.00789522
-1.48476e-05
0.00789855
-1.51025e-05
0.00790194
-1.5318e-05
0.00790537
-1.55022e-05
0.00790884
-1.5655e-05
0.00791234
-1.57836e-05
0.00791585
-1.58725e-05
0.00791936
-1.59259e-05
0.00792286
-1.59151e-05
0.00792631
-1.58251e-05
0.00792971
-1.56106e-05
0.00793302
-1.52487e-05
0.0079362
-1.46932e-05
0.00793923
-1.39304e-05
0.00794206
-1.29139e-05
0.00794465
-1.16498e-05
0.00794698
-1.01193e-05
0.00794899
-8.32637e-06
0.0079507
-6.46097e-06
-2.87127e-06
0.0108418
0.0045325
0.0106586
0.00240329
0.0103907
0.00185088
0.0101252
0.00135979
0.00990488
0.000995899
0.00973121
0.000748042
0.00959448
0.000579386
0.00948519
0.000461659
0.00939623
0.000376666
0.00932255
0.000313187
0.00926065
0.000264341
0.009208
0.000225789
0.00916276
0.000194702
0.00912357
0.000169174
0.00908939
0.000147885
0.00905943
0.000129893
0.00903304
0.000114513
0.00900972
0.000101234
0.00898907
8.96694e-05
0.00897074
7.95188e-05
0.00895445
7.05485e-05
0.00893998
6.25725e-05
0.00892712
5.54418e-05
0.0089157
4.90349e-05
0.00890559
4.32527e-05
0.00889664
3.80131e-05
0.00888877
3.32475e-05
0.00888186
2.88985e-05
0.00887584
2.49178e-05
0.00887063
2.12635e-05
0.00886616
1.79006e-05
0.00886238
1.47986e-05
0.00885923
1.19316e-05
0.00885667
9.27624e-06
0.00885465
6.81314e-06
0.00885313
4.52453e-06
0.00885208
2.39501e-06
0.00885147
4.07849e-07
0.00885126
-1.4469e-06
0.00885143
-3.17548e-06
0.00885196
-4.78538e-06
0.00885281
-6.28668e-06
0.00885398
-7.68625e-06
0.00885543
-8.99059e-06
0.00885715
-1.02048e-05
0.00885911
-1.13334e-05
0.00886131
-1.23802e-05
0.00886373
-1.33477e-05
0.00886634
-1.42379e-05
0.00886913
-1.50523e-05
0.00887209
-1.57919e-05
0.0088752
-1.64578e-05
0.00887845
-1.70511e-05
0.00888183
-1.75743e-05
0.00888531
-1.80306e-05
0.00888888
-1.84241e-05
0.00889254
-1.87606e-05
0.00889627
-1.90446e-05
0.00890005
-1.92847e-05
0.00890388
-1.94805e-05
0.00890773
-1.96391e-05
0.00891161
-1.97434e-05
0.00891548
-1.97965e-05
0.00891933
-1.97668e-05
0.00892314
-1.96368e-05
0.00892689
-1.93567e-05
0.00893054
-1.89008e-05
0.00893407
-1.82193e-05
0.00893743
-1.72972e-05
0.0089406
-1.60855e-05
0.00894354
-1.45921e-05
0.00894622
-1.27991e-05
0.0089486
-1.07069e-05
0.00895069
-8.54512e-06
-3.8561e-06
0.0119752
0.00457226
0.0118614
0.00251703
0.0116523
0.00206002
0.0114041
0.00160801
0.0111727
0.00122725
0.0109787
0.00094203
0.0108211
0.000736974
0.0106932
0.000589616
0.0105882
0.000481647
0.0105009
0.000400442
0.0104275
0.000337776
0.010365
0.000288286
0.0103113
0.000248398
0.0102648
0.00021568
0.0102243
0.000188432
0.0101887
0.000165439
0.0101574
0.000145814
0.0101298
0.000128895
0.0101052
0.00011418
0.0100835
0.000101282
0.0100641
8.98972e-05
0.0100469
7.97864e-05
0.0100316
7.07567e-05
0.010018
6.26517e-05
0.0100059
5.53437e-05
0.00999518
4.87271e-05
0.00998571
4.27139e-05
0.00997738
3.72304e-05
0.00997008
3.22145e-05
0.00996373
2.76129e-05
0.00995825
2.33806e-05
0.00995357
1.94787e-05
0.00994963
1.58741e-05
0.00994637
1.25371e-05
0.00994374
9.44283e-06
0.0099417
6.56879e-06
0.0099402
3.89567e-06
0.0099392
1.40346e-06
0.00993868
-9.23188e-07
0.0099386
-3.09351e-06
0.00993892
-5.11499e-06
0.00993964
-6.99993e-06
0.00994071
-8.75718e-06
0.00994211
-1.0395e-05
0.00994383
-1.19202e-05
0.00994583
-1.33383e-05
0.00994811
-1.46544e-05
0.00995063
-1.5872e-05
0.00995339
-1.69937e-05
0.00995636
-1.80216e-05
0.00995952
-1.89572e-05
0.00996287
-1.9802e-05
0.00996637
-2.05574e-05
0.00997003
-2.12261e-05
0.00997381
-2.18118e-05
0.0099777
-2.23188e-05
0.00998169
-2.27532e-05
0.00998577
-2.31196e-05
0.00998991
-2.34267e-05
0.00999411
-2.36741e-05
0.00999834
-2.38687e-05
0.0100026
-2.39915e-05
0.0100068
-2.40456e-05
0.0100111
-2.39963e-05
0.0100153
-2.38248e-05
0.0100194
-2.34772e-05
0.0100234
-2.29263e-05
0.0100273
-2.21187e-05
0.010031
-2.10395e-05
0.0100346
-1.96372e-05
0.0100379
-1.79224e-05
0.010041
-1.5877e-05
0.0100438
-1.34975e-05
0.0100463
-1.10516e-05
-5.05793e-06
0.0131983
0.00457686
0.0131373
0.00257801
0.0129915
0.00220581
0.0127826
0.00181691
0.0125574
0.00145244
0.0123512
0.00114828
0.0121753
0.000912857
0.0120287
0.000736235
0.0119067
0.000603686
0.0118044
0.000502686
0.011718
0.000424209
0.0116442
0.000362025
0.0115808
0.000311841
0.0115258
0.00027067
0.0114778
0.0002364
0.0114358
0.000207506
0.0113987
0.00018287
0.011366
0.000161655
0.0113369
0.000143224
0.0113111
0.000127088
0.0112881
0.00011286
0.0112677
0.000100238
0.0112495
8.89769e-05
0.0112332
7.88784e-05
0.0112188
6.9781e-05
0.011206
6.1551e-05
0.0111946
5.40775e-05
0.0111846
4.72672e-05
0.0111758
4.10418e-05
0.011168
3.53342e-05
0.0111613
3.00877e-05
0.0111555
2.52533e-05
0.0111506
2.07894e-05
0.0111465
1.66588e-05
0.0111431
1.28301e-05
0.0111404
9.2752e-06
0.0111383
5.97005e-06
0.0111369
2.89108e-06
0.0111359
1.725e-08
0.0111355
-2.66545e-06
0.0111355
-5.1652e-06
0.011136
-7.49598e-06
0.0111369
-9.66892e-06
0.0111382
-1.16944e-05
0.0111399
-1.3581e-05
0.0111419
-1.53359e-05
0.0111442
-1.69655e-05
0.0111468
-1.84743e-05
0.0111497
-1.9866e-05
0.0111528
-2.11434e-05
0.0111562
-2.23084e-05
0.0111597
-2.33633e-05
0.0111635
-2.43096e-05
0.0111674
-2.51505e-05
0.0111715
-2.58898e-05
0.0111757
-2.6532e-05
0.01118
-2.70834e-05
0.0111845
-2.75487e-05
0.011189
-2.79367e-05
0.0111935
-2.82466e-05
0.0111982
-2.84853e-05
0.0112028
-2.86325e-05
0.0112074
-2.8691e-05
0.0112121
-2.86241e-05
0.0112167
-2.84119e-05
0.0112212
-2.79978e-05
0.0112256
-2.7353e-05
0.0112299
-2.64223e-05
0.0112341
-2.51908e-05
0.011238
-2.36055e-05
0.0112418
-2.1679e-05
0.0112453
-1.93939e-05
0.0112485
-1.674e-05
0.0112515
-1.40226e-05
-6.49472e-06
0.0145294
0.00455582
0.0145054
0.00260198
0.0144157
0.00229555
0.0142598
0.00197282
0.0140612
0.00165105
0.0138564
0.00135304
0.0136688
0.00110045
0.0135058
0.000899213
0.0133669
0.000742613
0.0132489
0.000620723
0.0131482
0.000524839
0.0130619
0.000448325
0.0129874
0.000386336
0.0129227
0.00033538
0.0128662
0.00029293
0.0128166
0.000257137
0.0127728
0.000226629
0.0127341
0.000200373
0.0126997
0.000177581
0.0126692
0.000157643
0.012642
0.000140079
0.0126177
0.00012451
0.012596
0.000110632
0.0125767
9.81967e-05
0.0125595
8.70035e-05
0.0125442
7.68855e-05
0.0125305
6.77041e-05
0.0125185
5.93433e-05
0.0125078
5.17055e-05
0.0124984
4.47073e-05
0.0124902
3.8278e-05
0.0124831
3.2357e-05
0.012477
2.68922e-05
0.0124718
2.18377e-05
0.0124675
1.71546e-05
0.012464
1.28079e-05
0.0124612
8.76805e-06
0.0124591
5.0067e-06
0.0124576
1.49848e-06
0.0124567
-1.77773e-06
0.0124564
-4.83321e-06
0.0124566
-7.68204e-06
0.0124572
-1.0338e-05
0.0124583
-1.2814e-05
0.0124599
-1.51207e-05
0.0124618
-1.72673e-05
0.0124641
-1.92616e-05
0.0124667
-2.11096e-05
0.0124697
-2.2816e-05
0.0124729
-2.43846e-05
0.0124764
-2.58181e-05
0.0124802
-2.71192e-05
0.0124842
-2.829e-05
0.0124884
-2.93339e-05
0.0124927
-3.02551e-05
0.0124973
-3.1058e-05
0.0125019
-3.17493e-05
0.0125067
-3.23331e-05
0.0125116
-3.28188e-05
0.0125166
-3.32048e-05
0.0125216
-3.34986e-05
0.0125266
-3.36783e-05
0.0125317
-3.37473e-05
0.0125367
-3.36672e-05
0.0125417
-3.34178e-05
0.0125467
-3.29405e-05
0.0125515
-3.22064e-05
0.0125562
-3.11582e-05
0.0125608
-2.97825e-05
0.0125653
-2.80242e-05
0.0125695
-2.58987e-05
0.0125735
-2.33881e-05
0.0125772
-2.04749e-05
0.0125807
-1.74988e-05
-8.1907e-06
0.0159844
0.00451431
0.0159863
0.00260012
0.0159396
0.0023422
0.015838
0.00207445
0.0156829
0.00180618
0.0154978
0.00153813
0.0153103
0.00128793
0.015137
0.00107255
0.0149835
0.000896033
0.0148502
0.000754095
0.0147348
0.000640183
0.014635
0.000548156
0.0145483
0.000473036
0.0144727
0.000411005
0.0144064
0.000359191
0.0143481
0.00031544
0.0142966
0.000278124
0.014251
0.000246004
0.0142104
0.000218126
0.0141743
0.000193748
0.0141421
0.000172285
0.0141134
0.000153272
0.0140877
0.000136334
0.0140647
0.000121167
0.0140442
0.000107525
0.0140259
9.52009e-05
0.0140095
8.40249e-05
0.013995
7.38542e-05
0.0139822
6.45685e-05
0.0139708
5.60652e-05
0.0139608
4.82574e-05
0.0139521
4.10704e-05
0.0139446
3.44402e-05
0.0139381
2.83104e-05
0.0139326
2.26333e-05
0.0139281
1.73659e-05
0.0139244
1.24719e-05
0.0139214
7.91728e-06
0.0139193
3.67245e-06
0.0139178
-2.91513e-07
0.0139169
-3.99166e-06
0.0139167
-7.44241e-06
0.013917
-1.06597e-05
0.0139179
-1.36594e-05
0.0139192
-1.64545e-05
0.013921
-1.90565e-05
0.0139232
-2.14751e-05
0.0139258
-2.3718e-05
0.0139288
-2.57912e-05
0.0139321
-2.76996e-05
0.0139357
-2.94469e-05
0.0139396
-3.10364e-05
0.0139438
-3.24707e-05
0.0139482
-3.37537e-05
0.0139529
-3.48897e-05
0.0139577
-3.58834e-05
0.0139627
-3.67411e-05
0.0139678
-3.74671e-05
0.0139731
-3.80706e-05
0.0139784
-3.85499e-05
0.0139838
-3.89125e-05
0.0139893
-3.91359e-05
0.0139948
-3.9224e-05
0.0140003
-3.91378e-05
0.0140057
-3.88575e-05
0.0140111
-3.83234e-05
0.0140164
-3.75068e-05
0.0140216
-3.635e-05
0.0140266
-3.48407e-05
0.0140315
-3.29229e-05
0.0140362
-3.06137e-05
0.0140407
-2.78952e-05
0.014045
-2.47397e-05
0.014049
-2.15194e-05
-1.01623e-05
0.0175785
0.00445507
0.0175995
0.00257919
0.0175837
0.00235791
0.0175281
0.00213005
0.0174232
0.00191109
0.0172751
0.00168623
0.0171043
0.00145878
0.0169315
0.00124532
0.0167696
0.00105797
0.0166236
0.000900065
0.0164944
0.000769374
0.0163809
0.000661678
0.0162813
0.000572637
0.0161938
0.0004985
0.0161167
0.000436243
0.0160487
0.000383494
0.0159884
0.000338409
0.0159348
0.000299552
0.0158872
0.000265805
0.0158446
0.000236287
0.0158066
0.000210298
0.0157726
0.000187279
0.0157422
0.00016678
0.0157149
0.000148433
0.0156905
0.000131937
0.0156686
0.000117043
0.0156491
0.000103542
0.0156317
9.12625e-05
0.0156162
8.00569e-05
0.0156025
6.98005e-05
0.0155904
6.03875e-05
0.0155797
5.17268e-05
0.0155704
4.37404e-05
0.0155624
3.63598e-05
0.0155555
2.95266e-05
0.0155496
2.31888e-05
0.0155448
1.73021e-05
0.0155409
1.18254e-05
0.0155379
6.72408e-06
0.0155356
1.96312e-06
0.0155341
-2.48357e-06
0.0155333
-6.63379e-06
0.0155331
-1.05034e-05
0.0155336
-1.41117e-05
0.0155346
-1.74747e-05
0.0155361
-2.06063e-05
0.0155382
-2.35187e-05
0.0155407
-2.62212e-05
0.0155436
-2.87218e-05
0.015547
-3.10266e-05
0.0155506
-3.31403e-05
0.0155547
-3.50673e-05
0.015559
-3.68106e-05
0.0155636
-3.83748e-05
0.0155685
-3.97642e-05
0.0155736
-4.09836e-05
0.0155789
-4.20393e-05
0.0155844
-4.29353e-05
0.01559
-4.36808e-05
0.0155957
-4.42739e-05
0.0156015
-4.47227e-05
0.0156074
-4.50039e-05
0.0156133
-4.5123e-05
0.0156192
-4.50405e-05
0.0156251
-4.47384e-05
0.0156309
-4.41564e-05
0.0156367
-4.32678e-05
0.0156423
-4.20142e-05
0.0156479
-4.03857e-05
0.0156533
-3.83249e-05
0.0156585
-3.58514e-05
0.0156636
-3.29455e-05
0.0156684
-2.95684e-05
0.015673
-2.61205e-05
-1.24325e-05
0.0193271
0.00437951
0.0193633
0.00254302
0.0193699
0.00235126
0.0193491
0.00215085
0.0192904
0.00196985
0.0191886
0.00178799
0.0190512
0.00159619
0.0188945
0.00140198
0.0187348
0.00121769
0.0185826
0.00105228
0.0184429
0.000909105
0.0183171
0.00078748
0.0182049
0.000684848
0.0181051
0.000598216
0.0180166
0.00052479
0.0179379
0.000462184
0.0178679
0.000408444
0.0178054
0.000361996
0.0177496
0.000321578
0.0176998
0.000286181
0.0176551
0.000254993
0.017615
0.000227358
0.017579
0.000202744
0.0175467
0.000180714
0.0175178
0.000160909
0.0174918
0.000143032
0.0174685
0.000126832
0.0174476
0.000112102
0.017429
9.86652e-05
0.0174125
8.63711e-05
0.0173978
7.50921e-05
0.0173848
6.47183e-05
0.0173734
5.51556e-05
0.0173634
4.63212e-05
0.0173548
3.81445e-05
0.0173474
3.0563e-05
0.0173412
2.35229e-05
0.017336
1.69751e-05
0.0173319
1.08783e-05
0.0173286
5.19248e-06
0.0173263
-1.18688e-07
0.0173247
-5.0801e-06
0.0173239
-9.70769e-06
0.0173238
-1.40234e-05
0.0173244
-1.80464e-05
0.0173256
-2.1794e-05
0.0173274
-2.52808e-05
0.0173297
-2.85184e-05
0.0173325
-3.15168e-05
0.0173357
-3.42837e-05
0.0173394
-3.68252e-05
0.0173435
-3.91468e-05
0.0173479
-4.12521e-05
0.0173527
-4.31463e-05
0.0173578
-4.48341e-05
0.0173631
-4.63201e-05
0.0173687
-4.76108e-05
0.0173744
-4.87096e-05
0.0173804
-4.96259e-05
0.0173865
-5.03577e-05
0.0173927
-5.09136e-05
0.0173989
-5.12706e-05
0.0174052
-5.14356e-05
0.0174116
-5.137e-05
0.0174179
-5.10581e-05
0.0174242
-5.04408e-05
0.0174304
-4.94931e-05
0.0174366
-4.81581e-05
0.0174426
-4.64278e-05
0.0174485
-4.42448e-05
0.0174543
-4.16296e-05
0.0174599
-3.85616e-05
0.0174653
-3.49874e-05
0.0174705
-3.1332e-05
-1.5013e-05
0.0212463
0.00428825
0.0212957
0.00249367
0.0213195
0.00232744
0.0213242
0.00214617
0.0213021
0.00199196
0.0212453
0.00184475
0.0211515
0.00169
0.021027
0.00152649
0.0208846
0.00136013
0.0207372
0.00119968
0.020594
0.0010523
0.02046
0.000921453
0.0203373
0.000807544
0.0202262
0.000709285
0.0201263
0.000624735
0.0200366
0.000551878
0.0199562
0.000488871
0.019884
0.000434123
0.0198193
0.000386304
0.0197612
0.000344313
0.0197089
0.000307245
0.0196619
0.000274358
0.0196196
0.000245039
0.0195816
0.000218784
0.0195473
0.000195173
0.0195165
0.000173856
0.0194888
0.000154539
0.0194639
0.000136976
0.0194416
0.000120956
0.0194217
0.000106301
0.0194039
9.28597e-05
0.0193881
8.04995e-05
0.0193742
6.91083e-05
0.0193619
5.85873e-05
0.0193512
4.88519e-05
0.0193419
3.98271e-05
0.019334
3.14485e-05
0.0193273
2.36575e-05
0.0193218
1.6405e-05
0.0193173
9.64435e-06
0.0193139
3.33269e-06
0.0193114
-2.56675e-06
0.0193097
-8.07476e-06
0.0193089
-1.32123e-05
0.0193089
-1.80025e-05
0.0193096
-2.24662e-05
0.0193109
-2.66209e-05
0.0193129
-3.04812e-05
0.0193154
-3.40591e-05
0.0193185
-3.73645e-05
0.0193221
-4.04051e-05
0.0193261
-4.31875e-05
0.0193306
-4.57163e-05
0.0193354
-4.79975e-05
0.0193406
-5.00359e-05
0.0193461
-5.18364e-05
0.0193519
-5.34051e-05
0.019358
-5.47454e-05
0.0193642
-5.58665e-05
0.0193706
-5.67666e-05
0.0193772
-5.74553e-05
0.0193838
-5.79096e-05
0.0193905
-5.81395e-05
0.0193972
-5.81073e-05
0.019404
-5.78011e-05
0.0194107
-5.71635e-05
0.0194174
-5.61736e-05
0.019424
-5.47754e-05
0.0194305
-5.29649e-05
0.019437
-5.06837e-05
0.0194433
-4.79547e-05
0.0194495
-4.47539e-05
0.0194555
-4.10125e-05
0.0194614
-3.71731e-05
-1.79195e-05
0.0233536
0.00418142
0.0234151
0.0024322
0.0234532
0.00228933
0.0234772
0.00212214
0.0234826
0.00198665
0.0234628
0.0018645
0.0234125
0.0017403
0.02333
0.00160898
0.0232201
0.00147005
0.0230924
0.00132737
0.0229574
0.00118727
0.0228234
0.00105551
0.0226954
0.000935567
0.022576
0.000828655
0.0224663
0.000734457
0.0223663
0.000651894
0.0222755
0.00057961
0.0221934
0.000516238
0.0221192
0.000460522
0.0220521
0.000411361
0.0219916
0.000367808
0.0219369
0.000329066
0.0218874
0.00029446
0.0218428
0.000263425
0.0218025
0.000235487
0.0217661
0.000210244
0.0217333
0.000187358
0.0217037
0.000166541
0.0216771
0.000147551
0.0216532
0.000130177
0.0216319
0.00011424
0.0216128
9.95864e-05
0.0215958
8.60819e-05
0.0215808
7.36103e-05
0.0215676
6.2071e-05
0.021556
5.13753e-05
0.021546
4.14466e-05
0.0215375
3.22154e-05
0.0215302
2.36233e-05
0.0215243
1.56159e-05
0.0215195
8.14474e-06
0.0215157
1.16138e-06
0.021513
-5.36537e-06
0.0215113
-1.14568e-05
0.0215104
-1.71379e-05
0.0215104
-2.24334e-05
0.0215111
-2.73645e-05
0.0215126
-3.19487e-05
0.0215147
-3.62009e-05
0.0215175
-4.01332e-05
0.0215208
-4.37553e-05
0.0215247
-4.70752e-05
0.0215291
-5.00989e-05
0.0215339
-5.2833e-05
0.0215392
-5.52828e-05
0.0215448
-5.74531e-05
0.0215508
-5.93502e-05
0.021557
-6.09771e-05
0.0215635
-6.23432e-05
0.0215701
-6.34468e-05
0.021577
-6.42985e-05
0.021584
-6.48768e-05
0.021591
-6.51942e-05
0.0215981
-6.52158e-05
0.0216052
-6.4934e-05
0.0216124
-6.4295e-05
0.0216195
-6.32821e-05
0.0216266
-6.18427e-05
0.0216336
-5.99765e-05
0.0216405
-5.76257e-05
0.0216474
-5.48141e-05
0.0216541
-5.15152e-05
0.0216608
-4.76416e-05
0.0216672
-4.36467e-05
-2.115e-05
0.025668
0.00405883
0.0257411
0.00235909
0.025792
0.00223841
0.0258318
0.00208235
0.025858
0.00196046
0.0258665
0.00185601
0.0258526
0.00175414
0.0258122
0.00164945
0.0257435
0.00153871
0.0256497
0.00142115
0.0255378
0.00129914
0.0254163
0.00117709
0.0252923
0.00105955
0.0251711
0.000949846
0.0250558
0.000849723
0.0249481
0.000759626
0.0248485
0.000679192
0.0247571
0.000607648
0.0246736
0.000544065
0.0245974
0.000487505
0.0245281
0.000437091
0.0244652
0.000392034
0.024408
0.000351644
0.0243561
0.000315323
0.024309
0.000282556
0.0242664
0.000252903
0.0242277
0.000225985
0.0241928
0.000201478
0.0241612
0.000179105
0.0241328
0.000158625
0.0241072
0.000139832
0.0240842
0.000122546
0.0240637
0.000106613
0.0240454
9.1897e-05
0.0240292
7.82796e-05
0.0240149
6.56571e-05
0.0240024
5.39392e-05
0.0239916
4.30447e-05
0.0239823
3.29042e-05
0.0239745
2.34547e-05
0.023968
1.46402e-05
0.0239628
6.4057e-06
0.0239587
-1.29512e-06
0.0239557
-8.49099e-06
0.0239538
-1.52049e-05
0.0239528
-2.14654e-05
0.0239527
-2.72975e-05
0.0239535
-3.27222e-05
0.0239551
-3.77577e-05
0.0239574
-4.24189e-05
0.0239603
-4.67176e-05
0.0239639
-5.06636e-05
0.0239681
-5.42643e-05
0.0239728
-5.75274e-05
0.023978
-6.04585e-05
0.0239836
-6.30629e-05
0.0239896
-6.53467e-05
0.0239959
-6.73127e-05
0.0240025
-6.89705e-05
0.0240094
-7.03189e-05
0.0240165
-7.137e-05
0.0240237
-7.21034e-05
0.024031
-7.25358e-05
0.0240385
-7.26354e-05
0.0240459
-7.24005e-05
0.0240534
-7.17816e-05
0.0240609
-7.0769e-05
0.0240684
-6.93129e-05
0.0240758
-6.74192e-05
0.0240832
-6.50301e-05
0.0240906
-6.2172e-05
0.0240979
-5.88141e-05
0.0241051
-5.48492e-05
0.0241122
-5.07317e-05
-2.4701e-05
0.02821
0.00392004
0.0282946
0.00227448
0.0283577
0.00217531
0.0284114
0.00202872
0.0284545
0.00191736
0.0284846
0.00182582
0.028499
0.00173975
0.0284939
0.00165457
0.0284658
0.00156685
0.0284129
0.00147399
0.0283369
0.00137516
0.0282424
0.00127159
0.0281359
0.00116607
0.0280237
0.00106203
0.027911
0.000962457
0.0278012
0.000869359
0.0276967
0.000783742
0.0275985
0.00070584
0.0275072
0.000635404
0.0274227
0.000571917
0.0273451
0.000514754
0.0272738
0.000463267
0.0272087
0.000416832
0.0271491
0.000374877
0.0270948
0.000336886
0.0270453
0.000302404
0.0270002
0.000271029
0.0269593
0.000242411
0.0269222
0.000216246
0.0268885
0.000192267
0.0268581
0.000170242
0.0268307
0.000149969
0.026806
0.000131271
0.0267839
0.000113992
0.0267642
9.79978e-05
0.0267467
8.31673e-05
0.0267312
6.93961e-05
0.0267177
5.659e-05
0.0267059
4.46682e-05
0.0266958
3.35574e-05
0.0266873
2.31933e-05
0.0266802
1.35143e-05
0.0266744
4.4641e-06
0.0266699
-4.00154e-06
0.0266666
-1.19099e-05
0.0266644
-1.92872e-05
0.0266633
-2.61623e-05
0.0266631
-3.25609e-05
0.0266639
-3.85044e-05
0.0266655
-4.4011e-05
0.0266679
-4.9095e-05
0.026671
-5.37685e-05
0.0266747
-5.80402e-05
0.0266791
-6.19193e-05
0.0266841
-6.5412e-05
0.0266895
-6.85241e-05
0.0266955
-7.12616e-05
0.0267018
-7.36274e-05
0.0267084
-7.56311e-05
0.0267154
-7.72724e-05
0.0267226
-7.8565e-05
0.02673
-7.94907e-05
0.0267375
-8.00703e-05
0.0267452
-8.02766e-05
0.0267529
-8.01146e-05
0.0267606
-7.95411e-05
0.0267684
-7.85537e-05
0.0267762
-7.71085e-05
0.026784
-7.52174e-05
0.0267918
-7.28249e-05
0.0267996
-6.9959e-05
0.0268074
-6.65856e-05
0.0268151
-6.25754e-05
0.0268227
-5.8373e-05
-2.8541e-05
0.0310025
0.00376437
0.0310986
0.00217833
0.0311738
0.00210012
0.0312404
0.00196217
0.0312982
0.00185951
0.0313461
0.00177799
0.0313824
0.00170341
0.0314049
0.00163208
0.0314106
0.00156114
0.0313966
0.00148794
0.0313612
0.00141063
0.0313045
0.00132831
0.0312292
0.00124132
0.03114
0.00115123
0.0310421
0.00106038
0.0309402
0.000971214
0.0308382
0.000885745
0.0307387
0.000805322
0.0306435
0.000730648
0.0305535
0.00066193
0.0304692
0.000599048
0.0303908
0.000541688
0.0303182
0.00048944
0.0302512
0.000441861
0.0301896
0.000398507
0.030133
0.00035896
0.0300812
0.000322832
0.0300338
0.000289771
0.0299906
0.000259464
0.0299513
0.000231629