/*--------------------------------*- C++ -*----------------------------------*\
  =========                 |
  \\      /  F ield         | OpenFOAM: The Open Source CFD Toolbox
   \\    /   O peration     | Website:  https://openfoam.org
    \\  /    A nd           | Version:  7
     \\/     M anipulation  |
\*---------------------------------------------------------------------------*/
FoamFile
{
    version     2.0;
    format      ascii;
    class       volVectorField;
    location    "750";
    object      U;
}
// * * * * * * * * * * * * * * * * * * * * * * * * * * * * * * * * * * * * * //

dimensions      [0 1 -1 0 0 0 0];

internalField   nonuniform List<vector> 
4500
(
(15.4058 -0.778201 0)
(13.7077 -0.0619025 0)
(13.0325 -0.00325615 0)
(12.6708 0.00046499 0)
(12.4331 0.00050143 0)
(12.2594 0.000386177 0)
(12.125 0.000303744 0)
(12.0172 0.000246405 0)
(11.9286 0.0002045 0)
(11.8542 0.000172559 0)
(11.7911 0.000147435 0)
(11.7368 0.000127187 0)
(11.6898 0.000110546 0)
(11.6488 9.66465e-05 0)
(11.6128 8.48803e-05 0)
(11.5812 7.48044e-05 0)
(11.5533 6.60903e-05 0)
(11.5286 5.84884e-05 0)
(11.5067 5.18062e-05 0)
(11.4874 4.58928e-05 0)
(11.4702 4.06279e-05 0)
(11.455 3.59155e-05 0)
(11.4416 3.16771e-05 0)
(11.4298 2.78481e-05 0)
(11.4194 2.4375e-05 0)
(11.4104 2.12138e-05 0)
(11.4025 1.83267e-05 0)
(11.3958 1.56822e-05 0)
(11.39 1.32533e-05 0)
(11.3852 1.10164e-05 0)
(11.3812 8.95223e-06 0)
(11.378 7.04337e-06 0)
(11.3755 5.27533e-06 0)
(11.3738 3.63398e-06 0)
(11.3726 2.10901e-06 0)
(11.372 6.86276e-07 0)
(11.372 -6.45127e-07 0)
(11.3725 -1.88491e-06 0)
(11.3734 -3.0322e-06 0)
(11.3748 -4.10184e-06 0)
(11.3766 -5.09786e-06 0)
(11.3788 -6.02901e-06 0)
(11.3814 -6.89639e-06 0)
(11.3842 -7.70432e-06 0)
(11.3874 -8.45461e-06 0)
(11.3909 -9.15055e-06 0)
(11.3946 -9.79403e-06 0)
(11.3986 -1.03848e-05 0)
(11.4028 -1.09237e-05 0)
(11.4072 -1.14099e-05 0)
(11.4118 -1.18458e-05 0)
(11.4165 -1.22293e-05 0)
(11.4214 -1.25563e-05 0)
(11.4265 -1.28302e-05 0)
(11.4316 -1.30544e-05 0)
(11.4368 -1.32311e-05 0)
(11.4421 -1.338e-05 0)
(11.4474 -1.34997e-05 0)
(11.4528 -1.36011e-05 0)
(11.4582 -1.37056e-05 0)
(11.4637 -1.38281e-05 0)
(11.4692 -1.39564e-05 0)
(11.4748 -1.41223e-05 0)
(11.4804 -1.42857e-05 0)
(11.4861 -1.44503e-05 0)
(11.4917 -1.45297e-05 0)
(11.4974 -1.45131e-05 0)
(11.5029 -1.42963e-05 0)
(11.5082 -1.3884e-05 0)
(11.5132 -1.31209e-05 0)
(11.5178 -1.20287e-05 0)
(11.5219 -1.04925e-05 0)
(11.5252 -8.53381e-06 0)
(11.5277 -6.27348e-06 0)
(11.5293 -3.01422e-06 0)
(17.5879 0.16307 0)
(16.0152 0.0238108 0)
(15.1976 0.00458796 0)
(14.7348 0.00198899 0)
(14.4341 0.00129709 0)
(14.2183 0.000960549 0)
(14.0538 0.000751469 0)
(13.9232 0.000608021 0)
(13.8165 0.000503607 0)
(13.7275 0.000424282 0)
(13.6522 0.000362065 0)
(13.5878 0.000312044 0)
(13.532 0.000271017 0)
(13.4835 0.000236811 0)
(13.441 0.000207895 0)
(13.4037 0.000183163 0)
(13.3708 0.000161797 0)
(13.3416 0.000143174 0)
(13.3158 0.000126818 0)
(13.293 0.000112353 0)
(13.2728 9.94827e-05 0)
(13.2548 8.79692e-05 0)
(13.239 7.76187e-05 0)
(13.225 6.82722e-05 0)
(13.2127 5.9798e-05 0)
(13.202 5.20874e-05 0)
(13.1926 4.50477e-05 0)
(13.1846 3.86014e-05 0)
(13.1777 3.26822e-05 0)
(13.1718 2.72327e-05 0)
(13.167 2.22048e-05 0)
(13.1631 1.75563e-05 0)
(13.16 1.3251e-05 0)
(13.1577 9.25578e-06 0)
(13.1562 5.54403e-06 0)
(13.1553 2.08621e-06 0)
(13.1551 -1.14527e-06 0)
(13.1554 -4.15656e-06 0)
(13.1563 -6.95011e-06 0)
(13.1577 -9.55421e-06 0)
(13.1596 -1.19808e-05 0)
(13.1619 -1.42466e-05 0)
(13.1647 -1.63577e-05 0)
(13.1678 -1.83238e-05 0)
(13.1713 -2.01507e-05 0)
(13.1751 -2.18451e-05 0)
(13.1793 -2.34111e-05 0)
(13.1837 -2.48502e-05 0)
(13.1884 -2.61642e-05 0)
(13.1933 -2.73524e-05 0)
(13.1984 -2.84178e-05 0)
(13.2037 -2.93578e-05 0)
(13.2092 -3.01681e-05 0)
(13.2149 -3.08555e-05 0)
(13.2206 -3.14283e-05 0)
(13.2265 -3.18951e-05 0)
(13.2325 -3.22877e-05 0)
(13.2385 -3.26131e-05 0)
(13.2446 -3.28986e-05 0)
(13.2508 -3.31752e-05 0)
(13.257 -3.34718e-05 0)
(13.2633 -3.37609e-05 0)
(13.2696 -3.40839e-05 0)
(13.276 -3.43586e-05 0)
(13.2824 -3.45631e-05 0)
(13.2887 -3.45341e-05 0)
(13.295 -3.42159e-05 0)
(13.3011 -3.34133e-05 0)
(13.307 -3.20912e-05 0)
(13.3125 -2.99975e-05 0)
(13.3174 -2.71439e-05 0)
(13.3218 -2.33643e-05 0)
(13.3253 -1.8674e-05 0)
(13.3279 -1.34492e-05 0)
(13.3297 -5.93312e-06 0)
(18.7449 0.0973745 0)
(17.3725 0.0156216 0)
(16.4743 0.00605636 0)
(15.9331 0.00350033 0)
(15.5795 0.00236975 0)
(15.3279 0.00174957 0)
(15.138 0.00136082 0)
(14.9886 0.00109591 0)
(14.8673 0.000904526 0)
(14.7668 0.000760049 0)
(14.6821 0.000647306 0)
(14.6098 0.000557034 0)
(14.5474 0.000483241 0)
(14.4932 0.000421882 0)
(14.4459 0.000370133 0)
(14.4043 0.000325958 0)
(14.3676 0.000287856 0)
(14.3353 0.000254694 0)
(14.3066 0.000225604 0)
(14.2812 0.000199906 0)
(14.2586 0.000177063 0)
(14.2387 0.000156645 0)
(14.221 0.000138304 0)
(14.2054 0.000121753 0)
(14.1917 0.000106756 0)
(14.1796 9.3118e-05 0)
(14.1691 8.06729e-05 0)
(14.16 6.92818e-05 0)
(14.1522 5.88265e-05 0)
(14.1456 4.92046e-05 0)
(14.14 4.033e-05 0)
(14.1355 3.21272e-05 0)
(14.1319 2.45321e-05 0)
(14.1291 1.74858e-05 0)
(14.1271 1.09406e-05 0)
(14.1259 4.84951e-06 0)
(14.1254 -8.38841e-07 0)
(14.1255 -6.14693e-06 0)
(14.1262 -1.10778e-05 0)
(14.1275 -1.56719e-05 0)
(14.1293 -1.99525e-05 0)
(14.1315 -2.39481e-05 0)
(14.1343 -2.76716e-05 0)
(14.1374 -3.11399e-05 0)
(14.141 -3.43638e-05 0)
(14.1449 -3.73546e-05 0)
(14.1491 -4.01204e-05 0)
(14.1537 -4.26648e-05 0)
(14.1585 -4.4991e-05 0)
(14.1637 -4.70993e-05 0)
(14.169 -4.89935e-05 0)
(14.1746 -5.06715e-05 0)
(14.1803 -5.21304e-05 0)
(14.1863 -5.33811e-05 0)
(14.1923 -5.44377e-05 0)
(14.1985 -5.53163e-05 0)
(14.2048 -5.60622e-05 0)
(14.2112 -5.66905e-05 0)
(14.2177 -5.72437e-05 0)
(14.2242 -5.77602e-05 0)
(14.2308 -5.82779e-05 0)
(14.2374 -5.8748e-05 0)
(14.2441 -5.92133e-05 0)
(14.2508 -5.95405e-05 0)
(14.2575 -5.96737e-05 0)
(14.2642 -5.9363e-05 0)
(14.2707 -5.85015e-05 0)
(14.277 -5.68007e-05 0)
(14.2831 -5.41897e-05 0)
(14.2887 -5.03226e-05 0)
(14.2938 -4.52141e-05 0)
(14.2983 -3.86601e-05 0)
(14.302 -3.06747e-05 0)
(14.3048 -2.19883e-05 0)
(14.3068 -9.47462e-06 0)
(19.3754 0.0462247 0)
(18.326 0.0150409 0)
(17.4307 0.00910101 0)
(16.8356 0.00564414 0)
(16.435 0.00383709 0)
(16.1491 0.00281757 0)
(15.9342 0.00217867 0)
(15.7661 0.00174595 0)
(15.6305 0.00143549 0)
(15.5186 0.00120258 0)
(15.4247 0.00102181 0)
(15.3447 0.000877711 0)
(15.276 0.000760364 0)
(15.2164 0.000663101 0)
(15.1644 0.00058129 0)
(15.1188 0.000511614 0)
(15.0786 0.000451637 0)
(15.0431 0.000399527 0)
(15.0117 0.000353883 0)
(14.9839 0.000313617 0)
(14.9592 0.000277866 0)
(14.9373 0.000245946 0)
(14.9179 0.000217298 0)
(14.9007 0.00019147 0)
(14.8856 0.000168085 0)
(14.8723 0.000146833 0)
(14.8607 0.000127453 0)
(14.8505 0.000109725 0)
(14.8418 9.34606e-05 0)
(14.8343 7.85004e-05 0)
(14.8281 6.47078e-05 0)
(14.8228 5.19644e-05 0)
(14.8186 4.01687e-05 0)
(14.8154 2.9229e-05 0)
(14.8129 1.90697e-05 0)
(14.8113 9.61954e-06 0)
(14.8104 8.00856e-07 0)
(14.8102 -7.4336e-06 0)
(14.8106 -1.50922e-05 0)
(14.8117 -2.22242e-05 0)
(14.8133 -2.88689e-05 0)
(14.8154 -3.50693e-05 0)
(14.818 -4.08483e-05 0)
(14.8211 -4.62317e-05 0)
(14.8246 -5.12378e-05 0)
(14.8284 -5.58837e-05 0)
(14.8327 -6.01829e-05 0)
(14.8373 -6.4142e-05 0)
(14.8422 -6.77668e-05 0)
(14.8473 -7.10591e-05 0)
(14.8528 -7.40244e-05 0)
(14.8584 -7.66617e-05 0)
(14.8643 -7.89696e-05 0)
(14.8704 -8.09642e-05 0)
(14.8766 -8.26654e-05 0)
(14.883 -8.40976e-05 0)
(14.8895 -8.53194e-05 0)
(14.896 -8.63543e-05 0)
(14.9027 -8.72576e-05 0)
(14.9095 -8.80748e-05 0)
(14.9163 -8.88484e-05 0)
(14.9231 -8.95083e-05 0)
(14.93 -9.00892e-05 0)
(14.9369 -9.04054e-05 0)
(14.9438 -9.03592e-05 0)
(14.9506 -8.96153e-05 0)
(14.9572 -8.80093e-05 0)
(14.9636 -8.51614e-05 0)
(14.9698 -8.09623e-05 0)
(14.9755 -7.49842e-05 0)
(14.9807 -6.72475e-05 0)
(14.9853 -5.75231e-05 0)
(14.9892 -4.58169e-05 0)
(14.9923 -3.32997e-05 0)
(14.9946 -1.43328e-05 0)
(19.693 0.0456702 0)
(18.9995 0.0202329 0)
(18.1918 0.0128969 0)
(17.577 0.00823931 0)
(17.1407 0.00564736 0)
(16.8239 0.00414117 0)
(16.5849 0.00318982 0)
(16.3982 0.00254609 0)
(16.2481 0.00208608 0)
(16.1247 0.00174263 0)
(16.0214 0.00147727 0)
(15.9337 0.00126663 0)
(15.8585 0.0010957 0)
(15.7934 0.000954472 0)
(15.7367 0.000836004 0)
(15.687 0.000735347 0)
(15.6433 0.00064888 0)
(15.6047 0.000573892 0)
(15.5705 0.000508315 0)
(15.5402 0.000450546 0)
(15.5133 0.000399323 0)
(15.4895 0.000353639 0)
(15.4683 0.000312682 0)
(15.4496 0.000275789 0)
(15.4331 0.000242416 0)
(15.4185 0.00021211 0)
(15.4057 0.000184492 0)
(15.3945 0.000159244 0)
(15.3848 0.000136094 0)
(15.3765 0.000114812 0)
(15.3694 9.52006e-05 0)
(15.3635 7.70883e-05 0)
(15.3587 6.03292e-05 0)
(15.3548 4.47919e-05 0)
(15.3518 3.03671e-05 0)
(15.3497 1.69531e-05 0)
(15.3484 4.44784e-06 0)
(15.3479 -7.23254e-06 0)
(15.348 -1.81108e-05 0)
(15.3487 -2.82381e-05 0)
(15.3501 -3.76725e-05 0)
(15.352 -4.6474e-05 0)
(15.3544 -5.46778e-05 0)
(15.3573 -6.23211e-05 0)
(15.3606 -6.94311e-05 0)
(15.3644 -7.60328e-05 0)
(15.3685 -8.21457e-05 0)
(15.3731 -8.77809e-05 0)
(15.3779 -9.29477e-05 0)
(15.3831 -9.76504e-05 0)
(15.3885 -0.000101897 0)
(15.3942 -0.000105688 0)
(15.4001 -0.000109024 0)
(15.4062 -0.000111925 0)
(15.4125 -0.000114418 0)
(15.419 -0.000116534 0)
(15.4256 -0.000118344 0)
(15.4323 -0.000119877 0)
(15.4391 -0.000121198 0)
(15.446 -0.000122359 0)
(15.4529 -0.000123403 0)
(15.4599 -0.000124238 0)
(15.4669 -0.000124888 0)
(15.4739 -0.000125119 0)
(15.4808 -0.00012479 0)
(15.4877 -0.000123491 0)
(15.4944 -0.000121004 0)
(15.5009 -0.00011687 0)
(15.5071 -0.000110947 0)
(15.5129 -0.000102742 0)
(15.5183 -9.22861e-05 0)
(15.523 -7.93391e-05 0)
(15.5272 -6.38892e-05 0)
(15.5305 -4.75775e-05 0)
(15.5332 -2.06925e-05 0)
(19.8488 0.0504549 0)
(19.4507 0.0244881 0)
(18.7997 0.016652 0)
(18.2081 0.0111579 0)
(17.7532 0.007791 0)
(17.4116 0.00573675 0)
(17.1505 0.00441439 0)
(16.9458 0.00351467 0)
(16.7812 0.00287186 0)
(16.6461 0.00239313 0)
(16.5332 0.00202448 0)
(16.4376 0.00173281 0)
(16.3557 0.00149689 0)
(16.2849 0.00130252 0)
(16.2233 0.00113989 0)
(16.1694 0.00100204 0)
(16.122 0.00088386 0)
(16.0802 0.000781559 0)
(16.0431 0.000692244 0)
(16.0103 0.000613679 0)
(15.9812 0.000544108 0)
(15.9553 0.000482135 0)
(15.9323 0.000426635 0)
(15.9119 0.000376692 0)
(15.8939 0.000331553 0)
(15.8779 0.000290597 0)
(15.8639 0.000253302 0)
(15.8516 0.000219229 0)
(15.8409 0.000188009 0)
(15.8317 0.000159323 0)
(15.8238 0.000132902 0)
(15.8171 0.000108512 0)
(15.8115 8.59537e-05 0)
(15.807 6.50482e-05 0)
(15.8035 4.56456e-05 0)
(15.8009 2.76083e-05 0)
(15.7991 1.08078e-05 0)
(15.7981 -4.88339e-06 0)
(15.7978 -1.95137e-05 0)
(15.7982 -3.31353e-05 0)
(15.7992 -4.58237e-05 0)
(15.8008 -5.76586e-05 0)
(15.803 -6.86903e-05 0)
(15.8057 -7.89697e-05 0)
(15.8088 -8.85349e-05 0)
(15.8124 -9.74204e-05 0)
(15.8164 -0.000105653 0)
(15.8208 -0.000113251 0)
(15.8256 -0.000120227 0)
(15.8307 -0.000126589 0)
(15.836 -0.000132348 0)
(15.8417 -0.000137507 0)
(15.8476 -0.000142069 0)
(15.8537 -0.000146059 0)
(15.86 -0.000149508 0)
(15.8665 -0.000152454 0)
(15.8731 -0.000154976 0)
(15.8799 -0.00015711 0)
(15.8867 -0.000158926 0)
(15.8937 -0.00016048 0)
(15.9007 -0.000161814 0)
(15.9077 -0.000162816 0)
(15.9148 -0.000163496 0)
(15.9219 -0.000163576 0)
(15.9289 -0.000162881 0)
(15.9358 -0.000160931 0)
(15.9425 -0.000157462 0)
(15.9491 -0.000151951 0)
(15.9553 -0.000144233 0)
(15.9612 -0.00013376 0)
(15.9667 -0.000120584 0)
(15.9717 -0.000104459 0)
(15.976 -8.53467e-05 0)
(15.9798 -6.53665e-05 0)
(15.9829 -2.88497e-05 0)
(19.929 0.0521809 0)
(19.7286 0.0270124 0)
(19.2674 0.0200258 0)
(18.7457 0.0142434 0)
(18.2961 0.0102331 0)
(17.9397 0.00761459 0)
(17.6607 0.00587475 0)
(17.4395 0.00467512 0)
(17.2609 0.0038141 0)
(17.114 0.00317259 0)
(16.9914 0.00267928 0)
(16.8876 0.00228985 0)
(16.7988 0.00197561 0)
(16.7221 0.00171734 0)
(16.6554 0.00150174 0)
(16.597 0.00131938 0)
(16.5458 0.00116334 0)
(16.5005 0.00102851 0)
(16.4605 0.000910982 0)
(16.4249 0.000807752 0)
(16.3934 0.000716463 0)
(16.3654 0.000635242 0)
(16.3405 0.000562585 0)
(16.3183 0.000497269 0)
(16.2987 0.000438292 0)
(16.2813 0.000384824 0)
(16.266 0.000336173 0)
(16.2525 0.000291759 0)
(16.2407 0.000251088 0)
(16.2305 0.000213742 0)
(16.2216 0.000179364 0)
(16.2141 0.000147644 0)
(16.2078 0.000118319 0)
(16.2026 9.11531e-05 0)
(16.1984 6.59492e-05 0)
(16.1952 4.25267e-05 0)
(16.1929 2.07254e-05 0)
(16.1914 3.73623e-07 0)
(16.1906 -1.86175e-05 0)
(16.1906 -3.63091e-05 0)
(16.1913 -5.27868e-05 0)
(16.1925 -6.81538e-05 0)
(16.1944 -8.24785e-05 0)
(16.1968 -9.58278e-05 0)
(16.1997 -0.000108253 0)
(16.2031 -0.000119801 0)
(16.2069 -0.000130508 0)
(16.2111 -0.000140397 0)
(16.2157 -0.00014949 0)
(16.2207 -0.000157799 0)
(16.226 -0.000165339 0)
(16.2315 -0.000172115 0)
(16.2373 -0.000178133 0)
(16.2434 -0.000183422 0)
(16.2497 -0.000188018 0)
(16.2561 -0.000191962 0)
(16.2628 -0.000195344 0)
(16.2695 -0.0001982 0)
(16.2764 -0.000200606 0)
(16.2834 -0.000202619 0)
(16.2904 -0.000204278 0)
(16.2975 -0.000205453 0)
(16.3046 -0.000206143 0)
(16.3116 -0.000206028 0)
(16.3186 -0.000204905 0)
(16.3256 -0.000202236 0)
(16.3324 -0.00019772 0)
(16.3389 -0.000190778 0)
(16.3453 -0.000181232 0)
(16.3513 -0.000168493 0)
(16.3569 -0.000152634 0)
(16.362 -0.000133411 0)
(16.3667 -0.000110747 0)
(16.3707 -8.72371e-05 0)
(16.3743 -3.90948e-05 0)
(19.9739 0.052718 0)
(19.8889 0.0285834 0)
(19.6025 0.0227995 0)
(19.1903 0.0172661 0)
(18.776 0.0128803 0)
(18.4202 0.00975677 0)
(18.1302 0.00758162 0)
(17.8955 0.00604682 0)
(17.7042 0.0049334 0)
(17.546 0.00410026 0)
(17.4137 0.00345889 0)
(17.3016 0.00295286 0)
(17.2056 0.00254508 0)
(17.1228 0.00221049 0)
(17.0508 0.0019317 0)
(16.9878 0.00169629 0)
(16.9324 0.00149522 0)
(16.8836 0.00132175 0)
(16.8404 0.00117077 0)
(16.802 0.00103835 0)
(16.7679 0.000921395 0)
(16.7376 0.000817464 0)
(16.7106 0.000724593 0)
(16.6866 0.000641192 0)
(16.6653 0.000565953 0)
(16.6463 0.000497803 0)
(16.6296 0.000435842 0)
(16.6148 0.000379318 0)
(16.6019 0.000327593 0)
(16.5905 0.000280126 0)
(16.5807 0.000236456 0)
(16.5723 0.000196183 0)
(16.5651 0.000158968 0)
(16.5592 0.000124509 0)
(16.5543 9.25501e-05 0)
(16.5504 6.28601e-05 0)
(16.5475 3.52389e-05 0)
(16.5454 9.47572e-06 0)
(16.5442 -1.45755e-05 0)
(16.5437 -3.70006e-05 0)
(16.5439 -5.78862e-05 0)
(16.5448 -7.73619e-05 0)
(16.5463 -9.5517e-05 0)
(16.5483 -0.000112438 0)
(16.5509 -0.000128192 0)
(16.554 -0.000142839 0)
(16.5576 -0.000156428 0)
(16.5616 -0.000168992 0)
(16.566 -0.000180559 0)
(16.5708 -0.000191147 0)
(16.5759 -0.000200777 0)
(16.5813 -0.000209458 0)
(16.587 -0.000217197 0)
(16.593 -0.00022403 0)
(16.5992 -0.000229995 0)
(16.6056 -0.000235137 0)
(16.6122 -0.000239551 0)
(16.6189 -0.000243275 0)
(16.6257 -0.000246388 0)
(16.6327 -0.000248947 0)
(16.6397 -0.000250988 0)
(16.6468 -0.000252363 0)
(16.6538 -0.000253063 0)
(16.6609 -0.000252734 0)
(16.6679 -0.00025115 0)
(16.6748 -0.000247723 0)
(16.6816 -0.000242126 0)
(16.6882 -0.000233735 0)
(16.6946 -0.000222365 0)
(16.7007 -0.000207395 0)
(16.7064 -0.000188922 0)
(16.7118 -0.000166707 0)
(16.7167 -0.000140619 0)
(16.7211 -0.00011372 0)
(16.725 -5.16953e-05 0)
(20.0011 0.0528694 0)
(19.9807 0.0295175 0)
(19.8226 0.0248232 0)
(19.5371 0.019951 0)
(19.1896 0.0155661 0)
(18.8549 0.0120995 0)
(18.5647 0.00952307 0)
(18.3221 0.00763897 0)
(18.1205 0.00624631 0)
(17.9523 0.0051943 0)
(17.8107 0.00438085 0)
(17.6905 0.00373795 0)
(17.5873 0.00321978 0)
(17.4983 0.00279489 0)
(17.4207 0.00244122 0)
(17.3529 0.00214297 0)
(17.2933 0.00188857 0)
(17.2407 0.00166939 0)
(17.194 0.00147888 0)
(17.1527 0.00131199 0)
(17.1159 0.00116477 0)
(17.0831 0.00103409 0)
(17.0539 0.000917445 0)
(17.0279 0.000812793 0)
(17.0047 0.000718471 0)
(16.9842 0.000633109 0)
(16.9659 0.00055556 0)
(16.9497 0.000484867 0)
(16.9355 0.000420222 0)
(16.923 0.000360935 0)
(16.9121 0.000306422 0)
(16.9027 0.000256177 0)
(16.8946 0.000209769 0)
(16.8878 0.000166817 0)
(16.8821 0.000126996 0)
(16.8775 9.00165e-05 0)
(16.8739 5.56268e-05 0)
(16.8712 2.35788e-05 0)
(16.8694 -6.3396e-06 0)
(16.8684 -3.42597e-05 0)
(16.8681 -6.02689e-05 0)
(16.8685 -8.45203e-05 0)
(16.8696 -0.000107128 0)
(16.8713 -0.000128201 0)
(16.8735 -0.000147825 0)
(16.8763 -0.000166078 0)
(16.8796 -0.000183022 0)
(16.8833 -0.000198703 0)
(16.8875 -0.000213156 0)
(16.892 -0.000226409 0)
(16.8969 -0.000238488 0)
(16.9022 -0.000249407 0)
(16.9077 -0.000259178 0)
(16.9135 -0.000267839 0)
(16.9196 -0.000275431 0)
(16.9259 -0.000282003 0)
(16.9324 -0.000287653 0)
(16.939 -0.00029242 0)
(16.9458 -0.000296384 0)
(16.9527 -0.000299601 0)
(16.9597 -0.000302105 0)
(16.9667 -0.000303733 0)
(16.9737 -0.000304469 0)
(16.9808 -0.000303933 0)
(16.9877 -0.000301881 0)
(16.9947 -0.000297689 0)
(17.0014 -0.000291009 0)
(17.0081 -0.000281184 0)
(17.0145 -0.000268027 0)
(17.0206 -0.000250894 0)
(17.0265 -0.000229906 0)
(17.032 -0.000204828 0)
(17.0371 -0.000175459 0)
(17.0418 -0.000145312 0)
(17.0462 -6.69021e-05 0)
(20.0187 0.0527445 0)
(20.0354 0.0299682 0)
(19.9582 0.026127 0)
(19.7862 0.0220655 0)
(19.5283 0.0180611 0)
(19.2388 0.0145161 0)
(18.9637 0.0116492 0)
(18.7216 0.00944108 0)
(18.5144 0.00775985 0)
(18.3385 0.00646875 0)
(18.189 0.00546134 0)
(18.0611 0.00466132 0)
(17.951 0.00401502 0)
(17.8557 0.00348461 0)
(17.7726 0.00304311 0)
(17.6999 0.00267097 0)
(17.6358 0.00235379 0)
(17.5792 0.00208078 0)
(17.5291 0.00184373 0)
(17.4845 0.00163628 0)
(17.4448 0.00145347 0)
(17.4094 0.00129135 0)
(17.3779 0.00114679 0)
(17.3497 0.0010172 0)
(17.3246 0.000900514 0)
(17.3023 0.000794993 0)
(17.2824 0.000699205 0)
(17.2647 0.000611948 0)
(17.2491 0.000532209 0)
(17.2353 0.000459125 0)
(17.2232 0.000391964 0)
(17.2127 0.000330095 0)
(17.2036 0.000272979 0)
(17.1959 0.000220139 0)
(17.1894 0.000171171 0)
(17.184 0.000125714 0)
(17.1796 8.34553e-05 0)
(17.1762 4.41014e-05 0)
(17.1738 7.38126e-06 0)
(17.1722 -2.69072e-05 0)
(17.1713 -5.88709e-05 0)
(17.1713 -8.86716e-05 0)
(17.1719 -0.000116453 0)
(17.1731 -0.000142351 0)
(17.1749 -0.000166475 0)
(17.1773 -0.000188921 0)
(17.1803 -0.00020977 0)
(17.1837 -0.00022908 0)
(17.1875 -0.000246899 0)
(17.1918 -0.000263264 0)
(17.1965 -0.000278209 0)
(17.2015 -0.000291755 0)
(17.2068 -0.000303916 0)
(17.2125 -0.000314735 0)
(17.2184 -0.000324256 0)
(17.2245 -0.000332531 0)
(17.2308 -0.000339659 0)
(17.2374 -0.000345678 0)
(17.244 -0.000350669 0)
(17.2508 -0.000354686 0)
(17.2577 -0.000357763 0)
(17.2646 -0.000359722 0)
(17.2716 -0.000360548 0)
(17.2786 -0.000359839 0)
(17.2855 -0.000357344 0)
(17.2924 -0.000352408 0)
(17.2991 -0.000344674 0)
(17.3058 -0.000333462 0)
(17.3122 -0.00031859 0)
(17.3184 -0.000299393 0)
(17.3244 -0.000276017 0)
(17.3301 -0.00024823 0)
(17.3354 -0.000215741 0)
(17.3403 -0.000182495 0)
(17.345 -8.49592e-05 0)
(20.0306 0.0523702 0)
(20.0698 0.03007 0)
(20.0406 0.0268629 0)
(19.9512 0.0235191 0)
(19.7855 0.0201272 0)
(19.5621 0.0168135 0)
(19.3211 0.0138542 0)
(19.0917 0.0114083 0)
(18.8862 0.0094621 0)
(18.7068 0.00792766 0)
(18.5516 0.00671164 0)
(18.4174 0.00573709 0)
(18.3011 0.00494558 0)
(18.1999 0.00429407 0)
(18.1114 0.00375094 0)
(18.0336 0.00329287 0)
(17.9651 0.00290244 0)
(17.9044 0.00256648 0)
(17.8506 0.00227493 0)
(17.8027 0.00201996 0)
(17.76 0.00179543 0)
(17.7219 0.00159649 0)
(17.6879 0.00141922 0)
(17.6574 0.00126045 0)
(17.6302 0.00111758 0)
(17.6059 0.000988481 0)
(17.5843 0.000871372 0)
(17.565 0.000764766 0)
(17.5479 0.000667406 0)
(17.5327 0.000578225 0)
(17.5194 0.000496317 0)
(17.5077 0.000420904 0)
(17.4975 0.000351315 0)
(17.4887 0.000286966 0)
(17.4813 0.000227356 0)
(17.475 0.00017204 0)
(17.4698 0.000120634 0)
(17.4657 7.27839e-05 0)
(17.4625 2.81724e-05 0)
(17.4603 -1.34927e-05 0)
(17.4588 -5.23699e-05 0)
(17.4581 -8.86194e-05 0)
(17.4582 -0.000122414 0)
(17.459 -0.00015392 0)
(17.4603 -0.000183274 0)
(17.4623 -0.000210597 0)
(17.4648 -0.000235988 0)
(17.4679 -0.000259523 0)
(17.4714 -0.000281265 0)
(17.4753 -0.000301263 0)
(17.4797 -0.000319559 0)
(17.4844 -0.000336182 0)
(17.4895 -0.000351151 0)
(17.4949 -0.000364515 0)
(17.5006 -0.000376319 0)
(17.5065 -0.000386615 0)
(17.5127 -0.000395507 0)
(17.5191 -0.000403027 0)
(17.5256 -0.000409258 0)
(17.5322 -0.000414252 0)
(17.539 -0.000418043 0)
(17.5458 -0.000420444 0)
(17.5527 -0.000421443 0)
(17.5596 -0.000420624 0)
(17.5664 -0.000417738 0)
(17.5732 -0.000412112 0)
(17.5799 -0.000403387 0)
(17.5865 -0.000390867 0)
(17.593 -0.000374385 0)
(17.5992 -0.000353257 0)
(17.6052 -0.000327654 0)
(17.611 -0.000297342 0)
(17.6165 -0.000261921 0)
(17.6217 -0.000225736 0)
(17.6266 -0.000106106 0)
(20.039 0.0517789 0)
(20.0926 0.0299213 0)
(20.092 0.027188 0)
(20.0552 0.0243789 0)
(19.9649 0.0216134 0)
(19.8158 0.0187666 0)
(19.6268 0.0159671 0)
(19.4257 0.0134437 0)
(19.2323 0.0113079 0)
(19.0559 0.00955549 0)
(18.899 0.0081319 0)
(18.761 0.00697327 0)
(18.6398 0.00602317 0)
(18.5336 0.00523641 0)
(18.4401 0.0045781 0)
(18.3576 0.00402166 0)
(18.2847 0.0035468 0)
(18.22 0.00313796 0)
(18.1624 0.00278311 0)
(18.1111 0.00247283 0)
(18.0653 0.00219969 0)
(18.0243 0.00195779 0)
(17.9877 0.00174234 0)
(17.9548 0.00154949 0)
(17.9254 0.00137606 0)
(17.8991 0.00121944 0)
(17.8755 0.00107746 0)
(17.8545 0.000948275 0)
(17.8358 0.000830366 0)
(17.8192 0.000722421 0)
(17.8044 0.000623331 0)
(17.7915 0.000532141 0)
(17.7801 0.000448032 0)
(17.7702 0.000370289 0)
(17.7617 0.0002983 0)
(17.7545 0.000231519 0)
(17.7484 0.000169479 0)
(17.7435 0.000111753 0)
(17.7395 5.79703e-05 0)
(17.7365 7.75801e-06 0)
(17.7344 -3.91316e-05 0)
(17.733 -8.28762e-05 0)
(17.7325 -0.000123658 0)
(17.7327 -0.000161682 0)
(17.7335 -0.000197117 0)
(17.735 -0.000230111 0)
(17.7371 -0.000260788 0)
(17.7397 -0.000289242 0)
(17.7428 -0.000315556 0)
(17.7464 -0.000339791 0)
(17.7504 -0.000362003 0)
(17.7548 -0.000382228 0)
(17.7596 -0.000400494 0)
(17.7647 -0.000416851 0)
(17.7701 -0.00043135 0)
(17.7759 -0.000444043 0)
(17.7818 -0.000455032 0)
(17.7879 -0.00046435 0)
(17.7943 -0.000472077 0)
(17.8008 -0.000478263 0)
(17.8073 -0.000482947 0)
(17.814 -0.000485933 0)
(17.8207 -0.000487221 0)
(17.8275 -0.000486389 0)
(17.8342 -0.000483197 0)
(17.8409 -0.000476966 0)
(17.8475 -0.000467345 0)
(17.8541 -0.000453634 0)
(17.8605 -0.000435683 0)
(17.8667 -0.000412797 0)
(17.8728 -0.000385167 0)
(17.8787 -0.000352551 0)
(17.8843 -0.000314418 0)
(17.8897 -0.00027548 0)
(17.8949 -0.000130574 0)
(20.0449 0.0509937 0)
(20.1082 0.029581 0)
(20.1254 0.0272183 0)
(20.1206 0.0247808 0)
(20.0821 0.0225188 0)
(19.9986 0.0202042 0)
(19.8707 0.0177773 0)
(19.7131 0.0153876 0)
(19.5451 0.0132012 0)
(19.3812 0.0113027 0)
(19.2289 0.00970101 0)
(19.0909 0.00836499 0)
(18.9675 0.00725183 0)
(18.8578 0.00632036 0)
(18.7603 0.00553561 0)
(18.6738 0.00486927 0)
(18.5968 0.00429896 0)
(18.5283 0.00380701 0)
(18.4671 0.00337952 0)
(18.4124 0.00300549 0)
(18.3634 0.00267615 0)
(18.3195 0.00238445 0)
(18.2801 0.0021247 0)
(18.2448 0.00189225 0)
(18.2131 0.00168328 0)
(18.1846 0.00149464 0)
(18.1591 0.0013237 0)
(18.1362 0.00116824 0)
(18.1158 0.00102641 0)
(18.0975 0.000896627 0)
(18.0813 0.00077754 0)
(18.067 0.000667993 0)
(18.0543 0.000566994 0)
(18.0433 0.000473674 0)
(18.0336 0.000387289 0)
(18.0254 0.000307182 0)
(18.0183 0.000232783 0)
(18.0124 0.000163579 0)
(18.0076 9.91331e-05 0)
(18.0038 3.90088e-05 0)
(18.0009 -1.71571e-05 0)
(17.9989 -6.96043e-05 0)
(17.9977 -0.000118507 0)
(17.9972 -0.000164109 0)
(17.9975 -0.000206614 0)
(17.9984 -0.000246203 0)
(18 -0.000283029 0)
(18.0021 -0.000317211 0)
(18.0047 -0.00034885 0)
(18.0079 -0.000378027 0)
(18.0115 -0.000404811 0)
(18.0155 -0.000429251 0)
(18.02 -0.000451379 0)
(18.0248 -0.000471255 0)
(18.0299 -0.000488929 0)
(18.0353 -0.000504456 0)
(18.041 -0.000517938 0)
(18.0469 -0.000529403 0)
(18.053 -0.00053893 0)
(18.0592 -0.00054657 0)
(18.0656 -0.000552366 0)
(18.0721 -0.000556121 0)
(18.0786 -0.000557849 0)
(18.0852 -0.000557133 0)
(18.0918 -0.000553754 0)
(18.0984 -0.000547037 0)
(18.1049 -0.000536652 0)
(18.1113 -0.000521903 0)
(18.1176 -0.000502665 0)
(18.1238 -0.000478234 0)
(18.1299 -0.000448821 0)
(18.1358 -0.00041417 0)
(18.1416 -0.00037359 0)
(18.1471 -0.000332117 0)
(18.1524 -0.00015857 0)
(20.0492 0.0500256 0)
(20.1193 0.0290806 0)
(20.1481 0.0270286 0)
(20.1628 0.0248477 0)
(20.1569 0.0229464 0)
(20.1211 0.0210868 0)
(20.0495 0.0191112 0)
(19.9437 0.0170398 0)
(19.8141 0.0149855 0)
(19.6744 0.0130688 0)
(19.5354 0.0113618 0)
(19.4037 0.00988347 0)
(19.2821 0.00862018 0)
(19.1717 0.0075449 0)
(19.0721 0.00662841 0)
(18.9827 0.00584401 0)
(18.9025 0.00516892 0)
(18.8306 0.00458437 0)
(18.7661 0.00407509 0)
(18.7082 0.00362869 0)
(18.6562 0.00323516 0)
(18.6094 0.00288635 0)
(18.5673 0.0025756 0)
(18.5295 0.00229746 0)
(18.4954 0.00204741 0)
(18.4647 0.0018217 0)
(18.4371 0.00161719 0)
(18.4123 0.00143126 0)
(18.39 0.00126167 0)
(18.3701 0.00110653 0)
(18.3524 0.000964225 0)
(18.3365 0.000833358 0)
(18.3225 0.000712739 0)
(18.3102 0.000601326 0)
(18.2993 0.000498222 0)
(18.2899 0.000402635 0)
(18.2818 0.000313884 0)
(18.2749 0.00023135 0)
(18.2692 0.000154513 0)
(18.2645 8.2875e-05 0)
(18.2608 1.59713e-05 0)
(18.2579 -4.65532e-05 0)
(18.256 -0.000104894 0)
(18.2549 -0.000159302 0)
(18.2545 -0.000210025 0)
(18.2548 -0.000257284 0)
(18.2557 -0.000301264 0)
(18.2573 -0.000342111 0)
(18.2595 -0.000379953 0)
(18.2621 -0.000414892 0)
(18.2653 -0.000447011 0)
(18.2689 -0.000476376 0)
(18.2729 -0.000503027 0)
(18.2773 -0.000527031 0)
(18.2821 -0.000548441 0)
(18.2872 -0.000567314 0)
(18.2925 -0.000583749 0)
(18.2981 -0.000597773 0)
(18.3039 -0.000609463 0)
(18.3099 -0.00061887 0)
(18.3161 -0.000626045 0)
(18.3223 -0.000630794 0)
(18.3286 -0.000633156 0)
(18.335 -0.000632723 0)
(18.3413 -0.000629311 0)
(18.3477 -0.000622264 0)
(18.3541 -0.000611283 0)
(18.3604 -0.000595688 0)
(18.3666 -0.000575385 0)
(18.3727 -0.000549669 0)
(18.3787 -0.000518764 0)
(18.3847 -0.000482397 0)
(18.3905 -0.000439693 0)
(18.3961 -0.000395945 0)
(18.4015 -0.000190259 0)
(20.0522 0.0488783 0)
(20.1272 0.0284366 0)
(20.164 0.0266625 0)
(20.1912 0.0246654 0)
(20.2052 0.0230151 0)
(20.2004 0.0214911 0)
(20.1713 0.0199148 0)
(20.1139 0.0182338 0)
(20.0293 0.0164681 0)
(19.9247 0.0146947 0)
(19.8096 0.0130044 0)
(19.6925 0.0114605 0)
(19.579 0.0100893 0)
(19.4722 0.00889024 0)
(19.3736 0.00784889 0)
(19.2834 0.00694579 0)
(19.2015 0.00616125 0)
(19.1273 0.00547736 0)
(19.0602 0.00487863 0)
(18.9996 0.004352 0)
(18.9448 0.00388656 0)
(18.8953 0.00347327 0)
(18.8507 0.0031046 0)
(18.8103 0.00277431 0)
(18.7739 0.0024772 0)
(18.7409 0.00220891 0)
(18.7112 0.00196577 0)
(18.6845 0.00174469 0)
(18.6604 0.00154305 0)
(18.6387 0.0013586 0)
(18.6193 0.00118942 0)
(18.6019 0.00103387 0)
(18.5865 0.000890521 0)
(18.5727 0.000758139 0)
(18.5606 0.000635653 0)
(18.55 0.000522119 0)
(18.5407 0.000416722 0)
(18.5328 0.000318727 0)
(18.526 0.000227513 0)
(18.5204 0.0001425 0)
(18.5157 6.31586e-05 0)
(18.5121 -1.10121e-05 0)
(18.5093 -8.02986e-05 0)
(18.5074 -0.000144937 0)
(18.5063 -0.000205209 0)
(18.5059 -0.000261382 0)
(18.5062 -0.000313681 0)
(18.5072 -0.000362282 0)
(18.5088 -0.000407344 0)
(18.5109 -0.000448993 0)
(18.5135 -0.000487335 0)
(18.5167 -0.000522449 0)
(18.5202 -0.000554388 0)
(18.5242 -0.000583228 0)
(18.5285 -0.000609026 0)
(18.5332 -0.00063184 0)
(18.5382 -0.000651768 0)
(18.5434 -0.000668833 0)
(18.5489 -0.000683112 0)
(18.5546 -0.000694659 0)
(18.5604 -0.000703535 0)
(18.5664 -0.000709554 0)
(18.5724 -0.000712786 0)
(18.5785 -0.000712846 0)
(18.5846 -0.000709595 0)
(18.5908 -0.000702409 0)
(18.5969 -0.000691038 0)
(18.603 -0.000674826 0)
(18.6091 -0.000653723 0)
(18.6151 -0.000627025 0)
(18.621 -0.000594973 0)
(18.6269 -0.000557264 0)
(18.6327 -0.000512818 0)
(18.6383 -0.000467106 0)
(18.6438 -0.000225727 0)
(20.0542 0.0475508 0)
(20.1328 0.0276568 0)
(20.1754 0.0261432 0)
(20.2109 0.0242867 0)
(20.2375 0.0228152 0)
(20.252 0.0215276 0)
(20.2508 0.02025 0)
(20.2303 0.0189168 0)
(20.1875 0.0174951 0)
(20.1228 0.0159937 0)
(20.0406 0.014464 0)
(19.9476 0.0129732 0)
(19.8502 0.0115763 0)
(19.7535 0.0103042 0)
(19.6605 0.00916629 0)
(19.573 0.00815829 0)
(19.4918 0.00726913 0)
(19.417 0.00648537 0)
(19.3486 0.00579358 0)
(19.2862 0.00518137 0)
(19.2294 0.00463784 0)
(19.1777 0.00415353 0)
(19.1308 0.00372041 0)
(19.0882 0.00333163 0)
(19.0496 0.0029814 0)
(19.0145 0.0026648 0)
(18.9828 0.00237765 0)
(18.954 0.0021164 0)
(18.928 0.00187803 0)
(18.9046 0.00165991 0)
(18.8835 0.00145983 0)
(18.8645 0.00127584 0)
(18.8476 0.00110628 0)
(18.8324 0.000949691 0)
(18.8189 0.000804812 0)
(18.807 0.000670529 0)
(18.7966 0.000545878 0)
(18.7875 0.000429989 0)
(18.7796 0.000322128 0)
(18.7729 0.000221617 0)
(18.7673 0.000127854 0)
(18.7627 4.02326e-05 0)
(18.7591 -4.16927e-05 0)
(18.7564 -0.000118198 0)
(18.7545 -0.000189554 0)
(18.7533 -0.000256078 0)
(18.753 -0.000318038 0)
(18.7532 -0.000375652 0)
(18.7542 -0.000429109 0)
(18.7557 -0.000478568 0)
(18.7577 -0.000524155 0)
(18.7603 -0.000565972 0)
(18.7634 -0.000604086 0)
(18.7668 -0.000638581 0)
(18.7707 -0.000669521 0)
(18.7749 -0.000696966 0)
(18.7795 -0.000721013 0)
(18.7843 -0.000741683 0)
(18.7894 -0.000759053 0)
(18.7947 -0.000773179 0)
(18.8002 -0.000784139 0)
(18.8058 -0.00079176 0)
(18.8115 -0.000796149 0)
(18.8173 -0.000796956 0)
(18.8231 -0.000794101 0)
(18.829 -0.000787006 0)
(18.8348 -0.000775486 0)
(18.8407 -0.000758923 0)
(18.8465 -0.000737323 0)
(18.8524 -0.000709989 0)
(18.8581 -0.000677182 0)
(18.8639 -0.000638562 0)
(18.8696 -0.00059282 0)
(18.8752 -0.000545509 0)
(18.8807 -0.000264948 0)
(20.0555 0.046039 0)
(20.1367 0.0267443 0)
(20.1836 0.0254815 0)
(20.2248 0.023741 0)
(20.2598 0.0224039 0)
(20.2863 0.0212858 0)
(20.3028 0.0202192 0)
(20.3068 0.019147 0)
(20.2955 0.0180268 0)
(20.2667 0.0168313 0)
(20.2202 0.0155621 0)
(20.1584 0.0142502 0)
(20.0856 0.0129428 0)
(20.0066 0.0116859 0)
(19.9257 0.0105116 0)
(19.846 0.00943649 0)
(19.7693 0.0084647 0)
(19.697 0.00759249 0)
(19.6294 0.00681222 0)
(19.5668 0.00611472 0)
(19.5091 0.00549069 0)
(19.4562 0.00493141 0)
(19.4076 0.00442896 0)
(19.3633 0.00397637 0)
(19.3228 0.00356754 0)