/*--------------------------------*- C++ -*----------------------------------*\
  =========                 |
  \\      /  F ield         | OpenFOAM: The Open Source CFD Toolbox
   \\    /   O peration     | Website:  https://openfoam.org
    \\  /    A nd           | Version:  7
     \\/     M anipulation  |
\*---------------------------------------------------------------------------*/
FoamFile
{
    version     2.0;
    format      ascii;
    class       surfaceScalarField;
    location    "2.1";
    object      phi;
}
// * * * * * * * * * * * * * * * * * * * * * * * * * * * * * * * * * * * * * //

dimensions      [0 3 -1 0 0 0 0];

internalField   nonuniform List<scalar> 
1740
(
3.44538e-07
-3.44548e-07
-2.28104e-07
5.72647e-07
-1.84665e-06
1.61855e-06
-4.32242e-06
2.47577e-06
-7.39491e-06
3.07249e-06
-1.08243e-05
3.42937e-06
-1.44147e-05
3.59046e-06
-1.80128e-05
3.59809e-06
-2.14968e-05
3.484e-06
-2.47651e-05
3.26824e-06
-2.7726e-05
2.96097e-06
-3.02914e-05
2.56536e-06
-3.23724e-05
2.08103e-06
-3.38799e-05
1.50752e-06
-3.47277e-05
8.47785e-07
-3.4839e-05
1.11314e-07
-3.41551e-05
-6.83966e-07
-3.26468e-05
-1.50828e-06
-3.03256e-05
-2.32122e-06
-2.72532e-05
-3.07239e-06
-2.35486e-05
-3.70461e-06
-1.93896e-05
-4.15896e-06
-1.50084e-05
-4.38122e-06
-1.06797e-05
-4.3287e-06
-6.70306e-06
-3.97664e-06
-3.37896e-06
-3.32411e-06
-9.76005e-07
-2.40296e-06
3.22648e-07
-1.29866e-06
5.20788e-07
-1.98143e-07
5.20784e-07
-5.6358e-07
2.19038e-07
-3.18233e-06
3.1914e-06
-7.96842e-06
6.40463e-06
-1.45513e-05
9.05868e-06
-2.24511e-05
1.09723e-05
-3.11817e-05
1.216e-05
-4.03052e-05
1.27139e-05
-4.94474e-05
1.27403e-05
-5.82921e-05
1.23287e-05
-6.65657e-05
1.15417e-05
-7.40211e-05
1.04164e-05
-8.04263e-05
8.97061e-06
-8.55577e-05
7.21238e-06
-8.92005e-05
5.15031e-06
-9.11567e-05
2.80401e-06
-9.12602e-05
2.14876e-07
-8.93928e-05
-2.55141e-06
-8.5511e-05
-5.39005e-06
-7.96668e-05
-8.16537e-06
-7.20275e-05
-1.07117e-05
-6.2888e-05
-1.28441e-05
-5.26721e-05
-1.43749e-05
-4.19191e-05
-1.51342e-05
-3.12551e-05
-1.49927e-05
-2.13474e-05
-1.38843e-05
-1.28435e-05
-1.1828e-05
-6.29211e-06
-8.95436e-06
-2.04671e-06
-5.54406e-06
-1.49053e-07
-2.09581e-06
3.71732e-07
-1.6683e-06
1.88733e-06
-6.61087e-06
8.13398e-06
-1.44849e-05
1.42786e-05
-2.47449e-05
1.93187e-05
-3.67484e-05
2.29757e-05
-4.98511e-05
2.52627e-05
-6.34593e-05
2.6322e-05
-7.70486e-05
2.63297e-05
-9.01622e-05
2.54423e-05
-0.000102396
2.37758e-05
-0.000113384
2.14043e-05
-0.000122783
1.83698e-05
-0.000130268
1.46975e-05
-0.000135533
1.0415e-05
-0.000138301
5.57176e-06
-0.000138346
2.59585e-07
-0.000135511
-5.38557e-06
-0.000129751
-1.115e-05
-0.000121152
-1.67651e-05
-0.000109958
-2.19051e-05
-9.6593e-05
-2.62094e-05
-8.16538e-05
-2.93142e-05
-6.58949e-05
-3.08931e-05
-5.01851e-05
-3.07025e-05
-3.54431e-05
-2.86263e-05
-2.25517e-05
-2.47194e-05
-1.22563e-05
-1.92498e-05
-5.05305e-06
-1.27473e-05
-1.07415e-06
-6.0747e-06
-7.02418e-07
-2.69655e-06
4.58389e-06
-9.84671e-06
1.52841e-05
-2.0638e-05
2.50699e-05
-3.42563e-05
3.29371e-05
-4.98875e-05
3.86069e-05
-6.67565e-05
4.21317e-05
-8.41566e-05
4.37222e-05
-0.00010146
4.36328e-05
-0.000118111
4.20935e-05
-0.000133614
3.92792e-05
-0.000147516
3.53064e-05
-0.000159392
3.02456e-05
-0.000168839
2.41444e-05
-0.00017548
1.70556e-05
-0.000178974
9.06638e-06
-0.000179044
3.29595e-07
-0.000175499
-8.93051e-06
-0.000168278
-1.83712e-05
-0.000157481
-2.75622e-05
-0.000143403
-3.59831e-05
-0.000126554
-4.30587e-05
-0.000107659
-4.82086e-05
-8.76399e-05
-5.09126e-05
-6.75584e-05
-5.0784e-05
-4.85417e-05
-4.7643e-05
-3.1678e-05
-4.15831e-05
-1.79008e-05
-3.3027e-05
-7.87698e-06
-2.27711e-05
-1.92095e-06
-1.20307e-05
-2.62337e-06
-3.58535e-06
8.16924e-06
-1.27466e-05
2.44454e-05
-2.62241e-05
3.85474e-05
-4.29144e-05
4.96274e-05
-6.18176e-05
5.751e-05
-8.20333e-05
6.23475e-05
-0.000102762
6.44512e-05
-0.000123301
6.41711e-05
-0.000143026
6.1819e-05
-0.00016138
5.76333e-05
-0.000177848
5.17745e-05
-0.000191945
4.43427e-05
-0.000203208
3.54073e-05
-0.000211199
2.50459e-05
-0.000215516
1.33841e-05
-0.000215825
6.37961e-07
-0.000211885
-1.28702e-05
-0.000203598
-2.66581e-05
-0.000191049
-4.01111e-05
-0.000174548
-5.24843e-05
-0.000154658
-6.29489e-05
-0.000132203
-7.06629e-05
-0.000108251
-7.48655e-05
-8.40485e-05
-7.4986e-05
-6.09387e-05
-7.07528e-05
-4.02343e-05
-6.22875e-05
-2.30884e-05
-5.01729e-05
-1.03746e-05
-3.54849e-05
-2.61331e-06
-1.9792e-05
-5.23668e-06
-4.34811e-06
1.25173e-05
-1.53152e-05
3.54125e-05
-3.12477e-05
5.44799e-05
-5.07603e-05
6.91401e-05
-7.26648e-05
7.94145e-05
-9.59376e-05
8.56203e-05
-0.000119698
8.82111e-05
-0.000143183
8.76563e-05
-0.000165726
8.43621e-05
-0.000186728
7.86354e-05
-0.000205634
7.0681e-05
-0.000221916
6.06246e-05
-0.000235061
4.85515e-05
-0.00024457
3.45557e-05
-0.00024998
1.87932e-05
-0.000250877
1.53581e-06
-0.00024695
-1.67976e-05
-0.000238026
-3.55818e-05
-0.000224135
-5.4002e-05
-0.000205561
-7.1059e-05
-0.000182884
-8.5626e-05
-0.000157005
-9.65413e-05
-0.000129133
-0.000102738
-0.000100721
-0.000103397
-7.33688e-05
-9.81055e-05
-4.86697e-05
-8.69866e-05
-2.8056e-05
-7.07866e-05
-1.26521e-05
-5.08889e-05
-3.1863e-06
-2.92578e-05
-8.42299e-06
-5.01629e-06
1.75336e-05
-1.76156e-05
4.80118e-05
-3.58054e-05
7.26696e-05
-5.7939e-05
9.12737e-05
-8.2646e-05
0.000104122
-0.000108785
0.000111759
-0.0001354
0.000114826
-0.000161686
0.000113942
-0.000186948
0.000109624
-0.000210564
0.000102252
-0.000231958
9.20748e-05
-0.00025057
7.92361e-05
-0.000265843
6.38245e-05
-0.000277221
4.59342e-05
-0.00028416
2.57323e-05
-0.000286153
3.52821e-06
-0.000282773
-2.01776e-05
-0.000273731
-4.46232e-05
-0.000258949
-6.87847e-05
-0.000238628
-9.13798e-05
-0.000213323
-0.000110931
-0.000183986
-0.000125879
-0.000151966
-0.000134757
-0.000118962
-0.000136402
-8.68931e-05
-0.000130174
-5.7727e-05
-0.000116153
-3.3264e-05
-9.52496e-05
-1.49445e-05
-6.92084e-05
-3.71728e-06
-4.0485e-05
-1.21403e-05
-5.62137e-06
2.3155e-05
-1.97261e-05
6.21166e-05
-4.0025e-05
9.29685e-05
-6.46324e-05
0.000115881
-9.20071e-05
0.000131496
-0.000120896
0.000140648
-0.000150282
0.000144212
-0.000179327
0.000142988
-0.000207325
0.000137621
-0.000233649
0.000128576
-0.000257716
0.000116142
-0.000278949
0.000100469
-0.000296755
8.16305e-05
-0.000310516
5.96953e-05
-0.000319595
3.48114e-05
-0.00032336
7.2929e-06
-0.00032123
-2.23078e-05
-0.00031274
-5.31134e-05
-0.000297632
-8.38919e-05
-0.000275959
-0.000113053
-0.000248183
-0.000138707
-0.000215262
-0.0001588
-0.000178687
-0.000171333
-0.000140436
-0.000174652
-0.000102845
-0.000167765
-6.83753e-05
-0.000150623
-3.93279e-05
-0.000124297
-1.75644e-05
-9.09719e-05
-4.30101e-06
-5.37484e-05
-1.64413e-05
-6.18931e-06
2.93443e-05
-2.17192e-05
7.76464e-05
-4.40308e-05
0.00011528
-7.10178e-05
0.000142868
-0.00010098
0.000161458
-0.000132563
0.000172232
-0.000164698
0.000176347
-0.00019653
0.00017482
-0.000227358
0.000168449
-0.00025657
0.000157789
-0.000283595
0.000143166
-0.000307852
0.000124726
-0.000328722
0.000102501
-0.000345526
7.64991e-05
-0.000357521
4.6807e-05
-0.000363922
1.36941e-05
-0.000363946
-2.22842e-05
-0.000356883
-6.01766e-05
-0.000342213
-9.85621e-05
-0.000319739
-0.000135527
-0.000289741
-0.000168705
-0.000253115
-0.000195426
-0.00021146
-0.000212988
-0.000167074
-0.000219038
-0.00012281
-0.000212029
-8.17873e-05
-0.000191646
-4.69961e-05
-0.000159088
-2.08857e-05
-0.000117082
-5.04453e-06
-6.95896e-05
-2.14858e-05
-6.73994e-06
3.60843e-05
-2.36546e-05
9.45611e-05
-4.79291e-05
0.000139554
-7.72469e-05
0.000172186
-0.000109757
0.000193968
-0.000144017
0.000206491
-0.000178915
0.000211246
-0.000213598
0.000209503
-0.000247389
0.00020224
-0.000279713
0.000190112
-0.00031003
0.000173483
-0.000337779
0.000152476
-0.000362331
0.000127052
-0.00038295
9.71182e-05
-0.000398783
6.26407e-05
-0.000408867
2.3778e-05
-0.000412169
-1.8983e-05
-0.000407657
-6.46878e-05
-0.00039445
-0.000111769
-0.000371982
-0.000157995
-0.000340218
-0.000200469
-0.000299877
-0.000235767
-0.000252603
-0.000260262
-0.00020102
-0.000270621
-0.000148604
-0.000264444
-9.93353e-05
-0.000240915
-5.71525e-05
-0.000201271
-2.53481e-05
-0.000148887
-6.07039e-06
-8.88673e-05
-2.75562e-05
-7.28784e-06
4.33721e-05
-2.55792e-05
0.000112852
-5.18038e-05
0.000165779
-8.3437e-05
0.000203819
-0.000118483
0.000229014
-0.000155415
0.000243423
-0.000193098
0.000248929
-0.000230695
0.0002471
-0.000267574
0.000239119
-0.000303224
0.000225761
-0.000337164
0.000207424
-0.000368879
0.000184191
-0.000397751
0.000155924
-0.00042301
0.000122377
-0.000443695
8.3326e-05
-0.000458649
3.87322e-05
-0.000466554
-1.10782e-05
-0.000465979
-6.5263e-05
-0.000455571
-0.000122177
-0.000434251
-0.000179316
-0.000401504
-0.000233216
-0.000357703
-0.000279567
-0.000304405
-0.00031356
-0.000244514
-0.000330512
-0.000182214
-0.000326744
-0.000122573
-0.000300556
-7.08209e-05
-0.000253023
-3.14657e-05
-0.000188242
-7.52163e-06
-0.000112811
-3.50778e-05
-7.84381e-06
5.12159e-05
-2.75289e-05
0.000132538
-5.57189e-05
0.000193969
-8.96729e-05
0.000237773
-0.000127247
0.000266588
-0.000166839
0.000283015
-0.0002073
0.000289389
-0.000247828
0.000287628
-0.000287863
0.000279155
-0.000326981
0.000264879
-0.000364795
0.000245238
-0.00040087
0.000220265
-0.000434634
0.000189688
-0.000465308
0.000153051
-0.000491849
0.000109867
-0.000512906
5.97889e-05
-0.000526862
2.87775e-06
-0.000531815
-6.03097e-05
-0.00052585
-0.000128141
-0.000507217
-0.000197949
-0.000474719
-0.000265714
-0.000428157
-0.000326129
-0.000368785
-0.000372932
-0.000299649
-0.000399648
-0.000225653
-0.00040074
-0.000153174
-0.000373035
-8.91523e-05
-0.000317045
-3.98332e-05
-0.000237561
-9.56624e-06
-0.000143078
-4.46441e-05
-8.41693e-06
5.96328e-05
-2.95341e-05
0.000153655
-5.97258e-05
0.000224161
-9.60147e-05
0.000274062
-0.000136099
0.000306673
-0.000178302
0.000325217
-0.000221469
0.000332556
-0.000264853
0.000331013
-0.000307989
0.00032229
-0.00035057
0.000307461
-0.00039234
0.000287007
-0.000432977
0.000260903
-0.000472003
0.000228713
-0.000508674
0.000189723
-0.000541903
0.000143095
-0.000570188
8.80738e-05
-0.000591562
2.42518e-05
-0.000603728
-4.81433e-05
-0.000604074
-0.000127796
-0.000590052
-0.000211971
-0.000559578
-0.000296188
-0.0005116
-0.000374106
-0.000446755
-0.000437778
-0.000367952
-0.000478451
-0.00028069
-0.000488002
-0.000192795
-0.00046093
-0.000113381
-0.000396458
-5.11219e-05
-0.00029982
-1.24008e-05
-0.0001818
-5.70448e-05
-9.01737e-06
6.86502e-05
-3.1628e-05
0.000176265
-6.38764e-05
0.000256409
-0.000102514
0.0003127
-0.000145061
0.00034922
-0.000189758
0.000369915
-0.000235456
0.000378254
-0.000281476
0.000377033
-0.00032747
0.000368284
-0.000373277
0.000353268
-0.0004188
0.000332531
-0.000463879
0.000305982
-0.00050817
0.000273004
-0.000551024
0.000232578
-0.00059137
0.000183441
-0.000627608
0.000124312
-0.00065754
5.41834e-05
-0.000678406
-2.72767e-05
-0.000686951
-0.000119251
-0.000679742
-0.000219179
-0.000653627
-0.000322304
-0.000606403
-0.00042133
-0.000537679
-0.000506502
-0.000449775
-0.000566355
-0.000348421
-0.000589355
-0.000242841
-0.000566511
-0.000144736
-0.000494563
-6.60659e-05
-0.00037849
-1.62542e-05
-0.000231611
-7.3299e-05
-9.66044e-06
7.83106e-05
-3.38575e-05
0.000200462
-6.82418e-05
0.000290793
-0.000109238
0.000353696
-0.000154155
0.000394137
-0.000201139
0.000416899
-0.000249047
0.000426162
-0.000297283
0.000425269
-0.000345631
0.000416632
-0.0003941
0.000401737
-0.000442779
0.00038121
-0.000491702
0.000354906
-0.000540713
0.000322014
-0.000589317
0.000281182
-0.000636541
0.000230665
-0.00068079
0.000168561
-0.000719736
9.3129e-05
-0.000750291
3.27852e-06
-0.000768626
-0.000100917
-0.000770464
-0.00021734
-0.000751493
-0.000341275
-0.000708105
-0.000464719
-0.000638412
-0.000576195
-0.000543499
-0.000661269
-0.000428656
-0.000704197
-0.000304088
-0.00069108
-0.00018428
-0.00061437
-8.54294e-05
-0.000477341
-2.13918e-05
-0.000295649
-9.46908e-05
-1.03724e-05
8.8683e-05
-3.63002e-05
0.00022639
-7.2938e-05
0.000327431
-0.0001163
0.000397059
-0.000163437
0.000441273
-0.000212381
0.000465843
-0.000261996
0.000475777
-0.000311775
0.000475047
-0.000361646
0.000466503
-0.0004118
0.000451891
-0.000462531
0.00043194
-0.000514091
0.000406466
-0.000566549
0.000374472
-0.00061963
0.000334263
-0.000672553
0.000283589
-0.000723862
0.00021987
-0.000771272
0.000140539
-0.000811546
4.3553e-05
-0.000840547
-7.1916e-05
-0.000853301
-0.000204586
-0.000844416
-0.00035016
-0.000808743
-0.000500391
-0.00074247
-0.000642468
-0.000644663
-0.000759075
-0.000519144
-0.000829717
-0.000376148
-0.000834076
-0.000232654
-0.000757864
-0.000109943
-0.000600052
-2.81185e-05
-0.000377473
-0.000122809
-1.11987e-05
9.98817e-05
-3.90863e-05
0.000254278
-7.81601e-05
0.000366505
-0.000123903
0.000442802
-0.000173041
0.000490411
-0.000223473
0.000516276
-0.000274069
0.000526372
-0.000324418
0.000525396
-0.0003746
0.000516685
-0.000424987
0.000502279
-0.000476081
0.000483034
-0.000528361
0.000458746
-0.000582147
0.000428257
-0.000637437
0.000389553
-0.00069374
0.000339892
-0.000749891
0.00027602
-0.00080386
0.000194508
-0.000852596
9.22889e-05
-0.000891919
-3.2593e-05
-0.000916574
-0.000179931
-0.000920363
-0.000346372
-0.000896687
-0.000524067
-0.000839544
-0.000699611
-0.000745213
-0.000853406
-0.000614725
-0.000960205
-0.000456762
-0.000992039
-0.000289673
-0.000924952
-0.00014018
-0.000749545
-3.67746e-05
-0.000480879
-0.000159584
-1.2217e-05
0.000112099
-4.24315e-05
0.000284492
-8.4228e-05
0.000408302
-0.000132385
0.000490959
-0.000183225
0.000541251
-0.000234497
0.000567548
-0.000285087
0.000576962
-0.000334694
0.000575003
-0.000383554
0.000565546
-0.000432218
0.000550942
-0.00048138
0.000532195
-0.00053174
0.000509107
-0.000583874
0.000480391
-0.00063809
0.000443769
-0.000694273
0.000396075
-0.000751699
0.000333447
-0.000808843
0.000251652
-0.000863174
0.00014662
-0.0009109
1.51332e-05
-0.000947022
-0.000143809
-0.000965042
-0.000328351
-0.000957318
-0.000531791
-0.000915725
-0.000741205
-0.000833215
-0.000935915
-0.000706656
-0.00108676
-0.00054101
-0.00115769
-0.000353769
-0.00111219
-0.000176352
-0.000926962
-4.77211e-05
-0.00060951
-0.000207305
-1.35582e-05
0.000125657
-4.66848e-05
0.000317619
-9.16467e-05
0.000453263
-0.000142276
0.000541589
-0.00019441
0.000593385
-0.000245653
0.000618791
-0.000294942
0.00062625
-0.00034212
0.000622182
-0.000387593
0.000611019
-0.000432084
0.000595432
-0.000476462
0.000576574
-0.000521627
0.000554271
-0.000568397
0.000527161
-0.000617404
0.000492777
-0.000668967
0.000447638
-0.000722933
0.000387413
-0.000778495
0.000307213
-0.000833959
0.000202083
-0.000886517
6.7691e-05
-0.000931807
-9.85188e-05
-0.000963899
-0.000296259
-0.000974797
-0.000520894
-0.000954778
-0.000761223
-0.000893452
-0.000997242
-0.000782478
-0.00119774
-0.000620693
-0.00131947
-0.000421334
-0.00131155
-0.000218002
-0.00113029
-6.13111e-05
-0.000766201
-0.000268616
-1.54418e-05
0.000141099
-5.24016e-05
0.000354579
-0.000101185
0.000502047
-0.000154357
0.00059476
-0.000207203
0.000646231
-0.000257241
0.000668829
-0.000303553
0.000672562
-0.000346193
0.000664822
-0.000385775
0.000650601
-0.000423201
0.000632859
-0.000459505
0.000612877
-0.000495754
0.000590521
-0.000532989
0.000564396
-0.000572156
0.000531943
-0.000614027
0.000489509
-0.000659097
0.000432483
-0.000707429
0.000355545
-0.000758443
0.000253098
-0.000810624
0.000119871
-0.000860917
-4.82253e-05
-0.000904758
-0.000252419
-0.000934728
-0.000490923
-0.00094054
-0.000755412
-0.000909175
-0.00102861
-0.000826848
-0.00128006
-0.000684239
-0.00146208
-0.00048617
-0.00150962
-0.000263633
-0.00135283
-7.78605e-05
-0.000951973
-0.000346477
-1.8243e-05
0.000159342
-6.04595e-05
0.000396795
-0.000113978
0.000555565
-0.000169692
0.000650475
-0.000222348
0.000698887
-0.000269543
0.000716025
-0.000310679
0.000713698
-0.00034616
0.000700302
-0.000376887
0.000681328
-0.000403976
0.000659948
-0.000428625
0.000637525
-0.000452053
0.000613949
-0.000475492
0.000587835
-0.000500171
0.000556622
-0.0005273
0.000516638
-0.000558021
0.000463204
-0.000593314
0.000390839
-0.00063383
0.000293614
-0.000679639
0.00016568
-0.000729218
1.35383e-06
-0.000780361
-0.000201277
-0.000827053
-0.000444231
-0.000859911
-0.000722554
-0.000864812
-0.0010237
-0.000823457
-0.00132142
-0.000717494
-0.00156804
-0.000539291
-0.00168782
-0.000310321
-0.0015818
-9.76285e-05
-0.00116467
-0.000444105
-2.26163e-05
0.000181958
-7.22402e-05
0.000446419
-0.000131635
0.00061496
-0.000189602
0.000708442
-0.000240536
0.00074982
-0.000282476
0.000757965
-0.000315461
0.000746683
-0.000340468
0.00072531
-0.000358826
0.000699685
-0.000371937
0.000673059
-0.000381188
0.000646777
-0.000387949
0.00062071
-0.000393611
0.000593497
-0.000399641
0.000562652
-0.000407622
0.000524619
-0.000419267
0.000474849
-0.000436397
0.000407968
-0.000460839
0.000318057
-0.000494061
0.000198902
-0.000537358
4.46511e-05
-0.000589496
-0.000149139
-0.000647876
-0.000385851
-0.000705332
-0.000665098
-0.000748745
-0.000980292
-0.000757546
-0.00131262
-0.000705304
-0.00162029
-0.000569268
-0.00182386
-0.000353377
-0.00179769
-0.000120795
-0.00139725
-0.0005649
-2.97324e-05
0.000211691
-8.98988e-05
0.000506586
-0.000156303
0.000681364
-0.0002154
0.000767539
-0.000261831
0.000796252
-0.000294754
0.000790888
-0.000315365
0.000767293
-0.00032555
0.000735495
-0.000327263
0.000701399
-0.000322303
0.0006681
-0.000312295
0.000636769
-0.000298761
0.000607176
-0.000283223
0.000577959
-0.000267317
0.000546746
-0.000252899
0.0005102
-0.000242115
0.000464065
-0.000237414
0.000403268
-0.000241715
0.000322358
-0.000257798
0.000214984
-0.000288452
7.53055e-05
-0.000335513
-0.000102078
-0.000398976
-0.000322388
-0.000475343
-0.00058873
-0.000554837
-0.000900798
-0.000617942
-0.00124951
-0.000633275
-0.00160495
-0.000562926
-0.00189421
-0.00038602
-0.0019746
-0.00014732
-0.00163595
-0.00071222
-4.17166e-05
0.000253407
-0.000116684
0.000581553
-0.000190408
0.000755087
-0.000247474
0.000824605
-0.000284171
0.000832949
-0.000301947
0.000808664
-0.000303919
0.000769266
-0.000293332
0.000724908
-0.000273002
0.000681069
-0.000245241
0.000640338
-0.000211947
0.000603475
-0.000174779
0.000570008
-0.000135331
0.000538511
-9.53088e-05
0.000506724
-5.66986e-05
0.00047159
-2.19255e-05
0.000429292
6.02627e-06
0.000375316
2.40655e-05
0.000304318
2.79554e-05
0.000211094
1.35059e-05
8.9755e-05
-2.28989e-05
-6.56732e-05
-8.46352e-05
-0.000260651
-0.000172386
-0.000500979
-0.000281533
-0.000791651
-0.000397326
-0.00113372
-0.000488558
-0.00151372
-0.000505703
-0.00187706
-0.000398716
-0.00208159
-0.000176358
-0.00185831
-0.000888578
-6.24021e-05
0.000315809
-0.000157004
0.000676155
-0.00023525
0.000833334
-0.000282489
0.000871844
-0.000299538
0.000849999
-0.000291986
0.000801111
-0.000265871
0.00074315
-0.000226264
0.000685301
-0.000177027
0.000631833
-0.000121003
0.000584314
-6.03088e-05
0.00054278
3.36676e-06
0.000506332
6.84951e-05
0.000473383
0.000133468
0.000441751
0.000196382
0.000408676
0.000254857
0.000370817
0.000305909
0.000324264
0.000345644
0.000264583
0.000369692
0.000187047
0.000372891
8.65567e-05
0.000349478
-4.22603e-05
0.000294058
-0.000205232
0.000201936
-0.000408857
7.16417e-05
-0.000661357
-9.00015e-05
-0.000972077
-0.000258612
-0.00134511
-0.000380516
-0.00175516
-0.000377372
-0.00208473
-0.000204517
-0.00203116
-0.0010931
-9.82542e-05
0.000414063
-0.000214732
0.000792633
-0.00028563
0.000904232
-0.000305319
0.000891532
-0.000284424
0.000829104
-0.000235129
0.000751816
-0.000167309
0.00067533
-8.80131e-05
0.000606005
-1.96104e-06
0.000545781
8.77829e-05
0.00049457
0.000179208
0.000451355
0.000270906
0.000414635
0.000361698
0.00038259
0.000450345
0.000353105
0.000535284
0.000323737
0.000614414
0.000291687
0.000684902
0.000253776
0.000743021
0.000206464
0.000784124
0.000145944
0.000802535
6.81455e-05
0.000791592
-3.13169e-05
0.000744115
-0.000157755
0.000652222
-0.000316964
0.000508854
-0.000517989
0.000311464
-0.000774686
7.22511e-05
-0.0011059
-0.000163478
-0.00151943
-0.000299131
-0.00194908
-0.000222679
-0.00210761
-0.00131577
-0.000157788
0.000571852
-0.000282864
0.000917708
-0.000311451
0.000932819
-0.000266949
0.000847031
-0.000177451
0.000739606
-6.33388e-05
0.000637704
6.22654e-05
0.000549726
0.000191542
0.000476729
0.000320138
0.000417185
0.000445806
0.000368901
0.000567479
0.000329682
0.000684655
0.000297458
0.000796989
0.000270256
0.000903978
0.000246116
0.00100471
0.000223007
0.00109764
0.000198758
0.0011804
0.000171012
0.00124965
0.000137215
0.00130093
9.46598e-05
0.00132852
4.05575e-05
0.00132545
-2.82468e-05
0.00128357
-0.000115878
0.00119308
-0.00022647
0.00104287
-0.000367777
0.00082178
-0.000553599
0.000525487
-0.000809605
0.000179208
-0.00117315
-0.000123463
-0.00164641
-0.000211301
-0.00201977
-0.00152707
-0.000239412
0.000811263
-0.000296279
0.000974576
-0.000200013
0.000836553
-3.00388e-05
0.000677056
0.000165637
0.00054393
0.000364033
0.000439308
0.000554547
0.000359212
0.000732872
0.000298404
0.00089798
0.000252076
0.0010504
0.00021648
0.00119127
0.000188814
0.0013218
0.000166925
0.001443
0.000149061
0.00155541
0.000133699
0.001659
0.000119417
0.00175295
0.000104809
0.00183554
8.84288e-05
0.00190398
6.87678e-05
0.00195436
4.42817e-05
0.00198141
1.35121e-05
0.00197872
-2.55625e-05
0.00193776
-7.49183e-05
0.00184841
-0.000137114
0.00169767
-0.00021704
0.0014687
-0.000324627
0.00114148
-0.000482391
0.000707282
-0.000738948
0.00022667
-0.00116579
-9.38457e-05
-0.00169926
-0.00162092
-0.000188305
0.000999568
3.22642e-05
0.000754007
0.000390796
0.000478021
0.000731134
0.000336718
0.00103079
0.000244276
0.00128972
0.000180373
0.00151216
0.000136774
0.00170362
0.000106944
0.0018696
8.6096e-05
0.00201491
7.11733e-05
0.00214348
6.02463e-05
0.00225838
5.20226e-05
0.00236187
4.55728e-05
0.00245539
4.01749e-05
0.00253959
3.52183e-05
0.00261425
3.01443e-05
0.00267827
2.44143e-05
0.00272953
1.75045e-05
0.00276486
8.95168e-06
0.00278013
-1.75306e-06
0.00277038
-1.58113e-05
0.00272803
-3.2567e-05
0.00264468
-5.37682e-05
0.00250848
-8.08449e-05
0.00230159
-0.000117736
0.00199457
-0.000175363
0.00154181
-0.000286196
0.000919494
-0.000543475
0.000260268
-0.00104003
-0.00136065
0.000999568
0.00175357
0.0022316
0.00256831
0.00281259
0.00299296
0.00312974
0.00323668
0.00332278
0.00339395
0.0034542
0.00350622
0.00355179
0.00359197
0.00362719
0.00365733
0.00368174
0.00369925
0.0037082
0.00370645
0.00369064
0.00365807
0.0036043
0.00352346
0.00340572
0.00323036
0.00294416
0.00240069
0.00136065
)
;

boundaryField
{
    movingWall
    {
        type            calculated;
        value           uniform 0;
    }
    fixedWalls
    {
        type            calculated;
        value           uniform 0;
    }
    frontAndBack
    {
        type            empty;
        value           nonuniform 0();
    }
}


// ************************************************************************* //
