/*--------------------------------*- C++ -*----------------------------------*\
  =========                 |
  \\      /  F ield         | OpenFOAM: The Open Source CFD Toolbox
   \\    /   O peration     | Website:  https://openfoam.org
    \\  /    A nd           | Version:  7
     \\/     M anipulation  |
\*---------------------------------------------------------------------------*/
FoamFile
{
    version     2.0;
    format      ascii;
    class       volScalarField;
    location    "900";
    object      epsilon;
}
// * * * * * * * * * * * * * * * * * * * * * * * * * * * * * * * * * * * * * //

dimensions      [0 2 -3 0 0 0 0];

internalField   nonuniform List<scalar> 
4500
(
789.607
724.717
675.056
641.444
616.337
596.999
581.733
569.399
559.236
550.727
543.512
537.331
531.994
527.355
523.302
519.746
516.618
513.86
511.426
509.275
507.376
505.702
504.228
502.934
501.803
500.821
499.973
499.247
498.635
498.126
497.712
497.386
497.141
496.972
496.873
496.839
496.865
496.947
497.082
497.265
497.495
497.767
498.079
498.429
498.813
499.229
499.675
500.148
500.647
501.168
501.711
502.271
502.848
503.438
504.04
504.651
505.267
505.887
506.51
507.132
507.753
508.373
508.993
509.614
510.234
510.851
511.46
512.048
512.595
513.074
513.448
513.678
513.721
513.54
513.114
180.467
258.6
265.807
255.427
244.809
236.24
229.47
224.046
219.618
215.941
212.845
210.208
207.941
205.978
204.268
202.77
201.455
200.297
199.274
198.371
197.573
196.869
196.248
195.702
195.223
194.804
194.442
194.129
193.863
193.64
193.455
193.306
193.19
193.105
193.048
193.018
193.012
193.028
193.065
193.123
193.199
193.292
193.402
193.527
193.665
193.817
193.981
194.157
194.342
194.537
194.74
194.951
195.169
195.392
195.62
195.853
196.088
196.325
196.563
196.801
197.04
197.278
197.515
197.752
197.987
198.22
198.449
198.669
198.874
199.056
199.206
199.312
199.363
199.351
199.263
52.4732
112.464
134.457
135.922
132.522
128.669
125.265
122.401
120.007
117.993
116.284
114.823
113.562
112.469
111.515
110.679
109.944
109.296
108.724
108.219
107.772
107.376
107.028
106.72
106.451
106.215
106.01
105.833
105.682
105.554
105.448
105.361
105.293
105.242
105.207
105.187
105.18
105.185
105.202
105.229
105.268
105.315
105.372
105.438
105.511
105.591
105.678
105.771
105.869
105.973
106.082
106.194
106.311
106.43
106.552
106.676
106.802
106.929
107.056
107.184
107.312
107.439
107.567
107.696
107.825
107.954
108.083
108.209
108.328
108.435
108.523
108.581
108.602
108.576
108.49
18.9423
52.8112
76.111
83.4465
84.1244
82.8547
81.1903
79.5846
78.1513
76.9017
75.8187
74.8793
74.0618
73.3479
72.7222
72.1719
71.6868
71.2581
70.8788
70.5429
70.2455
69.9822
69.7494
69.544
69.3633
69.205
69.067
68.9476
68.8451
68.7581
68.6854
68.6259
68.5785
68.5424
68.5167
68.5007
68.4936
68.4945
68.503
68.5188
68.5415
68.5705
68.6054
68.6459
68.6914
68.7418
68.7965
68.8553
68.9177
68.9836
69.0524
69.1241
69.1981
69.2741
69.3518
69.4309
69.5109
69.5915
69.6725
69.7536
69.835
69.9166
69.9989
70.0822
70.1667
70.2525
70.3388
70.4237
70.5041
70.5749
70.6295
70.66
70.6576
70.6137
70.5179
8.1872
25.0217
43.8942
53.7537
57.1337
57.7145
57.2786
56.5262
55.7185
54.9491
54.2478
53.6201
53.0624
52.5681
52.1302
51.742
51.3976
51.0917
50.82
50.5786
50.3641
50.1737
50.005
49.8557
49.7242
49.6086
49.5076
49.4199
49.3443
49.28
49.226
49.1814
49.1457
49.118
49.0979
49.0847
49.0781
49.0772
49.0818
49.0916
49.1064
49.1257
49.1493
49.1769
49.2082
49.2429
49.2808
49.3215
49.365
49.4108
49.4588
49.5088
49.5604
49.6135
49.6677
49.7228
49.7786
49.8348
49.8912
49.9477
50.0045
50.0616
50.1195
50.1785
50.2388
50.3003
50.3623
50.423
50.4795
50.5271
50.5601
50.5712
50.5531
50.4988
50.401
4.2188
11.9892
24.7098
34.5695
39.5749
41.5705
42.1325
42.0729
41.7614
41.3618
40.9462
40.5459
40.1736
39.8334
39.5253
39.2478
38.9985
38.7751
38.575
38.3962
38.2364
38.094
37.9673
37.8548
37.7554
37.6677
37.5909
37.524
37.4662
37.4168
37.3752
37.3407
37.3128
37.2911
37.275
37.2642
37.2584
37.257
37.2597
37.2663
37.2766
37.2903
37.3074
37.3274
37.3503
37.3757
37.4036
37.4336
37.4656
37.4995
37.5349
37.5718
37.61
37.6491
37.6891
37.7298
37.7708
37.8121
37.8536
37.8952
37.9369
37.979
38.0218
38.0655
38.1103
38.1559
38.2016
38.2456
38.2852
38.3164
38.3341
38.3325
38.3056
38.2482
38.1561
2.53586
6.06763
13.4269
21.5411
27.1065
30.0891
31.4755
32.0206
32.1462
32.069
31.8979
31.6884
31.4685
31.2526
31.0476
30.8568
30.6813
30.521
30.3754
30.2438
30.1251
30.0186
29.9231
29.838
29.7624
29.6955
29.6366
29.5852
29.5407
29.5025
29.4703
29.4435
29.4217
29.4047
29.3921
29.3836
29.3789
29.3777
29.3797
29.3846
29.3924
29.4029
29.4159
29.4313
29.4488
29.4684
29.4898
29.5129
29.5375
29.5635
29.5908
29.6192
29.6484
29.6785
29.7091
29.7402
29.7715
29.803
29.8346
29.8662
29.8979
29.9299
29.9624
29.9956
30.0294
30.0636
30.0973
30.129
30.1562
30.1754
30.1826
30.1732
30.1426
30.0874
30.0057
1.72014
3.39495
7.19137
12.8165
17.9493
21.4137
23.4192
24.4852
25.0083
25.2292
25.2842
25.2494
25.1674
25.0624
24.9482
24.8326
24.7203
24.6137
24.514
24.4218
24.3374
24.2604
24.1908
24.1281
24.072
24.0221
23.9779
23.9393
23.9057
23.8769
23.8525
23.8323
23.8159
23.8032
23.7938
23.7877
23.7844
23.7839
23.7859
23.7902
23.7967
23.8053
23.8159
23.8283
23.8424
23.858
23.8752
23.8936
23.9132
23.9339
23.9556
23.9781
24.0012
24.0249
24.0491
24.0735
24.098
24.1226
24.1472
24.1718
24.1964
24.2212
24.2462
24.2716
24.2973
24.323
24.3477
24.3701
24.388
24.3988
24.3989
24.3852
24.3542
24.3042
24.2347
1.27853
2.13151
3.97937
7.32524
11.3239
14.7132
17.0625
18.5327
19.4051
19.9031
20.1732
20.3058
20.3557
20.3562
20.3275
20.2824
20.2286
20.1713
20.1134
20.057
20.0032
19.9528
19.9061
19.8633
19.8246
19.7897
19.7587
19.7314
19.7076
19.6872
19.67
19.6558
19.6445
19.6359
19.6298
19.6261
19.6247
19.6254
19.628
19.6324
19.6384
19.6461
19.6552
19.6658
19.6777
19.6909
19.7051
19.7204
19.7366
19.7536
19.7713
19.7896
19.8084
19.8275
19.847
19.8666
19.8862
19.9058
19.9253
19.9448
19.9641
19.9835
20.0029
20.0225
20.042
20.0611
20.0789
20.0943
20.1055
20.1102
20.1059
20.0901
20.0608
20.017
19.9595
1.01869
1.48311
2.38188
4.15478
6.80161
9.62717
11.9836
13.6873
14.8322
15.5744
16.0458
16.3399
16.5189
16.623
16.6785
16.7023
16.7057
16.6961
16.6786
16.6564
16.632
16.6068
16.5819
16.558
16.5356
16.5151
16.4964
16.4799
16.4654
16.4531
16.4428
16.4345
16.4282
16.4238
16.4212
16.4203
16.421
16.4233
16.427
16.4321
16.4383
16.4457
16.4543
16.4639
16.4745
16.486
16.4984
16.5115
16.5253
16.5397
16.5546
16.57
16.5856
16.6015
16.6175
16.6336
16.6496
16.6655
16.6812
16.6967
16.7121
16.7274
16.7425
16.7575
16.7722
16.7862
16.7989
16.809
16.8153
16.8158
16.8089
16.7926
16.7657
16.7281
16.6813
0.856486
1.12027
1.57153
2.45563
3.97547
5.97825
8.01089
9.72611
11.0249
11.954
12.6007
13.0453
13.349
13.5554
13.6948
13.7877
13.8485
13.8869
13.9097
13.9219
13.9266
13.9265
13.9233
13.9181
13.912
13.9055
13.8991
13.8933
13.8881
13.8839
13.8806
13.8784
13.8773
13.8773
13.8784
13.8806
13.8838
13.8881
13.8934
13.8996
13.9066
13.9144
13.923
13.9323
13.9423
13.9529
13.9642
13.976
13.9882
14.0009
14.0138
14.0271
14.0405
14.0539
14.0675
14.0809
14.0942
14.1073
14.1201
14.1327
14.145
14.1571
14.1689
14.1804
14.1914
14.2015
14.2101
14.2164
14.2191
14.2169
14.2084
14.1924
14.1683
14.1363
14.0983
0.751138
0.901882
1.1357
1.57101
2.36209
3.58036
5.07589
6.57156
7.86573
8.89151
9.66657
10.2385
10.6564
10.9608
11.1828
11.345
11.4638
11.551
11.6151
11.6622
11.6969
11.7225
11.7413
11.7553
11.7658
11.7738
11.7801
11.7852
11.7897
11.7938
11.7979
11.802
11.8064
11.8112
11.8164
11.8221
11.8283
11.835
11.8423
11.8501
11.8583
11.867
11.8761
11.8857
11.8957
11.9061
11.9168
11.9278
11.9392
11.9507
11.9624
11.9742
11.986
11.9978
12.0095
12.021
12.0323
12.0433
12.054
12.0643
12.0743
12.0839
12.0931
12.1018
12.1099
12.117
12.1227
12.126
12.1262
12.1222
12.113
12.0977
12.0762
12.049
12.018
0.681084
0.763094
0.884561
1.10001
1.49244
2.15026
3.09086
4.2063
5.32813
6.32978
7.15924
7.81699
8.32691
8.71822
9.01769
9.24721
9.42379
9.56035
9.6666
9.74982
9.81548
9.86769
9.90958
9.94353
9.97136
9.99448
10.014
10.0307
10.0453
10.0584
10.0702
10.0812
10.0916
10.1016
10.1114
10.121
10.1306
10.1402
10.1499
10.1598
10.1698
10.1798
10.19
10.2003
10.2108
10.2214
10.2321
10.243
10.2539
10.2649
10.2758
10.2867
10.2976
10.3082
10.3187
10.3288
10.3387
10.3481
10.3572
10.3658
10.374
10.3817
10.3889
10.3955
10.4013
10.4062
10.4095
10.4108
10.4092
10.404
10.3945
10.3802
10.3609
10.3376
10.3121
0.63403
0.671598
0.730768
0.83575
1.02644
1.35691
1.87632
2.58645
3.41896
4.27087
5.05819
5.73808
6.30134
6.75721
7.12188
7.41233
7.64372
7.8286
7.97704
8.09693
8.19441
8.27426
8.34018
8.39508
8.44121
8.48035
8.5139
8.54298
8.56847
8.59108
8.61137
8.62981
8.64676
8.66253
8.67735
8.69141
8.70489
8.7179
8.73054
8.7429
8.75503
8.76694
8.77864
8.79018
8.80159
8.8129
8.82412
8.83523
8.84623
8.8571
8.8678
8.8783
8.88857
8.89856
8.90821
8.91749
8.92634
8.93472
8.94261
8.94998
8.95681
8.96307
8.96875
8.97374
8.97791
8.98101
8.98267
8.9824
8.97963
8.97375
8.96425
8.95082
8.93359
8.91333
8.89189
0.602484
0.610007
0.63217
0.67868
0.768007
0.927183
1.19007
1.58499
2.11209
2.73181
3.38151
4.0041
4.56404
5.04728
5.45396
5.79146
6.06965
6.29853
6.48706
6.64286
6.7722
6.88017
6.97088
7.04758
7.11291
7.16898
7.21746
7.25973
7.29688
7.32982
7.35927
7.38582
7.40997
7.43212
7.45259
7.47166
7.48956
7.50647
7.52254
7.53789
7.55264
7.56686
7.58055
7.59377
7.60658
7.61904
7.63117
7.64298
7.65448
7.66567
7.67653
7.68704
7.69718
7.7069
7.71618
7.72497
7.73323
7.74094
7.74805
7.75456
7.76044
7.76567
7.77022
7.77401
7.77692
7.77874
7.77917
7.77783
7.77426
7.768
7.75868
7.74614
7.73056
7.71271
7.6943
0.581598
0.568258
0.567053
0.580682
0.61734
0.689625
0.815044
1.01459
1.30566
1.69024
2.14768
2.64103
3.13178
3.59126
4.00373
4.36394
4.67321
4.93622
5.15888
5.34716
5.50658
5.64194
5.75733
5.85616
5.94124
6.01492
6.07909
6.13533
6.18494
6.22897
6.26832
6.3037
6.33573
6.36492
6.39167
6.41634
6.43923
6.46059
6.48061
6.49947
6.51733
6.53429
6.55043
6.56579
6.58046
6.59449
6.60796
6.62088
6.6333
6.64521
6.65662
6.66753
6.67791
6.68774
6.69701
6.70567
6.71371
6.72108
6.72777
6.73376
6.73904
6.74358
6.74735
6.75029
6.7523
6.75322
6.75279
6.75072
6.74665
6.74024
6.73121
6.7195
6.70531
6.68934
6.67316
0.568079
0.540126
0.523431
0.51743
0.525304
0.552668
0.607669
0.701329
0.846657
1.05501
1.32993
1.66241
2.03209
2.41414
2.7866
3.13432
3.44925
3.72875
3.97363
4.1866
4.37111
4.53081
4.66914
4.78922
4.89377
4.98516
5.06536
5.13607
5.19872
5.25449
5.30439
5.34928
5.38985
5.42671
5.46036
5.49125
5.51971
5.54608
5.57059
5.59349
5.61495
5.63513
5.65416
5.67213
5.68909
5.70514
5.72036
5.73481
5.74853
5.76155
5.77389
5.78555
5.79654
5.80684
5.81643
5.82531
5.83343
5.8408
5.84738
5.85316
5.85813
5.86228
5.86558
5.86799
5.86942
5.86973
5.86875
5.86623
5.86191
5.85551
5.84686
5.83591
5.82288
5.80841
5.79388
0.559602
0.521507
0.494215
0.475854
0.467123
0.470264
0.488837
0.527918
0.594281
0.695973
0.840597
1.03225
1.26844
1.53938
1.83035
2.12588
2.41303
2.68294
2.93066
3.15433
3.35412
3.53139
3.68811
3.82648
3.94865
4.05666
4.15237
4.23741
4.31321
4.38101
4.44188
4.49674
4.54637
4.59146
4.63258
4.67023
4.70483
4.73674
4.76628
4.79372
4.81928
4.84316
4.86554
4.88654
4.90624
4.92474
4.94213
4.95851
4.97392
4.98843
5.00206
5.01484
5.02678
5.03787
5.04812
5.05751
5.06604
5.07369
5.08045
5.08631
5.09126
5.0953
5.09841
5.10055
5.10166
5.10165
5.10037
5.09764
5.09325
5.08701
5.07879
5.06856
5.05655
5.0433
5.03001
0.5545
0.509542
0.474918
0.448452
0.429644
0.419073
0.418104
0.428877
0.454437
0.498844
0.567017
0.66401
0.793577
0.956396
1.14891
1.36364
1.59092
1.82102
2.04586
2.25963
2.45884
2.64182
2.80825
2.95863
3.09399
3.21558
3.32473
3.42275
3.5109
3.59032
3.66202
3.72691
3.78582
3.83944
3.88839
3.93322
3.97439
4.01231
4.04734
4.07978
4.10991
4.13795
4.1641
4.18854
4.21141
4.23277
4.25275
4.27144
4.28894
4.3053
4.32058
4.33482
4.34803
4.36025
4.37146
4.38168
4.3909
4.39911
4.40632
4.41252
4.41771
4.42189
4.42506
4.42718
4.42823
4.42813
4.42678
4.42404
4.41976
4.4138
4.40605
4.39654
4.38544
4.37322
4.36093
0.551578
0.502159
0.462517
0.430613
0.405436
0.386738
0.374813
0.370408
0.374735
0.389544
0.417193
0.460615
0.52306
0.607482
0.715642
0.847209
0.999339
1.16703
1.34408
1.52425
1.70217
1.87373
2.03619
2.18798
2.32843
2.4575
2.57558
2.68332
2.78147
2.87084
2.95226
3.02649
3.09425
3.15622
3.21299
3.26511
3.31305
3.35724
3.39806
3.43585
3.4709
3.50347
3.53379
3.56204
3.58841
3.61303
3.63597
3.65735
3.67729
3.69585
3.71312
3.72915
3.74396
3.7576
3.77007
3.7814
3.79158
3.80063
3.80854
3.81533
3.82101
3.82557
3.82902
3.83136
3.83257
3.83259
3.83137
3.82881
3.82479
3.81922
3.81202
3.80323
3.79299
3.7817
3.77026
0.549997
0.497833
0.454862
0.419311
0.390008
0.366314
0.347991
0.335115
0.328033
0.327378
0.334101
0.349515
0.375307
0.413461
0.46604
0.534794
0.620652
0.723263
0.840805
0.970169
1.10746
1.24861
1.38992
1.52835
1.66166
1.78835
1.90755
2.01888
2.12232
2.21806
2.30649
2.38803
2.46319
2.53246
2.59634
2.65528
2.70972
2.76008
2.8067
2.84993
2.89006
2.92736
2.96207
2.99441
3.02456
3.05268
3.07889
3.10328
3.12597
3.14706
3.16662
3.18473
3.20143
3.21677
3.23077
3.24347
3.25487
3.26499
3.27385
3.28146
3.28783
3.29299
3.29695
3.29972
3.30129
3.30164
3.30074
3.29852
3.29492
3.28986
3.2833
3.27527
3.26589
3.25549
3.24485
0.549196
0.49545
0.450382
0.412443
0.380459
0.353629
0.331457
0.313683
0.300245
0.291252
0.28699
0.287933
0.294771
0.308424
0.330031
0.360892
0.402324
0.455437
0.520857
0.598475
0.687317
0.785601
0.890966
1.00079
1.11252
1.22388
1.33303
1.43859
1.5396
1.63547
1.72589
1.81079
1.89022
1.96437
2.03347
2.09782
2.15771
2.21344
2.26531
2.3136
2.35859
2.40051
2.4396
2.47606
2.51008
2.54183
2.57145
2.59905
2.6247
2.64853
2.67061
2.69104
2.70986
2.72713
2.7429
2.75718
2.77002
2.78143
2.79144
2.80007
2.80735
2.81331
2.81797
2.82135
2.82348
2.82435
2.82395
2.82225
2.81921
2.8148
2.80898
2.80179
2.79333
2.78387
2.77406
0.54882
0.494229
0.447927
0.408498
0.374812
0.346017
0.321496
0.300829
0.283749
0.270116
0.259909
0.253214
0.250232
0.251294
0.256863
0.267551
0.2841
0.307348
0.338153
0.377272
0.42521
0.482078
0.54749
0.620553
0.699939
0.784044
0.871158
0.959635
1.04801
1.13506
1.21984
1.30164
1.38
1.45464
1.5254
1.59226
1.65527
1.71453
1.77019
1.82241
1.87136
1.91724
1.9602
2.00043
2.03807
2.07329
2.10621
2.13697
2.16562
2.19225
2.21696
2.23981
2.26088
2.28023
2.2979
2.31393
2.32836
2.34121
2.35254
2.36236
2.37071
2.37763
2.38317
2.38735
2.39022
2.39179
2.39207
2.39107
2.38877
2.38516
2.38022
2.374
2.36657
2.35815
2.3493
0.548657
0.493654
0.446683
0.406388
0.371673
0.341678
0.31574
0.293358
0.274166
0.257902
0.244398
0.233559
0.225367
0.219876
0.217213
0.217587
0.221296
0.228722
0.240335
0.25667
0.278288
0.305721
0.339393
0.379536
0.426116
0.478796
0.536941
0.599667
0.665925
0.734602
0.804607
0.87494
0.944741
1.0133
1.08007
1.14463
1.20671
1.26611
1.32274
1.37656
1.42758
1.47584
1.52141
1.56438
1.60483
1.64287
1.67858
1.71206
1.74339
1.77261
1.79978
1.82496
1.84823
1.86963
1.88922
1.90702
1.9231
1.93748
1.9502
1.96132
1.97087
1.97889
1.98546
1.99061
1.99439
1.99684
1.99801
1.9979
1.99654
1.99392
1.99006
1.98499
1.97878
1.97159
1.96389
0.548592
0.493406
0.446107
0.405351
0.370059
0.339371
0.312608
0.289233
0.268829
0.251075
0.235728
0.222608
0.211595
0.202617
0.19565
0.190716
0.187888
0.187286
0.189086
0.193519
0.200869
0.211469
0.225679
0.243868
0.26637
0.293444
0.325224
0.361686
0.402619
0.447634
0.496183
0.547606
0.601178
0.656168
0.711876
0.767668
0.822995
0.877399
0.930512
0.98205
1.0318
1.07961
1.12539
1.16906
1.21061
1.25003
1.28733
1.32253
1.35567
1.38678
1.41586
1.44293
1.46803
1.4912
1.51248
1.53191
1.54952
1.56536
1.57947
1.5919
1.6027
1.61193
1.61965
1.62591
1.63079
1.63434
1.63661
1.63764
1.63746
1.6361
1.63358
1.62993
1.62521
1.61955
1.6133
0.548569
0.49331
0.445866
0.40489
0.369304
0.338249
0.311036
0.287114
0.266042
0.247465
0.231105
0.216739
0.204196
0.193345
0.184094
0.176382
0.17018
0.165488
0.162338
0.160793
0.160948
0.162932
0.16691
0.173077
0.181656
0.192888
0.207014
0.224254
0.244789
0.268724
0.296075
0.326749
0.360542
0.397143
0.436158
0.47713
0.519575
0.563004
0.606948
0.650977
0.694708
0.737809
0.780004
0.821063
0.860803
0.899081
0.935783
0.970829
1.00416
1.03573
1.06552
1.09347
1.11957
1.14382
1.16624
1.18684
1.20565
1.2227
1.23803
1.25168
1.26371
1.27418
1.28316
1.2907
1.29689
1.30177
1.30543
1.3079
1.30924
1.30948
1.30865
1.30679
1.30393
1.30018
1.29581
0.548561
0.493276
0.445775
0.404707
0.368989
0.337759
0.310324
0.286125
0.264707
0.245702
0.22881
0.213787
0.200435
0.188595
0.17814
0.168972
0.161016
0.154218
0.148548
0.143992
0.140556
0.138266
0.137167
0.137327
0.138831
0.141788
0.146325
0.152588
0.160732
0.170915
0.183288
0.197983
0.215094
0.234666
0.256683
0.281062
0.307653
0.336239
0.366552
0.398287
0.431113
0.464694
0.4987
0.532817
0.566756
0.600258
0.633093
0.665063
0.696
0.725765
0.754246
0.781358
0.806991
0.831091
0.85362
0.87456
0.893905
0.911664
0.927856
0.942514
0.955677
0.967395
0.977724
0.986723
0.994457
1.00099
1.00638
1.01068
1.01394
1.0162
1.01749
1.01784
1.01729
1.01591
1.01387
0.548559
0.493266
0.445745
0.404642
0.368873
0.337571
0.31004
0.285716
0.264139
0.24493
0.227779
0.212432
0.198676
0.186338
0.175272
0.165362
0.156511
0.148642
0.141694
0.13562
0.13039
0.125983
0.122391
0.11962
0.117686
0.116617
0.116455
0.117254
0.11908
0.122013
0.126141
0.131563
0.138379
0.14669
0.156589
0.168154
0.181436
0.196459
0.213205
0.231616
0.251591
0.272988
0.295629
0.319307
0.343797
0.368862
0.394264
0.41977
0.44516
0.470233
0.494806
0.518724
0.541853
0.564053
0.585229
0.605304
0.624224
0.641951
0.658467
0.673766
0.687853
0.700748
0.712476
0.723073
0.732575
0.741026
0.748467
0.75494
0.760482
0.765125
0.768896
0.771819
0.773918
0.775233
0.775873
0.548558
0.493263
0.445735
0.404622
0.368836
0.337509
0.309944
0.285572
0.26393
0.244636
0.227375
0.211885
0.197946
0.185378
0.174026
0.163764
0.154484
0.146098
0.138532
0.131724
0.125625
0.120197
0.11541
0.111242
0.10768
0.10472
0.102362
0.100617
0.0995
0.0990368
0.0992589
0.100206
0.101924
0.104467
0.107894
0.112267
0.11765
0.124106
0.13169
0.140449
0.150413
0.161594
0.173981
0.187535
0.202194
0.217867
0.234441
0.251783
0.269746
0.288172
0.306901
0.325775
0.344647
0.363369
0.381801
0.399818
0.417312
0.43419
0.450375
0.465806
0.480435
0.494228
0.507161
0.519223
0.530411
0.54073
0.55019
0.558805
0.566591
0.573565
0.579742
0.585135
0.589758
0.593634
0.596809
0.548558
0.493263
0.445733
0.404617
0.368827
0.337493
0.309918
0.285532
0.26387
0.244548
0.227249
0.211707
0.197701
0.185045
0.173583
0.163183
0.153733
0.145139
0.137321
0.130213
0.123758
0.11791
0.112631
0.10789
0.103663
0.099932
0.0966848
0.0939146
0.0916196
0.0898032
0.0884736
0.0876441
0.0873327
0.0875625
0.0883618
0.0897634
0.0918048
0.0945275
0.0979764
0.102198
0.107239
0.113145
0.119956
0.127704
0.136411
0.146084
0.156716
0.168278
0.180723
0.193984
0.207975
0.222593
0.237725
0.253251
0.269038
0.284949
0.300852
0.31662
0.332134
0.347287
0.361987
0.376151
0.389714
0.402623
0.414836
0.426325
0.437071
0.447063
0.456299
0.464778
0.472504
0.479483
0.485723
0.491233
0.496031
0.548558
0.493263
0.445733
0.404617
0.368827
0.337493
0.309918
0.285532
0.26387
0.244548
0.227249
0.211707
0.197701
0.185045
0.173583
0.163183
0.153733
0.145138
0.137321
0.130212
0.123758
0.11791
0.112631
0.10789
0.103663
0.0999317
0.0966844
0.0939141
0.0916191
0.0898026
0.0884729
0.0876433
0.0873318
0.0875615
0.0883607
0.0897621
0.0918033
0.0945259
0.0979745
0.102196
0.107237
0.113143
0.119953
0.127701
0.136407
0.146081
0.156713
0.168275
0.18072
0.19398
0.207971
0.222589
0.237721
0.253247
0.269034
0.284945
0.300848
0.316616
0.33213
0.347283
0.361983
0.376148
0.389711
0.40262
0.414833
0.426323
0.437069
0.447061
0.456296
0.464773
0.472497
0.479472
0.485705
0.491207
0.495997
0.548558
0.493263
0.445735
0.404622
0.368836
0.337509
0.309944
0.285572
0.26393
0.244636
0.227375
0.211884
0.197946
0.185377
0.174026
0.163763
0.154484
0.146097
0.138531
0.131722
0.125623
0.120195
0.115407
0.111239
0.107677
0.104716
0.102357
0.100611
0.0994937
0.0990294
0.0992503
0.100196
0.101912
0.104454
0.107878
0.112249
0.11763
0.124083
0.131665
0.14042
0.150381
0.161559
0.173942
0.187492
0.202147
0.217817
0.234387
0.251726
0.269686
0.288109
0.306836
0.325707
0.344578
0.363298
0.381729
0.399745
0.417238
0.434116
0.450301
0.465732
0.480361
0.494155
0.507089
0.519152
0.530342
0.540662
0.550123
0.558738
0.566522
0.573491
0.579659
0.585039
0.589644
0.593497
0.596648
0.548559
0.493266
0.445745
0.404642
0.368873
0.337571
0.31004
0.285716
0.264138
0.244929
0.227779
0.212431
0.198675
0.186336
0.175271
0.16536
0.156509
0.148639
0.14169
0.135616
0.130384
0.125976
0.122383
0.119611
0.117674
0.116603
0.116439
0.117235
0.119058
0.121987
0.126111
0.131527
0.138338
0.146643
0.156536
0.168092
0.181367
0.196381
0.213119
0.231521
0.251487
0.272876
0.295508
0.319178
0.343661
0.368719
0.394114
0.419614
0.445
0.470068
0.494637
0.518553
0.541678
0.563877
0.585051
0.605124
0.624043
0.641771
0.658287
0.673586
0.687674
0.700571
0.712301
0.7229
0.732405
0.740858
0.7483
0.754772
0.76031
0.764943
0.768698
0.771597
0.773665
0.774944
0.775549
0.548561
0.493276
0.445775
0.404707
0.368988
0.337758
0.310324
0.286124
0.264706
0.245701
0.228808
0.213785
0.200432
0.188591
0.178136
0.168967
0.161009
0.15421
0.148538
0.143979
0.14054
0.138247
0.137145
0.1373
0.138799
0.14175
0.146281
0.152535
0.16067
0.170842
0.183205
0.197887
0.214983
0.23454
0.256542
0.280906
0.307481
0.336052
0.366351
0.398072
0.430885
0.464455
0.49845
0.532558
0.566489
0.599984
0.632813
0.664778
0.695711
0.725472
0.753951
0.781061
0.806692
0.830791
0.853319
0.874259
0.893604
0.911363
0.927556
0.942215
0.95538
0.9671
0.977432
0.986435
0.994173
1.00071
1.0061
1.01039
1.01365
1.01589
1.01715
1.01747
1.01688
1.01544
1.01336
0.548569
0.49331
0.445866
0.404889
0.369303
0.338248
0.311035
0.287112
0.266039
0.247462
0.2311
0.216733
0.204189
0.193336
0.184083
0.176368
0.170163
0.165467
0.162313
0.160762
0.16091
0.162886
0.166854
0.173011
0.181577
0.192794
0.206902
0.224124
0.244637
0.268549
0.295877
0.326527
0.360295
0.396872
0.435863
0.476815
0.51924
0.562652
0.606581
0.650597
0.694316
0.737408
0.779595
0.820648
0.860384
0.898657
0.935358
0.970401
1.00373
1.0353
1.06509
1.09304
1.11914
1.14339
1.16581
1.18641
1.20522
1.22227
1.2376
1.25126
1.26329
1.27377
1.28275
1.29029
1.29648
1.30137
1.30503
1.3075
1.30883
1.30904
1.30818
1.30626
1.30334
1.29952
1.29509
0.548592
0.493406
0.446106
0.40535
0.370057
0.339369
0.312604
0.289228
0.268823
0.251067
0.235717
0.222595
0.211579
0.202597
0.195624
0.190685
0.187849
0.187238
0.189027
0.193447
0.200782
0.211362
0.225551
0.243714
0.266187
0.293228
0.324974
0.361399
0.402296
0.447274
0.495789
0.547179
0.600722
0.655686
0.711372
0.767145
0.822457
0.876849
0.929952
0.981482
1.03123
1.07904
1.12481
1.16848
1.21003
1.24945
1.28675
1.32196
1.3551
1.38621
1.41529
1.44236
1.46746
1.49063
1.51192
1.53135
1.54896
1.56481
1.57892
1.59135
1.60215
1.61139
1.61911
1.62538
1.63026
1.63381
1.63608
1.6371
1.63691
1.63552
1.63295
1.62923
1.62442
1.61866
1.61232
0.548657
0.493653
0.446681
0.406385
0.371669
0.341672
0.315732
0.293348
0.274153
0.257886
0.244376
0.233532
0.225333
0.219833
0.217159
0.21752
0.221212
0.228618
0.240206
0.256511
0.278094
0.305486
0.339112
0.379205
0.425732
0.478359
0.536452
0.599128
0.665342
0.733979
0.80395
0.874255
0.944033
1.01258
1.07933
1.14388
1.20595
1.26535
1.32198
1.3758
1.42682
1.47508
1.52066
1.56363
1.60409
1.64213
1.67784
1.71132
1.74266
1.77188
1.79905
1.82424
1.84752
1.86892
1.88851
1.90632
1.9224
1.93678
1.94951
1.96062
1.97018
1.97821
1.98478
1.98993
1.99372
1.99618
1.99735
1.99723
1.99584
1.99318
1.98925
1.98409
1.97775
1.97044
1.9626
0.54882
0.494228
0.447924
0.408492
0.374804
0.346005
0.321481
0.300809
0.283722
0.270083
0.259867
0.253159
0.250163
0.251206
0.256753
0.267411
0.283923
0.307126
0.337878
0.376935
0.424804
0.481598
0.546934
0.619922
0.699239
0.783281
0.870341
0.958773
1.04711
1.13413
1.21889
1.30068
1.37903
1.45366
1.52442
1.59128
1.65429
1.71356
1.76922
1.82145
1.87041
1.91629
1.95927
1.9995
2.03715
2.07237
2.1053
2.13606
2.16472
2.19136
2.21607
2.23893
2.26
2.27935
2.29703
2.31306
2.32749
2.34035
2.35168
2.3615
2.36986
2.37679
2.38234
2.38653
2.3894
2.39098
2.39126
2.39025
2.38792
2.38424
2.37921
2.37286
2.36526
2.35666
2.34762
0.549195
0.495446
0.450375
0.412431
0.380442
0.353607
0.331427
0.313645
0.300196
0.291189
0.286908
0.287827
0.294635
0.308247
0.329804
0.360602
0.401957
0.454981
0.520302
0.597814
0.68655
0.784734
0.890008
0.999757
1.11142
1.22273
1.33185
1.43738
1.53838
1.63424
1.72466
1.80955
1.88899
1.96314
2.03226
2.09661
2.15651
2.21225
2.26413
2.31244
2.35744
2.39937
2.43847
2.47494
2.50896
2.54072
2.57035
2.59795
2.62362
2.64745
2.66954
2.68997
2.7088
2.72607
2.74184
2.75613
2.76897
2.78039
2.7904
2.79904
2.80632
2.81229
2.81696
2.82035
2.82249
2.82337
2.82297
2.82125
2.81817
2.81367
2.80773
2.80036
2.79168
2.78197
2.7719
0.549994
0.497825
0.454848
0.419289
0.389977
0.366273
0.347938
0.335046
0.327943
0.32726
0.333945
0.34931
0.375036
0.413106
0.46558
0.534211
0.61993
0.722395
0.839792
0.969022
1.1062
1.24725
1.38849
1.52687
1.66014
1.78681
1.906
2.01733
2.12077
2.21653
2.30497
2.38653
2.4617
2.53099
2.59488
2.65384
2.7083
2.75866
2.8053
2.84854
2.88868
2.926
2.96072
2.99307
3.02323
3.05136
3.07758
3.10198
3.12467
3.14576
3.16533
3.18345
3.20015
3.2155
3.22951
3.24221
3.25361
3.26374
3.2726
3.28021
3.2866
3.29177
3.29574
3.29852
3.3001
3.30046
3.29956
3.29732
3.29365
3.28849
3.28176
3.2735
3.26383
3.2531
3.24211
0.551572
0.502144
0.462491
0.430575
0.405384
0.386669
0.374721
0.370286
0.374571
0.389323
0.416894
0.460212
0.522523
0.606781
0.714752
0.846117
0.99805
1.16556
1.34246
1.52252
1.70035
1.87185
2.03428
2.18606
2.3265
2.45559
2.57369
2.68144
2.77961
2.86901
2.95045
3.0247
3.09249
3.15448
3.21127
3.26341
3.31137
3.35558
3.39642
3.43422
3.46928
3.50186
3.53219
3.56046
3.58684
3.61146
3.63441
3.6558
3.67574
3.69432
3.71159
3.72762
3.74244
3.75608
3.76856
3.77989
3.79007
3.79913
3.80704
3.81384
3.81952
3.82409
3.82756
3.82992
3.83115
3.83119
3.82996
3.82737
3.82327
3.81756
3.81016
3.80106
3.79044
3.77871
3.76681
0.55449
0.509515
0.474874
0.448389
0.429558
0.418956
0.417945
0.428659
0.454136
0.498425
0.566438
0.663225
0.792544
0.95509
1.14733
1.36182
1.58889
1.81885
2.04358
2.25729
2.45647
2.63945
2.80589
2.95629
3.09168
3.2133
3.32248
3.42054
3.50873
3.58817
3.6599
3.72483
3.78376
3.83741
3.88638
3.93123
3.97242
4.01036
4.0454
4.07786
4.108
4.13605
4.16222
4.18667
4.20955
4.23092
4.2509
4.2696
4.2871
4.30347
4.31876
4.333
4.34622
4.35844
4.36965
4.37988
4.3891
4.39732
4.40453
4.41074
4.41594
4.42013
4.42332
4.42547
4.42654
4.42646
4.4251
4.42232
4.41795
4.41181
4.40379
4.3939
4.3823
4.36951
4.35661
0.559583
0.521462
0.494144
0.475753
0.466982
0.470068
0.48856
0.527523
0.593716
0.69517
0.839487
1.03078
1.2666
1.53718
1.82787
2.12319
2.41021
2.68004
2.92774
3.15142
3.35124
3.52854
3.68531
3.82373
3.94595
4.05401
4.14977
4.23485
4.31069
4.37852
4.43942
4.49431
4.54398
4.58909
4.63024
4.6679
4.70252
4.73445
4.76401
4.79146
4.81703
4.84093
4.86332
4.88433
4.90404
4.92254
4.93994
4.95633
4.97175
4.98626
4.9999
5.01268
5.02462
5.03572
5.04597
5.05536
5.0639
5.07155
5.07831
5.08417
5.08914
5.0932
5.09633
5.0985
5.09964
5.09966
5.09838
5.0956
5.0911
5.08464
5.07607
5.06536
5.05273
5.03873
5.02466
0.568046
0.540055
0.523319
0.517269
0.525073
0.552333
0.607175
0.700596
0.845582
1.05349
1.3279
1.65988
2.02915
2.41088
2.78314
3.13077
3.44567
3.72519
3.97012
4.18314
4.36773
4.52749
4.66589
4.78604
4.89065
4.98209
5.06235
5.13311
5.19579
5.2516
5.30154
5.34646
5.38706
5.42394
5.45762
5.48853
5.51701
5.54339
5.56792
5.59083
5.6123
5.6325
5.65154
5.66952
5.68648
5.70254
5.71777
5.73222
5.74595
5.75897
5.77132
5.78298
5.79397
5.80427
5.81387
5.82274
5.83087
5.83824
5.84482
5.85061
5.8556
5.85977
5.8631
5.86555
5.86701
5.86736
5.86638
5.86381
5.85935
5.85269
5.84361
5.83206
5.81825
5.80284
5.78729
0.581544
0.568148
0.56688
0.580426
0.616956
0.689037
0.814135
1.0132
1.30366
1.68754
2.14433
2.63718
3.1276
3.58692
3.99935
4.35958
4.66893
4.93203
5.15478
5.34317
5.50268
5.63813
5.7536
5.8525
5.93765
6.01139
6.07561
6.1319
6.18155
6.22562
6.265
6.30042
6.33248
6.36168
6.38846
6.41315
6.43606
6.45743
6.47746
6.49634
6.51421
6.53118
6.54733
6.5627
6.57737
6.59141
6.60488
6.61781
6.63023
6.64214
6.65356
6.66446
6.67485
6.68469
6.69395
6.70262
6.71065
6.71803
6.72472
6.73072
6.73601
6.74057
6.74438
6.74738
6.74944
6.7504
6.74998
6.74786
6.74363
6.73691
6.72737
6.71492
6.69974
6.68258
6.66508
0.6024
0.609839
0.631903
0.678265
0.767348
0.926113
1.18836
1.58242
2.10857
2.72746
3.37659
3.99885
4.55868
5.04194
5.44872
5.78634
6.06468
6.2937
6.48236
6.63827
6.76772
6.8758
6.96659
7.04337
7.10877
7.16489
7.21342
7.25574
7.29294
7.32591
7.35539
7.38198
7.40615
7.42832
7.44881
7.4679
7.48582
7.50274
7.51882
7.53419
7.54895
7.56317
7.57687
7.5901
7.60292
7.61538
7.62751
7.63932
7.65083
7.66202
7.67288
7.68339
7.69353
7.70325
7.71253
7.72132
7.72958
7.73729
7.74441
7.75092
7.75682
7.76208
7.76668
7.77053
7.77351
7.77539
7.77585
7.77446
7.77072
7.7641
7.75417
7.74073
7.72393
7.70458
7.68446
0.633903
0.671346
0.73035
0.835057
1.02526
1.35491
1.87316
2.582
3.41343
4.26465
5.05167
5.73151
6.29488
6.75093
7.1158
7.40645
7.63802
7.82307
7.97166
8.09167
8.18926
8.26921
8.33522
8.3902
8.43639
8.47559
8.5092
8.53832
8.56385
8.58649
8.60681
8.62528
8.64226
8.65804
8.67288
8.68696
8.70045
8.71347
8.72613
8.73849
8.75063
8.76256
8.77426
8.78581
8.79722
8.80854
8.81976
8.83087
8.84187
8.85273
8.86344
8.87394
8.88421
8.89419
8.90385
8.91312
8.92197
8.93035
8.93824
8.94561
8.95246
8.95876
8.96449
8.96957
8.97383
8.97702
8.97874
8.97844
8.97549
8.96921
8.95899
8.94449
8.92576
8.90361
8.87998
0.680892
0.762711
0.883889
1.0988
1.49025
2.14654
3.08538
4.19938
5.32037
6.32173
7.15124
7.80921
8.3194
8.711
9.01073
9.24048
9.41726
9.554
9.6604
9.74375
9.80952
9.86183
9.9038
9.93782
9.96572
9.9889
10.0084
10.0252
10.0399
10.053
10.0648
10.0759
10.0863
10.0963
10.1061
10.1157
10.1253
10.135
10.1447
10.1545
10.1645
10.1746
10.1848