/*--------------------------------*- C++ -*----------------------------------*\
  =========                 |
  \\      /  F ield         | OpenFOAM: The Open Source CFD Toolbox
   \\    /   O peration     | Website:  https://openfoam.org
    \\  /    A nd           | Version:  7
     \\/     M anipulation  |
\*---------------------------------------------------------------------------*/
FoamFile
{
    version     2.0;
    format      ascii;
    class       volScalarField;
    location    "900";
    object      k;
}
// * * * * * * * * * * * * * * * * * * * * * * * * * * * * * * * * * * * * * //

dimensions      [0 2 -2 0 0 0 0];

internalField   nonuniform List<scalar> 
4500
(
2.10711
1.99003
1.89804
1.8345
1.78632
1.74875
1.71881
1.69443
1.67421
1.65718
1.64268
1.6302
1.61939
1.60996
1.6017
1.59444
1.58803
1.58238
1.57737
1.57295
1.56904
1.56558
1.56254
1.55986
1.55753
1.55549
1.55374
1.55223
1.55096
1.54991
1.54905
1.54837
1.54786
1.54751
1.54731
1.54724
1.54729
1.54746
1.54774
1.54812
1.5486
1.54916
1.54981
1.55053
1.55133
1.55219
1.55312
1.5541
1.55513
1.55621
1.55733
1.55849
1.55969
1.56091
1.56215
1.56341
1.56468
1.56597
1.56725
1.56853
1.56981
1.57109
1.57236
1.57364
1.57492
1.57619
1.57746
1.57868
1.57982
1.58083
1.58163
1.58214
1.58225
1.58189
1.58101
1.10354
1.6732
1.8379
1.85191
1.83283
1.80901
1.78664
1.7669
1.74973
1.73484
1.72188
1.71057
1.70066
1.69195
1.68428
1.6775
1.67151
1.6662
1.66151
1.65736
1.6537
1.65047
1.64764
1.64516
1.64301
1.64115
1.63956
1.63823
1.63712
1.63622
1.63551
1.63499
1.63463
1.63443
1.63437
1.63445
1.63464
1.63495
1.63536
1.63588
1.63649
1.63718
1.63797
1.63882
1.63975
1.64074
1.6418
1.64291
1.64407
1.64527
1.64651
1.64779
1.6491
1.65044
1.65179
1.65315
1.65452
1.6559
1.65726
1.65863
1.65998
1.66133
1.66269
1.66405
1.66544
1.66685
1.66829
1.66971
1.67107
1.67229
1.67324
1.67378
1.67374
1.6729
1.67111
0.644943
1.23225
1.53537
1.63719
1.66542
1.66864
1.66318
1.65482
1.64581
1.63702
1.62881
1.62129
1.61447
1.60833
1.60283
1.5979
1.59351
1.5896
1.58613
1.58307
1.58037
1.578
1.57594
1.57416
1.57264
1.57135
1.57029
1.56943
1.56875
1.56825
1.56791
1.56772
1.56767
1.56775
1.56795
1.56826
1.56868
1.56918
1.56978
1.57046
1.57122
1.57206
1.57297
1.57394
1.57497
1.57606
1.57719
1.57837
1.57959
1.58085
1.58213
1.58345
1.58478
1.58613
1.58749
1.58885
1.59021
1.59156
1.59289
1.59422
1.59553
1.59684
1.59816
1.59951
1.60091
1.60237
1.60388
1.60543
1.60693
1.60826
1.60923
1.60961
1.60913
1.60747
1.6043
0.463615
0.893401
1.25805
1.43575
1.5127
1.54555
1.55894
1.56332
1.56337
1.56132
1.55829
1.55487
1.55137
1.54798
1.54477
1.54181
1.5391
1.53665
1.53446
1.53253
1.53083
1.52936
1.52811
1.52705
1.52619
1.5255
1.52498
1.52462
1.5244
1.52432
1.52436
1.52453
1.52481
1.52519
1.52567
1.52625
1.52691
1.52765
1.52845
1.52933
1.53027
1.53127
1.53233
1.53345
1.53461
1.53582
1.53706
1.53834
1.53965
1.54099
1.54235
1.54372
1.54511
1.5465
1.5479
1.54929
1.55066
1.55202
1.55335
1.55467
1.55596
1.55726
1.55857
1.55993
1.56136
1.56288
1.56449
1.56615
1.56777
1.56916
1.57009
1.57024
1.56924
1.56668
1.56214
0.39407
0.646738
0.998479
1.23088
1.35547
1.4206
1.45545
1.47456
1.48513
1.49089
1.49385
1.49516
1.49547
1.49521
1.49462
1.49387
1.49306
1.49226
1.49151
1.49084
1.49026
1.48979
1.48943
1.48919
1.48906
1.48904
1.48912
1.48932
1.48961
1.49
1.49048
1.49104
1.49169
1.49242
1.49323
1.4941
1.49504
1.49604
1.49708
1.49818
1.49933
1.50053
1.50177
1.50306
1.50438
1.50573
1.50711
1.50851
1.50994
1.51138
1.51283
1.51429
1.51575
1.51721
1.51866
1.5201
1.52151
1.52289
1.52424
1.52557
1.52687
1.52816
1.52948
1.53086
1.53233
1.5339
1.53559
1.53733
1.539
1.5404
1.54122
1.54108
1.53952
1.53608
1.53025
0.370615
0.488905
0.769299
1.02349
1.18836
1.28645
1.34497
1.38088
1.40366
1.41854
1.4285
1.43532
1.44007
1.44345
1.44589
1.4477
1.44908
1.45017
1.45107
1.45184
1.45255
1.45323
1.45389
1.45457
1.45527
1.45601
1.45679
1.45761
1.45848
1.45941
1.46038
1.4614
1.46248
1.4636
1.46477
1.46598
1.46724
1.46853
1.46986
1.47122
1.47261
1.47403
1.47549
1.47697
1.47847
1.47999
1.48153
1.48308
1.48465
1.48621
1.48778
1.48935
1.4909
1.49245
1.49397
1.49547
1.49693
1.49836
1.49974
1.50108
1.5024
1.50371
1.50505
1.50644
1.50794
1.50956
1.51129
1.51306
1.51474
1.51608
1.51674
1.51627
1.51417
1.50992
1.50299
0.364546
0.403111
0.587007
0.823641
1.01304
1.14094
1.22398
1.27842
1.31506
1.34046
1.35856
1.3718
1.38173
1.38935
1.39533
1.40011
1.40404
1.40732
1.41012
1.41258
1.41476
1.41675
1.4186
1.42033
1.42199
1.4236
1.42517
1.42672
1.42826
1.42979
1.43133
1.43287
1.43443
1.436
1.43759
1.43919
1.44081
1.44245
1.44409
1.44575
1.44742
1.44911
1.4508
1.45251
1.45422
1.45595
1.45767
1.4594
1.46112
1.46283
1.46454
1.46623
1.4679
1.46955
1.47116
1.47274
1.47427
1.47575
1.47718
1.47856
1.4799
1.48124
1.48259
1.48401
1.48552
1.48716
1.48891
1.49068
1.49232
1.49356
1.49403
1.49323
1.49064
1.4857
1.47789
0.364603
0.363346
0.460994
0.64658
0.836783
0.985712
1.09154
1.16521
1.21704
1.25428
1.28169
1.30236
1.31829
1.33084
1.34093
1.34918
1.35605
1.36188
1.3669
1.37129
1.37519
1.3787
1.38191
1.38487
1.38763
1.39024
1.39272
1.3951
1.3974
1.39963
1.40182
1.40396
1.40607
1.40816
1.41023
1.41228
1.41431
1.41634
1.41835
1.42035
1.42234
1.42433
1.4263
1.42827
1.43023
1.43218
1.43412
1.43605
1.43796
1.43985
1.44171
1.44355
1.44535
1.44712
1.44885
1.45052
1.45214
1.45369
1.45518
1.45661
1.45799
1.45936
1.46073
1.46217
1.46369
1.46533
1.46707
1.46881
1.47038
1.47149
1.47175
1.47065
1.46764
1.46216
1.45371
0.366685
0.347483
0.386684
0.507132
0.671669
0.826391
0.949252
1.04089
1.10836
1.15845
1.19625
1.22534
1.24815
1.26638
1.28121
1.29348
1.30378
1.31256
1.32014
1.32678
1.33266
1.33794
1.34271
1.34708
1.35112
1.35488
1.35841
1.36175
1.36493
1.36797
1.3709
1.37373
1.37647
1.37915
1.38177
1.38433
1.38684
1.38932
1.39175
1.39414
1.3965
1.39883
1.40113
1.4034
1.40564
1.40786
1.41004
1.4122
1.41432
1.41641
1.41846
1.42047
1.42243
1.42435
1.4262
1.42799
1.42971
1.43135
1.43292
1.43441
1.43585
1.43725
1.43865
1.4401
1.44164
1.44326
1.44497
1.44664
1.44812
1.44909
1.44915
1.44779
1.44445
1.4386
1.42974
0.369317
0.342581
0.348917
0.412157
0.531963
0.672822
0.801903
0.907129
0.989078
1.05222
1.10113
1.13949
1.17002
1.1947
1.21496
1.23184
1.24608
1.25827
1.26882
1.27805
1.28623
1.29353
1.30012
1.30612
1.31163
1.31672
1.32146
1.3259
1.33009
1.33406
1.33784
1.34146
1.34494
1.3483
1.35154
1.35469
1.35776
1.36074
1.36366
1.3665
1.36928
1.372
1.37467
1.37729
1.37985
1.38237
1.38484
1.38727
1.38964
1.39196
1.39423
1.39643
1.39858
1.40066
1.40267
1.4046
1.40644
1.40819
1.40985
1.41142
1.41292
1.41437
1.41581
1.41728
1.41881
1.42042
1.42207
1.42368
1.42504
1.42587
1.42575
1.42418
1.42062
1.41454
1.40549
0.371958
0.342445
0.332102
0.356566
0.42837
0.537786
0.658014
0.768348
0.860997
0.935939
0.995905
1.044
1.08291
1.11474
1.1411
1.16319
1.18194
1.19802
1.21198
1.2242
1.23501
1.24466
1.25334
1.26122
1.26842
1.27504
1.28118
1.28689
1.29224
1.29728
1.30205
1.30658
1.3109
1.31503
1.319
1.32283
1.32652
1.33009
1.33356
1.33692
1.34018
1.34336
1.34645
1.34946
1.3524
1.35527
1.35807
1.3608
1.36346
1.36605
1.36856
1.371
1.37336
1.37564
1.37783
1.37992
1.3819
1.38378
1.38556
1.38723
1.38881
1.39032
1.39181
1.3933
1.39483
1.39641
1.398
1.39952
1.40077
1.40146
1.40119
1.39948
1.39579
1.38962
1.38058
0.374409
0.344309
0.325896
0.328085
0.362098
0.432748
0.529167
0.632415
0.728536
0.811707
0.881286
0.938793
0.986292
1.02573
1.05874
1.08663
1.11042
1.13091
1.14873
1.16436
1.17819
1.19052
1.20161
1.21164
1.22079
1.22918
1.23691
1.24409
1.25078
1.25705
1.26294
1.26851
1.2738
1.27883
1.28363
1.28823
1.29265
1.29689
1.30099
1.30494
1.30876
1.31246
1.31604
1.31951
1.32288
1.32615
1.32933
1.33241
1.3354
1.33829
1.3411
1.3438
1.34641
1.34892
1.35131
1.35359
1.35575
1.35779
1.3597
1.36148
1.36316
1.36475
1.36629
1.36781
1.36935
1.3709
1.37244
1.37387
1.37501
1.37558
1.3752
1.37339
1.36966
1.36355
1.35467
0.376595
0.346935
0.32478
0.315189
0.325142
0.361913
0.426574
0.510145
0.599357
0.684171
0.759763
0.824969
0.880429
0.92743
0.967348
1.00143
1.03072
1.05608
1.07822
1.09769
1.11493
1.13032
1.14415
1.15665
1.16802
1.17843
1.188
1.19685
1.20508
1.21276
1.21995
1.22672
1.23312
1.23917
1.24493
1.25042
1.25566
1.26068
1.2655
1.27014
1.2746
1.27889
1.28303
1.28702
1.29089
1.29462
1.29823
1.30172
1.30509
1.30834
1.31147
1.31449
1.31738
1.32015
1.32279
1.3253
1.32766
1.32988
1.33195
1.33387
1.33567
1.33736
1.33897
1.34053
1.34208
1.34361
1.3451
1.34645
1.34749
1.34796
1.34749
1.34566
1.34197
1.33602
1.32745
0.378494
0.349749
0.326042
0.310425
0.306798
0.320311
0.355502
0.412199
0.483847
0.561114
0.636428
0.705553
0.766924
0.820518
0.867011
0.907312
0.942336
0.972909
0.999742
1.02343
1.04448
1.06329
1.08019
1.09548
1.10938
1.12209
1.13376
1.14452
1.1545
1.1638
1.17248
1.18062
1.18828
1.19552
1.20237
1.20888
1.21507
1.22098
1.22663
1.23204
1.23723
1.24221
1.247
1.2516
1.25603
1.26029
1.2644
1.26835
1.27216
1.27582
1.27934
1.28271
1.28594
1.28901
1.29194
1.2947
1.2973
1.29973
1.30199
1.30409
1.30603
1.30784
1.30954
1.31116
1.31273
1.31425
1.3157
1.31698
1.31794
1.31833
1.31782
1.316
1.31244
1.30674
1.2986
0.380104
0.352469
0.328352
0.309741
0.298825
0.298554
0.31258
0.343818
0.391993
0.452699
0.519406
0.586268
0.64949
0.707223
0.758929
0.804788
0.845312
0.881119
0.912829
0.94101
0.96616
0.988712
1.00903
1.02742
1.04416
1.05945
1.07348
1.08642
1.09839
1.10952
1.11989
1.1296
1.13872
1.1473
1.15541
1.16308
1.17036
1.17729
1.18389
1.19019
1.19621
1.20198
1.2075
1.2128
1.21787
1.22275
1.22743
1.23192
1.23623
1.24037
1.24432
1.24811
1.25172
1.25515
1.2584
1.26147
1.26435
1.26703
1.26952
1.27181
1.27393
1.27588
1.27769
1.27939
1.281
1.28253
1.28395
1.28518
1.28608
1.28642
1.2859
1.28415
1.28077
1.2754
1.26777
0.381432
0.354953
0.331036
0.311052
0.296302
0.288389
0.289475
0.302115
0.328313
0.36807
0.418684
0.475701
0.534633
0.59211
0.646117
0.695722
0.740693
0.781189
0.817558
0.850219
0.879597
0.906091
0.930062
0.951827
0.971665
0.989815
1.00648
1.02185
1.03606
1.04926
1.06155
1.07303
1.08379
1.0939
1.10343
1.11244
1.12096
1.12904
1.13673
1.14405
1.15103
1.1577
1.16407
1.17015
1.17598
1.18155
1.18689
1.192
1.19689
1.20157
1.20603
1.21029
1.21434
1.21819
1.22182
1.22524
1.22844
1.23141
1.23417
1.2367
1.23903
1.24115
1.2431
1.24491
1.24659
1.24814
1.24955
1.25076
1.25162
1.25194
1.25145
1.2498
1.24665
1.24167
1.23461
0.382496
0.357126
0.333732
0.313269
0.296566
0.284515
0.278275
0.279385
0.28963
0.310488
0.342261
0.383516
0.431393
0.482568
0.53415
0.584096
0.631194
0.674873
0.714976
0.751595
0.784951
0.815323
0.843002
0.868273
0.8914
0.912621
0.932149
0.950173
0.966858
0.982351
0.996776
1.01025
1.02286
1.0347
1.04584
1.05634
1.06627
1.07568
1.0846
1.09308
1.10115
1.10884
1.11617
1.12316
1.12984
1.13622
1.14231
1.14812
1.15368
1.15898
1.16403
1.16883
1.1734
1.17771
1.18179
1.18561
1.18919
1.19251
1.19557
1.19838
1.20095
1.20329
1.20542
1.20736
1.20913
1.21074
1.21218
1.21338
1.21423
1.21456
1.21412
1.21263
1.20975
1.20519
1.19876
0.383317
0.358954
0.336237
0.315805
0.298201
0.28395
0.27367
0.268176
0.268537
0.276002
0.291697
0.316126
0.348733
0.387879
0.431278
0.47661
0.521952
0.565944
0.607754
0.646952
0.683386
0.71708
0.748158
0.776798
0.803195
0.827551
0.850059
0.870898
0.890233
0.908214
0.924972
0.940628
0.955288
0.969044
0.981982
0.994173
1.00568
1.01657
1.02689
1.03667
1.04597
1.05482
1.06325
1.07128
1.07893
1.08622
1.09317
1.09979
1.10611
1.11212
1.11784
1.12327
1.12842
1.13328
1.13786
1.14216
1.14617
1.14988
1.15331
1.15645
1.15931
1.1619
1.16424
1.16636
1.16826
1.16996
1.17145
1.17268
1.17355
1.17392
1.17358
1.17226
1.16969
1.16559
1.1598
0.383926
0.360429
0.338437
0.318319
0.300425
0.285071
0.272597
0.26342
0.258096
0.257353
0.262057
0.273062
0.290942
0.315686
0.346543
0.382133
0.420773
0.460828
0.500941
0.540122
0.577726
0.61338
0.646914
0.678293
0.707566
0.734832
0.760217
0.783859
0.805894
0.826457
0.845674
0.863661
0.880526
0.896366
0.911269
0.925315
0.938573
0.951108
0.962977
0.97423
0.984912
0.995064
1.00472
1.01391
1.02266
1.03099
1.03892
1.04646
1.05364
1.06047
1.06695
1.0731
1.07891
1.0844
1.08956
1.0944
1.09891
1.10308
1.10693
1.11045
1.11365
1.11655
1.11915
1.12148
1.12355
1.12538
1.12696
1.12826
1.12919
1.12963
1.12941
1.1283
1.12606
1.12245
1.11732
0.384356
0.361567
0.340271
0.320613
0.302785
0.286971
0.273357
0.262155
0.253642
0.248183
0.246262
0.248465
0.255422
0.267671
0.285474
0.308658
0.336564
0.368157
0.40222
0.437572
0.473202
0.508334
0.542423
0.575121
0.606232
0.63567
0.663425
0.689534
0.714068
0.73711
0.758756
0.779099
0.798235
0.816251
0.833234
0.84926
0.864403
0.878727
0.892293
0.905155
0.917362
0.928958
0.939981
0.950466
0.960444
0.969937
0.978964
0.987546
0.995703
1.00345
1.0108
1.01775
1.02433
1.03053
1.03636
1.04181
1.04688
1.05159
1.05592
1.05988
1.06348
1.06673
1.06964
1.07224
1.07453
1.07654
1.07826
1.07966
1.0807
1.08126
1.08119
1.08032
1.07843
1.07532
1.07086
0.384645
0.3624
0.341721
0.322574
0.305012
0.28912
0.274988
0.262719
0.252442
0.244331
0.238618
0.235613
0.235703
0.239328
0.246928
0.258848
0.275219
0.295877
0.320342
0.347879
0.377621
0.408696
0.440324
0.471868
0.502846
0.532919
0.561867
0.589563
0.615944
0.641
0.664751
0.687239
0.708519
0.728653
0.747706
0.765743
0.782828
0.799021
0.814379
0.828956
0.842801
0.855959
0.868469
0.88037
0.891694
0.902469
0.912715
0.922451
0.931697
0.940471
0.948787
0.956657
0.96409
0.971091
0.977665
0.983814
0.989541
0.994846
0.999732
1.0042
1.00826
1.01193
1.01521
1.01812
1.02069
1.02293
1.02484
1.02641
1.02759
1.02831
1.02845
1.02785
1.02633
1.02373
1.01994
0.384827
0.362976
0.342805
0.324148
0.306947
0.291198
0.276922
0.264155
0.252946
0.243368
0.235524
0.229553
0.225648
0.224051
0.225056
0.228985
0.236149
0.246788
0.260999
0.278687
0.299546
0.323088
0.348708
0.375765
0.403652
0.431835
0.459883
0.487464
0.514338
0.540342
0.565373
0.589375
0.612327
0.634233
0.655112
0.674995
0.693921
0.711931
0.72907
0.745381
0.760906
0.775685
0.789757
0.803156
0.815915
0.828063
0.839624
0.850615
0.861053
0.870955
0.880339
0.889216
0.897597
0.905489
0.912899
0.919829
0.926283
0.932265
0.937777
0.942824
0.947415
0.95156
0.955274
0.958576
0.961484
0.964016
0.96618
0.967973
0.969364
0.970297
0.970681
0.970392
0.969284
0.967219
0.964103
0.384935
0.363349
0.343566
0.325333
0.308509
0.293015
0.278815
0.265893
0.254251
0.243905
0.234889
0.227257
0.221089
0.216497
0.213627
0.212662
0.213817
0.217326
0.223417
0.232273
0.243994
0.258559
0.275806
0.295441
0.317067
0.340231
0.364466
0.389336
0.414459
0.439515
0.464253
0.488484
0.51207
0.534916
0.556964
0.578181
0.598555
0.618086
0.636787
0.654676
0.671778
0.688117
0.703722
0.718617
0.73283
0.746385
0.759304
0.771606
0.783303
0.794407
0.804933
0.814895
0.824302
0.833163
0.841485
0.849272
0.856529
0.86326
0.869471
0.875167
0.880357
0.885054
0.889272
0.893031
0.896351
0.899251
0.901745
0.903836
0.90551
0.906728
0.907423
0.907501
0.906846
0.905345
0.902927
0.384994
0.363574
0.344062
0.326166
0.309682
0.294477
0.280464
0.267588
0.255813
0.24512
0.235503
0.226971
0.219547
0.21327
0.208201
0.204423
0.202042
0.201191
0.202024
0.20471
0.209419
0.216301
0.22546
0.236932
0.250663
0.266508
0.284234
0.303546
0.32411
0.345586
0.367651
0.390012
0.41242
0.434669
0.456596
0.478075
0.499014
0.519345
0.539026
0.558027
0.576335
0.593945
0.610859
0.627082
0.642626
0.657502
0.671723
0.6853
0.698245
0.710559
0.72225
0.733328
0.743803
0.75368
0.762966
0.771666
0.779785
0.78733
0.794305
0.800718
0.80658
0.811903
0.816705
0.821003
0.82482
0.828178
0.831094
0.833579
0.83563
0.837225
0.838319
0.838844
0.83871
0.83783
0.836153
0.385025
0.363699
0.344363
0.326707
0.310498
0.295561
0.281772
0.269042
0.257306
0.246517
0.236644
0.227667
0.219578
0.21238
0.206088
0.20073
0.196348
0.193
0.190761
0.189721
0.18999
0.191688
0.19494
0.199869
0.206575
0.215125
0.225537
0.237769
0.251715
0.267211
0.284048
0.301987
0.320777
0.340173
0.359944
0.379887
0.399823
0.419607
0.439118
0.458259
0.476958
0.495157
0.512815
0.529902
0.546397
0.562285
0.577559
0.592212
0.606243
0.619651
0.632424
0.644563
0.656069
0.666947
0.677199
0.686828
0.695839
0.704236
0.712026
0.719218
0.725821
0.731851
0.737324
0.742259
0.746679
0.750607
0.754064
0.757067
0.759622
0.76172
0.763336
0.764423
0.764916
0.764749
0.76389
0.385039
0.363763
0.344529
0.327031
0.311019
0.296298
0.282719
0.270166
0.25855
0.247804
0.237875
0.228725
0.220326
0.21266
0.205716
0.199495
0.194005
0.189262
0.185294
0.182139
0.179847
0.178479
0.178108
0.178817
0.180697
0.18384
0.188336
0.194259
0.201662
0.210564
0.220946
0.232746
0.24586
0.260148
0.275447
0.291573
0.308341
0.325568
0.343085
0.360736
0.378386
0.395916
0.413229
0.43024
0.446883
0.463101
0.478851
0.494096
0.508807
0.522963
0.536545
0.549527
0.561897
0.573648
0.584775
0.595277
0.605151
0.614402
0.623032
0.631049
0.638463
0.645286
0.651535
0.657228
0.662386
0.667033
0.671191
0.674879
0.67811
0.680886
0.683194
0.685008
0.686283
0.686972
0.687056
0.385045
0.363793
0.344613
0.327207
0.311323
0.296756
0.283344
0.270952
0.259476
0.248832
0.238951
0.229781
0.221278
0.213411
0.206155
0.199492
0.193412
0.187912
0.182994
0.178668
0.17495
0.171863
0.169439
0.167716
0.166741
0.16657
0.167264
0.16889
0.171516
0.175209
0.180029
0.18602
0.19321
0.2016
0.211164
0.221846
0.233564
0.24621
0.259659
0.273776
0.288419
0.303449
0.318732
0.334144
0.349572
0.364915
0.380084
0.395002
0.409603
0.423831
0.43764
0.450991
0.463838
0.476156
0.487924
0.499127
0.509754
0.519797
0.529253
0.538124
0.546414
0.554129
0.561282
0.567885
0.573958
0.579517
0.584583
0.589175
0.593307
0.596986
0.600212
0.602968
0.605229
0.606963
0.608155
0.385047
0.363805
0.344651
0.327293
0.311482
0.297013
0.283715
0.271447
0.260093
0.249557
0.239761
0.230639
0.22214
0.21422
0.206844
0.199984
0.193619
0.187734
0.182318
0.177365
0.172874
0.16885
0.165302
0.162241
0.159688
0.157665
0.156202
0.155334
0.155098
0.155542
0.156711
0.158657
0.16143
0.165076
0.169635
0.175137
0.181598
0.189016
0.197369
0.206617
0.216697
0.227534
0.239033
0.251096
0.263613
0.276476
0.289579
0.302819
0.316101
0.329337
0.342449
0.355367
0.36803
0.380377
0.392361
0.403944
0.415093
0.425782
0.435992
0.445707
0.454917
0.463616
0.471803
0.47948
0.486653
0.493333
0.49953
0.505256
0.510524
0.51534
0.519709
0.523622
0.527067
0.530021
0.532472
0.385048
0.36381
0.344666
0.32733
0.311556
0.29714
0.28391
0.271721
0.260452
0.250001
0.240283
0.231225
0.222767
0.214859
0.207459
0.200533
0.194052
0.187994
0.18234
0.177077
0.172195
0.167688
0.163555
0.159795
0.156413
0.153417
0.150818
0.148631
0.146872
0.145563
0.144731
0.144402
0.14461
0.145388
0.146775
0.148806
0.15152
0.154949
0.159124
0.164065
0.169784
0.176281
0.183544
0.191544
0.200241
0.20958
0.219497
0.229918
0.240763
0.251947
0.263386
0.274995
0.286697
0.298411
0.310062
0.32158
0.332904
0.343978
0.354754
0.36519
0.37525
0.384905
0.394132
0.402914
0.41124
0.419103
0.426501
0.433437
0.439914
0.445937
0.451506
0.456621
0.461274
0.465451
0.469136
0.385048
0.363811
0.344671
0.327343
0.311584
0.297191
0.283992
0.271841
0.260616
0.250212
0.24054
0.231524
0.2231
0.215215
0.207823
0.200885
0.19437
0.18825
0.182505
0.177117
0.172072
0.16736
0.162973
0.158908
0.155163
0.151739
0.148639
0.14587
0.14344
0.14136
0.139644
0.138308
0.13737
0.136854
0.136782
0.137182
0.138083
0.139516
0.141514
0.144108
0.147331
0.15121
0.155769
0.161027
0.166992
0.173664
0.181028
0.189061
0.197723
0.206965
0.216724
0.226931
0.237506
0.24837
0.259434
0.270612
0.28182
0.292976
0.304006
0.314843
0.325427
0.335705
0.345634
0.355178
0.36431
0.373007
0.381257
0.389052
0.396387
0.403262
0.409677
0.415631
0.421119
0.426132
0.430651
0.385048
0.363811
0.344671
0.327343
0.311584
0.297191
0.283992
0.271841
0.260616
0.250212
0.24054
0.231524
0.2231
0.215215
0.207823
0.200885
0.19437
0.18825
0.182505
0.177117
0.172072
0.16736
0.162973
0.158908
0.155163
0.151739
0.148639
0.14587
0.14344
0.14136
0.139644
0.138307
0.13737
0.136853
0.136781
0.137181
0.138082
0.139515
0.141513
0.144107
0.14733
0.151209
0.155768
0.161026
0.166991
0.173662
0.181027
0.189059
0.197722
0.206963
0.216723
0.226929
0.237504
0.248368
0.259433
0.270611
0.281818
0.292974
0.304005
0.314842
0.325425
0.335704
0.345633
0.355177
0.364309
0.373007
0.381258
0.389053
0.39639
0.403267
0.409684
0.41564
0.421128
0.426139
0.430652
0.385048
0.36381
0.344666
0.32733
0.311556
0.29714
0.28391
0.271721
0.260452
0.250001
0.240283
0.231225
0.222767
0.214859
0.207459
0.200533
0.194052
0.187994
0.18234
0.177077
0.172194
0.167688
0.163554
0.159794
0.156412
0.153416
0.150817
0.148628
0.146869
0.14556
0.144727
0.144397
0.144604
0.145382
0.146767
0.148798
0.15151
0.154938
0.159111
0.16405
0.169768
0.176264
0.183525
0.191523
0.200218
0.209557
0.219472
0.229892
0.240735
0.251918
0.263356
0.274966
0.286667
0.29838
0.310031
0.321549
0.332873
0.343947
0.354723
0.365159
0.375219
0.384875
0.394102
0.402885
0.411212
0.419077
0.426479
0.433419
0.439901
0.445929
0.451505
0.456624
0.461276
0.465446
0.469112
0.385047
0.363805
0.344651
0.327293
0.311482
0.297013
0.283715
0.271447
0.260093
0.249557
0.239761
0.23064
0.222141
0.21422
0.206844
0.199984
0.193619
0.187734
0.182317
0.177364
0.172873
0.168849
0.165299
0.162238
0.159684
0.15766
0.156196
0.155326
0.155089
0.155531
0.156698
0.158642
0.161412
0.165055
0.169611
0.17511
0.181568
0.188982
0.197332
0.206575
0.216652
0.227485
0.238982
0.251041
0.263555
0.276417
0.289517
0.302756
0.316036
0.329271
0.342382
0.355299
0.367962
0.380309
0.392293
0.403875
0.415024
0.425714
0.435924
0.44564
0.45485
0.46355
0.471738
0.479416
0.486592
0.493275
0.499477
0.50521
0.510487
0.515313
0.51969
0.523608
0.527049
0.529987
0.532403
0.385045
0.363793
0.344613
0.327207
0.311323
0.296757
0.283344
0.270953
0.259477
0.248833
0.238952
0.229782
0.221279
0.213412
0.206155
0.199492
0.193412
0.187911
0.182993
0.178666
0.174946
0.171858
0.169432
0.167707
0.166731
0.166557
0.167248
0.16887
0.171492
0.175181
0.179996
0.185982
0.193167
0.201551
0.211109
0.221786
0.233498
0.246138
0.259583
0.273695
0.288334
0.30336
0.318641
0.33405
0.349476
0.364817
0.379984
0.394901
0.409502
0.42373
0.437538
0.450888
0.463736
0.476054
0.487823
0.499026
0.509653
0.519697
0.529154
0.538026
0.546316
0.554032
0.561186
0.567792
0.573868
0.579432
0.584506
0.589107
0.593251
0.596943
0.600179
0.602939
0.605191
0.606896
0.608032
0.385039
0.363763
0.344529
0.327031
0.311019
0.296299
0.28272
0.270167
0.258551
0.247805
0.237876
0.228726
0.220327
0.21266
0.205716
0.199494
0.194003
0.189258
0.185289
0.182132
0.179838
0.178466
0.178092
0.178796
0.180671
0.183809
0.188298
0.194215
0.20161
0.210504
0.220878
0.23267
0.245775
0.260057
0.275348
0.291468
0.30823
0.325453
0.342966
0.360614
0.378261
0.395789
0.4131
0.43011
0.446752
0.462971
0.47872
0.493965
0.508677
0.522833
0.536416
0.549398
0.561769
0.573521
0.584649
0.595152
0.605028
0.614279
0.62291
0.630928
0.638343
0.645167
0.651417
0.657113
0.662276
0.66693
0.671098
0.674799
0.678045
0.680836
0.683156
0.684972
0.686231
0.686876
0.686878
0.385025
0.363699
0.344363
0.326708
0.310499
0.295562
0.281774
0.269044
0.257308
0.246519
0.236645
0.227668
0.219578
0.212379
0.206086
0.200726
0.196342
0.192991
0.190748
0.189704
0.189968
0.191659
0.194904
0.199824
0.20652
0.215061
0.225462
0.237683
0.251618
0.267104
0.283932
0.301862
0.320645
0.340034
0.3598
0.379738
0.399672
0.419453
0.438962
0.458103
0.476801
0.495
0.512658
0.529746
0.546241
0.562131
0.577406
0.592061
0.606093
0.619502
0.632277
0.644417
0.655925
0.666804
0.677057
0.686687
0.695699
0.704097
0.711889
0.719081
0.725686
0.731717
0.737191
0.74213
0.746556
0.750493
0.753964
0.756984
0.759558
0.761675
0.763303
0.764389
0.764856
0.764626
0.763655
0.384994
0.363574
0.344063
0.326167
0.309684
0.294479
0.280466
0.267591
0.255816
0.245122
0.235505
0.226971
0.219545
0.213266
0.208194
0.204412
0.202027
0.20117
0.201995
0.204673
0.209371
0.216241
0.225387
0.236845
0.250562
0.266393
0.284106
0.303406
0.323959
0.345427
0.367484
0.38984
0.412243
0.43449
0.456415
0.477893
0.498831
0.519163
0.538844
0.557847
0.576157
0.593768
0.610683
0.626909
0.642455
0.657333
0.671556
0.685135
0.698082
0.710398
0.722091
0.733171
0.743647
0.753526
0.762814
0.771515
0.779636
0.787182
0.794158
0.800572
0.806435
0.81176
0.816564
0.820866
0.824691
0.828061
0.830993
0.8335
0.835575
0.837193
0.838301
0.83882
0.838648
0.837682
0.835856
0.384935
0.36335
0.343567
0.325335
0.308511
0.293018
0.278818
0.265896
0.254254
0.243907
0.234889
0.227254
0.221083
0.216486
0.21361
0.212637
0.213783
0.21728
0.223357
0.232198
0.243902
0.258448
0.275678
0.295296
0.316907
0.340058
0.364282
0.389144
0.41426
0.439311
0.464047
0.488276
0.511861
0.534708
0.556758
0.577977
0.598352
0.617886
0.636589
0.654482
0.671586
0.687929
0.703536
0.718434
0.73265
0.746208
0.759129
0.771434
0.783134
0.79424
0.804768
0.814732
0.824141
0.833004
0.841327
0.849116
0.856375
0.863107
0.869319
0.875016
0.880207
0.884905
0.889127
0.892891
0.896221
0.899135
0.901651
0.903769
0.905473
0.906717
0.907427
0.907495
0.906788
0.905174
0.902565
0.384827
0.362977
0.342807
0.324151
0.30695
0.291202
0.276926
0.264158
0.252948
0.243368
0.235519
0.229544
0.225631
0.224025
0.225019
0.228933
0.23608
0.246699
0.260888
0.278554
0.299392
0.322913
0.348516
0.37556
0.403435
0.431611
0.459654
0.487232
0.514105
0.540109
0.565141
0.589146
0.612101
0.63401
0.654892
0.674779
0.693709
0.711723
0.728866
0.74518
0.760709
0.775492
0.789567
0.80297
0.815732
0.827883
0.839447
0.850441
0.860881
0.870786
0.880172
0.889052
0.897435
0.905329
0.91274
0.919672
0.926128
0.93211
0.937623
0.942672
0.947263
0.95141
0.955128
0.958436
0.961356
0.963907
0.966098
0.967923
0.96935
0.970315
0.970715
0.970409
0.969232
0.967023
0.963668
0.384645
0.362402
0.341724
0.322578
0.305017
0.289125
0.274992
0.262721
0.252441
0.244324
0.238605
0.23559
0.235666
0.239274
0.246854
0.258749
0.275094
0.295725
0.320163
0.347677
0.3774
0.408461
0.440078
0.471615
0.502589
0.532661
0.56161
0.589308
0.615692
0.640752
0.664508
0.687
0.708285
0.728424
0.747482
0.765524
0.782613
0.798811
0.814174
0.828755
0.842604
0.855765
0.86828
0.880184
0.891512
0.902289
0.912539
0.922277
0.931526
0.940303
0.948622
0.956494
0.963928
0.970931
0.977507
0.983658
0.989386
0.994692
0.999579
1.00405
1.00811
1.01178
1.01506
1.01799
1.02057
1.02283
1.02478
1.02638
1.02761
1.02836
1.02852
1.02789
1.02629
1.02351
1.01943
0.384357
0.361569
0.340275
0.320619
0.302791
0.286976
0.273359
0.262154
0.253634
0.248166
0.246231
0.248416
0.255349
0.267569
0.28534
0.30849
0.336365
0.36793
0.401972
0.437308
0.472928
0.508054
0.54214
0.574839
0.605953
0.635395
0.663155
0.68927
0.71381
0.736859
0.75851
0.77886
0.798001
0.816024
0.833012
0.849044
0.864191
0.87852
0.892091
0.904958
0.917169
0.928768
0.939795
0.950284
0.960265
0.969762
0.978792
0.987377
0.995536
1.00328
1.01063
1.01759
1.02417
1.03037
1.0362
1.04165
1.04673
1.05144
1.05577
1.05973
1.06333
1.06658
1.0695
1.07211
1.07442
1.07645
1.07821
1.07966
1.08075
1.08135
1.08131
1.0804
1.0784
1.07508
1.07026
0.383927
0.360433
0.338442
0.318325
0.300431
0.285075
0.272596
0.263411
0.258075
0.257314
0.261993
0.272966
0.290808
0.315512
0.34633
0.381887
0.420501
0.460537
0.50064
0.539816
0.577419
0.613076
0.646615
0.678001
0.70728
0.734554
0.759947
0.783596
0.805639
0.826209
0.845433
0.863427
0.880299
0.896145
0.911054
0.925105
0.938368
0.950908
0.962782
0.974039
0.984725
0.994881
1.00454
1.01374
1.02249
1.03082
1.03875
1.0463
1.05348
1.06031
1.06679
1.07294
1.07876
1.08425
1.08941
1.09425
1.09876
1.10294
1.10678
1.1103
1.11351
1.1164
1.11901
1.12135
1.12344
1.12531
1.12694
1.12829
1.12928
1.12977
1.12957
1.12842
1.12605
1.12218
1.11664
0.383319
0.358958
0.336244
0.315811
0.298206
0.283951
0.273661
0.268152
0.26849
0.275923
0.291577
0.315958
0.348517
0.38762
0.430987
0.476297
0.521626
0.565614
0.607424
0.646626
0.683068
0.71677
0.747858
0.776507
0.802914
0.82728
0.849796
0.870644
0.889987
0.907975
0.924741
0.940404
0.95507
0.968833
0.981775
0.993972
1.00549
1.01638
1.0267
1.03649
1.0458
1.05465
1.06308
1.07111
1.07876
1.08606
1.09301
1.09964
1.10596
1.11197
1.11769
1.12313
1.12827
1.13314
1.13772
1.14202
1.14602
1.14974
1.15317
1.15631
1.15917
1.16176
1.16411
1.16624
1.16817
1.16991
1.17145
1.17274
1.17369
1.17411
1.17379
1.17242
1.1697
1.16531
1.15904
0.382499
0.357132
0.333739
0.313276
0.296568
0.284508
0.27825
0.279332
0.289537
0.310342
0.342057
0.383258
0.431091
0.482235
0.533801
0.583741
0.630842
0.674526
0.714639
0.751269
0.784637
0.81502
0.842711
0.867994
0.89113
0.912361
0.931899
0.949931
0.966625
0.982125
0.996558
1.01003
1.02265
1.0345
1.04564
1.05615
1.06609
1.0755
1.08442
1.0929
1.10098
1.10867
1.11601
1.123
1.12968
1.13606
1.14216
1.14798
1.15353
1.15883
1.16389
1.16869
1.17326
1.17758
1.18165
1.18548
1.18905
1.19237
1.19544
1.19825
1.20082
1.20316
1.20529
1.20725
1.20905
1.2107
1.2122
1.21348
1.21441
1.2148
1.21439
1.21284
1.20979
1.2049
1.19791
0.381436
0.354959
0.331044
0.311056
0.296297
0.288366
0.28942
0.30201
0.328145
0.367832
0.418385
0.475358
0.534265
0.591732
0.64574
0.695353
0.740336
0.780846
0.817229
0.849905
0.879296
0.905804
0.929787
0.951564
0.971412
0.989572
1.00625
1.02162
1.03584
1.04905
1.06134
1.07283
1.0836
1.09372
1.10325
1.11226
1.12079
1.12888
1.13657
1.14389
1.15087
1.15754
1.16391
1.17
1.17583
1.18141
1.18675
1.19186
1.19675
1.20143
1.2059
1.21016
1.21421
1.21806
1.22169
1.22511
1.22831
1.23129
1.23404
1.23657
1.23889
1.24102
1.24298
1.24481
1.24651
1.24812
1.2496
1.25089
1.25185
1.25224
1.25178
1.25007
1.24673
1.24136
1.2337
0.380108
0.352477
0.328359
0.309741
0.298807
0.2985
0.312469
0.343631
0.391724
0.452364
0.519027
0.585869
0.649089
0.70683
0.75855
0.804426
0.844967
0.880792
0.912518
0.940714
0.965879
0.988444
1.00877
1.02718
1.04392
1.05922
1.07326
1.08621
1.09819
1.10932
1.11971
1.12942
1.13854
1.14713
1.15524
1.16291
1.1702
1.17713
1.18373
1.19004
1.19607
1.20184
1.20736
1.21266
1.21774
1.22261
1.22729
1.23179
1.2361
1.24024
1.2442
1.24798
1.25159
1.25503
1.25828
1.26135
1.26422
1.26691
1.26939
1.27169
1.2738
1.27576
1.27758
1.2793
1.28094
1.28253
1.28403
1.28536
1.28636
1.28678
1.2863
1.28448
1.28089
1.2751
1.2668
0.378499
0.349757
0.326046
0.310415
0.306752
0.320203
0.355304
0.411906
0.483479
0.560703
0.636003
0.705133
0.766519
0.820133
0.866647