/*--------------------------------*- C++ -*----------------------------------*\
  =========                 |
  \\      /  F ield         | OpenFOAM: The Open Source CFD Toolbox
   \\    /   O peration     | Website:  https://openfoam.org
    \\  /    A nd           | Version:  7
     \\/     M anipulation  |
\*---------------------------------------------------------------------------*/
FoamFile
{
    version     2.0;
    format      ascii;
    class       volScalarField;
    location    "900";
    object      p;
}
// * * * * * * * * * * * * * * * * * * * * * * * * * * * * * * * * * * * * * //

dimensions      [0 2 -2 0 0 0 0];

internalField   nonuniform List<scalar> 
4500
(
65.7868
62.775
61.6152
60.481
59.353
58.2681
57.217
56.1901
55.1839
54.1956
53.2229
52.2639
51.3172
50.3815
49.4559
48.5394
47.6313
46.731
45.8379
44.9515
44.0713
43.1971
42.3284
41.4648
40.6062
39.7522
38.9026
38.0571
37.2156
36.3779
35.5437
34.713
33.8854
33.061
32.2395
31.4208
30.6048
29.7914
28.9803
28.1715
27.365
26.5605
25.7579
24.9572
24.1581
23.3607
22.5648
21.7702
20.9768
20.1846
19.3933
18.603
17.8133
17.0243
16.2358
15.4476
14.6596
13.8718
13.0839
12.2959
11.5076
10.719
9.92989
9.14014
8.34961
7.55817
6.76569
5.9721
5.17732
4.38148
3.58472
2.78752
1.99039
1.1942
0.401042
65.3999
62.7467
61.614
60.4814
59.3533
58.2683
57.2172
56.1902
55.184
54.1957
53.223
52.264
51.3173
50.3816
49.4559
48.5394
47.6313
46.731
45.8379
44.9515
44.0714
43.1971
42.3284
41.4648
40.6062
39.7522
38.9026
38.0571
37.2156
36.3779
35.5437
34.713
33.8854
33.061
32.2395
31.4208
30.6048
29.7914
28.9803
28.1715
27.365
26.5605
25.7579
24.9571
24.1581
23.3607
22.5647
21.7702
20.9768
20.1846
19.3933
18.603
17.8133
17.0243
16.2358
15.4476
14.6596
13.8717
13.0839
12.2959
11.5076
10.719
9.92988
9.14013
8.3496
7.55816
6.76568
5.97209
5.17732
4.38147
3.58471
2.78751
1.99039
1.19419
0.401041
65.3124
62.7536
61.6161
60.4825
59.354
58.2688
57.2176
56.1905
55.1842
54.1959
53.2232
52.2642
51.3174
50.3817
49.456
48.5395
47.6314
46.7311
45.838
44.9516
44.0714
43.1972
42.3284
41.4649
40.6062
39.7522
38.9026
38.0572
37.2157
36.3779
35.5437
34.713
33.8855
33.061
32.2395
31.4208
30.6048
29.7914
28.9803
28.1715
27.365
26.5605
25.7579
24.9571
24.1581
23.3607
22.5647
21.7701
20.9768
20.1846
19.3933
18.6029
17.8133
17.0243
16.2357
15.4475
14.6596
13.8717
13.0839
12.2959
11.5076
10.719
9.92987
9.14012
8.34959
7.55815
6.76567
5.97208
5.17731
4.38146
3.5847
2.78751
1.99038
1.19419
0.401038
65.3121
62.7619
61.6179
60.4836
59.3548
58.2694
57.218
56.1909
55.1845
54.1962
53.2234
52.2643
51.3176
50.3818
49.4562
48.5396
47.6315
46.7312
45.838
44.9516
44.0715
43.1972
42.3285
41.4649
40.6063
39.7523
38.9026
38.0572
37.2157
36.3779
35.5438
34.713
33.8855
33.061
32.2395
31.4208
30.6048
29.7914
28.9803
28.1715
27.365
26.5604
25.7579
24.9571
24.1581
23.3607
22.5647
21.7701
20.9768
20.1846
19.3933
18.6029
17.8133
17.0243
16.2357
15.4475
14.6596
13.8717
13.0838
12.2958
11.5076
10.719
9.92985
9.1401
8.34957
7.55814
6.76566
5.97207
5.17729
4.38145
3.58469
2.7875
1.99037
1.19417
0.40103
65.3083
62.765
61.6192
60.4847
59.3557
58.2701
57.2185
56.1913
55.1849
54.1965
53.2236
52.2646
51.3178
50.382
49.4563
48.5397
47.6316
46.7313
45.8381
44.9517
44.0716
43.1973
42.3285
41.465
40.6063
39.7523
38.9027
38.0572
37.2157
36.378
35.5438
34.713
33.8855
33.061
32.2395
31.4209
30.6048
29.7914
28.9803
28.1715
27.365
26.5604
25.7579
24.9571
24.1581
23.3607
22.5647
21.7701
20.9768
20.1845
19.3933
18.6029
17.8133
17.0243
16.2357
15.4475
14.6596
13.8717
13.0838
12.2958
11.5076
10.719
9.92984
9.14009
8.34956
7.55812
6.76564
5.97205
5.17728
4.38144
3.58468
2.78748
1.99035
1.19415
0.401018
65.298
62.7673
61.6202
60.4858
59.3566
58.2708
57.2191
56.1918
55.1853
54.1968
53.2239
52.2648
51.318
50.3822
49.4565
48.5399
47.6318
46.7314
45.8382
44.9518
44.0716
43.1974
42.3286
41.465
40.6064
39.7523
38.9027
38.0573
37.2157
36.378
35.5438
34.713
33.8855
33.0611
32.2396
31.4209
30.6048
29.7914
28.9803
28.1715
27.365
26.5604
25.7579
24.9571
24.1581
23.3607
22.5647
21.7701
20.9768
20.1845
19.3933
18.6029
17.8133
17.0242
16.2357
15.4475
14.6595
13.8717
13.0838
12.2958
11.5076
10.7189
9.92982
9.14007
8.34954
7.55811
6.76563
5.97204
5.17727
4.38143
3.58466
2.78746
1.99033
1.19412
0.401001
65.2884
62.7702
61.621
60.4867
59.3575
58.2716
57.2198
56.1924
55.1858
54.1972
53.2243
52.2651
51.3182
50.3824
49.4567
48.5401
47.6319
46.7315
45.8384
44.9519
44.0717
43.1975
42.3287
41.4651
40.6064
39.7524
38.9028
38.0573
37.2158
36.378
35.5438
34.7131
33.8855
33.0611
32.2396
31.4209
30.6049
29.7914
28.9803
28.1716
27.365
26.5604
25.7579
24.9571
24.1581
23.3607
22.5647
21.7701
20.9768
20.1845
19.3933
18.6029
17.8133
17.0242
16.2357
15.4475
14.6595
13.8717
13.0838
12.2958
11.5075
10.7189
9.9298
9.14005
8.34953
7.55809
6.76561
5.97203
5.17726
4.38141
3.58465
2.78744
1.9903
1.19408
0.400978
65.2797
62.7734
61.6218
60.4875
59.3583
58.2724
57.2205
56.193
55.1863
54.1976
53.2246
52.2654
51.3185
50.3827
49.4569
48.5403
47.6321
46.7317
45.8385
44.9521
44.0719
43.1976
42.3288
41.4652
40.6065
39.7525
38.9028
38.0574
37.2158
36.3781
35.5439
34.7131
33.8856
33.0611
32.2396
31.4209
30.6049
29.7914
28.9803
28.1716
27.365
26.5605
25.7579
24.9571
24.1581
23.3607
22.5647
21.7701
20.9768
20.1845
19.3933
18.6029
17.8133
17.0242
16.2357
15.4475
14.6595
13.8717
13.0838
12.2958
11.5075
10.7189
9.92978
9.14003
8.34951
7.55808
6.7656
5.97201
5.17724
4.3814
3.58463
2.78741
1.99026
1.19404
0.40095
65.2708
62.7767
61.6224
60.4882
59.359
58.2731
57.2212
56.1936
55.1868
54.1981
53.2251
52.2658
51.3189
50.383
49.4572
48.5405
47.6323
46.7319
45.8387
44.9522
44.072
43.1977
42.3289
41.4653
40.6066
39.7526
38.9029
38.0574
37.2159
36.3781
35.5439
34.7132
33.8856
33.0612
32.2396
31.4209
30.6049
29.7914
28.9804
28.1716
27.365
26.5605
25.7579
24.9571
24.1581
23.3607
22.5647
21.7701
20.9768
20.1845
19.3933
18.6029
17.8132
17.0242
16.2357
15.4475
14.6595
13.8716
13.0838
12.2958
11.5075
10.7189
9.92977
9.14002
8.34949
7.55806
6.76558
5.97199
5.17722
4.38138
3.5846
2.78738
1.99022
1.19398
0.400916
65.2612
62.78
61.6229
60.4887
59.3597
58.2738
57.2218
56.1942
55.1874
54.1986
53.2255
52.2662
51.3192
50.3833
49.4575
48.5408
47.6326
46.7321
45.8389
44.9524
44.0722
43.1978
42.329
41.4654
40.6067
39.7527
38.903
38.0575
37.216
36.3782
35.544
34.7132
33.8857
33.0612
32.2397
31.421
30.6049
29.7915
28.9804
28.1716
27.365
26.5605
25.7579
24.9571
24.1581
23.3607
22.5647
21.7701
20.9768
20.1845
19.3933
18.6029
17.8132
17.0242
16.2356
15.4474
14.6595
13.8716
13.0837
12.2957
11.5075
10.7189
9.92975
9.14
8.34947
7.55804
6.76556
5.97198
5.1772
4.38136
3.58458
2.78735
1.99018
1.19393
0.400875
65.251
62.7835
61.6233
60.4892
59.3601
58.2743
57.2224
56.1948
55.188
54.1992
53.226
52.2667
51.3196
50.3837
49.4578
48.5411
47.6328
46.7324
45.8391
44.9526
44.0724
43.198
42.3292
41.4656
40.6069
39.7528
38.9031
38.0576
37.2161
36.3783
35.5441
34.7133
33.8857
33.0613
32.2398
31.421
30.605
29.7915
28.9804
28.1716
27.365
26.5605
25.7579
24.9572
24.1581
23.3607
22.5647
21.7701
20.9768
20.1845
19.3933
18.6029
17.8132
17.0242
16.2356
15.4474
14.6595
13.8716
13.0837
12.2957
11.5075
10.7188
9.92973
9.13998
8.34945
7.55802
6.76555
5.97196
5.17719
4.38133
3.58455
2.78731
1.99013
1.19386
0.400826
65.24
62.7873
61.6235
60.4895
59.3605
58.2748
57.223
56.1954
55.1885
54.1997
53.2265
52.2672
51.3201
50.3841
49.4582
48.5414
47.6332
46.7327
45.8394
44.9529
44.0726
43.1982
42.3294
41.4658
40.607
39.753
38.9033
38.0578
37.2162
36.3784
35.5442
34.7134
33.8858
33.0614
32.2398
31.4211
30.6051
29.7916
28.9805
28.1717
27.3651
26.5605
25.758
24.9572
24.1581
23.3607
22.5647
21.7701
20.9768
20.1845
19.3933
18.6029
17.8132
17.0242
16.2356
15.4474
14.6595
13.8716
13.0837
12.2957
11.5075
10.7188
9.92971
9.13996
8.34944
7.55801
6.76553
5.97194
5.17717
4.38131
3.58452
2.78727
1.99007
1.19379
0.400769
65.2283
62.7915
61.6237
60.4898
59.3608
58.2751
57.2234
56.1958
55.189
54.2002
53.2271
52.2676
51.3205
50.3845
49.4586
48.5418
47.6335
46.733
45.8397
44.9531
44.0729
43.1985
42.3296
41.466
40.6072
39.7531
38.9034
38.0579
37.2163
36.3785
35.5443
34.7135
33.8859
33.0614
32.2399
31.4212
30.6051
29.7916
28.9805
28.1717
27.3651
26.5606
25.758
24.9572
24.1582
23.3607
22.5648
21.7702
20.9768
20.1845
19.3933
18.6029
17.8132
17.0242
16.2356
15.4474
14.6595
13.8716
13.0837
12.2957
11.5074
10.7188
9.9297
9.13994
8.34942
7.55799
6.76551
5.97192
5.17715
4.38128
3.58448
2.78723
1.99001
1.19371
0.400701
65.2159
62.7961
61.6238
60.49
59.361
58.2753
57.2236
56.1962
55.1895
54.2007
53.2275
52.2681
51.321
50.385
49.459
48.5422
47.6339
46.7333
45.84
44.9534
44.0731
43.1987
42.3299
41.4662
40.6074
39.7533
38.9036
38.0581
37.2165
36.3787
35.5445
34.7136
33.886
33.0616
32.24
31.4213
30.6052
29.7917
28.9806
28.1718
27.3652
26.5607
25.7581
24.9573
24.1582
23.3608
22.5648
21.7702
20.9768
20.1846
19.3933
18.6029
17.8132
17.0242
16.2356
15.4474
14.6595
13.8716
13.0837
12.2957
11.5074
10.7188
9.92968
9.13993
8.34941
7.55798
6.7655
5.97191
5.17713
4.38126
3.58445
2.78718
1.98995
1.19364
0.400623
65.2028
62.801
61.624
60.4901
59.3611
58.2754
57.2238
56.1964
55.1898
54.2011
53.228
52.2686
51.3215
50.3854
49.4594
48.5426
47.6343
46.7337
45.8404
44.9538
44.0734
43.199
42.3301
41.4664
40.6077
39.7536
38.9038
38.0583
37.2167
36.3789
35.5446
34.7138
33.8862
33.0617
32.2401
31.4214
30.6053
29.7918
28.9807
28.1719
27.3653
26.5607
25.7581
24.9573
24.1583
23.3608
22.5648
21.7702
20.9768
20.1846
19.3933
18.6029
17.8133
17.0242
16.2357
15.4474
14.6595
13.8716
13.0837
12.2957
11.5074
10.7188
9.92967
9.13992
8.3494
7.55797
6.76549
5.97189
5.17711
4.38123
3.58442
2.78714
1.98989
1.19356
0.400532
65.1888
62.8064
61.6241
60.4903
59.3612
58.2755
57.2239
56.1966
55.19
54.2014
53.2283
52.2689
51.3219
50.3858
49.4598
48.543
47.6347
46.7341
45.8407
44.9541
44.0738
43.1993
42.3304
41.4667
40.6079
39.7538
38.9041
38.0585
37.2169
36.3791
35.5448
34.714
33.8864
33.0618
32.2403
31.4215
30.6055
29.7919
28.9808
28.172
27.3654
26.5608
25.7582
24.9574
24.1584
23.3609
22.5649
21.7703
20.9769
20.1846
19.3934
18.603
17.8133
17.0242
16.2357
15.4475
14.6595
13.8716
13.0837
12.2957
11.5074
10.7188
9.92967
9.13992
8.34939
7.55796
6.76548
5.97188
5.17709
4.38121
3.58439
2.78709
1.98983
1.19348
0.400426
65.1741
62.8123
61.6243
60.4906
59.3613
58.2755
57.2239
56.1966
55.1901
54.2015
53.2285
52.2692
51.3222
50.3862
49.4602
48.5434
47.6351
46.7345
45.8411
44.9545
44.0741
43.1997
42.3308
41.467
40.6082
39.7541
38.9043
38.0588
37.2171
36.3793
35.545
34.7142
33.8866
33.062
32.2405
31.4217
30.6056
29.7921
28.981
28.1721
27.3655
26.5609
25.7583
24.9575
24.1584
23.361
22.565
21.7704
20.977
20.1847
19.3934
18.603
17.8133
17.0243
16.2357
15.4475
14.6595
13.8716
13.0837
12.2957
11.5074
10.7188
9.92967
9.13992
8.34939
7.55795
6.76547
5.97187
5.17708
4.38119
3.58436
2.78705
1.98977
1.1934
0.400301
65.1586
62.8186
61.6244
60.4909
59.3614
58.2755
57.2239
56.1966
55.1901
54.2016
53.2286
52.2694
51.3224
50.3865
49.4606
48.5438
47.6354
46.7349
45.8415
44.9549
44.0745
43.2
42.3311
41.4674
40.6086
39.7544
38.9046
38.059
37.2174
36.3796
35.5453
34.7144
33.8868
33.0622
32.2407
31.4219
30.6058
29.7922
28.9811
28.1723
27.3656
26.5611
25.7584
24.9576
24.1586
23.3611
22.5651
21.7704
20.9771
20.1848
19.3935
18.6031
17.8134
17.0243
16.2358
15.4475
14.6595
13.8717
13.0838
12.2957
11.5075
10.7188
9.92969
9.13993
8.34939
7.55796
6.76547
5.97187
5.17707
4.38118
3.58433
2.78701
1.98972
1.19333
0.400156
65.1423
62.8254
61.6246
60.4912
59.3616
58.2756
57.2239
56.1966
55.1901
54.2016
53.2286
52.2695
51.3225
50.3867
49.4608
48.5441
47.6357
46.7352
45.8419
44.9552
44.0749
43.2004
42.3315
41.4677
40.6089
39.7547
38.905
38.0594
37.2177
36.3798
35.5455
34.7147
33.887
33.0625
32.2409
31.4221
30.606
29.7924
28.9813
28.1725
27.3658
26.5612
25.7586
24.9578
24.1587
23.3612
22.5652
21.7706
20.9772
20.1849
19.3936
18.6032
17.8135
17.0244
16.2358
15.4476
14.6596
13.8717
13.0838
12.2958
11.5075
10.7188
9.92971
9.13995
8.34941
7.55797
6.76548
5.97187
5.17707
4.38117
3.58431
2.78698
1.98967
1.19326
0.399986
65.1252
62.8326
61.6247
60.4917
59.3618
58.2757
57.224
56.1966
55.19
54.2015
53.2286
52.2694
51.3226
50.3867
49.4609
48.5442
47.636
46.7355
45.8421
44.9555
44.0752
43.2007
42.3318
41.4681
40.6093
39.7551
38.9053
38.0597
37.218
36.3801
35.5458
34.7149
33.8873
33.0627
32.2411
31.4223
30.6062
29.7927
28.9815
28.1727
27.366
26.5614
25.7588
24.958
24.1589
23.3614
22.5654
21.7707
20.9773
20.185
19.3937
18.6033
17.8136
17.0245
16.2359
15.4477
14.6597
13.8718
13.0839
12.2958
11.5075
10.7189
9.92975
9.13998
8.34944
7.55799
6.7655
5.97189
5.17708
4.38117
3.5843
2.78696
1.98963
1.19321
0.399786
65.1075
62.8402
61.6248
60.4922
59.3621
58.2759
57.224
56.1966
55.19
54.2015
53.2285
52.2694
51.3225
50.3867
49.4609
48.5443
47.6361
46.7356
45.8423
44.9558
44.0755
43.201
42.3321
41.4684
40.6096
39.7554
38.9056
38.06
37.2184
36.3805
35.5462
34.7153
33.8876
33.063
32.2414
31.4226
30.6065
29.7929
28.9818
28.1729
27.3662
26.5616
25.759
24.9582
24.1591
23.3615
22.5655
21.7709
20.9774
20.1851
19.3938
18.6034
17.8137
17.0246
16.236
15.4478
14.6598
13.8719
13.0839
12.2959
11.5076
10.7189
9.9298
9.14002
8.34948
7.55803
6.76553
5.97191
5.17709
4.38118
3.58431
2.78695
1.98961
1.19316
0.399553
65.0893
62.848
61.6249
60.4928
59.3625
58.276
57.2242
56.1967
55.19
54.2014
53.2285
52.2693
51.3224
50.3866
49.4608
48.5442
47.6361
46.7356
45.8424
44.9559
44.0756
43.2013
42.3324
41.4687
40.6099
39.7557
38.9059
38.0603
37.2187
36.3808
35.5465
34.7156
33.8879
33.0633
32.2417
31.4229
30.6068
29.7932
28.982
28.1732
27.3665
26.5619
25.7592
24.9584
24.1593
23.3618
22.5657
21.7711
20.9776
20.1853
19.394
18.6036
17.8139
17.0248
16.2362
15.4479
14.6599
13.872
13.084
12.296
11.5077
10.719
9.92987
9.14009
8.34953
7.55808
6.76557
5.97195
5.17713
4.3812
3.58432
2.78695
1.98959
1.19313
0.39928
65.0708
62.8562
61.6249
60.4934
59.3629
58.2763
57.2243
56.1968
55.1901
54.2015
53.2285
52.2693
51.3224
50.3865
49.4608
48.5442
47.636
46.7356
45.8424
44.9559
44.0757
43.2013
42.3325
41.4689
40.6101
39.756
38.9062
38.0606
37.219
36.3811
35.5468
34.7159
33.8882
33.0637
32.242
31.4232
30.6071
29.7935
28.9823
28.1735
27.3668
26.5621
25.7595
24.9586
24.1595
23.362
22.566
21.7713
20.9778
20.1855
19.3942
18.6038
17.814
17.0249
16.2363
15.4481
14.66
13.8721
13.0842
12.2961
11.5078
10.7191
9.92996
9.14017
8.34961
7.55814
6.76563
5.972
5.17717
4.38124
3.58435
2.78697
1.9896
1.19312
0.398965
65.0522
62.8644
61.6248
60.494
59.3633
58.2765
57.2245
56.1969
55.1902
54.2015
53.2285
52.2693
51.3223
50.3865
49.4607
48.5441
47.6359
46.7355
45.8423
44.9558
44.0757
43.2013
42.3325
41.4689
40.6102
39.7561
38.9064
38.0608
37.2192
36.3814
35.5471
34.7162
33.8885
33.064
32.2423
31.4235
30.6074
29.7938
28.9826
28.1738
27.3671
26.5624
25.7598
24.9589
24.1598
23.3623
22.5662
21.7715
20.9781
20.1858
19.3944
18.604
17.8142
17.0251
16.2365
15.4482
14.6602
13.8723
13.0843
12.2962
11.5079
10.7192
9.93007
9.14027
8.3497
7.55823
6.76571
5.97207
5.17724
4.3813
3.5844
2.78702
1.98963
1.19313
0.398604
65.034
62.8726
61.6246
60.4946
59.3637
58.2768
57.2247
56.1971
55.1903
54.2016
53.2285
52.2693
51.3223
50.3865
49.4606
48.544
47.6358
46.7354
45.8422
44.9558
44.0756
43.2013
42.3325
41.4689
40.6102
39.7561
38.9064
38.0609
37.2193
36.3815
35.5473
34.7164
33.8888
33.0642
32.2426
31.4238
30.6077
29.7941
28.9829
28.1741
27.3674
26.5627
25.7601
24.9592
24.1601
23.3625
22.5665
21.7718
20.9784
20.186
19.3947
18.6042
17.8145
17.0254
16.2367
15.4484
14.6604
13.8724
13.0845
12.2964
11.5081
10.7194
9.9302
9.14039
8.34982
7.55834
6.76581
5.97217
5.17732
4.38138
3.58447
2.78708
1.98967
1.19316
0.398199
65.0165
62.8805
61.6243
60.4953
59.3642
58.2771
57.225
56.1973
55.1904
54.2017
53.2286
52.2693
51.3224
50.3865
49.4606
48.544
47.6358
46.7353
45.8421
44.9557
44.0755
43.2011
42.3324
41.4688
40.6101
39.756
38.9064
38.0609
37.2194
36.3816
35.5473
34.7165
33.8889
33.0644
32.2428
31.424
30.6079
29.7944
28.9832
28.1743
27.3677
26.563
25.7604
24.9595
24.1604
23.3628
22.5668
21.7721
20.9786
20.1863
19.395
18.6045
17.8147
17.0256
16.237
15.4487
14.6606
13.8727
13.0847
12.2966
11.5083
10.7196
9.93036
9.14054
8.34995
7.55847
6.76593
5.97228
5.17743
4.38148
3.58457
2.78716
1.98975
1.19322
0.397758
65.0005
62.8879
61.624
60.4958
59.3646
58.2774
57.2252
56.1975
55.1906
54.2018
53.2287
52.2694
51.3224
50.3865
49.4607
48.544
47.6358
46.7353
45.8421
44.9556
44.0754
43.2011
42.3323
41.4687
40.61
39.7559
38.9063
38.0608
37.2193
36.3815
35.5473
34.7165
33.8889
33.0644
32.2429
31.4242
30.6081
29.7945
28.9834
28.1746
27.3679
26.5633
25.7606
24.9598
24.1606
23.3631
22.5671
21.7724
20.9789
20.1866
19.3952
18.6047
17.815
17.0259
16.2372
15.4489
14.6608
13.8729
13.0849
12.2968
11.5085
10.7197
9.93054
9.14071
8.35011
7.55862
6.76607
5.97241
5.17756
4.3816
3.58468
2.78727
1.98984
1.1933
0.3973
64.9866
62.8944
61.6237
60.4963
59.365
58.2776
57.2254
56.1976
55.1907
54.2019
53.2288
52.2695
51.3225
50.3866
49.4607
48.544
47.6358
46.7353
45.8421
44.9556
44.0754
43.201
42.3322
41.4686
40.6099
39.7559
38.9062
38.0607
37.2192
36.3814
35.5472
34.7164
33.8889
33.0644
32.2429
31.4241
30.6081
29.7946
28.9835
28.1747
27.368
26.5634
25.7608
24.96
24.1609
23.3633
22.5673
21.7726
20.9792
20.1868
19.3955
18.605
17.8153
17.0261
16.2375
15.4492
14.6611
13.8731
13.0851
12.297
11.5087
10.7199
9.93073
9.1409
8.35029
7.55878
6.76623
5.97256
5.1777
4.38174
3.58481
2.78739
1.98996
1.1934
0.396861
64.976
62.8994
61.6234
60.4967
59.3653
58.2778
57.2255
56.1977
55.1908
54.202
53.2289
52.2696
51.3225
50.3866
49.4607
48.544
47.6358
46.7353
45.8421
44.9556
44.0753
43.201
42.3322
41.4686
40.6099
39.7558
38.9061
38.0606
37.2191
36.3813
35.5471
34.7163
33.8888
33.0643
32.2428
31.4241
30.608
29.7945
28.9834
28.1746
27.368
26.5635
25.7608
24.96
24.161
23.3635
22.5674
21.7728
20.9793
20.187
19.3957
18.6052
17.8155
17.0263
16.2377
15.4494
14.6613
13.8733
13.0853
12.2972
11.5089
10.7201
9.93092
9.14107
8.35046
7.55895
6.76639
5.97271
5.17784
4.38187
3.58494
2.78752
1.99008
1.19351
0.396498
64.9699
62.9024
61.6231
60.4969
59.3655
58.2779
57.2256
56.1978
55.1909
54.2021
53.2289
52.2696
51.3226
50.3866
49.4608
48.5441
47.6358
46.7353
45.8421
44.9556
44.0753
43.201
42.3322
41.4685
40.6098
39.7558
38.9061
38.0606
37.2191
36.3813
35.5471
34.7163
33.8887
33.0642
32.2427
31.424
30.608
29.7945
28.9834
28.1746
27.368
26.5634
25.7608
24.96
24.161
23.3635
22.5675
21.7728
20.9794
20.1871
19.3958
18.6053
17.8156
17.0265
16.2378
15.4495
14.6614
13.8735
13.0855
12.2974
11.509
10.7203
9.93104
9.1412
8.35058
7.55906
6.76649
5.97282
5.17794
4.38197
3.58503
2.78761
1.99016
1.19358
0.396281
64.9699
62.9024
61.6231
60.4969
59.3655
58.2779
57.2256
56.1978
55.1909
54.2021
53.2289
52.2696
51.3226
50.3866
49.4608
48.5441
47.6358
46.7353
45.8421
44.9556
44.0753
43.201
42.3322
41.4685
40.6098
39.7558
38.9061
38.0606
37.2191
36.3813
35.5471
34.7163
33.8887
33.0642
32.2427
31.424
30.608
29.7945
28.9834
28.1746
27.368
26.5634
25.7608
24.96
24.161
23.3635
22.5675
21.7728
20.9794
20.1871
19.3958
18.6053
17.8156
17.0265
16.2378
15.4495
14.6614
13.8735
13.0855
12.2974
11.509
10.7203
9.93104
9.1412
8.35058
7.55906
6.76649
5.97282
5.17794
4.38197
3.58503
2.78761
1.99015
1.19358
0.396284
64.976
62.8994
61.6234
60.4967
59.3653
58.2778
57.2255
56.1977
55.1908
54.202
53.2289
52.2696
51.3225
50.3866
49.4607
48.544
47.6358
46.7353
45.8421
44.9556
44.0753
43.201
42.3322
41.4686
40.6099
39.7558
38.9061
38.0606
37.2191
36.3813
35.5471
34.7163
33.8888
33.0643
32.2428
31.4241
30.608
29.7945
28.9834
28.1746
27.368
26.5635
25.7608
24.96
24.161
23.3635
22.5674
21.7728
20.9793
20.187
19.3957
18.6052
17.8155
17.0263
16.2377
15.4494
14.6613
13.8733
13.0853
12.2972
11.5089
10.7201
9.93092
9.14107
8.35046
7.55895
6.76639
5.97271
5.17784
4.38187
3.58493
2.78752
1.99007
1.1935
0.396506
64.9866
62.8944
61.6237
60.4963
59.365
58.2776
57.2254
56.1976
55.1907
54.2019
53.2288
52.2695
51.3225
50.3866
49.4607
48.544
47.6358
46.7353
45.8421
44.9556
44.0754
43.201
42.3322
41.4686
40.6099
39.7559
38.9062
38.0607
37.2192
36.3814
35.5472
34.7164
33.8889
33.0644
32.2429
31.4241
30.6081
29.7946
28.9835
28.1747
27.368
26.5634
25.7608
24.96
24.1609
23.3633
22.5673
21.7726
20.9792
20.1868
19.3955
18.605
17.8153
17.0261
16.2375
15.4492
14.6611
13.8731
13.0851
12.297
11.5087
10.7199
9.93073
9.1409
8.35029
7.55878
6.76623
5.97257
5.1777
4.38174
3.5848
2.78739
1.98995
1.19339
0.396874
65.0004
62.8879
61.624
60.4958
59.3646
58.2774
57.2252
56.1975
55.1906
54.2018
53.2287
52.2694
51.3224
50.3865
49.4607
48.544
47.6358
46.7353
45.8421
44.9556
44.0754
43.2011
42.3323
41.4687
40.61
39.7559
38.9063
38.0608
37.2193
36.3815
35.5473
34.7165
33.8889
33.0644
32.2429
31.4242
30.6081
29.7945
28.9834
28.1746
27.3679
26.5633
25.7606
24.9598
24.1606
23.3631
22.5671
21.7724
20.9789
20.1866
19.3952
18.6047
17.815
17.0259
16.2372
15.4489
14.6608
13.8729
13.0849
12.2968
11.5085
10.7197
9.93054
9.14071
8.35011
7.55862
6.76607
5.97241
5.17755
4.3816
3.58467
2.78726
1.98983
1.19329
0.397316
65.0165
62.8805
61.6243
60.4953
59.3642
58.2771
57.225
56.1973
55.1904
54.2017
53.2286
52.2693
51.3224
50.3865
49.4606
48.544
47.6358
46.7353
45.8421
44.9557
44.0755
43.2011
42.3324
41.4688
40.6101
39.756
38.9064
38.0609
37.2194
36.3816
35.5473
34.7165
33.8889
33.0644
32.2428
31.424
30.6079
29.7944
28.9832
28.1743
27.3677
26.563
25.7604
24.9595
24.1604
23.3628
22.5668
21.7721
20.9786
20.1863
19.395
18.6045
17.8147
17.0256
16.237
15.4487
14.6606
13.8727
13.0847
12.2966
11.5083
10.7196
9.93036
9.14054
8.34996
7.55847
6.76593
5.97228
5.17742
4.38148
3.58455
2.78715
1.98973
1.19321
0.397777
65.0339
62.8726
61.6246
60.4946
59.3637
58.2768
57.2247
56.1971
55.1903
54.2016
53.2285
52.2693
51.3223
50.3865
49.4606
48.544
47.6358
46.7354
45.8422
44.9558
44.0756
43.2013
42.3325
41.4689
40.6102
39.7561
38.9064
38.0609
37.2193
36.3815
35.5473
34.7164
33.8888
33.0642
32.2426
31.4238
30.6077
29.7941
28.9829
28.1741
27.3674
26.5627
25.7601
24.9592
24.1601
23.3625
22.5665
21.7718
20.9784
20.186
19.3947
18.6042
17.8145
17.0254
16.2367
15.4484
14.6604
13.8724
13.0845
12.2964
11.5081
10.7194
9.9302
9.1404
8.34982
7.55834
6.76581
5.97217
5.17732
4.38138
3.58446
2.78707
1.98965
1.19315
0.398221
65.0522
62.8644
61.6248
60.494
59.3633
58.2765
57.2245
56.1969
55.1902
54.2015
53.2285
52.2693
51.3223
50.3865
49.4607
48.5441
47.6359
46.7355
45.8423
44.9558
44.0757
43.2013
42.3325
41.4689
40.6102
39.7561
38.9064
38.0608
37.2192
36.3814
35.5471
34.7162
33.8885
33.064
32.2423
31.4235
30.6074
29.7938
28.9826
28.1738
27.3671
26.5624
25.7598
24.9589
24.1598
23.3623
22.5662
21.7715
20.9781
20.1858
19.3944
18.604
17.8142
17.0251
16.2365
15.4482
14.6602
13.8723
13.0843
12.2962
11.5079
10.7192
9.93007
9.14027
8.3497
7.55823
6.76571
5.97208
5.17723
4.3813
3.58439
2.78701
1.9896
1.19312
0.398628
65.0707
62.8562
61.6249
60.4934
59.3629
58.2763
57.2243
56.1968
55.1901
54.2015
53.2285
52.2693
51.3224
50.3865
49.4608
48.5442
47.636
46.7356
45.8424
44.9559
44.0757
43.2013
42.3325
41.4689
40.6101
39.756
38.9062
38.0606
37.219
36.3811
35.5468
34.7159
33.8882
33.0637
32.242
31.4232
30.6071
29.7935
28.9823
28.1735
27.3668
26.5621
25.7595
24.9586
24.1595
23.362
22.566
21.7713
20.9778
20.1855
19.3942
18.6038
17.814
17.0249
16.2363
15.4481
14.66
13.8721
13.0842
12.2961
11.5078
10.7191
9.92996
9.14017
8.34961
7.55815
6.76563
5.972
5.17717
4.38124
3.58434
2.78697
1.98958
1.19311
0.39899
65.0893
62.8481
61.6249
60.4928
59.3625
58.276
57.2242
56.1967
55.19
54.2014
53.2285
52.2693
51.3224
50.3866
49.4608
48.5442
47.6361
46.7356
45.8424
44.9559
44.0756
43.2013
42.3324
41.4687
40.6099
39.7557
38.9059
38.0603
37.2187
36.3808
35.5465
34.7156
33.8879
33.0633
32.2417
31.4229
30.6068
29.7932
28.982
28.1732
27.3665
26.5619
25.7592
24.9584
24.1593
23.3618
22.5657
21.7711
20.9776
20.1853
19.394
18.6036
17.8139
17.0248
16.2362
15.4479
14.6599
13.872
13.084
12.296
11.5077
10.719
9.92987
9.14009
8.34953
7.55808
6.76557
5.97195
5.17712
4.3812
3.5843
2.78695
1.98957
1.19312
0.399307
65.1075
62.8402
61.6248
60.4922
59.3621
58.2759
57.224
56.1966
55.19
54.2015
53.2285
52.2694
51.3225
50.3867
49.4609
48.5443
47.6361
46.7356
45.8423
44.9558
44.0755
43.201
42.3321
41.4684
40.6096
39.7554
38.9056
38.06
37.2184
36.3805
35.5462
34.7153
33.8876
33.063
32.2414
31.4226
30.6065
29.7929
28.9818
28.1729
27.3662
26.5616
25.759
24.9582
24.1591
23.3615
22.5655
21.7709
20.9774
20.1851
19.3938
18.6034
17.8137
17.0246
16.236
15.4478
14.6598
13.8719
13.0839
12.2959
11.5076
10.719
9.9298
9.14002
8.34948
7.55803
6.76552
5.97191
5.17708
4.38118
3.58429
2.78694
1.98958
1.19315
0.39958
65.1251
62.8326
61.6247
60.4917
59.3618
58.2757
57.224
56.1966
55.19
54.2015
53.2286
52.2694
51.3226
50.3867
49.4609
48.5442
47.636
46.7355
45.8421
44.9555
44.0752
43.2007
42.3318
41.4681
40.6093
39.7551
38.9053
38.0597
37.218
36.3801
35.5458
34.7149
33.8873
33.0627
32.2411
31.4223
30.6062
29.7927
28.9815
28.1727
27.366
26.5614
25.7588
24.958
24.1589
23.3614
22.5654
21.7707
20.9773
20.185
19.3937
18.6033
17.8136
17.0245
16.2359
15.4477
14.6597
13.8718
13.0839
12.2958
11.5075
10.7189
9.92975
9.13998
8.34944
7.55799
6.76549
5.97188
5.17707
4.38116
3.58428
2.78695
1.98961
1.1932
0.399815
65.1422
62.8254
61.6246
60.4912
59.3616
58.2756
57.2239
56.1966
55.1901
54.2016
53.2286
52.2695
51.3225
50.3867
49.4608
48.5441
47.6357
46.7352
45.8419
44.9552
44.0749
43.2004
42.3315
41.4677
40.6089
39.7547
38.905
38.0594
37.2177
36.3798
35.5455
34.7147
33.887
33.0625
32.2409
31.4221
30.606
29.7924
28.9813
28.1725
27.3658
26.5612
25.7586
24.9578
24.1587
23.3612
22.5652
21.7706
20.9772
20.1849
19.3936
18.6032
17.8135
17.0244
16.2358
15.4476
14.6596
13.8717
13.0838
12.2958
11.5075
10.7189
9.92971
9.13995
8.34941
7.55797
6.76547
5.97187
5.17706
4.38116
3.58429
2.78698
1.98965
1.19326
0.400016
65.1585
62.8187
61.6244
60.4909
59.3614
58.2755
57.2239
56.1966
55.1901
54.2016
53.2286
52.2694
51.3224
50.3865
49.4606
48.5438
47.6354
46.7349
45.8415
44.9549
44.0745
43.2
42.3311
41.4674
40.6086
39.7544
38.9046
38.059
37.2174
36.3796
35.5453
34.7144
33.8868
33.0622
32.2407
31.4219
30.6058
29.7922
28.9811
28.1723
27.3656
26.5611
25.7584
24.9576
24.1586
23.3611
22.5651
21.7704
20.9771
20.1848
19.3935
18.6031
17.8134
17.0243
16.2358
15.4475
14.6595
13.8717
13.0838
12.2957
11.5075
10.7188
9.92969
9.13993
8.34939
7.55796
6.76547
5.97187
5.17706
4.38117
3.58431
2.78701
1.9897
1.19333
0.400188
65.174
62.8123
61.6243
60.4906
59.3613
58.2755
57.2239
56.1966
55.1901
54.2015
53.2285
52.2692
51.3222
50.3862
49.4602
48.5434
47.6351
46.7345
45.8411
44.9545
44.0741
43.1997
42.3308
41.467
40.6082
39.7541
38.9043
38.0588
37.2171
36.3793
35.545
34.7142
33.8866
33.062
32.2405
31.4217
30.6056
29.7921
28.981
28.1721
27.3655
26.5609
25.7583
24.9575
24.1584
23.361
22.565
21.7704
20.977
20.1847
19.3934
18.603
17.8133
17.0243
16.2357
15.4475
14.6595
13.8716
13.0837
12.2957
11.5074
10.7188
9.92968
9.13992
8.34939
7.55795
6.76546
5.97187
5.17706
4.38119
3.58434
2.78705
1.98976
1.19341
0.400334
65.1888
62.8065
61.6241
60.4903
59.3612
58.2755
57.2239
56.1966
55.19
54.2014
53.2283
52.2689
51.3219
50.3858
49.4598
48.543
47.6347
46.7341
45.8407
44.9541
44.0738
43.1993
42.3304
41.4667
40.608
39.7538
38.9041
38.0585
37.2169
36.3791
35.5448
34.714
33.8864
33.0618
32.2403
31.4215
30.6055
29.7919
28.9808
28.172
27.3654
26.5608
25.7582
24.9574
24.1584
23.3609
22.5649
21.7703
20.9769
20.1846
19.3934
18.603
17.8133
17.0242
16.2357
15.4475
14.6595
13.8716
13.0837
12.2957
11.5074
10.7188
9.92967
9.13992
8.34939
7.55796
6.76547
5.97188
5.17708
4.3812
3.58436
2.78709
1.98982
1.19349
0.40046
65.2027
62.8011
61.624
60.4901
59.3611
58.2754
57.2238
56.1964
55.1898
54.2011
53.228
52.2686
51.3215
50.3854
49.4594
48.5426
47.6343
46.7337
45.8404
44.9538
44.0734
43.199
42.3301
41.4664
40.6077
39.7536
38.9038
38.0583
37.2167
36.3789
35.5446
34.7138
33.8862
33.0617
32.2401
31.4214
30.6053
29.7918
28.9807
28.1719
27.3653
26.5607
25.7581
24.9573
24.1583
23.3608
22.5648
21.7702
20.9768
20.1846
19.3933
18.6029
17.8133
17.0242
16.2357
15.4474
14.6595
13.8716
13.0837
12.2957
11.5074
10.7188
9.92967
9.13992
8.34939
7.55796
6.76548
5.97189
5.17709
4.38123
3.5844
2.78714
1.98988
1.19357
0.400568
65.2159
62.7961
61.6238
60.49
59.361
58.2753
57.2236
56.1962
55.1895
54.2007
53.2275
52.2681
51.321
50.385
49.459
48.5422
47.6339
46.7333
45.84
44.9534
44.0731
43.1987
42.3299
41.4662
40.6074
39.7533
38.9036
38.0581
37.2165
36.3787
35.5445
34.7136
33.886
33.0616
32.24
31.4213
30.6052
29.7917
28.9806
28.1718
27.3652
26.5607
25.7581
24.9573
24.1582
23.3608
22.5648
21.7702
20.9768
20.1846
19.3933
18.6029
17.8132
17.0242
16.2356
15.4474
14.6595
13.8716
13.0837
12.2957
11.5074
10.7188
9.92968
9.13993
8.3494
7.55798
6.76549
5.9719
5.17711
4.38125
3.58443
2.78718
1.98995
1.19366
0.400661
65.2283
62.7915
61.6237
60.4898
59.3608
58.2751
57.2234
56.1958
55.189
54.2002
53.2271
52.2676
51.3205
50.3845
49.4586
48.5418
47.6335
46.733
45.8397
44.9531
44.0729
43.1985
42.3296
41.466
40.6072
39.7531
38.9034
38.0579
37.2163
36.3785
35.5443
34.7135
33.8859
33.0614
32.2399
31.4212
30.6051
29.7916
28.9805
28.1717
27.3651
26.5606
25.758
24.9572
24.1582
23.3607
22.5648
21.7702
20.9768
20.1845
19.3933
18.6029
17.8132
17.0242
16.2356
15.4474
14.6595
13.8716
13.0837
12.2957
11.5074
10.7188
9.9297
9.13995
8.34942
7.55799
6.7655
5.97192
5.17713
4.38128
3.58446
2.78723
1.99001
1.19374
0.400741
65.2399
62.7874
61.6235
60.4895
59.3605
58.2748
57.223
56.1954
55.1885
54.1997
53.2265
52.2672
51.3201
50.3841
49.4582
48.5414
47.6332
46.7327
45.8394
44.9529
44.0726
43.1982
42.3294
41.4658
40.607
39.753
38.9033
38.0578
37.2162
36.3784
35.5442
34.7134
33.8858
33.0614
32.2398
31.4211
30.6051
29.7916
28.9805
28.1717
27.3651
26.5605
25.758
24.9572
24.1581
23.3607
22.5647
21.7701
20.9768
20.1845
19.3933
18.6029
17.8132
17.0242
16.2356
15.4474
14.6595
13.8716
13.0837
12.2957
11.5075
10.7188
9.92971
9.13996
8.34943
7.558
6.76552
5.97193
5.17715
4.3813
3.5845
2.78727
1.99007
1.19382
0.40081
65.2509
62.7835
61.6233
60.4892
59.3601
58.2743
57.2224
56.1948
55.188
54.1992
53.226
52.2667
51.3196
50.3837
49.4578
48.5411
47.6328
46.7324
45.8391
44.9526
44.0724
43.198
42.3292
41.4656
40.6069
39.7528
38.9031
38.0576
37.2161
36.3783
35.5441
34.7133