/*--------------------------------*- C++ -*----------------------------------*\
  =========                 |
  \\      /  F ield         | OpenFOAM: The Open Source CFD Toolbox
   \\    /   O peration     | Website:  https://openfoam.org
    \\  /    A nd           | Version:  7
     \\/     M anipulation  |
\*---------------------------------------------------------------------------*/
FoamFile
{
    version     2.0;
    format      ascii;
    class       surfaceScalarField;
    location    "900";
    object      phi;
}
// * * * * * * * * * * * * * * * * * * * * * * * * * * * * * * * * * * * * * //

dimensions      [0 3 -1 0 0 0 0];

internalField   nonuniform List<scalar> 
8865
(
0.00452285
0.00168694
0.00415016
0.00037269
0.0039903
0.000159866
0.00389729
9.30109e-05
0.00383339
6.38985e-05
0.00378555
4.78348e-05
0.00374796
3.75907e-05
0.00371747
3.04976e-05
0.00369216
2.53061e-05
0.00367081
2.13471e-05
0.00365258
1.82337e-05
0.00363685
1.57255e-05
0.00362319
1.36651e-05
0.00361124
1.1945e-05
0.00360075
1.04895e-05
0.00359151
9.24361e-06
0.00358334
8.16644e-06
0.00357612
7.22705e-06
0.00356971
6.40152e-06
0.00356404
5.67114e-06
0.00355902
5.02104e-06
0.00355458
4.43924e-06
0.00355067
3.91604e-06
0.00354722
3.44347e-06
0.00354421
3.01491e-06
0.00354158
2.62486e-06
0.00353931
2.26868e-06
0.00353737
1.94245e-06
0.00353573
1.64281e-06
0.00353436
1.36696e-06
0.00353325
1.11241e-06
0.00353237
8.77042e-07
0.00353171
6.58968e-07
0.00353126
4.56674e-07
0.00353099
2.68696e-07
0.0035309
9.35277e-08
0.00353097
-7.03009e-08
0.00353119
-2.22643e-07
0.00353155
-3.64097e-07
0.00353205
-4.95948e-07
0.00353267
-6.19069e-07
0.0035334
-7.33807e-07
0.00353424
-8.40748e-07
0.00353518
-9.40255e-07
0.00353621
-1.03274e-06
0.00353733
-1.11851e-06
0.00353853
-1.19768e-06
0.0035398
-1.27051e-06
0.00354114
-1.33717e-06
0.00354253
-1.39767e-06
0.00354399
-1.4523e-06
0.00354549
-1.50065e-06
0.00354703
-1.54259e-06
0.00354861
-1.57801e-06
0.00355021
-1.60679e-06
0.00355184
-1.62875e-06
0.00355349
-1.64435e-06
0.00355514
-1.65387e-06
0.0035568
-1.65766e-06
0.00355845
-1.65793e-06
0.00356011
-1.65491e-06
0.00356176
-1.65162e-06
0.00356341
-1.6466e-06
0.00356504
-1.64023e-06
0.00356667
-1.6278e-06
0.00356827
-1.60431e-06
0.00356983
-1.55762e-06
0.0035713
-1.47589e-06
0.00357265
-1.33959e-06
0.00357378
-1.13839e-06
0.00357464
-8.55864e-07
0.00357514
-4.95345e-07
0.00357519
-5.25602e-08
0.00357477
4.30113e-07
3.15268e-07
0.00573448
0.00277626
0.00532416
0.000783017
0.00510631
0.00037771
0.00497607
0.000223255
0.00488795
0.000152018
0.00482307
0.000112709
0.00477273
8.79388e-05
0.00473224
7.0979e-05
0.00469887
5.86788e-05
0.00467085
4.93648e-05
0.00464701
4.20794e-05
0.0046265
3.62353e-05
0.00460871
3.14508e-05
0.00459319
2.74677e-05
0.00457958
2.4105e-05
0.00456759
2.12321e-05
0.004557
1.87524e-05
0.00454763
1.65929e-05
0.00453934
1.46975e-05
0.00453199
1.30223e-05
0.00452548
1.15327e-05
0.00451971
1.02007e-05
0.00451463
9.0038e-06
0.00451015
7.92342e-06
0.00450622
6.94425e-06
0.00450279
6.05355e-06
0.00449982
5.2406e-06
0.00449726
4.49635e-06
0.00449509
3.81304e-06
0.00449328
3.18419e-06
0.00449178
2.60409e-06
0.00449059
2.06786e-06
0.00448968
1.57118e-06
0.00448903
1.11051e-06
0.00448861
6.82527e-07
0.00448842
2.84169e-07
0.00448844
-8.8204e-08
0.00448865
-4.35146e-07
0.00448905
-7.57487e-07
0.00448961
-1.05781e-06
0.00449033
-1.33809e-06
0.00449119
-1.59934e-06
0.00449219
-1.84285e-06
0.00449332
-2.06951e-06
0.00449457
-2.28022e-06
0.00449593
-2.4757e-06
0.00449739
-2.65631e-06
0.00449894
-2.82262e-06
0.00450058
-2.97499e-06
0.00450229
-3.1135e-06
0.00450408
-3.23861e-06
0.00450593
-3.34966e-06
0.00450783
-3.4464e-06
0.00450978
-3.52857e-06
0.00451177
-3.59591e-06
0.00451379
-3.64813e-06
0.00451583
-3.68598e-06
0.00451789
-3.71013e-06
0.00451995
-3.72137e-06
0.00452202
-3.72356e-06
0.00452408
-3.71733e-06
0.00452613
-3.70752e-06
0.00452818
-3.69135e-06
0.0045302
-3.66835e-06
0.00453221
-3.62889e-06
0.00453416
-3.56182e-06
0.00453605
-3.44364e-06
0.00453782
-3.25147e-06
0.00453943
-2.95016e-06
0.00454082
-2.52098e-06
0.0045419
-1.93844e-06
0.00454262
-1.21319e-06
0.00454291
-3.45787e-07
0.00454278
5.67146e-07
4.76026e-07
0.00677261
0.00350217
0.00634446
0.00121116
0.00607519
0.000646986
0.00590745
0.000390987
0.00579398
0.000265489
0.00571123
0.000195464
0.00564762
0.00015155
0.00559688
0.000121718
0.00555531
0.000100246
0.00552058
8.40915e-05
0.00549114
7.15231e-05
0.00546589
6.14851e-05
0.00544404
5.32969e-05
0.00542501
4.65006e-05
0.00540834
4.07775e-05
0.00539367
3.58985e-05
0.00538073
3.1695e-05
0.00536928
2.80402e-05
0.00535914
2.48369e-05
0.00535016
2.20093e-05
0.00534219
1.94976e-05
0.00533514
1.72539e-05
0.0053289
1.52395e-05
0.0053234
1.34226e-05
0.00531857
1.17771e-05
0.00531434
1.02813e-05
0.00531067
8.91677e-06
0.00530749
7.66824e-06
0.00530478
6.5225e-06
0.0053025
5.46852e-06
0.00530061
4.49661e-06
0.00529908
3.59851e-06
0.00529788
2.76693e-06
0.005297
1.99582e-06
0.0052964
1.27958e-06
0.00529607
6.13313e-07
0.00529599
-9.10144e-09
0.00529615
-5.89653e-07
0.00529652
-1.12947e-06
0.00529709
-1.6322e-06
0.00529785
-2.10118e-06
0.00529879
-2.53834e-06
0.0052999
-2.94584e-06
0.00530115
-3.32524e-06
0.00530255
-3.67805e-06
0.00530408
-4.0055e-06
0.00530573
-4.30831e-06
0.0053075
-4.58739e-06
0.00530936
-4.84336e-06
0.00531133
-5.07641e-06
0.00531338
-5.28712e-06
0.0053155
-5.47469e-06
0.00531769
-5.63875e-06
0.00531994
-5.7789e-06
0.00532224
-5.89475e-06
0.00532458
-5.98592e-06
0.00532695
-6.05337e-06
0.00532933
-6.09807e-06
0.00533173
-6.12124e-06
0.00533414
-6.1278e-06
0.00533654
-6.11873e-06
0.00533893
-6.09969e-06
0.00534131
-6.06663e-06
0.00534365
-6.01733e-06
0.00534596
-5.93756e-06
0.00534821
-5.81004e-06
0.00535037
-5.60215e-06
0.0053524
-5.28156e-06
0.00535425
-4.8026e-06
0.00535587
-4.14158e-06
0.00535721
-3.27127e-06
0.00535821
-2.21283e-06
0.00535884
-9.78434e-07
0.00535913
2.81648e-07
4.02763e-07
0.00776838
0.00397374
0.00736522
0.00161432
0.00705881
0.000953393
0.00685371
0.000596095
0.00671229
0.00040691
0.00660913
0.000298623
0.00653023
0.000230446
0.00646767
0.000184282
0.00641669
0.000151228
0.00637428
0.000126493
0.00633846
0.000107343
0.00630784
9.2113e-05
0.0062814
7.97342e-05
0.00625841
6.94918e-05
0.00623829
6.08895e-05
0.00622062
5.35729e-05
0.00620503
4.72819e-05
0.00619125
4.18216e-05
0.00617905
3.70432e-05
0.00616822
3.2831e-05
0.00615863
2.9094e-05
0.00615012
2.57594e-05
0.00614259
2.27684e-05
0.00613594
2.00732e-05
0.00613009
1.76342e-05
0.00612495
1.54185e-05
0.00612047
1.33987e-05
0.00611658
1.15517e-05
0.00611325
9.85776e-06
0.00611042
8.30018e-06
0.00610805
6.86453e-06
0.00610611
5.53841e-06
0.00610456
4.311e-06
0.00610339
3.17314e-06
0.00610255
2.11656e-06
0.00610203
1.13399e-06
0.0061018
2.17069e-07
0.00610185
-6.38735e-07
0.00610216
-1.43551e-06
0.0061027
-2.17727e-06
0.00610347
-2.86898e-06
0.00610445
-3.51375e-06
0.00610561
-4.11481e-06
0.00610696
-4.67454e-06
0.00610848
-5.19521e-06
0.00611015
-5.67869e-06
0.00611197
-6.12614e-06
0.00611392
-6.5389e-06
0.006116
-6.9179e-06
0.00611819
-7.26347e-06
0.00612047
-7.57638e-06
0.00612286
-7.8557e-06
0.00612532
-8.10099e-06
0.00612785
-8.31172e-06
0.00613044
-8.4874e-06
0.00613308
-8.62753e-06
0.00613576
-8.73325e-06
0.00613847
-8.8057e-06
0.0061412
-8.84633e-06
0.00614393
-8.86088e-06
0.00614666
-8.8502e-06
0.00614938
-8.82044e-06
0.00615208
-8.76579e-06
0.00615474
-8.68228e-06
0.00615736
-8.55129e-06
0.0061599
-8.3505e-06
0.00616234
-8.03973e-06
0.00616463
-7.58063e-06
0.00616675
-6.92048e-06
0.00616865
-6.03534e-06
0.00617028
-4.90043e-06
0.00617161
-3.55194e-06
0.00617265
-2.01508e-06
0.00617343
-4.90709e-07
6.515e-08
0.00876053
0.0042679
0.00841816
0.00195669
0.00809688
0.00127467
0.00785897
0.000834004
0.00768847
0.000577413
0.00756264
0.000424452
0.00746628
0.000326806
0.00739005
0.000260516
0.00732813
0.000213142
0.00727681
0.000177816
0.00723358
0.00015057
0.00719672
0.00012898
0.00716496
0.000111491
0.00713739
9.7063e-05
0.0071133
8.49771e-05
0.00709215
7.47211e-05
0.00707351
6.59208e-05
0.00705704
5.82964e-05
0.00704245
5.16348e-05
0.00702951
4.57712e-05
0.00701803
4.05756e-05
0.00700784
3.5945e-05
0.00699881
3.17959e-05
0.00699083
2.80606e-05
0.00698378
2.46833e-05
0.00697758
2.16177e-05
0.00697215
1.88251e-05
0.00696743
1.62731e-05
0.00696335
1.39339e-05
0.00695987
1.17843e-05
0.00695693
9.80383e-06
0.00695449
7.9753e-06
0.00695252
6.28356e-06
0.00695098
4.71578e-06
0.00694983
3.26042e-06
0.00694906
1.9074e-06
0.00694863
6.46077e-07
0.00694852
-5.31456e-07
0.00694872
-1.62907e-06
0.00694919
-2.65082e-06
0.00694993
-3.60336e-06
0.0069509
-4.49125e-06
0.00695211
-5.31895e-06
0.00695352
-6.0899e-06
0.00695513
-6.80728e-06
0.00695693
-7.4737e-06
0.00695889
-8.09094e-06
0.00696102
-8.66082e-06
0.00696328
-9.18465e-06
0.00696568
-9.66301e-06
0.0069682
-1.00968e-05
0.00697083
-1.04852e-05
0.00697356
-1.08275e-05
0.00697637
-1.11233e-05
0.00697925
-1.13718e-05
0.0069822
-1.15726e-05
0.00698519
-1.17267e-05
0.00698822
-1.18355e-05
0.00699128
-1.19005e-05
0.00699434
-1.19279e-05
0.00699741
-1.19183e-05
0.00700047
-1.18776e-05
0.0070035
-1.17986e-05
0.00700649
-1.16753e-05
0.00700943
-1.14854e-05
0.00701228
-1.12023e-05
0.00701502
-1.07807e-05
0.00701762
-1.01782e-05
0.00702004
-9.3389e-06
0.00702224
-8.24135e-06
0.00702421
-6.86752e-06
0.00702593
-5.26929e-06
0.0070274
-3.48639e-06
0.00702867
-1.7647e-06
-5.41969e-07
0.00977742
0.00444047
0.00951399
0.00222012
0.00920569
0.00158298
0.00894539
0.0010943
0.00874723
0.000775576
0.0085973
0.000574375
0.00848145
0.000442657
0.00838959
0.000352373
0.00831504
0.000287698
0.00825334
0.000239516
0.00820147
0.000202437
0.00815732
0.000173135
0.00811935
0.000149463
0.00808642
0.000129986
0.00805769
0.000113709
0.00803248
9.99273e-05
0.00801028
8.8125e-05
0.00799066
7.79179e-05
0.00797328
6.90143e-05
0.00795786
6.11885e-05
0.00794417
5.42636e-05
0.00793202
4.80989e-05
0.00792123
4.25814e-05
0.00791168
3.76191e-05
0.00790322
3.31365e-05
0.00789577
2.90709e-05
0.00788922
2.53703e-05
0.00788351
2.19908e-05
0.00787855
1.88951e-05
0.00787428
1.60518e-05
0.00787065
1.34338e-05
0.00786761
1.10177e-05
0.00786511
8.78334e-06
0.00786311
6.71345e-06
0.00786158
4.79264e-06
0.00786048
3.00745e-06
0.00785978
1.34468e-06
0.00785945
-2.07359e-07
0.00785948
-1.65539e-06
0.00785983
-3.00376e-06
0.00786049
-4.26053e-06
0.00786143
-5.43195e-06
0.00786263
-6.52399e-06
0.00786409
-7.54133e-06
0.00786577
-8.48826e-06
0.00786766
-9.36831e-06
0.00786975
-1.0184e-05
0.00787203
-1.09377e-05
0.00787448
-1.16312e-05
0.00787708
-1.22655e-05
0.00787983
-1.28417e-05
0.0078827
-1.33589e-05
0.00788569
-1.38165e-05
0.00788878
-1.4214e-05
0.00789196
-1.45505e-05
0.00789521
-1.48255e-05
0.00789852
-1.50401e-05
0.00790188
-1.51956e-05
0.00790528
-1.52935e-05
0.00790869
-1.53401e-05
0.00791211
-1.53356e-05
0.00791551
-1.52859e-05
0.0079189
-1.51817e-05
0.00792224
-1.50156e-05
0.00792551
-1.47619e-05
0.0079287
-1.43913e-05
0.00793177
-1.38545e-05
0.0079347
-1.31076e-05
0.00793746
-1.20939e-05
0.00794001
-1.07971e-05
0.00794236
-9.20741e-06
0.00794448
-7.39406e-06
0.0079464
-5.40863e-06
0.00794818
-3.53884e-06
-1.41133e-06
0.0108418
0.0045325
0.0106586
0.00240329
0.0103907
0.00185088
0.0101252
0.00135979
0.00990488
0.000995899
0.00973121
0.000748042
0.00959448
0.000579386
0.00948519
0.000461659
0.00939623
0.000376666
0.00932255
0.000313187
0.00926065
0.000264341
0.009208
0.000225789
0.00916276
0.000194702
0.00912357
0.000169174
0.00908939
0.000147885
0.00905943
0.000129893
0.00903304
0.000114513
0.00900972
0.000101234
0.00898907
8.96694e-05
0.00897074
7.95188e-05
0.00895445
7.05485e-05
0.00893998
6.25726e-05
0.00892712
5.54417e-05
0.0089157
4.90349e-05
0.00890559
4.32527e-05
0.00889664
3.80131e-05
0.00888877
3.32475e-05
0.00888186
2.88985e-05
0.00887584
2.49175e-05
0.00887063
2.12632e-05
0.00886616
1.79003e-05
0.00886238
1.47984e-05
0.00885923
1.1931e-05
0.00885667
9.27586e-06
0.00885465
6.81279e-06
0.00885313
4.52439e-06
0.00885208
2.39427e-06
0.00885147
4.07236e-07
0.00885126
-1.4477e-06
0.00885143
-3.17627e-06
0.00885196
-4.78713e-06
0.00885281
-6.28853e-06
0.00885398
-7.68822e-06
0.00885543
-8.99238e-06
0.00885715
-1.02066e-05
0.00885912
-1.13355e-05
0.00886131
-1.23825e-05
0.00886373
-1.33508e-05
0.00886634
-1.42427e-05
0.00886913
-1.50595e-05
0.00887209
-1.58028e-05
0.00887521
-1.64717e-05
0.00887846
-1.70658e-05
0.00888183
-1.75844e-05
0.0088853
-1.80267e-05
0.00888887
-1.83918e-05
0.00889251
-1.86811e-05
0.00889621
-1.88956e-05
0.00889995
-1.90367e-05
0.00890372
-1.91109e-05
0.0089075
-1.91176e-05
0.00891128
-1.90624e-05
0.00891503
-1.89345e-05
0.00891874
-1.87247e-05
0.00892239
-1.84054e-05
0.00892594
-1.79448e-05
0.00892938
-1.72917e-05
0.00893267
-1.6402e-05
0.0089358
-1.52205e-05
0.00893874
-1.37372e-05
0.00894148
-1.19523e-05
0.00894404
-9.95103e-06
0.00894643
-7.79562e-06
0.0089487
-5.81033e-06
-2.53926e-06
0.0119752
0.00457226
0.0118614
0.00251703
0.0116523
0.00206002
0.0114041
0.00160801
0.0111727
0.00122725
0.0109787
0.00094203
0.0108211
0.000736974
0.0106932
0.000589616
0.0105882
0.000481647
0.0105009
0.000400442
0.0104275
0.000337776
0.010365
0.000288286
0.0103113
0.000248398
0.0102648
0.00021568
0.0102243
0.000188432
0.0101887
0.000165439
0.0101574
0.000145814
0.0101298
0.000128895
0.0101052
0.00011418
0.0100835
0.000101282
0.0100641
8.98973e-05
0.0100469
7.97865e-05
0.0100316
7.07567e-05
0.010018
6.26517e-05
0.0100059
5.53437e-05
0.00999518
4.87271e-05
0.00998571
4.27139e-05
0.00997738
3.72304e-05
0.00997008
3.22142e-05
0.00996373
2.76126e-05
0.00995825
2.33803e-05
0.00995357
1.94785e-05
0.00994963
1.58735e-05
0.00994637
1.25367e-05
0.00994374
9.44245e-06
0.0099417
6.56863e-06
0.0099402
3.89485e-06
0.0099392
1.40277e-06
0.00993868
-9.24087e-07
0.0099386
-3.0944e-06
0.00993892
-5.1169e-06
0.00993964
-7.00197e-06
0.00994071
-8.75935e-06
0.00994211
-1.0397e-05
0.00994383
-1.19221e-05
0.00994583
-1.33407e-05
0.00994811
-1.4657e-05
0.00995063
-1.58754e-05
0.00995339
-1.69987e-05
0.00995636
-1.8029e-05
0.00995952
-1.89681e-05
0.00996287
-1.98153e-05
0.00996637
-2.05704e-05
0.00997002
-2.12327e-05
0.0099738
-2.18014e-05
0.00997768
-2.22754e-05
0.00998165
-2.26561e-05
0.0099857
-2.29445e-05
0.00998981
-2.31415e-05
0.00999395
-2.32536e-05
0.00999811
-2.32796e-05
0.0100023
-2.32247e-05
0.0100064
-2.30766e-05
0.0100105
-2.28251e-05
0.0100146
-2.24407e-05
0.0100185
-2.18906e-05
0.0100223
-2.11225e-05
0.010026
-2.00942e-05
0.0100296
-1.87524e-05
0.0100329
-1.70954e-05
0.0100361
-1.51324e-05
0.0100391
-1.29651e-05
0.010042
-1.06617e-05
0.0100447
-8.58009e-06
-3.92049e-06
0.0131983
0.00457686
0.0131373
0.00257801
0.0129915
0.00220581
0.0127826
0.00181691
0.0125574
0.00145244
0.0123512
0.00114828
0.0121753
0.000912857
0.0120287
0.000736235
0.0119067
0.000603686
0.0118044
0.000502686
0.011718
0.000424209
0.0116442
0.000362025
0.0115808
0.000311841
0.0115258
0.00027067
0.0114778
0.0002364
0.0114358
0.000207506
0.0113987
0.00018287
0.011366
0.000161655
0.0113369
0.000143224
0.0113111
0.000127088
0.0112881
0.00011286
0.0112677
0.000100238
0.0112495
8.89769e-05
0.0112332
7.88784e-05
0.0112188
6.9781e-05
0.011206
6.1551e-05
0.0111946
5.40775e-05
0.0111846
4.72672e-05
0.0111758
4.10414e-05
0.011168
3.53338e-05
0.0111613
3.00873e-05
0.0111555
2.52531e-05
0.0111506
2.07888e-05
0.0111465
1.66583e-05
0.0111431
1.28297e-05
0.0111404
9.27502e-06
0.0111383
5.96916e-06
0.0111369
2.89032e-06
0.0111359
1.62643e-08
0.0111355
-2.66642e-06
0.0111355
-5.16727e-06
0.011136
-7.49818e-06
0.0111369
-9.67126e-06
0.0111382
-1.16966e-05
0.0111399
-1.35831e-05
0.0111419
-1.53385e-05
0.0111442
-1.69683e-05
0.0111468
-1.84779e-05
0.0111497
-1.98712e-05
0.0111528
-2.11506e-05
0.0111562
-2.23188e-05
0.0111597
-2.33753e-05
0.0111635
-2.43201e-05
0.0111674
-2.51525e-05
0.0111715
-2.58717e-05
0.0111757
-2.64768e-05
0.01118
-2.69687e-05
0.0111844
-2.73484e-05
0.0111889
-2.76166e-05
0.0111934
-2.77796e-05
0.0111979
-2.78354e-05
0.0112025
-2.77889e-05
0.011207
-2.76266e-05
0.0112116
-2.73377e-05
0.011216
-2.68914e-05
0.0112204
-2.62548e-05
0.0112246
-2.53761e-05
0.0112288
-2.42149e-05
0.0112327
-2.27223e-05
0.0112365
-2.09037e-05
0.0112402
-1.87787e-05
0.0112437
-1.64618e-05
0.011247
-1.40254e-05
0.0112503
-1.18549e-05
-5.55778e-06
0.0145294
0.00455582
0.0145054
0.00260198
0.0144157
0.00229555
0.0142598
0.00197282
0.0140612
0.00165105
0.0138564
0.00135304
0.0136688
0.00110045
0.0135058
0.000899213
0.0133669
0.000742613
0.0132489
0.000620723
0.0131482
0.000524839
0.0130619
0.000448325
0.0129874
0.000386336
0.0129227
0.00033538
0.0128662
0.00029293
0.0128166
0.000257137
0.0127728
0.000226629
0.0127341
0.000200373
0.0126997
0.000177581
0.0126692
0.000157643
0.012642
0.000140079
0.0126177
0.00012451
0.012596
0.000110631
0.0125767
9.81967e-05
0.0125595
8.70035e-05
0.0125442
7.68855e-05
0.0125305
6.77041e-05
0.0125185
5.93433e-05
0.0125078
5.17051e-05
0.0124984
4.47069e-05
0.0124902
3.82777e-05
0.0124831
3.23567e-05
0.012477
2.68916e-05
0.0124718
2.18372e-05
0.0124675
1.71541e-05
0.012464
1.28077e-05
0.0124612
8.76708e-06
0.0124591
5.00587e-06
0.0124576
1.49741e-06
0.0124567
-1.77878e-06
0.0124564
-4.83541e-06
0.0124566
-7.68437e-06
0.0124572
-1.03405e-05
0.0124583
-1.28164e-05
0.0124599
-1.51231e-05
0.0124618
-1.72701e-05
0.0124641
-1.92646e-05
0.0124667
-2.11133e-05
0.0124697
-2.28211e-05
0.0124729
-2.43915e-05
0.0124764
-2.58275e-05
0.0124802
-2.71294e-05
0.0124842
-2.82971e-05
0.0124884
-2.93305e-05
0.0124927
-3.02287e-05
0.0124972
-3.09906e-05
0.0125019
-3.16172e-05
0.0125066
-3.21091e-05
0.0125115
-3.24669e-05
0.0125164
-3.26965e-05
0.0125214
-3.27953e-05
0.0125263
-3.27681e-05
0.0125313
-3.26003e-05
0.0125363
-3.2281e-05
0.0125411
-3.17788e-05
0.012546
-3.10617e-05
0.0125507
-3.00788e-05
0.0125552
-2.87936e-05
0.0125597
-2.71607e-05
0.012564
-2.51939e-05
0.0125681
-2.2921e-05
0.0125721
-2.04686e-05
0.012576
-1.79073e-05
0.0125798
-1.56466e-05
-7.45229e-06
0.0159844
0.00451431
0.0159863
0.00260012
0.0159396
0.0023422
0.015838
0.00207445
0.0156829
0.00180618
0.0154978
0.00153813
0.0153103
0.00128793
0.015137
0.00107255
0.0149835
0.000896033
0.0148502
0.000754095
0.0147348
0.000640183
0.014635
0.000548156
0.0145483
0.000473036
0.0144727
0.000411005
0.0144064
0.000359191
0.0143481
0.00031544
0.0142966
0.000278124
0.014251
0.000246004
0.0142104
0.000218126
0.0141743
0.000193748
0.0141421
0.000172285
0.0141134
0.000153272
0.0140877
0.000136334
0.0140647
0.000121167
0.0140442
0.000107525
0.0140259
9.52009e-05
0.0140095
8.40249e-05
0.013995
7.38542e-05
0.0139822
6.45681e-05
0.0139708
5.60648e-05
0.0139608
4.8257e-05
0.0139521
4.10701e-05
0.0139446
3.44395e-05
0.0139381
2.83099e-05
0.0139326
2.26328e-05
0.0139281
1.73657e-05
0.0139244
1.24709e-05
0.0139214
7.91639e-06
0.0139193
3.6713e-06
0.0139178
-2.92625e-07
0.0139169
-3.99397e-06
0.0139167
-7.44487e-06
0.013917
-1.06624e-05
0.0139179
-1.36619e-05
0.0139192
-1.6457e-05
0.013921
-1.90595e-05
0.0139232
-2.14783e-05
0.0139258
-2.37218e-05
0.0139288
-2.57962e-05
0.0139321
-2.77058e-05
0.0139357
-2.94549e-05
0.0139396
-3.1044e-05
0.0139438
-3.24738e-05
0.0139482
-3.37442e-05
0.0139529
-3.48545e-05
0.0139577
-3.58036e-05
0.0139626
-3.65924e-05
0.0139678
-3.72214e-05
0.013973
-3.76906e-05
0.0139783
-3.80059e-05
0.0139837
-3.81642e-05
0.0139891
-3.81701e-05
0.0139945
-3.80084e-05
0.0139999
-3.76686e-05
0.0140052
-3.71196e-05
0.0140105
-3.63308e-05
0.0140156
-3.52536e-05
0.0140207
-3.38554e-05
0.0140256
-3.20955e-05
0.0140304
-2.99947e-05
0.0140351
-2.75885e-05
0.0140397
-2.50121e-05
0.0140441
-2.23305e-05
0.0140484
-1.99705e-05
-9.61248e-06
0.0175785
0.00445507
0.0175995
0.00257919
0.0175837
0.00235791
0.0175281
0.00213005
0.0174232
0.00191109
0.0172751
0.00168623
0.0171043
0.00145878
0.0169315
0.00124532
0.0167696
0.00105797
0.0166236
0.000900065
0.0164944
0.000769374
0.0163809
0.000661678
0.0162813
0.000572637
0.0161938
0.0004985
0.0161167
0.000436243
0.0160487
0.000383494
0.0159884
0.000338409
0.0159348
0.000299552
0.0158872
0.000265805
0.0158446
0.000236287
0.0158066
0.000210298
0.0157726
0.000187279
0.0157422
0.00016678
0.0157149
0.000148433
0.0156905
0.000131937
0.0156686
0.000117043
0.0156491
0.000103542
0.0156317
9.12625e-05
0.0156162
8.00565e-05
0.0156025
6.98001e-05
0.0155904
6.03871e-05
0.0155797
5.17265e-05
0.0155704
4.37397e-05
0.0155624
3.63593e-05
0.0155555
2.95261e-05
0.0155496
2.31886e-05
0.0155448
1.73009e-05
0.0155409
1.18244e-05
0.0155379
6.72286e-06
0.0155356
1.96196e-06
0.0155341
-2.48599e-06
0.0155333
-6.63636e-06
0.0155331
-1.05062e-05
0.0155336
-1.41144e-05
0.0155346
-1.74774e-05
0.0155361
-2.06095e-05
0.0155382
-2.35221e-05
0.0155407
-2.62251e-05
0.0155436
-2.87265e-05
0.015547
-3.10319e-05
0.0155506
-3.31466e-05
0.0155547
-3.5072e-05
0.015559
-3.68092e-05
0.0155636
-3.83587e-05
0.0155685
-3.97199e-05
0.0155736
-4.08917e-05
0.0155789
-4.18751e-05
0.0155843
-4.26704e-05
0.0155899
-4.32771e-05
0.0155956
-4.37013e-05
0.0156014
-4.39391e-05
0.0156072
-4.39954e-05
0.015613
-4.38548e-05
0.0156189
-4.35078e-05
0.0156247
-4.29243e-05
0.0156304
-4.2076e-05
0.0156361
-4.09172e-05
0.0156416
-3.94204e-05
0.0156471
-3.75491e-05
0.0156524
-3.53308e-05
0.0156577
-3.28063e-05
0.0156628
-3.01171e-05
0.0156677
-2.73163e-05
0.0156726
-2.48427e-05
-1.20423e-05
0.0193271
0.00437951
0.0193633
0.00254302
0.0193699
0.00235126
0.0193491
0.00215085
0.0192904
0.00196985
0.0191886
0.00178799
0.0190512
0.00159619
0.0188945
0.00140198
0.0187348
0.00121769
0.0185826
0.00105228
0.0184429
0.000909105
0.0183171
0.00078748
0.0182049
0.000684848
0.0181051
0.000598216
0.0180166
0.00052479
0.0179379
0.000462184
0.0178679
0.000408444
0.0178054
0.000361996
0.0177496
0.000321578
0.0176998
0.000286181
0.0176551
0.000254993
0.017615
0.000227358
0.017579
0.000202744
0.0175467
0.000180714
0.0175178
0.000160909
0.0174918
0.000143032
0.0174685
0.000126832
0.0174476
0.000112102
0.017429
9.86648e-05
0.0174125
8.63707e-05
0.0173978
7.50917e-05
0.0173848
6.4718e-05
0.0173734
5.51548e-05
0.0173634
4.63206e-05
0.0173548
3.81439e-05
0.0173474
3.05627e-05
0.0173412
2.35217e-05
0.017336
1.69741e-05
0.0173319
1.0877e-05
0.0173286
5.19127e-06
0.0173263
-1.21174e-07
0.0173247
-5.08275e-06
0.0173239
-9.71058e-06
0.0173238
-1.40262e-05
0.0173244
-1.80493e-05
0.0173256
-2.17975e-05
0.0173274
-2.52843e-05
0.0173297
-2.85222e-05
0.0173325
-3.1521e-05
0.0173357
-3.42879e-05
0.0173394
-3.68295e-05
0.0173435
-3.91481e-05
0.0173479
-4.12458e-05
0.0173527
-4.31233e-05
0.0173577
-4.47807e-05
0.0173631
-4.62169e-05
0.0173686
-4.74328e-05
0.0173744
-4.84287e-05
0.0173803
-4.9204e-05
0.0173864
-4.97644e-05
0.0173925
-5.01059e-05
0.0173988
-5.02339e-05
0.017405
-5.01333e-05
0.0174113
-4.97959e-05
0.0174176
-4.91938e-05
0.0174238
-4.83017e-05
0.01743
-4.7078e-05
0.0174361
-4.55e-05
0.0174421
-4.3536e-05
0.0174479
-4.12189e-05
0.0174537
-3.85933e-05
0.0174594
-3.58024e-05
0.017465
-3.28831e-05
0.0174704
-3.02777e-05
-1.47513e-05
0.0212463
0.00428825
0.0212957
0.00249367
0.0213195
0.00232744
0.0213242
0.00214617
0.0213021
0.00199196
0.0212453
0.00184475
0.0211515
0.00169
0.021027
0.00152649
0.0208846
0.00136013
0.0207372
0.00119968
0.020594
0.0010523
0.02046
0.000921453
0.0203373
0.000807544
0.0202262
0.000709285
0.0201263
0.000624735
0.0200366
0.000551878
0.0199562
0.000488871
0.019884
0.000434123
0.0198193
0.000386304
0.0197612
0.000344313
0.0197089
0.000307245
0.0196619
0.000274358
0.0196196
0.000245039
0.0195816
0.000218784
0.0195473
0.000195173
0.0195165
0.000173856
0.0194888
0.000154539
0.0194639
0.000136976
0.0194416
0.000120956
0.0194217
0.000106301
0.0194039
9.28592e-05
0.0193881
8.04991e-05
0.0193742
6.91075e-05
0.0193619
5.85866e-05
0.0193512
4.88512e-05
0.0193419
3.98267e-05
0.019334
3.14472e-05
0.0193273
2.36565e-05
0.0193218
1.64036e-05
0.0193173
9.64313e-06
0.0193139
3.33015e-06
0.0193114
-2.56946e-06
0.0193097
-8.07773e-06
0.0193089
-1.32152e-05
0.0193089
-1.80056e-05
0.0193096
-2.24698e-05
0.0193109
-2.66246e-05
0.0193129
-3.04849e-05
0.0193154
-3.40628e-05
0.0193185
-3.73675e-05
0.0193221
-4.04071e-05
0.0193261
-4.31852e-05
0.0193306
-4.57048e-05
0.0193354
-4.79676e-05
0.0193406
-4.99738e-05
0.0193461
-5.17228e-05
0.0193519
-5.32157e-05
0.0193579
-5.44526e-05
0.0193641
-5.54327e-05
0.0193705
-5.6162e-05
0.0193771
-5.66362e-05
0.0193837
-5.68616e-05
0.0193904
-5.68239e-05
0.0193971
-5.65172e-05
0.0194038
-5.59163e-05
0.0194105
-5.50001e-05
0.0194172
-5.37313e-05
0.0194238
-5.20933e-05
0.0194303
-5.00587e-05
0.0194367
-4.76648e-05
0.0194431
-4.4957e-05
0.0194494
-4.20781e-05
0.0194555
-3.90408e-05
0.0194615
-3.62845e-05
-1.77409e-05
0.0233536
0.00418142
0.0234151
0.0024322
0.0234532
0.00228933
0.0234772
0.00212214
0.0234826
0.00198665
0.0234628
0.0018645
0.0234125
0.0017403
0.02333
0.00160898
0.0232201
0.00147005
0.0230924
0.00132737
0.0229574
0.00118727
0.0228234
0.00105551
0.0226954
0.000935567
0.022576
0.000828655
0.0224663
0.000734457
0.0223663
0.000651894
0.0222755
0.00057961
0.0221934
0.000516238
0.0221192
0.000460522
0.0220521
0.000411361
0.0219916
0.000367808
0.0219369
0.000329066
0.0218874
0.00029446
0.0218428
0.000263425
0.0218025
0.000235487
0.0217661
0.000210244
0.0217333
0.000187358
0.0217037
0.000166541
0.0216771
0.000147551
0.0216532
0.000130177
0.0216319
0.00011424
0.0216128
9.9586e-05
0.0215958
8.60811e-05
0.0215808
7.36096e-05
0.0215676
6.20703e-05
0.021556
5.13749e-05
0.021546
4.14452e-05
0.0215375
3.22143e-05
0.0215302
2.36219e-05
0.0215243
1.56147e-05
0.0215195
8.14218e-06
0.0215157
1.15866e-06
0.021513
-5.36838e-06
0.0215113
-1.14598e-05
0.0215104
-1.7141e-05
0.0215104
-2.24372e-05
0.0215111
-2.73682e-05
0.0215126
-3.19522e-05
0.0215147
-3.6204e-05
0.0215175
-4.01348e-05
0.0215208
-4.37549e-05
0.0215247
-4.70692e-05
0.0215291
-5.00821e-05
0.0215339
-5.27962e-05
0.0215392
-5.52125e-05
0.0215448
-5.73306e-05
0.0215507
-5.9152e-05
0.0215569
-6.0677e-05
0.0215634
-6.19046e-05
0.0215701
-6.2841e-05
0.0215769
-6.34823e-05
0.0215839
-6.38358e-05
0.021591
-6.38887e-05
0.0215981
-6.3638e-05
0.0216052
-6.30622e-05
0.0216124
-6.21452e-05
0.0216195
-6.08554e-05
0.0216266
-5.91822e-05
0.0216336
-5.71025e-05
0.0216406
-5.46569e-05
0.0216476
-5.189e-05
0.0216544
-4.89388e-05
0.0216612
-4.57878e-05
0.0216677
-4.28624e-05
-2.10151e-05
0.025668
0.00405883
0.0257411
0.00235909
0.025792
0.00223841
0.0258318
0.00208235
0.025858
0.00196046
0.0258665
0.00185601
0.0258526
0.00175414
0.0258122
0.00164945
0.0257435
0.00153871
0.0256497
0.00142115
0.0255378
0.00129914
0.0254163
0.00117709
0.0252923
0.00105955
0.0251711
0.000949846
0.0250558
0.000849723
0.0249481
0.000759626
0.0248485
0.000679192
0.0247571
0.000607648
0.0246736
0.000544065
0.0245974
0.000487505
0.0245281
0.000437091
0.0244652
0.000392034
0.024408
0.000351644
0.0243561
0.000315323
0.024309
0.000282556
0.0242664
0.000252903
0.0242277
0.000225985
0.0241928
0.000201478
0.0241612
0.000179105
0.0241328
0.000158625
0.0241072
0.000139831
0.0240842
0.000122546
0.0240637
0.000106612
0.0240454
9.18963e-05
0.0240292
7.82789e-05
0.0240149
6.56566e-05
0.0240024
5.39378e-05
0.0239916
4.30435e-05
0.0239823
3.29028e-05
0.0239745
2.34534e-05
0.023968
1.46376e-05
0.0239628
6.40298e-06
0.0239587
-1.29814e-06
0.0239557
-8.49403e-06
0.0239538
-1.52082e-05
0.0239528
-2.14693e-05
0.0239527
-2.73012e-05
0.0239535
-3.27256e-05
0.0239551
-3.77602e-05
0.0239574
-4.24191e-05
0.0239603
-4.67146e-05
0.0239639
-5.06537e-05
0.0239681
-5.42423e-05
0.0239728
-5.7484e-05
0.0239779
-6.03809e-05
0.0239835
-6.29332e-05
0.0239895
-6.51428e-05
0.0239958
-6.70102e-05
0.0240025
-6.85347e-05
0.0240094
-6.9723e-05
0.0240164
-7.05716e-05
0.0240237
-7.10895e-05
0.0240311
-7.12657e-05
0.0240385
-7.1101e-05
0.0240461
-7.05786e-05
0.0240536
-6.96884e-05
0.0240612
-6.84049e-05
0.0240687
-6.6725e-05
0.0240762
-6.46294e-05
0.0240837
-6.21614e-05
0.0240912
-5.93613e-05
0.0240986
-5.63588e-05
0.0241059
-5.31019e-05
0.0241131
-4.99946e-05
-2.45636e-05
0.02821
0.00392004
0.0282946
0.00227448
0.0283577
0.00217531
0.0284114
0.00202872
0.0284545
0.00191736
0.0284846
0.00182582
0.028499
0.00173975
0.0284939
0.00165457
0.0284658
0.00156685
0.0284129
0.00147399
0.0283369
0.00137516
0.0282424
0.00127159
0.0281359
0.00116607
0.0280237
0.00106203
0.027911
0.000962457
0.0278012
0.000869359
0.0276967
0.000783741
0.0275985
0.00070584
0.0275072
0.000635404
0.0274227
0.000571917
0.0273451
0.000514754
0.0272738
0.000463267
0.0272087
0.000416832
0.0271491
0.000374877
0.0270948
0.000336886
0.0270453
0.000302404
0.0270002
0.000271029
0.0269593
0.000242411
0.0269222
0.000216246
0.0268885
0.000192267
0.0268581
0.000170242
0.0268307
0.000149969
0.026806
0.00013127
0.0267839
0.000113992
0.0267642
9.7997e-05
0.0267467
8.31667e-05
0.0267312
6.93946e-05
0.0267177
5.65887e-05
0.0267059
4.46668e-05
0.0266958
3.35562e-05
0.0266873
2.31908e-05
0.0266802
1.35116e-05
0.0266744
4.46112e-06
0.0266699
-4.0046e-06
0.0266666
-1.19132e-05
0.0266644
-1.92912e-05
0.0266633
-2.61661e-05
0.0266631
-3.2564e-05
0.0266639
-3.85062e-05
0.0266655
-4.40098e-05
0.0266679
-4.90895e-05
0.026671
-5.37548e-05
0.0266747
-5.80131e-05
0.0266791
-6.18699e-05
0.0266841
-6.53281e-05
0.0266895
-6.8389e-05
0.0266954
-7.10551e-05
0.0267017
-7.33275e-05
0.0267084
-7.52059e-05
0.0267154
-7.66976e-05
0.0267226
-7.78001e-05
0.0267301
-7.85241e-05
0.0267376
-7.88617e-05
0.0267454
-7.88179e-05
0.0267532
-7.83815e-05
0.026761
-7.75494e-05
0.0267689
-7.63037e-05
0.0267769
-7.46486e-05
0.0267848
-7.25696e-05
0.0267927
-7.01115e-05
0.0268007
-6.73096e-05
0.0268086
-6.42811e-05
0.0268164
-6.09344e-05
0.0268241
-5.76396e-05
-2.83725e-05
0.0310025
0.00376437
0.0310986
0.00217833
0.0311738
0.00210012
0.0312404
0.00196217
0.0312982
0.00185951
0.0313461
0.00177799
0.0313824
0.00170341
0.0314049
0.00163208
0.0314106
0.00156114
0.0313966
0.00148794
0.0313612
0.00141063
0.0313045
0.00132831
0.0312292
0.00124132
0.03114
0.00115123
0.0310421
0.00106038
0.0309402
0.000971214
0.0308382
0.000885745
0.0307387
0.000805322
0.0306435
0.000730648
0.0305535
0.00066193
0.0304692
0.000599048
0.0303908
0.000541688
0.0303182
0.00048944
0.0302512
0.000441861
0.0301896
0.000398507
0.030133
0.00035896
0.0300812
0.000322832
0.0300338
0.000289771
0.0299906
0.000259464
0.0299513