/*--------------------------------*- C++ -*----------------------------------*\
  =========                 |
  \\      /  F ield         | OpenFOAM: The Open Source CFD Toolbox
   \\    /   O peration     | Website:  https://openfoam.org
    \\  /    A nd           | Version:  7
     \\/     M anipulation  |
\*---------------------------------------------------------------------------*/
FoamFile
{
    version     2.0;
    format      ascii;
    class       volVectorField;
    location    "900";
    object      U;
}
// * * * * * * * * * * * * * * * * * * * * * * * * * * * * * * * * * * * * * //

dimensions      [0 1 -1 0 0 0 0];

internalField   nonuniform List<vector> 
4500
(
(15.4058 -0.778201 0)
(13.7077 -0.0619025 0)
(13.0325 -0.00325615 0)
(12.6708 0.00046499 0)
(12.4331 0.00050143 0)
(12.2594 0.000386177 0)
(12.125 0.000303744 0)
(12.0172 0.000246405 0)
(11.9286 0.0002045 0)
(11.8542 0.000172559 0)
(11.7911 0.000147435 0)
(11.7368 0.000127187 0)
(11.6898 0.000110546 0)
(11.6488 9.66465e-05 0)
(11.6128 8.48802e-05 0)
(11.5812 7.48044e-05 0)
(11.5533 6.60903e-05 0)
(11.5286 5.84884e-05 0)
(11.5067 5.18061e-05 0)
(11.4874 4.58927e-05 0)
(11.4702 4.0628e-05 0)
(11.455 3.59156e-05 0)
(11.4416 3.16771e-05 0)
(11.4298 2.7848e-05 0)
(11.4194 2.43751e-05 0)
(11.4104 2.12138e-05 0)
(11.4025 1.83266e-05 0)
(11.3958 1.5682e-05 0)
(11.39 1.32524e-05 0)
(11.3852 1.10156e-05 0)
(11.3812 8.9514e-06 0)
(11.378 7.04253e-06 0)
(11.3755 5.27362e-06 0)
(11.3738 3.63271e-06 0)
(11.3726 2.10777e-06 0)
(11.372 6.85661e-07 0)
(11.372 -6.47564e-07 0)
(11.3725 -1.88639e-06 0)
(11.3734 -3.03395e-06 0)
(11.3748 -4.10301e-06 0)
(11.3766 -5.10182e-06 0)
(11.3788 -6.0324e-06 0)
(11.3814 -6.89994e-06 0)
(11.3842 -7.70714e-06 0)
(11.3874 -8.45752e-06 0)
(11.3909 -9.15351e-06 0)
(11.3946 -9.79566e-06 0)
(11.3986 -1.03863e-05 0)
(11.4028 -1.0927e-05 0)
(11.4072 -1.14177e-05 0)
(11.4118 -1.18612e-05 0)
(11.4166 -1.22533e-05 0)
(11.4215 -1.25933e-05 0)
(11.4265 -1.288e-05 0)
(11.4316 -1.31122e-05 0)
(11.4368 -1.32882e-05 0)
(11.4421 -1.34116e-05 0)
(11.4474 -1.34858e-05 0)
(11.4528 -1.35143e-05 0)
(11.4581 -1.35184e-05 0)
(11.4634 -1.35016e-05 0)
(11.4688 -1.3495e-05 0)
(11.4741 -1.34878e-05 0)
(11.4794 -1.34886e-05 0)
(11.4846 -1.34562e-05 0)
(11.4898 -1.33476e-05 0)
(11.495 -1.30456e-05 0)
(11.4999 -1.2439e-05 0)
(11.5044 -1.13219e-05 0)
(11.5085 -9.59057e-06 0)
(11.5118 -7.04818e-06 0)
(11.514 -3.71688e-06 0)
(11.515 5.21818e-07 0)
(11.5144 5.24764e-06 0)
(11.5123 3.79673e-06 0)
(17.5879 0.16307 0)
(16.0152 0.0238108 0)
(15.1976 0.00458796 0)
(14.7348 0.00198899 0)
(14.4341 0.00129709 0)
(14.2183 0.000960549 0)
(14.0538 0.000751469 0)
(13.9232 0.000608021 0)
(13.8165 0.000503607 0)
(13.7275 0.000424282 0)
(13.6522 0.000362065 0)
(13.5878 0.000312044 0)
(13.532 0.000271017 0)
(13.4835 0.000236811 0)
(13.441 0.000207895 0)
(13.4037 0.000183163 0)
(13.3708 0.000161797 0)
(13.3416 0.000143174 0)
(13.3158 0.000126818 0)
(13.293 0.000112353 0)
(13.2728 9.94828e-05 0)
(13.2548 8.79693e-05 0)
(13.239 7.76187e-05 0)
(13.225 6.82721e-05 0)
(13.2127 5.97982e-05 0)
(13.202 5.20874e-05 0)
(13.1926 4.50477e-05 0)
(13.1846 3.86011e-05 0)
(13.1777 3.26809e-05 0)
(13.1718 2.72316e-05 0)
(13.167 2.22036e-05 0)
(13.1631 1.75551e-05 0)
(13.16 1.32487e-05 0)
(13.1577 9.2541e-06 0)
(13.1562 5.54246e-06 0)
(13.1553 2.08553e-06 0)
(13.1551 -1.14834e-06 0)
(13.1554 -4.15836e-06 0)
(13.1563 -6.9525e-06 0)
(13.1577 -9.55622e-06 0)
(13.1596 -1.19868e-05 0)
(13.1619 -1.42523e-05 0)
(13.1647 -1.63641e-05 0)
(13.1678 -1.83293e-05 0)
(13.1713 -2.0156e-05 0)
(13.1751 -2.18502e-05 0)
(13.1793 -2.34147e-05 0)
(13.1837 -2.48547e-05 0)
(13.1884 -2.61733e-05 0)
(13.1933 -2.73711e-05 0)
(13.1984 -2.84522e-05 0)
(13.2037 -2.94102e-05 0)
(13.2093 -3.02433e-05 0)
(13.2149 -3.09488e-05 0)
(13.2207 -3.15237e-05 0)
(13.2266 -3.19653e-05 0)
(13.2325 -3.22796e-05 0)
(13.2385 -3.24743e-05 0)
(13.2446 -3.25592e-05 0)
(13.2506 -3.25714e-05 0)
(13.2567 -3.25222e-05 0)
(13.2627 -3.24616e-05 0)
(13.2687 -3.23715e-05 0)
(13.2747 -3.22543e-05 0)
(13.2806 -3.20232e-05 0)
(13.2864 -3.15719e-05 0)
(13.2921 -3.06673e-05 0)
(13.2975 -2.9076e-05 0)
(13.3025 -2.64214e-05 0)
(13.3069 -2.24886e-05 0)
(13.3106 -1.69608e-05 0)
(13.3133 -9.89607e-06 0)
(13.3148 -1.19808e-06 0)
(13.315 8.22325e-06 0)
(13.314 6.2771e-06 0)
(18.7449 0.0973745 0)
(17.3725 0.0156216 0)
(16.4743 0.00605636 0)
(15.9331 0.00350033 0)
(15.5795 0.00236975 0)
(15.3279 0.00174957 0)
(15.138 0.00136082 0)
(14.9886 0.00109591 0)
(14.8673 0.000904526 0)
(14.7668 0.000760049 0)
(14.6821 0.000647306 0)
(14.6098 0.000557034 0)
(14.5474 0.000483241 0)
(14.4932 0.000421882 0)
(14.4459 0.000370133 0)
(14.4043 0.000325958 0)
(14.3676 0.000287856 0)
(14.3353 0.000254694 0)
(14.3066 0.000225603 0)
(14.2812 0.000199905 0)
(14.2586 0.000177063 0)
(14.2387 0.000156645 0)
(14.221 0.000138304 0)
(14.2054 0.000121753 0)
(14.1917 0.000106756 0)
(14.1796 9.3118e-05 0)
(14.1691 8.06728e-05 0)
(14.16 6.92815e-05 0)
(14.1522 5.88248e-05 0)
(14.1456 4.9203e-05 0)
(14.14 4.03283e-05 0)
(14.1355 3.21256e-05 0)
(14.1319 2.45289e-05 0)
(14.1291 1.74835e-05 0)
(14.1271 1.09385e-05 0)
(14.1259 4.84862e-06 0)
(14.1254 -8.43051e-07 0)
(14.1255 -6.14964e-06 0)
(14.1262 -1.10814e-05 0)
(14.1275 -1.56752e-05 0)
(14.1293 -1.99615e-05 0)
(14.1315 -2.39569e-05 0)
(14.1343 -2.76813e-05 0)
(14.1374 -3.11483e-05 0)
(14.141 -3.43719e-05 0)
(14.1449 -3.73629e-05 0)
(14.1491 -4.01275e-05 0)
(14.1537 -4.26743e-05 0)
(14.1585 -4.50088e-05 0)
(14.1637 -4.71327e-05 0)
(14.169 -4.90513e-05 0)
(14.1746 -5.07564e-05 0)
(14.1804 -5.22447e-05 0)
(14.1863 -5.35122e-05 0)
(14.1924 -5.45545e-05 0)
(14.1985 -5.53678e-05 0)
(14.2048 -5.59611e-05 0)
(14.2112 -5.63455e-05 0)
(14.2176 -5.65354e-05 0)
(14.224 -5.65817e-05 0)
(14.2304 -5.64984e-05 0)
(14.2368 -5.63482e-05 0)
(14.2431 -5.6097e-05 0)
(14.2495 -5.57311e-05 0)
(14.2557 -5.51106e-05 0)
(14.2618 -5.40641e-05 0)
(14.2677 -5.22503e-05 0)
(14.2733 -4.93332e-05 0)
(14.2785 -4.48032e-05 0)
(14.2832 -3.8393e-05 0)
(14.2871 -2.97421e-05 0)
(14.2903 -1.90331e-05 0)
(14.2925 -6.25843e-06 0)
(14.2937 7.07617e-06 0)
(14.294 6.48268e-06 0)
(19.3754 0.0462247 0)
(18.326 0.0150409 0)
(17.4307 0.00910101 0)
(16.8356 0.00564414 0)
(16.435 0.00383709 0)
(16.1491 0.00281757 0)
(15.9342 0.00217867 0)
(15.7661 0.00174595 0)
(15.6305 0.00143549 0)
(15.5186 0.00120258 0)
(15.4247 0.00102181 0)
(15.3447 0.000877711 0)
(15.276 0.000760364 0)
(15.2164 0.000663101 0)
(15.1644 0.00058129 0)
(15.1188 0.000511614 0)
(15.0786 0.000451637 0)
(15.0431 0.000399526 0)
(15.0117 0.000353883 0)
(14.9839 0.000313616 0)
(14.9592 0.000277867 0)
(14.9373 0.000245946 0)
(14.9179 0.000217298 0)
(14.9007 0.00019147 0)
(14.8856 0.000168085 0)
(14.8723 0.000146833 0)
(14.8607 0.000127453 0)
(14.8505 0.000109724 0)
(14.8418 9.34585e-05 0)
(14.8343 7.84984e-05 0)
(14.8281 6.47058e-05 0)
(14.8228 5.19624e-05 0)
(14.8186 4.01648e-05 0)
(14.8154 2.92263e-05 0)
(14.8129 1.90672e-05 0)
(14.8113 9.61855e-06 0)
(14.8104 7.95811e-07 0)
(14.8102 -7.43702e-06 0)
(14.8106 -1.50969e-05 0)
(14.8117 -2.22287e-05 0)
(14.8133 -2.88805e-05 0)
(14.8154 -3.50809e-05 0)
(14.818 -4.08609e-05 0)
(14.8211 -4.62429e-05 0)
(14.8246 -5.12484e-05 0)
(14.8284 -5.5895e-05 0)
(14.8327 -6.01936e-05 0)
(14.8373 -6.41571e-05 0)
(14.8422 -6.77942e-05 0)
(14.8473 -7.1108e-05 0)
(14.8528 -7.41056e-05 0)
(14.8585 -7.67771e-05 0)
(14.8643 -7.91184e-05 0)
(14.8704 -8.11237e-05 0)
(14.8766 -8.27874e-05 0)
(14.883 -8.41045e-05 0)
(14.8895 -8.50862e-05 0)
(14.896 -8.57466e-05 0)
(14.9026 -8.6104e-05 0)
(14.9092 -8.62195e-05 0)
(14.9159 -8.61082e-05 0)
(14.9225 -8.58392e-05 0)
(14.9291 -8.53595e-05 0)
(14.9356 -8.4634e-05 0)
(14.942 -8.34692e-05 0)
(14.9483 -8.16282e-05 0)
(14.9543 -7.86727e-05 0)
(14.9601 -7.41806e-05 0)
(14.9655 -6.75431e-05 0)
(14.9704 -5.84728e-05 0)
(14.9747 -4.66205e-05 0)
(14.9783 -3.23354e-05 0)
(14.9812 -1.57577e-05 0)
(14.9833 9.93981e-07 0)
(14.985 4.11782e-06 0)
(19.693 0.0456702 0)
(18.9995 0.0202329 0)
(18.1918 0.0128969 0)
(17.577 0.00823931 0)
(17.1407 0.00564736 0)
(16.8239 0.00414117 0)
(16.5849 0.00318982 0)
(16.3982 0.00254609 0)
(16.2481 0.00208608 0)
(16.1247 0.00174263 0)
(16.0214 0.00147727 0)
(15.9337 0.00126663 0)
(15.8585 0.0010957 0)
(15.7934 0.000954472 0)
(15.7367 0.000836004 0)
(15.687 0.000735347 0)
(15.6433 0.00064888 0)
(15.6047 0.000573892 0)
(15.5705 0.000508315 0)
(15.5402 0.000450546 0)
(15.5133 0.000399323 0)
(15.4895 0.000353639 0)
(15.4683 0.000312682 0)
(15.4496 0.000275789 0)
(15.4331 0.000242416 0)
(15.4185 0.00021211 0)
(15.4057 0.000184492 0)
(15.3945 0.000159243 0)
(15.3848 0.000136092 0)
(15.3765 0.00011481 0)
(15.3694 9.51982e-05 0)
(15.3635 7.7086e-05 0)
(15.3587 6.03248e-05 0)
(15.3548 4.47888e-05 0)
(15.3518 3.03643e-05 0)
(15.3497 1.69521e-05 0)
(15.3484 4.4421e-06 0)
(15.3479 -7.23659e-06 0)
(15.348 -1.81166e-05 0)
(15.3487 -2.82437e-05 0)
(15.3501 -3.76864e-05 0)
(15.352 -4.6488e-05 0)
(15.3544 -5.46931e-05 0)
(15.3573 -6.23348e-05 0)
(15.3606 -6.94443e-05 0)
(15.3644 -7.6047e-05 0)
(15.3686 -8.216e-05 0)
(15.3731 -8.78015e-05 0)
(15.3779 -9.29841e-05 0)
(15.3831 -9.7713e-05 0)
(15.3885 -0.000101998 0)
(15.3942 -0.000105827 0)
(15.4001 -0.000109196 0)
(15.4063 -0.000112098 0)
(15.4126 -0.000114526 0)
(15.419 -0.000116473 0)
(15.4256 -0.000117953 0)
(15.4322 -0.000118982 0)
(15.439 -0.000119578 0)
(15.4457 -0.000119812 0)
(15.4525 -0.000119694 0)
(15.4593 -0.000119297 0)
(15.466 -0.000118547 0)
(15.4727 -0.000117386 0)
(15.4792 -0.000115574 0)
(15.4856 -0.000112819 0)
(15.4918 -0.000108608 0)
(15.4977 -0.000102462 0)
(15.5033 -9.37131e-05 0)
(15.5084 -8.20924e-05 0)
(15.513 -6.73071e-05 0)
(15.5171 -4.98957e-05 0)
(15.5206 -3.01603e-05 0)
(15.5236 -1.07822e-05 0)
(15.5263 -1.29235e-06 0)
(19.8488 0.0504549 0)
(19.4507 0.0244881 0)
(18.7997 0.016652 0)
(18.2081 0.0111579 0)
(17.7532 0.007791 0)
(17.4116 0.00573675 0)
(17.1505 0.00441439 0)
(16.9458 0.00351467 0)
(16.7812 0.00287186 0)
(16.6461 0.00239313 0)
(16.5332 0.00202448 0)
(16.4376 0.00173281 0)
(16.3557 0.00149689 0)
(16.2849 0.00130252 0)
(16.2233 0.00113989 0)
(16.1694 0.00100204 0)
(16.122 0.00088386 0)
(16.0802 0.000781559 0)
(16.0431 0.000692243 0)
(16.0103 0.000613678 0)
(15.9812 0.000544108 0)
(15.9553 0.000482135 0)
(15.9323 0.000426635 0)
(15.9119 0.000376692 0)
(15.8939 0.000331554 0)
(15.8779 0.000290597 0)
(15.8639 0.000253301 0)
(15.8516 0.000219229 0)
(15.8409 0.000188006 0)
(15.8317 0.00015932 0)
(15.8238 0.000132899 0)
(15.8171 0.00010851 0)
(15.8115 8.59489e-05 0)
(15.807 6.50448e-05 0)
(15.8035 4.56425e-05 0)
(15.8009 2.76072e-05 0)
(15.7991 1.08014e-05 0)
(15.7981 -4.88807e-06 0)
(15.7978 -1.95204e-05 0)
(15.7982 -3.3142e-05 0)
(15.7992 -4.58396e-05 0)
(15.8008 -5.76748e-05 0)
(15.803 -6.87081e-05 0)
(15.8057 -7.89857e-05 0)
(15.8088 -8.85504e-05 0)
(15.8124 -9.74374e-05 0)
(15.8164 -0.000105671 0)
(15.8208 -0.000113276 0)
(15.8256 -0.000120271 0)
(15.8307 -0.000126662 0)
(15.836 -0.000132463 0)
(15.8417 -0.000137661 0)
(15.8476 -0.000142253 0)
(15.8537 -0.000146229 0)
(15.86 -0.000149582 0)
(15.8665 -0.000152305 0)
(15.8731 -0.000154411 0)
(15.8798 -0.000155915 0)
(15.8866 -0.00015684 0)
(15.8934 -0.000157256 0)
(15.9003 -0.000157171 0)
(15.9072 -0.000156655 0)
(15.914 -0.000155615 0)
(15.9208 -0.000153971 0)
(15.9274 -0.000151443 0)
(15.934 -0.000147697 0)
(15.9403 -0.000142167 0)
(15.9463 -0.000134344 0)
(15.952 -0.000123537 0)
(15.9574 -0.000109526 0)
(15.9623 -9.21049e-05 0)
(15.9668 -7.2014e-05 0)
(15.9709 -4.9706e-05 0)
(15.9745 -2.83736e-05 0)
(15.978 -9.78349e-06 0)
(19.929 0.0521809 0)
(19.7286 0.0270124 0)
(19.2674 0.0200258 0)
(18.7457 0.0142434 0)
(18.2961 0.0102331 0)
(17.9397 0.00761459 0)
(17.6607 0.00587475 0)
(17.4395 0.00467512 0)
(17.2609 0.0038141 0)
(17.114 0.00317259 0)
(16.9914 0.00267928 0)
(16.8876 0.00228985 0)
(16.7988 0.00197561 0)
(16.7221 0.00171734 0)
(16.6554 0.00150174 0)
(16.597 0.00131938 0)
(16.5458 0.00116334 0)
(16.5005 0.00102851 0)
(16.4605 0.000910981 0)
(16.4249 0.000807752 0)
(16.3934 0.000716463 0)
(16.3654 0.000635242 0)
(16.3405 0.000562585 0)
(16.3183 0.000497269 0)
(16.2987 0.000438292 0)
(16.2813 0.000384824 0)
(16.266 0.000336173 0)
(16.2525 0.000291758 0)
(16.2407 0.000251085 0)
(16.2305 0.00021374 0)
(16.2216 0.000179361 0)
(16.2141 0.000147641 0)
(16.2078 0.000118313 0)
(16.2026 9.11494e-05 0)
(16.1984 6.59459e-05 0)
(16.1952 4.25254e-05 0)
(16.1929 2.07182e-05 0)
(16.1914 3.68265e-07 0)
(16.1906 -1.86252e-05 0)
(16.1906 -3.63169e-05 0)
(16.1913 -5.28047e-05 0)
(16.1925 -6.81722e-05 0)
(16.1944 -8.24985e-05 0)
(16.1968 -9.5846e-05 0)
(16.1997 -0.000108271 0)
(16.2031 -0.000119821 0)
(16.2069 -0.000130529 0)
(16.2111 -0.000140428 0)
(16.2157 -0.000149541 0)
(16.2207 -0.000157881 0)
(16.226 -0.000165463 0)
(16.2315 -0.000172276 0)
(16.2373 -0.000178316 0)
(16.2434 -0.000183574 0)
(16.2497 -0.000188041 0)
(16.2561 -0.00019171 0)
(16.2627 -0.000194591 0)
(16.2694 -0.000196702 0)
(16.2763 -0.000198063 0)
(16.2831 -0.000198746 0)
(16.29 -0.000198753 0)
(16.297 -0.000198149 0)
(16.3039 -0.000196822 0)
(16.3107 -0.000194674 0)
(16.3174 -0.000191391 0)
(16.324 -0.00018661 0)
(16.3304 -0.000179732 0)
(16.3366 -0.000170239 0)
(16.3425 -0.000157443 0)
(16.348 -0.000141195 0)
(16.3532 -0.000121397 0)
(16.3581 -9.8988e-05 0)
(16.3626 -7.45506e-05 0)
(16.3668 -5.17393e-05 0)
(16.3709 -2.12854e-05 0)
(19.9739 0.052718 0)
(19.8889 0.0285834 0)
(19.6025 0.0227995 0)
(19.1903 0.0172661 0)
(18.776 0.0128803 0)
(18.4202 0.00975677 0)
(18.1302 0.00758162 0)
(17.8955 0.00604682 0)
(17.7042 0.0049334 0)
(17.546 0.00410026 0)
(17.4137 0.00345889 0)
(17.3016 0.00295286 0)
(17.2056 0.00254508 0)
(17.1228 0.00221049 0)
(17.0508 0.0019317 0)
(16.9878 0.00169629 0)
(16.9324 0.00149522 0)
(16.8836 0.00132175 0)
(16.8404 0.00117077 0)
(16.802 0.00103835 0)
(16.7679 0.000921396 0)
(16.7376 0.000817464 0)
(16.7106 0.000724593 0)
(16.6866 0.000641191 0)
(16.6653 0.000565954 0)
(16.6463 0.000497803 0)
(16.6296 0.000435842 0)
(16.6148 0.000379317 0)
(16.6019 0.00032759 0)
(16.5905 0.000280123 0)
(16.5807 0.000236452 0)
(16.5723 0.00019618 0)
(16.5651 0.000158963 0)
(16.5592 0.000124505 0)
(16.5543 9.25464e-05 0)
(16.5504 6.28587e-05 0)
(16.5475 3.5231e-05 0)
(16.5454 9.46967e-06 0)
(16.5442 -1.45843e-05 0)
(16.5437 -3.70095e-05 0)
(16.5439 -5.7906e-05 0)
(16.5448 -7.73822e-05 0)
(16.5463 -9.55391e-05 0)
(16.5483 -0.000112458 0)
(16.5509 -0.000128212 0)
(16.554 -0.000142862 0)
(16.5576 -0.000156452 0)
(16.5616 -0.000169026 0)
(16.566 -0.000180613 0)
(16.5708 -0.000191233 0)
(16.5759 -0.000200904 0)
(16.5813 -0.000209616 0)
(16.587 -0.000217368 0)
(16.593 -0.00022415 0)
(16.5992 -0.000229953 0)
(16.6056 -0.000234766 0)
(16.6121 -0.000238602 0)
(16.6188 -0.000241476 0)
(16.6256 -0.000243406 0)
(16.6325 -0.000244463 0)
(16.6394 -0.000244642 0)
(16.6463 -0.000244005 0)
(16.6532 -0.000242419 0)
(16.6601 -0.000239773 0)
(16.6669 -0.000235727 0)
(16.6735 -0.0002299 0)
(16.68 -0.000221675 0)
(16.6863 -0.000210544 0)
(16.6923 -0.00019584 0)
(16.698 -0.000177502 0)
(16.7035 -0.000155545 0)
(16.7086 -0.0001311 0)
(16.7135 -0.000104848 0)
(16.7182 -8.08549e-05 0)
(16.7228 -3.57393e-05 0)
(20.0011 0.0528694 0)
(19.9807 0.0295175 0)
(19.8226 0.0248232 0)
(19.5371 0.019951 0)
(19.1896 0.0155661 0)
(18.8549 0.0120995 0)
(18.5647 0.00952307 0)
(18.3221 0.00763897 0)
(18.1205 0.00624631 0)
(17.9523 0.0051943 0)
(17.8107 0.00438085 0)
(17.6905 0.00373795 0)
(17.5873 0.00321978 0)
(17.4983 0.00279489 0)
(17.4207 0.00244122 0)
(17.3529 0.00214297 0)
(17.2933 0.00188857 0)
(17.2407 0.00166939 0)
(17.194 0.00147888 0)
(17.1527 0.00131199 0)
(17.1159 0.00116477 0)
(17.0831 0.00103409 0)
(17.0539 0.000917445 0)
(17.0279 0.000812792 0)
(17.0047 0.000718472 0)
(16.9842 0.000633109 0)
(16.9659 0.00055556 0)
(16.9497 0.000484867 0)
(16.9355 0.000420219 0)
(16.923 0.000360932 0)
(16.9121 0.000306418 0)
(16.9027 0.000256174 0)
(16.8946 0.000209763 0)
(16.8878 0.000166813 0)
(16.8821 0.000126992 0)
(16.8775 9.00148e-05 0)
(16.8739 5.56181e-05 0)
(16.8712 2.3572e-05 0)
(16.8694 -6.34935e-06 0)
(16.8684 -3.42695e-05 0)
(16.8681 -6.02905e-05 0)
(16.8685 -8.45423e-05 0)
(16.8696 -0.000107152 0)
(16.8713 -0.000128223 0)
(16.8735 -0.000147847 0)
(16.8763 -0.000166103 0)
(16.8796 -0.000183049 0)
(16.8833 -0.000198739 0)
(16.8875 -0.000213213 0)
(16.892 -0.000226496 0)
(16.8969 -0.000238612 0)
(16.9022 -0.000249556 0)
(16.9077 -0.000259326 0)
(16.9135 -0.000267914 0)
(16.9196 -0.000275309 0)
(16.9259 -0.000281502 0)
(16.9323 -0.000286503 0)
(16.9389 -0.000290327 0)
(16.9457 -0.000292986 0)
(16.9525 -0.000294552 0)
(16.9594 -0.000295011 0)
(16.9663 -0.000294419 0)
(16.9732 -0.000292629 0)
(16.9801 -0.00028952 0)
(16.9869 -0.000284732 0)
(16.9936 -0.000277879 0)
(17.0001 -0.000268339 0)
(17.0065 -0.000255627 0)
(17.0126 -0.000239113 0)
(17.0185 -0.000218829 0)
(17.0241 -0.000194903 0)
(17.0295 -0.000168643 0)
(17.0347 -0.000140787 0)
(17.0397 -0.000115767 0)
(17.0447 -5.31329e-05 0)
(20.0187 0.0527445 0)
(20.0354 0.0299682 0)
(19.9582 0.026127 0)
(19.7862 0.0220655 0)
(19.5283 0.0180611 0)
(19.2388 0.0145161 0)
(18.9637 0.0116492 0)
(18.7216 0.00944108 0)
(18.5144 0.00775985 0)
(18.3385 0.00646875 0)
(18.189 0.00546134 0)
(18.0611 0.00466132 0)
(17.951 0.00401502 0)
(17.8557 0.00348461 0)
(17.7726 0.00304311 0)
(17.6999 0.00267097 0)
(17.6358 0.00235379 0)
(17.5792 0.00208078 0)
(17.5291 0.00184373 0)
(17.4845 0.00163628 0)
(17.4448 0.00145347 0)
(17.4094 0.00129135 0)
(17.3779 0.00114679 0)
(17.3497 0.0010172 0)
(17.3246 0.000900514 0)
(17.3023 0.000794993 0)
(17.2824 0.000699205 0)
(17.2647 0.000611947 0)
(17.2491 0.000532205 0)
(17.2353 0.000459121 0)
(17.2232 0.00039196 0)
(17.2127 0.000330092 0)
(17.2036 0.000272972 0)
(17.1959 0.000220134 0)
(17.1894 0.000171167 0)
(17.184 0.000125712 0)
(17.1796 8.34458e-05 0)
(17.1762 4.40939e-05 0)
(17.1738 7.37058e-06 0)
(17.1722 -2.69179e-05 0)
(17.1713 -5.88941e-05 0)
(17.1713 -8.86952e-05 0)
(17.1719 -0.000116479 0)
(17.1731 -0.000142375 0)
(17.1749 -0.0001665 0)
(17.1773 -0.00018895 0)
(17.1803 -0.0002098 0)
(17.1837 -0.000229118 0)
(17.1875 -0.000246957 0)
(17.1918 -0.000263348 0)
(17.1965 -0.000278325 0)
(17.2015 -0.000291885 0)
(17.2068 -0.00030403 0)
(17.2124 -0.000314753 0)
(17.2183 -0.000324045 0)
(17.2245 -0.000331893 0)
(17.2308 -0.000338309 0)
(17.2373 -0.000343302 0)
(17.2439 -0.000346884 0)
(17.2506 -0.000349124 0)
(17.2575 -0.000349999 0)
(17.2643 -0.000349561 0)
(17.2712 -0.000347652 0)
(17.278 -0.000344143 0)
(17.2848 -0.000338667 0)
(17.2915 -0.000330839 0)
(17.2981 -0.000320045 0)
(17.3045 -0.000305836 0)
(17.3107 -0.000287629 0)
(17.3167 -0.000265545 0)
(17.3225 -0.000239825 0)
(17.3281 -0.000211927 0)
(17.3336 -0.000182603 0)
(17.3388 -0.00015659 0)
(17.344 -7.3495e-05 0)
(20.0306 0.0523702 0)
(20.0698 0.03007 0)
(20.0406 0.0268629 0)
(19.9512 0.0235191 0)
(19.7855 0.0201272 0)
(19.5621 0.0168135 0)
(19.3211 0.0138542 0)
(19.0917 0.0114083 0)
(18.8862 0.0094621 0)
(18.7068 0.00792766 0)
(18.5516 0.00671164 0)
(18.4174 0.00573709 0)
(18.3011 0.00494558 0)
(18.1999 0.00429407 0)
(18.1114 0.00375094 0)
(18.0336 0.00329287 0)
(17.9651 0.00290244 0)
(17.9044 0.00256648 0)
(17.8506 0.00227493 0)
(17.8027 0.00201996 0)
(17.76 0.00179544 0)
(17.7219 0.00159649 0)
(17.6879 0.00141922 0)
(17.6574 0.00126045 0)
(17.6302 0.00111758 0)
(17.6059 0.000988481 0)
(17.5843 0.000871372 0)
(17.565 0.000764765 0)
(17.5479 0.000667402 0)
(17.5327 0.000578221 0)
(17.5194 0.000496313 0)
(17.5077 0.0004209 0)
(17.4975 0.000351308 0)
(17.4887 0.000286961 0)
(17.4813 0.000227351 0)
(17.475 0.000172037 0)
(17.4698 0.000120623 0)
(17.4657 7.27757e-05 0)
(17.4625 2.81608e-05 0)
(17.4603 -1.35041e-05 0)
(17.4588 -5.23947e-05 0)
(17.4581 -8.86445e-05 0)
(17.4582 -0.000122441 0)
(17.459 -0.000153946 0)
(17.4603 -0.000183301 0)
(17.4623 -0.000210627 0)
(17.4648 -0.00023602 0)
(17.4679 -0.000259563 0)
(17.4714 -0.000281322 0)
(17.4753 -0.000301341 0)
(17.4797 -0.000319662 0)
(17.4844 -0.000336288 0)
(17.4895 -0.000351224 0)
(17.4949 -0.000364468 0)
(17.5006 -0.00037601 0)
(17.5065 -0.000385837 0)
(17.5126 -0.00039396 0)
(17.519 -0.000400386 0)
(17.5255 -0.000405123 0)
(17.5321 -0.000408237 0)
(17.5388 -0.000409698 0)
(17.5456 -0.000409557 0)
(17.5523 -0.000407645 0)
(17.5591 -0.000403833 0)
(17.5659 -0.000397755 0)
(17.5725 -0.000389036 0)
(17.5791 -0.000377083 0)
(17.5855 -0.000361492 0)
(17.5918 -0.000341728 0)
(17.5979 -0.000318006 0)
(17.6038 -0.000290659 0)
(17.6096 -0.000261271 0)
(17.6152 -0.000230554 0)
(17.6207 -0.000203488 0)
(17.6261 -9.68855e-05 0)
(20.039 0.0517789 0)
(20.0926 0.0299213 0)
(20.092 0.027188 0)
(20.0552 0.0243789 0)
(19.9649 0.0216134 0)
(19.8158 0.0187666 0)
(19.6268 0.0159671 0)
(19.4257 0.0134437 0)
(19.2323 0.0113079 0)
(19.0559 0.00955549 0)
(18.899 0.0081319 0)
(18.761 0.00697327 0)
(18.6398 0.00602317 0)
(18.5336 0.00523641 0)
(18.4401 0.0045781 0)
(18.3576 0.00402166 0)
(18.2847 0.0035468 0)
(18.22 0.00313796 0)
(18.1624 0.00278311 0)
(18.1111 0.00247283 0)
(18.0653 0.00219969 0)
(18.0243 0.00195779 0)
(17.9877 0.00174234 0)
(17.9548 0.00154949 0)
(17.9254 0.00137606 0)
(17.8991 0.00121944 0)
(17.8755 0.00107746 0)
(17.8545 0.000948274 0)
(17.8358 0.000830362 0)
(17.8192 0.000722417 0)
(17.8044 0.000623327 0)
(17.7915 0.000532137 0)
(17.7801 0.000448025 0)
(17.7702 0.000370284 0)
(17.7617 0.000298294 0)
(17.7545 0.000231516 0)
(17.7484 0.000169468 0)
(17.7435 0.000111744 0)
(17.7395 5.79579e-05 0)
(17.7365 7.74604e-06 0)
(17.7344 -3.91576e-05 0)
(17.733 -8.29024e-05 0)
(17.7325 -0.000123687 0)
(17.7327 -0.00016171 0)
(17.7335 -0.000197146 0)
(17.735 -0.000230145 0)
(17.7371 -0.000260822 0)
(17.7397 -0.000289283 0)
(17.7428 -0.00031561 0)
(17.7464 -0.000339861 0)
(17.7504 -0.000362089 0)
(17.7548 -0.000382303 0)
(17.7596 -0.000400517 0)
(17.7647 -0.000416731 0)
(17.7701 -0.000430937 0)
(17.7758 -0.000443124 0)
(17.7817 -0.000453298 0)
(17.7879 -0.000461469 0)
(17.7942 -0.000467637 0)
(17.8006 -0.000471868 0)
(17.8072 -0.000474125 0)
(17.8138 -0.000474459 0)
(17.8205 -0.000472697 0)
(17.8272 -0.000468716 0)
(17.8338 -0.000462158 0)
(17.8404 -0.00045267 0)
(17.8469 -0.000439689 0)
(17.8533 -0.000422862 0)
(17.8596 -0.00040171 0)
(17.8658 -0.000376527 0)
(17.8718 -0.000347726 0)
(17.8777 -0.00031698 0)
(17.8835 -0.000284903 0)
(17.8891 -0.000256647 0)
(17.8946 -0.000123381 0)
(20.0449 0.0509937 0)
(20.1082 0.029581 0)
(20.1254 0.0272183 0)
(20.1206 0.0247808 0)
(20.0821 0.0225188 0)
(19.9986 0.0202042 0)
(19.8707 0.0177773 0)
(19.7131 0.0153876 0)
(19.5451 0.0132012 0)
(19.3812 0.0113027 0)
(19.2289 0.00970101 0)
(19.0909 0.00836499 0)
(18.9675 0.00725183 0)
(18.8578 0.00632036 0)
(18.7603 0.00553561 0)
(18.6738 0.00486927 0)
(18.5968 0.00429896 0)
(18.5283 0.00380701 0)
(18.4671 0.00337952 0)
(18.4124 0.00300549 0)
(18.3634 0.00267615 0)
(18.3195 0.00238445 0)
(18.2801 0.0021247 0)
(18.2448 0.00189225 0)
(18.2131 0.00168328 0)
(18.1846 0.00149464 0)
(18.1591 0.0013237 0)
(18.1362 0.00116824 0)
(18.1158 0.00102641 0)
(18.0975 0.000896623 0)
(18.0813 0.000777536 0)
(18.067 0.000667989 0)
(18.0543 0.000566986 0)
(18.0433 0.000473668 0)
(18.0336 0.000387284 0)
(18.0254 0.000307179 0)
(18.0183 0.000232771 0)
(18.0124 0.00016357 0)
(18.0076 9.91201e-05 0)
(18.0038 3.89964e-05 0)
(18.0009 -1.71843e-05 0)
(17.9989 -6.96314e-05 0)
(17.9977 -0.000118537 0)
(17.9972 -0.000164138 0)
(17.9975 -0.000206645 0)
(17.9984 -0.000246239 0)
(18 -0.000283064 0)
(18.0021 -0.000317251 0)
(18.0047 -0.0003489 0)
(18.0079 -0.000378086 0)
(18.0115 -0.000404876 0)
(18.0155 -0.000429289 0)
(18.02 -0.000451347 0)
(18.0248 -0.000471056 0)
(18.0299 -0.000488411 0)
(18.0353 -0.0005034 0)
(18.0409 -0.000516033 0)
(18.0468 -0.000526314 0)
(18.0529 -0.000534242 0)
(18.0591 -0.00053988 0)
(18.0655 -0.000543187 0)
(18.0719 -0.000544219 0)
(18.0785 -0.000542801 0)
(18.085 -0.000538825 0)
(18.0915 -0.00053195 0)
(18.098 -0.000521854 0)
(18.1045 -0.000508015 0)
(18.1108 -0.000490138 0)
(18.1171 -0.000467796 0)
(18.1233 -0.000441358 0)
(18.1293 -0.00041129 0)
(18.1353 -0.000379315 0)
(18.1411 -0.000345887 0)
(18.1468 -0.000316248 0)
(18.1524 -0.000153061 0)
(20.0492 0.0500256 0)
(20.1193 0.0290806 0)
(20.1481 0.0270286 0)
(20.1628 0.0248477 0)
(20.1569 0.0229464 0)
(20.1211 0.0210868 0)
(20.0495 0.0191112 0)
(19.9437 0.0170398 0)
(19.8141 0.0149855 0)
(19.6744 0.0130688 0)
(19.5354 0.0113618 0)
(19.4037 0.00988347 0)
(19.2821 0.00862018 0)
(19.1717 0.0075449 0)
(19.0721 0.00662841 0)
(18.9827 0.00584401 0)
(18.9025 0.00516892 0)
(18.8306 0.00458437 0)
(18.7661 0.00407509 0)
(18.7082 0.00362869 0)
(18.6562 0.00323516 0)
(18.6094 0.00288635 0)
(18.5673 0.0025756 0)
(18.5295 0.00229746 0)
(18.4954 0.00204741 0)
(18.4647 0.0018217 0)
(18.4371 0.00161719 0)
(18.4123 0.00143126 0)
(18.39 0.00126167 0)
(18.3701 0.00110653 0)
(18.3524 0.00096422 0)
(18.3365 0.000833354 0)
(18.3225 0.000712731 0)
(18.3102 0.00060132 0)
(18.2993 0.000498215 0)
(18.2899 0.000402632 0)
(18.2818 0.000313871 0)
(18.2749 0.00023134 0)
(18.2692 0.0001545 0)
(18.2645 8.28624e-05 0)
(18.2608 1.59433e-05 0)
(18.2579 -4.65809e-05 0)
(18.256 -0.000104925 0)
(18.2549 -0.000159333 0)
(18.2545 -0.000210058 0)
(18.2548 -0.000257322 0)
(18.2557 -0.000301301 0)
(18.2573 -0.000342151 0)
(18.2595 -0.000379998 0)
(18.2621 -0.000414937 0)
(18.2653 -0.000447052 0)
(18.2689 -0.000476375 0)
(18.2729 -0.000502936 0)
(18.2773 -0.000526752 0)
(18.2821 -0.000547819 0)
(18.2871 -0.000566131 0)
(18.2925 -0.000581695 0)
(18.2981 -0.000594518 0)
(18.3039 -0.000604592 0)
(18.3098 -0.000611984 0)
(18.316 -0.000616648 0)
(18.3222 -0.000618648 0)
(18.3285 -0.000617815 0)
(18.3348 -0.000614063 0)
(18.3412 -0.000607077 0)
(18.3476 -0.000596578 0)
(18.3539 -0.000582093 0)
(18.3601 -0.00056339 0)
(18.3663 -0.000540097 0)
(18.3725 -0.000512638 0)
(18.3785 -0.000481513 0)
(18.3845 -0.000448451 0)
(18.3904 -0.000413676 0)
(18.3961 -0.00038243 0)
(18.4018 -0.000185994 0)
(20.0522 0.0488783 0)
(20.1272 0.0284366 0)
(20.164 0.0266625 0)
(20.1912 0.0246654 0)
(20.2052 0.0230151 0)
(20.2004 0.0214911 0)
(20.1713 0.0199148 0)
(20.1139 0.0182338 0)
(20.0293 0.0164681 0)
(19.9247 0.0146947 0)
(19.8096 0.0130044 0)
(19.6925 0.0114605 0)
(19.579 0.0100893 0)
(19.4722 0.00889024 0)
(19.3736 0.00784889 0)
(19.2834 0.00694579 0)
(19.2015 0.00616125 0)
(19.1273 0.00547736 0)
(19.0602 0.00487863 0)
(18.9996 0.004352 0)
(18.9448 0.00388657 0)
(18.8953 0.00347327 0)
(18.8507 0.0031046 0)
(18.8103 0.00277431 0)
(18.7739 0.0024772 0)
(18.7409 0.00220891 0)
(18.7112 0.00196577 0)
(18.6845 0.00174469 0)
(18.6604 0.00154304 0)
(18.6387 0.00135859 0)
(18.6193 0.00118941 0)
(18.6019 0.00103386 0)
(18.5865 0.000890512 0)
(18.5727 0.000758132 0)
(18.5606 0.000635646 0)
(18.55 0.000522115 0)
(18.5407 0.000416708 0)
(18.5328 0.000318716 0)
(18.526 0.000227499 0)
(18.5204 0.000142488 0)
(18.5157 6.313e-05 0)
(18.5121 -1.10401e-05 0)
(18.5093 -8.03301e-05 0)
(18.5074 -0.000144969 0)
(18.5063 -0.000205244 0)
(18.5059 -0.000261423 0)
(18.5062 -0.000313718 0)
(18.5072 -0.00036232 0)
(18.5088 -0.000407382 0)
(18.5109 -0.000449024 0)
(18.5135 -0.000487348 0)
(18.5166 -0.000522405 0)
(18.5202 -0.000554237 0)
(18.5242 -0.000582868 0)
(18.5285 -0.000608305 0)
(18.5332 -0.000630543 0)
(18.5382 -0.000649593 0)
(18.5434 -0.00066546 0)
(18.5489 -0.000678136 0)
(18.5545 -0.000687691 0)
(18.5604 -0.000694078 0)
(18.5663 -0.000697371 0)
(18.5724 -0.000697415 0)
(18.5785 -0.000694155 0)
(18.5846 -0.000687311 0)
(18.5908 -0.000676658 0)
(18.5969 -0.000661782 0)
(18.603 -0.000642521 0)
(18.6091 -0.000618553 0)
(18.6151 -0.000590349 0)
(18.6211 -0.000558409 0)
(18.6271 -0.000524427 0)
(18.6329 -0.000488327 0)
(18.6387 -0.000455248 0)
(18.6443 -0.000222217 0)
(20.0542 0.0475508 0)
(20.1328 0.0276568 0)
(20.1754 0.0261432 0)
(20.2109 0.0242867 0)
(20.2375 0.0228152 0)
(20.252 0.0215276 0)
(20.2508 0.02025 0)
(20.2303 0.0189168 0)
(20.1875 0.0174951 0)
(20.1228 0.0159937 0)
(20.0406 0.0144639 0)
(19.9476 0.0129732 0)
(19.8502 0.0115763 0)
(19.7535 0.0103042 0)
(19.6605 0.00916629 0)
(19.573 0.00815829 0)
(19.4918 0.00726913 0)
(19.417 0.00648537 0)
(19.3486 0.00579358 0)
(19.2862 0.00518137 0)
(19.2294 0.00463784 0)
(19.1777 0.00415353 0)
(19.1308 0.00372041 0)
(19.0882 0.00333163 0)
(19.0496 0.0029814 0)
(19.0145 0.0026648 0)
(18.9828 0.00237765 0)
(18.954 0.0021164 0)
(18.928 0.00187802 0)
(18.9046 0.00165991 0)
(18.8835 0.00145982 0)
(18.8645 0.00127583 0)
(18.8476 0.00110627 0)
(18.8324 0.000949684 0)
(18.8189 0.000804804 0)
(18.807 0.000670525 0)
(18.7966 0.000545863 0)
(18.7875 0.000429978 0)
(18.7796 0.000322114 0)
(18.7729 0.000221604 0)
(18.7673 0.000127826 0)
(18.7627 4.02047e-05 0)
(18.7591 -4.17242e-05 0)
(18.7564 -0.00011823 0)
(18.7545 -0.00018959 0)
(18.7533 -0.00025612 0)
(18.753 -0.000318076 0)
(18.7532 -0.000375687 0)
(18.7542 -0.000429141 0)
(18.7557 -0.000478582 0)
(18.7577 -0.00052414 0)
(18.7603 -0.000565884 0)
(18.7634 -0.000603872 0)
(18.7668 -0.000638142 0)
(18.7707 -0.000668708 0)
(18.7749 -0.000695572 0)
(18.7795 -0.000718749 0)
(18.7843 -0.000738246 0)
(18.7894 -0.000754056 0)
(18.7947 -0.000766253 0)
(18.8002 -0.000774792 0)
(18.8058 -0.000779766 0)
(18.8115 -0.000781036 0)
(18.8173 -0.000778587 0)
(18.8232 -0.000772188 0)
(18.8291 -0.000761678 0)
(18.835 -0.00074671 0)
(18.8409 -0.000727201 0)
(18.8468 -0.000702877 0)
(18.8527 -0.000674243 0)
(18.8586 -0.000641771 0)
(18.8644 -0.000607077 0)
(18.8702 -0.000569716 0)
(18.8759 -0.000534613 0)
(18.8814 -0.000261703 0)
(20.0555 0.046039 0)
(20.1367 0.0267443 0)
(20.1836 0.0254815 0)
(20.2248 0.023741 0)
(20.2598 0.0224039 0)
(20.2863 0.0212858 0)
(20.3028 0.0202192 0)
(20.3068 0.019147 0)
(20.2955 0.0180268 0)
(20.2667 0.0168313 0)
(20.2202 0.0155621 0)
(20.1584 0.0142502 0)
(20.0856 0.0129428 0)
(20.0066 0.0116859 0)
(19.9257 0.0105116 0)
(19.846 0.00943648 0)
(19.7693 0.0084647 0)
(19.697 0.00759249 0)
(19.6294 0.00681222 0)
(19.5668 0.00611472 0)
(19.5091 0.00549069 0)
(19.4562 0.00493141 0)
(19.4076 0.00442896 0)
(19.3633 0.00397637 0)
(19.3228 0.00356754 0)
(19.2858 0.00319718 0)
(19.2522 0.00286071 0)
(19.2217 0.0025542 0)