/*--------------------------------*- C++ -*----------------------------------*\
  =========                 |
  \\      /  F ield         | OpenFOAM: The Open Source CFD Toolbox
   \\    /   O peration     | Website:  https://openfoam.org
    \\  /    A nd           | Version:  7
     \\/     M anipulation  |
\*---------------------------------------------------------------------------*/
FoamFile
{
    version     2.0;
    format      ascii;
    class       volScalarField;
    location    "3.4";
    object      p;
}
// * * * * * * * * * * * * * * * * * * * * * * * * * * * * * * * * * * * * * //

dimensions      [0 2 -2 0 0 0 0];

internalField   nonuniform List<scalar> 
900
(
-1.70201e-09
-0.000268008
-0.000669298
-0.00104349
-0.00133087
-0.00148326
-0.00147841
-0.00130883
-0.000973462
-0.000474106
0.000185499
0.000998932
0.00195537
0.00303743
0.00421909
0.00546434
0.006727
0.00795192
0.00907836
0.010045
0.0107967
0.0112915
0.0115079
0.0114502
0.0111512
0.0106724
0.0100992
0.00953571
0.00911174
0.00894343
0.000264627
-9.26807e-06
-0.000300506
-0.000561232
-0.00074777
-0.000825932
-0.000777684
-0.000594805
-0.000274072
0.00018471
0.000779197
0.00150397
0.00234928
0.00329955
0.00433177
0.0054145
0.00650897
0.00756811
0.00854126
0.00937791
0.0100332
0.010474
0.0106848
0.0106714
0.0104632
0.0101112
0.00968439
0.00926384
0.00893371
0.00877343
0.000679073
0.000272653
-2.75236e-05
-0.000255753
-0.000403615
-0.000449305
-0.00038159
-0.000195527
0.000111294
0.000539573
0.00108818
0.00175339
0.0025276
0.00339783
0.00434419
0.00533916
0.00634717
0.00732556
0.00822744
0.0090056
0.00961776
0.0100326
0.0102351
0.0102305
0.0100456
0.00972651
0.00933401
0.00893763
0.00860057
0.00836025
0.00108025
0.000520606
0.00016704
-6.89481e-05
-0.000210053
-0.000246041
-0.000173483
7.69119e-06
0.000297873
0.000697735
0.00120745
0.00182553
0.00254727
0.00336296
0.00425616
0.00520241
0.00616872
0.007114
0.00799177
0.00875389
0.00935611
0.0097644
0.00996097
0.00994855
0.00975156
0.00941368
0.00899319
0.00855634
0.00815209
0.00778457
0.00139452
0.000672325
0.000250449
-1.06667e-05
-0.000161237
-0.000201084
-0.0001342
3.4592e-05
0.000303597
0.00067352
0.00114611
0.00172258
0.00240171
0.00317764
0.00403762
0.00496014
0.00591475
0.00686024
0.00774854
0.00852786
0.0091487
0.00957094
0.00977095
0.00974684
0.00952026
0.00913395
0.00864728
0.0081292
0.00762081
0.00710005
0.00154471
0.000664355
0.000168903
-0.000127296
-0.000298523
-0.000353093
-0.000301499
-0.000152874
8.93799e-05
0.000426336
0.000861713
0.00139994
0.00204383
0.00279201
0.00363593
0.00455724
0.00552865
0.00650729
0.00744215
0.00827549
0.00894932
0.00941375
0.00963564
0.00960559
0.00934115
0.00888494
0.00830078
0.00766614
0.00702171
0.00632545
0.00147086
0.000442295
-0.000126747
-0.000463251
-0.00066276
-0.000740859
-0.000713587
-0.000593629
-0.000385535
-8.73892e-05
0.000306985
0.0008058
0.00141665
0.00214346
0.002983
0.00392142
0.00493354
0.00597659
0.00699547
0.00792438
0.00869369
0.00923944
0.00951416
0.00949661
0.00919739
0.0086587
0.0079516
0.00716785
0.00635452
0.00545345
0.00112355
-4.18001e-05
-0.000681727
-0.00106089
-0.00129415
-0.00140358
-0.00140998
-0.00132892
-0.00116554
-0.000916619
-0.000573007
-0.000122059
0.000449503
0.00115214
0.00198977
0.00295572
0.00402497
0.00515991
0.00630082
0.00737253
0.00829056
0.00897177
0.00934792
0.00937924
0.00906414
0.00844211
0.00759315
0.00662909
0.00560937
0.00446077
0.000458935
-0.000831544
-0.00153864
-0.00196178
-0.0022338
-0.0023828
-0.00243391
-0.00240508
-0.00230171
-0.00211892
-0.00184422
-0.00145986
-0.00094581
-0.000283377
0.000540474
0.00152791
0.0026629
0.00391078
0.00521051
0.00647798
0.00761127
0.00850218
0.00905301
0.00919543
0.00890656
0.00821747
0.00721693
0.00604258
0.00477188
0.00331498
-0.000562777
-0.00196655
-0.00273693
-0.00320549
-0.00352198
-0.00372046
-0.00383018
-0.00387137
-0.00384963
-0.00375843
-0.00358175
-0.00329627
-0.00287407
-0.00228618
-0.00150726
-0.000521862
0.000667367
0.00203542
0.00352433
0.00504363
0.00647272
0.00767226
0.00850401
0.0088566
0.00867091
0.00795823
0.00681229
0.00540168
0.00382798
0.00198109
-0.00197728
-0.00348205
-0.00431198
-0.0048281
-0.00519617
-0.00545635
-0.00564221
-0.00577655
-0.00586556
-0.00590152
-0.00586517
-0.00572749
-0.00545175
-0.00499652
-0.00432036
-0.00338874
-0.00218384
-0.000711527
0.000981353
0.00280455
0.00462075
0.0062546
0.00751455
0.00822639
0.00827174
0.00762186
0.00636473
0.00470291
0.00276883
0.000427689
-0.00381525
-0.00540811
-0.00629408
-0.0068607
-0.00728886
-0.00762524
-0.00790831
-0.00816419
-0.00840068
-0.0086099
-0.00877034
-0.00884778
-0.00879626
-0.00856002
-0.00807742
-0.00728787
-0.00614287
-0.00461907
-0.00273691
-0.000574687
0.001721
0.00393783
0.00581843
0.00710129
0.00757577
0.00713963
0.00585255
0.00394819
0.0015965
-0.00136631
-0.00610098
-0.00776856
-0.0087072
-0.00932767
-0.00982504
-0.0102533
-0.0106568
-0.0110665
-0.0114931
-0.0119307
-0.0123571
-0.0127345
-0.0130082
-0.0131068
-0.0129449
-0.0124285
-0.0114667
-0.0099937
-0.00798309
-0.00548247
-0.00263209
0.000325593
0.00305958
0.00519478
0.00638524
0.00640438
0.00524208
0.0031474
0.00033125
-0.00340264
-0.00885077
-0.01058
-0.0115679
-0.0122449
-0.0128195
-0.0133541
-0.0139006
-0.0144964
-0.0151581
-0.0158836
-0.0166534
-0.0174282
-0.0181464
-0.0187212
-0.0190408
-0.018972
-0.0183714
-0.0171074
-0.0150911
-0.0123109
-0.00887448
-0.00503547
-0.00119533
0.00213604
0.00442814
0.00526006
0.00448317
0.00232245
-0.000977833
-0.00565037
-0.0120717
-0.0138514
-0.0148847
-0.0156184
-0.0162741
-0.0169243
-0.0176307
-0.0184398
-0.0193766
-0.0204469
-0.0216368
-0.0229093
-0.0241989
-0.0254053
-0.0263895
-0.0269747
-0.0269551
-0.0261181
-0.024291
-0.0213676
-0.0173881
-0.0125833
-0.00740375
-0.00249971
0.00136865
0.0035013
0.003509
0.00151494
-0.00223702
-0.00802576
-0.0157613
-0.0175845
-0.0186585
-0.0194441
-0.0201763
-0.0209403
-0.0218109
-0.022847
-0.0240857
-0.0255439
-0.0272177
-0.0290766
-0.0310553
-0.0330432
-0.034876
-0.036332
-0.0371387
-0.0369945
-0.0356056
-0.0327565
-0.028374
-0.0226169
-0.0159398
-0.00911107
-0.00314419
0.00089651
0.00224794
0.000801005
-0.00328415
-0.0103622
-0.0199089
-0.0217768
-0.022885
-0.0237082
-0.0244976
-0.0253553
-0.0263733
-0.0276274
-0.0291702
-0.0310338
-0.033228
-0.0357333
-0.0384886
-0.0413775
-0.0442144
-0.0467351
-0.0485997
-0.0494098
-0.0487466
-0.0462548
-0.0417079
-0.0351376
-0.0269365
-0.0179324
-0.00937394
-0.00274904
0.000658902
0.000319011
-0.00385389
-0.0123671
-0.024499
-0.0264262
-0.0275586
-0.0283904
-0.0291951
-0.0300985
-0.0312165
-0.0326463
-0.0344605
-0.0367095
-0.0394201
-0.0425864
-0.0461558
-0.0500101
-0.0539469
-0.0576653
-0.0607626
-0.0627466
-0.0630714
-0.0612363
-0.0568286
-0.049703
-0.0401137
-0.028856
-0.0173402
-0.00747844
-0.00119735
0.000317631
-0.00352878
-0.0135629
-0.029519
-0.0315404
-0.0326808
-0.0334683
-0.0342131
-0.0350759
-0.0362054
-0.0377271
-0.0397367
-0.0423055
-0.0454785
-0.0492652
-0.0536227
-0.0584339
-0.0634838
-0.0684409
-0.0728481
-0.0761315
-0.0776335
-0.0766927
-0.0727208
-0.0653598
-0.0546573
-0.0412683
-0.0266389
-0.0130235
-0.00304259
0.0012325
-0.00167229
-0.0132079
-0.0349727
-0.0371523
-0.038271
-0.0389242
-0.0394865
-0.0401721
-0.0411754
-0.042657
-0.0447396
-0.0475153
-0.0510467
-0.055357
-0.060412
-0.0660951
-0.0721813
-0.0783132
-0.0839886
-0.088566
-0.0912991
-0.0913656
-0.0880315
-0.0807187
-0.0692273
-0.0539789
-0.0363044
-0.0186378
-0.00423059
0.00379665
0.00265988
-0.0101914
-0.0409039
-0.0433436
-0.0443833
-0.0447534
-0.0449447
-0.0452535
-0.045937
-0.0471986
-0.0491886
-0.0520182
-0.0557634
-0.0604562
-0.0660662
-0.0724738
-0.0794419
-0.0865898
-0.0933777
-0.099102
-0.102938
-0.103973
-0.101309
-0.0941787
-0.0821337
-0.0653113
-0.044795
-0.0229912
-0.00359863
0.00917842
0.0108329
-0.00288973
-0.0474415
-0.0502846
-0.0511292
-0.0509722
-0.0505126
-0.0501702
-0.0502832
-0.0511028
-0.0528044
-0.0555115
-0.059305
-0.0642172
-0.0702128
-0.0771617
-0.0848084
-0.0927461
-0.100411
-0.107022
-0.111709
-0.113474
-0.111293
-0.104239
-0.0916438
-0.0733601
-0.050149
-0.0241962
0.000617548
0.0191191
0.0247715
0.0110375
-0.0548875
-0.0582985
-0.0587075
-0.0576247
-0.0561097
-0.0547564
-0.0539968
-0.0541263
-0.0553342
-0.057743
-0.0614251
-0.0663998
-0.072615
-0.0799187
-0.0880259
-0.096488
-0.104775
-0.111932
-0.11712
-0.11923
-0.117134
-0.109781
-0.0963189
-0.0763485
-0.0502998
-0.0200092
0.010736
0.0360214
0.0471333
0.0349602
-0.0639025
-0.0679695
-0.0674406
-0.0647829
-0.0616424
-0.0588286
-0.0568582
-0.0560478
-0.0565755
-0.0585398
-0.0619847
-0.0668993
-0.0732003
-0.0807008
-0.0890824
-0.0978635
-0.106392
-0.113786
-0.119045
-0.121016
-0.118475
-0.110231
-0.0952711
-0.0729821
-0.0434916
-0.00821529
0.0293712
0.0629193
0.0815397
0.0737592
-0.0759145
-0.0803201
-0.077799
-0.0725215
-0.0669774
-0.0621707
-0.0586422
-0.0566739
-0.0563868
-0.0578193
-0.0609604
-0.0657476
-0.0720479
-0.0796269
-0.088117
-0.0969863
-0.105517
-0.11279
-0.117714
-0.11905
-0.115456
-0.105602
-0.0883019
-0.0627266
-0.0287252
0.0128048
0.0588586
0.103196
0.132747
0.134308
-0.0940619
-0.0971068
-0.090357
-0.0808179
-0.0718541
-0.0644644
-0.0590645
-0.0557965
-0.0546513
-0.0555552
-0.0584075
-0.0630702
-0.0693434
-0.0769321
-0.0854107
-0.0941899
-0.102493
-0.10934
-0.113558
-0.113809
-0.108612
-0.0964734
-0.0759879
-0.046035
-0.00608126
0.0434104
0.100395
0.15974
0.206178
0.225352
-0.125304
-0.121232
-0.105707
-0.0894206
-0.0757528
-0.0651726
-0.0576875
-0.053122
-0.0512213
-0.0517322
-0.0544203
-0.0590473
-0.0653335
-0.0729167
-0.0813112
-0.0898722
-0.0977676
-0.10396
-0.107208
-0.106084
-0.0989302
-0.0840913
-0.0598679
-0.0247169
0.0224949
0.0821713
0.153653
0.233181
0.306168
0.35871
-0.18529
-0.155769
-0.123848
-0.0973895
-0.0774844
-0.0632543
-0.0537709
-0.0482139
-0.0459133
-0.0463559
-0.0491412
-0.0539199
-0.060334
-0.067962
-0.0762705
-0.0845731
-0.0919977
-0.0974652
-0.09969
-0.0972086
-0.0881509
-0.0707683
-0.0429898
-0.00270009
0.0522082
0.123725
0.213611
0.321016
0.435068
0.561324
-0.317207
-0.196101
-0.135869
-0.0966609
-0.0707472
-0.0541422
-0.0441797
-0.0389717
-0.0373101
-0.0384481
-0.0418802
-0.0472028
-0.0540283
-0.0619193
-0.0703343
-0.078583
-0.085792
-0.0908748
-0.0925046
-0.0890867
-0.0791884
-0.0605043
-0.0307676
0.0126518
0.0730459
0.154844
0.264448
0.410173
0.598748
0.888376
-0.644029
-0.232163
-0.104243
-0.0615532
-0.0389139
-0.026354
-0.0207598
-0.019471
-0.0209478
-0.0245046
-0.0297902
-0.0365349
-0.0444559
-0.0532007
-0.0622987
-0.0711214
-0.0788525
-0.0844697
-0.0867449
-0.0842508
-0.0751089
-0.0573636
-0.0287434
0.0135906
0.0735243
0.157374
0.277548
0.462213
0.768503
1.36245
)
;

boundaryField
{
    movingWall
    {
        type            zeroGradient;
    }
    fixedWalls
    {
        type            zeroGradient;
    }
    frontAndBack
    {
        type            empty;
    }
}


// ************************************************************************* //
