/*--------------------------------*- C++ -*----------------------------------*\
  =========                 |
  \\      /  F ield         | OpenFOAM: The Open Source CFD Toolbox
   \\    /   O peration     | Website:  https://openfoam.org
    \\  /    A nd           | Version:  7
     \\/     M anipulation  |
\*---------------------------------------------------------------------------*/
FoamFile
{
    version     2.0;
    format      ascii;
    class       surfaceScalarField;
    location    "3.4";
    object      phi;
}
// * * * * * * * * * * * * * * * * * * * * * * * * * * * * * * * * * * * * * //

dimensions      [0 3 -1 0 0 0 0];

internalField   nonuniform List<scalar> 
1740
(
4.81796e-07
-4.81781e-07
-5.17986e-08
5.33591e-07
-1.79691e-06
1.74513e-06
-4.58877e-06
2.79184e-06
-8.13676e-06
3.54798e-06
-1.21647e-05
4.02792e-06
-1.64444e-05
4.27978e-06
-2.07935e-05
4.34903e-06
-2.50604e-05
4.26691e-06
-2.91096e-05
4.04918e-06
-3.28087e-05
3.69913e-06
-3.60211e-05
3.21243e-06
-3.86039e-05
2.58281e-06
-4.04119e-05
1.80796e-06
-4.13072e-05
8.95322e-07
-4.11739e-05
-1.33272e-07
-3.99351e-05
-1.23884e-06
-3.75726e-05
-2.3625e-06
-3.41435e-05
-3.42908e-06
-2.97912e-05
-4.35231e-06
-2.47476e-05
-5.04366e-06
-1.93237e-05
-5.42384e-06
-1.38885e-05
-5.43523e-06
-8.83569e-06
-5.05279e-06
-4.54394e-06
-4.29175e-06
-1.3313e-06
-3.21264e-06
5.98706e-07
-1.93001e-06
1.22292e-06
-6.24211e-07
7.57204e-07
4.65709e-07
7.57208e-07
-5.2292e-07
4.11309e-08
-3.36729e-06
3.37797e-06
-8.81624e-06
7.19408e-06
-1.64749e-05
1.04505e-05
-2.58135e-05
1.28866e-05
-3.62774e-05
1.44918e-05
-4.73542e-05
1.53566e-05
-5.85925e-05
1.55874e-05
-6.95916e-05
1.52661e-05
-7.99817e-05
1.44392e-05
-8.94049e-05
1.31223e-05
-9.75041e-05
1.13117e-05
-0.000103923
9.00134e-06
-0.000108315
6.19994e-06
-0.000110367
2.9478e-06
-0.000109835
-6.65145e-07
-0.000106569
-4.50505e-06
-0.000100565
-8.3669e-06
-9.19886e-05
-1.2005e-05
-8.11999e-05
-1.51411e-05
-6.87498e-05
-1.74937e-05
-5.53595e-05
-1.88141e-05
-4.18701e-05
-1.89247e-05
-2.91695e-05
-1.77534e-05
-1.81008e-05
-1.53604e-05
-9.35908e-06
-1.19544e-05
-3.38409e-06
-7.905e-06
-2.49426e-07
-3.75887e-06
5.17258e-07
-3.00972e-07
1.27447e-06
-1.8279e-06
1.86904e-06
-7.5179e-06
9.06794e-06
-1.67658e-05
1.64419e-05
-2.89886e-05
2.26734e-05
-4.34643e-05
2.73622e-05
-5.94523e-05
3.04798e-05
-7.62531e-05
3.21574e-05
-9.32275e-05
3.25618e-05
-0.000109789
3.18279e-05
-0.000125387
3.00368e-05
-0.000139485
2.72204e-05
-0.000151555
2.33816e-05
-0.000161077
1.8523e-05
-0.000167556
1.26793e-05
-0.000170556
5.94811e-06
-0.000169739
-1.48278e-06
-0.000164911
-9.33266e-06
-0.00015608
-1.7198e-05
-0.00014349
-2.4595e-05
-0.00012765
-3.09812e-05
-0.000109333
-3.58109e-05
-8.95448e-05
-3.86021e-05
-6.94598e-05
-3.90097e-05
-5.03189e-05
-3.68943e-05
-3.33052e-05
-3.23741e-05
-1.94025e-05
-2.58572e-05
-9.25171e-06
-1.80558e-05
-3.0184e-06
-9.99218e-06
-3.00045e-07
-3.01933e-06
9.74422e-07
-3.13844e-06
5.00748e-06
-1.16495e-05
1.7579e-05
-2.46517e-05
2.94441e-05
-4.12251e-05
3.92468e-05
-6.04368e-05
4.65738e-05
-8.13871e-05
5.14302e-05
-0.000103238
5.40087e-05
-0.000125219
5.45421e-05
-0.00014661
5.32191e-05
-0.000166728
5.01546e-05
-0.000184904
4.53964e-05
-0.000200477
3.89546e-05
-0.000212798
3.08447e-05
-0.000221254
2.11351e-05
-0.0002253
9.9938e-06
-0.000224511
-2.27199e-06
-0.000218637
-1.5206e-05
-0.000207668
-2.8167e-05
-0.000191879
-4.03843e-05
-0.000171865
-5.09947e-05
-0.000148551
-5.91251e-05
-0.000123156
-6.39976e-05
-9.71199e-05
-6.50455e-05
-7.19891e-05
-6.20251e-05
-4.92594e-05
-5.51037e-05
-3.02059e-05
-4.49107e-05
-1.57118e-05
-3.25499e-05
-6.1277e-06
-1.95763e-05
-1.18697e-06
-7.96005e-06
-2.12553e-07
-4.33298e-06
9.34047e-06
-1.5532e-05
2.87781e-05
-3.21308e-05
4.60429e-05
-5.28376e-05
5.99535e-05
-7.64857e-05
7.0222e-05
-0.000102022
7.69665e-05
-0.000128495
8.04821e-05
-0.000155039
8.10851e-05
-0.000180842
7.90226e-05
-0.000205129
7.44416e-05
-0.000227134
6.74016e-05
-0.000246095
5.7915e-05
-0.000261255
4.60048e-05
-0.00027189
3.17699e-05
-0.000277344
1.54482e-05
-0.00027709
-2.52606e-06
-0.000270782
-2.15137e-05
-0.000258343
-4.06064e-05
-0.000240017
-5.87104e-05
-0.000216424
-7.45875e-05
-0.00018858
-8.69694e-05
-0.000157873
-9.47045e-05
-0.000125992
-9.69267e-05
-9.47935e-05
-9.32232e-05
-6.61251e-05
-8.37721e-05
-4.1614e-05
-6.94219e-05
-2.24634e-05
-5.17005e-05
-9.28846e-06
-3.27512e-05
-2.03274e-06
-1.52158e-05
-2.24529e-06
-5.40584e-06
1.47463e-05
-1.91083e-05
4.24805e-05
-3.90991e-05
6.60337e-05
-6.37159e-05
8.45703e-05
-9.15537e-05
9.80599e-05
-0.00012141
0.000106823
-0.000152239
0.000111311
-0.000183103
0.000111949
-0.000213133
0.000109053
-0.000241495
0.000102803
-0.000267355
9.32614e-05
-0.00028987
8.04304e-05
-0.000308191
6.43254e-05
-0.000321479
4.50582e-05
-0.000328951
2.29199e-05
-0.000329941
-1.53567e-06
-0.000323952
-2.75027e-05
-0.000310774
-5.37839e-05
-0.000290548
-7.89365e-05
-0.000263844
-0.000101292
-0.00023171
-0.000119104
-0.000195671
-0.000130744
-0.000157666
-0.000134932
-0.000119909
-0.00013098
-8.46793e-05
-0.000119002
-5.40653e-05
-0.000100036
-2.97026e-05
-7.60632e-05
-1.25634e-05
-4.98904e-05
-2.84755e-06
-2.49316e-05
-5.09284e-06
-6.37538e-06
2.11217e-05
-2.23904e-05
5.84955e-05
-4.55537e-05
8.9197e-05
-7.3856e-05
0.000112873
-0.000105665
0.000129869
-0.00013964
0.000140798
-0.000174655
0.000146326
-0.000209728
0.000147022
-0.000243959
0.000143284
-0.000276481
0.000135325
-0.000306419
0.0001232
-0.000332871
0.000106882
-0.000354896
8.63511e-05
-0.000371539
6.1701e-05
-0.00038186
3.32408e-05
-0.000385005
1.60942e-06
-0.000380271
-3.2237e-05
-0.00036723
-6.68253e-05
-0.000345826
-0.00010034
-0.000316494
-0.000130624
-0.00028024
-0.000155357
-0.000238687
-0.000172297
-0.000194028
-0.00017959
-0.000148896
-0.000176112
-0.000106117
-0.000161781
-6.83879e-05
-0.000137765
-3.79316e-05
-0.000106519
-1.62002e-05
-7.16218e-05
-3.7075e-06
-3.74243e-05
-8.80034e-06
-7.25826e-06
2.83799e-05
-2.54034e-05
7.66407e-05
-5.15177e-05
0.000115311
-8.32796e-05
0.000144635
-0.000118851
0.00016544
-0.00015677
0.000178718
-0.000195851
0.000185407
-0.000235089
0.000186259
-0.000273579
0.000181775
-0.000310451
0.000172197
-0.000344812
0.000157561
-0.000375716
0.000137785
-0.000402143
0.000112778
-0.000423007
8.25656e-05
-0.000437192
4.74251e-05
-0.000443594
8.01172e-06
-0.000441254
-3.45772e-05
-0.000429423
-7.8656e-05
-0.000407749
-0.000122014
-0.000376419
-0.000161955
-0.000336301
-0.000195476
-0.000289044
-0.000219554
-0.000237088
-0.000231547
-0.000183537
-0.000229663
-0.000131895
-0.000213423
-8.56575e-05
-0.000184002
-4.78397e-05
-0.000144337
-2.05503e-05
-9.89113e-05
-4.71976e-06
-5.32548e-05
-1.35201e-05
-8.06291e-06
3.64428e-05
-2.81605e-05
9.67382e-05
-5.70005e-05
0.000144151
-9.19864e-05
0.00017962
-0.000131101
0.000204554
-0.000172783
0.0002204
-0.000215809
0.000228432
-0.000259175
0.000229625
-0.000301998
0.000224598
-0.000343431
0.00021363
-0.00038259
0.00019672
-0.000418505
0.0001737
-0.000450087
0.00014436
-0.000476122
0.0001086
-0.000495289
6.65926e-05
-0.000506217
1.89401e-05
-0.000507595
-3.31999e-05
-0.000498279
-8.79719e-05
-0.000477502
-0.00014279
-0.000445071
-0.000194385
-0.000401584
-0.000238963
-0.000348607
-0.000272531
-0.000288762
-0.000291391
-0.000225655
-0.00029277
-0.000163594
-0.000275484
-0.000107092
-0.000240505
-6.0229e-05
-0.0001912
-2.60255e-05
-0.000133115
-6.00626e-06
-7.3274e-05
-1.95264e-05
-8.78926e-06
4.52321e-05
-3.06565e-05
0.000118605
-6.19827e-05
0.000175478
-9.99333e-05
0.000217571
-0.000142339
0.00024696
-0.000187562
0.000265624
-0.000234364
0.000275234
-0.000281766
0.000277027
-0.000328933
0.000271765
-0.000375068
0.000259765
-0.000419326
0.000240978
-0.00046074
0.000215114
-0.000498171
0.000181791
-0.000530287
0.000140716
-0.000555563
9.18694e-05
-0.000572333
3.571e-05
-0.000578889
-2.66445e-05
-0.00057361
-9.32507e-05
-0.000555201
-0.000161199
-0.000522941
-0.000226645
-0.000476985
-0.000284919
-0.000418645
-0.000330871
-0.000350597
-0.000359439
-0.000276903
-0.000366463
-0.000202769
-0.000349619
-0.000133961
-0.000309313
-7.59662e-05
-0.000249194
-3.3077e-05
-0.000176004
-7.69901e-06
-9.8652e-05
-2.72254e-05
-9.43046e-06
5.46625e-05
-3.28692e-05
0.000142044
-6.64164e-05
0.000209025
-0.000107032
0.000258187
-0.00015242
0.000292347
-0.000200887
0.000314091
-0.000251197
0.000325544
-0.00030242
0.00032825
-0.000353795
0.000323139
-0.000404604
0.000310575
-0.000454071
0.000290445
-0.000501263
0.000262306
-0.000545027
0.000225555
-0.00058394
0.000179628
-0.000616297
0.000124226
-0.000640137
5.955e-05
-0.000653345
-1.34365e-05
-0.000653769
-9.28262e-05
-0.000639492
-0.000175476
-0.000609116
-0.000257021
-0.000562148
-0.000331887
-0.000499409
-0.000393609
-0.000423399
-0.000435449
-0.000338486
-0.000451377
-0.00025077
-0.000437335
-0.00016749
-0.000392593
-9.59429e-05
-0.000320741
-4.21856e-05
-0.000229761
-9.94044e-06
-0.000130897
-3.71658e-05
-9.97575e-06
6.46383e-05
-3.47663e-05
0.000166835
-7.02344e-05
0.000244493
-0.000113163
0.000301115
-0.000161144
0.000340329
-0.000212447
0.000365394
-0.000265853
0.00037895
-0.000320496
0.000382893
-0.000375711
0.000378355
-0.000430889
0.000365753
-0.000485353
0.000344909
-0.000538248
0.0003152
-0.000588447
0.000275754
-0.000634489
0.000225671
-0.000674538
0.000164275
-0.000706392
9.14035e-05
-0.000727549
7.72058e-06
-0.00073534
-8.50349e-05
-0.000727167
-0.00018365
-0.000700829
-0.000283359
-0.000654975
-0.000377741
-0.000589637
-0.000458946
-0.000506791
-0.000518296
-0.000410798
-0.00054737
-0.000308503
-0.000539629
-0.000208731
-0.000492365
-0.000121027
-0.000408445
-5.38535e-05
-0.000296935
-1.28858e-05
-0.000171865
-5.00517e-05
-1.04144e-05
7.50527e-05
-3.63159e-05
0.000192736
-7.33691e-05
0.000281546
-0.000118196
0.000345942
-0.000168289
0.000390422
-0.000221881
0.000418986
-0.00027778
0.000434849
-0.000335197
0.00044031
-0.000393577
0.000436735
-0.000452443
0.000424619
-0.000511251
0.000403717
-0.000569263
0.000373213
-0.000625442
0.000331933
-0.000678357
0.000278586
-0.00072613
0.000212048
-0.00076641
0.000131684
-0.000796397
3.77078e-05
-0.000812986
-6.84464e-05
-0.00081291
-0.000183726
-0.000793107
-0.000303163
-0.000751179
-0.000419669
-0.000686041
-0.000524084
-0.00059869
-0.000605647
-0.000492975
-0.000653085
-0.000376091
-0.000656513
-0.000258372
-0.000610084
-0.000151988
-0.000514829
-6.85897e-05
-0.000380333
-1.67059e-05
-0.000223749
-6.67575e-05
-1.0741e-05
8.57938e-05
-3.75028e-05
0.000219498
-7.5779e-05
0.000319822
-0.000122034
0.000392197
-0.000173655
0.000442043
-0.000228834
0.000474165
-0.000286405
0.000492419
-0.000345658
0.000499564
-0.00040616
0.000497237
-0.000467579
0.000486038
-0.000529534
0.000465671
-0.000591451
0.00043513
-0.000652443
0.000392926
-0.000711207
0.000337349
-0.000765934
0.000266775
-0.000814268
0.000180018
-0.000853289
7.67281e-05
-0.000879568
-4.21666e-05
-0.000889323
-0.000173971
-0.000878653
-0.000313833
-0.000844013
-0.000454309
-0.0007829
-0.000585198
-0.000694809
-0.000693738
-0.000582382
-0.000765512
-0.000452459
-0.000786436
-0.000316463
-0.000746081
-0.000189369
-0.000641923
-8.68791e-05
-0.000482823
-2.15869e-05
-0.000289041
-8.83445e-05
-1.09622e-05
9.67559e-05
-3.83473e-05
0.000246883
-7.74836e-05
0.000358959
-0.000124658
0.000439372
-0.00017713
0.000494515
-0.000233036
0.000530071
-0.000291227
0.00055061
-0.000351067
0.000559404
-0.000412245
0.000558415
-0.000474588
0.000548381
-0.000537899
0.000528982
-0.000601811
0.000499041
-0.000665656
0.000456771
-0.000728356
0.000400049
-0.000788317
0.000326736
-0.000843354
0.000235055
-0.000890642
0.000124016
-0.000926662
-6.14664e-06
-0.000947356
-0.000153277
-0.000948146
-0.000313043
-0.000924373
-0.000478081
-0.00087193
-0.000637641
-0.000788315
-0.000777353
-0.000674136
-0.000879691
-0.000534843
-0.000925728
-0.000382052
-0.000898872
-0.000233304
-0.000790672
-0.000109125
-0.000607002
-2.77267e-05
-0.000370439
-0.000116071
-1.11047e-05
0.000107861
-3.89312e-05
0.00027471
-7.86055e-05
0.000398633
-0.000126185
0.000486951
-0.000178762
0.000547092
-0.000234392
0.000585702
-0.000291927
0.000608144
-0.0003508
0.000618277
-0.00041082
0.000618435
-0.000471976
0.000609538
-0.000534274
0.00059128
-0.00059759
0.000562357
-0.00066154
0.000520722
-0.00072537
0.000463879
-0.000787846
0.000389212
-0.000847154
0.000294363
-0.000900801
0.000177662
-0.000945537
3.85897e-05
-0.000977256
-0.000121558
-0.000991076
-0.000299223
-0.000981439
-0.000487717
-0.000942644
-0.000676437
-0.000869855
-0.000850142
-0.000760833
-0.000988713
-0.000618351
-0.00106821
-0.000452765
-0.00106446
-0.000283249
-0.000960188
-0.000135557
-0.000754694
-3.53231e-05
-0.000470673
-0.000151394
-1.12268e-05
0.000119087
-3.94277e-05
0.000302911
-7.94216e-05
0.000438627
-0.000126938
0.000534468
-0.00017884
0.000598994
-0.000233075
0.000639937
-0.000288485
0.000663554
-0.000344568
0.000674361
-0.000401256
0.000675123
-0.000458706
0.000666988
-0.000517139
0.000649713
-0.000576703
0.00062192
-0.000637353
0.000581372
-0.000698748
0.000525274
-0.000760145
0.000450609
-0.000820286
0.000354504
-0.000877266
0.000234642
-0.000928388
8.97122e-05
-0.000969934
-8.00119e-05
-0.000997131
-0.000272026
-0.00100394
-0.000480909
-0.000983353
-0.000697022
-0.000928173
-0.000905322
-0.000832714
-0.00108417
-0.000695745
-0.00120518
-0.000524409
-0.00123579
-0.000337679
-0.00114692
-0.000166108
-0.000926264
-4.45578e-05
-0.000592224
-0.000195952
-1.14329e-05
0.00013052
-4.0142e-05
0.00033162
-8.04225e-05
0.000478907
-0.000127515
0.00058156
-0.000177973
0.000649453
-0.000229614
0.000691577
-0.000281275
0.000715215
-0.000332539
0.000725625
-0.000383471
0.000726054
-0.000434409
0.000717926
-0.000485806
0.00070111
-0.000538104
0.000674219
-0.000591638
0.000634906
-0.000646545
0.000580181
-0.00070267
0.000506734
-0.000759454
0.000411288
-0.000815789
0.000290977
-0.00086982
0.000143743
-0.000918581
-3.12517e-05
-0.000957931
-0.000232676
-0.000981907
-0.000456933
-0.000982788
-0.000696141
-0.000951392
-0.000936719
-0.00087845
-0.00115711
-0.000757663
-0.00132597
-0.000590784
-0.00140267
-0.000393785
-0.00134392
-0.000200265
-0.00111978
-5.55801e-05
-0.000736908
-0.000251532
-1.18963e-05
0.000142417
-4.15648e-05
0.000361288
-8.23848e-05
0.000519727
-0.000128861
0.000628036
-0.000177152
0.000697744
-0.000224944
0.000739369
-0.000271118
0.000761389
-0.000315386
0.000769893
-0.00035799
0.000768658
-0.000399478
0.000759414
-0.000440557
0.000742189
-0.000481984
0.000715646
-0.000524496
0.000677418
-0.000568741
0.000624426
-0.000615206
0.000553199
-0.000664112
0.000460195
-0.000715269
0.000342133
-0.000767851
0.000196325
-0.000820036
2.09332e-05
-0.000868644
-0.000184068
-0.000908516
-0.000417061
-0.000932019
-0.000672638
-0.000928815
-0.000939923
-0.000886544
-0.00119938
-0.000793416
-0.00141909
-0.000643845
-0.00155224
-0.000447295
-0.00154047
-0.000236936
-0.00133014
-6.85052e-05
-0.000905339
-0.000320037
-1.28977e-05
0.000155314
-4.44524e-05
0.000392843
-8.64601e-05
0.000561735
-0.000132343
0.000673919
-0.000177784
0.000743185
-0.000220407
0.000781992
-0.000259241
0.000800223
-0.000294231
0.000804884
-0.000325876
0.000800303
-0.000354989
0.000788527
-0.00038256
0.00076976
-0.000409682
0.000742768
-0.000437502
0.000705237
-0.00046718
0.000654105
-0.000499844
0.000585862
-0.000536498
0.000496849
-0.000577897
0.000383533
-0.000624314
0.000242742
-0.000675293
7.19125e-05
-0.000728878
-0.000130484
-0.00078135
-0.000364589
-0.00082607
-0.000627917
-0.000852728
-0.000913265
-0.000847046
-0.00120507
-0.000792262
-0.00147388
-0.0006743
-0.00167021
-0.000492488
-0.00172228
-0.000274342
-0.00154829
-8.34425e-05
-0.00109624
-0.00040348
-1.4895e-05
0.000170209
-4.99494e-05
0.000427897
-9.42857e-05
0.000606071
-0.000139789
0.000719423
-0.000181658
0.000785053
-0.000217628
0.000817962
-0.000247088
0.000829683
-0.000270392
0.000828188
-0.000288419
0.00081833
-0.000302329
0.000802436
-0.000313442
0.000780872
-0.000323197
0.000752523
-0.000333143
0.000715183
-0.000344922
0.000665884
-0.000360247
0.000601188
-0.000380844
0.000517446
-0.00040835
0.000411038
-0.000444099
0.000278491
-0.000488884
0.000116698
-0.000542357
-7.70113e-05
-0.000602507
-0.000304439
-0.000664537
-0.000565887
-0.000719504
-0.000858298
-0.000752964
-0.00117161
-0.000744758
-0.00148208
-0.000672482
-0.00174248
-0.000522416
-0.00187234
-0.000309941
-0.00176077
-0.000100563
-0.00130562
-0.000504042
-1.86534e-05
0.000188863
-5.97792e-05
0.000469023
-0.000108101
0.000654393
-0.000153462
0.000764783
-0.000190743
0.000822335
-0.000218169
0.000845388
-0.000235837
0.000847351
-0.000244778
0.000837129
-0.000246427
0.00081998
-0.000242389
0.000798399
-0.000234362
0.000772845
-0.000224137
0.000742298
-0.000213629
0.000704675
-0.000204898
0.000657153
-0.00020015
0.000596439
-0.000201689
0.000518985
-0.000211926
0.000421276
-0.000233059
0.000299623
-0.000267105
0.000150744
-0.000315164
-2.89528e-05
-0.000377153
-0.00024245
-0.000450683
-0.000492357
-0.0005294
-0.000779581
-0.000600715
-0.00110029
-0.000643601
-0.0014392
-0.000629111
-0.00175697
-0.000529166
-0.00197229
-0.000340293
-0.00194964
-0.000120164
-0.00152575
-0.000624206
-2.54885e-05
0.000214351
-7.65152e-05
0.00052005
-0.000130796
0.000708674
-0.000175777
0.000809764
-0.000206594
0.000853152
-0.000222647
0.000861442
-0.000225295
0.000849999
-0.0002166
0.000828434
-0.000198768
0.000802147
-0.000173954
0.000773585
-0.000144263
0.000743155
-0.000111816
0.000709851
-7.88335e-05
0.000671692
-4.76955e-05
0.000626015
-2.09919e-05
0.000569735
-1.52562e-06
0.000499519
7.93819e-06
0.000411812
4.34094e-06
0.000303221
-1.49282e-05
0.000170014
-5.26824e-05
8.80142e-06
-0.000110638
-0.000184494
-0.000188981
-0.000414014
-0.000284778
-0.000683784
-0.000389183
-0.000995887
-0.000483409
-0.00134497
-0.000535414
-0.00170497
-0.000503793
-0.00200391
-0.00036067
-0.00209276
-0.000142595
-0.00174382
-0.000766802
-3.77023e-05
0.000252053
-0.000103874
0.000586222
-0.000165602
0.000770402
-0.000208298
0.000852461
-0.000228724
0.000873578
-0.00022864
0.000861358
-0.000211431
0.00083279
-0.000180633
0.000797636
-0.000139431
0.000760945
-9.0606e-05
0.000724759
-3.66537e-05
0.000689202
2.00493e-05
0.000653148
7.71052e-05
0.000614636
0.000131964
0.000571156
0.000181872
0.000519828
0.000223839
0.000457551
0.00025457
0.000381081
0.00027067
0.00028712
0.000268468
0.000172216
0.000244486
3.27837e-05
0.000195365
-0.000135374
0.000118445
-0.000337093
1.29425e-05
-0.000578282
-0.000117396
-0.000865548
-0.00025923
-0.00120314
-0.000382157
-0.00158204
-0.000435465
-0.0019506
-0.000363981
-0.00216424
-0.000167669
-0.00194013
-0.00093447
-5.93027e-05
0.000311356
-0.000146672
0.000673591
-0.000214494
0.000838223
-0.00024867
0.000886636
-0.000250437
0.000875345
-0.000225746
0.000836666
-0.000180979
0.000788023
-0.000121569
0.000738227
-5.1803e-05
0.000691179
2.49628e-05
0.000647994
0.00010597
0.000608195
0.000188764
0.000570354
0.00027095
0.00053245
0.000350028
0.000492078
0.000423263
0.000446593
0.000487622
0.000393193
0.000539724
0.000328979
0.000575865
0.00025098
0.000591981
0.000156099
0.000583711
4.10546e-05
0.00054647
-9.81329e-05
0.000475556
-0.000266179
0.000366781
-0.000469506
0.000218439
-0.000717207
3.62659e-05
-0.00102097
-0.000157241
-0.00138853
-0.000309211
-0.00179863
-0.000338303
-0.00213515
-0.000192867
-0.00208557
-0.00112734
-9.68115e-05
0.000408168
-0.000208853
0.000785633
-0.000272376
0.000901746
-0.000281938
0.000896198
-0.000248479
0.000841886
-0.000184545
0.000772732
-0.000100366
0.000703844
-3.35692e-06
0.000641218
0.000101356
0.000586466
0.000210201
0.000539149
0.000320546
0.00049785
0.000430222
0.000460679
0.000537184
0.000425487
0.000639277
0.000389985
0.00073407
0.000351799
0.000818757
0.000308506
0.00089008
0.000257655
0.000944296
0.000196764
0.000977112
0.000123284
0.000983614
3.45526e-05
0.000958391
-7.29105e-05
0.000895231
-0.000203019
0.000787278
-0.000361554
0.000627908
-0.000557837
0.000414041
-0.000807098
0.00015647
-0.00113096
-0.000100562
-0.0015416
-0.000261967
-0.00197375
-0.000210137
-0.0021374
-0.00133747
-0.000158412
0.00056658
-0.000282626
0.000909846
-0.000307902
0.000927022
-0.000257411
0.000845708
-0.00015937
0.000743845
-3.44627e-05
0.000647825
0.000103901
0.000565481
0.000247593
0.000497526
0.0003919
0.000442158
0.00053412
0.000396929
0.000672594
0.000359376
0.000806101
0.000327172
0.000933455
0.000298133
0.00105325
0.000270191
0.00116369
0.000241361
0.00126247
0.000209722
0.00134673
0.000173399
0.00141295
0.000130547
0.00145688
7.93454e-05
0.00147332
1.81123e-05
0.00145666
-5.62431e-05
0.00139967
-0.000146037
0.00129387
-0.000255748
0.00112915
-0.000393121
0.00089476
-0.000572706
0.00058569
-0.00082189
0.000224989
-0.0011809
-9.41258e-05
-0.00165463
-0.000200076
-0.00203145
-0.00153755
-0.000241632
0.000808212
-0.000300697
0.000968912
-0.0002051
0.000831424
-3.33605e-05
0.000673968
0.000166469
0.000544016
0.000371367
0.000442927
0.000570565
0.000366283
0.000759519
0.000308572
0.00093688
0.000264797
0.00110275
0.000231056
0.00125772
0.000204409
0.00140232
0.00018257
0.00153677
0.000163689
0.00166076
0.000146198
0.00177341
0.000128716
0.00187314
0.000109992
0.00195767
8.88612e-05
0.00202401
6.42054e-05
0.00206842
3.49438e-05
0.00208566
8.63806e-07
0.00207084
-4.14176e-05
0.00201628
-9.14765e-05
0.00191319
-0.000152663
0.00174987
-0.000229798
0.00151039
-0.000333226
0.00117487
-0.000486368
0.000733398
-0.00073943
0.000244515
-0.00116575
-8.55008e-05
-0.00170143
-0.00162305
-0.000190672
0.000998883
2.62571e-05
0.000751983
0.000382217
0.000475464
0.000721282
0.000334903
0.00102164
0.00024366
0.00128345
0.000181118
0.00151089
0.000138844
0.00170929
0.000110171
0.00188385
9.02377e-05
0.00203896
7.59371e-05
0.00217807
6.53004e-05
0.00230364
5.70028e-05
0.00241724
5.00927e-05
0.00251959
4.38463e-05
0.00261062
3.76823e-05
0.0026895
3.11123e-05
0.00275465
2.37159e-05
0.0028037
1.51465e-05
0.00283345
5.19394e-06
0.00284142
-7.09656e-06
0.00282128
-2.12846e-05
0.00276798
-3.81754e-05
0.00267396
-5.86406e-05
0.00252854
-8.43763e-05
0.00231483
-0.000119519
0.00200378
-0.000175319
0.00154911
-0.000284759
0.000925035
-0.000541675
0.00026269
-0.00103909
-0.00136036
0.000998883
0.00175087
0.00222633
0.00256123
0.00280489
0.00298601
0.00312486
0.00323503
0.00332526
0.0034012
0.0034665
0.0035235
0.0035736
0.00361744
0.00365513
0.00368624
0.00370995
0.0037251
0.00373029
0.0037232
0.00370191
0.00366374
0.0036051
0.00352072
0.0034012
0.00322588
0.00294112
0.00239945
0.00136036
)
;

boundaryField
{
    movingWall
    {
        type            calculated;
        value           uniform 0;
    }
    fixedWalls
    {
        type            calculated;
        value           uniform 0;
    }
    frontAndBack
    {
        type            empty;
        value           nonuniform 0();
    }
}


// ************************************************************************* //
