/*--------------------------------*- C++ -*----------------------------------*\
  =========                 |
  \\      /  F ield         | OpenFOAM: The Open Source CFD Toolbox
   \\    /   O peration     | Website:  https://openfoam.org
    \\  /    A nd           | Version:  7
     \\/     M anipulation  |
\*---------------------------------------------------------------------------*/
FoamFile
{
    version     2.0;
    format      ascii;
    class       surfaceScalarField;
    location    "5.7";
    object      phi;
}
// * * * * * * * * * * * * * * * * * * * * * * * * * * * * * * * * * * * * * //

dimensions      [0 3 -1 0 0 0 0];

internalField   nonuniform List<scalar> 
1740
(
7.16343e-07
-7.16932e-07
3.13661e-07
4.02678e-07
-1.56432e-06
1.87798e-06
-4.74983e-06
3.18552e-06
-8.91212e-06
4.16229e-06
-1.37242e-05
4.81213e-06
-1.89124e-05
5.18813e-06
-2.42547e-05
5.34233e-06
-2.95619e-05
5.30723e-06
-3.46555e-05
5.09355e-06
-3.93509e-05
4.6954e-06
-4.34493e-05
4.09837e-06
-4.67382e-05
3.28893e-06
-4.90018e-05
2.26364e-06
-5.00393e-05
1.03745e-06
-4.96887e-05
-3.50554e-07
-4.78546e-05
-1.8341e-06
-4.45354e-05
-3.31927e-06
-3.9844e-05
-4.69135e-06
-3.40185e-05
-5.82554e-06
-2.74167e-05
-6.60177e-06
-2.04945e-05
-6.92221e-06
-1.37661e-05
-6.72843e-06
-7.75128e-06
-6.01479e-06
-2.91555e-06
-4.83572e-06
3.96074e-07
-3.31163e-06
2.03805e-06
-1.64197e-06
2.099e-06
-6.09431e-08
1.03782e-06
1.06118e-06
1.03783e-06
-3.86925e-07
-3.30013e-07
-3.47693e-06
3.49269e-06
-9.75079e-06
8.15186e-06
-1.88257e-05
1.22604e-05
-3.00886e-05
1.54252e-05
-4.28772e-05
1.76006e-05
-5.65689e-05
1.88799e-05
-7.06039e-05
1.93774e-05
-8.44685e-05
1.91718e-05
-9.76667e-05
1.82918e-05
-0.000109697
1.67261e-05
-0.000120044
1.44453e-05
-0.000128184
1.14287e-05
-0.000133612
7.69162e-06
-0.000135883
3.30831e-06
-0.000134668
-1.56534e-06
-0.000129796
-6.7061e-06
-0.000121323
-1.17925e-05
-0.000109559
-1.64556e-05
-9.50849e-05
-2.02994e-05
-7.87382e-05
-2.29485e-05
-6.15598e-05
-2.41006e-05
-4.47095e-05
-2.35787e-05
-2.93508e-05
-2.13735e-05
-1.65176e-05
-1.76689e-05
-6.97556e-06
-1.28537e-05
-1.09709e-06
-7.52044e-06
1.31235e-06
-2.47038e-06
1.11369e-06
1.25984e-06
2.15152e-06
-2.0163e-06
1.68629e-06
-8.6656e-06
1.0142e-05
-1.97568e-05
1.92431e-05
-3.46476e-05
2.71512e-05
-5.24882e-05
3.32658e-05
-7.23838e-05
3.74962e-05
-9.3474e-05
3.99701e-05
-0.000114954
4.08572e-05
-0.00013606
4.02775e-05
-0.000156043
3.8275e-05
-0.000174149
3.48329e-05
-0.000189616
2.99122e-05
-0.000201688
2.35e-05
-0.000209653
1.56569e-05
-0.000212905
6.56011e-06
-0.000211001
-3.46889e-06
-0.000203741
-1.39664e-05
-0.000191226
-2.43075e-05
-0.000173906
-3.37752e-05
-0.000152597
-4.16083e-05
-0.000128459
-4.7087e-05
-0.000102929
-4.963e-05
-7.76157e-05
-4.88925e-05
-5.4141e-05
-4.48482e-05
-3.39663e-05
-3.78437e-05
-1.82024e-05
-2.86176e-05
-7.43034e-06
-1.82925e-05
-1.55158e-06
-8.34914e-06
3.40658e-07
-6.32394e-07
2.49218e-06
-3.73597e-06
5.42226e-06
-1.41187e-05
2.05248e-05
-3.0181e-05
3.53053e-05
-5.08372e-05
4.78074e-05
-7.4958e-05
5.73866e-05
-0.00010144
6.39787e-05
-0.000129242
6.77715e-05
-0.000157379
6.8994e-05
-0.000184903
6.78022e-05
-0.000210878
6.42494e-05
-0.000234356
5.8311e-05
-0.000254385
4.99413e-05
-0.00027003
3.91452e-05
-0.000280421
2.60478e-05
-0.000284816
1.09556e-05
-0.000282679
-5.60647e-06
-0.000273755
-2.28903e-05
-0.000258149
-3.99132e-05
-0.000236377
-5.55473e-05
-0.00020939
-6.85951e-05
-0.000178561
-7.79162e-05
-0.000145617
-8.25746e-05
-0.000112517
-8.19923e-05
-8.12809e-05
-7.60842e-05
-5.37731e-05
-6.53514e-05
-3.14741e-05
-5.09166e-05
-1.52649e-05
-3.45017e-05
-5.25671e-06
-1.83574e-05
-7.1062e-07
-5.17849e-06
1.78155e-06
-5.382e-06
1.08043e-05
-1.94494e-05
3.45922e-05
-4.04222e-05
5.62781e-05
-6.67039e-05
7.40891e-05
-9.68479e-05
8.75306e-05
-0.000129545
9.66758e-05
-0.0001636
0.000101827
-0.000197897
0.000103291
-0.000231357
0.000101263
-0.000262908
9.58e-05
-0.000291461
8.68644e-05
-0.000315921
7.44005e-05
-0.000335207
5.8431e-05
-0.000348308
3.91496e-05
-0.000354352
1.69996e-05
-0.000352684
-7.27502e-06
-0.000342947
-3.26269e-05
-0.000325179
-5.76811e-05
-0.000299873
-8.08539e-05
-0.00026802
-0.000100448
-0.000231118
-0.000114818
-0.000191115
-0.000122578
-0.000150289
-0.000122818
-0.000111065
-0.000115308
-7.57625e-05
-0.000100654
-4.63201e-05
-8.0359e-05
-2.40345e-05
-5.67873e-05
-9.35823e-06
-3.30337e-05
-1.80908e-06
-1.27277e-05
-2.75275e-08
-6.91093e-06
1.77152e-05
-2.44881e-05
5.21693e-05
-5.01718e-05
8.19619e-05
-8.18454e-05
0.000105763
-0.000117735
0.00012342
-0.000156329
0.00013527
-0.000196302
0.0001418
-0.000236442
0.000143431
-0.000275583
0.000140403
-0.00031256
0.000132777
-0.000346189
0.000120493
-0.000375262
0.000103474
-0.000398578
8.17472e-05
-0.00041499
5.55612e-05
-0.000423472
2.54822e-05
-0.000423211
-7.53664e-06
-0.000413678
-4.21599e-05
-0.000394755
-7.66043e-05
-0.000366809
-0.000108799
-0.000330775
-0.000136482
-0.000288184
-0.000157408
-0.000241153
-0.000169609
-0.000192275
-0.000171696
-0.000144424
-0.000163158
-0.000100478
-0.0001446
-6.29749e-05
-0.000117863
-3.37768e-05
-8.59854e-05
-1.38106e-05
-5.29999e-05
-2.94098e-06
-2.35973e-05
-2.96851e-06
-8.31156e-06
2.60267e-05
-2.91506e-05
7.30083e-05
-5.92458e-05
0.000112057
-9.59891e-05
0.000142506
-0.000137293
0.000164724
-0.000181461
0.000179438
-0.00022706
0.000187399
-0.00027281
0.000189181
-0.000317497
0.00018509
-0.000359906
0.000175186
-0.00039879
0.000159377
-0.000432861
0.000137545
-0.000460809
0.000109696
-0.000481349
7.61005e-05
-0.000493276
3.74096e-05
-0.000495571
-5.24188e-06
-0.000487447
-5.02841e-05
-0.000468535
-9.55156e-05
-0.000438967
-0.000138368
-0.000399496
-0.000175954
-0.000351593
-0.000205311
-0.000297473
-0.000223729
-0.000240033
-0.000229137
-0.00018266
-0.000220531
-0.000128917
-0.000198343
-8.21206e-05
-0.000164659
-4.48957e-05
-0.00012321
-1.88076e-05
-7.9088e-05
-4.16395e-06
-3.82409e-05
-7.13247e-06
-9.57352e-06
3.56003e-05
-3.33718e-05
9.68066e-05
-6.74954e-05
0.000146181
-0.000108897
0.000183908
-0.000155211
0.000211037
-0.000204577
0.000228804
-0.000255481
0.000238304
-0.000306609
0.000240309
-0.00035673
0.000235211
-0.000404616
0.000223072
-0.000448992
0.000203753
-0.000488516
0.000177069
-0.000521789
0.000142969
-0.000547382
0.000101693
-0.000563887
5.39144e-05
-0.000570045
9.16843e-07
-0.000564716
-5.56131e-05
-0.000547199
-0.000113033
-0.000517255
-0.000168312
-0.000475327
-0.000217881
-0.00042269
-0.000257948
-0.000361558
-0.000284861
-0.000295084
-0.000295611
-0.000227207
-0.000288408
-0.000162308
-0.000263242
-0.000104696
-0.000222271
-5.80077e-05
-0.000169898
-2.46707e-05
-0.000112425
-5.57855e-06
-5.73331e-05
-1.2711e-05
-1.06778e-05
4.62781e-05
-3.7076e-05
0.000123205
-7.4762e-05
0.000183867
-0.000120316
0.000229462
-0.000171134
0.000261855
-0.000225229
0.000282899
-0.000281033
0.000294108
-0.000337225
0.000296501
-0.000392591
0.000290577
-0.000445924
0.000276405
-0.000495957
0.000253786
-0.000541325
0.000222438
-0.000580561
0.000182204
-0.000612104
0.000133237
-0.000634355
7.61649e-05
-0.000645685
1.22474e-05
-0.000644705
-5.65936e-05
-0.000630188
-0.00012755
-0.000601426
-0.000197074
-0.000558396
-0.000260912
-0.000502008
-0.000314335
-0.000434315
-0.000352554
-0.000358616
-0.000371311
-0.000279379
-0.000367645
-0.00020191
-0.00034071
-0.000131743
-0.000292438
-7.38354e-05
-0.000227806
-3.17864e-05
-0.000154474
-7.30457e-06
-8.18149e-05
-2.00156e-05
-1.1597e-05
5.7875e-05
-4.01721e-05
0.00015178
-8.08651e-05
0.00022456
-0.000129958
0.000278555
-0.000184658
0.000316556
-0.000242883
0.000341124
-0.000303038
0.000354263
-0.000363824
0.000357286
-0.000424072
0.000350825
-0.000482632
0.000334965
-0.000538278
0.000309432
-0.000589662
0.000273822
-0.00063528
0.000227823
-0.000673472
0.000171429
-0.000702441
0.000105134
-0.000720299
3.01047e-05
-0.000725208
-5.16844e-05
-0.000715466
-0.000137292
-0.000689765
-0.000222775
-0.000647457
-0.000303219
-0.000588884
-0.000372909
-0.000515702
-0.000425736
-0.000431147
-0.000455865
-0.000340098
-0.000458694
-0.000248817
-0.000431991
-0.000164279
-0.000376977
-9.31332e-05
-0.000298952
-4.05721e-05
-0.000207035
-9.47158e-06
-0.000112915
-2.94872e-05
-1.2299e-05
7.0174e-05
-4.25597e-05
0.000182041
-8.56115e-05
0.000267611
-0.000137514
0.000330457
-0.000195337
0.000374379
-0.000256931
0.000402718
-0.000320699
0.000418031
-0.000385382
0.000421969
-0.000449889
0.000415332
-0.000513153
0.000398229
-0.000574031
0.00037031
-0.000631234
0.000331024
-0.000683272
0.000279861
-0.000728435
0.000216592
-0.00076479
0.000141488
-0.000790206
5.55211e-05
-0.000802453
-3.94376e-05
-0.000799315
-0.00014043
-0.000778823
-0.000243267
-0.000739561
-0.000342481
-0.00068107
-0.0004314
-0.000604316
-0.00050249
-0.000512146
-0.000548035
-0.000409579
-0.000561261
-0.00030373
-0.00053784
-0.000203161
-0.000477546
-0.000116624
-0.000385489
-5.1454e-05
-0.000272205
-1.22159e-05
-0.000152154
-4.1703e-05
-1.27526e-05
8.29266e-05
-4.41435e-05
0.000213432
-8.88169e-05
0.000312285
-0.000142687
0.000384328
-0.000202727
0.000434418
-0.000266746
0.000466737
-0.00033316
0.000484444
-0.00040077
0.000489579
-0.000468577
0.000483139
-0.000535629
0.000465281
-0.000600905
0.000435587
-0.000663225
0.000393343
-0.000721177
0.000337814
-0.00077308
0.000268495
-0.000816947
0.000185355
-0.000850493
8.90676e-05
-0.000871183
-1.87474e-05
-0.000876336
-0.000135277
-0.000863314
-0.00025629
-0.000829835
-0.00037596
-0.000774427
-0.000486809
-0.000697021
-0.000579895
-0.000599633
-0.000645423
-0.000486971
-0.000673924
-0.000366686
-0.000658125
-0.000248926
-0.000595306
-0.000144924
-0.000489491
-6.48468e-05
-0.000352282
-1.56793e-05
-0.000201321
-5.73823e-05
-1.29344e-05
9.5861e-05
-4.48521e-05
0.000245349
-9.03387e-05
0.000357771
-0.000145233
0.000439222
-0.000206444
0.00049563
-0.000271757
0.00053205
-0.000339607
0.000552295
-0.000408863
0.000558835
-0.000478634
0.000552909
-0.000548107
0.000534754
-0.000616419
0.000503899
-0.000682552
0.000459476
-0.000745251
0.000400513
-0.000802955
0.000326199
-0.000853746
0.000236146
-0.000895318
0.00013064
-0.000924976
1.09109e-05
-0.000939701
-0.000120552
-0.000936264
-0.000259726
-0.000911508
-0.000400717
-0.000862791
-0.000535525
-0.000788675
-0.000654011
-0.000689819
-0.000744279
-0.000569976
-0.000793768
-0.000436747
-0.000791354
-0.000301583
-0.00073047
-0.000178452
-0.000612622
-8.11258e-05
-0.000449608
-2.00079e-05
-0.000262439
-7.73902e-05
-1.28362e-05
0.000108697
-4.46604e-05
0.000277173
-9.01151e-05
0.000403226
-0.000145018
0.000494125
-0.000206239
0.000556851
-0.000271542
0.000597353
-0.000339382
0.000620135
-0.000408698
0.000628151
-0.000478714
0.000622925
-0.000548775
0.000604815
-0.000618212
0.000573335
-0.000686223
0.000527488
-0.000751786
0.000466075
-0.000813569
0.000387982
-0.000869863
0.00029244
-0.000918512
0.000179289
-0.000956861
4.92598e-05
-0.000981742
-9.56699e-05
-0.00098953
-0.000251939
-0.000976289
-0.000413958
-0.000938176
-0.000573638
-0.000872123
-0.000720064
-0.000776906
-0.000839495
-0.000654533
-0.000916141
-0.00051166
-0.000934227
-0.000360361
-0.000881769
-0.00021729
-0.000755693
-0.000100586
-0.000566312
-2.53473e-05
-0.000337677
-0.000102738
-1.24736e-05
0.000121171
-4.36141e-05
0.000308314
-8.82084e-05
0.00044782
-0.000142084
0.000548001
-0.000202079
0.000616845
-0.000265932
0.000661206
-0.000332116
0.000686319
-0.000399635
0.00069567
-0.000467835
0.000691125
-0.000536235
0.000673215
-0.000604386
0.000641486
-0.000671756
0.000594858
-0.000737629
0.000531948
-0.00080101
0.000451364
-0.000860542
0.000351971
-0.000914401
0.000233148
-0.000960203
9.50618e-05
-0.000994881
-6.09914e-05
-0.0010147
-0.000232121
-0.00101518
-0.00041348
-0.000991394
-0.000597421
-0.000938572
-0.000772886
-0.000853183
-0.000924884
-0.000734667
-0.00103466
-0.000587573
-0.00108132
-0.000423437
-0.0010459
-0.000261022
-0.000918108
-0.000123382
-0.000703953
-3.18351e-05
-0.000429224
-0.000134573
-1.18942e-05
0.000133065
-4.18561e-05
0.000338276
-8.48512e-05
0.000490815
-0.000136713
0.000599862
-0.000194232
0.000674365
-0.000255119
0.000722093
-0.000317857
0.000749057
-0.00038152
0.000759333
-0.000445582
0.000755187
-0.000509751
0.000737384
-0.00057383
0.000705565
-0.000637594
0.000658623
-0.000700699
0.000595052
-0.000762578
0.000513244
-0.000822352
0.000411744
-0.000878702
0.000289498
-0.000929745
0.000146104
-0.000972772
-1.79643e-05
-0.0010043
-0.000200588
-0.00101965
-0.000398132
-0.00101315
-0.000603929
-0.00097845
-0.000807582
-0.000909561
-0.000993772
-0.000802664
-0.00114155
-0.000658921
-0.00122506
-0.000487693
-0.00121713
-0.000308546
-0.00109725
-0.000149456
-0.000863043
-3.95899e-05
-0.00053909
-0.000174163
-1.11873e-05
0.000144252
-3.96544e-05
0.000366743
-8.04933e-05
0.000531654
-0.000129484
0.000648853
-0.000183341
0.000728222
-0.000239735
0.000778486
-0.000297169
0.000806492
-0.000354803
0.000816966
-0.000412258
0.000812642
-0.000469454
0.000794581
-0.000526469
0.000762579
-0.000583423
0.000715577
-0.00064039
0.000652018
-0.000697297
0.000570151
-0.000753831
0.000468279
-0.000809311
0.000344979
-0.000862514
0.000199307
-0.000911466
3.09874e-05
-0.000953099
-0.000158955
-0.000983063
-0.000368168
-0.000995404
-0.000591587
-0.000982669
-0.000820318
-0.00093656
-0.00103988
-0.00084966
-0.00122845
-0.000718601
-0.00135612
-0.000548602
-0.00138713
-0.0003579
-0.00128796
-0.000178456
-0.00104249
-4.87019e-05
-0.000668844
-0.000222864
-1.04961e-05
0.000154748
-3.74356e-05
0.000393683
-7.58529e-05
0.000570072
-0.000121341
0.000694341
-0.000170484
0.000777365
-0.000220915
0.000828918
-0.000271193
0.00085677
-0.000320603
0.000866376
-0.000368956
0.000860995
-0.000416418
0.000842042
-0.000463371
0.000809533
-0.000510313
0.000762518
-0.000557757
0.000699463
-0.000606161
0.000618555
-0.000655825
0.000517942
-0.000706767
0.000395921
-0.00075855
0.00025109
-0.000810063
8.25005e-05
-0.000859031
-0.000109987
-0.000901821
-0.000325377
-0.000932796
-0.000560613
-0.000944061
-0.000809053
-0.000925626
-0.00105832
-0.000866646
-0.00128744
-0.000758506
-0.00146426
-0.000600337
-0.0015453
-0.000406157
-0.00148214
-0.00020967
-0.00123897
-5.92325e-05
-0.000819282
-0.000282097
-1.00368e-05
0.000164785
-3.58326e-05
0.000419478
-7.19776e-05
0.000606217
-0.000113643
0.000736007
-0.000157213
0.000820935
-0.000200317
0.000872022
-0.000241642
0.000898095
-0.000280684
0.000905418
-0.000317514
0.000897825
-0.0003526
0.000877128
-0.000386669
0.000843602
-0.000420613
0.000796462
-0.0004554
0.00073425
-0.000492011
0.000655166
-0.000531354
0.000557284
-0.000574149
0.000438717
-0.00062077
0.00029771
-0.000671005
0.000132736
-0.000723629
-5.73632e-05
-0.000776048
-0.000272959
-0.000823522
-0.000513138
-0.000858553
-0.000774022
-0.000870426
-0.00104644
-0.00084565
-0.00131221
-0.000770372
-0.00153954
-0.000636128
-0.00167954
-0.000449431
-0.00166883
-0.000241982
-0.00144642
-7.12368e-05
-0.000990027
-0.000353334
-1.01357e-05
0.000174921
-3.57599e-05
0.000445103
-7.03273e-05
0.000640784
-0.000108229
0.000773908
-0.000145577
0.000858283
-0.000180088
0.000906532
-0.000210721
0.000928729
-0.000237323
0.00093202
-0.000260338
0.000920841
-0.000280614
0.000897403
-0.000299266
0.000862255
-0.000317598
0.000814793
-0.00033702
0.000753673
-0.000359004
0.00067715
-0.000385014
0.000583294
-0.000416409
0.000470111
-0.000454307
0.000335608
-0.000499386
0.000177816
-0.000551482
-5.26805e-06
-0.000609295
-0.000215145
-0.000669433
-0.000453001
-0.000725633
-0.000717822
-0.000767663
-0.00100441
-0.000780746
-0.00129913
-0.000746678
-0.00157361
-0.000648794
-0.00177743
-0.000482992
-0.00183464
-0.000273857
-0.00165556
-8.48206e-05
-0.00117906
-0.000438154
-1.13012e-05
0.000186222
-3.8543e-05
0.000472345
-7.28924e-05
0.000675133
-0.000107464
0.00080848
-0.000138083
0.000888902
-0.000162746
0.000931195
-0.000180929
0.000946912
-0.000193041
0.000944132
-0.000200056
0.000927855
-0.000203295
0.000900642
-0.000204311
0.00086327
-0.000204829
0.000815312
-0.000206665
0.000755508
-0.000211722
0.000682207
-0.000221932
0.000593504
-0.000239183
0.000487362
-0.000265216
0.000361642
-0.000301463
0.000214063
-0.000348873
4.21416e-05
-0.000407275
-0.000156744
-0.000475039
-0.000385237
-0.000547799
-0.000645061
-0.000617037
-0.000935174
-0.000668442
-0.00124772
-0.000681249
-0.0015608
-0.000631224
-0.00182745
-0.000501404
-0.00196446
-0.000303304
-0.00185366
-0.000100229
-0.00138214
-0.000538384
-1.4364e-05
0.000200586
-4.61303e-05
0.000504111
-8.23408e-05
0.000711344
-0.000114251
0.000840389
-0.000137542
0.000912193
-0.000150876
0.000944529
-0.000154626
0.000950663
-0.000150058
0.000939563
-0.000138866
0.000916664
-0.000122952
0.000884728
-0.000104319
0.000844638
-8.51623e-05
0.000796155
-6.75899e-05
0.000737936
-5.38745e-05
0.000668492
-4.63067e-05
0.000585936
-4.71668e-05
0.000488222
-5.86686e-05
0.000373144
-8.28685e-05
0.000238263
-0.000121518
8.07909e-05
-0.000175737
-0.000102525
-0.000245557
-0.000315416
-0.000328964
-0.000561654
-0.000420169
-0.000843969
-0.000507197
-0.00116069
-0.000569232
-0.00149877
-0.00057651
-0.00182017
-0.00049849
-0.00204248
-0.000327695
-0.00202445
-0.000117925
-0.00159191
-0.000656308
-2.07399e-05
0.000221326
-6.14056e-05
0.000544776
-0.000102122
0.00075206
-0.000131818
0.000870085
-0.000146558
0.000926934
-0.000146363
0.000944335
-0.000133064
0.000937363
-0.00010915
0.00091565
-7.72486e-05
0.000884762
-3.99502e-05
0.00084743
1.97905e-07
0.000804489
4.09269e-05
0.000755426
7.9571e-05
0.000699292
0.000113675
0.000634388
0.000140726
0.000558885
0.000158181
0.000470768
0.000163493
0.000367832
0.000154153
0.000247602
0.00012775
0.000107194
8.2103e-05
-5.68777e-05
1.56024e-05
-0.000248915
-7.20846e-05
-0.000473967
-0.000178634
-0.00073742
-0.000296031
-0.0010433
-0.00040625
-0.00138855
-0.000477441
-0.00174898
-0.000466848
-0.00205307
-0.000343241
-0.00214806
-0.000138496
-0.00179665
-0.000794804
-3.28933e-05
0.000254219
-8.85264e-05
0.00060041
-0.000136216
0.000799749
-0.000162787
0.000896657
-0.000166006
0.000930153
-0.000148414
0.000926743
-0.000114057
0.000903006
-6.7068e-05
0.00086866
-1.11855e-05
0.000828879
5.03042e-05
0.00078594
0.000114472
0.000740322
0.000178502
0.000691396
0.000239839
0.000637955
0.000295856
0.000578371
0.000343919
0.000510822
0.00038135
0.000433337
0.000405402
0.000343779
0.000413249
0.000239756
0.000401959
0.000118484
0.000368487
-2.34058e-05
0.000309927
-0.000190355
0.000223635
-0.000387675
0.000108537
-0.000622323
-3.23323e-05
-0.000902428
-0.000186746
-0.00123414
-0.000325201
-0.00161053
-0.000396616
-0.00198165
-0.00034372
-0.00220096
-0.000162048
-0.00197832
-0.000956853
-5.50648e-05
0.000309284
-0.000132872
0.000678217
-0.000187512
0.000854389
-0.000206079
0.000915224
-0.000190818
0.000914892
-0.000148572
0.000884497
-8.6522e-05
0.000840956
-1.08126e-05
0.000792951
7.36359e-05
0.000744431
0.0001629
0.000696677
0.000253737
0.000649485
0.000343303
0.00060183
0.000428984
0.000552274
0.00050822
0.000499135
0.000578424
0.000440618
0.000636917
0.000374844
0.000680874
0.000299822
0.000707263
0.000213367
0.000712773
0.000112974
0.000693592
-4.22494e-06
0.000645931
-0.000142694
0.000565233
-0.000306977
0.000447297
-0.000504386
0.00028993
-0.000745062
9.79738e-05
-0.00104218
-0.000106884
-0.00140567
-0.000273016
-0.00181552
-0.000317782
-0.00215619
-0.000186383
-0.00210972
-0.00114324
-9.4004e-05
0.000403288
-0.000198875
0.000783088
-0.000251688
0.000907202
-0.000247817
0.000911352
-0.000199109
0.000866183
-0.000119023
0.000804411
-1.86329e-05
0.000740566
9.38966e-05
0.000680422
0.000212762
0.000625566
0.000333792
0.000575646
0.000453833
0.000529444
0.00057029
0.000485373
0.000680838
0.000441726
0.000783207
0.000396766
0.000875052
0.000348772
0.000953863
0.000296034
0.00101688
0.000236806
0.00106101
0.000169239
0.00108272
9.12604e-05
0.00107757
9.26692e-07
0.0010413
-0.000106424
0.000967866
-0.000233545
0.000850737
-0.000387258
0.00068322
-0.000577545
0.000461735
-0.000820693
0.000195948
-0.00113988
-7.05583e-05
-0.00154902
-0.000243885
-0.00198286
-0.000203823
-0.00214978
-0.00134706
-0.000157833
0.000561121
-0.000278568
0.000903823
-0.000297147
0.000925781
-0.000237006
0.000851211
-0.000127034
0.000756211
1.12569e-05
0.00066612
0.000163671
0.000588152
0.00032134
0.000522753
0.000478861
0.000468045
0.000632883
0.000421624
0.000781162
0.000381164
0.000921972
0.000344563
0.00105375
0.000309951
0.00117486
0.000275653
0.00128348
0.000240148
0.0013775
0.00020202
0.00145441
0.000159898
0.00151125
0.000112394
0.00154447
5.80393e-05
0.00154972
-4.3188e-06
0.0015219
-7.86035e-05
0.00145452
-0.00016617
0.0013396
-0.000272333
0.00116728
-0.000405223
0.000926661
-0.000580077
0.000612062
-0.000825284
0.000245311
-0.00118226
-8.08224e-05
-0.00165673
-0.000194853
-0.00203575
-0.00154191
-0.000243289
0.00080441
-0.000302852
0.000963386
-0.000205254
0.000828183
-2.84246e-05
0.000674382
0.000179112
0.000548674
0.000393771
0.000451462
0.000604113
0.00037781
0.00080489
0.000321976
0.000994037
0.000278898
0.00117096
0.000244703
0.00133558
0.000216546
0.00148784
0.000192295
0.0016275
0.000170296
0.00175393
0.000149225
0.0018661
0.000127981
0.0019625
0.000105612
0.00204114
8.12578e-05
0.00209944
5.40972e-05
0.00213414
2.33399e-05
0.00214172
-1.18971e-05
0.00211641
-5.32979e-05
0.00205223
-0.000101991
0.00194084
-0.000160939
0.00177092
-0.000235309
0.0015267
-0.000335853
0.00118795
-0.00048653
0.000743889
-0.000738208
0.000251934
-0.00116478
-8.19191e-05
-0.0017019
-0.00162383
-0.000193294
0.000997704
2.03934e-05
0.000749698
0.000375269
0.000473307
0.000715471
0.000334181
0.00101952
0.000244629
0.00128733
0.000183647
0.00152256
0.000142579
0.00172989
0.000114651
0.0019138
9.49831e-05
0.00207801
8.04953e-05
0.00222528
6.92742e-05
0.00235751
6.0067e-05
0.0024758
5.20087e-05
0.00258055
4.44739e-05
0.00267154
3.6989e-05
0.00274797
2.9177e-05
0.00280851
2.07236e-05
0.00285122
1.13849e-05
0.00287338
1.18384e-06
0.00287294
-1.14614e-05
0.00284471
-2.50702e-05
0.00278403
-4.13059e-05
0.00268392
-6.08259e-05
0.00253409
-8.54793e-05
0.0023178
-0.000119566
0.00200579
-0.000174522
0.00155111
-0.00028353
0.000926915
-0.000540578
0.000263593
-0.00103858
-0.00136024
0.000997704
0.0017474
0.00222071
0.00255489
0.00279952
0.00298317
0.00312574
0.0032404
0.00333538
0.00341587
0.00348515
0.00354522
0.00359722
0.0036417
0.00367869
0.00370786
0.00372859
0.00373997
0.00374116
0.0037297
0.00370462
0.00366332
0.00360249
0.00351701
0.00339745
0.00322293
0.0029394
0.00239882
0.00136024
)
;

boundaryField
{
    movingWall
    {
        type            calculated;
        value           uniform 0;
    }
    fixedWalls
    {
        type            calculated;
        value           uniform 0;
    }
    frontAndBack
    {
        type            empty;
        value           nonuniform 0();
    }
}


// ************************************************************************* //
