/*--------------------------------*- C++ -*----------------------------------*\
  =========                 |
  \\      /  F ield         | OpenFOAM: The Open Source CFD Toolbox
   \\    /   O peration     | Website:  https://openfoam.org
    \\  /    A nd           | Version:  7
     \\/     M anipulation  |
\*---------------------------------------------------------------------------*/
FoamFile
{
    version     2.0;
    format      ascii;
    class       volScalarField;
    location    "0.6";
    object      p;
}
// * * * * * * * * * * * * * * * * * * * * * * * * * * * * * * * * * * * * * //

dimensions      [0 2 -2 0 0 0 0];

internalField   nonuniform List<scalar> 
900
(
3.26202e-08
-0.000272933
-0.000486404
-0.000591977
-0.000539944
-0.000314362
8.12667e-05
0.000636874
0.0013408
0.00218089
0.00314441
0.00421754
0.00538495
0.00662956
0.00793235
0.00927236
0.0106268
0.0119711
0.0132795
0.014525
0.0156804
0.0167181
0.0176116
0.0183352
0.0188665
0.0191881
0.0192951
0.0192086
0.0189896
0.0186952
0.000269956
-5.37752e-06
-0.000161525
-0.000204549
-0.000116176
0.000119376
0.000504718
0.00103567
0.00170497
0.00250334
0.00341974
0.00444142
0.00555383
0.00674052
0.0079831
0.00926122
0.010553
0.0118346
0.0130811
0.0142667
0.0153653
0.0163515
0.0172008
0.0178918
0.0184069
0.0187356
0.0188792
0.0188585
0.0187004
0.0184049
0.000487952
0.000143926
-1.73903e-05
-4.57267e-05
5.32247e-05
0.000291257
0.000671233
0.00119028
0.00184278
0.00262091
0.00351474
0.00451236
0.00559987
0.00676134
0.00797885
0.00923251
0.0105004
0.0117593
0.0129844
0.0141503
0.0152313
0.016202
0.0170391
0.0177218
0.018234
0.0185662
0.0187198
0.0187119
0.0185456
0.0181778
0.000604085
0.000176407
-1.31217e-05
-4.74012e-05
5.02263e-05
0.000287085
0.000664316
0.00117861
0.0018248
0.00259578
0.0034824
0.00447338
0.00555537
0.00671287
0.00792824
0.00918175
0.0104516
0.0117145
0.0129453
0.0141183
0.0152073
0.0161866
0.0170321
0.0177226
0.0182414
0.0185775
0.0187307
0.0187139
0.0185142
0.0180573
0.000563139
6.59348e-05
-0.000153045
-0.000198846
-0.000106225
0.000128985
0.000506261
0.00102157
0.00166978
0.00244422
0.00333622
0.00433502
0.00542768
0.00659901
0.00783151
0.00910546
0.010399
0.0116881
0.0129472
0.0141497
0.0152683
0.0162758
0.017147
0.017859
0.0183935
0.0187377
0.0188891
0.0188587
0.018624
0.0180918
0.000339372
-0.000214078
-0.000460417
-0.000519125
-0.000432016
-0.000196816
0.00018468
0.000707741
0.00136713
0.00215638
0.00306717
0.0040891
0.00520952
0.00641343
0.00768337
0.00899941
0.0103392
0.0116781
0.0129895
0.0142451
0.0154159
0.0164728
0.0173881
0.0181367
0.0186978
0.0190564
0.0192084
0.0191638
0.018896
0.0183001
-7.67747e-05
-0.000679762
-0.000951823
-0.00102308
-0.000940152
-0.000701847
-0.000310893
0.000227378
0.000907583
0.00172337
0.00266667
0.00372736
0.00489302
0.00614874
0.00747698
0.00885744
0.0102672
0.0116805
0.0130691
0.014403
0.0156504
0.0167796
0.0177594
0.0185616
0.0191622
0.0195436
0.0197003
0.0196427
0.0193423
0.0186863
-0.000691421
-0.00134346
-0.0016409
-0.00172373
-0.0016427
-0.00139732
-0.000991056
-0.000429759
0.00028105
0.00113513
0.00212464
0.0032397
0.00446809
0.00579499
0.00720268
0.00867039
0.0101746
0.011688
0.0131806
0.0146196
0.0159704
0.0171971
0.0182645
0.0191399
0.0197952
0.0202098
0.0203767
0.0203075
0.0199731
0.0192531
-0.0015127
-0.00221818
-0.00254221
-0.00263578
-0.00255411
-0.00229733
-0.00186962
-0.00127733
-0.000526124
0.000377906
0.00142717
0.00261208
0.00392067
0.00533822
0.00684688
0.00842524
0.0100496
0.0116904
0.0133156
0.0148896
0.0163735
0.0177267
0.0189084
0.0198802
0.0206087
0.021069
0.0212528
0.0211733
0.020801
0.020007
-0.00255263
-0.00331943
-0.00367271
-0.00377664
-0.00369186
-0.00341928
-0.00296391
-0.00233271
-0.00153143
-0.000566011
0.000556297
0.0018263
0.00323238
0.00476008
0.00639165
0.00810577
0.00987606
0.0116733
0.0134625
0.0152045
0.0168554
0.0183688
0.0196966
0.0207929
0.0216172
0.022139
0.0223476
0.0222586
0.0218421
0.0209588
-0.0038277
-0.00466634
-0.00505274
-0.00516713
-0.00507692
-0.00478418
-0.004295
-0.00361707
-0.00275631
-0.00171841
-0.000510185
0.000859711
0.0023802
0.00403727
0.00581346
0.00768727
0.00963219
0.0116171
0.0136046
0.0155515
0.0174086
0.0191216
0.0206339
0.0218895
0.022838
0.0234412
0.0236848
0.0235869
0.0231173
0.0221242
-0.00535917
-0.00628254
-0.00670699
-0.00683233
-0.00673449
-0.0064172
-0.00588807
-0.00515578
-0.00422642
-0.0031054
-0.00179896
-0.000315016
0.00133616
0.00314136
0.00508375
0.00714223
0.00929034
0.0114957
0.0137187
0.0159119
0.0180199
0.0199797
0.0217233
0.0231815
0.0242908
0.0250015
0.0252936
0.0251875
0.024653
0.0235232
-0.00717339
-0.00819691
-0.00866537
-0.0088024
-0.00869461
-0.00834823
-0.00777292
-0.00697868
-0.0059719
-0.00475765
-0.00334142
-0.00173017
6.69703e-05
0.00203802
0.00416737
0.00643495
0.00881495
0.0112747
0.0137728
0.0162582
0.0186686
0.0209311
0.0229634
0.0246795
0.0259974
0.0268509
0.0272103
0.0270976
0.0264823
0.0251803
-0.00930233
-0.0104446
-0.0109641
-0.0111136
-0.0109931
-0.0106125
-0.00998439
-0.00912049
-0.00802766
-0.00671056
-0.00517382
-0.00342318
-0.00146626
0.000686681
0.00302198
0.0055215
0.00816112
0.0109092
0.0137239
0.0165512
0.0193225
0.0219537
0.0243457
0.0263905
0.0279807
0.0290257
0.0294799
0.0293642
0.0286475
0.0271242
-0.0117846
-0.0130685
-0.0136473
-0.0138094
-0.0136724
-0.0132515
-0.012563
-0.0116212
-0.0104335
-0.00900436
-0.00733726
-0.00543654
-0.00330798
-0.000959534
0.00159785
0.0043491
0.00727332
0.0103417
0.0135141
0.0167356
0.0199325
0.0230095
0.0258483
0.028313
0.0302617
0.0315677
0.0321585
0.0320483
0.0312025
0.0293882
-0.0146671
-0.0161213
-0.0167687
-0.0169425
-0.0167832
-0.0163135
-0.0155554
-0.0145263
-0.0132345
-0.011684
-0.00987737
-0.00781739
-0.00550767
-0.0029534
-0.00016199
0.00285586
0.00608431
0.00950014
0.0130677
0.0167348
0.0204259
0.0240361
0.0274272
0.0304295
0.0328545
0.0345224
0.0353159
0.0352306
0.0342194
0.0320108
-0.0180074
-0.0196687
-0.0203949
-0.0205769
-0.0203859
-0.0198555
-0.0190154
-0.0178871
-0.0164803
-0.0147986
-0.0128436
-0.0106164
-0.00811865
-0.0053523
-0.00232055
0.000971462
0.00451489
0.00829604
0.0122873
0.0164447
0.0206969
0.024935
0.0290024
0.0326918
0.0357546
0.0379338
0.0390381
0.0390199
0.0377989
0.0350398
-0.0218776
-0.0237944
-0.0246098
-0.0247914
-0.0245528
-0.0239438
-0.0230043
-0.0217612
-0.0202254
-0.0184006
-0.0162876
-0.0138861
-0.0111957
-0.00821545
-0.004944
-0.00138003
0.00247572
0.00662559
0.0110523
0.0157284
0.0205966
0.0255546
0.0304361
0.0349976
0.0389179
0.0418317
0.0434273
0.0435672
0.04209
0.038543
-0.0263719
-0.0286082
-0.0295211
-0.0296839
-0.0293712
-0.028656
-0.0275918
-0.0262115
-0.0245279
-0.0225443
-0.0202609
-0.017677
-0.0147908
-0.011599
-0.00809608
-0.00427317
-0.000118028
0.00437527
0.00922077
0.0144135
0.0199233
0.0256719
0.0315036
0.0371523
0.0422211
0.0462013
0.0485926
0.0490822
0.0473241
0.0426356
-0.0316174
-0.0342583
-0.0352699
-0.0353779
-0.0349464
-0.0340823
-0.0328557
-0.0313061
-0.0294471
-0.027282
-0.0248107
-0.0220327
-0.0189466
-0.0155482
-0.0118291
-0.00777512
-0.00336471
0.00142919
0.00664049
0.0122997
0.0184212
0.0249778
0.0318594
0.0388163
0.0453966
0.0509239
0.0546189
0.0558473
0.0538702
0.0475453
-0.0377969
-0.0409529
-0.042045
-0.042029
-0.0414046
-0.0403253
-0.0388802
-0.0371137
-0.0350389
-0.0326578
-0.029971
-0.0269796
-0.0236843
-0.0200826
-0.0161662
-0.0119181
-0.00730912
-0.00229593
0.00317904
0.00918752
0.0158043
0.0230853
0.0310205
0.0394505
0.047942
0.0556714
0.0614893
0.0642108
0.0623131
0.0537468
-0.0451896
-0.0489938
-0.0501023
-0.0498328
-0.0488922
-0.0474954
-0.0457481
-0.0436946
-0.0413433
-0.0386938
-0.0357475
-0.0325092
-0.0289841
-0.0251747
-0.0210767
-0.0166745
-0.0119371
-0.00681186
-0.00122065
0.00494505
0.0118299
0.0196018
0.0284162
0.0383204
0.0490551
0.0597794
0.0689521
0.0745334
0.0735427
0.0622226
-0.0542537
-0.0588342
-0.0597896
-0.059026
-0.0575655
-0.0556931
-0.0535185
-0.0510738
-0.0483558
-0.0453588
-0.0420854
-0.0385456
-0.0347518
-0.0307148
-0.026438
-0.0219134
-0.0171156
-0.0119931
-0.00645482
-0.000378677
0.00644755
0.014314
0.023597
0.0346888
0.0477523
0.0622434
0.0764186
0.0871053
0.0888502
0.0749532
-0.0657943
-0.0711706
-0.0715687
-0.0698675
-0.06755
-0.0649571
-0.0621678
-0.0591787
-0.055963
-0.0525052
-0.0488082
-0.0448879
-0.0407654
-0.0364612
-0.0319893
-0.027353
-0.0225395
-0.0175101
-0.0121854
-0.00642194
-2.60881e-07
0.00748778
0.016656
0.028349
0.0434365
0.0621778
0.0831931
0.102209
0.110126
0.0958041
-0.0813282
-0.0870833
-0.0859945
-0.0825463
-0.0788195
-0.0751286
-0.0714481
-0.0676987
-0.0638101
-0.0597483
-0.0555123
-0.0511211
-0.0466021
-0.0419833
-0.0372877
-0.0325293
-0.0277086
-0.0228061
-0.0177631
-0.0124383
-0.00663606
0.000144013
0.00871834
0.0204054
0.0369731
0.0600244
0.0894767
0.120735
0.140425
0.131777
-0.103912
-0.108229
-0.103538
-0.0969005
-0.0908862
-0.0855371
-0.0805877
-0.0758159
-0.0710718
-0.0662813
-0.0614252
-0.0565144
-0.051573
-0.0466281
-0.0417039
-0.0368184
-0.0319794
-0.0271784
-0.0223758
-0.0174667
-0.0121609
-0.00598325
0.00206597
0.0137305
0.0316639
0.0590754
0.0981581
0.145698
0.185082
0.193658
-0.140002
-0.136985
-0.124182
-0.111923
-0.1023
-0.0945402
-0.0879128
-0.0819257
-0.0762702
-0.0707781
-0.0653773
-0.0600456
-0.0547862
-0.0496124
-0.0445389
-0.0395773
-0.0347302
-0.0299821
-0.0252803
-0.020495
-0.0153174
-0.00911648
-0.000705903
0.0120623
0.0326055
0.0655668
0.115939
0.183761
0.252908
0.296761
-0.204066
-0.175125
-0.146488
-0.125061
-0.110108
-0.099233
-0.0908272
-0.0838283
-0.0775972
-0.0717846
-0.0662147
-0.0608071
-0.0555308
-0.050379
-0.0453537
-0.0404551
-0.0356724
-0.0309674
-0.0262465
-0.0213116
-0.0157508
-0.00870399
0.00131643
0.0169668
0.0425206
0.0841543
0.149466
0.242517
0.355591
0.47394
-0.33762
-0.216456
-0.159774
-0.126643
-0.10637
-0.0936133
-0.0850474
-0.078582
-0.0730844
-0.0680122
-0.0631193
-0.0583029
-0.0535308
-0.0488041
-0.0441335
-0.0395247
-0.034963
-0.0303916
-0.0256722
-0.0205144
-0.0143441
-0.00620654
0.00578164
0.0248259
0.0561768
0.107978
0.191883
0.321011
0.503393
0.792106
-0.662374
-0.250995
-0.127158
-0.0909515
-0.0746375
-0.0666999
-0.0632713
-0.0614348
-0.0596866
-0.0575315
-0.0548855
-0.0517965
-0.0483549
-0.0446583
-0.0407913
-0.036812
-0.0327406
-0.0285392
-0.0240766
-0.0190677
-0.012962
-0.00463004
0.00788004
0.0277981
0.0606386
0.115854
0.210415
0.377564
0.676578
1.26924
)
;

boundaryField
{
    movingWall
    {
        type            zeroGradient;
    }
    fixedWalls
    {
        type            zeroGradient;
    }
    frontAndBack
    {
        type            empty;
    }
}


// ************************************************************************* //
