/*--------------------------------*- C++ -*----------------------------------*\
  =========                 |
  \\      /  F ield         | OpenFOAM: The Open Source CFD Toolbox
   \\    /   O peration     | Website:  https://openfoam.org
    \\  /    A nd           | Version:  7
     \\/     M anipulation  |
\*---------------------------------------------------------------------------*/
FoamFile
{
    version     2.0;
    format      ascii;
    class       surfaceScalarField;
    location    "0.6";
    object      phi;
}
// * * * * * * * * * * * * * * * * * * * * * * * * * * * * * * * * * * * * * //

dimensions      [0 3 -1 0 0 0 0];

internalField   nonuniform List<scalar> 
1740
(
3.07228e-09
-3.09899e-09
-1.10165e-06
1.10472e-06
-3.21558e-06
2.11393e-06
-5.9189e-06
2.70333e-06
-8.87426e-06
2.95537e-06
-1.18591e-05
2.98483e-06
-1.47393e-05
2.88017e-06
-1.74361e-05
2.69686e-06
-1.99002e-05
2.4641e-06
-2.20954e-05
2.1952e-06
-2.39912e-05
1.89575e-06
-2.55595e-05
1.56839e-06
-2.67746e-05
1.21509e-06
-2.76127e-05
8.38079e-07
-2.80529e-05
4.40215e-07
-2.80781e-05
2.51666e-08
-2.76753e-05
-4.02796e-07
-2.68372e-05
-8.38126e-07
-2.55627e-05
-1.27453e-06
-2.38581e-05
-1.70461e-06
-2.17386e-05
-2.1195e-06
-1.92306e-05
-2.50796e-06
-1.63765e-05
-2.85407e-06
-1.32438e-05
-3.13273e-06
-9.94142e-06
-3.3024e-06
-6.64479e-06
-3.29662e-06
-3.62435e-06
-3.02044e-06
-1.2644e-06
-2.35995e-06
-2.2443e-08
-1.24196e-06
-2.24429e-08
-1.10196e-06
1.09886e-06
-4.59236e-06
4.59513e-06
-9.90498e-06
7.42654e-06
-1.63578e-05
9.15615e-06
-2.3344e-05
9.94154e-06
-3.04122e-05
1.0053e-05
-3.72578e-05
9.7258e-06
-4.3682e-05
9.12112e-06
-4.95509e-05
8.33294e-06
-5.4766e-05
7.41027e-06
-5.9248e-05
6.37779e-06
-6.29289e-05
5.24928e-06
-6.57487e-05
4.03486e-06
-6.7655e-05
2.74441e-06
-6.86038e-05
1.38901e-06
-6.8561e-05
-1.75594e-08
-6.75025e-05
-1.46134e-06
-6.54181e-05
-2.9225e-06
-6.23125e-05
-4.38021e-06
-5.82078e-05
-5.80923e-06
-5.31483e-05
-7.17905e-06
-4.72057e-05
-8.45052e-06
-4.0491e-05
-9.56878e-06
-3.31729e-05
-1.04509e-05
-2.55073e-05
-1.0968e-05
-1.78749e-05
-1.0929e-05
-1.08129e-05
-1.00825e-05
-5.00931e-06
-8.16349e-06
-1.20528e-06
-5.04599e-06
-1.22772e-06
-2.15853e-06
3.25739e-06
-7.59301e-06
1.00296e-05
-1.53312e-05
1.51647e-05
-2.44705e-05
1.82955e-05
-3.4253e-05
1.9724e-05
-4.4109e-05
1.99091e-05
-5.36416e-05
1.92584e-05
-6.25806e-05
1.80601e-05
-7.07375e-05
1.64899e-05
-7.79723e-05
1.4645e-05
-8.41726e-05
1.25781e-05
-8.92439e-05
1.03206e-05
-9.31051e-05
7.89607e-06
-9.5687e-05
5.32625e-06
-9.69327e-05
2.6347e-06
-9.67986e-05
-1.51627e-07
-9.52576e-05
-3.00239e-06
-9.22992e-05
-5.88091e-06
-8.79341e-05
-8.74524e-06
-8.21976e-05
-1.15458e-05
-7.51545e-05
-1.42222e-05
-6.69081e-05
-1.66969e-05
-5.76143e-05
-1.88626e-05
-4.75043e-05
-2.05609e-05
-3.69181e-05
-2.15542e-05
-2.63455e-05
-2.15016e-05
-1.64601e-05
-1.99678e-05
-8.1185e-06
-1.65051e-05
-2.29558e-06
-1.08689e-05
-3.5233e-06
-2.87211e-06
6.1295e-06
-9.74918e-06
1.69067e-05
-1.92801e-05
2.46956e-05
-3.03559e-05
2.93713e-05
-4.21028e-05
3.14708e-05
-5.38799e-05
3.16862e-05
-6.52404e-05
3.06189e-05
-7.58764e-05
2.86961e-05
-8.55695e-05
2.6183e-05
-9.4155e-05
2.32305e-05
-0.000101501
1.99243e-05
-0.000107498
1.63171e-05
-0.00011205
1.24486e-05
-0.00011508
8.35559e-06
-0.000116521
4.07617e-06
-0.000116326
-3.46868e-07
-0.000114463
-4.86508e-06
-0.000110922
-9.42155e-06
-0.000105717
-1.39504e-05
-9.88896e-05
-1.83735e-05
-9.0516e-05
-2.25958e-05
-8.07179e-05
-2.6495e-05
-6.96773e-05
-2.99033e-05
-5.76608e-05
-3.25773e-05
-4.50563e-05
-3.41587e-05
-3.24167e-05
-3.41412e-05
-2.05028e-05
-3.18818e-05
-1.03018e-05
-2.67061e-05
-3.00607e-06
-1.81646e-05
-6.52937e-06
-3.32989e-06
9.45939e-06
-1.12411e-05
2.4818e-05
-2.20964e-05
3.5551e-05
-3.46045e-05
4.18794e-05
-4.77901e-05
4.46565e-05
-6.09572e-05
4.48533e-05
-7.3627e-05
4.32886e-05
-8.54702e-05
4.05394e-05
-9.62526e-05
3.69654e-05
-0.000105797
3.27746e-05
-0.00011396
2.80872e-05
-0.000120622
2.29793e-05
-0.000125681
1.75082e-05
-0.000129052
1.17262e-05
-0.000130663
5.68728e-06
-0.000130461
-5.49344e-07
-0.000128409
-6.91673e-06
-0.000124494
-1.33363e-05
-0.000118728
-1.97169e-05
-0.000111152
-2.59496e-05
-0.000101846
-3.19011e-05
-9.09413e-05
-3.74e-05
-7.86327e-05
-4.22119e-05
-6.52099e-05
-4.60002e-05
-5.10937e-05
-4.82748e-05
-3.68867e-05
-4.83482e-05
-2.34257e-05
-4.53428e-05
-1.18198e-05
-3.8312e-05
-3.45654e-06
-2.65279e-05
-9.98591e-06
-3.64658e-06
1.3106e-05
-1.23436e-05
3.3515e-05
-2.42459e-05
4.74533e-05
-3.79063e-05
5.55398e-05
-5.22549e-05
5.90051e-05
-6.65438e-05
5.91422e-05
-8.02667e-05
5.70114e-05
-9.30793e-05
5.33521e-05
-0.000104738
4.86239e-05
-0.000115058
4.30946e-05
-0.000123891
3.69201e-05
-0.000131112
3.02001e-05
-0.000136613
2.30096e-05
-0.000140303
1.54166e-05
-0.000142106
7.48976e-06
-0.00014196
-6.95503e-07
-0.000139822
-9.05481e-06
-0.00013567
-1.74881e-05
-0.000129508
-2.58784e-05
-0.000121373
-3.4085e-05
-0.00011134
-4.19337e-05
-9.95415e-05
-4.9199e-05
-8.61802e-05
-5.55731e-05
-7.15639e-05
-6.06165e-05
-5.61458e-05
-6.3693e-05
-4.05808e-05
-6.39131e-05
-2.57881e-05
-6.01356e-05
-1.30005e-05
-5.10996e-05
-3.78148e-06
-3.57469e-05
-1.37674e-05
-3.91166e-06
1.70176e-05
-1.32954e-05
4.28987e-05
-2.61387e-05
6.02966e-05
-4.0854e-05
7.02551e-05
-5.62787e-05
7.44298e-05
-7.16109e-05
7.44744e-05
-8.63157e-05
7.17162e-05
-0.000100035
6.7071e-05
-0.000112517
6.11059e-05
-0.000123573
5.4151e-05
-0.000133052
4.63991e-05
-0.000140825
3.79734e-05
-0.000146782
2.89661e-05
-0.000150824
1.94592e-05
-0.000152869
9.53465e-06
-0.000152847
-7.18005e-07
-0.000150702
-1.11994e-05
-0.000146401
-2.1789e-05
-0.000139934
-3.23454e-05
-0.000131324
-4.26951e-05
-0.000120637
-5.26203e-05
-0.000108
-6.18362e-05
-9.36209e-05
-6.99524e-05
-7.7825e-05
-7.64124e-05
-6.11033e-05
-8.04147e-05
-4.41746e-05
-8.08419e-05
-2.80546e-05
-7.62556e-05
-1.41114e-05
-6.50428e-05
-4.07895e-06
-4.57793e-05
-1.78463e-05
-4.18405e-06
2.12017e-05
-1.42665e-05
5.29812e-05
-2.80739e-05
7.4104e-05
-4.38797e-05
8.60609e-05
-6.04246e-05
9.09747e-05
-7.68479e-05
9.08977e-05
-9.25827e-05
8.74511e-05
-0.000107255
8.17436e-05
-0.000120608
7.44582e-05
-0.000132448
6.59916e-05
-0.000142624
5.65748e-05
-0.000151005
4.63542e-05
-0.000157477
3.54379e-05
-0.000161937
2.39195e-05
-0.000164294
1.18916e-05
-0.000164467
-5.45249e-07
-0.000162385
-1.32812e-05
-0.000157996
-2.61776e-05
-0.000151271
-3.90706e-05
-0.000142212
-5.17545e-05
-0.000130867
-6.39651e-05
-0.000117352
-7.53515e-05
-0.000101875
-8.54286e-05
-8.47835e-05
-9.35043e-05
-6.66126e-05
-9.85856e-05
-4.81609e-05
-9.92936e-05
-3.05617e-05
-9.38548e-05
-1.5339e-05
-8.02655e-05
-4.41118e-06
-5.67071e-05
-2.22575e-05
-4.49832e-06
2.57e-05
-1.53653e-05
6.38482e-05
-3.02484e-05
8.8987e-05
-4.72702e-05
0.000103083
-6.50649e-05
0.000108769
-8.27061e-05
0.000108539
-9.9591e-05
0.000104336
-0.000115329
9.74813e-05
-0.000129655
8.87843e-05
-0.000142376
7.87131e-05
-0.00015334
6.75389e-05
-0.000162417
5.54313e-05
-0.000169491
4.25119e-05
-0.000174455
2.88834e-05
-0.000177208
1.46443e-05
-0.000177656
-9.7047e-08
-0.000175708
-1.52293e-05
-0.000171289
-3.0597e-05
-0.00016434
-4.60196e-05
-0.000154834
-6.12605e-05
-0.000142792
-7.60069e-05
-0.00012831
-8.9834e-05
-0.000111592
-0.000102146
-9.30046e-05
-0.000112091
-7.31398e-05
-0.00011845
-5.28938e-05
-0.00011954
-3.35456e-05
-0.000113203
-1.68079e-05
-9.70032e-05
-4.81533e-06
-6.86997e-05
-2.70729e-05
-4.87443e-06
3.05744e-05
-1.66595e-05
7.56333e-05
-3.27894e-05
0.000105117
-5.12129e-05
0.000121506
-7.04425e-05
0.000127999
-8.94769e-05
0.000127573
-0.000107673
0.000122532
-0.000124622
0.00011443
-0.000140054
0.000104216
-0.000153776
9.24358e-05
-0.00016564
7.9403e-05
-0.000175519
6.531e-05
-0.000183297
5.02902e-05
-0.000188865
3.44508e-05
-0.000192111
1.78909e-05
-0.000192927
7.18967e-07
-0.000191199
-1.69579e-05
-0.000186819
-3.49768e-05
-0.000179692
-5.31469e-05
-0.000169748
-7.12045e-05
-0.000156967
-8.87876e-05
-0.000141412
-0.000105389
-0.000123275
-0.000120284
-0.000102939
-0.000132427
-8.1061e-05
-0.000140329
-5.86583e-05
-0.000141942
-3.71923e-05
-0.000134669
-1.86111e-05
-0.000115584
-5.31622e-06
-8.19945e-05
-3.23891e-05
-5.32585e-06
3.59003e-05
-1.81969e-05
8.85043e-05
-3.57885e-05
0.000122709
-5.5843e-05
0.000141561
-7.67305e-05
0.000148887
-9.73639e-05
0.000148207
-0.000117056
0.000142224
-0.000135379
0.000132753
-0.00015206
0.000120897
-0.000166912
0.000107288
-0.000179794
9.22847e-05
-0.000190586
7.61021e-05
-0.000199178
5.88824e-05
-0.00020546
4.07325e-05
-0.000209314
2.17448e-05
-0.00021061
2.01504e-06
-0.000209212
-1.83552e-05
-0.000204972
-3.92169e-05
-0.000197744
-6.0375e-05
-0.000187401
-8.15473e-05
-0.000173864
-0.000102325
-0.000157142
-0.000122111
-0.000137397
-0.000140029
-0.000115023
-0.000154801
-9.07478e-05
-0.000164604
-6.57378e-05
-0.000166952
-4.16848e-05
-0.000158722
-2.08376e-05
-0.000136432
-5.93626e-06
-9.68959e-05
-3.83253e-05
-5.86497e-06
4.17652e-05
-2.0021e-05
0.00010266
-3.93277e-05
0.000142015
-6.12791e-05
0.000163512
-8.40777e-05
0.000171685
-0.000106537
0.000170666
-0.000127922
0.000163608
-0.000147787
0.000152618
-0.000165862
0.000138972
-0.000181969
0.000123396
-0.000195984
0.000106299
-0.0002078
8.79181e-05
-0.000217318
6.84009e-05
-0.000224433
4.78474e-05
-0.000229023
2.63344e-05
-0.000230941
3.93375e-06
-0.000230021
-1.92757e-05
-0.000226066
-4.31717e-05
-0.000218868
-6.75734e-05
-0.000208221
-9.21941e-05
-0.00019396
-0.000116586
-0.000176013
-0.000140058
-0.000154484
-0.000161558
-0.000129761
-0.000179525
-0.000102643
-0.000191722
-7.44761e-05
-0.000195119
-4.72476e-05
-0.00018595
-2.35967e-05
-0.000160083
-6.70271e-06
-0.00011379
-4.5028e-05
-6.50657e-06
4.82718e-05
-2.21813e-05
0.000118335
-4.34978e-05
0.000163332
-6.76499e-05
0.000187664
-9.26404e-05
0.000196676
-0.00011717
0.000195195
-0.000140449
0.000186888
-0.000162022
0.000174191
-0.000181626
0.000158575
-0.000199104
0.000140874
-0.000214353
0.000121549
-0.000227295
0.000100859
-0.000237848
7.89547e-05
-0.000245921
5.59205e-05
-0.000251393
3.1806e-05
-0.000254105
6.64538e-06
-0.000253854
-1.9526e-05
-0.000250392
-4.66337e-05
-0.00024343
-7.45356e-05
-0.00023266
-0.000102965
-0.000217794
-0.000131452
-0.000198637
-0.000159214
-0.000175192
-0.000185003
-0.000147802
-0.000206915
-0.000117333
-0.000222191
-8.53415e-05
-0.00022711
-5.41921e-05
-0.0002171
-2.7042e-05
-0.000187233
-7.65431e-06
-0.000133178
-5.26824e-05
-7.27058e-06
5.55424e-05
-2.47422e-05
0.000135807
-4.84139e-05
0.000187003
-7.51133e-05
0.000214364
-0.000102605
0.000224168
-0.000129461
0.000222051
-0.000154838
0.000212265
-0.000178272
0.000197626
-0.000199521
0.000179824
-0.000218461
0.000159814
-0.000235027
0.000138115
-0.000249177
0.000115009
-0.000260864
9.06422e-05
-0.00027002
6.50766e-05
-0.000276535
3.8321e-05
-0.000280244
1.03537e-05
-0.000280912
-1.88577e-05
-0.00027823
-4.93158e-05
-0.000271813
-8.09523e-05
-0.000261221
-0.000113556
-0.000246002
-0.000146671
-0.000225774
-0.000179442
-0.000200369
-0.000210409
-0.000170026
-0.000237257
-0.000135642
-0.000256575
-9.90112e-05
-0.000263741
-6.29804e-05
-0.000253131
-3.14058e-05
-0.000218807
-8.85052e-06
-0.000155733
-6.15329e-05
-8.18506e-06
6.37275e-05
-2.7792e-05
0.000155414
-5.42294e-05
0.000213441
-8.38753e-05
0.00024401
-0.000114211
0.000254503
-0.000143659
0.000251499
-0.000171326
0.000239932
-0.000196754
0.000223053
-0.000219733
0.000202803
-0.00024019
0.000180271
-0.000258117
0.000156042
-0.000273527
0.000130419
-0.000286423
0.000103539
-0.000296778
7.5431e-05
-0.000304506
4.60494e-05
-0.000309448
1.5295e-05
-0.000311345
-1.69605e-05
-0.000309826
-5.08347e-05
-0.000304399
-8.63797e-05
-0.000294458
-0.000123497
-0.00027933
-0.000161799
-0.00025837
-0.000200403
-0.000231132
-0.000237647
-0.000197643
-0.000270745
-0.000158754
-0.000295465
-0.000116496
-0.000305999
-7.43253e-05
-0.000295301
-3.70567e-05
-0.000256076
-1.03878e-05
-0.000182402
-7.19207e-05
-9.29059e-06
7.30181e-05
-3.14549e-05
0.000177578
-6.11556e-05
0.000243141
-9.42122e-05
0.000277066
-0.000127766
0.000288056
-0.000160077
0.000283811
-0.000190207
0.000270063
-0.00021772
0.000250566
-0.000242465
0.000227548
-0.000264441
0.000202248
-0.00028372
0.000175321
-0.000300392
0.00014709
-0.000314532
0.000117679
-0.000326175
8.70738e-05
-0.000335283
5.51568e-05
-0.000341718
2.17302e-05
-0.000345216
-1.3462e-05
-0.000345353
-5.06979e-05
-0.000341523
-9.02099e-05
-0.00033293
-0.00013209
-0.00031862
-0.000176109
-0.000297575
-0.000221448
-0.000268927
-0.000266294
-0.000232313
-0.000307359
-0.000188374
-0.000339403
-0.000139322
-0.000355051
-8.93497e-05
-0.000345273
-4.45973e-05
-0.000300828
-1.24306e-05
-0.000214568
-8.43513e-05
-1.06472e-05
8.36653e-05
-3.59092e-05
0.00020284
-6.94869e-05
0.000276719
-0.000106498
0.000314077
-0.000143678
0.000325237
-0.000179114
0.000319247
-0.00021184
0.000302788
-0.000241468
0.000280194
-0.00026794
0.000254019
-0.000291357
0.000225665
-0.000311898
0.000195862
-0.000329758
0.00016495
-0.000345112
0.000133034
-0.000358083
0.000100044
-0.000368706
6.57805e-05
-0.000376899
2.99231e-05
-0.000382419
-7.94227e-06
-0.000384811
-4.8306e-05
-0.000383371
-9.16501e-05
-0.0003771
-0.00013836
-0.000364707
-0.000188503
-0.000344683
-0.000241471
-0.000315536
-0.000295442
-0.000276233
-0.000346662
-0.000226914
-0.000388722
-0.000169774
-0.000412192
-0.000109824
-0.000405223
-5.50257e-05
-0.000355626
-1.52664e-05
-0.000254328
-9.96177e-05
-1.23459e-05
9.60112e-05
-4.14154e-05
0.000231909
-7.96379e-05
0.000314942
-0.00012124
0.000355679
-0.00016248
0.000366477
-0.00020127
0.000358038
-0.00023665
0.000338168
-0.000268329
0.000311873
-0.000296376
0.000282066
-0.000321037
0.000250327
-0.000342633
0.000217457
-0.000361495
0.000183813
-0.000377929
0.000149467
-0.000392176
0.000114291
-0.000404382
7.79865e-05
-0.000414555
4.00962e-05
-0.000422522
2.51873e-08
-0.000427842
-4.29863e-05
-0.000429756
-8.97363e-05
-0.000427082
-0.000141034
-0.000418164
-0.000197421
-0.000400886
-0.000258749
-0.000372885
-0.000323443
-0.000332068
-0.00038748
-0.000277568
-0.000443222
-0.000211117
-0.000478643
-0.000138458
-0.000477883
-6.99699e-05
-0.000424114
-1.94003e-05
-0.000304897
-0.000119018
-1.45285e-05
0.00011054
-4.83582e-05
0.000265739
-9.21931e-05
0.000358777
-0.00013912
0.000402605
-0.000184848
0.000412205
-0.000227142
0.000400332
-0.000265107
0.000376133
-0.000298611
0.000345377
-0.000327912
0.000311368
-0.000353447
0.000275862
-0.000375717
0.000239727
-0.000395225
0.000203321
-0.000412438
0.00016668
-0.000427753
0.000129607
-0.000441465
9.16975e-05
-0.000453721
5.23529e-05
-0.000464466
1.07696e-05
-0.000473367
-3.40848e-05
-0.000479681
-8.34222e-05
-0.000482121
-0.000138593
-0.000478698
-0.000200845
-0.000466623
-0.000270824
-0.000442414
-0.000347651
-0.000402415
-0.000427479
-0.000343993
-0.000501643
-0.000267566
-0.00055507
-0.000179111
-0.000566338
-9.19615e-05
-0.000511263
-2.56932e-05
-0.000371166
-0.000144711
-1.74212e-05
0.000127961
-5.73111e-05
0.000305629
-0.000107969
0.000409434
-0.000161025
0.000455661
-0.000211592
0.000462772
-0.000257361
0.000446101
-0.000297606
0.000416378
-0.00033245
0.00038022
-0.000362412
0.00034133
-0.000388176
0.000301626
-0.00041047
0.000262021
-0.000430004
0.000222855
-0.000447437
0.000184113
-0.000463351
0.000145521
-0.000478225
0.000106572
-0.000492399
6.6527e-05
-0.000506013
2.43832e-05
-0.000518923
-2.11743e-05
-0.000530541
-7.18043e-05
-0.000539623
-0.000129512
-0.000543983
-0.000196485
-0.000540214
-0.000274592
-0.000523565
-0.0003643
-0.000488302
-0.000462743
-0.000429032
-0.000560913
-0.000343461
-0.00064064
-0.000236545
-0.000673254
-0.000124597
-0.000623211
-3.55383e-05
-0.000460225
-0.00018025
-2.13936e-05
0.000149355
-6.91273e-05
0.000353363
-0.000128072
0.00046838
-0.000188028
0.000515616
-0.000243534
0.000518279
-0.000292372
0.000494939
-0.000334155
0.000458161
-0.000369392
0.000415458
-0.000398964
0.000370902
-0.00042387
0.000326531
-0.000445109
0.00028326
-0.000463631
0.000241377
-0.000480312
0.000200794
-0.000495937
0.000161146
-0.000511193
0.000121828
-0.000526648
8.19818e-05
-0.000542702
4.04377e-05
-0.000559501
-4.37591e-06
-0.000576774
-5.45309e-05
-0.000593544
-0.000112742
-0.000607708
-0.000182321
-0.000615504
-0.000266797
-0.000611016
-0.000368788
-0.000586138
-0.00048762
-0.000531714
-0.000615337
-0.000440845
-0.00073151
-0.000315051
-0.000799048
-0.00017225
-0.000766012
-5.10305e-05
-0.000581444
-0.00023128
-2.70608e-05
0.000176415
-8.50598e-05
0.000411362
-0.00015391
0.00053723
-0.000221209
0.000582915
-0.000281123
0.000578193
-0.000331841
0.000545657
-0.000373586
0.000499906
-0.000407445
0.000449316
-0.000434784
0.000398241
-0.000456999
0.000348746
-0.000475411
0.000301671
-0.00049123
0.000257196
-0.000505552
0.000215116
-0.000519364
0.000174958
-0.000533555
0.000136019
-0.000548921
9.73475e-05
-0.000566149
5.7666e-05
-0.000585736
1.5211e-05
-0.000607886
-3.23815e-05
-0.000632146
-8.84818e-05
-0.000656904
-0.000157562
-0.000678584
-0.000245118
-0.000690676
-0.000356695
-0.000683007
-0.00049529
-0.000642166
-0.000656178
-0.000554715
-0.000818961
-0.000415079
-0.000938685
-0.000238746
-0.000942345
-7.50335e-05
-0.000745157
-0.000306314
-3.54661e-05
0.000211882
-0.000106894
0.00048279
-0.000187019
0.000617355
-0.000261078
0.000656974
-0.00032343
0.000640545
-0.000373261
0.000595487
-0.000411824
0.000538469
-0.000441053
0.000478545
-0.000462966
0.000420154
-0.000479445
0.000365226
-0.000492172
0.000314398
-0.000502622
0.000267646
-0.000512086
0.00022458
-0.000521704
0.000184576
-0.00053251
0.000146825
-0.000545467
0.000110304
-0.000561492
7.36915e-05
-0.000581453
3.51717e-05
-0.000606001
-7.83298e-06
-0.00063549
-5.89935e-05
-0.000669219
-0.000123833
-0.000704591
-0.000209747
-0.000735665
-0.000325621
-0.00075153
-0.000479425
-0.000735369
-0.000672339
-0.000666304
-0.000888025
-0.000527469
-0.00107752
-0.00032428
-0.00114553
-0.000110888
-0.000958548
-0.000417202
-4.84158e-05
0.000260297
-0.000137023
0.000571397
-0.000228417
0.000708749
-0.000306069
0.000734627
-0.00036586
0.000700336
-0.000409001
0.000638628
-0.000438421
0.000567889
-0.00045727
0.000497395
-0.000468415
0.000431299
-0.000474306
0.000371117
-0.000476988
0.00031708
-0.000478149
0.000268807
-0.000479188
0.000225619
-0.00048129
0.000186678
-0.000485503
0.000151038
-0.000492813
0.000117615
-0.000504219
8.50966e-05
-0.000520792
5.17448e-05
-0.000543558
1.49331e-05
-0.000573647
-2.89047e-05
-0.000611603
-8.58759e-05
-0.00065663
-0.00016472
-0.000704985
-0.000277266
-0.000747545
-0.000436865
-0.000767041
-0.000652843
-0.000736872
-0.000918195
-0.00062621
-0.00118818
-0.000419882
-0.00135186
-0.000161007
-0.00121742
-0.000578209
-6.90953e-05
0.000329393
-0.000178209
0.00068051
-0.000276677
0.000807217
-0.000348976
0.000806925
-0.000395289
0.000746649
-0.000420563
0.000663903
-0.000430314
0.000577639
-0.000429341
0.000496422
-0.000421497
0.000423455
-0.00040977
0.00035939
-0.00039644
0.00030375
-0.00038323
0.000255598
-0.000371449
0.000213838
-0.000362118
0.000177347
-0.000356087
0.000145007
-0.000354148
0.000115675
-0.000357133
8.80815e-05
-0.000366019
6.06306e-05
-0.000382116
3.10309e-05
-0.000406756
-4.26508e-06
-0.000441898
-5.07342e-05
-0.000488955
-0.000117663
-0.000547913
-0.000218308
-0.000614621
-0.000370157
-0.000676426
-0.000591038
-0.000706717
-0.000887903
-0.000662803
-0.0012321
-0.000499562
-0.0015151
-0.000222686
-0.0014943
-0.000800895
-0.000102987
0.00043238
-0.00023189
0.000809413
-0.00032247
0.000897798
-0.000368676
0.000853131
-0.00038026
0.000758233
-0.000368332
0.000651976
-0.000341924
0.00055123
-0.000307627
0.000462124
-0.000270029
0.000385857
-0.000232242
0.000321602
-0.000196324
0.000267832
-0.000163603
0.000222877
-0.000134919
0.000185153
-0.000110802
0.00015323
-9.16262e-05
0.000125832
-7.77282e-05
0.000101777
-6.95239e-05
7.98773e-05
-6.76413e-05
5.8748e-05
-7.31142e-05
3.65038e-05
-8.75578e-05
1.01784e-05
-0.00011341
-2.48817e-05
-0.000154224
-7.68497e-05
-0.000214212
-0.00015832
-0.000296533
-0.000287836
-0.000398687
-0.000488883
-0.000503748
-0.000782842
-0.00056695
-0.00116889
-0.000512719
-0.00156933
-0.000279947
-0.00172707
-0.00108084
-0.000157952
0.000590332
-0.000289106
0.000940566
-0.000332025
0.000940718
-0.000310507
0.000831613
-0.000251777
0.000699503
-0.000174846
0.000575044
-9.17783e-05
0.000468163
-9.70094e-06
0.000380047
6.74442e-05
0.000308712
0.00013766
0.000251386
0.000200113
0.000205379
0.000254641
0.000168349
0.000301447
0.000138347
0.000340896
0.000113781
0.000373385
9.33434e-05
0.000399234
7.59277e-05
0.000418602
6.05091e-05
0.000431364
4.59858e-05
0.000436934
3.09348e-05
0.000433864
1.32482e-05
0.000419574
-1.05914e-05
0.00038941
-4.66862e-05
0.000335853
-0.000104762
0.000248513
-0.000200496
0.000116768
-0.000357138
-6.05384e-05
-0.000605536
-0.000255911
-0.000973521
-0.000382264
-0.00144298
-0.000298427
-0.00181091
-0.00137927
-0.000233731
0.000824063
-0.000287095
0.00099393
-0.000195231
0.000848854
-3.96391e-05
0.000676021
0.000132515
0.000527349
0.000299279
0.000408281
0.000451276
0.000316166
0.000585283
0.00024604
0.000701154
0.000192842
0.000800149
0.000152391
0.000884058
0.00012147
0.000954761
9.76461e-05
0.00101402
7.90872e-05
0.00106339
6.4416e-05
0.00110414
5.25864e-05
0.0011373
4.27732e-05
0.00116354
3.42666e-05
0.00118318
2.63494e-05
0.00119597
1.81379e-05
0.00120083
8.38977e-06
0.00119516
-4.9235e-06
0.00117421
-2.57318e-05
0.00112901
-5.95603e-05
0.001045
-0.000116488
0.000900889
-0.000213028
0.000672108
-0.000376754
0.000350996
-0.00065241
1.46074e-06
-0.00109345
-0.00019032
-0.00161913
-0.00156959
-0.000179473
0.00100354
5.20161e-05
0.000762441
0.000415201
0.000485669
0.000751973
0.000339249
0.00103864
0.000240682
0.00127582
0.000171097
0.00146908
0.000122914
0.00162537
8.97462e-05
0.00175154
6.66732e-05
0.00185353
5.03981e-05
0.00193624
3.87639e-05
0.00200356
3.03226e-05
0.00205856
2.40848e-05
0.00210361
1.93696e-05
0.00214049
1.57014e-05
0.00217053
1.2733e-05
0.00219462
1.01841e-05
0.00221318
7.78557e-06
0.0022261
5.22243e-06
0.0022324
2.08432e-06
0.00223015
-2.67043e-06
0.0022146
-1.0181e-05
0.00217747
-2.24287e-05
0.00210419
-4.32137e-05
0.00197012
-7.89537e-05
0.00173622
-0.000142853
0.00135133
-0.000267519
0.000795418
-0.000537539
0.000212168
-0.00103588
-0.00135742
0.00100354
0.00176598
0.00225165
0.00259089
0.00283158
0.00300267
0.00312559
0.00321533
0.00328201
0.00333241
0.00337117
0.00340149
0.00342558
0.00344495
0.00346065
0.00347338
0.00348356
0.00349135
0.00349657
0.00349866
0.00349599
0.00348581
0.00346338
0.00342016
0.00334121
0.00319836
0.00293084
0.0023933
0.00135742
)
;

boundaryField
{
    movingWall
    {
        type            calculated;
        value           uniform 0;
    }
    fixedWalls
    {
        type            calculated;
        value           uniform 0;
    }
    frontAndBack
    {
        type            empty;
        value           nonuniform 0();
    }
}


// ************************************************************************* //
