/*--------------------------------*- C++ -*----------------------------------*\
  =========                 |
  \\      /  F ield         | OpenFOAM: The Open Source CFD Toolbox
   \\    /   O peration     | Website:  https://openfoam.org
    \\  /    A nd           | Version:  7
     \\/     M anipulation  |
\*---------------------------------------------------------------------------*/
FoamFile
{
    version     2.0;
    format      ascii;
    class       volScalarField;
    location    "5.3";
    object      p;
}
// * * * * * * * * * * * * * * * * * * * * * * * * * * * * * * * * * * * * * //

dimensions      [0 2 -2 0 0 0 0];

internalField   nonuniform List<scalar> 
900
(
9.79822e-07
-0.000313534
-0.000811519
-0.00132384
-0.00176115
-0.00206588
-0.00220957
-0.00217989
-0.00197101
-0.00157935
-0.00100303
-0.000243491
0.000691458
0.00178416
0.00300408
0.00430591
0.00562969
0.00690326
0.00804768
0.00898503
0.00964811
0.00999056
0.00999568
0.0096823
0.00910736
0.00836251
0.0075495
0.00683018
0.00633373
0.00618754
0.000314253
-1.09395e-05
-0.000385953
-0.000756291
-0.00106608
-0.00127409
-0.0013577
-0.00130473
-0.00110779
-0.000761915
-0.000264457
0.000383672
0.00117581
0.00209694
0.00312128
0.00421073
0.00531672
0.00637909
0.00733316
0.00811555
0.00867225
0.00896704
0.00898867
0.0087552
0.00831462
0.00774106
0.00712461
0.00656533
0.00617448
0.00603958
0.000831128
0.000351951
-3.55397e-05
-0.000365335
-0.000625726
-0.000791488
-0.000849244
-0.000791721
-0.000613104
-0.000308234
0.000126878
0.000693566
0.00138826
0.0021999
0.00310761
0.00407947
0.00507152
0.00602996
0.00689528
0.00760822
0.00811765
0.00838881
0.00841035
0.00819839
0.00779644
0.00727076
0.00670204
0.00617602
0.00577433
0.00555944
0.00138417
0.000705479
0.000249154
-9.05236e-05
-0.000342401
-0.000496692
-0.000550656
-0.00050378
-0.000353125
-9.35653e-05
0.000280854
0.000774923
0.00138961
0.00211906
0.00294779
0.0038486
0.00478147
0.00569486
0.00652957
0.00722468
0.00772582
0.00799414
0.00801404
0.0077979
0.00738598
0.00684121
0.00624091
0.00566747
0.00518617
0.00482154
0.00185748
0.000965102
0.000420131
4.81346e-05
-0.000217113
-0.000379799
-0.000447451
-0.000426237
-0.000315966
-0.000111177
0.000196777
0.000617146
0.00115658
0.0018155
0.00258449
0.0034412
0.00434934
0.00525766
0.00610462
0.00682397
0.00735374
0.00764633
0.0076778
0.00745401
0.00701126
0.00641105
0.00573195
0.00505968
0.00445028
0.00389504
0.0021487
0.00104562
0.000404521
-1.32538e-05
-0.000308098
-0.000496569
-0.000595373
-0.000616527
-0.000561868
-0.000424856
-0.000193294
0.000147559
0.000611212
0.00120562
0.00192854
0.0027633
0.00367766
0.00461979
0.00552408
0.0063159
0.0069213
0.00727876
0.00735076
0.00713226
0.0066533
0.0059746
0.00517999
0.00436566
0.00358618
0.00280527
0.00217148
0.000870178
0.000132949
-0.000338162
-0.000674823
-0.000904703
-0.00105247
-0.0011349
-0.0011549
-0.001104
-0.000965508
-0.00071804
-0.000339835
0.000186236
0.000866857
0.00169259
0.002638
0.00365014
0.00465894
0.00557905
0.00632022
0.00680091
0.00696293
0.00678369
0.0062823
0.00551744
0.00458128
0.00358776
0.00259799
0.00155196
0.00185053
0.000368755
-0.000460038
-0.000988339
-0.00137671
-0.00166303
-0.00187888
-0.00204478
-0.00216387
-0.00222489
-0.00220572
-0.00207713
-0.00180746
-0.00136823
-0.000740904
7.58049e-05
0.0010657
0.00217782
0.00333861
0.0044508
0.00540368
0.00608855
0.00641711
0.00633922
0.00585481
0.00501624
0.0039255
0.00272139
0.00147937
0.000117418
0.00111852
-0.000522427
-0.00143583
-0.0020237
-0.0024733
-0.00283208
-0.00313786
-0.00341412
-0.00366365
-0.00387183
-0.00401037
-0.00404101
-0.00392031
-0.00360563
-0.00306195
-0.00226972
-0.0012422
-1.20152e-05
0.00134489
0.00271946
0.00397728
0.00497454
0.00558072
0.00570373
0.00531073
0.00443871
0.00319792
0.00175882
0.000219143
-0.00152551
-8.40344e-05
-0.00185958
-0.00284934
-0.00349906
-0.00402029
-0.0044697
-0.00489089
-0.00531002
-0.00572937
-0.00613088
-0.0064797
-0.00672758
-0.00681737
-0.00668893
-0.0062869
-0.00557038
-0.00452762
-0.00317893
-0.00159247
0.000115771
0.00178679
0.00323418
0.00427077
0.00474285
0.00456389
0.00373881
0.00237921
0.000692507
-0.0011929
-0.00340535
-0.00180682
-0.00368925
-0.00474631
-0.00546061
-0.00606516
-0.00662565
-0.0071914
-0.00779145
-0.00842801
-0.00908005
-0.00970639
-0.0102484
-0.0106333
-0.0107804
-0.0106083
-0.0100465
-0.0090504
-0.00761431
-0.00578775
-0.00368483
-0.00148568
0.000575835
0.00224081
0.00326921
0.0034907
0.00285021
0.00144424
-0.000481645
-0.00275967
-0.00554388
-0.00408705
-0.00604584
-0.00716046
-0.0079423
-0.00864257
-0.00933589
-0.0100777
-0.0109005
-0.0118077
-0.0127764
-0.0137601
-0.01469
-0.0154772
-0.016017
-0.0161967
-0.0159075
-0.0150614
-0.0136112
-0.0115719
-0.00904064
-0.00620826
-0.00335474
-0.00082295
0.00103326
0.00191995
0.00167909
0.000360412
-0.00176046
-0.00446932
-0.00794695
-0.00694646
-0.00894914
-0.0101108
-0.0109625
-0.0117698
-0.0126166
-0.013565
-0.0146525
-0.0158852
-0.0172404
-0.0186684
-0.0200914
-0.0214041
-0.0224764
-0.0231598
-0.0232991
-0.0227514
-0.0214114
-0.0192396
-0.0162947
-0.0127585
-0.00894562
-0.00528645
-0.00227354
-0.000371297
9.90763e-05
-0.000913274
-0.00312851
-0.00628564
-0.0105927
-0.0103887
-0.0124025
-0.0135997
-0.014521
-0.0154428
-0.0164583
-0.0176379
-0.0190258
-0.0206331
-0.0224403
-0.0243968
-0.0264182
-0.0283844
-0.0301396
-0.0314969
-0.032249
-0.0321878
-0.0311334
-0.0289718
-0.0256957
-0.0214491
-0.0165556
-0.0115217
-0.00699176
-0.00364672
-0.00204622
-0.00242373
-0.00455027
-0.00813479
-0.0134152
-0.0143978
-0.0163924
-0.0176122
-0.018598
-0.0196333
-0.0208218
-0.0222441
-0.0239534
-0.0259691
-0.0282779
-0.0308315
-0.0335422
-0.0362776
-0.0388577
-0.0410572
-0.0426144
-0.0432492
-0.0426934
-0.0407444
-0.0372975
-0.0324229
-0.0264145
-0.0198217
-0.0134315
-0.00817304
-0.00492454
-0.00421306
-0.00595724
-0.00988666
-0.0162821
-0.0189387
-0.0208897
-0.0221174
-0.0231541
-0.0242881
-0.0256356
-0.0272903
-0.0293179
-0.0317496
-0.0345812
-0.0377706
-0.04123
-0.0448178
-0.0483335
-0.0515156
-0.0540493
-0.0555809
-0.0557465
-0.0542531
-0.0508639
-0.0455414
-0.0385009
-0.0302812
-0.0217706
-0.0141461
-0.00867007
-0.00629268
-0.00722655
-0.0113289
-0.0189633
-0.0239603
-0.0258543
-0.0270727
-0.0281339
-0.0293309
-0.0307967
-0.0326425
-0.0349514
-0.0377694
-0.0411056
-0.0449264
-0.0491471
-0.0536206
-0.0581292
-0.06238
-0.0660095
-0.0685992
-0.0697057
-0.0688866
-0.0658131
-0.0603001
-0.0524325
-0.0426692
-0.031926
-0.021581
-0.0133054
-0.00859478
-0.00814698
-0.0121318
-0.0210908
-0.0294013
-0.0312422
-0.0324305
-0.0334712
-0.0346666
-0.0361739
-0.0381298
-0.0406402
-0.0437706
-0.0475456
-0.0519427
-0.0568816
-0.0622123
-0.0677034
-0.0730356
-0.0778039
-0.081531
-0.0836935
-0.0837497
-0.0812376
-0.0758199
-0.0674166
-0.0563387
-0.0434338
-0.0301852
-0.0186332
-0.0108968
-0.00836739
-0.011801
-0.0221056
-0.0352003
-0.0370178
-0.0381494
-0.0390972
-0.0401872
-0.0416139
-0.0435512
-0.0461357
-0.0494571
-0.053557
-0.0584243
-0.0639836
-0.0700816
-0.0764754
-0.0828235
-0.0886864
-0.0935378
-0.0967865
-0.0978078
-0.096022
-0.0909408
-0.0823038
-0.0702246
-0.0553883
-0.0392537
-0.0241183
-0.0127212
-0.00732499
-0.00961753
-0.021191
-0.0413114
-0.0431714
-0.0442071
-0.04495
-0.0457786
-0.0469475
-0.048685
-0.0511685
-0.0545156
-0.0587857
-0.0639766
-0.0700147
-0.0767419
-0.0839021
-0.0911334
-0.0979668
-0.103836
-0.108094
-0.110046
-0.109027
-0.104406
-0.0957503
-0.0829593
-0.0664869
-0.0476372
-0.028799
-0.0132284
-0.00415353
-0.00456089
-0.0171833
-0.0477298
-0.0497442
-0.0506193
-0.0509838
-0.0513257
-0.0519956
-0.0532984
-0.0554639
-0.0586397
-0.0628997
-0.0682456
-0.0745994
-0.0817918
-0.0895503
-0.0974905
-0.105115
-0.111822
-0.116923
-0.119677
-0.119295
-0.115082
-0.106448
-0.0930842
-0.0751904
-0.0538186
-0.0312715
-0.0111349
0.00241958
0.00478674
-0.0084473
-0.0545362
-0.0568686
-0.0574613
-0.057177
-0.0567148
-0.0565723
-0.0571572
-0.0587594
-0.061554
-0.0656214
-0.0709566
-0.0774671
-0.0849637
-0.0931496
-0.101613
-0.109826
-0.11715
-0.122854
-0.126139
-0.126171
-0.122141
-0.113347
-0.0992982
-0.079961
-0.0560962
-0.0297772
-0.00469425
0.0141652
0.0203575
0.00731176
-0.0619859
-0.0648316
-0.064897
-0.0635372
-0.0618316
-0.0604877
-0.0600353
-0.0608223
-0.0630388
-0.066755
-0.0719428
-0.0784821
-0.0861504
-0.0946165
-0.103434
-0.112038
-0.119749
-0.125788
-0.129301
-0.129391
-0.125152
-0.115807
-0.100661
-0.0795129
-0.052836
-0.0223959
0.00822194
0.0334005
0.0447505
0.0333523
-0.0706957
-0.0741842
-0.0732148
-0.0701026
-0.0665576
-0.0635507
-0.0617282
-0.0614711
-0.0629543
-0.0662109
-0.0711673
-0.0776542
-0.0854037
-0.0940404
-0.103074
-0.111892
-0.11977
-0.125874
-0.129285
-0.129032
-0.124104
-0.113587
-0.0966987
-0.0730223
-0.0427623
-0.00736466
0.029885
0.062946
0.0814499
0.0743824
-0.0820654
-0.0859255
-0.0828607
-0.0769303
-0.0707608
-0.0655731
-0.0620665
-0.060592
-0.0612561
-0.0640138
-0.0687163
-0.0751261
-0.0829142
-0.0916497
-0.10079
-0.109673
-0.117517
-0.123426
-0.126408
-0.125414
-0.119252
-0.106926
-0.0874783
-0.0602761
-0.0252922
0.0164539
0.0621952
0.105874
0.134998
0.137059
-0.0992542
-0.101828
-0.0944296
-0.0840387
-0.0742525
-0.0663406
-0.0608947
-0.0581189
-0.0579704
-0.060272
-0.0647661
-0.0711261
-0.078949
-0.087741
-0.0969032
-0.10572
-0.113351
-0.118836
-0.121091
-0.118943
-0.111152
-0.0964499
-0.0736776
-0.0419242
-0.000800943
0.0491505
0.105913
0.164704
0.210535
0.22991
-0.129358
-0.124921
-0.108661
-0.0913562
-0.0767251
-0.0655487
-0.0580111
-0.0539793
-0.0531457
-0.055133
-0.0595377
-0.0659262
-0.0738147
-0.082646
-0.0917672
-0.100413
-0.107692
-0.112583
-0.113938
-0.110513
-0.100771
-0.0833633
-0.0568151
-0.0197849
0.0287206
0.0890439
0.160555
0.239617
0.312052
0.364622
-0.188342
-0.158597
-0.125897
-0.0982994
-0.0773469
-0.062498
-0.0529787
-0.0479937
-0.046803
-0.048759
-0.0532881
-0.0598472
-0.0678797
-0.0767772
-0.085848
-0.0942916
-0.101181
-0.105446
-0.10587
-0.101078
-0.089704
-0.0698732
-0.0398258
0.00232825
0.0585668
0.130831
0.220922
0.328104
0.441744
0.56803
-0.319806
-0.198608
-0.13764
-0.0971376
-0.0701036
-0.0528376
-0.0428071
-0.0381414
-0.0375584
-0.0401774
-0.0453235
-0.0524052
-0.0608437
-0.0700219
-0.0792459
-0.0877158
-0.0945041
-0.0985363
-0.0985766
-0.093148
-0.080907
-0.0598634
-0.0279477
0.0172955
0.0790309
0.161638
0.271563
0.417262
0.605667
0.895219
-0.646998
-0.234959
-0.106167
-0.0621495
-0.0382868
-0.0249334
-0.0191291
-0.0182452
-0.0206828
-0.025634
-0.0325852
-0.041083
-0.0506546
-0.0607667
-0.0707922
-0.0799852
-0.0874637
-0.0921996
-0.0930276
-0.0886796
-0.0773271
-0.0573122
-0.0265418
0.0176526
0.0790172
0.163797
0.28442
0.469167
0.775355
1.36924
)
;

boundaryField
{
    movingWall
    {
        type            zeroGradient;
    }
    fixedWalls
    {
        type            zeroGradient;
    }
    frontAndBack
    {
        type            empty;
    }
}


// ************************************************************************* //
