/*--------------------------------*- C++ -*----------------------------------*\
  =========                 |
  \\      /  F ield         | OpenFOAM: The Open Source CFD Toolbox
   \\    /   O peration     | Website:  https://openfoam.org
    \\  /    A nd           | Version:  7
     \\/     M anipulation  |
\*---------------------------------------------------------------------------*/
FoamFile
{
    version     2.0;
    format      ascii;
    class       volVectorField;
    location    "5.3";
    object      U;
}
// * * * * * * * * * * * * * * * * * * * * * * * * * * * * * * * * * * * * * //

dimensions      [0 1 -1 0 0 0 0];

internalField   nonuniform List<vector> 
900
(
(0.000137705 -0.000136819 0)
(0.000224038 -4.55146e-05 0)
(-0.000103805 0.000104879 0)
(-0.000837928 0.000235598 0)
(-0.00188807 0.000328428 0)
(-0.00316169 0.000386667 0)
(-0.00457417 0.000418878 0)
(-0.0060564 0.000432407 0)
(-0.00755198 0.000431551 0)
(-0.00901085 0.000417674 0)
(-0.0103836 0.000389976 0)
(-0.0116177 0.000346456 0)
(-0.0126565 0.000284916 0)
(-0.0134405 0.000203939 0)
(-0.0139112 0.000103804 0)
(-0.0140172 -1.28259e-05 0)
(-0.0137213 -0.000140814 0)
(-0.0130081 -0.000271634 0)
(-0.0118914 -0.000394539 0)
(-0.0104188 -0.00049741 0)
(-0.00867224 -0.000568233 0)
(-0.00676527 -0.000596922 0)
(-0.00483421 -0.00057709 0)
(-0.00302558 -0.000507376 0)
(-0.00147925 -0.000392102 0)
(-0.000307774 -0.000242458 0)
(0.000403095 -7.97815e-05 0)
(0.000634265 7.95227e-05 0)
(0.000470177 0.000183753 0)
(0.000152715 0.000151494 0)
(5.23185e-05 -0.000229998 0)
(-0.00033355 0.000332019 0)
(-0.00167079 0.00107924 0)
(-0.00386055 0.00174047 0)
(-0.0067463 0.0022412 0)
(-0.0101459 0.0025786 0)
(-0.0138766 0.00277451 0)
(-0.0177731 0.00285251 0)
(-0.0216876 0.00282818 0)
(-0.0254823 0.00270731 0)
(-0.0290209 0.00248792 0)
(-0.0321636 0.002164 0)
(-0.0347666 0.00173004 0)
(-0.0366866 0.00118562 0)
(-0.0377898 0.000539358 0)
(-0.0379655 -0.000188103 0)
(-0.0371404 -0.000962209 0)
(-0.035294 -0.00173521 0)
(-0.0324732 -0.00244905 0)
(-0.028799 -0.00304065 0)
(-0.0244674 -0.00344929 0)
(-0.0197408 -0.00362535 0)
(-0.0149293 -0.00353888 0)
(-0.0103629 -0.00318644 0)
(-0.00635622 -0.00259519 0)
(-0.00316933 -0.00182575 0)
(-0.000974757 -0.000976636 0)
(0.000183179 -0.000166517 0)
(0.000445008 0.000412147 0)
(0.000191412 0.000467695 0)
(-0.000110199 0.00010098 0)
(-0.00116304 0.00168674 0)
(-0.00369121 0.00350673 0)
(-0.00738436 0.00510722 0)
(-0.0120082 0.00634401 0)
(-0.0173238 0.00719649 0)
(-0.0230843 0.00769518 0)
(-0.029057 0.00788026 0)
(-0.0350261 0.00778053 0)
(-0.0407844 0.00740747 0)
(-0.0461258 0.00675834 0)
(-0.0508416 0.00582401 0)
(-0.0547211 0.00459897 0)
(-0.0575593 0.00309145 0)
(-0.0591701 0.00133236 0)
(-0.059403 -0.000618382 0)
(-0.0581627 -0.00266855 0)
(-0.0554292 -0.00469666 0)
(-0.0512736 -0.00655864 0)
(-0.0458679 -0.00810063 0)
(-0.0394851 -0.00917632 0)
(-0.0324886 -0.00966708 0)
(-0.0253075 -0.00950202 0)
(-0.0184007 -0.00867477 0)
(-0.0122102 -0.00725419 0)
(-0.0071087 -0.00538895 0)
(-0.00334897 -0.00330798 0)
(-0.00101362 -0.00131513 0)
(2.57581e-05 0.000195891 0)
(0.000125824 0.000681968 0)
(-0.000277823 0.000913586 0)
(-0.00203351 0.00406904 0)
(-0.0058062 0.00730574 0)
(-0.0110161 0.010086 0)
(-0.0173229 0.0122276 0)
(-0.0244322 0.0137044 0)
(-0.0320463 0.0145586 0)
(-0.0398832 0.0148462 0)
(-0.0476775 0.0146074 0)
(-0.0551707 0.013858 0)
(-0.0621041 0.0125941 0)
(-0.0682158 0.0108048 0)
(-0.0732434 0.00848804 0)
(-0.0769342 0.00566737 0)
(-0.0790598 0.00240577 0)
(-0.0794364 -0.00118439 0)
(-0.0779465 -0.00493815 0)
(-0.0745615 -0.00864104 0)
(-0.0693605 -0.012042 0)
(-0.0625424 -0.0148745 0)
(-0.0544283 -0.0168846 0)
(-0.0454513 -0.0178649 0)
(-0.0361313 -0.0176888 0)
(-0.0270334 -0.0163399 0)
(-0.0187139 -0.013932 0)
(-0.011657 -0.0107173 0)
(-0.00621039 -0.00708246 0)
(-0.00252378 -0.00353726 0)
(-0.000523767 -0.000705917 0)
(3.86699e-05 0.000627474 0)
(-0.000432101 0.00219104 0)
(-0.00287171 0.00748134 0)
(-0.00787562 0.012468 0)
(-0.0145744 0.0166261 0)
(-0.0225068 0.0197881 0)
(-0.031319 0.0219494 0)
(-0.0406675 0.0231757 0)
(-0.0502327 0.0235419 0)
(-0.0597135 0.023099 0)
(-0.0688154 0.0218652 0)
(-0.0772415 0.0198342 0)
(-0.08469 0.0169932 0)
(-0.090858 0.0133452 0)
(-0.095452 0.00893206 0)
(-0.0982047 0.00385355 0)
(-0.0988958 -0.00171917 0)
(-0.0973756 -0.00753955 0)
(-0.0935901 -0.0132889 0)
(-0.0876041 -0.0185951 0)
(-0.0796174 -0.023061 0)
(-0.069973 -0.0263043 0)
(-0.0591519 -0.0280063 0)
(-0.0477498 -0.0279626 0)
(-0.036435 -0.0261301 0)
(-0.0258866 -0.0226597 0)
(-0.0167202 -0.01791 0)
(-0.00940772 -0.0124397 0)
(-0.0041998 -0.00698131 0)
(-0.00111327 -0.00240468 0)
(-4.47966e-05 0.000265812 0)
(-0.000570953 0.00390577 0)
(-0.0036541 0.0118895 0)
(-0.00983621 0.0189626 0)
(-0.0179635 0.0246903 0)
(-0.0274508 0.0289743 0)
(-0.037883 0.0318654 0)
(-0.0488751 0.0334705 0)
(-0.0600778 0.0338911 0)
(-0.0711661 0.0331904 0)
(-0.0818215 0.0313882 0)
(-0.0917214 0.0284734 0)
(-0.100535 0.024429 0)
(-0.107926 0.0192611 0)
(-0.113565 0.0130282 0)
(-0.117142 0.00586595 0)
(-0.118393 -0.0019956 0)
(-0.117119 -0.010226 0)
(-0.113219 -0.0183964 0)
(-0.106716 -0.0260024 0)
(-0.0977831 -0.0324983 0)
(-0.086757 -0.0373481 0)
(-0.0741468 -0.0400906 0)
(-0.0606154 -0.0404106 0)
(-0.0469401 -0.0382078 0)
(-0.0339445 -0.0336496 0)
(-0.022411 -0.0271953 0)
(-0.0129782 -0.0195862 0)
(-0.00603859 -0.011799 0)
(-0.00173167 -0.00497622 0)
(-0.000120544 -0.000403955 0)
(-0.000695936 0.00602331 0)
(-0.00437313 0.0172327 0)
(-0.0116557 0.0267195 0)
(-0.0211256 0.0342038 0)
(-0.0320792 0.0397076 0)
(-0.0440431 0.0433722 0)
(-0.0565958 0.0453671 0)
(-0.0693658 0.0458306 0)
(-0.0820137 0.0448423 0)
(-0.0942082 0.0424224 0)
(-0.105612 0.0385524 0)
(-0.115873 0.0332062 0)
(-0.12463 0.0263872 0)
(-0.131517 0.0181638 0)
(-0.136179 0.00869992 0)
(-0.138295 -0.00172216 0)
(-0.137602 -0.0126917 0)
(-0.133924 -0.0236703 0)
(-0.127213 -0.0340133 0)
(-0.117581 -0.0430079 0)
(-0.105329 -0.0499343 0)
(-0.0909682 -0.0541474 0)
(-0.0752185 -0.0551727 0)
(-0.0589726 -0.0528056 0)
(-0.0432265 -0.0471928 0)
(-0.0289746 -0.0388776 0)
(-0.0170777 -0.0287912 0)
(-0.00812259 -0.0181855 0)
(-0.00241035 -0.00851994 0)
(-0.000194508 -0.00139431 0)
(-0.000807883 0.00850734 0)
(-0.00502309 0.0234357 0)
(-0.0133099 0.035646 0)
(-0.0240135 0.0450682 0)
(-0.0363236 0.0518905 0)
(-0.0497153 0.0563793 0)
(-0.0637368 0.0587886 0)
(-0.0780024 0.059306 0)
(-0.0921673 0.058032 0)
(-0.105898 0.0549877 0)
(-0.11885 0.0501428 0)
(-0.130662 0.0434556 0)
(-0.140952 0.034917 0)
(-0.14932 0.0245934 0)
(-0.155362 0.0126632 0)
(-0.158691 -0.000553321 0)
(-0.158961 -0.0145735 0)
(-0.155899 -0.0287596 0)
(-0.149353 -0.0423225 0)
(-0.139335 -0.0543652 0)
(-0.126074 -0.0639503 0)
(-0.110049 -0.0701976 0)
(-0.0920144 -0.0724089 0)
(-0.0729769 -0.0702057 0)
(-0.0541297 -0.0636549 0)
(-0.0367307 -0.0533496 0)
(-0.0219318 -0.0404133 0)
(-0.0105832 -0.0264126 0)
(-0.00320251 -0.0131903 0)
(-0.000276791 -0.00274319 0)
(-0.000905963 0.0113188 0)
(-0.00559499 0.0304109 0)
(-0.0147713 0.0456298 0)
(-0.0265762 0.0571626 0)
(-0.0401079 0.0654051 0)
(-0.0547986 0.0707794 0)
(-0.0701741 0.0736459 0)
(-0.0858423 0.0742546 0)
(-0.101462 0.0727329 0)
(-0.116705 0.0691027 0)
(-0.131233 0.063318 0)
(-0.144682 0.0553128 0)
(-0.156656 0.0450532 0)
(-0.166728 0.0325875 0)
(-0.174445 0.0180898 0)
(-0.179346 0.00189807 0)
(-0.18099 -0.0154577 0)
(-0.178991 -0.0332492 0)
(-0.173058 -0.0505482 0)
(-0.163067 -0.0662623 0)
(-0.149124 -0.0792033 0)
(-0.131631 -0.0881984 0)
(-0.111336 -0.0922449 0)
(-0.0893406 -0.0906961 0)
(-0.0670467 -0.0834491 0)
(-0.0460255 -0.0710853 0)
(-0.027801 -0.0549092 0)
(-0.013578 -0.0368469 0)
(-0.00417215 -0.0192143 0)
(-0.000378985 -0.00452088 0)
(-0.000987961 0.014413 0)
(-0.00607599 0.0380558 0)
(-0.0160069 0.0565369 0)
(-0.0287548 0.070341 0)
(-0.0433431 0.0801051 0)
(-0.0591708 0.0864358 0)
(-0.0757492 0.0898198 0)
(-0.092687 0.0905825 0)
(-0.109654 0.0888849 0)
(-0.126337 0.084751 0)
(-0.142413 0.0781146 0)
(-0.157527 0.0688766 0)
(-0.171278 0.0569643 0)
(-0.18322 0.0423888 0)
(-0.192858 0.0252969 0)
(-0.199663 0.00601745 0)
(-0.203094 -0.014902 0)
(-0.202633 -0.0366638 0)
(-0.197832 -0.0582162 0)
(-0.188393 -0.0782709 0)
(-0.174247 -0.0953639 0)
(-0.155654 -0.107973 0)
(-0.133293 -0.114698 0)
(-0.108309 -0.114503 0)
(-0.0822997 -0.106986 0)
(-0.0571866 -0.0926124 0)
(-0.0349533 -0.0728268 0)
(-0.0172768 -0.0499557 0)
(-0.00538923 -0.0269002 0)
(-0.000513471 -0.00683379 0)
(-0.00105086 0.0177374 0)
(-0.00645087 0.0462506 0)
(-0.0169798 0.0682094 0)
(-0.0304842 0.084427 0)
(-0.0459305 0.0958099 0)
(-0.062693 0.103172 0)
(-0.080275 0.107145 0)
(-0.0982923 0.108143 0)
(-0.116432 0.106368 0)
(-0.134406 0.101848 0)
(-0.151914 0.0944937 0)
(-0.168621 0.0841654 0)
(-0.184137 0.0707372 0)
(-0.198009 0.0541631 0)
(-0.209717 0.0345368 0)
(-0.218674 0.0121472 0)
(-0.224249 -0.0124708 0)
(-0.225793 -0.0384892 0)
(-0.222692 -0.0647619 0)
(-0.214439 -0.0898213 0)
(-0.20074 -0.11192 0)
(-0.181639 -0.12914 0)
(-0.157651 -0.13959 0)
(-0.129881 -0.141702 0)
(-0.100063 -0.134597 0)
(-0.0704734 -0.118461 0)
(-0.0436392 -0.0947814 0)
(-0.0218522 -0.0663032 0)
(-0.00692784 -0.0366417 0)
(-0.000693624 -0.00982667 0)
(-0.0010915 0.0212308 0)
(-0.00670465 0.0548572 0)
(-0.0176541 0.080464 0)
(-0.0317011 0.0992131 0)
(-0.047771 0.112299 0)
(-0.0652209 0.120763 0)
(-0.0835506 0.125398 0)
(-0.102387 0.126718 0)
(-0.121441 0.124976 0)
(-0.140453 0.12021 0)
(-0.159157 0.112305 0)
(-0.177252 0.101075 0)
(-0.194372 0.0863293 0)
(-0.21008 0.0679477 0)
(-0.22385 0.0459458 0)
(-0.235065 0.0205408 0)
(-0.243027 -0.00778366 0)
(-0.246976 -0.0382143 0)
(-0.246136 -0.0695572 0)
(-0.239781 -0.100205 0)
(-0.227347 -0.128149 0)
(-0.208579 -0.151055 0)
(-0.183721 -0.166462 0)
(-0.153699 -0.172115 0)
(-0.120271 -0.166437 0)
(-0.0860165 -0.149087 0)
(-0.0540604 -0.12141 0)
(-0.0274696 -0.0865333 0)
(-0.00886531 -0.0489161 0)
(-0.000934386 -0.0136847 0)
(-0.00110739 0.0248241 0)
(-0.00682578 0.0637212 0)
(-0.0180019 0.0930947 0)
(-0.0323537 0.11446 0)
(-0.0487798 0.129312 0)
(-0.0666236 0.138931 0)
(-0.0853844 0.144285 0)
(-0.104702 0.146006 0)
(-0.124312 0.144404 0)
(-0.143992 0.139532 0)
(-0.163518 0.131257 0)
(-0.182633 0.119342 0)
(-0.201017 0.103526 0)
(-0.21827 0.0836004 0)
(-0.233892 0.0594834 0)
(-0.247271 0.0312913 0)
(-0.257682 -0.000584311 0)
(-0.264295 -0.0353966 0)
(-0.2662 -0.0719656 0)
(-0.262464 -0.108613 0)
(-0.252229 -0.143122 0)
(-0.234876 -0.172773 0)
(-0.210249 -0.194493 0)
(-0.178929 -0.205196 0)
(-0.14251 -0.202352 0)
(-0.103739 -0.184757 0)
(-0.0663288 -0.153299 0)
(-0.0342726 -0.111336 0)
(-0.0112808 -0.0642779 0)
(-0.00125296 -0.0186351 0)
(-0.00109751 0.0284432 0)
(-0.00681013 0.0726782 0)
(-0.0180119 0.105879 0)
(-0.0324158 0.129904 0)
(-0.0489037 0.146549 0)
(-0.0668069 0.157344 0)
(-0.0856234 0.163446 0)
(-0.105006 0.165613 0)
(-0.124716 0.164231 0)
(-0.144572 0.159375 0)
(-0.164398 0.150899 0)
(-0.183995 0.138522 0)
(-0.203107 0.12191 0)
(-0.221397 0.100763 0)
(-0.238426 0.0748862 0)
(-0.253633 0.0442742 0)
(-0.266318 0.00918967 0)
(-0.275636 -0.0297411 0)
(-0.280602 -0.0714241 0)
(-0.280115 -0.114204 0)
(-0.27304 -0.155759 0)
(-0.258351 -0.193063 0)
(-0.235381 -0.222455 0)
(-0.204177 -0.239929 0)
(-0.165915 -0.241743 0)
(-0.123267 -0.225407 0)
(-0.0804096 -0.190871 0)
(-0.0423618 -0.141393 0)
(-0.0142521 -0.0833428 0)
(-0.00166946 -0.0249488 0)
(-0.0010632 0.0320141 0)
(-0.0066652 0.0815636 0)
(-0.017699 0.118589 0)
(-0.0319014 0.145265 0)
(-0.0481427 0.163683 0)
(-0.0657395 0.175625 0)
(-0.0841866 0.182452 0)
(-0.103148 0.185063 0)
(-0.122412 0.18393 0)
(-0.141839 0.179167 0)
(-0.161309 0.170626 0)
(-0.180691 0.157989 0)
(-0.19981 0.140859 0)
(-0.218419 0.118846 0)
(-0.236175 0.0916428 0)
(-0.252616 0.0591077 0)
(-0.267127 0.0213484 0)
(-0.278915 -0.0211783 0)
(-0.286998 -0.0675426 0)
(-0.290189 -0.116223 0)
(-0.287122 -0.164931 0)
(-0.276379 -0.210481 0)
(-0.256716 -0.248737 0)
(-0.227461 -0.274773 0)
(-0.189086 -0.283434 0)
(-0.143831 -0.270477 0)
(-0.0960518 -0.234244 0)
(-0.0517638 -0.177288 0)
(-0.0178505 -0.10676 0)
(-0.00220748 -0.0329397 0)
(-0.00100911 0.0354706 0)
(-0.00641477 0.0902281 0)
(-0.0171145 0.131008 0)
(-0.0308812 0.160264 0)
(-0.0465704 0.180367 0)
(-0.0634795 0.193362 0)
(-0.0810971 0.200822 0)
(-0.099098 0.203803 0)
(-0.117299 0.20288 0)
(-0.135604 0.198222 0)
(-0.153955 0.189695 0)
(-0.1723 0.176958 0)
(-0.190559 0.159566 0)
(-0.208597 0.137051 0)
(-0.226202 0.109003 0)
(-0.243048 0.075145 0)
(-0.258666 0.0354189 0)
(-0.272388 -0.00992381 0)
(-0.283326 -0.0602051 0)
(-0.290306 -0.114131 0)
(-0.291835 -0.169616 0)
(-0.28617 -0.223524 0)
(-0.271495 -0.271454 0)
(-0.246307 -0.307695 0)
(-0.210084 -0.325604 0)
(-0.1642 -0.318754 0)
(-0.112713 -0.283054 0)
(-0.0623917 -0.219393 0)
(-0.0221322 -0.135165 0)
(-0.00289457 -0.0429611 0)
(-0.000944211 0.038764 0)
(-0.00610411 0.0985579 0)
(-0.0163572 0.142957 0)
(-0.0294982 0.174643 0)
(-0.0443549 0.196263 0)
(-0.0601981 0.210128 0)
(-0.0765105 0.218039 0)
(-0.0929805 0.22123 0)
(-0.109457 0.220395 0)
(-0.125895 0.215776 0)
(-0.142303 0.207269 0)
(-0.158717 0.194533 0)
(-0.175164 0.177092 0)
(-0.19164 0.15442 0)
(-0.208079 0.126023 0)
(-0.224332 0.0915033 0)
(-0.240115 0.0506373 0)
(-0.254969 0.00345466 0)
(-0.26817 -0.049657 0)
(-0.278656 -0.107744 0)
(-0.284959 -0.169089 0)
(-0.285151 -0.230847 0)
(-0.276937 -0.288658 0)
(-0.257969 -0.336314 0)
(-0.22653 -0.365811 0)
(-0.182665 -0.368265 0)
(-0.129497 -0.336274 0)
(-0.0740007 -0.26771 0)
(-0.0271299 -0.169118 0)
(-0.00376339 -0.0553996 0)
(-0.000883358 0.0418768 0)
(-0.00580647 0.106501 0)
(-0.0155869 0.154316 0)
(-0.0279856 0.188193 0)
(-0.0417765 0.211052 0)
(-0.056198 0.225496 0)
(-0.0707323 0.233575 0)
(-0.085092 0.236718 0)
(-0.0991704 0.235759 0)
(-0.112981 0.231028 0)
(-0.126612 0.222473 0)
(-0.140194 0.209772 0)
(-0.153868 0.192439 0)
(-0.167768 0.169918 0)
(-0.181995 0.141651 0)
(-0.196585 0.107145 0)
(-0.211473 0.0660268 0)
(-0.226437 0.0181093 0)
(-0.240995 -0.0365126 0)
(-0.254317 -0.0973132 0)
(-0.265092 -0.163079 0)
(-0.271394 -0.231502 0)
(-0.270645 -0.298619 0)
(-0.259778 -0.358169 0)
(-0.235822 -0.401164 0)
(-0.197126 -0.416278 0)
(-0.145134 -0.392059 0)
(-0.0861493 -0.321693 0)
(-0.0328457 -0.209012 0)
(-0.00485466 -0.0706655 0)
(-0.000849937 0.04484 0)
(-0.0056331 0.1141 0)
(-0.0150405 0.165066 0)
(-0.0266844 0.200774 0)
(-0.0392437 0.224464 0)
(-0.0519234 0.239063 0)
(-0.0642222 0.246907 0)
(-0.0759004 0.249641 0)
(-0.0869172 0.248256 0)
(-0.0973642 0.243189 0)
(-0.10742 0.234451 0)
(-0.117317 0.221758 0)
(-0.127319 0.204638 0)
(-0.137699 0.182526 0)
(-0.14872 0.154829 0)
(-0.16061 0.120985 0)
(-0.173522 0.0805024 0)
(-0.187485 0.0330041 0)
(-0.2023 -0.0217092 0)
(-0.217446 -0.0835449 0)
(-0.231902 -0.151882 0)
(-0.24395 -0.225146 0)
(-0.250995 -0.300132 0)
(-0.249523 -0.371071 0)
(-0.235456 -0.428625 0)
(-0.205261 -0.459452 0)
(-0.158009 -0.447683 0)
(-0.0981722 -0.380069 0)
(-0.0392514 -0.254966 0)
(-0.00622454 -0.0891867 0)
(-0.000881539 0.0477582 0)
(-0.0057506 0.121537 0)
(-0.0150573 0.175316 0)
(-0.0260661 0.212348 0)
(-0.0373049 0.236282 0)
(-0.0479585 0.250454 0)
(-0.0575792 0.257527 0)
(-0.0660169 0.25939 0)
(-0.0733322 0.257202 0)
(-0.0797221 0.251513 0)
(-0.0854719 0.24241 0)
(-0.0909264 0.229658 0)
(-0.09647 0.212815 0)
(-0.102511 0.191324 0)
(-0.109464 0.164582 0)
(-0.117731 0.131988 0)
(-0.127669 0.0929637 0)
(-0.139541 0.046982 0)
(-0.153436 -0.00641067 0)
(-0.169174 -0.0675355 0)
(-0.186121 -0.136359 0)
(-0.202951 -0.212146 0)
(-0.217352 -0.292751 0)
(-0.22575 -0.373453 0)
(-0.223322 -0.445401 0)
(-0.204755 -0.494123 0)
(-0.166255 -0.49959 0)
(-0.109172 -0.440677 0)
(-0.0462994 -0.3067 0)
(-0.0079603 -0.111412 0)
(-0.0010421 0.0508499 0)
(-0.00641279 0.129187 0)
(-0.0161175 0.18535 0)
(-0.0267586 0.222981 0)
(-0.0366519 0.246346 0)
(-0.0450058 0.259313 0)
(-0.0514957 0.264938 0)
(-0.0561275 0.265374 0)
(-0.0591163 0.261948 0)
(-0.0607991 0.255321 0)
(-0.0615882 0.245652 0)
(-0.0619477 0.232759 0)
(-0.0623798 0.216234 0)
(-0.0634145 0.195544 0)
(-0.0655985 0.17009 0)
(-0.0694795 0.139252 0)
(-0.0755823 0.102401 0)
(-0.0843736 0.0588995 0)
(-0.0962125 0.00809972 0)
(-0.111239 -0.0506426 0)
(-0.129234 -0.11783 0)
(-0.149411 -0.19356 0)
(-0.170013 -0.276897 0)
(-0.187847 -0.364636 0)
(-0.197895 -0.449335 0)
(-0.193493 -0.51669 0)
(-0.167851 -0.543578 0)
(-0.118013 -0.500368 0)
(-0.0539349 -0.363381 0)
(-0.0102079 -0.137836 0)
(-0.0014474 0.0545163 0)
(-0.00801869 0.137695 0)
(-0.0188982 0.195651 0)
(-0.02957 0.232838 0)
(-0.038097 0.25451 0)
(-0.0438174 0.265263 0)
(-0.0466492 0.268617 0)
(-0.0468519 0.266992 0)
(-0.0448634 0.261866 0)
(-0.0412021 0.253986 0)
(-0.0364268 0.243566 0)
(-0.0311234 0.230464 0)
(-0.0259027 0.214304 0)
(-0.0213967 0.194575 0)
(-0.0182557 0.170695 0)
(-0.0171393 0.14204 0)
(-0.0187015 0.107953 0)
(-0.0235677 0.0677295 0)
(-0.0323027 0.0205966 0)
(-0.0453406 -0.0343022 0)
(-0.0628774 -0.0978927 0)
(-0.0847102 -0.170968 0)
(-0.109831 -0.253789 0)
(-0.135838 -0.344926 0)
(-0.158187 -0.439185 0)
(-0.169607 -0.523997 0)
(-0.160658 -0.575073 0)
(-0.123272 -0.554951 0)
(-0.06208 -0.423431 0)
(-0.0132097 -0.169062 0)
(-0.00231663 0.0594666 0)
(-0.0112117 0.148077 0)
(-0.0243411 0.206901 0)
(-0.0354732 0.242111 0)
(-0.0424643 0.260554 0)
(-0.0450048 0.267815 0)
(-0.0434454 0.267933 0)
(-0.0384318 0.263569 0)
(-0.0307045 0.256296 0)
(-0.0210044 0.246892 0)
(-0.0100488 0.235588 0)
(0.00145954 0.222253 0)
(0.0128195 0.206529 0)
(0.0233239 0.187925 0)
(0.0322528 0.165871 0)
(0.0388721 0.139751 0)
(0.0424408 0.1089 0)
(0.0422205 0.0725917 0)
(0.0374883 0.0299925 0)
(0.0275668 -0.0198753 0)
(0.0119051 -0.0781869 0)
(-0.00986809 -0.146234 0)
(-0.0375784 -0.225222 0)
(-0.0699097 -0.315518 0)
(-0.103451 -0.414733 0)
(-0.131315 -0.513618 0)
(-0.142307 -0.589409 0)
(-0.123082 -0.599186 0)
(-0.0705124 -0.484231 0)
(-0.0173284 -0.20586 0)
(-0.00407129 0.0669497 0)
(-0.0170321 0.161819 0)
(-0.0336782 0.219888 0)
(-0.0454332 0.25082 0)
(-0.0502285 0.263962 0)
(-0.048525 0.266168 0)
(-0.0413901 0.261991 0)
(-0.0300175 0.254229 0)
(-0.0155309 0.244438 0)
(0.00107869 0.23334 0)
(0.0189364 0.221117 0)
(0.0372438 0.207608 0)
(0.0552417 0.192448 0)
(0.0721831 0.17515 0)
(0.0873155 0.155159 0)
(0.0998702 0.131871 0)
(0.109058 0.104636 0)
(0.114068 0.0727341 0)
(0.114061 0.0353349 0)
(0.108159 -0.00855763 0)
(0.0955097 -0.0602132 0)
(0.0752814 -0.121164 0)
(0.0468454 -0.193224 0)
(0.0102694 -0.278238 0)
(-0.0326568 -0.376721 0)
(-0.0765363 -0.484042 0)
(-0.109866 -0.582077 0)
(-0.114762 -0.626743 0)
(-0.0784899 -0.54162 0)
(-0.0229716 -0.249101 0)
(-0.00750694 0.0791732 0)
(-0.0270938 0.180912 0)
(-0.0482152 0.235162 0)
(-0.0597188 0.258348 0)
(-0.0604438 0.263485 0)
(-0.0523417 0.258852 0)
(-0.0375748 0.249343 0)
(-0.0180509 0.237669 0)
(0.00467145 0.225185 0)
(0.0293588 0.212421 0)
(0.0550161 0.199419 0)
(0.0807972 0.185938 0)
(0.105936 0.171573 0)
(0.129695 0.155829 0)
(0.151339 0.13816 0)
(0.170105 0.117987 0)
(0.185194 0.0946931 0)
(0.195758 0.0676002 0)
(0.200881 0.0359315 0)
(0.199514 -0.00124909 0)
(0.190589 -0.045123 0)
(0.172901 -0.0972429 0)
(0.145146 -0.159676 0)
(0.106252 -0.235175 0)
(0.0561389 -0.32672 0)
(-0.00230412 -0.434842 0)
(-0.0592245 -0.549047 0)
(-0.0940594 -0.630156 0)
(-0.0838952 -0.589089 0)
(-0.0302131 -0.299406 0)
(-0.0140061 0.0999763 0)
(-0.0435368 0.207478 0)
(-0.0681668 0.25208 0)
(-0.0756706 0.262446 0)
(-0.0678296 0.256313 0)
(-0.0491585 0.243111 0)
(-0.0232921 0.227575 0)
(0.00707867 0.211914 0)
(0.0400223 0.196993 0)
(0.0741703 0.182974 0)
(0.108522 0.169658 0)
(0.14229 0.156663 0)
(0.174792 0.143518 0)
(0.20538 0.12971 0)
(0.233398 0.114712 0)
(0.258145 0.0979829 0)
(0.27886 0.0789645 0)
(0.294694 0.0570589 0)
(0.30469 0.031596 0)
(0.307712 0.00177945 0)
(0.302526 -0.0334103 0)
(0.287623 -0.0753328 0)
(0.26124 -0.125952 0)
(0.221416 -0.188277 0)
(0.166355 -0.266827 0)
(0.0958815 -0.366792 0)
(0.0159274 -0.487334 0)
(-0.0537142 -0.600963 0)
(-0.0817261 -0.616957 0)
(-0.0378017 -0.357018 0)
(-0.0253924 0.135814 0)
(-0.0674464 0.241516 0)
(-0.088007 0.26593 0)
(-0.0811101 0.256848 0)
(-0.0555503 0.236457 0)
(-0.0193665 0.213976 0)
(0.0224294 0.192896 0)
(0.0667295 0.17425 0)
(0.111624 0.158046 0)
(0.155951 0.143897 0)
(0.198976 0.131282 0)
(0.240173 0.11965 0)
(0.279101 0.108464 0)
(0.315319 0.0972068 0)
(0.348337 0.0853894 0)
(0.377592 0.0725392 0)
(0.402417 0.0581887 0)
(0.422027 0.0418548 0)
(0.435496 0.0230104 0)
(0.441618 0.00103432 0)
(0.439127 -0.0247459 0)
(0.426368 -0.0554407 0)
(0.401286 -0.0926558 0)
(0.361362 -0.139051 0)
(0.303519 -0.199413 0)
(0.224626 -0.281844 0)
(0.125313 -0.395214 0)
(0.0188871 -0.530559 0)
(-0.0619077 -0.61182 0)
(-0.0410864 -0.421126 0)
(-0.0411506 0.197954 0)
(-0.0899589 0.27348 0)
(-0.0798444 0.259487 0)
(-0.0369 0.22579 0)
(0.0199238 0.192137 0)
(0.0810028 0.163456 0)
(0.141876 0.140311 0)
(0.200458 0.121899 0)
(0.255872 0.107154 0)
(0.307841 0.0951181 0)
(0.356335 0.0850014 0)
(0.401378 0.0761552 0)
(0.442952 0.0680395 0)
(0.480946 0.0601958 0)
(0.51513 0.0522247 0)
(0.545142 0.043768 0)
(0.570474 0.0344919 0)
(0.590464 0.024069 0)
(0.604265 0.0121526 0)
(0.610884 -0.00167799 0)
(0.609067 -0.0177577 0)
(0.597068 -0.0368153 0)
(0.572892 -0.0599205 0)
(0.533846 -0.0889528 0)
(0.47618 -0.127715 0)
(0.394606 -0.184311 0)
(0.283882 -0.273923 0)
(0.145043 -0.410601 0)
(-0.00390714 -0.553871 0)
(-0.0255233 -0.477311 0)
(-0.0339587 0.294107 0)
(-0.0474022 0.273202 0)
(0.0544856 0.199947 0)
(0.157529 0.149717 0)
(0.250007 0.114497 0)
(0.331449 0.0892729 0)
(0.402869 0.071401 0)
(0.465561 0.0586698 0)
(0.520905 0.0493681 0)
(0.570135 0.0423304 0)
(0.614214 0.0367805 0)
(0.653826 0.0321803 0)
(0.689408 0.0281383 0)
(0.721179 0.0243575 0)
(0.749166 0.0206027 0)
(0.773217 0.01668 0)
(0.793016 0.0124213 0)
(0.80809 0.00767612 0)
(0.817753 0.00229861 0)
(0.821313 -0.00379145 0)
(0.817742 -0.0109356 0)
(0.805633 -0.0193644 0)
(0.783324 -0.0295247 0)
(0.748462 -0.042329 0)
(0.697425 -0.0597978 0)
(0.624121 -0.0869792 0)
(0.518335 -0.137354 0)
(0.364956 -0.240422 0)
(0.14398 -0.407021 0)
(0.0588121 -0.458305 0)
(0.303304 0.180966 0)
(0.382758 0.144408 0)
(0.561243 0.0912595 0)
(0.687178 0.0590423 0)
(0.769812 0.0393194 0)
(0.829172 0.0267488 0)
(0.874665 0.0187856 0)
(0.910728 0.0137599 0)
(0.940144 0.0105241 0)
(0.964793 0.00835854 0)
(0.985878 0.00683142 0)
(1.00414 0.00567911 0)
(1.02002 0.00473463 0)
(1.03375 0.00388787 0)
(1.0454 0.00306283 0)
(1.05493 0.00220416 0)
(1.06218 0.00126851 0)
(1.06694 0.000224019 0)
(1.0689 -0.000963086 0)
(1.06766 -0.0022207 0)
(1.06267 -0.00373849 0)
(1.0534 -0.00553816 0)
(1.03904 -0.007688 0)
(1.01839 -0.0103911 0)
(0.989384 -0.0141401 0)
(0.947931 -0.020271 0)
(0.884259 -0.0326675 0)
(0.776486 -0.0638246 0)
(0.544854 -0.139504 0)
(0.38249 -0.201753 0)
)
;

boundaryField
{
    movingWall
    {
        type            fixedValue;
        value           uniform (1.2 0 0);
    }
    fixedWalls
    {
        type            noSlip;
    }
    frontAndBack
    {
        type            empty;
    }
}


// ************************************************************************* //
