/*--------------------------------*- C++ -*----------------------------------*\
  =========                 |
  \\      /  F ield         | OpenFOAM: The Open Source CFD Toolbox
   \\    /   O peration     | Website:  https://openfoam.org
    \\  /    A nd           | Version:  7
     \\/     M anipulation  |
\*---------------------------------------------------------------------------*/
FoamFile
{
    version     2.0;
    format      ascii;
    class       surfaceScalarField;
    location    "2.8";
    object      phi;
}
// * * * * * * * * * * * * * * * * * * * * * * * * * * * * * * * * * * * * * //

dimensions      [0 3 -1 0 0 0 0];

internalField   nonuniform List<scalar> 
1740
(
4.16445e-07
-4.16438e-07
-1.36282e-07
5.52722e-07
-1.82438e-06
1.6881e-06
-4.4697e-06
2.64532e-06
-7.798e-06
3.32829e-06
-1.15519e-05
3.7539e-06
-1.55191e-05
3.9672e-06
-1.95303e-05
4.0112e-06
-2.3447e-05
3.91665e-06
-2.71478e-05
3.70088e-06
-3.05181e-05
3.37024e-06
-3.34419e-05
2.92388e-06
-3.58003e-05
2.35834e-06
-3.74726e-05
1.67232e-06
-3.8344e-05
8.71384e-07
-3.83155e-05
-2.84969e-08
-3.73183e-05
-9.97153e-07
-3.53291e-05
-1.9892e-06
-3.23848e-05
-2.94436e-06
-2.85928e-05
-3.79199e-06
-2.41358e-05
-4.45694e-06
-1.92675e-05
-4.86835e-06
-1.42978e-05
-4.96964e-06
-9.56997e-06
-4.72786e-06
-5.42907e-06
-4.14091e-06
-2.18697e-06
-3.2421e-06
-7.64217e-08
-2.11056e-06
8.34953e-07
-9.11378e-07
6.49867e-07
1.85084e-07
6.49866e-07
-5.42665e-07
1.26224e-07
-3.28361e-06
3.29366e-06
-8.41997e-06
6.82445e-06
-1.55747e-05
9.80006e-06
-2.42451e-05
1.19987e-05
-3.39116e-05
1.34204e-05
-4.4098e-05
1.41536e-05
-5.43884e-05
1.43016e-05
-6.44195e-05
1.39477e-05
-7.38629e-05
1.31443e-05
-8.24088e-05
1.19162e-05
-8.97546e-05
1.02697e-05
-9.56016e-05
8.20529e-06
-9.96613e-05
5.73202e-06
-0.000101671
2.88099e-06
-0.000101421
-2.78439e-07
-9.8772e-05
-3.64612e-06
-9.37033e-05
-7.05789e-06
-8.63302e-05
-1.03174e-05
-7.69274e-05
-1.31948e-05
-6.59347e-05
-1.54497e-05
-5.39446e-05
-1.68584e-05
-4.16688e-05
-1.72455e-05
-2.98831e-05
-1.65136e-05
-1.93551e-05
-1.46689e-05
-1.07571e-05
-1.18402e-05
-4.56836e-06
-8.29926e-06
-9.93092e-07
-4.48665e-06
2.40547e-07
-1.04856e-06
8.90411e-07
-1.75484e-06
1.88107e-06
-7.09039e-06
8.62922e-06
-1.56893e-05
1.54233e-05
-2.69913e-05
2.11021e-05
-4.03171e-05
2.53245e-05
-5.49755e-05
2.80787e-05
-7.0318e-05
2.94961e-05
-8.57584e-05
2.9742e-05
-0.000100768
2.8957e-05
-0.000114859
2.72355e-05
-0.00012757
2.46275e-05
-0.000138454
2.11534e-05
-0.000147075
1.68264e-05
-0.000153021
1.16784e-05
-0.000155926
5.78552e-06
-0.000155498
-7.06954e-07
-0.000151558
-7.58552e-06
-0.000144088
-1.45276e-05
-0.000133262
-2.11435e-05
-0.000119473
-2.69842e-05
-0.00010334
-3.15821e-05
-8.56951e-05
-3.45037e-05
-6.75309e-05
-3.54097e-05
-4.993e-05
-3.41144e-05
-3.39621e-05
-3.06368e-05
-2.05655e-05
-2.52368e-05
-1.04223e-05
-1.84425e-05
-3.83676e-06
-1.10722e-05
-6.20846e-07
-4.26447e-06
2.69564e-07
-2.93011e-06
4.81117e-06
-1.07968e-05
1.64959e-05
-2.2756e-05
2.73826e-05
-3.79447e-05
3.62907e-05
-5.54922e-05
4.2872e-05
-7.45621e-05
4.71487e-05
-9.43797e-05
4.93136e-05
-0.000114239
4.96014e-05
-0.000133495
4.82128e-05
-0.000151545
4.52861e-05
-0.000167816
4.08982e-05
-0.000181749
3.50866e-05
-0.000192804
2.7881e-05
-0.000200469
1.93431e-05
-0.000204288
9.60457e-06
-0.000203898
-1.09652e-06
-0.000199072
-1.24116e-05
-0.000189773
-2.38267e-05
-0.000176197
-3.47195e-05
-0.000158807
-4.4374e-05
-0.000138347
-5.20422e-05
-0.000115824
-5.70269e-05
-9.24562e-05
-5.87773e-05
-6.95842e-05
-5.69864e-05
-4.8547e-05
-5.16741e-05
-3.05376e-05
-4.32462e-05
-1.64559e-05
-3.25242e-05
-6.77929e-06
-2.07488e-05
-1.47237e-06
-9.5714e-06
-1.2028e-06
-3.97969e-06
8.79086e-06
-1.42163e-05
2.67325e-05
-2.93467e-05
4.2513e-05
-4.81761e-05
5.51201e-05
-6.96233e-05
6.43192e-05
-9.27118e-05
7.02372e-05
-0.000116563
7.31652e-05
-0.000140385
7.34235e-05
-0.000163453
7.12798e-05
-0.000185084
6.69173e-05
-0.000204624
6.04388e-05
-0.000221433
5.18955e-05
-0.000234883
4.13308e-05
-0.000244373
2.88331e-05
-0.000249358
1.45896e-05
-0.000249395
-1.05922e-06
-0.00024417
-1.76367e-05
-0.000233595
-3.44021e-05
-0.00021784
-5.04749e-05
-0.000197385
-6.48283e-05
-0.00017305
-7.63774e-05
-0.000145981
-8.40961e-05
-0.000117602
-8.71566e-05
-8.95133e-05
-8.50746e-05
-6.33497e-05
-7.78377e-05
-4.06038e-05
-6.59921e-05
-2.24516e-05
-5.06764e-05
-9.60609e-06
-3.35942e-05
-2.23607e-06
-1.69414e-05
-3.43887e-06
-4.90709e-06
1.3698e-05
-1.73217e-05
3.91471e-05
-3.54098e-05
6.06011e-05
-5.76482e-05
7.73584e-05
-8.27416e-05
8.94126e-05
-0.000109577
9.70723e-05
-0.000137186
0.000100774
-0.000164713
0.00010095
-0.00019138
9.79467e-05
-0.000216456
9.19934e-05
-0.000239232
8.32148e-05
-0.000259004
7.16676e-05
-0.00027507
5.7397e-05
-0.000286741
4.05038e-05
-0.000293362
2.1211e-05
-0.000294405
-1.60564e-08
-0.000289393
-2.26486e-05
-0.000278154
-4.5641e-05
-0.000260765
-6.7864e-05
-0.000237664
-8.79295e-05
-0.000209693
-0.000104348
-0.000178111
-0.000115678
-0.000144549
-0.000120719
-0.000110904
-0.000118719
-7.91733e-05
-0.000109569
-5.12375e-05
-9.3928e-05
-2.86412e-05
-7.32727e-05
-1.24063e-05
-4.98291e-05
-2.93014e-06
-2.64176e-05
-6.369e-06
-5.73647e-06
1.94344e-05
-2.01489e-05
5.35596e-05
-4.09886e-05
8.14408e-05
-6.64265e-05
0.000102796
-9.49615e-05
0.000117948
-0.000125352
0.000127462
-0.000156553
0.000131976
-0.000187666
0.000132063
-0.000217884
0.000128164
-0.00024645
0.00012056
-0.000272625
0.000109389
-0.000295658
9.47008e-05
-0.000314781
7.65197e-05
-0.000329211
5.49336e-05
-0.000338181
3.01814e-05
-0.000340943
2.74625e-06
-0.000336958
-2.66341e-05
-0.000325803
-5.67954e-05
-0.000307402
-8.62656e-05
-0.000282073
-0.000113259
-0.000250622
-0.000135799
-0.000214384
-0.000151916
-0.000175204
-0.000159899
-0.000135331
-0.000158592
-9.72228e-05
-0.000147677
-6.32768e-05
-0.000127874
-3.55371e-05
-0.000101012
-1.54349e-05
-6.99313e-05
-3.63482e-06
-3.82176e-05
-1.00038e-05
-6.49116e-06
2.59256e-05
-2.27471e-05
6.98155e-05
-4.61543e-05
0.000104848
-7.46062e-05
0.000131248
-0.000106413
0.000149755
-0.000140218
0.000161268
-0.000174917
0.000166675
-0.000209586
0.000166732
-0.000243411
0.00016199
-0.000275636
0.000152785
-0.000305511
0.000139264
-0.000332257
0.000121447
-0.000355044
9.93069e-05
-0.00037299
7.28796e-05
-0.000385176
4.23677e-05
-0.000390685
8.25492e-06
-0.0003887
-2.86184e-05
-0.000378564
-6.69316e-05
-0.000359933
-0.000104897
-0.000332908
-0.000140283
-0.000298172
-0.000170535
-0.000257081
-0.000193007
-0.000211685
-0.000205294
-0.000164641
-0.000205636
-0.00011899
-0.000193329
-7.78124e-05
-0.000169051
-4.38337e-05
-0.000134991
-1.90444e-05
-9.47207e-05
-4.45716e-06
-5.28049e-05
-1.4461e-05
-7.18763e-06
3.31132e-05
-2.51567e-05
8.77846e-05
-5.09687e-05
0.00013066
-8.22686e-05
0.000162548
-0.000117198
0.000184684
-0.000154302
0.000198372
-0.000192435
0.000204808
-0.000230668
0.000204965
-0.000268208
0.000199529
-0.000304321
0.000188898
-0.000338271
0.000173215
-0.00036927
0.000152445
-0.000396439
0.000126475
-0.000418792
9.52325e-05
-0.000435245
5.88205e-05
-0.00044465
1.76605e-05
-0.000445883
-2.73858e-05
-0.000437936
-7.4878e-05
-0.000420098
-0.000122736
-0.000392131
-0.00016825
-0.000354476
-0.000208191
-0.000308414
-0.000239069
-0.000256164
-0.000257544
-0.000200827
-0.000260974
-0.00014615
-0.000248006
-9.61081e-05
-0.000219093
-5.43499e-05
-0.000176749
-2.36496e-05
-0.000125421
-5.51815e-06
-7.09364e-05
-1.99791e-05
-7.83496e-06
4.09482e-05
-2.74022e-05
0.000107352
-5.547e-05
0.000158728
-8.94597e-05
0.000196538
-0.000127364
0.000222588
-0.000167648
0.000238656
-0.000209144
0.000246304
-0.000250942
0.000246762
-0.000292291
0.000240879
-0.000332511
0.000229117
-0.000370906
0.00021161
-0.000406702
0.000188241
-0.000438988
0.000158762
-0.000466684
0.000122929
-0.000488531
8.06673e-05
-0.000503117
3.22467e-05
-0.000508961
-2.15422e-05
-0.000504615
-7.92234e-05
-0.000488884
-0.000138467
-0.000461049
-0.000196085
-0.00042115
-0.00024809
-0.000370254
-0.000289965
-0.000310645
-0.000317153
-0.000245855
-0.000325764
-0.000180452
-0.000313409
-0.000119535
-0.00028001
-6.79948e-05
-0.00022829
-2.97136e-05
-0.000163702
-6.95043e-06
-9.36996e-05
-2.69296e-05
-8.43617e-06
4.93844e-05
-2.9493e-05
0.000128409
-5.96703e-05
0.000188905
-9.61848e-05
0.000233052
-0.000136897
0.0002633
-0.000180208
0.000281968
-0.000224946
0.000291042
-0.000270243
0.000292059
-0.000315418
0.000286053
-0.000359869
0.000273568
-0.000402975
0.000254716
-0.000444004
0.000229271
-0.000482043
0.0001968
-0.000515936
0.000156822
-0.000544259
0.00010899
-0.000565325
5.33131e-05
-0.000577266
-9.6013e-06
-0.000578123
-7.83665e-05
-0.000566109
-0.000150481
-0.000539872
-0.000222322
-0.000498864
-0.000289098
-0.000443726
-0.000345103
-0.000376626
-0.000384254
-0.000301428
-0.000400961
-0.000223566
-0.000391271
-0.000149494
-0.000354081
-8.57388e-05
-0.000292045
-3.77421e-05
-0.000211699
-8.8995e-06
-0.000122542
-3.58291e-05
-8.99022e-06
5.83746e-05
-3.14273e-05
0.000150846
-6.35608e-05
0.000221039
-0.000102414
0.000271906
-0.000145726
0.000306611
-0.000191845
0.000328087
-0.000239612
0.000338809
-0.000288218
0.000340665
-0.000337077
0.000334912
-0.000385697
0.000322188
-0.00043356
0.000302579
-0.000480017
0.000275728
-0.000524186
0.00024097
-0.000564878
0.000197513
-0.000600534
0.000144647
-0.00062922
8.19987e-05
-0.000648667
9.84608e-06
-0.0006564
-7.06338e-05
-0.000649951
-0.00015693
-0.000627198
-0.000245075
-0.000586797
-0.000329499
-0.000528696
-0.000403204
-0.000454655
-0.000458294
-0.000368636
-0.00048698
-0.000276857
-0.00048305
-0.000187303
-0.000443635
-0.000108575
-0.000370773
-4.82797e-05
-0.000271994
-1.15267e-05
-0.000159295
-4.73558e-05
-9.4949e-06
6.78695e-05
-3.31999e-05
0.000174551
-6.71247e-05
0.000254963
-0.000108101
0.000312882
-0.000153743
0.000352254
-0.000202355
0.000376699
-0.000252797
0.000389251
-0.000304338
0.000392206
-0.000356505
0.000387079
-0.000408941
0.000374623
-0.000461265
0.000354903
-0.000512949
0.000327411
-0.000563193
0.000291214
-0.000610826
0.000245146
-0.000654221
0.000188042
-0.000691259
0.000119036
-0.000719329
3.79159e-05
-0.000735469
-5.4493e-05
-0.000736519
-0.00015588
-0.000719495
-0.000262099
-0.000682063
-0.000366931
-0.00062317
-0.000462097
-0.000543767
-0.000537697
-0.000447494
-0.000583253
-0.000341069
-0.000589475
-0.000234021
-0.000550683
-0.000137454
-0.000467341
-6.19e-05
-0.000347547
-1.50131e-05
-0.000206182
-6.23689e-05
-9.95092e-06
7.78204e-05
-3.48145e-05
0.000199414
-7.03572e-05
0.000290506
-0.000113203
0.000355728
-0.000160834
0.000399884
-0.000211502
0.000427367
-0.000264089
0.000441839
-0.00031795
0.000446067
-0.000372738
0.000441868
-0.000428253
0.000430137
-0.000484277
0.000410928
-0.000540443
0.000383576
-0.000596086
0.000346858
-0.000650128
0.000299188
-0.000700967
0.000238881
-0.000746406
0.000164475
-0.000783632
7.51416e-05
-0.000809281
-2.88434e-05
-0.000819594
-0.000145567
-0.000810723
-0.000270969
-0.000779214
-0.00039844
-0.000722709
-0.000518602
-0.000640862
-0.000619544
-0.000536376
-0.00068774
-0.000415886
-0.000709965
-0.00029019
-0.000676378
-0.000173176
-0.000584355
-7.91845e-05
-0.000441539
-1.95624e-05
-0.000265804
-8.19313e-05
-1.03673e-05
8.81878e-05
-3.62994e-05
0.000225346
-7.32929e-05
0.0003275
-0.000117729
0.000400164
-0.000166928
0.000449083
-0.000219073
0.000479512
-0.000273067
0.000495833
-0.000328348
0.000501348
-0.000384704
0.000498225
-0.000442099
0.000487532
-0.000500502
0.000469332
-0.000559739
0.000442813
-0.000619339
0.000406458
-0.0006784
0.000358249
-0.000735462
0.000295943
-0.00078841
0.000217423
-0.00083441
0.000121141
-0.000869906
6.6529e-06
-0.000890728
-0.000124745
-0.000892292
-0.000269406
-0.000870016
-0.000420716
-0.000820015
-0.000568603
-0.000740145
-0.000699414
-0.000631388
-0.000796497
-0.000499377
-0.000841976
-0.000355449
-0.000820306
-0.00021621
-0.000723594
-0.000100674
-0.000557075
-2.5401e-05
-0.000341077
-0.000107332
-1.0769e-05
9.89568e-05
-3.77291e-05
0.000252306
-7.6042e-05
0.000365812
-0.000121778
0.000445901
-0.000172051
0.000499355
-0.000224951
0.000532413
-0.000279389
0.00055027
-0.000334883
0.000556841
-0.000391353
0.000554695
-0.000448931
0.00054511
-0.000507785
0.000528186
-0.00056796
0.000502988
-0.00062923
0.000467728
-0.000690958
0.000419977
-0.00075196
0.000356945
-0.000810385
0.000275849
-0.000863619
0.000174375
-0.000908206
5.12404e-05
-0.000939856
-9.30948e-05
-0.00095354
-0.000255722
-0.000943717
-0.000430539
-0.000904929
-0.000607391
-0.000832834
-0.000771509
-0.00072586
-0.000903472
-0.000587404
-0.000980431
-0.000428049
-0.000979661
-0.000266416
-0.000885227
-0.000126782
-0.000696708
-3.27705e-05
-0.000435089
-0.000140103
-1.12067e-05
0.000110163
-3.9253e-05
0.000280353
-7.88355e-05
0.000405395
-0.000125604
0.00049267
-0.000176399
0.00055015
-0.000229191
0.000585204
-0.000282884
0.000603964
-0.000337074
0.000611032
-0.000391812
0.000609433
-0.000447395
0.000600693
-0.000504189
0.00058498
-0.00056248
0.000561279
-0.000622328
0.000527576
-0.000683441
0.000481089
-0.000745041
0.000418545
-0.000805738
0.000336545
-0.000863396
0.000232033
-0.000915002
0.000102847
-0.000956478
-5.16189e-05
-0.000982872
-0.000229328
-0.000988018
-0.000425394
-0.000965089
-0.00063032
-0.000907415
-0.000829183
-0.000810173
-0.00100071
-0.000673152
-0.00111745
-0.000504308
-0.00114851
-0.000322673
-0.00106686
-0.000157656
-0.000861726
-4.19123e-05
-0.000550832
-0.000182015
-1.17718e-05
0.000121935
-4.1133e-05
0.000309714
-8.2082e-05
0.000446344
-0.000129679
0.000540267
-0.000180408
0.000600879
-0.000232093
0.00063689
-0.000283639
0.000655509
-0.000334725
0.000662118
-0.000385535
0.000660243
-0.000436531
0.000651689
-0.000488281
0.000636729
-0.000541315
0.000614313
-0.000596014
0.000582275
-0.000652492
0.000537567
-0.000710487
0.00047654
-0.000769235
0.000395293
-0.000827322
0.000290121
-0.000882556
0.000158081
-0.000931323
-2.85199e-06
-0.000969526
-0.000191125
-0.000990751
-0.000404168
-0.000987378
-0.000633694
-0.000950667
-0.000865894
-0.000872237
-0.00107914
-0.00074705
-0.00124264
-0.000578199
-0.00131736
-0.000382472
-0.00126259
-0.000192992
-0.00105121
-5.30456e-05
-0.000690779
-0.000235061
-1.26186e-05
0.000134554
-4.37973e-05
0.000340893
-8.6438e-05
0.000488985
-0.000134765
0.000588594
-0.000184814
0.000650928
-0.000234265
0.00068634
-0.000282053
0.000703297
-0.000327982
0.000708046
-0.000372391
0.000704652
-0.000415918
0.000695217
-0.000459334
0.000680146
-0.000503425
0.000658404
-0.000548904
0.000627753
-0.000596329
0.000584993
-0.000646023
0.000526234
-0.000697962
0.000447232
-0.000751629
0.000343787
-0.000805759
0.000212211
-0.000858421
4.98099e-05
-0.000905546
-0.000144
-0.000942
-0.000367714
-0.000960011
-0.000615683
-0.000949481
-0.000876424
-0.000898769
-0.00112985
-0.000797345
-0.00134406
-0.000641277
-0.00147342
-0.000441563
-0.0014623
-0.000231835
-0.00126093
-6.63516e-05
-0.000856262
-0.000301412
-1.4003e-05
0.000148557
-4.7919e-05
0.000374809
-9.28955e-05
0.000533961
-0.000141981
0.000637679
-0.00019069
0.000699637
-0.000236611
0.000732261
-0.000278811
0.000745497
-0.000317298
0.000746533
-0.000352627
0.000739982
-0.000385648
0.000728237
-0.000417348
0.000711846
-0.000448775
0.000689831
-0.00048098
0.000659957
-0.000514976
0.00061899
-0.000551694
0.000562952
-0.000591895
0.000487433
-0.000636043
0.000387935
-0.0006841
0.000260268
-0.000735277
0.000100987
-0.000787253
-9.20241e-05
-0.000836019
-0.000318947
-0.00087473
-0.000576972
-0.00089309
-0.000858064
-0.000877237
-0.00114571
-0.000811405
-0.0014099
-0.000683158
-0.00160167
-0.000493827
-0.00165164
-0.000272384
-0.00148238
-8.19809e-05
-0.00104666
-0.000383393
-1.63505e-05
0.000164907
-5.45364e-05
0.000412995
-0.00010289
0.000582315
-0.000152851
0.00068764
-0.000199407
0.000746193
-0.000240228
0.000773082
-0.000274702
0.000779972
-0.0003032
0.000775032
-0.000326601
0.000763382
-0.000346026
0.000747662
-0.000362716
0.000728536
-0.000377985
0.0007051
-0.000393216
0.000675188
-0.000409859
0.000635632
-0.00042942
0.000582512
-0.000453412
0.000511425
-0.000483256
0.00041778
-0.000520101
0.000297114
-0.000564529
0.000145415
-0.000615991
-4.05629e-05
-0.000672268
-0.00026267
-0.000728299
-0.000520941
-0.000774967
-0.000811397
-0.000797883
-0.00112279
-0.000777439
-0.00143034
-0.000692511
-0.0016866
-0.000531449
-0.0018127
-0.000311847
-0.00170198
-0.000100095
-0.00125842
-0.000483488
-2.03836e-05
0.000185291
-6.52387e-05
0.00045785
-0.000118414
0.00063549
-0.000169266
0.000738492
-0.000212438
0.000789365
-0.000246046
0.00080669
-0.000270139
0.000804064
-0.000285699
0.000790592
-0.00029409
0.000771773
-0.0002968
0.000750371
-0.000295363
0.0007271
-0.000291373
0.000701109
-0.000286516
0.000670332
-0.000282629
0.000631745
-0.000281713
0.000581596
-0.000285929
0.000515641
-0.000297531
0.000429382
-0.000318722
0.000318305
-0.000351411
0.000178103
-0.000396762
4.78815e-06
-0.000454619
-0.000204813
-0.000522383
-0.000453176
-0.000593439
-0.000740341
-0.00065496
-0.00106127
-0.000685967
-0.00139933
-0.000658206
-0.00171436
-0.000545307
-0.0019256
-0.000346289
-0.001901
-0.000120915
-0.00148379
-0.000604404
-2.73608e-05
0.000212652
-8.24325e-05
0.000512921
-0.000142058
0.000695116
-0.000193207
0.000789641
-0.000230755
0.000826913
-0.000253955
0.00082989
-0.000264053
0.000814163
-0.000262998
0.000789537
-0.000252845
0.00076162
-0.00023556
0.000733087
-0.000213017
0.000704557
-0.000187074
0.000675166
-0.000159677
0.000642934
-0.000132956
0.000605024
-0.000109286
0.000557926
-9.13147e-05
0.00049767
-8.19327e-05
0.00042
-8.41772e-05
0.000320549
-0.000101051
0.000194977
-0.000135293
3.903e-05
-0.000188686
-0.00015142
-0.000261447
-0.000380415
-0.00035043
-0.000651358
-0.000446411
-0.00096529
-0.000530258
-0.00131549
-0.000569965
-0.00167465
-0.000525198
-0.00197036
-0.000370301
-0.00205589
-0.000144638
-0.00170945
-0.000749042
-3.95106e-05
0.000252162
-0.000109639
0.000583049
-0.000176721
0.000762198
-0.000225753
0.000838673
-0.000253233
0.000854393
-0.000260732
0.00083739
-0.000251468
0.000804899
-0.000228798
0.000766867
-0.000195699
0.000728521
-0.000154708
0.000692095
-0.000108041
0.00065789
-5.77735e-05
0.000624899
-6.01368e-06
0.000591175
4.49639e-05
0.000554047
9.2582e-05
0.000510308
0.000133913
0.000456339
0.000165665
0.000388248
0.00018422
0.000301994
0.000185735
0.000193462
0.000166306
5.84592e-05
0.000122328
-0.000107442
5.10043e-05
-0.000309092
-4.8353e-05
-0.000552001
-0.000171701
-0.000841941
-0.000305252
-0.00118194
-0.000417796
-0.00156211
-0.000459327
-0.00192883
-0.000376088
-0.00213913
-0.000170861
-0.00191468
-0.000919903
-6.07604e-05
0.000312923
-0.000151485
0.000673774
-0.000224067
0.000834781
-0.000264104
0.000878709
-0.000272588
0.000862877
-0.000255252
0.000820054
-0.000218272
0.000767919
-0.000166864
0.000715459
-0.000105075
0.000666731
-3.59931e-05
0.000623014
3.79219e-05
0.000583975
0.000114534
0.000548287
0.000191765
0.000513944
0.00026738
0.000478431
0.000338842
0.000438847
0.000403192
0.000391989
0.000456999
0.00033444
0.000496351
0.000262642
0.000516881
0.000172932
0.000513826
6.15145e-05
0.000482193
-7.58094e-05
0.000417014
-0.000243912
0.000313988
-0.000448975
0.000171652
-0.000699605
-3.61793e-06
-0.00100667
-0.000189743
-0.00137598
-0.000332355
-0.00178622
-0.000351194
-0.00212029
-0.000196821
-0.00206905
-0.00111672
-9.75906e-05
0.000410513
-0.000211842
0.000788025
-0.00027889
0.000901829
-0.000293143
0.000892962
-0.000265346
0.000835079
-0.000207827
0.000762535
-0.000130602
0.000690694
-4.08636e-05
0.000625721
5.64967e-05
0.000569371
0.000158178
0.000521332
0.000261847
0.000480306
0.000365657
0.000444477
0.000467886
0.000411715
0.000566663
0.000379654
0.000659773
0.000345737
0.000744514
0.000307248
0.000817601
0.000261353
0.000875117
0.000205126
0.000912476
0.000135574
0.000924378
4.96126e-05
0.000904916
-5.6348e-05
0.000847545
-0.000186541
0.000745122
-0.000346552
0.000590935
-0.000545418
0.000382033
-0.000797763
0.000130196
-0.00112415
-0.000120324
-0.0015357
-0.000273758
-0.00196686
-0.000214181
-0.00212863
-0.0013309
-0.000158297
0.00056881
-0.00028319
0.000912919
-0.000310269
0.000928908
-0.000262749
0.000845443
-0.000168738
0.000741068
-4.87346e-05
0.000642532
8.40339e-05
0.000557925
0.000221637
0.000488118
0.000359583
0.000431425
0.000495422
0.000385494
0.000627789
0.000347938
0.000755781
0.000316485
0.00087854
0.000288957
0.00099496
0.000263234
0.00110349
0.000237208
0.00120198
0.000208762
0.00128757
0.000175762
0.00135663
0.000136058
0.00140471
8.7502e-05
0.00142628
2.80387e-05
0.00141513
-4.51961e-05
0.00136374
-0.000135156
0.00126321
-0.000246019
0.00110317
-0.000385378
0.000872825
-0.000567418
0.000567571
-0.000818894
0.000211114
-0.00117924
-0.000103107
-0.00165264
-0.000203554
-0.00202818
-0.00153446
-0.000240768
0.000809578
-0.000299114
0.000971265
-0.000203555
0.000833348
-3.29561e-05
0.000674844
0.000164688
0.000543424
0.000366429
0.000440791
0.000561627
0.000362727
0.000745904
0.000303841
0.000918114
0.000259215
0.0010786
0.000225004
0.00122824
0.000198304
0.00136787
0.000176855
0.00149802
0.000158802
0.00161872
0.000142541
0.0017293
0.000126619
0.0018284
0.000109669
0.00191378
9.03779e-05
0.00198238
6.74625e-05
0.00203019
3.9684e-05
0.00205207
6.16732e-06
0.00204214
-3.52653e-05
0.00199261
-8.56327e-05
0.00189423
-0.000147638
0.00173492
-0.000226064
0.00149855
-0.000331053
0.00116535
-0.000485696
0.000725855
-0.000739743
0.000239274
-0.00116606
-8.79893e-05
-0.00170092
-0.00162245
-0.000189651
0.000999229
2.87541e-05
0.00075286
0.000385616
0.000476487
0.000724927
0.000335533
0.00102463
0.000243725
0.00128483
0.000180582
0.0015098
0.000137758
0.001705
0.000108641
0.00187582
8.84008e-05
0.00202688
7.3946e-05
0.00216186
6.33162e-05
0.00228353
5.51879e-05
0.00239373
4.86023e-05
0.00249345
4.28173e-05
0.00258285
3.72199e-05
0.00266125
3.12759e-05
0.00272712
2.45065e-05
0.00277809
1.64935e-05
0.00281084
6.92913e-06
0.00282202
-5.01258e-06
0.00280602
-1.92639e-05
0.00275669
-3.62988e-05
0.00266622
-5.71723e-05
0.00252362
-8.34606e-05
0.00231178
-0.000119216
0.00200166
-0.000175574
0.00154729
-0.000285373
0.000923533
-0.000542305
0.000262007
-0.00103939
-0.00136044
0.000999229
0.00175209
0.00222858
0.00256411
0.00280783
0.00298842
0.00312617
0.00323481
0.00332322
0.00339716
0.00346048
0.00351567
0.00356427
0.00360709
0.00364431
0.00367558
0.00370009
0.00371658
0.00372351
0.0037185
0.00369923
0.00366293
0.00360576
0.0035223
0.00340309
0.00322751
0.00294214
0.00239983
0.00136044
)
;

boundaryField
{
    movingWall
    {
        type            calculated;
        value           uniform 0;
    }
    fixedWalls
    {
        type            calculated;
        value           uniform 0;
    }
    frontAndBack
    {
        type            empty;
        value           nonuniform 0();
    }
}


// ************************************************************************* //
