/*--------------------------------*- C++ -*----------------------------------*\
  =========                 |
  \\      /  F ield         | OpenFOAM: The Open Source CFD Toolbox
   \\    /   O peration     | Website:  https://openfoam.org
    \\  /    A nd           | Version:  7
     \\/     M anipulation  |
\*---------------------------------------------------------------------------*/
FoamFile
{
    version     2.0;
    format      ascii;
    class       volScalarField;
    location    "7.8";
    object      p;
}
// * * * * * * * * * * * * * * * * * * * * * * * * * * * * * * * * * * * * * //

dimensions      [0 2 -2 0 0 0 0];

internalField   nonuniform List<scalar> 
900
(
9.53899e-07
-0.000343207
-0.000906324
-0.00151065
-0.00204882
-0.00245714
-0.00270274
-0.0027698
-0.00264899
-0.00233287
-0.00181554
-0.00109499
-0.000176948
0.000920889
0.00216528
0.00350535
0.00487288
0.00618562
0.0073539
0.00829001
0.00891961
0.00919331
0.00909655
0.00865558
0.00793866
0.00705026
0.00612011
0.00530609
0.00476615
0.00462664
0.000343655
-1.37964e-05
-0.000444359
-0.000888273
-0.00128165
-0.00157873
-0.00175375
-0.00179165
-0.00168186
-0.00141582
-0.000987121
-0.000393255
0.000361485
0.0012628
0.00228341
0.00338134
0.00450212
0.00557757
0.00653448
0.00730156
0.00781896
0.00804803
0.00797935
0.00763706
0.0070787
0.00639028
0.00567619
0.0050395
0.00461225
0.00448479
0.000929576
0.000402393
-4.30144e-05
-0.000441093
-0.000778296
-0.00102729
-0.00117318
-0.00120678
-0.00111956
-0.000902769
-0.000548349
-5.10104e-05
0.000588848
0.00136189
0.00224693
0.00320956
0.00420059
0.00515931
0.00601825
0.00671052
0.00717914
0.00738666
0.00732304
0.00700977
0.00649907
0.00586785
0.0052077
0.00461228
0.00417497
0.00396146
0.00158251
0.000826016
0.000301896
-0.000107479
-0.000435495
-0.000672889
-0.000817226
-0.000867182
-0.00081744
-0.000659057
-0.000381332
2.54865e-05
0.000566762
0.00123968
0.0020297
0.00290807
0.00383027
0.00473811
0.00556423
0.00623948
0.00670278
0.00691163
0.00685086
0.00653753
0.00602006
0.00537149
0.00467928
0.00403357
0.00350649
0.00313504
0.00216097
0.00115786
0.000532123
8.55752e-05
-0.000259256
-0.000509711
-0.000675366
-0.000762535
-0.000768754
-0.000684201
-0.000494461
-0.000183942
0.000259978
0.00084236
0.00155618
0.00237861
0.00326947
0.00417096
0.00501274
0.00571924
0.00622026
0.00646291
0.00642217
0.00610734
0.0055621
0.0048577
0.00408273
0.0033313
0.00266586
0.00208265
0.00254505
0.00129794
0.000561907
6.2285e-05
-0.000319365
-0.00060531
-0.000815811
-0.000963654
-0.00104817
-0.00105757
-0.000972491
-0.000770102
-0.000428976
6.54018e-05
0.00071494
0.00150387
0.00239652
0.00333484
0.00424361
0.00503731
0.00563169
0.00595744
0.00597343
0.005676
0.00510116
0.00431876
0.00342292
0.0025194
0.00166867
0.00083463
0.00263011
0.00115423
0.000308235
-0.000253698
-0.000687918
-0.00103015
-0.00130982
-0.00154471
-0.00173463
-0.00186457
-0.00190891
-0.00183608
-0.00161407
-0.00121685
-0.000631362
0.000135749
0.00105582
0.00207088
0.00310039
0.00404633
0.00480537
0.00528474
0.00541889
0.0051832
0.00460026
0.00373671
0.00269544
0.00160171
0.000522887
-0.000604358
0.0023237
0.000642161
-0.000307694
-0.000936942
-0.00143693
-0.00185568
-0.00223041
-0.0025825
-0.00291101
-0.00319653
-0.00340595
-0.00349735
-0.00342608
-0.00315193
-0.00264743
-0.00190645
-0.000945603
0.000178935
0.00138303
0.00255501
0.0035679
0.00429728
0.00464227
0.00454555
0.00400644
0.00308304
0.00188819
0.000574472
-0.000774996
-0.0022483
0.00154377
-0.000314646
-0.00135904
-0.00205884
-0.00263726
-0.00315373
-0.00365218
-0.00415648
-0.00466404
-0.00515026
-0.00557345
-0.00587985
-0.00600991
-0.00590594
-0.00552094
-0.00482843
-0.00383547
-0.00258241
-0.00115457
0.000323407
0.00169745
0.00280275
0.00348947
0.00365112
0.00324794
0.00231866
0.000983739
-0.000569789
-0.002234
-0.00412109
0.000219757
-0.00178189
-0.00290964
-0.0036829
-0.00435309
-0.00499031
-0.00564442
-0.00634123
-0.00707611
-0.00781895
-0.00851889
-0.00910914
-0.00951291
-0.0096513
-0.00945275
-0.00886443
-0.00787005
-0.00649046
-0.00480305
-0.00294037
-0.00108413
0.00055266
0.00175559
0.00234726
0.00222523
0.00138947
-4.05629e-05
-0.00183834
-0.00386167
-0.00624731
-0.00170444
-0.00381134
-0.00500999
-0.00585972
-0.00663581
-0.00741839
-0.00826287
-0.00919691
-0.0102142
-0.0112794
-0.0123326
-0.0132933
-0.0140656
-0.0145456
-0.0146316
-0.014237
-0.0133081
-0.0118372
-0.00988084
-0.00756935
-0.00510749
-0.0027607
-0.000823304
0.000430146
0.000801568
0.000220823
-0.00121307
-0.00323423
-0.00565697
-0.00864302
-0.00426669
-0.00643741
-0.00769341
-0.00862231
-0.00951822
-0.0104707
-0.0115408
-0.0127585
-0.0141168
-0.0155764
-0.0170691
-0.0185009
-0.0197556
-0.0207014
-0.0212008
-0.0211246
-0.020371
-0.0188885
-0.0166958
-0.0139047
-0.0107312
-0.00748982
-0.00456585
-0.00235851
-0.00120338
-0.00128749
-0.00256827
-0.00475166
-0.00760192
-0.0113055
-0.00748309
-0.00967414
-0.0109728
-0.0119819
-0.0130091
-0.0141528
-0.0154802
-0.0170248
-0.0187805
-0.0207058
-0.0227264
-0.0247357
-0.0265972
-0.0281496
-0.0292154
-0.0296148
-0.0291865
-0.0278239
-0.0254829
-0.022236
-0.0182888
-0.013991
-0.009819
-0.00631914
-0.00401122
-0.00326241
-0.00414565
-0.00636978
-0.00965105
-0.0142002
-0.0113453
-0.0135134
-0.0148385
-0.0159253
-0.0170889
-0.0184371
-0.0200439
-0.0219481
-0.0241468
-0.026599
-0.0292266
-0.0319127
-0.0345021
-0.0368037
-0.0385981
-0.0396517
-0.0397388
-0.038666
-0.0363244
-0.0327165
-0.0280066
-0.022551
-0.0169005
-0.0117564
-0.00786515
-0.00584926
-0.00598396
-0.00804323
-0.0117172
-0.0172438
-0.0158198
-0.0179251
-0.0192585
-0.0204136
-0.0217081
-0.0232592
-0.0251502
-0.0274271
-0.0300934
-0.0331115
-0.0364023
-0.0398418
-0.0432584
-0.0464334
-0.0491063
-0.0509878
-0.0517805
-0.0512079
-0.0490679
-0.0452695
-0.0399016
-0.0332852
-0.0260078
-0.0189084
-0.0129834
-0.00918603
-0.00810628
-0.00968734
-0.0136521
-0.0202813
-0.0208494
-0.0228595
-0.024181
-0.0253849
-0.0267876
-0.0285181
-0.0306716
-0.0333053
-0.0364317
-0.0400202
-0.0439939
-0.0482246
-0.0525276
-0.0566599
-0.0603237
-0.0631768
-0.0648512
-0.0649821
-0.0632734
-0.0595154
-0.0536882
-0.0460295
-0.0371057
-0.0278445
-0.0194806
-0.0133528
-0.0104898
-0.0111548
-0.0152204
-0.0230554
-0.0263581
-0.0282537
-0.0295401
-0.0307583
-0.0322229
-0.0340787
-0.0364382
-0.039374
-0.0429123
-0.0470319
-0.0516609
-0.0566696
-0.0618634
-0.066979
-0.071686
-0.0755954
-0.0782754
-0.0792763
-0.0782172
-0.0747521
-0.0687305
-0.0602615
-0.0498228
-0.0383521
-0.0272644
-0.018293
-0.0130146
-0.0122005
-0.0160646
-0.0251678
-0.032259
-0.0340404
-0.0352651
-0.0364429
-0.037891
-0.0397788
-0.0422444
-0.0453829
-0.049238
-0.0538011
-0.0590068
-0.0647252
-0.0707539
-0.0768127
-0.0825436
-0.0875181
-0.0912556
-0.0932511
-0.0929725
-0.090015
-0.0840735
-0.0750934
-0.0634001
-0.0498471
-0.0359277
-0.0237147
-0.0153912
-0.0124301
-0.0156603
-0.02603
-0.0384661
-0.0401621
-0.0412925
-0.0423466
-0.0436586
-0.0454373
-0.0478602
-0.0510537
-0.0550843
-0.0599576
-0.0656147
-0.0719251
-0.0786785
-0.085579
-0.0922451
-0.0982159
-0.102966
-0.10593
-0.106521
-0.104211
-0.0985653
-0.0893608
-0.0767293
-0.0613531
-0.0446771
-0.028994
-0.0170701
-0.0112337
-0.0132591
-0.0248013
-0.0449111
-0.0465893
-0.0475816
-0.0483877
-0.0493903
-0.050863
-0.053042
-0.0560973
-0.0601227
-0.0651379
-0.0710885
-0.0778397
-0.0851704
-0.0927681
-0.100229
-0.107063
-0.112709
-0.116553
-0.117958
-0.116305
-0.111045
-0.101798
-0.0884906
-0.0715773
-0.0523351
-0.0331156
-0.0171538
-0.00770188
-0.00781715
-0.0203056
-0.051569
-0.0533469
-0.0541322
-0.0545044
-0.0549544
-0.0558604
-0.0575437
-0.0602306
-0.0640447
-0.0690171
-0.0750914
-0.0821219
-0.0898706
-0.0980032
-0.10609
-0.113618
-0.119988
-0.124546
-0.126608
-0.125484
-0.120536
-0.111248
-0.0973569
-0.0790769
-0.0574365
-0.0346828
-0.0143371
-0.000536618
0.00209436
-0.0109129
-0.0585021
-0.0605525
-0.0610063
-0.0606614
-0.0602239
-0.0602333
-0.0611255
-0.0631926
-0.0665857
-0.0713375
-0.0773799
-0.0845432
-0.092564
-0.101078
-0.109623
-0.117673
-0.124573
-0.129622
-0.132102
-0.131263
-0.126384
-0.116837
-0.102202
-0.0824735
-0.0584044
-0.0320144
-0.00690524
0.0120268
0.0183992
0.00564479
-0.0659466
-0.0684794
-0.0683545
-0.0668528
-0.0650731
-0.0637854
-0.0635628
-0.0647618
-0.0675465
-0.0719326
-0.0778284
-0.0850163
-0.0932013
-0.10198
-0.110854
-0.119236
-0.126451
-0.131761
-0.13438
-0.133494
-0.128302
-0.118076
-0.102258
-0.0806619
-0.0537679
-0.023323
0.00718225
0.0322576
0.0436634
0.0325759
-0.074499
-0.077663
-0.0764498
-0.0731015
-0.0693729
-0.0663239
-0.0646604
-0.0647766
-0.0668179
-0.0707552
-0.076434
-0.0835929
-0.0918773
-0.100836
-0.109922
-0.118501
-0.125852
-0.131181
-0.133633
-0.13232
-0.126341
-0.11486
-0.0971892
-0.07298
-0.042408
-0.00700721
0.0300645
0.0628873
0.0813109
0.0745184
-0.0855403
-0.0890873
-0.0857216
-0.0794507
-0.0729864
-0.0676689
-0.0642709
-0.0631561
-0.0643938
-0.0678662
-0.0733327
-0.0804576
-0.0888184
-0.0979054
-0.10712
-0.115773
-0.123089
-0.128207
-0.130197
-0.128075
-0.120815
-0.10745
-0.0871237
-0.0592785
-0.0239183
0.0178961
0.0634837
0.106871
0.1358
0.138046
-0.102227
-0.104521
-0.0967618
-0.0859247
-0.0757463
-0.067644
-0.0622881
-0.0598898
-0.060356
-0.0634259
-0.0687409
-0.0758702
-0.0843145
-0.0935001
-0.102772
-0.111388
-0.118513
-0.123219
-0.124492
-0.121243
-0.112282
-0.0964869
-0.0727744
-0.0403025
0.00127245
0.0513862
0.108035
0.166596
0.212166
0.231607
-0.131709
-0.127043
-0.110367
-0.0925255
-0.0774355
-0.0660455
-0.058612
-0.0549983
-0.0548326
-0.0576444
-0.0629239
-0.0701312
-0.0786862
-0.0879533
-0.0972254
-0.105711
-0.112522
-0.11667
-0.117063
-0.112504
-0.101648
-0.0831548
-0.0556488
-0.0178653
0.0311425
0.0917016
0.163203
0.242067
0.31427
0.366841
-0.19011
-0.160203
-0.127055
-0.0988542
-0.0774075
-0.0623473
-0.0529584
-0.0484264
-0.0479399
-0.0507537
-0.0561874
-0.0635933
-0.0723214
-0.0816878
-0.0909484
-0.0992776
-0.105752
-0.109333
-0.108866
-0.103054
-0.0905314
-0.0696322
-0.0386476
0.00425794
0.0610174
0.133559
0.22371
0.330787
0.444255
0.570546
-0.321269
-0.199978
-0.138581
-0.0973902
-0.0698275
-0.0523357
-0.0424275
-0.038208
-0.0383234
-0.041797
-0.0478493
-0.0557875
-0.0649416
-0.0746205
-0.0840785
-0.0924893
-0.0989271
-0.102347
-0.101568
-0.0951478
-0.0818392
-0.0597704
-0.0269414
0.0190462
0.0813136
0.164227
0.27426
0.419933
0.608262
0.897781
-0.64864
-0.23646
-0.107155
-0.0624234
-0.0379689
-0.0243136
-0.018555
-0.01805
-0.0211363
-0.0269153
-0.0347711
-0.0441478
-0.0544791
-0.0651537
-0.0754877
-0.0847023
-0.0919087
-0.0960972
-0.0961493
-0.0909056
-0.0785404
-0.0575133
-0.0258175
0.0191515
0.0810943
0.166237
0.287022
0.471785
0.777924
1.37178
)
;

boundaryField
{
    movingWall
    {
        type            zeroGradient;
    }
    fixedWalls
    {
        type            zeroGradient;
    }
    frontAndBack
    {
        type            empty;
    }
}


// ************************************************************************* //
