/*--------------------------------*- C++ -*----------------------------------*\
  =========                 |
  \\      /  F ield         | OpenFOAM: The Open Source CFD Toolbox
   \\    /   O peration     | Website:  https://openfoam.org
    \\  /    A nd           | Version:  7
     \\/     M anipulation  |
\*---------------------------------------------------------------------------*/
FoamFile
{
    version     2.0;
    format      ascii;
    class       surfaceScalarField;
    location    "7.8";
    object      phi;
}
// * * * * * * * * * * * * * * * * * * * * * * * * * * * * * * * * * * * * * //

dimensions      [0 3 -1 0 0 0 0];

internalField   nonuniform List<scalar> 
1740
(
8.19942e-07
-8.20685e-07
4.79352e-07
3.40587e-07
-1.44841e-06
1.92777e-06
-4.79782e-06
3.3494e-06
-9.22061e-06
4.4228e-06
-1.4367e-05
5.14638e-06
-1.99424e-05
5.57543e-06
-2.57073e-05
5.76485e-06
-3.1455e-05
5.74775e-06
-3.6988e-05
5.53297e-06
-4.20992e-05
5.11126e-06
-4.65641e-05
4.46491e-06
-5.01426e-05
3.57848e-06
-5.25919e-05
2.44925e-06
-5.36881e-05
1.0962e-06
-5.32537e-05
-4.3432e-07
-5.11887e-05
-2.06502e-06
-4.74997e-05
-3.68905e-06
-4.23222e-05
-5.17748e-06
-3.593e-05
-6.39215e-06
-2.87277e-05
-7.20238e-06
-2.12232e-05
-7.50444e-06
-1.3983e-05
-7.24018e-06
-7.57189e-06
-6.41113e-06
-2.48572e-06
-5.08617e-06
9.20784e-07
-3.4065e-06
2.50646e-06
-1.58567e-06
2.39131e-06
1.15155e-07
1.13923e-06
1.25208e-06
1.13924e-06
-3.23866e-07
-4.96825e-07
-3.50866e-06
3.52537e-06
-1.01302e-05
8.54932e-06
-1.98088e-05
1.3028e-05
-3.18939e-05
1.65079e-05
-4.56742e-05
1.89266e-05
-6.04768e-05
2.03781e-05
-7.56923e-05
2.09804e-05
-9.07558e-05
2.08112e-05
-0.000105116
1.98932e-05
-0.000118211
1.82065e-05
-0.000129461
1.57143e-05
-0.000138277
1.23945e-05
-0.000144097
8.26916e-06
-0.00014643
3.42971e-06
-0.000144924
-1.94038e-06
-0.000139406
-7.58305e-06
-0.000129961
-1.3134e-05
-0.000116957
-1.81814e-05
-0.00010106
-2.22894e-05
-8.32103e-05
-2.50519e-05
-6.45644e-05
-2.61504e-05
-4.63948e-05
-2.54097e-05
-2.99635e-05
-2.28425e-05
-1.63744e-05
-1.86752e-05
-6.4265e-06
-1.33544e-05
-4.69531e-07
-7.54264e-06
1.78742e-06
-2.14178e-06
1.30952e-06
1.73e-06
2.44876e-06
-2.09262e-06
1.59579e-06
-9.15256e-06
1.05853e-05
-2.10349e-05
2.04317e-05
-3.70691e-05
2.90622e-05
-5.63461e-05
3.57849e-05
-7.78995e-05
4.048e-05
-0.000100794
4.32727e-05
-0.000124149
4.4335e-05
-0.00014712
4.37822e-05
-0.000168873
4.16465e-05
-0.000188564
3.78977e-05
-0.000205338
3.24883e-05
-0.000218352
2.54082e-05
-0.000226821
1.67382e-05
-0.000230086
6.69428e-06
-0.000227679
-4.34699e-06
-0.000219411
-1.58515e-05
-0.000205429
-2.71154e-05
-0.000186268
-3.73426e-05
-0.000162857
-4.57003e-05
-0.000136495
-5.1414e-05
-0.000108772
-5.38733e-05
-8.14452e-05
-5.27366e-05
-5.62702e-05
-4.80174e-05
-3.48072e-05
-4.01383e-05
-1.82157e-05
-2.99459e-05
-7.06132e-06
-1.8697e-05
-1.17452e-06
-8.02857e-06
5.25974e-07
2.95067e-08
2.97473e-06
-3.99507e-06
5.59086e-06
-1.51888e-05
2.1779e-05
-3.25693e-05
3.78122e-05
-5.49719e-05
5.14649e-05
-8.11745e-05
6.19874e-05
-0.000109978
6.92835e-05
-0.000140243
7.35382e-05
-0.000170889
7.49805e-05
-0.000200865
7.37578e-05
-0.000229124
6.99061e-05
-0.00025461
6.33837e-05
-0.000276261
5.41388e-05
-0.000293042
4.21895e-05
-0.000304004
2.76999e-05
-0.000308352
1.10428e-05
-0.000305531
-7.1682e-06
-0.000295307
-2.60752e-05
-0.000277845
-4.45781e-05
-0.000253755
-6.14318e-05
-0.000224122
-7.53337e-05
-0.000190474
-8.50624e-05
-0.00015471
-8.96373e-05
-0.000118964
-8.84819e-05
-8.5416e-05
-8.15658e-05
-5.60545e-05
-6.94998e-05
-3.24338e-05
-5.35665e-05
-1.54416e-05
-3.56892e-05
-5.11976e-06
-1.83504e-05
-5.97729e-07
-4.49252e-06
2.377e-06
-5.84136e-06
1.14322e-05
-2.11521e-05
3.70898e-05
-4.40025e-05
6.06626e-05
-7.26512e-05
8.01136e-05
-0.000105518
9.48542e-05
-0.000141171
0.000104937
-0.000178299
0.000110667
-0.000215672
0.000112353
-0.00025209
0.000110177
-0.000286359
0.000104175
-0.000317268
9.42921e-05
-0.000343601
8.04722e-05
-0.000364178
6.27664e-05
-0.000377909
4.14307e-05
-0.000383871
1.70053e-05
-0.000381397
-9.64211e-06
-0.000370158
-3.73146e-05
-0.000350253
-6.44834e-05
-0.000322274
-8.94107e-05
-0.000287348
-0.00011026
-0.000247133
-0.000125277
-0.000203759
-0.000133011
-0.000159696
-0.000132545
-0.00011755
-0.000123712
-7.9795e-05
-0.000107255
-4.84769e-05
-8.48846e-05
-2.49307e-05
-5.92354e-05
-9.56952e-06
-3.37116e-05
-1.79159e-06
-1.22704e-05
5.85411e-07
-7.56787e-06
1.90001e-05
-2.68141e-05
5.6336e-05
-5.49201e-05
8.87686e-05
-8.95539e-05
0.000114747
-0.000128764
0.000134065
-0.000170891
0.000147064
-0.000214477
0.000154252
-0.000258179
0.000156054
-0.000300702
0.0001527
-0.000340753
0.000144226
-0.000377019
0.000130558
-0.000408174
0.000111628
-0.000432919
8.75106e-05
-0.000450031
5.8543e-05
-0.000458444
2.54181e-05
-0.000457331
-1.07545e-05
-0.000446195
-4.84513e-05
-0.000424972
-8.57058e-05
-0.000394124
-0.000120259
-0.000354708
-0.000149676
-0.000308412
-0.000171573
-0.000257533
-0.00018389
-0.000204866
-0.000185212
-0.000153491
-0.000175087
-0.000106471
-0.000154274
-6.64921e-05
-0.000124864
-3.54993e-05
-9.02282e-05
-1.44202e-05
-5.47907e-05
-3.03311e-06
-2.36576e-05
-2.4477e-06
-9.14816e-06
2.81482e-05
-3.20418e-05
7.92297e-05
-6.50476e-05
0.000121774
-0.000105275
0.000154975
-0.000150419
0.000179209
-0.000198609
0.000195253
-0.000248263
0.000203906
-0.000297966
0.000205757
-0.000346368
0.000201102
-0.000392124
0.000189983
-0.000433862
0.000172295
-0.000470181
0.000147947
-0.000499683
0.000117012
-0.000521014
7.9874e-05
-0.000532935
3.73396e-05
-0.000534412
-9.2772e-06
-0.000524691
-5.81728e-05
-0.000503444
-0.000106953
-0.000470877
-0.000152826
-0.000427848
-0.000192705
-0.000375967
-0.000223454
-0.000317621
-0.000242236
-0.000255907
-0.000246926
-0.000194438
-0.000236557
-0.000136999
-0.000211713
-8.71026e-05
-0.00017476
-4.7512e-05
-0.000129819
-1.98461e-05
-8.24566e-05
-4.37311e-06
-3.91305e-05
-6.82081e-06
-1.05586e-05
3.87068e-05
-3.67273e-05
0.000105398
-7.41571e-05
0.000159204
-0.000119462
0.00020028
-0.00017002
0.000229766
-0.000223778
0.000249012
-0.000279063
0.000259191
-0.000334418
0.000261112
-0.000388479
0.000255163
-0.00043989
0.000241394
-0.00048726
0.000219665
-0.000529148
0.000189834
-0.000564073
0.000151938
-0.000590555
0.000106355
-0.000607159
5.39438e-05
-0.000612599
-3.8372e-06
-0.000605782
-6.49893e-05
-0.000586018
-0.000126717
-0.000553124
-0.00018572
-0.00050762
-0.000238209
-0.000450887
-0.000280186
-0.000385289
-0.000307835
-0.00031417
-0.000318045
-0.000241703
-0.000309024
-0.000172526
-0.00028089
-0.000111199
-0.000236087
-6.15601e-05
-0.000179457
-2.61596e-05
-0.000117857
-5.90998e-06
-5.93801e-05
-1.27308e-05
-1.17682e-05
5.04751e-05
-4.07574e-05
0.000134388
-8.20214e-05
0.000200468
-0.000131758
0.000250017
-0.000187083
0.000285091
-0.000245797
0.000307725
-0.000306164
0.000319559
-0.000366721
0.000321669
-0.000426124
0.000314566
-0.000483046
0.000298316
-0.000536116
0.000272735
-0.000583885
0.000237603
-0.000624821
0.000192873
-0.000657325
0.00013886
-0.000679772
7.63911e-05
-0.000690565
6.95549e-06
-0.000688269
-6.72854e-05
-0.000671709
-0.000143277
-0.000640196
-0.000217233
-0.000593749
-0.000284656
-0.000533346
-0.000340589
-0.000461147
-0.000380035
-0.000380612
-0.000398579
-0.000296438
-0.000393198
-0.00021421
-0.000363117
-0.000139766
-0.000310532
-7.83417e-05
-0.000240881
-3.37404e-05
-0.000162459
-7.76356e-06
-8.53569e-05
-2.04944e-05
-1.27393e-05
6.32144e-05
-4.40097e-05
0.000165658
-8.84037e-05
0.000244862
-0.000141797
0.00030341
-0.000201097
0.000344392
-0.000264001
0.000370629
-0.00032874
0.000384299
-0.000393872
0.000386801
-0.000458105
0.000378799
-0.000520179
0.000360391
-0.000578782
0.000331338
-0.000632495
0.000291317
-0.000679774
0.000240152
-0.000718937
0.000178022
-0.000748184
0.000105639
-0.000765636
2.44071e-05
-0.000769465
-6.34565e-05
-0.000757978
-0.000154765
-0.000729871
-0.000245339
-0.000684504
-0.000330023
-0.000622232
-0.000402861
-0.000544763
-0.000457503
-0.000455443
-0.0004879
-0.000359342
-0.000489299
-0.000263001
-0.000459458
-0.000173743
-0.000399791
-9.85768e-05
-0.000316047
-4.29962e-05
-0.000218039
-1.00632e-05
-0.00011829
-3.05575e-05
-1.34322e-05
7.66466e-05
-4.63613e-05
0.000198587
-9.30702e-05
0.000291571
-0.00014921
0.000359549
-0.000211543
0.000406725
-0.000277693
0.000436779
-0.000345886
0.000452492
-0.000414725
0.000455639
-0.000482997
0.000447071
-0.000549541
0.000426935
-0.000613142
0.000394939
-0.000672463
0.000350637
-0.000725994
0.000293683
-0.000772029
0.000224057
-0.000808652
0.000142262
-0.000833761
4.95165e-05
-0.000845151
-5.20669e-05
-0.000840618
-0.000159297
-0.000818187
-0.000267771
-0.000776412
-0.000371798
-0.000714797
-0.000464476
-0.000634286
-0.000538014
-0.000537754
-0.000584431
-0.000430341
-0.000596713
-0.000319405
-0.000570394
-0.000213875
-0.000505321
-0.000122935
-0.000406987
-5.43362e-05
-0.000286638
-1.29432e-05
-0.000159683
-4.35007e-05
-1.38117e-05
9.04583e-05
-4.77048e-05
0.00023248
-9.58155e-05
0.000339682
-0.000153668
0.000417402
-0.000217935
0.000470992
-0.000286197
0.000505041
-0.000356693
0.000522989
-0.000428085
0.00052703
-0.000499261
0.000518247
-0.000569186
0.00049686
-0.000636783
0.000462536
-0.000700845
0.000414699
-0.000759967
0.000352805
-0.000812495
0.000276585
-0.000856495
0.000186261
-0.000889738
8.27595e-05
-0.000909736
-3.20689e-05
-0.000913846
-0.000155187
-0.000899421
-0.000282195
-0.000864132
-0.000407088
-0.000806419
-0.000522189
-0.00072611
-0.000618322
-0.000625145
-0.000685396
-0.000508242
-0.000713616
-0.000383214
-0.000695422
-0.000260546
-0.000627989
-0.000151958
-0.000515575
-6.81467e-05
-0.00037045
-1.65406e-05
-0.000211289
-6.00414e-05
-1.38544e-05
0.000104313
-4.79693e-05
0.000266595
-9.64974e-05
0.00038821
-0.000154929
0.000475833
-0.000219892
0.000535955
-0.000288947
0.000574096
-0.000360353
0.000594394
-0.000432839
0.000599517
-0.000505409
0.000590817
-0.000577177
0.000568628
-0.00064724
0.000532599
-0.000714575
0.000482034
-0.000777957
0.000416187
-0.000835884
0.000334513
-0.000886524
0.000236901
-0.00092767
0.000123906
-0.000956693
-3.04566e-06
-0.000970676
-0.000141204
-0.000966381
-0.00028649
-0.000940605
-0.000432865
-0.000890585
-0.000572209
-0.000814704
-0.000694203
-0.000713433
-0.000786667
-0.000590393
-0.000836656
-0.000453207
-0.000832607
-0.000313576
-0.00076762
-0.000185958
-0.000643192
-8.47612e-05
-0.000471647
-2.09927e-05
-0.000275058
-8.1034e-05
-1.35572e-05
0.00011787
-4.71434e-05
0.000300181
-9.50779e-05
0.000436145
-0.000152894
0.000533649
-0.00021721
0.000600271
-0.000285578
0.000642465
-0.00035628
0.000665096
-0.000428116
0.000671352
-0.000500209
0.000662911
-0.000571842
0.000640261
-0.000642319
0.000603075
-0.000710853
0.000550568
-0.000776474
0.000481808
-0.000837942
0.000395981
-0.000893666
0.000292625
-0.000941622
0.000171862
-0.000979307
3.4639e-05
-0.00100363
-0.000116879
-0.00101104
-0.000279083
-0.000997559
-0.000446344
-0.000959219
-0.000610549
-0.000892723
-0.000760699
-0.000796552
-0.000882838
-0.000672431
-0.000960777
-0.000526854
-0.000978185
-0.000371984
-0.00092249
-0.000224893
-0.000790283
-0.000104419
-0.000592121
-2.64317e-05
-0.000353045
-0.000107466
-1.29449e-05
0.000130815
-4.52995e-05
0.000332536
-9.16656e-05
0.000482511
-0.000147671
0.000589654
-0.000209945
0.000662546
-0.000276036
0.000708556
-0.000344248
0.000733307
-0.00041345
0.000740554
-0.000482893
0.000732354
-0.000552041
0.000709409
-0.000620433
0.000671467
-0.000687568
0.000617703
-0.000752802
0.000547042
-0.000815256
0.000458435
-0.00087372
0.000351088
-0.000926541
0.000224683
-0.000971514
7.96118e-05
-0.00100572
-8.26741e-05
-0.00102551
-0.000259291
-0.00102642
-0.00044543
-0.00100343
-0.000633543
-0.000951509
-0.00081262
-0.000866773
-0.000967574
-0.000748241
-0.00107931
-0.000600101
-0.00112633
-0.000433752
-0.00108884
-0.000268211
-0.000955824
-0.000127208
-0.000733124
-3.29776e-05
-0.000447275
-0.000140443
-1.20782e-05
0.000142893
-4.26178e-05
0.000363075
-8.65586e-05
0.000526451
-0.000139636
0.000642731
-0.000198492
0.000721402
-0.00026067
0.000770734
-0.0003245
0.000797137
-0.000388929
0.000804983
-0.000453341
0.000796767
-0.000517401
0.000773469
-0.000580908
0.000734975
-0.000643685
0.000680479
-0.000705471
0.000608828
-0.000765833
0.000518797
-0.000824054
0.000409309
-0.00087901
0.000279639
-0.000929011
0.000129613
-0.000971549
-4.01363e-05
-0.00100326
-0.000227576
-0.00101954
-0.000429153
-0.00101465
-0.000638439
-0.000982034
-0.000845232
-0.000915335
-0.00103427
-0.000810229
-0.00118442
-0.000667343
-0.00126921
-0.000495644
-0.00126054
-0.000314693
-0.00113678
-0.000153003
-0.000894814
-4.07282e-05
-0.00055955
-0.000181171
-1.10617e-05
0.000153955
-3.94108e-05
0.000391425
-8.02862e-05
0.000567327
-0.000129485
0.00069193
-0.000183644
0.000775561
-0.000240305
0.000827396
-0.00029784
0.000854672
-0.000355292
0.000862435
-0.000412208
0.000853682
-0.000468473
0.000829733
-0.000524174
0.000790675
-0.000579486
0.000735791
-0.000634576
0.000663919
-0.000689506
0.000573727
-0.000744128
0.000463932
-0.000797954
0.000333465
-0.000849984
0.000181643
-0.000898324
8.20409e-06
-0.000940266
-0.000185634
-0.000971446
-0.000397973
-0.000985935
-0.00062395
-0.000976146
-0.000855021
-0.00093347
-0.00107695
-0.000849983
-0.0012679
-0.00072168
-0.00139752
-0.000553156
-0.00142906
-0.000362319
-0.00132761
-0.000181396
-0.00107574
-4.97526e-05
-0.000691193
-0.000230924
-1.0054e-05
0.000164009
-3.6153e-05
0.000417524
-7.36532e-05
0.000604827
-0.000118289
0.000736566
-0.000166649
0.00082392
-0.000216288
0.000877035
-0.000265663
0.000904047
-0.000313966
0.000910738
-0.000360949
0.000900666
-0.000406759
0.000875543
-0.000451801
0.000835717
-0.000496628
0.000780619
-0.000541849
0.00070914
-0.000588042
0.00061992
-0.000635655
0.000511544
-0.000684875
0.000382684
-0.000735428
0.000232197
-0.000786455
5.92314e-05
-0.000835739
-0.00013635
-0.000879846
-0.000353866
-0.000913199
-0.000590598
-0.000927861
-0.000840359
-0.000913637
-0.00109117
-0.000859263
-0.00132228
-0.000755488
-0.00150129
-0.000600676
-0.00158387
-0.000408202
-0.00152009
-0.000211653
-0.00127228
-6.0096e-05
-0.000842751
-0.00029102
-9.28544e-06
0.000173294
-3.35233e-05
0.000441762
-6.77943e-05
0.000639098
-0.000107539
0.000776311
-0.000149232
0.000865613
-0.000190488
0.000918291
-0.000229935
0.000943493
-0.000267006
0.00094781
-0.00030174
0.0009354
-0.000334603
0.000908406
-0.000366357
0.000867471
-0.00039795
0.000812211
-0.000430435
0.000741625
-0.000464892
0.000654377
-0.00050234
0.000548993
-0.000543624
0.000423968
-0.000589243
0.000277816
-0.000639136
0.000109124
-0.000692196
-8.32897e-05
-0.000745957
-0.000300105
-0.000795801
-0.000540753
-0.000834281
-0.000801879
-0.000850616
-0.00107484
-0.000831053
-0.00134184
-0.000761214
-0.00157113
-0.000631856
-0.00171323
-0.000448625
-0.00170332
-0.000242688
-0.00147822
-7.1807e-05
-0.00101363
-0.000362827
-9.09396e-06
0.000182388
-3.24788e-05
0.000465146
-6.42536e-05
0.000670873
-9.91983e-05
0.000811255
-0.000133611
0.000900026
-0.00016526
0.00094994
-0.000193099
0.000971333
-0.000216958
0.000971668
-0.000237279
0.00095572
-0.00025493
0.000926058
-0.000271073
0.000883614
-0.000287064
0.000828202
-0.000304383
0.000758944
-0.000324566
0.00067456
-0.000349139
0.000573566
-0.000379527
0.000454356
-0.000416907
0.000315195
-0.00046201
0.000154228
-0.000514793
-3.05069e-05
-0.000573988
-0.00024091
-0.000636369
-0.000478372
-0.000695783
-0.000742465
-0.000742063
-0.00102856
-0.000760357
-0.00132354
-0.000732136
-0.00159935
-0.000640084
-0.00180528
-0.000479159
-0.00186424
-0.000273058
-0.00168432
-8.50006e-05
-0.00120169
-0.000447828
-9.99763e-06
0.000192386
-3.43854e-05
0.000489534
-6.51047e-05
0.000701592
-9.57639e-05
0.000841915
-0.000122461
0.000926723
-0.000143323
0.000970802
-0.000157882
0.000985892
-0.000166583
0.000980369
-0.000170437
0.000959574
-0.000170813
0.000926435
-0.000169321
0.000882122
-0.000167723
0.000826604
-0.000167886
0.000759108
-0.000171738
0.000678412
-0.000181208
0.000583036
-0.000198206
0.000471354
-0.000224446
0.000341436
-0.000261333
0.000191115
-0.000309773
1.7933e-05
-0.000369734
-0.000180949
-0.00043963
-0.000408476
-0.000515246
-0.000666849
-0.000588226
-0.000955579
-0.000644357
-0.00126741
-0.000662782
-0.00158093
-0.000618848
-0.00184922
-0.000494752
-0.00198834
-0.000300928
-0.00187815
-9.99494e-05
-0.00140267
-0.000547777
-1.28386e-05
0.000205224
-4.12393e-05
0.000517935
-7.31128e-05
0.000733465
-0.000100285
0.000869087
-0.000118787
0.000945225
-0.000127488
0.000979503
-0.000126891
0.000985296
-0.000118355
0.000971833
-0.000103657
0.000944875
-8.47688e-05
0.000907547
-6.37952e-05
0.000861148
-4.28765e-05
0.000805685
-2.42248e-05
0.000740456
-1.00845e-05
0.000664272
-2.69917e-06
0.00057565
-4.18242e-06
0.000472837
-1.66775e-05
0.000353931
-4.22131e-05
0.00021665
-8.24567e-05
5.81765e-05
-0.000138518
-0.000124888
-0.000210471
-0.000336522
-0.000296412
-0.000580908
-0.000390767
-0.000861224
-0.000481775
-0.00117641
-0.000548729
-0.00151397
-0.000561726
-0.00183622
-0.000489621
-0.00206044
-0.000323874
-0.00204389
-0.000117159
-0.00160938
-0.000664937
-1.90546e-05
0.000224279
-5.59997e-05
0.00055488
-9.18666e-05
0.000769332
-0.000116192
0.000893412
-0.00012545
0.000954484
-0.000119944
0.000973996
-0.000101708
0.00096706
-7.33908e-05
0.000943516
-3.77452e-05
0.000909229
2.54599e-06
0.000867256
4.49498e-05
0.000818744
8.69319e-05
0.000763703
0.000126044
0.000701344
0.000159858
0.000630458
0.000185956
0.000549552
0.000201893
0.000456901
0.000205284
0.000350539
0.000193798
0.000228137
0.00016515
8.68243e-05
0.000117245
-7.69826e-05
4.84737e-05
-0.000267751
-4.16172e-05
-0.000490818
-0.000150841
-0.000752
-0.000271474
-0.00105577
-0.000385675
-0.00139977
-0.000461768
-0.00176013
-0.000456678
-0.00206553
-0.000338315
-0.00216226
-0.000137279
-0.00181042
-0.000802215
-3.11574e-05
0.000255436
-8.2955e-05
0.000606678
-0.000125569
0.000811946
-0.000146419
0.000914263
-0.000143719
0.000951783
-0.000120358
0.000950635
-8.06584e-05
0.00092736
-2.89704e-05
0.000891828
3.08035e-05
0.000849455
9.52617e-05
0.000802797
0.000161372
0.000752634
0.000226397
0.000698678
0.000287733
0.000640007
0.00034286
0.000575331
0.000389279
0.000503133
0.000424475
0.000421705
0.000445894
0.00032912
0.000450908
0.000223123
0.000436765
0.000100968
0.000400569
-4.07867e-05
0.000339427
-0.000206609
0.000250713
-0.000402104
0.000133229
-0.000634516
-1.01778e-05
-0.000912365
-0.000167786
-0.00124216
-0.00031017
-0.00161774
-0.000386238
-0.00198946
-0.000338215
-0.00221028
-0.00016048
-0.00198815
-0.000962695
-5.34717e-05
0.000308908
-0.00012769
0.000680895
-0.000177439
0.000861696
-0.000190341
0.000927164
-0.000169096
0.000930538
-0.000120945
0.000902484
-5.33988e-05
0.000859815
2.71346e-05
0.000811295
0.000115543
0.000761047
0.000207768
0.000710572
0.000300493
0.000659908
0.000390872
0.0006083
0.000476318
0.000554561
0.000554364
0.000497285
0.000622564
0.000434934
0.000678414
0.000365855
0.000719293
0.000288241
0.000742379
0.000200037
0.000744556
9.87912e-05
0.000722274
-1.85048e-05
0.00067167
-0.000156005
0.000588334
-0.000318768
0.000468008
-0.00051419
0.000308324
-0.000752682
0.000113953
-0.00104779
-9.37743e-05
-0.00141002
-0.000263531
-0.00181971
-0.000312342
-0.00216147
-0.000184635
-0.00211586
-0.00114733
-9.28524e-05
0.00040176
-0.00019487
0.000782913
-0.000243529
0.000910355
-0.000234594
0.000918229
-0.000180339
0.000876282
-9.46346e-05
0.00081678
1.10896e-05
0.00075409
0.000128385
0.000694
0.000251228
0.000638203
0.000375298
0.000586502
0.000497345
0.000537862
0.000614741
0.000490903
0.000725176
0.000444126
0.000826452
0.00039601
0.000916344
0.000345042
0.000992502
0.000289697
0.00105236
0.000228387
0.00109302
0.000159377
0.00111113
8.06727e-05
0.00110265
-1.00228e-05
0.00106312
-0.000116475
0.000986799
-0.000242445
0.000867161
-0.000394552
0.000697469
-0.000582989
0.000474001
-0.000824323
0.000206129
-0.00114215
-6.27665e-05
-0.00155081
-0.000239167
-0.00198507
-0.000202159
-0.00215287
-0.00134949
-0.000157452
0.000559212
-0.00027659
0.000902051
-0.000292348
0.000926113
-0.000228343
0.000854224
-0.000113805
0.000761745
2.937e-05
0.000673605
0.000186637
0.000596823
0.000348833
0.000531804
0.000510313
0.000476723
0.000667537
0.000429278
0.000818124
0.000387275
0.000960267
0.00034876
0.00109237
0.000312021
0.00121284
0.000275542
0.00131993
0.000237956
0.00141164
0.000197985
0.00148564
0.00015438
0.00153918
0.000105838
0.0015689
5.09591e-05
0.0015706
-1.17204e-05
0.00153945
-8.53321e-05
0.00146907
-0.000172061
0.00135156
-0.000277047
0.00117714
-0.000408561
0.000934841
-0.000582028
0.000618798
-0.000826102
0.000250499
-0.00118251
-7.74069e-05
-0.00165716
-0.000193502
-0.00203678
-0.00154299
-0.000243768
0.00080298
-0.000303221
0.000961505
-0.000204503
0.000827395
-2.53937e-05
0.000675115
0.000185332
0.000551019
0.000403791
0.000455146
0.00061823
0.000382385
0.000823093
0.000326941
0.00101604
0.000283773
0.00119625
0.000249072
0.00136345
0.000220077
0.00151746
0.000194751
0.00165794
0.000171541
0.00178426
0.000149222
0.00189542
0.000126787
0.00199004
0.00010337
0.00206624
7.81799e-05
0.00212162
5.04541e-05
0.00215314
1.94387e-05
0.00215732
-1.59e-05
0.00212891
-5.69147e-05
0.00206189
-0.000105046
0.0019481
-0.00016326
0.00177634
-0.000236794
0.00153081
-0.000336505
0.00119121
-0.000486497
0.000746501
-0.000737807
0.000253792
-0.00116445
-8.10143e-05
-0.00170197
-0.001624
-0.000194236
0.000997216
1.83951e-05
0.000748873
0.000373157
0.000472633
0.000714155
0.000334117
0.00101995
0.000245223
0.0012903
0.000184795
0.00152859
0.0001441
0.00173919
0.000116342
0.00192631
9.66481e-05
0.00209341
8.19713e-05
0.00224305
7.04362e-05
0.00237697
6.08314e-05
0.00249618
5.23328e-05
0.00260105
4.43541e-05
0.00269138
3.64569e-05
0.00276645
2.82945e-05
0.00282506
1.95738e-05
0.00286544
1.00702e-05
0.00288497
-8.64925e-08
0.00288186
-1.27913e-05
0.00285114
-2.61969e-05
0.00278828
-4.21816e-05
0.00268642
-6.1404e-05
0.00253537
-8.57417e-05
0.0023184
-0.000119534
0.00200616
-0.000174264
0.00155153
-0.000283169
0.000927341
-0.000540267
0.000263805
-0.00103843
-0.0013602
0.000997216
0.00174609
0.00221872
0.00255284
0.00279806
0.00298286
0.00312696
0.0032433
0.00333995
0.00342192
0.00349235
0.00355319
0.00360552
0.00364987
0.00368633
0.00371462
0.0037342
0.00374427
0.00374418
0.00373139
0.00370519
0.00366301
0.00360161
0.00351587
0.00339633
0.00322207
0.0029389
0.00239863
0.0013602
)
;

boundaryField
{
    movingWall
    {
        type            calculated;
        value           uniform 0;
    }
    fixedWalls
    {
        type            calculated;
        value           uniform 0;
    }
    frontAndBack
    {
        type            empty;
        value           nonuniform 0();
    }
}


// ************************************************************************* //
