/*--------------------------------*- C++ -*----------------------------------*\
  =========                 |
  \\      /  F ield         | OpenFOAM: The Open Source CFD Toolbox
   \\    /   O peration     | Website:  https://openfoam.org
    \\  /    A nd           | Version:  7
     \\/     M anipulation  |
\*---------------------------------------------------------------------------*/
FoamFile
{
    version     2.0;
    format      ascii;
    class       volScalarField;
    location    "4.6";
    object      p;
}
// * * * * * * * * * * * * * * * * * * * * * * * * * * * * * * * * * * * * * //

dimensions      [0 2 -2 0 0 0 0];

internalField   nonuniform List<scalar> 
900
(
-2.66642e-08
-0.000300656
-0.000768593
-0.00123639
-0.00162505
-0.00187989
-0.00197452
-0.00189827
-0.001647
-0.00121899
-0.00061427
0.000164043
0.00110711
0.0021973
0.00340545
0.00468911
0.00599254
0.00724877
0.00838437
0.00932649
0.0100116
0.0103947
0.010458
0.0102162
0.00971947
0.00905146
0.00830499
0.00763284
0.00715971
0.00700864
0.000297536
-1.19842e-05
-0.000360526
-0.000695562
-0.00096522
-0.00113055
-0.00117044
-0.00107411
-0.000835598
-0.000451641
7.86722e-05
0.000752861
0.00156316
0.00249425
0.00352115
0.00460777
0.00570853
0.00676728
0.0077237
0.00851837
0.00910017
0.00943398
0.00950746
0.00933528
0.00896014
0.00844957
0.00788707
0.0073689
0.00699656
0.00685589
0.000781175
0.000324693
-3.50306e-05
-0.000332033
-0.000555657
-0.000681759
-0.000697694
-0.000597032
-0.000375206
-2.86516e-05
0.000444806
0.00104471
0.00176604
0.00259698
0.00351686
0.00449507
0.00549024
0.006452
0.00732478
0.00805313
0.00858874
0.00889806
0.00896889
0.00881434
0.00847315
0.00800579
0.0074872
0.00699881
0.00661699
0.00639686
0.00128495
0.000643759
0.000220196
-8.59327e-05
-0.000301457
-0.000416418
-0.000427899
-0.000335632
-0.000137689
0.00016941
0.000589546
0.00112529
0.00177559
0.00253323
0.00338228
0.00429634
0.00523758
0.00615772
0.00700154
0.0077122
0.00823857
0.00854345
0.00861083
0.00845045
0.0080981
0.00761123
0.0070617
0.00652748
0.00606954
0.00570693
0.00170644
0.000867854
0.000362146
2.60864e-05
-0.000201323
-0.000322829
-0.000344884
-0.00027338
-0.00010898
0.000151974
0.000515624
0.000988383
0.00157415
0.0022712
0.00306891
0.00394517
0.00486549
0.00578181
0.00663685
0.00736897
0.00792015
0.00824529
0.00832082
0.00815055
0.00776668
0.00722546
0.00660003
0.00597144
0.00539188
0.00484968
0.00195144
0.000918786
0.000324101
-5.41965e-05
-0.000307985
-0.000451149
-0.000498501
-0.000461355
-0.00034239
-0.000137191
0.000163338
0.000570307
0.00109356
0.0017379
0.00249898
0.00335951
0.00428903
0.00523845
0.00614683
0.00694487
0.0075637
0.00794556
0.00805455
0.00788464
0.00746249
0.00684381
0.00610686
0.00534259
0.00460201
0.00384816
0.00194217
0.000726954
4.32306e-05
-0.000384071
-0.000674875
-0.000852951
-0.000940381
-0.000952954
-0.000894581
-0.00075937
-0.00053449
-0.000203184
0.000251499
0.000842302
0.00157261
0.00243127
0.00339486
0.00441194
0.00541761
0.00633283
0.00707382
0.00756462
0.00775059
0.00760991
0.00715956
0.00645376
0.00557887
0.00464263
0.00370249
0.00269984
0.00161171
0.000229415
-0.000539433
-0.00101906
-0.00135525
-0.0015808
-0.00172416
-0.00180473
-0.0018269
-0.00178263
-0.00165458
-0.00141932
-0.00105138
-0.000528161
0.000164555
0.00102672
0.00203565
0.00314872
0.00429601
0.00538699
0.00631913
0.00699167
0.00732262
0.00726533
0.00681973
0.00603488
0.00500677
0.00386668
0.00268577
0.00138513
0.000900145
-0.000631244
-0.00147934
-0.00201329
-0.00240285
-0.00268937
-0.00290703
-0.00307822
-0.00320735
-0.00328379
-0.00328505
-0.00318004
-0.00293313
-0.00250935
-0.00188051
-0.0010324
2.29434e-05
0.0012512
0.00258178
0.00391361
0.00512232
0.00607495
0.00665101
0.00676576
0.00638977
0.00555886
0.00437748
0.003007
0.00153956
-0.000124856
-0.000246
-0.00190617
-0.00282667
-0.00341693
-0.00386877
-0.00423185
-0.00454577
-0.00483571
-0.00510605
-0.00534349
-0.00552018
-0.00559654
-0.00552507
-0.00525546
-0.00474135
-0.00394909
-0.00287004
-0.00152544
2.052e-05
0.00166007
0.00324596
0.00460581
0.005567
0.00598837
0.00579181
0.00498462
0.00367379
0.00205606
0.00025235
-0.00186066
-0.00187248
-0.00363869
-0.00462424
-0.00527335
-0.0057978
-0.00625548
-0.00669152
-0.00713413
-0.00758813
-0.00803809
-0.00845109
-0.00877875
-0.00896022
-0.0089268
-0.0086088
-0.0079456
-0.00689924
-0.0054661
-0.00369349
-0.00168757
0.0003845
0.00230597
0.00383733
0.00475749
0.00491122
0.00425146
0.00287291
0.00100953
-0.00118074
-0.00384706
-0.00401515
-0.00586239
-0.00690518
-0.00761616
-0.00822457
-0.0087967
-0.00938365
-0.0100174
-0.0107045
-0.0114284
-0.0121523
-0.0128194
-0.0133546
-0.0136682
-0.0136621
-0.0132402
-0.0123242
-0.0108713
-0.00889644
-0.00648978
-0.00382866
-0.00117379
0.00115587
0.00283215
0.00358446
0.00327074
0.00194423
-0.000130383
-0.00275101
-0.00609447
-0.00669737
-0.00859897
-0.00969068
-0.0104662
-0.0111696
-0.0118758
-0.0126427
-0.0135077
-0.0144803
-0.0155455
-0.0166641
-0.0177723
-0.0187812
-0.0195783
-0.0200324
-0.0200041
-0.0193625
-0.0180103
-0.0159092
-0.0131122
-0.00978852
-0.00623262
-0.00284812
-9.60353e-05
0.00159128
0.00191866
0.000847193
-0.00135063
-0.00442712
-0.00858792
-0.00992758
-0.0118566
-0.0129882
-0.0138292
-0.0146355
-0.0154914
-0.0164632
-0.0175952
-0.0189029
-0.020375
-0.021973
-0.0236286
-0.0252402
-0.0266723
-0.0277582
-0.0283089
-0.0281306
-0.0270525
-0.0249635
-0.0218521
-0.0178509
-0.0132644
-0.00857177
-0.00438292
-0.00133964
3.52998e-05
-0.000468108
-0.00262049
-0.00614248
-0.0112713
-0.0136978
-0.0156293
-0.0167906
-0.0176938
-0.018604
-0.0196162
-0.0208069
-0.0222301
-0.0239101
-0.0258428
-0.0279937
-0.0302931
-0.0326295
-0.0348462
-0.0367403
-0.0380702
-0.0385708
-0.0379825
-0.0361086
-0.0328374
-0.0282294
-0.0225617
-0.0163594
-0.0103762
-0.00549925
-0.00256135
-0.00205295
-0.0038799
-0.0077772
-0.0140254
-0.0179836
-0.019898
-0.0210772
-0.022032
-0.0230347
-0.0241935
-0.0255982
-0.0273156
-0.0293823
-0.0318049
-0.0345566
-0.0375697
-0.0407267
-0.0438523
-0.0467099
-0.0490054
-0.0503993
-0.0505318
-0.0491249
-0.0459212
-0.0408755
-0.0341896
-0.0263827
-0.0183162
-0.0111288
-0.00603504
-0.00393724
-0.00501961
-0.00913248
-0.0166366
-0.0227462
-0.0246339
-0.0258171
-0.026801
-0.0278661
-0.0291373
-0.0307225
-0.0327058
-0.0351398
-0.0380452
-0.0414059
-0.0451599
-0.049187
-0.0532973
-0.0572245
-0.060626
-0.063098
-0.0642054
-0.0634816
-0.0606059
-0.0553749
-0.0478584
-0.0385009
-0.0282008
-0.0183089
-0.0104551
-0.00608331
-0.00584822
-0.00989516
-0.0187556
-0.027938
-0.0298057
-0.0309753
-0.0319482
-0.0330181
-0.0343338
-0.0360285
-0.0382091
-0.0409482
-0.0442835
-0.0482122
-0.0526798
-0.0575658
-0.0626697
-0.0677002
-0.072273
-0.0759218
-0.0781221
-0.0783196
-0.0760357
-0.0709111
-0.0628486
-0.0521477
-0.0396481
-0.0268218
-0.0156839
-0.0083099
-0.00604082
-0.00958994
-0.0198427
-0.0335114
-0.03539
-0.0365224
-0.0374179
-0.0383972
-0.0396458
-0.0413326
-0.0435951
-0.0465301
-0.050194
-0.0545977
-0.0596947
-0.0653648
-0.0713985
-0.0774841
-0.0832028
-0.0880359
-0.091386
-0.0926095
-0.0910998
-0.0863376
-0.0780381
-0.0663013
-0.0518099
-0.0360269
-0.0212468
-0.0101865
-0.00506516
-0.00751712
-0.0190976
-0.0394339
-0.0413885
-0.0424475
-0.04316
-0.0439024
-0.044918
-0.0464275
-0.0486079
-0.0515841
-0.0554315
-0.0601728
-0.0657667
-0.0720916
-0.0789282
-0.0859459
-0.0926964
-0.0986186
-0.103058
-0.105297
-0.104611
-0.100352
-0.0920498
-0.0795794
-0.063392
-0.0448046
-0.0262246
-0.0109152
-0.00208462
-0.00267261
-0.0153667
-0.0457133
-0.0478531
-0.0487762
-0.0491392
-0.0494296
-0.0499822
-0.0510904
-0.0529806
-0.0558077
-0.0596634
-0.0645773
-0.0705072
-0.0773245
-0.0847962
-0.0925714
-0.100174
-0.107005
-0.112363
-0.115471
-0.115513
-0.11173
-0.103489
-0.0904511
-0.072805
-0.0516159
-0.0292184
-0.0092327
0.00415327
0.00635193
-0.00701412
-0.0524427
-0.0549258
-0.0555929
-0.0553433
-0.0548744
-0.0546608
-0.0550922
-0.0564519
-0.0589219
-0.0626026
-0.0675202
-0.0736224
-0.080765
-0.0886935
-0.0970315
-0.105273
-0.112783
-0.118815
-0.122534
-0.123062
-0.119535
-0.111191
-0.0975039
-0.0784134
-0.054686
-0.0284272
-0.00337898
0.0154187
0.0214909
0.00826937
-0.0598895
-0.062903
-0.0630702
-0.0617891
-0.0601309
-0.0587692
-0.0582079
-0.0587848
-0.0606967
-0.0640364
-0.068813
-0.0749476
-0.082272
-0.0904971
-0.0992135
-0.107879
-0.11582
-0.122241
-0.126252
-0.126905
-0.123247
-0.114402
-0.09968
-0.0788144
-0.0522748
-0.0218483
0.00882659
0.0340552
0.0453615
0.0337719
-0.068683
-0.0723449
-0.0715064
-0.0685244
-0.0650875
-0.0621186
-0.0602287
-0.0597865
-0.0609749
-0.0638527
-0.0683929
-0.0744679
-0.081868
-0.0902642
-0.0992038
-0.108101
-0.116233
-0.122751
-0.126702
-0.127064
-0.122765
-0.112827
-0.0964196
-0.0730784
-0.0429971
-0.00761233
0.0297391
0.0629381
0.081484
0.0742445
-0.0802329
-0.0842592
-0.0813561
-0.0756134
-0.0696142
-0.0645149
-0.0609721
-0.0593234
-0.0596882
-0.0620535
-0.0663175
-0.0722972
-0.0797193
-0.088202
-0.0972422
-0.106203
-0.114307
-0.120643
-0.124181
-0.123802
-0.118337
-0.106646
-0.0877335
-0.0609274
-0.0261738
0.0155277
0.0613603
0.105214
0.134453
0.136396
-0.0976968
-0.100417
-0.0932129
-0.0830678
-0.0735068
-0.0657197
-0.0602511
-0.057295
-0.0568277
-0.0587111
-0.062739
-0.0686429
-0.0760765
-0.0845964
-0.0936431
-0.102525
-0.110407
-0.116315
-0.119136
-0.117654
-0.110532
-0.0964822
-0.0742814
-0.0429685
-0.00212361
0.0477258
0.104555
0.163488
0.209476
0.228807
-0.128137
-0.123818
-0.10778
-0.0907701
-0.0764027
-0.0653675
-0.0578028
-0.0535723
-0.0523939
-0.0539352
-0.0578478
-0.0637567
-0.071235
-0.0797749
-0.088762
-0.0974537
-0.104964
-0.110259
-0.112158
-0.109363
-0.100298
-0.0835501
-0.057586
-0.0210178
0.0271776
0.0873531
0.158868
0.238051
0.310626
0.363193
-0.187429
-0.157763
-0.1253
-0.0980341
-0.0773669
-0.062661
-0.0531044
-0.0479045
-0.046352
-0.0478469
-0.0518712
-0.0579397
-0.0655508
-0.0741437
-0.083063
-0.0915305
-0.098624
-0.103262
-0.104202
-0.100035
-0.0892791
-0.0700817
-0.0406086
0.001084
0.0570015
0.129092
0.219144
0.326387
0.440131
0.566412
-0.319045
-0.197887
-0.137147
-0.0970212
-0.0702923
-0.053179
-0.0431178
-0.038243
-0.037304
-0.0394672
-0.0441119
-0.0507028
-0.0587141
-0.0675751
-0.0766275
-0.085093
-0.0920501
-0.0964125
-0.0969134
-0.0920471
-0.0804216
-0.0599905
-0.028631
0.0161568
0.0775654
0.159982
0.269837
0.41555
0.603999
0.89357
-0.646136
-0.234162
-0.10564
-0.0620113
-0.0384863
-0.0253261
-0.0195329
-0.0184784
-0.0205906
-0.0251054
-0.0315621
-0.0395628
-0.0486884
-0.0584533
-0.0682682
-0.0774121
-0.0850125
-0.0900354
-0.0912914
-0.0874569
-0.0766946
-0.0572764
-0.0270604
0.0166645
0.0776759
0.162233
0.282753
0.467486
0.773703
1.3676
)
;

boundaryField
{
    movingWall
    {
        type            zeroGradient;
    }
    fixedWalls
    {
        type            zeroGradient;
    }
    frontAndBack
    {
        type            empty;
    }
}


// ************************************************************************* //
