/*--------------------------------*- C++ -*----------------------------------*\
  =========                 |
  \\      /  F ield         | OpenFOAM: The Open Source CFD Toolbox
   \\    /   O peration     | Website:  https://openfoam.org
    \\  /    A nd           | Version:  7
     \\/     M anipulation  |
\*---------------------------------------------------------------------------*/
FoamFile
{
    version     2.0;
    format      ascii;
    class       surfaceScalarField;
    location    "4.6";
    object      phi;
}
// * * * * * * * * * * * * * * * * * * * * * * * * * * * * * * * * * * * * * //

dimensions      [0 3 -1 0 0 0 0];

internalField   nonuniform List<scalar> 
1740
(
6.18861e-07
-6.18836e-07
1.56456e-07
4.62404e-07
-1.67409e-06
1.83054e-06
-4.70575e-06
3.03166e-06
-8.62327e-06
3.91753e-06
-1.31201e-05
4.49683e-06
-1.79411e-05
4.82102e-06
-2.28808e-05
4.93968e-06
-2.77657e-05
4.88491e-06
-3.24353e-05
4.66954e-06
-3.67265e-05
4.29124e-06
-4.04659e-05
3.73936e-06
-4.34686e-05
3.00277e-06
-4.55465e-05
2.07792e-06
-4.65228e-05
9.76224e-07
-4.62524e-05
-2.70339e-07
-4.46461e-05
-1.60638e-06
-4.16947e-05
-2.95136e-06
-3.74893e-05
-4.20543e-06
-3.22313e-05
-5.25795e-06
-2.62311e-05
-6.00019e-06
-1.98903e-05
-6.34082e-06
-1.36689e-05
-6.22137e-06
-8.04013e-06
-5.6288e-06
-3.43748e-06
-4.60265e-06
-1.95676e-07
-3.24181e-06
1.53208e-06
-1.72775e-06
1.78032e-06
-2.48241e-07
9.32132e-07
8.48188e-07
9.32135e-07
-4.47538e-07
-1.713e-07
-3.44862e-06
3.46348e-06
-9.39953e-06
7.78145e-06
-1.79096e-05
1.15417e-05
-2.83992e-05
1.44071e-05
-4.02498e-05
1.63474e-05
-5.28844e-05
1.74557e-05
-6.57885e-05
1.78438e-05
-7.84956e-05
1.7592e-05
-9.05621e-05
1.67361e-05
-0.000101546
1.52748e-05
-0.000110994
1.31878e-05
-0.00011845
1.04583e-05
-0.000123469
7.09676e-06
-0.000125654
3.16222e-06
-0.000124708
-1.21657e-06
-0.000120463
-5.85142e-06
-0.000112949
-1.04654e-05
-0.000102419
-1.47352e-05
-8.93696e-05
-1.83077e-05
-7.45291e-05
-2.08407e-05
-5.88196e-05
-2.20504e-05
-4.32825e-05
-2.17584e-05
-2.89792e-05
-1.99321e-05
-1.68711e-05
-1.67108e-05
-7.6932e-06
-1.24197e-05
-1.84691e-06
-7.57404e-06
7.79283e-07
-2.87444e-06
9.02984e-07
7.24493e-07
1.83512e-06
-1.94579e-06
1.77449e-06
-8.21538e-06
9.73307e-06
-1.8569e-05
1.8135e-05
-3.23868e-05
2.53596e-05
-4.88708e-05
3.08911e-05
-6.71901e-05
3.46667e-05
-8.65514e-05
3.68169e-05
-0.000106219
3.75117e-05
-0.000125504
3.68772e-05
-0.00014374
3.49716e-05
-0.000160261
3.17957e-05
-0.000174397
2.73238e-05
-0.000185483
2.15447e-05
-0.00019289
1.4504e-05
-0.000196072
6.34342e-06
-0.000194618
-2.6701e-06
-0.000188325
-1.21444e-05
-0.000177252
-2.15381e-05
-0.000161768
-3.02195e-05
-0.00014257
-3.75057e-05
-0.000120673
-4.27376e-05
-9.73562e-05
-4.53674e-05
-7.40669e-05
-4.50477e-05
-5.22883e-05
-4.17107e-05
-3.33783e-05
-3.56208e-05
-1.83985e-05
-2.73995e-05
-7.94863e-06
-1.80239e-05
-2.01553e-06
-8.80755e-06
1.25791e-07
-1.41682e-06
1.9609e-06
-3.49697e-06
5.27146e-06
-1.31259e-05
1.9362e-05
-2.79537e-05
3.29628e-05
-4.69626e-05
4.43685e-05
-6.91046e-05
5.30332e-05
-9.33622e-05
5.89242e-05
-0.000118779
6.22338e-05
-0.000144461
6.31937e-05
-0.000169557
6.19732e-05
-0.000193234
5.8648e-05
-0.000214656
5.3218e-05
-0.000232985
4.5653e-05
-0.000247394
3.59535e-05
-0.000257104
2.42137e-05
-0.000261439
1.06789e-05
-0.000259894
-4.21463e-06
-0.000252207
-1.98319e-05
-0.000238428
-3.53171e-05
-0.000218976
-4.96711e-05
-0.000194668
-6.18137e-05
-0.00016671
-7.0696e-05
-0.000136643
-7.54339e-05
-0.000106241
-7.54497e-05
-7.73523e-05
-7.05999e-05
-5.17068e-05
-6.12663e-05
-3.07088e-05
-4.83975e-05
-1.52358e-05
-3.34969e-05
-5.47716e-06
-1.85661e-05
-8.5489e-07
-6.03908e-06
1.10601e-06
-4.95663e-06
1.02281e-05
-1.78619e-05
3.22673e-05
-3.70658e-05
5.21667e-05
-6.10989e-05
6.84015e-05
-8.86323e-05
8.05666e-05
-0.000118466
8.87574e-05
-0.000149508
9.32761e-05
-0.000180749
9.44346e-05
-0.000211223
9.24474e-05
-0.000239978
8.74032e-05
-0.000266054
7.92942e-05
-0.000288481
6.808e-05
-0.000306297
5.37693e-05
-0.000318588
3.65049e-05
-0.000324549
1.66392e-05
-0.000323554
-5.20901e-06
-0.000315237
-2.81487e-05
-0.000299579
-5.09755e-05
-0.000276971
-7.2279e-05
-0.000248266
-9.05192e-05
-0.000214784
-0.000104178
-0.000178274
-0.000111944
-0.000140807
-0.000112917
-0.000104606
-0.000106801
-7.18231e-05
-9.40491e-05
-4.4285e-05
-7.59356e-05
-2.32502e-05
-5.45317e-05
-9.2208e-06
-3.25955e-05
-1.85552e-06
-1.34044e-05
-7.4951e-07
-6.29841e-06
1.65265e-05
-2.23043e-05
4.82731e-05
-4.5688e-05
7.55505e-05
-7.4524e-05
9.72375e-05
-0.000107195
0.000113237
-0.000142322
0.000123885
-0.000178701
0.000129655
-0.000215237
0.00013097
-0.000250888
0.000128099
-0.000284624
0.000121139
-0.000315395
0.000110065
-0.000342127
9.48127e-05
-0.000363742
7.53836e-05
-0.000379189
5.19521e-05
-0.000387512
2.49628e-05
-0.00038793
-4.79091e-06
-0.000379904
-3.61753e-05
-0.000363264
-6.76153e-05
-0.000338285
-9.72576e-05
-0.000305765
-0.000123039
-0.000267064
-0.000142879
-0.000224093
-0.000154915
-0.000179218
-0.000157792
-0.000135088
-0.000150931
-9.43717e-05
-0.000134765
-5.94478e-05
-0.00011086
-3.20946e-05
-8.18849e-05
-1.32455e-05
-5.14446e-05
-2.87043e-06
-2.37794e-05
-3.61993e-06
-7.52448e-06
2.4051e-05
-2.64118e-05
6.71604e-05
-5.37167e-05
0.000102855
-8.70838e-05
0.000130605
-0.000124621
0.000150774
-0.000164785
0.000164049
-0.000206278
0.000171148
-0.000247948
0.00017264
-0.000288711
0.000168862
-0.000327493
0.00015992
-0.000363184
0.000145756
-0.000394633
0.000126262
-0.000420651
0.000101402
-0.000440049
7.13495e-05
-0.000451689
3.6603e-05
-0.000454589
-1.8909e-06
-0.000447956
-4.28087e-05
-0.000431386
-8.41853e-05
-0.000404928
-0.000123715
-0.000369221
-0.000158747
-0.000325574
-0.000186526
-0.000276004
-0.000204486
-0.000223171
-0.000210624
-0.00017021
-0.000203891
-0.000120432
-0.000184543
-7.69401e-05
-0.000154352
-4.22131e-05
-0.000116612
-1.77666e-05
-7.58911e-05
-3.96473e-06
-3.75813e-05
-7.58465e-06
-8.63637e-06
3.26874e-05
-3.01584e-05
8.86825e-05
-6.10766e-05
0.000133774
-9.86506e-05
0.000168179
-0.000140741
0.000192865
-0.000185664
0.000208972
-0.00023205
0.000217534
-0.000278718
0.000219308
-0.000324573
0.000214718
-0.000368527
0.000203873
-0.000409442
0.000186672
-0.00044611
0.00016293
-0.000477246
0.000132537
-0.000501513
9.56172e-05
-0.000517578
5.2668e-05
-0.000524174
4.70483e-06
-0.000520237
-4.67453e-05
-0.000504999
-9.94239e-05
-0.000478172
-0.000150542
-0.000440108
-0.00019681
-0.00039195
-0.000234684
-0.00033573
-0.000260706
-0.00027437
-0.000271984
-0.000211538
-0.000266723
-0.000151323
-0.000244759
-9.77542e-05
-0.00020792
-5.42508e-05
-0.000160115
-2.31172e-05
-0.000107025
-5.24143e-06
-5.54571e-05
-1.28261e-05
-9.62658e-06
4.23139e-05
-3.35053e-05
0.000112561
-6.76775e-05
0.000167946
-0.000109072
0.000209573
-0.000155339
0.000239132
-0.000204681
0.000258314
-0.000255682
0.000268535
-0.000307161
0.000270787
-0.00035804
0.000265596
-0.000407247
0.000253081
-0.000453649
0.000233074
-0.000496004
0.000205285
-0.00053295
0.000169483
-0.000563011
0.000125678
-0.000584639
7.42955e-05
-0.00059627
1.63357e-05
-0.000596477
-4.65378e-05
-0.000584057
-0.000111844
-0.000558263
-0.000176336
-0.000519015
-0.000236058
-0.00046713
-0.000286568
-0.000404516
-0.000323321
-0.000334263
-0.000342236
-0.00026057
-0.000340416
-0.000188417
-0.000316911
-0.000122996
-0.000273342
-6.89589e-05
-0.000214152
-2.96926e-05
-0.000146291
-6.82084e-06
-7.83289e-05
-1.96469e-05
-1.04784e-05
5.27924e-05
-3.63943e-05
0.000138477
-7.34004e-05
0.000204952
-0.000118152
0.000254325
-0.00016813
0.000289109
-0.00022145
0.000311634
-0.000276679
0.000323764
-0.000332656
0.000326764
-0.000388349
0.000321289
-0.000442736
0.000307468
-0.000494718
0.000285056
-0.000543056
0.000253623
-0.000586337
0.000212765
-0.00062297
0.00016231
-0.0006512
0.000102526
-0.000669172
3.43072e-05
-0.000675045
-4.06647e-05
-0.000667121
-0.000119768
-0.000644086
-0.000199371
-0.000605271
-0.000274873
-0.000550972
-0.000340867
-0.000482761
-0.000391532
-0.000403718
-0.000421279
-0.000318478
-0.000425656
-0.00023297
-0.000402419
-0.00015377
-0.000352542
-8.71306e-05
-0.000280792
-3.79215e-05
-0.0001955
-8.83309e-06
-0.000107417
-2.848e-05
-1.1169e-05
6.39613e-05
-3.87531e-05
0.000166061
-7.81027e-05
0.000244301
-0.000125659
0.000301882
-0.00017877
0.00034222
-0.000235493
0.000368357
-0.000294395
0.000382666
-0.00035436
0.00038673
-0.000414428
0.000381357
-0.000473656
0.000366696
-0.000531014
0.000342414
-0.000585306
0.000307914
-0.000635114
0.000262573
-0.000678773
0.000205969
-0.00071437
0.000138123
-0.00073978
5.97181e-05
-0.000752767
-2.76778e-05
-0.000751109
-0.000121426
-0.000732843
-0.000217638
-0.000696566
-0.00031115
-0.000641833
-0.000395599
-0.000569602
-0.000463764
-0.000482645
-0.000508236
-0.000385808
-0.000522493
-0.000285901
-0.000502327
-0.00019106
-0.000447383
-0.000109547
-0.000362305
-4.8249e-05
-0.000256798
-1.14165e-05
-0.00014425
-3.98965e-05
-1.16734e-05
7.56348e-05
-4.05057e-05
0.000194893
-8.16361e-05
0.000285432
-0.000131347
0.000351593
-0.000186886
0.000397758
-0.000246271
0.000427742
-0.000308085
0.00044448
-0.000371274
0.000449918
-0.000434967
0.000445051
-0.000498329
0.000430059
-0.000560438
0.000404522
-0.000620186
0.000367662
-0.00067621
0.000318597
-0.000726842
0.000256601
-0.000770084
0.000181366
-0.000803624
9.32573e-05
-0.00082489
-6.41131e-06
-0.000831173
-0.000115143
-0.000819841
-0.000228971
-0.000788648
-0.000342343
-0.000736191
-0.000448056
-0.00066248
-0.000537475
-0.000569571
-0.000601145
-0.000462112
-0.000629952
-0.000347534
-0.000616904
-0.000235575
-0.000559343
-0.00013691
-0.000460969
-6.11203e-05
-0.000332588
-1.4718e-05
-0.000190652
-5.46146e-05
-1.19711e-05
8.76059e-05
-4.15894e-05
0.000224512
-8.38739e-05
0.000327716
-0.000134996
0.000402715
-0.000192126
0.000454888
-0.000253254
0.00048887
-0.000316984
0.000508211
-0.000382332
0.000515266
-0.000448532
0.000511251
-0.00051488
0.000496407
-0.000580596
0.000470238
-0.000644716
0.000431782
-0.000706001
0.000379882
-0.000762871
0.000313471
-0.000813356
0.000231852
-0.000855078
0.000134979
-0.000885258
2.37689e-05
-0.000900816
-9.95846e-05
-0.000898505
-0.000231282
-0.000875206
-0.000365642
-0.000828392
-0.000494871
-0.000756785
-0.000609082
-0.000661216
-0.000696713
-0.000545535
-0.000745633
-0.00041727
-0.000745169
-0.000287546
-0.000689067
-0.000169756
-0.000578759
-7.69571e-05
-0.000425387
-1.88927e-05
-0.000248716
-7.35073e-05
-1.20523e-05
9.96582e-05
-4.19749e-05
0.000254434
-8.47477e-05
0.000370489
-0.000136465
0.000454432
-0.000194229
0.000512653
-0.000256003
0.000550644
-0.000320412
0.000572619
-0.000386539
0.000581393
-0.000453733
0.000578445
-0.000521439
0.000564113
-0.000589055
0.000537854
-0.00065581
0.000498537
-0.000720669
0.000444741
-0.000782246
0.000375048
-0.000838734
0.00028834
-0.000887854
0.000184098
-0.000926815
6.273e-05
-0.000952338
-7.40617e-05
-0.000960735
-0.000222885
-0.000948094
-0.000378283
-0.000910695
-0.000532269
-0.000845701
-0.000674075
-0.000752183
-0.000790232
-0.000632423
-0.000865393
-0.000493208
-0.000884384
-0.000346461
-0.000835814
-0.000208318
-0.000716902
-9.61183e-05
-0.000537586
-2.41008e-05
-0.000320734
-9.7608e-05
-1.19262e-05
0.000111584
-4.16902e-05
0.000284198
-8.42887e-05
0.000413088
-0.000135749
0.000505892
-0.000193103
0.000570007
-0.000254274
0.000611814
-0.000317898
0.000636244
-0.000383127
0.000646621
-0.000449425
0.000644743
-0.000516401
0.000631089
-0.000583659
0.000605111
-0.000650674
0.000565552
-0.000716689
0.000510757
-0.000780622
0.000438981
-0.000840976
0.000348694
-0.00089576
0.000238881
-0.000942401
0.000109371
-0.000977651
-3.88116e-05
-0.000997683
-0.000202853
-0.000997985
-0.000377982
-0.000973741
-0.000556513
-0.00092043
-0.000727387
-0.000834908
-0.000875754
-0.000717057
-0.000983244
-0.000571792
-0.00102965
-0.000410749
-0.000996857
-0.000252348
-0.000875303
-0.000118839
-0.000671095
-3.05002e-05
-0.000409072
-0.000128108
-1.163e-05
0.000123214
-4.08475e-05
0.000313416
-8.26752e-05
0.000454915
-0.000133051
0.000556268
-0.000188908
0.000625864
-0.000248116
0.000671022
-0.000309315
0.000697443
-0.000371719
0.000709025
-0.000434914
0.000707938
-0.000498686
0.00069486
-0.00056287
0.000669296
-0.000627232
0.000629914
-0.000691362
0.000574886
-0.000754577
0.000502197
-0.000815831
0.000409948
-0.000873604
0.000296655
-0.000925796
0.000161563
-0.000969422
4.81359e-06
-0.00100094
-0.000171338
-0.00101551
-0.00036341
-0.00100753
-0.000564488
-0.000970909
-0.00076401
-0.000900049
-0.000946615
-0.00079169
-0.0010916
-0.000647582
-0.00117376
-0.000477481
-0.00116696
-0.000300902
-0.00105188
-0.000145147
-0.00082685
-3.82349e-05
-0.000515984
-0.000166343
-1.12393e-05
0.000134454
-3.96739e-05
0.00034185
-8.02832e-05
0.000495525
-0.000128841
0.000604825
-0.000182139
0.000679163
-0.000237974
0.000726857
-0.000294988
0.000754458
-0.000352469
0.000766505
-0.000410137
0.000765606
-0.000467971
0.000752695
-0.000526066
0.000727391
-0.000584511
0.000688359
-0.000643296
0.00063367
-0.000702218
0.000561118
-0.000760786
0.000468516
-0.000818101
0.00035397
-0.000872687
0.000216149
-0.000922425
5.45511e-05
-0.000963886
-0.000129877
-0.000992685
-0.000334611
-0.00100284
-0.000554332
-0.000987054
-0.000779797
-0.000937396
-0.000996272
-0.000847032
-0.00118197
-0.00071332
-0.00130747
-0.000542164
-0.00133811
-0.000352119
-0.00124193
-0.000174768
-0.0010042
-4.74221e-05
-0.00064333
-0.000213765
-1.08819e-05
0.000145336
-3.85485e-05
0.000369517
-7.7743e-05
0.000534719
-0.00012393
0.000651012
-0.000173696
0.000728929
-0.000224756
0.000777917
-0.000275778
0.00080548
-0.000326153
0.00081688
-0.000375769
0.000815222
-0.000424831
0.000801757
-0.000473717
0.000776277
-0.000522872
0.000737514
-0.000572721
0.00068352
-0.000623588
0.000611985
-0.000675604
0.000520532
-0.00072859
0.000406956
-0.000781889
0.000269448
-0.000834163
0.000106825
-0.000882916
-8.11238e-05
-0.00092436
-0.000293167
-0.00095277
-0.000525923
-0.000960307
-0.000772259
-0.000937239
-0.00101934
-0.000873222
-0.00124598
-0.000760397
-0.00142029
-0.000598772
-0.00149974
-0.000403063
-0.00143764
-0.000207033
-0.00120023
-5.81467e-05
-0.000792216
-0.000271912
-1.07585e-05
0.000156094
-3.80535e-05
0.000396812
-7.60061e-05
0.000572672
-0.000119534
0.00069454
-0.000164938
0.000774333
-0.000209873
0.000822851
-0.000253096
0.000848703
-0.000294174
0.000857958
-0.000333226
0.000854274
-0.00037073
0.00083926
-0.000407383
0.00081293
-0.000444012
0.000774143
-0.000481494
0.000721001
-0.00052069
0.000651182
-0.000562369
0.000562211
-0.000607096
0.000451683
-0.000655074
0.000317426
-0.000705914
0.000157666
-0.000758203
-2.88346e-05
-0.000809197
-0.000242174
-0.000854011
-0.000481108
-0.000885105
-0.000741166
-0.000891866
-0.00101258
-0.000861143
-0.00127671
-0.000779724
-0.00150171
-0.000640068
-0.00163939
-0.000449677
-0.00162803
-0.00024081
-0.0014091
-7.04765e-05
-0.00096255
-0.000342388
-1.11812e-05
0.000167275
-3.90522e-05
0.000424683
-7.64319e-05
0.000610051
-0.000117335
0.000735444
-0.000157706
0.000814703
-0.000195216
0.000860362
-0.000228844
0.000882332
-0.000258462
0.000887576
-0.000284519
0.000880332
-0.000307841
0.000862581
-0.000329489
0.000834579
-0.000350688
0.000795342
-0.000372764
0.000743078
-0.000397099
0.000675516
-0.000425059
0.000590171
-0.000457911
0.000484535
-0.000496682
0.000356196
-0.000541936
0.00020292
-0.000593467
2.26965e-05
-0.000649737
-0.000185904
-0.00070728
-0.000423565
-0.000759699
-0.000688746
-0.000796713
-0.000975566
-0.000803668
-0.00126975
-0.000762781
-0.0015426
-0.000658188
-0.00174399
-0.000486888
-0.00179933
-0.000274466
-0.00162152
-8.45109e-05
-0.00115251
-0.000426899
-1.2644e-05
0.000179919
-4.28157e-05
0.000454855
-8.0902e-05
0.000648138
-0.000119535
0.000774077
-0.000154286
0.000849454
-0.000183035
0.000889112
-0.000205212
0.000904509
-0.000221193
0.000903556
-0.000231909
0.000891048
-0.000238623
0.000869295
-0.000242811
0.000838766
-0.000246102
0.000798634
-0.000250253
0.000747229
-0.000257108
0.000682371
-0.000268561
0.000601624
-0.000286482
0.000502456
-0.000312609
0.000382323
-0.000348376
0.000238688
-0.000394681
6.90007e-05
-0.000451344
-0.000129241
-0.000516596
-0.000358312
-0.000585922
-0.000619421
-0.00065064
-0.000910848
-0.00069636
-0.00122403
-0.000702464
-0.0015365
-0.000645258
-0.00180119
-0.000508787
-0.0019358
-0.000305823
-0.00182449
-0.000100466
-0.00135786
-0.000527366
-1.59596e-05
0.000195879
-5.12259e-05
0.000490121
-9.19547e-05
0.000688866
-0.000128841
0.000810963
-0.000157237
0.000877849
-0.000175613
0.000907487
-0.00018422
0.000913116
-0.000184226
0.000903562
-0.000177226
0.000884049
-0.000165028
0.000857097
-0.000149564
0.000823302
-0.000132859
0.000781929
-0.000117052
0.000731421
-0.000104375
0.000669695
-9.71355e-05
0.000594385
-9.76766e-05
0.000502997
-0.000108298
0.000392945
-0.000131147
0.000261537
-0.000168039
0.000105893
-0.000220133
-7.71468e-05
-0.000287417
-0.000291028
-0.000367724
-0.000539114
-0.00045506
-0.000823511
-0.000537224
-0.00114187
-0.000593292
-0.00148043
-0.000593713
-0.00180077
-0.000508688
-0.00202082
-0.000332006
-0.00200117
-0.000118751
-0.00157112
-0.000646116
-2.25135e-05
0.000218392
-6.70686e-05
0.000534676
-0.000112861
0.000734659
-0.000148224
0.000846326
-0.000168833
0.000898458
-0.000174442
0.000913097
-0.000166683
0.000905357
-0.000147877
0.000884756
-0.000120498
0.000856669
-8.69814e-05
0.00082358
-4.97578e-05
0.000786079
-1.1192e-05
0.000743363
2.62829e-05
0.000693946
6.01519e-05
0.000635826
8.78109e-05
0.000566726
0.000106592
0.000484216
0.000113791
0.000385746
0.000106729
0.000268599
8.28367e-05
0.000129785
3.98156e-05
-3.41256e-05
-2.39256e-05
-0.000227287
-0.000108699
-0.000454341
-0.000211957
-0.000720253
-0.000325389
-0.00102844
-0.000430707
-0.00137511
-0.000495955
-0.00173552
-0.000478769
-0.00203801
-0.000348954
-0.00213098
-0.00013988
-0.00178019
-0.000785997
-3.47143e-05
0.000253107
-9.43482e-05
0.00059431
-0.000147341
0.000787652
-0.00017994
0.000878924
-0.000189484
0.000908002
-0.000178182
0.000901795
-0.000149806
0.000876982
-0.00010826
0.000843209
-5.70899e-05
0.0008055
5.54353e-07
0.000765936
6.19206e-05
0.000724712
0.00012427
0.000681013
0.000184996
0.000633221
0.000241447
0.000579374
0.000290888
0.000517285
0.000330476
0.000444628
0.00035726
0.000358961
0.00036819
0.000257669
0.000360138
0.000137837
0.000329831
-3.819e-06
0.000274337
-0.000171793
0.000190984
-0.000370988
7.88274e-05
-0.000608097
-5.8852e-05
-0.000890757
-0.000209421
-0.00122454
-0.000343115
-0.00160183
-0.000408922
-0.0019722
-0.000350201
-0.0021897
-0.000163876
-0.00196652
-0.000949872
-5.6713e-05
0.00030982
-0.000138226
0.000675823
-0.000197932
0.000847358
-0.00022242
0.000903413
-0.000213503
0.000899085
-0.000177643
0.000865935
-0.000121693
0.000821031
-5.15206e-05
0.000773037
2.81791e-05
0.0007258
0.000113667
0.000680448
0.000201799
0.000636581
0.000289846
0.000592967
0.000375185
0.000547881
0.000455205
0.000499355
0.000527201
0.000445289
0.000588319
0.000383511
0.000635511
0.000311769
0.000665501
0.000227679
0.000674723
0.000128615
0.000659308
1.15964e-05
0.000615037
-0.000127523
0.000537455
-0.000293406
0.000422378
-0.000493019
0.000267786
-0.000736165
7.87957e-05
-0.00103555
-0.000122578
-0.00140046
-0.00028434
-0.00181044
-0.000324245
-0.0021498
-0.000188446
-0.00210231
-0.00113832
-9.51581e-05
0.000404978
-0.000202911
0.000783576
-0.000259957
0.000904403
-0.000261301
0.000904757
-0.000218392
0.000856176
-0.000144298
0.000791841
-4.97419e-05
0.000726475
5.74081e-05
0.000665887
0.000171594
0.000611614
0.000288839
0.000563202
0.000406132
0.000519288
0.00052098
0.000478119
0.000631088
0.000437773
0.000734157
0.000396286
0.000827746
0.0003517
0.000909188
0.000302069
0.000975518
0.000245439
0.0010234
0.000179797
0.00104903
0.000102983
0.00104796
1.26723e-05
0.00101535
-9.49122e-05
0.000945262
-0.000223322
0.00083107
-0.000378827
0.000666119
-0.000571214
0.000447001
-0.000816435
0.00018373
-0.00113718
-7.98804e-05
-0.00154683
-0.00024952
-0.00198016
-0.000205803
-0.00214603
-0.00134412
-0.000158163
0.000563141
-0.00028043
0.000905843
-0.000301794
0.000925768
-0.000245539
0.000848501
-0.000140242
0.00075088
-7.05664e-06
0.000658655
0.00014016
0.000579259
0.000292837
0.00051321
0.000445835
0.000458617
0.000596026
0.000413011
0.000741347
0.000373967
0.00088021
0.000339256
0.00101113
0.000306856
0.00113248
0.000274929
0.00124241
0.000241778
0.00133866
0.000205818
0.00141857
0.000165524
0.00147899
0.000119377
0.00151617
6.5805e-05
0.00152516
3.68564e-06
0.0015012
-7.09559e-05
0.0014373
-0.000159419
0.00132536
-0.000266892
0.00115549
-0.000401343
0.000916844
-0.000577788
0.00060396
-0.000824301
0.000239064
-0.00118193
-8.49261e-05
-0.00165617
-0.000196472
-0.00203449
-0.00154059
-0.000242739
0.00080588
-0.000302294
0.000965398
-0.0002057
0.000829174
-3.10684e-05
0.00067387
0.000173303
0.000546509
0.000384095
0.000447863
0.000590165
0.000373189
0.000786561
0.000316813
0.000971505
0.000273673
0.00114466
0.000239858
0.00130617
0.000212457
0.00145617
0.000189255
0.00159452
0.000168505
0.00172067
0.00014878
0.00183358
0.000128873
0.00193166
0.000107731
0.00201279
8.43985e-05
0.00207419
5.79713e-05
0.00211241
2.75919e-05
0.00212356
-7.46319e-06
0.00210182
-4.92169e-05
0.00204088
-9.84818e-05
0.00193223
-0.000158246
0.00176446
-0.00023357
0.00152175
-0.000335074
0.00118399
-0.000486548
0.000740716
-0.000738657
0.00024968
-0.00116513
-8.30132e-05
-0.00170179
-0.00162361
-0.000192307
0.000998187
2.2529e-05
0.000750562
0.000377646
0.000474057
0.000717183
0.000334332
0.00101958
0.000244114
0.00128489
0.000182547
0.00151702
0.000141058
0.00172093
0.000112907
0.00190139
9.32106e-05
0.00206238
7.88671e-05
0.00220691
6.79314e-05
0.00233705
5.91145e-05
0.00245404
5.15118e-05
0.00255836
4.44575e-05
0.0026498
3.7438e-05
0.00272749
3.00395e-05
0.00278997
2.19166e-05
0.00283515
1.2798e-05
0.00286014
2.59502e-06
0.00286264
-9.96376e-06
0.00283722
-2.37923e-05
0.00277902
-4.0285e-05
0.00268092
-6.01398e-05
0.0025325
-8.51581e-05
0.00231702
-0.000119589
0.00200528
-0.00017481
0.00155057
-0.000283944
0.000926374
-0.000540937
0.000263328
-0.00103875
-0.00136028
0.000998187
0.00174875
0.00222281
0.00255714
0.00280125
0.0029838
0.00312486
0.00323776
0.00333098
0.00340984
0.00347777
0.00353689
0.0035884
0.00363286
0.0036703
0.00370034
0.00372225
0.00373505
0.00373764
0.00372768
0.00370389
0.0036636
0.00360346
0.00351831
0.00339872
0.00322391
0.00293996
0.00239903
0.00136028
)
;

boundaryField
{
    movingWall
    {
        type            calculated;
        value           uniform 0;
    }
    fixedWalls
    {
        type            calculated;
        value           uniform 0;
    }
    frontAndBack
    {
        type            empty;
        value           nonuniform 0();
    }
}


// ************************************************************************* //
