/*--------------------------------*- C++ -*----------------------------------*\
  =========                 |
  \\      /  F ield         | OpenFOAM: The Open Source CFD Toolbox
   \\    /   O peration     | Website:  https://openfoam.org
    \\  /    A nd           | Version:  7
     \\/     M anipulation  |
\*---------------------------------------------------------------------------*/
FoamFile
{
    version     2.0;
    format      ascii;
    class       volVectorField;
    location    "4.6";
    object      U;
}
// * * * * * * * * * * * * * * * * * * * * * * * * * * * * * * * * * * * * * //

dimensions      [0 1 -1 0 0 0 0];

internalField   nonuniform List<vector> 
900
(
(0.000127077 -0.000126123 0)
(0.000197363 -3.5237e-05 0)
(-0.000132709 0.000107407 0)
(-0.000848383 0.000231022 0)
(-0.00185909 0.000317994 0)
(-0.00307762 0.000371796 0)
(-0.00442328 0.000400717 0)
(-0.00583023 0.000411784 0)
(-0.00724509 0.00040918 0)
(-0.008621 0.000394396 0)
(-0.00991232 0.000366919 0)
(-0.0110711 0.000325084 0)
(-0.012046 0.00026697 0)
(-0.012783 0.00019128 0)
(-0.0132288 9.81729e-05 0)
(-0.0133362 -1.00783e-05 0)
(-0.0130704 -0.00012897 0)
(-0.0124161 -0.0002509 0)
(-0.0113841 -0.00036617 0)
(-0.0100162 -0.000463701 0)
(-0.00838605 -0.000532349 0)
(-0.00659688 -0.000562552 0)
(-0.00477411 -0.000547977 0)
(-0.00305403 -0.000486788 0)
(-0.00156857 -0.000382296 0)
(-0.000426035 -0.000244058 0)
(0.000288641 -9.14064e-05 0)
(0.000550504 6.01647e-05 0)
(0.000430282 0.000164735 0)
(0.000144365 0.000143085 0)
(4.14553e-05 -0.000202444 0)
(-0.000347124 0.000346117 0)
(-0.00164502 0.00105585 0)
(-0.0037482 0.00167905 0)
(-0.00650269 0.00214708 0)
(-0.00973458 0.0024588 0)
(-0.01327 0.00263576 0)
(-0.0169523 0.00270089 0)
(-0.0206426 0.00266976 0)
(-0.0242124 0.00254893 0)
(-0.0275363 0.00233768 0)
(-0.0304864 0.00203124 0)
(-0.0329321 0.00162492 0)
(-0.0347425 0.0011181 0)
(-0.0357952 0.000518071 0)
(-0.0359875 -0.000157216 0)
(-0.0352499 -0.000877186 0)
(-0.03356 -0.00159897 0)
(-0.0309566 -0.00226983 0)
(-0.0275465 -0.00283173 0)
(-0.0235065 -0.00322798 0)
(-0.0190761 -0.00341126 0)
(-0.0145414 -0.00335156 0)
(-0.0102099 -0.00304279 0)
(-0.00637868 -0.0025069 0)
(-0.00329757 -0.00179684 0)
(-0.00113831 -0.00100155 0)
(4.6314e-05 -0.000230394 0)
(0.000371801 0.000338851 0)
(0.000173014 0.000428208 0)
(-0.000111842 0.00012999 0)
(-0.00113008 0.00165949 0)
(-0.0035498 0.00338528 0)
(-0.00706567 0.00489065 0)
(-0.0114516 0.00604531 0)
(-0.0164801 0.00683304 0)
(-0.021917 0.00728466 0)
(-0.0275429 0.00744003 0)
(-0.0331554 0.00732865 0)
(-0.0385624 0.00696403 0)
(-0.0435745 0.00634617 0)
(-0.0480009 0.00546829 0)
(-0.0516493 0.00432574 0)
(-0.0543321 0.00292524 0)
(-0.0558777 0.00129325 0)
(-0.0561453 -0.000517795 0)
(-0.0550432 -0.00242595 0)
(-0.052547 -0.00432169 0)
(-0.0487159 -0.00607356 0)
(-0.043702 -0.00753938 0)
(-0.037752 -0.00858199 0)
(-0.0311987 -0.00908775 0)
(-0.0244391 -0.00898544 0)
(-0.0179017 -0.00826231 0)
(-0.0120036 -0.00697496 0)
(-0.00710207 -0.0052544 0)
(-0.00344615 -0.00330773 0)
(-0.00112787 -0.00141422 0)
(-4.53578e-05 5.82884e-05 0)
(0.000106262 0.000596651 0)
(-0.000268179 0.000915054 0)
(-0.00194056 0.0039348 0)
(-0.00551768 0.00699611 0)
(-0.0104442 0.00960774 0)
(-0.0163959 0.0116061 0)
(-0.0230937 0.0129713 0)
(-0.0302562 0.0137465 0)
(-0.0376184 0.0139879 0)
(-0.0449323 0.0137378 0)
(-0.0519591 0.0130156 0)
(-0.0584611 0.0118215 0)
(-0.0641988 0.0101479 0)
(-0.0689323 0.00799309 0)
(-0.0724287 0.00537638 0)
(-0.0744761 0.0023519 0)
(-0.0749011 -0.000981869 0)
(-0.073589 -0.00447789 0)
(-0.0705053 -0.00794212 0)
(-0.0657145 -0.0111447 0)
(-0.0593925 -0.0138382 0)
(-0.0518303 -0.0157839 0)
(-0.0434256 -0.0167828 0)
(-0.0346606 -0.0167077 0)
(-0.0260644 -0.0155322 0)
(-0.0181619 -0.0133502 0)
(-0.011416 -0.0103849 0)
(-0.0061655 -0.006987 0)
(-0.00256676 -0.00362576 0)
(-0.00057113 -0.000882735 0)
(2.21535e-05 0.000503531 0)
(-0.000409996 0.0021285 0)
(-0.00271257 0.00716264 0)
(-0.00742585 0.0118686 0)
(-0.0137282 0.0157709 0)
(-0.0211842 0.0187214 0)
(-0.02946 0.0207214 0)
(-0.038232 0.0218373 0)
(-0.0472007 0.0221449 0)
(-0.0560858 0.0216985 0)
(-0.0646156 0.0205219 0)
(-0.0725175 0.0186145 0)
(-0.0795152 0.015967 0)
(-0.0853304 0.0125811 0)
(-0.0896918 0.00849131 0)
(-0.0923489 0.00378305 0)
(-0.0930923 -0.00139358 0)
(-0.0917748 -0.00681847 0)
(-0.0883359 -0.0122022 0)
(-0.0828252 -0.0172027 0)
(-0.0754187 -0.02145 0)
(-0.0664277 -0.0245836 0)
(-0.0562956 -0.0262972 0)
(-0.0455768 -0.0263872 0)
(-0.0348981 -0.0247976 0)
(-0.0249011 -0.021652 0)
(-0.0161724 -0.0172688 0)
(-0.00916834 -0.0121561 0)
(-0.00414001 -0.00698863 0)
(-0.00112388 -0.0025759 0)
(-5.58822e-05 0.000120881 0)
(-0.000536325 0.00374263 0)
(-0.00342832 0.0113058 0)
(-0.00922449 0.0179682 0)
(-0.0168433 0.0233406 0)
(-0.0257358 0.0273399 0)
(-0.0355119 0.0300195 0)
(-0.0458102 0.0314857 0)
(-0.0563037 0.0318409 0)
(-0.0666907 0.0311531 0)
(-0.0766779 0.0294493 0)
(-0.0859691 0.0267255 0)
(-0.0942606 0.022968 0)
(-0.101243 0.0181797 0)
(-0.106608 0.0124077 0)
(-0.110064 0.00576734 0)
(-0.111358 -0.00153984 0)
(-0.110295 -0.00921813 0)
(-0.106766 -0.0168769 0)
(-0.100783 -0.0240505 0)
(-0.0924931 -0.0302289 0)
(-0.0822046 -0.0349053 0)
(-0.0703878 -0.0376362 0)
(-0.0576625 -0.0381101 0)
(-0.0447594 -0.0362128 0)
(-0.032458 -0.0320791 0)
(-0.0215027 -0.0261175 0)
(-0.0125069 -0.0190034 0)
(-0.00585498 -0.0116381 0)
(-0.00169787 -0.00508482 0)
(-0.000125119 -0.000548267 0)
(-0.000649575 0.00572412 0)
(-0.00408501 0.0163061 0)
(-0.0108929 0.0252291 0)
(-0.0197507 0.0322478 0)
(-0.0300012 0.0373904 0)
(-0.041201 0.0407947 0)
(-0.052955 0.0426261 0)
(-0.0649163 0.0430238 0)
(-0.0767706 0.0420727 0)
(-0.0882129 0.0398024 0)
(-0.098933 0.036202 0)
(-0.108608 0.0312485 0)
(-0.116902 0.0249395 0)
(-0.123472 0.0173276 0)
(-0.12798 0.00855035 0)
(-0.130118 -0.00114584 0)
(-0.129625 -0.0113906 0)
(-0.126322 -0.0216943 0)
(-0.12015 -0.0314592 0)
(-0.111201 -0.0400162 0)
(-0.0997491 -0.0466828 0)
(-0.0862694 -0.0508389 0)
(-0.0714374 -0.0520191 0)
(-0.0560962 -0.0500068 0)
(-0.0411902 -0.0449132 0)
(-0.0276658 -0.0372219 0)
(-0.0163466 -0.0277839 0)
(-0.00780003 -0.0177567 0)
(-0.00232707 -0.00850009 0)
(-0.000192057 -0.00151349 0)
(-0.000751329 0.00804002 0)
(-0.00468124 0.0220962 0)
(-0.0124173 0.0335695 0)
(-0.0224208 0.0424069 0)
(-0.0339368 0.0487897 0)
(-0.0464743 0.0529715 0)
(-0.0596109 0.0551975 0)
(-0.072987 0.0556545 0)
(-0.0862838 0.0544496 0)
(-0.0991941 0.0516138 0)
(-0.111403 0.0471257 0)
(-0.122575 0.0409453 0)
(-0.132355 0.0330555 0)
(-0.140363 0.0235022 0)
(-0.146216 0.012432 0)
(-0.149533 0.000123399 0)
(-0.149976 -0.012991 0)
(-0.147272 -0.0263264 0)
(-0.141259 -0.0391485 0)
(-0.131937 -0.0506124 0)
(-0.11951 -0.0598264 0)
(-0.104426 -0.0659445 0)
(-0.087399 -0.0682857 0)
(-0.069384 -0.0664657 0)
(-0.0515164 -0.0605169 0)
(-0.0349953 -0.0509669 0)
(-0.0209211 -0.0388458 0)
(-0.0101102 -0.0256063 0)
(-0.00306572 -0.0129696 0)
(-0.000266867 -0.00281058 0)
(-0.00084152 0.010657 0)
(-0.00521211 0.0286017 0)
(-0.0137805 0.0428944 0)
(-0.0248194 0.053717 0)
(-0.0374896 0.0614409 0)
(-0.0512607 0.0664643 0)
(-0.0656899 0.0691322 0)
(-0.0804124 0.0696917 0)
(-0.095113 0.0682768 0)
(-0.109491 0.0649204 0)
(-0.123235 0.0595851 0)
(-0.136008 0.0522056 0)
(-0.147438 0.0427371 0)
(-0.157117 0.031203 0)
(-0.16461 0.0177407 0)
(-0.169464 0.00264074 0)
(-0.171246 -0.0136239 0)
(-0.169567 -0.0303817 0)
(-0.164135 -0.0467652 0)
(-0.154818 -0.0617412 0)
(-0.141705 -0.0741756 0)
(-0.125175 -0.0829401 0)
(-0.10594 -0.0870603 0)
(-0.0850544 -0.0858943 0)
(-0.0638583 -0.0793115 0)
(-0.0438543 -0.0678269 0)
(-0.0264991 -0.0526412 0)
(-0.0129459 -0.0355474 0)
(-0.00397825 -0.0187152 0)
(-0.000360988 -0.00450796 0)
(-0.000918683 0.0135383 0)
(-0.00566864 0.0357378 0)
(-0.0149582 0.0530933 0)
(-0.0269023 0.066058 0)
(-0.0405918 0.0752253 0)
(-0.0554653 0.0811642 0)
(-0.0710668 0.0843389 0)
(-0.0870334 0.0850688 0)
(-0.103061 0.083521 0)
(-0.118864 0.0797305 0)
(-0.134145 0.0736396 0)
(-0.148572 0.065148 0)
(-0.161768 0.0541684 0)
(-0.173302 0.0406828 0)
(-0.182695 0.0247963 0)
(-0.189423 0.00678561 0)
(-0.192951 -0.0128601 0)
(-0.192761 -0.0334064 0)
(-0.188405 -0.0538656 0)
(-0.17958 -0.0730128 0)
(-0.166214 -0.089445 0)
(-0.148552 -0.101694 0)
(-0.12725 -0.108402 0)
(-0.103412 -0.108553 0)
(-0.0785785 -0.101731 0)
(-0.0545939 -0.088342 0)
(-0.03336 -0.0697216 0)
(-0.0164813 -0.0480456 0)
(-0.00513511 -0.026042 0)
(-0.000486587 -0.00671018 0)
(-0.000980462 0.0166413 0)
(-0.00603893 0.0434066 0)
(-0.0159215 0.0640365 0)
(-0.0286176 0.0792854 0)
(-0.0431626 0.0899952 0)
(-0.058972 0.0969284 0)
(-0.075583 0.100686 0)
(-0.0926403 0.101673 0)
(-0.109858 0.100095 0)
(-0.126972 0.0959923 0)
(-0.143709 0.089282 0)
(-0.159754 0.0798199 0)
(-0.174736 0.0674622 0)
(-0.188216 0.0521292 0)
(-0.19968 0.0338679 0)
(-0.208547 0.0129114 0)
(-0.214186 -0.0102665 0)
(-0.215946 -0.0349024 0)
(-0.213213 -0.0599149 0)
(-0.205482 -0.0839007 0)
(-0.192462 -0.105177 0)
(-0.174196 -0.121887 0)
(-0.151194 -0.132196 0)
(-0.124535 -0.134574 0)
(-0.0959061 -0.128152 0)
(-0.0675073 -0.113072 0)
(-0.0417713 -0.0907174 0)
(-0.0208952 -0.0636697 0)
(-0.00661148 -0.035343 0)
(-0.000656855 -0.0095604 0)
(-0.0010242 0.0199162 0)
(-0.00631038 0.0514951 0)
(-0.0166399 0.0755736 0)
(-0.0299108 0.0932276 0)
(-0.0451159 0.105568 0)
(-0.0616536 0.11357 0)
(-0.0790586 0.117989 0)
(-0.0969872 0.119325 0)
(-0.115176 0.117834 0)
(-0.133392 0.113562 0)
(-0.151392 0.106401 0)
(-0.168891 0.096155 0)
(-0.18554 0.0826116 0)
(-0.200908 0.065611 0)
(-0.214472 0.0451171 0)
(-0.225611 0.0212876 0)
(-0.233621 -0.0054572 0)
(-0.237738 -0.0343669 0)
(-0.237179 -0.0643098 0)
(-0.231224 -0.0937397 0)
(-0.219318 -0.120708 0)
(-0.201223 -0.142947 0)
(-0.177194 -0.158063 0)
(-0.148158 -0.163859 0)
(-0.115844 -0.158796 0)
(-0.0827699 -0.142522 0)
(-0.0519592 -0.116296 0)
(-0.0263628 -0.0830775 0)
(-0.00848686 -0.047099 0)
(-0.000886669 -0.0132428 0)
(-0.00104761 0.0233066 0)
(-0.00647258 0.0598763 0)
(-0.0170883 0.0875336 0)
(-0.0307348 0.107685 0)
(-0.0463732 0.121724 0)
(-0.0633877 0.130853 0)
(-0.0813124 0.135997 0)
(-0.0998172 0.137767 0)
(-0.118665 0.136475 0)
(-0.137656 0.13218 0)
(-0.156588 0.124749 0)
(-0.175219 0.113934 0)
(-0.193239 0.0994443 0)
(-0.210247 0.0810257 0)
(-0.225739 0.0585382 0)
(-0.239093 0.0320344 0)
(-0.249566 0.00184143 0)
(-0.256313 -0.0313545 0)
(-0.258416 -0.0664286 0)
(-0.254942 -0.101754 0)
(-0.245048 -0.135168 0)
(-0.228143 -0.164009 0)
(-0.204105 -0.185275 0)
(-0.173545 -0.195958 0)
(-0.138061 -0.193602 0)
(-0.100362 -0.177033 0)
(-0.0640684 -0.147093 0)
(-0.0330425 -0.106986 0)
(-0.0108442 -0.0618739 0)
(-0.00119339 -0.017985 0)
(-0.00104957 0.0267512 0)
(-0.00652101 0.0684136 0)
(-0.0172548 0.0997299 0)
(-0.0310625 0.122433 0)
(-0.0468806 0.138205 0)
(-0.0640787 0.148489 0)
(-0.0821895 0.154392 0)
(-0.100896 0.156649 0)
(-0.119988 0.155642 0)
(-0.139305 0.151449 0)
(-0.15869 0.143922 0)
(-0.177956 0.132757 0)
(-0.196851 0.117587 0)
(-0.215032 0.0980564 0)
(-0.232048 0.0739062 0)
(-0.247314 0.0450608 0)
(-0.260106 0.0117171 0)
(-0.269551 -0.025556 0)
(-0.274647 -0.0657095 0)
(-0.274287 -0.107126 0)
(-0.267348 -0.14752 0)
(-0.252841 -0.183909 0)
(-0.230152 -0.212696 0)
(-0.199388 -0.229965 0)
(-0.16177 -0.232081 0)
(-0.119972 -0.21664 0)
(-0.0781052 -0.183604 0)
(-0.0410548 -0.136118 0)
(-0.0137673 -0.0803019 0)
(-0.00159766 -0.0240605 0)
(-0.00103095 0.030188 0)
(-0.00646114 0.0769693 0)
(-0.0171498 0.111969 0)
(-0.0309013 0.13723 0)
(-0.0466285 0.154722 0)
(-0.0636829 0.16614 0)
(-0.0815928 0.172786 0)
(-0.100053 0.175534 0)
(-0.118879 0.174847 0)
(-0.13795 0.170838 0)
(-0.157166 0.16335 0)
(-0.176401 0.152036 0)
(-0.19548 0.136454 0)
(-0.214145 0.11615 0)
(-0.23203 0.0907435 0)
(-0.248643 0.0600167 0)
(-0.263333 0.0240086 0)
(-0.275268 -0.0168784 0)
(-0.283438 -0.0617471 0)
(-0.286641 -0.109098 0)
(-0.283516 -0.156653 0)
(-0.272679 -0.201247 0)
(-0.252953 -0.238789 0)
(-0.223752 -0.264439 0)
(-0.185633 -0.273174 0)
(-0.140892 -0.260896 0)
(-0.0938632 -0.226041 0)
(-0.0504509 -0.171121 0)
(-0.0173355 -0.103061 0)
(-0.00212404 -0.0317895 0)
(-0.000995631 0.0335612 0)
(-0.00631323 0.0854175 0)
(-0.0168169 0.124067 0)
(-0.030309 0.151833 0)
(-0.0456731 0.170969 0)
(-0.0622354 0.183431 0)
(-0.0795161 0.190732 0)
(-0.0972194 0.193901 0)
(-0.115188 0.1935 0)
(-0.133345 0.18969 0)
(-0.151647 0.182317 0)
(-0.170044 0.171007 0)
(-0.188451 0.155257 0)
(-0.206716 0.134526 0)
(-0.224599 0.108319 0)
(-0.241738 0.0762765 0)
(-0.257621 0.0382684 0)
(-0.271529 -0.00550492 0)
(-0.282537 -0.0543968 0)
(-0.289447 -0.107106 0)
(-0.290756 -0.161533 0)
(-0.284751 -0.214527 0)
(-0.26968 -0.261702 0)
(-0.244139 -0.297414 0)
(-0.207729 -0.315159 0)
(-0.161927 -0.308705 0)
(-0.110839 -0.274148 0)
(-0.0611698 -0.212445 0)
(-0.0216151 -0.130831 0)
(-0.00280162 -0.0415362 0)
(-0.000951592 0.0368305 0)
(-0.00611774 0.0936638 0)
(-0.0163441 0.135869 0)
(-0.0294115 0.166012 0)
(-0.0441576 0.186633 0)
(-0.0598749 0.199961 0)
(-0.0760733 0.207741 0)
(-0.0924685 0.211173 0)
(-0.108933 0.210934 0)
(-0.125437 0.207251 0)
(-0.142002 0.199994 0)
(-0.15866 0.188777 0)
(-0.175429 0.173056 0)
(-0.192284 0.152222 0)
(-0.209132 0.125684 0)
(-0.225779 0.0929559 0)
(-0.241898 0.0537358 0)
(-0.256983 0.00800273 0)
(-0.270258 -0.0438762 0)
(-0.280622 -0.100926 0)
(-0.286596 -0.161385 0)
(-0.286262 -0.222362 0)
(-0.277378 -0.279466 0)
(-0.257691 -0.326524 0)
(-0.225621 -0.355652 0)
(-0.181365 -0.358187 0)
(-0.128159 -0.327006 0)
(-0.072989 -0.260182 0)
(-0.0266493 -0.164224 0)
(-0.00366513 -0.0537038 0)
(-0.000912586 0.0399837 0)
(-0.00594241 0.101669 0)
(-0.015878 0.147275 0)
(-0.0284203 0.179578 0)
(-0.0423323 0.201419 0)
(-0.0568647 0.215326 0)
(-0.0715204 0.223298 0)
(-0.0860351 0.226731 0)
(-0.100321 0.226434 0)
(-0.114405 0.222718 0)
(-0.128379 0.215493 0)
(-0.142368 0.204382 0)
(-0.156503 0.188825 0)
(-0.170893 0.168169 0)
(-0.18561 0.141756 0)
(-0.200653 0.108991 0)
(-0.215913 0.069419 0)
(-0.231122 0.0228017 0)
(-0.245752 -0.0307741 0)
(-0.258929 -0.090759 0)
(-0.269319 -0.155873 0)
(-0.27499 -0.223723 0)
(-0.273392 -0.290276 0)
(-0.261535 -0.349255 0)
(-0.236578 -0.391751 0)
(-0.197039 -0.406656 0)
(-0.144537 -0.382854 0)
(-0.0854762 -0.313879 0)
(-0.0324491 -0.203697 0)
(-0.00475769 -0.0687245 0)
(-0.000900984 0.043054 0)
(-0.00589274 0.109484 0)
(-0.0156417 0.158274 0)
(-0.0276528 0.192407 0)
(-0.040572 0.215067 0)
(-0.0536049 0.22913 0)
(-0.0662626 0.236886 0)
(-0.0783214 0.239947 0)
(-0.0897533 0.239276 0)
(-0.100657 0.235278 0)
(-0.111209 0.227924 0)
(-0.121633 0.216864 0)
(-0.132178 0.201543 0)
(-0.143096 0.181295 0)
(-0.154623 0.155417 0)
(-0.166956 0.123243 0)
(-0.180216 0.0841962 0)
(-0.194392 0.0378453 0)
(-0.209252 -0.0160186 0)
(-0.224234 -0.0772758 0)
(-0.238289 -0.145219 0)
(-0.249675 -0.218166 0)
(-0.255802 -0.292806 0)
(-0.253201 -0.3633 0)
(-0.23789 -0.420333 0)
(-0.206497 -0.450738 0)
(-0.158301 -0.439 0)
(-0.097955 -0.372332 0)
(-0.0389907 -0.249434 0)
(-0.0061379 -0.0870523 0)
(-0.00095353 0.0461455 0)
(-0.00612963 0.117289 0)
(-0.0159595 0.168978 0)
(-0.0275548 0.204458 0)
(-0.0393886 0.227363 0)
(-0.0506331 0.240997 0)
(-0.060842 0.24799 0)
(-0.0698717 0.250199 0)
(-0.0777874 0.248749 0)
(-0.0847847 0.244154 0)
(-0.0911417 0.23645 0)
(-0.0971901 0.225334 0)
(-0.103298 0.210273 0)
(-0.109854 0.190607 0)
(-0.117254 0.165622 0)
(-0.12588 0.134608 0)
(-0.136068 0.096901 0)
(-0.148061 0.051917 0)
(-0.161934 -0.000811111 0)
(-0.177473 -0.0615641 0)
(-0.194012 -0.130232 0)
(-0.210203 -0.205964 0)
(-0.223714 -0.286478 0)
(-0.230978 -0.36694 0)
(-0.227221 -0.43846 0)
(-0.207253 -0.486668 0)
(-0.167481 -0.491851 0)
(-0.10949 -0.433412 0)
(-0.0462224 -0.301206 0)
(-0.00789489 -0.109163 0)
(-0.00113338 0.0494731 0)
(-0.006901 0.12545 0)
(-0.0172954 0.17966 0)
(-0.0287267 0.21579 0)
(-0.0394347 0.238136 0)
(-0.0486016 0.250561 0)
(-0.0558916 0.256099 0)
(-0.061305 0.256873 0)
(-0.0650507 0.254176 0)
(-0.0674556 0.248624 0)
(-0.0689182 0.240324 0)
(-0.0698859 0.229019 0)
(-0.0708443 0.214212 0)
(-0.072309 0.195266 0)
(-0.0748161 0.171474 0)
(-0.0789064 0.14211 0)
(-0.0851019 0.106459 0)
(-0.0938683 0.0638244 0)
(-0.105558 0.0135437 0)
(-0.120305 -0.0449889 0)
(-0.137882 -0.112212 0)
(-0.157465 -0.188113 0)
(-0.177266 -0.271605 0)
(-0.194066 -0.359346 0)
(-0.202848 -0.4438 0)
(-0.197012 -0.510682 0)
(-0.169927 -0.537102 0)
(-0.11888 -0.493942 0)
(-0.0540751 -0.358208 0)
(-0.0101752 -0.135575 0)
(-0.00155519 0.0534313 0)
(-0.00859837 0.134597 0)
(-0.0203073 0.19078 0)
(-0.0319434 0.226547 0)
(-0.0414764 0.24722 0)
(-0.0482051 0.257423 0)
(-0.052022 0.260665 0)
(-0.0531673 0.259341 0)
(-0.0520602 0.254894 0)
(-0.0491996 0.248023 0)
(-0.0451247 0.238888 0)
(-0.0404022 0.227271 0)
(-0.0356264 0.212713 0)
(-0.0314217 0.194606 0)
(-0.0284371 0.172261 0)
(-0.0273384 0.144956 0)
(-0.0287933 0.111953 0)
(-0.0334446 0.0724927 0)
(-0.0418713 0.025782 0)
(-0.0545213 -0.029017 0)
(-0.0715989 -0.0927665 0)
(-0.0928686 -0.166173 0)
(-0.117286 -0.249343 0)
(-0.142415 -0.340714 0)
(-0.163665 -0.434957 0)
(-0.173767 -0.519446 0)
(-0.163373 -0.570018 0)
(-0.124624 -0.549641 0)
(-0.0624467 -0.418848 0)
(-0.0132201 -0.166907 0)
(-0.00243578 0.0587179 0)
(-0.0118535 0.145716 0)
(-0.0259093 0.202988 0)
(-0.0381335 0.236882 0)
(-0.0462778 0.25436 0)
(-0.0499811 0.261059 0)
(-0.0495539 0.261025 0)
(-0.0456078 0.256895 0)
(-0.0388523 0.250208 0)
(-0.029998 0.241697 0)
(-0.0197413 0.231543 0)
(-0.00876269 0.219538 0)
(0.00225339 0.205251 0)
(0.0125989 0.188101 0)
(0.0215468 0.167425 0)
(0.0283459 0.142517 0)
(0.0322272 0.112637 0)
(0.0324197 0.0770034 0)
(0.0281691 0.0347615 0)
(0.0187684 -0.0150582 0)
(0.00363325 -0.0735813 0)
(-0.0175763 -0.142023 0)
(-0.0446539 -0.221481 0)
(-0.0762611 -0.31219 0)
(-0.108912 -0.411608 0)
(-0.135672 -0.510384 0)
(-0.14536 -0.585764 0)
(-0.124778 -0.595134 0)
(-0.0710826 -0.480458 0)
(-0.0173885 -0.203931 0)
(-0.00419177 0.0665621 0)
(-0.0176869 0.16025 0)
(-0.0352931 0.217016 0)
(-0.0481995 0.246761 0)
(-0.0542299 0.258988 0)
(-0.0537839 0.260626 0)
(-0.0478749 0.256242 0)
(-0.0376488 0.248621 0)
(-0.0241879 0.239288 0)
(-0.00844015 0.228925 0)
(0.00873598 0.217665 0)
(0.0265635 0.205289 0)
(0.0443069 0.191361 0)
(0.06121 0.175318 0)
(0.0765066 0.156523 0)
(0.0894028 0.134294 0)
(0.0990731 0.107913 0)
(0.104663 0.0766106 0)
(0.10529 0.0395283 0)
(0.100038 -0.00433384 0)
(0.088016 -0.0561893 0)
(0.0683879 -0.117523 0)
(0.0405441 -0.190089 0)
(0.00458357 -0.275612 0)
(-0.0376431 -0.374468 0)
(-0.0806604 -0.481891 0)
(-0.112919 -0.579687 0)
(-0.116604 -0.623939 0)
(-0.0792057 -0.538782 0)
(-0.0230814 -0.247502 0)
(-0.00761052 0.0791368 0)
(-0.027684 0.18012 0)
(-0.0497089 0.23333 0)
(-0.0623273 0.255486 0)
(-0.064277 0.25978 0)
(-0.0574426 0.254581 0)
(-0.0439218 0.244808 0)
(-0.0255647 0.233168 0)
(-0.00388025 0.220992 0)
(0.0199408 0.20878 0)
(0.0449309 0.196526 0)
(0.0702663 0.183952 0)
(0.0951954 0.170589 0)
(0.118978 0.155878 0)
(0.140862 0.139206 0)
(0.160058 0.119928 0)
(0.175728 0.0973671 0)
(0.186973 0.0708021 0)
(0.192826 0.0394296 0)
(0.192223 0.00230867 0)
(0.184026 -0.0417337 0)
(0.16699 -0.0941998 0)
(0.139834 -0.157108 0)
(0.101501 -0.233129 0)
(0.0519491 -0.325132 0)
(-0.00584827 -0.43351 0)
(-0.0619585 -0.547666 0)
(-0.0958232 -0.628456 0)
(-0.0846667 -0.587194 0)
(-0.0303626 -0.298209 0)
(-0.0140655 0.100225 0)
(-0.0439549 0.207349 0)
(-0.0693171 0.25118 0)
(-0.0777759 0.260697 0)
(-0.0710307 0.253823 0)
(-0.0535304 0.240078 0)
(-0.0288414 0.224236 0)
(0.000407579 0.208509 0)
(0.0323382 0.193749 0)
(0.0656269 0.180095 0)
(0.0993076 0.167316 0)
(0.132618 0.154995 0)
(0.164893 0.142614 0)
(0.195486 0.12961 0)
(0.223731 0.1154 0)
(0.248904 0.09939 0)
(0.270207 0.0809731 0)
(0.286748 0.0595133 0)
(0.297521 0.0343167 0)
(0.301344 0.00458029 0)
(0.296926 -0.0307347 0)
(0.282738 -0.0729391 0)
(0.256992 -0.12396 0)
(0.217721 -0.186752 0)
(0.163148 -0.265755 0)
(0.0931499 -0.366043 0)
(0.0137577 -0.486674 0)
(-0.0551927 -0.60013 0)
(-0.0824396 -0.615897 0)
(-0.0379652 -0.356241 0)
(-0.0253808 0.136212 0)
(-0.0675853 0.241824 0)
(-0.0885915 0.265726 0)
(-0.0823632 0.256005 0)
(-0.0576485 0.235012 0)
(-0.0224308 0.212053 0)
(0.0183431 0.190663 0)
(0.0616266 0.171886 0)
(0.105565 0.155728 0)
(0.149047 0.141786 0)
(0.191377 0.129518 0)
(0.232065 0.118346 0)
(0.270692 0.107696 0)
(0.306827 0.0970157 0)
(0.339983 0.0857731 0)
(0.369577 0.0734554 0)
(0.394918 0.0595576 0)
(0.415181 0.0435662 0)
(0.429391 0.0249337 0)
(0.436306 0.00303285 0)
(0.434593 -0.0228323 0)
(0.422568 -0.0537384 0)
(0.398139 -0.0912612 0)
(0.358764 -0.138025 0)
(0.301362 -0.198763 0)
(0.222828 -0.281498 0)
(0.123855 -0.395008 0)
(0.0178392 -0.530295 0)
(-0.0624451 -0.611379 0)
(-0.0412218 -0.420725 0)
(-0.0410696 0.198324 0)
(-0.0898015 0.27393 0)
(-0.0797929 0.259659 0)
(-0.0371576 0.225558 0)
(0.0191464 0.191484 0)
(0.0795352 0.162443 0)
(0.139604 0.139043 0)
(0.197325 0.120496 0)
(0.251878 0.105735 0)
(0.303043 0.0937965 0)
(0.350837 0.0838745 0)
(0.395327 0.0753018 0)
(0.436526 0.0675152 0)
(0.474344 0.0600305 0)
(0.508557 0.0524208 0)
(0.538798 0.044301 0)
(0.564537 0.0353121 0)
(0.585084 0.0251054 0)
(0.599555 0.0133183 0)
(0.606884 -0.000473022 0)
(0.605771 -0.0166095 0)
(0.594465 -0.0358075 0)
(0.570903 -0.0591189 0)
(0.532356 -0.0883982 0)
(0.475059 -0.127415 0)
(0.393732 -0.184225 0)
(0.283172 -0.273955 0)
(0.144493 -0.410616 0)
(-0.00421109 -0.553777 0)
(-0.0256037 -0.477184 0)
(-0.0338673 0.294302 0)
(-0.0471279 0.273533 0)
(0.0549106 0.20019 0)
(0.157968 0.149768 0)
(0.250234 0.114328 0)
(0.331273 0.0889065 0)
(0.402142 0.0708889 0)
(0.464185 0.0580746 0)
(0.518841 0.0487532 0)
(0.567399 0.0417539 0)
(0.610873 0.0362918 0)
(0.649989 0.0318177 0)
(0.685219 0.027928 0)
(0.716804 0.0243122 0)
(0.744779 0.0207218 0)
(0.768989 0.0169495 0)
(0.789102 0.0128155 0)
(0.804614 0.00815974 0)
(0.814811 0.00283034 0)
(0.818947 -0.00327566 0)
(0.815955 -0.0104585 0)
(0.804386 -0.0189639 0)
(0.782536 -0.0292324 0)
(0.748026 -0.0421605 0)
(0.697215 -0.0597503 0)
(0.624018 -0.0870288 0)
(0.518245 -0.137452 0)
(0.364846 -0.240503 0)
(0.14389 -0.407045 0)
(0.0587793 -0.458303 0)
(0.303349 0.180997 0)
(0.382929 0.144498 0)
(0.561575 0.0913566 0)
(0.687619 0.0590973 0)
(0.770231 0.0393171 0)
(0.829437 0.0266922 0)
(0.874673 0.0186879 0)
(0.91041 0.0136386 0)
(0.939474 0.0103969 0)
(0.96378 0.00824138 0)
(0.984563 0.00673693 0)
(1.00259 0.00561644 0)
(1.01832 0.00470924 0)
(1.03199 0.00390152 0)
(1.04368 0.00311372 0)
(1.05333 0.00228726 0)
(1.06079 0.00137636 0)
(1.0658 0.000347186 0)
(1.06805 -0.000831241 0)
(1.0671 -0.00210172 0)
(1.0624 -0.00363947 0)
(1.05336 -0.00546665 0)
(1.03918 -0.00764942 0)
(1.01863 -0.0103862 0)
(0.989655 -0.0141649 0)
(0.94817 -0.0203167 0)
(0.884423 -0.0327203 0)
(0.776564 -0.0638667 0)
(0.544873 -0.139527 0)
(0.38249 -0.201762 0)
)
;

boundaryField
{
    movingWall
    {
        type            fixedValue;
        value           uniform (1.2 0 0);
    }
    fixedWalls
    {
        type            noSlip;
    }
    frontAndBack
    {
        type            empty;
    }
}


// ************************************************************************* //
