/*--------------------------------*- C++ -*----------------------------------*\
  =========                 |
  \\      /  F ield         | OpenFOAM: The Open Source CFD Toolbox
   \\    /   O peration     | Website:  https://openfoam.org
    \\  /    A nd           | Version:  7
     \\/     M anipulation  |
\*---------------------------------------------------------------------------*/
FoamFile
{
    version     2.0;
    format      ascii;
    class       surfaceScalarField;
    location    "4.1";
    object      phi;
}
// * * * * * * * * * * * * * * * * * * * * * * * * * * * * * * * * * * * * * //

dimensions      [0 3 -1 0 0 0 0];

internalField   nonuniform List<scalar> 
1740
(
5.62874e-07
-5.62888e-07
6.71775e-08
4.95697e-07
-1.73157e-06
1.79876e-06
-4.67229e-06
2.94072e-06
-8.44858e-06
3.7763e-06
-1.2765e-05
4.3164e-06
-1.73767e-05
4.61169e-06
-2.2087e-05
4.71034e-06
-2.67313e-05
4.64422e-06
-3.11586e-05
4.42737e-06
-3.52183e-05
4.05967e-06
-3.87512e-05
3.53285e-06
-4.15887e-05
2.83754e-06
-4.35592e-05
1.97049e-06
-4.45006e-05
9.41396e-07
-4.42788e-05
-2.21808e-07
-4.28086e-05
-1.47014e-06
-4.00774e-05
-2.73118e-06
-3.61632e-05
-3.91424e-06
-3.12455e-05
-4.91765e-06
-2.56056e-05
-5.63998e-06
-1.96114e-05
-5.99417e-06
-1.36894e-05
-5.92195e-06
-8.28348e-06
-5.40596e-06
-3.80612e-06
-4.47736e-06
-5.84888e-07
-3.22123e-06
1.20382e-06
-1.78871e-06
1.58002e-06
-3.76197e-07
8.68434e-07
7.11592e-07
8.68433e-07
-4.81193e-07
-8.16975e-08
-3.42505e-06
3.43956e-06
-9.18873e-06
7.56243e-06
-1.7374e-05
1.1126e-05
-2.74208e-05
1.38232e-05
-3.87356e-05
1.56312e-05
-5.07667e-05
1.66428e-05
-6.30242e-05
1.69678e-05
-7.50676e-05
1.66876e-05
-8.64825e-05
1.58422e-05
-9.68595e-05
1.44367e-05
-0.000105784
1.24571e-05
-0.000112836
9.89001e-06
-0.00011761
6.74473e-06
-0.000119741
3.07228e-06
-0.000118949
-1.01399e-06
-0.000115072
-5.34684e-06
-0.000108127
-9.67639e-06
-9.83336e-05
-1.3708e-05
-8.61356e-05
-1.71156e-05
-7.21965e-05
-1.95791e-05
-5.73639e-05
-2.08267e-05
-4.26058e-05
-2.06801e-05
-2.89196e-05
-1.90921e-05
-1.72233e-05
-1.61736e-05
-8.237e-06
-1.22076e-05
-2.36998e-06
-7.65574e-06
4.20021e-07
-3.16621e-06
7.68497e-07
3.63123e-07
1.63693e-06
-1.90186e-06
1.82017e-06
-7.9526e-06
9.4903e-06
-1.78835e-05
1.74933e-05
-3.10879e-05
2.43304e-05
-4.67965e-05
2.95317e-05
-6.42139e-05
3.30486e-05
-8.25837e-05
3.50126e-05
-0.000101209
3.55927e-05
-0.00011944
3.49192e-05
-0.000136657
3.3059e-05
-0.000152245
3.00246e-05
-0.000165588
2.58005e-05
-0.000176077
2.03794e-05
-0.000183134
1.38013e-05
-0.000186251
6.18935e-06
-0.000185044
-2.22087e-06
-0.000179311
-1.10804e-05
-0.000169088
-1.98989e-05
-0.000154697
-2.8099e-05
-0.000136764
-3.50485e-05
-0.000116215
-4.01286e-05
-9.42274e-05
-4.2814e-05
-7.21501e-05
-4.27574e-05
-5.13776e-05
-3.98646e-05
-3.32038e-05
-3.43474e-05
-1.86605e-05
-2.67508e-05
-8.3594e-06
-1.79569e-05
-2.35002e-06
-9.17559e-06
-2.8199e-08
-1.95869e-06
1.60874e-06
-3.35936e-06
5.17952e-06
-1.2558e-05
1.8689e-05
-2.66816e-05
3.16169e-05
-4.47493e-05
4.23981e-05
-6.5758e-05
5.05404e-05
-8.87366e-05
5.60273e-05
-0.000112776
5.90521e-05
-0.000137031
5.98477e-05
-0.000160703
5.85913e-05
-0.000183018
5.53736e-05
-0.000203205
5.0212e-05
-0.000220495
4.30898e-05
-0.000234126
3.40106e-05
-0.00024338
2.30558e-05
-0.000247629
1.04383e-05
-0.000246393
-3.45678e-06
-0.00023941
-1.80639e-05
-0.000226703
-3.26055e-05
-0.000208637
-4.61658e-05
-0.000185943
-5.77419e-05
-0.000159725
-6.63465e-05
-0.000131407
-7.11318e-05
-0.000102643
-7.15223e-05
-7.51697e-05
-6.73375e-05
-5.06348e-05
-5.88823e-05
-3.0394e-05
-4.69916e-05
-1.53243e-05
-3.30266e-05
-5.67001e-06
-1.88299e-05
-9.59887e-07
-6.66882e-06
6.48849e-07
-4.7151e-06
9.89463e-06
-1.69592e-05
3.0933e-05
-3.51539e-05
4.98116e-05
-5.78993e-05
6.51434e-05
-8.39305e-05
7.65717e-05
-0.000112106
8.42026e-05
-0.000141391
8.83369e-05
-0.000170832
8.9289e-05
-0.000199527
8.72861e-05
-0.000226592
8.24388e-05
-0.000251143
7.47629e-05
-0.000272288
6.42346e-05
-0.00028914
5.08634e-05
-0.000300854
3.477e-05
-0.000306676
1.62593e-05
-0.000306009
-4.12349e-06
-0.000298488
-2.55851e-05
-0.000284065
-4.70279e-05
-0.000263076
-6.7155e-05
-0.000236285
-8.45331e-05
-0.000204901
-9.77303e-05
-0.000170544
-0.000105489
-0.000135148
-0.000106918
-0.000100807
-0.000101679
-6.95632e-05
-9.0126e-05
-4.31718e-05
-7.3383e-05
-2.28692e-05
-5.33292e-05
-9.19447e-06
-3.25047e-05
-1.90331e-06
-1.396e-05
-1.25446e-06
-5.9513e-06
1.58459e-05
-2.10624e-05
4.60442e-05
-4.31304e-05
7.18796e-05
-7.03337e-05
9.23468e-05
-0.00010114
0.000107378
-0.000134242
0.000117304
-0.000168498
0.000122593
-0.000202879
0.000123669
-0.000236412
0.000120819
-0.000268142
0.000114169
-0.000297104
0.000103725
-0.00032231
8.94408e-05
-0.000342763
7.13157e-05
-0.000357485
4.94923e-05
-0.000365577
2.43512e-05
-0.000366295
-3.4057e-06
-0.000359096
-3.27836e-05
-0.000343794
-6.23302e-05
-0.000320608
-9.03404e-05
-0.000290252
-0.000114889
-0.000253973
-0.000134009
-0.000213545
-0.000145917
-0.000171185
-0.000149278
-0.00012939
-0.000143474
-9.06905e-05
-0.000128825
-5.73636e-05
-0.00010671
-3.11344e-05
-7.95583e-05
-1.29463e-05
-5.06928e-05
-2.84492e-06
-2.40614e-05
-4.09939e-06
-7.0772e-06
2.29231e-05
-2.48489e-05
6.38158e-05
-5.05492e-05
9.75799e-05
-8.19608e-05
0.000123758
-0.000117296
0.000142713
-0.000155094
0.000155103
-0.000194128
0.000161627
-0.000233316
0.000162857
-0.000271648
0.000159151
-0.00030813
0.000150651
-0.000341742
0.000137337
-0.000371422
0.000119121
-0.00039607
9.59634e-05
-0.000414571
6.79936e-05
-0.000425845
3.56246e-05
-0.000428977
-2.73592e-07
-0.000423138
-3.86225e-05
-0.000407941
-7.75274e-05
-0.000383384
-0.000114897
-0.000350029
-0.000148245
-0.000309079
-0.00017496
-0.000262411
-0.000192584
-0.000212529
-0.00019916
-0.000162393
-0.000193611
-0.000115145
-0.000176072
-7.37481e-05
-0.000148107
-4.05881e-05
-0.000112718
-1.7154e-05
-7.41269e-05
-3.85546e-06
-3.73599e-05
-7.95485e-06
-8.10068e-06
3.10238e-05
-2.83135e-05
8.40287e-05
-5.73753e-05
0.000126642
-9.27133e-05
0.000159096
-0.00013231
0.00018231
-0.000174574
0.000197367
-0.000218211
0.000205265
-0.000262115
0.000206761
-0.000305267
0.000202303
-0.000346662
0.000192046
-0.000385256
0.000175931
-0.000419932
0.000153798
-0.000449495
0.000125526
-0.000472689
9.11872e-05
-0.000488248
5.11841e-05
-0.000494914
6.39246e-06
-0.000491704
-4.18326e-05
-0.000477807
-9.14248e-05
-0.00045291
-0.000139793
-0.000417306
-0.000183849
-0.000372041
-0.000220224
-0.00031902
-0.000245605
-0.000261003
-0.000257178
-0.000201467
-0.000253147
-0.000144301
-0.000233238
-9.33513e-05
-0.000199057
-5.18934e-05
-0.000154176
-2.21581e-05
-0.000103862
-5.03983e-06
-5.44782e-05
-1.29947e-05
-9.02066e-06
4.00445e-05
-3.14383e-05
0.000106446
-6.35578e-05
0.000158761
-0.000102498
0.000198037
-0.000146046
0.000225857
-0.000192503
0.000243823
-0.000240534
0.000253296
-0.000289032
0.000255259
-0.000336999
0.000250269
-0.000383448
0.000238496
-0.000427339
0.000219822
-0.000467522
0.000193981
-0.000502724
0.000160728
-0.000531547
0.00012001
-0.000552506
7.21427e-05
-0.000564082
1.79683e-05
-0.000564879
-4.10357e-05
-0.000553695
-0.000102608
-0.00052977
-0.000163719
-0.00049298
-0.000220638
-0.000444071
-0.000269134
-0.000384839
-0.000304837
-0.000318224
-0.000323793
-0.000248229
-0.000323142
-0.000179608
-0.000301859
-0.000117321
-0.000261344
-6.58205e-05
-0.000205676
-2.83601e-05
-0.000141323
-6.51899e-06
-7.63193e-05
-1.95137e-05
-9.82691e-06
4.98714e-05
-3.41854e-05
0.000130805
-6.90156e-05
0.000193592
-0.000111178
0.0002402
-0.000158297
0.000272977
-0.000208595
0.000294121
-0.00026072
0.000305421
-0.00031359
0.000308129
-0.000366252
0.000302931
-0.00041777
0.000290015
-0.000467135
0.000269187
-0.000513198
0.000240044
-0.00055463
0.00020216
-0.000589913
0.000155293
-0.000617351
9.9581e-05
-0.000635132
3.57495e-05
-0.000641443
-3.4725e-05
-0.000634594
-0.000109457
-0.000613269
-0.000185044
-0.00057678
-0.000257127
-0.000525383
-0.000320531
-0.00046057
-0.00036965
-0.000385298
-0.000399065
-0.00030402
-0.00040442
-0.000222426
-0.000383453
-0.00014682
-0.00033695
-8.31888e-05
-0.000269307
-3.61968e-05
-0.000188315
-8.42366e-06
-0.000104092
-2.79373e-05
-1.05024e-05
6.03738e-05
-3.65007e-05
0.000156803
-7.36402e-05
0.000230731
-0.000118572
0.000285131
-0.00016879
0.000323195
-0.000222462
0.000347792
-0.000278239
0.000361198
-0.000335085
0.000364975
-0.000392119
0.000359966
-0.000448484
0.000346379
-0.000503236
0.000323939
-0.000555263
0.00029207
-0.000603223
0.000250121
-0.000645514
0.000197583
-0.000680267
0.000134334
-0.000705391
6.08732e-05
-0.000718676
-2.14395e-05
-0.00071789
-0.000110243
-0.000701084
-0.00020185
-0.00066686
-0.000291351
-0.000614765
-0.000372627
-0.000545725
-0.00043869
-0.00046244
-0.00048235
-0.000369612
-0.000497248
-0.000273824
-0.00047924
-0.000182916
-0.000427859
-0.000104818
-0.000347405
-4.61255e-05
-0.000247007
-1.08936e-05
-0.000139324
-3.88309e-05
-1.10273e-05
7.14011e-05
-3.83233e-05
0.000184099
-7.73111e-05
0.000269719
-0.000124476
0.000332296
-0.00017721
0.000375929
-0.00023364
0.000404223
-0.000292438
0.000419996
-0.00035263
0.000425166
-0.000413426
0.000420762
-0.000474075
0.000407028
-0.000533735
0.000383598
-0.000591374
0.00034971
-0.000645692
0.000304439
-0.000695066
0.000246957
-0.000737525
0.000176793
-0.000770754
9.41019e-05
-0.000792241
4.74173e-08
-0.000799175
-0.000103308
-0.000788986
-0.000212039
-0.000759437
-0.0003209
-0.000709152
-0.000422912
-0.000638168
-0.000509674
-0.000548538
-0.00057198
-0.000444838
-0.000600948
-0.000334324
-0.000589754
-0.000226435
-0.000535747
-0.000131468
-0.000442373
-5.86116e-05
-0.000319863
-1.40787e-05
-0.000183857
-5.29096e-05
-1.13838e-05
8.27848e-05
-3.95998e-05
0.000212315
-7.99193e-05
0.000310038
-0.000128697
0.000381074
-0.000183241
0.000430474
-0.000241649
0.00046263
-0.000302614
0.000480961
-0.000365235
0.000487787
-0.000428829
0.000484356
-0.000492772
0.000470971
-0.00055636
0.000447186
-0.000618692
0.000412042
-0.000678576
0.000364323
-0.000734455
0.000302837
-0.00078436
0.000226698
-0.0008259
0.000135642
-0.000856206
3.03541e-05
-0.000872266
-8.72484e-05
-0.000870758
-0.000213547
-0.000848595
-0.000343064
-0.000803306
-0.000468201
-0.000733701
-0.000579279
-0.000640695
-0.000664986
-0.000528168
-0.000713475
-0.000403565
-0.000714357
-0.000277764
-0.000661548
-0.000163753
-0.000556383
-7.41074e-05
-0.000409509
-1.81398e-05
-0.000239825
-7.10494e-05
-1.15628e-05
9.43477e-05
-4.03032e-05
0.000241055
-8.14011e-05
0.000351136
-0.000131103
0.000430776
-0.000186636
0.000486006
-0.000246063
0.000522058
-0.000308102
0.000543
-0.000371923
0.000551608
-0.000436957
0.00054939
-0.000502727
0.000536741
-0.000568696
0.000513156
-0.000634147
0.000477492
-0.000698069
0.000428245
-0.000759073
0.000363841
-0.000815322
0.000282947
-0.000864478
0.000184797
-0.000903671
6.95472e-05
-0.000929576
-6.13437e-05
-0.000938451
-0.000204672
-0.000926391
-0.000355124
-0.000889748
-0.000504844
-0.000825819
-0.000643209
-0.000733844
-0.00075696
-0.000616263
-0.000831057
-0.000479912
-0.000850708
-0.000336574
-0.000804886
-0.000202013
-0.000690944
-9.30151e-05
-0.000518507
-2.32466e-05
-0.000309593
-9.4296e-05
-1.15716e-05
0.000105919
-4.04557e-05
0.00026994
-8.17776e-05
0.000392458
-0.000131675
0.000480673
-0.00018728
0.000541611
-0.000246612
0.00058139
-0.0003084
0.000604789
-0.000371882
0.00061509
-0.000436606
0.000614114
-0.000502252
0.000602387
-0.000568484
0.000579387
-0.00063481
0.000543818
-0.000700479
0.000493914
-0.000764379
0.000427741
-0.00082495
0.000343518
-0.000880106
0.000239953
-0.000927165
0.000116606
-0.000962787
-2.57221e-05
-0.000983038
-0.00018442
-0.000983396
-0.000354766
-0.000959111
-0.000529129
-0.000905815
-0.000696505
-0.000820606
-0.000842169
-0.00070364
-0.000948022
-0.000560047
-0.000994301
-0.000401491
-0.000963442
-0.000246124
-0.000846312
-0.000115626
-0.000649005
-2.95707e-05
-0.000395649
-0.000123867
-1.14425e-05
0.000117362
-4.0155e-05
0.000298652
-8.12014e-05
0.000433505
-0.000130575
0.000530046
-0.000185283
0.000596319
-0.000243278
0.000639385
-0.000303291
0.000664801
-0.000364621
0.00067642
-0.000426935
0.000676428
-0.000490084
0.000665536
-0.000553949
0.000643252
-0.000618314
0.000608183
-0.000682752
0.000558352
-0.000746531
0.00049152
-0.000808512
0.000405499
-0.000867052
0.000298494
-0.000919893
0.000169447
-0.000963997
1.83814e-05
-0.00099555
-0.000152867
-0.00100975
-0.000340563
-0.00100102
-0.000537863
-0.000963392
-0.000734132
-0.000891552
-0.000914009
-0.000782604
-0.00105697
-0.000638671
-0.00113823
-0.000469745
-0.00113237
-0.000295263
-0.00102079
-0.000142033
-0.000802235
-3.72743e-05
-0.000500407
-0.000161141
-1.12438e-05
0.000128606
-3.96063e-05
0.000327015
-8.0008e-05
0.000473906
-0.000128214
0.000578253
-0.000181056
0.000649161
-0.000236397
0.000694726
-0.000292962
0.000721366
-0.000350119
0.000733576
-0.000407661
0.000733969
-0.000465622
0.000723498
-0.000524127
0.000701757
-0.000583266
0.000667322
-0.000642996
0.000618082
-0.000703045
0.000551568
-0.000762816
0.00046527
-0.000821273
0.000356951
-0.000876792
0.000224966
-0.000927007
6.85963e-05
-0.00096847
-0.000111404
-0.000996624
-0.000312409
-0.00100548
-0.000529007
-0.000987846
-0.000751766
-0.000936045
-0.00096581
-0.000843639
-0.00114938
-0.000708477
-0.0012734
-0.000536908
-0.00130394
-0.000347666
-0.00121004
-0.000172024
-0.000977876
-4.64948e-05
-0.000625937
-0.000207636
-1.10941e-05
0.0001397
-3.91604e-05
0.000355081
-7.87748e-05
0.000513521
-0.000125324
0.000624802
-0.000175391
0.000699228
-0.000226736
0.000746071
-0.000278094
0.000772725
-0.000328927
0.000784409
-0.000379182
0.000784224
-0.000429102
0.000773417
-0.000479077
0.000751732
-0.000529535
0.000717781
-0.000580855
0.000669402
-0.000633281
0.000603994
-0.000686835
0.000518825
-0.000741203
0.000411319
-0.000795572
0.000279336
-0.000848422
0.000121446
-0.000897115
-6.27107e-05
-0.000937756
-0.000271768
-0.000964542
-0.000502221
-0.000969673
-0.000746635
-0.000943599
-0.000991883
-0.000876338
-0.00121664
-0.000760555
-0.00138918
-0.000596857
-0.00146763
-0.000400413
-0.00140648
-0.000204973
-0.00117332
-5.73366e-05
-0.000773573
-0.000264972
-1.11846e-05
0.000150884
-3.93667e-05
0.000383263
-7.83908e-05
0.000552545
-0.000123023
0.000669434
-0.000169516
0.000745721
-0.000215538
0.000792093
-0.000259894
0.00081708
-0.0003022
0.000826715
-0.000342614
0.000824639
-0.00038163
0.000812433
-0.000419937
0.000790039
-0.000458327
0.000756171
-0.00049762
0.000708694
-0.000538596
0.000644971
-0.000581927
0.000562156
-0.000628063
0.000457454
-0.000677078
0.000328351
-0.000728457
0.000172825
-0.000780583
-1.05841e-05
-0.000830701
-0.00022165
-0.000873765
-0.000459157
-0.000902211
-0.000718189
-0.000905515
-0.00098858
-0.000870778
-0.00125137
-0.000785254
-0.0014747
-0.000642055
-0.00161083
-0.000449351
-0.00159918
-0.000239747
-0.00138292
-6.98796e-05
-0.00094344
-0.000334852
-1.18166e-05
0.000162701
-4.10524e-05
0.000412499
-8.01449e-05
0.000591637
-0.000122887
0.000712177
-0.000165125
0.000787958
-0.00020451
0.000831479
-0.000240038
0.000852608
-0.000271601
0.000858279
-0.000299662
0.000852699
-0.000325032
0.000837803
-0.000348743
0.00081375
-0.000371968
0.000779395
-0.00039597
0.000732696
-0.000422057
0.000671058
-0.000451522
0.00059162
-0.000485551
0.000491484
-0.000525089
0.000367888
-0.000570601
0.000218337
-0.000621881
4.06964e-05
-0.000677147
-0.000166384
-0.000732928
-0.000403376
-0.000782727
-0.00066839
-0.000816241
-0.000955065
-0.00081893
-0.00124869
-0.000773328
-0.0015203
-0.000664153
-0.00172001
-0.000489177
-0.00177416
-0.000274653
-0.00159744
-8.42229e-05
-0.00113387
-0.000419075
-1.34728e-05
0.000176174
-4.54473e-05
0.000444473
-8.58383e-05
0.000632028
-0.000126994
0.000753333
-0.000164341
0.000825305
-0.0001957
0.000862838
-0.000220479
0.000877387
-0.00023904
0.000876839
-0.000252289
0.000865949
-0.000261448
0.000846962
-0.000267936
0.000820239
-0.000273321
0.00078478
-0.000279293
0.000738667
-0.00028764
0.000679405
-0.00030021
0.00060419
-0.000318839
0.000510114
-0.000345245
0.000394294
-0.000380846
0.000253938
-0.000426519
8.63695e-05
-0.000482029
-0.000110874
-0.000545541
-0.000339864
-0.000612432
-0.0006015
-0.000673923
-0.000893574
-0.000715591
-0.00120702
-0.000716949
-0.00151895
-0.000654708
-0.00178225
-0.00051364
-0.00191523
-0.000307389
-0.0018037
-0.000100565
-0.00134069
-0.000519639
-1.69513e-05
0.000193125
-5.43821e-05
0.000481904
-9.79112e-05
0.000675557
-0.000137906
0.000793328
-0.000169533
0.000856932
-0.000191159
0.000884464
-0.000202971
0.000889199
-0.000206078
0.000879946
-0.000202016
0.000861887
-0.000192519
0.000837465
-0.000179438
0.000807158
-0.000164731
0.000770073
-0.000150468
0.000724404
-0.000138851
0.000667788
-0.000132176
0.000597516
-0.000132798
0.000510735
-0.000143056
0.000404552
-0.00016515
0.000276031
-0.000200936
0.000122156
-0.00025158
-6.02309e-05
-0.000317104
-0.00027434
-0.000395179
-0.000523425
-0.000479705
-0.000809047
-0.000558342
-0.00112838
-0.000610109
-0.00146718
-0.000605637
-0.00178672
-0.00051567
-0.0020052
-0.000334896
-0.00198447
-0.000119275
-0.00155631
-0.000638915
-2.36144e-05
0.000216739
-7.05713e-05
0.000528861
-0.000119507
0.000724493
-0.000158407
0.000832229
-0.000182732
0.000881257
-0.000192091
0.000893823
-0.000188001
0.000885109
-0.000172682
0.000864628
-0.00014851
0.000837715
-0.000117831
0.000806786
-8.29484e-05
0.000772275
-4.61796e-05
0.000733304
-9.91229e-06
0.000688137
2.33789e-05
0.000634497
5.10758e-05
0.000569819
7.04399e-05
0.000491371
7.86783e-05
0.000396314
7.3002e-05
0.000281707
5.07271e-05
0.000144431
9.46091e-06
-1.89647e-05
-5.22736e-05
-0.000212605
-0.000134932
-0.000440767
-0.00023578
-0.000708199
-0.000346308
-0.00101785
-0.000448052
-0.00136543
-0.000509008
-0.00172577
-0.000487108
-0.0020271
-0.000352903
-0.00211867
-0.000140817
-0.0017684
-0.000779732
-3.5833e-05
0.000252572
-9.79168e-05
0.000590945
-0.00015417
0.000780746
-0.000190509
0.000868567
-0.000204037
0.000894785
-0.000196779
0.000886564
-0.00017235
0.00086068
-0.000134512
0.000826789
-8.66759e-05
0.000789879
-3.18582e-05
0.000751968
2.7217e-05
0.0007132
8.79676e-05
0.000672554
0.000147823
0.000628282
0.000204128
0.000578191
0.000254105
0.000519842
0.000294829
0.000450647
0.000323226
0.000367917
0.000336098
0.000268835
0.000330165
0.000150363
0.000302092
9.10894e-06
0.000248711
-0.000159224
0.000167467
-0.000359523
5.74566e-05
-0.000598188
-7.78745e-05
-0.000882523
-0.000225642
-0.00121767
-0.000355877
-0.00159553
-0.000417641
-0.00196533
-0.00035476
-0.00218156
-0.000165146
-0.00195801
-0.000944878
-5.77035e-05
0.000310276
-0.000141447
0.000674689
-0.000204224
0.000843523
-0.000232342
0.000896686
-0.000227377
0.000889819
-0.00019558
0.000854767
-0.000143615
0.000808715
-7.71833e-05
0.000760357
-8.31136e-07
0.000713527
8.18307e-05
0.000669306
0.000167794
0.000627237
0.000254384
0.000585964
0.000339035
0.00054363
0.000419139
0.000498087
0.000491947
0.000447034
0.000554514
0.000388081
0.000603659
0.000318772
0.000635945
0.000236549
0.000647646
0.000138663
0.000634715
2.20391e-05
0.000592825
-0.000117334
0.00051745
-0.000284148
0.000404425
-0.000485163
0.000251842
-0.00072994
6.50219e-05
-0.00103085
-0.000133823
-0.00139669
-0.000292431
-0.00180672
-0.00032884
-0.00214515
-0.000189902
-0.00209695
-0.00113478
-9.58201e-05
0.000406096
-0.000205256
0.000784124
-0.000264806
0.000903074
-0.000269285
0.000901164
-0.000229926
0.00085046
-0.000159581
0.000784422
-6.87739e-05
0.000717908
3.48042e-05
0.000656779
0.000145754
0.000602577
0.000260239
0.000554822
0.000375371
0.000512104
0.00048875
0.000472586
0.000598139
0.000434241
0.000701256
0.00039497
0.000795634
0.000352656
0.000878525
0.000305189
0.000946844
0.000250453
0.000997101
0.000186292
0.00102533
0.000110436
0.00102692
2.04477e-05
0.000996837
-8.72516e-05
0.000929077
-0.000216388
0.000816947
-0.000373033
0.000653815
-0.000566808
0.000436394
-0.000813426
0.000174943
-0.00113523
-8.65656e-05
-0.00154522
-0.000253554
-0.00197816
-0.000207214
-0.00214329
-0.00134199
-0.000158308
0.000564404
-0.000281403
0.000907219
-0.000304345
0.000926016
-0.000250352
0.000847171
-0.000147844
0.000747952
-1.77754e-05
0.000654354
0.000126178
0.000573955
0.000275624
0.000507333
0.000425584
0.000452616
0.000573084
0.000407322
0.000716198
0.00036899
0.000853449
0.000335334
0.000983434
0.000304256
0.00110458
0.00027382
0.00121502
0.000242219
0.00131246
0.00020775
0.00139414
0.000168773
0.00145676
0.00012367
0.0014964
7.0803e-05
0.00150808
8.76871e-06
0.00148663
-6.58074e-05
0.00142508
-0.000154839
0.0013152
-0.000263152
0.00114703
-0.00039864
0.00090977
-0.000576164
0.000598111
-0.000823574
0.000234553
-0.00118166
-8.78827e-05
-0.00165572
-0.000197634
-0.00203354
-0.00153963
-0.000242361
0.000806765
-0.000301816
0.000966674
-0.000205708
0.000829907
-3.2281e-05
0.000673745
0.000170278
0.000545393
0.000378784
0.000445848
0.000582254
0.000370484
0.000775904
0.000313683
0.000958123
0.000270397
0.00112874
0.000236706
0.00128805
0.000209676
0.00143634
0.000187053
0.00157355
0.000167042
0.00169921
0.000148157
0.00181231
0.000129125
0.00191123
0.000108821
0.00199379
8.62218e-05
0.0020571
6.0354e-05
0.00209761
3.02923e-05
0.00211092
-4.54271e-06
0.00209162
-4.64991e-05
0.00203287
-9.60947e-05
0.0019261
-0.000156385
0.00175981
-0.000232347
0.00151815
-0.000334506
0.00118111
-0.000486534
0.000738401
-0.000738947
0.000248039
-0.00116536
-8.38069e-05
-0.00170169
-0.00162344
-0.000191699
0.000998464
2.38826e-05
0.000751093
0.000379238
0.000474552
0.000718493
0.00033449
0.00102001
0.000243876
0.00128391
0.000181947
0.00151421
0.00014018
0.00171604
0.00011186
0.00189433
9.21071e-05
0.00205322
7.78135e-05
0.00219588
6.70204e-05
0.00232451
5.8421e-05
0.00244046
5.10898e-05
0.00254428
4.43372e-05
0.00263578
3.76241e-05
0.00271409
3.05104e-05
0.00277769
2.26264e-05
0.00282436
1.36773e-05
0.00285113
3.52621e-06
0.00285556
-8.96882e-06
0.00283199
-2.29323e-05
0.00277547
-3.95794e-05
0.00267874
-5.96536e-05
0.00253131
-8.49195e-05
0.0023164
-0.000119588
0.00200486
-0.000174998
0.00155014
-0.000284225
0.000925964
-0.000541185
0.000263129
-0.00103886
-0.00136031
0.000998464
0.00174956
0.00222411
0.0025586
0.00280248
0.00298442
0.0031246
0.00323646
0.00332857
0.00340638
0.0034734
0.00353182
0.00358291
0.00362725
0.00366488
0.00369539
0.00371801
0.00373169
0.00373522
0.00372625
0.00370332
0.00366374
0.00360408
0.00351916
0.00339957
0.00322458
0.00294035
0.00239917
0.00136031
)
;

boundaryField
{
    movingWall
    {
        type            calculated;
        value           uniform 0;
    }
    fixedWalls
    {
        type            calculated;
        value           uniform 0;
    }
    frontAndBack
    {
        type            empty;
        value           nonuniform 0();
    }
}


// ************************************************************************* //
