/*--------------------------------*- C++ -*----------------------------------*\
  =========                 |
  \\      /  F ield         | OpenFOAM: The Open Source CFD Toolbox
   \\    /   O peration     | Website:  https://openfoam.org
    \\  /    A nd           | Version:  7
     \\/     M anipulation  |
\*---------------------------------------------------------------------------*/
FoamFile
{
    version     2.0;
    format      ascii;
    class       volVectorField;
    location    "4.1";
    object      U;
}
// * * * * * * * * * * * * * * * * * * * * * * * * * * * * * * * * * * * * * //

dimensions      [0 1 -1 0 0 0 0];

internalField   nonuniform List<vector> 
900
(
(0.000117893 -0.00011702 0)
(0.000175699 -2.64992e-05 0)
(-0.000155297 0.00010889 0)
(-0.000855401 0.000226704 0)
(-0.0018323 0.000308959 0)
(-0.00300409 0.000359168 0)
(-0.00429342 0.000385422 0)
(-0.00563708 0.000394489 0)
(-0.00698413 0.000390461 0)
(-0.00829029 0.000374929 0)
(-0.00951304 0.000347627 0)
(-0.0106083 0.000307188 0)
(-0.0115291 0.000251951 0)
(-0.0122261 0.000180745 0)
(-0.0126509 9.36562e-05 0)
(-0.0127599 -7.36713e-06 0)
(-0.0125206 -0.00011837 0)
(-0.0119177 -0.000232556 0)
(-0.0109599 -0.000341158 0)
(-0.00968379 -0.000434041 0)
(-0.0081556 -0.000500857 0)
(-0.00646943 -0.000532537 0)
(-0.00474084 -0.000522817 0)
(-0.00309676 -0.000469472 0)
(-0.00166209 -0.000375031 0)
(-0.000543657 -0.00024748 0)
(0.000178384 -0.000102102 0)
(0.000473346 4.2381e-05 0)
(0.000394591 0.000147333 0)
(0.000137228 0.000135913 0)
(3.22417e-05 -0.000180115 0)
(-0.000357587 0.000357035 0)
(-0.00162087 0.00103435 0)
(-0.00365035 0.001626 0)
(-0.00629367 0.00206708 0)
(-0.009384 0.00235767 0)
(-0.0127549 0.002519 0)
(-0.0162568 0.00257346 0)
(-0.0197579 0.00253659 0)
(-0.0231376 0.00241561 0)
(-0.0262793 0.0022109 0)
(-0.0290653 0.0019189 0)
(-0.0313758 0.00153571 0)
(-0.0330914 0.00106076 0)
(-0.0340996 0.000500302 0)
(-0.0343053 -0.000129927 0)
(-0.0336427 -0.000802814 0)
(-0.0320884 -0.00147979 0)
(-0.0296743 -0.0021129 0)
(-0.0264951 -0.00264872 0)
(-0.0227103 -0.00303433 0)
(-0.0185389 -0.00322456 0)
(-0.0142454 -0.00318943 0)
(-0.0101171 -0.00292053 0)
(-0.00643491 -0.00243518 0)
(-0.00344058 -0.00177906 0)
(-0.00130383 -0.00102952 0)
(-8.60513e-05 -0.00029277 0)
(0.000303282 0.000269568 0)
(0.000156507 0.00039298 0)
(-0.000112713 0.000152738 0)
(-0.00110089 0.00163412 0)
(-0.00342862 0.00328041 0)
(-0.00679472 0.00470634 0)
(-0.0109799 0.00579267 0)
(-0.0157662 0.00652653 0)
(-0.0209299 0.00693883 0)
(-0.0262623 0.00706903 0)
(-0.0315722 0.00694717 0)
(-0.0366796 0.00658858 0)
(-0.0414092 0.00599576 0)
(-0.0455851 0.00516429 0)
(-0.0490312 0.00409071 0)
(-0.0515755 0.00278091 0)
(-0.0530596 0.0012579 0)
(-0.0533525 -0.000432158 0)
(-0.0523664 -0.00221627 0)
(-0.0500741 -0.00399554 0)
(-0.0465249 -0.00564998 0)
(-0.0418534 -0.00704826 0)
(-0.0362833 -0.00806179 0)
(-0.0301193 -0.00858176 0)
(-0.0237293 -0.00853682 0)
(-0.0175142 -0.00790852 0)
(-0.0118684 -0.00674209 0)
(-0.00713537 -0.00515206 0)
(-0.00356085 -0.00332456 0)
(-0.00124627 -0.00151779 0)
(-0.000114086 -7.50005e-05 0)
(8.89827e-05 0.000517158 0)
(-0.000259801 0.000914731 0)
(-0.00186168 0.0038189 0)
(-0.00527398 0.00673248 0)
(-0.00996168 0.00920272 0)
(-0.0156137 0.0110812 0)
(-0.0219636 0.0123526 0)
(-0.0287431 0.0130607 0)
(-0.0357009 0.0132618 0)
(-0.0426035 0.0129997 0)
(-0.0492279 0.0122972 0)
(-0.0553541 0.0111587 0)
(-0.060762 0.00957994 0)
(-0.0652313 0.00756029 0)
(-0.0685479 0.00511665 0)
(-0.0705154 0.00229613 0)
(-0.0709714 -0.000814441 0)
(-0.069805 -0.00408392 0)
(-0.0669781 -0.00733652 0)
(-0.0625434 -0.0103618 0)
(-0.0566565 -0.0129305 0)
(-0.0495812 -0.0148182 0)
(-0.0416832 -0.0158341 0)
(-0.0334099 -0.0158511 0)
(-0.0252567 -0.0148335 0)
(-0.0177201 -0.0128568 0)
(-0.011243 -0.010117 0)
(-0.00615676 -0.00693119 0)
(-0.00262439 -0.00373139 0)
(-0.000621091 -0.00105975 0)
(6.28583e-06 0.000384762 0)
(-0.00039143 0.00207422 0)
(-0.00257885 0.00689148 0)
(-0.00704764 0.0113609 0)
(-0.0130158 0.0150479 0)
(-0.0200689 0.01782 0)
(-0.027889 0.0196827 0)
(-0.036169 0.0207028 0)
(-0.0446251 0.0209567 0)
(-0.0529941 0.0205016 0)
(-0.0610229 0.0193665 0)
(-0.0684599 0.0175567 0)
(-0.075051 0.015067 0)
(-0.0805404 0.0119001 0)
(-0.0846776 0.00808548 0)
(-0.0872296 0.00369732 0)
(-0.0879991 -0.00113207 0)
(-0.0868433 -0.0062067 0)
(-0.0836977 -0.0112631 0)
(-0.0786001 -0.0159872 0)
(-0.0717052 -0.0200354 0)
(-0.0632959 -0.0230679 0)
(-0.0537802 -0.0247909 0)
(-0.0436743 -0.0250022 0)
(-0.0335656 -0.0236338 0)
(-0.0240606 -0.0207841 0)
(-0.0157193 -0.0167338 0)
(-0.00898343 -0.0119431 0)
(-0.00410558 -0.00703329 0)
(-0.00114178 -0.00275793 0)
(-6.74616e-05 -2.10806e-05 0)
(-0.000507404 0.00360401 0)
(-0.00323895 0.0108119 0)
(-0.00871015 0.0171277 0)
(-0.0158992 0.0221995 0)
(-0.0242865 0.0259563 0)
(-0.033502 0.0284532 0)
(-0.0432029 0.0297955 0)
(-0.0530804 0.0300862 0)
(-0.0628515 0.029398 0)
(-0.0722437 0.0277649 0)
(-0.0809839 0.0251907 0)
(-0.0887929 0.0216668 0)
(-0.0953854 0.017196 0)
(-0.100476 0.0118177 0)
(-0.103793 0.00563129 0)
(-0.105096 -0.00118568 0)
(-0.104195 -0.00837061 0)
(-0.100978 -0.0155662 0)
(-0.095447 -0.0223439 0)
(-0.0877296 -0.0282286 0)
(-0.0781049 -0.0327418 0)
(-0.0670074 -0.0354583 0)
(-0.0550151 -0.0360707 0)
(-0.0428151 -0.0344522 0)
(-0.031144 -0.0307067 0)
(-0.0207109 -0.0251947 0)
(-0.0121056 -0.0185294 0)
(-0.00570608 -0.0115413 0)
(-0.00167528 -0.00521968 0)
(-0.000130972 -0.000694265 0)
(-0.000610817 0.00547146 0)
(-0.0038429 0.0155236 0)
(-0.0102498 0.0239695 0)
(-0.018588 0.0305919 0)
(-0.0282379 0.0354234 0)
(-0.0387797 0.0385984 0)
(-0.0498392 0.0402787 0)
(-0.0610894 0.040604 0)
(-0.0722358 0.0396652 0)
(-0.0829958 0.0375011 0)
(-0.0930838 0.0341104 0)
(-0.102203 0.0294759 0)
(-0.110042 0.0235941 0)
(-0.116283 0.0165068 0)
(-0.120608 0.00833021 0)
(-0.122725 -0.000719882 0)
(-0.122379 -0.0103079 0)
(-0.119388 -0.0199922 0)
(-0.113689 -0.0292203 0)
(-0.105354 -0.0373664 0)
(-0.0946316 -0.0437845 0)
(-0.0819622 -0.0478804 0)
(-0.0679779 -0.049198 0)
(-0.0534737 -0.0475099 0)
(-0.0393438 -0.0428932 0)
(-0.0264887 -0.0357747 0)
(-0.0156972 -0.0269288 0)
(-0.00751935 -0.0174237 0)
(-0.00225801 -0.00852593 0)
(-0.000191451 -0.00164093 0)
(-0.000703845 0.00764601 0)
(-0.00439271 0.0209651 0)
(-0.0116614 0.0318123 0)
(-0.021067 0.0401485 0)
(-0.0318996 0.0461481 0)
(-0.0436951 0.0500534 0)
(-0.0560535 0.0521023 0)
(-0.0686365 0.0524814 0)
(-0.081146 0.0513049 0)
(-0.093298 0.0486154 0)
(-0.104803 0.0444028 0)
(-0.115352 0.0386337 0)
(-0.124616 0.0312886 0)
(-0.132243 0.0224 0)
(-0.137865 0.0120885 0)
(-0.141119 0.000596169 0)
(-0.141676 -0.0116872 0)
(-0.139268 -0.0242316 0)
(-0.133727 -0.0363564 0)
(-0.125037 -0.0472688 0)
(-0.113382 -0.0561232 0)
(-0.0991795 -0.0621086 0)
(-0.0830988 -0.0645616 0)
(-0.0660456 -0.0630921 0)
(-0.0490982 -0.0576993 0)
(-0.0333987 -0.0488474 0)
(-0.0199988 -0.0374766 0)
(-0.00968367 -0.0249311 0)
(-0.00294525 -0.0128168 0)
(-0.0002592 -0.00289418 0)
(-0.000787042 0.0100986 0)
(-0.0048869 0.0270716 0)
(-0.0129359 0.0405744 0)
(-0.0233161 0.0507837 0)
(-0.0352388 0.0580493 0)
(-0.0482028 0.0627488 0)
(-0.0617896 0.0652147 0)
(-0.075656 0.0656926 0)
(-0.0895085 0.0643248 0)
(-0.10307 0.0611579 0)
(-0.116055 0.0561675 0)
(-0.128152 0.0492956 0)
(-0.139016 0.0404938 0)
(-0.148264 0.0297692 0)
(-0.155481 0.01723 0)
(-0.16023 0.00312467 0)
(-0.162088 -0.0121282 0)
(-0.160671 -0.0279129 0)
(-0.155685 -0.0434231 0)
(-0.14699 -0.0576863 0)
(-0.134659 -0.0696242 0)
(-0.119047 -0.0781541 0)
(-0.100827 -0.0823304 0)
(-0.0810036 -0.081515 0)
(-0.0608563 -0.0755494 0)
(-0.0418198 -0.0648838 0)
(-0.0252868 -0.0506175 0)
(-0.0123626 -0.0344155 0)
(-0.00380194 -0.018308 0)
(-0.000345562 -0.00452009 0)
(-0.000859591 0.0127986 0)
(-0.00531986 0.0337724 0)
(-0.0140574 0.0501638 0)
(-0.0253047 0.062398 0)
(-0.0382068 0.0710304 0)
(-0.0522333 0.0765981 0)
(-0.0669536 0.079547 0)
(-0.082027 0.0801933 0)
(-0.0971715 0.0787133 0)
(-0.112125 0.0751577 0)
(-0.126615 0.0694832 0)
(-0.140336 0.0615969 0)
(-0.152937 0.0514068 0)
(-0.164011 0.0388756 0)
(-0.173094 0.0240746 0)
(-0.17968 0.00723373 0)
(-0.183243 -0.011215 0)
(-0.183269 -0.0306018 0)
(-0.179312 -0.0500036 0)
(-0.171067 -0.0682629 0)
(-0.158452 -0.0840406 0)
(-0.141697 -0.0959246 0)
(-0.121429 -0.102599 0)
(-0.0987104 -0.103067 0)
(-0.0750192 -0.0968957 0)
(-0.0521259 -0.0844319 0)
(-0.031852 -0.066903 0)
(-0.0157338 -0.0463384 0)
(-0.00489906 -0.0253001 0)
(-0.000462527 -0.006621 0)
(-0.000919748 0.0157113 0)
(-0.0056828 0.0409873 0)
(-0.015004 0.060474 0)
(-0.0269929 0.0748732 0)
(-0.0407403 0.0849712 0)
(-0.0556936 0.0914867 0)
(-0.071416 0.0949966 0)
(-0.087575 0.0958997 0)
(-0.103907 0.094413 0)
(-0.120173 0.0905922 0)
(-0.136121 0.0843712 0)
(-0.151464 0.0756125 0)
(-0.165854 0.0641655 0)
(-0.178871 0.0499278 0)
(-0.190016 0.0329084 0)
(-0.198721 0.0132894 0)
(-0.204361 -0.00851557 0)
(-0.20629 -0.0318146 0)
(-0.20389 -0.0555907 0)
(-0.196662 -0.0785118 0)
(-0.184313 -0.0989639 0)
(-0.166884 -0.115156 0)
(-0.14487 -0.125309 0)
(-0.11932 -0.12793 0)
(-0.0918693 -0.122153 0)
(-0.0646422 -0.108075 0)
(-0.0399777 -0.0869745 0)
(-0.0199825 -0.0612707 0)
(-0.00631284 -0.0341838 0)
(-0.000623118 -0.00933806 0)
(-0.000965355 0.0187965 0)
(-0.00596558 0.0486244 0)
(-0.0157513 0.0713822 0)
(-0.0283361 0.0880687 0)
(-0.0427673 0.0997219 0)
(-0.058475 0.107262 0)
(-0.0750205 0.111413 0)
(-0.0920837 0.112669 0)
(-0.109424 0.111295 0)
(-0.126832 0.107356 0)
(-0.144088 0.100758 0)
(-0.16093 0.0913136 0)
(-0.177031 0.0787986 0)
(-0.191973 0.0630268 0)
(-0.205243 0.0439189 0)
(-0.216227 0.021576 0)
(-0.224226 -0.0036462 0)
(-0.228469 -0.031058 0)
(-0.228168 -0.059605 0)
(-0.22261 -0.0878088 0)
(-0.211248 -0.113789 0)
(-0.193852 -0.135348 0)
(-0.170683 -0.150158 0)
(-0.142659 -0.156079 0)
(-0.111479 -0.151605 0)
(-0.0795882 -0.136364 0)
(-0.0499137 -0.111526 0)
(-0.0252932 -0.079881 0)
(-0.00812476 -0.0454418 0)
(-0.000842122 -0.012854 0)
(-0.00099444 0.0220083 0)
(-0.0061594 0.0565803 0)
(-0.0162778 0.0827479 0)
(-0.0292937 0.101819 0)
(-0.0442186 0.115098 0)
(-0.0604676 0.123725 0)
(-0.0776018 0.128586 0)
(-0.0953154 0.130283 0)
(-0.113395 0.12914 0)
(-0.131664 0.125232 0)
(-0.149943 0.118443 0)
(-0.168009 0.108526 0)
(-0.18557 0.095178 0)
(-0.202237 0.0781118 0)
(-0.217506 0.057138 0)
(-0.230753 0.0322475 0)
(-0.241221 0.00370011 0)
(-0.248062 -0.027879 0)
(-0.250353 -0.0614392 0)
(-0.247154 -0.0954146 0)
(-0.237637 -0.127703 0)
(-0.22123 -0.15571 0)
(-0.19784 -0.176506 0)
(-0.168097 -0.18716 0)
(-0.133596 -0.185278 0)
(-0.0970007 -0.169708 0)
(-0.0618369 -0.141236 0)
(-0.0318382 -0.102909 0)
(-0.0104213 -0.0596455 0)
(-0.00113699 -0.0173963 0)
(-0.00100592 0.0252967 0)
(-0.00626004 0.0647428 0)
(-0.0165726 0.0944167 0)
(-0.0298402 0.115936 0)
(-0.0450428 0.130882 0)
(-0.0615794 0.140628 0)
(-0.0790094 0.146238 0)
(-0.0970413 0.148437 0)
(-0.115489 0.147616 0)
(-0.134214 0.143872 0)
(-0.153083 0.137066 0)
(-0.171924 0.126898 0)
(-0.190497 0.112978 0)
(-0.208464 0.0949111 0)
(-0.225367 0.072382 0)
(-0.240609 0.0452482 0)
(-0.253446 0.0136369 0)
(-0.262985 -0.021955 0)
(-0.268207 -0.0605348 0)
(-0.267997 -0.100535 0)
(-0.261244 -0.139717 0)
(-0.246987 -0.175153 0)
(-0.22466 -0.203314 0)
(-0.194418 -0.220373 0)
(-0.157521 -0.22279 0)
(-0.116633 -0.208235 0)
(-0.0757946 -0.176671 0)
(-0.0397577 -0.131119 0)
(-0.0132918 -0.0774451 0)
(-0.00152878 -0.0232404 0)
(-0.00100044 0.0286108 0)
(-0.00627192 0.0729986 0)
(-0.0166439 0.106227 0)
(-0.0299795 0.130214 0)
(-0.0452257 0.146823 0)
(-0.0617603 0.157672 0)
(-0.079138 0.164022 0)
(-0.0970791 0.166734 0)
(-0.115424 0.166279 0)
(-0.134075 0.162786 0)
(-0.15295 0.156105 0)
(-0.171938 0.145885 0)
(-0.190869 0.131655 0)
(-0.209483 0.112912 0)
(-0.227401 0.0892101 0)
(-0.244106 0.0602567 0)
(-0.258918 0.0260164 0)
(-0.270976 -0.0131753 0)
(-0.279236 -0.0564772 0)
(-0.282478 -0.102417 0)
(-0.279349 -0.148746 0)
(-0.268497 -0.192328 0)
(-0.248799 -0.229125 0)
(-0.219752 -0.254384 0)
(-0.181987 -0.263204 0)
(-0.137843 -0.251616 0)
(-0.0916271 -0.218133 0)
(-0.0491274 -0.165213 0)
(-0.0168234 -0.0995461 0)
(-0.00204291 -0.0307115 0)
(-0.0009813 0.0319049 0)
(-0.00621273 0.0812446 0)
(-0.0165294 0.118026 0)
(-0.0297604 0.144443 0)
(-0.0448105 0.162648 0)
(-0.0610284 0.17452 0)
(-0.0779593 0.181529 0)
(-0.0953329 0.184692 0)
(-0.113016 0.184576 0)
(-0.130953 0.181353 0)
(-0.149117 0.174876 0)
(-0.167467 0.164755 0)
(-0.18592 0.15045 0)
(-0.204316 0.131361 0)
(-0.222391 0.106917 0)
(-0.239754 0.0766747 0)
(-0.255852 0.040421 0)
(-0.269934 -0.00170906 0)
(-0.281023 -0.0491011 0)
(-0.287889 -0.100482 0)
(-0.289032 -0.15375 0)
(-0.282762 -0.205756 0)
(-0.267386 -0.252133 0)
(-0.241595 -0.287306 0)
(-0.205102 -0.304903 0)
(-0.159482 -0.298871 0)
(-0.108875 -0.265477 0)
(-0.059914 -0.205721 0)
(-0.0210928 -0.126668 0)
(-0.00270996 -0.0401839 0)
(-0.000955721 0.0351467 0)
(-0.00611916 0.0894051 0)
(-0.0163087 0.129681 0)
(-0.0292944 0.158423 0)
(-0.0439203 0.178077 0)
(-0.0594956 0.190801 0)
(-0.0755524 0.198299 0)
(-0.0918304 0.201759 0)
(-0.108225 0.201863 0)
(-0.124725 0.198842 0)
(-0.141363 0.192566 0)
(-0.158179 0.182625 0)
(-0.175186 0.16843 0)
(-0.192344 0.149301 0)
(-0.209534 0.12456 0)
(-0.226529 0.0936266 0)
(-0.242958 0.0561109 0)
(-0.258259 0.0119252 0)
(-0.271613 -0.0385879 0)
(-0.28189 -0.0944648 0)
(-0.287584 -0.15392 0)
(-0.286789 -0.214022 0)
(-0.277312 -0.270363 0)
(-0.256997 -0.316803 0)
(-0.224396 -0.345575 0)
(-0.179847 -0.348228 0)
(-0.126693 -0.317894 0)
(-0.07192 -0.252828 0)
(-0.0261544 -0.159477 0)
(-0.00356671 -0.0520764 0)
(-0.000936528 0.0383302 0)
(-0.00605417 0.0974555 0)
(-0.016117 0.141115 0)
(-0.0287743 0.171988 0)
(-0.0427785 0.192838 0)
(-0.0573894 0.206133 0)
(-0.0721279 0.213838 0)
(-0.0867502 0.217335 0)
(-0.101188 0.217436 0)
(-0.115482 0.214452 0)
(-0.129733 0.208282 0)
(-0.144065 0.198521 0)
(-0.1586 0.184551 0)
(-0.17343 0.16564 0)
(-0.1886 0.141031 0)
(-0.204073 0.110028 0)
(-0.219699 0.0720838 0)
(-0.235157 0.0268904 0)
(-0.249871 -0.0255022 0)
(-0.262933 -0.0845246 0)
(-0.272978 -0.148853 0)
(-0.278064 -0.216027 0)
(-0.275674 -0.281946 0)
(-0.262894 -0.340322 0)
(-0.237012 -0.382325 0)
(-0.196715 -0.397056 0)
(-0.143789 -0.37372 0)
(-0.0847273 -0.306176 0)
(-0.0320296 -0.198496 0)
(-0.00465883 -0.066843 0)
(-0.000945154 0.0414916 0)
(-0.00611792 0.105454 0)
(-0.016164 0.152326 0)
(-0.0284949 0.185025 0)
(-0.0417277 0.206683 0)
(-0.0550679 0.220132 0)
(-0.0680379 0.227635 0)
(-0.0804293 0.230793 0)
(-0.0922276 0.230566 0)
(-0.10354 0.227356 0)
(-0.114544 0.221113 0)
(-0.125459 0.21145 0)
(-0.136519 0.19775 0)
(-0.147956 0.179255 0)
(-0.159983 0.155161 0)
(-0.172765 0.124691 0)
(-0.186388 0.0871705 0)
(-0.200802 0.0420996 0)
(-0.215725 -0.0107648 0)
(-0.23057 -0.0712945 0)
(-0.244252 -0.138707 0)
(-0.255006 -0.211228 0)
(-0.260248 -0.285445 0)
(-0.256554 -0.355453 0)
(-0.240045 -0.41196 0)
(-0.207514 -0.44197 0)
(-0.15844 -0.43031 0)
(-0.0976527 -0.364641 0)
(-0.0387003 -0.243974 0)
(-0.00604757 -0.0849641 0)
(-0.00101744 0.0447353 0)
(-0.00646556 0.113581 0)
(-0.0167594 0.16343 0)
(-0.028877 0.197498 0)
(-0.0412436 0.219403 0)
(-0.0530212 0.232424 0)
(-0.0637664 0.239176 0)
(-0.0733426 0.241503 0)
(-0.0818205 0.240526 0)
(-0.0893963 0.236747 0)
(-0.096342 0.23018 0)
(-0.102978 0.220473 0)
(-0.109654 0.207026 0)
(-0.116742 0.189087 0)
(-0.124616 0.165832 0)
(-0.133634 0.136439 0)
(-0.144109 0.100145 0)
(-0.156259 0.0562939 0)
(-0.170141 0.00438363 0)
(-0.185508 -0.0558557 0)
(-0.201658 -0.124237 0)
(-0.217224 -0.199807 0)
(-0.229855 -0.280152 0)
(-0.235993 -0.360328 0)
(-0.230921 -0.431403 0)
(-0.209579 -0.47911 0)
(-0.168574 -0.484048 0)
(-0.109725 -0.426134 0)
(-0.0461126 -0.295741 0)
(-0.00782426 -0.106944 0)
(-0.00121559 0.0482736 0)
(-0.00733859 0.122199 0)
(-0.0183504 0.17469 0)
(-0.0304919 0.209459 0)
(-0.041938 0.230818 0)
(-0.0518497 0.242633 0)
(-0.0598834 0.247932 0)
(-0.0660362 0.248829 0)
(-0.0705124 0.246608 0)
(-0.0736299 0.241868 0)
(-0.0757731 0.234687 0)
(-0.0773723 0.224758 0)
(-0.0788943 0.211513 0)
(-0.0808372 0.194223 0)
(-0.0837225 0.172073 0)
(-0.0880795 0.144225 0)
(-0.0944215 0.109865 0)
(-0.103209 0.0682251 0)
(-0.11479 0.0186036 0)
(-0.129286 -0.0395835 0)
(-0.146454 -0.106717 0)
(-0.165447 -0.182688 0)
(-0.184439 -0.266263 0)
(-0.200193 -0.353962 0)
(-0.207698 -0.438147 0)
(-0.200426 -0.504554 0)
(-0.171908 -0.530528 0)
(-0.11968 -0.487459 0)
(-0.0541844 -0.353024 0)
(-0.0101365 -0.133327 0)
(-0.00165288 0.0524946 0)
(-0.00912032 0.13192 0)
(-0.0215741 0.186549 0)
(-0.0340799 0.221029 0)
(-0.0445285 0.240743 0)
(-0.0521869 0.250339 0)
(-0.0569278 0.253334 0)
(-0.0589755 0.252116 0)
(-0.0587334 0.248115 0)
(-0.0566813 0.24201 0)
(-0.0533364 0.233929 0)
(-0.0492438 0.223604 0)
(-0.0449781 0.210504 0)
(-0.0411491 0.193936 0)
(-0.0383996 0.173108 0)
(-0.0373956 0.147193 0)
(-0.0388113 0.115359 0)
(-0.0433033 0.0767735 0)
(-0.0514647 0.030607 0)
(-0.0637477 -0.0239699 0)
(-0.0803701 -0.0877612 0)
(-0.101077 -0.161407 0)
(-0.124779 -0.244867 0)
(-0.149005 -0.33643 0)
(-0.169129 -0.43063 0)
(-0.177891 -0.514785 0)
(-0.166041 -0.56486 0)
(-0.125933 -0.544254 0)
(-0.062789 -0.414229 0)
(-0.0132245 -0.164749 0)
(-0.00254359 0.0580848 0)
(-0.0124303 0.143702 0)
(-0.0273168 0.199618 0)
(-0.0405247 0.232327 0)
(-0.0497181 0.248887 0)
(-0.0544943 0.254987 0)
(-0.0551312 0.254686 0)
(-0.0522113 0.250621 0)
(-0.0464164 0.244316 0)
(-0.0384302 0.236482 0)
(-0.0289178 0.227265 0)
(-0.0185362 0.216417 0)
(-0.00795084 0.203438 0)
(0.00214292 0.187667 0)
(0.0110135 0.168349 0)
(0.0179008 0.144683 0)
(0.0220166 0.115845 0)
(0.0225589 0.0809838 0)
(0.0187433 0.0392067 0)
(0.00985089 -0.0104584 0)
(-0.00475335 -0.0690994 0)
(-0.0254036 -0.137862 0)
(-0.0518393 -0.217736 0)
(-0.082694 -0.308818 0)
(-0.114424 -0.408416 0)
(-0.140048 -0.507065 0)
(-0.148409 -0.58203 0)
(-0.126458 -0.591004 0)
(-0.0716381 -0.476634 0)
(-0.0174436 -0.201987 0)
(-0.00429962 0.0662532 0)
(-0.0182704 0.158944 0)
(-0.0367314 0.214579 0)
(-0.050669 0.243263 0)
(-0.0578174 0.254632 0)
(-0.0585267 0.255681 0)
(-0.0537657 0.251004 0)
(-0.0446388 0.243384 0)
(-0.0321898 0.234337 0)
(-0.0173384 0.224525 0)
(-0.000898107 0.21405 0)
(0.0163805 0.202652 0)
(0.0337686 0.18984 0)
(0.0505259 0.17498 0)
(0.0658794 0.157356 0)
(0.0790177 0.136206 0)
(0.0890859 0.110735 0)
(0.0951891 0.0801115 0)
(0.0964027 0.0434412 0)
(0.0917813 -0.000286839 0)
(0.0803842 -0.0522807 0)
(0.0613569 -0.113947 0)
(0.0341159 -0.186973 0)
(-0.00120859 -0.27297 0)
(-0.0427103 -0.372176 0)
(-0.0848373 -0.479685 0)
(-0.115999 -0.577232 0)
(-0.118451 -0.62107 0)
(-0.0799172 -0.535891 0)
(-0.0231881 -0.245883 0)
(-0.00770108 0.0791388 0)
(-0.0282005 0.179502 0)
(-0.0510195 0.231819 0)
(-0.0646252 0.253062 0)
(-0.0676727 0.256576 0)
(-0.0619924 0.250811 0)
(-0.0496289 0.240717 0)
(-0.0323822 0.229006 0)
(-0.0117161 0.217002 0)
(0.0112163 0.205189 0)
(0.0354867 0.193544 0)
(0.0603002 0.181744 0)
(0.0849198 0.169279 0)
(0.108616 0.155534 0)
(0.130629 0.139829 0)
(0.150152 0.121453 0)
(0.166314 0.0996624 0)
(0.178174 0.0736829 0)
(0.184716 0.0426749 0)
(0.184833 0.00568221 0)
(0.177338 -0.038466 0)
(0.16096 -0.0912289 0)
(0.134411 -0.154573 0)
(0.0966517 -0.231085 0)
(0.0476771 -0.323526 0)
(-0.00945523 -0.432146 0)
(-0.0647335 -0.546243 0)
(-0.0976071 -0.626709 0)
(-0.0854423 -0.585256 0)
(-0.0305111 -0.296991 0)
(-0.0141143 0.100473 0)
(-0.0443074 0.207306 0)
(-0.0702988 0.250484 0)
(-0.0795886 0.259258 0)
(-0.0738104 0.251708 0)
(-0.0573609 0.23744 0)
(-0.0337504 0.221263 0)
(-0.00555426 0.205401 0)
(0.0253967 0.190704 0)
(0.0578214 0.177301 0)
(0.0907925 0.164946 0)
(0.123579 0.153193 0)
(0.155537 0.14149 0)
(0.186033 0.129228 0)
(0.214398 0.115773 0)
(0.239893 0.100479 0)
(0.261693 0.0826839 0)
(0.278865 0.0617073 0)
(0.290356 0.0368211 0)
(0.294943 0.0072032 0)
(0.291275 -0.0281766 0)
(0.277788 -0.0706158 0)
(0.252672 -0.122004 0)
(0.213955 -0.185238 0)
(0.159875 -0.264678 0)
(0.0903635 -0.365278 0)
(0.0115459 -0.485989 0)
(-0.0566967 -0.599268 0)
(-0.0831619 -0.614807 0)
(-0.0381296 -0.355446 0)
(-0.0253654 0.13658 0)
(-0.0676836 0.242145 0)
(-0.0890556 0.265623 0)
(-0.0833919 0.255351 0)
(-0.0594057 0.233819 0)
(-0.0250374 0.210412 0)
(0.0148189 0.188706 0)
(0.0571679 0.169761 0)
(0.100203 0.153586 0)
(0.142858 0.139774 0)
(0.18448 0.12777 0)
(0.224615 0.116978 0)
(0.262872 0.106797 0)
(0.298841 0.0966427 0)
(0.332039 0.0859448 0)
(0.361878 0.07415 0)
(0.387644 0.0607139 0)
(0.40848 0.0450883 0)
(0.423366 0.0267014 0)
(0.431029 0.00491691 0)
(0.430065 -0.0210027 0)
(0.418749 -0.0520901 0)
(0.394958 -0.0898955 0)
(0.356124 -0.137009 0)
(0.299162 -0.198111 0)
(0.22099 -0.281143 0)
(0.122364 -0.394789 0)
(0.0167679 -0.530014 0)
(-0.0629929 -0.610919 0)
(-0.0413591 -0.420311 0)
(-0.0409945 0.198654 0)
(-0.089642 0.274353 0)
(-0.079699 0.259859 0)
(-0.0373058 0.225416 0)
(0.018568 0.190972 0)
(0.0783684 0.161602 0)
(0.137734 0.137953 0)
(0.194684 0.119254 0)
(0.248446 0.104444 0)
(0.298849 0.0925569 0)
(0.345957 0.0827784 0)
(0.389879 0.0744282 0)
(0.430662 0.0669258 0)
(0.468241 0.059765 0)
(0.502409 0.0524945 0)
(0.532797 0.0447023 0)
(0.558863 0.0360036 0)
(0.579892 0.026026 0)
(0.59497 0.0143886 0)
(0.602953 0.000659948 0)
(0.602505 -0.0155132 0)
(0.591867 -0.0348319 0)
(0.568901 -0.0583331 0)
(0.530843 -0.0878475 0)
(0.473911 -0.12711 0)
(0.392832 -0.184131 0)
(0.282438 -0.27398 0)
(0.143926 -0.410624 0)
(-0.00452366 -0.553676 0)
(-0.0256862 -0.477052 0)
(-0.0337871 0.294469 0)
(-0.0468799 0.27383 0)
(0.0553095 0.200424 0)
(0.158405 0.149841 0)
(0.250514 0.11421 0)
(0.331225 0.0886118 0)
(0.401626 0.070456 0)
(0.463104 0.0575545 0)
(0.517142 0.0481997 0)
(0.565081 0.0412184 0)
(0.607977 0.0358204 0)
(0.646602 0.0314489 0)
(0.68146 0.0276905 0)
(0.712819 0.0242236 0)
(0.740728 0.0207874 0)
(0.765035 0.0171615 0)
(0.785397 0.0131539 0)
(0.801287 0.00859321 0)
(0.811963 0.00331914 0)
(0.816631 -0.0027937 0)
(0.81419 -0.0100016 0)
(0.803139 -0.018573 0)
(0.781736 -0.0289421 0)
(0.747571 -0.0419892 0)
(0.696986 -0.0596976 0)
(0.623897 -0.0870728 0)
(0.518141 -0.137546 0)
(0.364725 -0.240581 0)
(0.143794 -0.407068 0)
(0.0587449 -0.4583 0)
(0.303387 0.181021 0)
(0.383076 0.144577 0)
(0.56187 0.0914441 0)
(0.688022 0.0591505 0)
(0.770633 0.0393215 0)
(0.829721 0.0266487 0)
(0.874743 0.0186062 0)
(0.910201 0.013533 0)
(0.938952 0.0102825 0)
(0.962943 0.00813226 0)
(0.98344 0.00664495 0)
(1.00123 0.00555083 0)
(1.0168 0.00467624 0)
(1.03039 0.0039042 0)
(1.04208 0.00315185 0)
(1.05183 0.00235738 0)
(1.05946 0.00147218 0)
(1.0647 0.000459952 0)
(1.06722 -0.000709316 0)
(1.06654 -0.00198799 0)
(1.06211 -0.00354199 0)
(1.05331 -0.00539441 0)
(1.03929 -0.00760873 0)
(1.01885 -0.0103785 0)
(0.989915 -0.0141868 0)
(0.948402 -0.02036 0)
(0.884583 -0.0327714 0)
(0.77664 -0.0639078 0)
(0.544891 -0.139549 0)
(0.382489 -0.201772 0)
)
;

boundaryField
{
    movingWall
    {
        type            fixedValue;
        value           uniform (1.2 0 0);
    }
    fixedWalls
    {
        type            noSlip;
    }
    frontAndBack
    {
        type            empty;
    }
}


// ************************************************************************* //
