/*--------------------------------*- C++ -*----------------------------------*\
  =========                 |
  \\      /  F ield         | OpenFOAM: The Open Source CFD Toolbox
   \\    /   O peration     | Website:  https://openfoam.org
    \\  /    A nd           | Version:  7
     \\/     M anipulation  |
\*---------------------------------------------------------------------------*/
FoamFile
{
    version     2.0;
    format      ascii;
    class       volScalarField;
    location    "5.5";
    object      p;
}
// * * * * * * * * * * * * * * * * * * * * * * * * * * * * * * * * * * * * * //

dimensions      [0 2 -2 0 0 0 0];

internalField   nonuniform List<scalar> 
900
(
9.29531e-07
-0.00031715
-0.00082284
-0.00134626
-0.00179574
-0.00211298
-0.00226899
-0.00225097
-0.00205271
-0.00167019
-0.00110101
-0.000346196
0.000586684
0.00167996
0.00290275
0.00420909
0.005538
0.00681605
0.00796296
0.00889961
0.00955791
0.00989113
0.00988287
0.00955292
0.00895956
0.00819592
0.00736886
0.0066376
0.00613527
0.0059901
0.000317781
-1.12752e-05
-0.000392943
-0.000772141
-0.001092
-0.00131073
-0.00140533
-0.00136328
-0.00117679
-0.0008405
-0.000351313
0.000290264
0.00107785
0.00199649
0.00302022
0.00411048
0.00521797
0.00628152
0.00723543
0.00801533
0.0085665
0.00885245
0.00886217
0.00861451
0.00815867
0.00757025
0.00694127
0.00637197
0.00597678
0.00584306
0.000842903
0.000358037
-3.64252e-05
-0.000374441
-0.000644056
-0.000819797
-0.000888107
-0.000841462
-0.000673749
-0.000379406
4.60415e-05
0.000604385
0.00129242
0.00209928
0.00300404
0.00397449
0.00496603
0.00592402
0.00678797
0.0074977
0.00800137
0.00826391
0.00827417
0.00804894
0.00763286
0.00709354
0.00651308
0.00597814
0.00557181
0.00535759
0.001408
0.000720007
0.000255503
-9.25702e-05
-0.000353563
-0.000517765
-0.000582487
-0.000547103
-0.000408423
-0.000160897
0.000201986
0.000685586
0.00129138
0.00201386
0.00283766
0.00373539
0.00466651
0.00557866
0.00641165
0.00710357
0.00759925
0.00785939
0.00786849
0.00763953
0.00721382
0.00665558
0.00604343
0.00546075
0.00497383
0.00460842
0.00189403
0.000988343
0.000433617
5.26434e-05
-0.000222105
-0.000395199
-0.000474442
-0.000466012
-0.000369492
-0.00017894
0.000114951
0.000522162
0.00105004
0.00169955
0.00246156
0.00331369
0.00421919
0.00512603
0.00597159
0.00668852
0.00721382
0.0074993
0.0075209
0.00728494
0.00682866
0.00621482
0.00552326
0.00484076
0.00422426
0.00366566
0.00219658
0.00107611
0.000423521
-4.10389e-06
-0.000309277
-0.000509247
-0.00062118
-0.000657201
-0.00061891
-0.000499192
-0.000285037
3.92269e-05
0.000488047
0.00107016
0.00178384
0.00261252
0.00352359
0.00446448
0.00536844
0.00615952
0.0067625
0.00711496
0.00717894
0.00694961
0.00645779
0.00576535
0.00495745
0.0041315
0.00334285
0.00255535
0.00222714
0.000904653
0.000154212
-0.000327827
-0.000676054
-0.000919128
-0.00108233
-0.0011826
-0.00122257
-0.00119304
-0.0010763
-0.000849814
-0.00049058
1.96175e-05
0.000688222
0.00150609
0.00244769
0.0034593
0.00446963
0.00539181
0.00613399
0.00661329
0.0067706
0.00658313
0.00607046
0.00529228
0.00434215
0.00333545
0.00233412
0.00127778
0.00190835
0.000402178
-0.000441387
-0.00098183
-0.0013834
-0.00168521
-0.00191963
-0.00210732
-0.00225105
-0.00233867
-0.00234682
-0.0022448
-0.00199938
-0.00158063
-0.000969074
-0.000163382
0.000822898
0.00193565
0.00310063
0.00421895
0.00517795
0.00586697
0.00619618
0.00611457
0.00562201
0.00477163
0.00366681
0.00244813
0.00119202
-0.000184278
0.00117103
-0.000496653
-0.0014261
-0.00202743
-0.00249223
-0.00286946
-0.00319776
-0.00350079
-0.0037808
-0.00402211
-0.0041949
-0.00425911
-0.00416931
-0.00388103
-0.00335754
-0.00257772
-0.00155654
-0.000325011
0.00103931
0.00242531
0.00369616
0.00470543
0.00532018
0.00544653
0.00505078
0.00417019
0.00291633
0.00146182
-9.43497e-05
-0.00185758
-4.56845e-05
-0.00184926
-0.00285599
-0.00352056
-0.00405936
-0.00453078
-0.00497929
-0.00543118
-0.00588807
-0.00633056
-0.00672201
-0.00701198
-0.00714089
-0.00704628
-0.00667062
-0.0059713
-0.0049362
-0.00358529
-0.00198784
-0.000261838
0.00143088
0.00290053
0.00395651
0.00444209
0.00426874
0.00344081
0.00207092
0.000368972
-0.00153489
-0.00377015
-0.0017924
-0.00370291
-0.00477744
-0.00550802
-0.00613284
-0.00671945
-0.00731809
-0.00795783
-0.00864006
-0.00934218
-0.0100209
-0.0106149
-0.0110488
-0.0112386
-0.0111004
-0.0105614
-0.00957581
-0.00813738
-0.00629639
-0.00416891
-0.00193814
0.000157991
0.00185601
0.00291145
0.00315041
0.00251595
0.00110494
-0.000834406
-0.00313203
-0.00594307
-0.00410656
-0.00609212
-0.00722425
-0.00802378
-0.00874723
-0.00947121
-0.010252
-0.0111222
-0.012084
-0.0131128
-0.0141597
-0.0151528
-0.0159998
-0.0165924
-0.0168147
-0.0165551
-0.0157234
-0.0142717
-0.0122152
-0.00965287
-0.00677859
-0.00387694
-0.00129633
0.000603471
0.0015231
0.0013008
-1.45391e-05
-0.00214486
-0.00487317
-0.00838109
-0.00700937
-0.00903612
-0.0102148
-0.0110854
-0.0119189
-0.0128011
-0.0137949
-0.0149377
-0.0162343
-0.0176602
-0.0191626
-0.0206604
-0.0220443
-0.0231801
-0.0239153
-0.0240914
-0.0235627
-0.0222229
-0.0200322
-0.0170507
-0.0134632
-0.00958902
-0.00586469
-0.00278991
-0.000836404
-0.000331376
-0.00132849
-0.00354633
-0.00672092
-0.0110607
-0.0105031
-0.012537
-0.0137501
-0.0146914
-0.0156421
-0.0166976
-0.0179288
-0.0193797
-0.0210601
-0.0229481
-0.02499
-0.0270973
-0.0291456
-0.0309743
-0.0323919
-0.0331874
-0.0331497
-0.0320973
-0.0299158
-0.0265992
-0.022294
-0.0173283
-0.0122147
-0.00760515
-0.00418955
-0.00253584
-0.00288294
-0.00500212
-0.00859974
-0.0139138
-0.0145699
-0.0165792
-0.0178133
-0.0188195
-0.019886
-0.0211184
-0.0225978
-0.024377
-0.026474
-0.0288727
-0.0315212
-0.0343274
-0.0371539
-0.0398154
-0.0420817
-0.0436868
-0.0443477
-0.0437951
-0.0418251
-0.038335
-0.0333974
-0.0273098
-0.020627
-0.0141433
-0.00879709
-0.00547676
-0.00471769
-0.00644166
-0.0103771
-0.0168049
-0.0191721
-0.0211314
-0.0223708
-0.0234278
-0.0245944
-0.0259885
-0.0277044
-0.0298074
-0.0323266
-0.0352552
-0.0385468
-0.0421085
-0.0457935
-0.0493952
-0.0526469
-0.0552294
-0.0567868
-0.0569551
-0.0554371
-0.0520022
-0.0466145
-0.0394926
-0.031179
-0.0225678
-0.0148443
-0.00928134
-0.0068398
-0.00773895
-0.0118377
-0.0195003
-0.0242554
-0.0261503
-0.0273773
-0.0284576
-0.0296872
-0.0312008
-0.0331102
-0.0354976
-0.0384071
-0.0418445
-0.0457718
-0.0500984
-0.0546712
-0.0592662
-0.0635849
-0.0672595
-0.0698692
-0.0709686
-0.0701233
-0.0670012
-0.0614221
-0.0534744
-0.0436199
-0.0327777
-0.0223315
-0.0139616
-0.00917458
-0.00867822
-0.0126479
-0.0216278
-0.0297552
-0.0315893
-0.0327822
-0.0338396
-0.035066
-0.0366201
-0.0386394
-0.0412289
-0.0444521
-0.0483297
-0.0528342
-0.0578792
-0.0633076
-0.0688811
-0.0742749
-0.0790799
-0.0828173
-0.0849646
-0.084983
-0.082415
-0.0769286
-0.0684478
-0.0572859
-0.0442916
-0.0309502
-0.019307
-0.0114902
-0.00890246
-0.0123094
-0.0226243
-0.035607
-0.0374098
-0.0385412
-0.039502
-0.0406192
-0.0420894
-0.0440873
-0.0467489
-0.0501614
-0.0543626
-0.0593356
-0.064998
-0.071189
-0.0776581
-0.0840578
-0.0899449
-0.0947925
-0.0980116
-0.0989809
-0.0971282
-0.0919725
-0.0832591
-0.0711041
-0.0561925
-0.0399819
-0.0247696
-0.013299
-0.00784224
-0.0100988
-0.0216694
-0.041762
-0.0435994
-0.0446296
-0.0453802
-0.04623
-0.0474364
-0.049229
-0.051785
-0.0552195
-0.0595874
-0.0648804
-0.0710171
-0.0778307
-0.0850574
-0.0923287
-0.099172
-0.10502
-0.109231
-0.111111
-0.110013
-0.105308
-0.0965736
-0.0837118
-0.0671778
-0.0482721
-0.0293792
-0.0137528
-0.00462508
-0.00499241
-0.0175977
-0.0482124
-0.0501971
-0.0510608
-0.0514259
-0.0517808
-0.0524796
-0.0538298
-0.0560612
-0.0593191
-0.0636728
-0.0691167
-0.0755642
-0.0828368
-0.0906533
-0.0986224
-0.106243
-0.112913
-0.117948
-0.120617
-0.120135
-0.115825
-0.107103
-0.0936681
-0.0757202
-0.0543097
-0.0317321
-0.0115643
0.00202562
0.00442954
-0.00877438
-0.0550364
-0.057333
-0.0579081
-0.0576158
-0.0571559
-0.0570316
-0.0576543
-0.0593148
-0.0621863
-0.0663434
-0.0717732
-0.0783745
-0.0859466
-0.094184
-0.102668
-0.110866
-0.118139
-0.123761
-0.126943
-0.126859
-0.122718
-0.113823
-0.0996954
-0.0803039
-0.0564097
-0.0300793
-0.00499083
0.0138804
0.0200983
0.00709195
-0.0624864
-0.0652923
-0.0653334
-0.0639553
-0.0622394
-0.0609011
-0.0604763
-0.0613146
-0.0636037
-0.0674074
-0.0726884
-0.079319
-0.0870603
-0.0955749
-0.104408
-0.11299
-0.12064
-0.126586
-0.129983
-0.129943
-0.125581
-0.11611
-0.100877
-0.079668
-0.0529611
-0.0225194
0.00808428
0.0332501
0.0446087
0.033253
-0.0711765
-0.0746236
-0.0736232
-0.0704805
-0.066911
-0.0638969
-0.0620925
-0.0618813
-0.0634353
-0.0667803
-0.0718324
-0.0784113
-0.0862364
-0.0949221
-0.103969
-0.112763
-0.120577
-0.126581
-0.129865
-0.129469
-0.124402
-0.113755
-0.0967612
-0.0730115
-0.0427117
-0.00731215
0.0299139
0.0629432
0.0814369
0.0744072
-0.0825041
-0.0863244
-0.0832211
-0.0772468
-0.0710383
-0.0658318
-0.0623366
-0.0609058
-0.0616423
-0.0644923
-0.0692957
-0.0758023
-0.0836705
-0.0924583
-0.101615
-0.110474
-0.118253
-0.12406
-0.12691
-0.125757
-0.119455
-0.106991
-0.087424
-0.0601344
-0.0250998
0.0166557
0.0623762
0.106015
0.135114
0.1372
-0.0996282
-0.102167
-0.0947221
-0.0842736
-0.0744356
-0.0664969
-0.0610595
-0.0583294
-0.0582582
-0.0606587
-0.0652608
-0.0717242
-0.079633
-0.0884825
-0.0976653
-0.106461
-0.11403
-0.119415
-0.121546
-0.119268
-0.111303
-0.0964487
-0.0735481
-0.0416968
-0.000511963
0.0494617
0.106209
0.164968
0.210764
0.230148
-0.129652
-0.125187
-0.108874
-0.0914995
-0.0768078
-0.0656013
-0.0580734
-0.0540923
-0.0533425
-0.0554357
-0.0599549
-0.0664528
-0.0744328
-0.0833265
-0.0924732
-0.101103
-0.108325
-0.11312
-0.114346
-0.110756
-0.10088
-0.0833277
-0.0566489
-0.0195161
0.0290578
0.0894133
0.160924
0.239959
0.312362
0.364933
-0.188563
-0.158798
-0.12604
-0.0983653
-0.0773474
-0.0624682
-0.0529617
-0.0480315
-0.046929
-0.0489948
-0.0536418
-0.0603135
-0.0684407
-0.0774044
-0.0865053
-0.0949389
-0.101777
-0.105955
-0.106265
-0.101345
-0.089808
-0.0698314
-0.0396573
0.00259876
0.0589083
0.13121
0.22131
0.328478
0.442094
0.568381
-0.319988
-0.19878
-0.137758
-0.0971664
-0.0700625
-0.052764
-0.0427452
-0.0381331
-0.0376372
-0.0403653
-0.045629
-0.052824
-0.0613591
-0.0706071
-0.0798665
-0.0883332
-0.0950793
-0.0990337
-0.0989673
-0.0934065
-0.0810213
-0.0598399
-0.0278016
0.0175422
0.0793499
0.161998
0.271938
0.417635
0.606029
0.895576
-0.647204
-0.235148
-0.106291
-0.0621822
-0.0382416
-0.0248461
-0.0190436
-0.0182045
-0.0207224
-0.0257785
-0.0328466
-0.0414599
-0.0511332
-0.0613226
-0.0713929
-0.0805932
-0.0880398
-0.0927065
-0.0934336
-0.0889674
-0.0774792
-0.0573285
-0.0264337
0.0178653
0.0793084
0.164138
0.284783
0.469532
0.775714
1.36959
)
;

boundaryField
{
    movingWall
    {
        type            zeroGradient;
    }
    fixedWalls
    {
        type            zeroGradient;
    }
    frontAndBack
    {
        type            empty;
    }
}


// ************************************************************************* //
