/*--------------------------------*- C++ -*----------------------------------*\
  =========                 |
  \\      /  F ield         | OpenFOAM: The Open Source CFD Toolbox
   \\    /   O peration     | Website:  https://openfoam.org
    \\  /    A nd           | Version:  7
     \\/     M anipulation  |
\*---------------------------------------------------------------------------*/
FoamFile
{
    version     2.0;
    format      ascii;
    class       surfaceScalarField;
    location    "5.5";
    object      phi;
}
// * * * * * * * * * * * * * * * * * * * * * * * * * * * * * * * * * * * * * //

dimensions      [0 3 -1 0 0 0 0];

internalField   nonuniform List<scalar> 
1740
(
7.01002e-07
-7.01786e-07
2.89035e-07
4.11958e-07
-1.58178e-06
1.87082e-06
-4.74346e-06
3.16168e-06
-8.86767e-06
4.12422e-06
-1.36307e-05
4.76306e-06
-1.87618e-05
5.13104e-06
-2.40416e-05
5.27979e-06
-2.92833e-05
5.24176e-06
-3.43113e-05
5.02798e-06
-3.89444e-05
4.63308e-06
-4.29876e-05
4.04319e-06
-4.62327e-05
3.2451e-06
-4.8468e-05
2.23532e-06
-4.94962e-05
1.02822e-06
-4.9158e-05
-3.38228e-07
-4.73586e-05
-1.79939e-06
-4.40952e-05
-3.26336e-06
-3.94776e-05
-4.61763e-06
-3.37381e-05
-5.73951e-06
-2.72275e-05
-6.51056e-06
-2.03936e-05
-6.83391e-06
-1.37425e-05
-6.65109e-06
-7.78722e-06
-5.95532e-06
-2.9885e-06
-4.79872e-06
3.10098e-07
-3.2986e-06
1.96423e-06
-1.65413e-06
2.05159e-06
-8.73596e-08
1.02184e-06
1.02975e-06
1.02185e-06
-3.9647e-07
-3.05333e-07
-3.47295e-06
3.48844e-06
-9.69652e-06
8.09441e-06
-1.86835e-05
1.21486e-05
-2.9826e-05
1.52668e-05
-4.24686e-05
1.74057e-05
-5.59962e-05
1.86586e-05
-6.9856e-05
1.91396e-05
-8.35417e-05
1.89274e-05
-9.65656e-05
1.80519e-05
-0.000108436
1.65032e-05
-0.000118646
1.4253e-05
-0.000126682
1.12811e-05
-0.000132048
7.60203e-06
-0.000134308
3.28744e-06
-0.000133135
-1.5109e-06
-0.000128359
-6.57506e-06
-0.000120032
-1.15902e-05
-0.000108456
-1.61942e-05
-9.4198e-05
-1.99973e-05
-7.80796e-05
-2.26289e-05
-6.11241e-05
-2.37894e-05
-4.44736e-05
-2.33016e-05
-2.92765e-05
-2.11524e-05
-1.65557e-05
-1.75195e-05
-7.07171e-06
-1.27826e-05
-1.20259e-06
-7.52325e-06
1.2361e-06
-2.52605e-06
1.08282e-06
1.18304e-06
2.10466e-06
-2.00548e-06
1.70016e-06
-8.59554e-06
1.00785e-05
-1.95717e-05
1.90706e-05
-3.42954e-05
2.68723e-05
-5.1925e-05
3.28963e-05
-7.15759e-05
3.70566e-05
-9.23983e-05
3.94811e-05
-0.000113598
4.03397e-05
-0.000134424
3.97532e-05
-0.00015414
3.77676e-05
-0.000172005
3.43686e-05
-0.000187271
2.95189e-05
-0.000199195
2.32053e-05
-0.000207079
1.54859e-05
-0.000210324
6.53218e-06
-0.000208492
-3.34271e-06
-0.000201381
-1.36858e-05
-0.000189087
-2.38847e-05
-0.000172046
-3.32348e-05
-0.000151057
-4.09864e-05
-0.000127258
-4.64284e-05
-0.000102063
-4.89843e-05
-7.70556e-05
-4.83087e-05
-5.38388e-05
-4.43692e-05
-3.38578e-05
-3.75005e-05
-1.82163e-05
-2.84241e-05
-7.49794e-06
-1.82416e-05
-1.61558e-06
-8.4084e-06
3.10648e-07
-7.43191e-07
2.4153e-06
-3.69864e-06
5.3988e-06
-1.39637e-05
2.03436e-05
-2.98334e-05
3.49404e-05
-5.02334e-05
4.72722e-05
-7.40471e-05
5.67101e-05
-0.000100185
6.31948e-05
-0.000127619
6.69148e-05
-0.000155379
6.80996e-05
-0.000182533
6.69069e-05
-0.000208158
6.33933e-05
-0.000231327
5.75371e-05
-0.000251102
4.92946e-05
-0.000266566
3.86691e-05
-0.000276861
2.57806e-05
-0.000281255
1.09257e-05
-0.000279213
-5.38411e-06
-0.000270481
-2.24176e-05
-0.000255155
-3.92109e-05
-0.000233735
-5.46548e-05
-0.000207153
-6.75688e-05
-0.000176756
-7.68254e-05
-0.000144244
-8.1496e-05
-0.00011155
-8.10026e-05
-8.06682e-05
-7.52513e-05
-5.34427e-05
-6.4726e-05
-3.13429e-05
-5.0524e-05
-1.52491e-05
-3.43354e-05
-5.28354e-06
-1.8374e-05
-7.30363e-07
-5.29637e-06
1.68494e-06
-5.31544e-06
1.07142e-05
-1.92015e-05
3.42296e-05
-3.9899e-05
5.56379e-05
-6.58317e-05
7.32049e-05
-9.55719e-05
8.64502e-05
-0.000127828
9.54506e-05
-0.000161421
0.000100508
-0.000195252
0.00010193
-0.00022826
9.99151e-05
-0.00025939
9.45239e-05
-0.000287575
8.57221e-05
-0.000311736
7.34556e-05
-0.000330811
5.77439e-05
-0.000343802
3.87718e-05
-0.000349845
1.69686e-05
-0.000348288
-6.94106e-06
-0.000338773
-3.19326e-05
-0.000321328
-5.66562e-05
-0.00029643
-7.95533e-05
-0.00026505
-9.89484e-05
-0.00022866
-0.000113215
-0.000189178
-0.000120978
-0.000148854
-0.000121327
-0.000110082
-0.000114024
-7.51564e-05
-9.96511e-05
-4.60012e-05
-7.96792e-05
-2.39065e-05
-5.64301e-05
-9.33153e-06
-3.2949e-05
-1.81395e-06
-1.2814e-05
-1.29019e-07
-6.81521e-06
1.75294e-05
-2.41476e-05
5.15621e-05
-4.94744e-05
8.09646e-05
-8.0709e-05
0.00010444
-0.000116103
0.000121844
-0.000154165
0.000133513
-0.000193591
0.000139934
-0.000233186
0.000141525
-0.000271803
0.000138532
-0.000308299
0.00013102
-0.000341509
0.000118932
-0.000370244
0.000102191
-0.000393321
8.08207e-05
-0.000409605
5.50558e-05
-0.00041808
2.54435e-05
-0.000417934
-7.08708e-06
-0.000408637
-4.12293e-05
-0.000390063
-7.52309e-05
-0.000362564
-0.000107052
-0.000327054
-0.000134459
-0.000285041
-0.000155228
-0.000238611
-0.000167408
-0.000190325
-0.000169613
-0.000143025
-0.000161323
-9.95585e-05
-0.000143118
-6.24391e-05
-0.000116799
-3.35177e-05
-8.53514e-05
-1.37211e-05
-5.27456e-05
-2.92858e-06
-2.36065e-05
-3.0576e-06
-8.18893e-06
2.57184e-05
-2.8725e-05
7.20981e-05
-5.83885e-05
0.000110628
-9.46118e-05
0.000140663
-0.000135339
0.000162571
-0.000178897
0.000177072
-0.000223875
0.000184912
-0.000269014
0.000186664
-0.000313118
0.000182637
-0.000354995
0.000172897
-0.000393418
0.000157354
-0.000427117
0.00013589
-0.000454799
0.000108504
-0.000475191
7.54476e-05
-0.000487097
3.73495e-05
-0.000489498
-4.68579e-06
-0.000481609
-4.91182e-05
-0.000463055
-9.37858e-05
-0.000433951
-0.000136155
-0.000395037
-0.000173373
-0.000347761
-0.000202505
-0.000294309
-0.00022086
-0.000237544
-0.000226378
-0.000180818
-0.000218049
-0.000127658
-0.000196278
-8.13478e-05
-0.000163108
-4.44926e-05
-0.000122207
-1.86494e-05
-7.85889e-05
-4.13287e-06
-3.8123e-05
-7.19046e-06
-9.42811e-06
3.51465e-05
-3.28744e-05
9.55444e-05
-6.65044e-05
0.000144258
-0.00010732
0.000181478
-0.00015299
0.00020824
-0.000201684
0.000225766
-0.000251911
0.000235139
-0.000302377
0.00023713
-0.000351872
0.000232132
-0.000399188
0.000220214
-0.000443072
0.000201237
-0.000482198
0.000175017
-0.000515182
0.000141488
-0.000540606
0.000100872
-0.000557073
5.38161e-05
-0.000563313
1.55441e-06
-0.000558207
-5.42245e-05
-0.000541035
-0.000110958
-0.000511554
-0.000165637
-0.000470192
-0.000214734
-0.000418208
-0.000254489
-0.00035779
-0.000281278
-0.000292058
-0.00029211
-0.000224914
-0.000285193
-0.000160696
-0.000260496
-0.000103674
-0.000220131
-5.74519e-05
-0.000168428
-2.44393e-05
-0.000111601
-5.52769e-06
-5.70346e-05
-1.27181e-05
-1.05155e-05
4.5662e-05
-3.65262e-05
0.000121555
-7.36738e-05
0.000181406
-0.000118594
0.000226398
-0.000168723
0.00025837
-0.000222105
0.000279147
-0.000277195
0.00029023
-0.000332695
0.000292629
-0.00038741
0.000286847
-0.000440155
0.000272958
-0.000489679
0.000250761
-0.000534634
0.000219972
-0.000573565
0.000180419
-0.000604923
0.00013223
-0.000627109
7.60024e-05
-0.000638512
1.29571e-05
-0.000637721
-5.50159e-05
-0.00062352
-0.000125159
-0.000595194
-0.000193963
-0.000552712
-0.000257215
-0.000496973
-0.000310227
-0.00043001
-0.000348242
-0.000355092
-0.000367027
-0.000276652
-0.000363633
-0.00019995
-0.000337199
-0.000130468
-0.000289612
-7.31221e-05
-0.000225774
-3.14786e-05
-0.000153245
-7.23288e-06
-8.12804e-05
-1.9951e-05
-1.14254e-05
5.70874e-05
-3.95938e-05
0.000149724
-7.97253e-05
0.000221537
-0.000128161
0.000274834
-0.000182151
0.00031236
-0.000239646
0.000336642
-0.000299076
0.00034966
-0.000359163
0.000352716
-0.00041876
0.000346444
-0.000476732
0.000330931
-0.000531874
0.000305902
-0.000582848
0.000270946
-0.000628162
0.000225733
-0.000666162
0.00017023
-0.000695056
0.000104895
-0.000712956
3.08574e-05
-0.000718022
-4.99495e-05
-0.000708553
-0.000134628
-0.000683239
-0.000219277
-0.000641432
-0.000299023
-0.000583465
-0.000368194
-0.000510988
-0.000420719
-0.000427215
-0.000450801
-0.000336992
-0.000453856
-0.000246535
-0.000427655
-0.000162761
-0.000373386
-9.22632e-05
-0.000296272
-4.01863e-05
-0.000205322
-9.37807e-06
-0.000112089
-2.93291e-05
-1.21269e-05
6.92143e-05
-4.1981e-05
0.000179578
-8.44727e-05
0.000264029
-0.000135722
0.000326083
-0.000192842
0.00036948
-0.000253717
0.000397517
-0.000316775
0.000412718
-0.000380782
0.000416722
-0.000444663
0.000410325
-0.000507368
0.000393636
-0.000567771
0.000366305
-0.00062459
0.000327766
-0.000676346
0.000277489
-0.00072133
0.000215214
-0.000757609
0.000141174
-0.000783051
5.62994e-05
-0.000795422
-3.75788e-05
-0.000792505
-0.000137545
-0.000772331
-0.00023945
-0.000733489
-0.000337865
-0.000675522
-0.00042616
-0.000599399
-0.000496843
-0.000507957
-0.000542242
-0.000406195
-0.000555619
-0.000301183
-0.000532667
-0.000201427
-0.000473142
-0.000115606
-0.000382093
-5.09914e-05
-0.000269937
-1.20998e-05
-0.00015098
-4.14289e-05
-1.25897e-05
8.1804e-05
-4.35949e-05
0.000210583
-8.77362e-05
0.00030817
-0.000140986
0.000379332
-0.00020036
0.000428854
-0.000263701
0.000460859
-0.000329452
0.000478469
-0.000396436
0.000483706
-0.000463672
0.000477561
-0.000530224
0.000460188
-0.000595082
0.000431164
-0.000657074
0.000389757
-0.000714793
0.000335208
-0.000766553
0.000266975
-0.000810365
0.000184986
-0.000843937
8.98714e-05
-0.000864726
-1.67897e-05
-0.000870047
-0.000132224
-0.000857261
-0.000252236
-0.000824095
-0.000371032
-0.000769087
-0.000481168
-0.000692184
-0.000573746
-0.00059541
-0.000639017
-0.000483465
-0.000667564
-0.000363975
-0.000652157
-0.000247028
-0.000590088
-0.000143781
-0.000485341
-6.43129e-05
-0.000349405
-1.55408e-05
-0.000199752
-5.69697e-05
-1.27906e-05
9.45945e-05
-4.43649e-05
0.000242157
-8.93747e-05
0.00035318
-0.000143711
0.000433668
-0.000204324
0.000489467
-0.000269031
0.000525566
-0.000336295
0.000545733
-0.000405006
0.000552417
-0.00047429
0.000546845
-0.00054335
0.000529248
-0.000611332
0.000499145
-0.000677222
0.000455648
-0.000739764
0.000397749
-0.00079739
0.000324601
-0.000848172
0.000235768
-0.000889792
0.000131491
-0.00091954
1.29588e-05
-0.000934387
-0.000117377
-0.000931103
-0.00025552
-0.000906536
-0.000395599
-0.000858064
-0.00052964
-0.000784273
-0.000647537
-0.000685851
-0.000737438
-0.000566567
-0.000786848
-0.000434017
-0.000784708
-0.000299605
-0.0007245
-0.000177221
-0.000607725
-8.05328e-05
-0.000446092
-1.98483e-05
-0.000260437
-7.6818e-05
-1.27209e-05
0.000107315
-4.42645e-05
0.000273701
-8.93241e-05
0.00039824
-0.00014376
0.000488105
-0.00020448
0.000550187
-0.000269279
0.000590365
-0.000336638
0.000613092
-0.000405518
0.000621297
-0.00047516
0.000616488
-0.000544923
0.000599011
-0.000614143
0.000568365
-0.000682021
0.000523526
-0.000747529
0.000463257
-0.000809324
0.000386396
-0.000865679
0.000292123
-0.000914419
0.000180231
-0.000952868
5.14079e-05
-0.000977843
-9.24026e-05
-0.000985707
-0.000247656
-0.000972531
-0.000408775
-0.000934489
-0.000567681
-0.000868551
-0.000713475
-0.000773535
-0.000832454
-0.000651494
-0.00090889
-0.000509104
-0.000927097
-0.000358423
-0.000875181
-0.000216031
-0.000750117
-9.99552e-05
-0.000562168
-2.51702e-05
-0.000335222
-0.000101988
-1.2395e-05
0.00011971
-4.33362e-05
0.000304642
-8.7641e-05
0.000442544
-0.000141168
0.000541632
-0.000200786
0.000609804
-0.000264262
0.000653841
-0.000330095
0.000678926
-0.000397311
0.000688512
-0.000465271
0.000684448
-0.000533507
0.000667247
-0.000601573
0.000636432
-0.000668937
0.00059089
-0.000734872
0.000529192
-0.00079837
0.000449893
-0.000858048
0.000351801
-0.00091206
0.000234242
-0.000957991
9.73395e-05
-0.00099275
-5.76436e-05
-0.00101259
-0.000227819
-0.00101302
-0.000408343
-0.000989141
-0.000591559
-0.000936213
-0.000766403
-0.000850765
-0.000917902
-0.0007323
-0.00102735
-0.000585423
-0.00107397
-0.00042169
-0.00103891
-0.000259817
-0.00091199
-0.000122746
-0.000699239
-3.16469e-05
-0.000426321
-0.000133635
-1.18588e-05
0.000131569
-4.17177e-05
0.000334501
-8.45488e-05
0.000485376
-0.000136202
0.000593285
-0.00019349
0.000667093
-0.000254149
0.0007145
-0.000316685
0.000741462
-0.000380194
0.00075202
-0.000444164
0.000748418
-0.000508313
0.000731396
-0.000572445
0.000700564
-0.000636333
0.000654778
-0.000699619
0.000592478
-0.000761719
0.000511994
-0.000821727
0.000411809
-0.000878295
0.00029081
-0.000929507
0.000148551
-0.000972615
-1.45353e-05
-0.00100413
-0.0001963
-0.00101935
-0.000393124
-0.00101261
-0.0005983
-0.000977609
-0.000801404
-0.000908404
-0.000987108
-0.000801258
-0.0011345
-0.000657422
-0.00121781
-0.000486314
-0.00121002
-0.000307499
-0.0010908
-0.000148859
-0.000857879
-3.94005e-05
-0.00053578
-0.000173036
-1.11996e-05
0.000142769
-3.96705e-05
0.000362972
-8.0486e-05
0.000526191
-0.000129425
0.000642224
-0.000183214
0.000720882
-0.000239543
0.000770829
-0.000296937
0.000798856
-0.000354573
0.000809656
-0.000412086
0.000805931
-0.000469404
0.000788713
-0.000526603
0.000757763
-0.000583799
0.000711974
-0.000641049
0.000649728
-0.000698263
0.000569207
-0.000755101
0.000468646
-0.000810849
0.000346558
-0.000864248
0.00020195
-0.000913307
3.45233e-05
-0.000954902
-0.000154704
-0.000984685
-0.000363342
-0.000996697
-0.000586289
-0.000983504
-0.000814597
-0.000936864
-0.00103375
-0.00084944
-0.00122192
-0.000717969
-0.00134928
-0.000547769
-0.00138022
-0.000357126
-0.00128145
-0.000177953
-0.00103705
-4.85249e-05
-0.000665208
-0.000221561
-1.05578e-05
0.000153327
-3.76141e-05
0.000390028
-7.61572e-05
0.000564734
-0.00012176
0.000687827
-0.000171008
0.00077013
-0.000221546
0.000821367
-0.000271949
0.000849259
-0.000321517
0.000859224
-0.000370072
0.000854486
-0.000417783
0.000836424
-0.000465032
0.000805012
-0.000512305
0.000759247
-0.000560104
0.000697528
-0.000608866
0.000617969
-0.000658867
0.000518647
-0.000710098
0.000397789
-0.00076209
0.000253943
-0.0008137
8.61335e-05
-0.000862625
-0.000105779
-0.000905212
-0.000320755
-0.00093581
-0.000555691
-0.000946533
-0.000803874
-0.000927426
-0.00105286
-0.000867711
-0.00128164
-0.000758883
-0.00145811
-0.000600195
-0.00153891
-0.000405768
-0.00147587
-0.000209319
-0.0012335
-5.90845e-05
-0.000815442
-0.000280645
-1.01477e-05
0.000163474
-3.61738e-05
0.000416054
-7.25962e-05
0.000601157
-0.000114547
0.000729778
-0.000158398
0.00081398
-0.00020178
0.000864749
-0.000243393
0.000890872
-0.00028274
0.000898572
-0.0003199
0.000891646
-0.000355342
0.000871866
-0.000389787
0.000839458
-0.000424115
0.000793575
-0.000459284
0.000732696
-0.000496257
0.000654942
-0.000535923
0.000558313
-0.000578982
0.000440848
-0.000625784
0.000300745
-0.000676095
0.000136444
-0.000728648
-5.32261e-05
-0.000780857
-0.000268546
-0.00082795
-0.000508597
-0.00086242
-0.000769404
-0.000873566
-0.00104171
-0.000847942
-0.00130726
-0.000771782
-0.00153427
-0.000636755
-0.00167394
-0.000449513
-0.00166312
-0.00024184
-0.00144117
-7.1136e-05
-0.000986147
-0.000351781
-1.02936e-05
0.000173768
-3.62573e-05
0.000442018
-7.12489e-05
0.000636148
-0.000109601
0.00076813
-0.000147402
0.00085178
-0.000182358
0.000899705
-0.000213432
0.000921946
-0.000240473
0.000925613
-0.000263926
0.0009151
-0.000284636
0.000892575
-0.00030371
0.000858532
-0.000322438
0.000812302
-0.000342222
0.00075248
-0.000364522
0.000677243
-0.000390791
0.000584581
-0.000422375
0.000472432
-0.000460382
0.000338752
-0.000505493
0.000181555
-0.000557441
-1.27866e-06
-0.000615051
-0.000210935
-0.000674824
-0.000448824
-0.000730494
-0.000713734
-0.00077182
-0.00100038
-0.000784041
-0.00129504
-0.000749009
-0.0015693
-0.000650172
-0.00177277
-0.000483581
-0.00182971
-0.000273965
-0.00165079
-8.47837e-05
-0.00117533
-0.000436565
-1.1502e-05
0.00018527
-3.91826e-05
0.000469698
-7.4091e-05
0.000671057
-0.000109267
0.000803307
-0.000140498
0.000883011
-0.000165761
0.000924968
-0.000184524
0.000940709
-0.00019719
0.000938279
-0.000204729
0.000922639
-0.000208454
0.000896301
-0.000209908
0.000859985
-0.000210793
0.000813188
-0.000212929
0.000754616
-0.000218213
0.000682527
-0.000228572
0.000594939
-0.000245891
0.000489752
-0.000271914
0.000364775
-0.000308057
0.000217698
-0.000355354
4.60184e-05
-0.000413484
-0.000152805
-0.000480891
-0.000381418
-0.000553172
-0.000641452
-0.000621782
-0.000931774
-0.000672395
-0.00124443
-0.000684266
-0.00155743
-0.000633233
-0.00182381
-0.000502472
-0.00196047
-0.000303676
-0.00184959
-0.000100269
-0.00137874
-0.000536834
-1.46013e-05
0.000199871
-4.68894e-05
0.000501987
-8.3773e-05
0.00070794
-0.000116421
0.000835955
-0.000140465
0.000907054
-0.000154534
0.000939038
-0.000158985
0.00094516
-0.000155067
0.000934361
-0.000144461
0.000912033
-0.000129058
0.000880898
-0.00011087
0.000841798
-9.20073e-05
0.000794325
-7.46483e-05
0.000737257
-6.10451e-05
0.000668924
-5.34904e-05
0.000587385
-5.42758e-05
0.000490537
-6.56286e-05
0.000376128
-8.96196e-05
0.000241689
-0.000128027
8.44254e-05
-0.000181941
-9.88908e-05
-0.0002514
-0.000311959
-0.000334383
-0.000558469
-0.000425054
-0.000841102
-0.000511411
-0.00115807
-0.000572618
-0.00149622
-0.000578941
-0.00181748
-0.000499939
-0.00203947
-0.000328314
-0.00202121
-0.000118046
-0.001589
-0.00065488
-2.10033e-05
0.000220875
-6.22483e-05
0.000543232
-0.00010372
0.000749412
-0.000134256
0.000866491
-0.00014986
0.000922659
-0.000150511
0.000939689
-0.000138009
0.000932658
-0.000114818
0.00091117
-8.35416e-05
0.000880756
-4.67425e-05
0.000844099
-6.91846e-06
0.000801974
3.3485e-05
0.000753921
7.19902e-05
0.000698752
0.000106097
0.000634817
0.00013327
0.000560212
0.000150942
0.000472865
0.000156544
0.000370526
0.000147542
0.000250692
0.000121498
0.000110469
7.6219e-05
-5.36119e-05
1.0089e-05
-0.000245829
-7.71825e-05
-0.000471198
-0.000183276
-0.000735009
-0.000300127
-0.00104122
-0.00040967
-0.00138668
-0.000480037
-0.00174712
-0.000468526
-0.00205098
-0.00034405
-0.00214569
-0.000138694
-0.00179436
-0.000793573
-3.31646e-05
0.000254039
-8.93952e-05
0.000599462
-0.000137875
0.000797892
-0.000165342
0.000893957
-0.000169494
0.00092681
-0.00015282
0.000923015
-0.000119325
0.000899163
-7.31069e-05
0.000864952
-1.78773e-05
0.000825527
4.30937e-05
0.000783128
0.000106874
0.000738193
0.000170728
0.000690067
0.000232025
0.000637456
0.000288145
0.000578696
0.000336441
0.000511916
0.000374208
0.000435098
0.000398672
0.000346063
0.00040697
0.000242394
0.000396144
0.000121296
0.000363114
-2.05825e-05
0.000304989
-0.000187704
0.000219102
-0.00038531
0.000104409
-0.000620316
-3.60231e-05
-0.000900789
-0.000189905
-0.0012328
-0.000327702
-0.00160932
-0.000398338
-0.00198034
-0.00034463
-0.0021994
-0.000162306
-0.00197668
-0.000955879
-5.53125e-05
0.000309352
-0.000133677
0.000677826
-0.000189076
0.000853291
-0.000208526
0.000913408
-0.000194205
0.000912489
-0.000152896
0.000881706
-9.17295e-05
0.000837996
-1.68093e-05
0.000790032
6.69757e-05
0.000741742
0.000155724
0.000694379
0.00024621
0.000647708
0.000335606
0.000600671
0.000421284
0.000551777
0.000500676
0.000499305
0.000571172
0.000441419
0.000630069
0.000376201
0.000674509
0.000301623
0.000701425
0.000215477
0.000707488
0.000115233
0.0006888
-1.89439e-06
0.000641635
-0.000140539
0.000561374
-0.000305049
0.000443835
-0.000502778
0.000286854
-0.000743808
9.53064e-05
-0.00104125
-0.00010907
-0.00140494
-0.000274595
-0.00181482
-0.000318685
-0.00215531
-0.000186673
-0.0021087
-0.00114255
-9.41806e-05
0.000403532
-0.00019949
0.000783135
-0.000252944
0.000906745
-0.000249857
0.000910321
-0.000202014
0.000864646
-0.000122814
0.000802506
-2.32757e-05
0.000738458
8.84804e-05
0.000678276
0.000206686
0.000623537
0.000327196
0.000573869
0.000446875
0.000528029
0.000563142
0.000484404
0.00067367
0.000441249
0.000776179
0.000396796
0.00086831
0.000349289
0.000947525
0.000296985
0.00101103
0.000238114
0.00105571
0.000170806
0.00107794
9.2995e-05
0.00107347
2.57785e-06
0.00103768
-0.000104751
0.00096472
-0.000232085
0.000848002
-0.00038606
0.000680843
-0.000576649
0.000459687
-0.000820094
0.000194249
-0.00113951
-7.18565e-05
-0.00154871
-0.00024467
-0.00198249
-0.000204099
-0.00214927
-0.00134665
-0.000157888
0.00056142
-0.000278863
0.000904111
-0.000297871
0.000925753
-0.000238322
0.000850772
-0.000129055
0.00075538
8.47266e-06
0.000664978
0.00016012
0.00058681
0.000317063
0.000521333
0.000473937
0.000466662
0.000627423
0.000420383
0.000775302
0.00038015
0.000915864
0.000343842
0.00104755
0.000309562
0.00116874
0.000275612
0.00127758
0.000240445
0.00137194
0.000202622
0.00144931
0.000160752
0.00150668
0.000113426
0.00154052
5.91551e-05
0.00154621
-3.10757e-06
0.00151898
-7.7523e-05
0.00145211
-0.000165209
0.00133761
-0.000271562
0.00116563
-0.000404675
0.000925295
-0.000579756
0.000610937
-0.000825148
0.000244443
-0.00118222
-8.13928e-05
-0.00165666
-0.000195078
-0.00203558
-0.00154173
-0.000243211
0.000804631
-0.000302782
0.000963682
-0.000205347
0.000828318
-2.88612e-05
0.000674286
0.00017819
0.000548329
0.000392263
0.000450905
0.000601967
0.000377107
0.000802096
0.000321203
0.000990632
0.000278126
0.00116702
0.000244
0.0013312
0.000215965
0.00148317
0.000191877
0.00162266
0.000170066
0.00174908
0.000149194
0.00186138
0.000128143
0.00195806
0.000105947
0.00203707
8.17336e-05
0.00209583
5.46706e-05
0.00213102
2.39629e-05
0.00213917
-1.12509e-05
0.00211435
-5.27127e-05
0.00205064
-0.000101492
0.00193963
-0.000160558
0.00177002
-0.000235065
0.00152601
-0.000335745
0.0011874
-0.000486534
0.00074345
-0.000738273
0.000251622
-0.00116483
-8.20708e-05
-0.00170189
-0.0016238
-0.000193147
0.000997778
2.07079e-05
0.000749827
0.00037561
0.000473415
0.0007157
0.000334197
0.00101949
0.000244544
0.00128691
0.000183475
0.00152168
0.000142346
0.00172849
0.000114389
0.0019119
9.47206e-05
0.00207564
8.02584e-05
0.00222252
6.90833e-05
0.00235446
5.99366e-05
0.00247258
5.19469e-05
0.00257729
4.44827e-05
0.00266837
3.70647e-05
0.002745
2.9311e-05
0.00280583
2.09032e-05
0.00284891
1.15942e-05
0.00287149
1.38553e-06
0.00287148
-1.12446e-05
0.00284366
-2.48871e-05
0.00278333
-4.1162e-05
0.0026835
-6.07301e-05
0.00253387
-8.54352e-05
0.00231769
-0.00011957
0.00200572
-0.000174563
0.00155104
-0.000283589
0.000926841
-0.000540629
0.000263557
-0.0010386
-0.00136024
0.000997778
0.0017476
0.00222102
0.00255522
0.00279976
0.00298324
0.00312558
0.00323997
0.00333469
0.00341495
0.00348403
0.00354397
0.00359592
0.0036404
0.00367746
0.00370677
0.00372768
0.00373927
0.00374066
0.00372941
0.00370453
0.00366336
0.00360263
0.0035172
0.00339763
0.00322307
0.00293948
0.00239885
0.00136024
)
;

boundaryField
{
    movingWall
    {
        type            calculated;
        value           uniform 0;
    }
    fixedWalls
    {
        type            calculated;
        value           uniform 0;
    }
    frontAndBack
    {
        type            empty;
        value           nonuniform 0();
    }
}


// ************************************************************************* //
