/*--------------------------------*- C++ -*----------------------------------*\
  =========                 |
  \\      /  F ield         | OpenFOAM: The Open Source CFD Toolbox
   \\    /   O peration     | Website:  https://openfoam.org
    \\  /    A nd           | Version:  7
     \\/     M anipulation  |
\*---------------------------------------------------------------------------*/
FoamFile
{
    version     2.0;
    format      ascii;
    class       volVectorField;
    location    "5.5";
    object      U;
}
// * * * * * * * * * * * * * * * * * * * * * * * * * * * * * * * * * * * * * //

dimensions      [0 1 -1 0 0 0 0];

internalField   nonuniform List<vector> 
900
(
(0.000140337 -0.000139441 0)
(0.000230732 -4.80457e-05 0)
(-9.64969e-05 0.000104203 0)
(-0.000835187 0.000236692 0)
(-0.00189503 0.000330989 0)
(-0.00318223 0.000390332 0)
(-0.0046112 0.00042336 0)
(-0.00611198 0.000437499 0)
(-0.00762744 0.000437071 0)
(-0.0091067 0.000423408 0)
(-0.0104994 0.000395646 0)
(-0.0117519 0.000351703 0)
(-0.0128063 0.000289316 0)
(-0.0136016 0.000207044 0)
(-0.0140783 0.0001052 0)
(-0.014184 -1.34578e-05 0)
(-0.0138808 -0.000143639 0)
(-0.0131534 -0.000276596 0)
(-0.0120164 -0.000401333 0)
(-0.0105186 -0.000505487 0)
(-0.00874407 -0.000576843 0)
(-0.00680878 -0.000605195 0)
(-0.00485159 -0.000584151 0)
(-0.00302138 -0.000512487 0)
(-0.00145991 -0.000394822 0)
(-0.00028176 -0.000242639 0)
(0.000428794 -7.6763e-05 0)
(0.000654007 8.43099e-05 0)
(0.000479717 0.000188298 0)
(0.000154745 0.00015356 0)
(5.50098e-05 -0.000236869 0)
(-0.000330105 0.000328465 0)
(-0.00167697 0.00108489 0)
(-0.00388809 0.00175556 0)
(-0.00680622 0.00226441 0)
(-0.0102472 0.00260815 0)
(-0.014026 0.00280873 0)
(-0.0179752 0.00288986 0)
(-0.0219448 0.00286714 0)
(-0.0257946 0.00274617 0)
(-0.0293855 0.00252468 0)
(-0.0325749 0.00219637 0)
(-0.035216 0.00175558 0)
(-0.0371622 0.00120195 0)
(-0.0382772 0.000544441 0)
(-0.0384485 -0.00019563 0)
(-0.0376019 -0.00098276 0)
(-0.0357176 -0.00176803 0)
(-0.0328443 -0.00249215 0)
(-0.0291066 -0.00309085 0)
(-0.0247049 -0.00350247 0)
(-0.0199072 -0.0036769 0)
(-0.0150291 -0.0035842 0)
(-0.0104058 -0.00322159 0)
(-0.00635625 -0.00261751 0)
(-0.0031433 -0.00183421 0)
(-0.00093894 -0.000971144 0)
(0.00021422 -0.000151794 0)
(0.000461885 0.000429122 0)
(0.000195752 0.000477086 0)
(-0.000109751 9.36825e-05 0)
(-0.0011711 0.00169331 0)
(-0.00372607 0.00353659 0)
(-0.007463 0.00516061 0)
(-0.0121455 0.00641769 0)
(-0.0175319 0.00728611 0)
(-0.0233719 0.00779629 0)
(-0.0294298 0.00798848 0)
(-0.035486 0.00789134 0)
(-0.0413297 0.00751586 0)
(-0.0467509 0.00685869 0)
(-0.0515364 0.00591021 0)
(-0.055471 0.00466477 0)
(-0.0583458 0.00313105 0)
(-0.0599711 0.00134109 0)
(-0.0601945 -0.000643336 0)
(-0.05892 -0.00272756 0)
(-0.0561287 -0.00478728 0)
(-0.0518947 -0.00667546 0)
(-0.0463948 -0.00823554 0)
(-0.0399082 -0.0093191 0)
(-0.0328055 -0.0098064 0)
(-0.0255234 -0.00962666 0)
(-0.0185278 -0.00877501 0)
(-0.0122665 -0.00732316 0)
(-0.00711622 -0.00542372 0)
(-0.00333015 -0.00331041 0)
(-0.000988954 -0.00129371 0)
(4.18115e-05 0.000227108 0)
(0.000130462 0.000701755 0)
(-0.000280202 0.000913147 0)
(-0.0020565 0.00410208 0)
(-0.00587756 0.0073821 0)
(-0.0111574 0.010204 0)
(-0.0175517 0.0123809 0)
(-0.0247621 0.0138849 0)
(-0.0324868 0.0147582 0)
(-0.0404397 0.0150565 0)
(-0.0483507 0.0148198 0)
(-0.0559565 0.014063 0)
(-0.0629934 0.0127811 0)
(-0.0691939 0.0109628 0)
(-0.0742907 0.00860603 0)
(-0.0780261 0.00573551 0)
(-0.0801682 0.00241647 0)
(-0.080531 -0.00123533 0)
(-0.0789966 -0.00505066 0)
(-0.075538 -0.00881024 0)
(-0.070238 -0.0122582 0)
(-0.0633009 -0.0151233 0)
(-0.055055 -0.0171485 0)
(-0.0459416 -0.0181245 0)
(-0.0364893 -0.0179247 0)
(-0.0272717 -0.0165351 0)
(-0.0188523 -0.0140742 0)
(-0.0117205 -0.0108006 0)
(-0.00622573 -0.00710941 0)
(-0.00251643 -0.0035201 0)
(-0.000513674 -0.000666706 0)
(4.24117e-05 0.000655742 0)
(-0.000437597 0.00220647 0)
(-0.00291114 0.00756003 0)
(-0.00798686 0.012616 0)
(-0.0147833 0.016837 0)
(-0.0228328 0.0200507 0)
(-0.0317763 0.0222512 0)
(-0.0412654 0.0235037 0)
(-0.0509752 0.0238831 0)
(-0.0605997 0.0234396 0)
(-0.0698385 0.0221902 0)
(-0.0783889 0.0201275 0)
(-0.0859431 0.017238 0)
(-0.0921924 0.0135253 0)
(-0.0968385 0.00903324 0)
(-0.0996102 0.00386536 0)
(-0.100285 -0.00180215 0)
(-0.0987139 -0.00771652 0)
(-0.0948436 -0.0135522 0)
(-0.088743 -0.0189302 0)
(-0.0806178 -0.0234471 0)
(-0.0708182 -0.0267159 0)
(-0.059834 -0.0284148 0)
(-0.0482704 -0.0283397 0)
(-0.0368051 -0.0264502 0)
(-0.0261259 -0.0229036 0)
(-0.0168553 -0.0180677 0)
(-0.00946871 -0.0125129 0)
(-0.00421675 -0.00698511 0)
(-0.00111199 -0.00236828 0)
(-4.24166e-05 0.000298386 0)
(-0.000579558 0.00394613 0)
(-0.00370997 0.0120337 0)
(-0.00998724 0.0192079 0)
(-0.0182395 0.0250226 0)
(-0.0278724 0.0293759 0)
(-0.0384644 0.0323177 0)
(-0.0496248 0.0339553 0)
(-0.0609982 0.0343897 0)
(-0.072254 0.0336834 0)
(-0.0830677 0.0318544 0)
(-0.0931101 0.0288905 0)
(-0.102044 0.0247742 0)
(-0.109528 0.0195127 0)
(-0.115226 0.0131677 0)
(-0.118827 0.00588011 0)
(-0.120062 -0.00211336 0)
(-0.118734 -0.0104742 0)
(-0.114743 -0.0187647 0)
(-0.108116 -0.0264714 0)
(-0.0990302 -0.0330408 0)
(-0.0878303 -0.0379304 0)
(-0.0750337 -0.040675 0)
(-0.0613134 -0.0409586 0)
(-0.0474571 -0.0386841 0)
(-0.0342986 -0.0340265 0)
(-0.022629 -0.0274568 0)
(-0.0130927 -0.0197312 0)
(-0.00608424 -0.011844 0)
(-0.00174076 -0.00495591 0)
(-0.000119713 -0.000372192 0)
(-0.000707426 0.00609734 0)
(-0.00444423 0.0174614 0)
(-0.0118435 0.0270867 0)
(-0.0214633 0.0346847 0)
(-0.0325881 0.0402756 0)
(-0.0447372 0.0440019 0)
(-0.0574822 0.0460339 0)
(-0.0704452 0.04651 0)
(-0.0832809 0.0455085 0)
(-0.0956515 0.0430481 0)
(-0.107213 0.0391086 0)
(-0.117607 0.0336641 0)
(-0.126467 0.0267197 0)
(-0.133421 0.0183482 0)
(-0.138112 0.00872016 0)
(-0.140218 -0.00187362 0)
(-0.139472 -0.0130132 0)
(-0.135702 -0.024149 0)
(-0.128863 -0.0346256 0)
(-0.119069 -0.0437206 0)
(-0.10663 -0.0507061 0)
(-0.0920646 -0.0549313 0)
(-0.0761019 -0.0559198 0)
(-0.059646 -0.0534696 0)
(-0.0437047 -0.0477357 0)
(-0.0292833 -0.0392748 0)
(-0.0172512 -0.0290365 0)
(-0.00819999 -0.0182944 0)
(-0.0024308 -0.00853087 0)
(-0.000195307 -0.00136905 0)
(-0.00082184 0.00862283 0)
(-0.00510713 0.0237658 0)
(-0.0135287 0.0361567 0)
(-0.024403 0.0457208 0)
(-0.0369056 0.0526484 0)
(-0.0505029 0.0572089 0)
(-0.0647358 0.0596584 0)
(-0.0792119 0.0601852 0)
(-0.09358 0.0588885 0)
(-0.1075 0.0557875 0)
(-0.120621 0.0508507 0)
(-0.132577 0.0440367 0)
(-0.142978 0.0353391 0)
(-0.15142 0.0248298 0)
(-0.157498 0.0126949 0)
(-0.160823 -0.00073532 0)
(-0.161047 -0.0149662 0)
(-0.157896 -0.0293485 0)
(-0.151223 -0.0430813 0)
(-0.141044 -0.0552559 0)
(-0.127589 -0.0649247 0)
(-0.111348 -0.0712002 0)
(-0.0930814 -0.0733801 0)
(-0.0738089 -0.0710873 0)
(-0.0547363 -0.0643966 0)
(-0.0371349 -0.0539156 0)
(-0.0221682 -0.0407893 0)
(-0.0106946 -0.0266101 0)
(-0.0032351 -0.0132489 0)
(-0.000279299 -0.00273051 0)
(-0.000921781 0.011482 0)
(-0.00568864 0.0308559 0)
(-0.0150131 0.0463009 0)
(-0.0270037 0.0580054 0)
(-0.040743 0.0663709 0)
(-0.0556535 0.0718257 0)
(-0.0712532 0.0747341 0)
(-0.0871431 0.0753472 0)
(-0.102975 0.0737914 0)
(-0.118415 0.0700868 0)
(-0.133119 0.0641862 0)
(-0.146717 0.0560247 0)
(-0.158808 0.045572 0)
(-0.16896 0.0328828 0)
(-0.17672 0.0181403 0)
(-0.181622 0.00169342 0)
(-0.183228 -0.0159142 0)
(-0.18115 -0.0339425 0)
(-0.175099 -0.0514497 0)
(-0.164952 -0.0673307 0)
(-0.150819 -0.0803853 0)
(-0.133107 -0.0894311 0)
(-0.112571 -0.0934588 0)
(-0.0903236 -0.0918207 0)
(-0.0677795 -0.08442 0)
(-0.046526 -0.0718527 0)
(-0.0281022 -0.0554469 0)
(-0.0137249 -0.0371588 0)
(-0.00421757 -0.0193379 0)
(-0.000383324 -0.00452724 0)
(-0.00100485 0.0146282 0)
(-0.00617502 0.0386247 0)
(-0.0162613 0.0573797 0)
(-0.0292029 0.0713855 0)
(-0.0440064 0.08129 0)
(-0.0600606 0.0877089 0)
(-0.0768684 0.0911349 0)
(-0.0940314 0.0918954 0)
(-0.111213 0.0901507 0)
(-0.128094 0.0859233 0)
(-0.144346 0.0791463 0)
(-0.159608 0.0697223 0)
(-0.173476 0.0575832 0)
(-0.185499 0.0427476 0)
(-0.195183 0.0253727 0)
(-0.201996 0.00579941 0)
(-0.205398 -0.0154122 0)
(-0.20487 -0.0374503 0)
(-0.199966 -0.0592494 0)
(-0.190386 -0.0795076 0)
(-0.176064 -0.0967481 0)
(-0.157262 -0.109436 0)
(-0.134663 -0.116163 0)
(-0.109421 -0.115887 0)
(-0.0831473 -0.10821 0)
(-0.0577788 -0.0936103 0)
(-0.0353185 -0.0735559 0)
(-0.0174598 -0.050408 0)
(-0.00544807 -0.0271069 0)
(-0.000519816 -0.00686597 0)
(-0.00106788 0.0180063 0)
(-0.00655031 0.0469467 0)
(-0.0172348 0.0692277 0)
(-0.0309328 0.0856771 0)
(-0.0465933 0.0972168 0)
(-0.0635802 0.104674 0)
(-0.0813882 0.108687 0)
(-0.0996256 0.109675 0)
(-0.117974 0.107838 0)
(-0.136138 0.103205 0)
(-0.153813 0.095685 0)
(-0.17066 0.0851413 0)
(-0.186285 0.0714538 0)
(-0.200235 0.0545853 0)
(-0.211986 0.0346406 0)
(-0.220954 0.0119214 0)
(-0.226507 -0.0130241 0)
(-0.227998 -0.039354 0)
(-0.224811 -0.0659088 0)
(-0.216441 -0.0912072 0)
(-0.202592 -0.113488 0)
(-0.183306 -0.13082 0)
(-0.159101 -0.1413 0)
(-0.131085 -0.14335 0)
(-0.101002 -0.136089 0)
(-0.0711453 -0.119712 0)
(-0.0440638 -0.095728 0)
(-0.0220706 -0.0669203 0)
(-0.00700045 -0.0369492 0)
(-0.000702192 -0.0098918 0)
(-0.00110762 0.0215522 0)
(-0.00679902 0.0556776 0)
(-0.0178965 0.081654 0)
(-0.032128 0.100664 0)
(-0.048402 0.113922 0)
(-0.0660648 0.122486 0)
(-0.0846076 0.127158 0)
(-0.10365 0.128458 0)
(-0.122896 0.12664 0)
(-0.142081 0.121739 0)
(-0.160935 0.113643 0)
(-0.179152 0.102169 0)
(-0.196366 0.0871335 0)
(-0.212137 0.0684262 0)
(-0.225941 0.0460748 0)
(-0.237163 0.0203102 0)
(-0.245107 -0.00837049 0)
(-0.249015 -0.0391408 0)
(-0.248111 -0.0707942 0)
(-0.241668 -0.101712 0)
(-0.229119 -0.129869 0)
(-0.210207 -0.152922 0)
(-0.18517 -0.168393 0)
(-0.154934 -0.174012 0)
(-0.121261 -0.168194 0)
(-0.0867457 -0.1506 0)
(-0.0545343 -0.122593 0)
(-0.0277203 -0.0873362 0)
(-0.00895152 -0.0493414 0)
(-0.000945402 -0.01379 0)
(-0.00112153 0.0251938 0)
(-0.00690946 0.0646565 0)
(-0.0182183 0.0944438 0)
(-0.0327364 0.116097 0)
(-0.0493467 0.131135 0)
(-0.0673823 0.140857 0)
(-0.0863335 0.146245 0)
(-0.105833 0.147934 0)
(-0.12561 0.146239 0)
(-0.145436 0.141211 0)
(-0.165085 0.132719 0)
(-0.184295 0.120532 0)
(-0.202747 0.104398 0)
(-0.220041 0.0841194 0)
(-0.235679 0.0596274 0)
(-0.249054 0.0310529 0)
(-0.259445 -0.00119884 0)
(-0.266024 -0.0363688 0)
(-0.267885 -0.0732662 0)
(-0.264093 -0.110202 0)
(-0.253788 -0.144951 0)
(-0.236344 -0.17478 0)
(-0.211595 -0.196599 0)
(-0.180115 -0.207306 0)
(-0.143495 -0.204352 0)
(-0.104491 -0.186526 0)
(-0.0668344 -0.154724 0)
(-0.0345491 -0.11234 0)
(-0.0113795 -0.0648356 0)
(-0.0012666 -0.0187878 0)
(-0.00110865 0.028854 0)
(-0.00687769 0.0737124 0)
(-0.0181891 0.107366 0)
(-0.0327322 0.131704 0)
(-0.0493752 0.148547 0)
(-0.0674396 0.159448 0)
(-0.0864147 0.165578 0)
(-0.105946 0.167701 0)
(-0.125788 0.166206 0)
(-0.145755 0.161172 0)
(-0.165668 0.152455 0)
(-0.185325 0.139779 0)
(-0.204471 0.122822 0)
(-0.222772 0.101298 0)
(-0.239791 0.0750267 0)
(-0.254975 0.0440177 0)
(-0.26763 0.00854759 0)
(-0.276916 -0.0307462 0)
(-0.281854 -0.0727618 0)
(-0.281343 -0.115837 0)
(-0.274245 -0.157644 0)
(-0.259525 -0.195146 0)
(-0.236505 -0.224671 0)
(-0.205215 -0.24219 0)
(-0.16682 -0.243938 0)
(-0.123992 -0.227402 0)
(-0.0809203 -0.19253 0)
(-0.0426533 -0.142601 0)
(-0.014361 -0.0840431 0)
(-0.00168578 -0.0251553 0)
(-0.00107046 0.032456 0)
(-0.00671182 0.0826745 0)
(-0.0178252 0.120185 0)
(-0.0321315 0.147195 0)
(-0.0484902 0.165821 0)
(-0.0662091 0.177871 0)
(-0.0847747 0.184718 0)
(-0.103843 0.187272 0)
(-0.123198 0.186007 0)
(-0.142693 0.181043 0)
(-0.162207 0.172235 0)
(-0.181608 0.159274 0)
(-0.200722 0.141776 0)
(-0.219305 0.119366 0)
(-0.237022 0.0917546 0)
(-0.253415 0.0588161 0)
(-0.26788 0.0206724 0)
(-0.279633 -0.0222095 0)
(-0.287698 -0.0688952 0)
(-0.290892 -0.117859 0)
(-0.287847 -0.166814 0)
(-0.277135 -0.21257 0)
(-0.257498 -0.250982 0)
(-0.228245 -0.277103 0)
(-0.189826 -0.285751 0)
(-0.144469 -0.272645 0)
(-0.0965314 -0.236105 0)
(-0.0520539 -0.178693 0)
(-0.0179652 -0.107606 0)
(-0.0022263 -0.0332048 0)
(-0.0010118 0.0359311 0)
(-0.0064366 0.091388 0)
(-0.0171799 0.132678 0)
(-0.0310082 0.162284 0)
(-0.04677 0.182604 0)
(-0.063755 0.195706 0)
(-0.0814444 0.203179 0)
(-0.0995058 0.206088 0)
(-0.11775 0.205014 0)
(-0.136077 0.200132 0)
(-0.154427 0.191313 0)
(-0.172748 0.178229 0)
(-0.190961 0.160448 0)
(-0.208937 0.137522 0)
(-0.22647 0.109057 0)
(-0.243243 0.0747969 0)
(-0.258798 0.0346966 0)
(-0.272478 -0.0109828 0)
(-0.283403 -0.0615575 0)
(-0.290403 -0.115739 0)
(-0.291988 -0.171447 0)
(-0.28641 -0.225549 0)
(-0.271835 -0.273642 0)
(-0.246738 -0.309999 0)
(-0.210572 -0.327948 0)
(-0.164681 -0.321014 0)
(-0.113117 -0.285064 0)
(-0.0626585 -0.220967 0)
(-0.0222464 -0.136151 0)
(-0.00291537 -0.0432872 0)
(-0.000941936 0.0392289 0)
(-0.00609848 0.099735 0)
(-0.016355 0.144658 0)
(-0.0295099 0.176706 0)
(-0.0443886 0.198549 0)
(-0.0602564 0.21252 0)
(-0.0765893 0.220437 0)
(-0.0930695 0.223543 0)
(-0.109541 0.222538 0)
(-0.125953 0.217673 0)
(-0.142317 0.208852 0)
(-0.158666 0.195748 0)
(-0.175031 0.177902 0)
(-0.191413 0.154808 0)
(-0.207755 0.125993 0)
(-0.223915 0.091079 0)
(-0.239622 0.0498578 0)
(-0.254424 0.00236811 0)
(-0.26761 -0.0509995 0)
(-0.278128 -0.1093 0)
(-0.284511 -0.170826 0)
(-0.284829 -0.232747 0)
(-0.276774 -0.290708 0)
(-0.257976 -0.338496 0)
(-0.22669 -0.368078 0)
(-0.182926 -0.370518 0)
(-0.129778 -0.338354 0)
(-0.0742179 -0.269405 0)
(-0.0272348 -0.170225 0)
(-0.00378519 -0.0557853 0)
(-0.00087596 0.0423308 0)
(-0.00577206 0.107661 0)
(-0.015513 0.156003 0)
(-0.0278747 0.190248 0)
(-0.0416336 0.213335 0)
(-0.0560252 0.227885 0)
(-0.0705265 0.235963 0)
(-0.0848451 0.239008 0)
(-0.0988698 0.237863 0)
(-0.112612 0.232868 0)
(-0.126159 0.223982 0)
(-0.139642 0.210897 0)
(-0.153207 0.193148 0)
(-0.166994 0.1702 0)
(-0.181108 0.141518 0)
(-0.195596 0.106631 0)
(-0.210402 0.0651824 0)
(-0.225313 0.0169933 0)
(-0.239858 -0.0378429 0)
(-0.253216 -0.0988052 0)
(-0.264082 -0.1647 0)
(-0.27053 -0.233238 0)
(-0.269976 -0.300471 0)
(-0.259337 -0.360146 0)
(-0.235614 -0.403253 0)
(-0.197115 -0.418419 0)
(-0.145247 -0.394114 0)
(-0.0862889 -0.323444 0)
(-0.0329308 -0.210208 0)
(-0.00487594 -0.0711046 0)
(-0.000837499 0.0452675 0)
(-0.00556992 0.115207 0)
(-0.0148943 0.166691 0)
(-0.0264492 0.202768 0)
(-0.0389213 0.226688 0)
(-0.0515156 0.241393 0)
(-0.063728 0.249231 0)
(-0.0753153 0.251859 0)
(-0.0862337 0.250277 0)
(-0.0965737 0.244933 0)
(-0.106514 0.235853 0)
(-0.116291 0.222768 0)
(-0.12617 0.205228 0)
(-0.136429 0.18269 0)
(-0.147339 0.154588 0)
(-0.159132 0.12038 0)
(-0.171971 0.0795929 0)
(-0.185891 0.0318573 0)
(-0.200698 -0.0230258 0)
(-0.215882 -0.0849696 0)
(-0.230433 -0.153378 0)
(-0.242631 -0.226699 0)
(-0.249882 -0.301753 0)
(-0.248665 -0.372787 0)
(-0.23488 -0.430456 0)
(-0.204958 -0.461381 0)
(-0.157925 -0.449612 0)
(-0.0982095 -0.381794 0)
(-0.0393055 -0.256205 0)
(-0.00624331 -0.0896669 0)
(-0.000864326 0.0481439 0)
(-0.00565989 0.122555 0)
(-0.0148415 0.176833 0)
(-0.0257103 0.214227 0)
(-0.0368079 0.238392 0)
(-0.0473221 0.25267 0)
(-0.0568051 0.259737 0)
(-0.0651055 0.26149 0)
(-0.0722831 0.259101 0)
(-0.0785352 0.253131 0)
(-0.0841489 0.243684 0)
(-0.0894721 0.230541 0)
(-0.0948926 0.213283 0)
(-0.100823 0.191376 0)
(-0.107681 0.164245 0)
(-0.115874 0.131307 0)
(-0.125763 0.0920055 0)
(-0.137615 0.045822 0)
(-0.151516 -0.00769618 0)
(-0.1673 -0.0688882 0)
(-0.184342 -0.137732 0)
(-0.201314 -0.213521 0)
(-0.215912 -0.294137 0)
(-0.224563 -0.374886 0)
(-0.222431 -0.446928 0)
(-0.204178 -0.495766 0)
(-0.165966 -0.501301 0)
(-0.109091 -0.44229 0)
(-0.0463124 -0.307925 0)
(-0.00797418 -0.111915 0)
(-0.00102052 0.0511795 0)
(-0.00629705 0.130083 0)
(-0.0158381 0.186713 0)
(-0.0262922 0.224695 0)
(-0.0359938 0.248289 0)
(-0.0441578 0.261365 0)
(-0.0504627 0.266987 0)
(-0.0549159 0.267316 0)
(-0.0577339 0.263693 0)
(-0.0592561 0.256791 0)
(-0.0598979 0.246787 0)
(-0.0601268 0.233516 0)
(-0.0604483 0.216592 0)
(-0.0613949 0.195505 0)
(-0.0635152 0.169683 0)
(-0.0673576 0.138526 0)
(-0.0734466 0.101423 0)
(-0.0822489 0.0577473 0)
(-0.0941276 0.00685242 0)
(-0.109222 -0.0519226 0)
(-0.12731 -0.11909 0)
(-0.147617 -0.194774 0)
(-0.168393 -0.278068 0)
(-0.186455 -0.365799 0)
(-0.196782 -0.45055 0)
(-0.192698 -0.51801 0)
(-0.167379 -0.545005 0)
(-0.117812 -0.501789 0)
(-0.0538998 -0.36453 0)
(-0.0102144 -0.13834 0)
(-0.00142207 0.0547771 0)
(-0.00788191 0.13844 0)
(-0.0185653 0.196819 0)
(-0.0290099 0.234341 0)
(-0.037301 0.256238 0)
(-0.042787 0.267105 0)
(-0.0453923 0.270462 0)
(-0.0453811 0.268742 0)
(-0.0431956 0.263434 0)
(-0.0393585 0.255296 0)
(-0.0344326 0.244562 0)
(-0.0290082 0.231106 0)
(-0.0236985 0.214574 0)
(-0.0191361 0.194477 0)
(-0.0159709 0.170257 0)
(-0.0148606 0.141309 0)
(-0.016455 0.106993 0)
(-0.0213751 0.0666151 0)
(-0.0301839 0.0194031 0)
(-0.0433116 -0.0355011 0)
(-0.060955 -0.0990423 0)
(-0.0829104 -0.172042 0)
(-0.108179 -0.254775 0)
(-0.134378 -0.345854 0)
(-0.156968 -0.440113 0)
(-0.168678 -0.524995 0)
(-0.160049 -0.576184 0)
(-0.122966 -0.556122 0)
(-0.0619954 -0.424445 0)
(-0.0132067 -0.16954 0)
(-0.00228865 0.0596481 0)
(-0.0110604 0.148648 0)
(-0.0239709 0.207843 0)
(-0.0348457 0.243364 0)
(-0.0415667 0.262026 0)
(-0.0438372 0.269405 0)
(-0.0420179 0.26954 0)
(-0.0367626 0.2651 0)
(-0.0288192 0.257668 0)
(-0.0189345 0.248037 0)
(-0.00783033 0.236452 0)
(0.00378489 0.222799 0)
(0.0152086 0.206741 0)
(0.0257359 0.187806 0)
(0.034648 0.165446 0)
(0.0412159 0.139063 0)
(0.0447057 0.108007 0)
(0.044387 0.0715611 0)
(0.0395445 0.0288945 0)
(0.029507 -0.020972 0)
(0.0137176 -0.0792253 0)
(-0.00817975 -0.147176 0)
(-0.0360164 -0.226053 0)
(-0.0685066 -0.316253 0)
(-0.102243 -0.415419 0)
(-0.13035 -0.514327 0)
(-0.141628 -0.590209 0)
(-0.122703 -0.600077 0)
(-0.0703838 -0.485063 0)
(-0.0173144 -0.206287 0)
(-0.00404288 0.0670461 0)
(-0.0168771 0.162203 0)
(-0.0332959 0.220586 0)
(-0.044779 0.251798 0)
(-0.0492844 0.265149 0)
(-0.0472883 0.267478 0)
(-0.0398715 0.263334 0)
(-0.0282392 0.25552 0)
(-0.0135245 0.245604 0)
(0.00327357 0.234318 0)
(0.0212747 0.221858 0)
(0.0396759 0.208078 0)
(0.0577169 0.192631 0)
(0.074653 0.175047 0)
(0.0897353 0.154789 0)
(0.102202 0.131271 0)
(0.111272 0.103854 0)
(0.116145 0.0718286 0)
(0.115992 0.0343682 0)
(0.109946 -0.00952679 0)
(0.0971545 -0.0611286 0)
(0.0767921 -0.121978 0)
(0.0482309 -0.19392 0)
(0.0115206 -0.278819 0)
(-0.0315585 -0.377217 0)
(-0.075626 -0.484513 0)
(-0.109191 -0.5826 0)
(-0.114354 -0.627359 0)
(-0.0783302 -0.542245 0)
(-0.0229468 -0.249454 0)
(-0.00748224 0.0791863 0)
(-0.0269529 0.181112 0)
(-0.047859 0.235612 0)
(-0.059098 0.259043 0)
(-0.0595341 0.264375 0)
(-0.0511357 0.259867 0)
(-0.0360808 0.250408 0)
(-0.0162912 0.238712 0)
(0.00666324 0.22614 0)
(0.03154 0.213233 0)
(0.0573376 0.200046 0)
(0.0832059 0.186347 0)
(0.108377 0.171748 0)
(0.132118 0.155767 0)
(0.153693 0.137874 0)
(0.172351 0.117505 0)
(0.187301 0.0940539 0)
(0.197704 0.0668518 0)
(0.202656 0.0351273 0)
(0.201122 -0.00205396 0)
(0.192038 -0.0458896 0)
(0.174201 -0.0979253 0)
(0.146313 -0.160249 0)
(0.107297 -0.23563 0)
(0.0570603 -0.327071 0)
(-0.00152388 -0.435134 0)
(-0.0586217 -0.549349 0)
(-0.0936697 -0.630529 0)
(-0.0837241 -0.589505 0)
(-0.0301798 -0.299669 0)
(-0.0139915 0.0999209 0)
(-0.0434352 0.207519 0)
(-0.0678887 0.252308 0)
(-0.0751637 0.262877 0)
(-0.0670621 0.256917 0)
(-0.0481153 0.243837 0)
(-0.0219747 0.228364 0)
(0.0086538 0.212708 0)
(0.0418259 0.197738 0)
(0.0761635 0.183623 0)
(0.110659 0.170172 0)
(0.144518 0.157014 0)
(0.177058 0.143688 0)
(0.207632 0.129695 0)
(0.235585 0.114519 0)
(0.260226 0.0976313 0)
(0.280799 0.0784829 0)
(0.296468 0.0564837 0)
(0.306289 0.0309674 0)
(0.309125 0.00113618 0)
(0.303759 -0.0340195 0)
(0.288699 -0.0758726 0)
(0.262176 -0.126398 0)
(0.222229 -0.188617 0)
(0.167061 -0.267064 0)
(0.0964821 -0.366956 0)
(0.0164045 -0.487478 0)
(-0.0533887 -0.601145 0)
(-0.0815686 -0.617189 0)
(-0.0377655 -0.357188 0)
(-0.0253944 0.135721 0)
(-0.06741 0.24145 0)
(-0.0878608 0.26599 0)
(-0.0808013 0.257062 0)
(-0.055038 0.236813 0)
(-0.0186245 0.214441 0)
(0.0234122 0.193429 0)
(0.0679488 0.174806 0)
(0.113062 0.158583 0)
(0.157579 0.144377 0)
(0.200755 0.131674 0)
(0.242059 0.11993 0)
(0.281045 0.108616 0)
(0.317269 0.0972252 0)
(0.350245 0.0852772 0)
(0.379412 0.0723085 0)
(0.404111 0.0578597 0)
(0.423565 0.0414542 0)
(0.436853 0.0225691 0)
(0.442803 0.000583582 0)
(0.440143 -0.0251756 0)
(0.427214 -0.0558227 0)
(0.401982 -0.0929676 0)
(0.361934 -0.139279 0)
(0.303993 -0.199557 0)
(0.225021 -0.28192 0)
(0.125632 -0.395258 0)
(0.0191171 -0.530616 0)
(-0.0617895 -0.611916 0)
(-0.0410566 -0.421214 0)
(-0.0411694 0.197867 0)
(-0.0899934 0.273376 0)
(-0.0798498 0.259453 0)
(-0.0368276 0.225854 0)
(0.0201239 0.192301 0)
(0.0813698 0.163704 0)
(0.142435 0.140617 0)
(0.20122 0.122233 0)
(0.256834 0.107486 0)
(0.308987 0.0954217 0)
(0.357637 0.0852547 0)
(0.402801 0.076341 0)
(0.444453 0.0681467 0)
(0.482477 0.0602191 0)
(0.516645 0.0521654 0)
(0.546596 0.0436334 0)
(0.571828 0.0342948 0)
(0.591687 0.0238269 0)
(0.605335 0.0118871 0)
(0.611788 -0.00193978 0)
(0.609795 -0.0180102 0)
(0.597642 -0.0370392 0)
(0.57333 -0.0600987 0)
(0.534173 -0.0890754 0)
(0.476425 -0.127781 0)
(0.394796 -0.184329 0)
(0.284037 -0.273914 0)
(0.145163 -0.410597 0)
(-0.0038407 -0.553891 0)
(-0.0255057 -0.477338 0)
(-0.0339805 0.294061 0)
(-0.0474666 0.273124 0)
(0.0543879 0.199892 0)
(0.157432 0.149709 0)
(0.249964 0.114542 0)
(0.331506 0.0893641 0)
(0.40306 0.0715256 0)
(0.465907 0.058812 0)
(0.521413 0.0495126 0)
(0.570799 0.0424635 0)
(0.615016 0.0368909 0)
(0.654737 0.0322596 0)
(0.690394 0.0281812 0)
(0.722202 0.0243617 0)
(0.750184 0.0205694 0)
(0.774192 0.0166131 0)
(0.793913 0.0123271 0)
(0.808883 0.00756272 0)
(0.818422 0.00217398 0)
(0.821847 -0.00391748 0)
(0.818139 -0.0110475 0)
(0.805908 -0.0194553 0)
(0.783496 -0.0295898 0)
(0.748556 -0.0423661 0)
(0.697469 -0.0598076 0)
(0.624142 -0.0869675 0)
(0.518354 -0.137332 0)
(0.36498 -0.240403 0)
(0.143999 -0.407015 0)
(0.0588192 -0.458305 0)
(0.303293 0.180958 0)
(0.382717 0.144386 0)
(0.561164 0.0912366 0)
(0.687075 0.0590299 0)
(0.769717 0.0393209 0)
(0.829116 0.0267631 0)
(0.874673 0.0188095 0)
(0.910813 0.013789 0)
(0.940313 0.010554 0)
(0.965042 0.00838556 0)
(0.986196 0.00685265 0)
(1.00451 0.00569255 0)
(1.02042 0.0047392 0)
(1.03416 0.00388339 0)
(1.0458 0.0030499 0)
(1.0553 0.00218409 0)
(1.0625 0.00124303 0)
(1.06719 0.000195098 0)
(1.06909 -0.000994459 0)
(1.06779 -0.00224979 0)
(1.06273 -0.00376143 0)
(1.05341 -0.00555374 0)
(1.03901 -0.007696 0)
(1.01833 -0.0103916 0)
(0.989322 -0.0141342 0)
(0.947877 -0.0202605 0)
(0.884222 -0.0326556 0)
(0.776469 -0.0638151 0)
(0.54485 -0.139499 0)
(0.38249 -0.201751 0)
)
;

boundaryField
{
    movingWall
    {
        type            fixedValue;
        value           uniform (1.2 0 0);
    }
    fixedWalls
    {
        type            noSlip;
    }
    frontAndBack
    {
        type            empty;
    }
}


// ************************************************************************* //
