/*--------------------------------*- C++ -*----------------------------------*\
  =========                 |
  \\      /  F ield         | OpenFOAM: The Open Source CFD Toolbox
   \\    /   O peration     | Website:  https://openfoam.org
    \\  /    A nd           | Version:  7
     \\/     M anipulation  |
\*---------------------------------------------------------------------------*/
FoamFile
{
    version     2.0;
    format      ascii;
    class       volScalarField;
    location    "50";
    object      epsilon;
}
// * * * * * * * * * * * * * * * * * * * * * * * * * * * * * * * * * * * * * //

dimensions      [0 2 -3 0 0 0 0];

internalField   nonuniform List<scalar> 
16900
(
97.5752
164.271
233.435
298.119
359.187
416.896
471.195
522.159
569.725
613.985
654.913
692.617
727.128
758.532
786.934
812.442
835.204
855.394
873.253
889.179
901.444
908.638
910.244
905.844
895.211
878.325
855.441
827.073
793.949
756.946
717.018
675.117
632.144
588.915
546.154
504.494
464.466
426.484
390.804
357.599
327.45
300.902
277.509
261.219
247.531
235.471
224.721
215.094
206.453
198.683
191.692
185.399
179.735
174.64
170.061
165.952
162.273
158.986
156.062
153.47
151.186
149.187
147.453
145.967
144.711
143.672
142.837
142.193
141.73
141.439
141.31
141.336
141.509
141.822
142.27
142.845
143.542
144.355
145.279
146.309
147.438
148.662
149.974
151.369
152.84
154.382
155.986
157.647
159.357
161.108
162.893
164.704
166.533
168.372
170.212
172.045
173.864
175.662
177.429
179.161
180.85
182.491
184.078
185.606
187.072
188.472
189.804
191.065
192.254
193.37
194.414
195.385
196.285
197.115
197.877
198.572
199.204
199.774
200.286
200.742
201.145
201.494
201.792
202.045
202.256
202.429
202.569
202.678
202.76
202.817
202.852
202.867
202.865
202.846
202.814
202.768
202.712
202.646
202.571
202.488
202.399
202.304
202.205
202.101
201.993
201.883
201.771
201.656
201.541
201.424
201.307
201.189
201.072
200.955
200.838
200.722
200.607
200.493
200.38
200.268
200.157
200.048
199.941
199.835
199.731
199.628
199.527
199.427
199.33
199.234
199.139
199.046
198.955
198.866
198.778
198.691
198.607
198.523
198.442
198.361
198.282
198.205
198.129
198.054
197.98
197.908
197.837
197.767
197.699
197.631
197.565
197.5
197.436
197.374
197.313
197.253
197.195
197.139
197.086
197.022
148.104
182.566
229.152
260.892
284.463
302.136
315.318
324.959
331.8
336.403
339.29
340.929
341.767
342.301
342.978
344.288
346.674
350.575
356.408
364.518
374.213
383.562
391.921
398.676
403.246
405.151
404.064
399.859
392.604
382.553
370.093
355.692
339.829
322.954
305.457
287.673
269.891
252.378
235.363
218.972
202.896
186.882
172.919
161.27
150.945
141.59
133.056
125.263
118.144
111.642
105.701
100.271
95.3038
90.757
86.5901
82.7681
79.2582
76.0317
73.0624
70.327
67.8044
65.4759
63.3246
61.3354
59.4946
57.7902
56.2109
54.7471
53.3896
52.1305
50.9624
49.8787
48.8734
47.941
47.0766
46.2755
45.5338
44.8475
44.2132
43.6277
43.088
42.5913
42.1351
41.717
41.3348
40.9863
40.6696
40.3828
40.1242
39.8919
39.6845
39.5004
39.338
39.1961
39.0732
38.9681
38.8796
38.8065
38.7477
38.7023
38.6692
38.6474
38.6363
38.6349
38.6425
38.6584
38.682
38.7126
38.7497
38.7928
38.8412
38.8947
38.9527
39.0147
39.0806
39.1497
39.2219
39.2967
39.3738
39.4528
39.5336
39.6162
39.7024
39.7926
39.8852
39.979
40.0733
40.1671
40.2604
40.3525
40.4435
40.5331
40.6213
40.7081
40.7937
40.8779
40.9609
41.0428
41.1236
41.2029
41.2811
41.3585
41.4353
41.5117
41.5879
41.664
41.7403
41.8167
41.8936
41.9708
42.0486
42.1269
42.206
42.2858
42.3664
42.4478
42.5302
42.6134
42.6976
42.7827
42.8689
42.9559
43.0441
43.1332
43.2234
43.3145
43.4067
43.4998
43.594
43.6891
43.7853
43.8823
43.9804
44.0792
44.1792
44.2799
44.3816
44.484
44.5874
44.6916
44.7966
44.9024
45.009
45.1163
45.2245
45.3333
45.4429
45.5531
45.6641
45.7756
45.8879
46.0007
46.1141
46.2279
46.3423
46.4567
46.571
46.6838
46.7922
46.8984
197.049
202.273
240.108
260.836
272.544
278.484
280.629
280.389
278.725
276.409
274.027
272.109
271.126
271.479
273.524
277.529
283.665
291.992
302.415
314.689
328.066
341.613
354.552
366.077
375.407
381.873
384.991
384.506
380.411
372.93
362.463
349.523
334.661
318.408
301.243
283.57
265.714
247.885
230.145
212.058
193.927
178.089
164.332
152.258
141.415
131.556
122.549
114.311
106.775
99.8834
93.5788
87.8089
82.5245
77.6799
73.2336
69.1476
65.3875
61.9224
58.7246
55.7692
53.0338
50.4985
48.1453
45.9582
43.9228
42.0262
40.2567
38.604
37.0587
35.6121
34.2568
32.9856
31.7923
30.6712
29.617
28.625
27.6909
26.8107
25.9808
25.1977
24.4586
23.7605
23.1008
22.4771
21.8873
21.3293
20.8011
20.3011
19.8275
19.3788
18.9537
18.5509
18.169
17.807
17.4639
17.1386
16.8301
16.5378
16.2607
15.9982
15.7495
15.514
15.2911
15.0802
14.8808
14.6925
14.5146
14.3469
14.1888
14.04
13.9001
13.7687
13.6454
13.53
13.422
13.3213
13.2273
13.1399
13.0588
12.9836
12.9141
12.8501
12.7912
12.7374
12.6884
12.6439
12.6036
12.5673
12.5348
12.5058
12.4799
12.4572
12.4372
12.4199
12.4051
12.3925
12.3821
12.3738
12.3674
12.3633
12.3613
12.361
12.3623
12.3651
12.3692
12.3745
12.3809
12.3883
12.3967
12.406
12.4163
12.4273
12.4392
12.4519
12.4654
12.4796
12.4945
12.5102
12.5266
12.5437
12.5614
12.5798
12.5989
12.6186
12.639
12.66
12.6816
12.7039
12.7267
12.7501
12.7741
12.7987
12.8238
12.8495
12.8758
12.9026
12.9299
12.9577
12.9861
13.015
13.0444
13.0743
13.1047
13.1355
13.1669
13.1987
13.231
13.2638
13.297
13.3307
13.3648
13.3993
13.4342
13.4694
13.5049
13.5406
13.5762
13.6117
13.647
13.6823
241.722
213.788
245.297
260.37
266.765
268.025
266.404
263.335
259.782
256.408
253.727
252.167
252.074
253.771
257.5
263.424
271.61
282.016
294.5
308.717
324.066
339.77
354.972
368.748
380.199
388.543
393.191
393.817
390.369
383.058
372.304
358.662
342.747
325.169
306.49
287.183
267.594
247.846
227.656
207.892
190.291
174.695
160.813
148.366
137.112
126.885
117.566
109.067
101.313
94.2356
87.7731
81.8682
76.4677
71.5233
66.991
62.8309
59.0072
55.4877
52.2435
49.249
46.4809
43.9187
41.544
39.3403
37.2928
35.3882
33.6147
31.9615
30.419
28.9785
27.632
26.3725
25.1934
24.0888
23.0533
22.082
21.1705
20.3145
19.5102
18.7543
18.0433
17.3745
16.745
16.1522
15.5939
15.0679
14.5721
14.1047
13.6639
13.2481
12.8558
12.4856
12.1363
11.8065
11.4953
11.2014
10.9241
10.6623
10.4152
10.182
9.96206
9.75459
9.55898
9.37461
9.20091
9.03735
8.88342
8.73863
8.60253
8.47468
8.35467
8.24209
8.13657
8.03774
7.94524
7.85875
7.77792
7.70245
7.63204
7.56638
7.5052
7.44823
7.39521
7.3459
7.30006
7.25747
7.2179
7.18114
7.14701
7.1153
7.08584
7.05846
7.03299
7.00929
6.98721
6.96663
6.94743
6.92949
6.91272
6.89705
6.88239
6.86867
6.85582
6.84376
6.83244
6.82179
6.81177
6.80232
6.79341
6.785
6.77705
6.76954
6.76244
6.75573
6.7494
6.74342
6.73778
6.73247
6.72748
6.72279
6.71841
6.71432
6.71052
6.70699
6.70374
6.70076
6.69805
6.69558
6.69338
6.69143
6.68973
6.68826
6.68704
6.68606
6.68531
6.68478
6.68449
6.68441
6.68457
6.68493
6.68552
6.68631
6.68733
6.68854
6.68997
6.69159
6.69343
6.69546
6.6977
6.70013
6.70276
6.70557
6.70858
6.71177
6.71514
6.71865
6.72232
6.72607
6.72986
6.73341
280.498
219.141
245.192
257.112
261.094
260.733
258.248
254.945
251.608
248.745
246.735
245.887
246.517
248.884
253.228
259.716
268.435
279.4
292.474
307.372
323.558
340.29
356.652
371.642
384.275
393.671
399.158
400.317
397.035
389.488
378.097
363.453
346.238
327.142
306.807
285.73
264.23
242.16
220.981
201.956
184.871
169.52
155.697
143.213
131.904
121.635
112.3
103.807
96.0761
89.0354
82.619
76.7666
71.4233
66.5391
62.0692
57.9728
54.2138
50.7596
47.5811
44.6524
41.9503
39.4542
37.1456
35.008
33.0267
31.1884
29.4813
27.8946
26.4187
25.045
23.7654
22.5728
21.4608
20.4234
19.4551
18.551
17.7065
16.9174
16.1799
15.4903
14.8455
14.2423
13.678
13.1498
12.6555
12.1927
11.7593
11.3534
10.9732
10.617
10.2832
9.97044
9.67732
9.4026
9.14511
8.90377
8.67758
8.46561
8.26697
8.08088
7.90658
7.74335
7.59057
7.4476
7.31387
7.18886
7.07205
6.96297
6.86117
6.76622
6.67773
6.5953
6.51858
6.44722
6.38088
6.31925
6.26202
6.20892
6.15965
6.11395
6.07158
6.03229
5.99586
5.96205
5.93068
5.90154
5.87444
5.84922
5.82572
5.80377
5.78323
5.76398
5.74589
5.72884
5.71273
5.69747
5.68296
5.66913
5.6559
5.64322
5.63103
5.61927
5.6079
5.59688
5.58618
5.57577
5.56561
5.55569
5.54598
5.53647
5.52715
5.51799
5.509
5.50016
5.49147
5.48292
5.4745
5.46623
5.45808
5.45007
5.44218
5.43443
5.4268
5.41931
5.41194
5.4047
5.39759
5.39061
5.38376
5.37703
5.37044
5.36397
5.35763
5.35141
5.34533
5.33936
5.33353
5.32781
5.32222
5.31675
5.31141
5.30618
5.30107
5.29609
5.29122
5.28646
5.28182
5.2773
5.27289
5.26859
5.26441
5.26034
5.25638
5.25253
5.2488
5.24517
5.24166
5.23824
5.23492
5.23101
312.677
220.038
241.029
251.021
254.142
253.698
251.752
249.377
247.117
245.286
244.111
243.834
244.691
246.981
250.978
256.922
264.997
275.307
287.878
302.487
318.654
335.634
352.464
368.098
381.487
391.686
397.917
399.674
396.735
389.201
377.455
362.112
343.919
323.629
301.927
279.275
255.894
233.649
213.411
195.024
178.354
163.264
149.613
137.259
126.069
115.925
106.725
98.3764
90.7958
83.9083
77.6455
71.9451
66.7509
62.0123
57.6838
53.7244
50.0978
46.7714
43.7162
40.9065
38.3193
35.9341
33.7326
31.6987
29.8176
28.0764
26.4635
24.9682
23.5811
22.2938
21.0983
19.9877
18.9557
17.9963
17.1043
16.2747
15.503
14.7852
14.1173
13.4959
12.9178
12.3798
11.8792
11.4133
10.9798
10.5763
10.2009
9.85142
9.5262
9.2235
8.94175
8.67949
8.43537
8.20811
7.99656
7.79962
7.6163
7.44565
7.28682
7.139
7.00146
6.8735
6.75449
6.64383
6.54099
6.44543
6.35669
6.27432
6.19791
6.12705
6.06139
6.00058
5.94429
5.89221
5.84405
5.79954
5.75841
5.72042
5.68532
5.6529
5.62295
5.59525
5.56963
5.54591
5.52391
5.50349
5.48448
5.46676
5.45019
5.43466
5.42006
5.40628
5.39323
5.38083
5.36899
5.35766
5.34677
5.33626
5.32608
5.31619
5.30656
5.29713
5.2879
5.27884
5.26992
5.26112
5.25244
5.24386
5.23538
5.22697
5.21865
5.2104
5.20223
5.19413
5.18611
5.17815
5.17027
5.16245
5.15472
5.14706
5.13949
5.13199
5.12458
5.11725
5.11002
5.10287
5.09581
5.08884
5.08197
5.07518
5.0685
5.06191
5.05542
5.04902
5.04272
5.03651
5.0304
5.02438
5.01847
5.01264
5.00691
5.00127
4.99574
4.99028
4.98493
4.97966
4.97449
4.9694
4.96441
4.9595
4.95469
4.94996
4.94533
4.94078
4.93634
4.93198
4.92773
4.92356
4.9195
4.9146
338.268
217.674
233.821
242.619
245.699
245.979
245.275
244.375
243.571
242.962
242.629
242.689
243.39
245.022
247.947
252.516
259.054
267.856
279.091
292.733
308.301
324.975
341.757
357.583
371.391
382.181
389.136
391.638
389.345
382.244
370.636
355.126
336.497
315.488
292.753
268.861
246.148
225.04
205.572
187.726
171.453
156.668
143.268
131.138
120.162
110.231
101.245
93.1095
85.7407
79.0615
73.0017
67.4983
62.4942
57.9384
53.785
49.9933
46.527
43.3536
40.4444
37.7739
35.3194
33.0608
30.9801
29.0613
27.2901
25.6539
24.1412
22.7417
21.4463
20.2466
19.1352
18.1053
17.1505
16.2655
15.4448
14.684
13.9786
13.3246
12.7184
12.1566
11.636
11.1537
10.707
10.2933
9.91028
9.55578
9.22772
8.92419
8.64342
8.38373
8.14358
7.92153
7.71623
7.52643
7.35098
7.18878
7.03886
6.90027
6.77218
6.65377
6.54434
6.4432
6.34973
6.26336
6.18357
6.10985
6.04177
5.9789
5.92087
5.8673
5.81787
5.77227
5.73021
5.69143
5.65566
5.62268
5.59227
5.56421
5.53832
5.51441
5.49231
5.47186
5.45291
5.43533
5.41897
5.40372
5.38947
5.37611
5.36355
5.35169
5.34045
5.32977
5.31958
5.3098
5.3004
5.29132
5.28252
5.27396
5.26561
5.25743
5.24942
5.24153
5.23377
5.2261
5.21853
5.21104
5.20363
5.19628
5.189
5.18179
5.17463
5.16754
5.16051
5.15355
5.14665
5.13981
5.13305
5.12636
5.11974
5.1132
5.10674
5.10035
5.09406
5.08784
5.08171
5.07567
5.06972
5.06386
5.0581
5.05242
5.04684
5.04135
5.03595
5.03065
5.02544
5.02033
5.01531
5.01037
5.00554
5.00079
4.99614
4.99157
4.9871
4.98271
4.97841
4.9742
4.97008
4.96605
4.9621
4.95824
4.95447
4.95078
4.94719
4.94368
4.94027
4.93695
4.93373
4.93061
4.92757
4.92354
357.605
212.985
224.544
232.493
235.971
237.351
238.187
238.991
239.8
240.497
240.996
241.337
241.673
242.353
243.815
246.541
251.027
257.75
267.19
279.474
294.104
310.093
326.403
341.965
355.75
366.781
374.202
377.395
375.895
369.572
358.577
343.44
324.881
303.494
280.429
258
236.577
216.4
197.62
180.308
164.466
150.047
136.969
125.134
114.438
104.776
96.0497
88.1666
81.0417
74.5972
68.7627
63.4747
58.676
54.3158
50.3483
46.7332
43.4343
40.4198
37.6611
35.1332
32.8138
30.6831
28.7234
26.9191
25.2564
23.7227
22.3071
20.9994
19.7909
18.6735
17.64
16.6839
15.7991
14.9804
14.2227
13.5217
12.8732
12.2735
11.719
11.2066
10.7332
10.296
9.89265
9.52058
9.17759
8.86159
8.57063
8.30288
8.05662
7.83025
7.62226
7.43126
7.25591
7.095
6.94739
6.812
6.68785
6.57402
6.46966
6.37399
6.28627
6.20585
6.1321
6.06445
6.00241
5.94548
5.89323
5.84527
5.80122
5.76076
5.72358
5.68939
5.65794
5.629
5.60234
5.57776
5.55508
5.53412
5.51474
5.49678
5.48011
5.46461
5.45015
5.43665
5.42399
5.41209
5.40087
5.39026
5.38018
5.37058
5.3614
5.35259
5.3441
5.3359
5.32795
5.32022
5.31269
5.30532
5.29811
5.29103
5.28407
5.27721
5.27046
5.2638
5.25723
5.25074
5.24433
5.238
5.23175
5.22557
5.21948
5.21346
5.20753
5.20167
5.19591
5.19023
5.18465
5.17915
5.17375
5.16843
5.16322
5.15811
5.1531
5.14818
5.14337
5.13865
5.13405
5.12954
5.12514
5.12084
5.11665
5.11255
5.10857
5.10467
5.10089
5.0972
5.09362
5.09013
5.08675
5.08345
5.08026
5.07716
5.07416
5.07125
5.06844
5.06572
5.0631
5.06056
5.05812
5.05577
5.05352
5.05135
5.04929
5.04731
5.04544
5.04367
5.04201
5.04043
5.03895
5.03638
371.253
206.781
213.989
221.293
225.304
227.889
230.321
232.867
235.328
237.385
238.797
239.458
239.514
239.284
239.291
240.141
242.482
247.05
254.507
265.312
278.869
293.972
309.496
324.37
337.614
348.295
355.653
359.142
358.267
352.807
342.672
328.242
309.916
289.287
268.202
247.263
226.954
207.638
189.549
172.811
157.46
143.472
130.782
119.303
108.938
99.5877
91.1564
83.5527
76.6922
70.4979
64.8998
59.835
55.247
51.0853
47.305
43.8663
40.7336
37.8757
35.2647
32.8759
30.6875
28.6802
26.8367
25.1419
23.5821
22.1453
20.8208
19.5988
18.4707
17.4289
16.4663
15.5767
14.7545
13.9945
13.292
12.6428
12.043
11.489
10.9777
10.506
10.0711
9.6704
9.30158
8.96238
8.65072
8.36464
8.10232
7.86203
7.64216
7.4412
7.2577
7.09032
6.93779
6.79892
6.67259
6.55777
6.45346
6.35876
6.27282
6.19485
6.12413
6.05998
6.00178
5.94897
5.90103
5.85748
5.81789
5.78187
5.74906
5.71914
5.69181
5.66682
5.64392
5.6229
5.60356
5.58572
5.56924
5.55396
5.53976
5.52653
5.51415
5.50254
5.49161
5.48128
5.47149
5.46217
5.45328
5.44475
5.43656
5.42866
5.42102
5.41361
5.4064
5.39938
5.39252
5.38581
5.37924
5.37279
5.36646
5.36023
5.35411
5.3481
5.34218
5.33635
5.33063
5.325
5.31947
5.31403
5.3087
5.30347
5.29834
5.29331
5.2884
5.28359
5.27889
5.2743
5.26983
5.26548
5.26124
5.25711
5.25311
5.24923
5.24546
5.24181
5.23829
5.23488
5.23159
5.22842
5.22537
5.22243
5.21961
5.21691
5.21432
5.21184
5.20949
5.20723
5.2051
5.20306
5.20114
5.19932
5.19762
5.19601
5.19452
5.19312
5.19184
5.19064
5.18956
5.18857
5.1877
5.18691
5.18624
5.18566
5.18519
5.18483
5.18457
5.18442
5.1844
5.18447
5.18462
5.18364
379.845
199.707
202.871
209.556
214.105
217.832
221.766
225.974
230.054
233.507
235.93
237.14
237.161
236.344
235.26
234.611
235.163
237.759
243.388
252.708
265.162
279.348
293.992
307.932
320.172
329.915
336.467
339.578
338.834
333.934
324.536
310.715
293.959
275.478
256.054
236.412
217.145
198.689
181.329
165.221
150.424
136.93
124.687
113.616
103.627
94.625
86.5171
79.2143
72.6343
66.7014
61.347
56.5095
52.1336
48.17
44.5748
41.3092
38.3386
35.6324
33.1636
30.9081
28.8448
26.9547
25.2213
23.6296
22.1666
20.8205
19.5808
18.4383
17.3846
16.4123
15.5146
14.6856
13.9199
13.2125
12.559
11.9555
11.3982
10.8839
10.4095
9.97214
9.56934
9.1987
8.85801
8.54523
8.25845
7.99587
7.75582
7.53671
7.33706
7.15544
6.99051
6.84102
6.70575
6.58358
6.47342
6.37427
6.28515
6.20519
6.13352
6.06937
6.012
5.96074
5.91495
5.87406
5.83755
5.80492
5.77574
5.74961
5.72617
5.70509
5.6861
5.66892
5.65333
5.63912
5.62611
5.61415
5.60308
5.5928
5.58319
5.57415
5.56561
5.5575
5.54975
5.54231
5.53514
5.5282
5.52145
5.51488
5.50846
5.50217
5.49599
5.48993
5.48396
5.47807
5.47228
5.46657
5.46095
5.4554
5.44995
5.44457
5.43929
5.4341
5.429
5.424
5.41911
5.41432
5.40964
5.40507
5.40062
5.39629
5.39208
5.38799
5.38404
5.38021
5.37652
5.37296
5.36954
5.36624
5.36309
5.36007
5.35719
5.35444
5.35183
5.34935
5.34702
5.34481
5.34275
5.3408
5.339
5.33732
5.33578
5.33435
5.33307
5.33189
5.33085
5.32992
5.32913
5.32844
5.32789
5.32744
5.32712
5.3269
5.32681
5.32681
5.32695
5.32718
5.32754
5.32799
5.32858
5.32925
5.33006
5.33097
5.332
5.33314
5.33441
5.33578
5.3373
5.33891
5.3406
5.34113
384.061
192.301
191.728
197.807
202.787
207.499
212.757
218.469
224.079
228.93
232.492
234.448
234.804
233.851
232.213
230.65
229.952
231.05
234.978
242.766
254.114
267.526
281.51
294.623
305.724
314.098
319.255
321.215
319.887
314.803
305.856
293.655
278.769
261.903
243.854
225.384
207.127
189.55
172.961
157.536
143.35
130.406
118.661
108.043
98.4672
89.844
82.0834
75.0998
68.8131
63.1503
58.0449
53.4371
49.2734
45.5061
42.0929
38.9961
36.1824
33.6223
31.2895
29.161
27.2162
25.4369
23.8069
22.3121
20.9395
19.678
18.5174
17.4488
16.464
15.5559
14.7181
13.9448
13.2308
12.5715
11.9625
11.4002
10.8811
10.402
9.96007
9.55278
9.17773
8.83272
8.51574
8.22493
7.95856
7.71499
7.49271
7.29029
7.10636
6.93965
6.78892
6.65301
6.5308
6.42123
6.32328
6.23598
6.15841
6.0897
6.02902
5.97559
5.92868
5.88761
5.85173
5.82046
5.79326
5.76963
5.74912
5.73131
5.71583
5.70236
5.6906
5.68027
5.67116
5.66305
5.65578
5.64917
5.64312
5.63749
5.6322
5.62717
5.62233
5.61763
5.61301
5.60846
5.60393
5.59942
5.59491
5.59038
5.58584
5.58127
5.5767
5.5721
5.5675
5.5629
5.55831
5.55373
5.54917
5.54465
5.54018
5.53575
5.5314
5.52711
5.5229
5.51879
5.51477
5.51085
5.50705
5.50336
5.4998
5.49636
5.49306
5.48988
5.48686
5.48396
5.48122
5.47862
5.47617
5.47386
5.4717
5.46969
5.46783
5.46611
5.46455
5.46313
5.46186
5.46073
5.45975
5.45891
5.45822
5.45765
5.45724
5.45695
5.45681
5.45679
5.45692
5.45717
5.45756
5.45806
5.45871
5.45947
5.46036
5.46137
5.46252
5.46377
5.46516
5.46665
5.46828
5.47002
5.47189
5.47387
5.47599
5.47822
5.48058
5.48306
5.48568
5.48841
5.4913
5.49428
5.49736
5.49923
384.528
184.976
181.03
186.455
191.741
197.243
203.602
210.616
217.619
223.821
228.571
231.488
232.455
231.765
230.04
228.082
226.668
226.582
228.984
235.116
245.372
258.318
272.148
284.931
295.141
302.142
305.566
305.695
302.995
297.453
289.112
277.936
264.219
248.543
231.639
214.237
196.957
180.266
164.48
149.782
136.254
123.905
112.7
102.571
93.4401
85.2204
77.8264
71.1761
65.1929
59.8066
54.9535
50.5763
46.6237
43.0501
39.8149
36.8821
34.2197
31.7996
29.5965
27.5884
25.7555
24.0804
22.5475
21.1431
19.855
18.6723
17.5852
16.5851
15.6642
14.8157
14.0333
13.3115
12.6452
12.0302
11.4622
10.9377
10.4534
10.0064
9.59403
9.21379
8.86351
8.54118
8.24496
7.97315
7.72418
7.49659
7.28901
7.10017
6.92884
6.77388
6.6342
6.50872
6.39644
6.29639
6.20762
6.12923
6.06035
6.00014
5.94781
5.90259
5.86376
5.83065
5.80261
5.77904
5.75939
5.74315
5.72984
5.71905
5.71038
5.70348
5.69805
5.6938
5.69051
5.68795
5.68595
5.68434
5.68301
5.68183
5.68073
5.67961
5.67844
5.67716
5.67574
5.67415
5.67239
5.67044
5.66831
5.66599
5.66351
5.66086
5.65806
5.65513
5.65209
5.64894
5.64572
5.64244
5.63912
5.63576
5.63241
5.62906
5.62574
5.62246
5.61923
5.61607
5.61299
5.61
5.60711
5.60432
5.60166
5.59911
5.5967
5.59441
5.59227
5.59026
5.58842
5.5867
5.58516
5.58374
5.5825
5.58139
5.58046
5.57966
5.57903
5.57854
5.57821
5.57802
5.578
5.57811
5.57839
5.57879
5.57936
5.58005
5.5809
5.58188
5.58301
5.58426
5.58568
5.5872
5.58888
5.59067
5.59262
5.59467
5.59687
5.59918
5.60165
5.60422
5.60694
5.60976
5.61274
5.61582
5.61906
5.6224
5.6259
5.62951
5.63328
5.63717
5.64121
5.64536
5.6496
5.65259
381.848
178.113
171.128
175.881
181.321
187.414
194.633
202.719
210.93
218.381
224.321
228.248
230.023
229.833
228.287
226.209
224.348
223.433
224.34
228.78
238.105
251.02
265.292
278.398
288.256
294.018
295.741
293.916
289.606
283.13
274.445
263.466
250.341
235.491
219.521
203.074
186.724
170.915
155.949
142.008
129.172
117.455
106.821
97.2109
88.5475
80.7499
73.7367
67.4299
61.7568
56.6507
52.0511
47.9036
44.1597
40.7761
37.7142
34.9399
32.4229
30.1364
28.0564
26.162
24.4342
22.8566
21.4143
20.0941
18.8843
17.7745
16.7554
15.8187
14.9569
14.1634
13.4322
12.758
12.136
11.5618
11.0318
10.5423
10.0903
9.67292
9.28768
8.93229
8.60469
8.303
8.02553
7.77072
7.53715
7.32352
7.12859
6.95123
6.79037
6.64499
6.51412
6.39683
6.2922
6.19937
6.11749
6.04574
5.9833
5.9294
5.88328
5.84421
5.8115
5.78447
5.7625
5.74497
5.73133
5.72106
5.71367
5.70871
5.70579
5.70452
5.7046
5.70572
5.70763
5.7101
5.71294
5.71599
5.71912
5.72219
5.72513
5.72785
5.73031
5.73246
5.73427
5.73573
5.73683
5.73757
5.73796
5.73801
5.73774
5.73717
5.73632
5.73522
5.7339
5.73238
5.73069
5.72884
5.72689
5.72484
5.72272
5.72055
5.71836
5.71616
5.71398
5.71183
5.70973
5.70768
5.70572
5.70384
5.70206
5.70039
5.69883
5.69739
5.69609
5.69491
5.69388
5.69299
5.69225
5.69164
5.6912
5.69089
5.69075
5.69075
5.69092
5.69123
5.6917
5.69231
5.69309
5.694
5.69508
5.69629
5.69767
5.69917
5.70084
5.70264
5.7046
5.70668
5.70892
5.71128
5.7138
5.71644
5.71924
5.72214
5.72521
5.72839
5.73172
5.73517
5.73877
5.74248
5.74635
5.75033
5.75448
5.75873
5.76315
5.76769
5.77239
5.77721
5.78219
5.78729
5.79248
5.79637
377.555
172.813
162.478
166.397
171.862
178.362
186.208
195.111
204.296
212.822
219.837
224.779
227.38
227.784
226.512
224.372
222.187
220.576
220.306
223.484
232.351
245.688
260.822
274.671
284.666
289.558
289.649
285.896
279.543
271.358
261.583
250.184
237.188
222.845
207.605
191.998
176.523
161.578
147.44
134.275
122.156
111.094
101.056
91.9833
83.8039
76.4408
69.8172
63.8597
58.4996
53.6743
49.327
45.4066
41.8675
38.669
35.7748
33.153
30.7748
28.6151
26.6514
24.8637
23.2343
21.7475
20.3891
19.1468
18.0093
16.9667
16.0102
15.1317
14.3241
13.5812
12.897
12.2666
11.6854
11.1491
10.6541
10.197
9.77486
9.38501
9.02502
8.69272
8.38616
8.10358
7.84341
7.60422
7.38469
7.18365
7
6.83273
6.6809
6.54361
6.42001
6.3093
6.21069
6.1234
6.04668
5.97981
5.92205
5.87269
5.83104
5.79641
5.76813
5.74557
5.7281
5.71513
5.70611
5.70049
5.69779
5.69755
5.69934
5.70279
5.70754
5.71328
5.71975
5.72669
5.7339
5.7412
5.74844
5.75549
5.76227
5.76867
5.77465
5.78017
5.78519
5.78969
5.79368
5.79715
5.80013
5.80262
5.80466
5.80626
5.80747
5.8083
5.80881
5.809
5.80893
5.80862
5.80812
5.80743
5.80662
5.80568
5.80467
5.80358
5.80248
5.80134
5.80023
5.79912
5.79807
5.79706
5.79614
5.79528
5.79453
5.79386
5.79332
5.79288
5.79258
5.79239
5.79236
5.79244
5.79269
5.79305
5.79358
5.79424
5.79507
5.79602
5.79715
5.79839
5.79982
5.80137
5.8031
5.80494
5.80697
5.80911
5.81143
5.81386
5.81647
5.81919
5.82209
5.82509
5.82827
5.83155
5.83502
5.83857
5.84231
5.84614
5.85015
5.85426
5.85854
5.86292
5.86748
5.87214
5.87697
5.88191
5.88703
5.89226
5.89767
5.90319
5.90889
5.91469
5.92059
5.92512
372.289
169.511
155.454
158.329
163.682
170.444
178.725
188.205
198.109
207.466
215.37
221.151
224.516
225.511
224.578
222.462
220.038
218.118
217.415
220.339
229.191
243.017
258.966
273.546
283.799
288.152
286.708
280.732
271.93
261.574
250.234
237.976
224.751
210.65
195.963
181.09
166.435
152.334
139.024
126.645
115.258
104.868
95.4404
86.9174
79.2311
72.3087
66.0783
60.4711
55.4233
50.8765
46.7779
43.0799
39.7401
36.7206
33.9876
31.5113
29.2651
27.2252
25.3706
23.6826
22.1446
20.7417
19.4607
18.2899
17.2186
16.2374
15.3379
14.5125
13.7544
13.0575
12.4163
11.826
11.282
10.7804
10.3176
9.89038
9.49591
9.13157
8.79505
8.48425
8.19733
7.93261
7.6886
7.46397
7.2575
7.06811
6.8948
6.73668
6.59291
6.46272
6.34535
6.24012
6.14635
6.06337
5.99054
5.92721
5.87275
5.82652
5.7879
5.75625
5.73096
5.71143
5.69707
5.68729
5.68156
5.67934
5.68015
5.6835
5.68897
5.69615
5.70469
5.71425
5.72454
5.73529
5.74629
5.75733
5.76824
5.7789
5.78917
5.79899
5.80827
5.81696
5.82504
5.83247
5.83927
5.84541
5.85094
5.85585
5.86019
5.86397
5.86723
5.87001
5.87235
5.87428
5.87585
5.87708
5.87803
5.87872
5.8792
5.87949
5.87964
5.87965
5.87958
5.87943
5.87924
5.87902
5.87882
5.87861
5.87845
5.87833
5.87828
5.87829
5.8784
5.87859
5.8789
5.8793
5.87983
5.88047
5.88125
5.88214
5.88319
5.88435
5.88567
5.88711
5.88872
5.89045
5.89234
5.89436
5.89655
5.89885
5.90133
5.90393
5.9067
5.90958
5.91264
5.91581
5.91916
5.92261
5.92624
5.92997
5.93388
5.93789
5.94208
5.94637
5.95083
5.9554
5.96014
5.96498
5.97
5.97512
5.98042
5.98583
5.99142
5.99712
6.00301
6.009
6.01518
6.02146
6.02784
6.03278
365.845
167.96
150.252
151.903
157.028
163.927
172.484
182.341
192.741
202.71
211.303
217.81
221.846
223.432
222.93
221.02
218.622
216.658
216.115
219.46
228.848
243.443
260.283
275.526
285.802
289.274
285.985
277.523
266.027
253.234
240.042
226.642
212.94
198.89
184.624
170.403
156.525
143.251
130.765
119.178
108.532
98.8217
90.0105
82.0421
74.8513
68.37
62.5312
57.2714
52.5316
48.2581
44.4021
40.92
37.7726
34.9249
32.3459
30.0078
27.8859
25.9585
24.2057
22.6104
21.1568
19.8312
18.6211
17.5154
16.5043
15.5788
14.731
13.9535
13.2401
12.5848
11.9825
11.4283
10.9181
10.4481
10.0147
9.61483
9.24575
8.90494
8.59014
8.29933
8.03073
7.78273
7.55389
7.34294
7.14875
6.9703
6.80668
6.65707
6.52072
6.39695
6.28512
6.18462
6.09489
6.01535
5.94546
5.88467
5.83243
5.7882
5.75142
5.72153
5.69797
5.6802
5.66766
5.6598
5.65611
5.65606
5.65917
5.66496
5.67301
5.68289
5.69424
5.7067
5.71996
5.73374
5.74781
5.76192
5.77592
5.78964
5.80295
5.81573
5.82793
5.83947
5.85031
5.86041
5.86978
5.87841
5.88631
5.89348
5.89998
5.90581
5.91103
5.91565
5.91974
5.92332
5.92644
5.92914
5.93147
5.93346
5.93516
5.93659
5.93781
5.93882
5.9397
5.94043
5.94109
5.94165
5.94218
5.94266
5.94316
5.94364
5.94417
5.94472
5.94536
5.94603
5.9468
5.94764
5.9486
5.94963
5.9508
5.95206
5.95347
5.95496
5.95662
5.95838
5.96031
5.96233
5.96453
5.96683
5.96931
5.97188
5.97465
5.97751
5.98056
5.9837
5.98703
5.99045
5.99407
5.99777
6.00166
6.00564
6.00982
6.01407
6.01852
6.02304
6.02777
6.03257
6.03757
6.04265
6.04793
6.05329
6.05884
6.06449
6.07034
6.07628
6.08242
6.08865
6.09509
6.1016
6.10823
6.11333
358.096
167.932
146.99
147.329
152.122
159.055
167.763
177.841
188.548
198.936
208.057
215.148
219.809
222.002
222.052
220.59
218.543
217.002
217.155
221.552
232.012
247.61
265.229
280.744
290.493
292.482
286.891
275.606
261.194
245.801
230.609
215.922
201.61
187.504
173.583
159.968
146.842
134.384
122.721
111.928
102.024
92.9956
84.8009
77.385
70.686
64.6407
59.1875
54.2681
49.8288
45.8207
42.1993
38.9248
35.9615
33.2776
30.8444
28.6366
26.6315
24.8089
23.1507
21.6409
20.2648
19.0098
17.8642
16.8177
15.8609
14.9855
14.184
13.4495
12.776
12.158
11.5904
11.0687
10.5888
10.1471
9.74025
9.36518
9.0192
8.69989
8.40504
8.13268
7.88108
7.64866
7.43404
7.23597
7.05338
6.88529
6.73084
6.58928
6.45992
6.34215
6.23541
6.13917
6.05294
5.97626
5.90865
5.84967
5.79886
5.75574
5.71985
5.69071
5.66782
5.65068
5.63881
5.63169
5.62884
5.62977
5.63399
5.64106
5.65055
5.66202
5.67511
5.68945
5.70472
5.72062
5.73688
5.75328
5.76961
5.78569
5.80138
5.81655
5.83112
5.845
5.85815
5.87051
5.88207
5.89282
5.90277
5.91193
5.92031
5.92795
5.93489
5.94114
5.94678
5.95181
5.95632
5.96031
5.96385
5.96697
5.96973
5.97215
5.9743
5.97617
5.97784
5.97932
5.98065
5.98184
5.98296
5.98398
5.98498
5.98592
5.98688
5.98782
5.98881
5.98981
5.99089
5.992
5.99322
5.99449
5.99588
5.99733
5.99892
6.00059
6.00241
6.00431
6.00638
6.00853
6.01084
6.01325
6.01584
6.01851
6.02137
6.02431
6.02745
6.03066
6.03407
6.03756
6.04124
6.04501
6.04896
6.053
6.05723
6.06154
6.06603
6.07061
6.07538
6.08023
6.08528
6.0904
6.09572
6.10113
6.10673
6.11242
6.11831
6.12429
6.13046
6.13673
6.1432
6.14975
6.1564
6.16146
348.95
169.19
145.747
144.788
149.189
156.081
164.851
175.034
185.906
196.557
206.054
213.644
218.882
221.725
222.473
221.735
220.452
219.8
221.21
227.271
239.264
255.994
274.121
289.299
297.72
297.45
288.903
274.37
256.822
238.741
221.518
205.526
190.583
176.402
162.812
149.795
137.42
125.779
114.941
104.94
95.7766
87.4247
79.8399
72.9683
66.752
61.1329
56.055
51.4657
47.3167
43.5638
40.1671
37.0908
34.3025
31.7734
29.4775
27.3919
25.4957
23.7704
22.1995
20.7682
19.4631
18.2723
17.185
16.1917
15.2837
14.453
13.6928
12.9965
12.3585
11.7734
11.2365
10.7436
10.2906
9.87415
9.49092
9.13803
8.81283
8.51294
8.23621
7.98072
7.74475
7.52675
7.32537
7.13938
6.96771
6.80944
6.66372
6.52985
6.40716
6.29511
6.19318
6.10091
6.01788
5.94369
5.87795
5.82029
5.77034
5.7277
5.69198
5.66277
5.63967
5.62223
5.61002
5.60259
5.59948
5.60025
5.60445
5.61163
5.6214
5.63332
5.64702
5.66214
5.67835
5.69533
5.71282
5.73054
5.74831
5.7659
5.78318
5.79998
5.81622
5.83178
5.84662
5.86065
5.87388
5.88625
5.89779
5.90848
5.91836
5.92742
5.93573
5.94328
5.95016
5.95635
5.96196
5.96698
5.97149
5.9755
5.97911
5.98229
5.98515
5.98768
5.98995
5.99197
5.9938
5.99544
5.99697
5.99835
5.99967
6.00089
6.00211
6.00326
6.00445
6.00561
6.00684
6.00806
6.00938
6.01071
6.01216
6.01365
6.01527
6.01694
6.01877
6.02065
6.0227
6.0248
6.02709
6.02943
6.03197
6.03457
6.03736
6.04022
6.04328
6.0464
6.04972
6.05311
6.0567
6.06035
6.0642
6.06812
6.07224
6.07642
6.0808
6.08524
6.08989
6.0946
6.09952
6.10449
6.10968
6.11493
6.12039
6.12592
6.13167
6.13748
6.14351
6.1496
6.15591
6.16228
6.16876
6.17357
338.335
171.492
146.55
144.46
148.471
155.29
164.077
174.296
185.24
196.043
205.82
213.829
219.645
223.211
224.827
225.103
224.982
225.734
228.942
237.187
251.02
268.844
287.035
301.079
307.196
303.697
291.446
273.198
252.317
231.541
212.368
195.171
179.685
165.493
152.281
139.894
128.291
117.477
107.466
98.2551
89.8247
82.1388
75.1513
68.8104
63.0628
57.8558
53.1395
48.8671
44.9957
41.4862
38.303
35.4142
32.7909
30.4072
28.2398
26.2679
24.4726
22.8373
21.3466
19.987
18.7464
17.6137
16.579
15.6334
14.7688
13.9779
13.2541
12.5915
11.9845
11.4284
10.9184
10.4506
10.0213
9.62696
9.26454
8.93123
8.62444
8.34187
8.08139
7.84111
7.61934
7.41454
7.22535
7.05057
6.88914
6.74012
6.6027
6.47617
6.3599
6.25337
6.15608
6.06764
5.98765
5.91577
5.85169
5.79509
5.74565
5.70308
5.66704
5.6372
5.61323
5.59474
5.58138
5.57274
5.56843
5.56804
5.57117
5.57739
5.58633
5.59759
5.61079
5.62557
5.64162
5.6586
5.67624
5.69427
5.71248