/*--------------------------------*- C++ -*----------------------------------*\
  =========                 |
  \\      /  F ield         | OpenFOAM: The Open Source CFD Toolbox
   \\    /   O peration     | Website:  https://openfoam.org
    \\  /    A nd           | Version:  7
     \\/     M anipulation  |
\*---------------------------------------------------------------------------*/
FoamFile
{
    version     2.0;
    format      ascii;
    class       volScalarField;
    location    "50";
    object      k;
}
// * * * * * * * * * * * * * * * * * * * * * * * * * * * * * * * * * * * * * //

dimensions      [0 2 -2 0 0 0 0];

internalField   nonuniform List<scalar> 
16900
(
0.250001
0.380956
0.482808
0.56947
0.645839
0.71425
0.775894
0.831721
0.882287
0.928167
0.969671
1.00722
1.04104
1.07141
1.09857
1.12272
1.1441
1.16294
1.17946
1.19405
1.206
1.21359
1.21641
1.21404
1.20625
1.19286
1.17394
1.14972
1.12062
1.08722
1.0502
1.01026
0.968145
0.924544
0.880109
0.835448
0.791124
0.747653
0.705472
0.664985
0.626623
0.591165
0.558778
0.533598
0.513898
0.496347
0.480461
0.466025
0.452879
0.440898
0.429975
0.42002
0.410954
0.402705
0.395211
0.388416
0.382269
0.376723
0.371738
0.367275
0.363301
0.359784
0.356695
0.354008
0.3517
0.349748
0.348133
0.346836
0.345841
0.34513
0.344691
0.344509
0.344572
0.344867
0.345384
0.346111
0.347039
0.348156
0.349453
0.350921
0.352549
0.354327
0.356247
0.358297
0.360468
0.362748
0.365127
0.367595
0.370138
0.372746
0.375408
0.378109
0.38084
0.383587
0.386338
0.389082
0.391806
0.3945
0.397152
0.399753
0.402293
0.404762
0.407155
0.409462
0.411678
0.413799
0.415819
0.417736
0.419547
0.421251
0.422848
0.424337
0.42572
0.426999
0.428176
0.429254
0.430236
0.431126
0.431927
0.432645
0.433281
0.433841
0.434324
0.434735
0.43508
0.435368
0.435602
0.435789
0.435934
0.43604
0.436111
0.436152
0.436165
0.436153
0.436119
0.436066
0.435995
0.435909
0.435809
0.435698
0.435575
0.435445
0.435306
0.43516
0.435009
0.434854
0.434694
0.434532
0.434368
0.434202
0.434034
0.433867
0.433698
0.433531
0.433364
0.433198
0.433032
0.432869
0.432707
0.432547
0.432389
0.432233
0.432079
0.431928
0.431778
0.431632
0.431488
0.431346
0.431207
0.431071
0.430937
0.430806
0.430677
0.430551
0.430427
0.430307
0.430188
0.430072
0.429958
0.429847
0.429737
0.429631
0.429526
0.429424
0.429324
0.429226
0.42913
0.429036
0.428944
0.428854
0.428766
0.42868
0.428596
0.428514
0.428434
0.428356
0.428281
0.428209
0.42814
0.428056
0.331213
0.558649
0.683538
0.771676
0.844759
0.90877
0.966786
1.02065
1.07168
1.12079
1.16878
1.21636
1.26413
1.31275
1.36269
1.41441
1.46807
1.52362
1.58069
1.63844
1.69506
1.74911
1.7986
1.84138
1.87545
1.89913
1.91122
1.91115
1.89898
1.87539
1.84149
1.79872
1.74863
1.69274
1.6324
1.56883
1.50312
1.43631
1.36934
1.30281
1.23561
1.16691
1.10395
1.0479
0.996351
0.948303
0.903405
0.861492
0.8224
0.785973
0.75203
0.720403
0.690916
0.663409
0.637724
0.613721
0.591263
0.570229
0.550505
0.531989
0.514585
0.498209
0.482781
0.46823
0.45449
0.441503
0.429213
0.417572
0.406534
0.396057
0.386104
0.37664
0.367633
0.359054
0.350876
0.343075
0.335627
0.328512
0.321711
0.315206
0.30898
0.303021
0.297312
0.291843
0.286601
0.281575
0.276757
0.272138
0.267709
0.263463
0.259394
0.255494
0.25176
0.248186
0.244767
0.241499
0.238378
0.235401
0.232564
0.229865
0.2273
0.224867
0.222562
0.220383
0.218327
0.216392
0.214575
0.212872
0.21128
0.209797
0.20842
0.207144
0.205967
0.204884
0.203893
0.202989
0.202169
0.201428
0.200763
0.20017
0.199644
0.199183
0.198784
0.198444
0.198157
0.197919
0.197724
0.197569
0.197451
0.197366
0.197313
0.197289
0.197292
0.197319
0.197369
0.197441
0.197532
0.197642
0.19777
0.197912
0.198069
0.19824
0.198424
0.198622
0.198831
0.199052
0.199285
0.199529
0.199783
0.200047
0.200321
0.200604
0.200896
0.201197
0.201507
0.201824
0.20215
0.202483
0.202823
0.203171
0.203526
0.203887
0.204255
0.204629
0.205009
0.205395
0.205787
0.206184
0.206587
0.206994
0.207407
0.207825
0.208247
0.208674
0.209105
0.209541
0.209981
0.210424
0.210872
0.211324
0.211779
0.212238
0.2127
0.213166
0.213636
0.214108
0.214584
0.215064
0.215546
0.216031
0.21652
0.217012
0.217506
0.218003
0.218503
0.219005
0.219509
0.220012
0.220508
0.221003
0.401342
0.704264
0.859713
0.965358
1.05095
1.12392
1.18773
1.24477
1.29669
1.34497
1.39092
1.43589
1.48122
1.52816
1.57789
1.63126
1.68879
1.7505
1.81578
1.88334
1.9517
2.01907
2.08264
2.13941
2.1865
2.22149
2.24257
2.24872
2.23974
2.21621
2.17936
2.13086
2.07257
2.00641
1.93414
1.85736
1.7774
1.69521
1.61112
1.52341
1.43352
1.35179
1.27818
1.21125
1.14936
1.09162
1.03762
0.987121
0.939922
0.895838
0.854676
0.816239
0.780332
0.746766
0.715362
0.685951
0.658377
0.632495
0.608171
0.585285
0.563725
0.543389
0.524187
0.506034
0.488854
0.472577
0.457141
0.442488
0.428564
0.415323
0.40272
0.390714
0.379269
0.36835
0.357926
0.347968
0.338449
0.329344
0.32063
0.312287
0.304293
0.296631
0.289283
0.282234
0.275468
0.268972
0.262734
0.256741
0.250982
0.245447
0.240126
0.235011
0.230093
0.225366
0.220821
0.216453
0.212255
0.208222
0.204349
0.20063
0.197062
0.193639
0.190359
0.187217
0.184209
0.181332
0.178582
0.175956
0.173451
0.171063
0.16879
0.166627
0.164572
0.162621
0.160772
0.15902
0.157363
0.155797
0.154319
0.152925
0.151613
0.150379
0.14922
0.148133
0.147114
0.146161
0.14527
0.144438
0.143662
0.142939
0.142265
0.141639
0.141057
0.140518
0.140018
0.139555
0.139128
0.138733
0.13837
0.138037
0.137732
0.137452
0.137197
0.136965
0.136754
0.136563
0.13639
0.136235
0.136097
0.135975
0.135868
0.135775
0.135695
0.135627
0.135572
0.135528
0.135495
0.135472
0.135459
0.135455
0.13546
0.135473
0.135494
0.135522
0.135558
0.1356
0.135649
0.135704
0.135765
0.135832
0.135904
0.135981
0.136063
0.136149
0.136241
0.136336
0.136436
0.13654
0.136648
0.13676
0.136875
0.136994
0.137116
0.137243
0.137372
0.137505
0.137641
0.13778
0.137922
0.138068
0.138217
0.138368
0.138523
0.13868
0.138841
0.139003
0.139168
0.139334
0.1395
0.139669
0.460345
0.811
0.991885
1.11276
1.20831
1.28671
1.35216
1.40746
1.45492
1.49658
1.53446
1.57062
1.60699
1.64553
1.68787
1.73526
1.78842
1.84745
1.91188
1.98021
2.05108
2.12235
2.19082
2.25306
2.30582
2.34625
2.37216
2.38217
2.37574
2.35319
2.31558
2.26449
2.20182
2.12962
2.0499
1.96445
1.8747
1.78118
1.68271
1.58321
1.49111
1.40682
1.32952
1.25821
1.19199
1.13026
1.07262
1.01881
0.968563
0.921667
0.877895
0.837028
0.798852
0.763163
0.729769
0.698491
0.669162
0.641629
0.615753
0.591405
0.568468
0.546839
0.52642
0.507124
0.488873
0.471594
0.455223
0.4397
0.424971
0.410986
0.3977
0.38507
0.37306
0.361632
0.350754
0.340396
0.33053
0.321127
0.312166
0.30362
0.29547
0.287695
0.280276
0.273194
0.266433
0.259977
0.25381
0.24792
0.242292
0.236914
0.231774
0.226862
0.222168
0.21768
0.213392
0.209293
0.205377
0.201636
0.198062
0.19465
0.191393
0.188285
0.18532
0.182494
0.179801
0.177236
0.174795
0.172473
0.170265
0.168168
0.166177
0.164288
0.162497
0.1608
0.159194
0.157673
0.156235
0.154876
0.153592
0.152379
0.151235
0.150155
0.149136
0.148175
0.14727
0.146416
0.145611
0.144853
0.144137
0.143463
0.142827
0.142226
0.14166
0.141124
0.140619
0.14014
0.139688
0.13926
0.138854
0.13847
0.138105
0.137759
0.13743
0.137117
0.13682
0.136537
0.136267
0.136009
0.135763
0.135529
0.135305
0.13509
0.134885
0.134689
0.134501
0.13432
0.134148
0.133982
0.133823
0.13367
0.133523
0.133382
0.133247
0.133116
0.132991
0.13287
0.132754
0.132642
0.132534
0.13243
0.13233
0.132233
0.13214
0.13205
0.131963
0.131878
0.131797
0.131719
0.131643
0.13157
0.1315
0.131432
0.131366
0.131303
0.131242
0.131183
0.131127
0.131072
0.13102
0.13097
0.130922
0.130876
0.130833
0.130791
0.130751
0.130714
0.130679
0.130645
0.130614
0.130577
0.508673
0.885857
1.08527
1.21725
1.31897
1.39977
1.46447
1.51635
1.55811
1.59225
1.62124
1.64753
1.67368
1.70199
1.73454
1.77292
1.81808
1.87044
1.92956
1.99418
2.06286
2.13331
2.20217
2.26586
2.32098
2.36448
2.39389
2.40743
2.40412
2.38382
2.34718
2.29554
2.2307
2.15478
2.06993
1.97798
1.88015
1.77579
1.67139
1.57368
1.48295
1.3989
1.32101
1.24869
1.1814
1.11869
1.06022
1.00571
0.954892
0.907516
0.863341
0.822133
0.783668
0.747736
0.714139
0.682691
0.653224
0.625581
0.599621
0.575213
0.552242
0.5306
0.510191
0.490928
0.472733
0.455533
0.439265
0.42387
0.409292
0.395485
0.382402
0.370001
0.358246
0.3471
0.336531
0.326507
0.317001
0.307984
0.299432
0.29132
0.283626
0.276328
0.269405
0.262839
0.25661
0.250702
0.245096
0.239779
0.234734
0.229947
0.225406
0.221097
0.217008
0.213128
0.209447
0.205954
0.20264
0.199497
0.196515
0.193688
0.191008
0.188468
0.186061
0.183781
0.181623
0.179581
0.177649
0.175823
0.174097
0.172467
0.170927
0.169475
0.168105
0.166813
0.165595
0.164448
0.163367
0.162349
0.16139
0.160487
0.159636
0.158834
0.158079
0.157367
0.156695
0.156061
0.155462
0.154896
0.15436
0.153852
0.153371
0.152914
0.15248
0.152066
0.151672
0.151296
0.150937
0.150593
0.150263
0.149947
0.149644
0.149352
0.149071
0.1488
0.148538
0.148285
0.148041
0.147805
0.147576
0.147354
0.147139
0.14693
0.146727
0.14653
0.146338
0.146152
0.14597
0.145794
0.145621
0.145454
0.14529
0.145131
0.144975
0.144823
0.144674
0.144529
0.144388
0.144249
0.144114
0.143981
0.143852
0.143725
0.143601
0.143479
0.14336
0.143243
0.143128
0.143016
0.142906
0.142798
0.142692
0.142588
0.142486
0.142385
0.142287
0.142191
0.142096
0.142004
0.141913
0.141823
0.141736
0.14165
0.141567
0.141485
0.141404
0.141326
0.14125
0.141176
0.141105
0.141019
0.547071
0.934594
1.14583
1.28471
1.38988
1.47154
1.53512
1.58414
1.62137
1.64938
1.67073
1.68815
1.70428
1.72186
1.74332
1.77059
1.80509
1.84757
1.89823
1.95603
2.01946
2.08606
2.15238
2.21493
2.27038
2.31573
2.34836
2.36615
2.36752
2.35162
2.31845
2.26889
2.20455
2.12742
2.03964
1.94276
1.83754
1.73209
1.63178
1.53716
1.44843
1.36551
1.28819
1.21615
1.14904
1.08654
1.02835
0.974178
0.923764
0.876842
0.833159
0.792472
0.754551
0.719178
0.68615
0.65528
0.626393
0.599334
0.573956
0.550131
0.52774
0.506676
0.486844
0.468155
0.450533
0.433906
0.418211
0.403389
0.389387
0.376159
0.363659
0.351848
0.340687
0.330143
0.320184
0.310778
0.301898
0.293517
0.285608
0.278149
0.271116
0.264486
0.258239
0.252354
0.246812
0.241593
0.23668
0.232056
0.227704
0.223609
0.219756
0.21613
0.212718
0.209508
0.206487
0.203645
0.20097
0.198452
0.196083
0.193854
0.191756
0.189783
0.187926
0.186179
0.184536
0.182992
0.18154
0.180175
0.178892
0.177688
0.176556
0.175493
0.174495
0.173558
0.172678
0.171852
0.171076
0.170347
0.169662
0.169018
0.168412
0.167842
0.167304
0.166797
0.166317
0.165864
0.165435
0.165028
0.164641
0.164273
0.163922
0.163587
0.163266
0.162959
0.162664
0.162381
0.162109
0.161846
0.161592
0.161346
0.161109
0.160879
0.160655
0.160438
0.160228
0.160023
0.159824
0.15963
0.159441
0.159257
0.159078
0.158903
0.158732
0.158566
0.158404
0.158245
0.158091
0.15794
0.157793
0.157649
0.157509
0.157372
0.157238
0.157108
0.15698
0.156855
0.156734
0.156615
0.156498
0.156385
0.156274
0.156165
0.156059
0.155955
0.155854
0.155754
0.155657
0.155562
0.15547
0.155379
0.15529
0.155203
0.155118
0.155035
0.154954
0.154875
0.154797
0.154721
0.154647
0.154575
0.154505
0.154436
0.15437
0.154305
0.154242
0.154181
0.154122
0.154066
0.154012
0.153936
0.57665
0.961889
1.17903
1.32167
1.42846
1.51052
1.57367
1.62133
1.65605
1.68013
1.69595
1.706
1.71318
1.72027
1.7301
1.74509
1.76721
1.79798
1.83814
1.88738
1.94383
2.00448
2.06581
2.12458
2.17793
2.22322
2.25811
2.28027
2.28752
2.27814
2.25115
2.20668
2.14587
2.07019
1.98135
1.88127
1.77966
1.68023
1.58438
1.49292
1.40637
1.32494
1.24867
1.17743
1.11101
1.04917
0.991657
0.938193
0.888515
0.842356
0.79946
0.759577
0.722472
0.687922
0.655722
0.625679
0.597618
0.571379
0.546816
0.523795
0.502199
0.481918
0.462857
0.444927
0.428051
0.412157
0.397183
0.383072
0.36977
0.357232
0.345414
0.334277
0.323785
0.313905
0.304606
0.295858
0.287633
0.279907
0.272654
0.265851
0.259474
0.253502
0.247913
0.242687
0.237804
0.233244
0.228989
0.225021
0.221321
0.217875
0.214664
0.211674
0.20889
0.206298
0.203885
0.201639
0.199547
0.197598
0.195784
0.194093
0.192517
0.191048
0.189678
0.188401
0.187209
0.186097
0.185058
0.184089
0.183184
0.182338
0.181547
0.180808
0.180117
0.179471
0.178865
0.178298
0.177766
0.177266
0.176797
0.176356
0.17594
0.175548
0.175177
0.174827
0.174494
0.174178
0.173877
0.173591
0.173317
0.173054
0.172802
0.17256
0.172327
0.172103
0.171886
0.171676
0.171472
0.171275
0.171083
0.170897
0.170716
0.17054
0.170369
0.170203
0.17004
0.169882
0.169728
0.169578
0.169432
0.16929
0.169152
0.169017
0.168886
0.168759
0.168635
0.168514
0.168397
0.168284
0.168173
0.168066
0.167962
0.167862
0.167764
0.167669
0.167577
0.167489
0.167403
0.167319
0.167239
0.167161
0.167085
0.167012
0.166942
0.166874
0.166809
0.166745
0.166684
0.166625
0.166569
0.166514
0.166462
0.166412
0.166363
0.166317
0.166273
0.166231
0.16619
0.166152
0.166115
0.166081
0.166048
0.166018
0.165989
0.165963
0.165939
0.165916
0.165897
0.165879
0.165864
0.165823
0.598446
0.971929
1.19036
1.33419
1.44158
1.52408
1.58778
1.6358
1.67021
1.69276
1.70539
1.71041
1.71033
1.70822
1.70719
1.7102
1.7199
1.73851
1.76794
1.80835
1.85726
1.91052
1.96447
2.01625
2.06386
2.10565
2.13994
2.16485
2.17776
2.17606
2.15738
2.1207
2.06606
1.99368
1.90702
1.81515
1.72141
1.62798
1.53655
1.44833
1.36416
1.2845
1.2096
1.13946
1.07401
1.01306
0.956404
0.903787
0.854955
0.809649
0.76761
0.728591
0.692353
0.658674
0.627343
0.598168
0.570971
0.545588
0.521872
0.499688
0.478915
0.459444
0.441176
0.424023
0.407907
0.392755
0.378504
0.365097
0.352483
0.340615
0.329451
0.318952
0.309085
0.299817
0.291118
0.28296
0.275318
0.268167
0.261483
0.255245
0.249429
0.244015
0.238983
0.234313
0.229984
0.225977
0.222274
0.218856
0.215705
0.212803
0.210134
0.207681
0.205429
0.203361
0.201464
0.199725
0.19813
0.196667
0.195325
0.194094
0.192963
0.191925
0.19097
0.190092
0.189283
0.188537
0.187848
0.187211
0.186622
0.186077
0.18557
0.185099
0.184661
0.184252
0.18387
0.183512
0.183177
0.182862
0.182565
0.182284
0.182019
0.181767
0.181527
0.181299
0.18108
0.180871
0.180669
0.180476
0.180289
0.180108
0.179934
0.179764
0.1796
0.17944
0.179284
0.179133
0.178985
0.178842
0.178702
0.178566
0.178433
0.178304
0.178178
0.178056
0.177938
0.177823
0.177711
0.177603
0.177498
0.177397
0.1773
0.177205
0.177115
0.177027
0.176944
0.176863
0.176786
0.176713
0.176642
0.176575
0.176512
0.176451
0.176394
0.176339
0.176288
0.17624
0.176195
0.176152
0.176113
0.176076
0.176042
0.176011
0.175982
0.175956
0.175933
0.175912
0.175893
0.175877
0.175863
0.175851
0.175842
0.175835
0.175831
0.175828
0.175828
0.17583
0.175834
0.17584
0.175848
0.175859
0.175872
0.175886
0.175904
0.175923
0.175945
0.175969
0.175996
0.176025
0.176057
0.17606
0.613545
0.968621
1.18469
1.32804
1.43524
1.51836
1.58351
1.63341
1.6695
1.69289
1.70497
1.70747
1.70289
1.69417
1.68476
1.67812
1.67745
1.68597
1.70606
1.73886
1.78071
1.82586
1.87023
1.91148
1.94876
1.98186
2.01072
2.03453
2.05082
2.05624
2.04656
2.01914
1.97161
1.90714
1.83228
1.7504
1.66444
1.57696
1.49005
1.40527
1.32373
1.24614
1.17287
1.1041
1.03983
0.979947
0.924274
0.872597
0.824676
0.780261
0.739101
0.700951
0.665576
0.632752
0.602272
0.573941
0.547579
0.523024
0.500125
0.478747
0.458766
0.440071
0.422563
0.406152
0.390758
0.376308
0.362737
0.34999
0.338012
0.32676
0.316189
0.306265
0.296951
0.288218
0.280037
0.272381
0.265227
0.258551
0.252332
0.246548
0.241181
0.236209
0.231615
0.227378
0.223481
0.219904
0.21663
0.213641
0.210918
0.208444
0.206201
0.204173
0.202343
0.200695
0.199213
0.197884
0.196693
0.195626
0.194673
0.193821
0.193059
0.192379
0.19177
0.191225
0.190737
0.190298
0.189903
0.189546
0.189223
0.188929
0.188661
0.188415
0.188189
0.187979
0.187784
0.187601
0.187429
0.187266
0.187111
0.186964
0.186822
0.186685
0.186552
0.186424
0.186298
0.186176
0.186056
0.185938
0.185823
0.185709
0.185598
0.185488
0.18538
0.185274
0.18517
0.185068
0.184968
0.184871
0.184775
0.184682
0.184592
0.184505
0.18442
0.184338
0.184259
0.184184
0.184111
0.184042
0.183976
0.183913
0.183854
0.183799
0.183747
0.183698
0.183653
0.183612
0.183574
0.183539
0.183509
0.183481
0.183457
0.183436
0.183419
0.183405
0.183394
0.183386
0.183382
0.18338
0.183382
0.183386
0.183394
0.183404
0.183417
0.183433
0.183452
0.183474
0.183498
0.183524
0.183554
0.183586
0.18362
0.183657
0.183696
0.183738
0.183782
0.183829
0.183878
0.183929
0.183983
0.184039
0.184098
0.184159
0.184223
0.184289
0.184358
0.184429
0.184504
0.184581
0.184659
0.184709
0.622887
0.95534
1.16659
1.30806
1.41463
1.4985
1.56576
1.61873
1.65816
1.68448
1.6984
1.70139
1.69546
1.68372
1.66987
1.65779
1.6511
1.65316
1.66723
1.69441
1.73016
1.76716
1.80062
1.82843
1.85085
1.86976
1.88711
1.90435
1.91984
1.92974
1.92769
1.90891
1.87279
1.82204
1.75902
1.68676
1.60844
1.52696
1.44474
1.36364
1.285
1.20972
1.13836
1.07118
1.00828
0.94962
0.895059
0.844415
0.797468
0.753985
0.713724
0.676448
0.641928
0.609943
0.580287
0.552767
0.527206
0.50344
0.481318
0.460704
0.441473
0.423514
0.406724
0.391013
0.376299
0.362509
0.349576
0.337443
0.326058
0.315373
0.305346
0.295941
0.287124
0.278864
0.271135
0.263911
0.25717
0.250889
0.245049
0.239632
0.234618
0.229991
0.225732
0.221825
0.218252
0.214997
0.212043
0.209372
0.206967
0.204812
0.202888
0.20118
0.19967
0.198342
0.19718
0.196169
0.195295
0.194542
0.193898
0.19335
0.192887
0.192497
0.192172
0.191903
0.19168
0.191498
0.191349
0.191227
0.191129
0.191048
0.190983
0.190928
0.190882
0.190843
0.190807
0.190774
0.190743
0.190711
0.190679
0.190645
0.190609
0.190572
0.190532
0.190489
0.190444
0.190397
0.190347
0.190296
0.190242
0.190187
0.190131
0.190073
0.190015
0.189957
0.189898
0.18984
0.189783
0.189726
0.189671
0.189617
0.189565
0.189515
0.189468
0.189423
0.18938
0.189341
0.189304
0.189271
0.189241
0.189214
0.189191
0.189171
0.189155
0.189142
0.189133
0.189128
0.189126
0.189128
0.189134
0.189143
0.189156
0.189172
0.189193
0.189216
0.189243
0.189273
0.189306
0.189343
0.189383
0.189426
0.189472
0.189521
0.189574
0.189629
0.189688
0.189749
0.189813
0.18988
0.18995
0.190022
0.190097
0.190175
0.190256
0.190339
0.190425
0.190513
0.190605
0.190698
0.190795
0.190894
0.190995
0.1911
0.191207
0.191317
0.19143
0.191545
0.191664
0.191786
0.191909
0.192003
0.627369
0.935057
1.13985
1.27866
1.3842
1.46885
1.53863
1.59545
1.63942
1.67028
1.68823
1.69416
1.6901
1.67903
1.66504
1.65236
1.64464
1.6452
1.65657
1.67995
1.71054
1.74011
1.76285
1.7762
1.78114
1.78151
1.78226
1.78726
1.79688
1.80661
1.80979
1.80109
1.77777
1.73926
1.68704
1.6239
1.55304
1.47759
1.40019
1.32295
1.24743
1.1747
1.10545
1.04006
0.978712
0.921415
0.868084
0.818564
0.772661
0.730157
0.690824
0.654436
0.620769
0.589611
0.56076
0.534026
0.509234
0.486222
0.464839
0.44495
0.426431
0.409167
0.393058
0.37801
0.36394
0.350775
0.338447
0.326896
0.316069
0.305918
0.296402
0.287482
0.279125
0.271301
0.263983
0.257147
0.25077
0.244834
0.239318
0.234207
0.229483
0.225131
0.221136
0.217482
0.214155
0.211139
0.20842
0.20598
0.203806
0.20188
0.200187
0.198711
0.197434
0.196342
0.195417
0.194645
0.194009
0.193496
0.193091
0.192781
0.192554
0.192397
0.192301
0.192255
0.192251
0.192281
0.192337
0.192414
0.192505
0.192607
0.192715
0.192826
0.192936
0.193045
0.193149
0.193248
0.19334
0.193424
0.1935
0.193568
0.193628
0.193679
0.193723
0.193758
0.193786
0.193807
0.193821
0.193829
0.193832
0.193831
0.193825
0.193816
0.193804
0.193789
0.193773
0.193755
0.193737
0.193718
0.1937
0.193682
0.193666
0.193651
0.193637
0.193626
0.193617
0.19361
0.193607
0.193606
0.193609
0.193615
0.193624
0.193637
0.193653
0.193673
0.193696
0.193724
0.193755
0.193789
0.193828
0.19387
0.193916
0.193965
0.194018
0.194075
0.194135
0.194199
0.194266
0.194337
0.194411
0.194488
0.194569
0.194653
0.19474
0.19483
0.194924
0.19502
0.195119
0.195222
0.195327
0.195436
0.195547
0.195661
0.195778
0.195898
0.196021
0.196146
0.196275
0.196406
0.19654
0.196677
0.196817
0.196959
0.197105
0.197254
0.197406
0.197561
0.197719
0.19788
0.198043
0.198176
0.627719
0.910201
1.10783
1.24346
1.34778
1.43318
1.50562
1.56666
1.6159
1.65238
1.67575
1.68665
1.68671
1.6791
1.66815
1.65847
1.65371
1.65617
1.66781
1.68847
1.71475
1.73843
1.75242
1.75289
1.74057
1.72108
1.70244
1.69093
1.69005
1.69596
1.70213
1.70105
1.68749
1.65918
1.61657
1.56189
1.49821
1.42868
1.35614
1.28287
1.21062
1.1406
1.07363
1.01019
0.95054
0.894738
0.842744
0.794436
0.749643
0.708167
0.669795
0.634312
0.601505
0.571169
0.543108
0.517138
0.493088
0.470798
0.450121
0.430922
0.413077
0.396473
0.381008
0.366589
0.353132
0.340561
0.328808
0.317813
0.30752
0.297881
0.288853
0.280397
0.272479
0.265069
0.25814
0.251668
0.245631
0.24001
0.234789
0.22995
0.225479
0.221362
0.217586
0.214137
0.211003
0.20817
0.205626
0.203356
0.201348
0.199586
0.198056
0.196742
0.19563
0.194704
0.193949
0.193348
0.192888
0.192551
0.192326
0.192196
0.192151
0.192176
0.19226
0.192394
0.192567
0.19277
0.192996
0.193239
0.193491
0.193748
0.194005
0.194259
0.194506
0.194745
0.194973
0.195189
0.195392
0.195581
0.195756
0.195917
0.196064
0.196197
0.196318
0.196425
0.196521
0.196606
0.19668
0.196745
0.196802
0.196851
0.196893
0.196929
0.19696
0.196987
0.197011
0.197031
0.19705
0.197067
0.197084
0.197099
0.197116
0.197133
0.197151
0.197171
0.197192
0.197216
0.197242
0.197271
0.197303
0.197338
0.197376
0.197417
0.197462
0.197511
0.197563
0.197619
0.197678
0.197741
0.197808
0.197879
0.197953
0.198031
0.198113
0.198198
0.198287
0.198379
0.198475
0.198575
0.198678
0.198784
0.198894
0.199007
0.199124
0.199244
0.199367
0.199493
0.199623
0.199755
0.199891
0.200029
0.200171
0.200316
0.200464
0.200615
0.200769
0.200925
0.201085
0.201248
0.201414
0.201582
0.201755
0.201929
0.202108
0.202289
0.202474
0.202661
0.202853
0.203047
0.203243
0.203409
0.624623
0.882814
1.07319
1.20562
1.3086
1.39468
1.46969
1.53498
1.58968
1.63228
1.66188
1.67863
1.68415
1.68134
1.67472
1.66925
1.66864
1.67474
1.68739
1.70593
1.72916
1.74938
1.7578
1.74884
1.72232
1.68403
1.64656
1.61789
1.60371
1.60231
1.60704
1.60948
1.60263
1.58247
1.54815
1.50114
1.44418
1.38035
1.31258
1.24329
1.17437
1.10716
1.0426
0.981236
0.923395
0.869195
0.818632
0.771613
0.727993
0.687592
0.650213
0.615655
0.583716
0.554199
0.526917
0.501693
0.47836
0.456763
0.436758
0.418213
0.401006
0.385025
0.370169
0.356344
0.343466
0.331459
0.320253
0.309787
0.300006
0.290858
0.2823
0.274292
0.2668
0.259791
0.253238
0.247118
0.241409
0.236091
0.231149
0.226566
0.222329
0.218426
0.214845
0.211574
0.208602
0.205918
0.203512
0.201372
0.199485
0.19784
0.196423
0.195222
0.194222
0.19341
0.19277
0.192288
0.191949
0.191738
0.191641
0.191643
0.191732
0.191895
0.192118
0.192391
0.192704
0.193048
0.193412
0.193791
0.194178
0.194566
0.194951
0.195329
0.195696
0.196049
0.196387
0.196709
0.197012
0.197297
0.197562
0.197809
0.198037
0.198247
0.198439
0.198615
0.198775
0.198921
0.199052
0.199171
0.199279
0.199377
0.199465
0.199545
0.199617
0.199684
0.199745
0.199802
0.199856
0.199906
0.199955
0.200003
0.200049
0.200096
0.200143
0.200191
0.20024
0.200291
0.200343
0.200398
0.200456
0.200516
0.200579
0.200645
0.200715
0.200788
0.200864
0.200944
0.201027
0.201114
0.201204
0.201298
0.201396
0.201497
0.201603
0.201711
0.201824
0.201939
0.202059
0.202182
0.202308
0.202438
0.202572
0.202708
0.202849
0.202992
0.203139
0.203289
0.203443
0.203599
0.20376
0.203922
0.204089
0.204258
0.20443
0.204606
0.204785
0.204966
0.205151
0.205339
0.20553
0.205724
0.205922
0.206122
0.206327
0.206534
0.206745
0.206959
0.207176
0.207397
0.207619
0.207811
0.619767
0.854789
1.03822
1.16764
1.26939
1.35604
1.43333
1.50251
1.56238
1.61097
1.64682
1.66977
1.68094
1.68317
1.68076
1.67878
1.68135
1.68972
1.70279
1.71994
1.74231
1.76196
1.76809
1.75339
1.717
1.66548
1.61116
1.56542
1.53607
1.52398
1.5237
1.52644
1.5237
1.50977
1.48239
1.44214
1.39129
1.33281
1.26962
1.20423
1.13864
1.07429
1.0122
0.953005
0.897068
0.844558
0.795504
0.749842
0.70745
0.668166
0.631811
0.598197
0.567133
0.538434
0.511921
0.487425
0.464785
0.443852
0.424487
0.40656
0.389954
0.374559
0.360273
0.347005
0.334671
0.323194
0.312505
0.302541
0.293246
0.284567
0.276461
0.268885
0.261803
0.255184
0.249
0.243224
0.237835
0.232815
0.228146
0.223813
0.219803
0.216105
0.212708
0.209601
0.206776
0.204223
0.201933
0.199896
0.198104
0.196545
0.195208
0.194083
0.193157
0.192418
0.191852
0.191446
0.191186
0.191057
0.191046
0.191139
0.191322
0.191582
0.191907
0.192284
0.192704
0.193156
0.19363
0.194119
0.194615
0.195111
0.195604
0.196087
0.196556
0.19701
0.197445
0.19786
0.198253
0.198624
0.198972
0.199298
0.199601
0.199882
0.200142
0.200382
0.200603
0.200806
0.200992
0.201163
0.201319
0.201463
0.201595
0.201716
0.201829
0.201933
0.20203
0.202121
0.202207
0.202289
0.202368
0.202444
0.202518
0.202592
0.202665
0.202737
0.202811
0.202885
0.202961
0.203038
0.203118
0.203199
0.203283
0.20337
0.20346
0.203552
0.203648
0.203747
0.20385
0.203955
0.204065
0.204177
0.204294
0.204413
0.204536
0.204663
0.204794
0.204927
0.205065
0.205205
0.20535
0.205498
0.20565
0.205804
0.205963
0.206124
0.206289
0.206457
0.206629
0.206803
0.206982
0.207162
0.207347
0.207535
0.207726
0.207919
0.208117
0.208317
0.208521
0.208727
0.208937
0.20915
0.209366
0.209586
0.209809
0.210035
0.210266
0.210499
0.210736
0.210976
0.211217
0.211428
0.613824
0.827823
1.00485
1.13182
1.23266
1.31991
1.39918
1.47165
1.53596
1.58982
1.63137
1.65991
1.67645
1.68346
1.68493
1.68565
1.68979
1.69916
1.71212
1.72993
1.75382
1.77523
1.78187
1.76464
1.72166
1.65921
1.58977
1.52717
1.48202
1.45782
1.45058
1.45147
1.45086
1.44149
1.41975
1.38529
1.3399
1.28632
1.22743
1.1658
1.10347
1.04199
0.982416
0.92544
0.871474
0.82072
0.773239
0.728991
0.687873
0.649743
0.614439
0.581784
0.551603
0.52372
0.497966
0.47418
0.45221
0.431913
0.413155
0.395811
0.379768
0.364918
0.351163
0.338412
0.326583
0.3156
0.305393
0.295899
0.28706
0.278825
0.271146
0.263983
0.257297
0.251055
0.245227
0.239788
0.234714
0.229987
0.225588
0.221502
0.217718
0.214222
0.211005
0.208059
0.205374
0.202943
0.200758
0.198812
0.197098
0.195606
0.194327
0.193254
0.192375
0.191679
0.191155
0.190792
0.190575
0.190494
0.190533
0.190679
0.190921
0.191244
0.191636
0.192085
0.19258
0.19311
0.193666
0.194238
0.194819
0.195402
0.195981
0.19655
0.197106
0.197644
0.198162
0.198658
0.19913
0.199577
0.199998
0.200395
0.200766
0.201112
0.201434
0.201733
0.20201
0.202267
0.202504
0.202722
0.202925
0.203111
0.203284
0.203445
0.203594
0.203733
0.203863
0.203985
0.204101
0.204212
0.204318
0.204419
0.204518
0.204615
0.204711
0.204805
0.204899
0.204993
0.205088
0.205183
0.205281
0.205379
0.20548
0.205583
0.205689
0.205796
0.205907
0.206021
0.206138
0.206257
0.20638
0.206506
0.206636
0.206768
0.206905
0.207044
0.207188
0.207334
0.207484
0.207637
0.207794
0.207954
0.208118
0.208285
0.208455
0.208629
0.208806
0.208986
0.20917
0.209357
0.209547
0.20974
0.209937
0.210137
0.21034
0.210546
0.210755
0.210968
0.211184
0.211402
0.211625
0.21185
0.212079
0.212311
0.212547
0.212786
0.213029
0.213275
0.213525
0.213777
0.214031
0.214253
0.606543
0.802569
0.974441
1.0998
1.20036
1.28841
1.36949
1.44477
1.51284
1.57124
1.6178
1.65153
1.67302
1.68462
1.6899
1.69323
1.69877
1.70866
1.72267
1.74312
1.77027
1.79452
1.80224
1.7828
1.73325
1.65985
1.57583
1.49717
1.43685
1.40059
1.38576
1.38368
1.38385
1.37772
1.36048
1.3309
1.29027
1.2411
1.18619
1.12812
1.06897
1.01031
0.953258
0.898537
0.846588
0.797643
0.751784
0.708993
0.669188
0.632243
0.59801
0.566329
0.537035
0.509965
0.48496
0.461868
0.440545
0.420856
0.402673
0.385877
0.370358
0.356014
0.342748
0.330473
0.319108
0.308578
0.298815
0.289754
0.281339
0.273516
0.266239
0.259464
0.253153
0.24727
0.241786
0.236673
0.231906
0.227466
0.223334
0.219494
0.215933
0.21264
0.209604
0.206817
0.204272
0.201961
0.199878
0.198017
0.196372
0.194937
0.193704
0.192666
0.191815
0.191141
0.190637
0.19029
0.19009
0.190026
0.190085
0.190255
0.190523
0.190877
0.191305
0.191794
0.192334
0.192914
0.193523
0.194152
0.194793
0.195438
0.196082
0.196717
0.197339
0.197944
0.198529
0.199091
0.199629
0.20014
0.200624
0.201081
0.201511
0.201914
0.202291
0.202643
0.20297
0.203274
0.203557
0.203819
0.204062
0.204288
0.204498
0.204693
0.204875
0.205045
0.205205
0.205355
0.205497
0.205632
0.205761
0.205885
0.206005
0.206121
0.206235
0.206347
0.206458
0.206568
0.206678
0.206787
0.206898
0.20701
0.207123
0.207237
0.207354
0.207472
0.207594
0.207717
0.207843
0.207972
0.208104
0.208239
0.208377
0.208517
0.208662
0.208809
0.20896
0.209114
0.209271
0.209431
0.209596
0.209763
0.209934
0.210107
0.210285
0.210465
0.210649
0.210836
0.211027
0.21122
0.211417
0.211616
0.21182
0.212026
0.212236
0.212448
0.212664
0.212883
0.213105
0.21333
0.213559
0.213791
0.214027
0.214265
0.214507
0.214752
0.215002
0.215254
0.21551
0.215769
0.216029
0.216256
0.597765
0.779413
0.947843
1.07286
1.17402
1.26334
1.34627
1.42405
1.49532
1.55761
1.60862
1.64704
1.67333
1.68951
1.69889
1.70544
1.71317
1.72498
1.74175
1.76645
1.79741
1.82373
1.83072
1.80686
1.74886
1.6633
1.56476
1.47089
1.39658
1.34922
1.32717
1.32186
1.32211
1.31831
1.30463
1.2791
1.24257
1.19731
1.14605
1.09132
1.03522
0.979335
0.924791
0.872337
0.822435
0.775333
0.731133
0.689835
0.651372
0.615635
0.58249
0.551791
0.523386
0.497124
0.472857
0.450442
0.429745
0.410637
0.392997
0.376714
0.361681
0.347802
0.334984
0.323143
0.312199
0.30208
0.292718
0.284052
0.276023
0.268578
0.261671
0.255256
0.249294
0.243749
0.23859
0.233788
0.229317
0.225155
0.221283
0.217686
0.214347
0.211256
0.208402
0.205776
0.203372
0.201182
0.199202
0.197425
0.195848
0.194464
0.19327
0.192259
0.191424
0.19076
0.190257
0.189909
0.189704
0.189634
0.189688
0.189854
0.190121
0.190478
0.190912
0.191413
0.191969
0.192569
0.193203
0.193862
0.194537
0.19522
0.195904
0.196583
0.197251
0.197903
0.198537
0.199148
0.199735
0.200296
0.20083
0.201336
0.201813
0.202263
0.202685
0.20308
0.203449
0.203793
0.204114
0.204413
0.204691
0.20495
0.205191
0.205416
0.205626
0.205822
0.206006
0.206179
0.206343
0.206498
0.206647
0.206788
0.206924
0.207056
0.207184
0.207309
0.207432
0.207554
0.207674
0.207794
0.207914
0.208033
0.208154
0.208276
0.2084
0.208524
0.208651
0.20878
0.208911
0.209044
0.209181
0.209319
0.209461
0.209605
0.209753
0.209903
0.210057
0.210213
0.210373
0.210536
0.210702
0.210871
0.211044
0.21122