/*--------------------------------*- C++ -*----------------------------------*\
  =========                 |
  \\      /  F ield         | OpenFOAM: The Open Source CFD Toolbox
   \\    /   O peration     | Website:  https://openfoam.org
    \\  /    A nd           | Version:  7
     \\/     M anipulation  |
\*---------------------------------------------------------------------------*/
FoamFile
{
    version     2.0;
    format      ascii;
    class       volScalarField;
    location    "50";
    object      nut;
}
// * * * * * * * * * * * * * * * * * * * * * * * * * * * * * * * * * * * * * //

dimensions      [0 2 -1 0 0 0 0];

internalField   nonuniform List<scalar> 
16900
(
5.76484e-05
7.95117e-05
8.98721e-05
9.79026e-05
0.000104513
0.000110133
0.000114986
0.000119233
0.000122969
0.000126281
0.000129213
0.000131824
0.000134142
0.000136202
0.000138025
0.000139636
0.00014105
0.000142295
0.000143373
0.000144311
0.000145211
0.000145881
0.0001463
0.000146438
0.000146282
0.000145803
0.000144991
0.00014384
0.000142353
0.000140545
0.000138437
0.00013606
0.000133447
0.000130631
0.000127644
0.000124516
0.000121277
0.000117962
0.000114615
0.000111294
0.000107922
0.000104529
0.000101261
9.80992e-05
9.6021e-05
9.41622e-05
9.24521e-05
9.08726e-05
8.94101e-05
8.80556e-05
8.68011e-05
8.56398e-05
8.45661e-05
8.35744e-05
8.26603e-05
8.18189e-05
8.10466e-05
8.03391e-05
7.96931e-05
7.91049e-05
7.85715e-05
7.80898e-05
7.76571e-05
7.72706e-05
7.6928e-05
7.66267e-05
7.63648e-05
7.61401e-05
7.59508e-05
7.5795e-05
7.5671e-05
7.55773e-05
7.55124e-05
7.54748e-05
7.54631e-05
7.54762e-05
7.55127e-05
7.55714e-05
7.56513e-05
7.57512e-05
7.587e-05
7.60067e-05
7.61601e-05
7.63293e-05
7.65133e-05
7.67109e-05
7.6921e-05
7.71427e-05
7.73748e-05
7.76161e-05
7.78655e-05
7.81218e-05
7.83838e-05
7.86504e-05
7.89202e-05
7.9192e-05
7.94646e-05
7.97368e-05
8.00074e-05
8.02752e-05
8.05391e-05
8.07982e-05
8.10512e-05
8.12975e-05
8.1536e-05
8.17662e-05
8.19873e-05
8.21988e-05
8.24003e-05
8.25914e-05
8.27719e-05
8.29416e-05
8.31005e-05
8.32486e-05
8.33859e-05
8.35127e-05
8.36292e-05
8.37357e-05
8.38325e-05
8.39202e-05
8.3999e-05
8.407e-05
8.41327e-05
8.41867e-05
8.42327e-05
8.42717e-05
8.43043e-05
8.43313e-05
8.43531e-05
8.43704e-05
8.43834e-05
8.43929e-05
8.4399e-05
8.44022e-05
8.44027e-05
8.44009e-05
8.43969e-05
8.43912e-05
8.43837e-05
8.43749e-05
8.43647e-05
8.43535e-05
8.43413e-05
8.43283e-05
8.43145e-05
8.43003e-05
8.42855e-05
8.42704e-05
8.42548e-05
8.42392e-05
8.42232e-05
8.42073e-05
8.41912e-05
8.41753e-05
8.41592e-05
8.41433e-05
8.41274e-05
8.41118e-05
8.40962e-05
8.4081e-05
8.40658e-05
8.4051e-05
8.40363e-05
8.4022e-05
8.40078e-05
8.3994e-05
8.39804e-05
8.39673e-05
8.39542e-05
8.39417e-05
8.39293e-05
8.39173e-05
8.39055e-05
8.38942e-05
8.38831e-05
8.38724e-05
8.38619e-05
8.38519e-05
8.3842e-05
8.38326e-05
8.38233e-05
8.38145e-05
8.38058e-05
8.37976e-05
8.37896e-05
8.37819e-05
8.37745e-05
8.37674e-05
8.37605e-05
8.3754e-05
8.37476e-05
8.37416e-05
8.37358e-05
8.37303e-05
8.37249e-05
8.372e-05
8.37152e-05
8.37107e-05
8.37065e-05
8.37005e-05
6.6664e-05
0.000153851
0.000183504
0.000205424
0.000225779
0.000246008
0.000266781
0.000288517
0.000311529
0.000336072
0.00036236
0.000390573
0.000420817
0.000453103
0.000487274
0.000522964
0.000559517
0.000595958
0.000630941
0.000662804
0.000691021
0.000717864
0.000742868
0.000765438
0.000785028
0.000801191
0.000813604
0.000822101
0.000826667
0.000827433
0.000824647
0.000818645
0.000809805
0.000798514
0.000785134
0.000770003
0.000753423
0.000735677
0.000717017
0.000697613
0.000677224
0.000655763
0.000634306
0.000612812
0.000591901
0.000571616
0.000552043
0.00053324
0.000515227
0.000498002
0.000481543
0.00046582
0.000450798
0.00043644
0.000422708
0.000409564
0.000396972
0.000384898
0.000373311
0.000362181
0.000351479
0.00034118
0.000331261
0.000321699
0.000312474
0.000303567
0.000294963
0.000286645
0.000278598
0.000270811
0.00026327
0.000255965
0.000248885
0.000242022
0.000235367
0.000228912
0.000222649
0.000216574
0.000210679
0.000204959
0.000199411
0.000194029
0.00018881
0.00018375
0.000178847
0.000174098
0.0001695
0.000165053
0.000160754
0.000156602
0.000152595
0.000148732
0.000145012
0.000141434
0.000137997
0.000134699
0.000131539
0.000128515
0.000125627
0.000122872
0.000120248
0.000117753
0.000115385
0.000113141
0.000111018
0.000109014
0.000107125
0.000105348
0.000103679
0.000102116
0.000100653
9.92883e-05
9.80168e-05
9.68348e-05
9.57385e-05
9.47239e-05
9.37869e-05
9.29237e-05
9.21304e-05
9.14031e-05
9.07379e-05
9.01306e-05
8.95752e-05
8.90669e-05
8.86035e-05
8.81828e-05
8.78024e-05
8.74599e-05
8.71531e-05
8.68798e-05
8.66377e-05
8.64249e-05
8.62393e-05
8.60791e-05
8.59424e-05
8.58277e-05
8.57332e-05
8.56576e-05
8.55994e-05
8.55577e-05
8.55311e-05
8.55185e-05
8.55189e-05
8.55313e-05
8.55548e-05
8.55887e-05
8.56323e-05
8.56848e-05
8.57456e-05
8.58143e-05
8.58902e-05
8.5973e-05
8.60622e-05
8.61574e-05
8.62581e-05
8.63642e-05
8.64753e-05
8.65911e-05
8.67112e-05
8.68356e-05
8.69639e-05
8.7096e-05
8.72315e-05
8.73704e-05
8.75125e-05
8.76575e-05
8.78054e-05
8.7956e-05
8.81091e-05
8.82646e-05
8.84225e-05
8.85826e-05
8.87447e-05
8.89089e-05
8.90749e-05
8.92429e-05
8.94126e-05
8.9584e-05
8.9757e-05
8.99317e-05
9.01079e-05
9.02856e-05
9.04647e-05
9.06454e-05
9.08273e-05
9.10107e-05
9.11954e-05
9.13815e-05
9.15689e-05
9.17577e-05
9.19477e-05
9.21391e-05
9.23318e-05
9.2526e-05
9.27216e-05
9.29188e-05
9.31177e-05
9.33188e-05
9.35225e-05
9.37309e-05
7.35694e-05
0.000220686
0.00027704
0.000321552
0.000364731
0.000408236
0.000452424
0.00049735
0.000542921
0.000589004
0.000635411
0.00068193
0.000728297
0.000774186
0.000819215
0.000862941
0.000904871
0.000944487
0.000981217
0.00101442
0.00104498
0.00107402
0.00110101
0.00112527
0.00114615
0.00116309
0.00117567
0.00118361
0.00118682
0.00118532
0.00117934
0.00116917
0.0011552
0.00113788
0.00111763
0.00109489
0.00107004
0.00104337
0.00101507
0.000984966
0.000953693
0.000923471
0.000894749
0.000867222
0.000840736
0.000815228
0.000790704
0.000767178
0.000744654
0.000723116
0.000702535
0.000682871
0.000664078
0.000646105
0.000628904
0.000612424
0.00059662
0.000581445
0.000566857
0.000552818
0.000539291
0.000526243
0.000513643
0.000501463
0.000489678
0.000478265
0.000467202
0.00045647
0.000446051
0.00043593
0.00042609
0.00041652
0.000407206
0.000398138
0.000389303
0.000380693
0.000372298
0.000364111
0.000356123
0.000348327
0.000340718
0.000333288
0.000326033
0.000318947
0.000312027
0.000305268
0.000298668
0.000292222
0.00028593
0.000279788
0.000273795
0.00026795
0.000262252
0.0002567
0.000251294
0.000246034
0.000240919
0.000235949
0.000231125
0.000226446
0.000221912
0.000217524
0.000213281
0.000209182
0.000205228
0.000201417
0.000197748
0.00019422
0.000190832
0.000187581
0.000184466
0.000181485
0.000178635
0.000175914
0.000173318
0.000170844
0.00016849
0.000166252
0.000164126
0.000162108
0.000160196
0.000158384
0.00015667
0.000155048
0.000153514
0.000152064
0.000150696
0.000149404
0.000148186
0.000147039
0.000145958
0.00014494
0.000143983
0.000143082
0.000142236
0.000141441
0.000140694
0.000139992
0.000139331
0.000138707
0.000138117
0.00013756
0.000137035
0.000136541
0.000136075
0.000135637
0.000135225
0.000134838
0.000134473
0.000134131
0.000133809
0.000133506
0.000133222
0.000132954
0.000132702
0.000132465
0.000132242
0.000132032
0.000131833
0.000131646
0.000131469
0.000131302
0.000131144
0.000130994
0.000130851
0.000130716
0.000130587
0.000130465
0.000130348
0.000130236
0.000130129
0.000130026
0.000129928
0.000129833
0.000129742
0.000129655
0.00012957
0.000129489
0.00012941
0.000129334
0.000129261
0.00012919
0.000129121
0.000129054
0.00012899
0.000128927
0.000128867
0.000128809
0.000128753
0.000128699
0.000128647
0.000128598
0.000128551
0.000128506
0.000128464
0.000128426
0.000128393
0.000128364
0.000128337
0.000128317
7.89029e-05
0.000276885
0.000360971
0.000428013
0.000492571
0.000555942
0.000617671
0.000677025
0.000733347
0.000786157
0.000835196
0.000880433
0.000922023
0.000960309
0.000995731
0.00102876
0.00105983
0.00108922
0.00111706
0.00114315
0.00116835
0.00119314
0.00121691
0.00123896
0.00125858
0.00127513
0.00128804
0.00129686
0.00130126
0.00130105
0.00129618
0.00128676
0.00127302
0.00125528
0.00123393
0.00120939
0.00118203
0.00115206
0.00111939
0.00108513
0.00105159
0.00101963
0.000989262
0.000960318
0.000932635
0.000906126
0.000880755
0.000856507
0.000833361
0.000811289
0.000790254
0.000770207
0.000751099
0.000732874
0.00071548
0.000698861
0.000682968
0.000667751
0.000653165
0.000639168
0.000625721
0.00061279
0.000600341
0.000588346
0.000576778
0.000565614
0.000554832
0.000544413
0.000534338
0.000524591
0.000515158
0.000506025
0.000497179
0.000488609
0.000480303
0.000472251
0.000464443
0.000456869
0.000449521
0.000442389
0.000435465
0.000428742
0.000422211
0.000415865
0.000409697
0.0004037
0.000397868
0.000392194
0.000386674
0.000381303
0.000376074
0.000370985
0.000366031
0.000361209
0.000356516
0.000351949
0.000347506
0.000343185
0.000338984
0.000334901
0.000330936
0.000327087
0.000323352
0.000319731
0.000316224
0.000312827
0.000309542
0.000306365
0.000303297
0.000300335
0.000297479
0.000294726
0.000292075
0.000289523
0.00028707
0.000284712
0.000282447
0.000280273
0.000278188
0.000276188
0.000274273
0.000272438
0.00027068
0.000268999
0.000267389
0.000265849
0.000264376
0.000262968
0.000261621
0.000260333
0.000259102
0.000257925
0.0002568
0.000255725
0.000254697
0.000253715
0.000252777
0.00025188
0.000251022
0.000250201
0.000249414
0.000248661
0.00024794
0.000247247
0.000246584
0.000245947
0.000245336
0.000244749
0.000244186
0.000243644
0.000243123
0.000242622
0.00024214
0.000241675
0.000241227
0.000240794
0.000240376
0.000239971
0.00023958
0.000239199
0.000238831
0.000238472
0.000238122
0.000237781
0.000237449
0.000237123
0.000236805
0.000236492
0.000236185
0.000235883
0.000235586
0.000235293
0.000235004
0.000234718
0.000234435
0.000234155
0.000233877
0.000233602
0.000233329
0.000233057
0.000232787
0.000232518
0.000232251
0.000231985
0.000231721
0.000231457
0.000231194
0.000230932
0.000230671
0.000230411
0.000230152
0.000229894
0.000229638
0.000229383
0.000229129
0.000228878
0.00022863
0.000228386
0.000228146
0.000227898
8.30213e-05
0.000322289
0.000432324
0.000518654
0.000599671
0.000676336
0.000747422
0.000811696
0.000868388
0.000917296
0.000958751
0.000993509
0.00102268
0.00104751
0.00106931
0.00108923
0.00110823
0.00112695
0.0011457
0.00116441
0.00118366
0.00120365
0.00122377
0.00124332
0.00126166
0.00127814
0.00129213
0.001303
0.00131017
0.00131309
0.0013114
0.00130486
0.00129346
0.00127736
0.00125687
0.00123234
0.00120405
0.00117199
0.00113774
0.00110361
0.00107059
0.00103895
0.00100873
0.000979876
0.000952306
0.000925977
0.000900858
0.000876926
0.000854154
0.000832508
0.000811946
0.000792417
0.000773869
0.000756245
0.000739489
0.000723547
0.000708364
0.000693892
0.000680082
0.000666893
0.000654284
0.000642219
0.000630668
0.000619599
0.000608988
0.000598811
0.000589047
0.000579678
0.000570687
0.000562059
0.00055378
0.000545837
0.00053822
0.000530915
0.000523914
0.000517204
0.000510777
0.000504621
0.000498728
0.000493086
0.000487685
0.000482515
0.000477565
0.000472826
0.000468286
0.000463936
0.000459765
0.000455763
0.00045192
0.000448228
0.000444677
0.000441258
0.000437963
0.000434786
0.000431718
0.000428754
0.000425887
0.000423112
0.000420425
0.000417821
0.000415295
0.000412845
0.000410468
0.00040816
0.000405918
0.000403742
0.000401628
0.000399575
0.000397582
0.000395645
0.000393765
0.000391939
0.000390166
0.000388444
0.000386774
0.000385153
0.000383579
0.000382053
0.000380573
0.000379138
0.000377747
0.0003764
0.000375094
0.000373829
0.000372605
0.000371421
0.000370275
0.000369168
0.000368097
0.000367064
0.000366066
0.000365103
0.000364175
0.00036328
0.000362419
0.00036159
0.000360793
0.000360027
0.000359292
0.000358586
0.000357908
0.000357259
0.000356637
0.000356041
0.00035547
0.000354924
0.000354401
0.000353901
0.000353423
0.000352967
0.00035253
0.000352113
0.000351715
0.000351334
0.00035097
0.000350622
0.000350289
0.000349971
0.000349666
0.000349374
0.000349093
0.000348824
0.000348565
0.000348316
0.000348075
0.000347843
0.000347619
0.000347402
0.000347191
0.000346987
0.000346787
0.000346593
0.000346404
0.000346218
0.000346036
0.000345858
0.000345683
0.000345511
0.000345341
0.000345174
0.000345008
0.000344845
0.000344683
0.000344523
0.000344365
0.000344208
0.000344052
0.000343898
0.000343744
0.000343592
0.000343442
0.000343292
0.000343144
0.000342998
0.000342854
0.000342712
0.000342572
0.000342437
0.000342306
0.000342145
8.61458e-05
0.000357265
0.000490249
0.000591758
0.000684102
0.000768194
0.000842471
0.000905677
0.00095742
0.000998181
0.00102912
0.00105189
0.00106833
0.00108038
0.00108983
0.00109819
0.00110662
0.00111591
0.0011265
0.00113837
0.00115184
0.00116689
0.00118295
0.0011995
0.00121607
0.0012322
0.00124733
0.00126073
0.00127153
0.0012788
0.00128166
0.00127946
0.00127181
0.00125864
0.00124007
0.00121632
0.00118756
0.00115564
0.00112291
0.00109042
0.00105865
0.00102788
0.000998234
0.000969785
0.000942553
0.000916549
0.000891774
0.000868218
0.00084586
0.000824669
0.000804604
0.000785615
0.000767649
0.00075065
0.000734561
0.000719324
0.000704885
0.000691193
0.000678199
0.000665859
0.000654131
0.000642979
0.00063237
0.000622274
0.000612665
0.000603521
0.000594821
0.000586547
0.000578684
0.000571218
0.000564136
0.000557427
0.00055108
0.000545085
0.000539432
0.000534111
0.000529111
0.000524423
0.000520035
0.000515935
0.000512112
0.000508553
0.000505244
0.000502172
0.000499322
0.00049668
0.000494231
0.00049196
0.000489853
0.000487896
0.000486073
0.000484372
0.00048278
0.000481284
0.000479873
0.000478536
0.000477264
0.000476049
0.000474882
0.000473756
0.000472665
0.000471604
0.000470569
0.000469554
0.000468558
0.000467578
0.000466611
0.000465655
0.000464709
0.000463772
0.000462843
0.000461922
0.000461008
0.000460101
0.000459202
0.000458309
0.000457424
0.000456547
0.000455679
0.000454819
0.00045397
0.00045313
0.000452302
0.000451486
0.000450683
0.000449894
0.000449119
0.000448359
0.000447616
0.00044689
0.000446182
0.000445492
0.000444822
0.000444172
0.000443542
0.000442934
0.000442347
0.000441781
0.000441238
0.000440717
0.000440218
0.000439742
0.000439288
0.000438855
0.000438445
0.000438056
0.000437688
0.000437341
0.000437014
0.000436706
0.000436418
0.000436148
0.000435896
0.000435662
0.000435444
0.000435241
0.000435054
0.000434881
0.000434723
0.000434577
0.000434443
0.000434321
0.00043421
0.00043411
0.000434019
0.000433937
0.000433864
0.000433799
0.000433741
0.00043369
0.000433645
0.000433607
0.000433574
0.000433546
0.000433523
0.000433505
0.000433491
0.00043348
0.000433474
0.000433471
0.000433471
0.000433474
0.00043348
0.000433489
0.0004335
0.000433514
0.000433531
0.00043355
0.000433571
0.000433595
0.000433621
0.00043365
0.000433681
0.000433715
0.000433752
0.000433793
0.000433837
0.000433886
0.000433938
0.000433947
8.84718e-05
0.000382548
0.000535072
0.000647981
0.000747438
0.000834827
0.000908689
0.000968121
0.00101336
0.00104566
0.0010669
0.00107932
0.00108528
0.001087
0.00108649
0.0010854
0.00108499
0.00108621
0.00108957
0.00109519
0.00110302
0.00111274
0.00112384
0.00113609
0.00114947
0.00116396
0.00117932
0.0011949
0.00120959
0.00122198
0.00123056
0.00123407
0.00123159
0.00122259
0.00120687
0.00118473
0.00115803
0.00112907
0.001099
0.00106854
0.00103823
0.00100845
0.00097946
0.00095144
0.000924507
0.000898733
0.000874162
0.000850811
0.000828676
0.000807736
0.000787957
0.000769295
0.000751699
0.000735114
0.000719483
0.000704748
0.000690853
0.000677746
0.000665375
0.000653693
0.000642658
0.000632231
0.000622376
0.000613063
0.000604264
0.000595957
0.00058812
0.000580737
0.000573791
0.00056727
0.000561162
0.000555458
0.000550147
0.000545222
0.000540673
0.000536492
0.000532669
0.000529195
0.000526057
0.000523245
0.000520745
0.000518543
0.000516624
0.000514969
0.000513563
0.000512386
0.00051142
0.000510644
0.00051004
0.000509587
0.000509266
0.000509059
0.000508947
0.000508913
0.000508942
0.000509019
0.00050913
0.000509264
0.000509409
0.000509557
0.0005097
0.000509831
0.000509944
0.000510035
0.000510101
0.000510139
0.000510148
0.000510125
0.000510071
0.000509986
0.000509869
0.000509722
0.000509545
0.00050934
0.000509108
0.00050885
0.000508569
0.000508266
0.000507943
0.000507601
0.000507244
0.000506872
0.000506488
0.000506094
0.000505693
0.000505285
0.000504873
0.00050446
0.000504046
0.000503635
0.000503227
0.000502824
0.000502428
0.000502041
0.000501664
0.000501297
0.000500943
0.000500602
0.000500276
0.000499964
0.000499669
0.000499389
0.000499126
0.00049888
0.000498652
0.00049844
0.000498246
0.000498069
0.000497909
0.000497767
0.00049764
0.00049753
0.000497436
0.000497357
0.000497293
0.000497243
0.000497207
0.000497185
0.000497175
0.000497177
0.000497191
0.000497216
0.000497252
0.000497297
0.000497352
0.000497415
0.000497488
0.000497568
0.000497655
0.00049775
0.000497851
0.000497959
0.000498072
0.000498191
0.000498316
0.000498445
0.000498579
0.000498718
0.00049886
0.000499007
0.000499158
0.000499313
0.000499471
0.000499633
0.000499798
0.000499966
0.000500138
0.000500313
0.000500492
0.000500673
0.000500858
0.000501047
0.000501238
0.000501434
0.000501633
0.000501837
0.000502045
0.000502259
0.000502475
0.000502639
9.01339e-05
0.000399175
0.00056793
0.00068908
0.000792618
0.000880784
0.000952586
0.00100768
0.00104697
0.00107232
0.00108613
0.00109098
0.00108936
0.00108363
0.00107584
0.0010677
0.00106054
0.00105535
0.00105283
0.00105309
0.00105557
0.00105939
0.00106409
0.00106991
0.0010776
0.00108795
0.00110139
0.00111764
0.00113552
0.00115315
0.00116819
0.00117855
0.00118251
0.0011787
0.00116716
0.00114934
0.00112729
0.00110226
0.00107524
0.00104704
0.00101834
0.000989662
0.000961395
0.00093383
0.000907174
0.000881566
0.000857096
0.000833816
0.000811747
0.000790884
0.000771207
0.000752678
0.000735254
0.000718882
0.000703506
0.000689071
0.000675518
0.000662794
0.000650844
0.00063962
0.000629076
0.000619169
0.000609861
0.00060112
0.000592915
0.000585222
0.000578017
0.000571284
0.000565005
0.000559168
0.000553763
0.00054878
0.000544211
0.000540049
0.000536287
0.000532919
0.000529937
0.000527333
0.000525097
0.000523219
0.000521686
0.000520483
0.000519595
0.000519004
0.00051869
0.000518632
0.000518808
0.000519195
0.000519768
0.000520504
0.000521378
0.000522367
0.000523447
0.000524597
0.000525797
0.000527026
0.000528269
0.000529509
0.000530733
0.000531929
0.000533088
0.0005342
0.00053526
0.000536262
0.000537203
0.00053808
0.000538892
0.000539638
0.000540319
0.000540936
0.00054149
0.000541983
0.000542417
0.000542795
0.000543119
0.000543393
0.000543619
0.000543801
0.000543941
0.000544042
0.000544109
0.000544143
0.000544148
0.000544127
0.000544083
0.000544018
0.000543936
0.000543839
0.00054373
0.000543612
0.000543486
0.000543356
0.000543223
0.000543089
0.000542957
0.000542828
0.000542704
0.000542586
0.000542475
0.000542373
0.000542282
0.0005422
0.000542131
0.000542073
0.000542028
0.000541996
0.000541978
0.000541973
0.000541982
0.000542004
0.000542039
0.000542089
0.000542151
0.000542226
0.000542314
0.000542414
0.000542526
0.00054265
0.000542785
0.00054293
0.000543086
0.000543252
0.000543427
0.000543611
0.000543804
0.000544004
0.000544213
0.000544429
0.000544653
0.000544882
0.000545119
0.000545361
0.000545609
0.000545863
0.000546122
0.000546386
0.000546655
0.000546929
0.000547207
0.00054749
0.000547777
0.000548067
0.000548362
0.000548661
0.000548964
0.00054927
0.00054958
0.000549894
0.000550212
0.000550533
0.000550858
0.000551187
0.000551521
0.000551858
0.0005522
0.000552547
0.000552899
0.000553255
0.000553614
0.000553917
9.12569e-05
0.000408356
0.000590283
0.000717292
0.000822856
0.00091048
0.000979825
0.00103116
0.00106596
0.00108655
0.00109559
0.00109576
0.00108964
0.00107955
0.00106756
0.00105541
0.0010444
0.00103552
0.00102928
0.00102569
0.00102336
0.00102063
0.00101713
0.00101377
0.00101237
0.00101494
0.0010231
0.0010373
0.00105655
0.00107858
0.00110005
0.00111784
0.00112886
0.00113157
0.00112658
0.00111521
0.0010986
0.0010779
0.0010542
0.00102847
0.00100155
0.000974108
0.000946669
0.000919631
0.000893286
0.000867844
0.000843445
0.000820182
0.000798102
0.000777224
0.000757541
0.00073903
0.000721653
0.000705365
0.000690113
0.000675842
0.000662496
0.000650017
0.000638352
0.000627447
0.000617253
0.000607725
0.000598821
0.000590504
0.00058274
0.000575501
0.000568762
0.000562502
0.000556704
0.000551353
0.000546438
0.00054195
0.000537883
0.000534229
0.000530986
0.000528146
0.000525707
0.000523662
0.000522005
0.000520727
0.000519819
0.000519268
0.00051906
0.000519177
0.000519601
0.00052031
0.000521281
0.000522489
0.000523907
0.000525507
0.000527262
0.000529144
0.000531126
0.000533181
0.000535284
0.000537412
0.000539543
0.000541658
0.00054374
0.000545774
0.000547747
0.000549649
0.000551473
0.000553211
0.00055486
0.000556417
0.000557879
0.000559248
0.000560524
0.000561708
0.000562804
0.000563813
0.00056474
0.000565588
0.000566362
0.000567064
0.0005677
0.000568274
0.00056879
0.000569252
0.000569664
0.00057003
0.000570355
0.000570641
0.000570894
0.000571115
0.00057131
0.000571481
0.000571631
0.000571764
0.000571881
0.000571987
0.000572084
0.000572173
0.000572258
0.00057234
0.000572422
0.000572504
0.000572589
0.000572678
0.000572772
0.000572872
0.00057298
0.000573097
0.000573222
0.000573356
0.000573501
0.000573656
0.000573821
0.000573997
0.000574184
0.000574382
0.000574591
0.00057481
0.00057504
0.00057528
0.00057553
0.00057579
0.000576059
0.000576338
0.000576626
0.000576922
0.000577227
0.000577539
0.00057786
0.000578187
0.000578522
0.000578864
0.000579212
0.000579566
0.000579927
0.000580293
0.000580665
0.000581042
0.000581425
0.000581812
0.000582205
0.000582601
0.000583003
0.000583409
0.00058382
0.000584234
0.000584653
0.000585076
0.000585503
0.000585934
0.000586369
0.000586808
0.000587252
0.000587699
0.000588151
0.000588606
0.000589067
0.000589532
0.000590001
0.000590476
0.000590956
0.00059144
0.000591927
0.000592357
9.19295e-05
0.000411306
0.000603757
0.000734848
0.0008412
0.000927754
0.000994939
0.0010436
0.00107564
0.00109363
0.00110038
0.00109862
0.00109088
0.00107953
0.00106674
0.00105427
0.00104333
0.00103452
0.00102786
0.00102249
0.00101602
0.00100612
0.000992551
0.000977111
0.000962946
0.000953698
0.000952563
0.000961159
0.000979011
0.00100364
0.00103051
0.00105549
0.00107383
0.00108461
0.00108756
0.00108313
0.00107227
0.00105615
0.00103599
0.00101292
0.000987938
0.000961868
0.000935363
0.00090893
0.00088295
0.000857702
0.000833382
0.000810122
0.000788003
0.000767067
0.000747326
0.00072877
0.000711373
0.000695095
0.000679889
0.000665702
0.00065248
0.000640166
0.000628703
0.000618036
0.000608113
0.000598883
0.000590303
0.000582329
0.000574923
0.000568053
0.000561689
0.000555807
0.000550386
0.000545408
0.000540862
0.000536736
0.000533023
0.000529717
0.000526815
0.000524313
0.000522209
0.0005205
0.000519184
0.000518255
0.000517707
0.000517531
0.000517716
0.000518249
0.000519112
0.000520286
0.000521749
0.000523477
0.000525441
0.000527614
0.000529965
0.000532465
0.000535082
0.000537787
0.00054055
0.000543344
0.000546144
0.000548925
0.000551667
0.000554352
0.000556964
0.00055949
0.000561919
0.000564243
0.000566456
0.000568556
0.000570539
0.000572405
0.000574156
0.000575793
0.00057732
0.00057874
0.000580057
0.000581277
0.000582403
0.000583443
0.0005844
0.000585281
0.00058609
0.000586833
0.000587514
0.00058814
0.000588714
0.000589241
0.000589726
0.000590172
0.000590585
0.000590968
0.000591324
0.000591657
0.00059197
0.000592267
0.000592549
0.000592821
0.000593083
0.000593339
0.000593591
0.00059384
0.000594089
0.000594338
0.000594589
0.000594844
0.000595104
0.000595369
0.00059564
0.000595918
0.000596203
0.000596497
0.000596799
0.000597109
0.000597428
0.000597756
0.000598093
0.000598439
0.000598794
0.000599157
0.000599529
0.00059991
0.000600299
0.000600695
0.0006011
0.000601512
0.000601932
0.000602359
0.000602793
0.000603234
0.000603681
0.000604134
0.000604594
0.000605059
0.000605531
0.000606007
0.00060649
0.000606977
0.00060747
0.000607967
0.000608469
0.000608976
0.000609488
0.000610003
0.000610524
0.000611049
0.000611578
0.000612111
0.000612649
0.000613191
0.000613737
0.000614288
0.000614843
0.000615401
0.000615965
0.000616533
0.000617106
0.000617684
0.000618267
0.000618854
0.000619447
0.000620045
0.000620644
0.000621189
9.22334e-05
0.0004092
0.000609893
0.000743897
0.000850352
0.000935799
0.00100145
0.00104862
0.0010795
0.00109678
0.00110331
0.0011018
0.00109487
0.00108498
0.0010745
0.00106536
0.00105864
0.00105432
0.00105108
0.00104627
0.00103629
0.00101866
0.000993529
0.000963744
0.000933918
0.000909401
0.000895459
0.000894996
0.000908411
0.000933109
0.00096379
0.000994209
0.00102035
0.00103951
0.00105042
0.00105302
0.00104803
0.00103664
0.00102016
0.000999882
0.000976957
0.000952353
0.000926857
0.000901086
0.00087551
0.000850481
0.000826249
0.000802989
0.000780817
0.000759799
0.000739968
0.000721329
0.000703866
0.00068755
0.000672338
0.000658183
0.000645031
0.000632826
0.000621512
0.000611032
0.00060133
0.000592354
0.000584052
0.00057638
0.000569293
0.000562753
0.000556727
0.000551183
0.000546098
0.000541449
0.00053722
0.000533399
0.000529974
0.000526939
0.000524291
0.000522026
0.000520144
0.000518644
0.000517525
0.000516787
0.000516427
0.00051644
0.00051682
0.000517557
0.000518639
0.00052005
0.000521772
0.000523781
0.000526052
0.000528559
0.00053127
0.000534156
0.000537183
0.000540319
0.000543533
0.000546793
0.000550071
0.000553338
0.00055657
0.000559745
0.000562844
0.000565851
0.000568751
0.000571534
0.000574194
0.000576723
0.000579119
0.000581381
0.00058351
0.000585507
0.000587375
0.000589119
0.000590743
0.000592254
0.000593657
0.000594957
0.000596163
0.000597279
0.000598312
0.000599268
0.000600154
0.000600975
0.000601737
0.000602445
0.000603105
0.000603721
0.000604298
0.00060484
0.000605351
0.000605836
0.000606297
0.000606738
0.000607163
0.000607574
0.000607974
0.000608365
0.000608749
0.000609129
0.000609506
0.000609882
0.000610258
0.000610635
0.000611016
0.0006114
0.000611789
0.000612183
0.000612583
0.00061299
0.000613403
0.000613824
0.000614252
0.000614687
0.00061513
0.000615581
0.000616039
0.000616505
0.000616979
0.00061746
0.000617949
0.000618445
0.000618948
0.000619458
0.000619975
0.000620498
0.000621028
0.000621564
0.000622107
0.000622655
0.000623209
0.000623768
0.000624334
0.000624904
0.00062548
0.000626061
0.000626648
0.000627238
0.000627835
0.000628435
0.000629041
0.00062965
0.000630265
0.000630884
0.000631507
0.000632135
0.000632767
0.000633403
0.000634045
0.00063469
0.00063534
0.000635994
0.000636654
0.000637318
0.000637987
0.00063866
0.00063934
0.000640024
0.000640714
0.000641409
0.000642104
0.000642749
9.22242e-05
0.000403088
0.000610151
0.000746326
0.000852634
0.000937221
0.00100205
0.00104883
0.00107987
0.0010979
0.0011057
0.00110602
0.0011015
0.00109484
0.0010887
0.00108534
0.00108585
0.0010895
0.00109327
0.00109131
0.0010785
0.00105294
0.00101558
0.000970536
0.000923842
0.000882337
0.000853656
0.00084179
0.000848408
0.000870272
0.000901904
0.000936988
0.000969978
0.000996847
0.00101535
0.00102482
0.00102569
0.00101906
0.00100633
0.000988897
0.000968071
0.00094497
0.000920511
0.000895421
0.000870262
0.000845456
0.00082131
0.000798043
0.000775802
0.000754682
0.000734734
0.00071598
0.000698416
0.00068202
0.00066676
0.00065259
0.000639463
0.000627323
0.000616113
0.000605777
0.000596258
0.000587498
0.000579445
0.000572047
0.000565257
0.000559029
0.000553325
0.000548109
0.00054335
0.000539022
0.000535102
0.000531574
0.000528424
0.000525642
0.000523222
0.000521161
0.000519457
0.000518112
0.000517126
0.0005165
0.000516236
0.000516334
0.000516791
0.000517602
0.00051876
0.000520255
0.000522071
0.000524192
0.000526594
0.000529254
0.000532143
0.000535232
0.000538488
0.000541879
0.000545371
0.000548931
0.000552527
0.000556128
0.000559707
0.000563237
0.000566695
0.000570063
0.000573322
0.00057646
0.000579467
0.000582334
0.000585057
0.000587634
0.000590063
0.000592346
0.000594486
0.000596487
0.000598354
0.000600094
0.000601712
0.000603216
0.000604613
0.00060591
0.000607113
0.000608231
0.00060927
0.000610236
0.000611137
0.000611978
0.000612766
0.000613504
0.0006142
0.000614858
0.000615482
0.000616076
0.000616645
0.000617192
0.00061772
0.000618232
0.000618733
0.000619222
0.000619704
0.00062018
0.000620653
0.000621123
0.000621593
0.000622063
0.000622535
0.000623009
0.000623488
0.00062397
0.000624458
0.000624952
0.000625451
0.000625957
0.000626469
0.000626988
0.000627514
0.000628046
0.000628587
0.000629133
0.000629687
0.000630248
0.000630816
0.00063139
0.000631971
0.000632558
0.000633152
0.000633752
0.000634359
0.000634971
0.00063559
0.000636214
0.000636844
0.00063748
0.000638121
0.000638767
0.000639419
0.000640075
0.000640737
0.000641404
0.000642076
0.000642752
0.000643434
0.000644119
0.00064481
0.000645505
0.000646205
0.000646908
0.000647618
0.00064833
0.000649049
0.000649771
0.000650498
0.00065123
0.000651967
0.000652708
0.000653456
0.000654207
0.000654965
0.000655728
0.000656496
0.000657269
0.000658044
0.000658769
9.19578e-05
0.000393809
0.000605727
0.000743782
0.000849974
0.000934091
0.000998791
0.00104606
0.00107826
0.00109803
0.00110808
0.00111107
0.00110976
0.00110698
0.00110572
0.0011086
0.00111698
0.00112977
0.00114227
0.00114485
0.00113017
0.00109724
0.00104824
0.000988728
0.00092617
0.000868095
0.000825065
0.000801525
0.000799258
0.000816115
0.000846918
0.000884893
0.00092337
0.000957057
0.000982635
0.00099869
0.00100527
0.00100333
0.000994284
0.000979661
0.000960904
0.000939279
0.000915833
0.000891404
0.000866644
0.000842044
0.000817967
0.000794674
0.000772346
0.000751101
0.000731011
0.000712113
0.000694414
0.000677904
0.000662556
0.000648331
0.000635184
0.000623064
0.000611916
0.000601682
0.000592305
0.000583726
0.000575889
0.000568738
0.000562222
0.000556292
0.000550901
0.000546008
0.000541576
0.000537573
0.000533972
0.000530748
0.000527884
0.000525366
0.000523185
0.000521334
0.00051981
0.000518614
0.000517747
0.000517212
0.000517013
0.000517151
0.000517629
0.000518448
0.000519603
0.000521091
0.000522901
0.000525021
0.000527435
0.000530121
0.000533055