/*--------------------------------*- C++ -*----------------------------------*\
  =========                 |
  \\      /  F ield         | OpenFOAM: The Open Source CFD Toolbox
   \\    /   O peration     | Website:  https://openfoam.org
    \\  /    A nd           | Version:  7
     \\/     M anipulation  |
\*---------------------------------------------------------------------------*/
FoamFile
{
    version     2.0;
    format      ascii;
    class       volScalarField;
    location    "50";
    object      p;
}
// * * * * * * * * * * * * * * * * * * * * * * * * * * * * * * * * * * * * * //

dimensions      [0 2 -2 0 0 0 0];

internalField   nonuniform List<scalar> 
16900
(
-10.8446
-11.3804
-12.2112
-13.3037
-14.6178
-16.1094
-17.7325
-19.4441
-21.2012
-22.9645
-24.6924
-26.3444
-27.8746
-29.2357
-30.379
-31.2592
-31.8334
-32.0605
-31.8975
-31.3094
-30.2825
-28.8287
-26.9866
-24.8085
-22.3661
-19.7355
-16.9978
-14.2326
-11.5134
-8.90368
-6.45363
-4.19789
-2.15538
-0.331806
1.27619
2.67648
3.87789
4.88905
5.72109
6.39073
6.92256
7.3472
7.69966
7.98823
8.2045
8.35221
8.44058
8.47939
8.4776
8.44288
8.3817
8.29943
8.20052
8.08863
7.96674
7.8373
7.70232
7.56344
7.42201
7.27916
7.13581
6.99274
6.85056
6.70982
6.57093
6.43423
6.3
6.16843
6.03967
5.91384
5.79098
5.67113
5.55429
5.44045
5.32955
5.22156
5.11642
5.01405
4.91437
4.81733
4.72282
4.63079
4.54114
4.45381
4.36871
4.28578
4.20496
4.12618
4.04938
3.97451
3.90153
3.83038
3.76104
3.69346
3.62761
3.56347
3.501
3.44017
3.38096
3.32334
3.26729
3.21278
3.15979
3.10827
3.0582
3.00954
2.96227
2.91635
2.87172
2.82836
2.78622
2.74525
2.70541
2.66664
2.62891
2.59214
2.55631
2.52134
2.4872
2.45381
2.42114
2.38913
2.35775
2.32694
2.29666
2.26685
2.23746
2.20844
2.17975
2.15134
2.12317
2.09519
2.06738
2.03969
2.0121
1.98457
1.95707
1.92957
1.90207
1.87452
1.84692
1.81923
1.79146
1.76357
1.73557
1.70743
1.67914
1.6507
1.6221
1.59333
1.56439
1.53527
1.50597
1.47648
1.44682
1.41696
1.38693
1.35671
1.32631
1.29573
1.26498
1.23406
1.20297
1.17172
1.14031
1.10875
1.07705
1.04522
1.01325
0.981167
0.948976
0.916679
0.884298
0.851833
0.819307
0.786723
0.754103
0.721452
0.688793
0.656132
0.623491
0.590878
0.558314
0.525806
0.493376
0.461029
0.428784
0.396644
0.364626
0.332731
0.300967
0.269331
0.237823
0.206429
0.175132
0.143895
0.112666
0.0813484
0.0497491
0.0175339
-10.8034
-11.3923
-12.2169
-13.3084
-14.6285
-16.128
-17.7606
-19.4819
-21.2506
-23.0272
-24.7731
-26.4483
-28.0082
-29.4065
-30.5941
-31.5257
-32.1578
-32.4471
-32.3491
-31.8259
-30.8615
-29.4671
-27.6763
-25.5414
-23.1299
-20.5189
-17.7899
-15.0236
-12.2945
-9.66647
-7.18947
-4.89837
-2.81359
-0.944151
0.708548
2.1476
3.37967
4.41592
5.27452
5.98073
6.56313
7.03971
7.42117
7.71959
7.94516
8.1052
8.20806
8.26229
8.27599
8.25624
8.20926
8.14023
8.05358
7.95292
7.84134
7.7213
7.5949
7.46385
7.3296
7.1933
7.05597
6.91841
6.78132
6.64526
6.5107
6.378
6.24748
6.11934
5.99378
5.87091
5.75082
5.63354
5.51911
5.40751
5.29872
5.19269
5.08939
4.98875
4.89071
4.79519
4.70213
4.61145
4.52308
4.43695
4.35299
4.27113
4.19132
4.11349
4.03759
3.96357
3.89139
3.821
3.75236
3.68545
3.62023
3.55668
3.49475
3.43444
3.37572
3.31855
3.26292
3.20881
3.15617
3.10499
3.05524
3.00688
2.95987
2.91419
2.86979
2.82664
2.78469
2.7439
2.70422
2.6656
2.628
2.59136
2.55564
2.52078
2.48673
2.45344
2.42087
2.38895
2.35765
2.3269
2.29666
2.26689
2.23752
2.20853
2.17985
2.15145
2.12329
2.09532
2.06752
2.03984
2.01225
1.98472
1.95722
1.92973
1.90223
1.87468
1.84708
1.8194
1.79162
1.76374
1.73573
1.70759
1.67931
1.65087
1.62227
1.5935
1.56456
1.53544
1.50614
1.47666
1.44699
1.41714
1.3871
1.35688
1.32648
1.2959
1.26515
1.23423
1.20314
1.17189
1.14048
1.10892
1.07722
1.04538
1.01341
0.981327
0.949128
0.916832
0.884443
0.851978
0.819444
0.786859
0.75423
0.721577
0.688908
0.656244
0.623593
0.590977
0.558402
0.525891
0.49345
0.461099
0.428844
0.396702
0.364674
0.332778
0.301006
0.269372
0.23786
0.206474
0.17518
0.143962
0.112759
0.0814999
0.0500198
0.0182953
-11.2905
-11.9608
-12.7922
-13.8723
-15.1728
-16.6491
-18.2558
-19.9525
-21.6996
-23.4617
-25.2019
-26.8821
-28.46
-29.8871
-31.114
-32.0929
-32.778
-33.1223
-33.0755
-32.5964
-31.6653
-30.2918
-28.5084
-26.3676
-23.9386
-21.3015
-18.541
-15.741
-12.9778
-10.3153
-7.80259
-5.47394
-3.35085
-1.44561
0.23578
1.6932
2.9342
3.97667
4.84894
5.58413
6.20132
6.70947
7.12058
7.44568
7.69412
7.87486
7.99679
8.06861
8.09833
8.09312
8.05921
8.00193
7.92578
7.83455
7.7314
7.61896
7.49941
7.37457
7.24594
7.1148
6.98219
6.84899
6.71593
6.58361
6.45251
6.32305
6.19553
6.0702
5.94726
5.82685
5.70904
5.59391
5.48149
5.37177
5.26474
5.16037
5.05862
4.95944
4.86277
4.76854
4.67669
4.58715
4.49986
4.41475
4.33174
4.25079
4.17184
4.09482
4.01969
3.94641
3.87492
3.8052
3.73721
3.67092
3.60629
3.5433
3.48194
3.42216
3.36395
3.30729
3.25216
3.19852
3.14635
3.09562
3.04631
2.99838
2.9518
2.90653
2.86253
2.81977
2.77819
2.73777
2.69844
2.66017
2.6229
2.58658
2.55116
2.51659
2.48282
2.4498
2.41748
2.3858
2.35472
2.32419
2.29416
2.26457
2.23539
2.20656
2.17805
2.1498
2.12178
2.09395
2.06627
2.0387
2.01122
1.98379
1.95639
1.92899
1.90156
1.87409
1.84655
1.81893
1.79121
1.76337
1.7354
1.7073
1.67905
1.65064
1.62206
1.59332
1.5644
1.5353
1.50601
1.47654
1.44689
1.41705
1.38702
1.35681
1.32642
1.29585
1.2651
1.23418
1.2031
1.17185
1.14044
1.10888
1.07718
1.04534
1.01337
0.981284
0.949082
0.916781
0.884386
0.851914
0.819373
0.786779
0.754141
0.721478
0.688798
0.656123
0.62346
0.590831
0.558244
0.52572
0.493266
0.460904
0.428636
0.396484
0.364447
0.332543
0.300767
0.269132
0.237623
0.206248
0.174977
0.143801
0.112674
0.0815728
0.0503792
0.0195861
-12.1936
-12.8886
-13.6999
-14.7491
-16.0121
-17.4474
-19.0154
-20.6781
-22.4011
-24.1506
-25.893
-27.592
-29.2031
-30.6771
-31.9608
-33.0027
-33.7533
-34.1593
-34.1648
-33.7208
-32.8033
-31.4203
-29.6053
-27.4141
-24.9207
-22.2106
-19.3746
-16.5004
-13.6664
-10.9373
-8.36258
-5.97807
-3.80836
-1.86919
-0.167818
1.29934
2.54918
3.61113
4.51836
5.28893
5.9321
6.46115
6.88971
7.22953
7.49095
7.68373
7.81716
7.89994
7.94007
7.94462
7.91979
7.87091
7.80252
7.71843
7.62186
7.51548
7.40156
7.28195
7.15822
7.03166
6.90337
6.77424
6.64502
6.51633
6.38868
6.26247
6.13804
6.01564
5.89546
5.77766
5.66232
5.54953
5.43932
5.33168
5.22663
5.12413
5.02415
4.92663
4.83154
4.7388
4.64836
4.56016
4.47413
4.39021
4.30834
4.22847
4.15054
4.0745
4.0003
3.9279
3.85727
3.78836
3.72114
3.65559
3.59168
3.52939
3.46869
3.40955
3.35197
3.29591
3.24134
3.18826
3.13663
3.08642
3.03761
2.99017
2.94405
2.89923
2.85567
2.81332
2.77214
2.7321
2.69314
2.65522
2.61828
2.58228
2.54717
2.51289
2.4794
2.44664
2.41456
2.38312
2.35226
2.32193
2.29209
2.26268
2.23366
2.20499
2.17661
2.14849
2.12058
2.09286
2.06527
2.03779
2.01039
1.98304
1.9557
1.92836
1.90099
1.87356
1.84607
1.81849
1.7908
1.76299
1.73506
1.70698
1.67875
1.65036
1.6218
1.59307
1.56416
1.53507
1.50579
1.47633
1.44668
1.41685
1.38683
1.35662
1.32623
1.29566
1.26491
1.23399
1.2029
1.17165
1.14024
1.10868
1.07697
1.04513
1.01315
0.981058
0.948844
0.916535
0.884126
0.851644
0.819085
0.786479
0.753821
0.721144
0.688443
0.655751
0.623065
0.59042
0.557809
0.525268
0.492791
0.460413
0.428124
0.39596
0.363904
0.331993
0.300204
0.268571
0.237063
0.205707
0.174462
0.143345
0.112307
0.0813728
0.0504507
0.020505
-13.3189
-14.0116
-14.7962
-15.8155
-17.0397
-18.4345
-19.9638
-21.5946
-23.2958
-25.0372
-26.7877
-28.5105
-30.1628
-31.6911
-33.0388
-34.1511
-34.9743
-35.4506
-35.5127
-35.1039
-34.1928
-32.7863
-30.9205
-28.6561
-26.0739
-23.2666
-20.3304
-17.3572
-14.4282
-11.6104
-8.95695
-6.50814
-4.29232
-2.32511
-0.60753
0.875953
2.15431
3.25901
4.20572
5.00332
5.66747
6.21389
6.65704
7.00956
7.28263
7.48652
7.63072
7.72397
7.77417
7.78832
7.77257
7.73221
7.67177
7.59511
7.50547
7.40556
7.29768
7.18374
7.06533
6.94379
6.82023
6.69557
6.57058
6.4459
6.32203
6.19941
6.07837
5.95917
5.84202
5.72708
5.61444
5.50419
5.39636
5.29098
5.18805
5.08754
4.98943
4.89368
4.80024
4.70906
4.62008
4.53325
4.44852
4.36581
4.28509
4.20629
4.12937
4.05429
3.981
3.90946
3.83964
3.77151
3.70503
3.64019
3.57696
3.51531
3.45523
3.3967
3.3397
3.28419
3.23018
3.17762
3.1265
3.07678
3.02845
2.98147
2.93581
2.89143
2.84829
2.80635
2.76558
2.72592
2.68733
2.64977
2.61317
2.57751
2.54271
2.50874
2.47554
2.44306
2.41125
2.38005
2.34943
2.31932
2.28969
2.26047
2.23163
2.20313
2.17491
2.14693
2.11916
2.09156
2.06409
2.03672
2.00942
1.98215
1.9549
1.92763
1.90032
1.87296
1.84552
1.81798
1.79034
1.76257
1.73467
1.70662
1.67841
1.65005
1.62151
1.59279
1.5639
1.53482
1.50555
1.4761
1.44646
1.41663
1.38661
1.3564
1.32601
1.29545
1.26469
1.23378
1.20268
1.17143
1.14001
1.10845
1.07673
1.04488
1.01289
0.980788
0.948562
0.916239
0.883815
0.851317
0.818739
0.786114
0.753435
0.720736
0.688011
0.655297
0.622585
0.589915
0.557278
0.524714
0.492211
0.459811
0.427499
0.395316
0.363241
0.331318
0.29952
0.267885
0.236382
0.205045
0.173834
0.142779
0.111835
0.0810615
0.050378
0.021062
-14.5628
-15.2385
-15.9953
-16.9837
-18.1712
-19.528
-21.0222
-22.6258
-24.3109
-26.0506
-27.8155
-29.5722
-31.2741
-32.867
-34.2902
-35.485
-36.3944
-36.9519
-37.0809
-36.7113
-35.8039
-34.3659
-32.4371
-30.0852
-27.3976
-24.4743
-21.4172
-18.323
-15.2783
-12.3566
-9.61752
-7.10569
-4.84863
-2.85333
-1.10707
0.417564
1.7472
2.89504
3.87133
4.69297
5.37752
5.94155
6.40006
6.76632
7.05213
7.26814
7.42404
7.5286
7.58968
7.61424
7.60838
7.57737
7.52573
7.45733
7.37544
7.28281
7.18177
7.07425
6.9619
6.84607
6.72791
6.60835
6.48819
6.36807
6.24852
6.12998
6.0128
5.89725
5.78354
5.67184
5.56226
5.45489
5.34979
5.24697
5.14645
5.04821
4.95223
4.85849
4.76693
4.67752
4.59021
4.50495
4.42168
4.34036
4.26094
4.18337
4.10761
4.03361
3.96135
3.89079
3.8219
3.75464
3.689
3.62496
3.56248
3.50156
3.44217
3.3843
3.32793
3.27304
3.2196
3.16761
3.11702
3.06783
3.02
2.9735
2.9283
2.88436
2.84165
2.80012
2.75974
2.72046
2.68223
2.64502
2.60876
2.57341
2.53891
2.50523
2.4723
2.44008
2.40851
2.37755
2.34713
2.31723
2.28778
2.25874
2.23006
2.20171
2.17362
2.14578
2.11812
2.09063
2.06326
2.03597
2.00875
1.98156
1.95437
1.92716
1.8999
1.87259
1.84518
1.81769
1.79007
1.76233
1.73445
1.70642
1.67823
1.64988
1.62135
1.59264
1.56375
1.53468
1.50542
1.47597
1.44633
1.4165
1.38648
1.35628
1.32588
1.29532
1.26456
1.23364
1.20254
1.17128
1.13985
1.10828
1.07655
1.04469
1.01269
0.980573
0.948327
0.91599
0.883542
0.851026
0.818422
0.785776
0.753066
0.720344
0.687586
0.654846
0.6221
0.589404
0.556732
0.524142
0.491605
0.459182
0.42684
0.394638
0.362539
0.330605
0.298792
0.26716
0.235659
0.204348
0.173171
0.142183
0.111329
0.0807055
0.0502106
0.0213544
-15.8468
-16.4906
-17.2149
-18.1737
-19.3256
-20.6482
-22.1135
-23.6968
-25.3739
-27.1202
-28.9094
-30.707
-32.4702
-34.1395
-35.6506
-36.9413
-37.9504
-38.6042
-38.8092
-38.484
-37.5813
-36.109
-34.1124
-31.6652
-28.8615
-25.8073
-22.6117
-19.3793
-16.2068
-13.1772
-10.3557
-7.78557
-5.48451
-3.44394
-1.64006
-0.0546338
1.32262
2.50417
3.50808
4.3534
5.05863
5.64089
6.11568
6.49681
6.79654
7.02583
7.19454
7.31148
7.38449
7.42051
7.42557
7.40494
7.36313
7.30401
7.23087
7.14647
7.05319
6.95299
6.84753
6.7382
6.62617
6.51241
6.39772
6.28277
6.16811
6.05417
5.94134
5.82989
5.72005
5.61199
5.50585
5.40171
5.29965
5.1997
5.10186
5.00615
4.91255
4.82104
4.73158
4.64414
4.55867
4.47514
4.3935
4.31371
4.23573
4.15951
4.08502
4.01223
3.9411
3.87161
3.80372
3.73742
3.67269
3.6095
3.54784
3.48769
3.42904
3.37187
3.31617
3.26192
3.20909
3.15768
3.10766
3.059
3.01168
2.96568
2.92094
2.87746
2.83518
2.79407
2.75408
2.71518
2.67732
2.64045
2.60452
2.56948
2.53529
2.50189
2.46923
2.43726
2.40593
2.37519
2.34499
2.31528
2.28602
2.25715
2.22863
2.20042
2.17247
2.14474
2.1172
2.08981
2.06253
2.03534
2.00819
1.98107
1.95394
1.92678
1.89958
1.8723
1.84494
1.81747
1.78989
1.76217
1.73431
1.7063
1.67812
1.64978
1.62126
1.59257
1.56369
1.53462
1.50536
1.47592
1.44627
1.41645
1.38642
1.35622
1.32582
1.29525
1.26449
1.23356
1.20245
1.17119
1.13975
1.10817
1.07643
1.04456
1.01254
0.980411
0.948146
0.91579
0.883319
0.85078
0.818149
0.785476
0.752736
0.719985
0.687194
0.654423
0.621641
0.588913
0.556205
0.523584
0.491013
0.458562
0.42619
0.393965
0.361842
0.329894
0.298068
0.266437
0.234942
0.203656
0.172515
0.141593
0.110827
0.0803341
0.0499893
0.021464
-17.0908
-17.6921
-18.3834
-19.3122
-20.4333
-21.7279
-23.1718
-24.7433
-26.4217
-28.1839
-30.0052
-31.8556
-33.6883
-35.4446
-37.0552
-38.4546
-39.5768
-40.336
-40.6264
-40.3505
-39.4556
-37.951
-35.8877
-33.3437
-30.4174
-27.2223
-23.8771
-20.4999
-17.2004
-14.0692
-11.1701
-8.53632
-6.1708
-4.05525
-2.18048
-0.542249
0.874125
2.08763
3.1187
3.98762
4.71365
5.31455
5.80632
6.20319
6.51781
6.76139
6.9439
7.07421
7.16013
7.20857
7.22553
7.21626
7.18523
7.13633
7.07284
6.99757
6.91289
6.8208
6.72299
6.62088
6.51566
6.40832
6.29968
6.19044
6.08117
5.97232
5.86427
5.75733
5.65174
5.54769
5.44532
5.34473
5.246
5.14918
5.0543
4.96136
4.87036
4.78129
4.69413
4.60884
4.5254
4.44377
4.36391
4.28579
4.20938
4.13465
4.06155
3.99007
3.92017
3.85184
3.78505
3.71979
3.65604
3.59378
3.533
3.47368
3.41583
3.35941
3.30442
3.25084
3.19867
3.14787
3.09843
3.05033
3.00355
2.95804
2.9138
2.87077
2.82893
2.78824
2.74866
2.71014
2.67264
2.63611
2.60051
2.56578
2.53189
2.49876
2.46637
2.43465
2.40355
2.37303
2.34303
2.31352
2.28443
2.25572
2.22736
2.19929
2.17147
2.14386
2.11643
2.08913
2.06194
2.03483
2.00775
1.98069
1.95362
1.92652
1.89936
1.87212
1.84479
1.81736
1.7898
1.7621
1.73426
1.70627
1.6781
1.64977
1.62126
1.59258
1.56369
1.53463
1.50537
1.47593
1.44629
1.41646
1.38643
1.35623
1.32583
1.29525
1.26448
1.23355
1.20244
1.17117
1.13972
1.10813
1.07637
1.04449
1.01245
0.980303
0.948013
0.915638
0.883138
0.850576
0.817912
0.785213
0.752435
0.719653
0.686822
0.654019
0.621194
0.588434
0.555684
0.523032
0.49042
0.457941
0.425533
0.393286
0.361135
0.329175
0.297333
0.265706
0.234213
0.202957
0.171851
0.140996
0.110309
0.079937
0.0497098
0.0214307
-18.2286
-18.7818
-19.4397
-20.3438
-21.4383
-22.7121
-24.1423
-25.7108
-27.3987
-29.1852
-31.0476
-32.9548
-34.8657
-36.7165
-38.4348
-39.951
-41.1932
-42.0673
-42.4447
-42.2218
-41.3402
-39.8112
-37.6882
-35.0516
-32.0031
-28.6652
-25.1734
-21.6592
-18.2438
-15.0176
-12.0342
-9.31502
-6.85774
-4.66183
-2.72881
-1.04529
0.407912
1.65224
2.70969
3.60169
4.34831
4.96792
5.47699
5.89015
6.22032
6.4789
6.67596
6.82038
6.91998
6.98162
7.01126
7.0141
6.99463
6.95671
6.90362
6.83818
6.7628
6.67948
6.58995
6.49564
6.39778
6.29738
6.19528
6.09221
5.98875
5.88537
5.78248
5.6804
5.57938
5.47963
5.38131
5.28453
5.18939
5.09594
5.00422
4.91425
4.82605
4.7396
4.65489
4.57192
4.49064
4.41105
4.33311
4.25678
4.18206
4.10891
4.0373
3.96722
3.89865
3.83156
3.76595
3.70179
3.63908
3.57781
3.51796
3.45953
3.4025
3.34688
3.29263
3.23977
3.18826
3.13811
3.08927
3.04175
2.99551
2.95053
2.90678
2.86422
2.82283
2.78256
2.74338
2.70524
2.66811
2.63193
2.59665
2.56223
2.52863
2.49578
2.46364
2.43217
2.4013
2.371
2.3412
2.31187
2.28295
2.25441
2.22619
2.19826
2.17056
2.14307
2.11574
2.08854
2.06143
2.0344
2.00739
1.98039
1.95337
1.92632
1.8992
1.872
1.8447
1.8173
1.78976
1.76209
1.73426
1.70628
1.67813
1.64981
1.6213
1.59262
1.56375
1.53469
1.50543
1.47599
1.44634
1.41652
1.38649
1.35628
1.32587
1.2953
1.26452
1.23359
1.20246
1.17118
1.13972
1.10812
1.07635
1.04445
1.01239
0.98023
0.947916
0.915519
0.88299
0.850402
0.817705
0.784975
0.752159
0.719345
0.686473
0.653634
0.620767
0.58797
0.555178
0.52249
0.489838
0.457327
0.424883
0.392612
0.360432
0.328457
0.2966
0.264975
0.233487
0.202258
0.171187
0.140395
0.109781
0.0795158
0.0493859
0.0212876
-19.2094
-19.7128
-20.3415
-21.2226
-22.2975
-23.5573
-24.9811
-26.5537
-28.2579
-30.0747
-31.9812
-33.9512
-35.9403
-37.8871
-39.7146
-41.3487
-42.713
-43.6979
-44.1636
-43.9966
-43.137
-41.5958
-39.4254
-36.7074
-33.5467
-30.0801
-26.4591
-22.8267
-19.3066
-15.9812
-12.8945
-10.0707
-7.52557
-5.26481
-3.28018
-1.55478
-0.0671005
1.2062
2.2886
3.20263
3.96917
4.60715
5.13349
5.56312
5.90916
6.18316
6.39523
6.55427
6.66806
6.74341
6.78626
6.80178
6.79441
6.768
6.72585
6.67078
6.6052
6.53114
6.45035
6.3643
6.27421
6.18114
6.08596
5.9894
5.89207
5.79447
5.69703
5.60007
5.50387
5.40866
5.3146
5.22184
5.13046
5.04056
4.95217
4.86534
4.78007
4.69639
4.61428
4.53374
4.45475
4.3773
4.30137
4.22695
4.154
4.08252
4.01249
3.94389
3.8767
3.81093
3.74654
3.68355
3.62194
3.56169
3.50282
3.44531
3.38915
3.33435
3.28088
3.22875
3.17794
3.12844
3.08023
3.0333
2.98761
2.94316
2.89991
2.85783
2.81689
2.77705
2.73827
2.70052
2.66374
2.62791
2.59295
2.55884
2.52552
2.49295
2.46107
2.42983
2.39919
2.3691
2.33949
2.31035
2.2816
2.25321
2.22513
2.19733
2.16975
2.14237
2.11514
2.08804
2.06101
2.03405
2.0071
1.98017
1.9532
1.92619
1.89911
1.87195
1.84468
1.8173
1.78978
1.76213
1.73432
1.70635
1.67821
1.6499
1.6214
1.59273
1.56385
1.5348
1.50554
1.4761
1.44645
1.41663
1.38659
1.35638
1.32597
1.29539
1.2646
1.23366
1.20252
1.17124
1.13976
1.10816
1.07636
1.04446
1.01237
0.980192
0.947849
0.915431
0.882867
0.850254
0.817516
0.784757
0.751897
0.719049
0.68613
0.653256
0.620339
0.587506
0.554665
0.521943
0.489244
0.456703
0.424218
0.391923
0.35971
0.327723
0.295846
0.264225
0.232738
0.20154
0.170499
0.139772
0.109225
0.0790607
0.0490123
0.0210569
-19.9996
-20.4542
-21.0558
-21.9198
-22.9799
-24.2316
-25.655
-27.2365
-28.9611
-30.8106
-32.7632
-34.7907
-36.8551
-38.8919
-40.8215
-42.565
-44.0406
-45.1315
-45.6784
-45.5691
-44.7422
-43.2033
-41.0022
-38.2222
-34.9744
-31.4068
-27.688
-23.958
-20.3371
-16.902
-13.7061
-10.7913
-8.17405
-5.8554
-3.82412
-2.06088
-0.542044
0.757548
1.8628
2.79729
3.58263
4.23828
4.78148
5.2274
5.58932
5.87883
6.10609
6.27995
6.40818
6.49753
6.5539
6.5824
6.58746
6.57292
6.54205
6.49768
6.44224
6.37778
6.30606
6.22856
6.14655
6.0611
5.9731
5.8833
5.79234
5.70074
5.60894
5.5173
5.42611
5.3356
5.24597
5.15737
5.06991
4.98368
4.89875
4.81517
4.73296
4.65214
4.57272
4.49471
4.41809
4.34287
4.26904
4.19658
4.12548
4.05574
3.98734
3.92027
3.85453
3.79011
3.72701
3.66521
3.60473
3.54556
3.48769
3.43113
3.37586
3.3219
3.26923
3.21785
3.16775
3.11892
3.07134
3.02501
2.97989
2.93597
2.89323
2.85163
2.81113
2.77172
2.73334
2.69597
2.65955
2.62405
2.58942
2.55561
2.52258
2.49027
2.45864
2.42763
2.39721
2.36732
2.3379
2.30893
2.28034
2.25211
2.22417
2.19649
2.16903
2.14175
2.11461
2.0876
2.06065
2.03375
2.00687
1.97999
1.95307
1.92611
1.89906
1.87193
1.84469
1.81734
1.78984
1.7622
1.7344
1.70645
1.67831
1.65001
1.62152
1.59285
1.56398
1.53493
1.50567
1.47623
1.44658
1.41676
1.38671
1.35651
1.32608
1.2955
1.2647
1.23376
1.20261
1.17132
1.13983
1.10821
1.0764
1.04448
1.01237
0.980173
0.947803
0.915361
0.882763
0.850122
0.817347
0.784555
0.751652
0.718768
0.685803
0.65289
0.619924
0.587052
0.554163
0.521403
0.488657
0.456083
0.423556
0.391235
0.358988
0.326986
0.29509
0.263472
0.231986
0.200815
0.169806
0.139139
0.108654
0.0785812
0.0486063
0.0207613
-20.5778
-20.9864
-21.5656
-22.4147
-23.4657
-24.7146
-26.1418
-27.7352
-29.4814
-31.3626
-33.3564
-35.437
-37.5637
-39.6762
-41.6914
-43.5263
-45.0959
-46.2733
-46.8936
-46.8407
-46.0537
-44.5324
-42.3235
-39.5133
-36.2189
-32.5943
-28.81
-25.0013
-21.2812
-17.7468
-14.4622
-11.4709
-8.79093
-6.42191
-4.35033
-2.55455
-1.00888
0.313552
1.43897
2.39187
3.19451
3.86675
4.42608
4.88782
5.2653
5.57015
5.8125
6.00117
6.14386
6.24727
6.31724
6.35884
6.37648
6.37394
6.35453
6.32105
6.27594
6.22126
6.1588
6.09004
6.01629
5.93863
5.85797
5.7751
5.69066
5.60521
5.51919
5.43299
5.34693
5.26124
5.17614
5.09181
5.00836
4.9259
4.84451
4.76425
4.68516
4.60728
4.53062
4.4552
4.38102
4.30809
4.2364
4.16596
4.09676
4.0288
3.96207
3.89658
3.83232
3.76929
3.70749
3.64693
3.58761
3.52953
3.47269
3.41709
3.36274
3.30964
3.25778
3.20716
3.15777
3.10962
3.06268
3.01695
2.9724
2.92902
2.88677
2.84565
2.8056
2.76661
2.72863
2.69164
2.65557
2.62041
2.58608
2.55257
2.51981
2.48776
2.45637
2.42559
2.39538
2.36568
2.33645
2.30765
2.27921
2.25112
2.22331
2.19576
2.1684
2.14123
2.11418
2.08724
2.06036
2.03354
2.00671
1.97988
1.953
1.92608
1.89907
1.87198
1.84475
1.81742
1.78994
1.76233
1.73453
1.70659
1.67846
1.65017
1.62168
1.59302
1.56414
1.5351
1.50583
1.4764
1.44674
1.41692
1.38687
1.35667
1.32623
1.29565
1.26484
1.2339
1.20273
1.17144
1.13992
1.1083
1.07646
1.04453
1.01239
0.980179
0.947775
0.915312
0.882674
0.850007
0.817187
0.784364
0.75141
0.718492
0.685473
0.652523
0.619502
0.586593
0.553648
0.520853
0.488053
0.455447
0.422873
0.390528
0.358241
0.326227
0.294307
0.262695
0.231205
0.200066
0.169083
0.138479
0.10805
0.0780695
0.0481621
0.020414
-20.9365
-21.302
-21.8618
-22.7009
-23.7467
-24.9969
-26.431
-28.0374
-29.8036
-31.7126
-33.7417
-35.8614
-38.0356
-40.2028
-42.28
-44.1798
-45.8139
-47.0558
-47.7294
-47.7282
-46.9895
-45.5085
-43.3274
-40.5336
-37.2488
-33.613
-29.786
-25.9154
-22.1197
-18.5057
-15.1486
-12.0949
-9.36379
-6.95391
-4.84989
-3.02801
-1.46067
-0.119469
1.02294
1.99181
2.8099
3.49734
4.07177
4.54856
4.94104
5.2608
5.51791
5.72114
5.87809
5.99541
6.07888
6.13352
6.16369
6.17318
6.16523
6.14269
6.10796
6.06313
6.01
5.95007
5.88467
5.81488
5.74166
5.66579
5.58797
5.50874
5.42859
5.34791
5.26703
5.18624
5.10574
5.02572
4.94634
4.8677
4.7899
4.71302
4.63711
4.5622
4.48834
4.41555
4.34385
4.27324
4.20373
4.13534
4.06806
4.00191
3.93688
3.87299
3.81023
3.74861
3.68815
3.62884
3.57069
3.51371
3.45791
3.4033
3.34987
3.29763
3.24658
3.19673
3.14807
3.1006
3.0543
3.00916
2.96518
2.92233
2.88059
2.83993
2.80033
2.76175
2.72417
2.68754
2.65182
2.61697
2.58295
2.54973
2.51723
2.48543
2.45427
2.42371
2.3937
2.36419
2.33513
2.30649
2.2782
2.25024
2.22255
2.19511
2.16786
2.14078
2.11381
2.08695
2.06014
2.03337
2.0066
1.97982
1.95298
1.92609
1.89911
1.87204
1.84484
1.81754
1.79006
1.76247
1.73468
1.70675
1.67863
1.65035
1.62185
1.5932
1.56432
1.53528
1.50601
1.47658
1.44692
1.4171
1.38704
1.35684
1.32639
1.29581
1.26499
1.23404
1.20286
1.17156
1.14003
1.1084
1.07654
1.04459
1.01243
0.980196
0.947761
0.915274
0.882598
0.849902
0.817039
0.784183
0.751181
0.718226
0.685156
0.652167
0.61909
0.586141
0.553143
0.520309
0.487456
0.454815
0.422195
0.389822
0.357496
0.325467
0.293523
0.261914
0.230421
0.199312
0.168355
0.13781
0.107435
0.0775409
0.0476989
0.0200318
-21.0792
-21.4045
-21.9494
-22.7799
-23.8247
-25.0793
-26.5223
-28.1417
-29.925
-31.8556
-33.9092
-36.0568
-38.258
-40.4555
-42.5662
-44.4999
-46.1672
-47.4418
-48.1564
-48.2131
-47.5506
-46.1474
-44.0375
-41.301
-38.0568
-34.439
-30.5933
-26.6793
-22.8304
-19.16
-15.7502
-12.6507
-9.88209
-7.4426
-5.3153
-3.47467
-1.8915
-0.536119
0.619703
1.60179
2.4332
3.1342
3.72245
4.21328
4.61997
4.954
5.22535
5.44268
5.61353
5.74445
5.84116
5.90861
5.95114
5.97249
5.97591
5.96421
5.93981
5.9048
5.86097
5.80986
5.7528
5.69089
5.62512
5.55628
5.48508
5.4121
5.33784
5.2627
5.18705
5.11116
5.03528
4.95961
4.88432
4.80952
4.73534
4.66185
4.58913
4.51722
4.44618
4.37604
4.30682
4.23854
4.17124
4.10491
4.03957
3.97524
3.91193
3.84965
3.7884
3.72821
3.66908
3.61103
3.55407
3.49821
3.44345
3.38982
3.33731
3.28595
3.23572
3.18664
3.1387
3.0919
3.04624
3.0017
2.95828
2.91595
2.8747
2.83451
2.79534
2.75718
2.71997
2.6837
2.64832
2.61379
2.58006
2.54711
2.51487
2.48331
2.45237
2.42202
2.39219
2.36286
2.33396
2.30548
2.27732
2.24949
2.22192
2.19458
2.16742
2.14043
2.11354
2.08675
2.05999
2.03329
2.00656
1.97982
1.95302
1.92617
1.89921
1.87217
1.84499
1.8177
1.79024
1.76265
1.73487
1.70696
1.67883
1.65056
1.62206
1.59342
1.56453
1.5355
1.50623
1.4768
1.44713
1.41731
1.38724
1.35704
1.32658
1.296
1.26516
1.23421
1.20302
1.17171
1.14016
1.10852
1.07664
1.04468
1.01248
0.980234
0.94776
0.915253
0.882532
0.84981
0.816897
0.78401
0.750952
0.717963
0.684834
0.651808
0.61867
0.585683
0.552623
0.519752
0.486839
0.454167
0.421493
0.389095
0.356724
0.324683
0.292711
0.26111
0.229609
0.198533
0.167598
0.137117
0.106791
0.0769873
0.0472095
0.0196222
-21.0194
-21.3079
-21.8402
-22.6645
-23.7108
-24.9718
-26.4252
-28.0577
-29.8561
-31.8034
-33.8752
-36.0383
-38.2538
-40.4634
-42.5862
-44.5315
-46.2104
-47.5059
-48.2567
-48.3751
-47.8
-46.4928
-44.476
-41.8177
-38.6274
-35.0379
-31.201
-27.2735
-23.3988
-19.6969
-16.2558
-13.1288
-10.338
-7.88137
-5.74082
-3.88943
-2.29673
-0.932086
0.233321
1.22564
2.06803
2.78074
3.38134
3.88503
4.30493
4.6524
4.93728
5.16811
5.35232
5.49638
5.60591
5.68584
5.74043
5.77339
5.78795
5.78691
5.77268
5.74735
5.71273
5.67035
5.62156
5.56749
5.50912
5.44727
5.38267
5.31592
5.24752
5.17791
5.10747
5.03648
4.96522
4.89389
4.82268
4.75172
4.68115
4.61105
4.54152
4.47261
4.40438
4.33689
4.27016
4.20422
4.13911
4.07485
4.01145
3.94895
3.88735
3.82668
3.76695
3.70819
3.6504
3.59361
3.53783
3.48308
3.42937
3.37673
3.32514
3.27464
3.22523
3.17691
3.12969
3.08357
3.03853
2.99459
2.95172
2.90992
2.86915
2.82942
2.79067
2.7529
2.71607
2.68015
2.64508
2.61086
2.57741
2.54472
2.51272
2.48139
2.45066
2.4205
2.39086
2.3617
2.33295
2.3046
2.27657
2.24886
2.22139
2.19415
2.16708
2.14017
2.11334
2.08662
2.05991
2.03326
2.00657
1.97987
1.9531
1.92628
1.89934
1.87232
1.84515
1.81788
1.79043
1.76286
1.73508
1.70717
1.67905
1.65078
1.62228
1.59364
1.56475
1.53573
1.50644
1.47702
1.44734
1.41753
1.38745
1.35725
1.32678
1.29619
1.26534
1.23439
1.20318
1.17187
1.1403
1.10865
1.07674
1.04477
1.01254
0.980278
0.947769
0.915239
0.882476
0.849727
0.816767
0.783848
0.750736
0.717711
0.684526
0.651461
0.618262
0.585235
0.552115
0.519206
0.486233
0.453526
0.420798
0.388374
0.355958
0.323902
0.291902
0.260306
0.228798
0.197754
0.166841
0.136421
0.106144
0.0764281
0.0467141
0.0191982
-20.7751
-21.03
-21.5527
-22.3714
-23.4211
-24.6902
-26.1552
-27.8012
-29.6136
-31.575
-33.6598
-35.8347
-38.0564
-40.2687
-42.3928
-44.3392
-46.0202
-47.3212
-48.096
-48.2619
-47.7613
-46.5492
-44.6324
-42.0657
-38.9484
-35.4116
-31.606
-27.6916
-23.8172
-20.1084
-16.6582
-13.5229
-10.726
-8.26542
-6.12219
-4.2684
-2.67269
-1.30389
-0.132878
0.866541
1.71744
2.43987
3.05121
3.5664
3.99839
4.35833
4.65589
4.89947
5.09639
5.25299
5.37485
5.46678
5.53303
5.57724
5.60264
5.61198
5.60769
5.59184
5.56624
5.53244
5.49178
5.44542
5.39435
5.33941
5.28133
5.22073
5.15814
5.09401
5.02873
4.9626
4.89592
4.82889
4.76173
4.69458
4.62759
4.56087
4.4945
4.42857
4.36315
4.29828
4.23403
4.17042
4.10749
4.04528
3.98382
3.92313
3.86324
3.80418
3.74596
3.68862
3.63217
3.57663
3.52203
3.46839
3.41573
3.36406
3.31339
3.26376
3.21515
3.16759
3.12108
3.07563
3.03122
2.98786
2.94553
2.90424
2.86395
2.82466
2.78633
2.74895
2.71248
2.67689
2.64214
2.60821
2.57503
2.54259
2.51082
2.47971
2.44917
2.4192
2.38972
2.36072
2.33211
2.30389
2.27598
2.24838
2.221
2.19385
2.16685
2.14001
2.11325
2.08658
2.05992
2.03331
2.00666
1.98
1.95325
1.92646
1.89953
1.87254
1.84537
1.81812
1.79067
1.76311
1.73533
1.70743
1.6793
1.65105
1.62254
1.5939
1.56501
1.53599
1.50669
1.47728
1.44759
1.41778
1.38768
1.35748
1.327
1.29642
1.26555
1.2346
1.20336
1.17205
1.14046
1.1088
1.07687
1.04489
1.01262
0.980342
0.947791
0.915242
0.882429
0.849656
0.816641
0.783693
0.75052
0.717462
0.684213
0.651112
0.617845
0.584781
0.551594
0.518648
0.485608
0.452868
0.420081
0.387633
0.355165
0.3231
0.291067
0.259482
0.227962
0.196956
0.16606
0.135708
0.105475
0.0758532
0.0462039
0.0187629
-20.3673
-20.5909
-21.1068
-21.9216
-22.9774
-24.2567
-25.735
-27.3956
-29.222
-31.1956
-33.2905
-35.4713
-37.6949
-39.903
-42.0195
-43.9575
-45.6296
-46.9277
-47.7127
-47.9155
-47.4813
-46.359
-44.5411
-42.0708
-39.038
-35.5685
-31.8142
-27.9352
-24.0846
-20.3923
-16.9546
-13.8302
-11.0435
-8.5923
-6.45705
-4.60923
-3.01706
-1.6492
-0.476574
0.526791
1.38366
2.11376
2.73411
3.25937
3.7022
4.07352
4.38281
4.6383
4.84716
5.01564
5.1492
5.2526
5.33001
5.38505
5.4209
5.44029
5.44563
5.43899
5.42219
5.39676
5.36406
5.32525
5.28134
5.23318
5.18151
5.12697
5.0701
5.01137
4.95117
4.88984
4.82767
4.7649
4.70174
4.63836
4.57491
4.51152
4.44828
4.3853
4.32265
4.26038
4.19857
4.13727
4.0765
4.01633
3.95678
3.89789
3.8397
3.78222
3.7255
3.66957
3.61444
3.56015
3.50672
3.45418
3.40254
3.35184
3.30209
3.25331
3.20551
3.1587
3.11289
3.06809
3.0243
2.98151
2.93972
2.89893
2.85911
2.82025
2.78232
2.74532
2.70919
2.67393
2.63948
2.60582
2.5729
2.5407
2.50915
2.47824
2.44788
2.41809
2.38876
2.3599
2.33142
2.30332
2.27552
2.24802
2.22072
2.19365
2.16672
2.13994
2.11323
2.08661
2.05999
2.03342
2.00679
1.98017
1.95343
1.92667
1.89975
1.87277
1.84562
1.81837
1.79092
1.76337
1.73559
1.7077
1.67957
1.65131
1.6228
1.59417
1.56527
1.53625
1.50695
1.47754
1.44783
1.41803
1.38792
1.35772
1.32722
1.29664
1.26576
1.23481
1.20355
1.17224
1.14062
1.10896
1.07699
1.045
1.01271
0.980412
0.947821
0.915253
0.882392
0.849594
0.816528
0.78355
0.750318
0.717226
0.683915
0.650778
0.617444
0.584342
0.551088
0.518104
0.484996
0.452222
0.419375
0.386901
0.354382
0.322306
0.290241
0.258665
0.227134
0.196165
0.165288
0.135002
0.104814
0.0752844
0.0456996
0.018327
-19.8203
-20.0142
-20.5256
-21.3388
-22.4028
-23.6949
-25.1887
-26.8651
-28.7056
-30.6899
-32.7909
-34.9735
-37.1918
-39.3882
-41.4887
-43.4097
-45.0673
-46.3559
-47.1468
-47.3788
-47.0035
-45.9626
-44.2382
-41.8632
-38.9187
-35.527
-31.8371
-28.0112
-24.2047
-20.5501
-17.1455
-14.0506
-11.29
-8.86112
-6.74423
-4.91053
-3.32825
-1.96628
-0.795945
0.208249
1.06856
1.80423
2.43183
2.96565
3.418
3.79954
4.11953
4.38599
4.60597
4.78557
4.93016
5.04441
5.13244
5.1978
5.24365
5.27269
5.28731
5.28957
5.28127
5.26396
5.23899
5.20753
5.1706
5.12905
5.08364
5.03502
4.98376
4.93031
4.8751
4.81848
4.76074
4.70215
4.64292
4.58324
4.52328
4.46316
4.40301
4.34293
4.283
4.2233
4.1639
4.10486
4.04623
3.98806
3.9304
3.87329
3.81676
3.76086
3.70562
3.65107
3.59725
3.54419
3.49191
3.44046
3.38985
3.34011
3.29125
3.24332
3.1963
3.15024
3.10512
3.06097
3.01778
2.97556
2.93429
2.89399
2.85462
2.81619
2.77866
2.74202
2.70623
2.67128
2.63711
2.60372
2.57104
2.53907
2.50772
2.47701
2.44683
2.41719
2.388
2.35928
2.33091
2.30293
2.27521
2.2478
2.22058
2.19359
2.16671
2.13999
2.11332
2.08675
2.06016
2.03362
2.00701
1.98041
1.95369
1.92695
1.90004
1.87308
1.84592
1.81869
1.79123
1.76369
1.7359
1.70802
1.67987
1.65163
1.6231
1.59448
1.56556
1.53655
1.50724
1.47783
1.44811
1.41831
1.38818