/*--------------------------------*- C++ -*----------------------------------*\
  =========                 |
  \\      /  F ield         | OpenFOAM: The Open Source CFD Toolbox
   \\    /   O peration     | Website:  https://openfoam.org
    \\  /    A nd           | Version:  7
     \\/     M anipulation  |
\*---------------------------------------------------------------------------*/
FoamFile
{
    version     2.0;
    format      ascii;
    class       surfaceScalarField;
    location    "50";
    object      phi;
}
// * * * * * * * * * * * * * * * * * * * * * * * * * * * * * * * * * * * * * //

dimensions      [0 3 -1 0 0 0 0];

internalField   nonuniform List<scalar> 
33502
(
-6.06832e-07
6.07568e-07
-1.30206e-06
6.9529e-07
-1.97318e-06
6.71491e-07
-2.6138e-06
6.4059e-07
-3.22348e-06
6.10122e-07
-3.80235e-06
5.78925e-07
-4.34895e-06
5.47074e-07
-4.86321e-06
5.14339e-07
-5.34376e-06
4.81018e-07
-5.79052e-06
4.46667e-07
-6.20155e-06
4.11312e-07
-6.57583e-06
3.74366e-07
-6.91104e-06
3.3529e-07
-7.20477e-06
2.93749e-07
-7.45391e-06
2.49138e-07
-7.65522e-06
2.01304e-07
-7.80496e-06
1.50127e-07
-7.90048e-06
9.56139e-08
-7.93846e-06
3.84683e-08
-7.91729e-06
-2.09098e-08
-7.83583e-06
-8.1243e-08
-7.69477e-06
-1.40803e-07
-7.49683e-06
-1.9801e-07
-7.24548e-06
-2.51169e-07
-6.94647e-06
-2.9916e-07
-6.60581e-06
-3.4079e-07
-6.23044e-06
-3.7547e-07
-5.82761e-06
-4.02874e-07
-5.40456e-06
-4.23056e-07
-4.96823e-06
-4.36324e-07
-4.525e-06
-4.43208e-07
-4.08061e-06
-4.44366e-07
-3.64003e-06
-4.40566e-07
-3.2074e-06
-4.32634e-07
-2.78597e-06
-4.21462e-07
-2.37809e-06
-4.07963e-07
-1.98516e-06
-3.93038e-07
-1.60787e-06
-3.77476e-07
-1.24616e-06
-3.61893e-07
-8.99492e-07
-3.46953e-07
-5.64871e-07
-3.34878e-07
-2.36591e-07
-3.28673e-07
8.52225e-08
-3.2207e-07
3.94215e-07
-3.09207e-07
6.8445e-07
-2.9032e-07
9.5511e-07
-2.70716e-07
1.20767e-06
-2.52557e-07
1.44374e-06
-2.36054e-07
1.66486e-06
-2.21074e-07
1.87233e-06
-2.07407e-07
2.0673e-06
-1.94898e-07
2.25078e-06
-1.83394e-07
2.42367e-06
-1.72802e-07
2.58678e-06
-1.63013e-07
2.74086e-06
-1.53971e-07
2.88656e-06
-1.45596e-07
3.02451e-06
-1.37847e-07
3.15528e-06
-1.30658e-07
3.27938e-06
-1.24e-07
3.39731e-06
-1.17816e-07
3.50949e-06
-1.1208e-07
3.61633e-06
-1.06746e-07
3.71822e-06
-1.01789e-07
3.81548e-06
-9.71705e-08
3.90844e-06
-9.28683e-08
3.99737e-06
-8.88476e-08
4.08254e-06
-8.50902e-08
4.16419e-06
-8.15657e-08
4.24252e-06
-7.82578e-08
4.31773e-06
-7.51406e-08
4.38999e-06
-7.21994e-08
4.45947e-06
-6.94123e-08
4.52629e-06
-6.67664e-08
4.59059e-06
-6.42432e-08
4.65247e-06
-6.18312e-08
4.71203e-06
-5.95154e-08
4.76936e-06
-5.72857e-08
4.82454e-06
-5.51302e-08
4.87761e-06
-5.30401e-08
4.92865e-06
-5.10064e-08
4.97771e-06
-4.90216e-08
5.02482e-06
-4.70797e-08
5.07002e-06
-4.51744e-08
5.11335e-06
-4.33022e-08
5.15483e-06
-4.14581e-08
5.19449e-06
-3.96411e-08
5.23236e-06
-3.78472e-08
5.26845e-06
-3.60776e-08
5.3028e-06
-3.43295e-08
5.33542e-06
-3.26056e-08
5.36634e-06
-3.09042e-08
5.39558e-06
-2.92295e-08
5.42317e-06
-2.75803e-08
5.44914e-06
-2.5962e-08
5.47352e-06
-2.43738e-08
5.49635e-06
-2.28219e-08
5.51766e-06
-2.13054e-08
5.5375e-06
-1.98312e-08
5.5559e-06
-1.83978e-08
5.57292e-06
-1.70125e-08
5.5886e-06
-1.56732e-08
5.60299e-06
-1.43872e-08
5.61615e-06
-1.31515e-08
5.62812e-06
-1.19731e-08
5.63897e-06
-1.08479e-08
5.64875e-06
-9.78291e-09
5.65753e-06
-8.77276e-09
5.66535e-06
-7.82392e-09
5.67229e-06
-6.93003e-09
5.67838e-06
-6.09718e-09
5.6837e-06
-5.31791e-09
5.6883e-06
-4.59803e-09
5.69223e-06
-3.92909e-09
5.69554e-06
-3.31676e-09
5.69829e-06
-2.75174e-09
5.70053e-06
-2.2398e-09
5.7023e-06
-1.77104e-09
5.70365e-06
-1.35171e-09
5.70462e-06
-9.72096e-10
5.70526e-06
-6.4064e-10
5.70561e-06
-3.51359e-10
5.70572e-06
-1.13018e-10
5.70562e-06
9.5262e-11
5.70534e-06
2.75359e-10
5.7049e-06
4.40167e-10
5.70431e-06
5.81562e-10
5.7036e-06
7.11195e-10
5.70278e-06
8.2e-10
5.70186e-06
9.1994e-10
5.70085e-06
1.00129e-09
5.69978e-06
1.0764e-09
5.69864e-06
1.1349e-09
5.69745e-06
1.18954e-09
5.69621e-06
1.22925e-09
5.69495e-06
1.2672e-09
5.69365e-06
1.29158e-09
5.69234e-06
1.3161e-09
5.691e-06
1.32856e-09
5.68966e-06
1.343e-09
5.68831e-06
1.3457e-09
5.68696e-06
1.35136e-09
5.68561e-06
1.34614e-09
5.68427e-06
1.34535e-09
5.68293e-06
1.33433e-09
5.68161e-06
1.32888e-09
5.68029e-06
1.31357e-09
5.67899e-06
1.30476e-09
5.6777e-06
1.28631e-09
5.67643e-06
1.27516e-09
5.67517e-06
1.25442e-09
5.67393e-06
1.24165e-09
5.6727e-06
1.21928e-09
5.6715e-06
1.2055e-09
5.67032e-06
1.18199e-09
5.66915e-06
1.16759e-09
5.668e-06
1.14334e-09
5.66688e-06
1.1287e-09
5.66577e-06
1.10402e-09
5.66469e-06
1.08935e-09
5.66361e-06
1.06449e-09
5.66257e-06
1.05007e-09
5.66153e-06
1.02523e-09
5.66053e-06
1.01116e-09
5.65953e-06
9.86533e-10
5.65856e-06
9.73033e-10
5.6576e-06
9.48768e-10
5.65667e-06
9.35878e-10
5.65575e-06
9.12129e-10
5.65485e-06
9.00028e-10
5.65396e-06
8.7689e-10
5.6531e-06
8.65541e-10
5.65224e-06
8.43122e-10
5.65141e-06
8.32659e-10
5.65059e-06
8.10984e-10
5.64979e-06
8.01266e-10
5.64899e-06
7.80373e-10
5.64822e-06
7.71479e-10
5.64746e-06
7.51312e-10
5.64671e-06
7.43006e-10
5.64598e-06
7.23525e-10
5.64526e-06
7.15833e-10
5.64455e-06
6.96887e-10
5.64386e-06
6.89447e-10
5.64318e-06
6.7086e-10
5.64252e-06
6.63599e-10
5.64186e-06
6.45056e-10
5.64123e-06
6.37431e-10
5.6406e-06
6.18511e-10
5.64e-06
6.10174e-10
5.6394e-06
5.9009e-10
5.63882e-06
5.79809e-10
5.63826e-06
5.57025e-10
5.63772e-06
5.42685e-10
5.6372e-06
5.13364e-10
5.63672e-06
4.88501e-10
5.63627e-06
4.41761e-10
5.63588e-06
3.85615e-10
5.6356e-06
2.80092e-10
5.63552e-06
9.12393e-11
-4.17264e-10
-6.49161e-07
1.25721e-06
-1.28197e-06
1.32822e-06
-1.90727e-06
1.29699e-06
-2.51172e-06
1.24544e-06
-3.08881e-06
1.18741e-06
-3.63543e-06
1.12598e-06
-4.1503e-06
1.06219e-06
-4.6326e-06
9.97072e-07
-5.08201e-06
9.30673e-07
-5.49796e-06
8.62996e-07
-5.87947e-06
7.93274e-07
-6.22553e-06
7.20535e-07
-6.53383e-06
6.44012e-07
-6.80241e-06
5.62364e-07
-7.02798e-06
4.74922e-07
-7.20752e-06
3.80951e-07
-7.33752e-06
2.80316e-07
-7.41478e-06
1.73323e-07
-7.43657e-06
6.05768e-08
-7.40106e-06
-5.61816e-08
-7.30753e-06
-1.74599e-07
-7.15672e-06
-2.91547e-07
-6.95093e-06
-4.03756e-07
-6.69399e-06
-5.08151e-07
-6.39108e-06
-6.02099e-07
-6.04837e-06
-6.83595e-07
-5.67259e-06
-7.51272e-07
-5.2709e-06
-8.04582e-07
-4.85034e-06
-8.43595e-07
-4.41769e-06
-8.68968e-07
-3.9791e-06
-8.81773e-07
-3.54004e-06
-8.83418e-07
-3.10509e-06
-8.75497e-07
-2.67797e-06
-8.59763e-07
-2.26145e-06
-8.38e-07
-1.85747e-06
-8.12008e-07
-1.46709e-06
-7.83491e-07
-1.09055e-06
-7.54118e-07
-7.26982e-07
-7.25559e-07
-3.7294e-07
-7.01123e-07
-2.7949e-08
-6.79962e-07
2.9884e-07
-6.5559e-07
6.02019e-07
-6.25343e-07
8.84318e-07
-5.91617e-07
1.15098e-06
-5.57043e-07
1.4036e-06
-5.23394e-07
1.64267e-06
-4.91646e-07
1.86869e-06
-4.62091e-07
2.08232e-06
-4.34686e-07
2.28424e-06
-4.09324e-07
2.47522e-06
-3.85839e-07
2.65596e-06
-3.641e-07
2.82717e-06
-3.43954e-07
2.9895e-06
-3.25293e-07
3.14359e-06
-3.0799e-07
3.29001e-06
-2.91953e-07
3.42931e-06
-2.77075e-07
3.562e-06
-2.6328e-07
3.68856e-06
-2.50475e-07
3.8094e-06
-2.38592e-07
3.92495e-06
-2.27551e-07
4.03557e-06
-2.17294e-07
4.1416e-06
-2.0775e-07
4.24337e-06
-1.98866e-07
4.34115e-06
-1.90582e-07
4.43522e-06
-1.82852e-07
4.52581e-06
-1.75621e-07
4.61315e-06
-1.68849e-07
4.69745e-06
-1.6249e-07
4.77887e-06
-1.56509e-07
4.85759e-06
-1.50865e-07
4.93375e-06
-1.45526e-07
5.00749e-06
-1.4046e-07
5.07893e-06
-1.35638e-07
5.14817e-06
-1.31032e-07
5.21531e-06
-1.26619e-07
5.28044e-06
-1.22374e-07
5.34362e-06
-1.18278e-07
5.40492e-06
-1.14312e-07
5.4644e-06
-1.10459e-07
5.52211e-06
-1.06704e-07
5.57809e-06
-1.03033e-07
5.63238e-06
-9.94374e-08
5.685e-06
-9.59049e-08
5.73599e-06
-9.24291e-08
5.78537e-06
-8.90025e-08
5.83316e-06
-8.56215e-08
5.87938e-06
-8.2281e-08
5.92404e-06
-7.89806e-08
5.96717e-06
-7.57174e-08
6.00877e-06
-7.24934e-08
6.04886e-06
-6.93078e-08
6.08745e-06
-6.61646e-08
6.12456e-06
-6.30643e-08
6.16021e-06
-6.00126e-08
6.1944e-06
-5.70107e-08
6.22717e-06
-5.40653e-08
6.25852e-06
-5.11784e-08
6.28849e-06
-4.83569e-08
6.31708e-06
-4.56027e-08
6.34434e-06
-4.29231e-08
6.37027e-06
-4.03191e-08
6.39492e-06
-3.77979e-08
6.41831e-06
-3.53597e-08
6.44048e-06
-3.3011e-08
6.46145e-06
-3.0751e-08
6.48126e-06
-2.85852e-08
6.49995e-06
-2.65118e-08
6.51756e-06
-2.45354e-08
6.53412e-06
-2.26529e-08
6.54967e-06
-2.08679e-08
6.56425e-06
-1.91762e-08
6.5779e-06
-1.75806e-08
6.59066e-06
-1.60757e-08
6.60257e-06
-1.46638e-08
6.61368e-06
-1.33387e-08
6.624e-06
-1.21022e-08
6.6336e-06
-1.09476e-08
6.64251e-06
-9.8764e-09
6.65075e-06
-8.88143e-09
6.65836e-06
-7.96315e-09
6.66536e-06
-7.11254e-09
6.67179e-06
-6.33074e-09
6.67767e-06
-5.60939e-09
6.68306e-06
-4.94862e-09
6.68799e-06
-4.33974e-09
6.69248e-06
-3.78396e-09
6.69658e-06
-3.27308e-09
6.7003e-06
-2.80887e-09
6.70369e-06
-2.38334e-09
6.70677e-06
-1.99871e-09
6.70955e-06
-1.64714e-09
6.71207e-06
-1.33127e-09
6.71435e-06
-1.04348e-09
6.71641e-06
-7.86832e-10
6.71826e-06
-5.54018e-10
6.71992e-06
-3.4909e-10
6.72142e-06
-1.662e-10
6.72278e-06
-8.40887e-12
6.72399e-06
1.33877e-10
6.72509e-06
2.57422e-10
6.72607e-06
3.69287e-10
6.72695e-06
4.65038e-10
6.72775e-06
5.51474e-10
6.72845e-06
6.2388e-10
6.72908e-06
6.88933e-10
6.72965e-06
7.41745e-10
6.73015e-06
7.88915e-10
6.7306e-06
8.25393e-10
6.73101e-06
8.57667e-10
6.73137e-06
8.80606e-10
6.7317e-06
9.00627e-10
6.73199e-06
9.12501e-10
6.73226e-06
9.22512e-10
6.7325e-06
9.25427e-10
6.73272e-06
9.27433e-10
6.73293e-06
9.23262e-10
6.73312e-06
9.18921e-10
6.7333e-06
9.09216e-10
6.73347e-06
9.00028e-10
6.73363e-06
8.86197e-10
6.73379e-06
8.73365e-10
6.73394e-06
8.56531e-10
6.73409e-06
8.41174e-10
6.73424e-06
8.22394e-10
6.73438e-06
8.05355e-10
6.73453e-06
7.85406e-10
6.73467e-06
7.67503e-10
6.73482e-06
7.4716e-10
6.73496e-06
7.28936e-10
6.73511e-06
7.08678e-10
6.73526e-06
6.90689e-10
6.73541e-06
6.71037e-10
6.73556e-06
6.53547e-10
6.73572e-06
6.3469e-10
6.73587e-06
6.18019e-10
6.73603e-06
6.00258e-10
6.73619e-06
5.84432e-10
6.73634e-06
5.67709e-10
6.73651e-06
5.52846e-10
6.73666e-06
5.37261e-10
6.73683e-06
5.23154e-10
6.73699e-06
5.08369e-10
6.73716e-06
4.94873e-10
6.73732e-06
4.80706e-10
6.73749e-06
4.67277e-10
6.73765e-06
4.52961e-10
6.73782e-06
4.38937e-10
6.73799e-06
4.23598e-10
6.73817e-06
4.0744e-10
6.73834e-06
3.88829e-10
6.73852e-06
3.67608e-10
6.73871e-06
3.41262e-10
6.73891e-06
3.07446e-10
6.73913e-06
2.60886e-10
6.73937e-06
1.93035e-10
6.73965e-06
8.61122e-11
6.74004e-06
-1.03903e-10
6.74057e-06
-4.44004e-10
-1.28477e-09
-6.01034e-07
1.85845e-06
-1.18864e-06
1.91621e-06
-1.76106e-06
1.86998e-06
-2.31301e-06
1.79761e-06
-2.83943e-06
1.71448e-06
-3.33862e-06
1.62544e-06
-3.80939e-06
1.5335e-06
-4.25189e-06
1.43983e-06
-4.66571e-06
1.34505e-06
-5.05082e-06
1.24846e-06
-5.40625e-06
1.14903e-06
-5.73048e-06
1.04533e-06
-6.02162e-06
9.35364e-07
-6.27677e-06
8.17675e-07
-6.49257e-06
6.90815e-07
-6.66531e-06
5.5382e-07
-6.79098e-06
4.06351e-07
-6.86606e-06
2.48524e-07
-6.88699e-06
8.18425e-08
-6.85134e-06
-9.15828e-08
-6.75794e-06
-2.67835e-07
-6.60738e-06
-4.4205e-07
-6.40203e-06
-6.09098e-07
-6.14588e-06
-7.643e-07
-5.84437e-06
-9.03672e-07
-5.50383e-06
-1.02411e-06
-5.13138e-06
-1.12372e-06
-4.73432e-06
-1.20163e-06
-4.31986e-06
-1.25804e-06
-3.89476e-06
-1.29405e-06
-3.46509e-06
-1.31142e-06
-3.03607e-06
-1.31242e-06
-2.61198e-06
-1.29958e-06
-2.19615e-06
-1.2756e-06
-1.791e-06
-1.24317e-06
-1.39816e-06
-1.20489e-06
-1.01847e-06
-1.16323e-06
-6.51856e-07
-1.12079e-06
-2.9595e-07
-1.08153e-06
4.64022e-08
-1.04352e-06
3.67853e-07
-1.00147e-06
6.67842e-07
-9.55635e-07
9.4965e-07
-9.07223e-07
1.21579e-06
-8.57827e-07
1.46785e-06
-8.09169e-07
1.70675e-06
-7.62337e-07
1.93303e-06
-7.17976e-07
2.14725e-06
-6.76336e-07
2.35e-06
-6.37455e-07
2.54192e-06
-6.01244e-07
2.72366e-06
-5.67578e-07
2.89588e-06
-5.36302e-07
3.05922e-06
-5.07264e-07
3.21427e-06
-4.80311e-07
3.36161e-06
-4.553e-07
3.50179e-06
-4.32089e-07
3.63531e-06
-4.10552e-07
3.76265e-06
-3.90563e-07
3.88423e-06
-3.72009e-07
4.00047e-06
-3.54779e-07
4.11174e-06
-3.38772e-07
4.21839e-06
-3.2389e-07
4.32074e-06
-3.10046e-07
4.41908e-06
-2.97153e-07
4.51368e-06
-2.85134e-07
4.6048e-06
-2.73912e-07
4.69264e-06
-2.63419e-07
4.77743e-06
-2.5359e-07
4.85935e-06
-2.44364e-07
4.93857e-06
-2.35684e-07
5.01525e-06
-2.27499e-07
5.08952e-06
-2.19757e-07
5.16151e-06
-2.12415e-07
5.23134e-06
-2.0543e-07
5.2991e-06
-1.98762e-07
5.36489e-06
-1.92376e-07
5.42879e-06
-1.86239e-07
5.49086e-06
-1.80322e-07
5.55117e-06
-1.74596e-07
5.60977e-06
-1.69038e-07
5.66672e-06
-1.63625e-07
5.72204e-06
-1.5834e-07
5.77579e-06
-1.53164e-07
5.82799e-06
-1.48084e-07
5.87866e-06
-1.43087e-07
5.92784e-06
-1.38164e-07
5.97554e-06
-1.33306e-07
6.02178e-06
-1.28509e-07
6.06658e-06
-1.23767e-07
6.10995e-06
-1.1908e-07
6.15191e-06
-1.14444e-07
6.19247e-06
-1.09863e-07
6.23165e-06
-1.05336e-07
6.26946e-06
-1.00868e-07
6.30592e-06
-9.6461e-08
6.34103e-06
-9.21214e-08
6.37482e-06
-8.78527e-08
6.40731e-06
-8.36617e-08
6.43851e-06
-7.95529e-08
6.46844e-06
-7.55334e-08
6.49713e-06
-7.16076e-08
6.52459e-06
-6.77827e-08
6.55086e-06
-6.40622e-08
6.57595e-06
-6.04527e-08
6.5999e-06
-5.69571e-08
6.62273e-06
-5.35809e-08
6.64447e-06
-5.03255e-08
6.66516e-06
-4.71956e-08
6.68481e-06
-4.41912e-08
6.70347e-06
-4.13155e-08
6.72117e-06
-3.85672e-08
6.73794e-06
-3.59486e-08
6.75382e-06
-3.34567e-08
6.76883e-06
-3.10928e-08
6.78302e-06
-2.88528e-08
6.79641e-06
-2.67372e-08
6.80905e-06
-2.47408e-08
6.82096e-06
-2.28635e-08
6.83218e-06
-2.10994e-08
6.84274e-06
-1.94477e-08
6.85268e-06
-1.79008e-08
6.86202e-06
-1.64574e-08
6.87079e-06
-1.51098e-08
6.87903e-06
-1.3857e-08
6.88677e-06
-1.26907e-08
6.89404e-06
-1.16099e-08
6.90086e-06
-1.06063e-08
6.90726e-06
-9.67976e-09
6.91327e-06
-8.82191e-09
6.91891e-06
-8.03306e-09
6.92421e-06
-7.30488e-09
6.9292e-06
-6.63821e-09
6.93389e-06
-6.02471e-09
6.93831e-06
-5.46584e-09
6.94247e-06
-4.95322e-09
6.9464e-06
-4.48895e-09
6.95011e-06
-4.06454e-09
6.95362e-06
-3.68246e-09
6.95695e-06
-3.33422e-09
6.9601e-06
-3.02354e-09
6.96309e-06
-2.74157e-09
6.96595e-06
-2.49224e-09
6.96868e-06
-2.26651e-09
6.97129e-06
-2.06914e-09
6.97381e-06
-1.89095e-09
6.97623e-06
-1.73751e-09
6.97857e-06
-1.59938e-09
6.98084e-06
-1.48284e-09
6.98304e-06
-1.37817e-09
6.98518e-06
-1.29245e-09
6.98728e-06
-1.21558e-09
6.98933e-06
-1.15533e-09
6.99134e-06
-1.1012e-09
6.99332e-06
-1.06179e-09
6.99527e-06
-1.02614e-09
6.9972e-06
-1.00354e-09
6.9991e-06
-9.82553e-10
7.00099e-06
-9.73323e-10
7.00286e-06
-9.63892e-10
7.00472e-06
-9.65047e-10
7.00657e-06
-9.6432e-10
7.00841e-06
-9.73377e-10
7.01025e-06
-9.79147e-10
7.01208e-06
-9.93919e-10
7.0139e-06
-1.00408e-09
7.01573e-06
-1.02282e-09
7.01755e-06
-1.0359e-09
7.01936e-06
-1.05706e-09
7.02118e-06
-1.07154e-09
7.023e-06
-1.09395e-09
7.02482e-06
-1.10896e-09
7.02663e-06
-1.13161e-09
7.02845e-06
-1.1461e-09
7.03027e-06
-1.16834e-09
7.03208e-06
-1.18201e-09
7.0339e-06
-1.20327e-09
7.03571e-06
-1.21547e-09
7.03753e-06
-1.23553e-09
7.03934e-06
-1.2464e-09
7.04116e-06
-1.26506e-09
7.04297e-06
-1.27429e-09
7.04479e-06
-1.29173e-09
7.0466e-06
-1.29993e-09
7.04841e-06
-1.3164e-09
7.05021e-06
-1.32367e-09
7.05202e-06
-1.33987e-09
7.05383e-06
-1.34744e-09
7.05563e-06
-1.36439e-09
7.05743e-06
-1.37331e-09
7.05924e-06
-1.39308e-09
7.06104e-06
-1.40658e-09
7.06284e-06
-1.43325e-09
7.06465e-06
-1.45713e-09
7.06646e-06
-1.50066e-09
7.06827e-06
-1.55142e-09
7.07011e-06
-1.6387e-09
7.07196e-06
-1.76316e-09
7.07384e-06
-1.98157e-09
7.07575e-06
-2.34446e-09
-3.16369e-09
-5.45958e-07
2.40528e-06
-1.07699e-06
2.44781e-06
-1.59167e-06
2.38499e-06
-2.08646e-06
2.29318e-06
-2.55933e-06
2.18769e-06
-3.00922e-06
2.0758e-06
-3.43635e-06
1.96091e-06
-3.84083e-06
1.84475e-06
-4.22288e-06
1.72743e-06
-4.58204e-06
1.608e-06
-4.91713e-06
1.48471e-06
-5.2266e-06
1.35492e-06
-5.5075e-06
1.21653e-06
-5.75659e-06
1.0669e-06
-5.96972e-06
9.0406e-07
-6.14235e-06
7.26632e-07
-6.26994e-06
5.33922e-07
-6.34754e-06
3.26656e-07
-6.37136e-06
1.05902e-07
-6.33793e-06
-1.24712e-07
-6.24592e-06
-3.59714e-07
-6.09584e-06
-5.92046e-07
-5.8903e-06
-8.14658e-07
-5.63358e-06
-1.02105e-06
-5.33146e-06
-1.20577e-06
-4.99085e-06
-1.36474e-06
-4.61922e-06
-1.4953e-06
-4.22432e-06
-1.59649e-06
-3.8136e-06
-1.66872e-06
-3.39397e-06
-1.71365e-06
-2.97149e-06
-1.73388e-06
-2.55125e-06
-1.73264e-06
-2.13732e-06
-1.71349e-06
-1.73275e-06
-1.68017e-06
-1.33959e-06
-1.63634e-06
-9.59085e-07
-1.58543e-06
-5.91691e-07
-1.53067e-06
-2.36177e-07
-1.47635e-06
1.03706e-07
-1.42144e-06
4.22022e-07
-1.36188e-06
7.19912e-07
-1.2994e-06
9.99676e-07
-1.23545e-06
1.26343e-06
-1.17104e-06
1.51284e-06
-1.1073e-06
1.74897e-06
-1.04536e-06
1.9726e-06
-9.86021e-07
2.18435e-06
-9.29765e-07
2.3848e-06
-8.76823e-07
2.57455e-06
-8.27231e-07
2.75422e-06
-7.80926e-07
2.92442e-06
-7.37776e-07
3.08575e-06
-6.97625e-07
3.2388e-06
-6.60296e-07
3.38413e-06
-6.25615e-07
3.52227e-06
-5.93405e-07
3.65371e-06
-5.63499e-07
3.77893e-06
-5.35732e-07
3.89836e-06
-5.09952e-07
4.01241e-06
-4.86011e-07
4.12145e-06
-4.63773e-07
4.22583e-06
-4.43104e-07
4.32587e-06
-4.23885e-07
4.42187e-06
-4.05998e-07
4.5141e-06
-3.89338e-07
4.60282e-06
-3.73801e-07
4.68825e-06
-3.59294e-07
4.7706e-06
-3.45726e-07
4.85006e-06
-3.33015e-07
4.92683e-06
-3.21083e-07
5.00104e-06
-3.09857e-07
5.07285e-06
-2.9927e-07
5.14239e-06
-2.89259e-07
5.20977e-06
-2.79765e-07
5.27511e-06
-2.70733e-07
5.33849e-06
-2.62114e-07
5.40001e-06
-2.53862e-07
5.45973e-06
-2.45933e-07
5.51772e-06
-2.3829e-07
5.57405e-06
-2.30897e-07
5.62875e-06
-2.23722e-07
5.68188e-06
-2.16737e-07
5.73348e-06
-2.09918e-07
5.78358e-06
-2.03242e-07
5.8322e-06
-1.9669e-07
5.87937e-06
-1.90246e-07
5.92512e-06
-1.83898e-07
5.96946e-06
-1.77634e-07
6.01241e-06
-1.71447e-07
6.05399e-06
-1.65331e-07
6.0942e-06
-1.59282e-07
6.13306e-06
-1.53299e-07
6.17059e-06
-1.47382e-07
6.20679e-06
-1.41533e-07
6.24169e-06
-1.35755e-07
6.27528e-06
-1.30054e-07
6.3076e-06
-1.24433e-07
6.33865e-06
-1.189e-07
6.36846e-06
-1.13461e-07
6.39703e-06
-1.08123e-07
6.4244e-06
-1.02894e-07
6.45057e-06
-9.7782e-08
6.47559e-06
-9.27923e-08
6.49946e-06
-8.79332e-08
6.52222e-06
-8.321e-08
6.5439e-06
-7.86298e-08
6.56451e-06
-7.41967e-08
6.58411e-06
-6.99163e-08
6.6027e-06
-6.57912e-08
6.62034e-06
-6.18256e-08
6.63705e-06
-5.80204e-08
6.65286e-06
-5.43783e-08
6.66781e-06
-5.08984e-08
6.68194e-06
-4.75821e-08
6.69527e-06
-4.44269e-08
6.70785e-06
-4.14328e-08
6.71971e-06
-3.8596e-08
6.73089e-06
-3.59155e-08
6.74141e-06
-3.33862e-08
6.75132e-06
-3.10062e-08
6.76064e-06
-2.87694e-08
6.76941e-06
-2.66726e-08
6.77767e-06
-2.47089e-08
6.78543e-06
-2.28748e-08
6.79274e-06
-2.11631e-08
6.79962e-06
-1.957e-08
6.8061e-06
-1.80881e-08
6.81221e-06
-1.67138e-08
6.81797e-06
-1.54397e-08
6.82341e-06
-1.42626e-08
6.82856e-06
-1.31753e-08
6.83343e-06
-1.21748e-08
6.83805e-06
-1.12542e-08
6.84243e-06
-1.04108e-08
6.84661e-06
-9.63774e-09
6.85059e-06
-8.93299e-09
6.8544e-06
-8.28988e-09
6.85804e-06
-7.70661e-09
6.86154e-06
-7.1767e-09
6.86491e-06
-6.69883e-09
6.86816e-06
-6.26715e-09
6.8713e-06
-5.88075e-09
6.87435e-06
-5.53381e-09
6.87731e-06
-5.22571e-09
6.8802e-06
-4.95095e-09
6.88302e-06
-4.70932e-09
6.88578e-06
-4.49564e-09
6.8885e-06
-4.31004e-09
6.89117e-06
-4.14759e-09
6.8938e-06
-4.00876e-09
6.89641e-06
-3.88894e-09
6.89898e-06
-3.78881e-09
6.90154e-06
-3.704e-09
6.90408e-06
-3.63545e-09
6.9066e-06
-3.57912e-09
6.90911e-06
-3.53608e-09
6.91162e-06
-3.50248e-09
6.91411e-06
-3.47961e-09
6.91661e-06
-3.46396e-09
6.9191e-06
-3.45684e-09
6.9216e-06
-3.45493e-09
6.92409e-06
-3.45964e-09
6.92659e-06
-3.46806e-09
6.92909e-06
-3.48151e-09
6.9316e-06
-3.49723e-09
6.93411e-06
-3.51659e-09
6.93663e-06
-3.5373e-09
6.93915e-06
-3.56049e-09
6.94167e-06
-3.58406e-09
6.9442e-06
-3.60912e-09
6.94674e-06
-3.63407e-09
6.94929e-06
-3.65973e-09
6.95184e-06
-3.68468e-09
6.95439e-06
-3.70965e-09
6.95695e-06
-3.73382e-09
6.95951e-06
-3.75751e-09
6.96208e-06
-3.78009e-09
6.96465e-06
-3.80175e-09
6.96723e-06
-3.82251e-09
6.96981e-06
-3.84211e-09
6.9724e-06
-3.86069e-09
6.97498e-06
-3.8779e-09
6.97757e-06
-3.89456e-09
6.98016e-06
-3.90988e-09
6.98276e-06
-3.92479e-09
6.98535e-06
-3.93843e-09
6.98796e-06
-3.95247e-09
6.99055e-06
-3.96572e-09
6.99316e-06
-3.97995e-09
6.99576e-06
-3.99418e-09
6.99837e-06
-4.01113e-09
7.00098e-06
-4.02997e-09
7.00359e-06
-4.05417e-09
7.0062e-06
-4.0843e-09
7.00882e-06
-4.12675e-09
7.01144e-06
-4.18562e-09
7.01407e-06
-4.27371e-09
7.0167e-06
-4.40568e-09
7.01933e-06
-4.61727e-09
7.02194e-06
-4.95556e-09
-5.60834e-09
-4.86383e-07
2.89206e-06
-9.56895e-07
2.91863e-06
-1.41153e-06
2.84032e-06
-1.84926e-06
2.73109e-06
-2.26884e-06
2.60771e-06
-2.67078e-06
2.47807e-06
-3.05569e-06
2.34614e-06
-3.42417e-06
2.21354e-06
-3.77633e-06
2.07993e-06
-4.11155e-06
1.94364e-06
-4.42864e-06
1.80187e-06
-4.72492e-06
1.65174e-06
-4.99758e-06
1.48934e-06
-5.24238e-06
1.31178e-06
-5.4545e-06
1.11627e-06
-5.6287e-06
9.00872e-07
-5.75915e-06
6.64832e-07
-5.8407e-06
4.08251e-07
-5.86793e-06
1.33558e-07
-5.83708e-06
-1.55206e-07
-5.7464e-06
-4.50192e-07
-5.59647e-06
-7.41873e-07
-5.39012e-06
-1.02101e-06
-5.132e-06
-1.27915e-06
-4.82843e-06
-1.50937e-06
-4.48669e-06
-1.70634e-06
-4.11492e-06
-1.86702e-06
-3.72123e-06
-1.99013e-06
-3.31346e-06
-2.07646e-06
-2.89871e-06
-2.12837e-06
-2.48311e-06
-2.14945e-06
-2.0717e-06
-2.14404e-06
-1.66839e-06
-2.1168e-06
-1.27592e-06
-2.07265e-06
-8.95898e-07
-2.01639e-06
-5.29161e-07
-1.9522e-06
-1.75065e-07
-1.88481e-06
1.61995e-07
-1.81345e-06
4.77111e-07
-1.73659e-06
7.72291e-07
-1.65709e-06
1.04939e-06
-1.57653e-06
1.30999e-06
-1.4961e-06
1.55565e-06
-1.41675e-06
1.78766e-06
-1.33936e-06
2.00701e-06
-1.26476e-06
2.21449e-06
-1.19355e-06
2.41079e-06
-1.1261e-06
2.59652e-06
-1.06258e-06
2.77229e-06
-1.00302e-06
2.93868e-06
-9.47339e-07
3.09629e-06
-8.95394e-07
3.24568e-06
-8.47009e-07
3.38738e-06
-8.0199e-07
3.52192e-06
-7.60134e-07
3.64977e-06
-7.21238e-07
3.7714e-06
-6.85104e-07
3.88723e-06
-6.5154e-07
3.99768e-06
-6.20362e-07
4.1031e-06
-5.91399e-07
4.20384e-06
-5.64482e-07
4.30024e-06
-5.39459e-07
4.39257e-06
-5.16182e-07
4.48113e-06
-4.94513e-07
4.56615e-06
-4.74323e-07
4.64788e-06
-4.55492e-07
4.72653e-06
-4.37904e-07
4.80229e-06
-4.21453e-07
4.87536e-06
-4.0604e-07
4.94588e-06
-3.91572e-07
5.01402e-06
-3.7796e-07
5.07991e-06
-3.65124e-07
5.14367e-06
-3.52988e-07
5.20541e-06
-3.4148e-07
5.26525e-06
-3.30537e-07
5.32326e-06
-3.20096e-07
5.37952e-06
-3.10102e-07
5.43412e-06
-3.00504e-07
5.4871e-06
-2.91253e-07
5.53854e-06
-2.82309e-07
5.58847e-06
-2.73631e-07
5.63693e-06
-2.65185e-07
5.68397e-06
-2.56941e-07
5.72962e-06
-2.48871e-07
5.77389e-06
-2.40951e-07
5.81683e-06
-2.33163e-07
5.85843e-06
-2.2549e-07
5.89872e-06
-2.17917e-07
5.93772e-06
-2.10436e-07
5.97544e-06
-2.03039e-07
6.01189e-06
-1.9572e-07
6.04708e-06
-1.88479e-07
6.08101e-06
-1.81315e-07
6.11372e-06
-1.74229e-07
6.14519e-06
-1.67227e-07
6.17546e-06
-1.60312e-07
6.20452e-06
-1.53492e-07
6.2324e-06
-1.46773e-07
6.2591e-06
-1.40166e-07
6.28466e-06
-1.33676e-07
6.30908e-06
-1.27316e-07
6.33239e-06
-1.21091e-07
6.35461e-06
-1.15013e-07
6.37577e-06
-1.0909e-07
6.39589e-06
-1.03329e-07
6.41499e-06
-9.77372e-08
6.43312e-06
-9.23229e-08
6.45029e-06
-8.70906e-08
6.46655e-06
-8.20462e-08
6.48191e-06
-7.71927e-08
6.49642e-06
-7.25343e-08
6.51011e-06
-6.80718e-08
6.52302e-06
-6.38074e-08
6.53517e-06
-5.97402e-08
6.54661e-06
-5.58706e-08
6.55737e-06
-5.21958e-08
6.56749e-06
-4.87147e-08
6.57699e-06
-4.54228e-08
6.58592e-06
-4.23179e-08
6.5943e-06
-3.93941e-08
6.60217e-06
-3.66479e-08
6.60957e-06
-3.4072e-08
6.61651e-06
-3.16623e-08
6.62304e-06
-2.94106e-08
6.62919e-06
-2.73124e-08
6.63497e-06
-2.53591e-08
6.64042e-06
-2.35462e-08
6.64557e-06
-2.18645e-08
6.65043e-06
-2.03102e-08
6.65504e-06
-1.88738e-08
6.6594e-06
-1.7552e-08
6.66356e-06
-1.63354e-08
6.66752e-06
-1.5221e-08
6.6713e-06
-1.41996e-08
6.67493e-06
-1.32689e-08
6.67841e-06
-1.24196e-08
6.68176e-06
-1.165e-08
6.685e-06
-1.09511e-08
6.68814e-06
-1.03218e-08
6.69119e-06
-9.75306e-09
6.69416e-06
-9.24501e-09
6.69706e-06
-8.78853e-09
6.6999e-06
-8.38453e-09
6.7027e-06
-8.0238e-09
6.70545e-06
-7.70812e-09
6.70816e-06
-7.42823e-09
6.71084e-06
-7.18692e-09
6.7135e-06
-6.97478e-09
6.71615e-06
-6.79546e-09
6.71877e-06
-6.63939e-09
6.72139e-06
-6.51125e-09
6.724e-06
-6.40118e-09
6.7266e-06
-6.31473e-09
6.7292e-06
-6.24173e-09
6.73181e-06
-6.18883e-09
6.73441e-06
-6.14542e-09
6.73702e-06
-6.119e-09
6.73964e-06
-6.09855e-09
6.74226e-06
-6.09271e-09
6.74489e-06
-6.0899e-09
6.74753e-06
-6.09956e-09
6.75018e-06
-6.10958e-09
6.75283e-06
-6.13061e-09
6.7555e-06
-6.14983e-09
6.75818e-06
-6.17864e-09
6.76086e-06
-6.20364e-09
6.76356e-06
-6.23746e-09
6.76626e-06
-6.26593e-09
6.76897e-06
-6.30235e-09
6.77169e-06
-6.3319e-09
6.77443e-06
-6.36915e-09
6.77716e-06
-6.39852e-09
6.77991e-06
-6.43508e-09
6.78266e-06
-6.46268e-09
6.78543e-06
-6.49765e-09
6.78819e-06
-6.52307e-09
6.79097e-06
-6.55563e-09
6.79374e-06
-6.57792e-09
6.79653e-06
-6.60779e-09
6.79931e-06
-6.62724e-09
6.80211e-06
-6.65416e-09
6.80491e-06
-6.67026e-09
6.80771e-06
-6.69454e-09
6.81051e-06
-6.70825e-09
6.81332e-06
-6.73022e-09
6.81613e-06
-6.74163e-09
6.81895e-06
-6.7623e-09
6.82176e-06
-6.77323e-09
6.82459e-06
-6.79397e-09
6.8274e-06
-6.8057e-09
6.83023e-06
-6.82924e-09
6.83306e-06
-6.84598e-09
6.83589e-06
-6.87722e-09
6.83871e-06
-6.9055e-09
6.84155e-06
-6.95547e-09
6.84438e-06
-7.01262e-09
6.84722e-06
-7.10678e-09
6.85005e-06
-7.23148e-09
6.85287e-06
-7.432e-09
6.85564e-06
-7.71772e-09
-8.22212e-09
-4.23468e-07
3.31597e-06
-8.32696e-07
3.32825e-06
-1.22815e-06
3.23584e-06
-1.60939e-06
3.11286e-06
-1.97701e-06
2.97561e-06
-2.33199e-06
2.83324e-06
-2.67537e-06
2.68979e-06
-3.00803e-06
2.54641e-06
-3.33002e-06
2.4022e-06
-3.64075e-06
2.25456e-06
-3.93832e-06
2.10001e-06
-4.22055e-06
1.9339e-06
-4.48344e-06
1.75244e-06
-4.72263e-06
1.55109e-06
-4.93267e-06
1.3264e-06
-5.1074e-06
1.07581e-06
-5.24053e-06
7.97984e-07
-5.32523e-06
4.93612e-07
-5.35577e-06
1.64528e-07
-5.32739e-06
-1.83283e-07
-5.23804e-06
-5.39272e-07
-5.08858e-06
-8.91275e-07
-4.88201e-06
-1.22756e-06
-4.62343e-06
-1.53778e-06
-4.31934e-06
-1.81337e-06
-3.97769e-06
-2.04805e-06
-3.60685e-06
-2.23776e-06
-3.21546e-06
-2.38145e-06
-2.81175e-06
-2.48012e-06
-2.40308e-06
-2.537e-06
-1.99572e-06
-2.55679e-06
-1.59466e-06
-2.54508e-06
-1.20359e-06
-2.50786e-06
-8.24842e-07
-2.45141e-06
-4.59406e-07
-2.38185e-06
-1.07723e-07
-2.30392e-06
2.25258e-07
-2.21782e-06
5.36509e-07
-2.12474e-06
8.28163e-07
-2.02828e-06
1.1017e-06
-1.93066e-06
1.35848e-06
-1.83335e-06
1.59984e-06
-1.73751e-06
1.82707e-06
-1.64402e-06
2.04131e-06
-1.55366e-06
2.24354e-06
-1.46704e-06
2.43457e-06
-1.38462e-06
2.61511e-06
-1.30668e-06
2.7858e-06
-1.2333e-06
2.94726e-06
-1.16449e-06
3.10004e-06
-1.10013e-06
3.24471e-06
-1.04007e-06
3.38179e-06
-9.84083e-07
3.51178e-06
-9.31965e-07
3.63514e-06
-8.83484e-07
3.75234e-06
-8.38408e-07
3.86377e-06
-7.96513e-07
3.96984e-06
-7.57579e-07
4.07091e-06
-7.21398e-07
4.16732e-06
-6.8777e-07
4.25939e-06
-6.56508e-07
4.3474e-06
-6.27433e-07
4.43164e-06
-6.00377e-07
4.51235e-06
-5.75183e-07
4.58977e-06
-5.51703e-07
4.66411e-06
-5.29798e-07
4.73558e-06
-5.09336e-07
4.80436e-06
-4.90197e-07
4.87063e-06
-4.72265e-07
4.93452e-06
-4.55433e-07
4.9962e-06
-4.39602e-07
5.05578e-06
-4.24676e-07
5.1134e-06
-4.10568e-07
5.16914e-06
-3.97198e-07
5.22312e-06
-3.84489e-07
5.27542e-06
-3.7237e-07
5.32612e-06
-3.60776e-07
5.37529e-06
-3.49647e-07
5.42299e-06
-3.38929e-07
5.46927e-06
-3.2857e-07
5.51419e-06
-3.18526e-07
5.55777e-06
-3.08754e-07
5.60007e-06
-2.99219e-07
5.6411e-06
-2.89888e-07
5.6809e-06
-2.80734e-07
5.71948e-06
-2.71732e-07
5.75686e-06
-2.62862e-07
5.79307e-06
-2.54109e-07
5.8281e-06
-2.4546e-07
5.86197e-06
-2.36905e-07
5.8947e-06
-2.28438e-07
5.92629e-06
-2.20058e-07
5.95674e-06
-2.11762e-07
5.98607e-06
-2.03555e-07
6.01429e-06
-1.95438e-07
6.0414e-06
-1.87419e-07
6.06742e-06
-1.79506e-07
6.09236e-06
-1.71706e-07
6.11623e-06
-1.6403e-07
6.13904e-06
-1.56487e-07
6.16082e-06
-1.4909e-07
6.18158e-06
-1.41848e-07
6.20134e-06
-1.34773e-07
6.22013e-06
-1.27874e-07
6.23796e-06
-1.21161e-07
6.25487e-06
-1.14645e-07
6.27088e-06
-1.08331e-07
6.28602e-06
-1.02229e-07
6.30032e-06
-9.63441e-08
6.31381e-06
-9.06817e-08
6.32652e-06
-8.52451e-08
6.33849e-06
-8.00379e-08
6.34975e-06
-7.5061e-08
6.36032e-06
-7.03157e-08
6.37025e-06
-6.58005e-08
6.37957e-06
-6.15148e-08
6.38832e-06
-5.74551e-08
6.39651e-06
-5.36189e-08
6.4042e-06
-5.00011e-08
6.4114e-06
-4.65975e-08
6.41816e-06
-4.34016e-08
6.42449e-06
-4.04078e-08
6.43044e-06
-3.76084e-08
6.43603e-06
-3.49971e-08
6.44129e-06
-3.25654e-08
6.44623e-06
-3.03066e-08
6.4509e-06
-2.82119e-08
6.45531e-06
-2.62744e-08
6.45949e-06
-2.44853e-08
6.46346e-06
-2.28377e-08
6.46723e-06
-2.13231e-08
6.47084e-06
-1.99349e-08
6.47428e-06
-1.86646e-08
6.47759e-06
-1.75063e-08
6.48078e-06
-1.64519e-08
6.48386e-06
-1.54956e-08
6.48685e-06
-1.46298e-08
6.48975e-06
-1.38495e-08
6.49258e-06
-1.31474e-08
6.49535e-06
-1.25188e-08
6.49807e-06
-1.19573e-08
6.50074e-06
-1.14588e-08
6.50338e-06
-1.10173e-08
6.50599e-06
-1.06291e-08
6.50858e-06
-1.02887e-08
6.51115e-06
-9.99307e-09
6.51371e-06
-9.73725e-09
6.51625e-06
-9.5186e-09
6.5188e-06
-9.33264e-09
6.52134e-06
-9.17719e-09
6.52389e-06
-9.04835e-09
6.52643e-06
-8.94425e-09
6.52899e-06
-8.86138e-09
6.53155e-06
-8.79823e-09
6.53412e-06
-8.75189e-09
6.5367e-06
-8.721e-09
6.53929e-06
-8.70301e-09
6.54189e-06
-8.69682e-09
6.5445e-06
-8.70047e-09
6.54713e-06
-8.71288e-09
6.54977e-06
-8.73238e-09
6.55241e-06
-8.75805e-09
6.55508e-06
-8.78884e-09
6.55775e-06
-8.82365e-09
6.56044e-06
-8.86173e-09
6.56313e-06
-8.90201e-09
6.56584e-06
-8.94442e-09
6.56856e-06
-8.98758e-09
6.57129e-06
-9.03165e-09
6.57402e-06
-9.0752e-09
6.57678e-06
-9.11917e-09
6.57953e-06
-9.16169e-09
6.5823e-06
-9.20388e-09
6.58506e-06
-9.24378e-09
6.58785e-06
-9.28338e-09
6.59063e-06
-9.32016e-09
6.59342e-06
-9.35624e-09
6.59622e-06
-9.38898e-09
6.59902e-06
-9.42141e-09
6.60182e-06
-9.45031e-09
6.60464e-06
-9.47872e-09
6.60745e-06
-9.50335e-09
6.61027e-06
-9.52822e-09
6.61309e-06
-9.54946e-09
6.61592e-06
-9.57102e-09
6.61874e-06
-9.58906e-09
6.62158e-06
-9.60853e-09
6.62441e-06
-9.62519e-09