/*--------------------------------*- C++ -*----------------------------------*\
  =========                 |
  \\      /  F ield         | OpenFOAM: The Open Source CFD Toolbox
   \\    /   O peration     | Website:  https://openfoam.org
    \\  /    A nd           | Version:  7
     \\/     M anipulation  |
\*---------------------------------------------------------------------------*/
FoamFile
{
    version     2.0;
    format      ascii;
    class       volVectorField;
    location    "50";
    object      U;
}
// * * * * * * * * * * * * * * * * * * * * * * * * * * * * * * * * * * * * * //

dimensions      [0 1 -1 0 0 0 0];

internalField   nonuniform List<vector> 
16900
(
(-0.367595 0.424238 0)
(-0.832746 0.450907 0)
(-1.42254 0.412359 0)
(-1.99075 0.378653 0)
(-2.53343 0.350654 0)
(-3.05008 0.325471 0)
(-3.5396 0.301958 0)
(-4.00115 0.279449 0)
(-4.4341 0.257666 0)
(-4.83794 0.236235 0)
(-5.21195 0.214939 0)
(-5.555 0.193387 0)
(-5.86546 0.171252 0)
(-6.14108 0.148232 0)
(-6.37933 0.124036 0)
(-6.57756 0.0984915 0)
(-6.73307 0.0714918 0)
(-6.84292 0.0430087 0)
(-6.90368 0.0132084 0)
(-6.91182 -0.0176996 0)
(-6.86618 -0.0493826 0)
(-6.76688 -0.0810388 0)
(-6.61543 -0.111877 0)
(-6.41476 -0.140962 0)
(-6.16909 -0.167614 0)
(-5.88374 -0.191153 0)
(-5.5646 -0.211212 0)
(-5.21818 -0.227664 0)
(-4.85124 -0.240589 0)
(-4.47046 -0.250206 0)
(-4.08217 -0.256759 0)
(-3.69194 -0.260415 0)
(-3.30427 -0.261272 0)
(-2.92254 -0.259463 0)
(-2.54908 -0.255385 0)
(-2.18558 -0.249955 0)
(-1.83354 -0.244773 0)
(-1.49472 -0.241919 0)
(-1.17116 -0.243192 0)
(-0.864465 -0.248926 0)
(-0.574278 -0.256244 0)
(-0.302864 -0.259069 0)
(-0.0047763 -0.245838 0)
(0.261474 -0.221824 0)
(0.509214 -0.198421 0)
(0.743373 -0.177852 0)
(0.963815 -0.160148 0)
(1.17108 -0.144914 0)
(1.3659 -0.131744 0)
(1.54908 -0.120277 0)
(1.72141 -0.110227 0)
(1.88367 -0.101354 0)
(2.03657 -0.093477 0)
(2.18081 -0.0864407 0)
(2.31703 -0.0801275 0)
(2.44581 -0.0744343 0)
(2.56773 -0.0692829 0)
(2.68327 -0.0646021 0)
(2.79292 -0.0603386 0)
(2.89711 -0.0564417 0)
(2.99622 -0.0528736 0)
(3.09063 -0.049597 0)
(3.18065 -0.0465839 0)
(3.26659 -0.0438057 0)
(3.34873 -0.0412409 0)
(3.4273 -0.0388669 0)
(3.50255 -0.0366662 0)
(3.57468 -0.0346206 0)
(3.64387 -0.0327157 0)
(3.7103 -0.0309364 0)
(3.77412 -0.0292708 0)
(3.83548 -0.0277064 0)
(3.89448 -0.0262332 0)
(3.95126 -0.024841 0)
(4.0059 -0.0235215 0)
(4.0585 -0.0222663 0)
(4.10913 -0.0210687 0)
(4.15785 -0.0199221 0)
(4.20474 -0.0188211 0)
(4.24984 -0.0177605 0)
(4.29319 -0.0167363 0)
(4.33484 -0.0157445 0)
(4.37482 -0.0147823 0)
(4.41316 -0.013847 0)
(4.44989 -0.0129366 0)
(4.48502 -0.0120498 0)
(4.51859 -0.0111854 0)
(4.55061 -0.010343 0)
(4.58111 -0.00952212 0)
(4.61009 -0.00872324 0)
(4.6376 -0.00794651 0)
(4.66363 -0.00719297 0)
(4.68823 -0.00646318 0)
(4.71141 -0.00575859 0)
(4.73319 -0.00507996 0)
(4.75362 -0.00442895 0)
(4.77272 -0.00380629 0)
(4.79052 -0.00321365 0)
(4.80706 -0.00265159 0)
(4.82238 -0.00212157 0)
(4.83651 -0.00162383 0)
(4.84951 -0.00115953 0)
(4.86142 -0.000728458 0)
(4.87228 -0.000331386 0)
(4.88215 3.23993e-05 0)
(4.89106 0.000362541 0)
(4.89908 0.000660254 0)
(4.90624 0.00092559 0)
(4.91261 0.00116022 0)
(4.91823 0.00136455 0)
(4.92315 0.00154063 0)
(4.92743 0.00168914 0)
(4.9311 0.00181239 0)
(4.93421 0.00191121 0)
(4.93682 0.00198808 0)
(4.93896 0.00204372 0)
(4.94067 0.00208042 0)
(4.942 0.00209862 0)
(4.94298 0.00210017 0)
(4.94365 0.00208441 0)
(4.94404 0.00205229 0)
(4.94421 0.00200443 0)
(4.94419 0.00194605 0)
(4.944 0.00188062 0)
(4.94366 0.00181179 0)
(4.94319 0.00174038 0)
(4.9426 0.00166872 0)
(4.9419 0.00159671 0)
(4.94111 0.00152612 0)
(4.94024 0.00145639 0)
(4.93931 0.00138901 0)
(4.93831 0.00132314 0)
(4.93727 0.00126016 0)
(4.93618 0.00119911 0)
(4.93506 0.00114127 0)
(4.93391 0.00108555 0)
(4.93274 0.00103324 0)
(4.93156 0.00098316 0)
(4.93037 0.000936393 0)
(4.92916 0.000891436 0)
(4.92796 0.000849397 0)
(4.92675 0.000808855 0)
(4.92555 0.000771024 0)
(4.92435 0.000734475 0)
(4.92316 0.000700483 0)
(4.92199 0.000667587 0)
(4.92082 0.000637112 0)
(4.91966 0.000607558 0)
(4.91852 0.000580289 0)
(4.9174 0.000553762 0)
(4.91629 0.000529383 0)
(4.91519 0.000505569 0)
(4.91411 0.000483764 0)
(4.91305 0.000462344 0)
(4.91201 0.000442801 0)
(4.91099 0.000423474 0)
(4.90998 0.000405897 0)
(4.90899 0.000388373 0)
(4.90802 0.000372484 0)
(4.90707 0.000356501 0)
(4.90614 0.000342047 0)
(4.90523 0.000327359 0)
(4.90433 0.000314105 0)
(4.90346 0.000300498 0)
(4.9026 0.000288242 0)
(4.90176 0.000275522 0)
(4.90094 0.000264081 0)
(4.90014 0.000252092 0)
(4.89935 0.000241326 0)
(4.89859 0.000229931 0)
(4.89784 0.000219713 0)
(4.89711 0.000208817 0)
(4.8964 0.000199064 0)
(4.8957 0.000188583 0)
(4.89503 0.000179224 0)
(4.89437 0.000169117 0)
(4.89373 0.00016012 0)
(4.89311 0.000150353 0)
(4.8925 0.000141687 0)
(4.89191 0.000132256 0)
(4.89134 0.00012393 0)
(4.89078 0.000114837 0)
(4.89024 0.00010686 0)
(4.88972 9.81424e-05 0)
(4.88921 9.05608e-05 0)
(4.88872 8.22526e-05 0)
(4.88825 7.50972e-05 0)
(4.88779 6.72444e-05 0)
(4.88734 6.05532e-05 0)
(4.88691 5.31424e-05 0)
(4.88649 4.68334e-05 0)
(4.88609 3.96838e-05 0)
(4.88569 3.33679e-05 0)
(4.88532 2.56889e-05 0)
(4.88496 1.79157e-05 0)
(4.88462 7.08103e-06 0)
(4.88432 -7.16941e-06 0)
(4.88407 -3.15163e-05 0)
(4.88392 -7.7801e-05 0)
(4.88411 -0.000215463 0)
(-0.393949 0.895518 0)
(-0.846722 0.9604 0)
(-1.41548 0.931855 0)
(-1.96423 0.890299 0)
(-2.49007 0.84631 0)
(-2.99025 0.800905 0)
(-3.46284 0.754498 0)
(-3.90685 0.707445 0)
(-4.32183 0.659843 0)
(-4.7075 0.611532 0)
(-5.06338 0.562103 0)
(-5.38863 0.510891 0)
(-5.68171 0.457227 0)
(-5.94048 0.400344 0)
(-6.16246 0.339691 0)
(-6.34499 0.274872 0)
(-6.48542 0.205751 0)
(-6.58074 0.132455 0)
(-6.62738 0.0555116 0)
(-6.62169 -0.0241084 0)
(-6.56344 -0.104675 0)
(-6.45253 -0.183953 0)
(-6.29039 -0.259814 0)
(-6.07991 -0.330103 0)
(-5.82533 -0.393084 0)
(-5.53195 -0.447318 0)
(-5.20584 -0.491985 0)
(-4.85355 -0.526841 0)
(-4.48181 -0.552183 0)
(-4.09715 -0.568687 0)
(-3.70555 -0.577183 0)
(-3.31222 -0.578464 0)
(-2.92138 -0.573198 0)
(-2.53635 -0.562049 0)
(-2.15974 -0.545941 0)
(-1.79369 -0.526409 0)
(-1.44006 -0.505741 0)
(-1.10017 -0.486687 0)
(-0.774197 -0.471521 0)
(-0.459966 -0.460995 0)
(-0.150326 -0.452516 0)
(0.148028 -0.440629 0)
(0.423033 -0.419195 0)
(0.679222 -0.390892 0)
(0.92052 -0.362717 0)
(1.14915 -0.336347 0)
(1.36581 -0.312266 0)
(1.57088 -0.290454 0)
(1.76484 -0.270712 0)
(1.94826 -0.252813 0)
(2.12171 -0.236539 0)
(2.28583 -0.2217 0)
(2.44123 -0.208132 0)
(2.58849 -0.195696 0)
(2.72819 -0.184271 0)
(2.86088 -0.173757 0)
(2.98704 -0.164062 0)
(3.10717 -0.155112 0)
(3.22169 -0.146837 0)
(3.33101 -0.139179 0)
(3.43551 -0.132084 0)
(3.53552 -0.125503 0)
(3.63136 -0.119394 0)
(3.72331 -0.113717 0)
(3.81165 -0.108434 0)
(3.8966 -0.103512 0)
(3.9784 -0.09892 0)
(4.05724 -0.0946274 0)
(4.13331 -0.0906073 0)
(4.20676 -0.0868339 0)
(4.27776 -0.0832838 0)
(4.34644 -0.0799348 0)
(4.41292 -0.0767668 0)
(4.47731 -0.0737607 0)
(4.53971 -0.0708997 0)
(4.60021 -0.0681678 0)
(4.65889 -0.0655508 0)
(4.71581 -0.0630357 0)
(4.77104 -0.060611 0)
(4.82463 -0.0582661 0)
(4.87662 -0.0559919 0)
(4.92706 -0.0537804 0)
(4.97597 -0.0516246 0)
(5.0234 -0.0495185 0)
(5.06937 -0.0474575 0)
(5.11389 -0.0454375 0)
(5.157 -0.0434554 0)
(5.1987 -0.0415092 0)
(5.23901 -0.0395973 0)
(5.27795 -0.0377191 0)
(5.31553 -0.0358744 0)
(5.35176 -0.0340637 0)
(5.38666 -0.032288 0)
(5.42023 -0.0305485 0)
(5.4525 -0.0288468 0)
(5.48348 -0.0271848 0)
(5.51317 -0.0255646 0)
(5.54161 -0.0239882 0)
(5.5688 -0.0224576 0)
(5.59477 -0.020975 0)
(5.61954 -0.0195422 0)
(5.64312 -0.0181612 0)
(5.66556 -0.0168333 0)
(5.68686 -0.01556 0)
(5.70706 -0.0143422 0)
(5.72618 -0.0131809 0)
(5.74427 -0.0120764 0)
(5.76134 -0.0110291 0)
(5.77743 -0.0100385 0)
(5.79258 -0.00910459 0)
(5.80681 -0.00822637 0)
(5.82017 -0.00740312 0)
(5.83268 -0.00663342 0)
(5.84438 -0.00591612 0)
(5.85532 -0.00524942 0)
(5.86551 -0.00463194 0)
(5.875 -0.00406165 0)
(5.88383 -0.00353705 0)
(5.89202 -0.00305621 0)
(5.89961 -0.00261829 0)
(5.90662 -0.00222169 0)
(5.91309 -0.00186383 0)
(5.91902 -0.00153995 0)
(5.92446 -0.00124643 0)
(5.92944 -0.000980104 0)
(5.93399 -0.000739089 0)
(5.93814 -0.00052107 0)
(5.94192 -0.000324689 0)
(5.94537 -0.000147946 0)
(5.94849 1.02518e-05 0)
(5.95133 0.000151737 0)
(5.9539 0.000277404 0)
(5.95623 0.000388941 0)
(5.95832 0.000487048 0)
(5.96021 0.000573286 0)
(5.96192 0.000648094 0)
(5.96344 0.000712665 0)
(5.96482 0.000767185 0)
(5.96605 0.000813257 0)
(5.96716 0.000851569 0)
(5.96816 0.000883691 0)
(5.96905 0.000909838 0)
(5.96985 0.000931278 0)
(5.97056 0.000947963 0)
(5.9712 0.000961017 0)
(5.97176 0.000970215 0)
(5.97227 0.000976609 0)
(5.97271 0.000979844 0)
(5.97311 0.000980928 0)
(5.97347 0.000979401 0)
(5.97378 0.000976256 0)
(5.97407 0.000970946 0)
(5.97432 0.000964458 0)
(5.97455 0.00095616 0)
(5.97476 0.00094705 0)
(5.97494 0.000936424 0)
(5.97512 0.000925292 0)
(5.97528 0.00091287 0)
(5.97543 0.000900193 0)
(5.97557 0.000886413 0)
(5.97571 0.000872583 0)
(5.97584 0.000857785 0)
(5.97597 0.000843103 0)
(5.97609 0.000827564 0)
(5.97622 0.000812281 0)
(5.97635 0.000796214 0)
(5.97647 0.000780523 0)
(5.97661 0.000764121 0)
(5.97674 0.0007482 0)
(5.97688 0.000731614 0)
(5.97702 0.000715604 0)
(5.97716 0.000698985 0)
(5.97731 0.000683033 0)
(5.97746 0.000666505 0)
(5.97762 0.000650729 0)
(5.97779 0.000634432 0)
(5.97796 0.000618971 0)
(5.97813 0.000603019 0)
(5.97831 0.00058798 0)
(5.97849 0.000572503 0)
(5.97868 0.000558022 0)
(5.97888 0.000543134 0)
(5.97908 0.000529318 0)
(5.97928 0.000515157 0)
(5.97949 0.000502148 0)
(5.9797 0.000488815 0)
(5.97992 0.000476685 0)
(5.98013 0.000464249 0)
(5.98036 0.000453019 0)
(5.98058 0.000441363 0)
(5.98081 0.000430713 0)
(5.98104 0.000419211 0)
(5.98127 0.000407931 0)
(5.98151 0.000394291 0)
(5.98176 0.00037822 0)
(5.98202 0.000354802 0)
(5.9823 0.0003191 0)
(5.98262 0.000254135 0)
(5.98303 0.000132145 0)
(5.98386 -0.000206234 0)
(-0.372644 1.49521 0)
(-0.804009 1.55812 0)
(-1.34182 1.51814 0)
(-1.85565 1.45518 0)
(-2.3469 1.38368 0)
(-2.81405 1.30776 0)
(-3.25589 1.22957 0)
(-3.67201 1.15028 0)
(-4.06231 1.0703 0)
(-4.42677 0.989354 0)
(-4.76505 0.906681 0)
(-5.07617 0.821168 0)
(-5.35847 0.731549 0)
(-5.60949 0.63664 0)
(-5.82625 0.535541 0)
(-6.00566 0.427652 0)
(-6.14455 0.312809 0)
(-6.23936 0.191288 0)
(-6.28586 0.0640548 0)
(-6.27984 -0.067133 0)
(-6.22041 -0.199483 0)
(-6.10729 -0.32938 0)
(-5.94187 -0.453091 0)
(-5.72722 -0.56713 0)
(-5.46785 -0.668581 0)
(-5.16947 -0.755275 0)
(-4.8386 -0.825953 0)
(-4.48223 -0.880276 0)
(-4.10738 -0.918685 0)
(-3.72067 -0.942187 0)
(-3.32799 -0.9521 0)
(-2.93432 -0.949886 0)
(-2.54369 -0.937116 0)
(-2.1594 -0.915603 0)
(-1.78422 -0.887601 0)
(-1.42053 -0.855884 0)
(-1.0701 -0.823401 0)
(-0.733401 -0.792486 0)
(-0.409046 -0.764007 0)
(-0.0900042 -0.735905 0)
(0.21054 -0.705847 0)
(0.489845 -0.672765 0)
(0.751946 -0.637023 0)
(0.999136 -0.60008 0)
(1.2332 -0.563623 0)
(1.45514 -0.528706 0)
(1.66552 -0.495846 0)
(1.86481 -0.465211 0)
(2.05351 -0.436781 0)
(2.23215 -0.410457 0)
(2.40129 -0.386104 0)
(2.56153 -0.36358 0)
(2.71342 -0.342743 0)
(2.85755 -0.32346 0)
(2.99443 -0.305604 0)
(3.12459 -0.289064 0)
(3.2485 -0.273731 0)
(3.3666 -0.259512 0)
(3.47933 -0.246317 0)
(3.58705 -0.234067 0)
(3.69012 -0.222687 0)
(3.78888 -0.212108 0)
(3.88362 -0.202267 0)
(3.97461 -0.193104 0)
(4.06212 -0.184564 0)
(4.14637 -0.176594 0)
(4.22758 -0.169146 0)
(4.30593 -0.162175 0)
(4.38161 -0.155637 0)
(4.45478 -0.149493 0)
(4.52557 -0.143707 0)
(4.59413 -0.138242 0)
(4.66056 -0.133069 0)
(4.72499 -0.128156 0)
(4.78749 -0.123478 0)
(4.84817 -0.119009 0)
(4.90709 -0.114727 0)
(4.96433 -0.11061 0)
(5.01994 -0.106641 0)
(5.07397 -0.102803 0)
(5.12647 -0.0990808 0)
(5.17749 -0.0954615 0)
(5.22705 -0.0919337 0)
(5.27518 -0.0884877 0)
(5.32192 -0.0851154 0)
(5.36729 -0.0818101 0)
(5.41131 -0.0785664 0)
(5.45399 -0.0753805 0)
(5.49535 -0.0722494 0)
(5.5354 -0.0691714 0)
(5.57417 -0.066146 0)
(5.61166 -0.063173 0)
(5.64788 -0.0602536 0)
(5.68286 -0.0573891 0)
(5.7166 -0.0545817 0)
(5.74911 -0.0518338 0)
(5.78041 -0.0491482 0)
(5.81052 -0.0465277 0)
(5.83945 -0.0439755 0)
(5.86722 -0.0414943 0)
(5.89384 -0.0390871 0)
(5.91935 -0.0367566 0)
(5.94376 -0.0345053 0)
(5.96709 -0.0323351 0)
(5.98936 -0.0302481 0)
(6.01061 -0.0282454 0)
(6.03085 -0.0263282 0)
(6.05012 -0.024497 0)
(6.06844 -0.022752 0)
(6.08584 -0.021093 0)
(6.10236 -0.0195193 0)
(6.11801 -0.0180299 0)
(6.13283 -0.0166235 0)
(6.14686 -0.0152984 0)
(6.16011 -0.0140528 0)
(6.17263 -0.0128843 0)
(6.18445 -0.0117907 0)
(6.19559 -0.0107692 0)
(6.20609 -0.00981719 0)
(6.21597 -0.00893144 0)
(6.22527 -0.0081087 0)
(6.23401 -0.00734574 0)
(6.24222 -0.00663989 0)
(6.24993 -0.0059881 0)
(6.25717 -0.0053873 0)
(6.26397 -0.00483435 0)
(6.27034 -0.00432635 0)
(6.27633 -0.00386038 0)
(6.28194 -0.00343375 0)
(6.28721 -0.00304379 0)
(6.29216 -0.00268804 0)
(6.2968 -0.00236411 0)
(6.30117 -0.00206976 0)
(6.30528 -0.0018029 0)
(6.30915 -0.00156151 0)
(6.3128 -0.00134385 0)
(6.31625 -0.00114835 0)
(6.3195 -0.000973631 0)
(6.32258 -0.000817808 0)
(6.32549 -0.000679019 0)
(6.32826 -0.000555519 0)
(6.33089 -0.000445985 0)
(6.3334 -0.000349051 0)
(6.3358 -0.000263725 0)
(6.33811 -0.000188848 0)
(6.34033 -0.000123664 0)
(6.34246 -6.71424e-05 0)
(6.34453 -1.87029e-05 0)
(6.34654 2.25936e-05 0)
(6.34849 5.71693e-05 0)
(6.3504 8.59082e-05 0)
(6.35226 0.000109099 0)
(6.35409 0.000127575 0)
(6.35589 0.000141492 0)
(6.35766 0.000151661 0)
(6.3594 0.000158118 0)
(6.36113 0.000161649 0)
(6.36284 0.000162163 0)
(6.36453 0.000160447 0)
(6.36622 0.0001563 0)
(6.36789 0.000150503 0)
(6.36956 0.000142733 0)
(6.37123 0.000133796 0)
(6.37289 0.000123273 0)
(6.37454 0.000111983 0)
(6.3762 9.93995e-05 0)
(6.37786 8.63889e-05 0)
(6.37951 7.23435e-05 0)
(6.38117 5.81615e-05 0)
(6.38283 4.31312e-05 0)
(6.38449 2.82157e-05 0)
(6.38615 1.26342e-05 0)
(6.38782 -2.6094e-06 0)
(6.38949 -1.83956e-05 0)
(6.39116 -3.36446e-05 0)
(6.39284 -4.92957e-05 0)
(6.39452 -6.42262e-05 0)
(6.3962 -7.94732e-05 0)
(6.39789 -9.38355e-05 0)
(6.39958 -0.0001084 0)
(6.40127 -0.000121923 0)
(6.40297 -0.000135588 0)
(6.40466 -0.000148073 0)
(6.40636 -0.000160603 0)
(6.40806 -0.000171825 0)
(6.40977 -0.000183072 0)
(6.41147 -0.000192937 0)
(6.41318 -0.000202815 0)
(6.41489 -0.000211319 0)
(6.41659 -0.00022005 0)
(6.4183 -0.00022774 0)
(6.42 -0.00023636 0)
(6.42171 -0.000245194 0)
(6.42341 -0.000257344 0)
(6.42512 -0.000273831 0)
(6.42683 -0.000301131 0)
(6.42855 -0.000346852 0)
(6.43028 -0.000432469 0)
(6.432 -0.000590911 0)
(6.43425 -0.000980149 0)
(-0.344035 2.06251 0)
(-0.746678 2.10453 0)
(-1.2448 2.04483 0)
(-1.71642 1.95863 0)
(-2.16748 1.86108 0)
(-2.59748 1.7583 0)
(-3.00625 1.65347 0)
(-3.394 1.5481 0)
(-3.76094 1.44255 0)
(-4.10708 1.33612 0)
(-4.43189 1.22749 0)
(-4.73418 1.11482 0)
(-5.01175 0.996161 0)
(-5.26145 0.869684 0)
(-5.4796 0.733944 0)
(-5.66236 0.587999 0)
(-5.80583 0.431446 0)
(-5.90557 0.26455 0)
(-5.95632 0.0884513 0)
(-5.95283 -0.0944309 0)
(-5.8938 -0.27956 0)
(-5.77886 -0.461405 0)
(-5.60951 -0.634456 0)
(-5.38915 -0.793705 0)
(-5.1228 -0.935032 0)
(-4.81679 -1.05547 0)
(-4.47832 -1.15333 0)
(-4.11495 -1.22814 0)
(-3.7341 -1.28043 0)
(-3.3426 -1.31152 0)
(-2.9464 -1.32326 0)
(-2.5505 -1.31797 0)
(-2.15907 -1.2984 0)
(-1.77559 -1.26787 0)
(-1.40303 -1.23009 0)
(-1.04351 -1.18874 0)
(-0.697798 -1.1466 0)
(-0.364319 -1.10441 0)
(-0.0379931 -1.06048 0)
(0.266381 -1.01447 0)
(0.550413 -0.966048 0)
(0.817003 -0.916157 0)
(1.06819 -0.865658 0)
(1.3056 -0.815594 0)
(1.53038 -0.767002 0)
(1.74336 -0.720611 0)
(1.94511 -0.67683 0)
(2.13619 -0.635823 0)
(2.31711 -0.597593 0)
(2.48843 -0.562054 0)
(2.65069 -0.529074 0)
(2.80446 -0.498496 0)
(2.95027 -0.47016 0)
(3.08867 -0.443906 0)
(3.22014 -0.419579 0)
(3.34519 -0.397034 0)
(3.46425 -0.376135 0)
(3.57774 -0.356756 0)
(3.68607 -0.338779 0)
(3.7896 -0.322095 0)
(3.88866 -0.306602 0)
(3.98357 -0.292207 0)
(4.0746 -0.278821 0)
(4.16203 -0.266364 0)
(4.24609 -0.254757 0)
(4.32701 -0.24393 0)
(4.40499 -0.233816 0)
(4.48022 -0.224351 0)
(4.55286 -0.215479 0)
(4.62306 -0.207145 0)
(4.69097 -0.199297 0)
(4.75672 -0.191891 0)
(4.82042 -0.184881 0)
(4.88216 -0.178228 0)
(4.94205 -0.171896 0)
(5.00017 -0.16585 0)
(5.05658 -0.16006 0)
(5.11136 -0.154498 0)
(5.16456 -0.149138 0)
(5.21623 -0.143959 0)
(5.26641 -0.138939 0)
(5.31515 -0.134061 0)
(5.36247 -0.129309 0)
(5.40841 -0.124669 0)
(5.45299 -0.120131 0)
(5.49623 -0.115685 0)
(5.53815 -0.111323 0)
(5.57877 -0.10704 0)
(5.6181 -0.10283 0)
(5.65616 -0.0986918 0)
(5.69295 -0.0946229 0)
(5.72849 -0.0906231 0)
(5.7628 -0.086693 0)
(5.79588 -0.0828341 0)
(5.82775 -0.0790484 0)
(5.85841 -0.0753387 0)
(5.8879 -0.0717081 0)
(5.91621 -0.0681601 0)
(5.94337 -0.0646981 0)
(5.96939 -0.0613257 0)
(5.9943 -0.0580466 0)
(6.01812 -0.0548641 0)
(6.04086 -0.0517812 0)
(6.06255 -0.0488009 0)
(6.08322 -0.0459254 0)
(6.1029 -0.0431568 0)
(6.1216 -0.0404967 0)
(6.13937 -0.037946 0)
(6.15622 -0.0355054 0)
(6.17219 -0.033175 0)
(6.18732 -0.0309544 0)
(6.20162 -0.0288427 0)
(6.21514 -0.0268387 0)
(6.22791 -0.0249409 0)
(6.23996 -0.0231471 0)
(6.25132 -0.0214552 0)
(6.26203 -0.0198624 0)
(6.27212 -0.0183662 0)
(6.28161 -0.0169633 0)
(6.29054 -0.0156506 0)
(6.29895 -0.0144242 0)
(6.30685 -0.0132804 0)
(6.31429 -0.0122155 0)
(6.32128 -0.0112255 0)
(6.32787 -0.0103066 0)
(6.33406 -0.00945499 0)
(6.3399 -0.00866689 0)
(6.3454 -0.0079389 0)
(6.35059 -0.00726744 0)
(6.35549 -0.00664938 0)
(6.36013 -0.00608133 0)
(6.36452 -0.00556041 0)
(6.36868 -0.00508346 0)
(6.37264 -0.00464783 0)
(6.37641 -0.00425059 0)
(6.38001 -0.00388936 0)
(6.38345 -0.00356133 0)
(6.38675 -0.00326433 0)
(6.38992 -0.00299594 0)
(6.39297 -0.00275447 0)
(6.39592 -0.00253762 0)
(6.39878 -0.00234379 0)
(6.40155 -0.00217083 0)
(6.40425 -0.00201733 0)
(6.40688 -0.00188134 0)
(6.40946 -0.00176172 0)
(6.41198 -0.00165664 0)
(6.41447 -0.00156521 0)
(6.41692 -0.00148577 0)
(6.41933 -0.00141763 0)
(6.42173 -0.00135927 0)
(6.4241 -0.00131019 0)
(6.42645 -0.00126897 0)
(6.42879 -0.00123534 0)
(6.43112 -0.00120796 0)
(6.43344 -0.0011867 0)
(6.43575 -0.00117032 0)
(6.43806 -0.00115888 0)
(6.44038 -0.00115116 0)
(6.44269 -0.00114737 0)
(6.445 -0.00114636 0)
(6.44732 -0.00114849 0)
(6.44964 -0.00115261 0)
(6.45197 -0.00115921 0)
(6.4543 -0.00116715 0)
(6.45664 -0.00117705 0)
(6.45898 -0.00118776 0)
(6.46133 -0.00119999 0)
(6.46369 -0.00121258 0)
(6.46606 -0.00122636 0)
(6.46843 -0.0012401 0)
(6.47082 -0.00125473 0)
(6.47321 -0.001269 0)
(6.4756 -0.00128394 0)
(6.47801 -0.00129822 0)
(6.48042 -0.00131294 0)
(6.48284 -0.00132675 0)
(6.48527 -0.00134084 0)
(6.4877 -0.0013538 0)
(6.49014 -0.00136687 0)
(6.49259 -0.00137858 0)
(6.49505 -0.0013903 0)
(6.49751 -0.00140048 0)
(6.49997 -0.00141053 0)
(6.50244 -0.00141889 0)
(6.50492 -0.00142707 0)
(6.5074 -0.00143346 0)
(6.50988 -0.00143965 0)
(6.51237 -0.00144404 0)
(6.51486 -0.00144848 0)
(6.51735 -0.00145151 0)
(6.51984 -0.00145542 0)
(6.52234 -0.0014594 0)
(6.52483 -0.00146703 0)
(6.52733 -0.00147941 0)
(6.52982 -0.00150351 0)
(6.53232 -0.0015463 0)
(6.53481 -0.00162618 0)
(6.53723 -0.00176968 0)
(6.5403 -0.00208796 0)
(-0.311728 2.56369 0)
(-0.679606 2.58655 0)
(-1.13246 2.50917 0)
(-1.55855 2.40352 0)
(-1.96753 2.28522 0)
(-2.35925 2.1617 0)
(-2.73456 2.03661 0)
(-3.09409 1.91161 0)
(-3.43824 1.78665 0)
(-3.76693 1.66054 0)
(-4.07948 1.53119 0)
(-4.37426 1.39603 0)
(-4.64854 1.25228 0)
(-4.89853 1.09743 0)
(-5.11968 0.929484 0)
(-5.30741 0.747133 0)
(-5.45707 0.549792 0)
(-5.56335 0.337726 0)
(-5.6197 0.112441 0)
(-5.61938 -0.122768 0)
(-5.56087 -0.361418 0)
(-5.44374 -0.595824 0)
(-5.2697 -0.818583 0)
(-5.04259 -1.02309 0)
(-4.76806 -1.20401 0)
(-4.45317 -1.35754 0)
(-4.10579 -1.4815 0)
(-3.73407 -1.57523 0)
(-3.34588 -1.63938 0)
(-2.94838 -1.67573 0)
(-2.54784 -1.68707 0)
(-2.1496 -1.67702 0)
(-1.75816 -1.64989 0)
(-1.37715 -1.61047 0)
(-1.00925 -1.56332 0)
(-0.655416 -1.51184 0)
(-0.314657 -1.4572 0)
(0.0188512 -1.39794 0)
(0.32685 -1.33647 0)
(0.615196 -1.27255 0)
(0.885751 -1.20758 0)
(1.14016 -1.1426 0)
(1.37991 -1.07846 0)
(1.6063 -1.016 0)
(1.82035 -0.95593 0)
(2.02287 -0.898786 0)
(2.21452 -0.844871 0)
(2.39591 -0.794305 0)
(2.56759 -0.747078 0)
(2.73012 -0.703096 0)
(2.88404 -0.662213 0)
(3.02989 -0.624257 0)
(3.16819 -0.589044 0)
(3.29944 -0.556392 0)
(3.42411 -0.526117 0)
(3.54266 -0.498048 0)
(3.65551 -0.472019 0)
(3.76304 -0.447878 0)
(3.86564 -0.42548 0)
(3.96365 -0.40469 0)
(4.05738 -0.385383 0)
(4.14713 -0.367441 0)
(4.23316 -0.350755 0)
(4.31574 -0.335224 0)
(4.39509 -0.32075 0)
(4.47141 -0.307247 0)
(4.54491 -0.29463 0)
(4.61577 -0.282821 0)
(4.68414 -0.271749 0)
(4.75018 -0.261345 0)
(4.81401 -0.251548 0)
(4.87577 -0.242299 0)
(4.93556 -0.233545 0)
(4.99349 -0.225236 0)
(5.04964 -0.217325 0)
(5.1041 -0.209772 0)
(5.15693 -0.202538 0)
(5.2082 -0.195588 0)
(5.25796 -0.18889 0)
(5.30627 -0.182416 0)
(5.35316 -0.176141 0)
(5.39868 -0.170042 0)
(5.44286 -0.1641 0)
(5.48571 -0.158297 0)
(5.52728 -0.15262 0)
(5.56756 -0.147057 0)
(5.60659 -0.141597 0)
(5.64438 -0.136233 0)
(5.68094 -0.13096 0)
(5.71629 -0.125774 0)
(5.75043 -0.120673 0)
(5.78337 -0.115657 0)
(5.81513 -0.110725 0)
(5.84571 -0.10588 0)
(5.87513 -0.101124 0)
(5.9034 -0.0964605 0)
(5.93053 -0.0918939 0)
(5.95654 -0.0874281 0)
(5.98144 -0.0830677 0)
(6.00525 -0.0788174 0)
(6.028 -0.0746816 0)
(6.04969 -0.0706647 0)
(6.07036 -0.0667708 0)
(6.09002 -0.0630037 0)
(6.10871 -0.0593664 0)
(6.12645 -0.0558618 0)
(6.14326 -0.052492 0)
(6.15919 -0.0492587 0)
(6.17425 -0.0461627 0)
(6.18848 -0.0432044 0)
(6.20191 -0.0403838 0)
(6.21458 -0.0376999 0)
(6.22651 -0.0351514 0)
(6.23775 -0.0327366 0)
(6.24831 -0.030453 0)
(6.25825 -0.028298 0)
(6.26759 -0.0262685 0)
(6.27636 -0.0243611 0)
(6.28459 -0.0225719 0)
(6.29233 -0.0208969 0)
(6.29959 -0.0193316 0)
(6.30641 -0.0178716 0)
(6.31281 -0.0165122 0)
(6.31883 -0.0152489 0)
(6.3245 -0.0140768 0)
(6.32983 -0.0129914 0)
(6.33486 -0.011988 0)
(6.33961 -0.0110621 0)
(6.3441 -0.0102093 0)
(6.34835 -0.00942549 0)
(6.35239 -0.00870633 0)
(6.35624 -0.00804795 0)
(6.3599 -0.00744637 0)
(6.36341 -0.00689801 0)
(6.36677 -0.0063992 0)
(6.37 -0.00594665 0)
(6.37312 -0.00553689 0)
(6.37613 -0.00516694 0)
(6.37906 -0.00483367 0)
(6.3819 -0.0045345 0)
(6.38468 -0.00426659 0)
(6.38739 -0.00402763 0)
(6.39006 -0.003815 0)
(6.39268 -0.00362672 0)
(6.39526 -0.00346045 0)
(6.39781 -0.00331453 0)
(6.40034 -0.00318683 0)
(6.40284 -0.00307599 0)
(6.40534 -0.00298009 0)
(6.40782 -0.00289805 0)
(6.41029 -0.00282811 0)
(6.41276 -0.00276945 0)
(6.41522 -0.00272048 0)
(6.41769 -0.00268061 0)
(6.42016 -0.00264837 0)
(6.42263 -0.00262338 0)
(6.42511 -0.00260429 0)
(6.4276 -0.00259096 0)
(6.43009 -0.00258207 0)
(6.43259 -0.00257769 0)
(6.43511 -0.00257657 0)
(6.43763 -0.00257896 0)
(6.44016 -0.00258364 0)
(6.4427 -0.00259102 0)
(6.44526 -0.0025999 0)
(6.44782 -0.00261084 0)
(6.45039 -0.00262263 0)
(6.45298 -0.00263595 0)
(6.45557 -0.00264958 0)
(6.45818 -0.00266433 0)
(6.4608 -0.00267894 0)
(6.46342 -0.00269431 0)
(6.46606 -0.00270913 0)
(6.46871 -0.00272447 0)
(6.47136 -0.00273893 0)
(6.47402 -0.00275364 0)
(6.4767 -0.00276717 0)
(6.47938 -0.00278078 0)
(6.48207 -0.00279294 0)
(6.48476 -0.00280499 0)
(6.48747 -0.00281533 0)
(6.49018 -0.00282545 0)
(6.4929 -0.00283368 0)
(6.49562 -0.00284153 0)
(6.49836 -0.0028473 0)
(6.50109 -0.00285268 0)
(6.50383 -0.00285587 0)
(6.50658 -0.00285862 0)
(6.50933 -0.00285917 0)
(6.51208 -0.00285953 0)
(6.51484 -0.00285808 0)
(6.51759 -0.00285729 0)
(6.52035 -0.00285621 0)
(6.52311 -0.00285864 0)
(6.52587 -0.0028654 0)
(6.52862 -0.00288331 0)
(6.53137 -0.00291788 0)
(6.5341 -0.00298442 0)
(6.53674 -0.00309972 0)
(6.54009 -0.00333203 0)
(-0.276519 3.00158 0)
(-0.605051 3.00848 0)
(-1.00983 2.91566 0)
(-1.38871 2.794 0)
(-1.75449 2.65948 0)
(-2.10708 2.52045 0)
(-2.44798 2.38083 0)
(-2.77822 2.24201 0)
(-3.09828 2.10345 0)
(-3.40802 1.96321 0)
(-3.70655 1.81839 0)
(-3.99209 1.66556 0)
(-4.2615 1.50112 0)
(-4.51027 1.32174 0)
(-4.73323 1.12478 0)
(-4.9251 0.908476 0)
(-5.08061 0.671958 0)
(-5.19348 0.415427 0)
(-5.25557 0.140728 0)
(-5.25845 -0.147796 0)
(-5.20035 -0.441165 0)
(-5.08102 -0.729248 0)
(-4.90251 -1.00261 0)
(-4.66917 -1.25302 0)
(-4.38717 -1.47385 0)
(-4.06414 -1.66031 0)
(-3.70852 -1.80955 0)
(-3.32897 -1.92069 0)
(-2.93394 -1.99464 0)
(-2.53119 -2.03411 0)
(-2.12763 -2.0433 0)
(-1.72911 -2.02756 0)
(-1.3403 -1.99266 0)
(-0.964301 -1.94415 0)
(-0.602657 -1.8864 0)
(-0.254417 -1.82101 0)
(0.0830483 -1.74791 0)
(0.394876 -1.67127 0)
(0.686798 -1.59175 0)
(0.960541 -1.51127 0)
(1.2175 -1.43111 0)
(1.45901 -1.35221 0)
(1.68633 -1.27535 0)
(1.90062 -1.20121 0)
(2.1029 -1.13032 0)
(2.29399 -1.06308 0)
(2.4746 -0.999699 0)
(2.64539 -0.940243 0)
(2.80694 -0.884672 0)
(2.95981 -0.832871 0)
(3.10454 -0.784676 0)
(3.24164 -0.739892 0)
(3.37161 -0.698315 0)
(3.49491 -0.659736 0)
(3.612 -0.623949 0)
(3.72328 -0.590755 0)
(3.82915 -0.559964 0)
(3.92998 -0.531399 0)
(4.02612 -0.50489 0)
(4.11789 -0.480279 0)
(4.20559 -0.45742 0)
(4.28948 -0.436174 0)
(4.36983 -0.416412 0)
(4.44688 -0.398015 0)
(4.52083 -0.38087 0)
(4.5919 -0.364872 0)
(4.66027 -0.349922 0)
(4.72611 -0.335931 0)
(4.78958 -0.322813 0)
(4.85083 -0.310488 0)
(4.90997 -0.298882 0)
(4.96715 -0.287928 0)
(5.02245 -0.277563 0)
(5.07599 -0.267726 0)
(5.12785 -0.258365 0)
(5.17811 -0.249429 0)
(5.22685 -0.240873 0)
(5.27413 -0.232655 0)
(5.31999 -0.224739 0)
(5.36451 -0.217089 0)
(5.4077 -0.209676 0)
(5.44962 -0.202472 0)
(5.49029 -0.195454 0)
(5.52975 -0.188602 0)
(5.568 -0.181897 0)
(5.60508 -0.175326 0)
(5.641 -0.168877 0)
(5.67577 -0.16254 0)
(5.7094 -0.156309 0)
(5.74191 -0.150179 0)
(5.7733 -0.144147 0)
(5.80358 -0.138212 0)
(5.83276 -0.132376 0)
(5.86085 -0.126639 0)
(5.88785 -0.121005 0)
(5.91378 -0.115477 0)
(5.93865 -0.110062 0)
(5.96246 -0.104763 0)
(5.98524 -0.0995865 0)
(6.00701 -0.0945379 0)
(6.02776 -0.0896227 0)
(6.04754 -0.0848464 0)
(6.06635 -0.080214 0)
(6.08422 -0.0757301 0)
(6.10117 -0.0713989 0)
(6.11723 -0.0672239 0)
(6.13243 -0.0632079 0)
(6.14679 -0.059353 0)
(6.16035 -0.0556608 0)
(6.17313 -0.0521319 0)
(6.18517 -0.0487664 0)
(6.19649 -0.0455635 0)
(6.20714 -0.0425219 0)
(6.21714 -0.0396397 0)
(6.22653 -0.0369142 0)
(6.23533 -0.0343425 0)
(6.24359 -0.0319208 0)
(6.25133 -0.0296454 0)
(6.25858 -0.0275116 0)
(6.26538 -0.0255149 0)
(6.27176 -0.02365 0)
(6.27774 -0.0219117 0)
(6.28335 -0.0202946 0)
(6.28863 -0.0187931 0)
(6.29359 -0.0174017 0)
(6.29826 -0.0161147 0)
(6.30267 -0.0149267 0)
(6.30685 -0.0138322 0)
(6.3108 -0.0128258 0)
(6.31456 -0.0119025 0)
(6.31813 -0.0110571 0)
(6.32155 -0.0102848 0)
(6.32483 -0.00958071 0)
(6.32798 -0.00894055 0)
(6.33101 -0.00835968 0)
(6.33395 -0.00783414 0)
(6.3368 -0.00735964 0)
(6.33957 -0.00693262 0)
(6.34228 -0.00654919 0)
(6.34494 -0.00620624 0)
(6.34755 -0.00590024 0)
(6.35012 -0.00562844 0)
(6.35266 -0.00538761 0)
(6.35518 -0.00517542 0)
(6.35768 -0.00498893 0)
(6.36016 -0.00482619 0)
(6.36263 -0.00468457 0)
(6.3651 -0.00456247 0)
(6.36757 -0.00445752 0)
(6.37003 -0.00436846 0)
(6.3725 -0.00429315 0)
(6.37498 -0.00423064 0)
(6.37746 -0.00417899 0)
(6.37995 -0.00413755 0)
(6.38245 -0.00410454 0)
(6.38496 -0.00407956 0)
(6.38749 -0.00406097 0)
(6.39002 -0.00404865 0)
(6.39257 -0.00404105 0)
(6.39513 -0.00403826 0)
(6.39771 -0.00403882 0)
(6.40029 -0.00404307 0)
(6.4029 -0.00404957 0)
(6.40551 -0.00405881 0)
(6.40813 -0.00406942 0)
(6.41077 -0.00408207 0)
(6.41342 -0.00409536 0)
(6.41609 -0.00411009 0)
(6.41876 -0.00412486 0)
(6.42144 -0.00414065 0)
(6.42414 -0.00415598 0)
(6.42685 -0.00417193 0)
(6.42956 -0.00418699 0)
(6.43229 -0.00420242 0)
(6.43502 -0.0042166 0)
(6.43777 -0.00423086 0)
(6.44052 -0.00424354 0)
(6.44328 -0.00425614 0)
(6.44605 -0.00426689 0)
(6.44883 -0.00427734 0)
(6.45162 -0.00428567 0)
(6.45441 -0.00429361 0)
(6.45721 -0.00429925 0)
(6.46001 -0.00430434 0)
(6.46282 -0.00430694 0)
(6.46564 -0.00430899 0)
(6.46846 -0.00430845 0)
(6.47128 -0.00430731 0)
(6.47411 -0.00430353 0)
(6.47694 -0.00429941 0)
(6.47977 -0.00429303 0)
(6.4826 -0.00428712 0)
(6.48544 -0.0042804 0)
(6.48827 -0.0042769 0)
(6.4911 -0.00427686 0)
(6.49393 -0.00428677 0)
(6.49674 -0.00431024 0)
(6.49953 -0.00435919 0)
(6.50222 -0.00444122 0)
(6.50566 -0.00459864 0)
(-0.239849 3.37851 0)
(-0.526 3.37202 0)
(-0.880684 3.2659 0)
(-1.21109 3.13136 0)
(-1.53256 2.98475 0)
(-1.84455 2.83494 0)
(-2.14923 2.68584 0)
(-2.44781 2.53838 0)
(-2.74083 2.39138 0)
(-3.02811 2.24202 0)
(-3.30876 2.08655 0)
(-3.58085 1.92065 0)
(-3.8411 1.73978 0)
(-4.08469 1.53977 0)
(-4.30581 1.31717 0)
(-4.49875 1.06963 0)
(-4.65778 0.795842 0)
(-4.77578 0.495838 0)
(-4.8428 0.171924 0)
(-4.84825 -0.170396 0)
(-4.79056 -0.519103 0)
(-4.66989 -0.861404 0)
(-4.48871 -1.18577 0)
(-4.25167 -1.48236 0)
(-3.96515 -1.74313 0)
(-3.63697 -1.96201 0)
(-3.27592 -2.13542 0)
(-2.89124 -2.26236 0)
(-2.49215 -2.34435 0)
(-2.08732 -2.38547 0)
(-1.68442 -2.39169 0)
(-1.2896 -2.36988 0)
(-0.906845 -2.32646 0)
(-0.537863 -2.26673 0)
(-0.182181 -2.1936 0)
(0.157173 -2.10927 0)
(0.472171 -2.01865 0)
(0.766899 -1.92401 0)
(1.04295 -1.82788 0)
(1.3016 -1.73199 0)
(1.54411 -1.63757 0)
(1.77171 -1.54557 0)
(1.98561 -1.45669 0)
(2.18691 -1.37151 0)
(2.37661 -1.29042 0)
(2.55557 -1.21371 0)
(2.72453 -1.14149 0)
(2.88416 -1.07378 0)
(3.03506 -1.0105 0)
(3.17779 -0.951496 0)
(3.31286 -0.896572 0)
(3.44077 -0.845513 0)
(3.56199 -0.798088 0)
(3.67695 -0.754062 0)
(3.78606 -0.713206 0)
(3.88971 -0.675296 0)
(3.98827 -0.64012 0)
(4.08208 -0.607475 0)
(4.17144 -0.577172 0)
(4.25667 -0.549031 0)
(4.33803 -0.522887 0)
(4.41578 -0.498582 0)
(4.49016 -0.475971 0)
(4.5614 -0.454918 0)
(4.62969 -0.435295 0)
(4.69524 -0.416983 0)
(4.75821 -0.399873 0)
(4.81877 -0.383859 0)
(4.87707 -0.368846 0)
(4.93326 -0.354745 0)
(4.98746 -0.34147 0)
(5.03978 -0.328945 0)
(5.09035 -0.317098 0)
(5.13924 -0.305861 0)
(5.18657 -0.295172 0)
(5.2324 -0.284975 0)
(5.27681 -0.275217 0)
(5.31987 -0.265851 0)
(5.36163 -0.256832 0)
(5.40214 -0.248122 0)
(5.44145 -0.239684 0)
(5.4796 -0.231488 0)
(5.51662 -0.223506 0)
(5.55253 -0.215714 0)
(5.58737 -0.20809 0)
(5.62114 -0.200619 0)