/*--------------------------------*- C++ -*----------------------------------*\
  =========                 |
  \\      /  F ield         | OpenFOAM: The Open Source CFD Toolbox
   \\    /   O peration     | Website:  https://openfoam.org
    \\  /    A nd           | Version:  7
     \\/     M anipulation  |
\*---------------------------------------------------------------------------*/
FoamFile
{
    version     2.0;
    format      ascii;
    class       volScalarField;
    location    "6.4";
    object      p;
}
// * * * * * * * * * * * * * * * * * * * * * * * * * * * * * * * * * * * * * //

dimensions      [0 2 -2 0 0 0 0];

internalField   nonuniform List<scalar> 
900
(
7.94272e-07
-0.000330588
-0.000865251
-0.00142972
-0.0019242
-0.00228763
-0.00248908
-0.00251425
-0.0023553
-0.00200647
-0.00146361
-0.000726212
0.000199079
0.00129459
0.00252823
0.00385149
0.00519968
0.00649485
0.0076519
0.00858732
0.00922984
0.00953136
0.00947646
0.0090883
0.00843031
0.00760137
0.00672168
0.00594948
0.00542559
0.00528352
0.000330589
-1.28371e-05
-0.00041925
-0.000831275
-0.00118838
-0.00144678
-0.00158208
-0.0015805
-0.00143282
-0.00113208
-0.000673521
-5.61409e-05
0.000714716
0.00162442
0.00264633
0.00374009
0.00485379
0.00592267
0.0068772
0.00764951
0.00818225
0.00843787
0.00840619
0.00810884
0.00759935
0.0069587
0.00628517
0.00567973
0.0052693
0.00513929
0.00088623
0.000380094
-4.01332e-05
-0.000408572
-0.000712393
-0.000925174
-0.00103266
-0.00102651
-0.000899416
-0.000644212
-0.000254643
0.000272817
0.000936358
0.00172588
0.00262029
0.00358625
0.00457686
0.00553435
0.00639471
0.00709437
0.00757888
0.00781199
0.00778314
0.00751161
0.00704595
0.00645865
0.00583666
0.00527002
0.00484744
0.00463434
0.00149577
0.000773203
0.000278557
-0.000100528
-0.000395402
-0.000596533
-0.000701358
-0.000708916
-0.000614975
-0.000412318
-9.23684e-05
0.000352413
0.00092544
0.00162256
0.0024288
0.00331607
0.00424185
0.00515081
0.00597913
0.00666124
0.007139
0.00737149
0.00734343
0.00706995
0.00659603
0.00599051
0.00533658
0.00472118
0.00421402
0.00384528
0.00202869
0.00107374
0.000483065
6.89209e-05
-0.000241201
-0.000453231
-0.00057585
-0.000615369
-0.000570399
-0.000433095
-0.000191637
0.000166736
0.000651997
0.00126719
0.00200423
0.00284053
0.00373763
0.00464058
0.00548288
0.00619301
0.00670434
0.00696631
0.00695442
0.00667656
0.00617334
0.00551189
0.00477662
0.00405812
0.00341634
0.00284524
0.00237282
0.00118819
0.000493266
2.9196e-05
-0.000314496
-0.000557605
-0.000718875
-0.000810846
-0.000834058
-0.000779126
-0.000629928
-0.000367232
2.69082e-05
0.000564184
0.0012447
0.00205229
0.00295282
0.00389101
0.00479588
0.00558661
0.00618341
0.00652037
0.00655795
0.00629198
0.00575599
0.00501599
0.00416181
0.00329519
0.0024742
0.00166279
0.00243151
0.00103109
0.000232095
-0.000290384
-0.00068186
-0.000974566
-0.00119595
-0.00136348
-0.0014785
-0.001529
-0.00149339
-0.00134463
-0.00105516
-0.000602752
2.2833e-05
0.000813557
0.00174293
0.00275469
0.00377304
0.00470546
0.00545426
0.00593151
0.00607488
0.00586066
0.00531005
0.00448635
0.00348798
0.00243545
0.00139354
0.000300408
0.00211976
0.000524218
-0.000373465
-0.000958845
-0.00140984
-0.00177011
-0.00207456
-0.0023444
-0.00258069
-0.00276778
-0.0028775
-0.00287356
-0.00271695
-0.00237245
-0.0018168
-0.0010473
-7.3965e-05
0.00104326
0.00222626
0.00336993
0.00435433
0.00506177
0.00539678
0.00530515
0.00478651
0.0038966
0.00274374
0.00147473
0.000169497
-0.00125748
0.0013618
-0.000403424
-0.00139151
-0.00204266
-0.00256448
-0.00301129
-0.00342457
-0.00382831
-0.00422254
-0.00458727
-0.00488683
-0.00507428
-0.00509706
-0.00490391
-0.0044524
-0.0037172
-0.00271421
-0.0014742
-7.96371e-05
0.0013512
0.00267266
0.00372887
0.00437821
0.00452029
0.00411834
0.00321042
0.00191275
0.000405436
-0.00120785
-0.00303612
9.17027e-05
-0.00181356
-0.00288215
-0.00360171
-0.00420644
-0.00476078
-0.00531216
-0.0058869
-0.00648377
-0.00707817
-0.00762644
-0.00806992
-0.00834026
-0.00836657
-0.00808383
-0.00744368
-0.00643216
-0.0050692
-0.00342814
-0.00163437
0.00014009
0.00169346
0.00282279
0.00336065
0.00321131
0.0023769
0.000973639
-0.000779863
-0.0027472
-0.00506174
-0.00174414
-0.00375592
-0.00489403
-0.00568489
-0.00638567
-0.00707046
-0.00779243
-0.00858029
-0.00943187
-0.0103184
-0.0111885
-0.0119709
-0.0125799
-0.0129211
-0.0129012
-0.0124399
-0.0114868
-0.010035
-0.00813758
-0.00591785
-0.00357015
-0.0013467
0.00047292
0.00162855
0.00193369
0.00132456
-0.000100756
-0.00208474
-0.00444921
-0.00735287
-0.00418368
-0.00626518
-0.00746088
-0.00832589
-0.00913606
-0.00997482
-0.0109013
-0.011947
-0.0131101
-0.0143588
-0.0156347
-0.0168545
-0.0179138
-0.0186918
-0.0190612
-0.0189009
-0.0181141
-0.0166507
-0.0145273
-0.0118494
-0.00882229
-0.00574634
-0.00298927
-0.000931609
0.000108287
-4.45348e-05
-0.00134436
-0.00350463
-0.00629854
-0.0099104
-0.00724579
-0.00935817
-0.0105985
-0.0115393
-0.0124704
-0.0134843
-0.0146467
-0.0159934
-0.0175242
-0.0192064
-0.0209764
-0.0227401
-0.0243744
-0.0257304
-0.0266425
-0.0269404
-0.02647
-0.0251234
-0.0228588
-0.0197425
-0.01597
-0.0118766
-0.00792004
-0.00462479
-0.00248792
-0.00185765
-0.0027976
-0.00502106
-0.00825361
-0.0127051
-0.0109276
-0.013032
-0.0143028
-0.0153179
-0.0163761
-0.0175796
-0.0190013
-0.0206833
-0.0226293
-0.0248084
-0.0271544
-0.0295646
-0.0318984
-0.0339791
-0.0356
-0.0365376
-0.0365722
-0.0355159
-0.033256
-0.0297908
-0.0252762
-0.0200552
-0.0146609
-0.00977168
-0.00610753
-0.00426532
-0.00450297
-0.00659292
-0.0102328
-0.0156608
-0.0152036
-0.0172639
-0.0185492
-0.0196311
-0.0208131
-0.0222072
-0.0238961
-0.0259301
-0.0283203
-0.0310401
-0.034024
-0.0371637
-0.0403038
-0.0432412
-0.045729
-0.0474882
-0.0482271
-0.0476722
-0.0456192
-0.0419715
-0.0368101
-0.0304451
-0.0234491
-0.0166407
-0.0109895
-0.00741845
-0.00649181
-0.00814239
-0.0120955
-0.0186318
-0.0200261
-0.0220132
-0.0232951
-0.0244268
-0.0257133
-0.0272787
-0.0292183
-0.031594
-0.0344272
-0.0376996
-0.0413493
-0.0452655
-0.0492812
-0.0531705
-0.0566493
-0.0593851
-0.061015
-0.0611742
-0.0595622
-0.0559616
-0.0503444
-0.0429393
-0.0343021
-0.0253456
-0.017282
-0.0114196
-0.00875562
-0.00953233
-0.0136155
-0.0213717
-0.0253299
-0.0272266
-0.0284844
-0.0296351
-0.0309843
-0.0326726
-0.0348128
-0.037483
-0.040719
-0.0445133
-0.0488109
-0.053501
-0.0584085
-0.0632883
-0.067824
-0.0716353
-0.0742946
-0.0753543
-0.0744029
-0.0711044
-0.0652935
-0.0570697
-0.0469036
-0.0357252
-0.0249357
-0.0162444
-0.0111958
-0.0105313
-0.0144466
-0.0234944
-0.0310387
-0.0328468
-0.0340563
-0.0351752
-0.0365147
-0.0382396
-0.0404883
-0.0433618
-0.0469141
-0.0511517
-0.0560277
-0.0614335
-0.0671877
-0.0730294
-0.078615
-0.0835238
-0.0872741
-0.08935
-0.0892221
-0.0864539
-0.0807289
-0.0719829
-0.0605363
-0.0472413
-0.0335882
-0.0216382
-0.0135495
-0.0107625
-0.0140764
-0.0244228
-0.0370768
-0.0388253
-0.0399563
-0.0409648
-0.0421815
-0.0438098
-0.0460265
-0.0489638
-0.052699
-0.0572541
-0.0625908
-0.0686018
-0.0751
-0.0818101
-0.0883654
-0.0943116
-0.099121
-0.102216
-0.102994
-0.100904
-0.0954911
-0.0865164
-0.0741055
-0.0589426
-0.0424792
-0.0270113
-0.0152954
-0.00963435
-0.0117679
-0.0233255
-0.0433849
-0.0451404
-0.0461512
-0.04693
-0.0478578
-0.0492007
-0.0511924
-0.0540074
-0.0577506
-0.0624599
-0.0681032
-0.0745715
-0.081669
-0.0891053
-0.0964916
-0.103345
-0.109099
-0.113127
-0.114767
-0.113376
-0.108378
-0.0993701
-0.0862689
-0.0695292
-0.0504396
-0.0313675
-0.0155577
-0.00625403
-0.0064861
-0.0190307
-0.0499458
-0.0518236
-0.0526468
-0.0530152
-0.0534183
-0.054223
-0.0557446
-0.058212
-0.0617607
-0.0664407
-0.0722206
-0.078983
-0.0865177
-0.0945148
-0.102561
-0.110146
-0.116669
-0.12146
-0.12381
-0.122995
-0.118349
-0.109325
-0.0956454
-0.0775177
-0.055981
-0.0333053
-0.0130384
0.000667358
0.00319404
-0.00990578
-0.0568292
-0.058998
-0.0595102
-0.0591903
-0.0587408
-0.0586841
-0.0594449
-0.0613157
-0.0644594
-0.0689301
-0.0746858
-0.0815905
-0.0894099
-0.097807
-0.10634
-0.114467
-0.12155
-0.12688
-0.129695
-0.129214
-0.124682
-0.115438
-0.101039
-0.081466
-0.057476
-0.0311111
-0.00600865
0.012898
0.0192003
0.00632832
-0.0642783
-0.0669422
-0.0668971
-0.0654544
-0.063704
-0.0623898
-0.0620676
-0.0630918
-0.065639
-0.06975
-0.0753556
-0.0822869
-0.0902717
-0.0989374
-0.107805
-0.116291
-0.123721
-0.129338
-0.132326
-0.131839
-0.127037
-0.117159
-0.101614
-0.0801974
-0.0533903
-0.0229451
0.00760745
0.0327268
0.0441123
0.0329003
-0.0728977
-0.0761976
-0.0750866
-0.0718364
-0.0681825
-0.0651476
-0.0634134
-0.06337
-0.0651768
-0.0688333
-0.0742171
-0.0811073
-0.0891829
-0.0980227
-0.107102
-0.115793
-0.12337
-0.129022
-0.131868
-0.130985
-0.125433
-0.11434
-0.0969842
-0.0729856
-0.0425471
-0.00714335
0.0300013
0.0629211
0.0813785
0.0744764
-0.0840764
-0.0877546
-0.0845147
-0.0783852
-0.0720416
-0.0667742
-0.0633258
-0.0620563
-0.0630529
-0.0662287
-0.0713827
-0.0782198
-0.0863553
-0.0953104
-0.104508
-0.113267
-0.120808
-0.126256
-0.128652
-0.126981
-0.120172
-0.107227
-0.0872545
-0.0596672
-0.0244598
0.0173279
0.0629775
0.106482
0.135491
0.137663
-0.100972
-0.103384
-0.0957753
-0.0851234
-0.0751058
-0.0670782
-0.0616789
-0.0591181
-0.0593252
-0.0620757
-0.0670539
-0.0738722
-0.08207
-0.0911055
-0.100345
-0.109054
-0.116395
-0.121426
-0.123105
-0.120319
-0.111816
-0.0964581
-0.0731236
-0.0409402
0.000453306
0.0505022
0.107197
0.16585
0.211525
0.23094
-0.130714
-0.126145
-0.109642
-0.0920237
-0.0771218
-0.0658155
-0.0583317
-0.054538
-0.0540905
-0.0565591
-0.0614787
-0.0683536
-0.0766427
-0.0857411
-0.0949625
-0.103524
-0.110535
-0.114992
-0.115777
-0.111665
-0.101276
-0.0832232
-0.0561021
-0.0186211
0.030185
0.0906498
0.162155
0.241099
0.313395
0.365967
-0.189359
-0.159522
-0.126561
-0.0986111
-0.0773666
-0.0623883
-0.0529377
-0.0482105
-0.0474265
-0.0498826
-0.0549433
-0.0620042
-0.0704532
-0.0796362
-0.0888291
-0.0972149
-0.103867
-0.107734
-0.107636
-0.102247
-0.0901805
-0.0697112
-0.0391045
0.00349885
0.0600492
0.13248
0.222608
0.329727
0.443264
0.569553
-0.320648
-0.199398
-0.138181
-0.0972762
-0.0699299
-0.0525256
-0.0425588
-0.0381464
-0.0379661
-0.0410825
-0.0467602
-0.0543483
-0.0632138
-0.072695
-0.0820661
-0.09051
-0.0970994
-0.100776
-0.100338
-0.0943189
-0.0814414
-0.0597874
-0.0273277
0.0183599
0.0804136
0.163204
0.273194
0.418879
0.607238
0.89677
-0.647945
-0.235826
-0.106737
-0.0623028
-0.0380913
-0.0245554
-0.01877
-0.0180997
-0.0209102
-0.026342
-0.0338225
-0.0428384
-0.0528616
-0.063312
-0.0735277
-0.0827419
-0.0900668
-0.0944834
-0.094853
-0.089983
-0.0780294
-0.0574116
-0.0260897
0.0185669
0.0802771
0.165274
0.285994
0.470752
0.776911
1.37078
)
;

boundaryField
{
    movingWall
    {
        type            zeroGradient;
    }
    fixedWalls
    {
        type            zeroGradient;
    }
    frontAndBack
    {
        type            empty;
    }
}


// ************************************************************************* //
