/*--------------------------------*- C++ -*----------------------------------*\
  =========                 |
  \\      /  F ield         | OpenFOAM: The Open Source CFD Toolbox
   \\    /   O peration     | Website:  https://openfoam.org
    \\  /    A nd           | Version:  7
     \\/     M anipulation  |
\*---------------------------------------------------------------------------*/
FoamFile
{
    version     2.0;
    format      ascii;
    class       surfaceScalarField;
    location    "6.4";
    object      phi;
}
// * * * * * * * * * * * * * * * * * * * * * * * * * * * * * * * * * * * * * //

dimensions      [0 3 -1 0 0 0 0];

internalField   nonuniform List<scalar> 
1740
(
7.61355e-07
-7.62015e-07
3.85985e-07
3.75378e-07
-1.51328e-06
1.89927e-06
-4.76958e-06
3.25631e-06
-9.04476e-06
4.27518e-06
-1.40021e-05
4.95735e-06
-1.93589e-05
5.3568e-06
-2.48856e-05
5.52673e-06
-3.03855e-05
5.49985e-06
-3.56716e-05
5.28606e-06
-4.05495e-05
4.87794e-06
-4.48091e-05
4.25958e-06
-4.82256e-05
3.41657e-06
-5.05714e-05
2.34574e-06
-5.16352e-05
1.06379e-06
-5.12482e-05
-3.87023e-07
-4.93126e-05
-1.93556e-06
-4.58304e-05
-3.48215e-06
-4.09247e-05
-4.90574e-06
-3.48491e-05
-6.07557e-06
-2.79823e-05
-6.8668e-06
-2.08034e-05
-7.17898e-06
-1.38496e-05
-6.95376e-06
-7.6609e-06
-6.18869e-06
-2.71625e-06
-4.94464e-06
6.34745e-07
-3.351e-06
2.24591e-06
-1.61117e-06
2.2341e-06
1.18146e-08
1.08383e-06
1.15028e-06
1.08384e-06
-3.59131e-07
-4.02873e-07
-3.48958e-06
3.50583e-06
-9.91323e-06
8.32292e-06
-1.92493e-05
1.25924e-05
-3.08689e-05
1.58948e-05
-4.40887e-05
1.81772e-05
-5.82648e-05
1.95328e-05
-7.28157e-05
2.00776e-05
-8.72054e-05
1.98896e-05
-0.000100914
1.89946e-05
-0.000113413
1.73774e-05
-0.000124159
1.50052e-05
-0.000132599
1.18564e-05
-0.000138202
7.94915e-06
-0.000140503
3.36517e-06
-0.000139163
-1.72753e-06
-0.000134008
-7.09032e-06
-0.000125108
-1.23826e-05
-0.000112797
-1.72163e-05
-9.76954e-05
-2.11775e-05
-8.06852e-05
-2.38769e-05
-6.28591e-05
-2.50051e-05
-4.54272e-05
-2.43856e-05
-2.95968e-05
-2.20191e-05
-1.6433e-05
-1.81084e-05
-6.716e-06
-1.3068e-05
-8.05076e-07
-7.52208e-06
1.52591e-06
-2.31917e-06
1.20134e-06
1.47485e-06
2.28519e-06
-2.0488e-06
1.64594e-06
-8.8748e-06
1.03318e-05
-2.03079e-05
1.9756e-05
-3.56942e-05
2.79787e-05
-5.41589e-05
3.43595e-05
-7.47767e-05
3.8795e-05
-9.6655e-05
4.14112e-05
-0.000118956
4.23785e-05
-0.000140881
4.18146e-05
-0.000161644
3.97577e-05
-0.000180452
3.61849e-05
-0.000196499
3.10528e-05
-0.000208992
2.43493e-05
-0.000217186
1.61435e-05
-0.000220451
6.62951e-06
-0.000218331
-3.84691e-06
-0.000210631
-1.47908e-05
-0.000197472
-2.5542e-05
-0.00017934
-3.53478e-05
-0.000157103
-4.34148e-05
-0.000131981
-4.89985e-05
-0.000105482
-5.15045e-05
-7.92782e-05
-5.0589e-05
-5.50534e-05
-4.62439e-05
-3.43124e-05
-3.88495e-05
-1.81873e-05
-2.91931e-05
-7.2518e-06
-1.84576e-05
-1.37634e-06
-8.19462e-06
4.24089e-07
-3.25579e-07
2.70928e-06
-3.8474e-06
5.49333e-06
-1.45803e-05
2.10648e-05
-3.12135e-05
3.63891e-05
-5.2628e-05
4.93933e-05
-7.76553e-05
5.93868e-05
-0.000105151
6.62909e-05
-0.000134032
7.02917e-05
-0.000163271
7.16175e-05
-0.000191876
7.04199e-05
-0.000218862
6.67438e-05
-0.000243233
6.0556e-05
-0.000263988
5.18075e-05
-0.000280147
4.05079e-05
-0.000290802
2.67991e-05
-0.000295189
1.10163e-05
-0.00029276
-6.27618e-06
-0.000283269
-2.42815e-05
-0.000266847
-4.19641e-05
-0.000244052
-5.8143e-05
-0.000215894
-7.15732e-05
-0.000183815
-8.10774e-05
-0.00014962
-8.56995e-05
-0.000115347
-8.48619e-05
-8.30865e-05
-7.85041e-05
-5.47596e-05
-6.71764e-05
-3.18792e-05
-5.20735e-05
-1.53289e-05
-3.50079e-05
-5.18909e-06
-1.83344e-05
-6.57035e-07
-4.85763e-06
2.05224e-06
-5.5802e-06
1.10735e-05
-2.01858e-05
3.56704e-05
-4.19737e-05
5.8177e-05
-6.92857e-05
7.67053e-05
-0.000100618
9.07194e-05
-0.00013461
0.000100283
-0.000170016
0.000105697
-0.000205669
0.000107271
-0.00024044
0.000105191
-0.000273201
9.95045e-05
-0.000302809
9.01639e-05
-0.000328114
7.71125e-05
-0.00034799
6.0384e-05
-0.000361389
4.01986e-05
-0.000367415
1.70422e-05
-0.000365405
-8.28639e-06
-0.000355013
-3.46731e-05
-0.000336304
-6.06729e-05
-0.000309815
-8.46323e-05
-0.000276598
-0.00010479
-0.000238222
-0.000119453
-0.000196718
-0.000127204
-0.000154451
-0.000127129
-0.000113927
-0.000119028
-7.75347e-05
-0.000103569
-4.72612e-05
-8.2347e-05
-2.44199e-05
-5.78493e-05
-9.44484e-06
-3.33094e-05
-1.79841e-06
-1.25041e-05
2.53828e-07
-7.19519e-06
1.82687e-05
-2.54968e-05
5.3972e-05
-5.22347e-05
8.49149e-05
-8.52004e-05
0.000109671
-0.000122544
0.000128063
-0.000162691
0.000140429
-0.000204258
0.000147265
-0.000245976
0.000148989
-0.000286623
0.000145838
-0.000324978
0.000137859
-0.000359796
0.000124982
-0.000389817
0.000107134
-0.000413794
8.43603e-05
-0.000430542
5.69475e-05
-0.000439018
2.55176e-05
-0.000438398
-8.90637e-06
-0.000428166
-4.49049e-05
-0.000408228
-8.06106e-05
-0.000378994
-0.000113867
-0.000341452
-0.000142332
-0.000297207
-0.000163699
-0.000248455
-0.000175955
-0.000197882
-0.000177702
-0.000148455
-0.000168455
-0.000103137
-0.000148887
-6.45298e-05
-0.000120954
-3.45341e-05
-8.78449e-05
-1.40758e-05
-5.37677e-05
-2.97965e-06
-2.36003e-05
-2.72583e-06
-8.67468e-06
2.69434e-05
-3.04081e-05
7.57054e-05
-6.17738e-05
0.000116281
-0.000100043
0.00014794
-0.000143034
0.000171054
-0.000188976
0.000186372
-0.000236373
0.000194661
-0.000283884
0.0001965
-0.000330235
0.000192189
-0.000374153
0.000181777
-0.000414334
0.000165163
-0.000449438
0.000142237
-0.000478112
0.000113034
-0.000499037
7.7872e-05
-0.00051099
3.74714e-05
-0.000512945
-6.95132e-06
-0.000504125
-5.37254e-05
-0.00048418
-0.000100556
-0.000453274
-0.000144773
-0.00041221
-0.000183396
-0.000362521
-0.000213387
-0.000306502
-0.000231974
-0.000247141
-0.000237063
-0.000187928
-0.000227668
-0.000132527
-0.000204289
-8.43409e-05
-0.00016914
-4.60582e-05
-0.000126128
-1.92668e-05
-8.05591e-05
-4.25547e-06
-3.86116e-05
-6.9813e-06
-1.00026e-05
3.6946e-05
-3.48361e-05
0.000100539
-7.04077e-05
0.000151852
-0.000113525
0.000191057
-0.00016171
0.00021924
-0.000213022
0.000237684
-0.000265878
0.000247516
-0.000318899
0.000249522
-0.000370796
0.000244087
-0.000420283
0.000231264
-0.000466031
0.000210911
-0.00050665
0.000182857
-0.000540702
0.000147086
-0.000566731
0.0001039
-0.000583311
5.40514e-05
-0.000589181
-1.08079e-06
-0.000583201
-5.97056e-05
-0.000564685
-0.000119072
-0.000533419
-0.000176038
-0.000489881
-0.000226935
-0.000435396
-0.000267872
-0.000372246
-0.000295124
-0.000303674
-0.000305636
-0.000233725
-0.000297617
-0.000166896
-0.000271117
-0.000107611
-0.000228425
-5.9597e-05
-0.000174142
-2.53348e-05
-0.000114821
-5.72558e-06
-5.82209e-05
-1.27069e-05
-1.11546e-05
4.81006e-05
-3.86887e-05
0.000128073
-7.79475e-05
0.000191111
-0.000125347
0.000238456
-0.000178161
0.000272054
-0.000234312
0.000293835
-0.000292159
0.000305363
-0.000350317
0.00030768
-0.000407515
0.000301284
-0.00046249
0.00028624
-0.000513926
0.000262347
-0.000560417
0.000229348
-0.000600462
0.000187131
-0.000632481
0.000135919
-0.00065486
7.64301e-05
-0.000665969
1.00288e-05
-0.000664418
-6.12565e-05
-0.000648991
-0.000134499
-0.000618989
-0.00020604
-0.000574411
-0.000271513
-0.0005162
-0.000326083
-0.000446459
-0.000364865
-0.000368562
-0.000383532
-0.000287085
-0.000379095
-0.00020746
-0.000350742
-0.000135357
-0.000300527
-7.5862e-05
-0.000233637
-3.26632e-05
-0.00015802
-7.50977e-06
-8.33743e-05
-2.02167e-05
-1.20988e-05
6.01994e-05
-4.18605e-05
0.000157835
-8.41872e-05
0.000233438
-0.000135184
0.000289453
-0.000191932
0.000328801
-0.000252249
0.000354152
-0.000314468
0.000367582
-0.000377223
0.000370435
-0.000439293
0.000363354
-0.000499474
0.000346421
-0.000556498
0.000319371
-0.000608982
0.000281832
-0.0006554
0.000233549
-0.000694076
0.000174596
-0.000723211
0.000105564
-0.000740913
2.77309e-05
-0.000745352
-5.68174e-05
-0.000734828
-0.000145023
-0.000708035
-0.000232833
-0.00066433
-0.000315217
-0.000604064
-0.00038635
-0.000528919
-0.00044001
-0.000442185
-0.000470266
-0.00034883
-0.00047245
-0.000255244
-0.000444328
-0.000168561
-0.000387211
-9.5592e-05
-0.000306606
-4.16649e-05
-0.000211947
-9.73748e-06
-0.000115302
-2.99542e-05
-1.27994e-05
7.29988e-05
-4.42405e-05
0.000189276
-8.8914e-05
0.000278111
-0.000142702
0.000343241
-0.000202541
0.00038864
-0.000266183
0.000417794
-0.000331954
0.000433353
-0.000398534
0.000437015
-0.000464775
0.000429595
-0.000529565
0.000411211
-0.000591727
0.000381532
-0.000649942
0.000340048
-0.00070271
0.000286317
-0.000748318
0.000220203
-0.000784834
0.000142081
-0.000810141
5.30375e-05
-0.000822015
-4.49427e-05
-0.000818249
-0.00014879
-0.000796868
-0.000254214
-0.000756446
-0.000355639
-0.00069651
-0.000446286
-0.00061802
-0.0005185
-0.000523838
-0.000564448
-0.000419043
-0.000577245
-0.000310863
-0.000552508
-0.000208028
-0.000490046
-0.000119486
-0.000395148
-5.27584e-05
-0.000278675
-1.25441e-05
-0.000155516
-4.24983e-05
-1.32233e-05
8.62221e-05
-4.57273e-05
0.00022178
-9.19328e-05
0.000324317
-0.000147584
0.000398892
-0.000209523
0.000450579
-0.000275461
0.000483732
-0.000343734
0.000501627
-0.000413083
0.000506363
-0.000482455
0.000498967
-0.000550859
0.000479615
-0.000617244
0.000447918
-0.000680413
0.000403217
-0.000738954
0.000344858
-0.000791192
0.000272441
-0.00083516
0.000186049
-0.000868597
8.64749e-05
-0.000888988
-2.4552e-05
-0.000893667
-0.000144111
-0.000879993
-0.000267888
-0.000845664
-0.000389968
-0.000789172
-0.000502778
-0.000710404
-0.000597267
-0.000611347
-0.000663505
-0.000496716
-0.000691876
-0.000374242
-0.000674982
-0.000254227
-0.000610061
-0.000148126
-0.000501249
-6.63457e-05
-0.000360455
-1.60695e-05
-0.000205792
-5.85678e-05
-1.33466e-05
9.95687e-05
-4.62484e-05
0.000254682
-9.30992e-05
0.000371167
-0.000149584
0.000455378
-0.000212492
0.000513486
-0.000279507
0.000550748
-0.000348989
0.000571108
-0.000419743
0.000577117
-0.000490829
0.000570053
-0.000561399
0.000550184
-0.000630566
0.000517085
-0.000697307
0.000469958
-0.000760375
0.000407926
-0.000818232
0.000330298
-0.000868995
0.000236812
-0.000910401
0.000127881
-0.000939784
4.83136e-06
-0.000954167
-0.000129728
-0.000950322
-0.000271734
-0.000925069
-0.000415221
-0.000875716
-0.000552131
-0.000800746
-0.000672237
-0.000700737
-0.000763514
-0.000579386
-0.000813227
-0.000444311
-0.000810057
-0.000307078
-0.000747293
-0.000181883
-0.000626444
-8.27833e-05
-0.000459555
-2.04555e-05
-0.00026812
-7.90233e-05
-1.3163e-05
0.000112732
-4.57838e-05
0.000287303
-9.23598e-05
0.000417743
-0.000148583
0.000511601
-0.000211213
0.000576117
-0.000277921
0.000617456
-0.000347087
0.000640274
-0.000417585
0.000647616
-0.000488594
0.000641062
-0.000559427
0.000621017
-0.000629397
0.000587055
-0.000697707
0.000538268
-0.000763353
0.000473572
-0.000825042
0.000391987
-0.000881115
0.000292885
-0.000929473
0.000176239
-0.000967529
4.28867e-05
-0.000992152
-0.000105104
-0.000999746
-0.00026414
-0.000986362
-0.000428605
-0.000948099
-0.000590394
-0.000881789
-0.000738547
-0.000786078
-0.000859225
-0.000662848
-0.000936456
-0.000518687
-0.000954218
-0.000365716
-0.000900265
-0.000220781
-0.000771379
-0.00010234
-0.000577995
-2.5842e-05
-0.000344618
-0.000104865
-1.26918e-05
0.000125423
-4.439e-05
0.000319001
-8.97956e-05
0.000463149
-0.000144647
0.000566452
-0.000205691
0.00063716
-0.000270582
0.000682347
-0.000337718
0.00070741
-0.000406043
0.00071594
-0.000474857
0.000709876
-0.000543652
0.000689812
-0.000611971
0.000655374
-0.00067929
0.000605587
-0.000744922
0.000539205
-0.000807924
0.000454989
-0.000867001
0.000351961
-0.000920407
0.000229644
-0.000965836
8.83162e-05
-0.00100029
-7.06479e-05
-0.00102008
-0.000244355
-0.00102072
-0.000427962
-0.000997254
-0.000613861
-0.00094479
-0.000791012
-0.000859639
-0.000944376
-0.000741054
-0.00105504
-0.000593421
-0.00110185
-0.000428223
-0.00106546
-0.000264341
-0.000935261
-0.000125141
-0.000717195
-3.23584e-05
-0.000437401
-0.000137224
-1.19861e-05
0.00013741
-4.22254e-05
0.00034924
-8.56671e-05
0.000506591
-0.000138099
0.000618884
-0.000196247
0.000695309
-0.000257748
0.000743848
-0.000321016
0.000770678
-0.000385066
0.000779991
-0.000449333
0.000774143
-0.000513501
0.00075398
-0.000577368
0.000719241
-0.000640729
0.000668947
-0.000703273
0.000601749
-0.000764493
0.000516209
-0.000823581
0.000411049
-0.000879306
0.00028537
-0.000929873
0.000138883
-0.000972672
-2.78484e-05
-0.00100427
-0.00021276
-0.00102001
-0.000412219
-0.0010142
-0.000619671
-0.000980411
-0.000824801
-0.000912469
-0.00101232
-0.000806332
-0.00116118
-0.000662922
-0.00124526
-0.000491422
-0.00123696
-0.000311406
-0.00111528
-0.000151096
-0.000877505
-4.01137e-05
-0.000548384
-0.000177337
-1.11418e-05
0.000148551
-3.95774e-05
0.000377676
-8.04584e-05
0.000547472
-0.00012957
0.000667996
-0.000183592
0.00074933
-0.000240136
0.000800392
-0.000297649
0.00082819
-0.000355235
0.000837578
-0.000412482
0.00083139
-0.000469292
0.00081079
-0.000525744
0.000775692
-0.000581982
0.000725185
-0.000638118
0.000657885
-0.000694141
0.000572232
-0.000749813
0.000466721
-0.000804538
0.000340096
-0.000857196
0.00019154
-0.000905864
2.08194e-05
-0.000947617
-0.000171007
-0.000978112
-0.000381723
-0.000991407
-0.000606376
-0.000979984
-0.000836224
-0.000935405
-0.0010569
-0.00085002
-0.00124656
-0.00072017
-0.00137511
-0.000550793
-0.00140634
-0.000359982
-0.00130609
-0.000179827
-0.00105766
-4.91881e-05
-0.000679022
-0.000226525
-1.03089e-05
0.00015886
-3.68937e-05
0.000404261
-7.49261e-05
0.000585504
-0.000120059
0.000713129
-0.000168876
0.000798147
-0.000218977
0.000850493
-0.000268873
0.000878086
-0.000317807
0.000886512
-0.000365563
0.000879146
-0.000412296
0.000857523
-0.000458398
0.000821795
-0.00050439
0.000771177
-0.000550828
0.000704324
-0.000598225
0.000619629
-0.000646948
0.000515443
-0.000697094
0.000390242
-0.000748305
0.000242751
-0.000799567
7.20822e-05
-0.000848667
-0.000121907
-0.000892044
-0.000338347
-0.000924088
-0.000574332
-0.000936887
-0.000823424
-0.000920356
-0.00107343
-0.000863454
-0.00130347
-0.000757276
-0.00148129
-0.000600602
-0.00156301
-0.00040716
-0.00149953
-0.000210608
-0.00125421
-5.96352e-05
-0.000829995
-0.000286161
-9.70994e-06
0.00016857
-3.4828e-05
0.000429379
-7.01571e-05
0.000620833
-0.000110985
0.000753957
-0.000153734
0.000840896
-0.000196025
0.000892785
-0.000236519
0.00091858
-0.000274683
0.000924676
-0.000310572
0.000915035
-0.000344653
0.000891604
-0.000377669
0.00085481
-0.000410536
0.000804043
-0.000444263
0.000738051
-0.000479876
0.000655242
-0.000518335
0.000553902
-0.000560418
0.000432325
-0.000606559
0.000288891
-0.000656614
0.000122137
-0.000709424
-6.90967e-05
-0.000762444
-0.000285327
-0.000810995
-0.000525781
-0.000847598
-0.000786821
-0.000861507
-0.00105952
-0.000839107
-0.00132587
-0.000766302
-0.00155409
-0.000634269
-0.00169505
-0.000449127
-0.00168467
-0.000242338
-0.001461
-7.15068e-05
-0.00100083
-0.000357667
-9.67667e-06
0.000178247
-3.43143e-05
0.000454016
-6.76503e-05
0.000654169
-0.000104245
0.000790552
-0.00014029
0.000876942
-0.000173525
0.000926019
-0.000202904
0.000947959
-0.000228265
0.000950037
-0.000250054
0.000936824
-0.000269126
0.000910677
-0.00028662
0.000872304
-0.000303862
0.000821285
-0.000322297
0.000756486
-0.00034343
0.000676375
-0.000368754
0.000579227
-0.000399658
0.000463229
-0.000437289
0.000326523
-0.000482352
0.0001672
-0.000534756
-1.66923e-05
-0.00059319
-0.000226893
-0.000654354
-0.000464618
-0.000712029
-0.000729146
-0.000756012
-0.00101554
-0.000771488
-0.00131039
-0.000740098
-0.00158548
-0.000644876
-0.00179027
-0.00048129
-0.00184826
-0.000273521
-0.00166877
-8.49122e-05
-0.00118944
-0.00044258
-1.07222e-05
0.000188969
-3.66976e-05
0.000479992
-6.94353e-05
0.000686907
-0.000102266
0.000823382
-0.000131133
0.000905809
-0.000154088
0.000948974
-0.000170633
0.000964504
-0.000181192
0.000960596
-0.000186755
0.000942387
-0.00018867
0.000912592
-0.000188515
0.000872149
-0.000188028
0.000820798
-0.00018906
0.000757517
-0.000193528
0.000680843
-0.000203367
0.000589066
-0.000220465
0.000480327
-0.000246558
0.000352616
-0.000283078
0.000203721
-0.000330935
3.11647e-05
-0.000390051
-0.000167778
-0.000458796
-0.000395873
-0.000532875
-0.000655066
-0.000603842
-0.000944568
-0.000657428
-0.00125681
-0.000672822
-0.00157009
-0.000625594
-0.00183749
-0.000498393
-0.00197546
-0.000302239
-0.00186492
-0.000100109
-0.00139157
-0.000542689
-1.36831e-05
0.000202652
-4.39494e-05
0.000510258
-7.82263e-05
0.000721184
-0.00010802
0.000853175
-0.000129164
0.000926953
-0.00014041
0.00096022
-0.000142188
0.000966282
-0.000135805
0.000954213
-0.000122994
0.000929577
-0.000105696
0.000895294
-8.59668e-05
0.00085242
-6.59438e-05
0.000800775
-4.78251e-05
0.000739399
-3.38584e-05
0.000666876
-2.63097e-05
0.000581517
-2.74224e-05
0.00048144
-3.93692e-05
0.000364562
-6.41692e-05
0.000228521
-0.000103537
7.05328e-05
-0.000158599
-0.000112716
-0.000229405
-0.000325067
-0.000313984
-0.000570487
-0.000406649
-0.000851903
-0.000495521
-0.00116793
-0.00055983
-0.00150578
-0.000569745
-0.00182758
-0.000494443
-0.00205076
-0.000325959
-0.00203341
-0.00011758
-0.00159994
-0.000660269
-1.99855e-05
0.000222638
-5.89889e-05
0.000549261
-9.75384e-05
0.000759733
-0.00012483
0.000880467
-0.000137109
0.000939231
-0.000134516
0.000957628
-0.000118974
0.00095074
-9.3043e-05
0.000928281
-5.94055e-05
0.000895939
-2.06899e-05
0.000856578
2.05659e-05
0.000811164
6.18806e-05
0.000759461
0.000100782
0.000700498
0.000134799
0.000632858
0.000161452
0.000554865
0.00017825
0.000464641
0.000182716
0.000360096
0.000172414
0.000238823
0.000144993
9.79537e-05
9.83147e-05
-6.60377e-05
3.07718e-05
-0.000257524
-5.80334e-05
-0.000481682
-0.000165825
-0.000744112
-0.000284719
-0.00104904
-0.000396788
-0.00139371
-0.000470244
-0.00175412
-0.000462187
-0.00205882
-0.000340989
-0.00215461
-0.000137942
-0.00180299
-0.000798211
-3.21159e-05
0.000254754
-8.60344e-05
0.00060318
-0.000131454
0.000805153
-0.000155464
0.000904477
-0.000156024
0.000939791
-0.000135829
0.000937432
-9.90456e-05
0.000913957
-4.99054e-05
0.000879141
7.77487e-06
0.000838259
7.06551e-05
0.000793698
0.000135747
0.000746072
0.000200299
0.000694908
0.000261692
0.000639105
0.000317352
0.000577199
0.000364706
0.000507511
0.00040115
0.000428198
0.000424025
0.000337221
0.000430592
0.000232256
0.000418003
0.000110542
0.000383288
-3.13229e-05
0.000323538
-0.000197774
0.000236128
-0.000394272
0.000119921
-0.000627904
-2.214e-05
-0.000906978
-0.000178018
-0.00123783
-0.000318286
-0.00161386
-0.000391847
-0.00198526
-0.000341194
-0.00220526
-0.00016133
-0.00198286
-0.000959542
-5.43527e-05
0.000309106
-0.000130557
0.000679385
-0.000183013
0.000857609
-0.000199046
0.00092051
-0.0001811
0.000921846
-0.000136194
0.000892526
-7.16526e-05
0.000849416
6.25889e-06
0.00080123
9.25355e-05
0.000751982
0.000183184
0.000703049
0.000274927
0.000654329
0.00036492
0.000604916
0.000450548
0.000553476
0.000529291
0.000498456
0.000598621
0.000438181
0.00065594
0.000370879
0.000698514
0.000294647
0.000723407
0.000207363
0.000727396
0.000106554
0.000706812
-1.07388e-05
0.000657797
-0.000148758
0.000575884
-0.00031236
0.000456847
-0.000508867
0.000298417
-0.000748548
0.000105337
-0.00104475
-0.000100847
-0.00140767
-0.00026865
-0.00181746
-0.000315281
-0.00215863
-0.000185581
-0.00211256
-0.00114512
-9.3492e-05
0.000402598
-0.000197094
0.000782986
-0.000248057
0.000908573
-0.000241927
0.000914379
-0.000190736
0.000870655
-0.000108126
0.000809916
-5.326e-06
0.000746616
0.000109373
0.000686531
0.000230065
0.00063129
0.00035251
0.000580605
0.000473505
0.000533334
0.000590439
0.000487982
0.000700986
0.000442929
0.000802902
0.000396539
0.000893897
0.000347186
0.00097153
0.000293246
0.00103313
0.000233051
0.00107568
0.000164805
0.00109576
8.64776e-05
0.0010891
-4.08086e-06
0.00105134
-0.000110994
0.00097658
-0.000237603
0.000858302
-0.000390588
0.000689787
-0.000580033
0.000467388
-0.000822355
0.000200639
-0.00114092
-6.6971e-05
-0.00154985
-0.000241713
-0.00198389
-0.000203058
-0.00215121
-0.00134818
-0.000157667
0.000560266
-0.000277699
0.000903018
-0.000295029
0.000925902
-0.000233171
0.000852522
-0.000121165
0.000758648
1.93125e-05
0.000669438
0.00017391
0.000592019
0.000333628
0.000526812
0.000492956
0.000471962
0.000648455
0.000425106
0.000797816
0.000383973
0.000939271
0.000346526
0.00107124
0.000310961
0.0011921
0.000275678
0.00130006
0.000239224
0.00139306
0.00020025
0.00146867
0.00015744
0.00152402
0.00010945
0.00155566
5.48444e-05
0.00155928
-7.70604e-06
0.00152995
-8.16617e-05
0.0014612
-0.000168855
0.0013451
-0.000274485
0.00117181
-0.000406748
0.00093043
-0.00058097
0.000615167
-0.00082566
0.000247703
-0.00118238
-7.92483e-05
-0.00165693
-0.000194231
-0.00203623
-0.00154241
-0.000243507
0.000803772
-0.00030303
0.000962541
-0.000204945
0.000827817
-2.7111e-05
0.000674689
0.000181838
0.000549699
0.000398188
0.000453088
0.000610364
0.000379843
0.000812979
0.000324197
0.00100385
0.000281092
0.00118227
0.000246684
0.00134808
0.000218163
0.00150117
0.000193437
0.00164123
0.000170898
0.00176765
0.000149264
0.00187939
0.000127478
0.00197502
0.000104628
0.00205257
7.9886e-05
0.00210956
5.24608e-05
0.00214283
2.15788e-05
0.00214884
-1.37239e-05
0.00212213
-5.49467e-05
0.00205666
-0.000103385
0.00194417
-0.000162
0.00177341
-0.000235989
0.0015286
-0.000336152
0.00118945
-0.000486516
0.000745096
-0.000738026
0.000252792
-0.00116463
-8.15014e-05
-0.00170194
-0.00162391
-0.000193716
0.000997488
1.94967e-05
0.000749329
0.000374312
0.000473002
0.000714855
0.000334145
0.00101967
0.000244885
0.0012886
0.000184152
0.00152519
0.000143253
0.00173399
0.000115406
0.00191935
9.57314e-05
0.00208487
8.11639e-05
0.00223322
6.98061e-05
0.00236624
6.04233e-05
0.00248497
5.21682e-05
0.0025898
4.4433e-05
0.00268051
3.67601e-05
0.00275636
2.87865e-05
0.00281604
2.0207e-05
0.00285771
1.07861e-05
0.00287866
6.28962e-07
0.00287701
-1.20786e-05
0.00284765
-2.55863e-05
0.00278598
-4.17071e-05
0.00268507
-6.10914e-05
0.00253468
-8.56004e-05
0.00231808
-0.000119552
0.00200597
-0.000174404
0.00155131
-0.000283365
0.000927114
-0.000540436
0.000263692
-0.00103851
-0.00136022
0.000997488
0.00174682
0.00221982
0.00255396
0.00279885
0.002983
0.00312626
0.00324166
0.00333739
0.00341856
0.00348836
0.00354879
0.00360095
0.00364539
0.00368215
0.00371093
0.00373114
0.00374193
0.00374256
0.00373048
0.00370489
0.00366318
0.00360209
0.00351649
0.00339694
0.00322254
0.00293917
0.00239873
0.00136022
)
;

boundaryField
{
    movingWall
    {
        type            calculated;
        value           uniform 0;
    }
    fixedWalls
    {
        type            calculated;
        value           uniform 0;
    }
    frontAndBack
    {
        type            empty;
        value           nonuniform 0();
    }
}


// ************************************************************************* //
