/*--------------------------------*- C++ -*----------------------------------*\
  =========                 |
  \\      /  F ield         | OpenFOAM: The Open Source CFD Toolbox
   \\    /   O peration     | Website:  https://openfoam.org
    \\  /    A nd           | Version:  7
     \\/     M anipulation  |
\*---------------------------------------------------------------------------*/
FoamFile
{
    version     2.0;
    format      ascii;
    class       surfaceScalarField;
    location    "3.6";
    object      phi;
}
// * * * * * * * * * * * * * * * * * * * * * * * * * * * * * * * * * * * * * //

dimensions      [0 3 -1 0 0 0 0];

internalField   nonuniform List<scalar> 
1740
(
5.02553e-07
-5.02575e-07
-2.40702e-08
5.26621e-07
-1.78328e-06
1.75921e-06
-4.61913e-06
2.83585e-06
-8.23549e-06
3.61635e-06
-1.23496e-05
4.11414e-06
-1.67283e-05
4.37868e-06
-2.11847e-05
4.45636e-06
-2.55633e-05
4.37867e-06
-2.97242e-05
4.16088e-06
-3.35295e-05
3.80532e-06
-3.6836e-05
3.30647e-06
-3.94931e-05
2.65713e-06
-4.13478e-05
1.85468e-06
-4.2255e-05
9.07163e-07
-4.20932e-05
-1.61792e-07
-4.07829e-05
-1.31023e-06
-3.83077e-05
-2.4752e-06
-3.47309e-05
-3.57683e-06
-3.02068e-05
-4.52409e-06
-2.49824e-05
-5.22443e-06
-1.93862e-05
-5.59616e-06
-1.38048e-05
-5.58138e-06
-8.64742e-06
-5.15743e-06
-4.30284e-06
-4.34458e-06
-1.09176e-06
-3.21109e-06
7.90865e-07
-1.88263e-06
1.33718e-06
-5.46314e-07
7.91347e-07
5.45826e-07
7.91345e-07
-5.15586e-07
1.30088e-08
-3.38726e-06
3.3983e-06
-8.93355e-06
7.3055e-06
-1.67508e-05
1.06531e-05
-2.63012e-05
1.31667e-05
-3.70187e-05
1.48316e-05
-4.83793e-05
1.57393e-05
-5.99202e-05
1.59972e-05
-7.12289e-05
1.56874e-05
-8.19223e-05
1.48543e-05
-9.16275e-05
1.35105e-05
-9.99704e-05
1.16493e-05
-0.000106576
9.26228e-06
-0.000111079
6.35815e-06
-0.000113152
2.98025e-06
-0.000112539
-7.74691e-07
-0.000109087
-4.76275e-06
-0.000102796
-8.76549e-06
-9.38509e-05
-1.25223e-05
-8.26349e-05
-1.57401e-05
-6.97341e-05
-1.81253e-05
-5.59082e-05
-1.9422e-05
-4.20376e-05
-1.9452e-05
-2.90438e-05
-1.81511e-05
-1.77931e-05
-1.55953e-05
-8.98788e-06
-1.20163e-05
-3.05863e-06
-7.81188e-06
-4.6521e-08
-3.55843e-06
5.94767e-07
-9.54656e-08
1.38611e-06
-1.84746e-06
1.86047e-06
-7.64873e-06
9.19956e-06
-1.71027e-05
1.67595e-05
-2.96196e-05
2.317e-05
-4.4463e-05
2.80101e-05
-6.08763e-05
3.1245e-05
-7.81436e-05
3.30065e-05
-9.56084e-05
3.34621e-05
-0.000112666
3.27453e-05
-0.000128745
3.09332e-05
-0.000143286
2.80518e-05
-0.000155736
2.40985e-05
-0.000165546
1.90726e-05
-0.000172198
1.30099e-05
-0.000175232
6.01517e-06
-0.000174297
-1.70977e-06
-0.000169196
-9.86371e-06
-0.000159945
-1.80171e-05
-0.00014681
-2.56573e-05
-0.000130336
-3.22141e-05
-0.000111342
-3.71188e-05
-9.08887e-05
-3.98754e-05
-7.02027e-05
-4.0138e-05
-5.05731e-05
-3.77808e-05
-3.3217e-05
-3.29514e-05
-1.91325e-05
-2.61008e-05
-8.95001e-06
-1.79944e-05
-2.79438e-06
-9.71405e-06
-2.11787e-07
-2.67807e-06
1.17432e-06
-3.20323e-06
5.0637e-06
-1.19201e-05
1.79165e-05
-2.52573e-05
3.00967e-05
-4.22759e-05
4.01886e-05
-6.20222e-05
4.77564e-05
-8.35759e-05
5.27986e-05
-0.000106078
5.55088e-05
-0.000128736
5.61197e-05
-0.000150807
5.48168e-05
-0.000171582
5.17076e-05
-0.000190361
4.68309e-05
-0.000206451
4.01883e-05
-0.000219169
3.17912e-05
-0.00022787
2.17108e-05
-0.000231983
1.01278e-05
-0.000231065
-2.62804e-06
-0.000224861
-1.60675e-05
-0.00021337
-2.95082e-05
-0.000196893
-4.21347e-05
-0.000176067
-5.304e-05
-0.000151871
-6.13149e-05
-0.000125587
-6.61589e-05
-9.87233e-05
-6.70018e-05
-7.28847e-05
-6.36193e-05
-4.96144e-05
-5.62218e-05
-3.02119e-05
-4.55033e-05
-1.55576e-05
-3.26487e-05
-5.96751e-06
-1.93041e-05
-1.11276e-06
-7.53281e-06
6.15552e-08
-4.44622e-06
9.50992e-06
-1.59556e-05
2.94259e-05
-3.30286e-05
4.71697e-05
-5.43411e-05
6.15011e-05
-7.86977e-05
7.2113e-05
-0.000105019
7.91204e-05
-0.000132331
8.28204e-05
-0.00015974
8.35289e-05
-0.000186411
8.14871e-05
-0.000211534
7.68311e-05
-0.00023431
6.96069e-05
-0.000253937
5.98152e-05
-0.00026962
4.74737e-05
-0.000280595
3.2686e-05
-0.000286176
1.57088e-05
-0.000285812
-2.99178e-06
-0.00027915
-2.27297e-05
-0.000266118
-4.25395e-05
-0.000246989
-6.12643e-05
-0.000222425
-7.76042e-05
-0.000193501
-9.02387e-05
-0.000161678
-9.79815e-05
-0.000128723
-9.99575e-05
-9.65654e-05
-9.57765e-05
-6.71152e-05
-8.5672e-05
-4.20391e-05
-7.05794e-05
-2.25499e-05
-5.21379e-05
-9.23767e-06
-3.26164e-05
-1.98489e-06
-1.47856e-05
-1.92333e-06
-5.56728e-06
1.50772e-05
-1.96871e-05
4.35457e-05
-4.02939e-05
6.77765e-05
-6.56788e-05
8.6886e-05
-9.43997e-05
0.000100834
-0.000125224
0.000109945
-0.000157078
0.000114674
-0.000188998
0.000115449
-0.000220086
0.000112575
-0.000249471
0.000106216
-0.00027628
9.64166e-05
-0.000299628
8.31632e-05
-0.000318619
6.6464e-05
-0.00033237
4.64374e-05
-0.00034006
2.33986e-05
-0.000340995
-2.05665e-06
-0.000334662
-2.90623e-05
-0.000320856
-5.63463e-05
-0.000299737
-8.23828e-05
-0.00027192
-0.000105421
-0.000238514
-0.000123644
-0.000201124
-0.000135372
-0.000161775
-0.000139306
-0.000122773
-0.000134779
-8.64772e-05
-0.000121968
-5.50343e-05
-0.000102022
-3.01081e-05
-7.70641e-05
-1.26599e-05
-5.00645e-05
-2.83887e-06
-2.46066e-05
-4.76219e-06
-6.58293e-06
2.16601e-05
-2.31181e-05
6.00809e-05
-4.70338e-05
9.16923e-05
-7.62603e-05
0.000116112
-0.00010912
0.000133694
-0.000144239
0.000145064
-0.000180462
0.000150897
-0.000216778
0.000151765
-0.000252257
0.000148054
-0.000285993
0.000139953
-0.00031707
0.000127494
-0.000344536
0.000110629
-0.0003674
8.93281e-05
-0.000384655
6.36924e-05
-0.000395315
3.40588e-05
-0.000398497
1.12573e-06
-0.000393465
-3.4095e-05
-0.000379791
-7.00198e-05
-0.000357437
-0.000104737
-0.000326873
-0.000135985
-0.000289168
-0.000161349
-0.000246026
-0.000178514
-0.00019974
-0.000185591
-0.000153048
-0.00018147
-0.000108879
-0.000166138
-7.00129e-05
-0.000140888
-3.87249e-05
-0.000108352
-1.64767e-05
-7.23127e-05
-3.74629e-06
-3.7337e-05
-8.50847e-06
-7.50751e-06
2.91677e-05
-2.62654e-05
7.88387e-05
-5.3255e-05
0.000118682
-8.60818e-05
0.000148939
-0.000122856
0.000170469
-0.000162081
0.000184288
-0.000202539
0.000191355
-0.000243197
0.000192423
-0.000283118
0.000187975
-0.000321393
0.000178227
-0.000357083
0.000163184
-0.000389189
0.000142735
-0.000416635
0.000116774
-0.00043828
8.53371e-05
-0.000452953
4.87317e-05
-0.000459504
7.67625e-06
-0.000456948
-3.66508e-05
-0.000444519
-8.24487e-05
-0.000421872
-0.000127384
-0.000389225
-0.000168633
-0.000347503
-0.000203071
-0.000298437
-0.000227579
-0.000244573
-0.000239456
-0.000189135
-0.000236907
-0.000135754
-0.000219519
-8.80373e-05
-0.000188605
-4.90829e-05
-0.000147307
-2.10364e-05
-0.000100359
-4.81344e-06
-5.356e-05
-1.33219e-05
-8.34677e-06
3.75144e-05
-2.91331e-05
9.96251e-05
-5.89491e-05
0.000148498
-9.51162e-05
0.000185106
-0.000135561
0.000210913
-0.000178685
0.000227412
-0.000223233
0.000235903
-0.000268174
0.000237364
-0.000312592
0.000232393
-0.0003556
0.000221235
-0.000396265
0.000203849
-0.000433562
0.000180032
-0.000466341
0.000149553
-0.000493325
0.000112321
-0.000513136
6.85429e-05
-0.000524349
1.88895e-05
-0.000525616
-3.53839e-05
-0.00051577
-9.22943e-05
-0.000494042
-0.000149113
-0.000460257
-0.000202417
-0.000415063
-0.000248266
-0.000360101
-0.000282541
-0.000298099
-0.000301458
-0.000232796
-0.000302211
-0.000168644
-0.00028367
-0.000110304
-0.000246945
-6.19749e-05
-0.000195636
-2.6748e-05
-0.000135586
-6.16225e-06
-7.41458e-05
-1.94842e-05
-9.09764e-06
4.66121e-05
-3.17064e-05
0.000122234
-6.40786e-05
0.00018087
-0.000103292
0.000224319
-0.000147118
0.00025474
-0.000193883
0.000274177
-0.000242316
0.000284336
-0.000291411
0.000286459
-0.000340301
0.000281283
-0.000388148
0.000269082
-0.000434056
0.000249757
-0.000476999
0.000222975
-0.000515776
0.000188331
-0.000548989
0.000145534
-0.000575052
9.46057e-05
-0.000592241
3.60782e-05
-0.000598805
-2.88202e-05
-0.000593094
-9.80044e-05
-0.000573802
-0.000168405
-0.000540217
-0.000236002
-0.000492526
-0.000295957
-0.000432105
-0.000342963
-0.000361726
-0.000371837
-0.000285583
-0.000378353
-0.000209044
-0.00036021
-0.000138051
-0.000317938
-7.8253e-05
-0.000255434
-3.40583e-05
-0.000179781
-7.92438e-06
-0.00010028
-2.74086e-05
-9.75019e-06
5.63623e-05
-3.39534e-05
0.000146437
-6.85767e-05
0.000215493
-0.000110492
0.000266234
-0.000157343
0.000301591
-0.000207402
0.000324235
-0.000259401
0.000336336
-0.000312383
0.000339441
-0.000365554
0.000334453
-0.000418155
0.000321683
-0.000469356
0.000300959
-0.000518168
0.000271787
-0.000563372
0.000233534
-0.000603479
0.000185641
-0.000636721
0.000127848
-0.000661086
6.04433e-05
-0.000674414
-1.54922e-05
-0.000674524
-9.78943e-05
-0.000659481
-0.000183448
-0.000627884
-0.0002676
-0.000579256
-0.000344585
-0.00051446
-0.000407758
-0.000436068
-0.000450229
-0.000348564
-0.000465857
-0.000258213
-0.00045056
-0.000172452
-0.000403699
-9.87858e-05
-0.000329101
-4.34407e-05
-0.000235126
-1.02414e-05
-0.000133479
-3.76499e-05
-1.02908e-05
6.6653e-05
-3.58326e-05
0.000171979
-7.23593e-05
0.00025202
-0.000116569
0.000310444
-0.000165999
0.000351022
-0.000218881
0.000377117
-0.000273968
0.000391423
-0.000330367
0.00039584
-0.000387378
0.000391464
-0.000444348
0.000378653
-0.000500549
0.00035716
-0.000555066
0.000326304
-0.000606711
0.00028518
-0.000653961
0.000232891
-0.000694924
0.000168812
-0.000727352
9.28713e-05
-0.000748712
5.86726e-06
-0.000756305
-9.03007e-05
-0.000747521
-0.000192233
-0.000720148
-0.000294972
-0.000672832
-0.000391901
-0.000605614
-0.000474977
-0.000520505
-0.000535338
-0.000421947
-0.000564415
-0.000316931
-0.000555576
-0.000214487
-0.000506143
-0.000124407
-0.000419181
-5.53855e-05
-0.000304147
-1.32669e-05
-0.000175598
-5.09169e-05
-1.07063e-05
7.73594e-05
-3.73049e-05
0.000198577
-7.5345e-05
0.00029006
-0.000121373
0.000356472
-0.000172832
0.000402481
-0.000227919
0.000432204
-0.000285414
0.000448918
-0.000344499
0.000454925
-0.000404583
0.000451548
-0.000465143
0.000439213
-0.000525584
0.000417601
-0.000585112
0.000385832
-0.000642632
0.000342699
-0.00069666
0.000286919
-0.000745276
0.000217427
-0.000786099
0.000133694
-0.00081631
3.60782e-05
-0.000832796
-7.38142e-05
-0.000832285
-0.000192744
-0.000811703
-0.000315554
-0.000768633
-0.000434971
-0.000701964
-0.000541646
-0.000612677
-0.000624625
-0.000504647
-0.000672445
-0.000385163
-0.000675061
-0.000264745
-0.000626561
-0.000155835
-0.000528091
-7.03838e-05
-0.000389598
-1.71686e-05
-0.000228813
-6.80854e-05
-1.099e-05
8.83494e-05
-3.83506e-05
0.000225938
-7.74835e-05
0.000329193
-0.000124793
0.000403781
-0.000177623
0.00045531
-0.000234133
0.000488715
-0.000293129
0.000507914
-0.000353869
0.000515665
-0.00041588
0.000513558
-0.000478785
0.000502119
-0.000542153
0.000480968
-0.000605356
0.000449036
-0.000667461
0.000404803
-0.000727121
0.000346579
-0.000782505
0.000272812
-0.000831249
0.000182438
-0.000870439
7.52679e-05
-0.000896665
-4.75877e-05
-0.000906154
-0.000183255
-0.000895005
-0.000326704
-0.000859644
-0.000470333
-0.000797509
-0.00060378
-0.000708027
-0.000714107
-0.000593787
-0.000786685
-0.000461643
-0.000807204
-0.000323149
-0.000765055
-0.000193547
-0.000657693
-8.88938e-05
-0.000494251
-2.21275e-05
-0.000295579
-9.02129e-05
-1.11482e-05
9.94976e-05
-3.89895e-05
0.000253779
-7.8793e-05
0.000368997
-0.000126806
0.000451793
-0.000180254
0.000508759
-0.000237248
0.000545708
-0.000296603
0.00056727
-0.000357653
0.000576714
-0.000420043
0.000575948
-0.000483555
0.000565631
-0.000547943
0.000545356
-0.000612793
0.000513886
-0.000677402
0.000469412
-0.000740667
0.000409843
-0.00080099
0.000333135
-0.000856206
0.000237654
-0.000903524
0.000122586
-0.000939477
-1.16347e-05
-0.000960039
-0.000162693
-0.000960651
-0.000326091
-0.000936631
-0.000494353
-0.000883791
-0.00065662
-0.000799512
-0.000798387
-0.000684266
-0.000901931
-0.000543415
-0.000948056
-0.000388605
-0.000919864
-0.00023759
-0.000808708
-0.000111282
-0.00062056
-2.83331e-05
-0.000378528
-0.000118546
-1.12091e-05
0.000110707
-3.93072e-05
0.000281877
-7.94034e-05
0.000409093
-0.00012754
0.00049993
-0.00018079
0.000562009
-0.000237184
0.000602102
-0.000295541
0.000625627
-0.000355258
0.000636431
-0.0004161
0.00063679
-0.000478012
0.000627543
-0.000540955
0.000608299
-0.000604768
0.000577699
-0.000669043
0.000533688
-0.000733021
0.000473822
-0.000795488
0.000395601
-0.000854671
0.000296837
-0.000908144
0.000176059
-0.000952724
3.29445e-05
-0.000984391
-0.000131025
-0.000998296
-0.000312186
-0.000988873
-0.000503776
-0.000950343
-0.00069515
-0.00087772
-0.00087101
-0.000768558
-0.00101109
-0.000625433
-0.00109118
-0.000458596
-0.0010867
-0.000287326
-0.000979978
-0.000137733
-0.000770153
-3.59717e-05
-0.000480289
-0.000154518
-1.12337e-05
0.00012194
-3.9486e-05
0.00031013
-7.96081e-05
0.000449215
-0.000127345
0.000547667
-0.000179554
0.000614219
-0.000234163
0.000656711
-0.000289982
0.000681446
-0.000346473
0.000692921
-0.000403522
0.00069384
-0.000461247
0.000685267
-0.000519832
0.000666884
-0.000579399
0.000637266
-0.000639895
0.000594183
-0.00070099
0.000534917
-0.00076198
0.000456591
-0.000821669
0.000356527
-0.000878239
0.000232629
-0.000929093
8.37981e-05
-0.000970607
-8.95112e-05
-0.000998076
-0.000284717
-0.00100548
-0.00049637
-0.00098576
-0.000714872
-0.000931558
-0.000925212
-0.000836951
-0.0011057
-0.000700412
-0.00122772
-0.000528838
-0.00125828
-0.00034114
-0.00116768
-0.000168127
-0.000943167
-4.52098e-05
-0.000603206
-0.000199728
-1.13306e-05
0.000133271
-3.98446e-05
0.000338644
-7.99238e-05
0.000489294
-0.000126856
0.000594599
-0.000177209
0.000664572
-0.000228785
0.000708287
-0.000280394
0.000733054
-0.00033158
0.000744108
-0.000382373
0.000744632
-0.000433076
0.000735971
-0.000484118
0.000717926
-0.000535929
0.000689077
-0.00058885
0.000647105
-0.000643045
0.000589112
-0.000698411
0.000511957
-0.000754466
0.000412581
-0.000810193
0.000288356
-0.000863843
0.000137448
-0.000912562
-4.07921e-05
-0.000952296
-0.000244983
-0.000977134
-0.000471532
-0.000979332
-0.000712675
-0.000949585
-0.000954959
-0.000878392
-0.00117689
-0.000759114
-0.001347
-0.000593136
-0.00142425
-0.000396178
-0.00136463
-0.00020191
-0.00113743
-5.6181e-05
-0.000748935
-0.000255909
-1.16786e-05
0.00014495
-4.08922e-05
0.000367857
-8.11624e-05
0.000529564
-0.000127076
0.000640513
-0.000174822
0.000712318
-0.000222083
0.000755548
-0.000267718
0.000778689
-0.000311409
0.000787799
-0.000353369
0.000786592
-0.000394127
0.000776728
-0.000434377
0.000758177
-0.000474884
0.000729584
-0.000516406
0.000688626
-0.000559629
0.000632336
-0.000605099
0.000557427
-0.000653113
0.000460595
-0.000703566
0.000338809
-0.000755739
0.000189622
-0.000807854
1.13226e-05
-0.000856927
-0.000195909
-0.000897804
-0.000430655
-0.000922881
-0.000687598
-0.000921758
-0.000956082
-0.000881894
-0.00121676
-0.000791178
-0.00143771
-0.000643597
-0.00157184
-0.000448193
-0.00156004
-0.000237971
-0.00134766
-6.89872e-05
-0.000917918
-0.000324896
-1.25654e-05
0.000157515
-4.34079e-05
0.0003987
-8.452e-05
0.000570676
-0.000129437
0.00068543
-0.000173892
0.000756772
-0.000215517
0.000797173
-0.00025333
0.000816502
-0.000287259
0.000821728
-0.000317788
0.000817121
-0.000345725
0.000804666
-0.000372073
0.000784524
-0.000397944
0.000755456
-0.000424522
0.000715204
-0.000453014
0.000660828
-0.000484604
0.000589016
-0.000520367
0.000496358
-0.000561114
0.000379556
-0.000607179
0.000235687
-0.000658222
6.23654e-05
-0.000712318
-0.000141814
-0.000765846
-0.000377127
-0.000812211
-0.000641232
-0.000841104
-0.000927189
-0.000838154
-0.00121971
-0.000786358
-0.00148951
-0.000671234
-0.00168696
-0.000491596
-0.00173968
-0.000274553
-0.0015647
-8.37325e-05
-0.00110874
-0.000408628
-1.4457e-05
0.000171972
-4.85649e-05
0.000432808
-9.16878e-05
0.000613799
-0.000135851
0.000729593
-0.000176319
0.000797241
-0.000210853
0.000831708
-0.000238845
0.000844494
-0.000260648
0.000843531
-0.000277149
0.000833621
-0.000289522
0.000817039
-0.000299119
0.000794121
-0.000307419
0.000763756
-0.000316016
0.000723801
-0.000326603
0.000671414
-0.000340943
0.000603357
-0.000360828
0.000516243
-0.000387899
0.000406627
-0.000423525
0.000271314
-0.000468537
0.000107378
-0.000522646
-8.77047e-05
-0.000583883
-0.00031589
-0.000647507
-0.000577607
-0.000704632
-0.000870064
-0.000740811
-0.00118353
-0.000735769
-0.00149455
-0.000666797
-0.00175593
-0.000519668
-0.0018868
-0.000309191
-0.00177518
-0.000100595
-0.00131733
-0.000509223
-1.81299e-05
0.000190102
-5.8122e-05
0.0004728
-0.000104972
0.000660649
-0.000148678
0.000773299
-0.000184205
0.000832768
-0.000209817
0.000857319
-0.000225635
0.000860312
-0.000232711
0.000850607
-0.000232509
0.000833419
-0.000226673
0.000811204
-0.00021695
0.000784398
-0.000205188
0.000751994
-0.000193358
0.000711971
-0.000183564
0.00066162
-0.00017802
0.000597812
-0.000179203
0.000517426
-0.000189346
0.00041677
-0.000210715
0.000292683
-0.000245196
0.000141858
-0.000294122
-3.87782e-05
-0.000357258
-0.000252755
-0.000432288
-0.000502577
-0.000512945
-0.000789407
-0.000586713
-0.00110976
-0.000632571
-0.00144869
-0.000621423
-0.00176708
-0.000524786
-0.00198344
-0.000338573
-0.00196139
-0.000119896
-0.00153601
-0.00062912
-2.49149e-05
0.000215017
-7.46984e-05
0.000522583
-0.000127343
0.000713294
-0.000170455
0.00081641
-0.00019926
0.000861574
-0.00021322
0.000871279
-0.000213734
0.000860826
-0.000202912
0.000839785
-0.000183009
0.000813516
-0.000156241
0.000784436
-0.00012478
0.000752937
-9.08144e-05
0.000718028
-5.66258e-05
0.000677783
-2.46645e-05
0.000629659
2.4076e-06
0.00057074
2.21528e-05
0.00049768
3.13869e-05
0.000407536
2.72316e-05
0.000296838
6.87245e-06
0.000162217
-3.19568e-05
5.11277e-08
-9.11201e-05
-0.000193592
-0.000170898
-0.000422798
-0.000268392
-0.000691913
-0.000374863
-0.00100329
-0.000471627
-0.00135193
-0.000526646
-0.00171206
-0.000498281
-0.00201181
-0.000358126
-0.00210155
-0.000142024
-0.00175211
-0.000771144
-3.71358e-05
0.000252153
-0.000102069
0.000587517
-0.000162133
0.000773358
-0.000202885
0.000857163
-0.000221184
0.000879872
-0.000218863
0.000868957
-0.000199372
0.000841335
-0.000166313
0.000806726
-0.00012294
0.000770143
-7.21075e-05
0.000733604
-1.63901e-05
0.000697219
4.1764e-05
0.000659874
9.98882e-05
0.000619658
0.000155398
0.000574149
0.000205545
0.000520594
0.000247204
0.000456021
0.000277295
0.000377445
0.000292425
0.000281709
0.000289121
0.000165522
0.000263849
2.53222e-05
0.000213315
-0.000143057
0.000134952
-0.000344436
2.79289e-05
-0.00058489
-0.000104102
-0.000871258
-0.000247946
-0.00120808
-0.000373351
-0.00158666
-0.000429513
-0.00195564
-0.000360918
-0.00217014
-0.000166838
-0.00194619
-0.000937982
-5.88267e-05
0.000310979
-0.000145113
0.000673802
-0.000211418
0.000839663
-0.000243759
0.000889504
-0.000243466
0.00087958
-0.000216574
0.000842065
-0.000169545
0.000794306
-0.00010789
0.000745071
-3.59744e-05
0.000698228
4.27626e-05
0.000654867
0.000125481
0.000614501
0.000209646
0.000575709
0.000292799
0.000536505
0.000372393
0.000494555
0.000445673
0.000447313
0.000509599
0.000392095
0.000560868
0.000326176
0.000595854
0.000246723
0.000610611
0.000150765
0.000600861
3.5072e-05
0.000562101
-0.000104297
0.000489708
-0.000272043
0.000379506
-0.000474689
0.000229727
-0.000721479
4.59659e-05
-0.00102432
-0.000149348
-0.00139134
-0.000303566
-0.00180143
-0.00033513
-0.00213858
-0.000191878
-0.00208944
-0.00112986
-9.65286e-05
0.000407508
-0.000207812
0.000785086
-0.000270163
0.000902014
-0.000278207
0.000897548
-0.000242965
0.000844338
-0.000177066
0.000776167
-9.08252e-05
0.000708065
8.26433e-06
0.000645981
0.000114994
0.000591498
0.000225709
0.000544153
0.000337691
0.000502519
0.00044869
0.00046471
0.000556592
0.000428603
0.000659187
0.000391961
0.000754018
0.000352482
0.000838276
0.000307837
0.000908756
0.000255696
0.00096179
0.000193688
0.000993192
0.000119363
0.000998138
3.01256e-05
0.000971343
-7.75014e-05
0.000906672
-0.000207372
0.000797329
-0.000365346
0.000636695
-0.000560844
0.000421626
-0.000809255
0.00016273
-0.00113245
-9.58282e-05
-0.00154287
-0.000259127
-0.00197528
-0.000209153
-0.00213942
-0.00133901
-0.000158402
0.00056591
-0.000282316
0.000909
-0.00030693
0.000926628
-0.00025542
0.000846038
-0.000156054
0.000744972
-2.95906e-05
0.000649704
0.000110486
0.000567988
0.000255974
0.000500493
0.000402082
0.00044539
0.000546022
0.000400213
0.000686052
0.00036249
0.000820862
0.000329899
0.00094919
0.000300275
0.00106957
0.000271584
0.00118016
0.000241892
0.00127865
0.000209344
0.0013622
0.000172145
0.00142736
0.000128527
0.00146998
7.6746e-05
0.00148492
1.51857e-05
0.00146672
-5.93021e-05
0.00140825
-0.000148905
0.0013011
-0.000258196
0.00113524
-0.000394976
0.000899876
-0.000573895
0.000589923
-0.000822493
0.000228245
-0.00118119
-9.20048e-05
-0.00165503
-0.000199248
-0.00203217
-0.00153826
-0.000241868
0.000807777
-0.000301085
0.000968217
-0.000205378
0.000830921
-3.31757e-05
0.000673835
0.000167436
0.00054436
0.000373395
0.000443745
0.000573876
0.000367507
0.000764267
0.000310102
0.000943146
0.000266511
0.00111053
0.000232826
0.00126692
0.0002061
0.00141277
0.000184055
0.00154819
0.000164851
0.00167283
0.000146942
0.00178575
0.000128979
0.00188534
0.000109749
0.00196935
8.81326e-05
0.00203483
6.30546e-05
0.00207809
3.34777e-05
0.002094
-7.21283e-07
0.00207779
-4.30907e-05
0.00202188
-9.29941e-05
0.00191759
-0.000153904
0.00175328
-0.000230667
0.00151306
-0.00033368
0.00117702
-0.00048645
0.000735118
-0.000739289
0.000245723
-0.00116563
-8.49223e-05
-0.00170153
-0.00162318
-0.000190985
0.000998763
2.55196e-05
0.000751712
0.000381265
0.000475175
0.000720346
0.000334755
0.00102101
0.000243698
0.00128341
0.000181343
0.00151169
0.000139229
0.00171112
0.000110673
0.00188682
9.08076e-05
0.00204312
7.6523e-05
0.00218337
6.58519e-05
0.00230995
5.74732e-05
0.00242436
5.04416e-05
0.00252726
4.40425e-05
0.00261853
3.7707e-05
0.00269732
3.09616e-05
0.00276205
2.34029e-05
0.0028104
1.47024e-05
0.0028392
4.67487e-06
0.00284617
-7.68203e-06
0.0028249
-2.18245e-05
0.00277055
-3.86462e-05
0.00267563
-5.89854e-05
0.00252953
-8.45685e-05
0.00231541
-0.000119554
0.00200418
-0.000175223
0.00154948
-0.000284587
0.00092536
-0.000541513
0.000262842
-0.00103901
-0.00136034
0.000998763
0.00175047
0.00222565
0.00256041
0.0028041
0.00298545
0.00312468
0.00323535
0.00332616
0.00340268
0.00346853
0.003526
0.00357645
0.00362049
0.0036582
0.00368916
0.00371256
0.00372726
0.00373194
0.00372426
0.00370243
0.00366378
0.0036048
0.00352023
0.00340068
0.00322545
0.00294087
0.00239935
0.00136034
)
;

boundaryField
{
    movingWall
    {
        type            calculated;
        value           uniform 0;
    }
    fixedWalls
    {
        type            calculated;
        value           uniform 0;
    }
    frontAndBack
    {
        type            empty;
        value           nonuniform 0();
    }
}


// ************************************************************************* //
