/*--------------------------------*- C++ -*----------------------------------*\
  =========                 |
  \\      /  F ield         | OpenFOAM: The Open Source CFD Toolbox
   \\    /   O peration     | Website:  https://openfoam.org
    \\  /    A nd           | Version:  7
     \\/     M anipulation  |
\*---------------------------------------------------------------------------*/
FoamFile
{
    version     2.0;
    format      ascii;
    class       volVectorField;
    location    "3.6";
    object      U;
}
// * * * * * * * * * * * * * * * * * * * * * * * * * * * * * * * * * * * * * //

dimensions      [0 1 -1 0 0 0 0];

internalField   nonuniform List<vector> 
900
(
(0.000107965 -0.000107104 0)
(0.000152444 -1.76611e-05 0)
(-0.00017807 0.000110115 0)
(-0.000859044 0.000221495 0)
(-0.00179741 0.000298541 0)
(-0.00291664 0.000344873 0)
(-0.00414307 0.000368316 0)
(-0.00541648 0.000375321 0)
(-0.00668859 0.000369856 0)
(-0.00791791 0.000353615 0)
(-0.00906528 0.000326594 0)
(-0.0100908 0.000287764 0)
(-0.0109523 0.000235763 0)
(-0.011606 0.00016959 0)
(-0.0120084 8.92708e-05 0)
(-0.0121206 -3.58222e-06 0)
(-0.0119127 -0.00010562 0)
(-0.0113699 -0.00021097 0)
(-0.0104982 -0.000311957 0)
(-0.00932832 -0.000399561 0)
(-0.00791796 -0.000464391 0)
(-0.00635041 -0.000497984 0)
(-0.00472956 -0.000494168 0)
(-0.00317137 -0.00045022 0)
(-0.00179232 -0.000367588 0)
(-0.000695658 -0.000252454 0)
(4.0538e-05 -0.000117186 0)
(0.000378375 1.93276e-05 0)
(0.000351595 0.00012627 0)
(0.000128534 0.000127337 0)
(2.23916e-05 -0.000157003 0)
(-0.000367298 0.000366113 0)
(-0.00158942 0.00100812 0)
(-0.00353444 0.00156505 0)
(-0.00605259 0.0019767 0)
(-0.00898474 0.00224447 0)
(-0.0121726 0.00238914 0)
(-0.0154743 0.00243238 0)
(-0.018766 0.00238964 0)
(-0.0219353 0.00226883 0)
(-0.0248752 0.00207155 0)
(-0.0274792 0.00179563 0)
(-0.0296399 0.00143818 0)
(-0.0312502 0.000998826 0)
(-0.0322094 0.000482828 0)
(-0.0324315 -9.645e-05 0)
(-0.0318554 -0.000715712 0)
(-0.030457 -0.0013414 0)
(-0.0282611 -0.00193118 0)
(-0.025348 -0.00243719 0)
(-0.0218574 -0.00281105 0)
(-0.0179841 -0.00301029 0)
(-0.0139667 -0.00300508 0)
(-0.0100685 -0.00278417 0)
(-0.0065514 -0.00235909 0)
(-0.00364697 -0.0017668 0)
(-0.0015244 -0.0010729 0)
(-0.000255275 -0.000374655 0)
(0.00021692 0.000183471 0)
(0.000134756 0.000349172 0)
(-0.000112899 0.000174907 0)
(-0.00106603 0.00160065 0)
(-0.00328952 0.00315885 0)
(-0.00648719 0.00449746 0)
(-0.010448 0.00550921 0)
(-0.0149644 0.00618465 0)
(-0.0198243 0.00655459 0)
(-0.0248304 0.00665784 0)
(-0.0298035 0.00652494 0)
(-0.034577 0.00617313 0)
(-0.0389902 0.0056078 0)
(-0.0428845 0.00482738 0)
(-0.0461016 0.00383012 0)
(-0.0484872 0.00262144 0)
(-0.0498991 0.00122091 0)
(-0.0502178 -0.000332028 0)
(-0.0493615 -0.00197434 0)
(-0.0473011 -0.00361961 0)
(-0.0440747 -0.00516148 0)
(-0.0397977 -0.00648171 0)
(-0.034666 -0.00746232 0)
(-0.0289518 -0.00800066 0)
(-0.0229875 -0.00802549 0)
(-0.0171408 -0.0075115 0)
(-0.0117792 -0.00649008 0)
(-0.00722944 -0.00505557 0)
(-0.00373421 -0.00336883 0)
(-0.00140729 -0.00166084 0)
(-0.000207122 -0.00024705 0)
(6.32009e-05 0.000418644 0)
(-0.00025002 0.000910756 0)
(-0.00177259 0.00368335 0)
(-0.00500064 0.00643276 0)
(-0.00942193 0.00874727 0)
(-0.0147402 0.0104943 0)
(-0.0207025 0.0116633 0)
(-0.0270551 0.0122981 0)
(-0.0335612 0.0124549 0)
(-0.0400026 0.012179 0)
(-0.0461733 0.011497 0)
(-0.051873 0.0104182 0)
(-0.0569028 0.00894271 0)
(-0.061065 0.00707204 0)
(-0.0641675 0.00482123 0)
(-0.0660333 0.00223034 0)
(-0.0665136 -0.000626382 0)
(-0.0655048 -0.00363535 0)
(-0.0629662 -0.00664256 0)
(-0.0589378 -0.00946087 0)
(-0.0535524 -0.0118833 0)
(-0.047042 -0.0137034 0)
(-0.0397335 -0.0147409 0)
(-0.0320323 -0.0148695 0)
(-0.0243926 -0.0140425 0)
(-0.0172759 -0.0123125 0)
(-0.0111015 -0.00984226 0)
(-0.00619198 -0.00690748 0)
(-0.00272004 -0.00389405 0)
(-0.000693316 -0.00129685 0)
(-1.63362e-05 0.000236047 0)
(-0.00037068 0.00200982 0)
(-0.00243007 0.00658292 0)
(-0.00662723 0.0107895 0)
(-0.0122238 0.0142386 0)
(-0.0188282 0.0168138 0)
(-0.02614 0.018525 0)
(-0.0338689 0.0194385 0)
(-0.0417481 0.0196309 0)
(-0.0495325 0.0191628 0)
(-0.0569889 0.0180689 0)
(-0.0638886 0.0163619 0)
(-0.0700027 0.0140427 0)
(-0.0751019 0.0111162 0)
(-0.078961 0.00760804 0)
(-0.0813694 0.00358107 0)
(-0.082146 -0.000851686 0)
(-0.0811567 -0.00551982 0)
(-0.0783359 -0.0101926 0)
(-0.0737085 -0.01459 0)
(-0.0674058 -0.0184008 0)
(-0.0596762 -0.0213119 0)
(-0.0508854 -0.023046 0)
(-0.0415018 -0.0234034 0)
(-0.0320643 -0.0223021 0)
(-0.0231356 -0.0198092 0)
(-0.0152428 -0.0161584 0)
(-0.00881038 -0.0117509 0)
(-0.00409397 -0.0071412 0)
(-0.00117592 -0.00301454 0)
(-8.39399e-05 -0.000205022 0)
(-0.000475435 0.00344608 0)
(-0.00302937 0.0102565 0)
(-0.00814026 0.0161869 0)
(-0.0148515 0.0209251 0)
(-0.0226753 0.0244122 0)
(-0.0312625 0.0267044 0)
(-0.0402899 0.027905 0)
(-0.0494675 0.0281178 0)
(-0.058532 0.0274201 0)
(-0.0672333 0.0258548 0)
(-0.0753237 0.0234354 0)
(-0.0825524 0.0201615 0)
(-0.0886636 0.0160381 0)
(-0.0934008 0.0110988 0)
(-0.096517 0.00542673 0)
(-0.0977908 -0.000826995 0)
(-0.0970443 -0.00743294 0)
(-0.0941684 -0.014079 0)
(-0.0891516 -0.020382 0)
(-0.0821006 -0.0259105 0)
(-0.0732599 -0.0302228 0)
(-0.0630193 -0.0329182 0)
(-0.0519047 -0.0336959 0)
(-0.0405468 -0.032414 0)
(-0.029629 -0.0291382 0)
(-0.0198155 -0.0241688 0)
(-0.0116674 -0.0180412 0)
(-0.00555573 -0.0114971 0)
(-0.00166089 -0.00543434 0)
(-0.000140649 -0.000891071 0)
(-0.000568088 0.00518753 0)
(-0.00357517 0.0146486 0)
(-0.00953714 0.0225632 0)
(-0.0172964 0.0287434 0)
(-0.0262736 0.0332256 0)
(-0.0360734 0.0361392 0)
(-0.0463432 0.0376413 0)
(-0.056776 0.037872 0)
(-0.0670983 0.036929 0)
(-0.0770515 0.0348628 0)
(-0.0863774 0.0316852 0)
(-0.0948097 0.0273892 0)
(-0.10207 0.0219741 0)
(-0.107872 0.0154738 0)
(-0.111925 0.00798457 0)
(-0.113959 -0.000311274 0)
(-0.113734 -0.00912624 0)
(-0.111078 -0.0180686 0)
(-0.105916 -0.0266438 0)
(-0.0983024 -0.0342826 0)
(-0.0884533 -0.0403884 0)
(-0.0767644 -0.0444015 0)
(-0.0638126 -0.0458798 0)
(-0.0503298 -0.0445831 0)
(-0.0371458 -0.0405461 0)
(-0.0251028 -0.0341233 0)
(-0.0149457 -0.0259924 0)
(-0.00720413 -0.0171089 0)
(-0.00218621 -0.00862243 0)
(-0.000193363 -0.00182239 0)
(-0.000651414 0.00720582 0)
(-0.00407295 0.0197032 0)
(-0.0108214 0.0298518 0)
(-0.0195582 0.0376255 0)
(-0.029621 0.0431897 0)
(-0.040573 0.0467735 0)
(-0.0520374 0.0486054 0)
(-0.0636966 0.0488721 0)
(-0.0752745 0.0476966 0)
(-0.0865117 0.0451366 0)
(-0.0971474 0.0411987 0)
(-0.106907 0.0358623 0)
(-0.115493 0.0291112 0)
(-0.122587 0.0209684 0)
(-0.127856 0.0115306 0)
(-0.130963 0.000999426 0)
(-0.131595 -0.0102926 0)
(-0.129492 -0.0218752 0)
(-0.124485 -0.0331378 0)
(-0.116546 -0.0433575 0)
(-0.10583 -0.0517513 0)
(-0.092712 -0.057556 0)
(-0.0778059 -0.0601332 0)
(-0.0619494 -0.0590868 0)
(-0.046146 -0.0543732 0)
(-0.0314639 -0.0463756 0)
(-0.0188932 -0.035919 0)
(-0.00918096 -0.0242094 0)
(-0.00280805 -0.0127069 0)
(-0.000252322 -0.0030286 0)
(-0.000726615 0.00947605 0)
(-0.00452489 0.0253655 0)
(-0.0119931 0.0379843 0)
(-0.0216322 0.0475006 0)
(-0.0327067 0.0542392 0)
(-0.044745 0.0585531 0)
(-0.0573523 0.0607607 0)
(-0.070207 0.0611063 0)
(-0.0830376 0.0597431 0)
(-0.0955925 0.0567368 0)
(-0.107616 0.0520836 0)
(-0.118831 0.045741 0)
(-0.128928 0.0376649 0)
(-0.137559 0.0278516 0)
(-0.144342 0.0163804 0)
(-0.148871 0.00345359 0)
(-0.150742 -0.01057 0)
(-0.149583 -0.0251502 0)
(-0.145105 -0.0395615 0)
(-0.137158 -0.0529137 0)
(-0.125797 -0.0642052 0)
(-0.111338 -0.0724162 0)
(-0.0944033 -0.0766408 0)
(-0.0759287 -0.0762475 0)
(-0.0571113 -0.0710409 0)
(-0.0392969 -0.0613859 0)
(-0.0237958 -0.0482509 0)
(-0.0116532 -0.0331358 0)
(-0.00359199 -0.0178928 0)
(-0.000328783 -0.004572 0)
(-0.000793586 0.0119738 0)
(-0.00492916 0.031579 0)
(-0.0130455 0.0468876 0)
(-0.0235033 0.0582907 0)
(-0.0355046 0.0662996 0)
(-0.0485494 0.0714145 0)
(-0.0622316 0.0740607 0)
(-0.0762321 0.0745522 0)
(-0.0902915 0.0730784 0)
(-0.104174 0.069713 0)
(-0.117636 0.0644375 0)
(-0.130409 0.0571776 0)
(-0.142176 0.0478466 0)
(-0.152566 0.036395 0)
(-0.16115 0.0228617 0)
(-0.167451 0.00742485 0)
(-0.170962 -0.00955153 0)
(-0.171186 -0.0274795 0)
(-0.167684 -0.0455282 0)
(-0.160148 -0.0626333 0)
(-0.148484 -0.0775458 0)
(-0.132897 -0.0889324 0)
(-0.11397 -0.0955354 0)
(-0.0927035 -0.0963817 0)
(-0.0704918 -0.0910166 0)
(-0.0490039 -0.0797055 0)
(-0.0299579 -0.063534 0)
(-0.0148037 -0.0443403 0)
(-0.00460977 -0.0244726 0)
(-0.000434559 -0.00655122 0)
(-0.000851302 0.0146727 0)
(-0.00528064 0.0382823 0)
(-0.0139654 0.0564802 0)
(-0.0251466 0.0699056 0)
(-0.0379728 0.0792804 0)
(-0.0519221 0.0852733 0)
(-0.0665826 0.088434 0)
(-0.0816437 0.0891578 0)
(-0.0968646 0.0876773 0)
(-0.112032 0.0840753 0)
(-0.126927 0.0783143 0)
(-0.141294 0.0702783 0)
(-0.154822 0.0598228 0)
(-0.167125 0.0468316 0)
(-0.177737 0.0312773 0)
(-0.186113 0.0132843 0)
(-0.191649 -0.00680918 0)
(-0.19371 -0.028396 0)
(-0.191692 -0.0505622 0)
(-0.185093 -0.0720761 0)
(-0.173619 -0.0914234 0)
(-0.157298 -0.106906 0)
(-0.1366 -0.116823 0)
(-0.112527 -0.119728 0)
(-0.0866381 -0.114757 0)
(-0.0609514 -0.101942 0)
(-0.0376834 -0.082418 0)
(-0.0188251 -0.0583922 0)
(-0.00593893 -0.0328315 0)
(-0.000582467 -0.00910405 0)
(-0.000898251 0.0175428 0)
(-0.00557247 0.0454064 0)
(-0.0147363 0.0666692 0)
(-0.0265305 0.0822387 0)
(-0.0400585 0.0930682 0)
(-0.0547804 0.100015 0)
(-0.0702825 0.10377 0)
(-0.0862673 0.104822 0)
(-0.102518 0.103455 0)
(-0.118851 0.0997633 0)
(-0.135078 0.0936874 0)
(-0.150972 0.0850613 0)
(-0.166236 0.0736681 0)
(-0.180486 0.0593044 0)
(-0.193235 0.04185 0)
(-0.203888 0.0213434 0)
(-0.211754 -0.0019404 0)
(-0.216073 -0.0274125 0)
(-0.216067 -0.0541131 0)
(-0.211022 -0.080669 0)
(-0.200395 -0.105305 0)
(-0.183963 -0.125924 0)
(-0.161983 -0.140293 0)
(-0.135352 -0.146349 0)
(-0.105713 -0.142618 0)
(-0.0754162 -0.128695 0)
(-0.0472522 -0.105624 0)
(-0.0239137 -0.0759698 0)
(-0.00766341 -0.0434519 0)
(-0.000787145 -0.0124106 0)
(-0.000932935 0.02055 0)
(-0.00579823 0.052874 0)
(-0.0153424 0.077349 0)
(-0.0276242 0.095164 0)
(-0.0417068 0.107521 0)
(-0.0570338 0.115485 0)
(-0.0731914 0.119905 0)
(-0.0898973 0.121377 0)
(-0.106962 0.120244 0)
(-0.124238 0.116616 0)
(-0.141576 0.110414 0)
(-0.158784 0.101413 0)
(-0.1756 0.0893139 0)
(-0.191659 0.0738088 0)
(-0.206477 0.0546607 0)
(-0.219438 0.0317908 0)
(-0.229793 0.00537147 0)
(-0.236683 -0.0240763 0)
(-0.239179 -0.0555952 0)
(-0.236349 -0.0877213 0)
(-0.227372 -0.118453 0)
(-0.211697 -0.145296 0)
(-0.189255 -0.165426 0)
(-0.160689 -0.176012 0)
(-0.127577 -0.174735 0)
(-0.0925099 -0.16046 0)
(-0.0588832 -0.133886 0)
(-0.0302598 -0.0978386 0)
(-0.00987389 -0.0569123 0)
(-0.00106608 -0.0166971 0)
(-0.00095449 0.0236571 0)
(-0.00595486 0.0606018 0)
(-0.0157757 0.0884024 0)
(-0.0284074 0.108536 0)
(-0.0428739 0.122467 0)
(-0.0586008 0.131485 0)
(-0.0751726 0.136614 0)
(-0.0923224 0.138572 0)
(-0.10989 0.137773 0)
(-0.127765 0.13435 0)
(-0.145845 0.128202 0)
(-0.163986 0.119049 0)
(-0.181973 0.106503 0)
(-0.199486 0.0901388 0)
(-0.216074 0.0695857 0)
(-0.231139 0.0446206 0)
(-0.243922 0.0152761 0)
(-0.253513 -0.0180466 0)
(-0.258873 -0.0544562 0)
(-0.258881 -0.0924738 0)
(-0.252436 -0.129947 0)
(-0.238608 -0.164034 0)
(-0.216881 -0.19131 0)
(-0.187465 -0.208061 0)
(-0.15165 -0.21087 0)
(-0.112077 -0.197486 0)
(-0.0726787 -0.167852 0)
(-0.0380288 -0.124808 0)
(-0.0126666 -0.0738807 0)
(-0.00144071 -0.0222403 0)
(-0.000963445 0.0268263 0)
(-0.00604631 0.0685051 0)
(-0.0160434 0.0997069 0)
(-0.0288827 0.122193 0)
(-0.0435444 0.137703 0)
(-0.0594299 0.147768 0)
(-0.0761189 0.153604 0)
(-0.0933574 0.156069 0)
(-0.111013 0.155658 0)
(-0.129018 0.152537 0)
(-0.147317 0.146593 0)
(-0.165825 0.137492 0)
(-0.184391 0.124757 0)
(-0.202762 0.107846 0)
(-0.220559 0.0862453 0)
(-0.237245 0.0595706 0)
(-0.252113 0.0276844 0)
(-0.264266 -0.00917806 0)
(-0.272625 -0.0502695 0)
(-0.27595 -0.0941878 0)
(-0.272889 -0.138746 0)
(-0.262125 -0.18087 0)
(-0.242606 -0.216603 0)
(-0.213916 -0.24131 0)
(-0.176777 -0.250244 0)
(-0.133568 -0.239592 0)
(-0.0885441 -0.207944 0)
(-0.0473299 -0.157657 0)
(-0.0161391 -0.0950952 0)
(-0.00193747 -0.029371 0)
(-0.000962661 0.0300242 0)
(-0.00608815 0.0765087 0)
(-0.0161784 0.111145 0)
(-0.029091 0.135967 0)
(-0.0437503 0.153002 0)
(-0.0595245 0.164042 0)
(-0.0759827 0.170517 0)
(-0.0928815 0.173439 0)
(-0.110116 0.173401 0)
(-0.127658 0.170613 0)
(-0.145507 0.164959 0)
(-0.163642 0.156064 0)
(-0.181992 0.14337 0)
(-0.200396 0.126227 0)
(-0.218577 0.10398 0)
(-0.236113 0.0760826 0)
(-0.252408 0.0422085 0)
(-0.266662 0.0023885 0)
(-0.277848 -0.0428438 0)
(-0.284692 -0.0922702 0)
(-0.28569 -0.14382 0)
(-0.279177 -0.194364 0)
(-0.263534 -0.239582 0)
(-0.237569 -0.273995 0)
(-0.201132 -0.291401 0)
(-0.155915 -0.285969 0)
(-0.106087 -0.254163 0)
(-0.058169 -0.197013 0)
(-0.0203816 -0.121326 0)
(-0.00258873 -0.0384751 0)
(-0.000958574 0.0332295 0)
(-0.00611314 0.0845612 0)
(-0.0162512 0.122618 0)
(-0.0291289 0.149696 0)
(-0.0435933 0.168125 0)
(-0.0589676 0.179982 0)
(-0.074806 0.186936 0)
(-0.0908745 0.190173 0)
(-0.107096 0.1904 0)
(-0.123485 0.187886 0)
(-0.140096 0.182525 0)
(-0.156981 0.173914 0)
(-0.17416 0.161436 0)
(-0.191582 0.144345 0)
(-0.209106 0.121867 0)
(-0.226466 0.0933009 0)
(-0.243238 0.0581339 0)
(-0.258799 0.0161699 0)
(-0.272267 -0.0323216 0)
(-0.282462 -0.0864147 0)
(-0.28785 -0.14432 0)
(-0.286535 -0.203082 0)
(-0.276389 -0.258286 0)
(-0.255378 -0.303842 0)
(-0.222222 -0.332142 0)
(-0.177443 -0.334999 0)
(-0.124509 -0.305861 0)
(-0.0703869 -0.243189 0)
(-0.0254649 -0.153311 0)
(-0.00343402 -0.0499907 0)
(-0.000963004 0.0364442 0)
(-0.00617891 0.092657 0)
(-0.0163842 0.134074 0)
(-0.0291674 0.163244 0)
(-0.0432654 0.18283 0)
(-0.0579451 0.195237 0)
(-0.0727456 0.202399 0)
(-0.087447 0.205701 0)
(-0.102005 0.205978 0)
(-0.116483 0.203574 0)
(-0.130995 0.198408 0)
(-0.145672 0.19007 0)
(-0.160631 0.177902 0)
(-0.17595 0.161095 0)
(-0.191643 0.138778 0)
(-0.207632 0.110125 0)
(-0.223711 0.0744531 0)
(-0.239497 0.0313408 0)
(-0.254346 -0.0192356 0)
(-0.267295 -0.0767274 0)
(-0.276934 -0.139775 0)
(-0.281313 -0.205848 0)
(-0.277954 -0.270782 0)
(-0.264047 -0.328276 0)
(-0.237053 -0.36961 0)
(-0.19588 -0.384151 0)
(-0.142528 -0.361517 0)
(-0.0835917 -0.295962 0)
(-0.0314262 -0.19166 0)
(-0.00452259 -0.0644003 0)
(-0.000996227 0.0397097 0)
(-0.00637904 0.100866 0)
(-0.0167708 0.145529 0)
(-0.0294738 0.176517 0)
(-0.0430695 0.196894 0)
(-0.0567621 0.209445 0)
(-0.0700864 0.216414 0)
(-0.0828525 0.219408 0)
(-0.0950643 0.219409 0)
(-0.106842 0.216843 0)
(-0.118372 0.211676 0)
(-0.129868 0.203505 0)
(-0.141553 0.191661 0)
(-0.153638 0.175298 0)
(-0.166303 0.153487 0)
(-0.179674 0.12531 0)
(-0.193788 0.089948 0)
(-0.208539 0.0467809 0)
(-0.223592 -0.0045065 0)
(-0.238298 -0.0637975 0)
(-0.251524 -0.130256 0)
(-0.261481 -0.202001 0)
(-0.265591 -0.275499 0)
(-0.260497 -0.344765 0)
(-0.242462 -0.40054 0)
(-0.208501 -0.430051 0)
(-0.158363 -0.41857 0)
(-0.0970994 -0.35433 0)
(-0.0382583 -0.236719 0)
(-0.00591965 -0.0822204 0)
(-0.00109283 0.0431317 0)
(-0.00686101 0.109372 0)
(-0.0177011 0.157101 0)
(-0.0304354 0.189486 0)
(-0.0434336 0.210111 0)
(-0.0558464 0.222236 0)
(-0.0672343 0.228466 0)
(-0.0774711 0.230657 0)
(-0.0866367 0.229948 0)
(-0.0949306 0.22686 0)
(-0.10262 0.221409 0)
(-0.110013 0.213223 0)
(-0.117442 0.201641 0)
(-0.125249 0.185813 0)
(-0.13378 0.164787 0)
(-0.143362 0.137593 0)
(-0.154272 0.103317 0)
(-0.166688 0.0611784 0)
(-0.180629 0.010604 0)
(-0.195807 -0.0486831 0)
(-0.211476 -0.116443 0)
(-0.226231 -0.191592 0)
(-0.237703 -0.271557 0)
(-0.24235 -0.35125 0)
(-0.235545 -0.421685 0)
(-0.212404 -0.46873 0)
(-0.169813 -0.473397 0)
(-0.109898 -0.416277 0)
(-0.0459075 -0.288403 0)
(-0.00772007 -0.103996 0)
(-0.00131355 0.0469195 0)
(-0.00785724 0.118529 0)
(-0.0195994 0.169046 0)
(-0.0325844 0.202193 0)
(-0.0449134 0.222295 0)
(-0.0557257 0.233224 0)
(-0.064671 0.238014 0)
(-0.0717449 0.238792 0)
(-0.0771487 0.236856 0)
(-0.0811911 0.232818 0)
(-0.0842404 0.226751 0)
(-0.0867045 0.218318 0)
(-0.0890241 0.206889 0)
(-0.0916694 0.191632 0)
(-0.0951349 0.171603 0)
(-0.0999328 0.145826 0)
(-0.106559 0.113324 0)
(-0.115454 0.0732094 0)
(-0.126951 0.0247095 0)
(-0.141163 -0.0327685 0)
(-0.157815 -0.0995748 0)
(-0.176019 -0.175449 0)
(-0.193921 -0.258991 0)
(-0.208256 -0.346533 0)
(-0.214032 -0.430303 0)
(-0.20483 -0.496064 0)
(-0.174409 -0.521473 0)
(-0.120639 -0.478599 0)
(-0.0542767 -0.345998 0)
(-0.0100735 -0.13031 0)
(-0.00176955 0.0514532 0)
(-0.0097393 0.128929 0)
(-0.0230739 0.181781 0)
(-0.0366134 0.214734 0)
(-0.0481602 0.233234 0)
(-0.0569493 0.241964 0)
(-0.0628338 0.244458 0)
(-0.0660226 0.24312 0)
(-0.0669015 0.23939 0)
(-0.0659278 0.233954 0)
(-0.0635906 0.226929 0)
(-0.060404 0.218014 0)
(-0.0569132 0.206616 0)
(-0.0536987 0.191937 0)
(-0.0513746 0.173068 0)
(-0.050617 0.149067 0)
(-0.0521028 0.11891 0)
(-0.0564771 0.0816736 0)
(-0.0643451 0.0364525 0)
(-0.0762029 -0.0175887 0)
(-0.0922466 -0.0812708 0)
(-0.112179 -0.155066 0)
(-0.1349 -0.238781 0)
(-0.157879 -0.33051 0)
(-0.176451 -0.424598 0)
(-0.183377 -0.508282 0)
(-0.16955 -0.557699 0)
(-0.127621 -0.536829 0)
(-0.0632061 -0.407914 0)
(-0.0132196 -0.161826 0)
(-0.00267154 0.0574034 0)
(-0.0131102 0.141495 0)
(-0.0289741 0.195872 0)
(-0.0433464 0.227181 0)
(-0.0537951 0.242591 0)
(-0.0598754 0.247853 0)
(-0.0618322 0.247054 0)
(-0.0602171 0.242847 0)
(-0.0556798 0.236764 0)
(-0.0488684 0.22952 0)
(-0.04041 0.221244 0)
(-0.0309243 0.211658 0)
(-0.0210474 0.200201 0)
(-0.0114459 0.186125 0)
(-0.00280459 0.168562 0)
(0.00405739 0.146586 0)
(0.00832811 0.119241 0)
(0.00923573 0.0855691 0)
(0.00595655 0.0445974 0)
(-0.00234357 -0.00467748 0)
(-0.016282 -0.0633 0)
(-0.0361358 -0.132346 0)
(-0.0616846 -0.212666 0)
(-0.0914911 -0.30417 0)
(-0.121934 -0.403958 0)
(-0.145979 -0.502412 0)
(-0.152513 -0.576811 0)
(-0.128693 -0.585271 0)
(-0.0723602 -0.471366 0)
(-0.0175089 -0.199332 0)
(-0.00442549 0.0659527 0)
(-0.0189488 0.157567 0)
(-0.0384045 0.211929 0)
(-0.0535515 0.239372 0)
(-0.0620275 0.249679 0)
(-0.0641327 0.249929 0)
(-0.0607895 0.244752 0)
(-0.0530577 0.236951 0)
(-0.0419364 0.228046 0)
(-0.0282997 0.2187 0)
(-0.0129162 0.209003 0)
(0.00350534 0.198665 0)
(0.0202693 0.187145 0)
(0.0366603 0.173736 0)
(0.0519266 0.157626 0)
(0.065226 0.137912 0)
(0.0756706 0.113738 0)
(0.0823447 0.0841525 0)
(0.0842705 0.0481826 0)
(0.0804315 0.00476024 0)
(0.0698415 -0.0472422 0)
(0.0516368 -0.10923 0)
(0.0252284 -0.182779 0)
(-0.00920774 -0.269347 0)
(-0.0496917 -0.36898 0)
(-0.0905698 -0.476581 0)
(-0.120204 -0.573779 0)
(-0.120956 -0.617062 0)
(-0.0808694 -0.531883 0)
(-0.0233263 -0.243655 0)
(-0.00780327 0.0791964 0)
(-0.0287859 0.178917 0)
(-0.0525118 0.230242 0)
(-0.0672578 0.250429 0)
(-0.0715915 0.252997 0)
(-0.0672892 0.246486 0)
(-0.0563398 0.235895 0)
(-0.0404888 0.223953 0)
(-0.021148 0.211994 0)
(0.000581205 0.200499 0)
(0.0238196 0.18944 0)
(0.0478156 0.178468 0)
(0.0718686 0.167033 0)
(0.0952734 0.154459 0)
(0.117282 0.139988 0)
(0.137069 0.122807 0)
(0.153733 0.102099 0)
(0.16629 0.0769968 0)
(0.173667 0.0465941 0)
(0.174687 0.00988934 0)
(0.168101 -0.034275 0)
(0.152602 -0.0873342 0)
(0.126884 -0.151184 0)
(0.08992 -0.228302 0)
(0.0417508 -0.321295 0)
(-0.0144478 -0.43022 0)
(-0.0685601 -0.544225 0)
(-0.100056 -0.62425 0)
(-0.086498 -0.582551 0)
(-0.0307099 -0.295304 0)
(-0.0141641 0.100803 0)
(-0.0446859 0.207366 0)
(-0.0713738 0.249832 0)
(-0.0816 0.25776 0)
(-0.0769322 0.249406 0)
(-0.0617145 0.234473 0)
(-0.0393992 0.217817 0)
(-0.0125043 0.201686 0)
(0.0171937 0.186941 0)
(0.0484672 0.173714 0)
(0.0804402 0.161753 0)
(0.112428 0.150594 0)
(0.143826 0.139654 0)
(0.17403 0.128279 0)
(0.202382 0.115774 0)
(0.22814 0.101418 0)
(0.250448 0.0844817 0)
(0.268334 0.0642136 0)
(0.280687 0.0398288 0)
(0.28622 0.0104668 0)
(0.283511 -0.0249117 0)
(0.270947 -0.0675874 0)
(0.246678 -0.119404 0)
(0.208717 -0.183188 0)
(0.155318 -0.263187 0)
(0.0864848 -0.36419 0)
(0.00847213 -0.485005 0)
(-0.0587805 -0.59804 0)
(-0.0841565 -0.613273 0)
(-0.0383537 -0.354337 0)
(-0.0253392 0.13703 0)
(-0.0677585 0.242592 0)
(-0.089509 0.265621 0)
(-0.0844554 0.254734 0)
(-0.0612797 0.232574 0)
(-0.0278804 0.208616 0)
(0.0109011 0.186485 0)
(0.0521234 0.167269 0)
(0.0940334 0.150989 0)
(0.135619 0.137242 0)
(0.176281 0.12547 0)
(0.215616 0.115064 0)
(0.253279 0.105403 0)
(0.288893 0.0958668 0)
(0.321998 0.0858421 0)
(0.352008 0.0747238 0)
(0.378195 0.0619139 0)
(0.399667 0.0468128 0)
(0.415355 0.0288078 0)
(0.423923 0.00724257 0)
(0.423898 -0.0186824 0)
(0.413503 -0.0499513 0)
(0.390556 -0.0880865 0)
(0.352449 -0.135636 0)
(0.296086 -0.197206 0)
(0.218415 -0.280629 0)
(0.120275 -0.394459 0)
(0.015271 -0.529599 0)
(-0.0637549 -0.610264 0)
(-0.0415488 -0.419728 0)
(-0.0409025 0.199039 0)
(-0.0894268 0.274879 0)
(-0.0795171 0.260161 0)
(-0.0373556 0.225347 0)
(0.0180672 0.19048 0)
(0.0772233 0.160716 0)
(0.135794 0.136747 0)
(0.191843 0.117828 0)
(0.244653 0.102909 0)
(0.294106 0.091027 0)
(0.340323 0.0813662 0)
(0.383466 0.0732372 0)
(0.423634 0.0660444 0)
(0.460803 0.0592597 0)
(0.494793 0.0524035 0)
(0.525247 0.0450304 0)
(0.551618 0.0367202 0)
(0.573168 0.0270654 0)
(0.588959 0.0156533 0)
(0.597719 0.00202796 0)
(0.598103 -0.0141405 0)
(0.588319 -0.033571 0)
(0.566132 -0.0572914 0)
(0.528724 -0.0870985 0)
(0.472288 -0.12668 0)
(0.391552 -0.183982 0)
(0.281396 -0.273993 0)
(0.143124 -0.410619 0)
(-0.00496392 -0.553524 0)
(-0.0258017 -0.476862 0)
(-0.0336953 0.294655 0)
(-0.0465854 0.274182 0)
(0.0558048 0.200721 0)
(0.158983 0.149969 0)
(0.250957 0.114123 0)
(0.331332 0.0883167 0)
(0.401227 0.0699887 0)
(0.462066 0.0569669 0)
(0.515383 0.0475497 0)
(0.562571 0.0405649 0)
(0.604742 0.035219 0)
(0.642718 0.0309496 0)
(0.677052 0.0273345 0)
(0.70805 0.0240407 0)
(0.735789 0.020793 0)
(0.760128 0.0173548 0)
(0.780721 0.0135172 0)
(0.797016 0.00909182 0)
(0.808239 0.0039046 0)
(0.813553 -0.00220595 0)
(0.811824 -0.00942519 0)
(0.801433 -0.0180621 0)
(0.780608 -0.0285503 0)
(0.746902 -0.0417477 0)
(0.696628 -0.0596119 0)
(0.623696 -0.0871183 0)
(0.517974 -0.137663 0)
(0.364545 -0.240682 0)
(0.143656 -0.407095 0)
(0.0586958 -0.458294 0)
(0.303426 0.181043 0)
(0.383239 0.144664 0)
(0.562212 0.0915475 0)
(0.688509 0.0592192 0)
(0.771143 0.0393364 0)
(0.830123 0.0266082 0)
(0.874921 0.0185194 0)
(0.910069 0.0134142 0)
(0.938459 0.0101483 0)
(0.962074 0.00799868 0)
(0.982213 0.00652643 0)
(0.999698 0.00545948 0)
(1.01503 0.00462132 0)
(1.02848 0.00389154 0)
(1.04014 0.00318341 0)
(1.04996 0.00243089 0)
(1.05777 0.00158141 0)
(1.06327 0.000595 0)
(1.0661 -0.000557461 0)
(1.06578 -0.00183494 0)
(1.0617 -0.00340846 0)
(1.05319 -0.00529308 0)
(1.03942 -0.00754801 0)
(1.01912 -0.0103614 0)
(0.990244 -0.0142101 0)
(0.948703 -0.0204135 0)
(0.884795 -0.0328374 0)
(0.776742 -0.0639619 0)
(0.544915 -0.139579 0)
(0.382488 -0.201785 0)
)
;

boundaryField
{
    movingWall
    {
        type            fixedValue;
        value           uniform (1.2 0 0);
    }
    fixedWalls
    {
        type            noSlip;
    }
    frontAndBack
    {
        type            empty;
    }
}


// ************************************************************************* //
