/*--------------------------------*- C++ -*----------------------------------*\
  =========                 |
  \\      /  F ield         | OpenFOAM: The Open Source CFD Toolbox
   \\    /   O peration     | Website:  https://openfoam.org
    \\  /    A nd           | Version:  7
     \\/     M anipulation  |
\*---------------------------------------------------------------------------*/
FoamFile
{
    version     2.0;
    format      ascii;
    class       volScalarField;
    location    "6";
    object      p;
}
// * * * * * * * * * * * * * * * * * * * * * * * * * * * * * * * * * * * * * //

dimensions      [0 2 -2 0 0 0 0];

internalField   nonuniform List<scalar> 
900
(
7.29427e-07
-0.000325429
-0.000848451
-0.00139646
-0.00187288
-0.00221777
-0.00240099
-0.0024088
-0.00223406
-0.00187171
-0.0013183
-0.000573945
0.000354356
0.00144892
0.00267814
0.00399455
0.00533493
0.00662314
0.00777599
0.00871171
0.00936026
0.00967412
0.0096375
0.00927222
0.00863964
0.00783633
0.00697776
0.00622189
0.00570631
0.00556307
0.000325208
-1.24887e-05
-0.000408987
-0.000807819
-0.00114997
-0.00139244
-0.00151138
-0.00149352
-0.00133022
-0.00101519
-0.000544323
8.27551e-05
0.000860287
0.00177351
0.00279606
0.00388831
0.0049994
0.006066
0.0070201
0.00779521
0.00833504
0.00860246
0.00858699
0.00830914
0.00782074
0.00720063
0.00654465
0.00595339
0.00554915
0.00541778
0.000868474
0.00037091
-3.89758e-05
-0.000395199
-0.000685274
-0.000883147
-0.00097486
-0.000952396
-0.000808927
-0.000537955
-0.000133955
0.000405897
0.00107923
0.00187563
0.00277408
0.0037417
0.00473253
0.00569005
0.00655164
0.00725507
0.00774694
0.00799148
0.00797792
0.00772454
0.00727835
0.00670992
0.00610429
0.00555014
0.00513396
0.00492064
0.00146012
0.000751492
0.000268945
-9.7695e-05
-0.000378937
-0.00056518
-0.000653819
-0.000644037
-0.000532032
-0.000311275
2.59663e-05
0.000486343
0.00107248
0.00177969
0.00259281
0.00348409
0.00441186
0.00532191
0.00615186
0.00683761
0.00732221
0.0075654
0.00755182
0.00729575
0.00684074
0.00625379
0.00561631
0.00501381
0.00451473
0.00414737
0.00197419
0.00103908
0.000462835
6.20118e-05
-0.000233857
-0.000430153
-0.000535232
-0.000555351
-0.000489528
-0.000330714
-6.81173e-05
0.00030989
0.000812222
0.00144107
0.00218791
0.0030303
0.00393063
0.00483493
0.00567828
0.00639081
0.00690736
0.00717833
0.0071794
0.00691787
0.00643299
0.00579021
0.0050721
0.00436776
0.00373598
0.00316992
0.00230166
0.00114281
0.000464892
1.54797e-05
-0.000312675
-0.000538322
-0.000679598
-0.00074889
-0.000747193
-0.000666067
-0.000490664
-0.000203203
0.000212848
0.000768005
0.00146161
0.00227731
0.00318186
0.00412085
0.00502505
0.00581558
0.00641443
0.00675713
0.00680478
0.00655296
0.00603415
0.00531272
0.00447665
0.00362598
0.00281774
0.00201585
0.00234917
0.000980023
0.000200501
-0.000305708
-0.000679707
-0.000952291
-0.00115006
-0.0012903
-0.00137491
-0.00139304
-0.00132471
-0.0011447
-0.000827287
-0.000351774
0.000290614
0.00109051
0.00202555
0.00303719
0.00405203
0.00497999
0.00572568
0.00620324
0.00635162
0.00614752
0.00561151
0.00480548
0.00382592
0.00279131
0.00176534
0.00068677
0.00203478
0.000475033
-0.000400968
-0.000968267
-0.00139927
-0.00173581
-0.00201182
-0.00224832
-0.00244711
-0.00259399
-0.00266278
-0.00261945
-0.00242733
-0.00205329
-0.00147708
-0.000702113
0.000284323
0.00140096
0.00257648
0.00370959
0.00468332
0.00538282
0.0057149
0.00562664
0.00511778
0.00424305
0.00310882
0.00185943
0.000573447
-0.000833574
0.00128534
-0.000440892
-0.00140552
-0.00203661
-0.00253535
-0.0029539
-0.00333267
-0.00369557
-0.00404358
-0.00435849
-0.00460702
-0.00474499
-0.00472275
-0.00449177
-0.00401033
-0.00324907
-0.00224752
-0.0010132
0.000368427
0.00178068
0.0030813
0.00411815
0.00475304
0.00488817
0.00448802
0.00359033
0.00230951
0.000822697
-0.000768287
-0.00257103
3.6931e-05
-0.00182778
-0.00287165
-0.00356906
-0.0041471
-0.00466778
-0.00517743
-0.00570243
-0.00624276
-0.00677598
-0.0072613
-0.00764335
-0.00785735
-0.00783584
-0.00751632
-0.00685153
-0.00583238
-0.00447534
-0.00285255
-0.00108654
0.000654685
0.00217408
0.00327357
0.00378997
0.00363039
0.00279787
0.00140722
-0.000326386
-0.00226903
-0.00455257
-0.00176291
-0.00373441
-0.00484713
-0.00561372
-0.00628375
-0.00692875
-0.00760077
-0.00832879
-0.00911215
-0.00992464
-0.0107181
-0.0114255
-0.0119649
-0.0122464
-0.0121801
-0.0116886
-0.0107235
-0.00927796
-0.00740388
-0.00522159
-0.00292101
-0.000748719
0.00102205
0.00213731
0.00241555
0.0017957
0.000375374
-0.00159157
-0.00393014
-0.0067977
-0.00415199
-0.00619545
-0.0073658
-0.00820444
-0.00897954
-0.00977186
-0.0106395
-0.0116145
-0.0126967
-0.0138574
-0.015042
-0.0161718
-0.0171472
-0.0178524
-0.0181644
-0.0179657
-0.0171624
-0.0157048
-0.0136089
-0.0109777
-0.00801173
-0.00500532
-0.00231856
-0.000323849
0.000667923
0.000487005
-0.000819628
-0.00296875
-0.00573738
-0.00930883
-0.0071502
-0.00922876
-0.0104445
-0.0113571
-0.0122488
-0.0132095
-0.0143039
-0.0155687
-0.0170057
-0.0185857
-0.0202494
-0.021908
-0.0234438
-0.0247138
-0.0255572
-0.0258085
-0.0253169
-0.0239742
-0.02174
-0.0186778
-0.014979
-0.0109725
-0.00710793
-0.00389995
-0.00183577
-0.00125539
-0.00221849
-0.00444043
-0.00765082
-0.012059
-0.0107569
-0.0128335
-0.0140813
-0.0150667
-0.0160816
-0.0172255
-0.0185706
-0.02016
-0.022
-0.0240634
-0.0262891
-0.0285801
-0.0308022
-0.0327849
-0.0343275
-0.035211
-0.0352188
-0.034166
-0.0319385
-0.0285329
-0.0241014
-0.0189811
-0.0136973
-0.0089181
-0.00535181
-0.00358402
-0.0038652
-0.00596728
-0.00959125
-0.0149752
-0.0149494
-0.0169898
-0.0182547
-0.0193063
-0.0204417
-0.0217709
-0.0233758
-0.025308
-0.0275815
-0.0301741
-0.0330259
-0.0360349
-0.0390529
-0.0418836
-0.0442867
-0.0459878
-0.0466984
-0.0461467
-0.0441281
-0.0405434
-0.0354704
-0.0292144
-0.0223411
-0.0156597
-0.0101278
-0.00665511
-0.00579447
-0.00747436
-0.0114212
-0.0179157
-0.0196844
-0.0216608
-0.0229258
-0.0240276
-0.0252658
-0.0267626
-0.0286127
-0.0308798
-0.0335885
-0.0367251
-0.0402342
-0.0440121
-0.0478997
-0.0516785
-0.0550711
-0.0577498
-0.0593542
-0.05952
-0.0579466
-0.0544121
-0.0488853
-0.041591
-0.03308
-0.0242579
-0.0163266
-0.010581
-0.00800394
-0.00882888
-0.0129187
-0.0206391
-0.0249008
-0.0267972
-0.0280428
-0.0291652
-0.0304665
-0.0320849
-0.034133
-0.0366908
-0.0397976
-0.0434514
-0.0476041
-0.052153
-0.0569315
-0.0617026
-0.0661567
-0.0699181
-0.0725613
-0.0736394
-0.0727318
-0.0695038
-0.0637841
-0.055668
-0.0456228
-0.0345746
-0.023918
-0.0153513
-0.0104044
-0.00980554
-0.0137425
-0.0227645
-0.0305272
-0.0323459
-0.0335489
-0.0346431
-0.0359373
-0.0375939
-0.0397513
-0.0425121
-0.0459345
-0.0500307
-0.0547618
-0.0600279
-0.0656571
-0.0713973
-0.0769117
-0.0817839
-0.0855327
-0.0876392
-0.0875711
-0.0848826
-0.0792515
-0.0706089
-0.0592724
-0.0460933
-0.0325603
-0.0207285
-0.0127449
-0.0100352
-0.0133855
-0.0237203
-0.036492
-0.0382623
-0.0393935
-0.0403828
-0.0415597
-0.0431249
-0.0452546
-0.0480826
-0.0516906
-0.056107
-0.0613022
-0.0671786
-0.0735595
-0.080179
-0.0866776
-0.0926049
-0.0974329
-0.100579
-0.101435
-0.0994388
-0.0941268
-0.0852537
-0.0729416
-0.0578752
-0.0415087
-0.0261386
-0.0145169
-0.00893468
-0.011116
-0.0226793
-0.0427402
-0.0445284
-0.0455468
-0.0463142
-0.0472108
-0.0484992
-0.0504117
-0.0531241
-0.0567458
-0.0613214
-0.0668286
-0.0731691
-0.0801587
-0.0875168
-0.0948624
-0.101716
-0.10751
-0.111613
-0.113352
-0.112074
-0.10719
-0.0982883
-0.0852795
-0.0686186
-0.0495991
-0.0305951
-0.0148553
-0.00561899
-0.00590328
-0.0184719
-0.0492582
-0.0511783
-0.0520175
-0.0523845
-0.0527682
-0.0535305
-0.0549839
-0.0573577
-0.0607919
-0.0653442
-0.0709935
-0.0776348
-0.08507
-0.0930001
-0.101021
-0.108623
-0.115207
-0.120096
-0.12257
-0.121888
-0.117373
-0.108467
-0.0948815
-0.0768228
-0.055334
-0.0326951
-0.0124655
0.0011963
0.00367585
-0.0094646
-0.0561187
-0.0583381
-0.0588752
-0.058566
-0.0581121
-0.0580281
-0.0587337
-0.060521
-0.0635574
-0.0679053
-0.0735342
-0.0803222
-0.0880477
-0.0963859
-0.104904
-0.113062
-0.120223
-0.125669
-0.128628
-0.128303
-0.123923
-0.114814
-0.10052
-0.081017
-0.0570635
-0.0307112
-0.00561328
0.0132805
0.0195506
0.00662651
-0.0635686
-0.0662886
-0.0662777
-0.0648603
-0.0631231
-0.0617988
-0.0614353
-0.0623854
-0.0648306
-0.0688214
-0.0743001
-0.081116
-0.0890078
-0.0976176
-0.106475
-0.115002
-0.122521
-0.128268
-0.131417
-0.131105
-0.126474
-0.116753
-0.101329
-0.0799925
-0.0532239
-0.0227797
0.00779319
0.0329311
0.0443067
0.0330391
-0.0722161
-0.0755743
-0.0745069
-0.071299
-0.067678
-0.0646505
-0.0628876
-0.0627771
-0.0644834
-0.0680188
-0.0732726
-0.0800423
-0.0880221
-0.0968047
-0.105875
-0.114609
-0.12228
-0.128072
-0.131089
-0.130395
-0.125032
-0.114112
-0.0968968
-0.0729941
-0.0426102
-0.00720753
0.0299689
0.0629314
0.0814032
0.0744519
-0.0834535
-0.0871879
-0.084002
-0.0779336
-0.0716428
-0.0663985
-0.0629305
-0.0615961
-0.06249
-0.0655377
-0.0705545
-0.0772634
-0.0852963
-0.0941888
-0.103373
-0.112174
-0.11981
-0.1254
-0.127973
-0.126502
-0.119891
-0.107133
-0.0873181
-0.0598461
-0.0247057
0.0170696
0.0627467
0.106303
0.135347
0.137486
-0.100439
-0.102901
-0.0953574
-0.0847856
-0.0748383
-0.0668446
-0.061429
-0.0588001
-0.0588969
-0.0615095
-0.0663405
-0.0730208
-0.0811075
-0.0900726
-0.0992925
-0.108038
-0.11547
-0.120641
-0.122499
-0.119924
-0.111617
-0.0964521
-0.0732857
-0.0412307
8.20849e-05
0.050102
0.106817
0.165511
0.211233
0.230636
-0.130292
-0.125764
-0.109337
-0.0918145
-0.0769948
-0.0657267
-0.0582239
-0.0543549
-0.0537875
-0.056108
-0.0608707
-0.0675988
-0.0757686
-0.0847891
-0.0939837
-0.102574
-0.109669
-0.114259
-0.115213
-0.111292
-0.101118
-0.0832622
-0.0563115
-0.0189649
0.0297515
0.0901741
0.161682
0.24066
0.312998
0.36557
-0.189043
-0.159234
-0.126354
-0.0985123
-0.0773564
-0.0624158
-0.0529415
-0.0481327
-0.0472222
-0.0495242
-0.0544226
-0.0613317
-0.0696561
-0.0787553
-0.0879143
-0.0963209
-0.103048
-0.107037
-0.1071
-0.101897
-0.0900354
-0.0697561
-0.039316
0.00315319
0.0596105
0.131991
0.222109
0.329247
0.442814
0.569103
-0.320386
-0.199153
-0.138013
-0.0972319
-0.0699803
-0.0526163
-0.0426271
-0.0381343
-0.0378285
-0.0407915
-0.0463065
-0.053741
-0.0624783
-0.0718699
-0.0811993
-0.0896541
-0.0963064
-0.100093
-0.0998003
-0.0939607
-0.0812749
-0.0598046
-0.0275081
0.0180464
0.0800049
0.16274
0.272711
0.418401
0.606774
0.896312
-0.647652
-0.235558
-0.106561
-0.0622547
-0.0381493
-0.0246673
-0.0188734
-0.0181347
-0.0208286
-0.0261117
-0.0334298
-0.0422881
-0.0521751
-0.0625248
-0.0726855
-0.0818962
-0.0892706
-0.0937866
-0.0942974
-0.0895837
-0.0778114
-0.0573758
-0.0262197
0.0182984
0.0799052
0.164838
0.285529
0.470283
0.776451
1.37032
)
;

boundaryField
{
    movingWall
    {
        type            zeroGradient;
    }
    fixedWalls
    {
        type            zeroGradient;
    }
    frontAndBack
    {
        type            empty;
    }
}


// ************************************************************************* //
