/*--------------------------------*- C++ -*----------------------------------*\
  =========                 |
  \\      /  F ield         | OpenFOAM: The Open Source CFD Toolbox
   \\    /   O peration     | Website:  https://openfoam.org
    \\  /    A nd           | Version:  7
     \\/     M anipulation  |
\*---------------------------------------------------------------------------*/
FoamFile
{
    version     2.0;
    format      ascii;
    class       surfaceScalarField;
    location    "6";
    object      phi;
}
// * * * * * * * * * * * * * * * * * * * * * * * * * * * * * * * * * * * * * //

dimensions      [0 3 -1 0 0 0 0];

internalField   nonuniform List<scalar> 
1740
(
7.37153e-07
-7.37767e-07
3.47148e-07
3.89997e-07
-1.54063e-06
1.88778e-06
-4.75879e-06
3.21817e-06
-8.97321e-06
4.21442e-06
-1.38525e-05
4.87925e-06
-1.91186e-05
5.26615e-06
-2.45463e-05
5.4277e-06
-2.99428e-05
5.39647e-06
-3.51256e-05
5.18282e-06
-3.99057e-05
4.78013e-06
-4.4079e-05
4.17328e-06
-4.74273e-05
3.34832e-06
-4.97292e-05
2.30193e-06
-5.07791e-05
1.04987e-06
-5.04118e-05
-3.67337e-07
-4.85306e-05
-1.88117e-06
-4.51356e-05
-3.39499e-06
-4.03445e-05
-4.79111e-06
-3.44026e-05
-5.94194e-06
-2.76774e-05
-6.72516e-06
-2.06357e-05
-7.04173e-06
-1.38025e-05
-6.83324e-06
-7.70691e-06
-6.09555e-06
-2.82077e-06
-4.88614e-06
5.08796e-07
-3.32956e-06
2.13542e-06
-1.62662e-06
2.16276e-06
-2.73435e-08
1.05941e-06
1.10335e-06
1.05941e-06
-3.74029e-07
-3.63751e-07
-3.48263e-06
3.4986e-06
-9.82551e-06
8.23067e-06
-1.90209e-05
1.24136e-05
-3.04486e-05
1.56421e-05
-4.34366e-05
1.78672e-05
-5.73524e-05
1.9182e-05
-7.16264e-05
1.97017e-05
-8.57345e-05
1.95045e-05
-9.91696e-05
1.86179e-05
-0.000111418
1.70287e-05
-0.000121951
1.47058e-05
-0.00013023
1.16281e-05
-0.000135741
7.81214e-06
-0.000138026
3.33565e-06
-0.000136754
-1.63989e-06
-0.000131751
-6.88417e-06
-0.000123079
-1.20667e-05
-0.000111061
-1.68095e-05
-9.62947e-05
-2.07081e-05
-7.96391e-05
-2.33808e-05
-6.21591e-05
-2.45217e-05
-4.50382e-05
-2.39542e-05
-2.94603e-05
-2.16735e-05
-1.64738e-05
-1.78726e-05
-6.85126e-06
-1.29521e-05
-9.58346e-07
-7.51954e-06
1.41279e-06
-2.39847e-06
1.15477e-06
1.36137e-06
2.21419e-06
-2.03123e-06
1.66748e-06
-8.76192e-06
1.02293e-05
-2.00109e-05
1.94796e-05
-3.51305e-05
2.75332e-05
-5.32596e-05
3.37712e-05
-7.34893e-05
3.80969e-05
-9.49446e-05
4.06373e-05
-0.000116805
4.15623e-05
-0.000138291
4.09907e-05
-0.000158637
3.89638e-05
-0.00017707
3.54618e-05
-0.000192808
3.04437e-05
-0.000205077
2.38967e-05
-0.00021315
1.58855e-05
-0.000216409
6.59491e-06
-0.000214407
-3.64234e-06
-0.000206943
-1.43482e-05
-0.000194129
-2.4881e-05
-0.000176431
-3.45068e-05
-0.00015469
-4.24494e-05
-0.000130093
-4.79773e-05
-0.000104112
-5.05031e-05
-7.83838e-05
-4.96823e-05
-5.456e-05
-4.54973e-05
-3.41221e-05
-3.83105e-05
-1.8191e-05
-2.88832e-05
-7.34407e-06
-1.83665e-05
-1.46824e-06
-8.2743e-06
3.8007e-07
-4.86945e-07
2.59425e-06
-3.78729e-06
5.45478e-06
-1.43316e-05
2.07736e-05
-3.06574e-05
3.58054e-05
-5.16641e-05
4.85399e-05
-7.62042e-05
5.83114e-05
-0.000103156
6.50488e-05
-0.000131458
6.89392e-05
-0.000160107
7.02109e-05
-0.000188134
6.9018e-05
-0.00021458
6.54095e-05
-0.000238475
5.93568e-05
-0.000258844
5.08126e-05
-0.00027473
3.97834e-05
-0.000285247
2.64023e-05
-0.000289641
1.09891e-05
-0.000287371
-5.91308e-06
-0.000278185
-2.35343e-05
-0.0002622
-4.08659e-05
-0.000239951
-5.67553e-05
-0.000212418
-6.99824e-05
-0.000181006
-7.93895e-05
-0.000147478
-8.40311e-05
-0.000113831
-8.33295e-05
-8.21173e-05
-7.72109e-05
-5.4228e-05
-6.61998e-05
-3.16587e-05
-5.14525e-05
-1.52916e-05
-3.47335e-05
-5.22351e-06
-1.83424e-05
-6.85018e-07
-5.02544e-06
1.90923e-06
-5.47338e-06
1.09282e-05
-1.97892e-05
3.50895e-05
-4.11387e-05
5.71549e-05
-6.78971e-05
7.52983e-05
-9.85916e-05
8.90059e-05
-0.000131889
9.83463e-05
-0.000166571
0.000103622
-0.000201499
0.000105139
-0.000235571
0.000103089
-0.000267687
9.75253e-05
-0.000296734
8.84041e-05
-0.00032159
7.56692e-05
-0.000341155
5.93482e-05
-0.0003544
3.96469e-05
-0.000360439
1.70289e-05
-0.000358616
-7.73681e-06
-0.000348576
-3.35737e-05
-0.000330371
-5.90713e-05
-0.000304513
-8.26132e-05
-0.000272024
-0.000102472
-0.000234433
-0.00011698
-0.000193728
-0.000124736
-0.000152229
-0.000124829
-0.000112397
-0.000117042
-7.65858e-05
-0.000102011
-4.67558e-05
-8.12825e-05
-2.42116e-05
-5.72777e-05
-9.39704e-06
-3.3157e-05
-1.80352e-06
-1.2619e-05
1.05715e-07
-7.04213e-06
1.79703e-05
-2.4954e-05
5.30014e-05
-5.11255e-05
8.33263e-05
-8.33975e-05
0.00010757
-0.000119961
0.00012557
-0.000159277
0.000137662
-0.000199992
0.000144337
-0.000240867
0.000146014
-0.000280712
0.000142934
-0.000318334
0.000135148
-0.000352522
0.000122592
-0.000382042
0.00010519
-0.000405672
8.29777e-05
-0.000422246
5.62213e-05
-0.000430731
2.55137e-05
-0.000430308
-8.15976e-06
-0.000420452
-4.34294e-05
-0.000401057
-7.84667e-05
-0.00037251
-0.00011116
-0.00033577
-0.000139212
-0.000292405
-0.000160345
-0.000244568
-0.000172573
-0.000194896
-0.000174501
-0.000146307
-0.000165631
-0.000101719
-0.0001466
-6.36992e-05
-0.000119302
-3.41287e-05
-8.68483e-05
-1.39332e-05
-5.33525e-05
-2.95855e-06
-2.35936e-05
-2.85283e-06
-8.47936e-06
2.64496e-05
-2.97322e-05
7.42542e-05
-6.04159e-05
0.00011401
-9.78668e-05
0.000145021
-0.000139955
0.000167658
-0.000184948
0.000182655
-0.000231385
0.000190774
-0.000277958
0.000192588
-0.000323425
0.0001884
-0.000366543
0.000178266
-0.000406038
0.000162087
-0.000440598
0.000139749
-0.000468892
0.000111272
-0.000489617
7.69464e-05
-0.000501562
3.74586e-05
-0.000503712
-6.01031e-06
-0.000495265
-5.18766e-05
-0.00047587
-9.78611e-05
-0.000445675
-0.000141355
-0.000405458
-0.000179429
-0.000356717
-0.000209086
-0.000301706
-0.000227584
-0.000243364
-0.000232843
-0.000185128
-0.000223867
-0.000130607
-0.000201121
-8.31588e-05
-0.00016675
-4.54385e-05
-0.000124569
-1.90215e-05
-7.97694e-05
-4.20637e-06
-3.84088e-05
-7.0592e-06
-9.77208e-06
3.62217e-05
-3.405e-05
9.85321e-05
-6.88452e-05
0.000148805
-0.000111044
0.00018722
-0.000158228
0.000214842
-0.000208501
0.000232928
-0.000260317
0.00024259
-0.000312332
0.000244602
-0.000363288
0.000239356
-0.000411928
0.000226907
-0.000456953
0.000207112
-0.000496998
0.000179794
-0.000530644
0.000144917
-0.000556446
0.000102749
-0.00057298
5.39921e-05
-0.000579046
5.60856e-08
-0.000573402
-5.75207e-05
-0.000555416
-0.000115847
-0.000524852
-0.000171919
-0.000482167
-0.000222114
-0.000428661
-0.000262592
-0.00036658
-0.000289665
-0.000299119
-0.000300304
-0.000230267
-0.000292719
-0.000164461
-0.000266927
-0.000106063
-0.000225148
-5.87522e-05
-0.000171879
-2.49813e-05
-0.00011354
-5.64715e-06
-5.7743e-05
-1.27063e-05
-1.08988e-05
4.71205e-05
-3.78242e-05
0.000125457
-7.62408e-05
0.000187222
-0.000122653
0.000233632
-0.000174402
0.00026659
-0.000229457
0.000287984
-0.000286218
0.000299351
-0.000343334
0.000301718
-0.000399563
0.000295585
-0.000453673
0.000281017
-0.000504372
0.000257812
-0.000550278
0.0002257
-0.000589904
0.000184544
-0.000621682
0.000134527
-0.000644015
7.63246e-05
-0.000655211
1.1253e-05
-0.000653982
-5.87506e-05
-0.000639042
-0.000130787
-0.000609698
-0.000201263
-0.00056594
-0.000265873
-0.000508693
-0.000319839
-0.000440033
-0.000358324
-0.000363298
-0.00037704
-0.000283004
-0.000373013
-0.00020452
-0.000345411
-0.000133441
-0.000296226
-7.4787e-05
-0.000230534
-3.21977e-05
-0.00015613
-7.40066e-06
-8.254e-05
-2.0107e-05
-1.183e-05
5.89506e-05
-4.09568e-05
0.000154584
-8.24101e-05
0.000228675
-0.00013239
0.000283613
-0.000188047
0.000322247
-0.000247251
0.000347188
-0.000308375
0.000360475
-0.000370088
0.000363431
-0.000431198
0.000356694
-0.000490527
0.000340346
-0.000546831
0.000314116
-0.000598743
0.000277612
-0.000644749
0.000230549
-0.000683181
0.000172959
-0.000712238
0.000105382
-0.00073002
2.90351e-05
-0.000734713
-5.40573e-05
-0.000724606
-0.000140894
-0.000698392
-0.000227478
-0.000655424
-0.00030884
-0.00059605
-0.000379213
-0.000521939
-0.000432435
-0.000436354
-0.000462626
-0.000344214
-0.000465152
-0.000251846
-0.00043778
-0.000166295
-0.000381777
-9.42901e-05
-0.000302539
-4.10858e-05
-0.000209334
-9.59639e-06
-0.000114029
-2.97034e-05
-1.25319e-05
7.14825e-05
-4.33425e-05
0.000185395
-8.71504e-05
0.000272483
-0.000139934
0.000336396
-0.0001987
0.000381013
-0.000261255
0.000409743
-0.000325966
0.000425185
-0.000391545
0.000429011
-0.000456875
0.000422024
-0.000520866
0.000404337
-0.000582359
0.000375609
-0.000640051
0.000335303
-0.000692445
0.000282943
-0.000737829
0.000218343
-0.000774268
0.000141821
-0.000799638
5.44048e-05
-0.000811713
-4.19824e-05
-0.00080828
-0.000144326
-0.000787368
-0.00024839
-0.000747555
-0.000348652
-0.000688377
-0.000438391
-0.000610799
-0.000510014
-0.000517674
-0.000555751
-0.00041405
-0.000568775
-0.000307097
-0.000544733
-0.000205457
-0.000483417
-0.000117973
-0.000390023
-5.20683e-05
-0.000275238
-1.23702e-05
-0.000153727
-4.20736e-05
-1.29723e-05
8.44548e-05
-4.48829e-05
0.000217305
-9.02723e-05
0.000317873
-0.000144976
0.0003911
-0.000205907
0.000441944
-0.000270828
0.000474665
-0.00033812
0.000492477
-0.000406554
0.000497444
-0.000475106
0.000490576
-0.000542806
0.000472037
-0.000608617
0.00044142
-0.00067135
0.000398036
-0.000729593
0.000341186
-0.000781665
0.000270415
-0.000825588
0.000185745
-0.000859089
8.79056e-05
-0.000879641
-2.14299e-05
-0.000884571
-0.000139397
-0.000871239
-0.000261722
-0.000837353
-0.000382538
-0.000781426
-0.000494318
-0.000703369
-0.000588071
-0.000605185
-0.000653935
-0.000491585
-0.000682375
-0.00037026
-0.000666058
-0.000251431
-0.000602246
-0.000146436
-0.000495018
-6.55538e-05
-0.000356121
-1.58631e-05
-0.000203418
-5.79367e-05
-1.31274e-05
9.75822e-05
-4.55059e-05
0.000249684
-9.16317e-05
0.000363998
-0.000147272
0.00044674
-0.000209281
0.000503952
-0.000275397
0.000540781
-0.00034402
0.000561099
-0.000413989
0.000567413
-0.000484389
0.000560977
-0.000554391
0.000542039
-0.000623119
0.000510149
-0.000689553
0.00046447
-0.000752439
0.000404072
-0.000810226
0.000328202
-0.000861013
0.000236531
-0.000902512
0.000129405
-0.000932044
8.10239e-06
-0.000946607
-0.000124834
-0.000942974
-0.000265356
-0.000917976
-0.000407535
-0.000868951
-0.000543344
-0.000794421
-0.000662601
-0.000695009
-0.000753347
-0.000574443
-0.000802941
-0.000440333
-0.000800168
-0.000304185
-0.000738394
-0.000180075
-0.000619128
-8.19089e-05
-0.000454286
-2.02191e-05
-0.000265108
-7.81558e-05
-1.299e-05
0.000110572
-4.51886e-05
0.000281882
-9.11703e-05
0.00040998
-0.000146694
0.000502265
-0.00020858
0.000565838
-0.000274548
0.000606749
-0.000343019
0.00062957
-0.0004129
0.000637294
-0.000483395
0.000631471
-0.000553832
0.000612476
-0.000623534
0.00057985
-0.0006917
0.000532635
-0.000757314
0.000469687
-0.000819064
0.000389952
-0.000875262
0.000292729
-0.000923779
0.000177922
-0.000961991
4.63143e-05
-0.000986751
-0.000100074
-0.000994443
-0.000257664
-0.000981127
-0.000420851
-0.000942934
-0.000581538
-0.000876748
-0.000728786
-0.000781285
-0.00084881
-0.000658494
-0.000925731
-0.000515001
-0.000943661
-0.000362903
-0.000890493
-0.000218944
-0.000763087
-0.000101416
-0.000571815
-2.55811e-05
-0.000340943
-0.000103737
-1.25771e-05
0.000123149
-4.39814e-05
0.000313287
-8.8959e-05
0.000454958
-0.000143296
0.000556602
-0.000203788
0.00062633
-0.000268135
0.000671096
-0.000334774
0.000696209
-0.000402682
0.000705202
-0.000471182
0.000699971
-0.00053978
0.000681074
-0.000608023
0.000648093
-0.000675381
0.000599994
-0.000741152
0.000535458
-0.000804364
0.000453164
-0.000863688
0.000352053
-0.000917338
0.000231572
-0.000962965
9.19417e-05
-0.000997538
-6.55017e-05
-0.00101734
-0.000237865
-0.00101788
-0.000420302
-0.000994242
-0.000605181
-0.000941578
-0.000781451
-0.000856289
-0.000934098
-0.000737727
-0.00104429
-0.000590365
-0.00109102
-0.000425716
-0.00105514
-0.000262599
-0.000926204
-0.000124216
-0.000710197
-3.20828e-05
-0.000433077
-0.00013582
-1.1939e-05
0.000135088
-4.20344e-05
0.000343382
-8.52429e-05
0.000498166
-0.000137377
0.000608736
-0.000195197
0.00068415
-0.000256378
0.000732278
-0.000319373
0.000759204
-0.000383227
0.000769056
-0.000447396
0.00076414
-0.000511576
0.000745254
-0.000575565
0.000712082
-0.000639149
0.000663578
-0.000701998
0.000598306
-0.000763573
0.00051474
-0.000823028
0.000411507
-0.000879086
0.00028763
-0.000929903
0.000142759
-0.000972822
-2.25828e-05
-0.00100438
-0.000206307
-0.00101991
-0.000404773
-0.00101372
-0.000611366
-0.000979446
-0.000815728
-0.000910994
-0.00100255
-0.000804444
-0.00115084
-0.000660846
-0.00123462
-0.000489477
-0.00122651
-0.000309909
-0.00110577
-0.000150236
-0.000869871
-3.98384e-05
-0.000543474
-0.000175658
-1.1168e-05
0.000146256
-3.96244e-05
0.000371838
-8.04878e-05
0.00053903
-0.00012954
0.000657788
-0.00018348
0.00073809
-0.000239951
0.000788748
-0.000297429
0.000816682
-0.000355048
0.000826675
-0.000412414
0.000821505
-0.000469436
0.000802276
-0.000526192
0.000768839
-0.000582816
0.000720201
-0.000639396
0.000654887
-0.00069589
0.000571233
-0.000752019
0.000467637
-0.000807143
0.000342754
-0.000860087
0.000195703
-0.000908902
2.62322e-05
-0.000950588
-0.000164621
-0.000980799
-0.000374563
-0.000993585
-0.00059858
-0.000981463
-0.00082785
-0.000936069
-0.00104794
-0.000849876
-0.00123704
-0.000719377
-0.00136512
-0.000549662
-0.00139623
-0.000358898
-0.00129653
-0.00017911
-0.00104966
-4.89331e-05
-0.000673651
-0.000224591
-1.04104e-05
0.000156667
-3.71879e-05
0.000398616
-7.54297e-05
0.000577271
-0.000120756
0.000703115
-0.000169751
0.000787085
-0.000220033
0.00083903
-0.000270137
0.000866786
-0.000319329
0.000875867
-0.000367406
0.000869582
-0.000414529
0.000849399
-0.000461085
0.000815395
-0.000507581
0.000766697
-0.000554552
0.000701858
-0.000602481
0.000619162
-0.000651699
0.000516855
-0.000702263
0.000393318
-0.000753773
0.000247213
-0.000805163
7.76225e-05
-0.000854191
-0.000115594
-0.000897254
-0.000331499
-0.000928731
-0.000567103
-0.000940718
-0.000815863
-0.000923179
-0.00106548
-0.000865176
-0.00129504
-0.000757956
-0.00147234
-0.000600486
-0.0015537
-0.000406646
-0.00149037
-0.00021012
-0.00124618
-5.94247e-05
-0.000824346
-0.000284016
-9.88547e-06
0.000166552
-3.53675e-05
0.000424098
-7.11346e-05
0.000613039
-0.000112412
0.000744393
-0.000155601
0.000830274
-0.000198327
0.000881756
-0.000239265
0.000907724
-0.000277896
0.000914498
-0.000314286
0.000905971
-0.000348899
0.000884013
-0.000382472
0.000848968
-0.000415906
0.000800131
-0.00045019
0.000736142
-0.000486327
0.000655298
-0.000525248
0.000555776
-0.000567702
0.000435773
-0.000614091
0.000293602
-0.000664236
0.000127768
-0.000716946
-6.28842e-05
-0.000769647
-0.000278798
-0.000817628
-0.000519122
-0.000853402
-0.00078009
-0.000866237
-0.00105265
-0.000842583
-0.00131869
-0.000768472
-0.00154645
-0.000635269
-0.0016869
-0.000449301
-0.00167634
-0.000242157
-0.00145333
-7.13665e-05
-0.000995137
-0.000355382
-9.92203e-06
0.000176474
-3.50872e-05
0.000449263
-6.90812e-05
0.000647033
-0.000106373
0.000781685
-0.000143114
0.000867014
-0.000177027
0.000915669
-0.000207072
0.000937769
-0.000233091
0.000940517
-0.000255527
0.000928408
-0.000275234
0.00090372
-0.000293337
0.000867071
-0.000311148
0.000817942
-0.000330098
0.000755091
-0.000351673
0.000676874
-0.000377352
0.000581455
-0.000408508
0.000466929
-0.000446274
0.000331367
-0.000491339
0.000172833
-0.000543582
-1.06403e-05
-0.000601686
-0.000220695
-0.000662308
-0.000458499
-0.000719208
-0.000723191
-0.000762164
-0.00100969
-0.00077638
-0.00130448
-0.00074358
-0.00157925
-0.000646955
-0.00178352
-0.000482198
-0.0018411
-0.000273705
-0.00166182
-8.4866e-05
-0.00118398
-0.000440248
-1.10309e-05
0.000187505
-3.76816e-05
0.000475914
-7.12785e-05
0.00068063
-0.000105036
0.000815442
-0.000134835
0.000896813
-0.000158697
0.000939531
-0.000176109
0.000955181
-0.000187487
0.000951895
-0.000193815
0.000934735
-0.000196426
0.00090633
-0.000196885
0.00086753
-0.000196918
0.000817976
-0.000198364
0.000756537
-0.000203133
0.000681643
-0.00021316
0.000591481
-0.000230331
0.0004841
-0.000256386
0.000357423
-0.00029276
0.000209207
-0.000340373
3.69726e-05
-0.000399114
-0.000161954
-0.000467344
-0.000390269
-0.000540731
-0.000649804
-0.00061079
-0.000939632
-0.000663231
-0.00125204
-0.000677266
-0.00156522
-0.000628567
-0.00183222
-0.000499986
-0.00196968
-0.000302805
-0.001859
-0.000100174
-0.00138661
-0.000540423
-1.40454e-05
0.000201551
-4.51104e-05
0.000506979
-8.04167e-05
0.000715936
-0.000111336
0.000846362
-0.00013362
0.000919098
-0.000145973
0.000951884
-0.000148794
0.000958002
-0.000143367
0.000946468
-0.000131405
0.000922774
-0.000114832
0.000889757
-9.56856e-05
0.000848383
-7.60964e-05
0.000798387
-5.82539e-05
0.000738695
-4.44093e-05
0.000667799
-3.68407e-05
0.000583913
-3.78124e-05
0.000485071
-4.95192e-05
0.00036913
-7.39995e-05
0.000233687
-0.000112985
7.59585e-05
-0.000167603
-0.000107336
-0.000237893
-0.00031998
-0.000321857
-0.000565839
-0.000413757
-0.000847732
-0.000501662
-0.00116413
-0.000564779
-0.0015021
-0.000573308
-0.00182369
-0.000496577
-0.00204641
-0.000326876
-0.0020287
-0.000117763
-0.00159572
-0.000658186
-2.03866e-05
0.000221937
-6.02745e-05
0.000546867
-9.99767e-05
0.000755638
-0.000128547
0.000874932
-0.000142132
0.000932683
-0.00014081
0.000950561
-0.000126452
0.000943645
-0.000101583
0.000921598
-6.88529e-05
0.000890044
-3.08689e-05
0.000851774
9.84618e-06
0.000807668
5.08299e-05
0.000757403
8.95987e-05
0.000699926
0.000123671
0.000633727
0.000150543
0.000557041
0.000167694
0.000467919
0.000172612
0.000364212
0.000162821
0.000243478
0.000135939
0.000102841
8.98039e-05
-6.12014e-05
2.28101e-05
-0.000252986
-6.5411e-05
-0.000477618
-0.000172553
-0.000740591
-0.000290662
-0.00104602
-0.000401762
-0.001391
-0.00047403
-0.00175143
-0.00046464
-0.0020558
-0.000342176
-0.00215117
-0.000138234
-0.00179966
-0.00079642
-3.25293e-05
0.000254466
-8.73601e-05
0.000601697
-0.000133987
0.000802265
-0.000159359
0.000900303
-0.000161331
0.000934655
-0.000142515
0.000931745
-0.000107014
0.000908144
-5.90069e-05
0.000873591
-2.27172e-06
0.000833309
5.98843e-05
0.000789618
0.000124488
0.000743065
0.000188789
0.000693101
0.000250167
0.000638549
0.000306026
0.000577867
0.000353763
0.000509304
0.000390735
0.000430948
0.000414236
0.00034071
0.000421481
0.000236234
0.000409577
0.000114745
0.000375518
-2.71424e-05
0.000316392
-0.000193861
0.000229569
-0.000390795
0.000113944
-0.000624965
-2.74946e-05
-0.000904583
-0.000182604
-0.00123589
-0.000321921
-0.00161211
-0.000394355
-0.00198337
-0.000342523
-0.002203
-0.000161709
-0.00198048
-0.000958129
-5.47318e-05
0.000309198
-0.00013179
0.000678756
-0.000185408
0.000855884
-0.000202789
0.000917684
-0.00018627
0.000918135
-0.000142774
0.00088825
-7.95512e-05
0.000844921
-2.80142e-06
0.000796842
8.25167e-05
0.000747991
0.000172441
0.000699693
0.000263714
0.000651792
0.000353496
0.000603319
0.000439166
0.000552879
0.00051818
0.000498853
0.000587982
0.000439503
0.000645927
0.000373002
0.000689236
0.000297402
0.000714922
0.000210548
0.000719712
0.000109955
0.000699868
-7.29835e-06
0.000651564
-0.000145556
0.000570291
-0.000309523
0.000451832
-0.000506506
0.000293961
-0.000746712
0.00010147
-0.0010434
-0.000104018
-0.00140662
-0.000270944
-0.00181644
-0.000316595
-0.00215735
-0.000186003
-0.00211107
-0.00114413
-9.37653e-05
0.000402963
-0.000198044
0.000783034
-0.000249994
0.000907834
-0.000245067
0.000912757
-0.000195196
0.000868265
-0.000113927
0.00080698
-1.24031e-05
0.000743397
0.00010115
0.000683288
0.000220881
0.00062826
0.000342585
0.000577989
0.000463085
0.000531292
0.000579779
0.000486625
0.000690338
0.00044232
0.000792505
0.000396686
0.000883958
0.000348049
0.00096222
0.00029474
0.00102457
0.00023505
0.00106796
0.000167155
0.00108892
8.89971e-05
0.00108302
-1.39772e-06
0.00104606
-0.000108594
0.000972
-0.000235464
0.000854327
-0.000388834
0.000686338
-0.000578723
0.00046442
-0.000821481
0.000198175
-0.00114038
-6.88555e-05
-0.00154941
-0.000242854
-0.00198335
-0.00020346
-0.00215046
-0.00134759
-0.000157757
0.00056072
-0.000278165
0.000903443
-0.000296163
0.000925831
-0.000235222
0.000851816
-0.000124299
0.000757342
1.50151e-05
0.000667666
0.000168453
0.000589959
0.000327087
0.000524654
0.000485462
0.000469886
0.000640185
0.000423266
0.000788981
0.000382496
0.000930105
0.000345501
0.00106198
0.000310444
0.00118298
0.000275682
0.0012913
0.000239729
0.00138485
0.000201199
0.00146115
0.00015875
0.00151729
0.000111013
0.00154974
5.65408e-05
0.00155427
-5.92047e-06
0.00152572
-8.00444e-05
0.00145769
-0.00016744
0.00134221
-0.000273351
0.00116943
-0.000405944
0.000928451
-0.0005805
0.000613537
-0.000825462
0.000246447
-0.00118232
-8.00748e-05
-0.00165683
-0.000194557
-0.00203598
-0.00154215
-0.000243392
0.000804112
-0.000302939
0.00096299
-0.000205116
0.000828008
-2.78203e-05
0.000674521
0.000180374
0.000549148
0.000395822
0.000452218
0.000607023
0.000378758
0.000808662
0.000323015
0.00099862
0.000279927
0.00117625
0.000245636
0.00134144
0.000217311
0.0014941
0.000192839
0.00163395
0.000170588
0.00176038
0.000149253
0.00187236
0.000127753
0.0019684
0.000105156
0.00204654
8.06174e-05
0.00210422
5.33298e-05
0.00213825
2.25104e-05
0.00214509
-1.27581e-05
0.00211912
-5.4076e-05
0.00205433
-0.00010265
0.00194242
-0.000161441
0.00177211
-0.000235631
0.0015276
-0.000335995
0.00118866
-0.000486523
0.000744463
-0.000738122
0.000252342
-0.00116471
-8.17207e-05
-0.00170192
-0.00162387
-0.000193491
0.000997603
1.99729e-05
0.000749526
0.000374818
0.000473164
0.000715176
0.000334162
0.00101958
0.000244747
0.00128791
0.000183881
0.00152378
0.000142893
0.00173179
0.000115004
0.00191638
9.5334e-05
0.00208121
8.081e-05
0.00222899
6.95258e-05
0.0023616
6.0237e-05
0.0024801
5.20868e-05
0.00258489
4.44578e-05
0.00267576
3.68842e-05
0.00275192
2.89956e-05
0.00281206
2.04823e-05
0.00285428
1.11046e-05
0.00287587
9.19078e-07
0.00287487
-1.17513e-05
0.0028461
-2.53138e-05
0.00278495
-4.14961e-05
0.00268446
-6.0952e-05
0.00253437
-8.55369e-05
0.00231793
-0.00011956
0.00200588
-0.000174466
0.00155121
-0.000283452
0.00092701
-0.000540511
0.00026364
-0.00103855
-0.00136023
0.000997603
0.00174713
0.00222029
0.00255445
0.0027992
0.00298308
0.00312598
0.00324098
0.00333631
0.00341712
0.00348665
0.00354689
0.00359897
0.00364343
0.00368032
0.00370931
0.00372979
0.0037409
0.00374182
0.00373007
0.00370475
0.00366326
0.0036023
0.00351677
0.00339721
0.00322274
0.00293929
0.00239878
0.00136023
)
;

boundaryField
{
    movingWall
    {
        type            calculated;
        value           uniform 0;
    }
    fixedWalls
    {
        type            calculated;
        value           uniform 0;
    }
    frontAndBack
    {
        type            empty;
        value           nonuniform 0();
    }
}


// ************************************************************************* //
