/*--------------------------------*- C++ -*----------------------------------*\
  =========                 |
  \\      /  F ield         | OpenFOAM: The Open Source CFD Toolbox
   \\    /   O peration     | Website:  https://openfoam.org
    \\  /    A nd           | Version:  7
     \\/     M anipulation  |
\*---------------------------------------------------------------------------*/
FoamFile
{
    version     2.0;
    format      ascii;
    class       volVectorField;
    location    "6";
    object      U;
}
// * * * * * * * * * * * * * * * * * * * * * * * * * * * * * * * * * * * * * //

dimensions      [0 1 -1 0 0 0 0];

internalField   nonuniform List<vector> 
900
(
(0.00014616 -0.000145215 0)
(0.000245597 -5.36147e-05 0)
(-8.02793e-05 0.000102687 0)
(-0.000829125 0.000239098 0)
(-0.00191039 0.000336639 0)
(-0.00322757 0.000398421 0)
(-0.00469288 0.000433243 0)
(-0.00623453 0.000448713 0)
(-0.00779367 0.000449212 0)
(-0.00931766 0.000436008 0)
(-0.010754 0.000408088 0)
(-0.0120468 0.0003632 0)
(-0.0131351 0.000298947 0)
(-0.0139552 0.000213841 0)
(-0.0144449 0.000108268 0)
(-0.0145497 -1.48014e-05 0)
(-0.0142305 -0.00014975 0)
(-0.0134723 -0.000287347 0)
(-0.0122911 -0.00041606 0)
(-0.0107386 -0.000523001 0)
(-0.00890346 -0.00059552 0)
(-0.00690669 -0.000623159 0)
(-0.00489273 -0.000599509 0)
(-0.00301554 -0.000523619 0)
(-0.00142097 -0.000400691 0)
(-0.000227216 -0.000242901 0)
(0.000483209 -7.06597e-05 0)
(0.000695759 9.4737e-05 0)
(0.000500258 0.000198103 0)
(0.000159192 0.000158077 0)
(6.0956e-05 -0.000252063 0)
(-0.000322485 0.000320632 0)
(-0.00169065 0.00109735 0)
(-0.00394901 0.00178888 0)
(-0.00693867 0.00231563 0)
(-0.0104709 0.00267334 0)
(-0.0143558 0.00288411 0)
(-0.0184208 0.00297202 0)
(-0.0225113 0.00295269 0)
(-0.0264816 0.00283134 0)
(-0.0301869 0.00260508 0)
(-0.0334781 0.00226701 0)
(-0.0362016 0.00181117 0)
(-0.0382043 0.00123736 0)
(-0.0393445 0.00055533 0)
(-0.0395056 -0.000212164 0)
(-0.0386119 -0.00102756 0)
(-0.0366447 -0.00183941 0)
(-0.0336573 -0.00258576 0)
(-0.0297815 -0.0031998 0)
(-0.0252278 -0.00361791 0)
(-0.0202756 -0.00378887 0)
(-0.0152528 -0.0036828 0)
(-0.0105058 -0.0032983 0)
(-0.00636263 -0.00266649 0)
(-0.00309175 -0.00185319 0)
(-0.000864602 -0.000960817 0)
(0.00027931 -0.000120977 0)
(0.000497489 0.000465068 0)
(0.000205035 0.000497261 0)
(-0.000108754 7.75525e-05 0)
(-0.00118895 0.0017079 0)
(-0.00380325 0.00360262 0)
(-0.00763696 0.00527856 0)
(-0.012449 0.0065803 0)
(-0.0179912 0.00748364 0)
(-0.0240062 0.00801879 0)
(-0.0302508 0.00822623 0)
(-0.0364978 0.00813427 0)
(-0.0425282 0.00775293 0)
(-0.0481228 0.00707761 0)
(-0.0530591 0.00609767 0)
(-0.0571124 0.00480727 0)
(-0.0600651 0.00321617 0)
(-0.0617206 0.00135896 0)
(-0.0619219 -0.000698635 0)
(-0.0605718 -0.00285665 0)
(-0.057654 -0.00498467 0)
(-0.0532495 -0.00692936 0)
(-0.0475451 -0.00852838 0)
(-0.0408336 -0.00962891 0)
(-0.0335008 -0.0101088 0)
(-0.0259997 -0.00989759 0)
(-0.0188115 -0.00899354 0)
(-0.0123963 -0.00747447 0)
(-0.00713878 -0.00550153 0)
(-0.00329399 -0.0033188 0)
(-0.000938509 -0.00125042 0)
(7.53729e-05 0.000292515 0)
(0.000140394 0.000743777 0)
(-0.000285496 0.000912288 0)
(-0.00210746 0.00417528 0)
(-0.00603549 0.00755096 0)
(-0.0114697 0.0104646 0)
(-0.0180568 0.0127188 0)
(-0.0254897 0.0142823 0)
(-0.0334571 0.0151968 0)
(-0.0416635 0.0155179 0)
(-0.0498289 0.0152846 0)
(-0.0576796 0.0145101 0)
(-0.0649403 0.0131878 0)
(-0.0713321 0.0113049 0)
(-0.0765764 0.00886004 0)
(-0.0804057 0.00588045 0)
(-0.0825805 0.00243643 0)
(-0.0829106 -0.00134892 0)
(-0.0812775 -0.00529731 0)
(-0.0776579 -0.00917905 0)
(-0.0721425 -0.0127278 0)
(-0.0649476 -0.0156632 0)
(-0.0564167 -0.0177207 0)
(-0.0470087 -0.0186873 0)
(-0.0372707 -0.0184365 0)
(-0.0277945 -0.0169596 0)
(-0.0191588 -0.0143848 0)
(-0.0118639 -0.0109849 0)
(-0.0062637 -0.00717257 0)
(-0.00250367 -0.00348778 0)
(-0.000493218 -0.00058551 0)
(5.02381e-05 0.000715297 0)
(-0.000449809 0.0022408 0)
(-0.00299846 0.00773422 0)
(-0.00823277 0.0129429 0)
(-0.0152446 0.0173022 0)
(-0.0235514 0.0206292 0)
(-0.032783 0.0229146 0)
(-0.0425794 0.0242233 0)
(-0.0526047 0.0246298 0)
(-0.0625409 0.0241828 0)
(-0.0720756 0.022897 0)
(-0.0808932 0.0207627 0)
(-0.0886729 0.0177654 0)
(-0.095094 0.0139103 0)
(-0.099848 0.00924599 0)
(-0.102656 0.00388409 0)
(-0.103293 -0.0019882 0)
(-0.101607 -0.00810514 0)
(-0.0975511 -0.0141263 0)
(-0.0912019 -0.019658 0)
(-0.0827772 -0.0242838 0)
(-0.0726432 -0.0276066 0)
(-0.061308 -0.0292988 0)
(-0.049397 -0.029156 0)
(-0.0376081 -0.0271445 0)
(-0.0266475 -0.0234345 0)
(-0.0171518 -0.0184137 0)
(-0.00960445 -0.0126773 0)
(-0.00425616 -0.0069997 0)
(-0.00111056 -0.00229477 0)
(-3.75777e-05 0.000366462 0)
(-0.000598643 0.00403568 0)
(-0.00383349 0.0123526 0)
(-0.0103205 0.0197494 0)
(-0.0188477 0.0257551 0)
(-0.0287999 0.0302593 0)
(-0.0397415 0.0333105 0)
(-0.0512683 0.0350165 0)
(-0.0630123 0.0354781 0)
(-0.0746299 0.0347557 0)
(-0.0857833 0.0328646 0)
(-0.0961297 0.02979 0)
(-0.105319 0.025514 0)
(-0.112996 0.0200469 0)
(-0.118816 0.0134577 0)
(-0.12246 0.00589876 0)
(-0.123657 -0.00237837 0)
(-0.122209 -0.0110199 0)
(-0.118019 -0.0195673 0)
(-0.111122 -0.0274889 0)
(-0.101707 -0.0342143 0)
(-0.0901336 -0.039188 0)
(-0.0769379 -0.0419362 0)
(-0.0628134 -0.0421415 0)
(-0.0485697 -0.0397137 0)
(-0.0350624 -0.0348435 0)
(-0.0231009 -0.0280265 0)
(-0.0133421 -0.020051 0)
(-0.00618475 -0.0119484 0)
(-0.00176148 -0.00491837 0)
(-0.000118198 -0.000306576 0)
(-0.000732842 0.00626128 0)
(-0.00460105 0.0179667 0)
(-0.0122569 0.0278963 0)
(-0.0222055 0.0357427 0)
(-0.033705 0.0415228 0)
(-0.0462575 0.045381 0)
(-0.0594196 0.0474901 0)
(-0.0727996 0.0479887 0)
(-0.0860383 0.0469531 0)
(-0.0987844 0.0443985 0)
(-0.11068 0.0403026 0)
(-0.121353 0.0346399 0)
(-0.130426 0.0274206 0)
(-0.137516 0.018727 0)
(-0.142261 0.008745 0)
(-0.144336 -0.0022159 0)
(-0.143474 -0.013721 0)
(-0.139502 -0.0251918 0)
(-0.132384 -0.0359521 0)
(-0.122246 -0.0452595 0)
(-0.109407 -0.0523692 0)
(-0.0944047 -0.0566187 0)
(-0.0779885 -0.0575278 0)
(-0.0610857 -0.0548999 0)
(-0.0447286 -0.0489072 0)
(-0.0299458 -0.040135 0)
(-0.017625 -0.0295717 0)
(-0.0083675 -0.0185368 0)
(-0.00247557 -0.00856135 0)
(-0.00019726 -0.001318 0)
(-0.000852618 0.00887814 0)
(-0.00529194 0.0244941 0)
(-0.0140091 0.0372809 0)
(-0.0252566 0.0471546 0)
(-0.0381788 0.0543094 0)
(-0.0522225 0.0590217 0)
(-0.0669119 0.061553 0)
(-0.08184 0.062093 0)
(-0.0966417 0.0607389 0)
(-0.110963 0.0575068 0)
(-0.12444 0.052363 0)
(-0.136692 0.045268 0)
(-0.147321 0.0362223 0)
(-0.155913 0.0253096 0)
(-0.162055 0.0127327 0)
(-0.165365 -0.00115746 0)
(-0.165486 -0.015834 0)
(-0.162141 -0.0306313 0)
(-0.155195 -0.0447225 0)
(-0.144669 -0.0571745 0)
(-0.130805 -0.0670188 0)
(-0.114104 -0.073352 0)
(-0.0953474 -0.0754637 0)
(-0.0755775 -0.0729797 0)
(-0.0560274 -0.0659907 0)
(-0.0379965 -0.0551353 0)
(-0.0226734 -0.0416034 0)
(-0.0109333 -0.0270423 0)
(-0.00330538 -0.013382 0)
(-0.000284862 -0.00270687 0)
(-0.00095653 0.0118422 0)
(-0.00589389 0.031836 0)
(-0.015542 0.0477761 0)
(-0.0279375 0.0598535 0)
(-0.0421274 0.0684832 0)
(-0.0575132 0.0741069 0)
(-0.0735948 0.077098 0)
(-0.0899579 0.0777106 0)
(-0.106241 0.0760699 0)
(-0.122096 0.0721931 0)
(-0.137165 0.066032 0)
(-0.151069 0.0575248 0)
(-0.163396 0.0466501 0)
(-0.173709 0.0334772 0)
(-0.18155 0.018208 0)
(-0.186444 0.00121497 0)
(-0.187957 -0.0169237 0)
(-0.18571 -0.0354505 0)
(-0.179407 -0.0533955 0)
(-0.16893 -0.0696262 0)
(-0.154397 -0.0829183 0)
(-0.136224 -0.0920688 0)
(-0.115181 -0.0960549 0)
(-0.0924021 -0.0942264 0)
(-0.0693311 -0.0864989 0)
(-0.0475872 -0.0734991 0)
(-0.028742 -0.0566042 0)
(-0.0140377 -0.0378345 0)
(-0.00431468 -0.01961 0)
(-0.000392736 -0.00454451 0)
(-0.00104179 0.0151021 0)
(-0.00639119 0.0398752 0)
(-0.0168157 0.0592287 0)
(-0.0301779 0.0736716 0)
(-0.0454468 0.0838757 0)
(-0.0619883 0.0904776 0)
(-0.0792866 0.0939834 0)
(-0.0969278 0.0947259 0)
(-0.114561 0.0928652 0)
(-0.131856 0.0884219 0)
(-0.14847 0.0813293 0)
(-0.164033 0.0714949 0)
(-0.178135 0.0588617 0)
(-0.19032 0.0434657 0)
(-0.200089 0.0254867 0)
(-0.206908 0.00529131 0)
(-0.210239 -0.0165388 0)
(-0.209566 -0.0391581 0)
(-0.204441 -0.061474 0)
(-0.194566 -0.0821577 0)
(-0.179876 -0.0997054 0)
(-0.160638 -0.112558 0)
(-0.137542 -0.119286 0)
(-0.111762 -0.118839 0)
(-0.0849332 -0.110823 0)
(-0.0590286 -0.0957425 0)
(-0.0360905 -0.0751177 0)
(-0.0178476 -0.0513807 0)
(-0.00557314 -0.0275551 0)
(-0.000533436 -0.00693837 0)
(-0.00110491 0.0185972 0)
(-0.00676636 0.0484738 0)
(-0.0177881 0.0714576 0)
(-0.0319046 0.0884075 0)
(-0.0480264 0.10028 0)
(-0.0654938 0.107931 0)
(-0.0837822 0.112018 0)
(-0.102484 0.112967 0)
(-0.121267 0.11098 0)
(-0.139825 0.106085 0)
(-0.157842 0.0981936 0)
(-0.17497 0.0871758 0)
(-0.190812 0.0729252 0)
(-0.20491 0.0554242 0)
(-0.21674 0.0348021 0)
(-0.22572 0.011387 0)
(-0.231219 -0.0142474 0)
(-0.232594 -0.0412294 0)
(-0.229228 -0.0683725 0)
(-0.220614 -0.0941684 0)
(-0.206453 -0.116828 0)
(-0.186786 -0.134393 0)
(-0.162131 -0.144934 0)
(-0.133604 -0.146851 0)
(-0.10297 -0.139261 0)
(-0.0725568 -0.122373 0)
(-0.0449575 -0.0977468 0)
(-0.0225314 -0.0682404 0)
(-0.00715407 -0.0376107 0)
(-0.000720464 -0.0100341 0)
(-0.00114244 0.022257 0)
(-0.00700294 0.0574739 0)
(-0.01842 0.0842544 0)
(-0.0330487 0.103826 0)
(-0.0497598 0.117448 0)
(-0.067876 0.126214 0)
(-0.0868691 0.130949 0)
(-0.106342 0.132186 0)
(-0.125987 0.130181 0)
(-0.145526 0.12497 0)
(-0.164683 0.116447 0)
(-0.183142 0.104438 0)
(-0.200537 0.0887743 0)
(-0.216427 0.0693695 0)
(-0.23029 0.0462773 0)
(-0.241516 0.019756 0)
(-0.249414 -0.00967008 0)
(-0.253231 -0.0411476 0)
(-0.252193 -0.0734456 0)
(-0.24557 -0.10492 0)
(-0.232789 -0.133523 0)
(-0.213583 -0.156879 0)
(-0.18818 -0.172481 0)
(-0.157504 -0.178029 0)
(-0.123327 -0.171918 0)
(-0.0882705 -0.153809 0)
(-0.0555275 -0.125106 0)
(-0.028247 -0.0890462 0)
(-0.00913318 -0.0502509 0)
(-0.000968783 -0.0140173 0)
(-0.00115182 0.0260027 0)
(-0.00708903 0.0667003 0)
(-0.0186826 0.0973862 0)
(-0.0335568 0.119658 0)
(-0.0505597 0.135087 0)
(-0.0690013 0.145017 0)
(-0.0883525 0.150456 0)
(-0.108229 0.152054 0)
(-0.128348 0.150131 0)
(-0.148471 0.144745 0)
(-0.168362 0.13577 0)
(-0.187757 0.122988 0)
(-0.206335 0.106166 0)
(-0.2237 0.0851336 0)
(-0.239359 0.0598494 0)
(-0.252714 0.0304736 0)
(-0.263054 -0.00256118 0)
(-0.26956 -0.0384722 0)
(-0.27133 -0.0760476 0)
(-0.267428 -0.11358 0)
(-0.256986 -0.148822 0)
(-0.239361 -0.179017 0)
(-0.214369 -0.201042 0)
(-0.182567 -0.211756 0)
(-0.145538 -0.208575 0)
(-0.106055 -0.190265 0)
(-0.0678893 -0.157742 0)
(-0.0351278 -0.114468 0)
(-0.0115868 -0.0660225 0)
(-0.00129544 -0.0191148 0)
(-0.00113223 0.0297507 0)
(-0.00702132 0.0759676 0)
(-0.0185663 0.110604 0)
(-0.0334054 0.135611 0)
(-0.0503768 0.15287 0)
(-0.0687802 0.16398 0)
(-0.0880857 0.170145 0)
(-0.107922 0.172147 0)
(-0.128033 0.170384 0)
(-0.148219 0.164941 0)
(-0.168298 0.155684 0)
(-0.188065 0.142356 0)
(-0.207266 0.124658 0)
(-0.225573 0.102332 0)
(-0.24256 0.0752297 0)
(-0.257685 0.0433923 0)
(-0.27027 0.00712336 0)
(-0.279489 -0.0329187 0)
(-0.28437 -0.0756168 0)
(-0.283817 -0.119296 0)
(-0.27668 -0.161619 0)
(-0.26191 -0.199531 0)
(-0.238798 -0.22933 0)
(-0.207342 -0.246944 0)
(-0.168685 -0.248556 0)
(-0.125492 -0.231607 0)
(-0.0819805 -0.19603 0)
(-0.0432605 -0.145156 0)
(-0.0145886 -0.0855276 0)
(-0.00172015 -0.025595 0)
(-0.00108546 0.0334182 0)
(-0.00680937 0.085092 0)
(-0.0180904 0.123654 0)
(-0.0326154 0.151377 0)
(-0.0492205 0.170439 0)
(-0.0671939 0.182698 0)
(-0.0860035 0.189563 0)
(-0.10529 0.191963 0)
(-0.124824 0.190386 0)
(-0.144449 0.184962 0)
(-0.164041 0.17556 0)
(-0.183465 0.161894 0)
(-0.202552 0.143605 0)
(-0.221068 0.120354 0)
(-0.238688 0.0918864 0)
(-0.254974 0.0581097 0)
(-0.269338 0.0191735 0)
(-0.281017 -0.024436 0)
(-0.289048 -0.0717762 0)
(-0.292253 -0.121318 0)
(-0.289262 -0.170775 0)
(-0.278629 -0.216953 0)
(-0.259063 -0.255686 0)
(-0.229829 -0.281987 0)
(-0.191334 -0.290608 0)
(-0.145777 -0.277197 0)
(-0.0975206 -0.240021 0)
(-0.0526551 -0.181653 0)
(-0.0182041 -0.109394 0)
(-0.00226577 -0.033767 0)
(-0.00101687 0.0369316 0)
(-0.00648012 0.0939076 0)
(-0.017313 0.136299 0)
(-0.0312684 0.166653 0)
(-0.0471796 0.187426 0)
(-0.0643201 0.200735 0)
(-0.0821541 0.208206 0)
(-0.100334 0.210929 0)
(-0.118659 0.2095 0)
(-0.13702 0.204108 0)
(-0.155354 0.194643 0)
(-0.173609 0.180804 0)
(-0.191714 0.162191 0)
(-0.209549 0.138394 0)
(-0.226922 0.10906 0)
(-0.243537 0.0739671 0)
(-0.258957 0.0330999 0)
(-0.272548 -0.0132636 0)
(-0.283448 -0.0644323 0)
(-0.290498 -0.119129 0)
(-0.292209 -0.175286 0)
(-0.286821 -0.229783 0)
(-0.272468 -0.278211 0)
(-0.247578 -0.314812 0)
(-0.211543 -0.332846 0)
(-0.165657 -0.325745 0)
(-0.113943 -0.289277 0)
(-0.0632079 -0.224273 0)
(-0.0224829 -0.138227 0)
(-0.00295879 -0.0439764 0)
(-0.000936266 0.0402368 0)
(-0.0060827 0.102288 0)
(-0.0163419 0.148342 0)
(-0.0295215 0.181163 0)
(-0.0444415 0.203471 0)
(-0.0603553 0.217646 0)
(-0.0767246 0.225544 0)
(-0.0932176 0.228432 0)
(-0.109668 0.227032 0)
(-0.126018 0.221611 0)
(-0.142276 0.212098 0)
(-0.158478 0.198196 0)
(-0.174663 0.179484 0)
(-0.190841 0.1555 0)
(-0.206974 0.125813 0)
(-0.222937 0.0900865 0)
(-0.238483 0.048141 0)
(-0.253179 3.20438e-05 0)
(-0.266339 -0.0538488 0)
(-0.276929 -0.112574 0)
(-0.283486 -0.174463 0)
(-0.284073 -0.236711 0)
(-0.27636 -0.294978 0)
(-0.257931 -0.343038 0)
(-0.226976 -0.3728 0)
(-0.183434 -0.375221 0)
(-0.130342 -0.342701 0)
(-0.074661 -0.272957 0)
(-0.0274507 -0.17255 0)
(-0.00383046 -0.0565977 0)
(-0.000859337 0.0433133 0)
(-0.00569463 0.110172 0)
(-0.0153464 0.159653 0)
(-0.0276238 0.194682 0)
(-0.0413092 0.218243 0)
(-0.0556314 0.232995 0)
(-0.0700568 0.241039 0)
(-0.0842817 0.24384 0)
(-0.0981862 0.242265 0)
(-0.111777 0.236678 0)
(-0.12514 0.227062 0)
(-0.138411 0.213148 0)
(-0.151744 0.194511 0)
(-0.165289 0.170665 0)
(-0.179167 0.141121 0)
(-0.193442 0.105451 0)
(-0.208078 0.0633309 0)
(-0.222882 0.0145984 0)
(-0.237406 -0.0406585 0)
(-0.250844 -0.101941 0)
(-0.261903 -0.168086 0)
(-0.268662 -0.23685 0)
(-0.268521 -0.30432 0)
(-0.258364 -0.364249 0)
(-0.235133 -0.407592 0)
(-0.197058 -0.422872 0)
(-0.14546 -0.398397 0)
(-0.0865683 -0.327102 0)
(-0.0331043 -0.212712 0)
(-0.00491991 -0.0720265 0)
(-0.000810207 0.0461913 0)
(-0.00543131 0.117601 0)
(-0.0145738 0.170204 0)
(-0.0259335 0.207067 0)
(-0.038215 0.231466 0)
(-0.0506233 0.246373 0)
(-0.0626482 0.254167 0)
(-0.074039 0.256534 0)
(-0.0847462 0.254499 0)
(-0.0948581 0.248537 0)
(-0.104555 0.238705 0)
(-0.114077 0.224775 0)
(-0.123699 0.206341 0)
(-0.133709 0.18291 0)
(-0.144388 0.153966 0)
(-0.155983 0.119013 0)
(-0.168672 0.0776089 0)
(-0.182503 0.0294037 0)
(-0.197306 -0.0258052 0)
(-0.21258 -0.0879612 0)
(-0.227325 -0.156502 0)
(-0.239838 -0.229929 0)
(-0.247522 -0.305115 0)
(-0.246839 -0.376341 0)
(-0.233645 -0.434251 0)
(-0.204298 -0.465384 0)
(-0.157728 -0.453623 0)
(-0.098275 -0.385389 0)
(-0.0394138 -0.258792 0)
(-0.0062818 -0.0906726 0)
(-0.000827009 0.0489767 0)
(-0.00546313 0.124756 0)
(-0.0143734 0.180108 0)
(-0.0249393 0.218277 0)
(-0.035732 0.242923 0)
(-0.0459466 0.257407 0)
(-0.0551352 0.264428 0)
(-0.0631439 0.265915 0)
(-0.0700309 0.263064 0)
(-0.0759942 0.256469 0)
(-0.0813247 0.246268 0)
(-0.0863764 0.232284 0)
(-0.0915443 0.214144 0)
(-0.0972485 0.191366 0)
(-0.103916 0.163425 0)
(-0.11196 0.129785 0)
(-0.121748 0.0899205 0)
(-0.133557 0.04333 0)
(-0.147492 -0.0104414 0)
(-0.163384 -0.0717409 0)
(-0.180617 -0.140603 0)
(-0.197885 -0.216379 0)
(-0.212893 -0.297009 0)
(-0.222068 -0.377852 0)
(-0.220553 -0.450087 0)
(-0.202956 -0.49917 0)
(-0.165347 -0.504852 0)
(-0.108912 -0.445644 0)
(-0.0463348 -0.310477 0)
(-0.0080023 -0.112967 0)
(-0.000974084 0.0518912 0)
(-0.00604759 0.132021 0)
(-0.0152357 0.189655 0)
(-0.0252874 0.228388 0)
(-0.0345775 0.252461 0)
(-0.042336 0.26575 0)
(-0.048248 0.271336 0)
(-0.0523246 0.271408 0)
(-0.0547855 0.267336 0)
(-0.0559748 0.259824 0)
(-0.056314 0.249086 0)
(-0.0562774 0.235001 0)
(-0.0563767 0.217229 0)
(-0.0571492 0.195312 0)
(-0.0591466 0.168726 0)
(-0.0629188 0.136915 0)
(-0.0689905 0.0993013 0)
(-0.0778277 0.0552751 0)
(-0.0897845 0.00418961 0)
(-0.105009 -0.0546215 0)
(-0.123299 -0.121724 0)
(-0.14388 -0.197297 0)
(-0.165019 -0.280492 0)
(-0.183551 -0.368205 0)
(-0.194456 -0.453061 0)
(-0.191032 -0.52074 0)
(-0.166383 -0.547961 0)
(-0.117385 -0.504739 0)
(-0.0538227 -0.366919 0)
(-0.0102271 -0.139391 0)
(-0.00136781 0.0553407 0)
(-0.00758821 0.140053 0)
(-0.0178502 0.199345 0)
(-0.0278069 0.23758 0)
(-0.0355934 0.259951 0)
(-0.0405803 0.271041 0)
(-0.0427062 0.274383 0)
(-0.0422458 0.272432 0)
(-0.0396504 0.266706 0)
(-0.0354514 0.257999 0)
(-0.0302198 0.246579 0)
(-0.0245533 0.232363 0)
(-0.0190693 0.215041 0)
(-0.0144019 0.194173 0)
(-0.0111989 0.169247 0)
(-0.0101126 0.1397 0)
(-0.0117853 0.104924 0)
(-0.0168283 0.0642432 0)
(-0.0257905 0.0168898 0)
(-0.0391003 -0.0380176 0)
(-0.0569629 -0.101447 0)
(-0.0791744 -0.174272 0)
(-0.104755 -0.256819 0)
(-0.131348 -0.347773 0)
(-0.154435 -0.44203 0)
(-0.166743 -0.527057 0)
(-0.158777 -0.578482 0)
(-0.122325 -0.558548 0)
(-0.0618165 -0.426549 0)
(-0.0131995 -0.170536 0)
(-0.00222884 0.0600421 0)
(-0.010736 0.149886 0)
(-0.0231765 0.209885 0)
(-0.0334998 0.246069 0)
(-0.0396434 0.265194 0)
(-0.0413395 0.272809 0)
(-0.0389707 0.272959 0)
(-0.0332088 0.268331 0)
(-0.0248162 0.260537 0)
(-0.0145528 0.250401 0)
(-0.00315049 0.238203 0)
(0.00867523 0.223869 0)
(0.0202194 0.207102 0)
(0.0307793 0.187473 0)
(0.0396424 0.164478 0)
(0.0460913 0.137555 0)
(0.0494066 0.106085 0)
(0.0488745 0.0693688 0)
(0.0437975 0.0265807 0)
(0.0335166 -0.0232734 0)
(0.017474 -0.0813966 0)
(-0.00467964 -0.149139 0)
(-0.0327893 -0.227779 0)
(-0.0656044 -0.317776 0)
(-0.0997404 -0.416839 0)
(-0.128345 -0.515792 0)
(-0.140215 -0.591861 0)
(-0.121913 -0.601922 0)
(-0.0701146 -0.486789 0)
(-0.0172848 -0.207174 0)
(-0.00398206 0.0672576 0)
(-0.0165446 0.16304 0)
(-0.0324748 0.2221 0)
(-0.0433747 0.253914 0)
(-0.0472601 0.267709 0)
(-0.0446413 0.270288 0)
(-0.0366283 0.266196 0)
(-0.0244509 0.258253 0)
(-0.00926189 0.248048 0)
(0.00792237 0.236344 0)
(0.0262103 0.223366 0)
(0.0447937 0.209003 0)
(0.0629101 0.192946 0)
(0.0798194 0.174761 0)
(0.0947827 0.153949 0)
(0.107053 0.129955 0)
(0.115869 0.102171 0)
(0.12045 0.0699012 0)
(0.119989 0.0323269 0)
(0.11364 -0.0115592 0)
(0.100557 -0.0630394 0)
(0.0799185 -0.123681 0)
(0.0510937 -0.195375 0)
(0.0141063 -0.280028 0)
(-0.0292864 -0.378245 0)
(-0.0737401 -0.485488 0)
(-0.10779 -0.583682 0)
(-0.113505 -0.628632 0)
(-0.0779976 -0.543539 0)
(-0.0228949 -0.250186 0)
(-0.00742909 0.0792189 0)
(-0.0266495 0.181552 0)
(-0.0470917 0.236596 0)
(-0.0577617 0.260554 0)
(-0.0575787 0.2663 0)
(-0.0485481 0.262051 0)
(-0.0328827 0.252684 0)
(-0.0125339 0.240923 0)
(0.0109038 0.228149 0)
(0.0361692 0.214923 0)
(0.0622488 0.201327 0)
(0.0882856 0.18716 0)
(0.113511 0.17206 0)
(0.137195 0.155581 0)
(0.158615 0.137222 0)
(0.177034 0.116449 0)
(0.191683 0.0926777 0)
(0.201745 0.0652578 0)
(0.206335 0.033427 0)
(0.204452 -0.00374808 0)
(0.195035 -0.0474933 0)
(0.176891 -0.0993537 0)
(0.148728 -0.161447 0)
(0.109456 -0.236579 0)
(0.058966 -0.327801 0)
(9.09096e-05 -0.435739 0)
(-0.0573733 -0.549973 0)
(-0.0928619 -0.631299 0)
(-0.0833689 -0.590365 0)
(-0.0301104 -0.300215 0)
(-0.0139596 0.0998053 0)
(-0.0432145 0.207616 0)
(-0.0672859 0.252813 0)
(-0.0740669 0.263819 0)
(-0.0654047 0.25823 0)
(-0.0458674 0.245405 0)
(-0.0191431 0.230058 0)
(0.0120298 0.214399 0)
(0.04568 0.19931 0)
(0.080409 0.184977 0)
(0.115194 0.17123 0)
(0.149234 0.157718 0)
(0.181839 0.144007 0)
(0.212368 0.129623 0)
(0.240174 0.114075 0)
(0.264579 0.096858 0)
(0.284847 0.0774438 0)
(0.300165 0.0552566 0)
(0.309612 0.0296374 0)
(0.31206 -0.000213851 0)
(0.30632 -0.0352954 0)
(0.290928 -0.0770032 0)
(0.264113 -0.127333 0)
(0.223913 -0.189327 0)
(0.16852 -0.26756 0)
(0.0977252 -0.367298 0)
(0.0173922 -0.487776 0)
(-0.0527146 -0.60152 0)
(-0.0812419 -0.617668 0)
(-0.0376901 -0.357541 0)
(-0.0253981 0.135524 0)
(-0.0673285 0.241314 0)
(-0.087539 0.266129 0)
(-0.0801259 0.257534 0)
(-0.0539222 0.237591 0)
(-0.0170135 0.215451 0)
(0.0255383 0.194577 0)
(0.0705771 0.175994 0)
(0.116151 0.159721 0)
(0.161063 0.145385 0)
(0.20455 0.132487 0)
(0.246068 0.120499 0)
(0.285163 0.108911 0)
(0.321389 0.0972362 0)
(0.354263 0.0850137 0)
(0.383236 0.0717986 0)
(0.407663 0.0571475 0)
(0.426785 0.0405962 0)
(0.439695 0.0216292 0)
(0.445274 -0.000374645 0)
(0.442253 -0.0260852 0)
(0.428971 -0.0566271 0)
(0.403429 -0.0936223 0)
(0.363123 -0.139758 0)
(0.304976 -0.199857 0)
(0.225838 -0.282077 0)
(0.126294 -0.395349 0)
(0.0195932 -0.530733 0)
(-0.0615448 -0.612114 0)
(-0.0409947 -0.421395 0)
(-0.0412093 0.197679 0)
(-0.090065 0.273157 0)
(-0.0798547 0.259387 0)
(-0.0366603 0.226001 0)
(0.0205704 0.192664 0)
(0.0821786 0.164246 0)
(0.143659 0.141279 0)
(0.202878 0.122948 0)
(0.258916 0.108192 0)
(0.311456 0.0960626 0)
(0.360433 0.0857833 0)
(0.405843 0.0767223 0)
(0.447648 0.0683583 0)
(0.485728 0.0602522 0)
(0.519851 0.0520244 0)
(0.549664 0.0433352 0)
(0.574676 0.0338674 0)
(0.594253 0.0233073 0)
(0.607574 0.0113202 0)
(0.613674 -0.00250362 0)
(0.611322 -0.0185474 0)
(0.598843 -0.0375113 0)
(0.574245 -0.0604729 0)
(0.534855 -0.0893326 0)
(0.476934 -0.127919 0)
(0.395191 -0.184367 0)
(0.284357 -0.273897 0)
(0.145411 -0.410587 0)
(-0.00370331 -0.553931 0)
(-0.0254692 -0.477394 0)
(-0.0340275 0.293959 0)
(-0.0476043 0.272958 0)
(0.0541811 0.199775 0)
(0.15723 0.149696 0)
(0.249884 0.114643 0)
(0.331644 0.0895648 0)
(0.40349 0.0717963 0)
(0.466671 0.0591186 0)
(0.522524 0.0498215 0)
(0.57224 0.0427454 0)
(0.616746 0.037122 0)
(0.656696 0.0324225 0)
(0.692505 0.0282654 0)
(0.724381 0.0243637 0)
(0.752346 0.0204922 0)
(0.776255 0.0164657 0)
(0.795807 0.0121233 0)
(0.810553 0.0073199 0)
(0.819825 0.00190914 0)
(0.822964 -0.00417886 0)
(0.818971 -0.0112801 0)
(0.806484 -0.0196449 0)
(0.783856 -0.0297259 0)
(0.748753 -0.0424432 0)
(0.69756 -0.059828 0)
(0.624184 -0.0869428 0)
(0.518391 -0.137285 0)
(0.365028 -0.240364 0)
(0.144039 -0.407003 0)
(0.0588339 -0.458305 0)
(0.303269 0.180941 0)
(0.382627 0.144339 0)
(0.560995 0.0911876 0)
(0.686856 0.059004 0)
(0.769517 0.0393251 0)
(0.829002 0.026795 0)
(0.874698 0.0188615 0)
(0.911007 0.0138517 0)
(0.940686 0.0106179 0)
(0.965585 0.00844275 0)
(0.986884 0.00689694 0)
(1.00531 0.00571985 0)
(1.02129 0.00474743 0)
(1.03504 0.00387236 0)
(1.04665 0.00302112 0)
(1.05607 0.00214049 0)
(1.06317 0.00118834 0)
(1.06774 0.000133429 0)
(1.06949 -0.00106193 0)
(1.06805 -0.00231085 0)
(1.06286 -0.00380944 0)
(1.05342 -0.00558651 0)
(1.03894 -0.00771278 0)
(1.01822 -0.0103928 0)
(0.989193 -0.0141217 0)
(0.947764 -0.0202385 0)
(0.884145 -0.0326306 0)
(0.776432 -0.0637953 0)
(0.544841 -0.139488 0)
(0.382491 -0.201746 0)
)
;

boundaryField
{
    movingWall
    {
        type            fixedValue;
        value           uniform (1.2 0 0);
    }
    fixedWalls
    {
        type            noSlip;
    }
    frontAndBack
    {
        type            empty;
    }
}


// ************************************************************************* //
