/*--------------------------------*- C++ -*----------------------------------*\
  =========                 |
  \\      /  F ield         | OpenFOAM: The Open Source CFD Toolbox
   \\    /   O peration     | Website:  https://openfoam.org
    \\  /    A nd           | Version:  7
     \\/     M anipulation  |
\*---------------------------------------------------------------------------*/
FoamFile
{
    version     2.0;
    format      ascii;
    class       surfaceScalarField;
    location    "1.3";
    object      phi;
}
// * * * * * * * * * * * * * * * * * * * * * * * * * * * * * * * * * * * * * //

dimensions      [0 3 -1 0 0 0 0];

internalField   nonuniform List<scalar> 
1740
(
2.57776e-07
-2.57796e-07
-4.13387e-07
6.71164e-07
-2.07814e-06
1.66476e-06
-4.4987e-06
2.42055e-06
-7.39986e-06
2.90115e-06
-1.05451e-05
3.14527e-06
-1.37527e-05
3.20763e-06
-1.68902e-05
3.13744e-06
-1.98612e-05
2.97101e-06
-2.25929e-05
2.7317e-06
-2.50255e-05
2.43265e-06
-2.71055e-05
2.08e-06
-2.87815e-05
1.67592e-06
-3.00026e-05
1.22118e-06
-3.07198e-05
7.17176e-07
-3.08874e-05
1.67582e-07
-3.04671e-05
-4.20329e-07
-2.94326e-05
-1.03444e-06
-2.77759e-05
-1.65677e-06
-2.55132e-05
-2.2627e-06
-2.26926e-05
-2.8206e-06
-1.94006e-05
-3.29199e-06
-1.57681e-05
-3.63247e-06
-1.19744e-05
-3.79368e-06
-8.24815e-06
-3.7263e-06
-4.86306e-06
-3.38509e-06
-2.12356e-06
-2.7395e-06
-3.27806e-07
-1.79576e-06
3.28676e-07
-6.56479e-07
3.28681e-07
-6.63904e-07
4.06107e-07
-3.35917e-06
3.36644e-06
-8.04378e-06
6.34937e-06
-1.42834e-05
8.66021e-06
-2.15683e-05
1.0186e-05
-2.94169e-05
1.09939e-05
-3.74231e-05
1.12138e-05
-4.52647e-05
1.09791e-05
-5.26916e-05
1.03978e-05
-5.95062e-05
9.5464e-06
-6.55463e-05
8.47267e-06
-7.06698e-05
7.20359e-06
-7.47473e-05
5.7534e-06
-7.76574e-05
4.13128e-06
-7.92881e-05
2.34783e-06
-7.95408e-05
4.20333e-07
-7.83388e-05
-1.62236e-06
-7.56364e-05
-3.73679e-06
-7.14329e-05
-5.86032e-06
-6.57857e-05
-7.90985e-06
-5.88259e-05
-9.78048e-06
-5.07711e-05
-1.13467e-05
-4.19368e-05
-1.24668e-05
-3.274e-05
-1.29906e-05
-2.36933e-05
-1.27729e-05
-1.53837e-05
-1.16948e-05
-8.42436e-06
-9.69881e-06
-3.37323e-06
-6.84688e-06
-6.11328e-07
-3.41837e-06
-2.82648e-07
-1.70372e-06
2.10983e-06
-6.51374e-06
8.17644e-06
-1.39624e-05
1.37981e-05
-2.34332e-05
1.8131e-05
-3.42564e-05
2.10092e-05
-4.58014e-05
2.25389e-05
-5.75236e-05
2.2936e-05
-6.89765e-05
2.24319e-05
-7.98022e-05
2.12235e-05
-8.97121e-05
1.94564e-05
-9.84666e-05
1.72272e-05
-0.000105858
1.45949e-05
-0.000111699
1.15946e-05
-0.000115819
8.25162e-06
-0.000118065
4.59328e-06
-0.000118304
6.59717e-07
-0.000116438
-3.48871e-06
-0.000112413
-7.76123e-06
-0.000106241
-1.20325e-05
-9.80137e-05
-1.61375e-05
-8.79242e-05
-1.98699e-05
-7.6285e-05
-2.2986e-05
-6.35383e-05
-2.52135e-05
-5.02588e-05
-2.62701e-05
-3.71407e-05
-2.5891e-05
-2.49634e-05
-2.38721e-05
-1.45302e-05
-2.0132e-05
-6.57669e-06
-1.48004e-05
-1.64746e-06
-8.3476e-06
-1.93012e-06
-2.59439e-06
4.70423e-06
-9.29051e-06
1.48726e-05
-1.91934e-05
2.3701e-05
-3.14436e-05
3.03811e-05
-4.52171e-05
3.47827e-05
-5.97689e-05
3.70908e-05
-7.44603e-05
3.76273e-05
-8.87633e-05
3.6735e-05
-0.00010225
3.47098e-05
-0.000114569
3.17759e-05
-0.000125429
2.80868e-05
-0.000134574
2.37403e-05
-0.000141778
1.87981e-05
-0.000146833
1.33065e-05
-0.000149554
7.31454e-06
-0.000149785
8.90651e-07
-0.000147408
-5.86548e-06
-0.000142363
-1.28064e-05
-0.000134665
-1.97308e-05
-0.000124427
-2.63747e-05
-0.000111887
-3.24102e-05
-9.74215e-05
-3.74515e-05
-8.15634e-05
-4.10716e-05
-6.50008e-05
-4.28327e-05
-4.85598e-05
-4.23321e-05
-3.31643e-05
-3.92675e-05
-1.97722e-05
-3.35241e-05
-9.29094e-06
-2.52817e-05
-2.49203e-06
-1.51465e-05
-4.42215e-06
-3.30646e-06
8.0107e-06
-1.16115e-05
2.31775e-05
-2.36416e-05
3.57312e-05
-3.82901e-05
4.50295e-05
-5.45757e-05
5.10683e-05
-7.16494e-05
5.41645e-05
-8.87987e-05
5.47767e-05
-0.00010544
5.33758e-05
-0.000121097
5.03673e-05
-0.000135382
4.60607e-05
-0.000147966
4.06711e-05
-0.000158564
3.43378e-05
-0.000166917
2.71513e-05
-0.00017279
1.91802e-05
-0.000175972
1.04965e-05
-0.00017628
1.19869e-06
-0.000173575
-8.57096e-06
-0.000167778
-1.8603e-05
-0.000158898
-2.86111e-05
-0.000147054
-3.82191e-05
-0.000132505
-4.69592e-05
-0.000115675
-5.42815e-05
-9.71671e-05
-5.95791e-05
-7.77662e-05
-6.22335e-05
-5.8417e-05
-6.16813e-05
-4.01823e-05
-5.75022e-05
-2.41774e-05
-4.9529e-05
-1.14927e-05
-3.79664e-05
-3.12776e-06
-2.35115e-05
-7.54992e-06
-3.87552e-06
1.18862e-05
-1.35444e-05
3.28464e-05
-2.74222e-05
4.9609e-05
-4.41718e-05
6.17791e-05
-6.26571e-05
6.95536e-05
-8.1929e-05
7.34364e-05
-0.00010121
7.40579e-05
-0.000119873
7.20389e-05
-0.000137413
6.79067e-05
-0.000153415
6.20626e-05
-0.000167529
5.47856e-05
-0.000179449
4.62572e-05
-0.000188892
3.65951e-05
-0.0001956
2.58876e-05
-0.00019933
1.42268e-05
-0.00019987
1.73829e-06
-0.000197046
-1.13944e-05
-0.000190751
-2.48986e-05
-0.000180965
-3.83967e-05
-0.000167795
-5.13888e-05
-0.000151506
-6.32484e-05
-0.000132552
-7.32353e-05
-0.0001116
-8.05314e-05
-8.95305e-05
-8.43032e-05
-6.74188e-05
-8.3793e-05
-4.64862e-05
-7.84348e-05
-2.80287e-05
-6.79865e-05
-1.3335e-05
-5.26601e-05
-3.61722e-06
-3.32293e-05
-1.11671e-05
-4.35089e-06
1.62371e-05
-1.52097e-05
4.37052e-05
-3.07373e-05
6.51366e-05
-4.93882e-05
8.043e-05
-6.98777e-05
9.00432e-05
-9.11589e-05
9.47175e-05
-0.000112394
9.52928e-05
-0.000132919
9.25645e-05
-0.000152209
8.71961e-05
-0.000169834
7.96875e-05
-0.000185432
7.03835e-05
-0.00019868
5.95058e-05
-0.00020928
4.71945e-05
-0.000216944
3.35516e-05
-0.000221398
1.86812e-05
-0.000222388
2.72849e-06
-0.000219694
-1.40883e-05
-0.000213157
-3.14362e-05
-0.000202709
-4.88442e-05
-0.000188421
-6.56772e-05
-0.000170541
-8.11284e-05
-0.000149541
-9.42348e-05
-0.000126148
-0.000103924
-0.000101353
-0.000109099
-7.63867e-05
-0.000108759
-5.26675e-05
-0.000102154
-3.17109e-05
-8.8943e-05
-1.50286e-05
-6.93424e-05
-4.03628e-06
-4.42216e-05
-1.52034e-05
-4.77919e-06
2.10163e-05
-1.67352e-05
5.56612e-05
-3.38083e-05
8.22097e-05
-5.42614e-05
0.000100883
-7.66668e-05
0.000112449
-9.98816e-05
0.000117932
-0.000123011
0.000118422
-0.00014536
0.000114914
-0.000166387
0.000108224
-0.000185659
9.89592e-05
-0.000202807
8.75309e-05
-0.000217498
7.41973e-05
-0.000229417
5.91138e-05
-0.000238251
4.23852e-05
-0.000243685
2.41156e-05
-0.000245413
4.45599e-06
-0.000243148
-1.6353e-05
-0.000236657
-3.79276e-05
-0.000225796
-5.97048e-05
-0.000210568
-8.09051e-05
-0.000191179
-0.000100517
-0.000168101
-0.000117313
-0.000142117
-0.000129908
-0.000114343
-0.000136873
-8.62059e-05
-0.000136896
-5.93755e-05
-0.000128985
-3.56455e-05
-0.000112673
-1.67954e-05
-8.81925e-05
-4.4556e-06
-5.65614e-05
-1.9659e-05
-5.19882e-06
2.62151e-05
-1.82349e-05
6.86972e-05
-3.68394e-05
0.000100814
-5.90896e-05
0.000123133
-8.34166e-05
0.000136776
-0.000108583
0.000143099
-0.000133638
0.000143477
-0.000157862
0.000139137
-0.000180705
0.000131067
-0.000201733
0.000119987
-0.000220579
0.000106377
-0.000236908
9.05266e-05
-0.000250391
7.25964e-05
-0.000260686
5.26803e-05
-0.000267434
3.08641e-05
-0.000270263
7.28494e-06
-0.000268802
-1.78147e-05
-0.000262712
-4.40176e-05
-0.000251739
-7.06778e-05
-0.000235777
-9.68663e-05
-0.000214953
-0.000121342
-0.000189705
-0.000142561
-0.000160862
-0.000158751
-0.000129682
-0.000168053
-9.78357e-05
-0.000168743
-6.73159e-05
-0.000159504
-4.02829e-05
-0.000139706
-1.88608e-05
-0.000109615
-4.93943e-06
-7.04828e-05
-2.45985e-05
-5.63976e-06
3.18549e-05
-1.98031e-05
8.28605e-05
-4.00036e-05
0.000121015
-6.4127e-05
0.000147257
-9.04597e-05
0.000163108
-0.000117668
0.000170307
-0.00014475
0.000170558
-0.000170962
0.00016535
-0.000195756
0.000155861
-0.000218706
0.000142937
-0.000239455
0.000127127
-0.000257675
0.000108746
-0.000273027
8.79484e-05
-0.000285145
6.47985e-05
-0.000293622
3.93412e-05
-0.000298008
1.16713e-05
-0.000297827
-1.79962e-05
-0.000292604
-4.92407e-05
-0.000281928
-8.13533e-05
-0.000265534
-0.000113261
-0.000243406
-0.00014347
-0.000215903
-0.000170065
-0.000183867
-0.000190787
-0.000148704
-0.000203216
-0.000112377
-0.000205069
-7.73045e-05
-0.000194577
-4.61387e-05
-0.000170872
-2.14747e-05
-0.000134279
-5.55367e-06
-8.64038e-05
-3.01521e-05
-6.12524e-06
3.79801e-05
-2.15159e-05
9.82512e-05
-4.34427e-05
0.000142942
-6.9582e-05
0.000173396
-9.80648e-05
0.000191591
-0.000127459
0.000199702
-0.00015671
0.000199809
-0.000185062
0.000193702
-0.000211973
0.000182772
-0.00023704
0.000168003
-0.000259929
0.000150016
-0.000280327
0.000129144
-0.0002979
0.000105521
-0.000312264
7.91624e-05
-0.000322965
5.00427e-05
-0.000329472
1.81783e-05
-0.000331182
-1.62858e-05
-0.000327452
-5.29713e-05
-0.00031766
-9.11449e-05
-0.000301309
-0.000129612
-0.00027816
-0.000166619
-0.000248405
-0.00019982
-0.000212839
-0.000226353
-0.000172994
-0.00024306
-0.000131179
-0.000246884
-9.03587e-05
-0.000235397
-5.38608e-05
-0.00020737
-2.49495e-05
-0.00016319
-6.37881e-06
-0.000104974
-3.65309e-05
-6.6741e-06
4.46542e-05
-2.34364e-05
0.000115013
-4.7274e-05
0.000166779
-7.56243e-05
0.000201746
-0.000106446
0.000222413
-0.000138201
0.000231456
-0.000169786
0.000231394
-0.000200439
0.000224355
-0.000229641
0.000211974
-0.000257022
0.000195385
-0.00028229
0.000175283
-0.000305164
0.000152018
-0.000325332
0.00012569
-0.00034241
9.62401e-05
-0.000355908
6.35407e-05
-0.000365214
2.7484e-05
-0.00036959
-1.19102e-05
-0.000368185
-5.43759e-05
-0.000360112
-9.9218e-05
-0.00034455
-0.000145174
-0.000320922
-0.000190247
-0.000289123
-0.000231618
-0.000249786
-0.000265691
-0.000204505
-0.000288341
-0.00015596
-0.000295429
-0.000107811
-0.000283546
-6.43158e-05
-0.000250865
-2.97099e-05
-0.000197796
-7.52627e-06
-0.000127158
-4.40572e-05
-7.30349e-06
5.19577e-05
-2.56216e-05
0.000133332
-5.16018e-05
0.00019276
-8.24e-05
0.000232544
-0.000115778
0.00025579
-0.000150082
0.00026576
-0.000184164
0.000265476
-0.000217267
0.000257458
-0.000248907
0.000243615
-0.000278771
0.000225249
-0.000306626
0.000203138
-0.000332252
0.000177644
-0.000355384
0.000148821
-0.00037566
0.000116516
-0.000392581
8.04612e-05
-0.000405467
4.03707e-05
-0.000413449
-3.92833e-06
-0.000415442
-5.23827e-05
-0.000410233
-0.000104428
-0.000396573
-0.000158834
-0.000373394
-0.000213425
-0.000340113
-0.000264899
-0.000297003
-0.0003088
-0.000245584
-0.00033976
-0.000188884
-0.00035213
-0.000131408
-0.000341023
-7.86775e-05
-0.000303595
-3.63475e-05
-0.000240126
-9.15663e-06
-0.000154349
-5.32138e-05
-8.03196e-06
5.99897e-05
-2.81316e-05
0.000153431
-5.65313e-05
0.000221159
-9.00487e-05
0.000266062
-0.000126215
0.000291957
-0.000163252
0.000302797
-0.000199969
0.000302193
-0.000235626
0.000293116
-0.000269797
0.000277786
-0.000302246
0.000257697
-0.000332827
0.000233719
-0.00036141
0.000206227
-0.000387811
0.000175222
-0.000411732
0.000140437
-0.0004327
0.000101429
-0.000450007
5.76773e-05
-0.000462658
8.72316e-06
-0.000469349
-4.56925e-05
-0.000468478
-0.000105298
-0.000458265
-0.000169047
-0.000436974
-0.000234716
-0.000403293
-0.000298581
-0.000356857
-0.000355236
-0.000298853
-0.000397764
-0.000232528
-0.000418455
-0.000163342
-0.000410208
-9.84872e-05
-0.00036845
-4.56688e-05
-0.000292944
-1.14974e-05
-0.00018852
-6.47113e-05
-8.88307e-06
6.88728e-05
-3.10393e-05
0.000175587
-6.21847e-05
0.000252305
-9.87232e-05
0.0003026
-0.000137915
0.000331148
-0.000177841
0.000342724
-0.000217276
0.000341628
-0.000255517
0.000331356
-0.000292213
0.000314482
-0.000327233
0.000292718
-0.000360551
0.000267037
-0.00039216
0.000237836
-0.000421998
0.000205061
-0.00044988
0.000168319
-0.000475415
0.000126964
-0.00049792
8.01826e-05
-0.000516328
2.71314e-05
-0.000529136
-3.28848e-05
-0.00053434
-0.000100094
-0.00052954
-0.000173847
-0.000512148
-0.000252108
-0.000479837
-0.000330892
-0.000431224
-0.000403849
-0.000366756
-0.000462232
-0.000289594
-0.000495616
-0.000206132
-0.00049367
-0.000125641
-0.000448941
-5.87191e-05
-0.000359866
-1.48571e-05
-0.000232382
-7.95684e-05
-9.89015e-06
7.87629e-05
-3.44435e-05
0.000200141
-6.87202e-05
0.000286581
-0.00010861
0.000342491
-0.000151051
0.000373588
-0.000193972
0.000385645
-0.000236123
0.000383779
-0.000276854
0.000372087
-0.000315921
0.00035355
-0.000353325
0.000330121
-0.000389186
0.000302898
-0.000423658
0.000272308
-0.000456849
0.000238251
-0.000488738
0.000200209
-0.000519085
0.00015731
-0.000547311
0.000108409
-0.000572365
5.21859e-05
-0.000592604
-1.26465e-05
-0.000605666
-8.70318e-05
-0.000608501
-0.000171012
-0.000597534
-0.000263074
-0.00056914
-0.000359286
-0.000520475
-0.000452515
-0.000450675
-0.000532032
-0.000362255
-0.000584036
-0.000262237
-0.000593688
-0.000162242
-0.000548936
-7.67634e-05
-0.000445345
-1.96329e-05
-0.000289513
-9.92013e-05
-1.11028e-05
8.98657e-05
-3.8485e-05
0.000227523
-7.63539e-05
0.00032445
-0.000119953
0.000386089
-0.000165834
0.00041947
-0.000211768
0.000431578
-0.000256493
0.000428504
-0.000299445
0.000415039
-0.000340512
0.000394618
-0.000379853
0.000369462
-0.000417764
0.000340809
-0.00045459
0.000309134
-0.000490646
0.000274307
-0.000526132
0.000235695
-0.000561031
0.000192209
-0.000594961
0.000142339
-0.000627002
8.42273e-05
-0.000655493
1.58436e-05
-0.00067784
-6.4684e-05
-0.000690416
-0.000158436
-0.000688643
-0.000264848
-0.000667412
-0.000380517
-0.000621994
-0.000497933
-0.000549529
-0.000604497
-0.00045101
-0.000682556
-0.000333314
-0.000711383
-0.000210262
-0.000671988
-0.000101206
-0.000554401
-2.63152e-05
-0.000364404
-0.000125517
-1.2597e-05
0.000102463
-4.33701e-05
0.000258296
-8.53882e-05
0.000366468
-0.00013307
0.000433771
-0.000182515
0.000468916
-0.000231333
0.000480396
-0.000278286
0.000475457
-0.000322932
0.000459684
-0.000365322
0.000437008
-0.000405797
0.000409937
-0.000444848
0.000379861
-0.00048303
0.000347316
-0.000520891
0.000312167
-0.000558891
0.000273696
-0.000597298
0.000230615
-0.000636023
0.000181064
-0.000674412
0.000122616
-0.00071097
5.2402e-05
-0.000743081
-3.25737e-05
-0.000766783
-0.000134734
-0.000776673
-0.000254958
-0.000766196
-0.000390994
-0.000728491
-0.000535638
-0.000658021
-0.000674967
-0.000553103
-0.000787475
-0.000419062
-0.000845424
-0.000270937
-0.000820113
-0.000133432
-0.000691906
-3.54952e-05
-0.000462341
-0.000161012
-1.4492e-05
0.000116955
-4.94057e-05
0.00029321
-9.62476e-05
0.00041331
-0.000148376
0.0004859
-0.000201374
0.000521914
-0.000252712
0.000531735
-0.000301235
0.00052398
-0.000346674
0.000505123
-0.000389285
0.000479619
-0.000429611
0.000450263
-0.000468345
0.000418595
-0.000506254
0.000385225
-0.000544121
0.000350034
-0.000582679
0.000312253
-0.000622513
0.00027045
-0.000663903
0.000222455
-0.000706594
0.000165307
-0.00074949
9.5298e-05
-0.000790227
8.1631e-06
-0.000824965
-9.99958e-05
-0.000847901
-0.000232022
-0.000851426
-0.000387469
-0.000826664
-0.0005604
-0.000764974
-0.000736657
-0.000660748
-0.0008917
-0.000515694
-0.000990478
-0.000343849
-0.000991958
-0.000174525
-0.00086123
-4.78795e-05
-0.000588987
-0.000208891
-1.69802e-05
0.000133935
-5.70548e-05
0.000333284
-0.000109527
0.000465783
-0.000166394
0.000542767
-0.000222675
0.000578194
-0.00027578
0.00058484
-0.000324738
0.000572937
-0.000369535
0.000549921
-0.000410683
0.000520767
-0.000448949
0.000488529
-0.00048523
0.000454876
-0.000520487
0.000420482
-0.00055571
0.000385258
-0.000591881
0.000348424
-0.000629894
0.000308463
-0.000670427
0.000262987
-0.000713725
0.000208605
-0.000759286
0.000140858
-0.000805485
5.43627e-05
-0.00084894
-5.65404e-05
-0.000884345
-0.000196617
-0.000903798
-0.000368016
-0.000897066
-0.000567132
-0.000852529
-0.000781194
-0.000759723
-0.000984506
-0.000614302
-0.0011359
-0.000425657
-0.0011806
-0.000224777
-0.00106211
-6.42986e-05
-0.000749465
-0.00027319
-2.03853e-05
0.00015432
-6.70302e-05
0.000379929
-0.000126056
0.000524808
-0.000187732
0.000604443
-0.000246545
0.000637006
-0.000300019
0.000638315
-0.000347541
0.000620459
-0.000389487
0.000591867
-0.000426697
0.000557976
-0.000460199
0.000522031
-0.000491089
0.000485766
-0.000520497
0.000449889
-0.000549573
0.000414334
-0.000579483
0.000378335
-0.000611373
0.000340353
-0.000646283
0.000297898
-0.000684996
0.000247318
-0.000727774
0.000183636
-0.000774003
0.000100592
-0.000821426
-9.11784e-06
-0.000866148
-0.000151895
-0.000901088
-0.000333076
-0.00091595
-0.00055227
-0.000897103
-0.000800042
-0.000829153
-0.00105246
-0.000699626
-0.00126543
-0.000508592
-0.00137164
-0.000282853
-0.00128785
-8.56595e-05
-0.000946658
-0.000358849
-2.52752e-05
0.000179595
-8.04503e-05
0.000435104
-0.000146967
0.000591324
-0.000212997
0.000670473
-0.000272704
0.000696713
-0.000324077
0.000689689
-0.000367159
0.000663541
-0.000402918
0.000627626
-0.000432646
0.000587704
-0.000457688
0.000547073
-0.000479355
0.000507433
-0.000498915
0.000469449
-0.000517623
0.000433042
-0.000536745
0.000397456
-0.000557574
0.000361181
-0.000581416
0.00032174
-0.000609526
0.000275428
-0.000642955
0.000217066
-0.000682258
0.000139894
-0.000727109
3.57337e-05
-0.000775303
-0.000103701
-0.000822244
-0.000286135
-0.000859263
-0.000515251
-0.000872628
-0.000786677
-0.00084334
-0.00108174
-0.000750108
-0.00135866
-0.000579192
-0.00154255
-0.000344576
-0.00152247
-0.000112757
-0.00117848
-0.000471606
-3.2687e-05
0.000212282
-9.90882e-05
0.000501506
-0.000173727
0.000665963
-0.000242499
0.000739245
-0.000299845
0.000754059
-0.000344873
0.000734717
-0.000378765
0.000697433
-0.000403389
0.00065225
-0.000420668
0.000604983
-0.000432358
0.000558763
-0.000440016
0.000515091
-0.000445041
0.000474474
-0.000448734
0.000436735
-0.00045237
0.000401092
-0.000457266
0.000366077
-0.000464846
0.00032932
-0.000476682
0.000287264
-0.000494494
0.000234878
-0.000520011
0.000165412
-0.000554767
7.04892e-05
-0.000599157
-5.93114e-05
-0.000651873
-0.000233419
-0.000707755
-0.000459368
-0.000755609
-0.000738823
-0.000775791
-0.00106156
-0.000739924
-0.00139453
-0.000618018
-0.00166446
-0.000401519
-0.00173896
-0.000145801
-0.0014342
-0.000617407
-4.45635e-05
0.000256846
-0.000125704
0.000582646
-0.000207918
0.000748177
-0.000275377
0.000806704
-0.000324197
0.000802879
-0.000355742
0.000766262
-0.000373067
0.000714758
-0.000379366
0.000658549
-0.000377423
0.00060304
-0.000369517
0.000550857
-0.000357488
0.000503063
-0.000342846
0.000459832
-0.000326883
0.000420771
-0.000310789
0.000384998
-0.000295777
0.000351066
-0.000283215
0.000316758
-0.000274766
0.000278814
-0.000272584
0.000232696
-0.000279264
0.000172092
-0.000297909
8.91343e-05
-0.000331596
-2.56239e-05
-0.000382676
-0.000182339
-0.000450812
-0.000391233
-0.000530016
-0.000659619
-0.000604253
-0.000987325
-0.000642756
-0.00135602
-0.000600849
-0.00170637
-0.000439769
-0.00190004
-0.000183397
-0.00169057
-0.000800804
-6.45394e-05
0.000321385
-0.000164211
0.000682318
-0.000249995
0.00083396
-0.000307039
0.000863748
-0.000336019
0.000831859
-0.000342381
0.000772623
-0.000332045
0.000704422
-0.000310007
0.000636512
-0.000280103
0.000573135
-0.000245164
0.000515918
-0.000207264
0.000465163
-0.000167932
0.0004205
-0.00012834
0.000381179
-8.94733e-05
0.000346132
-5.23013e-05
0.000313894
-1.79767e-05
0.000282434
1.19296e-05
0.000248908
3.53285e-05
0.000209297
4.90425e-05
0.000158378
4.89064e-05
8.92704e-05
2.96995e-05
-6.41699e-06
-1.36634e-05
-0.000138976
-8.61397e-05
-0.000318756
-0.000188981
-0.000556777
-0.00031406
-0.000862245
-0.000435394
-0.00123469
-0.000500571
-0.00164119
-0.000438794
-0.00196182
-0.000220434
-0.00190893
-0.00102124
-9.8985e-05
0.00042037
-0.000218278
0.000801611
-0.00029438
0.000910063
-0.00032175
0.000891118
-0.000310921
0.00082103
-0.000273898
0.0007356
-0.00022041
0.000650934
-0.000157442
0.000573543
-8.96998e-05
0.000505393
-2.02695e-05
0.000446488
4.88726e-05
0.000396021
0.000116478
0.000352894
0.00018175
0.000315908
0.00024412
0.000283762
0.000303042
0.000254972
0.000357773
0.000227702
0.00040712
0.000199561
0.000449064
0.000167353
0.000480552
0.000126889
0.000497091
7.2732e-05
0.000491988
-1.31397e-06
0.000458205
-0.000105194
0.000386464
-0.000247015
0.000268856
-0.00043917
0.00010285
-0.000696239
-9.80821e-05
-0.00103376
-0.000287271
-0.001452
-0.000369281
-0.00187981
-0.000244763
-0.00203345
-0.001266
-0.000156718
0.000577089
-0.000281546
0.000926439
-0.000311938
0.000940454
-0.000271697
0.000850877
-0.000188966
0.000738299
-8.39498e-05
0.000630584
3.03246e-05
0.00053666
0.000146087
0.000457781
0.000258957
0.000392522
0.000366673
0.000338772
0.000468206
0.000294488
0.00056323
0.00025787
0.000651791
0.000227347
0.000734063
0.00020149
0.000810146
0.000178888
0.000879853
0.000157996
0.000942454
0.00013696
0.000996364
0.000113443
0.00103879
8.44635e-05
0.00106526
4.62627e-05
0.00106923
-5.28768e-06
0.00104206
-7.80236e-05
0.000972481
-0.000177433
0.000847333
-0.000314022
0.000653818
-0.000502724
0.000387786
-0.000767723
7.67935e-05
-0.00114101
-0.000187197
-0.00161582
-0.00023465
-0.00198599
-0.00150065
-0.000236999
0.000814088
-0.000291008
0.000980448
-0.0001931
0.000842546
-2.36994e-05
0.000681477
0.000169156
0.000545444
0.000362355
0.000437384
0.000545314
0.000353701
0.000713729
0.000289366
0.000866579
0.000239672
0.00100441
0.000200939
0.00112845
0.000170452
0.00124012
0.000146197
0.00134083
0.000126636
0.0014318
0.000110525
0.00151392
9.67694e-05
0.00158763
8.42863e-05
0.0016527
7.18816e-05
0.00170801
5.81335e-05
0.00175117
4.13091e-05
0.00177811
1.93224e-05
0.00178316
-1.03407e-05
0.00175701
-5.18679e-05
0.00168819
-0.000108619
0.00156122
-0.00018705
0.00135638
-0.000297887
0.00105173
-0.000463066
0.000638843
-0.000728126
0.000181882
-0.00115886
-0.00011384
-0.00169027
-0.00161449
-0.000185988
0.00100008
3.84307e-05
0.000756029
0.000400162
0.000480815
0.00074265
0.000338989
0.00104262
0.000245475
0.00129974
0.000180261
0.00151814
0.0001353
0.00170334
0.000104165
0.00186089
8.2123e-05
0.00199569
6.61385e-05
0.00211184
5.43065e-05
0.00221266
4.53776e-05
0.0023008
3.84899e-05
0.00237832
3.30132e-05
0.00244664
2.84424e-05
0.00250661
2.43199e-05
0.00255832
2.01749e-05
0.00260097
1.54793e-05
0.00263264
9.63913e-06
0.00264987
2.09134e-06
0.0026485
-8.96748e-06
0.00262007
-2.34406e-05
0.00255478
-4.33278e-05
0.00243841
-7.06784e-05
0.00225013
-0.000109605
0.00195783
-0.000170772
0.00151538
-0.000285673
0.000901998
-0.000545479
0.000253214
-0.00104149
-0.00136128
0.00100008
0.0017561
0.00223692
0.00257591
0.00282138
0.00300164
0.00313694
0.00324111
0.00332323
0.00338937
0.00344368
0.00348906
0.00352755
0.00356056
0.003589
0.00361332
0.0036335
0.00364898
0.00365861
0.00366071
0.00365174
0.0036283
0.00358497
0.00351429
0.00340469
0.00323391
0.00294824
0.00240276
0.00136128
)
;

boundaryField
{
    movingWall
    {
        type            calculated;
        value           uniform 0;
    }
    fixedWalls
    {
        type            calculated;
        value           uniform 0;
    }
    frontAndBack
    {
        type            empty;
        value           nonuniform 0();
    }
}


// ************************************************************************* //
