/*--------------------------------*- C++ -*----------------------------------*\
  =========                 |
  \\      /  F ield         | OpenFOAM: The Open Source CFD Toolbox
   \\    /   O peration     | Website:  https://openfoam.org
    \\  /    A nd           | Version:  7
     \\/     M anipulation  |
\*---------------------------------------------------------------------------*/
FoamFile
{
    version     2.0;
    format      ascii;
    class       volVectorField;
    location    "1.3";
    object      U;
}
// * * * * * * * * * * * * * * * * * * * * * * * * * * * * * * * * * * * * * //

dimensions      [0 1 -1 0 0 0 0];

internalField   nonuniform List<vector> 
900
(
(7.22983e-05 -7.16835e-05 0)
(4.44235e-05 1.66369e-05 0)
(-0.000302845 0.000125118 0)
(-0.000903251 0.000205103 0)
(-0.00167792 0.000253336 0)
(-0.00255405 0.000276249 0)
(-0.0034714 0.000281308 0)
(-0.00438523 0.000274492 0)
(-0.00526346 0.000259764 0)
(-0.00608255 0.000239377 0)
(-0.00682404 0.000214377 0)
(-0.00747208 0.000185052 0)
(-0.00801181 0.000151301 0)
(-0.0084287 0.000112908 0)
(-0.00870839 6.97497e-05 0)
(-0.00883718 2.19513e-05 0)
(-0.00880282 -2.99866e-05 0)
(-0.0085958 -8.50793e-05 0)
(-0.00821084 -0.000141735 0)
(-0.00764872 -0.000197684 0)
(-0.00691824 -0.000249928 0)
(-0.00603825 -0.000294724 0)
(-0.00503956 -0.000327641 0)
(-0.00396635 -0.000343661 0)
(-0.0028771 -0.000337311 0)
(-0.0018444 -0.000302957 0)
(-0.000952131 -0.000235751 0)
(-0.000286244 -0.000134431 0)
(7.33139e-05 -1.01632e-05 0)
(8.34843e-05 8.20421e-05 0)
(-1.40156e-05 -4.63206e-05 0)
(-0.000422637 0.000422788 0)
(-0.0015061 0.000927857 0)
(-0.00310351 0.00131778 0)
(-0.00506883 0.00157093 0)
(-0.00726053 0.00170261 0)
(-0.00955021 0.00173824 0)
(-0.0118336 0.00170205 0)
(-0.0140299 0.00161272 0)
(-0.0160766 0.00148269 0)
(-0.0179232 0.00131931 0)
(-0.0195271 0.00112626 0)
(-0.0208498 0.00090515 0)
(-0.0218558 0.000656785 0)
(-0.0225113 0.000382268 0)
(-0.022786 8.38618e-05 0)
(-0.0226543 -0.000234317 0)
(-0.0220979 -0.000565541 0)
(-0.0211094 -0.000900068 0)
(-0.0196958 -0.00122469 0)
(-0.0178832 -0.00152252 0)
(-0.0157206 -0.00177316 0)
(-0.0132836 -0.00195324 0)
(-0.0106769 -0.00203757 0)
(-0.00803402 -0.00200098 0)
(-0.00551461 -0.00182141 0)
(-0.00329401 -0.0014859 0)
(-0.00154136 -0.00100172 0)
(-0.00040243 -0.000421146 0)
(-1.50736e-06 7.5111e-05 0)
(-0.000125537 0.000300437 0)
(-0.000954521 0.00151181 0)
(-0.00275373 0.00269005 0)
(-0.00522642 0.00360691 0)
(-0.00817115 0.00421689 0)
(-0.0114073 0.00454232 0)
(-0.0147658 0.0046311 0)
(-0.0181044 0.00453403 0)
(-0.0213093 0.00429355 0)
(-0.0242897 0.00394033 0)
(-0.0269713 0.00349418 0)
(-0.0292912 0.00296672 0)
(-0.0311937 0.00236446 0)
(-0.0326277 0.00169186 0)
(-0.0335467 0.00095388 0)
(-0.0339093 0.000158136 0)
(-0.0336819 -0.000683264 0)
(-0.0328417 -0.00155206 0)
(-0.0313815 -0.00242262 0)
(-0.0293147 -0.00326102 0)
(-0.0266809 -0.00402461 0)
(-0.0235512 -0.00466271 0)
(-0.020033 -0.00511832 0)
(-0.0162716 -0.00533171 0)
(-0.0124498 -0.00524602 0)
(-0.00878183 -0.00481615 0)
(-0.00549798 -0.0040229 0)
(-0.00281554 -0.00289422 0)
(-0.000935522 -0.00154073 0)
(-0.00011062 -0.000257153 0)
(-0.000217005 0.000925574 0)
(-0.00141787 0.00317725 0)
(-0.00386055 0.00520126 0)
(-0.00709932 0.00675263 0)
(-0.0108726 0.00778242 0)
(-0.0149674 0.00832849 0)
(-0.0191863 0.00846569 0)
(-0.0233619 0.00827482 0)
(-0.0273589 0.00782552 0)
(-0.0310677 0.00717005 0)
(-0.0343978 0.00634373 0)
(-0.0372721 0.00536858 0)
(-0.0396225 0.0042582 0)
(-0.041387 0.00302255 0)
(-0.0425095 0.00167234 0)
(-0.0429404 0.000222697 0)
(-0.0426398 -0.00130357 0)
(-0.041581 -0.00287327 0)
(-0.039756 -0.00444042 0)
(-0.0371818 -0.00594479 0)
(-0.0339069 -0.00731139 0)
(-0.0300178 -0.00845179 0)
(-0.025644 -0.0092678 0)
(-0.0209602 -0.00965813 0)
(-0.0161845 -0.00952893 0)
(-0.0115712 -0.00880903 0)
(-0.00739298 -0.00747167 0)
(-0.00390838 -0.00556298 0)
(-0.00137901 -0.00324071 0)
(-0.000194168 -0.000861709 0)
(-0.000285574 0.00177701 0)
(-0.00179598 0.00533738 0)
(-0.00479567 0.00835573 0)
(-0.00869889 0.0106192 0)
(-0.0131829 0.0121029 0)
(-0.0180032 0.0128746 0)
(-0.0229384 0.0130434 0)
(-0.027803 0.0127239 0)
(-0.0324473 0.0120157 0)
(-0.0367497 0.0109945 0)
(-0.0406094 0.00971256 0)
(-0.0439397 0.00820378 0)
(-0.0466638 0.00648983 0)
(-0.0487114 0.00458716 0)
(-0.0500185 0.00251311 0)
(-0.0505279 0.000291407 0)
(-0.0501927 -0.00204305 0)
(-0.0489804 -0.00443994 0)
(-0.0468792 -0.00683 0)
(-0.0439055 -0.00912269 0)
(-0.0401116 -0.0112056 0)
(-0.0355936 -0.0129467 0)
(-0.0304976 -0.0142001 0)
(-0.0250221 -0.0148171 0)
(-0.0194162 -0.0146615 0)
(-0.0139715 -0.0136318 0)
(-0.0090024 -0.0116892 0)
(-0.00481185 -0.00889036 0)
(-0.00172371 -0.00542341 0)
(-0.000250191 -0.00167337 0)
(-0.0003369 0.00280944 0)
(-0.00210334 0.00791861 0)
(-0.00558276 0.0120729 0)
(-0.0100668 0.0151215 0)
(-0.0151743 0.0170873 0)
(-0.0206286 0.018084 0)
(-0.0261863 0.0182644 0)
(-0.0316472 0.017783 0)
(-0.0368512 0.0167719 0)
(-0.0416695 0.0153322 0)
(-0.0459946 0.0135344 0)
(-0.049734 0.0114243 0)
(-0.0528044 0.00903175 0)
(-0.0551288 0.00637962 0)
(-0.0566353 0.00349163 0)
(-0.0572584 0.000399972 0)
(-0.0569416 -0.00284807 0)
(-0.055643 -0.00618407 0)
(-0.0533426 -0.0095134 0)
(-0.0500505 -0.0127117 0)
(-0.0458174 -0.0156241 0)
(-0.0407441 -0.0180683 0)
(-0.0349899 -0.0198432 0)
(-0.0287759 -0.0207443 0)
(-0.022384 -0.0205856 0)
(-0.0161475 -0.0192284 0)
(-0.0104293 -0.016616 0)
(-0.00558402 -0.0128085 0)
(-0.00199798 -0.00801547 0)
(-0.000287075 -0.00264217 0)
(-0.00037757 0.00398864 0)
(-0.0023631 0.0108598 0)
(-0.00626659 0.0162841 0)
(-0.0112733 0.0201892 0)
(-0.0169474 0.0226652 0)
(-0.0229806 0.0238867 0)
(-0.029108 0.024061 0)
(-0.0351161 0.0233885 0)
(-0.0408375 0.0220384 0)
(-0.0461386 0.0201388 0)
(-0.0509084 0.0177787 0)
(-0.0550508 0.0150159 0)
(-0.0584777 0.0118876 0)
(-0.0611058 0.0084217 0)
(-0.062855 0.00464673 0)
(-0.0636488 0.000601931 0)
(-0.0634183 -0.00365407 0)
(-0.0621071 -0.00803498 0)
(-0.0596805 -0.0124195 0)
(-0.0561358 -0.0166463 0)
(-0.0515157 -0.0205122 0)
(-0.0459203 -0.0237764 0)
(-0.0395194 -0.0261724 0)
(-0.0325581 -0.0274283 0)
(-0.0253566 -0.027297 0)
(-0.0182998 -0.0255933 0)
(-0.011811 -0.0222358 0)
(-0.00630683 -0.0172852 0)
(-0.00223913 -0.0109736 0)
(-0.000313808 -0.00373676 0)
(-0.000413158 0.00529453 0)
(-0.00259844 0.0141225 0)
(-0.00689604 0.0209453 0)
(-0.0123954 0.0257791 0)
(-0.0186091 0.028796 0)
(-0.0251976 0.0302454 0)
(-0.031875 0.0303998 0)
(-0.0384158 0.0295132 0)
(-0.0446468 0.027796 0)
(-0.0504319 0.0254054 0)
(-0.0556589 0.0224496 0)
(-0.0602296 0.0189972 0)
(-0.0640527 0.0150912 0)
(-0.0670387 0.010762 0)
(-0.0690981 0.00604017 0)
(-0.0701413 0.000969087 0)
(-0.0700822 -0.00438399 0)
(-0.0688442 -0.0099165 0)
(-0.0663701 -0.0154803 0)
(-0.0626362 -0.0208739 0)
(-0.0576679 -0.0258394 0)
(-0.0515583 -0.030067 0)
(-0.0444841 -0.0332103 0)
(-0.036716 -0.0349138 0)
(-0.0286205 -0.0348531 0)
(-0.0206478 -0.0327835 0)
(-0.0132991 -0.028592 0)
(-0.00706902 -0.0223412 0)
(-0.00248395 -0.0142957 0)
(-0.000337637 -0.00494698 0)
(-0.000447836 0.00671953 0)
(-0.00282912 0.0176916 0)
(-0.00751572 0.0260402 0)
(-0.0135046 0.031877 0)
(-0.020258 0.0354689 0)
(-0.0274051 0.0371532 0)
(-0.0346394 0.0372787 0)
(-0.0417244 0.0361609 0)
(-0.0484828 0.0340561 0)
(-0.054778 0.0311532 0)
(-0.0604985 0.0275796 0)
(-0.0655464 0.0234139 0)
(-0.0698281 0.0187019 0)
(-0.0732488 0.0134732 0)
(-0.0757084 0.0077562 0)
(-0.0771019 0.00159354 0)
(-0.0773214 -0.0049434 0)
(-0.0762628 -0.0117394 0)
(-0.0738377 -0.0186207 0)
(-0.0699896 -0.0253434 0)
(-0.0647156 -0.0315876 0)
(-0.0580908 -0.0369612 0)
(-0.0502922 -0.041019 0)
(-0.0416162 -0.0432989 0)
(-0.0324845 -0.0433757 0)
(-0.0234305 -0.0409262 0)
(-0.0150577 -0.035797 0)
(-0.00796346 -0.0280575 0)
(-0.00276757 -0.0180248 0)
(-0.000364086 -0.00628194 0)
(-0.00048461 0.00826584 0)
(-0.00307098 0.0215721 0)
(-0.0081631 0.0315769 0)
(-0.0146622 0.0384941 0)
(-0.0219783 0.042698 0)
(-0.0297089 0.0446272 0)
(-0.037527 0.0447183 0)
(-0.0451863 0.0433569 0)
(-0.0525072 0.0408509 0)
(-0.0593549 0.0374234 0)
(-0.0656214 0.0332213 0)
(-0.0712113 0.0283313 0)
(-0.0760311 0.0227993 0)
(-0.0799817 0.0166492 0)
(-0.082953 0.00990151 0)
(-0.0848222 0.00259132 0)
(-0.0854552 -0.00521292 0)
(-0.0847135 -0.0133896 0)
(-0.0824657 -0.0217434 0)
(-0.0786089 -0.0299875 0)
(-0.073095 -0.0377326 0)
(-0.0659647 -0.044489 0)
(-0.0573827 -0.0496879 0)
(-0.0476667 -0.0527288 0)
(-0.0373009 -0.053051 0)
(-0.0269245 -0.0502245 0)
(-0.0172764 -0.0440411 0)
(-0.00909503 -0.0345839 0)
(-0.0031272 -0.0222515 0)
(-0.000397989 -0.00776884 0)
(-0.000525663 0.0099432 0)
(-0.0033365 0.0257859 0)
(-0.00886869 0.0375843 0)
(-0.0159182 0.0456628 0)
(-0.0238385 0.0505172 0)
(-0.0321937 0.0527022 0)
(-0.0406363 0.052755 0)
(-0.0489114 0.051141 0)
(-0.0568395 0.0482257 0)
(-0.0642907 0.0442695 0)
(-0.0711638 0.0394393 0)
(-0.0773697 0.0338282 0)
(-0.0828184 0.0274784 0)
(-0.0874092 0.0204027 0)
(-0.0910233 0.012606 0)
(-0.0935202 0.00410697 0)
(-0.0947366 -0.0050392 0)
(-0.0944914 -0.0147148 0)
(-0.0925984 -0.0247109 0)
(-0.0888899 -0.0347011 0)
(-0.0832502 -0.0442218 0)
(-0.0756607 -0.0526684 0)
(-0.066251 -0.059318 0)
(-0.0553465 -0.0633878 0)
(-0.0434973 -0.0641322 0)
(-0.0314727 -0.0609685 0)
(-0.0201937 -0.0536083 0)
(-0.0105956 -0.0421538 0)
(-0.0036088 -0.0271242 0)
(-0.000444904 -0.00945492 0)
(-0.000572691 0.0117672 0)
(-0.00363592 0.0303682 0)
(-0.00965787 0.0441079 0)
(-0.017314 0.0534321 0)
(-0.0258942 0.0589752 0)
(-0.0349261 0.0614251 0)
(-0.0440414 0.0614343 0)
(-0.0529783 0.0595595 0)
(-0.0615603 0.0562307 0)
(-0.0696667 0.0517494 0)
(-0.0772075 0.0463032 0)
(-0.084105 0.0399902 0)
(-0.0902776 0.0328446 0)
(-0.095628 0.024862 0)
(-0.100033 0.0160229 0)
(-0.103337 0.00631752 0)
(-0.105345 -0.00422612 0)
(-0.105829 -0.0155097 0)
(-0.104534 -0.0273251 0)
(-0.101207 -0.0393162 0)
(-0.0956345 -0.0509452 0)
(-0.0877017 -0.0614772 0)
(-0.0774664 -0.069999 0)
(-0.0652327 -0.0754882 0)
(-0.0516092 -0.076941 0)
(-0.0375196 -0.0735504 0)
(-0.024126 -0.0649 0)
(-0.0126438 -0.0511088 0)
(-0.00427569 -0.0328666 0)
(-0.000512792 -0.0114138 0)
(-0.000627231 0.0137584 0)
(-0.00397862 0.0353662 0)
(-0.0105536 0.0512076 0)
(-0.0188861 0.0618646 0)
(-0.0281923 0.068131 0)
(-0.0379591 0.0708491 0)
(-0.0477969 0.0708047 0)
(-0.057439 0.0686584 0)
(-0.0667161 0.0649137 0)
(-0.0755214 0.0599174 0)
(-0.0837824 0.0538795 0)
(-0.0914389 0.0469016 0)
(-0.0984253 0.0390065 0)
(-0.104655 0.0301658 0)
(-0.110009 0.0203253 0)
(-0.11432 0.00943283 0)
(-0.117367 -0.00252952 0)
(-0.118871 -0.0155036 0)
(-0.118496 -0.0293067 0)
(-0.115882 -0.0435733 0)
(-0.110679 -0.0577012 0)
(-0.102629 -0.070816 0)
(-0.09166 -0.0817761 0)
(-0.0780038 -0.0892465 0)
(-0.0622987 -0.0918624 0)
(-0.0456386 -0.0884794 0)
(-0.0294972 -0.0784657 0)
(-0.0154861 -0.0619348 0)
(-0.00521821 -0.0398063 0)
(-0.000613914 -0.0137569 0)
(-0.00069101 0.0159423 0)
(-0.00437464 0.0408381 0)
(-0.0115796 0.058956 0)
(-0.0206706 0.0710331 0)
(-0.0307763 0.0780497 0)
(-0.0413377 0.0810287 0)
(-0.0519431 0.0809108 0)
(-0.0623239 0.0784761 0)
(-0.0723228 0.0743115 0)
(-0.081853 0.0688149 0)
(-0.0908664 0.062221 0)
(-0.0993289 0.0546346 0)
(-0.1072 0.0460643 0)
(-0.114414 0.0364514 0)
(-0.120867 0.0256965 0)
(-0.126392 0.013689 0)
(-0.13075 0.000342307 0)
(-0.133612 -0.0143553 0)
(-0.13456 -0.0302814 0)
(-0.133099 -0.0470958 0)
(-0.128707 -0.064159 0)
(-0.120918 -0.0804616 0)
(-0.109453 -0.0946001 0)
(-0.0943882 -0.104842 0)
(-0.0763302 -0.109322 0)
(-0.0565331 -0.106385 0)
(-0.0368546 -0.0950333 0)
(-0.0194549 -0.0753058 0)
(-0.00656315 -0.048414 0)
(-0.000766834 -0.0166502 0)
(-0.000766362 0.0183502 0)
(-0.00483668 0.0468549 0)
(-0.0127643 0.067439 0)
(-0.0227084 0.0810199 0)
(-0.0336922 0.0887993 0)
(-0.0451045 0.092014 0)
(-0.0565113 0.0917862 0)
(-0.0676455 0.0890339 0)
(-0.0783676 0.0844394 0)
(-0.0886183 0.0784582 0)
(-0.0983817 0.0713531 0)
(-0.107659 0.0632334 0)
(-0.116445 0.0540918 0)
(-0.124709 0.0438348 0)
(-0.132376 0.0323084 0)
(-0.139297 0.0193265 0)
(-0.14523 0.00470817 0)
(-0.149809 -0.0116674 0)
(-0.152533 -0.0297833 0)
(-0.152763 -0.0493794 0)
(-0.149766 -0.0698288 0)
(-0.1428 -0.0900168 0)
(-0.131283 -0.108262 0)
(-0.115017 -0.122346 0)
(-0.0944643 -0.129727 0)
(-0.0709806 -0.127994 0)
(-0.0468544 -0.115523 0)
(-0.0249745 -0.0921269 0)
(-0.00848104 -0.0593482 0)
(-0.000998427 -0.0203359 0)
(-0.000856787 0.0210213 0)
(-0.00538242 0.0535032 0)
(-0.0141457 0.0767574 0)
(-0.0250512 0.0919154 0)
(-0.0369947 0.100447 0)
(-0.049305 0.103845 0)
(-0.0615264 0.103445 0)
(-0.0733986 0.100326 0)
(-0.0848071 0.0952785 0)
(-0.0957272 0.0888231 0)
(-0.106184 0.0812554 0)
(-0.116222 0.0726915 0)
(-0.125884 0.0631093 0)
(-0.135189 0.0523782 0)
(-0.144107 0.0402827 0)
(-0.152529 0.026546 0)
(-0.160232 0.0108653 0)
(-0.166839 -0.00703163 0)
(-0.171782 -0.0272929 0)
(-0.174282 -0.0498126 0)
(-0.17337 -0.074057 0)
(-0.167977 -0.0988712 0)
(-0.157108 -0.122315 0)
(-0.140144 -0.141614 0)
(-0.11723 -0.153355 0)
(-0.0896816 -0.154039 0)
(-0.0601909 -0.141015 0)
(-0.0325457 -0.113557 0)
(-0.0111897 -0.073501 0)
(-0.00134618 -0.0251571 0)
(-0.00096778 0.024006 0)
(-0.00603788 0.0608917 0)
(-0.0157768 0.0870313 0)
(-0.0277685 0.103818 0)
(-0.0407524 0.113053 0)
(-0.0539901 0.116541 0)
(-0.0670069 0.115871 0)
(-0.0795566 0.112306 0)
(-0.0915579 0.106759 0)
(-0.103029 0.099825 0)
(-0.114042 0.0918367 0)
(-0.124695 0.0829215 0)
(-0.135088 0.0730456 0)
(-0.145301 0.0620432 0)
(-0.155369 0.0496341 0)
(-0.165245 0.0354402 0)
(-0.174758 0.0190124 0)
(-0.183551 -0.000114903 0)
(-0.191027 -0.0223232 0)
(-0.196299 -0.0477513 0)
(-0.198177 -0.07607 0)
(-0.195233 -0.106196 0)
(-0.185981 -0.136004 0)
(-0.169222 -0.16215 0)
(-0.14455 -0.180171 0)
(-0.112984 -0.185083 0)
(-0.0774454 -0.172632 0)
(-0.0426982 -0.140979 0)
(-0.0149538 -0.0920277 0)
(-0.00186199 -0.0315849 0)
(-0.00110822 0.0273722 0)
(-0.00684237 0.0691597 0)
(-0.0177343 0.0984048 0)
(-0.030955 0.116834 0)
(-0.0450523 0.126667 0)
(-0.0592155 0.130092 0)
(-0.0729575 0.128999 0)
(-0.0860574 0.124864 0)
(-0.0984773 0.118738 0)
(-0.110286 0.111293 0)
(-0.12161 0.102905 0)
(-0.132604 0.093718 0)
(-0.143432 0.0836918 0)
(-0.154243 0.0726314 0)
(-0.165151 0.0601953 0)
(-0.176195 0.0459008 0)
(-0.187286 0.0291371 0)
(-0.198135 0.00920922 0)
(-0.208174 -0.0145622 0)
(-0.216471 -0.0426587 0)
(-0.221681 -0.0750887 0)
(-0.222056 -0.110999 0)
(-0.215597 -0.148233 0)
(-0.200398 -0.182958 0)
(-0.175246 -0.209569 0)
(-0.140472 -0.221214 0)
(-0.09883 -0.211284 0)
(-0.0558955 -0.175879 0)
(-0.0200825 -0.116345 0)
(-0.00262001 -0.0402468 0)
(-0.00129288 0.0312146 0)
(-0.00785653 0.078491 0)
(-0.0201291 0.111053 0)
(-0.0347395 0.131071 0)
(-0.0500018 0.14131 0)
(-0.0650335 0.144434 0)
(-0.0793509 0.142695 0)
(-0.0927752 0.137808 0)
(-0.105326 0.130969 0)
(-0.11713 0.122938 0)
(-0.128373 0.114132 0)
(-0.139267 0.104715 0)
(-0.150039 0.0946503 0)
(-0.16091 0.0837212 0)
(-0.172079 0.071536 0)
(-0.183683 0.0575145 0)
(-0.195744 0.0408833 0)
(-0.208093 0.0207013 0)
(-0.220261 -0.00405534 0)
(-0.231382 -0.034305 0)
(-0.240081 -0.0705184 0)
(-0.244418 -0.11227 0)
(-0.241964 -0.157609 0)
(-0.230083 -0.202435 0)
(-0.206529 -0.240096 0)
(-0.170472 -0.261623 0)
(-0.123818 -0.257233 0)
(-0.0723725 -0.219564 0)
(-0.0269206 -0.148068 0)
(-0.0037315 -0.05196 0)
(-0.00154732 0.0356706 0)
(-0.00917607 0.0891336 0)
(-0.0231239 0.125188 0)
(-0.039295 0.14663 0)
(-0.0557236 0.156952 0)
(-0.0714716 0.159422 0)
(-0.0860882 0.156716 0)
(-0.0994649 0.150815 0)
(-0.111698 0.143068 0)
(-0.122984 0.134314 0)
(-0.133568 0.125013 0)
(-0.143718 0.115349 0)
(-0.153717 0.105292 0)
(-0.163851 0.0946183 0)
(-0.174395 0.0829008 0)
(-0.185587 0.0694813 0)
(-0.197577 0.0534426 0)
(-0.210356 0.0336068 0)
(-0.223649 0.00859694 0)
(-0.236769 -0.0229855 0)
(-0.248495 -0.0621859 0)
(-0.256937 -0.109207 0)
(-0.259457 -0.162602 0)
(-0.252823 -0.218394 0)
(-0.233679 -0.269248 0)
(-0.199583 -0.304157 0)
(-0.150683 -0.309502 0)
(-0.0918685 -0.272685 0)
(-0.0358197 -0.188838 0)
(-0.00536846 -0.0677683 0)
(-0.00191796 0.040948 0)
(-0.0109568 0.101428 0)
(-0.0269589 0.141062 0)
(-0.0448472 0.163576 0)
(-0.0623378 0.173466 0)
(-0.0784829 0.174768 0)
(-0.0929213 0.170652 0)
(-0.10566 0.163384 0)
(-0.116902 0.154456 0)
(-0.126929 0.144775 0)
(-0.136048 0.134831 0)
(-0.144581 0.124825 0)
(-0.152854 0.114736 0)
(-0.1612 0.104342 0)
(-0.169955 0.0931992 0)
(-0.17944 0.0806026 0)
(-0.189931 0.0655303 0)
(-0.201605 0.0466143 0)
(-0.214437 0.022171 0)
(-0.228055 -0.00965113 0)
(-0.241614 -0.0505593 0)
(-0.253568 -0.101496 0)
(-0.261432 -0.161848 0)
(-0.261727 -0.228289 0)
(-0.250166 -0.29349 0)
(-0.222454 -0.344993 0)
(-0.176048 -0.365213 0)
(-0.113237 -0.334505 0)
(-0.0470544 -0.239978 0)
(-0.00779297 -0.0889779 0)
(-0.00249351 0.0473761 0)
(-0.013461 0.115849 0)
(-0.0319901 0.158951 0)
(-0.0516751 0.18188 0)
(-0.0699095 0.190546 0)
(-0.0858425 0.189955 0)
(-0.0993037 0.18384 0)
(-0.110489 0.174749 0)
(-0.119751 0.164294 0)
(-0.12748 0.15342 0)
(-0.13406 0.142626 0)
(-0.139859 0.132114 0)
(-0.145237 0.121868 0)
(-0.150552 0.111669 0)
(-0.156172 0.101078 0)
(-0.162472 0.0893759 0)
(-0.16983 0.0754942 0)
(-0.17859 0.0579555 0)
(-0.189011 0.0348656 0)
(-0.201156 0.00401128 0)
(-0.214709 -0.0368927 0)
(-0.228747 -0.089599 0)
(-0.241417 -0.154574 0)
(-0.24954 -0.229717 0)
(-0.248409 -0.308663 0)
(-0.232067 -0.378712 0)
(-0.194661 -0.419095 0)
(-0.133988 -0.402014 0)
(-0.0606305 -0.301866 0)
(-0.0113795 -0.117164 0)
(-0.00345042 0.0555031 0)
(-0.0171422 0.133057 0)
(-0.0387398 0.179112 0)
(-0.0600762 0.201302 0)
(-0.0783174 0.207552 0)
(-0.0929286 0.204078 0)
(-0.104101 0.195218 0)
(-0.112329 0.183764 0)
(-0.118185 0.171391 0)
(-0.122204 0.159036 0)
(-0.124861 0.147169 0)
(-0.126576 0.135966 0)
(-0.127729 0.125396 0)
(-0.128686 0.115245 0)
(-0.129814 0.105083 0)
(-0.131503 0.0942125 0)
(-0.134183 0.0815786 0)
(-0.138333 0.0656967 0)
(-0.144461 0.0445961 0)
(-0.153057 0.0158753 0)
(-0.164437 -0.0231147 0)
(-0.178536 -0.0748726 0)
(-0.194514 -0.14102 0)
(-0.210142 -0.221128 0)
(-0.221138 -0.31084 0)
(-0.220663 -0.398952 0)
(-0.199653 -0.463522 0)
(-0.149931 -0.469123 0)
(-0.0759341 -0.373001 0)
(-0.0165939 -0.154091 0)
(-0.005147 0.06629 0)
(-0.0227928 0.153955 0)
(-0.0479279 0.201635 0)
(-0.0702095 0.221138 0)
(-0.0869149 0.223242 0)
(-0.0982401 0.2156 0)
(-0.10501 0.20312 0)
(-0.108178 0.188738 0)
(-0.10862 0.174095 0)
(-0.107065 0.160039 0)
(-0.104095 0.146955 0)
(-0.100183 0.134953 0)
(-0.0957213 0.12396 0)
(-0.0910585 0.113745 0)
(-0.0865309 0.103891 0)
(-0.0825007 0.0937392 0)
(-0.0793937 0.0823064 0)
(-0.0777529 0.0682022 0)
(-0.0782579 0.0495276 0)
(-0.0817301 0.0239137 0)
(-0.0890786 -0.0114075 0)
(-0.10114 -0.0593874 0)
(-0.118301 -0.12262 0)
(-0.13983 -0.202484 0)
(-0.162872 -0.297429 0)
(-0.18108 -0.399695 0)
(-0.183326 -0.489362 0)
(-0.155124 -0.52639 0)
(-0.0911645 -0.448775 0)
(-0.0238348 -0.201371 0)
(-0.00830268 0.0814891 0)
(-0.0317592 0.179681 0)
(-0.0603419 0.226069 0)
(-0.0815399 0.239722 0)
(-0.0936389 0.235294 0)
(-0.0982938 0.221949 0)
(-0.0973545 0.204976 0)
(-0.0924225 0.187242 0)
(-0.0847648 0.170183 0)
(-0.0753239 0.154445 0)
(-0.0647865 0.140246 0)
(-0.0536539 0.127573 0)
(-0.0423011 0.116271 0)
(-0.0310261 0.106067 0)
(-0.0200986 0.0965474 0)
(-0.0098091 0.0871046 0)
(-0.000518494 0.0768608 0)
(0.00723654 0.064582 0)
(0.0127133 0.0485992 0)
(0.0149115 0.0267675 0)
(0.0124924 -0.00352314 0)
(0.00389768 -0.0453135 0)
(-0.0124432 -0.101681 0)
(-0.0375134 -0.175452 0)
(-0.0706982 -0.268099 0)
(-0.107853 -0.376841 0)
(-0.13808 -0.48762 0)
(-0.142018 -0.561623 0)
(-0.102479 -0.520258 0)
(-0.032923 -0.259709 0)
(-0.0142545 0.104324 0)
(-0.0460398 0.21129 0)
(-0.0759445 0.250539 0)
(-0.0910056 0.253504 0)
(-0.0926309 0.239559 0)
(-0.085044 0.219017 0)
(-0.0715435 0.197037 0)
(-0.0544994 0.176017 0)
(-0.0355478 0.156923 0)
(-0.0157667 0.14003 0)
(0.00414934 0.125287 0)
(0.0237615 0.112493 0)
(0.0427938 0.101375 0)
(0.0610642 0.0915933 0)
(0.0784256 0.0827272 0)
(0.0947068 0.0742228 0)
(0.109647 0.0653293 0)
(0.122807 0.0550131 0)
(0.133485 0.04192 0)
(0.140626 0.024271 0)
(0.142639 -0.000149106 0)
(0.137607 -0.0340048 0)
(0.123138 -0.080367 0)
(0.0966884 -0.142734 0)
(0.0563626 -0.224902 0)
(0.00272219 -0.329431 0)
(-0.0566812 -0.451415 0)
(-0.101253 -0.561329 0)
(-0.102846 -0.573613 0)
(-0.0419644 -0.328338 0)
(-0.0249198 0.140663 0)
(-0.067038 0.247802 0)
(-0.0898003 0.269184 0)
(-0.0872432 0.254982 0)
(-0.068072 0.228769 0)
(-0.0401099 0.200556 0)
(-0.00807188 0.174293 0)
(0.0252152 0.151236 0)
(0.0581165 0.131521 0)
(0.089756 0.114863 0)
(0.119706 0.100855 0)
(0.147802 0.0890728 0)
(0.174023 0.07911 0)
(0.198413 0.0705672 0)
(0.221025 0.0630222 0)
(0.241857 0.055987 0)
(0.260794 0.0488527 0)
(0.277526 0.0408276 0)
(0.291453 0.030888 0)
(0.301575 0.0177061 0)
(0.306314 -0.000388774 0)
(0.30362 -0.0253318 0)
(0.290612 -0.0597203 0)
(0.26383 -0.10685 0)
(0.219372 -0.171361 0)
(0.153917 -0.259769 0)
(0.068831 -0.37755 0)
(-0.02027 -0.512601 0)
(-0.0807881 -0.590435 0)
(-0.0454217 -0.404483 0)
(-0.0401522 0.201662 0)
(-0.0871128 0.279425 0)
(-0.0761412 0.264264 0)
(-0.0340278 0.227711 0)
(0.0199231 0.190324 0)
(0.0761542 0.157744 0)
(0.130414 0.130976 0)
(0.180826 0.109441 0)
(0.226767 0.0921969 0)
(0.268256 0.0783628 0)
(0.305591 0.0672152 0)
(0.339175 0.0581735 0)
(0.369427 0.050765 0)
(0.396729 0.0445876 0)
(0.421392 0.0392694 0)
(0.443615 0.0344276 0)
(0.463441 0.0296265 0)
(0.480691 0.0243348 0)
(0.494888 0.0178857 0)
(0.50514 0.00943497 0)
(0.510063 -0.00207834 0)
(0.50765 -0.0178412 0)
(0.494928 -0.0395453 0)
(0.468145 -0.0695369 0)
(0.422358 -0.111666 0)
(0.351324 -0.17331 0)
(0.249728 -0.267644 0)
(0.120358 -0.405678 0)
(-0.0166754 -0.547135 0)
(-0.028718 -0.471218 0)
(-0.0331213 0.295674 0)
(-0.0444183 0.276732 0)
(0.060081 0.203507 0)
(0.164973 0.152084 0)
(0.257434 0.115042 0)
(0.336999 0.0878377 0)
(0.404756 0.0681076 0)
(0.462156 0.0537954 0)
(0.510834 0.0432646 0)
(0.552329 0.0353825 0)
(0.587946 0.0293917 0)
(0.618747 0.0247703 0)
(0.645583 0.021143 0)
(0.66912 0.0182244 0)
(0.689857 0.015778 0)
(0.70812 0.0135839 0)
(0.724047 0.0114116 0)
(0.737548 0.00899704 0)
(0.748256 0.00602586 0)
(0.755411 0.00211914 0)
(0.757949 -0.00313018 0)
(0.75414 -0.0103916 0)
(0.741414 -0.02037 0)
(0.716417 -0.0341236 0)
(0.674373 -0.0536408 0)
(0.608107 -0.083618 0)
(0.506904 -0.136647 0)
(0.356561 -0.240816 0)
(0.138958 -0.406874 0)
(0.0571961 -0.457973 0)
(0.303559 0.18105 0)
(0.3841 0.145163 0)
(0.564512 0.0923103 0)
(0.692337 0.059894 0)
(0.77592 0.0397418 0)
(0.835042 0.0266684 0)
(0.879141 0.0182259 0)
(0.912797 0.0128024 0)
(0.939003 0.00927638 0)
(0.959874 0.00693478 0)
(0.976856 0.00534457 0)
(0.990935 0.0042394 0)
(1.0028 0.00344971 0)
(1.01293 0.00286224 0)
(1.02164 0.00239512 0)
(1.02914 0.00198129 0)
(1.03548 0.00155725 0)
(1.04058 0.00105517 0)
(1.0442 0.000401477 0)
(1.04594 -0.000490425 0)
(1.04509 -0.0016446 0)
(1.04065 -0.00330705 0)
(1.03136 -0.00560981 0)
(1.01541 -0.00875079 0)
(0.990081 -0.0131767 0)
(0.950742 -0.020103 0)
(0.887381 -0.0331722 0)
(0.778525 -0.0645418 0)
(0.54556 -0.140121 0)
(0.382545 -0.202166 0)
)
;

boundaryField
{
    movingWall
    {
        type            fixedValue;
        value           uniform (1.2 0 0);
    }
    fixedWalls
    {
        type            noSlip;
    }
    frontAndBack
    {
        type            empty;
    }
}


// ************************************************************************* //
