/*--------------------------------*- C++ -*----------------------------------*\
  =========                 |
  \\      /  F ield         | OpenFOAM: The Open Source CFD Toolbox
   \\    /   O peration     | Website:  https://openfoam.org
    \\  /    A nd           | Version:  7
     \\/     M anipulation  |
\*---------------------------------------------------------------------------*/
FoamFile
{
    version     2.0;
    format      ascii;
    class       volScalarField;
    location    "200";
    object      epsilon;
}
// * * * * * * * * * * * * * * * * * * * * * * * * * * * * * * * * * * * * * //

dimensions      [0 2 -3 0 0 0 0];

internalField   nonuniform List<scalar> 
4500
(
789.604
724.713
675.057
641.452
616.405
597.477
585.216
600.332
680.78
802.763
921.285
1022.08
1108.44
1185.26
1255.05
1318.35
1374.4
1421.97
1460.23
1489.24
1509.99
1524.09
1533.25
1538.99
1542.48
1544.55
1545.75
1546.43
1546.8
1547
1547.12
1547.17
1547.15
1547.11
1547.01
1546.87
1546.66
1546.41
1546.1
1545.74
1545.29
1544.83
1544.34
1543.81
1543.18
1542.53
1541.94
1541.46
1541.04
1540.6
1540.14
1539.8
1539.63
1539.57
1539.47
1539.22
1538.82
1538.45
1538.15
1537.94
1537.76
1537.53
1537.36
1537.28
1537.22
1537.13
1536.94
1536.68
1536.42
1536.25
1536.29
1536.57
1537.14
1537.89
1538.74
180.466
258.598
265.808
255.431
244.838
236.441
230.937
235.015
258.798
284.646
308.789
335.478
362.44
387.991
411.691
433.328
452.514
468.755
481.713
491.397
498.196
502.726
505.62
507.41
508.49
509.128
509.493
509.698
509.81
509.87
509.903
509.917
509.912
509.893
509.859
509.808
509.735
509.644
509.534
509.405
509.248
509.082
508.906
508.714
508.491
508.256
508.043
507.866
507.715
507.562
507.403
507.281
507.216
507.189
507.154
507.072
506.933
506.8
506.687
506.609
506.539
506.461
506.395
506.365
506.343
506.314
506.255
506.167
506.073
506.008
506.012
506.107
506.307
506.575
506.877
52.4734
112.464
134.458
135.924
132.538
128.76
125.856
127.039
137.93
151.483
168.564
188.197
207.29
224.809
240.711
255.013
267.542
278.03
286.305
292.425
296.681
299.496
301.286
302.389
303.053
303.444
303.668
303.793
303.861
303.897
303.916
303.924
303.92
303.905
303.88
303.843
303.792
303.725
303.647
303.554
303.444
303.325
303.199
303.061
302.9
302.73
302.577
302.454
302.352
302.246
302.133
302.044
301.998
301.982
301.961
301.903
301.802
301.702
301.618
301.562
301.511
301.455
301.406
301.386
301.375
301.363
301.326
301.262
301.189
301.139
301.139
301.208
301.351
301.544
301.758
18.9426
52.8119
76.1122
83.4486
84.1322
82.8913
81.3394
81.3805
87.9248
99.9917
116.714
134.27
150.328
164.601
177.333
188.649
198.467
206.613
212.99
217.676
220.921
223.063
224.422
225.261
225.765
226.062
226.232
226.327
226.378
226.405
226.419
226.425
226.421
226.408
226.386
226.355
226.312
226.255
226.189
226.112
226.019
225.919
225.814
225.697
225.562
225.418
225.291
225.191
225.108
225.021
224.927
224.852
224.814
224.804
224.788
224.739
224.653
224.567
224.495
224.448
224.406
224.358
224.316
224.302
224.296
224.29
224.26
224.205
224.14
224.096
224.097
224.157
224.278
224.441
224.621
8.18741
25.0224
43.8953
53.7555
57.1368
57.717
57.1652
56.8612
62.0565
74.6387
91.3822
107.642
121.876
134.256
145.171
154.796
163.091
169.934
175.264
179.17
181.87
183.653
184.785
185.484
185.905
186.153
186.294
186.373
186.416
186.438
186.45
186.455
186.451
186.439
186.419
186.392
186.353
186.302
186.243
186.174
186.092
186.003
185.909
185.805
185.684
185.556
185.443
185.356
185.285
185.208
185.125
185.058
185.025
185.018
185.005
184.961
184.883
184.805
184.74
184.7
184.662
184.619
184.582
184.571
184.567
184.564
184.538
184.488
184.428
184.388
184.389
184.444
184.553
184.699
184.858
4.21892
11.9897
24.7108
34.571
39.5748
41.5504
41.8658
41.6854
46.7205
59.966
76.5592
91.8156
104.769
115.864
125.566
134.076
141.38
147.386
152.056
155.477
157.845
159.411
160.408
161.024
161.396
161.616
161.741
161.811
161.849
161.869
161.879
161.883
161.88
161.868
161.85
161.825
161.789
161.742
161.688
161.625
161.55
161.468
161.382
161.286
161.175
161.057
160.954
160.876
160.812
160.742
160.666
160.604
160.576
160.57
160.559
160.518
160.445
160.373
160.313
160.277
160.242
160.203
160.169
160.16
160.157
160.156
160.133
160.085
160.029
159.992
159.993
160.044
160.145
160.28
160.426
2.53593
6.06794
13.4277
21.5423
27.1045
30.0548
31.1341
31.3561
36.6702
50.3599
66.6697
81.1072
93.0938
103.24
112.058
119.765
126.368
131.793
136.017
139.118
141.272
142.702
143.616
144.182
144.525
144.728
144.844
144.909
144.944
144.963
144.973
144.976
144.973
144.962
144.945
144.921
144.888
144.844
144.793
144.734
144.665
144.588
144.508
144.419
144.314
144.205
144.109
144.037
143.978
143.914
143.842
143.785
143.759
143.754
143.744
143.706
143.637
143.569
143.513
143.48
143.447
143.411
143.379
143.371
143.37
143.37
143.348
143.302
143.248
143.214
143.215
143.263
143.358
143.483
143.619
1.72018
3.39512
7.19188
12.8173
17.9461
21.3723
23.0614
23.8145
29.508
43.3925
59.3483
73.1011
84.3233
93.7313
101.867
108.963
115.04
120.044
123.954
126.839
128.855
130.2
131.063
131.601
131.928
132.122
132.234
132.296
132.331
132.349
132.358
132.362
132.359
132.348
132.332
132.31
132.279
132.237
132.19
132.134
132.068
131.996
131.921
131.837
131.738
131.635
131.545
131.478
131.423
131.362
131.295
131.241
131.216
131.212
131.203
131.167
131.102
131.037
130.984
130.953
130.922
130.888
130.858
130.85
130.85
130.851
130.83
130.787
130.735
130.702
130.703
130.748
130.837
130.955
131.083
1.27855
2.1316
3.97966
7.32575
11.3205
14.6707
16.7299
18.0054
24.0151
37.8763
53.4418
66.6128
77.2133
86.0252
93.6125
100.221
105.891
110.578
114.263
117.002
118.931
120.228
121.065
121.59
121.91
122.101
122.212
122.274
122.309
122.326
122.336
122.34
122.337
122.328
122.312
122.291
122.262
122.223
122.177
122.125
122.063
121.995
121.923
121.843
121.75
121.652
121.567
121.504
121.452
121.394
121.33
121.279
121.255
121.252
121.243
121.209
121.147
121.085
121.035
121.005
120.976
120.943
120.914
120.908
120.908
120.909
120.89
120.848
120.798
120.766
120.767
120.81
120.893
121.005
121.125
1.0187
1.48316
2.38204
4.15505
6.79848
9.58858
11.703
13.3634
19.5322
33.1806
48.3301
61.0008
71.0864
79.4042
86.5365
92.7458
98.0883
102.532
106.054
108.697
110.576
111.851
112.681
113.204
113.525
113.718
113.83
113.894
113.929
113.947
113.957
113.962
113.96
113.951
113.936
113.916
113.889
113.851
113.808
113.759
113.7
113.635
113.567
113.491
113.403
113.309
113.229
113.168
113.119
113.065
113.004
112.954
112.931
112.928
112.92
112.888
112.829
112.77
112.721
112.693
112.665
112.634
112.606
112.6
112.6
112.602
112.584
112.544
112.496
112.465
112.465
112.505
112.583
112.688
112.801
0.856495
1.1203
1.57162
2.45575
3.97309
5.94733
7.79563
9.59683
15.6982
28.9525
43.6575
55.8924
65.5466
73.4479
80.1944
86.0667
91.1392
95.3898
98.7936
101.377
103.236
104.509
105.345
105.877
106.205
106.403
106.519
106.585
106.623
106.642
106.653
106.658
106.656
106.648
106.635
106.616
106.59
106.554
106.514
106.467
106.411
106.35
106.285
106.213
106.128
106.039
105.962
105.905
105.858
105.806
105.748
105.7
105.678
105.674
105.667
105.636
105.581
105.524
105.478
105.45
105.423
105.393
105.367
105.361
105.361
105.363
105.346
105.308
105.262
105.232
105.231
105.268
105.341
105.44
105.547
0.751143
0.9019
1.13575
1.57106
2.36051
3.55872
4.9275
6.59416
12.3375
24.9933
39.2124
51.0604
60.3513
67.8981
74.3121
79.894
84.7375
88.8319
92.1491
94.7
96.5582
97.846
98.7008
99.2486
99.5897
99.7968
99.9191
99.9895
100.029
100.051
100.062
100.067
100.067
100.059
100.047
100.029
100.005
99.9714
99.9329
99.8885
99.8359
99.7777
99.7161
99.6475
99.5675
99.483
99.4095
99.3546
99.3096
99.2603
99.2047
99.1588
99.1365
99.1324
99.1253
99.0967
99.0444
98.9902
98.9456
98.9185
98.8927
98.8641
98.8386
98.8323
98.8328
98.8355
98.8199
98.7838
98.7397
98.71
98.7079
98.7415
98.8096
98.9025
99.0025
0.681087
0.763105
0.884588
1.10003
1.49149
2.13692
3.0001
4.31511
9.38712
21.2035
34.8703
46.3634
55.347
62.5912
68.716
74.043
78.6874
82.6509
85.9035
88.4406
90.315
91.6306
92.5135
93.0849
93.4437
93.6631
93.7938
93.8697
93.9129
93.9362
93.9492
93.9552
93.9552
93.9486
93.9373
93.921
93.898
93.8667
93.8305
93.7886
93.7391
93.6841
93.6258
93.5607
93.4849
93.4047
93.3347
93.282
93.2389
93.1919
93.139
93.0946
93.0724
93.0677
93.0608
93.0342
92.9851
92.9336
92.8907
92.8642
92.8393
92.812
92.7875
92.781
92.7814
92.7842
92.77
92.7361
92.694
92.665
92.6618
92.692
92.7547
92.8412
92.9346
0.634032
0.671605
0.730784
0.835756
1.02588
1.34938
1.82683
2.71559
6.85137
17.5549
30.5653
41.7144
50.4361
57.4229
63.2951
68.3955
72.8623
76.712
79.9144
82.4508
84.3532
85.707
86.6268
87.2283
87.6094
87.8446
87.9858
88.0685
88.116
88.1421
88.1566
88.1636
88.1645
88.1588
88.1486
88.1336
88.1122
88.0831
88.0492
88.0099
87.9635
87.9117
87.8566
87.7952
87.7237
87.6479
87.5811
87.5305
87.4892
87.4446
87.3943
87.3515
87.3291
87.3236
87.3169
87.2923
87.2467
87.1979
87.1567
87.1308
87.1068
87.0807
87.0572
87.0503
87.0505
87.0533
87.0406
87.0091
86.9693
86.941
86.9365
86.9631
87.0203
87.1003
87.1871
0.602485
0.610011
0.632179
0.678681
0.767679
0.923099
1.16517
1.69158
4.7651
14.0741
26.2771
37.065
45.5584
52.3271
57.9794
62.8769
67.1819
70.9284
74.0889
76.6325
78.5713
79.9717
80.9359
81.5737
81.9819
82.2361
82.3902
82.4812
82.534
82.5633
82.5798
82.588
82.5899
82.5853
82.5762
82.5625
82.5429
82.5159
82.4844
82.4478
82.4045
82.356
82.3043
82.2466
82.1795
82.1081
82.0446
81.9961
81.9565
81.9142
81.8666
81.8254
81.8029
81.7965
81.7898
81.7672
81.7251
81.6792
81.6399
81.6145
81.5913
81.5665
81.544
81.5367
81.5365
81.5393
81.5281
81.4991
81.4617
81.4342
81.4284
81.4514
81.503
81.5762
81.6562
0.581598
0.56826
0.567058
0.580681
0.617145
0.687409
0.802925
1.08647
3.15373
10.8315
22.0258
32.3978
40.6803
47.2645
52.7269
57.4421
61.5976
65.2468
68.3686
70.9232
72.9037
74.3574
75.3726
76.0528
76.493
76.7698
76.9392
77.0403
77.0994
77.1327
77.1515
77.1613
77.1643
77.1609
77.153
77.1407
77.1228
77.0981
77.0689
77.035
76.995
76.9499
76.9016
76.8476
76.7851
76.7182
76.6582
76.6117
76.5737
76.5337
76.4889
76.4494
76.4268
76.4194
76.4127
76.3921
76.3536
76.3107
76.2733
76.2485
76.2261
76.2026
76.1811
76.1733
76.1728
76.1754
76.1657
76.1394
76.1045
76.078
76.0709
76.0903
76.1362
76.2025
76.2756
0.568079
0.540127
0.523434
0.517429
0.525186
0.551449
0.601759
0.744701
2.00352
7.92525
17.8709
27.7242
35.7902
42.2158
47.5153
52.0676
56.0834
59.6381
62.7208
65.2864
67.3113
68.8232
69.8959
70.6245
71.1018
71.4051
71.5927
71.7057
71.7725
71.8107
71.8324
71.8439
71.8483
71.8461
71.8395
71.8286
71.8125
71.7901
71.7634
71.7323
71.6955
71.6539
71.609
71.559
71.501
71.4388
71.3824
71.338
71.3017
71.2639
71.2219
71.1843
71.1616
71.1531
71.1463
71.1276
71.0928
71.0531
71.0178
70.9936
70.9721
70.9498
70.9294
70.9212
70.9201
70.9225
70.9141
70.8906
70.8585
70.8331
70.825
70.8407
70.8808
70.9402
71.0062
0.559602
0.521507
0.494216
0.475853
0.467051
0.469586
0.485907
0.55271
1.25199
5.45929
13.9093
23.0862
30.8973
37.1774
42.3374
46.745
50.6301
54.0912
57.1314
59.7052
61.7749
63.3491
64.4852
65.2686
65.7886
66.123
66.332
66.4593
66.5352
66.5792
66.6044
66.6181
66.624
66.6233
66.618
66.6086
66.5943
66.5742
66.55
66.5217
66.4882
66.4501
66.4089
66.3628
66.3095
66.2521
66.1993
66.1571
66.1224
66.087
66.0479
66.0122
65.9895
65.98
65.973
65.9561
65.9249
65.8886
65.8555
65.832
65.8115
65.7905
65.7711
65.7626
65.7609
65.7629
65.7558
65.7351
65.7059
65.6818
65.6728
65.685
65.7194
65.7718
65.8307
0.5545
0.509541
0.474918
0.448451
0.429601
0.418694
0.416627
0.442657
0.801743
3.51409
10.2706
18.5596
26.0334
32.1609
37.1979
41.4779
45.2412
48.6085
51.6011
54.178
56.2913
57.9309
59.1365
59.9817
60.5509
60.9215
61.1557
61.2999
61.3868
61.4377
61.4672
61.4835
61.4912
61.4921
61.4883
61.4804
61.468
61.4502
61.4286
61.4031
61.3729
61.3383
61.3007
61.2586
61.2101
61.1576
61.1086
61.0687
61.0357
61.0026
60.9663
60.9327
60.9102
60.8998
60.8924
60.8772
60.8496
60.8167
60.786
60.7634
60.7438
60.7241
60.7059
60.697
60.6947
60.6962
60.6903
60.6723
60.6462
60.6237
60.6138
60.6228
60.6516
60.6972
60.749
0.551577
0.502159
0.462517
0.430612
0.40541
0.386528
0.374061
0.377885
0.549703
2.11629
7.10063
14.2572
21.2574
27.1948
32.1127
36.279
39.9291
43.2027
46.1417
48.7151
50.8695
52.5774
53.8592
54.7743
55.4001
55.8129
56.0769
56.2412
56.3412
56.4005
56.4351
56.4546
56.4645
56.4671
56.4647
56.4584
56.4479
56.4324
56.4133
56.3906
56.3637
56.3327
56.2988
56.2607
56.2169
56.1693
56.1242
56.0868
56.0556
56.0247
55.9913
55.9598
55.9378
55.9265
55.9187
55.9051
55.8809
55.8514
55.8232
55.8017
55.7831
55.7647
55.7477
55.7386
55.7357
55.7366
55.7317
55.7163
55.6933
55.6725
55.6622
55.6681
55.6917
55.7305
55.7753
0.549996
0.497832
0.454862
0.41931
0.389993
0.366199
0.347605
0.339043
0.413715
1.21971
4.53316
10.3265
16.6611
22.3283
27.1102
31.1697
34.714
37.8943
40.7736
43.3364
45.5289
47.3085
48.6741
49.6684
50.3595
50.8217
51.1208
51.309
51.4246
51.4939
51.5347
51.5581
51.5704
51.575
51.5743
51.5696
51.5609
51.5477
51.5311
51.5112
51.4874
51.46
51.4297
51.3956
51.3565
51.3138
51.2727
51.2379
51.2085
51.1799
51.1492
51.1201
51.0987
51.0867
51.0785
51.0662
51.0451
51.0191
50.9935
50.9733
50.9557
50.9387
50.9228
50.9137
50.9102
50.9104
50.9063
50.8933
50.8734
50.8545
50.844
50.8473
50.8659
50.8983
50.9363
0.549196
0.495449
0.450381
0.412442
0.38045
0.353568
0.331259
0.315657
0.341167
0.71263
2.64804
6.93505
12.3734
17.6384
22.2369
26.1814
29.6228
32.7097
35.5236
38.0689
40.2974
42.1531
43.6121
44.6966
45.4632
45.983
46.3233
46.5397
46.6739
46.7551
46.8034
46.8314
46.8467
46.8534
46.8544
46.8514
46.8444
46.8335
46.8193
46.8021
46.7814
46.7574
46.7306
46.7006
46.666
46.6281
46.5911
46.559
46.5315
46.505
46.4771
46.4503
46.4297
46.4172
46.4086
46.3974
46.3792
46.3565
46.3337
46.3149
46.2984
46.2827
46.2681
46.259
46.255
46.2545
46.2509
46.2402
46.2232
46.2063
46.196
46.1969
46.211
46.2374
46.2689
0.54882
0.494229
0.447926
0.408497
0.374807
0.345985
0.321395
0.301763
0.302643
0.456779
1.43025
4.23821
8.55753
13.2359
17.5606
21.3582
24.6899
27.6808
30.4239
32.9461
35.2102
37.1492
38.7134
39.901
40.7548
41.3415
41.7299
41.9792
42.1352
42.2305
42.2875
42.321
42.3397
42.3489
42.3518
42.3503
42.3452
42.3363
42.3244
42.3098
42.2921
42.2713
42.248
42.2217
42.1915
42.1583
42.1253
42.096
42.0705
42.0462
42.0209
41.9964
41.9768
41.964
41.9551
41.9447
41.9291
41.9095
41.8893
41.8721
41.8568
41.8424
41.8291
41.8201
41.8157
41.8145
41.8114
41.8025
41.7882
41.7735
41.7635
41.7626
41.7727
41.7935
41.819
0.548657
0.493653
0.446682
0.406387
0.37167
0.341661
0.315686
0.293767
0.282487
0.337063
0.75704
2.32564
5.39161
9.26927
13.1794
16.7626
19.9603
22.8459
25.5121
28.0079
30.3111
32.3439
34.0279
35.3334
36.287
36.9504
37.394
37.6813
37.8624
37.9739
38.0413
38.081
38.1037
38.1155
38.1204
38.1207
38.1172
38.1103
38.1006
38.0883
38.0733
38.0557
38.0356
38.0128
37.9868
37.9579
37.9289
37.9024
37.879
37.8567
37.8339
37.8117
37.7933
37.7804
37.7711
37.7615
37.748
37.7313
37.7137
37.6981
37.6842
37.6711
37.6589
37.6503
37.6455
37.6437
37.6407
37.6334
37.6216
37.6089
37.5994
37.5971
37.6039
37.6198
37.6398
0.548592
0.493406
0.446106
0.40535
0.370057
0.339362
0.312579
0.289394
0.272286
0.283222
0.439871
1.16432
3.02312
5.9148
9.22788
12.4845
15.4955
18.2532
20.8335
23.3031
25.6545
27.7965
29.6174
31.0563
32.1222
32.8717
33.3772
33.707
33.9165
34.0463
34.1251
34.1721
34.1992
34.2139
34.2209
34.2228
34.2209
34.2158
34.208
34.198
34.1855
34.1706
34.1535
34.1341
34.1118
34.087
34.0617
34.038
34.0166
33.9963
33.9758
33.9557
33.9385
33.9258
33.9164
33.9072
33.8956
33.8814
33.8662
33.8523
33.8396
33.8278
33.8168
33.8086
33.8036
33.8012
33.7982
33.7922
33.7825
33.7716
33.763
33.7597
33.7637
33.7753
33.7905
0.548569
0.493309
0.445865
0.404889
0.369303
0.338243
0.311018
0.287168
0.267394
0.259842
0.307394
0.582365
1.49754
3.34139
5.87331
8.65049
11.3821
13.9679
16.448
18.8962
21.3122
23.5833
25.5589
27.145
28.3334
29.1761
29.7486
30.1245
30.3645
30.5142
30.6055
30.6603
30.6922
30.71
30.7191
30.7226
30.7222
30.7187
30.7127
30.7046
30.6943
30.6818
30.6674
30.6509
30.6319
30.6108
30.5889
30.5679
30.5485
30.5301
30.5116
30.4935
30.4775
30.4652
30.4557
30.4469
30.4367
30.4246
30.4116
30.3994
30.388
30.3774
30.3675
30.3598
30.3546
30.3517
30.3487
30.3435
30.3355
30.3264
30.3186
30.3147
30.3165
30.3246
30.3357
0.548561
0.493276
0.445775
0.404706
0.368988
0.337755
0.310311
0.286136
0.265219
0.250233
0.255815
0.341268
0.695747
1.63861
3.28763
5.41967
7.74188
10.085
12.4439
14.8819
17.3857
19.8065
21.9502
23.6913
25.0065
25.9453
26.5865
27.0096
27.281
27.451
27.5553
27.618
27.6549
27.6758
27.687
27.692
27.6929
27.6908
27.6863
27.6798
27.6713
27.661
27.6488
27.6348
27.6187
27.6007
27.5818
27.5633
27.5458
27.529
27.5122
27.4959
27.4812
27.4692
27.4597
27.4513
27.4422
27.4318
27.4207
27.4099
27.3998
27.3903
27.3814
27.3742
27.3691
27.3657
27.3625
27.3578
27.3512
27.3435
27.3365
27.3324
27.3326
27.3379
27.3457
0.548559
0.493265
0.445744
0.404642
0.368872
0.337568
0.31003
0.285712
0.264342
0.24659
0.236915
0.253891
0.361858
0.728697
1.5777
2.96265
4.73833
6.75155
8.96597
11.4102
14.0239
16.6055
18.9179
20.8092
22.2456
23.2755
23.9818
24.4497
24.751
24.9403
25.0569
25.1273
25.1689
25.1928
25.2059
25.2122
25.2143
25.2133
25.2099
25.2047
25.1977
25.189
25.1786
25.1666
25.1528
25.1374
25.1211
25.1046
25.0887
25.0733
25.058
25.0431
25.0294
25.018
25.0086
25.0004
24.9921
24.983
24.9734
24.9639
24.9549
24.9464
24.9384
24.9317
24.9266
24.9229
24.9194
24.915
24.9092
24.9025
24.8964
24.8922
24.8913
24.8947
24.8999
0.548558
0.493263
0.445735
0.404622
0.368835
0.337507
0.309934
0.285562
0.264032
0.245347
0.230574
0.22495
0.247489
0.356444
0.684487
1.39734
2.57166
4.19762
6.25646
8.71754
11.4426
14.1703
16.6277
18.6453
20.1826
21.2882
22.0488
22.5539
22.8801
23.0857
23.2126
23.2894
23.335
23.3613
23.376
23.3835
23.3864
23.3861
23.3836
23.3793
23.3733
23.3658
23.3567
23.3461
23.334
23.3205
23.3061
23.2913
23.2766
23.2622
23.2479
23.2341
23.2213
23.2103
23.2011
23.193
23.1852
23.177
23.1685
23.1601
23.152
23.1443
23.1371
23.1308
23.1257
23.1217
23.1178
23.1133
23.1079
23.102
23.0965
23.0924
23.091
23.093
23.0965
0.548558
0.493263
0.445733
0.404617
0.368826
0.337491
0.309908
0.285521
0.263942
0.244991
0.228769
0.21669
0.214767
0.242812
0.357657
0.688644
1.42909
2.74247
4.67342
7.1416
9.9388
12.7585
15.3057
17.4011
19.0005
20.153
20.9471
21.4755
21.8172
22.033
22.1664
22.2472
22.2953
22.3232
22.3388
22.3469
22.3503
22.3505
22.3484
22.3446
22.3391
22.3321
22.3237
22.3139
22.3028
22.2904
22.2771
22.2634
22.2495
22.2356
22.2219
22.2086
22.1965
22.1858
22.1767
22.1686
22.1609
22.1532
22.1454
22.1377
22.1302
22.1231
22.1165
22.1105
22.1055
22.101
22.0966
22.0917
22.0863
22.0808
22.0757
22.0719
22.0702
22.0717
22.0744
0.548558
0.493263
0.445733
0.404616
0.368826
0.337491
0.309908
0.285521
0.263943
0.244998
0.228796
0.216776
0.215
0.243298
0.358134
0.687273
1.42229
2.72722
4.64945
7.11179
9.9068
12.7269
15.2758
17.373
18.9741
20.1278
20.9228
21.4518
21.794
22.01
22.1436
22.2246
22.2728
22.3007
22.3164
22.3245
22.3278
22.3279
22.3258
22.3218
22.3162
22.3091
22.3005
22.2907
22.2796
22.2675
22.2546
22.241
22.2271
22.213
22.1992
22.1861
22.1741
22.1636
22.1544
22.1461
22.1383
22.1306
22.1231
22.1156
22.1085
22.1016
22.0953
22.0895
22.0843
22.0793
22.074
22.0684
22.0626
22.0571
22.0522
22.0487
22.0473
22.0488
22.0517
0.548558
0.493263
0.445735
0.404622
0.368835
0.337507
0.309934
0.285563
0.264038
0.245381
0.230708
0.225375
0.248596
0.35844
0.685107
1.389
2.54508
4.14645
6.1825
8.62889
11.3488
14.0781
16.5402
18.563
20.1048
21.214
21.977
22.4839
22.8113
23.0177
23.1452
23.2224
23.2682
23.2947
23.3094
23.3168
23.3195
23.319
23.3163
23.3117
23.3053
23.2974
23.288
23.2773
23.2655
23.2527
23.2392
23.225
23.2103
23.1953
23.1807
23.1671
23.155
23.1444
23.1351
23.1264
23.1181
23.11
23.1023
23.0947
23.0874
23.0805
23.0743
23.0684
23.063
23.0572
23.0508
23.0439
23.0374
23.0316
23.0268
23.0236
23.0229
23.0254
23.0293
0.548559
0.493265
0.445744
0.404642
0.368872
0.337568
0.31003
0.285714
0.264362
0.246705
0.237371
0.255301
0.365228
0.732806
1.57358
2.93598
4.67902
6.6563
8.84048
11.2659
13.8736
16.4583
18.7778
20.6769
22.12
23.155
23.865
24.3354
24.6384
24.829
24.9465
25.0174
25.0594
25.0835
25.0966
25.1028
25.1045
25.1031
25.0994
25.0937
25.0861
25.0767
25.0659
25.0536
25.0404
25.0263
25.0116
24.9961
24.9799
24.9634
24.9476
24.9332
24.9208
24.91
24.9003
24.8909
24.8819
24.8731
24.8648
24.8568
24.8492
24.842
24.8356
24.8296
24.8237
24.8169
24.809
24.8006
24.7931
24.7868
24.7822
24.7795
24.7798
24.7838
24.7898
0.548561
0.493276
0.445775
0.404706
0.368987
0.337755
0.310311
0.286143
0.265279
0.25058
0.257183
0.345393
0.703837
1.6424
3.2681
5.36061
7.63772
9.9391
12.2659
14.6851
17.1834
19.6086
21.7611
23.5116
24.8349
25.7798
26.4255
26.8516
27.1252
27.2967
27.4021
27.4655
27.5028
27.524
27.5352
27.5399
27.5403
27.5376
27.5326
27.5253
27.5161
27.5048
27.492
27.4776
27.4625
27.4465
27.4302
27.4128
27.3946
27.376
27.3586
27.3432
27.3304
27.3193
27.3091
27.2989
27.2889
27.279
27.2701
27.2614
27.2532
27.2455
27.2389
27.2326
27.2261
27.2179
27.2082
27.198
27.1893
27.1826
27.1782
27.1762
27.1779
27.1842
27.1929
0.548569
0.493309
0.445865
0.404889
0.369302
0.338242
0.311018
0.287186
0.267561
0.260797
0.311172
0.592934
1.51159
3.33646
5.82419
8.54624
11.2248
13.7675
16.2175
18.6494
21.0619
23.3386
25.324
26.9203
28.1174
28.9668
29.5441
29.9233
30.1656
30.3169
30.4096
30.4651
30.4975
30.5155
30.5247
30.5277
30.5266
30.5223
30.5157
30.5065
30.4952
30.4815
30.4663
30.4494
30.4319
30.4137
30.3953
30.3755
30.3548
30.3337
30.3144
30.2979
30.2849
30.2735
30.2627
30.2512
30.2399
30.2288
30.2191
30.2095
30.2006
30.1922
30.1855
30.1787
30.1715
30.1616
30.1497
30.1373
30.1274
30.1204
30.1164
30.1153
30.1188
30.128
30.1403
0.548592
0.493405
0.446105
0.405349
0.370055
0.33936
0.312579
0.28944
0.272706
0.285658
0.449553
1.18647
3.03907
5.88772
9.13531
12.3259
15.2806
17.9972
20.5514
23.0086
25.3591
27.508
29.3394
30.7887
31.8634
32.6196
33.1298
33.463
33.6748
33.8063
33.8866
33.9343
33.962
33.9769
33.9839
33.985
33.9823
33.9762
33.9678
33.9564
33.9426
33.9262
33.9082
33.8883
33.8681
33.8472
33.8265
33.8039
33.7804
33.7563
33.735
33.7175
33.7043
33.6925
33.681
33.6681
33.6553
33.6427
33.6321
33.6214
33.6117
33.6026
33.5956
33.5884
33.5804
33.5684
33.5537
33.5389
33.528
33.5209
33.5174
33.5176
33.5233
33.5361
33.5528
0.548656
0.493652
0.446681
0.406384
0.371666
0.341655
0.315688
0.293871
0.283473
0.342946
0.779314
2.36194
5.39882
9.20517
13.0327
16.5438
19.6862
22.5348
25.1798
27.6675
29.9728
32.0139
33.7086
35.0245
35.9867
36.6564
37.1046
37.395
37.5785
37.6918
37.7606
37.8012
37.8243
37.8363
37.8412
37.8404
37.8359
37.8278
37.8174
37.8034
37.7869
37.7674
37.7463
37.7231
37.6999
37.6761
37.6528
37.6272
37.6004
37.5731
37.5498
37.5313
37.5182
37.506
37.4937
37.4789
37.4644
37.4502
37.4386
37.4268
37.4162
37.4062
37.3991
37.3913
37.3824
37.368
37.3503
37.3329
37.321
37.3139
37.3113
37.3129
37.3214
37.3384
37.3603
0.548819
0.494227
0.447923
0.408491
0.374798
0.345973
0.321397
0.301986
0.304836
0.470343
1.4738
4.28466
8.54133
13.122
17.3531
21.077
24.3572
27.3161
30.0432
32.5616
34.8306
36.7791
38.3544
39.5521
40.414
41.0066
41.3992
41.6514
41.8097
41.9068
41.9654
41.9996
42.0188
42.028
42.0309
42.0282
42.0217
42.0115
41.9989
41.9822
41.9627
41.9397
41.9154
41.8886
41.8621
41.8353
41.8093
41.7803
41.75
41.7193
41.694
41.6746
41.6618
41.6492
41.6359
41.619
41.6026
41.5867
41.5742
41.5611
41.5495
41.5385
41.5315
41.5232
41.5133
41.496
41.4749
41.4547
41.4422
41.4354
41.4339
41.4372
41.4489
41.4708
41.4986
0.549195
0.495445
0.450374
0.412429
0.380433
0.353546
0.331265
0.316112
0.345849
0.741835
2.71896
6.9808
12.3189
17.4658
21.9658
25.8385
29.2332
32.2935
35.0964
37.6418
39.8777
41.7441
43.2145
44.3087
45.083
45.6082
45.9523
46.1713
46.3076
46.3906
46.4406
46.4692
46.4849
46.4916
46.4927
46.488
46.4794
46.467
46.4521
46.4324
46.4098
46.3832
46.3554
46.3248
46.295
46.265
46.2363
46.2036
46.1697
46.1353
46.1081
46.0881
46.0758
46.0628
46.0483
46.0291
46.0106
45.9928
45.9795
45.9651
45.9524
45.9405
45.9337
45.9247
45.9137
45.8932
45.8685
45.8456
45.8327
45.8264
45.8261
45.8315
45.8468
45.8743
45.9085
0.549994
0.497824
0.454847
0.419287
0.389961
0.366158
0.347617
0.339935
0.423429
1.27604
4.63093
10.3567
16.5561
22.0922
26.7753
30.7668
34.2697
37.4287
40.3016
42.868
45.0702
46.8615
48.2386
49.2424
49.9406
50.4077
50.7101
50.9007
51.0183
51.0894
51.132
51.1559
51.1686
51.1731
51.1724
51.1657
51.1551
51.1403
51.1231
51.1003
51.0744
51.044
51.0126
50.978
50.9448
50.9115
50.8801
50.8436
50.8059
50.7677
50.7388
50.7184
50.7069
50.6934
50.6777
50.6557
50.6351
50.6155
50.6014
50.5856
50.5719
50.559
50.5526
50.5428
50.5308
50.5068
50.4782
50.4525
50.4396
50.4341
50.4352
50.4428
50.4622
50.4956
50.5368
0.551571
0.502144
0.462491
0.430573
0.405357
0.386457
0.37408
0.379584
0.569298
2.21119
7.21726
14.2568
21.0939
26.8936
31.7147
35.8181
39.4323
42.6897
45.6265
48.2066
50.3725
52.093
53.3864
54.3107
54.9431
55.3603
55.6273
55.7937
55.8956
55.9567
55.9931
56.0131
56.0232
56.0258
56.0235
56.0147
56.0021
55.9849
55.9653
55.9392
55.9099
55.8756
55.8407
55.802
55.7654
55.7288
55.6946
55.6542
55.6127
55.5708
55.5403
55.5196
55.5092
55.4951
55.478
55.4531
55.4303
55.4087
55.3942
55.3768
55.3621
55.3483
55.3424
55.3318
55.3188
55.2909
55.2583
55.2301
55.2174
55.2128
55.2155
55.2255
55.2494
55.2892
55.3377
0.554489
0.509515
0.474874
0.448385
0.429512
0.418573
0.416658
0.445838
0.839473
3.65437
10.3929
18.516
25.8071
31.7952
36.7391
40.9616
44.6942
48.0498
51.0439
53.6302
55.7566
57.4095
58.6268
59.481
60.0563
60.4308
60.6677
60.8138
60.9025
60.9553
60.9866
61.0033
61.0112
61.012
61.0082
60.9974
60.9827
60.9631
60.9412
60.9117
60.879
60.8408
60.8023
60.7594
60.7195
60.6795
60.6427
60.5983
60.553
60.5073
60.4755
60.4547
60.4455
60.4307
60.4122
60.3841
60.3592
60.3357
60.3207
60.3018
60.2862
60.2714
60.2662
60.2548
60.2408
60.2088
60.1722
60.1414
60.1292
60.1258
60.1302
60.1427
60.1713
60.2179
60.274
0.559583
0.521462
0.494144
0.475747
0.466906
0.469378
0.485947
0.558598
1.31927
5.64448
14.0225
22.9908
30.607
36.7492
41.8204
46.1755
50.0348
53.4884
56.5334
59.1188
61.2029
62.7909
63.9388
64.7308
65.2566
65.5944
65.8058
65.9348
66.0125
66.0584
66.0856
66.0994
66.1055
66.1047
66.0996
66.0867
66.07
66.048
66.0238
65.9908
65.9548
65.9126
65.8706
65.8235
65.7803
65.737
65.6977
65.6493
65.6002
65.5508
65.5178
65.4971
65.4892
65.4737
65.4537
65.4223
65.3952
65.3699
65.3546
65.334
65.3175
65.3018
65.2975
65.2852
65.2702
65.234
65.1934
65.1602
65.1489
65.1466
65.1528
65.168
65.2016
65.255
65.3189
0.568046
0.540055
0.523321
0.517261
0.524948
0.551088
0.601787
0.755459
2.11206
8.14797
17.9613
27.5721
35.4369
41.7275
46.9427
51.4469
55.4412
58.9923
62.0827
64.6617
66.702
68.2282
69.3126
70.0496
70.5322
70.8387
71.0284
71.143
71.2116
71.2517
71.2755
71.287
71.2915
71.2893
71.2829
71.268
71.2493
71.225
71.1985
71.1621
71.1227
71.0766
71.0312
70.9799
70.9335
70.8869
70.8451
70.7927
70.74
70.6869
70.6529
70.6324
70.626
70.6096
70.588
70.5533
70.5241
70.4969
70.4815
70.4592
70.4419
70.4252
70.422
70.4088
70.3928
70.3523
70.3078
70.2723
70.2621
70.2609
70.2691
70.2871
70.3257
70.3861
70.4577
0.581545
0.568149
0.566885
0.580414
0.616747
0.686763
0.802864
1.10551
3.31124
11.0798
22.0831
32.1874
40.2663
46.719
52.1007
56.7719
60.9099
64.5589
67.6908
70.2603
72.257
73.7252
74.7522
75.4404
75.8857
76.1654
76.3367
76.4391
76.5001
76.5355
76.5565
76.5661
76.5692
76.5656
76.558
76.5412
76.5206
76.494
76.4653
76.4254
76.3828
76.3328
76.2841
76.2287
76.1791
76.1292
76.0852
76.0287
75.9725
75.9159
75.881
75.8607
75.8558
75.8385
75.8154
75.7772
75.746
75.717
75.7015
75.6776
75.6595
75.6419
75.6398
75.6256
75.6088
75.564
75.5156
75.478
75.469
75.469
75.479
75.4998
75.5436
75.6111
75.6904
0.602401
0.609842
0.63191
0.678248
0.766996
0.921905
1.16478
1.72309
4.97241
14.3347
26.2944
36.7969
45.0865
51.7266
57.3016
62.1584
66.4494
70.1986
73.3712
75.931
77.8865
79.3018
80.2777
80.9233
81.3364
81.5932
81.749
81.8413
81.8958
81.9274
81.9461
81.954
81.9559
81.9512
81.9425
81.9238
81.9014
81.8725
81.8416
81.7984
81.7526
81.6989
81.6469
81.5874
81.5346
81.4816
81.4354
81.375
81.3154
81.2552
81.2195
81.1995
81.1961
81.1778
81.1532
81.1115
81.0783
81.0476
81.0321
81.0065
80.9877
80.9692
80.9682
80.9531
80.9356
80.8865
80.8344
80.7948
80.787
80.7882
80.8001
80.8237
80.8726
80.947
81.0339
0.633905
0.67135
0.730363
0.835031
1.02466
1.34712
1.8255
2.76261
7.10253
17.8155
30.5392
41.3909
49.9093
56.7697
62.567
67.6295
72.0852
75.9401
79.1564
81.71
83.6296
84.9984
85.9299
86.5391
86.9247
87.1622
87.3051
87.3889
87.4382
87.4666
87.4835
87.49
87.4909
87.4851
87.4754
87.4549
87.4306
87.3995
87.3666
87.3201
87.2712
87.2138
87.1587
87.0951
87.0393
86.9831
86.9347
86.8705
86.8076
86.7439
86.7074
86.6877
86.6857
86.6665
86.6403
86.5952
86.56
86.5276
86.5121
86.485
86.4653
86.4459
86.4462
86.4301
86.412
86.3587
86.3029
86.2615
86.2549
86.2572
86.2709
86.2973
86.3514
86.4326
86.5268
0.680896
0.762718
0.883911
1.09877
1.48921
2.13268
2.99663
4.37732
9.67172
21.4544
34.8001
45.9875
54.7681
61.887
67.9383
73.2295
77.8652
81.8361
85.1041
87.6592
89.5512
90.8819
91.7766
92.3555
92.7185
92.9402
93.0724
93.1493
93.1943
93.2201
93.2355
93.2409
93.2409
93.2341
93.2235
93.2012
93.1752
93.142
93.107
93.0573
93.0054
92.9443
92.8861
92.8185
92.7596
92.7004
92.6498
92.5818
92.5157
92.4486
92.4112
92.3916
92.391
92.3708
92.3431
92.2947
92.2575
92.2234
92.208
92.1792
92.1589
92.1386
92.14
92.123
92.1044
92.0469
91.9877
91.9444
91.939
91.9423
91.9577
91.9869
92.046
92.1339
92.2353
0.750858
0.901304
1.13461
1.56874
2.35625
3.55123
4.92014
6.66769
12.6435
25.2275
39.0994
50.6356
59.7228
67.144
73.485
79.0325
83.8693
87.9728
91.3066
93.8762
95.7524
97.0555
97.922
98.4772
98.8224
99.0316
99.1553
99.2267
99.2683
99.292
99.3062
99.3107
99.31
99.3023
99.2908
99.2669
99.2391
99.2038
99.1669
99.114
99.059
98.9945
98.9332
98.8616
98.7995
98.7372
98.6844
98.6128
98.5434
98.4728
98.4344
98.4149
98.4156
98.3944
98.3652
98.3135
98.2743
98.2385
98.223
98.1927
98.1715
98.1503
98.1528
98.135
98.1159
98.0546
97.9919
97.9466