/*--------------------------------*- C++ -*----------------------------------*\
  =========                 |
  \\      /  F ield         | OpenFOAM: The Open Source CFD Toolbox
   \\    /   O peration     | Website:  https://openfoam.org
    \\  /    A nd           | Version:  7
     \\/     M anipulation  |
\*---------------------------------------------------------------------------*/
FoamFile
{
    version     2.0;
    format      ascii;
    class       volScalarField;
    location    "200";
    object      k;
}
// * * * * * * * * * * * * * * * * * * * * * * * * * * * * * * * * * * * * * //

dimensions      [0 2 -2 0 0 0 0];

internalField   nonuniform List<scalar> 
4500
(
2.1071
1.99002
1.89804
1.83452
1.78643
1.74959
1.72475
1.74777
1.89052
2.10721
2.31109
2.47823
2.61688
2.73708
2.84414
2.93978
3.02357
3.09423
3.15089
3.19384
3.22461
3.24558
3.25924
3.26782
3.27306
3.27618
3.27799
3.27901
3.27958
3.27989
3.28006
3.28014
3.28013
3.28006
3.27993
3.27974
3.27945
3.2791
3.27867
3.27817
3.27754
3.2769
3.27621
3.27546
3.27458
3.27367
3.27285
3.27216
3.27156
3.27095
3.2703
3.26982
3.26958
3.26948
3.26933
3.26899
3.26843
3.26791
3.26749
3.26719
3.26693
3.26661
3.26636
3.26625
3.26616
3.26603
3.26578
3.26541
3.26504
3.2648
3.26484
3.26522
3.26602
3.26706
3.26824
1.10353
1.67318
1.8379
1.85192
1.83298
1.80997
1.79352
1.82452
2.0053
2.30417
2.64257
2.96179
3.23881
3.47723
3.68529
3.86789
4.02578
4.1574
4.26156
4.33922
4.39385
4.43044
4.45396
4.46861
4.47751
4.48279
4.48583
4.48755
4.48848
4.48898
4.48925
4.48936
4.48931
4.48913
4.48882
4.48839
4.48774
4.48693
4.48596
4.48484
4.48348
4.48202
4.48047
4.47875
4.47673
4.47457
4.47267
4.47119
4.46997
4.46868
4.46724
4.46607
4.46546
4.46529
4.46506
4.46435
4.46307
4.46177
4.46068
4.45997
4.45932
4.45857
4.45792
4.4577
4.45763
4.4576
4.45722
4.45642
4.45543
4.45474
4.45472
4.45556
4.4573
4.45965
4.46222
0.644941
1.23225
1.53538
1.63721
1.66553
1.66918
1.66618
1.69942
1.92572
2.38511
2.91841
3.38819
3.77331
4.09427
4.36958
4.60884
4.81449
4.98534
5.12039
5.22121
5.29236
5.34021
5.37111
5.39044
5.4022
5.4092
5.41325
5.41553
5.41678
5.41744
5.41779
5.41794
5.41788
5.41762
5.4172
5.41662
5.41577
5.41466
5.41336
5.41187
5.41005
5.40809
5.40601
5.40369
5.40096
5.39805
5.3955
5.39356
5.39196
5.39025
5.38832
5.38673
5.38592
5.38572
5.38544
5.38448
5.38273
5.38095
5.37947
5.37853
5.37765
5.37664
5.37575
5.37548
5.37542
5.37546
5.37497
5.37386
5.37248
5.37153
5.3715
5.37265
5.375
5.37817
5.38159
0.463615
0.893407
1.25806
1.43578
1.51277
1.54561
1.55782
1.59547
1.87761
2.49863
3.19165
3.77102
4.23179
4.61028
4.93275
5.21206
5.45176
5.65088
5.80851
5.92651
6.01011
6.06657
6.10317
6.12613
6.14015
6.1485
6.15333
6.15607
6.15757
6.15836
6.15878
6.15896
6.1589
6.1586
6.1581
6.15742
6.15642
6.15511
6.15358
6.15182
6.14968
6.14737
6.14492
6.14219
6.13897
6.13554
6.13255
6.13028
6.12843
6.12642
6.12413
6.12226
6.12132
6.1211
6.12077
6.11963
6.11756
6.11545
6.1137
6.11261
6.11157
6.11038
6.10932
6.10903
6.10898
6.10905
6.10847
6.10714
6.10549
6.10437
6.10434
6.10571
6.10848
6.11221
6.11623
0.39407
0.646747
0.998494
1.23091
1.35548
1.42015
1.45033
1.49674
1.84297
2.61446
3.43819
4.10399
4.62455
5.04893
5.40934
5.72118
5.98891
6.21172
6.38864
6.52164
6.61632
6.68055
6.72235
6.74866
6.76477
6.77438
6.77996
6.78312
6.78486
6.78578
6.78627
6.78649
6.78642
6.78608
6.78553
6.78476
6.78365
6.78218
6.78047
6.77849
6.77611
6.77352
6.77077
6.76772
6.7641
6.76026
6.75692
6.75439
6.75232
6.75007
6.74751
6.7454
6.74436
6.74412
6.74375
6.74247
6.74013
6.73776
6.7358
6.73458
6.73341
6.73208
6.7309
6.73058
6.73053
6.73063
6.72998
6.72846
6.72659
6.72534
6.72531
6.72685
6.72995
6.73413
6.73861
0.370615
0.488912
0.769316
1.02352
1.18832
1.2855
1.33638
1.39664
1.80994
2.7155
3.64971
4.389
4.96101
5.42513
5.81858
6.15899
6.45175
6.6962
6.89121
7.03863
7.14419
7.21619
7.26327
7.29302
7.31128
7.32221
7.32857
7.33218
7.33418
7.33524
7.33581
7.33606
7.33601
7.33564
7.33504
7.33421
7.333
7.33139
7.32953
7.32738
7.32479
7.32195
7.31896
7.31562
7.31167
7.30748
7.30384
7.30109
7.29884
7.29637
7.29357
7.29127
7.29013
7.28987
7.28946
7.28805
7.2855
7.28291
7.28076
7.27944
7.27815
7.2767
7.2754
7.27506
7.27502
7.27513
7.27442
7.27275
7.2707
7.26932
7.26928
7.27096
7.27433
7.27887
7.28374
0.364546
0.403116
0.587023
0.823667
1.01295
1.13954
1.2128
1.2916
1.76961
2.79155
3.82206
4.62723
5.24597
5.74626
6.16984
6.53655
6.85277
7.11801
7.33093
7.49303
7.60994
7.69019
7.74296
7.77646
7.79709
7.80949
7.81672
7.82084
7.82314
7.82435
7.82501
7.82531
7.82526
7.82488
7.82424
7.82335
7.82207
7.82035
7.81835
7.81605
7.81328
7.81024
7.80703
7.80344
7.79921
7.79472
7.79081
7.78786
7.78544
7.78278
7.77977
7.77728
7.77604
7.77575
7.77532
7.7738
7.77106
7.76828
7.76596
7.76454
7.76316
7.76159
7.76019
7.75983
7.75978
7.75992
7.75916
7.75736
7.75514
7.75365
7.75359
7.75538
7.75896
7.76381
7.76899
0.364602
0.363348
0.461006
0.646601
0.836648
0.983968
1.07882
1.17929
1.71502
2.83558
3.95191
4.81831
5.48111
6.01542
6.46731
6.85893
7.19778
7.48366
7.7149
7.89245
8.02159
8.11092
8.17004
8.20776
8.2311
8.24517
8.25341
8.25813
8.26077
8.26217
8.26294
8.26329
8.26327
8.26288
8.26221
8.26128
8.25993
8.25811
8.256
8.25357
8.25064
8.24743
8.24403
8.24023
8.23574
8.23098
8.22683
8.2237
8.22112
8.2183
8.2151
8.21244
8.2111
8.21077
8.2103
8.2087
8.2058
8.20285
8.20038
8.19886
8.19738
8.19572
8.19423
8.19384
8.19379
8.19394
8.19314
8.19123
8.18886
8.18727
8.18718
8.18904
8.19279
8.19788
8.20334
0.366684
0.347483
0.386691
0.507146
0.67151
0.824447
0.936123
1.05848
1.64094
2.8423
4.036
4.96079
5.66621
6.2333
6.71236
7.12801
7.4891
7.79584
8.04618
8.2403
8.38288
8.48236
8.54869
8.59127
8.61775
8.63378
8.64322
8.64864
8.65169
8.65333
8.65422
8.65464
8.65465
8.65425
8.65357
8.6526
8.6512
8.6493
8.6471
8.64456
8.64151
8.63814
8.63457
8.63058
8.62588
8.62088
8.61652
8.61321
8.61049
8.60751
8.60414
8.60133
8.59988
8.59951
8.599
8.59733
8.5943
8.59119
8.58859
8.58698
8.58541
8.58365
8.58208
8.58165
8.5816
8.58176
8.58093
8.57894
8.57644
8.57474
8.57462
8.57651
8.58039
8.58567
8.59134
0.369316
0.342581
0.34892
0.412164
0.531803
0.67086
0.789457
0.929543
1.54395
2.80756
4.07105
5.05246
5.79993
6.3992
6.90474
7.34388
7.72708
8.05511
8.32552
8.53758
8.69505
8.80601
8.88061
8.92883
8.95899
8.97733
8.98818
8.99445
8.99799
8.99991
9.00096
9.00146
9.00151
9.00113
9.00044
8.99945
8.998
8.99604
8.99377
8.99113
8.98798
8.98448
8.98077
8.97662
8.97174
8.96653
8.96197
8.95851
8.95565
8.95253
8.94901
8.94604
8.94448
8.94405
8.94351
8.94178
8.93865
8.93541
8.93268
8.93098
8.92933
8.92749
8.92584
8.92536
8.9253
8.92548
8.92464
8.92257
8.91996
8.91817
8.91798
8.91989
8.92384
8.92926
8.93509
0.371958
0.342444
0.332103
0.356567
0.428232
0.536012
0.64721
0.795318
1.42269
2.72831
4.05387
5.09066
5.88025
6.51161
7.04328
7.50558
7.91087
8.26071
8.55232
8.78384
8.95787
9.08184
9.16597
9.22075
9.25523
9.27632
9.28887
9.29615
9.30028
9.30253
9.30377
9.30438
9.3045
9.30413
9.30345
9.30244
9.30097
9.29897
9.29663
9.29393
9.29069
9.28709
9.28327
9.27898
9.27395
9.26857
9.26384
9.26022
9.25723
9.254
9.25034
9.24722
9.24554
9.24504
9.24446
9.24269
9.23949
9.23615
9.2333
9.2315
9.22977
9.22786
9.22614
9.22561
9.22554
9.22572
9.22488
9.22276
9.22006
9.21817
9.21792
9.2198
9.22377
9.22928
9.23521
0.374408
0.344308
0.325896
0.328083
0.361995
0.43134
0.520719
0.662487
1.27875
2.60284
3.98149
5.0725
5.90474
6.56852
7.12627
7.61155
8.03895
8.41113
8.72507
8.9777
9.17014
9.30888
9.40398
9.46644
9.50601
9.53036
9.54492
9.55342
9.55827
9.56094
9.56242
9.56315
9.56334
9.56301
9.56234
9.56133
9.55986
9.55783
9.55545
9.5527
9.5494
9.54573
9.54181
9.53742
9.53226
9.52675
9.52186
9.5181
9.515
9.51165
9.50788
9.50463
9.50282
9.50223
9.50162
9.49982
9.49658
9.49314
9.4902
9.4883
9.4865
9.48453
9.48274
9.48215
9.48205
9.48225
9.48141
9.47927
9.4765
9.47452
9.47418
9.476
9.47995
9.48549
9.49147
0.376594
0.346934
0.324779
0.315186
0.325073
0.360935
0.420761
0.540674
1.11712
2.43123
3.85147
4.99505
5.87075
6.56765
7.1517
7.65989
8.10944
8.50441
8.8418
9.11723
9.33009
9.48556
9.59331
9.66471
9.71029
9.73851
9.75548
9.76545
9.77117
9.77435
9.77611
9.77701
9.77728
9.77701
9.77636
9.77537
9.7739
9.77186
9.76947
9.76668
9.76336
9.75963
9.75564
9.75118
9.74594
9.74033
9.73531
9.73142
9.7282
9.72476
9.72089
9.71752
9.71558
9.71489
9.71422
9.71242
9.70916
9.70567
9.70263
9.70064
9.69878
9.69675
9.69489
9.69424
9.69412
9.69431
9.69349
9.69135
9.68854
9.68648
9.68604
9.68777
9.69164
9.69715
9.70312
0.378494
0.349748
0.32604
0.310422
0.306753
0.319701
0.352026
0.439892
0.946306
2.21606
3.66232
4.85557
5.77553
6.50657
7.1174
7.64857
8.12025
8.53838
8.90022
9.20017
9.43559
9.60997
9.73227
9.81411
9.86677
9.89958
9.91944
9.93117
9.93795
9.94174
9.94385
9.94495
9.94534
9.94514
9.94453
9.94356
9.94211
9.94009
9.93769
9.9349
9.93157
9.92782
9.92379
9.91928
9.91401
9.90832
9.9032
9.89919
9.89586
9.89234
9.8884
9.88492
9.88284
9.88203
9.88132
9.87951
9.87628
9.87275
9.86964
9.86756
9.86563
9.86356
9.86165
9.86092
9.86076
9.86094
9.86016
9.85804
9.85522
9.85308
9.85253
9.85413
9.85788
9.8633
9.86921
0.380103
0.352468
0.328351
0.309739
0.298797
0.298195
0.310749
0.36608
0.777895
1.96325
3.4141
4.65179
5.61645
6.38287
7.02122
7.57555
8.06933
8.51081
8.89799
9.22413
9.48435
9.68004
9.81906
9.91306
9.97405
10.0123
10.0356
10.0495
10.0576
10.0621
10.0646
10.066
10.0665
10.0664
10.0658
10.0649
10.0635
10.0615
10.0591
10.0564
10.0531
10.0493
10.0453
10.0407
10.0355
10.0298
10.0246
10.0204
10.017
10.0134
10.0094
10.0059
10.0036
10.0027
10.0019
10.0001
9.99695
9.99341
9.99025
9.98808
9.98609
9.98398
9.98203
9.98123
9.98102
9.98119
9.98044
9.97837
9.97556
9.97336
9.9727
9.97414
9.97771
9.98299
9.98877
0.381432
0.354952
0.331034
0.311049
0.296283
0.288184
0.288605
0.318258
0.624613
1.68287
3.10928
4.38237
5.39115
6.19419
6.86106
7.4389
7.95472
8.41961
8.8328
9.18673
9.47412
9.69375
9.85192
9.96007
10.0309
10.0756
10.1031
10.1195
10.1291
10.1346
10.1376
10.1393
10.14
10.14
10.1395
10.1386
10.1373
10.1353
10.133
10.1303
10.127
10.1233
10.1193
10.1148
10.1095
10.1038
10.0986
10.0944
10.0909
10.0872
10.0832
10.0795
10.0772
10.0761
10.0753
10.0735
10.0704
10.0669
10.0637
10.0614
10.0594
10.0572
10.0553
10.0544
10.0541
10.0542
10.0535
10.0516
10.0488
10.0465
10.0457
10.047
10.0504
10.0554
10.061
0.382495
0.357125
0.333731
0.313267
0.296554
0.284399
0.277903
0.290334
0.497373
1.3895
2.75384
4.04757
5.09789
5.93848
6.63502
7.23689
7.77472
8.26291
8.70259
9.0858
9.40277
9.64921
9.82932
9.95392
10.0363
10.0887
10.1211
10.1406
10.1521
10.1586
10.1623
10.1644
10.1653
10.1654
10.1651
10.1643
10.163
10.1611
10.1588
10.1562
10.153
10.1493
10.1454
10.1409
10.1357
10.1301
10.1248
10.1205
10.117
10.1133
10.1093
10.1055
10.103
10.1018
10.1009
10.0992
10.0961
10.0927
10.0895
10.0872
10.0851
10.0829
10.0809
10.0799
10.0796
10.0797
10.0791
10.0772
10.0745
10.0722
10.0713
10.0723
10.0754
10.0802
10.0856
0.383317
0.358953
0.336236
0.315803
0.298193
0.283886
0.273538
0.27534
0.402187
1.10177
2.35855
3.65024
4.73604
5.61415
6.34147
6.96805
7.52791
8.03917
8.5056
8.91943
9.26849
9.54489
9.75005
9.89377
9.9897
10.0513
10.0896
10.1128
10.1265
10.1344
10.1389
10.1414
10.1426
10.1429
10.1426
10.1419
10.1407
10.1389
10.1368
10.1342
10.1311
10.1275
10.1236
10.1193
10.1142
10.1087
10.1034
10.0991
10.0954
10.0918
10.0878
10.084
10.0814
10.08
10.079
10.0773
10.0744
10.071
10.0678
10.0654
10.0633
10.0612
10.0591
10.0581
10.0577
10.0577
10.0571
10.0553
10.0527
10.0505
10.0494
10.0502
10.053
10.0575
10.0626
0.383925
0.360429
0.338436
0.318317
0.30042
0.285037
0.272573
0.268
0.338391
0.840316
1.94023
3.1972
4.3069
5.22049
5.97927
6.63132
7.21329
7.74731
8.24053
8.6862
9.06993
9.37972
9.61349
9.7794
9.89128
9.9637
10.0091
10.0367
10.0531
10.0627
10.0681
10.0712
10.0727
10.0732
10.0731
10.0725
10.0714
10.0697
10.0676
10.0652
10.0622
10.0588
10.055
10.0508
10.0458
10.0404
10.0353
10.0309
10.0272
10.0235
10.0195
10.0158
10.013
10.0115
10.0103
10.0087
10.0059
10.0027
9.99953
9.99711
9.99496
9.99281
9.99077
9.98963
9.98915
9.98914
9.98858
9.98693
9.98445
9.9822
9.98107
9.98165
9.98412
9.98825
9.99293
0.384356
0.361566
0.34027
0.320612
0.302782
0.286954
0.273375
0.265013
0.29975
0.623952
1.52223
2.70093
3.81485
4.75833
5.54805
6.22615
6.83037
7.38678
7.90667
8.38527
8.80634
9.15335
9.41975
9.61139
9.74198
9.82722
9.88097
9.91392
9.93365
9.94518
9.9518
9.9555
9.95743
9.9582
9.95824
9.95776
9.95677
9.95524
9.95329
9.95096
9.94813
9.94486
9.94122
9.93713
9.9324
9.92718
9.92212
9.91777
9.91402
9.91035
9.90642
9.90266
9.89982
9.89809
9.89686
9.89522
9.89262
9.8895
9.88645
9.884
9.88184
9.8797
9.87768
9.87645
9.87588
9.8758
9.87528
9.87377
9.87144
9.86924
9.86801
9.86836
9.87047
9.8742
9.87848
0.384644
0.3624
0.341721
0.322572
0.30501
0.289112
0.275017
0.264445
0.278162
0.464426
1.13332
2.1815
3.26919
4.23102
5.04874
5.75281
6.3793
6.95768
7.504
8.01655
8.47785
8.86631
9.16992
9.39137
9.54387
9.64422
9.70793
9.74723
9.77089
9.7848
9.79283
9.79736
9.79977
9.80084
9.80108
9.80074
9.79989
9.79851
9.79671
9.79451
9.79186
9.78876
9.78529
9.78139
9.77687
9.77187
9.76695
9.76263
9.75888
9.75523
9.75138
9.74765
9.74472
9.74284
9.74149
9.73987
9.73742
9.73447
9.73152
9.72907
9.72691
9.72479
9.72279
9.7215
9.72084
9.72068
9.72018
9.7188
9.71665
9.71453
9.71322
9.71333
9.71509
9.71838
9.72221
0.384827
0.362975
0.342805
0.324147
0.306945
0.291194
0.276949
0.265154
0.266911
0.361638
0.803538
1.66781
2.68632
3.64614
4.48467
5.21285
5.86113
6.46093
7.03338
7.58098
8.0857
8.52041
8.86644
9.12234
9.30038
9.41847
9.49393
9.54075
9.56908
9.58584
9.59556
9.60107
9.60407
9.6055
9.60596
9.60579
9.60509
9.60387
9.60222
9.60019
9.59772
9.59482
9.59154
9.58784
9.58357
9.57882
9.57409
9.56984
9.5661
9.56249
9.55872
9.55505
9.55207
9.55003
9.54857
9.54695
9.54465
9.54188
9.53905
9.53664
9.53449
9.53241
9.53044
9.52909
9.52835
9.52809
9.5276
9.52635
9.52439
9.52237
9.52101
9.5209
9.52229
9.52513
9.52849
0.384935
0.363349
0.343565
0.325333
0.308508
0.293013
0.278834
0.266442
0.261569
0.303644
0.556063
1.19672
2.09237
3.0178
3.86285
4.60993
5.27829
5.89861
6.49688
7.08088
7.63275
8.1192
8.51353
8.80906
9.01667
9.1554
9.24459
9.30022
9.33405
9.35416
9.36588
9.37257
9.37626
9.37811
9.37884
9.37886
9.37831
9.37726
9.37578
9.37393
9.37165
9.36896
9.3659
9.36242
9.35842
9.35395
9.34943
9.34529
9.34158
9.33802
9.33435
9.33076
9.32774
9.32558
9.32399
9.32237
9.32021
9.31763
9.31495
9.31259
9.31047
9.30844
9.30651
9.30513
9.30429
9.30393
9.30343
9.30231
9.30053
9.29863
9.29726
9.29695
9.29798
9.30037
9.30324
0.384994
0.363574
0.344062
0.326165
0.309681
0.294475
0.280475
0.267871
0.259473
0.274063
0.397079
0.807574
1.52466
2.36977
3.19648
3.95134
4.63541
5.27445
5.89827
6.52059
7.12419
7.66871
8.11786
8.45861
8.70009
8.86251
8.9675
9.03328
9.07347
9.09747
9.11153
9.11959
9.12408
9.12641
9.12745
9.12767
9.1273
9.12642
9.12512
9.12345
9.12137
9.11889
9.11606
9.11282
9.10909
9.10493
9.10065
9.09664
9.09299
9.0895
9.08593
9.08243
9.07941
9.07714
9.07543
9.07379
9.07177
9.06937
9.06685
9.06457
9.0625
9.06052
9.05866
9.05724
9.05633
9.05586
9.05534
9.05432
9.05272
9.05096
9.04959
9.04911
9.04981
9.05176
9.05414
0.385024
0.363699
0.344362
0.326707
0.310497
0.295559
0.281777
0.269177
0.259038
0.259996
0.310868
0.529655
1.02972
1.73843
2.50832
3.25039
3.94099
4.59506
5.24414
5.90773
6.5689
7.17869
7.68954
8.08115
8.36068
8.54974
8.67249
8.74973
8.7971
8.8255
8.8422
8.85182
8.85722
8.8601
8.86147
8.86192
8.86173
8.86102
8.85989
8.8584
8.85653
8.85427
8.85166
8.84866
8.84522
8.84136
8.83735
8.8335
8.82993
8.82651
8.82305
8.81966
8.81665
8.8143
8.81248
8.81081
8.8089
8.80667
8.80433
8.80215
8.80014
8.79823
8.79643
8.79501
8.79403
8.79346
8.79289
8.79195
8.79051
8.78889
8.78755
8.78694
8.78734
8.78886
8.79077
0.385039
0.363763
0.344529
0.32703
0.311018
0.296297
0.282719
0.270224
0.259328
0.253798
0.270061
0.365426
0.652884
1.17337
1.83457
2.53061
3.21018
3.87214
4.54614
5.2556
5.98168
6.66443
7.24345
7.6908
8.01186
8.22991
8.37202
8.46173
8.51694
8.55015
8.56975
8.58108
8.58748
8.59095
8.59268
8.59336
8.59335
8.59281
8.59185
8.59054
8.58885
8.5868
8.58441
8.58166
8.57849
8.57493
8.57119
8.56752
8.56405
8.56071
8.55736
8.55407
8.5511
8.54869
8.54678
8.54508
8.54325
8.54119
8.53901
8.53694
8.53501
8.53318
8.53145
8.53003
8.529
8.52833
8.5277
8.5268
8.52551
8.52403
8.52273
8.52201
8.52216
8.52331
8.52478
0.385045
0.363792
0.344612
0.327206
0.311322
0.296755
0.283341
0.270974
0.259816
0.251394
0.252307
0.2858
0.416343
0.729676
1.2273
1.83
2.46957
3.12707
3.82573
4.58774
5.38706
6.14943
6.80104
7.30686
7.67115
7.91931
8.08148
8.18415
8.24749
8.28571
8.30832
8.32144
8.32889
8.33297
8.33507
8.33599
8.33615
8.33576
8.33496
8.3338
8.33229
8.33043
8.32824
8.3257
8.32279
8.31951
8.31603
8.31255
8.30919
8.30594
8.30269
8.2995
8.29659
8.29414
8.29216
8.29042
8.28864
8.28672
8.2847
8.28275
8.2809
8.27915
8.2775
8.2761
8.27503
8.27427
8.27357
8.27268
8.27149
8.27013
8.26889
8.26811
8.26806
8.26888
8.26997
0.385047
0.363805
0.34465
0.327292
0.311481
0.297011
0.28371
0.271452
0.260248
0.250659
0.245134
0.252335
0.298786
0.444135
0.748889
1.20592
1.76529
2.40049
3.12385
3.94598
4.82472
5.66881
6.39238
6.95513
7.36117
7.63831
7.8198
7.93493
8.00612
8.04918
8.07471
8.08956
8.09801
8.10268
8.10514
8.10628
8.10659
8.10634
8.10567
8.10464
8.10327
8.10157
8.09955
8.0972
8.0945
8.09148
8.08823
8.08493
8.08169
8.07851
8.07535
8.07225
8.0694
8.06694
8.0649
8.06312
8.06139
8.05957
8.05769
8.05585
8.05409
8.05242
8.05085
8.04948
8.04838
8.04754
8.04676
8.04585
8.04472
8.04346
8.04228
8.04147
8.04126
8.04183
8.04261
0.385048
0.363809
0.344665
0.327329
0.311556
0.297139
0.283905
0.271719
0.260537
0.250539
0.242531
0.239537
0.251144
0.303345
0.447236
0.733645
1.17613
1.77066
2.51749
3.40126
4.35543
5.27254
6.05828
6.66949
7.11088
7.41254
7.61037
7.73608
7.81393
7.86109
7.88911
7.90543
7.91475
7.91993
7.92268
7.924
7.92444
7.92429
7.92371
7.92278
7.92152
7.91993
7.91803
7.91582
7.9133
7.91047
7.90742
7.90428
7.90113
7.898
7.89491
7.89189
7.88909
7.88664
7.88457
7.88275
7.88103
7.87929
7.87752
7.87578
7.87411
7.87251
7.87101
7.86968
7.86857
7.86764
7.86676
7.8658
7.86469
7.8635
7.86238
7.86156
7.86126
7.86165
7.86221
0.385048
0.363811
0.34467
0.327343
0.311584
0.297189
0.283986
0.271837
0.260678
0.250567
0.241758
0.235379
0.235321
0.252839
0.316474
0.482584
0.820478
1.37193
2.13286
3.05969
4.06413
5.0281
5.85305
6.49465
6.95821
7.27527
7.4834
7.61577
7.69783
7.7476
7.77719
7.79446
7.80433
7.80982
7.81276
7.81419
7.8147
7.8146
7.81407
7.81319
7.81198
7.81045
7.80862
7.80648
7.80406
7.80136
7.79845
7.79541
7.79233
7.78923
7.78616
7.78319
7.78044
7.77801
7.77592
7.77407
7.77234
7.77063
7.76894
7.76728
7.76568
7.76415
7.76272
7.76142
7.7603
7.75929
7.7583
7.75724
7.7561
7.75494
7.75387
7.75307
7.75274
7.75304
7.75348
0.385048
0.363811
0.34467
0.327343
0.311584
0.297189
0.283986
0.271837
0.260678
0.250571
0.241779
0.235445
0.235489
0.253178
0.316868
0.482262
0.818182
1.36696
2.12563
3.05139
4.0559
5.02055
5.84633
6.48866
6.95278
7.27022
7.47861
7.61115
7.69333
7.74317
7.77281
7.7901
7.79998
7.80549
7.80843
7.80986
7.81035
7.81024
7.8097
7.8088
7.80757
7.80602
7.80417
7.80202
7.79961
7.79695
7.79409
7.7911
7.78801
7.78488
7.78178
7.77882
7.77612
7.77372
7.77162
7.76973
7.76797
7.76627
7.76462
7.76301
7.76145
7.75997
7.75858
7.75732
7.75618
7.75509
7.75396
7.75276
7.75154
7.75038
7.74935
7.7486
7.7483
7.74862
7.74908
0.385048
0.363809
0.344665
0.327329
0.311556
0.297139
0.283905
0.271719
0.26054
0.250561
0.242623
0.239816
0.251833
0.304565
0.448059
0.731361
1.16796
1.75538
2.49656
3.37773
4.33217
5.25116
6.03917
6.65238
7.0953
7.39802
7.59657
7.72274
7.80089
7.84825
7.87639
7.8928
7.90216
7.90736
7.91012
7.91143
7.91183
7.91164
7.91102
7.91004
7.90872
7.90707
7.90512
7.90288
7.9004
7.89768
7.8948
7.89176
7.88861
7.88538
7.88222
7.87924
7.87656
7.87419
7.8721
7.87017
7.86836
7.86663
7.86498
7.86338
7.86185
7.86038
7.85903
7.85779
7.85663
7.85543
7.85414
7.85276
7.85145
7.85026
7.84927
7.84859
7.84838
7.84883
7.84944
0.385047
0.363805
0.34465
0.327292
0.311482
0.297011
0.28371
0.271452
0.260258
0.250726
0.245397
0.25311
0.300533
0.446372
0.748574
1.19897
1.74929
2.37513
3.09138
3.91023
4.78945
5.63622
6.36303
6.92865
7.33688
7.61556
7.79808
7.91388
7.9855
8.02884
8.05455
8.06952
8.07804
8.08275
8.08521
8.08632
8.08658
8.08626
8.08553
8.08442
8.08296
8.08115
8.07905
8.07665
8.07403
8.0712
8.06824
8.0651
8.06182
8.05845
8.05519
8.05218
8.04954
8.04721
8.04511
8.04314
8.04127
8.03948
8.03782
8.0362
8.03467
8.0332
8.03188
8.03064
8.02945
8.02814
8.02665
8.02508
8.02365
8.02244
8.0215
8.02091
8.02084
8.0215
8.02236
0.385045
0.363792
0.344612
0.327206
0.311322
0.296755
0.283341
0.270976
0.259846
0.251572
0.252978
0.287694
0.41986
0.732066
1.22339
1.81611
2.44472
3.09233
3.78382
4.54259
5.34257
6.10801
6.76337
7.27253
7.6394
7.88937
8.05276
8.15621
8.22006
8.25862
8.28146
8.29472
8.30224
8.30636
8.30848
8.30935
8.30943
8.30895
8.30807
8.30679
8.30516
8.30315
8.30085
8.29825
8.29545
8.29248
8.2894
8.28612
8.28267
8.27913
8.27575
8.27271
8.27012
8.26783
8.26574
8.2637
8.26175
8.25989
8.25821
8.25657
8.25501
8.25352
8.25223
8.251
8.24977
8.24831
8.24661
8.24483
8.24329
8.24207
8.24119
8.24072
8.24084
8.24176
8.24297
0.385039
0.363763
0.344529
0.32703
0.311019
0.296298
0.28272
0.270231
0.259404
0.254227
0.271641
0.369505
0.658204
1.1739
1.82477
2.50855
3.17653
3.82904
4.4966
5.20334
5.93032
6.61627
7.19919
7.65005
7.97382
8.19379
8.33719
8.42774
8.48348
8.51706
8.53691
8.54839
8.55488
8.55838
8.56013
8.56074
8.56063
8.55997
8.55893
8.55746
8.55562
8.55338
8.55086
8.54803
8.54504
8.54189
8.53867
8.53521
8.53158
8.52784
8.52435
8.52129
8.51877
8.51652
8.51443
8.51231
8.51028
8.50834
8.50663
8.50495
8.50337
8.50185
8.50059
8.49935
8.49809
8.49646
8.49452
8.49252
8.49089
8.48968
8.48889
8.48854
8.48889
8.49015
8.49176
0.385024
0.363699
0.344362
0.326707
0.310498
0.29556
0.281778
0.269195
0.259215
0.260952
0.314339
0.536926
1.03555
1.73478
2.49115
3.21996
3.89924
4.54482
5.1885
5.8501
6.51247
7.1255
7.64019
8.03525
8.31746
8.50841
8.63243
8.7105
8.75841
8.78718
8.80414
8.81391
8.8194
8.82231
8.82369
8.82405
8.82372
8.82288
8.82166
8.81998
8.81792
8.81544
8.81269
8.80961
8.80641
8.80307
8.79971
8.79606
8.79222
8.78828
8.78469
8.78163
8.7792
8.77701
8.77492
8.77271
8.77058
8.76856
8.76682
8.76509
8.76348
8.76193
8.76071
8.75947
8.75817
8.75634
8.75415
8.75192
8.75023
8.74905
8.74836
8.74818
8.74878
8.75042
8.7525
0.384994
0.363574
0.344062
0.326166
0.309682
0.294477
0.280479
0.267912
0.259848
0.276085
0.403936
0.817971
1.52886
2.36011
3.17145
3.91295
4.58659
5.2183
5.83783
6.45894
7.06406
7.6118
8.06462
8.40865
8.65266
8.81687
8.92305
8.98962
9.03032
9.05468
9.069
9.07721
9.08177
9.08413
9.08518
9.08528
9.08476
9.08372
9.08232
9.08043
9.07814
9.07541
9.07242
9.06909
9.06568
9.06216
9.05866
9.05482
9.05077
9.04662
9.04295
9.03991
9.0376
9.03546
9.03337
9.03105
9.02883
9.02672
9.02497
9.02319
9.02154
9.01997
9.01879
9.01755
9.0162
9.01417
9.01171
9.00927
9.00755
9.00643
9.00586
9.00585
9.00673
9.00878
9.01137
0.384935
0.363349
0.343566
0.325334
0.30851
0.293016
0.278841
0.266525
0.262318
0.307726
0.567641
1.20887
2.09279
3.00116
3.83019
4.56449
5.22355
5.83773
6.43277
7.01628
7.56997
8.05959
8.45738
8.75594
8.96589
9.10625
9.19653
9.25287
9.28718
9.30763
9.31961
9.32643
9.33019
9.33206
9.3328
9.33266
9.33194
9.33072
9.32915
9.32704
9.32453
9.32155
9.31833
9.31476
9.31115
9.30746
9.30383
9.29979
9.29554
9.2912
9.28748
9.28448
9.28232
9.28024
9.27813
9.27569
9.27338
9.27119
9.26944
9.2676
9.26592
9.26432
9.26321
9.26196
9.26057
9.25831
9.25558
9.25296
9.25124
9.2502
9.24977
9.24994
9.25113
9.25362
9.25672
0.384827
0.362976
0.342806
0.32415
0.306948
0.291198
0.276962
0.265312
0.268336
0.369327
0.820079
1.67961
2.68138
3.62233
4.44509
5.16145
5.80162
6.3964
6.96656
7.51431
8.0211
8.4589
8.80816
9.06683
9.24697
9.36652
9.44296
9.49041
9.51918
9.53625
9.54622
9.55186
9.55491
9.55636
9.55683
9.55647
9.55557
9.55417
9.55244
9.55011
9.54739
9.54418
9.54075
9.53694
9.53316
9.52931
9.52557
9.52134
9.51691
9.51239
9.50864
9.50573
9.50372
9.50169
9.49958
9.49701
9.49461
9.49235
9.4906
9.48872
9.48701
9.48538
9.48436
9.4831
9.48167
9.47918
9.47619
9.4734
9.47172
9.47078
9.47049
9.47086
9.47236
9.47529
9.47893
0.384645
0.362401
0.341723
0.322576
0.305014
0.289116
0.275037
0.264726
0.280787
0.477409
1.1538
2.19085
3.25805
4.20043
5.00319
5.69655
6.31607
6.89044
7.4353
7.94853
8.41207
8.80353
9.11014
9.33411
9.48848
9.59012
9.65468
9.69454
9.71859
9.7328
9.74107
9.74569
9.74816
9.74924
9.74948
9.74893
9.74786
9.74629
9.74441
9.74188
9.73897
9.73553
9.73192
9.72789
9.72396
9.71997
9.71615
9.71175
9.70716
9.70248
9.69874
9.69592
9.6941
9.69212
9.68999
9.68729
9.68482
9.68249
9.68077
9.67883
9.67711
9.67547
9.67453
9.67326
9.6718
9.66908
9.66585
9.66292
9.66131
9.66048
9.66035
9.6609
9.66273
9.6661
9.67025
0.384357
0.361568
0.340273
0.320617
0.302787
0.286958
0.273405
0.265493
0.304436
0.643226
1.54478
2.70622
3.79738
4.72168
5.49747
6.16605
6.76436
7.31767
7.83681
8.31649
8.73993
9.08982
9.35899
9.5529
9.68515
9.77151
9.826
9.85944
9.87952
9.89133
9.89818
9.90196
9.90393
9.90471
9.90475
9.90402
9.9028
9.90108
9.89907
9.89636
9.89328
9.88964
9.88587
9.88165
9.87759
9.87349
9.86961
9.86505
9.86033
9.85552
9.85183
9.84912
9.84748
9.84555
9.84341
9.84058
9.83804
9.83566
9.83398
9.832
9.83027
9.82862
9.82778
9.8265
9.82502
9.82207
9.81863
9.81559
9.81407
9.81337
9.81338
9.81413
9.81627
9.82007
9.8247
0.383927
0.360432
0.33844
0.318323
0.300424
0.28504
0.272616
0.268795
0.346364
0.865753
1.96279
3.19747
4.28342
5.17866
5.92466
6.56832
7.14534
7.67706
8.1701
8.61719
9.00333
9.31588
9.5522
9.72015
9.83349
9.90688
9.95288
9.98092
9.99768
10.0075
10.0132
10.0163
10.0178
10.0183
10.0182
10.0173
10.016
10.0141
10.012
10.0091
10.0059
10.0021
9.9982
9.99382
9.98967
9.98548
9.98155
9.97687
9.97205
9.96714
9.96351
9.96094
9.95949
9.9576
9.95545
9.9525
9.94991
9.94749
9.94587
9.94384
9.94211
9.94046
9.93974
9.93845
9.93695
9.93378
9.93015
9.92704
9.92564
9.92506
9.92522
9.92615
9.92859
9.93279
9.93786
0.383318
0.358957
0.336241
0.315809
0.298197
0.283885
0.273597
0.276631
0.414761
1.13225
2.37932
3.64516
4.70719
5.56805
6.28376
6.90298
7.45875
7.9684
8.43512
8.8506
9.20209
9.48109
9.68861
9.83415
9.93136
9.9938
10.0326
10.0562
10.0702
10.0784
10.0831
10.0856
10.0868
10.0871
10.0869
10.0858
10.0844
10.0824
10.0802
10.0772
10.0738
10.0699
10.0659
10.0614
10.0572
10.0529
10.049
10.0442
10.0393
10.0343
10.0308
10.0284
10.0271
10.0252
10.0231
10.02
10.0174
10.015
10.0134
10.0113
10.0096
10.008
10.0074
10.0061
10.0046
10.0012
9.99742
9.99426
9.993
9.99254
9.99284
9.99394
9.99666
10.0012
10.0067
0.382498
0.35713
0.333737
0.313272
0.296554
0.28439
0.277979
0.292393
0.515405
1.42334
2.77152
4.03724
5.06443
5.88901
6.57506
7.1705
7.705
8.19216
8.6325
9.01752
9.33689
9.58579
9.76805
9.89428
9.97776
10.0309
10.0638
10.0836
10.0953
10.1021
10.106
10.1081
10.109
10.1092
10.1088
10.1076
10.1061
10.1041
10.1018
10.0986
10.0952
10.0911
10.0871
10.0825
10.0782
10.0739
10.07
10.0652
10.0602
10.0552
10.0518
10.0495
10.0484
10.0466
10.0445
10.0413
10.0387
10.0362
10.0347
10.0326
10.0309
10.0293
10.0288
10.0275
10.026
10.0225
10.0186
10.0154
10.0143
10.0139
10.0144
10.0156
10.0186
10.0235
10.0293
0.381435
0.354958
0.331041
0.311052
0.296276
0.288157
0.288698
0.321437
0.648123
1.71823
3.12311
4.36724
5.35393
6.1422
6.79961
7.37185
7.885
8.34935
8.76349
9.11932
9.40905
9.63098
9.79112
9.90073
9.97253
10.0179
10.0458
10.0624
10.0723
10.0779
10.0812
10.0829
10.0836
10.0836
10.0831
10.0819
10.0803
10.0782
10.0758
10.0726
10.0691
10.065
10.0609
10.0562
10.0519
10.0476
10.0438
10.0389
10.0339
10.0289
10.0256
10.0235
10.0226
10.0208
10.0186
10.0154
10.0128
10.0103
10.0089
10.0068
10.0052
10.0035
10.0032
10.0019
10.0004
9.99671
9.99272
9.98954
9.98858
9.98834
9.98888
9.99028
9.99347
9.99861
10.0047
0.380107
0.352475
0.328356
0.309736
0.298775
0.298133
0.310848
0.370704
0.80611
1.99852
3.4238
4.63247
5.57628
6.32912
6.95895
7.50841
8.00009
8.44143
8.82977
9.15786
9.42034
9.61818
9.75899
9.8543
9.91615
9.95496
9.97862
9.9927
10.001
10.0057
10.0084
10.0098
10.0103
10.0102
10.0097
10.0084
10.0067
10.0046
10.0022
9.99891
9.99537
9.9912
9.98709
9.98238
9.97814
9.97386
9.97005
9.96514
9.96024
9.95526
9.95209
9.95009
9.94936
9.94761
9.94549
9.94219
9.93958
9.93714
9.93582
9.93371
9.93209
9.93051
9.93025
9.92893
9.9275
9.9237
9.91966
9.91652
9.9157
9.91556
9.9162
9.91772
9.9211
9.92645
9.93274
0.378498
0.349755
0.326042
0.310409
0.306703
0.319575
0.352103
0.446058
0.977964
2.24998
3.66796
4.83277
5.7332
6.45177
7.05491
7.58186
8.05193
8.47023
8.83339
9.13529
9.37286
9.54924
9.67318
9.75619
9.8096
9.84287
9.86303
9.87495
9.88192
9.88591
9.88821
9.88929
9.88969
9.88948
9.8889
9.88753
9.88584
9.88366
9.8813
9.87798
9.87443
9.87025
9.86617
9.86146
9.85726
9.85302
9.84929
9.84441
9.83957
9.83465
9.83161
9.82975
9.82918
9.82746
9.82537
9.82204
9.81946
9.81706
9.81582
9.81372
9.81215
9.8106
9.81044
9.80913
9.80774
9.80387
9.79981
9.79672
9.79604
9.79598
9.7967
9.79832
9.80185
9.80735
9.81378
0.3766
0.346941
0.324775
0.315151
0.32497
0.360704
0.420766
0.548156
1.15082
2.46297
3.85337
4.9695
5.82697
6.51242
7.08953
7.59406
8.0424
8.4378
8.77661
9.05397
9.26887
9.42619
9.53543
9.60788
9.65412
9.68273
9.69996
9.71009
9.71599
9.71935
9.7213
9.72217
9.72245
9.72217
9.72156
9.72015
9.71845
9.71626
9.71392
9.71058
9.70706
9.7029
9.69887
9.6942
9.69007
9.6859
9.68227
9.67744
9.67269
9.66785
9.66496
9.66323
9.66279
9.66112
9.65907
9.65573
9.6532
9.65084
9.64969
9.64761
9.64609
9.64458
9.64451
9.64322
9.64188
9.63796
9.63393
9.6309
9.63035
9.63036
9.63115
9.63284
9.63647
9.64207
9.64857
0.374414
0.344312
0.325878
0.328006
0.361804
0.430969
0.520601
0.670857
1.31319
2.63192
3.98012
5.04491
5.86019
6.51344
7.06491
7.54701
7.97355
8.34634
8.66176
8.91627
9.11063
9.25108
9.34754
9.41093
9.45108
9.47577
9.49055
9.49919
9.5042
9.50706
9.50871
9.50941
9.50959
9.50926
9.50863
9.50721
9.50551
9.50333
9.50102
9.49771
9.49424
9.49013
9.48618
9.48157
9.47753
9.47346
9.46994
9.46519
9.46056
9.45583
9.45309
9.45149
9.45117