/*--------------------------------*- C++ -*----------------------------------*\
  =========                 |
  \\      /  F ield         | OpenFOAM: The Open Source CFD Toolbox
   \\    /   O peration     | Website:  https://openfoam.org
    \\  /    A nd           | Version:  7
     \\/     M anipulation  |
\*---------------------------------------------------------------------------*/
FoamFile
{
    version     2.0;
    format      ascii;
    class       volScalarField;
    location    "200";
    object      nut;
}
// * * * * * * * * * * * * * * * * * * * * * * * * * * * * * * * * * * * * * //

dimensions      [0 2 -1 0 0 0 0];

internalField   nonuniform List<scalar> 
4500
(
0.000506063
0.000491802
0.000480302
0.000472197
0.000465961
0.000461097
0.000457488
0.000457952
0.000472498
0.000497819
0.000521775
0.000540803
0.000556028
0.00056886
0.000580072
0.000589985
0.000598645
0.000605977
0.000611908
0.000616458
0.000619759
0.000622037
0.000623537
0.000624489
0.000625074
0.000625426
0.00062563
0.000625748
0.000625813
0.000625849
0.000625869
0.000625879
0.000625879
0.000625874
0.000625863
0.000625846
0.000625819
0.000625788
0.000625749
0.000625703
0.000625645
0.000625586
0.000625522
0.000625453
0.000625372
0.000625287
0.00062521
0.000625144
0.000625087
0.000625029
0.000624968
0.000624921
0.000624896
0.000624885
0.00062487
0.00062484
0.000624789
0.000624741
0.000624701
0.000624671
0.000624646
0.000624616
0.000624593
0.000624581
0.000624572
0.00062456
0.000624536
0.000624503
0.000624468
0.000624445
0.000624446
0.000624478
0.000624548
0.000624641
0.000624749
0.00060732
0.000974327
0.00114372
0.00120841
0.00123503
0.00124699
0.00125361
0.00127481
0.00139843
0.00167867
0.00203533
0.00235336
0.00260483
0.0028047
0.00296903
0.00310724
0.00322337
0.00331848
0.00339306
0.00344853
0.00348766
0.00351402
0.0035311
0.00354184
0.00354841
0.00355233
0.0035546
0.00355589
0.00355659
0.00355695
0.00355715
0.00355723
0.00355718
0.00355703
0.00355677
0.00355644
0.00355594
0.00355528
0.00355451
0.00355364
0.00355257
0.00355142
0.00355019
0.00354882
0.00354716
0.00354538
0.00354385
0.00354274
0.00354186
0.00354089
0.00353972
0.00353871
0.0035382
0.00353811
0.00353799
0.00353745
0.00353638
0.00353525
0.00353431
0.00353373
0.00353319
0.00353255
0.00353198
0.00353184
0.00353188
0.00353204
0.00353185
0.00353118
0.00353028
0.00352964
0.00352957
0.00353024
0.0035316
0.00353347
0.00353543
0.000713416
0.00121515
0.00157793
0.00177482
0.00188369
0.00194747
0.00198523
0.00204599
0.00241973
0.00337984
0.00454749
0.0054899
0.00618174
0.00671091
0.00713881
0.00749661
0.00779743
0.00804526
0.00824175
0.00839016
0.00849671
0.00856973
0.00861771
0.00864817
0.00866694
0.00867821
0.00868478
0.00868853
0.0086906
0.00869167
0.00869225
0.00869252
0.00869243
0.00869205
0.00869143
0.00869061
0.00868935
0.00868769
0.00868578
0.00868361
0.00868094
0.00867804
0.00867497
0.00867151
0.00866734
0.00866287
0.00865906
0.00865632
0.00865414
0.00865167
0.00864869
0.00864613
0.00864488
0.00864468
0.00864437
0.00864297
0.00864023
0.00863739
0.00863503
0.00863362
0.00863225
0.00863063
0.00862917
0.00862887
0.00862899
0.00862944
0.00862894
0.0086272
0.00862487
0.00862328
0.00862315
0.00862487
0.00862831
0.00863296
0.00863782
0.00102122
0.00136022
0.0018715
0.0022233
0.00244807
0.00259379
0.00268519
0.00281513
0.00360863
0.0056193
0.00785511
0.00953193
0.0107214
0.0116215
0.012349
0.01296
0.013478
0.0139097
0.0142565
0.0145221
0.0147153
0.0148492
0.0149378
0.0149944
0.0150295
0.0150506
0.0150629
0.01507
0.0150739
0.015076
0.0150771
0.0150777
0.0150776
0.015077
0.015076
0.0150747
0.0150727
0.0150701
0.015067
0.0150635
0.0150592
0.0150545
0.0150496
0.015044
0.0150372
0.01503
0.0150239
0.0150194
0.0150158
0.0150118
0.0150069
0.0150027
0.0150006
0.0150002
0.0149997
0.0149974
0.0149929
0.0149884
0.0149846
0.0149823
0.0149801
0.0149774
0.014975
0.0149745
0.0149747
0.0149754
0.0149746
0.0149717
0.014968
0.0149654
0.0149652
0.014968
0.0149734
0.0149808
0.0149886
0.00170703
0.00150446
0.00204416
0.00253671
0.0028941
0.00314491
0.00331165
0.00354584
0.00492596
0.00824217
0.0116423
0.0140823
0.015793
0.0170887
0.0181406
0.0190307
0.0197928
0.0204355
0.0209588
0.0213645
0.0216627
0.021871
0.0220099
0.022099
0.0221543
0.0221877
0.0222074
0.0222186
0.0222249
0.0222283
0.0222301
0.022231
0.022231
0.0222303
0.022229
0.0222273
0.0222246
0.022221
0.0222168
0.0222121
0.0222063
0.0221999
0.0221931
0.0221855
0.0221763
0.0221664
0.0221579
0.0221517
0.0221467
0.0221411
0.0221343
0.0221285
0.0221255
0.0221248
0.022124
0.0221208
0.0221148
0.0221086
0.0221034
0.0221003
0.0220971
0.0220935
0.0220902
0.0220894
0.0220896
0.0220905
0.0220894
0.0220855
0.0220804
0.0220769
0.0220766
0.0220802
0.0220874
0.0220973
0.0221077
0.00293013
0.0017943
0.00215558
0.00272722
0.00321136
0.00357941
0.00383924
0.00421141
0.00631049
0.0110672
0.0156589
0.0188824
0.0211421
0.022862
0.0242663
0.0254631
0.0264979
0.0273806
0.0281079
0.0286783
0.0291016
0.0293995
0.0295993
0.029728
0.0298082
0.0298569
0.0298855
0.029902
0.0299113
0.0299163
0.029919
0.0299203
0.0299205
0.0299197
0.0299182
0.029916
0.0299128
0.0299083
0.0299032
0.0298973
0.02989
0.0298821
0.0298736
0.029864
0.0298524
0.02984
0.0298292
0.0298213
0.0298148
0.0298075
0.0297989
0.0297914
0.0297874
0.0297863
0.0297851
0.0297812
0.0297738
0.029766
0.0297595
0.0297555
0.0297514
0.0297468
0.0297425
0.0297415
0.0297415
0.0297427
0.0297413
0.0297365
0.0297302
0.0297258
0.0297252
0.0297294
0.0297383
0.0297504
0.0297631
0.00471639
0.00241024
0.00230969
0.00283436
0.00340704
0.00388857
0.00425188
0.00478824
0.00768569
0.0139267
0.0197201
0.0237588
0.0266057
0.0287849
0.0305735
0.0321077
0.0334456
0.0345992
0.0355605
0.0363224
0.0368933
0.0372981
0.0375712
0.037748
0.0378587
0.0379259
0.0379657
0.0379887
0.0380017
0.0380087
0.0380125
0.0380144
0.0380149
0.038014
0.0380123
0.0380099
0.0380061
0.0380009
0.0379948
0.0379878
0.0379793
0.0379698
0.0379597
0.0379482
0.0379345
0.0379196
0.0379066
0.0378969
0.0378889
0.03788
0.0378695
0.0378604
0.0378552
0.0378536
0.037852
0.0378473
0.0378386
0.0378295
0.0378216
0.0378167
0.0378117
0.0378061
0.0378009
0.0377995
0.0377994
0.0378006
0.037799
0.0377935
0.0377861
0.0377807
0.0377798
0.0377845
0.0377946
0.0378086
0.0378233
0.00695516
0.00349971
0.00265958
0.00293574
0.0035104
0.00407712
0.00454206
0.00525587
0.00897097
0.0166768
0.0236836
0.028583
0.032065
0.0347448
0.0369534
0.0388578
0.0405312
0.0419884
0.0432158
0.0441992
0.0449432
0.045475
0.0458362
0.0460713
0.046219
0.0463091
0.0463626
0.0463936
0.0464112
0.0464207
0.046426
0.0464287
0.0464294
0.0464287
0.0464268
0.0464241
0.0464199
0.046414
0.0464071
0.0463992
0.0463895
0.0463786
0.0463669
0.0463537
0.0463379
0.0463207
0.0463055
0.0462939
0.0462843
0.0462738
0.0462616
0.0462507
0.0462443
0.0462419
0.0462399
0.0462346
0.0462248
0.0462144
0.0462052
0.0461992
0.0461934
0.0461867
0.0461806
0.0461787
0.0461784
0.0461797
0.046178
0.0461719
0.0461634
0.0461572
0.0461558
0.0461607
0.0461717
0.0461873
0.0462039
0.00946474
0.00509806
0.00338162
0.00315978
0.00358496
0.00416983
0.00471428
0.00560023
0.0100913
0.0191962
0.0274323
0.0332496
0.0374227
0.0406493
0.043317
0.0456267
0.0476697
0.049465
0.0509936
0.0522318
0.0531781
0.0538607
0.0543277
0.0546335
0.0548264
0.0549445
0.0550149
0.0550559
0.0550792
0.055092
0.055099
0.0551027
0.0551039
0.0551033
0.0551014
0.0550985
0.055094
0.0550875
0.0550799
0.0550711
0.0550602
0.0550481
0.055035
0.0550201
0.0550023
0.0549829
0.0549655
0.0549521
0.0549408
0.0549287
0.0549147
0.0549021
0.0548942
0.054891
0.0548884
0.0548826
0.0548718
0.0548602
0.0548498
0.0548428
0.054836
0.0548284
0.0548214
0.0548188
0.0548182
0.0548196
0.0548179
0.0548113
0.0548019
0.0547948
0.0547929
0.0547978
0.0548094
0.0548262
0.0548443
0.0120501
0.00712166
0.00459987
0.00367964
0.00374397
0.00422428
0.00479294
0.00581924
0.0109839
0.0213804
0.030863
0.0376628
0.0425894
0.0464142
0.0495835
0.0523358
0.0547842
0.0569544
0.0588221
0.0603525
0.0615353
0.0623967
0.0629909
0.0633824
0.0636307
0.0637835
0.0638748
0.0639282
0.0639587
0.0639755
0.0639848
0.0639897
0.0639915
0.0639912
0.0639894
0.0639864
0.0639815
0.0639746
0.0639663
0.0639568
0.0639449
0.0639316
0.0639171
0.0639008
0.0638812
0.0638597
0.0638401
0.0638247
0.0638117
0.0637981
0.0637823
0.0637679
0.0637585
0.0637543
0.0637511
0.0637447
0.0637332
0.0637205
0.0637088
0.0637007
0.063693
0.0636845
0.0636765
0.0636732
0.0636722
0.0636736
0.0636719
0.063665
0.0636549
0.0636469
0.0636443
0.063649
0.0636609
0.0636787
0.0636979
0.014538
0.00942081
0.006316
0.00465951
0.00415406
0.0043478
0.00483594
0.00593194
0.0116041
0.023139
0.0338785
0.041729
0.047477
0.0519565
0.0556735
0.0589082
0.0617996
0.0643836
0.0666318
0.0684968
0.0699555
0.0710294
0.0717769
0.0722729
0.0725892
0.0727847
0.0729021
0.072971
0.0730105
0.0730324
0.0730446
0.073051
0.0730537
0.0730537
0.073052
0.073049
0.073044
0.0730367
0.0730279
0.0730176
0.0730049
0.0729906
0.0729749
0.0729571
0.0729358
0.0729124
0.0728907
0.0728733
0.0728586
0.0728433
0.0728258
0.0728096
0.0727986
0.0727932
0.0727892
0.0727824
0.0727702
0.0727566
0.0727438
0.0727346
0.0727259
0.0727164
0.0727074
0.0727034
0.0727019
0.0727032
0.0727016
0.0726945
0.0726838
0.072675
0.0726716
0.0726759
0.0726879
0.0727063
0.0727263
0.0167962
0.0118298
0.00841626
0.00616621
0.00499621
0.0047053
0.00495247
0.00599016
0.0119286
0.0243958
0.036384
0.0453526
0.0519945
0.0571901
0.0615047
0.0652641
0.0686382
0.0716774
0.0743515
0.0765989
0.07838
0.0797066
0.0806391
0.0812627
0.0816629
0.0819114
0.0820613
0.0821496
0.0822005
0.0822289
0.0822446
0.0822531
0.0822569
0.0822574
0.082256
0.0822531
0.0822479
0.0822404
0.0822311
0.0822203
0.0822069
0.0821916
0.0821747
0.0821557
0.0821329
0.0821077
0.082084
0.0820645
0.082048
0.0820311
0.082012
0.081994
0.0819812
0.0819744
0.0819696
0.0819623
0.0819496
0.0819351
0.0819213
0.0819109
0.0819013
0.0818909
0.081881
0.0818761
0.081874
0.0818751
0.0818736
0.0818665
0.0818553
0.0818457
0.0818416
0.0818452
0.0818569
0.0818756
0.0818961
0.0187408
0.0141956
0.0107319
0.00812777
0.00637653
0.00548672
0.00531102
0.00609706
0.0119649
0.0250891
0.0382861
0.0484337
0.0560448
0.0620224
0.0669889
0.0713187
0.0752175
0.078756
0.0819055
0.0845895
0.0867469
0.0883747
0.0895312
0.0903111
0.090815
0.0911294
0.09132
0.0914327
0.0914979
0.0915345
0.0915549
0.0915659
0.091571
0.0915724
0.0915713
0.0915685
0.0915634
0.0915557
0.0915461
0.0915349
0.0915208
0.0915047
0.0914869
0.0914667
0.0914426
0.0914157
0.0913901
0.0913686
0.0913503
0.0913317
0.091311
0.0912911
0.0912765
0.0912681
0.0912624
0.0912546
0.0912415
0.0912264
0.0912115
0.0912001
0.0911894
0.0911781
0.0911673
0.0911615
0.0911587
0.0911596
0.0911581
0.0911511
0.0911397
0.0911294
0.0911243
0.0911271
0.0911383
0.091157
0.0911775
0.0203352
0.0163922
0.0130917
0.0103769
0.00825508
0.00681703
0.00610512
0.00641315
0.0117633
0.0251772
0.0394937
0.0508671
0.059523
0.0663532
0.0720303
0.0769795
0.0814476
0.0855322
0.0892111
0.0923931
0.0949902
0.0969773
0.0984053
0.0993773
0.10001
0.100406
0.100648
0.100791
0.100875
0.100922
0.100948
0.100962
0.100969
0.100971
0.100971
0.100968
0.100963
0.100956
0.100946
0.100934
0.10092
0.100903
0.100884
0.100863
0.100838
0.10081
0.100782
0.100759
0.100738
0.100718
0.100696
0.100674
0.100658
0.100648
0.100641
0.100632
0.100619
0.100603
0.100588
0.100575
0.100563
0.100551
0.10054
0.100533
0.100529
0.10053
0.100528
0.100521
0.10051
0.100499
0.100493
0.100495
0.100505
0.100524
0.100544
0.0215824
0.0183292
0.0153489
0.0127224
0.0104668
0.00866953
0.00745886
0.00713021
0.0114291
0.0246475
0.0399226
0.0525434
0.0623158
0.0700724
0.0765233
0.0821448
0.0872298
0.0919103
0.0961774
0.0999263
0.103037
0.105453
0.107211
0.10842
0.109211
0.109711
0.110016
0.110199
0.110305
0.110365
0.110399
0.110417
0.110427
0.11043
0.11043
0.110428
0.110423
0.110416
0.110406
0.110394
0.110379
0.110362
0.110343
0.110321
0.110295
0.110265
0.110236
0.11021
0.110188
0.110166
0.110143
0.110119
0.110101
0.110089
0.11008
0.110072
0.110058
0.110042
0.110026
0.110012
0.109999
0.109986
0.109974
0.109966
0.109961
0.109961
0.10996
0.109953
0.109942
0.109931
0.109924
0.109924
0.109934
0.109951
0.109971
0.022514
0.0199542
0.0173925
0.0149955
0.0128018
0.0108734
0.00933631
0.0083904
0.0111337
0.0235317
0.0395031
0.0533512
0.0643015
0.0730594
0.0803513
0.0867022
0.0924547
0.0977839
0.102703
0.107097
0.110808
0.113737
0.115897
0.117396
0.118386
0.119014
0.1194
0.119631
0.119766
0.119843
0.119886
0.11991
0.119922
0.119928
0.119929
0.119927
0.119923
0.119915
0.119905
0.119894
0.119879
0.119861
0.119841
0.119819
0.119792
0.119761
0.11973
0.119703
0.119679
0.119656
0.11963
0.119605
0.119585
0.119571
0.119561
0.119551
0.119538
0.119521
0.119504
0.11949
0.119476
0.119462
0.119449
0.11944
0.119434
0.119434
0.119432
0.119426
0.119415
0.119403
0.119396
0.119395
0.119403
0.119419
0.119438
0.0231786
0.0212514
0.0191502
0.0170695
0.0150708
0.0132006
0.0115506
0.0101873
0.0111126
0.0219254
0.0381921
0.0531829
0.065352
0.0751827
0.0833859
0.0905272
0.0970013
0.103035
0.108675
0.113801
0.118213
0.121756
0.124405
0.126263
0.127499
0.128288
0.128775
0.129068
0.129239
0.129338
0.129393
0.129423
0.129439
0.129447
0.129449
0.129448
0.129444
0.129437
0.129428
0.129416
0.129401
0.129383
0.129363
0.12934
0.129312
0.129281
0.129249
0.12922
0.129194
0.129169
0.129142
0.129115
0.129093
0.129077
0.129065
0.129055
0.129041
0.129025
0.129007
0.128992
0.128977
0.128963
0.128948
0.128938
0.128932
0.12893
0.128929
0.128923
0.128912
0.1289
0.128892
0.12889
0.128896
0.128911
0.128928
0.0236308
0.0222361
0.020588
0.0188626
0.0171346
0.015446
0.0138588
0.0123448
0.0116279
0.020012
0.0359937
0.0519439
0.0653361
0.0763011
0.0854865
0.0934824
0.100735
0.107532
0.113967
0.119924
0.125155
0.129433
0.132677
0.134978
0.13652
0.13751
0.138123
0.138493
0.138711
0.138836
0.138906
0.138945
0.138966
0.138976
0.13898
0.13898
0.138976
0.13897
0.138961
0.138949
0.138934
0.138916
0.138896
0.138873
0.138845
0.138813
0.13878
0.13875
0.138722
0.138695
0.138667
0.138639
0.138614
0.138595
0.138582
0.138571
0.138557
0.13854
0.138523
0.138507
0.138491
0.138476
0.138461
0.13845
0.138442
0.13844
0.138438
0.138433
0.138422
0.13841
0.138401
0.138398
0.138403
0.138416
0.138431
0.023924
0.0229457
0.0217058
0.0203352
0.0189075
0.0174641
0.0160495
0.0146031
0.0128542
0.0180848
0.0329877
0.0495694
0.064127
0.0762671
0.0865009
0.095417
0.103508
0.11113
0.118439
0.125337
0.131525
0.136682
0.140653
0.143499
0.145421
0.146661
0.147432
0.147898
0.148173
0.148332
0.148422
0.148471
0.148498
0.148511
0.148517
0.148518
0.148515
0.148509
0.1485
0.148489
0.148474
0.148457
0.148437
0.148413
0.148385
0.148353
0.14832
0.148287
0.148258
0.14823
0.1482
0.14817
0.148143
0.148123
0.148108
0.148095
0.148081
0.148065
0.148047
0.14803
0.148014
0.147998
0.147982
0.14797
0.147961
0.147958
0.147955
0.14795
0.147941
0.147929
0.147919
0.147915
0.147918
0.147929
0.147941
0.0241048
0.0234303
0.02253
0.021484
0.0203521
0.0191728
0.0179812
0.016727
0.0147107
0.0165565
0.02937
0.0460504
0.0616153
0.0749318
0.0862675
0.0961672
0.105158
0.113669
0.121937
0.129901
0.137207
0.143418
0.148273
0.151788
0.15418
0.155729
0.156696
0.157282
0.157628
0.157828
0.157942
0.158004
0.158038
0.158055
0.158063
0.158065
0.158064
0.158058
0.15805
0.158039
0.158025
0.158008
0.157988
0.157964
0.157937
0.157905
0.157871
0.157837
0.157806
0.157776
0.157745
0.157714
0.157685
0.157662
0.157645
0.157631
0.157617
0.1576
0.157583
0.157565
0.157549
0.157533
0.157516
0.157503
0.157493
0.157488
0.157485
0.15748
0.157471
0.15746
0.15745
0.157444
0.157445
0.157454
0.157464
0.0242104
0.023743
0.023105
0.0223338
0.0214692
0.0205427
0.0195829
0.0185634
0.0168321
0.0159154
0.0255005
0.0414763
0.0577324
0.0721567
0.0846208
0.0955586
0.105508
0.114973
0.124294
0.133464
0.142078
0.149551
0.15548
0.159816
0.162783
0.164713
0.16592
0.166653
0.167086
0.167337
0.167479
0.167557
0.1676
0.167622
0.167632
0.167636
0.167635
0.167631
0.167623
0.167613
0.167599
0.167582
0.167562
0.167539
0.167512
0.16748
0.167446
0.167411
0.167379
0.167347
0.167315
0.167283
0.167252
0.167227
0.167207
0.167192
0.167177
0.167161
0.167143
0.167125
0.167109
0.167092
0.167075
0.167061
0.16705
0.167043
0.16704
0.167035
0.167026
0.167015
0.167005
0.166998
0.166997
0.167004
0.167011
0.0242686
0.023933
0.0234831
0.0229279
0.0222877
0.0215841
0.0208389
0.0200458
0.0187935
0.0165168
0.0219448
0.0360982
0.0524893
0.0678345
0.0814008
0.0934112
0.104371
0.114857
0.12533
0.13587
0.146016
0.155001
0.162231
0.167564
0.171231
0.173622
0.17512
0.176029
0.176567
0.176878
0.177054
0.177151
0.177204
0.177232
0.177245
0.17725
0.17725
0.177247
0.17724
0.17723
0.177217
0.177201
0.177181
0.177159
0.177132
0.1771
0.177066
0.177031
0.176997
0.176964
0.17693
0.176897
0.176865
0.176837
0.176815
0.176798
0.176783
0.176766
0.176749
0.176731
0.176714
0.176697
0.17668
0.176665
0.176652
0.176644
0.17664
0.176635
0.176627
0.176616
0.176606
0.176598
0.176596
0.1766
0.176604
0.0242989
0.0240415
0.0237167
0.0233189
0.0228542
0.0223337
0.0217719
0.0211729
0.0203463
0.0181663
0.019457
0.030412
0.0460436
0.0619257
0.0764749
0.0895504
0.101557
0.113126
0.124864
0.136966
0.148914
0.159705
0.1685
0.175032
0.179538
0.182478
0.18432
0.185436
0.186096
0.186477
0.186693
0.186812
0.186876
0.186909
0.186926
0.186933
0.186934
0.186931
0.186925
0.186915
0.186903
0.186887
0.186868
0.186846
0.186819
0.186788
0.186754
0.186718
0.186683
0.186649
0.186614
0.186579
0.186546
0.186516
0.186493
0.186474
0.186457
0.186441
0.186423
0.186406
0.186388
0.186371
0.186354
0.186338
0.186325
0.186315
0.186309
0.186304
0.186296
0.186286
0.186276
0.186267
0.186263
0.186266
0.186268
0.0243137
0.0240993
0.0238516
0.0235602
0.0232228
0.0228426
0.0224272
0.0219832
0.0214501
0.0200555
0.0187446
0.0252385
0.0388033
0.0545267
0.0697738
0.0838278
0.0968839
0.109594
0.122729
0.136627
0.150699
0.163642
0.174297
0.182245
0.187732
0.19131
0.193546
0.194898
0.195696
0.196155
0.196413
0.196555
0.196631
0.196671
0.19669
0.196699
0.196701
0.196698
0.196693
0.196684
0.196672
0.196656
0.196637
0.196615
0.196589
0.196559
0.196525
0.196489
0.196453
0.196417
0.196381
0.196345
0.19631
0.196279
0.196253
0.196233
0.196215
0.196198
0.196181
0.196163
0.196146
0.196129
0.196111
0.196095
0.196081
0.19607
0.196063
0.196056
0.196048
0.196039
0.196028
0.19602
0.196015
0.196016
0.196015
0.0243203
0.0241281
0.0239241
0.0236989
0.0234471
0.0231669
0.0228609
0.0225335
0.0221792
0.0214807
0.0197728
0.0216849
0.0315663
0.0459852
0.061363
0.0761629
0.0902086
0.104108
0.118803
0.134794
0.151378
0.166856
0.179678
0.189251
0.195849
0.200136
0.202806
0.204414
0.205358
0.205898
0.2062
0.206365
0.206453
0.206498
0.20652
0.20653
0.206532
0.20653
0.206524
0.206516
0.206504
0.206488
0.20647
0.206448
0.206422
0.206392
0.206358
0.206321
0.206284
0.206248
0.206211
0.206174
0.206138
0.206105
0.206077
0.206055
0.206036
0.206018
0.206001
0.205983
0.205966
0.205949
0.205932
0.205915
0.2059
0.205888
0.205879
0.205872
0.205864
0.205854
0.205844
0.205835
0.205829
0.20583
0.205827
0.0243232
0.0241413
0.0239602
0.0237729
0.0235739
0.0233597
0.0231295
0.0228853
0.0226354
0.0223106
0.0213535
0.0206369
0.0256175
0.0370842
0.0515738
0.0666272
0.081485
0.096608
0.113088
0.131556
0.151099
0.169497
0.184753
0.196108
0.203897
0.208932
0.212049
0.213915
0.215002
0.21562
0.215962
0.216148
0.216245
0.216294
0.216317
0.216327
0.216329
0.216327
0.216321
0.216312
0.2163
0.216284
0.216265
0.216243
0.216217
0.216187
0.216153
0.216116
0.216078
0.21604
0.216002
0.215964
0.215927
0.215893
0.215864
0.21584
0.215819
0.215801
0.215783
0.215766
0.215749
0.215732
0.215714
0.215698
0.215682
0.215669
0.215659
0.21565
0.215641
0.215631
0.215621
0.215612
0.215607
0.215607
0.215603
0.0243242
0.0241468
0.0239767
0.0238092
0.0236401
0.0234659
0.0232843
0.0230953
0.0229071
0.0227304
0.0223963
0.0215413
0.022423
0.0292433
0.0412347
0.0556122
0.0708985
0.087265
0.105856
0.127286
0.150229
0.171832
0.189651
0.202822
0.211793
0.21755
0.221087
0.223188
0.224401
0.225084
0.225457
0.225656
0.225759
0.225809
0.225832
0.225841
0.225842
0.225838
0.225831
0.225822
0.225809
0.225793
0.225773
0.22575
0.225724
0.225693
0.225658
0.225621
0.225582
0.225543
0.225504
0.225465
0.225427
0.225392
0.225362
0.225337
0.225315
0.225296
0.225277
0.22526
0.225242
0.225225
0.225208
0.225192
0.225176
0.225162
0.225151
0.225141
0.225131
0.22512
0.22511
0.225101
0.225097
0.225097
0.225093
0.0243246
0.024149
0.0239836
0.0238255
0.0236718
0.0235195
0.0233663
0.0232113
0.0230596
0.0229316
0.0228274
0.022571
0.0222037
0.0243627
0.0319928
0.044177
0.0591903
0.0768137
0.0979548
0.122817
0.149389
0.17417
0.1944
0.209217
0.219226
0.2256
0.229483
0.231769
0.233075
0.233799
0.23419
0.234394
0.234496
0.234544
0.234564
0.234571
0.23457
0.234565
0.234557
0.234546
0.234532
0.234515
0.234494
0.23447
0.234442
0.234411
0.234375
0.234337
0.234298
0.234257
0.234217
0.234177
0.234139
0.234104
0.234073
0.234047
0.234024
0.234003
0.233984
0.233966
0.233948
0.233931
0.233914
0.233898
0.233882
0.233868
0.233855
0.233844
0.233833
0.233821
0.233811
0.233803
0.233799
0.233801
0.233797
0.0243248
0.0241497
0.0239862
0.0238321
0.0236854
0.0235439
0.0234055
0.0232692
0.023138
0.0230257
0.0229598
0.0229563
0.0229368
0.0232341
0.0262996
0.0346665
0.0484104
0.0672215
0.0911697
0.119434
0.149203
0.176564
0.198659
0.214713
0.225483
0.232294
0.236412
0.238815
0.240173
0.240916
0.24131
0.24151
0.241607
0.24165
0.241667
0.24167
0.241667
0.24166
0.24165
0.241638
0.241623
0.241605
0.241583
0.241557
0.241528
0.241495
0.241459
0.24142
0.24138
0.241339
0.241297
0.241256
0.241218
0.241182
0.241151
0.241125
0.241101
0.241079
0.241059
0.24104
0.241022
0.241005
0.240988
0.240972
0.240956
0.240942
0.240929
0.240917
0.240904
0.240893
0.240882
0.240874
0.240871
0.240874
0.240871
0.0243248
0.0241499
0.023987
0.0238344
0.0236903
0.023553
0.0234209
0.0232928
0.0231709
0.0230642
0.0229936
0.0230113
0.0232057
0.0236952
0.025203
0.0304364
0.0423953
0.0617685
0.087606
0.117978
0.149569
0.178341
0.201444
0.218162
0.229336
0.236375
0.240611
0.243067
0.244444
0.245191
0.245581
0.245776
0.245867
0.245906
0.245919
0.245919
0.245914
0.245906
0.245895
0.245882
0.245866
0.245847
0.245824
0.245798
0.245768
0.245734
0.245697
0.245657
0.245616
0.245574
0.245532
0.245491
0.245452
0.245417
0.245386
0.245359
0.245334
0.245312
0.245292
0.245272
0.245254
0.245236
0.245219
0.245203
0.245188
0.245174
0.245161
0.245148
0.245135
0.245123
0.245112
0.245104
0.245101
0.245105
0.245103
0.0243248
0.0241499
0.023987
0.0238344
0.0236903
0.023553
0.0234209
0.0232927
0.0231709
0.0230644
0.0229948
0.0230149
0.0232138
0.0237113
0.0252321
0.0304565
0.0423599
0.0616646
0.0874611
0.117831
0.149446
0.178247
0.201375
0.218111
0.229297
0.236343
0.240583
0.243041
0.244418
0.245165
0.245555
0.24575
0.245842
0.24588
0.245893
0.245894
0.245889
0.24588
0.24587
0.245857
0.245841
0.245822
0.245799
0.245773
0.245742
0.245708
0.245671
0.245632
0.245591
0.245549
0.245507
0.245465
0.245427
0.245392
0.245361
0.245334
0.245309
0.245287
0.245266
0.245247
0.245228
0.24521
0.245193
0.245177
0.245163
0.245149
0.245136
0.245123
0.24511
0.245098
0.245087
0.245079
0.245076
0.245079
0.245076
0.0243248
0.0241497
0.0239862
0.0238321
0.0236854
0.0235439
0.0234055
0.0232692
0.023138
0.0230266
0.0229638
0.0229665
0.0229602
0.0232909
0.0263727
0.0346582
0.0482388
0.066882
0.0907326
0.118997
0.148834
0.176282
0.198452
0.21456
0.225363
0.232194
0.236325
0.238733
0.240094
0.240839
0.241233
0.241433
0.24153
0.241573
0.241589
0.241593
0.241589
0.241582
0.241573
0.241561
0.241546
0.241528
0.241506
0.24148
0.241451
0.241417
0.241381
0.241343
0.241303
0.241261
0.241219
0.241179
0.241141
0.241106
0.241075
0.241048
0.241023
0.241001
0.240981
0.240963
0.240944
0.240926
0.240909
0.240893
0.240879
0.240867
0.240854
0.240841
0.240829
0.240817
0.240806
0.240797
0.240792
0.240794
0.24079
0.0243246
0.024149
0.0239836
0.0238256
0.0236718
0.0235195
0.0233663
0.0232112
0.0230596
0.0229332
0.0228325
0.0225843
0.0222568
0.0244708
0.0320497
0.0440662
0.0588588
0.0762756
0.0972907
0.122146
0.148808
0.173714
0.194056
0.208956
0.219019
0.225425
0.229327
0.231624
0.232934
0.233662
0.234054
0.234258
0.23436
0.234408
0.234428
0.234435
0.234434
0.234429
0.234421
0.23441
0.234396
0.234379
0.234358
0.234334
0.234305
0.234273
0.234239
0.234202
0.234163
0.234122
0.234081
0.234041
0.234004
0.23397
0.233939
0.233912
0.233888
0.233867
0.233848
0.23383
0.233811
0.233793
0.233777
0.233761
0.233748
0.233736
0.233723
0.233711
0.233698
0.233687
0.233676
0.233666
0.23366
0.23366
0.233655
0.0243242
0.0241468
0.0239767
0.0238093
0.0236402
0.0234659
0.0232843
0.0230951
0.0229071
0.0227311
0.0223957
0.021567
0.0225413
0.0293672
0.0412171
0.0553746
0.0704264
0.0865897
0.105052
0.126466
0.149497
0.171237
0.189185
0.202456
0.211494
0.217293
0.220856
0.222971
0.224192
0.224878
0.225254
0.225454
0.225557
0.225607
0.22563
0.225639
0.22564
0.225636
0.225629
0.22562
0.225607
0.22559
0.22557
0.225547
0.225519
0.225488
0.225455
0.225419
0.225382
0.225342
0.225302
0.225263
0.225226
0.225193
0.225163
0.225137
0.225113
0.225093
0.225075
0.225058
0.22504
0.225023
0.225006
0.224992
0.224979
0.224966
0.224954
0.224941
0.224929
0.224918
0.224906
0.224897
0.22489
0.224888
0.224882
0.0243232
0.0241413
0.0239602
0.023773
0.023574
0.0233599
0.0231296
0.0228849
0.0226346
0.022304
0.0213418
0.0207242
0.0257947
0.0371723
0.0514543
0.0662691
0.0809036
0.0958446
0.112209
0.13066
0.15028
0.168808
0.184195
0.195655
0.203516
0.208598
0.211744
0.213627
0.214723
0.215346
0.215692
0.215878
0.215976
0.216026
0.216049
0.216059
0.21606
0.216058
0.216052
0.216042
0.21603
0.216014
0.215994
0.215971
0.215944
0.215914
0.215882
0.215848
0.215811
0.215772
0.215733
0.215695
0.21566
0.215628
0.215599
0.215573
0.215551
0.215532
0.215514
0.215498
0.215481
0.215464
0.215448
0.215434
0.215421
0.215409
0.215396
0.215383
0.215371
0.215359
0.215348
0.215338
0.215331
0.215329
0.215323
0.0243203
0.0241281
0.0239241
0.0236991
0.0234473
0.0231673
0.0228611
0.022533
0.0221752
0.0214544
0.0197815
0.0218683
0.0317575
0.0460025
0.0611393
0.0757051
0.0895494
0.103293
0.117892
0.133869
0.150522
0.166117
0.179061
0.188734
0.195403
0.199738
0.202437
0.204063
0.205016
0.205562
0.205868
0.206035
0.206124
0.206169
0.206191
0.206201
0.206202
0.2062
0.206194
0.206185
0.206172
0.206156
0.206137
0.206113
0.206087
0.206057
0.206026
0.205993
0.205957
0.205919
0.20588
0.205844
0.20581
0.205779
0.205752
0.205727
0.205706
0.205687
0.205671
0.205655
0.205639
0.205622
0.205607
0.205593
0.205581
0.205569
0.205555
0.205542
0.205529
0.205518
0.205506
0.205497
0.20549
0.205489
0.205484
0.0243137
0.0240994
0.0238517
0.0235605
0.0232233
0.0228433
0.0224278
0.0219821
0.0214373
0.0200034
0.0188432
0.0254947
0.0389655
0.0544595
0.0694584
0.0832945
0.0961744
0.108755
0.121813
0.135705
0.149839
0.162884
0.173648
0.181687
0.187241
0.190863
0.193126
0.194496
0.195303
0.195768
0.19603
0.196174
0.196251
0.196291
0.196311
0.196319
0.19632
0.196317
0.196311
0.196302
0.196288
0.196272
0.196252
0.196229
0.196202
0.196173
0.196143
0.19611
0.196074
0.196037
0.196
0.195965
0.195933
0.195904
0.195877
0.195854
0.195834
0.195816
0.195801
0.195785
0.195769
0.195753
0.195739
0.195726
0.195714
0.195702
0.195687
0.195673
0.19566
0.195648
0.195638
0.195629
0.195623
0.195622
0.19562
0.024299
0.0240416
0.023717
0.0233195
0.0228551
0.0223349
0.0217728
0.0211706
0.0203157
0.0181199
0.0196767
0.0306963
0.0461496
0.0617761
0.076086
0.0889649
0.10082
0.112282
0.123963
0.136066
0.148071
0.158952
0.167842
0.174453
0.179018
0.181998
0.183865
0.184997
0.185666
0.186053
0.186272
0.186393
0.186457
0.186491
0.186508
0.186515
0.186515
0.186511
0.186504
0.186494
0.18648
0.186463
0.186443
0.186419
0.186392
0.186364
0.186334
0.186302
0.186267
0.18623
0.186194
0.18616
0.18613
0.186103
0.186078
0.186056
0.186037
0.18602
0.186005
0.18599
0.185975
0.185959
0.185946
0.185934
0.185922
0.185909
0.185894
0.185879
0.185866
0.185854
0.185844
0.185836
0.185831
0.185833
0.185833
0.0242687
0.0239333
0.0234837
0.0229289
0.0222892
0.021586
0.0208404
0.0200408
0.0187376
0.0165485
0.0222613
0.0363709
0.0525276
0.0676129
0.0809573
0.0927937
0.103625
0.114025
0.124457
0.135005
0.145205
0.154267
0.161579
0.16698
0.170698
0.173124
0.174643
0.175566
0.176112
0.176428
0.176607
0.176707
0.17676
0.176788
0.176801
0.176806
0.176805
0.176801
0.176793
0.176782
0.176767
0.17675
0.176729
0.176704
0.176678
0.17665
0.176621
0.176589
0.176554
0.176518
0.176483
0.176451
0.176424
0.176398
0.176375
0.176354
0.176335
0.176319
0.176305
0.176291
0.176276
0.176261
0.176249
0.176237
0.176226
0.176212
0.176196
0.17618
0.176167
0.176156
0.176147
0.17614
0.176137
0.17614
0.176144
0.0242105
0.0237435
0.023106
0.0223355
0.0214714
0.0205456
0.0195851
0.0185541
0.0167578
0.0160753
0.0258722
0.0417108
0.0577032
0.0718771
0.0841399
0.094926
0.104767
0.114165
0.123458
0.132642
0.141305
0.148847
0.154845
0.159239
0.162249
0.164208
0.165434
0.166178
0.166618
0.166873
0.167018
0.167098
0.167141
0.167164
0.167174
0.167177
0.167175
0.16717
0.167161
0.16715
0.167134
0.167116
0.167094
0.16707
0.167043
0.167015
0.166987
0.166956
0.166922
0.166886
0.166853
0.166823
0.166798
0.166774
0.166753
0.166732
0.166715
0.166699
0.166686
0.166672
0.166657
0.166643
0.166632
0.166621
0.16661
0.166595
0.166579
0.166562
0.166549
0.166539
0.166531
0.166525
0.166523
0.16653
0.166537
0.0241051
0.0234313
0.0225317
0.0214866
0.0203554
0.0191769
0.0179842
0.0167125
0.0146519
0.0168401
0.029758
0.0462324
0.0615254
0.0746081
0.0857645
0.0955332
0.104434
0.112893
0.121145
0.129127
0.136479
0.142749
0.147662
0.151227
0.153653
0.155227
0.15621
0.156806
0.157158
0.157362
0.157477
0.157542
0.157576
0.157593
0.157601
0.157603
0.157599
0.157593
0.157584
0.157571
0.157556
0.157537
0.157515
0.15749
0.157463
0.157436
0.157409
0.157378
0.157344
0.15731
0.157278
0.15725
0.157227
0.157206
0.157186
0.157166
0.157149
0.157134
0.157122
0.157108
0.157094
0.157081
0.157071
0.15706
0.15705
0.157034
0.157017
0.157
0.156988
0.156978
0.156971
0.156966
0.156967
0.156975
0.156985
0.0239247
0.0229473
0.0217084
0.0203389
0.018912
0.0174696
0.0160533
0.0145851
0.0128618
0.0184594
0.0333621
0.0496946