/*--------------------------------*- C++ -*----------------------------------*\
  =========                 |
  \\      /  F ield         | OpenFOAM: The Open Source CFD Toolbox
   \\    /   O peration     | Website:  https://openfoam.org
    \\  /    A nd           | Version:  7
     \\/     M anipulation  |
\*---------------------------------------------------------------------------*/
FoamFile
{
    version     2.0;
    format      ascii;
    class       volScalarField;
    location    "200";
    object      p;
}
// * * * * * * * * * * * * * * * * * * * * * * * * * * * * * * * * * * * * * //

dimensions      [0 2 -2 0 0 0 0];

internalField   nonuniform List<scalar> 
4500
(
259.842
256.829
255.668
254.533
253.402
252.323
251.265
250.378
249.642
247.823
244.3
240.019
235.779
231.828
228.2
224.872
221.827
219.018
216.35
213.661
210.796
207.668
204.293
200.717
197.011
193.21
189.361
185.473
181.57
177.65
173.729
169.797
165.872
161.936
158.01
154.075
150.153
146.217
142.298
138.367
134.453
130.525
126.615
122.693
118.788
114.872
110.97
107.058
103.159
99.2495
95.356
91.448
87.5524
83.6451
79.75
75.8454
71.9569
68.0574
64.1695
60.274
56.3859
52.4918
48.6056
44.711
40.826
36.9326
33.052
29.1622
25.2856
21.3984
17.5215
13.6293
9.74781
5.84432
1.96014
259.455
256.801
255.667
254.534
253.402
252.323
251.265
250.378
249.642
247.822
244.3
240.019
235.779
231.828
228.199
224.872
221.827
219.018
216.35
213.661
210.796
207.668
204.293
200.717
197.011
193.21
189.361
185.473
181.57
177.65
173.729
169.797
165.872
161.936
158.01
154.075
150.153
146.217
142.298
138.367
134.453
130.525
126.615
122.693
118.788
114.872
110.97
107.058
103.159
99.2495
95.356
91.448
87.5524
83.6451
79.75
75.8453
71.9569
68.0574
64.1695
60.274
56.3859
52.4918
48.6056
44.711
40.826
36.9326
33.052
29.1622
25.2856
21.3984
17.5215
13.6293
9.74782
5.84433
1.96014
259.367
256.808
255.669
254.535
253.403
252.324
251.265
250.377
249.641
247.822
244.301
240.02
235.779
231.828
228.199
224.872
221.826
219.018
216.35
213.661
210.796
207.668
204.293
200.717
197.011
193.21
189.361
185.473
181.57
177.649
173.729
169.797
165.872
161.936
158.01
154.075
150.153
146.217
142.298
138.367
134.453
130.525
126.615
122.693
118.788
114.872
110.97
107.058
103.159
99.2495
95.356
91.448
87.5524
83.6451
79.75
75.8453
71.9569
68.0574
64.1695
60.274
56.3859
52.4918
48.6056
44.711
40.826
36.9326
33.052
29.1622
25.2856
21.3984
17.5215
13.6293
9.74783
5.84434
1.96015
259.367
256.816
255.671
254.536
253.404
252.324
251.265
250.377
249.642
247.823
244.302
240.021
235.78
231.828
228.199
224.871
221.826
219.017
216.349
213.66
210.795
207.667
204.293
200.717
197.011
193.21
189.361
185.473
181.57
177.649
173.729
169.797
165.872
161.936
158.01
154.075
150.153
146.217
142.298
138.367
134.453
130.525
126.615
122.693
118.788
114.872
110.97
107.058
103.159
99.2495
95.356
91.448
87.5524
83.6451
79.75
75.8453
71.9568
68.0574
64.1695
60.274
56.3859
52.4918
48.6056
44.711
40.826
36.9326
33.052
29.1622
25.2856
21.3984
17.5215
13.6293
9.74784
5.84436
1.96015
259.363
256.819
255.672
254.537
253.404
252.325
251.266
250.378
249.643
247.826
244.305
240.022
235.78
231.828
228.198
224.871
221.825
219.016
216.349
213.66
210.795
207.667
204.293
200.717
197.011
193.21
189.361
185.473
181.57
177.649
173.729
169.797
165.872
161.936
158.01
154.075
150.153
146.217
142.298
138.367
134.453
130.525
126.615
122.693
118.788
114.872
110.97
107.058
103.159
99.2495
95.356
91.448
87.5524
83.6451
79.75
75.8453
71.9568
68.0574
64.1695
60.274
56.3858
52.4918
48.6056
44.711
40.8261
36.9327
33.052
29.1622
25.2856
21.3984
17.5215
13.6293
9.74786
5.84438
1.96017
259.353
256.821
255.673
254.538
253.405
252.326
251.266
250.379
249.645
247.829
244.308
240.024
235.781
231.828
228.198
224.87
221.824
219.016
216.348
213.659
210.795
207.667
204.292
200.717
197.011
193.21
189.361
185.473
181.57
177.649
173.729
169.797
165.872
161.936
158.01
154.075
150.153
146.217
142.298
138.367
134.453
130.525
126.615
122.693
118.788
114.872
110.97
107.058
103.159
99.2495
95.356
91.4479
87.5524
83.6451
79.75
75.8453
71.9568
68.0574
64.1694
60.274
56.3858
52.4918
48.6056
44.711
40.8261
36.9327
33.052
29.1621
25.2855
21.3984
17.5215
13.6294
9.74788
5.8444
1.96017
259.343
256.824
255.674
254.539
253.406
252.326
251.267
250.38
249.648
247.834
244.312
240.027
235.782
231.828
228.198
224.87
221.824
219.015
216.348
213.659
210.794
207.667
204.292
200.717
197.011
193.21
189.361
185.473
181.57
177.649
173.729
169.797
165.872
161.936
158.01
154.075
150.153
146.217
142.298
138.367
134.453
130.525
126.615
122.693
118.788
114.872
110.969
107.058
103.159
99.2495
95.356
91.4479
87.5524
83.6451
79.75
75.8453
71.9568
68.0573
64.1694
60.274
56.3858
52.4918
48.6056
44.711
40.8261
36.9327
33.052
29.1621
25.2855
21.3983
17.5215
13.6294
9.74791
5.84442
1.96019
259.335
256.827
255.675
254.54
253.407
252.327
251.268
250.382
249.652
247.84
244.317
240.029
235.784
231.828
228.198
224.869
221.823
219.015
216.347
213.659
210.794
207.667
204.292
200.717
197.011
193.21
189.361
185.473
181.57
177.649
173.729
169.797
165.872
161.936
158.01
154.075
150.153
146.217
142.298
138.367
134.453
130.525
126.615
122.693
118.788
114.872
110.969
107.058
103.159
99.2494
95.3559
91.4479
87.5524
83.6451
79.75
75.8453
71.9568
68.0573
64.1694
60.2739
56.3858
52.4918
48.6056
44.7111
40.8261
36.9327
33.0519
29.1621
25.2855
21.3983
17.5215
13.6294
9.74793
5.84445
1.96019
259.326
256.831
255.676
254.54
253.408
252.328
251.269
250.384
249.656
247.846
244.322
240.032
235.785
231.829
228.198
224.869
221.823
219.014
216.347
213.658
210.794
207.667
204.292
200.717
197.011
193.21
189.361
185.473
181.57
177.649
173.729
169.797
165.872
161.936
158.01
154.075
150.153
146.217
142.298
138.367
134.453
130.525
126.615
122.693
118.788
114.872
110.969
107.058
103.159
99.2494
95.3559
91.4479
87.5524
83.6451
79.75
75.8453
71.9567
68.0573
64.1694
60.2739
56.3858
52.4918
48.6056
44.7111
40.8261
36.9327
33.0519
29.1621
25.2855
21.3983
17.5215
13.6294
9.74796
5.84447
1.96022
259.316
256.834
255.676
254.541
253.408
252.329
251.27
250.387
249.661
247.853
244.327
240.035
235.787
231.83
228.198
224.869
221.823
219.014
216.347
213.658
210.794
207.667
204.292
200.717
197.011
193.21
189.361
185.473
181.57
177.649
173.729
169.797
165.872
161.936
158.01
154.075
150.153
146.217
142.298
138.367
134.453
130.525
126.615
122.693
118.788
114.872
110.969
107.058
103.159
99.2494
95.3559
91.4479
87.5524
83.6451
79.75
75.8452
71.9567
68.0573
64.1694
60.2739
56.3858
52.4917
48.6056
44.7111
40.8262
36.9327
33.0519
29.1621
25.2854
21.3983
17.5215
13.6294
9.74798
5.8445
1.96021
259.306
256.837
255.676
254.541
253.409
252.329
251.271
250.39
249.666
247.86
244.333
240.039
235.789
231.831
228.198
224.869
221.822
219.013
216.346
213.658
210.794
207.667
204.292
200.717
197.011
193.21
189.361
185.473
181.57
177.649
173.729
169.797
165.872
161.936
158.01
154.075
150.153
146.217
142.298
138.367
134.453
130.525
126.614
122.693
118.788
114.872
110.969
107.058
103.159
99.2494
95.3559
91.4479
87.5524
83.6451
79.75
75.8452
71.9567
68.0572
64.1694
60.2739
56.3858
52.4917
48.6056
44.7111
40.8262
36.9328
33.0519
29.162
25.2854
21.3983
17.5215
13.6294
9.748
5.84452
1.96025
259.295
256.841
255.677
254.542
253.409
252.33
251.272
250.393
249.671
247.867
244.339
240.043
235.791
231.832
228.199
224.869
221.822
219.013
216.346
213.658
210.794
207.667
204.292
200.717
197.011
193.21
189.361
185.473
181.57
177.649
173.729
169.797
165.872
161.936
158.01
154.075
150.153
146.217
142.298
138.367
134.453
130.525
126.614
122.693
118.788
114.872
110.969
107.058
103.159
99.2494
95.3558
91.4479
87.5524
83.6451
79.75
75.8452
71.9566
68.0572
64.1693
60.2739
56.3858
52.4917
48.6056
44.7111
40.8262
36.9328
33.0519
29.162
25.2854
21.3983
17.5215
13.6294
9.74802
5.84455
1.96024
259.283
256.845
255.677
254.542
253.41
252.33
251.273
250.395
249.675
247.873
244.344
240.047
235.793
231.833
228.2
224.869
221.822
219.013
216.346
213.658
210.794
207.667
204.292
200.717
197.011
193.21
189.361
185.473
181.57
177.649
173.729
169.797
165.872
161.936
158.01
154.075
150.153
146.217
142.298
138.367
134.453
130.525
126.614
122.693
118.788
114.872
110.969
107.058
103.159
99.2494
95.3558
91.4478
87.5524
83.6451
79.75
75.8452
71.9566
68.0572
64.1693
60.2739
56.3857
52.4917
48.6056
44.7111
40.8262
36.9328
33.0519
29.162
25.2854
21.3983
17.5215
13.6295
9.74805
5.84457
1.96028
259.271
256.85
255.677
254.542
253.41
252.331
251.274
250.397
249.679
247.878
244.35
240.052
235.797
231.835
228.201
224.87
221.822
219.013
216.346
213.658
210.794
207.667
204.293
200.717
197.011
193.21
189.361
185.473
181.57
177.649
173.729
169.797
165.872
161.936
158.01
154.075
150.153
146.217
142.298
138.367
134.453
130.525
126.614
122.693
118.788
114.872
110.969
107.058
103.159
99.2494
95.3558
91.4478
87.5524
83.6451
79.75
75.8452
71.9566
68.0572
64.1693
60.2739
56.3857
52.4917
48.6055
44.7111
40.8262
36.9328
33.052
29.162
25.2853
21.3982
17.5215
13.6295
9.74806
5.84459
1.96027
259.258
256.855
255.677
254.542
253.41
252.331
251.275
250.399
249.68
247.881
244.355
240.057
235.8
231.838
228.202
224.871
221.823
219.013
216.346
213.658
210.794
207.667
204.293
200.717
197.012
193.21
189.361
185.473
181.57
177.65
173.729
169.797
165.872
161.936
158.01
154.074
150.153
146.217
142.298
138.367
134.453
130.525
126.614
122.693
118.787
114.872
110.969
107.058
103.159
99.2493
95.3558
91.4478
87.5524
83.6451
79.75
75.8452
71.9566
68.0572
64.1693
60.2739
56.3857
52.4917
48.6055
44.7111
40.8262
36.9328
33.052
29.162
25.2853
21.3982
17.5214
13.6295
9.74808
5.84461
1.96032
259.244
256.86
255.677
254.542
253.41
252.331
251.275
250.401
249.681
247.883
244.36
240.062
235.805
231.841
228.205
224.872
221.824
219.014
216.346
213.658
210.795
207.667
204.293
200.717
197.012
193.21
189.361
185.473
181.57
177.65
173.729
169.797
165.872
161.936
158.01
154.074
150.153
146.217
142.298
138.367
134.453
130.525
126.614
122.693
118.787
114.872
110.969
107.058
103.159
99.2493
95.3558
91.4478
87.5524
83.6451
79.75
75.8452
71.9566
68.0571
64.1693
60.2738
56.3857
52.4916
48.6055
44.7111
40.8262
36.9328
33.052
29.162
25.2853
21.3982
17.5214
13.6295
9.74809
5.84462
1.96031
259.229
256.866
255.677
254.543
253.41
252.331
251.276
250.401
249.679
247.882
244.364
240.068
235.81
231.845
228.207
224.874
221.825
219.015
216.347
213.659
210.795
207.668
204.293
200.718
197.012
193.21
189.361
185.473
181.571
177.65
173.729
169.797
165.872
161.936
158.01
154.074
150.153
146.217
142.298
138.367
134.453
130.525
126.614
122.693
118.787
114.872
110.969
107.058
103.159
99.2493
95.3557
91.4478
87.5524
83.6451
79.75
75.8452
71.9566
68.0571
64.1693
60.2738
56.3857
52.4916
48.6055
44.7111
40.8262
36.9328
33.052
29.162
25.2853
21.3982
17.5214
13.6295
9.74809
5.84463
1.96037
259.213
256.873
255.678
254.543
253.41
252.331
251.277
250.402
249.677
247.88
244.367
240.074
235.816
231.85
228.211
224.876
221.827
219.016
216.348
213.66
210.796
207.669
204.294
200.718
197.012
193.211
189.361
185.473
181.571
177.65
173.729
169.797
165.872
161.936
158.01
154.074
150.153
146.217
142.298
138.367
134.453
130.525
126.614
122.693
118.787
114.872
110.969
107.058
103.159
99.2493
95.3557
91.4478
87.5523
83.6451
79.75
75.8452
71.9566
68.0571
64.1692
60.2738
56.3857
52.4916
48.6055
44.7111
40.8262
36.9329
33.052
29.162
25.2853
21.3982
17.5214
13.6294
9.74809
5.84464
1.96035
259.197
256.879
255.678
254.543
253.411
252.332
251.278
250.402
249.673
247.875
244.368
240.08
235.822
231.855
228.215
224.88
221.829
219.018
216.35
213.661
210.797
207.67
204.295
200.719
197.012
193.211
189.362
185.473
181.571
177.65
173.729
169.797
165.872
161.936
158.01
154.075
150.153
146.217
142.298
138.367
134.453
130.525
126.614
122.693
118.787
114.872
110.969
107.058
103.159
99.2493
95.3557
91.4477
87.5523
83.6451
79.75
75.8452
71.9566
68.0571
64.1692
60.2738
56.3857
52.4916
48.6055
44.7111
40.8262
36.9329
33.052
29.162
25.2853
21.3981
17.5214
13.6294
9.74809
5.84465
1.96041
259.18
256.886
255.678
254.544
253.411
252.332
251.278
250.401
249.668
247.869
244.369
240.086
235.829
231.861
228.22
224.883
221.832
219.02
216.352
213.663
210.799
207.671
204.296
200.719
197.013
193.211
189.362
185.473
181.571
177.65
173.729
169.797
165.872
161.936
158.01
154.075
150.153
146.217
142.298
138.367
134.453
130.525
126.614
122.693
118.787
114.872
110.969
107.058
103.159
99.2493
95.3557
91.4477
87.5523
83.6451
79.75
75.8452
71.9566
68.0571
64.1692
60.2738
56.3857
52.4916
48.6055
44.711
40.8262
36.9329
33.0521
29.162
25.2853
21.3981
17.5214
13.6294
9.74808
5.84464
1.9604
259.162
256.894
255.678
254.544
253.411
252.332
251.279
250.401
249.661
247.862
244.368
240.092
235.837
231.868
228.226
224.888
221.836
219.024
216.355
213.665
210.801
207.673
204.297
200.72
197.014
193.212
189.362
185.473
181.571
177.65
173.729
169.797
165.872
161.936
158.01
154.075
150.153
146.217
142.298
138.367
134.453
130.525
126.614
122.693
118.787
114.872
110.969
107.058
103.159
99.2494
95.3557
91.4477
87.5523
83.6451
79.75
75.8453
71.9566
68.0571
64.1692
60.2738
56.3857
52.4916
48.6055
44.711
40.8262
36.9329
33.0521
29.1621
25.2853
21.3981
17.5213
13.6294
9.74806
5.84464
1.96047
259.144
256.902
255.678
254.545
253.412
252.333
251.28
250.401
249.654
247.852
244.367
240.097
235.845
231.876
228.232
224.894
221.841
219.028
216.358
213.669
210.804
207.675
204.299
200.721
197.014
193.212
189.362
185.473
181.571
177.65
173.729
169.797
165.872
161.936
158.01
154.075
150.153
146.217
142.298
138.367
134.453
130.525
126.614
122.693
118.787
114.872
110.969
107.058
103.159
99.2494
95.3557
91.4477
87.5522
83.6451
79.75
75.8453
71.9566
68.0571
64.1692
60.2737
56.3857
52.4916
48.6055
44.711
40.8262
36.9329
33.0521
29.1621
25.2854
21.3981
17.5213
13.6293
9.74803
5.84463
1.96046
259.126
256.91
255.678
254.546
253.412
252.333
251.281
250.401
249.646
247.841
244.364
240.101
235.853
231.884
228.24
224.9
221.846
219.033
216.363
213.673
210.807
207.678
204.301
200.723
197.015
193.213
189.363
185.474
181.571
177.65
173.729
169.797
165.872
161.936
158.01
154.075
150.153
146.217
142.298
138.367
134.453
130.525
126.614
122.693
118.787
114.872
110.969
107.057
103.159
99.2494
95.3557
91.4477
87.5522
83.645
79.75
75.8453
71.9566
68.0571
64.1692
60.2737
56.3857
52.4916
48.6054
44.7109
40.8262
36.9329
33.0522
29.1622
25.2854
21.3981
17.5213
13.6293
9.74801
5.84462
1.96053
259.107
256.918
255.678
254.546
253.412
252.334
251.282
250.401
249.638
247.829
244.36
240.105
235.86
231.893
228.248
224.907
221.853
219.039
216.369
213.678
210.812
207.682
204.304
200.725
197.017
193.214
189.363
185.474
181.571
177.65
173.729
169.797
165.872
161.936
158.01
154.075
150.153
146.217
142.298
138.367
134.453
130.525
126.614
122.693
118.787
114.872
110.969
107.057
103.159
99.2494
95.3558
91.4477
87.5522
83.645
79.75
75.8454
71.9567
68.0571
64.1692
60.2737
56.3857
52.4916
48.6054
44.7109
40.8261
36.9328
33.0523
29.1623
25.2854
21.3981
17.5212
13.6293
9.74797
5.8446
1.96052
259.089
256.926
255.678
254.547
253.413
252.334
251.283
250.401
249.63
247.817
244.354
240.108
235.867
231.901
228.256
224.915
221.86
219.046
216.376
213.685
210.818
207.687
204.307
200.727
197.018
193.215
189.364
185.474
181.571
177.65
173.729
169.797
165.872
161.936
158.01
154.075
150.153
146.217
142.298
138.367
134.453
130.525
126.614
122.693
118.787
114.872
110.969
107.057
103.159
99.2495
95.3558
91.4477
87.5521
83.6449
79.75
75.8454
71.9567
68.0571
64.1692
60.2737
56.3857
52.4916
48.6054
44.7108
40.8261
36.9328
33.0523
29.1624
25.2855
21.3981
17.5212
13.6292
9.74794
5.84458
1.9606
259.071
256.934
255.678
254.547
253.414
252.335
251.284
250.401
249.623
247.805
244.348
240.109
235.873
231.909
228.265
224.924
221.868
219.054
216.384
213.693
210.825
207.692
204.312
200.73
197.02
193.216
189.364
185.475
181.572
177.65
173.729
169.797
165.872
161.936
158.01
154.075
150.153
146.217
142.298
138.367
134.453
130.525
126.614
122.693
118.788
114.872
110.969
107.057
103.159
99.2495
95.3558
91.4477
87.5521
83.6449
79.75
75.8455
71.9568
68.0572
64.1692
60.2736
56.3858
52.4916
48.6054
44.7108
40.826
36.9328
33.0524
29.1625
25.2856
21.3981
17.5212
13.6292
9.7479
5.84457
1.9606
259.055
256.942
255.677
254.548
253.414
252.335
251.285
250.4
249.616
247.795
244.342
240.109
235.877
231.916
228.273
224.932
221.877
219.063
216.393
213.702
210.834
207.699
204.316
200.733
197.022
193.217
189.365
185.475
181.572
177.65
173.729
169.797
165.872
161.936
158.01
154.075
150.153
146.217
142.298
138.367
134.453
130.525
126.615
122.693
118.788
114.872
110.969
107.057
103.159
99.2495
95.3559
91.4477
87.552
83.6448
79.75
75.8455
71.9568
68.0572
64.1692
60.2736
56.3858
52.4916
48.6054
44.7107
40.8259
36.9328
33.0525
29.1626
25.2857
21.3981
17.5211
13.6291
9.74786
5.84455
1.96066
259.041
256.948
255.677
254.548
253.414
252.335
251.286
250.4
249.61
247.786
244.337
240.109
235.88
231.92
228.279
224.939
221.885
219.072
216.403
213.713
210.843
207.706
204.321
200.736
197.024
193.218
189.366
185.476
181.572
177.65
173.729
169.797
165.872
161.936
158.01
154.075
150.153
146.217
142.298
138.367
134.453
130.525
126.615
122.693
118.788
114.872
110.969
107.057
103.159
99.2496
95.3559
91.4477
87.552
83.6448
79.75
75.8456
71.9569
68.0572
64.1692
60.2736
56.3858
52.4916
48.6053
44.7106
40.8258
36.9327
33.0526
29.1627
25.2858
21.3981
17.5211
13.629
9.74783
5.84455
1.96067
259.031
256.953
255.677
254.549
253.415
252.336
251.287
250.4
249.606
247.778
244.334
240.108
235.881
231.923
228.283
224.945
221.893
219.081
216.413
213.723
210.851
207.712
204.325
200.739
197.026
193.219
189.366
185.476
181.572
177.651
173.729
169.797
165.872
161.936
158.01
154.075
150.153
146.217
142.298
138.367
134.453
130.525
126.615
122.693
118.788
114.872
110.969
107.057
103.159
99.2496
95.356
91.4477
87.5519
83.6447
79.75
75.8456
71.957
68.0573
64.1692
60.2735
56.3859
52.4916
48.6053
44.7105
40.8257
36.9326
33.0526
29.1628
25.2859
21.3981
17.5211
13.629
9.7478
5.84454
1.96068
259.025
256.956
255.676
254.549
253.415
252.336
251.287
250.401
249.603
247.774
244.331
240.108
235.882
231.924
228.285
224.949
221.897
219.087
216.42
213.729
210.857
207.716
204.328
200.741
197.027
193.22
189.367
185.476
181.572
177.651
173.729
169.797
165.872
161.936
158.01
154.075
150.153
146.217
142.298
138.367
134.453
130.525
126.615
122.693
118.788
114.872
110.969
107.057
103.159
99.2497
95.3561
91.4477
87.5519
83.6446
79.75
75.8457
71.9571
68.0573
64.1692
60.2735
56.3859
52.4916
48.6053
44.7103
40.8256
36.9325
33.0527
29.163
25.286
21.3981
17.521
13.6289
9.74779
5.84455
1.96068
259.025
256.956
255.676
254.549
253.415
252.336
251.288
250.401
249.603
247.773
244.33
240.107
235.881
231.924
228.286
224.949
221.897
219.087
216.42
213.729
210.857
207.716
204.328
200.741
197.027
193.22
189.367
185.476
181.572
177.651
173.729
169.797
165.872
161.936
158.01
154.075
150.153
146.217
142.298
138.367
134.453
130.525
126.615
122.693
118.788
114.872
110.969
107.057
103.159
99.2498
95.3562
91.4477
87.5518
83.6445
79.75
75.8457
71.9572
68.0573
64.1692
60.2734
56.3859
52.4916
48.6053
44.7102
40.8255
36.9324
33.0528
29.1631
25.2862
21.3981
17.521
13.6288
9.74781
5.84457
1.96065
259.031
256.953
255.677
254.549
253.415
252.336
251.287
250.402
249.606
247.776
244.331
240.107
235.881
231.923
228.284
224.946
221.893
219.082
216.414
213.723
210.852
207.713
204.326
200.739
197.026
193.219
189.366
185.476
181.572
177.651
173.729
169.797
165.872
161.936
158.01
154.075
150.153
146.217
142.298
138.367
134.453
130.525
126.615
122.693
118.788
114.872
110.969
107.057
103.159
99.2498
95.3563
91.4477
87.5518
83.6444
79.75
75.8457
71.9573
68.0574
64.1692
60.2734
56.386
52.4915
48.6052
44.7101
40.8253
36.9323
33.0529
29.1633
25.2863
21.3981
17.521
13.6288
9.74784
5.84459
1.96065
259.041
256.948
255.677
254.548
253.415
252.335
251.287
250.403
249.611
247.782
244.334
240.107
235.88
231.921
228.279
224.94
221.886
219.073
216.404
213.713
210.843
207.707
204.322
200.737
197.024
193.218
189.366
185.476
181.572
177.65
173.729
169.797
165.872
161.936
158.01
154.074
150.153
146.217
142.298
138.367
134.453
130.525
126.615
122.693
118.788
114.871
110.969
107.057
103.159
99.2498
95.3565
91.4477
87.5518
83.6443
79.75
75.8457
71.9574
68.0574
64.1692
60.2733
56.386
52.4915
48.6052
44.7099
40.8252
36.9322
33.053
29.1634
25.2864
21.3981
17.521
13.6288
9.74789
5.84461
1.96059
259.055
256.942
255.677
254.548
253.414
252.335
251.286
250.404
249.618
247.79
244.337
240.107
235.877
231.916
228.273
224.932
221.877
219.063
216.394
213.703
210.835
207.7
204.317
200.734
197.022
193.217
189.365
185.475
181.572
177.65
173.729
169.797
165.872
161.936
158.01
154.074
150.153
146.217
142.298
138.367
134.453
130.525
126.615
122.693
118.788
114.871
110.969
107.057
103.159
99.2498
95.3566
91.4477
87.5517
83.6442
79.75
75.8457
71.9575
68.0574
64.1693
60.2733
56.3861
52.4915
48.6052
44.7098
40.8251
36.9321
33.0531
29.1635
25.2865
21.398
17.521
13.6287
9.74794
5.84464
1.96058
259.071
256.934
255.678
254.547
253.414
252.335
251.285
250.404
249.625
247.8
244.342
240.106
235.873
231.909
228.266
224.924
221.869
219.055
216.385
213.694
210.826
207.693
204.312
200.73
197.02
193.216
189.365
185.475
181.572
177.65
173.729
169.797
165.872
161.936
158.01
154.074
150.153
146.217
142.298
138.367
134.453
130.525
126.615
122.693
118.788
114.871
110.969
107.057
103.159
99.2499
95.3567
91.4477
87.5517
83.6441
79.75
75.8457
71.9576
68.0574
64.1693
60.2732
56.3861
52.4915
48.6052
44.7097
40.8251
36.932
33.0532
29.1635
25.2866
21.398
17.5211
13.6287
9.748
5.84466
1.96051
259.089
256.926
255.678
254.547
253.413
252.334
251.284
250.405
249.633
247.811
244.347
240.104
235.867
231.902
228.257
224.916
221.861
219.047
216.377
213.686
210.819
207.687
204.308
200.728
197.019
193.215
189.364
185.474
181.571
177.65
173.729
169.797
165.872
161.936
158.01
154.074
150.153
146.217
142.298
138.367
134.453
130.525
126.615
122.693
118.788
114.871
110.969
107.056
103.159
99.2499
95.3567
91.4477
87.5517
83.644
79.75
75.8457
71.9576
68.0574
64.1693
60.2732
56.3861
52.4915
48.6052
44.7096
40.825
36.9319
33.0532
29.1636
25.2867
21.398
17.5211
13.6287
9.74805
5.84469
1.96049
259.107
256.918
255.678
254.546
253.413
252.334
251.283
250.406
249.641
247.822
244.351
240.101
235.86
231.893
228.249
224.909
221.854
219.04
216.37
213.679
210.813
207.683
204.304
200.725
197.017
193.214
189.363
185.474
181.571
177.65
173.729
169.797
165.872
161.936
158.01
154.074
150.153
146.217
142.298
138.367
134.453
130.525
126.615
122.693
118.788
114.871
110.969
107.056
103.159
99.2499
95.3568
91.4477
87.5517
83.644
79.75
75.8457
71.9577
68.0574
64.1693
60.2731
56.3862
52.4915
48.6052
44.7095
40.825
36.9319
33.0533
29.1637
25.2868
21.398
17.5211
13.6287
9.74811
5.84472
1.96042
259.126
256.91
255.678
254.545
253.412
252.333
251.283
250.407
249.649
247.833
244.354
240.097
235.852
231.885
228.241
224.901
221.848
219.034
216.364
213.674
210.809
207.679
204.302
200.723
197.016
193.213
189.363
185.474
181.571
177.65
173.729
169.797
165.872
161.936
158.01
154.074
150.153
146.217
142.298
138.367
134.453
130.525
126.615
122.693
118.788
114.871
110.969
107.056
103.159
99.2499
95.3569
91.4477
87.5517
83.6439
79.75
75.8457
71.9577
68.0574
64.1693
60.2731
56.3862
52.4915
48.6052
44.7095
40.8249
36.9318
33.0534
29.1637
25.2869
21.398
17.5211
13.6287
9.74815
5.84474
1.9604
259.144
256.902
255.678
254.545
253.412
252.333
251.282
250.407
249.657
247.843
244.356
240.092
235.845
231.877
228.234
224.895
221.842
219.029
216.36
213.67
210.805
207.676
204.299
200.722
197.015
193.212
189.362
185.473
181.571
177.65
173.729
169.797
165.872
161.935
158.01
154.074
150.153
146.217
142.298
138.367
134.453
130.525
126.615
122.693
118.788
114.871
110.969
107.056
103.159
99.2499
95.3569
91.4477
87.5517
83.6439
79.75
75.8457
71.9578
68.0574
64.1693
60.2731
56.3862
52.4915
48.6052
44.7094
40.8249
36.9318
33.0534
29.1637
25.2869
21.398
17.5211
13.6287
9.74819
5.84476
1.96034
259.162
256.894
255.678
254.544
253.411
252.332
251.281
250.408
249.665
247.852
244.357
240.087
235.837
231.869
228.227
224.89
221.838
219.025
216.356
213.667
210.802
207.673
204.298
200.72
197.014
193.212
189.362
185.473
181.571
177.65
173.729
169.797
165.872
161.935
158.01
154.074
150.153
146.217
142.298
138.367
134.453
130.525
126.615
122.693
118.788
114.871
110.969
107.056
103.159
99.2499
95.357
91.4477
87.5517
83.6439
79.75
75.8457
71.9578
68.0573
64.1693
60.273
56.3862
52.4915
48.6052
44.7094
40.8249
36.9317
33.0535
29.1638
25.287
21.398
17.5211
13.6287
9.74822
5.84477
1.96032
259.18
256.886
255.678
254.544
253.411
252.332
251.28
250.408
249.672
247.859
244.357
240.081
235.829
231.862
228.222
224.885
221.834
219.022
216.353
213.664
210.8
207.672
204.296
200.719
197.013
193.211
189.362
185.473
181.571
177.65
173.729
169.797
165.872
161.935
158.01
154.074
150.153
146.217
142.298
138.367
134.453
130.525
126.615
122.693
118.788
114.871
110.969
107.056
103.159
99.2499
95.3571
91.4477
87.5517
83.6438
79.75
75.8457
71.9578
68.0573
64.1693
60.273
56.3863
52.4915
48.6052
44.7094
40.8248
36.9317
33.0535
29.1638
25.287
21.398
17.5212
13.6286
9.74825
5.84477
1.96027
259.197
256.879
255.678
254.543
253.411
252.332
251.279
250.409
249.678
247.865
244.356
240.075
235.822
231.856
228.217
224.881
221.831
219.019
216.351
213.662
210.798
207.67
204.295
200.719
197.013
193.211
189.362
185.473
181.571
177.65
173.729
169.797
165.872
161.935
158.01
154.074
150.153
146.217
142.298
138.367
134.453
130.525
126.615
122.693
118.788
114.871
110.969
107.056
103.159
99.25
95.3571
91.4477
87.5517
83.6438
79.75
75.8457
71.9579
68.0573
64.1693
60.273
56.3863
52.4915
48.6052
44.7093
40.8248
36.9317
33.0535
29.1638
25.287
21.398
17.5212
13.6286
9.74826
5.84477
1.96025
259.213
256.872
255.678
254.543
253.411
252.331
251.279
250.409
249.682
247.869
244.354
240.068
235.816
231.851
228.213
224.878
221.829
219.018
216.35
213.661
210.797
207.669
204.294
200.718
197.012
193.211
189.361
185.473
181.571
177.649
173.729
169.797
165.872
161.935
158.01
154.074
150.153
146.217
142.298
138.367
134.453
130.525
126.615
122.693
118.788
114.871
110.969
107.056
103.159
99.25
95.3571
91.4477
87.5517
83.6438
79.75
75.8457
71.9579
68.0573
64.1693
60.273
56.3863
52.4914
48.6053
44.7093
40.8248
36.9317
33.0536
29.1639
25.2871
21.398
17.5212
13.6286
9.74828
5.84476
1.9602
259.229
256.866
255.678
254.542
253.411
252.331
251.278
250.409
249.684
247.871
244.351
240.062
235.81
231.847
228.209
224.876
221.827
219.016
216.349
213.66
210.796
207.669
204.294
200.718
197.012
193.21
189.361
185.473
181.571
177.649
173.729
169.797
165.872
161.935
158.01
154.074
150.153
146.217
142.298
138.367
134.453
130.525
126.615
122.693
118.788
114.871
110.969
107.056
103.159
99.25
95.3572
91.4477
87.5517
83.6438
79.75
75.8457
71.9579
68.0573
64.1693
60.273
56.3863
52.4914
48.6053
44.7093
40.8249
36.9317
33.0536
29.1639
25.2871
21.398
17.5212
13.6286
9.74828
5.84475
1.96019
259.244
256.86
255.677
254.542
253.41
252.331
251.277
250.408
249.686
247.871
244.347
240.057
235.805
231.843
228.207
224.874
221.826
219.015
216.348
213.66
210.796
207.668
204.294
200.717
197.012
193.21
189.361
185.473
181.571
177.649
173.729
169.797
165.872
161.935
158.01
154.074
150.153
146.217
142.298
138.367
134.453
130.525
126.615
122.693
118.788
114.871
110.969
107.056
103.159
99.25
95.3572
91.4477
87.5517
83.6438
79.7501
75.8458
71.9579
68.0573
64.1693
60.273
56.3863
52.4914
48.6053
44.7093
40.8249
36.9317
33.0537
29.1639
25.2871
21.398
17.5212
13.6286
9.74828
5.84473
1.96014
259.258
256.855
255.677
254.542
253.41
252.331
251.276
250.407
249.685
247.87
244.342
240.051
235.801
231.84
228.205
224.873
221.825
219.015
216.348
213.659
210.795
207.668
204.293
200.717
197.012
193.21
189.361
185.473
181.571
177.649
173.729
169.797
165.872
161.935
158.01
154.074
150.153
146.217
142.298
138.367
134.453
130.525
126.615
122.693
118.788
114.871
110.969
107.056
103.159
99.25
95.3572
91.4477
87.5517
83.6438
79.7501
75.8458
71.958
68.0573
64.1693
60.273
56.3863
52.4914
48.6053
44.7093
40.8249
36.9318
33.0537
29.1639
25.2871
21.398
17.5212
13.6286
9.74827
5.84471
1.96013
259.271
256.85
255.677
254.542
253.41
252.33
251.276
250.405
249.684
247.866
244.337
240.046
235.797
231.837
228.203
224.872
221.824
219.015
216.347
213.659
210.795
207.668
204.293
200.717
197.012
193.21
189.361
185.473
181.571
177.649
173.729
169.797
165.872
161.935
158.01
154.074
150.153
146.217
142.298
138.367
134.453
130.525
126.615
122.693
118.788
114.871
110.969
107.056
103.159
99.25
95.3572
91.4477
87.5517
83.6438
79.7501
75.8458
71.958
68.0573
64.1693
60.273
56.3863
52.4914
48.6053
44.7093
40.8249
36.9318
33.0537
29.1639
25.2871
21.3979
17.5212
13.6286
9.74826
5.84469
1.96009
259.283
256.845
255.677
254.542
253.41
252.33
251.275
250.403
249.681
247.861
244.331
240.042
235.794
231.835
228.202
224.871
221.824
219.015
216.347
213.659
210.795
207.667
204.293
200.717
197.011
193.21
189.361
185.473
181.571
177.649
173.729
169.797
165.872
161.935
158.01
154.074
150.153
146.217
142.298
138.367
134.454
130.525
126.615
122.693
118.788
114.871
110.969
107.056
103.159
99.25
95.3572
91.4477
87.5518
83.6438
79.7501
75.8458
71.958
68.0573
64.1694
60.273
56.3863
52.4914
48.6053
44.7093
40.8249
36.9318
33.0538
29.1639
25.2871
21.3979
17.5212
13.6286
9.74824
5.84466
1.96008
259.295
256.841
255.677
254.541
253.41
252.33
251.274
250.4
249.676
247.855
244.326
240.038
235.792
231.834
228.201
224.871
221.824
219.015
216.348
213.659
210.795
207.667
204.293
200.717
197.011
193.21
189.361
185.473
181.571
177.649
173.729
169.797
165.872
161.935
158.01
154.074
150.153
146.217
142.298
138.367
134.454
130.525
126.615
122.693
118.788
114.871
110.969
107.056
103.159
99.25
95.3572
91.4477
87.5518
83.6438
79.7501
75.8458
71.958
68.0573
64.1694
60.273
56.3864
52.4914
48.6053
44.7093
40.825
36.9319
33.0538
29.1639
25.2871
21.3979
17.5212
13.6285
9.74822
5.84462
1.96005
259.306
256.837
255.677
254.541
253.409
252.329
251.272
250.398
249.672
247.848
244.32
240.034
235.79
231.833
228.201
224.871
221.824
219.015
216.348
213.659
210.795
207.667
204.293
200.717
197.011
193.21
189.361
185.473
181.571
177.649
173.729
169.797
165.872
161.935
158.01
154.074
150.153
146.217
142.298
138.367
134.454
130.525
126.615
122.693
118.788
114.871
110.969
107.056