/*--------------------------------*- C++ -*----------------------------------*\
  =========                 |
  \\      /  F ield         | OpenFOAM: The Open Source CFD Toolbox
   \\    /   O peration     | Website:  https://openfoam.org
    \\  /    A nd           | Version:  7
     \\/     M anipulation  |
\*---------------------------------------------------------------------------*/
FoamFile
{
    version     2.0;
    format      ascii;
    class       surfaceScalarField;
    location    "200";
    object      phi;
}
// * * * * * * * * * * * * * * * * * * * * * * * * * * * * * * * * * * * * * //

dimensions      [0 3 -1 0 0 0 0];

internalField   nonuniform List<scalar> 
8865
(
0.00452285
0.00168715
0.00415017
0.000372893
0.00399031
0.000160091
0.00389736
9.32941e-05
0.00383385
6.37779e-05
0.00378884
4.50432e-05
0.00377776
1.10738e-05
0.00385571
-7.83419e-05
0.00402811
-0.000172122
0.00419819
-0.000169787
0.00430096
-0.000102834
0.00435524
-5.44732e-05
0.0043914
-3.64687e-05
0.00442272
-3.16678e-05
0.00445229
-2.95802e-05
0.0044799
-2.76221e-05
0.0045048
-2.4995e-05
0.0045264
-2.17281e-05
0.00454442
-1.81624e-05
0.00455879
-1.45251e-05
0.00456965
-1.08079e-05
0.00457734
-7.68662e-06
0.00458249
-5.1294e-06
0.00458576
-3.32144e-06
0.00458779
-1.96496e-06
0.00458899
-1.2175e-06
0.0045897
-7.09996e-07
0.0045901
-4.63358e-07
0.00459035
-6.82133e-08
0.00459049
-1.85407e-08
0.00459058
1.68493e-10
0.00459062
-5.10497e-08
0.00459067
2.67899e-07
0.0045907
1.21585e-07
0.00459073
1.37882e-07
0.00459074
-5.52478e-08
0.00459079
3.67275e-07
0.00459084
1.34379e-07
0.00459089
1.44849e-07
0.00459091
-1.11885e-07
0.00459099
3.6255e-07
0.00459105
1.4648e-07
0.00459115
1.41954e-08
0.00459126
-2.60313e-07
0.00459145
-1.14258e-07
0.00459161
9.6821e-08
0.00459169
5.88288e-09
0.00459164
-4.74737e-08
0.0045916
-9.11891e-08
0.0045916
-3.47982e-07
0.00459172
1.44468e-07
0.00459182
2.83664e-07
0.00459184
1.94534e-07
0.00459175
1.05964e-07
0.0045917
6.66965e-09
0.00459172
-3.12794e-07
0.00459188
-2.08433e-08
0.00459206
1.0011e-07
0.00459219
-2.13733e-07
0.00459226
1.22094e-07
0.00459234
-2.2196e-07
0.00459244
2.14579e-07
0.00459249
5.59402e-08
0.0045924
1.54272e-07
0.00459222
-1.76562e-08
0.00459198
5.66912e-08
0.00459192
-1.69401e-07
0.00459201
-2.89118e-07
0.00459221
-6.29104e-07
0.00459234
-5.41373e-07
0.00459239
-5.75049e-07
0.00459235
-2.92212e-07
0.00459228
-4.44142e-07
0.00459217
-4.36008e-07
-3.55459e-07
0.00573448
0.00277663
0.00532416
0.000783352
0.00510633
0.000378065
0.00497616
0.000223673
0.00488858
0.000151512
0.0048277
0.000105954
0.00481164
2.71248e-05
0.00490058
-0.000167506
0.00507601
-0.000347391
0.00521593
-0.000309568
0.00527542
-0.000162346
0.00529778
-7.69171e-05
0.00531494
-5.37677e-05
0.0053352
-5.20757e-05
0.00535809
-5.24761e-05
0.00538157
-5.11091e-05
0.00540391
-4.73775e-05
0.00542395
-4.18234e-05
0.005441
-3.5266e-05
0.00545469
-2.8282e-05
0.005465
-2.11033e-05
0.00547228
-1.49568e-05
0.00547711
-9.94944e-06
0.00548015
-6.37668e-06
0.00548202
-3.82556e-06
0.00548314
-2.33541e-06
0.00548379
-1.36196e-06
0.00548417
-8.65363e-07
0.0054844
-2.26308e-07
0.00548454
-1.09082e-07
0.00548462
-4.53464e-08
0.00548467
-1.03463e-07
0.00548473
3.40385e-07
0.00548478
1.24939e-07
0.00548484
1.54759e-07
0.00548489
-1.2599e-07
0.00548499
4.37243e-07
0.00548511
8.65968e-08
0.00548523
1.07419e-07
0.00548534
-2.62687e-07
0.00548551
3.78097e-07
0.00548568
5.38685e-08
0.00548589
-1.50143e-07
0.00548616
-5.89704e-07
0.00548652
-4.41716e-07
0.00548684
-1.23671e-07
0.00548702
-1.37432e-07
0.00548704
-1.01574e-07
0.00548704
-1.49155e-07
0.00548714
-5.89868e-07
0.00548737
2.57741e-08
0.00548756
2.53609e-07
0.00548758
2.53235e-07
0.00548749
2.09734e-07
0.00548744
3.45982e-08
0.00548755
-5.41199e-07
0.00548783
-2.46253e-07
0.00548814
-9.23685e-08
0.00548835
-4.59181e-07
0.00548847
7.92e-08
0.00548862
-4.2824e-07
0.00548878
1.79152e-07
0.00548886
1.70046e-08
0.00548876
2.86814e-07
0.0054885
1.53324e-07
0.00548823
2.66796e-07
0.00548818
-2.25002e-07
0.00548838
-5.68702e-07
0.00548868
-1.10171e-06
0.00548887
-8.93291e-07
0.00548889
-8.15665e-07
0.00548876
-2.90939e-07
0.00548853
-4.34212e-07
0.00548827
-3.95445e-07
-5.64665e-07
0.00677261
0.00350266
0.00634447
0.00121161
0.00607521
0.00064744
0.00590757
0.000391477
0.00579478
0.000264418
0.00571706
0.000183687
0.005693
5.11763e-05
0.00577909
-0.000253756
0.00593121
-0.000499411
0.0060231
-0.000401384
0.00604093
-0.000180189
0.00604014
-7.61708e-05
0.00604592
-5.96168e-05
0.00606058
-6.68136e-05
0.00608075
-7.26509e-05
0.00610305
-7.3407e-05
0.00612504
-6.93837e-05
0.00614512
-6.19378e-05
0.00616233
-5.25011e-05
0.00617613
-4.2118e-05
0.00618647
-3.1437e-05
0.00619371
-2.2193e-05
0.00619848
-1.47121e-05
0.00620147
-9.38712e-06
0.0062033
-5.6315e-06
0.00620438
-3.42263e-06
0.00620501
-1.99414e-06
0.00620538
-1.24599e-06
0.00620561
-4.1655e-07
0.00620575
-2.2553e-07
0.00620583
-1.0715e-07
0.00620588
-1.55382e-07
0.00620595
3.41061e-07
0.00620602
8.36081e-08
0.00620609
1.23002e-07
0.00620617
-2.09395e-07
0.0062063
3.91829e-07
0.00620647
-3.80333e-08
0.00620663
-1.03768e-08
0.00620679
-4.46397e-07
0.00620701
2.51477e-07
0.00620726
-1.44825e-07
0.00620754
-4.06034e-07
0.0062079
-9.82912e-07
0.00620836
-8.85975e-07
0.00620879
-4.98018e-07
0.00620902
-3.57006e-07
0.00620907
-1.67459e-07
0.0062091
-2.0841e-07
0.00620925
-8.19099e-07
0.00620955
-2.14177e-07
0.00620979
9.79935e-08
0.00620982
2.67505e-07
0.00620971
3.22837e-07
0.00620967
6.62509e-08
0.00620983
-7.65877e-07
0.0062102
-5.78508e-07
0.00621058
-4.20351e-07
0.00621084
-7.31195e-07
0.006211
-4.08165e-08
0.00621118
-6.33886e-07
0.00621139
2.83767e-08
0.00621149
-5.24865e-08
0.00621136
4.24124e-07
0.00621106
4.11189e-07
0.00621075
5.34239e-07
0.00621072
-2.40629e-07
0.00621099
-8.81919e-07
0.00621135
-1.55777e-06
0.00621158
-1.21018e-06
0.00621158
-9.25168e-07
0.00621138
-1.72547e-07
0.00621106
-2.12207e-07
0.00621071
-1.64539e-07
-4.02392e-07
0.00776838
0.00397433
0.00736523
0.00161488
0.00705885
0.000953943
0.00685384
0.000596639
0.00671325
0.000405121
0.00661619
0.000280772
0.00658037
8.69873e-05
0.00665254
-0.000326072
0.00676667
-0.000613449
0.00680732
-0.000441962
0.00679047
-0.000163357
0.00677307
-5.88073e-05
0.00677164
-5.82512e-05
0.00678343
-7.86775e-05
0.00680284
-9.20578e-05
0.00682544
-9.60109e-05
0.00684824
-9.22045e-05
0.00686929
-8.30103e-05
0.00688735
-7.05955e-05
0.0069018
-5.65985e-05
0.00691256
-4.21835e-05
0.00692004
-2.96705e-05
0.00692493
-1.96055e-05
0.00692799
-1.24444e-05
0.00692985
-7.49138e-06
0.00693095
-4.52648e-06
0.0069316
-2.63571e-06
0.00693197
-1.63165e-06
0.0069322
-6.16435e-07
0.00693235
-3.50035e-07
0.00693244
-1.73557e-07
0.00693249
-2.1259e-07
0.00693257
3.26253e-07
0.00693265
2.50889e-08
0.00693273
7.53537e-08
0.00693282
-3.09872e-07
0.00693299
3.09525e-07
0.00693318
-2.013e-07
0.00693337
-1.64828e-07
0.00693358
-6.65805e-07
0.00693384
6.90298e-08
0.00693414
-3.99604e-07
0.00693447
-7.20561e-07
0.0069349
-1.4446e-06
0.00693545
-1.42087e-06
0.00693596
-9.53228e-07
0.00693624
-6.20545e-07
0.0069363
-2.45887e-07
0.00693634
-2.81001e-07
0.00693654
-1.08235e-06
0.00693689
-5.17147e-07
0.00693717
-1.0596e-07
0.0069372
2.74449e-07
0.00693708
4.50146e-07
0.00693704
9.66635e-08
0.00693725
-1.02461e-06
0.00693767
-9.82123e-07
0.00693813
-8.18083e-07
0.00693842
-1.04363e-06
0.0069386
-1.84683e-07
0.00693882
-8.77728e-07
0.00693907
-1.5968e-07
0.00693917
-1.42354e-07
0.00693903
5.806e-07
0.00693869
7.18472e-07
0.00693834
8.50967e-07
0.00693832
-2.68325e-07
0.00693864
-1.24255e-06
0.00693906
-2.05909e-06
0.00693931
-1.53513e-06
0.0069393
-1.01448e-06
0.00693906
8.4997e-09
0.00693866
8.11071e-08
0.00693824
1.62144e-07
-4.09989e-07
0.00876054
0.00426855
0.00841817
0.00195736
0.00809692
0.00127532
0.00785914
0.000834577
0.00768962
0.000574738
0.00757084
0.000399571
0.00751902
0.000138796
0.00756744
-0.000374619
0.007635
-0.000680947
0.00762562
-0.000432533
0.00757912
-0.000116867
0.00754828
-2.79981e-05
0.00754138
-5.13925e-05
0.00755142
-8.87666e-05
0.00757092
-0.000111563
0.00759457
-0.000119659
0.00761884
-0.000116482
0.0076414
-0.000105594
0.0076608
-9.00141e-05
0.00767627
-7.20926e-05
0.00768774
-5.36476e-05
0.00769568
-3.7606e-05
0.00770085
-2.47765e-05
0.00770407
-1.568e-05
0.00770603
-9.43022e-06
0.00770718
-5.68459e-06
0.00770786
-3.30743e-06
0.00770825
-2.03226e-06
0.0077085
-8.37985e-07
0.00770865
-4.89899e-07
0.00770874
-2.48751e-07
0.0077088
-2.72087e-07
0.00770888
2.86943e-07
0.00770898
-5.11867e-08
0.00770907
8.41548e-09
0.00770918
-4.21093e-07
0.00770936
1.83825e-07
0.00770959
-4.00206e-07
0.00770981
-3.56615e-07
0.00771004
-9.11771e-07
0.00771035
-1.72626e-07
0.00771068
-7.06495e-07
0.00771107
-1.08803e-06
0.00771156
-1.96197e-06
0.00771219
-2.03186e-06
0.00771276
-1.49267e-06
0.00771308
-9.26988e-07
0.00771315
-3.33154e-07
0.00771321
-3.61023e-07
0.00771344
-1.3628e-06
0.00771385
-8.82703e-07
0.00771416
-3.63859e-07
0.0077142
2.70379e-07
0.00771406
5.91013e-07
0.00771402
1.28638e-07
0.00771426
-1.30397e-06
0.00771475
-1.45053e-06
0.00771525
-1.28845e-06
0.00771559
-1.38325e-06
0.00771579
-3.66692e-07
0.00771603
-1.13397e-06
0.00771632
-4.03755e-07
0.00771644
-2.43366e-07
0.00771627
7.52166e-07
0.00771589
1.07729e-06
0.0077155
1.20281e-06
0.00771549
-2.83482e-07
0.00771586
-1.64463e-06
0.00771633
-2.59233e-06
0.00771661
-1.87571e-06
0.00771659
-1.06036e-06
0.0077163
2.38985e-07
0.00771584
4.73919e-07
0.00771536
5.68363e-07
-1.61816e-07
0.00977743
0.00444116
0.00951401
0.00222087
0.00920573
0.00158372
0.00894558
0.0010949
0.00874856
0.000771869
0.00860644
0.000541712
0.00853426
0.000210972
0.00854998
-0.000390476
0.00856464
-0.000695534
0.00850622
-0.000374058
0.0084324
-4.30572e-05
0.0083892
1.5173e-05
0.00837729
-3.95414e-05
0.00838593
-9.74679e-05
0.00840591
-0.000131544
0.00843102
-0.000144771
0.00845719
-0.000142668
0.00848172
-0.000130141
0.00850286
-0.000111177
0.00851971
-8.89701e-05
0.00853217
-6.60979e-05
0.00854077
-4.6203e-05
0.00854636
-3.03668e-05
0.00854984
-1.91522e-05
0.00855195
-1.15394e-05
0.00855319
-6.93124e-06
0.00855391
-4.03106e-06
0.00855434
-2.46411e-06
0.0085546
-1.07735e-06
0.00855477
-6.41268e-07
0.00855487
-3.30305e-07
0.00855493
-3.38776e-07
0.00855503
2.42405e-07
0.00855514
-1.37723e-07
0.00855524
-6.68351e-08
0.00855535
-5.46722e-07
0.00855556
4.00201e-08
0.00855581
-6.25001e-07
0.00855606
-5.72245e-07
0.00855632
-1.18762e-06
0.00855666
-4.46902e-07
0.00855704
-1.05222e-06
0.00855747
-1.50078e-06
0.00855802
-2.54017e-06
0.00855872
-2.71862e-06
0.00855936
-2.09288e-06
0.00855971
-1.26766e-06
0.0085598
-4.29619e-07
0.00855987
-4.52246e-07
0.00856013
-1.6786e-06
0.00856058
-1.29421e-06
0.00856093
-6.52765e-07
0.00856096
2.65166e-07
0.00856081
7.4736e-07
0.00856077
1.61756e-07
0.00856104
-1.61689e-06
0.00856159
-1.97559e-06
0.00856215
-1.8115e-06
0.00856252
-1.76299e-06
0.00856274
-5.63857e-07
0.00856302
-1.42964e-06
0.00856333
-6.70726e-07
0.00856346
-3.60229e-07
0.00856328
9.44774e-07
0.00856285
1.47835e-06
0.00856243
1.60218e-06
0.00856242
-3.09796e-07
0.00856283
-2.08982e-06
0.00856335
-3.17935e-06
0.00856366
-2.23775e-06
0.00856362
-1.10974e-06
0.0085633
5.1014e-07
0.00856279
9.05438e-07
0.00856224
1.03667e-06
-1.05874e-07
0.0108418
0.00453322
0.0106586
0.00240412
0.0103907
0.00185171
0.0101254
0.00136039
0.00990638
0.000991012
0.00974101
0.0007071
0.00964466
0.000307315
0.00961975
-0.000365699
0.00957605
-0.000651773
0.00946839
-0.00026635
0.00936756
5.7761e-05
0.00931175
7.09553e-05
0.00929458
-2.24132e-05
0.00930174
-0.000104673
0.0093223
-0.000152107
0.00934913
-0.000171603
0.00937757
-0.000171118
0.00940447
-0.000157058
0.00942776
-0.000134492
0.00944637
-0.000107588
0.00946012
-7.9846e-05
0.0094696
-5.56865e-05
0.00947577
-3.65293e-05
0.0094796
-2.29978e-05
0.00948192
-1.38448e-05
0.00948329
-8.30537e-06
0.00948409
-4.8281e-06
0.00948455
-2.93734e-06
0.00948485
-1.34864e-06
0.00948504
-8.13272e-07
0.00948514
-4.23324e-07
0.00948521
-4.09951e-07
0.00948531
1.80061e-07
0.00948543
-2.37668e-07
0.00948554
-1.56147e-07
0.00948567
-6.81429e-07
0.0094859
-1.34305e-07
0.00948618
-8.77268e-07
0.00948645
-8.16712e-07
0.00948674
-1.48668e-06
0.00948711
-7.65006e-07
0.00948752
-1.43944e-06
0.009488
-1.95825e-06
0.00948861
-3.17051e-06
0.00948937
-3.47333e-06
0.00949008
-2.7669e-06
0.00949047
-1.64728e-06
0.00949056
-5.34753e-07
0.00949064
-5.49549e-07
0.00949093
-2.0127e-06
0.00949143
-1.75781e-06
0.00949181
-9.86207e-07
0.00949185
2.51545e-07
0.00949168
9.17692e-07
0.00949164
1.99569e-07
0.00949193
-1.94894e-06
0.00949253
-2.55567e-06
0.00949315
-2.39776e-06
0.00949356
-2.17207e-06
0.00949381
-7.95605e-07
0.00949411
-1.73931e-06
0.00949445
-9.85436e-07
0.0094946
-4.86585e-07
0.0094944
1.15316e-06
0.00949392
1.92748e-06
0.00949346
2.03846e-06
0.00949344
-3.19701e-07
0.0094939
-2.57236e-06
0.00949447
-3.8053e-06
0.0094948
-2.62718e-06
0.00949476
-1.13381e-06
0.00949441
8.14181e-07
0.00949384
1.41538e-06
0.00949324
1.56131e-06
2.13743e-07
0.0119752
0.00457299
0.0118614
0.00251791
0.0116524
0.00206092
0.0114043
0.00160861
0.0111744
0.00122107
0.0109888
0.00089264
0.010866
0.000430124
0.010794
-0.000293824
0.010687
-0.000544684
0.0105286
-0.000107882
0.0103996
0.000186779
0.01033
0.000140505
0.0103067
7.85359e-07
0.010312
-0.000109991
0.010333
-0.000173157
0.0103617
-0.000200299
0.0103928
-0.000202152
0.0104224
-0.00018677
0.0104483
-0.000160417
0.0104691
-0.000128381
0.0104845
-9.52251e-05
0.0104951
-6.63109e-05
0.010502
-4.34412e-05
0.0105063
-2.72929e-05
0.010509
-1.64572e-05
0.0105105
-9.84973e-06
0.0105114
-5.72554e-06
0.0105119
-3.4702e-06
0.0105122
-1.65336e-06
0.0105125
-1.00546e-06
0.0105126
-5.27721e-07
0.0105127
-4.90886e-07
0.0105128
1.13142e-07
0.0105129
-3.46578e-07
0.010513
-2.51981e-07
0.0105132
-8.28453e-07
0.0105134
-3.22008e-07
0.0105137
-1.15118e-06
0.010514
-1.08095e-06
0.0105143
-1.81156e-06
0.0105147
-1.1093e-06
0.0105152
-1.8598e-06
0.0105157
-2.45607e-06
0.0105163
-3.8567e-06
0.0105172
-4.29902e-06
0.0105179
-3.49796e-06
0.0105184
-2.06113e-06
0.0105185
-6.4846e-07
0.0105186
-6.54978e-07
0.0105189
-2.37761e-06
0.0105194
-2.26268e-06
0.0105198
-1.35002e-06
0.0105199
2.33887e-07
0.0105197
1.10322e-06
0.0105196
2.42926e-07
0.01052
-2.30735e-06
0.0105206
-3.1856e-06
0.0105213
-3.03365e-06
0.0105217
-2.62404e-06
0.010522
-1.04293e-06
0.0105223
-2.08941e-06
0.0105227
-1.32069e-06
0.0105229
-6.30421e-07
0.0105226
1.38141e-06
0.0105221
2.41964e-06
0.0105216
2.52896e-06
0.0105216
-3.31017e-07
0.0105221
-3.08928e-06
0.0105227
-4.48416e-06
0.0105231
-3.04279e-06
0.010523
-1.17105e-06
0.0105226
1.14968e-06
0.010522
1.95166e-06
0.0105214
2.13829e-06
3.07774e-07
0.0131983
0.00457759
0.0131374
0.00257892
0.0129916
0.00220675
0.0127829
0.00181749
0.0125592
0.00144489
0.0123612
0.00109062
0.0122126
0.000578803
0.0120892
-0.000170606
0.0119146
-0.000370054
0.0117029
0.000103871
0.0115433
0.000346394
0.011458
0.000225801
0.0114273
3.13919e-05
0.01143
-0.000112662
0.0114512
-0.000194403
0.0114818
-0.000230894
0.0115157
-0.00023604
0.0115486
-0.000219703
0.0115776
-0.000189443
0.011601
-0.000151812
0.0116184
-0.000112647
0.0116305
-7.83785e-05
0.0116384
-5.13101e-05
0.0116433
-3.22143e-05
0.0116463
-1.94211e-05
0.011648
-1.16172e-05
0.011649
-6.75314e-06
0.0116496
-4.07792e-06
0.01165
-2.00791e-06
0.0116503
-1.22836e-06
0.0116504
-6.49215e-07
0.0116505
-5.79177e-07
0.0116506
2.95872e-08
0.0116507
-4.672e-07
0.0116509
-3.59435e-07
0.011651
-9.82094e-07
0.0116513
-5.34111e-07
0.0116516
-1.44745e-06
0.0116519
-1.36897e-06
0.0116523
-2.15518e-06
0.0116527
-1.48947e-06
0.0116532
-2.31506e-06
0.0116537
-2.99262e-06
0.0116544
-4.58965e-06
0.0116553
-5.18666e-06
0.0116562
-4.29903e-06
0.0116566
-2.51433e-06
0.0116567
-7.71657e-07
0.0116568
-7.63531e-07
0.0116572
-2.75609e-06
0.0116578
-2.81397e-06
0.0116582
-1.75746e-06
0.0116583
2.04588e-07
0.0116581
1.30167e-06
0.011658
2.96056e-07
0.0116583
-2.67667e-06
0.011659
-3.86203e-06
0.0116598
-3.72892e-06
0.0116602
-3.10819e-06
0.0116605
-1.32631e-06
0.0116609
-2.45357e-06
0.0116613
-1.70145e-06
0.0116615
-7.85413e-07
0.0116613
1.62349e-06
0.0116607
2.9598e-06
0.0116601
3.06282e-06
0.0116601
-3.14339e-07
0.0116606
-3.63341e-06
0.0116613
-5.20117e-06
0.0116617
-3.4925e-06
0.0116616
-1.19444e-06
0.0116612
1.50553e-06
0.0116606
2.55357e-06
0.0116599
2.75793e-06
6.77013e-07
0.0145294
0.00455655
0.0145055
0.0026029
0.0144158
0.00229653
0.0142601
0.00197337
0.014063
0.00164212
0.0138659
0.00128769
0.0136965
0.000748217
0.0135212
4.55562e-06
0.0132763
-0.000125081
0.0130081
0.000372104
0.0128145
0.000539952
0.0127107
0.000329558
0.0126709
7.12254e-05
0.0126698
-0.000111627
0.0126907
-0.000215325
0.0127231
-0.000263291
0.01276
-0.00027301
0.0127966
-0.000256307
0.0128293
-0.00022213
0.0128559
-0.000178446
0.0128758
-0.000132568
0.0128897
-9.22427e-05
0.0128988
-6.03835e-05
0.0129044
-3.78808e-05
0.0129079
-2.28811e-05
0.0129099
-1.36686e-05
0.0129111
-7.94883e-06
0.0129118
-4.78482e-06
0.0129123
-2.41851e-06
0.0129125
-1.48421e-06
0.0129127
-7.89449e-07
0.0129128
-6.8084e-07
0.0129129
-5.90179e-08
0.0129131
-5.95686e-07
0.0129132
-4.7155e-07
0.0129134
-1.145e-06
0.0129137
-7.5475e-07
0.012914
-1.76024e-06
0.0129143
-1.67185e-06
0.0129147
-2.51878e-06
0.0129151
-1.88883e-06
0.0129156
-2.79656e-06
0.0129162
-3.56288e-06
0.012917
-5.37061e-06
0.012918
-6.13826e-06
0.0129188
-5.15318e-06
0.0129193
-3.00275e-06
0.0129195
-9.03692e-07
0.0129196
-8.76261e-07
0.0129199
-3.15782e-06
0.0129205
-3.40087e-06
0.012921
-2.19614e-06
0.0129211
1.65707e-07
0.0129209
1.51359e-06
0.0129208
3.60602e-07
0.0129212
-3.06068e-06
0.0129219
-4.57833e-06
0.0129227
-4.4699e-06
0.0129232
-3.63812e-06
0.0129235
-1.62706e-06
0.0129239
-2.85841e-06
0.0129243
-2.10094e-06
0.0129245
-9.60778e-07
0.0129243
1.88224e-06
0.0129237
3.54338e-06
0.0129231
3.65932e-06
0.012923
-2.8413e-07
0.0129235
-4.19751e-06
0.0129242
-5.96611e-06
0.0129247
-3.97243e-06
0.0129246
-1.24172e-06
0.0129242
1.88092e-06
0.0129235
3.16762e-06
0.0129228
3.41833e-06
7.89123e-07
0.0159845
0.00451503
0.0159864
0.00260103
0.0159398
0.00234318
0.0158383
0.00207495
0.0156846
0.00179594
0.0155062
0.00146609
0.0153272
0.000927162
0.0151049
0.000226739
0.0147898
0.00019008
0.0144621
0.000699861
0.0142305
0.000771545
0.0141048
0.000455255
0.0140532
0.000122717
0.0140469
-0.00010537
0.0140667
-0.000235128
0.0141007
-0.000297219
0.0141408
-0.000313196
0.0141815
-0.000297014
0.0142185
-0.000259071
0.0142489
-0.000208893
0.0142719
-0.000155544
0.0142879
-0.000108323
0.0142985
-7.09533e-05
0.0143051
-4.45315e-05
0.0143092
-2.69115e-05
0.0143116
-1.60791e-05
0.014313
-9.35562e-06
0.0143138
-5.61421e-06
0.0143143
-2.90562e-06
0.0143147
-1.78596e-06
0.0143148
-9.55327e-07
0.014315
-7.93886e-07
0.0143151
-1.64493e-07
0.0143153
-7.34232e-07
0.0143154
-5.92548e-07
0.0143156
-1.31045e-06
0.0143158
-9.93172e-07
0.0143162
-2.0885e-06
0.0143165
-1.9917e-06
0.0143169
-2.89353e-06
0.0143174
-2.31453e-06
0.0143179
-3.30376e-06
0.0143185
-4.16258e-06
0.0143193
-6.18793e-06
0.0143204
-7.14124e-06
0.0143213
-6.0714e-06
0.0143218
-3.53047e-06
0.014322
-1.04616e-06
0.0143221
-9.87548e-07
0.0143224
-3.56382e-06
0.0143231
-4.02642e-06
0.0143236
-2.67815e-06
0.0143237
1.09464e-07
0.0143235
1.73559e-06
0.0143234
4.41485e-07
0.0143237
-3.44167e-06
0.0143245
-5.32781e-06
0.0143253
-5.26395e-06
0.0143259
-4.20173e-06
0.0143262
-1.96642e-06
0.0143267
-3.27546e-06
0.0143271
-2.5439e-06
0.0143273
-1.14974e-06
0.0143271
2.15055e-06
0.0143264
4.17386e-06
0.0143257
4.30675e-06
0.0143256
-2.08455e-07
0.0143262
-4.77143e-06
0.0143269
-6.76239e-06
0.0143274
-4.49145e-06
0.0143274
-1.28733e-06
0.0143269
2.26008e-06
0.0143262
3.83149e-06
0.0143255
4.10364e-06
1.21145e-06
0.0175786
0.00445578
0.0175995
0.00258011
0.0175839
0.00235888
0.0175284
0.00213053
0.0174247
0.00189974
0.0172818
0.001609
0.0171099
0.00109912
0.0168529
0.000483529
0.0164733
0.000569814
0.0160844
0.00108881
0.0158102
0.00104567
0.0156584
0.000607064
0.0155922
0.000188893
0.0155787
-9.19384e-05
0.0155962
-0.000252668
0.0156312
-0.000332179
0.0156746
-0.000356618
0.0157198
-0.000342233
0.0157616
-0.000300913
0.0157965
-0.000243867
0.0158232
-0.000182189
0.015842
-0.000127103
0.0158544
-8.33633e-05
0.0158622
-5.23423e-05
0.015867
-3.17061e-05
0.0158698
-1.89349e-05
0.0158715
-1.10269e-05
0.0158725
-6.59911e-06
0.0158731
-3.4815e-06
0.0158735
-2.13904e-06
0.0158737
-1.15059e-06
0.0158738
-9.25442e-07
0.015874
-2.76163e-07
0.0158741
-8.79023e-07
0.0158743
-7.15541e-07
0.0158744
-1.48032e-06
0.0158747
-1.23326e-06
0.0158751
-2.42515e-06
0.0158755
-2.31862e-06
0.0158758
-3.27862e-06
0.0158763
-2.74879e-06
0.0158769
-3.8259e-06
0.0158775
-4.78464e-06
0.0158783
-7.0392e-06
0.0158794
-8.19494e-06
0.0158804
-7.03385e-06
0.015881
-4.09258e-06
0.0158811
-1.1971e-06
0.0158812
-1.09748e-06
0.0158816
-3.98122e-06
0.0158823
-4.67783e-06
0.0158828
-3.1908e-06
0.0158829
3.62387e-08
0.0158827
1.96749e-06
0.0158826
5.40692e-07
0.0158829
-3.82017e-06
0.0158837
-6.10071e-06
0.0158846
-6.09489e-06
0.0158852
-4.81212e-06
0.0158856
-2.32436e-06
0.015886
-3.73226e-06
0.0158865
-3.00206e-06
0.0158868
-1.36234e-06
0.0158865
2.43026e-06
0.0158858
4.84592e-06
0.015885
5.02577e-06
0.0158849
-9.91421e-08
0.0158854
-5.34266e-06
0.0158862
-7.59505e-06
0.0158867
-5.04245e-06
0.0158867
-1.36989e-06
0.0158863
2.64192e-06
0.0158855
4.48622e-06
0.0158848
4.81183e-06
1.32334e-06
0.0193271
0.00438019
0.0193634
0.00254392
0.0193701
0.0023522
0.0193494
0.0021513
0.0192915
0.00195768
0.0191931
0.00170745
0.0190461
0.00124608
0.0187753
0.000754227
0.0183446
0.0010006
0.0178959
0.00153754
0.0175749
0.00136666
0.0173921
0.000789802
0.0173074
0.000273511
0.0172842
-6.87552e-05
0.0172979
-0.000266367
0.0173331
-0.000367363
0.0173796
-0.000403092
0.0174296
-0.000392283
0.0174769
-0.000348293
0.0175172
-0.000284113
0.0175482
-0.000213219
0.0175702
-0.000149143
0.0175849
-9.8009e-05
0.0175942
-6.16299e-05
0.0175999
-3.73769e-05
0.0176033
-2.2339e-05
0.0176053
-1.30225e-05
0.0176064
-7.77292e-06
0.0176071
-4.17195e-06
0.0176076
-2.55961e-06
0.0176078
-1.38376e-06
0.017608
-1.07406e-06
0.0176081
-4.06016e-07
0.0176083
-1.03178e-06
0.0176085
-8.43789e-07
0.0176086
-1.64644e-06
0.0176089
-1.48248e-06
0.0176093
-2.76692e-06
0.0176097
-2.65222e-06
0.01761
-3.66251e-06
0.0176105
-3.19573e-06
0.0176111
-4.3593e-06
0.0176117
-5.42096e-06
0.0176126
-7.90872e-06
0.0176137
-9.28161e-06
0.0176147
-8.04812e-06
0.0176153
-4.69066e-06
0.0176155
-1.35804e-06
0.0176156
-1.19923e-06
0.0176159
-4.38831e-06
0.0176167
-5.35536e-06
0.0176173
-3.74437e-06
0.0176174
-6.15291e-08
0.0176171
2.20444e-06
0.017617
6.63582e-07
0.0176173
-4.17564e-06
0.0176181
-6.88603e-06
0.017619
-6.96646e-06
0.0176197
-5.45425e-06
0.0176201
-2.72245e-06
0.0176206
-4.19745e-06
0.0176211
-3.49978e-06
0.0176213
-1.59089e-06
0.0176211
2.71309e-06
0.0176203
5.56125e-06
0.0176195
5.80323e-06
0.0176193
7.82847e-08
0.0176198
-5.89704e-06
0.0176206
-8.44367e-06
0.0176211
-5.63358e-06
0.0176212
-1.4643e-06
0.0176208
3.0057e-06
0.01762
5.16728e-06
0.0176192
5.51987e-06
1.77206e-06
0.0212464
0.00428891
0.0212958
0.00249456
0.0213197
0.00232834
0.0213245
0.00214662
0.0213029
0.00197929
0.0212475
0.00176294
0.0211381
0.0013554
0.0208795
0.00101264
0.0204209
0.00145938
0.0199189
0.00203958
0.0195478
0.00173775
0.0193289
0.00100866
0.0192214
0.000380994
0.0191852
-3.2631e-05
0.0191929
-0.000274108
0.0192271
-0.00040156
0.0192762
-0.000452179
0.0193312
-0.000447352
0.0193847
-0.000401834
0.019431
-0.000330449
0.0194672
-0.000249394
0.0194931
-0.000175062
0.0195105
-0.000115338
0.0195215
-7.26337e-05
0.0195283
-4.41704e-05
0.0195323
-2.64057e-05
0.0195347
-1.54126e-05
0.0195361
-9.17838e-06
0.019537
-4.99529e-06
0.0195375
-3.0562e-06
0.0195378
-1.66062e-06
0.019538
-1.24807e-06
0.0195381
-5.43546e-07
0.0195383
-1.18817e-06
0.0195385
-9.69886e-07
0.0195386
-1.80975e-06
0.0195389
-1.72307e-06
0.0195393
-3.10436e-06
0.0195397
-2.98045e-06
0.01954
-4.04176e-06
0.0195405
-3.63459e-06
0.0195411
-4.88939e-06
0.0195417
-6.06108e-06
0.0195426
-8.7894e-06
0.0195437
-1.03962e-05
0.0195448
-9.089e-06
0.0195454
-5.31732e-06
0.0195456
-1.52491e-06
0.0195457
-1.29203e-06
0.019546
-4.79005e-06
0.0195467
-6.0428e-06
0.0195474
-4.32363e-06
0.0195475
-1.83971e-07
0.0195473
2.44562e-06
0.0195471
8.11688e-07
0.0195474
-4.50616e-06
0.0195482
-7.66973e-06
0.0195492
-7.85767e-06
0.0195498
-6.13942e-06
0.0195503
-3.13801e-06
0.0195508
-4.69919e-06
0.0195513
-4.00617e-06
0.0195516
-1.84529e-06
0.0195513
3.00021e-06
0.0195505
6.31271e-06
0.0195496
6.65974e-06
0.0195494
3.13626e-07
0.0195499
-6.41671e-06
0.0195507
-9.30821e-06
0.0195512
-6.25405e-06
0.0195513
-1.61038e-06
0.0195509
3.34896e-06
0.0195502
5.80846e-06
0.0195494
6.22226e-06
1.85309e-06
0.0233537
0.00418206
0.0234152
0.00243306
0.0234534
0.00229018
0.0234775
0.00212259
0.0234831
0.00197373
0.0234629
0.0017832
0.0233943
0.00142395
0.0231729
0.0012339
0.0227178
0.00191455
0.0221766
0.00258093
0.0217546
0.0021597
0.0214944
0.00126877
0.0213589
0.000516456
0.0213058
2.04141e-05
0.0213048
-0.000273128
0.0213363
-0.000433046
0.0213872
-0.000503047
0.0214472
-0.000507379
0.0215074
-0.000462042
0.0215606
-0.000383655
0.0216027
-0.00029154
0.0216332
-0.000205535
0.0216537
-0.000135837
0.0216668
-8.57412e-05
0.0216748
-5.22292e-05
0.0216797
-3.12617e-05
0.0216826
-1.82715e-05
0.0216842
-1.08576e-05
0.0216852
-5.98186e-06
0.0216858
-3.64768e-06
0.0216862
-1.99099e-06
0.0216864
-1.44633e-06
0.0216866
-7.01e-07
0.0216868
-1.34934e-06
0.0216869
-1.096e-06
0.0216871
-1.96027e-06
0.0216874
-1.96069e-06
0.0216877
-3.43149e-06
0.0216881
-3.29983e-06
0.0216884
-4.40118e-06
0.0216889
-4.06594e-06
0.0216895
-5.40839e-06
0.0216901
-6.69199e-06
0.021691
-9.66009e-06
0.0216921
-1.15143e-05
0.0216932
-1.01589e-05
0.0216939
-5.96984e-06
0.021694
-1.69795e-06
0.0216941
-1.36739e-06
0.0216944
-5.16133e-06
0.0216951
-6.7371e-06
0.0216958
-4.9359e-06
0.021696
-3.37541e-07
0.0216957
2.68475e-06
0.0216955
9.9012e-07
0.0216958
-4.7885e-06
0.0216966
-8.43607e-06
0.0216975
-8.76723e-06
0.0216982
-6.84778e-06
0.0216987
-3.59198e-06
0.0216992
-5.20243e-06
0.0216998
-4.54488e-06
0.0217001
-2.11637e-06
0.0216998
3.28255e-06
0.021699
7.09986e-06
0.021698
7.57991e-06
0.0216977
6.4294e-07
0.0216981
-6.88317e-06
0.0216989
-1.01628e-05
0.0216995
-6.90921e-06
0.0216996
-1.78206e-06
0.0216992
3.64629e-06
0.0216985
6.44288e-06
0.0216978
6.88804e-06
2.3099e-06
0.025668
0.00405945
0.0257412
0.00235992
0.0257922
0.00223921
0.0258321
0.00208283
0.0258584
0.00194751
0.025865
0.00177662
0.0258327
0.00145623
0.0256655
0.00140091
0.0252494
0.00233077
0.0246921
0.00313836
0.0242229
0.00262882
0.0239173
0.00157439
0.0237482
0.000685393
0.0236735
9.50648e-05
0.0236603
-0.000259909
0.0236867
-0.000459457
0.023738
-0.000554375
0.0238026
-0.000571972
0.0238698
-0.000529245
0.0239305
-0.000444468
0.0239795
-0.000340447
0.0240152
-0.000241246
0.0240393
-0.000160009
0.0240548
-0.00010122
0.0240644
-6.1833e-05
0.0240702
-3.70355e-05
0.0240736
-2.16776e-05
0.0240756
-1.28575e-05
0.0240768
-7.1531e-06
0.0240775
-4.3439e-06
0.0240779
-2.3817e-06
0.0240781
-1.67781e-06
0.0240784
-8.67908e-07
0.0240786
-1.51037e-06
0.0240787
-1.21408e-06
0.0240788
-2.09779e-06
0.0240791
-2.17574e-06
0.0240794
-3.73616e-06
0.0240798
-3.59557e-06
0.0240801
-4.73412e-06
0.0240806
-4.46524e-06
0.0240811
-5.89709e-06
0.0240817
-7.29868e-06
0.0240825
-1.05079e-05
0.0240836
-1.2625e-05
0.0240848
-1.12254e-05
0.0240854
-6.63618e-06
0.0240856
-1.86943e-06
0.0240856
-1.42299e-06
0.0240859
-5.50498e-06
0.0240866
-7.41779e-06
0.0240873
-5.5622e-06
0.0240875
-5.21573e-07
0.0240873
2.92051e-06
0.0240871
1.19931e-06
0.0240873
-5.01929e-06
0.024088
-9.16641e-06
0.024089
-9.66801e-06
0.0240897
-7.587e-06
0.0240902
-4.05744e-06
0.0240907
-5.7356e-06
0.0240913
-5.08166e-06
0.0240916
-2.41288e-06
0.0240913
3.56114e-06
0.0240905
7.91366e-06
0.0240894
8.58311e-06
0.024089
1.05642e-06
0.0240894
-7.27352e-06
0.0240901
-1.10009e-05
0.0240907
-7.58253e-06
0.0240909
-2.01866e-06
0.0240906
3.89512e-06
0.0240899
6.99604e-06
0.0240892
7.50762e-06
2.32426e-06
0.0282101
0.00392062
0.0282948
0.00227528
0.028358
0.00217604
0.0284116
0.00202923
0.0284547
0.00190452
0.028482
0.00174933
0.0284788
0.00145939
0.0283725
0.0015071
0.0280281
0.0026753
0.0274876
0.00367891
0.0269819
0.0031345
0.0266287
0.00192753
0.0264207
0.000893315
0.026319
0.000196739
0.0262892
-0.000230122
0.0263074
-0.00047766
0.0263572
-0.000604175
0.0264254
-0.000640221
0.0264996
-0.000603419
0.0265685
-0.000513403
0.0266249
-0.000396842
0.0266665
-0.000282834
0.0266948
-0.000188325
0.026713
-0.000119457
0.0267243
-7.31059e-05
0.0267311
-4.38466e-05
0.0267351
-2.57002e-05
0.0267375
-1.52171e-05
0.0267389
-8.53709e-06
0.0267397
-5.16243e-06
0.0267402
-2.8416e-06
0.0267405
-1.94031e-06
0.0267407
-1.05644e-06
0.0267409
-1.67151e-06
0.026741
-1.32508e-06
0.0267411
-2.21015e-06
0.0267414
-2.37231e-06
0.0267417
-4.00936e-06
0.026742
-3.86068e-06
0.0267423
-5.02089e-06
0.0267427
-4.82929e-06
0.0267432
-6.34273e-06
0.0267437
-7.8623e-06
0.0267445
-1.1305e-05
0.0267456
-1.36961e-05
0.0267467
-1.22839e-05
0.0267474
-7.30702e-06
0.0267475
-2.03633e-06
0.0267475
-1.44789e-06
0.0267478
-5.79196e-06
0.0267485
-8.07837e-06
0.0267492
-6.20558e-06
0.0267494
-7.39983e-07
0.0267492
3.14587e-06
0.0267489
1.44331e-06
0.0267491
-5.17348e-06
0.0267498
-9.84082e-06
0.0267507
-1.05526e-05
0.0267514
-8.33033e-06
0.0267519
-4.55302e-06
0.0267524
-6.25901e-06
0.026753
-5.63897e-06
0.0267534
-2.72335e-06
0.0267531
3.82706e-06
0.0267522
8.75155e-06
0.0267511
9.65088e-06
0.0267506
1.58973e-06
0.0267508
-7.56577e-06
0.0267516
-1.17903e-05
0.0267522
-8.27397e-06
0.0267524
-2.29078e-06
0.0267522
4.06698e-06
0.0267516
7.49934e-06
0.026751
8.04232e-06
2.74751e-06
0.0310026
0.00376492
0.0310988
0.00217909
0.0311741
0.00210079
0.0312407
0.00196272
0.0312983
0.00184691
0.0313425
0.00170514
0.0313622
0.00143968
0.031314
0.0015552
0.0310661
0.00292333
0.0305832
0.00416197
0.0300612
0.00365644
0.0296627
0.00232595
0.0294112
0.00114475
0.0292767
0.000331195
0.0292252
-0.000178623
0.0292311
-0.000483645
0.0292766
-0.000649665
0.0293469
-0.000710552
0.0294275