/*--------------------------------*- C++ -*----------------------------------*\
  =========                 |
  \\      /  F ield         | OpenFOAM: The Open Source CFD Toolbox
   \\    /   O peration     | Website:  https://openfoam.org
    \\  /    A nd           | Version:  7
     \\/     M anipulation  |
\*---------------------------------------------------------------------------*/
FoamFile
{
    version     2.0;
    format      ascii;
    class       volVectorField;
    location    "200";
    object      U;
}
// * * * * * * * * * * * * * * * * * * * * * * * * * * * * * * * * * * * * * //

dimensions      [0 1 -1 0 0 0 0];

internalField   nonuniform List<vector> 
4500
(
(15.4058 -0.778201 0)
(13.7077 -0.0619007 0)
(13.0325 -0.00325371 0)
(12.6709 0.000468294 0)
(12.4335 0.000502168 0)
(12.2621 0.0003737 0)
(12.143 0.000141471 0)
(12.1905 -0.000564721 0)
(12.6512 -0.00142595 0)
(13.3021 -0.00158892 0)
(13.7417 -0.00100341 0)
(13.9628 -0.000467108 0)
(14.0917 -0.000254356 0)
(14.1958 -0.000207097 0)
(14.2935 -0.000199366 0)
(14.3861 -0.000195409 0)
(14.4713 -0.000184784 0)
(14.5467 -0.000167452 0)
(14.6108 -0.000146577 0)
(14.6631 -0.000123294 0)
(14.7035 -9.58779e-05 0)
(14.7329 -7.08929e-05 0)
(14.753 -4.86647e-05 0)
(14.7659 -3.218e-05 0)
(14.774 -1.92399e-05 0)
(14.7789 -1.20475e-05 0)
(14.7817 -7.0957e-06 0)
(14.7834 -4.70847e-06 0)
(14.7844 -5.93015e-07 0)
(14.785 -6.98183e-08 0)
(14.7853 6.31264e-08 0)
(14.7855 -5.36728e-07 0)
(14.7856 2.87883e-06 0)
(14.7857 1.35791e-06 0)
(14.7858 1.44178e-06 0)
(14.7859 -6.83185e-07 0)
(14.786 3.80809e-06 0)
(14.7862 1.37547e-06 0)
(14.7863 1.34985e-06 0)
(14.7864 -1.47146e-06 0)
(14.7866 3.53802e-06 0)
(14.7868 1.32562e-06 0)
(14.787 -1.62458e-07 0)
(14.7874 -3.12883e-06 0)
(14.7878 -1.64391e-06 0)
(14.7885 5.78174e-07 0)
(14.7889 -4.7655e-07 0)
(14.7889 -1.10459e-06 0)
(14.7887 -1.46999e-06 0)
(14.7886 -4.0763e-06 0)
(14.7888 1.26015e-06 0)
(14.7893 2.88239e-06 0)
(14.7895 1.89508e-06 0)
(14.7893 9.33748e-07 0)
(14.789 -5.90869e-08 0)
(14.7889 -3.43105e-06 0)
(14.7892 -3.53437e-07 0)
(14.7899 9.74248e-07 0)
(14.7905 -2.47821e-06 0)
(14.7907 1.06731e-06 0)
(14.7909 -2.47701e-06 0)
(14.7912 2.18587e-06 0)
(14.7916 4.86311e-07 0)
(14.7915 1.39536e-06 0)
(14.7911 -5.17973e-07 0)
(14.7902 3.00178e-07 0)
(14.7896 -1.8837e-06 0)
(14.7897 -3.04012e-06 0)
(14.7903 -6.76613e-06 0)
(14.7909 -5.99623e-06 0)
(14.7912 -6.34752e-06 0)
(14.7912 -3.1351e-06 0)
(14.791 -4.50734e-06 0)
(14.7906 -4.22716e-06 0)
(14.7905 -3.74309e-06 0)
(17.5879 0.163073 0)
(16.0152 0.0238138 0)
(15.1976 0.00459131 0)
(14.7349 0.00199319 0)
(14.4345 0.0012942 0)
(14.2217 0.000914062 0)
(14.0773 0.000277104 0)
(14.1274 -0.00145151 0)
(14.6015 -0.00323056 0)
(15.1559 -0.00316699 0)
(15.4195 -0.0018017 0)
(15.5041 -0.000872116 0)
(15.5507 -0.00057278 0)
(15.6048 -0.000522151 0)
(15.6695 -0.00051203 0)
(15.7389 -0.000493533 0)
(15.8071 -0.000455968 0)
(15.8699 -0.000402759 0)
(15.9247 -0.000341167 0)
(15.9699 -0.000275835 0)
(16.005 -0.000207747 0)
(16.0304 -0.000148612 0)
(16.0476 -9.96238e-05 0)
(16.0586 -6.42838e-05 0)
(16.0655 -3.86487e-05 0)
(16.0696 -2.36936e-05 0)
(16.072 -1.38492e-05 0)
(16.0734 -8.80574e-06 0)
(16.0742 -2.25206e-06 0)
(16.0747 -1.04658e-06 0)
(16.075 -4.34953e-07 0)
(16.0752 -1.0158e-06 0)
(16.0753 3.60748e-06 0)
(16.0755 1.46872e-06 0)
(16.0757 1.75708e-06 0)
(16.0758 -1.05933e-06 0)
(16.076 4.8478e-06 0)
(16.0764 1.36222e-06 0)
(16.0767 1.54201e-06 0)
(16.077 -2.18124e-06 0)
(16.0774 4.47758e-06 0)
(16.078 1.25258e-06 0)
(16.0785 -7.60479e-07 0)
(16.0792 -5.01453e-06 0)
(16.0801 -3.29574e-06 0)
(16.0812 -2.00765e-07 0)
(16.082 -8.5017e-07 0)
(16.0823 -8.91152e-07 0)
(16.0822 -1.33076e-06 0)
(16.0822 -5.45242e-06 0)
(16.0828 1.06635e-06 0)
(16.0835 3.13564e-06 0)
(16.0839 2.57328e-06 0)
(16.0837 1.88566e-06 0)
(16.0834 3.78676e-07 0)
(16.0834 -4.91941e-06 0)
(16.084 -1.51642e-06 0)
(16.085 -4.99783e-09 0)
(16.0858 -4.14155e-06 0)
(16.0862 1.12545e-06 0)
(16.0866 -3.90479e-06 0)
(16.087 2.34311e-06 0)
(16.0876 3.56137e-07 0)
(16.0875 2.59419e-06 0)
(16.087 8.85237e-07 0)
(16.086 2.1558e-06 0)
(16.0854 -2.08709e-06 0)
(16.0857 -4.95226e-06 0)
(16.0866 -1.03741e-05 0)
(16.0874 -8.74087e-06 0)
(16.0878 -8.53318e-06 0)
(16.0875 -3.67164e-06 0)
(16.087 -5.42787e-06 0)
(16.0861 -5.09568e-06 0)
(16.0855 -5.82808e-06 0)
(18.7449 0.0973804 0)
(17.3725 0.0156262 0)
(16.4743 0.00606103 0)
(15.9333 0.00350568 0)
(15.5799 0.00236153 0)
(15.3317 0.0016511 0)
(15.1651 0.000460239 0)
(15.2033 -0.0024653 0)
(15.6264 -0.00501768 0)
(16.0146 -0.00433416 0)
(16.1152 -0.00209653 0)
(16.1095 -0.000918284 0)
(16.1111 -0.000662734 0)
(16.1403 -0.000690459 0)
(16.1893 -0.000727539 0)
(16.2479 -0.000725492 0)
(16.3082 -0.000681789 0)
(16.3652 -0.00060748 0)
(16.4155 -0.000515624 0)
(16.457 -0.000415282 0)
(16.4891 -0.000311216 0)
(16.5122 -0.000220765 0)
(16.5277 -0.000146915 0)
(16.5376 -9.40606e-05 0)
(16.5437 -5.651e-05 0)
(16.5473 -3.44218e-05 0)
(16.5494 -2.0077e-05 0)
(16.5507 -1.26056e-05 0)
(16.5514 -3.9346e-06 0)
(16.5519 -2.06071e-06 0)
(16.5522 -9.58291e-07 0)
(16.5523 -1.53716e-06 0)
(16.5524 3.94261e-06 0)
(16.5527 1.21834e-06 0)
(16.5529 1.62094e-06 0)
(16.553 -1.91107e-06 0)
(16.5533 4.84734e-06 0)
(16.5537 3.36715e-07 0)
(16.5541 6.06952e-07 0)
(16.5546 -4.03336e-06 0)
(16.555 3.71217e-06 0)
(16.5557 -4.49338e-07 0)
(16.5564 -3.13028e-06 0)
(16.5572 -8.96808e-06 0)
(16.5583 -7.55019e-06 0)
(16.5596 -3.5383e-06 0)
(16.5606 -2.87188e-06 0)
(16.5609 -1.56476e-06 0)
(16.5609 -2.00311e-06 0)
(16.561 -8.00624e-06 0)
(16.5617 -9.87317e-07 0)
(16.5626 2.02699e-06 0)
(16.563 2.93136e-06 0)
(16.5628 3.04246e-06 0)
(16.5624 6.56702e-07 0)
(16.5625 -7.39103e-06 0)
(16.5633 -4.62268e-06 0)
(16.5644 -2.90982e-06 0)
(16.5654 -6.90643e-06 0)
(16.5658 2.01137e-07 0)
(16.5662 -6.10025e-06 0)
(16.5668 1.24131e-06 0)
(16.5674 -2.39935e-07 0)
(16.5673 4.04283e-06 0)
(16.5667 3.22318e-06 0)
(16.5656 4.68624e-06 0)
(16.5651 -2.50927e-06 0)
(16.5655 -8.19656e-06 0)
(16.5665 -1.53059e-05 0)
(16.5674 -1.22217e-05 0)
(16.5677 -1.01987e-05 0)
(16.5674 -2.84128e-06 0)
(16.5667 -3.9051e-06 0)
(16.5656 -3.38833e-06 0)
(16.5649 -5.55112e-06 0)
(19.3754 0.0462311 0)
(18.326 0.0150467 0)
(17.4308 0.00910682 0)
(16.8357 0.00565022 0)
(16.4355 0.00382135 0)
(16.1533 0.00265291 0)
(15.9641 0.00077476 0)
(15.9794 -0.00345775 0)
(16.3162 -0.00662259 0)
(16.5331 -0.00507196 0)
(16.5125 -0.00205634 0)
(16.4512 -0.000793354 0)
(16.4281 -0.000679598 0)
(16.4443 -0.0008369 0)
(16.4853 -0.000948331 0)
(16.5385 -0.000976424 0)
(16.595 -0.00093227 0)
(16.6492 -0.000837419 0)
(16.6972 -0.0007125 0)
(16.7369 -0.00057259 0)
(16.7674 -0.000427819 0)
(16.7891 -0.000301791 0)
(16.8037 -0.000199869 0)
(16.8129 -0.000127212 0)
(16.8185 -7.65054e-05 0)
(16.8219 -4.63451e-05 0)
(16.8239 -2.69979e-05 0)
(16.825 -1.67738e-05 0)
(16.8257 -6.04268e-06 0)
(16.8261 -3.36743e-06 0)
(16.8264 -1.65058e-06 0)
(16.8265 -2.14114e-06 0)
(16.8267 3.86872e-06 0)
(16.8269 6.4805e-07 0)
(16.8271 1.16478e-06 0)
(16.8273 -2.96982e-06 0)
(16.8275 4.1027e-06 0)
(16.828 -1.32172e-06 0)
(16.8285 -9.60868e-07 0)
(16.829 -6.35226e-06 0)
(16.8295 1.92294e-06 0)
(16.8302 -3.05953e-06 0)
(16.8309 -6.40616e-06 0)
(16.8318 -1.38682e-05 0)
(16.8331 -1.31612e-05 0)
(16.8345 -8.28027e-06 0)
(16.8355 -5.62626e-06 0)
(16.8358 -2.39269e-06 0)
(16.8358 -2.7773e-06 0)
(16.8361 -1.08488e-05 0)
(16.8368 -4.10907e-06 0)
(16.8378 -2.28611e-08 0)
(16.8382 3.06721e-06 0)
(16.8379 4.41538e-06 0)
(16.8376 9.8773e-07 0)
(16.8377 -1.01859e-05 0)
(16.8386 -8.85001e-06 0)
(16.8398 -7.05265e-06 0)
(16.8408 -1.02283e-05 0)
(16.8412 -1.28999e-06 0)
(16.8417 -8.67248e-06 0)
(16.8422 -6.89969e-07 0)
(16.8429 -1.14306e-06 0)
(16.8428 5.72782e-06 0)
(16.8422 6.43961e-06 0)
(16.8411 7.99116e-06 0)
(16.8405 -2.81419e-06 0)
(16.841 -1.20771e-05 0)
(16.8421 -2.07685e-05 0)
(16.843 -1.58484e-05 0)
(16.8433 -1.12982e-05 0)
(16.8429 -1.08402e-06 0)
(16.8422 -9.33012e-07 0)
(16.841 -1.59867e-07 0)
(16.8401 -4.81651e-06 0)
(19.693 0.0456774 0)
(18.9995 0.02024 0)
(18.1918 0.0129038 0)
(17.5772 0.00824584 0)
(17.1413 0.00562221 0)
(16.8284 0.00389902 0)
(16.6163 0.00125832 0)
(16.5995 -0.00421227 0)
(16.8318 -0.00772336 0)
(16.8976 -0.00523477 0)
(16.7895 -0.00167113 0)
(16.692 -0.00050936 0)
(16.6533 -0.000631304 0)
(16.6616 -0.000963634 0)
(16.6977 -0.00117268 0)
(16.7477 -0.0012427 0)
(16.8021 -0.00120309 0)
(16.8549 -0.00108818 0)
(16.9019 -0.000927695 0)
(16.9406 -0.000744232 0)
(16.9702 -0.000554725 0)
(16.9913 -0.000389645 0)
(17.0053 -0.00025711 0)
(17.0141 -0.000162943 0)
(17.0195 -9.8036e-05 0)
(17.0228 -5.91562e-05 0)
(17.0246 -3.44292e-05 0)
(17.0257 -2.12207e-05 0)
(17.0264 -8.43486e-06 0)
(17.0268 -4.87191e-06 0)
(17.0271 -2.4556e-06 0)
(17.0272 -2.80535e-06 0)
(17.0273 3.53946e-06 0)
(17.0275 -1.40947e-07 0)
(17.0278 4.903e-07 0)
(17.0279 -4.19558e-06 0)
(17.0282 2.86627e-06 0)
(17.0288 -3.43491e-06 0)
(17.0292 -2.98221e-06 0)
(17.0297 -9.04745e-06 0)
(17.0303 -5.68344e-07 0)
(17.031 -6.33152e-06 0)
(17.0318 -1.03672e-05 0)
(17.0327 -1.9535e-05 0)
(17.034 -1.98044e-05 0)
(17.0355 -1.4057e-05 0)
(17.0365 -8.92441e-06 0)
(17.0369 -3.34357e-06 0)
(17.0369 -3.65859e-06 0)
(17.0371 -1.39874e-05 0)
(17.0379 -8.00493e-06 0)
(17.0389 -2.71733e-06 0)
(17.0393 3.08248e-06 0)
(17.039 5.96939e-06 0)
(17.0387 1.34164e-06 0)
(17.0389 -1.33014e-05 0)
(17.0398 -1.39198e-05 0)
(17.041 -1.20966e-05 0)
(17.042 -1.39851e-05 0)
(17.0425 -3.18407e-06 0)
(17.0429 -1.15521e-05 0)
(17.0435 -3.21549e-06 0)
(17.0442 -2.24474e-06 0)
(17.0441 7.62844e-06 0)
(17.0435 1.0307e-05 0)
(17.0423 1.18511e-05 0)
(17.0418 -3.07058e-06 0)
(17.0423 -1.65034e-05 0)
(17.0434 -2.67324e-05 0)
(17.0443 -1.96669e-05 0)
(17.0447 -1.20248e-05 0)
(17.0442 1.33508e-06 0)
(17.0434 3.09426e-06 0)
(17.0422 4.12476e-06 0)
(17.0413 -3.30327e-06 0)
(19.8488 0.0504628 0)
(19.4507 0.0244964 0)
(18.7998 0.01666 0)
(18.2083 0.0111647 0)
(17.7538 0.00775457 0)
(17.4164 0.00540687 0)
(17.1823 0.00195452 0)
(17.1261 -0.00462254 0)
(17.247 -0.00822327 0)
(17.1847 -0.00482151 0)
(17.0114 -0.000964034 0)
(16.8878 -7.96461e-05 0)
(16.8377 -0.000523685 0)
(16.8399 -0.00107286 0)
(16.8725 -0.00140109 0)
(16.9202 -0.00152427 0)
(16.9734 -0.00149418 0)
(17.0255 -0.00135979 0)
(17.072 -0.00116134 0)
(17.1105 -0.000930387 0)
(17.1398 -0.000692053 0)
(17.1606 -0.000484443 0)
(17.1744 -0.000318732 0)
(17.183 -0.000201305 0)
(17.1883 -0.000121175 0)
(17.1915 -7.28905e-05 0)
(17.1933 -4.23942e-05 0)
(17.1944 -2.59718e-05 0)
(17.195 -1.10696e-05 0)
(17.1955 -6.53963e-06 0)
(17.1957 -3.35264e-06 0)
(17.1958 -3.52984e-06 0)
(17.196 3.04676e-06 0)
(17.1962 -1.08945e-06 0)
(17.1964 -3.39302e-07 0)
(17.1966 -5.56966e-06 0)
(17.1969 1.2872e-06 0)
(17.1974 -5.90038e-06 0)
(17.1979 -5.35214e-06 0)
(17.1984 -1.2073e-05 0)
(17.199 -3.57764e-06 0)
(17.1998 -1.01252e-05 0)
(17.2005 -1.48953e-05 0)
(17.2015 -2.58826e-05 0)
(17.2028 -2.73292e-05 0)
(17.2043 -2.06666e-05 0)
(17.2054 -1.26693e-05 0)
(17.2057 -4.4018e-06 0)
(17.2057 -4.64971e-06 0)
(17.206 -1.74393e-05 0)
(17.2068 -1.25203e-05 0)
(17.2078 -5.89393e-06 0)
(17.2082 3.0307e-06 0)
(17.2079 7.69227e-06 0)
(17.2076 1.71242e-06 0)
(17.2077 -1.67373e-05 0)
(17.2087 -1.96889e-05 0)
(17.2099 -1.786e-05 0)
(17.2109 -1.8142e-05 0)
(17.2114 -5.37955e-06 0)
(17.2119 -1.47452e-05 0)
(17.2125 -6.18428e-06 0)
(17.2131 -3.50584e-06 0)
(17.213 9.74071e-06 0)
(17.2124 1.47143e-05 0)
(17.2113 1.61977e-05 0)
(17.2107 -3.32495e-06 0)
(17.2112 -2.14204e-05 0)
(17.2124 -3.32082e-05 0)
(17.2133 -2.37111e-05 0)
(17.2136 -1.25458e-05 0)
(17.2132 4.26831e-06 0)
(17.2123 7.89615e-06 0)
(17.2111 9.21925e-06 0)
(17.2102 -1.57025e-06 0)
(19.929 0.0521891 0)
(19.7286 0.0270216 0)
(19.2675 0.0200349 0)
(18.7458 0.0142503 0)
(18.2967 0.0101836 0)
(17.9447 0.00718907 0)
(17.6914 0.0029103 0)
(17.5921 -0.00460035 0)
(17.6018 -0.00806765 0)
(17.4318 -0.00384286 0)
(17.2072 5.18842e-05 0)
(17.0628 0.000492125 0)
(17.0031 -0.000357468 0)
(17 -0.00116561 0)
(17.0293 -0.00163558 0)
(17.0752 -0.00182412 0)
(17.1275 -0.0018092 0)
(17.1793 -0.00165625 0)
(17.2259 -0.00141733 0)
(17.2645 -0.00113448 0)
(17.294 -0.000842523 0)
(17.3148 -0.000588172 0)
(17.3287 -0.000386089 0)
(17.3374 -0.000243211 0)
(17.3427 -0.000146437 0)
(17.3459 -8.7881e-05 0)
(17.3477 -5.10885e-05 0)
(17.3488 -3.11459e-05 0)
(17.3494 -1.39933e-05 0)
(17.3498 -8.39369e-06 0)
(17.3501 -4.35318e-06 0)
(17.3502 -4.32152e-06 0)
(17.3504 2.42174e-06 0)
(17.3506 -2.17329e-06 0)
(17.3508 -1.29745e-06 0)
(17.351 -7.07826e-06 0)
(17.3513 -5.701e-07 0)
(17.3518 -8.67107e-06 0)
(17.3523 -8.02432e-06 0)
(17.3528 -1.54033e-05 0)
(17.3534 -7.02469e-06 0)
(17.3541 -1.4379e-05 0)
(17.3549 -1.99395e-05 0)
(17.3559 -3.28786e-05 0)
(17.3571 -3.56772e-05 0)
(17.3586 -2.80487e-05 0)
(17.3597 -1.68351e-05 0)
(17.3601 -5.56388e-06 0)
(17.3601 -5.74129e-06 0)
(17.3603 -2.11991e-05 0)
(17.3612 -1.75969e-05 0)
(17.3622 -9.5028e-06 0)
(17.3626 2.92414e-06 0)
(17.3623 9.58359e-06 0)
(17.362 2.11602e-06 0)
(17.3621 -2.04756e-05 0)
(17.363 -2.60972e-05 0)
(17.3643 -2.42874e-05 0)
(17.3653 -2.26966e-05 0)
(17.3658 -7.86226e-06 0)
(17.3662 -1.82424e-05 0)
(17.3669 -9.55981e-06 0)
(17.3675 -4.91053e-06 0)
(17.3674 1.20636e-05 0)
(17.3668 1.96381e-05 0)
(17.3656 2.10249e-05 0)
(17.3651 -3.54674e-06 0)
(17.3656 -2.6799e-05 0)
(17.3668 -4.02163e-05 0)
(17.3677 -2.80392e-05 0)
(17.368 -1.29405e-05 0)
(17.3675 7.62052e-06 0)
(17.3667 1.33732e-05 0)
(17.3654 1.49897e-05 0)
(17.3645 6.40242e-07 0)
(19.9739 0.0527264 0)
(19.889 0.0285932 0)
(19.6025 0.0228095 0)
(19.1905 0.017273 0)
(18.7766 0.0128161 0)
(18.4251 0.00923114 0)
(18.1587 0.00416409 0)
(18.0162 -0.00406258 0)
(17.9206 -0.00720135 0)
(17.6594 -0.00229173 0)
(17.3924 0.00138187 0)
(17.2297 0.00121401 0)
(17.1609 -0.000126717 0)
(17.1524 -0.00123931 0)
(17.1784 -0.00187652 0)
(17.2224 -0.00214478 0)
(17.2739 -0.00215223 0)
(17.3257 -0.00198248 0)
(17.3728 -0.00170072 0)
(17.412 -0.00136109 0)
(17.4419 -0.00100984 0)
(17.4632 -0.000703569 0)
(17.4773 -0.000461057 0)
(17.4862 -0.000289856 0)
(17.4916 -0.000174599 0)
(17.4949 -0.000104588 0)
(17.4967 -6.07849e-05 0)
(17.4978 -3.69029e-05 0)
(17.4985 -1.72915e-05 0)
(17.4989 -1.04815e-05 0)
(17.4992 -5.48445e-06 0)
(17.4993 -5.19566e-06 0)
(17.4995 1.67136e-06 0)
(17.4997 -3.38436e-06 0)
(17.4999 -2.37234e-06 0)
(17.5001 -8.71086e-06 0)
(17.5004 -2.6757e-06 0)
(17.5009 -1.17228e-05 0)
(17.5014 -1.09744e-05 0)
(17.5019 -1.90171e-05 0)
(17.5024 -1.08704e-05 0)
(17.5032 -1.90605e-05 0)
(17.5039 -2.54728e-05 0)
(17.5049 -4.04986e-05 0)
(17.5062 -4.48253e-05 0)
(17.5077 -3.6181e-05 0)
(17.5087 -2.14209e-05 0)
(17.5091 -6.82611e-06 0)
(17.5091 -6.91641e-06 0)
(17.5093 -2.52462e-05 0)
(17.5101 -2.32082e-05 0)
(17.5111 -1.35382e-05 0)
(17.5115 2.74866e-06 0)
(17.5113 1.16432e-05 0)
(17.5109 2.57758e-06 0)
(17.5111 -2.44799e-05 0)
(17.512 -3.31084e-05 0)
(17.5133 -3.13615e-05 0)
(17.5143 -2.76686e-05 0)
(17.5147 -1.0631e-05 0)
(17.5152 -2.20561e-05 0)
(17.5158 -1.3324e-05 0)
(17.5165 -6.46986e-06 0)
(17.5163 1.45931e-05 0)
(17.5157 2.50842e-05 0)
(17.5146 2.63759e-05 0)
(17.514 -3.68672e-06 0)
(17.5145 -3.25933e-05 0)
(17.5157 -4.77586e-05 0)
(17.5166 -3.26791e-05 0)
(17.5169 -1.32721e-05 0)
(17.5164 1.13405e-05 0)
(17.5156 1.94466e-05 0)
(17.5144 2.1381e-05 0)
(17.5135 3.04884e-06 0)
(20.0011 0.0528778 0)
(19.9808 0.0295278 0)
(19.8227 0.0248339 0)
(19.5373 0.0199577 0)
(19.1902 0.015486 0)
(18.8597 0.0114733 0)
(18.5901 0.00573005 0)
(18.4092 -0.00294294 0)
(18.2182 -0.00557049 0)
(17.8797 -0.000143671 0)
(17.576 0.00304726 0)
(17.396 0.00210427 0)
(17.3176 0.000180808 0)
(17.3032 -0.00128747 0)
(17.3255 -0.00212179 0)
(17.3675 -0.00248742 0)
(17.4182 -0.00252678 0)
(17.4701 -0.00234346 0)
(17.518 -0.00201705 0)
(17.5581 -0.00161543 0)
(17.5889 -0.00119831 0)
(17.6108 -0.000833839 0)
(17.6255 -0.000545844 0)
(17.6347 -0.000342688 0)
(17.6403 -0.000206553 0)
(17.6437 -0.000123557 0)
(17.6457 -7.18074e-05 0)
(17.6468 -4.34334e-05 0)
(17.6475 -2.10686e-05 0)
(17.6479 -1.28619e-05 0)
(17.6482 -6.77947e-06 0)
(17.6483 -6.16847e-06 0)
(17.6485 7.98948e-07 0)
(17.6487 -4.7147e-06 0)
(17.6489 -3.55202e-06 0)
(17.6491 -1.04533e-05 0)
(17.6494 -4.99941e-06 0)
(17.6499 -1.50289e-05 0)
(17.6504 -1.41763e-05 0)
(17.6508 -2.2889e-05 0)
(17.6514 -1.50746e-05 0)
(17.6521 -2.41353e-05 0)
(17.6528 -3.14635e-05 0)
(17.6538 -4.87123e-05 0)
(17.655 -5.4742e-05 0)
(17.6565 -4.50466e-05 0)
(17.6575 -2.64313e-05 0)
(17.6579 -8.19236e-06 0)
(17.6579 -8.157e-06 0)
(17.6581 -2.95508e-05 0)
(17.6589 -2.93257e-05 0)
(17.6599 -1.8e-05 0)
(17.6603 2.48341e-06 0)
(17.6601 1.38656e-05 0)
(17.6597 3.12692e-06 0)
(17.6599 -2.8701e-05 0)
(17.6607 -4.06767e-05 0)
(17.662 -3.9065e-05 0)
(17.663 -3.30747e-05 0)
(17.6634 -1.36969e-05 0)
(17.6639 -2.61858e-05 0)
(17.6645 -1.74688e-05 0)
(17.6651 -8.19437e-06 0)
(17.665 1.73177e-05 0)
(17.6644 3.10559e-05 0)
(17.6633 3.229e-05 0)
(17.6627 -3.67525e-06 0)
(17.6632 -3.87448e-05 0)
(17.6643 -5.58282e-05 0)
(17.6652 -3.76673e-05 0)
(17.6655 -1.36001e-05 0)
(17.6651 1.53608e-05 0)
(17.6643 2.60501e-05 0)
(17.663 2.8322e-05 0)
(17.6622 5.71574e-06 0)
(20.0187 0.0527529 0)
(20.0355 0.0299788 0)
(19.9584 0.0261381 0)
(19.7865 0.0220719 0)
(19.5289 0.0179643 0)
(19.2432 0.0137932 0)
(18.9853 0.00757973 0)
(18.7761 -0.00120706 0)
(18.5038 -0.00313063 0)
(18.1002 0.00263555 0)
(17.7637 0.00508182 0)
(17.5664 0.00319017 0)
(17.4776 0.000583295 0)
(17.4565 -0.00129965 0)
(17.4745 -0.00236681 0)
(17.5141 -0.00285174 0)
(17.5639 -0.00293578 0)
(17.616 -0.00274429 0)
(17.6648 -0.00237238 0)
(17.7061 -0.00190341 0)
(17.7381 -0.00141291 0)
(17.761 -0.000982744 0)
(17.7764 -0.000643059 0)
(17.786 -0.000403408 0)
(17.792 -0.000243372 0)
(17.7956 -0.000145439 0)
(17.7976 -8.45426e-05 0)
(17.7989 -5.09633e-05 0)
(17.7996 -2.54536e-05 0)
(17.8 -1.5608e-05 0)
(17.8003 -8.28021e-06 0)
(17.8005 -7.26015e-06 0)
(17.8006 -1.98538e-07 0)
(17.8008 -6.15805e-06 0)
(17.801 -4.82591e-06 0)
(17.8012 -1.22877e-05 0)
(17.8015 -7.51388e-06 0)
(17.802 -1.85603e-05 0)
(17.8024 -1.7602e-05 0)
(17.8028 -2.69856e-05 0)
(17.8034 -1.95977e-05 0)
(17.8041 -2.95644e-05 0)
(17.8048 -3.78737e-05 0)
(17.8057 -5.74752e-05 0)
(17.8069 -6.53868e-05 0)
(17.8083 -5.46249e-05 0)
(17.8094 -3.18728e-05 0)
(17.8097 -9.66509e-06 0)
(17.8097 -9.44041e-06 0)
(17.81 -3.40693e-05 0)
(17.8107 -3.59179e-05 0)
(17.8117 -2.28943e-05 0)
(17.8121 2.09659e-06 0)
(17.8118 1.62407e-05 0)
(17.8115 3.79809e-06 0)
(17.8116 -3.30719e-05 0)
(17.8125 -4.87454e-05 0)
(17.8137 -4.73768e-05 0)
(17.8146 -3.89309e-05 0)
(17.8151 -1.70727e-05 0)
(17.8155 -3.06305e-05 0)
(17.8161 -2.19858e-05 0)
(17.8168 -1.01e-05 0)
(17.8167 2.0219e-05 0)
(17.8161 3.75558e-05 0)
(17.815 3.88144e-05 0)
(17.8144 -3.42503e-06 0)
(17.8148 -4.51719e-05 0)
(17.8159 -6.4397e-05 0)
(17.8167 -4.30288e-05 0)
(17.817 -1.39846e-05 0)
(17.8166 1.96114e-05 0)
(17.8159 3.3107e-05 0)
(17.8147 3.57444e-05 0)
(17.8139 8.54132e-06 0)
(20.0307 0.0523785 0)
(20.0699 0.0300806 0)
(20.0407 0.0268742 0)
(19.9514 0.023525 0)
(19.786 0.020014 0)
(19.566 0.016003 0)
(19.3381 0.00962168 0)
(19.1169 0.00112995 0)
(18.7824 0.000141945 0)
(18.3256 0.00608381 0)
(17.9593 0.00752906 0)
(17.7444 0.00450753 0)
(17.6439 0.0011052 0)
(17.6151 -0.0012611 0)
(17.6281 -0.00260409 0)
(17.6647 -0.00323571 0)
(17.7132 -0.00338138 0)
(17.7655 -0.00319009 0)
(17.8154 -0.0027734 0)
(17.8582 -0.00223183 0)
(17.8917 -0.00165949 0)
(17.9158 -0.00115473 0)
(17.9321 -0.0007558 0)
(17.9424 -0.000474057 0)
(17.9487 -0.000286324 0)
(17.9525 -0.000171013 0)
(17.9547 -9.94546e-05 0)
(17.956 -5.97656e-05 0)
(17.9568 -3.05989e-05 0)
(17.9573 -1.88062e-05 0)
(17.9576 -1.00355e-05 0)
(17.9577 -8.49458e-06 0)
(17.9579 -1.32108e-06 0)
(17.9581 -7.70474e-06 0)
(17.9583 -6.17782e-06 0)
(17.9584 -1.41916e-05 0)
(17.9587 -1.018e-05 0)
(17.9592 -2.22774e-05 0)
(17.9596 -2.12123e-05 0)
(17.96 -3.12642e-05 0)
(17.9605 -2.43841e-05 0)
(17.9612 -3.52949e-05 0)
(17.9619 -4.46506e-05 0)
(17.9627 -6.67287e-05 0)
(17.9639 -7.67015e-05 0)
(17.9653 -6.48802e-05 0)
(17.9663 -3.77453e-05 0)
(17.9666 -1.12493e-05 0)
(17.9666 -1.07408e-05 0)
(17.9668 -3.87501e-05 0)
(17.9676 -4.29396e-05 0)
(17.9685 -2.82185e-05 0)
(17.9689 1.55514e-06 0)
(17.9687 1.87526e-05 0)
(17.9684 4.62886e-06 0)
(17.9685 -3.75135e-05 0)
(17.9692 -5.72385e-05 0)
(17.9704 -5.626e-05 0)
(17.9713 -4.52487e-05 0)
(17.9718 -2.07697e-05 0)
(17.9722 -3.5385e-05 0)
(17.9728 -2.68597e-05 0)
(17.9734 -1.22028e-05 0)
(17.9733 2.32732e-05 0)
(17.9728 4.45776e-05 0)
(17.9717 4.59965e-05 0)
(17.9711 -2.8386e-06 0)
(17.9714 -5.1774e-05 0)
(17.9724 -7.34274e-05 0)
(17.9733 -4.87908e-05 0)
(17.9736 -1.45003e-05 0)
(17.9732 2.39997e-05 0)
(17.9725 4.05188e-05 0)
(17.9714 4.35501e-05 0)
(17.9706 1.15942e-05 0)
(20.039 0.0517871 0)
(20.0926 0.0299319 0)
(20.0921 0.0271992 0)
(20.0554 0.0243844 0)
(19.9653 0.0214856 0)
(19.8188 0.0178841 0)
(19.6386 0.0116919 0)
(19.4261 0.00397197 0)
(19.0545 0.0042195 0)
(18.5584 0.0102308 0)
(18.1656 0.0104392 0)
(17.9323 0.00610063 0)
(17.819 0.00177795 0)
(17.7811 -0.00115195 0)
(17.7882 -0.00282259 0)
(17.8211 -0.00363504 0)
(17.868 -0.0038646 0)
(17.9202 -0.00368582 0)
(17.9712 -0.00322731 0)
(18.0158 -0.00260833 0)
(18.051 -0.0019448 0)
(18.0766 -0.001355 0)
(18.0939 -0.000887726 0)
(18.1049 -0.00055704 0)
(18.1117 -0.000336933 0)
(18.1159 -0.000201207 0)
(18.1183 -0.000117097 0)
(18.1197 -7.01635e-05 0)
(18.1205 -3.66932e-05 0)
(18.121 -2.25631e-05 0)
(18.1213 -1.21067e-05 0)
(18.1215 -9.89998e-06 0)
(18.1216 -2.57773e-06 0)
(18.1218 -9.34605e-06 0)
(18.122 -7.59344e-06 0)
(18.1222 -1.6136e-05 0)
(18.1224 -1.29609e-05 0)
(18.1228 -2.6134e-05 0)
(18.1233 -2.49635e-05 0)
(18.1236 -3.56683e-05 0)
(18.1241 -2.93753e-05 0)
(18.1248 -4.12632e-05 0)
(18.1254 -5.17291e-05 0)
(18.1262 -7.63911e-05 0)
(18.1273 -8.8608e-05 0)
(18.1286 -7.5766e-05 0)
(18.1296 -4.40452e-05 0)
(18.1299 -1.29443e-05 0)
(18.1299 -1.20257e-05 0)
(18.1301 -4.35218e-05 0)
(18.1308 -5.03367e-05 0)
(18.1317 -3.39726e-05 0)
(18.1321 8.15503e-07 0)
(18.1319 2.13802e-05 0)
(18.1316 5.65984e-06 0)
(18.1316 -4.19245e-05 0)
(18.1324 -6.60613e-05 0)
(18.1334 -6.56669e-05 0)
(18.1344 -5.20309e-05 0)
(18.1348 -2.48009e-05 0)
(18.1352 -4.04365e-05 0)
(18.1358 -3.2077e-05 0)
(18.1364 -1.45194e-05 0)
(18.1363 2.64485e-05 0)
(18.1358 5.21119e-05 0)
(18.1347 5.38838e-05 0)
(18.1341 -1.79433e-06 0)
(18.1344 -5.84213e-05 0)
(18.1353 -8.28509e-05 0)
(18.1361 -5.49665e-05 0)
(18.1365 -1.52151e-05 0)
(18.1361 2.84252e-05 0)
(18.1355 4.81757e-05 0)
(18.1344 5.16327e-05 0)
(18.1337 1.47609e-05 0)
(20.045 0.0510017 0)
(20.1083 0.0295914 0)
(20.1256 0.0272292 0)
(20.1208 0.0247859 0)
(20.0824 0.0223795 0)
(20.0008 0.0192714 0)
(19.8774 0.0135762 0)
(19.6953 0.00712641 0)
(19.3176 0.00899767 0)
(18.7993 0.0150816 0)
(18.3842 0.0138643 0)
(18.1322 0.00802162 0)
(18.0045 0.00264065 0)
(17.9563 -0.000946193 0)
(17.9562 -0.00300677 0)
(17.9847 -0.00404234 0)
(18.0293 -0.00438465 0)
(18.0812 -0.00423582 0)
(18.1333 -0.00374162 0)
(18.1797 -0.00304141 0)
(18.2169 -0.00227653 0)
(18.2442 -0.00158958 0)
(18.2627 -0.00104311 0)
(18.2746 -0.000655178 0)
(18.2819 -0.000396986 0)
(18.2864 -0.000237112 0)
(18.289 -0.000138123 0)
(18.2905 -8.25401e-05 0)
(18.2914 -4.39548e-05 0)
(18.292 -2.70017e-05 0)
(18.2923 -1.45641e-05 0)
(18.2925 -1.15106e-05 0)
(18.2927 -3.97291e-06 0)
(18.2929 -1.10692e-05 0)
(18.293 -9.05062e-06 0)
(18.2932 -1.80862e-05 0)
(18.2934 -1.58035e-05 0)
(18.2938 -3.00703e-05 0)
(18.2942 -2.87953e-05 0)
(18.2945 -4.01285e-05 0)
(18.2949 -3.449e-05 0)
(18.2955 -4.73852e-05 0)
(18.2961 -5.90224e-05 0)
(18.2969 -8.63599e-05 0)
(18.2979 -0.000101004 0)
(18.2992 -8.72078e-05 0)
(18.3001 -5.07535e-05 0)
(18.3004 -1.47468e-05 0)
(18.3004 -1.32574e-05 0)
(18.3006 -4.83047e-05 0)
(18.3012 -5.80352e-05 0)
(18.302 -4.01398e-05 0)
(18.3024 -1.63566e-07 0)
(18.3023 2.40953e-05 0)
(18.302 6.93315e-06 0)
(18.302 -4.6192e-05 0)
(18.3026 -7.50943e-05 0)
(18.3037 -7.55234e-05 0)
(18.3045 -5.92719e-05 0)
(18.305 -2.91688e-05 0)
(18.3054 -4.5773e-05 0)
(18.3059 -3.76069e-05 0)
(18.3065 -1.70669e-05 0)
(18.3064 2.97093e-05 0)
(18.3059 6.0137e-05 0)
(18.3049 6.25259e-05 0)
(18.3043 -1.67756e-07 0)
(18.3045 -6.49592e-05 0)
(18.3054 -9.25825e-05 0)
(18.3061 -6.15591e-05 0)
(18.3065 -1.62173e-05 0)
(18.3062 3.2766e-05 0)
(18.3056 5.59266e-05 0)
(18.3046 5.9853e-05 0)
(18.304 1.79397e-05 0)
(20.0492 0.0500334 0)
(20.1193 0.0290909 0)
(20.1483 0.0270392 0)
(20.1631 0.0248526 0)
(20.1571 0.0227996 0)
(20.1225 0.0201291 0)
(20.0517 0.0150784 0)
(19.9157 0.0103032 0)
(19.5663 0.0142669 0)
(19.0471 0.0205955 0)
(18.6157 0.0178495 0)
(18.3453 0.0103288 0)
(18.2019 0.00374061 0)
(18.1419 -0.00061066 0)
(18.1335 -0.00313549 0)
(18.1565 -0.00444617 0)
(18.1982 -0.00493814 0)
(18.2493 -0.00484318 0)
(18.3023 -0.00432375 0)
(18.3505 -0.00354018 0)
(18.3899 -0.00266326 0)
(18.4189 -0.00186533 0)
(18.4389 -0.00122683 0)
(18.4517 -0.000771715 0)
(18.4597 -0.000468531 0)
(18.4645 -0.000279984 0)
(18.4674 -0.000163283 0)
(18.469 -9.7335e-05 0)
(18.47 -5.264e-05 0)
(18.4706 -3.22662e-05 0)
(18.471 -1.74906e-05 0)
(18.4712 -1.33643e-05 0)
(18.4713 -5.51894e-06 0)
(18.4715 -1.286e-05 0)
(18.4717 -1.0527e-05 0)
(18.4718 -1.99986e-05 0)
(18.472 -1.86526e-05 0)
(18.4723 -3.40137e-05 0)
(18.4727 -3.26375e-05 0)
(18.473 -4.45568e-05 0)
(18.4734 -3.9636e-05 0)
(18.4739 -5.35576e-05 0)
(18.4745 -6.64234e-05 0)
(18.4752 -9.65021e-05 0)
(18.4761 -0.000113754 0)
(18.4773 -9.91104e-05 0)
(18.4782 -5.78385e-05 0)
(18.4785 -1.66443e-05 0)
(18.4785 -1.43909e-05 0)
(18.4786 -5.2997e-05 0)
(18.4791 -6.59458e-05 0)
(18.4799 -4.66963e-05 0)
(18.4804 -1.42788e-06 0)
(18.4802 2.68638e-05 0)
(18.4799 8.48969e-06 0)
(18.4799 -5.01823e-05 0)
(18.4805 -8.41931e-05 0)
(18.4814 -8.57342e-05 0)
(18.4822 -6.69454e-05 0)
(18.4827 -3.38759e-05 0)
(18.4831 -5.13648e-05 0)
(18.4836 -4.3422e-05 0)
(18.4841 -1.9855e-05 0)
(18.4841 3.30123e-05 0)
(18.4836 6.86228e-05 0)
(18.4826 7.19599e-05 0)
(18.482 2.18982e-06 0)
(18.4821 -7.12032e-05 0)
(18.4829 -0.000102501 0)
(18.4836 -6.85582e-05 0)
(18.484 -1.75811e-05 0)
(18.4837 3.6883e-05 0)
(18.4832 6.36128e-05 0)
(18.4823 6.80413e-05 0)
(18.4818 2.11022e-05 0)
(20.0522 0.0488859 0)
(20.1272 0.0284466 0)
(20.1642 0.0266726 0)
(20.1914 0.0246704 0)
(20.2054 0.0228643 0)
(20.2013 0.0205318 0)
(20.1701 0.0161034 0)
(20.0831 0.0131769 0)
(19.7932 0.0197047 0)
(19.2986 0.0266595 0)
(18.86 0.0224204 0)
(18.5724 0.0130828 0)
(18.4125 0.00513318 0)
(18.3392 -0.000104016 0)
(18.3211 -0.00318076 0)
(18.3375 -0.00482983 0)
(18.3753 -0.005518 0)
(18.425 -0.0055089 0)
(18.4786 -0.00498043 0)
(18.5286 -0.00411402 0)
(18.5701 -0.00311425 0)
(18.6011 -0.00218978 0)
(18.6225 -0.00144433 0)
(18.6364 -0.000910266 0)
(18.645 -0.000553858 0)
(18.6503 -0.000331223 0)
(18.6534 -0.000193417 0)
(18.6552 -0.000115041 0)
(18.6563 -6.30293e-05 0)
(18.6569 -3.85138e-05 0)
(18.6573 -2.09764e-05 0)
(18.6575 -1.55049e-05 0)
(18.6577 -7.2214e-06 0)
(18.6578 -1.46989e-05 0)
(18.658 -1.19904e-05 0)
(18.6581 -2.18233e-05 0)
(18.6583 -2.14334e-05 0)
(18.6586 -3.78742e-05 0)
(18.6589 -3.63988e-05 0)
(18.6592 -4.8848e-05 0)
(18.6595 -4.46923e-05 0)
(18.66 -5.96497e-05 0)
(18.6605 -7.37972e-05 0)
(18.6611 -0.000106657 0)
(18.6619 -0.000126693 0)
(18.663 -0.000111337 0)
(18.6639 -6.52415e-05 0)
(18.6641 -1.86138e-05 0)
(18.6641 -1.53747e-05 0)
(18.6642 -5.74885e-05 0)
(18.6647 -7.39544e-05 0)
(18.6655 -5.35921e-05 0)
(18.6659 -3.01507e-06 0)
(18.6658 2.96459e-05 0)
(18.6655 1.03672e-05 0)
(18.6654 -5.3754e-05 0)
(18.6659 -9.31853e-05 0)
(18.6668 -9.61666e-05 0)
(18.6675 -7.50092e-05 0)
(18.668 -3.89032e-05 0)
(18.6684 -5.71861e-05 0)
(18.6688 -4.94692e-05 0)
(18.6694 -2.2892e-05 0)
(18.6693 3.63138e-05 0)
(18.6689 7.75242e-05 0)
(18.6679 8.22237e-05 0)
(18.6672 5.41955e-06 0)
(18.6673 -7.69424e-05 0)
(18.668 -0.00011246 0)
(18.6687 -7.59291e-05 0)
(18.669 -1.94e-05 0)
(18.6688 4.06197e-05 0)
(18.6684 7.10214e-05 0)
(18.6676 7.59924e-05 0)
(18.6672 2.41255e-05 0)
(20.0542 0.047558 0)
(20.1328 0.0276665 0)
(20.1755 0.0261527 0)
(20.2111 0.0242919 0)
(20.2377 0.0226629 0)
(20.2524 0.0205848 0)
(20.2476 0.0166706 0)
(20.2016 0.0154877 0)
(19.9904 0.0249043 0)
(19.5486 0.0330633 0)
(19.1154 0.0275634 0)
(18.8138 0.0163397 0)
(18.6369 0.00688035 0)
(18.5492 0.000623924 0)
(18.5199 -0.00310648 0)
(18.5284 -0.00516995 0)
(18.5613 -0.00611208 0)
(18.6088 -0.00623069 0)
(18.6624 -0.00571675 0)
(18.714 -0.00477191 0)
(18.7576 -0.00363901 0)
(18.7906 -0.00257087 0)
(18.8135 -0.00170138 0)
(18.8284 -0.0010747 0)
(18.8378 -0.000655401 0)
(18.8435 -0.000392321 0)
(18.8468 -0.000229416 0)
(18.8488 -0.000136178 0)
(18.8499 -7.54271e-05 0)
(18.8506 -4.59143e-05 0)
(18.8511 -2.51189e-05 0)
(18.8513 -1.79757e-05 0)
(18.8514 -9.09574e-06 0)
(18.8516 -1.65656e-05 0)
(18.8517 -1.34088e-05 0)
(18.8518 -2.34987e-05 0)
(18.852 -2.40706e-05 0)
(18.8522 -4.15481e-05 0)
(18.8525 -3.99754e-05 0)
(18.8527 -5.28736e-05 0)
(18.853 -4.95256e-05 0)
(18.8534 -6.55079e-05 0)
(18.8538 -8.09819e-05 0)
(18.8544 -0.000116627 0)
(18.8552 -0.000139612 0)
(18.8561 -0.00012372 0)
(18.8569 -7.28795e-05 0)
(18.8572 -2.06149e-05 0)
(18.8572 -1.61452e-05 0)
(18.8572 -6.16437e-05 0)
(18.8576 -8.19285e-05 0)
(18.8583 -6.07657e-05 0)
(18.8587 -4.96045e-06 0)
(18.8587 3.23958e-05 0)
(18.8584 1.25992e-05 0)
(18.8583 -5.67478e-05 0)
(18.8587 -0.000101872 0)
(18.8595 -0.000106662 0)
(18.8602 -8.33867e-05 0)
(18.8606 -4.42279e-05 0)
(18.861 -6.31839e-05 0)
(18.8614 -5.57003e-05 0)
(18.8619 -2.61719e-05 0)
(18.8619 3.95644e-05 0)
(18.8615 8.67876e-05 0)
(18.8605 9.33327e-05 0)
(18.8598 9.68385e-06 0)
(18.8598 -8.19374e-05 0)
(18.8604 -0.000122269 0)
(18.861 -8.36125e-05 0)
(18.8614 -2.17372e-05 0)
(18.8613 4.38072e-05 0)
(18.8609 7.79369e-05 0)
(18.8602 8.34657e-05 0)
(18.8599 2.69838e-05 0)
(20.0555 0.0460459 0)
(20.1367 0.0267537 0)
(20.1837 0.0254903 0)
(20.225 0.0237465 0)
(20.2599 0.0222522 0)
(20.2865 0.0203727 0)
(20.2984 0.0168574 0)
(20.2818 0.0171079 0)
(20.152 0.0294401 0)
(19.7897 0.0394841 0)
(19.3789 0.0332002 0)
(19.0689 0.0201383 0)
(18.8758 0.00904698 0)
(18.7725 0.00163189 0)