/*--------------------------------*- C++ -*----------------------------------*\
  =========                 |
  \\      /  F ield         | OpenFOAM: The Open Source CFD Toolbox
   \\    /   O peration     | Website:  https://openfoam.org
    \\  /    A nd           | Version:  7
     \\/     M anipulation  |
\*---------------------------------------------------------------------------*/
FoamFile
{
    version     2.0;
    format      ascii;
    class       volScalarField;
    location    "2.4";
    object      p;
}
// * * * * * * * * * * * * * * * * * * * * * * * * * * * * * * * * * * * * * //

dimensions      [0 2 -2 0 0 0 0];

internalField   nonuniform List<scalar> 
900
(
-6.60586e-09
-0.000242721
-0.000572882
-0.000871006
-0.00107554
-0.00114642
-0.00106595
-0.000829208
-0.000437456
0.000105035
0.000792024
0.0016151
0.00256268
0.00361863
0.00476086
0.00596028
0.00718094
0.00837949
0.00950812
0.0105173
0.0113598
0.0119964
0.0124007
0.0125639
0.0124991
0.0122426
0.0118554
0.0114174
0.0110425
0.0108391
0.000239866
-7.11705e-06
-0.000247279
-0.000446239
-0.000565989
-0.000576884
-0.000463687
-0.000220108
0.000155229
0.000660536
0.00129148
0.00204103
0.0028988
0.00385002
0.00487445
0.00594548
0.00703336
0.0080984
0.00910004
0.00999649
0.0107486
0.0113246
0.0117041
0.0118823
0.0118725
0.0117063
0.0114333
0.0111178
0.0108327
0.010635
0.000578841
0.00022562
-2.14549e-05
-0.000192688
-0.000280725
-0.000265924
-0.000138196
0.000106503
0.000469354
0.000949416
0.00154367
0.00224661
0.00304952
0.00393953
0.00489863
0.00590324
0.00692284
0.00792353
0.00886681
0.0097132
0.0104258
0.0109745
0.0113401
0.0115184
0.0115213
0.0113778
0.0111315
0.0108378
0.010545
0.0102672
0.000897445
0.000414859
0.000123042
-5.50744e-05
-0.000138287
-0.000116247
1.50872e-05
0.000256123
0.000606712
0.00106611
0.00163245
0.00230194
0.00306792
0.00391974
0.00484162
0.00581177
0.00680184
0.0077784
0.00870344
0.00953697
0.0102409
0.0107833
0.0111434
0.0113149
0.0113084
0.0111506
0.0108829
0.0105575
0.0102065
0.00981147
0.00112431
0.000509528
0.000161584
-3.77919e-05
-0.000129366
-0.000110562
1.70294e-05
0.000250187
0.000587319
0.00102783
0.00157105
0.00221515
0.0029558
0.00378484
0.00468866
0.00564706
0.00663473
0.00761639
0.00855305
0.00940231
0.0101224
0.0106773
0.0110418
0.0112064
0.0111793
0.0109862
0.010669
0.0102812
0.00984712
0.00932551
0.00119993
0.00045947
5.17798e-05
-0.000176851
-0.000285452
-0.000277677
-0.000159889
6.15663e-05
0.000383929
0.000806936
0.00133135
0.00195753
0.00268377
0.00350461
0.00440928
0.00538026
0.00639026
0.00740602
0.00838526
0.00928097
0.0100454
0.0106356
0.0110196
0.0111824
0.0111291
0.0108851
0.0104953
0.0100194
0.00948132
0.00882429
0.0010808
0.000223768
-0.0002435
-0.000505437
-0.000636518
-0.000645407
-0.000542374
-0.000336253
-3.05264e-05
0.000375221
0.000883491
0.00149716
0.00221758
0.0030425
0.00396404
0.00496686
0.00602528
0.0071043
0.00815826
0.00913414
0.00997578
0.0106303
0.0110557
0.0112287
0.0111498
0.010844
0.0103618
0.00977363
0.00910912
0.00830128
0.000732818
-0.000232327
-0.000757399
-0.00105437
-0.00121135
-0.00124122
-0.00115745
-0.000970783
-0.000684964
-0.000298507
0.000193212
0.000796036
0.0015149
0.00235145
0.00330158
0.0043528
0.00548127
0.00665118
0.00781314
0.00890682
0.00986519
0.0106219
0.0111208
0.0113261
0.0112304
0.0108578
0.0102657
0.00954004
0.00872111
0.00773372
0.000126629
-0.000939975
-0.00152099
-0.00185396
-0.00203962
-0.00209462
-0.00203523
-0.00187365
-0.00161354
-0.001252
-0.000781912
-0.000193963
0.000521035
0.00136958
0.00235256
0.00346192
0.00467698
0.00596273
0.00726662
0.00852046
0.00964413
0.0105537
0.0111731
0.0114478
0.0113572
0.010921
0.0102045
0.00931348
0.00830326
0.00708931
-0.00076454
-0.00192788
-0.0025636
-0.00293375
-0.00315123
-0.00323639
-0.00320811
-0.0030799
-0.00285516
-0.00252939
-0.00209268
-0.00153183
-0.000832578
1.76094e-05
0.00102639
0.00219253
0.00350116
0.00492125
0.00639905
0.00785944
0.00920774
0.0103379
0.0111465
0.0115509
0.0115077
0.0110258
0.0101766
0.00909025
0.00784119
0.00633162
-0.0019659
-0.00322291
-0.00391299
-0.00432224
-0.00457567
-0.00469757
-0.00470959
-0.00462669
-0.00445211
-0.00417985
-0.00379718
-0.00328666
-0.0026283
-0.00180211
-0.000791391
0.000412693
0.00180522
0.00336495
0.00504097
0.00675475
0.00839749
0.00983695
0.0109331
0.0115616
0.0116413
0.0111571
0.0101809
0.00887066
0.00732425
0.00542475
-0.0035014
-0.00485043
-0.00559547
-0.00604661
-0.00634134
-0.0065084
-0.00657277
-0.00655137
-0.0064478
-0.00625503
-0.00595786
-0.00553475
-0.00495949
-0.0042034
-0.00323819
-0.00204057
-0.000598871
0.00108101
0.00296144
0.00496759
0.00698064
0.00884027
0.0103597
0.011355
0.0116835
0.011284
0.0102145
0.00866116
0.00675022
0.00433841
-0.00539361
-0.00683434
-0.00763577
-0.00813229
-0.00847459
-0.00869677
-0.00882811
-0.00888847
-0.00888286
-0.00880422
-0.00863589
-0.00835296
-0.00792326
-0.00730859
-0.0064667
-0.00535477
-0.00393589
-0.00219395
-0.000136247
0.00217882
0.00463291
0.00704093
0.00916126
0.0107281
0.0115043
0.0113451
0.0102667
0.00847591
0.00613081
0.00305439
-0.00766341
-0.00919711
-0.010057
-0.0106025
-0.0109985
-0.0112861
-0.0115002
-0.0116653
-0.0117894
-0.0118671
-0.0118821
-0.0118078
-0.0116073
-0.0112332
-0.0106277
-0.00972423
-0.00845374
-0.00675747
-0.00460128
-0.0020044
0.0009359
0.0040228
0.00695825
0.00937275
0.0108913
0.0112292
0.0103104
0.00833784
0.00549922
0.00157609
-0.0103297
-0.0119601
-0.0128808
-0.0134776
-0.0139317
-0.0142928
-0.014604
-0.0148964
-0.0151834
-0.0154637
-0.0157242
-0.0159393
-0.0160701
-0.0160618
-0.0158407
-0.0153136
-0.0143705
-0.0128962
-0.0107923
-0.00800954
-0.0045926
-0.000722835
0.00325761
0.00686135
0.00952751
0.0107545
0.0102907
0.00828051
0.0049217
-5.63511e-05
-0.0134097
-0.0151445
-0.0161279
-0.0167752
-0.0172864
-0.0177232
-0.0181397
-0.0185767
-0.0190557
-0.019583
-0.0201517
-0.0207416
-0.0213158
-0.0218156
-0.0221538
-0.0222093
-0.0218253
-0.0208172
-0.0189964
-0.016213
-0.0124161
-0.00772718
-0.00249839
0.0026706
0.00699292
0.00965829
0.0101178
0.00835352
0.00451595
-0.00174117
-0.01692
-0.0187734
-0.0198204
-0.0205105
-0.021068
-0.0215708
-0.0220882
-0.0226745
-0.0233627
-0.02417
-0.0251001
-0.0261425
-0.0272676
-0.028418
-0.0294976
-0.0303595
-0.0307979
-0.0305485
-0.0293104
-0.0268064
-0.0228363
-0.0174027
-0.0108086
-0.003727
0.00281745
0.00761875
0.00967525
0.00863723
0.00448069
-0.00327522
-0.0208801
-0.0228766
-0.0239845
-0.0246981
-0.0252742
-0.0258135
-0.0264066
-0.0271252
-0.0280179
-0.0291161
-0.0304378
-0.031987
-0.0337465
-0.0356665
-0.0376479
-0.039523
-0.0410387
-0.0418483
-0.041524
-0.0396464
-0.0358119
-0.0298418
-0.0219099
-0.0126833
-0.00338428
0.00433699
0.00886375
0.00927633
0.00514152
-0.00429307
-0.025318
-0.0274977
-0.0286574
-0.0293549
-0.0298949
-0.0304116
-0.0310239
-0.0318267
-0.032887
-0.0342533
-0.0359611
-0.0380319
-0.0404655
-0.0432245
-0.0462129
-0.0492484
-0.0520371
-0.0541585
-0.0550739
-0.0541432
-0.0507983
-0.0446111
-0.0355369
-0.0241249
-0.0116902
-0.000297153
0.00770437
0.0105466
0.00701918
-0.00417819
-0.0302826
-0.032708
-0.0338966
-0.0345049
-0.0349134
-0.0353056
-0.035839
-0.036637
-0.0377876
-0.0393575
-0.0414004
-0.0439567
-0.0470448
-0.0506423
-0.0546599
-0.0589062
-0.063054
-0.0666153
-0.0689371
-0.0692258
-0.0666904
-0.060637
-0.0507398
-0.0373123
-0.0216051
-0.00596471
0.00651629
0.0129716
0.0109272
-0.00193759
-0.0358651
-0.0386285
-0.0397942
-0.0401853
-0.0403066
-0.040415
-0.0407195
-0.0413765
-0.0424954
-0.04416
-0.04644
-0.0493928
-0.053053
-0.0574121
-0.0623867
-0.0677784
-0.0732324
-0.0782037
-0.0819437
-0.0835209
-0.0819546
-0.0762852
-0.0658809
-0.0507331
-0.0318594
-0.0116676
0.00615006
0.0174963
0.0181056
0.00397139
-0.0422415
-0.0454667
-0.0464982
-0.0464525
-0.0460432
-0.0456348
-0.0455006
-0.0458319
-0.0467563
-0.0483689
-0.0507499
-0.0539673
-0.0580663
-0.0630453
-0.0688213
-0.0751854
-0.0817558
-0.087938
-0.0929089
-0.0956377
-0.0949296
-0.0896534
-0.0788794
-0.0622447
-0.0404085
-0.0155914
0.00820146
0.0256979
0.0303919
0.0158801
-0.0497562
-0.0535783
-0.0542397
-0.0533853
-0.0520769
-0.0508281
-0.0499833
-0.0497628
-0.0503016
-0.051695
-0.0540229
-0.0573537
-0.061732
-0.0671525
-0.0735213
-0.0806109
-0.0880062
-0.0950649
-0.100894
-0.104367
-0.104174
-0.0989919
-0.0876572
-0.0694798
-0.0447207
-0.0152124
0.0150818
0.0399635
0.0504389
0.0372503
-0.0590992
-0.0635699
-0.0633635
-0.0610767
-0.0583275
-0.0558106
-0.0539279
-0.0529056
-0.0528634
-0.0538772
-0.0560095
-0.0593137
-0.0638193
-0.0695019
-0.0762425
-0.0837852
-0.0916651
-0.0991888
-0.105393
-0.109063
-0.108788
-0.103092
-0.090626
-0.0704011
-0.0423258
-0.00772375
0.0297993
0.0635275
0.081986
0.0731677
-0.0717
-0.0764639
-0.0743383
-0.0695908
-0.0646329
-0.0603126
-0.0570293
-0.0549626
-0.0541751
-0.0546916
-0.0565327
-0.0597162
-0.0642379
-0.0700386
-0.0769586
-0.0846893
-0.0927173
-0.100281
-0.106344
-0.1096
-0.10853
-0.10151
-0.0870069
-0.0638177
-0.0314916
0.00922954
0.0553226
0.100191
0.130057
0.13081
-0.0906424
-0.0939684
-0.0876809
-0.0788259
-0.0706245
-0.0638785
-0.0588405
-0.0555456
-0.0539306
-0.0539218
-0.0554637
-0.0585126
-0.06301
-0.0688435
-0.0757984
-0.0835048
-0.0913849
-0.0986046
-0.104046
-0.106312
-0.103761
-0.0946028
-0.077103
-0.0497795
-0.0117814
0.0366407
0.0935738
0.153425
0.200496
0.219266
-0.122732
-0.11884
-0.10382
-0.0883393
-0.0755657
-0.0657338
-0.0586773
-0.0541158
-0.0517509
-0.0513403
-0.0527085
-0.0557216
-0.0602474
-0.0661074
-0.073023
-0.0805597
-0.088072
-0.0946565
-0.0991214
-0.0999841
-0.095466
-0.0836042
-0.0623971
-0.0299673
0.0151254
0.0735025
0.144592
0.224557
0.298181
0.350593
-0.183358
-0.153893
-0.122484
-0.0969171
-0.0779963
-0.0645731
-0.0555531
-0.050017
-0.0472616
-0.046794
-0.0482804
-0.0514808
-0.0561846
-0.0621492
-0.0690384
-0.0763627
-0.0834228
-0.0892608
-0.0926291
-0.0919827
-0.0854418
-0.0709182
-0.0460496
-0.00842006
0.0443538
0.114459
0.203729
0.311248
0.425794
0.551955
-0.315456
-0.194308
-0.134531
-0.0963352
-0.0714739
-0.0557299
-0.0462779
-0.0411365
-0.0390687
-0.0393519
-0.0415486
-0.0453633
-0.0505512
-0.0568456
-0.0638909
-0.0711813
-0.0780049
-0.0833936
-0.0860785
-0.084455
-0.0767153
-0.0606681
-0.0336753
0.00720666
0.0655219
0.145879
0.254735
0.400301
0.589037
0.878772
-0.641936
-0.230076
-0.102701
-0.0610274
-0.0394992
-0.0278869
-0.0229063
-0.0217971
-0.0229828
-0.0257943
-0.0299417
-0.0352563
-0.0415913
-0.0487575
-0.0564636
-0.0642606
-0.0714917
-0.0772504
-0.0803542
-0.0793364
-0.0723163
-0.0570327
-0.0310175
0.00883337
0.0666581
0.148961
0.268233
0.452583
0.758932
1.35297
)
;

boundaryField
{
    movingWall
    {
        type            zeroGradient;
    }
    fixedWalls
    {
        type            zeroGradient;
    }
    frontAndBack
    {
        type            empty;
    }
}


// ************************************************************************* //
