/*--------------------------------*- C++ -*----------------------------------*\
  =========                 |
  \\      /  F ield         | OpenFOAM: The Open Source CFD Toolbox
   \\    /   O peration     | Website:  https://openfoam.org
    \\  /    A nd           | Version:  7
     \\/     M anipulation  |
\*---------------------------------------------------------------------------*/
FoamFile
{
    version     2.0;
    format      ascii;
    class       volScalarField;
    location    "4.3";
    object      p;
}
// * * * * * * * * * * * * * * * * * * * * * * * * * * * * * * * * * * * * * //

dimensions      [0 2 -2 0 0 0 0];

internalField   nonuniform List<scalar> 
900
(
2.32855e-08
-0.000292811
-0.000746362
-0.00119201
-0.00155685
-0.00178746
-0.00185834
-0.00175962
-0.00148793
-0.00104244
-0.000424077
0.000363221
0.00131012
0.00239902
0.00360144
0.00487634
0.00617012
0.00741842
0.00855062
0.00949642
0.0101941
0.0105995
0.010694
0.0104902
0.0100345
0.0094053
0.00869769
0.00804828
0.0075864
0.0074323
0.000290042
-1.12261e-05
-0.000346639
-0.000664292
-0.000914374
-0.001059
-0.00107778
-0.000960569
-0.000702094
-0.000299861
0.00024622
0.000932927
0.00175198
0.00268796
0.00371628
0.00480186
0.00590062
0.00695844
0.00791715
0.00871935
0.00931533
0.00967051
0.00977191
0.00963241
0.00929188
0.00881435
0.0082807
0.0077835
0.00742068
0.00727645
0.000758237
0.000312847
-3.31872e-05
-0.000314119
-0.000519847
-0.000626768
-0.000622579
-0.000501234
-0.000258727
0.000107773
0.000599599
0.00121546
0.00194968
0.00279011
0.0037162
0.00469798
0.00569539
0.00665977
0.00753753
0.00827507
0.00882549
0.0091558
0.0092533
0.00912947
0.00882056
0.00838402
0.00789189
0.00742319
0.00705217
0.00682688
0.001238
0.000615287
0.000207834
-8.18952e-05
-0.000279789
-0.000375812
-0.000366953
-0.000253041
-3.25733e-05
0.000297192
0.000739184
0.00129494
0.00196248
0.00273395
0.00359324
0.00451434
0.00546052
0.0063851
0.00723486
0.00795493
0.00849579
0.00882101
0.0089143
0.00878396
0.00846345
0.00800735
0.0074847
0.00697104
0.00652517
0.00616265
0.00163438
0.000822285
0.000335865
1.73393e-05
-0.000191796
-0.000293594
-0.000293969
-0.00019863
-8.57299e-06
0.000279061
0.000669278
0.00116717
0.00177537
0.00249111
0.00330325
0.00418974
0.00511698
0.00603849
0.00689912
0.00763947
0.00820347
0.0085472
0.00864718
0.00850612
0.00815407
0.00764447
0.00704764
0.00644211
0.00587802
0.00534185
0.00185699
0.000859049
0.000287178
-7.18938e-05
-0.000305952
-0.00042758
-0.000450634
-0.000386016
-0.000236698
8.08185e-07
0.000334203
0.000772905
0.00132503
0.00199391
0.00277413
0.00364801
0.00458613
0.00554057
0.00645276
0.00725604
0.00788399
0.00828069
0.00841097
0.00826822
0.00787729
0.00729121
0.00658527
0.00584768
0.00512751
0.00438713
0.00183221
0.000659507
2.12073e-06
-0.000403885
-0.000672754
-0.000826362
-0.000885458
-0.000865244
-0.000769948
-0.000594802
-0.000328709
4.29311e-05
0.000534783
0.00115749
0.00191269
0.00278791
0.00376236
0.00478366
0.00578984
0.00670503
0.00744867
0.00794754
0.0081487
0.00803063
0.00760913
0.00693602
0.00609454
0.00518915
0.00427537
0.00329502
0.00149719
0.000164189
-0.000575094
-0.00103111
-0.00134244
-0.00153943
-0.00164886
-0.0016894
-0.00166588
-0.00157162
-0.00139143
-0.00110458
-0.00068858
-0.000123714
0.000602108
0.0014882
0.00250812
0.00362367
0.0047666
0.00584968
0.00677445
0.00744412
0.00777982
0.00773659
0.00731425
0.00656003
0.00556669
0.00446153
0.00331345
0.002045
0.000795681
-0.000681168
-0.00149698
-0.00200482
-0.00236589
-0.00261851
-0.00279492
-0.00291672
-0.00298888
-0.00300242
-0.0029375
-0.00276637
-0.00245716
-0.00197875
-0.00130629
-0.000428078
0.000643012
0.00187281
0.00319298
0.00450636
0.00569359
0.00662724
0.00719186
0.00730643
0.00694316
0.00613707
0.00498954
0.00365711
0.00222897
0.000607344
-0.000322731
-0.00192514
-0.00281133
-0.00337285
-0.00379182
-0.00411435
-0.00437789
-0.00460681
-0.00480617
-0.00496467
-0.0050576
-0.00504947
-0.00489747
-0.0045562
-0.00398394
-0.00315088
-0.00205049
-0.000704619
0.000824264
0.00243246
0.00397861
0.0052976
0.00622423
0.00662387
0.00642262
0.00562889
0.00434713
0.00276843
0.00100974
-0.00104954
-0.00190168
-0.00360935
-0.00455938
-0.00517702
-0.0056635
-0.00607274
-0.0064475
-0.00681519
-0.00718148
-0.00753326
-0.0078413
-0.00806207
-0.00814047
-0.00801399
-0.00761906
-0.00690048
-0.0058243
-0.00438814
-0.00263877
-0.000678474
0.00133222
0.00318543
0.00465183
0.00552024
0.00564332
0.00497808
0.00361812
0.00179118
-0.000350045
-0.00295192
-0.0039761
-0.00576675
-0.0067738
-0.00745058
-0.00801534
-0.00853005
-0.0090433
-0.00958632
-0.0101665
-0.0107702
-0.0113646
-0.0118987
-0.0123044
-0.0124995
-0.0123937
-0.0118981
-0.0109407
-0.00947983
-0.00753257
-0.00518553
-0.00260911
-5.37989e-05
0.00217418
0.00376039
0.00444664
0.0040993
0.00277327
0.000727222
-0.00184324
-0.00511259
-0.00656986
-0.00841978
-0.00947663
-0.0102154
-0.0108692
-0.0115083
-0.0121881
-0.0129451
-0.0137901
-0.014711
-0.0156734
-0.0166201
-0.0174703
-0.0181206
-0.0184493
-0.018326
-0.0176264
-0.0162604
-0.014189
-0.0114637
-0.00824697
-0.00482271
-0.00157988
0.0010377
0.00261501
0.00287092
0.00177269
-0.000411427
-0.00344099
-0.00752013
-0.00969351
-0.0115788
-0.0126776
-0.0134798
-0.0142306
-0.0150098
-0.0158809
-0.0168876
-0.0180465
-0.0193498
-0.0207644
-0.0222294
-0.0236525
-0.0249092
-0.0258437
-0.0262778
-0.0260262
-0.024925
-0.0228652
-0.019834
-0.015958
-0.0115316
-0.00701879
-0.00301004
-0.000125542
0.00113209
0.000565442
-0.00159634
-0.00508051
-0.0101237
-0.0133427
-0.0152413
-0.0163733
-0.0172365
-0.0180863
-0.0190129
-0.0200904
-0.021372
-0.0228835
-0.0246245
-0.0265666
-0.0286484
-0.0307693
-0.0327848
-0.0345047
-0.0356993
-0.0361137
-0.0354963
-0.0336496
-0.0304636
-0.0259931
-0.0205059
-0.0145131
-0.00874924
-0.0040777
-0.00130583
-0.000904071
-0.00277178
-0.00664737
-0.0128112
-0.0174982
-0.019393
-0.0205481
-0.021463
-0.0224021
-0.0234686
-0.0247499
-0.0263123
-0.028194
-0.0304056
-0.0329273
-0.035701
-0.0386212
-0.0415266
-0.0441946
-0.046344
-0.0476468
-0.0477554
-0.0463708
-0.043255
-0.0383531
-0.0318576
-0.0242761
-0.0164536
-0.0095066
-0.00462186
-0.00267523
-0.00383558
-0.00795012
-0.0153783
-0.0221275
-0.0240112
-0.0251769
-0.026123
-0.0271238
-0.0282993
-0.0297549
-0.0315742
-0.0338117
-0.0364926
-0.0396087
-0.0431087
-0.0468863
-0.050767
-0.0544999
-0.0577559
-0.0601395
-0.0612156
-0.0605373
-0.0577598
-0.0526767
-0.0453511
-0.0362188
-0.0261667
-0.016529
-0.00891076
-0.00472661
-0.00460711
-0.00868485
-0.0174861
-0.0271899
-0.0290706
-0.0302312
-0.0311709
-0.0321793
-0.0334003
-0.0349643
-0.0369777
-0.0395151
-0.0426194
-0.0462965
-0.0505043
-0.0551379
-0.0600138
-0.0648574
-0.0692983
-0.0728783
-0.0750739
-0.0753303
-0.0731589
-0.0681888
-0.0603131
-0.0498241
-0.0375555
-0.0249708
-0.0140691
-0.00690015
-0.00477616
-0.00838706
-0.0186062
-0.0326451
-0.0345546
-0.0356879
-0.0365579
-0.0374829
-0.0386432
-0.0402043
-0.0423029
-0.0450376
-0.048471
-0.0526237
-0.0574633
-0.0628869
-0.0687041
-0.0746209
-0.0802324
-0.0850275
-0.0884075
-0.0897197
-0.0883497
-0.0837569
-0.0756432
-0.0641004
-0.0498087
-0.0342309
-0.0196583
-0.00879291
-0.00382815
-0.00636833
-0.0179482
-0.038468
-0.040471
-0.0415424
-0.0422404
-0.0429407
-0.0438804
-0.0452757
-0.0473017
-0.0500853
-0.0537084
-0.0582052
-0.06355
-0.0696405
-0.0762784
-0.0831521
-0.0898275
-0.0957499
-0.100262
-0.102638
-0.102124
-0.0980589
-0.0899513
-0.0776632
-0.0616423
-0.0432112
-0.0247862
-0.00963216
-0.000944224
-0.0016346
-0.0143652
-0.0446735
-0.0468778
-0.0478258
-0.048189
-0.0484549
-0.0489503
-0.0499615
-0.051712
-0.0543585
-0.0579998
-0.0626784
-0.06837
-0.0749669
-0.0822595
-0.0899169
-0.0974776
-0.104349
-0.109825
-0.113112
-0.113373
-0.10982
-0.101796
-0.0889437
-0.0714424
-0.0503644
-0.0280604
-0.00816906
0.00511506
0.00721612
-0.00622173
-0.0513615
-0.0539223
-0.0546277
-0.0543969
-0.0539268
-0.0536802
-0.0540364
-0.0552741
-0.0575769
-0.0610534
-0.0657447
-0.071618
-0.0785513
-0.0863178
-0.0945601
-0.102789
-0.110375
-0.116564
-0.120508
-0.121299
-0.118045
-0.10995
-0.0964672
-0.0775199
-0.0538761
-0.0276587
-0.00263808
0.0161178
0.0221183
0.00879875
-0.0588064
-0.0619062
-0.0621259
-0.0608864
-0.0592552
-0.0578887
-0.0572763
-0.0577488
-0.0595051
-0.0626482
-0.0672032
-0.0731142
-0.0802319
-0.0883093
-0.0969432
-0.105617
-0.11366
-0.12027
-0.124541
-0.125496
-0.122156
-0.113594
-0.0991076
-0.0784033
-0.0519452
-0.0215315
0.00916981
0.0344211
0.0456987
0.0340006
-0.0676441
-0.071395
-0.0706238
-0.0677101
-0.0643324
-0.0613884
-0.0594704
-0.0589379
-0.0599774
-0.0626606
-0.0669751
-0.0728253
-0.0800219
-0.0882674
-0.097132
-0.106048
-0.114297
-0.121025
-0.125261
-0.125955
-0.122002
-0.112387
-0.0962503
-0.0731003
-0.0431214
-0.00774751
0.0296577
0.0629309
0.0814973
0.0741595
-0.0792893
-0.0834001
-0.0805802
-0.0749359
-0.0690287
-0.0639819
-0.0604285
-0.0586972
-0.0589116
-0.0610748
-0.0651067
-0.0708512
-0.0780631
-0.0863904
-0.0953546
-0.104335
-0.112561
-0.119114
-0.122949
-0.122916
-0.117822
-0.106483
-0.0878727
-0.0612915
-0.0266699
0.0150047
0.0608868
0.104837
0.134139
0.136014
-0.0968973
-0.0996917
-0.0925868
-0.0825703
-0.0731306
-0.0654162
-0.0599458
-0.0569058
-0.05628
-0.0579483
-0.0617303
-0.0673858
-0.074599
-0.0829556
-0.0919199
-0.100816
-0.108817
-0.11494
-0.118058
-0.116927
-0.110184
-0.0965015
-0.0746222
-0.0435589
-0.00287306
0.0469166
0.103781
0.162794
0.20887
0.228174
-0.127511
-0.123251
-0.107326
-0.09047
-0.0762447
-0.0652924
-0.057725
-0.053403
-0.0520541
-0.0533671
-0.0570206
-0.06267
-0.0699187
-0.0782872
-0.0871839
-0.0958816
-0.103501
-0.109
-0.111184
-0.108723
-0.100041
-0.0836615
-0.0580249
-0.0217178
0.0263007
0.0863905
0.157905
0.237156
0.309809
0.362374
-0.186959
-0.15733
-0.124988
-0.0978949
-0.0773818
-0.062761
-0.0531982
-0.0478998
-0.0461691
-0.0474288
-0.0511887
-0.0569933
-0.0643707
-0.0727872
-0.081609
-0.0900726
-0.0972612
-0.10209
-0.103305
-0.0994834
-0.0890576
-0.07021
-0.0410579
0.000374726
0.0561098
0.1281
0.218127
0.325404
0.439206
0.565484
-0.318649
-0.197508
-0.136883
-0.096953
-0.070389
-0.0533666
-0.0433035
-0.0383339
-0.0372208
-0.0391528
-0.0435363
-0.0498649
-0.0576416
-0.0663216
-0.0752677
-0.0837158
-0.09075
-0.0952802
-0.0960241
-0.0914583
-0.0801698
-0.0600774
-0.0290275
0.0155048
0.0767283
0.159035
0.268849
0.414568
0.603042
0.892624
-0.645685
-0.233741
-0.105354
-0.061928
-0.0385842
-0.0255354
-0.019762
-0.0186333
-0.0205884
-0.0248839
-0.0310849
-0.0388223
-0.0477057
-0.0572757
-0.0669651
-0.0760682
-0.0837204
-0.0888862
-0.0903649
-0.086807
-0.0763668
-0.0572761
-0.027367
0.0160957
0.0769082
0.161338
0.281798
0.466523
0.772754
1.36666
)
;

boundaryField
{
    movingWall
    {
        type            zeroGradient;
    }
    fixedWalls
    {
        type            zeroGradient;
    }
    frontAndBack
    {
        type            empty;
    }
}


// ************************************************************************* //
