/*--------------------------------*- C++ -*----------------------------------*\
  =========                 |
  \\      /  F ield         | OpenFOAM: The Open Source CFD Toolbox
   \\    /   O peration     | Website:  https://openfoam.org
    \\  /    A nd           | Version:  7
     \\/     M anipulation  |
\*---------------------------------------------------------------------------*/
FoamFile
{
    version     2.0;
    format      ascii;
    class       surfaceScalarField;
    location    "7.9";
    object      phi;
}
// * * * * * * * * * * * * * * * * * * * * * * * * * * * * * * * * * * * * * //

dimensions      [0 3 -1 0 0 0 0];

internalField   nonuniform List<scalar> 
1740
(
8.22596e-07
-8.23919e-07
4.83847e-07
3.38752e-07
-1.44532e-06
1.92918e-06
-4.79941e-06
3.35408e-06
-9.22961e-06
4.43021e-06
-1.43855e-05
5.15586e-06
-1.99718e-05
5.58637e-06
-2.57486e-05
5.77674e-06
-3.15087e-05
5.7601e-06
-3.70539e-05
5.54525e-06
-4.21768e-05
5.12286e-06
-4.66519e-05
4.4751e-06
-5.02384e-05
3.5865e-06
-5.26927e-05
2.45435e-06
-5.37905e-05
1.09778e-06
-5.33538e-05
-4.36688e-07
-5.12823e-05
-2.07145e-06
-4.7583e-05
-3.69931e-06
-4.23921e-05
-5.19094e-06
-3.59843e-05
-6.40783e-06
-2.87653e-05
-7.21899e-06
-2.12447e-05
-7.52057e-06
-1.39903e-05
-7.2544e-06
-7.5681e-06
-6.42221e-06
-2.47483e-06
-5.09326e-06
9.34535e-07
-3.40937e-06
2.51908e-06
-1.58454e-06
2.39924e-06
1.19839e-07
1.14201e-06
1.25724e-06
1.14202e-06
-3.2224e-07
-5.01672e-07
-3.50982e-06
3.52634e-06
-1.01414e-05
8.56076e-06
-1.98373e-05
1.305e-05
-3.19458e-05
1.65387e-05
-4.57541e-05
1.89642e-05
-6.05881e-05
2.04204e-05
-7.58367e-05
2.10254e-05
-9.09337e-05
2.08571e-05
-0.000105326
1.99379e-05
-0.000118451
1.82476e-05
-0.000129725
1.57494e-05
-0.00013856
1.2421e-05
-0.00014439
8.28483e-06
-0.000146725
3.43272e-06
-0.000145211
-1.9511e-06
-0.000139675
-7.60759e-06
-0.000130203
-1.31713e-05
-0.000117164
-1.82292e-05
-0.000101228
-2.23444e-05
-8.33368e-05
-2.51101e-05
-6.46502e-05
-2.62071e-05
-4.64441e-05
-2.54605e-05
-2.99829e-05
-2.28835e-05
-1.63725e-05
-1.87036e-05
-6.41292e-06
-1.3369e-05
-4.53255e-07
-7.5442e-06
1.8003e-06
-2.13371e-06
1.31474e-06
1.7428e-06
2.45676e-06
-2.09492e-06
1.59326e-06
-9.16676e-06
1.05982e-05
-2.10718e-05
2.04658e-05
-3.71387e-05
2.91168e-05
-5.64564e-05
3.58564e-05
-7.80566e-05
4.05644e-05
-0.000101002
4.33657e-05
-0.000124409
4.44325e-05
-0.000147432
4.388e-05
-0.000169234
4.17402e-05
-0.000188969
3.79824e-05
-0.000205779
3.2559e-05
-0.000218818
2.54601e-05
-0.0002273
1.67671e-05
-0.000230564
6.6969e-06
-0.000228143
-4.37228e-06
-0.000219846
-1.59044e-05
-0.000205824
-2.71935e-05
-0.000186612
-3.74414e-05
-0.000163143
-4.58134e-05
-0.00013672
-5.15334e-05
-0.000108936
-5.39905e-05
-8.15539e-05
-5.28429e-05
-5.63319e-05
-4.81054e-05
-3.48329e-05
-4.02025e-05
-1.8218e-05
-2.99839e-05
-7.05232e-06
-1.87099e-05
-1.16401e-06
-8.02202e-06
5.30299e-07
4.84935e-08
2.98706e-06
-4.0026e-06
5.59586e-06
-1.52196e-05
2.18152e-05
-3.26378e-05
3.7884e-05
-5.509e-05
5.15691e-05
-8.13515e-05
6.21179e-05
-0.00011022
6.94332e-05
-0.000140555
7.37001e-05
-0.00017127
7.51479e-05
-0.000201313
7.39235e-05
-0.000229636
7.00626e-05
-0.000255177
6.35232e-05
-0.000276871
5.42533e-05
-0.000293682
4.22715e-05
-0.000304658
2.77432e-05
-0.000309004
1.10429e-05
-0.000306163
-7.21344e-06
-0.000295903
-2.61647e-05
-0.000278388
-4.47079e-05
-0.000254235
-6.15946e-05
-0.000224529
-7.55196e-05
-0.000190803
-8.52592e-05
-0.000154962
-8.98317e-05
-0.000119144
-8.86607e-05
-8.55323e-05
-8.17173e-05
-5.61197e-05
-6.96152e-05
-3.24623e-05
-5.36412e-05
-1.54482e-05
-3.5724e-05
-5.11776e-06
-1.83525e-05
-5.94493e-07
-4.47477e-06
2.39257e-06
-5.85458e-06
1.14504e-05
-2.12009e-05
3.71615e-05
-4.41047e-05
6.07878e-05
-7.28204e-05
8.02847e-05
-0.000105764
9.50613e-05
-0.0001415
0.000105169
-0.000178714
0.000110914
-0.000216171
0.000112605
-0.000252671
0.000110423
-0.000287014
0.000104406
-0.000317985
9.44949e-05
-0.000344369
8.06364e-05
-0.000364979
6.28819e-05
-0.000378725
4.14892e-05
-0.000384683
1.70012e-05
-0.000382186
-9.71104e-06
-0.000370904
-3.74465e-05
-0.000350939
-6.46725e-05
-0.000322887
-8.96469e-05
-0.000287877
-0.00011053
-0.000247572
-0.000125564
-0.000204106
-0.000133297
-0.000159955
-0.000132812
-0.000117729
-0.000123943
-7.99073e-05
-0.000107437
-4.85378e-05
-8.50107e-05
-2.49567e-05
-5.93051e-05
-9.57643e-06
-3.37328e-05
-1.7913e-06
-1.22599e-05
6.01268e-07
-7.58668e-06
1.90371e-05
-2.68805e-05
5.64552e-05
-5.5055e-05
8.89624e-05
-8.97721e-05
0.000115002
-0.000129075
0.000134365
-0.000171301
0.000147394
-0.000214986
0.000154599
-0.000258786
0.000156404
-0.000301401
0.000153039
-0.000341535
0.00014454
-0.000377871
0.000130831
-0.00040908
0.000111846
-0.000433861
8.76624e-05
-0.000450989
5.86179e-05
-0.000459398
2.54095e-05
-0.00045826
-1.08487e-05
-0.000447078
-4.86285e-05
-0.000425792
-8.59584e-05
-0.000394865
-0.000120574
-0.000355357
-0.000150038
-0.00030896
-0.00017196
-0.000257978
-0.00018428
-0.000205209
-0.000185581
-0.000153738
-0.000175414
-0.000106635
-0.00015454
-6.6589e-05
-0.000125057
-3.55473e-05
-9.03468e-05
-1.44376e-05
-5.48425e-05
-3.03588e-06
-2.36616e-05
-2.43462e-06
-9.17196e-06
2.82091e-05
-3.21238e-05
7.94071e-05
-6.52116e-05
0.00012205
-0.000105537
0.000155327
-0.000150788
0.000179615
-0.000199088
0.000195695
-0.000248854
0.000204365
-0.000298664
0.000206214
-0.000347166
0.000201541
-0.000393011
0.000190385
-0.000434823
0.000172643
-0.000471201
0.000148223
-0.000500741
0.000117202
-0.00052209
7.99668e-05
-0.000534008
3.73278e-05
-0.000535461
-9.39597e-06
-0.000525694
-5.83949e-05
-0.000504383
-0.000107269
-0.000471734
-0.000153223
-0.00042861
-0.000193162
-0.000376623
-0.000223948
-0.000318163
-0.00024274
-0.000256334
-0.000247409
-0.000194756
-0.000236993
-0.000137217
-0.000212078
-8.7238e-05
-0.000175036
-4.75835e-05
-0.000130001
-1.98747e-05
-8.25513e-05
-4.37899e-06
-3.91574e-05
-6.81361e-06
-1.05865e-05
3.87955e-05
-3.68218e-05
0.000105642
-7.43443e-05
0.000159573
-0.000119758
0.000200741
-0.000170433
0.000230291
-0.000224312
0.000249574
-0.000279716
0.000259769
-0.000335184
0.000261683
-0.00038935
0.000255707
-0.000440854
0.000241888
-0.000488301
0.00022009
-0.000530248
0.00019017
-0.000565214
0.000152168
-0.000591715
0.000106468
-0.000608319
5.39311e-05
-0.000613737
-3.97797e-06
-0.000606878
-6.52533e-05
-0.000587053
-0.000127095
-0.00055408
-0.000186196
-0.00050848
-0.000238762
-0.000451639
-0.000280789
-0.000385922
-0.000308456
-0.00031468
-0.000318651
-0.000242091
-0.000309582
-0.0001728
-0.000281368
-0.000111373
-0.000236463
-6.1656e-05
-0.000179719
-2.62e-05
-0.000118007
-5.91907e-06
-5.94383e-05
-1.27327e-05
-1.17988e-05
5.05944e-05
-4.08604e-05
0.000134704
-8.22239e-05
0.000200936
-0.000132077
0.000250593
-0.000187525
0.000285739
-0.000246364
0.000308413
-0.000306855
0.000320259
-0.000367528
0.000322356
-0.000427036
0.000315215
-0.000484052
0.000298904
-0.000537199
0.000273237
-0.000585027
0.000237999
-0.000626003
0.000193145
-0.000658529
0.000138994
-0.000680978
7.63799e-05
-0.000691753
6.79742e-06
-0.00068942
-6.75864e-05
-0.000672804
-0.000143711
-0.000641218
-0.000217782
-0.000594682
-0.000285299
-0.000534174
-0.000341297
-0.000461856
-0.000380774
-0.000381194
-0.000399313
-0.00029689
-0.000393885
-0.000214538
-0.000363721
-0.00013998
-0.000311021
-7.84622e-05
-0.000241236
-3.37928e-05
-0.000162677
-7.77596e-06
-8.54551e-05
-2.05086e-05
-1.27711e-05
6.33655e-05
-4.41163e-05
0.000166049
-8.86124e-05
0.000245432
-0.000142123
0.000304104
-0.000201549
0.000345165
-0.000264579
0.000371443
-0.000329441
0.000385121
-0.000394687
0.000387602
-0.000459023
0.000379552
-0.000521187
0.000361067
-0.000579863
0.000331913
-0.000633633
0.000291769
-0.000680951
0.000240462
-0.000720134
0.000178177
-0.000749386
0.000105631
-0.000766823
2.42352e-05
-0.000770622
-6.37879e-05
-0.000759088
-0.000155245
-0.000730919
-0.000245952
-0.000685472
-0.000330746
-0.000623104
-0.000403665
-0.000545525
-0.000458354
-0.000456081
-0.000488757
-0.000359848
-0.000490118
-0.000263375
-0.000460194
-0.000173993
-0.000400403
-9.87212e-05
-0.000316508
-4.30607e-05
-0.000218337
-1.0079e-05
-0.000118437
-3.05877e-05
-1.34635e-05
7.6829e-05
-4.64659e-05
0.000199052
-9.32749e-05
0.000292241
-0.00014953
0.000360359
-0.000211984
0.00040762
-0.000278256
0.000437715
-0.000346567
0.000453432
-0.000415513
0.000456549
-0.000483881
0.00044792
-0.000550508
0.000427694
-0.000614175
0.000395581
-0.000673546
0.000351139
-0.000727111
0.000294027
-0.000773163
0.00022423
-0.000809789
0.000142257
-0.000834888
4.93335e-05
-0.000846253
-5.24224e-05
-0.000841684
-0.000159814
-0.000819202
-0.000268433
-0.000777363
-0.000372585
-0.000715669
-0.000465359
-0.000635063
-0.00053896
-0.00053842
-0.0005854
-0.000430883
-0.000597656
-0.000319815
-0.000571261
-0.000214156
-0.000506062
-0.000123102
-0.000407563
-5.44124e-05
-0.000287026
-1.29625e-05
-0.000159887
-4.35502e-05
-1.38405e-05
9.06695e-05
-4.78017e-05
0.000233013
-9.60056e-05
0.000340445
-0.000153965
0.000418319
-0.000218345
0.000472
-0.00028672
0.000506089
-0.000357322
0.000524034
-0.000428811
0.000528037
-0.000500071
0.000519181
-0.000570067
0.000497689
-0.000637719
0.000463233
-0.000701821
0.000415241
-0.000760967
0.000353174
-0.000813507
0.000276769
-0.000857505
0.000186255
-0.000890737
8.25655e-05
-0.000910716
-3.24436e-05
-0.000914799
-0.000155731
-0.000900339
-0.000282893
-0.000865005
-0.000407918
-0.000807236
-0.000523128
-0.000726856
-0.00061934
-0.000625802
-0.000686454
-0.000508792
-0.000714666
-0.000383643
-0.00069641
-0.000260849
-0.000628857
-0.000152142
-0.000516269
-6.82333e-05
-0.000370935
-1.65634e-05
-0.000211557
-6.01135e-05
-1.38791e-05
0.000104549
-4.8053e-05
0.000267187
-9.66626e-05
0.000389055
-0.000155188
0.000476844
-0.00022025
0.000537062
-0.000289403
0.000575242
-0.0003609
0.000595531
-0.000433468
0.000600604
-0.000506107
0.00059182
-0.00057793
0.000569512
-0.000648032
0.000533336
-0.000715392
0.000482601
-0.000778785
0.000416567
-0.000836713
0.000334697
-0.000887345
0.000236887
-0.000928477
0.000123697
-0.000957484
-3.43667e-06
-0.000971446
-0.000141768
-0.000967132
-0.000287208
-0.000941332
-0.000433718
-0.000891282
-0.000573178
-0.000815361
-0.000695261
-0.000714033
-0.000787782
-0.000590914
-0.000837784
-0.00045363
-0.000833694
-0.000313885
-0.000768601
-0.000186153
-0.000644001
-8.48561e-05
-0.000472232
-2.10185e-05
-0.000275394
-8.1132e-05
-1.35761e-05
0.000118125
-4.72088e-05
0.000300819
-9.52087e-05
0.000437055
-0.000153101
0.000534736
-0.000217498
0.000601459
-0.000285945
0.000643689
-0.000356719
0.000666306
-0.000428617
0.000672502
-0.00050076
0.000663963
-0.000572428
0.00064118
-0.000642925
0.000603833
-0.000711466
0.000551142
-0.000777083
0.000482184
-0.000838538
0.000396152
-0.000894243
0.000292592
-0.00094218
0.000171634
-0.000979844
3.42282e-05
-0.00100416
-0.000117456
-0.00101156
-0.000279809
-0.000998074
-0.0004472
-0.000959733
-0.000611519
-0.00089323
-0.000761763
-0.000797042
-0.000883971
-0.000672881
-0.000961945
-0.000527239
-0.000979337
-0.000372281
-0.000923559
-0.000225089
-0.000791193
-0.000104518
-0.000592803
-2.64599e-05
-0.000353452
-0.000107592
-1.29567e-05
0.000131081
-4.53424e-05
0.000333205
-9.1754e-05
0.000483466
-0.000147814
0.000590796
-0.000210147
0.000663792
-0.000276294
0.000709836
-0.000344555
0.000734567
-0.000413797
0.000741744
-0.000483267
0.000733433
-0.000552429
0.000710342
-0.000620822
0.000672225
-0.000687945
0.000618265
-0.000753157
0.000547396
-0.000815583
0.000458578
-0.000874015
0.000351025
-0.000926807
0.000224426
-0.000971757
7.91785e-05
-0.00100595
-8.32627e-05
-0.00102574
-0.000260015
-0.00102667
-0.000446271
-0.0010037
-0.000634488
-0.000951813
-0.000813655
-0.0008671
-0.000968684
-0.000748574
-0.00108047
-0.000600413
-0.0011275
-0.000434012
-0.00108996
-0.000268394
-0.000956812
-0.000127306
-0.000733891
-3.30071e-05
-0.000447751
-0.000140599
-1.20821e-05
0.000143163
-4.2635e-05
0.000363758
-8.65985e-05
0.00052743
-0.000139705
0.000643903
-0.000198594
0.00072268
-0.000260803
0.000772046
-0.000324658
0.000798422
-0.000389102
0.000806188
-0.00045352
0.00079785
-0.000517571
0.000774394
-0.000581059
0.000735713
-0.000643804
0.000681011
-0.000705552
0.000609144
-0.000765871
0.000518897
-0.00082405
0.000409203
-0.000878968
0.000279344
-0.000928943
0.000129153
-0.000971469
-4.07373e-05
-0.00100319
-0.000228293
-0.0010195
-0.000429967
-0.00101465
-0.000639338
-0.000982093
-0.000846207
-0.000915456
-0.00103532
-0.000810403
-0.00118552
-0.000667545
-0.00127036
-0.00049584
-0.00126167
-0.000314847
-0.00113781
-0.000153093
-0.000895645
-4.07574e-05
-0.000560087
-0.000181356
-1.10571e-05
0.000154221
-3.94006e-05
0.000392101
-8.02739e-05
0.000568303
-0.000129475
0.000693105
-0.000183639
0.000776844
-0.000240304
0.000828711
-0.000297838
0.000855955
-0.000355282
0.000863632
-0.00041218
0.000854748
-0.000468416
0.00083063
-0.000524079
0.000791376
-0.000579345
0.000736277
-0.000634384
0.000664183
-0.00068926
0.000573773
-0.000743832
0.000463775
-0.000797615
0.000333127
-0.000849616
0.000181155
-0.00089794
7.58626e-06
-0.000939893
-0.00018634
-0.000971107
-0.000398753
-0.000985655
-0.00062479
-0.000975946
-0.000855916
-0.000933362
-0.0010779
-0.000849969
-0.00126892
-0.000721742
-0.00139858
-0.000553262
-0.00143015
-0.000362427
-0.00132864
-0.00018147
-0.0010766
-4.97793e-05
-0.000691777
-0.000231136
-1.00408e-05
0.000164261
-3.61148e-05
0.000418175
-7.35872e-05
0.000605776
-0.000118198
0.000737715
-0.000166533
0.000825179
-0.000216148
0.000878326
-0.000265496
0.000905303
-0.000313767
0.000911903
-0.000360712
0.000901693
-0.000406476
0.000876394
-0.000451466
0.000836366
-0.000496237
0.000781048
-0.0005414
0.000709345
-0.000587535
0.000619909
-0.000635095
0.000511334
-0.000684271
0.000382303
-0.000734793
0.000231677
-0.000785812
5.86055e-05
-0.000835105
-0.000137047
-0.000879248
-0.000354609
-0.000912664
-0.000591374
-0.000927416
-0.000841165
-0.000913304
-0.00109202
-0.000859052
-0.00132317
-0.000755394
-0.00150224
-0.000600673
-0.00158487
-0.000408247
-0.00152107
-0.000211702
-0.00127315
-6.01175e-05
-0.000843361
-0.000291253
-9.2641e-06
0.000173526
-3.34578e-05
0.000442369
-6.76755e-05
0.000639994
-0.000107366
0.000777405
-0.000149006
0.00086682
-0.000190211
0.000919531
-0.000229606
0.000944698
-0.000266624
0.000948921
-0.000301302
0.00093637
-0.000334106
0.000909199
-0.000365799
0.000868058
-0.000397331
0.00081258
-0.000429758
0.000741772
-0.00046416
0.000654311
-0.000501561
0.000548735
-0.000542808
0.00042355
-0.000588404
0.000277273
-0.000638291
0.000108493
-0.000691364
-8.39736e-05
-0.00074516
-0.000300813
-0.000795067
-0.000541467
-0.000833637
-0.000802595
-0.000850088
-0.00107557
-0.000830661
-0.0013426
-0.000760964
-0.00157194
-0.000631735
-0.00171409
-0.000448598
-0.0017042
-0.000242703
-0.00147904
-7.18209e-05
-0.00101424
-0.000363074
-9.06505e-06
0.000182591
-3.23877e-05
0.000465692
-6.40851e-05
0.000671691
-9.89482e-05
0.000812268
-0.00013328
0.000901152
-0.000164851
0.000951103
-0.000192616
0.000972463
-0.000216402
0.000972707
-0.000236653
0.000956621
-0.000254237
0.000926783
-0.000270316
0.000884138
-0.000286248
0.000828512
-0.000303515
0.000759038
-0.000323653
0.00067445
-0.000348191
0.000573273
-0.000378557
0.000453917
-0.000415928
0.000314643
-0.000461035
0.0001536
-0.000513836
-3.11719e-05
-0.000573069
-0.000241581
-0.000635508
-0.000479028
-0.000695004
-0.000743098
-0.000741393
-0.00102918
-0.000759822
-0.00132417
-0.000731752
-0.00160001
-0.000639851
-0.001806
-0.000479054
-0.001865
-0.000273034
-0.00168506
-8.50043e-05
-0.00120227
-0.000448078
-9.96199e-06
0.000192553
-3.42715e-05
0.000490001
-6.48916e-05
0.000702311
-9.54441e-05
0.000842821
-0.000122035
0.000927743
-0.000142795
0.000971862
-0.000157258
0.000986927
-0.00016587
0.000981319
-0.000169643
0.000960393
-0.000169947
0.000927088
-0.000168393
0.000882583
-0.000166743
0.000826862
-0.000166868
0.000759163
-0.000170692
0.000678274
-0.00018014
0.000582722
-0.000197139
0.000470915
-0.000223391
0.000340895
-0.000260297
0.000190506
-0.000308766
1.72966e-05
-0.000368767
-0.00018158
-0.000438718
-0.000409077
-0.000514406
-0.00066741
-0.000587481
-0.000956101
-0.000643733
-0.00126792
-0.000662301
-0.00158144
-0.000618524
-0.00184977
-0.000494577
-0.00198895
-0.000300865
-0.00187877
-9.99413e-05
-0.0014032
-0.00054802
-1.27973e-05
0.00020535
-4.11066e-05
0.000518311
-7.28624e-05
0.000734067
-9.99063e-05
0.000869865
-0.00011828
0.000946117
-0.000126857
0.00098044
-0.000126146
0.000986215
-0.000117507
0.000972681
-0.000102719
0.000945605
-8.37591e-05
0.000908127
-6.27267e-05
0.000861551
-4.17683e-05
0.000805904
-2.30952e-05
0.00074049
-8.95434e-06
0.000664133
-1.59566e-06
0.000575363
-3.09071e-06
0.00047241
-1.5603e-05
0.000353408
-4.11718e-05
0.000216075
-8.14569e-05
5.75816e-05
-0.000137565
-0.000125471
-0.000209573
-0.000337069
-0.000295578
-0.000581405
-0.000390013
-0.000861666
-0.000481121
-0.00117681
-0.0005482
-0.00151436
-0.000561343
-0.00183663
-0.00048939
-0.0020609
-0.000323773
-0.00204439
-0.000117139
-0.00160983
-0.000665159
-1.90092e-05
0.000224359
-5.58538e-05
0.000555155
-9.15897e-05
0.000769803
-0.00011577
0.000894045
-0.000124882
0.000955228
-0.000119235
0.000974792
-0.000100869
0.00096785
-7.24378e-05
0.000944249
-3.66962e-05
0.000909863
3.67263e-06
0.000867758
4.61242e-05
0.000819099
8.81341e-05
0.000763894
0.000127253
0.000701371
0.000161056
0.000630331
0.00018713
0.000549288
0.000203021
0.000456519
0.000206356
0.000350073
0.000194812
0.00022762
0.000166105
8.62884e-05
0.000118141
-7.75074e-05
4.93119e-05
-0.00026824
-4.08394e-05
-0.000491253
-0.00015013
-0.000752376
-0.000270846
-0.00105609
-0.000385147
-0.00140006
-0.000461364
-0.00176041
-0.000456415
-0.00206585
-0.000338187
-0.00216262
-0.000137247
-0.00181077
-0.000802406
-3.11108e-05
0.00025547
-8.2805e-05
0.000606849
-0.000125282
0.000812279
-0.000145978
0.000914742
-0.000143119
0.000952369
-0.000119605
0.000951278
-7.97657e-05
0.00092801
-2.79561e-05
0.00089244
3.19164e-05
0.000849991
9.64464e-05
0.000803228
0.000162605
0.000752941
0.000227649
0.00069885
0.00028898
0.00064004
0.000344079
0.000575231
0.000390453
0.000502915
0.000425587
0.000421385
0.000446934
0.000328725
0.000451873
0.000222681
0.000437654
0.000100507
0.000401387
-4.12406e-05
0.000340179
-0.000207032
0.000251404
-0.000402478
0.000133861
-0.000634832
-9.60791e-06
-0.000912623
-0.0001673
-0.00124237
-0.000309784
-0.00161793
-0.000385971
-0.00198966
-0.000338073
-0.00221052
-0.000160439
-0.00198841
-0.000962845
-5.34288e-05
0.000308899
-0.00012755
0.00068097
-0.000177168
0.000861897
-0.000189917
0.000927491
-0.000168511
0.000930964
-0.000120203
0.00090297
-5.25122e-05
0.00086032
2.81465e-05
0.000811781
0.000116655
0.000761482
0.000208954
0.00071093
0.000301724
0.000660171
0.000392119
0.000608455
0.000477554
0.000554605
0.000555564
0.000497221
0.000623708
0.000434771
0.000679486
0.000365607
0.000720282
0.000287929
0.000743281
0.000199682
0.000745371
9.8417e-05
0.000723007
-1.8877e-05
0.000672328
-0.000156352
0.000588924
-0.000319075
0.000468536
-0.000514444
0.000308793
-0.00075288
0.000114361
-0.00104793
-9.34387e-05
-0.00141013
-0.000263288
-0.00181981
-0.000312202
-0.0021616
-0.00018459
-0.00211602
-0.00114743
-9.28211e-05
0.00040172
-0.000194762
0.000782911
-0.000243308
0.000910444
-0.000234236
0.000918419
-0.000179831
0.000876559
-9.3977e-05
0.000817116
1.18885e-05
0.000754454
0.000129308
0.000694362
0.000252254
0.000638536
0.0003764
0.000586784
0.000498495
0.000538076
0.000615911
0.000491038
0.000726338
0.000444178
0.000827581
0.000395979
0.000917419
0.000344933
0.000993504
0.000289522
0.00105327
0.00022816
0.00109384
0.000159114
0.00111187
8.03923e-05
0.0011033
-1.03065e-05
0.00106368
-0.000116738
0.000987284
-0.000242677
0.000867582
-0.000394742
0.000697833
-0.000583131
0.000474314
-0.000824417
0.000206389
-0.0011422
-6.2567e-05
-0.00155086
-0.000239046
-0.00198512
-0.000202116
-0.00215295
-0.00134955
-0.000157442
0.000559161
-0.000276536
0.000902005
-0.000292216
0.000926124
-0.000228106
0.000854309
-0.000113445
0.000761897
2.9862e-05
0.000673809
0.000187258
0.000597058
0.000349574
0.000532046
0.000511157
0.000476953
0.000668462
0.000429478
0.000819107
0.000387432
0.00096128
0.000348865
0.00109339
0.000312068
0.00121384
0.000275532
0.00132088
0.000237891
0.00141253
0.000197873
0.00148646
0.00015423
0.00153991
0.000105662
0.00156953
5.07714e-05
0.00157114
-1.19124e-05
0.00153991
-8.55082e-05
0.00146944
-0.000172215
0.00135187
-0.00027717
0.00117739
-0.000408648
0.00093505
-0.000582079
0.00061897
-0.000826123
0.000250631
-0.00118252
-7.73197e-05
-0.00165717
-0.000193467
-0.0020368
-0.00154302
-0.00024378
0.000802941
-0.00030323
0.000961454
-0.000204481
0.000827375
-2.53082e-05
0.000675136
0.000185505
0.000551084
0.000404067
0.000455247
0.000618616
0.000382509
0.000823588
0.000327075
0.00101664
0.000283903
0.00119693
0.000249187
0.00136419
0.000220168
0.00151825
0.000194813
0.00165874
0.00017157
0.00178506
0.000149218
0.0018962
0.000126752
0.00199076
0.000103308
0.00206689
7.80966e-05
0.0021222
5.03567e-05
0.00215364
1.9335e-05
0.00215773
-1.6004e-05
0.00212923
-5.70088e-05
0.00206214
-0.000105126
0.00194829
-0.000163321
0.00177647
-0.000236833
0.00153092
-0.000336522
0.00119129
-0.000486496
0.000746568
-0.000737796
0.000253839
-0.00116444
-8.09912e-05
-0.00170197
-0.00162401
-0.000194262
0.000997203
1.83415e-05
0.000748851
0.000373102
0.000472615
0.000714122
0.000334116
0.00101997
0.000245239
0.00129039
0.000184827
0.00152875
0.000144142
0.00173944
0.000116387
0.00192665
9.66925e-05
0.00209383
8.20102e-05
0.00224353
7.04662e-05
0.00237749
6.08505e-05
0.00249672
5.23401e-05
0.00260159
4.43496e-05
0.0026919
3.64417e-05
0.00276694
2.82703e-05
0.00282549
1.95432e-05
0.00286581
1.00363e-05
0.00288527
-1.23648e-07
0.00288209
-1.28241e-05
0.00285131
-2.62258e-05
0.00278839
-4.22041e-05
0.00268649
-6.14188e-05
0.0025354
-8.57483e-05
0.00231841
-0.000119533
0.00200617
-0.000174257
0.00155154
-0.000283159
0.000927352
-0.000540259
0.00026381
-0.00103843
-0.0013602
0.000997203
0.00174605
0.00221867
0.00255279
0.00279802
0.00298285
0.00312699
0.00324338
0.00334007
0.00342208
0.00349255
0.0035534
0.00360574
0.00365009
0.00368653
0.0037148
0.00373434
0.00374438
0.00374426
0.00373143
0.00370521
0.003663
0.00360158
0.00351584
0.0033963
0.00322205
0.00293889
0.00239863
0.0013602
)
;

boundaryField
{
    movingWall
    {
        type            calculated;
        value           uniform 0;
    }
    fixedWalls
    {
        type            calculated;
        value           uniform 0;
    }
    frontAndBack
    {
        type            empty;
        value           nonuniform 0();
    }
}


// ************************************************************************* //
