/*--------------------------------*- C++ -*----------------------------------*\
  =========                 |
  \\      /  F ield         | OpenFOAM: The Open Source CFD Toolbox
   \\    /   O peration     | Website:  https://openfoam.org
    \\  /    A nd           | Version:  7
     \\/     M anipulation  |
\*---------------------------------------------------------------------------*/
FoamFile
{
    version     2.0;
    format      ascii;
    class       volVectorField;
    location    "1.1";
    object      U;
}
// * * * * * * * * * * * * * * * * * * * * * * * * * * * * * * * * * * * * * //

dimensions      [0 1 -1 0 0 0 0];

internalField   nonuniform List<vector> 
900
(
(6.94719e-05 -6.88645e-05 0)
(2.63529e-05 2.45324e-05 0)
(-0.000343957 0.000134339 0)
(-0.000961188 0.000211861 0)
(-0.00174205 0.000256063 0)
(-0.00261162 0.000274787 0)
(-0.00351031 0.000276228 0)
(-0.0043956 0.000266652 0)
(-0.0052382 0.000250042 0)
(-0.0060174 0.000228563 0)
(-0.00671737 0.000203168 0)
(-0.00732468 0.000174113 0)
(-0.00782691 0.000141327 0)
(-0.00821198 0.000104664 0)
(-0.00846811 6.40659e-05 0)
(-0.00858414 1.96659e-05 0)
(-0.00855015 -2.81334e-05 0)
(-0.00835831 -7.85915e-05 0)
(-0.00800395 -0.000130541 0)
(-0.0074869 -0.000182314 0)
(-0.00681304 -0.000231645 0)
(-0.00599615 -0.000275556 0)
(-0.00505997 -0.00031025 0)
(-0.0040404 -0.000330994 0)
(-0.00298768 -0.000332028 0)
(-0.00196815 -0.000306661 0)
(-0.00106368 -0.000248116 0)
(-0.000364806 -0.000152077 0)
(3.93774e-05 -2.52316e-05 0)
(7.85031e-05 7.69106e-05 0)
(-2.21383e-05 -2.80734e-05 0)
(-0.000458395 0.000458324 0)
(-0.00157646 0.000962301 0)
(-0.00319252 0.00133686 0)
(-0.00515031 0.00156775 0)
(-0.00730492 0.00167616 0)
(-0.00952952 0.00169124 0)
(-0.0117248 0.00163918 0)
(-0.0138168 0.00153925 0)
(-0.01575 0.00140381 0)
(-0.0174808 0.00123986 0)
(-0.0189733 0.00105093 0)
(-0.0201955 0.000838611 0)
(-0.0211181 0.000603825 0)
(-0.0217138 0.000347701 0)
(-0.0219581 7.22009e-05 0)
(-0.0218304 -0.000219408 0)
(-0.0213159 -0.00052202 0)
(-0.0204077 -0.000828358 0)
(-0.0191102 -0.00112848 0)
(-0.0174418 -0.00140932 0)
(-0.0154398 -0.00165424 0)
(-0.0131636 -0.0018428 0)
(-0.0106995 -0.00195085 0)
(-0.00816328 -0.00195133 0)
(-0.00570091 -0.0018167 0)
(-0.00348276 -0.00152472 0)
(-0.00168448 -0.00106992 0)
(-0.000472387 -0.000489705 0)
(-1.65245e-05 4.16401e-05 0)
(-0.000134924 0.000341968 0)
(-0.000988459 0.00158191 0)
(-0.00280885 0.00274691 0)
(-0.00527611 0.00362161 0)
(-0.00817709 0.00417479 0)
(-0.011328 0.00444139 0)
(-0.0145628 0.00447827 0)
(-0.0177467 0.00434133 0)
(-0.0207757 0.00407497 0)
(-0.0235694 0.00371002 0)
(-0.0260642 0.00326571 0)
(-0.0282069 0.00275316 0)
(-0.0299517 0.00217868 0)
(-0.0312568 0.00154668 0)
(-0.0320849 0.000861753 0)
(-0.0324032 0.000130342 0)
(-0.0321847 -0.000638002 0)
(-0.0314112 -0.00142939 0)
(-0.0300761 -0.00222459 0)
(-0.0281882 -0.00299785 0)
(-0.0257765 -0.00371587 0)
(-0.0228953 -0.00433697 0)
(-0.0196293 -0.00481095 0)
(-0.0160986 -0.00508019 0)
(-0.0124608 -0.00508302 0)
(-0.00891087 -0.00476115 0)
(-0.00567059 -0.00407387 0)
(-0.00296332 -0.00302145 0)
(-0.00101515 -0.00168518 0)
(-0.000130236 -0.000336953 0)
(-0.000223424 0.000983351 0)
(-0.00143356 0.00326375 0)
(-0.00386633 0.00525126 0)
(-0.00705663 0.00672229 0)
(-0.0107328 0.00765004 0)
(-0.0146803 0.00809249 0)
(-0.0187066 0.00813932 0)
(-0.0226545 0.0078801 0)
(-0.0264007 0.00738813 0)
(-0.0298491 0.00671617 0)
(-0.0329223 0.00589869 0)
(-0.0355558 0.0049568 0)
(-0.0376937 0.00390355 0)
(-0.039286 0.00274851 0)
(-0.040288 0.00150139 0)
(-0.0406608 0.000174824 0)
(-0.0403729 -0.00121327 0)
(-0.0394032 -0.00263768 0)
(-0.0377445 -0.00406388 0)
(-0.0354084 -0.00544612 0)
(-0.0324303 -0.00672572 0)
(-0.0288762 -0.00782995 0)
(-0.024848 -0.00867229 0)
(-0.0204888 -0.00915513 0)
(-0.0159853 -0.00917649 0)
(-0.0115666 -0.00864304 0)
(-0.00749206 -0.00749225 0)
(-0.0040242 -0.00572474 0)
(-0.00145016 -0.00345052 0)
(-0.000213275 -0.000985472 0)
(-0.000286932 0.00183814 0)
(-0.00178398 0.0054091 0)
(-0.00473134 0.00835404 0)
(-0.00853129 0.0104882 0)
(-0.0128545 0.0118162 0)
(-0.0174571 0.0124335 0)
(-0.0221252 0.0124697 0)
(-0.0266855 0.012052 0)
(-0.0310028 0.0112852 0)
(-0.034971 0.0102459 0)
(-0.0385042 0.00898537 0)
(-0.0415305 0.00753591 0)
(-0.0439872 0.00591838 0)
(-0.0458181 0.00414839 0)
(-0.0469727 0.00224155 0)
(-0.0474067 0.000217573 0)
(-0.0470834 -0.00189621 0)
(-0.0459776 -0.00406173 0)
(-0.0440793 -0.00622708 0)
(-0.0413992 -0.00832363 0)
(-0.0379754 -0.0102636 0)
(-0.0338806 -0.0119386 0)
(-0.0292285 -0.0132209 0)
(-0.0241802 -0.0139675 0)
(-0.0189465 -0.0140312 0)
(-0.0137867 -0.0132788 0)
(-0.00899601 -0.01162 0)
(-0.00487742 -0.00904596 0)
(-0.00177907 -0.00567591 0)
(-0.000267417 -0.0018346 0)
(-0.000332625 0.00285756 0)
(-0.00206043 0.00793801 0)
(-0.00544065 0.0119673 0)
(-0.0097622 0.0148269 0)
(-0.0146416 0.0165763 0)
(-0.0198056 0.0173632 0)
(-0.0250208 0.0173668 0)
(-0.030101 0.0167571 0)
(-0.0349027 0.0156734 0)
(-0.0393135 0.0142176 0)
(-0.0432426 0.0124587 0)
(-0.0466135 0.0104409 0)
(-0.0493589 0.00819277 0)
(-0.0514174 0.0057361 0)
(-0.0527329 0.00309228 0)
(-0.0532549 0.000288033 0)
(-0.0529402 -0.00263975 0)
(-0.0517565 -0.00563952 0)
(-0.0496874 -0.00864064 0)
(-0.0467389 -0.0115493 0)
(-0.042947 -0.0142449 0)
(-0.0383869 -0.0165789 0)
(-0.0331814 -0.0183759 0)
(-0.0275075 -0.0194414 0)
(-0.0216006 -0.0195759 0)
(-0.0157531 -0.0185993 0)
(-0.0103007 -0.0163862 0)
(-0.00559247 -0.0129086 0)
(-0.00203663 -0.00828298 0)
(-0.000302913 -0.0028324 0)
(-0.000368052 0.00400702 0)
(-0.00229066 0.0107885 0)
(-0.00604946 0.0160212 0)
(-0.0108363 0.0196679 0)
(-0.0162175 0.0218602 0)
(-0.0218907 0.0228128 0)
(-0.0276032 0.0227643 0)
(-0.0331574 0.0219338 0)
(-0.0384033 0.0204982 0)
(-0.0432248 0.0185869 0)
(-0.0475284 0.016287 0)
(-0.0512346 0.0136543 0)
(-0.0542727 0.0107248 0)
(-0.0565769 0.00752555 0)
(-0.058085 0.00408255 0)
(-0.0587387 0.000428487 0)
(-0.0584855 -0.00339102 0)
(-0.0572826 -0.00731124 0)
(-0.0551028 -0.0112422 0)
(-0.0519419 -0.0150626 0)
(-0.0478292 -0.0186156 0)
(-0.0428381 -0.021706 0)
(-0.0370978 -0.0241037 0)
(-0.030802 -0.025553 0)
(-0.0242144 -0.0257923 0)
(-0.0176675 -0.0245856 0)
(-0.0115466 -0.0217639 0)
(-0.0062548 -0.0172742 0)
(-0.00226249 -0.0112264 0)
(-0.000329447 -0.00394838 0)
(-0.000399326 0.00526824 0)
(-0.00250076 0.0139253 0)
(-0.00661366 0.0204762 0)
(-0.0118421 0.0249725 0)
(-0.0177046 0.0276322 0)
(-0.0238698 0.02875 0)
(-0.0300658 0.0286336 0)
(-0.0360841 0.0275582 0)
(-0.0417695 0.0257426 0)
(-0.0470037 0.0233451 0)
(-0.0516917 0.0204715 0)
(-0.055753 0.0171887 0)
(-0.0591141 0.013539 0)
(-0.0617047 0.00955274 0)
(-0.0634558 0.00525873 0)
(-0.0642997 0.00069339 0)
(-0.0641714 -0.00409096 0)
(-0.0630132 -0.00901782 0)
(-0.0607813 -0.0139779 0)
(-0.0574554 -0.0188208 0)
(-0.0530514 -0.0233485 0)
(-0.0476359 -0.0273123 0)
(-0.0413418 -0.0304162 0)
(-0.0343805 -0.0323308 0)
(-0.0270494 -0.0327192 0)
(-0.0197314 -0.0312766 0)
(-0.0128745 -0.0277821 0)
(-0.00694841 -0.0221545 0)
(-0.00249229 -0.0145017 0)
(-0.000354272 -0.00517381 0)
(-0.000430843 0.00663655 0)
(-0.00271193 0.0173392 0)
(-0.00718154 0.0253233 0)
(-0.0128573 0.0307347 0)
(-0.01921 0.0338896 0)
(-0.0258789 0.0351751 0)
(-0.0325726 0.0349786 0)
(-0.0390719 0.0336383 0)
(-0.0452175 0.0314195 0)
(-0.05089 0.0285116 0)
(-0.055995 0.0250396 0)
(-0.0604517 0.0210805 0)
(-0.0641849 0.016681 0)
(-0.0671204 0.0118725 0)
(-0.0691816 0.00668334 0)
(-0.0702893 0.00115027 0)
(-0.0703628 -0.00467108 0)
(-0.0693245 -0.0106951 0)
(-0.0671073 -0.0167946 0)
(-0.0636668 -0.0227886 0)
(-0.0589971 -0.0284332 0)
(-0.0531506 -0.0334165 0)
(-0.0462587 -0.0373629 0)
(-0.0385506 -0.0398516 0)
(-0.0303641 -0.0404512 0)
(-0.0221454 -0.0387716 0)
(-0.0144233 -0.0345295 0)
(-0.00775266 -0.0276148 0)
(-0.00275659 -0.0181448 0)
(-0.000382359 -0.00651788 0)
(-0.000465623 0.00811748 0)
(-0.00294039 0.0210426 0)
(-0.0077918 0.0305796 0)
(-0.0139453 0.0369751 0)
(-0.0208212 0.0406557 0)
(-0.0280278 0.0421135 0)
(-0.0352537 0.0418263 0)
(-0.0422696 0.0402038 0)
(-0.048913 0.0375624 0)
(-0.0550653 0.0341251 0)
(-0.0606341 0.0300364 0)
(-0.0655403 0.0253827 0)
(-0.0697086 0.0202127 0)
(-0.0730614 0.0145553 0)
(-0.0755147 0.00843443 0)
(-0.0769764 0.00188221 0)
(-0.0773469 -0.00504757 0)
(-0.0765231 -0.012265 0)
(-0.0744069 -0.0196277 0)
(-0.0709195 -0.0269245 0)
(-0.0660217 -0.0338607 0)
(-0.0597399 -0.0400499 0)
(-0.0521954 -0.0450192 0)
(-0.0436317 -0.048232 0)
(-0.0344327 -0.0491357 0)
(-0.0251241 -0.0472308 0)
(-0.0163402 -0.042157 0)
(-0.00874911 -0.0337756 0)
(-0.00308424 -0.0222306 0)
(-0.000417377 -0.00800461 0)
(-0.000505773 0.00972407 0)
(-0.00319849 0.0250643 0)
(-0.00847493 0.0362832 0)
(-0.0151565 0.0437363 0)
(-0.0226073 0.0479743 0)
(-0.0304022 0.0496085 0)
(-0.0382088 0.0492198 0)
(-0.0457884 0.0472981 0)
(-0.0529769 0.0442167 0)
(-0.0596585 0.0402351 0)
(-0.0657456 0.0355178 0)
(-0.0711632 0.0301592 0)
(-0.0758383 0.0242075 0)
(-0.0796921 0.0176852 0)
(-0.082634 0.0106062 0)
(-0.0845588 0.00299156 0)
(-0.0853453 -0.00511416 0)
(-0.0848597 -0.0136242 0)
(-0.0829638 -0.0223872 0)
(-0.0795317 -0.031164 0)
(-0.0744748 -0.0396057 0)
(-0.0677758 -0.0472397 0)
(-0.0595302 -0.0534728 0)
(-0.0499864 -0.0576211 0)
(-0.0395768 -0.0589721 0)
(-0.0289243 -0.0568809 0)
(-0.0188025 -0.0508864 0)
(-0.0100351 -0.0408202 0)
(-0.00350842 -0.0268773 0)
(-0.000462966 -0.00967263 0)
(-0.000552913 0.011475 0)
(-0.00349626 0.0294468 0)
(-0.00925601 0.0424891 0)
(-0.016532 0.0510775 0)
(-0.0246237 0.0559037 0)
(-0.0330689 0.0577158 0)
(-0.0415131 0.0572117 0)
(-0.0497088 0.054972 0)
(-0.0574927 0.0514337 0)
(-0.0647551 0.0468959 0)
(-0.0714162 0.0415442 0)
(-0.0774093 0.0354796 0)
(-0.0826673 0.028747 0)
(-0.0871135 0.021358 0)
(-0.090654 0.0133099 0)
(-0.0931714 0.00460409 0)
(-0.0945224 -0.00473414 0)
(-0.0945376 -0.0146324 0)
(-0.0930294 -0.0249407 0)
(-0.0898095 -0.035399 0)
(-0.0847182 -0.0456046 0)
(-0.0776691 -0.0549872 0)
(-0.0687047 -0.0628077 0)
(-0.0580582 -0.0681918 0)
(-0.0462047 -0.0702133 0)
(-0.0338827 -0.0680261 0)
(-0.0220485 -0.0610281 0)
(-0.0117434 -0.0490131 0)
(-0.00407479 -0.0322583 0)
(-0.000524233 -0.011579 0)
(-0.000608557 0.013394 0)
(-0.00384305 0.0342442 0)
(-0.0101582 0.0492665 0)
(-0.0181088 0.0590714 0)
(-0.0269188 0.0645135 0)
(-0.0360834 0.0664983 0)
(-0.045225 0.0658583 0)
(-0.054089 0.0632773 0)
(-0.0625157 0.0592636 0)
(-0.0704054 0.0541602 0)
(-0.0776913 0.0481746 0)
(-0.0843196 0.041414 0)
(-0.0902348 0.0339169 0)
(-0.0953681 0.0256789 0)
(-0.099627 0.0166733 0)
(-0.102887 0.0068718 0)
(-0.104983 -0.00373319 0)
(-0.105709 -0.0150996 0)
(-0.104819 -0.0270953 0)
(-0.102045 -0.0394543 0)
(-0.0971294 -0.0517269 0)
(-0.0898799 -0.0632391 0)
(-0.0802447 -0.0730777 0)
(-0.0684033 -0.0801253 0)
(-0.0548527 -0.0831651 0)
(-0.0404585 -0.0810635 0)
(-0.026414 -0.0730079 0)
(-0.0140669 -0.0587298 0)
(-0.00485211 -0.038626 0)
(-0.000609664 -0.0138079 0)
(-0.000674493 0.0155095 0)
(-0.00424933 0.0395222 0)
(-0.0112063 0.0566978 0)
(-0.0199254 0.0678024 0)
(-0.0295398 0.0738806 0)
(-0.0394967 0.0760221 0)
(-0.049394 0.075215 0)
(-0.0589721 0.0722613 0)
(-0.0680792 0.0677498 0)
(-0.076631 0.0620721 0)
(-0.0845793 0.0554599 0)
(-0.0918901 0.0480258 0)
(-0.0985267 0.0397997 0)
(-0.104436 0.0307564 0)
(-0.109535 0.0208372 0)
(-0.1137 0.00997192 0)
(-0.116753 -0.00189662 0)
(-0.11845 -0.0147759 0)
(-0.118481 -0.0285792 0)
(-0.116483 -0.0430597 0)
(-0.11207 -0.0577404 0)
(-0.104894 -0.0718472 0)
(-0.0947499 -0.084269 0)
(-0.0816976 -0.0935824 0)
(-0.0662087 -0.0981759 0)
(-0.0492704 -0.0964973 0)
(-0.0323711 -0.0874025 0)
(-0.017287 -0.0705016 0)
(-0.00594501 -0.0463481 0)
(-0.000733553 -0.0164858 0)
(-0.000753205 0.0178564 0)
(-0.00472866 0.0453598 0)
(-0.0124311 0.0648801 0)
(-0.0220268 0.0773655 0)
(-0.0325397 0.084087 0)
(-0.0433618 0.086352 0)
(-0.0540661 0.0853304 0)
(-0.0643912 0.08196 0)
(-0.0741988 0.076921 0)
(-0.0834264 0.0706595 0)
(-0.0920516 0.0634336 0)
(-0.100068 0.0553622 0)
(-0.107467 0.0464649 0)
(-0.114221 0.0366917 0)
(-0.120269 0.0259449 0)
(-0.125501 0.0140996 0)
(-0.129734 0.00103031 0)
(-0.1327 -0.0133489 0)
(-0.134026 -0.0290304 0)
(-0.133241 -0.0458272 0)
(-0.129796 -0.0632738 0)
(-0.123136 -0.080519 0)
(-0.112816 -0.0962438 0)
(-0.0986812 -0.108653 0)
(-0.0810878 -0.115607 0)
(-0.0611013 -0.11494 0)
(-0.0405521 -0.104974 0)
(-0.0217995 -0.0850702 0)
(-0.00750795 -0.0559591 0)
(-0.000918963 -0.019804 0)
(-0.000848427 0.0204777 0)
(-0.00530003 0.0518533 0)
(-0.013874 0.0739276 0)
(-0.0244712 0.0878672 0)
(-0.0359831 0.0952176 0)
(-0.0477391 0.0975469 0)
(-0.0592876 0.0962395 0)
(-0.0703707 0.09239 0)
(-0.0808709 0.0867819 0)
(-0.0907547 0.0799221 0)
(-0.100034 0.0720989 0)
(-0.108738 0.0634387 0)
(-0.116896 0.053951 0)
(-0.12452 0.0435592 0)
(-0.131586 0.0321205 0)
(-0.138012 0.0194444 0)
(-0.143634 0.00531653 0)
(-0.148172 -0.0104616 0)
(-0.151207 -0.0280048 0)
(-0.152155 -0.0472442 0)
(-0.150286 -0.0677899 0)
(-0.144774 -0.0887682 0)
(-0.134843 -0.10867 0)
(-0.119989 -0.125276 0)
(-0.100306 -0.13576 0)
(-0.0768305 -0.137076 0)
(-0.051734 -0.126686 0)
(-0.028127 -0.103444 0)
(-0.00975745 -0.0682218 0)
(-0.00120114 -0.0240486 0)
(-0.000965984 0.0234289 0)
(-0.00599126 0.0591229 0)
(-0.0155925 0.0839763 0)
(-0.027336 0.0994257 0)
(-0.0399515 0.107356 0)
(-0.0526985 0.109653 0)
(-0.0651041 0.107955 0)
(-0.0769217 0.103537 0)
(-0.0880633 0.0972995 0)
(-0.0985336 0.0898168 0)
(-0.108386 0.0814107 0)
(-0.117696 0.072218 0)
(-0.12654 0.0622403 0)
(-0.134981 0.0513749 0)
(-0.143049 0.0394319 0)
(-0.150714 0.0261464 0)
(-0.157852 0.0111963 0)
(-0.164205 -0.00576164 0)
(-0.169329 -0.0250197 0)
(-0.172551 -0.0467029 0)
(-0.172952 -0.0705905 0)
(-0.169401 -0.0958828 0)
(-0.160691 -0.120947 0)
(-0.145814 -0.143126 0)
(-0.124396 -0.158749 0)
(-0.0972357 -0.163555 0)
(-0.0667422 -0.153655 0)
(-0.0368982 -0.126923 0)
(-0.0129795 -0.0841896 0)
(-0.00163172 -0.029637 0)
(-0.00111518 0.0267838 0)
(-0.00684376 0.0673217 0)
(-0.0176684 0.0951901 0)
(-0.0307255 0.112171 0)
(-0.044547 0.12058 0)
(-0.0583183 0.122694 0)
(-0.0715525 0.120453 0)
(-0.0840264 0.11534 0)
(-0.0956934 0.108385 0)
(-0.106606 0.100236 0)
(-0.116867 0.0912505 0)
(-0.126604 0.08158 0)
(-0.135952 0.0712219 0)
(-0.145034 0.0600518 0)
(-0.153948 0.0478351 0)
(-0.162738 0.0342301 0)
(-0.171353 0.018794 0)
(-0.179591 0.00100913 0)
(-0.187031 -0.0196509 0)
(-0.192954 -0.0435915 0)
(-0.196286 -0.0708831 0)
(-0.195592 -0.100944 0)
(-0.189178 -0.132152 0)
(-0.175385 -0.161474 0)
(-0.153117 -0.184296 0)
(-0.122614 -0.194771 0)
(-0.0862282 -0.186995 0)
(-0.0487739 -0.157058 0)
(-0.0175303 -0.105249 0)
(-0.00228576 -0.0371589 0)
(-0.00131126 0.0306444 0)
(-0.00792034 0.0766503 0)
(-0.0202178 0.107767 0)
(-0.0347778 0.12624 0)
(-0.0498922 0.134947 0)
(-0.0646739 0.136649 0)
(-0.0786386 0.133649 0)
(-0.0916051 0.127665 0)
(-0.103583 0.119866 0)
(-0.114684 0.110976 0)
(-0.125067 0.101393 0)
(-0.134918 0.0912827 0)
(-0.144431 0.0806454 0)
(-0.153799 0.0693424 0)
(-0.163198 0.0571025 0)
(-0.172761 0.0435126 0)
(-0.182537 0.0280074 0)
(-0.192423 0.00987552 0)
(-0.202078 -0.0116903 0)
(-0.210817 -0.037462 0)
(-0.217499 -0.067935 0)
(-0.220454 -0.102932 0)
(-0.217528 -0.141055 0)
(-0.206331 -0.179072 0)
(-0.18481 -0.211461 0)
(-0.15221 -0.230495 0)
(-0.110286 -0.227467 0)
(-0.064291 -0.195456 0)
(-0.0238305 -0.133107 0)
(-0.00327564 -0.0474206 0)
(-0.00158022 0.0351566 0)
(-0.00931817 0.0873754 0)
(-0.0234066 0.121947 0)
(-0.0396719 0.141769 0)
(-0.0561207 0.150469 0)
(-0.0718101 0.151424 0)
(-0.0862897 0.147363 0)
(-0.0994491 0.140265 0)
(-0.111376 0.131444 0)
(-0.122251 0.121698 0)
(-0.1323 0.111461 0)
(-0.141766 0.100915 0)
(-0.150904 0.0900682 0)
(-0.159973 0.0787764 0)
(-0.169227 0.0667453 0)
(-0.178894 0.0535052 0)
(-0.189139 0.0383803 0)
(-0.199996 0.0204673 0)
(-0.211271 -0.00134431 0)
(-0.222412 -0.0282612 0)
(-0.232353 -0.0613139 0)
(-0.239365 -0.100937 0)
(-0.240985 -0.146235 0)
(-0.23416 -0.19411 0)
(-0.215746 -0.23838 0)
(-0.183546 -0.269393 0)
(-0.137904 -0.274918 0)
(-0.0835914 -0.243369 0)
(-0.0323465 -0.16968 0)
(-0.00477755 -0.0614981 0)
(-0.00196849 0.0405373 0)
(-0.011192 0.0998572 0)
(-0.0274722 0.138008 0)
(-0.0456303 0.158857 0)
(-0.0633501 0.167066 0)
(-0.0796804 0.16679 0)
(-0.0942612 0.161255 0)
(-0.107098 0.15272 0)
(-0.118387 0.142639 0)
(-0.128398 0.13187 0)
(-0.137425 0.120874 0)
(-0.145773 0.109849 0)
(-0.153749 0.0988077 0)
(-0.161669 0.0876116 0)
(-0.169851 0.0759575 0)
(-0.178608 0.0633417 0)
(-0.188218 0.0490054 0)
(-0.198872 0.0318823 0)
(-0.210581 0.0105782 0)
(-0.223022 -0.016555 0)
(-0.235396 -0.0511603 0)
(-0.246183 -0.0944483 0)
(-0.252918 -0.146338 0)
(-0.252166 -0.204321 0)
(-0.23979 -0.26212 0)
(-0.211844 -0.308545 0)
(-0.166326 -0.327517 0)
(-0.105989 -0.300973 0)
(-0.0435252 -0.216789 0)
(-0.00707111 -0.0807955 0)
(-0.00256353 0.0471235 0)
(-0.0137975 0.114586 0)
(-0.0327554 0.156251 0)
(-0.0529087 0.177513 0)
(-0.0716157 0.184478 0)
(-0.0880233 0.182286 0)
(-0.101961 0.174729 0)
(-0.113623 0.164344 0)
(-0.123356 0.1527 0)
(-0.131544 0.140694 0)
(-0.138563 0.128792 0)
(-0.144777 0.117193 0)
(-0.150539 0.105914 0)
(-0.156202 0.0948214 0)
(-0.162124 0.0836166 0)
(-0.168673 0.0717866 0)
(-0.176213 0.0585312 0)
(-0.18508 0.0426798 0)
(-0.195509 0.0226324 0)
(-0.207497 -0.00363172 0)
(-0.220696 -0.0383984 0)
(-0.234092 -0.0836717 0)
(-0.245662 -0.140443 0)
(-0.252104 -0.207341 0)
(-0.248727 -0.278835 0)
(-0.229896 -0.343196 0)
(-0.190509 -0.380993 0)
(-0.129373 -0.366346 0)
(-0.0576064 -0.275566 0)
(-0.0105772 -0.107092 0)
(-0.00353785 0.0554654 0)
(-0.0175706 0.132225 0)
(-0.0397408 0.176944 0)
(-0.0617464 0.197516 0)
(-0.080717 0.202097 0)
(-0.0961146 0.197051 0)
(-0.108126 0.186772 0)
(-0.11724 0.174043 0)
(-0.124021 0.160496 0)
(-0.129003 0.147019 0)
(-0.132661 0.134053 0)
(-0.135419 0.121772 0)
(-0.137666 0.110182 0)
(-0.139771 0.099146 0)
(-0.142097 0.0883732 0)
(-0.145024 0.077363 0)
(-0.148953 0.0653193 0)
(-0.154311 0.0510452 0)
(-0.161534 0.0328455 0)
(-0.171013 0.00847343 0)
(-0.182907 -0.0248012 0)
(-0.196935 -0.0697439 0)
(-0.212022 -0.128509 0)
(-0.225679 -0.201313 0)
(-0.233463 -0.284388 0)
(-0.228691 -0.367063 0)
(-0.203021 -0.428247 0)
(-0.149578 -0.434341 0)
(-0.0742035 -0.345423 0)
(-0.0158455 -0.1425 0)
(-0.0052413 0.0665117 0)
(-0.0232699 0.153656 0)
(-0.0490786 0.200159 0)
(-0.0721936 0.218155 0)
(-0.0898565 0.218682 0)
(-0.102255 0.209549 0)
(-0.110202 0.195723 0)
(-0.114636 0.180131 0)
(-0.116425 0.164371 0)
(-0.116295 0.149255 0)
(-0.114838 0.135142 0)
(-0.112539 0.122144 0)
(-0.109806 0.110222 0)
(-0.106995 0.0992182 0)
(-0.104441 0.0888413 0)
(-0.102484 0.0786131 0)
(-0.101505 0.0677807 0)
(-0.101955 0.0552009 0)
(-0.104391 0.0392156 0)
(-0.109488 0.0175618 0)
(-0.117951 -0.0126216 0)
(-0.130362 -0.0546524 0)
(-0.146849 -0.111669 0)
(-0.1664 -0.185648 0)
(-0.185881 -0.275458 0)
(-0.198862 -0.373434 0)
(-0.194676 -0.45982 0)
(-0.160035 -0.495845 0)
(-0.091557 -0.422557 0)
(-0.023374 -0.189109 0)
(-0.00837962 0.0819766 0)
(-0.0321904 0.179954 0)
(-0.0614524 0.225378 0)
(-0.0835521 0.237701 0)
(-0.0967425 0.231851 0)
(-0.102662 0.217152 0)
(-0.103136 0.198951 0)
(-0.0997454 0.180108 0)
(-0.0937448 0.162031 0)
(-0.0860769 0.145336 0)
(-0.0774396 0.130226 0)
(-0.0683508 0.116692 0)
(-0.0592008 0.104611 0)
(-0.0502949 0.0937718 0)
(-0.0418928 0.0838669 0)
(-0.0342495 0.0744394 0)
(-0.0276644 0.0648044 0)
(-0.0225399 0.0539393 0)
(-0.0194515 0.0403556 0)
(-0.0192233 0.0219837 0)
(-0.0229757 -0.00389774 0)
(-0.0320206 -0.0406994 0)
(-0.0476958 -0.0920849 0)
(-0.0708237 -0.161502 0)
(-0.100549 -0.250774 0)
(-0.132459 -0.356949 0)
(-0.155794 -0.465499 0)
(-0.151884 -0.538046 0)
(-0.105441 -0.498284 0)
(-0.0330187 -0.248094 0)
(-0.0142759 0.10501 0)
(-0.0462782 0.212048 0)
(-0.0767185 0.250592 0)
(-0.0925864 0.252469 0)
(-0.0952673 0.237324 0)
(-0.0889611 0.215615 0)
(-0.0769339 0.192565 0)
(-0.0615323 0.170577 0)
(-0.0443785 0.150599 0)
(-0.0265485 0.132891 0)
(-0.00874647 0.117393 0)
(0.00857573 0.103911 0)
(0.0251333 0.0921941 0)
(0.040746 0.0819552 0)
(0.055288 0.0728526 0)
(0.0686392 0.0644477 0)
(0.0806283 0.0561362 0)
(0.0909609 0.0470557 0)
(0.0991306 0.0359733 0)
(0.104299 0.0211701 0)
(0.105116 0.000334663 0)
(0.0998634 -0.0295609 0)
(0.0862967 -0.0721101 0)
(0.0619108 -0.13145 0)
(0.024883 -0.211766 0)
(-0.0240298 -0.315437 0)
(-0.0773012 -0.436785 0)
(-0.11419 -0.54586 0)
(-0.107928 -0.558013 0)
(-0.0427252 -0.31885 0)
(-0.0248509 0.141387 0)
(-0.0669386 0.248807 0)
(-0.0899281 0.269767 0)
(-0.0878868 0.254777 0)
(-0.0695244 0.227642 0)
(-0.0426452 0.198501 0)
(-0.011929 0.171372 0)
(0.0198155 0.147531 0)
(0.050968 0.12711 0)
(0.0806647 0.109818 0)
(0.108475 0.0952426 0)
(0.134233 0.0829657 0)
(0.157922 0.0725969 0)
(0.179603 0.0637704 0)
(0.199363 0.0561193 0)
(0.217265 0.0492342 0)
(0.233298 0.0426067 0)
(0.247304 0.0355571 0)
(0.258891 0.0271475 0)
(0.267298 0.0160813 0)
(0.271126 0.000610791 0)
(0.268557 -0.0214377 0)
(0.256846 -0.0531134 0)
(0.232428 -0.0982533 0)
(0.191279 -0.161934 0)
(0.129982 -0.25067 0)
(0.0496349 -0.369212 0)
(-0.0332315 -0.504217 0)
(-0.0865383 -0.5816 0)
(-0.046595 -0.398265 0)
(-0.0400084 0.202215 0)
(-0.0866819 0.280345 0)
(-0.0755531 0.265024 0)
(-0.0335325 0.228013 0)
(0.0200155 0.19002 0)
(0.0755311 0.156802 0)
(0.128791 0.12943 0)
(0.177933 0.107347 0)
(0.222354 0.0896223 0)
(0.262092 0.0753714 0)
(0.297459 0.0638674 0)
(0.328875 0.0545307 0)
(0.356778 0.0468972 0)
(0.381581 0.0405837 0)
(0.403642 0.0352499 0)
(0.423232 0.0305592 0)
(0.440498 0.0261336 0)
(0.455409 0.0215041 0)
(0.467671 0.0160524 0)
(0.476611 0.00894238 0)
(0.481057 -0.000952041 0)
(0.479192 -0.0149246 0)
(0.468071 -0.0349848 0)
(0.443856 -0.0638501 0)
(0.401332 -0.105718 0)
(0.333891 -0.168118 0)
(0.235921 -0.263815 0)
(0.110658 -0.402379 0)
(-0.0214418 -0.5437 0)
(-0.0298497 -0.468583 0)
(-0.0330004 0.295908 0)
(-0.0439583 0.277285 0)
(0.0609564 0.204075 0)
(0.166132 0.15246 0)
(0.25859 0.115119 0)
(0.33785 0.0875912 0)
(0.405004 0.067554 0)
(0.461524 0.0529701 0)
(0.509069 0.0422108 0)
(0.549211 0.0341411 0)
(0.583282 0.028 0)
(0.612372 0.0232643 0)
(0.637363 0.0195606 0)
(0.65896 0.016611 0)
(0.677709 0.0141927 0)
(0.694004 0.0121058 0)
(0.708075 0.010145 0)
(0.719954 0.0080717 0)
(0.729421 0.00558984 0)
(0.735893 0.00232159 0)
(0.738451 -0.00218718 0)
(0.735504 -0.00867255 0)
(0.724487 -0.0179773 0)
(0.701923 -0.0313326 0)
(0.662737 -0.0508874 0)
(0.59931 -0.0814186 0)
(0.500513 -0.135359 0)
(0.35219 -0.240168 0)
(0.136598 -0.406414 0)
(0.0564888 -0.457686 0)
(0.303593 0.181059 0)
(0.384303 0.145286 0)
(0.565024 0.0924791 0)
(0.693149 0.0600329 0)
(0.776882 0.0398121 0)
(0.835962 0.0266575 0)
(0.879829 0.018137 0)
(0.913082 0.0126469 0)
(0.938745 0.00906852 0)
(0.95896 0.00668805 0)
(0.975196 0.00507068 0)
(0.988463 0.00394868 0)
(0.999469 0.00315225 0)
(1.00872 0.00256944 0)
(1.01656 0.0021214 0)
(1.02324 0.00174572 0)
(1.02885 0.0013846 0)
(1.03339 0.000975941 0)
(1.0367 0.000448797 0)
(1.03843 -0.000283793 0)
(1.03797 -0.00127368 0)
(1.03436 -0.00276672 0)
(1.02627 -0.00494156 0)
(1.0118 -0.00803782 0)
(0.988013 -0.0125337 0)
(0.949985 -0.0196494 0)
(0.88742 -0.0329752 0)
(0.778769 -0.0645293 0)
(0.545691 -0.140233 0)
(0.382555 -0.2023 0)
)
;

boundaryField
{
    movingWall
    {
        type            fixedValue;
        value           uniform (1.2 0 0);
    }
    fixedWalls
    {
        type            noSlip;
    }
    frontAndBack
    {
        type            empty;
    }
}


// ************************************************************************* //
