/*--------------------------------*- C++ -*----------------------------------*\
  =========                 |
  \\      /  F ield         | OpenFOAM: The Open Source CFD Toolbox
   \\    /   O peration     | Website:  https://openfoam.org
    \\  /    A nd           | Version:  7
     \\/     M anipulation  |
\*---------------------------------------------------------------------------*/
FoamFile
{
    version     2.0;
    format      ascii;
    class       volScalarField;
    location    "1.8";
    object      p;
}
// * * * * * * * * * * * * * * * * * * * * * * * * * * * * * * * * * * * * * //

dimensions      [0 2 -2 0 0 0 0];

internalField   nonuniform List<scalar> 
900
(
1.75358e-08
-0.000230774
-0.000527202
-0.000785234
-0.000945766
-0.00097322
-0.000853027
-0.00058252
-0.000164824
0.000394106
0.00108664
0.00190349
0.00283308
0.00386057
0.00496684
0.00612766
0.00731332
0.00848878
0.00961468
0.0106492
0.0115509
0.0122822
0.0128135
0.0131276
0.0132233
0.0131195
0.0128587
0.0125103
0.0121538
0.0119325
0.00022816
-6.06248e-06
-0.000221313
-0.000389201
-0.000475337
-0.000452831
-0.000308374
-3.71392e-05
0.000360978
0.00088303
0.00152372
0.00227544
0.00312786
0.00406726
0.00507586
0.00613128
0.00720646
0.00826999
0.00928706
0.0102214
0.0110376
0.0117047
0.0121991
0.0125088
0.0126355
0.0125975
0.0124304
0.0121876
0.0119294
0.0117095
0.000531621
0.000202674
-1.86252e-05
-0.000161936
-0.000221116
-0.000177994
-2.33757e-05
0.000246101
0.000630896
0.00112926
0.00173738
0.00244915
0.00325571
0.00414478
0.00510002
0.00610055
0.00712113
0.00813186
0.00909982
0.00999058
0.0107706
0.0114106
0.0118885
0.0121932
0.0123267
0.0123053
0.0121605
0.0119371
0.011671
0.0113598
0.000806909
0.000362233
0.000100964
-4.90268e-05
-0.000105094
-5.71162e-05
9.90918e-05
0.000364068
0.000737465
0.001218
0.001803
0.00248789
0.00326546
0.00412511
0.00505205
0.00602682
0.00702512
0.00801778
0.00897206
0.00985316
0.0106268
0.0112625
0.011737
0.012038
0.0121659
0.0121354
0.0119752
0.0117265
0.0114086
0.0109863
0.000987588
0.000427959
0.000117522
-5.16794e-05
-0.00011599
-7.18206e-05
8.04229e-05
0.000338445
0.000700925
0.00116689
0.00173481
0.00240169
0.00316214
0.00400737
0.00492425
0.00589455
0.00689459
0.00789517
0.00886255
0.00976003
0.0105507
0.0112008
0.0116841
0.0119852
0.0121027
0.0120495
0.011854
0.0115573
0.0111698
0.0106333
0.00102329
0.000356887
-5.12848e-06
-0.000200262
-0.000279956
-0.000245623
-0.000101452
0.000147855
0.000500185
0.000954974
0.00151189
0.00216969
0.00292494
0.00377084
0.00469597
0.00568331
0.0067095
0.00774466
0.00875299
0.00969445
0.0105276
0.0112136
0.0117207
0.0120295
0.0121353
0.0120503
0.0118041
0.0114419
0.0109723
0.0103222
0.000879658
0.000115589
-0.000297493
-0.00052182
-0.000621061
-0.000600435
-0.000467119
-0.000227686
0.000115296
0.000561897
0.00111321
0.00176992
0.00253084
0.00339138
0.00434209
0.00536722
0.00644367
0.00754044
0.00861881
0.00963404
0.0105383
0.0112853
0.0118358
0.0121638
0.0122608
0.0121379
0.0118284
0.0113849
0.0108199
0.0100516
0.000531427
-0.000323237
-0.000785997
-0.00104083
-0.00116187
-0.00115739
-0.00103692
-0.000808418
-0.000474549
-3.42982e-05
0.000515139
0.00117672
0.00195186
0.00283864
0.00382997
0.00491182
0.00606156
0.00724701
0.00842598
0.00954779
0.0105563
0.0113952
0.0120148
0.0123797
0.0124755
0.0123121
0.0119275
0.0113857
0.0107074
0.00980561
-4.23626e-05
-0.000983702
-0.00149527
-0.00178136
-0.00192578
-0.00193941
-0.00183381
-0.00161797
-0.00129433
-0.000860638
-0.000312022
0.000357167
0.00115147
0.00207228
0.00311567
0.00427011
0.00551417
0.00681499
0.00812682
0.00939217
0.0105447
0.0115148
0.0122385
0.0126672
0.0127768
0.0125743
0.0121035
0.0114431
0.0106256
0.00955932
-0.000861007
-0.00188832
-0.00244898
-0.0027674
-0.00293694
-0.00297105
-0.00288319
-0.00268327
-0.00237332
-0.00194958
-0.00140478
-0.000730085
8.28325e-05
0.00103959
0.00214059
0.00337813
0.00473339
0.00617428
0.00765213
0.00910246
0.0104469
0.0115995
0.0124765
0.0130097
0.01316
0.0129273
0.0123606
0.0115569
0.0105641
0.00928298
-0.00194369
-0.0030592
-0.00367058
-0.00402313
-0.00422022
-0.00427815
-0.0042125
-0.00403415
-0.00374471
-0.0033388
-0.00280646
-0.00213523
-0.00131219
-0.000326409
0.000828402
0.00215036
0.00362545
0.00522571
0.00690102
0.00858113
0.010175
0.0115764
0.0126756
0.013376
0.0136135
0.0133734
0.0127066
0.0117316
0.0105147
0.00894455
-0.00331039
-0.00451891
-0.00518397
-0.00557331
-0.00580133
-0.00588777
-0.0058508
-0.00570268
-0.00544485
-0.00507036
-0.00456649
-0.00391675
-0.00310299
-0.0021077
-0.000916855
0.000476088
0.00206499
0.00383256
0.00572928
0.0076832
0.00959197
0.0113267
0.0127439
0.0137062
0.0141095
0.0139099
0.0131525
0.0119785
0.0104756
0.00851318
-0.00498247
-0.00629124
-0.00701414
-0.00744366
-0.00770677
-0.00782763
-0.00782791
-0.00772196
-0.00751159
-0.00718871
-0.00673803
-0.00613904
-0.00536788
-0.00439944
-0.00320998
-0.00178051
-0.000101607
0.00181423
0.00393765
0.00619975
0.00849151
0.0106617
0.012526
0.0138904
0.0145877
0.0145207
0.0137108
0.0123189
0.0104565
0.00796416
-0.00698301
-0.00840179
-0.00918768
-0.00966103
-0.00996358
-0.0101254
-0.0101729
-0.0101239
-0.00998136
-0.00973699
-0.00937362
-0.00886727
-0.00818858
-0.00730432
-0.00617942
-0.00477972
-0.00307706
-0.00105971
0.00126414
0.00384379
0.00657635
0.00929517
0.0117715
0.013737
0.0149295
0.0151587
0.0143885
0.012786
0.0104853
0.00728641
-0.00933726
-0.0108789
-0.0117335
-0.0122537
-0.0125989
-0.0128072
-0.012912
-0.0129359
-0.0128847
-0.0127513
-0.012518
-0.0121588
-0.0116398
-0.0109205
-0.00995366
-0.00868752
-0.0070691
-0.00505292
-0.00260911
0.000249041
0.00344687
0.00682037
0.0101023
0.0129351
0.0149217
0.0157194
0.0151748
0.0134258
0.0106171
0.006494
-0.0120735
-0.0137549
-0.0146842
-0.0152518
-0.0156395
-0.0158964
-0.0160654
-0.0161765
-0.0162405
-0.016253
-0.0161982
-0.0160502
-0.0157736
-0.0153222
-0.0146384
-0.0136517
-0.0122792
-0.0104305
-0.00802399
-0.00500305
-0.00138166
0.00271279
0.00699791
0.0110242
0.0142191
0.0160073
0.0160212
0.0142955
0.0109475
0.00564449
-0.0152248
-0.0170689
-0.0180777
-0.0186882
-0.0191111
-0.0194109
-0.0196439
-0.0198502
-0.020048
-0.0202386
-0.0204105
-0.0205415
-0.0205981
-0.0205334
-0.0202826
-0.0197587
-0.0188474
-0.0174067
-0.0152768
-0.0123086
-0.00840754
-0.003611
0.00183209
0.00740397
0.0123295
0.0157094
0.0168224
0.0154648
0.0116337
0.00486967
-0.018832
-0.0208706
-0.0219609
-0.0226003
-0.0230382
-0.0233612
-0.023644
-0.0239405
-0.024279
-0.0246689
-0.0251064
-0.025577
-0.0260543
-0.0264961
-0.0268372
-0.0269789
-0.0267782
-0.0260368
-0.024502
-0.0219089
-0.017997
-0.012647
-0.0059977
0.00142784
0.0086637
0.0144087
0.017415
0.0170263
0.0129294
0.00442763
-0.0229502
-0.0252277
-0.0263951
-0.0270321
-0.0274433
-0.0277472
-0.0280433
-0.0284035
-0.0288686
-0.0294585
-0.03018
-0.0310301
-0.0319949
-0.0330434
-0.0341176
-0.0351157
-0.0358721
-0.0361373
-0.0355668
-0.0337243
-0.0301766
-0.0245672
-0.0168267
-0.00737636
0.00270217
0.0116841
0.0176277
0.0191334
0.015244
0.00478886
-0.0276591
-0.0302383
-0.0314648
-0.0320383
-0.0323465
-0.0325544
-0.0327946
-0.0331608
-0.0337081
-0.034468
-0.0354595
-0.036694
-0.0381739
-0.0398857
-0.0417856
-0.0437768
-0.0456806
-0.0472026
-0.047904
-0.0471927
-0.0444275
-0.0389562
-0.0304097
-0.0189739
-0.00570037
0.00734217
0.0174268
0.0220918
0.019236
0.00677205
-0.033084
-0.0360515
-0.0372904
-0.0376884
-0.0377634
-0.0377483
-0.0378186
-0.0380927
-0.0386395
-0.039501
-0.0407079
-0.0422862
-0.0442564
-0.0466249
-0.0493663
-0.0523949
-0.0555259
-0.0584298
-0.0605861
-0.0612567
-0.0595999
-0.0546454
-0.0456648
-0.0324846
-0.0159354
0.00177056
0.0171854
0.0265369
0.0259558
0.0117469
-0.0394347
-0.0429015
-0.0440467
-0.0440699
-0.0436991
-0.0432647
-0.0429946
-0.0430312
-0.0434531
-0.0443079
-0.045634
-0.047469
-0.0498492
-0.0527989
-0.0563096
-0.0603065
-0.0646006
-0.0688332
-0.0724238
-0.0745391
-0.0740442
-0.069787
-0.0606525
-0.0460311
-0.0263547
-0.00369614
0.0180369
0.0337028
0.0370463
0.0219231
-0.0470851
-0.0511661
-0.0519871
-0.0512865
-0.0501341
-0.048993
-0.0481458
-0.047751
-0.0478859
-0.0485938
-0.0499122
-0.0518829
-0.0545505
-0.05795
-0.0620819
-0.0668734
-0.0721257
-0.0774492
-0.0822017
-0.0854448
-0.085925
-0.0822208
-0.0729098
-0.0569606
-0.0343095
-0.00661678
0.0221619
0.0457302
0.055017
0.0407525
-0.0567424
-0.0614631
-0.0614671
-0.0594416
-0.0569936
-0.0547446
-0.0530149
-0.0519552
-0.0516195
-0.0520291
-0.0532061
-0.055184
-0.0580036
-0.0616974
-0.0662602
-0.0716066
-0.0775127
-0.0835479
-0.0890069
-0.09286
-0.0937427
-0.0900372
-0.0800769
-0.0624735
-0.0366595
-0.00373242
0.032765
0.0658618
0.0835985
0.0734768
-0.069828
-0.0748054
-0.0729427
-0.0685778
-0.0640792
-0.0601942
-0.0572194
-0.0552463
-0.0542665
-0.0542504
-0.0551827
-0.0570702
-0.0599329
-0.0637832
-0.0685915
-0.0742402
-0.0804614
-0.086766
-0.0923729
-0.0961583
-0.0966484
-0.0920674
-0.0805611
-0.060459
-0.0306768
0.00818539
0.0535081
0.0982813
0.128031
0.127614
-0.0893712
-0.0928506
-0.0868707
-0.0785146
-0.0709197
-0.0647572
-0.0601585
-0.0570614
-0.0553299
-0.054839
-0.0555044
-0.0572814
-0.0601479
-0.0640762
-0.0689934
-0.0747295
-0.0809537
-0.0871019
-0.0923056
-0.095342
-0.0946208
-0.0881891
-0.0740138
-0.0501304
-0.0151317
0.0311401
0.0873581
0.147226
0.194667
0.212718
-0.12205
-0.118234
-0.103543
-0.088651
-0.0765986
-0.0674599
-0.0609342
-0.0566398
-0.0542058
-0.0533454
-0.053862
-0.0556307
-0.0585664
-0.0625843
-0.0675534
-0.0732389
-0.0792364
-0.0848991
-0.0892674
-0.0910199
-0.0884367
-0.0794044
-0.0616344
-0.0328054
0.00904973
0.0650391
0.13496
0.215019
0.289162
0.34124
-0.183065
-0.153578
-0.122495
-0.0975799
-0.0794662
-0.0668064
-0.0583744
-0.0531484
-0.0503571
-0.0494687
-0.0501364
-0.0521375
-0.0553158
-0.0595275
-0.0645836
-0.0701875
-0.0758673
-0.0809026
-0.0842546
-0.0845142
-0.0798482
-0.0680826
-0.0465519
-0.0124442
0.0370934
0.104704
0.192554
0.299814
0.414815
0.540755
-0.315204
-0.193963
-0.134461
-0.0970109
-0.0730163
-0.0580914
-0.0492772
-0.0444914
-0.0424326
-0.0423433
-0.0437781
-0.0464632
-0.0502114
-0.054854
-0.0601773
-0.0658573
-0.0713928
-0.0760353
-0.0787161
-0.0779943
-0.0719018
-0.0583822
-0.0344845
0.0031036
0.058342
0.136246
0.243564
0.38854
0.577325
0.867201
-0.641399
-0.229473
-0.102434
-0.0614996
-0.0408741
-0.030139
-0.025868
-0.0251972
-0.0264819
-0.0290153
-0.0324977
-0.0367797
-0.0417678
-0.0473648
-0.0534116
-0.0596292
-0.0655562
-0.0704863
-0.0734088
-0.07298
-0.0675603
-0.0545411
-0.0313358
0.00543522
0.0602889
0.140113
0.257691
0.441239
0.747498
1.34163
)
;

boundaryField
{
    movingWall
    {
        type            zeroGradient;
    }
    fixedWalls
    {
        type            zeroGradient;
    }
    frontAndBack
    {
        type            empty;
    }
}


// ************************************************************************* //
