/*--------------------------------*- C++ -*----------------------------------*\
  =========                 |
  \\      /  F ield         | OpenFOAM: The Open Source CFD Toolbox
   \\    /   O peration     | Website:  https://openfoam.org
    \\  /    A nd           | Version:  7
     \\/     M anipulation  |
\*---------------------------------------------------------------------------*/
FoamFile
{
    version     2.0;
    format      ascii;
    class       surfaceScalarField;
    location    "1.8";
    object      phi;
}
// * * * * * * * * * * * * * * * * * * * * * * * * * * * * * * * * * * * * * //

dimensions      [0 3 -1 0 0 0 0];

internalField   nonuniform List<scalar> 
1740
(
3.1551e-07
-3.15529e-07
-2.75064e-07
5.90581e-07
-1.88217e-06
1.6071e-06
-4.30738e-06
2.42522e-06
-7.2905e-06
2.98312e-06
-1.05956e-05
3.30506e-06
-1.40323e-05
3.43671e-06
-1.7454e-05
3.42168e-06
-2.0747e-05
3.29308e-06
-2.38195e-05
3.07243e-06
-2.6591e-05
2.77151e-06
-2.89861e-05
2.39509e-06
-3.093e-05
1.94398e-06
-3.23482e-05
1.41816e-06
-3.31678e-05
8.19615e-07
-3.33229e-05
1.55067e-07
-3.27609e-05
-5.62017e-07
-3.14516e-05
-1.30925e-06
-2.93967e-05
-2.05487e-06
-2.66388e-05
-2.75792e-06
-2.32688e-05
-3.37002e-06
-1.94302e-05
-3.83858e-06
-1.53187e-05
-4.11146e-06
-1.11764e-05
-4.14234e-06
-7.28011e-06
-3.8963e-06
-3.92444e-06
-3.35568e-06
-1.39527e-06
-2.52918e-06
8.00022e-08
-1.47528e-06
4.50904e-07
-3.70905e-07
4.50901e-07
-5.82034e-07
2.66512e-07
-3.18037e-06
3.18892e-06
-7.86527e-06
6.29201e-06
-1.42569e-05
8.81684e-06
-2.18746e-05
1.06008e-05
-3.02392e-05
1.16697e-05
-3.89256e-05
1.21231e-05
-4.75771e-05
1.20732e-05
-5.58994e-05
1.16154e-05
-6.36447e-05
1.08177e-05
-7.0596e-05
9.72286e-06
-7.65544e-05
8.35344e-06
-8.1331e-05
6.72056e-06
-8.47457e-05
4.83287e-06
-8.66316e-05
2.70552e-06
-8.68451e-05
3.68616e-07
-8.52806e-05
-2.12656e-06
-8.18886e-05
-4.70119e-06
-7.66963e-05
-7.24715e-06
-6.98254e-05
-9.62883e-06
-6.15067e-05
-1.16887e-05
-5.20871e-05
-1.32582e-05
-4.20255e-05
-1.41731e-05
-3.1876e-05
-1.42918e-05
-2.22562e-05
-1.35161e-05
-1.37983e-05
-1.18136e-05
-7.0794e-06
-9.24811e-06
-2.52701e-06
-6.02768e-06
-3.19269e-07
-2.57865e-06
1.31632e-07
-1.65129e-06
1.9178e-06
-6.47828e-06
8.01592e-06
-1.41131e-05
1.39268e-05
-2.40016e-05
1.87054e-05
-3.55034e-05
2.21026e-05
-4.79855e-05
2.41518e-05
-6.08729e-05
2.50104e-05
-7.36676e-05
2.48679e-05
-8.59456e-05
2.38934e-05
-9.73428e-05
2.22149e-05
-0.000107538
1.99176e-05
-0.000116236
1.70523e-05
-0.000123165
1.36494e-05
-0.000128068
9.73525e-06
-0.000130711
5.34901e-06
-0.000130901
5.58965e-07
-0.0001285
-4.52841e-06
-0.00012345
-9.75079e-06
-0.000115804
-1.48933e-05
-0.000105744
-1.96884e-05
-9.36045e-05
-2.38283e-05
-7.98764e-05
-2.69864e-05
-6.5202e-05
-2.88475e-05
-5.03483e-05
-2.91454e-05
-3.61602e-05
-2.77043e-05
-2.34911e-05
-2.44827e-05
-1.31139e-05
-1.96253e-05
-5.61648e-06
-1.35251e-05
-1.28155e-06
-6.91359e-06
-1.14991e-06
-2.62425e-06
4.54206e-06
-9.53342e-06
1.49251e-05
-1.99095e-05
2.43029e-05
-3.29412e-05
3.1737e-05
-4.78232e-05
3.69847e-05
-6.37974e-05
4.01259e-05
-8.01817e-05
4.13948e-05
-9.63817e-05
4.10679e-05
-0.000111884
3.93962e-05
-0.000126244
3.65747e-05
-0.000139064
3.27377e-05
-0.000149982
2.79701e-05
-0.00015866
2.23269e-05
-0.000164783
1.5858e-05
-0.000168067
8.63313e-06
-0.000168275
7.67528e-07
-0.00016524
-7.56339e-06
-0.000158894
-1.60973e-05
-0.000149298
-2.44895e-05
-0.000136673
-3.23125e-05
-0.000121426
-3.90758e-05
-0.000104152
-4.42602e-05
-8.56325e-05
-4.73671e-05
-6.67991e-05
-4.79788e-05
-4.86773e-05
-4.58261e-05
-3.23041e-05
-4.08558e-05
-1.86291e-05
-3.33003e-05
-8.41107e-06
-2.37432e-05
-2.13305e-06
-1.31916e-05
-3.28297e-06
-3.44798e-06
7.99004e-06
-1.22211e-05
2.36982e-05
-2.50812e-05
3.71631e-05
-4.09438e-05
4.75996e-05
-5.88279e-05
5.48688e-05
-7.78566e-05
5.91546e-05
-9.72609e-05
6.07991e-05
-0.000116376
6.01833e-05
-0.00013463
5.76495e-05
-0.00015152
5.34651e-05
-0.000166599
4.78171e-05
-0.000179455
4.08259e-05
-0.0001897
3.25722e-05
-0.000196972
2.31294e-05
-0.000200938
1.25991e-05
-0.000201316
1.14599e-06
-0.0001979
-1.09793e-05
-0.000190593
-2.34045e-05
-0.000179445
-3.5638e-05
-0.000164689
-4.70682e-05
-0.000146774
-5.69909e-05
-0.000126376
-6.4658e-05
-0.000104394
-6.93489e-05
-8.19131e-05
-7.04601e-05
-6.01363e-05
-6.76028e-05
-4.02937e-05
-6.06984e-05
-2.35307e-05
-5.00634e-05
-1.08033e-05
-3.64705e-05
-2.80738e-06
-2.11876e-05
-6.09035e-06
-4.14135e-06
1.21314e-05
-1.45622e-05
3.41191e-05
-2.96615e-05
5.22624e-05
-4.80916e-05
6.60296e-05
-6.86943e-05
7.54715e-05
-9.04765e-05
8.09367e-05
-0.000112592
8.29145e-05
-0.000134322
8.19133e-05
-0.000155052
7.83797e-05
-0.000174247
7.26598e-05
-0.000191424
6.49943e-05
-0.000206136
5.55377e-05
-0.000217955
4.43916e-05
-0.000226474
3.16478e-05
-0.000231308
1.74334e-05
-0.000232119
1.95725e-06
-0.000228642
-1.44562e-05
-0.000220725
-3.13214e-05
-0.000208376
-4.79874e-05
-0.000191808
-6.36359e-05
-0.000171485
-7.73142e-05
-0.000148143
-8.79998e-05
-0.000122794
-9.46984e-05
-9.66855e-05
-9.65682e-05
-7.12304e-05
-9.30579e-05
-4.78917e-05
-8.40371e-05
-2.80552e-05
-6.98999e-05
-1.29058e-05
-5.16199e-05
-3.34617e-06
-3.07472e-05
-9.43653e-06
-4.74035e-06
1.68717e-05
-1.66355e-05
4.60142e-05
-3.37762e-05
6.94031e-05
-5.45725e-05
8.68259e-05
-7.7695e-05
9.8594e-05
-0.000102038
0.000105279
-0.000126684
0.000107561
-0.000150872
0.000106101
-0.000173961
0.000101469
-0.000195395
9.40942e-05
-0.000214673
8.42726e-05
-0.000231323
7.21872e-05
-0.000244883
5.79517e-05
-0.000254899
4.16637e-05
-0.000260927
2.34617e-05
-0.000262555
3.58477e-06
-0.000259431
-1.75799e-05
-0.000251314
-3.94381e-05
-0.000238129
-6.11728e-05
-0.000220028
-8.17369e-05
-0.000197454
-9.98886e-05
-0.000171182
-0.000114272
-0.000142336
-0.000123545
-0.000112355
-0.000126549
-8.291e-05
-0.000122503
-5.57673e-05
-0.00011118
-3.26224e-05
-9.30447e-05
-1.49375e-05
-6.93048e-05
-3.82406e-06
-4.18607e-05
-1.32606e-05
-5.28094e-06
2.21527e-05
-1.85341e-05
5.92674e-05
-3.75821e-05
8.84511e-05
-6.06125e-05
0.000109856
-8.61336e-05
0.000124115
-0.000112932
0.000132078
-0.000140028
0.000134657
-0.000166628
0.000132701
-0.000192075
0.000126916
-0.000215809
0.000117828
-0.00023732
0.000105784
-0.000256122
9.09895e-05
-0.000271726
7.35557e-05
-0.000283629
5.35667e-05
-0.000291317
3.11494e-05
-0.000294281
6.54839e-06
-0.000292052
-1.98088e-05
-0.000284254
-4.72357e-05
-0.000270676
-7.47506e-05
-0.000251355
-0.000101058
-0.000226661
-0.000124582
-0.000197376
-0.000143557
-0.000164731
-0.00015619
-0.000130388
-0.000160893
-9.63452e-05
-0.000156545
-6.47709e-05
-0.000142754
-3.77741e-05
-0.000120042
-1.71753e-05
-8.99036e-05
-4.32578e-06
-5.47102e-05
-1.75864e-05
-5.79356e-06
2.79462e-05
-2.03456e-05
7.38195e-05
-4.12324e-05
0.000109338
-6.64328e-05
0.000135057
-9.43011e-05
0.000151983
-0.000123524
0.0001613
-0.000153064
0.000164198
-0.000182108
0.000161744
-0.000209997
0.000154805
-0.000236178
0.000144009
-0.00026015
0.000129757
-0.000281425
0.000112264
-0.00029949
9.16214e-05
-0.000313797
6.78737e-05
-0.000323751
4.11031e-05
-0.000328725
1.15224e-05
-0.000328096
-2.04378e-05
-0.000321301
-5.40313e-05
-0.000307924
-8.81269e-05
-0.000287811
-0.000121172
-0.000261188
-0.000151205
-0.000228785
-0.00017596
-0.000191917
-0.000193058
-0.000152496
-0.000200313
-0.000112936
-0.000196106
-7.59335e-05
-0.000179756
-4.41658e-05
-0.000151809
-1.99453e-05
-0.000114124
-4.94394e-06
-6.97116e-05
-2.25303e-05
-6.30243e-06
3.42486e-05
-2.21446e-05
8.96617e-05
-4.48617e-05
0.000132055
-7.22288e-05
0.000162424
-0.00010245
0.000182205
-0.000134118
0.000192968
-0.000166149
0.000196229
-0.000197718
0.000193313
-0.000228183
0.00018527
-0.000257014
0.00017284
-0.000283737
0.000156479
-0.000307874
0.000136401
-0.000328907
0.000112654
-0.000346245
8.52113e-05
-0.000359208
5.4066e-05
-0.000367033
1.93477e-05
-0.000368905
-1.85657e-05
-0.000364012
-5.89239e-05
-0.000351657
-0.000100483
-0.000331389
-0.000141439
-0.000303185
-0.000179409
-0.00026763
-0.000211515
-0.000226066
-0.000234621
-0.000180665
-0.000245715
-0.000134342
-0.000242429
-9.04978e-05
-0.0002236
-5.2591e-05
-0.000189716
-2.36383e-05
-0.000143077
-5.78566e-06
-8.75642e-05
-2.8316e-05
-6.8265e-06
4.10751e-05
-2.3992e-05
0.000106827
-4.85817e-05
0.000156645
-7.81612e-05
0.000192003
-0.000110784
0.000214828
-0.000144951
0.000227135
-0.000179544
0.000230822
-0.00021374
0.000227509
-0.000246929
0.000218458
-0.000278627
0.000204539
-0.000308407
0.000186259
-0.000335828
0.000163822
-0.000360383
0.00013721
-0.000381455
0.000106283
-0.000398284
7.08951e-05
-0.00040996
3.1024e-05
-0.000415445
-1.30806e-05
-0.000413614
-6.07558e-05
-0.00040339
-0.000110707
-0.000383907
-0.000160921
-0.000354746
-0.00020857
-0.000316198
-0.000250063
-0.000269527
-0.000281292
-0.000217129
-0.000298113
-0.000162502
-0.000297056
-0.000109951
-0.00027615
-6.40149e-05
-0.000235652
-2.87325e-05
-0.000178359
-6.9815e-06
-0.000109315
-3.52975e-05
-7.38089e-06
4.8456e-05
-2.59378e-05
0.000125384
-5.24835e-05
0.00018319
-8.43575e-05
0.000223877
-0.000119455
0.000249925
-0.000156187
0.000263868
-0.000193408
0.000268043
-0.000230316
0.000264417
-0.00026635
0.000254493
-0.0003011
0.000239289
-0.000334211
0.00021937
-0.000365309
0.00019492
-0.000393929
0.00016583
-0.000419455
0.000131808
-0.000441066
9.25063e-05
-0.000457706
4.76642e-05
-0.0004681
-2.68698e-06
-0.000470743
-5.81132e-05
-0.000464091
-0.000117358
-0.000446716
-0.000178296
-0.000417615
-0.000237672
-0.000376586
-0.000291092
-0.000324627
-0.000333251
-0.000264251
-0.000358489
-0.000199575
-0.000361733
-0.000136023
-0.000339703
-7.95951e-05
-0.00029208
-3.58135e-05
-0.000222141
-8.69384e-06
-0.000136435
-4.39913e-05
-7.97885e-06
5.64349e-05
-2.80261e-05
0.000145431
-5.66448e-05
0.000211809
-9.09196e-05
0.000258152
-0.000128572
0.000287577
-0.000167921
0.000303218
-0.000207802
0.000307924
-0.000247448
0.000304062
-0.000286375
0.000293419
-0.000324268
0.000277182
-0.000360882
0.000255984
-0.000395944
0.000229982
-0.000429072
0.000198958
-0.000459689
0.000162425
-0.000486952
0.000119769
-0.000509687
7.03993e-05
-0.000526348
1.39742e-05
-0.000535076
-4.93855e-05
-0.00053374
-0.000118694
-0.000520208
-0.000191828
-0.000492688
-0.000265192
-0.00045022
-0.00033356
-0.000393261
-0.00039021
-0.00032422
-0.00042753
-0.00024776
-0.000438193
-0.000170605
-0.000416858
-0.000100667
-0.000362017
-4.55834e-05
-0.000277225
-1.11228e-05
-0.000170895
-5.51141e-05
-8.63446e-06
6.50693e-05
-3.0302e-05
0.000167099
-6.11413e-05
0.000242648
-9.79383e-05
0.000294949
-0.000138215
0.000327853
-0.000180194
0.000345196
-0.000222695
0.000350425
-0.000265006
0.000346373
-0.000306739
0.000335153
-0.000347708
0.000318151
-0.000387808
0.000296083
-0.000426909
0.000269083
-0.000464756
0.000236805
-0.000500868
0.000198537
-0.00053443
0.000153331
-0.000564199
0.000100168
-0.000588421
3.81963e-05
-0.000604841
-3.29649e-05
-0.000610728
-0.000112807
-0.00060313
-0.000199425
-0.000579261
-0.000289062
-0.000537106
-0.000375715
-0.000476206
-0.00045111
-0.000398492
-0.000505245
-0.00030892
-0.000527764
-0.000215555
-0.000510223
-0.000128678
-0.000448895
-5.8852e-05
-0.000347051
-1.45104e-05
-0.000215237
-6.96245e-05
-9.36628e-06
7.44356e-05
-3.28226e-05
0.000190555
-6.60634e-05
0.000275889
-0.000105512
0.000334398
-0.000148457
0.000370798
-0.000193009
0.000389749
-0.000237983
0.000395399
-0.000282732
0.000391122
-0.000326991
0.000379412
-0.000370724
0.000361885
-0.000414
0.00033936
-0.000456872
0.000311955
-0.000499262
0.000279196
-0.000540841
0.000240117
-0.000580896
0.000193386
-0.000618193
0.000137465
-0.000650853
7.08555e-05
-0.00067629
-7.52749e-06
-0.000691202
-9.78947e-05
-0.000691788
-0.00019884
-0.000674125
-0.000306725
-0.000634861
-0.000414979
-0.000572181
-0.000513789
-0.000486979
-0.000590447
-0.000383981
-0.000630762
-0.000272346
-0.000621858
-0.000165038
-0.000556202
-7.6509e-05
-0.00043558
-1.91431e-05
-0.000272603
-8.87676e-05
-1.02025e-05
8.46381e-05
-3.56707e-05
0.000216024
-7.15375e-05
0.000311756
-0.000113775
0.000376636
-0.000159387
0.00041641
-0.00020636
0.000436721
-0.000253504
0.000442544
-0.000300259
0.000437877
-0.000346494
0.000425647
-0.00039235
0.00040774
-0.00043809
0.0003851
-0.000483981
0.000357846
-0.000530165
0.000325379
-0.000576525
0.000286477
-0.00062253
0.000239391
-0.000667064
0.000181998
-0.00070825
0.000112042
-0.000743309
2.75314e-05
-0.000768532
-7.26718e-05
-0.000779348
-0.000188025
-0.000770697
-0.000315375
-0.000737705
-0.000447971
-0.00067676
-0.000574734
-0.00058701
-0.000680197
-0.000472081
-0.00074569
-0.00034151
-0.000752429
-0.000210876
-0.000686836
-9.94665e-05
-0.00054699
-2.53568e-05
-0.000346712
-0.000114124
-1.11883e-05
9.58264e-05
-3.89747e-05
0.00024381
-7.77555e-05
0.000350537
-0.000122926
0.000421806
-0.000171142
0.000464626
-0.000220249
0.000485829
-0.000269064
0.000491358
-0.000317122
0.000485935
-0.000364449
0.000472974
-0.000411367
0.000454659
-0.00045835
0.000432083
-0.00050589
0.000405386
-0.000554378
0.000373866
-0.000603956
0.000336055
-0.000654359
0.000289794
-0.00070471
0.000232349
-0.000753309
0.000160642
-0.000797435
7.16571e-05
-0.000833199
-3.69081e-05
-0.00085557
-0.000165654
-0.000858543
-0.000312402
-0.000835733
-0.000470782
-0.000781424
-0.000629043
-0.000692257
-0.000769364
-0.000569554
-0.000868393
-0.000421884
-0.000900099
-0.000266643
-0.000842077
-0.000128555
-0.000685078
-3.35402e-05
-0.000441727
-0.000147665
-1.2398e-05
0.000108224
-4.29375e-05
0.000274349
-8.50127e-05
0.000392612
-0.000133267
0.00047006
-0.000183937
0.000515296
-0.000234714
0.000536606
-0.000284439
0.000541083
-0.000332769
0.000534265
-0.000379895
0.000520099
-0.000426328
0.000501092
-0.000472743
0.000478498
-0.000519857
0.0004525
-0.000568308
0.000422318
-0.000618532
0.000386279
-0.000670591
0.000341852
-0.000723975
0.000285732
-0.000777368
0.000214035
-0.000828407
0.000122696
-0.000873391
8.07584e-06
-0.000907329
-0.000131716
-0.000923699
-0.000296032
-0.000914927
-0.000479554
-0.000873167
-0.000670803
-0.000791947
-0.000850585
-0.000668915
-0.000991426
-0.000509665
-0.00105935
-0.000331526
-0.00102022
-0.000164332
-0.000852272
-4.41322e-05
-0.000561927
-0.000191797
-1.3954e-05
0.000122178
-4.78802e-05
0.000308276
-9.37609e-05
0.000438493
-0.000145251
0.00052155
-0.000198088
0.000568133
-0.000249825
0.000588343
-0.000299368
0.000590626
-0.000346534
0.00058143
-0.000391699
0.000565264
-0.000435561
0.000544954
-0.00047898
0.000521917
-0.00052287
0.00049639
-0.000568104
0.000467551
-0.000615401
0.000433576
-0.000665194
0.000391646
-0.000717447
0.000337986
-0.000771426
0.000268014
-0.000825428
0.000176698
-0.00087653
5.9178e-05
-0.000920161
-8.80856e-05
-0.000950129
-0.000266064
-0.000958309
-0.000471374
-0.000935139
-0.000693973
-0.00087085
-0.000914873
-0.000758228
-0.00110405
-0.000597462
-0.00122011
-0.000402663
-0.00121501
-0.000206768
-0.00104817
-5.76038e-05
-0.000711091
-0.000249401
-1.60615e-05
0.00013824
-5.43103e-05
0.000346525
-0.000104679
0.000488861
-0.000159519
0.00057639
-0.000214014
0.000622628
-0.000265642
0.000639971
-0.000313468
0.000638452
-0.000357537
0.0006255
-0.000398452
0.000606179
-0.0004371
0.000583602
-0.000474506
0.000559324
-0.000511748
0.000533632
-0.000549887
0.00050569
-0.000589905
0.000473595
-0.000632609
0.00043435
-0.000678496
0.000383873
-0.000727568
0.000317086
-0.000779083
0.000228214
-0.000831251
0.000111346
-0.000880676
-3.86612e-05
-0.000922299
-0.000224441
-0.000948403
-0.00044527
-0.000948656
-0.000693719
-0.000910516
-0.000953013
-0.000821375
-0.00119319
-0.000673738
-0.00136775
-0.000474311
-0.00141444
-0.000254775
-0.0012677
-7.44204e-05
-0.000891446
-0.000323821
-1.90724e-05
0.000157312
-6.30326e-05
0.000390485
-0.000118765
0.000544594
-0.000176934
0.000634559
-0.000232182
0.000677877
-0.000282082
0.000689871
-0.000326032
0.000682402
-0.000364439
0.000663907
-0.000398202
0.000639942
-0.000428427
0.000613826
-0.000456296
0.000587193
-0.000483012
0.000560348
-0.000509783
0.000532461
-0.000537801
0.000501613
-0.000568213
0.000464762
-0.000602051
0.000417711
-0.000640116
0.000355151
-0.000682786
0.000270884
-0.000729744
0.000158304
-0.000779281
1.08757e-05
-0.000828286
-0.000175436
-0.000870564
-0.000402992
-0.000896428
-0.000667856
-0.000891922
-0.000957519
-0.000839658
-0.00124545
-0.000723134
-0.00148428
-0.000537262
-0.00160031
-0.000305648
-0.00149932
-9.49863e-05
-0.00110211
-0.000418807
-2.36078e-05
0.00018092
-7.53273e-05
0.000442204
-0.000137446
0.000606713
-0.000198535
0.000695647
-0.000252898
0.00073224
-0.000298556
0.000735528
-0.000335553
0.000719399
-0.000364873
0.000693227
-0.000387839
0.000662908
-0.000405838
0.000631825
-0.000420223
0.000601578
-0.000432311
0.000572435
-0.00044341
0.00054356
-0.000454865
0.000513068
-0.000468091
0.000477988
-0.000484586
0.000434206
-0.000505902
0.000376466
-0.00053353
0.000298512
-0.000568653
0.000193426
-0.000611942
5.41647e-05
-0.000662139
-0.000125238
-0.000716004
-0.000349127
-0.000766032
-0.000617827
-0.000798953
-0.000924598
-0.000794609
-0.0012498
-0.000727977
-0.00155091
-0.000578893
-0.0017494
-0.000354484
-0.00172373
-0.000119559
-0.00133703
-0.000538367
-3.07925e-05
0.000211713
-9.32196e-05
0.000504631
-0.000162635
0.000676128
-0.00022529
0.000758303
-0.000275751
0.000782701
-0.000313157
0.000772934
-0.000338704
0.000744946
-0.000354279
0.000708802
-0.000361823
0.000670452
-0.000363107
0.000633109
-0.0003597
0.000598171
-0.00035303
0.000565765
-0.000344474
0.000535005
-0.000335464
0.000504057
-0.000327585
0.000470109
-0.000322674
0.000429295
-0.000322874
0.000376666
-0.000330625
0.000306263
-0.000348536
0.000211338
-0.000379125
8.47537e-05
-0.00042395
-8.04129e-05
-0.000482856
-0.000290221
-0.000552014
-0.000548669
-0.00062129
-0.000855322
-0.000671047
-0.00120004
-0.000670564
-0.00155139
-0.000583926
-0.00183604
-0.000393702
-0.00191395
-0.000148035
-0.0015827
-0.000686401
-4.26972e-05
0.00025441
-0.000119812
0.000581747
-0.000196505
0.000752821
-0.000257214
0.000819011
-0.000298163
0.000823651
-0.000320776
0.000795548
-0.000328159
0.000752329
-0.00032354
0.000704183
-0.00030972
0.000656631
-0.000288968
0.000612357
-0.000263114
0.000572317
-0.000233693
0.000536344
-0.000202104
0.000503415
-0.000169779
0.000471732
-0.00013835
0.000438681
-0.000109814
0.000400759
-8.66701e-05
0.000353522
-7.20046e-05
0.000291597
-6.94741e-05
0.000208807
-8.31336e-05
9.84132e-05
-0.000116972
-4.65743e-05
-0.000174059
-0.000233134
-0.000255009
-0.000467719
-0.000354968
-0.000755364
-0.000458726
-0.00109628
-0.000535034
-0.00147508
-0.000535333
-0.00183574
-0.000412437
-0.00203685
-0.000179292
-0.00181584
-0.000865693
-6.31043e-05
0.000317514
-0.000159392
0.000678035
-0.000240153
0.000833582
-0.000290663
0.000869521
-0.000311694
0.000844681
-0.000308795
0.000792649
-0.000287979
0.000731512
-0.000254295
0.0006705
-0.000211585
0.000613921
-0.000162654
0.000563426
-0.000109546
0.000519209
-5.38146e-05
0.000480613
3.22801e-06
0.000446373
6.02851e-05
0.000414675
0.000115848
0.000383118
0.00016798
0.000348627
0.000214117
0.000307386
0.000250895
0.000254819
0.000274064
0.000185638
0.000278508
9.39702e-05
0.000258441
-2.65081e-05
0.000208122
-0.000182815
0.00012263
-0.000382227
5.35911e-07
-0.00063327
-0.000151114
-0.000944632
-0.000307285
-0.00131891
-0.000414018
-0.001729
-0.000395075
-0.00205579
-0.000209444
-0.00200147
-0.00107514
-9.84719e-05
0.000415986
-0.000215831
0.000795394
-0.00028837
0.000906121
-0.000310484
0.000891635
-0.000292775
0.000826973
-0.000247385
0.000747259
-0.000184155
0.000668283
-0.000110119
0.000596464
-2.99801e-05
0.000533783
5.322e-05
0.000480225
0.000137538
0.000434891
0.000221694
0.000396457
0.000304726
0.000363341
0.000385705
0.000333696
0.000463478
0.000305345
0.000536414
0.000275691
0.000602165
0.000241635
0.000657451
0.000199532
0.000697891
0.000145199
0.000717887
7.39739e-05
0.00071056
-1.91811e-05
0.000668444
-0.000140699
0.000583129
-0.000296911
0.000447208
-0.00049735
0.000258281
-0.000755704
2.91067e-05
-0.00108974
-0.000195397
-0.0015045
-0.000317604
-0.00193358
-0.000228692
-0.00209039
-0.00130383
-0.000157434
0.00057342
-0.000282394
0.000920353
-0.000311481
0.000935208
-0.000268222
0.000848376
-0.000180732
0.000739483
-6.93565e-05
0.000635883
5.28001e-05
0.000546126
0.000177924
0.00047134
0.000301663
0.000410044
0.000421787
0.000360101
0.000537283
0.000319395
0.000647767
0.000285974
0.000753091
0.000258017
0.000853048
0.000233739
0.000947112
0.000211281
0.0010342
0.000188606
0.00111242
0.000163408
0.00117889
0.000133064
0.00122947
9.4623e-05
0.00125857
4.48748e-05
0.00125906
-1.96757e-05
0.00122249
-0.000104123
0.00113843
-0.000212855
0.00099518
-0.000354101
0.000781156
-0.000541679
0.000492029
-0.000800611
0.000154174
-0.00116664
-0.000139207
-0.0016402
-0.000217183
-0.00201241
-0.00152101
-0.000238667
0.000812087
-0.000294637
0.000976323
-0.000197806
0.000838376
-2.79056e-05
0.000678476
0.000167035
0.000544543
0.000363986
0.000438932
0.000552335
0.000357777
0.000727768
0.000295907
0.000889258
0.000248554
0.00103735
0.000212008
0.00117324
0.000183511
0.00129824
0.000160971
0.00141354
0.000142718
0.00151995
0.00012732
0.00161779
0.000113444
0.00170665
9.97497e-05
0.00178524
8.48143e-05
0.00185122
6.70829e-05
0.00190096
4.48837e-05
0.00192935
1.64853e-05
0.00193003
-2.03505e-05
0.001894
-6.80915e-05
0.00181062
-0.000129479
0.00166619
-0.000209674
0.00144315
-0.000318637
0.00112111
-0.000478571
0.000691675
-0.000737208
0.000216298
-0.00116483
-9.85656e-05
-0.00169755
-0.00161958
-0.00018762
0.000999707
3.41105e-05
0.000754593
0.000393629
0.000478858
0.000734682
0.000337423
0.00103454
0.000244686
0.00129306
0.000180408
0.00151443
0.000136408
0.00170415
0.000106185
0.00186773
8.49731e-05
0.00201001
6.97274e-05
0.00213499
5.85329e-05
0.00224585
5.01174e-05
0.00234499
4.35769e-05
0.00243409
3.82184e-05
0.00251407
3.34588e-05
0.00258507
2.87568e-05
0.00264631
2.35718e-05
0.00269605
1.73436e-05
0.0027314
9.52965e-06
0.00274795
-6.11918e-08
0.00274137
-1.37737e-05
0.0027033
-3.00165e-05
0.00262492
-5.11067e-05
0.00249374
-7.84871e-05
0.00229117
-0.00011607
0.00198725
-0.000174654
0.00153647
-0.000286419
0.000915819
-0.00054418
0.000258749
-0.00104048
-0.00136083
0.000999707
0.0017543
0.00223316
0.00257058
0.00281527
0.00299567
0.00313208
0.00323827
0.00332324
0.00339297
0.0034515
0.00350162
0.0035452
0.00358341
0.00361687
0.00364563
0.0036692
0.00368655
0.00369608
0.00369601
0.00368224
0.00365222
0.00360112
0.00352263
0.00340656
0.00323191
0.00294549
0.00240131
0.00136083
)
;

boundaryField
{
    movingWall
    {
        type            calculated;
        value           uniform 0;
    }
    fixedWalls
    {
        type            calculated;
        value           uniform 0;
    }
    frontAndBack
    {
        type            empty;
        value           nonuniform 0();
    }
}


// ************************************************************************* //
