/*--------------------------------*- C++ -*----------------------------------*\
  =========                 |
  \\      /  F ield         | OpenFOAM: The Open Source CFD Toolbox
   \\    /   O peration     | Website:  https://openfoam.org
    \\  /    A nd           | Version:  7
     \\/     M anipulation  |
\*---------------------------------------------------------------------------*/
FoamFile
{
    version     2.0;
    format      ascii;
    class       volVectorField;
    location    "1.8";
    object      U;
}
// * * * * * * * * * * * * * * * * * * * * * * * * * * * * * * * * * * * * * //

dimensions      [0 1 -1 0 0 0 0];

internalField   nonuniform List<vector> 
900
(
(7.85513e-05 -7.7908e-05 0)
(7.22404e-05 5.49359e-06 0)
(-0.00025116 0.000114762 0)
(-0.00084338 0.0002004 0)
(-0.00163008 0.000255926 0)
(-0.00254094 0.000286098 0)
(-0.00351455 0.000297546 0)
(-0.00450275 0.000295828 0)
(-0.00546882 0.000284715 0)
(-0.00638393 0.000266371 0)
(-0.00722393 0.000241751 0)
(-0.00796686 0.000211002 0)
(-0.00859143 0.000173837 0)
(-0.00907624 0.000129871 0)
(-0.00940005 7.8926e-05 0)
(-0.0095427 2.13062e-05 0)
(-0.00948682 -4.19966e-05 0)
(-0.00922006 -0.000109072 0)
(-0.00873782 -0.000177008 0)
(-0.00804594 -0.000241912 0)
(-0.00716317 -0.00029906 0)
(-0.00612293 -0.000343207 0)
(-0.00497389 -0.000369026 0)
(-0.0037791 -0.000371591 0)
(-0.00261367 -0.000346815 0)
(-0.00156083 -0.000291851 0)
(-0.000704726 -0.000206007 0)
(-0.000116334 -9.43164e-05 0)
(0.000145064 2.19524e-05 0)
(9.33325e-05 9.21648e-05 0)
(-2.43805e-06 -7.45273e-05 0)
(-0.000382511 0.000382775 0)
(-0.00144667 0.00090294 0)
(-0.00306245 0.00132601 0)
(-0.00509595 0.00162014 0)
(-0.00740956 0.00179335 0)
(-0.00987206 0.00186612 0)
(-0.0123711 0.00185957 0)
(-0.0148145 0.00179045 0)
(-0.0171257 0.00167015 0)
(-0.0192394 0.0015052 0)
(-0.0210967 0.00129858 0)
(-0.0226427 0.00105126 0)
(-0.0238244 0.00076374 0)
(-0.024592 0.000437595 0)
(-0.0249001 7.68421e-05 0)
(-0.0247121 -0.000310944 0)
(-0.0240046 -0.000713539 0)
(-0.0227732 -0.00111388 0)
(-0.021038 -0.00149019 0)
(-0.0188487 -0.00181687 0)
(-0.0162877 -0.00206627 0)
(-0.0134708 -0.00221116 0)
(-0.0105443 -0.00222758 0)
(-0.00767812 -0.00209803 0)
(-0.00505492 -0.00181489 0)
(-0.00285259 -0.00138565 0)
(-0.00121783 -0.000843535 0)
(-0.000247876 -0.000271276 0)
(3.09903e-05 0.000144281 0)
(-0.000115265 0.000248284 0)
(-0.000933247 0.00145321 0)
(-0.0027559 0.00268377 0)
(-0.00531135 0.00368902 0)
(-0.00841172 0.00440448 0)
(-0.0118799 0.00483645 0)
(-0.0155418 0.00502047 0)
(-0.0192429 0.00499871 0)
(-0.0228521 0.00480801 0)
(-0.026258 0.00447562 0)
(-0.0293638 0.00401906 0)
(-0.0320824 0.00344822 0)
(-0.0343331 0.0027685 0)
(-0.0360399 0.00198438 0)
(-0.0371325 0.00110292 0)
(-0.0375486 0.000137139 0)
(-0.0372392 -0.000891249 0)
(-0.0361748 -0.00194969 0)
(-0.0343531 -0.00299406 0)
(-0.031806 -0.00396923 0)
(-0.0286064 -0.00481145 0)
(-0.0248722 -0.00545286 0)
(-0.0207664 -0.00582762 0)
(-0.0164925 -0.00587958 0)
(-0.0122848 -0.00557071 0)
(-0.00839156 -0.00489048 0)
(-0.00505123 -0.00386766 0)
(-0.0024576 -0.0025867 0)
(-0.000750385 -0.00121494 0)
(-6.65739e-05 -8.5799e-05 0)
(-0.000214326 0.000868801 0)
(-0.00144037 0.00314624 0)
(-0.00397685 0.00528296 0)
(-0.00739247 0.0070002 0)
(-0.0114355 0.00822062 0)
(-0.0158939 0.00895653 0)
(-0.0205619 0.00926186 0)
(-0.025256 0.00920209 0)
(-0.0298186 0.00883654 0)
(-0.0341141 0.00821091 0)
(-0.0380234 0.00735621 0)
(-0.0414388 0.00629154 0)
(-0.0442607 0.00502888 0)
(-0.0463956 0.00357891 0)
(-0.0477574 0.00195688 0)
(-0.0482702 0.000188264 0)
(-0.0478744 -0.00168644 0)
(-0.0465344 -0.00360842 0)
(-0.044247 -0.00549891 0)
(-0.041051 -0.00726042 0)
(-0.0370348 -0.00878108 0)
(-0.0323413 -0.00994245 0)
(-0.0271686 -0.0106307 0)
(-0.0217643 -0.0107501 0)
(-0.0164126 -0.0102385 0)
(-0.0114153 -0.00908308 0)
(-0.0070619 -0.00733779 0)
(-0.00359136 -0.00514245 0)
(-0.00119957 -0.0027475 0)
(-0.000148558 -0.000585101 0)
(-0.000293641 0.00174363 0)
(-0.00187745 0.00540079 0)
(-0.00506077 0.00862001 0)
(-0.00925565 0.0111483 0)
(-0.0141424 0.0129248 0)
(-0.0194734 0.0139827 0)
(-0.0250151 0.0144018 0)
(-0.030562 0.0142745 0)
(-0.0359383 0.0136846 0)
(-0.0409922 0.0126979 0)
(-0.0455894 0.01136 0)
(-0.0496079 0.00970033 0)
(-0.0529341 0.00773826 0)
(-0.0554605 0.00549163 0)
(-0.057087 0.00298507 0)
(-0.0577244 0.000258241 0)
(-0.0573008 -0.00262707 0)
(-0.0557705 -0.00558184 0)
(-0.053124 -0.00848734 0)
(-0.0493998 -0.0111968 0)
(-0.0446936 -0.0135418 0)
(-0.0391657 -0.015344 0)
(-0.0330425 -0.0164324 0)
(-0.0266106 -0.0166641 0)
(-0.0202023 -0.0159471 0)
(-0.0141734 -0.0142642 0)
(-0.00886926 -0.0116942 0)
(-0.00458103 -0.00843064 0)
(-0.00156702 -0.00479832 0)
(-0.000205885 -0.00129838 0)
(-0.000356902 0.00283386 0)
(-0.0022506 0.00815542 0)
(-0.00601323 0.0126292 0)
(-0.010914 0.0160631 0)
(-0.0165663 0.0184392 0)
(-0.0226858 0.0198293 0)
(-0.029013 0.0203494 0)
(-0.0353243 0.0201246 0)
(-0.0414308 0.0192665 0)
(-0.0471702 0.0178623 0)
(-0.0523988 0.015973 0)
(-0.0569849 0.0136382 0)
(-0.060804 0.0108842 0)
(-0.0637368 0.00773541 0)
(-0.0656693 0.00422506 0)
(-0.0664965 0.000406749 0)
(-0.06613 -0.00363579 0)
(-0.0645072 -0.00778125 0)
(-0.0616042 -0.0118668 0)
(-0.0574498 -0.0156899 0)
(-0.0521381 -0.0190163 0)
(-0.0458395 -0.0215969 0)
(-0.0388049 -0.0231908 0)
(-0.0313607 -0.023596 0)
(-0.0238931 -0.0226819 0)
(-0.0168226 -0.0204208 0)
(-0.0105634 -0.0169148 0)
(-0.00547145 -0.0124117 0)
(-0.00187175 -0.00731062 0)
(-0.000243669 -0.00218147 0)
(-0.000409333 0.00410702 0)
(-0.00257594 0.0113529 0)
(-0.00686242 0.0172464 0)
(-0.0124109 0.0216787 0)
(-0.0187712 0.0246971 0)
(-0.0256229 0.0264293 0)
(-0.0326815 0.027039 0)
(-0.039708 0.0266917 0)
(-0.0465044 0.0255309 0)
(-0.0529022 0.023667 0)
(-0.0587525 0.0211767 0)
(-0.0639175 0.0181086 0)
(-0.068265 0.0144943 0)
(-0.0716641 0.010362 0)
(-0.0739856 0.00575068 0)
(-0.0751056 0.000725399 0)
(-0.0749122 -0.00460994 0)
(-0.0733174 -0.0101017 0)
(-0.0702715 -0.0155402 0)
(-0.0657815 -0.0206604 0)
(-0.0599287 -0.025152 0)
(-0.052885 -0.02868 0)
(-0.0449218 -0.0309164 0)
(-0.036409 -0.0315823 0)
(-0.0277983 -0.0304926 0)
(-0.0195928 -0.0276003 0)
(-0.0122968 -0.0230284 0)
(-0.00634954 -0.0170853 0)
(-0.00215099 -0.0102572 0)
(-0.00027026 -0.00320536 0)
(-0.000455482 0.00554116 0)
(-0.00287096 0.0149513 0)
(-0.00764341 0.0224231 0)
(-0.0138002 0.0279465 0)
(-0.020832 0.0316524 0)
(-0.0283832 0.0337402 0)
(-0.0361462 0.034434 0)
(-0.0438689 0.0339478 0)
(-0.0513474 0.032462 0)
(-0.058411 0.0301127 0)
(-0.0649094 0.0269918 0)
(-0.0707026 0.0231553 0)
(-0.0756522 0.0186365 0)
(-0.0796169 0.013463 0)
(-0.0824509 0.00767459 0)
(-0.0840062 0.00134204 0)
(-0.0841403 -0.00541511 0)
(-0.0827282 -0.0124135 0)
(-0.0796808 -0.0193956 0)
(-0.0749671 -0.026028 0)
(-0.0686398 -0.0319116 0)
(-0.0608593 -0.0366062 0)
(-0.0519118 -0.0396725 0)
(-0.0422138 -0.0407274 0)
(-0.0322974 -0.039508 0)
(-0.0227732 -0.0359318 0)
(-0.0142662 -0.030141 0)
(-0.00732752 -0.0225169 0)
(-0.00244941 -0.0136593 0)
(-0.000293886 -0.00436368 0)
(-0.000498789 0.00712415 0)
(-0.00315114 0.0189255 0)
(-0.00839001 0.0281306 0)
(-0.0151354 0.0348388 0)
(-0.0228216 0.039281 0)
(-0.0310598 0.0417436 0)
(-0.0395212 0.0425236 0)
(-0.0479431 0.0418928 0)
(-0.0561193 0.040074 0)
(-0.0638808 0.0372313 0)
(-0.0710803 0.0334719 0)
(-0.077579 0.0288564 0)
(-0.0832357 0.0234153 0)
(-0.0878999 0.017169 0)
(-0.0914078 0.0101499 0)
(-0.0935835 0.00242608 0)
(-0.0942452 -0.00587566 0)
(-0.0932185 -0.0145488 0)
(-0.0903569 -0.0232898 0)
(-0.085571 -0.0316924 0)
(-0.0788624 -0.0392546 0)
(-0.0703603 -0.0454074 0)
(-0.0603529 -0.049566 0)
(-0.0493035 -0.0512045 0)
(-0.03784 -0.0499447 0)
(-0.0267131 -0.0456434 0)
(-0.0167112 -0.0384562 0)
(-0.00854005 -0.0288568 0)
(-0.00281758 -0.0175993 0)
(-0.000322468 -0.00567548 0)
(-0.000541758 0.00885175 0)
(-0.00342918 0.0232666 0)
(-0.00913163 0.0343584 0)
(-0.0164636 0.0423469 0)
(-0.0248043 0.0475775 0)
(-0.0337329 0.0504393 0)
(-0.0429015 0.0513154 0)
(-0.05204 0.0505452 0)
(-0.0609436 0.0484003 0)
(-0.0694498 0.0450757 0)
(-0.0774193 0.0406934 0)
(-0.0847195 0.0353159 0)
(-0.0912108 0.0289646 0)
(-0.0967362 0.0216446 0)
(-0.101114 0.01337 0)
(-0.104139 0.0041935 0)
(-0.10558 -0.00576397 0)
(-0.105201 -0.0162845 0)
(-0.102778 -0.0270259 0)
(-0.098135 -0.0375074 0)
(-0.091193 -0.0471112 0)
(-0.0820197 -0.0551104 0)
(-0.0708821 -0.0607305 0)
(-0.0582815 -0.0632474 0)
(-0.0449553 -0.0621114 0)
(-0.0318322 -0.0570757 0)
(-0.0199223 -0.0482954 0)
(-0.0101499 -0.036359 0)
(-0.00331494 -0.0222325 0)
(-0.000364535 -0.00718797 0)
(-0.000586203 0.0107258 0)
(-0.00371522 0.0279785 0)
(-0.0098926 0.041112 0)
(-0.017824 0.0504775 0)
(-0.0268325 0.0565508 0)
(-0.0364659 0.0598398 0)
(-0.0463587 0.060828 0)
(-0.0562372 0.0599335 0)
(-0.0659024 0.0574838 0)
(-0.0752041 0.0537084 0)
(-0.084017 0.0487446 0)
(-0.0922213 0.0426527 0)
(-0.0996852 0.0354391 0)
(-0.106251 0.0270826 0)
(-0.111723 0.0175656 0)
(-0.115862 0.00690844 0)
(-0.118389 -0.0047931 0)
(-0.118987 -0.0173287 0)
(-0.117333 -0.0303321 0)
(-0.113136 -0.0432539 0)
(-0.106194 -0.0553504 0)
(-0.0964705 -0.0657056 0)
(-0.0841723 -0.0733003 0)
(-0.0698154 -0.0771363 0)
(-0.0542516 -0.0764083 0)
(-0.0386282 -0.0706952 0)
(-0.0242516 -0.0601189 0)
(-0.0123563 -0.0454043 0)
(-0.00401429 -0.0278035 0)
(-0.000430339 -0.00898189 0)
(-0.000633496 0.0127531 0)
(-0.00401747 0.033076 0)
(-0.0106929 0.0484102 0)
(-0.0192486 0.0592499 0)
(-0.0289473 0.0662195 0)
(-0.0393047 0.0699639 0)
(-0.0499399 0.0710831 0)
(-0.0605786 0.0700864 0)
(-0.0710333 0.067366 0)
(-0.0811722 0.0631903 0)
(-0.0908918 0.0577122 0)
(-0.100093 0.0509876 0)
(-0.108662 0.0430001 0)
(-0.116446 0.0336912 0)
(-0.123245 0.0229948 0)
(-0.12879 0.0108766 0)
(-0.132748 -0.00261851 0)
(-0.134716 -0.0173128 0)
(-0.134248 -0.0328449 0)
(-0.130902 -0.0486131 0)
(-0.124308 -0.0637456 0)
(-0.114267 -0.0771082 0)
(-0.100866 -0.0873728 0)
(-0.0845903 -0.0931682 0)
(-0.0663916 -0.0933133 0)
(-0.0476703 -0.0870989 0)
(-0.0301174 -0.0745455 0)
(-0.0154027 -0.0565248 0)
(-0.00500603 -0.0346665 0)
(-0.000532903 -0.0111794 0)
(-0.000684814 0.0149441 0)
(-0.00434321 0.0385833 0)
(-0.0115502 0.0562818 0)
(-0.0207637 0.0686917 0)
(-0.03118 0.0766067 0)
(-0.0422802 0.0808299 0)
(-0.0536687 0.082097 0)
(-0.0650747 0.0810228 0)
(-0.0763277 0.0780744 0)
(-0.0873216 0.0735649 0)
(-0.0979834 0.0676651 0)
(-0.108245 0.0604237 0)
(-0.118019 0.0517953 0)
(-0.127175 0.0416721 0)
(-0.135513 0.029921 0)
(-0.142749 0.0164278 0)
(-0.148495 0.00115316 0)
(-0.152261 -0.015798 0)
(-0.153466 -0.0341061 0)
(-0.151481 -0.0531491 0)
(-0.145716 -0.071941 0)
(-0.135741 -0.0891093 0)
(-0.121445 -0.102951 0)
(-0.103204 -0.111602 0)
(-0.0820226 -0.113342 0)
(-0.0595636 -0.106998 0)
(-0.0379937 -0.0923613 0)
(-0.0195779 -0.0704277 0)
(-0.00640132 -0.0433083 0)
(-0.000688954 -0.0139544 0)
(-0.000741453 0.0173133 0)
(-0.00470015 0.0445328 0)
(-0.0124822 0.0647648 0)
(-0.0223948 0.0788362 0)
(-0.033557 0.087735 0)
(-0.0454115 0.092449 0)
(-0.0575487 0.0938711 0)
(-0.0697044 0.0927394 0)
(-0.0817312 0.0896074 0)
(-0.093556 0.0848409 0)
(-0.105145 0.0786313 0)
(-0.116472 0.0710201 0)
(-0.12749 0.0619275 0)
(-0.1381 0.0511851 0)
(-0.148125 0.0385738 0)
(-0.157276 0.0238716 0)
(-0.165128 0.00691649 0)
(-0.171108 -0.0123112 0)
(-0.174493 -0.033584 0)
(-0.17445 -0.0563109 0)
(-0.170124 -0.0794274 0)
(-0.160784 -0.101324 0)
(-0.146019 -0.119866 0)
(-0.125987 -0.132569 0)
(-0.101641 -0.136964 0)
(-0.0748694 -0.131163 0)
(-0.0483769 -0.114502 0)
(-0.0252103 -0.0880071 0)
(-0.00833384 -0.0543701 0)
(-0.000919965 -0.0175439 0)
(-0.000805239 0.0198792 0)
(-0.00509838 0.0509667 0)
(-0.0135109 0.0739059 0)
(-0.024171 0.0897195 0)
(-0.0361054 0.0996218 0)
(-0.0487127 0.104817 0)
(-0.0615685 0.106381 0)
(-0.0744191 0.105197 0)
(-0.0871453 0.101917 0)
(-0.0997142 0.0969697 0)
(-0.11214 0.0905717 0)
(-0.124447 0.0827585 0)
(-0.136641 0.0734132 0)
(-0.148672 0.0622979 0)
(-0.160402 0.0490902 0)
(-0.171561 0.0334316 0)
(-0.181711 0.0149958 0)
(-0.190216 -0.00641412 0)
(-0.196228 -0.0307306 0)
(-0.198711 -0.0574668 0)
(-0.196525 -0.0855427 0)
(-0.188574 -0.113146 0)
(-0.17405 -0.137688 0)
(-0.152741 -0.155945 0)
(-0.125386 -0.164468 0)
(-0.0939664 -0.16031 0)
(-0.0617194 -0.14199 0)
(-0.0326496 -0.110333 0)
(-0.0109607 -0.0686639 0)
(-0.00125381 -0.022261 0)
(-0.000879125 0.0226671 0)
(-0.00555296 0.0579394 0)
(-0.0146679 0.083762 0)
(-0.0261325 0.10138 0)
(-0.0388607 0.112274 0)
(-0.0521991 0.117905 0)
(-0.0657079 0.119566 0)
(-0.0791472 0.118304 0)
(-0.0924312 0.11489 0)
(-0.105573 0.109821 0)
(-0.118639 0.103348 0)
(-0.131714 0.0955028 0)
(-0.144866 0.0861322 0)
(-0.15811 0.0749237 0)
(-0.171363 0.061439 0)
(-0.184403 0.0451593 0)
(-0.196813 0.0255556 0)
(-0.207935 0.00219881 0)
(-0.216836 -0.0250797 0)
(-0.222317 -0.0559829 0)
(-0.222968 -0.0895113 0)
(-0.217309 -0.123731 0)
(-0.204044 -0.155634 0)
(-0.182431 -0.181193 0)
(-0.152758 -0.195755 0)
(-0.116847 -0.194903 0)
(-0.0783179 -0.175796 0)
(-0.0422327 -0.1386 0)
(-0.0144624 -0.087177 0)
(-0.00172773 -0.0285083 0)
(-0.000968121 0.0257121 0)
(-0.00608785 0.0655248 0)
(-0.0160015 0.0944052 0)
(-0.0283396 0.113857 0)
(-0.0418757 0.125685 0)
(-0.0558955 0.131655 0)
(-0.069944 0.133315 0)
(-0.0837992 0.131905 0)
(-0.0974132 0.128326 0)
(-0.110848 0.123158 0)
(-0.124229 0.11669 0)
(-0.137701 0.108958 0)
(-0.1514 0.0997754 0)
(-0.165415 0.0887548 0)
(-0.17974 0.0753378 0)
(-0.194228 0.058831 0)
(-0.208523 0.0384753 0)
(-0.222006 0.0135626 0)
(-0.233733 -0.0163828 0)
(-0.242419 -0.0513483 0)
(-0.24646 -0.0905369 0)
(-0.244029 -0.13203 0)
(-0.233311 -0.172518 0)
(-0.212886 -0.207206 0)
(-0.182306 -0.230096 0)
(-0.142846 -0.234874 0)
(-0.0981447 -0.216611 0)
(-0.0542217 -0.174005 0)
(-0.019041 -0.111054 0)
(-0.00239322 -0.0367938 0)
(-0.00108082 0.0290654 0)
(-0.00674171 0.0738253 0)
(-0.017587 0.105929 0)
(-0.0308842 0.127195 0)
(-0.0452309 0.139826 0)
(-0.0598437 0.145962 0)
(-0.0742556 0.147452 0)
(-0.0882694 0.145755 0)
(-0.101881 0.141918 0)
(-0.115204 0.136612 0)
(-0.128419 0.13017 0)
(-0.141732 0.122638 0)
(-0.155347 0.113802 0)
(-0.169429 0.103208 0)
(-0.18406 0.090183 0)
(-0.199195 0.0738599 0)
(-0.214588 0.0532407 0)
(-0.229728 0.0273136 0)
(-0.243758 -0.00475389 0)
(-0.255433 -0.0433336 0)
(-0.26309 -0.0879531 0)
(-0.264677 -0.136899 0)
(-0.257914 -0.186776 0)
(-0.240626 -0.232213 0)
(-0.21136 -0.265894 0)
(-0.170346 -0.279279 0)
(-0.120613 -0.264498 0)
(-0.0686971 -0.217533 0)
(-0.0249093 -0.141537 0)
(-0.003323 -0.0477467 0)
(-0.00123219 0.0328054 0)
(-0.00757739 0.0829892 0)
(-0.0195417 0.118458 0)
(-0.0339046 0.141436 0)
(-0.0490445 0.154638 0)
(-0.0641056 0.160665 0)
(-0.0786205 0.161719 0)
(-0.0924297 0.159507 0)
(-0.105581 0.155236 0)
(-0.118244 0.149668 0)
(-0.13065 0.143185 0)
(-0.14306 0.135846 0)
(-0.155737 0.12742 0)
(-0.168919 0.117401 0)
(-0.182782 0.105019 0)
(-0.197399 0.0892519 0)
(-0.212676 0.0688791 0)
(-0.228284 0.0425915 0)
(-0.243574 0.00918199 0)
(-0.257483 -0.0321597 0)
(-0.268475 -0.0814154 0)
(-0.274485 -0.137293 0)
(-0.272938 -0.196626 0)
(-0.260963 -0.25383 0)
(-0.235929 -0.300554 0)
(-0.196517 -0.325966 0)
(-0.144295 -0.318459 0)
(-0.0853909 -0.269608 0)
(-0.0322657 -0.179846 0)
(-0.00462052 -0.0621312 0)
(-0.0014489 0.0370549 0)
(-0.00869786 0.093234 0)
(-0.0220462 0.132162 0)
(-0.0376033 0.156624 0)
(-0.0534791 0.170017 0)
(-0.0687576 0.175517 0)
(-0.0829979 0.175749 0)
(-0.0961033 0.172688 0)
(-0.108191 0.167705 0)
(-0.119488 0.161651 0)
(-0.130279 0.154953 0)
(-0.140868 0.147685 0)
(-0.151566 0.13961 0)
(-0.162674 0.130187 0)
(-0.174456 0.118577 0)
(-0.187111 0.103642 0)
(-0.200725 0.0839857 0)
(-0.215213 0.0580434 0)
(-0.230229 0.0242642 0)
(-0.245046 -0.0186025 0)
(-0.258478 -0.0710987 0)
(-0.26871 -0.13255 0)
(-0.273156 -0.200378 0)
(-0.268482 -0.269314 0)
(-0.250927 -0.330573 0)
(-0.217268 -0.371392 0)
(-0.166679 -0.375983 0)
(-0.103465 -0.329613 0)
(-0.0412455 -0.226942 0)
(-0.00643274 -0.0808515 0)
(-0.00178023 0.0420128 0)
(-0.0102744 0.104883 0)
(-0.0253774 0.147264 0)
(-0.042266 0.172781 0)
(-0.0587382 0.185774 0)
(-0.0738615 0.190153 0)
(-0.0872773 0.189029 0)
(-0.0989975 0.184668 0)
(-0.109236 0.178592 0)
(-0.118296 0.171728 0)
(-0.12651 0.164536 0)
(-0.134223 0.157101 0)
(-0.141782 0.149187 0)
(-0.149533 0.140239 0)
(-0.157817 0.129386 0)
(-0.166953 0.115429 0)
(-0.177215 0.0968607 0)
(-0.188786 0.0719458 0)
(-0.201691 0.0388703 0)
(-0.215665 -0.00401142 0)
(-0.230056 -0.0578439 0)
(-0.243568 -0.122673 0)
(-0.253977 -0.196857 0)
(-0.257912 -0.276061 0)
(-0.250809 -0.351946 0)
(-0.227525 -0.410742 0)
(-0.184094 -0.432745 0)
(-0.121285 -0.395315 0)
(-0.0518439 -0.283161 0)
(-0.00896761 -0.104944 0)
(-0.00232066 0.0480103 0)
(-0.0125971 0.118416 0)
(-0.029955 0.164044 0)
(-0.0482743 0.18987 0)
(-0.0650315 0.201576 0)
(-0.0793837 0.204011 0)
(-0.0911587 0.200838 0)
(-0.100553 0.19461 0)
(-0.107926 0.186974 0)
(-0.11368 0.178902 0)
(-0.118212 0.170861 0)
(-0.121901 0.16294 0)
(-0.125123 0.154901 0)
(-0.128257 0.146197 0)
(-0.131697 0.135959 0)
(-0.135862 0.122985 0)
(-0.141195 0.105744 0)
(-0.148137 0.0824286 0)
(-0.157091 0.0510733 0)
(-0.168339 0.0097484 0)
(-0.181839 -0.0431745 0)
(-0.197011 -0.108533 0)
(-0.212405 -0.185835 0)
(-0.225147 -0.272236 0)
(-0.230509 -0.360883 0)
(-0.221887 -0.438465 0)
(-0.191927 -0.482654 0)
(-0.136267 -0.462357 0)
(-0.063803 -0.347694 0)
(-0.0125129 -0.135553 0)
(-0.00325695 0.0556175 0)
(-0.0161645 0.134541 0)
(-0.0363985 0.182805 0)
(-0.0560811 0.207688 0)
(-0.0724566 0.216814 0)
(-0.0849941 0.216209 0)
(-0.0938851 0.210135 0)
(-0.099628 0.20139 0)
(-0.1028 0.19169 0)
(-0.103941 0.181996 0)
(-0.103531 0.172749 0)
(-0.101993 0.164013 0)
(-0.0997231 0.155546 0)
(-0.097118 0.146816 0)
(-0.0946044 0.136989 0)
(-0.0926689 0.124915 0)
(-0.0918789 0.109119 0)
(-0.092891 0.0878275 0)
(-0.096435 0.0590567 0)
(-0.103262 0.0207465 0)
(-0.11399 -0.029024 0)
(-0.128884 -0.0917981 0)
(-0.147489 -0.16824 0)
(-0.167985 -0.25733 0)
(-0.18633 -0.354656 0)
(-0.195443 -0.449186 0)
(-0.185094 -0.518391 0)
(-0.144863 -0.524031 0)
(-0.0764242 -0.417932 0)
(-0.0174326 -0.17387 0)
(-0.00496324 0.0658488 0)
(-0.0218317 0.154259 0)
(-0.0455582 0.203752 0)
(-0.0660526 0.225646 0)
(-0.0806595 0.230356 0)
(-0.089582 0.225324 0)
(-0.0936549 0.21538 0)
(-0.0938426 0.203464 0)
(-0.0910299 0.191253 0)
(-0.0859445 0.179618 0)
(-0.0791664 0.168914 0)
(-0.0711673 0.159145 0)
(-0.0623571 0.150046 0)
(-0.0531313 0.141099 0)
(-0.0439189 0.131528 0)
(-0.03523 0.120273 0)
(-0.0276991 0.105981 0)
(-0.0221177 0.0870121 0)
(-0.0194478 0.0614942 0)
(-0.0208029 0.0274065 0)
(-0.0273598 -0.0172947 0)
(-0.0401756 -0.0745643 0)
(-0.0598844 -0.145997 0)
(-0.0860894 -0.23237 0)
(-0.116296 -0.332284 0)
(-0.144334 -0.438745 0)
(-0.158513 -0.532378 0)
(-0.142607 -0.571476 0)
(-0.0882066 -0.488729 0)
(-0.0240577 -0.220914 0)
(-0.00817804 0.0805523 0)
(-0.0310152 0.178882 0)
(-0.058362 0.226629 0)
(-0.0778769 0.24228 0)
(-0.0878956 0.240093 0)
(-0.0900883 0.229016 0)
(-0.0863281 0.214256 0)
(-0.0782367 0.198677 0)
(-0.0670893 0.183743 0)
(-0.0538245 0.170112 0)
(-0.0391188 0.157972 0)
(-0.0234705 0.147218 0)
(-0.00727463 0.137531 0)
(0.00910908 0.128398 0)
(0.0252925 0.119104 0)
(0.0407963 0.108705 0)
(0.0549892 0.0960169 0)
(0.067036 0.079606 0)
(0.0758593 0.057817 0)
(0.0801253 0.0288187 0)
(0.0782676 -0.00934258 0)
(0.0686219 -0.0587264 0)
(0.0495864 -0.121441 0)
(0.0200482 -0.199615 0)
(-0.0196167 -0.294751 0)
(-0.0656481 -0.405067 0)
(-0.10714 -0.517938 0)
(-0.123889 -0.594297 0)
(-0.0961134 -0.551645 0)
(-0.0322669 -0.277015 0)
(-0.0142492 0.103089 0)
(-0.045752 0.209696 0)
(-0.0748504 0.249828 0)
(-0.0886252 0.254323 0)
(-0.0885067 0.242178 0)
(-0.0787393 0.223497 0)
(-0.0626531 0.203355 0)
(-0.0426398 0.184129 0)
(-0.0203412 0.1668 0)
(0.00317206 0.151643 0)
(0.0272192 0.138578 0)
(0.0513645 0.12733 0)
(0.0753069 0.117497 0)
(0.0987929 0.108556 0)
(0.12154 0.0998532 0)
(0.143167 0.0905758 0)
(0.163118 0.0797338 0)
(0.180607 0.0661477 0)
(0.194557 0.0484551 0)
(0.203555 0.0251301 0)
(0.205822 -0.00551015 0)
(0.199329 -0.0453228 0)
(0.181778 -0.0964752 0)
(0.150818 -0.161723 0)
(0.104634 -0.244642 0)
(0.0434928 -0.348598 0)
(-0.0252064 -0.470354 0)
(-0.0810148 -0.581484 0)
(-0.0942988 -0.594522 0)
(-0.0404584 -0.341573 0)
(-0.0250693 0.139454 0)
(-0.0673673 0.245941 0)
(-0.0899531 0.267748 0)
(-0.0867635 0.254566 0)
(-0.066478 0.229657 0)
(-0.0369315 0.202854 0)
(-0.00286607 0.178007 0)
(0.0328787 0.15634 0)
(0.0686661 0.13798 0)
(0.103626 0.122636 0)
(0.13734 0.109875 0)
(0.169642 0.0992211 0)
(0.200475 0.0901783 0)
(0.229808 0.0822194 0)
(0.25755 0.0747622 0)
(0.283487 0.0671407 0)
(0.307209 0.0585814 0)
(0.328052 0.0481874 0)
(0.345033 0.0349346 0)
(0.356778 0.0176747 0)
(0.361485 -0.00487796 0)
(0.35698 -0.0341156 0)
(0.340564 -0.0718854 0)
(0.309096 -0.120806 0)
(0.259075 -0.18517 0)
(0.187371 -0.271893 0)
(0.0953907 -0.387777 0)
(-0.00213252 -0.522637 0)
(-0.0723134 -0.60144 0)
(-0.043573 -0.412586 0)
(-0.0404001 0.200815 0)
(-0.087919 0.277872 0)
(-0.0773883 0.262774 0)
(-0.0353747 0.226744 0)
(0.0189313 0.190165 0)
(0.0759951 0.158515 0)
(0.131553 0.1327 0)
(0.18373 0.112098 0)
(0.231904 0.0957495 0)
(0.276091 0.0827632 0)
(0.316584 0.0723999 0)
(0.353769 0.0640476 0)
(0.38802 0.0571816 0)
(0.419635 0.051325 0)
(0.448785 0.0460122 0)
(0.475467 0.0407572 0)
(0.499453 0.0350295 0)
(0.52024 0.0282391 0)
(0.536995 0.0197274 0)
(0.548475 0.00876453 0)
(0.553066 -0.00547616 0)
(0.548641 -0.0238197 0)
(0.532409 -0.0475003 0)
(0.500975 -0.0783999 0)
(0.449969 -0.120063 0)
(0.373733 -0.179951 0)
(0.267258 -0.272047 0)
(0.132748 -0.409111 0)
(-0.0104253 -0.550975 0)
(-0.0271897 -0.474365 0)
(-0.0333015 0.295362 0)
(-0.0451379 0.275881 0)
(0.0586154 0.202533 0)
(0.162871 0.1513 0)
(0.255076 0.114638 0)
(0.334809 0.0878921 0)
(0.403178 0.0686358 0)
(0.461643 0.0547792 0)
(0.511827 0.0446708 0)
(0.555254 0.0371725 0)
(0.593206 0.0315207 0)
(0.626709 0.0271815 0)
(0.65656 0.0237579 0)
(0.683342 0.0209326 0)
(0.707428 0.018429 0)
(0.728972 0.0159837 0)
(0.747889 0.0133279 0)
(0.763828 0.0101768 0)
(0.776148 0.00622802 0)
(0.783797 0.00115682 0)
(0.785564 -0.00527261 0)
(0.779644 -0.013592 0)
(0.763646 -0.0243009 0)
(0.734576 -0.0382462 0)
(0.688227 -0.0572866 0)
(0.618089 -0.0861619 0)
(0.513941 -0.137826 0)
(0.361405 -0.241168 0)
(0.141671 -0.407169 0)
(0.0580384 -0.458194 0)
(0.303527 0.18106 0)
(0.383838 0.145003 0)
(0.563758 0.0920529 0)
(0.691041 0.0596546 0)
(0.774256 0.0395848 0)
(0.833271 0.0266226 0)
(0.877542 0.0182981 0)
(0.911643 0.0129857 0)
(0.938548 0.00955744 0)
(0.960342 0.00729863 0)
(0.978445 0.00577544 0)
(0.99381 0.00471951 0)
(1.00708 0.00395702 0)
(1.01869 0.00336797 0)
(1.02888 0.00286179 0)
(1.03775 0.00236222 0)
(1.04523 0.0017984 0)
(1.05111 0.00109913 0)
(1.05502 0.000197421 0)
(1.05645 -0.000986779 0)
(1.05465 -0.00238642 0)
(1.04859 -0.00424656 0)
(1.03721 -0.00664556 0)
(1.01898 -0.00973477 0)
(0.991542 -0.0139437 0)
(0.950631 -0.0205204 0)
(0.88654 -0.0332156 0)
(0.77777 -0.0643765 0)
(0.545238 -0.139881 0)
(0.382508 -0.201963 0)
)
;

boundaryField
{
    movingWall
    {
        type            fixedValue;
        value           uniform (1.2 0 0);
    }
    fixedWalls
    {
        type            noSlip;
    }
    frontAndBack
    {
        type            empty;
    }
}


// ************************************************************************* //
