/*--------------------------------*- C++ -*----------------------------------*\
  =========                 |
  \\      /  F ield         | OpenFOAM: The Open Source CFD Toolbox
   \\    /   O peration     | Website:  https://openfoam.org
    \\  /    A nd           | Version:  7
     \\/     M anipulation  |
\*---------------------------------------------------------------------------*/
FoamFile
{
    version     2.0;
    format      ascii;
    class       volScalarField;
    location    "8.4";
    object      p;
}
// * * * * * * * * * * * * * * * * * * * * * * * * * * * * * * * * * * * * * //

dimensions      [0 2 -2 0 0 0 0];

internalField   nonuniform List<scalar> 
900
(
-1.83107e-07
-0.000349357
-0.000921107
-0.0015368
-0.0020872
-0.00250793
-0.0027657
-0.00284429
-0.00273395
-0.0024268
-0.0019165
-0.00120063
-0.000284673
0.000813697
0.00206091
0.00340549
0.00477822
0.00609575
0.00726718
0.00820369
0.00883011
0.00909671
0.00898914
0.00853446
0.00780221
0.00689832
0.00595494
0.00513035
0.00458569
0.00444677
0.000344452
-1.73663e-05
-0.000455063
-0.000908112
-0.00131169
-0.00161952
-0.0018055
-0.0018543
-0.00175493
-0.00149844
-0.00107795
-0.000490566
0.000259728
0.00115872
0.00217897
0.00327805
0.00440081
0.00547815
0.00643588
0.00720181
0.00771539
0.0079377
0.00785948
0.00750554
0.00693446
0.00623362
0.00550902
0.00486363
0.00443214
0.00430547
0.000937618
0.000404445
-4.81267e-05
-0.00045459
-0.000801147
-0.0010602
-0.00121671
-0.00126129
-0.00118505
-0.000978816
-0.000634047
-0.000144971
0.000488416
0.00125698
0.00213952
0.00310133
0.0040926
0.00505182
0.00591061
0.00660118
0.00706587
0.00726688
0.00719432
0.00687026
0.00634785
0.00570521
0.00503513
0.00443195
0.00398961
0.00377701
0.00160157
0.000835692
0.000303414
-0.00011439
-0.000451627
-0.000699069
-0.000854336
-0.000916002
-0.000878431
-0.000732208
-0.000466057
-6.96132e-05
0.000463028
0.00112941
0.00191512
0.00279121
0.00371261
0.00462038
0.00544619
0.00611992
0.00657971
0.00678261
0.00671348
0.00638989
0.00586114
0.0052014
0.00449921
0.00384578
0.00331455
0.00294112
0.00219171
0.00117546
0.000540149
8.46783e-05
-0.000269744
-0.000530814
-0.000708362
-0.000808688
-0.000829
-0.000758919
-0.000583324
-0.000285845
0.000146869
0.000720428
0.00142809
0.00224696
0.00313636
0.00403773
0.00487971
0.00558561
0.00608428
0.00632219
0.00627417
0.00594989
0.00539385
0.00467833
0.00389303
0.00313303
0.00246161
0.00187491
0.00258599
0.00132198
0.000574786
6.54403e-05
-0.00032665
-0.000624401
-0.000848495
-0.00101175
-0.00111312
-0.00114014
-0.00107256
-0.000886551
-0.000559746
-7.68549e-05
0.000564504
0.00134863
0.00223945
0.00317813
0.00408833
0.00488327
0.00547746
0.0058007
0.00581142
0.00550609
0.00492135
0.00412806
0.00322146
0.00230835
0.00144988
0.00060984
0.00267754
0.00118137
0.000322706
-0.000249971
-0.000695919
-0.00105178
-0.00134752
-0.00160096
-0.00181143
-0.00196308
-0.00202919
-0.00197692
-0.00177305
-0.00139054
-0.000815605
-5.45974e-05
0.000863379
0.00187973
0.00291269
0.00386273
0.00462504
0.00510552
0.00523777
0.00499692
0.00440591
0.00353224
0.00247998
0.00137563
0.00028723
-0.000848973
0.00237194
0.000667386
-0.000296463
-0.000937623
-0.00145103
-0.00188586
-0.00227994
-0.00265463
-0.00300837
-0.00332072
-0.00355716
-0.00367427
-0.00362586
-0.00337039
-0.00287935
-0.00214602
-0.00118767
-6.06013e-05
0.00114967
0.00232976
0.00335083
0.00408666
0.00443492
0.00433748
0.00379353
0.0028618
0.0016563
0.000331127
-0.00102977
-0.00251515
0.00158544
-0.000297804
-0.00135725
-0.00207023
-0.00266413
-0.00319974
-0.00372157
-0.00425341
-0.00479187
-0.00531106
-0.00576761
-0.00610593
-0.00626457
-0.00618416
-0.00581644
-0.00513442
-0.00414387
-0.00288678
-0.00144945
4.16798e-05
0.00143033
0.00254929
0.00324658
0.00341408
0.00301124
0.00207692
0.000732708
-0.000832578
-0.00250986
-0.00441219
0.000246265
-0.00178094
-0.00292445
-0.00371224
-0.00440031
-0.00506024
-0.00574247
-0.00647257
-0.00724493
-0.00802784
-0.00876851
-0.0093979
-0.009837
-0.0100048
-0.00982804
-0.00925265
-0.00826213
-0.00687737
-0.00517694
-0.00329532
-0.00141677
0.000242727
0.00146577
0.00207233
0.00195818
0.00112273
-0.000313752
-0.00212267
-0.00416029
-0.00656423
-0.00170228
-0.00383427
-0.00504901
-0.00591466
-0.00671128
-0.00752057
-0.00839846
-0.00937218
-0.0104342
-0.0115474
-0.0126495
-0.0136574
-0.0144727
-0.0149888
-0.015102
-0.0147241
-0.0138005
-0.0123236
-0.0103509
-0.00801444
-0.00552182
-0.00314192
-0.00117291
0.00010691
0.000496415
-7.62051e-05
-0.00151171
-0.00354204
-0.00597955
-0.0089867
-0.00429799
-0.00649208
-0.00776407
-0.00871023
-0.00962946
-0.0106129
-0.011722
-0.0129862
-0.0143969
-0.0159128
-0.017463
-0.0189506
-0.0202563
-0.0212453
-0.0217778
-0.0217225
-0.0209764
-0.0194877
-0.0172757
-0.0144542
-0.0112415
-0.00795622
-0.00498801
-0.00274095
-0.00155508
-0.00162059
-0.00289574
-0.00508456
-0.00794896
-0.0116759
-0.0075561
-0.00976759
-0.0110816
-0.0121093
-0.0131624
-0.0143414
-0.0157134
-0.0173112
-0.0191269
-0.0211168
-0.0232034
-0.0252768
-0.0271972
-0.0287998
-0.0299042
-0.0303288
-0.0299108
-0.0285416
-0.0261793
-0.0228973
-0.0189039
-0.0145523
-0.0103238
-0.00677025
-0.00441736
-0.00363716
-0.00450502
-0.0067287
-0.010022
-0.0145959
-0.0114667
-0.0136512
-0.0149906
-0.0160967
-0.0172888
-0.0186761
-0.0203327
-0.0222963
-0.0245621
-0.0270865
-0.0297877
-0.0325453
-0.0352003
-0.0375579
-0.0393955
-0.040477
-0.0405746
-0.0394967
-0.0371326
-0.0334865
-0.0287254
-0.0232086
-0.0174915
-0.0122813
-0.00833098
-0.00626973
-0.00637725
-0.00842798
-0.0121101
-0.0176616
-0.0159942
-0.0181108
-0.0194569
-0.0206317
-0.0219565
-0.0235499
-0.0254949
-0.0278365
-0.0305757
-0.033672
-0.0370425
-0.0405592
-0.0440461
-0.0472808
-0.0499993
-0.0519099
-0.0527139
-0.0521344
-0.0499701
-0.0461315
-0.0407097
-0.0340283
-0.0266784
-0.0195041
-0.0135086
-0.00965286
-0.0085333
-0.0100959
-0.0140631
-0.0207156
-0.0210786
-0.0230943
-0.0244261
-0.0256494
-0.0270833
-0.0288581
-0.0310686
-0.0337706
-0.0369741
-0.040645
-0.0447024
-0.0490133
-0.0533887
-0.0575813
-0.0612899
-0.0641703
-0.0658533
-0.0659735
-0.0642382
-0.0604384
-0.0545567
-0.0468328
-0.0378357
-0.0284969
-0.0200564
-0.0138607
-0.0109466
-0.0115826
-0.0156432
-0.0234976
-0.0266413
-0.028536
-0.0298299
-0.0310663
-0.0325617
-0.0344622
-0.0368799
-0.0398858
-0.0435032
-0.0477071
-0.0524212
-0.0575107
-0.0627759
-0.0679493
-0.0726969
-0.076628
-0.0793095
-0.0802893
-0.079203
-0.0756943
-0.0696182
-0.0610865
-0.0505786
-0.039034
-0.027871
-0.0188286
-0.0134919
-0.0126393
-0.01649
-0.0256066
-0.0325924
-0.0343663
-0.0355949
-0.0367885
-0.0382655
-0.0401967
-0.0427197
-0.0459279
-0.0498619
-0.0545091
-0.0597989
-0.0655961
-0.0716927
-0.0778039
-0.0835683
-0.0885556
-0.0922866
-0.0942614
-0.093939
-0.0909312
-0.0849336
-0.0758938
-0.0641382
-0.0505205
-0.0365343
-0.0242554
-0.0158728
-0.0128676
-0.0160762
-0.0264512
-0.0388433
-0.0405251
-0.0416554
-0.0427216
-0.044059
-0.0458777
-0.0483549
-0.0516157
-0.0557231
-0.0606782
-0.0664168
-0.0728023
-0.0796182
-0.086564
-0.0932546
-0.0992272
-0.103958
-0.106886
-0.107427
-0.105059
-0.0993536
-0.0900905
-0.0774035
-0.0619741
-0.0452453
-0.0295088
-0.017533
-0.0116526
-0.0136505
-0.0251883
-0.0453235
-0.0469811
-0.0479686
-0.048782
-0.0498045
-0.0513116
-0.05354
-0.0566583
-0.0607569
-0.0658507
-0.0718792
-0.078701
-0.0860886
-0.0937242
-0.1012
-0.108025
-0.113639
-0.117434
-0.118777
-0.117055
-0.111728
-0.10242
-0.089061
-0.0721045
-0.0528247
-0.033569
-0.0175699
-0.00808115
-0.008167
-0.0206408
-0.052006
-0.0537576
-0.0545329
-0.0549062
-0.0553687
-0.0563017
-0.0580278
-0.060772
-0.0646551
-0.0697027
-0.0758515
-0.0829489
-0.0907495
-0.0989133
-0.10701
-0.114515
-0.120844
-0.125339
-0.127325
-0.126122
-0.121098
-0.111742
-0.0977975
-0.0794795
-0.0578136
-0.0350413
-0.0146766
-0.000853032
0.00180399
-0.0111795
-0.0589513
-0.0609707
-0.0614091
-0.0610578
-0.0606237
-0.060651
-0.0615779
-0.0636964
-0.0671544
-0.0719789
-0.0780933
-0.0853216
-0.0933909
-0.10193
-0.110488
-0.118493
-0.125355
-0.130329
-0.132721
-0.13179
-0.126823
-0.117199
-0.102505
-0.0827368
-0.0586483
-0.0322526
-0.00714235
0.0117954
0.0181851
0.00546052
-0.066394
-0.0688926
-0.0687468
-0.0672298
-0.0654428
-0.0641625
-0.0639665
-0.0652114
-0.0680582
-0.0725171
-0.0784826
-0.0857369
-0.0939711
-0.102776
-0.11165
-0.119998
-0.127158
-0.132387
-0.13491
-0.133923
-0.128632
-0.118317
-0.10243
-0.0807892
-0.0538727
-0.0234286
0.00706451
0.0321283
0.0435388
0.0324827
-0.0749286
-0.0780572
-0.0768174
-0.0734436
-0.0696958
-0.0666438
-0.0649994
-0.0651577
-0.0672599
-0.0712703
-0.0770239
-0.084251
-0.0925867
-0.101573
-0.110658
-0.119206
-0.126496
-0.13174
-0.134092
-0.132669
-0.126582
-0.115001
-0.0972518
-0.0729921
-0.0423797
-0.00698258
0.03007
0.0628681
0.0812828
0.0745179
-0.0859341
-0.0894469
-0.0860484
-0.0797409
-0.0732456
-0.0679158
-0.0645317
-0.0634578
-0.0647584
-0.0683075
-0.073854
-0.0810517
-0.0894683
-0.0985865
-0.107803
-0.116426
-0.123682
-0.128715
-0.130601
-0.128364
-0.120989
-0.107517
-0.0871018
-0.0591916
-0.0237914
0.0180291
0.0636008
0.106958
0.135867
0.138132
-0.102567
-0.10483
-0.0970315
-0.0861464
-0.0759267
-0.0678057
-0.0624621
-0.0601068
-0.0606406
-0.0637931
-0.0691945
-0.0764027
-0.0849083
-0.0941302
-0.103408
-0.111998
-0.119066
-0.123688
-0.124857
-0.12149
-0.112412
-0.0965058
-0.0726977
-0.0401528
0.00146828
0.0515983
0.108236
0.166774
0.212316
0.231763
-0.131982
-0.12729
-0.110569
-0.0926695
-0.0775312
-0.0661202
-0.0587009
-0.0551348
-0.0550427
-0.0579434
-0.0633152
-0.0706069
-0.0792286
-0.0885369
-0.0978198
-0.106283
-0.113042
-0.11711
-0.117402
-0.112728
-0.101755
-0.0831497
-0.0555461
-0.0176861
0.0313728
0.0919557
0.163455
0.242299
0.314479
0.36705
-0.190318
-0.160393
-0.127196
-0.0989307
-0.0774321
-0.0623516
-0.0529798
-0.0484995
-0.0480907
-0.0509972
-0.0565268
-0.0640205
-0.0728189
-0.0822304
-0.0915064
-0.0998192
-0.106246
-0.109753
-0.109191
-0.103272
-0.0906333
-0.0696248
-0.0385443
0.00443781
0.0612501
0.133819
0.223977
0.331043
0.444493
0.570784
-0.321443
-0.200141
-0.138698
-0.0974328
-0.0698144
-0.052301
-0.0424093
-0.0382409
-0.0384337
-0.0419998
-0.0481486
-0.0561762
-0.0654032
-0.0751312
-0.0846096
-0.0930101
-0.0994076
-0.10276
-0.101891
-0.0953709
-0.0819531
-0.0597788
-0.0268561
0.0192075
0.081529
0.164473
0.274517
0.420187
0.608508
0.898024
-0.648833
-0.236637
-0.107276
-0.0624673
-0.0379503
-0.024265
-0.0185146
-0.0180536
-0.0212123
-0.0270816
-0.0350342
-0.0445032
-0.0549127
-0.0656435
-0.0760061
-0.0852193
-0.0923942
-0.0965242
-0.096496
-0.0911524
-0.0786821
-0.0575515
-0.0257611
0.019287
0.0812887
0.166468
0.287269
0.472034
0.778168
1.37202
)
;

boundaryField
{
    movingWall
    {
        type            zeroGradient;
    }
    fixedWalls
    {
        type            zeroGradient;
    }
    frontAndBack
    {
        type            empty;
    }
}


// ************************************************************************* //
