/*--------------------------------*- C++ -*----------------------------------*\
  =========                 |
  \\      /  F ield         | OpenFOAM: The Open Source CFD Toolbox
   \\    /   O peration     | Website:  https://openfoam.org
    \\  /    A nd           | Version:  7
     \\/     M anipulation  |
\*---------------------------------------------------------------------------*/
FoamFile
{
    version     2.0;
    format      ascii;
    class       surfaceScalarField;
    location    "8.4";
    object      phi;
}
// * * * * * * * * * * * * * * * * * * * * * * * * * * * * * * * * * * * * * //

dimensions      [0 3 -1 0 0 0 0];

internalField   nonuniform List<scalar> 
1740
(
8.36116e-07
-8.36022e-07
5.04515e-07
3.31596e-07
-1.43121e-06
1.93573e-06
-4.80593e-06
3.37472e-06
-9.2686e-06
4.46267e-06
-1.44658e-05
5.19723e-06
-2.00999e-05
5.63405e-06
-2.59284e-05
5.82853e-06
-3.17423e-05
5.81389e-06
-3.7341e-05
5.59873e-06
-4.25143e-05
5.17329e-06
-4.70337e-05
4.51939e-06
-5.0655e-05
3.62135e-06
-5.31316e-05
2.47656e-06
-5.42362e-05
1.10464e-06
-5.37893e-05
-4.46981e-07
-5.16899e-05
-2.0994e-06
-4.7946e-05
-3.74387e-06
-4.26966e-05
-5.2494e-06
-3.62207e-05
-6.4759e-06
-2.89295e-05
-7.29116e-06
-2.13389e-05
-7.59061e-06
-1.40227e-05
-7.31615e-06
-7.55239e-06
-6.47035e-06
-2.42824e-06
-5.12415e-06
9.93639e-07
-3.42187e-06
2.57336e-06
-1.57972e-06
2.43341e-06
1.39952e-07
1.15401e-06
1.2794e-06
1.15402e-06
-3.1443e-07
-5.21599e-07
-3.51426e-06
3.53146e-06
-1.01897e-05
8.61122e-06
-1.99611e-05
1.3146e-05
-3.21716e-05
1.66732e-05
-4.61024e-05
1.9128e-05
-6.10728e-05
2.06045e-05
-7.64658e-05
2.12215e-05
-9.17087e-05
2.10568e-05
-0.000106242
2.01321e-05
-0.000119495
1.84263e-05
-0.000130877
1.59018e-05
-0.000139792
1.25362e-05
-0.000145668
8.35281e-06
-0.000148009
3.44563e-06
-0.000146459
-1.99781e-06
-0.000140844
-7.71431e-06
-0.000131254
-1.33334e-05
-0.000118067
-1.84369e-05
-0.000101959
-2.25835e-05
-8.38876e-05
-2.53626e-05
-6.50248e-05
-2.64534e-05
-4.66599e-05
-2.5681e-05
-3.00689e-05
-2.30614e-05
-1.6366e-05
-1.8827e-05
-6.35527e-06
-1.34326e-05
-3.83898e-07
-7.55109e-06
1.85506e-06
-2.099e-06
1.33727e-06
1.7972e-06
2.49129e-06
-2.10469e-06
1.58309e-06
-9.22839e-06
1.06552e-05
-2.12325e-05
2.06154e-05
-3.74416e-05
2.93551e-05
-5.6937e-05
3.61686e-05
-7.87412e-05
4.09321e-05
-0.000101907
4.37707e-05
-0.000125543
4.48568e-05
-0.000148791
4.43054e-05
-0.000170806
4.21473e-05
-0.000190731
3.83504e-05
-0.000207695
3.28661e-05
-0.000220844
2.56854e-05
-0.000229383
1.6892e-05
-0.000232645
6.70774e-06
-0.000230161
-4.48256e-06
-0.00022174
-1.61345e-05
-0.000207541
-2.7533e-05
-0.000188107
-3.78706e-05
-0.000164386
-4.63043e-05
-0.000137697
-5.2052e-05
-0.000109651
-5.44991e-05
-8.20277e-05
-5.33046e-05
-5.66014e-05
-4.84877e-05
-3.49465e-05
-4.04819e-05
-1.82297e-05
-3.01494e-05
-7.01458e-06
-1.87662e-05
-1.12062e-06
-7.99295e-06
5.49916e-07
1.26664e-07
3.04121e-06
-4.0353e-06
5.61841e-06
-1.5354e-05
2.19738e-05
-3.29364e-05
3.81977e-05
-5.5605e-05
5.20237e-05
-8.21228e-05
6.26865e-05
-0.000111276
7.00851e-05
-0.00014191
7.4405e-05
-0.000172929
7.58756e-05
-0.000203267
7.46433e-05
-0.000231862
7.07421e-05
-0.000257639
6.41282e-05
-0.000279523
5.47496e-05
-0.000296464
4.26266e-05
-0.000307502
2.79298e-05
-0.000311836
1.10418e-05
-0.000308908
-7.41091e-06
-0.000298488
-2.65543e-05
-0.000280749
-4.52718e-05
-0.000256318
-6.23016e-05
-0.000226296
-7.63263e-05
-0.000192235
-8.61132e-05
-0.000156058
-9.06754e-05
-0.000119926
-8.94369e-05
-8.60385e-05
-8.23752e-05
-5.6404e-05
-7.01164e-05
-3.25872e-05
-5.39661e-05
-1.54772e-05
-3.58763e-05
-5.10792e-06
-1.83622e-05
-5.81431e-07
-4.39982e-06
2.45979e-06
-5.91222e-06
1.15306e-05
-2.14135e-05
3.74751e-05
-4.45501e-05
6.13344e-05
-7.35576e-05
8.10312e-05
-0.000106835
9.59634e-05
-0.00014293
0.000106181
-0.000180516
0.000111991
-0.000218342
0.000113702
-0.000255194
0.000111495
-0.000289857
0.000105405
-0.000321103
9.53744e-05
-0.000347701
8.13476e-05
-0.000368456
6.33811e-05
-0.000382267
4.17408e-05
-0.000388206
1.69811e-05
-0.000385605
-1.00121e-05
-0.000374139
-3.80207e-05
-0.000353917
-6.5494e-05
-0.000325545
-9.06727e-05
-0.000290171
-0.000111701
-0.000249474
-0.00012681
-0.000205611
-0.000134539
-0.000161078
-0.00013397
-0.000118507
-0.000124946
-8.03952e-05
-0.000108229
-4.88024e-05
-8.55589e-05
-2.50702e-05
-5.96085e-05
-9.60629e-06
-3.38261e-05
-1.7904e-06
-1.22157e-05
6.69388e-07
-7.66864e-06
1.91993e-05
-2.71694e-05
5.69759e-05
-5.56427e-05
8.98076e-05
-9.07226e-05
0.000116111
-0.00013043
0.000135671
-0.000173083
0.000148833
-0.000217201
0.000156109
-0.000261424
0.000157925
-0.000304438
0.000154509
-0.00034493
0.000145897
-0.000381568
0.000132013
-0.000413012
0.000112792
-0.000437948
8.83173e-05
-0.000455146
5.89389e-05
-0.000463534
2.5369e-05
-0.000462286
-1.12604e-05
-0.000450907
-4.93994e-05
-0.000429346
-8.70557e-05
-0.000398074
-0.000121944
-0.000358168
-0.000151607
-0.000311338
-0.00017364
-0.000259906
-0.000185971
-0.000206693
-0.000187182
-0.00015481
-0.000176829
-0.000107347
-0.000155692
-6.70098e-05
-0.000125896
-3.57558e-05
-9.08626e-05
-1.4513e-05
-5.50689e-05
-3.04803e-06
-2.36807e-05
-2.37864e-06
-9.2757e-06
2.8475e-05
-3.24808e-05
8.0181e-05
-6.59253e-05
0.000123252
-0.000106675
0.000156861
-0.00015239
0.000181386
-0.000201173
0.000197617
-0.000251421
0.000206356
-0.000301696
0.0002082
-0.00035063
0.000203443
-0.00039686
0.000192126
-0.000438994
0.000174147
-0.00047562
0.000149417
-0.000505325
0.000118023
-0.000526751
8.03642e-05
-0.000538653
3.72716e-05
-0.000539998
-9.91537e-06
-0.000530036
-5.93616e-05
-0.000508447
-0.000108645
-0.000475446
-0.000154945
-0.000431907
-0.000195146
-0.000379458
-0.000226089
-0.000320508
-0.00024492
-0.000258186
-0.000249505
-0.000196132
-0.000238883
-0.000138165
-0.000213659
-8.78248e-05
-0.000176237
-4.78936e-05
-0.000130794
-1.99991e-05
-8.29634e-05
-4.40455e-06
-3.92752e-05
-6.78319e-06
-1.07077e-05
3.91827e-05
-3.72334e-05
0.000106707
-7.51583e-05
0.000161177
-0.000121044
0.000202746
-0.000172228
0.000232571
-0.000226629
0.000252018
-0.000282549
0.000262276
-0.00033851
0.00026416
-0.000393128
0.000258061
-0.00044503
0.000244029
-0.00049281
0.000221927
-0.000535014
0.000191621
-0.000570152
0.000153161
-0.000596737
0.00010695
-0.000613335
5.38693e-05
-0.000618656
-4.59379e-06
-0.000611616
-6.64021e-05
-0.000591525
-0.000128736
-0.000558208
-0.000188261
-0.000512196
-0.000241158
-0.000454885
-0.0002834
-0.000388657
-0.000311148
-0.000316883
-0.000321279
-0.000243768
-0.000311998
-0.000173985
-0.000283441
-0.00011213
-0.000238092
-6.20713e-05
-0.000180853
-2.63751e-05
-0.00011866
-5.95847e-06
-5.96918e-05
-1.27417e-05
-1.1932e-05
5.11148e-05
-4.13084e-05
0.000136083
-8.31041e-05
0.000202973
-0.000133459
0.000253101
-0.000189443
0.000288555
-0.000248827
0.000311401
-0.000309849
0.000323299
-0.000371024
0.000325335
-0.00043099
0.000318027
-0.000488405
0.000301444
-0.000541884
0.000275406
-0.000589967
0.000239704
-0.000631117
0.000194311
-0.000663732
0.000139565
-0.000686185
7.63224e-05
-0.000696884
6.10522e-06
-0.00069439
-6.8896e-05
-0.000677535
-0.000145591
-0.000645633
-0.000220163
-0.000598708
-0.000288083
-0.000537745
-0.000344363
-0.000464918
-0.000383976
-0.000383709
-0.000402488
-0.000298845
-0.000396862
-0.000215951
-0.000366336
-0.000140904
-0.000313138
-7.89834e-05
-0.000242773
-3.40199e-05
-0.000163623
-7.82969e-06
-8.5882e-05
-2.05714e-05
-1.29094e-05
6.40241e-05
-4.45791e-05
0.000167753
-8.95186e-05
0.000247912
-0.000143541
0.000307123
-0.00020351
0.000348524
-0.000267085
0.000374977
-0.000332475
0.000388688
-0.000398214
0.000391075
-0.000462996
0.000382809
-0.000525544
0.000363993
-0.000584537
0.000334398
-0.000638549
0.000293716
-0.000686032
0.000241794
-0.000725303
0.000178836
-0.000754567
0.000105586
-0.000771943
2.34816e-05
-0.00077561
-6.52294e-05
-0.000763874
-0.000157328
-0.000735432
-0.000248604
-0.000689643
-0.000333872
-0.000626864
-0.000407142
-0.000548807
-0.000462032
-0.000458832
-0.000492463
-0.000362033
-0.000493661
-0.000264991
-0.000463378
-0.000175074
-0.000403055
-9.93452e-05
-0.000318503
-4.33397e-05
-0.000219629
-1.01475e-05
-0.000119074
-3.07189e-05
-1.35991e-05
7.76232e-05
-4.69197e-05
0.000201073
-9.41627e-05
0.000295155
-0.000150917
0.000363877
-0.000213898
0.000411506
-0.000280696
0.000441774
-0.00034951
0.000457503
-0.000418921
0.000460486
-0.000487703
0.000451591
-0.000554682
0.000430971
-0.000618634
0.00039835
-0.000678218
0.0003533
-0.000731926
0.000295502
-0.000778053
0.000224963
-0.000814689
0.000142222
-0.000839738
4.85305e-05
-0.000850999
-5.3969e-05
-0.00084627
-0.000162056
-0.000823573
-0.000271301
-0.00078146
-0.000375985
-0.000719426
-0.000469176
-0.000638411
-0.000543048
-0.00054129
-0.000589584
-0.000433217
-0.000601734
-0.000321584
-0.000575011
-0.00021537
-0.000509269
-0.000123819
-0.000410053
-5.47414e-05
-0.000288706
-1.3046e-05
-0.00016077
-4.37649e-05
-1.39656e-05
9.15888e-05
-4.82216e-05
0.000235329
-9.68289e-05
0.000343763
-0.000155253
0.000422301
-0.000220121
0.000476374
-0.00028898
0.000510633
-0.000360041
0.000528564
-0.000431946
0.000532391
-0.000503569
0.000523214
-0.000573866
0.000501268
-0.000641753
0.000466237
-0.000706022
0.00041757
-0.000765272
0.000354752
-0.000817857
0.000277548
-0.000861849
0.000186215
-0.000895033
8.17137e-05
-0.000914928
-3.40741e-05
-0.000918893
-0.000158091
-0.000904283
-0.000285912
-0.000868759
-0.00041151
-0.000810748
-0.000527187
-0.000730061
-0.000623734
-0.000628626
-0.00069102
-0.000511158
-0.000719202
-0.00038549
-0.000700679
-0.000262153
-0.000632606
-0.000152935
-0.000519271
-6.86072e-05
-0.000373035
-1.66615e-05
-0.000212715
-6.04264e-05
-1.39858e-05
0.000105575
-4.84148e-05
0.000269758
-9.73767e-05
0.000392725
-0.00015631
0.000481234
-0.0002218
0.000541864
-0.000291374
0.000580207
-0.000363264
0.000600454
-0.000436181
0.000605308
-0.000509114
0.000596147
-0.000581168
0.000573322
-0.000651438
0.000536507
-0.000718903
0.000485034
-0.000782343
0.000418192
-0.00084027
0.000335475
-0.000890865
0.000236809
-0.000931933
0.000122782
-0.000960867
-5.13997e-06
-0.000974747
-0.000144211
-0.000970345
-0.000290313
-0.000944447
-0.000437408
-0.000894274
-0.00057736
-0.00081818
-0.000699827
-0.000716608
-0.000792592
-0.000593156
-0.000842653
-0.000455449
-0.000838385
-0.000315219
-0.000772836
-0.000186993
-0.000647497
-8.52647e-05
-0.000474763
-2.11299e-05
-0.00027685
-8.15563e-05
-1.36576e-05
0.000119232
-4.74906e-05
0.000303591
-9.57726e-05
0.000441007
-0.000153995
0.000539456
-0.000218739
0.000606608
-0.000287526
0.000648993
-0.00035861
0.000671538
-0.000430773
0.000677471
-0.000503125
0.0006685
-0.000574942
0.000645139
-0.000645526
0.00060709
-0.000714095
0.000553604
-0.00077969
0.000483787
-0.000841085
0.00039687
-0.000896708
0.000292432
-0.000944556
0.000170631
-0.000982136
3.24405e-05
-0.00100639
-0.000119957
-0.00101376
-0.000282945
-0.00100027
-0.000450898
-0.000961926
-0.000615703
-0.000895403
-0.000766351
-0.000799138
-0.000888857
-0.000674812
-0.000966979
-0.000528895
-0.000984303
-0.000373558
-0.000928173
-0.00022593
-0.000795125
-0.000104945
-0.000595748
-2.65817e-05
-0.000355214
-0.000108138
-1.30074e-05
0.000132239
-4.5526e-05
0.00033611
-9.21333e-05
0.000487614
-0.000148428
0.000595752
-0.000211011
0.000669191
-0.0002774
0.000715382
-0.000345873
0.000740012
-0.000415284
0.000746882
-0.00048487
0.000738085
-0.000554088
0.000714357
-0.000622479
0.000675481
-0.000689547
0.000620672
-0.000754662
0.000548902
-0.000816963
0.00045917
-0.00087526
0.000350729
-0.000927926
0.000223297
-0.00097278
7.72941e-05
-0.00100692
-8.5813e-05
-0.00102673
-0.000263143
-0.00102772
-0.000449902
-0.00100486
-0.000638559
-0.000953101
-0.000818114
-0.000868492
-0.000973466
-0.000749997
-0.00108547
-0.00060175
-0.00113255
-0.000435129
-0.00109479
-0.00026918
-0.000961073
-0.000127729
-0.000737199
-3.31343e-05
-0.000449808
-0.000141272
-1.2098e-05
0.000144337
-4.27072e-05
0.000366719
-8.67674e-05
0.000531674
-0.000140001
0.000648985
-0.000199028
0.000728218
-0.000261369
0.000777722
-0.00032533
0.000803973
-0.000389839
0.000811392
-0.000454273
0.000802519
-0.000518288
0.000778372
-0.000581687
0.00073888
-0.000644298
0.000683284
-0.000705879
0.000610482
-0.000766012
0.000519304
-0.000824006
0.000408722
-0.000878763
0.000278055
-0.000928623
0.000127154
-0.000971094
-4.33424e-05
-0.00100285
-0.00023139
-0.00101927
-0.000433478
-0.00101462
-0.000643209
-0.000982327
-0.000850409
-0.000915963
-0.00103983
-0.000811139
-0.0011903
-0.000668409
-0.00127528
-0.00049668
-0.00126652
-0.000315508
-0.00114224
-0.000153479
-0.000899228
-4.08828e-05
-0.000562404
-0.000182155
-1.10363e-05
0.000155374
-3.93536e-05
0.000395036
-8.02163e-05
0.000572537
-0.000129426
0.000698195
-0.000183609
0.000782401
-0.000240288
0.000834402
-0.000297816
0.0008615
-0.000355221
0.000868797
-0.000412039
0.000859337
-0.000468152
0.000834485
-0.000523649
0.000794378
-0.000578716
0.00073835
-0.000633532
0.000665298
-0.000688179
0.00057395
-0.000742533
0.000463077
-0.000796132
0.000331653
-0.000848012
0.000179034
-0.000896257
4.9029e-06
-0.000938261
-0.000189386
-0.000969624
-0.000402115
-0.000984427
-0.000628407
-0.000975064
-0.000859772
-0.000932884
-0.00108201
-0.000849896
-0.00127329
-0.000722003
-0.00140317
-0.000553714
-0.00143481
-0.000362888
-0.00133307
-0.000181785
-0.00108033
-4.98937e-05
-0.000694295
-0.000232049
-9.98313e-06
0.000165357
-3.59466e-05
0.000421
-7.32974e-05
0.000609888
-0.000117793
0.000742691
-0.000166023
0.00083063
-0.000215533
0.000883912
-0.000264764
0.000910731
-0.000312896
0.000916929
-0.000359673
0.000906114
-0.00040524
0.000880052
-0.000450006
0.000839143
-0.000494532
0.000782877
-0.000539442
0.000710208
-0.00058533
0.000619838
-0.000632664
0.00051041
-0.000681652
0.000380641
-0.000732038
0.00022942
-0.00078303
5.58949e-05
-0.00083236
-0.000140056
-0.000876657
-0.000357817
-0.000910347
-0.000594717
-0.000925487
-0.000844631
-0.000911856
-0.00109564
-0.000858133
-0.00132701
-0.00075498
-0.00150633
-0.000600655
-0.00158914
-0.000408441
-0.00152528
-0.000211907
-0.00127687
-6.02099e-05
-0.000845992
-0.000292259
-9.17104e-06
0.000174528
-3.31718e-05
0.000445001
-6.71577e-05
0.000643874
-0.000106611
0.000782144
-0.000148022
0.000872041
-0.000189003
0.000924893
-0.000228174
0.000949902
-0.00026496
0.000953716
-0.000299395
0.000940549
-0.000331947
0.000912603
-0.000363379
0.000870575
-0.00039465
0.000814148
-0.000426824
0.000742383
-0.000460994
0.000654008
-0.000498194
0.00054761
-0.000539282
0.000421729
-0.000584777
0.000274916
-0.000634642
0.00010576
-0.000687771
-8.69273e-05
-0.000741722
-0.000303866
-0.000791897
-0.000544542
-0.000830854
-0.000805674
-0.000847805
-0.00107869
-0.000828964
-0.00134585
-0.000759881
-0.00157541
-0.00063121
-0.00171781
-0.000448475
-0.00170802
-0.000242765
-0.00148258
-7.18798e-05
-0.00101688
-0.000364138
-8.93937e-06
0.000183467
-3.19918e-05
0.000468053
-6.33528e-05
0.000675234
-9.78615e-05
0.000816653
-0.000131844
0.000906024
-0.000163079
0.000956128
-0.00019052
0.000977343
-0.000213993
0.000977188
-0.00023394
0.000960497
-0.000251233
0.000929896
-0.000267038
0.000886381
-0.000282719
0.000829829
-0.000299763
0.000759427
-0.000319716
0.000673961
-0.000344113
0.000572007
-0.000374379
0.000451996
-0.000411707
0.000312243
-0.000456831
0.000150884
-0.000509715
-3.40432e-05
-0.000569107
-0.000244474
-0.000631796
-0.000481853
-0.000691648
-0.000745823
-0.000738507
-0.00103183
-0.000757512
-0.00132684
-0.000730092
-0.00160283
-0.000638845
-0.00180906
-0.0004786
-0.00186826
-0.00027293
-0.00168825
-8.50196e-05
-0.00120479
-0.000449158
-9.80737e-06
0.000193275
-3.37778e-05
0.000492023
-6.3967e-05
0.000705424
-9.40573e-05
0.000846743
-0.000120189
0.000932156
-0.000140507
0.000976447
-0.000154557
0.000991392
-0.000162785
0.000985416
-0.000166207
0.000963919
-0.000166201
0.00092989
-0.000164379
0.000884559
-0.000162511
0.00082796
-0.000162467
0.000759383
-0.000166172
0.000677666
-0.00017558
0.000581414
-0.000192544
0.00046896
-0.000218843
0.000338543
-0.000255834
0.000187875
-0.000304428
1.45502e-05
-0.000364604
-0.000184298
-0.00043479
-0.000411667
-0.000510791
-0.000669822
-0.000584275
-0.000958348
-0.000641044
-0.00127007
-0.00066023
-0.00158364
-0.000617127
-0.00185216
-0.000493818
-0.00199157
-0.000300588
-0.00188148
-9.99059e-05
-0.00140547
-0.000549064
-1.26184e-05
0.000205893
-4.05318e-05
0.000519937
-7.17775e-05
0.000736669
-9.82664e-05
0.000873232
-0.000116083
0.000949972
-0.000124127
0.000984491
-0.000122923
0.000990187
-0.000113841
0.000976334
-9.86688e-05
0.000948747
-7.93931e-05
0.000910615
-5.81127e-05
0.000863278
-3.69839e-05
0.000806832
-1.82195e-05
0.000740619
-4.06519e-06
0.000663512
3.29924e-06
0.000574049
1.65468e-06
0.000470605
-1.09677e-05
0.000351165
-3.66868e-05
0.000213594
-7.71541e-05
5.50175e-05
-0.000133468
-0.000127984
-0.00020571
-0.000339425
-0.00029199
-0.000583541
-0.000386768
-0.000863571
-0.000478309
-0.00117853
-0.000545924
-0.00151603
-0.000559694
-0.00183839
-0.000488395
-0.00206287
-0.000323341
-0.00204653
-0.000117051
-0.00161176
-0.000666115
-1.8813e-05
0.000224706
-5.52224e-05
0.000556346
-9.03911e-05
0.000771838
-0.000113946
0.000896787
-0.000122422
0.000958449
-0.000116166
0.000978234
-9.72415e-05
0.000971263
-6.83196e-05
0.000947412
-3.21683e-05
0.000912596
8.52316e-06
0.000869923
5.11892e-05
0.000820612
9.33197e-05
0.000764701
0.000132468
0.000701471
0.000166218
0.000629762
0.000192145
0.000548123
0.000207872
0.000454878
0.000210971
0.000348065
0.000199175
0.00022539
0.000170213
8.39798e-05
0.000121996
-7.97677e-05
5.2916e-05
-0.000270345
-3.74954e-05
-0.000493129
-0.000147076
-0.00075399
-0.000268148
-0.00105746
-0.000382875
-0.0014013
-0.000459628
-0.00176164
-0.000455284
-0.00206722
-0.000337637
-0.00216418
-0.000137109
-0.00181229
-0.000803224
-3.09091e-05
0.000255615
-8.21558e-05
0.000607593
-0.00012404
0.000813723
-0.000144071
0.000916817
-0.000140527
0.000954905
-0.000116352
0.000954059
-7.59073e-05
0.000930818
-2.3574e-05
0.000895079
3.67226e-05
0.0008523
0.000101564
0.000805082
0.000167922
0.000754254
0.000233049
0.000699574
0.000294353
0.000640166
0.000349328
0.000574787
0.000395493
0.000501957
0.000430364
0.000420007
0.000451406
0.000327024
0.00045602
0.000220776
0.000441479
9.85206e-05
0.000404907
-4.31955e-05
0.000343415
-0.000208852
0.000254375
-0.000404089
0.000136576
-0.000636192
-7.15051e-06
-0.000913735
-0.000165208
-0.00124324
-0.000308125
-0.00161872
-0.000384823
-0.00199052
-0.000337462
-0.00221154
-0.000160264
-0.00198949
-0.000963488
-5.32432e-05
0.000308858
-0.000126945
0.000681295
-0.000175992
0.000862769
-0.000188081
0.000928906
-0.000165982
0.000932806
-0.000116995
0.000905072
-4.86799e-05
0.000862503
3.25186e-05
0.000813881
0.000121461
0.000763357
0.000214074
0.000712469
0.000307034
0.000661294
0.000397494
0.000609114
0.000482876
0.000554784
0.000560729
0.000496934
0.000628627
0.000434059
0.000684096
0.000364538
0.000724537
0.000286582
0.000747161
0.000198153
0.000748876
9.68054e-05
0.000726161
-2.048e-05
0.000675156
-0.000157847
0.000591461
-0.000320395
0.00047081
-0.00051554
0.000310806
-0.000753731
0.000116117
-0.00104856
-9.19958e-05
-0.00141061
-0.000262243
-0.00182027
-0.000311602
-0.00216218
-0.000184396
-0.00211669
-0.00114788
-9.26859e-05
0.000401544
-0.000194291
0.0007829
-0.00024235
0.000910828
-0.000232686
0.000919242
-0.000177635
0.000877756
-9.11323e-05
0.000818569
1.53428e-05
0.000756028
0.000133299
0.000695925
0.000256684
0.000639971
0.000381157
0.000587996
0.000503457
0.000538994
0.000620956
0.000491616
0.000731347
0.000444393
0.000832444
0.000395837
0.000922043
0.00034446
0.000997817
0.000288764
0.00105722
0.000227177
0.0010974
0.000157979
0.00111502
7.91839e-05
0.00110606
-1.15278e-05
0.00106609
-0.000117871
0.00098937
-0.000243676
0.000869388
-0.000395559
0.000699397
-0.000583739
0.000475661
-0.00082482
0.000207508
-0.00114245
-6.17093e-05
-0.00155105
-0.000238527
-0.00198536
-0.000201932
-0.00215328
-0.00134982
-0.000157395
0.000558939
-0.000276299
0.000901804
-0.000291645
0.000926174
-0.00022708
0.000854676
-0.000111883
0.000762559
3.19915e-05
0.000674694
0.000189947
0.000598073
0.000352777
0.000533094
0.000514803
0.000477945
0.000672459
0.00043034
0.000823348
0.000388105
0.000965653
0.000349311
0.00109778
0.000312268
0.00121813
0.000275482
0.00132498
0.000237609
0.00141636
0.000197388
0.00148995
0.000153584
0.00154303
0.000104906
0.00157225
4.99627e-05
0.00157346
-1.27386e-05
0.00154185
-8.62664e-05
0.00147105
-0.000172876
0.00135319
-0.000277697
0.00117847
-0.000409021
0.000935948
-0.000582296
0.000619709
-0.000826213
0.0002512
-0.00118254
-7.69446e-05
-0.00165722
-0.000193318
-0.00203691
-0.00154313
-0.000243834
0.000802774
-0.000303267
0.000961236
-0.000204382
0.00082729
-2.49368e-05
0.000675231
0.000186254
0.000551368
0.000405263
0.000455686
0.000620288
0.000383048
0.00082573
0.000327652
0.00101921
0.000284463
0.00119987
0.000249682
0.00136741
0.00022056
0.00152165
0.000195077
0.00166222
0.000171693
0.00178851
0.000149198
0.00189952
0.000126599
0.00199387
0.000103039
0.00206972
7.77369e-05
0.00212469
4.99364e-05
0.00215576
1.88884e-05
0.00215947
-1.64515e-05
0.00213062
-5.74139e-05
0.00206321
-0.000105467
0.00194909
-0.00016358
0.00177707
-0.000236998
0.00153137
-0.000336594
0.00119165
-0.000486491
0.000746853
-0.000737751
0.000254042
-0.00116441
-8.08922e-05
-0.00170198
-0.00162403
-0.000194371
0.000997145
1.81096e-05
0.000748755
0.000372861
0.000472538
0.00071398
0.000334112
0.00102004
0.000245313
0.00129076
0.000184964
0.00152948
0.000144321
0.00174055
0.000116585
0.00192813
9.68845e-05
0.00209563
8.21778e-05
0.0022456
7.05954e-05
0.00237974
6.09324e-05
0.00249907
5.23706e-05
0.00260393
4.43294e-05
0.00269416
3.63755e-05
0.00276903
2.81659e-05
0.00282736
1.94114e-05
0.0028674
9.89032e-06
0.00288657
-2.83676e-07
0.00288309
-1.29653e-05
0.00285202
-2.63504e-05
0.00278886
-4.23011e-05
0.00268676
-6.14825e-05
0.00253554
-8.57769e-05
0.00231848
-0.000119529
0.00200621
-0.000174228
0.00155158
-0.000283119
0.000927397
-0.000540224
0.000263833
-0.00103841
-0.00136019
0.000997145
0.0017459
0.00221844
0.00255255
0.00279786
0.00298283
0.00312715
0.00324373
0.00334062
0.0034228
0.00349339
0.00355432
0.00360669
0.00365102
0.0036874
0.00371556
0.00373498
0.00374487
0.00374458
0.00373162
0.00370527
0.00366297
0.00360148
0.00351571
0.00339618
0.00322195
0.00293883
0.00239861
0.00136019
)
;

boundaryField
{
    movingWall
    {
        type            calculated;
        value           uniform 0;
    }
    fixedWalls
    {
        type            calculated;
        value           uniform 0;
    }
    frontAndBack
    {
        type            empty;
        value           nonuniform 0();
    }
}


// ************************************************************************* //
