/*--------------------------------*- C++ -*----------------------------------*\
  =========                 |
  \\      /  F ield         | OpenFOAM: The Open Source CFD Toolbox
   \\    /   O peration     | Website:  https://openfoam.org
    \\  /    A nd           | Version:  7
     \\/     M anipulation  |
\*---------------------------------------------------------------------------*/
FoamFile
{
    version     2.0;
    format      ascii;
    class       volVectorField;
    location    "8.4";
    object      U;
}
// * * * * * * * * * * * * * * * * * * * * * * * * * * * * * * * * * * * * * //

dimensions      [0 1 -1 0 0 0 0];

internalField   nonuniform List<vector> 
900
(
(0.000162174 -0.000161068 0)
(0.000286481 -6.87428e-05 0)
(-3.61806e-05 9.85874e-05 0)
(-0.000813722 0.000245813 0)
(-0.00195421 0.000352237 0)
(-0.00335366 0.000420605 0)
(-0.00491819 0.000460214 0)
(-0.00657085 0.000479188 0)
(-0.00824813 0.000482092 0)
(-0.00989254 0.000470024 0)
(-0.011446 0.000441581 0)
(-0.0128459 0.000394068 0)
(-0.0140243 0.000324747 0)
(-0.0149098 0.000232021 0)
(-0.0154332 0.000116496 0)
(-0.0155348 -1.82845e-05 0)
(-0.0151729 -0.000165826 0)
(-0.0143326 -0.000315644 0)
(-0.0130342 -0.000454819 0)
(-0.0113376 -0.000569105 0)
(-0.00934255 -0.00064474 0)
(-0.00718358 -0.000670609 0)
(-0.0050195 -0.000640276 0)
(-0.00301748 -0.000553474 0)
(-0.00133379 -0.000416883 0)
(-9.42274e-05 -0.000244841 0)
(0.0006211 -5.88324e-05 0)
(0.000800878 0.000115157 0)
(0.000550894 0.000220944 0)
(0.000170477 0.000169336 0)
(7.71522e-05 -0.000293794 0)
(-0.000302355 0.000299874 0)
(-0.00173038 0.00113246 0)
(-0.00411985 0.00188118 0)
(-0.0073065 0.00245659 0)
(-0.0110887 0.00285172 0)
(-0.0152623 0.00308936 0)
(-0.0196413 0.00319468 0)
(-0.0240574 0.00318347 0)
(-0.0283506 0.00306003 0)
(-0.0323604 0.00281993 0)
(-0.0359207 0.00245481 0)
(-0.0388602 0.00195802 0)
(-0.0410091 0.00132995 0)
(-0.0422115 0.000582567 0)
(-0.0423413 -0.000257512 0)
(-0.0413192 -0.00114724 0)
(-0.0391305 -0.00202873 0)
(-0.0358404 -0.00283315 0)
(-0.0315999 -0.00348726 0)
(-0.0266454 -0.0039224 0)
(-0.0212863 -0.00408459 0)
(-0.0158816 -0.00394417 0)
(-0.0108067 -0.00350324 0)
(-0.00641317 -0.00279974 0)
(-0.00298388 -0.00190906 0)
(-0.000689771 -0.000943528 0)
(0.000438967 -5.2187e-05 0)
(0.000587724 0.00055246 0)
(0.000228978 0.000548306 0)
(-0.000106252 3.39217e-05 0)
(-0.00123956 0.00175018 0)
(-0.00401895 0.00378663 0)
(-0.00811991 0.00560437 0)
(-0.0132873 0.00702676 0)
(-0.0192547 0.00802303 0)
(-0.0257443 0.0086232 0)
(-0.0324923 0.00886864 0)
(-0.0392503 0.00878712 0)
(-0.045777 0.00838642 0)
(-0.0518293 0.00765893 0)
(-0.0571596 0.00659179 0)
(-0.0615192 0.00517916 0)
(-0.0646682 0.00343402 0)
(-0.0663928 0.00139794 0)
(-0.0665256 -0.000852634 0)
(-0.0649678 -0.00320383 0)
(-0.0617111 -0.00550972 0)
(-0.056854 -0.00760101 0)
(-0.0506106 -0.00930082 0)
(-0.043308 -0.0104452 0)
(-0.0353717 -0.0109061 0)
(-0.0272958 -0.0106139 0)
(-0.0196003 -0.00957493 0)
(-0.0127773 -0.00788256 0)
(-0.00723221 -0.00571963 0)
(-0.0032251 -0.00335676 0)
(-0.000822012 -0.00115169 0)
(0.000157231 0.000452703 0)
(0.000165371 0.000849654 0)
(-0.000300554 0.00091202 0)
(-0.00224975 0.00438082 0)
(-0.00647365 0.00801922 0)
(-0.0123324 0.0111821 0)
(-0.0194459 0.0136439 0)
(-0.0274824 0.0153644 0)
(-0.0361044 0.0163842 0)
(-0.0449896 0.0167595 0)
(-0.053831 0.0165276 0)
(-0.0623263 0.0156979 0)
(-0.0701705 0.0142597 0)
(-0.0770546 0.0121981 0)
(-0.0826716 0.00951411 0)
(-0.08673 0.00624246 0)
(-0.0889726 0.00246734 0)
(-0.0891996 -0.00166866 0)
(-0.0872932 -0.00596333 0)
(-0.0832413 -0.0101611 0)
(-0.077156 -0.0139695 0)
(-0.0692843 -0.0170847 0)
(-0.0600088 -0.0192244 0)
(-0.0498329 -0.0201661 0)
(-0.0393509 -0.0197842 0)
(-0.0291997 -0.0180828 0)
(-0.0199974 -0.0152151 0)
(-0.0122719 -0.0114895 0)
(-0.00638876 -0.00736321 0)
(-0.00248678 -0.00342772 0)
(-0.000447136 -0.000392186 0)
(6.89997e-05 0.00086299 0)
(-0.000484062 0.00233872 0)
(-0.00324066 0.00821922 0)
(-0.00891128 0.0138458 0)
(-0.0165118 0.0185793 0)
(-0.0255178 0.0222079 0)
(-0.0355262 0.0247142 0)
(-0.0461454 0.0261632 0)
(-0.0570077 0.0266294 0)
(-0.0677636 0.0261589 0)
(-0.0780681 0.0247615 0)
(-0.0875718 0.0224227 0)
(-0.0959217 0.0191276 0)
(-0.102767 0.0148871 0)
(-0.107776 0.00976335 0)
(-0.110652 0.00388986 0)
(-0.111162 -0.00251717 0)
(-0.109158 -0.00915736 0)
(-0.104604 -0.0156543 0)
(-0.0976002 -0.0215782 0)
(-0.0883947 -0.0264804 0)
(-0.0773939 -0.0299387 0)
(-0.0651519 -0.0316115 0)
(-0.0523444 -0.0312943 0)
(-0.0397197 -0.0289695 0)
(-0.0280303 -0.0248407 0)
(-0.0179488 -0.0193448 0)
(-0.00997948 -0.0131396 0)
(-0.00437368 -0.00707137 0)
(-0.00111394 -0.00213015 0)
(-2.66257e-05 0.000531992 0)
(-0.000651732 0.0042866 0)
(-0.00417399 0.0132357 0)
(-0.0112348 0.0212391 0)
(-0.0205088 0.0277581 0)
(-0.0313226 0.0326604 0)
(-0.0432 0.0359919 0)
(-0.055699 0.0378631 0)
(-0.0684165 0.038376 0)
(-0.0809742 0.0375878 0)
(-0.0929992 0.0355082 0)
(-0.104114 0.0321184 0)
(-0.113935 0.0274024 0)
(-0.122079 0.0213811 0)
(-0.128178 0.0141437 0)
(-0.131898 0.00587264 0)
(-0.132962 -0.00314221 0)
(-0.131175 -0.0125007 0)
(-0.126453 -0.0217009 0)
(-0.11885 -0.0301656 0)
(-0.108584 -0.0372833 0)
(-0.0960528 -0.0424656 0)
(-0.0818364 -0.0452187 0)
(-0.0666797 -0.0452218 0)
(-0.0514469 -0.0424014 0)
(-0.037047 -0.0369878 0)
(-0.0243357 -0.029538 0)
(-0.014002 -0.0209204 0)
(-0.00645641 -0.0122595 0)
(-0.0018211 -0.00485368 0)
(-0.00011574 -0.00015123 0)
(-0.000802987 0.00671698 0)
(-0.0050304 0.0193594 0)
(-0.0133835 0.0301145 0)
(-0.0242193 0.0386242 0)
(-0.0367219 0.044898 0)
(-0.0503452 0.0490876 0)
(-0.0646032 0.0513745 0)
(-0.0790662 0.0519008 0)
(-0.0933386 0.0507399 0)
(-0.107033 0.0479021 0)
(-0.119758 0.0433626 0)
(-0.13111 0.037101 0)
(-0.140684 0.0291436 0)
(-0.148079 0.0196004 0)
(-0.152918 0.00869485 0)
(-0.154871 -0.00321749 0)
(-0.153674 -0.0156434 0)
(-0.149168 -0.0279573 0)
(-0.14133 -0.0394285 0)
(-0.130308 -0.0492649 0)
(-0.116455 -0.0566806 0)
(-0.100349 -0.060985 0)
(-0.082788 -0.0616879 0)
(-0.0647568 -0.0586068 0)
(-0.0473482 -0.0519554 0)
(-0.0316486 -0.04239 0)
(-0.0185919 -0.0309957 0)
(-0.00880538 -0.0192068 0)
(-0.00259518 -0.00867665 0)
(-0.000203527 -0.0012033 0)
(-0.00093682 0.00958348 0)
(-0.00579394 0.0264922 0)
(-0.0153082 0.0403478 0)
(-0.0275551 0.0510423 0)
(-0.0415912 0.0587829 0)
(-0.0568084 0.063868 0)
(-0.0726847 0.0665766 0)
(-0.0887726 0.0671057 0)
(-0.10467 0.0655518 0)
(-0.119989 0.0619272 0)
(-0.134333 0.0561985 0)
(-0.147293 0.0483358 0)
(-0.158447 0.0383616 0)
(-0.167366 0.0263947 0)
(-0.173629 0.0126843 0)
(-0.17684 -0.00236473 0)
(-0.176653 -0.0181786 0)
(-0.172804 -0.03402 0)
(-0.16516 -0.0490036 0)
(-0.15376 -0.0621414 0)
(-0.138869 -0.0724156 0)
(-0.121021 -0.0788845 0)
(-0.101043 -0.0808182 0)
(-0.0800326 -0.077848 0)
(-0.0592889 -0.0701035 0)
(-0.040181 -0.0582992 0)
(-0.0239603 -0.0437359 0)
(-0.0115455 -0.0281976 0)
(-0.00348775 -0.0137625 0)
(-0.000300092 -0.00266466 0)
(-0.00105065 0.0128316 0)
(-0.00644639 0.0345121 0)
(-0.0169599 0.0517817 0)
(-0.03043 0.0648408 0)
(-0.0458057 0.0741433 0)
(-0.0624282 0.0801712 0)
(-0.0797482 0.0833262 0)
(-0.0973099 0.083876 0)
(-0.114715 0.0819481 0)
(-0.131584 0.0775589 0)
(-0.147529 0.0706641 0)
(-0.162146 0.0612166 0)
(-0.175004 0.0492232 0)
(-0.185655 0.0347944 0)
(-0.193632 0.0181847 0)
(-0.198471 -0.000175339 0)
(-0.19973 -0.0196551 0)
(-0.197026 -0.0394229 0)
(-0.190081 -0.0584473 0)
(-0.178784 -0.0755353 0)
(-0.163262 -0.0894053 0)
(-0.143955 -0.0988054 0)
(-0.121666 -0.102679 0)
(-0.0975791 -0.100369 0)
(-0.0732066 -0.0918189 0)
(-0.0502469 -0.0777293 0)
(-0.0303519 -0.0595985 0)
(-0.0148289 -0.0396047 0)
(-0.00456236 -0.0203439 0)
(-0.000417445 -0.00460789 0)
(-0.00114068 0.0163966 0)
(-0.00696711 0.0432724 0)
(-0.0182874 0.0642251 0)
(-0.0327556 0.0798105 0)
(-0.0492366 0.0907682 0)
(-0.0670326 0.0977956 0)
(-0.0855763 0.10144 0)
(-0.104412 0.102056 0)
(-0.123153 0.099811 0)
(-0.141439 0.0947281 0)
(-0.158902 0.0867498 0)
(-0.175153 0.0758039 0)
(-0.189767 0.061868 0)
(-0.202283 0.0450248 0)
(-0.2122 0.0255094 0)
(-0.218989 0.00374911 0)
(-0.222113 -0.0196031 0)
(-0.221059 -0.0436458 0)
(-0.215382 -0.067222 0)
(-0.204785 -0.0889386 0)
(-0.189203 -0.107229 0)
(-0.16891 -0.120475 0)
(-0.144616 -0.127198 0)
(-0.117529 -0.126319 0)
(-0.089347 -0.117456 0)
(-0.0621287 -0.101174 0)
(-0.0380131 -0.0791167 0)
(-0.018818 -0.053893 0)
(-0.00588823 -0.0287321 0)
(-0.000568453 -0.00714178 0)
(-0.00120269 0.0202018 0)
(-0.00733505 0.0526013 0)
(-0.0192405 0.0774536 0)
(-0.034446 0.0957028 0)
(-0.0517564 0.108403 0)
(-0.0704466 0.116491 0)
(-0.089939 0.120682 0)
(-0.109784 0.12143 0)
(-0.129616 0.118953 0)
(-0.149099 0.113287 0)
(-0.167898 0.104358 0)
(-0.18565 0.0920628 0)
(-0.20195 0.0763368 0)
(-0.216339 0.0572149 0)
(-0.228301 0.0348863 0)
(-0.237259 0.00974262 0)
(-0.242594 -0.0175772 0)
(-0.243666 -0.0461419 0)
(-0.23986 -0.0747052 0)
(-0.230663 -0.101698 0)
(-0.215768 -0.125268 0)
(-0.195203 -0.14339 0)
(-0.169482 -0.154071 0)
(-0.139739 -0.15566 0)
(-0.107783 -0.147253 0)
(-0.076023 -0.129099 0)
(-0.0471619 -0.10287 0)
(-0.0236734 -0.0716118 0)
(-0.00753732 -0.0393184 0)
(-0.000766822 -0.0104132 0)
(-0.00123287 0.0241596 0)
(-0.00753203 0.0623036 0)
(-0.019776 0.0912119 0)
(-0.0354259 0.112231 0)
(-0.0532504 0.126747 0)
(-0.0725063 0.135953 0)
(-0.0926122 0.140749 0)
(-0.113129 0.141704 0)
(-0.133715 0.139096 0)
(-0.15407 0.13298 0)
(-0.173896 0.123268 0)
(-0.192872 0.109823 0)
(-0.210628 0.0925254 0)
(-0.226731 0.0713465 0)
(-0.240673 0.046405 0)
(-0.251858 0.0180243 0)
(-0.259612 -0.0132097 0)
(-0.263195 -0.0463867 0)
(-0.261837 -0.0802246 0)
(-0.254801 -0.113027 0)
(-0.241494 -0.142689 0)
(-0.221621 -0.166769 0)
(-0.195381 -0.182684 0)
(-0.163685 -0.188058 0)
(-0.128322 -0.181228 0)
(-0.0919765 -0.161857 0)
(-0.0579542 -0.131429 0)
(-0.0295409 -0.0933727 0)
(-0.00958246 -0.0525702 0)
(-0.0010275 -0.0146079 0)
(-0.00122875 0.0281734 0)
(-0.00754653 0.0721662 0)
(-0.019866 0.105219 0)
(-0.0356434 0.129077 0)
(-0.0536328 0.145457 0)
(-0.0730805 0.155824 0)
(-0.0934044 0.16127 0)
(-0.114178 0.162498 0)
(-0.135087 0.159856 0)
(-0.155869 0.153427 0)
(-0.176275 0.143116 0)
(-0.196036 0.128749 0)
(-0.214837 0.110149 0)
(-0.232295 0.0872112 0)
(-0.247939 0.0599662 0)
(-0.261197 0.0286407 0)
(-0.271383 -0.00627358 0)
(-0.277702 -0.0439457 0)
(-0.279264 -0.0831221 0)
(-0.275128 -0.122058 0)
(-0.264402 -0.158466 0)
(-0.246402 -0.189529 0)
(-0.220889 -0.212048 0)
(-0.188372 -0.222784 0)
(-0.150412 -0.219054 0)
(-0.109812 -0.19957 0)
(-0.0704408 -0.16528 0)
(-0.0365363 -0.11981 0)
(-0.0120951 -0.06902 0)
(-0.00136722 -0.0199512 0)
(-0.00119011 0.0321425 0)
(-0.00737788 0.0819674 0)
(-0.0195065 0.11918 0)
(-0.0350833 0.145896 0)
(-0.0528662 0.164156 0)
(-0.0720953 0.175694 0)
(-0.0921886 0.181809 0)
(-0.112733 0.183347 0)
(-0.133442 0.180744 0)
(-0.154094 0.17412 0)
(-0.174497 0.163383 0)
(-0.194445 0.148328 0)
(-0.213695 0.128723 0)
(-0.23194 0.104385 0)
(-0.248784 0.0752435 0)
(-0.26372 0.0414093 0)
(-0.27611 0.00324364 0)
(-0.285159 -0.0385556 0)
(-0.289919 -0.0828431 0)
(-0.289298 -0.127928 0)
(-0.282127 -0.171452 0)
(-0.267303 -0.210327 0)
(-0.244047 -0.24078 0)
(-0.212275 -0.258632 0)
(-0.173058 -0.25993 0)
(-0.129045 -0.241992 0)
(-0.0845149 -0.204709 0)
(-0.0447237 -0.15152 0)
(-0.0151419 -0.0892455 0)
(-0.00180494 -0.0267072 0)
(-0.00111984 0.0359693 0)
(-0.00704039 0.0914907 0)
(-0.0187268 0.1328 0)
(-0.0337826 0.162336 0)
(-0.0509819 0.182441 0)
(-0.0695597 0.195114 0)
(-0.0889346 0.20187 0)
(-0.108707 0.203709 0)
(-0.128616 0.201172 0)
(-0.148488 0.194431 0)
(-0.168189 0.18341 0)
(-0.18759 0.167884 0)
(-0.206535 0.147576 0)
(-0.224816 0.12223 0)
(-0.242147 0.0916755 0)
(-0.258132 0.0558965 0)
(-0.272233 0.0150987 0)
(-0.28373 -0.0301976 0)
(-0.291695 -0.0790368 0)
(-0.294966 -0.129899 0)
(-0.292162 -0.180508 0)
(-0.281789 -0.227665 0)
(-0.262473 -0.267159 0)
(-0.233372 -0.293902 0)
(-0.19478 -0.302482 0)
(-0.148818 -0.28836 0)
(-0.099851 -0.24966 0)
(-0.0540871 -0.188972 0)
(-0.0187791 -0.113837 0)
(-0.00236226 -0.0351763 0)
(-0.00102472 0.0395686 0)
(-0.00656744 0.100543 0)
(-0.0175992 0.145807 0)
(-0.0318449 0.178057 0)
(-0.0480987 0.199907 0)
(-0.0655902 0.213615 0)
(-0.083739 0.220918 0)
(-0.102159 0.222988 0)
(-0.120621 0.22048 0)
(-0.138999 0.213643 0)
(-0.157224 0.202429 0)
(-0.175251 0.186613 0)
(-0.193027 0.165885 0)
(-0.210463 0.139931 0)
(-0.227408 0.108493 0)
(-0.243614 0.0714299 0)
(-0.258696 0.028782 0)
(-0.272073 -0.0191435 0)
(-0.282929 -0.0716476 0)
(-0.290135 -0.127497 0)
(-0.292202 -0.184665 0)
(-0.287334 -0.240062 0)
(-0.27359 -0.289274 0)
(-0.249278 -0.326467 0)
(-0.213646 -0.344735 0)
(-0.167852 -0.337265 0)
(-0.115848 -0.29958 0)
(-0.064497 -0.232393 0)
(-0.0230456 -0.143353 0)
(-0.00306389 -0.04569 0)
(-0.000916167 0.0428786 0)
(-0.00601567 0.10898 0)
(-0.0162481 0.157975 0)
(-0.0294538 0.192751 0)
(-0.0444404 0.216163 0)
(-0.0604299 0.230725 0)
(-0.0768464 0.238403 0)
(-0.093324 0.240554 0)
(-0.10967 0.23797 0)
(-0.125814 0.230989 0)
(-0.14176 0.219614 0)
(-0.157555 0.203637 0)
(-0.173257 0.182737 0)
(-0.188907 0.156561 0)
(-0.204508 0.124779 0)
(-0.219985 0.0871441 0)
(-0.235144 0.0435386 0)
(-0.249593 -0.0059555 0)
(-0.262709 -0.0609726 0)
(-0.273504 -0.120624 0)
(-0.280518 -0.183301 0)
(-0.281802 -0.246276 0)
(-0.274968 -0.305249 0)
(-0.257492 -0.353962 0)
(-0.227409 -0.38418 0)
(-0.184478 -0.386594 0)
(-0.131592 -0.353261 0)
(-0.0756773 -0.281626 0)
(-0.027957 -0.178251 0)
(-0.00393885 -0.0586036 0)
(-0.000811424 0.0458754 0)
(-0.00547029 0.116729 0)
(-0.0148606 0.16916 0)
(-0.026887 0.206176 0)
(-0.0403494 0.230864 0)
(-0.0544608 0.245995 0)
(-0.06866 0.253781 0)
(-0.0826158 0.255779 0)
(-0.0961874 0.252936 0)
(-0.109371 0.245697 0)
(-0.122254 0.234134 0)
(-0.134983 0.218074 0)
(-0.147731 0.197206 0)
(-0.160679 0.171158 0)
(-0.173983 0.139553 0)
(-0.187748 0.102058 0)
(-0.201985 0.0584125 0)
(-0.216558 0.0084816 0)
(-0.231058 -0.0476832 0)
(-0.244709 -0.109627 0)
(-0.256261 -0.176287 0)
(-0.263795 -0.245528 0)
(-0.264683 -0.313526 0)
(-0.255729 -0.374058 0)
(-0.233735 -0.417983 0)
(-0.196737 -0.433574 0)
(-0.145854 -0.408737 0)
(-0.0871789 -0.335975 0)
(-0.0335025 -0.218816 0)
(-0.00502384 -0.0742876 0)
(-0.00073586 0.0485896 0)
(-0.00505378 0.123829 0)
(-0.0137012 0.179329 0)
(-0.0245313 0.218182 0)
(-0.0362982 0.243722 0)
(-0.0482087 0.259013 0)
(-0.0597385 0.26653 0)
(-0.0706188 0.268054 0)
(-0.0807864 0.264699 0)
(-0.0903247 0.257031 0)
(-0.0994186 0.245204 0)
(-0.108321 0.229097 0)
(-0.117324 0.208425 0)
(-0.126743 0.182815 0)
(-0.136884 0.151867 0)
(-0.148026 0.115183 0)
(-0.16038 0.0723885 0)
(-0.174033 0.0231561 0)
(-0.188847 -0.0327276 0)
(-0.204352 -0.0952817 0)
(-0.219586 -0.16405 0)
(-0.232869 -0.237664 0)
(-0.241608 -0.313127 0)
(-0.242226 -0.384795 0)
(-0.230478 -0.443289 0)
(-0.202549 -0.474949 0)
(-0.157138 -0.463249 0)
(-0.0983672 -0.394061 0)
(-0.0396507 -0.265063 0)
(-0.0063713 -0.0931244 0)
(-0.000728396 0.0511312 0)
(-0.00494246 0.130468 0)
(-0.0131353 0.188599 0)
(-0.0229033 0.22873 0)
(-0.0328986 0.254529 0)
(-0.0423383 0.269412 0)
(-0.0507763 0.276163 0)
(-0.0580528 0.276803 0)
(-0.064222 0.272623 0)
(-0.0694842 0.264315 0)
(-0.0741389 0.252122 0)
(-0.0785534 0.23598 0)
(-0.0831388 0.215639 0)
(-0.0883318 0.190742 0)
(-0.0945766 0.16088 0)
(-0.102302 0.125617 0)
(-0.111894 0.0844958 0)
(-0.123642 0.0370362 0)
(-0.137671 -0.0172256 0)
(-0.153831 -0.0787003 0)
(-0.171537 -0.147535 0)
(-0.18952 -0.223218 0)
(-0.20551 -0.303839 0)
(-0.215941 -0.384886 0)
(-0.21591 -0.457581 0)
(-0.199899 -0.507264 0)
(-0.163764 -0.513332 0)
(-0.108419 -0.453692 0)
(-0.0463641 -0.316631 0)
(-0.00806589 -0.115518 0)
(-0.000853802 0.0537284 0)
(-0.00539899 0.137042 0)
(-0.0136686 0.197276 0)
(-0.0226763 0.237913 0)
(-0.030907 0.263143 0)
(-0.037633 0.276861 0)
(-0.0425592 0.282214 0)
(-0.0457063 0.281477 0)
(-0.0473021 0.276117 0)
(-0.047701 0.266943 0)
(-0.0473376 0.254276 0)
(-0.0466998 0.23811 0)
(-0.0463106 0.218227 0)
(-0.0467142 0.19429 0)
(-0.0484669 0.165895 0)
(-0.0521165 0.132577 0)
(-0.0581922 0.0938341 0)
(-0.0671518 0.0490647 0)
(-0.0793341 -0.00237525 0)
(-0.0948986 -0.0612037 0)
(-0.113668 -0.128088 0)
(-0.134895 -0.203339 0)
(-0.156892 -0.286261 0)
(-0.176534 -0.373905 0)
(-0.188812 -0.459003 0)
(-0.186962 -0.527211 0)
(-0.163927 -0.554993 0)
(-0.116312 -0.511788 0)
(-0.0536153 -0.372654 0)
(-0.0102532 -0.141925 0)
(-0.00122908 0.056796 0)
(-0.00683306 0.144233 0)
(-0.0160086 0.205888 0)
(-0.024711 0.245937 0)
(-0.0312092 0.269462 0)
(-0.0349356 0.281022 0)
(-0.0358681 0.284198 0)
(-0.034309 0.281522 0)
(-0.0307309 0.274608 0)
(-0.0256845 0.264352 0)
(-0.0197591 0.251132 0)
(-0.0135648 0.234974 0)
(-0.00772435 0.215688 0)
(-0.00286562 0.192948 0)
(0.000369161 0.166349 0)
(0.00135065 0.135418 0)
(-0.000561618 0.099611 0)
(-0.00595053 0.0582847 0)
(-0.0153121 0.010667 0)
(-0.0290762 -0.0441692 0)
(-0.047457 -0.10727 0)
(-0.0702707 -0.179624 0)
(-0.0965821 -0.261694 0)
(-0.124102 -0.352327 0)
(-0.148354 -0.446571 0)
(-0.162077 -0.531938 0)
(-0.155691 -0.583934 0)
(-0.120755 -0.564326 0)
(-0.0613695 -0.431583 0)
(-0.0131782 -0.172928 0)
(-0.00207695 0.0610634 0)
(-0.0099067 0.153107 0)
(-0.0211417 0.215184 0)
(-0.0300534 0.253062 0)
(-0.034729 0.273323 0)
(-0.0349795 0.28146 0)
(-0.0312471 0.281538 0)
(-0.0242496 0.276314 0)
(-0.0147856 0.267487 0)
(-0.00364157 0.255978 0)
(0.00842629 0.242172 0)
(0.0206933 0.226097 0)
(0.0324569 0.207565 0)
(0.0430235 0.186254 0)
(0.0517022 0.161749 0)
(0.0578093 0.133575 0)
(0.0606548 0.101163 0)
(0.0595672 0.0638679 0)
(0.0539012 0.0208567 0)
(0.0430232 -0.0289002 0)
(0.0263826 -0.0866617 0)
(0.0036255 -0.153869 0)
(-0.0251294 -0.231916 0)
(-0.0587078 -0.321403 0)
(-0.0937771 -0.420214 0)
(-0.123547 -0.519261 0)
(-0.136822 -0.595776 0)
(-0.120004 -0.606303 0)
(-0.0694578 -0.490903 0)
(-0.0172102 -0.209298 0)
(-0.00382767 0.0678141 0)
(-0.0156953 0.165232 0)
(-0.0303735 0.226053 0)
(-0.039782 0.259406 0)
(-0.0420917 0.274302 0)
(-0.0379054 0.277453 0)
(-0.0284112 0.273406 0)
(-0.014903 0.265031 0)
(0.00141665 0.253996 0)
(0.0194973 0.241151 0)
(0.0384228 0.226809 0)
(0.0573749 0.210957 0)
(0.0755971 0.193376 0)
(0.092366 0.173726 0)
(0.106973 0.151591 0)
(0.118712 0.126491 0)
(0.126868 0.0978673 0)
(0.130712 0.0650679 0)
(0.129489 0.0272758 0)
(0.122399 -0.0165371 0)
(0.108617 -0.0676838 0)
(0.0873269 -0.127804 0)
(0.0578815 -0.198878 0)
(0.0202311 -0.282928 0)
(-0.0238955 -0.380695 0)
(-0.0692431 -0.4878 0)
(-0.104441 -0.586243 0)
(-0.111469 -0.63165 0)
(-0.0771954 -0.546615 0)
(-0.022768 -0.251932 0)
(-0.00729325 0.0793182 0)
(-0.0258708 0.182728 0)
(-0.0451205 0.23919 0)
(-0.0543314 0.2645 0)
(-0.05257 0.271286 0)
(-0.0419426 0.267648 0)
(-0.0247543 0.258446 0)
(-0.0030347 0.246441 0)
(0.0215627 0.23307 0)
(0.0477352 0.218968 0)
(0.0744426 0.20429 0)
(0.100818 0.188915 0)
(0.126097 0.172561 0)
(0.14957 0.154859 0)
(0.170546 0.135383 0)
(0.188332 0.11366 0)
(0.202208 0.0891556 0)
(0.211411 0.0612535 0)
(0.215113 0.0292017 0)
(0.212375 -0.00794495 0)
(0.202157 -0.0514196 0)
(0.183279 -0.102826 0)
(0.154459 -0.164348 0)
(0.114577 -0.238873 0)
(0.0634864 -0.329545 0)
(0.00392954 -0.437178 0)
(-0.0544009 -0.55145 0)
(-0.0909339 -0.633121 0)
(-0.0825176 -0.592407 0)
(-0.0299428 -0.301513 0)
(-0.0138765 0.0995228 0)
(-0.0426408 0.207905 0)
(-0.0657217 0.254171 0)
(-0.0712272 0.266307 0)
(-0.0611266 0.261656 0)
(-0.0400876 0.249452 0)
(-0.0118968 0.234373 0)
(0.0206221 0.218647 0)
(0.0554315 0.203194 0)
(0.0910848 0.188252 0)
(0.126527 0.17371 0)
(0.160941 0.159283 0)
(0.193638 0.144599 0)
(0.223987 0.129248 0)
(0.251371 0.112801 0)
(0.275148 0.0948056 0)
(0.294631 0.0747774 0)
(0.309057 0.0521719 0)
(0.317555 0.026347 0)
(0.319085 -0.00349659 0)
(0.312466 -0.0383932 0)
(0.29626 -0.0797475 0)
(0.26873 -0.129597 0)
(0.227915 -0.191047 0)
(0.171988 -0.268751 0)
(0.100678 -0.368113 0)
(0.0197386 -0.488479 0)
(-0.0511112 -0.602404 0)
(-0.0804621 -0.618801 0)
(-0.0375096 -0.358377 0)
(-0.0254049 0.135026 0)
(-0.0671058 0.240995 0)
(-0.0866831 0.266536 0)
(-0.0783454 0.258808 0)
(-0.051 0.239645 0)
(-0.012819 0.21808 0)
(0.0310406 0.197525 0)
(0.0773361 0.179005 0)
(0.124042 0.162559 0)
(0.169905 0.14785 0)
(0.214118 0.134422 0)
(0.25611 0.121796 0)
(0.295411 0.10951 0)
(0.33158 0.0971286 0)
(0.36415 0.0842377 0)
(0.392598 0.070435 0)
(0.416321 0.0553123 0)
(0.434608 0.0384323 0)
(0.446602 0.0192971 0)
(0.451243 -0.00270602 0)
(0.447294 -0.0282953 0)
(0.433169 -0.0585807 0)
(0.406884 -0.0952101 0)
(0.365957 -0.140916 0)
(0.307314 -0.200582 0)
(0.227779 -0.282454 0)
(0.127864 -0.395563 0)
(0.0207224 -0.531004 0)
(-0.060963 -0.612579 0)
(-0.0408471 -0.421823 0)
(-0.04131 0.197197 0)
(-0.0902363 0.272607 0)
(-0.0798373 0.25925 0)
(-0.0361807 0.226423 0)
(0.0217869 0.193643 0)
(0.0843391 0.165673 0)
(0.146885 0.142994 0)
(0.207209 0.124777 0)
(0.264308 0.109969 0)
(0.317797 0.0976448 0)
(0.367556 0.0870575 0)
(0.413537 0.0776076 0)
(0.455676 0.0688084 0)
(0.49384 0.060255 0)
(0.527804 0.0516003 0)
(0.557233 0.0425338 0)
(0.581669 0.0327625 0)
(0.600523 0.0219908 0)
(0.613021 0.00989472 0)
(0.618247 -0.0039338 0)
(0.615017 -0.0198834 0)
(0.601738 -0.0386685 0)
(0.576443 -0.0613835 0)
(0.536485 -0.089956 0)
(0.478145 -0.128252 0)
(0.396126 -0.184456 0)
(0.285112 -0.273853 0)
(0.145996 -0.410559 0)
(-0.00337867 -0.554023 0)
(-0.0253829 -0.477526 0)
(-0.0341491 0.293696 0)
(-0.0479541 0.272532 0)
(0.0536657 0.199489 0)
(0.156743 0.149682 0)
(0.249731 0.114927 0)
(0.332073 0.0901005 0)
(0.404678 0.0725043 0)
(0.468719 0.0599071 0)
(0.525451 0.0506033 0)
(0.575992 0.0434455 0)
(0.621206 0.037682 0)
(0.661697 0.0328022 0)
(0.697851 0.0284429 0)
(0.729859 0.0243348 0)
(0.757742 0.020269 0)
(0.781372 0.0160744 0)
(0.800476 0.0116009 0)
(0.814643 0.00671062 0)
(0.823247 0.0012591 0)
(0.82568 -0.00481429 0)
(0.820988 -0.0118442 0)
(0.807872 -0.0201023 0)
(0.784719 -0.0300527 0)
(0.749217 -0.0426274 0)
(0.697769 -0.059875 0)
(0.624276 -0.0868814 0)
(0.518471 -0.137171 0)
(0.365136 -0.24027 0)
(0.144131 -0.406972 0)
(0.058868 -0.458305 0)
(0.303204 0.180896 0)
(0.382394 0.144217 0)
(0.560561 0.0910625 0)
(0.686301 0.0589404 0)
(0.769024 0.0393402 0)
(0.828744 0.0268812 0)
(0.874805 0.0189983 0)
(0.911554 0.0140134 0)
(0.94169 0.0107799 0)
(0.967015 0.00858464 0)
(0.98867 0.00700362 0)
(1.00735 0.00578186 0)
(1.02347 0.00476067 0)
(1.03725 0.00383757 0)
(1.04877 0.0029432 0)
(1.058 0.00202762 0)
(1.06483 0.00105073 0)
(1.06906 -1.77594e-05 0)
(1.07046 -0.00121808 0)
(1.06867 -0.00245298 0)
(1.06315 -0.00392213 0)
(1.05345 -0.00566324 0)
(1.03877 -0.00775134 0)
(1.01793 -0.0103939 0)
(0.988877 -0.0140902 0)
(0.947488 -0.0201845 0)
(0.883956 -0.0325697 0)
(0.776342 -0.0637472 0)
(0.544819 -0.139462 0)
(0.38249 -0.201736 0)
)
;

boundaryField
{
    movingWall
    {
        type            fixedValue;
        value           uniform (1.2 0 0);
    }
    fixedWalls
    {
        type            noSlip;
    }
    frontAndBack
    {
        type            empty;
    }
}


// ************************************************************************* //
