/*--------------------------------*- C++ -*----------------------------------*\
  =========                 |
  \\      /  F ield         | OpenFOAM: The Open Source CFD Toolbox
   \\    /   O peration     | Website:  https://openfoam.org
    \\  /    A nd           | Version:  7
     \\/     M anipulation  |
\*---------------------------------------------------------------------------*/
FoamFile
{
    version     2.0;
    format      ascii;
    class       volScalarField;
    location    "7";
    object      p;
}
// * * * * * * * * * * * * * * * * * * * * * * * * * * * * * * * * * * * * * //

dimensions      [0 2 -2 0 0 0 0];

internalField   nonuniform List<scalar> 
900
(
-2.62183e-07
-0.000340121
-0.000890289
-0.00147563
-0.00199272
-0.00237925
-0.00260337
-0.00264999
-0.00251054
-0.00217844
-0.00164865
-0.000919939
1.5288e-06
0.00109805
0.00233695
0.00366853
0.0050263
0.00633014
0.00749262
0.0084281
0.00906375
0.00935083
0.00927436
0.0088591
0.0081709
0.00731149
0.00640602
0.00561194
0.00508043
0.00493977
0.000333963
-1.72507e-05
-0.000436589
-0.000865305
-0.00124122
-0.00151955
-0.00167523
-0.00169384
-0.0015655
-0.00128246
-0.000839139
-0.000233793
0.000528763
0.00143405
0.00245512
0.00355078
0.00466783
0.00573978
0.00669523
0.00746458
0.00798922
0.00823105
0.00818028
0.00785983
0.00732527
0.00666013
0.00596585
0.00534497
0.00492553
0.00479688
0.000903626
0.000386607
-4.67432e-05
-0.000430579
-0.000751654
-0.000983041
-0.00111018
-0.00112431
-0.00101751
-0.00078183
-0.000410145
0.000101958
0.000753383
0.0015344
0.00242388
0.00338794
0.0043785
0.00533632
0.00619566
0.00689124
0.00736736
0.00758715
0.00754034
0.00724733
0.00675854
0.00614872
0.00550718
0.00492591
0.00449555
0.00428249
0.00153426
0.000794462
0.000284683
-0.000110004
-0.000421904
-0.000641585
-0.000766543
-0.000795646
-0.000724123
-0.000543908
-0.000245378
0.000180115
0.000736964
0.00142168
0.00221952
0.00310205
0.00402573
0.00493381
0.00576067
0.00643895
0.00690901
0.00712915
0.00708416
0.00679013
0.00629382
0.00566621
0.00499265
0.00436177
0.00384464
0.00347441
0.00208959
0.00111027
0.000501712
7.09865e-05
-0.000256854
-0.000488425
-0.000632878
-0.000696518
-0.000677422
-0.000566781
-0.000351495
-1.73754e-05
0.000446881
0.00104532
0.00177041
0.00259944
0.00349307
0.00439493
0.00523659
0.00594448
0.00645018
0.00670195
0.00667503
0.00637805
0.00585319
0.00516966
0.00441401
0.00367863
0.00302479
0.00244756
0.00245344
0.00123722
0.00052141
3.92447e-05
-0.000323733
-0.000588523
-0.00077466
-0.000894813
-0.000948934
-0.000926451
-0.000809637
-0.00057745
-0.0002102
0.000305215
0.000969829
0.00176769
0.00266389
0.00360176
0.00450818
0.00529997
0.00589508
0.00622589
0.00625208
0.00596973
0.00541365
0.0046518
0.0037762
0.00289063
0.00205443
0.00123152
0.00252513
0.00108657
0.000263725
-0.000278771
-0.000691872
-0.00100955
-0.00126028
-0.00146171
-0.00161443
-0.00170495
-0.00170968
-0.0015993
-0.00134403
-0.000919729
-0.000314698
0.000463819
0.00138804
0.00240103
0.00342456
0.00436333
0.0051168
0.0055946
0.00573278
0.00550718
0.00493973
0.00409541
0.00307492
0.00200122
0.000940392
-0.000170137
0.00221591
0.000576851
-0.000347279
-0.000954871
-0.00143058
-0.00182026
-0.00216004
-0.00247121
-0.00275388
-0.00299055
-0.00315057
-0.00319483
-0.00308149
-0.00277281
-0.00224329
-0.00148814
-0.000522042
0.000598291
0.00179143
0.0029489
0.00394717
0.00466517
0.00500467
0.00490992
0.00438038
0.003473
0.00229843
0.00100639
-0.000321541
-0.00177221
0.0014468
-0.00036565
-0.00138228
-0.00205803
-0.00260834
-0.00309015
-0.00354619
-0.00400045
-0.0044517
-0.00487765
-0.00523963
-0.00548728
-0.00556451
-0.00541679
-0.00499944
-0.0042868
-0.00328903
-0.00204293
-0.000632087
0.000822061
0.0021696
0.00325012
0.00391784
0.00406927
0.00366614
0.00274685
0.0014298
-0.00010137
-0.00174084
-0.00359926
0.00014948
-0.00180471
-0.00290331
-0.00364998
-0.00428764
-0.00488359
-0.00548656
-0.00612267
-0.00678903
-0.00745831
-0.00808328
-0.00860115
-0.00893934
-0.00902284
-0.00878331
-0.00817018
-0.00716796
-0.00579726
-0.00413335
-0.00230523
-0.000489839
0.00110531
0.00227145
0.00283608
0.00270005
0.00186441
0.000447033
-0.00132943
-0.00332563
-0.00567668
-0.00173096
-0.00379113
-0.00495996
-0.00578053
-0.00651918
-0.00725309
-0.00803664
-0.00889806
-0.00983319
-0.01081
-0.0117729
-0.0126459
-0.0133381
-0.0137503
-0.0137849
-0.0133583
-0.0124184
-0.0109576
-0.009031
-0.00676529
-0.00436013
-0.00207449
-0.000195475
0.00100941
0.00134775
0.00075253
-0.000677681
-0.00268109
-0.00507568
-0.00802173
-0.00423251
-0.0063595
-0.00758583
-0.00848309
-0.00933638
-0.0102323
-0.0112311
-0.0123635
-0.0136252
-0.0149807
-0.0163666
-0.0176944
-0.0188535
-0.0197177
-0.0201543
-0.0200378
-0.0192682
-0.0177965
-0.0156388
-0.012904
-0.00980289
-0.00664313
-0.00380142
-0.00166788
-0.00056968
-0.000687962
-0.0019786
-0.00415119
-0.00697433
-0.0106334
-0.00737272
-0.00952534
-0.0107953
-0.0117706
-0.01275
-0.0138293
-0.0150749
-0.0165215
-0.0181661
-0.0199717
-0.0218693
-0.0237584
-0.0255091
-0.0269663
-0.0279579
-0.0283085
-0.0278576
-0.026507
-0.0242051
-0.021023
-0.0171618
-0.0129644
-0.00889812
-0.00549862
-0.00327469
-0.00258426
-0.00349572
-0.00572005
-0.008978
-0.0134799
-0.011146
-0.0132832
-0.0145815
-0.0156328
-0.0167442
-0.0180206
-0.0195358
-0.0213301
-0.0234043
-0.0257224
-0.0282121
-0.0307636
-0.0332289
-0.0354237
-0.0371348
-0.0381338
-0.0382002
-0.0371339
-0.0348328
-0.0312953
-0.0266813
-0.0213405
-0.0158151
-0.0107955
-0.0070152
-0.00508434
-0.00526969
-0.00734442
-0.0110023
-0.0164813
-0.0155229
-0.0176064
-0.0189162
-0.0200351
-0.0212738
-0.0227472
-0.0245383
-0.0266955
-0.029226
-0.0320979
-0.0352388
-0.0385325
-0.0418153
-0.0448759
-0.0474603
-0.0492842
-0.0500533
-0.0494907
-0.0473944
-0.0436703
-0.0384035
-0.0319097
-0.0247693
-0.0178115
-0.0120196
-0.00833258
-0.00732766
-0.00894299
-0.0129025
-0.019487
-0.0204509
-0.0224501
-0.0237521
-0.0249203
-0.0262655
-0.0279144
-0.0299624
-0.0324691
-0.0354517
-0.0388856
-0.0427015
-0.0467796
-0.050944
-0.0549599
-0.0585359
-0.0613342
-0.0629894
-0.0631364
-0.0614762
-0.0577957
-0.0520711
-0.0445357
-0.035751
-0.0266374
-0.0184191
-0.01242
-0.00965378
-0.0103734
-0.014448
-0.0222452
-0.0258592
-0.0277558
-0.0290282
-0.030213
-0.0316206
-0.0333937
-0.0356451
-0.0384505
-0.0418407
-0.0458016
-0.0502696
-0.0551242
-0.0601804
-0.0651837
-0.06981
-0.0736745
-0.0763472
-0.07738
-0.076374
-0.0729908
-0.067072
-0.0587219
-0.048415
-0.0370854
-0.0261417
-0.0173057
-0.0121386
-0.0113971
-0.0152865
-0.0243632
-0.0316664
-0.0334613
-0.0346786
-0.0358272
-0.0372217
-0.0390292
-0.0413881
-0.0443966
-0.0481036
-0.0525081
-0.057554
-0.0631216
-0.0690189
-0.0749748
-0.0806381
-0.0855837
-0.0893301
-0.0913659
-0.0911634
-0.0882991
-0.0824631
-0.0735964
-0.0620222
-0.0485933
-0.034802
-0.0227156
-0.0145053
-0.0116285
-0.0148994
-0.0252583
-0.0377913
-0.0395134
-0.0406441
-0.0416757
-0.0429406
-0.0446453
-0.0469668
-0.0500347
-0.053921
-0.0586394
-0.0641415
-0.0703079
-0.0769395
-0.0837503
-0.0903658
-0.0963278
-0.10111
-0.104139
-0.104823
-0.102621
-0.0970884
-0.0879952
-0.07547
-0.0601962
-0.0436221
-0.0280421
-0.016218
-0.0104661
-0.0125439
-0.0240939
-0.04417
-0.0458864
-0.0468877
-0.0476804
-0.048646
-0.0500548
-0.0521417
-0.0550792
-0.0589669
-0.0638334
-0.0696354
-0.0762507
-0.0834705
-0.0909927
-0.0984204
-0.105267
-0.110968
-0.114904
-0.116425
-0.114899
-0.109767
-0.100635
-0.0874272
-0.0705972
-0.0514279
-0.0322786
-0.0163894
-0.00700858
-0.00718016
-0.0196961
-0.0507813
-0.0526083
-0.0534121
-0.0537824
-0.0542091
-0.0550652
-0.056669
-0.0592483
-0.0629328
-0.0677632
-0.0736951
-0.0805969
-0.088244
-0.0963137
-0.104385
-0.111942
-0.118388
-0.123062
-0.125265
-0.124292
-0.11949
-0.11033
-0.0965407
-0.0783338
-0.0567428
-0.034026
-0.0137175
3.78589e-05
0.00261876
-0.0104335
-0.0576908
-0.0597993
-0.0602817
-0.0599489
-0.0595053
-0.059482
-0.0603094
-0.0622802
-0.0655515
-0.0701668
-0.0760703
-0.0831096
-0.0910348
-0.0994953
-0.10804
-0.116125
-0.123114
-0.128303
-0.130947
-0.130283
-0.125572
-0.116172
-0.101651
-0.0819969
-0.0579655
-0.031587
-0.00648054
0.0124398
0.0187787
0.00596744
-0.0651382
-0.0677352
-0.0676494
-0.0661764
-0.0644108
-0.0631097
-0.0628379
-0.0639509
-0.0666196
-0.0708724
-0.0766265
-0.0836915
-0.0917812
-0.100507
-0.109381
-0.117815
-0.125137
-0.130597
-0.133396
-0.132704
-0.1277
-0.117643
-0.101957
-0.0804467
-0.0535948
-0.0231493
0.00737908
0.0324761
0.0438724
0.0327248
-0.0737238
-0.0769543
-0.0757911
-0.0724907
-0.0687983
-0.0657557
-0.064057
-0.0640947
-0.0660211
-0.0698216
-0.0753574
-0.0823869
-0.0905715
-0.0994742
-0.108559
-0.117195
-0.124657
-0.130144
-0.132788
-0.131683
-0.125911
-0.114617
-0.0970986
-0.0729899
-0.0424854
-0.00708171
0.0300255
0.0628955
0.0813356
0.0744903
-0.0848325
-0.0884436
-0.0851394
-0.0789376
-0.0725319
-0.0672383
-0.0638149
-0.062624
-0.0637435
-0.0670713
-0.0723862
-0.0793722
-0.0876249
-0.0966497
-0.105858
-0.114565
-0.121991
-0.12727
-0.129458
-0.127554
-0.120513
-0.107351
-0.0871949
-0.0594741
-0.0241882
0.0176136
0.0632312
0.106675
0.135643
0.137854
-0.101622
-0.103973
-0.0962874
-0.0855407
-0.0754405
-0.067374
-0.0619959
-0.059518
-0.0598569
-0.062771
-0.0679224
-0.0749013
-0.0832271
-0.0923415
-0.1016
-0.110262
-0.117494
-0.122358
-0.123829
-0.120803
-0.112064
-0.0964807
-0.0729507
-0.0406181
0.000869136
0.0509516
0.107623
0.166228
0.211849
0.231277
-0.131231
-0.126612
-0.110021
-0.0922879
-0.0772894
-0.0659395
-0.0584805
-0.0547781
-0.0544743
-0.0571186
-0.0622232
-0.0692695
-0.0776964
-0.0868831
-0.0961322
-0.104656
-0.111566
-0.115864
-0.116448
-0.112106
-0.101475
-0.0831951
-0.0558752
-0.0182378
0.0306726
0.0911863
0.16269
0.241592
0.31384
0.366412
-0.189751
-0.159878
-0.126822
-0.0987433
-0.077395
-0.0623739
-0.0529539
-0.0483256
-0.0476933
-0.0503324
-0.0555846
-0.0628233
-0.0714168
-0.0806954
-0.0899246
-0.0982828
-0.104845
-0.108565
-0.108278
-0.102671
-0.0903681
-0.0696772
-0.0388755
0.00388401
0.0605425
0.13303
0.223171
0.330268
0.443769
0.570059
-0.320973
-0.199703
-0.138394
-0.0973429
-0.0698853
-0.0524354
-0.0424975
-0.0381829
-0.0381533
-0.0414523
-0.0473222
-0.0550905
-0.0641051
-0.0736891
-0.0831062
-0.0915345
-0.0980473
-0.101593
-0.100984
-0.0947545
-0.0816536
-0.0597855
-0.0271352
0.0187075
0.0808717
0.163725
0.273738
0.419417
0.60776
0.897286
-0.648309
-0.236159
-0.10696
-0.0623731
-0.0380369
-0.024439
-0.0186663
-0.0180795
-0.0210304
-0.0266396
-0.0343125
-0.0435138
-0.0536959
-0.0642626
-0.0745402
-0.0837557
-0.09102
-0.0953181
-0.0955215
-0.0904671
-0.0783019
-0.0574718
-0.0259563
0.0188619
0.0806924
0.165765
0.286518
0.471279
0.777428
1.37129
)
;

boundaryField
{
    movingWall
    {
        type            zeroGradient;
    }
    fixedWalls
    {
        type            zeroGradient;
    }
    frontAndBack
    {
        type            empty;
    }
}


// ************************************************************************* //
