/*--------------------------------*- C++ -*----------------------------------*\
  =========                 |
  \\      /  F ield         | OpenFOAM: The Open Source CFD Toolbox
   \\    /   O peration     | Website:  https://openfoam.org
    \\  /    A nd           | Version:  7
     \\/     M anipulation  |
\*---------------------------------------------------------------------------*/
FoamFile
{
    version     2.0;
    format      ascii;
    class       surfaceScalarField;
    location    "7";
    object      phi;
}
// * * * * * * * * * * * * * * * * * * * * * * * * * * * * * * * * * * * * * //

dimensions      [0 3 -1 0 0 0 0];

internalField   nonuniform List<scalar> 
1740
(
7.9139e-07
-7.91126e-07
4.33477e-07
3.57902e-07
-1.48012e-06
1.91357e-06
-4.78326e-06
3.30315e-06
-9.13282e-06
4.34957e-06
-1.41855e-05
5.05273e-06
-1.96528e-05
5.46724e-06
-2.52999e-05
5.64713e-06
-3.09252e-05
5.6253e-06
-3.63363e-05
5.41112e-06
-4.13325e-05
4.99621e-06
-4.56963e-05
4.36375e-06
-4.91951e-05
3.49879e-06
-5.15934e-05
2.39838e-06
-5.26738e-05
1.08036e-06
-5.22629e-05
-4.10917e-07
-5.02617e-05
-2.0012e-06
-4.66745e-05
-3.58716e-06
-4.16308e-05
-5.04373e-06
-3.53944e-05
-6.23636e-06
-2.83572e-05
-7.03724e-06
-2.10129e-05
-7.34424e-06
-1.39138e-05
-7.0991e-06
-7.61243e-06
-6.30141e-06
-2.59624e-06
-5.01619e-06
7.82627e-07
-3.37886e-06
2.38067e-06
-1.59804e-06
2.31367e-06
6.6999e-08
1.11189e-06
1.20179e-06
1.1119e-06
-3.40996e-07
-4.50138e-07
-3.49857e-06
3.51546e-06
-1.00216e-05
8.43662e-06
-1.95301e-05
1.28116e-05
-3.13843e-05
1.62038e-05
-4.4887e-05
1.85554e-05
-5.93797e-05
1.99599e-05
-7.42668e-05
2.05342e-05
-8.89977e-05
2.03562e-05
-0.000103037
1.94501e-05
-0.000115838
1.77981e-05
-0.00012684
1.53654e-05
-0.000135472
1.21302e-05
-0.000141186
8.1125e-06
-0.000143504
3.39889e-06
-0.00014208
-1.83472e-06
-0.000136742
-7.33983e-06
-0.000127565
-1.27638e-05
-0.000114903
-1.77062e-05
-9.93968e-05
-2.17422e-05
-8.19603e-05
-2.44738e-05
-6.37177e-05
-2.55868e-05
-4.59113e-05
-2.49055e-05
-2.97761e-05
-2.24366e-05
-1.63972e-05
-1.83951e-05
-6.56419e-06
-1.32119e-05
-6.31484e-07
-7.53074e-06
1.6617e-06
-2.22618e-06
1.25706e-06
1.60643e-06
2.36896e-06
-2.07057e-06
1.62042e-06
-9.01392e-06
1.04588e-05
-2.06729e-05
2.00957e-05
-3.63856e-05
2.85243e-05
-5.52601e-05
3.50783e-05
-7.63504e-05
3.96457e-05
-9.87427e-05
4.23522e-05
-0.000121577
4.33687e-05
-0.000144033
4.28116e-05
-0.000165299
4.0716e-05
-0.000184556
3.70551e-05
-0.000200973
3.17833e-05
-0.000213733
2.48894e-05
-0.000222069
1.64484e-05
-0.000225335
6.66535e-06
-0.000223071
-4.09827e-06
-0.000215084
-1.53275e-05
-0.000201508
-2.63399e-05
-0.000182853
-3.63606e-05
-0.000160019
-4.4576e-05
-0.000134267
-5.02261e-05
-0.000107146
-5.27083e-05
-8.03712e-05
-5.168e-05
-5.56638e-05
-4.7144e-05
-3.45566e-05
-3.95023e-05
-1.81959e-05
-2.95726e-05
-7.15102e-06
-1.85756e-05
-1.27047e-06
-8.10672e-06
4.7621e-07
-1.40239e-07
2.84517e-06
-3.92143e-06
5.54185e-06
-1.4886e-05
2.14234e-05
-3.18954e-05
3.71051e-05
-5.38082e-05
5.04371e-05
-7.94289e-05
6.0699e-05
-0.000107586
6.78028e-05
-0.000137168
7.1934e-05
-0.00016712
7.33211e-05
-0.000196421
7.2113e-05
-0.000224056
6.83502e-05
-0.000248995
6.19948e-05
-0.000270208
5.29962e-05
-0.000286687
4.1368e-05
-0.000297502
2.72633e-05
-0.000301873
1.10362e-05
-0.000299247
-6.72385e-06
-0.000289386
-2.51887e-05
-0.000272436
-4.32898e-05
-0.000248983
-5.98134e-05
-0.000220074
-7.34848e-05
-0.000187197
-8.31039e-05
-0.000152203
-8.77022e-05
-0.00011718
-8.67025e-05
-8.42644e-05
-8.00597e-05
-5.54116e-05
-6.83551e-05
-3.21557e-05
-5.28285e-05
-1.53823e-05
-3.5349e-05
-5.15215e-06
-1.83369e-05
-6.25668e-07
-4.66672e-06
2.21951e-06
-5.71141e-06
1.12533e-05
-2.0672e-05
3.63839e-05
-4.29955e-05
5.94286e-05
-7.09822e-05
7.84239e-05
-0.00010309
9.28071e-05
-0.000137923
0.000102636
-0.000174203
0.000108213
-0.000210729
0.000109848
-0.000246339
0.000107723
-0.000279869
0.00010188
-0.000310143
9.22681e-05
-0.000335976
7.88292e-05
-0.000356214
6.16061e-05
-0.000369787
4.08369e-05
-0.000375786
1.70349e-05
-0.000373544
-8.96586e-06
-0.000362724
-3.60088e-05
-0.000343408
-6.2606e-05
-0.000316161
-8.70605e-05
-0.000282073
-0.000107572
-0.00024276
-0.000122417
-0.000200302
-0.00013016
-0.000157119
-0.000129885
-0.000115768
-0.000121411
-7.8681e-05
-0.000105442
-4.78759e-05
-8.36336e-05
-2.46766e-05
-5.85483e-05
-9.50646e-06
-3.35071e-05
-1.79409e-06
-1.23791e-05
4.25416e-07
-7.38274e-06
1.8636e-05
-2.61605e-05
5.51617e-05
-5.3589e-05
8.6857e-05
-8.73978e-05
0.000112233
-0.000125686
0.000131096
-0.000166838
0.000143787
-0.00020943
0.000150806
-0.000252158
0.000152576
-0.000293763
0.000149328
-0.000332986
0.000141103
-0.000368547
0.000127829
-0.000399153
0.000109435
-0.000423528
8.59813e-05
-0.00044047
5.77785e-05
-0.00044892
2.54852e-05
-0.000448055
-9.83144e-06
-0.000437365
-4.6698e-05
-0.000416775
-8.31964e-05
-0.000386718
-0.000117117
-0.00034822
-0.000146071
-0.000302927
-0.00016771
-0.000253088
-0.000179999
-0.000201445
-0.000181529
-0.000151022
-0.000171833
-0.000104835
-0.000151629
-6.55275e-05
-0.000122941
-3.50238e-05
-8.9052e-05
-1.42498e-05
-5.4281e-05
-3.00627e-06
-2.36226e-05
-2.58086e-06
-8.91334e-06
2.75494e-05
-3.12324e-05
7.74808e-05
-6.34272e-05
0.000119052
-0.000102688
0.000151493
-0.000146771
0.000175179
-0.000193855
0.000190871
-0.000242401
0.000199352
-0.00029103
0.000201205
-0.000338431
0.000196729
-0.000383293
0.000185965
-0.000424276
0.000168812
-0.000460009
0.000145168
-0.000489115
0.000115087
-0.000510257
7.892e-05
-0.000522202
3.74308e-05
-0.000523919
-8.11446e-06
-0.000514643
-5.5974e-05
-0.000494036
-0.000103804
-0.000462282
-0.000148871
-0.000420213
-0.00018814
-0.000369402
-0.000218521
-0.00031219
-0.00023721
-0.000251624
-0.000242095
-0.000191255
-0.000232202
-0.000134811
-0.000208074
-8.57502e-05
-0.000172001
-4.67991e-05
-0.000128003
-1.95614e-05
-8.15187e-05
-4.31503e-06
-3.8869e-05
-6.8959e-06
-1.02833e-05
3.78327e-05
-3.57919e-05
0.000102989
-7.23044e-05
0.000155564
-0.000116531
0.00019572
-0.000165921
0.00022457
-0.000218479
0.000243428
-0.000272574
0.000253447
-0.00032679
0.000255421
-0.000379797
0.000249736
-0.000430275
0.000236443
-0.000476862
0.000215399
-0.000518141
0.000186447
-0.000552651
0.000149598
-0.000578922
0.000105191
-0.000595525
5.40338e-05
-0.00060118
-2.45991e-06
-0.000594778
-6.23761e-05
-0.000575626
-0.000122956
-0.000543527
-0.00018097
-0.00049898
-0.000232687
-0.000443342
-0.00027416
-0.000378934
-0.000301617
-0.000309054
-0.000311976
-0.000237812
-0.000303444
-0.000169779
-0.000276107
-0.000109447
-0.000232334
-6.06006e-05
-0.000176849
-2.57559e-05
-0.000116363
-5.8195e-06
-5.88054e-05
-1.27154e-05
-1.1465e-05
4.92977e-05
-3.97362e-05
0.000131261
-8.00121e-05
0.00019584
-0.000128599
0.000244307
-0.000182691
0.000278662
-0.000240149
0.000300887
-0.000299286
0.000312584
-0.000358675
0.00031481
-0.000417008
0.000308069
-0.00047299
0.000292425
-0.000525274
0.000267684
-0.000572432
0.000233606
-0.000612947
0.000190112
-0.000645226
0.000137471
-0.000667649
7.64569e-05
-0.000678607
8.49777e-06
-0.000676678
-6.43054e-05
-0.000660671
-0.000138963
-0.000629894
-0.000211748
-0.000584354
-0.000278226
-0.000525015
-0.000333499
-0.000454007
-0.000372625
-0.000374752
-0.00039123
-0.000291887
-0.000386309
-0.000210924
-0.00035707
-0.000137618
-0.00030564
-7.71327e-05
-0.000237335
-3.32146e-05
-0.000160281
-7.63946e-06
-8.43805e-05
-2.03549e-05
-1.24236e-05
6.17213e-05
-4.29511e-05
0.000161788
-8.63284e-05
0.000239217
-0.000138545
0.000296523
-0.000196595
0.000336711
-0.000258235
0.000362527
-0.000321746
0.000376095
-0.000385725
0.000378788
-0.000448912
0.000371256
-0.000510075
0.000353588
-0.000567922
0.000325531
-0.000621052
0.000286735
-0.000667926
0.000236986
-0.000706865
0.00017641
-0.000736068
0.00010566
-0.00075365
2.608e-05
-0.00075778
-6.01755e-05
-0.000746762
-0.00014998
-0.000719293
-0.000239217
-0.00067473
-0.000322789
-0.000613427
-0.000394803
-0.000537081
-0.00044897
-0.000449011
-0.0004793
-0.000354239
-0.000481082
-0.000259233
-0.000452076
-0.000171223
-0.000393649
-9.71245e-05
-0.000311434
-4.23478e-05
-0.000215058
-9.90433e-06
-0.000116824
-3.02592e-05
-1.31211e-05
7.48424e-05
-4.53193e-05
0.000193986
-9.10296e-05
0.000284928
-0.000146017
0.000351511
-0.000207131
0.000397826
-0.000272059
0.000427455
-0.000339076
0.000443113
-0.000406822
0.000446534
-0.000474116
0.000438551
-0.00053982
0.000419292
-0.000602736
0.000388447
-0.000661535
0.000345534
-0.000714711
0.000290162
-0.000760552
0.000222251
-0.000797135
0.000142243
-0.000822348
5.12932e-05
-0.000833977
-4.85467e-05
-0.000829817
-0.000154141
-0.000807892
-0.000261142
-0.000766768
-0.000363913
-0.00070596
-0.000455611
-0.000626421
-0.00052851
-0.00053102
-0.000574701
-0.000424869
-0.000587233
-0.000315264
-0.000561681
-0.000211038
-0.000497875
-0.00012126
-0.000401212
-5.35692e-05
-0.000282749
-1.27489e-05
-0.000157644
-4.30081e-05
-1.35234e-05
8.83658e-05
-4.67361e-05
0.000227199
-9.39145e-05
0.000332106
-0.000150692
0.000408288
-0.000213824
0.000460958
-0.000280957
0.000494587
-0.000350377
0.000512533
-0.000420783
0.00051694
-0.000491095
0.000508862
-0.000560296
0.000488493
-0.000627321
0.000455472
-0.000690966
0.00040918
-0.000749823
0.000349018
-0.000802225
0.000274653
-0.000846221
0.000186239
-0.000879567
8.46393e-05
-0.000899755
-2.83586e-05
-0.000904141
-0.000149755
-0.000890077
-0.000275206
-0.000855245
-0.000398745
-0.000798114
-0.000512743
-0.00071854
-0.000608084
-0.000618487
-0.000674753
-0.000502674
-0.000703045
-0.000378875
-0.00068548
-0.000257486
-0.000619264
-0.000150101
-0.000508597
-6.72729e-05
-0.000365577
-1.63117e-05
-0.000208605
-5.93198e-05
-1.36066e-05
0.000101972
-4.71295e-05
0.000260722
-9.48395e-05
0.000379816
-0.000152323
0.000465772
-0.000216287
0.000524922
-0.000284354
0.000562655
-0.000354832
0.00058301
-0.000426487
0.000588596
-0.00049835
0.000580725
-0.000569553
0.000559695
-0.000639199
0.000525118
-0.000706263
0.000476244
-0.00076951
0.000412264
-0.000827418
0.000332561
-0.00087813
0.000236951
-0.000919415
0.000125925
-0.000948601
8.26934e-07
-0.000962782
-0.000135573
-0.000958701
-0.000279288
-0.000933168
-0.000424277
-0.000883459
-0.000562452
-0.000808004
-0.000683538
-0.000707329
-0.000775429
-0.000585092
-0.000825282
-0.000448916
-0.000821656
-0.000310437
-0.000757743
-0.000183987
-0.000635047
-8.38033e-05
-0.000465761
-2.07321e-05
-0.000271677
-8.0052e-05
-1.3366e-05
0.000115338
-4.64835e-05
0.000293839
-9.37583e-05
0.000427091
-0.000150801
0.000522815
-0.000214301
0.000588422
-0.000281869
0.000630222
-0.000351834
0.000652975
-0.000423032
0.000659794
-0.000494613
0.000652307
-0.000565875
0.000630956
-0.000636123
0.000595366
-0.000704566
0.000544687
-0.000770215
0.000477913
-0.000831803
0.00039415
-0.000887706
0.000292854
-0.000935858
0.000174077
-0.00097374
3.87095e-05
-0.000998202
-0.000111112
-0.00100569
-0.000271798
-0.000992248
-0.000437721
-0.000953931
-0.000600769
-0.000887508
-0.00074996
-0.000791543
-0.000871394
-0.000667836
-0.000948989
-0.000522928
-0.000966564
-0.000368965
-0.000911706
-0.000222909
-0.000781103
-0.000103414
-0.000585255
-2.61462e-05
-0.000348945
-0.000106198
-1.28236e-05
0.000128162
-4.48624e-05
0.000325878
-9.07654e-05
0.000472994
-0.000146214
0.000578264
-0.000207897
0.000650104
-0.000273413
0.000695738
-0.000341112
0.000720674
-0.0004099
0.000728583
-0.000479053
0.000721459
-0.000548045
0.000699949
-0.000616418
0.000663739
-0.000683658
0.000611927
-0.000749099
0.000543355
-0.00081183
0.000456881
-0.000870599
0.000351622
-0.000923708
0.000227185
-0.000968907
8.39087e-05
-0.00100323
-7.67876e-05
-0.00102301
-0.000252016
-0.00102379
-0.000436948
-0.00100055
-0.000624005
-0.000948349
-0.00080216
-0.000863395
-0.000956349
-0.000744818
-0.00106757
-0.000596906
-0.00111448
-0.000431099
-0.00107751
-0.000266349
-0.000945853
-0.000126212
-0.000725393
-3.26784e-05
-0.000442478
-0.000138877
-1.20363e-05
0.000140198
-4.24354e-05
0.000356277
-8.614e-05
0.000516698
-0.00013891
0.000631034
-0.00019743
0.000708624
-0.000259288
0.000757596
-0.000322856
0.000784241
-0.000387113
0.00079284
-0.000451468
0.000785814
-0.000515594
0.000764075
-0.000579289
0.000727434
-0.000642361
0.000674999
-0.000704525
0.000605519
-0.000765311
0.000517667
-0.000823958
0.000410269
-0.000879289
0.000282516
-0.000929564
0.000134184
-0.000972227
-3.4124e-05
-0.00100388
-0.000220366
-0.00101989
-0.000420939
-0.00101454
-0.000629355
-0.000981343
-0.000835355
-0.000914028
-0.00102366
-0.000808406
-0.00117319
-0.000665249
-0.00125763
-0.00049363
-0.00124913
-0.000313117
-0.00112637
-0.000152086
-0.000886424
-4.0432e-05
-0.000554132
-0.000179309
-1.11044e-05
0.000151303
-3.95027e-05
0.000384675
-8.03892e-05
0.000557585
-0.000129554
0.000680199
-0.000183655
0.000762725
-0.000240269
0.00081421
-0.000297803
0.000841775
-0.00035533
0.000850368
-0.000412417
0.000842901
-0.000468957
0.000820614
-0.000525031
0.000783508
-0.0005808
0.000730768
-0.000636404
0.000661123
-0.000691867
0.00057313
-0.000747
0.000465401
-0.00080126
0.000336777
-0.00085359
0.000186513
-0.00090209
1.43767e-05
-0.000943933
-0.000178523
-0.000974775
-0.000390097
-0.000988678
-0.000615452
-0.000978089
-0.000845944
-0.000934481
-0.00106727
-0.000850063
-0.00125761
-0.000720997
-0.0013867
-0.000552045
-0.00141808
-0.000361207
-0.0013172
-0.000180645
-0.00106699
-4.94813e-05
-0.000685296
-0.00022879
-1.0182e-05
0.000161485
-3.65254e-05
0.000411019
-7.42939e-05
0.000595353
-0.000119181
0.000725087
-0.000167772
0.000811316
-0.000217644
0.000864082
-0.00026728
0.000891411
-0.000315897
0.000898985
-0.000363262
0.000890266
-0.000409526
0.000866878
-0.000455086
0.000829069
-0.000500481
0.000776162
-0.000546293
0.000706935
-0.000593069
0.000619906
-0.000641217
0.000513549
-0.000690882
0.000386442
-0.000741751
0.000237382
-0.00079288
6.55063e-05
-0.000842073
-0.00012933
-0.000885822
-0.000346348
-0.000918537
-0.000582736
-0.000932293
-0.000832188
-0.000916948
-0.00108262
-0.000861343
-0.00131321
-0.000756396
-0.00149165
-0.000600672
-0.00157381
-0.000407717
-0.00151016
-0.000211157
-0.00126355
-5.98754e-05
-0.000836577
-0.000288665
-9.49589e-06
0.000170981
-3.41701e-05
0.000435693
-6.89656e-05
0.000630149
-0.000109247
0.000765368
-0.000151462
0.000853531
-0.000193228
0.000905849
-0.000233189
0.000931372
-0.000270795
0.000936591
-0.000306093
0.000925563
-0.000339548
0.000900333
-0.000371913
0.000861433
-0.00040412
0.00080837
-0.000437203
0.000740018
-0.000472216
0.000654918
-0.000510148
0.000551481
-0.000551812
0.000428106
-0.000597676
0.000283246
-0.000647639
0.00011547
-0.000700574
-7.63956e-05
-0.000753973
-0.000292949
-0.00080319
-0.000533519
-0.000840762
-0.000794616
-0.000855922
-0.00106746
-0.000834986
-0.00133415
-0.000763708
-0.00156292
-0.00063305
-0.00170447
-0.000448886
-0.00169432
-0.000242528
-0.00146991
-7.16645e-05
-0.00100744
-0.00036033
-9.38101e-06
0.000180362
-3.33831e-05
0.000459695
-6.59266e-05
0.000662692
-0.000101683
0.000801124
-0.000136897
0.000888745
-0.000169322
0.000938274
-0.000197913
0.000959963
-0.000222502
0.00096118
-0.000243534
0.000946595
-0.000261871
0.00091867
-0.000278663
0.000878226
-0.000295253
0.00082496
-0.000313104
0.000757869
-0.000333739
0.000675553
-0.000358667
0.00057641
-0.000389295
0.000458734
-0.000426787
0.000320738
-0.000471863
0.000160546
-0.000524459
-2.37996e-05
-0.000583284
-0.000234124
-0.000645076
-0.000471727
-0.000703652
-0.000736041
-0.000748824
-0.00102229
-0.000765758
-0.00131721
-0.000736006
-0.00159268
-0.00064242
-0.00179805
-0.000480204
-0.00185654
-0.000273291
-0.00167682
-8.49606e-05
-0.00119577
-0.00044529
-1.03531e-05
0.000190715
-3.55201e-05
0.000484862
-6.72298e-05
0.000694402
-9.89531e-05
0.000832847
-0.000126712
0.000916504
-0.000148595
0.000960157
-0.00016412
0.000975488
-0.000173721
0.000970781
-0.000178399
0.000951274
-0.000179515
0.000919786
-0.000178661
0.000877372
-0.000177589
0.000823889
-0.000178162
0.000758441
-0.000182301
0.000679693
-0.000191944
0.000586053
-0.000208978
0.000475767
-0.000235133
0.000346893
-0.000271836
0.000197248
-0.00031999
2.43539e-05
-0.000379541
-0.000174572
-0.000448883
-0.000402386
-0.000523759
-0.000661164
-0.000595771
-0.000950273
-0.000650677
-0.00126231
-0.000667642
-0.00157571
-0.000622119
-0.00184357
-0.000496522
-0.00198214
-0.000301569
-0.00187177
-0.000100029
-0.00139731
-0.00054532
-1.32517e-05
0.000203966
-4.25659e-05
0.000514176
-7.56161e-05
0.000727452
-0.00010407
0.000861301
-0.000123862
0.000936296
-0.000133803
0.000970097
-0.000134359
0.000976044
-0.000126864
0.000963286
-0.000113074
0.000937483
-9.49481e-05
0.00090166
-7.45629e-05
0.000856986
-5.40631e-05
0.000803389
-3.56529e-05
0.000740031
-2.15752e-05
0.000665615
-1.40798e-05
0.000578558
-1.53783e-05
0.000477066
-2.76161e-05
0.000359131
-5.27965e-05
0.000222429
-9.26155e-05
6.41729e-05
-0.000148194
-0.000118994
-0.000219595
-0.000330984
-0.000304881
-0.000575878
-0.000398425
-0.00085673
-0.000488407
-0.00117232
-0.00055409
-0.00151003
-0.000565602
-0.00183206
-0.000491955
-0.00205578
-0.000324885
-0.00203884
-0.000117365
-0.00160483
-0.000662684
-1.95093e-05
0.000223476
-5.74607e-05
0.000552128
-9.46392e-05
0.000764631
-0.000120414
0.000887076
-0.000131145
0.000947027
-0.000127057
0.000966009
-0.000110128
0.000959115
-8.29629e-05
0.000936121
-4.82815e-05
0.000902802
-8.73767e-06
0.000862116
3.31198e-05
0.000815129
7.47924e-05
0.000761716
0.000113817
0.000701006
0.000147742
0.00063169
0.000174115
0.000552185
0.00019048
0.000460701
0.000194404
0.000355207
0.000183495
0.000233337
0.000155443
9.22251e-05
0.000108131
-7.16821e-05
3.99523e-05
-0.000262805
-4.95215e-05
-0.000486404
-0.000158058
-0.000748194
-0.000277853
-0.00105253
-0.000391033
-0.00139685
-0.000465858
-0.00175724
-0.000459339
-0.0020623
-0.000339609
-0.00215857
-0.0001376
-0.00180684
-0.000800284
-3.16253e-05
0.000255101
-8.44592e-05
0.000604962
-0.000128444
0.000808616
-0.000150837
0.000909469
-0.000149727
0.000945917
-0.000127906
0.000944188
-8.96213e-05
0.00092083
-3.91647e-05
0.000885664
1.96028e-05
0.000844034
8.3306e-05
0.000798413
0.000148939
0.000749497
0.00021375
0.000696905
0.000275129
0.000639627
0.000330527
0.000576292
0.000377408
0.000505304
0.000413217
0.000424892
0.000435349
0.000333076
0.000441119
0.000227567
0.000427729
0.000105615
0.000392249
-3.62027e-05
0.000331778
-0.000202334
0.000243692
-0.000398317
0.000126819
-0.000631321
-1.5949e-05
-0.000909761
-0.000172718
-0.00124008
-0.000314083
-0.00161587
-0.000388944
-0.00198744
-0.000339654
-0.00220786
-0.000160891
-0.0019856
-0.000961175
-5.39019e-05
0.000309003
-0.000129091
0.000680151
-0.000180163
0.000859688
-0.000194594
0.0009239
-0.000174959
0.000926281
-0.000128387
0.000897616
-6.22995e-05
0.000854742
1.69651e-05
0.0008064
0.000104347
0.000756653
0.000195818
0.000706941
0.000288082
0.000657233
0.000378288
0.000606698
0.000463837
0.000554079
0.000542233
0.000497896
0.000610991
0.000436546
0.00066756
0.000368322
0.000709266
0.00029137
0.00073323
0.000203603
0.000736284
0.000102561
0.000714826
-1.47448e-05
0.000664989
-0.000152497
0.000582339
-0.000315668
0.000462634
-0.000511616
0.000303557
-0.000750683
0.000109803
-0.00104632
-9.71819e-05
-0.00140889
-0.000265998
-0.00181862
-0.000313759
-0.0021601
-0.000185091
-0.00211427
-0.00114627
-9.31653e-05
0.000402168
-0.000195958
0.000782944
-0.000245745
0.000909475
-0.000238181
0.000916337
-0.000185422
0.000873522
-0.000101227
0.000813421
3.07402e-06
0.000750441
0.000119113
0.000690361
0.000240919
0.000634846
0.00036421
0.00058365
0.000485759
0.000535685
0.000602944
0.000489513
0.000713447
0.000443576
0.000815045
0.000396297
0.000905482
0.00034611
0.000982362
0.000291442
0.00104306
0.000230667
0.00108465
0.000162022
0.00110371
8.34958e-05
0.00109612
-7.15294e-06
0.00105744
-0.000113818
0.000981874
-0.000240101
0.000862893
-0.000392635
0.000693769
-0.000581559
0.000470817
-0.000823372
0.000203485
-0.00114156
-6.47924e-05
-0.00155035
-0.000240394
-0.0019845
-0.000202592
-0.00215207
-0.00134886
-0.000157558
0.000559727
-0.000277135
0.000902521
-0.000293664
0.000926003
-0.000230711
0.000853384
-0.000117411
0.000760223
2.44468e-05
0.000671563
0.000180414
0.000594474
0.000341406
0.000529369
0.000501845
0.000474408
0.000658238
0.000427257
0.00080824
0.000385683
0.00095006
0.000347692
0.00108211
0.000311526
0.00120278
0.000275628
0.0013103
0.00023859
0.00140264
0.0001991
0.00147743
0.000155877
0.00153185
0.000107599
0.0015625
5.28484e-05
0.00156513
-9.77919e-06
0.00153487
-8.35545e-05
0.00146527
-0.00017051
0.00134845
-0.000275808
0.00117457
-0.000407684
0.000932716
-0.000581517
0.00061705
-0.000825889
0.000249153
-0.00118245
-7.82937e-05
-0.00165705
-0.000193853
-0.00203651
-0.00154271
-0.000243641
0.000803368
-0.000303131
0.000962011
-0.000204725
0.000827598
-2.62426e-05
0.000674901
0.000183612
0.000550368
0.000401039
0.000454136
0.000614373
0.000381141
0.000818141
0.000325601
0.00101008
0.000282467
0.00118943
0.000247913
0.00135596
0.000219153
0.00150953
0.000194121
0.00164981
0.000171239
0.00177619
0.000149253
0.00188765
0.000127132
0.00198276
0.000103989
0.00205962
7.90138e-05
0.00211579
5.14333e-05
0.00214815
2.04833e-05
0.00215322
-1.48495e-05
0.00212563
-5.59639e-05
0.00205936
-0.000104243
0.00194621
-0.000162651
0.00177493
-0.000236405
0.00152975
-0.000336335
0.00119036
-0.000486506
0.000745825
-0.000737913
0.000253311
-0.00116454
-8.12487e-05
-0.00170195
-0.00162396
-0.000193982
0.000997349
1.89327e-05
0.000749096
0.000373718
0.000472812
0.00071449
0.000334129
0.0010198
0.000245056
0.00128946
0.000184479
0.00152691
0.000143685
0.00173663
0.000115884
0.0019229
9.62014e-05
0.00208923
8.15793e-05
0.00223825
7.01318e-05
0.00237174
6.06359e-05
0.00249072
5.22563e-05
0.00259558
4.43959e-05
0.0026861
3.66071e-05
0.00276156
2.85351e-05
0.00282069
1.988e-05
0.00286171
1.0411e-05
0.00288191
2.88032e-07
0.00287952
-1.24588e-05
0.00284946
-2.59041e-05
0.00278717
-4.19533e-05
0.00268577
-6.12536e-05
0.00253504
-8.56738e-05
0.00231825
-0.000119543
0.00200607
-0.000174332
0.00155142
-0.000283264
0.000927232
-0.000540349
0.000263751
-0.00103847
-0.00136021
0.000997349
0.00174645
0.00221926
0.00255339
0.00279844
0.00298292
0.00312661
0.00324249
0.00333869
0.00342027
0.0034904
0.00355104
0.0036033
0.00364769
0.0036843
0.00371283
0.00373271
0.00374312
0.00374341
0.00373095
0.00370505
0.0036631
0.00360184
0.00351617
0.00339663
0.00322229
0.00293903
0.00239868
0.00136021
)
;

boundaryField
{
    movingWall
    {
        type            calculated;
        value           uniform 0;
    }
    fixedWalls
    {
        type            calculated;
        value           uniform 0;
    }
    frontAndBack
    {
        type            empty;
        value           nonuniform 0();
    }
}


// ************************************************************************* //
