/*--------------------------------*- C++ -*----------------------------------*\
  =========                 |
  \\      /  F ield         | OpenFOAM: The Open Source CFD Toolbox
   \\    /   O peration     | Website:  https://openfoam.org
    \\  /    A nd           | Version:  7
     \\/     M anipulation  |
\*---------------------------------------------------------------------------*/
FoamFile
{
    version     2.0;
    format      ascii;
    class       volVectorField;
    location    "7";
    object      U;
}
// * * * * * * * * * * * * * * * * * * * * * * * * * * * * * * * * * * * * * //

dimensions      [0 1 -1 0 0 0 0];

internalField   nonuniform List<vector> 
900
(
(0.00015492 -0.000153806 0)
(0.000267937 -6.18663e-05 0)
(-5.60949e-05 0.000100435 0)
(-0.000820429 0.00024273 0)
(-0.00193388 0.000345121 0)
(-0.00329589 0.000410517 0)
(-0.00481538 0.000447978 0)
(-0.00641776 0.000465385 0)
(-0.00804162 0.000467218 0)
(-0.00963167 0.000454652 0)
(-0.0111324 0.000426457 0)
(-0.012484 0.000380138 0)
(-0.0136219 0.000313108 0)
(-0.0144781 0.000223817 0)
(-0.0149865 0.00011277 0)
(-0.0150896 -1.67485e-05 0)
(-0.014747 -0.000158635 0)
(-0.0139436 -0.000302967 0)
(-0.0126978 -0.000437448 0)
(-0.0110659 -0.000548435 0)
(-0.00914253 -0.000622663 0)
(-0.00705633 -0.000649306 0)
(-0.00495967 -0.000621941 0)
(-0.00301381 -0.000539998 0)
(-0.0013704 -0.000409506 0)
(-0.000151964 -0.00024381 0)
(0.000560521 -6.37907e-05 0)
(0.000754459 0.000106201 0)
(0.000528415 0.000210819 0)
(0.000165429 0.000164293 0)
(6.98291e-05 -0.000274757 0)
(-0.000311296 0.000309185 0)
(-0.00171178 0.00111628 0)
(-0.00404128 0.00183899 0)
(-0.00713813 0.00239237 0)
(-0.0108067 0.00277066 0)
(-0.0148493 0.00299629 0)
(-0.0190862 0.00309391 0)
(-0.0233553 0.00307921 0)
(-0.027503 0.00295688 0)
(-0.0313759 0.00272318 0)
(-0.0348154 0.00237039 0)
(-0.0376583 0.00189214 0)
(-0.0397422 0.00128854 0)
(-0.0409173 0.000570547 0)
(-0.0410619 -0.000236951 0)
(-0.040098 -0.00109336 0)
(-0.0380091 -0.00194367 0)
(-0.034855 -0.00272211 0)
(-0.0307782 -0.0033583 0)
(-0.0260034 -0.00378581 0)
(-0.0208267 -0.00395186 0)
(-0.0155934 -0.0038267 0)
(-0.0106658 -0.00341087 0)
(-0.00638512 -0.0027393 0)
(-0.00302781 -0.00188311 0)
(-0.000765129 -0.000950062 0)
(0.00036913 -8.18805e-05 0)
(0.000548105 0.000514014 0)
(0.000218436 0.000525664 0)
(-0.000107324 5.36437e-05 0)
(-0.00121616 0.00173045 0)
(-0.00391994 0.00370229 0)
(-0.00789893 0.00545566 0)
(-0.0129046 0.00682355 0)
(-0.018679 0.00777811 0)
(-0.0249537 0.00834936 0)
(-0.0314742 0.0085782 0)
(-0.0380019 0.00849256 0)
(-0.0443055 0.0081012 0)
(-0.0501527 0.00739777 0)
(-0.0553071 0.00637038 0)
(-0.0595306 0.00501309 0)
(-0.0625931 0.00333741 0)
(-0.0642884 0.0013817 0)
(-0.0644535 -0.000782372 0)
(-0.0629901 -0.00304714 0)
(-0.0598862 -0.00527357 0)
(-0.0552325 -0.00729946 0)
(-0.0492307 -0.00895435 0)
(-0.0421929 -0.0100792 0)
(-0.0345267 -0.0105485 0)
(-0.0267082 -0.0102923 0)
(-0.0192401 -0.00931333 0)
(-0.0126003 -0.00769806 0)
(-0.00718496 -0.00561974 0)
(-0.00325198 -0.0033372 0)
(-0.000871827 -0.0011932 0)
(0.000121705 0.000383124 0)
(0.000154529 0.000803062 0)
(-0.000293587 0.000911704 0)
(-0.00218448 0.0042863 0)
(-0.00627325 0.0078051 0)
(-0.0119386 0.010855 0)
(-0.018813 0.0132233 0)
(-0.026576 0.0148736 0)
(-0.0349022 0.0158469 0)
(-0.0434815 0.016199 0)
(-0.0520192 0.0159677 0)
(-0.0602258 0.0151643 0)
(-0.0678097 0.0137794 0)
(-0.0744753 0.0117993 0)
(-0.0799279 0.00922355 0)
(-0.0838867 0.00608345 0)
(-0.0861019 0.0024569 0)
(-0.0863777 -0.00152223 0)
(-0.0845958 -0.0056623 0)
(-0.0807389 -0.00971925 0)
(-0.0749094 -0.0134122 0)
(-0.0673407 -0.0164475 0)
(-0.0583979 -0.0185509 0)
(-0.0485649 -0.0195036 0)
(-0.0384151 -0.0191801 0)
(-0.0285654 -0.0175784 0)
(-0.0196166 -0.0148409 0)
(-0.0120842 -0.0112602 0)
(-0.00632873 -0.00727383 0)
(-0.00249159 -0.00345041 0)
(-0.000466522 -0.000475244 0)
(6.08119e-05 0.000798348 0)
(-0.000468327 0.00229339 0)
(-0.00312991 0.00799704 0)
(-0.00860171 0.0134337 0)
(-0.0159346 0.0179979 0)
(-0.0246237 0.0214911 0)
(-0.0342811 0.0238991 0)
(-0.0445295 0.0252867 0)
(-0.0550157 0.0257283 0)
(-0.0654048 0.0252708 0)
(-0.0753661 0.023926 0)
(-0.0845654 0.0216814 0)
(-0.0926639 0.0185219 0)
(-0.099324 0.0144556 0)
(-0.104223 0.00953856 0)
(-0.107074 0.00389417 0)
(-0.107644 -0.00227422 0)
(-0.105785 -0.00868139 0)
(-0.101456 -0.0149669 0)
(-0.0947451 -0.020717 0)
(-0.0858883 -0.025497 0)
(-0.0752737 -0.0288955 0)
(-0.0634353 -0.0305773 0)
(-0.0510266 -0.0303377 0)
(-0.0387739 -0.0281519 0)
(-0.0274091 -0.0242091 0)
(-0.017589 -0.0189243 0)
(-0.00980863 -0.0129278 0)
(-0.00431879 -0.00703397 0)
(-0.00111129 -0.00219941 0)
(-3.12814e-05 0.000459983 0)
(-0.000627433 0.00417135 0)
(-0.00401871 0.0128321 0)
(-0.0108187 0.0205603 0)
(-0.0197541 0.0268477 0)
(-0.0301784 0.0315718 0)
(-0.041634 0.0347793 0)
(-0.0536963 0.0365793 0)
(-0.0659782 0.0370728 0)
(-0.078117 0.0363181 0)
(-0.0897555 0.0343271 0)
(-0.100531 0.0310823 0)
(-0.110076 0.0265665 0)
(-0.118018 0.0207954 0)
(-0.123999 0.013849 0)
(-0.127691 0.00589597 0)
(-0.128819 -0.00279075 0)
(-0.127187 -0.0118307 0)
(-0.122704 -0.0207417 0)
(-0.115417 -0.0289665 0)
(-0.105529 -0.0359113 0)
(-0.0934236 -0.0410021 0)
(-0.0796597 -0.0437536 0)
(-0.0649604 -0.0438467 0)
(-0.050166 -0.0412005 0)
(-0.036162 -0.0360278 0)
(-0.0237836 -0.0288588 0)
(-0.0137057 -0.0205265 0)
(-0.00633356 -0.0121144 0)
(-0.00179358 -0.00487732 0)
(-0.000116606 -0.000218091 0)
(-0.000770985 0.00650839 0)
(-0.00483515 0.0187242 0)
(-0.0128721 0.0291054 0)
(-0.0233068 0.0373166 0)
(-0.0353572 0.0433703 0)
(-0.0484995 0.0474145 0)
(-0.0622671 0.0496263 0)
(-0.0762475 0.0501457 0)
(-0.0900615 0.0490468 0)
(-0.103338 0.0463418 0)
(-0.115699 0.0420061 0)
(-0.126757 0.0360166 0)
(-0.136116 0.0283918 0)
(-0.143384 0.0192292 0)
(-0.148188 0.00873499 0)
(-0.150201 -0.00275588 0)
(-0.149157 -0.0147734 0)
(-0.144891 -0.0267151 0)
(-0.137374 -0.0378733 0)
(-0.126743 -0.0474774 0)
(-0.113339 -0.0547593 0)
(-0.0977199 -0.0590405 0)
(-0.080664 -0.0598352 0)
(-0.0631307 -0.0569549 0)
(-0.0461865 -0.0505952 0)
(-0.0308922 -0.041381 0)
(-0.0181613 -0.0303553 0)
(-0.00860968 -0.0189016 0)
(-0.00254131 -0.00861946 0)
(-0.000200544 -0.00125159 0)
(-0.000898538 0.00926146 0)
(-0.00556635 0.0255826 0)
(-0.0147203 0.038955 0)
(-0.0265167 0.0492811 0)
(-0.0400523 0.0567617 0)
(-0.0547442 0.0616848 0)
(-0.0700916 0.0643207 0)
(-0.0856651 0.0648625 0)
(-0.10108 0.0634063 0)
(-0.115961 0.0599651 0)
(-0.129928 0.0545048 0)
(-0.142583 0.0469904 0)
(-0.153514 0.037434 0)
(-0.162298 0.0259384 0)
(-0.168517 0.0127325 0)
(-0.171777 -0.0018024 0)
(-0.17173 -0.0171162 0)
(-0.168108 -0.0324992 0)
(-0.160774 -0.0470915 0)
(-0.149759 -0.0599293 0)
(-0.13532 -0.0700159 0)
(-0.117976 -0.0764265 0)
(-0.0985339 -0.0784397 0)
(-0.0780683 -0.0756845 0)
(-0.0578493 -0.0682738 0)
(-0.0392155 -0.0568889 0)
(-0.0233905 -0.0427821 0)
(-0.0112738 -0.0276772 0)
(-0.00340646 -0.0135873 0)
(-0.000293178 -0.00268041 0)
(-0.00100803 0.012381 0)
(-0.00619681 0.0332962 0)
(-0.0163205 0.0499659 0)
(-0.0293077 0.0625857 0)
(-0.0441526 0.071591 0)
(-0.0602236 0.0774451 0)
(-0.0769941 0.080536 0)
(-0.0940269 0.0811243 0)
(-0.11094 0.0793355 0)
(-0.127367 0.0751854 0)
(-0.142935 0.0686268 0)
(-0.157247 0.0596051 0)
(-0.169881 0.0481139 0)
(-0.180393 0.034245 0)
(-0.188319 0.0182301 0)
(-0.193191 0.000474268 0)
(-0.194569 -0.0184178 0)
(-0.192068 -0.0376426 0)
(-0.185406 -0.0561953 0)
(-0.174468 -0.0729093 0)
(-0.159379 -0.0865278 0)
(-0.140566 -0.09582 0)
(-0.118821 -0.0997445 0)
(-0.0953062 -0.0976469 0)
(-0.0715032 -0.0894593 0)
(-0.0490764 -0.0758502 0)
(-0.0296423 -0.0582651 0)
(-0.0144795 -0.0388129 0)
(-0.00445265 -0.0200123 0)
(-0.000406387 -0.00457668 0)
(-0.00109611 0.0158083 0)
(-0.00670802 0.041732 0)
(-0.0176263 0.0619644 0)
(-0.0315995 0.0770399 0)
(-0.0475399 0.0876664 0)
(-0.0647789 0.0945131 0)
(-0.0827726 0.0981077 0)
(-0.101084 0.0987935 0)
(-0.119342 0.0967334 0)
(-0.137199 0.0919483 0)
(-0.154299 0.0843751 0)
(-0.170259 0.0739315 0)
(-0.18466 0.060579 0)
(-0.197041 0.0443789 0)
(-0.206903 0.0255418 0)
(-0.213714 0.00446838 0)
(-0.216935 -0.0182167 0)
(-0.21605 -0.0416377 0)
(-0.210615 -0.064665 0)
(-0.200332 -0.0859323 0)
(-0.185137 -0.1039 0)
(-0.165301 -0.116976 0)
(-0.141527 -0.123702 0)
(-0.115008 -0.123014 0)
(-0.0874149 -0.114522 0)
(-0.0607697 -0.098769 0)
(-0.037169 -0.0773426 0)
(-0.0183912 -0.052775 0)
(-0.00574929 -0.0282053 0)
(-0.000552897 -0.00704863 0)
(-0.00115886 0.0194743 0)
(-0.00708045 0.0507335 0)
(-0.018591 0.0747459 0)
(-0.0333111 0.0924167 0)
(-0.0500936 0.104755 0)
(-0.0682433 0.11266 0)
(-0.0872067 0.116819 0)
(-0.106553 0.117673 0)
(-0.125931 0.115431 0)
(-0.145017 0.110123 0)
(-0.163485 0.101668 0)
(-0.180976 0.089949 0)
(-0.197088 0.074882 0)
(-0.211361 0.0564784 0)
(-0.223276 0.0349009 0)
(-0.232252 0.0105137 0)
(-0.237664 -0.0160711 0)
(-0.23887 -0.043947 0)
(-0.235256 -0.0718939 0)
(-0.22631 -0.0983679 0)
(-0.21173 -0.121544 0)
(-0.19155 -0.139425 0)
(-0.166288 -0.150045 0)
(-0.137069 -0.151778 0)
(-0.105685 -0.143729 0)
(-0.0745094 -0.12613 0)
(-0.0461976 -0.100605 0)
(-0.0231729 -0.0701176 0)
(-0.00736895 -0.0385586 0)
(-0.000746328 -0.0102427 0)
(-0.00119261 0.023299 0)
(-0.00729654 0.0601226 0)
(-0.0191729 0.0880762 0)
(-0.0343697 0.108452 0)
(-0.0517021 0.122579 0)
(-0.0704567 0.131604 0)
(-0.0900763 0.13639 0)
(-0.110141 0.13749 0)
(-0.130322 0.13517 0)
(-0.150331 0.129473 0)
(-0.169877 0.120304 0)
(-0.188641 0.107504 0)
(-0.206252 0.090935 0)
(-0.222275 0.0705401 0)
(-0.236193 0.0464101 0)
(-0.247405 0.0188404 0)
(-0.255226 -0.011609 0)
(-0.258912 -0.0440491 0)
(-0.257692 -0.0772214 0)
(-0.250831 -0.109451 0)
(-0.237746 -0.138655 0)
(-0.218154 -0.162422 0)
(-0.19227 -0.178202 0)
(-0.161009 -0.183651 0)
(-0.126154 -0.177135 0)
(-0.0903648 -0.158315 0)
(-0.0568966 -0.128642 0)
(-0.0289758 -0.0914619 0)
(-0.00938574 -0.0515429 0)
(-0.00100164 -0.0143445 0)
(-0.00119482 0.0271938 0)
(-0.00734445 0.069703 0)
(-0.0193432 0.101696 0)
(-0.0347221 0.124851 0)
(-0.0522779 0.140819 0)
(-0.0712857 0.151008 0)
(-0.0911872 0.156471 0)
(-0.111575 0.157886 0)
(-0.132148 0.155586 0)
(-0.152654 0.149639 0)
(-0.172849 0.139936 0)
(-0.192464 0.12628 0)
(-0.211182 0.108471 0)
(-0.228612 0.086373 0)
(-0.244274 0.059986 0)
(-0.257584 0.0295091 0)
(-0.26784 -0.00459048 0)
(-0.27424 -0.0415052 0)
(-0.275891 -0.079994 0)
(-0.271851 -0.118327 0)
(-0.261239 -0.154234 0)
(-0.243391 -0.184922 0)
(-0.218092 -0.207227 0)
(-0.185874 -0.217952 0)
(-0.148308 -0.21446 0)
(-0.108185 -0.195486 0)
(-0.0693334 -0.161967 0)
(-0.0359234 -0.117458 0)
(-0.0118733 -0.0676971 0)
(-0.00133572 -0.0195803 0)
(-0.00116495 0.0310658 0)
(-0.00722214 0.0792693 0)
(-0.0190951 0.11533 0)
(-0.0343489 0.14129 0)
(-0.0517776 0.159117 0)
(-0.0706482 0.170484 0)
(-0.0904022 0.176645 0)
(-0.110645 0.178414 0)
(-0.131103 0.176207 0)
(-0.151565 0.170128 0)
(-0.17184 0.160063 0)
(-0.191723 0.145782 0)
(-0.210966 0.127023 0)
(-0.22925 0.103569 0)
(-0.246166 0.0753173 0)
(-0.261191 0.042349 0)
(-0.273671 0.00500174 0)
(-0.282797 -0.0360456 0)
(-0.287605 -0.079654 0)
(-0.287006 -0.124139 0)
(-0.27984 -0.167149 0)
(-0.265027 -0.20561 0)
(-0.24182 -0.235779 0)
(-0.210171 -0.253527 0)
(-0.171184 -0.254958 0)
(-0.127516 -0.237447 0)
(-0.08342 -0.200905 0)
(-0.0440895 -0.148726 0)
(-0.0149013 -0.0876097 0)
(-0.00176785 -0.0262161 0)
(-0.00110538 0.0348236 0)
(-0.00694165 0.0886192 0)
(-0.0184531 0.128702 0)
(-0.0332792 0.157437 0)
(-0.0502219 0.177092 0)
(-0.06854 0.189602 0)
(-0.0876745 0.196432 0)
(-0.107243 0.198547 0)
(-0.126999 0.196461 0)
(-0.146777 0.190326 0)
(-0.166443 0.180038 0)
(-0.185867 0.165343 0)
(-0.204887 0.145929 0)
(-0.223281 0.121502 0)
(-0.240746 0.0918547 0)
(-0.256867 0.0569396 0)
(-0.271086 0.0169393 0)
(-0.282663 -0.0276361 0)
(-0.290653 -0.0758385 0)
(-0.293889 -0.126141 0)
(-0.290994 -0.17626 0)
(-0.280496 -0.222998 0)
(-0.261057 -0.262164 0)
(-0.231884 -0.288713 0)
(-0.193319 -0.297307 0)
(-0.147519 -0.283488 0)
(-0.0988502 -0.245447 0)
(-0.0534694 -0.185767 0)
(-0.01853 -0.111888 0)
(-0.00232021 -0.0345561 0)
(-0.00102221 0.0383871 0)
(-0.00653334 0.0975715 0)
(-0.0174828 0.141554 0)
(-0.0316064 0.172967 0)
(-0.0477158 0.194353 0)
(-0.06506 0.207907 0)
(-0.0830787 0.215311 0)
(-0.101403 0.217699 0)
(-0.119815 0.215696 0)
(-0.138197 0.209521 0)
(-0.156481 0.199097 0)
(-0.174618 0.184163 0)
(-0.192547 0.16437 0)
(-0.210166 0.139359 0)
(-0.227303 0.108833 0)
(-0.24369 0.0726174 0)
(-0.25892 0.0307296 0)
(-0.27239 -0.0165326 0)
(-0.283262 -0.0684745 0)
(-0.290393 -0.123839 0)
(-0.292298 -0.180581 0)
(-0.287193 -0.235595 0)
(-0.273173 -0.284471 0)
(-0.248596 -0.321406 0)
(-0.212775 -0.339568 0)
(-0.166927 -0.332251 0)
(-0.115037 -0.295089 0)
(-0.0639443 -0.228847 0)
(-0.022803 -0.14111 0)
(-0.00301826 -0.0449381 0)
(-0.000926124 0.0416978 0)
(-0.00605044 0.105988 0)
(-0.0163011 0.153673 0)
(-0.0295023 0.187587 0)
(-0.0444667 0.210524 0)
(-0.0604301 0.224937 0)
(-0.0768335 0.23274 0)
(-0.0933259 0.235246 0)
(-0.109726 0.233214 0)
(-0.125969 0.226946 0)
(-0.142059 0.216409 0)
(-0.158039 0.201357 0)
(-0.173958 0.181421 0)
(-0.189843 0.156202 0)
(-0.205678 0.125326 0)
(-0.221367 0.0885088 0)
(-0.236692 0.0456075 0)
(-0.251248 -0.00330505 0)
(-0.26438 -0.0578454 0)
(-0.27508 -0.117111 0)
(-0.281889 -0.17946 0)
(-0.282863 -0.24213 0)
(-0.275638 -0.300802 0)
(-0.257739 -0.349232 0)
(-0.227265 -0.379248 0)
(-0.184057 -0.381658 0)
(-0.131069 -0.34867 0)
(-0.0752456 -0.27785 0)
(-0.02774 -0.175763 0)
(-0.003892 -0.0577259 0)
(-0.000833667 0.0447327 0)
(-0.00557468 0.113803 0)
(-0.0150872 0.164921 0)
(-0.0272316 0.201061 0)
(-0.0407993 0.225263 0)
(-0.0550101 0.240249 0)
(-0.0693151 0.248176 0)
(-0.083395 0.250559 0)
(-0.0971182 0.248304 0)
(-0.110485 0.241817 0)
(-0.123582 0.231129 0)
(-0.136551 0.216023 0)
(-0.149556 0.196137 0)
(-0.162764 0.171048 0)
(-0.176317 0.140333 0)
(-0.190302 0.103617 0)
(-0.20471 0.0606161 0)
(-0.219378 0.0111851 0)
(-0.233882 -0.0446029 0)
(-0.247438 -0.106277 0)
(-0.258772 -0.172728 0)
(-0.265965 -0.241773 0)
(-0.266402 -0.309548 0)
(-0.25692 -0.369821 0)
(-0.234382 -0.413491 0)
(-0.196907 -0.428941 0)
(-0.145704 -0.404252 0)
(-0.0869249 -0.332119 0)
(-0.0333334 -0.216158 0)
(-0.00497915 -0.0733007 0)
(-0.00076966 0.047522 0)
(-0.00522544 0.121054 0)
(-0.0140979 0.175265 0)
(-0.0251686 0.21324 0)
(-0.0371687 0.238289 0)
(-0.0493039 0.253431 0)
(-0.0610558 0.261097 0)
(-0.0721637 0.263022 0)
(-0.0825702 0.260277 0)
(-0.0923608 0.253383 0)
(-0.101718 0.242451 0)
(-0.11089 0.22731 0)
(-0.120161 0.20762 0)
(-0.129833 0.182959 0)
(-0.140204 0.152874 0)
(-0.151538 0.116929 0)
(-0.164032 0.0747207 0)
(-0.177756 0.0259164 0)
(-0.19256 -0.029694 0)
(-0.207962 -0.0920929 0)
(-0.222981 -0.160776 0)
(-0.235928 -0.23432 0)
(-0.244209 -0.30967 0)
(-0.244261 -0.38115 0)
(-0.231883 -0.43939 0)
(-0.203334 -0.470817 0)
(-0.157413 -0.459083 0)
(-0.0983385 -0.3903 0)
(-0.0395521 -0.262338 0)
(-0.00633307 -0.0920569 0)
(-0.000772698 0.0501738 0)
(-0.00517652 0.127926 0)
(-0.0136918 0.184821 0)
(-0.0238179 0.224087 0)
(-0.0341699 0.249387 0)
(-0.0439549 0.264113 0)
(-0.0527254 0.271009 0)
(-0.0603241 0.27205 0)
(-0.0668072 0.268482 0)
(-0.0723737 0.26095 0)
(-0.0773199 0.249648 0)
(-0.0820071 0.234462 0)
(-0.0868402 0.215086 0)
(-0.0922489 0.191111 0)
(-0.0986705 0.162076 0)
(-0.106527 0.127503 0)
(-0.116197 0.0869095 0)
(-0.127964 0.0398101 0)
(-0.141947 -0.0142565 0)
(-0.157988 -0.0756704 0)
(-0.175488 -0.14453 0)
(-0.193161 -0.220262 0)
(-0.208727 -0.300895 0)
(-0.218616 -0.381856 0)
(-0.217943 -0.454353 0)
(-0.201243 -0.503773 0)
(-0.164466 -0.509669 0)
(-0.108643 -0.450209 0)
(-0.0463556 -0.313962 0)
(-0.00803903 -0.114409 0)
(-0.000907402 0.052913 0)
(-0.00568843 0.13481 0)
(-0.0143681 0.193888 0)
(-0.0238413 0.233684 0)
(-0.0325431 0.258413 0)
(-0.0397261 0.271958 0)
(-0.0450863 0.277437 0)
(-0.0486399 0.277082 0)
(-0.0506112 0.272313 0)
(-0.0513504 0.26389 0)
(-0.0512867 0.252086 0)
(-0.0509026 0.23684 0)
(-0.0507168 0.217883 0)
(-0.051272 0.194824 0)
(-0.0531223 0.167206 0)
(-0.056818 0.13453 0)
(-0.0628831 0.096257 0)
(-0.0717802 0.0517955 0)
(-0.0838599 0.000495076 0)
(-0.0992745 -0.0583386 0)
(-0.117837 -0.125328 0)
(-0.138785 -0.200727 0)
(-0.160414 -0.283774 0)
(-0.179578 -0.37145 0)
(-0.191265 -0.456445 0)
(-0.188735 -0.524424 0)
(-0.165001 -0.55196 0)
(-0.116785 -0.508742 0)
(-0.0537089 -0.370172 0)
(-0.0102426 -0.140826 0)
(-0.00129055 0.0561505 0)
(-0.00716841 0.142375 0)
(-0.016827 0.20298 0)
(-0.0260865 0.242227 0)
(-0.0331554 0.26525 0)
(-0.0374379 0.276617 0)
(-0.0388941 0.279887 0)
(-0.0378139 0.277552 0)
(-0.0346606 0.271183 0)
(-0.029977 0.261627 0)
(-0.024345 0.24921 0)
(-0.0183697 0.233911 0)
(-0.0126724 0.215485 0)
(-0.00788748 0.193558 0)
(-0.00465696 0.167679 0)
(-0.00362519 0.137337 0)
(-0.00542437 0.101963 0)
(-0.0106496 0.0609037 0)
(-0.0198343 0.0133878 0)
(-0.0334006 -0.0414909 0)
(-0.0515576 -0.104743 0)
(-0.0741127 -0.177308 0)
(-0.100111 -0.25959 0)
(-0.127233 -0.350365 0)
(-0.150985 -0.444615 0)
(-0.1641 -0.529837 0)
(-0.157032 -0.581585 0)
(-0.12144 -0.561833 0)
(-0.0615659 -0.429408 0)
(-0.0131881 -0.171892 0)
(-0.00214403 0.0606101 0)
(-0.0102739 0.151675 0)
(-0.0220435 0.212828 0)
(-0.0315807 0.249956 0)
(-0.0369054 0.269721 0)
(-0.0377926 0.27764 0)
(-0.0346577 0.277767 0)
(-0.0281981 0.272824 0)
(-0.0191966 0.264471 0)
(-0.0084285 0.253582 0)
(0.00335937 0.240493 0)
(0.015446 0.225188 0)
(0.0271269 0.207429 0)
(0.0377017 0.186847 0)
(0.0464708 0.162993 0)
(0.0527334 0.135351 0)
(0.0557907 0.103342 0)
(0.054953 0.0662859 0)
(0.0495459 0.0233594 0)
(0.038928 -0.0264498 0)
(0.0225458 -0.0843752 0)
(4.79164e-05 -0.151819 0)
(-0.0284304 -0.230128 0)
(-0.06168 -0.319838 0)
(-0.0963498 -0.418758 0)
(-0.125621 -0.517767 0)
(-0.138291 -0.59409 0)
(-0.120832 -0.604415 0)
(-0.0697439 -0.489127 0)
(-0.017243 -0.20838 0)
(-0.00389579 0.0675663 0)
(-0.016071 0.164255 0)
(-0.0313039 0.224293 0)
(-0.0413727 0.256965 0)
(-0.0443786 0.271378 0)
(-0.0408825 0.274286 0)
(-0.0320373 0.270232 0)
(-0.0191086 0.262064 0)
(-0.00327744 0.25141 0)
(0.0144206 0.239081 0)
(0.0330789 0.225348 0)
(0.0518825 0.210155 0)
(0.0700713 0.193242 0)
(0.0869131 0.174229 0)
(0.101685 0.152664 0)
(0.113663 0.128037 0)
(0.122113 0.0997704 0)
(0.126282 0.0671912 0)
(0.125393 0.0294839 0)
(0.118626 -0.0143693 0)
(0.105146 -0.0656656 0)
(0.0841365 -0.126015 0)
(0.054957 -0.19736 0)
(0.0175957 -0.281674 0)
(-0.0262164 -0.379638 0)
(-0.0711851 -0.486805 0)
(-0.105888 -0.585141 0)
(-0.11235 -0.63035 0)
(-0.0775432 -0.545288 0)
(-0.0228233 -0.251178 0)
(-0.00735326 0.0792726 0)
(-0.0262156 0.182201 0)
(-0.0459939 0.238032 0)
(-0.0558511 0.262742 0)
(-0.0547876 0.269071 0)
(-0.0448639 0.265169 0)
(-0.0283437 0.255905 0)
(-0.00722206 0.244021 0)
(0.0168733 0.230925 0)
(0.0426578 0.217221 0)
(0.0691016 0.203027 0)
(0.095341 0.188187 0)
(0.120609 0.172384 0)
(0.144185 0.155215 0)
(0.165365 0.136222 0)
(0.183434 0.114905 0)
(0.197652 0.0907134 0)
(0.207232 0.0630131 0)
(0.211321 0.0310498 0)
(0.208957 -0.00611684 0)
(0.199087 -0.049712 0)
(0.180526 -0.101318 0)
(0.15199 -0.163088 0)
(0.112372 -0.237877 0)
(0.0615399 -0.328792 0)
(0.00227453 -0.436558 0)
(-0.0556833 -0.550814 0)
(-0.0917664 -0.632337 0)
(-0.0828858 -0.591527 0)
(-0.0300155 -0.300953 0)
(-0.0139134 0.0996464 0)
(-0.0428957 0.207772 0)
(-0.0664166 0.253561 0)
(-0.0724882 0.265195 0)
(-0.0630249 0.26013 0)
(-0.0426492 0.247656 0)
(-0.0151029 0.232466 0)
(0.0168272 0.216779 0)
(0.0511328 0.201497 0)
(0.0863888 0.186832 0)
(0.121553 0.172647 0)
(0.155814 0.158627 0)
(0.188482 0.144371 0)
(0.218921 0.129442 0)
(0.246498 0.113385 0)
(0.270556 0.0957243 0)
(0.290386 0.0759584 0)
(0.305203 0.0535296 0)
(0.314114 0.02779 0)
(0.316048 -0.00205881 0)
(0.309813 -0.0370416 0)
(0.293959 -0.0785533 0)
(0.266738 -0.128612 0)
(0.22619 -0.1903 0)
(0.170494 -0.268235 0)
(0.0994054 -0.367761 0)
(0.0187273 -0.488176 0)
(-0.0518026 -0.602024 0)
(-0.0807989 -0.618314 0)
(-0.0375877 -0.358017 0)
(-0.0254022 0.135245 0)
(-0.0672061 0.241132 0)
(-0.0870661 0.266349 0)
(-0.0791403 0.258235 0)
(-0.0523023 0.238727 0)
(-0.0146851 0.21691 0)
(0.0285975 0.196219 0)
(0.0743412 0.177678 0)
(0.120553 0.161315 0)
(0.166004 0.146777 0)
(0.209907 0.133588 0)
(0.2517 0.121246 0)
(0.290921 0.109268 0)
(0.327124 0.0971965 0)
(0.359835 0.0845962 0)
(0.38852 0.0710471 0)
(0.412555 0.0561267 0)
(0.43121 0.0393865 0)
(0.443607 0.0203222 0)
(0.448657 -0.00168218 0)
(0.445109 -0.0273295 0)
(0.431351 -0.0577299 0)
(0.405391 -0.0945196 0)
(0.364734 -0.140413 0)
(0.306306 -0.200268 0)
(0.226943 -0.282291 0)
(0.127188 -0.395471 0)
(0.020236 -0.530889 0)
(-0.0612138 -0.612379 0)
(-0.0409108 -0.421639 0)
(-0.0412656 0.19741 0)
(-0.090162 0.272849 0)
(-0.0798489 0.259306 0)
(-0.0363998 0.22623 0)
(0.0212384 0.193203 0)
(0.0833705 0.165036 0)
(0.145444 0.142232 0)
(0.20528 0.123968 0)
(0.261914 0.109187 0)
(0.314989 0.0969536 0)
(0.364409 0.0865057 0)
(0.410147 0.0772296 0)
(0.452147 0.0686231 0)
(0.490283 0.060266 0)
(0.524324 0.0517973 0)
(0.553927 0.0428939 0)
(0.578621 0.0332529 0)
(0.597795 0.0225713 0)
(0.610653 0.0105218 0)
(0.616261 -0.00330963 0)
(0.613413 -0.0193016 0)
(0.600483 -0.0381652 0)
(0.575492 -0.0609879 0)
(0.535781 -0.0896854 0)
(0.477623 -0.128107 0)
(0.395724 -0.184418 0)
(0.284787 -0.273872 0)
(0.145744 -0.410572 0)
(-0.00351828 -0.553984 0)
(-0.02542 -0.477469 0)
(-0.0340951 0.293813 0)
(-0.0477996 0.27272 0)
(0.0538919 0.199615 0)
(0.156954 0.149686 0)
(0.249791 0.114798 0)
(0.331873 0.0898602 0)
(0.40414 0.0721888 0)
(0.4678 0.0595577 0)
(0.524144 0.0502588 0)
(0.574324 0.043139 0)
(0.619229 0.037439 0)
(0.659487 0.0326399 0)
(0.695495 0.0283701 0)
(0.727451 0.0243527 0)
(0.755376 0.0203715 0)
(0.779134 0.0162492 0)
(0.798438 0.011831 0)
(0.812865 0.00697555 0)
(0.821759 0.00153519 0)
(0.824499 -0.00454278 0)
(0.820112 -0.0116007 0)
(0.80727 -0.0199041 0)
(0.784346 -0.0299112 0)
(0.749017 -0.0425478 0)
(0.69768 -0.0598549 0)
(0.624238 -0.0869083 0)
(0.518438 -0.137221 0)
(0.36509 -0.240311 0)
(0.144092 -0.406986 0)
(0.0588534 -0.458305 0)
(0.303233 0.180916 0)
(0.382497 0.144271 0)
(0.560753 0.0911178 0)
(0.686546 0.0589682 0)
(0.769239 0.0393329 0)
(0.828854 0.0268424 0)
(0.874751 0.0189373 0)
(0.911305 0.0139417 0)
(0.941239 0.0107085 0)
(0.966377 0.00852253 0)
(0.987877 0.00695743 0)
(1.00645 0.00575561 0)
(1.02251 0.00475599 0)
(1.03628 0.00385394 0)
(1.04784 0.00297826 0)
(1.05716 0.00207756 0)
(1.0641 0.0011105 0)
(1.06848 4.62036e-05 0)
(1.07004 -0.00115897 0)
(1.0684 -0.00239689 0)
(1.06303 -0.00387558 0)
(1.05344 -0.00563095 0)
(1.03885 -0.00773517 0)
(1.01806 -0.0103938 0)
(0.989015 -0.0141041 0)
(0.947608 -0.0202081 0)
(0.884038 -0.0325962 0)
(0.776381 -0.0637681 0)
(0.544829 -0.139474 0)
(0.382491 -0.20174 0)
)
;

boundaryField
{
    movingWall
    {
        type            fixedValue;
        value           uniform (1.2 0 0);
    }
    fixedWalls
    {
        type            noSlip;
    }
    frontAndBack
    {
        type            empty;
    }
}


// ************************************************************************* //
