/*--------------------------------*- C++ -*----------------------------------*\
  =========                 |
  \\      /  F ield         | OpenFOAM: The Open Source CFD Toolbox
   \\    /   O peration     | Website:  https://openfoam.org
    \\  /    A nd           | Version:  7
     \\/     M anipulation  |
\*---------------------------------------------------------------------------*/
FoamFile
{
    version     2.0;
    format      ascii;
    class       volScalarField;
    location    "150";
    object      epsilon;
}
// * * * * * * * * * * * * * * * * * * * * * * * * * * * * * * * * * * * * * //

dimensions      [0 2 -3 0 0 0 0];

internalField   nonuniform List<scalar> 
4500
(
789.621
724.677
675.35
642.892
642.676
796.99
1106.39
1422.08
1665.89
1850.78
1998.69
2119.87
2217.38
2292.12
2346.02
2382.64
2406.25
2420.78
2429.38
2434.31
2437.06
2438.65
2439.52
2440.03
2440.31
2440.45
2440.5
2440.5
2440.52
2440.51
2440.52
2440.44
2440.27
2439.98
2439.64
2439.15
2438.53
2437.78
2437
2436.03
2434.92
2433.89
2432.82
2431.57
2430.09
2428.81
2427.95
2427.31
2426.67
2425.78
2425.08
2425.03
2425.3
2425.38
2424.91
2423.86
2422.71
2422.29
2421.89
2421.88
2421.37
2421.02
2420.86
2421.13
2420.87
2420.57
2419.86
2419.32
2418.94
2419.09
2419.91
2421.58
2423.86
2426.16
2428.35
180.468
258.592
265.905
256.049
253.365
290.24
364.818
469.391
559.818
629.475
684.621
729.227
764.675
791.476
810.527
823.299
831.444
836.417
839.345
841.017
841.946
842.478
842.773
842.945
843.044
843.089
843.106
843.107
843.112
843.108
843.11
843.08
843.016
842.901
842.77
842.584
842.35
842.055
841.756
841.38
840.959
840.556
840.145
839.657
839.086
838.585
838.246
838.008
837.767
837.429
837.153
837.118
837.219
837.253
837.083
836.677
836.232
836.051
835.886
835.879
835.686
835.547
835.476
835.58
835.497
835.398
835.13
834.906
834.738
834.781
835.083
835.72
836.587
837.47
838.305
52.4733
112.463
134.491
136.158
135.523
155.153
211.259
287.045
349.888
397.12
433.866
463.177
486.185
503.381
515.482
523.528
528.629
531.729
533.548
534.582
535.156
535.486
535.669
535.777
535.84
535.868
535.878
535.877
535.881
535.877
535.877
535.856
535.811
535.728
535.636
535.504
535.34
535.13
534.92
534.656
534.361
534.077
533.787
533.44
533.036
532.684
532.449
532.289
532.123
531.884
531.689
531.662
531.736
531.763
531.642
531.351
531.032
530.901
530.784
530.783
530.642
530.543
530.491
530.572
530.518
530.457
530.263
530.095
529.967
529.995
530.207
530.657
531.263
531.882
532.463
18.942
52.8115
76.1192
83.4918
84.7993
101.591
155.216
219.893
271.073
308.743
337.697
360.575
378.384
391.592
400.831
406.943
410.805
413.145
414.516
415.293
415.724
415.973
416.111
416.194
416.243
416.263
416.27
416.269
416.272
416.268
416.268
416.25
416.213
416.142
416.066
415.956
415.82
415.645
415.472
415.252
415.009
414.774
414.534
414.246
413.91
413.619
413.43
413.302
413.166
412.967
412.805
412.785
412.849
412.872
412.769
412.523
412.257
412.149
412.053
412.054
411.934
411.852
411.81
411.881
411.838
411.79
411.624
411.48
411.369
411.393
411.569
411.944
412.446
412.957
413.434
8.18691
25.0216
43.8907
53.6854
56.7777
74.5537
127.334
185.589
230.079
262.293
286.831
306.092
321.005
332.017
339.695
344.764
347.963
349.899
351.032
351.673
352.03
352.236
352.351
352.421
352.462
352.479
352.485
352.483
352.486
352.482
352.482
352.465
352.432
352.369
352.301
352.203
352.083
351.927
351.774
351.58
351.365
351.157
350.945
350.688
350.391
350.135
349.971
349.861
349.741
349.564
349.421
349.405
349.463
349.484
349.39
349.169
348.932
348.838
348.753
348.756
348.647
348.575
348.538
348.605
348.567
348.526
348.374
348.243
348.143
348.165
348.321
348.654
349.098
349.548
349.968
4.21858
11.9889
24.7015
34.4367
38.8739
58.4777
110.464
164.39
204.486
233.13
254.791
271.715
284.783
294.418
301.136
305.571
308.373
310.069
311.063
311.626
311.941
312.122
312.224
312.286
312.323
312.338
312.343
312.341
312.344
312.34
312.34
312.324
312.294
312.235
312.173
312.083
311.973
311.829
311.689
311.511
311.315
311.124
310.93
310.694
310.421
310.188
310.04
309.941
309.832
309.669
309.538
309.524
309.579
309.598
309.51
309.305
309.087
309.001
308.924
308.928
308.826
308.76
308.727
308.791
308.756
308.718
308.576
308.453
308.359
308.38
308.523
308.829
309.234
309.645
310.028
2.53571
6.06735
13.4179
21.384
26.4507
47.6433
98.6851
149.446
186.435
212.56
232.193
247.487
259.29
268.004
274.095
278.128
280.683
282.234
283.145
283.663
283.953
284.121
284.215
284.272
284.307
284.321
284.325
284.324
284.327
284.322
284.323
284.308
284.279
284.224
284.166
284.081
283.978
283.844
283.714
283.547
283.364
283.185
283.004
282.782
282.527
282.31
282.173
282.082
281.98
281.827
281.705
281.692
281.744
281.762
281.678
281.484
281.28
281.199
281.128
281.132
281.036
280.973
280.943
281.004
280.972
280.937
280.801
280.683
280.594
280.614
280.747
281.032
281.409
281.792
282.148
1.72004
3.39475
7.18415
12.6691
17.5626
39.5763
89.4615
137.78
172.475
196.742
214.876
228.976
239.877
247.955
253.631
257.408
259.813
261.279
262.144
262.637
262.915
263.076
263.167
263.222
263.255
263.269
263.273
263.272
263.275
263.271
263.271
263.256
263.23
263.177
263.122
263.042
262.945
262.818
262.694
262.536
262.363
262.194
262.022
261.812
261.571
261.365
261.236
261.151
261.055
260.909
260.792
260.78
260.83
260.846
260.767
260.582
260.388
260.311
260.244
260.247
260.155
260.096
260.068
260.126
260.096
260.064
259.933
259.818
259.733
259.75
259.875
260.143
260.499
260.86
261.195
1.27847
2.13138
3.9745
7.21134
11.2707
33.083
81.5439
127.891
160.849
183.71
200.703
213.904
224.145
231.78
237.184
240.807
243.128
244.552
245.397
245.88
246.154
246.314
246.404
246.459
246.492
246.506
246.51
246.509
246.511
246.507
246.508
246.494
246.469
246.419
246.366
246.29
246.197
246.076
245.958
245.808
245.643
245.482
245.317
245.117
244.886
244.69
244.567
244.487
244.395
244.254
244.143
244.13
244.177
244.193
244.117
243.941
243.754
243.68
243.615
243.618
243.53
243.473
243.446
243.502
243.475
243.444
243.318
243.206
243.122
243.138
243.256
243.509
243.845
244.187
244.506
1.01865
1.48303
2.37891
4.08109
7.01075
27.5614
74.2572
118.939
150.563
172.347
188.458
200.969
210.72
218.048
223.283
226.824
229.111
230.524
231.369
231.855
232.132
232.294
232.386
232.441
232.474
232.489
232.493
232.493
232.495
232.491
232.492
232.479
232.454
232.407
232.357
232.284
232.195
232.079
231.967
231.823
231.666
231.511
231.353
231.16
230.939
230.751
230.633
230.556
230.467
230.332
230.224
230.209
230.254
230.27
230.197
230.029
229.849
229.776
229.714
229.716
229.631
229.576
229.55
229.604
229.579
229.55
229.428
229.318
229.236
229.25
229.36
229.599
229.918
230.245
230.548
0.856465
1.12022
1.56977
2.414
4.30349
22.7062
67.2209
110.415
141.007
161.969
177.392
189.368
198.753
205.873
211.014
214.527
216.818
218.245
219.104
219.603
219.889
220.056
220.151
220.208
220.242
220.258
220.263
220.263
220.265
220.261
220.262
220.249
220.227
220.181
220.133
220.064
219.979
219.868
219.76
219.622
219.472
219.322
219.17
218.985
218.772
218.591
218.477
218.403
218.317
218.187
218.082
218.066
218.107
218.123
218.055
217.893
217.721
217.648
217.588
217.588
217.507
217.453
217.427
217.479
217.456
217.43
217.312
217.204
217.123
217.134
217.237
217.463
217.766
218.077
218.367
0.751126
0.901845
1.13464
1.54913
2.6831
18.372
60.2256
102
131.785
152.129
167.019
178.577
187.688
194.672
199.774
203.301
205.623
207.084
207.971
208.489
208.789
208.964
209.065
209.124
209.16
209.177
209.183
209.183
209.186
209.182
209.183
209.171
209.149
209.106
209.061
208.994
208.913
208.807
208.704
208.572
208.427
208.284
208.137
207.959
207.755
207.58
207.47
207.397
207.314
207.189
207.086
207.068
207.106
207.122
207.057
206.904
206.738
206.665
206.606
206.605
206.528
206.475
206.449
206.498
206.478
206.454
206.34
206.234
206.155
206.163
206.259
206.471
206.758
207.055
207.331
0.681078
0.763066
0.883912
1.08877
1.74767
14.504
53.1755
93.4908
122.633
142.523
157.007
168.239
177.145
184.044
189.148
192.719
195.096
196.606
197.531
198.077
198.394
198.58
198.687
198.751
198.789
198.807
198.813
198.815
198.817
198.814
198.814
198.804
198.783
198.743
198.699
198.636
198.559
198.458
198.359
198.233
198.095
197.957
197.816
197.645
197.449
197.28
197.172
197.102
197.022
196.901
196.801
196.78
196.815
196.83
196.77
196.625
196.465
196.392
196.334
196.331
196.258
196.206
196.181
196.226
196.209
196.187
196.079
195.975
195.897
195.902
195.99
196.189
196.459
196.741
197.005
0.634027
0.671578
0.730363
0.829973
1.20979
11.0997
46.0615
84.7691
113.368
132.94
147.125
158.105
166.857
173.709
178.843
182.479
184.929
186.501
187.473
188.053
188.392
188.592
188.707
188.775
188.815
188.835
188.843
188.845
188.847
188.845
188.845
188.835
188.816
188.778
188.737
188.677
188.604
188.508
188.414
188.294
188.162
188.03
187.895
187.731
187.544
187.381
187.276
187.207
187.129
187.014
186.916
186.892
186.923
186.939
186.883
186.747
186.594
186.52
186.464
186.458
186.389
186.338
186.313
186.355
186.341
186.321
186.219
186.118
186.041
186.042
186.123
186.307
186.561
186.828
187.079
0.602482
0.609991
0.631915
0.675716
0.893614
8.18273
38.9464
75.7829
103.872
123.233
137.21
148.002
156.637
163.466
168.648
172.367
174.903
176.548
177.576
178.194
178.559
178.775
178.899
178.973
179.017
179.039
179.048
179.05
179.053
179.051
179.051
179.042
179.025
178.989
178.951
178.895
178.825
178.735
178.645
178.532
178.407
178.281
178.151
177.996
177.817
177.66
177.558
177.49
177.416
177.306
177.21
177.183
177.21
177.225
177.175
177.048
176.903
176.828
176.773
176.765
176.7
176.651
176.625
176.663
176.652
176.635
176.54
176.441
176.366
176.364
176.437
176.606
176.842
177.094
177.332
0.581598
0.568246
0.566893
0.579182
0.701297
5.78036
31.956
66.5443
94.077
113.304
127.152
137.808
146.356
153.178
158.419
162.231
164.862
166.589
167.68
168.343
168.738
168.972
169.108
169.188
169.236
169.26
169.271
169.275
169.278
169.276
169.276
169.268
169.252
169.219
169.183
169.131
169.066
168.981
168.896
168.791
168.672
168.552
168.429
168.282
168.112
167.962
167.862
167.796
167.725
167.621
167.528
167.498
167.52
167.535
167.489
167.373
167.236
167.161
167.107
167.096
167.036
166.988
166.963
166.996
166.988
166.973
166.885
166.791
166.717
166.712
166.776
166.931
167.148
167.385
167.608
0.568078
0.540118
0.523332
0.516695
0.580347
3.90356
25.2682
57.1296
83.9665
103.094
116.88
127.447
135.93
142.753
148.059
151.969
154.703
156.521
157.682
158.396
158.825
159.081
159.23
159.318
159.37
159.397
159.409
159.414
159.418
159.416
159.417
159.41
159.395
159.366
159.332
159.284
159.224
159.145
159.065
158.966
158.856
158.742
158.626
158.487
158.328
158.185
158.088
158.023
157.954
157.857
157.767
157.735
157.752
157.765
157.725
157.619
157.491
157.417
157.364
157.351
157.295
157.249
157.223
157.252
157.246
157.234
157.154
157.065
156.993
156.984
157.04
157.179
157.379
157.598
157.807
0.559602
0.521501
0.494154
0.475514
0.502404
2.53114
19.0952
47.6828
73.5737
92.5855
106.357
116.875
125.314
132.142
137.512
141.524
144.368
146.285
147.525
148.295
148.764
149.044
149.208
149.305
149.362
149.393
149.408
149.414
149.418
149.417
149.418
149.412
149.399
149.372
149.341
149.298
149.242
149.169
149.095
149.004
148.901
148.795
148.685
148.556
148.407
148.272
148.178
148.115
148.049
147.958
147.873
147.838
147.85
147.862
147.827
147.732
147.614
147.541
147.488
147.473
147.422
147.378
147.352
147.376
147.373
147.363
147.291
147.208
147.139
147.127
147.174
147.297
147.478
147.68
147.873
0.5545
0.509537
0.474882
0.448308
0.451606
1.60296
13.6572
38.4166
62.9903
81.7995
95.5777
106.082
114.492
121.328
126.761
130.876
133.837
135.862
137.189
138.025
138.538
138.847
139.029
139.137
139.2
139.235
139.252
139.26
139.265
139.265
139.266
139.261
139.249
139.225
139.198
139.158
139.107
139.041
138.973
138.889
138.795
138.696
138.594
138.474
138.337
138.21
138.12
138.058
137.996
137.911
137.83
137.793
137.8
137.81
137.781
137.697
137.589
137.518
137.467
137.45
137.403
137.361
137.336
137.355
137.354
137.346
137.283
137.206
137.14
137.125
137.164
137.272
137.433
137.617
137.794
0.551577
0.502156
0.462496
0.430561
0.418606
1.02619
9.1444
29.6075
52.3741
70.8029
84.5716
95.0838
103.479
110.325
115.818
120.04
123.127
125.272
126.697
127.608
128.172
128.515
128.719
128.84
128.91
128.95
128.97
128.98
128.985
128.986
128.987
128.983
128.973
128.952
128.928
128.892
128.847
128.787
128.725
128.649
128.563
128.473
128.379
128.269
128.143
128.025
127.939
127.879
127.82
127.742
127.667
127.628
127.63
127.638
127.613
127.54
127.444
127.376
127.327
127.307
127.264
127.225
127.201
127.215
127.215
127.209
127.155
127.085
127.024
127.006
127.037
127.129
127.271
127.436
127.596
0.549996
0.49783
0.45485
0.419296
0.397558
0.695169
5.67375
21.5766
41.9563
59.7164
73.4027
83.9249
92.3155
99.1713
104.725
109.062
112.288
114.568
116.107
117.104
117.729
118.112
118.342
118.478
118.558
118.603
118.627
118.639
118.645
118.646
118.648
118.645
118.637
118.619
118.597
118.566
118.526
118.473
118.417
118.349
118.272
118.189
118.104
118.004
117.89
117.782
117.701
117.643
117.587
117.516
117.446
117.407
117.405
117.41
117.389
117.327
117.242
117.178
117.131
117.109
117.071
117.035
117.011
117.021
117.022
117.017
116.972
116.909
116.853
116.833
116.857
116.934
117.056
117.202
117.346
0.549196
0.495448
0.450375
0.412441
0.384571
0.51638
3.24992
14.6519
32.0428
48.7247
62.1777
72.679
81.065
87.9331
93.5535
98.0172
101.403
103.84
105.513
106.611
107.308
107.739
107.999
108.154
108.245
108.297
108.325
108.339
108.347
108.349
108.351
108.349
108.342
108.327
108.309
108.282
108.247
108.2
108.151
108.091
108.022
107.948
107.871
107.782
107.68
107.582
107.506
107.45
107.398
107.334
107.27
107.231
107.224
107.227
107.21
107.158
107.084
107.025
106.98
106.957
106.923
106.89
106.867
106.873
106.874
106.871
106.833
106.779
106.728
106.707
106.724
106.787
106.891
107.018
107.144
0.548819
0.494228
0.447923
0.408499
0.376935
0.423602
1.74909
9.10844
23.0022
38.0864
51.0551
61.4532
69.8168
76.6979
82.3971
87.012
90.5875
93.2125
95.0429
96.2615
97.0436
97.5311
97.8277
98.005
98.1092
98.1692
98.2021
98.2196
98.2288
98.2324
98.2346
98.2334
98.2281
98.216
98.2002
98.1776
98.1474
98.1077
98.064
98.012
97.9518
97.8866
97.8177
97.7389
97.6491
97.5612
97.4905
97.4378
97.3892
97.3318
97.2737
97.2358
97.2252
97.2252
97.2111
97.1683
97.1056
97.0521
97.0106
96.9872
96.9564
96.9265
96.9054
96.9076
96.9086
96.9064
96.8758
96.8295
96.7844
96.7631
96.7733
96.8234
96.9096
97.0183
97.128
0.548656
0.493653
0.44668
0.406388
0.37272
0.377058
0.942414
5.0912
15.2285
28.1373
40.2568
50.3954
58.6879
65.5786
71.3791
76.1839
79.9921
82.8425
84.8608
86.2216
87.104
87.6583
87.9979
88.2016
88.3218
88.3913
88.43
88.4508
88.462
88.4669
88.4696
88.4692
88.4653
88.4557
88.4427
88.4238
88.3983
88.3648
88.3272
88.2825
88.2305
88.1736
88.1131
88.0442
87.966
87.8883
87.8239
87.7743
87.7292
87.678
87.626
87.5896
87.5761
87.5735
87.5615
87.527
87.4749
87.4275
87.3895
87.3662
87.3386
87.3119
87.2924
87.2917
87.2921
87.2904
87.2661
87.2275
87.1883
87.1674
87.1724
87.2109
87.2807
87.3719
87.4654
0.548592
0.493405
0.446105
0.405351
0.370567
0.354743
0.565914
2.54372
9.07131
19.2778
30.0784
39.7058
47.8318
54.7202
60.6579
65.7085
69.8049
72.9258
75.1651
76.6911
77.689
78.3204
78.7092
78.9436
79.0821
79.1626
79.2078
79.2326
79.2459
79.2522
79.2556
79.2561
79.2533
79.246
79.2355
79.22
79.1989
79.171
79.1392
79.1012
79.0569
79.0079
78.9553
78.8959
78.8286
78.7609
78.7028
78.6567
78.615
78.5695
78.5233
78.4889
78.4734
78.4684
78.4579
78.4304
78.388
78.347
78.3129
78.2902
78.2656
78.2419
78.2241
78.2211
78.2207
78.2191
78.2
78.1685
78.1351
78.1153
78.1162
78.1446
78.1998
78.2748
78.3531
0.548568
0.493309
0.445864
0.40489
0.369565
0.344719
0.407838
1.18734
4.72901
11.9279
20.8901
29.6537
37.4539
44.3169
50.4434
55.8129
60.2611
63.6986
66.1897
67.9009
69.0273
69.744
70.1875
70.4557
70.6147
70.7073
70.7597
70.7887
70.8044
70.8122
70.8164
70.8176
70.816
70.8105
70.8022
70.7898
70.7726
70.7497
70.723
70.6911
70.6538
70.612
70.5668
70.5159
70.4585
70.4001
70.3484
70.3059
70.2675
70.227
70.1862
70.1543
70.1375
70.1304
70.1208
70.0991
70.0651
70.0304
70.0003
69.9787
69.9568
69.9361
69.92
69.9153
69.914
69.912
69.897
69.8716
69.8438
69.8255
69.8235
69.8435
69.8861
69.9467
70.0113
0.548561
0.493276
0.445774
0.404707
0.369145
0.340583
0.34584
0.598872
2.13306
6.43421
13.1149
20.5889
27.8413
34.6479
41.0294
46.7969
51.6545
55.443
58.2056
60.1129
61.3744
62.1802
62.6808
62.9845
63.1648
63.27
63.33
63.3634
63.3816
63.391
63.396
63.3978
63.3971
63.3933
63.3868
63.3769
63.363
63.3443
63.3221
63.2954
63.264
63.2285
63.1898
63.1463
63.0977
63.0476
63.0019
62.9629
62.9275
62.8913
62.8553
62.826
62.8086
62.7999
62.7908
62.7734
62.7464
62.7175
62.6914
62.6713
62.6519
62.6337
62.6193
62.6135
62.6112
62.6086
62.5964
62.576
62.553
62.5366
62.5326
62.5461
62.5783
62.6267
62.6795
0.548559
0.493265
0.445744
0.404643
0.368989
0.339038
0.32312
0.385749
0.897282
2.92371
7.16063
12.9488
19.4156
26.1411
32.8409
39.0606
44.3515
48.4951
51.5249
53.6227
55.0141
55.9057
56.4611
56.7988
56.9997
57.1171
57.1843
57.2219
57.2425
57.2533
57.2591
57.2616
57.2616
57.259
57.254
57.2461
57.2347
57.2193
57.2007
57.1782
57.1515
57.1211
57.0877
57.0504
57.009
56.9659
56.9255
56.8898
56.8568
56.8241
56.792
56.7652
56.7478
56.7378
56.7288
56.7145
56.693
56.6691
56.6466
56.6281
56.6109
56.595
56.5822
56.5757
56.5723
56.5687
56.5581
56.5414
56.5225
56.5081
56.5031
56.5117
56.536
56.5748
56.6181
0.548558
0.493263
0.445735
0.404623
0.368937
0.33852
0.31556
0.317312
0.448091
1.15604
3.29605
7.26507
12.8213
19.4577
26.4835
33.1307
38.8089
43.2594
46.5161
48.774
50.2744
51.2377
51.8389
52.2052
52.4235
52.5512
52.6244
52.6655
52.6881
52.7002
52.7066
52.7096
52.7102
52.7084
52.7045
52.6978
52.6882
52.6752
52.6591
52.6395
52.6162
52.5895
52.56
52.5272
52.4912
52.4536
52.4174
52.3841
52.353
52.3225
52.2935
52.2688
52.2518
52.2411
52.2319
52.2194
52.2018
52.1816
52.1622
52.1453
52.1299
52.1158
52.1044
52.0974
52.093
52.0879
52.0778
52.0633
52.0475
52.035
52.0297
52.0353
52.0542
52.0861
52.1227
0.548558
0.493263
0.445732
0.404618
0.368922
0.338371
0.313442
0.29839
0.323236
0.53993
1.49511
4.1399
8.97704
15.5258
22.7638
29.6861
35.6087
40.2506
43.648
46.005
47.5728
48.5807
49.2105
49.5946
49.8236
49.9577
50.0347
50.0781
50.102
50.1149
50.1218
50.125
50.1259
50.1245
50.1211
50.1151
50.1064
50.0945
50.0798
50.0617
50.0401
50.0153
49.9879
49.9577
49.9251
49.8909
49.8575
49.8256
49.7952
49.7657
49.7386
49.7155
49.6992
49.6879
49.6783
49.6663
49.6509
49.6331
49.616
49.6003
49.5863
49.5735
49.5632
49.5558
49.5503
49.5431
49.5321
49.5183
49.5046
49.4937
49.4889
49.4932
49.5092
49.5376
49.5707
0.548558
0.493263
0.445732
0.404618
0.368922
0.33838
0.313521
0.298741
0.324636
0.544728
1.50284
4.13665
8.95052
15.4742
22.6973
29.6149
35.5384
40.1832
43.5835
45.9428
47.5123
48.5213
49.152
49.5366
49.7659
49.9002
49.9773
50.0207
50.0447
50.0577
50.0647
50.068
50.0689
50.0675
50.0641
50.0578
50.0488
50.0367
50.022
50.0034
49.9816
49.9564
49.9291
49.8989
49.8673
49.8341
49.8016
49.7692
49.738
49.7077
49.6812
49.6592
49.6438
49.6319
49.6215
49.6086
49.5936
49.5767
49.5608
49.5455
49.5323
49.52
49.5108
49.5027
49.4958
49.4855
49.4721
49.4574
49.4449
49.4353
49.4317
49.4364
49.4527
49.4813
49.5149
0.548558
0.493263
0.445734
0.404623
0.368939
0.338566
0.315958
0.319229
0.456114
1.17896
3.32027
7.24629
12.7309
19.3003
26.2877
32.923
38.6044
43.063
46.3277
48.592
50.0971
51.0638
51.6674
52.0351
52.2542
52.3823
52.4557
52.497
52.52
52.5324
52.5392
52.5422
52.5429
52.5409
52.5369
52.5294
52.5192
52.5055
52.4892
52.4683
52.4444
52.4166
52.3871
52.3546
52.3216
52.2871
52.2535
52.2185
52.1848
52.152
52.1251
52.1035
52.0892
52.0767
52.0651
52.0498
52.0336
52.0159
52.0004
51.9845
51.9714
51.959
51.9506
51.9416
51.933
51.9183
51.9012
51.8841
51.8721
51.8637
51.8621
51.8687
51.8882
51.921
51.9591
0.548559
0.493265
0.445743
0.404642
0.368995
0.339193
0.324517
0.392977
0.926293
2.97993
7.19149
12.8908
19.2461
25.8789
32.5273
38.7317
44.0279
48.1832
51.2247
53.3318
54.7302
55.6268
56.1856
56.5254
56.7275
56.8455
56.913
56.9509
56.972
56.9835
56.9899
56.9923
56.9925
56.9897
56.9845
56.9749
56.9627
56.9463
56.9273
56.9025
56.8749
56.8427
56.8095
56.7725
56.7365
56.6988
56.6628
56.6234
56.5857
56.549
56.5212
56.4998
56.487
56.4734
56.46
56.4409
56.4225
56.4028
56.3872
56.3698
56.3563
56.3433
56.3359
56.3255
56.3149
56.2943
56.2722
56.2519
56.2405
56.2333
56.2342
56.2442
56.2695
56.3096
56.3556
0.548561
0.493276
0.445773
0.404706
0.369164
0.341049
0.350186
0.62286
2.20959
6.52847
13.1294
20.466
27.5799
34.2834
40.61
46.3616
51.2261
55.0284
57.8047
59.723
60.9929
61.8048
62.3096
62.6158
62.7975
62.9033
62.9637
62.9975
63.0165
63.0268
63.0327
63.0343
63.0339
63.0297
63.0231
63.0106
62.9957
62.9756
62.953
62.9229
62.8903
62.8521
62.8138
62.7708
62.7304
62.6881
62.6487
62.6031
62.5605
62.5185
62.4898
62.4687
62.4579
62.4426
62.4269
62.4026
62.3812
62.3585
62.3427
62.3229
62.3088
62.2946
62.2888
62.2762
62.2634
62.2352
62.2071
62.1829
62.1727
62.1669
62.1711
62.1856
62.2191
62.2695
62.3262
0.548568
0.493309
0.445863
0.40489
0.369618
0.345998
0.420285
1.25472
4.87786
12.0461
20.8595
29.4463
37.0947
43.8555
49.9306
55.2863
59.7428
63.1946
65.7002
67.4228
68.5584
69.2817
69.73
70.0008
70.1613
70.2543
70.3073
70.3367
70.3535
70.3625
70.368
70.3687
70.3675
70.3616
70.3532
70.337
70.3187
70.2941
70.2673
70.2303
70.192
70.1463
70.1021
70.0514
70.0059
69.9578
69.9143
69.8611
69.8126
69.7643
69.735
69.7144
69.7064
69.6887
69.6701
69.6388
69.614
69.5878
69.572
69.5488
69.534
69.5184
69.5148
69.4993
69.4842
69.4463
69.4113
69.383
69.3749
69.3708
69.3791
69.3994
69.4433
69.5067
69.5768
0.548591
0.493405
0.446103
0.405353
0.370703
0.357955
0.599259
2.69483
9.29943
19.3914
29.9766
39.4013
47.3751
54.1695
60.0634
65.1043
69.2105
72.3456
74.5991
76.1363
77.1436
77.7818
78.1757
78.4126
78.5526
78.6334
78.6792
78.7043
78.7191
78.7269
78.732
78.7315
78.7295
78.7216
78.7111
78.6905
78.6684
78.6385
78.6069
78.5618
78.517
78.4628
78.412
78.3522
78.3012
78.2463
78.1986
78.1362
78.0813
78.0258
77.9967
77.977
77.9726
77.9514
77.9293
77.8896
77.8613
77.831
77.8158
77.7881
77.7729
77.7553
77.7549
77.7357
77.7183
77.6685
77.6261
77.5936
77.589
77.5867
77.6001
77.6273
77.6839
77.7625
77.8482
0.548656
0.493652
0.446678
0.406394
0.373032
0.384572
1.02401
5.36417
15.5206
28.2138
40.0661
49.99
58.1393
64.9474
70.7138
75.5139
79.3339
82.1982
84.23
85.6014
86.493
87.0542
87.3989
87.605
87.7265
87.7962
87.8354
87.8567
87.8697
87.8764
87.8812
87.8794
87.8764
87.8663
87.8535
87.8276
87.8016
87.7657
87.7291
87.6747
87.623
87.5592
87.5017
87.4316
87.3749
87.3125
87.2607
87.1878
87.1262
87.0627
87.0349
87.0164
87.0166
86.9907
86.9648
86.9149
86.8834
86.8486
86.8347
86.8017
86.7863
86.7664
86.7704
86.7462
86.7269
86.6629
86.6129
86.5766
86.577
86.5767
86.5959
86.6311
86.7024
86.7982
86.9013
0.548818
0.494226
0.447919
0.408512
0.377599
0.440254
1.92335
9.52361
23.3272
38.0976
50.7668
60.9514
69.1847
75.9957
81.6707
86.2864
89.8761
92.5145
94.3577
95.586
96.3772
96.8714
97.1733
97.3527
97.4581
97.518
97.5515
97.5694
97.5809
97.5867
97.5914
97.5881
97.5842
97.5713
97.5562
97.5244
97.4943
97.452
97.4102
97.3455
97.2869
97.2127
97.1484
97.067
97.0049
96.9345
96.879
96.7941
96.7261
96.6539
96.6287
96.6119
96.6176
96.5855
96.5556
96.494
96.4598
96.4202
96.4087
96.3691
96.3542
96.3317
96.3414
96.3111
96.2902
96.2098
96.1525
96.1126
96.1198
96.1214
96.1474
96.1914
96.2792
96.3938
96.5154
0.549194
0.495444
0.450369
0.412465
0.385886
0.551856
3.5691
15.2056
32.3641
48.651
61.7909
72.0885
80.3588
87.1688
92.7746
97.2443
100.647
103.097
104.782
105.889
106.595
107.032
107.298
107.455
107.546
107.598
107.627
107.642
107.652
107.657
107.662
107.657
107.652
107.636
107.619
107.58
107.546
107.497
107.45
107.374
107.309
107.224
107.153
107.059
106.992
106.913
106.855
106.757
106.683
106.602
106.58
106.566
106.578
106.538
106.504
106.429
106.393
106.349
106.341
106.293
106.28
106.254
106.271
106.233
106.211
106.112
106.048
106.006
106.021
106.024
106.058
106.112
106.218
106.352
106.493
0.549993
0.497823
0.454839
0.419337
0.40001
0.767757
6.18343
22.2446
42.2401
59.5474
72.9217
83.2546
91.5442
98.353
103.901
108.248
111.494
113.786
115.337
116.342
116.976
117.366
117.601
117.739
117.819
117.864
117.888
117.901
117.91
117.915
117.92
117.913
117.907
117.888
117.868
117.823
117.785
117.729
117.677
117.589
117.518
117.421
117.344
117.238
117.166
117.079
117.018
116.906
116.827
116.736
116.72
116.707
116.727
116.678
116.64
116.551
116.514
116.465
116.461
116.405
116.393
116.364
116.39
116.343
116.322
116.202
116.132
116.087
116.112
116.117
116.159
116.223
116.348
116.503
116.663
0.551571
0.502141
0.462476
0.430624
0.422961
1.16626
9.87245
30.3538
52.5945
70.536
84.0038
94.3426
102.651
109.459
114.953
119.191
122.299
124.456
125.893
126.811
127.384
127.734
127.944
128.065
128.137
128.175
128.197
128.207
128.216
128.219
128.225
128.216
128.209
128.187
128.165
128.113
128.071
128.007
127.951
127.851
127.774
127.666
127.583
127.464
127.388
127.292
127.23
127.104
127.02
126.919
126.91
126.899
126.926
126.868
126.826
126.722
126.685
126.631
126.633
126.567
126.558
126.525
126.56
126.504
126.483
126.342
126.267
126.22
126.257
126.262
126.313
126.388
126.533
126.708
126.888
0.554489
0.509512
0.474849
0.4484
0.459036
1.8522
14.6093
39.2022
63.1307
81.4375
94.9314
105.278
113.613
120.42
125.86
129.994
132.979
135.015
136.353
137.196
137.718
138.034
138.222
138.331
138.394
138.428
138.446
138.454
138.463
138.467
138.472
138.461
138.454
138.428
138.404
138.344
138.3
138.229
138.168
138.056
137.973
137.853
137.766
137.633
137.555
137.45
137.387
137.246
137.158
137.048
137.046
137.038
137.073
137.004
136.959
136.838
136.803
136.743
136.752
136.676
136.67
136.634
136.679
136.612
136.594
136.429
136.351
136.302
136.351
136.357
136.417
136.503
136.669
136.864
137.064
0.559583
0.521458
0.494099
0.475638
0.514702
2.93585
20.2569
48.4724
73.6259
92.1344
105.64
116.015
124.389
131.195
136.578
140.61
143.479
145.407
146.657
147.435
147.913
148.199
148.37
148.467
148.524
148.554
148.57
148.576
148.585
148.588
148.594
148.581
148.573
148.544
148.518
148.45
148.403
148.325
148.26
148.135
148.048
147.917
147.826
147.679
147.598
147.485
147.422
147.266
147.176
147.055
147.063
147.056
147.101
147.019
146.971
146.834
146.801
146.737
146.752
146.665
146.664
146.623
146.68
146.602
146.586
146.397
146.317
146.267
146.329
146.335
146.405
146.502
146.689
146.904
147.122
0.568046
0.540048
0.523242
0.516846
0.600261
4.50526
26.6107
57.8958
83.9291
102.561
116.1
126.535
134.963
141.768
147.09
151.022
153.782
155.61
156.782
157.502
157.941
158.203
158.359
158.446
158.498
158.524
158.538
158.543
158.552
158.555
158.561
158.545
158.537
158.505
158.477
158.402
158.352
158.267
158.199
158.061
157.97
157.828
157.733
157.573
157.491
157.369
157.307
157.136
157.044
156.913
156.93
156.926
156.979
156.885
156.835
156.681
156.652
156.582
156.605
156.507
156.51
156.466
156.535
156.444
156.432
156.219
156.138
156.087
156.163
156.168
156.249
156.356
156.564
156.798
157.034
0.581545
0.568139
0.56675
0.57934
0.733048
6.60806
33.4438
67.2684
93.9532
112.696
126.314
136.847
145.347
152.153
157.414
161.249
163.906
165.642
166.743
167.413
167.818
168.058
168.201
168.28
168.328
168.35
168.363
168.366
168.376
168.378
168.385
168.367
168.358
168.323
168.294
168.211
168.159
168.066
167.996
167.846
167.751
167.599
167.501
167.326
167.244
167.114
167.054
166.867
166.774
166.634
166.661
166.658
166.721
166.614
166.562
166.392
166.366
166.292
166.323
166.213
166.221
166.172
166.254
166.151
166.144
165.906
165.824
165.774
165.863
165.867
165.959
166.076
166.305
166.557
166.81
0.602401
0.609826
0.631687
0.675825
0.943592
9.24857
40.5431
76.4546
103.667
122.558
136.317
146.992
155.584
162.399
167.603
171.346
173.908
175.56
176.598
177.222
177.598
177.82
177.951
178.023
178.067
178.087
178.098
178.1
178.11
178.112
178.119
178.099
178.09
178.051
178.021
177.931
177.877
177.778
177.705
177.543
177.445
177.283
177.182
176.995
176.911
176.774
176.715
176.515
176.42
176.271
176.308
176.307
176.379
176.259
176.205
176.019
175.997
175.919
175.958
175.837
175.85
175.797
175.892
175.777
175.774
175.512
175.431
175.381
175.483
175.486
175.588
175.716
175.965
176.234
176.503
0.633903
0.671328
0.729996
0.829899
1.28718
12.3982
47.7348
85.385
113.09
132.201
146.177
157.045
165.756
172.595
177.752
181.412
183.888
185.466
186.448
187.032
187.382
187.588
187.71
187.776
187.817
187.834
187.844
187.846
187.856
187.857
187.865
187.843
187.834
187.792
187.76
187.663
187.608
187.502
187.427
187.253
187.153
186.981
186.877
186.678
186.594
186.45
186.393
186.178
186.084
185.925
185.972
185.973
186.053
185.921
185.866
185.664
185.647
185.564
185.611
185.479
185.497
185.441
185.547
185.42
185.423
185.138
185.058
185.007
185.122
185.124
185.237
185.375
185.643
185.928
186.213
0.68089
0.762685
0.883305
1.08819
1.86401
16.0139
54.8994
94.0533
122.289
141.724
156.004
167.125
175.992
182.878
188.005
191.597
194.001
195.516
196.449
196.999
197.328
197.52
197.634
197.695
197.733
197.749
197.758
197.758
197.768
197.77
197.779
197.754
197.744
197.7
197.667
197.563
197.506
197.395
197.317
197.133
197.03
196.848
196.742
196.53
196.446
196.295
196.24
196.012
195.917
195.749
195.806
195.809
195.897
195.753
195.697
195.48
195.467
195.38
195.436
195.292
195.316
195.255
195.374
195.236
195.244
194.936
194.857
194.806
194.934
194.935
195.058
195.207
195.493
195.793
196.093
0.750846
0.901253
1.1336
1.54731
2.84877
20.0598
61.9813
102.514
131.382
151.271
165.958
177.403
186.475
193.444
198.569
202.117
204.465
205.928
206.823
207.346
207.656
207.837
207.945
208.002
208.038
208.052
208.06
208.06
208.07
208.072
208.081
208.054
208.044
207.997
207.963
207.853
207.794
207.677
207.597
207.402
207.297
207.106
206.998
206.774
206.689
206.531
206.478
206.238
206.142
205.965
206.03
206.035
206.132
205.976
205.919
205.687
205.678
205.588
205.651
205.497
205.526
205.461
205.592
205.443
205.456
205.127
205.049
204.998
205.138
205.137
205.271
205.429
205.733
206.049
206.362
0.856044
1.11927
1.56789
2.4093
4.51976
24.5302