/*--------------------------------*- C++ -*----------------------------------*\
  =========                 |
  \\      /  F ield         | OpenFOAM: The Open Source CFD Toolbox
   \\    /   O peration     | Website:  https://openfoam.org
    \\  /    A nd           | Version:  7
     \\/     M anipulation  |
\*---------------------------------------------------------------------------*/
FoamFile
{
    version     2.0;
    format      ascii;
    class       volScalarField;
    location    "150";
    object      k;
}
// * * * * * * * * * * * * * * * * * * * * * * * * * * * * * * * * * * * * * //

dimensions      [0 2 -2 0 0 0 0];

internalField   nonuniform List<scalar> 
4500
(
2.10714
1.98995
1.89855
1.837
1.83024
2.09414
2.59894
3.07815
3.42707
3.68049
3.87713
4.03495
4.16031
4.2557
4.32429
4.37088
4.40094
4.41947
4.43047
4.43681
4.44034
4.44238
4.4435
4.44415
4.44452
4.44469
4.44476
4.44477
4.44479
4.44478
4.4448
4.4447
4.44449
4.44414
4.44374
4.44316
4.44241
4.4415
4.44057
4.43939
4.43805
4.4368
4.43552
4.434
4.43221
4.43066
4.4296
4.42883
4.42804
4.42697
4.42611
4.42602
4.42635
4.42644
4.42589
4.42463
4.42324
4.42271
4.42222
4.4222
4.4216
4.42117
4.42096
4.42127
4.42098
4.42062
4.41976
4.4191
4.41864
4.41881
4.41978
4.42178
4.42452
4.42729
4.42994
1.10353
1.67317
1.83832
1.85539
1.87579
2.26328
3.24725
4.29684
5.07025
5.61652
6.02503
6.34277
6.58913
6.77266
6.90225
6.98893
7.04433
7.07826
7.09834
7.10984
7.11627
7.11995
7.122
7.12321
7.12392
7.12423
7.12435
7.12435
7.12439
7.12433
7.12435
7.12414
7.12368
7.12284
7.12194
7.12064
7.11898
7.11685
7.11476
7.11212
7.10914
7.10626
7.10333
7.09979
7.09561
7.09195
7.08959
7.08805
7.0864
7.08391
7.0818
7.08139
7.08215
7.08253
7.08135
7.07839
7.07506
7.07364
7.07239
7.0724
7.0709
7.06982
7.06923
7.07016
7.0697
7.06932
7.06733
7.06548
7.06404
7.06431
7.06643
7.07093
7.07696
7.08313
7.08891
0.644925
1.23225
1.53559
1.63914
1.69486
2.27845
3.78883
5.23739
6.25198
6.95488
7.47659
7.8807
8.19336
8.42614
8.59069
8.70093
8.77154
8.81485
8.84053
8.85524
8.86349
8.86822
8.87086
8.87242
8.87333
8.87373
8.87388
8.87388
8.87394
8.87385
8.87388
8.8736
8.87301
8.8719
8.87073
8.86903
8.86688
8.8641
8.86139
8.85794
8.85408
8.85034
8.84652
8.84188
8.83642
8.83168
8.82866
8.8267
8.82455
8.82128
8.81853
8.81803
8.81905
8.81954
8.81798
8.81407
8.80971
8.80787
8.80624
8.8063
8.80429
8.80289
8.80212
8.80341
8.8028
8.80236
8.79969
8.79723
8.79532
8.7957
8.79847
8.80435
8.81218
8.82018
8.82765
0.463594
0.893403
1.25809
1.43598
1.53138
2.32565
4.25118
5.9791
7.16077
7.97308
8.57465
9.04033
9.40082
9.66964
9.86014
9.98811
10.0703
10.1208
10.1508
10.168
10.1777
10.1832
10.1863
10.1882
10.1892
10.1897
10.1899
10.1899
10.1899
10.1898
10.1899
10.1895
10.1889
10.1876
10.1862
10.1842
10.1817
10.1785
10.1753
10.1713
10.1668
10.1624
10.158
10.1526
10.1462
10.1407
10.1372
10.135
10.1325
10.1286
10.1254
10.1249
10.1261
10.1266
10.1248
10.1202
10.1151
10.113
10.1111
10.1112
10.1088
10.1072
10.1063
10.1079
10.1071
10.1066
10.1035
10.1006
10.0983
10.0988
10.102
10.1089
10.118
10.1273
10.136
0.394049
0.646734
0.998385
1.22934
1.36774
2.37532
4.63953
6.59214
7.91066
8.81338
9.48127
9.99852
10.3997
10.6997
10.9131
11.057
11.1498
11.2069
11.2409
11.2605
11.2715
11.2779
11.2814
11.2835
11.2847
11.2853
11.2855
11.2855
11.2855
11.2854
11.2855
11.2851
11.2843
11.2829
11.2814
11.2791
11.2764
11.2727
11.2692
11.2647
11.2597
11.2549
11.2499
11.2438
11.2367
11.2306
11.2267
11.2242
11.2214
11.2171
11.2136
11.213
11.2143
11.2149
11.2128
11.2077
11.202
11.1997
11.1976
11.1977
11.195
11.1932
11.1922
11.1939
11.1931
11.1926
11.189
11.1858
11.1832
11.1838
11.1874
11.195
11.2052
11.2155
11.2252
0.370598
0.488896
0.769107
1.02036
1.19928
2.40887
4.95813
7.10659
8.54759
9.53182
10.2596
10.8239
11.2628
11.5924
11.8282
11.9879
12.0912
12.1551
12.1934
12.2154
12.2279
12.235
12.239
12.2414
12.2428
12.2434
12.2436
12.2436
12.2437
12.2436
12.2436
12.2432
12.2424
12.2408
12.2392
12.2367
12.2337
12.2298
12.226
12.2211
12.2156
12.2103
12.2049
12.1983
12.1905
12.1839
12.1796
12.1769
12.1738
12.1691
12.1652
12.1646
12.166
12.1667
12.1644
12.1588
12.1526
12.15
12.1477
12.1479
12.1449
12.1429
12.1419
12.1438
12.1429
12.1423
12.1384
12.1348
12.132
12.1326
12.1365
12.1448
12.1558
12.1671
12.1776
0.364533
0.403104
0.586771
0.819373
1.02743
2.41471
5.20726
7.53452
9.0911
10.1528
10.9375
11.5467
12.0225
12.3819
12.6405
12.8168
12.9316
13.0029
13.0457
13.0704
13.0845
13.0926
13.0971
13.0998
13.1013
13.102
13.1023
13.1023
13.1024
13.1023
13.1024
13.1019
13.1011
13.0993
13.0976
13.095
13.0917
13.0875
13.0834
13.0781
13.0723
13.0666
13.0608
13.0536
13.0453
13.0382
13.0336
13.0307
13.0274
13.0223
13.0181
13.0173
13.0189
13.0196
13.0172
13.0111
13.0045
13.0017
12.9992
12.9993
12.9961
12.994
12.9929
12.9949
12.994
12.9934
12.9891
12.9852
12.9822
12.9829
12.987
12.9959
13.0076
13.0197
13.0309
0.364592
0.363342
0.460774
0.641908
0.858898
2.38571
5.38466
7.8796
9.549
10.6868
11.5274
12.1813
12.6943
13.0844
13.3674
13.5617
13.6889
13.7684
13.8164
13.8443
13.8602
13.8694
13.8745
13.8775
13.8793
13.8801
13.8804
13.8804
13.8806
13.8804
13.8805
13.88
13.8791
13.8773
13.8754
13.8727
13.8692
13.8647
13.8604
13.8548
13.8486
13.8425
13.8363
13.8288
13.8199
13.8123
13.8075
13.8043
13.8008
13.7954
13.7909
13.79
13.7916
13.7924
13.7898
13.7835
13.7764
13.7734
13.7707
13.7708
13.7674
13.7652
13.764
13.7661
13.7652
13.7645
13.76
13.7558
13.7526
13.7532
13.7575
13.7669
13.7793
13.792
13.8039
0.366677
0.347482
0.386518
0.502933
0.703809
2.31796
5.48674
8.14103
9.92308
11.1377
12.0345
12.7335
13.2847
13.7073
14.0165
14.2306
14.3719
14.4607
14.5147
14.5462
14.5643
14.5747
14.5805
14.5839
14.5859
14.5868
14.5872
14.5873
14.5874
14.5873
14.5873
14.5868
14.5859
14.584
14.5821
14.5792
14.5756
14.5708
14.5663
14.5604
14.5539
14.5475
14.541
14.533
14.5237
14.5156
14.5105
14.5072
14.5034
14.4977
14.4929
14.4919
14.4936
14.4944
14.4917
14.485
14.4776
14.4743
14.4715
14.4716
14.468
14.4656
14.4643
14.4666
14.4656
14.4649
14.4602
14.4557
14.4523
14.4529
14.4574
14.4671
14.48
14.4934
14.5059
0.369312
0.342582
0.348809
0.409062
0.572886
2.2105
5.50942
8.31549
10.2117
11.505
12.4594
13.2046
13.7957
14.2528
14.5905
14.8267
14.9837
15.0833
15.1441
15.1799
15.2005
15.2123
15.219
15.2229
15.2251
15.2262
15.2266
15.2268
15.2269
15.2268
15.2268
15.2263
15.2254
15.2234
15.2214
15.2184
15.2146
15.2097
15.205
15.1989
15.1921
15.1854
15.1785
15.1701
15.1604
15.152
15.1466
15.143
15.1391
15.1331
15.128
15.1269
15.1286
15.1294
15.1267
15.1197
15.112
15.1085
15.1055
15.1055
15.1018
15.0993
15.0979
15.1002
15.0992
15.0986
15.0936
15.0889
15.0852
15.0858
15.0904
15.1004
15.1137
15.1277
15.1407
0.371955
0.342446
0.332036
0.354648
0.473102
2.06514
5.44888
8.39814
10.4108
11.7861
12.8
13.593
14.2259
14.7199
15.0888
15.3495
15.5244
15.6362
15.705
15.7457
15.7692
15.7828
15.7905
15.795
15.7975
15.7988
15.7993
15.7994
15.7996
15.7995
15.7996
15.799
15.7981
15.7961
15.794
15.7909
15.787
15.7819
15.777
15.7707
15.7637
15.7567
15.7496
15.7409
15.7308
15.722
15.7163
15.7126
15.7084
15.7022
15.6968
15.6955
15.6972
15.6981
15.6953
15.6882
15.6802
15.6764
15.6733
15.6732
15.6694
15.6667
15.6652
15.6676
15.6667
15.666
15.6609
15.6559
15.6521
15.6525
15.6572
15.6673
15.681
15.6954
15.7088
0.374407
0.34431
0.325856
0.327038
0.404512
1.88636
5.30224
8.38336
10.5152
11.9762
13.0524
13.8953
14.572
15.1055
15.5085
15.7964
15.9916
16.1174
16.1954
16.2418
16.2688
16.2845
16.2934
16.2985
16.3014
16.3029
16.3035
16.3037
16.3039
16.3038
16.3038
16.3033
16.3024
16.3003
16.2982
16.295
16.2911
16.2859
16.2808
16.2743
16.2671
16.2599
16.2525
16.2436
16.2331
16.224
16.218
16.2141
16.2098
16.2034
16.1978
16.1963
16.1979
16.1988
16.196
16.1888
16.1805
16.1765
16.1732
16.173
16.1691
16.1663
16.1648
16.1671
16.1663
16.1656
16.1604
16.1552
16.1512
16.1515
16.1561
16.1664
16.1803
16.195
16.2088
0.376594
0.346936
0.324756
0.314673
0.361292
1.68121
5.06843
8.26532
10.5185
12.0697
13.2115
14.1066
14.8293
15.405
15.8451
16.1633
16.3813
16.5232
16.6117
16.6649
16.696
16.7141
16.7244
16.7303
16.7337
16.7354
16.7361
16.7364
16.7366
16.7365
16.7366
16.7361
16.7351
16.7331
16.7309
16.7277
16.7237
16.7184
16.7132
16.7066
16.6993
16.6918
16.6842
16.6751
16.6644
16.655
16.6488
16.6446
16.6401
16.6335
16.6277
16.626
16.6275
16.6284
16.6257
16.6184
16.61
16.6057
16.6023
16.6019
16.598
16.5951
16.5934
16.5957
16.5949
16.5944
16.5891
16.5837
16.5795
16.5797
16.5843
16.5945
16.6085
16.6235
16.6375
0.378493
0.349749
0.326027
0.310205
0.33566
1.45916
4.74906
8.03872
10.4137
12.06
13.2712
14.2211
14.9922
15.6127
16.0932
16.4449
16.6887
16.8488
16.9496
17.0106
17.0466
17.0675
17.0795
17.0863
17.0902
17.0922
17.0931
17.0935
17.0938
17.0937
17.0938
17.0933
17.0923
17.0903
17.0881
17.0849
17.0809
17.0755
17.0702
17.0636
17.0561
17.0485
17.0408
17.0314
17.0206
17.0109
17.0044
17.0001
16.9955
16.9887
16.9827
16.9807
16.9821
16.983
16.9803
16.9732
16.9646
16.9601
16.9565
16.956
16.952
16.949
16.9473
16.9494
16.9488
16.9482
16.943
16.9375
16.9331
16.9331
16.9375
16.9476
16.9616
16.9767
16.991
0.380103
0.352469
0.328344
0.30968
0.321031
1.23177
4.34951
7.69959
10.1939
11.9401
13.225
14.2326
15.0544
15.7226
16.2466
16.6355
16.9082
17.0892
17.2041
17.2742
17.3158
17.3402
17.3541
17.362
17.3666
17.3689
17.37
17.3705
17.3708
17.3707
17.3708
17.3704
17.3694
17.3674
17.3653
17.3621
17.358
17.3527
17.3474
17.3407
17.3332
17.3255
17.3176
17.3082
17.2972
17.2873
17.2806
17.2761
17.2713
17.2645
17.2583
17.256
17.2572
17.2582
17.2556
17.2485
17.2399
17.2351
17.2314
17.2307
17.2268
17.2237
17.2218
17.2239
17.2233
17.2229
17.2177
17.2121
17.2075
17.2074
17.2116
17.2215
17.2353
17.2504
17.2647
0.381432
0.354953
0.331031
0.31107
0.312956
1.01198
3.88001
7.24633
9.85283
11.7028
13.0659
14.1344
15.0094
15.728
16.2992
16.7289
17.034
17.2388
17.3701
17.4508
17.499
17.5273
17.5435
17.5528
17.5581
17.5609
17.5623
17.5629
17.5632
17.5632
17.5633
17.5629
17.562
17.56
17.5578
17.5547
17.5507
17.5454
17.5401
17.5334
17.5259
17.5182
17.5102
17.5008
17.4898
17.4798
17.4728
17.4681
17.4632
17.4564
17.45
17.4475
17.4484
17.4493
17.4469
17.44
17.4315
17.4264
17.4226
17.4217
17.4178
17.4146
17.4127
17.4146
17.4141
17.4137
17.4087
17.403
17.3984
17.398
17.402
17.4115
17.425
17.4401
17.4543
0.382495
0.357126
0.33373
0.313323
0.30875
0.812787
3.35665
6.6811
9.38534
11.3412
12.7871
13.92
14.8508
15.6225
16.2444
16.7192
17.0607
17.2925
17.4426
17.5356
17.5916
17.6246
17.6436
17.6545
17.6607
17.664
17.6657
17.6664
17.6668
17.6668
17.667
17.6666
17.6657
17.6638
17.6617
17.6587
17.6547
17.6495
17.6442
17.6377
17.6302
17.6225
17.6145
17.6051
17.5941
17.5841
17.5769
17.572
17.567
17.5602
17.5538
17.5509
17.5515
17.5524
17.5501
17.5435
17.5351
17.5299
17.5259
17.5248
17.521
17.5178
17.5157
17.5174
17.5171
17.5168
17.512
17.5063
17.5016
17.501
17.5046
17.5137
17.5268
17.5416
17.5557
0.383317
0.358954
0.336236
0.315868
0.306857
0.645252
2.80189
6.01146
8.78876
10.8492
12.382
13.583
14.5722
15.4001
16.0766
16.6009
16.9832
17.2459
17.4176
17.525
17.5901
17.6286
17.651
17.6638
17.6711
17.675
17.677
17.6779
17.6784
17.6785
17.6786
17.6783
17.6775
17.6757
17.6736
17.6707
17.6669
17.6618
17.6566
17.6501
17.6428
17.6351
17.6272
17.6179
17.6071
17.597
17.5897
17.5846
17.5796
17.5728
17.5663
17.5631
17.5635
17.5642
17.5621
17.5559
17.5477
17.5423
17.5383
17.5369
17.5332
17.5299
17.5278
17.5293
17.5291
17.5288
17.5243
17.5187
17.514
17.5131
17.5163
17.5249
17.5375
17.5519
17.5657
0.383925
0.360429
0.338436
0.318378
0.306361
0.516132
2.24424
5.25229
8.06429
10.2225
11.845
13.1176
14.1682
15.0552
15.7904
16.3693
16.7976
17.0955
17.2921
17.4163
17.4921
17.5373
17.5635
17.5786
17.5872
17.5919
17.5943
17.5954
17.5961
17.5962
17.5964
17.5961
17.5953
17.5936
17.5917
17.5889
17.5852
17.5803
17.5752
17.569
17.5618
17.5543
17.5465
17.5373
17.5268
17.5168
17.5093
17.5041
17.499
17.4923
17.4858
17.4824
17.4823
17.483
17.481
17.4752
17.4674
17.4619
17.4578
17.4562
17.4526
17.4493
17.4471
17.4483
17.4482
17.448
17.4438
17.4384
17.4337
17.4325
17.4354
17.4433
17.4552
17.4691
17.4825
0.384356
0.361567
0.34027
0.320661
0.306691
0.425867
1.71649
4.4277
7.21895
9.45956
11.1715
12.519
13.6339
14.5834
15.382
16.0212
16.5013
16.8396
17.0652
17.2089
17.2973
17.3503
17.3812
17.3991
17.4092
17.4148
17.4177
17.4191
17.4199
17.4201
17.4203
17.42
17.4194
17.4178
17.416
17.4133
17.4098
17.4052
17.4002
17.3943
17.3874
17.38
17.3724
17.3635
17.3532
17.3434
17.3359
17.3305
17.3253
17.3188
17.3123
17.3087
17.3083
17.3087
17.307
17.3017
17.2942
17.2887
17.2845
17.2827
17.2792
17.276
17.2737
17.2746
17.2746
17.2744
17.2707
17.2655
17.2608
17.2594
17.2618
17.269
17.2802
17.2934
17.3062
0.384644
0.3624
0.341721
0.322609
0.307465
0.368561
1.25187
3.57252
6.26808
8.5632
10.3598
11.7837
12.9658
13.9816
14.8489
15.5553
16.0942
16.4788
16.738
16.9046
17.0078
17.07
17.1065
17.1276
17.1396
17.1463
17.1498
17.1516
17.1525
17.1528
17.153
17.1529
17.1523
17.1509
17.1492
17.1467
17.1434
17.139
17.1343
17.1286
17.122
17.1149
17.1075
17.099
17.0891
17.0795
17.072
17.0665
17.0613
17.055
17.0486
17.0447
17.0439
17.0442
17.0426
17.0378
17.0309
17.0254
17.0212
17.0191
17.0158
17.0126
17.0103
17.0109
17.0109
17.0108
17.0075
17.0026
16.9981
16.9965
16.9984
17.0048
17.0151
17.0275
17.0397
0.384826
0.362976
0.342805
0.324172
0.308412
0.334933
0.878283
2.73238
5.23826
7.54312
9.41121
10.9107
12.1623
13.2485
14.1911
14.9729
15.5788
16.0169
16.3151
16.5084
16.629
16.702
16.7452
16.7702
16.7844
16.7923
16.7966
16.7988
16.7999
16.8003
16.8006
16.8005
16.8
16.7988
16.7972
16.7949
16.7919
16.7878
16.7833
16.778
16.7717
16.765
16.7578
16.7497
16.7403
16.731
16.7236
16.718
16.7128
16.7067
16.7005
16.6964
16.6952
16.6952
16.6938
16.6895
16.6832
16.6779
16.6736
16.6714
16.6682
16.6651
16.6628
16.6631
16.6631
16.6631
16.6601
16.6556
16.6513
16.6495
16.651
16.6566
16.6659
16.6774
16.6889
0.384934
0.363349
0.343565
0.325348
0.309344
0.316275
0.610917
1.96113
4.17026
6.41891
8.3332
9.90205
11.2241
12.3856
13.4116
14.2787
14.9616
15.4614
15.8049
16.0293
16.1702
16.256
16.3069
16.3365
16.3534
16.3628
16.3679
16.3706
16.372
16.3726
16.3729
16.3729
16.3725
16.3714
16.37
16.3679
16.3651
16.3614
16.3572
16.3522
16.3464
16.34
16.3332
16.3255
16.3166
16.3078
16.3005
16.2948
16.2896
16.2837
16.2778
16.2736
16.272
16.2718
16.2705
16.2667
16.261
16.2559
16.2517
16.2493
16.2463
16.2433
16.2411
16.2411
16.241
16.241
16.2384
16.2344
16.2303
16.2283
16.2294
16.2341
16.2424
16.253
16.2636
0.384994
0.363574
0.344061
0.326174
0.310142
0.3064
0.445403
1.31365
3.12074
5.22401
7.14169
8.76501
10.1559
11.398
12.5178
13.4828
14.2544
14.8254
15.2211
15.4813
15.6457
15.7462
15.8062
15.8411
15.8611
15.8724
15.8785
15.8817
15.8834
15.8842
15.8846
15.8846
15.8843
15.8834
15.8821
15.8803
15.8777
15.8743
15.8705
15.8659
15.8605
15.8545
15.8481
15.8409
15.8326
15.8243
15.8171
15.8115
15.8063
15.8007
15.7949
15.7907
15.7888
15.7883
15.7871
15.7838
15.7787
15.7739
15.7699
15.7674
15.7644
15.7616
15.7594
15.7592
15.7591
15.759
15.7568
15.7532
15.7494
15.7474
15.748
15.752
15.7592
15.7687
15.7784
0.385024
0.363699
0.344362
0.326711
0.31075
0.301467
0.357486
0.832488
2.16081
4.0099
5.86543
7.51499
8.96833
10.2974
11.5243
12.6026
13.4762
14.1286
14.5836
14.8845
15.0754
15.1928
15.2629
15.304
15.3276
15.3408
15.3481
15.352
15.354
15.355
15.3555
15.3556
15.3553
15.3546
15.3535
15.3519
15.3496
15.3466
15.343
15.3388
15.3339
15.3283
15.3224
15.3156
15.308
15.3002
15.2933
15.2877
15.2826
15.2772
15.2717
15.2675
15.2653
15.2645
15.2633
15.2605
15.2561
15.2516
15.2478
15.2452
15.2424
15.2397
15.2376
15.2371
15.2369
15.2368
15.2349
15.2318
15.2283
15.2263
15.2265
15.2297
15.2359
15.2444
15.2531
0.385038
0.363763
0.344528
0.327033
0.311166
0.299192
0.31596
0.530189
1.36731
2.84912
4.55144
6.18046
7.68272
9.10613
10.4574
11.6664
12.656
13.3994
13.9201
14.2658
14.4859
14.6217
14.7031
14.7509
14.7784
14.7939
14.8024
14.807
14.8094
14.8106
14.8112
14.8114
14.8113
14.8107
14.8097
14.8083
14.8063
14.8036
14.8004
14.7966
14.792
14.7869
14.7814
14.7752
14.7681
14.7609
14.7543
14.7488
14.7438
14.7386
14.7334
14.7292
14.7268
14.7257
14.7246
14.7221
14.7183
14.7143
14.7107
14.708
14.7054
14.7029
14.7009
14.7002
14.6999
14.6997
14.698
14.6953
14.6922
14.6902
14.6901
14.6926
14.6978
14.7053
14.7131
0.385044
0.363792
0.344612
0.327207
0.31142
0.298247
0.297681
0.3762
0.802091
1.83307
3.27104
4.81051
6.33929
7.86631
9.3621
10.7194
11.8363
12.6772
13.2674
13.66
13.9107
14.0657
14.1589
14.2138
14.2453
14.2632
14.2731
14.2784
14.2812
14.2826
14.2833
14.2836
14.2836
14.2831
14.2823
14.2811
14.2793
14.2769
14.274
14.2705
14.2664
14.2617
14.2565
14.2508
14.2444
14.2377
14.2315
14.226
14.2211
14.2161
14.2112
14.2071
14.2046
14.2032
14.202
14.1999
14.1966
14.193
14.1897
14.1871
14.1846
14.1822
14.1803
14.1795
14.179
14.1787
14.1772
14.1748
14.172
14.1701
14.1698
14.1717
14.1761
14.1827
14.1896
0.385047
0.363805
0.34465
0.327293
0.311557
0.297903
0.290109
0.311442
0.478332
1.0573
2.12446
3.48794
5.01483
6.65628
8.31417
9.82957
11.0764
12.0143
12.6724
13.1106
13.3908
13.5643
13.669
13.7307
13.7662
13.7864
13.7975
13.8036
13.8068
13.8084
13.8093
13.8096
13.8096
13.8093
13.8086
13.8075
13.8059
13.8038
13.8012
13.798
13.7942
13.7898
13.785
13.7797
13.7738
13.7676
13.7618
13.7565
13.7516
13.7467
13.742
13.7381
13.7355
13.734
13.7327
13.7308
13.7279
13.7247
13.7217
13.7191
13.7168
13.7146
13.7128
13.7118
13.7113
13.7107
13.7093
13.7071
13.7047
13.703
13.7025
13.704
13.7076
13.7134
13.7196
0.385047
0.363809
0.344665
0.32733
0.311622
0.297795
0.287228
0.287355
0.337694
0.583486
1.2399
2.35495
3.85603
5.61487
7.43249
9.09396
10.4557
11.4773
12.1935
12.6703
12.9755
13.1648
13.2791
13.3466
13.3855
13.4076
13.4199
13.4266
13.4301
13.4319
13.4329
13.4333
13.4334
13.4331
13.4325
13.4315
13.4301
13.4281
13.4257
13.4227
13.4192
13.4151
13.4106
13.4056
13.4001
13.3943
13.3888
13.3836
13.3787
13.374
13.3695
13.3657
13.3631
13.3614
13.36
13.3582
13.3557
13.3528
13.3501
13.3476
13.3454
13.3433
13.3417
13.3406
13.3399
13.3392
13.3377
13.3357
13.3335
13.3319
13.3314
13.3325
13.3356
13.3408
13.3465
0.385048
0.363811
0.34467
0.327343
0.311646
0.297766
0.286308
0.279686
0.292155
0.386668
0.753574
1.64676
3.1149
4.95715
6.88406
8.64118
10.0763
11.1507
11.9032
12.4043
12.7252
12.9243
13.0447
13.1158
13.1569
13.1802
13.1932
13.2002
13.204
13.206
13.207
13.2074
13.2075
13.2073
13.2067
13.2058
13.2044
13.2025
13.2002
13.1973
13.1939
13.19
13.1856
13.1808
13.1756
13.1702
13.1649
13.1597
13.1549
13.1501
13.1458
13.1421
13.1396
13.1378
13.1363
13.1345
13.1322
13.1296
13.127
13.1246
13.1225
13.1206
13.1191
13.118
13.1171
13.116
13.1144
13.1124
13.1104
13.109
13.1085
13.1094
13.1123
13.1171
13.1225
0.385048
0.363811
0.34467
0.327343
0.311646
0.297772
0.286351
0.279876
0.292868
0.38881
0.756639
1.64637
3.10853
4.9458
6.87062
8.62773
10.0637
11.139
11.8923
12.3939
12.7152
12.9146
13.0351
13.1063
13.1475
13.1708
13.1838
13.1908
13.1946
13.1966
13.1976
13.1981
13.1981
13.1979
13.1973
13.1964
13.195
13.1931
13.1907
13.1878
13.1844
13.1804
13.176
13.1712
13.1661
13.1608
13.1556
13.1504
13.1455
13.1406
13.1364
13.1329
13.1304
13.1286
13.127
13.1251
13.1228
13.1203
13.1179
13.1156
13.1136
13.1117
13.1103
13.1091
13.1081
13.1066
13.1047
13.1025
13.1007
13.0994
13.0991
13.1001
13.1029
13.1078
13.1132
0.385047
0.363809
0.344665
0.32733
0.311622
0.297819
0.287421
0.288243
0.341086
0.591922
1.24816
2.35149
3.83595
5.58197
7.39425
9.05577
10.4198
11.444
12.1622
12.6406
12.9468
13.1367
13.2515
13.3192
13.3583
13.3804
13.3927
13.3994
13.403
13.4049
13.4059
13.4063
13.4063
13.406
13.4054
13.4043
13.4028
13.4008
13.3983
13.3952
13.3915
13.3873
13.3828
13.3778
13.3727
13.3674
13.3622
13.3568
13.3516
13.3465
13.3424
13.339
13.3368
13.3348
13.3331
13.3309
13.3286
13.326
13.3238
13.3214
13.3195
13.3176
13.3164
13.3151
13.314
13.3119
13.3096
13.3072
13.3055
13.3044
13.3043
13.3055
13.3086
13.3138
13.3196
0.385047
0.363805
0.34465
0.327292
0.311559
0.297974
0.290689
0.314242
0.488276
1.07412
2.134
3.47707
4.9807
6.60516
8.25589
9.7713
11.0213
11.9628
12.6239
13.0642
13.3459
13.5204
13.6256
13.6877
13.7234
13.7437
13.7549
13.761
13.7642
13.7659
13.7668
13.7672
13.7672
13.7668
13.7661
13.7648
13.7631
13.7608
13.7582
13.7547
13.7508
13.7462
13.7414
13.7361
13.7308
13.7253
13.7201
13.7144
13.7089
13.7035
13.6994
13.6962
13.6942
13.6922
13.6904
13.6878
13.6853
13.6826
13.6805
13.678
13.6761
13.6742
13.6732
13.6718
13.6705
13.6678
13.6649
13.6622
13.6607
13.6598
13.66
13.6615
13.6652
13.671
13.6775
0.385044
0.363792
0.344612
0.327206
0.311426
0.298436
0.299238
0.38402
0.823562
1.85685
3.27697
4.78903
6.29148
7.8003
9.28831
10.6456
11.766
12.611
13.2046
13.5997
13.8521
14.0081
14.1021
14.1574
14.1892
14.2071
14.2171
14.2224
14.2253
14.2269
14.2277
14.2279
14.2279
14.2274
14.2265
14.225
14.2231
14.2205
14.2176
14.2137
14.2094
14.2044
14.1993
14.1935
14.188
14.1823
14.1769
14.1707
14.165
14.1593
14.1552
14.1522
14.1505
14.1484
14.1464
14.1433
14.1407
14.1378
14.1358
14.1332
14.1312
14.1293
14.1286
14.127
14.1254
14.122
14.1186
14.1157
14.1144
14.1137
14.1142
14.1161
14.1205
14.1272
14.1345
0.385038
0.363763
0.344528
0.327031
0.311183
0.299651
0.31986
0.54873
1.40235
2.87554
4.54963
6.14701
7.62243
9.02828
10.3721
11.5811
12.5743
13.3218
13.846
14.1942
14.4161
14.553
14.6353
14.6835
14.7112
14.7268
14.7354
14.74
14.7425
14.7438
14.7446
14.7447
14.7446
14.7439
14.743
14.7411
14.739
14.7361
14.7329
14.7284
14.7238
14.7182
14.7128
14.7065
14.7008
14.6947
14.6892
14.6825
14.6764
14.6704
14.6665
14.6636
14.6623
14.6601
14.6578
14.6542
14.6514
14.6483
14.6464
14.6435
14.6417
14.6397
14.6392
14.6374
14.6357
14.6314
14.6275
14.6242
14.6233
14.6227
14.6237
14.6261
14.6313
14.6389
14.6473
0.385024
0.363699
0.344361
0.32671
0.310795
0.3025
0.366676
0.867694
2.20729
4.03395
5.85337
7.46954
8.89729
10.2104
11.4307
12.509
13.3862
14.0424
14.5008
14.8041
14.9969
15.1154
15.1863
15.2278
15.2516
15.2649
15.2722
15.2762
15.2783
15.2794
15.2801
15.2801
15.2799
15.2791
15.278
15.2758
15.2734
15.2701
15.2666
15.2616
15.2566
15.2505
15.2447
15.2379
15.2319
15.2255
15.2199
15.2126
15.2062
15.1997
15.1961
15.1934
15.1926
15.1901
15.1876
15.1834
15.1804
15.1771
15.1753
15.1722
15.1704
15.1683
15.1682
15.166
15.1643
15.159
15.1545
15.1511
15.1505
15.1502
15.1516
15.1545
15.1607
15.1694
15.1788
0.384994
0.363574
0.344061
0.326173
0.310242
0.308577
0.465146
1.3683
3.1739
5.24156
7.11847
8.70858
10.0761
11.3041
12.4184
13.3838
14.1587
14.7333
15.1321
15.3946
15.5606
15.6623
15.723
15.7583
15.7785
15.7898
15.7959
15.7992
15.8011
15.802
15.8026
15.8025
15.8022
15.8012
15.8
15.7974
15.7948
15.7911
15.7874
15.7818
15.7764
15.7697
15.7636
15.7561
15.75
15.7432
15.7376
15.7297
15.723
15.7161
15.7128
15.7104
15.71
15.7072
15.7045
15.6995
15.6965
15.6929
15.6914
15.6879
15.6862
15.684
15.6843
15.6818
15.68
15.6737
15.6687
15.6651
15.665
15.6649
15.6668
15.6703
15.6774
15.6873
15.6978
0.384934
0.363349
0.343564
0.325349
0.309548
0.320636
0.647726
2.03405
4.22466
6.42739
8.29916
9.83639
11.1375
12.2869
13.3085
14.1764
14.8624
15.3654
15.7117
15.9381
16.0805
16.1674
16.219
16.2489
16.266
16.2755
16.2806
16.2833
16.2849
16.2857
16.2862
16.286
16.2857
16.2845
16.2831
16.2802
16.2773
16.2733
16.2693
16.2631
16.2574
16.2502
16.2438
16.2357
16.2294
16.2223
16.2166
16.2081
16.2012
16.1939
16.191
16.1889
16.189
16.1858
16.1829
16.1772
16.1741
16.1703
16.1691
16.1652
16.1636
16.1613
16.1622
16.1592
16.1573
16.1499
16.1446
16.1408
16.1414
16.1414
16.1438
16.1478
16.156
16.167
16.1786
0.384826
0.362976
0.342804
0.324175
0.308794
0.343342
0.937191
2.81942
5.28926
7.54143
9.36742
10.8377
12.0707
13.1467
14.086
14.8688
15.4778
15.9187
16.2194
16.4144
16.5364
16.6104
16.6542
16.6795
16.6939
16.7018
16.7061
16.7083
16.7097
16.7103
16.7108
16.7105
16.7101
16.7087
16.7073
16.7039
16.7009
16.6965
16.6923
16.6855
16.6795
16.6718
16.6652
16.6565
16.6502
16.6427
16.6371
16.6279
16.6209
16.6132
16.6108
16.6089
16.6096
16.6059
16.6029
16.5964
16.5933
16.5893
16.5885
16.5841
16.5827
16.5803
16.5817
16.5782
16.5764
16.5678
16.5622
16.5584
16.5596
16.5598
16.5626
16.5673
16.5766
16.5886
16.6012
0.384644
0.362401
0.341721
0.322616
0.308132
0.384103
1.33485
3.66825
6.31234
8.55137
10.3077
11.7051
12.871
13.8781
14.7431
15.4507
15.9926
16.3797
16.6411
16.8092
16.9137
16.9767
17.0139
17.0352
17.0473
17.0539
17.0575
17.0593
17.0605
17.061
17.0615
17.061
17.0606
17.0591
17.0575
17.0538
17.0506
17.0459
17.0415
17.0341
17.028
17.0197
17.013
17.0038
16.9975
16.9897
16.9842
16.9744
16.9673
16.9592
16.9574
16.9558
16.957
16.9528
16.9497
16.9424
16.9394
16.9352
16.9348
16.9299
16.9288
16.9262
16.9282
16.9243
16.9226
16.9127
16.907
16.9031
16.9051
16.9054
16.9087
16.9139
16.9242
16.9372
16.9507
0.384356
0.361568
0.34027
0.320674
0.307793
0.452845
1.82244
4.52669
7.25457
9.43837
11.1128
12.4362
13.5371
14.4795
15.2765
15.9171
16.4001
16.7405
16.9681
17.1131
17.2027
17.2564
17.288
17.306
17.3162
17.3217
17.3247
17.3261
17.3272
17.3276
17.3281
17.3274
17.327
17.3253
17.3237
17.3196
17.3164
17.3113
17.3068
17.2989
17.2927
17.2839
17.2772
17.2674
17.2611
17.2532
17.2478
17.2374
17.2304
17.222
17.2207
17.2193
17.2211
17.2163
17.2132
17.2051
17.2024
17.1979
17.198
17.1926
17.1918
17.189
17.1917
17.1871
17.1857
17.1746
17.1689
17.165
17.1678
17.168
17.1719
17.1775
17.1888
17.2027
17.2169
0.383926
0.360431
0.338437
0.318397
0.308094
0.559124
2.36974
5.34997
8.09054
10.1932
11.7811
13.0322
14.0707
14.9517
15.686
16.2665
16.6974
16.9973
17.1956
17.321
17.3978
17.4437
17.4705
17.4857
17.4943
17.4989
17.5014
17.5026
17.5035
17.5039
17.5044
17.5036
17.5031
17.5013
17.4996
17.4952
17.4919
17.4866
17.482
17.4736
17.4673
17.4582
17.4515
17.4412
17.4351
17.4269
17.4218
17.4109
17.4039
17.3952
17.3947
17.3935
17.3958
17.3904
17.3872
17.3784
17.376
17.3714
17.3719
17.366
17.3655
17.3626
17.3659
17.3608
17.3595
17.3474
17.3417
17.338
17.3414
17.3417
17.346
17.3521
17.3643
17.3788
17.3937
0.383318
0.358957
0.336238
0.315895
0.309477
0.707694
2.94213
6.10445
8.80576
10.813
12.3145
13.4962
14.475
15.2978
15.9739
16.4999
16.8848
17.1491
17.3223
17.4307
17.4968
17.536
17.5588
17.5717
17.579
17.5828
17.5849
17.5858
17.5867
17.587
17.5875
17.5866
17.5861
17.5841
17.5824
17.5777
17.5744
17.5688
17.5643
17.5554
17.5492
17.5398
17.5331
17.5224
17.5165
17.5082
17.5033
17.4919
17.4852
17.4762
17.4763
17.4753
17.478
17.4722
17.469
17.4596
17.4574
17.4527
17.4536
17.4473
17.4471
17.4441
17.448
17.4424
17.4414
17.4282
17.4227
17.419
17.4232
17.4234
17.4282
17.4347
17.4476
17.4627
17.4781
0.382497
0.35713
0.333731
0.313358
0.312589
0.896106
3.50645
6.76722
9.39378
11.2996
12.7171
13.8328
14.7545
15.5221
16.144
16.6205
16.9644
17.1976
17.3489
17.4428
17.4997
17.5333
17.5528
17.5637
17.57
17.5732
17.5749
17.5756
17.5764
17.5766
17.5771
17.5761
17.5757
17.5736
17.5718
17.5669
17.5636
17.5579
17.5534
17.5442
17.538
17.5283
17.5218
17.5108
17.5051
17.4966
17.4921
17.4803
17.4738
17.4647
17.4653
17.4645
17.4677
17.4614
17.4582
17.4482
17.4464
17.4416
17.443
17.4362
17.4364
17.4332
17.4377
17.4316
17.4309
17.4168
17.4115
17.408
17.4127
17.4129
17.4181
17.4249
17.4385
17.4541
17.4698
0.381434
0.354957
0.331032
0.311111
0.318445
1.11553
4.03451
7.32444
9.85371
11.657
12.9945
14.0477
14.9148
15.6298
16.2013
16.6327
16.9401
17.146
17.2784
17.3598
17.4089
17.4377
17.4544
17.4637
17.469
17.4717
17.4731
17.4737
17.4744
17.4746
17.4751
17.4741
17.4736
17.4714
17.4696
17.4645
17.4613
17.4554
17.451
17.4415
17.4355
17.4256
17.4192
17.408
17.4026
17.3941
17.3899
17.3778
17.3715
17.3623
17.3636
17.3628
17.3665
17.3597
17.3566
17.3461
17.3446
17.3398
17.3416
17.3345
17.3349
17.3317
17.3367
17.3301
17.3297
17.3149
17.3099
17.3065
17.3118
17.3119
17.3174
17.3245
17.3386
17.3544
17.3704
0.380106
0.352474
0.328343
0.309723
0.328713
1.3532
4.50458
7.76932
10.1884
11.8913
13.153
14.1469
14.9618
15.6269
16.1516
16.542
16.8168
16.9988
17.1147
17.1854
17.2278
17.2526
17.267
17.2749
17.2794
17.2816
17.2829
17.2833
17.284
17.2841
17.2846
17.2835
17.283
17.2808
17.279
17.2738
17.2706
17.2647
17.2603
17.2506
17.2448
17.2349
17.2287
17.2173
17.2122
17.2036
17.1998
17.1875
17.1816
17.1722
17.174
17.1734
17.1774
17.1702
17.1673
17.1564
17.1553
17.1504
17.1526
17.1451
17.1459
17.1426
17.1481
17.1411
17.141
17.1256
17.1209
17.1176
17.1235
17.1234
17.1293
17.1366
17.151
17.167
17.183
0.378497
0.349754
0.326022
0.310244
0.346161
1.59496
4.90147
8.10027
10.4028
12.0092
13.1994
14.1369
14.902
15.5199
16.001
16.3543
16.6
16.761
16.8626
16.9241
16.9608
16.9822
16.9945
17.0013
17.0052
17.0071
17.0081
17.0084
17.0091
17.0092
17.0097
17.0085
17.008
17.0057
17.004
16.9987
16.9956
16.9897
16.9854
16.9756
16.97
16.9601
16.9541
16.9427
16.9378
16.9294
16.9258
16.9134
16.9078
16.8985
16.9008
16.9003
16.9045
16.8971
16.8943
16.8831
16.8823
16.8774
16.8799
16.8723
16.8733
16.8699
16.8758
16.8685
16.8688
16.8529
16.8485
16.8454
16.8516
16.8515
16.8576
16.865
16.8797
16.8957
16.9116
0.376597
0.34694
0.324743
0.314691
0.375167
1.82721
5.21582
8.31922
10.5034
12.0178
13.1405
14.0244
14.7418
15.3152
15.756
16.0756
16.2955
16.438
16.5272
16.5808
16.6127
16.6311
16.6418
16.6476
16.651
16.6525
16.6534
16.6536
16.6542
16.6543
16.6548
16.6536
16.6531
16.6508
16.6492
16.6438
16.6408
16.6349
16.6308
16.621
16.6155
16.6057
16.6
16.5886
16.584
16.5757
16.5725
16.5601
16.5549
16.5456
16.5483
16.5479
16.5523
16.5446
16.542
16.5307
16.5302
16.5253
16.5281
16.5203
16.5216
16.5182
16.5243
16.5168
16.5174
16.5012
16.4972
16.4942
16.5007
16.5005
16.5068
16.5143
16.529
16.5449
16.5607
0.374411
0.344312
0.325829
0.327003
0.421901
2.03817
5.44301
8.43036
10.497
11.9239
12.9827
13.8154
14.4874
15.0189
15.4226
15.7118
15.9086
16.035
16.1135
16.1603
16.188
16.204
16.2132
16.2182
16.2212
16.2225
16.2232
16.2234
16.2239
16.224
16.2245
16.2232
16.2228
16.2205
16.2189
16.2135
16.2107
16.2048
16.2009
16.1912
16.186
16.1763
16.1708
16.1595
16.1553
16.1471
16.1442
16.132
16.127
16.1179
16.1209
16.1206
16.1251
16.1174
16.1148
16.1035
16.1033
16.0985
16.1015
16.0937
16.0951
16.0917
16.0981
16.0905
16.0912
16.075
16.0713
16.0685
16.0752
16.0749
16.0813
16.0887
16.1034
16.119
16.1345
0.371959
0.342442
0.331981
0.3545
0.493309