/*--------------------------------*- C++ -*----------------------------------*\
  =========                 |
  \\      /  F ield         | OpenFOAM: The Open Source CFD Toolbox
   \\    /   O peration     | Website:  https://openfoam.org
    \\  /    A nd           | Version:  7
     \\/     M anipulation  |
\*---------------------------------------------------------------------------*/
FoamFile
{
    version     2.0;
    format      ascii;
    class       volScalarField;
    location    "150";
    object      nut;
}
// * * * * * * * * * * * * * * * * * * * * * * * * * * * * * * * * * * * * * //

dimensions      [0 2 -1 0 0 0 0];

internalField   nonuniform List<scalar> 
4500
(
0.000506068
0.000491793
0.000480352
0.000472415
0.000469103
0.000495224
0.00054945
0.000599652
0.000634514
0.000658716
0.00067689
0.000691211
0.000702512
0.000711129
0.000717367
0.00072164
0.000724422
0.000726153
0.000727189
0.000727791
0.00072813
0.000728324
0.000728432
0.000728494
0.000728529
0.000728546
0.000728553
0.000728554
0.000728556
0.000728556
0.000728557
0.00072855
0.000728534
0.000728506
0.000728474
0.000728428
0.000728369
0.000728296
0.000728221
0.000728127
0.000728019
0.000727918
0.000727814
0.000727691
0.000727548
0.00072742
0.000727331
0.000727267
0.000727202
0.000727116
0.000727043
0.000727032
0.000727056
0.000727064
0.000727023
0.000726924
0.000726812
0.000726765
0.000726724
0.000726719
0.000726673
0.000726636
0.000726619
0.000726641
0.00072662
0.000726592
0.000726525
0.000726469
0.00072643
0.00072644
0.000726515
0.00072667
0.000726886
0.000727109
0.000727323
0.000607309
0.000974336
0.00114382
0.00121002
0.00124987
0.0015884
0.00260135
0.00354003
0.00413289
0.00451023
0.00477211
0.00496521
0.00511001
0.00521583
0.00529001
0.00533958
0.00537142
0.00539104
0.00540276
0.0054095
0.00541331
0.00541549
0.00541672
0.00541745
0.00541788
0.00541808
0.00541814
0.00541815
0.00541816
0.0054181
0.00541812
0.00541799
0.00541771
0.00541717
0.00541664
0.00541586
0.00541483
0.0054135
0.00541224
0.00541064
0.00540881
0.00540703
0.00540521
0.00540296
0.00540027
0.00539793
0.00539651
0.0053957
0.00539474
0.00539313
0.00539168
0.0053913
0.0053918
0.00539215
0.00539146
0.00538956
0.00538736
0.00538636
0.00538552
0.00538558
0.00538454
0.00538379
0.00538335
0.0053841
0.00538393
0.00538399
0.00538268
0.00538131
0.0053802
0.00538034
0.00538161
0.00538436
0.00538796
0.00539168
0.0053951
0.000713382
0.00121516
0.00157796
0.00177594
0.00190763
0.00301136
0.0061156
0.00860048
0.0100542
0.0109623
0.0115956
0.0120677
0.012427
0.0126942
0.012885
0.0130147
0.0130991
0.0131517
0.0131833
0.0132017
0.0132121
0.0132181
0.0132214
0.0132234
0.0132245
0.0132251
0.0132252
0.0132253
0.0132253
0.0132252
0.0132253
0.0132249
0.0132243
0.0132231
0.0132218
0.01322
0.0132177
0.0132145
0.0132117
0.0132079
0.0132037
0.0131995
0.0131953
0.01319
0.0131837
0.0131783
0.0131751
0.0131732
0.0131709
0.0131671
0.0131637
0.0131628
0.0131641
0.0131649
0.0131632
0.0131587
0.0131536
0.0131514
0.0131494
0.0131496
0.0131471
0.0131454
0.0131444
0.0131462
0.0131457
0.0131459
0.0131427
0.0131396
0.013137
0.0131375
0.0131405
0.0131469
0.0131552
0.0131638
0.0131717
0.00102116
0.00136022
0.00187142
0.00222277
0.00248897
0.00479154
0.0104791
0.014632
0.0170246
0.018531
0.0195951
0.0203993
0.0210204
0.0214897
0.0218297
0.0220635
0.0222172
0.0223135
0.0223718
0.0224057
0.022425
0.0224361
0.0224423
0.0224459
0.022448
0.022449
0.0224494
0.0224495
0.0224496
0.0224494
0.0224495
0.022449
0.0224481
0.0224461
0.0224442
0.0224414
0.0224377
0.0224328
0.0224283
0.0224225
0.0224158
0.0224093
0.0224026
0.0223943
0.0223844
0.0223758
0.0223707
0.0223677
0.0223639
0.0223578
0.0223524
0.0223511
0.0223529
0.0223542
0.0223516
0.0223447
0.0223366
0.0223331
0.02233
0.0223303
0.0223263
0.0223236
0.022322
0.0223248
0.022324
0.0223244
0.0223195
0.0223145
0.0223106
0.0223113
0.0223161
0.022326
0.0223391
0.0223525
0.0223649
0.00170696
0.00150445
0.00204393
0.00253355
0.00296533
0.00681109
0.0152141
0.0210738
0.0244788
0.0266527
0.0282065
0.0293942
0.0303229
0.0310333
0.0315539
0.0319153
0.0321544
0.0323051
0.0323967
0.0324502
0.0324809
0.0324984
0.0325082
0.0325138
0.0325171
0.0325186
0.0325192
0.0325194
0.0325196
0.0325193
0.0325195
0.0325189
0.0325177
0.0325151
0.0325126
0.0325088
0.0325039
0.0324973
0.0324913
0.0324834
0.0324744
0.0324655
0.0324565
0.0324452
0.0324318
0.0324201
0.032413
0.0324087
0.0324035
0.0323952
0.0323878
0.0323857
0.0323881
0.0323898
0.0323865
0.0323773
0.0323665
0.0323616
0.0323573
0.0323577
0.0323522
0.0323485
0.0323463
0.03235
0.032349
0.0323496
0.032343
0.0323364
0.0323311
0.0323322
0.0323385
0.0323517
0.0323691
0.0323872
0.032404
0.0029301
0.0017943
0.00215522
0.00272098
0.00332984
0.00893055
0.0200289
0.0276496
0.0321563
0.0350749
0.0371809
0.0388054
0.0400882
0.0410798
0.0418133
0.0423267
0.0426684
0.0428849
0.0430171
0.0430947
0.0431392
0.0431646
0.0431788
0.0431869
0.0431915
0.0431937
0.0431947
0.043195
0.0431953
0.043195
0.0431953
0.0431946
0.0431931
0.0431899
0.0431869
0.0431822
0.0431762
0.043168
0.0431605
0.0431506
0.0431394
0.0431282
0.0431169
0.0431028
0.043086
0.0430712
0.043062
0.0430564
0.0430497
0.0430392
0.0430297
0.0430269
0.0430297
0.0430319
0.0430279
0.0430167
0.0430033
0.042997
0.0429914
0.0429917
0.042985
0.0429803
0.0429773
0.0429819
0.0429807
0.0429816
0.0429736
0.0429654
0.0429588
0.0429601
0.0429678
0.0429841
0.0430055
0.043028
0.043049
0.00471646
0.00241034
0.00230937
0.00282564
0.00359179
0.0110147
0.0247292
0.0341877
0.0398977
0.0436444
0.0463688
0.0484853
0.0501703
0.0514846
0.0524653
0.0531569
0.0536201
0.0539152
0.054096
0.0542026
0.054264
0.054299
0.0543184
0.0543296
0.0543358
0.0543389
0.0543403
0.0543408
0.0543412
0.0543409
0.0543412
0.0543404
0.0543388
0.0543351
0.0543316
0.0543261
0.054319
0.0543094
0.0543004
0.0542888
0.0542754
0.054262
0.0542485
0.0542317
0.0542115
0.0541937
0.0541823
0.0541753
0.0541672
0.0541546
0.054143
0.0541392
0.0541422
0.0541449
0.0541405
0.0541276
0.0541117
0.0541039
0.054097
0.0540972
0.0540892
0.0540836
0.0540799
0.0540851
0.0540837
0.0540851
0.0540759
0.0540662
0.0540584
0.0540598
0.0540687
0.0540877
0.0541128
0.0541396
0.0541646
0.00695534
0.00349998
0.00265976
0.00292712
0.00378039
0.0129432
0.0291691
0.0405568
0.0475808
0.0522447
0.055657
0.0583229
0.0604601
0.0621412
0.0634061
0.0643051
0.0649109
0.065299
0.0655379
0.0656794
0.065761
0.0658076
0.0658335
0.0658483
0.0658565
0.0658607
0.0658626
0.0658633
0.0658639
0.0658635
0.0658639
0.0658631
0.0658613
0.0658572
0.0658532
0.0658471
0.0658391
0.065828
0.0658178
0.0658044
0.065789
0.0657735
0.0657578
0.0657385
0.0657152
0.0656942
0.0656807
0.0656722
0.0656626
0.065648
0.0656343
0.0656293
0.0656324
0.0656355
0.0656309
0.0656166
0.0655984
0.065589
0.0655808
0.0655807
0.0655716
0.0655651
0.0655605
0.0655662
0.0655648
0.0655667
0.0655567
0.0655456
0.0655366
0.065538
0.065548
0.0655693
0.0655978
0.0656285
0.0656574
0.00946501
0.00509854
0.00338298
0.0031568
0.00395549
0.0146167
0.0332262
0.0466401
0.0550956
0.0607715
0.0649451
0.0682207
0.070863
0.072958
0.0745479
0.0756869
0.0764598
0.0769579
0.077266
0.0774494
0.0775555
0.0776161
0.0776499
0.0776689
0.0776796
0.077685
0.0776876
0.0776886
0.0776894
0.0776891
0.0776896
0.0776887
0.0776868
0.0776823
0.077678
0.0776713
0.0776624
0.0776501
0.0776386
0.0776237
0.0776064
0.0775889
0.0775711
0.0775493
0.0775231
0.0774991
0.0774833
0.0774732
0.0774621
0.0774456
0.0774298
0.0774235
0.0774265
0.0774301
0.0774254
0.0774099
0.0773897
0.0773786
0.077369
0.0773686
0.0773586
0.077351
0.0773457
0.0773516
0.0773503
0.0773528
0.0773421
0.0773298
0.0773197
0.077321
0.0773318
0.0773551
0.0773867
0.0774211
0.0774535
0.0120504
0.00712234
0.00460297
0.00369016
0.00421322
0.015956
0.0367888
0.0523232
0.062333
0.0691218
0.0741349
0.0780841
0.0812875
0.0838479
0.0858082
0.087225
0.0881935
0.0888218
0.0892125
0.0894462
0.0895819
0.0896596
0.0897029
0.0897273
0.089741
0.0897479
0.0897513
0.0897527
0.0897537
0.0897534
0.089754
0.0897532
0.0897512
0.0897465
0.0897418
0.0897346
0.089725
0.0897116
0.0896989
0.0896826
0.0896636
0.0896441
0.0896244
0.0896003
0.0895712
0.0895443
0.0895261
0.0895144
0.0895018
0.0894835
0.0894657
0.0894578
0.0894605
0.0894645
0.0894599
0.0894436
0.0894216
0.0894088
0.0893978
0.0893968
0.089386
0.0893776
0.0893713
0.0893774
0.0893762
0.0893793
0.0893683
0.0893549
0.0893438
0.0893449
0.0893564
0.0893814
0.0894156
0.0894534
0.0894892
0.0145383
0.00942162
0.00632087
0.00468922
0.00468092
0.0169043
0.0397513
0.0574886
0.0691791
0.0771877
0.0831242
0.087815
0.0916403
0.0947227
0.0971051
0.0988433
0.100041
0.100824
0.101314
0.101608
0.10178
0.101878
0.101933
0.101964
0.101981
0.10199
0.101995
0.101996
0.101998
0.101998
0.101998
0.101997
0.101995
0.101991
0.101986
0.101978
0.101968
0.101953
0.10194
0.101922
0.101901
0.10188
0.101859
0.101832
0.101801
0.101771
0.10175
0.101737
0.101723
0.101703
0.101683
0.101673
0.101676
0.10168
0.101676
0.101659
0.101635
0.101621
0.101608
0.101607
0.101595
0.101586
0.101579
0.101585
0.101584
0.101587
0.101576
0.101562
0.10155
0.101551
0.101563
0.101589
0.101626
0.101667
0.101705
0.0167964
0.0118307
0.0084224
0.00621371
0.00548869
0.0174315
0.0420127
0.0620126
0.0755114
0.0848535
0.0918033
0.0973094
0.101822
0.10549
0.108353
0.110464
0.111932
0.112898
0.113507
0.113875
0.11409
0.114214
0.114284
0.114323
0.114344
0.114356
0.114361
0.114364
0.114365
0.114365
0.114366
0.114365
0.114363
0.114358
0.114353
0.114345
0.114334
0.114319
0.114305
0.114286
0.114264
0.114241
0.114218
0.114189
0.114155
0.114123
0.1141
0.114085
0.114069
0.114047
0.114026
0.114014
0.114016
0.11402
0.114016
0.113999
0.113974
0.113958
0.113945
0.113942
0.11393
0.11392
0.113912
0.113918
0.113917
0.113921
0.11391
0.113895
0.113882
0.113883
0.113895
0.113922
0.113961
0.114004
0.114046
0.018741
0.0141965
0.0107386
0.00818513
0.00672201
0.0175387
0.0434788
0.0657647
0.081197
0.0919926
0.100053
0.106454
0.111726
0.116049
0.119462
0.122005
0.123792
0.124978
0.125729
0.126187
0.126456
0.126612
0.126699
0.126748
0.126775
0.126789
0.126796
0.1268
0.126802
0.126802
0.126803
0.126802
0.1268
0.126795
0.12679
0.126782
0.126771
0.126755
0.126739
0.12672
0.126696
0.126672
0.126647
0.126617
0.126581
0.126546
0.12652
0.126503
0.126486
0.126463
0.126439
0.126426
0.126426
0.126431
0.126427
0.126411
0.126385
0.126367
0.126352
0.126349
0.126336
0.126325
0.126316
0.126321
0.126321
0.126326
0.126315
0.1263
0.126287
0.126287
0.126299
0.126327
0.126366
0.126413
0.126457
0.0203353
0.0163931
0.0130982
0.0104346
0.0083817
0.0172637
0.0440677
0.0686087
0.0860914
0.0984657
0.107741
0.115124
0.121235
0.126293
0.130333
0.133381
0.135544
0.136994
0.137919
0.138485
0.138821
0.139015
0.139125
0.139186
0.13922
0.139238
0.139247
0.139251
0.139254
0.139254
0.139255
0.139255
0.139253
0.139248
0.139243
0.139235
0.139223
0.139207
0.13919
0.13917
0.139146
0.13912
0.139093
0.139062
0.139024
0.138987
0.138959
0.138939
0.138921
0.138896
0.138871
0.138856
0.138855
0.138859
0.138856
0.13884
0.138814
0.138794
0.138778
0.138774
0.13876
0.138749
0.138739
0.138744
0.138743
0.138749
0.138739
0.138724
0.13871
0.138709
0.138721
0.138749
0.13879
0.138838
0.138884
0.0215825
0.01833
0.0153547
0.0127733
0.0103798
0.0166879
0.0437176
0.0704055
0.0900385
0.10412
0.114722
0.123181
0.130219
0.136101
0.14086
0.144498
0.147109
0.148875
0.150012
0.150712
0.151129
0.151371
0.151508
0.151585
0.151627
0.15165
0.151662
0.151667
0.15167
0.151671
0.151672
0.151672
0.15167
0.151665
0.15166
0.151652
0.15164
0.151624
0.151607
0.151586
0.151561
0.151534
0.151506
0.151473
0.151433
0.151394
0.151364
0.151342
0.151322
0.151296
0.151269
0.151252
0.15125
0.151254
0.151251
0.151236
0.151209
0.151189
0.151171
0.151166
0.151152
0.15114
0.151129
0.151133
0.151133
0.151139
0.15113
0.151115
0.1511
0.151099
0.151111
0.151139
0.15118
0.15123
0.151277
0.0225141
0.0199548
0.0173972
0.0150364
0.0125692
0.0159453
0.0423991
0.0710179
0.0928712
0.108788
0.120837
0.130474
0.138535
0.145343
0.150927
0.155255
0.158401
0.16055
0.161944
0.162808
0.163326
0.163628
0.163799
0.163895
0.163948
0.163977
0.163992
0.163999
0.164003
0.164004
0.164005
0.164005
0.164004
0.163999
0.163994
0.163986
0.163974
0.163957
0.16394
0.163919
0.163893
0.163865
0.163836
0.163802
0.163761
0.16372
0.163687
0.163663
0.163642
0.163615
0.163586
0.163567
0.163563
0.163567
0.163565
0.16355
0.163524
0.163502
0.163483
0.163477
0.163463
0.16345
0.163438
0.163441
0.163441
0.163448
0.16344
0.163426
0.163411
0.163409
0.16342
0.163448
0.163489
0.163539
0.163588
0.0231786
0.0212519
0.0191538
0.0170999
0.0147833
0.0152312
0.040131
0.0703197
0.0944139
0.112286
0.125906
0.136834
0.146024
0.153872
0.160405
0.165546
0.169331
0.171944
0.173652
0.174719
0.175361
0.175737
0.175952
0.176072
0.176138
0.176174
0.176193
0.176202
0.176207
0.176209
0.17621
0.176211
0.176209
0.176205
0.1762
0.176192
0.17618
0.176164
0.176146
0.176124
0.176098
0.176069
0.17604
0.176005
0.175963
0.17592
0.175885
0.175859
0.175836
0.175808
0.175778
0.175757
0.175751
0.175754
0.175752
0.175739
0.175713
0.175691
0.175671
0.175663
0.175649
0.175635
0.175623
0.175625
0.175625
0.175632
0.175626
0.175612
0.175597
0.175594
0.175605
0.175632
0.175673
0.175723
0.175773
0.0236308
0.0222364
0.0205906
0.0188838
0.016868
0.0148042
0.0370014
0.0682089
0.0944877
0.114418
0.129737
0.142073
0.152509
0.161528
0.169156
0.175256
0.179808
0.182984
0.185077
0.186393
0.187189
0.187657
0.187926
0.188076
0.18816
0.188205
0.188228
0.18824
0.188246
0.188249
0.188251
0.188251
0.18825
0.188246
0.188241
0.188233
0.188222
0.188206
0.188188
0.188166
0.18814
0.18811
0.18808
0.188045
0.188002
0.187958
0.187921
0.187893
0.187868
0.187839
0.187808
0.187785
0.187777
0.187778
0.187777
0.187765
0.187741
0.187718
0.187697
0.187688
0.187674
0.18766
0.187647
0.187648
0.187647
0.187654
0.187649
0.187636
0.187622
0.187619
0.187628
0.187654
0.187694
0.187745
0.187795
0.023924
0.022946
0.0217075
0.0203494
0.0187047
0.0149569
0.033191
0.064628
0.0929183
0.114976
0.132115
0.145985
0.157796
0.168134
0.177029
0.184264
0.189739
0.1936
0.196164
0.197787
0.198774
0.199357
0.199691
0.19988
0.199984
0.200041
0.20007
0.200085
0.200093
0.200096
0.200099
0.200099
0.200099
0.200095
0.20009
0.200083
0.200072
0.200056
0.200038
0.200017
0.199991
0.199961
0.19993
0.199894
0.199852
0.199807
0.199768
0.199738
0.199711
0.199681
0.199649
0.199625
0.199614
0.199614
0.199613
0.199602
0.199579
0.199557
0.199535
0.199525
0.19951
0.199496
0.199483
0.199482
0.199481
0.199488
0.199485
0.199473
0.199459
0.199455
0.199464
0.199488
0.199527
0.199578
0.199627
0.0241048
0.0234305
0.0225311
0.0214932
0.0202226
0.0159061
0.028998
0.0595933
0.0895518
0.113745
0.132814
0.148345
0.161669
0.173496
0.183862
0.192445
0.199034
0.203728
0.20687
0.208869
0.210091
0.210815
0.211232
0.211468
0.211598
0.211669
0.211706
0.211725
0.211735
0.211739
0.211742
0.211743
0.211742
0.211739
0.211735
0.211728
0.211718
0.211702
0.211685
0.211664
0.211637
0.211608
0.211577
0.211541
0.211498
0.211453
0.211413
0.211381
0.211352
0.211321
0.211289
0.211262
0.211249
0.211248
0.211246
0.211237
0.211216
0.211194
0.211172
0.21116
0.211146
0.211132
0.211118
0.211116
0.211115
0.211121
0.211119
0.211109
0.211096
0.211091
0.211099
0.211122
0.211159
0.211208
0.211256
0.0242103
0.0237431
0.0231056
0.0223396
0.0214009
0.0175861
0.0248595
0.0532364
0.0842781
0.110515
0.131592
0.148908
0.163896
0.177407
0.189487
0.199677
0.207611
0.21332
0.217166
0.219625
0.221135
0.222032
0.22255
0.222843
0.223006
0.223094
0.22314
0.223164
0.223177
0.223182
0.223185
0.223187
0.223186
0.223184
0.22318
0.223174
0.223164
0.223149
0.223132
0.223111
0.223085
0.223056
0.223025
0.222989
0.222947
0.222902
0.22286
0.222826
0.222796
0.222765
0.222731
0.222703
0.222688
0.222684
0.222683
0.222675
0.222656
0.222635
0.222613
0.2226
0.222585
0.222571
0.222557
0.222554
0.222552
0.222558
0.222557
0.222549
0.222536
0.222532
0.222539
0.222559
0.222595
0.222642
0.222689
0.0242686
0.0239331
0.0234834
0.0229314
0.0222602
0.0195519
0.0213618
0.0458596
0.0770702
0.105098
0.128203
0.147415
0.164225
0.179649
0.193738
0.205851
0.215409
0.222347
0.227047
0.230065
0.231922
0.233029
0.23367
0.234032
0.234233
0.234342
0.234399
0.234429
0.234445
0.234452
0.234455
0.234457
0.234457
0.234455
0.234452
0.234446
0.234437
0.234423
0.234406
0.234386
0.234361
0.234332
0.234301
0.234266
0.234224
0.234179
0.234137
0.234101
0.234069
0.234037
0.234003
0.233974
0.233956
0.233951
0.233948
0.233942
0.233925
0.233905
0.233884
0.23387
0.233856
0.233841
0.233827
0.233823
0.23382
0.233825
0.233825
0.233818
0.233807
0.233803
0.233809
0.233828
0.233861
0.233907
0.233952
0.0242989
0.0240415
0.0237168
0.023321
0.0228486
0.0212527
0.0192041
0.0380026
0.0680455
0.0973635
0.122413
0.143598
0.1624
0.180008
0.196467
0.210884
0.222399
0.230816
0.236541
0.240225
0.242497
0.243852
0.244638
0.245082
0.245328
0.245462
0.245533
0.245569
0.245588
0.245596
0.245601
0.245603
0.245604
0.245602
0.245599
0.245594
0.245585
0.245572
0.245556
0.245536
0.245512
0.245484
0.245453
0.245418
0.245378
0.245333
0.24529
0.245253
0.245219
0.245186
0.245152
0.245122
0.245102
0.245094
0.245091
0.245086
0.245071
0.245053
0.245032
0.245018
0.245004
0.24499
0.244976
0.24497
0.244967
0.244971
0.244971
0.244966
0.244956
0.244952
0.244957
0.244974
0.245006
0.24505
0.245092
0.0243136
0.0240994
0.0238516
0.0235613
0.0232264
0.0224085
0.0189455
0.0305056
0.0575573
0.0872906
0.114026
0.137201
0.158171
0.178295
0.197571
0.214754
0.22861
0.238782
0.245712
0.250174
0.252926
0.254568
0.255519
0.256058
0.256356
0.256517
0.256602
0.256646
0.256668
0.256679
0.256684
0.256687
0.256688
0.256686
0.256683
0.256679
0.256671
0.256658
0.256643
0.256624
0.2566
0.256572
0.256541
0.256507
0.256468
0.256424
0.256381
0.256342
0.256307
0.256273
0.256239
0.256208
0.256187
0.256177
0.256173
0.256168
0.256155
0.256138
0.256119
0.256104
0.256091
0.256077
0.256064
0.256057
0.256052
0.256055
0.256056
0.256051
0.256043
0.256039
0.256044
0.25606
0.256089
0.256132
0.256173
0.0243203
0.0241281
0.0239241
0.0236995
0.0234531
0.0230573
0.020324
0.0245205
0.046324
0.0750677
0.102941
0.12801
0.151338
0.174401
0.197055
0.217539
0.234149
0.246353
0.254657
0.259995
0.263283
0.265241
0.266375
0.267015
0.267368
0.267559
0.267659
0.267711
0.267737
0.267749
0.267755
0.267758
0.267759
0.267758
0.267755
0.267751
0.267743
0.267731
0.267716
0.267697
0.267674
0.267646
0.267616
0.267582
0.267543
0.2675
0.267457
0.267417
0.267381
0.267347
0.267312
0.267281
0.267258
0.267247
0.267241
0.267236
0.267225
0.26721
0.267192
0.267178
0.267164
0.267152
0.267139
0.267131
0.267126
0.267126
0.267127
0.267123
0.267116
0.267113
0.267117
0.267132
0.267161
0.267203
0.267242
0.0243232
0.0241413
0.0239601
0.0237732
0.0235796
0.023371
0.0220302
0.0213074
0.0355801
0.0612489
0.089248
0.115932
0.141832
0.168399
0.195112
0.219474
0.239222
0.253679
0.263475
0.269748
0.273599
0.275885
0.277205
0.277948
0.278357
0.278576
0.278691
0.278749
0.278778
0.278792
0.278798
0.278801
0.278802
0.278801
0.278799
0.278794
0.278786
0.278775
0.278759
0.278741
0.278717
0.27869
0.278659
0.278625
0.278587
0.278544
0.278501
0.278461
0.278423
0.278388
0.278353
0.278322
0.278299
0.278285
0.278279
0.278274
0.278264
0.27825
0.278233
0.278219
0.278206
0.278194
0.278182
0.278174
0.278168
0.278167
0.278165
0.278161
0.278156
0.278153
0.278158
0.278173
0.278202
0.278243
0.278282
0.0243242
0.0241468
0.0239767
0.0238094
0.0236449
0.0235057
0.0230606
0.021269
0.0271448
0.0470007
0.0734258
0.101156
0.129908
0.160734
0.192262
0.220988
0.244099
0.260882
0.272177
0.279369
0.283762
0.286358
0.287851
0.288687
0.289143
0.289386
0.289513
0.289576
0.289607
0.289622
0.289628
0.289631
0.289632
0.289631
0.289628
0.289623
0.289615
0.289602
0.289587
0.289568
0.289544
0.289515
0.289484
0.289449
0.289411
0.289369
0.289326
0.289284
0.289246
0.289209
0.289174
0.289143
0.28912
0.289106
0.289099
0.289093
0.289083
0.289069
0.289054
0.28904
0.289028
0.289016
0.289005
0.288997
0.288991
0.288988
0.288985
0.28898
0.288974
0.288973
0.288978
0.288994
0.289024
0.289067
0.289107
0.0243246
0.024149
0.0239836
0.0238256
0.0236758
0.0235583
0.0234424
0.0226304
0.0229495
0.0344116
0.0567267
0.0845575
0.116575
0.152539
0.189438
0.222624
0.248959
0.267878
0.280507
0.288495
0.293347
0.296199
0.297828
0.298735
0.299226
0.299486
0.299619
0.299685
0.299716
0.29973
0.299736
0.299739
0.299739
0.299737
0.299734
0.299728
0.299719
0.299706
0.29969
0.299669
0.299644
0.299615
0.299582
0.299547
0.299507
0.299465
0.299422
0.299379
0.29934
0.299302
0.299267
0.299236
0.299214
0.2992
0.299192
0.299184
0.299174
0.29916
0.299146
0.299132
0.299121
0.299109
0.299099
0.299092
0.299085
0.29908
0.299075
0.299068
0.299063
0.299062
0.299068
0.299086
0.299117
0.299163
0.299205
0.0243248
0.0241497
0.0239862
0.0238322
0.023689
0.0235772
0.0235297
0.0234203
0.0229047
0.0265052
0.0419783
0.0687013
0.104374
0.145824
0.187731
0.224656
0.253524
0.274058
0.287669
0.29623
0.301402
0.304426
0.306143
0.307092
0.307602
0.307868
0.308003
0.308068
0.308099
0.308112
0.308117
0.308119
0.308118
0.308116
0.308112
0.308105
0.308095
0.308081
0.308064
0.308042
0.308016
0.307985
0.307951
0.307913
0.307873
0.307829
0.307786
0.307743
0.307702
0.307663
0.307628
0.307598
0.307577
0.307563
0.307555
0.307546
0.307534
0.30752
0.307506
0.307492
0.307481
0.30747
0.307461
0.307453
0.307448
0.307441
0.307434
0.307426
0.30742
0.307419
0.307426
0.307445
0.307479
0.307528
0.307572
0.0243248
0.0241499
0.023987
0.0238344
0.0236936
0.0235831
0.0235371
0.0235939
0.0237657
0.024922
0.034184
0.0589539
0.0972739
0.142447
0.187364
0.226379
0.256618
0.278017
0.292149
0.301009
0.306344
0.309452
0.311209
0.312175
0.312691
0.312958
0.313091
0.313155
0.313184
0.313196
0.3132
0.313201
0.3132
0.313197
0.313193
0.313185
0.313175
0.31316
0.313142
0.313119
0.313092
0.31306
0.313025
0.312986
0.312944
0.3129
0.312856
0.312813
0.312772
0.312732
0.312697
0.312668
0.312648
0.312634
0.312625
0.312615
0.312602
0.312587
0.312573
0.31256
0.312548
0.312537
0.312529
0.312522
0.312517
0.31251
0.312502
0.312492
0.312486
0.312485
0.312492
0.312512
0.312546
0.312597
0.312644
0.0243248
0.0241499
0.023987
0.0238344
0.0236936
0.0235833
0.0235383
0.0235981
0.0237788
0.0249769
0.0342852
0.0589724
0.0971639
0.142268
0.18718
0.226218
0.256483
0.277901
0.292046
0.300914
0.306253
0.309363
0.311122
0.312088
0.312604
0.312871
0.313004
0.313068
0.313096
0.313108
0.313113
0.313114
0.313112
0.313109
0.313105
0.313097
0.313087
0.313072
0.313054
0.313031
0.313004
0.312972
0.312937
0.312898
0.312856
0.312812
0.312769
0.312725
0.312685
0.312645
0.31261
0.312581
0.312562
0.312549
0.312539
0.312528
0.312515
0.3125
0.312487
0.312473
0.312461
0.312449
0.312442
0.312436
0.312432
0.312425
0.312416
0.312406
0.3124
0.312399
0.312406
0.312424
0.312457
0.312507
0.312552
0.0243248
0.0241497
0.0239862
0.0238322
0.0236889
0.0235778
0.0235316
0.0234238
0.0229559
0.0267467
0.0422286
0.0686772
0.104023
0.145296
0.187189
0.224178
0.25312
0.273712
0.287361
0.295945
0.30113
0.304161
0.305882
0.306832
0.307343
0.307609
0.307743
0.307809
0.307839
0.307852
0.307857
0.307858
0.307857
0.307854
0.30785
0.307843
0.307833
0.307819
0.307802
0.30778
0.307754
0.307723
0.307689
0.307651
0.30761
0.307567
0.307526
0.307483
0.307443
0.307404
0.307369
0.307341
0.307323
0.307309
0.307299
0.307287
0.307275
0.307261
0.307249
0.307235
0.307222
0.30721
0.307203
0.307197
0.307195
0.307188
0.307179
0.30717
0.307164
0.307162
0.307168
0.307183
0.307213
0.307259
0.307302
0.0243246
0.024149
0.0239836
0.0238256
0.0236757
0.0235588
0.0234348
0.0226154
0.0231646
0.034845
0.0569916
0.0844093
0.116006
0.151727
0.188592
0.221861
0.248303
0.267309
0.279996
0.28802
0.292893
0.295757
0.297393
0.298303
0.298795
0.299055
0.299188
0.299254
0.299285
0.299299
0.299305
0.299306
0.299306
0.299304
0.2993
0.299294
0.299285
0.299271
0.299256
0.299235
0.29921
0.29918
0.299148
0.29911
0.299071
0.29903
0.298991
0.298949
0.29891
0.298871
0.298838
0.29881
0.298792
0.298777
0.298767
0.298755
0.298744
0.298731
0.29872
0.298706
0.298693
0.298681
0.298675
0.298668
0.298666
0.298659
0.29865
0.298641
0.298636
0.298634
0.298638
0.29865
0.298677
0.298719
0.298758
0.0243242
0.0241468
0.0239766
0.0238093
0.0236446
0.0235032
0.0230132
0.0213089
0.0276263
0.0475317
0.0736108
0.100856
0.129168
0.159728
0.191198
0.219999
0.243226
0.26011
0.271477
0.278714
0.283134
0.285747
0.287247
0.288088
0.288546
0.28879
0.288917
0.28898
0.289011
0.289025
0.289032
0.289034
0.289034
0.289032
0.289029
0.289023
0.289014
0.289001
0.288986
0.288966
0.288942
0.288913
0.288882
0.288845
0.288808
0.288768
0.288731
0.28869
0.288652
0.288613
0.288581
0.288554
0.288537
0.288521
0.288511
0.288499
0.288489
0.288477
0.288467
0.288452
0.288439
0.288427
0.288422
0.288415
0.288412
0.288404
0.288395
0.288385
0.288381
0.288378
0.288381
0.288392
0.288415
0.288454
0.288491
0.0243231
0.0241413
0.0239601
0.023773
0.0235788
0.0233562
0.0219087
0.0215979
0.0362846
0.0617783
0.0893083
0.115489
0.140967
0.167274
0.193913
0.218334
0.23819
0.252747
0.262618
0.26894
0.27282
0.275125
0.276455
0.277203
0.277614
0.277834
0.277949
0.278007
0.278036
0.27805
0.278056
0.278058
0.278059
0.278057
0.278054
0.278048
0.278039
0.278026
0.278012
0.277991
0.277968
0.277939
0.277909
0.277872
0.277836
0.277798
0.277762
0.277722
0.277684
0.277645
0.277615
0.277589
0.277573
0.277556
0.277546
0.277534
0.277525
0.277513
0.277503
0.277488
0.277476
0.277463
0.27746
0.277451
0.277449
0.277438
0.277428
0.277418
0.277414
0.277411
0.277413
0.277423
0.277445
0.277483
0.277519
0.0243203
0.0241281
0.0239241
0.0236993
0.0234512
0.0230073
0.0201926
0.0251446
0.0471526
0.0755255
0.102866
0.127444
0.150386
0.173209
0.195784
0.216312
0.233015
0.24531
0.253684
0.25907
0.262387
0.264363
0.265507
0.266153
0.266509
0.2667
0.266801
0.266853
0.266879
0.266891
0.266897
0.266899
0.266899
0.266897
0.266895
0.266888
0.266879
0.266866
0.266851
0.266829
0.266806
0.266777
0.266747
0.26671
0.266675
0.266638
0.266604
0.266563
0.266525
0.266487
0.266458
0.266433
0.266419
0.266402
0.266392
0.266379
0.26637
0.266358
0.266349
0.266333
0.266322
0.266309
0.266307
0.266297
0.266295
0.266281
0.266269
0.266258
0.266255
0.266252
0.266254
0.266264
0.266286
0.266324
0.266361
0.0243136
0.0240994
0.0238516
0.0235609
0.0232219
0.0222839
0.0190159
0.0314123
0.0584142
0.0876398
0.113825
0.136538
0.157164
0.177074
0.196277
0.213489
0.227422
0.237673
0.244666
0.24917
0.25195
0.253608
0.254569
0.255113
0.255413
0.255575
0.25566
0.255704
0.255727
0.255737
0.255743
0.255744
0.255744
0.255742
0.255739
0.255731
0.255722
0.255708
0.255693
0.25567
0.255647
0.255616
0.255586
0.255549
0.255516
0.255479
0.255446
0.255404
0.255367
0.255329
0.255302
0.255279
0.255267
0.25525
0.25524
0.255225
0.255217
0.255203
0.255196
0.255178
0.255168
0.255156
0.255155
0.255144
0.255141
0.255123
0.25511
0.255097
0.255096
0.255093
0.255096
0.255106
0.25513
0.255169
0.255208
0.0242989
0.0240416
0.0237169
0.0233204
0.0228385
0.0210167
0.0196321
0.0390987
0.0688596
0.0975921
0.122104
0.142866
0.161365
0.178787
0.19518
0.209618
0.221196
0.22968
0.235457
0.239178
0.241474
0.242843
0.243637
0.244086
0.244335
0.244469
0.24454
0.244576
0.244595
0.244604
0.244609
0.24461
0.24461
0.244607
0.244604
0.244595
0.244585
0.24457
0.244555
0.24453
0.244507
0.244475
0.244445
0.244407
0.244375
0.244338
0.244306
0.244264
0.244228
0.244189
0.244165
0.244143
0.244134
0.244116
0.244107
0.244089
0.244082
0.244067
0.244061
0.244042
0.244033
0.244021
0.244022
0.244009
0.244006
0.243984
0.24397
0.243956
0.243956
0.243953
0.243958
0.243969
0.243995
0.244036
0.244078
0.0242687
0.0239333
0.0234837
0.0229305
0.0222393
0.0192252
0.0221483
0.0470502
0.0777979
0.10521
0.127808
0.146638
0.163184
0.17845
0.192482
0.204611
0.21422
0.221212
0.225956
0.229004
0.230882
0.232001
0.232649
0.233015
0.233217
0.233327
0.233385
0.233414
0.23343
0.233437
0.233442
0.233442
0.233442
0.233438
0.233435
0.233424
0.233414
0.233398
0.233383
0.233357
0.233333
0.2333
0.23327
0.233231
0.2332
0.233163
0.233133
0.233089
0.233054
0.233015
0.232994
0.232975
0.232968
0.232949
0.23294
0.232921
0.232914
0.232898
0.232893
0.232873
0.232865
0.232853
0.232855
0.232841
0.232838
0.232812
0.232796
0.232782
0.232783
0.232781
0.232787
0.232799
0.232828
0.232871
0.232916
0.0242105
0.0237435
0.0231061
0.0223383
0.0213622
0.0172947
0.0259344
0.0544421
0.0848981
0.110523
0.131132
0.148109
0.162867
0.176245
0.188278
0.198482
0.206456
0.212209
0.216091
0.218575
0.220101
0.221008
0.221533
0.221829
0.221992
0.222081
0.222127
0.222151
0.222164
0.22217
0.222174
0.222173
0.222173
0.222169
0.222165
0.222154
0.222143
0.222126
0.22211
0.222083
0.222059
0.222025
0.221995
0.221955
0.221926
0.221889
0.221861
0.221816
0.221782
0.221743
0.221725
0.221707
0.221703
0.221684
0.221675
0.221653
0.221647
0.22163
0.221626
0.221605
0.221599
0.221586
0.221591
0.221575
0.221572
0.221542
0.221526
0.22151
0.221514
0.221511
0.221519
0.221533
0.221564
0.22161
0.221657
0.0241051
0.0234313
0.0225321
0.0214917
0.0201585
0.0158251
0.0302779
0.0607562
0.0900586
0.113665
0.132309
0.147541
0.160669
0.172384
0.182712
0.191306
0.197929
0.202659
0.205829
0.207848
0.209083
0.209816
0.210238
0.210476
0.210607
0.210678
0.210715
0.210734
0.210744
0.210749
0.210752
0.210751
0.210751
0.210746
0.210742
0.21073
0.210719
0.210701
0.210685
0.210656
0.210632
0.210597
0.210569
0.210528
0.2105
0.210464
0.210437
0.210392
0.210359
0.21032
0.210305
0.210289
0.210287
0.210267
0.210259
0.210235
0.210229
0.210212
0.210209
0.210187
0.210182
0.210169
0.210176
0.210158
0.210156
0.210122
0.210105
0.210089
0.210095
0.210093
0.210102
0.210117
0.21015
0.210198
0.210248
0.0239246
0.0229474
0.0217091
0.0203477
0.0186107
0.0151904
0.0345951
0.0657105
0.0933162
0.114825
0.131584
0.145192
0.156836
0.16708
0.175946
0.183191
0.188695
0.192584
0.195171
0.196809
0.197807
0.198396
0.198735
0.198926
0.19903
0.199087
0.199116
0.199131
0.19914
0.199143
0.199147
0.199145
0.199144
0.199139
0.199135
0.199122
0.199111
0.199092
0.199076
0.199046
0.199023
0.198987
0.198959
0.198918
0.198892
0.198856
0.198831
0.198785
0.198754
0.198716
0.198704
0.198689
0.19869
0.198669
0.198661
0.198635
0.19863
0.198612
0.198611
0.198587
0.198584
0.198571
0.19858
0.19856
0.198559
0.198521