/*--------------------------------*- C++ -*----------------------------------*\
  =========                 |
  \\      /  F ield         | OpenFOAM: The Open Source CFD Toolbox
   \\    /   O peration     | Website:  https://openfoam.org
    \\  /    A nd           | Version:  7
     \\/     M anipulation  |
\*---------------------------------------------------------------------------*/
FoamFile
{
    version     2.0;
    format      ascii;
    class       volScalarField;
    location    "150";
    object      p;
}
// * * * * * * * * * * * * * * * * * * * * * * * * * * * * * * * * * * * * * //

dimensions      [0 2 -2 0 0 0 0];

internalField   nonuniform List<scalar> 
4500
(
562.235
559.21
558.084
556.859
555.953
554.736
549.506
540.139
530.226
521.138
512.978
505.661
499.036
492.733
486.342
479.57
472.399
464.876
457.128
449.209
441.207
433.13
425.032
416.9
408.773
400.621
392.483
384.331
376.189
368.035
359.891
351.737
343.599
335.445
327.31
319.159
311.035
302.888
294.77
286.633
278.53
270.4
262.302
254.187
246.103
238.001
229.918
221.82
213.747
205.656
197.595
189.501
181.426
173.33
165.263
157.181
149.133
141.058
133.001
124.929
116.873
108.808
100.752
92.6779
84.6248
76.5568
68.5232
60.4655
52.4346
44.3735
36.3415
28.2677
20.2218
12.1185
4.06767
561.848
559.182
558.083
556.859
555.953
554.736
549.508
540.141
530.228
521.139
512.978
505.66
499.036
492.733
486.342
479.569
472.399
464.876
457.128
449.209
441.207
433.13
425.032
416.9
408.773
400.621
392.483
384.331
376.189
368.035
359.891
351.737
343.599
335.445
327.31
319.159
311.035
302.888
294.77
286.633
278.53
270.4
262.302
254.187
246.103
238.001
229.918
221.82
213.747
205.656
197.595
189.501
181.426
173.33
165.263
157.181
149.133
141.058
133.001
124.929
116.873
108.808
100.752
92.6779
84.6248
76.5568
68.5232
60.4655
52.4346
44.3735
36.3415
28.2677
20.2218
12.1185
4.06767
561.761
559.189
558.085
556.86
555.954
554.737
549.513
540.147
530.231
521.14
512.979
505.66
499.035
492.732
486.341
479.569
472.399
464.876
457.128
449.209
441.207
433.13
425.032
416.9
408.773
400.621
392.483
384.331
376.189
368.035
359.891
351.737
343.599
335.445
327.31
319.159
311.035
302.888
294.77
286.633
278.53
270.4
262.302
254.187
246.103
238.001
229.918
221.82
213.747
205.656
197.595
189.501
181.426
173.33
165.263
157.181
149.133
141.058
133.001
124.929
116.873
108.808
100.752
92.6779
84.6248
76.5568
68.5231
60.4654
52.4346
44.3735
36.3415
28.2678
20.2218
12.1185
4.06769
561.76
559.197
558.087
556.861
555.955
554.74
549.521
540.154
530.235
521.142
512.979
505.659
499.034
492.731
486.341
479.568
472.398
464.875
457.128
449.209
441.207
433.13
425.032
416.9
408.773
400.621
392.483
384.331
376.189
368.035
359.891
351.737
343.599
335.445
327.31
319.159
311.035
302.888
294.77
286.633
278.529
270.4
262.302
254.187
246.103
238
229.918
221.82
213.747
205.656
197.595
189.501
181.426
173.33
165.263
157.181
149.133
141.058
133.001
124.929
116.873
108.808
100.752
92.678
84.6248
76.5568
68.5231
60.4654
52.4345
44.3735
36.3416
28.2678
20.2219
12.1186
4.0677
561.757
559.2
558.088
556.862
555.957
554.746
549.532
540.162
530.24
521.143
512.979
505.659
499.034
492.73
486.34
479.568
472.398
464.875
457.128
449.209
441.207
433.13
425.032
416.9
408.773
400.621
392.483
384.331
376.189
368.035
359.891
351.737
343.599
335.445
327.31
319.159
311.035
302.888
294.77
286.633
278.529
270.4
262.302
254.187
246.103
238
229.918
221.82
213.746
205.656
197.595
189.501
181.426
173.33
165.263
157.181
149.133
141.058
133.001
124.929
116.873
108.808
100.752
92.678
84.6249
76.5568
68.523
60.4653
52.4345
44.3735
36.3416
28.2679
20.2219
12.1186
4.06775
561.746
559.203
558.089
556.864
555.96
554.754
549.546
540.171
530.244
521.145
512.979
505.658
499.033
492.729
486.339
479.567
472.398
464.875
457.128
449.209
441.207
433.13
425.032
416.9
408.773
400.621
392.483
384.331
376.189
368.035
359.891
351.737
343.599
335.444
327.31
319.159
311.035
302.888
294.77
286.633
278.529
270.4
262.302
254.187
246.103
238
229.918
221.82
213.746
205.656
197.595
189.501
181.426
173.33
165.263
157.181
149.133
141.058
133.001
124.929
116.873
108.808
100.752
92.678
84.6249
76.5568
68.523
60.4653
52.4345
44.3735
36.3417
28.2679
20.222
12.1187
4.06776
561.737
559.206
558.09
556.865
555.963
554.764
549.56
540.181
530.249
521.147
512.979
505.658
499.032
492.728
486.339
479.567
472.398
464.875
457.128
449.209
441.207
433.13
425.032
416.9
408.773
400.621
392.483
384.331
376.189
368.035
359.891
351.737
343.599
335.444
327.31
319.159
311.035
302.888
294.77
286.633
278.529
270.4
262.302
254.187
246.103
238
229.918
221.82
213.746
205.656
197.595
189.501
181.426
173.33
165.263
157.181
149.133
141.058
133.001
124.929
116.873
108.808
100.752
92.678
84.6249
76.5568
68.5229
60.4652
52.4345
44.3735
36.3417
28.268
20.2221
12.1188
4.06782
561.728
559.209
558.091
556.866
555.967
554.774
549.576
540.191
530.254
521.149
512.98
505.657
499.031
492.728
486.338
479.567
472.397
464.875
457.127
449.208
441.207
433.13
425.032
416.9
408.773
400.621
392.483
384.331
376.189
368.035
359.891
351.737
343.599
335.444
327.31
319.159
311.035
302.888
294.77
286.633
278.529
270.4
262.302
254.187
246.103
238
229.918
221.82
213.746
205.656
197.595
189.501
181.426
173.33
165.263
157.181
149.133
141.058
133.001
124.929
116.873
108.808
100.752
92.6781
84.625
76.5568
68.5229
60.4652
52.4344
44.3735
36.3418
28.2681
20.2222
12.1188
4.06782
561.719
559.212
558.092
556.867
555.97
554.785
549.591
540.201
530.26
521.151
512.98
505.657
499.03
492.727
486.338
479.566
472.397
464.875
457.127
449.208
441.207
433.13
425.032
416.9
408.773
400.621
392.483
384.331
376.189
368.035
359.891
351.737
343.599
335.444
327.31
319.159
311.035
302.888
294.77
286.633
278.529
270.4
262.302
254.187
246.103
238
229.918
221.82
213.746
205.656
197.595
189.501
181.426
173.33
165.262
157.181
149.133
141.058
133.001
124.929
116.873
108.808
100.752
92.6781
84.625
76.5568
68.5228
60.4651
52.4344
44.3736
36.3418
28.2682
20.2222
12.1189
4.0679
561.709
559.215
558.092
556.868
555.974
554.795
549.606
540.212
530.265
521.154
512.981
505.657
499.03
492.726
486.337
479.566
472.397
464.875
457.127
449.208
441.207
433.13
425.032
416.9
408.773
400.621
392.483
384.331
376.189
368.035
359.891
351.737
343.599
335.444
327.31
319.159
311.035
302.888
294.77
286.633
278.529
270.4
262.302
254.187
246.103
238
229.918
221.82
213.746
205.656
197.595
189.501
181.426
173.33
165.262
157.181
149.133
141.058
133.001
124.929
116.873
108.808
100.752
92.6781
84.625
76.5568
68.5228
60.465
52.4344
44.3736
36.3419
28.2682
20.2223
12.119
4.06789
561.699
559.219
558.092
556.869
555.977
554.804
549.619
540.222
530.272
521.157
512.982
505.657
499.029
492.726
486.337
479.566
472.397
464.875
457.127
449.208
441.207
433.13
425.032
416.9
408.773
400.621
392.483
384.331
376.189
368.035
359.891
351.737
343.599
335.444
327.31
319.159
311.035
302.888
294.77
286.633
278.529
270.4
262.302
254.187
246.103
238
229.918
221.82
213.746
205.656
197.595
189.501
181.426
173.33
165.262
157.181
149.133
141.058
133.001
124.929
116.873
108.808
100.752
92.6782
84.6251
76.5568
68.5227
60.465
52.4344
44.3736
36.3419
28.2683
20.2224
12.1191
4.06799
561.688
559.223
558.093
556.869
555.98
554.809
549.631
540.233
530.278
521.16
512.983
505.657
499.029
492.725
486.337
479.566
472.397
464.875
457.127
449.208
441.207
433.13
425.032
416.9
408.773
400.621
392.483
384.331
376.189
368.035
359.891
351.737
343.599
335.444
327.31
319.159
311.035
302.888
294.77
286.633
278.529
270.4
262.302
254.186
246.103
238
229.918
221.82
213.746
205.655
197.595
189.501
181.426
173.33
165.262
157.18
149.133
141.058
133.001
124.929
116.873
108.808
100.752
92.6782
84.6251
76.5568
68.5227
60.4649
52.4344
44.3736
36.342
28.2684
20.2225
12.1191
4.06798
561.677
559.227
558.093
556.87
555.982
554.812
549.64
540.244
530.286
521.165
512.986
505.657
499.029
492.725
486.336
479.566
472.397
464.875
457.127
449.209
441.207
433.13
425.032
416.9
408.773
400.621
392.483
384.331
376.189
368.035
359.891
351.737
343.599
335.444
327.31
319.159
311.035
302.888
294.77
286.633
278.529
270.4
262.302
254.186
246.103
238
229.918
221.82
213.746
205.655
197.595
189.501
181.426
173.33
165.262
157.18
149.133
141.058
133.001
124.929
116.873
108.807
100.752
92.6782
84.6251
76.5568
68.5227
60.4649
52.4343
44.3736
36.342
28.2684
20.2225
12.1192
4.06809
561.664
559.231
558.093
556.871
555.984
554.812
549.646
540.255
530.295
521.17
512.988
505.659
499.029
492.725
486.336
479.566
472.397
464.875
457.128
449.209
441.207
433.13
425.032
416.9
408.773
400.621
392.483
384.331
376.189
368.035
359.891
351.737
343.599
335.444
327.31
319.159
311.035
302.888
294.77
286.633
278.529
270.4
262.302
254.186
246.102
238
229.918
221.82
213.746
205.655
197.595
189.501
181.426
173.33
165.262
157.18
149.133
141.058
133.001
124.929
116.873
108.807
100.752
92.6782
84.6252
76.5569
68.5226
60.4648
52.4343
44.3737
36.3421
28.2685
20.2226
12.1193
4.06807
561.651
559.236
558.093
556.871
555.984
554.809
549.649
540.265
530.304
521.176
512.992
505.66
499.03
492.726
486.337
479.566
472.397
464.875
457.128
449.209
441.207
433.13
425.033
416.9
408.773
400.621
392.483
384.331
376.189
368.035
359.891
351.737
343.599
335.444
327.31
319.159
311.035
302.888
294.77
286.633
278.529
270.4
262.302
254.186
246.102
238
229.918
221.82
213.746
205.655
197.594
189.501
181.426
173.33
165.262
157.18
149.133
141.057
133.001
124.929
116.873
108.807
100.752
92.6782
84.6252
76.5569
68.5226
60.4648
52.4343
44.3737
36.3421
28.2685
20.2227
12.1194
4.06819
561.637
559.242
558.093
556.872
555.983
554.804
549.649
540.276
530.315
521.184
512.997
505.663
499.031
492.727
486.338
479.567
472.398
464.875
457.128
449.209
441.207
433.13
425.033
416.9
408.773
400.621
392.483
384.331
376.189
368.035
359.891
351.737
343.599
335.444
327.31
319.159
311.035
302.888
294.77
286.633
278.529
270.4
262.302
254.186
246.102
238
229.918
221.82
213.746
205.655
197.594
189.501
181.426
173.33
165.262
157.18
149.133
141.057
133.001
124.929
116.873
108.807
100.752
92.6783
84.6252
76.5569
68.5226
60.4647
52.4343
44.3737
36.3421
28.2686
20.2227
12.1194
4.06817
561.622
559.248
558.094
556.872
555.98
554.796
549.645
540.286
530.328
521.193
513.003
505.667
499.034
492.728
486.339
479.568
472.399
464.876
457.128
449.209
441.208
433.13
425.033
416.9
408.773
400.621
392.483
384.331
376.189
368.035
359.891
351.737
343.599
335.444
327.31
319.159
311.035
302.888
294.77
286.633
278.529
270.4
262.302
254.186
246.102
238
229.918
221.82
213.746
205.655
197.594
189.501
181.426
173.33
165.262
157.18
149.132
141.057
133.001
124.929
116.873
108.807
100.752
92.6783
84.6253
76.5569
68.5226
60.4647
52.4343
44.3737
36.3422
28.2686
20.2228
12.1195
4.06831
561.607
559.254
558.094
556.873
555.977
554.785
549.638
540.296
530.341
521.204
513.01
505.671
499.037
492.73
486.34
479.569
472.4
464.877
457.129
449.209
441.208
433.13
425.033
416.9
408.773
400.621
392.483
384.331
376.189
368.035
359.891
351.737
343.599
335.444
327.31
319.159
311.035
302.888
294.77
286.633
278.529
270.4
262.302
254.186
246.102
238
229.918
221.82
213.746
205.655
197.594
189.501
181.426
173.33
165.262
157.18
149.132
141.057
133.001
124.929
116.873
108.807
100.752
92.6783
84.6253
76.557
68.5227
60.4647
52.4342
44.3736
36.3422
28.2686
20.2228
12.1195
4.06829
561.59
559.261
558.094
556.874
555.973
554.77
549.628
540.305
530.356
521.217
513.019
505.678
499.041
492.734
486.343
479.571
472.401
464.878
457.129
449.21
441.208
433.131
425.033
416.9
408.773
400.622
392.483
384.331
376.189
368.035
359.891
351.737
343.599
335.444
327.31
319.159
311.035
302.888
294.77
286.633
278.529
270.4
262.302
254.186
246.102
238
229.918
221.82
213.746
205.655
197.594
189.501
181.426
173.33
165.262
157.18
149.132
141.057
133.001
124.929
116.873
108.807
100.752
92.6782
84.6253
76.557
68.5227
60.4647
52.4342
44.3736
36.3422
28.2686
20.2229
12.1196
4.06844
561.573
559.268
558.094
556.875
555.968
554.752
549.615
540.313
530.373
521.232
513.03
505.686
499.047
492.738
486.346
479.574
472.403
464.879
457.13
449.21
441.208
433.131
425.033
416.9
408.773
400.622
392.483
384.331
376.189
368.035
359.891
351.737
343.599
335.444
327.31
319.159
311.035
302.888
294.77
286.633
278.529
270.4
262.302
254.186
246.102
238
229.918
221.82
213.746
205.655
197.594
189.501
181.426
173.33
165.262
157.18
149.132
141.057
133.001
124.929
116.873
108.807
100.752
92.6782
84.6254
76.5571
68.5228
60.4647
52.4342
44.3736
36.3422
28.2686
20.2229
12.1196
4.06842
561.556
559.276
558.094
556.875
555.963
554.731
549.6
540.32
530.39
521.248
513.043
505.695
499.054
492.744
486.351
479.577
472.406
464.881
457.132
449.211
441.209
433.131
425.033
416.9
408.774
400.622
392.483
384.331
376.189
368.035
359.891
351.737
343.599
335.444
327.31
319.159
311.035
302.888
294.77
286.633
278.529
270.4
262.302
254.186
246.102
238
229.918
221.82
213.746
205.655
197.594
189.501
181.426
173.33
165.262
157.18
149.132
141.057
133.001
124.929
116.873
108.807
100.752
92.6782
84.6254
76.5572
68.5229
60.4648
52.4342
44.3735
36.3421
28.2686
20.2229
12.1196
4.06859
561.537
559.284
558.094
556.876
555.958
554.706
549.583
540.327
530.408
521.267
513.059
505.707
499.064
492.752
486.358
479.582
472.409
464.883
457.133
449.212
441.209
433.132
425.033
416.9
408.774
400.622
392.483
384.331
376.189
368.035
359.891
351.737
343.599
335.444
327.31
319.159
311.035
302.888
294.77
286.633
278.529
270.4
262.302
254.186
246.102
238
229.918
221.82
213.746
205.655
197.594
189.501
181.426
173.33
165.263
157.18
149.132
141.057
133.001
124.929
116.873
108.807
100.752
92.6781
84.6254
76.5572
68.5231
60.4648
52.4342
44.3735
36.3421
28.2686
20.2229
12.1196
4.06857
561.519
559.292
558.094
556.878
555.952
554.68
549.563
540.333
530.427
521.287
513.076
505.721
499.076
492.762
486.366
479.589
472.414
464.887
457.135
449.213
441.21
433.132
425.033
416.901
408.774
400.622
392.483
384.331
376.189
368.035
359.891
351.737
343.599
335.444
327.31
319.159
311.035
302.888
294.77
286.633
278.529
270.4
262.302
254.186
246.102
237.999
229.918
221.82
213.746
205.656
197.594
189.5
181.426
173.33
165.263
157.181
149.132
141.057
133.001
124.929
116.873
108.807
100.752
92.6781
84.6254
76.5573
68.5233
60.4649
52.4341
44.3734
36.342
28.2685
20.2229
12.1196
4.06875
561.5
559.3
558.094
556.879
555.947
554.652
549.54
540.339
530.446
521.309
513.095
505.738
499.09
492.774
486.376
479.597
472.42
464.891
457.138
449.215
441.211
433.133
425.034
416.901
408.774
400.622
392.483
384.331
376.189
368.035
359.891
351.737
343.599
335.444
327.31
319.159
311.035
302.888
294.77
286.633
278.529
270.4
262.302
254.186
246.102
237.999
229.918
221.82
213.746
205.656
197.594
189.5
181.426
173.33
165.263
157.181
149.132
141.057
133.001
124.929
116.873
108.807
100.751
92.678
84.6254
76.5574
68.5235
60.465
52.4341
44.3733
36.342
28.2685
20.2228
12.1196
4.06875
561.482
559.308
558.094
556.88
555.942
554.626
549.514
540.343
530.465
521.331
513.116
505.757
499.107
492.79
486.389
479.607
472.427
464.896
457.141
449.217
441.212
433.133
425.034
416.901
408.774
400.622
392.483
384.331
376.189
368.035
359.891
351.737
343.599
335.444
327.31
319.159
311.035
302.888
294.77
286.633
278.529
270.4
262.302
254.187
246.102
237.999
229.918
221.82
213.747
205.656
197.594
189.5
181.426
173.33
165.263
157.181
149.132
141.057
133.001
124.929
116.873
108.807
100.751
92.6779
84.6253
76.5575
68.5237
60.4651
52.4341
44.3732
36.3419
28.2684
20.2228
12.1196
4.06893
561.465
559.316
558.093
556.881
555.937
554.6
549.486
540.345
530.483
521.354
513.139
505.778
499.127
492.808
486.405
479.62
472.436
464.902
457.145
449.219
441.214
433.134
425.035
416.901
408.774
400.622
392.483
384.331
376.189
368.035
359.891
351.737
343.599
335.444
327.31
319.159
311.035
302.888
294.77
286.633
278.529
270.4
262.302
254.187
246.102
237.999
229.917
221.82
213.747
205.656
197.594
189.5
181.425
173.33
165.263
157.181
149.133
141.057
133.001
124.929
116.873
108.807
100.751
92.6778
84.6253
76.5576
68.524
60.4653
52.4341
44.3731
36.3418
28.2683
20.2228
12.1196
4.06893
561.449
559.324
558.093
556.882
555.932
554.577
549.46
540.343
530.498
521.375
513.162
505.8
499.149
492.829
486.424
479.634
472.446
464.908
457.149
449.222
441.215
433.135
425.035
416.901
408.774
400.622
392.483
384.331
376.19
368.035
359.891
351.737
343.599
335.445
327.31
319.159
311.035
302.888
294.77
286.633
278.529
270.4
262.302
254.187
246.102
237.999
229.917
221.82
213.747
205.656
197.594
189.5
181.425
173.33
165.263
157.181
149.133
141.057
133.001
124.929
116.873
108.807
100.751
92.6776
84.6252
76.5577
68.5244
60.4654
52.4341
44.3729
36.3417
28.2682
20.2228
12.1196
4.06907
561.435
559.33
558.093
556.883
555.929
554.557
549.438
540.338
530.509
521.394
513.183
505.824
499.173
492.853
486.444
479.649
472.457
464.915
457.153
449.224
441.217
433.136
425.036
416.902
408.774
400.622
392.483
384.331
376.19
368.035
359.891
351.737
343.599
335.445
327.31
319.16
311.035
302.888
294.77
286.633
278.529
270.4
262.302
254.187
246.103
237.999
229.917
221.819
213.747
205.656
197.594
189.5
181.425
173.33
165.263
157.181
149.133
141.057
133.001
124.929
116.874
108.807
100.751
92.6774
84.6251
76.5577
68.5247
60.4657
52.4341
44.3728
36.3416
28.2681
20.2228
12.1196
4.06911
561.424
559.335
558.092
556.884
555.927
554.541
549.42
540.333
530.514
521.407
513.202
505.845
499.196
492.875
486.463
479.663
472.466
464.921
457.157
449.226
441.218
433.136
425.036
416.902
408.774
400.622
392.483
384.331
376.19
368.035
359.891
351.737
343.599
335.445
327.31
319.16
311.035
302.888
294.77
286.633
278.529
270.4
262.302
254.187
246.103
237.999
229.917
221.819
213.747
205.656
197.594
189.5
181.425
173.33
165.263
157.182
149.133
141.057
133.001
124.929
116.874
108.807
100.751
92.6772
84.625
76.5578
68.5252
60.4659
52.4341
44.3726
36.3415
28.268
20.2228
12.1197
4.06915
561.418
559.338
558.092
556.885
555.927
554.533
549.409
540.33
530.516
521.414
513.212
505.858
499.212
492.89
486.475
479.672
472.472
464.924
457.159
449.228
441.219
433.137
425.036
416.902
408.774
400.622
392.483
384.331
376.19
368.035
359.891
351.737
343.599
335.445
327.31
319.16
311.035
302.888
294.77
286.633
278.529
270.4
262.302
254.187
246.103
237.999
229.917
221.819
213.747
205.657
197.594
189.499
181.425
173.33
165.264
157.182
149.133
141.057
133
124.929
116.874
108.807
100.75
92.6769
84.6249
76.5578
68.5257
60.4661
52.4341
44.3724
36.3415
28.268
20.2228
12.1197
4.06915
561.418
559.338
558.092
556.885
555.929
554.533
549.405
540.327
530.516
521.415
513.213
505.859
499.212
492.891
486.476
479.672
472.472
464.924
457.159
449.228
441.219
433.137
425.036
416.902
408.774
400.622
392.483
384.331
376.19
368.035
359.891
351.737
343.599
335.444
327.31
319.16
311.035
302.888
294.77
286.633
278.529
270.4
262.302
254.187
246.103
237.999
229.917
221.819
213.747
205.657
197.595
189.499
181.424
173.33
165.264
157.182
149.133
141.057
133
124.929
116.874
108.807
100.75
92.6766
84.6247
76.5578
68.5262
60.4664
52.4341
44.3721
36.3414
28.2679
20.223
12.1197
4.06908
561.424
559.336
558.093
556.885
555.934
554.543
549.41
540.326
530.513
521.408
513.203
505.845
499.197
492.876
486.464
479.664
472.466
464.921
457.157
449.227
441.218
433.136
425.036
416.902
408.774
400.622
392.483
384.331
376.19
368.035
359.891
351.737
343.599
335.444
327.309
319.16
311.035
302.888
294.769
286.633
278.529
270.4
262.302
254.187
246.103
237.999
229.916
221.819
213.748
205.657
197.595
189.499
181.424
173.33
165.264
157.182
149.133
141.057
133
124.929
116.874
108.807
100.75
92.6763
84.6245
76.5578
68.5267
60.4666
52.4341
44.3719
36.3414
28.2679
20.2231
12.1198
4.06907
561.435
559.33
558.093
556.885
555.94
554.56
549.422
540.327
530.507
521.395
513.185
505.825
499.174
492.854
486.445
479.65
472.458
464.915
457.154
449.225
441.217
433.136
425.036
416.902
408.774
400.622
392.483
384.331
376.19
368.035
359.891
351.737
343.599
335.444
327.309
319.159
311.035
302.888
294.769
286.633
278.529
270.4
262.302
254.187
246.103
237.998
229.916
221.819
213.748
205.657
197.595
189.499
181.424
173.33
165.264
157.182
149.133
141.057
133
124.929
116.874
108.807
100.75
92.6761
84.6243
76.5577
68.5271
60.4668
52.4342
44.3717
36.3415
28.2678
20.2233
12.1198
4.06895
561.449
559.324
558.094
556.884
555.948
554.581
549.439
540.327
530.495
521.377
513.164
505.802
499.151
492.831
486.426
479.635
472.448
464.909
457.15
449.222
441.216
433.135
425.035
416.901
408.774
400.622
392.483
384.331
376.19
368.035
359.891
351.737
343.599
335.444
327.309
319.159
311.035
302.888
294.769
286.633
278.529
270.4
262.302
254.187
246.103
237.998
229.916
221.819
213.748
205.657
197.595
189.499
181.424
173.329
165.264
157.182
149.134
141.056
133
124.929
116.875
108.807
100.75
92.6758
84.6242
76.5576
68.5275
60.467
52.4342
44.3715
36.3415
28.2678
20.2235
12.1198
4.06891
561.465
559.316
558.094
556.883
555.956
554.606
549.46
540.325
530.479
521.356
513.142
505.78
499.129
492.81
486.408
479.621
472.438
464.902
457.146
449.22
441.214
433.134
425.035
416.901
408.774
400.622
392.483
384.331
376.19
368.035
359.891
351.737
343.599
335.444
327.309
319.159
311.035
302.888
294.769
286.633
278.529
270.4
262.302
254.187
246.103
237.998
229.916
221.819
213.748
205.658
197.595
189.499
181.424
173.329
165.264
157.183
149.134
141.056
133
124.928
116.875
108.807
100.75
92.6756
84.624
76.5576
68.5278
60.4671
52.4343
44.3714
36.3416
28.2678
20.2237
12.1199
4.06875
561.482
559.308
558.095
556.882
555.964
554.632
549.483
540.32
530.461
521.334
513.12
505.759
499.11
492.792
486.392
479.609
472.429
464.896
457.142
449.217
441.213
433.133
425.034
416.901
408.774
400.622
392.483
384.331
376.19
368.035
359.891
351.737
343.599
335.444
327.309
319.159
311.035
302.888
294.769
286.633
278.529
270.4
262.302
254.187
246.103
237.998
229.916
221.818
213.748
205.658
197.595
189.499
181.424
173.329
165.264
157.183
149.134
141.056
133
124.928
116.875
108.807
100.75
92.6754
84.6239
76.5575
68.5281
60.4672
52.4343
44.3712
36.3416
28.2679
20.2238
12.1199
4.0687
561.501
559.3
558.095
556.881
555.973
554.66
549.505
540.312
530.442
521.312
513.099
505.741
499.093
492.777
486.379
479.599
472.422
464.891
457.139
449.215
441.212
433.133
425.034
416.901
408.774
400.622
392.483
384.331
376.19
368.035
359.891
351.737
343.599
335.444
327.309
319.159
311.035
302.887
294.769
286.633
278.529
270.4
262.302
254.187
246.103
237.998
229.916
221.818
213.748
205.658
197.595
189.499
181.424
173.329
165.264
157.183
149.134
141.056
133
124.928
116.875
108.807
100.75
92.6752
84.6238
76.5574
68.5284
60.4673
52.4343
44.3711
36.3417
28.2679
20.224
12.1199
4.06854
561.519
559.292
558.096
556.88
555.981
554.688
549.524
540.304
530.422
521.291
513.08
505.725
499.079
492.765
486.369
479.591
472.416
464.887
457.136
449.214
441.211
433.132
425.033
416.9
408.774
400.622
392.483
384.331
376.19
368.035
359.891
351.737
343.599
335.444
327.309
319.159
311.035
302.887
294.769
286.633
278.529
270.4
262.302
254.187
246.103
237.998
229.916
221.818
213.748
205.658
197.596
189.498
181.423
173.329
165.264
157.183
149.134
141.056
133
124.928
116.875
108.807
100.749
92.6751
84.6237
76.5573
68.5286
60.4673
52.4343
44.371
36.3417
28.2679
20.2241
12.1199
4.06849
561.538
559.284
558.096
556.879
555.988
554.716
549.54
540.295
530.403
521.271
513.064
505.711
499.067
492.755
486.361
479.584
472.411
464.884
457.134
449.212
441.21
433.132
425.033
416.9
408.774
400.622
392.483
384.331
376.19
368.035
359.891
351.737
343.599
335.444
327.309
319.159
311.035
302.887
294.769
286.633
278.529
270.4
262.303
254.187
246.103
237.998
229.915
221.818
213.748
205.658
197.596
189.498
181.423
173.329
165.264
157.183
149.134
141.056
133
124.928
116.875
108.807
100.749
92.675
84.6237
76.5573
68.5288
60.4674
52.4344
44.3709
36.3418
28.2679
20.2242
12.1199
4.06835
561.556
559.276
558.096
556.878
555.996
554.741
549.554
540.286
530.385
521.253
513.049
505.699
499.058
492.747
486.355
479.579
472.407
464.881
457.132
449.211
441.209
433.131
425.033
416.9
408.774
400.622
392.483
384.331
376.19
368.035
359.891
351.737
343.599
335.444
327.309
319.159
311.035
302.887
294.769
286.633
278.529
270.4
262.303
254.187
246.103
237.998
229.915
221.818
213.748
205.658
197.596
189.498
181.423
173.329
165.264
157.183
149.134
141.056
133
124.928
116.875
108.807
100.749
92.6749
84.6236
76.5573
68.529
60.4674
52.4344
44.3708
36.3418
28.2679
20.2243
12.1199
4.0683
561.574
559.268
558.096
556.877
556.003
554.762
549.567
540.277
530.368
521.237
513.036
505.69
499.051
492.741
486.35
479.576
472.405
464.88
457.131
449.211
441.209
433.131
425.033
416.9
408.774
400.621
392.483
384.331
376.19
368.035
359.891
351.737
343.599
335.444
327.309
319.159
311.035
302.887
294.769
286.633
278.529
270.4
262.303
254.187
246.103
237.998
229.915
221.818
213.748
205.658
197.596
189.498
181.423
173.329
165.264
157.183
149.134
141.056
133
124.928
116.875
108.807
100.749
92.6748
84.6236
76.5572
68.5292
60.4674
52.4344
44.3707
36.3418
28.2679
20.2243
12.1199
4.06817
561.591
559.261
558.096
556.876
556.009
554.781
549.577
540.267
530.351
521.223
513.026
505.682
499.045
492.737
486.346
479.573
472.403
464.878
457.13
449.21
441.208
433.131
425.033
416.9
408.774
400.621
392.483
384.331
376.19
368.035
359.891
351.737
343.599
335.444
327.309
319.159
311.035
302.887
294.769
286.633
278.529
270.4
262.303
254.187
246.104
237.998
229.915
221.818
213.749
205.658
197.596
189.498
181.423
173.329
165.264
157.183
149.134
141.056
133
124.928
116.875
108.807
100.749
92.6748
84.6237
76.5572
68.5293
60.4674
52.4344
44.3706
36.3419
28.2678
20.2243
12.1199
4.06813
561.607
559.254
558.096
556.876
556.015
554.795
549.586
540.257
530.337
521.211
513.017
505.676
499.041
492.734
486.344
479.571
472.401
464.877
457.13
449.21
441.208
433.13
425.033
416.9
408.773
400.621
392.483
384.331
376.19
368.035
359.891
351.737
343.599
335.444
327.309
319.159
311.035
302.887
294.769
286.633
278.529
270.4
262.303
254.187
246.104
237.998
229.915
221.818
213.749
205.658
197.596
189.498
181.423
173.329
165.265
157.183
149.134
141.056
133
124.928
116.875
108.806
100.749
92.6748
84.6237
76.5572
68.5294
60.4674
52.4344
44.3705
36.3419
28.2678
20.2244
12.1198
4.06802
561.623
559.248
558.096
556.875
556.02
554.807
549.591
540.246
530.323
521.2
513.01
505.672
499.038
492.732
486.342
479.57
472.4
464.876
457.129
449.209
441.208
433.13
425.033
416.9
408.773
400.621
392.483
384.331
376.19
368.035
359.891
351.737
343.599
335.444
327.309
319.159
311.035
302.887
294.769
286.633
278.53
270.4
262.303
254.187
246.104
237.998
229.915
221.818
213.749
205.658
197.596
189.498
181.423
173.329
165.265
157.183
149.134
141.056
133
124.928
116.875
108.806
100.749
92.6748
84.6237
76.5572
68.5295
60.4674
52.4344
44.3704
36.3419
28.2678
20.2243
12.1198
4.06798
561.637
559.242
558.095
556.874
556.023
554.815
549.594
540.235
530.311
521.191
513.004
505.668
499.036
492.73
486.341
479.569
472.4
464.876
457.129
449.209
441.208
433.13
425.033
416.9
408.773
400.621
392.483
384.331
376.19
368.035
359.891
351.737
343.599
335.444
327.309
319.159
311.035
302.887
294.769
286.633
278.53
270.4
262.303
254.187
246.104
237.998
229.916
221.818
213.749
205.658
197.596
189.498
181.423
173.329
165.265
157.183
149.134
141.056
133
124.928
116.876
108.806
100.75
92.6748
84.6238
76.5572
68.5296
60.4674
52.4344
44.3704
36.3419
28.2677
20.2243
12.1197
4.06787
561.651
559.236
558.095
556.874
556.025
554.821
549.593
540.224
530.301
521.184
513
505.666
499.035
492.729
486.341
479.568
472.399
464.876
457.129
449.209
441.208
433.13
425.033
416.9
408.773
400.621
392.483
384.331
376.19
368.035
359.891
351.737
343.599
335.444
327.309
319.159
311.035
302.887
294.769
286.633
278.53
270.4
262.303
254.187
246.104
237.998
229.916
221.818
213.749
205.658
197.596
189.498
181.423
173.329
165.265
157.183
149.134
141.056
133
124.928
116.876
108.806
100.75
92.6748
84.6239
76.5573
68.5296
60.4673
52.4343
44.3703
36.3419
28.2677
20.2242
12.1196
4.06784
561.665
559.231
558.095
556.873
556.025
554.824
549.59
540.213
530.291
521.178
512.996
505.664
499.034
492.729
486.34
479.568
472.399
464.875
457.129
449.209
441.208
433.13
425.032
416.9
408.773
400.621
392.483
384.331
376.19
368.035
359.891
351.737
343.599
335.444
327.309
319.159
311.036
302.887
294.769
286.633
278.53
270.4
262.303
254.187
246.104
237.998
229.916
221.818
213.749
205.658
197.596
189.498
181.423
173.329
165.265
157.183
149.134
141.056
133
124.928
116.876
108.806
100.75
92.6748
84.6239
76.5573
68.5297
60.4673
52.4343
44.3703
36.3418
28.2676
20.2242
12.1195
4.06775
561.677
559.227
558.095
556.873
556.024
554.823
549.583
540.203
530.283
521.173
512.994
505.663
499.034
492.729
486.34
479.568
472.399
464.875
457.128
449.209
441.208
433.13
425.032
416.9
408.773
400.621
392.483
384.331
376.19
368.035
359.891
351.737
343.599
335.444
327.309
319.159
311.036
302.887
294.769
286.633
278.53
270.4
262.303
254.187
246.104
237.998
229.916
221.818
213.749
205.658
197.596
189.498
181.423
173.329
165.265
157.183
149.134
141.056
133
124.928
116.876
108.806
100.75
92.6748
84.624
76.5574
68.5298
60.4673
52.4343
44.3702
36.3418
28.2676
20.2241
12.1194
4.06771
561.689
559.223
558.095
556.872
556.022
554.82
549.574
540.192
530.276
521.169
512.992
505.662
499.034
492.729
486.34
479.568
472.399
464.875
457.128
449.209
441.208
433.13
425.032
416.9
408.773
400.621
392.483
384.331
376.19
368.035
359.891
351.737
343.599
335.444
327.309
319.159
311.036
302.887
294.769
286.633
278.53
270.4
262.303
254.187
246.104
237.998
229.916
221.818
213.749
205.658
197.596
189.498
181.424
173.329
165.265
157.183
149.134
141.056
133
124.928
116.876
108.806
100.75
92.6749
84.6241
76.5574
68.5298
60.4672
52.4343
44.3702
36.3418
28.2675
20.224
12.1193
4.06762
561.7
559.219
558.094
556.871
556.019
554.814
549.562
540.182
530.269
521.166
512.99
505.662
499.034
492.73
486.341
479.568
472.399
464.875
457.128
449.209
441.208
433.13
425.032
416.9
408.773
400.621
392.483
384.331
376.19
368.035
359.891
351.737
343.599
335.444
327.309
319.159
311.036
302.887
294.77
286.633
278.53
270.4
262.303
254.187
246.104
237.998
229.916
221.818
213.749
205.658
197.596
189.498
181.424
173.329
165.265
157.183
149.134
141.056
133
124.928
116.876
108.806
100.75
92.6749
84.6242
76.5575
68.5298
60.4672
52.4342
44.3701
36.3418
28.2674
20.2239
12.1192
4.06758
561.71
559.215
558.094