/*--------------------------------*- C++ -*----------------------------------*\
  =========                 |
  \\      /  F ield         | OpenFOAM: The Open Source CFD Toolbox
   \\    /   O peration     | Website:  https://openfoam.org
    \\  /    A nd           | Version:  7
     \\/     M anipulation  |
\*---------------------------------------------------------------------------*/
FoamFile
{
    version     2.0;
    format      ascii;
    class       surfaceScalarField;
    location    "150";
    object      phi;
}
// * * * * * * * * * * * * * * * * * * * * * * * * * * * * * * * * * * * * * //

dimensions      [0 3 -1 0 0 0 0];

internalField   nonuniform List<scalar> 
8865
(
0.00452286
0.00168736
0.00415034
0.000372914
0.00399192
0.000158876
0.00392074
7.19405e-05
0.00401663
-9.55475e-05
0.00423096
-0.000214645
0.00433135
-0.000100732
0.00431055
2.04235e-05
0.00428077
2.99312e-05
0.00427173
9.24894e-06
0.00427803
-6.28697e-06
0.00429183
-1.38868e-05
0.00430802
-1.64208e-05
0.00432344
-1.58773e-05
0.00433626
-1.27369e-05
0.00434571
-9.30197e-06
0.00435208
-6.49377e-06
0.00435608
-4.33511e-06
0.0043585
-2.7962e-06
0.00435991
-1.86324e-06
0.00436073
-7.32122e-07
0.00436116
-4.15946e-07
0.0043614
-1.90571e-07
0.00436149
-1.77629e-07
0.00436156
3.25973e-08
0.00436158
-5.37946e-08
0.00436161
-3.1239e-08
0.00436162
-1.03503e-07
0.00436166
2.49758e-07
0.00436169
1.80001e-07
0.0043617
1.24629e-07
0.00436173
-3.97258e-08
0.00436183
4.18109e-07
0.00436192
1.55322e-07
0.00436203
1.6885e-07
0.00436215
-2.03248e-07
0.0043624
4.5843e-07
0.00436261
8.40763e-08
0.00436284
1.01677e-07
0.00436308
-3.89624e-07
0.00436343
3.81065e-07
0.00436374
3.86179e-08
0.00436415
-2.2564e-07
0.00436468
-7.64386e-07
0.00436528
-4.92976e-07
0.00436565
5.93919e-08
0.00436572
6.12399e-08
0.00436567
-1.08183e-07
0.00436586
-4.23667e-07
0.00436624
-9.46155e-07
0.00436663
5.23676e-08
0.0043667
5.71334e-07
0.00436653
5.15707e-07
0.00436641
1.60452e-07
0.00436664
-3.12332e-07
0.00436713
-9.62999e-07
0.00436767
-3.01967e-07
0.00436798
1.45292e-07
0.00436809
-2.19861e-07
0.00436819
2.00769e-07
0.00436848
-5.21928e-07
0.00436871
2.80575e-07
0.00436864
2.72956e-07
0.00436834
4.17576e-07
0.00436803
-1.15515e-08
0.00436792
-1.8031e-07
0.00436836
-8.18043e-07
0.00436891
-8.79725e-07
0.00436927
-1.07347e-06
0.00436922
-6.58583e-07
0.00436897
-6.16928e-07
0.0043685
-1.10275e-07
0.00436804
-3.90948e-07
0.00436753
-4.00698e-07
-4.52486e-07
0.00573447
0.00277702
0.00532445
0.000783201
0.00510834
0.000375272
0.00500645
0.0001743
0.00508925
-0.000178137
0.00522698
-0.000352529
0.00520561
-7.95125e-05
0.00511333
0.000112536
0.00505443
8.8897e-05
0.00503379
2.99742e-05
0.00503558
-8.07129e-06
0.00504806
-2.64059e-05
0.00506425
-3.2701e-05
0.00508
-3.18118e-05
0.00509304
-2.57457e-05
0.00510258
-1.87803e-05
0.00510893
-1.28928e-05
0.00511288
-8.42478e-06
0.00511525
-5.31739e-06
0.00511663
-3.43782e-06
0.00511742
-1.47124e-06
0.00511784
-8.30317e-07
0.00511805
-3.8457e-07
0.00511813
-2.67376e-07
0.00511819
-6.71154e-09
0.00511822
-9.42656e-08
0.00511824
-5.99585e-08
0.00511826
-1.49697e-07
0.0051183
3.14441e-07
0.00511834
2.26977e-07
0.00511835
1.63922e-07
0.0051184
-9.24979e-08
0.00511852
4.98156e-07
0.00511866
1.13811e-07
0.0051188
1.4217e-07
0.00511899
-4.26091e-07
0.00511931
4.18415e-07
0.00511962
-1.13347e-07
0.00511992
-6.88468e-08
0.00512028
-8.11357e-07
0.00512073
2.18686e-07
0.00512118
-2.68562e-07
0.00512172
-6.9524e-07
0.00512245
-1.58557e-06
0.00512323
-1.23797e-06
0.00512372
-2.58283e-07
0.00512381
2.51577e-08
0.00512379
-1.50193e-07
0.00512406
-7.78856e-07
0.00512457
-1.6924e-06
0.00512505
-2.4675e-07
0.00512512
7.526e-07
0.00512489
8.8721e-07
0.00512477
2.91965e-07
0.00512509
-6.65673e-07
0.00512577
-1.82736e-06
0.00512644
-8.8202e-07
0.00512684
-7.66717e-08
0.00512695
-3.81812e-07
0.0051271
1.7816e-07
0.00512748
-1.00214e-06
0.00512777
2.00932e-07
0.00512765
4.64239e-07
0.0051273
8.23487e-07
0.00512692
2.38072e-07
0.00512684
-2.04788e-07
0.00512742
-1.55152e-06
0.00512813
-1.72312e-06
0.00512854
-1.75975e-06
0.00512846
-8.52115e-07
0.00512806
-5.70278e-07
0.00512742
3.12811e-07
0.00512672
-4.44224e-08
0.00512605
-7.75977e-08
-6.74364e-07
0.00677259
0.00350319
0.00634482
0.00121121
0.00607757
0.000642748
0.00594193
0.00031029
0.00598441
-0.000220478
0.00602549
-0.000393704
0.00590395
4.19465e-05
0.0057675
0.000248906
0.00569286
0.000163576
0.00566689
5.59792e-05
0.00566749
-8.66717e-06
0.00568055
-3.94805e-05
0.00569788
-5.00744e-05
0.0057147
-4.87245e-05
0.0057285
-3.95279e-05
0.0057385
-2.87493e-05
0.00574509
-1.95107e-05
0.00574917
-1.25711e-05
0.0057516
-7.82481e-06
0.00575301
-4.94006e-06
0.00575381
-2.25339e-06
0.00575423
-1.25443e-06
0.00575444
-5.80813e-07
0.00575452
-3.83223e-07
0.00575457
-1.43894e-08
0.0057546
-1.33453e-07
0.00575463
-8.71677e-08
0.00575464
-1.87358e-07
0.00575469
3.2754e-07
0.00575473
2.29991e-07
0.00575475
1.75236e-07
0.0057548
-1.50698e-07
0.00575495
4.58276e-07
0.00575512
5.63523e-10
0.00575528
4.0463e-08
0.0057555
-6.70635e-07
0.00575588
1.9302e-07
0.00575625
-4.22735e-07
0.0057566
-3.52773e-07
0.00575704
-1.27615e-06
0.00575756
-1.53159e-07
0.00575808
-7.19873e-07
0.00575872
-1.29005e-06
0.00575957
-2.49071e-06
0.00576048
-2.12121e-06
0.00576105
-7.3665e-07
0.00576114
-4.72654e-08
0.00576114
-1.74138e-07
0.00576145
-1.14564e-06
0.00576207
-2.42252e-06
0.0057626
-6.90781e-07
0.00576267
8.16615e-07
0.00576239
1.239e-06
0.00576227
4.18959e-07
0.00576266
-1.07177e-06
0.00576346
-2.72554e-06
0.00576423
-1.59996e-06
0.00576469
-4.42618e-07
0.00576481
-5.20367e-07
0.00576499
5.88523e-08
0.00576543
-1.48306e-06
0.00576576
-3.02805e-08
0.00576561
6.61181e-07
0.0057652
1.25564e-06
0.00576478
5.94349e-07
0.00576471
-2.06294e-07
0.00576539
-2.30098e-06
0.00576621
-2.62007e-06
0.00576666
-2.35198e-06
0.00576655
-9.03438e-07
0.00576606
-2.55339e-07
0.0057653
9.51503e-07
0.00576446
6.27356e-07
0.00576368
5.12923e-07
-3.15565e-07
0.00776837
0.00397498
0.00736563
0.00161417
0.0070616
0.00094701
0.00689034
0.000481921
0.00687389
-0.000203878
0.00681098
-0.000330875
0.00660464
0.000248209
0.00643398
0.000419482
0.00634716
0.000250434
0.0063174
8.57739e-05
0.00631773
-8.99129e-06
0.00633203
-5.3801e-05
0.00635103
-6.91221e-05
0.00636937
-6.71461e-05
0.00638428
-5.44274e-05
0.00639501
-3.9445e-05
0.00640203
-2.65594e-05
0.00640635
-1.69594e-05
0.00640892
-1.04646e-05
0.00641041
-6.52639e-06
0.00641125
-3.06075e-06
0.00641169
-1.6967e-06
0.0064119
-7.84607e-07
0.00641198
-4.58723e-07
0.00641203
-6.09288e-08
0.00641206
-1.72273e-07
0.00641209
-1.18002e-07
0.00641211
-2.17972e-07
0.00641217
3.22041e-07
0.00641221
2.2531e-07
0.00641223
1.81955e-07
0.00641229
-2.19986e-07
0.00641246
3.90716e-07
0.00641265
-1.40665e-07
0.00641283
-8.61834e-08
0.00641309
-9.48297e-07
0.00641351
-9.37233e-08
0.00641393
-7.88597e-07
0.00641433
-6.88046e-07
0.00641482
-1.7994e-06
0.00641541
-6.05612e-07
0.006416
-1.24745e-06
0.00641672
-1.97161e-06
0.00641769
-3.50501e-06
0.00641871
-3.12506e-06
0.00641934
-1.28313e-06
0.00641944
-1.27107e-07
0.00641944
-1.95667e-07
0.0064198
-1.55392e-06
0.00642049
-3.22561e-06
0.00642109
-1.20279e-06
0.00642116
8.70706e-07
0.00642084
1.62267e-06
0.00642071
5.52134e-07
0.00642116
-1.5356e-06
0.00642207
-3.72335e-06
0.00642292
-2.41405e-06
0.00642344
-8.65411e-07
0.00642356
-6.7131e-07
0.00642376
-8.2014e-08
0.00642426
-2.0332e-06
0.00642463
-2.96087e-07
0.00642445
8.73754e-07
0.00642399
1.73701e-06
0.00642352
1.00515e-06
0.00642346
-1.91386e-07
0.00642423
-3.14673e-06
0.00642516
-3.60615e-06
0.00642564
-2.96957e-06
0.00642551
-9.01149e-07
0.00642495
1.40533e-07
0.00642408
1.71892e-06
0.00642312
1.40985e-06
0.00642224
1.23512e-06
-2.41687e-07
0.00876052
0.00426928
0.00841862
0.00195629
0.00810007
0.00126579
0.00789549
0.000686829
0.00780808
-0.000116352
0.00763723
-0.000160085
0.00735439
0.000530997
0.00715255
0.000621267
0.00705408
0.000348921
0.00702072
0.000119165
0.00702103
-9.30267e-06
0.00703693
-6.97099e-05
0.007058
-9.02219e-05
0.00707822
-8.74294e-05
0.00709457
-7.07694e-05
0.00710627
-5.11244e-05
0.0071139
-3.42074e-05
0.00711859
-2.16887e-05
0.00712136
-1.32922e-05
0.00712297
-8.19479e-06
0.00712387
-3.94913e-06
0.00712435
-2.17399e-06
0.00712457
-1.00299e-06
0.00712465
-5.733e-07
0.0071247
-7.55856e-08
0.00712474
-2.14391e-07
0.00712477
-1.4967e-07
0.00712479
-2.52074e-07
0.00712485
3.04373e-07
0.0071249
2.06553e-07
0.00712492
1.80529e-07
0.00712499
-2.94227e-07
0.00712518
2.79967e-07
0.00712539
-3.12416e-07
0.00712558
-2.44879e-07
0.00712588
-1.25017e-06
0.00712634
-4.57914e-07
0.00712681
-1.21155e-06
0.00712725
-1.08095e-06
0.0071278
-2.37054e-06
0.00712845
-1.15312e-06
0.00712911
-1.85359e-06
0.0071299
-2.73893e-06
0.00713098
-4.61598e-06
0.00713211
-4.23678e-06
0.0071328
-1.91641e-06
0.00713291
-2.20613e-07
0.00713291
-2.12204e-07
0.00713332
-1.99697e-06
0.00713409
-4.07935e-06
0.00713474
-1.79373e-06
0.00713481
8.96026e-07
0.00713445
2.02978e-06
0.00713432
6.9284e-07
0.00713482
-2.0512e-06
0.00713583
-4.80185e-06
0.00713678
-3.32446e-06
0.00713734
-1.36066e-06
0.00713747
-8.18964e-07
0.0071377
-2.69304e-07
0.00713825
-2.61355e-06
0.00713866
-6.34202e-07
0.00713845
1.11309e-06
0.00713795
2.26219e-06
0.00713742
1.47927e-06
0.00713736
-1.78138e-07
0.00713822
-4.05149e-06
0.00713924
-4.67918e-06
0.00713977
-3.59804e-06
0.00713961
-8.59241e-07
0.00713898
6.57165e-07
0.00713801
2.60033e-06
0.00713695
2.35845e-06
0.00713597
2.07763e-06
2.42021e-07
0.0097774
0.00444197
0.00951449
0.0022194
0.00920922
0.00157129
0.00897923
0.000917189
0.00881378
4.92457e-05
0.00853146
0.000122165
0.0081754
0.000886997
0.00794234
0.000854264
0.00783153
0.000459753
0.0077942
0.000156536
0.0077945
-9.60642e-06
0.00781224
-8.74657e-05
0.00783575
-0.000113766
0.00785826
-0.000110012
0.0078764
-8.89052e-05
0.00788935
-6.40488e-05
0.00789778
-4.26567e-05
0.00790295
-2.69078e-05
0.00790601
-1.64113e-05
0.00790778
-1.00485e-05
0.00790877
-4.91228e-06
0.00790929
-2.69808e-06
0.00790954
-1.24453e-06
0.00790963
-6.58129e-07
0.00790969
-1.31946e-07
0.00790973
-2.58794e-07
0.00790976
-1.86215e-07
0.00790978
-2.82098e-07
0.00790985
2.75802e-07
0.0079099
1.85883e-07
0.00790993
1.78483e-07
0.00791001
-3.78579e-07
0.00791021
1.58013e-07
0.00791044
-5.02387e-07
0.00791065
-4.18467e-07
0.00791097
-1.58338e-06
0.00791148
-8.59598e-07
0.007912
-1.67764e-06
0.00791248
-1.5117e-06
0.00791308
-2.9977e-06
0.0079138
-1.75557e-06
0.00791452
-2.52027e-06
0.00791539
-3.58324e-06
0.00791657
-5.83656e-06
0.00791781
-5.4629e-06
0.00791857
-2.60402e-06
0.00791868
-3.1738e-07
0.00791868
-2.25638e-07
0.00791912
-2.48282e-06
0.00791997
-5.01819e-06
0.00792069
-2.44272e-06
0.00792076
9.2555e-07
0.00792037
2.47704e-06
0.00792022
8.47339e-07
0.00792077
-2.61855e-06
0.00792188
-5.98586e-06
0.00792292
-4.32491e-06
0.00792353
-1.90184e-06
0.00792368
-9.85556e-07
0.00792393
-4.6759e-07
0.00792454
-3.26809e-06
0.00792498
-9.93104e-07
0.00792475
1.371e-06
0.00792419
2.84314e-06
0.00792362
2.00599e-06
0.00792354
-1.45789e-07
0.00792449
-5.05598e-06
0.00792561
-5.85018e-06
0.00792618
-4.27903e-06
0.007926
-7.90694e-07
0.0079253
1.21964e-06
0.00792424
3.58363e-06
0.00792307
3.3801e-06
0.007922
3.01621e-06
4.10559e-07
0.0108417
0.00453411
0.0106591
0.00240218
0.0103944
0.0018362
0.0101536
0.00115838
0.00990876
0.00029418
0.00951283
0.000518043
0.009084
0.00131577
0.00881801
0.0011202
0.00869342
0.000584368
0.00865138
0.000198599
0.00865152
-9.74544e-06
0.00867131
-0.000107266
0.00869765
-0.00014014
0.0087229
-0.000135318
0.00874326
-0.000109248
0.00875778
-7.85488e-05
0.00876723
-5.2125e-05
0.00877302
-3.27463e-05
0.00877646
-1.98939e-05
0.00877845
-1.20928e-05
0.00877956
-6.01516e-06
0.00878015
-3.29032e-06
0.00878043
-1.5186e-06
0.00878054
-7.98129e-07
0.0087806
-1.55495e-07
0.00878064
-3.09323e-07
0.00878068
-2.24858e-07
0.0087807
-3.19172e-07
0.00878078
2.41392e-07
0.00878084
1.54904e-07
0.00878086
1.71266e-07
0.00878095
-4.6698e-07
0.00878117
4.85464e-09
0.00878142
-7.15996e-07
0.00878165
-6.16328e-07
0.008782
-1.93911e-06
0.00878255
-1.3215e-06
0.00878311
-2.19179e-06
0.00878363
-1.98997e-06
0.00878429
-3.67075e-06
0.00878506
-2.43483e-06
0.00878584
-3.25525e-06
0.00878679
-4.50648e-06
0.00878808
-7.15538e-06
0.00878943
-6.79435e-06
0.00879025
-3.37192e-06
0.00879037
-4.25499e-07
0.00879036
-2.33103e-07
0.00879085
-3.00248e-06
0.00879177
-6.0168e-06
0.00879255
-3.16658e-06
0.00879263
9.3326e-07
0.0087922
2.95429e-06
0.00879204
1.01728e-06
0.00879263
-3.23015e-06
0.00879384
-7.25442e-06
0.00879497
-5.4201e-06
0.00879564
-2.51148e-06
0.0087958
-1.15482e-06
0.00879607
-7.0572e-07
0.00879674
-3.9557e-06
0.00879722
-1.41692e-06
0.00879697
1.65689e-06
0.00879635
3.47445e-06
0.00879571
2.59942e-06
0.00879562
-1.08492e-07
0.00879665
-6.11983e-06
0.00879787
-7.11719e-06
0.00879849
-4.9938e-06
0.0087983
-7.04745e-07
0.00879754
1.87725e-06
0.00879638
4.66006e-06
0.00879511
4.54307e-06
0.00879395
4.0477e-06
1.01076e-06
0.0119751
0.00457398
0.0118619
0.0025155
0.0116559
0.0020424
0.0114239
0.00139082
0.0111061
0.000612119
0.0105979
0.00102616
0.0100954
0.00181825
0.00979365
0.00142186
0.00965321
0.000724832
0.00960543
0.000246414
0.00960509
-9.41164e-06
0.0096271
-0.000129283
0.00965671
-0.00016979
0.00968522
-0.000163902
0.00970827
-0.00013228
0.00972474
-9.49947e-05
0.00973548
-6.28889e-05
0.00974208
-3.93974e-05
0.009746
-2.38692e-05
0.00974828
-1.4445e-05
0.00974955
-7.26129e-06
0.00975023
-3.96942e-06
0.00975055
-1.83816e-06
0.00975068
-9.15475e-07
0.00975075
-2.32062e-07
0.0097508
-3.64968e-07
0.00975085
-2.69843e-07
0.00975087
-3.52377e-07
0.00975095
1.95167e-07
0.00975102
1.22011e-07
0.00975104
1.63784e-07
0.00975114
-5.64549e-07
0.00975138
-1.56251e-07
0.00975164
-9.45156e-07
0.00975189
-8.2585e-07
0.00975226
-2.32292e-06
0.00975286
-1.81539e-06
0.00975346
-2.74519e-06
0.00975402
-2.50137e-06
0.00975472
-4.39479e-06
0.00975555
-3.16291e-06
0.0097564
-4.04639e-06
0.00975742
-5.50268e-06
0.00975881
-8.58045e-06
0.00976027
-8.24026e-06
0.00976115
-4.19545e-06
0.00976128
-5.37822e-07
0.00976126
-2.32714e-07
0.00976178
-3.5585e-06
0.00976278
-7.09927e-06
0.00976363
-3.95285e-06
0.00976372
9.39072e-07
0.00976325
3.47116e-06
0.00976307
1.20979e-06
0.00976371
-3.88213e-06
0.009765
-8.62247e-06
0.00976623
-6.60827e-06
0.00976695
-3.17238e-06
0.00976713
-1.34885e-06
0.00976742
-9.52096e-07
0.00976815
-4.71796e-06
0.00976867
-1.86234e-06
0.0097684
1.95741e-06
0.00976772
4.16628e-06
0.00976702
3.25655e-06
0.00976691
-3.65718e-08
0.00976801
-7.27473e-06
0.00976933
-8.48459e-06
0.00977
-5.77194e-06
0.0097698
-6.02492e-07
0.00976898
2.56829e-06
0.00976773
5.82832e-06
0.00976637
5.7653e-06
0.00976513
5.16619e-06
1.24103e-06
0.0131983
0.00457868
0.0131378
0.00257602
0.0129947
0.00218568
0.0127913
0.00159451
0.0124162
0.000987342
0.0118027
0.00163965
0.0112252
0.00239573
0.0108841
0.00176289
0.0107252
0.000883762
0.0106703
0.000301363
0.010669
-8.11888e-06
0.0106933
-0.000153626
0.0107266
-0.000203169
0.010759
-0.000196335
0.0107853
-0.000158573
0.0108042
-0.00011385
0.0108166
-7.5263e-05
0.0108242
-4.70563e-05
0.0108287
-2.84504e-05
0.0108313
-1.71336e-05
0.0108328
-8.73327e-06
0.0108336
-4.76555e-06
0.010834
-2.2174e-06
0.0108342
-1.1071e-06
0.0108342
-2.79429e-07
0.0108343
-4.30329e-07
0.0108344
-3.18573e-07
0.0108344
-3.95126e-07
0.0108345
1.44773e-07
0.0108345
7.92617e-08
0.0108346
1.52017e-07
0.0108347
-6.64557e-07
0.0108349
-3.43509e-07
0.0108352
-1.19395e-06
0.0108355
-1.0547e-06
0.0108359
-2.72456e-06
0.0108365
-2.36074e-06
0.0108371
-3.34052e-06
0.0108377
-3.05296e-06
0.0108385
-5.15766e-06
0.0108394
-3.95788e-06
0.0108403
-4.89885e-06
0.0108414
-6.57063e-06
0.0108428
-1.00981e-05
0.0108444
-9.78835e-06
0.0108454
-5.09989e-06
0.0108455
-6.62059e-07
0.0108455
-2.21905e-07
0.010846
-4.13984e-06
0.0108471
-8.23897e-06
0.010848
-4.81736e-06
0.0108481
9.16671e-07
0.0108476
4.01777e-06
0.0108474
1.42769e-06
0.0108481
-4.56338e-06
0.0108495
-1.00664e-05
0.0108508
-7.89215e-06
0.0108516
-3.90669e-06
0.0108518
-1.5514e-06
0.0108521
-1.23578e-06
0.0108529
-5.51051e-06
0.0108534
-2.37366e-06
0.0108531
2.28178e-06
0.0108524
4.91312e-06
0.0108516
3.99209e-06
0.0108515
5.7318e-08
0.0108526
-8.47649e-06
0.0108541
-9.94993e-06
0.0108548
-6.5974e-06
0.0108546
-4.98241e-07
0.0108537
3.33821e-06
0.0108524
7.07265e-06
0.0108509
7.11299e-06
0.0108496
6.35995e-06
1.92681e-06
0.0145293
0.00455777
0.0145059
0.00259953
0.014418
0.0022738
0.0142564
0.00175637
0.0138478
0.00139609
0.0131433
0.00234415
0.0124902
0.00304872
0.0121056
0.00214745
0.011925
0.00106439
0.0118611
0.000365251
0.0118582
-5.16304e-06
0.0118849
-0.000180338
0.0119224
-0.000240783
0.0119594
-0.000233329
0.0119896
-0.00018879
0.0120114
-0.000135641
0.0120258
-8.96391e-05
0.0120347
-5.59924e-05
0.01204
-3.38152e-05
0.0120431
-2.0307e-05
0.0120448
-1.04506e-05
0.0120457
-5.70827e-06
0.0120462
-2.67568e-06
0.0120464
-1.28965e-06
0.0120465
-3.94394e-07
0.0120466
-5.05122e-07
0.0120466
-3.75683e-07
0.0120467
-4.34634e-07
0.0120468
8.10247e-08
0.0120468
3.40155e-08
0.0120469
1.40115e-07
0.012047
-7.71992e-07
0.0120472
-5.35122e-07
0.0120475
-1.45455e-06
0.0120478
-1.29047e-06
0.0120482
-3.14791e-06
0.0120489
-2.93046e-06
0.0120496
-3.96854e-06
0.0120502
-3.62983e-06
0.012051
-5.96124e-06
0.0120519
-4.79233e-06
0.0120529
-5.79946e-06
0.012054
-7.70235e-06
0.0120556
-1.17112e-05
0.0120573
-1.14458e-05
0.0120583
-6.06069e-06
0.0120584
-7.91996e-07
0.0120584
-1.96316e-07
0.012059
-4.7451e-06
0.0120601
-9.45462e-06
0.0120611
-5.74896e-06
0.0120612
8.81175e-07
0.0120607
4.6001e-06
0.0120605
1.67967e-06
0.0120611
-5.26546e-06
0.0120626
-1.15942e-05
0.012064
-9.26896e-06
0.0120649
-4.69911e-06
0.0120651
-1.78582e-06
0.0120654
-1.52445e-06
0.0120662
-6.37412e-06
0.0120669
-2.90821e-06
0.0120666
2.61351e-06
0.0120658
5.72399e-06
0.0120649
4.80609e-06
0.0120647
2.09084e-07
0.0120659
-9.74999e-06
0.0120674
-1.15125e-05
0.0120682
-7.49625e-06
0.012068
-3.91107e-07
0.0120671
4.12477e-06
0.0120657
8.39152e-06
0.0120642
8.50036e-06
0.0120628
7.62547e-06
2.18899e-06
0.0159843
0.00451638
0.0159868
0.00259717
0.0159408
0.00231985
0.0158245
0.00187293
0.0154096
0.00181108
0.0146363
0.00311745
0.0139089
0.00377597
0.0134762
0.00258012
0.0132701
0.00127053
0.0131951
0.000440321
0.0131895
4.42725e-07
0.0132184
-0.00020933
0.0132607
-0.000283115
0.013303
-0.000275615
0.0133379
-0.000223699
0.0133633
-0.000161008
0.0133801
-0.000106464
0.0133905
-6.64923e-05
0.0133968
-4.01346e-05
0.0134005
-2.40257e-05
0.0134025
-1.25217e-05
0.0134037
-6.84077e-06
0.0134042
-3.23463e-06
0.0134045
-1.57771e-06
0.0134046
-4.83819e-07
0.0134047
-5.95036e-07
0.0134048
-4.3893e-07
0.0134048
-4.87445e-07
0.0134049
1.47668e-08
0.013405
-2.13527e-08
0.013405
1.24497e-07
0.0134051
-8.79107e-07
0.0134054
-7.47718e-07
0.0134057
-1.72936e-06
0.013406
-1.53877e-06
0.0134064
-3.58014e-06
0.0134071
-3.54042e-06
0.0134079
-4.62866e-06
0.0134085
-4.23542e-06
0.0134093
-6.78941e-06
0.0134103
-5.67955e-06
0.0134113
-6.7493e-06
0.0134125
-8.8916e-06
0.0134142
-1.34011e-05
0.0134159
-1.31944e-05
0.013417
-7.10136e-06
0.0134172
-9.3444e-07
0.0134171
-1.53279e-07
0.0134177
-5.35973e-06
0.0134189
-1.07155e-05
0.01342
-6.76182e-06
0.0134201
8.05322e-07
0.0134196
5.20739e-06
0.0134193
1.9695e-06
0.01342
-5.97211e-06
0.0134215
-1.31761e-05
0.013423
-1.07375e-05
0.0134239
-5.57072e-06
0.0134242
-2.03527e-06
0.0134245
-1.84774e-06
0.0134254
-7.25932e-06
0.013426
-3.51051e-06
0.0134257
2.96129e-06
0.0134249
6.59233e-06
0.0134239
5.71366e-06
0.0134237
4.08352e-07
0.0134249
-1.10444e-05
0.0134265
-1.31667e-05
0.0134274
-8.45351e-06
0.0134272
-3.00564e-07
0.0134262
4.96894e-06
0.0134248
9.75969e-06
0.0134232
9.99022e-06
0.0134218
8.9401e-06
2.96802e-06
0.0175785
0.00445727
0.0176
0.00257574
0.017584
0.00233593
0.0175088
0.00194842
0.0171127
0.00220724
0.0162989
0.00393122
0.0155015
0.00457324
0.0150162
0.00306536
0.0147802
0.00150661
0.0146911
0.00052938
0.0146816
1.00376e-05
0.0147126
-0.000240351
0.0147601
-0.000330648
0.0148084
-0.000324048
0.0148489
-0.00026417
0.0148786
-0.000190666
0.0148984
-0.000126277
0.0149108
-7.89252e-05
0.0149182
-4.76517e-05
0.0149226
-2.84828e-05
0.0149251
-1.49858e-05
0.0149264
-8.20725e-06
0.0149271
-3.92232e-06
0.0149275
-1.87586e-06
0.0149276
-6.64261e-07
0.0149277
-7.01111e-07
0.0149278
-5.13608e-07
0.0149278
-5.37469e-07
0.014928
-6.75268e-08
0.014928
-8.00573e-08
0.0149281
1.08735e-07
0.0149282
-9.90843e-07
0.0149285
-9.59436e-07
0.0149288
-2.0097e-06
0.0149291
-1.78649e-06
0.0149295
-4.02305e-06
0.0149302
-4.16204e-06
0.014931
-5.30924e-06
0.0149316
-4.85272e-06
0.0149325
-7.63984e-06
0.0149335
-6.58952e-06
0.0149345
-7.73155e-06
0.0149358
-1.01264e-05
0.0149375
-1.51636e-05
0.0149394
-1.50373e-05
0.0149405
-8.19426e-06
0.0149407
-1.08342e-06
0.0149406
-8.54811e-08
0.0149412
-5.97809e-06
0.0149424
-1.2035e-05
0.0149436
-7.84332e-06
0.0149438
7.01227e-07
0.0149432
5.84161e-06
0.0149429
2.30738e-06
0.0149435
-6.66963e-06
0.0149451
-1.48122e-05
0.0149467
-1.22911e-05
0.0149477
-6.50549e-06
0.014948
-2.32505e-06
0.0149483
-2.17086e-06
0.0149492
-8.20705e-06
0.0149499
-4.13562e-06
0.0149496
3.30543e-06
0.0149487
7.52582e-06
0.0149477
6.71647e-06
0.0149473
6.9779e-07
0.0149486
-1.2377e-05
0.0149503
-1.49045e-05
0.0149512
-9.49213e-06
0.014951
-2.24849e-07
0.0149501
5.8039e-06
0.0149486
1.11731e-05
0.0149469
1.14864e-05
0.0149455
1.02995e-05
3.23259e-06
0.019327
0.00438183
0.0193638
0.00253903
0.0193694
0.00233038
0.0193282
0.00198979
0.0189716
0.00256387
0.0181491
0.00475366
0.01729
0.00543225
0.0167482
0.0036071
0.0164773
0.00177757
0.0163709
0.000635815
0.0163555
2.54095e-05
0.0163881
-0.000272888
0.0164411
-0.00038376
0.0164965
-0.000379468
0.0165435
-0.000311167
0.0165783
-0.00022545
0.0166017
-0.000149676
0.0166164
-9.36854e-05
0.0166253
-5.66068e-05
0.0166306
-3.37778e-05
0.0166335
-1.79834e-05
0.0166352
-9.86727e-06
0.0166361
-4.77002e-06
0.0166365
-2.3202e-06
0.0166367
-8.29959e-07
0.0166368
-8.30463e-07
0.0166369
-5.98027e-07
0.0166369
-6.04917e-07
0.0166371
-1.51552e-07
0.0166372
-1.49604e-07
0.0166372
8.95729e-08
0.0166373
-1.09825e-06
0.0166376
-1.18568e-06
0.0166379
-2.29617e-06
0.0166382
-2.03685e-06
0.0166386
-4.46027e-06
0.0166394
-4.80736e-06
0.0166401
-6.00561e-06
0.0166408
-5.48059e-06
0.0166416
-8.49081e-06
0.0166427
-7.5299e-06
0.0166437
-8.74194e-06
0.016645
-1.13938e-05
0.0166468
-1.69724e-05
0.0166487
-1.69478e-05
0.01665
-9.35963e-06
0.0166501
-1.24383e-06
0.01665
1.01953e-08
0.0166506
-6.58088e-06
0.0166518
-1.33757e-05
0.0166531
-9.00487e-06
0.0166533
5.40419e-07
0.0166527
6.4902e-06
0.0166523
2.69719e-06
0.016653
-7.33567e-06
0.0166546
-1.64639e-05
0.0166562
-1.39222e-05
0.0166573
-7.52235e-06
0.0166576
-2.63681e-06
0.016658
-2.5244e-06
0.016659
-9.16139e-06
0.0166597
-4.82796e-06
0.0166594
3.65407e-06
0.0166584
8.51588e-06
0.0166573
7.82974e-06
0.0166568
1.06987e-06
0.0166581
-1.36882e-05
0.0166599
-1.67145e-05
0.0166609
-1.05957e-05
0.0166607
-1.87734e-07
0.0166597
6.66602e-06
0.0166582
1.25955e-05
0.0166566
1.30469e-05
0.016655
1.16686e-05
4.06082e-06
0.0212463
0.0042907
0.0212962
0.00248914
0.0213185
0.00230823
0.0213045
0.00200396
0.0210035
0.00286492
0.0202054
0.0055517
0.0192983
0.00633929
0.0186975
0.00420781
0.0183864
0.0020887
0.0182585
0.000763697
0.0182351
4.88853e-05
0.0182683
-0.000306096
0.0183272
-0.000442714
0.0183904
-0.00044277
0.018445
-0.000365722
0.0184858
-0.000266258
0.0185134
-0.000177352
0.018531
-0.000111247
0.0185416
-6.73129e-05
0.0185479
-4.01519e-05
0.0185515
-2.15755e-05
0.0185535
-1.18813e-05
0.0185546
-5.81566e-06
0.0185551
-2.80525e-06
0.0185554
-1.11665e-06
0.0185555
-9.85897e-07
0.0185556
-6.98299e-07
0.0185557
-6.70866e-07
0.0185558
-2.54211e-07
0.0185559
-2.23166e-07
0.0185559
7.02991e-08
0.0185561
-1.20618e-06
0.0185564
-1.40305e-06
0.0185567
-2.57806e-06
0.018557
-2.27491e-06
0.0185574
-4.89101e-06
0.0185581
-5.44365e-06
0.0185589
-6.70156e-06
0.0185595
-6.0979e-06
0.0185604
-9.33464e-06
0.0185614
-8.46458e-06
0.0185625
-9.75701e-06
0.0185638
-1.26756e-05
0.0185656
-1.88146e-05
0.0185676
-1.89218e-05
0.0185689
-1.05633e-05
0.018569
-1.40855e-06
0.0185689
1.44312e-07
0.0185694
-7.15828e-06
0.0185707
-1.47453e-05
0.018572
-1.02295e-05
0.0185723
3.34656e-07
0.0185717
7.15122e-06
0.0185712
3.1501e-06
0.0185718
-7.9514e-06
0.0185734
-1.8122e-05
0.0185752
-1.56168e-05
0.0185763
-8.60114e-06
0.0185767
-2.99717e-06
0.018577
-2.87017e-06
0.018578
-1.01632e-05
0.0185788
-5.53811e-06
0.0185785
3.9854e-06
0.0185775
9.56839e-06
0.0185762
9.05492e-06
0.0185756
1.573e-06
0.0185769
-1.49867e-05
0.0185787
-1.85794e-05
0.0185798
-1.1784e-05
0.0185797
-1.87959e-07
0.0185787
7.48116e-06
0.0185772
1.40169e-05
0.0185755
1.4561e-05
0.018574
1.30363e-05
4.27573e-06
0.0233536
0.00418399
0.0234157
0.0024271
0.0234518
0.00227219
0.02346
0.00199592
0.0232267
0.00309826
0.0224864
0.00629183
0.0215517
0.00727392
0.020892
0.00486746
0.0205354
0.00244532
0.0203814
0.000917726
0.0203468
8.34416e-05
0.0203794
-0.00033866
0.0204441
-0.000507497
0.020516
-0.000514721
0.0205792
-0.000428895
0.020627
-0.000314065
0.0206597
-0.000210025
0.0206805
-0.000132095
0.0206932
-8.00687e-05
0.0207007
-4.77361e-05
0.0207051
-2.59324e-05
0.0207075
-1.43237e-05
0.0207088
-7.09988e-06
0.0207094
-3.49153e-06
0.0207098
-1.40307e-06
0.02071
-1.17579e-06
0.0207101
-8.13417e-07
0.0207102
-7.59813e-07
0.0207103
-3.57126e-07
0.0207104
-3.08017e-07
0.0207105
4.79683e-08
0.0207106
-1.30435e-06
0.0207109
-1.62584e-06
0.0207112
-2.85385e-06
0.0207115
-2.50112e-06
0.0207118
-5.29451e-06
0.0207126
-6.07862e-06
0.0207133
-7.3871e-06
0.020714
-6.69784e-06
0.0207148
-1.01424e-05
0.0207158
-9.39431e-06
0.0207169
-1.07652e-05
0.0207182
-1.39499e-05
0.02072
-2.06536e-05
0.020722
-2.09215e-05
0.0207233
-1.18196e-05
0.0207235
-1.5789e-06
0.0207233
3.21024e-07
0.0207238
-7.68553e-06
0.020725
-1.60975e-05
0.0207264
-1.15241e-05
0.0207268
5.53513e-08
0.0207262
7.80975e-06
0.0207257
3.66893e-06
0.0207262
-8.48851e-06
0.0207277
-1.97371e-05
0.0207295
-1.73581e-05
0.0207307
-9.75625e-06
0.0207311
-3.38475e-06
0.0207315
-3.23975e-06
0.0207325
-1.1149e-05
0.0207333
-6.30953e-06
0.020733
4.30752e-06
0.0207319
1.06721e-05
0.0207305
1.04062e-05
0.0207298
2.20231e-06
0.020731
-1.6203e-05
0.0207329
-2.04786e-05
0.020734
-1.30362e-05
0.020734
-2.5205e-07
0.020733
8.28104e-06
0.0207316
1.53883e-05
0.0207299
1.60803e-05
0.0207285
1.43532e-05
5.1216e-06
0.0256679
0.00406152
0.0257417
0.00235342
0.0257903
0.00222364
0.0258171
0.00196928
0.0256594
0.00325606
0.0250105
0.0069406
0.0240768
0.00820751
0.0233624
0.00558178
0.0229556
0.00285214
0.0227702
0.00110319
0.0227209
0.000132777
0.0227509
-0.00036869
0.0228211
-0.000577764
0.0229023
-0.000595972
0.0229751
-0.000501691
0.0230309
-0.00036982
0.0230692
-0.000248446
0.0230938
-0.000156749
0.0231089
-9.52209e-05
0.0231179
-5.67989e-05
0.0231231
-3.11227e-05
0.0231261
-1.7264e-05
0.0231276
-8.66633e-06
0.0231284
-4.25632e-06
0.0231289
-1.84861e-06
0.0231291
-1.40489e-06
0.0231292
-9.50021e-07
0.0231293
-8.48617e-07
0.0231295
-4.81844e-07
0.0231296
-3.97476e-07
0.0231296
2.54912e-08
0.0231297
-1.39761e-06
0.02313
-1.82929e-06
0.0231303
-3.11064e-06
0.0231306
-2.69839e-06
0.0231309
-5.66688e-06
0.0231316
-6.67467e-06
0.0231323
-8.04044e-06
0.0231329
-7.25395e-06
0.0231337
-1.08998e-05
0.0231347
-1.02752e-05
0.0231357
-1.17347e-05
0.023137
-1.51906e-05
0.0231388
-2.24658e-05
0.0231408
-2.29326e-05
0.0231421
-1.30847e-05
0.0231423
-1.74442e-06
0.023142
5.54945e-07
0.0231425
-8.14807e-06
0.0231437
-1.74331e-05
0.0231451
-1.28646e-05
0.0231456
-2.84487e-07
0.023145
8.45982e-06
0.0231444
4.26422e-06
0.0231448
-8.92356e-06
0.0231463
-2.12896e-05
0.0231481
-1.91212e-05
0.0231494
-1.09603e-05
0.0231498
-3.82588e-06
0.0231502
-3.59098e-06
0.0231512
-1.21598e-05
0.023152
-7.08673e-06
0.0231518
4.5978e-06
0.0231506
1.18304e-05
0.0231491
1.18834e-05
0.0231482
3.01074e-06
0.0231493
-1.73366e-05
0.0231512
-2.23825e-05
0.0231524
-1.43652e-05
0.0231524
-3.77343e-07
0.0231515
8.98439e-06
0.0231501
1.66936e-05
0.0231486
1.7476e-05
0.0231472
1.55994e-05
5.22353e-06
0.02821
0.00392281
0.0282953
0.00226823
0.0283559
0.00216306
0.0283992
0.00192609
0.0283203
0.00333495
0.0277954
0.00746537
0.0269006
0.00910219
0.026142
0.00634031
0.0256819
0.00331229
0.0254594
0.00132567
0.0253909
0.000201362
0.0254157
-0.000393557
0.0254905
-0.000652606
0.0255813
-0.000686793
0.0256645
-0.000584938
0.0257291
-0.000434397
0.0257739
-0.000293287
0.0258028
-0.000185666
0.0258206
-0.000113049
0.0258312
-6.74538e-05
0.0258374
-3.73184e-05
0.0258409
-2.07751e-05
0.0258428
-1.05564e-05
0.0258437
-5.28195e-06
0.0258443
-2.3119e-06
0.0258446
-1.68145e-06
0.0258447
-1.10731e-06
0.0258448
-9.66093e-07
0.025845
-6.05436e-07
0.0258451
-4.98418e-07
0.0258452
1.85318e-10
0.0258452
-1.47428e-06
0.0258455
-2.0271e-06
0.0258458
-3.34462e-06
0.025846
-2.86425e-06
0.0258463
-5.98222e-06
0.025847
-7.23514e-06
0.0258476
-8.64513e-06
0.0258482
-7.7527e-06
0.0258488
-1.15691e-05
0.0258498
-1.11e-05
0.0258508
-1.26446e-05
0.025852
-1.6365e-05
0.0258537
-2.42016e-05
0.0258557
-2.49032e-05
0.025857
-1.43636e-05
0.0258572
-1.90019e-06
0.0258568
8.52447e-07
0.0258572
-8.51542e-06
0.0258583
-1.86952e-05
0.0258598
-1.42514e-05
0.0258603
-7.11308e-07
0.0258598
9.08428e-06
0.0258591
4.93613e-06
0.0258594
-9.22383e-06
0.0258607
-2.27177e-05
0.0258625
-2.0877e-05
0.0258639
-1.22196e-05
0.0258643
-4.29364e-06
0.0258647
-3.95586e-06
0.0258657
-1.31243e-05
0.0258665
-7.91092e-06
0.0258663
4.86546e-06
0.0258652
1.3029e-05
0.0258635
1.3498e-05
0.0258624
3.99497e-06
0.0258634
-1.83084e-05
0.0258652
-2.42585e-05
0.0258664
-1.57424e-05
0.0258665
-5.89841e-07
0.0258658
9.61939e-06
0.0258645
1.78711e-05
0.025863
1.87916e-05
0.0258618
1.67099e-05
6.013e-06
0.0310025
0.00376721
0.0310993
0.00217152
0.031172
0.00209049
0.0312304
0.00186779
0.0312288
0.00333666
0.0308579
0.00783615
0.0300494
0.00991054
0.029266
0.00712358
0.0287525
0.0038258
0.0284877
0.00159054
0.0283947
0.000294364
0.0284109
-0.000409796
0.0284887
-0.000730432
0.0285888
-0.000786987
0.028683
-0.000679096
0.028757
-0.000508387
0.0288087
-0.000345056
0.0288422
-0.000219203
0.0288629
-0.000133795