/*--------------------------------*- C++ -*----------------------------------*\
  =========                 |
  \\      /  F ield         | OpenFOAM: The Open Source CFD Toolbox
   \\    /   O peration     | Website:  https://openfoam.org
    \\  /    A nd           | Version:  7
     \\/     M anipulation  |
\*---------------------------------------------------------------------------*/
FoamFile
{
    version     2.0;
    format      ascii;
    class       volVectorField;
    location    "150";
    object      U;
}
// * * * * * * * * * * * * * * * * * * * * * * * * * * * * * * * * * * * * * //

dimensions      [0 1 -1 0 0 0 0];

internalField   nonuniform List<vector> 
4500
(
(15.406 -0.778212 0)
(13.7073 -0.0619005 0)
(13.0345 -0.00326166 0)
(12.678 0.000335467 0)
(12.578 -0.000842183 0)
(13.3097 -0.0018526 0)
(13.9493 -0.00105655 0)
(13.9476 0.000427 0)
(13.8183 0.000570112 0)
(13.7572 0.000293545 0)
(13.76 7.07112e-05 0)
(13.7977 -5.1827e-05 0)
(13.8492 -0.00011032 0)
(13.9023 -0.000129298 0)
(13.9487 -0.00011367 0)
(13.9847 -8.79881e-05 0)
(14.0095 -6.4015e-05 0)
(14.0256 -4.3962e-05 0)
(14.0353 -2.89177e-05 0)
(14.0411 -1.96414e-05 0)
(14.0444 -7.74269e-06 0)
(14.0463 -4.38119e-06 0)
(14.0473 -2.01863e-06 0)
(14.0477 -1.78149e-06 0)
(14.0479 3.28315e-07 0)
(14.0481 -5.17591e-07 0)
(14.0482 -3.32462e-07 0)
(14.0482 -1.08171e-06 0)
(14.0483 2.74574e-06 0)
(14.0485 2.08058e-06 0)
(14.0485 1.44623e-06 0)
(14.0485 -4.33522e-07 0)
(14.0487 4.64534e-06 0)
(14.0491 1.71643e-06 0)
(14.0494 1.75065e-06 0)
(14.0497 -2.45235e-06 0)
(14.0502 4.9033e-06 0)
(14.0512 7.48813e-07 0)
(14.0518 7.8849e-07 0)
(14.0525 -4.77107e-06 0)
(14.0535 3.77753e-06 0)
(14.0546 8.14654e-08 0)
(14.0556 -2.95351e-06 0)
(14.0571 -9.07667e-06 0)
(14.0591 -6.21385e-06 0)
(14.0609 -8.69607e-08 0)
(14.0615 4.76252e-08 0)
(14.0613 -1.68844e-06 0)
(14.0614 -5.04105e-06 0)
(14.0624 -1.08604e-05 0)
(14.0639 1.42656e-07 0)
(14.0648 6.1154e-06 0)
(14.0644 5.6828e-06 0)
(14.0636 1.8102e-06 0)
(14.0637 -3.53254e-06 0)
(14.065 -1.09488e-05 0)
(14.067 -3.90058e-06 0)
(14.0683 1.1288e-06 0)
(14.0691 -2.66184e-06 0)
(14.0689 1.94306e-06 0)
(14.0699 -5.74715e-06 0)
(14.0707 2.68596e-06 0)
(14.0714 2.80596e-06 0)
(14.0702 4.48712e-06 0)
(14.0696 -3.82893e-08 0)
(14.0681 -1.84921e-06 0)
(14.069 -8.65432e-06 0)
(14.0708 -9.59602e-06 0)
(14.0727 -1.19098e-05 0)
(14.073 -7.34153e-06 0)
(14.0725 -6.58537e-06 0)
(14.0712 -5.34869e-07 0)
(14.0697 -3.51432e-06 0)
(14.068 -3.56603e-06 0)
(14.0668 -5.12638e-06 0)
(17.5881 0.163076 0)
(16.0148 0.0238133 0)
(15.2 0.00456919 0)
(14.7436 0.00160518 0)
(14.6038 -0.00177638 0)
(15.2351 -0.00381063 0)
(15.406 -0.0015195 0)
(15.1071 0.000761335 0)
(14.8663 0.000764489 0)
(14.7623 0.000268191 0)
(14.7453 -7.9336e-05 0)
(14.7728 -0.000251105 0)
(14.8185 -0.000312875 0)
(14.8678 -0.000307901 0)
(14.9109 -0.000252066 0)
(14.9442 -0.000185893 0)
(14.9668 -0.000128891 0)
(14.9813 -8.48542e-05 0)
(14.99 -5.38171e-05 0)
(14.9952 -3.48917e-05 0)
(14.9981 -1.50708e-05 0)
(14.9998 -8.53098e-06 0)
(15.0006 -4.02904e-06 0)
(15.001 -2.82695e-06 0)
(15.0011 -7.35535e-08 0)
(15.0013 -9.40256e-07 0)
(15.0013 -5.95102e-07 0)
(15.0014 -1.48659e-06 0)
(15.0014 3.35236e-06 0)
(15.0017 2.46717e-06 0)
(15.0016 1.77993e-06 0)
(15.0017 -7.90565e-07 0)
(15.0019 5.59009e-06 0)
(15.0024 1.61299e-06 0)
(15.0028 1.87409e-06 0)
(15.0032 -3.86651e-06 0)
(15.0039 5.33767e-06 0)
(15.005 -2.29566e-07 0)
(15.0058 1.54597e-07 0)
(15.0068 -7.40392e-06 0)
(15.008 3.58781e-06 0)
(15.0093 -1.50098e-06 0)
(15.0106 -5.75467e-06 0)
(15.0125 -1.4585e-05 0)
(15.0149 -1.08864e-05 0)
(15.017 -1.53801e-06 0)
(15.0178 3.72167e-07 0)
(15.0175 -1.59629e-06 0)
(15.0177 -7.34156e-06 0)
(15.019 -1.6252e-05 0)
(15.0208 -1.58105e-06 0)
(15.0218 7.72765e-06 0)
(15.0213 8.51165e-06 0)
(15.0204 2.89264e-06 0)
(15.0206 -5.86459e-06 0)
(15.0222 -1.70776e-05 0)
(15.0246 -7.62685e-06 0)
(15.0261 -5.62225e-08 0)
(15.027 -3.81142e-06 0)
(15.0267 2.09403e-06 0)
(15.0279 -9.2981e-06 0)
(15.0289 2.51573e-06 0)
(15.0296 4.34598e-06 0)
(15.0282 7.68392e-06 0)
(15.0276 1.92513e-06 0)
(15.026 -1.79903e-06 0)
(15.0272 -1.40437e-05 0)
(15.0293 -1.58419e-05 0)
(15.0314 -1.73161e-05 0)
(15.0317 -9.26376e-06 0)
(15.031 -7.27969e-06 0)
(15.0293 1.29365e-06 0)
(15.0273 -2.73913e-06 0)
(15.0251 -2.95681e-06 0)
(15.0235 -7.51669e-06 0)
(18.7451 0.0973879 0)
(17.3721 0.0156231 0)
(16.4768 0.00601889 0)
(15.9428 0.0027674 0)
(15.7541 -0.00250447 0)
(16.1734 -0.00475111 0)
(15.9695 -0.000487195 0)
(15.5238 0.00206776 0)
(15.2423 0.00148181 0)
(15.1259 0.000513458 0)
(15.1038 -8.99001e-05 0)
(15.129 -0.000380651 0)
(15.1735 -0.000482835 0)
(15.2215 -0.000472626 0)
(15.2632 -0.000385265 0)
(15.2951 -0.000281713 0)
(15.3166 -0.000192481 0)
(15.3302 -0.000124808 0)
(15.3383 -7.80849e-05 0)
(15.3432 -4.96636e-05 0)
(15.3459 -2.23651e-05 0)
(15.3474 -1.2513e-05 0)
(15.3482 -5.83784e-06 0)
(15.3485 -3.81016e-06 0)
(15.3486 -2.14404e-07 0)
(15.3487 -1.33187e-06 0)
(15.3488 -8.80937e-07 0)
(15.3488 -1.91028e-06 0)
(15.3489 3.7118e-06 0)
(15.3491 2.68568e-06 0)
(15.3491 2.00603e-06 0)
(15.3492 -1.38655e-06 0)
(15.3494 5.66665e-06 0)
(15.35 7.19361e-07 0)
(15.3503 1.11454e-06 0)
(15.3508 -6.34018e-06 0)
(15.3515 3.77572e-06 0)
(15.3528 -2.98609e-06 0)
(15.3536 -2.33447e-06 0)
(15.3546 -1.20865e-05 0)
(15.3559 6.19211e-07 0)
(15.3574 -5.58488e-06 0)
(15.3587 -1.14162e-05 0)
(15.3607 -2.36472e-05 0)
(15.3633 -1.9431e-05 0)
(15.3656 -5.75679e-06 0)
(15.3663 -2.02154e-07 0)
(15.3661 -1.95998e-06 0)
(15.3663 -1.11623e-05 0)
(15.3677 -2.3919e-05 0)
(15.3696 -5.4889e-06 0)
(15.3706 8.98469e-06 0)
(15.37 1.22587e-05 0)
(15.3691 4.1546e-06 0)
(15.3694 -9.95277e-06 0)
(15.3711 -2.63067e-05 0)
(15.3737 -1.44245e-05 0)
(15.3752 -3.15561e-06 0)
(15.3761 -5.30019e-06 0)
(15.3758 1.26276e-06 0)
(15.3771 -1.4291e-05 0)
(15.3782 8.03977e-07 0)
(15.3789 6.42385e-06 0)
(15.3773 1.20351e-05 0)
(15.3767 5.08048e-06 0)
(15.3751 -2.02688e-06 0)
(15.3764 -2.18002e-05 0)
(15.3787 -2.48584e-05 0)
(15.3808 -2.37559e-05 0)
(15.381 -1.03061e-05 0)
(15.3803 -5.07048e-06 0)
(15.3784 7.08051e-06 0)
(15.3762 2.88741e-06 0)
(15.3739 2.0401e-06 0)
(15.3721 -6.05599e-06 0)
(19.3756 0.0462378 0)
(18.3256 0.01504 0)
(17.4334 0.00904026 0)
(16.846 0.0045056 0)
(16.6028 -0.00273381 0)
(16.7692 -0.00468459 0)
(16.2944 0.00147808 0)
(15.7667 0.00383392 0)
(15.4664 0.00239709 0)
(15.3454 0.000827537 0)
(15.3219 -9.48787e-05 0)
(15.347 -0.000533877 0)
(15.3914 -0.000686173 0)
(15.4393 -0.000669286 0)
(15.4804 -0.000544237 0)
(15.5116 -0.000395755 0)
(15.5325 -0.000267618 0)
(15.5457 -0.000171598 0)
(15.5535 -0.000106246 0)
(15.5582 -6.65597e-05 0)
(15.5607 -3.09977e-05 0)
(15.5622 -1.72026e-05 0)
(15.5629 -7.97428e-06 0)
(15.5632 -4.78599e-06 0)
(15.5633 -5.20985e-07 0)
(15.5634 -1.76497e-06 0)
(15.5635 -1.21586e-06 0)
(15.5635 -2.29339e-06 0)
(15.5636 3.75273e-06 0)
(15.5638 2.68429e-06 0)
(15.5638 2.10548e-06 0)
(15.5639 -2.12529e-06 0)
(15.5641 5.05494e-06 0)
(15.5647 -7.32782e-07 0)
(15.565 -1.8823e-07 0)
(15.5655 -9.3287e-06 0)
(15.5663 8.73962e-07 0)
(15.5676 -6.82608e-06 0)
(15.5684 -5.85869e-06 0)
(15.5695 -1.77332e-05 0)
(15.5708 -4.05061e-06 0)
(15.5723 -1.11427e-05 0)
(15.5737 -1.86786e-05 0)
(15.5758 -3.45833e-05 0)
(15.5784 -3.01472e-05 0)
(15.5807 -1.15312e-05 0)
(15.5815 -1.04676e-06 0)
(15.5812 -2.24611e-06 0)
(15.5815 -1.56139e-05 0)
(15.583 -3.26697e-05 0)
(15.5849 -1.08758e-05 0)
(15.5858 9.7255e-06 0)
(15.5852 1.64583e-05 0)
(15.5843 5.59129e-06 0)
(15.5846 -1.49567e-05 0)
(15.5864 -3.71293e-05 0)
(15.589 -2.31001e-05 0)
(15.5906 -7.57978e-06 0)
(15.5915 -6.92475e-06 0)
(15.5912 -2.08408e-07 0)
(15.5925 -2.01722e-05 0)
(15.5936 -1.97851e-06 0)
(15.5943 8.78424e-06 0)
(15.5927 1.72204e-05 0)
(15.5921 9.39077e-06 0)
(15.5904 -2.00437e-06 0)
(15.5918 -3.09108e-05 0)
(15.5942 -3.55265e-05 0)
(15.5963 -3.05884e-05 0)
(15.5965 -1.05425e-05 0)
(15.5957 -1.0306e-06 0)
(15.5937 1.50976e-05 0)
(15.5915 1.11119e-05 0)
(15.5891 9.46877e-06 0)
(15.5872 -3.89045e-06 0)
(19.6932 0.0456849 0)
(18.9991 0.0202293 0)
(18.1945 0.0128089 0)
(17.5879 0.00669148 0)
(17.2915 -0.0021763 0)
(17.2044 -0.00336398 0)
(16.5341 0.00434148 0)
(15.9542 0.00598874 0)
(15.6428 0.00346451 0)
(15.5194 0.0011899 0)
(15.4955 -9.95832e-05 0)
(15.5208 -0.000708421 0)
(15.5657 -0.000917297 0)
(15.6139 -0.000891626 0)
(15.6551 -0.000723346 0)
(15.6861 -0.000523759 0)
(15.7068 -0.000351514 0)
(15.7198 -0.00022355 0)
(15.7274 -0.000137351 0)
(15.732 -8.50451e-05 0)
(15.7346 -4.06362e-05 0)
(15.736 -2.24116e-05 0)
(15.7367 -1.0347e-05 0)
(15.737 -5.85027e-06 0)
(15.7371 -8.54673e-07 0)
(15.7372 -2.23403e-06 0)
(15.7372 -1.58404e-06 0)
(15.7373 -2.66762e-06 0)
(15.7373 3.6071e-06 0)
(15.7376 2.54147e-06 0)
(15.7375 2.12542e-06 0)
(15.7377 -2.96465e-06 0)
(15.7379 3.9943e-06 0)
(15.7385 -2.5612e-06 0)
(15.7388 -1.85738e-06 0)
(15.7393 -1.26933e-05 0)
(15.7401 -2.92325e-06 0)
(15.7414 -1.14097e-05 0)
(15.7422 -1.00946e-05 0)
(15.7433 -2.40851e-05 0)
(15.7446 -9.86503e-06 0)
(15.7462 -1.77214e-05 0)
(15.7476 -2.70852e-05 0)
(15.7496 -4.69051e-05 0)
(15.7523 -4.24011e-05 0)
(15.7546 -1.83623e-05 0)
(15.7554 -2.04582e-06 0)
(15.7551 -2.47734e-06 0)
(15.7554 -2.05637e-05 0)
(15.7569 -4.22668e-05 0)
(15.7588 -1.72665e-05 0)
(15.7598 1.01894e-05 0)
(15.7591 2.10348e-05 0)
(15.7582 7.15192e-06 0)
(15.7585 -2.06611e-05 0)
(15.7604 -4.91657e-05 0)
(15.763 -3.30886e-05 0)
(15.7646 -1.28964e-05 0)
(15.7655 -8.63282e-06 0)
(15.7651 -2.13259e-06 0)
(15.7665 -2.67083e-05 0)
(15.7676 -5.49565e-06 0)
(15.7683 1.14192e-05 0)
(15.7667 2.30439e-05 0)
(15.7661 1.45164e-05 0)
(15.7644 -1.86074e-06 0)
(15.7658 -4.10409e-05 0)
(15.7682 -4.74239e-05 0)
(15.7703 -3.77518e-05 0)
(15.7705 -1.02499e-05 0)
(15.7697 4.29702e-06 0)
(15.7676 2.46704e-05 0)
(15.7654 2.11573e-05 0)
(15.7629 1.85202e-05 0)
(15.7611 -5.36466e-07 0)
(19.849 0.0504713 0)
(19.4503 0.0244812 0)
(18.8024 0.0165326 0)
(18.2191 0.00922262 0)
(17.8787 -0.000727495 0)
(17.5564 -0.000735683 0)
(16.7413 0.00805844 0)
(16.1243 0.00850216 0)
(15.8047 0.00467108 0)
(15.679 0.00159651 0)
(15.6546 -0.000104212 0)
(15.6802 -0.000903153 0)
(15.7259 -0.00117489 0)
(15.7748 -0.00113858 0)
(15.8164 -0.000921713 0)
(15.8477 -0.000665125 0)
(15.8685 -0.000443881 0)
(15.8816 -0.00028057 0)
(15.8893 -0.0001714 0)
(15.8939 -0.000105198 0)
(15.8964 -5.12233e-05 0)
(15.8978 -2.81278e-05 0)
(15.8985 -1.2958e-05 0)
(15.8988 -6.96058e-06 0)
(15.8989 -1.26973e-06 0)
(15.899 -2.7383e-06 0)
(15.8991 -1.98654e-06 0)
(15.8991 -3.03654e-06 0)
(15.8992 3.33114e-06 0)
(15.8994 2.31015e-06 0)
(15.8994 2.09834e-06 0)
(15.8995 -3.89157e-06 0)
(15.8997 2.63549e-06 0)
(15.9003 -4.66456e-06 0)
(15.9006 -3.78957e-06 0)
(15.9012 -1.63811e-05 0)
(15.9019 -7.36625e-06 0)
(15.9032 -1.65659e-05 0)
(15.904 -1.48733e-05 0)
(15.9051 -3.104e-05 0)
(15.9065 -1.65286e-05 0)
(15.908 -2.50966e-05 0)
(15.9094 -3.64288e-05 0)
(15.9115 -6.04251e-05 0)
(15.9141 -5.59435e-05 0)
(15.9164 -2.60013e-05 0)
(15.9172 -3.14172e-06 0)
(15.9169 -2.66251e-06 0)
(15.9172 -2.59631e-05 0)
(15.9187 -5.26624e-05 0)
(15.9206 -2.44437e-05 0)
(15.9216 1.05195e-05 0)
(15.9209 2.59842e-05 0)
(15.9199 8.84121e-06 0)
(15.9203 -2.696e-05 0)
(15.9222 -6.22871e-05 0)
(15.9248 -4.41546e-05 0)
(15.9263 -1.8893e-05 0)
(15.9273 -1.04426e-05 0)
(15.9269 -4.37714e-06 0)
(15.9283 -3.38623e-05 0)
(15.9293 -9.53535e-06 0)
(15.93 1.43108e-05 0)
(15.9284 2.94481e-05 0)
(15.9278 2.0312e-05 0)
(15.9261 -1.60437e-06 0)
(15.9275 -5.20984e-05 0)
(15.9299 -6.03985e-05 0)
(15.932 -4.53046e-05 0)
(15.9322 -9.58843e-06 0)
(15.9314 1.05553e-05 0)
(15.9293 3.54814e-05 0)
(15.9271 3.2552e-05 0)
(15.9246 2.88096e-05 0)
(15.9228 3.15691e-06 0)
(19.9292 0.0521985 0)
(19.7282 0.0270013 0)
(19.27 0.0198716 0)
(18.7561 0.01197 0)
(18.3899 0.00165478 0)
(17.8629 0.00321934 0)
(16.9389 0.0126098 0)
(16.2934 0.0113821 0)
(15.9662 0.00602713 0)
(15.8378 0.00205285 0)
(15.8124 -0.000107755 0)
(15.8383 -0.00112006 0)
(15.8848 -0.00146257 0)
(15.9347 -0.00141421 0)
(15.9772 -0.00114295 0)
(16.0091 -0.00082264 0)
(16.0303 -0.000546685 0)
(16.0437 -0.000343957 0)
(16.0515 -0.000209213 0)
(16.0562 -0.000127508 0)
(16.0588 -6.30474e-05 0)
(16.0603 -3.45068e-05 0)
(16.061 -1.5891e-05 0)
(16.0613 -8.2283e-06 0)
(16.0614 -1.72753e-06 0)
(16.0615 -3.29133e-06 0)
(16.0616 -2.42748e-06 0)
(16.0616 -3.42296e-06 0)
(16.0617 2.96084e-06 0)
(16.0619 2.00811e-06 0)
(16.0619 2.03851e-06 0)
(16.062 -4.89749e-06 0)
(16.0622 1.03477e-06 0)
(16.0628 -7.00568e-06 0)
(16.0631 -5.94588e-06 0)
(16.0636 -2.03754e-05 0)
(16.0644 -1.23684e-05 0)
(16.0656 -2.22417e-05 0)
(16.0664 -2.01403e-05 0)
(16.0675 -3.85753e-05 0)
(16.0688 -2.39461e-05 0)
(16.0703 -3.32072e-05 0)
(16.0717 -4.6663e-05 0)
(16.0738 -7.51307e-05 0)
(16.0765 -7.07393e-05 0)
(16.0787 -3.44118e-05 0)
(16.0795 -4.32281e-06 0)
(16.0792 -2.7961e-06 0)
(16.0794 -3.18007e-05 0)
(16.0809 -6.38827e-05 0)
(16.0828 -3.23804e-05 0)
(16.0838 1.07474e-05 0)
(16.0831 3.13331e-05 0)
(16.0822 1.06977e-05 0)
(16.0825 -3.38072e-05 0)
(16.0844 -7.64914e-05 0)
(16.087 -5.62754e-05 0)
(16.0885 -2.5545e-05 0)
(16.0894 -1.23734e-05 0)
(16.089 -6.91605e-06 0)
(16.0904 -4.16234e-05 0)
(16.0915 -1.40695e-05 0)
(16.0922 1.74701e-05 0)
(16.0906 3.64571e-05 0)
(16.0899 2.67893e-05 0)
(16.0882 -1.21438e-06 0)
(16.0896 -6.40589e-05 0)
(16.092 -7.44799e-05 0)
(16.0941 -5.33478e-05 0)
(16.0942 -8.67819e-06 0)
(16.0934 1.76236e-05 0)
(16.0914 4.74051e-05 0)
(16.0892 4.518e-05 0)
(16.0868 4.01797e-05 0)
(16.085 7.60466e-06 0)
(19.974 0.0527369 0)
(19.8885 0.0285674 0)
(19.6049 0.0226089 0)
(19.1993 0.0147391 0)
(18.8334 0.0049457 0)
(18.1438 0.00849907 0)
(17.139 0.0180005 0)
(16.4701 0.0146555 0)
(16.1348 0.00755316 0)
(16.0027 0.00256905 0)
(15.9758 -0.000107753 0)
(16.0016 -0.00136152 0)
(16.0491 -0.00178535 0)
(16.1002 -0.00172432 0)
(16.144 -0.0013923 0)
(16.1769 -0.00100038 0)
(16.1988 -0.000662783 0)
(16.2127 -0.000415571 0)
(16.2208 -0.000251947 0)
(16.2257 -0.000152687 0)
(16.2284 -7.64939e-05 0)
(16.2299 -4.1776e-05 0)
(16.2307 -1.92728e-05 0)
(16.231 -9.68316e-06 0)
(16.2311 -2.3011e-06 0)
(16.2312 -3.90842e-06 0)
(16.2313 -2.91612e-06 0)
(16.2313 -3.82741e-06 0)
(16.2314 2.49076e-06 0)
(16.2316 1.63732e-06 0)
(16.2316 1.94939e-06 0)
(16.2317 -5.97883e-06 0)
(16.2319 -7.86139e-07 0)
(16.2325 -9.56984e-06 0)
(16.2328 -8.30714e-06 0)
(16.2333 -2.46622e-05 0)
(16.2341 -1.78966e-05 0)
(16.2353 -2.8418e-05 0)
(16.2361 -2.58699e-05 0)
(16.2371 -4.66702e-05 0)
(16.2384 -3.2083e-05 0)
(16.2399 -4.20323e-05 0)
(16.2412 -5.77719e-05 0)
(16.2433 -9.10171e-05 0)
(16.2459 -8.68022e-05 0)
(16.2481 -4.36025e-05 0)
(16.2488 -5.59254e-06 0)
(16.2485 -2.85179e-06 0)
(16.2488 -3.8046e-05 0)
(16.2502 -7.59357e-05 0)
(16.2521 -4.1105e-05 0)
(16.2531 1.08445e-05 0)
(16.2524 3.70866e-05 0)
(16.2515 1.27731e-05 0)
(16.2518 -4.11446e-05 0)
(16.2536 -9.17608e-05 0)
(16.2562 -6.9477e-05 0)
(16.2577 -3.28835e-05 0)
(16.2586 -1.44625e-05 0)
(16.2582 -9.73038e-06 0)
(16.2596 -5.00075e-05 0)
(16.2606 -1.9098e-05 0)
(16.2613 2.08765e-05 0)
(16.2597 4.41058e-05 0)
(16.2591 3.40147e-05 0)
(16.2574 -5.99699e-07 0)
(16.2587 -7.6892e-05 0)
(16.261 -8.96961e-05 0)
(16.2631 -6.19555e-05 0)
(16.2633 -7.57786e-06 0)
(16.2625 2.54259e-05 0)
(16.2605 6.03918e-05 0)
(16.2583 5.89587e-05 0)
(16.256 5.25843e-05 0)
(16.2542 1.23961e-05 0)
(20.0012 0.0528895 0)
(19.9804 0.0294962 0)
(19.8248 0.0245991 0)
(19.5437 0.0172913 0)
(19.2099 0.00902894 0)
(18.4099 0.0150547 0)
(17.3482 0.0242457 0)
(16.6595 0.0183603 0)
(16.3153 0.00927635 0)
(16.1782 0.00315913 0)
(16.1489 -9.97703e-05 0)
(16.1743 -0.00162931 0)
(16.2226 -0.00214855 0)
(16.2753 -0.00207548 0)
(16.3208 -0.0016759 0)
(16.355 -0.00120316 0)
(16.3779 -0.00079559 0)
(16.3924 -0.000497649 0)
(16.401 -0.000300994 0)
(16.4062 -0.000181569 0)
(16.409 -9.20564e-05 0)
(16.4106 -5.02159e-05 0)
(16.4114 -2.32592e-05 0)
(16.4118 -1.14279e-05 0)
(16.4119 -3.01723e-06 0)
(16.412 -4.6097e-06 0)
(16.4121 -3.4621e-06 0)
(16.4122 -4.26263e-06 0)
(16.4122 1.92655e-06 0)
(16.4124 1.19852e-06 0)
(16.4124 1.83479e-06 0)
(16.4125 -7.12675e-06 0)
(16.4127 -2.80362e-06 0)
(16.4133 -1.23372e-05 0)
(16.4136 -1.08483e-05 0)
(16.4141 -2.92153e-05 0)
(16.4148 -2.39088e-05 0)
(16.416 -3.5064e-05 0)
(16.4168 -3.20249e-05 0)
(16.4178 -5.52854e-05 0)
(16.419 -4.08915e-05 0)
(16.4204 -5.15378e-05 0)
(16.4218 -6.97194e-05 0)
(16.4237 -0.000108054 0)
(16.4263 -0.00010412 0)
(16.4285 -5.35835e-05 0)
(16.4292 -6.95579e-06 0)
(16.4289 -2.80212e-06 0)
(16.4291 -4.46501e-05 0)
(16.4305 -8.88056e-05 0)
(16.4324 -5.06432e-05 0)
(16.4333 1.07681e-05 0)
(16.4327 4.32416e-05 0)
(16.4318 1.5125e-05 0)
(16.4321 -4.88874e-05 0)
(16.4338 -0.000108046 0)
(16.4363 -8.37708e-05 0)
(16.4378 -4.09433e-05 0)
(16.4387 -1.6743e-05 0)
(16.4383 -1.28086e-05 0)
(16.4396 -5.89996e-05 0)
(16.4407 -2.46324e-05 0)
(16.4414 2.45058e-05 0)
(16.4398 5.24218e-05 0)
(16.4391 4.20611e-05 0)
(16.4374 3.39925e-07 0)
(16.4387 -9.0526e-05 0)
(16.441 -0.00010606 0)
(16.443 -7.12013e-05 0)
(16.4432 -6.36958e-06 0)
(16.4424 3.3879e-05 0)
(16.4405 7.43528e-05 0)
(16.4384 7.38068e-05 0)
(16.4361 6.5935e-05 0)
(16.4344 1.76241e-05 0)
(20.0188 0.052766 0)
(20.035 0.0299415 0)
(19.9603 0.0258783 0)
(19.7897 0.0194176 0)
(19.5162 0.0136748 0)
(18.6661 0.0227616 0)
(17.5706 0.0313582 0)
(16.8649 0.022542 0)
(16.5105 0.0112304 0)
(16.3671 0.00384133 0)
(16.3345 -7.70544e-05 0)
(16.359 -0.00192438 0)
(16.4081 -0.00255774 0)
(16.4626 -0.0024751 0)
(16.51 -0.00200084 0)
(16.5459 -0.00143669 0)
(16.5701 -0.00094916 0)
(16.5855 -0.000592856 0)
(16.5946 -0.00035802 0)
(16.6001 -0.000215162 0)
(16.6031 -0.000110326 0)
(16.6049 -6.01685e-05 0)
(16.6058 -2.80417e-05 0)
(16.6061 -1.35581e-05 0)
(16.6063 -3.94118e-06 0)
(16.6064 -5.42002e-06 0)
(16.6065 -4.07696e-06 0)
(16.6066 -4.73564e-06 0)
(16.6066 1.2626e-06 0)
(16.6068 6.88042e-07 0)
(16.6068 1.69549e-06 0)
(16.6069 -8.33055e-06 0)
(16.6071 -4.9983e-06 0)
(16.6076 -1.52865e-05 0)
(16.6079 -1.35425e-05 0)
(16.6084 -3.39973e-05 0)
(16.6091 -3.03622e-05 0)
(16.6102 -4.21423e-05 0)
(16.611 -3.85605e-05 0)
(16.6119 -6.43614e-05 0)
(16.6131 -5.03189e-05 0)
(16.6145 -6.16783e-05 0)
(16.6158 -8.24526e-05 0)
(16.6177 -0.000126181 0)
(16.6201 -0.000122662 0)
(16.6223 -6.43617e-05 0)
(16.623 -8.42134e-06 0)
(16.6227 -2.60832e-06 0)
(16.6229 -5.15413e-05 0)
(16.6242 -0.000102446 0)
(16.626 -6.10233e-05 0)
(16.627 1.04527e-05 0)
(16.6264 4.97764e-05 0)
(16.6255 1.78196e-05 0)
(16.6257 -5.69231e-05 0)
(16.6273 -0.000125257 0)
(16.6298 -9.91576e-05 0)
(16.6312 -4.97657e-05 0)
(16.6321 -1.92532e-05 0)
(16.6318 -1.61356e-05 0)
(16.6331 -6.85739e-05 0)
(16.6341 -3.06871e-05 0)
(16.6348 2.83182e-05 0)
(16.6332 6.14254e-05 0)
(16.6326 5.10139e-05 0)
(16.6309 1.73477e-06 0)
(16.632 -0.000104848 0)
(16.6342 -0.000123555 0)
(16.6362 -8.11431e-05 0)
(16.6364 -5.13365e-06 0)
(16.6357 4.28909e-05 0)
(16.6339 8.91856e-05 0)
(16.6318 8.96203e-05 0)
(16.6296 8.01397e-05 0)
(16.628 2.31429e-05 0)
(20.0308 0.0523931 0)
(20.0694 0.0300376 0)
(20.0425 0.0266018 0)
(19.9516 0.0210175 0)
(19.7518 0.0185673 0)
(18.914 0.0314072 0)
(17.8079 0.0393361 0)
(17.0884 0.0272517 0)
(16.7227 0.013456 0)
(16.5715 0.0046389 0)
(16.5345 -2.99779e-05 0)
(16.5574 -0.00224658 0)
(16.6072 -0.00301868 0)
(16.6635 -0.00293153 0)
(16.7132 -0.00237541 0)
(16.7511 -0.00170768 0)
(16.7769 -0.00112832 0)
(16.7933 -0.000704389 0)
(16.8031 -0.000425034 0)
(16.809 -0.000254678 0)
(16.8123 -0.000132026 0)
(16.8142 -7.20503e-05 0)
(16.8152 -3.38556e-05 0)
(16.8156 -1.62253e-05 0)
(16.8158 -5.12066e-06 0)
(16.8159 -6.36975e-06 0)
(16.816 -4.77523e-06 0)
(16.8161 -5.26347e-06 0)
(16.8161 5.04184e-07 0)
(16.8163 1.05203e-07 0)
(16.8163 1.535e-06 0)
(16.8164 -9.57588e-06 0)
(16.8166 -7.33796e-06 0)
(16.8171 -1.83863e-05 0)
(16.8174 -1.63497e-05 0)
(16.8178 -3.89585e-05 0)
(16.8185 -3.719e-05 0)
(16.8196 -4.95966e-05 0)
(16.8203 -4.54103e-05 0)
(16.8212 -7.38181e-05 0)
(16.8223 -6.02821e-05 0)
(16.8236 -7.23838e-05 0)
(16.8248 -9.58905e-05 0)
(16.8266 -0.000145308 0)
(16.829 -0.000142369 0)
(16.8311 -7.59278e-05 0)
(16.8318 -9.99227e-06 0)
(16.8315 -2.22877e-06 0)
(16.8316 -5.86288e-05 0)
(16.8329 -0.000116792 0)
(16.8346 -7.22618e-05 0)
(16.8356 9.83059e-06 0)
(16.835 5.66644e-05 0)
(16.8341 2.09297e-05 0)
(16.8343 -6.51098e-05 0)
(16.8359 -0.000143271 0)
(16.8382 -0.000115616 0)
(16.8396 -5.93821e-05 0)
(16.8405 -2.20353e-05 0)
(16.8402 -1.96898e-05 0)
(16.8414 -7.86899e-05 0)
(16.8424 -3.7265e-05 0)
(16.8431 3.22655e-05 0)
(16.8416 7.11323e-05 0)
(16.8409 6.09604e-05 0)
(16.8392 3.73763e-06 0)
(16.8403 -0.000119714 0)
(16.8424 -0.000142146 0)
(16.8443 -9.18474e-05 0)
(16.8445 -3.97348e-06 0)
(16.8438 5.23306e-05 0)
(16.8421 0.000104741 0)
(16.8402 0.000106253 0)
(16.8381 9.50538e-05 0)
(16.8366 2.90568e-05 0)
(20.0392 0.0518033 0)
(20.0922 0.029883 0)
(20.0938 0.0269267 0)
(20.0533 0.0221106 0)
(19.9231 0.0233717 0)
(19.1529 0.0406988 0)
(18.0609 0.04815 0)
(17.3315 0.032542 0)
(16.9534 0.0160008 0)
(16.7928 0.00558087 0)
(16.7502 5.47296e-05 0)
(16.7708 -0.00259409 0)
(16.821 -0.00353705 0)
(16.8793 -0.00345398 0)
(16.9315 -0.00280905 0)
(16.9717 -0.00202396 0)
(16.9992 -0.00133876 0)
(17.0169 -0.000836026 0)
(17.0275 -0.000504413 0)
(17.0339 -0.000301561 0)
(17.0375 -0.000158022 0)
(17.0396 -8.63648e-05 0)
(17.0406 -4.09859e-05 0)
(17.0411 -1.95774e-05 0)
(17.0414 -6.65262e-06 0)
(17.0415 -7.49814e-06 0)
(17.0416 -5.57338e-06 0)
(17.0417 -5.85518e-06 0)
(17.0417 -3.58466e-07 0)
(17.0419 -5.56757e-07 0)
(17.0419 1.35256e-06 0)
(17.042 -1.08446e-05 0)
(17.0422 -9.79711e-06 0)
(17.0427 -2.16017e-05 0)
(17.0429 -1.92286e-05 0)
(17.0433 -4.40332e-05 0)
(17.0439 -4.43242e-05 0)
(17.0449 -5.73577e-05 0)
(17.0456 -5.24981e-05 0)
(17.0464 -8.35474e-05 0)
(17.0475 -7.069e-05 0)
(17.0487 -8.35664e-05 0)
(17.0499 -0.000109929 0)
(17.0516 -0.000165301 0)
(17.0539 -0.000163151 0)
(17.0558 -8.82656e-05 0)
(17.0565 -1.16748e-05 0)
(17.0562 -1.60751e-06 0)
(17.0563 -6.57947e-05 0)
(17.0575 -0.000131738 0)
(17.0592 -8.43717e-05 0)
(17.0601 8.80902e-06 0)
(17.0596 6.38541e-05 0)
(17.0588 2.45352e-05 0)
(17.0589 -7.32739e-05 0)
(17.0603 -0.000161915 0)
(17.0625 -0.000133101 0)
(17.0639 -6.98274e-05 0)
(17.0648 -2.51318e-05 0)
(17.0645 -2.34509e-05 0)
(17.0656 -8.92849e-05 0)
(17.0666 -4.43766e-05 0)
(17.0672 3.62883e-05 0)
(17.0659 8.15472e-05 0)
(17.0652 7.19998e-05 0)
(17.0635 6.52736e-06 0)
(17.0644 -0.000134924 0)
(17.0664 -0.000161757 0)
(17.0683 -0.000103357 0)
(17.0685 -2.99594e-06 0)
(17.0679 6.20629e-05 0)
(17.0663 0.000120845 0)
(17.0645 0.000123535 0)
(17.0625 0.000110516 0)
(17.0611 3.51894e-05 0)
(20.0451 0.0510196 0)
(20.1078 0.0295365 0)
(20.1271 0.0269668 0)
(20.1172 0.022773 0)
(20.0425 0.0278054 0)
(19.3809 0.050287 0)
(18.3289 0.0577307 0)
(17.5949 0.0384626 0)
(17.2038 0.0189191 0)
(17.0322 0.00670292 0)
(16.9827 0.000194944 0)
(17.0002 -0.00296267 0)
(17.0503 -0.00411797 0)
(17.1105 -0.00405234 0)
(17.1654 -0.00331242 0)
(17.2082 -0.00239451 0)
(17.2377 -0.00158705 0)
(17.2567 -0.000992184 0)
(17.2683 -0.000598958 0)
(17.2752 -0.000357519 0)
(17.2792 -0.000189331 0)
(17.2814 -0.000103709 0)
(17.2826 -4.97747e-05 0)
(17.2832 -2.37997e-05 0)
(17.2835 -8.64727e-06 0)
(17.2836 -8.85136e-06 0)
(17.2838 -6.49313e-06 0)
(17.2838 -6.52602e-06 0)
(17.2839 -1.3283e-06 0)
(17.2841 -1.30039e-06 0)
(17.2841 1.15054e-06 0)
(17.2841 -1.21162e-05 0)
(17.2843 -1.2333e-05 0)
(17.2847 -2.48848e-05 0)
(17.285 -2.212e-05 0)
(17.2853 -4.91407e-05 0)
(17.2859 -5.16639e-05 0)
(17.2869 -6.5331e-05 0)
(17.2875 -5.97174e-05 0)
(17.2882 -9.34137e-05 0)
(17.2892 -8.14088e-05 0)
(17.2904 -9.51029e-05 0)
(17.2914 -0.000124424 0)
(17.293 -0.00018599 0)
(17.2952 -0.000184878 0)
(17.297 -0.000101326 0)
(17.2977 -1.34622e-05 0)
(17.2974 -6.82645e-07 0)
(17.2975 -7.2897e-05 0)
(17.2985 -0.000147155 0)
(17.3001 -9.73431e-05 0)
(17.3011 7.29856e-06 0)
(17.3006 7.12858e-05 0)
(17.2998 2.87193e-05 0)
(17.2999 -8.12081e-05 0)
(17.3011 -0.000180971 0)
(17.3032 -0.000151533 0)
(17.3046 -8.11142e-05 0)
(17.3054 -2.85914e-05 0)
(17.3052 -2.73832e-05 0)
(17.3062 -0.00010029 0)
(17.3072 -5.20043e-05 0)
(17.3078 4.03145e-05 0)
(17.3065 9.26677e-05 0)
(17.3058 8.42286e-05 0)
(17.3041 1.03164e-05 0)
(17.3049 -0.000150244 0)
(17.3067 -0.000182275 0)
(17.3086 -0.000115715 0)
(17.3088 -2.32306e-06 0)
(17.3083 7.18956e-05 0)
(17.3068 0.000137273 0)
(17.3051 0.00014122 0)
(17.3033 0.000126308 0)
(17.302 4.13644e-05 0)
(20.0494 0.0500531 0)
(20.1189 0.0290297 0)
(20.1498 0.0267945 0)
(20.1586 0.0230839 0)
(20.1244 0.0316659 0)
(19.5949 0.0597921 0)
(18.6098 0.0679543 0)
(17.8786 0.045052 0)
(17.4746 0.0222706 0)
(17.2906 0.00804811 0)
(17.2328 0.000414244 0)
(17.2462 -0.00334471 0)
(17.2957 -0.00476533 0)
(17.3576 -0.00473676 0)
(17.4152 -0.00389714 0)
(17.4607 -0.00282938 0)
(17.4924 -0.00188068 0)
(17.513 -0.00117789 0)
(17.5255 -0.000711866 0)
(17.5331 -0.000424501 0)
(17.5374 -0.000227141 0)
(17.5399 -0.000124777 0)
(17.5413 -6.06215e-05 0)
(17.5419 -2.91266e-05 0)
(17.5422 -1.12213e-05 0)
(17.5424 -1.04871e-05 0)
(17.5425 -7.55827e-06 0)
(17.5426 -7.29349e-06 0)
(17.5426 -2.4113e-06 0)
(17.5429 -2.13241e-06 0)
(17.5429 9.28023e-07 0)
(17.5429 -1.3364e-05 0)
(17.5431 -1.49062e-05 0)
(17.5435 -2.81791e-05 0)
(17.5437 -2.4959e-05 0)
(17.544 -5.41783e-05 0)
(17.5445 -5.90974e-05 0)
(17.5454 -7.3398e-05 0)
(17.5459 -6.69427e-05 0)
(17.5466 -0.000103244 0)
(17.5475 -9.22819e-05 0)
(17.5486 -0.000106837 0)
(17.5496 -0.000139197 0)
(17.551 -0.000207144 0)
(17.553 -0.000207369 0)
(17.5548 -0.000115039 0)
(17.5554 -1.53439e-05 0)
(17.5551 6.22412e-07 0)
(17.5551 -7.97651e-05 0)
(17.5561 -0.00016286 0)
(17.5576 -0.00011115 0)
(17.5585 5.19437e-06 0)
(17.5582 7.88743e-05 0)
(17.5574 3.35679e-05 0)
(17.5574 -8.86724e-05 0)
(17.5585 -0.000200159 0)
(17.5604 -0.000170789 0)
(17.5617 -9.32437e-05 0)
(17.5626 -3.24531e-05 0)
(17.5624 -3.14567e-05 0)
(17.5633 -0.000111597 0)
(17.5642 -6.01379e-05 0)
(17.5648 4.42703e-05 0)
(17.5636 0.000104476 0)
(17.5629 9.77461e-05 0)
(17.5612 1.53309e-05 0)
(17.5618 -0.000165369 0)
(17.5635 -0.000203536 0)
(17.5653 -0.000128937 0)
(17.5655 -2.09143e-06 0)
(17.5651 8.16304e-05 0)
(17.5637 0.000153749 0)
(17.5622 0.000159037 0)
(17.5605 0.000142156 0)
(17.5594 4.75377e-05 0)
(20.0524 0.0489073 0)
(20.1268 0.028379 0)
(20.1656 0.0264513 0)
(20.1865 0.023109 0)
(20.1807 0.0348133 0)
(19.7916 0.0688218 0)
(18.9004 0.0786268 0)
(18.1819 0.0523263 0)
(17.7662 0.0261173 0)
(17.5686 0.00966723 0)
(17.5012 0.000743092 0)
(17.5091 -0.00372799 0)
(17.5572 -0.00548085 0)
(17.6206 -0.00551706 0)
(17.681 -0.00457544 0)
(17.7293 -0.00333949 0)
(17.7632 -0.00222785 0)
(17.7854 -0.00139874 0)
(17.799 -0.000846706 0)
(17.8073 -0.000504703 0)
(17.812 -0.000272771 0)
(17.8147 -0.000150353 0)
(17.8162 -7.39821e-05 0)
(17.8169 -3.58107e-05 0)
(17.8173 -1.45239e-05 0)
(17.8175 -1.24695e-05 0)
(17.8176 -8.79938e-06 0)
(17.8177 -8.17824e-06 0)
(17.8178 -3.60874e-06 0)
(17.818 -3.05314e-06 0)
(17.818 6.87654e-07 0)
(17.818 -1.456e-05 0)
(17.8182 -1.7456e-05 0)
(17.8185 -3.14118e-05 0)
(17.8187 -2.76589e-05 0)
(17.819 -5.9026e-05 0)
(17.8194 -6.64718e-05 0)
(17.8202 -8.14062e-05 0)
(17.8207 -7.40099e-05 0)
(17.8213 -0.000112832 0)
(17.8221 -0.000103098 0)
(17.8231 -0.000118565 0)
(17.824 -0.000154018 0)
(17.8253 -0.000228483 0)
(17.8271 -0.000230388 0)
(17.8287 -0.00012928 0)
(17.8293 -1.72861e-05 0)
(17.829 2.39476e-06 0)
(17.829 -8.62019e-05 0)
(17.8299 -0.000178643 0)
(17.8312 -0.000125729 0)
(17.8322 2.40627e-06 0)
(17.8319 8.65239e-05 0)
(17.8311 3.91647e-05 0)
(17.831 -9.53952e-05 0)
(17.832 -0.000219145 0)
(17.8337 -0.000190691 0)
(17.835 -0.000106177 0)
(17.8358 -3.67589e-05 0)
(17.8357 -3.56178e-05 0)
(17.8365 -0.000123101 0)
(17.8373 -6.87232e-05 0)
(17.838 4.80694e-05 0)
(17.8369 0.000116943 0)
(17.8361 0.000112641 0)
(17.8344 2.18344e-05 0)
(17.8349 -0.000179961 0)
(17.8365 -0.000225322 0)
(17.8381 -0.000143024 0)
(17.8384 -2.44186e-06 0)
(17.838 9.09994e-05 0)
(17.8368 0.000169942 0)
(17.8355 0.00017661 0)
(17.834 0.000157719 0)
(17.833 5.34918e-05 0)
(20.0544 0.0475812 0)
(20.1324 0.0275924 0)
(20.1769 0.0259587 0)
(20.206 0.0228982 0)
(20.2199 0.0371466 0)
(19.967 0.0769801 0)
(19.1959 0.0894675 0)
(18.5033 0.0602638 0)
(18.0785 0.0305188 0)
(17.8667 0.0116184 0)
(17.7881 0.00121995 0)
(17.7894 -0.00409429 0)
(17.8351 -0.00626278 0)
(17.8994 -0.00640173 0)
(17.9623 -0.0053595 0)
(18.0133 -0.00393615 0)
(18.0496 -0.00263719 0)
(18.0734 -0.0016606 0)
(18.0881 -0.00100725 0)
(18.097 -0.000600427 0)
(18.1022 -0.000327649 0)
(18.1052 -0.000181277 0)
(18.1068 -9.03484e-05 0)
(18.1076 -4.41501e-05 0)
(18.108 -1.87011e-05 0)
(18.1083 -1.48754e-05 0)
(18.1084 -1.02471e-05 0)
(18.1085 -9.20201e-06 0)
(18.1086 -4.92646e-06 0)
(18.1087 -4.06946e-06 0)
(18.1088 4.27669e-07 0)
(18.1088 -1.5669e-05 0)
(18.1089 -1.99305e-05 0)
(18.1092 -3.4502e-05 0)
(18.1094 -3.01267e-05 0)
(18.1096 -6.35367e-05 0)
(18.11 -7.36245e-05 0)
(18.1107 -8.91744e-05 0)
(18.1111 -8.07304e-05 0)
(18.1116 -0.000121923 0)
(18.1123 -0.000113616 0)
(18.1132 -0.000130039 0)
(18.1139 -0.000168609 0)
(18.1151 -0.000249655 0)
(18.1167 -0.000253628 0)
(18.1183 -0.000143895 0)
(18.1188 -1.92387e-05 0)
(18.1185 4.73939e-06 0)
(18.1185 -9.19768e-05 0)
(18.1192 -0.000194228 0)
(18.1204 -0.00014099 0)
(18.1214 -1.16682e-06 0)
(18.1212 9.41114e-05 0)
(18.1204 4.55851e-05 0)
(18.1203 -0.000101074 0)
(18.121 -0.000237524 0)
(18.1226 -0.000211 0)
(18.1238 -0.000119849 0)
(18.1246 -4.15268e-05 0)
(18.1245 -3.98231e-05 0)
(18.1252 -0.000134644 0)
(18.126 -7.77137e-05 0)
(18.1266 5.16336e-05 0)
(18.1256 0.000130021 0)
(18.1248 0.000128998 0)
(18.1232 3.00932e-05 0)
(18.1235 -0.0001936 0)
(18.1249 -0.000247347 0)
(18.1264 -0.000157924 0)
(18.1267 -3.52022e-06 0)
(18.1264 9.97405e-05 0)
(18.1254 0.000185465 0)
(18.1243 0.000193533 0)
(18.1229 0.000172589 0)
(18.1221 5.91806e-05 0)
(20.0557 0.0460707 0)
(20.1363 0.026673 0)
(20.1851 0.0253266 0)
(20.22 0.0224857 0)
(20.2478 0.0385982 0)
(20.1173 0.0838745 0)
(19.4903 0.100093 0)
(18.84 0.0687831 0)
(18.4108 0.0355226 0)
(18.1848 0.0139652 0)
(18.0938 0.00189207 0)
(18.087 -0.00441779 0)