/*--------------------------------*- C++ -*----------------------------------*\
  =========                 |
  \\      /  F ield         | OpenFOAM: The Open Source CFD Toolbox
   \\    /   O peration     | Website:  https://openfoam.org
    \\  /    A nd           | Version:  7
     \\/     M anipulation  |
\*---------------------------------------------------------------------------*/
FoamFile
{
    version     2.0;
    format      ascii;
    class       volScalarField;
    location    "650";
    object      epsilon;
}
// * * * * * * * * * * * * * * * * * * * * * * * * * * * * * * * * * * * * * //

dimensions      [0 2 -3 0 0 0 0];

internalField   nonuniform List<scalar> 
4500
(
789.607
724.717
675.056
641.444
616.337
596.999
581.733
569.399
559.236
550.727
543.512
537.331
531.994
527.355
523.302
519.746
516.618
513.86
511.426
509.275
507.376
505.702
504.228
502.934
501.803
500.821
499.973
499.247
498.635
498.126
497.712
497.386
497.141
496.972
496.873
496.839
496.865
496.947
497.082
497.265
497.494
497.766
498.078
498.427
498.811
499.227
499.672
500.146
500.645
501.169
501.716
502.285
502.875
503.485
504.115
504.763
505.427
506.106
506.797
507.495
508.195
508.892
509.577
510.243
510.881
511.483
512.039
512.54
512.979
513.349
513.644
513.859
513.992
514.04
514.008
180.467
258.6
265.807
255.427
244.809
236.24
229.47
224.046
219.618
215.941
212.845
210.208
207.941
205.978
204.268
202.77
201.455
200.297
199.274
198.371
197.573
196.869
196.248
195.702
195.223
194.804
194.442
194.129
193.863
193.64
193.455
193.306
193.19
193.105
193.048
193.018
193.012
193.028
193.065
193.122
193.198
193.292
193.401
193.526
193.665
193.817
193.981
194.156
194.342
194.538
194.743
194.957
195.18
195.41
195.648
195.893
196.144
196.401
196.661
196.924
197.188
197.45
197.708
197.96
198.201
198.43
198.644
198.839
199.013
199.164
199.29
199.389
199.461
199.505
199.519
52.4732
112.464
134.457
135.922
132.522
128.669
125.265
122.401
120.007
117.993
116.284
114.823
113.562
112.469
111.515
110.679
109.944
109.296
108.724
108.219
107.772
107.376
107.028
106.72
106.451
106.215
106.01
105.833
105.682
105.554
105.448
105.361
105.293
105.242
105.207
105.187
105.18
105.185
105.202
105.229
105.268
105.315
105.372
105.437
105.51
105.59
105.677
105.77
105.869
105.974
106.083
106.197
106.316
106.439
106.566
106.697
106.831
106.968
107.108
107.249
107.39
107.531
107.671
107.807
107.938
108.063
108.18
108.287
108.384
108.468
108.54
108.597
108.64
108.667
108.677
18.9423
52.8112
76.111
83.4465
84.1244
82.8547
81.1903
79.5846
78.1513
76.9017
75.8187
74.8793
74.0618
73.3479
72.7222
72.1719
71.6868
71.2581
70.8788
70.5429
70.2455
69.9822
69.7494
69.544
69.3633
69.205
69.067
68.9476
68.8451
68.7581
68.6854
68.6259
68.5785
68.5424
68.5167
68.5007
68.4936
68.4945
68.503
68.5188
68.5414
68.5704
68.6053
68.6457
68.6913
68.7415
68.7962
68.855
68.9175
68.9836
69.053
69.1256
69.201
69.2793
69.3602
69.4437
69.5295
69.6173
69.7068
69.7977
69.8891
69.9805
70.0711
70.1597
70.2454
70.3271
70.4036
70.4738
70.5366
70.5912
70.6368
70.6726
70.6982
70.7132
70.7148
8.1872
25.0217
43.8942
53.7537
57.1337
57.7145
57.2786
56.5262
55.7185
54.9491
54.2478
53.6201
53.0624
52.5681
52.1302
51.742
51.3976
51.0917
50.82
50.5786
50.3641
50.1737
50.005
49.8557
49.7242
49.6086
49.5076
49.4199
49.3443
49.28
49.226
49.1814
49.1457
49.118
49.0979
49.0847
49.0781
49.0773
49.0818
49.0916
49.1064
49.1257
49.1492
49.1768
49.208
49.2427
49.2805
49.3212
49.3647
49.4106
49.459
49.5095
49.5622
49.617
49.6737
49.7323
49.7928
49.8548
49.9184
49.983
50.0483
50.1137
50.1785
50.2421
50.3034
50.3617
50.4159
50.4651
50.5085
50.5452
50.5746
50.5961
50.6092
50.6136
50.607
4.2188
11.9892
24.7098
34.5695
39.5749
41.5705
42.1325
42.0729
41.7614
41.3618
40.9462
40.5459
40.1736
39.8334
39.5253
39.2478
38.9985
38.7751
38.575
38.3962
38.2364
38.094
37.9673
37.8548
37.7554
37.6677
37.5909
37.524
37.4662
37.4168
37.3752
37.3407
37.3128
37.2911
37.275
37.2642
37.2584
37.257
37.2597
37.2663
37.2766
37.2903
37.3073
37.3274
37.3502
37.3755
37.4033
37.4333
37.4653
37.4992
37.5348
37.5722
37.6112
37.6517
37.6939
37.7375
37.7827
37.8292
37.877
37.9257
37.975
38.0244
38.0734
38.1213
38.1673
38.2106
38.2504
38.2859
38.3162
38.3406
38.3586
38.3695
38.3732
38.3692
38.3557
2.53586
6.06763
13.4269
21.5411
27.1065
30.0891
31.4755
32.0206
32.1462
32.069
31.8979
31.6884
31.4685
31.2526
31.0476
30.8568
30.6813
30.521
30.3754
30.2438
30.1251
30.0186
29.9231
29.838
29.7624
29.6955
29.6366
29.5852
29.5407
29.5025
29.4703
29.4435
29.4217
29.4047
29.3921
29.3836
29.3789
29.3777
29.3797
29.3846
29.3924
29.4029
29.4159
29.4312
29.4487
29.4682
29.4895
29.5125
29.5371
29.5631
29.5906
29.6193
29.6493
29.6805
29.7131
29.7468
29.7819
29.818
29.8552
29.8931
29.9316
29.9701
30.0082
30.0452
30.0805
30.1132
30.1428
30.1683
30.1892
30.2047
30.2143
30.2176
30.2142
30.2039
30.1854
1.72014
3.39495
7.19137
12.8165
17.9493
21.4137
23.4192
24.4852
25.0083
25.2292
25.2842
25.2494
25.1674
25.0624
24.9482
24.8326
24.7203
24.6137
24.514
24.4218
24.3374
24.2604
24.1908
24.1281
24.072
24.0221
23.9779
23.9393
23.9057
23.8769
23.8525
23.8323
23.8159
23.8032
23.7938
23.7877
23.7844
23.7839
23.786
23.7902
23.7967
23.8053
23.8158
23.8282
23.8422
23.8578
23.8749
23.8932
23.9128
23.9335
23.9552
23.978
24.0018
24.0266
24.0524
24.0792
24.107
24.1357
24.1653
24.1955
24.226
24.2565
24.2865
24.3154
24.3426
24.3675
24.3894
24.4076
24.4214
24.4303
24.4339
24.4317
24.4234
24.4089
24.3872
1.27853
2.13151
3.97937
7.32524
11.3239
14.7132
17.0625
18.5327
19.4051
19.9031
20.1732
20.3058
20.3557
20.3562
20.3275
20.2824
20.2286
20.1713
20.1134
20.057
20.0032
19.9528
19.9061
19.8633
19.8246
19.7897
19.7587
19.7314
19.7076
19.6872
19.67
19.6558
19.6445
19.6359
19.6298
19.6261
19.6247
19.6254
19.6281
19.6324
19.6384
19.6461
19.6552
19.6658
19.6776
19.6907
19.7048
19.72
19.7361
19.7531
19.7708
19.7894
19.8087
19.8288
19.8497
19.8714
19.8939
19.9171
19.9409
19.9652
19.9896
20.0139
20.0377
20.0604
20.0814
20.1003
20.1163
20.1289
20.1375
20.1416
20.1408
20.1348
20.1234
20.1063
20.083
1.01869
1.48311
2.38188
4.15478
6.80161
9.62717
11.9836
13.6873
14.8322
15.5744
16.0458
16.3399
16.5189
16.623
16.6785
16.7023
16.7057
16.6961
16.6786
16.6564
16.632
16.6068
16.5819
16.558
16.5356
16.5151
16.4964
16.4799
16.4654
16.4531
16.4428
16.4345
16.4282
16.4238
16.4212
16.4203
16.421
16.4233
16.427
16.4321
16.4383
16.4457
16.4542
16.4638
16.4744
16.4858
16.4981
16.5112
16.5249
16.5392
16.5542
16.5697
16.5858
16.6024
16.6197
16.6375
16.6559
16.6748
16.6942
16.7139
16.7336
16.7531
16.7719
16.7897
16.8059
16.82
16.8315
16.8399
16.8446
16.8453
16.8416
16.8332
16.8199
16.8016
16.7779
0.856486
1.12027
1.57153
2.45563
3.97547
5.97825
8.01089
9.72611
11.0249
11.954
12.6007
13.0453
13.349
13.5554
13.6948
13.7877
13.8485
13.8869
13.9097
13.9219
13.9266
13.9265
13.9233
13.9181
13.912
13.9055
13.8991
13.8933
13.8881
13.8839
13.8806
13.8784
13.8773
13.8773
13.8784
13.8806
13.8838
13.8881
13.8934
13.8996
13.9066
13.9144
13.9229
13.9322
13.9422
13.9528
13.9639
13.9756
13.9878
14.0004
14.0133
14.0267
14.0404
14.0545
14.069
14.0839
14.0992
14.1149
14.1308
14.1468
14.1628
14.1784
14.1933
14.2072
14.2196
14.23
14.2381
14.2433
14.2452
14.2435
14.2379
14.228
14.2139
14.1953
14.172
0.751138
0.901882
1.1357
1.57101
2.36209
3.58036
5.07589
6.57156
7.86573
8.89151
9.66657
10.2385
10.6564
10.9608
11.1828
11.345
11.4638
11.551
11.6151
11.6622
11.6969
11.7225
11.7413
11.7553
11.7658
11.7738
11.7801
11.7852
11.7897
11.7938
11.7979
11.802
11.8064
11.8112
11.8164
11.8221
11.8283
11.835
11.8423
11.8501
11.8583
11.867
11.8761
11.8857
11.8956
11.9059
11.9166
11.9275
11.9388
11.9502
11.9619
11.9737
11.9858
11.9981
12.0106
12.0233
12.0362
12.0493
12.0625
12.0757
12.0886
12.1012
12.113
12.1238
12.1332
12.1409
12.1463
12.1491
12.1491
12.1457
12.1389
12.1284
12.114
12.0958
12.0736
0.681084
0.763094
0.884561
1.10001
1.49244
2.15026
3.09086
4.2063
5.32813
6.32978
7.15924
7.81699
8.32691
8.71822
9.01769
9.24721
9.42379
9.56035
9.6666
9.74982
9.81548
9.86769
9.90958
9.94353
9.97136
9.99448
10.014
10.0307
10.0453
10.0584
10.0702
10.0812
10.0916
10.1016
10.1114
10.121
10.1306
10.1402
10.1499
10.1598
10.1698
10.1798
10.19
10.2003
10.2107
10.2213
10.2319
10.2427
10.2535
10.2644
10.2753
10.2862
10.2972
10.3082
10.3193
10.3304
10.3415
10.3527
10.3638
10.3747
10.3854
10.3955
10.405
10.4134
10.4204
10.4259
10.4293
10.4304
10.4289
10.4246
10.4171
10.4064
10.3923
10.3748
10.354
0.63403
0.671598
0.730768
0.83575
1.02644
1.35691
1.87632
2.58645
3.41896
4.27087
5.05819
5.73808
6.30134
6.75721
7.12188
7.41233
7.64372
7.8286
7.97704
8.09693
8.19441
8.27426
8.34018
8.39508
8.44121
8.48035
8.5139
8.54298
8.56847
8.59108
8.61137
8.62981
8.64676
8.66253
8.67735
8.69142
8.70489
8.7179
8.73054
8.7429
8.75503
8.76693
8.77862
8.79014
8.80152
8.81278
8.82393
8.83496
8.84587
8.85665
8.86729
8.87779
8.88816
8.8984
8.90852
8.91853
8.92842
8.93816
8.9477
8.95696
8.96582
8.97412
8.98165
8.98818
8.99347
8.99722
8.99917
8.99904
8.99659
8.99159
8.98387
8.97327
8.95974
8.94325
8.92387
0.602484
0.610007
0.63217
0.67868
0.768007
0.927183
1.19007
1.58499
2.11209
2.73181
3.38151
4.0041
4.56404
5.04728
5.45396
5.79146
6.06965
6.29853
6.48706
6.64286
6.7722
6.88017
6.97088
7.04758
7.11291
7.16898
7.21746
7.25973
7.29688
7.32982
7.35927
7.38582
7.40997
7.43212
7.45259
7.47166
7.48956
7.50647
7.52254
7.5379
7.55264
7.56685
7.58053
7.59373
7.60652
7.61893
7.631
7.64274
7.65416
7.66526
7.67606
7.68655
7.69674
7.70664
7.71627
7.72563
7.7347
7.74349
7.75193
7.75997
7.76751
7.77442
7.78053
7.78566
7.78959
7.7921
7.79296
7.79195
7.78885
7.7835
7.77575
7.76547
7.75261
7.73718
7.71929
0.581598
0.568258
0.567053
0.580682
0.61734
0.689625
0.815044
1.01459
1.30566
1.69024
2.14768
2.64103
3.13178
3.59126
4.00373
4.36394
4.67321
4.93622
5.15888
5.34716
5.50658
5.64194
5.75733
5.85616
5.94124
6.01492
6.07909
6.13533
6.18494
6.22897
6.26832
6.3037
6.33574
6.36492
6.39167
6.41634
6.43923
6.46059
6.48061
6.49947
6.51733
6.53428
6.55042
6.56576
6.5804
6.5944
6.60782
6.62068
6.63302
6.64485
6.6562
6.66707
6.67748
6.68745
6.69697
6.70607
6.71475
6.72298
6.73073
6.73797
6.7446
6.75052
6.75562
6.75972
6.76266
6.76427
6.76435
6.76273
6.75924
6.75373
6.7461
6.73624
6.72411
6.70973
6.69325
0.568079
0.540126
0.523431
0.51743
0.525304
0.552668
0.607669
0.701329
0.846657
1.05501
1.32993
1.66241
2.03209
2.41414
2.7866
3.13432
3.44925
3.72875
3.97363
4.1866
4.37111
4.53081
4.66914
4.78922
4.89377
4.98516
5.06536
5.13607
5.19872
5.25449
5.30439
5.34928
5.38985
5.42671
5.46037
5.49125
5.51971
5.54608
5.5706
5.59349
5.61495
5.63512
5.65415
5.6721
5.68904
5.70506
5.72024
5.73464
5.7483
5.76125
5.77353
5.78516
5.79616
5.80655
5.81635
5.82556
5.83419
5.84224
5.84968
5.85647
5.86256
5.86786
5.87228
5.87569
5.87796
5.87895
5.87851
5.8765
5.87279
5.86727
5.85984
5.85044
5.83904
5.82566
5.81049
0.559602
0.521507
0.494215
0.475854
0.467123
0.470264
0.488837
0.527918
0.594281
0.695973
0.840597
1.03225
1.26844
1.53938
1.83035
2.12588
2.41303
2.68294
2.93066
3.15433
3.35412
3.53139
3.68811
3.82648
3.94865
4.05666
4.15237
4.23741
4.31321
4.38101
4.44188
4.49674
4.54637
4.59146
4.63258
4.67023
4.70483
4.73674
4.76628
4.79372
4.81928
4.84316
4.86552
4.88652
4.9062
4.92467
4.94203
4.95837
4.97373
4.98819
5.00177
5.01452
5.02647
5.03763
5.04804
5.05771
5.06664
5.07484
5.0823
5.08898
5.09486
5.09986
5.10391
5.10692
5.10879
5.10941
5.10867
5.10646
5.10267
5.09724
5.09008
5.08116
5.07044
5.05799
5.04399
0.5545
0.509542
0.474918
0.448452
0.429644
0.419073
0.418104
0.428877
0.454437
0.498844
0.567017
0.66401
0.793577
0.956396
1.14891
1.36364
1.59092
1.82102
2.04586
2.25963
2.45884
2.64182
2.80825
2.95863
3.09399
3.21558
3.32473
3.42275
3.51091
3.59032
3.66202
3.72691
3.78582
3.83944
3.8884
3.93322
3.97439
4.01231
4.04734
4.07978
4.10991
4.13794
4.16409
4.18852
4.21138
4.23272
4.25267
4.27133
4.28879
4.30511
4.32036
4.33457
4.3478
4.36007
4.37142
4.38186
4.39142
4.40009
4.40787
4.41476
4.42072
4.42571
4.42967
4.43255
4.43427
4.43474
4.43389
4.43164
4.42792
4.42266
4.41582
4.40738
4.39733
4.38572
4.37279
0.551578
0.502159
0.462517
0.430613
0.405436
0.386738
0.374813
0.370408
0.374735
0.389544
0.417193
0.460615
0.52306
0.607482
0.715642
0.847209
0.999339
1.16703
1.34408
1.52425
1.70217
1.87373
2.03619
2.18798
2.32843
2.4575
2.57558
2.68332
2.78147
2.87084
2.95226
3.02649
3.09425
3.15622
3.21299
3.26511
3.31305
3.35724
3.39807
3.43586
3.4709
3.50347
3.53378
3.56203
3.58839
3.61299
3.63591
3.65727
3.67717
3.69571
3.71296
3.72897
3.7438
3.7575
3.77009
3.7816
3.79207
3.8015
3.8099
3.81727
3.82359
3.82884
3.83298
3.83597
3.83776
3.8383
3.83753
3.83539
3.83185
3.82686
3.82041
3.81247
3.80307
3.79226
3.78029
0.549997
0.497833
0.454862
0.419311
0.390008
0.366314
0.347991
0.335115
0.328033
0.327378
0.334101
0.349515
0.375307
0.413461
0.46604
0.534794
0.620652
0.723263
0.840805
0.970169
1.10746
1.24861
1.38992
1.52835
1.66166
1.78835
1.90755
2.01888
2.12232
2.21806
2.30649
2.38803
2.46319
2.53246
2.59634
2.65528
2.70973
2.76008
2.8067
2.84993
2.89006
2.92736
2.96207
2.9944
3.02454
3.05265
3.07885
3.10322
3.12589
3.14695
3.1665
3.18461
3.20133
3.21672
3.23084
3.2437
3.25535
3.2658
3.27508
3.28318
3.29011
3.29586
3.30042
3.30375
3.30583
3.30664
3.30612
3.30427
3.30104
3.29644
3.29044
3.28307
3.27434
3.26432
3.25326
0.549196
0.49545
0.450382
0.412443
0.380459
0.353629
0.331457
0.313683
0.300245
0.291252
0.28699
0.287933
0.294771
0.308424
0.330031
0.360892
0.402324
0.455437
0.520857
0.598475
0.687317
0.785601
0.890966
1.00079
1.11252
1.22388
1.33303
1.43859
1.5396
1.63547
1.72589
1.81079
1.89022
1.96437
2.03347
2.09782
2.15771
2.21344
2.26531
2.3136
2.35859
2.40051
2.43959
2.47605
2.51007
2.5418
2.57142
2.599
2.62464
2.64845
2.67053
2.69096
2.70981
2.72713
2.74299
2.75743
2.77048
2.78218
2.79255
2.80162
2.80938
2.81586
2.82104
2.82493
2.82751
2.82877
2.82871
2.8273
2.82456
2.82047
2.81506
2.80834
2.80034
2.79115
2.78103
0.54882
0.494229
0.447927
0.408498
0.374812
0.346017
0.321496
0.300829
0.283749
0.270116
0.259909
0.253214
0.250232
0.251294
0.256863
0.267551
0.2841
0.307348
0.338153
0.377272
0.42521
0.482078
0.54749
0.620553
0.699939
0.784044
0.871158
0.959635
1.04801
1.13506
1.21984
1.30164
1.38001
1.45464
1.5254
1.59226
1.65527
1.71453
1.77019
1.82241
1.87136
1.91724
1.9602
2.00042
2.03807
2.07328
2.10619
2.13694
2.16558
2.1922
2.2169
2.23976
2.26086
2.28025
2.29801
2.31417
2.32879
2.3419
2.35354
2.36373
2.37251
2.3799
2.3859
2.39054
2.39382
2.39574
2.39632
2.39556
2.39348
2.39009
2.38542
2.3795
2.37237
2.36413
2.35503
0.548657
0.493654
0.446683
0.406388
0.371673
0.341678
0.31574
0.293358
0.274166
0.257902
0.244398
0.233559
0.225367
0.219876
0.217213
0.217587
0.221296
0.228722
0.240335
0.25667
0.278288
0.305721
0.339393
0.379536
0.426116
0.478796
0.536941
0.599667
0.665925
0.734602
0.804607
0.87494
0.944741
1.0133
1.08007
1.14463
1.20671
1.26611
1.32274
1.37656
1.42758
1.47584
1.52141
1.56438
1.60483
1.64286
1.67856
1.71203
1.74336
1.77257
1.79974
1.82493
1.84822
1.86967
1.88932
1.90724
1.92348
1.93807
1.95107
1.96251
1.97243
1.98087
1.98786
1.99342
1.99758
2.00037
2.0018
2.00191
2.00071
1.99825
1.99455
1.98965
1.98361
1.97652
1.96862
0.548592
0.493406
0.446107
0.405351
0.370059
0.339371
0.312608
0.289233
0.268829
0.251075
0.235728
0.222608
0.211595
0.202617
0.19565
0.190716
0.187888
0.187286
0.189086
0.193519
0.200869
0.211469
0.225679
0.243868
0.26637
0.293444
0.325224
0.361686
0.402619
0.447634
0.496183
0.547606
0.601178
0.656168
0.711876
0.767668
0.822995
0.877399
0.930512
0.98205
1.0318
1.07961
1.12539
1.16906
1.21061
1.25003
1.28732
1.32252
1.35565
1.38676
1.41583
1.4429
1.46802
1.49123
1.51256
1.53208
1.54982
1.56584
1.58018
1.59288
1.60401
1.61359
1.62169
1.62834
1.63357
1.63744
1.63997
1.6412
1.64118
1.63993
1.6375
1.63395
1.62931
1.62368
1.61728
0.548569
0.49331
0.445866
0.40489
0.369304
0.338249
0.311036
0.287114
0.266042
0.247465
0.231105
0.216739
0.204196
0.193345
0.184094
0.176382
0.17018
0.165488
0.162338
0.160793
0.160948
0.162932
0.16691
0.173077
0.181656
0.192888
0.207014
0.224254
0.244789
0.268724
0.296075
0.326749
0.360542
0.397143
0.436158
0.47713
0.519575
0.563004
0.606949
0.650978
0.694708
0.737809
0.780004
0.821062
0.860801
0.899077
0.935777
0.970819
1.00414
1.03571
1.0655
1.09346
1.11956
1.14384
1.1663
1.18696
1.20586
1.22305
1.23855
1.25243
1.26473
1.27551
1.28481
1.2927
1.29921
1.30441
1.30833
1.31102
1.31251
1.31287
1.31211
1.31031
1.30749
1.30374
1.29927
0.548561
0.493276
0.445775
0.404707
0.368989
0.337759
0.310324
0.286125
0.264707
0.245702
0.22881
0.213787
0.200435
0.188595
0.17814
0.168972
0.161016
0.154218
0.148548
0.143992
0.140556
0.138266
0.137167
0.137327
0.138831
0.141788
0.146325
0.152588
0.160732
0.170915
0.183288
0.197983
0.215094
0.234666
0.256683
0.281062
0.307653
0.336239
0.366552
0.398287
0.431114
0.464695
0.4987
0.532817
0.566756
0.600256
0.633089
0.665057
0.695992
0.725754
0.754233
0.781345
0.806982
0.831093
0.853647
0.874627
0.894037
0.911888
0.928208
0.943031
0.956399
0.968359
0.97896
0.988251
0.996282
1.0031
1.00875
1.01328
1.01672
1.01912
1.0205
1.02093
1.02042
1.01905
1.01696
0.548559
0.493266
0.445745
0.404642
0.368873
0.337571
0.31004
0.285716
0.264139
0.24493
0.227779
0.212432
0.198676
0.186338
0.175272
0.165362
0.156511
0.148642
0.141694
0.13562
0.13039
0.125983
0.122391
0.11962
0.117686
0.116617
0.116455
0.117254
0.11908
0.122013
0.126141
0.131563
0.138379
0.14669
0.156589
0.168154
0.181436
0.196459
0.213205
0.231616
0.251591
0.272988
0.295629
0.319307
0.343797
0.368861
0.394262
0.419767
0.445156
0.470226
0.494797
0.518715
0.541844
0.564049
0.585236
0.605333
0.624289
0.642072
0.658668
0.674076
0.688304
0.701372
0.713304
0.724129
0.733877
0.742579
0.750266
0.756967
0.762711
0.767523
0.771431
0.77446
0.776639
0.778006
0.778657
0.548558
0.493263
0.445735
0.404622
0.368836
0.337509
0.309944
0.285572
0.26393
0.244636
0.227375
0.211885
0.197946
0.185378
0.174026
0.163764
0.154484
0.146098
0.138532
0.131724
0.125625
0.120197
0.11541
0.111242
0.10768
0.10472
0.102362
0.100617
0.0995
0.0990368
0.0992589
0.100206
0.101924
0.104467
0.107894
0.112267
0.11765
0.124106
0.13169
0.140449
0.150413
0.161594
0.173981
0.187535
0.202194
0.217867
0.23444
0.251782
0.269744
0.288169
0.306896
0.325769
0.344641
0.363364
0.381799
0.399825
0.417336
0.434242
0.45047
0.465964
0.480678
0.494581
0.507652
0.519877
0.531251
0.541772
0.551445
0.560274
0.568267
0.575432
0.581782
0.587325
0.592076
0.596055
0.599302
0.548558
0.493263
0.445733
0.404617
0.368827
0.337493
0.309918
0.285532
0.26387
0.244548
0.227249
0.211707
0.197701
0.185045
0.173583
0.163183
0.153733
0.145139
0.137321
0.130213
0.123758
0.11791
0.112631
0.10789
0.103663
0.099932
0.0966848
0.0939146
0.0916196
0.0898032
0.0884736
0.0876441
0.0873327
0.0875625
0.0883618
0.0897634
0.0918048
0.0945275
0.0979764
0.102198
0.107239
0.113145
0.119956
0.127704
0.136411
0.146084
0.156716
0.168278
0.180723
0.193983
0.207972
0.22259
0.237721
0.253247
0.269035
0.284949
0.30086
0.316641
0.332178
0.347368
0.362119
0.376355
0.390012
0.403038
0.415393
0.427045
0.437973
0.448159
0.457595
0.466272
0.47419
0.481347
0.487747
0.493398
0.49831
0.548558
0.493263
0.445733
0.404617
0.368827
0.337493
0.309918
0.285532
0.26387
0.244548
0.227249
0.211707
0.197701
0.185045
0.173583
0.163183
0.153733
0.145138
0.137321
0.130212
0.123758
0.11791
0.112631
0.10789
0.103663
0.0999317
0.0966844
0.0939141
0.0916191
0.0898026
0.0884729
0.0876433
0.0873318
0.0875615
0.0883607
0.0897621
0.0918033
0.0945259
0.0979745
0.102196
0.107237
0.113143
0.119953
0.127701
0.136407
0.146081
0.156713
0.168274
0.180719
0.193979
0.207968
0.222586
0.237717
0.253243
0.269031
0.284946
0.300857
0.316639
0.332177
0.347368
0.362121
0.376358
0.390016
0.403043
0.415398
0.42705
0.437977
0.448163
0.457596
0.466271
0.474185
0.48134
0.487737
0.493385
0.498294
0.548558
0.493263
0.445735
0.404622
0.368836
0.337509
0.309944
0.285572
0.26393
0.244636
0.227375
0.211884
0.197946
0.185377
0.174026
0.163763
0.154484
0.146097
0.138531
0.131722
0.125623
0.120195
0.115407
0.111239
0.107677
0.104716
0.102357
0.100611
0.0994937
0.0990294
0.0992503
0.100196
0.101912
0.104454
0.107878
0.112249
0.11763
0.124083
0.131665
0.14042
0.150381
0.161559
0.173942
0.187492
0.202147
0.217816
0.234387
0.251725
0.269684
0.288106
0.306831
0.325702
0.344572
0.363294
0.381729
0.399756
0.417267
0.434175
0.450406
0.465902
0.480619
0.494525
0.507598
0.519825
0.5312
0.541721
0.551391
0.560217
0.568206
0.575367
0.581711
0.58725
0.591997
0.595974
0.599222
0.548559
0.493266
0.445745
0.404642
0.368873
0.337571
0.31004
0.285716
0.264138
0.244929
0.227779
0.212431
0.198675
0.186336
0.175271
0.16536
0.156509
0.148639
0.14169
0.135616
0.130384
0.125976
0.122383
0.119611
0.117674
0.116603
0.116439
0.117235
0.119058
0.121987
0.126111
0.131527
0.138338
0.146643
0.156536
0.168092
0.181367
0.196381
0.213119
0.231521
0.251487
0.272876
0.295508
0.319178
0.34366
0.368718
0.394112
0.419612
0.444995
0.470062
0.494629
0.518544
0.541671
0.563875
0.585061
0.605159
0.624116
0.641902
0.658502
0.673912
0.688144
0.701216
0.71315
0.723977
0.733725
0.742427
0.750113
0.756813
0.762554
0.767366
0.771276
0.774309
0.776496
0.777875
0.778541
0.548561
0.493276
0.445775
0.404707
0.368988
0.337758
0.310324
0.286124
0.264706
0.245701
0.228808
0.213785
0.200432
0.188591
0.178136
0.168967
0.161009
0.15421
0.148538
0.143979
0.14054
0.138247
0.137145
0.1373
0.138799
0.14175
0.146281
0.152535
0.16067
0.170842
0.183205
0.197887
0.214983
0.23454
0.256542
0.280906
0.307481
0.336052
0.366351
0.398072
0.430886
0.464455
0.49845
0.532558
0.566488
0.599982
0.632809
0.664772
0.695703
0.725461
0.753938
0.781049
0.806685
0.830796
0.85335
0.874333
0.893744
0.911599
0.927922
0.942749
0.95612
0.968084
0.978687
0.987982
0.996016
1.00284
1.00849
1.01303
1.01648
1.01889
1.0203
1.02074
1.02026
1.01893
1.01688
0.548569
0.49331
0.445866
0.404889
0.369303
0.338248
0.311035
0.287112
0.266039
0.247462
0.2311
0.216733
0.204189
0.193336
0.184083
0.176368
0.170163
0.165467
0.162313
0.160762
0.16091
0.162886
0.166854
0.173011
0.181577
0.192794
0.206902
0.224124
0.244637
0.268549
0.295877
0.326527
0.360295
0.396872
0.435863
0.476815
0.519241
0.562652
0.606581
0.650597
0.694316
0.737409
0.779595
0.820647
0.860382
0.898654
0.935351
0.970391
1.00371
1.03528
1.06507
1.09302
1.11913
1.14341
1.16587
1.18654
1.20544
1.22263
1.23814
1.25202
1.26433
1.27511
1.28442
1.29231
1.29884
1.30405
1.30799
1.3107
1.31222
1.31261
1.3119
1.31014
1.30738
1.3037
1.29929
0.548592
0.493406
0.446106
0.40535
0.370057
0.339369
0.312604
0.289228
0.268823
0.251067
0.235717
0.222595
0.211579
0.202597
0.195624
0.190685
0.187849
0.187238
0.189027
0.193447
0.200782
0.211362
0.225551
0.243714
0.266187
0.293228
0.324974
0.361399
0.402296
0.447274
0.495789
0.547179
0.600722
0.655686
0.711372
0.767145
0.822457
0.876849
0.929953
0.981483
1.03123
1.07904
1.12481
1.16848
1.21003
1.24945
1.28674
1.32194
1.35507
1.38618
1.41526
1.44233
1.46745
1.49066
1.512
1.53152
1.54927
1.56529
1.57963
1.59235
1.60348
1.61308
1.62118
1.62785
1.63311
1.637
1.63957
1.64085
1.64087
1.63968
1.63732
1.63384
1.62928
1.62373
1.61743
0.548657
0.493653
0.446681
0.406385
0.371669
0.341672
0.315732
0.293348
0.274153
0.257886
0.244376
0.233532
0.225333
0.219833
0.217159
0.21752
0.221212
0.228618
0.240206
0.256511
0.278094
0.305486
0.339112
0.379205
0.425732
0.478359
0.536452
0.599128
0.665342
0.733979
0.80395
0.874255
0.944034
1.01258
1.07933
1.14388
1.20595
1.26535
1.32198
1.3758
1.42682
1.47508
1.52066
1.56363
1.60408
1.64211
1.67782
1.7113
1.74263
1.77185
1.79902
1.82421
1.8475
1.86895
1.88861
1.90654
1.92277
1.93738
1.95038
1.96183
1.97177
1.98023
1.98724
1.99283
1.99703
1.99987
2.00135
2.00152
2.0004
1.99801
1.9944
1.9896
1.98365
1.97666
1.96886
0.54882
0.494228
0.447924
0.408492
0.374804
0.346005
0.321481
0.300809
0.283722
0.270083
0.259867
0.253159
0.250163
0.251206
0.256753
0.267411
0.283923
0.307126
0.337878
0.376935
0.424804
0.481598
0.546934
0.619922
0.699239
0.783281
0.870341
0.958773
1.04711
1.13413
1.21889
1.30068
1.37904
1.45366
1.52442
1.59128
1.65429
1.71356
1.76922
1.82145
1.87041
1.91629
1.95926
1.99949
2.03714
2.07236
2.10528
2.13603
2.16468
2.19131
2.21601
2.23887
2.25997
2.27938
2.29713
2.3133
2.32793
2.34105
2.3527
2.36291
2.37172
2.37913
2.38517
2.38985
2.39318
2.39517
2.39582
2.39514
2.39315
2.38985
2.38528
2.37946
2.37244
2.3643
2.35529
0.549195
0.495446
0.450375
0.412431
0.380442
0.353607
0.331427
0.313645
0.300196
0.291189
0.286908
0.287827
0.294635
0.308247
0.329804
0.360602
0.401957
0.454981
0.520302
0.597814
0.68655
0.784734
0.890008
0.999757
1.11142
1.22273
1.33185
1.43738
1.53838
1.63424
1.72466
1.80955
1.88899
1.96314
2.03226
2.09661
2.15651
2.21225
2.26414
2.31244
2.35744
2.39937
2.43846
2.47493
2.50895
2.5407
2.57032
2.59791
2.62355
2.64737
2.66945
2.68989
2.70874
2.72607
2.74194
2.75638
2.76944
2.78116
2.79155
2.80063
2.80843
2.81495
2.82018
2.82413
2.82677
2.82811
2.82813
2.82682
2.82417
2.82019
2.81488
2.80826
2.80036
2.79127
2.78123
0.549994
0.497825
0.454848
0.419289
0.389977
0.366273
0.347938
0.335046
0.327943
0.32726
0.333945
0.34931
0.375036
0.413106
0.46558
0.534211
0.61993
0.722395
0.839792
0.969022
1.1062
1.24725
1.38849
1.52687
1.66014
1.78681
1.906
2.01733
2.12077
2.21653
2.30497
2.38653
2.4617
2.53099
2.59488
2.65384
2.7083
2.75866
2.8053
2.84854
2.88868
2.926
2.96072
2.99306
3.02321
3.05133
3.07753
3.10191
3.12459
3.14566
3.16521
3.18332
3.20005
3.21545
3.22957
3.24244
3.2541
3.26458
3.27388
3.28201
3.28899
3.29479
3.2994
3.3028
3.30496
3.30585
3.30543
3.30367
3.30055
3.29604
3.29015
3.28287
3.27422
3.26428
3.25329
0.551572
0.502144
0.462491
0.430575
0.405384
0.386669
0.374721
0.370286
0.374571
0.389323
0.416894
0.460212
0.522523
0.606781
0.714752
0.846117
0.99805
1.16556
1.34246
1.52252
1.70035
1.87185
2.03428
2.18606
2.3265
2.45559
2.57369
2.68144
2.77961
2.86901
2.95045
3.0247
3.09249
3.15448
3.21127
3.26341
3.31137
3.35558
3.39642
3.43422
3.46928
3.50186
3.53218
3.56044
3.58681
3.61142
3.63435
3.65571
3.67562
3.69417
3.71142
3.72744
3.74227
3.75597
3.76857
3.78011
3.79059
3.80005
3.80848
3.81588
3.82225
3.82756
3.83177
3.83483
3.83671
3.83733
3.83666
3.83462
3.83117
3.82628
3.81991
3.81206
3.80273
3.79197
3.78004
0.55449
0.509515
0.474874
0.448389
0.429558
0.418956
0.417945
0.428659
0.454136
0.498425
0.566438
0.663225
0.792544
0.95509
1.14733
1.36182
1.58889
1.81885
2.04358
2.25729
2.45647
2.63945
2.80589
2.95629
3.09168
3.2133
3.32248
3.42054
3.50873
3.58817
3.6599
3.72483
3.78376
3.83741
3.88638
3.93123
3.97242
4.01036
4.0454
4.07786
4.108
4.13605
4.16221
4.18665
4.20951
4.23086
4.25082
4.26949
4.28695
4.30328
4.31853
4.33275
4.34598
4.35826
4.36962
4.38008
4.38966
4.39836
4.40618
4.41311
4.41912
4.42417
4.42821
4.43116
4.43297
4.43353
4.43277
4.43061
4.42697
4.42179
4.41503
4.40665
4.39665
4.38507
4.37214
0.559583
0.521462
0.494144
0.475753
0.466982
0.470068
0.48856
0.527523
0.593716
0.69517
0.839487
1.03078
1.2666
1.53718
1.82787
2.12319
2.41021
2.68004
2.92774
3.15142
3.35124
3.52854
3.68531
3.82373
3.94595
4.05401
4.14977
4.23485
4.31069
4.37852
4.43942
4.49431
4.54398
4.58909
4.63024
4.6679
4.70252
4.73445
4.76401
4.79146
4.81703
4.84092
4.8633
4.8843
4.904
4.92248
4.93984
4.95618
4.97155
4.98601
4.9996
5.01235
5.02431
5.03548
5.0459
5.05559
5.06455
5.07278
5.08028
5.08701
5.09294
5.098
5.10212
5.10521
5.10716
5.10786
5.1072
5.10507
5.10136
5.09599
5.08889
5.08001
5.06932
5.05687
5.04285
0.568046
0.540055
0.523319
0.517269
0.525073
0.552333
0.607175
0.700596
0.845582
1.05349
1.3279
1.65988
2.02915
2.41088
2.78314
3.13077
3.44567
3.72519
3.97012
4.18314
4.36773
4.52749
4.66589
4.78604
4.89065
4.98209
5.06235
5.13311
5.19579
5.25161
5.30154
5.34646
5.38706
5.42394
5.45762
5.48853
5.51701
5.54339
5.56793
5.59083
5.6123
5.63249
5.65153
5.66949
5.68643
5.70246
5.71765
5.73205
5.74571
5.75867
5.77095
5.78259
5.7936
5.804
5.81381
5.82304
5.8317
5.83978
5.84725
5.85409
5.86023
5.8656
5.87008
5.87356
5.87591
5.87697
5.8766
5.87466
5.87101
5.86553
5.85814
5.84876
5.83736
5.82396
5.80873
0.581544
0.568148
0.56688
0.580426
0.616956
0.689037
0.814135
1.0132
1.30366
1.68754
2.14433
2.63718
3.1276
3.58692
3.99935
4.35958
4.66893
4.93203
5.15478
5.34317
5.50268
5.63813
5.7536
5.8525
5.93765
6.01139
6.07561
6.1319
6.18155
6.22562
6.265
6.30042
6.33248
6.36168
6.38846
6.41315
6.43606
6.45743
6.47747
6.49634
6.51421
6.53117
6.54732
6.56267
6.57731
6.59132
6.60474
6.6176
6.62995
6.64178
6.65313
6.66401
6.67443
6.6844
6.69395
6.70307
6.71176
6.72002
6.72782
6.73509
6.74177
6.74775
6.7529
6.75707
6.76008
6.76174
6.76188
6.76031
6.75687
6.75139
6.74377
6.73391
6.72176
6.70734
6.69079
0.6024
0.609839
0.631903
0.678265
0.767348
0.926113
1.18836
1.58242
2.10857
2.72746
3.37659
3.99885
4.55868
5.04194
5.44872
5.78634
6.06468
6.2937
6.48236
6.63827
6.76772
6.8758
6.96659
7.04337
7.10877
7.16489
7.21342
7.25574
7.29294
7.32591
7.35539
7.38198
7.40615
7.42832
7.44881
7.4679
7.48582
7.50274
7.51882
7.53419
7.54895
7.56316
7.57685
7.59006
7.60285
7.61527
7.62734
7.63908
7.6505
7.66161
7.67241
7.6829
7.6931
7.70301
7.71265
7.72202
7.73112
7.73993
7.74841
7.75649
7.76407
7.77102
7.77718
7.78235
7.78633
7.78889
7.78979
7.78882
7.78576
7.78042
7.77267
7.76238
7.74948
7.73399
7.716
0.633903
0.671346
0.73035
0.835057
1.02526
1.35491
1.87316
2.582
3.41343
4.26465
5.05167
5.73151
6.29488
6.75093
7.1158
7.40645
7.63802
7.82307
7.97166
8.09167
8.18926
8.26921
8.33522
8.3902
8.43639
8.47559
8.5092
8.53832
8.56385
8.58649
8.60681
8.62528
8.64226
8.65804
8.67288
8.68697
8.70046
8.71348
8.72613
8.7385
8.75063
8.76255
8.77424
8.78576
8.79715
8.80841
8.81956
8.8306
8.84151
8.85229
8.86293
8.87343
8.8838
8.89405
8.90418
8.9142
8.92411
8.93387
8.94343
8.95272
8.9616
8.96993
8.97749
8.98407
8.98938
8.99317
8.99515
8.99505
8.99261
8.98762
8.97988
8.96927
8.95568
8.93912
8.91963
0.680892
0.762711
0.883889
1.0988
1.49025
2.14654
3.08538
4.19938
5.32037
6.32173
7.15124
7.80921
8.3194
8.711
9.01073
9.24048
9.41726
9.554
9.6604
9.74375
9.80952
9.86183
9.9038
9.93782
9.96572
9.9889
10.0084
10.0252
10.0399
10.053
10.0648
10.0759
10.0863
10.0963
10.1061
10.1157
10.1253
10.135
10.1447
10.1545
10.1645
10.1746