/*--------------------------------*- C++ -*----------------------------------*\
  =========                 |
  \\      /  F ield         | OpenFOAM: The Open Source CFD Toolbox
   \\    /   O peration     | Website:  https://openfoam.org
    \\  /    A nd           | Version:  7
     \\/     M anipulation  |
\*---------------------------------------------------------------------------*/
FoamFile
{
    version     2.0;
    format      ascii;
    class       volScalarField;
    location    "650";
    object      k;
}
// * * * * * * * * * * * * * * * * * * * * * * * * * * * * * * * * * * * * * //

dimensions      [0 2 -2 0 0 0 0];

internalField   nonuniform List<scalar> 
4500
(
2.10711
1.99003
1.89804
1.8345
1.78632
1.74875
1.71881
1.69443
1.67421
1.65718
1.64268
1.6302
1.61939
1.60996
1.6017
1.59444
1.58803
1.58238
1.57737
1.57295
1.56904
1.56558
1.56254
1.55986
1.55753
1.55549
1.55374
1.55223
1.55096
1.54991
1.54905
1.54837
1.54786
1.54751
1.54731
1.54724
1.54729
1.54746
1.54774
1.54812
1.5486
1.54916
1.54981
1.55053
1.55133
1.55219
1.55311
1.55409
1.55513
1.55621
1.55734
1.55852
1.55974
1.56099
1.56229
1.56363
1.56499
1.56639
1.56781
1.56925
1.5707
1.57214
1.57355
1.57493
1.57626
1.57751
1.57867
1.57973
1.58065
1.58144
1.58207
1.58254
1.58284
1.58296
1.58291
1.10354
1.6732
1.8379
1.85191
1.83283
1.80901
1.78664
1.7669
1.74973
1.73484
1.72188
1.71057
1.70066
1.69195
1.68428
1.6775
1.67151
1.6662
1.66151
1.65736
1.6537
1.65047
1.64764
1.64516
1.64301
1.64115
1.63956
1.63823
1.63712
1.63622
1.63551
1.63499
1.63463
1.63443
1.63437
1.63445
1.63464
1.63495
1.63536
1.63588
1.63649
1.63718
1.63796
1.63882
1.63975
1.64074
1.64179
1.6429
1.64406
1.64527
1.64652
1.64781
1.64914
1.65052
1.65192
1.65337
1.65485
1.65635
1.65789
1.65943
1.66099
1.66254
1.66407
1.66556
1.66699
1.66834
1.66958
1.67071
1.67169
1.67252
1.67317
1.67363
1.67389
1.67395
1.67377
0.644943
1.23225
1.53537
1.63719
1.66542
1.66864
1.66318
1.65482
1.64581
1.63702
1.62881
1.62129
1.61447
1.60833
1.60283
1.5979
1.59351
1.5896
1.58613
1.58307
1.58037
1.578
1.57594
1.57416
1.57264
1.57135
1.57029
1.56943
1.56875
1.56825
1.56791
1.56772
1.56767
1.56775
1.56795
1.56826
1.56868
1.56918
1.56978
1.57046
1.57122
1.57206
1.57297
1.57394
1.57497
1.57605
1.57718
1.57836
1.57958
1.58083
1.58212
1.58344
1.5848
1.58618
1.5876
1.58905
1.59052
1.59203
1.59357
1.59512
1.59669
1.59825
1.59979
1.6013
1.60274
1.60411
1.60535
1.60647
1.60741
1.60818
1.60873
1.60907
1.60916
1.60902
1.60858
0.463615
0.893401
1.25805
1.43575
1.5127
1.54555
1.55894
1.56332
1.56337
1.56132
1.55829
1.55487
1.55137
1.54798
1.54477
1.54181
1.5391
1.53665
1.53446
1.53253
1.53083
1.52936
1.52811
1.52705
1.52619
1.5255
1.52498
1.52462
1.5244
1.52432
1.52436
1.52453
1.52481
1.52519
1.52567
1.52625
1.52691
1.52765
1.52845
1.52933
1.53027
1.53127
1.53233
1.53345
1.5346
1.53581
1.53705
1.53832
1.53963
1.54096
1.54232
1.5437
1.54511
1.54653
1.54799
1.54947
1.55099
1.55253
1.55411
1.5557
1.55731
1.55893
1.56052
1.56208
1.56357
1.56496
1.56623
1.56734
1.56825
1.56895
1.5694
1.56959
1.56949
1.5691
1.56835
0.39407
0.646738
0.998479
1.23088
1.35547
1.4206
1.45545
1.47456
1.48513
1.49089
1.49385
1.49516
1.49547
1.49521
1.49462
1.49387
1.49306
1.49226
1.49151
1.49084
1.49026
1.48979
1.48943
1.48919
1.48906
1.48904
1.48912
1.48932
1.48961
1.49
1.49048
1.49104
1.49169
1.49242
1.49323
1.4941
1.49504
1.49604
1.49708
1.49818
1.49934
1.50053
1.50177
1.50305
1.50437
1.50572
1.50709
1.50849
1.5099
1.51134
1.51279
1.51425
1.51573
1.51723
1.51875
1.52029
1.52186
1.52347
1.5251
1.52676
1.52844
1.53012
1.53178
1.53339
1.53494
1.53637
1.53765
1.53875
1.53963
1.54025
1.54057
1.54059
1.54026
1.53959
1.53849
0.370615
0.488905
0.769299
1.02349
1.18836
1.28645
1.34497
1.38088
1.40366
1.41854
1.4285
1.43532
1.44007
1.44345
1.44589
1.4477
1.44908
1.45017
1.45107
1.45184
1.45255
1.45323
1.45389
1.45457
1.45527
1.45601
1.45679
1.45761
1.45848
1.45941
1.46038
1.4614
1.46248
1.4636
1.46477
1.46598
1.46724
1.46853
1.46986
1.47122
1.47261
1.47403
1.47549
1.47696
1.47846
1.47998
1.48151
1.48305
1.4846
1.48616
1.48772
1.48929
1.49086
1.49245
1.49405
1.49567
1.49732
1.499
1.50071
1.50244
1.50419
1.50595
1.50768
1.50936
1.51095
1.51242
1.51372
1.5148
1.51562
1.51615
1.51634
1.51616
1.51559
1.51462
1.51316
0.364546
0.403111
0.587007
0.823641
1.01304
1.14094
1.22398
1.27842
1.31506
1.34046
1.35856
1.3718
1.38173
1.38935
1.39533
1.40011
1.40404
1.40732
1.41012
1.41258
1.41476
1.41675
1.4186
1.42033
1.42199
1.4236
1.42517
1.42672
1.42826
1.42979
1.43133
1.43287
1.43443
1.436
1.43759
1.43919
1.44081
1.44245
1.44409
1.44575
1.44742
1.44911
1.4508
1.45251
1.45422
1.45593
1.45765
1.45936
1.46107
1.46277
1.46447
1.46616
1.46785
1.46954
1.47124
1.47295
1.47469
1.47646
1.47825
1.48007
1.4819
1.48373
1.48554
1.48728
1.48892
1.49042
1.49172
1.49278
1.49354
1.49397
1.49401
1.49364
1.49282
1.49155
1.48975
0.364603
0.363346
0.460994
0.64658
0.836783
0.985712
1.09154
1.16521
1.21704
1.25428
1.28169
1.30236
1.31829
1.33084
1.34093
1.34918
1.35605
1.36188
1.3669
1.37129
1.37519
1.3787
1.38191
1.38487
1.38763
1.39024
1.39272
1.3951
1.3974
1.39963
1.40182
1.40396
1.40607
1.40816
1.41023
1.41228
1.41431
1.41634
1.41835
1.42035
1.42235
1.42433
1.4263
1.42827
1.43022
1.43217
1.4341
1.43601
1.4379
1.43978
1.44163
1.44347
1.44529
1.44711
1.44892
1.45075
1.45259
1.45445
1.45634
1.45825
1.46017
1.46207
1.46395
1.46575
1.46743
1.46895
1.47026
1.47129
1.47199
1.47231
1.47221
1.47166
1.47061
1.46905
1.46692
0.366685
0.347483
0.386684
0.507132
0.671669
0.826391
0.949252
1.04089
1.10836
1.15845
1.19625
1.22534
1.24815
1.26638
1.28121
1.29348
1.30378
1.31256
1.32014
1.32678
1.33266
1.33794
1.34271
1.34708
1.35112
1.35488
1.35841
1.36175
1.36493
1.36797
1.3709
1.37373
1.37647
1.37915
1.38177
1.38433
1.38685
1.38932
1.39175
1.39415
1.3965
1.39883
1.40113
1.40339
1.40563
1.40784
1.41001
1.41216
1.41426
1.41634
1.41838
1.42038
1.42237
1.42433
1.42628
1.42823
1.43019
1.43216
1.43415
1.43615
1.43815
1.44014
1.44208
1.44394
1.44566
1.4472
1.4485
1.44951
1.45015
1.45038
1.45016
1.44943
1.44817
1.44637
1.44394
0.369317
0.342581
0.348917
0.412157
0.531963
0.672822
0.801903
0.907129
0.989078
1.05222
1.10113
1.13949
1.17002
1.1947
1.21496
1.23184
1.24608
1.25827
1.26882
1.27805
1.28623
1.29353
1.30012
1.30612
1.31163
1.31672
1.32146
1.3259
1.33009
1.33406
1.33784
1.34146
1.34494
1.3483
1.35154
1.35469
1.35776
1.36074
1.36366
1.3665
1.36928
1.372
1.37467
1.37728
1.37984
1.38235
1.38481
1.38722
1.38958
1.39188
1.39413
1.39634
1.39851
1.40064
1.40275
1.40484
1.40693
1.40902
1.41112
1.41323
1.41532
1.41739
1.41939
1.4213
1.42306
1.42463
1.42593
1.4269
1.4275
1.42766
1.42732
1.42645
1.42502
1.423
1.42033
0.371958
0.342445
0.332102
0.356566
0.42837
0.537786
0.658014
0.768348
0.860997
0.935939
0.995905
1.044
1.08291
1.11474
1.1411
1.16319
1.18194
1.19802
1.21198
1.2242
1.23501
1.24466
1.25334
1.26122
1.26842
1.27504
1.28118
1.28689
1.29224
1.29728
1.30205
1.30658
1.3109
1.31503
1.319
1.32283
1.32652
1.33009
1.33356
1.33692
1.34018
1.34336
1.34645
1.34946
1.35239
1.35525
1.35804
1.36075
1.36339
1.36596
1.36847
1.3709
1.37328
1.37561
1.3779
1.38016
1.3824
1.38463
1.38685
1.38906
1.39125
1.3934
1.39547
1.39744
1.39924
1.40082
1.40213
1.40309
1.40365
1.40374
1.40332
1.40235
1.40077
1.39858
1.39572
0.374409
0.344309
0.325896
0.328085
0.362098
0.432748
0.529167
0.632415
0.728536
0.811707
0.881286
0.938793
0.986292
1.02573
1.05874
1.08663
1.11042
1.13091
1.14873
1.16436
1.17819
1.19052
1.20161
1.21164
1.22079
1.22918
1.23691
1.24409
1.25078
1.25705
1.26294
1.26851
1.2738
1.27883
1.28363
1.28823
1.29265
1.29689
1.30099
1.30494
1.30876
1.31246
1.31604
1.3195
1.32287
1.32613
1.32929
1.33236
1.33533
1.33821
1.341
1.3437
1.34633
1.34888
1.35138
1.35383
1.35624
1.35862
1.36098
1.36331
1.3656
1.36784
1.36999
1.37201
1.37385
1.37546
1.37678
1.37774
1.37828
1.37834
1.37786
1.3768
1.37513
1.37282
1.36982
0.376595
0.346935
0.32478
0.315189
0.325142
0.361913
0.426574
0.510145
0.599357
0.684171
0.759763
0.824969
0.880429
0.92743
0.967348
1.00143
1.03072
1.05608
1.07822
1.09769
1.11493
1.13032
1.14415
1.15665
1.16802
1.17843
1.188
1.19685
1.20508
1.21276
1.21995
1.22672
1.23312
1.23917
1.24493
1.25042
1.25566
1.26068
1.2655
1.27014
1.2746
1.27889
1.28303
1.28702
1.29087
1.2946
1.2982
1.30167
1.30502
1.30826
1.31138
1.31439
1.3173
1.32012
1.32286
1.32552
1.32813
1.33069
1.3332
1.33567
1.33807
1.34041
1.34264
1.34472
1.34661
1.34826
1.3496
1.35057
1.35111
1.35115
1.35064
1.34954
1.34781
1.34543
1.34235
0.378494
0.349749
0.326042
0.310425
0.306798
0.320311
0.355502
0.412199
0.483847
0.561114
0.636428
0.705553
0.766924
0.820518
0.867011
0.907312
0.942336
0.972909
0.999742
1.02343
1.04448
1.06329
1.08019
1.09548
1.10938
1.12209
1.13376
1.14452
1.1545
1.1638
1.17248
1.18062
1.18828
1.19552
1.20237
1.20888
1.21507
1.22098
1.22663
1.23205
1.23724
1.24221
1.247
1.25159
1.25601
1.26027
1.26436
1.26831
1.2721
1.27574
1.27924
1.28261
1.28585
1.28898
1.29199
1.29491
1.29775
1.30051
1.3032
1.30582
1.30836
1.3108
1.31312
1.31528
1.31724
1.31893
1.3203
1.3213
1.32185
1.3219
1.32139
1.32029
1.31854
1.31614
1.31303
0.380104
0.352469
0.328352
0.309741
0.298825
0.298554
0.31258
0.343818
0.391993
0.452699
0.519406
0.586268
0.64949
0.707223
0.758929
0.804788
0.845312
0.881119
0.912829
0.94101
0.96616
0.988712
1.00903
1.02742
1.04416
1.05945
1.07348
1.08642
1.09839
1.10952
1.11989
1.1296
1.13872
1.1473
1.15541
1.16308
1.17036
1.17729
1.18389
1.19019
1.19621
1.20198
1.2075
1.21279
1.21786
1.22273
1.2274
1.23188
1.23617
1.24029
1.24423
1.24801
1.25164
1.25511
1.25845
1.26166
1.26476
1.26776
1.27066
1.27345
1.27615
1.27872
1.28115
1.2834
1.28542
1.28718
1.2886
1.28964
1.29023
1.29031
1.28983
1.28875
1.28703
1.28465
1.28156
0.381432
0.354953
0.331036
0.311052
0.296302
0.288389
0.289475
0.302115
0.328313
0.36807
0.418684
0.475701
0.534633
0.59211
0.646117
0.695722
0.740693
0.781189
0.817558
0.850219
0.879597
0.906091
0.930062
0.951828
0.971665
0.989815
1.00648
1.02185
1.03606
1.04926
1.06155
1.07303
1.08379
1.0939
1.10343
1.11244
1.12096
1.12905
1.13673
1.14405
1.15103
1.1577
1.16406
1.17015
1.17597
1.18153
1.18686
1.19196
1.19683
1.20149
1.20595
1.2102
1.21427
1.21815
1.22186
1.22541
1.22882
1.23209
1.23523
1.23824
1.24111
1.24384
1.24639
1.24875
1.25087
1.2527
1.25419
1.25529
1.25593
1.25607
1.25565
1.25462
1.25296
1.25064
1.24763
0.382496
0.357126
0.333732
0.313269
0.296566
0.284515
0.278275
0.279385
0.28963
0.310488
0.342261
0.383516
0.431393
0.482568
0.53415
0.584096
0.631194
0.674873
0.714976
0.751595
0.784951
0.815323
0.843002
0.868273
0.8914
0.912621
0.932149
0.950173
0.966858
0.982351
0.996777
1.01025
1.02286
1.0347
1.04584
1.05634
1.06627
1.07568
1.0846
1.09308
1.10115
1.10884
1.11617
1.12316
1.12983
1.1362
1.14228
1.14809
1.15363
1.15891
1.16395
1.16875
1.17332
1.17768
1.18182
1.18577
1.18953
1.19312
1.19654
1.1998
1.20289
1.2058
1.20851
1.211
1.21323
1.21515
1.21673
1.21791
1.21863
1.21885
1.21851
1.21758
1.21601
1.21379
1.21089
0.383317
0.358954
0.336237
0.315805
0.298201
0.28395
0.27367
0.268176
0.268537
0.276002
0.291697
0.316126
0.348733
0.387879
0.431278
0.47661
0.521952
0.565944
0.607754
0.646952
0.683386
0.71708
0.748158
0.776798
0.803195
0.827551
0.850059
0.870898
0.890233
0.908214
0.924972
0.940628
0.955288
0.969045
0.981982
0.994173
1.00568
1.01657
1.02689
1.03667
1.04598
1.05482
1.06325
1.07127
1.07892
1.0862
1.09315
1.09976
1.10606
1.11206
1.11777
1.1232
1.12836
1.13325
1.13789
1.1423
1.14648
1.15044
1.15419
1.15774
1.16108
1.16421
1.16711
1.16976
1.17213
1.17418
1.17587
1.17715
1.17798
1.1783
1.17807
1.17725
1.17581
1.17373
1.17099
0.383926
0.360429
0.338437
0.318319
0.300425
0.285071
0.272597
0.26342
0.258096
0.257353
0.262057
0.273062
0.290942
0.315686
0.346543
0.382133
0.420773
0.460828
0.500941
0.540122
0.577726
0.61338
0.646914
0.678293
0.707566
0.734832
0.760217
0.783859
0.805894
0.826457
0.845674
0.863661
0.880526
0.896366
0.91127
0.925315
0.938573
0.951109
0.962978
0.974231
0.984913
0.995064
1.00472
1.01391
1.02266
1.03098
1.0389
1.04644
1.0536
1.06042
1.06689
1.07303
1.07886
1.08437
1.08959
1.09452
1.09918
1.10357
1.10772
1.11161
1.11525
1.11864
1.12177
1.12462
1.12716
1.12936
1.13119
1.13261
1.13356
1.13401
1.13392
1.13325
1.13197
1.13006
1.12751
0.384356
0.361567
0.340271
0.320613
0.302785
0.286971
0.273357
0.262155
0.253642
0.248183
0.246262
0.248465
0.255422
0.267671
0.285474
0.308658
0.336564
0.368157
0.40222
0.437572
0.473202
0.508334
0.542423
0.575121
0.606232
0.63567
0.663425
0.689534
0.714068
0.73711
0.758756
0.779099
0.798235
0.816251
0.833234
0.84926
0.864403
0.878727
0.892294
0.905156
0.917363
0.928958
0.93998
0.950464
0.960439
0.969928
0.978949
0.987523
0.99567
1.00341
1.01074
1.0177
1.02428
1.0305
1.03638
1.04191
1.04712
1.05202
1.05661
1.06091
1.06491
1.06861
1.07202
1.0751
1.07786
1.08025
1.08225
1.08383
1.08495
1.08556
1.08564
1.08515
1.08406
1.08236
1.08004
0.384645
0.3624
0.341721
0.322574
0.305012
0.28912
0.274988
0.262719
0.252442
0.244331
0.238618
0.235613
0.235703
0.239328
0.246928
0.258848
0.275219
0.295877
0.320342
0.347879
0.377621
0.408696
0.440324
0.471868
0.502846
0.532919
0.561867
0.589563
0.615944
0.641
0.664751
0.687239
0.708519
0.728653
0.747706
0.765743
0.782828
0.799021
0.81438
0.828957
0.842802
0.855959
0.868469
0.880369
0.89169
0.902461
0.912703
0.922432
0.93167
0.940436
0.948744
0.956611
0.964047
0.971067
0.977682
0.983904
0.989744
0.995216
1.00033
1.00509
1.00951
1.01359
1.01732
1.0207
1.02371
1.02634
1.02856
1.03034
1.03166
1.03247
1.03276
1.03248
1.03162
1.03017
1.02813
0.384827
0.362976
0.342805
0.324148
0.306947
0.291198
0.276922
0.264155
0.252946
0.243368
0.235524
0.229553
0.225648
0.224051
0.225056
0.228985
0.236149
0.246788
0.260999
0.278687
0.299546
0.323088
0.348708
0.375765
0.403652
0.431835
0.459883
0.487464
0.514338
0.540342
0.565373
0.589375
0.612327
0.634233
0.655112
0.674995
0.693921
0.711932
0.729071
0.745382
0.760906
0.775686
0.789757
0.803155
0.815913
0.828057
0.839614
0.8506
0.861031
0.870927
0.880304
0.889178
0.897562
0.905469
0.912912
0.919902
0.926453
0.932576
0.938283
0.943584
0.948488
0.953001
0.957124
0.960854
0.964184
0.967101
0.969589
0.971626
0.973189
0.974253
0.974792
0.974783
0.974206
0.973054
0.971339
0.384935
0.363349
0.343566
0.325333
0.308509
0.293015
0.278815
0.265893
0.254251
0.243905
0.234889
0.227257
0.221089
0.216497
0.213627
0.212662
0.213817
0.217326
0.223417
0.232273
0.243994
0.258559
0.275806
0.295441
0.317067
0.340231
0.364466
0.389336
0.414459
0.439515
0.464253
0.488484
0.51207
0.534916
0.556964
0.578182
0.598555
0.618086
0.636787
0.654677
0.671778
0.688118
0.703722
0.718617
0.732828
0.746381
0.759297
0.771595
0.783286
0.794384
0.804905
0.814863
0.824272
0.833145
0.841493
0.849328
0.856664
0.863513
0.869887
0.8758
0.88126
0.886279
0.890861
0.895009
0.898723
0.901996
0.904817
0.907175
0.909051
0.910428
0.911286
0.911608
0.911376
0.910588
0.909265
0.384994
0.363574
0.344062
0.326166
0.309682
0.294477
0.280464
0.267588
0.255813
0.24512
0.235503
0.226971
0.219547
0.21327
0.208201
0.204423
0.202042
0.201191
0.202024
0.20471
0.209419
0.216301
0.22546
0.236932
0.250663
0.266508
0.284234
0.303546
0.32411
0.345586
0.367651
0.390012
0.41242
0.434669
0.456596
0.478075
0.499014
0.519345
0.539026
0.558028
0.576336
0.593946
0.610859
0.627082
0.642625
0.6575
0.671718
0.685291
0.698232
0.710542
0.722228
0.733303
0.743778
0.753663
0.762969
0.771707
0.779889
0.787527
0.794636
0.801229
0.807319
0.812918
0.818036
0.822682
0.82686
0.83057
0.83381
0.836572
0.838848
0.840626
0.841892
0.842634
0.842838
0.842507
0.841667
0.385025
0.363699
0.344363
0.326707
0.310498
0.295561
0.281772
0.269042
0.257306
0.246517
0.236644
0.227667
0.219578
0.21238
0.206088
0.20073
0.196348
0.193
0.190761
0.189721
0.18999
0.191688
0.19494
0.199869
0.206575
0.215125
0.225537
0.237769
0.251715
0.267211
0.284048
0.301987
0.320778
0.340173
0.359944
0.379887
0.399824
0.419607
0.439118
0.45826
0.476958
0.495157
0.512815
0.529902
0.546396
0.562283
0.577555
0.592206
0.606234
0.619638
0.632407
0.644543
0.656049
0.666931
0.677197
0.686853
0.695911
0.704381
0.712277
0.719612
0.726402
0.732662
0.738404
0.743642
0.748384
0.752638
0.756406
0.75969
0.762484
0.764785
0.766583
0.767871
0.768642
0.768896
0.768667
0.385039
0.363763
0.344529
0.327031
0.311019
0.296298
0.282719
0.270166
0.25855
0.247804
0.237875
0.228725
0.220326
0.21266
0.205716
0.199495
0.194005
0.189262
0.185294
0.182139
0.179847
0.178479
0.178108
0.178817
0.180697
0.18384
0.188336
0.194259
0.201662
0.210564
0.220946
0.232746
0.24586
0.260148
0.275447
0.291573
0.308341
0.325569
0.343085
0.360737
0.378386
0.395917
0.413229
0.43024
0.446883
0.4631
0.478849
0.494092
0.508801
0.522954
0.536533
0.549512
0.56188
0.573633
0.584769
0.595288
0.605196
0.614499
0.623208
0.631336
0.638896
0.645903
0.652373
0.658321
0.663759
0.668699
0.673147
0.677109
0.680587
0.683579
0.686084
0.688095
0.689609
0.690628
0.691185
0.385045
0.363793
0.344613
0.327207
0.311323
0.296756
0.283344
0.270952
0.259476
0.248832
0.238951
0.229781
0.221278
0.213411
0.206155
0.199492
0.193412
0.187912
0.182994
0.178668
0.17495
0.171863
0.169439
0.167716
0.166741
0.16657
0.167264
0.16889
0.171516
0.175209
0.180029
0.18602
0.19321
0.2016
0.211164
0.221846
0.233564
0.24621
0.259659
0.273776
0.288419
0.303449
0.318733
0.334145
0.349572
0.364915
0.380083
0.395
0.409599
0.423825
0.437632
0.45098
0.463825
0.476143
0.487915
0.499128
0.509775
0.519854
0.529365
0.538314
0.546711
0.554567
0.561893
0.568702
0.575007
0.580819
0.586147
0.590998
0.595375
0.599281
0.602716
0.605675
0.608157
0.610164
0.611722
0.385047
0.363805
0.344651
0.327293
0.311482
0.297013
0.283715
0.271447
0.260093
0.249557
0.239761
0.230639
0.22214
0.21422
0.206844
0.199984
0.193619
0.187734
0.182318
0.177365
0.172874
0.16885
0.165302
0.162241
0.159688
0.157665
0.156202
0.155334
0.155098
0.155542
0.156711
0.158657
0.16143
0.165076
0.169635
0.175137
0.181599
0.189016
0.19737
0.206617
0.216698
0.227534
0.239034
0.251096
0.263613
0.276476
0.289579
0.302818
0.316099
0.329334
0.342443
0.35536
0.368021
0.380367
0.392352
0.403939
0.415098
0.425808
0.436051
0.445817
0.4551
0.463897
0.472211
0.480044
0.487402
0.494289
0.500712
0.506674
0.512177
0.517223
0.521812
0.525941
0.529606
0.532807
0.535559
0.385048
0.36381
0.344666
0.32733
0.311556
0.29714
0.28391
0.271721
0.260452
0.250001
0.240283
0.231225
0.222767
0.214859
0.207459
0.200533
0.194052
0.187994
0.18234
0.177077
0.172195
0.167688
0.163555
0.159795
0.156413
0.153417
0.150818
0.148631
0.146872
0.145563
0.144731
0.144402
0.14461
0.145388
0.146775
0.148806
0.15152
0.154949
0.159124
0.164065
0.169784
0.176281
0.183544
0.191544
0.200241
0.20958
0.219497
0.229918
0.240762
0.251945
0.263383
0.274991
0.286691
0.298404
0.310053
0.321572
0.3329
0.343984
0.354778
0.365243
0.375347
0.385066
0.394379
0.403273
0.411738
0.419766
0.427353
0.434496
0.441194
0.447442
0.453239
0.458581
0.463464
0.467884
0.471841
0.385048
0.363811
0.344671
0.327343
0.311584
0.297191
0.283992
0.271841
0.260616
0.250212
0.24054
0.231524
0.2231
0.215215
0.207823
0.200885
0.19437
0.18825
0.182505
0.177117
0.172072
0.16736
0.162973
0.158908
0.155163
0.151739
0.148639
0.14587
0.14344
0.14136
0.139644
0.138308
0.137371
0.136854
0.136782
0.137182
0.138083
0.139516
0.141514
0.144108
0.147331
0.15121
0.155769
0.161027
0.166992
0.173664
0.181028
0.189061
0.197723
0.206964
0.216723
0.226928
0.237502
0.248364
0.259427
0.270605
0.281813
0.292973
0.304012
0.314866
0.325477
0.335798
0.345789
0.355417
0.364658
0.373492
0.381904
0.389885
0.397427
0.404523
0.411168
0.417358
0.423085
0.428345
0.433129
0.385048
0.363811
0.344671
0.327343
0.311584
0.297191
0.283992
0.271841
0.260616
0.250212
0.24054
0.231524
0.2231
0.215215
0.207823
0.200885
0.19437
0.18825
0.182505
0.177117
0.172072
0.16736
0.162973
0.158908
0.155163
0.151739
0.148639
0.14587
0.14344
0.14136
0.139644
0.138307
0.13737
0.136853
0.136781
0.137181
0.138082
0.139515
0.141513
0.144107
0.14733
0.151209
0.155768
0.161026
0.166991
0.173662
0.181027
0.189059
0.197721
0.206963
0.216721
0.226926
0.237501
0.248363
0.259426
0.270603
0.281811
0.292971
0.304011
0.314865
0.325477
0.335799
0.345791
0.355421
0.364664
0.3735
0.381916
0.3899
0.397445
0.404544
0.411192
0.417383
0.423111
0.428372
0.433156
0.385048
0.36381
0.344666
0.32733
0.311556
0.29714
0.28391
0.271721
0.260452
0.250001
0.240283
0.231225
0.222767
0.214859
0.207459
0.200533
0.194052
0.187994
0.18234
0.177077
0.172194
0.167688
0.163554
0.159794
0.156412
0.153416
0.150817
0.148628
0.146869
0.14556
0.144727
0.144397
0.144604
0.145382
0.146767
0.148798
0.15151
0.154938
0.159111
0.16405
0.169768
0.176264
0.183525
0.191523
0.200219
0.209557
0.219472
0.229892
0.240734
0.251917
0.263353
0.274961
0.28666
0.298372
0.310022
0.321541
0.332869
0.343953
0.354748
0.365214
0.375321
0.385043
0.394361
0.40326
0.41173
0.419765
0.42736
0.434512
0.441217
0.447474
0.453278
0.458626
0.463513
0.467936
0.471892
0.385047
0.363805
0.344651
0.327293
0.311482
0.297013
0.283715
0.271447
0.260093
0.249557
0.239761
0.23064
0.222141
0.21422
0.206844
0.199984
0.193619
0.187734
0.182317
0.177364
0.172873
0.168849
0.165299
0.162238
0.159684
0.15766
0.156196
0.155326
0.155089
0.155531
0.156698
0.158642
0.161412
0.165055
0.169611
0.17511
0.181568
0.188982
0.197332
0.206575
0.216652
0.227485
0.238982
0.251041
0.263556
0.276417
0.289517
0.302755
0.316034
0.329267
0.342376
0.355292
0.367952
0.380297
0.392282
0.40387
0.41503
0.425741
0.435986
0.445754
0.455041
0.463843
0.472163
0.480004
0.48737
0.494268
0.500701
0.506674
0.512189
0.517247
0.521847
0.525985
0.529657
0.532863
0.535615
0.385045
0.363793
0.344613
0.327207
0.311323
0.296757
0.283344
0.270953
0.259477
0.248833
0.238952
0.229782
0.221279
0.213412
0.206155
0.199492
0.193412
0.187911
0.182993
0.178666
0.174946
0.171858
0.169432
0.167707
0.166731
0.166557
0.167248
0.16887
0.171492
0.175181
0.179996
0.185982
0.193167
0.201551
0.211109
0.221786
0.233498
0.246138
0.259583
0.273695
0.288334
0.303361
0.318641
0.33405
0.349476
0.364817
0.379983
0.394899
0.409498
0.423723
0.437529
0.450877
0.463722
0.47604
0.487813
0.499027
0.509675
0.519755
0.529269
0.538222
0.546624
0.554486
0.561819
0.568638
0.574954
0.580778
0.586119
0.590984
0.595376
0.599297
0.602745
0.605717
0.60821
0.610224
0.611785
0.385039
0.363763
0.344529
0.327031
0.311019
0.296299
0.28272
0.270167
0.258551
0.247805
0.237876
0.228726
0.220327
0.21266
0.205716
0.199494
0.194003
0.189258
0.185289
0.182132
0.179838
0.178466
0.178092
0.178796
0.180671
0.183809
0.188298
0.194215
0.20161
0.210504
0.220878
0.23267
0.245776
0.260057
0.275348
0.291468
0.308231
0.325453
0.342966
0.360614
0.378261
0.39579
0.4131
0.430111
0.446752
0.46297
0.478718
0.493961
0.508671
0.522824
0.536403
0.549383
0.561752
0.573505
0.584642
0.595163
0.605073
0.614378
0.623091
0.631222
0.638788
0.645803
0.652282
0.658241
0.663692
0.668645
0.673109
0.677088
0.680584
0.683595
0.686116
0.688144
0.689671
0.690701
0.691264
0.385025
0.363699
0.344363
0.326708
0.310499
0.295562
0.281774
0.269044
0.257308
0.246519
0.236645
0.227668
0.219578
0.212379
0.206086
0.200726
0.196342
0.192991
0.190748
0.189704
0.189968
0.191659
0.194904
0.199824
0.20652
0.215061
0.225462
0.237683
0.251618
0.267104
0.283932
0.301862
0.320645
0.340034
0.3598
0.379738
0.399672
0.419453
0.438962
0.458103
0.476801
0.495
0.512659
0.529746
0.546241
0.562129
0.577402
0.592055
0.606084
0.619489
0.632259
0.644396
0.655903
0.666787
0.677054
0.686712
0.695772
0.704245
0.712144
0.719485
0.726282
0.73255
0.738303
0.743553
0.74831
0.752581
0.756368
0.759671
0.762487
0.764808
0.766627
0.767935
0.768722
0.768991
0.768771
0.384994
0.363574
0.344063
0.326167
0.309684
0.294479
0.280466
0.267591
0.255816
0.245122
0.235505
0.226971
0.219545
0.213266
0.208194
0.204412
0.202027
0.20117
0.201995
0.204673
0.209371
0.216241
0.225387
0.236845
0.250562
0.266393
0.284106
0.303406
0.323959
0.345427
0.367484
0.38984
0.412243
0.43449
0.456415
0.477893
0.498831
0.519163
0.538844
0.557847
0.576157
0.593768
0.610684
0.626909
0.642454
0.65733
0.67155
0.685126
0.698069
0.71038
0.722068
0.733145
0.743621
0.753508
0.762815
0.771555
0.77974
0.787382
0.794495
0.801094
0.807191
0.8128
0.817931
0.822591
0.826786
0.830515
0.833776
0.836562
0.838862
0.840664
0.841953
0.842717
0.842941
0.842626
0.841796
0.384935
0.36335
0.343567
0.325335
0.308511
0.293018
0.278818
0.265896
0.254254
0.243907
0.234889
0.227254
0.221083
0.216486
0.21361
0.212637
0.213783
0.21728
0.223357
0.232198
0.243902
0.258448
0.275678
0.295296
0.316907
0.340058
0.364282
0.389144
0.41426
0.439311
0.464047
0.488276
0.511861
0.534709
0.556758
0.577977
0.598352
0.617886
0.63659
0.654482
0.671587
0.687929
0.703536
0.718434
0.732648
0.746203
0.759122
0.771422
0.783116
0.794216
0.804739
0.814699
0.82411
0.832984
0.841334
0.849172
0.856511
0.863363
0.869743
0.875662
0.881131
0.886161
0.890756
0.894921
0.898654
0.901948
0.904793
0.907176
0.909078
0.910482
0.911366
0.911711
0.9115
0.910729
0.909417
0.384827
0.362977
0.342807
0.324151
0.30695
0.291202
0.276926
0.264158
0.252948
0.243368
0.235519
0.229544
0.225631
0.224025
0.225019
0.228933
0.23608
0.246699
0.260888
0.278554
0.299392
0.322913
0.348516
0.37556
0.403435
0.431611
0.459654
0.487232
0.514105
0.540109
0.565141
0.589146
0.612101
0.63401
0.654892
0.674779
0.693709
0.711723
0.728866
0.745181
0.760709
0.775492
0.789567
0.802969
0.815729
0.827877
0.839437
0.850425
0.860859
0.870756
0.880136
0.889011
0.897397
0.905306
0.912751
0.919744
0.926298
0.932425
0.938137
0.943446
0.94836
0.952885
0.957023
0.96077
0.964121
0.967061
0.969575
0.971639
0.97323
0.974321
0.974887
0.974903
0.974348
0.973213
0.971509
0.384645
0.362402
0.341724
0.322578
0.305017
0.289125
0.274992
0.262721
0.252441
0.244324
0.238605
0.23559
0.235666
0.239274
0.246854
0.258749
0.275094
0.295725
0.320163
0.347677
0.3774
0.408461
0.440078
0.471615
0.502589
0.532661
0.56161
0.589308
0.615692
0.640752
0.664508
0.687001
0.708285
0.728424
0.747482
0.765524
0.782613
0.798811
0.814174
0.828755
0.842604
0.855765
0.868279
0.880183
0.891507
0.902282
0.912526
0.922258
0.931498
0.940266
0.948577
0.956445
0.963884
0.970905
0.977522
0.983746
0.98959
0.995067
1.00019
1.00496
1.00939
1.01348
1.01722
1.02062
1.02366
1.02631
1.02856
1.03037
1.03171
1.03255
1.03286
1.03261
1.03178
1.03034
1.02831
0.384357
0.361569
0.340275
0.320619
0.302791
0.286976
0.273359
0.262154
0.253634
0.248166
0.246231
0.248416
0.255349
0.267569
0.28534
0.30849
0.336365
0.36793
0.401972
0.437308
0.472928
0.508054
0.542141
0.574839
0.605953
0.635395
0.663155
0.68927
0.71381
0.736859
0.75851
0.77886
0.798001
0.816024
0.833012
0.849044
0.864191
0.878521
0.892092
0.904958
0.917169
0.928768
0.939794
0.950282
0.96026
0.969752
0.978776
0.987353
0.995502
1.00324
1.01058
1.01754
1.02412
1.03034
1.03622
1.04176
1.04697
1.05187
1.05647
1.06077
1.06479
1.0685
1.07192
1.07503
1.07781
1.08023
1.08226
1.08386
1.085
1.08565
1.08575
1.08529
1.08422
1.08254
1.08023
0.383927
0.360433
0.338442
0.318325
0.300431
0.285075
0.272596
0.263411
0.258075
0.257314
0.261993
0.272966
0.290808
0.315512
0.34633
0.381887
0.420501
0.460537
0.50064
0.539816
0.577419
0.613076
0.646615
0.678001
0.707281
0.734554
0.759947
0.783596
0.805639
0.826209
0.845433
0.863427
0.880299
0.896145
0.911054
0.925105
0.938368
0.950909
0.962782
0.97404
0.984726
0.994881
1.00454
1.01373
1.02248
1.03081
1.03873
1.04627
1.05344
1.06026
1.06673
1.07288
1.0787
1.08422
1.08944
1.09437
1.09903
1.10343
1.10758
1.11148
1.11513
1.11854
1.12168
1.12455
1.12712
1.12934
1.1312
1.13264
1.13362
1.1341
1.13404
1.13339
1.13213
1.13024
1.1277
0.383319
0.358958
0.336244
0.315811
0.298206
0.283951
0.273661
0.268152
0.26849
0.275923
0.291577
0.315958
0.348517
0.38762
0.430987
0.476297
0.521626
0.565614
0.607424
0.646626
0.683068
0.71677
0.747858
0.776507
0.802914
0.82728
0.849796
0.870644
0.889987
0.907975
0.924741
0.940404
0.95507
0.968833
0.981776
0.993972
1.00549
1.01638
1.0267
1.03649
1.0458
1.05465
1.06308
1.07111
1.07875
1.08604
1.09299
1.09961
1.10591
1.11191
1.11762
1.12305
1.12821
1.1331
1.13775
1.14215
1.14634
1.1503
1.15406
1.15762
1.16097
1.16411
1.16703
1.1697
1.17209
1.17416
1.17588
1.17719
1.17804
1.17839
1.17819
1.17739
1.17597
1.17391
1.17118
0.382499
0.357132
0.333739
0.313276
0.296568
0.284508
0.27825
0.279332
0.289537
0.310342
0.342057
0.383258
0.431091
0.482235
0.533801
0.583741
0.630842
0.674526
0.714639
0.751269
0.784637
0.81502
0.842711
0.867994
0.89113
0.912361
0.931899
0.949931
0.966625
0.982125
0.996558
1.01003
1.02265
1.0345
1.04564
1.05615
1.06609
1.0755
1.08442
1.09291
1.10098
1.10867
1.116
1.123
1.12968
1.13605
1.14213
1.14794
1.15348
1.15877
1.16381
1.16861
1.17318
1.17753
1.18168
1.18563
1.1894
1.19299
1.19642
1.19968
1.20278
1.2057
1.20843
1.21093
1.21318
1.21514
1.21674
1.21794
1.21869
1.21894
1.21863
1.21771
1.21617
1.21397
1.21108
0.381436
0.354959
0.331044
0.311056
0.296297
0.288366
0.28942
0.30201
0.328145
0.367832
0.418385
0.475358
0.534265
0.591732
0.64574
0.695353
0.740336
0.780846
0.817229
0.849905
0.879296
0.905804
0.929787
0.951564
0.971412
0.989572
1.00625
1.02162
1.03584
1.04905
1.06134
1.07283
1.0836
1.09372
1.10325
1.11226
1.12079
1.12888
1.13657
1.14389
1.15087
1.15754
1.16391
1.17
1.17582
1.18139
1.18672
1.19182
1.19669
1.20136
1.20581
1.21007
1.21413
1.21801
1.22173
1.22528
1.22869
1.23196
1.23511
1.23812
1.241
1.24374
1.24631
1.24869
1.25082
1.25268
1.25419
1.25531
1.25599
1.25615
1.25575
1.25475
1.25311
1.25081
1.24781
0.380108
0.352477
0.328359
0.309741
0.298807
0.2985
0.312469
0.343631
0.391724
0.452364
0.519027
0.585869
0.649089
0.70683
0.75855
0.804426
0.844967
0.880792
0.912518
0.940714
0.965879
0.988444
1.00877
1.02718
1.04392
1.05922
1.07326
1.08621
1.09819
1.10932
1.11971
1.12942
1.13854
1.14713
1.15524
1.16291
1.1702
1.17713
1.18373
1.19004
1.19607
1.20184
1.20736
1.21265
1.21773
1.22259
1.22726
1.23174
1.23604
1.24016
1.2441
1.24788
1.25151
1.25498
1.25832
1.26154
1.26464
1.26764
1.27054
1.27334
1.27604
1.27863
1.28107
1.28333
1.28538
1.28715
1.2886
1.28966
1.29027
1.29038
1.28993
1.28887
1.28717
1.28481
1.28173
0.378499
0.349757
0.326046
0.310415
0.306752
0.320203
0.355304
0.411906
0.483479
0.560703
0.636003
0.705133
0.766519
0.820133