/*--------------------------------*- C++ -*----------------------------------*\
  =========                 |
  \\      /  F ield         | OpenFOAM: The Open Source CFD Toolbox
   \\    /   O peration     | Website:  https://openfoam.org
    \\  /    A nd           | Version:  7
     \\/     M anipulation  |
\*---------------------------------------------------------------------------*/
FoamFile
{
    version     2.0;
    format      ascii;
    class       volScalarField;
    location    "650";
    object      p;
}
// * * * * * * * * * * * * * * * * * * * * * * * * * * * * * * * * * * * * * //

dimensions      [0 2 -2 0 0 0 0];

internalField   nonuniform List<scalar> 
4500
(
65.8464
62.8346
61.6748
60.5406
59.4126
58.3277
57.2766
56.2497
55.2435
54.2552
53.2825
52.3235
51.3768
50.4411
49.5155
48.599
47.6909
46.7906
45.8975
45.0111
44.1309
43.2567
42.388
41.5244
40.6658
39.8118
38.9622
38.1167
37.2752
36.4375
35.6033
34.7726
33.945
33.1206
32.2991
31.4804
30.6644
29.8509
29.0399
28.2311
27.4245
26.62
25.8174
25.0167
24.2177
23.4203
22.6244
21.8299
21.0366
20.2446
19.4535
18.6635
17.8743
17.0857
16.2978
15.5104
14.7232
13.9362
13.1492
12.3619
11.5743
10.786
9.99691
9.20675
8.41536
7.62254
6.82815
6.032
5.23403
4.43418
3.63244
2.82882
2.02337
1.21623
0.408696
65.4595
62.8063
61.6736
60.541
59.4129
58.3279
57.2768
56.2498
55.2436
54.2553
53.2826
52.3236
51.3769
50.4412
49.5155
48.599
47.6909
46.7906
45.8975
45.0111
44.131
43.2567
42.388
41.5244
40.6658
39.8118
38.9622
38.1167
37.2752
36.4375
35.6033
34.7726
33.945
33.1206
32.2991
31.4804
30.6644
29.8509
29.0399
28.2311
27.4245
26.62
25.8174
25.0167
24.2177
23.4203
22.6244
21.8299
21.0366
20.2446
19.4535
18.6635
17.8742
17.0857
16.2978
15.5104
14.7232
13.9362
13.1492
12.3619
11.5743
10.786
9.9969
9.20674
8.41535
7.62253
6.82814
6.03199
5.23402
4.43418
3.63243
2.82882
2.02337
1.21622
0.408695
65.3721
62.8132
61.6757
60.5421
59.4136
58.3284
57.2772
56.2501
55.2438
54.2555
53.2828
52.3238
51.377
50.4413
49.5156
48.5991
47.691
46.7907
45.8976
45.0112
44.131
43.2568
42.388
41.5245
40.6658
39.8118
38.9622
38.1168
37.2753
36.4375
35.6033
34.7726
33.9451
33.1206
32.2991
31.4804
30.6644
29.8509
29.0399
28.2311
27.4245
26.62
25.8174
25.0167
24.2177
23.4203
22.6244
21.8299
21.0366
20.2445
19.4535
18.6635
17.8742
17.0857
16.2978
15.5103
14.7232
13.9362
13.1491
12.3619
11.5743
10.786
9.99689
9.20673
8.41534
7.62252
6.82813
6.03198
5.23401
4.43417
3.63243
2.82881
2.02336
1.21622
0.408694
65.3717
62.8215
61.6775
60.5432
59.4144
58.329
57.2776
56.2505
55.2441
54.2558
53.283
52.3239
51.3772
50.4414
49.5158
48.5992
47.6911
46.7908
45.8976
45.0112
44.1311
43.2568
42.3881
41.5245
40.6659
39.8119
38.9622
38.1168
37.2753
36.4375
35.6034
34.7726
33.9451
33.1206
32.2991
31.4804
30.6644
29.8509
29.0399
28.2311
27.4245
26.62
25.8174
25.0167
24.2177
23.4203
22.6244
21.8298
21.0366
20.2445
19.4535
18.6634
17.8742
17.0857
16.2978
15.5103
14.7232
13.9362
13.1491
12.3619
11.5742
10.786
9.99687
9.20671
8.41532
7.62251
6.82812
6.03197
5.234
4.43416
3.63242
2.8288
2.02336
1.21622
0.408691
65.3679
62.8246
61.6788
60.5443
59.4153
58.3297
57.2781
56.2509
55.2445
54.2561
53.2832
52.3242
51.3774
50.4416
49.5159
48.5994
47.6912
46.7909
45.8977
45.0113
44.1312
43.2569
42.3881
41.5246
40.6659
39.8119
38.9623
38.1168
37.2753
36.4376
35.6034
34.7726
33.9451
33.1206
32.2991
31.4804
30.6644
29.8509
29.0399
28.2311
27.4245
26.62
25.8174
25.0167
24.2177
23.4203
22.6244
21.8298
21.0366
20.2445
19.4535
18.6634
17.8742
17.0857
16.2978
15.5103
14.7232
13.9362
13.1491
12.3619
11.5742
10.786
9.99686
9.2067
8.41531
7.62249
6.8281
6.03196
5.23399
4.43415
3.63241
2.82879
2.02335
1.21621
0.408686
65.3576
62.8269
61.6798
60.5454
59.4162
58.3304
57.2787
56.2514
55.2449
54.2564
53.2835
52.3244
51.3776
50.4418
49.5161
48.5995
47.6914
46.791
45.8978
45.0114
44.1312
43.257
42.3882
41.5246
40.666
39.812
38.9623
38.1169
37.2753
36.4376
35.6034
34.7726
33.9451
33.1207
32.2992
31.4805
30.6644
29.8509
29.0399
28.2311
27.4245
26.62
25.8174
25.0167
24.2177
23.4203
22.6243
21.8298
21.0366
20.2445
19.4535
18.6634
17.8742
17.0857
16.2978
15.5103
14.7232
13.9361
13.1491
12.3619
11.5742
10.7859
9.99684
9.20668
8.41529
7.62248
6.82809
6.03195
5.23398
4.43414
3.63239
2.82878
2.02333
1.21619
0.408679
65.348
62.8298
61.6806
60.5463
59.4171
58.3312
57.2794
56.252
55.2454
54.2568
53.2839
52.3247
51.3778
50.442
49.5163
48.5997
47.6915
46.7911
45.898
45.0115
44.1313
43.2571
42.3883
41.5247
40.666
39.812
38.9624
38.1169
37.2754
36.4376
35.6034
34.7727
33.9451
33.1207
32.2992
31.4805
30.6644
29.851
29.0399
28.2311
27.4245
26.62
25.8174
25.0167
24.2177
23.4203
22.6243
21.8298
21.0366
20.2445
19.4535
18.6634
17.8742
17.0857
16.2978
15.5103
14.7231
13.9361
13.1491
12.3618
11.5742
10.7859
9.99682
9.20667
8.41528
7.62246
6.82807
6.03193
5.23396
4.43412
3.63238
2.82877
2.02332
1.21618
0.408669
65.3393
62.833
61.6814
60.5471
59.4179
58.332
57.2801
56.2526
55.2459
54.2572
53.2842
52.325
51.3781
50.4423
49.5165
48.5999
47.6917
46.7913
45.8981
45.0117
44.1315
43.2572
42.3884
41.5248
40.6661
39.8121
38.9624
38.117
37.2754
36.4377
35.6035
34.7727
33.9452
33.1207
32.2992
31.4805
30.6645
29.851
29.0399
28.2311
27.4245
26.62
25.8174
25.0167
24.2177
23.4203
22.6243
21.8298
21.0366
20.2445
19.4535
18.6634
17.8742
17.0857
16.2977
15.5103
14.7231
13.9361
13.1491
12.3618
11.5742
10.7859
9.99681
9.20665
8.41526
7.62244
6.82806
6.03191
5.23395
4.43411
3.63236
2.82875
2.0233
1.21616
0.408656
65.3304
62.8363
61.682
60.5478
59.4186
58.3327
57.2808
56.2532
55.2464
54.2577
53.2847
52.3254
51.3785
50.4426
49.5168
48.6001
47.6919
46.7915
45.8983
45.0118
44.1316
43.2573
42.3885
41.5249
40.6662
39.8122
38.9625
38.117
37.2755
36.4377
35.6035
34.7728
33.9452
33.1208
32.2992
31.4805
30.6645
29.851
29.0399
28.2312
27.4246
26.62
25.8174
25.0167
24.2177
23.4203
22.6243
21.8298
21.0366
20.2445
19.4535
18.6634
17.8742
17.0856
16.2977
15.5103
14.7231
13.9361
13.1491
12.3618
11.5742
10.7859
9.99679
9.20663
8.41524
7.62243
6.82804
6.0319
5.23393
4.43409
3.63234
2.82873
2.02328
1.21614
0.40864
65.3208
62.8396
61.6825
60.5483
59.4193
58.3334
57.2814
56.2538
55.247
54.2582
53.2851
52.3258
51.3788
50.4429
49.5171
48.6004
47.6922
46.7917
45.8985
45.012
44.1318
43.2575
42.3886
41.525
40.6663
39.8123
38.9626
38.1171
37.2756
36.4378
35.6036
34.7728
33.9453
33.1208
32.2993
31.4806
30.6645
29.851
29.04
28.2312
27.4246
26.62
25.8175
25.0167
24.2177
23.4203
22.6243
21.8298
21.0366
20.2445
19.4535
18.6634
17.8741
17.0856
16.2977
15.5102
14.7231
13.9361
13.149
12.3618
11.5741
10.7859
9.99678
9.20662
8.41523
7.62241
6.82802
6.03188
5.23391
4.43407
3.63232
2.8287
2.02325
1.21611
0.408619
65.3106
62.8431
61.6829
60.5488
59.4197
58.3339
57.282
56.2544
55.2476
54.2588
53.2856
52.3263
51.3792
50.4433
49.5174
48.6007
47.6924
46.792
45.8987
45.0122
44.132
43.2576
42.3888
41.5252
40.6665
39.8124
38.9627
38.1172
37.2757
36.4379
35.6037
34.7729
33.9453
33.1209
32.2993
31.4806
30.6646
29.8511
29.04
28.2312
27.4246
26.6201
25.8175
25.0167
24.2177
23.4203
22.6244
21.8298
21.0366
20.2445
19.4535
18.6634
17.8741
17.0856
16.2977
15.5102
14.7231
13.9361
13.149
12.3618
11.5741
10.7859
9.99676
9.2066
8.41521
7.6224
6.82801
6.03186
5.23389
4.43405
3.6323
2.82868
2.02322
1.21608
0.408593
65.2996
62.8469
61.6831
60.5491
59.4201
58.3344
57.2826
56.255
55.2481
54.2593
53.2861
52.3268
51.3797
50.4437
49.5178
48.601
47.6928
46.7923
45.899
45.0125
44.1322
43.2578
42.389
41.5254
40.6666
39.8126
38.9629
38.1174
37.2758
36.438
35.6038
34.773
33.9454
33.1209
32.2994
31.4807
30.6646
29.8511
29.04
28.2313
27.4247
26.6201
25.8175
25.0168
24.2177
23.4203
22.6244
21.8298
21.0366
20.2445
19.4535
18.6634
17.8741
17.0856
16.2977
15.5102
14.7231
13.9361
13.149
12.3618
11.5741
10.7858
9.99675
9.20659
8.4152
7.62238
6.82799
6.03184
5.23387
4.43403
3.63227
2.82865
2.02319
1.21604
0.408561
65.2879
62.8511
61.6833
60.5494
59.4204
58.3347
57.283
56.2554
55.2486
54.2598
53.2867
52.3272
51.3801
50.4441
49.5182
48.6014
47.6931
46.7926
45.8993
45.0127
44.1325
43.2581
42.3892
41.5256
40.6668
39.8127
38.963
38.1175
37.2759
36.4381
35.6039
34.7731
33.9455
33.121
32.2995
31.4808
30.6647
29.8512
29.0401
28.2313
27.4247
26.6202
25.8176
25.0168
24.2178
23.4203
22.6244
21.8299
21.0366
20.2445
19.4535
18.6634
17.8741
17.0856
16.2977
15.5102
14.7231
13.936
13.149
12.3618
11.5741
10.7858
9.99674
9.20658
8.41519
7.62237
6.82798
6.03183
5.23385
4.434
3.63225
2.82862
2.02316
1.21601
0.408522
65.2755
62.8557
61.6834
60.5496
59.4206
58.3349
57.2832
56.2558
55.2491
54.2603
53.2871
52.3277
51.3806
50.4446
49.5186
48.6018
47.6935
46.7929
45.8996
45.013
44.1327
43.2583
42.3895
41.5258
40.667
39.8129
38.9632
38.1177
37.2761
36.4383
35.6041
34.7732
33.9456
33.1211
32.2996
31.4809
30.6648
29.8513
29.0402
28.2314
27.4248
26.6202
25.8176
25.0168
24.2178
23.4204
22.6244
21.8299
21.0366
20.2445
19.4535
18.6634
17.8742
17.0856
16.2977
15.5102
14.7231
13.936
13.149
12.3618
11.5741
10.7858
9.99673
9.20657
8.41518
7.62236
6.82796
6.03181
5.23383
4.43398
3.63222
2.82859
2.02312
1.21597
0.408473
65.2624
62.8606
61.6836
60.5497
59.4207
58.335
57.2834
56.256
55.2494
54.2607
53.2876
52.3282
51.3811
50.445
49.519
48.6022
47.6939
46.7933
45.9
45.0134
44.133
43.2586
42.3897
41.526
40.6673
39.8132
38.9634
38.1179
37.2763
36.4385
35.6042
34.7734
33.9458
33.1213
32.2997
31.481
30.6649
29.8514
29.0403
28.2315
27.4248
26.6203
25.8177
25.0169
24.2179
23.4204
22.6245
21.8299
21.0367
20.2446
19.4535
18.6634
17.8742
17.0857
16.2977
15.5102
14.7231
13.9361
13.149
12.3618
11.5741
10.7858
9.99673
9.20657
8.41517
7.62235
6.82795
6.0318
5.23382
4.43396
3.63219
2.82856
2.02308
1.21593
0.408413
65.2484
62.866
61.6837
60.5499
59.4208
58.3351
57.2835
56.2562
55.2496
54.261
53.2879
52.3285
51.3815
50.4454
49.5194
48.6026
47.6943
46.7937
45.9003
45.0137
44.1334
43.2589
42.39
41.5263
40.6676
39.8134
38.9637
38.1181
37.2765
36.4387
35.6044
34.7736
33.946
33.1214
32.2999
31.4811
30.665
29.8515
29.0404
28.2316
27.4249
26.6204
25.8178
25.017
24.2179
23.4205
22.6245
21.83
21.0367
20.2446
19.4536
18.6635
17.8742
17.0857
16.2977
15.5103
14.7231
13.9361
13.149
12.3618
11.5741
10.7858
9.99673
9.20657
8.41517
7.62234
6.82794
6.03179
5.2338
4.43394
3.63217
2.82853
2.02305
1.21588
0.40834
65.2337
62.8719
61.6839
60.5502
59.4209
58.3351
57.2835
56.2562
55.2497
54.2611
53.2881
52.3288
51.3818
50.4458
49.5198
48.603
47.6947
46.7941
45.9007
45.0141
44.1337
43.2593
42.3904
41.5266
40.6678
39.8137
38.9639
38.1184
37.2767
36.4389
35.6046
34.7738
33.9461
33.1216
32.3
31.4813
30.6652
29.8516
29.0405
28.2317
27.4251
26.6205
25.8179
25.0171
24.218
23.4206
22.6246
21.8301
21.0368
20.2447
19.4536
18.6635
17.8743
17.0857
16.2978
15.5103
14.7231
13.9361
13.149
12.3618
11.5741
10.7859
9.99675
9.20658
8.41518
7.62235
6.82794
6.03178
5.23379
4.43392
3.63214
2.8285
2.02301
1.21584
0.408251
65.2182
62.8782
61.684
60.5505
59.421
58.3351
57.2835
56.2562
55.2497
54.2612
53.2882
52.329
51.382
50.4461
49.5202
48.6034
47.695
46.7945
45.9011
45.0145
44.1341
43.2596
42.3907
41.527
40.6682
39.814
38.9642
38.1186
37.277
36.4392
35.6049
34.774
33.9464
33.1218
32.3002
31.4815
30.6654
29.8518
29.0407
28.2319
27.4252
26.6206
25.818
25.0172
24.2181
23.4207
22.6247
21.8301
21.0369
20.2447
19.4537
18.6636
17.8743
17.0858
16.2978
15.5103
14.7232
13.9361
13.1491
12.3618
11.5742
10.7859
9.99677
9.20659
8.41519
7.62236
6.82795
6.03178
5.23378
4.43391
3.63212
2.82847
2.02297
1.2158
0.408142
65.2019
62.885
61.6842
60.5508
59.4212
58.3352
57.2835
56.2562
55.2497
54.2612
53.2882
52.3291
51.3821
50.4463
49.5204
48.6037
47.6953
46.7948
45.9015
45.0148
44.1345
43.26
42.3911
41.5273
40.6685
39.8143
38.9646
38.119
37.2773
36.4394
35.6051
34.7743
33.9466
33.1221
32.3005
31.4817
30.6656
29.852
29.0409
28.232
27.4254
26.6208
25.8182
25.0173
24.2183
23.4208
22.6248
21.8303
21.037
20.2448
19.4538
18.6637
17.8744
17.0859
16.2979
15.5104
14.7232
13.9362
13.1491
12.3619
11.5742
10.7859
9.9968
9.20662
8.41521
7.62237
6.82796
6.03178
5.23378
4.4339
3.63211
2.82845
2.02294
1.21576
0.408009
65.1848
62.8922
61.6843
60.5513
59.4214
58.3353
57.2836
56.2562
55.2496
54.2611
53.2882
52.329
51.3822
50.4463
49.5205
48.6038
47.6956
46.7951
45.9017
45.0151
44.1348
43.2603
42.3914
41.5277
40.6689
39.8147
38.9649
38.1193
37.2776
36.4397
35.6054
34.7745
33.9469
33.1223
32.3007
31.4819
30.6658
29.8522
29.0411
28.2322
27.4256
26.621
25.8183
25.0175
24.2184
23.421
22.625
21.8304
21.0371
20.245
19.4539
18.6638
17.8745
17.0859
16.298
15.5105
14.7233
13.9363
13.1492
12.3619
11.5743
10.786
9.99684
9.20666
8.41525
7.6224
6.82798
6.0318
5.23379
4.4339
3.6321
2.82843
2.02291
1.21572
0.407849
65.1671
62.8998
61.6844
60.5518
59.4217
58.3355
57.2836
56.2562
55.2496
54.2611
53.2881
52.329
51.3821
50.4463
49.5205
48.6039
47.6957
46.7952
45.9019
45.0154
44.1351
43.2606
42.3917
41.528
40.6692
39.815
38.9652
38.1196
37.278
36.4401
35.6058
34.7748
33.9472
33.1226
32.301
31.4822
30.6661
29.8525
29.0413
28.2325
27.4258
26.6212
25.8185
25.0177
24.2186
23.4211
22.6252
21.8306
21.0373
20.2451
19.454
18.6639
17.8746
17.0861
16.2981
15.5106
14.7234
13.9363
13.1493
12.362
11.5743
10.786
9.9969
9.20671
8.41529
7.62244
6.82801
6.03183
5.23381
4.43391
3.6321
2.82842
2.02289
1.2157
0.407655
65.1489
62.9076
61.6845
60.5524
59.4221
58.3357
57.2838
56.2563
55.2496
54.261
53.2881
52.3289
51.382
50.4462
49.5204
48.6038
47.6957
46.7952
45.902
45.0155
44.1352
43.2609
42.392
41.5283
40.6695
39.8153
38.9655
38.1199
37.2783
36.4404
35.6061
34.7752
33.9475
33.1229
32.3013
31.4825
30.6664
29.8528
29.0416
28.2327
27.4261
26.6214
25.8188
25.0179
24.2188
23.4214
22.6254
21.8308
21.0374
20.2453
19.4542
18.6641
17.8748
17.0862
16.2982
15.5107
14.7235
13.9365
13.1494
12.3621
11.5744
10.7861
9.99698
9.20678
8.41536
7.6225
6.82806
6.03187
5.23384
4.43394
3.63212
2.82843
2.02289
1.21568
0.407422
65.1304
62.9158
61.6845
60.553
59.4225
58.3359
57.2839
56.2564
55.2497
54.2611
53.2881
52.3289
51.382
50.4461
49.5204
48.6038
47.6956
46.7952
45.902
45.0155
44.1353
43.2609
42.3921
41.5285
40.6697
39.8156
38.9658
38.1202
37.2786
36.4407
35.6064
34.7755
33.9478
33.1233
32.3016
31.4828
30.6667
29.8531
29.0419
28.233
27.4263
26.6217
25.819
25.0182
24.2191
23.4216
22.6256
21.831
21.0377
20.2455
19.4544
18.6643
17.875
17.0864
16.2984
15.5109
14.7237
13.9366
13.1495
12.3622
11.5745
10.7862
9.99708
9.20687
8.41544
7.62257
6.82813
6.03193
5.23389
4.43398
3.63215
2.82845
2.0229
1.21568
0.407146
65.1118
62.924
61.6844
60.5536
59.4229
58.3361
57.2841
56.2565
55.2498
54.2611
53.2881
52.3289
51.3819
50.4461
49.5203
48.6037
47.6955
46.7951
45.9019
45.0154
44.1353
43.2609
42.3921
41.5285
40.6698
39.8157
38.966
38.1204
37.2788
36.441
35.6067
34.7758
33.9481
33.1236
32.3019
31.4831
30.667
29.8534
29.0422
28.2333
27.4266
26.622
25.8193
25.0185
24.2194
23.4219
22.6258
21.8312
21.0379
20.2457
19.4546
18.6645
17.8752
17.0866
16.2986
15.5111
14.7238
13.9368
13.1497
12.3624
11.5747
10.7863
9.99719
9.20698
8.41554
7.62267
6.82821
6.032
5.23396
4.43403
3.6322
2.82849
2.02292
1.21569
0.406824
65.0936
62.9322
61.6842
60.5542
59.4233
58.3364
57.2843
56.2567
55.2499
54.2612
53.2881
52.3289
51.3819
50.4461
49.5202
48.6036
47.6954
46.795
45.9018
45.0154
44.1352
43.2609
42.3921
41.5285
40.6698
39.8157
38.966
38.1205
37.2789
36.4411
35.6069
34.776
33.9484
33.1238
32.3022
31.4834
30.6673
29.8537
29.0425
28.2336
27.4269
26.6223
25.8196
25.0188
24.2197
23.4221
22.6261
21.8315
21.0382
20.246
19.4549
18.6647
17.8754
17.0868
16.2988
15.5113
14.724
13.9369
13.1498
12.3625
11.5748
10.7865
9.99733
9.20711
8.41566
7.62278
6.82832
6.0321
5.23405
4.43411
3.63227
2.82855
2.02297
1.21573
0.406456
65.0761
62.9401
61.6839
60.5549
59.4238
58.3367
57.2846
56.2569
55.25
54.2613
53.2882
52.3289
51.382
50.4461
49.5202
48.6036
47.6954
46.7949
45.9017
45.0153
44.1351
43.2608
42.392
41.5284
40.6697
39.8156
38.966
38.1205
37.279
36.4412
35.6069
34.7761
33.9485
33.124
32.3024
31.4836
30.6675
29.8539
29.0428
28.2339
27.4272
26.6226
25.8199
25.0191
24.2199
23.4224
22.6264
21.8318
21.0384
20.2463
19.4552
18.665
17.8757
17.087
16.299
15.5115
14.7243
13.9372
13.15
12.3627
11.575
10.7867
9.9975
9.20727
8.41581
7.62292
6.82845
6.03222
5.23416
4.43421
3.63236
2.82863
2.02303
1.21578
0.406048
65.0601
62.9475
61.6836
60.5554
59.4242
58.337
57.2848
56.2571
55.2502
54.2614
53.2883
52.329
51.382
50.4461
49.5203
48.6036
47.6954
46.7949
45.9017
45.0152
44.135
43.2607
42.3919
41.5283
40.6696
39.8155
38.9659
38.1204
37.2789
36.4411
35.6069
34.7761
33.9485
33.124
32.3025
31.4837
30.6677
29.8541
29.043
28.2341
27.4275
26.6228
25.8202
25.0193
24.2202
23.4227
22.6267
21.8321
21.0387
20.2465
19.4554
18.6653
17.8759
17.0873
16.2993
15.5117
14.7245
13.9374
13.1503
12.3629
11.5752
10.7869
9.99768
9.20744
8.41597
7.62307
6.82859
6.03235
5.23429
4.43433
3.63247
2.82873
2.02313
1.21586
0.405618
65.0462
62.954
61.6833
60.5559
59.4246
58.3372
57.285
56.2572
55.2503
54.2615
53.2884
52.3291
51.3821
50.4462
49.5203
48.6036
47.6954
46.7949
45.9017
45.0152
44.135
43.2606
42.3918
41.5282
40.6695
39.8155
38.9658
38.1203
37.2788
36.441
35.6068
34.776
33.9485
33.124
32.3025
31.4837
30.6677
29.8541
29.043
28.2342
27.4276
26.623
25.8203
25.0195
24.2204
23.4229
22.6269
21.8323
21.039
20.2468
19.4557
18.6655
17.8762
17.0876
16.2995
15.512
14.7247
13.9376
13.1505
12.3632
11.5754
10.7871
9.99788
9.20763
8.41615
7.62324
6.82876
6.03251
5.23443
4.43447
3.6326
2.82885
2.02324
1.21596
0.405201
65.0356
62.959
61.683
60.5563
59.4249
58.3374
57.2851
56.2573
55.2504
54.2616
53.2885
52.3292
51.3821
50.4462
49.5203
48.6036
47.6954
46.7949
45.9017
45.0152
44.1349
43.2606
42.3918
41.5282
40.6695
39.8154
38.9657
38.1202
37.2787
36.4409
35.6067
34.7759
33.9484
33.1239
32.3024
31.4837
30.6676
29.8541
29.043
28.2342
27.4276
26.623
25.8204
25.0196
24.2205
23.4231
22.6271
21.8325
21.0391
20.247
19.4559
18.6657
17.8764
17.0878
16.2998
15.5122
14.7249
13.9378
13.1507
12.3634
11.5756
10.7873
9.99806
9.20781
8.41633
7.62341
6.82892
6.03266
5.23458
4.43461
3.63273
2.82898
2.02335
1.21606
0.40485
65.0295
62.962
61.6827
60.5565
59.4251
58.3375
57.2852
56.2574
55.2505
54.2617
53.2885
52.3292
51.3822
50.4462
49.5204
48.6037
47.6954
46.7949
45.9017
45.0152
44.1349
43.2606
42.3918
41.5281
40.6694
39.8154
38.9657
38.1202
37.2787
36.4409
35.6067
34.7759
33.9483
33.1238
32.3023
31.4836
30.6675
29.854
29.043
28.2342
27.4276
26.623
25.8204
25.0196
24.2205
23.4231
22.6271
21.8325
21.0392
20.2471
19.456
18.6658
17.8765
17.0879
16.2999
15.5123
14.7251
13.938
13.1508
12.3635
11.5758
10.7874
9.99819
9.20793
8.41644
7.62352
6.82903
6.03277
5.23468
4.43471
3.63282
2.82907
2.02343
1.21614
0.404636
65.0295
62.962
61.6827
60.5565
59.4251
58.3375
57.2852
56.2574
55.2505
54.2617
53.2885
52.3292
51.3822
50.4462
49.5204
48.6037
47.6954
46.7949
45.9017
45.0152
44.1349
43.2606
42.3918
41.5281
40.6694
39.8154
38.9657
38.1202
37.2787
36.4409
35.6067
34.7759
33.9483
33.1238
32.3023
31.4836
30.6675
29.854
29.043
28.2342
27.4276
26.623
25.8204
25.0196
24.2205
23.4231
22.6271
21.8325
21.0392
20.2471
19.456
18.6658
17.8765
17.0879
16.2999
15.5123
14.7251
13.938
13.1508
12.3635
11.5758
10.7874
9.99819
9.20793
8.41644
7.62352
6.82903
6.03277
5.23468
4.43471
3.63282
2.82907
2.02343
1.21614
0.40463
65.0356
62.959
61.683
60.5563
59.4249
58.3374
57.2851
56.2573
55.2504
54.2616
53.2885
52.3292
51.3821
50.4462
49.5203
48.6036
47.6954
46.7949
45.9017
45.0152
44.1349
43.2606
42.3918
41.5282
40.6695
39.8154
38.9657
38.1202
37.2787
36.4409
35.6067
34.7759
33.9484
33.1239
32.3024
31.4837
30.6676
29.8541
29.043
28.2342
27.4276
26.623
25.8204
25.0196
24.2205
23.4231
22.6271
21.8325
21.0391
20.247
19.4559
18.6657
17.8764
17.0878
16.2998
15.5122
14.7249
13.9378
13.1507
12.3634
11.5756
10.7873
9.99807
9.20781
8.41633
7.62341
6.82892
6.03266
5.23458
4.43461
3.63273
2.82898
2.02335
1.21607
0.404832
65.0462
62.954
61.6833
60.5559
59.4246
58.3372
57.285
56.2572
55.2503
54.2615
53.2884
52.3291
51.3821
50.4462
49.5203
48.6036
47.6954
46.7949
45.9017
45.0152
44.135
43.2606
42.3918
41.5282
40.6695
39.8155
38.9658
38.1203
37.2788
36.441
35.6068
34.776
33.9485
33.124
32.3025
31.4837
30.6677
29.8541
29.043
28.2342
27.4276
26.623
25.8203
25.0195
24.2204
23.4229
22.6269
21.8323
21.039
20.2468
19.4557
18.6655
17.8762
17.0876
16.2995
15.512
14.7247
13.9376
13.1505
12.3632
11.5754
10.7871
9.99788
9.20763
8.41616
7.62324
6.82876
6.03251
5.23444
4.43447
3.6326
2.82886
2.02323
1.21596
0.405171
65.06
62.9475
61.6836
60.5554
59.4242
58.337
57.2848
56.2571
55.2502
54.2614
53.2883
52.329
51.382
50.4461
49.5203
48.6036
47.6954
46.7949
45.9017
45.0152
44.135
43.2607
42.3919
41.5283
40.6696
39.8155
38.9659
38.1204
37.2789
36.4411
35.6069
34.7761
33.9485
33.124
32.3025
31.4837
30.6677
29.8541
29.043
28.2341
27.4275
26.6228
25.8202
25.0193
24.2202
23.4227
22.6267
21.8321
21.0387
20.2465
19.4554
18.6653
17.8759
17.0873
16.2993
15.5117
14.7245
13.9374
13.1503
12.3629
11.5752
10.7869
9.99769
9.20744
8.41598
7.62307
6.8286
6.03236
5.23429
4.43434
3.63247
2.82874
2.02312
1.21587
0.405579
65.0761
62.9401
61.6839
60.5549
59.4238
58.3367
57.2846
56.2569
55.25
54.2613
53.2882
52.3289
51.382
50.4461
49.5202
48.6036
47.6954
46.7949
45.9017
45.0153
44.1351
43.2607
42.392
41.5284
40.6697
39.8156
38.966
38.1205
37.279
36.4412
35.6069
34.7761
33.9485
33.124
32.3024
31.4836
30.6675
29.8539
29.0428
28.2339
27.4272
26.6226
25.8199
25.0191
24.2199
23.4224
22.6264
21.8318
21.0384
20.2463
19.4552
18.665
17.8757
17.087
16.299
15.5115
14.7243
13.9372
13.15
12.3627
11.575
10.7867
9.9975
9.20727
8.41582
7.62292
6.82845
6.03222
5.23416
4.43421
3.63236
2.82863
2.02303
1.21579
0.406
65.0935
62.9322
61.6842
60.5542
59.4233
58.3364
57.2843
56.2567
55.2499
54.2612
53.2881
52.3289
51.3819
50.4461
49.5202
48.6036
47.6954
46.795
45.9018
45.0154
44.1352
43.2609
42.3921
41.5285
40.6698
39.8157
38.966
38.1205
37.2789
36.4411
35.6069
34.776
33.9484
33.1238
32.3022
31.4834
30.6673
29.8537
29.0425
28.2336
27.4269
26.6223
25.8196
25.0188
24.2197
23.4221
22.6261
21.8315
21.0382
20.246
19.4549
18.6647
17.8754
17.0868
16.2988
15.5113
14.724
13.9369
13.1498
12.3625
11.5748
10.7865
9.99734
9.20712
8.41567
7.62278
6.82833
6.0321
5.23405
4.43411
3.63227
2.82855
2.02296
1.21574
0.406401
65.1118
62.924
61.6844
60.5536
59.4229
58.3361
57.2841
56.2565
55.2498
54.2611
53.2881
52.3289
51.3819
50.4461
49.5203
48.6037
47.6955
46.7951
45.9019
45.0154
44.1353
43.2609
42.3921
41.5285
40.6698
39.8157
38.966
38.1204
37.2788
36.441
35.6067
34.7758
33.9481
33.1236
32.3019
31.4831
30.667
29.8534
29.0422
28.2333
27.4266
26.622
25.8193
25.0185
24.2194
23.4219
22.6259
21.8312
21.0379
20.2457
19.4546
18.6645
17.8752
17.0866
16.2986
15.5111
14.7238
13.9368
13.1497
12.3624
11.5747
10.7863
9.9972
9.20699
8.41555
7.62267
6.82822
6.032
5.23397
4.43404
3.6322
2.82849
2.02292
1.2157
0.406763
65.1303
62.9158
61.6845
60.553
59.4225
58.3359
57.2839
56.2564
55.2497
54.2611
53.2881
52.3289
51.382
50.4461
49.5204
48.6038
47.6956
46.7952
45.902
45.0155
44.1353
43.2609
42.3921
41.5285
40.6697
39.8156
38.9658
38.1202
37.2786
36.4407
35.6064
34.7755
33.9478
33.1233
32.3016
31.4828
30.6667
29.8531
29.0419
28.233
27.4263
26.6217
25.819
25.0182
24.2191
23.4216
22.6256
21.831
21.0377
20.2455
19.4544
18.6643
17.875
17.0864
16.2984
15.5109
14.7237
13.9366
13.1495
12.3622
11.5745
10.7862
9.99709
9.20688
8.41545
7.62257
6.82814
6.03193
5.2339
4.43398
3.63215
2.82846
2.02289
1.21569
0.407081
65.1489
62.9077
61.6845
60.5524
59.4221
58.3357
57.2838
56.2563
55.2496
54.261
53.2881
52.3289
51.382
50.4462
49.5204
48.6038
47.6957
46.7952
45.902
45.0155
44.1352
43.2609
42.392
41.5283
40.6695
39.8153
38.9655
38.1199
37.2783
36.4404
35.6061
34.7752
33.9475
33.1229
32.3013
31.4825
30.6664
29.8528
29.0416
28.2327
27.4261
26.6214
25.8188
25.0179
24.2188
23.4214
22.6254
21.8308
21.0374
20.2453
19.4542
18.6641
17.8748
17.0862
16.2982
15.5107
14.7235
13.9365
13.1494
12.3621
11.5744
10.7861
9.99699
9.20679
8.41537
7.6225
6.82808
6.03187
5.23385
4.43394
3.63212
2.82844
2.02288
1.21569
0.407352
65.1671
62.8998
61.6844
60.5518
59.4217
58.3355
57.2836
56.2562
55.2496
54.2611
53.2881
52.329
51.3821
50.4463
49.5205
48.6039
47.6957
46.7952
45.9019
45.0154
44.1351
43.2606
42.3917
41.528
40.6692
39.815
38.9652
38.1196
37.278
36.4401
35.6058
34.7748
33.9472
33.1226
32.301
31.4822
30.6661
29.8525
29.0413
28.2325
27.4258
26.6212
25.8185
25.0177
24.2186
23.4211
22.6252
21.8306
21.0373
20.2451
19.454
18.6639
17.8746
17.0861
16.2981
15.5106
14.7234
13.9364
13.1493
12.362
11.5743
10.786
9.99691
9.20672
8.4153
7.62244
6.82803
6.03183
5.23382
4.43391
3.63211
2.82843
2.02288
1.21571
0.407581
65.1847
62.8922
61.6843
60.5513
59.4214
58.3353
57.2836
56.2562
55.2496
54.2611
53.2882
52.329
51.3822
50.4463
49.5205
48.6038
47.6956
46.7951
45.9017
45.0151
44.1348
43.2603
42.3914
41.5277
40.6689
39.8147
38.9649
38.1193
37.2776
36.4397
35.6054
34.7745
33.9469
33.1223
32.3007
31.4819
30.6658
29.8522
29.0411
28.2322
27.4256
26.621
25.8183
25.0175
24.2184
23.421
22.625
21.8304
21.0371
20.245
19.4539
18.6638
17.8745
17.086
16.298
15.5105
14.7233
13.9363
13.1492
12.3619
11.5743
10.786
9.99685
9.20666
8.41526
7.6224
6.82799
6.0318
5.2338
4.4339
3.6321
2.82844
2.0229
1.21574
0.407772
65.2018
62.885
61.6842
60.5508
59.4212
58.3352
57.2835
56.2562
55.2497
54.2612
53.2882
52.3291
51.3821
50.4463
49.5204
48.6037
47.6953
46.7948
45.9015
45.0148
44.1345
43.26
42.3911
41.5273
40.6685
39.8143
38.9646
38.119
37.2773
36.4394
35.6051
34.7743
33.9466
33.1221
32.3005
31.4817
30.6656
29.852
29.0409
28.232
27.4254
26.6208
25.8182
25.0173
24.2183
23.4208
22.6248
21.8303
21.037
20.2448
19.4538
18.6637
17.8744
17.0859
16.2979
15.5104
14.7232
13.9362
13.1491
12.3619
11.5742
10.7859
9.99681
9.20662
8.41522
7.62237
6.82797
6.03178
5.23379
4.4339
3.63211
2.82845
2.02293
1.21577
0.407931
65.2181
62.8783
61.684
60.5505
59.421
58.3351
57.2835
56.2562
55.2497
54.2612
53.2882
52.329
51.382
50.4461
49.5202
48.6034
47.695
46.7945
45.9011
45.0145
44.1341
43.2596
42.3907
41.527
40.6682
39.814
38.9642
38.1186
37.277
36.4392
35.6049
34.774
33.9464
33.1218
32.3002
31.4815
30.6654
29.8518
29.0407
28.2319
27.4252
26.6206
25.818
25.0172
24.2181
23.4207
22.6247
21.8301
21.0369
20.2447
19.4537
18.6636
17.8743
17.0858
16.2978
15.5103
14.7232
13.9361
13.1491
12.3618
11.5742
10.7859
9.99678
9.20659
8.4152
7.62235
6.82796
6.03178
5.23379
4.43391
3.63213
2.82848
2.02296
1.21581
0.408062
65.2336
62.8719
61.6839
60.5502
59.4209
58.3351
57.2835
56.2562
55.2497
54.2611
53.2881
52.3288
51.3818
50.4458
49.5198
48.603
47.6947
46.7941
45.9007
45.0141
44.1337
43.2593
42.3904
41.5266
40.6678
39.8137
38.9639
38.1184
37.2767
36.4389
35.6046
34.7738
33.9461
33.1216
32.3
31.4813
30.6652
29.8516
29.0405
28.2317
27.4251
26.6205
25.8179
25.0171
24.218
23.4206
22.6246
21.8301
21.0368
20.2447
19.4536
18.6635
17.8743
17.0857
16.2978
15.5103
14.7231
13.9361
13.1491
12.3618
11.5741
10.7859
9.99676
9.20658
8.41519
7.62234
6.82795
6.03178
5.2338
4.43392
3.63214
2.8285
2.02299
1.21585
0.408169
65.2484
62.8661
61.6837
60.5499
59.4208
58.3351
57.2835
56.2562
55.2496
54.261
53.2879
52.3286
51.3815
50.4454
49.5194
48.6026
47.6943
46.7937
45.9003
45.0137
44.1334
43.2589
42.39
41.5263
40.6676
39.8134
38.9637
38.1181
37.2765
36.4387
35.6044
34.7736
33.946
33.1214
32.2999
31.4811
30.665
29.8515
29.0404
28.2316
27.4249
26.6204
25.8178
25.017
24.2179
23.4205
22.6245
21.83
21.0367
20.2446
19.4536
18.6635
17.8742
17.0857
16.2977
15.5103
14.7231
13.9361
13.149
12.3618
11.5741
10.7858
9.99675
9.20657
8.41518
7.62234
6.82796
6.03178
5.23381
4.43393
3.63217
2.82853
2.02303
1.2159
0.408257
65.2623
62.8607
61.6836
60.5497
59.4207
58.335
57.2834
56.256
55.2494
54.2607
53.2876
52.3282
51.3811
50.445
49.519
48.6022
47.6939
46.7933
45.9
45.0134
44.133
43.2586
42.3897
41.526
40.6673
39.8132
38.9634
38.1179
37.2763
36.4385
35.6042
34.7734
33.9458
33.1213
32.2997
31.481
30.6649
29.8514
29.0403
28.2315
27.4248
26.6203
25.8177
25.0169
24.2179
23.4204
22.6245
21.8299
21.0367
20.2446
19.4535
18.6634
17.8742
17.0857
16.2977
15.5102
14.7231
13.9361
13.149
12.3618
11.5741
10.7858
9.99674
9.20657
8.41518
7.62234
6.82796
6.03179
5.23382
4.43395
3.63219
2.82856
2.02306
1.21594
0.408329
65.2755
62.8557
61.6834
60.5496
59.4206
58.3349
57.2832
56.2558
55.2491
54.2603
53.2871
52.3277
51.3806
50.4446
49.5186
48.6018
47.6935
46.7929
45.8996
45.013
44.1327
43.2583
42.3895
41.5258
40.667
39.8129
38.9632
38.1177
37.2761
36.4383
35.6041
34.7732
33.9456
33.1211
32.2996
31.4809
30.6648
29.8513
29.0402
28.2314
27.4248
26.6202
25.8176
25.0168
24.2178
23.4204
22.6244
21.8299
21.0366
20.2445
19.4535
18.6634
17.8742
17.0856
16.2977
15.5102
14.7231
13.936
13.149
12.3618
11.5741
10.7858
9.99674
9.20657
8.41519
7.62235
6.82797
6.03181
5.23384
4.43398
3.63222
2.8286
2.0231
1.21598
0.408388
65.2879
62.8511
61.6833
60.5494
59.4204
58.3347
57.283
56.2554
55.2487
54.2598
53.2867
52.3272
51.3801
50.4441
49.5182
48.6014
47.6931
46.7926
45.8993
45.0127
44.1325
43.2581
42.3892
41.5256
40.6668
39.8127
38.963
38.1175
37.2759
36.4381
35.6039
34.7731
33.9455
33.121
32.2995
31.4808
30.6647
29.8512
29.0401
28.2313
27.4247
26.6202
25.8176
25.0168
24.2178
23.4203
22.6244
21.8299
21.0366
20.2445
19.4535
18.6634
17.8741
17.0856
16.2977
15.5102
14.7231
13.936
13.149
12.3618
11.5741
10.7858
9.99675
9.20658
8.4152
7.62236
6.82799
6.03182
5.23386
4.434
3.63224
2.82863
2.02313
1.21602
0.408436
65.2995
62.847
61.6831
60.5491
59.4201
58.3344
57.2826
56.255
55.2481
54.2593
53.2861
52.3268
51.3797
50.4437
49.5178
48.601
47.6928
46.7923
45.899
45.0125
44.1322
43.2578
42.389
41.5254
40.6666
39.8126
38.9629
38.1174
37.2758
36.438
35.6038
34.773
33.9454
33.1209
32.2994
31.4807
30.6646
29.8511
29.04
28.2313
27.4247
26.6201
25.8175
25.0168
24.2177
23.4203
22.6244
21.8298
21.0366
20.2445
19.4535
18.6634
17.8741
17.0856
16.2977
15.5102
14.7231
13.9361
13.149
12.3618
11.5741
10.7858
9.99676
9.20659
8.41521
7.62237
6.828
6.03184
5.23388
4.43402
3.63227
2.82866
2.02317
1.21606
0.408474
65.3105
62.8431
61.6829
60.5488
59.4197
58.3339
57.282
56.2544
55.2476
54.2588
53.2856
52.3263
51.3792
50.4433
49.5174
48.6007
47.6924
46.792
45.8987
45.0122
44.132
43.2576
42.3888
41.5252
40.6665
39.8124
38.9627
38.1172
37.2757
36.4379
35.6037
34.7729
33.9453
33.1209
32.2993
31.4806