/*--------------------------------*- C++ -*----------------------------------*\
  =========                 |
  \\      /  F ield         | OpenFOAM: The Open Source CFD Toolbox
   \\    /   O peration     | Website:  https://openfoam.org
    \\  /    A nd           | Version:  7
     \\/     M anipulation  |
\*---------------------------------------------------------------------------*/
FoamFile
{
    version     2.0;
    format      ascii;
    class       surfaceScalarField;
    location    "650";
    object      phi;
}
// * * * * * * * * * * * * * * * * * * * * * * * * * * * * * * * * * * * * * //

dimensions      [0 3 -1 0 0 0 0];

internalField   nonuniform List<scalar> 
8865
(
0.00452285
0.00168694
0.00415016
0.00037269
0.0039903
0.000159866
0.00389729
9.30109e-05
0.00383339
6.38985e-05
0.00378555
4.78348e-05
0.00374796
3.75907e-05
0.00371747
3.04976e-05
0.00369216
2.53061e-05
0.00367081
2.13472e-05
0.00365258
1.82337e-05
0.00363685
1.57255e-05
0.00362319
1.36651e-05
0.00361124
1.1945e-05
0.00360075
1.04895e-05
0.00359151
9.24362e-06
0.00358334
8.16645e-06
0.00357612
7.22705e-06
0.00356971
6.40152e-06
0.00356404
5.67113e-06
0.00355902
5.02104e-06
0.00355458
4.43924e-06
0.00355067
3.91605e-06
0.00354722
3.44346e-06
0.00354421
3.01492e-06
0.00354158
2.62486e-06
0.00353931
2.26869e-06
0.00353737
1.94246e-06
0.00353573
1.64303e-06
0.00353436
1.36717e-06
0.00353325
1.11262e-06
0.00353237
8.77221e-07
0.00353171
6.59392e-07
0.00353126
4.57027e-07
0.00353099
2.69047e-07
0.0035309
9.37444e-08
0.00353097
-6.95877e-08
0.00353119
-2.22087e-07
0.00353155
-3.63466e-07
0.00353205
-4.95469e-07
0.00353267
-6.17771e-07
0.0035334
-7.32488e-07
0.00353424
-8.39248e-07
0.00353518
-9.38771e-07
0.00353621
-1.03089e-06
0.00353733
-1.11644e-06
0.00353852
-1.19624e-06
0.00353979
-1.27046e-06
0.00354113
-1.33961e-06
0.00354254
-1.40441e-06
0.003544
-1.4653e-06
0.00354553
-1.52332e-06
0.00354711
-1.57841e-06
0.00354874
-1.63107e-06
0.00355042
-1.68124e-06
0.00355215
-1.72808e-06
0.00355392
-1.76996e-06
0.00355573
-1.80471e-06
0.00355756
-1.83347e-06
0.00355941
-1.84802e-06
0.00356127
-1.85312e-06
0.00356311
-1.83545e-06
0.00356492
-1.80502e-06
0.00356667
-1.75177e-06
0.00356835
-1.67973e-06
0.00356993
-1.5808e-06
0.00357138
-1.461e-06
0.0035727
-1.31775e-06
0.00357385
-1.15734e-06
0.00357482
-9.76494e-07
0.00357559
-7.80443e-07
0.00357616
-5.75264e-07
0.00357651
-3.5256e-07
0.00357666
-1.45571e-07
-4.30713e-08
0.00573448
0.00277626
0.00532416
0.000783017
0.00510631
0.00037771
0.00497607
0.000223255
0.00488795
0.000152018
0.00482307
0.000112709
0.00477273
8.79388e-05
0.00473224
7.0979e-05
0.00469887
5.86788e-05
0.00467085
4.93648e-05
0.00464701
4.20795e-05
0.0046265
3.62353e-05
0.00460871
3.14508e-05
0.00459319
2.74677e-05
0.00457958
2.4105e-05
0.00456759
2.12321e-05
0.004557
1.87524e-05
0.00454763
1.65929e-05
0.00453934
1.46975e-05
0.00453199
1.30223e-05
0.00452548
1.15327e-05
0.00451971
1.02007e-05
0.00451463
9.00381e-06
0.00451015
7.92341e-06
0.00450622
6.94426e-06
0.00450279
6.05356e-06
0.00449982
5.24061e-06
0.00449726
4.49636e-06
0.00449509
3.81338e-06
0.00449328
3.18453e-06
0.00449178
2.60442e-06
0.00449059
2.06814e-06
0.00448968
1.57184e-06
0.00448903
1.11105e-06
0.00448861
6.83067e-07
0.00448842
2.84505e-07
0.00448844
-8.70906e-08
0.00448865
-4.34248e-07
0.00448905
-7.56413e-07
0.00448961
-1.05689e-06
0.00449033
-1.33578e-06
0.00449119
-1.59686e-06
0.00449219
-1.83994e-06
0.00449332
-2.0665e-06
0.00449456
-2.27666e-06
0.00449592
-2.47203e-06
0.00449738
-2.65424e-06
0.00449893
-2.82394e-06
0.00450058
-2.98231e-06
0.0045023
-3.13085e-06
0.00450411
-3.27066e-06
0.00450599
-3.40359e-06
0.00450794
-3.52967e-06
0.00450996
-3.64965e-06
0.00451204
-3.76317e-06
0.00451418
-3.86834e-06
0.00451638
-3.96179e-06
0.00451861
-4.03895e-06
0.00452088
-4.10015e-06
0.00452316
-4.13123e-06
0.00452545
-4.13798e-06
0.00452771
-4.09826e-06
0.00452994
-4.02634e-06
0.00453209
-3.90562e-06
0.00453415
-3.74191e-06
0.00453609
-3.52259e-06
0.00453789
-3.25745e-06
0.00453951
-2.94332e-06
0.00454094
-2.59137e-06
0.00454216
-2.19811e-06
0.00454315
-1.77363e-06
0.0045439
-1.32937e-06
0.0045444
-8.51594e-07
0.00454466
-4.11026e-07
-1.31634e-07
0.00677261
0.00350217
0.00634446
0.00121116
0.00607519
0.000646986
0.00590745
0.000390987
0.00579398
0.000265489
0.00571123
0.000195464
0.00564762
0.00015155
0.00559688
0.000121718
0.00555531
0.000100246
0.00552058
8.40915e-05
0.00549114
7.15231e-05
0.00546589
6.14851e-05
0.00544404
5.32969e-05
0.00542501
4.65006e-05
0.00540834
4.07775e-05
0.00539367
3.58986e-05
0.00538073
3.16951e-05
0.00536928
2.80402e-05
0.00535914
2.48369e-05
0.00535016
2.20093e-05
0.00534219
1.94976e-05
0.00533514
1.72539e-05
0.0053289
1.52395e-05
0.0053234
1.34226e-05
0.00531857
1.17771e-05
0.00531434
1.02813e-05
0.00531067
8.91678e-06
0.00530749
7.66825e-06
0.00530478
6.52291e-06
0.0053025
5.46893e-06
0.00530061
4.49701e-06
0.00529908
3.59885e-06
0.00529788
2.76774e-06
0.005297
1.99649e-06
0.0052964
1.28025e-06
0.00529607
6.13738e-07
0.00529599
-7.69336e-09
0.00529614
-5.8847e-07
0.00529652
-1.128e-06
0.00529709
-1.63081e-06
0.00529785
-2.09794e-06
0.00529879
-2.53473e-06
0.00529989
-2.94155e-06
0.00530115
-3.32076e-06
0.00530254
-3.67298e-06
0.00530407
-4.00071e-06
0.00530572
-4.30644e-06
0.00530749
-4.59147e-06
0.00530937
-4.85775e-06
0.00531134
-5.10764e-06
0.00531342
-5.34287e-06
0.00531558
-5.56607e-06
0.00531783
-5.77739e-06
0.00532016
-5.97762e-06
0.00532256
-6.16591e-06
0.00532503
-6.33915e-06
0.00532756
-6.49208e-06
0.00533014
-6.61765e-06
0.00533276
-6.7146e-06
0.00533539
-6.76367e-06
0.00533802
-6.77024e-06
0.00534063
-6.70534e-06
0.00534319
-6.58518e-06
0.00534567
-6.38833e-06
0.00534805
-6.12152e-06
0.0053503
-5.76929e-06
0.00535238
-5.34431e-06
0.00535428
-4.84391e-06
0.00535597
-4.28352e-06
0.00535743
-3.66091e-06
0.00535865
-2.99092e-06
0.00535961
-2.28984e-06
0.0053603
-1.54019e-06
0.00536074
-8.51291e-07
-3.05486e-07
0.00776838
0.00397374
0.00736522
0.00161432
0.00705881
0.000953393
0.00685371
0.000596095
0.00671229
0.00040691
0.00660913
0.000298623
0.00653023
0.000230446
0.00646767
0.000184282
0.00641669
0.000151228
0.00637428
0.000126493
0.00633846
0.000107343
0.00630784
9.2113e-05
0.0062814
7.97343e-05
0.00625841
6.94918e-05
0.00623829
6.08896e-05
0.00622062
5.35729e-05
0.00620503
4.72819e-05
0.00619125
4.18216e-05
0.00617905
3.70432e-05
0.00616822
3.2831e-05
0.00615863
2.9094e-05
0.00615012
2.57594e-05
0.00614259
2.27684e-05
0.00613594
2.00732e-05
0.00613009
1.76342e-05
0.00612495
1.54185e-05
0.00612047
1.33988e-05
0.00611658
1.15518e-05
0.00611325
9.85825e-06
0.00611042
8.30066e-06
0.00610805
6.865e-06
0.00610611
5.53882e-06
0.00610456
4.31195e-06
0.00610339
3.17393e-06
0.00610255
2.11735e-06
0.00610203
1.13451e-06
0.0061018
2.18763e-07
0.00610185
-6.37257e-07
0.00610216
-1.43362e-06
0.0061027
-2.17538e-06
0.00610347
-2.86481e-06
0.00610444
-3.50902e-06
0.00610561
-4.10919e-06
0.00610696
-4.66872e-06
0.00610848
-5.18893e-06
0.00611015
-5.67332e-06
0.00611197
-6.12537e-06
0.00611392
-6.54714e-06
0.00611601
-6.94142e-06
0.00611821
-7.31147e-06
0.00612053
-7.65971e-06
0.00612295
-7.98942e-06
0.00612547
-8.30082e-06
0.00612809
-8.5947e-06
0.0061308
-8.86953e-06
0.00613358
-9.12089e-06
0.00613643
-9.34154e-06
0.00613933
-9.52179e-06
0.00614228
-9.65863e-06
0.00614524
-9.72795e-06
0.00614821
-9.73447e-06
0.00615115
-9.64283e-06
0.00615403
-9.47094e-06
0.00615684
-9.19297e-06
0.00615953
-8.81664e-06
0.00616209
-8.32411e-06
0.00616447
-7.73097e-06
0.00616666
-7.03538e-06
0.00616863
-6.25712e-06
0.00617037
-5.39548e-06
0.00617184
-4.4701e-06
0.00617305
-3.50223e-06
0.00617398
-2.46982e-06
0.00617466
-1.52354e-06
-5.91089e-07
0.00876053
0.0042679
0.00841816
0.00195669
0.00809688
0.00127467
0.00785897
0.000834004
0.00768847
0.000577413
0.00756264
0.000424453
0.00746628
0.000326806
0.00739005
0.000260516
0.00732813
0.000213142
0.00727681
0.000177816
0.00723358
0.00015057
0.00719672
0.00012898
0.00716496
0.000111491
0.00713739
9.7063e-05
0.0071133
8.49771e-05
0.00709215
7.47212e-05
0.00707351
6.59208e-05
0.00705704
5.82964e-05
0.00704245
5.16348e-05
0.00702951
4.57711e-05
0.00701803
4.05756e-05
0.00700784
3.5945e-05
0.00699881
3.17959e-05
0.00699083
2.80606e-05
0.00698378
2.46833e-05
0.00697758
2.16177e-05
0.00697215
1.88252e-05
0.00696743
1.62731e-05
0.00696335
1.39345e-05
0.00695987
1.17848e-05
0.00695693
9.80436e-06
0.00695449
7.97576e-06
0.00695252
6.28463e-06
0.00695098
4.71667e-06
0.00694983
3.26132e-06
0.00694906
1.90801e-06
0.00694863
6.48035e-07
0.00694852
-5.29684e-07
0.00694872
-1.62676e-06
0.00694919
-2.64841e-06
0.00694992
-3.59829e-06
0.0069509
-4.48544e-06
0.0069521
-5.3121e-06
0.00695352
-6.08291e-06
0.00695513
-6.80013e-06
0.00695692
-7.46837e-06
0.00695889
-8.09221e-06
0.00696102
-8.6746e-06
0.0069633
-9.21928e-06
0.00696572
-9.73041e-06
0.00696827
-1.02111e-05
0.00697094
-1.06653e-05
0.00697374
-1.10932e-05
0.00697664
-1.14955e-05
0.00697964
-1.18699e-05
0.00698273
-1.22106e-05
0.00698589
-1.25083e-05
0.00698912
-1.27508e-05
0.0069924
-1.2933e-05
0.0069957
-1.30265e-05
0.006999
-1.30348e-05
0.00700227
-1.29171e-05
0.0070055
-1.26924e-05
0.00700864
-1.23311e-05
0.00701166
-1.18419e-05
0.00701454
-1.12051e-05
0.00701725
-1.04391e-05
0.00701975
-9.54317e-06
0.00702204
-8.54128e-06
0.00702407
-7.43475e-06
0.00702585
-6.24789e-06
0.00702735
-5.00657e-06
0.00702857
-3.68458e-06
0.00702952
-2.47345e-06
-1.01627e-06
0.00977742
0.00444047
0.00951399
0.00222012
0.00920569
0.00158298
0.00894539
0.0010943
0.00874723
0.000775576
0.0085973
0.000574375
0.00848145
0.000442657
0.00838959
0.000352373
0.00831504
0.000287698
0.00825334
0.000239516
0.00820147
0.000202437
0.00815732
0.000173135
0.00811935
0.000149463
0.00808642
0.000129986
0.00805769
0.000113709
0.00803248
9.99273e-05
0.00801028
8.8125e-05
0.00799066
7.79179e-05
0.00797328
6.90143e-05
0.00795786
6.11884e-05
0.00794417
5.42636e-05
0.00793202
4.80989e-05
0.00792123
4.25815e-05
0.00791168
3.76191e-05
0.00790322
3.31365e-05
0.00789577
2.90709e-05
0.00788922
2.53704e-05
0.00788351
2.19908e-05
0.00787855
1.88957e-05
0.00787428
1.60524e-05
0.00787065
1.34344e-05
0.00786761
1.10182e-05
0.00786511
8.78452e-06
0.00786311
6.71445e-06
0.00786158
4.79366e-06
0.00786048
3.00816e-06
0.00785978
1.34691e-06
0.00785945
-2.05276e-07
0.00785948
-1.65263e-06
0.00785983
-3.00081e-06
0.00786049
-4.25456e-06
0.00786143
-5.4251e-06
0.00786263
-6.51601e-06
0.00786408
-7.53338e-06
0.00786576
-8.48061e-06
0.00786766
-9.36361e-06
0.00786975
-1.01882e-05
0.00787204
-1.09584e-05
0.0078745
-1.16788e-05
0.00787712
-1.23547e-05
0.0078799
-1.29898e-05
0.00788282
-1.35887e-05
0.00788588
-1.41517e-05
0.00788907
-1.46791e-05
0.00789237
-1.5168e-05
0.00789577
-1.56111e-05
0.00789926
-1.5997e-05
0.00790282
-1.63109e-05
0.00790643
-1.65459e-05
0.00791007
-1.66691e-05
0.00791372
-1.66833e-05
0.00791735
-1.65423e-05
0.00792092
-1.62661e-05
0.00792441
-1.58219e-05
0.00792779
-1.52192e-05
0.00793102
-1.44368e-05
0.00793408
-1.34958e-05
0.00793693
-1.2397e-05
0.00793955
-1.11684e-05
0.00794193
-9.81331e-06
0.00794404
-8.36071e-06
0.00794588
-6.84117e-06
0.00794741
-5.22305e-06
0.00794868
-3.7404e-06
-1.5966e-06
0.0108418
0.0045325
0.0106586
0.00240329
0.0103907
0.00185088
0.0101252
0.00135979
0.00990488
0.000995899
0.00973121
0.000748042
0.00959448
0.000579386
0.00948519
0.000461659
0.00939623
0.000376666
0.00932255
0.000313187
0.00926065
0.000264341
0.009208
0.000225789
0.00916276
0.000194702
0.00912357
0.000169174
0.00908939
0.000147885
0.00905943
0.000129893
0.00903304
0.000114513
0.00900972
0.000101234
0.00898907
8.96694e-05
0.00897074
7.95188e-05
0.00895445
7.05485e-05
0.00893998
6.25725e-05
0.00892712
5.54418e-05
0.0089157
4.90349e-05
0.00890559
4.32527e-05
0.00889664
3.80131e-05
0.00888877
3.32475e-05
0.00888186
2.88986e-05
0.00887584
2.49181e-05
0.00887063
2.12638e-05
0.00886616
1.79009e-05
0.00886238
1.47989e-05
0.00885923
1.19323e-05
0.00885667
9.27695e-06
0.00885465
6.81392e-06
0.00885313
4.5252e-06
0.00885208
2.39676e-06
0.00885147
4.09629e-07
0.00885126
-1.44451e-06
0.00885143
-3.17279e-06
0.00885196
-4.7803e-06
0.00885281
-6.28072e-06
0.00885398
-7.67926e-06
0.00885543
-8.9837e-06
0.00885714
-1.01989e-05
0.00885911
-1.13321e-05
0.00886132
-1.23906e-05
0.00886374
-1.33796e-05
0.00886636
-1.43049e-05
0.00886918
-1.51726e-05
0.00887218
-1.59873e-05
0.00887534
-1.67541e-05
0.00887867
-1.74734e-05
0.00888213
-1.81453e-05
0.00888573
-1.87659e-05
0.00888945
-1.93266e-05
0.00889326
-1.9814e-05
0.00889716
-2.02107e-05
0.00890113
-2.0508e-05
0.00890513
-2.0669e-05
0.00890914
-2.06954e-05
0.00891313
-2.05362e-05
0.00891708
-2.02122e-05
0.00892095
-1.96877e-05
0.0089247
-1.89731e-05
0.00892831
-1.8046e-05
0.00893174
-1.69301e-05
0.00893497
-1.56277e-05
0.00893797
-1.41707e-05
0.00894072
-1.25647e-05
0.0089432
-1.08432e-05
0.0089454
-9.04116e-06
0.0089473
-7.12162e-06
0.00894892
-5.35995e-06
-2.35463e-06
0.0119752
0.00457226
0.0118614
0.00251703
0.0116523
0.00206002
0.0114041
0.00160801
0.0111727
0.00122725
0.0109787
0.00094203
0.0108211
0.000736974
0.0106932
0.000589616
0.0105882
0.000481647
0.0105009
0.000400442
0.0104275
0.000337776
0.010365
0.000288286
0.0103113
0.000248398
0.0102648
0.00021568
0.0102243
0.000188432
0.0101887
0.000165439
0.0101574
0.000145814
0.0101298
0.000128895
0.0101052
0.00011418
0.0100835
0.000101282
0.0100641
8.98973e-05
0.0100469
7.97864e-05
0.0100316
7.07567e-05
0.010018
6.26517e-05
0.0100059
5.53437e-05
0.00999518
4.87271e-05
0.00998571
4.27139e-05
0.00997738
3.72304e-05
0.00997008
3.22149e-05
0.00996373
2.76133e-05
0.00995825
2.3381e-05
0.00995357
1.94791e-05
0.00994963
1.58749e-05
0.00994637
1.25379e-05
0.00994374
9.44369e-06
0.0099417
6.56956e-06
0.0099402
3.89763e-06
0.0099392
1.40549e-06
0.00993868
-9.20461e-07
0.00993859
-3.0904e-06
0.00993892
-5.10926e-06
0.00993964
-6.99327e-06
0.00994071
-8.74955e-06
0.00994211
-1.03879e-05
0.00994383
-1.19147e-05
0.00994583
-1.33391e-05
0.00994811
-1.46699e-05
0.00995065
-1.59135e-05
0.00995342
-1.7077e-05
0.00995641
-1.81676e-05
0.00995962
-1.91908e-05
0.00996302
-2.01522e-05
0.0099666
-2.10522e-05
0.00997034
-2.18908e-05
0.00997424
-2.26632e-05
0.00997827
-2.33595e-05
0.00998242
-2.39644e-05
0.00998667
-2.44579e-05
0.00999099
-2.48295e-05
0.00999536
-2.50386e-05
0.00999975
-2.5086e-05
0.0100041
-2.49161e-05
0.0100085
-2.45506e-05
0.0100127
-2.3951e-05
0.0100169
-2.31286e-05
0.0100209
-2.20599e-05
0.0100247
-2.07711e-05
0.0100284
-1.92662e-05
0.0100318
-1.75809e-05
0.0100349
-1.57229e-05
0.0100378
-1.37302e-05
0.0100404
-1.16421e-05
0.0100427
-9.4149e-06
0.0100447
-7.3666e-06
-3.30264e-06
0.0131983
0.00457686
0.0131373
0.00257801
0.0129915
0.00220581
0.0127826
0.00181691
0.0125574
0.00145244
0.0123512
0.00114828
0.0121753
0.000912857
0.0120287
0.000736235
0.0119067
0.000603686
0.0118044
0.000502686
0.011718
0.000424209
0.0116442
0.000362025
0.0115808
0.000311841
0.0115258
0.00027067
0.0114778
0.0002364
0.0114358
0.000207506
0.0113987
0.00018287
0.011366
0.000161655
0.0113369
0.000143224
0.0113111
0.000127087
0.0112881
0.00011286
0.0112677
0.000100238
0.0112495
8.89769e-05
0.0112332
7.88784e-05
0.0112188
6.9781e-05
0.011206
6.15511e-05
0.0111946
5.40775e-05
0.0111846
4.72672e-05
0.0111758
4.10422e-05
0.011168
3.53346e-05
0.0111613
3.00881e-05
0.0111555
2.52537e-05
0.0111506
2.07903e-05
0.0111465
1.66596e-05
0.0111431
1.2831e-05
0.0111404
9.27606e-06
0.0111383
5.9722e-06
0.0111369
2.89334e-06
0.0111359
2.03061e-08
0.0111355
-2.66193e-06
0.0111355
-5.15888e-06
0.011136
-7.48871e-06
0.0111369
-9.6608e-06
0.0111382
-1.16872e-05
0.0111399
-1.35764e-05
0.0111419
-1.53393e-05
0.0111442
-1.69867e-05
0.0111468
-1.85263e-05
0.0111497
-1.99666e-05
0.0111529
-2.13162e-05
0.0111563
-2.25811e-05
0.0111599
-2.37679e-05
0.0111637
-2.48768e-05
0.0111677
-2.5908e-05
0.0111719
-2.68557e-05
0.0111763
-2.77087e-05
0.0111807
-2.84498e-05
0.0111853
-2.90569e-05
0.01119
-2.95179e-05
0.0111948
-2.97883e-05
0.0111996
-2.98683e-05
0.0112044
-2.9698e-05
0.0112091
-2.92998e-05
0.0112138
-2.86329e-05
0.0112184
-2.77092e-05
0.0112228
-2.65045e-05
0.0112271
-2.50471e-05
0.0112312
-2.33426e-05
0.011235
-2.14306e-05
0.0112386
-1.93208e-05
0.0112419
-1.70556e-05
0.011245
-1.46782e-05
0.0112477
-1.21384e-05
0.0112501
-9.79492e-06
-4.46324e-06
0.0145294
0.00455582
0.0145054
0.00260198
0.0144157
0.00229555
0.0142598
0.00197282
0.0140612
0.00165105
0.0138564
0.00135304
0.0136688
0.00110045
0.0135058
0.000899213
0.0133669
0.000742613
0.0132489
0.000620723
0.0131482
0.000524839
0.0130619
0.000448325
0.0129874
0.000386336
0.0129227
0.00033538
0.0128662
0.00029293
0.0128166
0.000257137
0.0127728
0.000226629
0.0127341
0.000200373
0.0126997
0.000177581
0.0126692
0.000157643
0.012642
0.000140079
0.0126177
0.00012451
0.012596
0.000110632
0.0125767
9.81967e-05
0.0125595
8.70036e-05
0.0125442
7.68855e-05
0.0125305
6.77042e-05
0.0125185
5.93433e-05
0.0125078
5.17059e-05
0.0124984
4.47077e-05
0.0124902
3.82784e-05
0.0124831
3.23574e-05
0.012477
2.68931e-05
0.0124718
2.18386e-05
0.0124675
1.71556e-05
0.012464
1.28089e-05
0.0124612
8.77039e-06
0.0124591
5.00919e-06
0.0124576
1.50185e-06
0.0124567
-1.77384e-06
0.0124564
-4.82635e-06
0.0124566
-7.67425e-06
0.0124572
-1.03296e-05
0.0124583
-1.28071e-05
0.0124599
-1.51175e-05
0.0124618
-1.72739e-05
0.0124641
-1.92891e-05
0.0124668
-2.11726e-05
0.0124697
-2.29345e-05
0.012473
-2.45845e-05
0.0124766
-2.61298e-05
0.0124804
-2.75775e-05
0.0124844
-2.89282e-05
0.0124887
-3.01817e-05
0.0124932
-3.13319e-05
0.0124978
-3.23664e-05
0.0125026
-3.32661e-05
0.0125076
-3.4007e-05
0.0125126
-3.45753e-05
0.0125178
-3.49235e-05
0.012523
-3.50509e-05
0.0125282
-3.48934e-05
0.0125333
-3.44747e-05
0.0125385
-3.37513e-05
0.0125435
-3.2736e-05
0.0125484
-3.14036e-05
0.0125531
-2.97845e-05
0.0125577
-2.7886e-05
0.012562
-2.57512e-05
0.012566
-2.33916e-05
0.0125698
-2.08539e-05
0.0125734
-1.81855e-05
0.0125765
-1.53277e-05
0.0125794
-1.2681e-05
-5.84917e-06
0.0159844
0.00451431
0.0159863
0.00260012
0.0159396
0.0023422
0.015838
0.00207445
0.0156829
0.00180618
0.0154978
0.00153813
0.0153103
0.00128793
0.015137
0.00107255
0.0149835
0.000896033
0.0148502
0.000754095
0.0147348
0.000640183
0.014635
0.000548156
0.0145483
0.000473036
0.0144727
0.000411005
0.0144064
0.000359191
0.0143481
0.00031544
0.0142966
0.000278124
0.014251
0.000246004
0.0142104
0.000218126
0.0141743
0.000193748
0.0141421
0.000172285
0.0141134
0.000153272
0.0140877
0.000136334
0.0140647
0.000121167
0.0140442
0.000107525
0.0140259
9.52009e-05
0.0140095
8.4025e-05
0.013995
7.38542e-05
0.0139822
6.45689e-05
0.0139708
5.60656e-05
0.0139608
4.82578e-05
0.0139521
4.10708e-05
0.0139446
3.44412e-05
0.0139381
2.83114e-05
0.0139326
2.26343e-05
0.0139281
1.7367e-05
0.0139244
1.24744e-05
0.0139214
7.91999e-06
0.0139193
3.6761e-06
0.0139178
-2.87304e-07
0.0139169
-3.98435e-06
0.0139167
-7.43425e-06
0.013917
-1.06512e-05
0.0139179
-1.36529e-05
0.0139192
-1.64528e-05
0.013921
-1.90666e-05
0.0139232
-2.15094e-05
0.0139258
-2.37924e-05
0.0139288
-2.59276e-05
0.0139322
-2.79263e-05
0.0139358
-2.97965e-05
0.0139398
-3.15463e-05
0.0139441
-3.31766e-05
0.0139486
-3.46874e-05
0.0139533
-3.60718e-05
0.0139582
-3.73165e-05
0.0139634
-3.84011e-05
0.0139687
-3.92996e-05
0.0139741
-3.99971e-05
0.0139796
-4.0443e-05
0.0139852
-4.06361e-05
0.0139908
-4.05085e-05
0.0139964
-4.00848e-05
0.014002
-3.93191e-05
0.0140075
-3.82253e-05
0.0140129
-3.67768e-05
0.0140181
-3.50063e-05
0.0140231
-3.29223e-05
0.0140279
-3.05712e-05
0.0140325
-2.79664e-05
0.0140368
-2.51586e-05
0.0140408
-2.21989e-05
0.0140445
-1.90202e-05
0.0140479
-1.60622e-05
-7.4854e-06
0.0175785
0.00445507
0.0175995
0.00257919
0.0175837
0.00235791
0.0175281
0.00213005
0.0174232
0.00191109
0.0172751
0.00168623
0.0171043
0.00145878
0.0169315
0.00124532
0.0167696
0.00105797
0.0166236
0.000900065
0.0164944
0.000769374
0.0163809
0.000661678
0.0162813
0.000572637
0.0161938
0.0004985
0.0161167
0.000436243
0.0160487
0.000383494
0.0159884
0.000338409
0.0159348
0.000299552
0.0158872
0.000265805
0.0158446
0.000236287
0.0158066
0.000210298
0.0157726
0.000187279
0.0157422
0.00016678
0.0157149
0.000148433
0.0156905
0.000131937
0.0156686
0.000117043
0.0156491
0.000103542
0.0156317
9.12626e-05
0.0156162
8.00574e-05
0.0156025
6.9801e-05
0.0155904
6.0388e-05
0.0155797
5.17272e-05
0.0155704
4.37415e-05
0.0155624
3.63608e-05
0.0155555
2.95277e-05
0.0155496
2.31899e-05
0.0155448
1.73047e-05
0.0155409
1.18283e-05
0.0155379
6.72797e-06
0.0155356
1.96759e-06
0.0155341
-2.4759e-06
0.0155333
-6.62539e-06
0.0155331
-1.0495e-05
0.0155336
-1.4106e-05
0.0155346
-1.74749e-05
0.0155362
-2.06203e-05
0.0155382
-2.35598e-05
0.0155407
-2.6307e-05
0.0155437
-2.88757e-05
0.015547
-3.12787e-05
0.0155507
-3.35256e-05
0.0155548
-3.56253e-05
0.0155592
-3.75791e-05
0.0155639
-3.93873e-05
0.0155689
-4.10427e-05
0.0155741
-4.25314e-05
0.0155795
-4.38317e-05
0.0155852
-4.49161e-05
0.0155909
-4.57687e-05
0.0155968
-4.63362e-05
0.0156028
-4.66174e-05
0.0156088
-4.65406e-05
0.0156149
-4.61316e-05
0.0156209
-4.53422e-05
0.0156269
-4.4187e-05
0.0156327
-4.26383e-05
0.0156385
-4.07306e-05
0.015644
-3.84735e-05
0.0156494
-3.59165e-05
0.0156545
-3.30746e-05
0.0156593
-3.00021e-05
0.0156639
-2.67539e-05
0.0156681
-2.32526e-05
0.015672
-1.99769e-05
-9.38539e-06
0.0193271
0.00437951
0.0193633
0.00254302
0.0193699
0.00235126
0.0193491
0.00215085
0.0192904
0.00196985
0.0191886
0.00178799
0.0190512
0.00159619
0.0188945
0.00140198
0.0187348
0.00121769
0.0185826
0.00105228
0.0184429
0.000909105
0.0183171
0.00078748
0.0182049
0.000684848
0.0181051
0.000598216
0.0180166
0.00052479
0.0179379
0.000462184
0.0178679
0.000408444
0.0178054
0.000361996
0.0177496
0.000321578
0.0176998
0.000286181
0.0176551
0.000254993
0.017615
0.000227358
0.017579
0.000202744
0.0175467
0.000180714
0.0175178
0.000160909
0.0174918
0.000143032
0.0174685
0.000126832
0.0174476
0.000112102
0.017429
9.86657e-05
0.0174125
8.63716e-05
0.0173978
7.50926e-05
0.0173848
6.47188e-05
0.0173734
5.51567e-05
0.0173634
4.63222e-05
0.0173548
3.81457e-05
0.0173474
3.05642e-05
0.0173412
2.35257e-05
0.017336
1.69782e-05
0.0173319
1.08824e-05
0.0173286
5.19714e-06
0.0173263
-1.10774e-07
0.0173247
-5.07159e-06
0.0173239
-9.69948e-06
0.0173238
-1.40186e-05
0.0173244
-1.80487e-05
0.0173256
-2.18119e-05
0.0173274
-2.53287e-05
0.0173297
-2.8615e-05
0.0173325
-3.16868e-05
0.0173358
-3.45591e-05
0.0173395
-3.72425e-05
0.0173436
-3.97474e-05
0.0173481
-4.20756e-05
0.017353
-4.4228e-05
0.0173581
-4.61972e-05
0.0173635
-4.7969e-05
0.0173692
-4.9521e-05
0.0173751
-5.08243e-05
0.0173812
-5.18626e-05
0.0173875
-5.25805e-05
0.0173938
-5.29766e-05
0.0174003
-5.29764e-05
0.0174068
-5.26063e-05
0.0174132
-5.18162e-05
0.0174197
-5.06215e-05
0.017426
-4.89933e-05
0.0174323
-4.69675e-05
0.0174383
-4.45544e-05
0.0174442
-4.18064e-05
0.0174499
-3.87398e-05
0.0174553
-3.54123e-05
0.0174604
-3.18818e-05
0.0174652
-2.80608e-05
0.0174697
-2.44627e-05
-1.15755e-05
0.0212463
0.00428825
0.0212957
0.00249367
0.0213195
0.00232744
0.0213242
0.00214617
0.0213021
0.00199196
0.0212453
0.00184475
0.0211515
0.00169
0.021027
0.00152649
0.0208846
0.00136013
0.0207372
0.00119968
0.020594
0.0010523
0.02046
0.000921453
0.0203373
0.000807544
0.0202262
0.000709285
0.0201263
0.000624735
0.0200366
0.000551879
0.0199562
0.000488871
0.019884
0.000434123
0.0198193
0.000386304
0.0197612
0.000344313
0.0197089
0.000307245
0.0196619
0.000274358
0.0196196
0.000245039
0.0195816
0.000218784
0.0195473
0.000195173
0.0195165
0.000173856
0.0194888
0.000154539
0.0194639
0.000136976
0.0194416
0.000120957
0.0194217
0.000106302
0.0194039
9.28602e-05
0.0193881
8.05e-05
0.0193742
6.91094e-05
0.0193619
5.85884e-05
0.0193512
4.88531e-05
0.0193419
3.98283e-05
0.019334
3.14514e-05
0.0193273
2.36607e-05
0.0193218
1.64092e-05
0.0193173
9.64913e-06
0.0193139
3.34074e-06
0.0193114
-2.55828e-06
0.0193097
-8.06695e-06
0.0193089
-1.32086e-05
0.0193089
-1.8007e-05
0.0193096
-2.24879e-05
0.0193109
-2.66751e-05
0.0193129
-3.05875e-05
0.0193154
-3.42434e-05
0.0193185
-3.76599e-05
0.0193221
-4.08494e-05
0.0193262
-4.38236e-05
0.0193307
-4.65852e-05
0.0193356
-4.91358e-05
0.0193409
-5.14684e-05
0.0193465
-5.35688e-05
0.0193524
-5.54141e-05
0.0193586
-5.6975e-05
0.0193649
-5.8235e-05
0.0193715
-5.91369e-05
0.0193782
-5.96801e-05
0.019385
-5.97869e-05
0.0193919
-5.94853e-05
0.0193988
-5.87231e-05
0.0194057
-5.75164e-05
0.0194125
-5.58349e-05
0.0194193
-5.37157e-05
0.0194259
-5.11697e-05
0.0194323
-4.82514e-05
0.0194386
-4.49781e-05
0.0194446
-4.14106e-05
0.0194503
-3.76097e-05
0.0194557
-3.34754e-05
0.0194608
-2.95539e-05
-1.40668e-05
0.0233536
0.00418142
0.0234151
0.0024322
0.0234532
0.00228933
0.0234772
0.00212214
0.0234826
0.00198665
0.0234628
0.0018645
0.0234125
0.0017403
0.02333
0.00160898
0.0232201
0.00147005
0.0230924
0.00132737
0.0229574
0.00118727
0.0228234
0.00105551
0.0226954
0.000935567
0.022576
0.000828655
0.0224663
0.000734457
0.0223663
0.000651894
0.0222755
0.00057961
0.0221934
0.000516238
0.0221192
0.000460522
0.0220521
0.000411361
0.0219916
0.000367808
0.0219369
0.000329066
0.0218874
0.00029446
0.0218428
0.000263425
0.0218025
0.000235487
0.0217661
0.000210244
0.0217333
0.000187358
0.0217037
0.000166542
0.0216771
0.000147552
0.0216532
0.000130178
0.0216319
0.000114241
0.0216128
9.95869e-05
0.0215958
8.60831e-05
0.0215808
7.36114e-05
0.0215676
6.20723e-05
0.021556
5.13766e-05
0.021546
4.14496e-05
0.0215375
3.22187e-05
0.0215302
2.36276e-05
0.0215243
1.56207e-05
0.0215195
8.15281e-06
0.0215157
1.16969e-06
0.021513
-5.35811e-06
0.0215113
-1.14543e-05
0.0215104
-1.71445e-05
0.0215104
-2.24587e-05
0.0215111
-2.74243e-05
0.0215126
-3.20632e-05
0.0215148
-3.63967e-05
0.0215175
-4.04443e-05
0.0215209
-4.42203e-05
0.0215248
-4.77378e-05
0.0215292
-5.1001e-05
0.0215341
-5.40124e-05
0.0215394
-5.67657e-05
0.0215451
-5.92473e-05
0.0215511
-6.14345e-05
0.0215574
-6.32977e-05
0.021564
-6.48211e-05
0.0215708
-6.59464e-05
0.0215778
-6.66741e-05
0.021585
-6.69242e-05
0.0215922
-6.67263e-05
0.0215995
-6.60262e-05
0.0216068
-6.48409e-05
0.0216141
-6.31386e-05
0.0216214
-6.09573e-05
0.0216285
-5.83079e-05
0.0216355
-5.52467e-05
0.0216423
-5.17916e-05
0.0216489
-4.80058e-05
0.0216553
-4.39525e-05
0.0216613
-3.95186e-05
0.021667
-3.52767e-05
-1.68815e-05
0.025668
0.00405883
0.0257411
0.00235909
0.025792
0.00223841
0.0258318
0.00208235
0.025858
0.00196046
0.0258665
0.00185601
0.0258526
0.00175414
0.0258122
0.00164945
0.0257435
0.00153871
0.0256497
0.00142115
0.0255378
0.00129914
0.0254163
0.00117709
0.0252923
0.00105955
0.0251711
0.000949846
0.0250558
0.000849723
0.0249481
0.000759626
0.0248485
0.000679192
0.0247571
0.000607648
0.0246736
0.000544065
0.0245974
0.000487505
0.0245281
0.000437091
0.0244652
0.000392034
0.024408
0.000351644
0.0243561
0.000315323
0.024309
0.000282556
0.0242664
0.000252903
0.0242277
0.000225985
0.0241928
0.000201478
0.0241612
0.000179106
0.0241328
0.000158626
0.0241072
0.000139832
0.0240842
0.000122547
0.0240637
0.000106615
0.0240454
9.18982e-05
0.0240292
7.8281e-05
0.0240149
6.56584e-05
0.0240024
5.39424e-05
0.0239916
4.3048e-05
0.0239823
3.29086e-05
0.0239745
2.34594e-05
0.023968
1.46482e-05
0.0239628
6.41371e-06
0.0239587
-1.28853e-06
0.0239557
-8.48973e-06
0.0239538
-1.52135e-05
0.0239528
-2.14938e-05
0.0239528
-2.73618e-05
0.0239535
-3.28431e-05
0.0239551
-3.7962e-05
0.0239574
-4.27407e-05
0.0239604
-4.71957e-05
0.023964
-5.13421e-05
0.0239682
-5.51853e-05
0.0239729
-5.87297e-05
0.0239781
-6.19698e-05
0.0239837
-6.48931e-05
0.0239898
-6.74778e-05
0.0239962
-6.96948e-05
0.0240029
-7.15296e-05
0.0240099
-7.29238e-05
0.0240171
-7.38793e-05
0.0240245
-7.43147e-05
0.024032
-7.42615e-05
0.0240396
-7.36639e-05
0.0240473
-7.254e-05
0.0240551
-7.08561e-05
0.0240627
-6.86513e-05
0.0240704
-6.59355e-05
0.0240779
-6.27668e-05
0.0240853
-5.91626e-05
0.0240924
-5.51883e-05
0.0240994
-5.09088e-05
0.0241061
-4.6196e-05
0.0241124
-4.16433e-05
-2.00196e-05
0.02821
0.00392004
0.0282946
0.00227448
0.0283577
0.00217531
0.0284114
0.00202872
0.0284545
0.00191736
0.0284846
0.00182582
0.028499
0.00173975
0.0284939
0.00165457
0.0284658
0.00156685
0.0284129
0.00147399
0.0283369
0.00137516
0.0282424
0.00127159
0.0281359
0.00116607
0.0280237
0.00106203
0.027911
0.000962457
0.0278012
0.000869359
0.0276967
0.000783742
0.0275985
0.00070584
0.0275072
0.000635404
0.0274227
0.000571917
0.0273451
0.000514754
0.0272738
0.000463267
0.0272087
0.000416832
0.0271491
0.000374877
0.0270948
0.000336886
0.0270453
0.000302404
0.0270002
0.000271029
0.0269593
0.000242411
0.0269222
0.000216247
0.0268885
0.000192268
0.0268581
0.000170243
0.0268307
0.00014997
0.026806
0.000131272
0.0267839
0.000113994
0.0267642
9.79992e-05
0.0267467
8.31685e-05
0.0267312
6.93993e-05
0.0267177
5.65934e-05
0.0267059
4.46726e-05
0.0266958
3.35621e-05
0.0266873
2.32011e-05
0.0266802
1.35219e-05
0.0266744
4.46995e-06
0.0266699
-4.0015e-06
0.0266666
-1.19204e-05
0.0266644
-1.93181e-05
0.0266633
-2.62301e-05
0.0266632
-3.26859e-05
0.0266639
-3.87134e-05
0.0266655
-4.43377e-05
0.0266679
-4.95778e-05
0.026671
-5.44509e-05
0.0266748
-5.89644e-05
0.0266792
-6.31242e-05
0.0266841
-6.69267e-05
0.0266896
-7.03609e-05
0.0266955
-7.34067e-05
0.0267019
-7.60362e-05
0.0267086
-7.82371e-05
0.0267156
-7.99515e-05
0.0267229
-8.11841e-05
0.0267305
-8.18525e-05
0.0267382
-8.19909e-05
0.0267461
-8.15423e-05
0.026754
-8.0526e-05
0.0267621
-7.89068e-05
0.0267702
-7.67244e-05
0.0267782
-7.39873e-05
0.0267862
-7.07546e-05
0.0267941
-6.7043e-05
0.0268018
-6.29194e-05
0.0268094
-5.84491e-05
0.0268166
-5.34889e-05
0.0268236
-4.86421e-05
-2.3486e-05
0.0310025
0.00376437
0.0310986
0.00217833
0.0311738
0.00210012
0.0312404
0.00196217
0.0312982
0.00185951
0.0313461
0.00177799
0.0313824
0.00170341
0.0314049
0.00163208
0.0314106
0.00156114
0.0313966
0.00148794
0.0313612
0.00141063
0.0313045
0.00132831
0.0312292
0.00124132
0.03114
0.00115123
0.0310421
0.00106038
0.0309402
0.000971214
0.0308382
0.000885745
0.0307387
0.000805322
0.0306435
0.000730648
0.0305535
0.00066193
0.0304692
0.000599048
0.0303908
0.000541688
0.0303182
0.00048944
0.0302512
0.000441861
0.0301896
0.000398507
0.030133
0.00035896
0.0300812
0.000322832
0.0300338
0.000289771
0.0299906