/*--------------------------------*- C++ -*----------------------------------*\
  =========                 |
  \\      /  F ield         | OpenFOAM: The Open Source CFD Toolbox
   \\    /   O peration     | Website:  https://openfoam.org
    \\  /    A nd           | Version:  7
     \\/     M anipulation  |
\*---------------------------------------------------------------------------*/
FoamFile
{
    version     2.0;
    format      ascii;
    class       volVectorField;
    location    "650";
    object      U;
}
// * * * * * * * * * * * * * * * * * * * * * * * * * * * * * * * * * * * * * //

dimensions      [0 1 -1 0 0 0 0];

internalField   nonuniform List<vector> 
4500
(
(15.4058 -0.778201 0)
(13.7077 -0.0619025 0)
(13.0325 -0.00325615 0)
(12.6708 0.00046499 0)
(12.4331 0.00050143 0)
(12.2594 0.000386177 0)
(12.125 0.000303744 0)
(12.0172 0.000246405 0)
(11.9286 0.0002045 0)
(11.8542 0.000172559 0)
(11.7911 0.000147435 0)
(11.7368 0.000127187 0)
(11.6898 0.000110546 0)
(11.6488 9.66466e-05 0)
(11.6128 8.48803e-05 0)
(11.5812 7.48045e-05 0)
(11.5533 6.60904e-05 0)
(11.5286 5.84885e-05 0)
(11.5067 5.18062e-05 0)
(11.4874 4.58925e-05 0)
(11.4702 4.06282e-05 0)
(11.455 3.59156e-05 0)
(11.4416 3.16771e-05 0)
(11.4298 2.78478e-05 0)
(11.4194 2.43753e-05 0)
(11.4104 2.12138e-05 0)
(11.4025 1.83266e-05 0)
(11.3958 1.56818e-05 0)
(11.39 1.32549e-05 0)
(11.3852 1.10181e-05 0)
(11.3812 8.9537e-06 0)
(11.378 7.04439e-06 0)
(11.3755 5.27844e-06 0)
(11.3738 3.63685e-06 0)
(11.3726 2.11186e-06 0)
(11.372 6.879e-07 0)
(11.372 -6.39217e-07 0)
(11.3725 -1.87994e-06 0)
(11.3734 -3.02709e-06 0)
(11.3748 -4.09913e-06 0)
(11.3766 -5.0876e-06 0)
(11.3788 -6.01895e-06 0)
(11.3813 -6.88615e-06 0)
(11.3842 -7.69614e-06 0)
(11.3874 -8.44179e-06 0)
(11.3909 -9.13362e-06 0)
(11.3946 -9.78406e-06 0)
(11.3986 -1.03894e-05 0)
(11.4028 -1.09521e-05 0)
(11.4072 -1.148e-05 0)
(11.4118 -1.19727e-05 0)
(11.4166 -1.24498e-05 0)
(11.4216 -1.2903e-05 0)
(11.4268 -1.33371e-05 0)
(11.4322 -1.37508e-05 0)
(11.4377 -1.41367e-05 0)
(11.4433 -1.44865e-05 0)
(11.4491 -1.47797e-05 0)
(11.4549 -1.50153e-05 0)
(11.4609 -1.51345e-05 0)
(11.4669 -1.51755e-05 0)
(11.4728 -1.5024e-05 0)
(11.4787 -1.47624e-05 0)
(11.4845 -1.43072e-05 0)
(11.49 -1.36907e-05 0)
(11.4953 -1.28511e-05 0)
(11.5002 -1.18412e-05 0)
(11.5047 -1.06288e-05 0)
(11.5086 -9.28978e-06 0)
(11.5121 -7.77513e-06 0)
(11.5149 -6.15532e-06 0)
(11.5171 -4.42271e-06 0)
(11.5185 -2.56891e-06 0)
(11.5193 -8.33497e-07 0)
(11.5195 -1.46214e-07 0)
(17.5879 0.16307 0)
(16.0152 0.0238108 0)
(15.1976 0.00458796 0)
(14.7348 0.00198899 0)
(14.4341 0.00129709 0)
(14.2183 0.000960549 0)
(14.0538 0.000751469 0)
(13.9232 0.000608021 0)
(13.8165 0.000503607 0)
(13.7275 0.000424282 0)
(13.6522 0.000362065 0)
(13.5878 0.000312044 0)
(13.532 0.000271017 0)
(13.4835 0.000236811 0)
(13.441 0.000207895 0)
(13.4037 0.000183164 0)
(13.3708 0.000161797 0)
(13.3416 0.000143174 0)
(13.3158 0.000126818 0)
(13.293 0.000112353 0)
(13.2728 9.94831e-05 0)
(13.2548 8.79693e-05 0)
(13.239 7.76187e-05 0)
(13.225 6.82717e-05 0)
(13.2127 5.97984e-05 0)
(13.202 5.20874e-05 0)
(13.1926 4.50477e-05 0)
(13.1846 3.86009e-05 0)
(13.1777 3.26844e-05 0)
(13.1718 2.72348e-05 0)
(13.167 2.22067e-05 0)
(13.1631 1.75576e-05 0)
(13.16 1.32552e-05 0)
(13.1577 9.25945e-06 0)
(13.1562 5.54776e-06 0)
(13.1553 2.08847e-06 0)
(13.1551 -1.13709e-06 0)
(13.1554 -4.14968e-06 0)
(13.1563 -6.94241e-06 0)
(13.1577 -9.54876e-06 0)
(13.1596 -1.19639e-05 0)
(13.1619 -1.42289e-05 0)
(13.1647 -1.63375e-05 0)
(13.1678 -1.83041e-05 0)
(13.1713 -2.01237e-05 0)
(13.1751 -2.1815e-05 0)
(13.1792 -2.33974e-05 0)
(13.1837 -2.48706e-05 0)
(13.1883 -2.62443e-05 0)
(13.1933 -2.75333e-05 0)
(13.1985 -2.87449e-05 0)
(13.2039 -2.99061e-05 0)
(13.2095 -3.10071e-05 0)
(13.2153 -3.20569e-05 0)
(13.2213 -3.30509e-05 0)
(13.2275 -3.39713e-05 0)
(13.2339 -3.47968e-05 0)
(13.2404 -3.54807e-05 0)
(13.247 -3.601e-05 0)
(13.2537 -3.62777e-05 0)
(13.2604 -3.63239e-05 0)
(13.2671 -3.59582e-05 0)
(13.2737 -3.52943e-05 0)
(13.2801 -3.41909e-05 0)
(13.2863 -3.2694e-05 0)
(13.2922 -3.07057e-05 0)
(13.2977 -2.83116e-05 0)
(13.3027 -2.54725e-05 0)
(13.3072 -2.2314e-05 0)
(13.3111 -1.87827e-05 0)
(13.3143 -1.50034e-05 0)
(13.3169 -1.09993e-05 0)
(13.3187 -6.73985e-06 0)
(13.3198 -2.78541e-06 0)
(13.3203 -6.64531e-07 0)
(18.7449 0.0973745 0)
(17.3725 0.0156216 0)
(16.4743 0.00605636 0)
(15.9331 0.00350033 0)
(15.5795 0.00236975 0)
(15.3279 0.00174957 0)
(15.138 0.00136082 0)
(14.9886 0.00109591 0)
(14.8673 0.000904526 0)
(14.7668 0.000760049 0)
(14.6821 0.000647307 0)
(14.6098 0.000557035 0)
(14.5474 0.000483241 0)
(14.4932 0.000421882 0)
(14.4459 0.000370133 0)
(14.4043 0.000325958 0)
(14.3676 0.000287856 0)
(14.3353 0.000254694 0)
(14.3066 0.000225603 0)
(14.2812 0.000199905 0)
(14.2586 0.000177063 0)
(14.2387 0.000156645 0)
(14.221 0.000138304 0)
(14.2054 0.000121752 0)
(14.1917 0.000106757 0)
(14.1796 9.31179e-05 0)
(14.1691 8.06728e-05 0)
(14.16 6.92813e-05 0)
(14.1522 5.88293e-05 0)
(14.1456 4.92072e-05 0)
(14.14 4.03323e-05 0)
(14.1355 3.21289e-05 0)
(14.1319 2.45374e-05 0)
(14.1291 1.74905e-05 0)
(14.1271 1.09454e-05 0)
(14.1259 4.85267e-06 0)
(14.1254 -8.27992e-07 0)
(14.1255 -6.13746e-06 0)
(14.1262 -1.10666e-05 0)
(14.1275 -1.56626e-05 0)
(14.1293 -1.99276e-05 0)
(14.1315 -2.39207e-05 0)
(14.1343 -2.76395e-05 0)
(14.1374 -3.11072e-05 0)
(14.141 -3.43225e-05 0)
(14.1449 -3.7314e-05 0)
(14.1491 -4.01109e-05 0)
(14.1537 -4.2718e-05 0)
(14.1585 -4.51529e-05 0)
(14.1637 -4.74395e-05 0)
(14.1691 -4.95906e-05 0)
(14.1747 -5.16435e-05 0)
(14.1806 -5.35879e-05 0)
(14.1867 -5.54343e-05 0)
(14.193 -5.71714e-05 0)
(14.1996 -5.87689e-05 0)
(14.2062 -6.01861e-05 0)
(14.2131 -6.13484e-05 0)
(14.22 -6.22272e-05 0)
(14.227 -6.26607e-05 0)
(14.234 -6.2689e-05 0)
(14.241 -6.20418e-05 0)
(14.248 -6.08626e-05 0)
(14.2547 -5.89536e-05 0)
(14.2612 -5.63745e-05 0)
(14.2674 -5.29949e-05 0)
(14.2732 -4.89361e-05 0)
(14.2785 -4.41582e-05 0)
(14.2833 -3.88415e-05 0)
(14.2875 -3.29353e-05 0)
(14.2911 -2.66257e-05 0)
(14.294 -1.99698e-05 0)
(14.2962 -1.2915e-05 0)
(14.2977 -6.40087e-06 0)
(14.2986 -1.97132e-06 0)
(19.3754 0.0462247 0)
(18.326 0.0150409 0)
(17.4307 0.00910101 0)
(16.8356 0.00564414 0)
(16.435 0.00383709 0)
(16.1491 0.00281757 0)
(15.9342 0.00217867 0)
(15.7661 0.00174595 0)
(15.6305 0.00143549 0)
(15.5186 0.00120258 0)
(15.4247 0.00102181 0)
(15.3447 0.000877711 0)
(15.276 0.000760364 0)
(15.2164 0.000663101 0)
(15.1644 0.00058129 0)
(15.1188 0.000511614 0)
(15.0786 0.000451637 0)
(15.0431 0.000399527 0)
(15.0117 0.000353883 0)
(14.9839 0.000313616 0)
(14.9592 0.000277867 0)
(14.9373 0.000245946 0)
(14.9179 0.000217298 0)
(14.9007 0.000191469 0)
(14.8856 0.000168086 0)
(14.8723 0.000146833 0)
(14.8607 0.000127453 0)
(14.8505 0.000109724 0)
(14.8418 9.34639e-05 0)
(14.8343 7.85035e-05 0)
(14.8281 6.47106e-05 0)
(14.8228 5.19665e-05 0)
(14.8186 4.0175e-05 0)
(14.8154 2.92347e-05 0)
(14.8129 1.90757e-05 0)
(14.8113 9.62365e-06 0)
(14.8104 8.14386e-07 0)
(14.8102 -7.42129e-06 0)
(14.8106 -1.50772e-05 0)
(14.8117 -2.22104e-05 0)
(14.8133 -2.88352e-05 0)
(14.8154 -3.50312e-05 0)
(14.818 -4.08032e-05 0)
(14.8211 -4.61856e-05 0)
(14.8246 -5.11836e-05 0)
(14.8284 -5.58371e-05 0)
(14.8327 -6.01872e-05 0)
(14.8373 -6.42458e-05 0)
(14.8422 -6.80397e-05 0)
(14.8474 -7.16034e-05 0)
(14.8529 -7.49565e-05 0)
(14.8586 -7.81455e-05 0)
(14.8646 -8.11599e-05 0)
(14.8709 -8.40104e-05 0)
(14.8773 -8.66772e-05 0)
(14.884 -8.91145e-05 0)
(14.8908 -9.126e-05 0)
(14.8978 -9.30075e-05 0)
(14.9049 -9.4306e-05 0)
(14.9121 -9.49412e-05 0)
(14.9193 -9.49433e-05 0)
(14.9265 -9.39693e-05 0)
(14.9336 -9.21804e-05 0)
(14.9405 -8.93294e-05 0)
(14.9472 -8.54864e-05 0)
(14.9536 -8.04967e-05 0)
(14.9596 -7.45158e-05 0)
(14.9652 -6.75104e-05 0)
(14.9703 -5.97169e-05 0)
(14.9748 -5.10968e-05 0)
(14.9787 -4.19007e-05 0)
(14.9819 -3.22227e-05 0)
(14.9845 -2.1987e-05 0)
(14.9864 -1.25735e-05 0)
(14.9878 -4.47861e-06 0)
(19.693 0.0456702 0)
(18.9995 0.0202329 0)
(18.1918 0.0128969 0)
(17.577 0.00823931 0)
(17.1407 0.00564736 0)
(16.8239 0.00414117 0)
(16.5849 0.00318982 0)
(16.3982 0.00254609 0)
(16.2481 0.00208608 0)
(16.1247 0.00174263 0)
(16.0214 0.00147727 0)
(15.9337 0.00126663 0)
(15.8585 0.0010957 0)
(15.7934 0.000954472 0)
(15.7367 0.000836004 0)
(15.687 0.000735347 0)
(15.6433 0.00064888 0)
(15.6047 0.000573892 0)
(15.5705 0.000508315 0)
(15.5402 0.000450546 0)
(15.5133 0.000399323 0)
(15.4895 0.000353639 0)
(15.4683 0.000312682 0)
(15.4496 0.000275789 0)
(15.4331 0.000242416 0)
(15.4185 0.00021211 0)
(15.4057 0.000184492 0)
(15.3945 0.000159243 0)
(15.3848 0.000136098 0)
(15.3765 0.000114816 0)
(15.3694 9.52037e-05 0)
(15.3635 7.70908e-05 0)
(15.3587 6.03365e-05 0)
(15.3548 4.47986e-05 0)
(15.3518 3.03741e-05 0)
(15.3497 1.69582e-05 0)
(15.3484 4.46399e-06 0)
(15.3479 -7.21731e-06 0)
(15.348 -1.80918e-05 0)
(15.3487 -2.82194e-05 0)
(15.35 -3.76299e-05 0)
(15.3519 -4.64252e-05 0)
(15.3544 -5.46203e-05 0)
(15.3573 -6.22633e-05 0)
(15.3606 -6.93678e-05 0)
(15.3644 -7.59869e-05 0)
(15.3685 -8.21745e-05 0)
(15.3731 -8.79512e-05 0)
(15.3779 -9.33542e-05 0)
(15.3831 -9.84284e-05 0)
(15.3886 -0.000103201 0)
(15.3944 -0.000107727 0)
(15.4004 -0.000111994 0)
(15.4067 -0.000116013 0)
(15.4133 -0.000119755 0)
(15.42 -0.000123156 0)
(15.4269 -0.000126133 0)
(15.434 -0.000128547 0)
(15.4412 -0.000130322 0)
(15.4485 -0.000131196 0)
(15.4558 -0.000131185 0)
(15.463 -0.000129882 0)
(15.4702 -0.000127459 0)
(15.4773 -0.000123627 0)
(15.4841 -0.000118465 0)
(15.4906 -0.000111802 0)
(15.4968 -0.000103824 0)
(15.5026 -9.45097e-05 0)
(15.5079 -8.41506e-05 0)
(15.5127 -7.27246e-05 0)
(15.5169 -6.05456e-05 0)
(15.5205 -4.77452e-05 0)
(15.5235 -3.4219e-05 0)
(15.5259 -2.18045e-05 0)
(15.5277 -8.497e-06 0)
(19.8488 0.0504549 0)
(19.4507 0.0244881 0)
(18.7997 0.016652 0)
(18.2081 0.0111579 0)
(17.7532 0.007791 0)
(17.4116 0.00573675 0)
(17.1505 0.00441439 0)
(16.9458 0.00351467 0)
(16.7812 0.00287186 0)
(16.6461 0.00239313 0)
(16.5332 0.00202448 0)
(16.4376 0.00173281 0)
(16.3557 0.00149689 0)
(16.2849 0.00130252 0)
(16.2233 0.00113989 0)
(16.1694 0.00100204 0)
(16.122 0.00088386 0)
(16.0802 0.000781559 0)
(16.0431 0.000692243 0)
(16.0103 0.000613678 0)
(15.9812 0.000544109 0)
(15.9553 0.000482135 0)
(15.9323 0.000426635 0)
(15.9119 0.000376691 0)
(15.8939 0.000331554 0)
(15.8779 0.000290597 0)
(15.8639 0.000253302 0)
(15.8516 0.000219228 0)
(15.8409 0.000188013 0)
(15.8317 0.000159327 0)
(15.8238 0.000132905 0)
(15.8171 0.000108515 0)
(15.8115 8.5962e-05 0)
(15.807 6.50558e-05 0)
(15.8035 4.56537e-05 0)
(15.8009 2.76144e-05 0)
(15.7991 1.08265e-05 0)
(15.7981 -4.86517e-06 0)
(15.7978 -1.94906e-05 0)
(15.7982 -3.31116e-05 0)
(15.7992 -4.57723e-05 0)
(15.8008 -5.75995e-05 0)
(15.803 -6.86216e-05 0)
(15.8056 -7.89024e-05 0)
(15.8088 -8.84668e-05 0)
(15.8124 -9.73825e-05 0)
(15.8164 -0.000105718 0)
(15.8208 -0.000113503 0)
(15.8256 -0.000120787 0)
(15.8307 -0.000127626 0)
(15.8362 -0.000134053 0)
(15.8419 -0.000140132 0)
(15.8479 -0.000145851 0)
(15.8542 -0.000151216 0)
(15.8607 -0.000156189 0)
(15.8674 -0.000160691 0)
(15.8744 -0.000164613 0)
(15.8815 -0.000167787 0)
(15.8887 -0.000170112 0)
(15.896 -0.000171278 0)
(15.9033 -0.000171289 0)
(15.9107 -0.000169678 0)
(15.9179 -0.000166627 0)
(15.925 -0.000161811 0)
(15.932 -0.000155316 0)
(15.9386 -0.00014696 0)
(15.9449 -0.000136958 0)
(15.9509 -0.000125306 0)
(15.9564 -0.000112346 0)
(15.9614 -9.8076e-05 0)
(15.966 -8.2871e-05 0)
(15.9699 -6.69008e-05 0)
(15.9733 -5.00242e-05 0)
(15.9761 -3.45425e-05 0)
(15.9784 -1.42595e-05 0)
(19.929 0.0521809 0)
(19.7286 0.0270124 0)
(19.2674 0.0200258 0)
(18.7457 0.0142434 0)
(18.2961 0.0102331 0)
(17.9397 0.00761459 0)
(17.6607 0.00587475 0)
(17.4395 0.00467512 0)
(17.2609 0.0038141 0)
(17.114 0.00317259 0)
(16.9914 0.00267928 0)
(16.8876 0.00228985 0)
(16.7988 0.00197561 0)
(16.7221 0.00171734 0)
(16.6554 0.00150174 0)
(16.597 0.00131938 0)
(16.5458 0.00116334 0)
(16.5005 0.00102851 0)
(16.4605 0.000910982 0)
(16.4249 0.000807752 0)
(16.3934 0.000716464 0)
(16.3654 0.000635242 0)
(16.3405 0.000562585 0)
(16.3183 0.000497268 0)
(16.2987 0.000438292 0)
(16.2813 0.000384824 0)
(16.266 0.000336173 0)
(16.2525 0.000291758 0)
(16.2407 0.000251093 0)
(16.2305 0.000213747 0)
(16.2216 0.000179368 0)
(16.2141 0.000147647 0)
(16.2078 0.000118328 0)
(16.2026 9.11615e-05 0)
(16.1984 6.59583e-05 0)
(16.1952 4.25339e-05 0)
(16.1929 2.07466e-05 0)
(16.1914 3.94865e-07 0)
(16.1906 -1.85902e-05 0)
(16.1906 -3.62803e-05 0)
(16.1913 -5.27269e-05 0)
(16.1925 -6.8085e-05 0)
(16.1944 -8.24e-05 0)
(16.1968 -9.57537e-05 0)
(16.1997 -0.000108185 0)
(16.2031 -0.000119778 0)
(16.2069 -0.000130618 0)
(16.2111 -0.000140746 0)
(16.2158 -0.000150224 0)
(16.2207 -0.000159118 0)
(16.2261 -0.00016747 0)
(16.2317 -0.000175352 0)
(16.2377 -0.000182749 0)
(16.2439 -0.000189667 0)
(16.2503 -0.000196055 0)
(16.257 -0.000201818 0)
(16.2639 -0.000206825 0)
(16.271 -0.000210877 0)
(16.2782 -0.000213847 0)
(16.2855 -0.000215384 0)
(16.2928 -0.000215477 0)
(16.3002 -0.000213605 0)
(16.3074 -0.000209957 0)
(16.3146 -0.000204175 0)
(16.3216 -0.000196359 0)
(16.3283 -0.000186311 0)
(16.3348 -0.00017428 0)
(16.3409 -0.000160277 0)
(16.3466 -0.000144695 0)
(16.3519 -0.000127555 0)
(16.3567 -0.000109289 0)
(16.361 -9.01046e-05 0)
(16.3647 -6.98172e-05 0)
(16.3679 -5.11927e-05 0)
(16.3706 -2.19705e-05 0)
(19.9739 0.052718 0)
(19.8889 0.0285834 0)
(19.6025 0.0227995 0)
(19.1903 0.0172661 0)
(18.776 0.0128803 0)
(18.4202 0.00975677 0)
(18.1302 0.00758162 0)
(17.8955 0.00604682 0)
(17.7042 0.0049334 0)
(17.546 0.00410026 0)
(17.4137 0.00345889 0)
(17.3016 0.00295286 0)
(17.2056 0.00254508 0)
(17.1228 0.00221049 0)
(17.0508 0.0019317 0)
(16.9878 0.00169629 0)
(16.9324 0.00149522 0)
(16.8836 0.00132175 0)
(16.8404 0.00117077 0)
(16.802 0.00103835 0)
(16.7679 0.000921396 0)
(16.7376 0.000817464 0)
(16.7106 0.000724594 0)
(16.6866 0.000641191 0)
(16.6653 0.000565954 0)
(16.6463 0.000497803 0)
(16.6296 0.000435842 0)
(16.6148 0.000379317 0)
(16.6019 0.000327598 0)
(16.5905 0.000280131 0)
(16.5807 0.00023646 0)
(16.5723 0.000196187 0)
(16.5651 0.000158978 0)
(16.5592 0.000124518 0)
(16.5543 9.25601e-05 0)
(16.5504 6.28683e-05 0)
(16.5475 3.52626e-05 0)
(16.5454 9.50001e-06 0)
(16.5442 -1.45441e-05 0)
(16.5437 -3.69668e-05 0)
(16.5439 -5.78182e-05 0)
(16.5448 -7.72842e-05 0)
(16.5463 -9.54303e-05 0)
(16.5483 -0.00011236 0)
(16.5509 -0.000128128 0)
(16.554 -0.000142839 0)
(16.5576 -0.000156595 0)
(16.5616 -0.000169451 0)
(16.566 -0.000181481 0)
(16.5709 -0.000192766 0)
(16.576 -0.000203354 0)
(16.5815 -0.000213325 0)
(16.5873 -0.000222664 0)
(16.5934 -0.000231372 0)
(16.5998 -0.000239391 0)
(16.6064 -0.000246606 0)
(16.6132 -0.000252865 0)
(16.6202 -0.00025794 0)
(16.6274 -0.000261681 0)
(16.6346 -0.000263695 0)
(16.6419 -0.000263957 0)
(16.6492 -0.000261896 0)
(16.6565 -0.000257709 0)
(16.6637 -0.00025101 0)
(16.6707 -0.000241905 0)
(16.6775 -0.000230191 0)
(16.6841 -0.000216144 0)
(16.6903 -0.000199795 0)
(16.6962 -0.000181584 0)
(16.7016 -0.000161556 0)
(16.7067 -0.000140198 0)
(16.7113 -0.000117757 0)
(16.7153 -9.3994e-05 0)
(16.7189 -7.21398e-05 0)
(16.722 -3.18202e-05 0)
(20.0011 0.0528694 0)
(19.9807 0.0295175 0)
(19.8226 0.0248232 0)
(19.5371 0.019951 0)
(19.1896 0.0155661 0)
(18.8549 0.0120995 0)
(18.5647 0.00952307 0)
(18.3221 0.00763897 0)
(18.1205 0.00624631 0)
(17.9523 0.0051943 0)
(17.8107 0.00438085 0)
(17.6905 0.00373795 0)
(17.5873 0.00321978 0)
(17.4983 0.00279489 0)
(17.4207 0.00244122 0)
(17.3529 0.00214297 0)
(17.2933 0.00188857 0)
(17.2407 0.00166939 0)
(17.194 0.00147888 0)
(17.1527 0.00131199 0)
(17.1159 0.00116477 0)
(17.0831 0.00103409 0)
(17.0539 0.000917445 0)
(17.0279 0.000812792 0)
(17.0047 0.000718472 0)
(16.9842 0.000633109 0)
(16.9659 0.00055556 0)
(16.9497 0.000484866 0)
(16.9355 0.000420227 0)
(16.923 0.00036094 0)
(16.9121 0.000306426 0)
(16.9027 0.000256181 0)
(16.8946 0.00020978 0)
(16.8878 0.000166827 0)
(16.8821 0.000127007 0)
(16.8775 9.00257e-05 0)
(16.8739 5.5653e-05 0)
(16.8712 2.36061e-05 0)
(16.8694 -6.30417e-06 0)
(16.8684 -3.4221e-05 0)
(16.8681 -6.01934e-05 0)
(16.8685 -8.44347e-05 0)
(16.8696 -0.000107035 0)
(16.8713 -0.000128121 0)
(16.8735 -0.000147771 0)
(16.8763 -0.000166108 0)
(16.8796 -0.000183255 0)
(16.8833 -0.000199283 0)
(16.8875 -0.000214281 0)
(16.8921 -0.000228342 0)
(16.8971 -0.000241523 0)
(16.9024 -0.000253914 0)
(16.908 -0.000265498 0)
(16.914 -0.000276275 0)
(16.9202 -0.000286173 0)
(16.9267 -0.000295065 0)
(16.9334 -0.000302778 0)
(16.9402 -0.000309054 0)
(16.9473 -0.000313721 0)
(16.9545 -0.000316348 0)
(16.9617 -0.000316898 0)
(16.9689 -0.000314752 0)
(16.9762 -0.000310115 0)
(16.9833 -0.000302572 0)
(16.9904 -0.000292242 0)
(16.9972 -0.000278912 0)
(17.0038 -0.000262886 0)
(17.0102 -0.000244214 0)
(17.0162 -0.000223383 0)
(17.0218 -0.000200461 0)
(17.0271 -0.000175989 0)
(17.0319 -0.000150251 0)
(17.0363 -0.000122946 0)
(17.0401 -9.77669e-05 0)
(17.0436 -4.40011e-05 0)
(20.0187 0.0527445 0)
(20.0354 0.0299682 0)
(19.9582 0.026127 0)
(19.7862 0.0220655 0)
(19.5283 0.0180611 0)
(19.2388 0.0145161 0)
(18.9637 0.0116492 0)
(18.7216 0.00944108 0)
(18.5144 0.00775985 0)
(18.3385 0.00646875 0)
(18.189 0.00546134 0)
(18.0611 0.00466132 0)
(17.951 0.00401502 0)
(17.8557 0.00348461 0)
(17.7726 0.00304311 0)
(17.6999 0.00267097 0)
(17.6358 0.00235379 0)
(17.5792 0.00208078 0)
(17.5291 0.00184373 0)
(17.4845 0.00163628 0)
(17.4448 0.00145347 0)
(17.4094 0.00129135 0)
(17.3779 0.00114679 0)
(17.3497 0.0010172 0)
(17.3246 0.000900515 0)
(17.3023 0.000794993 0)
(17.2824 0.000699205 0)
(17.2647 0.000611947 0)
(17.2491 0.000532214 0)
(17.2353 0.00045913 0)
(17.2232 0.000391969 0)
(17.2127 0.000330099 0)
(17.2036 0.00027299 0)
(17.1959 0.00022015 0)
(17.1894 0.000171183 0)
(17.184 0.000125724 0)
(17.1796 8.34838e-05 0)
(17.1762 4.41316e-05 0)
(17.1738 7.42052e-06 0)
(17.1722 -2.6864e-05 0)
(17.1713 -5.87885e-05 0)
(17.1712 -8.85794e-05 0)
(17.1718 -0.000116356 0)
(17.1731 -0.000142274 0)
(17.1749 -0.000166435 0)
(17.1773 -0.000188987 0)
(17.1803 -0.000210076 0)
(17.1837 -0.00022979 0)
(17.1876 -0.000248235 0)
(17.1919 -0.000265518 0)
(17.1966 -0.000281706 0)
(17.2017 -0.000296899 0)
(17.2071 -0.000311079 0)
(17.2128 -0.000324244 0)
(17.2189 -0.000336315 0)
(17.2252 -0.000347149 0)
(17.2317 -0.000356551 0)
(17.2384 -0.000364242 0)
(17.2454 -0.000370027 0)
(17.2524 -0.000373438 0)
(17.2595 -0.000374429 0)
(17.2667 -0.000372336 0)
(17.2738 -0.000367369 0)
(17.281 -0.000359091 0)
(17.288 -0.000347628 0)
(17.2948 -0.000332762 0)
(17.3015 -0.00031482 0)
(17.3079 -0.000293874 0)
(17.314 -0.000270452 0)
(17.3198 -0.000244646 0)
(17.3252 -0.00021705 0)
(17.3302 -0.000187983 0)
(17.3349 -0.000157074 0)
(17.339 -0.00012847 0)
(17.3428 -5.87123e-05 0)
(20.0306 0.0523702 0)
(20.0698 0.03007 0)
(20.0406 0.0268629 0)
(19.9512 0.0235191 0)
(19.7855 0.0201272 0)
(19.5621 0.0168135 0)
(19.3211 0.0138542 0)
(19.0917 0.0114083 0)
(18.8862 0.0094621 0)
(18.7068 0.00792766 0)
(18.5516 0.00671164 0)
(18.4174 0.00573709 0)
(18.3011 0.00494558 0)
(18.1999 0.00429407 0)
(18.1114 0.00375094 0)
(18.0336 0.00329287 0)
(17.9651 0.00290244 0)
(17.9044 0.00256648 0)
(17.8506 0.00227493 0)
(17.8027 0.00201995 0)
(17.76 0.00179544 0)
(17.7219 0.00159649 0)
(17.6879 0.00141922 0)
(17.6574 0.00126045 0)
(17.6302 0.00111758 0)
(17.6059 0.000988481 0)
(17.5843 0.000871372 0)
(17.565 0.000764765 0)
(17.5479 0.000667412 0)
(17.5327 0.00057823 0)
(17.5194 0.000496322 0)
(17.5077 0.000420908 0)
(17.4975 0.000351327 0)
(17.4887 0.000286978 0)
(17.4813 0.000227369 0)
(17.475 0.000172051 0)
(17.4698 0.000120665 0)
(17.4657 7.28169e-05 0)
(17.4625 2.82152e-05 0)
(17.4603 -1.34455e-05 0)
(17.4588 -5.22817e-05 0)
(17.4581 -8.85219e-05 0)
(17.4582 -0.000122314 0)
(17.4589 -0.000153848 0)
(17.4603 -0.000183252 0)
(17.4623 -0.000210703 0)
(17.4648 -0.000236373 0)
(17.4679 -0.000260369 0)
(17.4714 -0.000282816 0)
(17.4754 -0.000303837 0)
(17.4798 -0.000323512 0)
(17.4846 -0.000341948 0)
(17.4897 -0.000359131 0)
(17.4952 -0.000375057 0)
(17.501 -0.000389639 0)
(17.5071 -0.000402723 0)
(17.5135 -0.000414097 0)
(17.52 -0.000423457 0)
(17.5267 -0.000430591 0)
(17.5336 -0.000434997 0)
(17.5406 -0.00043662 0)
(17.5476 -0.000434755 0)
(17.5547 -0.000429619 0)
(17.5617 -0.000420751 0)
(17.5687 -0.000408284 0)
(17.5755 -0.000391997 0)
(17.5821 -0.000372236 0)
(17.5886 -0.000349093 0)
(17.5948 -0.000323136 0)
(17.6007 -0.000294482 0)
(17.6062 -0.000263771 0)
(17.6115 -0.000231358 0)
(17.6163 -0.000196791 0)
(17.6207 -0.000164663 0)
(17.6248 -7.6165e-05 0)
(20.039 0.0517789 0)
(20.0926 0.0299213 0)
(20.092 0.027188 0)
(20.0552 0.0243789 0)
(19.9649 0.0216134 0)
(19.8158 0.0187666 0)
(19.6268 0.0159671 0)
(19.4257 0.0134437 0)
(19.2323 0.0113079 0)
(19.0559 0.00955549 0)
(18.899 0.0081319 0)
(18.761 0.00697327 0)
(18.6398 0.00602317 0)
(18.5336 0.00523641 0)
(18.4401 0.0045781 0)
(18.3576 0.00402166 0)
(18.2847 0.0035468 0)
(18.22 0.00313796 0)
(18.1624 0.00278311 0)
(18.1111 0.00247283 0)
(18.0653 0.00219969 0)
(18.0243 0.00195779 0)
(17.9877 0.00174234 0)
(17.9548 0.00154949 0)
(17.9254 0.00137606 0)
(17.8991 0.00121944 0)
(17.8755 0.00107746 0)
(17.8545 0.000948274 0)
(17.8358 0.000830372 0)
(17.8192 0.000722427 0)
(17.8044 0.000623336 0)
(17.7915 0.000532145 0)
(17.7801 0.000448045 0)
(17.7702 0.000370302 0)
(17.7617 0.000298313 0)
(17.7545 0.000231531 0)
(17.7484 0.000169512 0)
(17.7435 0.000111788 0)
(17.7395 5.80162e-05 0)
(17.7365 7.80864e-06 0)
(17.7344 -3.90386e-05 0)
(17.733 -8.27748e-05 0)
(17.7325 -0.000123558 0)
(17.7327 -0.000161619 0)
(17.7335 -0.000197117 0)
(17.735 -0.000230262 0)
(17.7371 -0.000261255 0)
(17.7397 -0.000290225 0)
(17.7428 -0.000317318 0)
(17.7464 -0.000342677 0)
(17.7505 -0.000366391 0)
(17.755 -0.000388582 0)
(17.7598 -0.000409239 0)
(17.765 -0.000428358 0)
(17.7705 -0.000445848 0)
(17.7764 -0.000461544 0)
(17.7824 -0.000475218 0)
(17.7888 -0.000486549 0)
(17.7953 -0.000495307 0)
(17.8019 -0.000500963 0)
(17.8087 -0.000503454 0)
(17.8156 -0.000502038 0)
(17.8225 -0.000496936 0)
(17.8294 -0.000487666 0)
(17.8362 -0.00047437 0)
(17.843 -0.000456818 0)
(17.8496 -0.000435376 0)
(17.8561 -0.000410153 0)
(17.8623 -0.000381754 0)
(17.8683 -0.000350318 0)
(17.874 -0.00031653 0)
(17.8793 -0.000280779 0)
(17.8844 -0.000242521 0)
(17.889 -0.000206778 0)
(17.8933 -9.65804e-05 0)
(20.0449 0.0509937 0)
(20.1082 0.029581 0)
(20.1254 0.0272183 0)
(20.1206 0.0247808 0)
(20.0821 0.0225188 0)
(19.9986 0.0202042 0)
(19.8707 0.0177773 0)
(19.7131 0.0153876 0)
(19.5451 0.0132012 0)
(19.3812 0.0113027 0)
(19.2289 0.00970101 0)
(19.0909 0.00836499 0)
(18.9675 0.00725183 0)
(18.8578 0.00632036 0)
(18.7603 0.00553561 0)
(18.6738 0.00486927 0)
(18.5968 0.00429896 0)
(18.5283 0.00380701 0)
(18.4671 0.00337952 0)
(18.4124 0.00300549 0)
(18.3634 0.00267615 0)
(18.3195 0.00238445 0)
(18.2801 0.0021247 0)
(18.2448 0.00189225 0)
(18.2131 0.00168328 0)
(18.1846 0.00149464 0)
(18.1591 0.0013237 0)
(18.1362 0.00116824 0)
(18.1158 0.00102642 0)
(18.0975 0.000896634 0)
(18.0813 0.000777546 0)
(18.067 0.000667998 0)
(18.0543 0.000567007 0)
(18.0433 0.000473687 0)
(18.0336 0.000387304 0)
(18.0254 0.000307195 0)
(18.0183 0.000232818 0)
(18.0124 0.000163617 0)
(18.0076 9.91816e-05 0)
(18.0038 3.9062e-05 0)
(18.0009 -1.70606e-05 0)
(17.9989 -6.95008e-05 0)
(17.9977 -0.00011841 0)
(17.9972 -0.000164056 0)
(17.9975 -0.000206637 0)
(17.9984 -0.000246399 0)
(18 -0.000283578 0)
(18.0021 -0.000318325 0)
(18.0048 -0.000350812 0)
(18.0079 -0.000381202 0)
(18.0116 -0.000409599 0)
(18.0157 -0.000436139 0)
(18.0201 -0.000460817 0)
(18.025 -0.00048363 0)
(18.0302 -0.000504485 0)
(18.0357 -0.000523214 0)
(18.0415 -0.000539573 0)
(18.0475 -0.000553231 0)
(18.0538 -0.000563942 0)
(18.0602 -0.000571153 0)
(18.0668 -0.000574798 0)
(18.0734 -0.0005741 0)
(18.0801 -0.000569286 0)
(18.0869 -0.000559856 0)
(18.0936 -0.000545953 0)
(18.1002 -0.000527345 0)
(18.1068 -0.000504411 0)
(18.1132 -0.000477274 0)
(18.1194 -0.000446572 0)
(18.1254 -0.000412466 0)
(18.1312 -0.00037568 0)
(18.1367 -0.000336634 0)
(18.1418 -0.000294683 0)
(18.1467 -0.000255252 0)
(18.1512 -0.000120185 0)
(20.0492 0.0500256 0)
(20.1193 0.0290806 0)
(20.1481 0.0270286 0)
(20.1628 0.0248477 0)
(20.1569 0.0229464 0)
(20.1211 0.0210868 0)
(20.0495 0.0191112 0)
(19.9437 0.0170398 0)
(19.8141 0.0149855 0)
(19.6744 0.0130688 0)
(19.5354 0.0113618 0)
(19.4037 0.00988348 0)
(19.2821 0.00862018 0)
(19.1717 0.0075449 0)
(19.0721 0.00662841 0)
(18.9827 0.00584401 0)
(18.9025 0.00516892 0)
(18.8306 0.00458437 0)
(18.7661 0.00407509 0)
(18.7082 0.00362869 0)
(18.6562 0.00323516 0)
(18.6094 0.00288635 0)
(18.5673 0.0025756 0)
(18.5295 0.00229746 0)
(18.4954 0.00204741 0)
(18.4647 0.0018217 0)
(18.4371 0.00161719 0)
(18.4123 0.00143126 0)
(18.39 0.00126168 0)
(18.3701 0.00110654 0)
(18.3524 0.00096423 0)
(18.3365 0.000833363 0)
(18.3225 0.000712753 0)
(18.3102 0.00060134 0)
(18.2993 0.000498237 0)
(18.2899 0.000402649 0)
(18.2818 0.00031392 0)
(18.2749 0.00023139 0)
(18.2692 0.000154564 0)
(18.2645 8.293e-05 0)
(18.2608 1.60701e-05 0)
(18.2579 -4.64491e-05 0)
(18.256 -0.000104801 0)
(18.2549 -0.000159262 0)
(18.2545 -0.000210075 0)
(18.2548 -0.000257527 0)
(18.2557 -0.000301891 0)
(18.2573 -0.000343348 0)
(18.2595 -0.000382097 0)
(18.2622 -0.000418324 0)
(18.2653 -0.000452147 0)
(18.269 -0.000483725 0)
(18.273 -0.000513055 0)
(18.2775 -0.000540144 0)
(18.2823 -0.000564898 0)
(18.2875 -0.000587147 0)
(18.2929 -0.000606642 0)
(18.2986 -0.000623041 0)
(18.3045 -0.000636092 0)
(18.3107 -0.000645221 0)
(18.3169 -0.000650362 0)
(18.3233 -0.000650709 0)
(18.3298 -0.000646495 0)
(18.3364 -0.000637201 0)
(18.3429 -0.000622977 0)
(18.3494 -0.000603581 0)
(18.3558 -0.000579403 0)
(18.3621 -0.000550579 0)
(18.3683 -0.000517773 0)
(18.3743 -0.000481164 0)
(18.3801 -0.000441513 0)
(18.3857 -0.000399267 0)
(18.3909 -0.000353666 0)
(18.3959 -0.000310503 0)
(18.4006 -0.000147201 0)
(20.0522 0.0488783 0)
(20.1272 0.0284366 0)
(20.164 0.0266625 0)
(20.1912 0.0246654 0)
(20.2052 0.0230151 0)
(20.2004 0.0214911 0)
(20.1713 0.0199148 0)
(20.1139 0.0182338 0)
(20.0293 0.0164681 0)
(19.9247 0.0146947 0)
(19.8096 0.0130044 0)
(19.6925 0.0114605 0)
(19.579 0.0100893 0)
(19.4722 0.00889024 0)
(19.3736 0.00784889 0)
(19.2834 0.00694579 0)
(19.2015 0.00616125 0)
(19.1273 0.00547736 0)
(19.0602 0.00487863 0)
(18.9996 0.004352 0)
(18.9448 0.00388657 0)
(18.8953 0.00347327 0)
(18.8507 0.0031046 0)
(18.8103 0.00277431 0)
(18.7739 0.0024772 0)
(18.7409 0.00220891 0)
(18.7112 0.00196577 0)
(18.6845 0.00174469 0)
(18.6604 0.00154306 0)
(18.6387 0.0013586 0)
(18.6193 0.00118942 0)
(18.6019 0.00103387 0)
(18.5865 0.000890535 0)
(18.5727 0.000758153 0)
(18.5606 0.000635669 0)
(18.55 0.000522134 0)
(18.5407 0.00041676 0)
(18.5328 0.000318768 0)
(18.526 0.000227565 0)
(18.5204 0.000142556 0)
(18.5157 6.32581e-05 0)
(18.5121 -1.0909e-05 0)
(18.5093 -8.02112e-05 0)
(18.5074 -0.000144911 0)
(18.5063 -0.000205285 0)
(18.5059 -0.000261669 0)
(18.5062 -0.000314378 0)
(18.5072 -0.000363625 0)
(18.5088 -0.000409641 0)
(18.5109 -0.000452637 0)
(18.5136 -0.000492751 0)
(18.5167 -0.000530161 0)
(18.5203 -0.000564878 0)
(18.5243 -0.000596915 0)
(18.5287 -0.000626185 0)
(18.5334 -0.000652522 0)
(18.5385 -0.000675674 0)
(18.5438 -0.000695298 0)
(18.5494 -0.000711139 0)
(18.5551 -0.00072261 0)
(18.5611 -0.000729651 0)
(18.5672 -0.000731432 0)
(18.5734 -0.000728194 0)
(18.5796 -0.0007194 0)
(18.5859 -0.000705206 0)
(18.5922 -0.000685359 0)
(18.5985 -0.000660259 0)
(18.6047 -0.000630045 0)
(18.6108 -0.000595405 0)
(18.6167 -0.000556532 0)
(18.6225 -0.000514218 0)
(18.6281 -0.000468933 0)
(18.6334 -0.000419786 0)
(18.6385 -0.00037289 0)
(18.6433 -0.000177822 0)
(20.0542 0.0475508 0)
(20.1328 0.0276568 0)
(20.1754 0.0261432 0)
(20.2109 0.0242867 0)
(20.2375 0.0228152 0)
(20.252 0.0215276 0)
(20.2508 0.02025 0)
(20.2303 0.0189168 0)
(20.1875 0.0174951 0)
(20.1228 0.0159937 0)
(20.0406 0.014464 0)
(19.9476 0.0129732 0)
(19.8502 0.0115763 0)
(19.7535 0.0103042 0)
(19.6605 0.00916629 0)
(19.573 0.00815829 0)
(19.4918 0.00726913 0)
(19.417 0.00648537 0)
(19.3486 0.00579358 0)
(19.2862 0.00518137 0)
(19.2294 0.00463784 0)
(19.1777 0.00415353 0)
(19.1308 0.00372041 0)
(19.0882 0.00333163 0)
(19.0496 0.0029814 0)
(19.0145 0.0026648 0)
(18.9828 0.00237765 0)
(18.954 0.0021164 0)
(18.928 0.00187803 0)
(18.9046 0.00165992 0)
(18.8835 0.00145983 0)
(18.8645 0.00127584 0)
(18.8476 0.00110629 0)
(18.8324 0.000949706 0)
(18.8189 0.000804828 0)
(18.807 0.000670544 0)
(18.7966 0.000545917 0)
(18.7875 0.000430032 0)
(18.7796 0.000322181 0)
(18.7729 0.000221673 0)
(18.7673 0.000127953 0)
(18.7627 4.03332e-05 0)
(18.7591 -4.16126e-05 0)
(18.7564 -0.000118186 0)
(18.7545 -0.000189655 0)
(18.7534 -0.000256403 0)
(18.753 -0.000318796 0)
(18.7533 -0.000377081 0)
(18.7542 -0.000431524 0)
(18.7557 -0.000482367 0)
(18.7578 -0.000529768 0)
(18.7604 -0.000573931 0)
(18.7634 -0.000614882 0)
(18.7669 -0.000652643 0)
(18.7708 -0.000687142 0)
(18.7751 -0.000718221 0)
(18.7797 -0.000745632 0)
(18.7845 -0.00076904 0)
(18.7897 -0.000788194 0)
(18.795 -0.000802499 0)
(18.8006 -0.000811912 0)
(18.8063 -0.000815582 0)
(18.8122 -0.000813763 0)
(18.8181 -0.000805903 0)
(18.8241 -0.000792163 0)
(18.8302 -0.00077228 0)
(18.8362 -0.000746656 0)
(18.8422 -0.000715433 0)
(18.8482 -0.000679315 0)
(18.854 -0.000638502 0)
(18.8597 -0.000593811 0)
(18.8652 -0.00054573 0)
(18.8706 -0.000493223 0)
(18.8757 -0.000442653 0)
(18.8806 -0.00021219 0)
(20.0555 0.046039 0)
(20.1367 0.0267443 0)
(20.1836 0.0254815 0)
(20.2248 0.023741 0)
(20.2598 0.0224039 0)
(20.2863 0.0212858 0)
(20.3028 0.0202192 0)
(20.3068 0.019147 0)
(20.2955 0.0180268 0)
(20.2667 0.0168313 0)
(20.2202 0.0155621 0)
(20.1584 0.0142502 0)
(20.0856 0.0129428 0)
(20.0066 0.0116859 0)
(19.9257 0.0105116 0)
(19.846 0.00943649 0)
(19.7693 0.0084647 0)
(19.697 0.00759249 0)
(19.6294 0.00681222 0)
(19.5668 0.00611472 0)
(19.5091 0.00549069 0)
(19.4562 0.00493141 0)
(19.4076 0.00442896 0)
(19.3633 0.00397637 0)
(19.3228 0.00356754 0)
(19.2858 0.00319718 0)