/*--------------------------------*- C++ -*----------------------------------*\
  =========                 |
  \\      /  F ield         | OpenFOAM: The Open Source CFD Toolbox
   \\    /   O peration     | Website:  https://openfoam.org
    \\  /    A nd           | Version:  7
     \\/     M anipulation  |
\*---------------------------------------------------------------------------*/
FoamFile
{
    version     2.0;
    format      ascii;
    class       volScalarField;
    location    "6.5";
    object      p;
}
// * * * * * * * * * * * * * * * * * * * * * * * * * * * * * * * * * * * * * //

dimensions      [0 2 -2 0 0 0 0];

internalField   nonuniform List<scalar> 
900
(
-3.64715e-07
-0.000335753
-0.000874714
-0.00144397
-0.00194335
-0.00231163
-0.00251775
-0.00254727
-0.00239225
-0.00204679
-0.00150659
-0.000771015
0.000153375
0.00124891
0.00248336
0.00380802
0.00515785
0.00645451
0.00761246
0.00854779
0.00918892
0.00948764
0.00942862
0.00903531
0.00837159
0.00753687
0.00665228
0.00587569
0.00535065
0.0052089
0.000327802
-1.79753e-05
-0.000427724
-0.000843548
-0.00120476
-0.00146739
-0.00160691
-0.00160943
-0.00146563
-0.00116843
-0.00071292
-9.79768e-05
0.000671152
0.00157987
0.00260146
0.00369543
0.00480961
0.00587895
0.00683354
0.00760518
0.00813631
0.00838925
0.00835392
0.00805216
0.00753791
0.00689262
0.00621519
0.00560706
0.00519473
0.00506497
0.000884583
0.000376043
-4.71838e-05
-0.000419012
-0.000726535
-0.000943214
-0.00105473
-0.00105266
-0.000929598
-0.00067825
-0.000292209
0.00023221
0.000893323
0.0016811
0.00257444
0.0035399
0.00453036
0.00548779
0.00634784
0.00704663
0.00752946
0.00775998
0.00772768
0.00745206
0.00698201
0.00639044
0.00576478
0.00519542
0.0047713
0.00455824
0.00149705
0.000771134
0.00027331
-0.000109083
-0.000407518
-0.000612446
-0.000721322
-0.000733146
-0.000643595
-0.000445309
-0.000129522
0.000311501
0.000881355
0.00157601
0.00238053
0.00326678
0.00419203
0.0051007
0.00592862
0.00660989
0.00708609
0.00731617
0.00728486
0.00700745
0.0065293
0.0059196
0.00526198
0.00464367
0.00413466
0.00376561
0.00203339
0.00107384
0.000479605
6.20821e-05
-0.00025164
-0.000467576
-0.000594496
-0.00063871
-0.000598732
-0.000466554
-0.000230119
0.000123589
0.000604791
0.00121672
0.00195139
0.0027862
0.00368251
0.00458513
0.00542717
0.00613674
0.0066469
0.00690685
0.00689206
0.00661055
0.00610322
0.0054376
0.00469849
0.00397681
0.00333276
0.00276052
0.00238058
0.00119003
0.000491075
2.34385e-05
-0.000324064
-0.000571411
-0.000737489
-0.000834858
-0.000863956
-0.000815193
-0.000672146
-0.000415258
-2.62575e-05
0.000506812
0.00118423
0.00198987
0.00288946
0.00382744
0.00473245
0.00552323
0.00611958
0.00645528
0.00649063
0.00622151
0.0056817
0.00493756
0.00407934
0.00320914
0.00238528
0.00157172
0.0024412
0.00103366
0.000230126
-0.000296212
-0.000691867
-0.000989366
-0.00121633
-0.00139028
-0.0015124
-0.00157045
-0.00154244
-0.00140093
-0.00111795
-0.000670897
-4.92689e-05
0.000739065
0.00166732
0.00267915
0.0036983
0.00463175
0.00538128
0.00585851
0.00600079
0.00578434
0.00523049
0.00440287
0.00340031
0.00234378
0.0012983
0.000201918
0.00212954
0.000525872
-0.0003768
-0.000966405
-0.00142211
-0.00178794
-0.00209904
-0.00237663
-0.0026216
-0.00281798
-0.00293713
-0.00294225
-0.00279379
-0.00245607
-0.00190538
-0.00113855
-0.000166872
0.000950734
0.00213545
0.00328153
0.00426836
0.00497763
0.00531334
0.005221
0.00470022
0.00380696
0.00264997
0.0013766
6.70958e-05
-0.00136432
0.00136919
-0.000404839
-0.00139829
-0.00205408
-0.00258127
-0.00303464
-0.00345591
-0.00386906
-0.00427392
-0.00465008
-0.0049613
-0.00516002
-0.00519302
-0.00500843
-0.00456343
-0.00383276
-0.00283079
-0.0015898
-0.00019238
0.00124264
0.0025688
0.00362939
0.004282
0.00442568
0.00402339
0.00311325
0.00181187
0.000300042
-0.00131818
-0.0031521
9.37764e-05
-0.00182061
-0.00289483
-0.00361947
-0.00423036
-0.00479245
-0.00535342
-0.00593957
-0.00654935
-0.0071577
-0.00772028
-0.00817767
-0.00846073
-0.0084978
-0.00822326
-0.00758836
-0.00657877
-0.00521456
-0.00356943
-0.00176942
1.25051e-05
0.0015735
0.00270954
0.00325225
0.00310527
0.00227053
0.000864543
-0.000893317
-0.0028661
-0.0051875
-0.00175057
-0.00377137
-0.00491523
-0.00571165
-0.00641947
-0.00711338
-0.00784678
-0.00864829
-0.00951539
-0.0104188
-0.0113061
-0.0121055
-0.01273
-0.0130846
-0.013075
-0.0126204
-0.0116701
-0.0102168
-0.00831412
-0.00608599
-0.00372773
-0.00149284
0.000337725
0.00150242
0.00181364
0.00120701
-0.000219311
-0.00220701
-0.00457717
-0.00748881
-0.00420181
-0.00629181
-0.00749324
-0.00836426
-0.00918243
-0.0100318
-0.0109716
-0.0120335
-0.0132149
-0.0144835
-0.0157799
-0.0170199
-0.0180979
-0.0188922
-0.0192743
-0.0191224
-0.0183392
-0.0168744
-0.0147448
-0.0120565
-0.00901569
-0.00592423
-0.00315147
-0.00107974
-2.90379e-05
-0.000175495
-0.0014737
-0.00363636
-0.0064358
-0.0100566
-0.00727859
-0.00939851
-0.0106444
-0.0115916
-0.0125317
-0.0135577
-0.0147355
-0.0161008
-0.0176527
-0.0193579
-0.0211517
-0.022939
-0.0245951
-0.0259702
-0.0268974
-0.0272056
-0.0267395
-0.025392
-0.0231206
-0.0199921
-0.0162032
-0.0120905
-0.0081135
-0.00479881
-0.00264572
-0.00200427
-0.00293898
-0.00516269
-0.00840006
-0.0128611
-0.0109776
-0.0130882
-0.0143641
-0.0153859
-0.016454
-0.017671
-0.0191101
-0.0208129
-0.0227828
-0.0249878
-0.0273607
-0.0297974
-0.032156
-0.0342583
-0.0358964
-0.0368457
-0.0368861
-0.0358286
-0.0335614
-0.0300829
-0.0255498
-0.0203065
-0.0148876
-0.00997404
-0.00628815
-0.00442939
-0.00465732
-0.0067445
-0.0103878
-0.0158255
-0.0152725
-0.0173372
-0.0186271
-0.0197159
-0.0209083
-0.0223172
-0.0240251
-0.026082
-0.0284983
-0.0312465
-0.0342599
-0.0374285
-0.0405956
-0.0435563
-0.0460627
-0.0478343
-0.0485792
-0.0480232
-0.0459624
-0.0423006
-0.0371196
-0.0307305
-0.0237074
-0.016871
-0.0111933
-0.00760054
-0.00665926
-0.00830329
-0.0122576
-0.0188031
-0.0201148
-0.0221043
-0.0233899
-0.0245284
-0.0258258
-0.0274067
-0.0293664
-0.0317665
-0.0346276
-0.0379302
-0.0416112
-0.0455578
-0.0496017
-0.0535151
-0.0570126
-0.0597606
-0.0613956
-0.061553
-0.0599322
-0.0563168
-0.0506796
-0.04325
-0.0345851
-0.025599
-0.0175062
-0.0116181
-0.00893493
-0.00970095
-0.0137826
-0.0215466
-0.0254382
-0.027335
-0.0285956
-0.0297526
-0.0311126
-0.0328167
-0.0349775
-0.037673
-0.0409378
-0.0447634
-0.049093
-0.0538142
-0.0587499
-0.0636533
-0.0682065
-0.0720283
-0.0746906
-0.0757458
-0.0747844
-0.0714702
-0.0656391
-0.0573916
-0.0471989
-0.0359919
-0.0251733
-0.0164546
-0.0113837
-0.0107047
-0.0146152
-0.0236685
-0.0311656
-0.0329713
-0.0341823
-0.0353067
-0.0366564
-0.0383966
-0.0406659
-0.0435646
-0.0471458
-0.0514147
-0.0563228
-0.0617592
-0.0675406
-0.0734043
-0.079005
-0.0839213
-0.0876714
-0.0897401
-0.0895986
-0.0868125
-0.0810668
-0.0722981
-0.0608274
-0.0475069
-0.0338277
-0.0218518
-0.0137401
-0.0109361
-0.0142419
-0.0245908
-0.03722
-0.0389637
-0.0400947
-0.0411074
-0.0423331
-0.0439756
-0.0462119
-0.0491736
-0.0529371
-0.0575228
-0.0628908
-0.0689312
-0.0754549
-0.0821844
-0.0887516
-0.0947014
-0.0995061
-0.102589
-0.10335
-0.101239
-0.0958036
-0.0868067
-0.0743741
-0.0591901
-0.0427057
-0.0272164
-0.01548
-0.00980172
-0.0119248
-0.023481
-0.0435415
-0.0452898
-0.0462988
-0.0470802
-0.0480151
-0.0493702
-0.0513797
-0.0542176
-0.0579879
-0.0627267
-0.0684
-0.0748962
-0.0820171
-0.08947
-0.0968647
-0.103717
-0.109462
-0.113473
-0.115091
-0.113675
-0.108651
-0.0996204
-0.0864989
-0.069742
-0.0506372
-0.0315503
-0.0157254
-0.00640706
-0.00662768
-0.019167
-0.0501121
-0.0519804
-0.0528
-0.0531688
-0.0535762
-0.0543905
-0.0559274
-0.0584158
-0.0619899
-0.0666982
-0.0725068
-0.0792957
-0.0868519
-0.0948631
-0.102915
-0.110495
-0.117004
-0.121773
-0.124096
-0.123251
-0.118575
-0.109526
-0.0958259
-0.0776831
-0.056136
-0.0334524
-0.0131775
0.000537746
0.00307472
-0.0100161
-0.0570005
-0.0591582
-0.0596648
-0.0593424
-0.0588941
-0.0588436
-0.0596167
-0.0615062
-0.0646738
-0.0691717
-0.0749553
-0.0818856
-0.0897252
-0.0981347
-0.106671
-0.11479
-0.121856
-0.127159
-0.129943
-0.129427
-0.124861
-0.115588
-0.101166
-0.0815776
-0.0575797
-0.0312121
-0.00610874
0.0128006
0.0191098
0.00624935
-0.0644495
-0.0671009
-0.0670483
-0.0655998
-0.0638466
-0.0625348
-0.0622219
-0.0632627
-0.0658327
-0.0699704
-0.0756039
-0.0825605
-0.0905654
-0.0992429
-0.108112
-0.116589
-0.123999
-0.129586
-0.132539
-0.132013
-0.127173
-0.117262
-0.10169
-0.0802557
-0.0534401
-0.0229948
0.00755331
0.0326685
0.0440561
0.0328563
-0.0730627
-0.0763497
-0.0752289
-0.0719693
-0.0683082
-0.0652718
-0.0635441
-0.0635159
-0.0653451
-0.0690286
-0.074441
-0.0813576
-0.089454
-0.098306
-0.107387
-0.116067
-0.123623
-0.129245
-0.132053
-0.131128
-0.125535
-0.114404
-0.0970169
-0.0729974
-0.0425467
-0.00714278
0.0299948
0.0629053
0.0813595
0.0744681
-0.0842283
-0.087894
-0.0846421
-0.0784991
-0.0721439
-0.0668715
-0.0634277
-0.0621729
-0.0631924
-0.0663967
-0.071581
-0.0784462
-0.086604
-0.0955726
-0.104772
-0.113522
-0.121042
-0.126458
-0.128815
-0.127101
-0.120248
-0.107262
-0.0872543
-0.0596418
-0.0244195
0.0173709
0.0630144
0.106508
0.135509
0.137688
-0.101104
-0.103505
-0.0958817
-0.0852121
-0.0751791
-0.067144
-0.0617486
-0.0592033
-0.0594349
-0.0622161
-0.0672269
-0.0740754
-0.0822976
-0.0913482
-0.100591
-0.109292
-0.116613
-0.121612
-0.123253
-0.120421
-0.111874
-0.0964734
-0.073102
-0.0408904
0.000520864
0.0505761
0.107267
0.16591
0.211575
0.230993
-0.130821
-0.126243
-0.109724
-0.0920838
-0.0771638
-0.0658493
-0.05837
-0.0545933
-0.0541726
-0.056674
-0.0616284
-0.0685356
-0.0768508
-0.0859661
-0.095193
-0.103748
-0.11074
-0.115167
-0.115915
-0.111759
-0.101325
-0.0832288
-0.0560703
-0.0185597
0.0302662
0.0907402
0.162245
0.241181
0.313468
0.36604
-0.189443
-0.159599
-0.126621
-0.0986466
-0.0773827
-0.0623963
-0.0529513
-0.0482424
-0.0474867
-0.0499771
-0.0550737
-0.0621681
-0.0706444
-0.0798456
-0.0890456
-0.0974265
-0.104062
-0.107902
-0.107768
-0.102338
-0.0902268
-0.0697157
-0.0390722
0.00356062
0.0601315
0.132573
0.222703
0.329818
0.443349
0.569638
-0.320719
-0.199466
-0.138232
-0.0972996
-0.0699324
-0.0525195
-0.0425579
-0.0381636
-0.0380115
-0.0411621
-0.0468758
-0.0544978
-0.0633914
-0.0728922
-0.0822721
-0.0907134
-0.0972886
-0.100941
-0.100471
-0.094412
-0.0814923
-0.059798
-0.0273023
0.0184146
0.0804892
0.163292
0.273286
0.41897
0.607326
0.896857
-0.648024
-0.235899
-0.10679
-0.0623269
-0.0380921
-0.0245444
-0.0187612
-0.0181064
-0.0209431
-0.026408
-0.0339246
-0.0429753
-0.0530285
-0.0635009
-0.0737284
-0.0829431
-0.0902568
-0.0946511
-0.0949893
-0.0900851
-0.0780917
-0.0574339
-0.0260755
0.0186117
0.0803447
0.165356
0.286083
0.470841
0.776998
1.37086
)
;

boundaryField
{
    movingWall
    {
        type            zeroGradient;
    }
    fixedWalls
    {
        type            zeroGradient;
    }
    frontAndBack
    {
        type            empty;
    }
}


// ************************************************************************* //
