/*--------------------------------*- C++ -*----------------------------------*\
  =========                 |
  \\      /  F ield         | OpenFOAM: The Open Source CFD Toolbox
   \\    /   O peration     | Website:  https://openfoam.org
    \\  /    A nd           | Version:  7
     \\/     M anipulation  |
\*---------------------------------------------------------------------------*/
FoamFile
{
    version     2.0;
    format      ascii;
    class       surfaceScalarField;
    location    "6.5";
    object      phi;
}
// * * * * * * * * * * * * * * * * * * * * * * * * * * * * * * * * * * * * * //

dimensions      [0 3 -1 0 0 0 0];

internalField   nonuniform List<scalar> 
1740
(
7.67334e-07
-7.66964e-07
3.94995e-07
3.72312e-07
-1.50698e-06
1.90196e-06
-4.77193e-06
3.26497e-06
-9.06086e-06
4.28893e-06
-1.40359e-05
4.975e-06
-1.94131e-05
5.37724e-06
-2.49621e-05
5.54903e-06
-3.04852e-05
5.52311e-06
-3.57945e-05
5.30926e-06
-4.06944e-05
4.89989e-06
-4.49733e-05
4.27893e-06
-4.84052e-05
3.43186e-06
-5.07607e-05
2.35555e-06
-5.18276e-05
1.06689e-06
-5.14362e-05
-3.91438e-07
-4.94884e-05
-1.94774e-06
-4.59867e-05
-3.50166e-06
-4.10554e-05
-4.93139e-06
-3.49499e-05
-6.10547e-06
-2.80514e-05
-6.8985e-06
-2.08417e-05
-7.20971e-06
-1.38609e-05
-6.98077e-06
-7.65129e-06
-6.20962e-06
-2.69337e-06
-4.95792e-06
6.6281e-07
-3.35617e-06
2.27162e-06
-1.6088e-06
2.24863e-06
2.29957e-08
1.08896e-06
1.15968e-06
1.08897e-06
-3.55575e-07
-4.11409e-07
-3.49101e-06
3.50771e-06
-9.933e-06
8.34394e-06
-1.93009e-05
1.26329e-05
-3.09638e-05
1.59519e-05
-4.4236e-05
1.82471e-05
-5.84706e-05
1.96119e-05
-7.30838e-05
2.01622e-05
-8.75368e-05
1.99761e-05
-0.000101307
1.90791e-05
-0.000113862
1.74555e-05
-0.000124655
1.50722e-05
-0.000133131
1.19074e-05
-0.000138755
7.97967e-06
-0.00014106
3.37161e-06
-0.000139704
-1.7473e-06
-0.000134515
-7.13657e-06
-0.000125563
-1.24534e-05
-0.000113187
-1.73073e-05
-9.80105e-05
-2.12825e-05
-8.0921e-05
-2.39879e-05
-6.30175e-05
-2.51132e-05
-4.5516e-05
-2.44823e-05
-2.9629e-05
-2.20966e-05
-1.64253e-05
-1.81616e-05
-6.68698e-06
-1.30945e-05
-7.7244e-07
-7.52334e-06
1.5518e-06
-2.30124e-06
1.21186e-06
1.49962e-06
2.30083e-06
-2.05273e-06
1.64131e-06
-8.90027e-06
1.03553e-05
-2.0375e-05
1.98187e-05
-3.58216e-05
2.80795e-05
-5.4362e-05
3.44924e-05
-7.50672e-05
3.89523e-05
-9.70407e-05
4.15854e-05
-0.000119441
4.2562e-05
-0.000141464
4.19996e-05
-0.000162321
3.99357e-05
-0.000181212
3.63467e-05
-0.000197329
3.11888e-05
-0.000209871
2.44501e-05
-0.000218092
1.62007e-05
-0.000221357
6.63668e-06
-0.000219211
-3.89319e-06
-0.000211458
-1.48903e-05
-0.000198221
-2.56901e-05
-0.000179992
-3.5536e-05
-0.000157644
-4.36308e-05
-0.000132405
-4.92269e-05
-0.00010579
-5.17284e-05
-7.94801e-05
-5.07919e-05
-5.51656e-05
-4.64111e-05
-3.43566e-05
-3.89706e-05
-1.8188e-05
-2.92632e-05
-7.23242e-06
-1.84789e-05
-1.35609e-06
-8.17756e-06
4.33884e-07
-2.90348e-07
2.73472e-06
-3.861e-06
5.5023e-06
-1.46366e-05
2.11309e-05
-3.13391e-05
3.65212e-05
-5.28457e-05
4.95861e-05
-7.79827e-05
5.96294e-05
-0.000105601
6.65707e-05
-0.000134612
7.0596e-05
-0.000163983
7.19335e-05
-0.000192718
7.07343e-05
-0.000219825
6.70425e-05
-0.000244302
6.08239e-05
-0.000265142
5.20293e-05
-0.000281361
4.06689e-05
-0.000292047
2.68865e-05
-0.000296431
1.10211e-05
-0.000293966
-6.35849e-06
-0.000284407
-2.44495e-05
-0.000267887
-4.22102e-05
-0.000244969
-5.84535e-05
-0.000216671
-7.19288e-05
-0.000184443
-8.14546e-05
-0.0001501
-8.60723e-05
-0.000115687
-8.52045e-05
-8.33047e-05
-7.87934e-05
-5.48799e-05
-6.73953e-05
-3.19298e-05
-5.22133e-05
-1.53382e-05
-3.50705e-05
-5.18187e-06
-1.83339e-05
-6.50987e-07
-4.82122e-06
2.08373e-06
-5.60436e-06
1.11067e-05
-2.02754e-05
3.5802e-05
-4.21622e-05
5.8408e-05
-6.9599e-05
7.70229e-05
-0.000101075
9.11056e-05
-0.000135223
0.000100718
-0.000170791
0.000106164
-0.000206606
0.000107749
-0.000241534
0.000105662
-0.000274438
9.99468e-05
-0.00030417
9.05563e-05
-0.000329575
7.74334e-05
-0.000349519
6.06132e-05
-0.000362952
4.03194e-05
-0.000368973
1.70428e-05
-0.000366921
-8.41117e-06
-0.00035645
-3.49204e-05
-0.000337628
-6.10319e-05
-0.000310998
-8.50839e-05
-0.000277618
-0.000105308
-0.000239068
-0.000120005
-0.000197386
-0.000127754
-0.000154948
-0.000127642
-0.000114269
-0.000119472
-7.77475e-05
-0.000103917
-4.73751e-05
-8.25858e-05
-2.44672e-05
-5.79784e-05
-9.45598e-06
-3.3345e-05
-1.79746e-06
-1.24797e-05
2.86269e-07
-7.22978e-06
1.83364e-05
-2.56193e-05
5.41915e-05
-5.24849e-05
8.52736e-05
-8.56066e-05
0.000110145
-0.000123125
0.000128624
-0.000163459
0.000141051
-0.000205217
0.000147922
-0.000247123
0.000149656
-0.000287949
0.000146488
-0.000326466
0.000138464
-0.000361423
0.000125514
-0.000391555
0.000107565
-0.000415607
8.46652e-05
-0.000432393
5.71055e-05
-0.000440865
2.55146e-05
-0.0004402
-9.07605e-06
-0.000429883
-4.52368e-05
-0.000409824
-8.10909e-05
-0.000380437
-0.000114471
-0.000342716
-0.000143029
-0.000298275
-0.000164446
-0.00024932
-0.000176709
-0.000198547
-0.000178416
-0.000148934
-0.000169085
-0.000103453
-0.000149398
-6.47155e-05
-0.000121324
-3.46251e-05
-8.80688e-05
-1.4108e-05
-5.38621e-05
-2.9845e-06
-2.36033e-05
-2.69824e-06
-8.71874e-06
2.70552e-05
-3.05605e-05
7.60332e-05
-6.20796e-05
0.000116793
-0.000100532
0.000148597
-0.000143727
0.000171818
-0.000189881
0.000187206
-0.000237492
0.000195532
-0.000285211
0.000197376
-0.000331759
0.000193035
-0.000375854
0.000182559
-0.000416186
0.000165846
-0.000451409
0.000142787
-0.000480165
0.000113421
-0.000501132
7.80721e-05
-0.000513086
3.74683e-05
-0.000514997
-7.16457e-06
-0.000506092
-5.41416e-05
-0.000486024
-0.000101159
-0.00045496
-0.000145536
-0.000413708
-0.000184281
-0.000363809
-0.000214345
-0.000307567
-0.000232952
-0.00024798
-0.000238003
-0.00018855
-0.000228514
-0.000132953
-0.000204995
-8.46041e-05
-0.000169673
-4.61963e-05
-0.000126477
-1.93217e-05
-8.07367e-05
-4.26651e-06
-3.86584e-05
-6.96475e-06
-1.00545e-05
3.71097e-05
-3.5013e-05
0.000100992
-7.07591e-05
0.000152539
-0.000114082
0.00019192
-0.000162491
0.000220228
-0.000214036
0.00023875
-0.000267122
0.000248619
-0.000320367
0.00025062
-0.000372473
0.000245141
-0.000422146
0.000232233
-0.000468053
0.000211752
-0.000508797
0.000183532
-0.000542937
0.000147561
-0.000569012
0.000104148
-0.000585599
5.40547e-05
-0.000591429
-1.3342e-06
-0.000585371
-6.01995e-05
-0.000566737
-0.000119794
-0.000535315
-0.000176958
-0.000491588
-0.000228008
-0.000436886
-0.000269047
-0.0003735
-0.000296337
-0.000304682
-0.000306821
-0.00023449
-0.000298706
-0.000167436
-0.000272049
-0.000107955
-0.000229154
-5.97847e-05
-0.000174647
-2.54135e-05
-0.000115108
-5.74308e-06
-5.83288e-05
-1.27078e-05
-1.12121e-05
4.83218e-05
-3.88829e-05
0.000128663
-7.83305e-05
0.000191986
-0.00012595
0.00023954
-0.000179003
0.00027328
-0.000235398
0.000295145
-0.000293486
0.000306707
-0.000351875
0.00030901
-0.000409286
0.000302552
-0.000464452
0.000287398
-0.000516049
0.000263349
-0.000562667
0.00023015
-0.000602802
0.000187696
-0.000634871
0.000136217
-0.00065726
7.6443e-05
-0.000668343
9.74925e-06
-0.000666722
-6.18208e-05
-0.000651186
-0.00013533
-0.000621038
-0.000207105
-0.00057628
-0.000272767
-0.000517857
-0.00032747
-0.000447877
-0.000366317
-0.000369725
-0.000384973
-0.000287986
-0.000380445
-0.00020811
-0.000351926
-0.000135781
-0.000301483
-7.61001e-05
-0.000234328
-3.27664e-05
-0.000158442
-7.53402e-06
-8.35612e-05
-2.02419e-05
-1.21591e-05
6.04809e-05
-4.20631e-05
0.000158567
-8.45851e-05
0.000234508
-0.00013581
0.000290765
-0.0001928
0.00033027
-0.000253365
0.00035571
-0.000315826
0.000369168
-0.000378811
0.000371995
-0.000441091
0.000364833
-0.000501458
0.000347765
-0.000558639
0.00032053
-0.000611247
0.000282758
-0.000657752
0.000234202
-0.00069648
0.000174945
-0.000725629
0.000105592
-0.000743311
2.74306e-05
-0.000747693
-5.74389e-05
-0.000737076
-0.000145946
-0.000710156
-0.000234025
-0.000666289
-0.000316633
-0.000605827
-0.000387932
-0.000530456
-0.000441688
-0.00044347
-0.000471959
-0.000349847
-0.000474067
-0.000255994
-0.000445779
-0.000169061
-0.000388416
-9.58797e-05
-0.000307509
-4.1793e-05
-0.000212528
-9.76874e-06
-0.000115585
-3.00106e-05
-1.28593e-05
7.33401e-05
-4.44413e-05
0.000190149
-8.9308e-05
0.000279375
-0.00014332
0.000344776
-0.000203397
0.000390348
-0.00026728
0.000419593
-0.000333286
0.000435174
-0.000400085
0.000438794
-0.000466526
0.000431273
-0.00053149
0.000412729
-0.000593795
0.000382835
-0.000652123
0.000341086
-0.00070497
0.000287049
-0.000750624
0.000220599
-0.000787155
0.000142123
-0.000812445
5.27211e-05
-0.000824274
-4.56096e-05
-0.000820434
-0.000149787
-0.00079895
-0.000255509
-0.000758395
-0.000357188
-0.000698294
-0.000448034
-0.000619605
-0.000520377
-0.000525193
-0.000566371
-0.000420141
-0.000579119
-0.000311692
-0.000554228
-0.000208595
-0.000491513
-0.000119819
-0.000396284
-5.29108e-05
-0.000279437
-1.25826e-05
-0.000155914
-4.25932e-05
-1.32793e-05
8.66194e-05
-4.59155e-05
0.000222785
-9.23027e-05
0.000325762
-0.000148165
0.000400638
-0.000210327
0.00045251
-0.000276489
0.000485755
-0.000344979
0.000503663
-0.000414527
0.000508343
-0.000484078
0.000500824
-0.000552634
0.000481285
-0.000619143
0.000449344
-0.000682404
0.000404347
-0.000741007
0.000345652
-0.000793278
0.00027287
-0.000837253
0.000186098
-0.000870675
8.61425e-05
-0.000891029
-2.52557e-05
-0.000895652
-0.000145163
-0.000881904
-0.000269257
-0.000847479
-0.000391613
-0.000790864
-0.000504648
-0.000711943
-0.000599299
-0.000612696
-0.000665618
-0.000497841
-0.000693974
-0.000375116
-0.000676953
-0.000254841
-0.000611788
-0.000148498
-0.000502627
-6.65202e-05
-0.000361415
-1.6115e-05
-0.000206319
-5.87082e-05
-1.33952e-05
0.000100015
-4.64133e-05
0.000255803
-9.3425e-05
0.000372774
-0.000150097
0.000457311
-0.000213203
0.000515616
-0.000280417
0.000552969
-0.000350087
0.000573333
-0.000421012
0.000579268
-0.000492246
0.000572058
-0.000562937
0.000551976
-0.000632198
0.000518604
-0.000699003
0.000471152
-0.000762107
0.000408756
-0.000819976
0.000330739
-0.000870731
0.000236853
-0.000912114
0.000127526
-0.000941464
4.09351e-06
-0.000955808
-0.000130819
-0.000951917
-0.000273148
-0.000926609
-0.000416921
-0.000877187
-0.00055407
-0.000802123
-0.000674362
-0.000701986
-0.000765755
-0.000580466
-0.000815494
-0.000445182
-0.000812238
-0.000307713
-0.000749257
-0.00018228
-0.00062806
-8.29755e-05
-0.000460719
-2.05076e-05
-0.000268787
-7.92158e-05
-1.32012e-05
0.000113216
-4.59153e-05
0.000288517
-9.26225e-05
0.000419481
-0.000149
0.000513688
-0.000211794
0.00057841
-0.000278665
0.00061984
-0.000347982
0.00064265
-0.000418614
0.0006499
-0.000489733
0.000643177
-0.000560648
0.000622892
-0.000630674
0.000588629
-0.000699012
0.00053949
-0.000764662
0.000474406
-0.000826334
0.000392411
-0.000882377
0.000292896
-0.000930698
0.000175847
-0.000968719
4.21143e-05
-0.000993313
-0.000106225
-0.00100089
-0.000265575
-0.000987489
-0.000430317
-0.000949214
-0.000592346
-0.00088288
-0.000740696
-0.000787118
-0.000861517
-0.000663795
-0.000938817
-0.000519491
-0.000956542
-0.000366331
-0.000902417
-0.000221183
-0.000773208
-0.000102543
-0.000579359
-2.58994e-05
-0.00034543
-0.000105115
-1.27168e-05
0.000125933
-4.44794e-05
0.00032028
-8.9979e-05
0.000464981
-0.000144944
0.000568652
-0.000206108
0.000639575
-0.000271118
0.00068485
-0.000338362
0.000709894
-0.000406776
0.000718314
-0.000475656
0.000712057
-0.000544491
0.000691727
-0.000612822
0.000656961
-0.000680129
0.000606797
-0.000745728
0.000540005
-0.000808681
0.000455365
-0.000867701
0.000351916
-0.000921052
0.000229198
-0.000966438
8.75e-05
-0.00100087
-7.1794e-05
-0.00102065
-0.000245791
-0.00102132
-0.000429651
-0.000997893
-0.000615771
-0.000945476
-0.000793113
-0.00086036
-0.000946633
-0.000741773
-0.0010574
-0.000594085
-0.00110423
-0.000428769
-0.00106773
-0.000264722
-0.000937255
-0.000125344
-0.000718737
-3.24188e-05
-0.000438355
-0.000137534
-1.1996e-05
0.000137929
-4.22661e-05
0.00035055
-8.57581e-05
0.000508473
-0.000138255
0.000621149
-0.000196474
0.000697794
-0.000258043
0.000746419
-0.000321369
0.00077322
-0.00038546
0.000782405
-0.000449746
0.000776343
-0.000513909
0.00075589
-0.000577746
0.000720798
-0.000641054
0.000670105
-0.000703528
0.000602479
-0.000764668
0.000516504
-0.000823674
0.000410922
-0.000879325
0.00028485
-0.000929837
0.000138011
-0.00097261
-2.90204e-05
-0.00100421
-0.000214187
-0.00102001
-0.00041386
-0.00101428
-0.000621496
-0.000980602
-0.000826793
-0.000912776
-0.00101446
-0.000806733
-0.00116345
-0.000663368
-0.0012476
-0.000491844
-0.00123926
-0.000311731
-0.00111737
-0.000151284
-0.000879184
-4.01739e-05
-0.000549465
-0.000177708
-1.11354e-05
0.000149064
-3.9565e-05
0.000378979
-8.04483e-05
0.000549356
-0.000129571
0.000670272
-0.000183609
0.000751832
-0.000240168
0.000802978
-0.000297686
0.000830738
-0.000355263
0.000839983
-0.000412482
0.000833561
-0.000469243
0.00081265
-0.000525625
0.00077718
-0.000581776
0.000726256
-0.000637813
0.000658516
-0.000693732
0.000572423
-0.000749302
0.000466492
-0.00080394
0.000339488
-0.000856535
0.000190607
-0.000905171
1.96156e-05
-0.00094694
-0.000172418
-0.0009775
-0.0003833
-0.000990908
-0.000608088
-0.000979641
-0.00083806
-0.000935243
-0.00105886
-0.000850038
-0.00124865
-0.000720333
-0.0013773
-0.000551035
-0.00140856
-0.000360216
-0.00130819
-0.000179982
-0.00105942
-4.92437e-05
-0.000680204
-0.000226952
-1.02857e-05
0.00015935
-3.68265e-05
0.00040552
-7.48107e-05
0.00058734
-0.000119899
0.00071536
-0.000168675
0.000800608
-0.000218734
0.000853037
-0.000268583
0.000880586
-0.000317459
0.000888859
-0.000365142
0.000881245
-0.000411788
0.000859296
-0.000457789
0.000823181
-0.000503668
0.000772136
-0.000549989
0.000704837
-0.000597269
0.000619703
-0.000645883
0.000515106
-0.000695938
0.000389543
-0.000747084
0.000241752
-0.00079832
7.0852e-05
-0.000847437
-0.000123301
-0.000890883
-0.000339854
-0.000923053
-0.000575918
-0.000936032
-0.000825081
-0.000919723
-0.00107517
-0.000863065
-0.00130531
-0.000757117
-0.00148325
-0.00060062
-0.00156505
-0.000407268
-0.00150154
-0.000210713
-0.00125597
-5.96809e-05
-0.000831236
-0.000286632
-9.67038e-06
0.00016902
-3.47064e-05
0.000430556
-6.99368e-05
0.000622571
-0.000110664
0.000756087
-0.000153314
0.000843258
-0.000195508
0.000895231
-0.000235902
0.000920981
-0.000273962
0.000926918
-0.00030974
0.000917023
-0.000343704
0.000893259
-0.000376597
0.000856074
-0.000409339
0.000804878
-0.000442944
0.000738442
-0.000478443
0.000655202
-0.000516802
0.000553465
-0.000558805
0.000431546
-0.000604893
0.000287839
-0.000654929
0.000120889
-0.000707762
-7.04683e-05
-0.000760853
-0.000286763
-0.000809529
-0.000527242
-0.000846315
-0.000788295
-0.00086046
-0.00106102
-0.000838336
-0.00132743
-0.000765818
-0.00155577
-0.000634044
-0.00169683
-0.000449084
-0.0016865
-0.000242375
-0.00146268
-7.1537e-05
-0.00100207
-0.000358169
-9.62174e-06
0.000178642
-3.41413e-05
0.000455076
-6.733e-05
0.000655759
-0.000103769
0.000792526
-0.000139659
0.000879149
-0.000172742
0.000928314
-0.000201974
0.000950212
-0.00022719
0.000952134
-0.000248836
0.000938669
-0.00026777
0.000912193
-0.000285131
0.000873435
-0.000302248
0.000821996
-0.000320572
0.000756766
-0.00034161
0.000676239
-0.000366858
0.000578713
-0.000397708
0.000462396
-0.000435312
0.000325443
-0.000480376
0.000165953
-0.000532816
-1.80282e-05
-0.000591323
-0.000228256
-0.000652605
-0.00046596
-0.000710451
-0.000730449
-0.000754659
-0.00101681
-0.00077041
-0.00131168
-0.000739329
-0.00158685
-0.000644416
-0.00179174
-0.000481088
-0.00184983
-0.000273479
-0.00167029
-8.49218e-05
-0.00119063
-0.000443091
-1.06534e-05
0.000189295
-3.64782e-05
0.000480901
-6.90242e-05
0.000688306
-0.000101648
0.00082515
-0.000130308
0.000907809
-0.000153063
0.000951069
-0.000169416
0.000966566
-0.000179794
0.000962512
-0.000185191
0.000944066
-0.000186954
0.000913956
-0.000186665
0.000873147
-0.000186067
0.000821397
-0.00018701
0.000757709
-0.000191414
0.000680643
-0.000201214
0.000588514
-0.000218298
0.00047948
-0.000244402
0.000351546
-0.000280955
0.000202507
-0.000328867
2.98838e-05
-0.000388065
-0.000169058
-0.000456923
-0.000397102
-0.000531153
-0.000656219
-0.000602318
-0.000945648
-0.000656154
-0.00125785
-0.000671846
-0.00157115
-0.00062494
-0.00183865
-0.000498042
-0.00197672
-0.000302114
-0.00186622
-0.000100095
-0.00139265
-0.000543186
-1.36025e-05
0.000202898
-4.3691e-05
0.000510989
-7.77389e-05
0.000722353
-0.000107282
0.000854693
-0.000128173
0.0009287
-0.000139174
0.00096207
-0.000140722
0.000968114
-0.00013413
0.00095592
-0.000121134
0.000931069
-0.000103678
0.000896501
-8.3823e-05
0.000853292
-6.37077e-05
0.000801282
-4.55317e-05
0.000739533
-3.15414e-05
0.000666653
-2.4e-05
0.000580972
-2.51461e-05
0.000480626
-3.71469e-05
0.000363547
-6.20181e-05
0.000227378
-0.000101471
6.93366e-05
-0.00015663
-0.000113899
-0.000227549
-0.000326184
-0.000312262
-0.000571506
-0.000405094
-0.000852816
-0.000494176
-0.00116876
-0.000558746
-0.00150658
-0.000568963
-0.00182843
-0.000493974
-0.00205171
-0.000325757
-0.00203444
-0.00011754
-0.00160087
-0.000660726
-1.98964e-05
0.000222794
-5.87032e-05
0.000549796
-9.69965e-05
0.000760647
-0.000124005
0.000881701
-0.000135993
0.000940688
-0.00013312
0.000959197
-0.000117317
0.000952311
-9.11528e-05
0.000929756
-5.73174e-05
0.000897234
-1.84436e-05
0.000857627
2.29278e-05
0.00081192
6.43122e-05
0.000759897
0.000103239
0.000700606
0.000137242
0.000632651
0.000163843
0.000554371
0.000180561
0.000463908
0.000184927
0.000359181
0.000174511
0.000237794
0.000146971
9.68762e-05
0.000100174
-6.71012e-05
3.25105e-05
-0.00025852
-5.64217e-05
-0.000482573
-0.000164355
-0.000744883
-0.00028342
-0.0010497
-0.0003957
-0.0013943
-0.000469416
-0.00175471
-0.000461649
-0.00205948
-0.000340729
-0.00215536
-0.000137877
-0.00180372
-0.000798603
-3.20241e-05
0.000254818
-8.57398e-05
0.000603512
-0.000130892
0.000805798
-0.000154599
0.000905408
-0.000154846
0.000940935
-0.000134345
0.000938696
-9.72798e-05
0.000915245
-4.78911e-05
0.000880367
9.99558e-06
0.000839347
7.30325e-05
0.00079459
0.000138228
0.000746724
0.000202832
0.000695293
0.000264225
0.000639213
0.000319838
0.000577038
0.000367105
0.000507104
0.000403431
0.000427582
0.000426167
0.000336445
0.000432584
0.000231376
0.000419844
0.000109616
0.000384985
-3.22422e-05
0.000325099
-0.000198634
0.00023756
-0.000395035
0.000121227
-0.000628549
-2.09691e-05
-0.000907503
-0.000177016
-0.00123826
-0.000317491
-0.00161424
-0.000391299
-0.00198567
-0.000340903
-0.00220575
-0.000161248
-0.00198338
-0.000959851
-5.42684e-05
0.000309087
-0.000130283
0.000679527
-0.000182481
0.000857996
-0.000198214
0.000921141
-0.000179952
0.000922673
-0.000134733
0.000893477
-6.99008e-05
0.000850413
8.26598e-06
0.0008022
9.47516e-05
0.000752862
0.000185557
0.000703785
0.000277401
0.000654881
0.000367436
0.000605258
0.000453052
0.000553597
0.000531731
0.000498358
0.000600956
0.00043788
0.000658135
0.000370403
0.000700546
0.000294034
0.000725265
0.000206658
0.000729078
0.000105803
0.000708329
-1.1494e-05
0.000659158
-0.000149463
0.000577106
-0.000312983
0.000457942
-0.000509385
0.00029939
-0.000748951
0.000106183
-0.00104505
-0.000100153
-0.0014079
-0.000268149
-0.00181768
-0.000314993
-0.00215891
-0.000185488
-0.00211288
-0.00114534
-9.3431e-05
0.000402518
-0.000196882
0.000782977
-0.000247626
0.000908739
-0.000241228
0.000914743
-0.000189743
0.000871189
-0.000106836
0.00081057
-3.7546e-06
0.000747332
0.000111197
0.000687249
0.0002321
0.000631959
0.000354705
0.000581179
0.000475807
0.00053378
0.00059279
0.000488274
0.000703331
0.000443056
0.00080519
0.000396499
0.000896082
0.000346988
0.000973574
0.000292911
0.001035
0.000232606
0.00107738
0.000164283
0.00109726
8.59182e-05
0.00109043
-4.66199e-06
0.00105249
-0.000111525
0.000977582
-0.000238073
0.000859171
-0.000390974
0.00069054
-0.000580321
0.000468037
-0.000822547
0.000201178
-0.00114104
-6.65588e-05
-0.00154994
-0.000241464
-0.001984
-0.00020297
-0.00215137
-0.00134831
-0.000157647
0.000560165
-0.000277594
0.000902924
-0.000294775
0.00092592
-0.000232713
0.000852682
-0.000120465
0.000758941
2.02706e-05
0.000669834
0.000175125
0.000592478
0.000335083
0.000527291
0.00049462
0.000472421
0.000650288
0.000425511
0.000799771
0.000384297
0.000941297
0.000346748
0.00107328
0.000311071
0.00119411
0.000275672
0.00130199
0.000239108
0.00139486
0.000200036
0.00147032
0.000157148
0.0015255
0.000109103
0.00155695
5.44697e-05
0.00156039
-8.09724e-06
0.00153088
-8.20179e-05
0.00146197
-0.000169167
0.00134573
-0.000274734
0.00117234
-0.000406925
0.000930863
-0.000581073
0.000615524
-0.000825704
0.000247977
-0.00118239
-7.90676e-05
-0.00165696
-0.000194159
-0.00203628
-0.00154247
-0.000243532
0.000803697
-0.00030305
0.000962442
-0.000204905
0.000827775
-2.69505e-05
0.000674727
0.000182168
0.000549823
0.000398719
0.000453283
0.000611111
0.000380085
0.000813942
0.000324459
0.00100501
0.00028135
0.00118361
0.000246915
0.00134956
0.00021835
0.00150274
0.000193567
0.00164284
0.000170964
0.00176925
0.000149264
0.00188095
0.000127415
0.00197647
0.000104509
0.0020539
7.9723e-05
0.00211073
5.22682e-05
0.00214383
2.13734e-05
0.00214967
-1.39362e-05
0.00212279
-5.51384e-05
0.00205717
-0.000103547
0.00194456
-0.000162123
0.0017737
-0.000236067
0.00152881
-0.000336187
0.00118962
-0.000486514
0.000745234
-0.000738005
0.00025289
-0.00116461
-8.14536e-05
-0.00170194
-0.00162392
-0.000193765
0.000997462
1.93911e-05
0.000749286
0.0003742
0.000472966
0.000714785
0.000334142
0.00101969
0.000244917
0.00128876
0.000184213
0.00152551
0.000143334
0.00173448
0.000115495
0.00192001
9.58194e-05
0.00208568
8.1242e-05
0.00223416
6.98676e-05
0.00236727
6.04637e-05
0.00248605
5.21853e-05
0.00259088
4.44267e-05
0.00268156
3.67319e-05
0.00275733
2.87396e-05
0.00281691
2.01457e-05
0.00285846
1.07152e-05
0.00287927
5.66413e-07
0.00287749
-1.2151e-05
0.00284799
-2.56463e-05
0.0027862
-4.17536e-05
0.0026852
-6.1122e-05
0.00253475
-8.56143e-05
0.00231811
-0.00011955
0.00200599
-0.000174391
0.00155133
-0.000283346
0.000927136
-0.00054042
0.000263703
-0.00103851
-0.00136022
0.000997462
0.00174675
0.00221971
0.00255386
0.00279877
0.00298299
0.00312632
0.00324181
0.00333763
0.00341888
0.00348874
0.00354921
0.00360139
0.00364582
0.00368255
0.00371129
0.00373144
0.00374215
0.00374272
0.00373057
0.00370492
0.00366317
0.00360205
0.00351643
0.00339688
0.00322249
0.00293914
0.00239872
0.00136022
)
;

boundaryField
{
    movingWall
    {
        type            calculated;
        value           uniform 0;
    }
    fixedWalls
    {
        type            calculated;
        value           uniform 0;
    }
    frontAndBack
    {
        type            empty;
        value           nonuniform 0();
    }
}


// ************************************************************************* //
