/*--------------------------------*- C++ -*----------------------------------*\
  =========                 |
  \\      /  F ield         | OpenFOAM: The Open Source CFD Toolbox
   \\    /   O peration     | Website:  https://openfoam.org
    \\  /    A nd           | Version:  7
     \\/     M anipulation  |
\*---------------------------------------------------------------------------*/
FoamFile
{
    version     2.0;
    format      ascii;
    class       volScalarField;
    location    "50";
    object      epsilon;
}
// * * * * * * * * * * * * * * * * * * * * * * * * * * * * * * * * * * * * * //

dimensions      [0 2 -3 0 0 0 0];

internalField   nonuniform List<scalar> 
4500
(
791.211
837.213
1195.67
1683.17
1979.28
2121.94
2173.13
2195.96
2202.15
2206.49
2207.58
2208.79
2209.25
2209.58
2209.89
2210.08
2210.14
2210.09
2210.14
2210.29
2210.64
2210.64
2210.66
2210.72
2210.9
2210.79
2210.72
2210.62
2210.56
2210.23
2209.77
2209.14
2208.37
2206.77
2205.55
2204.1
2202.77
2199.97
2198.1
2195.78
2194.21
2191.42
2189.06
2186.84
2185.4
2183.98
2182.91
2182.27
2181.57
2180.29
2182.18
2182
2180.3
2178.29
2176.37
2173.86
2175.23
2175.99
2172.77
2175.05
2171.4
2173.69
2172.48
2173.39
2168.85
2169.75
2168.32
2169.69
2167.88
2172.19
2177.7
2186.45
2192.51
2197.03
2201.32
181.347
279.274
365.474
558.261
686.644
748.537
771.509
781.072
784.068
785.869
786.563
787.136
787.457
787.649
787.837
787.943
787.993
787.976
787.992
788.035
788.176
788.171
788.175
788.207
788.274
788.224
788.198
788.157
788.137
788.006
787.836
787.585
787.293
786.661
786.189
785.609
785.091
783.994
783.264
782.331
781.707
780.614
779.67
778.753
778.157
777.614
777.214
776.97
776.664
776.11
776.804
776.768
776.135
775.351
774.562
773.534
774.014
774.347
773.108
773.976
772.525
773.403
772.983
773.405
771.62
771.952
771.26
771.751
771.039
772.68
774.76
778.124
780.479
782.246
783.891
52.6314
117.062
210.103
345.198
433.624
476.166
492.339
498.89
501.16
502.463
503.08
503.541
503.838
504.009
504.175
504.264
504.311
504.305
504.32
504.346
504.444
504.444
504.446
504.47
504.515
504.478
504.461
504.436
504.424
504.326
504.211
504.035
503.838
503.398
503.075
502.673
502.323
501.565
501.063
500.415
499.992
499.239
498.579
497.934
497.527
497.173
496.908
496.744
496.524
496.121
496.591
496.576
496.141
495.602
495.051
494.332
494.657
494.902
494.042
494.642
493.63
494.251
493.98
494.301
493.055
493.286
492.736
493.048
492.533
493.636
495.01
497.276
498.863
500.063
501.159
18.9315
59.6215
154.926
264.635
335.973
370.359
383.773
389.186
391.237
392.406
393.029
393.473
393.771
393.942
394.103
394.189
394.235
394.233
394.249
394.269
394.351
394.354
394.355
394.376
394.411
394.381
394.366
394.348
394.339
394.256
394.163
394.018
393.86
393.499
393.237
392.907
392.627
392.008
391.602
391.068
390.731
390.118
389.575
389.038
388.711
388.439
388.227
388.097
387.91
387.566
387.947
387.945
387.59
387.153
386.698
386.104
386.369
386.582
385.869
386.366
385.527
386.054
385.842
386.127
385.094
385.283
384.782
385.016
384.569
385.443
386.518
388.327
389.595
390.556
391.428
8.23008
36.9427
128.51
225.163
288.492
319.072
331.369
336.384
338.451
339.64
340.315
340.785
341.102
341.285
341.447
341.536
341.584
341.586
341.602
341.619
341.693
341.697
341.699
341.717
341.748
341.721
341.708
341.692
341.686
341.611
341.532
341.403
341.266
340.946
340.718
340.423
340.183
339.637
339.282
338.803
338.512
337.975
337.493
337.008
336.718
336.491
336.309
336.195
336.024
335.702
336.036
336.05
335.74
335.358
334.951
334.415
334.644
334.849
334.207
334.657
333.9
334.384
334.206
334.48
333.552
333.716
333.226
333.415
332.993
333.736
334.642
336.205
337.304
338.135
338.893
4.32464
26.7638
114.012
204.359
264.578
293.668
305.767
310.799
313.034
314.334
315.099
315.624
315.973
316.176
316.347
316.442
316.494
316.499
316.517
316.531
316.601
316.607
316.609
316.626
316.654
316.629
316.617
316.603
316.598
316.529
316.46
316.339
316.215
315.92
315.713
315.436
315.219
314.715
314.392
313.939
313.675
313.184
312.734
312.273
311.998
311.8
311.636
311.53
311.365
311.046
311.352
311.385
311.108
310.76
310.376
309.862
310.065
310.275
309.67
310.097
309.38
309.844
309.689
309.967
309.094
309.237
308.739
308.895
308.477
309.132
309.929
311.345
312.345
313.096
313.794
2.67215
21.4881
105.635
194.04
254.287
283.368
295.892
301.229
303.753
305.238
306.126
306.729
307.122
307.354
307.538
307.643
307.701
307.709
307.728
307.741
307.808
307.816
307.819
307.835
307.861
307.838
307.826
307.813
307.81
307.745
307.683
307.567
307.452
307.171
306.978
306.708
306.507
306.028
305.725
305.281
305.034
304.571
304.14
303.685
303.411
303.232
303.08
302.978
302.812
302.485
302.771
302.828
302.578
302.252
301.875
301.365
301.544
301.766
301.18
301.598
300.896
301.353
301.215
301.505
300.661
300.785
300.267
300.396
299.969
300.557
301.279
302.599
303.541
304.241
304.907
1.86555
18.3585
100.832
190.39
252.896
283.033
296.464
302.336
305.258
306.993
308.037
308.739
309.188
309.456
309.658
309.776
309.841
309.853
309.875
309.885
309.953
309.963
309.966
309.981
310.006
309.984
309.972
309.959
309.958
309.898
309.842
309.727
309.619
309.347
309.163
308.895
308.703
308.24
307.949
307.504
307.265
306.822
306.399
305.939
305.657
305.491
305.347
305.247
305.076
304.734
305.004
305.088
304.862
304.551
304.173
303.652
303.808
304.049
303.471
303.888
303.186
303.641
303.518
303.826
302.995
303.1
302.555
302.659
302.217
302.749
303.413
304.67
305.577
306.243
306.897
1.42228
16.2565
98.2511
191.251
257.684
289.706
304.442
311.052
314.477
316.522
317.755
318.578
319.094
319.405
319.629
319.762
319.837
319.853
319.878
319.886
319.954
319.967
319.971
319.986
320.009
319.988
319.976
319.964
319.965
319.907
319.857
319.743
319.64
319.374
319.196
318.925
318.739
318.285
318.003
317.551
317.314
316.885
316.464
315.993
315.697
315.539
315.401
315.3
315.122
314.76
315.017
315.13
314.928
314.628
314.242
313.703
313.835
314.095
313.521
313.941
313.232
313.687
313.577
313.906
313.081
313.166
312.589
312.671
312.209
312.691
313.308
314.52
315.406
316.048
316.701
1.15518
14.6708
97.0381
195.155
266.772
301.34
317.727
325.258
329.289
331.703
333.156
334.12
334.714
335.074
335.324
335.475
335.561
335.582
335.61
335.617
335.685
335.701
335.706
335.721
335.743
335.724
335.71
335.699
335.702
335.647
335.602
335.488
335.389
335.127
334.955
334.679
334.496
334.048
333.771
333.308
333.071
332.652
332.23
331.745
331.429
331.276
331.144
331.041
330.853
330.471
330.713
330.857
330.678
330.387
329.99
329.429
329.535
329.816
329.245
329.668
328.948
329.404
329.304
329.654
328.835
328.899
328.292
328.35
327.867
328.301
328.878
330.053
330.928
331.551
332.209
0.982438
13.3412
96.5586
200.924
278.621
316.272
334.607
343.227
347.961
350.799
352.505
353.627
354.308
354.724
355.004
355.175
355.272
355.299
355.331
355.337
355.407
355.426
355.432
355.447
355.468
355.449
355.435
355.424
355.429
355.377
355.338
355.223
355.127
354.869
354.701
354.42
354.238
353.795
353.523
353.048
352.808
352.397
351.973
351.472
351.136
350.986
350.857
350.751
350.554
350.151
350.379
350.553
350.397
350.115
349.706
349.122
349.2
349.501
348.935
349.359
348.628
349.081
348.993
349.361
348.55
348.593
347.958
347.994
347.492
347.878
348.418
349.56
350.426
351.032
351.698
0.864466
12.125
96.2772
207.491
291.823
332.975
353.512
363.373
368.902
372.213
374.202
375.498
376.276
376.752
377.065
377.258
377.368
377.402
377.438
377.443
377.514
377.537
377.544
377.559
377.578
377.561
377.546
377.536
377.542
377.493
377.459
377.345
377.251
376.998
376.834
376.548
376.366
375.928
375.66
375.174
374.931
374.528
374.102
373.587
373.23
373.081
372.956
372.846
372.64
372.22
372.431
372.632
372.501
372.227
371.806
371.204
371.253
371.569
371.012
371.433
370.698
371.142
371.063
371.447
370.651
370.671
370.017
370.03
369.514
369.85
370.355
371.462
372.32
372.91
373.582
0.780468
10.9421
95.7086
213.824
305.004
349.972
372.919
384.156
390.562
394.39
396.688
398.169
399.053
399.594
399.941
400.158
400.282
400.323
400.364
400.369
400.44
400.467
400.475
400.49
400.508
400.492
400.476
400.468
400.475
400.428
400.4
400.286
400.195
399.948
399.788
399.499
399.317
398.886
398.621
398.129
397.881
397.487
397.061
396.535
396.16
396.01
395.888
395.775
395.561
395.129
395.32
395.546
395.439
395.173
394.744
394.128
394.147
394.473
393.933
394.345
393.612
394.042
393.972
394.364
393.595
393.593
392.926
392.918
392.394
392.68
393.15
394.218
395.063
395.635
396.309
0.718804
9.75076
94.4079
218.913
316.819
365.811
391.33
404.057
411.411
415.79
418.42
420.096
421.091
421.701
422.085
422.326
422.465
422.514
422.56
422.565
422.636
422.667
422.676
422.691
422.708
422.693
422.676
422.67
422.678
422.634
422.611
422.499
422.41
422.171
422.015
421.726
421.543
421.123
420.862
420.368
420.116
419.732
419.308
418.777
418.386
418.236
418.117
418
417.781
417.344
417.514
417.758
417.675
417.418
416.985
416.363
416.353
416.682
416.166
416.562
415.841
416.251
416.188
416.582
415.849
415.826
415.159
415.13
414.607
414.843
415.277
416.298
417.125
417.677
418.347
0.672619
8.53699
91.9854
221.798
325.971
379.093
407.299
421.609
429.965
434.92
437.898
439.775
440.885
441.566
441.987
442.254
442.408
442.466
442.517
442.523
442.593
442.628
442.638
442.654
442.668
442.655
442.638
442.633
442.642
442.601
442.582
442.473
442.388
442.159
442.008
441.722
441.538
441.132
440.875
440.387
440.13
439.759
439.341
438.812
438.41
438.259
438.143
438.023
437.8
437.366
437.513
437.77
437.709
437.464
437.032
436.414
436.374
436.699
436.215
436.589
435.891
436.272
436.217
436.605
435.92
435.878
435.221
435.174
434.661
434.849
435.245
436.212
437.012
437.541
438.198
0.637695
7.30892
88.1358
221.612
331.265
388.513
419.472
435.434
444.828
450.372
453.706
455.785
457.014
457.765
458.225
458.517
458.686
458.755
458.811
458.818
458.888
458.926
458.937
458.954
458.966
458.954
458.937
458.933
458.943
458.904
458.89
458.786
458.703
458.486
458.341
458.063
457.879
457.491
457.24
456.763
456.505
456.148
455.739
455.219
454.813
454.66
454.548
454.426
454.203
453.779
453.902
454.164
454.126
453.894
453.468
452.863
452.797
453.109
452.665
453.01
452.346
452.693
452.646
453.02
452.392
452.334
451.7
451.636
451.144
451.285
451.643
452.546
453.313
453.814
454.451
0.611308
6.09233
82.6744
217.649
331.668
392.917
426.642
444.3
454.747
460.881
464.573
466.849
468.196
469.017
469.516
469.832
470.017
470.096
470.158
470.168
470.235
470.277
470.288
470.306
470.316
470.306
470.29
470.287
470.298
470.261
470.251
470.152
470.074
469.871
469.733
469.465
469.282
468.916
468.673
468.215
467.957
467.617
467.222
466.718
466.314
466.16
466.052
465.929
465.708
465.303
465.401
465.661
465.644
465.427
465.015
464.433
464.343
464.634
464.236
464.546
463.927
464.235
464.195
464.547
463.988
463.916
463.315
463.238
462.776
462.874
463.193
464.025
464.75
465.221
465.827
0.591587
4.92554
75.5721
209.427
326.376
391.364
427.809
447.18
458.671
465.384
469.425
471.89
473.352
474.24
474.778
475.117
475.318
475.408
475.475
475.489
475.553
475.597
475.61
475.629
475.637
475.629
475.613
475.612
475.622
475.588
475.581
475.49
475.415
475.229
475.098
474.845
474.666
474.325
474.092
473.658
473.403
473.083
472.706
472.225
471.829
471.675
471.572
471.45
471.234
470.855
470.928
471.18
471.181
470.982
470.588
470.04
469.929
470.192
469.845
470.116
469.552
469.816
469.784
470.108
469.622
469.541
468.983
468.897
468.473
468.533
468.814
469.568
470.243
470.681
471.247
0.577154
3.85254
66.9807
196.756
314.881
383.179
422.233
443.301
455.809
463.078
467.45
470.092
471.663
472.613
473.188
473.55
473.766
473.867
473.94
473.958
474.018
474.065
474.079
474.098
474.105
474.098
474.084
474.083
474.093
474.063
474.058
473.975
473.906
473.737
473.615
473.38
473.206
472.893
472.672
472.269
472.02
471.721
471.366
470.915
470.535
470.382
470.283
470.163
469.956
469.608
469.658
469.895
469.913
469.733
469.364
468.856
468.73
468.96
468.666
468.894
468.392
468.613
468.588
468.879
468.47
468.383
467.875
467.783
467.405
467.434
467.677
468.349
468.968
469.371
469.89
0.566905
2.9148
57.2392
179.794
297.033
368.01
409.481
432.197
445.675
453.472
458.152
460.956
462.627
463.635
464.244
464.627
464.856
464.97
465.047
465.07
465.128
465.175
465.19
465.21
465.215
465.21
465.197
465.198
465.207
465.181
465.177
465.103
465.04
464.89
464.778
464.564
464.397
464.114
463.908
463.54
463.301
463.025
462.696
462.279
461.921
461.771
461.678
461.561
461.365
461.052
461.082
461.298
461.33
461.171
460.833
460.372
460.235
460.427
460.186
460.372
459.937
460.114
460.097
460.351
460.019
459.931
459.478
459.385
459.057
459.062
459.269
459.856
460.414
460.781
461.247
0.559907
2.14269
46.8545
159.077
273.089
345.869
389.464
413.746
428.139
436.433
441.398
444.35
446.113
447.173
447.814
448.215
448.457
448.582
448.664
448.693
448.747
448.794
448.811
448.832
448.836
448.832
448.821
448.821
448.83
448.807
448.805
448.741
448.684
448.554
448.452
448.261
448.104
447.854
447.663
447.335
447.109
446.857
446.557
446.18
445.849
445.703
445.615
445.505
445.321
445.046
445.058
445.25
445.293
445.157
444.853
444.443
444.302
444.455
444.264
444.41
444.042
444.178
444.169
444.386
444.126
444.042
443.648
443.556
443.28
443.269
443.442
443.945
444.439
444.769
445.178
0.555349
1.54884
36.4518
135.521
243.745
317.169
362.472
388.199
403.451
412.226
417.464
420.557
422.406
423.512
424.182
424.599
424.853
424.989
425.075
425.11
425.161
425.207
425.226
425.246
425.25
425.248
425.239
425.239
425.247
425.228
425.227
425.173
425.122
425.012
424.922
424.755
424.611
424.393
424.221
423.933
423.725
423.499
423.23
422.894
422.595
422.457
422.375
422.271
422.103
421.866
421.865
422.03
422.079
421.967
421.701
421.346
421.205
421.32
421.175
421.282
420.981
421.081
421.079
421.259
421.067
420.99
420.654
420.568
420.345
420.324
420.466
420.888
421.316
421.608
421.96
0.552535
1.1254
26.6958
110.383
210.144
282.744
329.185
356.198
372.275
381.545
387.067
390.309
392.244
393.397
394.094
394.526
394.79
394.935
395.026
395.067
395.115
395.159
395.179
395.199
395.203
395.202
395.195
395.195
395.202
395.187
395.187
395.142
395.098
395.007
394.93
394.787
394.658
394.474
394.321
394.075
393.887
393.688
393.452
393.16
392.897
392.768
392.692
392.596
392.446
392.246
392.235
392.372
392.425
392.337
392.111
391.811
391.676
391.755
391.649
391.724
391.486
391.555
391.56
391.705
391.572
391.506
391.228
391.151
390.977
390.953
391.067
391.413
391.775
392.03
392.324
0.550895
0.846969
18.1909
85.1675
173.851
243.85
290.685
318.794
335.704
345.54
351.395
354.82
356.856
358.061
358.786
359.232
359.505
359.658
359.753
359.799
359.844
359.886
359.907
359.926
359.931
359.931
359.925
359.926
359.932
359.92
359.92
359.885
359.848
359.776
359.711
359.593
359.481
359.328
359.196
358.991
358.827
358.656
358.454
358.206
357.98
357.863
357.794
357.708
357.577
357.412
357.394
357.505
357.559
357.493
357.309
357.062
356.939
356.987
356.913
356.962
356.78
356.826
356.836
356.95
356.867
356.813
356.591
356.524
356.395
356.372
356.462
356.737
357.036
357.255
357.494
0.549991
0.67852
11.3766
61.4748
136.784
202.159
248.47
277.47
295.3
305.843
312.135
315.809
317.978
319.249
320.007
320.468
320.748
320.909
321.006
321.057
321.1
321.139
321.161
321.179
321.183
321.185
321.181
321.181
321.186
321.178
321.178
321.152
321.122
321.067
321.015
320.92
320.826
320.703
320.593
320.428
320.289
320.145
319.977
319.772
319.585
319.482
319.421
319.346
319.234
319.102
319.081
319.167
319.219
319.174
319.031
318.836
318.728
318.753
318.703
318.731
318.598
318.627
318.642
318.731
318.686
318.646
318.475
318.421
318.33
318.312
318.379
318.592
318.831
319.014
319.202
0.549517
0.584929
6.4443
40.8008
101.088
159.728
204.483
234.196
253.127
264.6
271.486
275.506
277.857
279.219
280.019
280.497
280.784
280.951
281.05
281.104
281.145
281.181
281.203
281.22
281.224
281.227
281.225
281.224
281.228
281.223
281.224
281.205
281.182
281.142
281.102
281.029
280.953
280.858
280.77
280.64
280.527
280.411
280.276
280.113
279.962
279.875
279.823
279.759
279.667
279.564
279.543
279.608
279.656
279.63
279.525
279.378
279.289
279.296
279.265
279.279
279.187
279.206
279.224
279.292
279.276
279.249
279.124
279.083
279.023
279.009
279.058
279.216
279.401
279.549
279.692
0.549274
0.537495
3.30014
24.3009
68.9534
118.978
161.198
191.54
211.823
224.488
232.151
236.625
239.214
240.692
241.545
242.043
242.337
242.508
242.608
242.665
242.704
242.737
242.757
242.773
242.778
242.781
242.78
242.78
242.783
242.78
242.781
242.768
242.752
242.724
242.695
242.641
242.583
242.512
242.444
242.347
242.258
242.167
242.063
241.938
241.823
241.752
241.708
241.655
241.583
241.505
241.487
241.535
241.577
241.566
241.496
241.391
241.322
241.319
241.302
241.307
241.249
241.261
241.282
241.333
241.337
241.322
241.236
241.208
241.171
241.161
241.194
241.305
241.442
241.558
241.664
0.549149
0.515855
1.59853
12.5646
42.3947
82.7131
121.793
152.788
174.644
188.692
197.255
202.254
205.118
206.731
207.643
208.163
208.464
208.637
208.737
208.795
208.832
208.862
208.881
208.895
208.9
208.903
208.902
208.902
208.905
208.904
208.905
208.897
208.886
208.868
208.848
208.81
208.768
208.716
208.665
208.594
208.528
208.458
208.381
208.288
208.204
208.148
208.113
208.07
208.016
207.959
207.945
207.979
208.017
208.016
207.975
207.904
207.855
207.848
207.84
207.842
207.809
207.819
207.843
207.881
207.896
207.888
207.835
207.816
207.796
207.789
207.808
207.883
207.98
208.068
208.144
0.54908
0.507127
0.85106
5.47989
23.1038
54.2806
90.3563
122.012
145.398
160.766
170.185
175.682
178.805
180.544
181.51
182.05
182.356
182.529
182.629
182.686
182.721
182.747
182.765
182.778
182.783
182.785
182.786
182.786
182.789
182.788
182.789
182.784
182.778
182.766
182.752
182.725
182.696
182.658
182.62
182.567
182.518
182.465
182.409
182.342
182.282
182.237
182.209
182.172
182.133
182.092
182.084
182.109
182.142
182.147
182.127
182.081
182.05
182.042
182.042
182.042
182.029
182.038
182.063
182.09
182.109
182.102
182.075
182.064
182.056
182.048
182.058
182.105
182.175
182.242
182.297
0.549048
0.504273
0.603314
2.31901
12.5725
37.7187
71.8033
103.884
128.265
144.491
154.468
160.287
163.577
165.395
166.395
166.946
167.253
167.425
167.523
167.579
167.612
167.637
167.653
167.665
167.67
167.672
167.672
167.672
167.676
167.675
167.677
167.674
167.67
167.661
167.65
167.629
167.607
167.576
167.545
167.501
167.464
167.419
167.377
167.324
167.281
167.243
167.218
167.181
167.153
167.122
167.122
167.139
167.17
167.173
167.167
167.135
167.118
167.11
167.116
167.113
167.118
167.125
167.152
167.166
167.184
167.169
167.161
167.155
167.155
167.145
167.152
167.184
167.241
167.295
167.341
0.549052
0.504604
0.615234
2.33012
12.5128
37.5495
71.5263
103.543
127.89
144.1
154.067
159.875
163.156
164.967
165.963
166.508
166.813
166.981
167.079
167.133
167.167
167.191
167.207
167.218
167.223
167.224
167.225
167.226
167.229
167.229
167.23
167.227
167.224
167.213
167.202
167.179
167.159
167.126
167.096
167.049
167.015
166.967
166.93
166.879
166.847
166.804
166.778
166.731
166.711
166.682
166.694
166.704
166.734
166.727
166.727
166.693
166.69
166.677
166.688
166.679
166.7
166.703
166.733
166.729
166.741
166.705
166.714
166.708
166.718
166.702
166.715
166.744
166.808
166.862
166.911
0.549095
0.508493
0.903427
5.59343
23.0583
53.8879
89.6256
121.078
144.363
159.683
169.072
174.539
177.64
179.357
180.312
180.838
181.136
181.3
181.398
181.452
181.488
181.513
181.53
181.541
181.546
181.548
181.549
181.549
181.555
181.553
181.555
181.548
181.545
181.528
181.514
181.48
181.459
181.414
181.378
181.315
181.278
181.214
181.175
181.109
181.083
181.024
180.994
180.924
180.91
180.871
180.903
180.905
180.938
180.908
180.911
180.858
180.868
180.844
180.864
180.837
180.878
180.873
180.912
180.878
180.886
180.809
180.837
180.826
180.85
180.823
180.854
180.891
180.982
181.051
181.116
0.549173
0.519609
1.74846
12.9291
42.5272
82.2687
120.814
151.481
173.181
187.149
195.664
200.616
203.448
205.028
205.926
206.427
206.72
206.879
206.979
207.032
207.071
207.099
207.118
207.129
207.135
207.136
207.138
207.138
207.145
207.143
207.145
207.132
207.129
207.102
207.082
207.029
207.005
206.939
206.894
206.801
206.761
206.666
206.623
206.525
206.505
206.419
206.385
206.275
206.268
206.208
206.27
206.26
206.303
206.234
206.241
206.149
206.181
206.135
206.171
206.113
206.183
206.161
206.221
206.14
206.15
206.006
206.061
206.04
206.088
206.041
206.102
206.157
206.293
206.385
206.479
0.549318
0.546517
3.64475
25.0893
69.4012
118.631
160.18
190.117
210.21
222.774
230.377
234.789
237.346
238.785
239.628
240.104
240.393
240.546
240.649
240.701
240.745
240.776
240.798
240.809
240.816
240.816
240.818
240.818
240.828
240.824
240.828
240.806
240.804
240.762
240.736
240.657
240.631
240.535
240.479
240.343
240.301
240.162
240.114
239.969
239.96
239.834
239.801
239.631
239.637
239.54
239.65
239.622
239.686
239.558
239.573
239.421
239.487
239.409
239.471
239.363
239.476
239.426
239.523
239.375
239.401
239.158
239.254
239.216
239.298
239.221
239.326
239.401
239.6
239.723
239.858
0.549592
0.604523
7.10889
42.1788
101.965
159.606
203.617
232.901
251.642
263.01
269.841
273.792
276.119
277.438
278.24
278.696
278.985
279.13
279.237
279.286
279.337
279.371
279.396
279.407
279.416
279.414
279.417
279.415
279.43
279.424
279.43
279.396
279.396
279.336
279.304
279.19
279.167
279.031
278.968
278.773
278.736
278.539
278.491
278.28
278.293
278.114
278.091
277.839
277.869
277.717
277.896
277.842
277.941
277.729
277.764
277.525
277.646
277.521
277.627
277.444
277.619
277.527
277.686
277.443
277.507
277.122
277.282
277.217
277.351
277.227
277.39
277.487
277.764
277.92
278.109
0.550127
0.717518
12.4966
63.5795
138.187
202.38
247.923
276.511
294.187
304.644
310.901
314.507
316.669
317.898
318.674
319.115
319.407
319.542
319.654
319.699
319.758
319.796
319.825
319.834
319.845
319.84
319.844
319.841
319.863
319.853
319.863
319.813
319.819
319.735
319.701
319.542
319.528
319.345
319.279
319.01
318.989
318.719
318.679
318.384
318.431
318.187
318.189
317.829
317.898
317.67
317.944
317.854
318.005
317.682
317.753
317.399
317.6
317.412
317.58
317.297
317.555
317.405
317.654
317.286
317.415
316.844
317.095
316.991
317.193
317.003
317.242
317.358
317.728
317.918
318.172
0.551134
0.918679
19.8902
88.0968
175.864
244.524
290.599
318.348
335.159
344.943
350.8
354.165
356.219
357.382
358.147
358.574
358.872
358.994
359.113
359.152
359.22
359.261
359.293
359.3
359.314
359.305
359.311
359.306
359.334
359.32
359.336
359.267
359.282
359.171
359.137
358.924
358.927
358.689
358.627
358.27
358.277
357.92
357.9
357.502
357.6
357.278
357.322
356.828
356.954
356.629
357.024
356.886
357.107
356.646
356.771
356.274
356.583
356.314
356.567
356.155
356.52
356.294
356.663
356.136
356.364
355.558
355.933
355.775
356.064
355.788
356.124
356.252
356.728
356.95
357.28
0.552945
1.24748
29.068
114.192
212.834
283.965
329.675
356.394
372.439
381.705
387.274
390.466
392.448
393.56
394.321
394.734
395.039
395.144
395.27
395.303
395.381
395.424
395.46
395.463
395.48
395.468
395.475
395.468
395.504
395.485
395.509
395.416
395.443
395.302
395.273
394.999
395.027
394.726
394.676
394.217
394.266
393.811
393.823
393.305
393.471
393.058
393.162
392.51
392.712
392.269
392.812
392.613
392.921
392.296
392.494
391.828
392.273
391.906
392.264
391.696
392.19
391.873
392.391
391.673
392.034
390.946
391.478
391.249
391.646
391.264
391.716
391.848
392.442
392.694
393.109
0.556017
1.74145
39.5459
140.22
247.155
319.007
363.618
389.116
404.415
413.234
418.571
421.62
423.548
424.612
425.371
425.767
426.079
426.163
426.298
426.321
426.411
426.455
426.494
426.494
426.515
426.497
426.507
426.496
426.542
426.518
426.549
426.431
426.474
426.299
426.278
425.937
425.999
425.629
425.599
425.027
425.132
424.569
424.624
423.971
424.22
423.708
423.888
423.058
423.354
422.776
423.489
423.217
423.627
422.815
423.106
422.249
422.854
422.374
422.856
422.107
422.751
422.328
423.021
422.083
422.609
421.199
421.917
421.603
422.127
421.621
422.206
422.335
423.057
423.333
423.842
0.560938
2.42539
50.6693
164.637
277.235
348.358
391.306
415.419
429.935
438.322
443.434
446.346
448.222
449.232
449.988
450.363
450.68
450.741
450.884
450.898
451
451.043
451.087
451.08
451.107
451.083
451.096
451.081
451.136
451.107
451.147
451.002
451.062
450.852
450.843
450.431
450.533
450.091
450.088
449.396
449.568
448.89
448.999
448.201
448.546
447.929
448.199
447.174
447.58
446.854
447.754
447.399
447.923
446.907
447.307
446.241
447.028
446.421
447.043
446.095
446.903
446.364
447.252
446.07
446.789
445.026
445.955
445.542
446.208
445.568
446.301
446.418
447.273
447.569
448.178
0.568406
3.30326
61.724
186.144
301.895
371.149
412.016
434.615
448.287
456.218
461.089
463.85
465.665
466.614
467.363
467.712
468.033
468.068
468.221
468.223
468.338
468.38
468.427
468.414
468.446
468.417
468.433
468.414
468.478
468.444
468.493
468.32
468.399
468.152
468.158
467.673
467.821
467.306
467.335
466.521
466.767
465.973
466.143
465.195
465.645
464.921
465.29
464.062
464.59
463.709
464.804
464.361
465.004
463.774
464.295
463.013
463.994
463.253
464.023
462.866
463.846
463.187
464.28
462.842
463.772
461.637
462.796
462.274
463.093
462.311
463.204
463.301
464.291
464.604
465.314
0.579226
4.35605
72.0422
203.791
320.404
386.929
425.419
446.411
459.17
466.608
471.208
473.799
475.541
476.417
477.155
477.475
477.798
477.805
477.966
477.958
478.085
478.124
478.175
478.155
478.193
478.158
478.178
478.154
478.227
478.189
478.247
478.045
478.144
477.862
477.884
477.329
477.524
476.937
477.002
476.067
476.391
475.484
475.719
474.624
475.18
474.353
474.827
473.394
474.05
473.014
474.306
473.771
474.535
473.09
473.737
472.239
473.419
472.543
473.463
472.095
473.248
472.471
473.77
472.072
473.224
470.714
472.108
471.474
472.452
471.527
472.585
472.657
473.78
474.107
474.917
0.594313
5.54573
81.0842
217.009
332.47
395.649
431.563
450.889
462.679
469.583
473.88
476.28
477.935
478.732
479.453
479.74
480.063
480.043
480.212
480.193
480.332
480.366
480.421
480.395
480.439
480.398
480.422
480.392
480.474
480.432
480.497
480.27
480.387
480.072
480.11
479.489
479.731
479.078
479.179
478.131
478.533
477.52
477.821
476.585
477.247
476.323
476.901
475.272
476.057
474.872
476.354
475.729
476.607
474.955
475.728
474.026
475.399
474.393
475.457
473.886
475.205
474.318
475.815
473.865
475.236
472.363
473.991
473.246
474.382
473.323
474.544
474.587
475.837
476.174
477.078
0.614745
6.82339
88.4907
225.618
338.215
397.632
430.853
448.488
459.265
465.602
469.57
471.761
473.319
474.031
474.73
474.982
475.303
475.255
475.432
475.403
475.552
475.581
475.64
475.607
475.657
475.61
475.638
475.603
475.692
475.647
475.718
475.467
475.602
475.257
475.311
474.63
474.917
474.205
474.341
473.19
473.667
472.561
472.923
471.56
472.32
471.312
471.988
470.179
471.087
469.768
471.422
470.715
471.695
469.852
470.744
468.858
470.41
469.286
470.483
468.726
470.195
469.212
470.887
468.705
470.281
467.076
468.922
468.075
469.362
468.182
469.559
469.573
470.938
471.283
472.273
0.641873
8.13895
94.1026
229.794
338.125
393.531
424.007
439.956
449.699
455.448
459.068
461.04
462.492
463.115
463.789
464.004
464.321
464.248
464.43
464.393
464.551
464.573
464.635
464.596
464.653
464.6
464.632
464.592
464.688
464.639
464.714
464.444
464.593
464.223
464.29
463.56
463.886
463.124
463.292
462.054
462.597
461.413
461.83
460.358
461.206
460.13
460.892
458.927
459.947
458.513
460.317
459.537
460.601
458.593
459.592
457.548
459.258
458.032
459.343
457.425
459.024
457.964
459.791
457.403
459.163
455.667
457.71
456.774
458.2
456.918
458.438
458.424
459.889
460.242
461.304
0.677537
9.45022
97.9541
230.016
332.99
384.277
412.015
426.311
435.024
440.176
443.441
445.187
446.528
447.061
447.706
447.885
448.195
448.1
448.286
448.242
448.405
448.422
448.487
448.442
448.504
448.447
448.482
448.438
448.538
448.488
448.565
448.278
448.438
448.049
448.126
447.358
447.715
446.914
447.108
445.802
446.401
445.157
445.619
444.061
444.981
443.854
444.689
442.595
443.712
442.189
444.113
443.273
444.402
442.258
443.345
441.178
443.019
441.711
443.114
441.065
442.77
441.652
443.599
441.04
442.953
439.219
441.431
440.423
441.97
440.61
442.255
442.218
443.766
444.126
445.247
0.724435
10.73
100.246
227
323.845
371.022
396.082
408.786
416.492
421.052
423.963
425.484
426.712
427.158
427.77
427.915
428.216
428.101
428.289
428.239
428.408
428.419
428.485
428.436
428.502
428.441
428.48
428.431
428.534
428.483
428.559
428.262
428.429
428.024
428.109
427.314
427.695
426.867
427.08
425.725
426.368
425.081
425.577
423.956
424.933
423.774
424.664
422.474
423.67
422.083
424.097
423.211
424.381
422.134
423.291
421.035
422.977
421.611
423.08
420.932
422.717
421.564
423.594
420.904
422.935
419.021
421.368
420.309
421.956
420.544
422.297
422.242
423.853
424.221
425.386
0.786766
11.9709
101.31
221.634
311.895
355.078
377.569
388.767
395.51
399.498
402.065
403.368
404.483
404.845
405.422
405.535
405.825
405.693
405.881
405.828
405.998
406.004
406.07
406.018
406.088
406.024
406.066
406.014
406.119
406.066
406.14
405.835
406.006
405.591
405.68
404.869
405.266
404.421
404.646
403.262
403.935
402.624
403.142
401.482
402.498
401.324
402.252
399.998
401.253
399.629
401.702
400.785
401.974
399.655
400.862
398.553
400.566
399.162
400.672
398.46
400.298
399.131
401.209
398.425
400.538
396.504
398.953
397.862
399.59
398.152
399.991
399.926
401.584
401.96
403.154
0.871361
13.1894
101.567
214.91
298.46
337.865
357.941
367.742
373.585
377.029
379.27
380.364
381.37
381.654
382.195
382.278
382.555
382.411
382.597
382.541
382.712
382.712
382.778
382.725
382.797
382.731
382.774
382.72
382.825
382.771
382.842
382.533
382.704
382.284
382.373
381.556
381.962
381.108
381.338
379.942
380.633
379.313
379.841
378.163
379.204
378.03
378.98
376.69
377.987
376.349
378.454
377.519
378.706
376.344
377.582
375.251
377.308
375.886
377.415
375.168
377.036
375.872
377.965
375.123
377.285
373.185
375.705
374.603
376.391
374.951
376.859
376.791
378.48
378.866
380.075
0.989841
14.4309
101.497
207.879
284.916
320.855
338.72
347.251
352.27
355.211
357.149
358.049
358.95
359.163
359.668
359.723
359.987
359.833
360.016
359.959
360.128
360.124
360.189
360.135
360.209
360.141
360.186