/*--------------------------------*- C++ -*----------------------------------*\
  =========                 |
  \\      /  F ield         | OpenFOAM: The Open Source CFD Toolbox
   \\    /   O peration     | Website:  https://openfoam.org
    \\  /    A nd           | Version:  7
     \\/     M anipulation  |
\*---------------------------------------------------------------------------*/
FoamFile
{
    version     2.0;
    format      ascii;
    class       volScalarField;
    location    "50";
    object      k;
}
// * * * * * * * * * * * * * * * * * * * * * * * * * * * * * * * * * * * * * //

dimensions      [0 2 -2 0 0 0 0];

internalField   nonuniform List<scalar> 
4500
(
2.10898
2.18113
2.77426
3.52083
3.94553
4.14181
4.21309
4.24503
4.25458
4.26097
4.26275
4.26451
4.26521
4.26572
4.2662
4.26648
4.26656
4.26651
4.26658
4.26674
4.2672
4.26724
4.26726
4.26736
4.26755
4.26741
4.26732
4.26723
4.26717
4.26675
4.26619
4.26541
4.26446
4.26247
4.26095
4.25912
4.25747
4.25396
4.25162
4.24865
4.24669
4.2432
4.24022
4.23738
4.2355
4.23371
4.23238
4.23158
4.23068
4.22901
4.23136
4.23128
4.22927
4.22681
4.22434
4.22109
4.22268
4.22374
4.21974
4.22264
4.21805
4.22092
4.21948
4.22071
4.21501
4.21604
4.21415
4.21577
4.21343
4.21873
4.22559
4.23653
4.24417
4.24983
4.25527
1.11151
1.86008
3.68045
5.77575
7.00998
7.55494
7.76511
7.84812
7.87974
7.89664
7.90517
7.91102
7.91482
7.91699
7.91902
7.92012
7.92075
7.92072
7.92092
7.92116
7.92221
7.92229
7.92231
7.9226
7.92304
7.92266
7.92246
7.9222
7.92213
7.92117
7.92014
7.91824
7.91623
7.91164
7.90841
7.90396
7.90023
7.89219
7.88711
7.87982
7.87521
7.86733
7.86037
7.85303
7.84794
7.84396
7.84133
7.83955
7.83697
7.83221
7.837
7.8375
7.83364
7.82808
7.82178
7.81341
7.81618
7.81916
7.81001
7.81679
7.80523
7.8119
7.80893
7.81286
7.7995
7.80214
7.79592
7.79934
7.79393
7.80582
7.82071
7.84521
7.86242
7.87522
7.88753
0.651267
1.55458
4.52991
7.28948
8.86068
9.54697
9.81409
9.91954
9.96116
9.98346
9.99511
10.003
10.0082
10.0112
10.0139
10.0154
10.0162
10.0162
10.0165
10.0168
10.0182
10.0183
10.0184
10.0187
10.0193
10.0188
10.0185
10.0182
10.0182
10.0169
10.0156
10.0131
10.0105
10.0046
10.0005
9.99478
9.99003
9.9797
9.97321
9.96382
9.95796
9.94787
9.93891
9.92943
9.92293
9.91796
9.91463
9.91235
9.90899
9.90281
9.909
9.90971
9.90475
9.89762
9.8895
9.87873
9.88232
9.8862
9.87438
9.88315
9.86821
9.87695
9.87317
9.87833
9.86109
9.86454
9.85625
9.8606
9.85353
9.86871
9.8876
9.91882
9.94072
9.957
9.97266
0.470904
1.47055
5.24369
8.46355
10.2836
11.0761
11.3883
11.5125
11.5632
11.5906
11.6051
11.615
11.6214
11.625
11.6283
11.6301
11.6311
11.6312
11.6315
11.6319
11.6335
11.6337
11.6337
11.6341
11.6348
11.6342
11.6339
11.6336
11.6335
11.632
11.6305
11.6276
11.6247
11.6178
11.6131
11.6064
11.6009
11.5889
11.5815
11.5705
11.5638
11.5521
11.5417
11.5306
11.5231
11.5175
11.5136
11.511
11.5071
11.4998
11.507
11.5079
11.5022
11.494
11.4845
11.472
11.4761
11.4807
11.4669
11.4772
11.4598
11.4701
11.4657
11.4719
11.4518
11.4558
11.4458
11.4508
11.4424
11.4598
11.4814
11.5173
11.5426
11.5613
11.5794
0.405134
1.51324
5.87901
9.50993
11.5681
12.4631
12.8214
12.966
13.027
13.0604
13.0783
13.0904
13.0981
13.1026
13.1064
13.1086
13.1098
13.1098
13.1103
13.1106
13.1125
13.1127
13.1127
13.1132
13.1139
13.1133
13.113
13.1126
13.1125
13.1109
13.1092
13.106
13.1027
13.0951
13.0898
13.0823
13.0763
13.063
13.0547
13.0424
13.0349
13.022
13.0103
12.9979
12.9894
12.9833
12.979
12.9761
12.9716
12.9633
12.9713
12.9726
12.9663
12.9572
12.9466
12.9324
12.9369
12.9423
12.9268
12.9384
12.9187
12.9305
12.9257
12.9328
12.9103
12.9146
12.9031
12.9084
12.8988
12.9179
12.9416
12.9814
13.0094
13.0301
13.0503
0.386107
1.60509
6.47018
10.5181
12.8303
13.8354
14.2458
14.4143
14.4882
14.529
14.5511
14.5659
14.5752
14.5806
14.5851
14.5876
14.589
14.5891
14.5896
14.59
14.5921
14.5923
14.5924
14.5929
14.5937
14.593
14.5926
14.5922
14.5921
14.5904
14.5886
14.5851
14.5816
14.5733
14.5676
14.5593
14.5528
14.5383
14.5294
14.5157
14.5077
14.4937
14.4809
14.4671
14.4576
14.4511
14.4465
14.4433
14.4382
14.4288
14.4375
14.4394
14.4328
14.4229
14.4112
14.3954
14.4001
14.4064
14.3893
14.4021
14.3804
14.3934
14.3884
14.3965
14.3718
14.3763
14.3632
14.3688
14.3579
14.3782
14.4036
14.4466
14.4771
14.4995
14.5216
0.384016
1.70577
7.03486
11.5315
14.1268
15.255
15.7265
15.924
16.0141
16.0641
16.0915
16.1096
16.1208
16.1273
16.1325
16.1355
16.1372
16.1373
16.1379
16.1383
16.1405
16.1408
16.1409
16.1414
16.1423
16.1416
16.1411
16.1407
16.1407
16.1388
16.1371
16.1333
16.1296
16.1207
16.1146
16.1056
16.0987
16.0832
16.0736
16.0587
16.0501
16.0351
16.0214
16.0062
15.9958
15.9888
15.984
15.9805
15.9749
15.9644
15.9736
15.9763
15.9695
15.959
15.9461
15.9288
15.9335
15.9407
15.9222
15.9361
15.9125
15.9267
15.9215
15.9307
15.904
15.9086
15.8938
15.8995
15.8873
15.9084
15.9352
15.9811
16.0137
16.0376
16.0615
0.387349
1.79723
7.58039
12.5701
15.4842
16.7525
17.2962
17.5291
17.6392
17.7008
17.7347
17.7569
17.7702
17.7781
17.7841
17.7877
17.7896
17.7899
17.7906
17.7909
17.7933
17.7937
17.7938
17.7943
17.7952
17.7945
17.794
17.7936
17.7936
17.7917
17.7899
17.7858
17.782
17.7726
17.7663
17.7566
17.7493
17.7328
17.7228
17.7067
17.6975
17.6818
17.6671
17.6506
17.6391
17.6319
17.6268
17.623
17.6169
17.6052
17.6149
17.6184
17.6117
17.6007
17.5867
17.5678
17.5723
17.5805
17.5608
17.5758
17.5504
17.5656
17.5603
17.5707
17.5422
17.5467
17.5302
17.5358
17.5225
17.544
17.5717
17.62
17.6547
17.6797
17.7055
0.391912
1.87068
8.10631
13.6379
16.9096
18.3378
18.9663
19.242
19.3767
19.4525
19.4943
19.5213
19.5373
19.5468
19.5538
19.5579
19.5602
19.5605
19.5613
19.5617
19.5642
19.5647
19.5649
19.5654
19.5663
19.5656
19.5651
19.5646
19.5647
19.5627
19.561
19.5567
19.5528
19.543
19.5365
19.5261
19.5185
19.5012
19.4908
19.4735
19.4638
19.4475
19.4319
19.4142
19.4016
19.3941
19.3888
19.3848
19.3781
19.3653
19.3751
19.3797
19.3733
19.362
19.3469
19.3264
19.3306
19.3397
19.319
19.335
19.3079
19.324
19.3187
19.3302
19.3004
19.3046
19.2865
19.2919
19.2773
19.2988
19.3272
19.3774
19.4139
19.44
19.4674
0.396137
1.92095
8.60533
14.7259
18.3938
20.0034
20.7309
21.0577
21.2223
21.3153
21.3666
21.3993
21.4184
21.4298
21.4378
21.4426
21.4453
21.4458
21.4467
21.447
21.4497
21.4503
21.4505
21.4511
21.452
21.4512
21.4507
21.4502
21.4504
21.4484
21.4468
21.4423
21.4383
21.4282
21.4215
21.4105
21.4026
21.3848
21.374
21.3556
21.3455
21.3287
21.3124
21.2935
21.2797
21.272
21.2666
21.2623
21.255
21.2412
21.2511
21.2568
21.2508
21.2393
21.2233
21.2012
21.2048
21.215
21.1935
21.2103
21.1817
21.1985
21.1934
21.2059
21.1751
21.1789
21.1592
21.1643
21.1486
21.1697
21.1985
21.2502
21.2882
21.315
21.344
0.399419
1.94441
9.06391
15.8128
19.9132
21.7273
22.569
22.9564
23.1567
23.2699
23.3326
23.372
23.3947
23.4083
23.4174
23.423
23.4261
23.4268
23.4279
23.4282
23.431
23.4318
23.4319
23.4325
23.4334
23.4327
23.4321
23.4317
23.4319
23.4299
23.4284
23.4238
23.4197
23.4094
23.4027
23.3912
23.383
23.3647
23.3537
23.3344
23.3238
23.3067
23.2898
23.2698
23.255
23.247
23.2416
23.237
23.2292
23.2144
23.2242
23.2311
23.2257
23.2141
23.1972
23.1738
23.1766
23.1877
23.1658
23.1831
23.1534
23.1706
23.1657
23.1792
23.1478
23.1512
23.1302
23.1348
23.1181
23.1384
23.1672
23.2199
23.2591
23.2864
23.3168
0.401541
1.93833
9.46279
16.8667
21.4314
23.474
24.4464
24.9045
25.1469
25.284
25.36
25.4073
25.4341
25.4501
25.4606
25.467
25.4707
25.4716
25.4728
25.4731
25.476
25.4769
25.4771
25.4778
25.4786
25.4779
25.4773
25.4769
25.4771
25.4752
25.4739
25.4691
25.4651
25.4547
25.4479
25.436
25.4276
25.4091
25.3979
25.3778
25.3668
25.3496
25.3322
25.3113
25.2954
25.2873
25.2818
25.277
25.2687
25.2531
25.2626
25.2707
25.266
25.2545
25.2368
25.2123
25.2143
25.2262
25.2041
25.2218
25.1913
25.2086
25.2039
25.2183
25.1869
25.1896
25.1675
25.1716
25.1541
25.1734
25.2019
25.2549
25.295
25.3225
25.3541
0.402484
1.90088
9.77807
17.8462
22.9009
25.1969
26.3174
26.8575
27.1492
27.314
27.4057
27.4618
27.4933
27.5122
27.5241
27.5316
27.5357
27.5369
27.5384
27.5386
27.5416
27.5427
27.5429
27.5436
27.5444
27.5437
27.5431
27.5427
27.543
27.5411
27.54
27.5352
27.5312
27.5208
27.5141
27.5018
27.4933
27.4747
27.4634
27.4428
27.4314
27.4142
27.3965
27.375
27.3582
27.3499
27.3443
27.3393
27.3307
27.3144
27.3235
27.3327
27.3289
27.3175
27.2993
27.274
27.2749
27.2874
27.2656
27.2833
27.2524
27.2696
27.2652
27.2803
27.2493
27.2514
27.2286
27.2321
27.214
27.2319
27.2598
27.3125
27.3531
27.3807
27.413
0.402346
1.83141
9.98286
18.7024
24.2655
26.8405
28.1277
28.762
29.1108
29.3076
29.4174
29.4836
29.5206
29.5426
29.5562
29.5647
29.5695
29.571
29.5727
29.5729
29.576
29.5772
29.5775
29.5782
29.5789
29.5783
29.5776
29.5773
29.5776
29.5759
29.5749
29.5701
29.5662
29.556
29.5493
29.5369
29.5283
29.5098
29.4985
29.4775
29.4659
29.4489
29.431
29.409
29.3915
29.383
29.3775
29.3723
29.3633
29.3467
29.3552
29.3654
29.3625
29.3514
29.3329
29.3071
29.307
29.3198
29.2986
29.316
29.2853
29.302
29.2979
29.3134
29.2835
29.2849
29.2618
29.2646
29.2463
29.2625
29.2896
29.3414
29.3821
29.4094
29.4422
0.401307
1.73084
10.0495
19.3817
25.4627
28.3428
29.8163
30.5583
30.9726
31.206
31.3367
31.4144
31.4577
31.4833
31.4987
31.5084
31.5139
31.5158
31.5177
31.5179
31.521
31.5225
31.5228
31.5235
31.5241
31.5236
31.5229
31.5226
31.523
31.5213
31.5205
31.5158
31.512
31.502
31.4955
31.4831
31.4744
31.4562
31.445
31.424
31.4122
31.3954
31.3776
31.3554
31.3373
31.3288
31.3233
31.318
31.3088
31.2921
31.2999
31.3108
31.3089
31.2983
31.2796
31.2537
31.2525
31.2654
31.2452
31.2621
31.2319
31.2479
31.2441
31.2598
31.2315
31.2323
31.2092
31.2113
31.1932
31.2075
31.2334
31.2838
31.3241
31.3509
31.3837
0.399596
1.60205
9.95235
19.8288
26.427
29.6377
31.3183
32.1827
32.6717
32.947
33.1016
33.1923
33.2426
33.2722
33.2898
33.3007
33.307
33.3094
33.3115
33.3118
33.3149
33.3165
33.3169
33.3176
33.3182
33.3177
33.317
33.3168
33.3172
33.3156
33.315
33.3105
33.3067
33.2972
33.2908
33.2786
33.2698
33.2522
33.2412
33.2204
33.2084
33.1921
33.1745
33.1524
33.134
33.1254
33.12
33.1146
33.1052
33.0888
33.0957
33.1072
33.1062
33.0963
33.0777
33.0521
33.0498
33.0625
33.0436
33.0596
33.0306
33.0455
33.0421
33.0577
33.0315
33.0317
33.0091
33.0105
32.9929
33.0052
33.0297
33.0781
33.1176
33.1435
33.1759
0.397467
1.45021
9.67131
19.9904
27.092
30.6579
32.5671
33.5699
34.1436
34.4665
34.6485
34.7538
34.8123
34.8463
34.8663
34.8787
34.8858
34.8886
34.8911
34.8915
34.8945
34.8963
34.8967
34.8975
34.898
34.8976
34.8969
34.8967
34.8972
34.8956
34.8952
34.8909
34.8873
34.8783
34.8722
34.8603
34.8515
34.8346
34.8238
34.8036
34.7915
34.7758
34.7585
34.7369
34.7184
34.7098
34.7045
34.699
34.6896
34.6736
34.6796
34.6914
34.6915
34.6822
34.6641
34.6391
34.6358
34.648
34.6308
34.6456
34.6181
34.6318
34.6289
34.644
34.6204
34.62
34.5983
34.599
34.5822
34.5926
34.6155
34.6613
34.6995
34.7245
34.756
0.39517
1.28282
9.19504
19.8195
27.3948
31.3372
33.4973
34.6557
35.3251
35.702
35.9151
36.037
36.1047
36.1437
36.1663
36.1803
36.1883
36.1918
36.1945
36.1951
36.1981
36.2
36.2005
36.2013
36.2017
36.2014
36.2007
36.2006
36.2011
36.1996
36.1994
36.1953
36.1919
36.1835
36.1777
36.1663
36.1576
36.1416
36.1311
36.1116
36.0996
36.0846
36.0679
36.0469
36.0285
36.02
36.0148
36.0093
36
35.9848
35.9898
36.0017
36.0027
35.9942
35.9767
35.9529
35.9486
35.96
35.9447
35.9582
35.9326
35.9448
35.9424
35.9569
35.9361
35.9354
35.9148
35.915
35.8993
35.9079
35.9289
35.9717
36.0083
36.0321
36.0622
0.392926
1.1093
8.52444
19.2798
27.2786
31.6135
34.0466
35.3793
36.1563
36.5946
36.843
36.9837
37.0618
37.1064
37.1321
37.1478
37.1569
37.161
37.1641
37.1649
37.1677
37.1699
37.1704
37.1713
37.1716
37.1713
37.1706
37.1706
37.1711
37.1698
37.1697
37.1659
37.1627
37.1549
37.1495
37.1387
37.1302
37.1152
37.1051
37.0867
37.0749
37.0606
37.0446
37.0245
37.0066
36.9982
36.9931
36.9876
36.9786
36.9643
36.9683
36.98
36.9819
36.9744
36.9578
36.9353
36.9302
36.9406
36.9273
36.9393
36.9161
36.9267
36.9249
36.9384
36.9208
36.9197
36.9006
36.9003
36.8861
36.8929
36.912
36.9514
36.9859
37.0084
37.0368
0.390904
0.940239
7.67539
18.3507
26.6973
31.4317
34.1589
35.6859
36.5839
37.092
37.3806
37.5428
37.6328
37.6837
37.7128
37.7304
37.7406
37.7455
37.7489
37.75
37.7527
37.755
37.7556
37.7566
37.7568
37.7566
37.756
37.756
37.7565
37.7553
37.7553
37.7519
37.7489
37.7419
37.7368
37.7268
37.7185
37.7047
37.6951
37.6779
37.6664
37.653
37.6378
37.6189
37.6016
37.5934
37.5885
37.5831
37.5743
37.5612
37.5643
37.5755
37.5782
37.5717
37.5563
37.5354
37.5297
37.5388
37.5277
37.538
37.5175
37.5264
37.5252
37.5377
37.5232
37.5221
37.5047
37.5039
37.4914
37.4966
37.5137
37.5494
37.5816
37.6027
37.6291
0.389212
0.786005
6.68042
17.032
25.62
30.7472
33.787
35.5297
36.564
37.1521
37.4867
37.6735
37.7771
37.8352
37.8682
37.8879
37.8993
37.9051
37.9089
37.9102
37.9129
37.9152
37.916
37.917
37.9171
37.917
37.9164
37.9165
37.917
37.9159
37.916
37.913
37.9103
37.904
37.8993
37.8902
37.8823
37.8698
37.8607
37.8449
37.8339
37.8214
37.8072
37.7896
37.7733
37.7653
37.7607
37.7554
37.747
37.735
37.7373
37.7478
37.7513
37.7458
37.7318
37.7128
37.7067
37.7144
37.7055
37.7141
37.6963
37.7037
37.703
37.7144
37.7031
37.7019
37.6864
37.6854
37.6747
37.6786
37.6937
37.7255
37.7551
37.7746
37.7987
0.387892
0.655096
5.58864
15.3493
24.0359
29.5298
32.8961
34.8771
36.0656
36.746
37.134
37.3497
37.4691
37.5354
37.5728
37.5948
37.6077
37.6143
37.6185
37.6202
37.6228
37.6251
37.626
37.627
37.6272
37.6271
37.6266
37.6267
37.6271
37.6262
37.6263
37.6238
37.6213
37.6159
37.6117
37.6035
37.5961
37.5849
37.5764
37.5622
37.5518
37.5404
37.5272
37.5111
37.496
37.4883
37.4839
37.4789
37.4709
37.4603
37.4619
37.4715
37.4755
37.4712
37.4587
37.4418
37.4356
37.4418
37.4348
37.4418
37.4268
37.4328
37.4327
37.4428
37.4345
37.4335
37.42
37.419
37.4102
37.4131
37.4261
37.454
37.4807
37.4987
37.5202
0.386931
0.552468
4.46341
13.3572
21.9598
27.7683
31.4678
33.711
35.0751
35.8638
36.3147
36.5647
36.7027
36.7787
36.8212
36.8458
36.8601
36.8677
36.8723
36.8744
36.8769
36.8793
36.8803
36.8813
36.8815
36.8814
36.881
36.8811
36.8815
36.8808
36.8809
36.8788
36.8767
36.8721
36.8684
36.8611
36.8544
36.8445
36.8368
36.8242
36.8146
36.8042
36.7923
36.7777
36.764
36.7568
36.7527
36.7479
36.7405
36.7312
36.7322
36.7408
36.7453
36.7421
36.7313
36.7166
36.7105
36.7153
36.7101
36.7156
36.7034
36.708
36.7086
36.7174
36.712
36.7113
36.6998
36.6988
36.6919
36.6941
36.7051
36.7292
36.7529
36.7692
36.788
0.386278
0.47856
3.37704
11.1425
19.4382
25.4763
29.5053
32.0362
33.6027
34.52
35.0465
35.338
35.4983
35.5858
35.6343
35.6619
35.6777
35.6863
35.6914
35.6939
35.6963
35.6987
35.6998
35.7009
35.701
35.701
35.7007
35.7008
35.7011
35.7005
35.7007
35.699
35.6972
35.6934
35.6903
35.6841
35.678
35.6696
35.6627
35.6518
35.6431
35.6338
35.6233
35.6104
35.5982
35.5915
35.5877
35.5833
35.5766
35.5686
35.5691
35.5767
35.5814
35.5794
35.5704
35.558
35.5523
35.5557
35.5521
35.5563
35.5467
35.5504
35.5514
35.5591
35.5561
35.5558
35.5465
35.5457
35.5406
35.5422
35.5514
35.5717
35.5923
35.6069
35.623
0.385862
0.429736
2.40266
8.82328
16.5549
22.6998
27.0417
29.8883
31.6908
32.7626
33.3808
33.7232
33.9107
34.0121
34.0675
34.0985
34.1161
34.1257
34.1313
34.1341
34.1365
34.1389
34.14
34.1411
34.1413
34.1413
34.1411
34.1411
34.1415
34.141
34.1412
34.1399
34.1384
34.1354
34.1329
34.1277
34.1225
34.1154
34.1094
34.1002
34.0925
34.0845
34.0754
34.0643
34.0538
34.0478
34.0443
34.0403
34.0343
34.0277
34.0279
34.0344
34.0392
34.0383
34.0313
34.0212
34.016
34.0183
34.0161
34.0191
34.012
34.0149
34.0164
34.023
34.0222
34.0224
34.0151
34.0146
34.0112
34.0124
34.0199
34.0365
34.0541
34.067
34.0804
0.385611
0.400107
1.60326
6.54431
13.4371
19.5279
24.1537
27.3478
29.4269
30.6846
31.4136
31.818
32.0383
32.1563
32.2199
32.2548
32.2742
32.2849
32.2909
32.2941
32.2965
32.2987
32.2999
32.301
32.3012
32.3012
32.3011
32.3011
32.3014
32.3011
32.3013
32.3004
32.2993
32.297
32.295
32.2908
32.2865
32.2807
32.2757
32.2682
32.2617
32.2549
32.2472
32.2379
32.2292
32.224
32.221
32.2174
32.2123
32.2069
32.207
32.2125
32.2172
32.2173
32.2123
32.2045
32.2002
32.2016
32.2004
32.2026
32.1977
32.2
32.202
32.2077
32.2085
32.2092
32.204
32.2039
32.2019
32.2029
32.2087
32.222
32.2365
32.2476
32.2585
0.385466
0.383609
1.01924
4.4664
10.2598
16.1111
20.9858
24.5633
26.9626
28.4377
29.2967
29.7737
30.0322
30.1694
30.2423
30.2814
30.3028
30.3144
30.3209
30.3244
30.3267
30.3288
30.3301
30.3311
30.3313
30.3314
30.3313
30.3313
30.3315
30.3314
30.3316
30.3309
30.3302
30.3286
30.3271
30.3239
30.3204
30.3159
30.3118
30.3059
30.3006
30.2951
30.2888
30.2814
30.2744
30.2701
30.2675
30.2644
30.2603
30.256
30.2562
30.2608
30.2654
30.2663
30.2632
30.2575
30.2542
30.2551
30.2548
30.2565
30.2535
30.2555
30.2579
30.2628
30.2648
30.2659
30.2626
30.2629
30.2621
30.2629
30.2672
30.2774
30.289
30.2984
30.3071
0.385385
0.375235
0.655681
2.74836
7.25421
12.6968
17.7928
21.7835
24.5334
26.2455
27.2453
27.8005
28.1
28.2577
28.3403
28.3837
28.4069
28.4194
28.4262
28.4298
28.4321
28.4341
28.4353
28.4362
28.4364
28.4365
28.4364
28.4364
28.4367
28.4366
28.4368
28.4364
28.436
28.4349
28.4339
28.4315
28.4289
28.4255
28.4223
28.4177
28.4136
28.4092
28.4044
28.3986
28.3933
28.3898
28.3878
28.3851
28.3819
28.3787
28.3791
28.383
28.3874
28.3889
28.3875
28.3837
28.3816
28.3822
28.3826
28.3839
28.3827
28.3845
28.3873
28.3914
28.3942
28.3955
28.394
28.3947
28.3947
28.3953
28.3984
28.4058
28.4149
28.4226
28.4294
0.385339
0.371422
0.474193
1.5241
4.73367
9.69881
14.9987
19.3885
22.471
24.4046
25.5346
26.1619
26.4988
26.675
26.7662
26.8134
26.8381
26.851
26.858
26.8618
26.8639
26.8657
26.8669
26.8677
26.8679
26.868
26.868
26.868
26.8682
26.8682
26.8684
26.8682
26.868
26.8673
26.8666
26.8649
26.863
26.8603
26.8579
26.8542
26.8511
26.8476
26.8441
26.8396
26.8359
26.833
26.8314
26.829
26.8268
26.8245
26.8252
26.8285
26.8328
26.8346
26.8345
26.8321
26.8312
26.8317
26.8328
26.8339
26.8341
26.8359
26.839
26.8424
26.8455
26.8466
26.8465
26.8476
26.8484
26.8486
26.8507
26.856
26.8632
26.8695
26.8749
0.385318
0.37002
0.407808
0.885735
3.16399
7.77656
13.2223
17.884
21.1881
23.2675
24.4829
25.1569
25.5179
25.7058
25.8023
25.8516
25.8771
25.8902
25.8972
25.9008
25.9029
25.9045
25.9056
25.9064
25.9066
25.9066
25.9066
25.9066
25.9069
25.9068
25.9071
25.9069
25.9069
25.9064
25.9059
25.9044
25.903
25.9007
25.8987
25.8955
25.8932
25.8901
25.8874
25.8838
25.8813
25.8788
25.8775
25.875
25.8736
25.8718
25.8733
25.8761
25.8802
25.8817
25.8826
25.881
25.8811
25.8816
25.8833
25.884
25.8856
25.8873
25.8908
25.8932
25.8962
25.8964
25.8977
25.899
25.9004
25.9002
25.9019
25.9059
25.9121
25.9176
25.9222
0.38532
0.370172
0.410831
0.889215
3.15537
7.75097
13.1831
17.8387
21.1407
23.2193
24.4341
25.1072
25.4673
25.6543
25.7502
25.7989
25.824
25.8367
25.8435
25.847
25.8491
25.8507
25.8517
25.8524
25.8526
25.8526
25.8525
25.8525
25.8529
25.8529
25.8531
25.8528
25.8529
25.8522
25.8517
25.85
25.8489
25.8464
25.8445
25.841
25.839
25.8356
25.8335
25.8298
25.8282
25.8254
25.8242
25.821
25.8203
25.8186
25.8212
25.8234
25.8275
25.8281
25.8295
25.8276
25.8289
25.829
25.8314
25.8314
25.8344
25.8358
25.8397
25.8405
25.8433
25.8416
25.8442
25.8454
25.8477
25.847
25.8491
25.8527
25.8593
25.8647
25.8694
0.385347
0.371995
0.48658
1.54659
4.72454
9.63625
14.8945
19.2643
22.3397
24.2704
25.3984
26.0229
26.3573
26.531
26.6206
26.6661
26.6898
26.7016
26.7082
26.7115
26.7136
26.7152
26.7162
26.7169
26.7171
26.717
26.717
26.717
26.7175
26.7174
26.7176
26.7171
26.7172
26.7161
26.7154
26.713
26.7118
26.7086
26.7064
26.7018
26.6999
26.6954
26.6933
26.6887
26.6878
26.684
26.6827
26.6779
26.678
26.6757
26.6799
26.6815
26.6859
26.6845
26.6863
26.6829
26.6855
26.6848
26.6879
26.6866
26.6913
26.6919
26.6967
26.6951
26.6978
26.6929
26.6971
26.698
26.7015
26.7
26.7035
26.7076
26.7161
26.7223
26.728
0.385398
0.376627
0.687377
2.80507
7.25921
12.6168
17.6481
21.6061
24.3431
26.0494
27.0451
27.5955
27.8912
28.0449
28.1252
28.1662
28.188
28.1988
28.2051
28.2081
28.2104
28.212
28.2131
28.2137
28.214
28.2139
28.2139
28.2139
28.2144
28.2143
28.2145
28.2137
28.2138
28.212
28.211
28.2074
28.2062
28.2017
28.1991
28.1927
28.1908
28.1845
28.1823
28.1757
28.1756
28.1702
28.1689
28.1616
28.1625
28.1589
28.1655
28.1662
28.1712
28.167
28.1691
28.1631
28.1675
28.1654
28.1697
28.1661
28.1729
28.1723
28.1786
28.1737
28.1767
28.1674
28.1736
28.1739
28.1792
28.1765
28.1822
28.1876
28.199
28.2066
28.214
0.385489
0.386606
1.08284
4.5677
10.2849
16.0263
20.8219
24.3577
26.7394
28.2054
29.0583
29.5285
29.7823
29.9145
29.9849
30.021
30.041
30.0505
30.0566
30.0593
30.0617
30.0634
30.0646
30.0652
30.0655
30.0653
30.0654
30.0653
30.0661
30.0658
30.0661
30.0647
30.0649
30.0623
30.061
30.0558
30.0547
30.0485
30.0455
30.0366
30.0349
30.0261
30.0239
30.0145
30.0155
30.0078
30.0069
29.9961
29.9982
29.9925
30.0024
30.0019
30.0081
29.9999
30.0027
29.993
29.9998
29.9957
30.0018
29.9949
30.0047
30.0022
30.0109
30.0017
30.0059
29.9903
29.9995
29.9988
30.0065
30.002
30.0109
30.0177
30.033
30.0423
30.052
0.385647
0.406036
1.71
6.6951
13.4843
19.4466
23.9864
27.1345
29.1933
30.4393
31.1608
31.5569
31.7721
31.8843
31.9456
31.9772
31.9955
32.0037
32.0095
32.0118
32.0145
32.0163
32.0176
32.0181
32.0184
32.0182
32.0183
32.0182
32.0192
32.0187
32.0193
32.0171
32.0175
32.0139
32.0124
32.0053
32.0045
31.9962
31.993
31.9809
31.98
31.9679
31.9661
31.9531
31.9557
31.9451
31.9453
31.9299
31.9339
31.9251
31.9392
31.9371
31.9453
31.9321
31.9361
31.9214
31.9318
31.925
31.9337
31.9224
31.9359
31.9308
31.9432
31.9284
31.935
31.9113
31.9247
31.9226
31.9333
31.9264
31.9392
31.9475
31.9672
31.9783
31.9909
0.385919
0.440602
2.56076
9.02426
16.6252
22.6282
26.8822
29.6822
31.4637
32.5227
33.1328
33.4659
33.6485
33.7435
33.7972
33.8248
33.8416
33.8485
33.8542
33.8561
33.859
33.861
33.8623
33.8627
33.8631
33.8627
33.8629
33.8627
33.864
33.8634
33.8641
33.8612
33.8619
33.8571
33.8555
33.8461
33.846
33.8353
33.8322
33.8164
33.8167
33.801
33.7998
33.7825
33.7873
33.7735
33.7753
33.7544
33.7609
33.7483
33.7677
33.7636
33.7743
33.755
33.7611
33.7403
33.7553
33.7452
33.7573
33.7405
33.7586
33.7503
33.7674
33.7458
33.7563
33.7227
33.7415
33.7373
33.752
33.7419
33.7594
33.7689
33.7936
33.8063
33.8222
0.386369
0.497056
3.59094
11.3916
19.5322
25.4197
29.3619
31.8479
33.3943
34.2985
34.8173
35.0988
35.2549
35.3358
35.3833
35.4074
35.4231
35.4286
35.4342
35.4356
35.439
35.4409
35.4424
35.4426
35.4431
35.4426
35.4428
35.4425
35.4442
35.4433
35.4444
35.4404
35.4416
35.4355
35.4341
35.4221
35.4231
35.4097
35.407
35.3871
35.3891
35.3693
35.3693
35.347
35.3547
35.3372
35.3414
35.3142
35.3239
35.3066
35.3323
35.3256
35.3396
35.3133
35.3221
35.2943
35.315
35.3009
35.3172
35.2939
35.3175
35.3052
35.3283
35.2988
35.3144
35.2693
35.2947
35.288
35.3072
35.2933
35.3163
35.3267
35.3567
35.3709
35.3904
0.387072
0.581632
4.73357
13.6505
22.0785
27.731
31.3466
33.5475
34.8933
35.6695
36.1138
36.3534
36.488
36.5572
36.5997
36.6208
36.6355
36.6396
36.6453
36.6462
36.6499
36.6519
36.6534
36.6534
36.6541
36.6534
36.6537
36.6533
36.6553
36.6542
36.6556
36.6506
36.6524
36.6449
36.6438
36.629
36.6313
36.6152
36.6132
36.5887
36.593
36.5688
36.5704
36.5427
36.5539
36.5324
36.5396
36.5053
36.519
36.4963
36.5291
36.5194
36.5372
36.503
36.5154
36.4797
36.5072
36.4884
36.5097
36.4789
36.5087
36.492
36.522
36.4834
36.5056
36.4474
36.4808
36.4708
36.4954
36.477
36.5061
36.5172
36.5527
36.568
36.5914
0.3881
0.697682
5.91187
15.6821
24.1796
29.515
32.8009
34.7425
35.915
36.5841
36.9667
37.1717
37.2889
37.3481
37.3867
37.405
37.419
37.4217
37.4275
37.4278
37.432
37.4339
37.4355
37.4352
37.4362
37.4352
37.4357
37.4351
37.4375
37.4362
37.4379
37.4317
37.4342
37.4253
37.4246
37.407
37.4109
37.3918
37.3909
37.3617
37.3687
37.3398
37.3435
37.3099
37.3251
37.2993
37.3101
37.2682
37.2865
37.2579
37.2984
37.2852
37.3074
37.2647
37.2813
37.2372
37.2721
37.2482
37.2749
37.2361
37.2726
37.251
37.2887
37.2402
37.27
37.1978
37.24
37.2263
37.2568
37.2335
37.2693
37.2805
37.3217
37.3381
37.3655
0.389507
0.843885
7.05057
17.399
25.7887
30.7567
33.7198
35.4259
36.4468
37.0247
37.3553
37.5313
37.6339
37.6846
37.7198
37.7356
37.7489
37.7502
37.7562
37.756
37.7606
37.7624
37.7641
37.7636
37.7648
37.7636
37.7642
37.7634
37.7662
37.7646
37.7667
37.7594
37.7626
37.7522
37.7521
37.7315
37.7372
37.7153
37.7156
37.6815
37.6916
37.6579
37.664
37.6244
37.6439
37.6138
37.6286
37.5788
37.602
37.5673
37.6158
37.5989
37.6255
37.574
37.5954
37.5425
37.5854
37.5562
37.5886
37.5413
37.5848
37.5582
37.6038
37.5451
37.5833
37.4963
37.548
37.5302
37.567
37.5387
37.5815
37.5925
37.6393
37.6565
37.6879
0.391302
1.01408
8.0842
18.7459
26.89
31.4658
34.12
35.613
36.5
36.9992
37.2851
37.4362
37.5264
37.5695
37.6019
37.6153
37.6281
37.628
37.6342
37.6335
37.6386
37.6402
37.642
37.6412
37.6426
37.6412
37.6419
37.641
37.6441
37.6423
37.6447
37.6363
37.6403
37.6284
37.6289
37.6055
37.6132
37.5883
37.59
37.5512
37.5644
37.5262
37.5348
37.4893
37.5132
37.4789
37.4979
37.4401
37.4686
37.4277
37.4842
37.4634
37.4945
37.4342
37.4605
37.399
37.45
37.4153
37.4535
37.3977
37.4482
37.4166
37.4703
37.4011
37.4481
37.3463
37.4079
37.3857
37.429
37.3955
37.4456
37.456
37.5083
37.5261
37.5615
0.393438
1.19855
8.96232
19.697
27.4932
31.6712
34.035
35.3358
36.104
36.5343
36.7814
36.9106
36.9901
37.0264
37.0563
37.0676
37.0799
37.0785
37.0849
37.0838
37.0892
37.0906
37.0926
37.0915
37.0932
37.0915
37.0924
37.0912
37.0947
37.0928
37.0954
37.0859
37.0907
37.0775
37.0786
37.0525
37.0621
37.0345
37.0377
36.9943
37.0107
36.9682
36.9794
36.9282
36.9564
36.9183
36.9413
36.8759
36.9096
36.8627
36.9269
36.9023
36.9376
36.8689
36.9001
36.8304
36.8893
36.8493
36.8932
36.8291
36.8863
36.85
36.9114
36.8321
36.8878
36.7717
36.843
36.8164
36.8662
36.8278
36.885
36.8947
36.9521
36.9704
37.0096
0.3958
1.38585
9.6518
20.2521
27.6284
31.4163
33.5104
34.6389
35.3013
35.6711
35.884
35.994
36.064
36.0943
36.122
36.1312
36.1431
36.1405
36.147
36.1455
36.1514
36.1526
36.1547
36.1533
36.1552
36.1533
36.1544
36.153
36.1567
36.1547
36.1575
36.1471
36.1525
36.1381
36.1398
36.1114
36.1227
36.0927
36.0973
36.0498
36.0693
36.0229
36.0365
35.9802
36.0123
35.9708
35.9978
35.9252
35.9639
35.9116
35.9828
35.9546
35.9938
35.9172
35.9532
35.876
35.9423
35.8973
35.9463
35.8747
35.938
35.8975
35.9659
35.8772
35.9412
35.8118
35.8922
35.8616
35.9176
35.8747
35.9386
35.9474
36.0094
36.0282
36.0707
0.398211
1.56462
10.1368
20.4313
27.3406
30.7551
32.6016
33.5761
34.1444
34.4608
34.6435
34.7365
34.7981
34.8229
34.8487
34.856
34.8675
34.8637
34.8705
34.8686
34.8749
34.8757
34.878
34.8763
34.8785
34.8764
34.8776
34.876
34.88
34.8778
34.8809
34.8696
34.8756
34.8601
34.8623
34.8319
34.8448
34.8128
34.8186
34.7676
34.7898
34.7402
34.7559
34.6952
34.7309
34.6865
34.717
34.6382
34.6814
34.6244
34.7017
34.6703
34.7127
34.6292
34.6695
34.5858
34.6587
34.6094
34.6629
34.5846
34.6532
34.6092
34.6836
34.5865
34.6581
34.5169
34.6056
34.5713
34.633
34.5863
34.6563
34.664
34.7301
34.7491
34.7945
0.40044
1.72495
10.4169
20.271
26.6858
29.749
31.3699
32.2076
32.6924
32.9616
33.1176
33.1955
33.2497
33.2696
33.2936
33.2992
33.3103
33.3056
33.3125
33.3104
33.3168
33.3175
33.3198
33.3179
33.3203
33.3181
33.3194
33.3176
33.3217
33.3195
33.3226
33.3107
33.3171
33.3008
33.3035
33.2714
33.2857
33.2521
33.259
33.2051
33.2297
33.1774
33.1951
33.1307
33.1695
33.1228
33.1563
33.0723
33.1195
33.0586
33.1409
33.1068
33.1516
33.0625
33.1064
33.0175
33.0958
33.0431
33.1002
33.0164
33.0893
33.0426
33.1218
33.0177
33.0956
32.9447
33.0405
33.0031
33.0698
33.0199
33.0953
33.102
33.1714
33.1906
33.2383
0.402232
1.85923
10.5043
19.8183
25.7268
28.4639
29.8806
30.5972
31.0083
31.2359
31.3684
31.4329
31.4805
31.496
31.5184
31.5224
31.5331
31.5276
31.5346
31.5323
31.539
31.5393
31.5417
31.5396
31.5423
31.5399
31.5413
31.5394
31.5436
31.5413
31.5444
31.532
31.5388
31.5218
31.5248
31.4917
31.507
31.4722
31.4799
31.4241
31.4505
31.3964
31.4154
31.3485
31.3896
31.3414
31.3772
31.2893
31.3397
31.276
31.362
31.3257
31.3722
31.2787
31.3255
31.2329
31.3154
31.26
31.3198
31.2318
31.3079
31.2594
31.342
31.2324
31.3153
31.157
31.2585
31.2187
31.2895
31.2375
31.3171
31.3229
31.3947
31.414
31.4634
0.403324
1.9624
10.4205
19.1269
24.5295
26.967
28.2002
28.8102
29.1564
29.3475
29.4594
29.512
29.5538
29.5655
29.5863
29.589
29.5993
29.5931
29.6002
29.5977
29.6044
29.6045
29.6069
29.6048
29.6076
29.6051
29.6066
29.6045
29.6088
29.6065
29.6095
29.5968
29.6037
29.5864
29.5896
29.5558
29.5718
29.5364
29.5447
29.4877
29.5154
29.4603
29.4803
29.4117
29.4544
29.4056
29.443
29.3524
29.4052
29.3398
29.4281
29.3903
29.4376
29.3412
29.39
29.2952
29.3806
29.3234
29.3848
29.2942
29.3722
29.3229
29.4074
29.294
29.3804
29.2172
29.3228
29.2815
29.3553
29.3021
29.3849
29.39
29.4633
29.4826
29.533
0.403482
2.03186
10.1927
18.2527
23.16
25.3245
26.3937
26.9104
27.2001
27.3592
27.453
27.4954
27.5319
27.5402
27.5595
27.5611
27.5709
27.5643
27.5713
27.5687
27.5755
27.5754
27.5778
27.5755
27.5785
27.5758
27.5775
27.5753
27.5796
27.5773
27.5801
27.5673
27.5743
27.5568
27.5601
27.5262
27.5425
27.507
27.5155
27.4582
27.4866
27.4313
27.4518
27.3827
27.4262
27.3775
27.4157
27.324
27.3782
27.3122
27.4013
27.3628
27.4099
27.3122
27.3622
27.2667
27.3534
27.2956
27.3575
27.2657
27.3445
27.2952
27.3801
27.2648
27.353
27.1876
27.2956
27.2536
27.3293
27.2759
27.3608
27.3652
27.4391
27.4584
27.509
0.402524
2.06713
9.85023
17.2505
21.6811
23.5987
24.5225
24.9582
25.1988
25.3301
25.4083
25.4416
25.4735
25.479
25.4968
25.4974
25.5067
25.4998
25.5067
25.5041
25.5108
25.5105
25.5129
25.5106
25.5136
25.5109
25.5126
25.5104
25.5146
25.5123
25.515
25.5022
25.5091
25.4917
25.4949
25.4614
25.4778
25.4425
25.4511
25.3943
25.4228
25.3681
25.3886
25.32
25.3636
25.3157
25.3539
25.2625
25.3172
25.2517
25.3404
25.3016
25.3478
25.2502
25.3005
25.2058
25.2926
25.235
25.2964
25.2049
25.2832
25.2348
25.3187
25.2032
25.2917
25.1267
25.2354
25.1935
25.2701
25.2174
25.3031
25.3071
25.3807
25.3999
25.45
0.40035
2.06929
9.42168
16.1704
20.1498
21.8459
22.6417
23.0075
23.206
23.3134
23.378
23.4037
23.4314
23.4345
23.4509
23.4507
23.4594
23.4524
23.459
23.4565
23.463
23.4626
23.4649
23.4627
23.4657
23.463
23.4647
23.4624
23.4665
23.4643
23.4667
23.4542
23.4608