/*--------------------------------*- C++ -*----------------------------------*\
  =========                 |
  \\      /  F ield         | OpenFOAM: The Open Source CFD Toolbox
   \\    /   O peration     | Website:  https://openfoam.org
    \\  /    A nd           | Version:  7
     \\/     M anipulation  |
\*---------------------------------------------------------------------------*/
FoamFile
{
    version     2.0;
    format      ascii;
    class       volScalarField;
    location    "50";
    object      nut;
}
// * * * * * * * * * * * * * * * * * * * * * * * * * * * * * * * * * * * * * //

dimensions      [0 2 -1 0 0 0 0];

internalField   nonuniform List<scalar> 
4500
(
0.000505935
0.000511413
0.000579328
0.000662831
0.000707857
0.000727596
0.000735118
0.000738551
0.000739789
0.000740554
0.000740807
0.000741012
0.000741102
0.000741169
0.000741233
0.000741265
0.000741274
0.000741272
0.00074128
0.000741288
0.000741328
0.000741342
0.000741345
0.000741354
0.000741364
0.000741352
0.000741344
0.000741346
0.000741344
0.000741308
0.000741268
0.000741208
0.000741135
0.000740982
0.000740864
0.000740714
0.000740588
0.000740307
0.000740121
0.000739871
0.000739717
0.000739441
0.000739201
0.000738958
0.000738788
0.000738645
0.000738542
0.000738481
0.000738403
0.000738254
0.000738434
0.000738468
0.000738343
0.000738162
0.000737952
0.000737664
0.00073776
0.00073787
0.000737566
0.000737805
0.000737437
0.000737663
0.000737572
0.000737692
0.000737241
0.000737297
0.000737122
0.000737225
0.000737021
0.000737407
0.000737935
0.000738793
0.00073941
0.000739861
0.000740309
0.000613133
0.001115
0.00333571
0.00537801
0.00644087
0.00686265
0.00703392
0.00709713
0.0071271
0.00714129
0.00715041
0.00715579
0.00715976
0.00716194
0.0071639
0.00716492
0.00716561
0.0071657
0.00716592
0.00716596
0.00716658
0.00716677
0.00716677
0.007167
0.00716718
0.00716696
0.00716684
0.00716673
0.00716678
0.00716624
0.00716593
0.00716478
0.00716379
0.00716123
0.00715969
0.00715691
0.00715487
0.0071503
0.00714776
0.00714307
0.0071404
0.00713611
0.00713211
0.00712717
0.00712338
0.00712113
0.00712001
0.00711903
0.00711714
0.00711358
0.00711592
0.00711715
0.00711594
0.00711304
0.00710882
0.00710304
0.00710367
0.00710602
0.00710078
0.00710512
0.00709743
0.0071015
0.00709995
0.00710322
0.00709533
0.00709708
0.00709212
0.00709384
0.00709054
0.00709708
0.00710506
0.00711873
0.00712843
0.0071355
0.0071428
0.000725298
0.00185802
0.00879
0.0138537
0.0162954
0.0172272
0.0176067
0.0177509
0.0178191
0.0178526
0.0178723
0.0178843
0.0178923
0.0178968
0.0179007
0.0179028
0.0179041
0.0179043
0.0179049
0.017905
0.0179065
0.0179069
0.0179069
0.0179074
0.0179078
0.0179074
0.0179071
0.0179068
0.017907
0.0179059
0.0179053
0.0179027
0.0179006
0.017895
0.0178918
0.0178856
0.017881
0.0178711
0.0178657
0.0178552
0.0178493
0.01784
0.0178314
0.0178205
0.0178117
0.0178065
0.0178041
0.0178018
0.0177976
0.0177898
0.0177952
0.0177983
0.0177961
0.0177898
0.0177804
0.0177675
0.0177687
0.0177739
0.0177623
0.0177722
0.0177549
0.017764
0.0177601
0.0177672
0.01775
0.017754
0.017744
0.0177484
0.0177415
0.0177565
0.017775
0.0178059
0.0178278
0.0178433
0.0178603
0.0010542
0.00326438
0.0159732
0.0243613
0.0283287
0.0298122
0.0304147
0.0306497
0.0307579
0.0308116
0.0308402
0.0308577
0.0308683
0.0308744
0.0308793
0.0308822
0.030884
0.0308841
0.0308849
0.0308852
0.0308874
0.030888
0.0308881
0.0308887
0.0308895
0.0308888
0.0308883
0.0308879
0.0308882
0.0308869
0.0308861
0.0308822
0.0308789
0.0308708
0.0308661
0.0308564
0.0308494
0.0308344
0.0308265
0.0308103
0.030801
0.0307872
0.0307745
0.0307579
0.0307437
0.0307351
0.0307314
0.0307276
0.0307213
0.0307097
0.0307179
0.0307233
0.0307208
0.0307115
0.030697
0.030677
0.0306783
0.030686
0.0306688
0.0306842
0.0306576
0.030671
0.0306646
0.0306748
0.0306494
0.0306556
0.0306423
0.0306501
0.0306408
0.0306644
0.0306946
0.0307433
0.0307776
0.0308016
0.0308292
0.00179488
0.00557865
0.0242055
0.0361492
0.0417474
0.0438135
0.0446482
0.0449797
0.045127
0.0451995
0.0452341
0.045255
0.0452663
0.0452729
0.0452781
0.0452812
0.0452831
0.0452832
0.0452841
0.0452844
0.0452874
0.0452881
0.0452882
0.045289
0.04529
0.0452892
0.0452885
0.0452879
0.0452883
0.0452869
0.0452861
0.0452809
0.0452767
0.0452662
0.0452602
0.0452474
0.0452377
0.0452181
0.0452079
0.0451864
0.0451737
0.0451557
0.0451394
0.0451176
0.0450978
0.0450854
0.0450804
0.0450752
0.0450669
0.0450523
0.0450631
0.0450707
0.0450686
0.0450564
0.045037
0.0450106
0.0450114
0.0450213
0.0449997
0.0450196
0.0449849
0.0450013
0.0449923
0.0450048
0.0449728
0.044981
0.0449666
0.0449785
0.0449683
0.0450008
0.045044
0.0451107
0.045158
0.0451905
0.0452291
0.00310247
0.00866348
0.0330464
0.0487222
0.0559972
0.0586633
0.0597346
0.0601657
0.0603504
0.0604394
0.0604768
0.0604989
0.060509
0.0605149
0.0605196
0.0605224
0.0605242
0.060524
0.0605249
0.0605254
0.060529
0.0605298
0.0605299
0.0605308
0.0605322
0.0605312
0.0605303
0.0605295
0.0605301
0.0605286
0.0605276
0.0605214
0.0605161
0.0605036
0.0604962
0.0604805
0.0604681
0.0604441
0.0604316
0.0604053
0.060389
0.0603669
0.0603473
0.0603209
0.0602957
0.060279
0.0602727
0.060266
0.060256
0.0602394
0.0602527
0.0602622
0.0602605
0.0602455
0.0602216
0.0601896
0.06019
0.0602012
0.0601761
0.0602
0.0601582
0.0601766
0.0601648
0.0601787
0.0601415
0.0601516
0.0601383
0.0601549
0.0601452
0.0601875
0.0602449
0.0603303
0.0603909
0.0604324
0.0604821
0.00496684
0.0121867
0.0421643
0.0616774
0.0706326
0.0739118
0.0752266
0.075762
0.0759846
0.0760885
0.0761269
0.0761482
0.0761557
0.0761601
0.0761637
0.0761659
0.0761673
0.0761667
0.0761676
0.0761681
0.0761724
0.0761733
0.0761734
0.0761744
0.076176
0.0761749
0.0761739
0.0761729
0.0761735
0.076172
0.0761708
0.0761636
0.0761571
0.0761425
0.0761338
0.0761153
0.0761001
0.0760718
0.0760568
0.0760261
0.0760063
0.07598
0.0759571
0.0759269
0.0758966
0.0758756
0.0758678
0.0758595
0.0758481
0.0758304
0.0758464
0.0758571
0.0758555
0.0758377
0.0758097
0.0757729
0.0757733
0.0757852
0.0757571
0.0757845
0.0757365
0.0757565
0.0757418
0.0757562
0.0757146
0.0757271
0.0757163
0.075738
0.07573
0.0757826
0.0758554
0.0759601
0.0760345
0.0760854
0.0761463
0.00723836
0.0158348
0.0512893
0.0746923
0.0853252
0.0892413
0.0908177
0.0914685
0.0917345
0.0918549
0.0918945
0.0919143
0.0919189
0.0919211
0.0919234
0.0919247
0.0919255
0.0919245
0.0919253
0.0919259
0.0919308
0.0919318
0.0919318
0.0919329
0.0919348
0.0919336
0.0919324
0.0919313
0.0919319
0.0919302
0.0919287
0.0919205
0.0919129
0.0918963
0.091886
0.0918651
0.091847
0.0918145
0.0917969
0.0917623
0.091739
0.0917085
0.0916824
0.0916487
0.0916141
0.0915888
0.0915792
0.0915696
0.0915571
0.0915389
0.0915577
0.0915693
0.0915672
0.0915467
0.091515
0.0914743
0.0914751
0.0914873
0.0914565
0.091487
0.0914336
0.091455
0.0914374
0.091452
0.0914065
0.0914216
0.091414
0.0914412
0.0914352
0.0914986
0.0915872
0.0917115
0.0917997
0.0918602
0.0919319
0.00971926
0.0193738
0.0601937
0.0875257
0.0998665
0.104467
0.106341
0.107129
0.107452
0.107595
0.107638
0.107658
0.10766
0.10766
0.107661
0.107661
0.107661
0.10766
0.10766
0.107661
0.107667
0.107668
0.107668
0.107669
0.107671
0.10767
0.107668
0.107667
0.107668
0.107666
0.107664
0.107655
0.107646
0.107628
0.107616
0.107593
0.107572
0.107535
0.107515
0.107477
0.107451
0.107416
0.107387
0.10735
0.107312
0.107283
0.107271
0.10726
0.107247
0.107229
0.10725
0.107263
0.10726
0.107237
0.107202
0.107158
0.10716
0.107172
0.107139
0.107172
0.107114
0.107137
0.107117
0.107131
0.107082
0.1071
0.107096
0.107128
0.107125
0.107198
0.107302
0.107445
0.107547
0.107617
0.107699
0.012226
0.0226372
0.0686809
0.100006
0.114142
0.119508
0.121737
0.122698
0.123098
0.123275
0.123329
0.123351
0.123351
0.12335
0.12335
0.123349
0.123349
0.123347
0.123347
0.123348
0.123354
0.123355
0.123355
0.123357
0.123359
0.123357
0.123356
0.123355
0.123355
0.123353
0.123351
0.123341
0.123331
0.123311
0.123298
0.123273
0.12325
0.123209
0.123187
0.123146
0.123117
0.123078
0.123046
0.123007
0.122966
0.122933
0.12292
0.122908
0.122894
0.122876
0.122901
0.122914
0.12291
0.122885
0.122847
0.122801
0.122803
0.122816
0.12278
0.122817
0.122755
0.122779
0.122757
0.122772
0.12272
0.122741
0.122739
0.122776
0.122774
0.122857
0.122975
0.123136
0.12325
0.123328
0.12342
0.0146148
0.025505
0.0765742
0.112003
0.128089
0.134337
0.137004
0.138187
0.138696
0.138923
0.138996
0.139024
0.139026
0.139024
0.139023
0.139022
0.139021
0.139019
0.13902
0.139021
0.139027
0.139028
0.139028
0.139029
0.139032
0.13903
0.139029
0.139028
0.139028
0.139026
0.139023
0.139013
0.139003
0.138981
0.138967
0.13894
0.138915
0.138871
0.138847
0.138804
0.138772
0.13873
0.138696
0.138655
0.138611
0.138576
0.138561
0.138549
0.138534
0.138516
0.138543
0.138557
0.138554
0.138527
0.138487
0.138439
0.138442
0.138456
0.138418
0.138457
0.138392
0.138418
0.138394
0.13841
0.138356
0.138379
0.13838
0.138421
0.138421
0.138511
0.138641
0.138816
0.138941
0.139027
0.139127
0.0167863
0.0278878
0.0837061
0.123397
0.141653
0.148938
0.152148
0.153619
0.154277
0.154576
0.154681
0.154722
0.154727
0.154727
0.154726
0.154725
0.154724
0.154721
0.154722
0.154723
0.154729
0.154731
0.154731
0.154732
0.154735
0.154733
0.154732
0.15473
0.154731
0.154728
0.154726
0.154715
0.154704
0.154681
0.154667
0.154639
0.154612
0.154566
0.154541
0.154496
0.154462
0.154419
0.154382
0.15434
0.154294
0.154257
0.154241
0.154228
0.154212
0.154195
0.154225
0.15424
0.154237
0.15421
0.154168
0.154119
0.154123
0.154137
0.154098
0.154139
0.154072
0.154099
0.154074
0.154091
0.154037
0.154062
0.154065
0.154109
0.15411
0.154206
0.154345
0.154532
0.154666
0.154758
0.154865
0.0186803
0.0297201
0.089908
0.134054
0.154754
0.163269
0.167153
0.168992
0.169851
0.17025
0.170402
0.170464
0.170478
0.17048
0.17048
0.17048
0.170479
0.170476
0.170476
0.170477
0.170484
0.170486
0.170486
0.170487
0.17049
0.170488
0.170487
0.170486
0.170486
0.170483
0.170481
0.17047
0.170459
0.170436
0.170421
0.170392
0.170365
0.170318
0.170291
0.170245
0.17021
0.170165
0.170128
0.170086
0.170038
0.169999
0.169983
0.169969
0.169953
0.169937
0.169968
0.169985
0.169983
0.169956
0.169914
0.169865
0.169868
0.169883
0.169844
0.169887
0.169818
0.169847
0.169822
0.169841
0.169787
0.169814
0.169818
0.169864
0.169866
0.169965
0.17011
0.170306
0.170448
0.170544
0.170657
0.020269
0.0309583
0.0950045
0.143803
0.167266
0.177242
0.181956
0.184263
0.185385
0.185921
0.186139
0.186232
0.186259
0.186267
0.186269
0.186269
0.186269
0.186266
0.186267
0.186268
0.186275
0.186277
0.186277
0.186278
0.186281
0.186279
0.186278
0.186277
0.186277
0.186274
0.186273
0.186262
0.186251
0.186228
0.186212
0.186184
0.186156
0.186108
0.186081
0.186035
0.186
0.185955
0.185917
0.185875
0.185826
0.185787
0.185769
0.185756
0.18574
0.185724
0.185756
0.185776
0.185776
0.185751
0.185708
0.185659
0.185662
0.185678
0.185639
0.185683
0.185615
0.185645
0.18562
0.185641
0.185589
0.185617
0.185622
0.185671
0.185673
0.185773
0.185922
0.186123
0.18627
0.186369
0.186486
0.021549
0.0315828
0.0988121
0.152429
0.179008
0.190713
0.196443
0.199339
0.2008
0.201516
0.201826
0.201963
0.202009
0.202026
0.202031
0.202033
0.202034
0.202031
0.202032
0.202033
0.20204
0.202043
0.202043
0.202044
0.202046
0.202045
0.202043
0.202043
0.202043
0.20204
0.202039
0.202029
0.202018
0.201995
0.201981
0.201953
0.201925
0.201877
0.201851
0.201805
0.20177
0.201725
0.201688
0.201646
0.201598
0.201558
0.20154
0.201527
0.201511
0.201496
0.201529
0.201551
0.201554
0.201531
0.201489
0.201441
0.201443
0.20146
0.201423
0.201468
0.201401
0.201431
0.201408
0.20143
0.201382
0.201412
0.201418
0.201467
0.20147
0.201569
0.201719
0.201923
0.202072
0.202173
0.202292
0.0225357
0.0316038
0.101144
0.159676
0.189741
0.203482
0.210443
0.214075
0.21597
0.216921
0.217353
0.217549
0.217623
0.217652
0.217663
0.217668
0.21767
0.217668
0.217669
0.21767
0.217677
0.21768
0.21768
0.217681
0.217683
0.217683
0.217681
0.21768
0.217681
0.217678
0.217677
0.217668
0.217658
0.217636
0.217622
0.217595
0.217567
0.217521
0.217496
0.217451
0.217417
0.217374
0.217337
0.217297
0.217249
0.21721
0.217192
0.217179
0.217163
0.21715
0.217182
0.217208
0.217213
0.217193
0.217153
0.217107
0.217108
0.217126
0.217091
0.217136
0.217072
0.217102
0.21708
0.217105
0.217062
0.217092
0.2171
0.217149
0.217154
0.217249
0.217399
0.217601
0.217752
0.217852
0.217973
0.0232587
0.0310687
0.101822
0.165245
0.199169
0.215291
0.223737
0.228279
0.230723
0.231979
0.232572
0.232847
0.232959
0.233006
0.233025
0.233034
0.233037
0.233037
0.233038
0.233039
0.233046
0.23305
0.233049
0.233051
0.233053
0.233052
0.23305
0.23305
0.233051
0.233048
0.233048
0.233039
0.23303
0.233009
0.232997
0.232971
0.232944
0.2329
0.232876
0.232833
0.2328
0.232759
0.232724
0.232686
0.232639
0.232601
0.232584
0.232571
0.232556
0.232544
0.232575
0.232604
0.232613
0.232597
0.23256
0.232516
0.232516
0.232535
0.232503
0.232547
0.232488
0.232517
0.232498
0.232524
0.232487
0.232519
0.232528
0.232576
0.232583
0.232674
0.232821
0.233019
0.233169
0.233268
0.233388
0.0237571
0.030069
0.10069
0.168809
0.206948
0.225831
0.236054
0.241719
0.244854
0.246499
0.247304
0.247684
0.247847
0.247919
0.247948
0.247962
0.247968
0.247969
0.247971
0.247972
0.247979
0.247983
0.247983
0.247984
0.247985
0.247985
0.247983
0.247983
0.247984
0.247982
0.247982
0.247974
0.247966
0.247948
0.247936
0.247912
0.247887
0.247846
0.247823
0.247783
0.247752
0.247713
0.247681
0.247645
0.2476
0.247564
0.247547
0.247535
0.247521
0.24751
0.247541
0.247572
0.247585
0.247573
0.24754
0.2475
0.247499
0.247517
0.247489
0.247533
0.247478
0.247506
0.247491
0.247519
0.247489
0.247522
0.247533
0.24758
0.247589
0.247675
0.247816
0.248008
0.248156
0.248253
0.24837
0.0240753
0.0287472
0.0976393
0.170028
0.212686
0.23474
0.24708
0.254123
0.258124
0.260269
0.261347
0.261866
0.262098
0.262201
0.262246
0.262266
0.262275
0.262278
0.262281
0.262281
0.262288
0.262293
0.262293
0.262295
0.262295
0.262295
0.262294
0.262294
0.262295
0.262293
0.262294
0.262287
0.26228
0.262264
0.262254
0.262232
0.262209
0.262171
0.26215
0.262114
0.262084
0.262049
0.262019
0.261986
0.261944
0.26191
0.261894
0.261883
0.26187
0.261861
0.261891
0.261924
0.261941
0.261935
0.261905
0.26187
0.261868
0.261887
0.261863
0.261905
0.261857
0.261884
0.261872
0.261902
0.26188
0.261914
0.261927
0.261973
0.261984
0.262064
0.262199
0.262382
0.262526
0.262619
0.262733
0.024259
0.0272968
0.0926296
0.168567
0.215959
0.241613
0.256458
0.265188
0.270274
0.273057
0.27449
0.275192
0.275514
0.27566
0.275724
0.275753
0.275767
0.275771
0.275775
0.275776
0.275783
0.275788
0.275788
0.27579
0.27579
0.27579
0.275789
0.275789
0.27579
0.275788
0.27579
0.275785
0.275779
0.275765
0.275757
0.275738
0.275717
0.275682
0.275664
0.275631
0.275605
0.275573
0.275547
0.275518
0.275479
0.275447
0.275432
0.275422
0.27541
0.275404
0.275433
0.275467
0.275489
0.275488
0.275464
0.275433
0.275432
0.27545
0.275431
0.275471
0.27543
0.275456
0.275448
0.275479
0.275466
0.275501
0.275517
0.275562
0.275575
0.275649
0.275775
0.275948
0.276086
0.276176
0.276284
0.02435
0.0259498
0.0857232
0.164123
0.21632
0.246004
0.263799
0.274594
0.281038
0.284637
0.286527
0.287467
0.287909
0.288111
0.288201
0.288242
0.28826
0.288267
0.288273
0.288274
0.28828
0.288285
0.288286
0.288288
0.288288
0.288288
0.288286
0.288287
0.288288
0.288287
0.288289
0.288285
0.288281
0.288269
0.288264
0.288247
0.288229
0.288199
0.288183
0.288155
0.288131
0.288104
0.288081
0.288056
0.288021
0.287993
0.287979
0.287971
0.287961
0.287957
0.287984
0.28802
0.288046
0.28805
0.288032
0.288007
0.288007
0.288025
0.288011
0.288049
0.288015
0.28804
0.288036
0.288069
0.288064
0.288101
0.28812
0.288165
0.28818
0.288247
0.288365
0.288525
0.288657
0.288741
0.288843
0.0243836
0.0249372
0.0771146
0.156463
0.213318
0.247441
0.268694
0.282013
0.29016
0.2948
0.297281
0.298532
0.299129
0.299405
0.299529
0.299585
0.29961
0.29962
0.299626
0.299628
0.299633
0.299639
0.29964
0.299642
0.299641
0.299641
0.29964
0.299641
0.299642
0.299641
0.299644
0.299641
0.299638
0.299629
0.299626
0.299613
0.299597
0.299572
0.299559
0.299536
0.299516
0.299493
0.299474
0.299454
0.299424
0.299399
0.299388
0.299381
0.299372
0.299371
0.299397
0.299434
0.299464
0.299474
0.299463
0.299445
0.299446
0.299463
0.299455
0.29949
0.299465
0.299489
0.299489
0.299523
0.299527
0.299566
0.299588
0.299633
0.299652
0.299712
0.299819
0.299967
0.300089
0.300169
0.300262
0.0243866
0.0244091
0.0671634
0.145469
0.20653
0.245441
0.270729
0.28714
0.297425
0.303395
0.306635
0.308288
0.309088
0.30946
0.309627
0.309701
0.309734
0.309748
0.309755
0.309757
0.309762
0.309767
0.309768
0.30977
0.30977
0.30977
0.309769
0.30977
0.309771
0.30977
0.309773
0.309772
0.309771
0.309765
0.309763
0.309754
0.309742
0.309721
0.309711
0.309693
0.309678
0.30966
0.309645
0.30963
0.309607
0.309586
0.309577
0.309572
0.309565
0.309566
0.309592
0.309629
0.309662
0.309679
0.309675
0.309664
0.309667
0.309685
0.309682
0.309715
0.309698
0.309722
0.309727
0.309762
0.309775
0.309816
0.309842
0.309886
0.309908
0.309963
0.310059
0.310192
0.310305
0.310378
0.310463
0.0243766
0.024336
0.0564238
0.1312
0.195603
0.239548
0.269537
0.289744
0.302716
0.310373
0.314583
0.316751
0.317808
0.318303
0.318524
0.318622
0.318664
0.318681
0.318689
0.318691
0.318695
0.3187
0.318701
0.318703
0.318702
0.318702
0.318701
0.318702
0.318703
0.318703
0.318706
0.318706
0.318707
0.318704
0.318705
0.318699
0.31869
0.318674
0.318668
0.318656
0.318645
0.318632
0.318623
0.318613
0.318596
0.318581
0.318574
0.318571
0.318568
0.318572
0.318597
0.318634
0.31867
0.318693
0.318697
0.318694
0.318701
0.318719
0.318721
0.318753
0.318744
0.318768
0.318777
0.318813
0.318834
0.318878
0.318909
0.318953
0.318978
0.319027
0.319112
0.319229
0.319332
0.319399
0.319474
0.0243641
0.0244953
0.0456681
0.113974
0.180327
0.2294
0.264871
0.289754
0.306087
0.315864
0.321287
0.324098
0.325477
0.326122
0.32641
0.326534
0.326586
0.326606
0.326614
0.326616
0.326619
0.326623
0.326624
0.326626
0.326624
0.326624
0.326623
0.326624
0.326625
0.326625
0.326629
0.32663
0.326632
0.326632
0.326635
0.326633
0.326628
0.326618
0.326615
0.326608
0.326602
0.326595
0.326591
0.326588
0.326578
0.326568
0.326564
0.326564
0.326564
0.326571
0.326597
0.326634
0.326672
0.326701
0.326713
0.326719
0.32673
0.32675
0.326757
0.326787
0.326787
0.326811
0.326826
0.326862
0.326891
0.326936
0.326972
0.327018
0.327046
0.327089
0.327162
0.327264
0.327355
0.327416
0.327481
0.0243534
0.0246316
0.0358985
0.0944716
0.16075
0.214867
0.256774
0.287414
0.307889
0.320253
0.327138
0.330717
0.332476
0.333296
0.333659
0.333812
0.333874
0.333895
0.333903
0.333904
0.333905
0.333908
0.333908
0.333909
0.333907
0.333906
0.333905
0.333906
0.333908
0.333908
0.333911
0.333914
0.333918
0.333919
0.333925
0.333926
0.333925
0.33392
0.333921
0.333919
0.333919
0.333918
0.333919
0.333922
0.33392
0.333915
0.333915
0.333918
0.333922
0.333932
0.333959
0.333996
0.334037
0.33407
0.334091
0.334105
0.334122
0.334143
0.334156
0.334185
0.334193
0.334219
0.334238
0.334276
0.33431
0.334358
0.334399
0.334446
0.334476
0.334514
0.334576
0.334662
0.334742
0.334795
0.334851
0.0243459
0.0246403
0.0283309
0.0738814
0.137392
0.196348
0.245886
0.283502
0.308881
0.324219
0.332744
0.337169
0.339337
0.340341
0.34078
0.34096
0.341027
0.341048
0.341052
0.34105
0.341049
0.34105
0.341049
0.341049
0.341047
0.341045
0.341044
0.341045
0.341046
0.341046
0.34105
0.341054
0.341059
0.341062
0.341069
0.341074
0.341076
0.341075
0.34108
0.341083
0.341088
0.341091
0.341099
0.341107
0.341113
0.341114
0.341118
0.341123
0.341132
0.341146
0.341175
0.341211
0.341254
0.341291
0.34132
0.341341
0.341364
0.341389
0.341407
0.341435
0.341452
0.34148
0.341504
0.341541
0.34158
0.341628
0.341675
0.341723
0.341755
0.341788
0.34184
0.34191
0.34198
0.342027
0.342073
0.0243412
0.0245652
0.0242052
0.0541052
0.111715
0.175412
0.233941
0.279519
0.310173
0.328549
0.338686
0.343915
0.346458
0.347624
0.348123
0.348319
0.348386
0.348401
0.348401
0.348394
0.348389
0.348387
0.348385
0.348384
0.348381
0.348379
0.348377
0.348377
0.348379
0.348379
0.348383
0.348386
0.348392
0.348397
0.348405
0.348411
0.348417
0.348419
0.348426
0.348432
0.348442
0.348449
0.348462
0.348474
0.348486
0.348493
0.348502
0.348509
0.348522
0.348539
0.348571
0.348609
0.348653
0.348692
0.348727
0.348753
0.348782
0.34881
0.348833
0.348862
0.348886
0.348915
0.348944
0.348982
0.349024
0.349071
0.349122
0.34917
0.349205
0.349231
0.349274
0.349332
0.349393
0.349434
0.349473
0.0243384
0.0244829
0.0237789
0.0381501
0.0872878
0.155968
0.224075
0.277286
0.312557
0.333419
0.34481
0.350634
0.353439
0.354706
0.355234
0.35543
0.355489
0.355494
0.355485
0.355472
0.355463
0.355458
0.355455
0.355452
0.355448
0.355445
0.355443
0.355443
0.355444
0.355444
0.355448
0.355451
0.355458
0.355463
0.355472
0.355478
0.355486
0.35549
0.355498
0.355505
0.355518
0.355528
0.355543
0.355556
0.355574
0.355585
0.355598
0.355608
0.355625
0.355643
0.355679
0.355718
0.355764
0.355803
0.355841
0.355868
0.355902
0.355933
0.355962
0.35599
0.35602
0.356051
0.356085
0.356121
0.356166
0.356209
0.356262
0.35631
0.356347
0.356369
0.356405
0.356453
0.356508
0.356545
0.356578
0.0243372
0.0244358
0.024809
0.0304472
0.0716628
0.144299
0.219134
0.277092
0.315006
0.337211
0.349244
0.355352
0.35827
0.359568
0.360097
0.360282
0.360328
0.360323
0.360306
0.360288
0.360275
0.360267
0.360262
0.360259
0.360254
0.36025
0.360247
0.360247
0.360248
0.360248
0.360252
0.360255
0.360261
0.360266
0.360275
0.36028
0.360289
0.360293
0.360302
0.360308
0.360323
0.360334
0.360351
0.360363
0.360385
0.360398
0.360416
0.360426
0.360447
0.360464
0.360505
0.360545
0.360594
0.36063
0.360669
0.360693
0.360732
0.360764
0.360799
0.360824
0.360859
0.36089
0.36093
0.360964
0.361012
0.36105
0.361103
0.36115
0.36119
0.361208
0.361239
0.361281
0.361332
0.361366
0.361395
0.0243373
0.0244399
0.0246905
0.0305406
0.0716123
0.143996
0.218683
0.276597
0.314515
0.336727
0.348758
0.354861
0.357769
0.359059
0.359579
0.359758
0.359799
0.35979
0.359771
0.35975
0.359736
0.359727
0.359722
0.359718
0.359712
0.359708
0.359705
0.359705
0.359706
0.359706
0.359709
0.359711
0.359718
0.359723
0.359731
0.359736
0.359745
0.359749
0.359759
0.359764
0.359781
0.359791
0.359809
0.359818
0.359843
0.359858
0.35988
0.35989
0.359915
0.359932
0.359977
0.360018
0.360068
0.360099
0.360138
0.360158
0.360201
0.360233
0.360273
0.360294
0.360333
0.360364
0.360409
0.36044
0.360492
0.360523
0.360577
0.360623
0.360665
0.360681
0.36071
0.360748
0.360795
0.360828
0.360853
0.0243388
0.0244924
0.0235862
0.0384873
0.0871233
0.155084
0.222772
0.275859
0.311128
0.332001
0.343387
0.34919
0.35197
0.353209
0.353715
0.353892
0.353937
0.353932
0.353915
0.353897
0.353883
0.353876
0.35387
0.353867
0.353861
0.353857
0.353855
0.353854
0.353856
0.353855
0.353858
0.35386
0.353867
0.353871
0.35388
0.353882
0.353893
0.353896
0.353907
0.353909
0.353928
0.353936
0.353956
0.353962
0.35399
0.354004
0.35403
0.354038
0.354067
0.354083
0.354134
0.354172
0.354223
0.354246
0.354286
0.354301
0.354348
0.354379
0.354422
0.354438
0.354482
0.354509
0.35456
0.354585
0.35464
0.354663
0.35472
0.354765
0.35481
0.354823
0.354855
0.354891
0.354939
0.35497
0.354993
0.0243418
0.0245691
0.0243208
0.0547722
0.11152
0.174142
0.232018
0.277355
0.307961
0.326325
0.33644
0.341629
0.34413
0.345252
0.345717
0.345884
0.345931
0.34593
0.345918
0.345903
0.345892
0.345886
0.345882
0.345878
0.345873
0.34587
0.345868
0.345867
0.345869
0.345868
0.345871
0.345872
0.345879
0.345881
0.34589
0.345889
0.3459
0.3459
0.345911
0.34591
0.345931
0.345934
0.345953
0.345955
0.345986
0.345997
0.346024
0.346027
0.346061
0.346074
0.346132
0.346166
0.346216
0.346229
0.346269
0.346276
0.346329
0.346355
0.346402
0.34641
0.34646
0.346483
0.346537
0.346553
0.346609
0.34662
0.346683
0.346726
0.346775
0.346786
0.346825
0.346865
0.346918
0.34695
0.346974
0.0243468
0.0246137
0.0289536
0.0748424
0.137175
0.194856
0.243599
0.280864
0.306121
0.321399
0.329871
0.334232
0.33634
0.337287
0.337682
0.337826
0.337869
0.337869
0.337861
0.337848
0.337841
0.337837
0.337833
0.337829
0.337825
0.337822
0.337821
0.33782
0.337822
0.337821
0.337825
0.337823
0.33783
0.33783
0.337838
0.337833
0.337844
0.337839
0.337849
0.33784
0.337862
0.337858
0.337877
0.33787
0.337905
0.337909
0.337937
0.337931
0.337971
0.337979
0.338046
0.338074
0.338124
0.338122
0.338162
0.338157
0.338218
0.338237
0.338287
0.338284
0.338343
0.338358
0.338418
0.338419
0.338477
0.338469
0.338542
0.33858
0.338636
0.338645
0.338697
0.338744
0.338807
0.338844
0.338872
0.0243546
0.0245447
0.0370198
0.0956452
0.16049
0.213245
0.254306
0.284522
0.304807
0.317059
0.323856
0.327348
0.329032
0.329784
0.330099
0.330212
0.330247
0.330245
0.330239
0.330228
0.330223
0.330221
0.330218
0.330214
0.330211
0.330208
0.330207
0.330207
0.330209
0.330208
0.330212
0.330208
0.330215
0.330212
0.330218
0.330207
0.330218
0.330207
0.330215
0.330197
0.330221
0.330207
0.330225
0.330207
0.330245
0.33024
0.330269
0.330251
0.330298
0.330298
0.330377
0.330397
0.330447
0.330427
0.330468
0.330449
0.330519
0.330528
0.330583
0.330566
0.330637
0.330642
0.330708
0.33069
0.330752
0.33072
0.330806
0.330839
0.330904
0.330909
0.330979
0.331035
0.331113
0.331156
0.331192
0.0243654
0.0243502
0.0472268
0.115278
0.180014
0.227706
0.262335
0.286762
0.302857
0.312481
0.317788
0.320491
0.321786
0.322356
0.322594
0.322676
0.322701
0.322696
0.322691
0.322681
0.322679
0.322677
0.322674
0.322671
0.322669
0.322666
0.322666
0.322665
0.322668
0.322666
0.32267
0.322664
0.322672
0.322664
0.322669
0.322651
0.322663
0.322644
0.322651
0.322622
0.322648
0.322622
0.322639
0.322608
0.322652
0.322636
0.322667
0.322635
0.322689
0.322679
0.322772
0.322784
0.322836
0.322795
0.322839
0.322801
0.322883
0.322881
0.322942
0.322908
0.322992
0.322986
0.323061
0.323022
0.323091
0.32303
0.323132
0.323159
0.323234
0.323236
0.323326
0.323391
0.323486
0.323536
0.323582
0.0243776
0.0242042
0.0583472
0.132571
0.19524
0.237827
0.267004
0.286749
0.299458
0.306934
0.311009
0.313056
0.314025
0.314441
0.314614
0.314668
0.314685
0.314676
0.314672
0.314662
0.314662
0.314661
0.314659
0.314655
0.314654
0.314651
0.314651
0.31465
0.314654
0.314652
0.314656
0.314647
0.314655
0.314643
0.314648
0.314622
0.314636
0.314608
0.314614
0.314574
0.314603
0.314563
0.314582
0.314535
0.314586
0.314558
0.314593
0.314544
0.314607
0.314585
0.314694
0.314696
0.314752
0.314689
0.314737
0.314679
0.314775
0.31476
0.314829
0.314776
0.314875
0.314856
0.314942
0.31488
0.314958
0.314866
0.314988
0.315007
0.315095
0.315091
0.315203
0.315277
0.315391
0.315447
0.315503
0.0243862
0.0244065
0.0693752
0.146861
0.206129
0.24373
0.268248
0.284205
0.294219
0.299992
0.303088
0.304613
0.305323
0.305616
0.305737
0.305769
0.305779
0.305766
0.305763
0.305753
0.305755
0.305754
0.305752
0.305749
0.305748
0.305745
0.305746
0.305744
0.305749
0.305746
0.305751
0.305739
0.305748
0.305732
0.305735
0.305702
0.305718
0.305681
0.305687
0.305634
0.305668
0.305615
0.305634
0.305573
0.305631
0.305592
0.305632
0.305565
0.305638
0.305602
0.305729
0.30572
0.30578
0.305694
0.305747
0.305668
0.305781
0.305752
0.305829
0.305757
0.305871
0.305838
0.305937
0.305851
0.305941
0.305815
0.305959
0.30597
0.306072
0.306063
0.306198
0.30628
0.306411
0.306473
0.30654
0.0243805
0.0251563
0.0795411
0.157848
0.212898
0.245769
0.266298
0.27918
0.287056
0.291495
0.293829
0.294949
0.29546
0.295657
0.295739
0.295753
0.295758
0.295742
0.29574
0.29573
0.295733
0.295732
0.295731
0.295727
0.295727
0.295724
0.295725
0.295723
0.295729
0.295725
0.29573
0.295715
0.295725
0.295705
0.295709
0.295667
0.295685
0.295641
0.295647
0.295582
0.295621
0.295554
0.295575
0.295498
0.295565
0.295513
0.295559
0.295475
0.295558
0.295508
0.295653
0.295633
0.295698
0.295588
0.295649
0.295548
0.295678
0.295636
0.295722
0.295629
0.295758
0.295712
0.295825
0.295713
0.295818
0.295658
0.295825
0.295827
0.295945
0.295929
0.296088
0.296175
0.296323
0.296391
0.296469
0.0243421
0.0264257
0.0882972
0.165487
0.215901
0.244397
0.261514
0.271892
0.278072
0.28147
0.283216
0.284026
0.284386
0.284511
0.284564
0.284565
0.284566
0.284547
0.284546
0.284536
0.284541
0.28454
0.284539
0.284535
0.284536
0.284533
0.284533
0.284531
0.284538
0.284533
0.284539
0.284521
0.284532
0.284507
0.284511
0.284461
0.284483
0.284431
0.284438
0.28436
0.284404
0.284325
0.284348
0.284256
0.284331
0.284268
0.284321
0.284218
0.284312
0.284248
0.28441
0.284379
0.284449
0.284316
0.284384
0.284263
0.284411
0.284354
0.28445
0.284337
0.284481
0.284422
0.284548
0.284411
0.284531
0.284338
0.284528
0.284522
0.284655
0.284634
0.284815
0.284907
0.285071
0.285143
0.285231
0.0242442
0.0280187
0.0952933
0.169905
0.215559
0.240088
0.254301
0.262636
0.267468
0.270056
0.271349
0.271924
0.272171
0.272242
0.272275
0.272265
0.272264
0.272242
0.272243
0.272232
0.272238
0.272237
0.272237
0.272232
0.272234
0.272231
0.272232
0.272229
0.272236
0.272231
0.272237
0.272216
0.272228
0.2722
0.272203
0.272147
0.272171
0.272112
0.27212
0.272031
0.27208
0.271989
0.272015
0.271908
0.271991
0.271918
0.271977
0.271857
0.271961
0.271883
0.272062
0.27202
0.272095
0.27194
0.272016
0.271875
0.27204
0.271971
0.272075
0.271942
0.272101
0.272029
0.272168
0.272007
0.272143
0.271918
0.272131
0.272116
0.272264
0.272237
0.27244
0.272535
0.272713
0.272789
0.272887
0.0240517
0.02968
0.100345
0.171341
0.212322
0.233314
0.245062
0.251732
0.255493
0.257449
0.258396
0.258792
0.258956
0.258987
0.259005
0.258988
0.258986
0.258962
0.258963
0.258953
0.25896
0.258959
0.258959
0.258954
0.258957
0.258953
0.258954
0.258951
0.258959
0.258953
0.258959
0.258936
0.258948
0.258917
0.25892
0.258858
0.258885
0.258818
0.258827
0.258728
0.258782
0.25868
0.258708
0.258589
0.25868
0.258597
0.258662
0.258526
0.25864
0.258549
0.258743
0.25869
0.258769
0.258595
0.258679
0.25852
0.258701
0.258619
0.258731
0.258581
0.258752
0.258668
0.258819
0.258635
0.258787
0.258532
0.258768
0.258743
0.258906
0.258874
0.259097
0.259193
0.259384
0.259463
0.259569
0.0237235
0.0311684
0.103401
0.1701
0.206633
0.224513
0.234184
0.239497
0.242407
0.243873
0.244555
0.244817
0.244919
0.244921
0.244929
0.244907
0.244904
0.244878
0.244881
0.24487
0.244879
0.244877
0.244877
0.244872
0.244876
0.244872
0.244874
0.24487
0.244878
0.244872
0.244878
0.244852
0.244866
0.244831
0.244834
0.244766
0.244796
0.244724
0.244733