/*--------------------------------*- C++ -*----------------------------------*\
  =========                 |
  \\      /  F ield         | OpenFOAM: The Open Source CFD Toolbox
   \\    /   O peration     | Website:  https://openfoam.org
    \\  /    A nd           | Version:  7
     \\/     M anipulation  |
\*---------------------------------------------------------------------------*/
FoamFile
{
    version     2.0;
    format      ascii;
    class       volScalarField;
    location    "50";
    object      p;
}
// * * * * * * * * * * * * * * * * * * * * * * * * * * * * * * * * * * * * * //

dimensions      [0 2 -2 0 0 0 0];

internalField   nonuniform List<scalar> 
4500
(
2208.99
2207.55
2192.14
2149.42
2104.31
2067.44
2038.27
2009.11
1981.63
1952.37
1923.96
1894.65
1865.78
1836.39
1807.08
1777.57
1748.18
1718.64
1689.06
1659.36
1629.87
1600.13
1570.44
1540.69
1511.01
1481.3
1451.7
1422.03
1392.14
1362.42
1332.73
1303.07
1273.4
1243.73
1214.04
1184.4
1154.69
1125.05
1095.43
1065.89
1036.24
1006.65
977.086
947.563
917.944
888.348
858.679
829.02
799.243
769.524
739.676
709.775
679.748
649.632
619.414
589.345
559.278
529.199
499.083
468.869
438.483
408.157
377.588
347.175
316.592
286.088
255.587
225.144
194.972
164.726
134.599
104.409
74.5925
44.6023
14.9087
2208.6
2207.52
2192.15
2149.44
2104.33
2067.44
2038.27
2009.11
1981.63
1952.37
1923.96
1894.65
1865.78
1836.39
1807.08
1777.57
1748.18
1718.64
1689.06
1659.36
1629.87
1600.13
1570.44
1540.69
1511.01
1481.3
1451.7
1422.03
1392.14
1362.42
1332.73
1303.07
1273.4
1243.73
1214.04
1184.4
1154.69
1125.05
1095.43
1065.89
1036.24
1006.65
977.086
947.563
917.944
888.348
858.679
829.02
799.243
769.524
739.676
709.775
679.748
649.632
619.414
589.345
559.278
529.199
499.083
468.869
438.483
408.157
377.588
347.175
316.592
286.088
255.587
225.144
194.972
164.726
134.6
104.409
74.5927
44.6025
14.9088
2208.51
2207.53
2192.19
2149.49
2104.36
2067.46
2038.28
2009.12
1981.63
1952.37
1923.96
1894.65
1865.78
1836.39
1807.08
1777.57
1748.18
1718.64
1689.06
1659.36
1629.87
1600.13
1570.44
1540.69
1511.01
1481.3
1451.7
1422.03
1392.14
1362.42
1332.73
1303.07
1273.4
1243.72
1214.04
1184.4
1154.69
1125.05
1095.43
1065.89
1036.24
1006.65
977.086
947.563
917.944
888.348
858.679
829.02
799.243
769.524
739.676
709.775
679.748
649.632
619.414
589.345
559.278
529.199
499.083
468.868
438.483
408.157
377.588
347.175
316.592
286.088
255.587
225.145
194.973
164.727
134.6
104.409
74.5932
44.603
14.9092
2208.51
2207.55
2192.25
2149.56
2104.4
2067.47
2038.29
2009.12
1981.63
1952.38
1923.96
1894.65
1865.78
1836.39
1807.08
1777.57
1748.18
1718.64
1689.06
1659.36
1629.87
1600.13
1570.44
1540.69
1511.01
1481.3
1451.7
1422.03
1392.14
1362.42
1332.73
1303.07
1273.4
1243.72
1214.04
1184.4
1154.69
1125.05
1095.43
1065.89
1036.24
1006.65
977.086
947.563
917.944
888.348
858.678
829.02
799.243
769.524
739.676
709.775
679.748
649.632
619.414
589.345
559.278
529.199
499.083
468.868
438.483
408.157
377.588
347.175
316.592
286.088
255.587
225.145
194.973
164.727
134.601
104.41
74.5939
44.6037
14.9098
2208.51
2207.56
2192.32
2149.62
2104.44
2067.49
2038.29
2009.12
1981.64
1952.38
1923.96
1894.65
1865.78
1836.39
1807.08
1777.57
1748.18
1718.64
1689.06
1659.36
1629.87
1600.13
1570.44
1540.69
1511.01
1481.3
1451.7
1422.03
1392.14
1362.42
1332.73
1303.07
1273.4
1243.72
1214.04
1184.4
1154.69
1125.05
1095.43
1065.89
1036.24
1006.65
977.086
947.562
917.944
888.348
858.678
829.02
799.242
769.523
739.675
709.774
679.748
649.631
619.413
589.345
559.277
529.198
499.083
468.867
438.483
408.156
377.587
347.175
316.592
286.088
255.587
225.145
194.974
164.728
134.602
104.411
74.5948
44.6046
14.9106
2208.5
2207.58
2192.39
2149.69
2104.48
2067.5
2038.3
2009.12
1981.64
1952.38
1923.96
1894.65
1865.78
1836.39
1807.08
1777.57
1748.18
1718.64
1689.06
1659.36
1629.87
1600.13
1570.44
1540.69
1511.01
1481.3
1451.7
1422.03
1392.14
1362.42
1332.73
1303.07
1273.4
1243.72
1214.04
1184.4
1154.69
1125.05
1095.43
1065.89
1036.24
1006.65
977.085
947.562
917.944
888.348
858.678
829.019
799.242
769.523
739.675
709.774
679.747
649.631
619.413
589.345
559.277
529.198
499.083
468.867
438.483
408.155
377.587
347.174
316.592
286.088
255.588
225.145
194.974
164.729
134.603
104.412
74.596
44.6059
14.9116
2208.5
2207.6
2192.47
2149.76
2104.52
2067.52
2038.31
2009.12
1981.64
1952.38
1923.96
1894.65
1865.78
1836.39
1807.08
1777.57
1748.18
1718.64
1689.06
1659.36
1629.87
1600.13
1570.44
1540.69
1511.01
1481.3
1451.7
1422.03
1392.14
1362.42
1332.73
1303.07
1273.4
1243.72
1214.04
1184.4
1154.69
1125.05
1095.43
1065.89
1036.24
1006.65
977.085
947.561
917.943
888.347
858.678
829.019
799.242
769.523
739.675
709.773
679.746
649.63
619.413
589.345
559.277
529.197
499.083
468.866
438.483
408.155
377.587
347.174
316.592
286.088
255.588
225.146
194.975
164.73
134.604
104.413
74.5974
44.6073
14.9129
2208.49
2207.63
2192.54
2149.83
2104.56
2067.53
2038.31
2009.13
1981.64
1952.38
1923.96
1894.65
1865.78
1836.39
1807.08
1777.57
1748.18
1718.64
1689.06
1659.36
1629.87
1600.13
1570.44
1540.69
1511.01
1481.3
1451.7
1422.03
1392.14
1362.42
1332.73
1303.07
1273.4
1243.72
1214.04
1184.4
1154.69
1125.05
1095.43
1065.89
1036.24
1006.65
977.085
947.561
917.943
888.347
858.677
829.018
799.241
769.522
739.674
709.772
679.746
649.63
619.412
589.345
559.277
529.196
499.083
468.865
438.482
408.154
377.586
347.173
316.592
286.088
255.588
225.146
194.976
164.731
134.606
104.414
74.599
44.6091
14.9143
2208.49
2207.65
2192.61
2149.9
2104.59
2067.54
2038.32
2009.13
1981.64
1952.38
1923.96
1894.65
1865.78
1836.39
1807.08
1777.57
1748.18
1718.64
1689.06
1659.36
1629.87
1600.13
1570.44
1540.69
1511
1481.3
1451.7
1422.03
1392.13
1362.42
1332.73
1303.07
1273.4
1243.72
1214.04
1184.4
1154.69
1125.05
1095.43
1065.89
1036.24
1006.65
977.085
947.56
917.943
888.347
858.677
829.018
799.241
769.522
739.674
709.771
679.745
649.629
619.412
589.345
559.277
529.195
499.083
468.864
438.483
408.153
377.586
347.173
316.593
286.088
255.589
225.147
194.978
164.732
134.608
104.415
74.6009
44.611
14.916
2208.48
2207.67
2192.68
2149.96
2104.62
2067.56
2038.32
2009.13
1981.64
1952.38
1923.96
1894.65
1865.78
1836.39
1807.08
1777.57
1748.18
1718.64
1689.06
1659.36
1629.87
1600.13
1570.44
1540.69
1511
1481.3
1451.7
1422.03
1392.13
1362.42
1332.73
1303.07
1273.4
1243.72
1214.04
1184.41
1154.69
1125.05
1095.43
1065.89
1036.24
1006.65
977.084
947.56
917.943
888.347
858.676
829.017
799.24
769.521
739.673
709.77
679.744
649.628
619.412
589.345
559.276
529.194
499.083
468.863
438.483
408.151
377.585
347.172
316.593
286.089
255.589
225.147
194.979
164.734
134.609
104.416
74.6029
44.6131
14.9178
2208.47
2207.68
2192.74
2150.01
2104.65
2067.57
2038.33
2009.13
1981.65
1952.39
1923.96
1894.65
1865.78
1836.39
1807.08
1777.57
1748.17
1718.64
1689.06
1659.36
1629.87
1600.13
1570.44
1540.69
1511
1481.3
1451.7
1422.03
1392.13
1362.42
1332.73
1303.07
1273.39
1243.72
1214.04
1184.41
1154.69
1125.05
1095.43
1065.89
1036.24
1006.65
977.084
947.559
917.942
888.346
858.676
829.017
799.24
769.521
739.673
709.769
679.743
649.628
619.411
589.345
559.276
529.193
499.082
468.862
438.483
408.15
377.585
347.172
316.594
286.089
255.59
225.148
194.98
164.736
134.612
104.418
74.6051
44.6154
14.9198
2208.46
2207.7
2192.79
2150.06
2104.68
2067.58
2038.33
2009.13
1981.65
1952.39
1923.96
1894.65
1865.78
1836.39
1807.08
1777.57
1748.17
1718.64
1689.06
1659.36
1629.87
1600.13
1570.44
1540.69
1511
1481.3
1451.7
1422.03
1392.13
1362.42
1332.73
1303.07
1273.39
1243.72
1214.04
1184.41
1154.69
1125.05
1095.43
1065.89
1036.24
1006.65
977.084
947.559
917.942
888.346
858.675
829.016
799.239
769.521
739.672
709.768
679.742
649.627
619.411
589.346
559.275
529.192
499.082
468.861
438.483
408.148
377.584
347.171
316.594
286.09
255.59
225.148
194.982
164.737
134.614
104.419
74.6074
44.6179
14.9219
2208.45
2207.7
2192.82
2150.11
2104.71
2067.59
2038.34
2009.13
1981.65
1952.39
1923.96
1894.65
1865.78
1836.39
1807.08
1777.57
1748.17
1718.64
1689.06
1659.36
1629.87
1600.13
1570.44
1540.69
1511
1481.3
1451.7
1422.03
1392.13
1362.41
1332.73
1303.07
1273.39
1243.72
1214.04
1184.41
1154.69
1125.05
1095.43
1065.89
1036.24
1006.65
977.083
947.558
917.942
888.346
858.675
829.015
799.239
769.52
739.671
709.766
679.741
649.626
619.411
589.346
559.275
529.19
499.082
468.86
438.483
408.147
377.583
347.17
316.595
286.09
255.591
225.149
194.984
164.739
134.616
104.421
74.6098
44.6204
14.9241
2208.44
2207.7
2192.85
2150.15
2104.74
2067.6
2038.34
2009.13
1981.65
1952.39
1923.97
1894.65
1865.78
1836.39
1807.08
1777.57
1748.17
1718.64
1689.06
1659.36
1629.87
1600.13
1570.44
1540.7
1511
1481.3
1451.7
1422.03
1392.13
1362.41
1332.73
1303.07
1273.39
1243.72
1214.04
1184.41
1154.69
1125.05
1095.43
1065.89
1036.24
1006.65
977.083
947.558
917.941
888.345
858.674
829.015
799.239
769.52
739.671
709.765
679.74
649.625
619.411
589.346
559.275
529.189
499.082
468.858
438.483
408.145
377.582
347.17
316.595
286.091
255.592
225.15
194.986
164.741
134.618
104.423
74.6123
44.6231
14.9263
2208.43
2207.7
2192.86
2150.18
2104.76
2067.62
2038.35
2009.13
1981.65
1952.39
1923.97
1894.65
1865.78
1836.39
1807.08
1777.57
1748.17
1718.64
1689.06
1659.36
1629.87
1600.13
1570.44
1540.7
1511
1481.3
1451.7
1422.03
1392.13
1362.41
1332.73
1303.07
1273.39
1243.72
1214.04
1184.41
1154.69
1125.05
1095.43
1065.89
1036.24
1006.65
977.083
947.557
917.941
888.345
858.673
829.014
799.238
769.519
739.67
709.763
679.738
649.625
619.41
589.347
559.274
529.187
499.082
468.857
438.483
408.143
377.581
347.169
316.596
286.091
255.593
225.151
194.988
164.743
134.621
104.424
74.6149
44.6259
14.9287
2208.41
2207.69
2192.86
2150.21
2104.79
2067.63
2038.35
2009.14
1981.66
1952.39
1923.97
1894.65
1865.78
1836.39
1807.08
1777.57
1748.17
1718.64
1689.06
1659.36
1629.87
1600.13
1570.44
1540.7
1511
1481.3
1451.7
1422.03
1392.13
1362.41
1332.73
1303.07
1273.39
1243.72
1214.04
1184.41
1154.69
1125.05
1095.43
1065.89
1036.24
1006.65
977.083
947.557
917.941
888.344
858.673
829.013
799.238
769.519
739.669
709.762
679.737
649.624
619.41
589.347
559.273
529.186
499.082
468.855
438.484
408.141
377.58
347.168
316.597
286.092
255.594
225.151
194.99
164.745
134.623
104.426
74.6176
44.6287
14.931
2208.39
2207.67
2192.84
2150.23
2104.82
2067.65
2038.36
2009.14
1981.66
1952.4
1923.97
1894.65
1865.78
1836.38
1807.09
1777.57
1748.17
1718.64
1689.06
1659.36
1629.87
1600.13
1570.44
1540.7
1511
1481.3
1451.7
1422.03
1392.13
1362.41
1332.73
1303.07
1273.39
1243.72
1214.04
1184.41
1154.69
1125.05
1095.43
1065.89
1036.24
1006.65
977.083
947.556
917.941
888.344
858.672
829.013
799.237
769.519
739.668
709.76
679.736
649.623
619.41
589.347
559.273
529.184
499.082
468.854
438.484
408.139
377.58
347.167
316.598
286.093
255.595
225.152
194.992
164.747
134.626
104.427
74.6202
44.6315
14.9334
2208.37
2207.64
2192.81
2150.25
2104.85
2067.67
2038.37
2009.14
1981.66
1952.4
1923.97
1894.65
1865.78
1836.38
1807.09
1777.57
1748.17
1718.64
1689.06
1659.36
1629.87
1600.13
1570.44
1540.7
1511
1481.3
1451.7
1422.03
1392.13
1362.41
1332.73
1303.07
1273.39
1243.72
1214.04
1184.41
1154.69
1125.05
1095.43
1065.89
1036.24
1006.65
977.082
947.556
917.941
888.344
858.672
829.012
799.237
769.518
739.667
709.758
679.735
649.622
619.41
589.348
559.272
529.183
499.083
468.853
438.485
408.136
377.579
347.167
316.599
286.093
255.595
225.153
194.994
164.749
134.628
104.429
74.6229
44.6343
14.9357
2208.35
2207.6
2192.77
2150.27
2104.89
2067.7
2038.39
2009.15
1981.67
1952.4
1923.97
1894.65
1865.78
1836.38
1807.09
1777.56
1748.17
1718.64
1689.06
1659.36
1629.86
1600.13
1570.44
1540.7
1511
1481.3
1451.7
1422.03
1392.13
1362.41
1332.73
1303.07
1273.39
1243.72
1214.04
1184.41
1154.69
1125.05
1095.43
1065.89
1036.24
1006.65
977.082
947.555
917.94
888.343
858.671
829.011
799.237
769.518
739.666
709.757
679.734
649.622
619.41
589.348
559.271
529.181
499.083
468.851
438.485
408.134
377.578
347.166
316.6
286.094
255.597
225.154
194.996
164.751
134.631
104.431
74.6255
44.637
14.938
2208.32
2207.56
2192.72
2150.29
2104.94
2067.73
2038.4
2009.16
1981.67
1952.41
1923.97
1894.65
1865.78
1836.38
1807.09
1777.56
1748.17
1718.64
1689.06
1659.36
1629.86
1600.13
1570.44
1540.7
1511
1481.3
1451.7
1422.03
1392.13
1362.41
1332.73
1303.07
1273.39
1243.72
1214.04
1184.41
1154.69
1125.05
1095.43
1065.89
1036.24
1006.65
977.082
947.555
917.94
888.343
858.671
829.011
799.237
769.517
739.665
709.755
679.733
649.621
619.41
589.349
559.271
529.179
499.083
468.85
438.486
408.131
377.577
347.165
316.601
286.095
255.598
225.154
194.998
164.753
134.633
104.432
74.6281
44.6397
14.9401
2208.3
2207.5
2192.66
2150.31
2104.99
2067.77
2038.42
2009.17
1981.68
1952.41
1923.97
1894.65
1865.78
1836.38
1807.09
1777.56
1748.17
1718.63
1689.06
1659.36
1629.86
1600.13
1570.44
1540.7
1511
1481.3
1451.7
1422.03
1392.13
1362.41
1332.73
1303.07
1273.39
1243.72
1214.04
1184.41
1154.69
1125.05
1095.43
1065.89
1036.24
1006.65
977.082
947.554
917.94
888.342
858.67
829.01
799.236
769.517
739.664
709.754
679.732
649.62
619.41
589.349
559.27
529.177
499.084
468.848
438.487
408.129
377.576
347.164
316.602
286.096
255.599
225.154
195
164.755
134.635
104.433
74.6305
44.6423
14.9422
2208.27
2207.43
2192.59
2150.34
2105.05
2067.82
2038.45
2009.19
1981.69
1952.42
1923.97
1894.65
1865.78
1836.38
1807.09
1777.57
1748.16
1718.63
1689.05
1659.36
1629.86
1600.13
1570.44
1540.7
1511
1481.3
1451.7
1422.03
1392.13
1362.41
1332.73
1303.07
1273.39
1243.72
1214.04
1184.41
1154.69
1125.05
1095.43
1065.89
1036.24
1006.65
977.082
947.554
917.94
888.341
858.67
829.01
799.236
769.516
739.663
709.752
679.732
649.62
619.411
589.349
559.269
529.176
499.084
468.847
438.487
408.126
377.575
347.164
316.603
286.096
255.6
225.155
195.002
164.756
134.638
104.435
74.6329
44.6448
14.9441
2208.24
2207.35
2192.51
2150.37
2105.13
2067.88
2038.49
2009.21
1981.7
1952.43
1923.97
1894.66
1865.78
1836.38
1807.09
1777.57
1748.16
1718.63
1689.05
1659.36
1629.86
1600.13
1570.44
1540.7
1511
1481.3
1451.7
1422.03
1392.13
1362.41
1332.73
1303.07
1273.39
1243.72
1214.04
1184.41
1154.69
1125.05
1095.43
1065.89
1036.24
1006.65
977.082
947.554
917.94
888.341
858.669
829.009
799.236
769.516
739.662
709.75
679.731
649.62
619.411
589.35
559.268
529.174
499.084
468.846
438.488
408.124
377.574
347.163
316.605
286.097
255.601
225.155
195.003
164.758
134.639
104.436
74.635
44.6471
14.9459
2208.21
2207.27
2192.44
2150.42
2105.21
2067.96
2038.53
2009.24
1981.72
1952.44
1923.98
1894.66
1865.78
1836.38
1807.09
1777.57
1748.16
1718.63
1689.05
1659.36
1629.86
1600.13
1570.44
1540.7
1511
1481.3
1451.7
1422.03
1392.13
1362.41
1332.73
1303.08
1273.39
1243.72
1214.04
1184.41
1154.69
1125.04
1095.43
1065.89
1036.24
1006.65
977.082
947.554
917.939
888.34
858.669
829.009
799.236
769.515
739.661
709.749
679.731
649.62
619.412
589.35
559.267
529.172
499.085
468.845
438.489
408.122
377.573
347.163
316.606
286.098
255.602
225.155
195.005
164.759
134.641
104.437
74.6369
44.6493
14.9474
2208.18
2207.18
2192.36
2150.47
2105.32
2068.05
2038.59
2009.27
1981.74
1952.45
1923.98
1894.66
1865.78
1836.37
1807.09
1777.57
1748.16
1718.63
1689.05
1659.36
1629.86
1600.13
1570.44
1540.7
1511
1481.3
1451.7
1422.03
1392.13
1362.41
1332.73
1303.08
1273.39
1243.72
1214.04
1184.41
1154.69
1125.04
1095.43
1065.89
1036.24
1006.65
977.082
947.553
917.939
888.339
858.668
829.009
799.236
769.515
739.66
709.747
679.73
649.62
619.412
589.351
559.266
529.17
499.085
468.845
438.49
408.12
377.572
347.162
316.607
286.099
255.603
225.155
195.006
164.76
134.643
104.438
74.6386
44.6511
14.9487
2208.16
2207.08
2192.29
2150.54
2105.43
2068.15
2038.66
2009.32
1981.76
1952.47
1923.99
1894.66
1865.78
1836.37
1807.09
1777.57
1748.16
1718.63
1689.05
1659.36
1629.86
1600.13
1570.44
1540.7
1511
1481.3
1451.7
1422.03
1392.13
1362.41
1332.73
1303.08
1273.39
1243.72
1214.04
1184.41
1154.69
1125.04
1095.43
1065.89
1036.24
1006.65
977.083
947.553
917.939
888.338
858.668
829.008
799.237
769.515
739.659
709.745
679.73
649.62
619.413
589.351
559.266
529.169
499.085
468.845
438.49
408.118
377.57
347.162
316.608
286.101
255.605
225.154
195.007
164.761
134.644
104.439
74.6401
44.6527
14.9498
2208.13
2207
2192.21
2150.62
2105.56
2068.27
2038.74
2009.37
1981.79
1952.49
1923.99
1894.67
1865.78
1836.37
1807.09
1777.57
1748.16
1718.63
1689.05
1659.36
1629.86
1600.13
1570.44
1540.7
1511
1481.3
1451.7
1422.03
1392.13
1362.41
1332.73
1303.08
1273.39
1243.72
1214.04
1184.41
1154.69
1125.04
1095.43
1065.89
1036.24
1006.65
977.083
947.554
917.939
888.338
858.668
829.009
799.237
769.514
739.658
709.744
679.73
649.62
619.414
589.351
559.265
529.168
499.085
468.845
438.491
408.116
377.569
347.162
316.608
286.102
255.606
225.154
195.007
164.762
134.645
104.44
74.6412
44.654
14.9508
2208.11
2206.93
2192.13
2150.7
2105.7
2068.39
2038.83
2009.43
1981.82
1952.51
1924
1894.67
1865.78
1836.37
1807.09
1777.57
1748.16
1718.63
1689.05
1659.36
1629.86
1600.13
1570.44
1540.7
1511
1481.3
1451.7
1422.03
1392.13
1362.41
1332.73
1303.08
1273.39
1243.72
1214.04
1184.41
1154.69
1125.04
1095.43
1065.89
1036.24
1006.65
977.083
947.554
917.938
888.337
858.667
829.009
799.238
769.514
739.657
709.742
679.729
649.621
619.415
589.352
559.264
529.166
499.085
468.845
438.491
408.115
377.568
347.162
316.609
286.103
255.608
225.153
195.007
164.763
134.646
104.44
74.6421
44.6549
14.9515
2208.1
2206.87
2192.06
2150.77
2105.82
2068.51
2038.91
2009.49
1981.85
1952.53
1924.01
1894.68
1865.78
1836.38
1807.09
1777.57
1748.16
1718.63
1689.05
1659.36
1629.86
1600.13
1570.44
1540.7
1511
1481.3
1451.7
1422.03
1392.13
1362.41
1332.73
1303.08
1273.39
1243.72
1214.04
1184.41
1154.69
1125.04
1095.43
1065.89
1036.24
1006.65
977.084
947.554
917.938
888.336
858.667
829.009
799.239
769.514
739.656
709.741
679.729
649.622
619.416
589.352
559.264
529.165
499.084
468.846
438.492
408.113
377.566
347.163
316.609
286.105
255.609
225.153
195.007
164.763
134.647
104.441
74.6427
44.6554
14.952
2208.09
2206.85
2192.01
2150.8
2105.9
2068.58
2038.97
2009.52
1981.87
1952.54
1924.01
1894.68
1865.78
1836.38
1807.09
1777.57
1748.16
1718.63
1689.05
1659.36
1629.86
1600.13
1570.44
1540.7
1511
1481.3
1451.7
1422.03
1392.13
1362.41
1332.73
1303.08
1273.39
1243.72
1214.04
1184.41
1154.69
1125.04
1095.43
1065.89
1036.24
1006.65
977.084
947.555
917.938
888.335
858.666
829.01
799.24
769.514
739.655
709.74
679.728
649.623
619.417
589.352
559.263
529.165
499.084
468.847
438.492
408.112
377.565
347.163
316.609
286.106
255.611
225.152
195.006
164.763
134.648
104.441
74.6432
44.6554
14.9524
2208.1
2206.86
2192
2150.78
2105.9
2068.59
2038.97
2009.53
1981.87
1952.54
1924.01
1894.68
1865.78
1836.38
1807.09
1777.57
1748.16
1718.63
1689.05
1659.36
1629.86
1600.13
1570.44
1540.7
1511
1481.3
1451.7
1422.03
1392.13
1362.41
1332.73
1303.08
1273.39
1243.72
1214.04
1184.41
1154.69
1125.04
1095.43
1065.89
1036.24
1006.65
977.084
947.555
917.937
888.334
858.666
829.011
799.24
769.514
739.655
709.739
679.728
649.624
619.417
589.353
559.263
529.164
499.083
468.848
438.493
408.112
377.563
347.164
316.608
286.108
255.613
225.15
195.005
164.763
134.648
104.441
74.6436
44.655
14.9526
2208.12
2206.9
2192.03
2150.71
2105.82
2068.53
2038.92
2009.49
1981.85
1952.53
1924.01
1894.68
1865.78
1836.38
1807.09
1777.57
1748.16
1718.63
1689.05
1659.36
1629.86
1600.13
1570.44
1540.7
1511
1481.3
1451.7
1422.03
1392.13
1362.41
1332.73
1303.08
1273.39
1243.72
1214.04
1184.41
1154.69
1125.04
1095.43
1065.89
1036.24
1006.65
977.084
947.556
917.937
888.333
858.665
829.012
799.241
769.515
739.654
709.738
679.728
649.624
619.418
589.353
559.263
529.164
499.083
468.849
438.493
408.111
377.562
347.164
316.607
286.109
255.614
225.149
195.004
164.762
134.648
104.441
74.6439
44.6543
14.9527
2208.14
2206.97
2192.08
2150.6
2105.69
2068.42
2038.85
2009.44
1981.82
1952.51
1924
1894.68
1865.78
1836.38
1807.09
1777.57
1748.16
1718.63
1689.05
1659.36
1629.86
1600.13
1570.44
1540.7
1511
1481.3
1451.7
1422.03
1392.13
1362.41
1332.73
1303.08
1273.39
1243.72
1214.04
1184.41
1154.69
1125.04
1095.43
1065.89
1036.24
1006.65
977.084
947.557
917.937
888.333
858.665
829.013
799.242
769.515
739.655
709.737
679.728
649.625
619.418
589.353
559.263
529.163
499.083
468.85
438.494
408.111
377.561
347.165
316.606
286.109
255.616
225.148
195.003
164.762
134.649
104.441
74.6439
44.6532
14.9525
2208.17
2207.06
2192.15
2150.49
2105.55
2068.31
2038.77
2009.39
1981.79
1952.5
1923.99
1894.68
1865.78
1836.38
1807.09
1777.57
1748.16
1718.64
1689.05
1659.36
1629.86
1600.13
1570.44
1540.7
1511
1481.3
1451.7
1422.03
1392.13
1362.41
1332.73
1303.08
1273.39
1243.72
1214.04
1184.41
1154.69
1125.04
1095.43
1065.89
1036.24
1006.65
977.084
947.557
917.937
888.332
858.665
829.014
799.243
769.516
739.655
709.737
679.728
649.625
619.419
589.353
559.264
529.163
499.083
468.85
438.495
408.11
377.561
347.166
316.605
286.109
255.618
225.146
195.002
164.761
134.649
104.44
74.6437
44.6518
14.9522
2208.2
2207.16
2192.21
2150.38
2105.42
2068.2
2038.69
2009.34
1981.76
1952.48
1923.98
1894.67
1865.77
1836.38
1807.08
1777.57
1748.16
1718.64
1689.05
1659.36
1629.86
1600.13
1570.44
1540.7
1511
1481.3
1451.7
1422.03
1392.13
1362.41
1332.73
1303.08
1273.39
1243.72
1214.04
1184.41
1154.69
1125.04
1095.43
1065.89
1036.24
1006.65
977.084
947.558
917.936
888.332
858.665
829.014
799.244
769.516
739.656
709.736
679.728
649.625
619.419
589.352
559.265
529.163
499.083
468.85
438.496
408.11
377.561
347.166
316.605
286.108
255.619
225.145
195.001
164.759
134.649
104.439
74.6432
44.6501
14.9518
2208.24
2207.26
2192.27
2150.29
2105.3
2068.1
2038.62
2009.29
1981.73
1952.47
1923.97
1894.67
1865.77
1836.38
1807.08
1777.57
1748.16
1718.64
1689.05
1659.36
1629.86
1600.13
1570.44
1540.7
1511
1481.3
1451.7
1422.03
1392.13
1362.41
1332.73
1303.08
1273.39
1243.72
1214.04
1184.41
1154.69
1125.04
1095.43
1065.89
1036.24
1006.65
977.084
947.559
917.936
888.332
858.665
829.015
799.245
769.516
739.657
709.736
679.729
649.625
619.42
589.352
559.267
529.162
499.084
468.85
438.498
408.109
377.562
347.166
316.604
286.106
255.621
225.143
195
164.757
134.648
104.438
74.6425
44.648
14.9513
2208.27
2207.37
2192.34
2150.21
2105.19
2068.01
2038.57
2009.26
1981.71
1952.46
1923.97
1894.67
1865.77
1836.38
1807.08
1777.58
1748.16
1718.64
1689.05
1659.36
1629.86
1600.13
1570.44
1540.7
1511
1481.3
1451.7
1422.03
1392.13
1362.41
1332.73
1303.08
1273.39
1243.72
1214.04
1184.41
1154.69
1125.04
1095.43
1065.89
1036.24
1006.65
977.083
947.559
917.936
888.332
858.665
829.015
799.246
769.516
739.659
709.736
679.73
649.625
619.421
589.351
559.269
529.162
499.085
468.849
438.5
408.109
377.564
347.165
316.604
286.104
255.623
225.141
194.998
164.755
134.648
104.436
74.6415
44.6456
14.9506
2208.31
2207.46
2192.41
2150.14
2105.1
2067.94
2038.53
2009.23
1981.69
1952.45
1923.96
1894.67
1865.77
1836.39
1807.08
1777.58
1748.16
1718.64
1689.05
1659.36
1629.86
1600.13
1570.44
1540.7
1511
1481.3
1451.7
1422.03
1392.13
1362.41
1332.73
1303.08
1273.39
1243.72
1214.03
1184.41
1154.69
1125.05
1095.43
1065.89
1036.24
1006.65
977.083
947.56
917.936
888.332
858.665
829.016
799.246
769.516
739.66
709.736
679.731
649.625
619.422
589.349
559.272
529.161
499.086
468.848
438.503
408.108
377.567
347.165
316.604
286.102
255.625
225.138
194.998
164.752
134.648
104.434
74.6405
44.643
14.9499
2208.34
2207.55
2192.48
2150.09
2105.02
2067.89
2038.49
2009.22
1981.68
1952.45
1923.95
1894.68
1865.76
1836.39
1807.08
1777.58
1748.16
1718.64
1689.05
1659.36
1629.86
1600.13
1570.44
1540.7
1511
1481.3
1451.7
1422.03
1392.13
1362.41
1332.73
1303.08
1273.39
1243.72
1214.03
1184.41
1154.69
1125.05
1095.42
1065.89
1036.24
1006.65
977.083
947.561
917.936
888.332
858.665
829.017
799.247
769.516
739.662
709.736
679.732
649.624
619.423
589.348
559.275
529.16
499.088
468.847
438.506
408.107
377.569
347.164
316.604
286.099
255.628
225.136
194.997
164.749
134.648
104.431
74.6393
44.64
14.9491
2208.37
2207.62
2192.54
2150.06
2104.96
2067.84
2038.46
2009.2
1981.67
1952.44
1923.95
1894.68
1865.76
1836.39
1807.07
1777.58
1748.15
1718.64
1689.05
1659.36
1629.87
1600.13
1570.44
1540.7
1511
1481.3
1451.7
1422.03
1392.13
1362.41
1332.73
1303.08
1273.39
1243.72
1214.03
1184.41
1154.69
1125.05
1095.42
1065.9
1036.24
1006.65
977.082
947.562
917.936
888.333
858.666
829.017
799.248
769.516
739.664
709.736
679.734
649.624
619.425
589.346
559.278
529.159
499.09
468.846
438.509
408.106
377.573
347.163
316.604
286.095
255.63
225.133
194.996
164.746
134.647
104.429
74.638
44.6368
14.9482
2208.4
2207.68
2192.6
2150.02
2104.9
2067.8
2038.44
2009.19
1981.66
1952.44
1923.95
1894.68
1865.76
1836.4
1807.07
1777.58
1748.15
1718.65
1689.05
1659.36
1629.87
1600.13
1570.44
1540.69
1511
1481.3
1451.7
1422.03
1392.13
1362.41
1332.73
1303.08
1273.39
1243.72
1214.03
1184.41
1154.69
1125.05
1095.42
1065.9
1036.24
1006.65
977.082
947.564
917.936
888.333
858.666
829.018
799.248
769.516
739.666
709.736
679.736
649.623
619.426
589.344
559.281
529.159
499.092
468.844
438.512
408.105
377.576
347.162
316.605
286.091
255.632
225.13
194.995
164.742
134.647
104.426
74.6366
44.6335
14.9472
2208.43
2207.74
2192.65
2150
2104.86
2067.77
2038.42
2009.19
1981.65
1952.44
1923.94
1894.68
1865.76
1836.4
1807.07
1777.59
1748.15
1718.65
1689.05
1659.36
1629.87
1600.13
1570.44
1540.69
1511
1481.3
1451.7
1422.03
1392.13
1362.41
1332.73
1303.08
1273.39
1243.72
1214.03
1184.41
1154.68
1125.05
1095.42
1065.9
1036.23
1006.66
977.081
947.565
917.935
888.334
858.666
829.019
799.249
769.516
739.668
709.737
679.738
649.623
619.427
589.342
559.283
529.158
499.094
468.843
438.515
408.104
377.58
347.16
316.606
286.088
255.634
225.127
194.994
164.739
134.646
104.423
74.6352
44.6299
14.9461
2208.46
2207.78
2192.7
2149.97
2104.82
2067.75
2038.41
2009.19
1981.64
1952.44
1923.94
1894.69
1865.76
1836.4
1807.07
1777.59
1748.15
1718.65
1689.05
1659.36
1629.87
1600.13
1570.44
1540.69
1511.01
1481.29
1451.7
1422.02
1392.13
1362.41
1332.73
1303.07
1273.39
1243.72
1214.03
1184.41
1154.68
1125.05
1095.42
1065.9
1036.23
1006.66
977.08
947.566
917.935
888.335
858.666
829.02
799.249
769.516
739.67
709.737
679.74
649.623
619.429
589.341
559.286
529.157
499.096
468.842
438.518
408.103
377.584
347.159
316.606
286.084
255.635
225.124
194.994
164.735
134.646
104.42
74.6337
44.6263
14.945
2208.48
2207.81
2192.72
2149.94
2104.78
2067.73
2038.4
2009.18
1981.63
1952.45
1923.94
1894.69
1865.75
1836.41
1807.06
1777.59
1748.15
1718.65
1689.05
1659.36
1629.87
1600.13
1570.44
1540.69
1511.01
1481.29
1451.7
1422.02
1392.13
1362.41
1332.73
1303.07
1273.39
1243.72
1214.03
1184.41
1154.68
1125.05
1095.42
1065.9
1036.23
1006.66
977.08
947.568
917.934
888.336
858.667
829.02
799.249
769.516
739.672
709.738
679.742
649.622
619.43
589.339
559.289
529.157
499.098
468.841
438.521
408.103
377.588
347.158
316.607
286.08
255.637
225.122
194.993
164.731
134.645
104.416
74.6322
44.6227
14.9438
2208.5
2207.83
2192.74
2149.92
2104.76
2067.71
2038.39
2009.18
1981.63
1952.45
1923.93
1894.69
1865.75
1836.41
1807.06
1777.59
1748.15
1718.65
1689.05
1659.36
1629.87
1600.13
1570.44
1540.69
1511.01
1481.29
1451.7
1422.02
1392.13
1362.41
1332.73
1303.07
1273.39
1243.72
1214.03
1184.41
1154.68
1125.05
1095.42
1065.9
1036.23
1006.66
977.079
947.569
917.934
888.338
858.667
829.021
799.25
769.517
739.673
709.739
679.744
649.622
619.431
589.337
559.291
529.156
499.1
468.839
438.524
408.102
377.592
347.157
316.608
286.076
255.638
225.119
194.992
164.728
134.644
104.413
74.6306
44.6191
14.9426
2208.52
2207.85
2192.74
2149.89
2104.73
2067.7
2038.38
2009.19
1981.62
1952.45
1923.93
1894.7
1865.75
1836.41
1807.06
1777.59
1748.15
1718.65
1689.05
1659.36
1629.87
1600.12
1570.44
1540.69
1511.01
1481.29
1451.7
1422.02
1392.14
1362.41
1332.74
1303.07
1273.39
1243.72
1214.03
1184.41
1154.68
1125.05
1095.42
1065.9
1036.23
1006.66
977.079
947.571
917.933
888.339
858.667
829.022
799.25
769.517
739.675
709.74
679.746
649.622
619.432
589.336
559.294
529.156
499.102
468.838
438.527
408.101
377.595
347.156
316.608
286.073
255.639
225.116
194.991
164.724
134.643
104.41
74.6291
44.6155
14.9414
2208.53
2207.85
2192.73
2149.85
2104.7
2067.69
2038.37
2009.19
1981.62
1952.45
1923.93
1894.7
1865.75
1836.42
1807.06
1777.6
1748.15
1718.65
1689.05
1659.36
1629.88
1600.12
1570.44
1540.69
1511.01
1481.29
1451.7
1422.02
1392.14
1362.41
1332.74
1303.07
1273.39
1243.72
1214.03
1184.41
1154.68
1125.05
1095.42
1065.9
1036.23
1006.66
977.078
947.572
917.933
888.341
858.667
829.023
799.25
769.517
739.676
709.741
679.748
649.622
619.433
589.334
559.296
529.156
499.104
468.838
438.529
408.101
377.599
347.155
316.609
286.069
255.639
225.114
194.991
164.721
134.642
104.406
74.6276
44.612
14.9402
2208.55
2207.85
2192.7
2149.82
2104.68
2067.68
2038.37
2009.19
1981.62
1952.45
1923.93
1894.7
1865.75
1836.42
1807.06
1777.6
1748.15
1718.65
1689.05
1659.36
1629.88
1600.12
1570.44
1540.69
1511.01
1481.29
1451.7
1422.02
1392.14
1362.41
1332.74
1303.07
1273.4
1243.73
1214.03
1184.41
1154.68
1125.05
1095.42
1065.9
1036.23
1006.66
977.077
947.573
917.932
888.342
858.667
829.024
799.25
769.517
739.678
709.742
679.75
649.622
619.434
589.333
559.298
529.156
499.106
468.837
438.532
408.101
377.602
347.154
316.61
286.066
255.64
225.112
194.99
164.717
134.641
104.403
74.626
44.6086
14.939
2208.56
2207.84
2192.67
2149.77
2104.65
2067.67
2038.36
2009.19
1981.61
1952.45
1923.92
1894.7
1865.75
1836.42
1807.06
1777.6
1748.15
1718.65
1689.05
1659.36
1629.88
1600.12
1570.44
1540.68
1511.01
1481.29
1451.7
1422.02
1392.14
1362.41
1332.74
1303.07
1273.4
1243.73
1214.03
1184.41
1154.68
1125.05
1095.42
1065.9
1036.23
1006.66
977.077
947.575
917.932
888.343
858.667
829.025
799.249
769.518
739.679
709.743
679.752
649.622
619.435
589.331
559.3
529.156
499.108
468.836
438.534
408.101
377.605
347.154
316.61
286.063
255.64
225.11
194.989
164.714
134.641
104.4
74.6246
44.6054
14.9378
2208.57
2207.83
2192.62
2149.73
2104.62
2067.67
2038.36
2009.19
1981.61
1952.45
1923.92
1894.71
1865.74
1836.42
1807.06
1777.6
1748.15
1718.66
1689.05
1659.36
1629.88
1600.12
1570.44
1540.68
1511.01
1481.29
1451.7
1422.02
1392.14
1362.41
1332.74
1303.07
1273.4
1243.73
1214.04
1184.41
1154.68
1125.05
1095.42
1065.9
1036.23
1006.66
977.077
947.576
917.931
888.345
858.668
829.026
799.249
769.518