/*--------------------------------*- C++ -*----------------------------------*\
  =========                 |
  \\      /  F ield         | OpenFOAM: The Open Source CFD Toolbox
   \\    /   O peration     | Website:  https://openfoam.org
    \\  /    A nd           | Version:  7
     \\/     M anipulation  |
\*---------------------------------------------------------------------------*/
FoamFile
{
    version     2.0;
    format      ascii;
    class       surfaceScalarField;
    location    "50";
    object      phi;
}
// * * * * * * * * * * * * * * * * * * * * * * * * * * * * * * * * * * * * * //

dimensions      [0 3 -1 0 0 0 0];

internalField   nonuniform List<scalar> 
8865
(
0.00462522
0.00158577
0.00439171
0.000233946
0.00396777
0.000424644
0.00333175
0.000636621
0.00292593
0.000405261
0.00275443
0.000170376
0.00268781
6.52322e-05
0.00266256
2.38445e-05
0.00264998
1.18963e-05
0.00264195
7.06956e-06
0.00263621
5.31656e-06
0.00263189
4.4652e-06
0.00262917
3.05007e-06
0.00262728
2.62657e-06
0.00262603
1.23572e-06
0.00262511
9.43012e-07
0.00262464
7.48696e-07
0.00262435
7.00092e-07
0.00262424
4.50058e-07
0.00262375
1.14265e-07
0.00262391
1.02026e-06
0.00262371
1.40754e-07
0.00262366
7.53852e-08
0.0026235
-4.96458e-07
0.00262353
6.99029e-07
0.00262349
-1.53331e-08
0.0026236
-1.28381e-07
0.00262379
-3.92808e-07
0.00262367
2.49255e-07
0.0026237
1.83476e-07
0.00262388
-2.72079e-07
0.00262418
-1.00277e-06
0.00262479
-4.44471e-07
0.00262528
-8.61464e-07
0.00262594
-1.00424e-06
0.00262677
-1.52688e-06
0.00262775
-1.62602e-06
0.00262864
-1.59322e-06
0.00262981
-1.86679e-06
0.00263129
-1.94187e-06
0.00263223
-2.05752e-06
0.00263349
-2.1372e-06
0.00263539
-2.61928e-06
0.00263771
-2.60315e-06
0.00263893
-1.72444e-06
0.00263914
-1.17514e-06
0.00263918
-7.24233e-07
0.00263997
-1.1457e-06
0.00264151
-1.77116e-06
0.00264266
-9.33632e-07
0.00264207
-6.60375e-07
0.00264137
-1.01652e-06
0.00264149
-1.36463e-06
0.00264288
-1.986e-06
0.00264502
-2.44378e-06
0.00264685
-1.42773e-06
0.0026467
-8.22697e-07
0.00264712
-2.24778e-06
0.00264722
-4.63112e-07
0.00264833
-2.71536e-06
0.00264912
-6.78171e-07
0.00264879
-2.18091e-06
0.00264774
-4.40385e-07
0.00264823
-1.51657e-06
0.00264887
3.25253e-07
0.00265027
-2.54308e-07
0.00265205
-2.06992e-07
0.00265259
9.37766e-07
0.00265233
3.10512e-06
0.00265081
4.29635e-06
0.00264844
5.45564e-06
0.00264538
5.17544e-06
0.00264316
4.72336e-06
0.00264111
4.35143e-06
3.46169e-06
0.0058574
0.00255311
0.00540174
0.000689876
0.00461533
0.00121136
0.00381294
0.00143924
0.00335351
0.000864449
0.00316787
0.00035556
0.003094
0.000138541
0.00306646
5.0827e-05
0.00305111
2.6986e-05
0.00304223
1.55711e-05
0.00303519
1.22054e-05
0.00303043
9.27872e-06
0.003027
6.61398e-06
0.00302479
5.11586e-06
0.00302326
2.76205e-06
0.00302225
1.95814e-06
0.00302167
1.44322e-06
0.00302136
1.16836e-06
0.00302126
6.82437e-07
0.00302105
5.05629e-07
0.00302095
1.2664e-06
0.00302083
2.53946e-07
0.00302075
1.48928e-07
0.00302061
-6.28486e-07
0.00302067
9.13228e-07
0.00302073
-1.14046e-07
0.00302079
-1.78675e-07
0.0030208
-8.10808e-07
0.00302081
6.3303e-07
0.00302083
2.47295e-07
0.003021
-4.73927e-07
0.00302135
-1.63046e-06
0.00302194
-9.57638e-07
0.00302249
-1.55143e-06
0.00302323
-1.8851e-06
0.0030242
-2.75861e-06
0.00302531
-2.98127e-06
0.00302635
-2.89678e-06
0.00302775
-3.53425e-06
0.00302944
-3.80494e-06
0.00303056
-3.59761e-06
0.00303202
-3.91824e-06
0.00303428
-5.14767e-06
0.00303696
-5.39616e-06
0.00303841
-3.36183e-06
0.00303856
-1.68541e-06
0.00303857
-9.86797e-07
0.00303941
-2.12285e-06
0.00304135
-3.79043e-06
0.00304263
-2.14078e-06
0.00304184
-3.33055e-07
0.00304077
-5.89797e-07
0.00304084
-1.89832e-06
0.00304247
-3.83502e-06
0.00304525
-5.34479e-06
0.00304746
-3.48576e-06
0.00304717
-8.95972e-07
0.00304739
-3.15413e-06
0.00304743
-6.45121e-07
0.00304864
-4.52435e-06
0.00304977
-1.77569e-06
0.00304907
-2.42104e-06
0.00304785
2.14976e-07
0.00304819
-2.25081e-06
0.00304917
-2.89499e-07
0.00305088
-1.51657e-06
0.00305307
-1.81795e-06
0.00305367
8.91357e-07
0.00305336
4.47639e-06
0.00305164
7.07314e-06
0.00304898
9.27123e-06
0.00304563
9.32364e-06
0.00304314
8.1421e-06
0.00304092
7.42349e-06
5.4837e-06
0.00687111
0.00318119
0.00620343
0.00135769
0.00514198
0.00227294
0.00423324
0.00234808
0.00373626
0.00136135
0.00353983
0.000551801
0.00346093
0.000217196
0.00343152
7.99744e-05
0.0034144
4.39865e-05
0.00340461
2.51858e-05
0.00339664
2.00924e-05
0.00339137
1.4571e-05
0.00338748
1.05639e-05
0.00338502
7.71724e-06
0.00338331
4.4706e-06
0.0033822
3.07219e-06
0.00338153
2.15824e-06
0.00338118
1.59497e-06
0.00338104
8.86433e-07
0.00338086
3.97403e-07
0.00338067
1.88438e-06
0.00338055
3.58465e-07
0.00338045
2.61141e-07
0.0033803
-5.91066e-07
0.00338037
9.75547e-07
0.00338046
-2.01069e-07
0.00338051
-2.38751e-07
0.00338047
-5.91676e-07
0.00338052
3.85279e-07
0.00338056
2.47891e-07
0.00338075
-6.86414e-07
0.00338115
-2.16414e-06
0.00338179
-1.57028e-06
0.00338241
-2.24179e-06
0.00338325
-2.788e-06
0.00338433
-3.97205e-06
0.00338557
-4.34478e-06
0.00338674
-4.1982e-06
0.00338832
-5.24656e-06
0.00339019
-5.76342e-06
0.00339144
-5.06062e-06
0.00339306
-5.71412e-06
0.0033956
-7.82086e-06
0.00339857
-8.42693e-06
0.00340016
-5.04925e-06
0.0034003
-2.00881e-06
0.00340031
-1.13137e-06
0.00340123
-3.11959e-06
0.0034034
-6.00214e-06
0.00340479
-3.48007e-06
0.00340386
3.49389e-07
0.00340265
2.91652e-07
0.00340274
-2.23634e-06
0.00340456
-5.76866e-06
0.0034077
-8.54837e-06
0.00341013
-5.83201e-06
0.00340977
-7.25037e-07
0.00341001
-3.7429e-06
0.00341005
-7.57728e-07
0.00341138
-6.15499e-06
0.00341266
-3.03245e-06
0.00341181
-2.05646e-06
0.00341049
1.24793e-06
0.00341085
-2.81352e-06
0.00341197
-1.22178e-06
0.00341385
-3.17243e-06
0.00341629
-3.96146e-06
0.00341695
5.19947e-07
0.0034166
5.37946e-06
0.00341465
9.557e-06
0.00341167
1.28423e-05
0.00340798
1.34152e-05
0.00340523
1.13851e-05
0.0034028
1.03011e-05
7.19852e-06
0.00780039
0.00362136
0.00695934
0.00219888
0.00568491
0.00354751
0.00468456
0.00334855
0.00415188
0.0018939
0.00394438
0.000759084
0.00386051
0.000300796
0.00382924
0.000110985
0.00381053
6.25681e-05
0.00379984
3.57033e-05
0.00379103
2.88253e-05
0.00378525
2.03753e-05
0.00378096
1.49199e-05
0.00377826
1.05533e-05
0.00377638
6.35318e-06
0.00377516
4.28607e-06
0.00377443
2.94171e-06
0.00377404
2.07057e-06
0.00377387
1.11441e-06
0.00377369
7.48785e-07
0.00377344
2.11778e-06
0.00377331
4.90909e-07
0.0037732
3.64154e-07
0.00377304
-5.63206e-07
0.00377312
1.02809e-06
0.00377322
-3.22866e-07
0.00377327
-2.82935e-07
0.00377321
-8.10042e-07
0.00377328
5.8475e-07
0.00377332
2.49524e-07
0.00377354
-9.16961e-07
0.00377399
-2.75147e-06
0.00377469
-2.23756e-06
0.00377538
-2.98919e-06
0.0037763
-3.77285e-06
0.00377749
-5.2889e-06
0.00377885
-5.82106e-06
0.00378013
-5.60461e-06
0.00378187
-7.1074e-06
0.00378391
-7.88773e-06
0.00378528
-6.61909e-06
0.00378707
-7.65938e-06
0.00378986
-1.07331e-05
0.00379311
-1.17261e-05
0.00379482
-6.85458e-06
0.00379495
-2.30429e-06
0.00379497
-1.2683e-06
0.00379599
-4.20208e-06
0.00379837
-8.41812e-06
0.00379985
-4.93056e-06
0.00379882
1.16887e-06
0.00379749
1.31501e-06
0.00379763
-2.58915e-06
0.00379963
-7.87668e-06
0.00380308
-1.2049e-05
0.00380572
-8.39733e-06
0.0038053
-4.79294e-07
0.00380557
-4.33208e-06
0.00380563
-8.84028e-07
0.00380708
-7.88238e-06
0.00380848
-4.42627e-06
0.00380753
-1.53438e-06
0.00380612
2.38354e-06
0.00380652
-3.39539e-06
0.00380774
-2.27234e-06
0.00380977
-4.98767e-06
0.00381244
-6.36375e-06
0.00381313
8.41359e-08
0.00381273
6.28413e-06
0.00381056
1.22209e-05
0.00380729
1.6649e-05
0.00380326
1.78201e-05
0.00380027
1.48029e-05
0.00379763
1.33379e-05
8.96919e-06
0.00870775
0.00396861
0.00772827
0.00317842
0.00627829
0.00499756
0.00519072
0.0044362
0.00462214
0.00246242
0.004403
0.000978109
0.00431401
0.000389616
0.00428086
0.000143966
0.00426066
8.26916e-05
0.00424909
4.71504e-05
0.00423949
3.83743e-05
0.0042332
2.66702e-05
0.00422853
1.964e-05
0.00422559
1.35852e-05
0.00422354
8.39578e-06
0.00422223
5.60439e-06
0.00422143
3.77056e-06
0.004221
2.55457e-06
0.00422081
1.34707e-06
0.00422062
6.83949e-07
0.00422033
2.7492e-06
0.00422019
6.21426e-07
0.00422007
4.96733e-07
0.0042199
-4.62512e-07
0.00421998
1.03598e-06
0.00422009
-4.30028e-07
0.00422014
-3.45954e-07
0.00422007
-5.52616e-07
0.00422016
2.99127e-07
0.00422021
2.25359e-07
0.00422044
-1.16766e-06
0.00422094
-3.33771e-06
0.0042217
-2.98229e-06
0.00422244
-3.77645e-06
0.00422344
-4.81848e-06
0.00422474
-6.67676e-06
0.00422622
-7.38398e-06
0.0042276
-7.08463e-06
0.00422949
-9.08418e-06
0.0042317
-1.01621e-05
0.00423317
-8.23981e-06
0.00423512
-9.7237e-06
0.00423815
-1.386e-05
0.00424167
-1.52859e-05
0.00424351
-8.76722e-06
0.00424363
-2.55456e-06
0.00424366
-1.38248e-06
0.00424477
-5.36243e-06
0.00424735
-1.10282e-05
0.00424894
-6.49334e-06
0.0042478
2.13839e-06
0.00424637
2.512e-06
0.00424655
-2.92802e-06
0.00424874
-1.01462e-05
0.00425248
-1.58312e-05
0.00425531
-1.11719e-05
0.00425484
-1.46248e-07
0.00425515
-4.87858e-06
0.00425521
-9.98563e-07
0.0042568
-9.67656e-06
0.00425833
-5.94365e-06
0.00425728
-8.20082e-07
0.00425578
3.68381e-06
0.0042562
-3.95628e-06
0.00425751
-3.44596e-06
0.00425969
-7.00836e-06
0.00426256
-9.0403e-06
0.0042633
-4.46532e-07
0.00426284
7.1237e-06
0.00426047
1.49607e-05
0.00425692
2.06097e-05
0.00425257
2.24431e-05
0.00424937
1.8353e-05
0.00424653
1.64895e-05
1.07687e-05
0.00964508
0.00427386
0.00854775
0.00427583
0.00694049
0.00660494
0.00576719
0.00560958
0.00516215
0.00306736
0.0049308
0.00120929
0.00483659
0.000483601
0.00480159
0.000178742
0.00477998
0.000104202
0.0047676
5.9382e-05
0.00475724
4.86785e-05
0.00475047
3.34545e-05
0.00474542
2.47476e-05
0.00474225
1.68638e-05
0.00474004
1.06065e-05
0.00473862
7.02582e-06
0.00473776
4.67202e-06
0.00473729
3.0915e-06
0.00473708
1.60338e-06
0.00473688
1.07335e-06
0.00473657
3.00696e-06
0.00473642
7.78912e-07
0.00473628
6.19181e-07
0.0047361
-3.87874e-07
0.00473619
1.05224e-06
0.00473631
-5.67175e-07
0.00473636
-3.9647e-07
0.00473629
-7.47373e-07
0.00473638
4.71279e-07
0.00473643
2.12402e-07
0.00473668
-1.43415e-06
0.00473723
-3.9878e-06
0.00473804
-3.77073e-06
0.00473883
-4.61831e-06
0.0047399
-5.94294e-06
0.0047413
-8.17835e-06
0.00474289
-9.06539e-06
0.00474437
-8.66928e-06
0.00474639
-1.12061e-05
0.00474877
-1.26035e-05
0.00475034
-9.97618e-06
0.00475243
-1.19437e-05
0.0047557
-1.72219e-05
0.00475948
-1.91092e-05
0.00476144
-1.08071e-05
0.00476155
-2.80038e-06
0.00476157
-1.4972e-06
0.00476277
-6.61674e-06
0.00476555
-1.38351e-05
0.00476726
-8.17084e-06
0.00476603
3.18958e-06
0.00476449
3.79958e-06
0.00476469
-3.30284e-06
0.00476705
-1.25982e-05
0.00477107
-1.98911e-05
0.0047741
-1.4149e-05
0.0047736
2.17571e-07
0.00477392
-5.46371e-06
0.00477399
-1.12572e-06
0.00477571
-1.16216e-05
0.00477737
-7.59494e-06
0.00477625
-4.8202e-08
0.00477464
5.05529e-06
0.00477508
-4.53938e-06
0.00477644
-4.66889e-06
0.00477877
-9.14836e-06
0.00478185
-1.19221e-05
0.00478261
-9.89362e-07
0.0047821
8.04263e-06
0.00477956
1.79229e-05
0.00477576
2.48438e-05
0.00477113
2.73861e-05
0.00476773
2.21013e-05
0.00476471
1.98361e-05
1.26824e-05
0.0106469
0.00456091
0.00944264
0.00548012
0.00768733
0.00836033
0.00642913
0.00686784
0.00578713
0.0037093
0.0055431
0.00145322
0.00544364
0.000582909
0.00540692
0.0002153
0.00538405
0.000127004
0.00537095
7.23661e-05
0.00535989
5.96938e-05
0.00535267
4.06866e-05
0.00534725
3.02042e-05
0.00534385
2.03464e-05
0.00534148
1.29737e-05
0.00533996
8.55388e-06
0.00533904
5.62596e-06
0.00533853
3.64538e-06
0.0053383
1.86395e-06
0.00533809
9.94691e-07
0.00533775
3.72184e-06
0.00533759
9.33973e-07
0.00533744
7.71118e-07
0.00533725
-2.53598e-07
0.00533734
1.03697e-06
0.00533747
-6.89026e-07
0.00533753
-4.64659e-07
0.00533744
-4.28171e-07
0.00533755
1.19528e-07
0.0053376
1.76092e-07
0.00533787
-1.7166e-06
0.00533845
-4.64384e-06
0.00533932
-4.62503e-06
0.00534015
-5.49555e-06
0.00534129
-7.12074e-06
0.00534278
-9.75548e-06
0.00534447
-1.08347e-05
0.00534604
-1.03229e-05
0.00534818
-1.34329e-05
0.0053507
-1.5188e-05
0.00535238
-1.17885e-05
0.0053546
-1.42819e-05
0.00535808
-2.07847e-05
0.00536211
-2.31786e-05
0.0053642
-1.2959e-05
0.00536429
-3.01531e-06
0.0053643
-1.58837e-06
0.00536558
-7.94909e-06
0.00536854
-1.68234e-05
0.00537036
-9.96146e-06
0.00536905
4.33979e-06
0.00536741
5.22481e-06
0.00536762
-3.66913e-06
0.00537015
-1.52082e-05
0.00537444
-2.42078e-05
0.00537766
-1.73194e-05
0.00537713
6.24299e-07
0.00537747
-6.02789e-06
0.00537753
-1.23247e-06
0.00537938
-1.36697e-05
0.00538116
-9.36875e-06
0.00537998
8.34414e-07
0.00537827
6.56481e-06
0.00537869
-5.08719e-06
0.00538009
-5.94461e-06
0.00538256
-1.14544e-05
0.00538585
-1.50414e-05
0.00538664
-1.58763e-06
0.00538608
8.95689e-06
0.00538337
2.09835e-05
0.00537936
2.92404e-05
0.00537448
3.25236e-05
0.00537092
2.59831e-05
0.00536774
2.33086e-05
1.4659e-05
0.0117355
0.00484055
0.0104322
0.00678353
0.00853529
0.0102573
0.00719328
0.00820994
0.00651414
0.00438834
0.00625707
0.00171012
0.00615248
0.000687285
0.00611426
0.000253311
0.00609034
0.00015083
0.00607667
8.58873e-05
0.00606499
7.13228e-05
0.00605736
4.83351e-05
0.0060516
3.60188e-05
0.00604798
2.4065e-05
0.00604545
1.55043e-05
0.00604382
1.01842e-05
0.00604284
6.65752e-06
0.00604229
4.25483e-06
0.00604205
2.15142e-06
0.00604182
1.42446e-06
0.00604146
4.00282e-06
0.00604129
1.11621e-06
0.00604113
9.12511e-07
0.00604092
-1.48607e-07
0.00604103
1.02996e-06
0.00604117
-8.392e-07
0.00604122
-5.19474e-07
0.00604113
-6.205e-07
0.00604125
2.82304e-07
0.00604131
1.55459e-07
0.00604158
-2.01001e-06
0.0060422
-5.35864e-06
0.00604311
-5.51231e-06
0.00604398
-6.41504e-06
0.00604517
-8.36035e-06
0.00604675
-1.14355e-05
0.00604854
-1.27099e-05
0.00605017
-1.20612e-05
0.00605242
-1.57746e-05
0.00605508
-1.79169e-05
0.00605685
-1.37079e-05
0.0060592
-1.67544e-05
0.00606286
-2.45465e-05
0.00606713
-2.74809e-05
0.00606932
-1.52298e-05
0.0060694
-3.22024e-06
0.00606938
-1.66337e-06
0.00607074
-9.36315e-06
0.00607388
-1.99834e-05
0.00607581
-1.18674e-05
0.00607444
5.53641e-06
0.00607269
6.73441e-06
0.0060729
-4.04952e-06
0.00607558
-1.79766e-05
0.0060801
-2.87599e-05
0.00608351
-2.06773e-05
0.00608297
1.02762e-06
0.00608331
-6.61627e-06
0.00608335
-1.33536e-06
0.00608533
-1.58669e-05
0.00608725
-1.12778e-05
0.00608601
1.73767e-06
0.0060842
8.14138e-06
0.00608459
-5.61716e-06
0.00608598
-7.20528e-06
0.00608858
-1.38519e-05
0.00609208
-1.83564e-05
0.00609289
-2.18615e-06
0.00609228
9.96032e-06
0.00608943
2.42341e-05
0.00608524
3.38505e-05
0.00608016
3.79051e-05
0.00607647
3.00057e-05
0.00607316
2.69329e-05
1.67306e-05
0.0129276
0.00511593
0.011534
0.00817722
0.00950267
0.0122886
0.0080788
0.00963388
0.0073627
0.00510439
0.00709241
0.00198032
0.00698294
0.000796598
0.00694357
0.000292532
0.00691891
0.000175408
0.00690489
9.97994e-05
0.00689271
8.34558e-05
0.00688473
5.63209e-05
0.00687865
4.21366e-05
0.00687484
2.79687e-05
0.00687216
1.81814e-05
0.00687043
1.19175e-05
0.00686937
7.74627e-06
0.00686878
4.88712e-06
0.00686852
2.44423e-06
0.00686828
1.34157e-06
0.00686791
4.78278e-06
0.00686772
1.29616e-06
0.00686756
1.08423e-06
0.00686734
1.31139e-08
0.00686745
9.94023e-07
0.0068676
-9.72225e-07
0.00686765
-5.90246e-07
0.00686756
-2.58199e-07
0.00686768
-1.21493e-07
0.00686775
1.09239e-07
0.00686803
-2.31318e-06
0.00686867
-6.07479e-06
0.00686963
-6.45411e-06
0.00687053
-7.3572e-06
0.00687176
-9.63346e-06
0.00687342
-1.31788e-05
0.00687528
-1.46594e-05
0.00687698
-1.38475e-05
0.00687931
-1.81859e-05
0.00688209
-2.07601e-05
0.00688394
-1.5696e-05
0.00688639
-1.9322e-05
0.00689022
-2.84657e-05
0.00689469
-3.19876e-05
0.00689699
-1.76015e-05
0.00689704
-3.39212e-06
0.00689699
-1.69779e-06
0.00689842
-1.08394e-05
0.0069017
-2.32904e-05
0.00690375
-1.38814e-05
0.00690234
6.78344e-06
0.00690049
8.36247e-06
0.00690069
-4.4012e-06
0.0069035
-2.0873e-05
0.00690822
-3.35126e-05
0.0069118
-2.42021e-05
0.00691127
1.42889e-06
0.0069116
-7.17679e-06
0.00691162
-1.40027e-06
0.00691372
-1.81663e-05
0.00691576
-1.33055e-05
0.00691449
2.69919e-06
0.00691258
9.84187e-06
0.00691291
-6.06969e-06
0.00691426
-8.43784e-06
0.00691696
-1.63728e-05
0.00692066
-2.18888e-05
0.00692149
-2.82025e-06
0.00692082
1.09838e-05
0.00691787
2.75583e-05
0.00691353
3.85662e-05
0.0069083
4.33973e-05
0.00690453
3.41071e-05
0.00690112
3.06398e-05
1.88433e-05
0.0142382
0.00538632
0.0127661
0.00964938
0.0106101
0.0144448
0.0091076
0.0111365
0.00835521
0.00585666
0.00807165
0.00226373
0.00795777
0.000910256
0.00791773
0.000332364
0.00789278
0.000200255
0.00787868
0.000113752
0.00786617
9.59147e-05
0.00785794
6.45651e-05
0.00785159
4.85416e-05
0.00784759
3.20725e-05
0.00784477
2.10061e-05
0.00784294
1.3745e-05
0.00784182
8.91608e-06
0.00784119
5.57778e-06
0.00784091
2.76902e-06
0.00784066
1.82231e-06
0.00784028
5.0657e-06
0.00784008
1.50336e-06
0.0078399
1.24519e-06
0.00783967
1.43367e-07
0.00783979
9.65762e-07
0.00783994
-1.13127e-06
0.00784
-6.46449e-07
0.0078399
-4.67034e-07
0.00784003
4.46506e-08
0.0078401
8.11183e-08
0.00784039
-2.62061e-06
0.00784106
-6.84108e-06
0.00784205
-7.41505e-06
0.00784297
-8.32435e-06
0.00784422
-1.09423e-05
0.00784594
-1.50048e-05
0.00784789
-1.66932e-05
0.00784963
-1.56888e-05
0.007852
-2.06644e-05
0.00785489
-2.37082e-05
0.00785681
-1.77739e-05
0.00785935
-2.19897e-05
0.00786331
-3.25248e-05
0.00786795
-3.66713e-05
0.00787035
-2.00725e-05
0.00787037
-3.54509e-06
0.00787027
-1.69155e-06
0.00787175
-1.2374e-05
0.00787516
-2.67239e-05
0.0078773
-1.60032e-05
0.00787588
8.02687e-06
0.00787394
1.00603e-05
0.00787411
-4.73569e-06
0.00787703
-2.38842e-05
0.00788191
-3.84275e-05
0.00788564
-2.78816e-05
0.00788515
1.78067e-06
0.00788546
-7.74332e-06
0.00788544
-1.4406e-06
0.00788765
-2.05985e-05
0.00788981
-1.54624e-05
0.00788854
3.63866e-06
0.00788653
1.16006e-05
0.00788677
-6.4511e-06
0.00788804
-9.56754e-06
0.00789081
-1.89387e-05
0.0078947
-2.56012e-05
0.00789554
-3.44057e-06
0.00789482
1.21087e-05
0.00789177
3.10286e-05
0.00788735
4.34089e-05
0.00788202
4.90236e-05
0.00787821
3.82675e-05
0.00787474
3.44297e-05
2.1014e-05
0.0156819
0.00564741
0.0141477
0.0111836
0.0118808
0.0167118
0.0103047
0.0127127
0.0095172
0.00664406
0.0092205
0.00256034
0.00910286
0.00102774
0.00906282
0.000372239
0.00903816
0.000224833
0.00902437
0.000127428
0.00901175
0.000108485
0.00900339
7.293e-05
0.00899683
5.51485e-05
0.00899268
3.631e-05
0.00898973
2.39521e-05
0.00898782
1.56634e-05
0.00898662
1.01439e-05
0.00898595
6.29507e-06
0.00898566
3.09778e-06
0.00898539
1.6919e-06
0.00898501
5.93764e-06
0.0089848
1.70837e-06
0.00898461
1.43794e-06
0.00898436
3.30197e-07
0.0089845
9.09722e-07
0.00898465
-1.26995e-06
0.0089847
-7.16129e-07
0.00898461
-2.57267e-08
0.00898475
-4.53875e-07
0.00898483
2.08446e-08
0.00898511
-2.9287e-06
0.00898579
-7.59786e-06
0.00898681
-8.41561e-06
0.00898774
-9.29476e-06
0.008989
-1.22537e-05
0.00899078
-1.687e-05
0.00899277
-1.87757e-05
0.00899454
-1.75441e-05
0.00899694
-2.31571e-05
0.00899989
-2.67231e-05
0.00900187
-1.9901e-05
0.00900447
-2.4713e-05
0.00900853
-3.66721e-05
0.00901331
-4.14916e-05
0.00901578
-2.26205e-05
0.00901576
-3.65767e-06
0.0090156
-1.6178e-06
0.00901712
-1.39425e-05
0.00902062
-3.02506e-05
0.00902287
-1.82209e-05
0.00902147
9.25968e-06
0.00901944
1.18527e-05
0.00901955
-5.00783e-06
0.00902255
-2.69713e-05
0.00902754
-4.34552e-05
0.0090314
-3.16843e-05
0.00903097
2.07604e-06
0.00903126
-8.2686e-06
0.00903119
-1.41972e-06
0.0090335
-2.31147e-05
0.00903576
-1.77252e-05
0.00903451
4.58279e-06
0.00903241
1.34708e-05
0.00903253
-6.69856e-06
0.00903366
-1.05676e-05
0.00903648
-2.15706e-05
0.00904056
-2.9508e-05
0.0090414
-4.07717e-06
0.00904061
1.32761e-05
0.0090375
3.453e-05
0.00903304
4.82668e-05
0.0090277
5.46374e-05
0.00902389
4.24236e-05
0.00902041
3.82297e-05
2.31755e-05
0.017274
0.00589284
0.0156996
0.012758
0.0133409
0.0190706
0.0116983
0.0143554
0.0108776
0.00746463
0.0105681
0.00286969
0.0104476
0.00114801
0.0104084
0.00041117
0.0103848
0.000248338
0.0103718
0.000140272
0.0103594
0.00012086
0.010351
8.12656e-05
0.0103444
6.19027e-05
0.0103401
4.0674e-05
0.010337
2.70116e-05
0.010335
1.76572e-05
0.0103338
1.14526e-05
0.0103331
7.07074e-06
0.0103328
3.46495e-06
0.0103325
2.22238e-06
0.0103321
6.20248e-06
0.0103319
1.93928e-06
0.0103317
1.61919e-06
0.0103314
4.83357e-07
0.0103316
8.60394e-07
0.0103317
-1.4306e-06
0.0103318
-7.70957e-07
0.0103317
-2.58928e-07
0.0103318
-2.84901e-07
0.0103319
-1.61742e-08
0.0103322
-3.232e-06
0.0103329
-8.39091e-06
0.0103339
-9.41526e-06
0.0103348
-1.02654e-05
0.0103361
-1.35636e-05
0.0103379
-1.87858e-05
0.0103399
-2.09083e-05
0.0103417
-1.94115e-05
0.0103441
-2.56492e-05
0.0103471
-2.97839e-05
0.0103491
-2.20875e-05
0.0103517
-2.7485e-05
0.0103558
-4.08751e-05
0.0103607
-4.64076e-05
0.0103632
-2.52358e-05
0.0103632
-3.73778e-06
0.0103629
-1.46855e-06
0.0103645
-1.55332e-05
0.010368
-3.38411e-05
0.0103704
-2.05332e-05
0.010369
1.04257e-05
0.0103669
1.36954e-05
0.010367
-5.21639e-06
0.01037
-3.0107e-05
0.010375
-4.85423e-05
0.010379
-3.55936e-05
0.0103787
2.26592e-06
0.0103789
-8.77811e-06
0.0103788
-1.34787e-06
0.0103812
-2.57324e-05
0.0103835
-2.01022e-05
0.0103823
5.45861e-06
0.0103801
1.53941e-05
0.0103801
-6.81058e-06
0.010381
-1.13557e-05
0.0103839
-2.41876e-05
0.0103881
-3.35749e-05
0.010389
-4.68643e-06
0.0103881
1.45591e-05
0.010385
3.81187e-05
0.0103805
5.31341e-05
0.0103752
6.02393e-05
0.0103715
4.65288e-05
0.010368
4.20172e-05
2.53416e-05
0.0190307
0.00611376
0.0174442
0.0143446
0.0150194
0.0214955
0.0133201
0.0160548
0.0124689
0.00831583
0.0121471
0.00319131
0.0120249
0.00127004
0.0119878
0.000448135
0.0119662
0.000269846
0.0119547
0.000151721
0.0119428
0.000132668
0.0119347
8.93471e-05
0.011928
6.86696e-05
0.0119237
4.50727e-05
0.0119206
3.01437e-05
0.0119185
1.97168e-05
0.0119172
1.28144e-05
0.0119164
7.87279e-06
0.0119161
3.83352e-06
0.0119158
2.05185e-06
0.0119154
7.13104e-06
0.0119152
2.16704e-06
0.011915
1.83335e-06
0.0119147
6.9407e-07
0.0119149
7.83019e-07
0.011915
-1.56607e-06
0.0119151
-8.36664e-07
0.011915
2.44185e-07
0.0119151
-8.69777e-07
0.0119152
-9.0603e-08
0.0119155
-3.52353e-06
0.0119162
-9.15625e-06
0.0119172
-1.04326e-05
0.0119181
-1.12107e-05
0.0119193
-1.48324e-05
0.0119212
-2.0702e-05
0.0119232
-2.30477e-05
0.0119249
-2.12426e-05
0.0119273
-2.80778e-05
0.0119303
-3.28427e-05
0.0119323
-2.42861e-05
0.0119349
-3.02523e-05
0.011939
-4.50704e-05
0.011944
-5.13673e-05
0.0119465
-2.78903e-05
0.0119464
-3.76304e-06
0.0119461
-1.21226e-06
0.0119476
-1.71155e-05
0.0119512
-3.74546e-05
0.0119536
-2.29254e-05
0.0119523
1.15105e-05
0.0119502
1.56092e-05
0.0119501
-5.30862e-06
0.0119531
-3.32401e-05
0.0119582
-5.36261e-05
0.0119622
-3.95691e-05
0.011962
2.33778e-06
0.0119622
-9.22717e-06
0.011962
-1.18477e-06
0.0119644
-2.83977e-05
0.0119669
-2.25625e-05
0.0119657
6.28833e-06
0.0119635
1.74261e-05
0.0119632
-6.71986e-06
0.0119639
-1.18951e-05
0.0119667
-2.68032e-05
0.0119711
-3.78141e-05
0.011972
-5.29782e-06
0.011971
1.59023e-05
0.0119679
4.16758e-05
0.0119636
5.7888e-05
0.0119584
6.5665e-05
0.0119548
5.05139e-05
0.0119515
4.57127e-05
2.74239e-05
0.0209689
0.0063001
0.0194051
0.0159084
0.0169482
0.0239526
0.0152057
0.0177973
0.0143276
0.00919384
0.0139946
0.00352412
0.0138722
0.00139218
0.0138385
0.000481605
0.0138202
0.000288097
0.0138108
0.00016092
0.0138
0.000143411
0.0137925
9.69177e-05
0.0137859
7.53349e-05
0.0137816
4.94676e-05
0.0137784
3.33251e-05
0.0137763
2.18171e-05
0.0137749
1.42503e-05
0.0137741
8.72987e-06
0.0137738
4.2454e-06
0.0137734
2.6392e-06
0.0137731
7.33817e-06
0.0137729
2.41762e-06
0.0137726
2.03475e-06
0.0137724
8.68027e-07
0.0137725
7.12711e-07
0.0137727
-1.71809e-06
0.0137727
-8.87551e-07
0.0137727
-3.27945e-08
0.0137728
-6.8703e-07
0.0137729
-1.34568e-07
0.0137732
-3.79758e-06
0.0137738
-9.938e-06
0.0137748
-1.14204e-05
0.0137757
-1.2122e-05
0.0137769
-1.60493e-05
0.0137787
-2.26225e-05
0.0137807
-2.51865e-05
0.0137824
-2.30264e-05
0.0137846
-3.04167e-05
0.0137876
-3.58672e-05
0.0137896
-2.64963e-05
0.0137922
-3.29962e-05
0.0137962
-4.9211e-05
0.0138011
-5.63172e-05
0.0138037
-3.05661e-05
0.0138035
-3.73696e-06
0.0138031
-8.33121e-07
0.0138046
-1.86698e-05
0.0138081
-4.10546e-05
0.0138106
-2.53955e-05
0.0138095
1.24553e-05
0.0138073
1.75519e-05
0.013807
-5.27016e-06
0.01381
-3.63286e-05
0.013815
-5.86388e-05
0.0138191
-4.35898e-05
0.013819
2.24129e-06
0.0138192
-9.63955e-06
0.0138188
-9.37461e-07
0.0138213
-3.11191e-05
0.0138239
-2.51093e-05
0.0138228
7.00187e-06
0.0138204
1.95154e-05
0.01382
-6.42086e-06
0.0138203
-1.20952e-05
0.0138231
-2.93315e-05
0.0138276
-4.21923e-05
0.0138285
-5.87245e-06
0.0138274
1.73757e-05
0.0138243
4.52474e-05
0.0138202
6.25028e-05
0.0138153
7.08972e-05
0.0138119
5.43117e-05
0.0138087
4.92762e-05
2.94419e-05
0.0231067
0.00644031
0.0216078
0.0174074
0.0191619
0.0263985
0.0173944
0.0195649
0.0164945
0.0100936
0.0161517
0.00386682
0.0160311
0.0015127
0.0160025
0.000509939
0.0159889
0.000301636
0.0159827
0.000166958
0.0159736
0.000152484
0.0159669
0.000103624
0.0159606
8.16877e-05
0.0159565
5.37273e-05
0.0159533
3.64913e-05
0.0159512
2.39381e-05
0.0159497
1.57246e-05
0.0159489
9.60913e-06
0.0159485
4.64959e-06
0.0159482
2.39974e-06
0.0159479
8.31557e-06
0.0159476
2.665e-06
0.0159474
2.26904e-06
0.0159471
1.0989e-06
0.0159473
6.16433e-07
0.0159474
-1.83944e-06
0.0159475
-9.43855e-07
0.0159474
5.45649e-07
0.0159476
-1.3785e-06
0.0159477
-2.22881e-07
0.0159479
-4.04289e-06
0.0159485
-1.06674e-05
0.0159495
-1.23945e-05
0.0159503
-1.29689e-05
0.0159514
-1.71675e-05
0.0159532
-2.44886e-05
0.0159551
-2.72712e-05
0.0159567
-2.47052e-05
0.0159588
-3.25911e-05
0.0159616
-3.87977e-05
0.0159636
-2.86598e-05
0.0159662
-3.56519e-05
0.0159701
-5.32202e-05
0.0159749
-6.11927e-05
0.0159775
-3.32272e-05
0.0159772
-3.6349e-06
0.0159766
-2.93094e-07
0.015978
-2.01575e-05
0.0159815
-4.45934e-05
0.0159841
-2.79266e-05
0.0159831
1.32421e-05
0.0159808
1.95421e-05
0.0159804
-5.03752e-06
0.0159833
-3.93061e-05
0.0159881
-6.35036e-05
0.0159922
-4.76072e-05
0.0159923
1.96249e-06
0.0159924
-9.97447e-06
0.015992
-5.61578e-07
0.0159945
-3.38365e-05
0.015997
-2.77021e-05
0.0159961
7.62046e-06
0.0159936
2.17232e-05
0.0159929
-5.84281e-06
0.0159928
-1.1911e-05
0.0159955
-3.17784e-05
0.0160002
-4.67209e-05
0.016001
-6.44303e-06
0.0159999
1.89231e-05
0.0159969
4.87097e-05
0.015993
6.6843e-05
0.0159885
7.57531e-05
0.0159853
5.7845e-05
0.0159824
5.26208e-05
3.12739e-05
0.025463
0.00652282
0.0240782
0.0187923
0.0216978
0.0287791
0.0199293
0.0213336
0.019015
0.0110077
0.0186646
0.0042171
0.0185479
0.00162909
0.0185267
0.000530903
0.0185196
0.000308608
0.0185178
0.000168586
0.0185111
0.000159121
0.0185057
0.000109057
0.0184999
8.75208e-05
0.018496
5.77639e-05
0.0184929
3.95929e-05
0.0184908
2.6039e-05
0.0184894
1.72523e-05
0.0184885
1.05322e-05
0.0184881
5.10137e-06
0.0184877
3.0391e-06
0.0184875
8.42494e-06
0.0184873
2.92682e-06
0.018487
2.48835e-06
0.0184867
1.29026e-06
0.0184869
5.27222e-07
0.018487
-1.96985e-06
0.0184871
-9.87946e-07
0.0184871
2.12745e-07
0.0184872
-1.17676e-06
0.0184873
-2.667e-07
0.0184875
-4.25365e-06
0.0184881
-1.13845e-05
0.018489
-1.32997e-05
0.0184897
-1.37356e-05
0.0184907
-1.81672e-05
0.0184923
-2.62935e-05
0.0184942
-2.9282e-05
0.0184957
-2.62562e-05
0.0184975
-3.45604e-05
0.0185002
-4.15877e-05
0.0185022
-3.07602e-05
0.0185045
-3.81852e-05
0.0185082
-5.70344e-05
0.0185129
-6.59261e-05
0.0185154
-3.58452e-05
0.0185151
-3.45341e-06
0.0185143
4.32781e-07
0.0185156
-2.15482e-05
0.018519
-4.80279e-05
0.0185216
-3.05157e-05
0.0185208
1.38123e-05
0.0185185
2.15424e-05
0.0185179
-4.58103e-06
0.0185206
-4.21108e-05
0.0185252
-6.81382e-05
0.0185292
-5.1594e-05
0.0185295
1.4537e-06
0.0185295
-1.02531e-05
0.018529
-6.11432e-08
0.0185314
-3.65453e-05
0.018534
-3.03398e-05
0.0185332
8.08325e-06
0.0185306
2.40096e-05
0.0185296
-4.97535e-06
0.0185291
-1.12465e-05
0.0185316
-3.40533e-05
0.0185364
-5.13683e-05
0.0185372
-6.97878e-06
0.018536
2.06047e-05
0.0185332
5.20953e-05
0.0185296
7.0859e-05
0.0185256
8.01968e-05
0.0185228
6.102e-05
0.0185201
5.56872e-05
3.29592e-05
0.028058
0.00653612
0.0268433
0.0200071
0.0245952
0.0310273
0.0228575
0.0230714
0.0219392
0.0119259
0.0215843
0.00457194
0.0214745
0.00173864
0.0214632
0.000542096
0.0214647
0.000306924
0.0214687
0.000164471
0.0214654
0.000162423
0.0214617
0.000112692
0.0214568
9.25136e-05
0.0214533
6.13865e-05
0.0214503
4.25288e-05
0.0214483
2.8082e-05
0.0214468
1.87849e-05
0.0214459
1.14629e-05
0.0214455
5.53089e-06
0.0214451
2.72374e-06
0.021445
9.40376e-06
0.0214447
3.182e-06
0.0214445
2.73858e-06
0.0214442
1.53805e-06
0.0214444
4.1359e-07
0.0214445
-2.06238e-06
0.0214445
-1.03215e-06
0.0214445
8.54853e-07
0.0214446
-1.9695e-06
0.0214447
-3.57607e-07
0.0214449
-4.41371e-06
0.0214454
-1.20147e-05
0.0214463
-1.41483e-05
0.0214469
-1.43853e-05
0.0214476
-1.89922e-05
0.0214492
-2.79674e-05
0.021451
-3.1152e-05
0.0214522
-2.76096e-05
0.0214538
-3.62355e-05
0.0214563
-4.41622e-05
0.021458
-3.27225e-05
0.0214602
-4.05158e-05
0.0214636
-6.05598e-05
0.0214681
-7.04377e-05
0.0214705
-3.83715e-05
0.0214701
-3.16319e-06
0.021469
1.39125e-06
0.0214702
-2.27928e-05
0.0214734
-5.13022e-05
0.0214761
-3.31434e-05
0.0214756
1.41486e-05
0.0214732
2.35699e-05
0.0214723
-3.82466e-06
0.0214747
-4.4657e-05
0.021479
-7.24479e-05
0.021483
-5.54912e-05
0.0214835
7.06862e-07
0.0214834
-1.04393e-05
0.0214827
6.12878e-07
0.0214851
-3.91773e-05
0.0214877
-3.29699e-05
0.021487
8.41477e-06
0.0214842
2.6446e-05
0.0214829
-3.74533e-06
0.0214818
-1.00496e-05
0.0214842
-3.61534e-05
0.0214891
-5.61435e-05
0.0214899
-7.52017e-06
0.0214887
2.23569e-05
0.021486
5.52719e-05
0.0214829
7.43995e-05
0.0214794
8.40255e-05
0.0214771
6.37454e-05
0.0214749
5.83787e-05
3.43385e-05
0.0309126
0.00647054
0.0299297
0.0209902
0.0278948
0.0330623
0.0262301
0.0247362
0.0253221
0.0128338
0.0249673
0.00492648
0.0248681
0.00183762
0.0248694
0.000540509
0.0248821
0.000294112
0.0248934
0.000152953
0.0248945
0.000161323
0.0248932
0.000113942
0.0248895
9.63388e-05
0.0248865
6.44413e-05
0.0248839
4.52089e-05
0.0248819
3.00033e-05
0.0248805
2.03258e-05
0.0248796
1.24141e-05
0.0248792