/*--------------------------------*- C++ -*----------------------------------*\
  =========                 |
  \\      /  F ield         | OpenFOAM: The Open Source CFD Toolbox
   \\    /   O peration     | Website:  https://openfoam.org
    \\  /    A nd           | Version:  7
     \\/     M anipulation  |
\*---------------------------------------------------------------------------*/
FoamFile
{
    version     2.0;
    format      ascii;
    class       volVectorField;
    location    "50";
    object      U;
}
// * * * * * * * * * * * * * * * * * * * * * * * * * * * * * * * * * * * * * //

dimensions      [0 1 -1 0 0 0 0];

internalField   nonuniform List<vector> 
4500
(
(15.4048 -0.775752 0)
(14.4336 -0.0567212 0)
(13.8808 0.00181048 0)
(11.6509 0.00739507 0)
(9.80194 0.00498202 0)
(9.04771 0.00216652 0)
(8.70228 0.000832111 0)
(8.60866 0.000320221 0)
(8.54237 0.000109378 0)
(8.52182 3.26163e-05 0)
(8.49517 4.30522e-05 0)
(8.48304 7.30147e-05 0)
(8.47018 6.50073e-05 0)
(8.46411 8.91298e-05 0)
(8.45853 1.28778e-05 0)
(8.45569 -6.39132e-06 0)
(8.45316 1.72383e-05 0)
(8.45261 4.45266e-05 0)
(8.4521 4.67597e-05 0)
(8.45241 6.01568e-05 0)
(8.45195 -5.47075e-06 0)
(8.45165 1.70956e-06 0)
(8.45182 -1.31286e-06 0)
(8.45119 1.25995e-05 0)
(8.45113 -4.7047e-06 0)
(8.45152 2.44826e-06 0)
(8.45159 -3.54113e-06 0)
(8.45194 8.64926e-06 0)
(8.45152 -2.88189e-05 0)
(8.45208 -1.76479e-05 0)
(8.45127 -1.28168e-05 0)
(8.45272 7.98927e-07 0)
(8.45305 -4.84133e-05 0)
(8.4555 -2.39159e-05 0)
(8.45587 -2.64946e-05 0)
(8.45943 1.56829e-06 0)
(8.46111 -5.64641e-05 0)
(8.46525 -2.82645e-05 0)
(8.46647 -2.87385e-05 0)
(8.47284 -3.37854e-06 0)
(8.47575 -4.27392e-05 0)
(8.47907 -3.16617e-05 0)
(8.48336 -2.6915e-05 0)
(8.49142 -1.25101e-05 0)
(8.4983 -1.79125e-05 0)
(8.49989 -1.97308e-05 0)
(8.49921 -1.29706e-05 0)
(8.49993 -8.7684e-06 0)
(8.50374 -1.13489e-05 0)
(8.51103 9.4901e-07 0)
(8.51133 -2.05479e-05 0)
(8.50717 -4.08931e-05 0)
(8.50508 -3.47227e-05 0)
(8.5074 -2.64615e-05 0)
(8.514 -2.08854e-05 0)
(8.52325 -2.94772e-06 0)
(8.5265 -1.40768e-05 0)
(8.5218 -4.67951e-05 0)
(8.5269 -1.17491e-05 0)
(8.52212 -4.98571e-05 0)
(8.53371 -8.33669e-06 0)
(8.52933 -5.44316e-05 0)
(8.52974 -2.1843e-05 0)
(8.52232 -3.14454e-05 0)
(8.53084 1.24929e-05 0)
(8.52821 4.39909e-06 0)
(8.54048 1.09511e-05 0)
(8.54025 1.71762e-05 0)
(8.54337 6.03095e-05 0)
(8.53852 7.44832e-05 0)
(8.53446 0.00010569 0)
(8.52422 8.26469e-05 0)
(8.51638 0.000103255 0)
(8.51042 9.95599e-05 0)
(8.50434 9.12517e-05 0)
(17.5908 0.161522 0)
(16.7684 0.0193702 0)
(14.8972 0.00998496 0)
(12.1482 0.0132643 0)
(10.2001 0.00825547 0)
(9.45841 0.00346716 0)
(9.11336 0.00134487 0)
(9.02243 0.000513142 0)
(8.95278 0.000213698 0)
(8.93068 9.12203e-05 0)
(8.90211 9.47833e-05 0)
(8.88883 0.000111874 0)
(8.87507 9.38882e-05 0)
(8.86829 0.000112913 0)
(8.86229 2.25317e-05 0)
(8.85922 4.88812e-07 0)
(8.85655 2.48536e-05 0)
(8.85578 5.15773e-05 0)
(8.85501 5.17757e-05 0)
(8.85532 6.58355e-05 0)
(8.8547 -4.21916e-06 0)
(8.85417 3.30136e-06 0)
(8.85433 -4.58226e-07 0)
(8.85365 1.35879e-05 0)
(8.85362 -4.60712e-06 0)
(8.85408 2.2264e-06 0)
(8.85419 -4.43064e-06 0)
(8.85432 8.18142e-06 0)
(8.85384 -3.00965e-05 0)
(8.85464 -1.76553e-05 0)
(8.85385 -1.4646e-05 0)
(8.85549 -2.74376e-06 0)
(8.85586 -5.52855e-05 0)
(8.85856 -2.86279e-05 0)
(8.85899 -3.35943e-05 0)
(8.86285 -5.28579e-06 0)
(8.86462 -6.92645e-05 0)
(8.86922 -3.67532e-05 0)
(8.87059 -4.08659e-05 0)
(8.87746 -1.42058e-05 0)
(8.88042 -5.54506e-05 0)
(8.88409 -4.3474e-05 0)
(8.88878 -4.40839e-05 0)
(8.89737 -3.00249e-05 0)
(8.90453 -2.90587e-05 0)
(8.90605 -2.24053e-05 0)
(8.90528 -1.352e-05 0)
(8.90603 -1.37292e-05 0)
(8.91006 -2.43415e-05 0)
(8.91772 -6.02737e-06 0)
(8.91764 -1.75775e-05 0)
(8.91305 -3.58611e-05 0)
(8.91085 -3.60417e-05 0)
(8.9133 -3.71423e-05 0)
(8.92037 -4.00963e-05 0)
(8.93027 -1.75274e-05 0)
(8.93349 -1.45418e-05 0)
(8.92842 -5.13856e-05 0)
(8.93411 -1.27155e-05 0)
(8.92856 -6.03384e-05 0)
(8.94109 -1.60898e-05 0)
(8.93583 -5.32056e-05 0)
(8.93645 -1.52486e-05 0)
(8.92856 -3.48015e-05 0)
(8.93787 8.11763e-06 0)
(8.93482 -5.85707e-06 0)
(8.94806 -3.51748e-06 0)
(8.94783 1.42837e-05 0)
(8.95142 6.64202e-05 0)
(8.94603 9.02047e-05 0)
(8.94159 0.000128407 0)
(8.9307 0.000107786 0)
(8.92246 0.000124694 0)
(8.91623 0.000118106 0)
(8.90982 0.000102549 0)
(18.7454 0.0929984 0)
(17.924 0.013145 0)
(15.1653 0.0199638 0)
(12.2593 0.0221084 0)
(10.3211 0.0130581 0)
(9.60996 0.00535066 0)
(9.27404 0.00209566 0)
(9.18751 0.000794574 0)
(9.11763 0.000374824 0)
(9.09523 0.000183112 0)
(9.06612 0.000171876 0)
(9.05244 0.000165403 0)
(9.03847 0.000133412 0)
(9.03147 0.000140948 0)
(9.02541 3.79025e-05 0)
(9.02227 1.088e-05 0)
(9.01958 3.33011e-05 0)
(9.01872 5.80684e-05 0)
(9.01782 5.595e-05 0)
(9.01806 6.94794e-05 0)
(9.01735 -1.04727e-06 0)
(9.01674 4.98242e-06 0)
(9.01689 7.87303e-07 0)
(9.01619 1.45201e-05 0)
(9.01615 -4.25176e-06 0)
(9.01661 1.55425e-06 0)
(9.01674 -5.21172e-06 0)
(9.01682 8.83271e-06 0)
(9.01632 -3.21774e-05 0)
(9.01722 -1.82903e-05 0)
(9.01644 -1.73387e-05 0)
(9.01816 -7.89315e-06 0)
(9.01859 -6.38595e-05 0)
(9.02139 -3.60166e-05 0)
(9.02184 -4.34595e-05 0)
(9.02581 -1.63339e-05 0)
(9.0276 -8.55072e-05 0)
(9.03234 -5.00789e-05 0)
(9.03376 -5.84572e-05 0)
(9.04078 -3.20938e-05 0)
(9.04369 -7.20611e-05 0)
(9.04746 -6.16749e-05 0)
(9.05228 -7.0226e-05 0)
(9.061 -5.799e-05 0)
(9.06815 -4.56068e-05 0)
(9.06957 -2.64634e-05 0)
(9.06881 -1.52821e-05 0)
(9.0696 -2.25857e-05 0)
(9.07366 -4.47727e-05 0)
(9.08135 -1.7164e-05 0)
(9.08107 -1.19867e-05 0)
(9.07641 -2.89252e-05 0)
(9.07432 -3.97695e-05 0)
(9.07685 -5.49304e-05 0)
(9.084 -7.00593e-05 0)
(9.09395 -3.89711e-05 0)
(9.09706 -1.38482e-05 0)
(9.09195 -5.86948e-05 0)
(9.09795 -1.41814e-05 0)
(9.09214 -7.5792e-05 0)
(9.10495 -2.76039e-05 0)
(9.0993 -5.03867e-05 0)
(9.10014 -6.37976e-06 0)
(9.09222 -4.07316e-05 0)
(9.10177 5.70844e-09 0)
(9.09846 -2.08461e-05 0)
(9.1119 -2.41529e-05 0)
(9.11158 1.03955e-05 0)
(9.11531 7.594e-05 0)
(9.10968 0.000115801 0)
(9.10505 0.000164865 0)
(9.09396 0.000148439 0)
(9.08563 0.000158234 0)
(9.07936 0.000147742 0)
(9.07287 0.000120806 0)
(19.3674 0.041745 0)
(18.5099 0.0186647 0)
(15.2719 0.0332445 0)
(12.3218 0.0328453 0)
(10.4179 0.0188214 0)
(9.73722 0.0075998 0)
(9.41124 0.00300092 0)
(9.32896 0.00113383 0)
(9.25974 0.000573703 0)
(9.2375 0.000295579 0)
(9.20833 0.000266977 0)
(9.19455 0.000230223 0)
(9.18059 0.000182025 0)
(9.17356 0.000174695 0)
(9.16753 5.7367e-05 0)
(9.16438 2.36451e-05 0)
(9.16171 4.33478e-05 0)
(9.16083 6.55636e-05 0)
(9.15987 6.08425e-05 0)
(9.16007 7.40789e-05 0)
(9.15932 2.55799e-06 0)
(9.15868 6.89187e-06 0)
(9.15881 2.27772e-06 0)
(9.15812 1.60394e-05 0)
(9.15808 -4.37454e-06 0)
(9.15852 5.88458e-07 0)
(9.15865 -5.99635e-06 0)
(9.15872 9.50258e-06 0)
(9.15823 -3.43135e-05 0)
(9.15915 -1.92864e-05 0)
(9.15839 -2.05964e-05 0)
(9.16014 -1.39363e-05 0)
(9.16059 -7.40499e-05 0)
(9.16342 -4.50017e-05 0)
(9.16386 -5.5306e-05 0)
(9.16785 -2.96905e-05 0)
(9.16964 -0.000104707 0)
(9.17441 -6.62109e-05 0)
(9.17582 -7.96798e-05 0)
(9.18285 -5.39038e-05 0)
(9.18571 -9.15674e-05 0)
(9.18949 -8.36794e-05 0)
(9.19434 -0.000102021 0)
(9.20304 -9.22074e-05 0)
(9.21012 -6.5395e-05 0)
(9.21144 -3.07675e-05 0)
(9.21069 -1.70934e-05 0)
(9.21152 -3.33375e-05 0)
(9.21557 -6.97899e-05 0)
(9.22319 -3.07205e-05 0)
(9.2228 -4.16984e-06 0)
(9.21815 -1.9492e-05 0)
(9.21618 -4.39874e-05 0)
(9.21876 -7.68126e-05 0)
(9.2259 -0.000106958 0)
(9.23575 -6.52896e-05 0)
(9.23875 -1.20962e-05 0)
(9.23367 -6.65984e-05 0)
(9.23981 -1.56869e-05 0)
(9.23392 -9.41247e-05 0)
(9.2468 -4.19794e-05 0)
(9.24098 -4.54292e-05 0)
(9.24197 4.91795e-06 0)
(9.2341 -4.73911e-05 0)
(9.24369 -1.05386e-05 0)
(9.24022 -3.96346e-05 0)
(9.25363 -4.99667e-05 0)
(9.25321 5.35074e-06 0)
(9.25695 8.6597e-05 0)
(9.25122 0.000146052 0)
(9.24654 0.000208079 0)
(9.23544 0.000197124 0)
(9.22716 0.000197839 0)
(9.22098 0.000182892 0)
(9.21449 0.000141945 0)
(19.6739 0.0415737 0)
(18.8015 0.0299923 0)
(15.3382 0.0490133 0)
(12.3944 0.0448966 0)
(10.5354 0.0251709 0)
(9.88362 0.0100543 0)
(9.56776 0.00399481 0)
(9.48961 0.00150609 0)
(9.42157 0.000796249 0)
(9.39981 0.00042119 0)
(9.37089 0.000373738 0)
(9.35722 0.000302307 0)
(9.3434 0.000236484 0)
(9.33642 0.000212059 0)
(9.33047 7.94819e-05 0)
(9.32735 3.78901e-05 0)
(9.32472 5.43081e-05 0)
(9.32383 7.3611e-05 0)
(9.32287 6.61212e-05 0)
(9.32304 7.88143e-05 0)
(9.32229 6.77501e-06 0)
(9.32163 8.89321e-06 0)
(9.32177 3.91456e-06 0)
(9.32108 1.78123e-05 0)
(9.32104 -4.69984e-06 0)
(9.32146 -5.42275e-07 0)
(9.3216 -6.75397e-06 0)
(9.32166 1.07359e-05 0)
(9.32118 -3.70543e-05 0)
(9.32211 -2.05902e-05 0)
(9.32135 -2.4202e-05 0)
(9.3231 -2.04667e-05 0)
(9.32355 -8.53253e-05 0)
(9.32636 -5.49699e-05 0)
(9.32679 -6.83608e-05 0)
(9.33075 -4.4486e-05 0)
(9.33251 -0.000125739 0)
(9.33723 -8.40683e-05 0)
(9.3386 -0.000103135 0)
(9.34556 -7.82533e-05 0)
(9.34834 -0.000112753 0)
(9.35208 -0.000108107 0)
(9.35689 -0.000137449 0)
(9.36549 -0.000130564 0)
(9.37244 -8.71798e-05 0)
(9.37369 -3.50937e-05 0)
(9.37293 -1.89515e-05 0)
(9.37377 -4.54895e-05 0)
(9.37779 -9.78823e-05 0)
(9.38528 -4.59457e-05 0)
(9.38484 5.11643e-06 0)
(9.38024 -8.5861e-06 0)
(9.37837 -4.87497e-05 0)
(9.38096 -0.000101611 0)
(9.38802 -0.000148433 0)
(9.39769 -9.4694e-05 0)
(9.40059 -9.57063e-06 0)
(9.39559 -7.49819e-05 0)
(9.40172 -1.71846e-05 0)
(9.39586 -0.000114683 0)
(9.40868 -5.82404e-05 0)
(9.40282 -3.93551e-05 0)
(9.4039 1.7696e-05 0)
(9.39614 -5.45517e-05 0)
(9.4056 -2.24642e-05 0)
(9.40205 -6.08174e-05 0)
(9.4153 -7.8924e-05 0)
(9.4148 -1.10724e-07 0)
(9.41848 9.83109e-05 0)
(9.41277 0.000179498 0)
(9.40811 0.000255806 0)
(9.39717 0.000250912 0)
(9.38906 0.000241317 0)
(9.38305 0.000221715 0)
(9.37664 0.000165335 0)
(19.8216 0.0474437 0)
(18.9591 0.0424597 0)
(15.4036 0.0667327 0)
(12.4957 0.0579753 0)
(10.6883 0.0319532 0)
(10.0642 0.0126537 0)
(9.75871 0.00505164 0)
(9.68467 0.00190101 0)
(9.61827 0.00103618 0)
(9.5973 0.0005566 0)
(9.56889 0.000489324 0)
(9.55549 0.000379887 0)
(9.54193 0.000295365 0)
(9.53506 0.000252076 0)
(9.52922 0.000103679 0)
(9.52615 5.32801e-05 0)
(9.52357 6.58803e-05 0)
(9.52269 8.1963e-05 0)
(9.52173 7.15628e-05 0)
(9.52191 8.38258e-05 0)
(9.52116 1.11693e-05 0)
(9.5205 1.09614e-05 0)
(9.52064 5.62139e-06 0)
(9.51996 1.98669e-05 0)
(9.51993 -5.30649e-06 0)
(9.52034 -1.80189e-06 0)
(9.52047 -7.46893e-06 0)
(9.52053 1.20749e-05 0)
(9.52005 -3.98907e-05 0)
(9.52098 -2.20828e-05 0)
(9.52022 -2.80066e-05 0)
(9.52195 -2.7364e-05 0)
(9.52239 -9.72817e-05 0)
(9.52515 -6.55925e-05 0)
(9.52554 -8.22182e-05 0)
(9.52943 -6.04154e-05 0)
(9.53115 -0.000147954 0)
(9.53577 -0.000103118 0)
(9.53707 -0.000128133 0)
(9.5439 -0.000104599 0)
(9.54659 -0.000134958 0)
(9.55025 -0.000134285 0)
(9.55496 -0.000175585 0)
(9.56337 -0.000172194 0)
(9.57016 -0.000110432 0)
(9.57132 -3.92376e-05 0)
(9.57056 -2.07824e-05 0)
(9.57139 -5.88276e-05 0)
(9.57534 -0.000128405 0)
(9.58265 -6.26706e-05 0)
(9.58221 1.5604e-05 0)
(9.5777 3.55711e-06 0)
(9.57589 -5.39263e-05 0)
(9.57846 -0.000128765 0)
(9.58539 -0.000193423 0)
(9.5948 -0.000126565 0)
(9.59763 -6.41079e-06 0)
(9.59273 -8.35808e-05 0)
(9.59874 -1.86884e-05 0)
(9.59298 -0.000137052 0)
(9.60562 -7.61014e-05 0)
(9.59982 -3.24331e-05 0)
(9.60096 3.16319e-05 0)
(9.59334 -6.19563e-05 0)
(9.60254 -3.53065e-05 0)
(9.59896 -8.37928e-05 0)
(9.61196 -0.00011033 0)
(9.61141 -5.74889e-06 0)
(9.61497 0.000110806 0)
(9.60936 0.000215281 0)
(9.60481 0.000306715 0)
(9.59416 0.000308333 0)
(9.58633 0.000287361 0)
(9.58054 0.000263076 0)
(9.57429 0.000190194 0)
(19.8973 0.0511331 0)
(19.0589 0.0558658 0)
(15.4862 0.0861968 0)
(12.6349 0.0720299 0)
(10.8846 0.0391546 0)
(10.2871 0.0153956 0)
(9.99225 0.00616882 0)
(9.92244 0.00231641 0)
(9.85816 0.00129158 0)
(9.83828 0.00070064 0)
(9.81062 0.000612956 0)
(9.79766 0.000462573 0)
(9.78442 0.00035843 0)
(9.77773 0.000294608 0)
(9.77204 0.000129881 0)
(9.76903 6.97784e-05 0)
(9.76651 7.80351e-05 0)
(9.76565 9.05986e-05 0)
(9.7647 7.71329e-05 0)
(9.76487 8.87713e-05 0)
(9.76415 1.59972e-05 0)
(9.7635 1.30768e-05 0)
(9.76364 7.40137e-06 0)
(9.76297 2.20381e-05 0)
(9.76295 -6.01841e-06 0)
(9.76334 -3.16807e-06 0)
(9.76348 -8.14694e-06 0)
(9.76352 1.37704e-05 0)
(9.76306 -4.30652e-05 0)
(9.76398 -2.37236e-05 0)
(9.76323 -3.19467e-05 0)
(9.76492 -3.46007e-05 0)
(9.76533 -0.000109793 0)
(9.76801 -7.67585e-05 0)
(9.76836 -9.67359e-05 0)
(9.77213 -7.74254e-05 0)
(9.77381 -0.000171162 0)
(9.77828 -0.000123195 0)
(9.7795 -0.000154439 0)
(9.78612 -0.000132817 0)
(9.78872 -0.000157997 0)
(9.79226 -0.000162031 0)
(9.79683 -0.000216166 0)
(9.80498 -0.000216903 0)
(9.81158 -0.000135041 0)
(9.81266 -4.30994e-05 0)
(9.81188 -2.25068e-05 0)
(9.81267 -7.32896e-05 0)
(9.81653 -0.000161181 0)
(9.8236 -8.09434e-05 0)
(9.8232 2.7187e-05 0)
(9.81881 1.69684e-05 0)
(9.81705 -5.93834e-05 0)
(9.81955 -0.00015811 0)
(9.8263 -0.000241614 0)
(9.83538 -0.000160835 0)
(9.83815 -2.73851e-06 0)
(9.8334 -9.22312e-05 0)
(9.8392 -2.01766e-05 0)
(9.8336 -0.00016112 0)
(9.84594 -9.55583e-05 0)
(9.8403 -2.47628e-05 0)
(9.84146 4.67288e-05 0)
(9.83402 -6.93837e-05 0)
(9.84285 -4.87988e-05 0)
(9.83926 -0.000108427 0)
(9.85193 -0.000144124 0)
(9.85137 -1.15445e-05 0)
(9.85476 0.000123948 0)
(9.84931 0.000253047 0)
(9.84494 0.000360291 0)
(9.8347 0.000368827 0)
(9.82722 0.00033548 0)
(9.82171 0.000306508 0)
(9.8157 0.000216328 0)
(19.9398 0.0542497 0)
(19.1354 0.0704152 0)
(15.5958 0.107324 0)
(12.8178 0.0870563 0)
(11.1294 0.0467836 0)
(10.5577 0.0182864 0)
(10.274 0.00734648 0)
(10.2086 0.0027506 0)
(10.147 0.00156051 0)
(10.1285 0.000851969 0)
(10.1018 0.000743934 0)
(10.0895 0.000550077 0)
(10.0767 0.000425621 0)
(10.0702 0.000339685 0)
(10.0647 0.000158081 0)
(10.0617 8.73758e-05 0)
(10.0593 9.0821e-05 0)
(10.0585 9.95912e-05 0)
(10.0575 8.28961e-05 0)
(10.0577 9.38603e-05 0)
(10.057 2.10714e-05 0)
(10.0564 1.52448e-05 0)
(10.0565 9.2545e-06 0)
(10.0558 2.44138e-05 0)
(10.0558 -6.92188e-06 0)
(10.0562 -4.63151e-06 0)
(10.0563 -8.78789e-06 0)
(10.0564 1.56166e-05 0)
(10.0559 -4.63965e-05 0)
(10.0568 -2.54944e-05 0)
(10.0561 -3.59864e-05 0)
(10.0577 -4.21648e-05 0)
(10.0581 -0.00012281 0)
(10.0607 -8.84077e-05 0)
(10.061 -0.000111819 0)
(10.0646 -9.54707e-05 0)
(10.0662 -0.000195289 0)
(10.0705 -0.000144203 0)
(10.0717 -0.000181878 0)
(10.078 -0.000162789 0)
(10.0805 -0.000181794 0)
(10.0839 -0.000191233 0)
(10.0883 -0.000258989 0)
(10.0961 -0.000264507 0)
(10.1025 -0.000160941 0)
(10.1035 -4.65991e-05 0)
(10.1027 -2.40254e-05 0)
(10.1034 -8.87875e-05 0)
(10.1072 -0.000196035 0)
(10.1139 -0.000100781 0)
(10.1136 3.97386e-05 0)
(10.1094 3.16819e-05 0)
(10.1076 -6.49701e-05 0)
(10.11 -0.000189485 0)
(10.1166 -0.000292723 0)
(10.1253 -0.000197458 0)
(10.128 1.28717e-06 0)
(10.1234 -0.000100787 0)
(10.1289 -2.16097e-05 0)
(10.1235 -0.000186783 0)
(10.1355 -0.000116654 0)
(10.1301 -1.64264e-05 0)
(10.1312 6.29931e-05 0)
(10.124 -7.65832e-05 0)
(10.1324 -6.26168e-05 0)
(10.1288 -0.000134574 0)
(10.141 -0.00018035 0)
(10.1405 -1.75065e-05 0)
(10.1437 0.00013766 0)
(10.1385 0.000292535 0)
(10.1343 0.000416097 0)
(10.1246 0.000431923 0)
(10.1175 0.000385271 0)
(10.1123 0.000351643 0)
(10.1066 0.000243411 0)
(19.9659 0.0574038 0)
(19.2055 0.08607 0)
(15.7389 0.130046 0)
(13.0486 0.103041 0)
(11.4265 0.0548419 0)
(10.88 0.0213298 0)
(10.6081 0.00858266 0)
(10.5475 0.0032004 0)
(10.489 0.00183995 0)
(10.4723 0.00100854 0)
(10.4469 0.000881118 0)
(10.4353 0.00064185 0)
(10.423 0.000496744 0)
(10.4168 0.000387239 0)
(10.4114 0.00018824 0)
(10.4086 0.000106044 0)
(10.4062 0.000104279 0)
(10.4054 0.000109014 0)
(10.4045 8.89117e-05 0)
(10.4047 9.90162e-05 0)
(10.404 2.64803e-05 0)
(10.4034 1.7463e-05 0)
(10.4035 1.11927e-05 0)
(10.4029 2.69574e-05 0)
(10.4029 -7.97272e-06 0)
(10.4033 -6.17915e-06 0)
(10.4034 -9.38537e-06 0)
(10.4034 1.76897e-05 0)
(10.403 -4.99882e-05 0)
(10.4039 -2.74068e-05 0)
(10.4031 -4.009e-05 0)
(10.4047 -5.00345e-05 0)
(10.4051 -0.00013628 0)
(10.4075 -0.00010048 0)
(10.4078 -0.000127351 0)
(10.4112 -0.000114481 0)
(10.4128 -0.000220251 0)
(10.4168 -0.000166034 0)
(10.4179 -0.000210235 0)
(10.4239 -0.000194342 0)
(10.4263 -0.000206276 0)
(10.4295 -0.000221766 0)
(10.4337 -0.000303794 0)
(10.4411 -0.000314739 0)
(10.4472 -0.000188034 0)
(10.4482 -4.96809e-05 0)
(10.4473 -2.52362e-05 0)
(10.448 -0.00010521 0)
(10.4516 -0.000232729 0)
(10.458 -0.000122142 0)
(10.4578 5.30493e-05 0)
(10.4538 4.7649e-05 0)
(10.4521 -7.05397e-05 0)
(10.4543 -0.000222688 0)
(10.4606 -0.000346374 0)
(10.4688 -0.000236294 0)
(10.4715 5.44788e-06 0)
(10.4672 -0.000109146 0)
(10.4723 -2.29106e-05 0)
(10.4672 -0.00021395 0)
(10.4786 -0.000139367 0)
(10.4735 -7.61546e-06 0)
(10.4747 8.03864e-05 0)
(10.4677 -8.32905e-05 0)
(10.4755 -7.63239e-05 0)
(10.4719 -0.000162012 0)
(10.4837 -0.000218966 0)
(10.4832 -2.35993e-05 0)
(10.4862 0.000151959 0)
(10.4812 0.000333507 0)
(10.4773 0.000473699 0)
(10.4681 0.000497068 0)
(10.4616 0.000436329 0)
(10.4567 0.000398109 0)
(10.4513 0.000271233 0)
(19.9831 0.0605731 0)
(19.2776 0.102705 0)
(15.9197 0.154269 0)
(13.3304 0.119953 0)
(11.7788 0.0633244 0)
(11.257 0.0245273 0)
(10.9975 0.0098732 0)
(10.9421 0.00366099 0)
(10.8873 0.00212555 0)
(10.8728 0.00116748 0)
(10.8489 0.00102286 0)
(10.8382 0.000737037 0)
(10.8264 0.000571443 0)
(10.8206 0.000437108 0)
(10.8154 0.000220288 0)
(10.8127 0.000125734 0)
(10.8104 0.000118439 0)
(10.8096 0.000118927 0)
(10.8088 9.52441e-05 0)
(10.8089 0.000104308 0)
(10.8083 3.21555e-05 0)
(10.8077 1.97258e-05 0)
(10.8079 1.32293e-05 0)
(10.8072 2.96783e-05 0)
(10.8072 -9.18011e-06 0)
(10.8076 -7.79729e-06 0)
(10.8077 -9.92912e-06 0)
(10.8077 1.99165e-05 0)
(10.8073 -5.37983e-05 0)
(10.8082 -2.94748e-05 0)
(10.8075 -4.42204e-05 0)
(10.8089 -5.81727e-05 0)
(10.8093 -0.000150132 0)
(10.8116 -0.000112902 0)
(10.8118 -0.000143187 0)
(10.815 -0.000134355 0)
(10.8165 -0.000245925 0)
(10.8203 -0.000188548 0)
(10.8213 -0.00023924 0)
(10.8269 -0.000227251 0)
(10.8292 -0.000231339 0)
(10.8322 -0.000253455 0)
(10.8361 -0.000350248 0)
(10.8432 -0.000367251 0)
(10.8489 -0.000216182 0)
(10.8498 -5.22751e-05 0)
(10.849 -2.60079e-05 0)
(10.8495 -0.00012241 0)
(10.853 -0.00027097 0)
(10.859 -0.000144952 0)
(10.8589 6.68701e-05 0)
(10.8551 6.48083e-05 0)
(10.8534 -7.59058e-05 0)
(10.8555 -0.00025746 0)
(10.8615 -0.000402108 0)
(10.8692 -0.000277141 0)
(10.8718 9.49663e-06 0)
(10.8678 -0.000117186 0)
(10.8725 -2.39624e-05 0)
(10.8677 -0.0002425 0)
(10.8785 -0.000163631 0)
(10.8738 1.45013e-06 0)
(10.8749 9.88822e-05 0)
(10.8682 -8.92072e-05 0)
(10.8754 -8.94113e-05 0)
(10.8719 -0.000190479 0)
(10.8831 -0.000259906 0)
(10.8827 -2.97818e-05 0)
(10.8853 0.000166882 0)
(10.8806 0.000375674 0)
(10.877 0.00053257 0)
(10.8685 0.000563599 0)
(10.8625 0.000488173 0)
(10.858 0.000445462 0)
(10.8531 0.000299492 0)
(19.995 0.0636761 0)
(19.3562 0.120157 0)
(16.1408 0.179859 0)
(13.6651 0.137747 0)
(12.188 0.0722201 0)
(11.6904 0.0278782 0)
(11.4441 0.0112117 0)
(11.3943 0.00412566 0)
(11.3439 0.00241151 0)
(11.3319 0.001325 0)
(11.3097 0.00116688 0)
(11.3001 0.000834425 0)
(11.289 0.000649158 0)
(11.2835 0.000488991 0)
(11.2786 0.000254123 0)
(11.2761 0.000146384 0)
(11.2739 0.000133305 0)
(11.2731 0.000129367 0)
(11.2723 0.000101921 0)
(11.2724 0.000109644 0)
(11.2719 3.81729e-05 0)
(11.2713 2.20325e-05 0)
(11.2714 1.53719e-05 0)
(11.2708 3.2503e-05 0)
(11.2708 -1.0475e-05 0)
(11.2712 -9.47392e-06 0)
(11.2713 -1.03995e-05 0)
(11.2713 2.23412e-05 0)
(11.2709 -5.78902e-05 0)
(11.2717 -3.17247e-05 0)
(11.271 -4.83306e-05 0)
(11.2724 -6.65394e-05 0)
(11.2727 -0.000164262 0)
(11.2749 -0.000125584 0)
(11.275 -0.000159153 0)
(11.278 -0.000154978 0)
(11.2794 -0.000272145 0)
(11.283 -0.000211574 0)
(11.2838 -0.000268582 0)
(11.289 -0.00026126 0)
(11.2912 -0.000256849 0)
(11.294 -0.000286083 0)
(11.2977 -0.000397967 0)
(11.3042 -0.00042165 0)
(11.3097 -0.000245224 0)
(11.3105 -5.43133e-05 0)
(11.3096 -2.61907e-05 0)
(11.3101 -0.000140232 0)
(11.3133 -0.000310435 0)
(11.319 -0.000169127 0)
(11.319 8.08893e-05 0)
(11.3154 8.30594e-05 0)
(11.3137 -8.0857e-05 0)
(11.3157 -0.000293508 0)
(11.3212 -0.000459405 0)
(11.3284 -0.000319749 0)
(11.331 1.31367e-05 0)
(11.3273 -0.000124812 0)
(11.3315 -2.46063e-05 0)
(11.3271 -0.000272336 0)
(11.3373 -0.000189329 0)
(11.3329 1.04643e-05 0)
(11.334 0.000118452 0)
(11.3276 -9.40283e-05 0)
(11.3341 -0.000101284 0)
(11.3306 -0.000219666 0)
(11.3412 -0.000303058 0)
(11.3409 -3.5983e-05 0)
(11.3433 0.000182542 0)
(11.3389 0.000418759 0)
(11.3356 0.000592156 0)
(11.3278 0.000630776 0)
(11.3223 0.000540298 0)
(11.3183 0.000493232 0)
(11.3137 0.000327937 0)
(20.0037 0.0666421 0)
(19.4431 0.138211 0)
(16.4034 0.206631 0)
(14.0538 0.156354 0)
(12.6547 0.0815118 0)
(12.1811 0.0313799 0)
(11.9486 0.0125893 0)
(11.905 0.00458554 0)
(11.8595 0.00269022 0)
(11.8505 0.00147614 0)
(11.8303 0.00131019 0)
(11.822 0.00093237 0)
(11.8116 0.000729099 0)
(11.8065 0.000542459 0)
(11.8019 0.000289606 0)
(11.7995 0.000167911 0)
(11.7974 0.00014886 0)
(11.7966 0.000140343 0)
(11.7958 0.000108973 0)
(11.796 0.000115033 0)
(11.7955 4.44836e-05 0)
(11.7949 2.43691e-05 0)
(11.7951 1.7636e-05 0)
(11.7945 3.54422e-05 0)
(11.7945 -1.18725e-05 0)
(11.7948 -1.11926e-05 0)
(11.7949 -1.07808e-05 0)
(11.7949 2.49078e-05 0)
(11.7946 -6.2227e-05 0)
(11.7954 -3.41727e-05 0)
(11.7947 -5.23688e-05 0)
(11.796 -7.507e-05 0)
(11.7963 -0.000178535 0)
(11.7982 -0.000138407 0)
(11.7983 -0.000175036 0)
(11.8011 -0.000176195 0)
(11.8024 -0.000298685 0)
(11.8057 -0.000234889 0)
(11.8064 -0.000297887 0)
(11.8112 -0.000296056 0)
(11.8132 -0.000282615 0)
(11.8158 -0.000319362 0)
(11.8191 -0.000446495 0)
(11.8252 -0.00047748 0)
(11.8303 -0.000274958 0)
(11.831 -5.56978e-05 0)
(11.8301 -2.55852e-05 0)
(11.8305 -0.000158484 0)
(11.8335 -0.000350767 0)
(11.8387 -0.000194571 0)
(11.8389 9.47735e-05 0)
(11.8356 0.000102332 0)
(11.8339 -8.51016e-05 0)
(11.8356 -0.000330471 0)
(11.8408 -0.000517679 0)
(11.8474 -0.00036384 0)
(11.8499 1.6053e-05 0)
(11.8466 -0.000131896 0)
(11.8503 -2.462e-05 0)
(11.8462 -0.000303334 0)
(11.8557 -0.00021629 0)
(11.8518 1.91082e-05 0)
(11.8528 0.000139143 0)
(11.8468 -9.74136e-05 0)
(11.8525 -0.00011129 0)
(11.8491 -0.00024928 0)
(11.8591 -0.00034831 0)
(11.8588 -4.21621e-05 0)
(11.8609 0.000199044 0)
(11.8569 0.000462388 0)
(11.8539 0.000651783 0)
(11.8468 0.000697725 0)
(11.842 0.000592099 0)
(11.8383 0.00054085 0)
(11.8342 0.00035618 0)
(20.0101 0.0693859 0)
(19.5386 0.156584 0)
(16.7073 0.234327 0)
(14.4964 0.175675 0)
(13.1787 0.091174 0)
(12.7289 0.0350274 0)
(12.5108 0.0139942 0)
(12.4739 0.00502911 0)
(12.4339 0.00295188 0)
(12.4284 0.00161457 0)
(12.4104 0.00144885 0)
(12.4035 0.0010287 0)
(12.3939 0.000810162 0)
(12.3894 0.000596899 0)
(12.385 0.000326542 0)
(12.3829 0.000190212 0)
(12.3808 0.000165046 0)
(12.3801 0.000151833 0)
(12.3793 0.000116389 0)
(12.3795 0.000120451 0)
(12.379 5.1063e-05 0)
(12.3785 2.67344e-05 0)
(12.3787 2.00216e-05 0)
(12.3781 3.84776e-05 0)
(12.3781 -1.33697e-05 0)
(12.3785 -1.29415e-05 0)
(12.3785 -1.10462e-05 0)
(12.3785 2.75399e-05 0)
(12.3782 -6.6734e-05 0)
(12.379 -3.68332e-05 0)
(12.3783 -5.6269e-05 0)
(12.3795 -8.3698e-05 0)
(12.3797 -0.000192765 0)
(12.3815 -0.000151221 0)
(12.3815 -0.000190587 0)
(12.384 -0.000197833 0)
(12.3853 -0.000325257 0)
(12.3882 -0.000258218 0)
(12.3888 -0.000326729 0)
(12.3931 -0.000331285 0)
(12.395 -0.000308402 0)
(12.3974 -0.00035294 0)
(12.4004 -0.000495317 0)
(12.4059 -0.000534237 0)
(12.4106 -0.000305158 0)
(12.4113 -5.63221e-05 0)
(12.4103 -2.39553e-05 0)
(12.4106 -0.000176955 0)
(12.4134 -0.000391588 0)
(12.4182 -0.000221196 0)
(12.4185 0.000108133 0)
(12.4155 0.00012254 0)
(12.4138 -8.82854e-05 0)
(12.4153 -0.00036794 0)
(12.4201 -0.000576284 0)
(12.4261 -0.0004091 0)
(12.4286 1.78822e-05 0)
(12.4255 -0.000138337 0)
(12.4287 -2.37256e-05 0)
(12.425 -0.000335385 0)
(12.4338 -0.000244283 0)
(12.4304 2.69911e-05 0)
(12.4312 0.000161026 0)
(12.4256 -9.90157e-05 0)
(12.4305 -0.000118694 0)
(12.4272 -0.000278992 0)
(12.4365 -0.000395533 0)
(12.4364 -4.82747e-05 0)
(12.4382 0.00021655 0)
(12.4344 0.000506176 0)
(12.4318 0.00071072 0)
(12.4255 0.000763479 0)
(12.4213 0.000642924 0)
(12.418 0.000587703 0)
(12.4145 0.000383825 0)
(20.0149 0.0717999 0)
(19.6418 0.174916 0)
(17.0508 0.262605 0)
(14.9914 0.195578 0)
(13.7585 0.101171 0)
(13.3324 0.0388121 0)
(13.1295 0.0154112 0)
(13.0998 0.00544182 0)
(13.0661 0.00318415 0)
(13.0644 0.00173231 0)
(13.049 0.0015778 0)
(13.0437 0.0011206 0)
(13.0351 0.000890862 0)
(13.0311 0.000651495 0)
(13.027 0.000364654 0)
(13.025 0.000213152 0)
(13.0231 0.000181768 0)
(13.0224 0.000163777 0)
(13.0217 0.000124144 0)
(13.0218 0.000125785 0)
(13.0214 5.79391e-05 0)
(13.021 2.91088e-05 0)
(13.0211 2.2541e-05 0)
(13.0206 4.15514e-05 0)
(13.0206 -1.49171e-05 0)
(13.0209 -1.46996e-05 0)
(13.021 -1.11764e-05 0)
(13.021 3.0243e-05 0)
(13.0206 -7.14122e-05 0)
(13.0214 -3.97091e-05 0)
(13.0208 -5.99578e-05 0)
(13.0218 -9.23261e-05 0)
(13.022 -0.000206733 0)
(13.0236 -0.000163836 0)
(13.0236 -0.000205513 0)
(13.0258 -0.000219666 0)
(13.0269 -0.000351506 0)
(13.0296 -0.000281212 0)
(13.0301 -0.00035461 0)
(13.0338 -0.000366527 0)
(13.0356 -0.000333908 0)
(13.0377 -0.000386374 0)
(13.0404 -0.000543837 0)
(13.0454 -0.000591356 0)
(13.0497 -0.000335552 0)
(13.0503 -5.60569e-05 0)
(13.0493 -2.10035e-05 0)
(13.0494 -0.000195396 0)
(13.0521 -0.000432489 0)
(13.0563 -0.000248902 0)
(13.0568 0.000120556 0)
(13.0542 0.000143622 0)
(13.0524 -8.99467e-05 0)
(13.0537 -0.000405418 0)
(13.058 -0.000634504 0)
(13.0633 -0.000455188 0)
(13.0658 1.82445e-05 0)
(13.0632 -0.000144034 0)
(13.0658 -2.15576e-05 0)
(13.0625 -0.000368366 0)
(13.0705 -0.000272989 0)
(13.0675 3.3692e-05 0)
(13.0683 0.000184264 0)
(13.063 -9.84585e-05 0)
(13.0672 -0.000122697 0)
(13.0638 -0.000308495 0)
(13.0725 -0.000444593 0)
(13.0725 -5.43289e-05 0)
(13.074 0.000235214 0)
(13.0706 0.00054964 0)
(13.0683 0.000768117 0)
(13.0628 0.000826921 0)
(13.0592 0.000692021 0)
(13.0564 0.000633082 0)
(13.0533 0.00041044 0)
(20.0185 0.0737602 0)
(19.7506 0.192764 0)
(17.4306 0.291025 0)
(15.5367 0.215882 0)
(14.392 0.111451 0)
(13.9899 0.0427207 0)
(13.8029 0.016821 0)
(13.7809 0.00580547 0)
(13.7542 0.00337163 0)
(13.7566 0.00181941 0)
(13.7442 0.00169063 0)
(13.7407 0.00120447 0)
(13.733 0.000969232 0)
(13.7297 0.000705163 0)
(13.7259 0.000403557 0)
(13.7242 0.000236556 0)
(13.7224 0.000198878 0)
(13.7217 0.00017608 0)
(13.7211 0.000132164 0)
(13.7211 0.000130986 0)
(13.7208 6.50694e-05 0)
(13.7204 3.14972e-05 0)
(13.7206 2.51821e-05 0)
(13.72 4.46051e-05 0)
(13.7201 -1.64788e-05 0)
(13.7204 -1.64509e-05 0)
(13.7204 -1.11386e-05 0)
(13.7204 3.28937e-05 0)
(13.7201 -7.61138e-05 0)
(13.7208 -4.27935e-05 0)
(13.7202 -6.33464e-05 0)
(13.7211 -0.000100857 0)
(13.7213 -0.00022016 0)
(13.7227 -0.000176024 0)
(13.7226 -0.000219479 0)
(13.7245 -0.000241438 0)
(13.7256 -0.000377007 0)
(13.7279 -0.000303459 0)
(13.7282 -0.000380971 0)
(13.7315 -0.000401302 0)
(13.7331 -0.000358773 0)
(13.735 -0.000419137 0)
(13.7373 -0.000591383 0)
(13.7417 -0.000648218 0)
(13.7456 -0.000365837 0)
(13.7462 -5.47662e-05 0)
(13.7451 -1.6379e-05 0)
(13.7451 -0.000213527 0)
(13.7475 -0.000473043 0)
(13.7513 -0.000277603 0)
(13.7519 0.000131577 0)
(13.7496 0.000165495 0)
(13.7478 -8.9533e-05 0)
(13.7488 -0.000442333 0)
(13.7527 -0.000691548 0)
(13.7574 -0.000501734 0)
(13.7598 1.67208e-05 0)
(13.7576 -0.000148945 0)
(13.7597 -1.76857e-05 0)
(13.7568 -0.000402154 0)
(13.7639 -0.000302027 0)
(13.7615 3.87313e-05 0)
(13.7621 0.000209045 0)
(13.7571 -9.53589e-05 0)
(13.7606 -0.00012241 0)
(13.7573 -0.000337431 0)
(13.7653 -0.000495355 0)
(13.7654 -6.03572e-05 0)
(13.7666 0.000255234 0)
(13.7635 0.000592297 0)
(13.7616 0.00082306 0)
(13.7569 0.000886844 0)
(13.754 0.000738579 0)
(13.7516 0.000676231 0)
(13.7491 0.000435533 0)
(20.0212 0.0751333 0)
(19.862 0.209602 0)
(17.8422 0.319023 0)
(16.1285 0.236345 0)
(15.0762 0.121946 0)
(14.6987 0.0467329 0)
(14.5282 0.0181995 0)
(14.5145 0.00609784 0)
(14.4954 0.00349551 0)
(14.5025 0.00186367 0)
(14.4933 0.00177941 0)
(14.4918 0.00127582 0)
(14.4852 0.00104274 0)
(14.4825 0.000756525 0)
(14.4792 0.000442705 0)
(14.4777 0.000260199 0)
(14.476 0.000216181 0)
(14.4753 0.0001886 0)
(14.4747 0.000140364 0)
(14.4748 0.000135867 0)
(14.4746 7.25088e-05 0)
(14.4742 3.38752e-05 0)
(14.4743 2.79568e-05 0)
(14.4738 4.75494e-05 0)
(14.4739 -1.79768e-05 0)
(14.4742 -1.81719e-05 0)
(14.4742 -1.09179e-05 0)
(14.4742 3.55215e-05 0)
(14.4739 -8.08406e-05 0)
(14.4746 -4.60593e-05 0)
(14.474 -6.63387e-05 0)
(14.4748 -0.00010915 0)
(14.4749 -0.000232738 0)
(14.4761 -0.000187507 0)
(14.4759 -0.000232096 0)
(14.4776 -0.00026282 0)
(14.4785 -0.000401271 0)
(14.4805 -0.000324458 0)
(14.4807 -0.00040517 0)
(14.4835 -0.000435035 0)
(14.4849 -0.000382569 0)
(14.4865 -0.000450601 0)
(14.4885 -0.000637178 0)
(14.4923 -0.000704116 0)
(14.4958 -0.000395649 0)
(14.4964 -5.22943e-05 0)
(14.4952 -9.65003e-06 0)
(14.495 -0.000230999 0)
(14.4972 -0.000512781 0)
(14.5006 -0.000307192 0)
(14.5013 0.000140714 0)
(14.4993 0.000188096 0)
(14.4975 -8.63583e-05 0)
(14.4982 -0.000477982 0)
(14.5017 -0.000746537 0)
(14.5057 -0.000548327 0)
(14.5081 1.28947e-05 0)
(14.5062 -0.000153047 0)
(14.5078 -1.15864e-05 0)
(14.5052 -0.000436571 0)
(14.5116 -0.000330921 0)
(14.5096 4.16345e-05 0)
(14.51 0.000235658 0)
(14.5054 -8.92918e-05 0)
(14.5081 -0.000116885 0)
(14.5049 -0.000365461 0)
(14.5122 -0.000547684 0)
(14.5125 -6.64789e-05 0)
(14.5134 0.000276752 0)
(14.5106 0.000633548 0)
(14.5091 0.0008745 0)
(14.5052 0.00094188 0)
(14.503 0.000781659 0)
(14.5009 0.000716295 0)
(14.499 0.000458528 0)
(20.0231 0.0757857 0)
(19.9726 0.224821 0)
(18.2793 0.345903 0)
(16.762 0.256647 0)
(15.8072 0.132553 0)
(15.4555 0.0508189 0)
(15.3023 0.0195168 0)
(15.2974 0.00629223 0)
(15.2865 0.00353324 0)
(15.2987 0.0018505 0)
(15.293 0.00183448 0)
(15.2936 0.00132914 0)
(15.2883 0.00110815 0)
(15.2863 0.000803815 0)
(15.2833 0.000481347 0)
(15.2821 0.000283781 0)
(15.2805 0.000233417 0)
(15.2799 0.000201146 0)