/*--------------------------------*- C++ -*----------------------------------*\
  =========                 |
  \\      /  F ield         | OpenFOAM: The Open Source CFD Toolbox
   \\    /   O peration     | Website:  https://openfoam.org
    \\  /    A nd           | Version:  7
     \\/     M anipulation  |
\*---------------------------------------------------------------------------*/
FoamFile
{
    version     2.0;
    format      ascii;
    class       volScalarField;
    location    "300";
    object      epsilon;
}
// * * * * * * * * * * * * * * * * * * * * * * * * * * * * * * * * * * * * * //

dimensions      [0 2 -3 0 0 0 0];

internalField   nonuniform List<scalar> 
16900
(
6.63351
6.63135
7.86172
36.6683
36.7276
37.3319
48.6357
61.6524
75.8025
90.9112
106.866
123.552
140.867
158.71
176.985
195.601
214.466
233.504
252.621
271.759
290.826
309.776
328.524
347.033
365.232
383.089
400.551
417.58
434.14
450.2
465.736
480.727
495.157
509.014
522.292
534.988
547.106
558.651
569.637
580.079
589.997
599.415
608.36
616.862
624.954
632.668
640.041
647.107
653.902
660.46
666.813
672.993
679.027
684.939
690.75
696.476
702.129
707.717
713.241
718.699
724.083
729.382
734.578
739.652
744.58
749.335
753.888
758.209
762.267
766.032
769.476
772.573
775.302
777.652
779.62
781.217
782.473
783.44
784.207
784.911
785.14
784.583
783.208
780.982
777.876
773.863
768.922
763.032
756.181
748.361
739.568
729.807
719.086
707.423
694.84
681.368
667.043
651.909
636.016
619.418
602.178
584.362
566.039
547.283
528.168
508.77
489.166
469.427
449.631
429.828
410.094
390.441
370.98
351.712
332.898
315.931
299.512
288.122
279.645
271.799
264.295
257.062
250.07
243.306
236.763
230.438
224.326
218.428
212.738
207.256
201.976
196.894
192.005
187.305
182.786
178.443
174.269
170.258
166.403
162.698
159.136
155.71
152.416
149.247
146.197
143.262
140.435
137.713
135.09
132.563
130.127
127.779
125.516
123.334
121.23
119.202
117.247
115.363
113.547
111.798
110.113
108.49
106.929
105.426
103.982
102.593
101.259
99.9778
98.7485
97.5702
96.4415
95.3601
94.3243
93.3324
92.383
91.4746
90.606
89.7759
88.9831
88.2263
87.505
86.8176
86.1627
85.5387
84.9443
84.3781
83.8387
83.3248
82.8352
82.3685
81.9235
81.4991
81.0941
80.7073
80.3377
79.9843
79.6462
79.3229
79.0143
78.7327
8.76627
9.58546
13.3916
21.4145
26.6107
32.7073
40.3355
48.2922
56.4531
64.771
73.2167
81.7655
90.398
99.0947
107.838
116.607
125.384
134.148
142.878
151.556
160.159
168.668
177.065
185.332
193.452
201.409
209.192
216.785
224.177
231.359
238.322
245.061
251.569
257.842
263.879
269.679
275.242
280.569
285.665
290.533
295.18
299.61
303.831
307.851
311.679
315.321
318.787
322.085
325.222
328.207
331.045
333.743
336.305
338.735
341.036
343.21
345.257
347.177
348.968
350.628
352.156
353.547
354.797
355.905
356.866
357.679
358.34
358.85
359.209
359.42
359.485
359.413
359.212
358.894
358.474
357.973
357.418
356.841
356.284
355.797
355.351
354.716
353.873
352.812
351.526
350.006
348.244
346.232
343.961
341.425
338.617
335.53
332.16
328.501
324.552
320.311
315.779
310.958
305.852
300.468
294.815
288.902
282.743
276.352
269.745
262.938
255.951
248.797
241.494
234.045
226.459
218.717
210.815
202.739
194.323
186.153
178.502
171.65
165.53
159.713
154.113
148.705
143.482
138.442
133.585
128.909
124.413
120.095
115.953
111.984
108.184
104.548
101.073
97.7538
94.5842
91.5593
88.6734
85.9209
83.2962
80.7937
78.408
76.1336
73.9653
71.8981
69.927
68.0474
66.2548
64.5449
62.9136
61.357
59.8714
58.4533
57.0994
55.8065
54.5717
53.3921
52.2652
51.1883
50.1592
49.1756
48.2354
47.3365
46.4771
45.6553
44.8694
44.1179
43.3991
42.7116
42.054
41.4255
40.8253
40.2513
39.7017
39.1754
38.6711
38.1879
37.7248
37.281
36.8557
36.4482
36.0581
35.6851
35.3282
34.9866
34.6593
34.3457
34.0451
33.7568
33.4804
33.2152
32.9608
32.7166
32.4822
32.2572
32.0411
31.8334
31.6335
31.4402
31.2517
31.0717
11.1506
13.3113
17.2991
22.7556
28.5651
34.9956
41.8494
48.8287
55.869
62.9569
70.0906
77.2704
84.4964
91.7668
99.077
106.42
113.785
121.161
128.535
135.893
143.218
150.498
157.716
164.859
171.913
178.866
185.706
192.422
199.004
205.443
211.732
217.863
223.83
229.629
235.255
240.704
245.975
251.066
255.976
260.704
265.252
269.62
273.809
277.823
281.663
285.331
288.83
292.163
295.332
298.339
301.185
303.874
306.406
308.781
311.002
313.068
314.979
316.736
318.338
319.787
321.082
322.224
323.215
324.058
324.754
325.309
325.726
326.013
326.176
326.223
326.164
326.011
325.773
325.465
325.1
324.693
324.26
323.816
323.377
322.943
322.432
321.797
321.029
320.123
319.071
317.867
316.502
314.966
313.251
311.345
309.239
306.921
304.381
301.61
298.598
295.338
291.823
288.047
284.009
279.705
275.138
270.311
265.227
259.894
254.322
248.515
242.488
236.24
229.781
223.102
216.199
209.041
201.54
193.729
185.907
178.361
171.196
164.458
158.068
151.916
145.966
140.214
134.66
129.309
124.16
119.215
114.473
109.931
105.587
101.435
97.4719
93.6916
90.0884
86.6558
83.3876
80.2772
77.3178
74.5028
71.8257
69.28
66.8593
64.5574
62.3686
60.287
58.3072
56.4239
54.6321
52.927
51.3041
49.7591
48.2879
46.8866
45.5517
44.2797
43.0672
41.9113
40.8091
39.7578
38.7548
37.7978
36.8843
36.0122
35.1796
34.3843
33.6246
32.8987
32.205
31.5418
30.9078
30.3015
29.7217
29.1671
28.6363
28.1282
27.6416
27.1754
26.7285
26.3001
25.8892
25.4949
25.1167
24.7536
24.4051
24.0704
23.7489
23.4399
23.1428
22.857
22.582
22.3173
22.0624
21.8168
21.5802
21.3521
21.1322
20.92
20.715
20.5164
20.3234
20.1421
10.9728
17.7806
21.0462
25.6571
31.2278
37.4111
43.9052
50.5191
57.1918
63.9144
70.6934
77.5377
84.4545
91.4473
98.5156
105.655
112.858
120.115
127.412
134.736
142.072
149.406
156.723
164.007
171.245
178.423
185.53
192.553
199.481
206.303
213.011
219.596
226.048
232.362
238.53
244.546
250.405
256.101
261.631
266.99
272.176
277.185
282.016
286.667
291.136
295.421
299.523
303.439
307.171
310.717
314.076
317.249
320.235
323.035
325.647
328.073
330.313
332.368
334.238
335.925
337.433
338.763
339.92
340.909
341.735
342.404
342.925
343.305
343.553
343.68
343.696
343.612
343.439
343.188
342.87
342.497
342.079
341.626
341.145
340.59
339.921
339.125
338.199
337.137
335.932
334.577
333.061
331.373
329.503
327.437
325.164
322.67
319.942
316.966
313.733
310.233
306.455
302.392
298.041
293.399
288.462
283.236
277.721
271.923
265.85
259.504
252.892
246.012
238.863
231.427
223.679
215.563
207.398
199.246
191.223
183.464
176.013
168.869
161.981
155.316
148.868
142.639
136.637
130.865
125.326
120.019
114.942
110.091
105.462
101.049
96.8446
92.843
89.0363
85.4166
81.9762
78.7071
75.6015
72.6516
69.8499
67.1889
64.6614
62.2606
59.9798
57.8127
55.7532
53.7956
51.9343
50.1642
48.4804
46.8781
45.3532
43.9013
42.5186
41.2014
39.9463
38.7499
37.6093
36.5214
35.4837
34.4934
33.5482
32.6458
31.784
30.9608
30.1742
29.4224
28.7036
28.0163
27.3589
26.7298
26.1278
25.5515
24.9996
24.4709
23.9642
23.4785
23.0127
22.5658
22.1369
21.7251
21.3296
20.9495
20.5841
20.2328
19.8948
19.5695
19.2563
18.9546
18.6638
18.3836
18.1132
17.8524
17.6007
17.3577
17.123
16.8961
16.6766
16.4641
16.2582
16.0669
11.2331
21.3481
24.1548
28.265
33.5006
39.4022
45.6506
52.0691
58.5909
65.2033
71.9132
78.7316
85.6678
92.7273
99.9107
107.214
114.631
122.149
129.756
137.437
145.177
152.959
160.767
168.585
176.397
184.189
191.946
199.654
207.301
214.873
222.36
229.751
237.033
244.198
251.236
258.136
264.892
271.493
277.933
284.204
290.299
296.212
301.937
307.468
312.802
317.933
322.857
327.571
332.072
336.357
340.425
344.272
347.898
351.301
354.482
357.44
360.175
362.689
364.983
367.062
368.927
370.583
372.035
373.29
374.355
375.237
375.944
376.486
376.873
377.113
377.219
377.198
377.063
376.82
376.479
376.049
375.538
374.95
374.284
373.472
372.507
371.387
370.11
368.671
367.064
365.278
363.304
361.128
358.737
356.119
353.261
350.147
346.761
343.09
339.125
334.855
330.269
325.358
320.123
314.56
308.665
302.446
295.902
289.04
281.864
274.383
266.585
258.483
250.049
241.247
232.377
223.448
214.596
205.897
197.41
189.201
181.293
173.673
166.312
159.195
152.323
145.702
139.339
133.236
127.395
121.813
116.487
111.41
106.576
101.978
97.6061
93.4524
89.5075
85.7622
82.2072
78.8333
75.6315
72.5931
69.7094
66.9724
64.374
61.9068
59.5637
57.3377
55.2225
53.2118
51.2999
49.4815
47.7512
46.1043
44.5363
43.0429
41.62
40.2638
38.9709
37.7379
36.5616
35.4391
34.3676
33.3445
32.3674
31.4338
30.5417
29.6889
28.8734
28.0935
27.3473
26.6332
25.9496
25.295
24.6681
24.0674
23.4918
22.9399
22.4106
21.9028
21.4155
20.9476
20.4982
20.0664
19.6513
19.2521
18.8681
18.4986
18.1428
17.8
17.4698
17.1514
16.8443
16.5481
16.2621
15.9861
15.7194
15.4618
15.2127
14.9719
14.7388
14.5132
14.2951
14.094
52.5092
26.5598
26.8274
30.3728
35.2786
40.9217
46.972
53.2565
59.7043
66.298
73.0421
79.9473
87.0235
94.2763
101.707
109.31
117.08
125.004
133.068
141.256
149.552
157.937
166.393
174.903
183.45
192.016
200.584
209.141
217.669
226.155
234.584
242.942
251.216
259.392
267.458
275.4
283.207
290.867
298.367
305.698
312.847
319.806
326.563
333.112
339.442
345.548
351.42
357.054
362.443
367.583
372.469
377.098
381.468
385.575
389.418
392.998
396.315
399.37
402.164
404.703
406.989
409.027
410.824
412.387
413.723
414.841
415.749
416.457
416.973
417.308
417.471
417.47
417.313
417.008
416.56
415.976
415.263
414.421
413.425
412.216
410.806
409.196
407.385
405.37
403.144
400.697
398.016
395.089
391.9
388.437
384.688
380.637
376.267
371.564
366.519
361.126
355.373
349.251
342.764
335.913
328.692
321.108
313.169
304.885
296.23
287.274
277.91
268.247
258.47
248.601
238.775
229.057
219.518
210.218
201.196
192.49
184.113
176.052
168.289
160.814
153.627
146.73
140.127
133.816
127.797
122.063
116.608
111.424
106.501
101.83
97.3992
93.1984
89.2163
85.442
81.8649
78.4743
75.2602
72.2128
69.3226
66.5808
63.9789
61.5087
59.1628
56.9339
54.8153
52.8007
50.8842
49.0601
47.3233
45.6688
44.0923
42.5893
41.1559
39.7883
38.4831
37.237
36.0469
34.91
33.8235
32.7848
31.7916
30.8417
29.9328
29.063
28.2304
27.4331
26.6695
25.9379
25.2369
24.5649
23.9206
23.3027
22.7099
22.141
21.5949
21.0705
20.5667
20.0826
19.6173
19.1698
18.7393
18.325
17.9261
17.5419
17.1717
16.815
16.4709
16.139
15.8188
15.5096
15.211
14.9226
14.6439
14.3745
14.1139
13.8619
13.6181
13.382
13.1541
12.9451
59.6987
29.7101
28.8558
31.9718
36.5836
41.993
47.869
54.0432
60.443
67.0473
73.8583
80.8857
88.1389
95.6237
103.341
111.287
119.453
127.827
136.395
145.138
154.04
163.08
172.24
181.499
190.84
200.242
209.687
219.158
228.638
238.108
247.553
256.955
266.298
275.564
284.739
293.805
302.746
311.547
320.191
328.665
336.952
345.039
352.913
360.559
367.968
375.126
382.024
388.652
395.003
401.068
406.84
412.316
417.489
422.357
426.918
431.169
435.112
438.747
442.076
445.103
447.832
450.269
452.42
454.293
455.895
457.236
458.324
459.168
459.778
460.162
460.327
460.283
460.034
459.586
458.942
458.108
457.087
455.878
454.409
452.669
450.67
448.416
445.908
443.142
440.112
436.808
433.217
429.325
425.115
420.574
415.693
410.459
404.854
398.859
392.471
385.688
378.501
370.898
362.885
354.471
345.661
336.436
326.831
316.892
306.436
295.814
284.985
274.064
263.149
252.311
241.626
231.16
220.964
211.082
201.545
192.377
183.584
175.158
167.085
159.355
151.963
144.907
138.183
131.788
125.713
119.95
114.489
109.317
104.424
99.7942
95.4161
91.2764
87.3618
83.6597
80.1578
76.8442
73.7076
70.7372
67.9228
65.2548
62.7241
60.3223
58.0413
55.8738
53.8129
51.8521
49.9854
48.2073
46.5126
44.8965
43.3546
41.8827
40.4771
39.134
37.8503
36.6227
35.4485
34.3249
33.2494
32.2196
31.2333
30.2884
29.3829
28.5149
27.6827
26.8847
26.1192
25.3847
24.6799
24.0034
23.3539
22.7301
22.131
21.5552
21.0019
20.4699
19.9583
19.4661
18.9925
18.5366
18.0976
17.6746
17.2671
16.8743
16.4955
16.1301
15.7775
15.4371
15.1085
14.7911
14.4844
14.188
13.9014
13.6243
13.3562
13.0969
12.8459
12.603
12.3687
12.1543
65.9157
32.0274
30.3621
33.1127
37.4593
42.6546
48.3694
54.4405
60.7954
67.4114
74.2887
81.4361
88.8628
96.5748
104.573
112.854
121.41
130.227
139.291
148.584
158.087
167.78
177.641
187.651
197.788
208.033
218.364
228.762
239.207
249.68
260.161
270.631
281.069
291.455
301.771
311.994
322.106
332.087
341.916
351.574
361.042
370.301
379.334
388.124
396.654
404.909
412.876
420.541
427.893
434.921
441.617
447.973
453.983
459.64
464.942
469.887
474.472
478.7
482.571
486.088
489.257
492.083
494.573
496.735
498.577
500.107
501.336
502.272
502.923
503.298
503.403
503.246
502.831
502.159
501.232
500.054
498.626
496.931
494.876
492.487
489.776
486.749
483.406
479.743
475.757
471.437
466.771
461.741
456.333
450.531
444.328
437.716
430.677
423.192
415.254
406.867
398.037
388.751
378.993
368.796
358.211
347.109
335.627
323.945
311.967
299.918
287.821
275.776
263.856
252.134
240.672
229.522
218.729
208.326
198.339
188.782
179.658
170.961
162.676
154.793
147.302
140.193
133.459
127.087
121.066
115.382
110.021
104.967
100.205
95.7175
91.4898
87.5061
83.7512
80.2106
76.8704
73.7173
70.7388
67.9232
65.2595
62.7373
60.3471
58.08
55.9277
53.8826
51.9376
50.0864
48.3228
46.6415
45.0372
43.5055
42.042
40.6429
39.3044
38.0232
36.7963
35.6209
34.4943
33.414
32.3779
31.3837
30.4296
29.5135
28.6339
27.7891
26.9775
26.1976
25.4481
24.7277
24.0351
23.3692
22.7287
22.1126
21.5198
20.9493
20.4001
19.8714
19.3622
18.8716
18.399
17.9434
17.5042
17.0806
16.672
16.2778
15.8973
15.5299
15.1751
14.8324
14.5012
14.1811
13.8717
13.5725
13.2831
13.0031
12.7321
12.4699
12.2161
11.9705
11.7337
11.5174
70.9251
33.7833
31.4341
33.8541
37.9563
42.9517
48.5119
54.4786
60.7808
67.3952
74.3211
81.5669
89.142
97.0527
105.301
113.884
122.793
132.016
141.539
151.344
161.411
171.719
182.247
192.973
203.875
214.933
226.122
237.423
248.814
260.272
271.775
283.301
294.826
306.328
317.782
329.164
340.45
351.616
362.637
373.49
384.151
394.595
404.802
414.75
424.417
433.785
442.836
451.553
459.921
467.927
475.559
482.807
489.66
496.114
502.161
507.799
513.024
517.837
522.239
526.233
529.822
533.013
535.812
538.229
540.271
541.948
543.269
544.243
544.879
545.184
545.164
544.826
544.171
543.199
541.911
540.31
538.386
536.094
533.363
530.228
526.704
522.799
518.511
513.836
508.772
503.311
497.438
491.137
484.391
477.185
469.51
461.361
452.732
443.603
433.957
423.786
413.147
402.03
390.337
378.175
365.719
352.873
339.785
326.558
313.229
299.921
286.7
273.65
260.84
248.332
236.182
224.437
213.132
202.296
191.947
182.093
172.736
163.865
155.468
147.529
140.033
132.967
126.313
120.056
114.177
108.66
103.483
98.6288
94.0774
89.8099
85.8077
82.0529
78.5284
75.2177
72.1055
69.1771
66.4191
63.8187
61.3642
59.0446
56.8498
54.7706
52.7985
50.9256
49.1449
47.4497
45.8341
44.2928
42.8207
41.4134
40.0669
38.7773
37.5414
36.3561
35.2185
34.1262
33.0769
32.0682
31.0984
30.1655
29.268
28.4041
27.5725
26.7718
26.0008
25.2581
24.5427
23.8535
23.1894
22.5495
21.9327
21.3381
20.7649
20.2122
19.6791
19.1649
18.6688
18.1902
17.7283
17.2824
16.8519
16.4362
16.0347
15.6468
15.2721
14.9099
14.5598
14.2212
13.8939
13.5772
13.2709
12.9744
12.6876
12.4098
12.141
11.8807
11.6287
11.3848
11.1497
10.935
74.7182
35.0725
32.1388
34.2553
38.1285
42.9336
48.3414
54.1977
60.4337
67.0263
73.9748
81.2875
88.9746
97.0433
105.497
114.333
123.544
133.121
143.048
153.308
163.882
174.748
185.887
197.275
208.89
220.708
232.708
244.865
257.157
269.558
282.045
294.592
307.173
319.76
332.325
344.842
357.28
369.613
381.809
393.842
405.681
417.3
428.67
439.767
450.563
461.037
471.165
480.928
490.306
499.283
507.842
515.972
523.661
530.898
537.678
543.993
549.841
555.22
560.129
564.572
568.551
572.074
575.146
577.776
579.974
581.749
583.111
584.07
584.634
584.81
584.604
584.021
583.061
581.723
580.005
577.91
575.416
572.439
568.954
564.996
560.58
555.714
550.395
544.62
538.382
531.678
524.495
516.816
508.625
499.904
490.636
480.817
470.47
459.578
448.107
435.97
423.401
410.38
396.861
382.967
368.805
354.401
339.866
325.289
310.748
296.335
282.127
268.198
254.615
241.435
228.707
216.472
204.76
193.594
182.985
172.938
163.448
154.504
146.089
138.185
130.77
123.825
117.329
111.258
105.591
100.303
95.373
90.7764
86.4913
82.4958
78.769
75.2907
72.0419
69.0049
66.1628
63.5
61.0019
58.6551
56.4471
54.3665
52.4029
50.5467
48.7891
47.1221
45.5385
44.0317
42.5959
41.2256
39.9161
38.663
37.4623
36.3107
35.2049
34.1421
33.1199
32.1359
31.188
30.2745
29.3937
28.544
27.724
26.9326
26.1684
25.4305
24.7179
24.0296
23.3646
22.7223
22.1016
21.5018
20.9222
20.3621
19.8208
19.2976
18.7919
18.3031
17.8306
17.3738
16.9321
16.5051
16.0921
15.6927
15.3064
14.9327
14.5711
14.2213
13.8827
13.555
13.2377
12.9306
12.6332
12.3452
12.0662
11.796
11.5342
11.2807
11.0351
10.7973
10.568
10.3586
77.3468
35.9552
32.5348
34.3739
38.0307
42.6517
47.9065
53.6443
59.7986
66.3468
73.2888
80.6337
88.3923
96.5734
105.182
114.217
123.674
133.543
143.812
154.463
165.479
176.839
188.522
200.507
212.77
225.287
238.035
250.989
264.124
277.413
290.831
304.348
317.935
331.561
345.194
358.803
372.354
385.813
399.149
412.326
425.311
438.072
450.575
462.791
474.689
486.241
497.42
508.202
518.564
528.485
537.948
546.935
555.432
563.428
570.912
577.878
584.318
590.232
595.616
600.474
604.807
608.622
611.926
614.726
617.034
618.86
620.213
621.104
621.543
621.535
621.087
620.203
618.88
617.117
614.912
612.262
609.13
605.397
601.096
596.253
590.883
584.99
578.574
571.627
564.139
556.106
547.528
538.384
528.659
518.333
507.369
495.746
483.585
470.845
457.519
443.599
429.225
414.43
399.245
383.772
368.1
352.306
336.486
320.732
305.129
289.762
274.707
260.037
245.812
232.087
218.904
206.3
194.298
182.916
172.159
162.026
152.507
143.588
135.247
127.46
120.204
113.451
107.174
101.347
95.9419
90.931
86.2878
81.9859
78.0002
74.3063
70.8813
67.7035
64.7523
62.0088
59.4553
57.0751
54.8532
52.7756
50.8295
49.003
47.2854
45.6671
44.1389
42.6931
41.3221
40.0195
38.7794
37.5965
36.466
35.3837
34.3457
33.3489
32.3902
31.4669
30.5768
29.7178
28.8882
28.0862
27.3105
26.5599
25.8331
25.1293
24.4475
23.7869
23.1467
22.5262
21.9247
21.3416
20.7762
20.228
19.6965
19.1815
18.6824
18.199
17.7306
17.2769
16.8373
16.4114
15.9987
15.5989
15.2116
14.8363
14.4726
14.1203
13.7788
13.448
13.1273
12.8166
12.5154
12.2235
11.9405
11.6661
11.4001
11.1423
10.8923
10.65
10.4151
10.1875
9.96795
9.76731
78.9054
36.484
32.6753
34.2645
37.7162
42.1579
47.2584
52.8697
58.9272
65.4096
72.3175
79.6608
87.4518
95.7013
104.416
113.597
123.243
133.346
143.895
154.874
166.267
178.055
190.218
202.732
215.577
228.727
242.159
255.846
269.761
283.877
298.164
312.591
327.127
341.737
356.382
371.028
385.636
400.171
414.592
428.863
442.944
456.797
470.385
483.673
496.625
509.209
521.395
533.152
544.455
555.279
565.603
575.406
584.672
593.386
601.536
609.111
616.106
622.514
628.334
633.566
638.211
642.277
645.768
648.695
651.067
652.895
654.192
654.967
655.23
654.988
654.247
653.01
651.273
649.032
646.289
643.03
639.177
634.647
629.48
623.701
617.322
610.348
602.777
594.599
585.791
576.344
566.294
555.609
544.274
532.283
519.618
506.295
492.372
477.862
462.791
447.198
431.172
414.78
398.094
381.205
364.207
347.193
330.256
313.49
296.982
280.814
265.063
249.796
235.071
220.937
207.433
194.589
182.422
170.944
160.154
150.044
140.601
131.801
123.621
116.032
109.003
102.503
96.4998
90.9618
85.8572
81.155
76.8253
72.839
69.1688
65.7886
62.6739
59.8017
57.1507
54.7012
52.4348
50.3348
48.3856
46.5731
44.8843
43.3075
41.8318
40.4475
39.1457
37.9184
36.7583
35.6591
34.6147
33.62
32.6704
31.7616
30.89
30.0524
29.2459
28.468
27.7166
26.9897
26.2857
25.6032
24.9409
24.2979
23.6731
23.0658
22.4753
21.9008
21.3417
20.7973
20.2668
19.7504
19.248
18.7596
18.2848
17.8232
17.3746
16.9388
16.5154
16.1042
15.7048
15.3171
14.9408
14.5754
14.2207
13.8761
13.5415
13.2167
12.9013
12.5952
12.298
12.0095
11.7294
11.4576
11.1937
10.9376
10.689
10.4476
10.2134
9.98618
9.7657
9.55191
9.34549
9.15663
79.5071
36.708
32.6088
33.9772
37.2362
41.5038
46.4498
51.9287
57.8778
64.2772
71.1283
78.4421
86.2327
94.5129
103.292
112.575
122.362
132.647
143.423
154.676
166.39
178.548
191.131
204.117
217.485
231.208
245.263
259.622
274.257
289.138
304.234
319.51
334.934
350.467
366.062
381.681
397.284
412.829
428.272
443.571
458.682
473.562
488.17
502.466
516.409
529.962
543.091
555.763
567.947
579.615
590.742
601.305
611.284
620.663
629.426
637.561
645.059
651.914
658.121
663.68
668.591
672.86
676.494
679.5
681.89
683.675
684.868
685.479
685.519
684.996
683.914
682.275
680.073
677.306
673.974
670.045
665.407
660.031
653.951
647.186
639.748
631.64
622.859
613.399
603.245
592.399
580.871
568.648
555.724
542.106
527.803
512.845
497.271
481.121
464.449
447.317
429.804
411.993
393.973
375.841
357.692
339.625
321.738
304.124
286.871
270.06
253.765
238.051
222.972
208.572
194.885
181.933
169.729
158.277
147.568
137.59
128.321
119.733
111.797
104.477
97.7395
91.5467
85.8626
80.6512
75.8771
71.5064
67.5064
63.8463
60.4968
57.4307
54.6227
52.049
49.6881
47.5199
45.5261
43.6898
41.9959
40.4302
38.9801
37.634
36.3815
35.2129
34.1197
33.094
32.1289
31.218
30.3556
29.5367
28.7566
28.0114
27.2974
26.6116
25.9511
25.3136
24.6969
24.0993
23.5191
22.9552
22.4063
21.8715
21.35
20.841
20.3437
19.8571
19.3805
18.9145
18.4594
18.015
17.5811
17.1576
16.7443
16.3412
15.9481
15.5648
15.1913
14.8275
14.4731
14.128
13.7921
13.4653
13.1472
12.8379
12.5371
12.2444
11.9596
11.6825
11.4128
11.1506
10.8956
10.6476
10.4064
10.172
9.9441
9.72258
9.5073
9.29812
9.09493
8.89768
8.70702
8.53228
79.2786
36.6743
32.3793
33.5581
36.6389
40.7403
45.5351
50.8805
56.7157
63.0223
69.803
77.0694
84.8376
93.123
101.938
111.291
121.184
131.617
142.583
154.072
166.067
178.554
191.514
204.928
218.773
233.023
247.654
262.636
277.939
293.531
309.379
325.446
341.697
358.095
374.576
391.101
407.627
424.109
440.499
456.749
472.811
488.638
504.185
519.406
534.258
548.699
562.692
576.198
589.184
601.619
613.474
624.724
635.347
645.321
654.631
663.261
671.202
678.443
684.981
690.811
695.935
700.356
704.08
707.116
709.474
711.168
712.208
712.608
712.377
711.524
710.053
707.964
705.25
701.91
697.939
693.277
687.81
681.553
674.527
666.749
658.228
648.968
638.966
628.22
616.728
604.493
591.519
577.805
563.357
548.195
532.349
515.856
498.76
481.117
462.997
444.477
425.64
406.58
387.395
368.185
349.053
330.101
311.428
293.128
275.289
257.991
241.306
225.296
210.009
195.484
181.75
168.822
156.706
145.396
134.88
125.135
116.134
107.843
100.225
93.2413
86.8508
81.0126
75.6861
70.8316
66.4108
62.3874
58.7267
55.3964
52.3663
49.6084
47.0969
44.8082
42.7206
40.8143
39.0715
37.4758
36.0123
34.6677
33.4297
32.2875
31.2309
30.2511
29.3399
28.4898
27.6943
26.9473
26.2436
25.5782
24.9467
24.3454
23.7709
23.22
22.69
22.1788
21.6841
21.2043
20.7379
20.2836
19.8402
19.4069
18.9826
18.5663
18.1561
17.7532
17.3582
16.9708
16.5909
16.2183
15.8531
15.4952
15.1445
14.801
14.4648
14.1358
13.814
13.4995
13.192
12.8918
12.5985
12.3123
12.0331
11.7607
11.4952
11.2363
10.9841
10.7383
10.4988
10.2653
10.0377
9.81583
9.5997
9.38917
9.18413
8.98448
8.79013
8.60099
8.41698
8.23808
8.06491
7.90589
78.3445
36.4264
32.0261
33.0491
35.9704
39.9186
44.572
49.7903
55.5151
61.7301
68.4404
75.6562
83.396
91.6785
100.519
109.93
119.917
130.482
141.625
153.339
165.599
178.396
191.715
205.535
219.834
234.586
249.764
265.337
281.272
297.536
314.09
330.896
347.912
365.091
382.381
399.734
417.101
434.433
451.678
468.784
485.699
502.374
518.758
534.802
550.461
565.688
580.442
594.683
608.374
621.481
633.972
645.819
656.997
667.485
677.262
686.312
694.622
702.182
708.984
715.024
720.301
724.817
728.578
731.592
733.87
735.423
736.264
736.407
735.86
734.634
732.73
730.147
726.879
722.927
718.271
712.818
706.505
699.346
691.358
682.557
672.95
662.542
651.334
639.328
626.529
612.945
598.582
583.451
567.569
550.967
533.689
515.781
497.298
478.308
458.892
439.138
419.136
398.987
378.798
358.673
338.719
319.041
299.74
280.911
262.642
245.011
228.087
211.926
196.573
182.062
168.413
155.633
143.721
132.665
122.442
113.023
104.374
96.4539
89.2203
82.6283
76.6323
71.1871
66.2485
61.7739
57.7225
54.056
50.7387
47.7371
45.0207
42.5613
40.3332
38.3131
36.4799
34.8143
33.2992
31.9191
30.6598
29.5087
28.4547
27.4874
26.5976
25.777
25.0183
24.3145
23.6597
23.0484
22.4755
21.9368
21.4281
20.9459
20.4869
20.0483
19.6276
19.2225
18.8311
18.4517
18.0828
17.7231
17.3715
17.0266
16.6866
16.3506
16.0204
15.6955
15.3757
15.0608
14.7508
14.4455
14.145
13.8491
13.5581
13.2719
12.9905
12.7141
12.4427
12.1764
11.9151
11.659
11.4081
11.1624
10.9219
10.6865
10.4564
10.2315
10.0117
9.79708
9.58745
9.38289
9.18324
8.98837
8.79806
8.61223
8.43085
8.2539
8.08129
7.91299
7.74896
7.5892
7.43427
7.29169
76.8322
36.0051
31.5854
32.4903
35.2767
39.0923
43.6242
48.7331
54.3638
60.5028
67.1626
74.3453
82.0726
90.368
99.2507
108.735
118.831
129.543
140.871
152.808
165.34
178.456
192.138
206.367
221.118
236.366
252.079
268.225
284.769
301.673
318.895
336.391
354.116
372.018
390.046
408.146
426.266
444.352
462.349
480.203
497.859
515.264
532.364
549.109
565.45
581.34
596.733
611.587
625.863
639.524
652.538
664.872
676.501
687.4
697.548
706.926
715.519
723.315
730.305
736.483
741.846
746.395
750.134
753.07
755.214
756.577
757.172
757.012
756.108
754.466
752.091
748.977
745.121
740.523
735.139
728.867
721.693
713.624
704.674
694.855
684.176
672.642
660.26
647.037
632.982
618.11
602.434
585.973
568.756
550.825
532.232
513.034
493.298
473.102
452.535
431.693
410.676
389.591
368.55
347.663
327.041
306.791
287.015
267.809
249.259
231.442
214.422
198.251
182.968
168.599
155.156
142.64
131.041
120.336
110.496
101.484
93.2585
85.7718
78.9755
72.8196
67.2541
62.23
57.7002
53.6196
49.9458
46.6393
43.6636
40.985
38.573
36.3997
34.44
32.6712
31.0731
29.6273
28.3176
27.1294
26.0497
25.067
24.1707
23.3517
22.6016
21.9129
21.2791
20.6941
20.1525
19.6494
19.1805
18.7417
18.3296
17.9409
17.5727
17.2224
16.8877
16.5666
16.2572
15.9579
15.6673
15.3841
15.1066
14.8324
14.5619
14.2959
14.0339
13.7755
13.5205
13.2685
13.0195
12.7734
12.5301
12.2896
12.0521
11.8175
11.586
11.3577
11.1325
10.9107
10.6923
10.4774
10.2661
10.0584
9.8545
9.65434
9.45798
9.26546
9.0768
8.89201
8.71109
8.53406
8.36086
8.19147
8.02589
7.86407
7.70588
7.55124
7.40003
7.25226
7.10795
6.96711
6.83025
6.70399
74.8615
35.4494
31.092
31.9219
34.6067
38.3213
42.7679
47.801
53.3715
59.468
66.1
73.2802
81.032
89.3806
98.3475
107.95
118.201
129.107
140.669
152.881
165.734
179.213
193.302
207.978
223.215
238.985
255.253
271.984
289.137
306.67
324.538
342.69
361.078
379.646
398.34
417.103
435.879
454.611
473.243
491.719
509.981
527.975
545.647
562.945
579.818
596.218
612.099
627.418
642.133
656.206
669.603
682.291
694.241
705.429
715.83
725.425
734.196
742.131
749.217
755.447
760.817
765.325
768.974
771.77
773.722
774.842
775.142
774.633
773.328
771.232
768.348
764.67
760.197
754.92
748.766
741.671
733.632
724.655
714.751
703.931
692.205
679.581
666.069
651.681
636.433
620.343
603.435
585.736
567.285
548.133
528.341
507.976
487.115
465.844
444.261
422.47
400.579
378.701
356.952
335.449
314.304
293.627
273.522
254.084
235.397
217.533
200.554
184.504
169.417
155.309
142.185
130.037
118.844
108.576
99.196
90.6583
82.9134
75.9084
69.589
63.9004
58.789
54.2026
50.0919
46.4101
43.1138
40.1631
37.5212
35.1549
33.0341
31.1318
29.4236
27.888
26.5057
25.2597
24.1347
23.1173
22.1955
21.359
20.5982
19.9049
19.2717
18.692
18.1601
17.6707
17.2191
16.8011
16.4129
16.0511
15.7127
15.3949
15.0952
14.8113
14.5413
14.2831
14.0354
13.7965
13.565
13.3395
13.1169
12.8984
12.6841
12.4735
12.2659
12.0609
11.8581
11.6574
11.4585
11.2613
11.0657
10.8718
10.6795
10.4889
10.3001
10.1132
9.9282
9.74528
9.56451
9.38601
9.20986
9.03618
8.86502
8.69649
8.53064
8.36754
8.20723
8.04977
7.89517
7.74348
7.59469
7.44882
7.30588
7.16586
7.02873
6.89447
6.76309
6.63454
6.50877
6.38577
6.26599
6.15514
72.5624
34.8026
30.5835
31.3901
34.0194
37.676
42.07
47.071
52.6307
58.7394
65.4077
72.6544
80.5052
88.9869
98.1237
107.935
118.436
129.633
141.529
154.118
167.391
181.331
195.919
211.129
226.931
243.292
260.172
277.531
295.323
313.499
332.008
350.795
369.806
388.982
408.264
427.595
446.916
466.168
485.294
504.237
522.942
541.354
559.42
577.089
594.309
611.035
627.219
642.819
657.793
672.102
685.712
698.589
710.704
722.029
732.541
742.218
751.042
758.996
766.068
772.249
777.531
781.912
785.392
787.976
789.67
790.487
790.436
789.53
787.779
785.189
781.758
777.484
772.366
766.374
759.429
751.507
742.606
732.73
721.888
710.091
697.349
683.675
669.081
653.584
637.207
619.974
601.915
583.068
563.48
543.211
522.328
500.911
479.043
456.82
434.349
411.738
389.105
366.568
344.248
322.266
300.738
279.774
259.48
239.947
221.258
203.481
186.67
170.864
156.088
142.349
129.644
117.954
107.249
97.4904
88.6317
80.6202
73.3992
66.9099
61.0931
55.8901
51.2439
47.1005
43.4087
40.1211
37.194
34.5876
32.2658
30.1961
28.3495
26.6999
25.2244
23.9028
22.7169
21.651
20.6911
19.8251
19.0421
18.3327
17.6885
17.1023
16.5675
16.0785
15.6303
15.2183
14.8386
14.4876
14.1622
13.8595
13.5769
13.3122
13.0632
12.828
12.605
12.3926
12.1893
11.9939
11.8049
11.6195
11.4385
11.2622
11.0897
10.9203
10.7535
10.5889
10.426
10.2646
10.1045
9.94547
9.78745
9.6304
9.47427
9.31912
9.16496
9.01188
8.85992
8.70921
8.55979
8.41181
8.26532
8.12044
7.97724
7.83583
7.69625
7.55861
7.42293
7.28931
7.15777
7.02836
6.90111
6.77606
6.65322
6.53261
6.41423
6.29811
6.18424
6.07262
5.96324
5.85611
5.75162
5.65474
70.2009
34.1319
30.1068
30.9366
33.5596
37.2144
41.6228
46.6655
52.298
58.5133
65.3247
72.7551
80.8325
89.5854
99.0394
109.215
120.127
131.784
144.184
157.322
171.183
185.748
200.991
216.881
233.382
250.452
268.046
286.113
304.602
323.455
342.614
362.02
381.611
401.326
421.104
440.885
460.61
480.221
499.663
518.881
537.823
556.437
574.673
592.483
609.821
626.641
642.899
658.554
673.565
687.896
701.511
714.378
726.465
737.746
748.195
757.791
766.513
774.345
781.27
787.279
792.361
796.512
799.729
802.016
803.376
803.82
803.357
801.998
799.752
796.622
792.607
787.704
781.908
775.162
767.416
758.665
748.906
738.14
726.378
713.629
699.905
685.22
669.593
653.044
635.6
617.293
598.161
578.25
557.615
536.324
514.452
492.087
469.323
446.263
423.021
399.713
376.462
353.394
330.634
308.306
286.528
265.412
245.06
225.565
207.003
189.436
172.913
157.464
143.104