/*--------------------------------*- C++ -*----------------------------------*\
  =========                 |
  \\      /  F ield         | OpenFOAM: The Open Source CFD Toolbox
   \\    /   O peration     | Website:  https://openfoam.org
    \\  /    A nd           | Version:  7
     \\/     M anipulation  |
\*---------------------------------------------------------------------------*/
FoamFile
{
    version     2.0;
    format      ascii;
    class       volScalarField;
    location    "300";
    object      k;
}
// * * * * * * * * * * * * * * * * * * * * * * * * * * * * * * * * * * * * * //

dimensions      [0 2 -2 0 0 0 0];

internalField   nonuniform List<scalar> 
16900
(
0.0892926
0.10982
0.127573
0.123671
0.13203
0.140848
0.168855
0.197782
0.22699
0.256245
0.28543
0.314441
0.343202
0.371638
0.399685
0.427287
0.454386
0.480947
0.506913
0.532266
0.556951
0.580963
0.604253
0.626823
0.648637
0.6697
0.689991
0.709505
0.728235
0.746179
0.763342
0.779727
0.795343
0.810199
0.824309
0.83769
0.850362
0.862347
0.873672
0.884366
0.894459
0.903986
0.912982
0.921485
0.929534
0.937169
0.944429
0.951355
0.957985
0.964356
0.970504
0.976461
0.982258
0.98792
0.993469
0.998924
1.0043
1.0096
1.01483
1.01999
1.02508
1.03008
1.03499
1.03977
1.04442
1.04891
1.05321
1.05729
1.06113
1.06471
1.06798
1.07094
1.07356
1.07583
1.07774
1.07931
1.08055
1.0815
1.08225
1.08289
1.0833
1.08299
1.08194
1.08011
1.07748
1.07402
1.06969
1.06448
1.05838
1.05135
1.04339
1.03449
1.02464
1.01384
1.00211
0.989446
0.975865
0.961391
0.946048
0.929867
0.912886
0.895145
0.876689
0.85757
0.837838
0.817549
0.796764
0.775534
0.753921
0.731967
0.70973
0.687227
0.664526
0.641648
0.618781
0.597243
0.576642
0.559833
0.548559
0.538214
0.528271
0.518606
0.509179
0.499973
0.490983
0.482208
0.473648
0.465308
0.457187
0.449289
0.441612
0.434156
0.42692
0.419901
0.413096
0.406499
0.400107
0.393914
0.387915
0.382104
0.376474
0.37102
0.365735
0.360615
0.355652
0.350841
0.346177
0.341655
0.33727
0.333017
0.328892
0.324891
0.32101
0.317246
0.313596
0.310056
0.306624
0.303298
0.300075
0.296953
0.29393
0.291005
0.288175
0.285438
0.282794
0.28024
0.277776
0.275399
0.273108
0.270902
0.268781
0.266741
0.264779
0.262894
0.261083
0.259344
0.257675
0.256076
0.254543
0.253075
0.251672
0.250331
0.249051
0.247828
0.24666
0.245545
0.24448
0.243464
0.242494
0.241567
0.240682
0.239836
0.239027
0.238253
0.237513
0.236803
0.236124
0.235473
0.23485
0.234281
0.118113
0.152592
0.187277
0.217252
0.255614
0.305453
0.357928
0.410803
0.464164
0.517778
0.571459
0.625048
0.678418
0.731438
0.783994
0.835965
0.887241
0.937715
0.987282
1.03585
1.08333
1.12965
1.17472
1.21849
1.26091
1.30192
1.34148
1.37956
1.41612
1.45114
1.48462
1.51652
1.54685
1.57561
1.6028
1.62843
1.65252
1.67509
1.69617
1.7158
1.734
1.75083
1.76633
1.78057
1.79358
1.80545
1.81623
1.82599
1.8348
1.84272
1.84983
1.85618
1.86186
1.86692
1.87143
1.87544
1.879
1.88218
1.88501
1.88755
1.88982
1.89186
1.8937
1.89537
1.89688
1.89826
1.89952
1.90067
1.90172
1.90267
1.90352
1.90429
1.90496
1.90553
1.906
1.90638
1.90665
1.90682
1.90689
1.90687
1.90614
1.90492
1.90317
1.90087
1.89795
1.89435
1.89002
1.88489
1.8789
1.87198
1.86407
1.85511
1.84504
1.8338
1.82136
1.80766
1.79267
1.77636
1.75872
1.73973
1.71939
1.69771
1.67471
1.65042
1.62488
1.59812
1.57021
1.54117
1.51106
1.47988
1.44766
1.41433
1.37983
1.34419
1.30659
1.26883
1.23222
1.19632
1.16207
1.12859
1.09583
1.06383
1.03262
1.00224
0.972706
0.944033
0.916234
0.889314
0.863274
0.838113
0.813823
0.790394
0.767812
0.746063
0.725127
0.704986
0.685619
0.667002
0.649115
0.631933
0.615433
0.599592
0.584387
0.569795
0.555793
0.542361
0.529476
0.517117
0.505265
0.4939
0.483002
0.472555
0.46254
0.45294
0.443738
0.43492
0.426469
0.41837
0.410611
0.403175
0.396051
0.389226
0.382686
0.37642
0.370416
0.364663
0.359149
0.353865
0.348799
0.34394
0.339276
0.3348
0.330504
0.32638
0.322421
0.31862
0.314971
0.311467
0.308101
0.304866
0.301754
0.298758
0.29587
0.293086
0.2904
0.287807
0.285303
0.282882
0.28054
0.278274
0.276081
0.273956
0.271896
0.2699
0.267962
0.266081
0.264253
0.262473
0.260733
0.259089
0.151767
0.204689
0.258545
0.310113
0.366551
0.429128
0.495012
0.562074
0.629668
0.697504
0.765404
0.833229
0.900857
0.968167
1.03504
1.10134
1.16694
1.23171
1.29554
1.35829
1.41986
1.48013
1.53901
1.59641
1.65225
1.70647
1.759
1.8098
1.85881
1.906
1.95134
1.99481
2.03638
2.07605
2.11382
2.14967
2.18364
2.21572
2.24593
2.27431
2.30089
2.3257
2.3488
2.37022
2.39003
2.40827
2.42502
2.44034
2.45429
2.46695
2.47837
2.48864
2.49781
2.50595
2.51314
2.51942
2.52486
2.52951
2.53343
2.53667
2.53926
2.54126
2.5427
2.54362
2.54405
2.54401
2.54354
2.54266
2.54139
2.53975
2.53777
2.53545
2.53281
2.52985
2.52661
2.52307
2.51924
2.51514
2.51074
2.50582
2.5001
2.49373
2.48669
2.47894
2.47044
2.46112
2.45091
2.43976
2.42759
2.41434
2.39992
2.38427
2.36732
2.34901
2.32928
2.30808
2.28536
2.2611
2.23526
2.20784
2.17883
2.14825
2.11611
2.08245
2.0473
2.0107
1.9727
1.93331
1.89258
1.85046
1.80693
1.76189
1.71492
1.66619
1.6172
1.56918
1.52257
1.47729
1.43321
1.39005
1.34784
1.30663
1.2665
1.22749
1.18963
1.15296
1.11747
1.08317
1.05006
1.01812
0.987338
0.957689
0.929152
0.9017
0.875303
0.84993
0.82555
0.80213
0.779637
0.758038
0.7373
0.717391
0.698278
0.679932
0.662321
0.645417
0.629191
0.613616
0.598666
0.584315
0.570539
0.557315
0.54462
0.532434
0.520735
0.509505
0.498723
0.488372
0.478435
0.468895
0.459734
0.450939
0.442494
0.434384
0.426596
0.419115
0.41193
0.405027
0.398394
0.39202
0.385893
0.380001
0.374335
0.368883
0.363636
0.358584
0.353719
0.349032
0.344514
0.340158
0.335956
0.331901
0.327985
0.324201
0.320542
0.317003
0.313577
0.31026
0.307044
0.303926
0.300901
0.297965
0.295113
0.292342
0.289647
0.287025
0.284471
0.28198
0.279549
0.277284
0.169367
0.254424
0.323629
0.387302
0.454314
0.525966
0.600793
0.677174
0.754319
0.831878
0.909666
0.987552
1.06542
1.14316
1.22063
1.2977
1.37423
1.45006
1.52505
1.59904
1.6719
1.7435
1.8137
1.88241
1.94951
2.01492
2.07856
2.14035
2.20023
2.25816
2.31408
2.36795
2.41974
2.46943
2.517
2.56243
2.60572
2.64687
2.68589
2.72278
2.75757
2.79029
2.82096
2.84962
2.87632
2.90109
2.924
2.9451
2.96445
2.9821
2.99812
3.01258
3.02553
3.03704
3.04717
3.05598
3.06354
3.06989
3.0751
3.07922
3.08229
3.08437
3.0855
3.08572
3.08508
3.08361
3.08135
3.07833
3.07459
3.07016
3.06507
3.05934
3.053
3.04607
3.03857
3.0305
3.02189
3.01276
3.0031
2.99242
2.98082
2.96836
2.95502
2.94079
2.9256
2.90942
2.89217
2.8738
2.85422
2.83338
2.81121
2.78763
2.76257
2.73596
2.70777
2.67794
2.64642
2.61319
2.57824
2.54157
2.50316
2.46305
2.42126
2.37782
2.33279
2.28617
2.238
2.18829
2.13702
2.08411
2.02946
1.97274
1.91578
1.8589
1.80272
1.7479
1.69463
1.64282
1.59225
1.54283
1.49462
1.44769
1.40211
1.35792
1.31517
1.27385
1.23397
1.19552
1.15848
1.12283
1.08852
1.05554
1.02385
0.993395
0.964146
0.936059
0.909092
0.883202
0.858348
0.834488
0.811582
0.789591
0.768476
0.748201
0.72873
0.71003
0.692067
0.674811
0.658231
0.642299
0.626987
0.612271
0.598125
0.584526
0.571451
0.558879
0.54679
0.535164
0.523982
0.513227
0.502881
0.492928
0.483352
0.474138
0.465271
0.456738
0.448523
0.440615
0.433001
0.425668
0.418605
0.4118
0.405242
0.39892
0.392824
0.386944
0.38127
0.375793
0.370504
0.365394
0.360456
0.355681
0.351061
0.34659
0.342261
0.338066
0.333999
0.330055
0.326228
0.322512
0.318902
0.315394
0.311982
0.308663
0.305433
0.302287
0.29922
0.296228
0.293313
0.290629
0.190769
0.298889
0.379329
0.451684
0.525929
0.603972
0.685068
0.768032
0.85212
0.936957
1.02234
1.10814
1.19423
1.2805
1.36679
1.45297
1.53885
1.62428
1.70906
1.79303
1.87603
1.95787
2.03843
2.11755
2.19512
2.27101
2.34513
2.41738
2.48768
2.55596
2.62215
2.68619
2.74804
2.80764
2.86497
2.91998
2.97266
3.02299
3.07094
3.11653
3.15975
3.2006
3.2391
3.27526
3.30913
3.34072
3.37008
3.39725
3.42227
3.4452
3.46609
3.48499
3.50197
3.51708
3.53037
3.54192
3.55178
3.56001
3.56666
3.57179
3.57546
3.57772
3.57862
3.57822
3.57655
3.57367
3.56963
3.56445
3.55819
3.55088
3.54256
3.53325
3.52299
3.5118
3.49969
3.48669
3.47282
3.45807
3.4424
3.42533
3.40705
3.38764
3.36708
3.34537
3.32247
3.29834
3.27291
3.24612
3.21791
3.18822
3.15699
3.12415
3.08964
3.05339
3.01538
2.97558
2.93393
2.89043
2.8451
2.79793
2.74893
2.69815
2.64562
2.59137
2.53543
2.47788
2.41863
2.35778
2.29515
2.23055
2.16573
2.10073
2.03634
1.973
1.91104
1.85081
1.79241
1.73573
1.6806
1.62695
1.57483
1.52429
1.47538
1.42814
1.38258
1.33868
1.29645
1.25584
1.21682
1.17935
1.14338
1.10887
1.07575
1.04399
1.01352
0.984297
0.956261
0.929365
0.903558
0.87879
0.855016
0.83219
0.810269
0.789211
0.768977
0.749531
0.730835
0.712858
0.695566
0.67893
0.662922
0.647514
0.632682
0.6184
0.604647
0.5914
0.578639
0.566345
0.554499
0.543083
0.53208
0.521475
0.511251
0.501394
0.49189
0.482724
0.473884
0.465357
0.45713
0.449191
0.44153
0.434134
0.426993
0.420097
0.413435
0.406997
0.400774
0.394757
0.388936
0.383304
0.377851
0.372571
0.367455
0.362496
0.357687
0.353021
0.348493
0.344095
0.339823
0.335671
0.331633
0.327705
0.323882
0.32016
0.316534
0.313
0.309555
0.306193
0.302924
0.299936
0.173182
0.332159
0.425028
0.504703
0.584365
0.667036
0.752649
0.840416
0.929715
1.02018
1.11161
1.20386
1.29679
1.39028
1.48418
1.5783
1.67246
1.76647
1.86011
1.95319
2.04551
2.13688
2.22712
2.31606
2.40356
2.48947
2.57367
2.65604
2.73649
2.8149
2.8912
2.96532
3.03716
3.10668
3.1738
3.23848
3.30066
3.36031
3.41739
3.47187
3.52373
3.57295
3.61953
3.66346
3.70476
3.74344
3.77951
3.81301
3.84397
3.87243
3.89842
3.922
3.94322
3.96212
3.97877
3.99323
4.00554
4.01577
4.02398
4.03023
4.03458
4.03709
4.03781
4.0368
4.03412
4.02982
4.02394
4.01654
4.00766
3.99733
3.98561
3.97251
3.95807
3.94231
3.92525
3.9069
3.88728
3.86638
3.84401
3.81986
3.79417
3.767
3.73838
3.70829
3.67673
3.64365
3.60899
3.57271
3.53474
3.49504
3.45357
3.41027
3.36508
3.31795
3.26887
3.21785
3.16485
3.10985
3.05291
2.99407
2.93332
2.87072
2.80634
2.74025
2.67228
2.60289
2.53143
2.45853
2.38529
2.31184
2.23895
2.167
2.09643
2.02758
1.96069
1.89595
1.83343
1.77302
1.71457
1.65804
1.60341
1.55071
1.49996
1.45114
1.40426
1.35928
1.31616
1.27484
1.23528
1.1974
1.16115
1.12645
1.09324
1.06145
1.03101
1.00185
0.973924
0.947157
0.921495
0.89688
0.87326
0.850584
0.828804
0.807875
0.787754
0.768402
0.74978
0.731854
0.714591
0.697961
0.681933
0.666482
0.651583
0.637211
0.623345
0.609964
0.597048
0.584579
0.57254
0.560913
0.549683
0.538836
0.528357
0.518231
0.508447
0.498992
0.489852
0.481018
0.472477
0.464218
0.456232
0.448507
0.441035
0.433804
0.426805
0.42003
0.413469
0.407115
0.400957
0.394989
0.389202
0.383589
0.378142
0.372855
0.367722
0.362735
0.357888
0.353176
0.348594
0.344135
0.339795
0.335569
0.331453
0.327443
0.323534
0.319722
0.316004
0.312376
0.308853
0.30565
0.182194
0.360267
0.462087
0.547539
0.631354
0.717449
0.806361
0.897671
0.990911
1.08576
1.18202
1.27955
1.3782
1.47783
1.57828
1.67934
1.78083
1.8825
1.98413
2.0855
2.18638
2.28655
2.3858
2.48396
2.58084
2.67627
2.77011
2.86222
2.95247
3.04075
3.12694
3.21094
3.29266
3.37199
3.44887
3.5232
3.59492
3.66395
3.73024
3.79372
3.85436
3.9121
3.96693
4.01881
4.06772
4.11367
4.15666
4.19668
4.23376
4.26793
4.2992
4.32763
4.35324
4.37609
4.39623
4.41371
4.42858
4.44091
4.45075
4.45818
4.46324
4.46601
4.46655
4.46492
4.46118
4.45539
4.4476
4.43786
4.42622
4.41272
4.3974
4.3803
4.36143
4.34081
4.31845
4.29437
4.26859
4.2411
4.21142
4.17962
4.1459
4.11034
4.07296
4.03378
3.99278
3.94996
3.90525
3.85861
3.81
3.75936
3.70669
3.65196
3.59513
3.53613
3.47497
3.41171
3.34635
3.27886
3.20929
3.13775
3.06432
2.98886
2.91165
2.83295
2.75165
2.66987
2.58738
2.50481
2.42275
2.34159
2.26181
2.18378
2.10782
2.03418
1.96305
1.89455
1.82871
1.76542
1.70459
1.64614
1.59001
1.5362
1.48466
1.43536
1.38825
1.34327
1.30036
1.25942
1.22039
1.18317
1.14768
1.11382
1.08152
1.05069
1.02124
0.99311
0.96621
0.940473
0.915831
0.892219
0.869579
0.847853
0.82699
0.806938
0.787654
0.769095
0.751221
0.733996
0.717387
0.701362
0.685894
0.670955
0.656521
0.642571
0.629082
0.616036
0.603415
0.591203
0.579382
0.56794
0.556861
0.546134
0.535744
0.525682
0.515935
0.506493
0.497345
0.488481
0.479892
0.471569
0.463502
0.455683
0.448102
0.440751
0.433623
0.426708
0.419999
0.413488
0.407168
0.401032
0.395072
0.389282
0.383655
0.378185
0.372865
0.367691
0.362656
0.357755
0.352983
0.348336
0.343807
0.339394
0.335092
0.330897
0.326805
0.322813
0.318917
0.315117
0.311428
0.308085
0.193369
0.38287
0.491272
0.581188
0.668202
0.75685
0.848166
0.942064
1.03825
1.13646
1.23653
1.33831
1.44166
1.54643
1.65243
1.75948
1.86732
1.97573
2.08446
2.19325
2.30185
2.41003
2.51756
2.62423
2.72983
2.83418
2.93711
3.03846
3.13807
3.2358
3.33153
3.42512
3.51644
3.60539
3.69185
3.7757
3.85685
3.93521
4.01067
4.08316
4.15259
4.2189
4.28203
4.34193
4.39855
4.45187
4.50186
4.54852
4.59184
4.63182
4.66849
4.70187
4.73198
4.75887
4.78257
4.80315
4.82064
4.83511
4.84663
4.85524
4.86102
4.86405
4.86437
4.86207
4.85721
4.84984
4.84004
4.82785
4.81332
4.7965
4.77742
4.75611
4.73259
4.70687
4.67895
4.64885
4.61658
4.58203
4.54468
4.50484
4.46266
4.41825
4.37163
4.32284
4.27187
4.21872
4.16337
4.10577
4.04587
3.98363
3.91907
3.8522
3.78301
3.71142
3.63744
3.56114
3.48266
3.40195
3.31893
3.23387
3.1471
3.05786
2.96697
2.87556
2.78304
2.69071
2.59872
2.50763
2.41789
2.32991
2.24406
2.16066
2.07997
2.0022
1.92748
1.85588
1.7874
1.72198
1.6595
1.59986
1.54299
1.48881
1.43726
1.38825
1.3417
1.29751
1.25558
1.21581
1.17807
1.14227
1.10828
1.07602
1.04536
1.01621
0.988474
0.962058
0.936873
0.912839
0.889877
0.867916
0.846889
0.826732
0.807388
0.788804
0.770931
0.753723
0.73714
0.721143
0.7057
0.690777
0.676348
0.662385
0.648867
0.63577
0.623078
0.61077
0.598833
0.58725
0.576009
0.565096
0.554501
0.544213
0.534221
0.524516
0.515089
0.505932
0.497037
0.488395
0.48
0.471843
0.463917
0.456216
0.448732
0.441459
0.434388
0.427515
0.420832
0.414333
0.408013
0.401863
0.39588
0.390057
0.384389
0.37887
0.373495
0.368259
0.363158
0.358185
0.353338
0.348612
0.344002
0.339505
0.335117
0.330835
0.326655
0.322574
0.318591
0.314704
0.310932
0.30752
0.20281
0.399994
0.513313
0.606631
0.696076
0.786594
0.879611
0.975333
1.07363
1.17433
1.27729
1.38239
1.48948
1.59842
1.70901
1.82104
1.93427
2.04845
2.16332
2.27859
2.39402
2.50933
2.62429
2.73866
2.85223
2.96478
3.07612
3.18607
3.29446
3.40113
3.50591
3.60865
3.7092
3.80742
3.90316
3.99628
4.08665
4.17414
4.25862
4.33999
4.41813
4.49294
4.56434
4.63223
4.69655
4.75725
4.81428
4.8676
4.91719
4.96304
5.00515
5.04352
5.07818
5.10915
5.13647
5.16018
5.18032
5.19695
5.21014
5.21995
5.22644
5.22968
5.22976
5.22674
5.22069
5.21168
5.19978
5.18505
5.16752
5.14725
5.12428
5.09862
5.0703
5.0393
5.00565
4.96934
4.93034
4.8884
4.84318
4.79504
4.74415
4.69061
4.63447
4.57574
4.51445
4.45062
4.38425
4.31529
4.24369
4.16943
4.09252
4.013
3.93095
3.8463
3.75901
3.66904
3.5769
3.48254
3.38537
3.28609
3.18583
3.08402
2.98151
2.87894
2.77649
2.6749
2.57455
2.47592
2.37942
2.28543
2.19427
2.10621
2.02147
1.94021
1.86253
1.78848
1.71803
1.6511
1.58758
1.52736
1.47033
1.41637
1.36536
1.31719
1.27174
1.22887
1.18844
1.15033
1.1144
1.0805
1.04852
1.01832
0.989779
0.96278
0.937211
0.912967
0.889949
0.868063
0.847223
0.827349
0.808366
0.790205
0.772804
0.756104
0.740052
0.724602
0.709709
0.695333
0.68144
0.667998
0.654977
0.642353
0.630103
0.618206
0.606645
0.595403
0.584466
0.573822
0.563458
0.553366
0.543536
0.533958
0.524627
0.515534
0.506673
0.498038
0.489624
0.481425
0.473435
0.465649
0.458062
0.450669
0.443465
0.436445
0.429603
0.422935
0.416437
0.410103
0.403929
0.39791
0.392042
0.38632
0.38074
0.375297
0.369988
0.364808
0.359753
0.35482
0.350005
0.345304
0.340713
0.33623
0.331852
0.327575
0.323397
0.319315
0.315328
0.311436
0.30766
0.304245
0.209954
0.412144
0.529049
0.624875
0.716088
0.8079
0.902031
0.99893
1.09862
1.20103
1.30605
1.41358
1.5235
1.63565
1.74985
1.86588
1.9835
2.10245
2.22244
2.34322
2.46449
2.58598
2.70745
2.82863
2.94931
3.06924
3.18822
3.30605
3.42254
3.5375
3.65074
3.76209
3.87137
3.9784
4.08301
4.18502
4.28428
4.38062
4.47387
4.5639
4.65056
4.73371
4.81323
4.88901
4.96095
5.02896
5.09296
5.15291
5.20875
5.26045
5.30799
5.35136
5.39057
5.42563
5.45656
5.48341
5.50621
5.52501
5.53987
5.55086
5.55804
5.56149
5.56129
5.55751
5.55023
5.53953
5.52547
5.50813
5.48754
5.46375
5.4368
5.40672
5.3735
5.33714
5.29764
5.25502
5.20917
5.15964
5.10643
5.04989
4.99017
4.92739
4.86158
4.79277
4.72098
4.64626
4.56864
4.4881
4.40459
4.31808
4.22851
4.13598
4.04076
3.94279
3.84193
3.73763
3.63153
3.5235
3.41331
3.3017
3.18935
3.07639
2.9635
2.85119
2.73992
2.63023
2.52256
2.41737
2.31502
2.21586
2.12018
2.02822
1.94015
1.85611
1.77616
1.70031
1.62851
1.56069
1.49671
1.43643
1.37972
1.32641
1.27637
1.22943
1.18544
1.14422
1.10563
1.06948
1.03564
1.00392
0.974198
0.946312
0.920127
0.89551
0.872338
0.850492
0.829864
0.81035
0.791857
0.774296
0.757585
0.741651
0.726425
0.711845
0.697854
0.684402
0.671441
0.658931
0.646835
0.635118
0.623753
0.612713
0.601976
0.591522
0.581333
0.571395
0.561694
0.55222
0.542963
0.533915
0.525068
0.516417
0.507955
0.499679
0.491584
0.483666
0.475922
0.468348
0.460941
0.453697
0.446615
0.439691
0.432922
0.426306
0.419841
0.413522
0.407348
0.401315
0.395419
0.389659
0.38403
0.37853
0.373156
0.367904
0.362772
0.357756
0.352853
0.348061
0.343377
0.338797
0.334319
0.329941
0.32566
0.321474
0.317381
0.313379
0.309467
0.305647
0.301939
0.298584
0.214874
0.419973
0.539352
0.636916
0.729308
0.821902
0.91663
1.01414
1.11459
1.218
1.3243
1.43344
1.54529
1.65973
1.77657
1.89561
2.01661
2.1393
2.26341
2.38866
2.51476
2.64144
2.76844
2.89549
3.02235
3.14878
3.27456
3.39946
3.52328
3.64581
3.76684
3.88617
4.00358
4.11888
4.23186
4.3423
4.45002
4.55482
4.6565
4.75488
4.84977
4.94102
5.02845
5.11192
5.1913
5.26648
5.33735
5.40382
5.46582
5.5233
5.57621
5.62454
5.66826
5.70739
5.74192
5.77189
5.79734
5.8183
5.83483
5.84699
5.85486
5.8585
5.85801
5.85346
5.84493
5.83251
5.81627
5.79629
5.7726
5.74527
5.71432
5.67978
5.64163
5.59988
5.55451
5.50553
5.45274
5.39556
5.33436
5.2694
5.20084
5.12879
5.0533
4.97437
4.89201
4.80629
4.71732
4.62509
4.52956
4.43071
4.32833
4.22239
4.11385
4.00251
3.88835
3.7714
3.65258
3.53211
3.41022
3.2875
3.16451
3.04172
2.91968
2.79893
2.67998
2.56332
2.4494
2.33863
2.23138
2.12797
2.02864
1.9336
1.843
1.75694
1.67544
1.59848
1.526
1.45789
1.394
1.33417
1.27822
1.22597
1.17724
1.13183
1.08955
1.05022
1.01363
0.979613
0.947978
0.91855
0.891164
0.865657
0.841879
0.819685
0.798942
0.779523
0.76131
0.744194
0.728074
0.712856
0.698454
0.684789
0.671788
0.659385
0.64752
0.63614
0.625195
0.614641
0.60444
0.594557
0.584961
0.575625
0.566527
0.557646
0.548966
0.540471
0.532149
0.523991
0.515987
0.50813
0.500416
0.492839
0.485395
0.478082
0.470897
0.463838
0.456901
0.450087
0.443394
0.436821
0.430368
0.424038
0.417829
0.411742
0.405774
0.399927
0.394196
0.388579
0.383076
0.377686
0.372405
0.367234
0.362169
0.357209
0.352351
0.347595
0.342938
0.338377
0.333912
0.329539
0.325258
0.321066
0.316961
0.312943
0.30901
0.30516
0.301394
0.297713
0.294138
0.2909
0.217789
0.424129
0.545059
0.643698
0.736745
0.829659
0.924521
1.02213
1.12276
1.22652
1.33339
1.44334
1.55629
1.67212
1.79068
1.91176
2.03514
2.16056
2.28777
2.41647
2.54639
2.67724
2.80878
2.94072
3.07282
3.20484
3.33652
3.46765
3.59798
3.7273
3.85537
3.98198
4.10688
4.22984
4.3506
4.46894
4.58462
4.69742
4.80709
4.91342
5.0162
5.11521
5.21026
5.30116
5.38776
5.46989
5.54743
5.62026
5.68829
5.75143
5.80962
5.86281
5.91098
5.95411
5.9922
6.02527
6.05333
6.07643
6.09462
6.10795
6.1165
6.12034
6.11956
6.11423
6.10446
6.09033
6.07191
6.04929
6.02252
5.99165
5.9567
5.91771
5.87464
5.8275
5.77628
5.72092
5.66104
5.59633
5.52719
5.45387
5.37652
5.29525
5.21012
5.12112
5.02817
4.93131
4.83096
4.727
4.61944
4.50831
4.39358
4.27548
4.15447
4.0307
3.90437
3.77578
3.64552
3.51401
3.3817
3.24915
3.11693
2.98557
2.85565
2.7277
2.60223
2.47973
2.36064
2.24535
2.13421
2.0275
1.92545
1.82823
1.73596
1.64868
1.56641
1.48909
1.41661
1.34885
1.28562
1.22674
1.172
1.12118
1.07408
1.03046
0.990117
0.952822
0.918366
0.886544
0.857157
0.830015
0.804938
0.781755
0.760306
0.740439
0.722014
0.7049
0.688974
0.674124
0.660244
0.647238
0.635017
0.6235
0.612611
0.602282
0.592451
0.583062
0.574063
0.56541
0.557061
0.548979
0.541134
0.533496
0.526042
0.518751
0.511604
0.504588
0.497689
0.490898
0.484206
0.477607
0.471095
0.464667
0.458318
0.452047
0.445851
0.439726
0.433669
0.427689
0.42179
0.415975
0.410246
0.404603
0.399047
0.393579
0.388201
0.382912
0.377713
0.372606
0.367588
0.36266
0.357819
0.353064
0.348394
0.343809
0.339309
0.334892
0.330558
0.326305
0.322133
0.31804
0.314026
0.310089
0.306228
0.302443
0.298733
0.295098
0.291537
0.288053
0.284667
0.281596
0.218938
0.425207
0.546936
0.646096
0.739338
0.832159
0.926739
1.02399
1.12428
1.22779
1.33457
1.44461
1.55787
1.67425
1.79363
1.91582
2.04063
2.16783
2.29714
2.42831
2.56105
2.6951
2.83019
2.96607
3.10247
3.23914
3.37584
3.51231
3.64832
3.78362
3.91796
4.0511
4.18278
4.31274
4.44066
4.56629
4.68937
4.80963
4.9268
5.04063
5.15085
5.25723
5.35953
5.45753
5.55103
5.63985
5.72382
5.80279
5.87664
5.94527
6.00858
6.06651
6.11902
6.16607
6.20764
6.24374
6.27438
6.29959
6.31942
6.33391
6.34314
6.34718
6.34611
6.34003
6.32903
6.3132
6.29263
6.2674
6.23756
6.20317
6.16426
6.12083
6.07287
6.02036
5.9633
5.90153
5.83455
5.76238
5.68538
5.60376
5.51769
5.42727
5.33255
5.23359
5.13038
5.02304
4.91177
4.79662
4.67764
4.55497
4.42875
4.29925
4.16684
4.03181
3.89454
3.75544
3.61503
3.47385
3.33243
3.19135
3.05119
2.91255
2.77598
2.64203
2.51122
2.38402
2.26087
2.14213
2.02813
1.91913
1.81533
1.71686
1.62381
1.53618
1.45395
1.37702
1.30526
1.23849
1.17652
1.11911
1.06603
1.01704
0.971895
0.930335
0.892121
0.857013
0.824779
0.795199
0.768059
0.74316
0.720312
0.699339
0.680075
0.662365
0.646068
0.63105
0.617189
0.604371
0.592492
0.581455
0.571173
0.561563
0.552551
0.544068
0.536052
0.528447
0.5212
0.514265
0.507599
0.501167
0.494934
0.488871
0.482953
0.477158
0.471466
0.465862
0.460333
0.454868
0.449457
0.444095
0.438775
0.433491
0.428238
0.423007
0.417795
0.412616
0.407478
0.402382
0.39733
0.392324
0.387368
0.382465
0.377615
0.372823
0.368089
0.363416
0.358806
0.35426
0.349779
0.345364
0.341016
0.336737
0.332525
0.32838
0.324299
0.320282
0.31633
0.312443
0.308621
0.304864
0.301171
0.297543
0.293978
0.290477
0.287041
0.283668
0.280361
0.277121
0.273968
0.271103
0.218566
0.423742
0.545673
0.644902
0.73795
0.830317
0.924245
1.02072
1.12022
1.22296
1.32905
1.43852
1.55136
1.66752
1.7869
1.90935
2.03471
2.16276
2.29328
2.42599
2.56062
2.69693
2.83466
2.97354
3.11333
3.25377
3.3946
3.53557
3.67642
3.81688
3.9567
4.0956
4.23332
4.3696
4.504
4.63627
4.76612
4.89324
5.01735
5.13814
5.25531
5.36859
5.47771
5.5824
5.68243
5.77759
5.86767
5.9525
6.03192
6.10581
6.17404
6.23653
6.29322
6.34405
6.389
6.42804
6.46119
6.48846
6.50989
6.52552
6.53541
6.53965
6.53831
6.53148
6.51927
6.50176
6.47906
6.45124
6.41838
6.38051
6.33768
6.28987
6.23707
6.17927
6.11643
6.04828
5.97436
5.89494
5.81031
5.72067
5.62617
5.52693
5.42303
5.31455
5.20157
5.08423
4.96269
4.83706
4.70748
4.57418
4.4374
4.29749
4.15479
4.00972
3.86273
3.71433
3.56506
3.4155
3.26625
3.11791
2.97108
2.82637
2.68437
2.54561
2.41062
2.27985
2.15373
2.03262
1.91681
1.80653
1.70196
1.60318
1.51025
1.42313
1.34175
1.26598
1.19564
1.13052
1.07038
1.01498
0.964028
0.917259
0.874394
0.835158
0.799285
0.766516
0.736603
0.709311
0.684418
0.661717
0.641012
0.622126
0.60489
0.589151
0.574767
0.561609
0.549556
0.538499
0.528336
0.518974
0.51033
0.502324
0.494885
0.487947
0.48145
0.475338
0.469562
0.464076
0.458837
0.453809
0.448958
0.444255
0.439672
0.435188
0.430781
0.426436
0.422137
0.417872
0.413632
0.409407
0.405187
0.400962
0.396713
0.392459
0.388211
0.383968
0.379734
0.375509
0.371297
0.367101
0.362923
0.358768
0.354638
0.350536
0.346466
0.34243
0.338431
0.334471
0.330553
0.326679
0.322851
0.31907
0.315337
0.311654
0.308022
0.30444
0.300909
0.297425
0.29399
0.290605
0.287269
0.283985
0.280752
0.27757
0.274441
0.271365
0.268343
0.265379
0.26249
0.259859
0.216896
0.420208
0.541887
0.640828
0.733364
0.824974
0.917938
1.01329
1.11158
1.21308
1.31798
1.4263
1.53809
1.65334
1.77199
1.89395
2.01906
2.14715
2.27805
2.41151
2.54719
2.68491
2.82441
2.96546
3.1078
3.25116
3.39529
3.53993
3.6848
3.82962
3.97412
4.118
4.26095
4.40267
4.54278
4.68096
4.81688
4.95021
5.08061
5.20775
5.3313
5.45094
5.56636
5.67727
5.7834
5.8845
5.98033
6.07069
6.15538
6.23426
6.30718
6.37403
6.43473
6.4892
6.53739
6.57929
6.61487
6.64414
6.66714
6.68389
6.69446
6.69891
6.69732
6.68979
6.67642
6.6573
6.63253
6.60221
6.56639
6.52513
6.47847
6.42638
6.36885
6.30588
6.23737
6.1629
6.08234
5.99597
5.90403
5.80672
5.7042
5.5966
5.48402
5.36659
5.24444
5.11774
4.98666
4.85137
4.71211
4.56915
4.42284
4.27355
4.12171
3.96777
3.81228
3.65579
3.49888
3.34218
3.18632
3.03192
2.87963
2.73005
2.58377
2.44135
2.30329
2.17006
2.04206
1.91963
1.80303
1.69247
1.58807
1.48991
1.39797
1.31219
1.23244
1.15856
1.09032
1.02747
0.969743
0.916836
0.86845
0.824277
0.784014
0.747362
0.714035
0.683755
0.656263
0.631313
0.608677
0.588141
0.569511
0.552606
0.537262
0.523326
0.510662
0.499145
0.48866
0.479104
0.470381
0.462406
0.455099
0.448388
0.442207
0.436495
0.431197
0.426261
0.421641
0.417293
0.413179
0.409262
0.40551
0.401894
0.398388
0.394969
0.391616
0.388311
0.385039
0.381786
0.378539
0.375283
0.371994
0.368668
0.36533
0.361975
0.358605
0.355218
0.351816
0.348401
0.344974
0.34154
0.3381
0.334659
0.33122
0.327785
0.324359
0.320945
0.317546
0.314165
0.310806
0.30747
0.30416
0.300879
0.297629
0.294411
0.291227
0.288079
0.284967
0.281893
0.278858
0.27586
0.272898
0.269974
0.267088
0.264242
0.261437
0.258674
0.255955
0.253284
0.250676
0.248296
0.214147
0.415031
0.536124
0.634515
0.72629
0.816902
0.908659
1.0026
1.09932
1.19919
1.3025
1.40921
1.51941
1.63317
1.75049
1.8713
1.99549
2.12293
2.25343
2.38678
2.52274
2.66109
2.80159
2.94401
3.08808
3.23357
3.38019
3.52767
3.67574
3.82411
3.97247
4.12052
4.26791
4.41432
4.55937
4.7027
4.84396
4.98278
5.11879
5.25162
5.38091
5.50632
5.62748
5.74409
5.85583
5.96241
6.06357
6.15906
6.24869
6.33225
6.40958
6.48055
6.54505
6.60298
6.65428
6.6989
6.73683
6.76805
6.79258
6.81044
6.82169
6.82638
6.82459
6.81642
6.80195
6.7813
6.75457
6.72183
6.68318
6.63865
6.58828
6.53206
6.46996
6.40199
6.32794
6.2474
6.16054
6.06757
5.96871
5.86417
5.7541
5.63866
5.51799
5.39225
5.26162
5.12629
4.98648
4.84242
4.69441
4.54279
4.38797
4.23038
4.07049
3.90883
3.74599
3.58257
3.41919
3.25652
3.0952
2.93591
2.77929
2.62596
2.47652
2.33154
2.1915
2.05687
1.92802
1.80527
1.68887
1.57896
1.47566
1.37897
1.28885
1.20519
1.12781
1.05648
0.990961
0.930946
0.876123
0.826161
0.780725
0.739478
0.702093
0.668248
0.63764
0.609978
0.584993
0.562431
0.54206
0.523666
0.507054
0.492045
0.478479
0.466211
0.455107
0.445051
0.435935
0.427663
0.420148
0.413312
0.407083
0.401396
0.396193
0.39142
0.387027
0.38297
0.379206
0.375698
0.37241
0.369309
0.366366
0.363555
0.360849
0.358227
0.35567
0.353158
0.350676
0.348207
0.345734
0.343222
0.340682
0.338126
0.33555
0.33295
0.330323
0.327668
0.324985
0.322275
0.319539
0.316779
0.313998
0.311199
0.308384
0.305558
0.302723
0.299883
0.297041
0.294201
0.291365
0.288537
0.285719
0.282915
0.280125
0.277354
0.274602
0.271872
0.269165
0.266483
0.263828
0.2612
0.2586
0.25603
0.253489
0.250979
0.248498
0.246049
0.243634
0.241257
0.238933
0.236806
0.210521
0.408595
0.52888
0.626546
0.717378
0.806805
0.897216
0.989504
1.08438
1.18228
1.28347
1.38807
1.49622
1.60801
1.72349
1.84262
1.96534
2.09153
2.22106
2.35372
2.48932
2.62765
2.76849
2.91159
3.05671
3.20359
3.35196
3.50155
3.65206
3.80319
3.95463
4.10605
4.25709
4.4074
4.5566
4.7043
4.85012
4.99367
5.13454
5.27235
5.4067
5.5372
5.66348
5.78518
5.90196
6.0135
6.11951
6.21971
6.31385
6.40173
6.48315
6.55795
6.62599
6.68716
6.74139
6.7886
6.82876
6.86184
6.88785
6.9068
6.91872
6.92368
6.92174
6.91298
6.89751
6.87543
6.84683
6.81182
6.77047
6.72282
6.66892
6.60873
6.54227
6.46948
6.39004
6.30383
6.21104
6.11188
6.00656
5.89527
5.7782
5.65551
5.52738
5.39402
5.25562
5.11244
4.96474
4.8128
4.65698
4.49768
4.33535
4.17049
4.00362
3.83532
3.66622
3.49696
3.32821
3.16066
2.99499
2.83189
2.67202
2.51602
2.36449
2.21798
2.07699
1.94196
1.81325
1.69114
1.57584
1.46748
1.36612
1.27171
1.18416
1.10331
1.02894
0.960768
0.898501
0.841797
0.790301
0.743649
0.701474
0.663413
0.629114
0.59824
0.570473
0.545512
0.523081
0.502924
0.484807
0.468517
0.453862
0.44067
0.428785
0.418068
0.408395
0.399656
0.391751
0.384595
0.378107
0.372217
0.366864
0.361991
0.357545
0.353483
0.34976
0.346339
0.343185
0.340265
0.337548
0.335007
0.332617
0.330353
0.328194
0.326119
0.32411
0.322151
0.320223
0.318306
0.316364
0.314412
0.312456
0.310487
0.308498
0.306485
0.304444
0.302372
0.300268
0.298131
0.295962
0.293762
0.291532
0.289275
0.286993
0.284689
0.282366
0.280026
0.277673
0.27531
0.27294
0.270566
0.26819
0.265816
0.263445
0.261081
0.258725
0.256379
0.254047
0.251728
0.249426
0.247141
0.244876
0.242631
0.240407
0.238206
0.23603
0.233879
0.231756
0.229662
0.227611
0.225728
0.206237
0.401277
0.520616
0.617487
0.707242
0.795293
0.883969
0.974343
1.06712
1.16275
1.26156
1.36377
1.46956
1.57906
1.69234
1.80943
1.93029
2.05485
2.18298
2.31453
2.44931
2.58713
2.72777
2.871
3.01658
3.16425
3.31373
3.46474
3.61698
3.77015
3.92391
4.07791
4.2318
4.3852
4.53772
4.68896
4.83852
4.98597
5.1309
5.27289
5.41152
5.54637
5.67706
5.80318
5.92437
6.04027
6.15057
6.25495
6.35315
6.44491
6.53003
6.60831
6.67959
6.74375
6.80068
6.85029
6.89253
6.92736
6.95477
6.97476
6.98735
6.99258
6.99053
6.98126
6.96487
6.94145
6.91112
6.87397
6.83007
6.77948
6.72222
6.65828
6.58767
6.51025
6.42573
6.33424
6.23595
6.13105
6.01975
5.90224
5.77873
5.64941
5.51448
5.37419
5.22878
5.07853
4.92377
4.76482
4.60209
4.43605
4.26718
4.09603
3.92318
3.74926
3.57493
3.40087
3.22779
3.05639
2.88741
2.72153
2.55943
2.40177
2.24914
2.1021
1.96113
1.82665
1.699
1.57842
1.46508
1.35909
1.26042
1.16901
1.0847
1.00728
0.936475
0.871963
0.813391
0.760381
0.71254
0.669471
0.630776
0.596072
0.564987
0.537172
0.512297
0.490058
0.470174
0.452391