/*--------------------------------*- C++ -*----------------------------------*\
  =========                 |
  \\      /  F ield         | OpenFOAM: The Open Source CFD Toolbox
   \\    /   O peration     | Website:  https://openfoam.org
    \\  /    A nd           | Version:  7
     \\/     M anipulation  |
\*---------------------------------------------------------------------------*/
FoamFile
{
    version     2.0;
    format      ascii;
    class       volScalarField;
    location    "300";
    object      nut;
}
// * * * * * * * * * * * * * * * * * * * * * * * * * * * * * * * * * * * * * //

dimensions      [0 2 -1 0 0 0 0];

internalField   nonuniform List<scalar> 
16900
(
0.000108176
0.000163684
0.000186313
3.75392e-05
4.27167e-05
4.78262e-05
5.27612e-05
5.71037e-05
6.11746e-05
6.50035e-05
6.8612e-05
7.20233e-05
7.52547e-05
7.8321e-05
8.12346e-05
8.40059e-05
8.66432e-05
8.91546e-05
9.15462e-05
9.38244e-05
9.59938e-05
9.80598e-05
0.000100026
0.000101897
0.000103676
0.000105367
0.000106972
0.000108496
0.00010994
0.000111307
0.000112601
0.000113823
0.000114976
0.000116063
0.000117087
0.00011805
0.000118954
0.000119803
0.000120598
0.000121344
0.000122043
0.000122698
0.000123312
0.000123888
0.00012443
0.00012494
0.000125422
0.000125878
0.000126313
0.000126727
0.000127126
0.000127509
0.000127881
0.000128243
0.000128597
0.000128944
0.000129286
0.000129622
0.000129955
0.000130284
0.000130608
0.000130928
0.000131242
0.00013155
0.000131851
0.000132142
0.000132423
0.000132692
0.000132946
0.000133185
0.000133407
0.000133609
0.000133791
0.00013395
0.000134088
0.000134203
0.000134295
0.000134367
0.00013442
0.00013446
0.000134522
0.000134541
0.000134515
0.000134443
0.000134323
0.000134153
0.00013393
0.000133653
0.00013332
0.00013293
0.000132482
0.000131973
0.000131402
0.000130769
0.000130073
0.000129314
0.00012849
0.000127601
0.000126649
0.000125632
0.000124552
0.000123409
0.000122205
0.00012094
0.000119616
0.000118236
0.000116801
0.000115312
0.000113773
0.000112184
0.000110547
0.000108865
0.000107131
0.000105354
0.000103516
0.000101614
9.99174e-05
9.79002e-05
9.68461e-05
9.59191e-05
9.50312e-05
9.4163e-05
9.33087e-05
9.24662e-05
9.1635e-05
9.08149e-05
9.00065e-05
8.92104e-05
8.8427e-05
8.76571e-05
8.6901e-05
8.61594e-05
8.54324e-05
8.47204e-05
8.40235e-05
8.33418e-05
8.26752e-05
8.20236e-05
8.1387e-05
8.07651e-05
8.01576e-05
7.95644e-05
7.8985e-05
7.84193e-05
7.78668e-05
7.73273e-05
7.68005e-05
7.6286e-05
7.57836e-05
7.5293e-05
7.48139e-05
7.43461e-05
7.38893e-05
7.34435e-05
7.30083e-05
7.25837e-05
7.21695e-05
7.17655e-05
7.13718e-05
7.09882e-05
7.06146e-05
7.02509e-05
6.98972e-05
6.95532e-05
6.92192e-05
6.88948e-05
6.85802e-05
6.82751e-05
6.79797e-05
6.76939e-05
6.74179e-05
6.71513e-05
6.68939e-05
6.66455e-05
6.64059e-05
6.61749e-05
6.59525e-05
6.57384e-05
6.55326e-05
6.53348e-05
6.51449e-05
6.49629e-05
6.47887e-05
6.46219e-05
6.44622e-05
6.43094e-05
6.41632e-05
6.40232e-05
6.38893e-05
6.37612e-05
6.36385e-05
6.3521e-05
6.34085e-05
6.33006e-05
6.31971e-05
6.30978e-05
6.30023e-05
6.29107e-05
6.28229e-05
6.27422e-05
0.000143227
0.000218621
0.000235709
0.000198363
0.000220982
0.000256736
0.000285855
0.000314509
0.000343477
0.00037252
0.000401423
0.000430031
0.000458224
0.000485901
0.000512977
0.000539379
0.000565046
0.000589929
0.000613986
0.000637186
0.000659502
0.00068092
0.000701424
0.000721009
0.000739668
0.000757406
0.000774222
0.00079012
0.000805103
0.000819177
0.000832349
0.000844626
0.000856018
0.000866533
0.000876184
0.000884982
0.000892942
0.000900079
0.000906413
0.000911965
0.000916758
0.000920819
0.000924178
0.000926867
0.000928923
0.000930383
0.00093129
0.000931687
0.00093162
0.000931137
0.000930288
0.000929123
0.000927694
0.000926051
0.000924247
0.000922332
0.000920355
0.000918363
0.000916402
0.000914514
0.000912739
0.000911113
0.00090967
0.000908437
0.000907439
0.000906697
0.000906224
0.000906031
0.000906123
0.000906498
0.000907148
0.000908057
0.000909204
0.000910558
0.000912078
0.000913713
0.000915393
0.000917035
0.000918534
0.000919774
0.000920228
0.000920688
0.000921196
0.00092173
0.000922262
0.000922762
0.000923194
0.000923525
0.000923717
0.000923736
0.000923542
0.000923099
0.00092237
0.000921321
0.000919918
0.00091813
0.000915926
0.000913281
0.000910172
0.000906579
0.000902485
0.000897879
0.000892749
0.000887093
0.000880909
0.000874194
0.00086696
0.000859204
0.000850939
0.000842165
0.000832891
0.000823119
0.000812817
0.000802097
0.000790672
0.000778363
0.000765559
0.000750403
0.00073423
0.00071775
0.000701277
0.000684953
0.000668849
0.000653006
0.000637451
0.000622205
0.00060728
0.000592689
0.000578439
0.000564536
0.000550986
0.000537789
0.000524947
0.000512459
0.000500325
0.000488542
0.000477106
0.000466014
0.000455261
0.000444843
0.000434754
0.000424989
0.000415542
0.000406408
0.00039758
0.000389052
0.000380818
0.000372871
0.000365204
0.000357813
0.000350689
0.000343826
0.000337217
0.000330856
0.000324735
0.000318848
0.000313187
0.000307747
0.000302518
0.000297496
0.000292671
0.000288038
0.000283589
0.000279317
0.000275215
0.000271275
0.000267492
0.000263859
0.000260367
0.000257004
0.000253758
0.000250631
0.00024762
0.000244723
0.000241937
0.000239256
0.000236678
0.000234196
0.000231805
0.000229501
0.000227272
0.000225109
0.000223009
0.00022097
0.000218987
0.000217057
0.000215179
0.000213349
0.000211564
0.000209823
0.000208122
0.00020646
0.000204835
0.000203245
0.000201689
0.000200165
0.000198671
0.000197208
0.000195776
0.000194436
0.000185908
0.000283277
0.000347768
0.000380361
0.000423327
0.000473591
0.000526968
0.000582311
0.000638697
0.000695492
0.000752253
0.000808645
0.000864402
0.000919301
0.000973151
0.00102579
0.00107709
0.00112693
0.00117522
0.00122189
0.00126687
0.00131012
0.0013516
0.00139129
0.00142918
0.00146525
0.00149952
0.00153197
0.00156261
0.00159147
0.00161854
0.00164385
0.00166741
0.00168924
0.00170938
0.00172784
0.00174466
0.00175988
0.00177352
0.00178564
0.00179629
0.00180551
0.00181336
0.00181992
0.00182523
0.00182938
0.00183245
0.0018345
0.00183563
0.00183592
0.00183545
0.00183431
0.00183259
0.00183037
0.00182773
0.00182476
0.00182152
0.0018181
0.00181456
0.00181096
0.00180735
0.00180378
0.00180029
0.0017969
0.00179365
0.00179054
0.00178759
0.00178478
0.00178211
0.00177956
0.00177709
0.00177468
0.00177227
0.00176982
0.00176726
0.00176452
0.00176153
0.0017582
0.00175444
0.00174991
0.0017447
0.00173924
0.00173357
0.00172766
0.00172148
0.00171499
0.00170814
0.00170088
0.00169318
0.00168499
0.00167626
0.00166697
0.00165707
0.00164652
0.00163531
0.0016234
0.00161077
0.00159741
0.00158332
0.00156847
0.00155289
0.00153656
0.00151951
0.00150174
0.00148328
0.00146415
0.00144436
0.00142395
0.00140293
0.00138133
0.00135917
0.0013365
0.00131332
0.00128973
0.00126613
0.00124248
0.00121872
0.00119432
0.00116954
0.00114472
0.00112012
0.00109586
0.00107204
0.00104869
0.00102586
0.00100355
0.000981777
0.000960547
0.00093986
0.000919715
0.000900107
0.00088103
0.000862477
0.00084444
0.000826909
0.000809873
0.000793323
0.000777248
0.000761636
0.000746478
0.000731761
0.000717477
0.000703613
0.00069016
0.000677108
0.000664447
0.000652169
0.000640264
0.000628723
0.000617538
0.000606701
0.000596203
0.000586038
0.000576195
0.00056667
0.000557452
0.000548535
0.000539911
0.000531573
0.000523512
0.000515721
0.000508193
0.000500918
0.00049389
0.000487101
0.000480542
0.000474206
0.000468084
0.000462169
0.000456451
0.000450922
0.000445573
0.000440398
0.000435388
0.000430539
0.000425843
0.000421294
0.000416885
0.000412609
0.000408461
0.000404433
0.000400517
0.000396706
0.000392994
0.000389376
0.000385846
0.000382399
0.00037903
0.000375735
0.00037251
0.000369351
0.000366253
0.000363215
0.000360232
0.000357301
0.000354421
0.000351588
0.000348802
0.000346068
0.000343549
0.000235278
0.00032765
0.000447883
0.000526178
0.00059486
0.000665515
0.000739906
0.000816934
0.000895403
0.000974458
0.00105348
0.00113201
0.00120966
0.00128613
0.00136115
0.00143451
0.00150601
0.0015755
0.00164285
0.00170796
0.00177074
0.00183112
0.00188905
0.0019445
0.00199745
0.00204789
0.00209581
0.00214122
0.00218413
0.00222456
0.00226253
0.00229806
0.00233119
0.00236195
0.00239037
0.00241649
0.00244037
0.00246205
0.00248158
0.00249904
0.00251447
0.00252796
0.00253958
0.0025494
0.00255753
0.00256404
0.00256903
0.0025726
0.00257484
0.00257586
0.00257577
0.00257465
0.00257262
0.00256977
0.00256618
0.00256196
0.00255719
0.00255194
0.00254628
0.00254027
0.00253397
0.00252743
0.00252067
0.00251372
0.0025066
0.00249932
0.00249186
0.00248424
0.00247642
0.00246837
0.00246008
0.0024515
0.00244258
0.00243327
0.00242354
0.00241332
0.00240256
0.00239122
0.00237927
0.00236622
0.00235254
0.00233838
0.00232376
0.00230868
0.00229309
0.00227698
0.00226031
0.00224304
0.00222515
0.00220661
0.00218739
0.00216747
0.00214683
0.00212545
0.00210332
0.00208044
0.00205681
0.00203243
0.00200731
0.00198147
0.00195493
0.00192771
0.00189984
0.00187136
0.00184228
0.00181265
0.00178249
0.00175185
0.00172072
0.00168916
0.00165721
0.00162483
0.00159268
0.00156086
0.00152953
0.00149873
0.00146841
0.00143837
0.00140864
0.00137931
0.00135053
0.00132237
0.0012949
0.00126814
0.00124212
0.00121683
0.00119227
0.00116844
0.00114532
0.00112289
0.00110114
0.00108006
0.00105961
0.00103979
0.00102057
0.00100193
0.000983848
0.000966312
0.0009493
0.000932793
0.000916773
0.000901225
0.000886131
0.000871477
0.000857248
0.000843431
0.000830013
0.000816982
0.000804327
0.000792038
0.000780104
0.000768516
0.000757265
0.000746342
0.00073574
0.000725451
0.000715466
0.000705779
0.000696382
0.000687267
0.000678428
0.000669857
0.000661548
0.000653492
0.000645683
0.000638114
0.000630776
0.000623664
0.000616768
0.000610083
0.000603599
0.00059731
0.000591207
0.000585283
0.000579531
0.000573943
0.000568513
0.000563234
0.000558099
0.000553101
0.000548232
0.000543488
0.00053886
0.000534342
0.000529928
0.000525612
0.000521388
0.000517252
0.000513197
0.000509219
0.000505314
0.000501477
0.000497704
0.000493992
0.000490338
0.000486737
0.000483187
0.000479686
0.000476249
0.000473136
0.000291581
0.000376618
0.000536131
0.000649625
0.000743095
0.000833212
0.000925259
0.00101958
0.00111536
0.00121175
0.00130805
0.00140373
0.00149831
0.00159145
0.00168281
0.00177215
0.00185924
0.00194389
0.00202596
0.00210531
0.00218184
0.00225547
0.00232614
0.00239382
0.00245848
0.0025201
0.00257868
0.00263424
0.00268678
0.00273632
0.00278291
0.00282657
0.00286733
0.00290524
0.00294036
0.00297271
0.00300237
0.00302939
0.00305384
0.00307578
0.00309529
0.00311244
0.00312733
0.00314004
0.00315065
0.00315928
0.00316602
0.00317097
0.00317424
0.00317593
0.00317615
0.00317501
0.0031726
0.00316903
0.00316439
0.00315877
0.00315225
0.00314492
0.00313684
0.00312806
0.00311865
0.00310864
0.00309806
0.00308694
0.0030753
0.00306314
0.00305046
0.00303724
0.00302348
0.00300915
0.00299422
0.00297867
0.00296246
0.00294556
0.00292793
0.00290955
0.00289037
0.00287036
0.00284947
0.00282741
0.00280457
0.00278105
0.00275689
0.00273207
0.0027066
0.00268046
0.00265363
0.0026261
0.00259785
0.00256888
0.00253918
0.00250875
0.00247758
0.00244568
0.00241305
0.00237973
0.00234572
0.00231103
0.00227572
0.00223982
0.00220334
0.00216634
0.00212886
0.00209094
0.00205261
0.00201394
0.0019749
0.0019356
0.00189601
0.00185612
0.00181659
0.00177749
0.00173909
0.00170156
0.001665
0.00162946
0.00159492
0.00156126
0.00152844
0.00149646
0.00146537
0.0014352
0.00140598
0.00137772
0.00135042
0.00132405
0.0012986
0.00127405
0.00125036
0.0012275
0.00120545
0.00118416
0.00116361
0.00114377
0.0011246
0.00110608
0.00108816
0.00107083
0.00105405
0.00103781
0.00102207
0.00100681
0.000992017
0.000977661
0.000963726
0.000950196
0.000937054
0.000924285
0.000911875
0.000899811
0.000888083
0.000876678
0.000865589
0.000854804
0.000844317
0.000834118
0.0008242
0.000814557
0.000805182
0.000796067
0.000787207
0.000778595
0.000770226
0.000762093
0.000754189
0.00074651
0.000739049
0.000731799
0.000724755
0.000717909
0.000711257
0.00070479
0.000698503
0.000692389
0.000686441
0.000680652
0.000675016
0.000669527
0.000664177
0.000658961
0.000653873
0.000648905
0.000644051
0.000639307
0.000634665
0.00063012
0.000625667
0.0006213
0.000617014
0.000612805
0.000608667
0.000604598
0.000600592
0.000596646
0.000592757
0.00058892
0.000585133
0.000581394
0.000577729
0.00057447
5.14057e-05
0.000373861
0.000606035
0.000754797
0.000871162
0.000978559
0.0010854
0.0011936
0.00130298
0.00141286
0.00152256
0.0016315
0.00173919
0.00184522
0.00194924
0.00205097
0.00215017
0.00224663
0.00234017
0.00243066
0.00251799
0.00260207
0.00268283
0.00276022
0.00283423
0.00290483
0.00297202
0.00303581
0.00309622
0.00315328
0.00320702
0.00325748
0.00330469
0.00334871
0.00338958
0.00342736
0.0034621
0.00349387
0.00352273
0.00354876
0.00357203
0.00359261
0.0036106
0.00362607
0.00363913
0.00364986
0.00365837
0.00366476
0.00366913
0.00367159
0.00367223
0.00367116
0.00366848
0.00366429
0.00365868
0.00365174
0.00364354
0.00363417
0.00362369
0.00361216
0.00359963
0.00358614
0.00357173
0.00355642
0.00354022
0.00352315
0.00350521
0.0034864
0.00346669
0.00344609
0.00342457
0.00340211
0.00337869
0.00335429
0.00332889
0.00330246
0.00327499
0.00324646
0.00321673
0.00318576
0.00315384
0.00312107
0.00308748
0.00305309
0.00301791
0.00298194
0.00294519
0.00290766
0.00286935
0.00283026
0.00279042
0.00274985
0.00270855
0.00266655
0.00262387
0.00258057
0.00253667
0.00249221
0.00244724
0.00240182
0.00235599
0.00230979
0.00226331
0.00221659
0.00216958
0.00212255
0.00207525
0.00202795
0.00198115
0.00193488
0.00188947
0.00184509
0.00180191
0.00176006
0.00171965
0.0016807
0.00164319
0.00160704
0.00157217
0.00153854
0.00150614
0.00147498
0.00144503
0.0014163
0.00138874
0.00136232
0.001337
0.00131274
0.00128949
0.00126721
0.00124585
0.00122535
0.00120567
0.00118677
0.0011686
0.00115113
0.0011343
0.00111808
0.00110244
0.00108733
0.00107274
0.00105862
0.00104496
0.00103172
0.00101888
0.00100642
0.000994324
0.00098257
0.000971144
0.000960029
0.000949213
0.000938684
0.000928432
0.000918446
0.000908718
0.00089924
0.000890005
0.000881007
0.000872239
0.000863695
0.000855372
0.000847262
0.000839362
0.000831667
0.000824172
0.000816872
0.000809764
0.000802841
0.000796101
0.000789537
0.000783145
0.000776919
0.000770856
0.000764948
0.000759192
0.00075358
0.000748109
0.000742772
0.000737563
0.000732477
0.000727509
0.000722654
0.000717905
0.000713258
0.000708707
0.000704247
0.000699874
0.000695582
0.000691368
0.000687226
0.000683153
0.000679145
0.000675198
0.000671308
0.000667472
0.000663687
0.000659951
0.000656262
0.000652656
0.000649513
5.00431e-05
0.000393176
0.000665973
0.00084393
0.000980624
0.00110319
0.0012225
0.00134195
0.00146206
0.00158245
0.00170253
0.00182172
0.00193953
0.00205554
0.00216938
0.00228075
0.0023894
0.0024951
0.00259769
0.002697
0.00279293
0.00288537
0.00297425
0.00305954
0.00314119
0.0032192
0.00329355
0.00336427
0.00343136
0.00349485
0.00355479
0.00361119
0.00366411
0.00371358
0.00375967
0.00380241
0.00384187
0.0038781
0.00391117
0.00394113
0.00396806
0.00399204
0.00401314
0.00403144
0.00404703
0.00405999
0.00407043
0.00407843
0.00408409
0.00408751
0.00408878
0.00408801
0.00408529
0.00408071
0.00407436
0.00406632
0.00405668
0.0040455
0.00403286
0.00401881
0.0040034
0.00398668
0.00396868
0.00394943
0.00392896
0.00390727
0.00388437
0.00386027
0.00383495
0.00380842
0.00378067
0.00375167
0.00372142
0.00368991
0.00365712
0.00362305
0.00358767
0.003551
0.00351279
0.00347325
0.0034326
0.00339091
0.00334825
0.00330463
0.0032601
0.00321467
0.00316836
0.00312119
0.00307316
0.00302432
0.00297469
0.00292432
0.00287325
0.00282149
0.0027691
0.00271614
0.00266268
0.00260876
0.00255441
0.00249977
0.00244489
0.00238974
0.00233452
0.00227933
0.00222376
0.00216872
0.00211417
0.00206035
0.00200751
0.00195583
0.00190551
0.00185673
0.00180962
0.0017643
0.00172082
0.00167921
0.00163944
0.00160144
0.00156512
0.00153042
0.00149729
0.00146571
0.00143562
0.00140698
0.00137974
0.00135385
0.00132925
0.00130586
0.00128364
0.0012625
0.00124239
0.00122325
0.00120501
0.00118761
0.001171
0.00115512
0.00113992
0.00112535
0.00111137
0.00109793
0.00108499
0.00107252
0.00106049
0.00104885
0.00103759
0.00102668
0.0010161
0.00100581
0.000995815
0.000986085
0.000976609
0.000967373
0.000958365
0.000949576
0.000940997
0.000932619
0.000924437
0.000916444
0.000908634
0.000901005
0.00089355
0.000886267
0.000879152
0.000872202
0.000865413
0.000858784
0.00085231
0.00084599
0.00083982
0.000833796
0.000827917
0.000822177
0.000816575
0.000811105
0.000805765
0.000800549
0.000795455
0.000790477
0.000785612
0.000780856
0.000776203
0.00077165
0.000767192
0.000762826
0.000758546
0.000754349
0.000750231
0.000746187
0.000742215
0.000738309
0.000734468
0.000730686
0.000726962
0.000723292
0.000719674
0.000716104
0.000712581
0.000709107
0.000705722
0.000702833
5.10539e-05
0.00041193
0.000715411
0.000918081
0.00107275
0.00120864
0.00133855
0.00146717
0.00159578
0.00172433
0.00185238
0.00197942
0.00210498
0.00222863
0.00235001
0.00246883
0.0025848
0.00269773
0.00280741
0.0029137
0.00301648
0.00311565
0.00321114
0.0033029
0.00339089
0.0034751
0.00355552
0.00363216
0.00370504
0.00377418
0.00383961
0.00390136
0.00395947
0.00401398
0.00406493
0.00411236
0.00415633
0.00419688
0.00423406
0.00426793
0.00429856
0.00432599
0.0043503
0.00437157
0.00438985
0.00440524
0.00441782
0.00442766
0.00443487
0.00443951
0.0044417
0.00444151
0.00443904
0.00443437
0.00442758
0.00441877
0.004408
0.00439534
0.00438087
0.00436465
0.00434671
0.00432712
0.00430591
0.00428312
0.00425877
0.00423287
0.00420544
0.00417649
0.00414602
0.00411402
0.00408049
0.00404543
0.00400883
0.00397068
0.00393097
0.00388971
0.00384687
0.00380245
0.00375624
0.00370857
0.0036596
0.00360943
0.0035581
0.00350567
0.00345218
0.00339767
0.00334218
0.00328574
0.00322838
0.00317012
0.00311104
0.00305119
0.00299065
0.00292944
0.00286761
0.00280523
0.00274247
0.00267934
0.00261581
0.00255212
0.00248843
0.00242444
0.00236054
0.00229728
0.00223446
0.00217258
0.00211174
0.00205218
0.0019941
0.00193771
0.00188316
0.00183059
0.00178013
0.00173186
0.00168582
0.00164203
0.00160044
0.001561
0.0015236
0.00148818
0.00145465
0.00142297
0.00139305
0.00136483
0.00133824
0.00131319
0.00128961
0.00126741
0.00124651
0.00122683
0.00120829
0.00119081
0.00117431
0.00115872
0.00114397
0.00112999
0.00111673
0.00110411
0.00109209
0.00108062
0.00106964
0.00105912
0.00104901
0.00103928
0.00102989
0.00102081
0.00101202
0.00100349
0.0009952
0.000987129
0.000979261
0.000971582
0.000964079
0.000956741
0.000949559
0.000942526
0.000935634
0.000928879
0.000922256
0.000915762
0.000909393
0.000903147
0.000897022
0.000891017
0.000885129
0.000879359
0.000873704
0.000868163
0.000862736
0.00085742
0.000852215
0.000847119
0.00084213
0.000837246
0.000832465
0.000827784
0.000823202
0.000818716
0.000814322
0.000810019
0.000805803
0.000801671
0.000797621
0.000793649
0.000789752
0.000785927
0.00078217
0.00077848
0.000774852
0.000771285
0.000767775
0.00076432
0.000760916
0.000757563
0.000754258
0.000750999
0.000747786
0.000744621
0.00074155
0.000738987
5.21941e-05
0.000426233
0.000754407
0.000978317
0.00114887
0.00129647
0.00143541
0.00157153
0.00170681
0.0018416
0.00197566
0.00210858
0.00223991
0.00236927
0.00249631
0.00262071
0.00274224
0.00286066
0.00297581
0.00308753
0.00319569
0.00330021
0.003401
0.00349803
0.00359125
0.00368065
0.00376622
0.00384796
0.00392588
0.00400002
0.00407038
0.00413699
0.00419989
0.0042591
0.00431465
0.00436658
0.00441492
0.00445971
0.00450099
0.0045388
0.00457318
0.00460418
0.00463185
0.00465626
0.00467744
0.00469549
0.00471045
0.00472241
0.00473144
0.00473761
0.00474102
0.00474174
0.00473984
0.00473543
0.00472856
0.00471933
0.0047078
0.00469404
0.00467813
0.00466012
0.00464007
0.00461802
0.00459403
0.00456812
0.00454033
0.00451067
0.00447918
0.00444585
0.0044107
0.00437372
0.00433491
0.00429428
0.00425181
0.0042075
0.00416135
0.00411336
0.00406352
0.00401176
0.00395804
0.00390269
0.00384585
0.00378763
0.00372807
0.00366724
0.0036052
0.003542
0.00347772
0.0034124
0.00334606
0.00327876
0.00321054
0.00314152
0.00307183
0.00300148
0.0029305
0.00285891
0.00278709
0.00271504
0.0026425
0.00256986
0.0024977
0.00242582
0.00235458
0.00228426
0.002215
0.00214709
0.00208073
0.00201613
0.00195349
0.00189297
0.00183473
0.0017789
0.00172555
0.00167476
0.00162656
0.00158094
0.00153787
0.00149728
0.00145907
0.00142315
0.00138944
0.00135785
0.00132828
0.00130064
0.00127485
0.00125079
0.00122837
0.00120749
0.00118805
0.00116996
0.00115311
0.00113741
0.00112277
0.00110912
0.00109635
0.0010844
0.0010732
0.00106267
0.00105275
0.00104337
0.0010345
0.00102606
0.00101803
0.00101034
0.00100297
0.000995883
0.00098904
0.000982416
0.000975988
0.000969731
0.000963628
0.000957663
0.00095182
0.000946089
0.000940459
0.000934922
0.000929473
0.000924105
0.000918815
0.000913601
0.00090846
0.000903391
0.000898393
0.000893466
0.000888611
0.000883827
0.000879114
0.000874475
0.000869907
0.000865414
0.000860994
0.000856648
0.000852377
0.00084818
0.000844058
0.000840009
0.000836033
0.00083213
0.000828297
0.000824535
0.00082084
0.000817213
0.000813651
0.000810152
0.000806714
0.000803336
0.000800015
0.00079675
0.000793537
0.000790376
0.000787265
0.000784201
0.000781183
0.00077821
0.00077528
0.000772393
0.000769549
0.000766753
0.000764052
0.000761855
5.30965e-05
0.000435886
0.000783797
0.00102589
0.00121039
0.00136823
0.00151484
0.00165704
0.00179747
0.0019369
0.0020753
0.00221239
0.0023478
0.00248118
0.00261219
0.00274056
0.00286605
0.00298845
0.00310759
0.00322332
0.00333553
0.00344414
0.00354907
0.00365027
0.0037477
0.00384136
0.00393123
0.00401731
0.00409961
0.00417813
0.00425291
0.00432395
0.00439127
0.00445488
0.00451481
0.00457108
0.00462369
0.00467268
0.00471806
0.00475985
0.00479809
0.00483279
0.00486399
0.00489173
0.00491604
0.00493699
0.00495462
0.00496898
0.00498014
0.00498817
0.00499313
0.0049951
0.00499415
0.00499035
0.00498378
0.00497451
0.00496261
0.00494815
0.00493121
0.00491183
0.00489008
0.00486601
0.00483967
0.00481109
0.00478032
0.00474737
0.00471227
0.00467504
0.00463568
0.0045942
0.00455059
0.00450486
0.004457
0.00440701
0.00435488
0.00430062
0.00424421
0.00418554
0.00412478
0.0040622
0.00399794
0.0039321
0.00386476
0.00379596
0.00372577
0.00365428
0.00358159
0.00350777
0.00343286
0.00335689
0.00327989
0.00320199
0.00312346
0.00304433
0.00296456
0.0028839
0.0028033
0.00272273
0.00264213
0.00256187
0.00248227
0.00240343
0.00232565
0.00224919
0.00217425
0.0021011
0.00202994
0.00196097
0.00189438
0.00183032
0.00176892
0.00171029
0.00165451
0.00160162
0.00155164
0.00150455
0.00146031
0.00141884
0.00138006
0.00134385
0.00131013
0.00127876
0.00124966
0.0012227
0.00119777
0.00117476
0.00115355
0.00113401
0.00111605
0.00109954
0.00108438
0.00107046
0.00105767
0.00104593
0.00103514
0.0010252
0.00101605
0.00100759
0.000999757
0.000992486
0.000985711
0.000979374
0.000973423
0.000967808
0.000962484
0.000957413
0.000952557
0.000947885
0.000943368
0.000938981
0.000934703
0.000930514
0.000926399
0.000922344
0.00091834
0.000914376
0.000910447
0.000906547
0.000902672
0.00089882
0.00089499
0.000891181
0.000887393
0.000883628
0.000879886
0.000876169
0.000872478
0.000868816
0.000865185
0.000861588
0.000858027
0.000854504
0.000851023
0.000847585
0.000844192
0.000840845
0.000837545
0.000834292
0.000831087
0.000827931
0.000824822
0.000821762
0.000818749
0.000815782
0.000812862
0.000809987
0.000807157
0.000804369
0.000801624
0.00079892
0.000796256
0.000793631
0.000791045
0.000788497
0.000785986
0.000783514
0.000781082
0.000778694
0.000776402
0.000774592
5.37242e-05
0.000441492
0.000804711
0.00106213
0.00125872
0.00142543
0.00157847
0.00172549
0.00186975
0.0020124
0.00215367
0.00229341
0.00243135
0.00256719
0.00270064
0.00283146
0.00295942
0.00308435
0.00320608
0.0033245
0.00343949
0.00355097
0.00365889
0.0037632
0.00386387
0.00396088
0.00405422
0.0041439
0.0042299
0.00431225
0.00439093
0.00446596
0.00453735
0.00460509
0.00466918
0.00472963
0.00478643
0.00483958
0.00488908
0.00493493
0.00497713
0.00501568
0.0050506
0.0050819
0.00510959
0.00513372
0.0051543
0.00517139
0.00518502
0.00519525
0.00520213
0.00520572
0.00520609
0.0052033
0.00519742
0.00518852
0.00517666
0.00516193
0.00514437
0.00512405
0.00510103
0.00507538
0.00504712
0.00501632
0.00498301
0.00494722
0.00490898
0.0048683
0.0048252
0.00477967
0.00473172
0.00468135
0.00462856
0.00457333
0.00451566
0.00445556
0.004393
0.00432788
0.00426052
0.00419115
0.00411992
0.00404692
0.00397222
0.00389589
0.00381796
0.00373856
0.00365786
0.00357594
0.00349285
0.00340863
0.00332322
0.00323668
0.00314968
0.00306216
0.00297416
0.00288574
0.00279742
0.00270933
0.0026216
0.00253455
0.00244845
0.00236353
0.00228006
0.00219829
0.00211847
0.00204083
0.00196558
0.00189292
0.001823
0.00175599
0.00169198
0.00163109
0.00157335
0.00151881
0.00146747
0.0014193
0.00137424
0.00133222
0.00129313
0.00125687
0.00122331
0.00119233
0.0011638
0.0011376
0.0011136
0.00109166
0.00107165
0.00105345
0.00103691
0.00102193
0.00100838
0.000996147
0.000985114
0.000975177
0.000966235
0.000958194
0.000950962
0.000944456
0.000938595
0.000933305
0.000928519
0.000924172
0.000920205
0.000916565
0.000913202
0.000910072
0.000907135
0.000904354
0.000901698
0.000899138
0.00089665
0.000894212
0.000891806
0.000889418
0.000887034
0.000884646
0.000882245
0.000879825
0.000877384
0.000874917
0.000872424
0.000869905
0.00086736
0.000864789
0.000862195
0.000859579
0.000856945
0.000854297
0.00085164
0.000848978
0.000846318
0.000843664
0.00084102
0.000838389
0.000835774
0.000833178
0.000830602
0.000828049
0.00082552
0.000823017
0.000820542
0.000818095
0.000815676
0.000813287
0.000810927
0.000808598
0.000806298
0.000804029
0.00080179
0.00079958
0.0007974
0.00079525
0.00079313
0.000791041
0.000788982
0.000786956
0.000784964
0.000783014
0.000781156
0.000779749
5.41011e-05
0.000443749
0.000818295
0.00108834
0.00129523
0.00146948
0.00162779
0.00177847
0.00192532
0.00206989
0.00221265
0.00235361
0.00249261
0.00262943
0.00276382
0.0028956
0.00302459
0.00315062
0.00327356
0.00339332
0.00350981
0.00362296
0.00373273
0.00383908
0.00394199
0.00404144
0.00413742
0.00422994
0.00431898
0.00440455
0.00448664
0.00456523
0.00464034
0.00471192
0.00477997
0.00484446
0.00490537
0.00496267
0.00501633
0.00506632
0.00511262
0.00515521
0.00519406
0.00522917
0.00526053
0.00528814
0.00531202
0.00533218
0.00534864
0.00536145
0.00537064
0.00537625
0.00537835
0.00537699
0.00537222
0.00536412
0.00535274
0.00533815
0.00532041
0.00529959
0.00527575
0.00524894
0.00521922
0.00518664
0.00515124
0.00511305
0.00507211
0.00502843
0.00498202
0.00493289
0.00488104
0.00482647
0.00476917
0.00470913
0.00464635
0.00458081
0.00451246
0.00444137
0.00436786
0.00429215
0.00421438
0.00413464
0.00405304
0.00396961
0.00388437
0.0037974
0.00370909
0.00361947
0.00352861
0.00343658
0.00334346
0.00324944
0.00315487
0.00305986
0.00296456
0.00286917
0.00277403
0.00267936
0.0025854
0.00249244
0.00240075
0.00231061
0.00222229
0.00213605
0.00205213
0.00197076
0.00189214
0.00181646
0.00174388
0.00167454
0.00160852
0.00154592
0.00148676
0.00143108
0.00137885
0.00133004
0.00128457
0.00124236
0.0012033
0.00116726
0.00113412
0.00110372
0.00107594
0.00105063
0.00102763
0.00100682
0.00098803
0.000971133
0.000955988
0.000942461
0.000930424
0.000919752
0.000910327
0.000902037
0.000894776
0.000888443
0.000882943
0.000878187
0.000874091
0.000870578
0.000867576
0.000865016
0.000862836
0.000860979
0.000859393
0.000858029
0.000856843
0.000855798
0.000854856
0.000853988
0.000853165
0.000852365
0.000851566
0.000850752
0.000849907
0.000849022
0.000848086
0.000847093
0.000846038
0.000844917
0.000843729
0.000842473
0.000841146
0.00083975
0.000838286
0.000836758
0.00083517
0.000833534
0.000831856
0.000830145
0.000828403
0.000826636
0.000824849
0.000823047
0.000821233
0.000819413
0.000817588
0.000815763
0.00081394
0.000812121
0.000810308
0.000808502
0.000806707
0.000804924
0.000803154
0.000801397
0.000799657
0.000797932
0.000796225
0.000794535
0.000792864
0.000791213
0.000789582
0.000787973
0.000786388
0.000784828
0.000783298
0.000781805
0.000780397
0.000779401
5.426e-05
0.000443285
0.000825619
0.00110573
0.00132118
0.00150165
0.00166408
0.00181729
0.00196554
0.00211075
0.00225363
0.0023944
0.00253298
0.00266927
0.00280311
0.00293435
0.00306287
0.00318855
0.0033113
0.00343104
0.00354772
0.0036613
0.00377175
0.00387904
0.00398317
0.00408412
0.0041819
0.00427649
0.00436788
0.00445608
0.00454105
0.00462279
0.00470126
0.00477642
0.00484824
0.00491665
0.00498161
0.00504307
0.00510097
0.00515523
0.00520582
0.00525266
0.00529571
0.00533493
0.00537027
0.00540173
0.00542927
0.00545289
0.0054726
0.0054884
0.00550033
0.00550841
0.00551268
0.0055132
0.00551
0.00550314
0.00549269
0.0054787
0.00546124
0.00544037
0.00541615
0.00538864
0.0053579
0.00532398
0.00528692
0.00524677
0.00520356
0.00515731
0.00510802
0.00505571
0.00500038
0.00494201
0.00488062
0.00481617
0.00474867
0.00467809
0.00460437
0.00452775
0.00444853
0.0043669
0.004283
0.00419696
0.00410888
0.00401882
0.00392688
0.00383319
0.003738
0.00364141
0.00354354
0.00344452
0.00334451
0.00324371
0.00314241
0.00304081
0.00293911
0.00283758
0.00273651
0.00263618
0.00253686
0.00243886
0.00234247
0.00224796
0.00215562
0.0020657
0.00197845
0.0018941
0.00181285
0.00173486
0.00166029
0.00158926
0.00152186
0.00145815
0.00139815
0.00134187
0.00128929
0.00124033
0.00119492
0.00115296
0.00111432
0.00107886
0.00104644
0.0010169
0.000990095
0.000965852
0.000944015
0.000924426
0.000906929
0.000891371
0.000877606
0.000865492
0.000854892
0.000845679
0.000837729
0.000830926
0.000825161
0.000820332
0.000816341
0.000813099
0.00081052
0.000808526
0.000807044
0.000806005
0.000805345
0.000805007
0.000804935
0.000805082
0.0008054
0.00080585
0.000806394
0.000806999
0.000807636
0.000808278
0.000808903
0.000809492
0.00081003
0.000810501
0.000810897
0.000811208
0.000811428
0.000811551
0.000811574
0.000811492
0.000811302
0.000811002
0.000810598
0.000810105
0.000809532
0.000808883
0.000808163
0.000807379
0.000806536
0.000805642
0.0008047
0.000803717
0.000802698
0.000801649
0.000800573
0.000799475
0.000798359
0.000797228
0.000796084
0.000794932
0.000793772
0.000792606
0.000791436