/*--------------------------------*- C++ -*----------------------------------*\
  =========                 |
  \\      /  F ield         | OpenFOAM: The Open Source CFD Toolbox
   \\    /   O peration     | Website:  https://openfoam.org
    \\  /    A nd           | Version:  7
     \\/     M anipulation  |
\*---------------------------------------------------------------------------*/
FoamFile
{
    version     2.0;
    format      ascii;
    class       volScalarField;
    location    "300";
    object      p;
}
// * * * * * * * * * * * * * * * * * * * * * * * * * * * * * * * * * * * * * //

dimensions      [0 2 -2 0 0 0 0];

internalField   nonuniform List<scalar> 
16900
(
-24.5455
-24.5588
-24.5823
-24.6087
-24.6369
-24.6718
-24.7235
-24.7908
-24.8663
-24.9479
-25.034
-25.1227
-25.2125
-25.3021
-25.3904
-25.4764
-25.5594
-25.6388
-25.7141
-25.7852
-25.8516
-25.9135
-25.9705
-26.023
-26.0708
-26.1142
-26.1533
-26.1885
-26.2198
-26.2476
-26.2722
-26.2938
-26.313
-26.3299
-26.345
-26.3587
-26.3713
-26.3834
-26.3952
-26.4071
-26.4197
-26.4332
-26.448
-26.4645
-26.483
-26.5038
-26.5272
-26.5533
-26.5823
-26.6144
-26.6495
-26.6877
-26.7288
-26.7727
-26.8191
-26.8675
-26.9176
-26.9687
-27.0201
-27.071
-27.1203
-27.1671
-27.21
-27.2478
-27.2789
-27.3017
-27.3144
-27.3153
-27.3024
-27.2736
-27.2269
-27.1602
-27.0714
-26.958
-26.818
-26.6495
-26.4508
-26.2199
-25.9545
-25.6524
-25.3119
-24.932
-24.5118
-24.051
-23.5492
-23.0066
-22.4237
-21.8014
-21.1409
-20.444
-19.7128
-18.9498
-18.1581
-17.3411
-16.5024
-15.6462
-14.7768
-13.8989
-13.0172
-12.1366
-11.2618
-10.3979
-9.5494
-8.72092
-7.9167
-7.14069
-6.39641
-5.68693
-5.01481
-4.38212
-3.79041
-3.24091
-2.73433
-2.27147
-1.8525
-1.47786
-1.14033
-0.833889
-0.563496
-0.331849
-0.136381
0.0258986
0.157904
0.26243
0.342169
0.399707
0.437537
0.458034
0.463459
0.455942
0.437481
0.409927
0.374994
0.334242
0.289093
0.240823
0.190574
0.139353
0.0880421
0.0374036
-0.0119129
-0.05936
-0.10449
-0.146941
-0.186437
-0.222767
-0.255797
-0.285443
-0.311678
-0.334517
-0.354019
-0.37027
-0.383391
-0.393516
-0.400809
-0.405435
-0.407581
-0.40743
-0.405176
-0.401007
-0.395117
-0.387687
-0.378904
-0.368936
-0.357957
-0.34612
-0.33358
-0.320474
-0.30694
-0.293089
-0.27903
-0.264863
-0.250689
-0.236589
-0.222641
-0.208908
-0.19545
-0.182312
-0.16954
-0.157165
-0.145213
-0.133701
-0.122648
-0.112061
-0.10195
-0.0923121
-0.0831469
-0.0744434
-0.0661911
-0.0583712
-0.0509649
-0.0439455
-0.0372865
-0.0309549
-0.0249205
-0.0191522
-0.0136365
-0.0083811
-0.0035142
0.00112138
-24.5297
-24.5446
-24.5563
-24.5678
-24.5875
-24.6257
-24.6812
-24.7464
-24.8195
-24.8992
-24.9835
-25.0709
-25.1598
-25.2487
-25.3365
-25.4222
-25.5051
-25.5846
-25.66
-25.7313
-25.798
-25.8601
-25.9176
-25.9703
-26.0185
-26.0621
-26.1015
-26.1367
-26.1681
-26.1959
-26.2203
-26.2418
-26.2606
-26.2772
-26.2918
-26.3049
-26.3168
-26.328
-26.3389
-26.3499
-26.3614
-26.3738
-26.3875
-26.4029
-26.4202
-26.4398
-26.462
-26.487
-26.5151
-26.5462
-26.5805
-26.618
-26.6587
-26.7023
-26.7485
-26.7971
-26.8475
-26.8993
-26.9516
-27.0037
-27.0546
-27.1033
-27.1485
-27.1888
-27.2228
-27.249
-27.2655
-27.2704
-27.262
-27.2381
-27.1967
-27.1357
-27.0528
-26.9459
-26.8127
-26.6514
-26.4604
-26.2377
-25.9805
-25.6865
-25.3542
-24.9829
-24.5715
-24.1196
-23.627
-23.0936
-22.52
-21.907
-21.2558
-20.568
-19.8457
-19.0915
-18.3083
-17.4993
-16.6682
-15.8191
-14.9563
-14.0843
-13.2078
-12.3316
-11.4605
-10.5995
-9.75304
-8.92579
-8.12195
-7.34543
-6.59968
-5.88787
-5.21264
-4.57642
-3.98104
-3.42802
-2.91732
-2.44867
-2.01919
-1.63007
-1.28228
-0.972576
-0.700759
-0.466096
-0.266431
-0.0991871
0.0382598
0.148511
0.234117
0.297569
0.341278
0.367567
0.378651
0.376629
0.363471
0.341011
0.310948
0.274835
0.23409
0.189986
0.143668
0.0961439
0.0483023
0.000910956
-0.0453716
-0.0899922
-0.132492
-0.172503
-0.209735
-0.243975
-0.275073
-0.302939
-0.327536
-0.348873
-0.366995
-0.381985
-0.393952
-0.403028
-0.409363
-0.413122
-0.41448
-0.413617
-0.410719
-0.405971
-0.399559
-0.391663
-0.38246
-0.372121
-0.360809
-0.348679
-0.335877
-0.322541
-0.308796
-0.294762
-0.280548
-0.266256
-0.251975
-0.237786
-0.223761
-0.209965
-0.196451
-0.183267
-0.170452
-0.158039
-0.146053
-0.134517
-0.123444
-0.112845
-0.102724
-0.0930804
-0.0839099
-0.0752044
-0.0669497
-0.05913
-0.0517225
-0.0447036
-0.0380429
-0.0317099
-0.025669
-0.0198886
-0.0143425
-0.00901506
-0.00396668
0.00141341
-24.5003
-24.5312
-24.5475
-24.5595
-24.5785
-24.6126
-24.6628
-24.7238
-24.7933
-24.8695
-24.9506
-25.0349
-25.121
-25.2074
-25.293
-25.3769
-25.4582
-25.5363
-25.6106
-25.681
-25.747
-25.8085
-25.8654
-25.9178
-25.9656
-26.009
-26.0481
-26.0831
-26.1142
-26.1417
-26.1658
-26.1869
-26.2053
-26.2214
-26.2354
-26.2478
-26.2591
-26.2696
-26.2796
-26.2898
-26.3004
-26.3118
-26.3246
-26.339
-26.3554
-26.3741
-26.3955
-26.4198
-26.4472
-26.4778
-26.5118
-26.5491
-26.5898
-26.6336
-26.6803
-26.7296
-26.7811
-26.8341
-26.8881
-26.9422
-26.9955
-27.0468
-27.0951
-27.139
-27.1769
-27.2073
-27.2285
-27.2386
-27.2357
-27.2177
-27.1826
-27.1283
-27.0525
-26.9529
-26.8274
-26.6742
-26.4916
-26.2775
-26.0287
-25.743
-25.4193
-25.0565
-24.6539
-24.2108
-23.7269
-23.2022
-22.6371
-22.0325
-21.3894
-20.7096
-19.9949
-19.2479
-18.4714
-17.6688
-16.8436
-15.9998
-15.1417
-14.2739
-13.4009
-12.5277
-11.659
-10.7996
-9.9544
-9.12775
-8.32393
-7.54696
-6.80029
-6.08742
-5.41112
-4.77418
-4.17802
-3.62399
-3.11025
-2.63619
-2.20244
-1.8087
-1.45362
-1.13516
-0.854383
-0.610726
-0.402259
-0.226572
-0.0810998
0.0367447
0.129527
0.199756
0.249865
0.282195
0.298981
0.302335
0.294246
0.276562
0.250994
0.21911
0.182338
0.141968
0.0991511
0.0549116
0.0101468
-0.0343632
-0.0779507
-0.120051
-0.160197
-0.19801
-0.233193
-0.265522
-0.294842
-0.321053
-0.344112
-0.36402
-0.380819
-0.394582
-0.405415
-0.413442
-0.418811
-0.42168
-0.42222
-0.420606
-0.417021
-0.411646
-0.404662
-0.396246
-0.386572
-0.375806
-0.364109
-0.351633
-0.338522
-0.32491
-0.310922
-0.296674
-0.282273
-0.267816
-0.253389
-0.239074
-0.22494
-0.211049
-0.197456
-0.184206
-0.171338
-0.158883
-0.146866
-0.135308
-0.12422
-0.113612
-0.103487
-0.0938443
-0.0846787
-0.0759816
-0.067738
-0.0599319
-0.05254
-0.045538
-0.0388947
-0.0325777
-0.0265483
-0.0207674
-0.015193
-0.00977105
-0.00448019
0.00172621
-24.4736
-24.5186
-24.5456
-24.5633
-24.5858
-24.6204
-24.6681
-24.7262
-24.7926
-24.8655
-24.9434
-25.0245
-25.1075
-25.191
-25.2739
-25.3553
-25.4343
-25.5104
-25.583
-25.6518
-25.7163
-25.7766
-25.8324
-25.8838
-25.9307
-25.9732
-26.0115
-26.0458
-26.0761
-26.1029
-26.1263
-26.1466
-26.1642
-26.1795
-26.1927
-26.2043
-26.2147
-26.2243
-26.2335
-26.2428
-26.2525
-26.2632
-26.2752
-26.2888
-26.3046
-26.3228
-26.3437
-26.3677
-26.3949
-26.4255
-26.4597
-26.4974
-26.5386
-26.5833
-26.6311
-26.6818
-26.735
-26.79
-26.8463
-26.9031
-26.9594
-27.0141
-27.0662
-27.1142
-27.1566
-27.1919
-27.2184
-27.2341
-27.2371
-27.2254
-27.1969
-27.1494
-27.0807
-26.9884
-26.8703
-26.7249
-26.5503
-26.3438
-26.1022
-25.8236
-25.507
-25.1514
-24.7558
-24.3196
-23.8424
-23.3242
-22.7654
-22.1666
-21.5291
-20.8543
-20.1442
-19.4013
-18.6284
-17.8289
-17.0062
-16.1644
-15.3077
-14.4408
-13.5681
-12.6947
-11.8255
-10.965
-10.1183
-9.28982
-8.48384
-7.70477
-6.95599
-6.24146
-5.56349
-4.92456
-4.32444
-3.76339
-3.24314
-2.76362
-2.32474
-1.92592
-1.5658
-1.243
-0.957904
-0.709743
-0.496704
-0.316495
-0.166624
-0.0445321
0.0523323
0.12648
0.18035
0.216289
0.236539
0.243219
0.238321
0.223699
0.201069
0.172002
0.137931
0.100146
0.0598058
0.0179352
-0.0245645
-0.0669106
-0.108432
-0.148561
-0.186828
-0.222851
-0.256331
-0.287041
-0.314822
-0.339575
-0.361253
-0.379854
-0.395418
-0.408018
-0.417755
-0.424754
-0.429158
-0.431125
-0.430823
-0.428427
-0.424114
-0.418065
-0.410458
-0.40147
-0.391268
-0.380021
-0.367883
-0.355008
-0.341533
-0.327595
-0.313312
-0.298803
-0.284167
-0.269504
-0.254897
-0.240425
-0.226155
-0.212149
-0.198456
-0.185125
-0.172187
-0.159678
-0.147617
-0.136026
-0.124914
-0.114292
-0.104158
-0.0945167
-0.0853562
-0.0766713
-0.0684432
-0.0606585
-0.0532901
-0.0463165
-0.0397018
-0.0334152
-0.0274108
-0.0216446
-0.0160548
-0.0105543
-0.00505419
0.00175394
-24.4559
-24.5127
-24.5495
-24.5743
-24.6013
-24.6381
-24.6856
-24.7424
-24.8068
-24.8774
-24.9525
-25.0308
-25.1109
-25.1916
-25.2718
-25.3505
-25.4272
-25.501
-25.5715
-25.6383
-25.7011
-25.7597
-25.8141
-25.864
-25.9096
-25.951
-25.9881
-26.0213
-26.0506
-26.0763
-26.0987
-26.118
-26.1346
-26.1489
-26.1611
-26.1718
-26.1812
-26.1899
-26.1982
-26.2067
-26.2157
-26.2257
-26.2371
-26.2503
-26.2657
-26.2837
-26.3046
-26.3287
-26.3562
-26.3873
-26.4222
-26.4609
-26.5033
-26.5495
-26.5991
-26.6518
-26.7073
-26.7651
-26.8244
-26.8844
-26.9444
-27.0031
-27.0595
-27.1121
-27.1596
-27.2002
-27.2322
-27.2538
-27.2629
-27.2575
-27.2355
-27.1947
-27.1327
-27.0472
-26.9362
-26.7978
-26.6303
-26.4303
-26.1946
-25.9219
-25.6113
-25.2615
-24.8716
-24.4408
-23.9688
-23.4555
-22.9012
-22.3066
-21.6727
-21.0012
-20.294
-19.5533
-18.7822
-17.9839
-17.162
-16.3203
-15.4634
-14.5958
-13.722
-12.847
-11.9759
-11.1131
-10.2639
-9.43303
-8.62453
-7.84344
-7.09245
-6.37555
-5.69367
-5.04789
-4.44142
-3.87503
-3.34961
-2.8652
-2.42175
-2.01872
-1.65498
-1.32942
-1.04169
-0.790716
-0.574727
-0.391507
-0.238627
-0.113567
-0.0137963
0.0631859
0.119815
0.158438
0.181297
0.190514
0.18808
0.175852
0.155546
0.128734
0.0968491
0.0611841
0.0228962
-0.0169879
-0.0575664
-0.0980557
-0.137784
-0.176183
-0.212782
-0.247198
-0.279132
-0.308356
-0.334711
-0.358096
-0.378465
-0.395815
-0.410185
-0.421649
-0.430307
-0.436283
-0.439719
-0.440774
-0.439613
-0.436412
-0.431345
-0.424594
-0.416334
-0.406739
-0.395978
-0.384216
-0.371605
-0.358297
-0.344428
-0.330132
-0.315528
-0.300729
-0.285836
-0.270945
-0.256137
-0.24149
-0.227068
-0.212932
-0.199129
-0.185706
-0.172693
-0.160123
-0.148015
-0.136391
-0.125256
-0.114622
-0.104486
-0.0948502
-0.0857029
-0.0770384
-0.0688368
-0.0610848
-0.0537541
-0.046823
-0.0402543
-0.0340158
-0.0280571
-0.0223281
-0.0167526
-0.0112186
-0.00559756
0.00149191
-24.4493
-24.5119
-24.5592
-24.5908
-24.6226
-24.6621
-24.7102
-24.7664
-24.8296
-24.8982
-24.9711
-25.0468
-25.1242
-25.2022
-25.2796
-25.3558
-25.4298
-25.5012
-25.5695
-25.6342
-25.695
-25.7518
-25.8044
-25.8528
-25.8969
-25.9367
-25.9725
-26.0043
-26.0323
-26.0567
-26.0779
-26.096
-26.1114
-26.1244
-26.1355
-26.1451
-26.1535
-26.1612
-26.1686
-26.1763
-26.1846
-26.1939
-26.2049
-26.2178
-26.233
-26.2511
-26.2722
-26.2967
-26.3249
-26.357
-26.393
-26.4332
-26.4773
-26.5255
-26.5774
-26.6327
-26.6912
-26.7521
-26.815
-26.879
-26.9431
-27.0064
-27.0676
-27.1254
-27.1782
-27.2245
-27.2625
-27.2902
-27.3057
-27.3068
-27.2914
-27.2573
-27.2021
-27.1234
-27.0191
-26.8877
-26.7268
-26.5324
-26.302
-26.0347
-25.7294
-25.3848
-24.9999
-24.5738
-24.1063
-23.597
-23.0463
-22.4549
-21.8238
-21.1546
-20.4491
-19.7097
-18.9393
-18.1414
-17.3193
-16.4768
-15.6188
-14.7497
-13.8738
-12.9965
-12.123
-11.2575
-10.4056
-9.57264
-8.76153
-7.97798
-7.22298
-6.49944
-5.81188
-5.1614
-4.55022
-3.97933
-3.44951
-2.9609
-2.51347
-2.10674
-1.73975
-1.41154
-1.12131
-0.867801
-0.649214
-0.463366
-0.307865
-0.180219
-0.0779088
0.00155907
0.0606176
0.101616
0.126796
0.138283
0.138069
0.128013
0.10983
0.0850952
0.0552393
0.0215564
-0.014797
-0.0527934
-0.0915319
-0.130229
-0.168212
-0.204914
-0.239864
-0.27268
-0.303061
-0.330783
-0.355685
-0.377668
-0.396685
-0.412736
-0.425858
-0.436128
-0.443644
-0.448533
-0.450935
-0.451012
-0.448925
-0.444854
-0.438969
-0.431453
-0.422477
-0.412219
-0.400842
-0.388511
-0.375376
-0.36159
-0.347282
-0.33259
-0.317625
-0.302505
-0.287323
-0.272177
-0.257143
-0.2423
-0.227707
-0.213427
-0.199499
-0.185975
-0.172877
-0.160243
-0.148084
-0.136424
-0.125266
-0.114622
-0.104485
-0.0948606
-0.0857316
-0.0770957
-0.0689284
-0.0612199
-0.0539376
-0.0470631
-0.0405545
-0.0343822
-0.0284896
-0.0228248
-0.0172996
-0.0117913
-0.00614959
0.000911652
-24.453
-24.5177
-24.574
-24.6119
-24.6481
-24.69
-24.739
-24.795
-24.8571
-24.9241
-24.9949
-25.0683
-25.1431
-25.2184
-25.2932
-25.3667
-25.4383
-25.5072
-25.5732
-25.6357
-25.6944
-25.7492
-25.8
-25.8466
-25.889
-25.9273
-25.9615
-25.9917
-26.0182
-26.0412
-26.0609
-26.0776
-26.0917
-26.1034
-26.1133
-26.1216
-26.1288
-26.1355
-26.142
-26.1488
-26.1564
-26.1652
-26.1758
-26.1885
-26.2038
-26.222
-26.2436
-26.2689
-26.298
-26.3313
-26.3689
-26.4109
-26.4572
-26.5077
-26.5624
-26.6208
-26.6826
-26.7473
-26.8142
-26.8826
-26.9514
-27.0196
-27.0861
-27.1494
-27.2081
-27.2604
-27.3046
-27.3387
-27.3608
-27.3686
-27.36
-27.3326
-27.2841
-27.2121
-27.1146
-26.9899
-26.8352
-26.6461
-26.4206
-26.1584
-25.858
-25.5182
-25.1378
-24.7161
-24.2524
-23.7466
-23.199
-22.6102
-21.9813
-21.3138
-20.6096
-19.8708
-19.1005
-18.3023
-17.4794
-16.6356
-15.7758
-14.9049
-14.0265
-13.1464
-12.2708
-11.4026
-10.5479
-9.71259
-8.89706
-8.10714
-7.3473
-6.61944
-5.92722
-5.27239
-4.65688
-4.08181
-3.54796
-3.05557
-2.6046
-2.19458
-1.82468
-1.49394
-1.20133
-0.945467
-0.724497
-0.536252
-0.378361
-0.248344
-0.143692
-0.0619149
-0.000580767
0.0426598
0.0700507
0.0837171
0.0856528
0.0777158
0.0616214
0.0389436
0.0111132
-0.0205774
-0.0549723
-0.0910457
-0.127897
-0.164745
-0.200917
-0.235848
-0.269067
-0.300195
-0.328932
-0.355054
-0.378401
-0.398878
-0.416438
-0.431082
-0.44285
-0.451819
-0.458088
-0.461786
-0.463055
-0.462055
-0.458949
-0.453915
-0.447126
-0.438763
-0.428996
-0.418001
-0.405939
-0.392977
-0.37926
-0.36494
-0.350145
-0.33501
-0.319646
-0.304167
-0.288663
-0.273233
-0.257948
-0.242887
-0.228105
-0.213664
-0.1996
-0.185963
-0.172774
-0.160068
-0.147855
-0.136159
-0.124977
-0.114325
-0.104191
-0.0945813
-0.0854769
-0.0768759
-0.0687518
-0.0610959
-0.0538734
-0.0470674
-0.0406337
-0.0345436
-0.0287373
-0.0231622
-0.0177241
-0.0123001
-0.00672889
3.57935e-05
-24.4663
-24.5333
-24.5945
-24.6368
-24.6762
-24.72
-24.7697
-24.8253
-24.8864
-24.9518
-25.0207
-25.0918
-25.1643
-25.237
-25.3093
-25.3803
-25.4494
-25.516
-25.5796
-25.6399
-25.6966
-25.7494
-25.7982
-25.843
-25.8837
-25.9202
-25.9528
-25.9814
-26.0063
-26.0277
-26.0458
-26.061
-26.0736
-26.0839
-26.0923
-26.0993
-26.1054
-26.1109
-26.1164
-26.1223
-26.1292
-26.1376
-26.1479
-26.1605
-26.1759
-26.1946
-26.2169
-26.2431
-26.2735
-26.3083
-26.3477
-26.3918
-26.4406
-26.494
-26.5518
-26.6136
-26.6792
-26.748
-26.8193
-26.8924
-26.9663
-27.0398
-27.1119
-27.1811
-27.2458
-27.3044
-27.3551
-27.3959
-27.4246
-27.4392
-27.4374
-27.4169
-27.3751
-27.3097
-27.2189
-27.1008
-26.9517
-26.7674
-26.5467
-26.2894
-25.9937
-25.6584
-25.2822
-24.8644
-24.4042
-23.9016
-23.3567
-22.7701
-22.1429
-21.4768
-20.7733
-20.0347
-19.2641
-18.4653
-17.6414
-16.7958
-15.9339
-15.0612
-14.1805
-13.2976
-12.4201
-11.5491
-10.6894
-9.84892
-9.02951
-8.23543
-7.47106
-6.73904
-6.0425
-5.38354
-4.76399
-4.18507
-3.64757
-3.15178
-2.69766
-2.28476
-1.91228
-1.57922
-1.28443
-1.0264
-0.803236
-0.612776
-0.452652
-0.320394
-0.213503
-0.129489
-0.0659258
-0.0204625
0.00914126
0.0250115
0.0291384
0.0233798
0.00944715
-0.0110863
-0.0367938
-0.066384
-0.0987046
-0.132731
-0.167566
-0.202429
-0.23665
-0.269667
-0.30101
-0.330302
-0.357245
-0.381618
-0.403263
-0.422087
-0.438043
-0.451139
-0.461411
-0.468943
-0.473832
-0.476213
-0.476224
-0.474031
-0.469794
-0.463695
-0.455901
-0.446599
-0.435952
-0.424141
-0.411319
-0.397657
-0.383293
-0.368383
-0.353047
-0.337423
-0.321614
-0.30574
-0.289881
-0.274138
-0.258575
-0.243276
-0.228285
-0.213668
-0.199455
-0.185697
-0.172408
-0.159627
-0.147356
-0.135622
-0.124417
-0.113759
-0.10363
-0.0940405
-0.0849654
-0.076407
-0.0683331
-0.0607395
-0.0535864
-0.0468612
-0.0405153
-0.0345243
-0.0288242
-0.0233661
-0.0180526
-0.0127711
-0.00734939
-0.00110756
-24.4905
-24.5572
-24.6195
-24.6641
-24.7055
-24.7503
-24.8002
-24.8553
-24.9152
-24.9791
-25.046
-25.115
-25.1851
-25.2555
-25.3254
-25.394
-25.4607
-25.525
-25.5865
-25.6447
-25.6993
-25.7502
-25.7972
-25.8401
-25.879
-25.9138
-25.9446
-25.9715
-25.9947
-26.0145
-26.0309
-26.0445
-26.0555
-26.0642
-26.0712
-26.0768
-26.0816
-26.0859
-26.0904
-26.0955
-26.1018
-26.1097
-26.1197
-26.1324
-26.1481
-26.1674
-26.1905
-26.2179
-26.2497
-26.2864
-26.3279
-26.3744
-26.426
-26.4825
-26.5437
-26.6093
-26.679
-26.7522
-26.8283
-26.9064
-26.9855
-27.0647
-27.1426
-27.2179
-27.2889
-27.354
-27.4113
-27.4588
-27.4943
-27.5157
-27.5208
-27.507
-27.4719
-27.413
-27.3289
-27.2171
-27.0729
-26.893
-26.6772
-26.4245
-26.1333
-25.8022
-25.4299
-25.0157
-24.5588
-24.0589
-23.5163
-22.9316
-22.3059
-21.6409
-20.9379
-20.199
-19.4278
-18.6282
-17.8033
-16.9558
-16.0919
-15.2181
-14.3355
-13.4491
-12.5672
-11.693
-10.8302
-9.98533
-9.16188
-8.3639
-7.59539
-6.85943
-6.15897
-5.49624
-4.87307
-4.29074
-3.75003
-3.25129
-2.79445
-2.37906
-2.00433
-1.66921
-1.37244
-1.11242
-0.887231
-0.694693
-0.532442
-0.398018
-0.288925
-0.202682
-0.136864
-0.0891274
-0.057234
-0.0390634
-0.0326291
-0.0360784
-0.0477041
-0.0659381
-0.0893574
-0.116675
-0.146743
-0.17854
-0.211172
-0.243861
-0.275942
-0.306854
-0.33613
-0.363398
-0.388359
-0.410798
-0.430558
-0.44755
-0.461729
-0.473106
-0.481719
-0.487656
-0.491014
-0.491933
-0.490549
-0.487031
-0.48154
-0.474259
-0.465354
-0.455011
-0.443391
-0.430676
-0.417017
-0.402581
-0.387505
-0.371944
-0.356013
-0.339851
-0.323557
-0.307248
-0.291
-0.274915
-0.259051
-0.24349
-0.228274
-0.213468
-0.199095
-0.185206
-0.171812
-0.15895
-0.14662
-0.134847
-0.12362
-0.112958
-0.102839
-0.0932736
-0.0842344
-0.0757248
-0.0677097
-0.0601868
-0.0531137
-0.0464801
-0.0402353
-0.034358
-0.0287826
-0.0234649
-0.0183082
-0.013218
-0.00800602
-0.0024678
-24.5228
-24.5863
-24.647
-24.6922
-24.7344
-24.7794
-24.8289
-24.8831
-24.9417
-25.004
-25.069
-25.1359
-25.2038
-25.272
-25.3396
-25.406
-25.4705
-25.5327
-25.5921
-25.6484
-25.7011
-25.7501
-25.7953
-25.8365
-25.8736
-25.9066
-25.9357
-25.9609
-25.9824
-26.0003
-26.0151
-26.0269
-26.0362
-26.0433
-26.0487
-26.0529
-26.0563
-26.0595
-26.0629
-26.0672
-26.0728
-26.0804
-26.0903
-26.1031
-26.1192
-26.1392
-26.1634
-26.1921
-26.2256
-26.2643
-26.3082
-26.3574
-26.412
-26.4718
-26.5368
-26.6064
-26.6805
-26.7584
-26.8394
-26.9227
-27.0074
-27.0924
-27.1764
-27.2578
-27.3353
-27.4069
-27.4709
-27.5251
-27.5674
-27.5957
-27.6075
-27.6004
-27.5717
-27.5193
-27.4417
-27.3357
-27.196
-27.0203
-26.8091
-26.5608
-26.2738
-25.9467
-25.5781
-25.1673
-24.7132
-24.2157
-23.6751
-23.0919
-22.4674
-21.8032
-21.1004
-20.3611
-19.5892
-18.7891
-17.964
-17.1154
-16.2491
-15.3723
-14.4876
-13.5991
-12.7138
-11.836
-10.97
-10.1213
-9.29415
-8.49255
-7.72038
-6.98091
-6.27704
-5.61106
-4.98483
-4.39962
-3.85626
-3.35507
-2.89598
-2.47854
-2.10192
-1.76502
-1.4665
-1.2047
-0.977643
-0.783151
-0.618858
-0.482308
-0.371015
-0.282505
-0.214363
-0.164251
-0.129942
-0.109321
-0.100412
-0.101368
-0.110492
-0.12622
-0.147139
-0.171965
-0.199557
-0.228898
-0.259101
-0.28939
-0.319104
-0.347687
-0.374675
-0.399699
-0.422465
-0.44276
-0.460431
-0.475392
-0.487601
-0.497073
-0.503849
-0.50802
-0.509684
-0.508984
-0.506058
-0.501079
-0.494204
-0.485621
-0.47549
-0.464004
-0.451315
-0.43761
-0.42303
-0.407748
-0.391892
-0.375621
-0.359041
-0.342293
-0.32547
-0.308692
-0.292022
-0.275567
-0.259377
-0.243537
-0.228078
-0.21307
-0.198526
-0.184501
-0.170994
-0.15805
-0.145657
-0.133847
-0.122599
-0.111936
-0.101829
-0.0922947
-0.0832964
-0.0748435
-0.0668938
-0.059451
-0.0524664
-0.045936
-0.0398037
-0.0340552
-0.0286219
-0.023468
-0.0184987
-0.0136444
-0.00869028
-0.00400069
-24.5593
-24.618
-24.675
-24.7195
-24.7614
-24.8059
-24.8545
-24.9075
-24.9646
-25.0251
-25.0882
-25.1531
-25.219
-25.2851
-25.3506
-25.415
-25.4776
-25.5378
-25.5954
-25.6498
-25.7008
-25.7481
-25.7916
-25.8311
-25.8665
-25.8978
-25.9251
-25.9486
-25.9682
-25.9844
-25.9973
-26.0074
-26.0149
-26.0203
-26.0241
-26.0267
-26.0288
-26.0307
-26.0331
-26.0366
-26.0416
-26.0488
-26.0586
-26.0717
-26.0884
-26.1092
-26.1346
-26.1649
-26.2003
-26.2412
-26.2877
-26.3398
-26.3977
-26.4611
-26.53
-26.6039
-26.6825
-26.7653
-26.8514
-26.9402
-27.0306
-27.1215
-27.2116
-27.2993
-27.3832
-27.4615
-27.5321
-27.593
-27.6421
-27.677
-27.6954
-27.6948
-27.6724
-27.6264
-27.555
-27.454
-27.3182
-27.1468
-26.9399
-26.6957
-26.4127
-26.0892
-25.7239
-25.3161
-24.8645
-24.3689
-23.8299
-23.2481
-22.6245
-21.9614
-21.2597
-20.5206
-19.7482
-18.947
-18.1207
-17.2715
-16.404
-15.5246
-14.6373
-13.7464
-12.8581
-11.977
-11.1079
-10.256
-9.42557
-8.62083
-7.8456
-7.10321
-6.39655
-5.72798
-5.09931
-4.51187
-3.96645
-3.46339
-3.00259
-2.58356
-2.20545
-1.86711
-1.56711
-1.30374
-1.07499
-0.878677
-0.712424
-0.573786
-0.460287
-0.369463
-0.298913
-0.246311
-0.209441
-0.186203
-0.174631
-0.17289
-0.179293
-0.192288
-0.210468
-0.232561
-0.257432
-0.284071
-0.311594
-0.339236
-0.366337
-0.392347
-0.416807
-0.439352
-0.459691
-0.477617
-0.492978
-0.505697
-0.515731
-0.523102
-0.527851
-0.530075
-0.529873
-0.527394
-0.522773
-0.516189
-0.507797
-0.497787
-0.486317
-0.47358
-0.459726
-0.44494
-0.42936
-0.413158
-0.396459
-0.379419
-0.362137
-0.344755
-0.327364
-0.310078
-0.292956
-0.276104
-0.259565
-0.243427
-0.227712
-0.21249
-0.197768
-0.183598
-0.169976
-0.156946
-0.144492
-0.132645
-0.121378
-0.110718
-0.100629
-0.0911298
-0.0821794
-0.0737895
-0.0659136
-0.058559
-0.0516728
-0.0452551
-0.0392471
-0.0336401
-0.0283639
-0.0233922
-0.0186334
-0.0140477
-0.00938231
-0.00564613
-24.5973
-24.65
-24.702
-24.7445
-24.7853
-24.8287
-24.876
-24.9275
-24.9829
-25.0416
-25.1028
-25.1658
-25.2298
-25.2939
-25.3576
-25.4202
-25.481
-25.5396
-25.5955
-25.6483
-25.6978
-25.7435
-25.7854
-25.8232
-25.857
-25.8866
-25.9122
-25.9338
-25.9517
-25.966
-25.977
-25.9852
-25.9909
-25.9945
-25.9966
-25.9977
-25.9982
-25.9989
-26.0003
-26.0029
-26.0074
-26.0143
-26.0242
-26.0376
-26.0549
-26.0768
-26.1035
-26.1355
-26.173
-26.2163
-26.2656
-26.3209
-26.3822
-26.4494
-26.5224
-26.6008
-26.6841
-26.7719
-26.8634
-26.9577
-27.0539
-27.1507
-27.247
-27.3411
-27.4314
-27.5162
-27.5934
-27.6609
-27.7166
-27.758
-27.7829
-27.7884
-27.7721
-27.7322
-27.6665
-27.5697
-27.4375
-27.2702
-27.0673
-26.827
-26.5475
-26.2272
-25.8649
-25.4599
-25.0112
-24.518
-23.9808
-23.4004
-22.7779
-22.1152
-21.4142
-20.6759
-19.9036
-19.1017
-18.2738
-17.4232
-16.5543
-15.6726
-14.7828
-13.8896
-12.9986
-12.1147
-11.243
-10.3884
-9.55529
-8.74803
-7.97041
-7.22579
-6.51708
-5.84661
-5.21624
-4.62725
-4.08045
-3.57614
-3.11419
-2.69409
-2.31493
-1.97551
-1.67434
-1.40964
-1.1794
-0.981403
-0.81328
-0.672594
-0.556881
-0.463694
-0.390648
-0.335432
-0.295851
-0.269817
-0.255385
-0.250732
-0.254187
-0.26421
-0.279407
-0.298515
-0.320409
-0.344088
-0.368676
-0.393412
-0.417647
-0.440833
-0.462516
-0.482339
-0.500014
-0.515341
-0.52817
-0.53843
-0.54608
-0.55115
-0.553681
-0.553778
-0.551538
-0.547117
-0.540648
-0.532317
-0.522274
-0.510716
-0.497793
-0.483702
-0.468587
-0.452635
-0.435977
-0.418789
-0.401182
-0.383318
-0.36528
-0.347215
-0.329198
-0.311363
-0.293764
-0.276502
-0.259605
-0.24316
-0.227178
-0.211729
-0.196814
-0.182493
-0.168752
-0.155639
-0.143124
-0.131243
-0.11996
-0.109308
-0.0992402
-0.0897826
-0.0808851
-0.0725663
-0.0647703
-0.0575127
-0.0507325
-0.0444379
-0.0385636
-0.0331105
-0.0280052
-0.0232331
-0.0187062
-0.0144176
-0.0100637
-0.00735702
-24.6344
-24.6805
-24.7266
-24.7663
-24.8051
-24.8469
-24.8925
-24.9423
-24.9959
-25.0528
-25.1122
-25.1733
-25.2355
-25.298
-25.36
-25.421
-25.4804
-25.5375
-25.592
-25.6435
-25.6915
-25.7358
-25.7762
-25.8125
-25.8447
-25.8727
-25.8965
-25.9163
-25.9322
-25.9446
-25.9537
-25.9599
-25.9636
-25.9654
-25.9657
-25.9651
-25.9642
-25.9636
-25.9639
-25.9658
-25.9697
-25.9764
-25.9864
-26.0002
-26.0184
-26.0414
-26.0697
-26.1035
-26.1433
-26.1892
-26.2414
-26.3
-26.365
-26.4362
-26.5135
-26.5964
-26.6846
-26.7775
-26.8744
-26.9743
-27.0763
-27.1792
-27.2816
-27.3819
-27.4786
-27.5698
-27.6535
-27.7275
-27.7895
-27.8373
-27.8683
-27.8798
-27.8693
-27.8354
-27.7749
-27.6816
-27.553
-27.3898
-27.191
-26.9544
-26.6783
-26.3612
-26.0018
-25.5994
-25.1533
-24.6625
-24.1274
-23.5485
-22.9271
-22.2649
-21.5638
-20.8255
-20.053
-19.2501
-18.4208
-17.5686
-16.6982
-15.8146
-14.9226
-14.0273
-13.134
-12.2479
-11.3741
-10.5173
-9.68229
-8.87322
-8.09396
-7.34788
-6.63788
-5.96631
-5.33499
-4.7452
-4.19771
-3.6928
-3.2303
-2.80965
-2.4299
-2.08978
-1.78776
-1.522
-1.29048
-1.09095
-0.921064
-0.778386
-0.66047
-0.564887
-0.489273
-0.43134
-0.388913
-0.359926
-0.342454
-0.334692
-0.334989
-0.341817
-0.353799
-0.369684
-0.388358
-0.408831
-0.430235
-0.45182
-0.472939
-0.493057
-0.511723
-0.528587
-0.543365
-0.555866
-0.565942
-0.57353
-0.578591
-0.581163
-0.581288
-0.579077
-0.57463
-0.568107
-0.559641
-0.549422
-0.537599
-0.524371
-0.509885
-0.494341
-0.477876
-0.460679
-0.442872
-0.424621
-0.406012
-0.387228
-0.368373
-0.349595
-0.330949
-0.31256
-0.294469
-0.276779
-0.259507
-0.242742
-0.226487
-0.210813
-0.195709
-0.181239
-0.167376
-0.154168
-0.14158
-0.12966
-0.118364
-0.107725
-0.0976851
-0.0882746
-0.0794377
-0.0711964
-0.0634884
-0.0563352
-0.04967
-0.0435067
-0.0377759
-0.0324866
-0.0275631
-0.0230031
-0.0187209
-0.0147463
-0.010712
-0.00907441
-24.6688
-24.708
-24.7478
-24.7838
-24.8203
-24.8599
-24.9036
-24.9515
-25.0033
-25.0583
-25.1159
-25.1754
-25.236
-25.297
-25.3577
-25.4174
-25.4755
-25.5315
-25.5847
-25.635
-25.6818
-25.7248
-25.7638
-25.7987
-25.8293
-25.8556
-25.8776
-25.8955
-25.9095
-25.9199
-25.9269
-25.931
-25.9328
-25.9325
-25.9309
-25.9286
-25.9261
-25.9241
-25.9233
-25.9243
-25.9277
-25.9342
-25.9444
-25.9587
-25.9778
-26.0021
-26.032
-26.0679
-26.11
-26.1587
-26.2141
-26.2762
-26.345
-26.4204
-26.5022
-26.5899
-26.6831
-26.7813
-26.8837
-26.9893
-27.0972
-27.2062
-27.3148
-27.4215
-27.5245
-27.6221
-27.7122
-27.7925
-27.8609
-27.9148
-27.9518
-27.9691
-27.9645
-27.9363
-27.8802
-27.7902
-27.6653
-27.5063
-27.3113
-27.0784
-26.8057
-26.4918
-26.1352
-25.7351
-25.2909
-24.8018
-24.2681
-23.6904
-23.0698
-22.4078
-21.7064
-20.9676
-20.1945
-19.3908
-18.5601
-17.7064
-16.8345
-15.9491
-15.0553
-14.1583
-13.2633
-12.3755
-11.5001
-10.6419
-9.80568
-8.99555
-8.21544
-7.4687
-6.75822
-6.08634
-5.45486
-4.86501
-4.31754
-3.81269
-3.35024
-2.92957
-2.54969
-2.20927
-1.90672
-1.64018
-1.40758
-1.20669
-1.03514
-0.890536
-0.770434
-0.672432
-0.594193
-0.533452
-0.488064
-0.455983
-0.435311
-0.424264
-0.421212
-0.424644
-0.433203
-0.445648
-0.460883
-0.477925
-0.49592
-0.514125
-0.531904
-0.548727
-0.564153
-0.577837
-0.589503
-0.598967
-0.606084
-0.610801
-0.613082
-0.612972
-0.610514
-0.605829
-0.599014
-0.59024
-0.579635
-0.5674
-0.553673
-0.538667
-0.522516
-0.505433
-0.487536
-0.469004
-0.449921
-0.430492
-0.410839
-0.391138
-0.371458
-0.351945
-0.332639
-0.31367
-0.295062
-0.276924
-0.259259
-0.242164
-0.225623
-0.209716
-0.194418
-0.179797
-0.165814
-0.152524
-0.139878
-0.127929
-0.116615
-0.10598
-0.0959626
-0.0866047
-0.0778336
-0.0696777
-0.0620632
-0.055023
-0.048479
-0.0424555
-0.0368755
-0.0317595
-0.0270273
-0.0226903
-0.0186649
-0.0150184
-0.0113075
-0.0107564
-24.6994
-24.7316
-24.7648
-24.7967
-24.8303
-24.8676
-24.9091
-24.955
-25.0048
-25.0581
-25.114
-25.172
-25.2313
-25.291
-25.3506
-25.4092
-25.4663
-25.5213
-25.5737
-25.6229
-25.6686
-25.7105
-25.7482
-25.7816
-25.8106
-25.8352
-25.8553
-25.8712
-25.8831
-25.8912
-25.896
-25.8979
-25.8974
-25.895
-25.8913
-25.8871
-25.8829
-25.8794
-25.8774
-25.8775
-25.8804
-25.8866
-25.897
-25.9119
-25.932
-25.9576
-25.9894
-26.0275
-26.0723
-26.124
-26.1827
-26.2486
-26.3215
-26.4012
-26.4877
-26.5804
-26.6789
-26.7826
-26.8907
-27.0023
-27.1162
-27.2314
-27.3463
-27.4594
-27.569
-27.673
-27.7695
-27.8562
-27.9308
-27.9909
-28.0337
-28.0567
-28.0578
-28.035
-27.9823
-27.8953
-27.7743
-27.6191
-27.4277
-27.1981
-26.9284
-26.6171
-26.2629
-25.8648
-25.422
-24.9343
-24.4015
-23.8245
-23.2042
-22.5421
-21.8403
-21.1009
-20.327
-19.5222
-18.6903
-17.8353
-16.9619
-16.0751
-15.1799
-14.2815
-13.3853
-12.4965
-11.6201
-10.7613
-9.9245
-9.1141
-8.33393
-7.58735
-6.87721
-6.20583
-5.57495
-4.9858
-4.43905
-3.9349
-3.47307
-3.0529
-2.67333
-2.33298
-2.03023
-1.76316
-1.5297
-1.3276
-1.15452
-1.00806
-0.885805
-0.785384
-0.704487
-0.640879
-0.592444
-0.557166
-0.533173
-0.518704
-0.512154
-0.512032
-0.516998
-0.525829
-0.537442
-0.550869
-0.565265
-0.579899
-0.594143
-0.607479
-0.61947
-0.629784
-0.638148
-0.644388
-0.648364
-0.650033
-0.64936
-0.646401
-0.641201
-0.633889
-0.624562
-0.613399
-0.600529
-0.586156
-0.570418
-0.553533
-0.535632
-0.516917
-0.497459
-0.477455
-0.457046
-0.436445
-0.415735
-0.395083
-0.374542
-0.35426
-0.334266
-0.314691
-0.295546
-0.276943
-0.258874
-0.241436
-0.224602
-0.208457
-0.192961
-0.178187
-0.164084
-0.150712
-0.13801
-0.126036
-0.114719
-0.104106
-0.0941248
-0.0848192
-0.0761084
-0.068035
-0.0605199
-0.0535992
-0.0471844
-0.0413075
-0.0358859
-0.0309505
-0.0264164
-0.022309
-0.0185444
-0.0152297
-0.0118333
-0.0123537
-24.7254
-24.7507
-24.7772
-24.8047
-24.8351
-24.8697
-24.9089
-24.9526
-25.0006
-25.0522
-25.1068
-25.1634
-25.2215
-25.2803
-25.3389
-25.3967
-25.4531
-25.5073
-25.5588
-25.6072
-25.6518
-25.6925
-25.7289
-25.7608
-25.7881
-25.8108
-25.829
-25.8427
-25.8522
-25.8579
-25.8602
-25.8596
-25.8566
-25.8518
-25.8459
-25.8395
-25.8335
-25.8285
-25.8252
-25.8244
-25.8267
-25.8329
-25.8435
-25.8591
-25.8803
-25.9076
-25.9413
-25.9818
-26.0295
-26.0844
-26.1468
-26.2166
-26.2938
-26.3782
-26.4696
-26.5675
-26.6715
-26.7809
-26.8949
-27.0125
-27.1327
-27.2542
-27.3756
-27.4952
-27.6112
-27.7217
-27.8246
-27.9176
-27.9984
-28.0644
-28.1129
-28.1415
-28.1483
-28.1299
-28.0799
-27.9959
-27.8788
-27.7272
-27.5389
-27.3122
-27.0451
-26.736
-26.3837
-25.9871
-25.5455
-25.0586
-24.5264
-23.9496
-23.3293
-22.6669
-21.9644
-21.2243
-20.4495
-19.6436
-18.8104
-17.9542
-17.0797
-16.1918
-15.2955
-14.3962
-13.4993
-12.61
-11.7334
-10.8745
-10.038
-9.22813
-8.44871
-7.70309
-6.99409
-6.32398
-5.69447
-5.10672
-4.56136
-4.05852
-3.59787
-3.17868
-2.79984
-2.45993
-2.15726
-1.88991
-1.65579
-1.45263
-1.27812
-1.12987
-1.0055
-0.902659
-0.819084
-0.752563
-0.70102
-0.662463
-0.635056
-0.61706
-0.606899
-0.603099
-0.604344