/*--------------------------------*- C++ -*----------------------------------*\
  =========                 |
  \\      /  F ield         | OpenFOAM: The Open Source CFD Toolbox
   \\    /   O peration     | Website:  https://openfoam.org
    \\  /    A nd           | Version:  7
     \\/     M anipulation  |
\*---------------------------------------------------------------------------*/
FoamFile
{
    version     2.0;
    format      ascii;
    class       surfaceScalarField;
    location    "300";
    object      phi;
}
// * * * * * * * * * * * * * * * * * * * * * * * * * * * * * * * * * * * * * //

dimensions      [0 3 -1 0 0 0 0];

internalField   nonuniform List<scalar> 
33502
(
3.3198e-08
-3.31582e-08
6.08726e-09
2.70837e-08
-6.82472e-08
7.43623e-08
-1.72973e-07
1.04705e-07
-3.0281e-07
1.29849e-07
-4.40631e-07
1.37802e-07
-5.74337e-07
1.33708e-07
-7.0694e-07
1.32595e-07
-8.36492e-07
1.29546e-07
-9.61855e-07
1.25371e-07
-1.08247e-06
1.20609e-07
-1.19803e-06
1.15562e-07
-1.30845e-06
1.10425e-07
-1.41378e-06
1.05322e-07
-1.51413e-06
1.00352e-07
-1.60973e-06
9.55659e-08
-1.70073e-06
9.10202e-08
-1.78749e-06
8.67222e-08
-1.87016e-06
8.27077e-08
-1.94915e-06
7.89518e-08
-2.0246e-06
7.54877e-08
-2.09692e-06
7.22732e-08
-2.16623e-06
6.93388e-08
-2.2329e-06
6.66389e-08
-2.29706e-06
6.42004e-08
-2.35903e-06
6.19761e-08
-2.419e-06
5.99824e-08
-2.4772e-06
5.81969e-08
-2.53382e-06
5.66175e-08
-2.58906e-06
5.52374e-08
-2.64311e-06
5.40509e-08
-2.69616e-06
5.30514e-08
-2.74839e-06
5.2234e-08
-2.79998e-06
5.15933e-08
-2.85111e-06
5.11255e-08
-2.90193e-06
5.08252e-08
-2.95262e-06
5.06885e-08
-3.00332e-06
5.07091e-08
-3.05421e-06
5.08822e-08
-3.1054e-06
5.11997e-08
-3.15706e-06
5.16548e-08
-3.20929e-06
5.22375e-08
-3.26223e-06
5.29384e-08
-3.31598e-06
5.37451e-08
-3.37062e-06
5.46456e-08
-3.42625e-06
5.56246e-08
-3.48292e-06
5.66679e-08
-3.54068e-06
5.77574e-08
-3.59956e-06
5.88766e-08
-3.65957e-06
6.00051e-08
-3.72069e-06
6.11241e-08
-3.78291e-06
6.22118e-08
-3.84617e-06
6.32475e-08
-3.91038e-06
6.42081e-08
-3.97546e-06
6.50719e-08
-4.04128e-06
6.58148e-08
-4.10771e-06
6.64146e-08
-4.17456e-06
6.68472e-08
-4.24166e-06
6.70901e-08
-4.30879e-06
6.712e-08
-4.37572e-06
6.6915e-08
-4.44218e-06
6.64529e-08
-4.50791e-06
6.57134e-08
-4.57259e-06
6.46761e-08
-4.63593e-06
6.33226e-08
-4.69758e-06
6.16358e-08
-4.75719e-06
5.96006e-08
-4.8144e-06
5.72037e-08
-4.86884e-06
5.44328e-08
-4.92013e-06
5.12778e-08
-4.96787e-06
4.77309e-08
-5.01167e-06
4.37886e-08
-5.05112e-06
3.94496e-08
-5.08585e-06
3.47141e-08
-5.11543e-06
2.95791e-08
-5.13948e-06
2.40417e-08
-5.15758e-06
1.81022e-08
-5.16935e-06
1.17729e-08
-5.17442e-06
5.0619e-09
-5.1724e-06
-2.01634e-09
-5.16301e-06
-9.38978e-09
-5.146e-06
-1.7013e-08
-5.1211e-06
-2.48974e-08
-5.08806e-06
-3.30289e-08
-5.04667e-06
-4.13867e-08
-4.99672e-06
-4.9944e-08
-4.93804e-06
-5.86702e-08
-4.8705e-06
-6.75308e-08
-4.794e-06
-7.64878e-08
-4.70849e-06
-8.55007e-08
-4.61395e-06
-9.45251e-08
-4.51043e-06
-1.03513e-07
-4.398e-06
-1.12415e-07
-4.27681e-06
-1.2118e-07
-4.14704e-06
-1.29758e-07
-4.00894e-06
-1.38096e-07
-3.86279e-06
-1.46139e-07
-3.70894e-06
-1.5384e-07
-3.54778e-06
-1.6115e-07
-3.37976e-06
-1.6802e-07
-3.20534e-06
-1.74405e-07
-3.02506e-06
-1.80275e-07
-2.83947e-06
-1.85584e-07
-2.64915e-06
-1.9031e-07
-2.45471e-06
-1.94435e-07
-2.25678e-06
-1.9793e-07
-2.05595e-06
-2.0082e-07
-1.85288e-06
-2.03075e-07
-1.64813e-06
-2.04752e-07
-1.44228e-06
-2.05859e-07
-1.23578e-06
-2.06507e-07
-1.02913e-06
-2.06673e-07
-8.22517e-07
-2.06633e-07
-6.16521e-07
-2.06001e-07
-4.10707e-07
-2.05811e-07
-2.02587e-07
-2.08121e-07
5.7731e-09
-2.08364e-07
2.09883e-07
-2.04092e-07
4.07547e-07
-1.97622e-07
5.98163e-07
-1.9056e-07
7.81769e-07
-1.83549e-07
9.58429e-07
-1.76617e-07
1.12819e-06
-1.69726e-07
1.29105e-06
-1.62851e-07
1.44704e-06
-1.55979e-07
1.59615e-06
-1.49116e-07
1.73842e-06
-1.42273e-07
1.87388e-06
-1.3547e-07
2.0026e-06
-1.28725e-07
2.12464e-06
-1.22061e-07
2.24012e-06
-1.15496e-07
2.34915e-06
-1.09049e-07
2.45187e-06
-1.02737e-07
2.54843e-06
-9.65758e-08
2.63899e-06
-9.05778e-08
2.72373e-06
-8.47549e-08
2.80283e-06
-7.91173e-08
2.87649e-06
-7.36727e-08
2.9449e-06
-6.84288e-08
3.00828e-06
-6.33902e-08
3.06683e-06
-5.85624e-08
3.12076e-06
-5.39471e-08
3.1703e-06
-4.9548e-08
3.21566e-06
-4.53646e-08
3.25705e-06
-4.13987e-08
3.29469e-06
-3.76478e-08
3.32879e-06
-3.41124e-08
3.35957e-06
-3.0788e-08
3.38724e-06
-2.7674e-08
3.412e-06
-2.47642e-08
3.43405e-06
-2.20567e-08
3.4536e-06
-1.95438e-08
3.47082e-06
-1.72228e-08
3.4859e-06
-1.50848e-08
3.49903e-06
-1.31261e-08
3.51036e-06
-1.13368e-08
3.52008e-06
-9.71258e-09
3.52832e-06
-8.24283e-09
3.53524e-06
-6.9228e-09
3.54099e-06
-5.7415e-09
3.54568e-06
-4.69396e-09
3.54945e-06
-3.76904e-09
3.55242e-06
-2.96177e-09
3.55468e-06
-2.2611e-09
3.55635e-06
-1.66225e-09
3.5575e-06
-1.15446e-09
3.55824e-06
-7.33439e-10
3.55863e-06
-3.89554e-10
3.55876e-06
-1.22912e-10
3.55868e-06
7.68713e-11
3.55846e-06
2.21452e-10
3.55814e-06
3.23819e-10
3.55776e-06
3.85728e-10
3.55735e-06
4.14372e-10
3.55694e-06
4.10886e-10
3.55656e-06
3.82172e-10
3.55623e-06
3.29075e-10
3.55598e-06
2.57948e-10
3.55581e-06
1.6798e-10
3.55575e-06
6.03115e-11
3.55582e-06
-6.34668e-11
3.55601e-06
-1.91288e-10
3.55634e-06
-3.2195e-10
3.55679e-06
-4.50174e-10
3.55736e-06
-5.76585e-10
3.55806e-06
-6.96491e-10
3.55887e-06
-8.10857e-10
3.55979e-06
-9.15347e-10
3.5608e-06
-1.01117e-09
3.5619e-06
-1.09426e-09
3.56306e-06
-1.16609e-09
3.56428e-06
-1.223e-09
3.56555e-06
-1.26718e-09
3.56684e-06
-1.29628e-09
3.56815e-06
-1.31561e-09
3.56948e-06
-1.32949e-09
3.57083e-06
-1.35889e-09
3.57227e-06
-1.44754e-09
3.57398e-06
-1.71981e-09
-2.54566e-09
-2.24475e-08
-1.07083e-08
-8.26036e-08
8.72368e-08
-1.70867e-07
1.62626e-07
-2.77898e-07
2.11743e-07
-3.9111e-07
2.43057e-07
-5.1045e-07
2.57149e-07
-6.32916e-07
2.56169e-07
-7.52565e-07
2.52247e-07
-8.69083e-07
2.4606e-07
-9.81976e-07
2.38263e-07
-1.09085e-06
2.2947e-07
-1.19542e-06
2.20137e-07
-1.2956e-06
2.10588e-07
-1.39135e-06
2.01074e-07
-1.48277e-06
1.91763e-07
-1.56999e-06
1.82784e-07
-1.65318e-06
1.74218e-07
-1.73258e-06
1.66116e-07
-1.80838e-06
1.58512e-07
-1.88083e-06
1.51413e-07
-1.95017e-06
1.44825e-07
-2.01663e-06
1.38736e-07
-2.08044e-06
1.33139e-07
-2.14181e-06
1.28015e-07
-2.20096e-06
1.23345e-07
-2.25809e-06
1.19118e-07
-2.31341e-06
1.15302e-07
-2.3671e-06
1.1189e-07
-2.41935e-06
1.08866e-07
-2.47033e-06
1.06219e-07
-2.52022e-06
1.03936e-07
-2.56917e-06
1.02007e-07
-2.61736e-06
1.00421e-07
-2.66494e-06
9.91703e-08
-2.71205e-06
9.8245e-08
-2.75887e-06
9.76378e-08
-2.80552e-06
9.73384e-08
-2.85214e-06
9.73384e-08
-2.89889e-06
9.76254e-08
-2.94587e-06
9.81879e-08
-2.99323e-06
9.90101e-08
-3.04106e-06
1.00076e-07
-3.08949e-06
1.01367e-07
-3.13861e-06
1.02861e-07
-3.18849e-06
1.04533e-07
-3.23923e-06
1.06358e-07
-3.29087e-06
1.08305e-07
-3.34345e-06
1.10344e-07
-3.39702e-06
1.1244e-07
-3.45157e-06
1.14557e-07
-3.50711e-06
1.16656e-07
-3.56359e-06
1.18697e-07
-3.62099e-06
1.20637e-07
-3.67922e-06
1.22434e-07
-3.73819e-06
1.24043e-07
-3.7978e-06
1.25418e-07
-3.8579e-06
1.26513e-07
-3.91834e-06
1.27283e-07
-3.97894e-06
1.27681e-07
-4.03949e-06
1.27663e-07
-4.09976e-06
1.27181e-07
-4.15951e-06
1.26195e-07
-4.21847e-06
1.24661e-07
-4.27634e-06
1.22541e-07
-4.33282e-06
1.19796e-07
-4.38758e-06
1.16392e-07
-4.44029e-06
1.12299e-07
-4.49058e-06
1.07489e-07
-4.53809e-06
1.01939e-07
-4.58245e-06
9.56296e-08
-4.62327e-06
8.85448e-08
-4.66016e-06
8.06759e-08
-4.69274e-06
7.20197e-08
-4.72061e-06
6.25758e-08
-4.74337e-06
5.23435e-08
-4.76066e-06
4.13196e-08
-4.77206e-06
2.95061e-08
-4.77721e-06
1.69228e-08
-4.77572e-06
3.57044e-09
-4.76732e-06
-1.04217e-08
-4.75178e-06
-2.4924e-08
-4.72884e-06
-3.99544e-08
-4.69824e-06
-5.54985e-08
-4.65974e-06
-7.15242e-08
-4.61313e-06
-8.79882e-08
-4.55824e-06
-1.04838e-07
-4.49489e-06
-1.22012e-07
-4.42297e-06
-1.39443e-07
-4.3424e-06
-1.57057e-07
-4.25312e-06
-1.74773e-07
-4.15513e-06
-1.92507e-07
-4.04847e-06
-2.10163e-07
-3.93324e-06
-2.27643e-07
-3.80956e-06
-2.4485e-07
-3.67763e-06
-2.61687e-07
-3.53767e-06
-2.78051e-07
-3.38997e-06
-2.93833e-07
-3.23486e-06
-3.0894e-07
-3.07272e-06
-3.23286e-07
-2.90397e-06
-3.36765e-07
-2.72908e-06
-3.49299e-07
-2.54852e-06
-3.6083e-07
-2.36283e-06
-3.7127e-07
-2.17256e-06
-3.80575e-07
-1.97826e-06
-3.88733e-07
-1.78052e-06
-3.95672e-07
-1.57987e-06
-4.01469e-07
-1.37687e-06
-4.06068e-07
-1.17205e-06
-4.09577e-07
-9.65874e-07
-4.12042e-07
-7.5876e-07
-4.1363e-07
-5.50962e-07
-4.14482e-07
-3.42655e-07
-4.14949e-07
-1.32642e-07
-4.16016e-07
7.7035e-08
-4.15487e-07
2.81696e-07
-4.12784e-07
4.80522e-07
-4.07193e-07
6.73761e-07
-3.97328e-07
8.61558e-07
-3.85407e-07
1.04394e-06
-3.72927e-07
1.22064e-06
-3.6023e-07
1.39143e-06
-3.47385e-07
1.55612e-06
-3.34407e-07
1.71459e-06
-3.21312e-07
1.86674e-06
-3.08129e-07
2.01252e-06
-2.94896e-07
2.15191e-06
-2.81662e-07
2.2849e-06
-2.68472e-07
2.41155e-06
-2.55376e-07
2.5319e-06
-2.42419e-07
2.64604e-06
-2.29645e-07
2.75407e-06
-2.17093e-07
2.85612e-06
-2.04798e-07
2.95233e-06
-1.92791e-07
3.04284e-06
-1.81098e-07
3.12782e-06
-1.69744e-07
3.20744e-06
-1.58748e-07
3.28188e-06
-1.48126e-07
3.35134e-06
-1.37893e-07
3.416e-06
-1.28059e-07
3.47606e-06
-1.18633e-07
3.53173e-06
-1.0962e-07
3.5832e-06
-1.01025e-07
3.63068e-06
-9.28493e-08
3.67437e-06
-8.50931e-08
3.71447e-06
-7.77554e-08
3.75119e-06
-7.08323e-08
3.78471e-06
-6.43199e-08
3.81525e-06
-5.82114e-08
3.84298e-06
-5.25001e-08
3.8681e-06
-4.71765e-08
3.89079e-06
-4.22318e-08
3.91122e-06
-3.76541e-08
3.92957e-06
-3.34326e-08
3.94599e-06
-2.95535e-08
3.96066e-06
-2.60044e-08
3.97372e-06
-2.27703e-08
3.98532e-06
-1.98374e-08
3.99559e-06
-1.71901e-08
4.00466e-06
-1.48139e-08
4.01266e-06
-1.26927e-08
4.01971e-06
-1.0812e-08
4.0259e-06
-9.15556e-09
4.03135e-06
-7.70914e-09
4.03615e-06
-6.45701e-09
4.04038e-06
-5.38526e-09
4.04413e-06
-4.47893e-09
4.04747e-06
-3.72489e-09
4.05046e-06
-3.10881e-09
4.05315e-06
-2.61825e-09
4.05562e-06
-2.2398e-09
4.05791e-06
-1.96118e-09
4.06006e-06
-1.76979e-09
4.06214e-06
-1.65533e-09
4.06416e-06
-1.60724e-09
4.06616e-06
-1.61675e-09
4.06817e-06
-1.67478e-09
4.0702e-06
-1.77397e-09
4.07228e-06
-1.90678e-09
4.07441e-06
-2.06665e-09
4.07659e-06
-2.24685e-09
4.07884e-06
-2.44179e-09
4.08117e-06
-2.6451e-09
4.08357e-06
-2.85181e-09
4.08605e-06
-3.05696e-09
4.08861e-06
-3.25664e-09
4.09125e-06
-3.44682e-09
4.09396e-06
-3.62424e-09
4.09674e-06
-3.78557e-09
4.09957e-06
-3.92803e-09
4.10246e-06
-4.04887e-09
4.10538e-06
-4.14604e-09
4.10833e-06
-4.21799e-09
4.1113e-06
-4.26489e-09
4.11427e-06
-4.28999e-09
4.11724e-06
-4.30375e-09
4.12021e-06
-4.33211e-09
4.12319e-06
-4.43618e-09
4.12623e-06
-4.7638e-09
-5.58246e-09
-6.38769e-08
5.31609e-08
-1.44569e-07
1.67924e-07
-2.37566e-07
2.55632e-07
-3.37322e-07
3.11498e-07
-4.38678e-07
3.44424e-07
-5.40784e-07
3.59256e-07
-6.45434e-07
3.60823e-07
-7.49384e-07
3.56195e-07
-8.5128e-07
3.47953e-07
-9.50415e-07
3.37391e-07
-1.04634e-06
3.25387e-07
-1.13877e-06
3.12563e-07
-1.22758e-06
2.99388e-07
-1.31271e-06
2.862e-07
-1.3942e-06
2.7325e-07
-1.47213e-06
2.60715e-07
-1.54663e-06
2.48721e-07
-1.61785e-06
2.37347e-07
-1.68598e-06
2.26641e-07
-1.75119e-06
2.16625e-07
-1.81366e-06
2.07309e-07
-1.87361e-06
1.98683e-07
-1.93121e-06
1.90736e-07
-1.98664e-06
1.83446e-07
-2.04009e-06
1.76796e-07
-2.09172e-06
1.7075e-07
-2.14171e-06
1.65296e-07
-2.19023e-06
1.60406e-07
-2.23743e-06
1.56063e-07
-2.28346e-06
1.52249e-07
-2.32847e-06
1.48948e-07
-2.37261e-06
1.46146e-07
-2.41602e-06
1.43829e-07
-2.45883e-06
1.41986e-07
-2.50119e-06
1.40604e-07
-2.54322e-06
1.39671e-07
-2.58506e-06
1.39176e-07
-2.62683e-06
1.39105e-07
-2.66864e-06
1.39442e-07
-2.71062e-06
1.40171e-07
-2.75288e-06
1.4127e-07
-2.79552e-06
1.42717e-07
-2.83864e-06
1.44485e-07
-2.88232e-06
1.46544e-07
-2.92665e-06
1.48861e-07
-2.97169e-06
1.51398e-07
-3.0175e-06
1.54114e-07
-3.06412e-06
1.56963e-07
-3.11158e-06
1.59899e-07
-3.15989e-06
1.62868e-07
-3.20905e-06
1.65816e-07
-3.25904e-06
1.68684e-07
-3.30982e-06
1.71413e-07
-3.36133e-06
1.7394e-07
-3.41349e-06
1.76199e-07
-3.4662e-06
1.78126e-07
-3.51934e-06
1.79652e-07
-3.57278e-06
1.8071e-07
-3.62633e-06
1.81233e-07
-3.67983e-06
1.81153e-07
-3.73305e-06
1.80404e-07
-3.78579e-06
1.78922e-07
-3.83777e-06
1.76644e-07
-3.88875e-06
1.7351e-07
-3.93842e-06
1.69465e-07
-3.98649e-06
1.64457e-07
-4.03264e-06
1.58438e-07
-4.07652e-06
1.51369e-07
-4.1178e-06
1.43211e-07
-4.15611e-06
1.33936e-07
-4.19109e-06
1.2352e-07
-4.22237e-06
1.11947e-07
-4.24956e-06
9.921e-08
-4.27229e-06
8.53073e-08
-4.29019e-06
7.02394e-08
-4.30288e-06
5.40051e-08
-4.30999e-06
3.66089e-08
-4.31115e-06
1.80833e-08
-4.30607e-06
-1.50277e-09
-4.29451e-06
-2.19892e-08
-4.27617e-06
-4.32627e-08
-4.2508e-06
-6.53205e-08
-4.21816e-06
-8.81375e-08
-4.17801e-06
-1.11666e-07
-4.13016e-06
-1.35842e-07
-4.0744e-06
-1.60588e-07
-4.0106e-06
-1.85812e-07
-3.93862e-06
-2.11416e-07
-3.85838e-06
-2.37289e-07
-3.76983e-06
-2.63314e-07
-3.67297e-06
-2.89368e-07
-3.56781e-06
-3.15309e-07
-3.45446e-06
-3.40993e-07
-3.33303e-06
-3.66274e-07
-3.2037e-06
-3.91015e-07
-3.06668e-06
-4.15065e-07
-2.92224e-06
-4.38259e-07
-2.77072e-06
-4.60463e-07
-2.61244e-06
-4.81557e-07
-2.44782e-06
-5.01383e-07
-2.2773e-06
-5.19815e-07
-2.10133e-06
-5.36798e-07
-1.92041e-06
-5.52187e-07
-1.73507e-06
-5.65908e-07
-1.54581e-06
-5.77993e-07
-1.35318e-06
-5.88297e-07
-1.15768e-06
-5.9697e-07
-9.59797e-07
-6.03948e-07
-7.60038e-07
-6.09336e-07
-5.58749e-07
-6.13333e-07
-3.56369e-07
-6.16015e-07
-1.5265e-07
-6.18208e-07
5.12373e-08
-6.18841e-07
2.52162e-07
-6.16941e-07
4.48972e-07
-6.12296e-07
6.41138e-07
-6.04949e-07
8.28412e-07
-5.94468e-07
1.01143e-06
-5.80343e-07
1.19009e-06
-5.64057e-07
1.36389e-06
-5.46718e-07
1.53243e-06
-5.2875e-07
1.69539e-06
-5.10331e-07
1.85256e-06
-4.91562e-07
2.00378e-06
-4.72523e-07
2.14895e-06
-4.53295e-07
2.28801e-06
-4.33959e-07
2.42095e-06
-4.14597e-07
2.54776e-06
-3.95289e-07
2.6685e-06
-3.76111e-07
2.78321e-06
-3.57136e-07
2.89198e-06
-3.38427e-07
2.99493e-06
-3.20045e-07
3.09216e-06
-3.0204e-07
3.18383e-06
-2.8446e-07
3.27006e-06
-2.67344e-07
3.35104e-06
-2.50726e-07
3.42692e-06
-2.34636e-07
3.49788e-06
-2.19097e-07
3.56411e-06
-2.0413e-07
3.62579e-06
-1.8975e-07
3.68312e-06
-1.75968e-07
3.73629e-06
-1.62794e-07
3.78549e-06
-1.50233e-07
3.83092e-06
-1.38286e-07
3.87278e-06
-1.26956e-07
3.91125e-06
-1.16237e-07
3.94654e-06
-1.06126e-07
3.97883e-06
-9.6615e-08
4.00831e-06
-8.76951e-08
4.03516e-06
-7.93541e-08
4.05956e-06
-7.15801e-08
4.08169e-06
-6.43572e-08
4.1017e-06
-5.76704e-08
4.11977e-06
-5.15008e-08
4.13604e-06
-4.58309e-08
4.15068e-06
-4.06393e-08
4.16381e-06
-3.59068e-08
4.17559e-06
-3.16105e-08
4.18613e-06
-2.77298e-08
4.19555e-06
-2.42411e-08
4.20399e-06
-2.11236e-08
4.21153e-06
-1.83532e-08
4.21828e-06
-1.59094e-08
4.22434e-06
-1.37685e-08
4.2298e-06
-1.19105e-08
4.23473e-06
-1.03126e-08
4.2392e-06
-8.95564e-09
4.2433e-06
-7.81794e-09
4.24707e-06
-6.88132e-09
4.25058e-06
-6.12511e-09
4.25387e-06
-5.53295e-09
4.257e-06
-5.08561e-09
4.26e-06
-4.7681e-09
4.26291e-06
-4.56305e-09
4.26576e-06
-4.45761e-09
4.26858e-06
-4.43641e-09
4.27139e-06
-4.48861e-09
4.27422e-06
-4.60082e-09
4.27708e-06
-4.76403e-09
4.27998e-06
-4.96616e-09
4.28293e-06
-5.19972e-09
4.28595e-06
-5.45442e-09
4.28903e-06
-5.72408e-09
4.29217e-06
-5.99953e-09
4.29539e-06
-6.27604e-09
4.29868e-06
-6.54572e-09
4.30204e-06
-6.80497e-09
4.30546e-06
-7.0469e-09
4.30895e-06
-7.26874e-09
4.31248e-06
-7.46429e-09
4.31606e-06
-7.63156e-09
4.31968e-06
-7.76521e-09
4.32333e-06
-7.86462e-09
4.32699e-06
-7.92697e-09
4.33065e-06
-7.95688e-09
4.3343e-06
-7.96246e-09
4.33794e-06
-7.97082e-09
4.34153e-06
-8.03605e-09
4.34504e-06
-8.2781e-09
-8.79714e-09
-8.56673e-08
1.3882e-07
-1.80448e-07
2.62706e-07
-2.71694e-07
3.46878e-07
-3.62063e-07
4.01877e-07
-4.52026e-07
4.34389e-07
-5.42026e-07
4.49258e-07
-6.32828e-07
4.51624e-07
-7.2314e-07
4.46504e-07
-8.11936e-07
4.36744e-07
-8.98566e-07
4.24015e-07
-9.82614e-07
4.09423e-07
-1.06381e-06
3.93758e-07
-1.14202e-06
3.77588e-07
-1.21717e-06
3.61343e-07
-1.28926e-06
3.45337e-07
-1.35833e-06
3.29795e-07
-1.42448e-06
3.1488e-07
-1.48783e-06
3.00693e-07
-1.54849e-06
2.87307e-07
-1.60661e-06
2.74754e-07
-1.66235e-06
2.63048e-07
-1.71585e-06
2.52186e-07
-1.76727e-06
2.42157e-07
-1.81676e-06
2.32938e-07
-1.86447e-06
2.24502e-07
-1.91055e-06
2.16829e-07
-1.95513e-06
2.09881e-07
-1.99837e-06
2.03639e-07
-2.04039e-06
1.9808e-07
-2.08132e-06
1.93183e-07
-2.1213e-06
1.88929e-07
-2.16045e-06
1.853e-07
-2.19891e-06
1.82282e-07
-2.23678e-06
1.79859e-07
-2.27419e-06
1.78018e-07
-2.31127e-06
1.76745e-07
-2.34811e-06
1.76025e-07
-2.38485e-06
1.75841e-07
-2.42158e-06
1.76176e-07
-2.45842e-06
1.77007e-07
-2.49546e-06
1.7831e-07
-2.5328e-06
1.80056e-07
-2.57052e-06
1.82213e-07
-2.60872e-06
1.84743e-07
-2.64746e-06
1.87603e-07
-2.68681e-06
1.90748e-07
-2.72683e-06
1.94126e-07
-2.76754e-06
1.9768e-07
-2.80899e-06
2.01349e-07
-2.85119e-06
2.05067e-07
-2.89414e-06
2.08764e-07
-2.93783e-06
2.12368e-07
-2.98222e-06
2.158e-07
-3.02726e-06
2.1898e-07
-3.07289e-06
2.21826e-07
-3.11902e-06
2.24251e-07
-3.16554e-06
2.2617e-07
-3.21232e-06
2.27494e-07
-3.25923e-06
2.28135e-07
-3.30608e-06
2.28005e-07
-3.3527e-06
2.27018e-07
-3.39887e-06
2.25088e-07
-3.44436e-06
2.22134e-07
-3.48893e-06
2.18076e-07
-3.53231e-06
2.1284e-07
-3.57421e-06
2.06356e-07
-3.61434e-06
1.98562e-07
-3.65238e-06
1.89401e-07
-3.68799e-06
1.78823e-07
-3.72085e-06
1.66788e-07
-3.75059e-06
1.53263e-07
-3.77688e-06
1.38225e-07
-3.79933e-06
1.21662e-07
-3.8176e-06
1.03571e-07
-3.83131e-06
8.39539e-08
-3.84012e-06
6.28107e-08
-3.84367e-06
4.01523e-08
-3.8416e-06
1.60152e-08
-3.83365e-06
-9.45179e-09
-3.81959e-06
-3.60499e-08
-3.79915e-06
-6.37085e-08
-3.77206e-06
-9.24101e-08
-3.73808e-06
-1.22115e-07
-3.69698e-06
-1.5276e-07
-3.64856e-06
-1.84261e-07
-3.59263e-06
-2.16514e-07
-3.52904e-06
-2.494e-07
-3.45767e-06
-2.82786e-07
-3.37842e-06
-3.16532e-07
-3.29125e-06
-3.50484e-07
-3.19613e-06
-3.84481e-07
-3.09309e-06
-4.18339e-07
-2.98222e-06
-4.51863e-07
-2.86363e-06
-4.84864e-07
-2.73747e-06
-5.17169e-07
-2.60395e-06
-5.48582e-07
-2.46333e-06
-5.78877e-07
-2.31591e-06
-6.07876e-07
-2.16202e-06
-6.35448e-07
-2.00203e-06
-6.61372e-07
-1.83638e-06
-6.85462e-07
-1.66548e-06
-7.07695e-07
-1.4898e-06
-7.27871e-07
-1.30986e-06
-7.45837e-07
-1.1261e-06
-7.61751e-07
-9.39054e-07
-7.75348e-07
-7.49194e-07
-7.86831e-07
-5.56919e-07
-7.96224e-07
-3.6278e-07
-8.03477e-07
-1.66832e-07
-8.09285e-07
3.01126e-08
-8.12964e-07
2.2563e-07
-8.13732e-07
4.18329e-07
-8.11544e-07
6.07728e-07
-8.06341e-07
7.93414e-07
-7.97981e-07
9.74951e-07
-7.86487e-07
1.15219e-06
-7.71709e-07
1.32546e-06
-7.53616e-07
1.49459e-06
-7.33178e-07
1.65911e-06
-7.11233e-07
1.81862e-06
-6.88254e-07
1.97281e-06
-6.64512e-07
2.12145e-06
-6.40195e-07
2.26438e-06
-6.15451e-07
2.4015e-06
-5.90416e-07
2.53276e-06
-5.65216e-07
2.65813e-06
-5.3997e-07
2.77763e-06
-5.14791e-07
2.8913e-06
-4.89782e-07
2.9992e-06
-4.6504e-07
3.10142e-06
-4.40652e-07
3.19806e-06
-4.16695e-07
3.28926e-06
-3.93238e-07
3.37513e-06
-3.7034e-07
3.45584e-06
-3.48054e-07
3.53153e-06
-3.26425e-07
3.60238e-06
-3.05489e-07
3.66855e-06
-2.85278e-07
3.73023e-06
-2.65817e-07
3.7876e-06
-2.47126e-07
3.84085e-06
-2.2922e-07
3.89016e-06
-2.1211e-07
3.93573e-06
-1.95802e-07
3.97774e-06
-1.803e-07
4.01638e-06
-1.65602e-07
4.05185e-06
-1.51704e-07
4.08432e-06
-1.38599e-07
4.11398e-06
-1.26278e-07
4.14101e-06
-1.14727e-07
4.16558e-06
-1.03931e-07
4.18788e-06
-9.38719e-08
4.20805e-06
-8.45313e-08
4.22627e-06
-7.58867e-08
4.24268e-06
-6.7915e-08
4.25744e-06
-6.05907e-08
4.27069e-06
-5.3888e-08
4.28256e-06
-4.7779e-08
4.29319e-06
-4.22358e-08
4.30269e-06
-3.72294e-08
4.31118e-06
-3.27307e-08
4.31877e-06
-2.87103e-08
4.32556e-06
-2.51391e-08
4.33164e-06
-2.1988e-08
4.3371e-06
-1.92284e-08
4.34202e-06
-1.68322e-08
4.34648e-06
-1.47718e-08
4.35055e-06
-1.30204e-08
4.35429e-06
-1.15518e-08
4.35775e-06
-1.03407e-08
4.36099e-06
-9.36248e-09
4.36405e-06
-8.59387e-09
4.36698e-06
-8.01255e-09
4.36981e-06
-7.59718e-09
4.37258e-06
-7.3277e-09
4.37531e-06
-7.18532e-09
4.37802e-06
-7.1525e-09
4.38075e-06
-7.213e-09
4.3835e-06
-7.35175e-09
4.3863e-06
-7.5549e-09
4.38914e-06
-7.80931e-09
4.39204e-06
-8.10317e-09
4.39502e-06
-8.42548e-09
4.39806e-06
-8.76633e-09
4.40118e-06
-9.11638e-09
4.40437e-06
-9.46747e-09
4.40764e-06
-9.81178e-09
4.41098e-06
-1.01426e-08
4.41438e-06
-1.04532e-08
4.41786e-06
-1.07381e-08
4.42138e-06
-1.09913e-08
4.42496e-06
-1.12082e-08
4.42858e-06
-1.13837e-08
4.43223e-06
-1.15144e-08
4.4359e-06
-1.15978e-08
4.43958e-06
-1.1635e-08
4.44324e-06
-1.16329e-08
4.44688e-06
-1.16109e-08
4.45045e-06
-1.16083e-08
4.45386e-06
-1.16988e-08
-1.18341e-08
-9.855e-08
2.37349e-07
-1.94195e-07
3.5835e-07
-2.81368e-07
4.3406e-07
-3.64032e-07
4.84541e-07
-4.44517e-07
5.14877e-07
-5.24142e-07
5.28883e-07
-6.03457e-07
5.30937e-07
-6.81986e-07
5.25029e-07
-7.59137e-07
5.1389e-07
-8.3445e-07
4.99321e-07
-9.07597e-07
4.82568e-07
-9.7837e-07
4.64521e-07
-1.04663e-06
4.45845e-07
-1.11232e-06
4.27029e-07
-1.17542e-06
4.08439e-07
-1.23597e-06
3.90341e-07
-1.29401e-06
3.72925e-07
-1.34964e-06
3.56325e-07
-1.40294e-06
3.40618e-07
-1.45404e-06
3.25855e-07
-1.50304e-06
3.12058e-07
-1.55008e-06
2.99226e-07
-1.59527e-06
2.8735e-07
-1.63874e-06
2.76407e-07
-1.68061e-06
2.66375e-07
-1.72101e-06
2.57218e-07
-1.76004e-06
2.48915e-07
-1.79784e-06
2.41433e-07
-1.83451e-06
2.3475e-07
-1.87017e-06
2.28843e-07
-1.90493e-06
2.23691e-07
-1.9389e-06
2.19276e-07
-1.9722e-06
2.15582e-07
-2.00493e-06
2.12592e-07
-2.03721e-06
2.10292e-07
-2.06913e-06
2.08666e-07
-2.1008e-06
2.07698e-07
-2.13233e-06
2.0737e-07
-2.16381e-06
2.0766e-07
-2.19535e-06
2.08545e-07
-2.22703e-06
2.09995e-07
-2.25895e-06
2.11977e-07
-2.29119e-06
2.14453e-07
-2.32383e-06
2.17379e-07
-2.35693e-06
2.20706e-07
-2.39056e-06
2.24379e-07
-2.42477e-06
2.28336e-07
-2.4596e-06
2.32511e-07
-2.49509e-06
2.36832e-07
-2.53124e-06
2.4122e-07
-2.56807e-06
2.45592e-07
-2.60556e-06
2.4986e-07
-2.6437e-06
2.53931e-07
-2.68243e-06
2.57709e-07
-2.72169e-06
2.61093e-07
-2.76143e-06
2.63981e-07
-2.80153e-06
2.66268e-07
-2.84188e-06
2.67847e-07
-2.88236e-06
2.6861e-07
-2.92281e-06
2.68451e-07
-2.96306e-06
2.67262e-07
-3.00291e-06
2.64939e-07
-3.04216e-06
2.61381e-07
-3.08058e-06
2.56489e-07
-3.11792e-06
2.50172e-07
-3.1539e-06
2.42341e-07
-3.18826e-06
2.32918e-07
-3.2207e-06
2.21832e-07
-3.2509e-06
2.09019e-07
-3.27854e-06
1.94428e-07
-3.3033e-06
1.78015e-07
-3.32483e-06
1.59752e-07
-3.34278e-06
1.39619e-07
-3.35683e-06
1.17612e-07
-3.36661e-06
9.37319e-08
-3.37178e-06
6.79823e-08
-3.37202e-06
4.0386e-08
-3.36698e-06
1.09768e-08
-3.35642e-06
-2.00091e-08
-3.34013e-06
-5.23376e-08
-3.31784e-06
-8.59999e-08
-3.28929e-06
-1.20964e-07
-3.25422e-06
-1.57175e-07
-3.21243e-06
-1.94553e-07
-3.16369e-06
-2.32995e-07
-3.10783e-06
-2.72371e-07
-3.0447e-06
-3.12532e-07
-2.97416e-06
-3.53317e-07
-2.89614e-06
-3.94551e-07
-2.81057e-06
-4.3605e-07
-2.71743e-06
-4.77619e-07
-2.61673e-06
-5.19031e-07
-2.50855e-06
-5.60038e-07
-2.393e-06
-6.00408e-07
-2.27023e-06
-6.39937e-07
-2.14041e-06
-6.78397e-07
-2.00379e-06
-7.1549e-07
-1.86068e-06
-7.50983e-07
-1.71136e-06
-7.84765e-07
-1.55618e-06
-8.16551e-07
-1.39558e-06
-8.46055e-07
-1.22994e-06
-8.73338e-07
-1.05965e-06
-8.98157e-07
-8.85297e-07
-9.20185e-07
-7.07237e-07
-9.39809e-07
-5.25916e-07
-9.56667e-07
-3.41909e-07
-9.70837e-07
-1.55343e-07
-9.8279e-07
3.29841e-08
-9.91804e-07
2.21083e-07
-9.97385e-07
4.07716e-07
-9.996e-07
5.92347e-07
-9.98366e-07
7.74385e-07
-9.93584e-07
9.53288e-07
-9.85244e-07
1.12867e-06
-9.73362e-07
1.30019e-06
-9.58009e-07
1.4677e-06
-9.39218e-07
1.63128e-06
-9.17185e-07
1.79072e-06
-8.92613e-07
1.94567e-06
-8.66178e-07
2.09579e-06
-8.38361e-07
2.24079e-06
-8.095e-07
2.38045e-06
-7.79853e-07
2.51464e-06
-7.49631e-07
2.64325e-06
-7.1902e-07
2.76623e-06
-6.88193e-07
2.88356e-06
-6.57303e-07
2.99527e-06
-6.26497e-07
3.10139e-06
-5.95905e-07
3.20199e-06
-5.65648e-07
3.29717e-06
-5.35831e-07
3.38702e-06
-5.06552e-07
3.47167e-06
-4.77894e-07
3.55126e-06
-4.49929e-07
3.62592e-06
-4.22722e-07
3.69581e-06
-3.96326e-07
3.76111e-06
-3.70787e-07
3.82196e-06
-3.46141e-07
3.87856e-06
-3.2242e-07
3.93108e-06
-2.99647e-07
3.97969e-06
-2.77841e-07
4.02459e-06
-2.57013e-07
4.06595e-06
-2.37172e-07
4.10397e-06
-2.18319e-07
4.13881e-06
-2.00454e-07
4.17068e-06
-1.83571e-07
4.19974e-06
-1.67661e-07
4.22616e-06
-1.5271e-07
4.25014e-06
-1.38704e-07
4.27182e-06
-1.25621e-07
4.29139e-06
-1.1344e-07
4.30899e-06
-1.02137e-07
4.32479e-06
-9.16848e-08
4.33893e-06
-8.20528e-08
4.35155e-06
-7.32112e-08
4.36278e-06
-6.51261e-08
4.37277e-06
-5.77646e-08
4.38162e-06
-5.10905e-08
4.38946e-06
-4.50693e-08
4.3964e-06
-3.96639e-08
4.40252e-06
-3.48393e-08
4.40794e-06
-3.05582e-08
4.41274e-06
-2.67865e-08
4.417e-06
-2.34877e-08
4.4208e-06
-2.06286e-08
4.4242e-06
-1.81743e-08
4.42728e-06
-1.60933e-08
4.43008e-06
-1.43524e-08
4.43266e-06
-1.29222e-08
4.43507e-06
-1.17713e-08
4.43735e-06
-1.08731e-08
4.43954e-06
-1.01988e-08
4.44166e-06
-9.72447e-09
4.44376e-06
-9.42407e-09
4.44585e-06
-9.27653e-09
4.44796e-06
-9.25896e-09
4.4501e-06
-9.3534e-09
4.45229e-06
-9.54003e-09
4.45454e-06
-9.80379e-09
4.45686e-06
-1.01274e-08
4.45925e-06
-1.04983e-08
4.46173e-06
-1.09017e-08
4.46429e-06
-1.13275e-08
4.46693e-06
-1.1763e-08
4.46967e-06
-1.22002e-08
4.47248e-06
-1.26283e-08
4.47538e-06
-1.30408e-08
4.47835e-06
-1.34282e-08
4.4814e-06
-1.37855e-08
4.48451e-06
-1.41042e-08
4.48768e-06
-1.43799e-08
4.4909e-06
-1.4605e-08
4.49416e-06
-1.47762e-08
4.49745e-06
-1.48877e-08
4.50075e-06
-1.49396e-08
4.50405e-06
-1.49327e-08
4.50732e-06
-1.4879e-08
4.5105e-06
-1.47965e-08
4.51351e-06
-1.47182e-08
-1.4475e-08
-1.02493e-07
3.39836e-07
-1.93795e-07
4.49655e-07
-2.75481e-07
5.15746e-07
-3.51101e-07
5.60166e-07
-4.23245e-07
5.87021e-07
-4.93546e-07
5.99184e-07
-5.62717e-07
6.00104e-07
-6.30733e-07
5.93043e-07
-6.97339e-07
5.80491e-07
-7.62266e-07
5.64244e-07
-8.25305e-07
5.45597e-07
-8.86298e-07
5.25511e-07
-9.45154e-07
5.04695e-07
-1.00182e-06
4.83691e-07
-1.05628e-06
4.629e-07
-1.10856e-06
4.42619e-07
-1.15869e-06
4.23064e-07
-1.20675e-06
4.04381e-07
-1.25279e-06
3.8667e-07
-1.29692e-06
3.69988e-07
-1.33922e-06
3.5436e-07
-1.37978e-06
3.39795e-07
-1.41872e-06
3.26283e-07
-1.45611e-06
3.13805e-07
-1.49207e-06
3.02333e-07
-1.52669e-06
2.91842e-07
-1.56008e-06
2.82298e-07
-1.59232e-06
2.73676e-07
-1.62353e-06
2.65951e-07
-1.65378e-06
2.591e-07
-1.68319e-06
2.53101e-07
-1.71185e-06
2.47937e-07
-1.73986e-06
2.4359e-07
-1.76731e-06
2.40046e-07
-1.79431e-06
2.37289e-07
-1.82095e-06
2.35304e-07
-1.84732e-06
2.34072e-07
-1.87353e-06
2.33576e-07
-1.89966e-06
2.33791e-07
-1.9258e-06
2.34692e-07
-1.95205e-06
2.36245e-07
-1.97849e-06
2.38415e-07
-2.0052e-06
2.41157e-07
-2.03224e-06
2.44424e-07
-2.05969e-06
2.48158e-07
-2.08761e-06
2.52297e-07
-2.11605e-06
2.56771e-07
-2.14504e-06
2.61505e-07
-2.17462e-06
2.66416e-07
-2.20482e-06
2.71413e-07
-2.23563e-06
2.76401e-07
-2.26705e-06
2.8128e-07
-2.29906e-06
2.85942e-07
-2.33163e-06
2.90275e-07
-2.3647e-06
2.94165e-07
-2.39821e-06
2.97492e-07
-2.43208e-06
3.00133e-07
-2.4662e-06
3.01965e-07
-2.50045e-06
3.02861e-07
-2.5347e-06
3.02696e-07
-2.56878e-06
3.01345e-07
-2.60253e-06
2.98684e-07
-2.63574e-06
2.94593e-07
-2.66821e-06
2.88957e-07
-2.69971e-06
2.81664e-07
-2.72998e-06
2.72612e-07
-2.75877e-06
2.61704e-07
-2.7858e-06
2.48854e-07
-2.81077e-06
2.33986e-07
-2.83338e-06
2.17037e-07
-2.85332e-06
1.97953e-07
-2.87027e-06
1.76697e-07
-2.8839e-06
1.53246e-07
-2.89388e-06
1.27591e-07
-2.89988e-06
9.97306e-08
-2.90156e-06
6.96658e-08
-2.89861e-06
3.74303e-08
-2.89075e-06
3.11843e-09
-2.87777e-06
-3.29918e-08
-2.85941e-06
-7.06955e-08
-2.83542e-06
-1.09993e-07
-2.80554e-06
-1.50845e-07
-2.76953e-06
-1.93186e-07
-2.72716e-06
-2.36919e-07
-2.67823e-06
-2.81924e-07
-2.62256e-06
-3.28044e-07
-2.55999e-06
-3.751e-07
-2.4904e-06
-4.22902e-07
-2.4137e-06
-4.71246e-07
-2.32983e-06
-5.19915e-07
-2.23876e-06
-5.6869e-07
-2.14049e-06
-6.17299e-07
-2.03509e-06
-6.65439e-07
-1.92266e-06
-7.12828e-07
-1.80335e-06
-7.59245e-07
-1.6773e-06
-8.04444e-07
-1.54475e-06
-8.48039e-07
-1.40601e-06
-8.89728e-07
-1.26132e-06
-9.29451e-07
-1.11099e-06
-9.66875e-07
-9.55485e-07
-1.00156e-06
-7.95147e-07
-1.03367e-06
-6.30315e-07
-1.06299e-06
-4.61557e-07
-1.08894e-06
-2.89285e-07
-1.11208e-06
-1.13592e-07
-1.13236e-06
6.44967e-08
-1.14893e-06
2.43283e-07
-1.16158e-06
4.2191e-07
-1.17043e-06
5.99776e-07
-1.17525e-06
7.76201e-07
-1.17603e-06
9.5057e-07
-1.17274e-06
1.12238e-06
-1.1654e-06
1.29116e-06
-1.15403e-06
1.45655e-06
-1.13875e-06
1.61824e-06
-1.1197e-06
1.77606e-06
-1.09703e-06
1.92993e-06
-1.07106e-06
2.07967e-06
-1.04235e-06
2.225e-06
-1.0115e-06
2.36562e-06
-9.78976e-07
2.50129e-06
-9.4517e-07
2.63183e-06
-9.1039e-07
2.75711e-06
-8.74902e-07
2.87703e-06
-8.38941e-07
2.99155e-06
-8.02717e-07
3.10067e-06
-7.66422e-07
3.2044e-06
-7.30231e-07
3.3028e-06
-6.94302e-07
3.39592e-06
-6.58777e-07
3.48387e-06
-6.23783e-07
3.56675e-06
-5.89431e-07
3.64467e-06
-5.5582e-07
3.71777e-06
-5.23035e-07
3.78619e-06
-4.91151e-07
3.85009e-06
-4.6023e-07
3.90963e-06
-4.30324e-07
3.96496e-06
-4.01476e-07
4.01626e-06
-3.73723e-07
4.0637e-06
-3.47091e-07
4.10746e-06
-3.21601e-07
4.14771e-06
-2.97267e-07
4.18463e-06
-2.74098e-07
4.21841e-06
-2.52095e-07
4.24921e-06
-2.31257e-07
4.27721e-06
-2.11576e-07
4.30259e-06
-1.93042e-07
4.32552e-06
-1.75638e-07
4.34616e-06
-1.59344e-07
4.36467e-06
-1.44138e-07
4.38123e-06
-1.29992e-07
4.39597e-06
-1.16877e-07
4.40904e-06
-1.04761e-07
4.4206e-06
-9.36076e-08
4.43077e-06
-8.33802e-08
4.43968e-06
-7.40396e-08
4.44746e-06
-6.55451e-08
4.45423e-06
-5.78549e-08
4.46009e-06
-5.09267e-08
4.46514e-06
-4.47176e-08
4.46949e-06
-3.91849e-08
4.47322e-06
-3.42859e-08
4.47641e-06
-2.99787e-08
4.47915e-06
-2.62217e-08
4.4815e-06
-2.29746e-08
4.48352e-06
-2.01974e-08
4.48528e-06
-1.78521e-08
4.48683e-06
-1.59009e-08
4.48822e-06
-1.43077e-08
4.48949e-06
-1.30376e-08
4.49068e-06
-1.20578e-08
4.49181e-06
-1.13363e-08
4.49294e-06
-1.08435e-08
4.49406e-06
-1.05507e-08
4.49522e-06
-1.04318e-08
4.49643e-06
-1.04617e-08
4.49769e-06
-1.06179e-08
4.49903e-06
-1.08792e-08