/*--------------------------------*- C++ -*----------------------------------*\
  =========                 |
  \\      /  F ield         | OpenFOAM: The Open Source CFD Toolbox
   \\    /   O peration     | Website:  https://openfoam.org
    \\  /    A nd           | Version:  7
     \\/     M anipulation  |
\*---------------------------------------------------------------------------*/
FoamFile
{
    version     2.0;
    format      ascii;
    class       volVectorField;
    location    "300";
    object      U;
}
// * * * * * * * * * * * * * * * * * * * * * * * * * * * * * * * * * * * * * //

dimensions      [0 1 -1 0 0 0 0];

internalField   nonuniform List<vector> 
16900
(
(0.0227531 -0.0311403 0)
(0.0212604 0.0096438 0)
(-0.0306643 0.0487918 0)
(-0.110781 0.0809621 0)
(-0.197173 0.114268 0)
(-0.307433 0.109846 0)
(-0.440362 0.0868641 0)
(-0.554991 0.0827209 0)
(-0.669015 0.078999 0)
(-0.779601 0.0751279 0)
(-0.886225 0.0712221 0)
(-0.988571 0.0673852 0)
(-1.08649 0.0636778 0)
(-1.17996 0.0601388 0)
(-1.26906 0.0567961 0)
(-1.35394 0.0536576 0)
(-1.43476 0.0507357 0)
(-1.51175 0.0480193 0)
(-1.58512 0.0455174 0)
(-1.65513 0.0432036 0)
(-1.722 0.0410905 0)
(-1.78598 0.0391459 0)
(-1.8473 0.0373836 0)
(-1.90617 0.0357716 0)
(-1.96281 0.0343217 0)
(-2.01741 0.033004 0)
(-2.07019 0.0318265 0)
(-2.12133 0.0307741 0)
(-2.17103 0.0298445 0)
(-2.21944 0.0290326 0)
(-2.26674 0.0283335 0)
(-2.31309 0.0277422 0)
(-2.35865 0.0272548 0)
(-2.40358 0.0268671 0)
(-2.44803 0.0265757 0)
(-2.49215 0.0263764 0)
(-2.53609 0.0262658 0)
(-2.57998 0.0262392 0)
(-2.62396 0.0262925 0)
(-2.66816 0.02642 0)
(-2.7127 0.0266166 0)
(-2.75769 0.0268755 0)
(-2.80325 0.0271906 0)
(-2.84947 0.0275538 0)
(-2.89644 0.0279578 0)
(-2.94423 0.0283936 0)
(-2.99292 0.0288529 0)
(-3.04253 0.0293258 0)
(-3.09312 0.0298033 0)
(-3.14469 0.0302752 0)
(-3.19725 0.0307318 0)
(-3.25077 0.0311626 0)
(-3.30524 0.0315581 0)
(-3.36058 0.0319078 0)
(-3.41672 0.0322022 0)
(-3.47358 0.0324311 0)
(-3.53103 0.0325855 0)
(-3.58895 0.0326557 0)
(-3.64717 0.0326332 0)
(-3.70553 0.0325091 0)
(-3.76383 0.0322757 0)
(-3.82185 0.0319249 0)
(-3.87936 0.0314496 0)
(-3.93611 0.0308431 0)
(-3.99184 0.0300995 0)
(-4.04627 0.0292136 0)
(-4.09909 0.0281806 0)
(-4.15 0.0269962 0)
(-4.19867 0.0256568 0)
(-4.24478 0.02416 0)
(-4.28799 0.0225044 0)
(-4.32797 0.0206896 0)
(-4.36436 0.0187155 0)
(-4.3968 0.0165834 0)
(-4.42494 0.0142944 0)
(-4.44845 0.0118462 0)
(-4.46702 0.00922881 0)
(-4.48032 0.00643258 0)
(-4.48796 0.00346775 0)
(-4.48951 0.000372329 0)
(-4.48476 -0.00281983 0)
(-4.47351 -0.00611146 0)
(-4.45553 -0.00951546 0)
(-4.43058 -0.0130277 0)
(-4.39846 -0.0166415 0)
(-4.35898 -0.0203482 0)
(-4.31197 -0.0241375 0)
(-4.2573 -0.0279979 0)
(-4.19487 -0.0319165 0)
(-4.1246 -0.03588 0)
(-4.04647 -0.0398728 0)
(-3.96048 -0.0438785 0)
(-3.86668 -0.04788 0)
(-3.76516 -0.0518609 0)
(-3.65607 -0.0558038 0)
(-3.53958 -0.0596907 0)
(-3.41594 -0.0635039 0)
(-3.2854 -0.067229 0)
(-3.1483 -0.0708493 0)
(-3.00498 -0.07435 0)
(-2.85587 -0.0777204 0)
(-2.70137 -0.0809514 0)
(-2.54197 -0.0840354 0)
(-2.37816 -0.0869764 0)
(-2.21045 -0.0897755 0)
(-2.03938 -0.0924387 0)
(-1.86549 -0.0949744 0)
(-1.68933 -0.0973667 0)
(-1.5114 -0.0996257 0)
(-1.3322 -0.101767 0)
(-1.15211 -0.103949 0)
(-0.971532 -0.106454 0)
(-0.790484 -0.10984 0)
(-0.609537 -0.114664 0)
(-0.427669 -0.120738 0)
(-0.250803 -0.127018 0)
(-0.0712113 -0.128392 0)
(0.114666 -0.121087 0)
(0.284634 -0.112198 0)
(0.450244 -0.104176 0)
(0.610394 -0.097033 0)
(0.764903 -0.0906104 0)
(0.913698 -0.0847596 0)
(1.05673 -0.0793675 0)
(1.19395 -0.0743495 0)
(1.32535 -0.0696462 0)
(1.4509 -0.0652137 0)
(1.57062 -0.0610215 0)
(1.68454 -0.057046 0)
(1.79271 -0.0532708 0)
(1.8952 -0.0496821 0)
(1.9921 -0.0462703 0)
(2.08351 -0.0430264 0)
(2.16956 -0.0399439 0)
(2.25037 -0.0370165 0)
(2.32609 -0.0342388 0)
(2.39687 -0.031606 0)
(2.46287 -0.0291134 0)
(2.52427 -0.0267569 0)
(2.58123 -0.0245321 0)
(2.63394 -0.0224351 0)
(2.68257 -0.0204618 0)
(2.72731 -0.0186086 0)
(2.76834 -0.0168712 0)
(2.80586 -0.0152463 0)
(2.84004 -0.0137295 0)
(2.87107 -0.0123175 0)
(2.89914 -0.0110058 0)
(2.92443 -0.00979128 0)
(2.94712 -0.00866926 0)
(2.96738 -0.00763653 0)
(2.98538 -0.00668843 0)
(3.00129 -0.0058217 0)
(3.01528 -0.00503164 0)
(3.02749 -0.00431496 0)
(3.03808 -0.00366696 0)
(3.04719 -0.0030844 0)
(3.05497 -0.00256261 0)
(3.06154 -0.00209844 0)
(3.06702 -0.00168735 0)
(3.07155 -0.00132632 0)
(3.07521 -0.00101098 0)
(3.07813 -0.000738495 0)
(3.0804 -0.000504734 0)
(3.0821 -0.0003071 0)
(3.08332 -0.000141731 0)
(3.08414 -6.37622e-06 0)
(3.08463 0.000102125 0)
(3.08486 0.000184461 0)
(3.08488 0.00024418 0)
(3.08476 0.000285531 0)
(3.08452 0.000312914 0)
(3.08422 0.000328024 0)
(3.08388 0.000333268 0)
(3.08352 0.000329474 0)
(3.08318 0.000318544 0)
(3.08288 0.000300954 0)
(3.08263 0.000278077 0)
(3.08244 0.000249448 0)
(3.08234 0.000215784 0)
(3.08235 0.000178088 0)
(3.08246 0.000139065 0)
(3.08268 9.95221e-05 0)
(3.08302 6.09773e-05 0)
(3.08347 2.36418e-05 0)
(3.08402 -1.13366e-05 0)
(3.08468 -4.39654e-05 0)
(3.08543 -7.32894e-05 0)
(3.08627 -9.94305e-05 0)
(3.08718 -0.000121557 0)
(3.08816 -0.000139884 0)
(3.0892 -0.000153721 0)
(3.09028 -0.000163493 0)
(3.09139 -0.000168915 0)
(3.09253 -0.000171311 0)
(3.09367 -0.000172356 0)
(3.09483 -0.000177958 0)
(3.09603 -0.000201662 0)
(3.0973 -0.000279971 0)
(3.09969 -0.000533744 0)
(-0.0147389 -0.0315108 0)
(-0.0432185 0.0450499 0)
(-0.110916 0.105201 0)
(-0.196363 0.145422 0)
(-0.291734 0.172976 0)
(-0.398763 0.188484 0)
(-0.508212 0.187554 0)
(-0.61546 0.18417 0)
(-0.720338 0.17906 0)
(-0.822184 0.172772 0)
(-0.920637 0.165804 0)
(-1.01539 0.158498 0)
(-1.10626 0.151091 0)
(-1.1932 0.143759 0)
(-1.27625 0.136625 0)
(-1.35551 0.129773 0)
(-1.4311 0.123263 0)
(-1.50322 0.117121 0)
(-1.57206 0.111374 0)
(-1.63781 0.106012 0)
(-1.7007 0.101049 0)
(-1.76092 0.0964576 0)
(-1.81869 0.0922434 0)
(-1.87421 0.0883763 0)
(-1.92765 0.084854 0)
(-1.9792 0.0816508 0)
(-2.02906 0.0787523 0)
(-2.07739 0.076146 0)
(-2.12437 0.0738206 0)
(-2.17013 0.0717658 0)
(-2.21485 0.0699708 0)
(-2.25867 0.0684262 0)
(-2.30174 0.0671227 0)
(-2.34419 0.0660522 0)
(-2.38617 0.0652067 0)
(-2.42782 0.0645785 0)
(-2.46925 0.0641595 0)
(-2.51061 0.0639415 0)
(-2.55201 0.0639146 0)
(-2.59358 0.0640691 0)
(-2.63542 0.0643931 0)
(-2.67764 0.0648742 0)
(-2.72034 0.0654979 0)
(-2.76362 0.066249 0)
(-2.80755 0.0671102 0)
(-2.8522 0.0680632 0)
(-2.89764 0.0690882 0)
(-2.94391 0.0701641 0)
(-2.99104 0.0712685 0)
(-3.03905 0.0723782 0)
(-3.08795 0.0734687 0)
(-3.13771 0.0745153 0)
(-3.18831 0.0754921 0)
(-3.2397 0.0763733 0)
(-3.29179 0.0771323 0)
(-3.34451 0.0777431 0)
(-3.39775 0.0781793 0)
(-3.45136 0.0784149 0)
(-3.50521 0.0784247 0)
(-3.55911 0.0781839 0)
(-3.61289 0.0776688 0)
(-3.66632 0.0768568 0)
(-3.71918 0.0757264 0)
(-3.77121 0.0742577 0)
(-3.82216 0.0724327 0)
(-3.87174 0.0702359 0)
(-3.91965 0.0676536 0)
(-3.96558 0.064674 0)
(-4.00921 0.0612873 0)
(-4.05022 0.0574867 0)
(-4.08826 0.0532687 0)
(-4.12299 0.048633 0)
(-4.15407 0.0435812 0)
(-4.18113 0.0381191 0)
(-4.20381 0.0322552 0)
(-4.2218 0.0259934 0)
(-4.23478 0.0193235 0)
(-4.24243 0.0122352 0)
(-4.24432 0.00475303 0)
(-4.24003 -0.00303808 0)
(-4.22958 -0.011063 0)
(-4.21266 -0.0193171 0)
(-4.18903 -0.0277974 0)
(-4.15848 -0.0364856 0)
(-4.1208 -0.0453571 0)
(-4.07582 -0.0543817 0)
(-4.02338 -0.0635256 0)
(-3.96336 -0.0727513 0)
(-3.89566 -0.0820189 0)
(-3.82022 -0.0912865 0)
(-3.73701 -0.100509 0)
(-3.64605 -0.109636 0)
(-3.5474 -0.118618 0)
(-3.44114 -0.127407 0)
(-3.32744 -0.135954 0)
(-3.20646 -0.144207 0)
(-3.07844 -0.152115 0)
(-2.94366 -0.159635 0)
(-2.80243 -0.166723 0)
(-2.65511 -0.173333 0)
(-2.50209 -0.179434 0)
(-2.3438 -0.184997 0)
(-2.18069 -0.189988 0)
(-2.01324 -0.194402 0)
(-1.84196 -0.198221 0)
(-1.66736 -0.201431 0)
(-1.48992 -0.204058 0)
(-1.31016 -0.20607 0)
(-1.12851 -0.207533 0)
(-0.945498 -0.20848 0)
(-0.761417 -0.209123 0)
(-0.576961 -0.209679 0)
(-0.391616 -0.210495 0)
(-0.207058 -0.211857 0)
(-0.0176459 -0.213128 0)
(0.165987 -0.21438 0)
(0.344263 -0.212407 0)
(0.518634 -0.205454 0)
(0.68742 -0.196948 0)
(0.851445 -0.188522 0)
(1.01055 -0.18034 0)
(1.16449 -0.172397 0)
(1.31311 -0.16465 0)
(1.45627 -0.157061 0)
(1.59386 -0.149607 0)
(1.72582 -0.142281 0)
(1.85213 -0.135083 0)
(1.97277 -0.128021 0)
(2.08777 -0.121103 0)
(2.19716 -0.114343 0)
(2.30102 -0.10775 0)
(2.39942 -0.101336 0)
(2.49247 -0.0951117 0)
(2.58028 -0.0890853 0)
(2.66298 -0.0832643 0)
(2.74071 -0.0776548 0)
(2.81362 -0.0722617 0)
(2.88187 -0.0670885 0)
(2.94562 -0.0621378 0)
(3.00503 -0.0574109 0)
(3.06029 -0.0529083 0)
(3.11156 -0.0486294 0)
(3.15903 -0.044573 0)
(3.20287 -0.040737 0)
(3.24327 -0.0371188 0)
(3.2804 -0.0337148 0)
(3.31445 -0.0305213 0)
(3.34558 -0.0275334 0)
(3.37397 -0.0247465 0)
(3.39979 -0.0221545 0)
(3.42322 -0.019752 0)
(3.44441 -0.0175322 0)
(3.46352 -0.0154887 0)
(3.48071 -0.0136142 0)
(3.49613 -0.0119016 0)
(3.50991 -0.0103432 0)
(3.5222 -0.00893154 0)
(3.53313 -0.00765855 0)
(3.54283 -0.00651676 0)
(3.5514 -0.00549795 0)
(3.55897 -0.00459472 0)
(3.56564 -0.00379897 0)
(3.57152 -0.00310352 0)
(3.57668 -0.00250057 0)
(3.58122 -0.00198329 0)
(3.58523 -0.00154429 0)
(3.58876 -0.00117728 0)
(3.59191 -0.0008756 0)
(3.59471 -0.000634567 0)
(3.59723 -0.000447557 0)
(3.59952 -0.000307055 0)
(3.60163 -0.000205908 0)
(3.6036 -0.00013937 0)
(3.60547 -0.000102577 0)
(3.60729 -9.19506e-05 0)
(3.60907 -0.000103372 0)
(3.61085 -0.000133871 0)
(3.61264 -0.000179999 0)
(3.61447 -0.000239803 0)
(3.61634 -0.000310985 0)
(3.61825 -0.000391003 0)
(3.62022 -0.000475823 0)
(3.62225 -0.000563087 0)
(3.62435 -0.000650177 0)
(3.62652 -0.000735661 0)
(3.62876 -0.000817531 0)
(3.63107 -0.000894791 0)
(3.63344 -0.000965785 0)
(3.63588 -0.00102979 0)
(3.63837 -0.0010854 0)
(3.64091 -0.00113214 0)
(3.64349 -0.00116891 0)
(3.6461 -0.00119575 0)
(3.64873 -0.00121252 0)
(3.65137 -0.00122127 0)
(3.65401 -0.00122623 0)
(3.65664 -0.00123926 0)
(3.65929 -0.00128768 0)
(3.66189 -0.00144288 0)
(3.66539 -0.00185778 0)
(-0.0536749 0.00689547 0)
(-0.0922896 0.113838 0)
(-0.172448 0.196743 0)
(-0.259762 0.249238 0)
(-0.350453 0.27927 0)
(-0.444029 0.29175 0)
(-0.539216 0.292026 0)
(-0.634411 0.287242 0)
(-0.72814 0.279547 0)
(-0.819596 0.270003 0)
(-0.908312 0.259354 0)
(-0.993964 0.248129 0)
(-1.07636 0.236708 0)
(-1.15543 0.225369 0)
(-1.23116 0.21431 0)
(-1.3036 0.203667 0)
(-1.37286 0.193535 0)
(-1.43907 0.183967 0)
(-1.50238 0.174995 0)
(-1.56295 0.166627 0)
(-1.62096 0.158864 0)
(-1.67657 0.15169 0)
(-1.72996 0.145091 0)
(-1.7813 0.139041 0)
(-1.83075 0.133522 0)
(-1.87848 0.128503 0)
(-1.92463 0.123963 0)
(-1.96937 0.11988 0)
(-2.01284 0.116235 0)
(-2.05518 0.113012 0)
(-2.09652 0.110194 0)
(-2.13701 0.107765 0)
(-2.17676 0.105711 0)
(-2.21591 0.10402 0)
(-2.25459 0.102679 0)
(-2.29291 0.101675 0)
(-2.331 0.100997 0)
(-2.36897 0.10063 0)
(-2.40693 0.10056 0)
(-2.44499 0.100772 0)
(-2.48326 0.101248 0)
(-2.52182 0.101968 0)
(-2.56078 0.102911 0)
(-2.60022 0.104052 0)
(-2.64022 0.105366 0)
(-2.68083 0.106824 0)
(-2.72213 0.108396 0)
(-2.76414 0.110048 0)
(-2.80692 0.111747 0)
(-2.85047 0.113454 0)
(-2.8948 0.115133 0)
(-2.9399 0.116743 0)
(-2.98575 0.118244 0)
(-3.0323 0.119593 0)
(-3.07948 0.120749 0)
(-3.12722 0.121669 0)
(-3.17541 0.12231 0)
(-3.22394 0.12263 0)
(-3.27267 0.122588 0)
(-3.32144 0.122141 0)
(-3.37007 0.121252 0)
(-3.41837 0.119883 0)
(-3.46611 0.117998 0)
(-3.51306 0.115564 0)
(-3.55897 0.11255 0)
(-3.60356 0.108931 0)
(-3.64656 0.104682 0)
(-3.68767 0.0997848 0)
(-3.72656 0.0942226 0)
(-3.76293 0.0879841 0)
(-3.79644 0.0810627 0)
(-3.82676 0.0734566 0)
(-3.85354 0.0651681 0)
(-3.87643 0.0562053 0)
(-3.89508 0.0465797 0)
(-3.90916 0.0362978 0)
(-3.91839 0.0253544 0)
(-3.92241 0.0137589 0)
(-3.92076 0.00158205 0)
(-3.91334 -0.0110501 0)
(-3.89988 -0.0240691 0)
(-3.88014 -0.0374727 0)
(-3.85389 -0.0512418 0)
(-3.8209 -0.0653434 0)
(-3.78098 -0.0797348 0)
(-3.73395 -0.0943652 0)
(-3.67964 -0.109177 0)
(-3.61793 -0.124108 0)
(-3.54873 -0.139092 0)
(-3.47196 -0.154056 0)
(-3.38761 -0.168928 0)
(-3.29567 -0.183624 0)
(-3.19621 -0.198059 0)
(-3.08931 -0.212153 0)
(-2.97511 -0.225827 0)
(-2.85379 -0.238994 0)
(-2.72558 -0.251565 0)
(-2.59074 -0.263472 0)
(-2.44957 -0.274645 0)
(-2.30243 -0.285002 0)
(-2.14969 -0.29449 0)
(-1.99177 -0.303071 0)
(-1.82911 -0.310678 0)
(-1.66217 -0.317293 0)
(-1.49142 -0.322891 0)
(-1.31737 -0.327421 0)
(-1.14044 -0.330959 0)
(-0.961191 -0.333479 0)
(-0.77991 -0.335151 0)
(-0.597311 -0.336089 0)
(-0.413278 -0.336508 0)
(-0.229066 -0.336621 0)
(-0.0425597 -0.336017 0)
(0.141888 -0.334626 0)
(0.323034 -0.331707 0)
(0.499703 -0.327254 0)
(0.67203 -0.320877 0)
(0.840458 -0.312147 0)
(1.00491 -0.302245 0)
(1.1651 -0.291877 0)
(1.32064 -0.281288 0)
(1.47122 -0.270563 0)
(1.61661 -0.259746 0)
(1.75665 -0.248871 0)
(1.89123 -0.237973 0)
(2.02028 -0.227092 0)
(2.14376 -0.216266 0)
(2.26167 -0.205535 0)
(2.37404 -0.194938 0)
(2.4809 -0.184509 0)
(2.58234 -0.17428 0)
(2.67843 -0.16428 0)
(2.76928 -0.154534 0)
(2.85501 -0.145063 0)
(2.93575 -0.135886 0)
(3.01164 -0.127017 0)
(3.08282 -0.118468 0)
(3.14947 -0.110249 0)
(3.21173 -0.102368 0)
(3.26978 -0.0948283 0)
(3.32379 -0.0876343 0)
(3.37394 -0.080787 0)
(3.4204 -0.074286 0)
(3.46335 -0.0681295 0)
(3.50297 -0.0623146 0)
(3.53943 -0.0568369 0)
(3.57291 -0.051691 0)
(3.60358 -0.0468703 0)
(3.63162 -0.0423677 0)
(3.65719 -0.0381746 0)
(3.68046 -0.0342821 0)
(3.70157 -0.0306804 0)
(3.7207 -0.0273592 0)
(3.73799 -0.0243073 0)
(3.75358 -0.0215135 0)
(3.76761 -0.0189659 0)
(3.78022 -0.0166525 0)
(3.79152 -0.0145608 0)
(3.80165 -0.0126788 0)
(3.81072 -0.0109938 0)
(3.81882 -0.00949375 0)
(3.82608 -0.00816619 0)
(3.83257 -0.00699941 0)
(3.83838 -0.00598142 0)
(3.84361 -0.00510103 0)
(3.84832 -0.00434689 0)
(3.85259 -0.00370853 0)
(3.85649 -0.00317529 0)
(3.86006 -0.00273718 0)
(3.86337 -0.00238431 0)
(3.86645 -0.00210816 0)
(3.86937 -0.00189988 0)
(3.87215 -0.0017516 0)
(3.87483 -0.00165531 0)
(3.87745 -0.00160422 0)
(3.88003 -0.00159139 0)
(3.88259 -0.00161111 0)
(3.88515 -0.00165747 0)
(3.88773 -0.0017256 0)
(3.89035 -0.00181032 0)
(3.89301 -0.0019078 0)
(3.89572 -0.00201392 0)
(3.89849 -0.0021255 0)
(3.90132 -0.00223896 0)
(3.90422 -0.00235174 0)
(3.90718 -0.00246088 0)
(3.9102 -0.00256439 0)
(3.91328 -0.00265978 0)
(3.91642 -0.00274552 0)
(3.91962 -0.00281949 0)
(3.92285 -0.00288054 0)
(3.92613 -0.00292701 0)
(3.92943 -0.00295845 0)
(3.93276 -0.00297447 0)
(3.93609 -0.00297716 0)
(3.93942 -0.00297153 0)
(3.94274 -0.002971 0)
(3.94603 -0.00300482 0)
(3.94921 -0.00313932 0)
(3.95317 -0.00346295 0)
(-0.0681469 0.0687791 0)
(-0.125354 0.202975 0)
(-0.210337 0.287713 0)
(-0.294102 0.3409 0)
(-0.377886 0.371024 0)
(-0.462006 0.383634 0)
(-0.546794 0.384462 0)
(-0.631501 0.378702 0)
(-0.715089 0.368988 0)
(-0.796867 0.356801 0)
(-0.876392 0.343126 0)
(-0.953364 0.328652 0)
(-1.0276 0.313875 0)
(-1.099 0.299158 0)
(-1.16754 0.284761 0)
(-1.23325 0.270868 0)
(-1.29619 0.257605 0)
(-1.35646 0.24505 0)
(-1.41416 0.233249 0)
(-1.46943 0.222219 0)
(-1.52241 0.211963 0)
(-1.57324 0.202468 0)
(-1.62205 0.193716 0)
(-1.669 0.185678 0)
(-1.71422 0.178329 0)
(-1.75785 0.171636 0)
(-1.80002 0.165569 0)
(-1.84087 0.160104 0)
(-1.88053 0.155214 0)
(-1.91911 0.150877 0)
(-1.95675 0.147074 0)
(-1.99355 0.143783 0)
(-2.02965 0.140988 0)
(-2.06515 0.138671 0)
(-2.10016 0.136817 0)
(-2.13481 0.13541 0)
(-2.16919 0.134433 0)
(-2.20341 0.13387 0)
(-2.23759 0.1337 0)
(-2.27181 0.133905 0)
(-2.30618 0.134461 0)
(-2.34078 0.135342 0)
(-2.37571 0.136521 0)
(-2.41104 0.137966 0)
(-2.44684 0.139643 0)
(-2.48319 0.141515 0)
(-2.52014 0.143541 0)
(-2.55772 0.145678 0)
(-2.59598 0.14788 0)
(-2.63494 0.150099 0)
(-2.6746 0.152283 0)
(-2.71495 0.15438 0)
(-2.75599 0.156335 0)
(-2.79766 0.158092 0)
(-2.83992 0.159594 0)
(-2.8827 0.160784 0)
(-2.9259 0.161603 0)
(-2.96941 0.161994 0)
(-3.01311 0.1619 0)
(-3.05685 0.161265 0)
(-3.10047 0.160035 0)
(-3.14377 0.158158 0)
(-3.18657 0.155585 0)
(-3.22863 0.152269 0)
(-3.26971 0.148168 0)
(-3.30956 0.143245 0)
(-3.3479 0.137465 0)
(-3.38445 0.130801 0)
(-3.4189 0.123229 0)
(-3.45094 0.114733 0)
(-3.48026 0.105302 0)
(-3.50653 0.0949303 0)
(-3.5294 0.0836215 0)
(-3.54853 0.0713857 0)
(-3.56357 0.0582374 0)
(-3.57423 0.0441831 0)
(-3.58021 0.029221 0)
(-3.58114 0.0133803 0)
(-3.57654 -0.00321259 0)
(-3.56644 -0.0204112 0)
(-3.5505 -0.0381666 0)
(-3.52849 -0.0564628 0)
(-3.50017 -0.075269 0)
(-3.46531 -0.0945392 0)
(-3.42372 -0.114215 0)
(-3.3752 -0.134225 0)
(-3.3196 -0.154492 0)
(-3.25678 -0.174929 0)
(-3.18665 -0.195445 0)
(-3.10914 -0.215943 0)
(-3.02422 -0.236323 0)
(-2.93188 -0.256471 0)
(-2.83217 -0.276267 0)
(-2.72519 -0.295602 0)
(-2.61107 -0.314372 0)
(-2.48995 -0.332456 0)
(-2.36208 -0.349728 0)
(-2.22772 -0.366095 0)
(-2.08713 -0.381474 0)
(-1.94067 -0.39574 0)
(-1.78873 -0.408813 0)
(-1.63167 -0.420664 0)
(-1.46994 -0.431177 0)
(-1.30398 -0.440327 0)
(-1.13422 -0.448118 0)
(-0.961207 -0.454461 0)
(-0.785226 -0.459541 0)
(-0.60707 -0.463355 0)
(-0.426626 -0.466088 0)
(-0.245126 -0.467945 0)
(-0.0614644 -0.46864 0)
(0.122079 -0.468154 0)
(0.302915 -0.466013 0)
(0.480948 -0.461999 0)
(0.655794 -0.456149 0)
(0.82675 -0.448455 0)
(0.993736 -0.438723 0)
(1.15698 -0.426942 0)
(1.31646 -0.41387 0)
(1.47182 -0.400054 0)
(1.62265 -0.385777 0)
(1.76865 -0.371192 0)
(1.90955 -0.356399 0)
(2.0452 -0.341477 0)
(2.17547 -0.326497 0)
(2.3003 -0.311526 0)
(2.41965 -0.296627 0)
(2.53353 -0.281862 0)
(2.64195 -0.267285 0)
(2.74497 -0.252946 0)
(2.84267 -0.238891 0)
(2.93513 -0.225158 0)
(3.02245 -0.211782 0)
(3.10477 -0.198792 0)
(3.18221 -0.186212 0)
(3.25492 -0.174063 0)
(3.32304 -0.16236 0)
(3.38673 -0.151116 0)
(3.44617 -0.14034 0)
(3.50151 -0.130038 0)
(3.55293 -0.120214 0)
(3.6006 -0.11087 0)
(3.64471 -0.102003 0)
(3.68542 -0.0936108 0)
(3.72291 -0.0856889 0)
(3.75736 -0.0782305 0)
(3.78894 -0.0712277 0)
(3.81782 -0.064671 0)
(3.84417 -0.0585497 0)
(3.86816 -0.052852 0)
(3.88995 -0.0475652 0)
(3.90969 -0.0426751 0)
(3.92753 -0.0381674 0)
(3.94363 -0.0340266 0)
(3.95812 -0.0302368 0)
(3.97114 -0.0267815 0)
(3.98282 -0.0236441 0)
(3.99327 -0.0208075 0)
(4.00263 -0.0182548 0)
(4.01099 -0.0159688 0)
(4.01847 -0.0139328 0)
(4.02515 -0.0121299 0)
(4.03113 -0.0105441 0)
(4.0365 -0.00915905 0)
(4.04132 -0.00795956 0)
(4.04568 -0.00693023 0)
(4.04965 -0.00605686 0)
(4.05328 -0.00532509 0)
(4.05662 -0.00472168 0)
(4.05974 -0.00423342 0)
(4.06267 -0.00384843 0)
(4.06545 -0.00355474 0)
(4.06813 -0.00334169 0)
(4.07074 -0.0031987 0)
(4.07329 -0.00311662 0)
(4.07583 -0.00308632 0)
(4.07836 -0.00310009 0)
(4.08091 -0.00315017 0)
(4.08349 -0.0032301 0)
(4.08611 -0.00333317 0)
(4.08879 -0.00345404 0)
(4.09153 -0.00358712 0)
(4.09433 -0.00372803 0)
(4.0972 -0.00387209 0)
(4.10014 -0.00401583 0)
(4.10314 -0.00415539 0)
(4.10622 -0.00428804 0)
(4.10936 -0.00441056 0)
(4.11257 -0.00452078 0)
(4.11583 -0.00461595 0)
(4.11914 -0.00469437 0)
(4.12249 -0.00475382 0)
(4.12588 -0.00479334 0)
(4.12929 -0.00481199 0)
(4.13271 -0.00481135 0)
(4.13614 -0.00479559 0)
(4.13954 -0.00477639 0)
(4.14291 -0.00477729 0)
(4.14612 -0.00484508 0)
(4.15 -0.00499256 0)
(-0.0711616 0.176777 0)
(-0.141564 0.2989 0)
(-0.227545 0.374628 0)
(-0.30765 0.423732 0)
(-0.385215 0.45207 0)
(-0.461551 0.464111 0)
(-0.537597 0.464702 0)
(-0.613116 0.457999 0)
(-0.687515 0.446653 0)
(-0.760314 0.432347 0)
(-0.831167 0.416226 0)
(-0.89983 0.3991 0)
(-0.966147 0.381558 0)
(-1.03003 0.364032 0)
(-1.09144 0.346837 0)
(-1.15039 0.330198 0)
(-1.20693 0.314269 0)
(-1.26111 0.299152 0)
(-1.31303 0.284907 0)
(-1.36279 0.271563 0)
(-1.41049 0.259127 0)
(-1.45626 0.247589 0)
(-1.50021 0.23693 0)
(-1.54246 0.227121 0)
(-1.58312 0.218132 0)
(-1.62232 0.209929 0)
(-1.66016 0.202479 0)
(-1.69677 0.195751 0)
(-1.73224 0.189717 0)
(-1.7667 0.184351 0)
(-1.80024 0.17963 0)
(-1.83299 0.175531 0)
(-1.86503 0.172033 0)
(-1.89649 0.169117 0)
(-1.92745 0.166766 0)
(-1.95803 0.164959 0)
(-1.98832 0.163679 0)
(-2.01843 0.162905 0)
(-2.04844 0.162615 0)
(-2.07847 0.162784 0)
(-2.10859 0.163386 0)
(-2.13889 0.164389 0)
(-2.16946 0.165759 0)
(-2.20038 0.16746 0)
(-2.23171 0.16945 0)
(-2.26352 0.171683 0)
(-2.29586 0.174111 0)
(-2.32878 0.17668 0)
(-2.36231 0.179336 0)
(-2.39648 0.182018 0)
(-2.43129 0.184664 0)
(-2.46675 0.187209 0)
(-2.50284 0.189586 0)
(-2.53952 0.191725 0)
(-2.57675 0.193555 0)
(-2.61447 0.195006 0)
(-2.65259 0.196004 0)
(-2.69102 0.196477 0)
(-2.72964 0.196354 0)
(-2.76831 0.195564 0)
(-2.80687 0.19404 0)
(-2.84516 0.191714 0)
(-2.88299 0.188523 0)
(-2.92014 0.18441 0)
(-2.95638 0.179318 0)
(-2.99147 0.173198 0)
(-3.02516 0.166007 0)
(-3.05715 0.157707 0)
(-3.08717 0.148268 0)
(-3.1149 0.137666 0)
(-3.14004 0.125887 0)
(-3.16228 0.112921 0)
(-3.18128 0.098771 0)
(-3.1967 0.0834495 0)
(-3.2082 0.0669728 0)
(-3.2155 0.0493469 0)
(-3.2183 0.030577 0)
(-3.21622 0.0107224 0)
(-3.20882 -0.0100437 0)
(-3.19617 -0.0315628 0)
(-3.1779 -0.053805 0)
(-3.15377 -0.0767442 0)
(-3.12354 -0.100338 0)
(-3.08699 -0.124526 0)
(-3.0439 -0.149236 0)
(-2.99409 -0.174375 0)
(-2.93739 -0.199845 0)
(-2.87368 -0.225535 0)
(-2.80284 -0.251332 0)
(-2.72482 -0.277113 0)
(-2.63956 -0.302754 0)
(-2.54705 -0.32811 0)
(-2.44734 -0.353025 0)
(-2.34054 -0.377361 0)
(-2.22674 -0.400995 0)
(-2.10609 -0.423777 0)
(-1.97883 -0.445533 0)
(-1.84521 -0.466149 0)
(-1.70548 -0.485542 0)
(-1.55998 -0.503534 0)
(-1.40911 -0.520005 0)
(-1.25317 -0.534965 0)
(-1.09266 -0.548247 0)
(-0.927973 -0.559809 0)
(-0.759439 -0.569762 0)
(-0.587869 -0.577953 0)
(-0.413033 -0.584633 0)
(-0.236477 -0.589875 0)
(-0.0569645 -0.593427 0)
(0.123289 -0.595335 0)
(0.30211 -0.595264 0)
(0.479445 -0.593071 0)
(0.654498 -0.588782 0)
(0.826756 -0.582321 0)
(0.995847 -0.573741 0)
(1.16131 -0.563069 0)
(1.32297 -0.550272 0)
(1.48088 -0.535505 0)
(1.63496 -0.519312 0)
(1.7849 -0.502155 0)
(1.93037 -0.484335 0)
(2.07105 -0.466055 0)
(2.20673 -0.447462 0)
(2.33723 -0.428675 0)
(2.46245 -0.4098 0)
(2.58231 -0.39093 0)
(2.69679 -0.372153 0)
(2.80589 -0.353547 0)
(2.90964 -0.335184 0)
(3.00809 -0.317128 0)
(3.10133 -0.299436 0)
(3.18944 -0.282158 0)
(3.27254 -0.265336 0)
(3.35074 -0.249007 0)
(3.42418 -0.233201 0)
(3.49301 -0.217942 0)
(3.55738 -0.20325 0)
(3.61744 -0.189141 0)
(3.67336 -0.175624 0)
(3.7253 -0.162709 0)
(3.77345 -0.150398 0)
(3.81797 -0.138694 0)
(3.85904 -0.127593 0)
(3.89683 -0.117091 0)
(3.93151 -0.107183 0)
(3.96327 -0.0978595 0)
(3.99227 -0.08911 0)
(4.01868 -0.0809224 0)
(4.04268 -0.0732828 0)
(4.06441 -0.0661759 0)
(4.08405 -0.0595852 0)
(4.10174 -0.053493 0)
(4.11764 -0.0478805 0)
(4.13189 -0.0427279 0)
(4.14462 -0.0380152 0)
(4.15597 -0.0337211 0)
(4.16608 -0.0298246 0)
(4.17504 -0.0263039 0)
(4.18299 -0.0231377 0)
(4.19002 -0.020304 0)
(4.19623 -0.017782 0)
(4.20173 -0.0155502 0)
(4.20659 -0.0135884 0)
(4.2109 -0.0118762 0)
(4.21473 -0.0103944 0)
(4.21816 -0.00912381 0)
(4.22124 -0.00804651 0)
(4.22404 -0.00714464 0)
(4.2266 -0.00640164 0)
(4.22897 -0.0058011 0)
(4.23121 -0.00532816 0)
(4.23333 -0.00496808 0)
(4.23539 -0.00470762 0)
(4.2374 -0.00453371 0)
(4.23939 -0.00443494 0)
(4.24139 -0.0044 0)
(4.24342 -0.00441925 0)
(4.24548 -0.00448309 0)
(4.2476 -0.00458346 0)
(4.24977 -0.00471218 0)
(4.25202 -0.00486262 0)
(4.25434 -0.00502797 0)
(4.25675 -0.00520287 0)
(4.25923 -0.00538166 0)
(4.2618 -0.00556008 0)
(4.26444 -0.00573348 0)
(4.26717 -0.00589848 0)
(4.26997 -0.0060512 0)
(4.27284 -0.00618892 0)
(4.27578 -0.00630833 0)
(4.27878 -0.00640721 0)
(4.28183 -0.00648278 0)
(4.28492 -0.0065335 0)
(4.28805 -0.00655768 0)
(4.29119 -0.00655588 0)
(4.29434 -0.00653042 0)
(4.29748 -0.00648927 0)
(4.30057 -0.00644691 0)
(4.30349 -0.00642835 0)
(4.30697 -0.00638248 0)
(-0.0740414 0.282344 0)
(-0.147739 0.389006 0)
(-0.230251 0.455397 0)
(-0.306614 0.499043 0)
(-0.378453 0.524436 0)
(-0.447799 0.534998 0)
(-0.515949 0.534607 0)
(-0.583066 0.526717 0)
(-0.648915 0.513823 0)
(-0.713224 0.497657 0)
(-0.775767 0.479443 0)
(-0.83637 0.46007 0)
(-0.894919 0.44019 0)
(-0.951344 0.420288 0)
(-1.00562 0.400718 0)
(-1.05774 0.381739 0)
(-1.10774 0.363529 0)
(-1.15568 0.34621 0)
(-1.20162 0.329853 0)
(-1.24564 0.314499 0)
(-1.28783 0.300158 0)
(-1.32827 0.286825 0)
(-1.36707 0.274481 0)
(-1.40432 0.263097 0)
(-1.44012 0.252642 0)
(-1.47457 0.243079 0)
(-1.50776 0.234374 0)
(-1.53978 0.226495 0)
(-1.57074 0.219411 0)
(-1.60072 0.213093 0)
(-1.62983 0.207518 0)
(-1.65816 0.202659 0)
(-1.6858 0.198497 0)
(-1.71286 0.195009 0)
(-1.73942 0.192176 0)
(-1.76558 0.189978 0)
(-1.79144 0.188394 0)
(-1.81709 0.187401 0)
(-1.84262 0.186975 0)
(-1.86813 0.187088 0)
(-1.89369 0.187708 0)
(-1.9194 0.188801 0)
(-1.94533 0.190329 0)
(-1.97156 0.192247 0)
(-1.99816 0.194509 0)
(-2.02519 0.197061 0)
(-2.0527 0.199848 0)
(-2.08075 0.202808 0)
(-2.10935 0.205876 0)
(-2.13855 0.208982 0)
(-2.16835 0.212053 0)
(-2.19876 0.215014 0)
(-2.22976 0.217785 0)
(-2.26133 0.220285 0)
(-2.29342 0.222431 0)
(-2.32598 0.224136 0)
(-2.35893 0.225317 0)
(-2.39219 0.225887 0)
(-2.42565 0.22576 0)
(-2.45917 0.224853 0)
(-2.49262 0.223082 0)
(-2.52584 0.220369 0)
(-2.55864 0.216637 0)
(-2.59082 0.211814 0)
(-2.62217 0.205833 0)
(-2.65246 0.198633 0)
(-2.68143 0.190161 0)
(-2.70882 0.18037 0)
(-2.73435 0.169222 0)
(-2.75773 0.156686 0)
(-2.77867 0.142741 0)
(-2.79684 0.127378 0)
(-2.81193 0.110595 0)
(-2.82361 0.0924086 0)
(-2.83155 0.0728336 0)
(-2.83548 0.0518728 0)
(-2.8351 0.0295411 0)
(-2.82992 0.00594956 0)
(-2.81984 -0.0186935 0)
(-2.80466 -0.0442475 0)
(-2.78411 -0.0706889 0)
(-2.75791 -0.0979832 0)
(-2.72584 -0.126076 0)
(-2.68766 -0.154896 0)
(-2.64315 -0.184353 0)
(-2.59213 -0.214337 0)
(-2.53443 -0.244726 0)
(-2.46992 -0.275388 0)
(-2.39848 -0.306184 0)
(-2.32006 -0.336972 0)
(-2.23459 -0.367607 0)
(-2.14204 -0.39791 0)
(-2.04248 -0.42769 0)
(-1.93599 -0.456776 0)
(-1.82267 -0.485036 0)
(-1.70265 -0.512296 0)
(-1.57615 -0.538323 0)
(-1.44345 -0.562971 0)
(-1.30474 -0.586187 0)
(-1.16037 -0.607733 0)
(-1.01076 -0.627424 0)
(-0.856093 -0.645359 0)
(-0.697014 -0.661342 0)
(-0.533863 -0.675258 0)
(-0.366603 -0.687367 0)
(-0.196957 -0.697482 0)
(-0.0230712 -0.705505 0)
(0.151575 -0.711409 0)
(0.326406 -0.714901 0)
(0.500866 -0.715883 0)
(0.67416 -0.714421 0)
(0.845715 -0.710464 0)
(1.01498 -0.704059 0)
(1.18148 -0.695206 0)
(1.34481 -0.683998 0)
(1.50462 -0.670518 0)
(1.66069 -0.654845 0)
(1.81295 -0.637197 0)
(1.96126 -0.618001 0)
(2.10539 -0.597656 0)
(2.24503 -0.576475 0)
(2.37994 -0.554693 0)
(2.5099 -0.532498 0)
(2.63476 -0.510046 0)
(2.75442 -0.487473 0)
(2.86882 -0.4649 0)
(2.97794 -0.442437 0)
(3.08178 -0.420181 0)
(3.18039 -0.398221 0)
(3.27381 -0.376635 0)
(3.36213 -0.355491 0)
(3.44544 -0.334849 0)
(3.52386 -0.314759 0)
(3.59751 -0.295265 0)
(3.66653 -0.276402 0)
(3.73105 -0.2582 0)
(3.79124 -0.240681 0)
(3.84725 -0.223864 0)
(3.89924 -0.207761 0)
(3.94739 -0.19238 0)
(3.99185 -0.177726 0)
(4.03281 -0.1638 0)
(4.07044 -0.150599 0)
(4.1049 -0.138118 0)
(4.13639 -0.126349 0)
(4.16505 -0.11528 0)
(4.19108 -0.1049 0)
(4.21462 -0.0951927 0)
(4.23586 -0.0861415 0)
(4.25495 -0.0777278 0)
(4.27204 -0.0699313 0)
(4.28729 -0.0627305 0)
(4.30085 -0.0561025 0)
(4.31285 -0.0500234 0)
(4.32344 -0.0444687 0)
(4.33274 -0.0394127 0)
(4.34087 -0.03483 0)
(4.34796 -0.0306941 0)
(4.35411 -0.0269793 0)
(4.35942 -0.0236593 0)
(4.364 -0.0207087 0)
(4.36793 -0.018102 0)
(4.37131 -0.0158147 0)
(4.37419 -0.0138225 0)
(4.37667 -0.0121024 0)
(4.37879 -0.0106314 0)
(4.38064 -0.00938809 0)
(4.38225 -0.00835129 0)
(4.38368 -0.00750123 0)
(4.38497 -0.0068184 0)
(4.38617 -0.00628517 0)
(4.3873 -0.00588405 0)
(4.3884 -0.00559937 0)
(4.38949 -0.00541568 0)
(4.39061 -0.00531942 0)
(4.39176 -0.00529724 0)
(4.39297 -0.00533776 0)
(4.39424 -0.00542969 0)
(4.39559 -0.00556355 0)
(4.39702 -0.00572979 0)
(4.39855 -0.00592063 0)
(4.40017 -0.00612816 0)
(4.4019 -0.00634615 0)
(4.40372 -0.00656807 0)
(4.40563 -0.00678899 0)
(4.40765 -0.00700352 0)
(4.40976 -0.00720778 0)
(4.41196 -0.00739728 0)
(4.41424 -0.00756888 0)
(4.4166 -0.00771872 0)
(4.41903 -0.00784418 0)
(4.42153 -0.00794188 0)
(4.42408 -0.00800974 0)
(4.42668 -0.00804515 0)
(4.42931 -0.00804738 0)
(4.43195 -0.00801634 0)
(4.43458 -0.00795551 0)
(4.43718 -0.0078696 0)
(4.43961 -0.00776536 0)
(4.44248 -0.00754064 0)
(-0.0747567 0.379236 0)
(-0.145934 0.473176 0)
(-0.22332 0.530114 0)
(-0.295258 0.567505 0)
(-0.361447 0.589053 0)
(-0.424144 0.597323 0)
(-0.484845 0.595344 0)
(-0.544021 0.585985 0)
(-0.601719 0.571515 0)
(-0.657855 0.553621 0)
(-0.712321 0.533549 0)
(-0.765022 0.512223 0)
(-0.815891 0.490332 0)
(-0.864885 0.468396 0)
(-0.91199 0.446798 0)
(-0.957213 0.425817 0)
(-1.00058 0.405654 0)
(-1.04213 0.386441 0)
(-1.08192 0.368263 0)
(-1.12001 0.351165 0)
(-1.15647 0.335165 0)
(-1.19137 0.320259 0)
(-1.22478 0.306428 0)
(-1.25679 0.293646 0)
(-1.28747 0.28188 0)
(-1.3169 0.271094 0)
(-1.34515 0.261253 0)
(-1.37232 0.252323 0)
(-1.39847 0.244274 0)
(-1.4237 0.237077 0)
(-1.44808 0.230705 0)
(-1.4717 0.225134 0)
(-1.49465 0.220343 0)
(-1.51702 0.21631 0)
(-1.53889 0.213015 0)
(-1.56035 0.210437 0)
(-1.58149 0.208554 0)
(-1.6024 0.207341 0)
(-1.62318 0.206772 0)
(-1.6439 0.206817 0)
(-1.66466 0.207441 0)
(-1.68553 0.208606 0)
(-1.70659 0.210268 0)
(-1.72792 0.21238 0)
(-1.74958 0.214887 0)
(-1.77164 0.217731 0)
(-1.79414 0.220849 0)
(-1.81714 0.22417 0)
(-1.84068 0.227622 0)
(-1.86477 0.231125 0)
(-1.88944 0.234598 0)
(-1.91468 0.237955 0)
(-1.9405 0.241104 0)
(-1.96686 0.243953 0)
(-1.99373 0.246407 0)
(-2.02106 0.24837 0)
(-2.04879 0.249742 0)
(-2.07682 0.250426 0)
(-2.10507 0.250323 0)
(-2.13341 0.249335 0)
(-2.1617 0.247368 0)
(-2.18981 0.244328 0)
(-2.21755 0.240126 0)
(-2.24473 0.234679 0)
(-2.27116 0.227907 0)
(-2.29661 0.219738 0)
(-2.32085 0.210109 0)
(-2.34361 0.198964 0)
(-2.36463 0.186255 0)
(-2.38363 0.171947 0)
(-2.40032 0.156014 0)
(-2.4144 0.13844 0)
(-2.42556 0.119225 0)
(-2.43347 0.0983842 0)
(-2.43783 0.0759317 0)
(-2.43839 0.0518642 0)
(-2.43481 0.0262097 0)
(-2.42652 -0.000851049 0)
(-2.41373 -0.0290848 0)
(-2.39604 -0.0583978 0)
(-2.3732 -0.0887622 0)
(-2.34495 -0.120135 0)
(-2.31104 -0.152451 0)
(-2.27125 -0.185626 0)
(-2.22535 -0.219557 0)