/*--------------------------------*- C++ -*----------------------------------*\
  =========                 |
  \\      /  F ield         | OpenFOAM: The Open Source CFD Toolbox
   \\    /   O peration     | Website:  https://openfoam.org
    \\  /    A nd           | Version:  7
     \\/     M anipulation  |
\*---------------------------------------------------------------------------*/
FoamFile
{
    version     2.0;
    format      ascii;
    class       volScalarField;
    location    "2";
    object      p;
}
// * * * * * * * * * * * * * * * * * * * * * * * * * * * * * * * * * * * * * //

dimensions      [0 2 -2 0 0 0 0];

internalField   nonuniform List<scalar> 
900
(
1.14346e-08
-0.000233757
-0.000540477
-0.000811356
-0.000986475
-0.00102872
-0.000922345
-0.000663794
-0.000255463
0.000297319
0.000987415
0.00180585
0.00274105
0.00377777
0.00489591
0.00606968
0.0072672
0.00845072
0.00957798
0.0106045
0.0114868
0.0121866
0.0126752
0.0129384
0.0129796
0.0128237
0.0125194
0.0121396
0.0117777
0.0115619
0.000231048
-6.40802e-06
-0.00022923
-0.000407018
-0.000504168
-0.000492853
-0.000359051
-9.73665e-05
0.000292791
0.000808904
0.00144602
0.00219675
0.00305073
0.00399392
0.00500776
0.00606862
0.0071479
0.00821205
0.00922412
0.0101459
0.0109408
0.0115772
0.0120329
0.012298
0.0123783
0.0122965
0.0120931
0.0118252
0.0115578
0.0113453
0.000545282
0.000209597
-1.95232e-05
-0.000171676
-0.000240209
-0.000206439
-6.08233e-05
0.000200281
0.000577616
0.00106973
0.00167309
0.00238181
0.00318706
0.00407637
0.0050328
0.00603449
0.00705495
0.00806241
0.00902215
0.009898
0.0106553
0.0112644
0.0117043
0.011966
0.0120549
0.0119917
0.011812
0.0115645
0.0112892
0.0109897
0.000834377
0.000378635
0.000108024
-5.08481e-05
-0.000115649
-7.61387e-05
7.18655e-05
0.000328902
0.000694718
0.00116823
0.00174704
0.00242684
0.0032006
0.00405766
0.00498289
0.00595604
0.00695168
0.00793896
0.00888335
0.00974832
0.0104983
0.0111022
0.0115377
0.0117945
0.0118763
0.0118021
0.011605
0.0113299
0.0110007
0.0105882
0.00103033
0.000453999
0.000131927
-4.68321e-05
-0.000119891
-8.39422e-05
6.02615e-05
0.000310155
0.000664352
0.00112202
0.00168191
0.00234142
0.0030955
0.00393552
0.00484823
0.00581484
0.00681057
0.00780469
0.00876155
0.00964249
0.0104089
0.0110264
0.0114689
0.011723
0.0117907
0.0116893
0.0114518
0.0111238
0.0107205
0.0101898
0.00107983
0.000390424
1.4025e-05
-0.000191801
-0.000280798
-0.000255059
-0.000119445
0.000120834
0.00046347
0.000908013
0.0014545
0.0021022
0.00284825
0.00368627
0.00460497
0.005587
0.00660798
0.00763653
0.00863473
0.00956023
0.0103694
0.0110221
0.0114865
0.0117446
0.0117952
0.011655
0.011359
0.0109577
0.0104651
0.009814
0.000945472
0.00015204
-0.000278331
-0.000514783
-0.000624341
-0.000613299
-0.0004898
-0.000261128
6.98687e-05
0.000503392
0.00104101
0.00168412
0.00243237
0.0032819
0.00422368
0.00524193
0.00631268
0.00740342
0.00847313
0.00947424
0.0103561
0.0110702
0.0115765
0.0118499
0.0118851
0.0116982
0.0113285
0.010835
0.0102365
0.00945708
0.000599044
-0.000290903
-0.000773753
-0.0010423
-0.0011751
-0.00118183
-0.00107328
-0.000858283
-0.000539822
-0.0001167
0.000414506
0.00105771
0.00181546
0.00268694
0.00366594
0.00473871
0.00588208
0.00706249
0.00823521
0.00934629
0.0103359
0.0111444
0.01172
0.0120274
0.0120547
0.0118171
0.0113594
0.0107537
0.0100278
0.00909996
1.68218e-05
-0.000964818
-0.00149896
-0.00180046
-0.00195846
-0.00198567
-0.00189512
-0.00169679
-0.00139348
-0.000982658
-0.000458682
0.000185314
0.000955371
0.00185447
0.00288011
0.00402162
0.00525753
0.00655392
0.00786256
0.00912226
0.010262
0.0112075
0.0118909
0.0122618
0.0122979
0.0120108
0.0114523
0.0107107
0.00982739
0.00871435
-0.000822918
-0.00189422
-0.00247945
-0.00281501
-0.00300044
-0.00305137
-0.00298295
-0.00280617
-0.00252342
-0.00213063
-0.00161957
-0.000979958
-0.000201536
0.000723479
0.00179767
0.00301511
0.00435765
0.0057929
0.0072703
0.00872166
0.0100631
0.0112018
0.0120479
0.0125289
0.0126046
0.012279
0.0116094
0.0107047
0.00962299
0.00826704
-0.00194128
-0.00310274
-0.00374004
-0.0041115
-0.00432737
-0.00440643
-0.00436613
-0.00421858
-0.00396578
-0.003602
-0.00311628
-0.00249444
-0.00172127
-0.000782974
0.000329934
0.00161846
0.00307039
0.00465983
0.0063354
0.00802395
0.00962835
0.0110338
0.0121207
0.0127839
0.0129544
0.0126187
0.0118358
0.0107385
0.00940497
0.00772344
-0.00335947
-0.00461382
-0.00530539
-0.00571547
-0.0059658
-0.00607892
-0.00607506
-0.00596786
-0.00575926
-0.0054421
-0.00500266
-0.00442269
-0.00368143
-0.00275783
-0.00163359
-0.000297762
0.00124706
0.00299151
0.00488401
0.00685226
0.00878857
0.0105537
0.0119901
0.0129457
0.0133045
0.0130184
0.0121382
0.0108217
0.00917095
0.0070518
-0.00509919
-0.00645123
-0.00720037
-0.00765253
-0.00794221
-0.00809665
-0.00813984
-0.00808772
-0.00794287
-0.00769731
-0.00733503
-0.00683395
-0.00616749
-0.00530655
-0.00422195
-0.00288727
-0.00128381
0.000578504
0.00268098
0.00495696
0.00729409
0.00952996
0.0114615
0.0128716
0.0135704
0.0134465
0.0125214
0.0109733
0.00893091
0.0062288
-0.00718278
-0.00863956
-0.00945042
-0.00994831
-0.0102824
-0.010486
-0.0105883
-0.0106088
-0.0105521
-0.0104103
-0.0101663
-0.00979521
-0.00926514
-0.00853868
-0.00757411
-0.00632749
-0.00475817
-0.00284216
-0.000573807
0.00200601
0.00479717
0.00762341
0.0102332
0.0123246
0.0135979
0.0138323
0.0129799
0.0112225
0.00871412
0.00524765
-0.00963345
-0.0112048
-0.0120821
-0.0126286
-0.0130106
-0.01327
-0.013443
-0.0135547
-0.0136132
-0.0136128
-0.0135371
-0.0133601
-0.0130465
-0.0125517
-0.0118211
-0.0107904
-0.00939022
-0.00755493
-0.00522724
-0.00240403
0.000852773
0.00437537
0.00787203
0.010941
0.0131289
0.0140385
0.0134843
0.0116093
0.00857858
0.00413063
-0.0124759
-0.0141758
-0.0151241
-0.0157193
-0.0161491
-0.0164665
-0.016718
-0.0169366
-0.0171365
-0.0173165
-0.0174634
-0.0175534
-0.0175509
-0.0174071
-0.0170562
-0.0164137
-0.0153735
-0.0138131
-0.0116203
-0.00870005
-0.0050416
-0.000766821
0.00382006
0.00821725
0.0117754
0.013835
0.013965
0.0121847
0.0086258
0.00294958
-0.0157379
-0.0175863
-0.0186091
-0.0192477
-0.0197169
-0.0200856
-0.0204141
-0.0207472
-0.0211075
-0.0215014
-0.0219224
-0.0223528
-0.0227612
-0.0230993
-0.0232949
-0.0232444
-0.0228052
-0.0217941
-0.0200025
-0.0172315
-0.0133437
-0.00835681
-0.00253435
0.00355061
0.00902969
0.0128884
0.0143019
0.0130164
0.00902514
0.00186034
-0.0194534
-0.0214795
-0.0225773
-0.0232433
-0.0237293
-0.0241266
-0.0245148
-0.0249538
-0.0254783
-0.0261051
-0.0268381
-0.0276699
-0.028579
-0.0295238
-0.0304318
-0.0311858
-0.0316088
-0.0314523
-0.0303998
-0.0281202
-0.0242949
-0.0187698
-0.0116885
-0.00362606
0.0043513
0.0108042
0.0143413
0.0142089
0.0100537
0.0011593
-0.0236686
-0.0259151
-0.0270818
-0.0277412
-0.028198
-0.0285759
-0.0289807
-0.0294921
-0.0301597
-0.0310132
-0.0320699
-0.0333368
-0.0348074
-0.0364532
-0.0382089
-0.0399514
-0.041475
-0.0424709
-0.042519
-0.0411013
-0.0377152
-0.0319605
-0.0237653
-0.0135966
-0.00263212
0.00726018
0.0139703
0.0159538
0.0121604
0.00137256
-0.0284528
-0.0309822
-0.0321979
-0.0327854
-0.0331301
-0.0334031
-0.0337454
-0.0342609
-0.035016
-0.0360548
-0.0374094
-0.0391036
-0.0411493
-0.043536
-0.0462116
-0.0490541
-0.0518378
-0.0541998
-0.0556151
-0.0554002
-0.0528412
-0.0472416
-0.0382331
-0.0260462
-0.0118185
0.00225476
0.0132834
0.0186356
0.0160629
0.00338991
-0.0339199
-0.0368202
-0.0380363
-0.0384342
-0.0385274
-0.038557
-0.03871
-0.0391178
-0.0398637
-0.0410049
-0.0425875
-0.0446515
-0.0472278
-0.050325
-0.0539062
-0.0578544
-0.0619299
-0.0657249
-0.0686234
-0.0697868
-0.0683246
-0.0632113
-0.0537423
-0.0398038
-0.0223084
-0.00356704
0.012848
0.0230128
0.0228893
0.00865757
-0.040268
-0.0436542
-0.0447625
-0.044764
-0.0443819
-0.0439584
-0.0437368
-0.0438767
-0.0444742
-0.0455948
-0.0472938
-0.0496237
-0.05263
-0.0563368
-0.060719
-0.0656626
-0.070914
-0.0760265
-0.0803212
-0.0828759
-0.0824585
-0.0779325
-0.0682258
-0.052817
-0.0322359
-0.00863464
0.0140092
0.0304707
0.0343695
0.019447
-0.0478606
-0.0518545
-0.052622
-0.0518696
-0.0506642
-0.0494862
-0.0486396
-0.0483049
-0.04858
-0.0495283
-0.051205
-0.0536664
-0.0569644
-0.061129
-0.0661372
-0.0718683
-0.078048
-0.0841883
-0.0895467
-0.0931008
-0.0934991
-0.0893482
-0.079308
-0.0624782
-0.0389316
-0.0104139
0.0190859
0.043277
0.0530867
0.0392305
-0.0573988
-0.0620349
-0.0619669
-0.0598508
-0.0572973
-0.0549529
-0.0531667
-0.0521161
-0.0518791
-0.0524982
-0.0540137
-0.0564716
-0.0599168
-0.0643711
-0.0697984
-0.0760558
-0.0828323
-0.0895846
-0.0955213
-0.0995906
-0.100184
-0.0958076
-0.0849051
-0.0662534
-0.0394823
-0.00578142
0.0312485
0.0647057
0.0827964
0.0732012
-0.070307
-0.075212
-0.0732579
-0.0687581
-0.0640958
-0.0600532
-0.0569632
-0.0549489
-0.054028
-0.0541927
-0.0554447
-0.057801
-0.0612814
-0.0658817
-0.0715351
-0.0780596
-0.0850969
-0.0920475
-0.0980223
-0.101811
-0.101852
-0.0964163
-0.0837616
-0.062398
-0.031564
0.00815171
0.0538967
0.0988083
0.12867
0.128747
-0.0896337
-0.0930616
-0.0869737
-0.0784396
-0.0706259
-0.0642496
-0.059485
-0.0563053
-0.0546016
-0.0542701
-0.055241
-0.0574772
-0.0609518
-0.0656153
-0.0713516
-0.0779222
-0.0849034
-0.0916209
-0.0970946
-0.100008
-0.0987124
-0.0912956
-0.0758274
-0.0505376
-0.0142655
0.0329828
0.0895589
0.149512
0.196858
0.21523
-0.122103
-0.118263
-0.103456
-0.0883519
-0.0760368
-0.0666415
-0.0599135
-0.0555079
-0.0530814
-0.0523662
-0.0531781
-0.0553958
-0.058925
-0.0636554
-0.0694088
-0.0758804
-0.0825737
-0.0887356
-0.0933009
-0.0948604
-0.0916417
-0.0815653
-0.0624431
-0.0321328
0.0111043
0.0681575
0.138638
0.21872
0.292692
0.344929
-0.182982
-0.153507
-0.122308
-0.0971573
-0.0787473
-0.0658028
-0.0571451
-0.05179
-0.0489926
-0.0482381
-0.0491894
-0.0516238
-0.0553729
-0.060264
-0.06606
-0.072395
-0.0787093
-0.0841831
-0.0876814
-0.0877194
-0.0824247
-0.0696293
-0.0467778
-0.0112164
0.039705
0.10842
0.196931
0.30435
0.41919
0.545234
-0.315112
-0.193908
-0.134309
-0.0965877
-0.0722738
-0.0570422
-0.0479827
-0.0430502
-0.0409686
-0.040996
-0.0426945
-0.0457884
-0.0500761
-0.0553596
-0.0613775
-0.0677401
-0.0738644
-0.0789098
-0.0817158
-0.0807553
-0.0741117
-0.0596497
-0.0345294
0.00441456
0.0609638
0.139948
0.24797
0.393238
0.582025
0.871843
-0.641413
-0.229515
-0.102357
-0.0611536
-0.0401954
-0.0291321
-0.0245893
-0.0237417
-0.0249707
-0.0275863
-0.0312965
-0.0359503
-0.041441
-0.0476436
-0.054355
-0.061235
-0.0677471
-0.0731027
-0.0762137
-0.075673
-0.069709
-0.0558516
-0.0315485
0.00647669
0.0625824
0.143485
0.261825
0.445754
0.752072
1.34617
)
;

boundaryField
{
    movingWall
    {
        type            zeroGradient;
    }
    fixedWalls
    {
        type            zeroGradient;
    }
    frontAndBack
    {
        type            empty;
    }
}


// ************************************************************************* //
