/*--------------------------------*- C++ -*----------------------------------*\
  =========                 |
  \\      /  F ield         | OpenFOAM: The Open Source CFD Toolbox
   \\    /   O peration     | Website:  https://openfoam.org
    \\  /    A nd           | Version:  7
     \\/     M anipulation  |
\*---------------------------------------------------------------------------*/
FoamFile
{
    version     2.0;
    format      ascii;
    class       surfaceScalarField;
    location    "2";
    object      phi;
}
// * * * * * * * * * * * * * * * * * * * * * * * * * * * * * * * * * * * * * //

dimensions      [0 3 -1 0 0 0 0];

internalField   nonuniform List<scalar> 
1740
(
3.34904e-07
-3.34917e-07
-2.4235e-07
5.77259e-07
-1.85476e-06
1.61241e-06
-4.31106e-06
2.45631e-06
-7.35141e-06
3.04035e-06
-1.07376e-05
3.38618e-06
-1.42758e-05
3.53816e-06
-1.78147e-05
3.53891e-06
-2.12352e-05
3.42057e-06
-2.44389e-05
3.20367e-06
-2.73378e-05
2.89891e-06
-2.98479e-05
2.51004e-06
-3.18849e-05
2.03708e-06
-3.33647e-05
1.47971e-06
-3.42052e-05
8.40528e-07
-3.43332e-05
1.28036e-07
-3.36919e-05
-6.41298e-07
-3.22517e-05
-1.44026e-06
-3.00204e-05
-2.23128e-06
-2.70533e-05
-2.96709e-06
-2.346e-05
-3.59331e-06
-1.94069e-05
-4.05305e-06
-1.51143e-05
-4.29262e-06
-1.08463e-05
-4.26804e-06
-6.89511e-06
-3.95115e-06
-3.55956e-06
-3.33556e-06
-1.11383e-06
-2.44573e-06
2.44272e-07
-1.35811e-06
4.98417e-07
-2.54145e-07
4.98411e-07
-5.68376e-07
2.33464e-07
-3.17636e-06
3.18524e-06
-7.92314e-06
6.35919e-06
-1.44364e-05
8.96952e-06
-2.22369e-05
1.08409e-05
-3.08416e-05
1.19909e-05
-3.98171e-05
1.25136e-05
-4.87952e-05
1.2517e-05
-5.74666e-05
1.2092e-05
-6.5566e-05
1.13031e-05
-7.28564e-05
1.01894e-05
-7.91166e-05
8.77021e-06
-8.41343e-05
7.05477e-06
-8.77062e-05
5.05159e-06
-8.96443e-05
2.7787e-06
-8.97898e-05
2.73466e-07
-8.80281e-05
-2.40292e-06
-8.43136e-05
-5.15482e-06
-7.86893e-05
-7.85555e-06
-7.13071e-05
-1.03492e-05
-6.24406e-05
-1.24598e-05
-5.24881e-05
-1.40056e-05
-4.19625e-05
-1.48182e-05
-3.14667e-05
-1.47639e-05
-2.1652e-05
-1.37659e-05
-1.31614e-05
-1.18262e-05
-6.55333e-06
-9.05377e-06
-2.20617e-06
-5.70527e-06
-2.04791e-07
-2.25553e-06
2.93622e-07
-1.66014e-06
1.89361e-06
-6.55829e-06
8.08341e-06
-1.43449e-05
1.41458e-05
-2.44733e-05
1.90979e-05
-3.63029e-05
2.26704e-05
-4.9194e-05
2.4882e-05
-6.25594e-05
2.5879e-05
-7.58836e-05
2.58412e-05
-8.87203e-05
2.49287e-05
-0.000100679
2.32615e-05
-0.000111407
2.09176e-05
-0.000120578
1.79417e-05
-0.000127885
1.43611e-05
-0.000133036
1.02027e-05
-0.00013577
5.51245e-06
-0.00013587
3.73722e-07
-0.000133186
-5.08666e-06
-0.000127668
-1.06731e-05
-0.000119389
-1.61344e-05
-0.000108574
-2.11639e-05
-9.56162e-05
-2.54179e-05
-8.10776e-05
-2.85443e-05
-6.56759e-05
-3.02199e-05
-5.02469e-05
-3.01929e-05
-3.56854e-05
-2.83273e-05
-2.28653e-05
-2.46463e-05
-1.25414e-05
-1.93777e-05
-5.24025e-06
-1.30064e-05
-1.14341e-06
-6.35237e-06
-8.49789e-07
-2.66935e-06
4.56296e-06
-9.73226e-06
1.51463e-05
-2.03765e-05
2.47901e-05
-3.37908e-05
3.25122e-05
-4.91653e-05
3.8045e-05
-6.57315e-05
4.14481e-05
-8.2791e-05
4.29386e-05
-9.9727e-05
4.27771e-05
-0.000115998
4.11998e-05
-0.000131125
3.83882e-05
-0.000144672
3.44648e-05
-0.000156235
2.95051e-05
-0.000165433
2.35592e-05
-0.00017191
1.66787e-05
-0.000175342
8.94491e-06
-0.000175465
4.97254e-07
-0.000172097
-8.45536e-06
-0.000165172
-1.75982e-05
-0.000154777
-2.65289e-05
-0.000141184
-3.47574e-05
-0.000124866
-4.17356e-05
-0.000106507
-4.69027e-05
-8.69827e-05
-4.97446e-05
-6.73119e-05
-4.98637e-05
-4.85891e-05
-4.70502e-05
-3.1886e-05
-4.13494e-05
-1.81419e-05
-3.31218e-05
-8.05381e-06
-2.30945e-05
-1.99143e-06
-1.24148e-05
-2.84122e-06
-3.53627e-06
8.09924e-06
-1.2561e-05
2.4171e-05
-2.5824e-05
3.80531e-05
-4.22302e-05
4.89184e-05
-6.07873e-05
5.6602e-05
-8.06036e-05
6.12644e-05
-0.00010089
6.32251e-05
-0.000120956
6.28426e-05
-0.000140194
6.04382e-05
-0.000158065
5.62596e-05
-0.000174077
5.04763e-05
-0.000187767
4.31955e-05
-0.000198698
3.44903e-05
-0.000206456
2.44368e-05
-0.000210664
1.31524e-05
-0.000211002
8.35187e-07
-0.000207241
-1.22158e-05
-0.000199284
-2.55558e-05
-0.000187202
-3.86105e-05
-0.000171281
-5.06785e-05
-0.000152046
-6.09712e-05
-0.000130272
-6.86766e-05
-0.00010697
-7.30461e-05
-8.33366e-05
-7.34973e-05
-6.06674e-05
-6.97194e-05
-4.02485e-05
-6.17682e-05
-2.32307e-05
-5.01396e-05
-1.05143e-05
-3.58108e-05
-2.67701e-06
-2.02521e-05
-5.51823e-06
-4.27597e-06
1.23752e-05
-1.5054e-05
3.49491e-05
-3.07006e-05
5.36996e-05
-4.98449e-05
6.80627e-05
-7.13102e-05
7.80673e-05
-9.40835e-05
8.40377e-05
-0.000117295
8.64369e-05
-0.000140198
8.57451e-05
-0.000162141
8.23811e-05
-0.000182546
7.66645e-05
-0.000200882
6.88123e-05
-0.000216646
5.89601e-05
-0.000229355
4.71989e-05
-0.00023854
3.36217e-05
-0.000243762
1.83745e-05
-0.000244634
1.70771e-06
-0.000240859
-1.59912e-05
-0.000232271
-3.41439e-05
-0.000218892
-5.19895e-05
-0.000200982
-6.85879e-05
-0.000179085
-8.28688e-05
-0.000154046
-9.37152e-05
-0.000127009
-0.000100083
-9.9362e-05
-0.000101145
-7.264e-05
-9.64414e-05
-4.83951e-05
-8.60131e-05
-2.80438e-05
-7.0491e-05
-1.27296e-05
-5.1125e-05
-3.23732e-06
-2.97444e-05
-8.75556e-06
-4.92124e-06
1.72965e-05
-1.72793e-05
4.73072e-05
-3.51119e-05
7.15323e-05
-5.67933e-05
8.97441e-05
-8.0968e-05
0.000102242
-0.000106506
0.000109576
-0.000132466
0.000112397
-0.000158056
0.000111335
-0.000182598
0.000106923
-0.000205491
9.95583e-05
-0.000226185
8.95055e-05
-0.000244146
7.69218e-05
-0.000258852
6.19043e-05
-0.000269778
4.45483e-05
-0.000276415
2.50112e-05
-0.000278286
3.57837e-06
-0.000274989
-1.92874e-05
-0.000266253
-4.28803e-05
-0.000251998
-6.62443e-05
-0.000232412
-8.81742e-05
-0.000208011
-0.000107269
-0.00017969
-0.000122036
-0.000148724
-0.000131049
-0.000116725
-0.000133144
-8.55321e-05
-0.000127635
-5.70446e-05
-0.000114501
-3.30283e-05
-9.45072e-05
-1.49295e-05
-6.92238e-05
-3.74866e-06
-4.09252e-05
-1.25042e-05
-5.50495e-06
2.28014e-05
-1.93197e-05
6.11219e-05
-3.91948e-05
9.14074e-05
-6.32711e-05
0.00011382
-9.00247e-05
0.000128996
-0.000118217
0.000137768
-0.000146841
0.000141021
-0.000175074
0.000139568
-0.000202225
0.000134074
-0.000227689
0.000125022
-0.000250907
0.000112723
-0.000271331
9.73461e-05
-0.000288403
7.89765e-05
-0.000301544
5.7689e-05
-0.000310157
3.36241e-05
-0.000313651
7.07258e-06
-0.000311484
-2.14549e-05
-0.000303219
-5.11449e-05
-0.000288616
-8.08476e-05
-0.00026772
-0.00010907
-0.000240966
-0.000134024
-0.000209252
-0.00015375
-0.000173983
-0.000166318
-0.000137034
-0.000170093
-0.000100628
-0.00016404
-6.71301e-05
-0.000147999
-3.87771e-05
-0.00012286
-1.74153e-05
-9.05856e-05
-4.30258e-06
-5.40379e-05
-1.68068e-05
-6.05449e-06
2.88559e-05
-2.12526e-05
7.632e-05
-4.30831e-05
0.000113238
-6.947e-05
0.000140207
-9.87317e-05
0.000158257
-0.000129528
0.000168565
-0.0001608
0.000172293
-0.000191706
0.000170473
-0.000221557
0.000163925
-0.000249761
0.000153227
-0.000275769
0.000138732
-0.000299031
0.000120608
-0.000318965
9.89098e-05
-0.000334933
7.36572e-05
-0.000346244
4.49349e-05
-0.000352165
1.29938e-05
-0.000351967
-2.16529e-05
-0.000344989
-5.81229e-05
-0.000330746
-9.50903e-05
-0.000309056
-0.00013076
-0.000280179
-0.000162901
-0.000244956
-0.000188973
-0.000204892
-0.000206381
-0.000162158
-0.000212827
-0.000119462
-0.000206736
-7.97848e-05
-0.000187676
-4.60123e-05
-0.000156633
-2.05473e-05
-0.000116051
-5.00191e-06
-6.95832e-05
-2.18087e-05
-6.5912e-06
3.54471e-05
-2.31428e-05
9.28717e-05
-4.68926e-05
0.000136988
-7.55563e-05
0.000168871
-0.000107302
0.000190003
-0.000140699
0.000201961
-0.000174644
0.000206238
-0.000208292
0.000204122
-0.000240977
0.000196609
-0.000272138
0.000184388
-0.000301258
0.000167851
-0.000327802
0.000147153
-0.000351179
0.000122287
-0.000370702
9.31807e-05
-0.000385578
5.98108e-05
-0.00039491
2.23257e-05
-0.000397738
-1.8825e-05
-0.000393104
-6.27568e-05
-0.000380185
-0.000108009
-0.000358454
-0.000152492
-0.000327877
-0.000193478
-0.000289126
-0.000227723
-0.000243747
-0.000251761
-0.000194212
-0.000262361
-0.000143817
-0.000257132
-9.63502e-05
-0.000235143
-5.55952e-05
-0.000197388
-2.47524e-05
-0.000146893
-5.96507e-06
-8.83705e-05
-2.77738e-05
-7.13119e-06
4.25783e-05
-2.50421e-05
0.000110783
-5.07169e-05
0.000162662
-8.16627e-05
0.000199817
-0.0001159
0.000224241
-0.000151913
0.000237973
-0.000188569
0.000242895
-0.000225037
0.000240589
-0.00026069
0.000232263
-0.000295026
0.000218723
-0.000327582
0.000200407
-0.000357868
0.000177439
-0.000385305
0.000149724
-0.000409175
0.00011705
-0.000428585
7.92209e-05
-0.000442462
3.62025e-05
-0.000449584
-1.17022e-05
-0.000448614
-6.37274e-05
-0.00043829
-0.000118333
-0.0004176
-0.000173182
-0.000386055
-0.000225023
-0.000343999
-0.00026978
-0.000292888
-0.000302872
-0.000235462
-0.000319787
-0.000175683
-0.000316911
-0.000118373
-0.000292452
-6.85396e-05
-0.000247221
-3.05375e-05
-0.000184896
-7.33227e-06
-0.000111576
-3.5106e-05
-7.6868e-06
5.02651e-05
-2.69913e-05
0.000130087
-5.46295e-05
0.000190301
-8.78888e-05
0.000233076
-0.000124639
0.000260991
-0.000163282
0.000276616
-0.000202668
0.000282281
-0.000241996
0.000279917
-0.000280705
0.000270972
-0.000318375
0.000256393
-0.000354631
0.000236663
-0.000389059
0.000211868
-0.000421126
0.000181791
-0.00045011
0.000146034
-0.000475042
0.000104153
-0.000494666
5.58265e-05
-0.000507504
1.13644e-06
-0.00051174
-5.94911e-05
-0.000505601
-0.000124472
-0.000487428
-0.000191355
-0.00045608
-0.000256371
-0.00041135
-0.00031451
-0.000354404
-0.000359818
-0.000288118
-0.000386074
-0.000217145
-0.000387884
-0.00014756
-0.000362036
-8.60078e-05
-0.000308774
-3.84987e-05
-0.000232405
-9.27091e-06
-0.000140804
-4.4377e-05
-8.2686e-06
5.85337e-05
-2.90258e-05
0.000150844
-5.86912e-05
0.000219966
-9.43096e-05
0.000268694
-0.000133588
0.000300269
-0.000174846
0.000317875
-0.000216927
0.000324363
-0.000259077
0.000322067
-0.000300824
0.000312718
-0.00034186
0.000297429
-0.000381933
0.000276736
-0.000420743
0.000250677
-0.000457845
0.000218893
-0.000492556
0.000180745
-0.000523871
0.000135468
-0.000550404
8.23593e-05
-0.000570297
2.103e-05
-0.000581436
-4.83524e-05
-0.000581323
-0.000124585
-0.00056754
-0.000205139
-0.000538081
-0.000285829
-0.000491916
-0.000360675
-0.000429619
-0.000422115
-0.000353943
-0.00046175
-0.000270128
-0.000471699
-0.000185658
-0.000446506
-0.000109275
-0.000385157
-4.93206e-05
-0.000292359
-1.19796e-05
-0.000178145
-5.63565e-05
-8.88812e-06
6.74218e-05
-3.11827e-05
0.000173139
-6.2962e-05
0.000251745
-0.00010099
0.000306723
-0.000142788
0.000342067
-0.000186591
0.000361678
-0.000231238
0.00036901
-0.000276041
0.00036687
-0.000320638
0.000357315
-0.000364864
0.000341655
-0.000408621
0.000320493
-0.000451764
0.000293821
-0.000493985
0.000261113
-0.000534694
0.000221454
-0.000572908
0.000173682
-0.000607144
0.000116595
-0.00063534
4.92259e-05
-0.00065491
-2.87819e-05
-0.000662725
-0.00011677
-0.000655499
-0.000212365
-0.000630177
-0.000311152
-0.000584603
-0.000406248
-0.00051836
-0.000488357
-0.000433652
-0.000546458
-0.000335981
-0.00056937
-0.000234221
-0.000548266
-0.000139641
-0.000479738
-6.37629e-05
-0.000368237
-1.56916e-05
-0.000226216
-7.20481e-05
-9.56173e-06
7.69835e-05
-3.35125e-05
0.00019709
-6.75194e-05
0.000285752
-0.000108008
0.000347211
-0.00015228
0.000386339
-0.00019847
0.000407868
-0.000245423
0.000415962
-0.000292525
0.000413972
-0.000339546
0.000404337
-0.000386486
0.000388594
-0.00043343
0.000367438
-0.000480427
0.000340817
-0.000527351
0.000308038
-0.000573769
0.000267873
-0.000618797
0.000218709
-0.000660953
0.000158751
-0.000698036
8.63091e-05
-0.000727169
3.511e-07
-0.000744564
-9.93744e-05
-0.000746134
-0.000210795
-0.000727656
-0.000329631
-0.000685584
-0.00044832
-0.000618052
-0.000555889
-0.000526098
-0.000638413
-0.00041486
-0.000680608
-0.000294243
-0.000668883
-0.00017828
-0.0005957
-8.26295e-05
-0.000463887
-2.06789e-05
-0.000288167
-9.2727e-05
-1.03162e-05
8.72998e-05
-3.60941e-05
0.000222868
-7.24821e-05
0.00032214
-0.000115482
0.000390211
-0.000162127
0.000432985
-0.000210438
0.000456179
-0.00025926
0.000464784
-0.000308069
0.000462781
-0.00035678
0.000453048
-0.00040557
0.000437384
-0.00045473
0.000416598
-0.000504526
0.000390613
-0.000555057
0.000358569
-0.000606108
0.000318924
-0.000656982
0.000269583
-0.000706329
0.000208097
-0.000751992
0.000131972
-0.000790797
3.91564e-05
-0.000818817
-7.13545e-05
-0.00083111
-0.000198502
-0.00082237
-0.000338371
-0.000787518
-0.000483172
-0.000722806
-0.000620601
-0.000627345
-0.000733873
-0.000504929
-0.000803024
-0.000365616
-0.000808196
-0.000225983
-0.000735333
-0.000106707
-0.000583163
-2.7256e-05
-0.000367618
-0.000119983
-1.11968e-05
9.84966e-05
-3.90564e-05
0.000250727
-7.80432e-05
0.000361127
-0.000123612
0.000435779
-0.000172464
0.000481838
-0.000222484
0.000506199
-0.000272523
0.000514823
-0.000322157
0.000512415
-0.000371451
0.000502342
-0.000420769
0.000486701
-0.000470608
0.000466437
-0.000521463
0.000441468
-0.000573683
0.000410789
-0.00062732
0.000372561
-0.000681956
0.00032422
-0.000736511
0.000262652
-0.000789045
0.000184506
-0.000836572
8.66837e-05
-0.000874997
-3.293e-05
-0.000899085
-0.000174413
-0.000902671
-0.000334785
-0.000879207
-0.000506636
-0.000822784
-0.000677025
-0.000729813
-0.000826844
-0.000601454
-0.000931383
-0.000446402
-0.000963248
-0.000282757
-0.000898979
-0.00013665
-0.000729271
-3.57793e-05
-0.000468489
-0.000155762
-1.22798e-05
0.000110776
-4.26102e-05
0.000281058
-8.45127e-05
0.000403029
-0.000132721
0.000483988
-0.00018353
0.000532646
-0.00023467
0.000557339
-0.000285013
0.000565166
-0.000334249
0.000561651
-0.000382603
0.000550696
-0.000430619
0.000534717
-0.000478993
0.000514811
-0.000528439
0.000490914
-0.00057956
0.00046191
-0.000632709
0.00042571
-0.000687825
0.000379335
-0.000744242
0.00031907
-0.000800482
0.000240745
-0.000854036
0.000140238
-0.000901118
1.4152e-05
-0.000936691
-0.000138841
-0.000954225
-0.000317251
-0.000946087
-0.000514775
-0.00090424
-0.000718871
-0.000821837
-0.000909247
-0.000696021
-0.0010572
-0.000531995
-0.00112727
-0.000347255
-0.00108372
-0.000172775
-0.000903751
-4.66348e-05
-0.000594629
-0.000202397
-1.36929e-05
0.000124469
-4.70942e-05
0.000314459
-9.23761e-05
0.000448311
-0.000143312
0.000534924
-0.000195706
0.00058504
-0.000247146
0.000608779
-0.000296562
0.000614582
-0.000343789
0.000608878
-0.00038923
0.000596137
-0.000433605
0.000579091
-0.000477786
0.000558993
-0.000522685
0.000535813
-0.000569141
0.000508366
-0.000617817
0.000474385
-0.00066906
0.000430579
-0.000722744
0.000372754
-0.000778063
0.000296065
-0.000833297
0.000195472
-0.000885573
6.64278e-05
-0.000930446
-9.39677e-05
-0.000961879
-0.000285818
-0.000971829
-0.000504825
-0.000950628
-0.000740072
-0.000888091
-0.000971784
-0.000776249
-0.00116904
-0.000614391
-0.00128913
-0.000416075
-0.00128203
-0.00021475
-0.00110508
-6.02124e-05
-0.000749166
-0.00026261
-1.56507e-05
0.00014012
-5.30471e-05
0.000351855
-0.000102371
0.000497635
-0.000156116
0.000588668
-0.000209534
0.000638458
-0.00026013
0.000659375
-0.000306981
0.000661432
-0.000350142
0.000652039
-0.000390226
0.000636221
-0.000428135
0.000617001
-0.000464904
0.000595762
-0.000501608
0.000572516
-0.000539293
0.000546052
-0.000578916
0.000514007
-0.000621251
0.000472915
-0.000666783
0.000418285
-0.000715536
0.000344818
-0.00076686
0.000246796
-0.000819139
0.000118706
-0.000869216
-4.38902e-05
-0.000912334
-0.0002427
-0.000940997
-0.000476162
-0.000944909
-0.00073616
-0.000911205
-0.00100549
-0.00082647
-0.00125378
-0.000681962
-0.00143364
-0.000483116
-0.00148088
-0.000261187
-0.00132701
-7.68711e-05
-0.000933482
-0.000339481
-1.85203e-05
0.00015864
-6.13219e-05
0.000394657
-0.000115586
0.000551899
-0.000172129
0.000645212
-0.000225663
0.000691992
-0.000273778
0.00070749
-0.000315873
0.000703527
-0.000352356
0.000688522
-0.000384128
0.000667994
-0.000412306
0.000645179
-0.000438082
0.000621538
-0.000462671
0.000597105
-0.000487293
0.000570674
-0.00051316
0.000539875
-0.000541454
0.000501209
-0.000573272
0.000450103
-0.000609524
0.00038107
-0.000650758
0.00028803
-0.000696911
0.000164859
-0.000746511
5.71015e-06
-0.000796895
-0.000192316
-0.00084211
-0.000430947
-0.000872669
-0.000705601
-0.000874501
-0.00100366
-0.00082958
-0.0012987
-0.00072012
-0.0015431
-0.000539275
-0.00166173
-0.000309203
-0.00155708
-9.69078e-05
-0.00114578
-0.000436388
-2.29455e-05
0.000181586
-7.32671e-05
0.000444979
-0.000133571
0.000612203
-0.00019258
0.000704221
-0.000244659
0.000744072
-0.00028784
0.000750671
-0.000322164
0.000737851
-0.000348611
0.000714969
-0.000368507
0.000687889
-0.000383248
0.00065992
-0.000394209
0.000632499
-0.000402738
0.000605634
-0.000410195
0.00057813
-0.000417999
0.000547679
-0.000427673
0.000510883
-0.000440857
0.000463287
-0.000459281
0.000399494
-0.000484652
0.000313401
-0.000518392
0.000198599
-0.000561532
4.88498e-05
-0.000612979
-0.000140868
-0.000669858
-0.000374068
-0.000724927
-0.000650532
-0.000765023
-0.000963561
-0.000769693
-0.00129403
-0.000712919
-0.00159987
-0.000572722
-0.00180192
-0.000354017
-0.00177578
-0.000120516
-0.00137928
-0.000556905
-3.00822e-05
0.000211668
-9.09961e-05
0.000505893
-0.000158397
0.000679603
-0.000218671
0.000764496
-0.000266434
0.000791834
-0.000300835
0.000785072
-0.000323071
0.000760087
-0.000335026
0.000726924
-0.00033865
0.000691513
-0.000335728
0.000656998
-0.000327863
0.000624634
-0.000316539
0.00059431
-0.000303224
0.000564815
-0.000289481
0.000533936
-0.000277072
0.000498474
-0.00026805
0.000454265
-0.000264792
0.000396236
-0.000269968
0.000318576
-0.00028642
0.000215052
-0.000316931
7.93611e-05
-0.000363139
-9.46608e-05
-0.000425077
-0.00031213
-0.000499155
-0.000576454
-0.000575482
-0.000887234
-0.000634498
-0.00123501
-0.000644997
-0.00158937
-0.000569646
-0.00187727
-0.000388587
-0.00195684
-0.000147628
-0.00162024
-0.000704533
-4.20386e-05
0.000253707
-0.000117712
0.000581566
-0.000192412
0.000754303
-0.000250673
0.000822757
-0.000288763
0.000829924
-0.000308118
0.000804428
-0.000311854
0.000763822
-0.000303206
0.000718276
-0.000284984
0.000673291
-0.000259479
0.000631493
-0.000228561
0.000593717
-0.000193841
0.00055959
-0.00015684
0.000527814
-0.000119169
0.000496265
-8.2696e-05
0.000462001
-4.96977e-05
0.000421267
-2.29774e-05
0.000369515
-5.91124e-06
0.00030151
-2.30436e-06
0.000211445
-1.61356e-05
9.31924e-05
-5.15984e-05
-5.9198e-05
-0.000111805
-0.000251923
-0.000197414
-0.000490845
-0.000303747
-0.000780902
-0.00041592
-0.00112284
-0.000502686
-0.00150261
-0.000514783
-0.00186518
-0.000402989
-0.00206864
-0.00017731
-0.00184591
-0.000881844
-6.26326e-05
0.000316339
-0.000157787
0.000676721
-0.000236856
0.000833371
-0.00028516
0.000871062
-0.000303504
0.000848267
-0.00029746
0.000798384
-0.000273057
0.00073942
-0.00023536
0.000680579
-0.000188218
0.000626149
-0.000134455
0.000577731
-7.61579e-05
0.000535419
-1.49625e-05
0.000498394
4.76816e-05
0.00046517
0.000110272
0.000433674
0.000171034
0.00040124
0.000227716
0.000364584
0.000277433
0.000319799
0.000316546
0.000262397
0.000340595
0.000187395
0.00034433
8.94574e-05
0.000322128
-3.69961e-05
0.000268389
-0.000198184
0.000178339
-0.000400794
5.05185e-05
-0.000653081
-0.000108147
-0.000964172
-0.000273074
-0.00133768
-0.000390525
-0.00174773
-0.000382705
-0.00207646
-0.000206026
-0.00202259
-0.00108787
-9.83281e-05
0.000414667
-0.000215097
0.00079349
-0.000286531
0.000904805
-0.000307007
0.000891537
-0.000287141
0.000828401
-0.000239104
0.000750346
-0.000172758
0.000673074
-9.51467e-05
0.000602967
-1.09795e-05
0.000541982
7.66914e-05
0.00049006
0.000165887
0.000446224
0.000255247
0.000409034
0.000343673
0.000376745
0.000430028
0.000347318
0.000512883
0.000318385
0.000590277
0.00028719
0.000659519
0.000250558
0.000717015
0.0002049
0.000758154
0.000146256
0.000777243
7.03683e-05
0.000767561
-2.73138e-05
0.000721817
-0.00015244
0.00063196
-0.000310937
0.000490831
-0.000511952
0.000295918
-0.000769258
5.95877e-05
-0.00110135
-0.000172848
-0.00151529
-0.000304578
-0.00194473
-0.000224467
-0.0021027
-0.00131234
-0.000157679
0.000572346
-0.000282725
0.000918536
-0.00031148
0.00093356
-0.000267382
0.00084744
-0.000178531
0.00073955
-6.52969e-05
0.000637112
5.92047e-05
0.000548573
0.000187157
0.000475015
0.000314212
0.000414927
0.000438133
0.000366139
0.000557876
0.000326481
0.000672987
0.000293924
0.00078319
0.000266541
0.000888082
0.000242426
0.000986873
0.000219594
0.00107816
0.000195902
0.00115972
0.000168998
0.00122833
0.000136291
0.0012796
9.49813e-05
0.00130783
4.21436e-05
0.00130598
-2.5463e-05
0.00126579
-0.000112252
0.00117727
-0.000222412
0.00102912
-0.000363811
0.000810095
-0.000550229
0.000515872
-0.000807127
0.000171984
-0.0011714
-0.000128023
-0.00164472
-0.000213014
-0.00201771
-0.00152535
-0.000239178
0.000811524
-0.000295767
0.000975124
-0.000199328
0.000837121
-2.93835e-05
0.000677496
0.000166053
0.000544114
0.000363984
0.00043918
0.000553807
0.00035875
0.000731213
0.000297609
0.000895177
0.000250963
0.00104624
0.000215077
0.00118555
0.000187165
0.00131438
0.000165094
0.00143379
0.000147138
0.00154441
0.0001318
0.00164633
0.000117682
0.00173884
0.000103392
0.00182035
8.74852e-05
0.00188821
6.84295e-05
0.00193856
4.46333e-05
0.00196616
1.45445e-05
0.0019646
-2.39024e-05
0.00192519
-7.28394e-05
0.00183764
-0.000134864
0.00168876
-0.00021493
0.00146149
-0.000322962
0.00113574
-0.000481375
0.000702864
-0.000738529
0.000223718
-0.00116557
-9.51966e-05
-0.0016988
-0.00162055
-0.000188089
0.000999613
3.28448e-05
0.000754191
0.000391683
0.000478283
0.000732241
0.000336937
0.00103195
0.000244401
0.00129075
0.00018038
0.00151285
0.000136655
0.00170376
0.000106702
0.00186898
8.57406e-05
0.00201334
7.07195e-05
0.00214079
5.97135e-05
0.00225444
5.14373e-05
0.00235661
4.4969e-05
0.00244882
3.95951e-05
0.00253179
3.47121e-05
0.00260541
2.97644e-05
0.00266869
2.42102e-05
0.00271961
1.75119e-05
0.00275506
9.17962e-06
0.00277081
-1.20562e-06
0.00276209
-1.51804e-05
0.00272105
-3.1804e-05
0.00263919
-5.29974e-05
0.00250444
-8.01842e-05
0.00229877
-0.00011729
0.00199259
-0.000175197
0.00154035
-0.000286292
0.000918476
-0.000543695
0.000259844
-0.00104017
-0.0013607
0.000999613
0.0017538
0.00223209
0.00256902
0.00281343
0.00299381
0.00313046
0.00323716
0.0033229
0.00339362
0.00345334
0.00350477
0.00354974
0.00358934
0.00362405
0.00365381
0.00367802
0.00369554
0.00370472
0.00370351
0.00368833
0.00365653
0.00360353
0.00352334
0.00340605
0.00323086
0.00294457
0.00240087
0.0013607
)
;

boundaryField
{
    movingWall
    {
        type            calculated;
        value           uniform 0;
    }
    fixedWalls
    {
        type            calculated;
        value           uniform 0;
    }
    frontAndBack
    {
        type            empty;
        value           nonuniform 0();
    }
}


// ************************************************************************* //
