/*--------------------------------*- C++ -*----------------------------------*\
  =========                 |
  \\      /  F ield         | OpenFOAM: The Open Source CFD Toolbox
   \\    /   O peration     | Website:  https://openfoam.org
    \\  /    A nd           | Version:  7
     \\/     M anipulation  |
\*---------------------------------------------------------------------------*/
FoamFile
{
    version     2.0;
    format      ascii;
    class       volVectorField;
    location    "2";
    object      U;
}
// * * * * * * * * * * * * * * * * * * * * * * * * * * * * * * * * * * * * * //

dimensions      [0 1 -1 0 0 0 0];

internalField   nonuniform List<vector> 
900
(
(8.13033e-05 -8.06405e-05 0)
(8.06533e-05 2.61523e-06 0)
(-0.00024075 0.000113425 0)
(-0.000838347 0.00020152 0)
(-0.00163773 0.00025951 0)
(-0.00256851 0.00029187 0)
(-0.00356846 0.00030516 0)
(-0.00458824 0.000304893 0)
(-0.00558968 0.000294789 0)
(-0.00654223 0.000276937 0)
(-0.00741971 0.000252197 0)
(-0.00819786 0.000220606 0)
(-0.00885275 0.000181772 0)
(-0.00936024 0.000135247 0)
(-0.00969633 8.08693e-05 0)
(-0.00983845 1.90728e-05 0)
(-0.00976747 -4.89073e-05 0)
(-0.00947044 -0.000120701 0)
(-0.00894368 -0.000192833 0)
(-0.00819575 -0.00026077 0)
(-0.00724994 -0.000319167 0)
(-0.00614573 -0.000362309 0)
(-0.00493877 -0.000384677 0)
(-0.00369904 -0.000381551 0)
(-0.0025072 -0.00034952 0)
(-0.00144931 -0.000286933 0)
(-0.000608787 -0.000194882 0)
(-5.45617e-05 -8.03097e-05 0)
(0.000170122 3.61887e-05 0)
(9.82679e-05 9.70136e-05 0)
(6.00673e-07 -8.31093e-05 0)
(-0.000377156 0.000377351 0)
(-0.00145055 0.000908002 0)
(-0.00309215 0.00134464 0)
(-0.00516921 0.00165266 0)
(-0.00754366 0.00183869 0)
(-0.0100825 0.00192242 0)
(-0.0126704 0.00192434 0)
(-0.0152114 0.00186068 0)
(-0.0176244 0.00174222 0)
(-0.0198386 0.00157495 0)
(-0.0217891 0.00136131 0)
(-0.0234143 0.00110189 0)
(-0.0246544 0.000797082 0)
(-0.0254531 0.000448833 0)
(-0.0257598 6.21539e-05 0)
(-0.0255341 -0.000353678 0)
(-0.0247517 -0.000783925 0)
(-0.0234109 -0.00120846 0)
(-0.0215385 -0.00160217 0)
(-0.0191947 -0.00193639 0)
(-0.0164758 -0.00218125 0)
(-0.013513 -0.00230876 0)
(-0.0104679 -0.00229627 0)
(-0.00752273 -0.0021298 0)
(-0.00486707 -0.00180759 0)
(-0.00267803 -0.00134498 0)
(-0.00109365 -0.000783764 0)
(-0.00018858 -0.000212031 0)
(4.46395e-05 0.000169721 0)
(-0.000114102 0.000237826 0)
(-0.000940554 0.0014575 0)
(-0.00279436 0.00271742 0)
(-0.0054056 0.00375762 0)
(-0.00858726 0.00450876 0)
(-0.0121614 0.00497393 0)
(-0.015951 0.00518635 0)
(-0.0197975 0.00518626 0)
(-0.0235639 0.00500878 0)
(-0.0271318 0.00467954 0)
(-0.0303962 0.00421457 0)
(-0.033261 0.00362254 0)
(-0.0356355 0.00290809 0)
(-0.0374341 0.00207574 0)
(-0.0385769 0.00113385 0)
(-0.0389942 9.8263e-05 0)
(-0.0386319 -0.00100464 0)
(-0.0374593 -0.00213596 0)
(-0.035478 -0.00324394 0)
(-0.0327292 -0.00426527 0)
(-0.0293003 -0.00512881 0)
(-0.0253283 -0.00576143 0)
(-0.0209977 -0.00609569 0)
(-0.0165335 -0.00607861 0)
(-0.0121877 -0.00568069 0)
(-0.00821923 -0.00490511 0)
(-0.00486749 -0.00379833 0)
(-0.00231603 -0.00246434 0)
(-0.000679558 -0.00108881 0)
(-5.02906e-05 -2.21848e-05 0)
(-0.000216654 0.000865864 0)
(-0.00146679 0.00318137 0)
(-0.00406355 0.00537513 0)
(-0.0075725 0.00715641 0)
(-0.011741 0.00844111 0)
(-0.0163553 0.00923649 0)
(-0.0212058 0.0095924 0)
(-0.0261033 0.00957068 0)
(-0.0308831 0.00922734 0)
(-0.0354005 0.00860507 0)
(-0.039526 0.00773219 0)
(-0.0431406 0.00662567 0)
(-0.0461321 0.00529635 0)
(-0.0483947 0.00375527 0)
(-0.0498305 0.00202024 0)
(-0.0503539 0.000122006 0)
(-0.0498987 -0.00189051 0)
(-0.0484273 -0.0039473 0)
(-0.0459406 -0.00595612 0)
(-0.042488 -0.00780523 0)
(-0.0381749 -0.00936979 0)
(-0.0331672 -0.0105221 0)
(-0.0276895 -0.0111451 0)
(-0.0220164 -0.0111484 0)
(-0.0164554 -0.010484 0)
(-0.011324 -0.00916186 0)
(-0.00691592 -0.00726587 0)
(-0.00346088 -0.00496885 0)
(-0.00112837 -0.0025532 0)
(-0.000130964 -0.000478329 0)
(-0.000300151 0.00175948 0)
(-0.00192668 0.00549306 0)
(-0.00520453 0.00880706 0)
(-0.00953579 0.0114359 0)
(-0.0145972 0.0133109 0)
(-0.0201381 0.014459 0)
(-0.02592 0.0149542 0)
(-0.0317308 0.0148834 0)
(-0.0373862 0.0143253 0)
(-0.042724 0.013341 0)
(-0.0475978 0.011972 0)
(-0.0518724 0.0102444 0)
(-0.0554194 0.00817609 0)
(-0.0581167 0.00578552 0)
(-0.0598502 0.00310123 0)
(-0.0605184 0.000170885 0)
(-0.0600407 -0.00293115 0)
(-0.0583675 -0.00609905 0)
(-0.0554923 -0.00919393 0)
(-0.0514637 -0.0120475 0)
(-0.0463962 -0.0144716 0)
(-0.0404756 -0.0162732 0)
(-0.0339594 -0.0172756 0)
(-0.027167 -0.0173421 0)
(-0.0204612 -0.0164007 0)
(-0.01422 -0.0144671 0)
(-0.0087987 -0.0116637 0)
(-0.00448231 -0.00823313 0)
(-0.00150311 -0.00454815 0)
(-0.000188171 -0.00115196 0)
(-0.000367862 0.00288145 0)
(-0.00232438 0.00833439 0)
(-0.00621846 0.0129516 0)
(-0.0113016 0.01653 0)
(-0.0171804 0.0190443 0)
(-0.0235662 0.0205595 0)
(-0.0301935 0.0211841 0)
(-0.0368313 0.0210362 0)
(-0.0432815 0.0202203 0)
(-0.0493704 0.0188171 0)
(-0.0549411 0.0168819 0)
(-0.0598471 0.0144495 0)
(-0.0639479 0.011544 0)
(-0.067107 0.00819031 0)
(-0.0691938 0.00442689 0)
(-0.0700881 0.000317892 0)
(-0.0696893 -0.00403614 0)
(-0.0679279 -0.00849112 0)
(-0.0647799 -0.0128566 0)
(-0.0602822 -0.0169 0)
(-0.0545473 -0.0203591 0)
(-0.047773 -0.0229624 0)
(-0.0402454 -0.024459 0)
(-0.0323307 -0.0246526 0)
(-0.0244545 -0.0234371 0)
(-0.017069 -0.0208287 0)
(-0.0106069 -0.0169883 0)
(-0.00542387 -0.0122316 0)
(-0.00182118 -0.00702549 0)
(-0.000226354 -0.00200012 0)
(-0.000424718 0.00419979 0)
(-0.00267425 0.0116493 0)
(-0.00712918 0.0177462 0)
(-0.0129059 0.0223744 0)
(-0.0195447 0.0255761 0)
(-0.0267192 0.0274721 0)
(-0.0341384 0.0282181 0)
(-0.0415553 0.0279707 0)
(-0.0487624 0.0268646 0)
(-0.0555797 0.0250018 0)
(-0.0618445 0.022451 0)
(-0.0674036 0.0192546 0)
(-0.0721068 0.0154406 0)
(-0.0758044 0.0110372 0)
(-0.0783476 0.00608909 0)
(-0.0795933 0.000673919 0)
(-0.0794129 -0.00508375 0)
(-0.0777061 -0.0110015 0)
(-0.0744179 -0.0168341 0)
(-0.0695592 -0.0222769 0)
(-0.0632266 -0.0269805 0)
(-0.0556197 -0.0305779 0)
(-0.0470494 -0.0327232 0)
(-0.0379333 -0.0331395 0)
(-0.0287736 -0.0316699 0)
(-0.0201186 -0.0283208 0)
(-0.0125036 -0.023292 0)
(-0.00637739 -0.0169819 0)
(-0.00212096 -0.00996837 0)
(-0.000253811 -0.00299653 0)
(-0.000474984 0.00569206 0)
(-0.0029921 0.0153947 0)
(-0.00796753 0.0231409 0)
(-0.0143958 0.0289192 0)
(-0.021755 0.0328588 0)
(-0.0296831 0.0351536 0)
(-0.0378655 0.0360195 0)
(-0.0460423 0.0356605 0)
(-0.0540004 0.034246 0)
(-0.061558 0.0319017 0)
(-0.0685515 0.0287094 0)
(-0.0748248 0.0247168 0)
(-0.0802211 0.0199512 0)
(-0.084578 0.014439 0)
(-0.0877268 0.00822488 0)
(-0.0894956 0.00139323 0)
(-0.089719 -0.00591293 0)
(-0.0882522 -0.0134762 0)
(-0.0849924 -0.020995 0)
(-0.079905 -0.0280855 0)
(-0.0730522 -0.0342964 0)
(-0.06462 -0.0391416 0)
(-0.0549371 -0.0421511 0)
(-0.0444764 -0.0429364 0)
(-0.0338348 -0.0412618 0)
(-0.0236861 -0.0371079 0)
(-0.0147047 -0.0307124 0)
(-0.0074654 -0.0225733 0)
(-0.00245086 -0.0134126 0)
(-0.000279335 -0.00413904 0)
(-0.000521825 0.00734479 0)
(-0.00329181 0.0195427 0)
(-0.00876325 0.0291029 0)
(-0.0158174 0.0361322 0)
(-0.0238743 0.0408642 0)
(-0.0325382 0.0435824 0)
(-0.0414737 0.0445758 0)
(-0.0504111 0.0441053 0)
(-0.0591362 0.0423814 0)
(-0.0674702 0.0395552 0)
(-0.0752534 0.0357216 0)
(-0.0823316 0.0309297 0)
(-0.0885447 0.0252011 0)
(-0.0937196 0.0185521 0)
(-0.0976659 0.0110179 0)
(-0.100178 0.00267911 0)
(-0.101044 -0.00631291 0)
(-0.100059 -0.0157136 0)
(-0.0970511 -0.0251677 0)
(-0.091916 -0.034206 0)
(-0.0846551 -0.0422585 0)
(-0.0754177 -0.0486913 0)
(-0.0645351 -0.0528704 0)
(-0.0525362 -0.0542495 0)
(-0.0401307 -0.0524715 0)
(-0.0281555 -0.0474628 0)
(-0.0174737 -0.0394947 0)
(-0.00883645 -0.0291893 0)
(-0.00286691 -0.0174609 0)
(-0.000311805 -0.0054534 0)
(-0.000567471 0.00915157 0)
(-0.0035845 0.024079 0)
(-0.00954179 0.0356152 0)
(-0.0172113 0.0439973 0)
(-0.0259571 0.0495799 0)
(-0.035352 0.0527521 0)
(-0.0450424 0.0538901 0)
(-0.054753 0.0533219 0)
(-0.0642729 0.0513054 0)
(-0.0734319 0.0480207 0)
(-0.0820802 0.0435743 0)
(-0.0900714 0.0380135 0)
(-0.0972474 0.031347 0)
(-0.103427 0.0235705 0)
(-0.1084 0.0146968 0)
(-0.111922 0.00478761 0)
(-0.113726 -0.00601326 0)
(-0.113531 -0.0174489 0)
(-0.111071 -0.0291176 0)
(-0.106142 -0.0404632 0)
(-0.0986489 -0.0507808 0)
(-0.0886702 -0.059254 0)
(-0.0765135 -0.0650324 0)
(-0.0627529 -0.0673472 0)
(-0.0482269 -0.0656552 0)
(-0.0339785 -0.0597798 0)
(-0.0211254 -0.0500121 0)
(-0.0106679 -0.0371266 0)
(-0.00343452 -0.0222968 0)
(-0.000360867 -0.00699675 0)
(-0.00061347 0.0111113 0)
(-0.00387879 0.0290007 0)
(-0.0103237 0.0426742 0)
(-0.0186101 0.0525115 0)
(-0.0280463 0.0590049 0)
(-0.038175 0.0626662 0)
(-0.0486272 0.0639736 0)
(-0.0591259 0.0633338 0)
(-0.0694691 0.0610596 0)
(-0.0795015 0.0573634 0)
(-0.0890907 0.0523637 0)
(-0.0981054 0.0461015 0)
(-0.106397 0.0385643 0)
(-0.113782 0.0297153 0)
(-0.120033 0.0195277 0)
(-0.124868 0.00802406 0)
(-0.127957 -0.00468196 0)
(-0.128926 -0.0183432 0)
(-0.127393 -0.0325283 0)
(-0.123016 -0.0466003 0)
(-0.115562 -0.0597063 0)
(-0.104989 -0.0708105 0)
(-0.0915364 -0.078781 0)
(-0.0757984 -0.0825394 0)
(-0.0587452 -0.0812597 0)
(-0.0416703 -0.074583 0)
(-0.0260283 -0.0627841 0)
(-0.0131704 -0.0468168 0)
(-0.00423155 -0.0281996 0)
(-0.000437802 -0.00886292 0)
(-0.000660926 0.0132267 0)
(-0.00418144 0.034314 0)
(-0.0111254 0.0502867 0)
(-0.0200393 0.0616807 0)
(-0.0301733 0.0691443 0)
(-0.0410402 0.0733307 0)
(-0.0522579 0.0748366 0)
(-0.0635519 0.0741605 0)
(-0.0747349 0.071679 0)
(-0.085674 0.0676415 0)
(-0.0962623 0.0621789 0)
(-0.106393 0.0553222 0)
(-0.115936 0.0470289 0)
(-0.124716 0.0372157 0)
(-0.132494 0.0257964 0)
(-0.138956 0.0127275 0)
(-0.143707 -0.00193785 0)
(-0.146271 -0.0179844 0)
(-0.146121 -0.0349909 0)
(-0.142747 -0.0522552 0)
(-0.135723 -0.0687722 0)
(-0.124826 -0.0832514 0)
(-0.110165 -0.0942062 0)
(-0.0923013 -0.100136 0)
(-0.0723166 -0.099797 0)
(-0.0517879 -0.0925199 0)
(-0.0326001 -0.0784878 0)
(-0.0165908 -0.0588462 0)
(-0.005351 -0.0355623 0)
(-0.000556331 -0.0111895 0)
(-0.00071075 0.015504 0)
(-0.0044983 0.0400323 0)
(-0.0119608 0.0584678 0)
(-0.0215193 0.0715169 0)
(-0.0323603 0.0800047 0)
(-0.0439652 0.0847474 0)
(-0.05594 0.0864793 0)
(-0.0680173 0.0858057 0)
(-0.0800302 0.0831775 0)
(-0.0918759 0.0788874 0)
(-0.103482 0.0730803 0)
(-0.114777 0.0657742 0)
(-0.12566 0.0568887 0)
(-0.135978 0.0462794 0)
(-0.145494 0.0337792 0)
(-0.153869 0.0192495 0)
(-0.160641 0.00264627 0)
(-0.165237 -0.0158987 0)
(-0.166982 -0.0360086 0)
(-0.165153 -0.0569493 0)
(-0.159085 -0.0775773 0)
(-0.148303 -0.0963243 0)
(-0.132699 -0.111276 0)
(-0.112716 -0.120377 0)
(-0.0894892 -0.121786 0)
(-0.0648789 -0.114329 0)
(-0.0412881 -0.0979529 0)
(-0.0212094 -0.0739695 0)
(-0.00690295 -0.0449096 0)
(-0.000733455 -0.0141662 0)
(-0.000763975 0.017952 0)
(-0.00483578 0.046176 0)
(-0.0128446 0.0672389 0)
(-0.0230696 0.0820342 0)
(-0.0346247 0.0915884 0)
(-0.0469561 0.0969058 0)
(-0.0596589 0.0988809 0)
(-0.0724754 0.0982431 0)
(-0.0852656 0.0955304 0)
(-0.0979637 0.0910862 0)
(-0.110541 0.0850727 0)
(-0.122971 0.0774938 0)
(-0.135196 0.0682246 0)
(-0.147098 0.0570459 0)
(-0.15846 0.043688 0)
(-0.168933 0.0278865 0)
(-0.178015 0.00945702 0)
(-0.185039 -0.0116111 0)
(-0.189175 -0.035035 0)
(-0.189481 -0.0601002 0)
(-0.185014 -0.0855631 0)
(-0.174979 -0.109579 0)
(-0.15895 -0.129748 0)
(-0.137127 -0.143325 0)
(-0.110579 -0.147647 0)
(-0.0813896 -0.14076 0)
(-0.0525293 -0.122125 0)
(-0.0273312 -0.0931103 0)
(-0.00901597 -0.0569125 0)
(-0.000990639 -0.0180449 0)
(-0.000822197 0.0205835 0)
(-0.00520284 0.0527734 0)
(-0.0137962 0.0766284 0)
(-0.0247147 0.0932475 0)
(-0.036986 0.103889 0)
(-0.0500152 0.109775 0)
(-0.0633856 0.111988 0)
(-0.0768525 0.111402 0)
(-0.090307 0.108655 0)
(-0.103727 0.104151 0)
(-0.117134 0.098074 0)
(-0.130556 0.0904155 0)
(-0.143993 0.0810013 0)
(-0.157374 0.0695271 0)
(-0.170521 0.0556007 0)
(-0.183106 0.0387999 0)
(-0.194607 0.018755 0)
(-0.204299 -0.00473664 0)
(-0.21122 -0.0315445 0)
(-0.214219 -0.0610664 0)
(-0.21207 -0.0920204 0)
(-0.203607 -0.122324 0)
(-0.187983 -0.149073 0)
(-0.164996 -0.16872 0)
(-0.135462 -0.177541 0)
(-0.101523 -0.172436 0)
(-0.0666788 -0.151981 0)
(-0.0352664 -0.117333 0)
(-0.0118381 -0.0723976 0)
(-0.00135575 -0.0231499 0)
(-0.000888209 0.023417 0)
(-0.00561389 0.0598645 0)
(-0.0148456 0.0866732 0)
(-0.0264921 0.105171 0)
(-0.0394747 0.116885 0)
(-0.0531496 0.123297 0)
(-0.0670865 0.125705 0)
(-0.081056 0.125151 0)
(-0.0949842 0.12239 0)
(-0.108896 0.117895 0)
(-0.122869 0.111882 0)
(-0.136992 0.104329 0)
(-0.151329 0.0950145 0)
(-0.165874 0.0835427 0)
(-0.180509 0.0693855 0)
(-0.194954 0.0519396 0)
(-0.208715 0.030614 0)
(-0.221035 0.00496237 0)
(-0.230894 -0.0251258 0)
(-0.237003 -0.0592317 0)
(-0.237863 -0.0961374 0)
(-0.231931 -0.133616 0)
(-0.217864 -0.16831 0)
(-0.19489 -0.195824 0)
(-0.163311 -0.211157 0)
(-0.125036 -0.209638 0)
(-0.0838968 -0.188367 0)
(-0.0452932 -0.147775 0)
(-0.0155367 -0.092342 0)
(-0.00186616 -0.0298902 0)
(-0.00096698 0.0264807 0)
(-0.00609297 0.0675077 0)
(-0.0160414 0.0974249 0)
(-0.0284622 0.11782 0)
(-0.0421433 0.130542 0)
(-0.0563818 0.137377 0)
(-0.0707329 0.139879 0)
(-0.0849851 0.139282 0)
(-0.0991023 0.136475 0)
(-0.113159 0.132013 0)
(-0.127289 0.126143 0)
(-0.141644 0.118842 0)
(-0.156356 0.109842 0)
(-0.171494 0.0986568 0)
(-0.187019 0.08462 0)
(-0.202731 0.0669354 0)
(-0.21821 0.0447693 0)
(-0.232759 0.0173908 0)
(-0.245367 -0.0156307 0)
(-0.254688 -0.0541369 0)
(-0.259066 -0.0971034 0)
(-0.256632 -0.142311 0)
(-0.245526 -0.186095 0)
(-0.224264 -0.223279 0)
(-0.192338 -0.247474 0)
(-0.150998 -0.252014 0)
(-0.103981 -0.231755 0)
(-0.0575917 -0.185506 0)
(-0.0202931 -0.117845 0)
(-0.00257304 -0.0387729 0)
(-0.00106727 0.0298195 0)
(-0.00667996 0.0757916 0)
(-0.0174622 0.108957 0)
(-0.0307223 0.131213 0)
(-0.0450789 0.1448 0)
(-0.0597608 0.151874 0)
(-0.0743105 0.154289 0)
(-0.0885394 0.153499 0)
(-0.102453 0.15054 0)
(-0.116176 0.146054 0)
(-0.129896 0.140334 0)
(-0.143824 0.133355 0)
(-0.158159 0.124812 0)
(-0.173049 0.11414 0)
(-0.188549 0.100541 0)
(-0.204569 0.0830325 0)
(-0.220817 0.0605352 0)
(-0.236734 0.0320154 0)
(-0.251427 -0.00330103 0)
(-0.263633 -0.0456313 0)
(-0.271684 -0.0942673 0)
(-0.273525 -0.147201 0)
(-0.266848 -0.200709 0)
(-0.249403 -0.249067 0)
(-0.219602 -0.284572 0)
(-0.177529 -0.298266 0)
(-0.126146 -0.281894 0)
(-0.072134 -0.231301 0)
(-0.0262882 -0.150056 0)
(-0.00354698 -0.0504142 0)
(-0.00120452 0.033506 0)
(-0.0074406 0.0848522 0)
(-0.0192324 0.121379 0)
(-0.0334226 0.145372 0)
(-0.0484165 0.159574 0)
(-0.0633699 0.166593 0)
(-0.0778224 0.168635 0)
(-0.0916203 0.167401 0)
(-0.104818 0.164086 0)
(-0.117592 0.159426 0)
(-0.13018 0.153756 0)
(-0.142844 0.147061 0)
(-0.155845 0.13901 0)
(-0.169406 0.128973 0)
(-0.183684 0.116046 0)
(-0.198723 0.0990874 0)
(-0.214404 0.0767957 0)
(-0.230382 0.0478509 0)
(-0.246009 0.011124 0)
(-0.260248 -0.0340246 0)
(-0.271608 -0.0873345 0)
(-0.278069 -0.147238 0)
(-0.277061 -0.210289 0)
(-0.265648 -0.270623 0)
(-0.241031 -0.319571 0)
(-0.201638 -0.345877 0)
(-0.148784 -0.337407 0)
(-0.0885248 -0.285291 0)
(-0.033673 -0.19004 0)
(-0.0048855 -0.065546 0)
(-0.00140632 0.0376595 0)
(-0.008483 0.0949001 0)
(-0.0215452 0.134848 0)
(-0.0367866 0.160325 0)
(-0.0523484 0.174737 0)
(-0.0673242 0.18126 0)
(-0.081277 0.182513 0)
(-0.0941124 0.180469 0)
(-0.10595 0.176485 0)
(-0.117023 0.171387 0)
(-0.127616 0.165554 0)
(-0.138039 0.158981 0)
(-0.148599 0.151323 0)
(-0.159591 0.141912 0)
(-0.17127 0.12977 0)
(-0.183827 0.113641 0)
(-0.197346 0.0920577 0)
(-0.211755 0.0634623 0)
(-0.226743 0.0264057 0)
(-0.241643 -0.0201715 0)
(-0.255353 -0.0765571 0)
(-0.266142 -0.141826 0)
(-0.271473 -0.21318 0)
(-0.267985 -0.285175 0)
(-0.25176 -0.348827 0)
(-0.219273 -0.391034 0)
(-0.169298 -0.39542 0)
(-0.105814 -0.346505 0)
(-0.0425236 -0.23854 0)
(-0.00672433 -0.0850119 0)
(-0.00172351 0.0424786 0)
(-0.00998656 0.106259 0)
(-0.0246967 0.149588 0)
(-0.0411318 0.176091 0)
(-0.0571236 0.190094 0)
(-0.0717461 0.195492 0)
(-0.0846418 0.19539 0)
(-0.0958216 0.192045 0)
(-0.1055 0.186971 0)
(-0.113982 0.181068 0)
(-0.121605 0.174748 0)
(-0.128715 0.168017 0)
(-0.135664 0.160528 0)
(-0.142804 0.151597 0)
(-0.150479 0.140219 0)
(-0.159024 0.125081 0)
(-0.168733 0.10462 0)
(-0.179829 0.0771276 0)
(-0.192392 0.0409159 0)
(-0.206229 -0.00544524 0)
(-0.220791 -0.0628509 0)
(-0.234887 -0.131095 0)
(-0.246373 -0.20837 0)
(-0.251903 -0.290271 0)
(-0.246818 -0.368415 0)
(-0.225702 -0.428857 0)
(-0.184129 -0.451371 0)
(-0.122329 -0.412378 0)
(-0.0527806 -0.295624 0)
(-0.00925511 -0.109755 0)
(-0.00225309 0.0482998 0)
(-0.0122532 0.119421 0)
(-0.0291333 0.165891 0)
(-0.0468838 0.192643 0)
(-0.0630143 0.205318 0)
(-0.0766861 0.208735 0)
(-0.0877256 0.206545 0)
(-0.0963275 0.201295 0)
(-0.102851 0.194623 0)
(-0.107701 0.187476 0)
(-0.111276 0.180275 0)
(-0.113967 0.173031 0)
(-0.116159 0.1654 0)
(-0.118248 0.156709 0)
(-0.120656 0.145961 0)
(-0.123835 0.131854 0)
(-0.128272 0.112809 0)
(-0.134464 0.087063 0)
(-0.142876 0.0527941 0)
(-0.153874 0.00830365 0)
(-0.167498 -0.0477826 0)
(-0.183245 -0.116048 0)
(-0.199764 -0.195861 0)
(-0.214255 -0.28438 0)
(-0.221976 -0.374854 0)
(-0.216152 -0.454009 0)
(-0.189022 -0.499187 0)
(-0.135594 -0.478359 0)
(-0.0641636 -0.36022 0)
(-0.0127472 -0.140797 0)
(-0.00318543 0.0557063 0)
(-0.015797 0.13512 0)
(-0.0355087 0.184093 0)
(-0.0545506 0.209813 0)
(-0.0701971 0.219832 0)
(-0.0819197 0.220138 0)
(-0.0899087 0.214974 0)
(-0.0946615 0.207133 0)
(-0.0967557 0.198324 0)
(-0.0967356 0.189486 0)
(-0.0950855 0.181017 0)
(-0.0922425 0.172909 0)
(-0.0886234 0.16482 0)
(-0.0846558 0.156103 0)
(-0.0808109 0.14581 0)
(-0.0776306 0.132696 0)
(-0.0757465 0.11525 0)
(-0.0758797 0.0917464 0)
(-0.0788254 0.0603509 0)
(-0.0854096 0.0192397 0)
(-0.0962983 -0.0332585 0)
(-0.111792 -0.0984286 0)
(-0.131507 -0.176787 0)
(-0.153701 -0.267339 0)
(-0.174398 -0.365865 0)
(-0.186476 -0.461567 0)
(-0.179455 -0.531862 0)
(-0.142345 -0.537793 0)
(-0.0760176 -0.42956 0)
(-0.0175507 -0.179205 0)
(-0.00489941 0.0657355 0)
(-0.0214915 0.154402 0)
(-0.0447114 0.204452 0)
(-0.0645593 0.227064 0)
(-0.0784046 0.232563 0)
(-0.0864526 0.22834 0)
(-0.0895393 0.219205 0)
(-0.0886304 0.208092 0)
(-0.0846129 0.196674 0)
(-0.0782185 0.185802 0)
(-0.0700355 0.175793 0)
(-0.0605515 0.166589 0)
(-0.0502043 0.157837 0)
(-0.039432 0.148919 0)
(-0.0287228 0.138954 0)
(-0.0186602 0.126805 0)
(-0.00995926 0.111086 0)
(-0.003482 0.0902024 0)
(-0.000248211 0.062409 0)
(-0.001458 0.0258961 0)
(-0.00830224 -0.0211172 0)
(-0.0218007 -0.0803318 0)
(-0.0426073 -0.153178 0)
(-0.070372 -0.240431 0)
(-0.102693 -0.340887 0)
(-0.13346 -0.44792 0)
(-0.150937 -0.542357 0)
(-0.138516 -0.582166 0)
(-0.0869732 -0.498523 0)
(-0.0239982 -0.225899 0)
(-0.0081381 0.0802701 0)
(-0.0307695 0.178644 0)
(-0.0577008 0.226786 0)
(-0.0766483 0.243015 0)
(-0.0859647 0.241487 0)
(-0.0873234 0.231095 0)
(-0.0826017 0.217024 0)
(-0.073425 0.20213 0)
(-0.0610711 0.187874 0)
(-0.0464821 0.174897 0)
(-0.0303425 0.163356 0)
(-0.0131675 0.153094 0)
(0.00461706 0.143719 0)
(0.0226031 0.134636 0)
(0.0403349 0.125043 0)
(0.0572491 0.113932 0)
(0.0726222 0.10009 0)
(0.0855327 0.0821149 0)
(0.094833 0.0584497 0)
(0.0991357 0.0274296 0)
(0.0968785 -0.0126401 0)
(0.0864439 -0.0635872 0)
(0.0662759 -0.127343 0)
(0.0352931 -0.205983 0)
(-0.00618981 -0.301154 0)
(-0.0544855 -0.411433 0)
(-0.0988337 -0.524583 0)
(-0.118894 -0.601633 0)
(-0.0942026 -0.558947 0)
(-0.0320003 -0.281197 0)
(-0.0142502 0.102713 0)
(-0.0456694 0.209202 0)
(-0.0745192 0.249572 0)
(-0.0878942 0.254494 0)
(-0.0872306 0.242862 0)
(-0.0767767 0.224727 0)
(-0.0598681 0.205141 0)
(-0.0389001 0.186472 0)
(-0.015516 0.169695 0)
(0.00921142 0.155071 0)
(0.0345956 0.142494 0)
(0.0601855 0.131652 0)
(0.0856499 0.122086 0)
(0.110687 0.11321 0)
(0.134944 0.104303 0)
(0.157953 0.0945003 0)
(0.179062 0.0827883 0)
(0.197387 0.0680067 0)
(0.211771 0.0488672 0)
(0.220751 0.0239767 0)
(0.222558 -0.00815632 0)
(0.215207 -0.0491894 0)
(0.196483 -0.101113 0)
(0.16412 -0.166586 0)
(0.116346 -0.24925 0)
(0.0534392 -0.352738 0)
(-0.017472 -0.474309 0)
(-0.0760121 -0.585768 0)
(-0.092086 -0.599143 0)
(-0.0400274 -0.34461 0)
(-0.0251178 0.139094 0)
(-0.0674808 0.245376 0)
(-0.0900296 0.267282 0)
(-0.0866686 0.254371 0)
(-0.0660679 0.229821 0)
(-0.0360628 0.203419 0)
(-0.00139924 0.17899 0)
(0.0350827 0.157743 0)
(0.0717467 0.139798 0)
(0.107722 0.124854 0)
(0.142587 0.112458 0)
(0.176159 0.102108 0)
(0.208358 0.0932688 0)
(0.239104 0.0853697 0)
(0.268243 0.0777832 0)
(0.295474 0.0698058 0)
(0.320296 0.0606452 0)
(0.341944 0.0494164 0)
(0.35935 0.0351458 0)
(0.371085 0.0167797 0)
(0.37534 -0.00682905 0)
(0.369977 -0.0369374 0)
(0.352391 -0.0752416 0)
(0.319563 -0.124258 0)
(0.268107 -0.188272 0)
(0.194964 -0.27436 0)
(0.101437 -0.389779 0)
(0.00202973 -0.524611 0)
(-0.0703105 -0.60373 0)
(-0.0431149 -0.414352 0)
(-0.0404747 0.200572 0)
(-0.0881664 0.277413 0)
(-0.0777831 0.262316 0)
(-0.0358237 0.226414 0)
(0.0185556 0.19005 0)
(0.0758292 0.158658 0)
(0.131734 0.133117 0)
(0.184401 0.112793 0)
(0.233209 0.0967148 0)
(0.278173 0.0839847 0)
(0.319581 0.0738522 0)
(0.357806 0.0656884 0)
(0.393197 0.0589471 0)
(0.42601 0.0531257 0)
(0.456357 0.0477319 0)
(0.484161 0.0422581 0)
(0.509108 0.0361632 0)
(0.530602 0.0288646 0)
(0.547733 0.0197339 0)
(0.559202 0.00809434 0)
(0.563372 -0.00677324 0)
(0.558137 -0.0256261 0)
(0.540806 -0.0496018 0)
(0.508109 -0.0805088 0)
(0.455824 -0.121871 0)
(0.378433 -0.181225 0)
(0.270944 -0.272803 0)
(0.13539 -0.409675 0)
(-0.00906502 -0.551699 0)
(-0.02685 -0.475009 0)
(-0.033353 0.295277 0)
(-0.0453446 0.275639 0)
(0.0581853 0.202247 0)
(0.162237 0.151056 0)
(0.254341 0.114493 0)
(0.334087 0.0878719 0)
(0.402596 0.0687504 0)
(0.461331 0.0550277 0)
(0.511919 0.0450464 0)
(0.555877 0.0376641 0)
(0.59448 0.0321125 0)
(0.62874 0.0278506 0)
(0.659429 0.0244723 0)
(0.687096 0.0216497 0)
(0.712063 0.0190953 0)
(0.734423 0.0165373 0)
(0.754024 0.0137044 0)
(0.770441 0.0103187 0)
(0.782959 0.00609668 0)
(0.790522 0.000750355 0)
(0.791872 -0.00596023 0)
(0.785221 -0.0144855 0)
(0.768281 -0.0252812 0)
(0.738173 -0.039171 0)
(0.690832 -0.0580127 0)
(0.619892 -0.0865842 0)
(0.515206 -0.137947 0)
(0.362311 -0.241145 0)
(0.142204 -0.407185 0)
(0.0582093 -0.458224 0)
(0.30352 0.181065 0)
(0.383768 0.144961 0)
(0.563546 0.0919803 0)
(0.690668 0.0595844 0)
(0.773764 0.0395354 0)
(0.832729 0.0266033 0)
(0.877029 0.0183122 0)
(0.911239 0.0130324 0)
(0.938326 0.00963364 0)
(0.960373 0.00740011 0)
(0.978787 0.00589685 0)
(0.994511 0.00485411 0)
(1.00817 0.00409619 0)
(1.02018 0.00350088 0)
(1.03075 0.0029755 0)
(1.03995 0.00244248 0)
(1.04767 0.00183125 0)
(1.05368 0.00107432 0)
(1.05757 0.000111371 0)
(1.0588 -0.00111136 0)
(1.05662 -0.00257968 0)
(1.0501 -0.00448227 0)
(1.0382 -0.00688305 0)
(1.01944 -0.0099348 0)
(0.991559 -0.0140729 0)
(0.950377 -0.0205596 0)
(0.886219 -0.0331754 0)
(0.777546 -0.0643056 0)
(0.545155 -0.139815 0)
(0.382499 -0.201917 0)
)
;

boundaryField
{
    movingWall
    {
        type            fixedValue;
        value           uniform (1.2 0 0);
    }
    fixedWalls
    {
        type            noSlip;
    }
    frontAndBack
    {
        type            empty;
    }
}


// ************************************************************************* //
