/*--------------------------------*- C++ -*----------------------------------*\
  =========                 |
  \\      /  F ield         | OpenFOAM: The Open Source CFD Toolbox
   \\    /   O peration     | Website:  https://openfoam.org
    \\  /    A nd           | Version:  7
     \\/     M anipulation  |
\*---------------------------------------------------------------------------*/
FoamFile
{
    version     2.0;
    format      ascii;
    class       volScalarField;
    location    "950";
    object      epsilon;
}
// * * * * * * * * * * * * * * * * * * * * * * * * * * * * * * * * * * * * * //

dimensions      [0 2 -3 0 0 0 0];

internalField   nonuniform List<scalar> 
16900
(
0.782587
1.50187
2.37701
3.18558
3.92169
4.58656
5.18457
5.72069
6.19798
6.61745
6.97735
7.27204
7.49077
7.61715
7.63351
7.53838
7.63805
7.59635
33.8701
37.0911
41.1093
45.3858
49.9436
54.7804
59.8983
65.3008
70.9932
76.9806
83.2675
89.8579
96.7547
103.96
111.474
119.297
127.427
135.861
144.594
153.623
162.938
172.533
182.397
192.518
202.886
213.485
224.3
235.313
246.508
257.864
269.359
280.971
292.676
304.448
316.262
328.089
339.902
351.672
363.372
374.972
386.449
397.78
408.948
419.944
430.771
441.451
452.038
462.467
472.563
482.316
491.715
500.743
509.389
517.636
525.474
532.89
539.874
546.416
552.507
558.141
563.312
568.015
572.247
576.006
579.291
582.105
584.45
586.328
587.745
588.708
589.222
589.297
588.942
588.169
586.989
585.414
583.456
581.13
578.451
575.434
572.095
568.449
564.512
560.3
555.832
551.123
546.19
541.048
535.715
530.207
524.542
518.73
512.789
506.736
500.585
494.343
488.026
481.655
475.235
468.769
462.279
455.779
449.257
442.732
436.232
429.744
423.245
416.773
410.404
404.123
398.164
393.314
390.152
387.355
384.632
381.933
379.244
376.559
373.871
371.176
368.47
365.75
363.013
360.254
357.471
354.659
351.816
348.938
346.022
343.064
340.061
337.011
333.91
330.756
327.548
324.283
320.96
317.579
314.14
310.642
307.087
303.476
299.81
296.094
292.328
288.517
284.665
280.776
276.854
272.905
268.933
264.945
260.946
256.941
252.938
248.941
244.956
240.99
237.049
233.138
229.264
225.431
221.647
217.916
214.244
210.637
207.1
203.641
200.264
196.977
193.787
190.702
187.73
184.883
182.173
179.617
177.233
175.049
173.103
171.46
170.218
169.736
1.66712
1.61978
2.20807
2.87093
3.51495
4.12383
4.7027
5.26409
5.82382
6.40211
7.02545
7.73052
8.56692
9.59962
10.9052
12.5454
14.5179
17.2381
20.5926
22.6477
24.7729
27.0099
29.3661
31.8441
34.4449
37.1695
40.0194
42.9955
46.0985
49.3284
52.685
56.1675
59.7746
63.5045
67.355
71.3232
75.4058
79.599
83.8983
88.299
92.7956
97.3823
102.053
106.8
111.617
116.496
121.429
126.407
131.423
136.466
141.527
146.598
151.668
156.729
161.77
166.783
171.76
176.692
181.572
186.397
191.161
195.866
200.512
205.108
209.666
214.182
218.577
222.84
226.962
230.939
234.764
238.432
241.936
245.273
248.437
251.424
254.231
256.855
259.292
261.541
263.599
265.466
267.14
268.623
269.913
271.012
271.921
272.642
273.178
273.531
273.704
273.702
273.528
273.186
272.682
272.02
271.205
270.244
269.143
267.906
266.541
265.052
263.448
261.734
259.917
258.004
255.999
253.911
251.745
249.508
247.205
244.842
242.426
239.962
237.454
234.908
232.331
229.723
227.091
224.44
221.772
219.087
216.394
213.698
210.987
208.252
205.567
202.917
200.366
198.032
196.025
194.143
192.307
190.494
188.693
186.9
185.112
183.328
181.545
179.762
177.977
176.19
174.398
172.6
170.795
168.981
167.158
165.323
163.477
161.617
159.744
157.855
155.951
154.031
152.095
150.143
148.175
146.191
144.192
142.179
140.152
138.114
136.065
134.007
131.942
129.871
127.798
125.724
123.651
121.583
119.521
117.467
115.426
113.398
111.386
109.394
107.423
105.477
103.556
101.665
99.8044
97.9773
96.1857
94.4319
92.718
91.0462
89.4188
87.8379
86.3061
84.8259
83.4
82.0314
80.7237
79.4807
78.307
77.2077
76.1888
75.2575
74.4258
73.7594
2.37819
1.95423
2.39537
2.98526
3.60115
4.2139
4.82493
5.44797
6.10256
6.81212
7.60451
8.51087
9.56339
10.7877
12.1908
13.7494
15.4235
17.2387
19.0952
20.8726
22.7188
24.6535
26.6828
28.8105
31.0382
33.3668
35.7971
38.3296
40.9646
43.702
46.5416
49.4826
52.5241
55.6645
58.902
62.2346
65.6596
69.174
72.7744
76.4572
80.2181
84.0527
87.9562
91.9232
95.9485
100.026
104.15
108.315
112.513
116.738
120.984
125.244
129.511
133.778
138.039
142.286
146.513
150.715
154.886
159.02
163.114
167.164
171.169
175.126
179.037
182.872
186.609
190.239
193.755
197.153
200.428
203.573
206.584
209.458
212.19
214.775
217.212
219.496
221.626
223.598
225.412
227.066
228.559
229.891
231.061
232.071
232.921
233.613
234.148
234.528
234.756
234.835
234.767
234.557
234.208
233.725
233.11
232.37
231.509
230.531
229.443
228.248
226.952
225.56
224.079
222.513
220.867
219.146
217.357
215.505
213.592
211.626
209.612
207.553
205.453
203.317
201.15
198.956
196.733
194.492
192.234
189.952
187.658
185.369
183.075
180.773
178.492
176.234
174.027
171.912
169.916
167.987
166.096
164.226
162.371
160.528
158.695
156.869
155.049
153.235
151.425
149.619
147.815
146.012
144.21
142.407
140.603
138.798
136.989
135.177
133.361
131.541
129.716
127.886
126.052
124.212
122.368
120.52
118.668
116.814
114.958
113.101
111.244
109.389
107.537
105.69
103.849
102.016
100.193
98.381
96.5829
94.8001
93.0344
91.2879
89.5622
87.8593
86.1808
84.5286
82.9044
81.3097
79.7462
78.2154
76.7188
75.2579
73.8341
72.4488
71.1034
69.7994
68.5382
67.3213
66.1503
65.0269
63.9531
62.9308
61.9621
61.0493
60.1943
59.4002
58.6771
58.0935
2.93236
2.2704
2.61844
3.15888
3.75798
4.3802
5.02223
5.69503
6.4155
7.20299
8.0774
9.05747
10.1573
11.3816
12.7223
14.1621
15.6812
17.2806
18.9396
20.6511
22.4379
24.3077
26.2659
28.3168
30.4629
32.7056
35.0461
37.4853
40.0239
42.6623
45.4006
48.2386
51.1758
54.2115
57.3444
60.573
63.8954
67.3092
70.8118
74.4001
78.0705
81.8193
85.6422
89.5348
93.4922
97.5092
101.581
105.701
109.864
114.064
118.296
122.552
126.826
131.113
135.405
139.695
143.978
148.246
152.493
156.713
160.898
165.045
169.146
173.198
177.183
181.082
184.884
188.58
192.163
195.629
198.971
202.183
205.262
208.202
210.998
213.647
216.146
218.49
220.677
222.705
224.572
226.276
227.816
229.191
230.403
231.45
232.334
233.057
233.619
234.023
234.271
234.366
234.311
234.111
233.769
233.288
232.673
231.929
231.061
230.073
228.972
227.761
226.446
225.033
223.528
221.935
220.26
218.507
216.685
214.796
212.847
210.84
208.784
206.682
204.537
202.352
200.137
197.893
195.614
193.319
191.013
188.691
186.36
184.027
181.693
179.358
177.035
174.729
172.457
170.236
168.076
165.959
163.872
161.807
159.758
157.724
155.704
153.695
151.697
149.71
147.732
145.763
143.802
141.848
139.9
137.958
136.022
134.089
132.161
130.236
128.314
126.395
124.478
122.564
120.652
118.743
116.836
114.933
113.033
111.139
109.249
107.366
105.49
103.623
101.765
99.9186
98.0848
96.2651
94.461
92.674
90.9058
89.1579
87.432
85.7295
84.0521
82.4012
80.7783
79.1849
77.6223
76.0919
74.5949
73.1325
71.7059
70.3163
68.9647
67.6522
66.3799
65.1487
63.9598
62.8142
61.713
60.6574
59.6486
58.688
57.7767
56.9161
56.1075
55.3542
54.6705
54.1333
3.38531
2.54014
2.82123
3.32453
3.90899
4.53595
5.19818
5.90279
6.66258
7.49178
8.40369
9.40901
10.514
11.7192
13.0188
14.4048
15.8697
17.4128
19.031
20.7259
22.503
24.3663
26.32
28.3678
30.5124
32.7562
35.1007
37.5477
40.0984
42.754
45.5153
48.3828
51.3569
54.4375
57.6241
60.9158
64.3116
67.8096
71.4078
75.1037
78.8943
82.7762
86.7455
90.7981
94.9293
99.1344
103.408
107.745
112.139
116.584
121.075
125.604
130.166
134.753
139.357
143.973
148.591
153.204
157.804
162.382
166.93
171.44
175.904
180.306
184.627
188.854
192.975
196.984
200.873
204.634
208.262
211.751
215.095
218.288
221.326
224.203
226.917
229.463
231.838
234.039
236.065
237.913
239.583
241.073
242.384
243.515
244.469
245.247
245.849
246.279
246.539
246.632
246.562
246.333
245.949
245.414
244.734
243.912
242.955
241.869
240.659
239.329
237.886
236.337
234.687
232.943
231.109
229.191
227.197
225.132
223.001
220.806
218.558
216.262
213.92
211.526
209.11
206.666
204.194
201.702
199.198
196.68
194.155
191.627
189.099
186.573
184.057
181.555
179.079
176.638
174.236
171.867
169.523
167.202
164.9
162.616
160.349
158.099
155.865
153.646
151.442
149.253
147.077
144.914
142.764
140.626
138.499
136.383
134.277
132.182
130.095
128.018
125.95
123.891
121.841
119.799
117.767
115.745
113.733
111.732
109.743
107.765
105.802
103.852
101.919
100.002
98.1027
96.2231
94.3644
92.5278
90.7147
88.9267
87.165
85.431
83.7262
82.0518
80.4091
78.7993
77.2236
75.6832
74.1791
72.7123
71.2838
69.8945
68.5452
67.2369
65.9703
64.7461
63.5653
62.4285
61.3366
60.2903
59.2906
58.3382
57.4339
56.5786
55.7736
55.0236
54.347
53.827
3.75904
2.76123
2.98853
3.4609
4.03002
4.65503
5.32584
6.04614
6.82511
7.67304
8.59914
9.61021
10.7101
11.8992
13.1754
14.536
15.979
17.5047
19.114
20.8094
22.5938
24.4701
26.4419
28.5127
30.6857
32.9638
35.3494
37.8451
40.453
43.175
46.0131
48.9686
52.0427
55.2363
58.5497
61.983
65.5357
69.2067
72.9947
76.8976
80.9129
85.0376
89.268
93.6001
98.0293
102.551
107.159
111.849
116.613
121.447
126.342
131.293
136.291
141.329
146.399
151.492
156.598
161.709
166.814
171.901
176.961
181.982
186.953
191.845
196.644
201.337
205.914
210.366
214.685
218.862
222.891
226.764
230.475
234.018
237.387
240.576
243.582
246.401
249.028
251.46
253.696
255.733
257.57
259.206
260.641
261.876
262.913
263.752
264.396
264.847
265.109
265.184
265.077
264.794
264.338
263.715
262.929
261.987
260.894
259.658
258.284
256.779
255.147
253.398
251.537
249.573
247.51
245.353
243.112
240.794
238.404
235.939
233.42
230.852
228.236
225.575
222.882
220.16
217.412
214.644
211.862
209.068
206.268
203.465
200.664
197.867
195.079
192.306
189.555
186.832
184.14
181.476
178.837
176.222
173.63
171.06
168.512
165.986
163.481
160.998
158.535
156.093
153.671
151.268
148.885
146.52
144.173
141.843
139.531
137.235
134.956
132.692
130.444
128.212
125.995
123.793
121.608
119.438
117.285
115.148
113.029
110.928
108.847
106.785
104.745
102.726
100.731
98.7602
96.8151
94.8968
93.0067
91.146
89.3159
87.5177
85.7526
84.0218
82.3263
80.6673
79.0458
77.4627
75.919
74.4155
72.953
71.5323
70.154
68.8188
67.5273
66.2801
65.0776
63.9206
62.8094
61.7446
60.7266
59.756
58.8332
57.9588
57.1343
56.366
55.6761
55.1536
4.06602
2.93696
3.11699
3.56115
4.11312
4.73002
5.39968
6.12316
6.90692
7.75865
8.68526
9.69197
10.782
11.9568
13.2167
14.5619
15.9931
17.5119
19.1207
20.8222
22.6193
24.5151
26.5131
28.6173
30.8312
33.1585
35.6027
38.1671
40.8551
43.6697
46.6136
49.6895
52.8996
56.2458
59.7294
63.3513
67.1119
71.011
75.0477
79.2205
83.5274
87.9656
92.5316
97.2215
102.031
106.954
111.985
117.119
122.348
127.665
133.064
138.535
144.071
149.663
155.301
160.975
166.674
172.387
178.099
183.799
189.472
195.104
200.675
206.149
211.517
216.765
221.882
226.858
231.684
236.351
240.85
245.172
249.311
253.258
257.009
260.557
263.898
267.025
269.937
272.629
275.098
277.342
279.361
281.154
282.72
284.061
285.179
286.074
286.751
287.211
287.458
287.497
287.332
286.969
286.414
285.671
284.748
283.649
282.383
280.958
279.379
277.655
275.791
273.794
271.676
269.444
267.102
264.652
262.113
259.493
256.795
254.023
251.188
248.3
245.361
242.378
239.359
236.308
233.233
230.137
227.026
223.905
220.778
217.65
214.524
211.406
208.298
205.206
202.135
199.091
196.075
193.088
190.127
187.193
184.286
181.406
178.554
175.729
172.931
170.161
167.419
164.704
162.016
159.355
156.72
154.111
151.527
148.968
146.433
143.922
141.434
138.969
136.527
134.107
131.709
129.334
126.98
124.649
122.341
120.056
117.794
115.556
113.343
111.155
108.994
106.86
104.754
102.678
100.632
98.6169
96.6347
94.6861
92.7723
90.8943
89.0533
87.2501
85.4859
83.7616
82.078
80.4359
78.8363
77.2796
75.7667
74.298
72.8742
71.4956
70.1627
68.8759
67.6354
66.4416
65.2948
64.195
63.1425
62.1375
61.18
60.2704
59.4107
58.6088
57.8903
57.3507
4.31525
3.07212
3.20838
3.62509
4.15784
4.7616
5.42262
6.1401
6.91858
7.76413
8.68246
9.67818
10.7547
11.9145
13.1596
14.4919
15.9137
17.4279
19.0375
20.746
22.5569
24.4739
26.501
28.6427
30.9036
33.288
35.8007
38.4462
41.2288
44.1528
47.2224
50.4412
53.8128
57.3401
61.0255
64.8711
68.878
73.0467
77.3772
81.8685
86.5188
91.3256
96.2855
101.394
106.648
112.039
117.563
123.212
128.98
134.857
140.835
146.905
153.058
159.283
165.569
171.904
178.275
184.668
191.067
197.456
203.818
210.136
216.364
222.484
228.48
234.341
240.054
245.607
250.989
256.189
261.199
266.007
270.607
274.989
279.147
283.076
286.768
290.22
293.427
296.386
299.093
301.546
303.744
305.688
307.377
308.813
309.999
310.935
311.625
312.074
312.284
312.262
312.013
311.543
310.858
309.966
308.872
307.585
306.111
304.46
302.641
300.662
298.527
296.242
293.829
291.291
288.635
285.867
282.999
280.042
277.002
273.884
270.699
267.454
264.157
260.814
257.431
254.017
250.577
247.116
243.641
240.156
236.668
233.18
229.696
226.223
222.762
219.32
215.901
212.509
209.146
205.814
202.512
199.242
196.003
192.797
189.625
186.486
183.382
180.313
177.279
174.279
171.314
168.384
165.487
162.624
159.794
156.997
154.231
151.497
148.794
146.122
143.479
140.866
138.282
135.727
133.201
130.704
128.236
125.797
123.387
121.008
118.658
116.34
114.053
111.798
109.576
107.388
105.236
103.118
101.038
98.9952
96.9911
95.0266
93.1025
91.2198
89.3794
87.5819
85.8283
84.1191
82.4551
80.8367
79.2645
77.7389
76.2602
74.8288
73.4448
72.1085
70.8199
69.579
68.3858
67.2402
66.1421
65.0911
64.0871
63.1305
62.2234
61.3753
60.6155
60.0472
4.51408
3.17193
3.26661
3.65582
4.16736
4.75403
5.40087
6.10574
6.87191
7.70444
8.60843
9.58845
10.6483
11.7913
13.0207
14.3396
15.7516
17.2605
18.8703
20.5853
22.4098
24.3483
26.406
28.5881
30.9001
33.3477
35.9369
38.6733
41.5629
44.6111
47.8236
51.2053
54.7611
58.4952
62.4113
66.5122
70.8002
75.2768
79.9422
84.796
89.8369
95.0623
100.469
106.052
111.807
117.727
123.805
130.034
136.404
142.906
149.531
156.267
163.103
170.028
177.027
184.089
191.195
198.331
205.478
212.615
219.72
226.765
233.697
240.502
247.167
253.676
260.016
266.174
272.137
277.894
283.432
288.742
293.813
298.637
303.208
307.517
311.56
315.332
318.827
322.043
324.974
327.62
329.981
332.056
333.847
335.355
336.584
337.535
338.211
338.619
338.763
338.65
338.285
337.675
336.828
335.753
334.457
332.946
331.228
329.319
327.227
324.961
322.526
319.934
317.198
314.326
311.328
308.212
304.988
301.666
298.255
294.763
291.199
287.571
283.888
280.157
276.385
272.58
268.749
264.898
261.034
257.161
253.287
249.415
245.551
241.7
237.865
234.052
230.265
226.508
222.784
219.094
215.439
211.821
208.241
204.7
201.199
197.74
194.322
190.947
187.614
184.324
181.077
177.873
174.711
171.59
168.512
165.473
162.476
159.517
156.598
153.716
150.873
148.066
145.296
142.562
139.864
137.201
134.574
131.983
129.426
126.905
124.421
121.972
119.56
117.185
114.847
112.549
110.289
108.069
105.89
103.752
101.656
99.6035
97.5946
95.6302
93.7111
91.8378
90.011
88.2313
86.4991
84.8149
83.1789
81.5916
80.053
78.5632
77.1224
75.7303
74.387
73.092
71.8451
70.6459
69.4938
68.3881
67.3285
66.3152
65.3506
64.4457
63.6335
63.0265
4.66889
3.24148
3.2964
3.65777
4.14642
4.71304
5.34167
6.02926
6.7782
7.59296
8.47841
9.43919
10.4797
11.6039
12.8162
14.1206
15.5218
17.0245
18.6338
20.3549
22.1933
24.1546
26.2451
28.4712
30.8398
33.3578
36.0327
38.8717
41.8821
45.0711
48.4456
52.0123
55.7773
59.7461
63.9238
68.3142
72.9207
77.7452
82.7888
88.0514
93.5315
99.2266
105.133
111.247
117.561
124.068
130.761
137.63
144.664
151.854
159.186
166.648
174.227
181.909
189.679
197.52
205.415
213.344
221.284
229.213
237.105
244.89
252.547
260.059
267.408
274.58
281.558
288.328
294.876
301.189
307.254
313.058
318.591
323.844
328.81
333.483
337.855
341.923
345.683
349.128
352.255
355.063
357.553
359.726
361.585
363.13
364.367
365.295
365.921
366.251
366.292
366.05
365.531
364.744
363.7
362.407
360.874
359.11
357.123
354.928
352.536
349.954
347.194
344.266
341.182
337.953
334.589
331.099
327.494
323.785
319.982
316.093
312.129
308.098
304.008
299.87
295.69
291.477
287.238
282.979
278.709
274.433
270.157
265.888
261.629
257.387
253.166
248.97
244.805
240.674
236.58
232.526
228.513
224.543
220.617
216.738
212.906
209.123
205.39
201.707
198.076
194.496
190.967
187.489
184.063
180.687
177.361
174.085
170.857
167.678
164.545
161.459
158.419
155.423
152.471
149.563
146.697
143.874
141.093
138.353
135.655
132.998
130.382
127.808
125.275
122.785
120.336
117.93
115.567
113.247
110.972
108.742
106.557
104.418
102.326
100.282
98.2846
96.3359
94.436
92.5854
90.7843
89.033
87.3317
85.6806
84.0796
82.5286
81.0275
79.5759
78.1734
76.8196
75.5137
74.2549
73.0424
71.8752
70.7525
69.6744
68.6435
67.6726
66.7983
66.1439
4.78541
3.28555
3.30254
3.63585
4.1003
4.64471
5.25231
5.91937
6.64773
7.44152
8.30554
9.24473
10.2639
11.368
12.562
13.8513
15.2412
16.7378
18.3472
20.0758
21.9304
23.9181
26.0463
28.3231
30.7568
33.3562
36.1301
39.0876
42.2376
45.589
49.1505
52.93
56.9354
61.1735
65.6505
70.3715
75.3406
80.5606
86.0326
91.7566
97.7311
103.953
110.419
117.122
124.057
131.214
138.584
146.156
153.917
161.854
169.952
178.197
186.573
195.064
203.652
212.317
221.04
229.797
238.564
247.312
255.984
264.521
272.908
281.125
289.155
296.981
304.585
311.951
319.066
325.915
332.48
338.75
344.714
350.362
355.688
360.685
365.347
369.67
373.651
377.281
380.557
383.482
386.055
388.279
390.157
391.693
392.89
393.749
394.279
394.487
394.381
393.968
393.257
392.258
390.981
389.436
387.634
385.584
383.298
380.789
378.068
375.146
372.034
368.745
365.29
361.681
357.929
354.045
350.041
345.927
341.714
337.413
333.033
328.584
324.076
319.517
314.918
310.285
305.627
300.953
296.268
291.58
286.896
282.222
277.563
272.924
268.312
263.73
259.183
254.676
250.212
245.793
241.422
237.101
232.832
228.617
224.457
220.354
216.309
212.324
208.398
204.532
200.727
196.982
193.297
189.672
186.105
182.597
179.147
175.753
172.415
169.132
165.902
162.725
159.599
156.525
153.5
150.524
147.597
144.718
141.886
139.101
136.362
133.67
131.024
128.425
125.872
123.365
120.905
118.492
116.127
113.81
111.541
109.32
107.149
105.027
102.956
100.934
98.9636
97.0438
95.1751
93.3577
91.5914
89.8763
88.2123
86.5989
85.0358
83.5225
82.0582
80.6422
79.2734
77.9508
76.673
75.4387
74.2468
73.0971
71.9928
70.9477
70.0028
69.2932
4.86881
3.30847
3.28957
3.59484
4.03423
4.55497
5.13966
5.78411
6.48978
7.26064
8.10158
9.01787
10.015
11.0985
12.2744
13.5491
14.9291
16.4216
18.0341
19.7745
21.6509
23.6722
25.8476
28.1868
30.6999
33.3976
36.2906
39.39
42.7066
46.2511
50.0336
54.0641
58.3515
62.9042
67.7296
72.8337
78.2214
83.8958
89.8581
96.1076
102.642
109.459
116.551
123.914
131.537
139.412
147.526
155.866
164.418
173.164
182.086
191.166
200.388
209.731
219.175
228.698
238.276
247.882
257.488
267.053
276.482
285.755
294.851
303.75
312.433
320.88
329.074
336.997
344.635
351.975
358.994
365.678
372.018
378.006
383.634
388.896
393.786
398.303
402.445
406.199
409.563
412.542
415.137
417.352
419.191
420.658
421.757
422.495
422.879
422.917
422.617
421.99
421.045
419.793
418.244
416.411
414.304
411.936
409.319
406.465
403.388
400.099
396.611
392.938
389.091
385.082
380.925
376.631
372.212
367.68
363.046
358.321
353.516
348.641
343.706
338.722
333.698
328.642
323.563
318.469
313.369
308.269
303.177
298.098
293.04
288.007
283.006
278.041
273.117
268.238
263.409
258.632
253.91
249.245
244.64
240.097
235.617
231.203
226.856
222.576
218.365
214.224
210.151
206.149
202.215
198.35
194.554
190.825
187.162
183.565
180.032
176.562
173.154
169.806
166.518
163.288
160.115
156.998
153.936
150.928
147.972
145.069
142.218
139.418
136.669
133.97
131.322
128.723
126.175
123.677
121.229
118.832
116.485
114.19
111.945
109.752
107.611
105.521
103.483
101.498
99.5645
97.6831
95.8537
94.076
92.3496
90.6739
89.0485
87.4725
85.9449
84.4647
83.0304
81.6407
80.2939
78.9882
77.7222
76.4957
75.3118
74.1858
73.163
72.3915
4.92386
3.31413
3.26159
3.53918
3.95309
4.44935
5.01012
5.63084
6.31281
7.05994
7.87735
8.77077
9.74629
10.8105
11.9702
13.2331
14.6071
16.1007
17.723
19.4836
21.3927
23.4608
25.6994
28.1201
30.7353
33.5577
36.6003
39.8762
43.3986
47.1799
51.2321
55.5663
60.193
65.1218
70.3609
75.9173
81.7962
88.0008
94.5317
101.386
108.562
116.053
123.853
131.954
140.344
149.012
157.943
167.122
176.531
186.145
195.945
205.909
216.017
226.246
236.572
246.969
257.41
267.867
278.305
288.623
298.777
308.744
318.503
328.033
337.313
346.322
355.042
363.455
371.546
379.309
386.707
393.728
400.366
406.615
412.466
417.913
422.952
427.58
431.795
435.592
438.969
441.93
444.477
446.615
448.348
449.682
450.624
451.181
451.361
451.173
450.629
449.737
448.51
446.96
445.097
442.935
440.487
437.766
434.784
431.557
428.096
424.415
420.529
416.45
412.192
407.769
403.192
398.476
393.632
388.673
383.61
378.457
373.223
367.92
362.559
357.149
351.702
346.225
340.729
335.221
329.71
324.204
318.711
313.236
307.787
302.369
296.988
291.65
286.359
281.12
275.938
270.814
265.754
260.758
255.83
250.972
246.186
241.474
236.838
232.279
227.797
223.393
219.068
214.821
210.653
206.563
202.55
198.613
194.752
190.965
187.251
183.609
180.036
176.532
173.094
169.723
166.415
163.169
159.985
156.861
153.795
150.786
147.835
144.939
142.097
139.311
136.578
133.898
131.271
128.698
126.177
123.708
121.292
118.929
116.619
114.361
112.156
110.004
107.904
105.858
103.864
101.922
100.032
98.1943
96.4073
94.6707
92.9835
91.3449
89.7536
88.2081
86.7068
85.2479
83.8295
82.4493
81.1056
79.798
78.5298
77.3176
76.2109
75.3718
4.95491
3.30593
3.22222
3.47283
3.86134
4.33297
4.86956
5.46641
6.12474
6.84859
7.64343
8.51556
9.47194
10.5201
11.6683
12.9254
14.301
15.8054
17.4497
19.2455
21.2052
23.342
25.6696
28.2021
30.9543
33.9414
37.1791
40.6829
44.4682
48.5496
52.9402
57.6524
62.6977
68.0865
73.8277
79.9283
86.3936
93.2266
100.426
107.986
115.901
124.165
132.768
141.698
150.943
160.486
170.311
180.401
190.734
201.274
211.998
222.883
233.905
245.036
256.25
267.517
278.805
290.081
301.256
312.276
323.087
333.675
344.02
354.098
363.889
373.371
382.524
391.329
399.773
407.84
415.509
422.767
429.605
436.015
441.99
447.525
452.617
457.263
461.462
465.213
468.515
471.372
473.788
475.767
477.317
478.445
479.158
479.466
479.377
478.902
478.054
476.843
475.282
473.385
471.163
468.632
465.804
462.694
459.316
455.685
451.815
447.72
443.415
438.913
434.23
429.379
424.373
419.227
413.952
408.563
403.072
397.49
391.83
386.103
380.32
374.492
368.629
362.741
356.837
350.927
345.019
339.12
333.239
327.382
321.557
315.77
310.026
304.331
298.691
293.109
287.591
282.14
276.758
271.45
266.218
261.064
255.99
250.999
246.093
241.271
236.537
231.889
227.329
222.856
218.471
214.173
209.961
205.835
201.792
197.832
193.954
190.155
186.433
182.788
179.218
175.72
172.292
168.934
165.642
162.416
159.254
156.154
153.116
150.137
147.217
144.355
141.549
138.8
136.106
133.468
130.884
128.354
125.878
123.457
121.089
118.774
116.513
114.305
112.15
110.047
107.998
106
104.054
102.159
100.314
98.5181
96.7708
95.0706
93.4159
91.805
90.2361
88.707
87.2154
85.7587
84.3349
82.9434
81.5877
80.2852
79.0901
78.1787
4.96599
3.28682
3.17462
3.39935
3.76305
4.21054
4.72357
5.29742
5.93342
6.63591
7.41089
8.26549
9.2077
10.2464
11.3914
12.6533
14.0439
15.5756
17.2619
19.1172
21.1566
23.3964
25.8532
28.5442
31.4869
34.6993
38.1998
42.0069
46.1384
50.6112
55.4387
60.6335
66.2076
72.1717
78.534
85.301
92.4771
100.065
108.061
116.45
125.225
134.377
143.892
153.756
163.951
174.456
185.252
196.32
207.641
219.149
230.829
242.654
254.595
266.62
278.699
290.797
302.877
314.848
326.644
338.242
349.604
360.706
371.524
382.036
392.219
402.052
411.515
420.589
429.259
437.511
445.329
452.699
459.612
466.061
472.041
477.547
482.576
487.128
491.203
494.801
497.926
500.579
502.767
504.497
505.776
506.614
507.019
507.002
506.574
505.746
504.531
502.942
500.994
498.7
496.074
493.13
489.884
486.352
482.548
478.487
474.184
469.654
464.914
459.976
454.857
449.571
444.131
438.552
432.848
427.031
421.114
415.111
409.033
402.892
396.7
390.467
384.203
377.92
371.626
365.332
359.044
352.773
346.525
340.308
334.129
327.994
321.91
315.882
309.915
304.014
298.184
292.428
286.75
281.153
275.64
270.214
264.876
259.63
254.475
249.415
244.45
239.581
234.808
230.131
225.55
221.065
216.675
212.378
208.174
204.061
200.036
196.1
192.249
188.481
184.795
181.188
177.658
174.203
170.821
167.509
164.266
161.091
157.98
154.933
151.948
149.024
146.16
143.354
140.605
137.914
135.278
132.698
130.173
127.702
125.285
122.922
120.613
118.356
116.153
114.001
111.901
109.853
107.854
105.906
104.007
102.155
100.35
98.59
96.8732
95.1979
93.5617
91.9622
90.3968
88.8629
87.3578
85.881
84.4358
83.0407
81.754
80.7668
4.9608
3.25936
3.12151
3.32189
3.66201
4.08666
4.57774
5.13074
5.74729
6.43228
7.19255
8.03636
8.97317
10.0136
11.1695
12.4539
13.8811
15.4669
17.2275
19.1807
21.3455
23.742
26.3909
29.3124
32.527
36.056
39.921
44.1429
48.7424
53.7393
59.1449
64.9695
71.2254
77.922
85.0656
92.6599
100.707
109.209
118.164
127.531
137.306
147.478
158.027
168.933
180.174
191.723
203.556
215.643
227.956
240.447
253.083
265.831
278.657
291.525
304.402
317.245
329.955
342.465
354.755
366.801
378.571
390.039
401.181
411.972
422.392
432.419
442.034
451.219
459.961
468.245
476.057
483.388
490.228
496.571
502.413
507.751
512.584
516.912
520.738
524.065
526.894
529.233
531.089
532.468
533.381
533.838
533.851
533.429
532.586
531.335
529.689
527.664
525.273
522.533
519.457
516.062
512.363
508.376
504.118
499.604
494.849
489.87
484.682
479.301
473.741
468.017
462.144
456.137
450.008
443.773
437.442
431.031
424.55
418.012
411.429
404.811
398.169
391.513
384.853
378.199
371.558
364.941
358.353
351.803
345.299
338.845
332.45
326.117
319.853
313.662
307.55
301.519
295.574
289.717
283.953
278.282
272.709
267.234
261.86
256.588
251.42
246.355
241.394
236.538
231.787
227.138
222.593
218.149
213.806
209.561
205.413
201.36
197.4
193.53
189.747
186.05
182.437
178.903
175.448
172.068
168.762
165.526
162.359
159.26
156.225
153.254
150.344
147.495
144.705
141.973
139.297
136.678
134.114
131.605
129.15
126.748
124.398
122.101
119.856
117.662
115.519
113.425
111.38
109.383
107.434
105.529
103.669
101.852
100.075
98.3369
96.6347
94.9658
93.3273
91.7163
90.1301
88.5677
87.0328
85.5442
84.1644
83.099
4.94281
3.22579
3.06536
3.24347
3.56199
3.96613
4.43823
4.97423
5.57641
6.25059
7.00489
7.84923
8.7951
9.85564
11.0454
12.3808
13.8799
15.5628
17.4494
19.5621
21.9248
24.5627
27.5023
30.7671
34.3796
38.3652
42.7482
47.5517
52.7981
58.5135
64.6998
71.3608
78.5093
86.1509
94.2873
102.916
112.034
121.633
131.699
142.204
153.129
164.453
176.152
188.2
200.565
213.217
226.124
239.251
252.56
266.009
279.555
293.161
306.784
320.387
333.931
347.292
360.418
373.293
385.898
398.208
410.196
421.837
433.105
443.979
454.439
464.464
474.036
483.142
491.766
499.897
507.524
514.638
521.232
527.301
532.843
537.857
542.342
546.302
549.741
552.662
555.072
556.977
558.385
559.307
559.754
559.736
559.267
558.36
557.027
555.283
553.143
550.623
547.738
544.504
540.937
537.054
532.871
528.404
523.67
518.685
513.465
508.027
502.387
496.559
490.56
484.404
478.106
471.68
465.141
458.502
451.777
444.977
438.116
431.205
424.256
417.281
410.288
403.29
396.295
389.312
382.351
375.42
368.527
361.679
354.883
348.146
341.474
334.872
328.346
321.901
315.54
309.269
303.091
297.009
291.027
285.146
279.369
273.699
268.137
262.684
257.342
252.112
246.993
241.986
237.091
232.307
227.633
223.068
218.611
214.259
210.011
205.864
201.817
197.866
194.008
190.242
186.565
182.972
179.463
176.033
172.681
169.403
166.197
163.061
159.992
156.988
154.048
151.17
148.352
145.592
142.89
140.243
137.652
135.115
132.631
130.199
127.819
125.491
123.212
120.983
118.803
116.67
114.584
112.544
110.548
108.596
106.685
104.813
102.979
101.18
99.4143
97.6777
95.9677
94.2811
92.6151
90.9684
89.3447
87.7634
86.2907
85.146
4.9153
3.18815
3.00854
3.16721
3.46723
3.85467
4.31269
4.83811
5.43436
6.1088
6.87154
7.73503
8.71378
9.82465
11.0861
12.5193
14.1481
15.9992
18.0969
20.4698
23.1485
26.1649
29.5549
33.3435
37.5529
42.2134
47.3509
52.9879
59.1443
65.8368
73.0692
80.8426
89.1591
98.0161
107.406
117.318
127.738
138.647
150.024
161.836
174.056
186.654
199.597
212.852
226.381
240.149
254.115
268.241
282.482
296.794
311.129
325.449
339.698
353.837
367.717
381.318
394.628
407.632
420.311
432.642
444.603
456.17
467.32
478.034
488.294
498.081
507.381
516.18
524.466
532.23
539.464
546.161
552.314
557.923
562.986
567.503
571.478
574.914
577.817
580.193
582.05
583.395
584.241
584.596
584.474
583.888
582.851
581.377
579.481
577.179
574.485
571.417
567.99
564.222
560.129
555.728
551.036
546.069
540.845
535.38
529.69
523.791
517.7
511.433
505.004
498.428
491.721
484.896
477.968
470.95
463.855
456.695
449.484
442.232
434.951
427.651
420.344
413.04
405.747
398.475
391.233
384.029
376.87
369.764
362.718
355.737
348.829
341.999
335.251
328.592
322.024
315.553
309.181
302.913
296.75
290.697
284.754
278.924
273.21
267.611
262.13
256.767
251.523
246.397
241.389
236.499
231.726
227.068
222.523
218.091
213.768
209.553
205.442
201.433
197.524
193.71
189.99
186.359
182.815
179.355
175.975
172.672
169.445
166.289
163.202
160.182
157.227
154.334
151.501
148.727
146.01
143.349
140.742
138.188
135.686
133.235
130.834
128.483
126.179
123.923
121.712
119.548
117.427
115.349
113.313
111.317
109.359
107.437
105.55
103.694
101.866
100.065
98.2862
96.5265
94.7832
93.0548
91.3449
89.6732
88.1091
86.8853
4.88152
3.14842
2.95364
3.09689
3.38319
3.76006
4.212
4.7374
5.34168
6.03479
6.83005
7.74399
8.79568
10.0083
11.4061
13.0169
14.8739
17.0167
19.4714
22.277
25.4729
29.098
33.1907
37.7824
42.9001
48.5715
54.8192
61.6599
69.1049
77.1593
85.8188
95.0741
104.913
115.32
126.272
137.747
149.716
162.151
175.018
188.279
201.896
215.832
230.046
244.499
259.148
273.952
288.866
303.847
318.845
333.816
348.703
363.474
378.021
392.23
406.106
419.643
432.829
445.651
458.095
470.142
481.772
492.965
503.703
513.97
523.749
533.025
541.787
550.022
557.723
564.883
571.494
577.552
583.055
588.003
592.395
596.235
599.527
602.277
604.492
606.181
607.351
608.014
608.18
607.862
607.074
605.829
604.142
602.029
599.504
596.583
593.284
589.623
585.617
581.283
576.638
571.699
566.483
561.006
555.287
549.341
543.185
536.834
530.305
523.613
516.774
509.801
502.71
495.514