/*--------------------------------*- C++ -*----------------------------------*\
  =========                 |
  \\      /  F ield         | OpenFOAM: The Open Source CFD Toolbox
   \\    /   O peration     | Website:  https://openfoam.org
    \\  /    A nd           | Version:  7
     \\/     M anipulation  |
\*---------------------------------------------------------------------------*/
FoamFile
{
    version     2.0;
    format      ascii;
    class       volScalarField;
    location    "950";
    object      k;
}
// * * * * * * * * * * * * * * * * * * * * * * * * * * * * * * * * * * * * * //

dimensions      [0 2 -2 0 0 0 0];

internalField   nonuniform List<scalar> 
16900
(
0.0105718
0.0249788
0.0395412
0.0529941
0.0652419
0.0763007
0.0862446
0.0951475
0.103057
0.109976
0.115876
0.120691
0.124368
0.126926
0.128566
0.129776
0.13123
0.130782
0.132383
0.141717
0.151793
0.162162
0.17285
0.183839
0.195118
0.206682
0.218526
0.230646
0.24304
0.255701
0.268623
0.281799
0.29522
0.308876
0.322755
0.336844
0.351131
0.3656
0.380235
0.395019
0.409936
0.424966
0.44009
0.455287
0.470537
0.485818
0.501107
0.516382
0.531617
0.546789
0.561873
0.576842
0.591671
0.606333
0.620803
0.635054
0.649063
0.662806
0.676265
0.689422
0.702268
0.714802
0.727038
0.739008
0.750778
0.762284
0.77334
0.783948
0.794101
0.803795
0.813023
0.821778
0.830056
0.83785
0.845157
0.851973
0.858296
0.864124
0.869455
0.87429
0.878629
0.882475
0.88583
0.888698
0.891084
0.892993
0.894433
0.895409
0.895931
0.896006
0.895646
0.894861
0.893662
0.892061
0.890068
0.887698
0.884964
0.88188
0.878461
0.874719
0.870669
0.866326
0.861707
0.856826
0.851697
0.846334
0.840753
0.834972
0.829002
0.822857
0.816551
0.8101
0.803519
0.796814
0.789999
0.783095
0.776109
0.76904
0.761913
0.754742
0.747513
0.740246
0.732972
0.725676
0.718331
0.710981
0.70371
0.696504
0.689626
0.683981
0.680292
0.677027
0.673843
0.670681
0.667526
0.664369
0.661204
0.658024
0.654827
0.651607
0.648361
0.645083
0.64177
0.638418
0.63502
0.631574
0.628074
0.624516
0.620896
0.617209
0.613451
0.609618
0.605707
0.601715
0.597639
0.593478
0.589229
0.584893
0.580468
0.575955
0.571355
0.56667
0.561903
0.557055
0.552132
0.547136
0.542074
0.53695
0.53177
0.526539
0.521266
0.515956
0.510616
0.505255
0.49988
0.494497
0.489116
0.483745
0.478391
0.473062
0.467767
0.462515
0.457314
0.452172
0.447099
0.442105
0.4372
0.432395
0.4277
0.423131
0.418702
0.414431
0.410337
0.406448
0.402794
0.399419
0.396383
0.393785
0.39178
0.39092
0.0225147
0.0404994
0.0558422
0.0702111
0.0834695
0.0955986
0.106701
0.116915
0.126365
0.135154
0.14337
0.151121
0.158603
0.166231
0.174793
0.185259
0.19756
0.212709
0.228575
0.245742
0.263238
0.281084
0.299514
0.318549
0.338168
0.358358
0.379114
0.400433
0.422311
0.444743
0.467724
0.491244
0.515294
0.53986
0.564928
0.59048
0.616496
0.642956
0.669837
0.697112
0.724756
0.752739
0.781032
0.809603
0.838419
0.867446
0.896648
0.925989
0.95543
0.984931
1.01445
1.04395
1.07338
1.10269
1.13185
1.1608
1.1895
1.2179
1.24595
1.2736
1.30083
1.32759
1.35385
1.37959
1.40477
1.42912
1.45275
1.47568
1.4979
1.51939
1.54013
1.56011
1.57931
1.5977
1.61529
1.63204
1.64796
1.66303
1.67724
1.69059
1.70306
1.71465
1.72537
1.73521
1.74417
1.75226
1.75948
1.76584
1.77134
1.776
1.77982
1.78283
1.78504
1.78646
1.7871
1.787
1.78616
1.78462
1.78239
1.77949
1.77595
1.7718
1.76705
1.76174
1.75589
1.74953
1.74267
1.73536
1.72761
1.71945
1.71091
1.70201
1.69278
1.68324
1.67341
1.66332
1.65299
1.64244
1.63169
1.62076
1.60967
1.59842
1.58703
1.57556
1.56395
1.55215
1.5404
1.52865
1.517
1.50549
1.49432
1.48324
1.47217
1.46111
1.45006
1.439
1.42794
1.41686
1.40577
1.39465
1.38349
1.37229
1.36104
1.34974
1.33837
1.32693
1.3154
1.30379
1.29209
1.28028
1.26836
1.25633
1.24418
1.23191
1.21951
1.20699
1.19434
1.18157
1.16868
1.15567
1.14255
1.12933
1.11601
1.1026
1.08912
1.07558
1.06198
1.04836
1.0347
1.02105
1.0074
0.993783
0.980206
0.966691
0.953253
0.939909
0.926679
0.913577
0.900622
0.887831
0.87522
0.862807
0.850607
0.838639
0.826918
0.815462
0.804289
0.793417
0.782866
0.772658
0.762814
0.753363
0.744333
0.735759
0.727684
0.720158
0.713244
0.707032
0.70167
0.69764
0.0321188
0.0527941
0.0691122
0.0842051
0.0983686
0.111646
0.12416
0.136101
0.147682
0.159124
0.170663
0.182564
0.195153
0.208837
0.224063
0.24107
0.259612
0.279669
0.300741
0.322638
0.345131
0.368201
0.391938
0.416386
0.441551
0.46743
0.494021
0.521323
0.549331
0.578041
0.607443
0.637527
0.668281
0.699687
0.731728
0.76438
0.797619
0.831418
0.865748
0.900574
0.935864
0.97158
1.00768
1.04413
1.08089
1.11791
1.15514
1.19254
1.23006
1.26766
1.30528
1.34287
1.38038
1.41775
1.45493
1.49186
1.52848
1.56473
1.60056
1.63592
1.67074
1.70497
1.73859
1.77154
1.8036
1.83476
1.86504
1.89444
1.92292
1.95048
1.97708
2.00271
2.02733
2.05094
2.07351
2.09502
2.11545
2.1348
2.15305
2.17019
2.18622
2.20112
2.21489
2.22754
2.23906
2.24946
2.25875
2.26693
2.274
2.28
2.28492
2.28879
2.29163
2.29345
2.29428
2.29414
2.29305
2.29105
2.28817
2.28442
2.27985
2.27447
2.26833
2.26146
2.25389
2.24565
2.23678
2.2273
2.21726
2.20669
2.19561
2.18407
2.17209
2.15971
2.14695
2.13383
2.12042
2.1067
2.09271
2.07848
2.06406
2.04938
2.03453
2.0196
2.00455
1.98936
1.97413
1.95888
1.94368
1.92856
1.91358
1.89864
1.88371
1.86878
1.85385
1.83891
1.82397
1.80902
1.79405
1.77905
1.76403
1.74896
1.73385
1.71867
1.70344
1.68812
1.67273
1.65723
1.64164
1.62594
1.61012
1.59417
1.5781
1.5619
1.54556
1.52909
1.51248
1.49574
1.47888
1.46189
1.44479
1.42758
1.41029
1.39291
1.37546
1.35796
1.34042
1.32287
1.30532
1.28779
1.2703
1.25286
1.23551
1.21826
1.20114
1.18416
1.16734
1.15071
1.13428
1.11808
1.10213
1.08645
1.07105
1.05596
1.04119
1.02677
1.01272
0.999048
0.98579
0.972965
0.960599
0.948721
0.937365
0.926567
0.916372
0.906834
0.898018
0.890029
0.883071
0.877888
0.0396013
0.0627253
0.0800464
0.095767
0.11068
0.124981
0.138831
0.152449
0.166089
0.180017
0.194498
0.209801
0.226187
0.243902
0.263134
0.283926
0.306115
0.329554
0.354038
0.379393
0.405484
0.43228
0.459831
0.488176
0.517335
0.547314
0.578118
0.609745
0.642196
0.675464
0.709542
0.74442
0.780083
0.816515
0.853695
0.891598
0.930196
0.969459
1.00935
1.04984
1.09088
1.13243
1.17445
1.21688
1.25968
1.3028
1.34618
1.38978
1.43353
1.47738
1.52127
1.56515
1.60895
1.65261
1.69606
1.73925
1.7821
1.82455
1.86654
1.90798
1.94882
1.98899
2.02843
2.06707
2.10467
2.14126
2.17683
2.21135
2.2448
2.27716
2.30839
2.33847
2.36737
2.39507
2.42155
2.44677
2.47073
2.49341
2.5148
2.53487
2.55363
2.57106
2.58716
2.60193
2.61538
2.6275
2.6383
2.6478
2.656
2.66292
2.66858
2.67299
2.67618
2.67817
2.67899
2.67867
2.67723
2.67471
2.67113
2.66655
2.66098
2.65447
2.64705
2.63876
2.62964
2.61974
2.60907
2.5977
2.58566
2.57298
2.55971
2.54587
2.53152
2.5167
2.50141
2.4857
2.46963
2.45323
2.43644
2.41941
2.40216
2.38469
2.36703
2.34924
2.33132
2.31329
2.29518
2.27704
2.25892
2.24084
2.22283
2.20483
2.18684
2.16884
2.15083
2.13283
2.11483
2.09682
2.07881
2.06079
2.04274
2.02467
2.00656
1.98841
1.9702
1.95192
1.93357
1.91513
1.89659
1.87796
1.85921
1.84035
1.82136
1.80224
1.783
1.76363
1.74412
1.72449
1.70474
1.68488
1.66491
1.64484
1.62469
1.60448
1.58421
1.5639
1.54358
1.52326
1.50296
1.48271
1.46252
1.44243
1.42245
1.40261
1.38292
1.36342
1.34413
1.32507
1.30625
1.28772
1.26947
1.25155
1.23396
1.21674
1.19989
1.18345
1.16743
1.15186
1.13675
1.12213
1.10804
1.09449
1.08153
1.06918
1.05751
1.04655
1.03638
1.02712
1.01906
1.01315
0.045717
0.0707697
0.089059
0.105385
0.120951
0.136133
0.151149
0.166233
0.181646
0.197648
0.214486
0.232381
0.251516
0.272027
0.293986
0.317373
0.34208
0.367979
0.394947
0.42287
0.45166
0.48129
0.51178
0.54316
0.575449
0.608661
0.642802
0.677877
0.713887
0.75083
0.7887
0.827489
0.867183
0.907767
0.949218
0.991512
1.03462
1.07851
1.12314
1.16848
1.21447
1.26107
1.30823
1.3559
1.40402
1.45252
1.50136
1.55047
1.59979
1.64925
1.69879
1.74835
1.79785
1.84722
1.8964
1.94531
1.99387
2.04201
2.08965
2.13671
2.1831
2.22875
2.27359
2.31743
2.36014
2.40171
2.44212
2.48134
2.51934
2.55609
2.59156
2.62571
2.65852
2.68995
2.71998
2.74858
2.77574
2.80143
2.82565
2.84836
2.86958
2.88928
2.90746
2.92412
2.93926
2.9529
2.96503
2.97567
2.98483
2.99253
2.99879
3.00362
3.00706
3.00914
3.00988
3.00931
3.00747
3.00439
3.00011
2.99467
2.98812
2.98048
2.97181
2.96214
2.95153
2.94002
2.92764
2.91444
2.90047
2.88579
2.87042
2.8544
2.83779
2.82065
2.80298
2.78478
2.76621
2.74728
2.72798
2.70839
2.68855
2.66847
2.64819
2.62775
2.60718
2.58649
2.56572
2.5449
2.52408
2.50329
2.48252
2.46176
2.441
2.42023
2.39947
2.37872
2.35799
2.33726
2.31654
2.29583
2.27512
2.2544
2.23366
2.2129
2.1921
2.17125
2.15034
2.12937
2.10832
2.08718
2.06595
2.04462
2.02317
2.00162
1.97994
1.95815
1.93624
1.91422
1.89209
1.86986
1.84754
1.82514
1.80267
1.78014
1.75758
1.735
1.71243
1.68988
1.66738
1.64494
1.6226
1.60038
1.57829
1.55638
1.53466
1.51315
1.49189
1.47089
1.45019
1.42979
1.40973
1.39003
1.37071
1.35179
1.3333
1.31525
1.29766
1.28056
1.26398
1.24792
1.23243
1.21753
1.20325
1.18963
1.17671
1.16455
1.15323
1.1429
1.1339
1.1274
0.0507628
0.07725
0.0964004
0.113294
0.129429
0.145344
0.161317
0.177595
0.194429
0.212057
0.23069
0.250499
0.271614
0.294108
0.318005
0.343273
0.369832
0.39759
0.426464
0.456379
0.487279
0.51914
0.551972
0.585797
0.620632
0.656494
0.693394
0.731341
0.770341
0.810394
0.851498
0.893648
0.936834
0.98104
1.02625
1.07243
1.11956
1.1676
1.21651
1.26625
1.31676
1.36801
1.41992
1.47245
1.52552
1.57907
1.63304
1.68735
1.74193
1.79672
1.85164
1.90661
1.96156
2.01641
2.07109
2.1255
2.17956
2.23319
2.28629
2.33876
2.39051
2.44145
2.49149
2.54033
2.58793
2.63428
2.67933
2.72305
2.76541
2.80636
2.84587
2.8839
2.92042
2.95539
2.98879
3.02059
3.05077
3.0793
3.10618
3.13137
3.15488
3.17669
3.1968
3.21521
3.23192
3.24693
3.26027
3.27194
3.28195
3.29032
3.29708
3.30225
3.30586
3.30795
3.30854
3.30767
3.30537
3.30169
3.29666
3.29035
3.28278
3.274
3.26406
3.25301
3.2409
3.22778
3.21369
3.19868
3.18282
3.16615
3.14872
3.13053
3.1117
3.09229
3.07232
3.05181
3.03086
3.0095
2.98776
2.9657
2.94335
2.92076
2.89795
2.87497
2.85184
2.82859
2.80526
2.78187
2.75847
2.73508
2.71171
2.68834
2.66498
2.64163
2.61829
2.59498
2.5717
2.54845
2.52524
2.50206
2.4789
2.45575
2.43262
2.40949
2.38635
2.36319
2.34
2.31677
2.29348
2.27013
2.24671
2.22321
2.19962
2.17594
2.15216
2.12828
2.1043
2.08023
2.05607
2.03182
2.00749
1.98311
1.95867
1.93419
1.9097
1.88521
1.86074
1.83632
1.81196
1.78769
1.76354
1.73953
1.71569
1.69204
1.66861
1.64543
1.62251
1.5999
1.5776
1.55564
1.53406
1.51286
1.49208
1.47173
1.45184
1.43242
1.41349
1.39509
1.37723
1.35992
1.34321
1.32711
1.31166
1.29688
1.28283
1.26956
1.25716
1.2458
1.23592
1.22884
0.0549075
0.0824065
0.102264
0.119654
0.136267
0.152767
0.169488
0.18669
0.20461
0.223459
0.243415
0.264614
0.287145
0.311055
0.336349
0.362996
0.390939
0.420114
0.450465
0.481941
0.514507
0.548147
0.58287
0.61869
0.65563
0.693706
0.732935
0.77333
0.814902
0.857656
0.901596
0.946719
0.993018
1.04048
1.08909
1.13882
1.18964
1.24152
1.29442
1.34828
1.40306
1.45869
1.51512
1.57228
1.6301
1.6885
1.74741
1.80675
1.86644
1.9264
1.98655
2.04679
2.10706
2.16726
2.2273
2.28709
2.34653
2.40552
2.46395
2.52172
2.57871
2.63481
2.68985
2.74355
2.79591
2.84687
2.89641
2.94448
2.99104
3.03603
3.07942
3.12117
3.16125
3.1996
3.23621
3.27105
3.30409
3.3353
3.36468
3.3922
3.41786
3.44163
3.46353
3.48355
3.50169
3.51796
3.53238
3.54495
3.5557
3.56464
3.57181
3.57722
3.58091
3.58293
3.58329
3.58204
3.57923
3.57489
3.56907
3.56183
3.55321
3.54326
3.53203
3.51956
3.50594
3.49121
3.47542
3.45857
3.44081
3.42218
3.40272
3.38246
3.3615
3.33989
3.31768
3.2949
3.27163
3.24791
3.22379
3.19932
3.17454
3.1495
3.12423
3.09877
3.07315
3.04742
3.0216
2.99573
2.96983
2.94395
2.91808
2.89223
2.8664
2.8406
2.81483
2.78911
2.76344
2.73784
2.71229
2.68681
2.66138
2.636
2.61067
2.58538
2.56011
2.53485
2.50959
2.48433
2.45904
2.43372
2.40836
2.38295
2.35748
2.33193
2.30632
2.28063
2.25486
2.22902
2.2031
2.17712
2.15109
2.125
2.09889
2.07275
2.04661
2.0205
1.99442
1.9684
1.94247
1.91664
1.89096
1.86543
1.84009
1.81496
1.79008
1.76546
1.74114
1.71713
1.69347
1.67017
1.64727
1.62478
1.60272
1.58112
1.56
1.53938
1.51927
1.4997
1.48068
1.46225
1.44441
1.4272
1.41064
1.39477
1.37962
1.36526
1.35178
1.3394
1.32861
1.32092
0.058272
0.0864329
0.106828
0.124617
0.141608
0.15855
0.175826
0.193707
0.212416
0.232145
0.253042
0.275219
0.298745
0.323651
0.349937
0.377582
0.406546
0.436787
0.468268
0.500957
0.534834
0.569894
0.606144
0.643603
0.682294
0.722238
0.763457
0.805969
0.849791
0.894933
0.941405
0.989208
1.03834
1.08879
1.14054
1.19358
1.24786
1.30336
1.36004
1.41783
1.47669
1.53655
1.59734
1.65899
1.72141
1.78454
1.84827
1.91252
1.97721
2.04223
2.1075
2.17293
2.23841
2.30384
2.36914
2.4342
2.4989
2.56314
2.62679
2.68972
2.75182
2.81296
2.87276
2.93114
2.98807
3.04348
3.09733
3.14956
3.20013
3.24898
3.29607
3.34136
3.38479
3.42634
3.46597
3.50366
3.53937
3.57309
3.60479
3.63446
3.66209
3.68766
3.71117
3.73263
3.75205
3.76943
3.78478
3.79813
3.80948
3.81887
3.82632
3.83187
3.83555
3.83739
3.83744
3.83574
3.83234
3.82728
3.82061
3.81239
3.80267
3.79152
3.77896
3.76505
3.7499
3.73355
3.71607
3.69747
3.67787
3.65733
3.6359
3.61362
3.59058
3.56683
3.54243
3.51744
3.49191
3.4659
3.43946
3.41264
3.3855
3.35807
3.33041
3.30255
3.27453
3.24639
3.21817
3.18989
3.1616
3.13333
3.10508
3.07686
3.04868
3.02056
2.9925
2.96451
2.93661
2.9088
2.88109
2.85348
2.82596
2.79853
2.77118
2.74391
2.71671
2.68956
2.66245
2.63537
2.6083
2.58124
2.55418
2.52709
2.49997
2.47281
2.44561
2.41836
2.39106
2.36371
2.3363
2.30885
2.28136
2.25384
2.2263
2.19877
2.17124
2.14375
2.11631
2.08895
2.06169
2.03455
2.00756
1.98075
1.95413
1.92775
1.90162
1.87578
1.85024
1.82504
1.80019
1.77573
1.75167
1.72805
1.70487
1.68216
1.65994
1.63823
1.61704
1.5964
1.57632
1.55683
1.53793
1.51965
1.50202
1.48506
1.46882
1.45335
1.43876
1.4253
1.41356
1.4052
0.0609564
0.0894945
0.110261
0.12834
0.145603
0.162852
0.180509
0.198852
0.218099
0.238422
0.259953
0.282785
0.306975
0.33255
0.359513
0.387851
0.417541
0.448558
0.480881
0.514494
0.54939
0.585573
0.623057
0.661864
0.702021
0.743554
0.786492
0.830859
0.876678
0.923966
0.972737
1.023
1.07475
1.12799
1.1827
1.23886
1.29645
1.35542
1.41573
1.47732
1.54013
1.6041
1.66914
1.73517
1.80211
1.86986
1.93832
2.0074
2.07699
2.14699
2.21729
2.28779
2.35837
2.42893
2.49936
2.56955
2.63937
2.7087
2.7774
2.84533
2.91234
2.97821
3.04258
3.10544
3.1667
3.22632
3.28424
3.3404
3.39474
3.44721
3.49776
3.54634
3.5929
3.6374
3.67981
3.72011
3.75826
3.79425
3.82805
3.85965
3.88903
3.91618
3.94111
3.96382
3.98432
4.00262
4.01875
4.0327
4.0445
4.05418
4.06178
4.06733
4.07088
4.07245
4.07208
4.06984
4.06577
4.05992
4.05232
4.04308
4.03223
4.01984
4.00597
3.99066
3.97401
3.95609
3.93694
3.91664
3.89525
3.87285
3.8495
3.82525
3.80019
3.77437
3.74786
3.72072
3.69301
3.66478
3.6361
3.60702
3.57759
3.54787
3.51791
3.48774
3.45741
3.42696
3.39644
3.36587
3.3353
3.30475
3.27424
3.24379
3.2134
3.1831
3.15289
3.12279
3.09282
3.06297
3.03326
3.00369
2.97425
2.94496
2.91579
2.88674
2.8578
2.82896
2.80021
2.77153
2.7429
2.71433
2.68578
2.65725
2.62872
2.60019
2.57165
2.54308
2.51449
2.48587
2.45722
2.42855
2.39985
2.37114
2.34243
2.31374
2.28506
2.25644
2.22788
2.1994
2.17103
2.1428
2.11472
2.08683
2.05914
2.0317
2.00452
1.97763
1.95105
1.92482
1.89895
1.87347
1.84841
1.82378
1.7996
1.7759
1.75268
1.72998
1.7078
1.68616
1.66508
1.64457
1.62464
1.60532
1.58662
1.56858
1.55122
1.53461
1.51886
1.50427
1.49149
1.48238
0.0630463
0.0917347
0.11272
0.130978
0.148405
0.165837
0.18372
0.202342
0.221914
0.242597
0.26451
0.287736
0.312327
0.33831
0.365694
0.394476
0.424648
0.4562
0.489125
0.523422
0.559096
0.596161
0.63464
0.674559
0.715953
0.758856
0.803302
0.849323
0.896948
0.946201
0.997102
1.04966
1.10389
1.15978
1.21732
1.27649
1.33727
1.39961
1.46346
1.52876
1.59544
1.66344
1.73265
1.803
1.87437
1.94667
2.01979
2.09362
2.16803
2.2429
2.31812
2.39357
2.46912
2.54466
2.62007
2.69521
2.76996
2.84417
2.91769
2.99038
3.06205
3.13226
3.20092
3.26793
3.33323
3.39675
3.45843
3.5182
3.57601
3.6318
3.6855
3.73706
3.78644
3.83358
3.87848
3.92108
3.96139
3.99936
4.03499
4.06825
4.09912
4.12759
4.15368
4.1774
4.19876
4.21777
4.23446
4.24882
4.26089
4.2707
4.27829
4.2837
4.28697
4.28814
4.28725
4.28438
4.27956
4.27286
4.26432
4.25403
4.24205
4.22843
4.21325
4.19656
4.17845
4.15898
4.13823
4.11626
4.09314
4.06894
4.04374
4.0176
3.9906
3.96279
3.93425
3.90505
3.87525
3.8449
3.81408
3.78284
3.75125
3.71934
3.68719
3.65482
3.62231
3.58968
3.55698
3.52425
3.49152
3.45884
3.42622
3.39368
3.36124
3.32891
3.29672
3.26468
3.23279
3.20109
3.16956
3.13821
3.10705
3.07608
3.04528
3.01465
2.98419
2.95387
2.92369
2.89362
2.86366
2.83379
2.80399
2.77425
2.74456
2.71489
2.68524
2.6556
2.62596
2.59631
2.56666
2.537
2.50734
2.47768
2.44804
2.41841
2.38883
2.35929
2.32983
2.30045
2.27119
2.24207
2.21311
2.18433
2.15577
2.12744
2.09938
2.07161
2.04416
2.01704
1.9903
1.96394
1.93799
1.91247
1.8874
1.8628
1.83869
1.81507
1.79196
1.76938
1.74734
1.72585
1.70492
1.68457
1.6648
1.64565
1.62715
1.60935
1.59239
1.57659
1.56269
1.55277
0.0646194
0.0932805
0.11435
0.13268
0.15017
0.167671
0.185645
0.204388
0.224108
0.244957
0.267047
0.290456
0.315234
0.341413
0.36901
0.398031
0.428483
0.46037
0.4937
0.528485
0.564743
0.6025
0.641785
0.682637
0.725097
0.769206
0.815008
0.862541
0.911842
0.962943
1.01587
1.07063
1.12724
1.18571
1.24601
1.30813
1.37204
1.4377
1.50505
1.57402
1.64454
1.71651
1.78985
1.86446
1.94021
2.017
2.0947
2.17319
2.25232
2.33196
2.41197
2.49221
2.57257
2.65289
2.73305
2.8129
2.89231
2.97112
3.04917
3.12628
3.20211
3.27634
3.34889
3.41967
3.48862
3.55565
3.6207
3.68371
3.7446
3.80332
3.85979
3.91396
3.96577
4.01519
4.06219
4.10675
4.14885
4.18847
4.2256
4.26019
4.29224
4.32173
4.3487
4.37315
4.3951
4.41458
4.4316
4.44614
4.45826
4.46801
4.47541
4.48053
4.48338
4.48404
4.48255
4.47896
4.47335
4.46575
4.45624
4.44489
4.43176
4.41693
4.40045
4.38241
4.36287
4.34191
4.3196
4.29601
4.27123
4.24532
4.21835
4.1904
4.16155
4.13186
4.10141
4.07025
4.03848
4.00614
3.9733
3.94004
3.9064
3.87245
3.83824
3.80383
3.76927
3.7346
3.69988
3.66514
3.63042
3.59576
3.5612
3.52674
3.49242
3.45825
3.42425
3.39044
3.35684
3.32346
3.2903
3.25738
3.2247
3.19225
3.16003
3.12804
3.09625
3.06467
3.03328
3.00205
2.97098
2.94004
2.90922
2.87851
2.84787
2.8173
2.78678
2.7563
2.72585
2.69542
2.665
2.6346
2.60421
2.57383
2.54348
2.51315
2.48287
2.45265
2.42249
2.39243
2.36249
2.33267
2.30302
2.27354
2.24428
2.21524
2.18647
2.15798
2.12979
2.10194
2.07445
2.04733
2.02061
1.99431
1.96845
1.94304
1.9181
1.89363
1.86966
1.84619
1.82322
1.80078
1.77886
1.75748
1.73664
1.71636
1.69668
1.67766
1.65943
1.64235
1.62725
1.61644
0.065745
0.0942442
0.115285
0.13359
0.151047
0.168515
0.186464
0.205195
0.224914
0.245769
0.267869
0.291289
0.316083
0.342286
0.369925
0.39902
0.42959
0.461653
0.495232
0.530353
0.567048
0.605354
0.645314
0.686974
0.730386
0.7756
0.822668
0.871637
0.922552
0.975449
1.03036
1.08729
1.14628
1.2073
1.27036
1.33543
1.40249
1.47147
1.54232
1.61496
1.68931
1.76525
1.8427
1.92152
2.00161
2.08282
2.16502
2.24806
2.3318
2.41606
2.50069
2.58554
2.67046
2.75531
2.83994
2.92419
3.00791
3.09094
3.1731
3.25416
3.33362
3.41139
3.48736
3.56145
3.63357
3.70364
3.77158
3.83733
3.90084
3.96204
4.02083
4.07713
4.13093
4.18219
4.23087
4.27697
4.32044
4.3613
4.39957
4.43512
4.46798
4.49816
4.52567
4.55054
4.57279
4.59244
4.6095
4.62401
4.63599
4.64549
4.65255
4.65722
4.65954
4.65958
4.65739
4.65302
4.64653
4.638
4.62749
4.61506
4.60078
4.58473
4.56698
4.54761
4.52668
4.50428
4.48048
4.45536
4.42899
4.40146
4.37283
4.34318
4.3126
4.28114
4.2489
4.21594
4.18233
4.14814
4.11344
4.0783
4.04278
4.00695
3.97085
3.93456
3.89813
3.8616
3.82503
3.78845
3.75193
3.71548
3.67915
3.64297
3.60696
3.57113
3.53553
3.50016
3.46504
3.43018
3.39561
3.36132
3.32732
3.29361
3.26019
3.22704
3.19416
3.16154
3.12915
3.09699
3.06504
3.03326
3.00165
2.97019
2.93885
2.90761
2.87646
2.84537
2.81435
2.78337
2.75242
2.7215
2.69061
2.65974
2.6289
2.5981
2.56734
2.53664
2.50601
2.47546
2.44502
2.41471
2.38454
2.35455
2.32475
2.29517
2.26584
2.23677
2.208
2.17954
2.15143
2.12367
2.09629
2.06931
2.04274
2.0166
1.9909
1.96565
1.94086
1.91654
1.89268
1.86931
1.84642
1.824
1.80209
1.78067
1.75979
1.7395
1.71995
1.70153
1.68515
1.67338
0.0664881
0.0947256
0.115643
0.133838
0.151178
0.168522
0.186346
0.204954
0.22455
0.245282
0.267256
0.290549
0.315219
0.34131
0.368858
0.397898
0.428461
0.460581
0.494297
0.52965
0.566686
0.605456
0.646016
0.688424
0.732741
0.779027
0.827345
0.877749
0.930291
0.985012
1.04194
1.10111
1.16251
1.22616
1.29205
1.36014
1.4304
1.50278
1.57719
1.65355
1.73174
1.81167
1.89321
1.97624
2.0606
2.14616
2.23276
2.32024
2.40843
2.49712
2.58614
2.67533
2.76453
2.85357
2.94228
3.03051
3.11809
3.20485
3.29061
3.37488
3.45745
3.53819
3.61702
3.69384
3.76856
3.84109
3.91136
3.9793
4.04486
4.10802
4.16858
4.2265
4.28177
4.33435
4.38423
4.43137
4.47577
4.51741
4.5563
4.59239
4.62568
4.65618
4.68391
4.70889
4.73114
4.75069
4.76757
4.7818
4.79342
4.80248
4.80902
4.8131
4.81476
4.81406
4.81106
4.80582
4.79841
4.78889
4.77733
4.76381
4.74838
4.73113
4.71214
4.69148
4.66922
4.64544
4.62023
4.59366
4.56581
4.53676
4.50659
4.47537
4.44319
4.41012
4.37624
4.34162
4.30634
4.27047
4.23409
4.19725
4.16003
4.1225
4.08472
4.04674
4.00862
3.97043
3.93221
3.89401
3.85587
3.81785
3.77997
3.74227
3.70477
3.66751
3.63051
3.59379
3.55737
3.52126
3.48548
3.45005
3.41495
3.3802
3.34579
3.31172
3.27797
3.24453
3.21139
3.17852
3.14591
3.11353
3.08136
3.04938
3.01757
2.9859
2.95434
2.92289
2.89152
2.86021
2.82896
2.79776
2.76659
2.73545
2.70435
2.67328
2.64226
2.61128
2.58037
2.54953
2.51879
2.48816
2.45767
2.42733
2.39716
2.36719
2.33745
2.30796
2.27873
2.24979
2.22117
2.19288
2.16494
2.13737
2.11018
2.08338
2.05699
2.03101
2.00546
1.98033
1.95562
1.93134
1.90748
1.88405
1.86105
1.83849
1.81638
1.7948
1.7739
1.75408
1.73637
1.72358
0.0669068
0.0948126
0.115532
0.133543
0.150693
0.167835
0.185451
0.203843
0.223218
0.243722
0.265462
0.288519
0.312959
0.338834
0.366195
0.395087
0.42556
0.457665
0.491455
0.526988
0.564329
0.603543
0.644699
0.687869
0.733122
0.780532
0.830168
0.882095
0.936371
0.993041
1.05213
1.11366
1.17764
1.24407
1.31292
1.38417
1.45778
1.53367
1.61177
1.69193
1.77404
1.85798
1.94362
2.03081
2.11938
2.20918
2.30004
2.39179
2.48423
2.5771
2.67021
2.76338
2.85645
2.94922
3.04154
3.1332
3.22405
3.31389
3.40237
3.48927
3.57427
3.65732
3.73834
3.81722
3.89387
3.96821
4.04015
4.10963
4.17658
4.24096
4.30265
4.3616
4.41777
4.47114
4.52168
4.56937
4.6142
4.65617
4.69526
4.73147
4.76479
4.79523
4.82282
4.84757
4.86951
4.88868
4.9051
4.91881
4.92985
4.93826
4.9441
4.94741
4.94827
4.94671
4.94281
4.93662
4.92821
4.91766
4.90503
4.8904
4.87383
4.85541
4.83521
4.81331
4.78979
4.76472
4.73819
4.71028
4.68106
4.65063
4.61905
4.58641
4.55279
4.51827
4.48292
4.44683
4.41007
4.37271
4.33483
4.2965
4.2578
4.21878
4.17951
4.14006
4.10049
4.06085
4.0212
3.9816
3.94208
3.9027
3.8635
3.82451
3.78577
3.74729
3.70912
3.67128
3.63379
3.59666
3.55991
3.52355
3.48759
3.45204
3.41687
3.3821
3.34771
3.31369
3.28001
3.24667
3.21364
3.18088
3.14839
3.11613
3.08407
3.05219
3.02047
2.98887
2.95738
2.92598
2.89465
2.86338
2.83215
2.80096
2.76981
2.73868
2.70759
2.67655
2.64555
2.61462
2.58376
2.55299
2.52233
2.49181
2.46143
2.43123
2.40122
2.37143
2.34188
2.31258
2.28357
2.25485
2.22644
2.19837
2.17064
2.14326
2.11625
2.0896
2.06333
2.03743
2.0119
1.98674
1.96194
1.9375
1.91343
1.88971
1.86638
1.84349
1.82121
1.79997
1.78088
1.76701
0.0670559
0.0945831
0.115045
0.132812
0.149709
0.166585
0.183923
0.202027
0.221102
0.241297
0.262722
0.285464
0.309598
0.33519
0.362302
0.390998
0.421346
0.453414
0.487274
0.523003
0.560683
0.600399
0.642236
0.686276
0.732599
0.781287
0.83242
0.88607
0.942301
1.00116
1.06267
1.12682
1.19363
1.26308
1.33514
1.40978
1.48693
1.56653
1.64847
1.73256
1.81866
1.90666
1.99638
2.08767
2.18035
2.27423
2.36913
2.46488
2.56132
2.65798
2.75474
2.85142
2.94783
3.04375
3.13901
3.23341
3.32676
3.41871
3.50904
3.59762
3.68427
3.76886
3.8513
3.93149
4.00934
4.08475
4.15765
4.22797
4.29563
4.36059
4.42276
4.4821
4.53856
4.59213
4.64276
4.69046
4.73521
4.777
4.81583
4.85171
4.88464
4.91462
4.94169
4.96586
4.98716
5.00564
5.02133
5.03426
5.04449
5.05205
5.057
5.05939
5.0593
5.05676
5.05186
5.04464
5.03519
5.02357
5.00985
4.99411
4.97642
4.95686
4.93551
4.91244
4.88773
4.86147
4.83373
4.8046
4.77416
4.74249
4.70966
4.67577
4.64089
4.6051
4.56849
4.53112
4.49309
4.45446
4.41531
4.37571
4.33574
4.29546
4.25495
4.21427
4.17348
4.13264
4.09181
4.05105
4.0104
3.96991
3.92963
3.8896
3.84984
3.81041
3.77131
3.73259
3.69427
3.65636
3.61888
3.58184
3.54526
3.50912
3.47344
3.43821
3.40342
3.36904
3.33507
3.30148
3.26826
3.23536
3.20277
3.17045
3.13838
3.10652
3.07485
3.04334
3.01196
2.98068
2.94949
2.91837
2.88729
2.85626
2.82525
2.79428
2.76332
2.7324
2.70151
2.67065
2.63985
2.60912
2.57847
2.54792
2.51749
2.48719
2.45706
2.4271
2.39735
2.36781
2.33851
2.30947
2.28069
2.2522
2.22401
2.19613
2.16855
2.14129
2.11435
2.08772
2.06141
2.0354
2.00969
1.98426
1.95912
1.93427
1.90971
1.88552
1.86186
1.83918
1.81868
1.8037
0.0669849
0.0941057
0.114266
0.131739
0.148333
0.164891
0.181896
0.199654
0.218371
0.238199
0.259253
0.281631
0.305419
0.330697
0.357547
0.386049
0.416294
0.448372
0.482374
0.518398
0.556547
0.596928
0.639645
0.68479
0.732446
0.782707
0.835658
0.891377
0.949932
1.01138
1.0757
1.14287
1.21289
1.28572
1.36133
1.43965
1.52062
1.60416
1.69019
1.77832
1.86848
1.96052
2.05426
2.14953
2.24611
2.34381
2.44241
2.5417
2.64146
2.74136
2.84118
2.94071
3.03973
3.13803
3.23541
3.33165
3.42641
3.5195
3.61083
3.70028
3.78771
3.87299
3.95601
4.03668
4.1149
4.19058
4.26364
4.33402
4.40165
4.46647
4.52844
4.58749
4.64359
4.69672
4.74685
4.79397
4.83809
4.87918
4.91727
4.95236
4.98445
5.01356
5.03971
5.06294
5.08328
5.10077
5.11545
5.12735
5.13653
5.14303
5.14691
5.14823
5.14706
5.14344
5.13745
5.12914
5.1186
5.10589
5.09108
5.07425
5.05548
5.03483
5.01239
4.98824
4.96245
4.93511
4.9063
4.8761
4.84459
4.81184
4.77795
4.743
4.70706
4.67021
4.63254
4.59413
4.55505
4.51538
4.4752
4.43458
4.3936
4.35232
4.31082
4.26917
4.22742
4.18564
4.14389
4.10223
4.0607
4.01937
3.97828
3.93746
3.89696
3.85682
3.81706
3.77771
3.73881
3.70037
3.66241
3.62494
3.58797
3.55151
3.51556
3.4801
3.44514
3.41065
3.37662
3.34302
3.30983
3.27702
3.24456
3.21241
3.18055
3.14894
3.11754
3.08633
3.05527
3.02433
2.99349
2.96272
2.93201
2.90134
2.87068
2.84005
2.80942
2.7788
2.7482
2.7176
2.68704
2.6565
2.62602
2.59559
2.56525
2.53501
2.50488
2.47489
2.44505
2.41538
2.38591
2.35664
2.32759
2.29877
2.27019
2.24187
2.2138
2.18598
2.15843
2.13112
2.10407
2.07724
2.05065
2.02427
1.99809
1.97212
1.94637
1.92089
1.89586
1.87175
1.84984
1.83371
0.0667412
0.0934413
0.113267
0.13041
0.146659
0.162859
0.17949
0.196862
0.215182
0.234609
0.255267
0.277266
0.300708
0.325692
0.35232
0.380698
0.410941
0.443168
0.477488
0.514023
0.552902
0.594257
0.638221
0.684884
0.734324
0.786642
0.841928
0.900256
0.961693
1.02633
1.09406
1.16479
1.23853
1.31524
1.39483
1.47721
1.56227
1.64991
1.73996
1.83216
1.92634
2.02232
2.1199
2.21887
2.319
2.42008
2.52187
2.62413
2.7266
2.82901
2.93109
3.0326
3.1333
3.23298
3.3314
3.42822
3.52328
3.61654
3.70792
3.7973
3.88455
3.96957
4.05224
4.13246
4.21015
4.28522
4.35759
4.42721
4.49401
4.55794
4.61896
4.67701
4.73206
4.7841
4.8331
4.87906
4.92197
4.96184
4.99868
5.0325
5.06332
5.09114
5.116
5.13794
5.15699
5.17319
5.18658
5.19721
5.20513
5.21038
5.21304
5.21315
5.21077
5.20598
5.19883
5.1894
5.17774
5.16394
5.14806
5.13018
5.11038
5.08872
5.06529
5.04017
5.01343
4.98515
4.95542
4.92431
4.8919
4.85828
4.82352
4.78772
4.75094
4.71326
4.67478
4.63556
4.59569
4.55524
4.51429
4.47291
4.43118
4.38918
4.34696
4.30461
4.26218
4.21974
4.17735
4.13507
4.09295
4.05105
4.00942
3.9681
3.92713
3.88654
3.84639
3.80668
3.76747
3.72875
3.69057
3.65292
3.61582
3.57928
3.5433
3.50787
3.47297
3.43861
3.40475
3.37137
3.33844
3.30595
3.27384
3.24209
3.21066
3.17951
3.1486
3.1179
3.08737
3.05698
3.0267
2.99649
2.96634
2.93622
2.90611
2.87601
2.84589
2.81576
2.78561
2.75545
2.72528
2.69511
2.66494
2.6348
2.60469
2.57463
2.54464
2.51473
2.48493
2.45525
2.4257
2.3963
2.36706
2.338
2.30912
2.28043
2.25193
2.22363
2.19551
2.16758
2.13983
2.11224
2.0848
2.05751
2.03033
2.00328
1.97637
1.94964
1.92328
1.89776
1.87444
1.85717
0.0663689
0.0926442
0.112113
0.128896
0.144772
0.160583
0.176815
0.193776
0.211684
0.230703
0.250974
0.272623
0.295774
0.320553
0.347082
0.375498
0.405952
0.43861
0.473582
0.511022
0.55109
0.593947
0.639778
0.688646
0.740587
0.795725
0.85414
0.915884
0.980989
1.04947
1.12124
1.19619
1.27427
1.35537
1.43939
1.52618
1.6156
1.70749
1.80165
1.89785
1.99587
2.09551
2.19653
2.29872
2.40183
2.50562
2.60983
2.71422
2.81852
2.92243
3.02568
3.12803
3.22919
3.32896
3.42693
3.52307
3.61733
3.70968
3.80002
3.88826
3.9743
4.05801
4.13932
4.21811
4.29431
4.36784
4.43864
4.50663
4.57177
4.63401
4.69331
4.74962
4.80293
4.85321
4.90045
4.94465
4.98581
5.02392
5.05902
5.09111
5.12022
5.14636
5.16956
5.18987
5.20732
5.22195
5.23381
5.24295
5.24942
5.25327
5.25455
5.25334
5.24968
5.24366
5.23531
5.22473
5.21196
5.19709
5.18019
5.16133
5.14058
5.11801
5.09371
5.06775
5.04021
5.01116
4.98068
4.94885
4.91576
4.88147
4.84608
4.80965
4.77227
4.73402
4.69498
4.65522
4.61482
4.57386
4.53242
4.49058
4.44839
4.40595
4.36331
4.32055
4.27773
4.23493
4.19219
4.14958
4.10717
4.06499
4.02311
3.98157
3.9404
3.89967
3.85939
3.8196
3.78034
3.74162
3.70348
3.66591
3.62894
3.59257
3.55681
3.52164
3.48706
3.45305
3.41959
3.38667
3.35424
3.32228
3.29075
3.25961
3.22882
3.19834
3.16814
3.13816
3.10837
3.07873
3.0492
3.01975
2.99035
2.96097
2.93159
2.9022
2.87277
2.8433
2.81378
2.78422
2.7546
2.72494
2.69525
2.66552
2.63578
2.60604
2.57632
2.54662
2.51697
2.48738
2.45786
2.42843
2.3991
2.36988
2.34077
2.31179
2.28294
2.25421
2.2256
2.1971
2.16871
2.1404
2.11218
2.08401
2.05589
2.02781
1.99979
1.97187
1.94422
1.91734
1.89265
1.87424
0.0659118
0.0917637
0.110861
0.127263
0.142743
0.158148
0.173967
0.190517
0.208023