/*--------------------------------*- C++ -*----------------------------------*\
  =========                 |
  \\      /  F ield         | OpenFOAM: The Open Source CFD Toolbox
   \\    /   O peration     | Website:  https://openfoam.org
    \\  /    A nd           | Version:  7
     \\/     M anipulation  |
\*---------------------------------------------------------------------------*/
FoamFile
{
    version     2.0;
    format      ascii;
    class       volScalarField;
    location    "950";
    object      nut;
}
// * * * * * * * * * * * * * * * * * * * * * * * * * * * * * * * * * * * * * //

dimensions      [0 2 -1 0 0 0 0];

internalField   nonuniform List<scalar> 
16900
(
1.28532e-05
3.73898e-05
5.91986e-05
7.93429e-05
9.76837e-05
0.000114238
0.00012912
0.000142426
0.000154222
0.000164492
0.000173195
0.000180276
0.000185839
0.00019035
0.000194882
0.000201074
0.00020292
0.000202644
4.65681e-05
4.8732e-05
5.04438e-05
5.21458e-05
5.38393e-05
5.55253e-05
5.72037e-05
5.88747e-05
6.05383e-05
6.21948e-05
6.38442e-05
6.54863e-05
6.71209e-05
6.87476e-05
7.03659e-05
7.19751e-05
7.35746e-05
7.51636e-05
7.67413e-05
7.83067e-05
7.98589e-05
8.13969e-05
8.29197e-05
8.44264e-05
8.59158e-05
8.73869e-05
8.88387e-05
9.027e-05
9.16797e-05
9.30668e-05
9.443e-05
9.57683e-05
9.70805e-05
9.83655e-05
9.96222e-05
0.000100849
0.000102046
0.000103211
0.000104343
0.000105443
0.000106508
0.00010754
0.000108537
0.000109502
0.000110436
0.000111342
0.000112225
0.000113083
0.0001139
0.000114679
0.00011542
0.000116123
0.000116788
0.000117416
0.000118006
0.00011856
0.000119076
0.000119556
0.000119999
0.000120407
0.000120778
0.000121114
0.000121415
0.00012168
0.000121912
0.000122109
0.000122273
0.000122405
0.000122503
0.00012257
0.000122606
0.000122611
0.000122587
0.000122533
0.00012245
0.00012234
0.000122203
0.000122039
0.00012185
0.000121637
0.0001214
0.00012114
0.000120858
0.000120555
0.000120231
0.000119889
0.000119528
0.000119149
0.000118753
0.000118342
0.000117916
0.000117476
0.000117023
0.000116557
0.00011608
0.000115592
0.000115094
0.000114587
0.000114072
0.000113549
0.000113019
0.000112483
0.00011194
0.000111392
0.000110841
0.000110285
0.000109724
0.000109159
0.000108597
0.000108038
0.0001075
0.000107051
0.000106758
0.000106499
0.000106246
0.000105996
0.000105745
0.000105494
0.000105243
0.00010499
0.000104735
0.000104479
0.000104221
0.00010396
0.000103696
0.000103429
0.000103158
0.000102883
0.000102603
0.000102319
0.000102029
0.000101733
0.000101431
0.000101123
0.000100808
0.000100485
0.000100154
9.98159e-05
9.94692e-05
9.9114e-05
9.87501e-05
9.83774e-05
9.79959e-05
9.76055e-05
9.72063e-05
9.67982e-05
9.63816e-05
9.59565e-05
9.55233e-05
9.50821e-05
9.46335e-05
9.41777e-05
9.37153e-05
9.32467e-05
9.27723e-05
9.22929e-05
9.1809e-05
9.13211e-05
9.083e-05
9.03362e-05
8.98406e-05
8.93439e-05
8.88467e-05
8.83499e-05
8.78542e-05
8.73606e-05
8.687e-05
8.63832e-05
8.59013e-05
8.54254e-05
8.49567e-05
8.44965e-05
8.40464e-05
8.36082e-05
8.31839e-05
8.27761e-05
8.23881e-05
8.2024e-05
8.16897e-05
8.13952e-05
8.11561e-05
8.10297e-05
2.73658e-05
9.11347e-05
0.000127103
0.000154536
0.000178393
0.000199455
0.000217887
0.000233701
0.000246768
0.00025679
0.00026332
0.000265878
0.000264265
0.000259068
0.000252148
0.000246216
0.000241957
0.000236224
0.000228343
0.000239981
0.000251746
0.000263264
0.000274936
0.00028679
0.000298801
0.000310949
0.00032323
0.000335644
0.000348193
0.000360881
0.00037371
0.000386681
0.000399794
0.000413048
0.000426441
0.000439968
0.000453627
0.00046741
0.000481312
0.000495327
0.000509446
0.000523662
0.000537967
0.000552351
0.000566806
0.000581322
0.000595889
0.000610495
0.00062513
0.000639781
0.000654433
0.000669072
0.00068368
0.000698238
0.000712726
0.00072712
0.000741395
0.000755521
0.000769468
0.000783201
0.000796681
0.000809866
0.000822705
0.000835138
0.000847087
0.000858212
0.000868997
0.000879497
0.000889722
0.000899671
0.000909343
0.000918734
0.000927844
0.000936668
0.000945205
0.000953453
0.000961409
0.000969071
0.000976438
0.000983508
0.000990279
0.000996751
0.00100292
0.0010088
0.00101437
0.00101965
0.00102463
0.00102932
0.00103371
0.00103782
0.00104163
0.00104517
0.00104842
0.0010514
0.00105411
0.00105655
0.00105873
0.00106066
0.00106234
0.00106378
0.00106498
0.00106596
0.00106671
0.00106725
0.00106758
0.00106772
0.00106766
0.00106743
0.00106702
0.00106645
0.00106571
0.00106483
0.00106381
0.00106265
0.00106137
0.00105997
0.00105847
0.00105686
0.00105516
0.00105337
0.0010515
0.00104955
0.00104754
0.00104547
0.00104336
0.00104117
0.00103886
0.00103643
0.00103369
0.00103006
0.00102522
0.00101986
0.00101429
0.00100863
0.0010029
0.000997144
0.000991352
0.000985532
0.000979683
0.000973805
0.000967896
0.000961953
0.000955973
0.000949953
0.000943888
0.000937776
0.000931612
0.000925393
0.000919115
0.000912774
0.000906367
0.000899891
0.000893344
0.000886724
0.000880029
0.000873258
0.000866411
0.000859489
0.000852493
0.000845425
0.000838286
0.000831083
0.000823817
0.000816494
0.00080912
0.000801702
0.000794245
0.000786758
0.000779249
0.000771726
0.000764197
0.000756673
0.000749162
0.000741675
0.000734221
0.00072681
0.000719452
0.000712158
0.000704938
0.000697802
0.000690761
0.000683824
0.000677002
0.000670307
0.000663748
0.000657337
0.000651085
0.000645006
0.000639111
0.000633415
0.000627934
0.000622688
0.000617697
0.000612988
0.000608594
0.000604557
0.000600935
0.000597821
0.000595367
0.000593865
3.90405e-05
0.000128362
0.000179465
0.000213765
0.000241832
0.000266223
0.000287552
0.000306005
0.000321653
0.000334529
0.000344708
0.00035245
0.00035841
0.000363858
0.000370637
0.000380404
0.000393288
0.000408346
0.000426289
0.000448847
0.000471872
0.000494919
0.00051814
0.000541608
0.000565337
0.000589333
0.000613601
0.000638149
0.000662984
0.000688109
0.000713529
0.000739243
0.000765248
0.000791539
0.000818109
0.000844946
0.000872038
0.000899371
0.000926928
0.000954692
0.000982642
0.00101076
0.00103902
0.00106741
0.00109589
0.00112445
0.00115305
0.00118168
0.00121031
0.0012389
0.00126742
0.00129585
0.00132414
0.00135225
0.00138015
0.00140778
0.00143511
0.00146206
0.0014886
0.00151465
0.00154017
0.00156507
0.00158932
0.00161285
0.00163523
0.00165674
0.0016776
0.00169787
0.00171757
0.00173669
0.00175523
0.0017732
0.00179059
0.00180739
0.0018236
0.00183922
0.00185424
0.00186866
0.00188249
0.00189571
0.00190833
0.00192034
0.00193175
0.00194255
0.00195276
0.00196236
0.00197137
0.00197979
0.00198763
0.00199488
0.00200156
0.00200767
0.00201323
0.00201824
0.00202271
0.00202664
0.00203007
0.00203298
0.0020354
0.00203735
0.00203883
0.00203985
0.00204044
0.0020406
0.00204036
0.00203973
0.00203872
0.00203735
0.00203565
0.00203362
0.00203127
0.00202864
0.00202574
0.00202258
0.00201917
0.00201554
0.0020117
0.00200768
0.00200347
0.0019991
0.0019946
0.00198996
0.0019852
0.00198032
0.00197537
0.0019703
0.00196506
0.00195961
0.00195377
0.00194716
0.00193956
0.00193131
0.00192271
0.00191389
0.00190494
0.00189589
0.00188676
0.00187755
0.00186827
0.00185892
0.0018495
0.00183999
0.0018304
0.00182071
0.00181092
0.00180102
0.001791
0.00178085
0.00177057
0.00176014
0.00174955
0.00173881
0.0017279
0.00171681
0.00170555
0.00169411
0.00168249
0.00167069
0.00165871
0.00164656
0.00163423
0.00162174
0.00160909
0.00159629
0.00158336
0.0015703
0.00155714
0.00154387
0.00153053
0.00151712
0.00150367
0.00149019
0.0014767
0.00146323
0.00144978
0.00143639
0.00142307
0.00140983
0.00139671
0.00138372
0.00137088
0.00135821
0.00134573
0.00133347
0.00132143
0.00130966
0.00129815
0.00128695
0.00127608
0.00126556
0.00125544
0.00124574
0.00123651
0.00122781
0.00121972
0.00121232
0.00120575
0.00120023
0.00119609
0.00119397
4.81331e-05
0.000155965
0.000220234
0.000261301
0.000293376
0.00032095
0.000345398
0.00036728
0.000386986
0.000404907
0.000421504
0.000437371
0.000453314
0.0004704
0.000489814
0.0005123
0.000537815
0.000565636
0.000595626
0.000627306
0.000659487
0.000691879
0.000724513
0.000757445
0.000790706
0.000824317
0.000858292
0.000892644
0.000927379
0.000962503
0.000998015
0.00103391
0.00107019
0.00110683
0.00114382
0.00118114
0.00121877
0.00125669
0.00129486
0.00133326
0.00137186
0.00141062
0.00144951
0.00148849
0.00152752
0.00156658
0.00160561
0.00164458
0.00168345
0.00172217
0.00176071
0.00179901
0.00183703
0.00187471
0.00191202
0.00194887
0.00198523
0.00202103
0.0020562
0.00209067
0.00212439
0.00215727
0.00218927
0.0022203
0.00225005
0.0022788
0.0023067
0.00233379
0.00236008
0.00238559
0.0024103
0.00243422
0.00245735
0.00247968
0.0025012
0.00252192
0.00254184
0.00256094
0.00257924
0.00259672
0.00261338
0.00262923
0.00264427
0.0026585
0.00267192
0.00268454
0.00269636
0.00270739
0.00271764
0.0027271
0.0027358
0.00274374
0.00275093
0.00275739
0.00276312
0.00276815
0.00277248
0.00277613
0.00277913
0.00278148
0.0027832
0.00278432
0.00278485
0.00278481
0.00278423
0.00278312
0.00278151
0.00277942
0.00277687
0.00277389
0.00277049
0.0027667
0.00276254
0.00275805
0.00275322
0.00274811
0.00274271
0.00273707
0.0027312
0.00272512
0.00271885
0.00271241
0.00270581
0.00269908
0.00269222
0.00268522
0.00267805
0.00267067
0.00266295
0.00265469
0.00264575
0.00263629
0.00262646
0.00261637
0.00260611
0.00259571
0.0025852
0.00257458
0.00256386
0.00255304
0.00254211
0.00253107
0.0025199
0.0025086
0.00249714
0.00248552
0.00247373
0.00246175
0.00244956
0.00243715
0.00242452
0.00241163
0.0023985
0.0023851
0.00237143
0.00235748
0.00234325
0.00232874
0.00231395
0.00229887
0.00228352
0.0022679
0.00225203
0.00223591
0.00221956
0.002203
0.00218624
0.0021693
0.00215221
0.00213499
0.00211766
0.00210026
0.00208279
0.0020653
0.00204781
0.00203035
0.00201293
0.0019956
0.00197838
0.0019613
0.00194438
0.00192765
0.00191114
0.00189488
0.00187889
0.00186321
0.00184786
0.00183288
0.0018183
0.00180416
0.00179051
0.0017774
0.00176489
0.00175307
0.00174203
0.0017319
0.00172288
0.00171528
0.00170957
0.00170658
5.55648e-05
0.000177452
0.000253022
0.000300656
0.000336818
0.000367709
0.000395551
0.00042133
0.000445708
0.00046929
0.000492686
0.000516535
0.000541507
0.000568289
0.000597481
0.000629325
0.000663632
0.000699873
0.000737664
0.000776503
0.000815879
0.00085559
0.000895619
0.000935993
0.000976742
0.00101789
0.00105945
0.00110144
0.00114386
0.00118672
0.00123001
0.00127372
0.00131785
0.00136236
0.00140725
0.00145248
0.00149801
0.00154383
0.00158989
0.00163614
0.00168256
0.00172909
0.00177569
0.00182231
0.0018689
0.00191542
0.00196182
0.00200805
0.00205406
0.00209979
0.00214521
0.00219025
0.00223486
0.00227899
0.00232259
0.00236559
0.00240793
0.00244957
0.00249042
0.00253043
0.00256953
0.00260767
0.00264479
0.00268069
0.00271533
0.00274889
0.00278147
0.00281309
0.00284378
0.00287355
0.00290239
0.0029303
0.00295728
0.00298333
0.00300844
0.00303262
0.00305586
0.00307816
0.00309952
0.00311993
0.0031394
0.00315792
0.00317551
0.00319215
0.00320786
0.00322265
0.0032365
0.00324944
0.00326147
0.00327259
0.00328283
0.00329218
0.00330067
0.0033083
0.00331509
0.00332106
0.00332622
0.00333059
0.00333419
0.00333704
0.00333916
0.00334057
0.00334129
0.00334135
0.00334077
0.00333958
0.00333779
0.00333545
0.00333256
0.00332916
0.00332528
0.00332094
0.00331618
0.003311
0.00330546
0.00329958
0.00329336
0.00328685
0.00328008
0.00327306
0.00326583
0.00325841
0.00325081
0.00324306
0.00323516
0.00322712
0.00321892
0.00321052
0.00320187
0.00319285
0.00318339
0.00317353
0.00316335
0.00315294
0.00314235
0.00313161
0.00312074
0.00310976
0.00309867
0.00308746
0.00307612
0.00306466
0.00305304
0.00304126
0.0030293
0.00301714
0.00300477
0.00299216
0.00297929
0.00296615
0.00295271
0.00293897
0.00292489
0.00291048
0.00289571
0.00288058
0.00286508
0.00284921
0.00283296
0.00281633
0.00279934
0.00278198
0.00276427
0.00274622
0.00272785
0.00270917
0.00269022
0.002671
0.00265156
0.00263191
0.00261209
0.00259212
0.00257203
0.00255187
0.00253166
0.00251143
0.00249122
0.00247106
0.00245098
0.00243102
0.00241121
0.00239158
0.00237216
0.00235299
0.0023341
0.00231553
0.0022973
0.00227946
0.00226204
0.0022451
0.00222869
0.00221286
0.0021977
0.0021833
0.00216978
0.00215729
0.00214609
0.00213652
0.00212921
0.00212519
6.16959e-05
0.000194508
0.000279861
0.000333783
0.00037411
0.000408426
0.000439757
0.000469491
0.000498491
0.000527449
0.000556985
0.000587656
0.000619946
0.000654244
0.000690792
0.000729585
0.000770375
0.000812756
0.000856359
0.000900813
0.000945821
0.000991234
0.00103702
0.00108317
0.00112973
0.0011767
0.00122411
0.00127196
0.00132025
0.00136899
0.00141817
0.00146777
0.00151778
0.00156816
0.0016189
0.00166996
0.0017213
0.00177288
0.00182465
0.00187657
0.00192859
0.00198066
0.00203272
0.00208471
0.00213659
0.0021883
0.00223978
0.00229098
0.00234184
0.00239231
0.00244234
0.00249187
0.00254085
0.00258923
0.00263695
0.00268395
0.0027302
0.00277561
0.00282015
0.00286374
0.00290634
0.00294788
0.00298832
0.0030274
0.00306526
0.003102
0.00313768
0.00317234
0.00320598
0.00323862
0.00327025
0.00330088
0.0033305
0.00335911
0.00338671
0.0034133
0.00343887
0.00346342
0.00348696
0.00350948
0.00353097
0.00355145
0.00357091
0.00358935
0.00360678
0.00362321
0.00363863
0.00365305
0.00366649
0.00367895
0.00369044
0.00370097
0.00371056
0.00371922
0.00372696
0.0037338
0.00373976
0.00374485
0.0037491
0.00375253
0.00375516
0.003757
0.00375809
0.00375846
0.00375812
0.00375709
0.00375542
0.00375314
0.00375025
0.0037468
0.00374281
0.00373833
0.00373336
0.00372795
0.00372212
0.00371592
0.00370936
0.00370248
0.00369532
0.00368789
0.00368023
0.00367236
0.00366431
0.0036561
0.00364774
0.00363924
0.0036306
0.00362179
0.0036128
0.00360356
0.00359402
0.00358421
0.00357415
0.00356389
0.00355347
0.00354292
0.00353225
0.00352148
0.00351059
0.00349959
0.00348846
0.0034772
0.00346578
0.00345419
0.0034424
0.00343039
0.00341814
0.00340563
0.00339282
0.0033797
0.00336623
0.00335241
0.0033382
0.00332358
0.00330855
0.00329308
0.00327716
0.00326079
0.00324397
0.00322668
0.00320894
0.00319074
0.00317211
0.00315305
0.00313358
0.00311373
0.00309351
0.00307295
0.00305208
0.00303093
0.00300953
0.00298792
0.00296613
0.0029442
0.00292217
0.00290007
0.00287793
0.0028558
0.00283372
0.00281171
0.00278982
0.00276808
0.00274652
0.00272519
0.00270411
0.00268333
0.00266288
0.0026428
0.00262314
0.00260394
0.00258527
0.00256719
0.00254979
0.00253316
0.00251745
0.00250284
0.00248958
0.00247813
0.00246921
0.00246411
6.67323e-05
0.000208098
0.000301963
0.000361829
0.000406307
0.000444054
0.000478797
0.000512284
0.000545523
0.000579233
0.00061398
0.000650212
0.000688251
0.000728289
0.000770372
0.000814381
0.000860058
0.000907077
0.000955126
0.00100393
0.00105328
0.00110307
0.00115325
0.00120382
0.00125479
0.00130617
0.00135797
0.00141021
0.00146287
0.00151597
0.00156947
0.00162338
0.00167766
0.00173229
0.00178723
0.00184245
0.00189791
0.00195355
0.00200934
0.00206521
0.00212111
0.00217699
0.00223279
0.00228845
0.00234391
0.00239911
0.00245399
0.00250849
0.00256257
0.00261615
0.0026692
0.00272165
0.00277345
0.00282455
0.00287492
0.00292448
0.00297321
0.00302104
0.00306793
0.00311382
0.00315866
0.0032024
0.00324494
0.00328615
0.00332616
0.00336504
0.00340285
0.00343958
0.00347528
0.00350992
0.00354353
0.00357609
0.0036076
0.00363806
0.00366748
0.00369584
0.00372314
0.00374939
0.00377458
0.0037987
0.00382176
0.00384376
0.00386469
0.00388456
0.00390338
0.00392114
0.00393785
0.00395352
0.00396815
0.00398175
0.00399433
0.0040059
0.00401648
0.00402608
0.00403471
0.00404239
0.00404913
0.00405496
0.00405989
0.00406395
0.00406715
0.00406952
0.00407109
0.00407189
0.00407193
0.00407124
0.00406985
0.00406782
0.00406514
0.00406184
0.00405797
0.00405356
0.00404865
0.00404326
0.00403743
0.0040312
0.00402459
0.00401765
0.0040104
0.00400288
0.00399512
0.00398715
0.00397898
0.00397065
0.00396218
0.00395358
0.00394486
0.00393601
0.00392703
0.00391788
0.00390854
0.00389901
0.00388931
0.00387946
0.00386948
0.00385941
0.00384923
0.00383897
0.00382862
0.00381817
0.00380761
0.00379692
0.00378608
0.00377507
0.00376387
0.00375244
0.00374076
0.00372879
0.00371652
0.0037039
0.00369091
0.00367752
0.0036637
0.00364942
0.00363467
0.00361943
0.00360367
0.0035874
0.00357059
0.00355325
0.00353537
0.00351697
0.00349804
0.00347861
0.00345868
0.00343829
0.00341745
0.00339619
0.00337454
0.00335254
0.00333021
0.0033076
0.00328475
0.00326168
0.00323845
0.00321509
0.00319164
0.00316814
0.00314463
0.00312115
0.00309774
0.00307444
0.00305127
0.00302829
0.00300552
0.002983
0.00296078
0.00293889
0.00291738
0.00289631
0.00287572
0.00285569
0.00283632
0.0028177
0.00279998
0.00278337
0.00276816
0.00275485
0.00274431
0.00273814
7.08201e-05
0.000218858
0.000320133
0.000385548
0.000434063
0.000475141
0.000513098
0.000549992
0.00058695
0.000624693
0.000663722
0.00070438
0.000746869
0.000791258
0.000837491
0.0008854
0.000934739
0.000985233
0.00103662
0.0010887
0.0011413
0.00119434
0.00124776
0.00130156
0.00135574
0.00141031
0.00146528
0.00152064
0.0015764
0.00163255
0.00168907
0.00174595
0.00180316
0.00186068
0.00191846
0.00197648
0.00203468
0.00209302
0.00215145
0.00220991
0.00226835
0.00232671
0.00238493
0.00244294
0.0025007
0.00255813
0.00261518
0.00267178
0.00272789
0.00278343
0.00283837
0.00289265
0.00294621
0.00299902
0.00305102
0.00310218
0.00315246
0.0032018
0.00325017
0.00329752
0.0033438
0.00338896
0.00343285
0.00347551
0.00351702
0.00355742
0.00359673
0.00363498
0.00367217
0.0037083
0.00374339
0.00377741
0.00381037
0.00384227
0.0038731
0.00390286
0.00393154
0.00395915
0.00398568
0.00401112
0.00403547
0.00405874
0.00408091
0.004102
0.004122
0.00414092
0.00415877
0.00417553
0.00419123
0.00420586
0.00421944
0.00423198
0.0042435
0.00425399
0.00426347
0.00427196
0.00427948
0.00428606
0.0042917
0.00429642
0.00430024
0.00430319
0.00430531
0.00430662
0.00430712
0.00430686
0.00430586
0.00430417
0.0043018
0.0042988
0.0042952
0.00429103
0.00428632
0.00428112
0.00427547
0.00426939
0.00426292
0.0042561
0.00424896
0.00424154
0.00423387
0.00422599
0.00421792
0.00420969
0.00420132
0.00419284
0.00418425
0.00417557
0.0041668
0.00415793
0.00414894
0.00413984
0.00413063
0.00412132
0.00411194
0.00410249
0.00409299
0.00408342
0.00407379
0.0040641
0.00405431
0.00404442
0.00403441
0.00402424
0.00401388
0.00400331
0.00399249
0.00398139
0.00396996
0.00395818
0.00394601
0.00393341
0.00392035
0.00390679
0.00389272
0.00387811
0.00386293
0.00384717
0.00383081
0.00381386
0.00379629
0.00377813
0.00375936
0.00374001
0.0037201
0.00369963
0.00367863
0.00365714
0.00363518
0.00361279
0.00359
0.00356686
0.00354339
0.00351964
0.00349566
0.00347149
0.00344716
0.00342271
0.0033982
0.00337366
0.00334913
0.00332464
0.00330024
0.00327596
0.00325185
0.00322793
0.00320424
0.00318084
0.00315776
0.00313505
0.00311278
0.00309101
0.00306984
0.00304937
0.00302977
0.00301124
0.00299411
0.00297896
0.00296679
0.00295953
7.40819e-05
0.000227254
0.000334958
0.000405493
0.000457846
0.000502072
0.000542968
0.000582861
0.000622979
0.000664042
0.000706494
0.000750598
0.000796469
0.0008441
0.000893384
0.000944136
0.000996128
0.00104912
0.0011029
0.0011573
0.00121218
0.00126746
0.00132311
0.0013791
0.00143543
0.00149211
0.00154914
0.00160652
0.00166424
0.00172231
0.0017807
0.0018394
0.00189839
0.00195764
0.00201711
0.00207677
0.00213658
0.00219649
0.00225645
0.00231641
0.00237631
0.0024361
0.00249571
0.00255509
0.00261418
0.0026729
0.00273121
0.00278904
0.00284634
0.00290303
0.00295909
0.00301444
0.00306905
0.00312287
0.00317586
0.00322798
0.00327919
0.00332946
0.00337875
0.00342701
0.00347421
0.00352027
0.00356513
0.00360885
0.00365146
0.00369299
0.00373346
0.00377288
0.00381125
0.00384857
0.00388485
0.00392007
0.00395422
0.00398731
0.00401933
0.00405027
0.00408013
0.0041089
0.00413659
0.00416318
0.00418867
0.00421306
0.00423634
0.00425852
0.0042796
0.00429959
0.00431847
0.00433626
0.00435295
0.00436855
0.00438308
0.00439654
0.00440896
0.00442033
0.00443065
0.00443995
0.00444824
0.00445557
0.00446194
0.00446735
0.00447182
0.00447538
0.00447808
0.00447993
0.00448096
0.00448119
0.00448066
0.0044794
0.00447745
0.00447484
0.0044716
0.00446777
0.00446338
0.00445848
0.00445311
0.00444729
0.00444107
0.00443449
0.00442759
0.00442039
0.00441294
0.00440528
0.00439743
0.00438942
0.00438129
0.00437306
0.00436475
0.00435637
0.00434794
0.00433945
0.00433091
0.00432232
0.00431368
0.004305
0.00429629
0.00428756
0.00427882
0.00427006
0.00426128
0.00425246
0.0042436
0.00423466
0.00422562
0.00421646
0.00420714
0.00419762
0.00418787
0.00417784
0.0041675
0.0041568
0.0041457
0.00413415
0.00412213
0.00410959
0.00409649
0.00408281
0.00406852
0.0040536
0.00403802
0.00402178
0.00400487
0.00398729
0.00396904
0.00395013
0.00393057
0.00391038
0.00388959
0.00386822
0.0038463
0.00382388
0.00380097
0.00377763
0.0037539
0.00372981
0.00370541
0.00368074
0.00365585
0.00363078
0.00360557
0.00358026
0.00355489
0.0035295
0.00350413
0.00347882
0.0034536
0.00342851
0.00340358
0.00337887
0.0033544
0.00333024
0.00330644
0.00328306
0.0032602
0.00323798
0.00321655
0.00319614
0.0031771
0.00316009
0.00314627
0.00313791
7.6621e-05
0.00023365
0.000346901
0.000422105
0.000478041
0.000525175
0.000568693
0.000611154
0.000653879
0.000697593
0.000742698
0.000789398
0.000837749
0.0008877
0.000939118
0.000991817
0.00104559
0.00110022
0.00115553
0.00121137
0.00126763
0.00132425
0.00138117
0.00143839
0.0014959
0.00155369
0.00161177
0.00167015
0.00172881
0.00178777
0.001847
0.0019065
0.00196624
0.0020262
0.00208636
0.00214669
0.00220714
0.00226767
0.00232825
0.00238882
0.00244933
0.00250973
0.00256995
0.00262994
0.00268963
0.00274897
0.00280789
0.00286632
0.00292422
0.00298152
0.00303817
0.00309411
0.00314929
0.00320368
0.00325723
0.0033099
0.00336167
0.0034125
0.00346236
0.0035112
0.00355899
0.0036057
0.00365131
0.00369586
0.00373936
0.00378182
0.00382325
0.00386365
0.00390303
0.00394137
0.00397868
0.00401494
0.00405015
0.00408429
0.00411736
0.00414936
0.00418028
0.00421012
0.00423887
0.00426652
0.00429305
0.00431848
0.00434279
0.00436599
0.00438808
0.00440907
0.00442895
0.0044477
0.00446535
0.00448188
0.00449733
0.00451169
0.00452501
0.00453723
0.00454839
0.00455849
0.00456757
0.00457565
0.00458273
0.00458884
0.00459399
0.00459822
0.00460155
0.004604
0.0046056
0.00460639
0.00460639
0.00460564
0.00460417
0.00460201
0.00459921
0.0045958
0.00459181
0.00458729
0.00458228
0.00457681
0.00457093
0.00456467
0.00455807
0.00455119
0.00454404
0.00453668
0.00452914
0.00452145
0.00451364
0.00450575
0.0044978
0.0044898
0.00448179
0.00447377
0.00446574
0.00445771
0.00444969
0.00444169
0.00443371
0.00442577
0.00441785
0.00440997
0.00440211
0.00439426
0.00438641
0.00437852
0.00437058
0.00436256
0.0043544
0.00434608
0.00433755
0.00432877
0.00431969
0.00431025
0.00430042
0.00429015
0.00427938
0.00426807
0.00425618
0.00424368
0.00423053
0.0042167
0.00420217
0.00418692
0.00417094
0.00415421
0.00413675
0.00411856
0.00409964
0.00408001
0.0040597
0.00403874
0.00401714
0.00399496
0.00397221
0.00394895
0.00392521
0.00390104
0.00387648
0.00385157
0.00382636
0.00380089
0.00377521
0.00374935
0.00372336
0.00369727
0.00367113
0.00364497
0.00361882
0.00359272
0.00356671
0.00354083
0.00351511
0.00348961
0.00346438
0.00343948
0.00341501
0.00339108
0.00336786
0.00334558
0.00332463
0.00330572
0.00329019
0.0032807
7.85324e-05
0.000238351
0.000356345
0.000435762
0.000494985
0.000544752
0.000590555
0.000635155
0.000679958
0.000725703
0.000772767
0.000821312
0.000871356
0.000922823
0.000975568
0.00102941
0.00108415
0.00113962
0.00119564
0.00125209
0.00130887
0.00136593
0.00142323
0.00148075
0.00153848
0.00159644
0.00165462
0.00171302
0.00177167
0.00183056
0.00188968
0.00194903
0.00200861
0.00206839
0.00212837
0.00218851
0.00224879
0.00230918
0.00236963
0.00243011
0.00249056
0.00255093
0.00261117
0.00267121
0.00273099
0.00279046
0.00284954
0.00290818
0.0029663
0.00302385
0.00308076
0.00313698
0.00319246
0.00324716
0.00330102
0.00335402
0.00340613
0.0034573
0.00350752
0.00355675
0.00360498
0.00365224
0.00369852
0.00374379
0.00378807
0.00383136
0.00387365
0.00391494
0.00395524
0.00399452
0.00403278
0.00407
0.00410618
0.0041413
0.00417536
0.00420835
0.00424026
0.00427109
0.00430085
0.00432949
0.00435702
0.00438343
0.00440872
0.00443289
0.00445595
0.0044779
0.00449875
0.00451845
0.00453702
0.00455447
0.00457081
0.00458605
0.00460021
0.00461328
0.00462527
0.00463619
0.00464607
0.00465492
0.00466276
0.00466961
0.00467548
0.0046804
0.0046844
0.00468751
0.00468974
0.00469114
0.00469173
0.00469154
0.00469061
0.00468898
0.00468668
0.00468374
0.00468022
0.00467614
0.00467156
0.0046665
0.00466102
0.00465515
0.00464894
0.00464243
0.00463565
0.00462866
0.0046215
0.00461418
0.00460677
0.00459928
0.00459175
0.00458421
0.00457667
0.00456916
0.0045617
0.00455428
0.00454692
0.00453964
0.00453243
0.0045253
0.00451826
0.0045113
0.00450442
0.00449761
0.00449084
0.00448409
0.00447733
0.00447053
0.00446365
0.00445664
0.00444946
0.00444206
0.00443437
0.00442636
0.00441796
0.00440912
0.00439978
0.0043899
0.00437942
0.0043683
0.0043565
0.00434398
0.00433071
0.00431667
0.00430184
0.0042862
0.00426976
0.00425252
0.00423447
0.00421564
0.00419605
0.00417572
0.00415467
0.00413295
0.00411058
0.00408761
0.00406408
0.00404003
0.00401551
0.00399056
0.00396522
0.00393954
0.00391356
0.00388733
0.00386088
0.00383425
0.00380748
0.0037806
0.00375366
0.00372668
0.00369969
0.00367274
0.00364586
0.0036191
0.00359251
0.00356616
0.00354012
0.00351452
0.00348952
0.00346537
0.00344248
0.00342164
0.00340435
0.00339367
7.98998e-05
0.000241615
0.000363622
0.000446797
0.00050899
0.000561089
0.000608833
0.000655149
0.000701528
0.000748727
0.000797109
0.000846811
0.00089783
0.000950071
0.00100339
0.0010576
0.00111254
0.00116804
0.00122395
0.00128017
0.00133661
0.00139323
0.00144999
0.00150688
0.0015639
0.00162107
0.00167841
0.00173591
0.00179362
0.00185153
0.00190966
0.00196801
0.0020266
0.00208542
0.00214446
0.00220371
0.00226316
0.00232277
0.00238252
0.00244236
0.00250226
0.00256216
0.002622
0.00268172
0.00274127
0.00280057
0.00285955
0.00291815
0.00297628
0.00303389
0.00309091
0.00314726
0.0032029
0.00325777
0.00331183
0.00336504
0.00341737
0.00346879
0.00351927
0.0035688
0.0036175
0.00366532
0.00371223
0.0037582
0.00380323
0.0038473
0.00389042
0.00393257
0.00397374
0.00401392
0.00405309
0.00409123
0.00412833
0.00416439
0.00419938
0.00423331
0.00426617
0.00429796
0.00432868
0.00435828
0.00438676
0.00441412
0.00444035
0.00446546
0.00448945
0.00451232
0.00453407
0.00455468
0.00457416
0.00459251
0.00460974
0.00462586
0.00464089
0.00465481
0.00466764
0.0046794
0.0046901
0.00469975
0.00470837
0.00471599
0.00472262
0.00472828
0.004733
0.0047368
0.00473971
0.00474177
0.004743
0.00474343
0.0047431
0.00474205
0.0047403
0.00473791
0.00473491
0.00473134
0.00472724
0.00472266
0.00471764
0.00471222
0.00470645
0.00470038
0.00469404
0.00468748
0.00468074
0.00467387
0.0046669
0.00465987
0.00465282
0.00464578
0.00463877
0.00463182
0.00462496
0.00461819
0.00461153
0.00460499
0.00459858
0.00459231
0.00458618
0.0045802
0.00457434
0.00456861
0.00456298
0.00455743
0.00455192
0.00454643
0.0045409
0.0045353
0.00452956
0.00452364
0.00451748
0.00451101
0.00450417
0.00449691
0.00448916
0.00448086
0.00447195
0.00446238
0.00445211
0.00444108
0.00442926
0.00441662
0.00440314
0.00438879
0.00437357
0.00435747
0.0043405
0.00432266
0.00430398
0.00428447
0.00426417
0.0042431
0.00422129
0.0041988
0.00417565
0.0041519
0.00412758
0.00410274
0.00407743
0.00405168
0.00402555
0.00399907
0.00397229
0.00394524
0.00391795
0.00389047
0.00386283
0.00383506
0.00380718
0.00377924
0.00375128
0.00372332
0.00369542
0.00366765
0.00364008
0.00361283
0.00358606
0.00356003
0.00353519
0.00351237
0.00349325
0.00348134
8.08024e-05
0.000243673
0.000369023
0.000455509
0.000520338
0.000574457
0.000623787
0.000671401
0.000718866
0.000766962
0.00081605
0.00086625
0.000917543
0.000969829
0.00102296
0.00107677
0.0011311
0.0011858
0.00124074
0.00129584
0.00135102
0.00140626
0.00146153
0.00151683
0.00157219
0.00162763
0.00168318
0.00173888
0.00179475
0.00185084
0.00190717
0.00196377
0.00202066
0.00207785
0.00213535
0.00219315
0.00225126
0.00230964
0.00236828
0.00242714
0.00248618
0.00254534
0.00260456
0.00266378
0.00272293
0.00278193
0.0028407
0.00289917
0.00295726
0.00301488
0.00307195
0.00312841
0.00318417
0.0032392
0.00329343
0.00334682
0.00339934
0.00345096
0.00350165
0.00355164
0.00360087
0.00364929
0.00369685
0.00374353
0.00378931
0.00383417
0.0038781
0.00392108
0.00396311
0.00400418
0.00404424
0.00408327
0.00412127
0.00415822
0.00419412
0.00422896
0.00426272
0.00429542
0.00432703
0.00435753
0.00438692
0.00441518
0.00444233
0.00446834
0.00449324
0.00451701
0.00453965
0.00456115
0.00458152
0.00460077
0.00461888
0.00463589
0.00465178
0.00466656
0.00468026
0.00469286
0.0047044
0.00471488
0.00472432
0.00473274
0.00474016
0.0047466
0.00475208
0.00475662
0.00476026
0.00476303
0.00476495
0.00476605
0.00476638
0.00476596
0.00476484
0.00476305
0.00476063
0.00475762
0.00475408
0.00475003
0.00474553
0.00474063
0.00473536
0.00472978
0.00472393
0.00471786
0.00471161
0.00470523
0.00469876
0.00469225
0.00468573
0.00467923
0.0046728
0.00466646
0.00466024
0.00465415
0.00464822
0.00464246
0.00463689
0.00463151
0.00462632
0.00462134
0.00461655
0.00461194
0.00460749
0.00460319
0.00459899
0.00459486
0.00459076
0.00458663
0.00458243
0.00457808
0.00457353
0.00456871
0.00456356
0.00455799
0.00455195
0.00454537
0.00453817
0.00453031
0.00452171
0.00451233
0.00450213
0.00449106
0.00447909
0.0044662
0.00445237
0.00443759
0.00442187
0.0044052
0.0043876
0.00436908
0.00434968
0.00432943
0.00430834
0.00428648
0.00426386
0.00424055
0.00421657
0.00419198
0.00416682
0.00414113
0.00411497
0.00408835
0.00406134
0.00403397
0.00400626
0.00397826
0.00395
0.00392151
0.00389281
0.00386395
0.00383494
0.00380584
0.00377668
0.00374752
0.00371845
0.00368957
0.00366105
0.00363315
0.00360633
0.0035815
0.00356051
0.00354729
8.13106e-05
0.000244727
0.000372812
0.000462166
0.000529285
0.00058509
0.000635638
0.000684121
0.000732175
0.000780605
0.000829773
0.000879791
0.000930632
0.000982193
0.00103433
0.00108689
0.00113972
0.0011927
0.00124572
0.00129872
0.00135165
0.00140449
0.00145726
0.00150998
0.0015627
0.00161545
0.00166831
0.00172132
0.00177455
0.00182806
0.00188191
0.00193613
0.00199076
0.00204583
0.00210136
0.00215737
0.00221383
0.00227075
0.00232809