/*--------------------------------*- C++ -*----------------------------------*\
  =========                 |
  \\      /  F ield         | OpenFOAM: The Open Source CFD Toolbox
   \\    /   O peration     | Website:  https://openfoam.org
    \\  /    A nd           | Version:  7
     \\/     M anipulation  |
\*---------------------------------------------------------------------------*/
FoamFile
{
    version     2.0;
    format      ascii;
    class       volScalarField;
    location    "950";
    object      p;
}
// * * * * * * * * * * * * * * * * * * * * * * * * * * * * * * * * * * * * * //

dimensions      [0 2 -2 0 0 0 0];

internalField   nonuniform List<scalar> 
16900
(
-21.44
-21.4433
-21.4493
-21.4579
-21.4689
-21.4822
-21.4978
-21.5158
-21.5362
-21.5591
-21.5845
-21.6125
-21.6433
-21.6771
-21.7126
-21.7474
-21.7854
-21.8252
-21.8639
-21.902
-21.941
-21.9831
-22.0262
-22.0699
-22.1139
-22.158
-22.202
-22.2457
-22.289
-22.3317
-22.3736
-22.4144
-22.4539
-22.4919
-22.5281
-22.5622
-22.5939
-22.6229
-22.6489
-22.6716
-22.6906
-22.7055
-22.7161
-22.7219
-22.7226
-22.7179
-22.7072
-22.6904
-22.667
-22.6366
-22.5989
-22.5535
-22.5002
-22.4387
-22.3685
-22.2896
-22.2016
-22.1045
-21.9979
-21.8819
-21.7564
-21.6213
-21.4767
-21.3227
-21.1592
-20.9863
-20.8042
-20.6133
-20.4138
-20.2059
-19.9899
-19.7662
-19.535
-19.2967
-19.0517
-18.8004
-18.543
-18.28
-18.0118
-17.7387
-17.4613
-17.1799
-16.8949
-16.6067
-16.3158
-16.0225
-15.7273
-15.4306
-15.1328
-14.8341
-14.5351
-14.2361
-13.9374
-13.6394
-13.3423
-13.0465
-12.7523
-12.46
-12.1697
-11.8818
-11.5965
-11.3139
-11.0343
-10.7579
-10.4847
-10.215
-9.94878
-9.68628
-9.42754
-9.17265
-8.92169
-8.67471
-8.43174
-8.19284
-7.95804
-7.72734
-7.50074
-7.27828
-7.05993
-6.84566
-6.63551
-6.42943
-6.22734
-6.02934
-5.8354
-5.64523
-5.4589
-5.27674
-5.0989
-4.92409
-4.75232
-4.58488
-4.42163
-4.26236
-4.10694
-3.95529
-3.80734
-3.66304
-3.52234
-3.38522
-3.25163
-3.12156
-2.99498
-2.87186
-2.75219
-2.63595
-2.52312
-2.41368
-2.30762
-2.20492
-2.10556
-2.00952
-1.91679
-1.82733
-1.74112
-1.65813
-1.57832
-1.50166
-1.42811
-1.3576
-1.29008
-1.22551
-1.16379
-1.10488
-1.04867
-0.995094
-0.944054
-0.895453
-0.849189
-0.805154
-0.763237
-0.723321
-0.68529
-0.649018
-0.614384
-0.581261
-0.549523
-0.519042
-0.489693
-0.46135
-0.433889
-0.407191
-0.381136
-0.355614
-0.330515
-0.305739
-0.281192
-0.256792
-0.232464
-0.208155
-0.183823
-0.159456
-0.135069
-0.110726
-0.0865507
-0.0627699
-0.0397917
-0.0182644
-2.1259e-05
0.0163364
-21.4363
-21.4402
-21.4449
-21.4515
-21.4609
-21.4728
-21.4872
-21.504
-21.5232
-21.5446
-21.5682
-21.5936
-21.6205
-21.6483
-21.6769
-21.7104
-21.7466
-21.7853
-21.8287
-21.8747
-21.9209
-21.9644
-22.0075
-22.0509
-22.0944
-22.1379
-22.1814
-22.2246
-22.2674
-22.3097
-22.3511
-22.3915
-22.4307
-22.4684
-22.5043
-22.5383
-22.5698
-22.5988
-22.6248
-22.6476
-22.6668
-22.682
-22.6929
-22.6992
-22.7005
-22.6963
-22.6865
-22.6705
-22.6481
-22.6188
-22.5823
-22.5383
-22.4865
-22.4265
-22.3581
-22.281
-22.1949
-22.0997
-21.9952
-21.8814
-21.7581
-21.6253
-21.4831
-21.3315
-21.1703
-20.9997
-20.82
-20.6314
-20.4342
-20.2286
-20.0149
-19.7935
-19.5646
-19.3286
-19.0858
-18.8365
-18.5813
-18.3203
-18.0541
-17.783
-17.5074
-17.2278
-16.9445
-16.6579
-16.3686
-16.0768
-15.783
-15.4876
-15.1909
-14.8934
-14.5954
-14.2973
-13.9994
-13.7021
-13.4057
-13.1105
-12.8168
-12.5248
-12.2349
-11.9472
-11.662
-11.3795
-11.0999
-10.8234
-10.55
-10.2801
-10.0137
-9.75085
-9.49174
-9.23643
-8.98501
-8.73751
-8.494
-8.2545
-8.01908
-7.78772
-7.56043
-7.33726
-7.11816
-6.90311
-6.69218
-6.4853
-6.28232
-6.08343
-5.88868
-5.69743
-5.50985
-5.3265
-5.14738
-4.9719
-4.80009
-4.63254
-4.46906
-4.3095
-4.15377
-4.00179
-3.85347
-3.70879
-3.56768
-3.43013
-3.29609
-3.16555
-3.03847
-2.91483
-2.79462
-2.67782
-2.56441
-2.45437
-2.34768
-2.24434
-2.14431
-2.04759
-1.95415
-1.86396
-1.77701
-1.69325
-1.61267
-1.5352
-1.46082
-1.38948
-1.32111
-1.25567
-1.19307
-1.13326
-1.07616
-1.02167
-0.969711
-0.920188
-0.872999
-0.828038
-0.785195
-0.744358
-0.705408
-0.668226
-0.63269
-0.598676
-0.56606
-0.534715
-0.504518
-0.475346
-0.447075
-0.419589
-0.39277
-0.366509
-0.340699
-0.315241
-0.290043
-0.265027
-0.240121
-0.215274
-0.190449
-0.165638
-0.140864
-0.116197
-0.0917704
-0.0678152
-0.0447609
-0.0231392
-0.00497875
0.0148718
-21.4309
-21.4377
-21.4439
-21.4506
-21.4596
-21.4712
-21.4854
-21.502
-21.521
-21.5424
-21.5659
-21.5915
-21.619
-21.6482
-21.679
-21.7129
-21.7493
-21.7869
-21.8262
-21.8669
-21.9087
-21.9504
-21.9925
-22.035
-22.0776
-22.1204
-22.163
-22.2055
-22.2476
-22.2891
-22.3299
-22.3698
-22.4084
-22.4456
-22.4811
-22.5147
-22.546
-22.5748
-22.6007
-22.6234
-22.6426
-22.658
-22.6691
-22.6757
-22.6775
-22.6739
-22.6648
-22.6496
-22.6281
-22.5999
-22.5647
-22.5221
-22.4717
-22.4133
-22.3467
-22.2714
-22.1873
-22.0942
-21.992
-21.8804
-21.7595
-21.6291
-21.4895
-21.3403
-21.1815
-21.0135
-20.8363
-20.6502
-20.4555
-20.2525
-20.0413
-19.8224
-19.596
-19.3625
-19.1221
-18.8753
-18.6224
-18.3637
-18.0998
-17.8309
-17.5574
-17.2799
-16.9986
-16.714
-16.4265
-16.1364
-15.8443
-15.5505
-15.2553
-14.9592
-14.6626
-14.3657
-14.069
-13.7728
-13.4773
-13.183
-12.8901
-12.5989
-12.3095
-12.0224
-11.7377
-11.4556
-11.1764
-10.9001
-10.627
-10.3572
-10.0908
-9.82806
-9.56893
-9.31355
-9.06203
-8.8144
-8.57069
-8.33099
-8.09536
-7.86374
-7.63615
-7.41275
-7.19337
-6.97793
-6.76675
-6.55961
-6.35615
-6.15673
-5.96154
-5.77005
-5.58234
-5.39877
-5.21933
-5.04331
-4.87062
-4.70196
-4.53727
-4.37648
-4.21954
-4.06636
-3.91688
-3.77106
-3.62884
-3.49019
-3.35507
-3.22344
-3.0953
-2.9706
-2.84933
-2.73147
-2.617
-2.5059
-2.39815
-2.29373
-2.19263
-2.09482
-2.00028
-1.90899
-1.82092
-1.73604
-1.65431
-1.5757
-1.50017
-1.42766
-1.35813
-1.29151
-1.22773
-1.16674
-1.10845
-1.05278
-0.999635
-0.948932
-0.90057
-0.854443
-0.810445
-0.768464
-0.728384
-0.690089
-0.653458
-0.618369
-0.584699
-0.552325
-0.521125
-0.490978
-0.461761
-0.433361
-0.405661
-0.378553
-0.351934
-0.325706
-0.29978
-0.27408
-0.248536
-0.223101
-0.197742
-0.172454
-0.147263
-0.122243
-0.0975313
-0.0733414
-0.0500997
-0.0280863
-0.00971453
0.015685
-21.4266
-21.4368
-21.4454
-21.453
-21.4624
-21.4741
-21.4881
-21.5046
-21.5233
-21.5443
-21.5674
-21.5925
-21.6194
-21.6482
-21.679
-21.7122
-21.7477
-21.7849
-21.8233
-21.8626
-21.9027
-21.9434
-21.9846
-22.0262
-22.0681
-22.1101
-22.1521
-22.194
-22.2355
-22.2765
-22.3169
-22.3563
-22.3946
-22.4315
-22.4668
-22.5002
-22.5314
-22.5601
-22.586
-22.6088
-22.6281
-22.6437
-22.6552
-22.6623
-22.6645
-22.6615
-22.6531
-22.6387
-22.6181
-22.5909
-22.5567
-22.5152
-22.4662
-22.4091
-22.3439
-22.2701
-22.1876
-22.0962
-21.9956
-21.8858
-21.7667
-21.6382
-21.5004
-21.353
-21.1959
-21.0296
-20.8541
-20.6698
-20.4769
-20.2757
-20.0663
-19.8491
-19.6245
-19.3927
-19.154
-18.9088
-18.6576
-18.4005
-18.1381
-17.8707
-17.5988
-17.3226
-17.0427
-16.7594
-16.4731
-16.1843
-15.8933
-15.6005
-15.3063
-15.0112
-14.7154
-14.4194
-14.1234
-13.8279
-13.533
-13.2393
-12.9469
-12.6561
-12.3671
-12.0803
-11.7959
-11.5141
-11.235
-10.9588
-10.6858
-10.4161
-10.1497
-9.88693
-9.62772
-9.37225
-9.12062
-8.87284
-8.62893
-8.38903
-8.15326
-7.92138
-7.69344
-7.46989
-7.25025
-7.03432
-6.82263
-6.61505
-6.41127
-6.21148
-6.01581
-5.82392
-5.63586
-5.45183
-5.27183
-5.09535
-4.92233
-4.75319
-4.58793
-4.42653
-4.26894
-4.11511
-3.96497
-3.81848
-3.6756
-3.53627
-3.40048
-3.26818
-3.13935
-3.01396
-2.892
-2.77343
-2.65824
-2.5464
-2.43791
-2.33273
-2.23086
-2.13227
-2.03693
-1.94483
-1.85594
-1.77022
-1.68764
-1.60817
-1.53176
-1.45836
-1.38793
-1.32041
-1.25572
-1.19381
-1.1346
-1.078
-1.02394
-0.97231
-0.923026
-0.875984
-0.831076
-0.788194
-0.747223
-0.70805
-0.670553
-0.634615
-0.600113
-0.566927
-0.534935
-0.504018
-0.474056
-0.444936
-0.416544
-0.388773
-0.36152
-0.334691
-0.308198
-0.281965
-0.255926
-0.230033
-0.204256
-0.178588
-0.153056
-0.127725
-0.102725
-0.0782237
-0.0546245
-0.0318375
-0.0127527
0.0184201
-21.4256
-21.4383
-21.449
-21.4577
-21.4676
-21.4796
-21.4938
-21.5102
-21.5289
-21.5497
-21.5725
-21.5973
-21.6239
-21.6525
-21.6829
-21.7156
-21.7503
-21.7866
-21.8242
-21.8628
-21.9021
-21.942
-21.9825
-22.0234
-22.0646
-22.1061
-22.1476
-22.1889
-22.2301
-22.2708
-22.3108
-22.35
-22.3881
-22.4249
-22.4601
-22.4934
-22.5246
-22.5534
-22.5794
-22.6024
-22.622
-22.6379
-22.6497
-22.6572
-22.6599
-22.6575
-22.6496
-22.636
-22.6161
-22.5897
-22.5564
-22.5159
-22.4679
-22.4119
-22.3477
-22.2751
-22.1938
-22.1036
-22.0042
-21.8956
-21.7778
-21.6506
-21.5138
-21.3674
-21.2113
-21.0461
-20.8718
-20.6886
-20.4968
-20.2967
-20.0884
-19.8723
-19.6488
-19.418
-19.1804
-18.9363
-18.686
-18.43
-18.1685
-17.902
-17.631
-17.3557
-17.0766
-16.7941
-16.5085
-16.2204
-15.9301
-15.638
-15.3445
-15.0499
-14.7546
-14.4591
-14.1636
-13.8685
-13.574
-13.2806
-12.9885
-12.698
-12.4093
-12.1227
-11.8384
-11.5567
-11.2778
-11.0017
-10.7287
-10.459
-10.1927
-9.92985
-9.67056
-9.41501
-9.16336
-8.91548
-8.67135
-8.43129
-8.19551
-7.96339
-7.73501
-7.51106
-7.29109
-7.07496
-6.86297
-6.65503
-6.45098
-6.25091
-6.05487
-5.86267
-5.67434
-5.48997
-5.30955
-5.1328
-4.95966
-4.79036
-4.62488
-4.4632
-4.3053
-4.15112
-4.00063
-3.85376
-3.71048
-3.57075
-3.43454
-3.30181
-3.17253
-3.04669
-2.92425
-2.8052
-2.68951
-2.57716
-2.46814
-2.36242
-2.25999
-2.16082
-2.0649
-1.9722
-1.88268
-1.79634
-1.71312
-1.633
-1.55592
-1.48186
-1.41075
-1.34253
-1.27716
-1.21455
-1.15463
-1.09733
-1.04257
-0.990237
-0.940255
-0.892518
-0.846922
-0.80336
-0.761718
-0.721883
-0.683738
-0.647165
-0.612042
-0.578252
-0.545674
-0.514189
-0.483679
-0.454032
-0.425136
-0.396884
-0.369175
-0.341914
-0.315015
-0.288402
-0.262009
-0.235787
-0.209704
-0.183751
-0.157947
-0.132344
-0.107051
-0.0821791
-0.0581035
-0.0343265
-0.0144074
0.0221619
-21.4281
-21.4425
-21.4547
-21.4644
-21.475
-21.4874
-21.5018
-21.5183
-21.537
-21.5577
-21.5804
-21.6051
-21.6316
-21.66
-21.6903
-21.7225
-21.7564
-21.7919
-21.8287
-21.8665
-21.9051
-21.9444
-21.9842
-22.0246
-22.0653
-22.1063
-22.1474
-22.1885
-22.2293
-22.2698
-22.3096
-22.3487
-22.3867
-22.4235
-22.4587
-22.4921
-22.5234
-22.5523
-22.5785
-22.6017
-22.6216
-22.6378
-22.6501
-22.6579
-22.6611
-22.6592
-22.652
-22.6389
-22.6197
-22.594
-22.5615
-22.5218
-22.4745
-22.4194
-22.3561
-22.2843
-22.2039
-22.1145
-22.016
-21.9082
-21.7912
-21.6648
-21.5286
-21.3826
-21.2272
-21.0626
-20.8889
-20.7064
-20.5153
-20.3158
-20.1082
-19.8928
-19.6699
-19.4398
-19.2028
-18.9593
-18.7096
-18.4542
-18.1933
-17.9274
-17.6569
-17.3821
-17.1035
-16.8215
-16.5364
-16.2488
-15.9589
-15.6672
-15.374
-15.0798
-14.7849
-14.4897
-14.1945
-13.8996
-13.6055
-13.3123
-13.0204
-12.7301
-12.4416
-12.1552
-11.871
-11.5895
-11.3107
-11.0347
-10.7617
-10.4921
-10.2259
-9.96308
-9.70372
-9.44814
-9.19659
-8.9487
-8.70435
-8.46409
-8.22805
-7.99581
-7.76743
-7.54328
-7.32313
-7.1069
-6.89475
-6.68661
-6.48241
-6.28217
-6.08592
-5.89354
-5.70504
-5.52047
-5.3398
-5.16287
-4.98964
-4.82021
-4.65456
-4.49269
-4.33455
-4.18012
-4.02935
-3.88219
-3.7386
-3.59855
-3.462
-3.32892
-3.19928
-3.07306
-2.95023
-2.83078
-2.71467
-2.6019
-2.49243
-2.38626
-2.28337
-2.18372
-2.08731
-1.9941
-1.90408
-1.81721
-1.73346
-1.65279
-1.57517
-1.50055
-1.42888
-1.3601
-1.29415
-1.23097
-1.17049
-1.11262
-1.05728
-1.00439
-0.953849
-0.90556
-0.859418
-0.815319
-0.773149
-0.732799
-0.69415
-0.657086
-0.621488
-0.587237
-0.554214
-0.522302
-0.491384
-0.461347
-0.43208
-0.403477
-0.375437
-0.347866
-0.320677
-0.293792
-0.267147
-0.240686
-0.214378
-0.188201
-0.162171
-0.136316
-0.110726
-0.0854379
-0.0608237
-0.0359532
-0.0152965
0.0263421
-21.4338
-21.4494
-21.4625
-21.473
-21.4841
-21.4969
-21.5116
-21.5283
-21.547
-21.5677
-21.5903
-21.6149
-21.6413
-21.6695
-21.6995
-21.7312
-21.7646
-21.7994
-21.8354
-21.8725
-21.9105
-21.9493
-21.9886
-22.0285
-22.0689
-22.1095
-22.1504
-22.1912
-22.2319
-22.2723
-22.3121
-22.3511
-22.3892
-22.426
-22.4613
-22.4948
-22.5263
-22.5554
-22.5819
-22.6053
-22.6255
-22.6421
-22.6547
-22.663
-22.6666
-22.6652
-22.6584
-22.6459
-22.6273
-22.6022
-22.5703
-22.5312
-22.4846
-22.4301
-22.3674
-22.2963
-22.2165
-22.1277
-22.0298
-21.9226
-21.8061
-21.68
-21.544
-21.3981
-21.243
-21.0787
-20.9053
-20.7232
-20.5324
-20.3332
-20.126
-19.9109
-19.6883
-19.4586
-19.2219
-18.9787
-18.7294
-18.4743
-18.2137
-17.9481
-17.6779
-17.4034
-17.1251
-16.8433
-16.5586
-16.2712
-15.9815
-15.6901
-15.3971
-15.1032
-14.8085
-14.5135
-14.2185
-13.9239
-13.6299
-13.3369
-13.0452
-12.7551
-12.4667
-12.1804
-11.8964
-11.615
-11.3364
-11.0605
-10.7876
-10.518
-10.252
-9.98936
-9.7299
-9.47427
-9.22261
-8.97468
-8.73044
-8.4902
-8.25405
-8.02179
-7.79346
-7.56924
-7.34902
-7.13276
-6.92053
-6.71231
-6.50803
-6.3077
-6.11133
-5.91885
-5.73026
-5.54557
-5.36474
-5.18769
-5.01437
-4.84482
-4.67904
-4.517
-4.35869
-4.20404
-4.05304
-3.90563
-3.76178
-3.62146
-3.48462
-3.35124
-3.22129
-3.09475
-2.97159
-2.85178
-2.73532
-2.62217
-2.51232
-2.40576
-2.30246
-2.2024
-2.10556
-2.01192
-1.92145
-1.83413
-1.74992
-1.66879
-1.5907
-1.51561
-1.44346
-1.37421
-1.30779
-1.24413
-1.18317
-1.12484
-1.06903
-1.01568
-0.964686
-0.915951
-0.869372
-0.824846
-0.782261
-0.741506
-0.702465
-0.665024
-0.629061
-0.594462
-0.561106
-0.528877
-0.497659
-0.467339
-0.437806
-0.408955
-0.380684
-0.352898
-0.32551
-0.298439
-0.271619
-0.244991
-0.218516
-0.192165
-0.16594
-0.139848
-0.113954
-0.0882233
-0.0630423
-0.0370369
-0.0157754
0.0306877
-21.4423
-21.4584
-21.472
-21.4831
-21.4947
-21.5078
-21.5227
-21.5395
-21.5582
-21.5789
-21.6014
-21.6258
-21.652
-21.68
-21.7096
-21.7409
-21.7738
-21.808
-21.8435
-21.88
-21.9175
-21.9558
-21.9948
-22.0344
-22.0745
-22.1149
-22.1556
-22.1963
-22.2369
-22.2773
-22.3171
-22.3562
-22.3943
-22.4313
-22.4667
-22.5005
-22.5322
-22.5615
-22.5883
-22.612
-22.6325
-22.6494
-22.6624
-22.6711
-22.6751
-22.6741
-22.6678
-22.6557
-22.6376
-22.613
-22.5816
-22.543
-22.4969
-22.4429
-22.3807
-22.31
-22.2306
-22.1422
-22.0446
-21.9377
-21.8214
-21.6952
-21.5589
-21.4131
-21.258
-21.0938
-20.9205
-20.7384
-20.5477
-20.3487
-20.1415
-19.9266
-19.7041
-19.4744
-19.2379
-18.9949
-18.7457
-18.4907
-18.2302
-17.9648
-17.6946
-17.4203
-17.1421
-16.8605
-16.5759
-16.2887
-15.9992
-15.7078
-15.415
-15.1212
-14.8267
-14.5319
-14.2371
-13.9425
-13.6487
-13.3559
-13.0644
-12.7745
-12.4863
-12.2
-11.9162
-11.635
-11.3566
-11.0808
-10.8079
-10.5384
-10.2724
-10.0097
-9.75047
-9.49495
-9.2433
-8.99542
-8.75131
-8.51116
-8.27502
-8.0428
-7.81453
-7.59032
-7.37011
-7.15386
-6.94163
-6.73338
-6.52908
-6.32872
-6.1323
-5.93977
-5.75113
-5.56636
-5.38544
-5.2083
-5.03491
-4.86528
-4.69939
-4.53722
-4.37875
-4.22394
-4.07275
-3.92513
-3.78106
-3.6405
-3.50342
-3.36978
-3.23956
-3.11273
-2.98927
-2.86916
-2.75238
-2.6389
-2.52872
-2.42181
-2.31815
-2.21772
-2.12051
-2.02649
-1.93564
-1.84793
-1.76332
-1.68179
-1.6033
-1.5278
-1.45525
-1.3856
-1.31877
-1.25472
-1.19336
-1.13464
-1.07845
-1.02472
-0.973356
-0.924263
-0.877334
-0.83247
-0.789557
-0.748489
-0.709146
-0.671418
-0.635182
-0.600325
-0.566725
-0.534269
-0.502838
-0.472322
-0.442608
-0.413591
-0.385169
-0.357245
-0.32973
-0.30254
-0.275607
-0.248865
-0.22227
-0.19578
-0.169386
-0.143066
-0.116866
-0.0906724
-0.0649159
-0.0377519
-0.0160276
0.0350462
-21.453
-21.4692
-21.4829
-21.4944
-21.5063
-21.5196
-21.5345
-21.5514
-21.5701
-21.5906
-21.613
-21.6373
-21.6632
-21.6909
-21.7202
-21.7511
-21.7834
-21.8172
-21.8522
-21.8883
-21.9254
-21.9633
-22.002
-22.0414
-22.0813
-22.1216
-22.1622
-22.2029
-22.2436
-22.284
-22.3239
-22.3631
-22.4014
-22.4385
-22.4742
-22.5082
-22.5401
-22.5697
-22.5967
-22.6208
-22.6416
-22.6588
-22.6721
-22.6811
-22.6855
-22.6848
-22.6789
-22.6672
-22.6495
-22.6253
-22.5943
-22.556
-22.5103
-22.4566
-22.3947
-22.3243
-22.2451
-22.1569
-22.0594
-21.9526
-21.8362
-21.7095
-21.5729
-21.4269
-21.2717
-21.1073
-20.9339
-20.7517
-20.561
-20.3619
-20.1547
-19.9397
-19.7171
-19.4874
-19.2509
-19.0078
-18.7586
-18.5036
-18.2432
-17.9777
-17.7076
-17.4333
-17.1551
-16.8736
-16.5891
-16.3019
-16.0125
-15.7212
-15.4285
-15.1348
-14.8404
-14.5458
-14.2511
-13.9566
-13.6629
-13.3702
-13.0789
-12.7893
-12.5012
-12.215
-11.9313
-11.6502
-11.3719
-11.0963
-10.8236
-10.5542
-10.2883
-10.0258
-9.76676
-9.51142
-9.25987
-9.0121
-8.76814
-8.52811
-8.29206
-8.05994
-7.83177
-7.60763
-7.38748
-7.17129
-6.9591
-6.75088
-6.5466
-6.34625
-6.14983
-5.95729
-5.76863
-5.58382
-5.40285
-5.22565
-5.0522
-4.8825
-4.71653
-4.55426
-4.39566
-4.2407
-4.08934
-3.94155
-3.79728
-3.65651
-3.51921
-3.38533
-3.25487
-3.12778
-3.00406
-2.88367
-2.7666
-2.65283
-2.54234
-2.43512
-2.33114
-2.23039
-2.13284
-2.03848
-1.94729
-1.85923
-1.77427
-1.6924
-1.61355
-1.53771
-1.46481
-1.3948
-1.32763
-1.26325
-1.20156
-1.14251
-1.086
-1.03197
-0.980304
-0.930923
-0.883717
-0.838589
-0.795423
-0.754116
-0.714547
-0.676607
-0.640173
-0.605133
-0.571365
-0.538756
-0.507187
-0.476547
-0.446724
-0.41761
-0.389103
-0.361104
-0.333522
-0.306271
-0.279276
-0.252466
-0.225788
-0.199188
-0.172643
-0.146104
-0.119598
-0.0929307
-0.0666021
-0.0382778
-0.0162094
0.0392805
-21.4652
-21.4813
-21.4948
-21.5064
-21.5184
-21.5318
-21.5468
-21.5635
-21.5821
-21.6025
-21.6247
-21.6486
-21.6743
-21.7017
-21.7306
-21.7611
-21.7931
-21.8264
-21.861
-21.8967
-21.9335
-21.9712
-22.0098
-22.049
-22.0888
-22.1291
-22.1698
-22.2105
-22.2513
-22.2918
-22.3318
-22.3712
-22.4097
-22.4471
-22.4829
-22.5171
-22.5493
-22.5792
-22.6064
-22.6307
-22.6518
-22.6692
-22.6828
-22.6921
-22.6967
-22.6964
-22.6907
-22.6794
-22.6619
-22.638
-22.6072
-22.5692
-22.5237
-22.4702
-22.4085
-22.3382
-22.2591
-22.1708
-22.0734
-21.9665
-21.8494
-21.7219
-21.585
-21.4388
-21.2833
-21.1186
-20.945
-20.7627
-20.5717
-20.3724
-20.1651
-19.9499
-19.7272
-19.4974
-19.2607
-19.0175
-18.7682
-18.5132
-18.2527
-17.9871
-17.717
-17.4426
-17.1645
-16.8829
-16.5984
-16.3114
-16.022
-15.7307
-15.4381
-15.1445
-14.8502
-14.5558
-14.2613
-13.9669
-13.6732
-13.3807
-13.0895
-12.8
-12.5121
-12.2262
-11.9427
-11.6617
-11.3835
-11.1081
-10.8357
-10.5666
-10.3008
-10.0385
-9.77965
-9.52451
-9.27313
-9.02554
-8.78177
-8.54191
-8.306
-8.07402
-7.846
-7.62198
-7.40193
-7.18585
-6.97375
-6.7656
-6.56138
-6.36108
-6.16469
-5.97218
-5.78352
-5.59871
-5.41771
-5.24048
-5.06699
-4.89723
-4.73119
-4.56882
-4.41011
-4.25502
-4.10352
-3.95556
-3.81111
-3.67015
-3.53264
-3.39855
-3.26786
-3.14054
-3.01656
-2.89592
-2.77858
-2.66454
-2.55377
-2.44626
-2.34198
-2.24093
-2.14309
-2.04842
-1.95692
-1.86855
-1.78328
-1.70109
-1.62194
-1.54578
-1.47258
-1.40228
-1.33481
-1.27014
-1.20817
-1.14885
-1.09208
-1.03779
-0.985888
-0.936278
-0.888853
-0.84352
-0.800162
-0.758677
-0.718943
-0.680854
-0.644284
-0.609124
-0.575249
-0.542548
-0.510901
-0.480196
-0.45032
-0.421166
-0.392629
-0.364607
-0.337008
-0.309739
-0.282725
-0.255881
-0.229152
-0.202466
-0.175787
-0.149036
-0.122226
-0.0950799
-0.0681909
-0.0387077
-0.0164004
0.0433013
-21.4785
-21.4941
-21.5072
-21.5188
-21.5308
-21.5441
-21.5589
-21.5755
-21.5938
-21.614
-21.6359
-21.6596
-21.6849
-21.7119
-21.7405
-21.7707
-21.8023
-21.8353
-21.8695
-21.905
-21.9416
-21.9792
-22.0176
-22.0568
-22.0966
-22.137
-22.1777
-22.2185
-22.2594
-22.3001
-22.3403
-22.3799
-22.4186
-22.4562
-22.4923
-22.5267
-22.559
-22.5891
-22.6166
-22.6411
-22.6623
-22.68
-22.6937
-22.7032
-22.708
-22.7079
-22.7024
-22.6912
-22.6739
-22.6501
-22.6195
-22.5817
-22.5362
-22.4828
-22.4211
-22.3508
-22.2715
-22.1832
-22.0856
-21.9781
-21.86
-21.732
-21.5947
-21.4481
-21.2923
-21.1273
-20.9534
-20.7707
-20.5795
-20.38
-20.1723
-19.9569
-19.7341
-19.504
-19.2672
-19.0239
-18.7744
-18.5193
-18.2587
-17.993
-17.7228
-17.4484
-17.1702
-16.8887
-16.6042
-16.3173
-16.0279
-15.7367
-15.4441
-15.1506
-14.8564
-14.5621
-14.2677
-13.9735
-13.6801
-13.3878
-13.0967
-12.8073
-12.5197
-12.234
-11.9508
-11.67
-11.392
-11.1169
-10.8448
-10.5759
-10.3104
-10.0483
-9.78975
-9.53486
-9.28371
-9.03635
-8.79281
-8.55317
-8.31745
-8.08567
-7.85784
-7.63398
-7.41408
-7.19814
-6.98616
-6.77811
-6.57399
-6.37377
-6.17745
-5.98498
-5.79636
-5.61156
-5.43055
-5.2533
-5.07979
-4.90998
-4.74387
-4.58143
-4.42261
-4.2674
-4.11576
-3.96764
-3.82303
-3.68188
-3.54418
-3.40988
-3.27897
-3.15142
-3.02721
-2.90632
-2.78874
-2.67444
-2.5634
-2.45562
-2.35107
-2.24975
-2.15162
-2.05667
-1.96488
-1.87623
-1.79068
-1.70822
-1.62879
-1.55236
-1.47889
-1.40833
-1.34061
-1.27569
-1.21349
-1.15394
-1.09696
-1.04247
-0.990367
-0.940577
-0.892986
-0.847501
-0.804003
-0.762394
-0.722549
-0.684364
-0.647713
-0.612486
-0.578559
-0.54582
-0.514147
-0.48343
-0.453553
-0.424408
-0.395888
-0.367888
-0.340314
-0.313069
-0.286069
-0.259225
-0.23247
-0.205718
-0.178918
-0.151963
-0.124853
-0.0972278
-0.0697922
-0.0391627
-0.0166897
0.0470139
-21.4923
-21.5073
-21.5198
-21.5312
-21.5431
-21.5561
-21.5707
-21.587
-21.605
-21.6248
-21.6464
-21.6697
-21.6947
-21.7214
-21.7496
-21.7795
-21.8108
-21.8435
-21.8775
-21.9128
-21.9493
-21.9868
-22.0252
-22.0644
-22.1043
-22.1447
-22.1856
-22.2266
-22.2677
-22.3085
-22.3489
-22.3887
-22.4276
-22.4653
-22.5016
-22.5361
-22.5687
-22.5989
-22.6264
-22.6511
-22.6724
-22.6901
-22.704
-22.7135
-22.7184
-22.7184
-22.7129
-22.7018
-22.6846
-22.6608
-22.6302
-22.5924
-22.5469
-22.4934
-22.4316
-22.3611
-22.2817
-22.1931
-22.095
-21.9864
-21.8674
-21.739
-21.6013
-21.4542
-21.298
-21.1327
-20.9584
-20.7755
-20.584
-20.3841
-20.1762
-19.9605
-19.7374
-19.5072
-19.2701
-19.0267
-18.7771
-18.5219
-18.2613
-17.9955
-17.7251
-17.4507
-17.1725
-16.891
-16.6065
-16.3196
-16.0303
-15.7392
-15.4468
-15.1534
-14.8594
-14.5651
-14.2709
-13.977
-13.6838
-13.3917
-13.1009
-12.8117
-12.5243
-12.239
-11.956
-11.6756
-11.3979
-11.1231
-10.8513
-10.5827
-10.3175
-10.0557
-9.79748
-9.5429
-9.29204
-9.04496
-8.80171
-8.56233
-8.32686
-8.09532
-7.86771
-7.64405
-7.42435
-7.20859
-6.99676
-6.78886
-6.58486
-6.38475
-6.18851
-5.99612
-5.80754
-5.62277
-5.44178
-5.26453
-5.09099
-4.92116
-4.75499
-4.59246
-4.43356
-4.27823
-4.12645
-3.97819
-3.83341
-3.69209
-3.55419
-3.41969
-3.28857
-3.1608
-3.03636
-2.91524
-2.79741
-2.68286
-2.57157
-2.46353
-2.35873
-2.25714
-2.15875
-2.06354
-1.97149
-1.88258
-1.79678
-1.71406
-1.63438
-1.55771
-1.484
-1.41321
-1.34528
-1.28015
-1.21775
-1.15801
-1.10085
-1.0462
-0.993947
-0.944021
-0.896305
-0.850712
-0.807119
-0.765431
-0.72552
-0.687286
-0.650598
-0.615351
-0.581415
-0.548683
-0.517029
-0.486343
-0.456507
-0.427412
-0.398949
-0.371009
-0.343497
-0.316306
-0.289353
-0.262533
-0.235776
-0.208975
-0.18207
-0.15492
-0.127519
-0.0994171
-0.0714539
-0.0396924
-0.0171077
0.0503563
-21.5063
-21.5205
-21.5324
-21.5435
-21.555
-21.5676
-21.5818
-21.5977
-21.6154
-21.6348
-21.6559
-21.6788
-21.7035
-21.7298
-21.7577
-21.7873
-21.8183
-21.8508
-21.8847
-21.9199
-21.9563
-21.9938
-22.0323
-22.0716
-22.1116
-22.1522
-22.1931
-22.2343
-22.2756
-22.3166
-22.3572
-22.3971
-22.4361
-22.4739
-22.5103
-22.5449
-22.5775
-22.6078
-22.6353
-22.6599
-22.6813
-22.699
-22.7127
-22.7222
-22.7271
-22.727
-22.7215
-22.7103
-22.693
-22.6692
-22.6385
-22.6005
-22.5548
-22.5012
-22.4392
-22.3684
-22.2887
-22.1998
-22.1005
-21.9906
-21.8711
-21.7422
-21.6041
-21.4566
-21.3
-21.1343
-20.9597
-20.7764
-20.5847
-20.3846
-20.1764
-19.9605
-19.7371
-19.5067
-19.2695
-19.0259
-18.7762
-18.5208
-18.2601
-17.9943
-17.724
-17.4495
-17.1713
-16.8899
-16.6054
-16.3185
-16.0294
-15.7384
-15.4462
-15.153
-14.8591
-14.5651
-14.2711
-13.9774
-13.6845
-13.3927
-13.1022
-12.8134
-12.5263
-12.2414
-11.9588
-11.6787
-11.4014
-11.1269
-10.8555
-10.5873
-10.3225
-10.0611
-9.80322
-9.54899
-9.29848
-9.05174
-8.80881
-8.56974
-8.33457
-8.10331
-7.87597
-7.65256
-7.43309
-7.21753
-7.0059
-6.79817
-6.59432
-6.39434
-6.19821
-6.0059
-5.8174
-5.63268
-5.45171
-5.27446
-5.10092
-4.93105
-4.76483
-4.60223
-4.44322
-4.28778
-4.13587
-3.98746
-3.84252
-3.70102
-3.56293
-3.42823
-3.2969
-3.16891
-3.04425
-2.92289
-2.80483
-2.69004
-2.5785
-2.47022
-2.36517
-2.26333
-2.16469
-2.06924
-1.97694
-1.88779
-1.80175
-1.7188
-1.6389
-1.56202
-1.4881
-1.41711
-1.34899
-1.28368
-1.22111
-1.16123
-1.10393
-1.04915
-0.996783
-0.946759
-0.89896
-0.853298
-0.809651
-0.767925
-0.727991
-0.689749
-0.653067
-0.617841
-0.58394
-0.551255
-0.51966
-0.489046
-0.45929
-0.430283
-0.401913
-0.374068
-0.346649
-0.319544
-0.292663
-0.265893
-0.239153
-0.212321
-0.185323
-0.157987
-0.130302
-0.10173
-0.0732545
-0.0403827
-0.0177091
0.0532566
-21.5202
-21.5336
-21.5447
-21.5552
-21.5662
-21.5784
-21.5921
-21.6075
-21.6246
-21.6436
-21.6643
-21.6868
-21.711
-21.737
-21.7647
-21.794
-21.8248
-21.8572
-21.891
-21.9262
-21.9626
-22.0001
-22.0386
-22.0781
-22.1182
-22.1589
-22.2001
-22.2414
-22.2828
-22.3239
-22.3646
-22.4046
-22.4436
-22.4815
-22.5178
-22.5524
-22.5849
-22.615
-22.6425
-22.6669
-22.6881
-22.7056
-22.7192
-22.7285
-22.7332
-22.7329
-22.7272
-22.7159
-22.6983
-22.6743
-22.6433
-22.6051
-22.5592
-22.5053
-22.4429
-22.3719
-22.2918
-22.2018
-22.1012
-21.9906
-21.8707
-21.7414
-21.6028
-21.455
-21.298
-21.1319
-20.957
-20.7734
-20.5813
-20.381
-20.1726
-19.9565
-19.733
-19.5024
-19.265
-19.0213
-18.7715
-18.516
-18.2552
-17.9894
-17.7192
-17.4447
-17.1666
-16.8852
-16.6009
-16.3141
-16.0252
-15.7344
-15.4424
-15.1494
-14.8559
-14.5621
-14.2684
-13.9751
-13.6826
-13.3912
-13.1011
-12.8126
-12.526
-12.2414
-11.9593
-11.6796
-11.4027
-11.1287
-10.8578
-10.59
-10.3256
-10.0647
-9.80722
-9.55341
-9.3033
-9.05694
-8.81439
-8.57569
-8.34086
-8.10992
-7.88288
-7.65976
-7.44055
-7.22524
-7.01383
-6.80629
-6.60262
-6.4028
-6.2068
-6.0146
-5.82618
-5.64152
-5.46059
-5.28336
-5.10981
-4.93991
-4.77364
-4.61097
-4.45187
-4.29631
-4.14427
-3.99571
-3.85061
-3.70893
-3.57065
-3.43575
-3.30421
-3.176
-3.05111
-2.92953
-2.81122
-2.6962
-2.58442
-2.4759
-2.3706
-2.26852
-2.16965
-2.07396
-1.98143
-1.89206
-1.8058
-1.72264
-1.64253
-1.56546
-1.49135
-1.42019
-1.3519
-1.28645
-1.22374
-1.16373
-1.10632
-1.05144
-0.998998
-0.948911
-0.901059
-0.855365
-0.811697
-0.76997
-0.730046
-0.691832
-0.655191
-0.620022
-0.58619
-0.553589
-0.522088
-0.491578
-0.461935
-0.433048
-0.404801
-0.377081
-0.349783
-0.322789
-0.296005
-0.269305
-0.242603
-0.215755
-0.18868
-0.161169
-0.133214
-0.104183
-0.0752161
-0.0412613
-0.0185017
0.0556678
-21.5338
-21.5463
-21.5564
-21.5664
-21.5768
-21.5883
-21.6014
-21.6162
-21.6327
-21.6511
-21.6714
-21.6934
-21.7173
-21.743
-21.7704
-21.7995
-21.8302
-21.8625
-21.8963
-21.9314
-21.9679
-22.0055
-22.0441
-22.0837
-22.1239
-22.1648
-22.206
-22.2474
-22.2888
-22.33
-22.3706
-22.4105
-22.4495
-22.4872
-22.5233
-22.5577
-22.59
-22.6199
-22.647
-22.6711
-22.692
-22.7092
-22.7224
-22.7314
-22.7358
-22.7352
-22.7292
-22.7176
-22.6998
-22.6754
-22.6442
-22.6056
-22.5594
-22.5051
-22.4424
-22.371
-22.2898
-22.1983
-22.0968
-21.9859
-21.8656
-21.736
-21.597
-21.4488
-21.2915
-21.1251
-20.9499
-20.766
-20.5737
-20.3731
-20.1646
-19.9483
-19.7246
-19.4939
-19.2565
-19.0127
-18.7628
-18.5073
-18.2466
-17.9809
-17.7107
-17.4364
-17.1584
-16.8772
-16.5931
-16.3065
-16.0178
-15.7274
-15.4356
-15.143
-14.8498
-14.5564
-14.2631
-13.9703
-13.6782
-13.3872
-13.0976
-12.8096
-12.5234
-12.2394
-11.9577
-11.6786
-11.4022
-11.1287
-10.8583
-10.5911
-10.3272
-10.0667
-9.80973
-9.55639
-9.30673
-9.06082
-8.8187
-8.5804
-8.34595
-8.11538
-7.88869
-7.66589
-7.44697
-7.23194
-7.02077
-6.81346
-6.60999
-6.41034
-6.21449
-6.02241
-5.83409
-5.6495
-5.46862
-5.29141
-5.11786
-4.94793
-4.78161
-4.61887
-4.45968
-4.304
-4.15183
-4.00312
-3.85784
-3.71598
-3.57751
-3.44241
-3.31065
-3.18222
-3.0571
-2.93528
-2.81674
-2.70148
-2.58946
-2.4807
-2.37516
-2.27285
-2.17375
-2.07783
-1.98509
-1.8955
-1.80903
-1.72568
-1.64539
-1.56814
-1.49387
-1.42256
-1.35413
-1.28855
-1.22573
-1.16562
-1.10813
-1.05319
-1.00069
-0.950574
-0.902704
-0.857009
-0.813355
-0.771659
-0.73178
-0.693629
-0.657063
-0.621985
-0.588256
-0.555771
-0.524397
-0.494024
-0.464526
-0.435789
-0.407695
-0.380127
-0.352975
-0.326117
-0.299451
-0.272842
-0.246194
-0.219346
-0.192205
-0.164532
-0.136317
-0.106839
-0.0773952
-0.0423902
-0.0195187
0.0575371
-21.5469
-21.5585
-21.5677
-21.5768
-21.5864
-21.5972
-21.6095
-21.6236
-21.6395
-21.6573
-21.6771
-21.6987
-21.7222
-21.7476
-21.7748
-21.8038
-21.8344
-21.8666
-21.9004
-21.9356
-21.9721
-22.0098
-22.0485
-22.0881
-22.1284
-22.1693
-22.2105
-22.2519
-22.2932
-22.3342
-22.3746
-22.4143
-22.4529
-22.4903
-22.5261
-22.5601
-22.5919
-22.6214
-22.6481
-22.6718
-22.6922
-22.7089
-22.7217
-22.7302
-22.7342
-22.7331
-22.7268
-22.7147
-22.6966
-22.6719
-22.6403
-22.6014
-22.5548
-22.5001
-22.437
-22.3645
-22.2817
-22.1892
-22.0873
-21.9761
-21.8554
-21.7254
-21.5862
-21.4377
-21.28
-21.1134
-20.938
-20.7539
-20.5614
-20.3607
-20.152
-19.9356
-19.7119
-19.4812
-19.2438
-19
-18.7502
-18.4948
-18.2341
-17.9686
-17.6986
-17.4245
-17.1468
-16.8658
-16.582
-16.2957
-16.0074
-15.7173
-15.426
-15.1338
-14.8411
-14.5481
-14.2553
-13.963
-13.6714
-13.381
-13.0919
-12.8045
-12.5189
-12.2355
-11.9544
-11.6759
-11.4001
-11.1271
-10.8573
-10.5906
-10.3273
-10.0674
-9.81094
-9.55813
-9.30898
-9.06356
-8.82191
-8.58406
-8.35004
-8.11987
-7.89357
-7.67112
-7.45253
-7.2378
-7.02691
-6.81985
-6.61661
-6.41715
-6.22146
-6.02952
-5.84131
-5.6568
-5.47597
-5.29879
-5.12524
-4.95529
-4.78893
-4.62611
-4.46682
-4.31103
-4.15872
-4.00985
-3.86441
-3.72236
-3.58369
-3.44837
-3.31639
-3.18774
-3.06239
-2.94033
-2.82155
-2.70605
-2.59379
-2.48479
-2.37902
-2.27648
-2.17714
-2.08101
-1.98805
-1.89826
-1.8116
-1.72806
-1.64759
-1.57019
-1.49577
-1.42432
-1.35577
-1.29009
-1.22718
-1.167
-1.10945
-1.05447
-1.00194
-0.951819
-0.903956
-0.858289
-0.814675
-0.773039
-0.733233
-0.695174
-0.658711
-0.623754
-0.590155
-0.557816
-0.526595
-0.496387
-0.467059
-0.438498
-0.410582
-0.383189
-0.356208
-0.329505
-0.302979
-0.276477
-0.249902
-0.223069
-0.195881
-0.16806
-0.139604
-0.109697
-0.0797972
-0.0437843
-0.0207573
0.0588299
-21.5595
-21.5702
-21.5783
-21.5865
-21.5951
-21.6049
-21.6164
-21.6297
-21.6449
-21.6621
-21.6813
-21.7026
-21.7258
-21.7509
-21.7779
-21.8067
-21.8373
-21.8695
-21.9033
-21.9385
-21.975
-22.0127
-22.0514
-22.091
-22.1312
-22.1719
-22.213
-22.2541
-22.2951
-22.3358
-22.3758
-22.415