/*--------------------------------*- C++ -*----------------------------------*\
  =========                 |
  \\      /  F ield         | OpenFOAM: The Open Source CFD Toolbox
   \\    /   O peration     | Website:  https://openfoam.org
    \\  /    A nd           | Version:  7
     \\/     M anipulation  |
\*---------------------------------------------------------------------------*/
FoamFile
{
    version     2.0;
    format      ascii;
    class       surfaceScalarField;
    location    "950";
    object      phi;
}
// * * * * * * * * * * * * * * * * * * * * * * * * * * * * * * * * * * * * * //

dimensions      [0 3 -1 0 0 0 0];

internalField   nonuniform List<scalar> 
33502
(
4.14015e-09
-4.145e-09
-2.94814e-08
3.36134e-08
-8.05277e-08
5.10464e-08
-1.3787e-07
5.73389e-08
-1.97723e-07
5.98498e-08
-2.58817e-07
6.1097e-08
-3.20669e-07
6.18369e-08
-3.83006e-07
6.23386e-08
-4.45727e-07
6.26821e-08
-5.08718e-07
6.29779e-08
-5.72108e-07
6.33304e-08
-6.36144e-07
6.39788e-08
-7.01325e-07
6.51451e-08
-7.68277e-07
6.69136e-08
-8.37278e-07
6.90131e-08
-9.06261e-07
6.90142e-08
-9.80374e-07
7.41842e-08
-1.05173e-06
7.13517e-08
-1.11386e-06
6.2152e-08
-1.17656e-06
6.26899e-08
-1.23884e-06
6.22754e-08
-1.30111e-06
6.22723e-08
-1.36316e-06
6.20416e-08
-1.42482e-06
6.16658e-08
-1.48603e-06
6.12147e-08
-1.54677e-06
6.07335e-08
-1.60701e-06
6.02431e-08
-1.66675e-06
5.97442e-08
-1.72598e-06
5.92324e-08
-1.78468e-06
5.87001e-08
-1.84281e-06
5.81396e-08
-1.90036e-06
5.75429e-08
-1.95726e-06
5.69032e-08
-2.01347e-06
5.6214e-08
-2.06894e-06
5.54697e-08
-2.12361e-06
5.46655e-08
-2.1774e-06
5.3797e-08
-2.23026e-06
5.28605e-08
-2.28211e-06
5.18528e-08
-2.33288e-06
5.0771e-08
-2.3825e-06
4.96127e-08
-2.43087e-06
4.83756e-08
-2.47793e-06
4.70577e-08
-2.52359e-06
4.56573e-08
-2.56776e-06
4.41728e-08
-2.61036e-06
4.26028e-08
-2.65131e-06
4.09465e-08
-2.69051e-06
3.92031e-08
-2.72788e-06
3.73725e-08
-2.76334e-06
3.54552e-08
-2.79679e-06
3.34523e-08
-2.82816e-06
3.13657e-08
-2.85735e-06
2.91981e-08
-2.88431e-06
2.69533e-08
-2.90894e-06
2.4636e-08
-2.93119e-06
2.22521e-08
-2.951e-06
1.98085e-08
-2.96832e-06
1.73129e-08
-2.98309e-06
1.47742e-08
-2.99529e-06
1.22012e-08
-3.0049e-06
9.6035e-09
-3.01189e-06
6.9898e-09
-3.01625e-06
4.36672e-09
-3.01799e-06
1.73993e-09
-3.01711e-06
-8.80622e-10
-3.01365e-06
-3.4587e-09
-3.00768e-06
-5.97558e-09
-2.99923e-06
-8.44517e-09
-2.98836e-06
-1.08712e-08
-2.97511e-06
-1.32544e-08
-2.95952e-06
-1.55938e-08
-2.94163e-06
-1.78881e-08
-2.92149e-06
-2.01356e-08
-2.89916e-06
-2.23344e-08
-2.87468e-06
-2.44828e-08
-2.8481e-06
-2.65788e-08
-2.81948e-06
-2.86207e-08
-2.78887e-06
-3.06065e-08
-2.75634e-06
-3.25345e-08
-2.72194e-06
-3.44024e-08
-2.68573e-06
-3.62085e-08
-2.64778e-06
-3.7951e-08
-2.60815e-06
-3.96286e-08
-2.56691e-06
-4.12404e-08
-2.52413e-06
-4.27856e-08
-2.47986e-06
-4.42637e-08
-2.43419e-06
-4.56739e-08
-2.38717e-06
-4.70153e-08
-2.33889e-06
-4.82872e-08
-2.2894e-06
-4.94895e-08
-2.23877e-06
-5.06229e-08
-2.18708e-06
-5.16883e-08
-2.1344e-06
-5.26866e-08
-2.08078e-06
-5.3618e-08
-2.0263e-06
-5.44825e-08
-1.97101e-06
-5.52809e-08
-1.915e-06
-5.60151e-08
-1.85831e-06
-5.66877e-08
-1.80101e-06
-5.7301e-08
-1.74315e-06
-5.78555e-08
-1.6848e-06
-5.83511e-08
-1.626e-06
-5.87903e-08
-1.56682e-06
-5.91773e-08
-1.50731e-06
-5.95164e-08
-1.4475e-06
-5.98072e-08
-1.38744e-06
-6.00488e-08
-1.3272e-06
-6.02448e-08
-1.26679e-06
-6.04041e-08
-1.20626e-06
-6.05281e-08
-1.14564e-06
-6.06115e-08
-1.08498e-06
-6.06557e-08
-1.0243e-06
-6.06765e-08
-9.63625e-07
-6.06757e-08
-9.02982e-07
-6.06386e-08
-8.42411e-07
-6.05672e-08
-7.8191e-07
-6.04971e-08
-7.2149e-07
-6.04158e-08
-6.61203e-07
-6.02834e-08
-6.01043e-07
-6.01557e-08
-5.40994e-07
-6.00456e-08
-4.81114e-07
-5.98759e-08
-4.21415e-07
-5.96948e-08
-3.61831e-07
-5.95805e-08
-3.02403e-07
-5.94245e-08
-2.43257e-07
-5.91431e-08
-1.843e-07
-5.89539e-08
-1.25452e-07
-5.88473e-08
-6.67668e-08
-5.86853e-08
-8.16762e-09
-5.8601e-08
5.00567e-08
-5.82273e-08
1.07579e-07
-5.75255e-08
1.64459e-07
-5.68837e-08
2.20788e-07
-5.63335e-08
2.76639e-07
-5.58551e-08
3.3206e-07
-5.54248e-08
3.87081e-07
-5.5026e-08
4.41724e-07
-5.46466e-08
4.95998e-07
-5.42786e-08
5.4991e-07
-5.39162e-08
6.03461e-07
-5.35554e-08
6.5665e-07
-5.31931e-08
7.09472e-07
-5.28264e-08
7.61921e-07
-5.24535e-08
8.13989e-07
-5.20719e-08
8.65666e-07
-5.16802e-08
9.16938e-07
-5.12761e-08
9.67793e-07
-5.08584e-08
1.01821e-06
-5.04245e-08
1.06818e-06
-4.99737e-08
1.11768e-06
-4.95032e-08
1.16669e-06
-4.90123e-08
1.21519e-06
-4.84983e-08
1.26315e-06
-4.79608e-08
1.31054e-06
-4.73969e-08
1.35735e-06
-4.68066e-08
1.40353e-06
-4.61869e-08
1.44907e-06
-4.55384e-08
1.49393e-06
-4.48583e-08
1.53808e-06
-4.41474e-08
1.58148e-06
-4.34033e-08
1.62411e-06
-4.26273e-08
1.66592e-06
-4.18173e-08
1.7069e-06
-4.09751e-08
1.747e-06
-4.00991e-08
1.78619e-06
-3.91916e-08
1.82445e-06
-3.82513e-08
1.86173e-06
-3.72811e-08
1.89801e-06
-3.62803e-08
1.93327e-06
-3.52519e-08
1.96747e-06
-3.4196e-08
2.00059e-06
-3.31157e-08
2.0326e-06
-3.20117e-08
2.06349e-06
-3.08873e-08
2.09324e-06
-2.97439e-08
2.12183e-06
-2.85848e-08
2.14924e-06
-2.74118e-08
2.17548e-06
-2.62286e-08
2.20052e-06
-2.50374e-08
2.22436e-06
-2.38422e-08
2.24701e-06
-2.26458e-08
2.26847e-06
-2.14524e-08
2.28874e-06
-2.02658e-08
2.30784e-06
-1.90905e-08
2.32577e-06
-1.79317e-08
2.34257e-06
-1.67945e-08
2.35826e-06
-1.56861e-08
2.37288e-06
-1.4613e-08
2.38647e-06
-1.35851e-08
2.39908e-06
-1.26119e-08
2.41079e-06
-1.17077e-08
2.42168e-06
-1.08874e-08
2.43186e-06
-1.01741e-08
2.44146e-06
-9.59488e-09
2.45066e-06
-9.19315e-09
2.45969e-06
-9.02815e-09
2.46891e-06
-9.20718e-09
2.47882e-06
-9.89732e-09
2.49033e-06
-1.14968e-08
2.50508e-06
-1.47317e-08
-2.20988e-08
-3.03456e-08
2.61985e-08
-6.9819e-08
7.30869e-08
-1.16978e-07
9.82065e-08
-1.69959e-07
1.1032e-07
-2.2646e-07
1.16361e-07
-2.85094e-07
1.19732e-07
-3.4512e-07
1.21878e-07
-4.06191e-07
1.23407e-07
-4.68129e-07
1.24635e-07
-5.30892e-07
1.25732e-07
-5.94436e-07
1.26884e-07
-6.5868e-07
1.28212e-07
-7.23355e-07
1.29806e-07
-7.88047e-07
1.31619e-07
-8.52271e-07
1.33259e-07
-9.16907e-07
1.3366e-07
-9.7654e-07
1.33851e-07
-1.03677e-06
1.31591e-07
-1.10142e-06
1.26804e-07
-1.16319e-06
1.24459e-07
-1.22344e-06
1.22525e-07
-1.2823e-06
1.2113e-07
-1.3402e-06
1.19937e-07
-1.39734e-06
1.18805e-07
-1.45384e-06
1.17718e-07
-1.50977e-06
1.16662e-07
-1.56514e-06
1.1562e-07
-1.61997e-06
1.14577e-07
-1.67425e-06
1.13514e-07
-1.72796e-06
1.12414e-07
-1.78108e-06
1.1126e-07
-1.83358e-06
1.10038e-07
-1.88541e-06
1.08733e-07
-1.93653e-06
1.07333e-07
-1.98688e-06
1.05828e-07
-2.03643e-06
1.04208e-07
-2.08509e-06
1.02465e-07
-2.13283e-06
1.00592e-07
-2.17956e-06
9.85829e-08
-2.22522e-06
9.64321e-08
-2.26974e-06
9.41349e-08
-2.31305e-06
9.16869e-08
-2.35508e-06
8.90841e-08
-2.39574e-06
8.63229e-08
-2.43497e-06
8.34002e-08
-2.47268e-06
8.03131e-08
-2.50879e-06
7.70596e-08
-2.54323e-06
7.3638e-08
-2.5759e-06
7.0048e-08
-2.60674e-06
6.62901e-08
-2.63565e-06
6.23661e-08
-2.66256e-06
5.82794e-08
-2.6874e-06
5.40353e-08
-2.71009e-06
4.96406e-08
-2.73056e-06
4.51046e-08
-2.74874e-06
4.04384e-08
-2.76459e-06
3.56553e-08
-2.77805e-06
3.07705e-08
-2.78907e-06
2.58008e-08
-2.79764e-06
2.07639e-08
-2.80371e-06
1.56782e-08
-2.80728e-06
1.05609e-08
-2.80834e-06
5.42456e-09
-2.80688e-06
2.75613e-10
-2.80293e-06
-4.82703e-09
-2.79656e-06
-9.8251e-09
-2.78781e-06
-1.47257e-08
-2.77672e-06
-1.95391e-08
-2.76332e-06
-2.4269e-08
-2.74766e-06
-2.89155e-08
-2.72978e-06
-3.34767e-08
-2.70972e-06
-3.79497e-08
-2.68752e-06
-4.2331e-08
-2.66324e-06
-4.6617e-08
-2.63692e-06
-5.08041e-08
-2.60861e-06
-5.48888e-08
-2.57836e-06
-5.88674e-08
-2.54623e-06
-6.27366e-08
-2.51228e-06
-6.64925e-08
-2.47655e-06
-7.01312e-08
-2.43911e-06
-7.36489e-08
-2.40002e-06
-7.70421e-08
-2.35934e-06
-8.03085e-08
-2.31713e-06
-8.34461e-08
-2.27346e-06
-8.64536e-08
-2.2284e-06
-8.93301e-08
-2.182e-06
-9.20742e-08
-2.13433e-06
-9.46842e-08
-2.08546e-06
-9.71585e-08
-2.03545e-06
-9.94969e-08
-1.98437e-06
-1.01701e-07
-1.93229e-06
-1.03771e-07
-1.87926e-06
-1.05712e-07
-1.82536e-06
-1.07522e-07
-1.77064e-06
-1.09203e-07
-1.71516e-06
-1.10754e-07
-1.659e-06
-1.12179e-07
-1.6022e-06
-1.13485e-07
-1.54482e-06
-1.14676e-07
-1.48693e-06
-1.15753e-07
-1.42856e-06
-1.16715e-07
-1.36978e-06
-1.17567e-07
-1.31064e-06
-1.18318e-07
-1.25118e-06
-1.18975e-07
-1.19145e-06
-1.1954e-07
-1.13149e-06
-1.20009e-07
-1.07134e-06
-1.20389e-07
-1.01105e-06
-1.20696e-07
-9.50636e-07
-1.20937e-07
-8.90145e-07
-1.211e-07
-8.29613e-07
-1.21186e-07
-7.69062e-07
-1.21225e-07
-7.08513e-07
-1.21223e-07
-6.47995e-07
-1.21154e-07
-5.87541e-07
-1.2102e-07
-5.27156e-07
-1.20879e-07
-4.66851e-07
-1.2072e-07
-4.06657e-07
-1.20475e-07
-3.46587e-07
-1.20224e-07
-2.86634e-07
-1.19996e-07
-2.26815e-07
-1.19693e-07
-1.67154e-07
-1.19354e-07
-1.07663e-07
-1.19069e-07
-4.8305e-08
-1.18781e-07
1.09883e-08
-1.18435e-07
6.99971e-08
-1.17961e-07
1.28569e-07
-1.17418e-07
1.86814e-07
-1.16929e-07
2.44747e-07
-1.16533e-07
3.02366e-07
-1.15846e-07
3.59644e-07
-1.14803e-07
4.16556e-07
-1.13795e-07
4.7308e-07
-1.12857e-07
5.29217e-07
-1.11992e-07
5.84976e-07
-1.11184e-07
6.40364e-07
-1.10414e-07
6.95386e-07
-1.09669e-07
7.50044e-07
-1.08937e-07
8.04337e-07
-1.08209e-07
8.5826e-07
-1.07479e-07
9.11806e-07
-1.06741e-07
9.64969e-07
-1.0599e-07
1.01774e-06
-1.05223e-07
1.0701e-06
-1.04435e-07
1.12204e-06
-1.03623e-07
1.17354e-06
-1.02783e-07
1.2246e-06
-1.01912e-07
1.27518e-06
-1.01008e-07
1.32527e-06
-1.00065e-07
1.37484e-06
-9.90821e-08
1.42389e-06
-9.80549e-08
1.47237e-06
-9.6981e-08
1.52026e-06
-9.5857e-08
1.56754e-06
-9.46806e-08
1.61418e-06
-9.34489e-08
1.66015e-06
-9.216e-08
1.70542e-06
-9.08114e-08
1.74996e-06
-8.94018e-08
1.79374e-06
-8.79295e-08
1.83673e-06
-8.63939e-08
1.8789e-06
-8.47941e-08
1.92021e-06
-8.31302e-08
1.96063e-06
-8.14022e-08
2.00014e-06
-7.96112e-08
2.03871e-06
-7.77581e-08
2.0763e-06
-7.58448e-08
2.11289e-06
-7.38731e-08
2.14845e-06
-7.18459e-08
2.18296e-06
-6.97658e-08
2.2164e-06
-6.76363e-08
2.24874e-06
-6.54611e-08
2.27997e-06
-6.32443e-08
2.31008e-06
-6.09904e-08
2.33903e-06
-5.87041e-08
2.36684e-06
-5.63905e-08
2.39348e-06
-5.40551e-08
2.41895e-06
-5.17037e-08
2.44326e-06
-4.93424e-08
2.46639e-06
-4.69779e-08
2.48836e-06
-4.46171e-08
2.50918e-06
-4.22678e-08
2.52885e-06
-3.99382e-08
2.54739e-06
-3.76375e-08
2.56484e-06
-3.53758e-08
2.58121e-06
-3.31648e-08
2.59654e-06
-3.10175e-08
2.61088e-06
-2.89491e-08
2.62427e-06
-2.69776e-08
2.63678e-06
-2.51245e-08
2.64849e-06
-2.3416e-08
2.65949e-06
-2.1885e-08
2.66989e-06
-2.05737e-08
2.67983e-06
-1.95385e-08
2.6895e-06
-1.88585e-08
2.69913e-06
-1.86489e-08
2.70902e-06
-1.90951e-08
2.71962e-06
-2.04841e-08
2.73153e-06
-2.33989e-08
2.74548e-06
-2.86699e-08
-3.81039e-08
-4.49491e-08
7.11515e-08
-8.93973e-08
1.17536e-07
-1.36179e-07
1.44995e-07
-1.86438e-07
1.60584e-07
-2.39572e-07
1.69501e-07
-2.94741e-07
1.74918e-07
-3.5135e-07
1.78493e-07
-4.08997e-07
1.81077e-07
-4.67454e-07
1.83097e-07
-5.26501e-07
1.84812e-07
-5.85975e-07
1.86356e-07
-6.45581e-07
1.8783e-07
-7.04975e-07
1.8921e-07
-7.63724e-07
1.90378e-07
-8.21428e-07
1.90971e-07
-8.78161e-07
1.90413e-07
-9.33099e-07
1.88802e-07
-9.87564e-07
1.86072e-07
-1.04307e-06
1.82318e-07
-1.0977e-06
1.79095e-07
-1.15155e-06
1.76365e-07
-1.20455e-06
1.74131e-07
-1.25681e-06
1.72191e-07
-1.30843e-06
1.70425e-07
-1.35949e-06
1.68775e-07
-1.41002e-06
1.67196e-07
-1.46005e-06
1.65652e-07
-1.50958e-06
1.6411e-07
-1.5586e-06
1.62541e-07
-1.60711e-06
1.60916e-07
-1.65506e-06
1.59213e-07
-1.70243e-06
1.57408e-07
-1.74918e-06
1.55483e-07
-1.79526e-06
1.5342e-07
-1.84064e-06
1.51203e-07
-1.88525e-06
1.4882e-07
-1.92904e-06
1.4626e-07
-1.97196e-06
1.43512e-07
-2.01395e-06
1.40567e-07
-2.05493e-06
1.37419e-07
-2.09486e-06
1.34059e-07
-2.13365e-06
1.30482e-07
-2.17125e-06
1.26683e-07
-2.20758e-06
1.22654e-07
-2.24258e-06
1.18393e-07
-2.27616e-06
1.13893e-07
-2.30825e-06
1.09153e-07
-2.33878e-06
1.04169e-07
-2.36767e-06
9.89396e-08
-2.39485e-06
9.34656e-08
-2.42023e-06
8.77491e-08
-2.44374e-06
8.17945e-08
-2.46532e-06
7.56087e-08
-2.48488e-06
6.92014e-08
-2.50236e-06
6.25854e-08
-2.5177e-06
5.57768e-08
-2.53084e-06
4.87944e-08
-2.54173e-06
4.16603e-08
-2.55032e-06
3.43989e-08
-2.5566e-06
2.70364e-08
-2.56052e-06
1.95998e-08
-2.56207e-06
1.21137e-08
-2.56125e-06
4.59947e-09
-2.55807e-06
-2.90494e-09
-2.55257e-06
-1.03196e-08
-2.5448e-06
-1.75946e-08
-2.53479e-06
-2.4737e-08
-2.52258e-06
-3.17551e-08
-2.50819e-06
-3.86524e-08
-2.49168e-06
-4.54286e-08
-2.47308e-06
-5.20806e-08
-2.45242e-06
-5.86039e-08
-2.42976e-06
-6.49934e-08
-2.40514e-06
-7.12436e-08
-2.37859e-06
-7.73492e-08
-2.35017e-06
-8.33051e-08
-2.31994e-06
-8.9106e-08
-2.28793e-06
-9.4747e-08
-2.2542e-06
-1.00223e-07
-2.2188e-06
-1.05528e-07
-2.18179e-06
-1.10655e-07
-2.14323e-06
-1.15601e-07
-2.10318e-06
-1.20362e-07
-2.06169e-06
-1.24934e-07
-2.01883e-06
-1.29316e-07
-1.97466e-06
-1.33506e-07
-1.92922e-06
-1.37504e-07
-1.8826e-06
-1.41307e-07
-1.83485e-06
-1.44911e-07
-1.78603e-06
-1.48316e-07
-1.73621e-06
-1.51524e-07
-1.68544e-06
-1.54539e-07
-1.63379e-06
-1.57364e-07
-1.58131e-06
-1.6e-07
-1.52807e-06
-1.62446e-07
-1.47412e-06
-1.64703e-07
-1.41952e-06
-1.66778e-07
-1.36433e-06
-1.68677e-07
-1.30859e-06
-1.7041e-07
-1.25237e-06
-1.71977e-07
-1.1957e-06
-1.73377e-07
-1.13865e-06
-1.74617e-07
-1.08126e-06
-1.75707e-07
-1.02357e-06
-1.76664e-07
-9.65627e-07
-1.77487e-07
-9.07465e-07
-1.7817e-07
-8.49131e-07
-1.78722e-07
-7.90657e-07
-1.7917e-07
-7.32071e-07
-1.79522e-07
-6.73409e-07
-1.79762e-07
-6.14705e-07
-1.79889e-07
-5.55985e-07
-1.79945e-07
-4.97262e-07
-1.79945e-07
-4.38565e-07
-1.79852e-07
-3.79922e-07
-1.79661e-07
-3.21347e-07
-1.79454e-07
-2.62843e-07
-1.79223e-07
-2.04431e-07
-1.78886e-07
-1.46136e-07
-1.78518e-07
-8.79673e-08
-1.78164e-07
-2.98855e-08
-1.77775e-07
2.80772e-08
-1.77316e-07
8.57811e-08
-1.76773e-07
1.43194e-07
-1.76194e-07
2.00357e-07
-1.75597e-07
2.57272e-07
-1.74876e-07
3.1392e-07
-1.74067e-07
3.70276e-07
-1.73284e-07
4.26275e-07
-1.72533e-07
4.81993e-07
-1.71564e-07
5.37516e-07
-1.70326e-07
5.9278e-07
-1.6906e-07
6.47744e-07
-1.67822e-07
7.02382e-07
-1.66631e-07
7.5668e-07
-1.65483e-07
8.10632e-07
-1.64367e-07
8.64232e-07
-1.6327e-07
9.17474e-07
-1.6218e-07
9.70351e-07
-1.61088e-07
1.02286e-06
-1.59985e-07
1.07498e-06
-1.58865e-07
1.12671e-06
-1.57721e-07
1.17803e-06
-1.56547e-07
1.22894e-06
-1.55339e-07
1.2794e-06
-1.54091e-07
1.32942e-06
-1.52798e-07
1.37896e-06
-1.51456e-07
1.42801e-06
-1.50059e-07
1.47655e-06
-1.48603e-07
1.52455e-06
-1.47084e-07
1.57199e-06
-1.45497e-07
1.61885e-06
-1.43838e-07
1.66509e-06
-1.42103e-07
1.7107e-06
-1.40288e-07
1.75564e-06
-1.38391e-07
1.79989e-06
-1.36407e-07
1.84342e-06
-1.34336e-07
1.88619e-06
-1.32174e-07
1.92818e-06
-1.29919e-07
1.96936e-06
-1.27572e-07
2.0097e-06
-1.25132e-07
2.04917e-06
-1.22598e-07
2.08774e-06
-1.19973e-07
2.12538e-06
-1.17256e-07
2.16208e-06
-1.14451e-07
2.1978e-06
-1.11561e-07
2.23252e-06
-1.08589e-07
2.26621e-06
-1.05539e-07
2.29886e-06
-1.02415e-07
2.33045e-06
-9.92238e-08
2.36096e-06
-9.59705e-08
2.39038e-06
-9.26612e-08
2.4187e-06
-8.93033e-08
2.4459e-06
-8.59035e-08
2.47199e-06
-8.24704e-08
2.49694e-06
-7.90116e-08
2.52078e-06
-7.55365e-08
2.5435e-06
-7.20541e-08
2.5651e-06
-6.85748e-08
2.58559e-06
-6.51091e-08
2.60499e-06
-6.16688e-08
2.62333e-06
-5.82664e-08
2.64061e-06
-5.49159e-08
2.65687e-06
-5.1633e-08
2.67214e-06
-4.84348e-08
2.68647e-06
-4.53417e-08
2.6999e-06
-4.23761e-08
2.71249e-06
-3.95658e-08
2.72431e-06
-3.69422e-08
2.73544e-06
-3.45454e-08
2.74598e-06
-3.2423e-08
2.75604e-06
-3.06379e-08
2.76578e-06
-2.92707e-08
2.77536e-06
-2.84342e-08
2.78499e-06
-2.82855e-08
2.79497e-06
-2.9069e-08
2.80562e-06
-3.11311e-08
2.81734e-06
-3.51134e-08
2.83026e-06
-4.15839e-08
-5.15475e-08
-4.96088e-08
1.20767e-07
-9.69017e-08
1.64837e-07
-1.43871e-07
1.91962e-07
-1.92289e-07
2.09009e-07
-2.42474e-07
2.19688e-07
-2.94128e-07
2.26575e-07
-3.46874e-07
2.31244e-07
-4.00386e-07
2.34591e-07
-4.54386e-07
2.37108e-07
-5.08629e-07
2.39055e-07
-5.6284e-07
2.40576e-07
-6.16726e-07
2.41714e-07
-6.69958e-07
2.42444e-07
-7.22227e-07
2.42653e-07
-7.73358e-07
2.42113e-07
-8.23488e-07
2.40552e-07
-8.72739e-07
2.38067e-07
-9.21542e-07
2.34885e-07
-9.70402e-07
2.31185e-07
-1.01889e-06
2.2758e-07
-1.06688e-06
2.24354e-07
-1.11433e-06
2.21573e-07
-1.16124e-06
2.19102e-07
-1.20766e-06
2.16844e-07
-1.25361e-06
2.14731e-07
-1.29912e-06
2.12707e-07
-1.3442e-06
2.10726e-07
-1.38883e-06
2.08742e-07
-1.433e-06
2.06719e-07
-1.47671e-06
2.0462e-07
-1.51991e-06
2.02415e-07
-1.56257e-06
2.00075e-07
-1.60467e-06
1.97577e-07
-1.64614e-06
1.94898e-07
-1.68696e-06
1.9202e-07
-1.72707e-06
1.88927e-07
-1.76641e-06
1.85605e-07
-1.80494e-06
1.8204e-07
-1.8426e-06
1.78223e-07
-1.87932e-06
1.74144e-07
-1.91506e-06
1.69794e-07
-1.94974e-06
1.65165e-07
-1.98331e-06
1.6025e-07
-2.01569e-06
1.55042e-07
-2.04683e-06
1.49534e-07
-2.07666e-06
1.4372e-07
-2.1051e-06
1.37595e-07
-2.13209e-06
1.31156e-07
-2.15755e-06
1.24399e-07
-2.18141e-06
1.17325e-07
-2.2036e-06
1.09936e-07
-2.22404e-06
1.02237e-07
-2.24266e-06
9.4235e-08
-2.25941e-06
8.5943e-08
-2.2742e-06
7.73767e-08
-2.28698e-06
6.85561e-08
-2.29769e-06
5.95058e-08
-2.30628e-06
5.02541e-08
-2.31272e-06
4.08328e-08
-2.31696e-06
3.12766e-08
-2.31898e-06
2.16217e-08
-2.31877e-06
1.19017e-08
-2.31631e-06
2.144e-09
-2.31165e-06
-7.56894e-09
-2.30483e-06
-1.71409e-08
-2.29587e-06
-2.65467e-08
-2.28482e-06
-3.57892e-08
-2.2717e-06
-4.48745e-08
-2.25655e-06
-5.38049e-08
-2.2394e-06
-6.25794e-08
-2.22029e-06
-7.11934e-08
-2.19925e-06
-7.96408e-08
-2.17633e-06
-8.79146e-08
-2.15156e-06
-9.60075e-08
-2.125e-06
-1.03913e-07
-2.09668e-06
-1.11623e-07
-2.06666e-06
-1.19133e-07
-2.03497e-06
-1.26435e-07
-2.00167e-06
-1.33523e-07
-1.96681e-06
-1.40389e-07
-1.93044e-06
-1.47025e-07
-1.89261e-06
-1.53426e-07
-1.85339e-06
-1.59585e-07
-1.81283e-06
-1.65499e-07
-1.77098e-06
-1.71166e-07
-1.7279e-06
-1.76586e-07
-1.68365e-06
-1.81756e-07
-1.63828e-06
-1.86673e-07
-1.59186e-06
-1.91332e-07
-1.54444e-06
-1.95734e-07
-1.49608e-06
-1.99879e-07
-1.44685e-06
-2.03773e-07
-1.39679e-06
-2.07422e-07
-1.34596e-06
-2.10828e-07
-1.29442e-06
-2.13987e-07
-1.24222e-06
-2.16901e-07
-1.18942e-06
-2.19578e-07
-1.13607e-06
-2.22027e-07
-1.08222e-06
-2.24263e-07
-1.02791e-06
-2.26286e-07
-9.73195e-07
-2.28092e-07
-9.18122e-07
-2.29689e-07
-8.62737e-07
-2.31092e-07
-8.07075e-07
-2.32325e-07
-7.51174e-07
-2.33387e-07
-6.95076e-07
-2.34268e-07
-6.38822e-07
-2.34976e-07
-5.82441e-07
-2.3555e-07
-5.25959e-07
-2.36005e-07
-4.69405e-07
-2.36315e-07
-4.12816e-07
-2.36477e-07
-3.56215e-07
-2.36546e-07
-2.99616e-07
-2.36544e-07
-2.43038e-07
-2.36429e-07
-1.86507e-07
-2.36192e-07
-1.30047e-07
-2.35913e-07
-7.36684e-08
-2.35601e-07
-1.73414e-08
-2.35212e-07
3.88772e-08
-2.34736e-07
9.48867e-08
-2.34173e-07
1.50688e-07
-2.33575e-07
2.06292e-07
-2.3292e-07
2.61686e-07
-2.32167e-07
3.16849e-07
-2.31356e-07
3.71759e-07
-2.30508e-07
4.26437e-07
-2.29553e-07
4.80884e-07
-2.28514e-07
5.35062e-07
-2.27462e-07
5.88924e-07
-2.26395e-07
6.42527e-07
-2.25167e-07
6.95943e-07
-2.23742e-07
7.49137e-07
-2.22254e-07
8.02073e-07
-2.20758e-07
8.5472e-07
-2.19278e-07
9.07055e-07
-2.17819e-07
9.59063e-07
-2.16376e-07
1.01073e-06
-2.1494e-07
1.06205e-06
-2.135e-07
1.11301e-06
-2.12047e-07
1.1636e-06
-2.10573e-07
1.2138e-06
-2.09069e-07
1.26361e-06
-2.07528e-07
1.313e-06
-2.05943e-07
1.36197e-06
-2.04308e-07
1.41049e-06
-2.02615e-07
1.45855e-06
-2.00859e-07
1.50613e-06
-1.99034e-07
1.55321e-06
-1.97134e-07
1.59975e-06
-1.95152e-07
1.64575e-06
-1.93084e-07
1.69118e-06
-1.90923e-07
1.736e-06
-1.88666e-07
1.78021e-06
-1.86307e-07
1.82376e-06
-1.83841e-07
1.86663e-06
-1.81266e-07
1.9088e-06
-1.78577e-07
1.95023e-06
-1.75771e-07
1.99091e-06
-1.72847e-07
2.03079e-06
-1.69803e-07
2.06986e-06
-1.66639e-07
2.10808e-06
-1.63354e-07
2.14543e-06
-1.59949e-07
2.18188e-06
-1.56427e-07
2.21741e-06
-1.52789e-07
2.252e-06
-1.49039e-07
2.28562e-06
-1.45182e-07
2.31825e-06
-1.41222e-07
2.34988e-06
-1.37166e-07
2.38048e-06
-1.3302e-07
2.41005e-06
-1.28791e-07
2.43857e-06
-1.24487e-07
2.46602e-06
-1.20117e-07
2.49241e-06
-1.15691e-07
2.51772e-06
-1.11219e-07
2.54196e-06
-1.06711e-07
2.56513e-06
-1.02178e-07
2.58723e-06
-9.7632e-08
2.60826e-06
-9.30864e-08
2.62824e-06
-8.85546e-08
2.64718e-06
-8.40509e-08
2.6651e-06
-7.95911e-08
2.68203e-06
-7.51922e-08
2.69799e-06
-7.08729e-08
2.71301e-06
-6.66541e-08
2.72714e-06
-6.25593e-08
2.74041e-06
-5.86151e-08
2.75289e-06
-5.48521e-08
2.76463e-06
-5.13065e-08
2.77571e-06
-4.80208e-08
2.78621e-06
-4.50466e-08
2.79624e-06
-4.24473e-08
2.80591e-06
-4.03029e-08
2.81536e-06
-3.87168e-08
2.82475e-06
-3.78287e-08
2.8343e-06
-3.78291e-08
2.84423e-06
-3.89981e-08
2.85481e-06
-4.17037e-08
2.86627e-06
-4.6562e-08
2.8785e-06
-5.38109e-08
-6.39085e-08
-5.02824e-08
1.71049e-07
-9.80882e-08
2.12639e-07
-1.44442e-07
2.3832e-07
-1.90946e-07
2.55506e-07
-2.38219e-07
2.66958e-07
-2.86291e-07
2.74642e-07
-3.34971e-07
2.79918e-07
-3.84015e-07
2.83629e-07
-4.33176e-07
2.86261e-07
-4.82208e-07
2.88085e-07
-5.30871e-07
2.89234e-07
-5.78923e-07
2.89759e-07
-6.2614e-07
2.89662e-07
-6.72366e-07
2.88885e-07
-7.17583e-07
2.87336e-07
-7.61965e-07
2.84943e-07
-8.05729e-07
2.81838e-07
-8.49093e-07
2.78258e-07
-8.92298e-07
2.74393e-07
-9.35287e-07
2.70567e-07
-9.77967e-07
2.6703e-07
-1.02026e-06
2.63864e-07
-1.06216e-06
2.60997e-07
-1.10367e-06
2.58353e-07
-1.1448e-06
2.55862e-07
-1.18556e-06
2.53464e-07
-1.22593e-06
2.51104e-07
-1.26592e-06
2.4873e-07
-1.3055e-06
2.46298e-07
-1.34464e-06
2.43767e-07
-1.38333e-06
2.411e-07
-1.42152e-06
2.38264e-07
-1.45917e-06
2.35231e-07
-1.49625e-06
2.31976e-07
-1.5327e-06
2.28477e-07
-1.56849e-06
2.24716e-07
-1.60356e-06
2.20676e-07
-1.63787e-06
2.16343e-07
-1.67135e-06
2.11705e-07
-1.70395e-06
2.0675e-07
-1.73563e-06
2.0147e-07
-1.76632e-06
1.95854e-07
-1.79596e-06
1.89894e-07
-1.8245e-06
1.83581e-07
-1.85187e-06
1.76907e-07
-1.87802e-06
1.69865e-07
-1.90287e-06
1.62447e-07
-1.92636e-06
1.54649e-07
-1.94843e-06
1.46466e-07
-1.969e-06
1.37899e-07
-1.98801e-06
1.28947e-07
-2.00539e-06
1.19616e-07
-2.02107e-06
1.09915e-07
-2.03499e-06
9.9858e-08
-2.04707e-06
8.9463e-08
-2.05727e-06
7.8754e-08
-2.06553e-06
6.77605e-08
-2.07179e-06
5.65171e-08
-2.07602e-06
4.50629e-08
-2.07818e-06
3.34408e-08
-2.07826e-06
2.16959e-08
-2.07623e-06
9.87144e-09
-2.0721e-06
-1.98336e-09
-2.06592e-06
-1.37479e-08
-2.05774e-06
-2.53273e-08
-2.04757e-06
-3.67164e-08
-2.03544e-06
-4.79157e-08
-2.02139e-06
-5.89284e-08
-2.00544e-06
-6.97556e-08
-1.98762e-06
-8.03948e-08
-1.96797e-06
-9.08399e-08
-1.94653e-06
-1.01083e-07
-1.92333e-06
-1.11115e-07
-1.89841e-06
-1.20926e-07
-1.87182e-06
-1.30509e-07
-1.84359e-06
-1.39855e-07
-1.81376e-06
-1.48956e-07
-1.78239e-06
-1.57805e-07
-1.74952e-06
-1.66394e-07
-1.7152e-06
-1.74714e-07
-1.67947e-06
-1.82754e-07
-1.64239e-06
-1.90506e-07
-1.60401e-06
-1.97965e-07
-1.56438e-06
-2.05125e-07
-1.52356e-06
-2.11985e-07
-1.4816e-06
-2.18544e-07
-1.43856e-06
-2.24801e-07
-1.39448e-06
-2.3075e-07
-1.34943e-06
-2.36387e-07
-1.30345e-06
-2.41709e-07
-1.25661e-06
-2.46719e-07
-1.20896e-06
-2.51423e-07
-1.16055e-06
-2.55832e-07
-1.11143e-06
-2.59946e-07
-1.06166e-06
-2.63762e-07
-1.01128e-06
-2.67279e-07
-9.60352e-07
-2.70506e-07
-9.08921e-07
-2.73457e-07
-8.57032e-07
-2.76152e-07
-8.04726e-07
-2.78592e-07
-7.5205e-07
-2.80767e-07
-6.99052e-07
-2.82687e-07
-6.45773e-07
-2.84371e-07
-5.92247e-07
-2.85851e-07
-5.38505e-07
-2.87129e-07
-4.84588e-07
-2.88185e-07
-4.30533e-07
-2.8903e-07
-3.76371e-07
-2.89712e-07
-3.22123e-07
-2.90253e-07
-2.67815e-07
-2.90622e-07
-2.13476e-07
-2.90817e-07
-1.59134e-07
-2.90887e-07
-1.04814e-07
-2.90864e-07
-5.05205e-08
-2.90722e-07
3.76556e-09
-2.90478e-07
5.79592e-08
-2.90107e-07
1.11986e-07
-2.89628e-07
1.65871e-07
-2.89098e-07
2.19609e-07
-2.88474e-07
2.73181e-07
-2.87745e-07
3.26563e-07
-2.86958e-07
3.79745e-07
-2.86102e-07
4.32728e-07
-2.85151e-07
4.85499e-07
-2.84126e-07
5.38035e-07
-2.83045e-07
5.90349e-07
-2.81868e-07
6.42443e-07
-2.80607e-07
6.94287e-07
-2.79307e-07
7.45854e-07
-2.77962e-07
7.97177e-07
-2.7649e-07
8.483e-07
-2.74866e-07
8.99208e-07
-2.73163e-07
9.49875e-07
-2.71425e-07
1.00027e-06
-2.69677e-07
1.05038e-06
-2.67926e-07
1.10018e-06
-2.66172e-07
1.14965e-06
-2.64409e-07
1.19877e-06
-2.62629e-07
1.24755e-06
-2.60822e-07
1.29596e-06
-2.5898e-07
1.34398e-06
-2.57095e-07
1.39161e-06
-2.55158e-07
1.43883e-06
-2.5316e-07
1.48561e-06
-2.51095e-07
1.53195e-06
-2.48955e-07
1.57783e-06
-2.46732e-07
1.62321e-06
-2.44419e-07
1.66809e-06
-2.4201e-07
1.71243e-06
-2.39497e-07
1.75622e-06
-2.36875e-07
1.79944e-06
-2.34136e-07
1.84204e-06
-2.31274e-07
1.88402e-06
-2.28286e-07
1.92535e-06
-2.25165e-07
1.96599e-06
-2.21907e-07
2.00592e-06
-2.18509e-07
2.04512e-06
-2.14969e-07
2.08356e-06
-2.11283e-07
2.12121e-06
-2.07451e-07
2.15804e-06
-2.03473e-07
2.19404e-06
-1.99349e-07
2.22917e-06
-1.95081e-07
2.26342e-06
-1.90672e-07
2.29676e-06
-1.86126e-07
2.32916e-06
-1.81447e-07
2.36063e-06
-1.76642e-07
2.39112e-06
-1.71717e-07
2.42064e-06
-1.66679e-07
2.44916e-06
-1.61539e-07
2.47667e-06
-1.56304e-07
2.50317e-06
-1.50987e-07
2.52866e-06
-1.45596e-07
2.55311e-06
-1.40146e-07
2.57654e-06
-1.34648e-07
2.59895e-06
-1.29116e-07
2.62034e-06
-1.23564e-07
2.64072e-06
-1.18007e-07
2.66009e-06
-1.12462e-07
2.67849e-06
-1.06945e-07
2.69591e-06
-1.01475e-07
2.71239e-06
-9.60716e-08
2.72796e-06
-9.0756e-08
2.74264e-06
-8.55518e-08
2.75647e-06
-8.04853e-08
2.7695e-06
-7.55856e-08
2.78177e-06
-7.08862e-08
2.79335e-06
-6.6425e-08
2.80429e-06
-6.22469e-08
2.81467e-06
-5.84042e-08
2.82459e-06
-5.49603e-08
2.83413e-06
-5.19917e-08
2.84342e-06
-4.95954e-08
2.8526e-06
-4.78931e-08
2.86182e-06
-4.70473e-08
2.87126e-06
-4.7271e-08
2.88113e-06
-4.88661e-08
2.89162e-06
-5.21925e-08
2.90287e-06
-5.78089e-08
2.9147e-06
-6.56338e-08
-7.57833e-08
-4.89726e-08
2.20021e-07
-9.56877e-08
2.59354e-07
-1.40539e-07
2.83163e-07
-1.84742e-07
2.99705e-07
-2.28956e-07
3.11165e-07
-2.73359e-07
3.19036e-07
-3.17885e-07
3.24434e-07
-3.62372e-07
3.28104e-07
-4.06627e-07
3.30507e-07
-4.50457e-07
3.31908e-07
-4.93688e-07
3.32455e-07
-5.36159e-07
3.32231e-07
-5.77763e-07
3.31265e-07
-6.18455e-07
3.29579e-07
-6.58292e-07
3.27177e-07
-6.97447e-07
3.241e-07
-7.36101e-07
3.20497e-07
-7.74412e-07
3.16572e-07
-8.12523e-07
3.12506e-07
-8.50463e-07
3.08506e-07
-8.88188e-07
3.04751e-07
-9.25638e-07
3.01309e-07
-9.62787e-07
2.98143e-07
-9.99627e-07
2.95193e-07
-1.03615e-06
2.9239e-07
-1.07236e-06
2.89672e-07
-1.10823e-06
2.86978e-07
-1.14376e-06
2.84254e-07
-1.17891e-06
2.81448e-07
-1.21365e-06
2.78515e-07
-1.24797e-06
2.75414e-07
-1.28181e-06
2.72108e-07
-1.31515e-06
2.68567e-07
-1.34793e-06
2.64762e-07
-1.38013e-06
2.6067e-07
-1.41168e-06
2.5627e-07
-1.44255e-06
2.51545e-07
-1.47268e-06
2.46479e-07
-1.50204e-06
2.41058e-07
-1.53056e-06
2.35272e-07
-1.5582e-06
2.29108e-07
-1.5849e-06
2.22558e-07
-1.61062e-06
2.15611e-07
-1.63529e-06
2.08257e-07
-1.65887e-06
2.00486e-07
-1.6813e-06
1.92291e-07
-1.70251e-06
1.83661e-07
-1.72245e-06
1.74591e-07
-1.74106e-06
1.65074e-07
-1.75827e-06
1.55108e-07
-1.77402e-06
1.44695e-07
-1.78824e-06
1.33839e-07
-1.80088e-06
1.22549e-07
-1.81186e-06
1.1084e-07
-1.82113e-06
9.87318e-08
-1.82863e-06
8.62529e-08
-1.8343e-06
7.34369e-08
-1.83811e-06
6.03244e-08
-1.84001e-06
4.69619e-08
-1.83997e-06
3.34007e-08
-1.83797e-06
1.96934e-08
-1.83399e-06
5.89073e-09
-1.82807e-06
-7.90234e-09
-1.82027e-06
-2.15464e-08
-1.81061e-06
-3.49825e-08
-1.79912e-06
-4.82053e-08
-1.78583e-06
-6.12143e-08
-1.77074e-06
-7.40108e-08
-1.75391e-06
-8.65942e-08
-1.73534e-06
-9.89606e-08
-1.71508e-06
-1.11102e-07
-1.69315e-06
-1.23008e-07
-1.6696e-06
-1.34667e-07
-1.64446e-06
-1.46069e-07
-1.61776e-06
-1.57203e-07
-1.58956e-06
-1.6806e-07
-1.55988e-06
-1.78632e-07
-1.52878e-06
-1.88909e-07
-1.49629e-06
-1.98883e-07
-1.46246e-06
-2.08544e-07
-1.42734e-06
-2.17878e-07
-1.39097e-06
-2.26876e-07
-1.3534e-06
-2.3553e-07
-1.31469e-06
-2.43836e-07
-1.27489e-06
-2.5179e-07
-1.23404e-06
-2.59394e-07
-1.19219e-06
-2.66648e-07
-1.1494e-06
-2.73543e-07
-1.10571e-06
-2.80073e-07
-1.06118e-06
-2.86236e-07
-1.01587e-06
-2.92034e-07
-9.69815e-07
-2.97475e-07
-9.23073e-07
-3.02573e-07
-8.75688e-07
-3.07332e-07
-8.27708e-07
-3.11741e-07
-7.79184e-07
-3.15803e-07
-7.30164e-07
-3.19526e-07
-6.80695e-07
-3.22926e-07
-6.30815e-07
-3.26031e-07
-5.80564e-07
-3.28843e-07
-5.29985e-07
-3.31346e-07
-4.7912e-07
-3.33552e-07
-4.2801e-07
-3.3548e-07
-3.76686e-07
-3.37175e-07
-3.25178e-07
-3.38636e-07
-2.7352e-07
-3.39843e-07
-2.21742e-07
-3.40808e-07
-1.69879e-07
-3.41575e-07
-1.17959e-07
-3.42171e-07
-6.60011e-08
-3.4258e-07
-1.39967e-08
-3.4282e-07
3.80025e-08
-3.42886e-07
8.99215e-08
-3.42782e-07
1.41755e-07
-3.42556e-07
1.93502e-07
-3.42224e-07
2.45145e-07
-3.41749e-07
2.96661e-07
-3.41144e-07
3.48029e-07
-3.40465e-07
3.99239e-07
-3.39685e-07
4.50289e-07
-3.38794e-07
5.01157e-07
-3.37825e-07
5.5183e-07
-3.36776e-07
6.02309e-07
-3.3563e-07
6.52584e-07
-3.34401e-07
7.0264e-07
-3.331e-07
7.52479e-07
-3.31707e-07
8.02103e-07
-3.30231e-07
8.51492e-07
-3.28696e-07
9.00628e-07
-3.27099e-07
9.49529e-07
-3.25391e-07
9.98221e-07
-3.23558e-07
1.0467e-06
-3.2164e-07
1.09494e-06
-3.19667e-07
1.14292e-06
-3.17662e-07
1.19063e-06
-3.15633e-07
1.23804e-06
-3.13581e-07
1.28513e-06
-3.11503e-07
1.3319e-06
-3.09392e-07
1.37831e-06
-3.0724e-07
1.42437e-06
-3.05037e-07
1.47005e-06
-3.02776e-07
1.51534e-06
-3.00446e-07
1.56021e-06
-2.98039e-07
1.60467e-06
-2.95548e-07
1.64867e-06
-2.92962e-07
1.69221e-06
-2.90274e-07
1.73527e-06
-2.87475e-07
1.77781e-06
-2.84558e-07
1.81983e-06
-2.81515e-07
1.86129e-06
-2.78339e-07
1.90218e-06
-2.75022e-07
1.94246e-06
-2.71559e-07
1.98212e-06
-2.67943e-07
2.02112e-06
-2.6417e-07
2.05945e-06
-2.60234e-07
2.09707e-06
-2.56133e-07
2.13396e-06
-2.51863e-07
2.1701e-06
-2.47423e-07
2.20546e-06
-2.42813e-07
2.24002e-06
-2.38032e-07
2.27375e-06
-2.33082e-07
2.30664e-06
-2.27967e-07
2.33866e-06
-2.2269e-07
2.36979e-06
-2.17255e-07
2.40001e-06
-2.11671e-07
2.42931e-06
-2.05944e-07
2.45767e-06
-2.00082e-07
2.48509e-06
-1.94096e-07
2.51155e-06
-1.87997e-07
2.53704e-06
-1.81795e-07
2.56156e-06
-1.75505e-07