/*--------------------------------*- C++ -*----------------------------------*\
  =========                 |
  \\      /  F ield         | OpenFOAM: The Open Source CFD Toolbox
   \\    /   O peration     | Website:  https://openfoam.org
    \\  /    A nd           | Version:  7
     \\/     M anipulation  |
\*---------------------------------------------------------------------------*/
FoamFile
{
    version     2.0;
    format      ascii;
    class       volVectorField;
    location    "950";
    object      U;
}
// * * * * * * * * * * * * * * * * * * * * * * * * * * * * * * * * * * * * * //

dimensions      [0 1 -1 0 0 0 0];

internalField   nonuniform List<vector> 
16900
(
(0.00679292 -0.00816635 0)
(-0.00672555 0.0195577 0)
(-0.0465212 0.0326815 0)
(-0.0943708 0.0363005 0)
(-0.145446 0.0371669 0)
(-0.198016 0.037415 0)
(-0.251399 0.0375768 0)
(-0.305284 0.0378049 0)
(-0.359496 0.0382079 0)
(-0.413914 0.0389634 0)
(-0.468478 0.0403658 0)
(-0.523275 0.0428364 0)
(-0.578772 0.0468329 0)
(-0.635923 0.0525879 0)
(-0.695138 0.059202 0)
(-0.755179 0.0616564 0)
(-0.814001 0.0732759 0)
(-0.877462 0.0578585 0)
(-0.94161 0.0284107 0)
(-0.996123 0.0301403 0)
(-1.04847 0.0314435 0)
(-1.1013 0.032229 0)
(-1.15498 0.0322687 0)
(-1.20852 0.0320305 0)
(-1.26175 0.0316908 0)
(-1.31459 0.0313189 0)
(-1.36701 0.0309395 0)
(-1.41901 0.0305585 0)
(-1.47058 0.0301749 0)
(-1.52169 0.0297855 0)
(-1.57234 0.0293861 0)
(-1.62248 0.0289728 0)
(-1.67209 0.028542 0)
(-1.72113 0.0280904 0)
(-1.76954 0.0276152 0)
(-1.81729 0.0271141 0)
(-1.86431 0.026585 0)
(-1.91055 0.0260262 0)
(-1.95595 0.0254362 0)
(-2.00044 0.0248139 0)
(-2.04397 0.024158 0)
(-2.08645 0.0234678 0)
(-2.12783 0.0227425 0)
(-2.16803 0.0219813 0)
(-2.20698 0.0211838 0)
(-2.2446 0.0203496 0)
(-2.28083 0.0194783 0)
(-2.31559 0.0185701 0)
(-2.34879 0.017625 0)
(-2.38037 0.0166435 0)
(-2.41025 0.0156264 0)
(-2.43836 0.0145749 0)
(-2.46462 0.0134904 0)
(-2.48897 0.0123749 0)
(-2.51134 0.0112309 0)
(-2.53167 0.0100611 0)
(-2.54991 0.00886875 0)
(-2.56601 0.00765753 0)
(-2.57992 0.00643124 0)
(-2.59161 0.00519383 0)
(-2.60106 0.00394928 0)
(-2.60825 0.00270127 0)
(-2.61317 0.00145221 0)
(-2.61582 0.000203275 0)
(-2.61618 -0.00103606 0)
(-2.61427 -0.00224681 0)
(-2.61017 -0.00342566 0)
(-2.60391 -0.00458128 0)
(-2.59553 -0.00571545 0)
(-2.58506 -0.00682852 0)
(-2.57254 -0.00792031 0)
(-2.55802 -0.00899035 0)
(-2.54153 -0.0100381 0)
(-2.52311 -0.0110628 0)
(-2.5028 -0.012064 0)
(-2.48066 -0.013041 0)
(-2.45672 -0.0139931 0)
(-2.43103 -0.0149197 0)
(-2.40365 -0.0158201 0)
(-2.37463 -0.0166935 0)
(-2.34401 -0.0175395 0)
(-2.31185 -0.0183574 0)
(-2.27821 -0.0191469 0)
(-2.24315 -0.0199077 0)
(-2.20672 -0.0206398 0)
(-2.16898 -0.0213431 0)
(-2.12998 -0.0220172 0)
(-2.0898 -0.0226622 0)
(-2.04848 -0.0232779 0)
(-2.00609 -0.0238645 0)
(-1.96268 -0.0244225 0)
(-1.91833 -0.0249526 0)
(-1.87308 -0.0254552 0)
(-1.827 -0.0259306 0)
(-1.78013 -0.026379 0)
(-1.73255 -0.0268012 0)
(-1.68431 -0.0271982 0)
(-1.63545 -0.0275714 0)
(-1.58604 -0.0279218 0)
(-1.53613 -0.0282499 0)
(-1.48575 -0.0285559 0)
(-1.43498 -0.0288416 0)
(-1.38385 -0.029109 0)
(-1.3324 -0.02936 0)
(-1.28068 -0.0295946 0)
(-1.22873 -0.0298128 0)
(-1.1766 -0.0300173 0)
(-1.12431 -0.0302121 0)
(-1.07189 -0.0303976 0)
(-1.01939 -0.0305719 0)
(-0.966837 -0.0307372 0)
(-0.914254 -0.030901 0)
(-0.86166 -0.0310634 0)
(-0.809082 -0.0312182 0)
(-0.756558 -0.0313691 0)
(-0.704093 -0.0315336 0)
(-0.651688 -0.031703 0)
(-0.599381 -0.0318606 0)
(-0.54719 -0.032039 0)
(-0.495093 -0.0322408 0)
(-0.443124 -0.0324256 0)
(-0.391307 -0.0326303 0)
(-0.339607 -0.0328954 0)
(-0.288041 -0.033158 0)
(-0.236687 -0.0333986 0)
(-0.185404 -0.0337125 0)
(-0.134392 -0.0340947 0)
(-0.0834356 -0.0344994 0)
(-0.0331321 -0.0349496 0)
(0.0184747 -0.0346818 0)
(0.0682348 -0.0336314 0)
(0.117792 -0.0325982 0)
(0.166888 -0.0316705 0)
(0.215532 -0.0308319 0)
(0.263783 -0.0300628 0)
(0.311676 -0.029349 0)
(0.359231 -0.0286801 0)
(0.406462 -0.0280485 0)
(0.453378 -0.0274484 0)
(0.499979 -0.0268753 0)
(0.546267 -0.0263257 0)
(0.592239 -0.0257965 0)
(0.63789 -0.0252852 0)
(0.683213 -0.0247896 0)
(0.728201 -0.0243077 0)
(0.772843 -0.0238375 0)
(0.817129 -0.0233776 0)
(0.861045 -0.0229261 0)
(0.904576 -0.022482 0)
(0.947708 -0.0220434 0)
(0.990422 -0.0216095 0)
(1.0327 -0.0211787 0)
(1.07452 -0.0207504 0)
(1.11586 -0.0203229 0)
(1.1567 -0.0198959 0)
(1.19702 -0.019468 0)
(1.23678 -0.0190389 0)
(1.27597 -0.0186075 0)
(1.31455 -0.0181736 0)
(1.3525 -0.0177362 0)
(1.3898 -0.0172955 0)
(1.4264 -0.0168507 0)
(1.46228 -0.0164021 0)
(1.49742 -0.0159491 0)
(1.53178 -0.0154922 0)
(1.56534 -0.015031 0)
(1.59808 -0.0145662 0)
(1.62995 -0.0140977 0)
(1.66095 -0.0136262 0)
(1.69104 -0.0131517 0)
(1.7202 -0.0126752 0)
(1.74842 -0.0121968 0)
(1.77567 -0.0117174 0)
(1.80193 -0.0112376 0)
(1.8272 -0.0107582 0)
(1.85145 -0.0102797 0)
(1.87468 -0.00980314 0)
(1.89688 -0.00932925 0)
(1.91805 -0.00885896 0)
(1.93818 -0.00839319 0)
(1.95727 -0.00793291 0)
(1.97533 -0.00747926 0)
(1.99237 -0.00703332 0)
(2.00839 -0.00659651 0)
(2.02342 -0.00617012 0)
(2.03748 -0.00575603 0)
(2.05058 -0.00535592 0)
(2.06278 -0.00497241 0)
(2.0741 -0.00460794 0)
(2.08461 -0.00426636 0)
(2.09437 -0.00395167 0)
(2.10346 -0.00367015 0)
(2.11199 -0.00342926 0)
(2.12008 -0.00324113 0)
(2.12792 -0.00312261 0)
(2.13575 -0.00310483 0)
(2.14391 -0.00323735 0)
(2.15308 -0.00364209 0)
(2.16352 -0.00455702 0)
(2.18467 -0.00700667 0)
(-0.018881 0.0086153 0)
(-0.0424236 0.0498864 0)
(-0.0811514 0.0708697 0)
(-0.126578 0.0797032 0)
(-0.175571 0.0834426 0)
(-0.226866 0.0852027 0)
(-0.279633 0.0861345 0)
(-0.333404 0.0866738 0)
(-0.387951 0.0870021 0)
(-0.443181 0.0872052 0)
(-0.499078 0.0873303 0)
(-0.555674 0.0873655 0)
(-0.612966 0.0872082 0)
(-0.670536 0.0867212 0)
(-0.727376 0.0860228 0)
(-0.784543 0.0851442 0)
(-0.841264 0.0840782 0)
(-0.896571 0.0827296 0)
(-0.950597 0.0812659 0)
(-1.00469 0.0823508 0)
(-1.05898 0.0830212 0)
(-1.11233 0.0828299 0)
(-1.16429 0.0822391 0)
(-1.21534 0.0814349 0)
(-1.26577 0.0805509 0)
(-1.31567 0.0796434 0)
(-1.36507 0.0787304 0)
(-1.41399 0.0778121 0)
(-1.46243 0.0768817 0)
(-1.51037 0.0759295 0)
(-1.5578 0.0749455 0)
(-1.60469 0.0739204 0)
(-1.651 0.0728455 0)
(-1.69671 0.0717135 0)
(-1.74177 0.0705178 0)
(-1.78612 0.069253 0)
(-1.82973 0.0679144 0)
(-1.87253 0.0664983 0)
(-1.91448 0.0650012 0)
(-1.9555 0.0634206 0)
(-1.99555 0.0617541 0)
(-2.03455 0.0599999 0)
(-2.07245 0.0581563 0)
(-2.10917 0.056222 0)
(-2.14465 0.0541959 0)
(-2.17882 0.0520775 0)
(-2.2116 0.0498662 0)
(-2.24293 0.0475623 0)
(-2.27274 0.0451665 0)
(-2.30095 0.0426802 0)
(-2.32748 0.0401056 0)
(-2.35228 0.0374458 0)
(-2.37527 0.0347051 0)
(-2.39637 0.0318887 0)
(-2.41554 0.0290031 0)
(-2.43271 0.026056 0)
(-2.44783 0.0230563 0)
(-2.46084 0.0200139 0)
(-2.47172 0.0169394 0)
(-2.48041 0.0138441 0)
(-2.48691 0.0107392 0)
(-2.49119 0.00763496 0)
(-2.49325 0.00453757 0)
(-2.49307 0.00144988 0)
(-2.49063 -0.0016011 0)
(-2.48605 -0.00457457 0)
(-2.47933 -0.00746557 0)
(-2.47051 -0.0102853 0)
(-2.45963 -0.0130376 0)
(-2.44672 -0.0157234 0)
(-2.43182 -0.0183424 0)
(-2.41496 -0.0208936 0)
(-2.39619 -0.0233757 0)
(-2.37555 -0.0257871 0)
(-2.35307 -0.0281265 0)
(-2.32881 -0.0303926 0)
(-2.3028 -0.0325839 0)
(-2.2751 -0.0346991 0)
(-2.24575 -0.0367369 0)
(-2.2148 -0.0386957 0)
(-2.18231 -0.040574 0)
(-2.14832 -0.0423709 0)
(-2.1129 -0.0440856 0)
(-2.07609 -0.0457179 0)
(-2.03796 -0.0472679 0)
(-1.99856 -0.0487356 0)
(-1.95794 -0.0501212 0)
(-1.91617 -0.0514243 0)
(-1.8733 -0.052645 0)
(-1.8294 -0.0537841 0)
(-1.78451 -0.0548429 0)
(-1.73871 -0.0558232 0)
(-1.69204 -0.056727 0)
(-1.64456 -0.0575551 0)
(-1.59633 -0.0583082 0)
(-1.54741 -0.0589878 0)
(-1.49784 -0.0595967 0)
(-1.44769 -0.0601383 0)
(-1.397 -0.0606158 0)
(-1.34582 -0.0610303 0)
(-1.2942 -0.0613824 0)
(-1.2422 -0.0616752 0)
(-1.18985 -0.0619136 0)
(-1.1372 -0.0621028 0)
(-1.08428 -0.0622431 0)
(-1.03114 -0.0623338 0)
(-0.977825 -0.0623793 0)
(-0.92436 -0.0623887 0)
(-0.870777 -0.0623646 0)
(-0.817105 -0.0623019 0)
(-0.763382 -0.0622029 0)
(-0.709635 -0.0620826 0)
(-0.655878 -0.0619444 0)
(-0.602133 -0.0617743 0)
(-0.548436 -0.0615749 0)
(-0.494798 -0.0613792 0)
(-0.441222 -0.0611779 0)
(-0.387735 -0.0609348 0)
(-0.334349 -0.0606995 0)
(-0.281072 -0.0604861 0)
(-0.227917 -0.0602351 0)
(-0.174868 -0.0599762 0)
(-0.121962 -0.0597627 0)
(-0.0692476 -0.0595457 0)
(-0.0166357 -0.059289 0)
(0.0360955 -0.0589984 0)
(0.088176 -0.0587011 0)
(0.140049 -0.0584253 0)
(0.191554 -0.0582352 0)
(0.242965 -0.0577126 0)
(0.293915 -0.0567928 0)
(0.344616 -0.0559028 0)
(0.394977 -0.055072 0)
(0.44499 -0.0543045 0)
(0.494663 -0.0535885 0)
(0.544005 -0.0529111 0)
(0.59302 -0.052262 0)
(0.641712 -0.0516337 0)
(0.690082 -0.0510204 0)
(0.738125 -0.0504179 0)
(0.785838 -0.0498226 0)
(0.833215 -0.0492319 0)
(0.880246 -0.0486432 0)
(0.926922 -0.0480544 0)
(0.973231 -0.0474634 0)
(1.01916 -0.0468685 0)
(1.0647 -0.0462679 0)
(1.10982 -0.0456598 0)
(1.15452 -0.0450426 0)
(1.19877 -0.0444147 0)
(1.24256 -0.0437747 0)
(1.28586 -0.0431211 0)
(1.32865 -0.0424527 0)
(1.37091 -0.0417679 0)
(1.41261 -0.041066 0)
(1.45373 -0.0403457 0)
(1.49424 -0.0396063 0)
(1.53411 -0.0388469 0)
(1.57333 -0.0380673 0)
(1.61185 -0.0372667 0)
(1.64965 -0.0364454 0)
(1.68671 -0.035603 0)
(1.723 -0.03474 0)
(1.75849 -0.0338566 0)
(1.79314 -0.0329536 0)
(1.82695 -0.0320316 0)
(1.85988 -0.0310918 0)
(1.89191 -0.0301351 0)
(1.92301 -0.0291631 0)
(1.95317 -0.0281771 0)
(1.98237 -0.0271788 0)
(2.01058 -0.0261698 0)
(2.0378 -0.0251522 0)
(2.06401 -0.0241277 0)
(2.0892 -0.0230987 0)
(2.11336 -0.0220672 0)
(2.13648 -0.0210356 0)
(2.15857 -0.0200063 0)
(2.17961 -0.0189818 0)
(2.19962 -0.0179649 0)
(2.2186 -0.0169583 0)
(2.23655 -0.0159653 0)
(2.2535 -0.0149891 0)
(2.26946 -0.0140335 0)
(2.28445 -0.0131025 0)
(2.2985 -0.0122011 0)
(2.31165 -0.0113344 0)
(2.32393 -0.0105091 0)
(2.33541 -0.00973263 0)
(2.34613 -0.00901457 0)
(2.35618 -0.00836647 0)
(2.36564 -0.00780389 0)
(2.37463 -0.00734706 0)
(2.38329 -0.00702555 0)
(2.39179 -0.0068823 0)
(2.40038 -0.00698979 0)
(2.40936 -0.00746332 0)
(2.4193 -0.00855364 0)
(2.43006 -0.0107138 0)
(2.4481 -0.0148514 0)
(-0.0306093 0.0463729 0)
(-0.0609156 0.0902965 0)
(-0.101174 0.115524 0)
(-0.145931 0.128739 0)
(-0.193213 0.135641 0)
(-0.242591 0.139487 0)
(-0.293483 0.141842 0)
(-0.345442 0.143444 0)
(-0.398189 0.144662 0)
(-0.451544 0.145705 0)
(-0.505367 0.146718 0)
(-0.559513 0.147802 0)
(-0.613759 0.148993 0)
(-0.66765 0.15021 0)
(-0.720602 0.151003 0)
(-0.772873 0.150259 0)
(-0.824441 0.148382 0)
(-0.874696 0.145835 0)
(-0.923924 0.142072 0)
(-0.973059 0.138272 0)
(-1.02234 0.135067 0)
(-1.07115 0.132805 0)
(-1.1191 0.130926 0)
(-1.16636 0.129195 0)
(-1.21304 0.127544 0)
(-1.25923 0.125941 0)
(-1.30495 0.124365 0)
(-1.35021 0.122796 0)
(-1.39502 0.121215 0)
(-1.43937 0.119603 0)
(-1.48322 0.117942 0)
(-1.52657 0.116218 0)
(-1.56936 0.114416 0)
(-1.61158 0.112526 0)
(-1.65317 0.110536 0)
(-1.69409 0.108438 0)
(-1.7343 0.106226 0)
(-1.77373 0.103892 0)
(-1.81234 0.101433 0)
(-1.85008 0.0988432 0)
(-1.88688 0.0961201 0)
(-1.92268 0.0932605 0)
(-1.95742 0.0902617 0)
(-1.99105 0.0871217 0)
(-2.02349 0.0838386 0)
(-2.05468 0.0804112 0)
(-2.08455 0.0768389 0)
(-2.11304 0.0731217 0)
(-2.14007 0.0692606 0)
(-2.16557 0.0652577 0)
(-2.18948 0.0611163 0)
(-2.21173 0.0568413 0)
(-2.23224 0.0524392 0)
(-2.25096 0.0479183 0)
(-2.26781 0.0432888 0)
(-2.28274 0.038563 0)
(-2.2957 0.0337548 0)
(-2.30663 0.0288801 0)
(-2.31549 0.0239558 0)
(-2.32226 0.019 0)
(-2.3269 0.0140307 0)
(-2.32939 0.00906453 0)
(-2.32972 0.00411351 0)
(-2.32788 -0.000806027 0)
(-2.32392 -0.0056379 0)
(-2.31788 -0.0103408 0)
(-2.30979 -0.0149226 0)
(-2.29968 -0.0193912 0)
(-2.28757 -0.0237506 0)
(-2.27352 -0.0280015 0)
(-2.25754 -0.0321432 0)
(-2.23968 -0.0361739 0)
(-2.21998 -0.0400913 0)
(-2.19846 -0.0438931 0)
(-2.17519 -0.0475772 0)
(-2.15019 -0.0511412 0)
(-2.12351 -0.0545831 0)
(-2.0952 -0.0579008 0)
(-2.0653 -0.0610923 0)
(-2.03386 -0.064155 0)
(-2.00093 -0.0670868 0)
(-1.96656 -0.0698859 0)
(-1.9308 -0.0725513 0)
(-1.89372 -0.0750826 0)
(-1.85536 -0.0774801 0)
(-1.81577 -0.0797441 0)
(-1.77502 -0.081875 0)
(-1.73316 -0.0838724 0)
(-1.69024 -0.0857363 0)
(-1.64632 -0.0874678 0)
(-1.60146 -0.0890692 0)
(-1.55572 -0.0905435 0)
(-1.50914 -0.0918941 0)
(-1.46179 -0.0931228 0)
(-1.41371 -0.0942303 0)
(-1.36497 -0.0952189 0)
(-1.31561 -0.0960929 0)
(-1.26568 -0.096858 0)
(-1.21524 -0.0975199 0)
(-1.16433 -0.0980803 0)
(-1.113 -0.0985398 0)
(-1.0613 -0.0989028 0)
(-1.00926 -0.0991773 0)
(-0.956937 -0.0993721 0)
(-0.904358 -0.0994881 0)
(-0.851564 -0.0995232 0)
(-0.798595 -0.0994835 0)
(-0.745487 -0.099384 0)
(-0.692264 -0.09923 0)
(-0.638954 -0.0990127 0)
(-0.585592 -0.0987336 0)
(-0.532206 -0.0984167 0)
(-0.478811 -0.0980692 0)
(-0.425423 -0.0976699 0)
(-0.372078 -0.0972186 0)
(-0.318783 -0.0967642 0)
(-0.265556 -0.0962994 0)
(-0.21241 -0.0957733 0)
(-0.159332 -0.0952391 0)
(-0.106386 -0.094722 0)
(-0.053576 -0.0941752 0)
(-0.000775342 -0.0935956 0)
(0.0518591 -0.0930033 0)
(0.104154 -0.0924044 0)
(0.15623 -0.0917882 0)
(0.208133 -0.0910836 0)
(0.259744 -0.0903237 0)
(0.311134 -0.089597 0)
(0.362198 -0.0889072 0)
(0.412995 -0.0880807 0)
(0.463557 -0.0870865 0)
(0.513938 -0.0860958 0)
(0.56406 -0.0851411 0)
(0.613893 -0.0842286 0)
(0.663423 -0.0833523 0)
(0.712641 -0.0825032 0)
(0.761541 -0.0816726 0)
(0.810119 -0.0808536 0)
(0.858368 -0.0800403 0)
(0.906283 -0.0792283 0)
(0.953855 -0.0784139 0)
(1.00108 -0.0775939 0)
(1.04793 -0.0767654 0)
(1.09442 -0.0759258 0)
(1.14051 -0.0750728 0)
(1.1862 -0.0742041 0)
(1.23147 -0.0733175 0)
(1.2763 -0.0724107 0)
(1.32067 -0.0714819 0)
(1.36457 -0.070529 0)
(1.40797 -0.0695501 0)
(1.45085 -0.0685434 0)
(1.49319 -0.0675073 0)
(1.53495 -0.0664402 0)
(1.57613 -0.0653409 0)
(1.61669 -0.0642081 0)
(1.6566 -0.0630409 0)
(1.69584 -0.0618387 0)
(1.73438 -0.0606009 0)
(1.7722 -0.0593273 0)
(1.80927 -0.0580182 0)
(1.84555 -0.0566738 0)
(1.88104 -0.0552949 0)
(1.91569 -0.0538824 0)
(1.9495 -0.0524377 0)
(1.98242 -0.0509622 0)
(2.01444 -0.0494579 0)
(2.04555 -0.0479267 0)
(2.07571 -0.0463711 0)
(2.10492 -0.0447936 0)
(2.13315 -0.043197 0)
(2.16039 -0.0415843 0)
(2.18664 -0.0399588 0)
(2.21187 -0.0383236 0)
(2.23609 -0.0366825 0)
(2.25929 -0.035039 0)
(2.28147 -0.0333971 0)
(2.30262 -0.0317608 0)
(2.32276 -0.0301344 0)
(2.34189 -0.0285224 0)
(2.36001 -0.0269297 0)
(2.37716 -0.0253615 0)
(2.39333 -0.0238235 0)
(2.40857 -0.0223218 0)
(2.42289 -0.0208635 0)
(2.43633 -0.0194566 0)
(2.44893 -0.0181101 0)
(2.46073 -0.0168347 0)
(2.47181 -0.0156431 0)
(2.48222 -0.0145509 0)
(2.49204 -0.0135772 0)
(2.50137 -0.0127468 0)
(2.51033 -0.0120923 0)
(2.51907 -0.0116595 0)
(2.52774 -0.0115137 0)
(2.5366 -0.011759 0)
(2.54588 -0.0125496 0)
(2.55606 -0.0141872 0)
(2.56663 -0.0170083 0)
(2.58301 -0.0216796 0)
(-0.0344609 0.0917226 0)
(-0.0690163 0.13481 0)
(-0.111176 0.160734 0)
(-0.156008 0.176052 0)
(-0.202068 0.184982 0)
(-0.249559 0.190324 0)
(-0.29822 0.193681 0)
(-0.347714 0.195915 0)
(-0.397768 0.197478 0)
(-0.448154 0.198609 0)
(-0.498655 0.199433 0)
(-0.549039 0.200005 0)
(-0.599036 0.20031 0)
(-0.648311 0.200243 0)
(-0.696577 0.199523 0)
(-0.74392 0.197721 0)
(-0.790518 0.195076 0)
(-0.836293 0.191983 0)
(-0.881416 0.188285 0)
(-0.926315 0.184362 0)
(-0.971139 0.180739 0)
(-1.01564 0.177713 0)
(-1.05963 0.175067 0)
(-1.10312 0.172649 0)
(-1.14614 0.170374 0)
(-1.18873 0.168187 0)
(-1.23092 0.166047 0)
(-1.27269 0.16392 0)
(-1.31404 0.161776 0)
(-1.35497 0.159589 0)
(-1.39544 0.157335 0)
(-1.43543 0.154993 0)
(-1.4749 0.152545 0)
(-1.51383 0.149975 0)
(-1.55216 0.147271 0)
(-1.58985 0.144421 0)
(-1.62685 0.141417 0)
(-1.66313 0.138249 0)
(-1.69861 0.134912 0)
(-1.73326 0.131401 0)
(-1.76701 0.12771 0)
(-1.79981 0.123835 0)
(-1.8316 0.119774 0)
(-1.86233 0.115523 0)
(-1.89192 0.11108 0)
(-1.92032 0.106442 0)
(-1.94747 0.101608 0)
(-1.97329 0.0965782 0)
(-1.99773 0.0913529 0)
(-2.02071 0.0859346 0)
(-2.04217 0.0803273 0)
(-2.06203 0.074537 0)
(-2.08023 0.068572 0)
(-2.09672 0.062443 0)
(-2.11141 0.0561636 0)
(-2.12426 0.0497499 0)
(-2.13521 0.0432208 0)
(-2.14421 0.0365977 0)
(-2.15121 0.0299038 0)
(-2.15618 0.0231638 0)
(-2.1591 0.0164032 0)
(-2.15995 0.00964466 0)
(-2.15871 0.00290601 0)
(-2.15536 -0.00376622 0)
(-2.15001 -0.0103029 0)
(-2.14266 -0.0166765 0)
(-2.13333 -0.022892 0)
(-2.12207 -0.0289561 0)
(-2.10889 -0.0348728 0)
(-2.09384 -0.0406426 0)
(-2.07695 -0.0462643 0)
(-2.05824 -0.0517351 0)
(-2.03776 -0.057052 0)
(-2.01555 -0.0622115 0)
(-1.99164 -0.0672107 0)
(-1.96607 -0.0720464 0)
(-1.93889 -0.0767161 0)
(-1.91014 -0.0812169 0)
(-1.87987 -0.0855461 0)
(-1.84812 -0.0897004 0)
(-1.81494 -0.0936764 0)
(-1.78038 -0.0974718 0)
(-1.74449 -0.101085 0)
(-1.70733 -0.104516 0)
(-1.66894 -0.107764 0)
(-1.62938 -0.110831 0)
(-1.5887 -0.113718 0)
(-1.54696 -0.116423 0)
(-1.50421 -0.118946 0)
(-1.4605 -0.121289 0)
(-1.41589 -0.123455 0)
(-1.37044 -0.125448 0)
(-1.32419 -0.127273 0)
(-1.27721 -0.128933 0)
(-1.22953 -0.130429 0)
(-1.18121 -0.131763 0)
(-1.13231 -0.13294 0)
(-1.08288 -0.13397 0)
(-1.03295 -0.13486 0)
(-0.982577 -0.135614 0)
(-0.931802 -0.13623 0)
(-0.880673 -0.136714 0)
(-0.829233 -0.137078 0)
(-0.777521 -0.137334 0)
(-0.725567 -0.137486 0)
(-0.67341 -0.137526 0)
(-0.62109 -0.137464 0)
(-0.56864 -0.137321 0)
(-0.516083 -0.137107 0)
(-0.463444 -0.136807 0)
(-0.410759 -0.136421 0)
(-0.35805 -0.135983 0)
(-0.305339 -0.135506 0)
(-0.252638 -0.134963 0)
(-0.199978 -0.134349 0)
(-0.147342 -0.133722 0)
(-0.0948129 -0.133082 0)
(-0.0423685 -0.132386 0)
(0.0101014 -0.131652 0)
(0.0623584 -0.130897 0)
(0.114397 -0.130126 0)
(0.166279 -0.12932 0)
(0.217975 -0.128457 0)
(0.269449 -0.127568 0)
(0.320699 -0.126668 0)
(0.371732 -0.125701 0)
(0.422541 -0.124686 0)
(0.473132 -0.12368 0)
(0.523434 -0.122681 0)
(0.573461 -0.12158 0)
(0.623286 -0.120353 0)
(0.672938 -0.119105 0)
(0.722363 -0.117868 0)
(0.771532 -0.116657 0)
(0.820419 -0.115473 0)
(0.869009 -0.11431 0)
(0.917288 -0.113161 0)
(0.965246 -0.112021 0)
(1.01287 -0.110883 0)
(1.06016 -0.109742 0)
(1.1071 -0.108594 0)
(1.15367 -0.107435 0)
(1.19987 -0.106261 0)
(1.24567 -0.10507 0)
(1.29107 -0.103857 0)
(1.33605 -0.10262 0)
(1.38059 -0.101356 0)
(1.42467 -0.100063 0)
(1.46827 -0.0987367 0)
(1.51137 -0.0973759 0)
(1.55395 -0.0959779 0)
(1.59598 -0.0945405 0)
(1.63744 -0.0930615 0)
(1.67831 -0.0915392 0)
(1.71856 -0.089972 0)
(1.75816 -0.0883586 0)
(1.7971 -0.086698 0)
(1.83534 -0.0849895 0)
(1.87285 -0.083233 0)
(1.90962 -0.0814283 0)
(1.94561 -0.079576 0)
(1.9808 -0.0776768 0)
(2.01517 -0.0757321 0)
(2.04869 -0.0737434 0)
(2.08135 -0.0717129 0)
(2.11311 -0.0696427 0)
(2.14396 -0.0675359 0)
(2.17388 -0.0653953 0)
(2.20286 -0.0632246 0)
(2.23087 -0.0610272 0)
(2.25792 -0.0588075 0)
(2.28398 -0.0565695 0)
(2.30905 -0.0543179 0)
(2.33312 -0.0520573 0)
(2.35619 -0.0497928 0)
(2.37825 -0.0475296 0)
(2.39932 -0.0452732 0)
(2.4194 -0.0430293 0)
(2.43848 -0.0408039 0)
(2.4566 -0.0386034 0)
(2.47375 -0.0364346 0)
(2.48997 -0.0343049 0)
(2.50527 -0.0322223 0)
(2.51968 -0.0301955 0)
(2.53323 -0.0282344 0)
(2.54597 -0.0263501 0)
(2.55795 -0.0245553 0)
(2.5692 -0.0228652 0)
(2.57981 -0.0212971 0)
(2.58983 -0.0198728 0)
(2.59936 -0.0186184 0)
(2.60849 -0.0175676 0)
(2.61736 -0.0167641 0)
(2.62609 -0.0162677 0)
(2.63485 -0.0161614 0)
(2.64387 -0.0165713 0)
(2.65334 -0.0176688 0)
(2.66367 -0.0197588 0)
(2.67408 -0.0230217 0)
(2.68976 -0.0278199 0)
(-0.0352678 0.140017 0)
(-0.0718575 0.180747 0)
(-0.115065 0.205528 0)
(-0.159659 0.22134 0)
(-0.20444 0.23127 0)
(-0.249929 0.237509 0)
(-0.296098 0.241491 0)
(-0.342721 0.244067 0)
(-0.389563 0.245712 0)
(-0.436401 0.246678 0)
(-0.483015 0.247093 0)
(-0.52919 0.247002 0)
(-0.574712 0.246398 0)
(-0.619384 0.24522 0)
(-0.663098 0.243342 0)
(-0.705944 0.240642 0)
(-0.748103 0.23728 0)
(-0.789663 0.233535 0)
(-0.830777 0.229479 0)
(-0.871681 0.225334 0)
(-0.912453 0.221412 0)
(-0.952977 0.217889 0)
(-0.993146 0.214696 0)
(-1.03294 0.211742 0)
(-1.07236 0.208952 0)
(-1.11142 0.206267 0)
(-1.15012 0.203635 0)
(-1.18845 0.201014 0)
(-1.2264 0.198366 0)
(-1.26395 0.195659 0)
(-1.30107 0.192864 0)
(-1.33774 0.189955 0)
(-1.37392 0.186911 0)
(-1.40956 0.183713 0)
(-1.44464 0.180346 0)
(-1.47911 0.176797 0)
(-1.51291 0.173054 0)
(-1.546 0.169109 0)
(-1.57834 0.164953 0)
(-1.60987 0.16058 0)
(-1.64054 0.155986 0)
(-1.67029 0.151165 0)
(-1.69907 0.146113 0)
(-1.72683 0.140825 0)
(-1.75351 0.1353 0)
(-1.77905 0.129533 0)
(-1.80338 0.123523 0)
(-1.82645 0.117268 0)
(-1.84819 0.110769 0)
(-1.86854 0.104029 0)
(-1.88743 0.0970508 0)
(-1.9048 0.0898422 0)
(-1.92058 0.0824126 0)
(-1.93471 0.0747747 0)
(-1.94712 0.0669449 0)
(-1.95776 0.0589431 0)
(-1.96657 0.0507925 0)
(-1.9735 0.0425199 0)
(-1.97851 0.0341548 0)
(-1.98157 0.0257289 0)
(-1.98264 0.0172748 0)
(-1.98171 0.00882188 0)
(-1.97876 0.000398107 0)
(-1.97382 -0.00791676 0)
(-1.96697 -0.016047 0)
(-1.95821 -0.0239833 0)
(-1.94756 -0.0317288 0)
(-1.93507 -0.0392887 0)
(-1.92075 -0.046666 0)
(-1.90464 -0.053861 0)
(-1.88677 -0.0608714 0)
(-1.86716 -0.0676936 0)
(-1.84586 -0.0743234 0)
(-1.8229 -0.0807564 0)
(-1.79832 -0.0869887 0)
(-1.77217 -0.0930166 0)
(-1.74447 -0.0988367 0)
(-1.71527 -0.104446 0)
(-1.68463 -0.109841 0)
(-1.65257 -0.115017 0)
(-1.61915 -0.11997 0)
(-1.58441 -0.124697 0)
(-1.54841 -0.129196 0)
(-1.5112 -0.133467 0)
(-1.47282 -0.137509 0)
(-1.43333 -0.141325 0)
(-1.39278 -0.144916 0)
(-1.35122 -0.148281 0)
(-1.3087 -0.151418 0)
(-1.26528 -0.154329 0)
(-1.221 -0.157018 0)
(-1.17593 -0.159492 0)
(-1.13011 -0.161756 0)
(-1.08359 -0.163816 0)
(-1.03642 -0.16567 0)
(-0.988642 -0.167321 0)
(-0.940319 -0.168777 0)
(-0.891496 -0.170047 0)
(-0.842215 -0.171146 0)
(-0.792516 -0.172075 0)
(-0.742441 -0.172832 0)
(-0.692038 -0.173424 0)
(-0.641348 -0.173865 0)
(-0.590407 -0.174174 0)
(-0.539246 -0.174355 0)
(-0.487896 -0.174396 0)
(-0.436401 -0.174307 0)
(-0.384787 -0.174118 0)
(-0.333084 -0.173844 0)
(-0.28131 -0.173465 0)
(-0.2295 -0.172979 0)
(-0.177655 -0.172424 0)
(-0.125835 -0.171819 0)
(-0.0740421 -0.171142 0)
(-0.0222912 -0.170395 0)
(0.0295261 -0.169593 0)
(0.0810989 -0.16875 0)
(0.132553 -0.167873 0)
(0.183893 -0.166942 0)
(0.23507 -0.16595 0)
(0.286074 -0.164935 0)
(0.336895 -0.163885 0)
(0.387527 -0.16278 0)
(0.437962 -0.161638 0)
(0.488182 -0.160473 0)
(0.538183 -0.159252 0)
(0.587975 -0.157986 0)
(0.63755 -0.15671 0)
(0.686865 -0.15542 0)
(0.735922 -0.154051 0)
(0.784773 -0.152585 0)
(0.833437 -0.151084 0)
(0.881885 -0.149578 0)
(0.930088 -0.148081 0)
(0.978024 -0.146598 0)
(1.02567 -0.145128 0)
(1.07301 -0.143666 0)
(1.12004 -0.142207 0)
(1.16673 -0.140745 0)
(1.21308 -0.139275 0)
(1.25907 -0.137792 0)
(1.3047 -0.136292 0)
(1.34993 -0.134771 0)
(1.39477 -0.133224 0)
(1.43918 -0.131647 0)
(1.48316 -0.130038 0)
(1.52669 -0.128393 0)
(1.56974 -0.126709 0)
(1.6123 -0.124981 0)
(1.65434 -0.123208 0)
(1.69584 -0.121386 0)
(1.73677 -0.119514 0)
(1.77712 -0.117588 0)
(1.81685 -0.115606 0)
(1.85595 -0.113568 0)
(1.89438 -0.111471 0)
(1.93212 -0.109315 0)
(1.96915 -0.107098 0)
(2.00544 -0.104823 0)
(2.04097 -0.102487 0)
(2.07571 -0.100093 0)
(2.10963 -0.097642 0)
(2.14272 -0.0951355 0)
(2.17496 -0.0925761 0)
(2.20631 -0.0899667 0)
(2.23677 -0.0873103 0)
(2.26632 -0.0846111 0)
(2.29494 -0.0818729 0)
(2.32262 -0.0791006 0)
(2.34934 -0.0762988 0)
(2.3751 -0.073473 0)
(2.39989 -0.0706287 0)
(2.4237 -0.067772 0)
(2.44653 -0.0649088 0)
(2.46839 -0.0620458 0)
(2.48927 -0.0591897 0)
(2.50918 -0.0563476 0)
(2.52813 -0.0535268 0)
(2.54613 -0.0507352 0)
(2.5632 -0.047981 0)
(2.57936 -0.0452729 0)
(2.59463 -0.0426205 0)
(2.60905 -0.0400341 0)
(2.62263 -0.037525 0)
(2.63542 -0.0351057 0)
(2.64747 -0.0327907 0)
(2.65882 -0.0305962 0)
(2.66954 -0.0285414 0)
(2.67969 -0.0266485 0)
(2.68934 -0.0249448 0)
(2.69859 -0.0234631 0)
(2.70754 -0.0222452 0)
(2.71631 -0.0213442 0)
(2.72504 -0.0208316 0)
(2.73389 -0.0208032 0)
(2.74306 -0.0213977 0)
(2.75269 -0.0227881 0)
(2.76317 -0.0252555 0)
(2.77351 -0.0288194 0)
(2.78902 -0.0336263 0)
(-0.0346597 0.188077 0)
(-0.0717637 0.22632 0)
(-0.11503 0.249266 0)
(-0.15878 0.264605 0)
(-0.20198 0.274709 0)
(-0.245252 0.281241 0)
(-0.2887 0.285401 0)
(-0.332193 0.287959 0)
(-0.375551 0.289378 0)
(-0.418591 0.289914 0)
(-0.461138 0.289707 0)
(-0.503037 0.288825 0)
(-0.544161 0.287294 0)
(-0.584427 0.285116 0)
(-0.623829 0.282275 0)
(-0.662473 0.278789 0)
(-0.70052 0.274803 0)
(-0.738094 0.270522 0)
(-0.775331 0.26608 0)
(-0.812376 0.26165 0)
(-0.849277 0.257431 0)
(-0.885979 0.253529 0)
(-0.922417 0.249918 0)
(-0.958563 0.246538 0)
(-0.994406 0.243323 0)
(-1.02994 0.240211 0)
(-1.06515 0.237149 0)
(-1.10003 0.234088 0)
(-1.13456 0.230986 0)
(-1.1687 0.227805 0)
(-1.20244 0.224512 0)
(-1.23574 0.221078 0)
(-1.26856 0.21748 0)
(-1.30087 0.213696 0)
(-1.33261 0.209708 0)
(-1.36376 0.205502 0)
(-1.39426 0.201067 0)
(-1.42407 0.196391 0)
(-1.45313 0.191467 0)
(-1.48141 0.186288 0)
(-1.50885 0.180848 0)
(-1.53541 0.175141 0)
(-1.56102 0.169163 0)
(-1.58565 0.162908 0)
(-1.60923 0.156374 0)
(-1.63171 0.149556 0)
(-1.65304 0.142451 0)
(-1.67316 0.135057 0)
(-1.692 0.127374 0)
(-1.70951 0.119404 0)
(-1.72562 0.111151 0)
(-1.74027 0.102622 0)
(-1.7534 0.0938286 0)
(-1.76495 0.0847843 0)
(-1.77485 0.0755079 0)
(-1.78305 0.0660228 0)
(-1.7895 0.0563564 0)
(-1.79414 0.0465408 0)
(-1.79693 0.0366115 0)
(-1.79785 0.0266069 0)
(-1.79685 0.0165662 0)
(-1.79394 0.00652468 0)
(-1.78906 -0.00345923 0)
(-1.78236 -0.013282 0)
(-1.77383 -0.0228839 0)
(-1.76349 -0.0322633 0)
(-1.75138 -0.0414224 0)
(-1.73751 -0.050365 0)
(-1.72191 -0.0590931 0)
(-1.70461 -0.0676063 0)
(-1.68564 -0.0759012 0)
(-1.66502 -0.083973 0)
(-1.6428 -0.0918161 0)
(-1.619 -0.0994254 0)
(-1.59368 -0.106796 0)
(-1.56685 -0.113923 0)
(-1.53857 -0.120804 0)
(-1.50887 -0.127433 0)
(-1.4778 -0.133809 0)
(-1.4454 -0.139926 0)
(-1.4117 -0.145777 0)
(-1.37677 -0.15136 0)
(-1.34065 -0.15667 0)
(-1.30338 -0.161709 0)
(-1.26502 -0.166477 0)
(-1.22561 -0.170976 0)
(-1.18521 -0.175209 0)
(-1.14385 -0.179173 0)
(-1.1016 -0.182868 0)
(-1.0585 -0.186293 0)
(-1.01461 -0.189455 0)
(-0.969974 -0.192359 0)
(-0.92464 -0.195018 0)
(-0.878655 -0.197434 0)
(-0.832065 -0.199607 0)
(-0.784919 -0.201539 0)
(-0.737265 -0.203237 0)
(-0.689152 -0.204716 0)
(-0.640619 -0.205993 0)
(-0.591704 -0.207072 0)
(-0.542447 -0.207946 0)
(-0.49289 -0.208623 0)
(-0.443077 -0.209119 0)
(-0.393037 -0.209464 0)
(-0.342807 -0.209658 0)
(-0.292411 -0.209688 0)
(-0.241891 -0.209562 0)
(-0.191253 -0.209317 0)
(-0.140561 -0.20897 0)
(-0.0898235 -0.208504 0)
(-0.0390673 -0.207926 0)
(0.0117802 -0.207251 0)
(0.0625341 -0.206491 0)
(0.113202 -0.205657 0)
(0.163787 -0.204762 0)
(0.214307 -0.20378 0)
(0.264687 -0.202723 0)
(0.314939 -0.201633 0)
(0.365044 -0.200487 0)
(0.414992 -0.199276 0)
(0.464774 -0.198027 0)
(0.51437 -0.196738 0)
(0.563776 -0.195395 0)
(0.612989 -0.194011 0)
(0.661994 -0.192592 0)
(0.710784 -0.191123 0)
(0.759366 -0.189611 0)
(0.807731 -0.188075 0)
(0.855853 -0.186514 0)
(0.90373 -0.18489 0)
(0.951394 -0.183191 0)
(0.998858 -0.181452 0)
(1.0461 -0.179695 0)
(1.09311 -0.177934 0)
(1.13985 -0.176175 0)
(1.18631 -0.174418 0)
(1.23248 -0.172662 0)
(1.27832 -0.1709 0)
(1.32384 -0.169129 0)
(1.36901 -0.167343 0)
(1.41382 -0.165537 0)
(1.45826 -0.163707 0)
(1.5023 -0.161848 0)
(1.54594 -0.159955 0)
(1.58915 -0.158024 0)
(1.63191 -0.156051 0)
(1.67421 -0.154032 0)
(1.71603 -0.151963 0)
(1.75734 -0.149841 0)
(1.79812 -0.147663 0)
(1.83835 -0.145424 0)
(1.878 -0.143124 0)
(1.91705 -0.140758 0)
(1.95548 -0.138324 0)
(1.99325 -0.135822 0)
(2.03036 -0.13325 0)
(2.06676 -0.130607 0)
(2.10244 -0.127893 0)
(2.13736 -0.125108 0)
(2.17152 -0.122253 0)
(2.20488 -0.11933 0)
(2.23742 -0.11634 0)
(2.26912 -0.113286 0)
(2.29997 -0.110172 0)
(2.32994 -0.107001 0)
(2.35901 -0.103777 0)
(2.38718 -0.100506 0)
(2.41443 -0.0971916 0)
(2.44074 -0.0938408 0)
(2.46611 -0.0904594 0)
(2.49053 -0.0870541 0)
(2.514 -0.0836317 0)
(2.53652 -0.0801997 0)
(2.55809 -0.0767654 0)
(2.5787 -0.0733372 0)
(2.59838 -0.069923 0)
(2.61712 -0.0665318 0)
(2.63494 -0.0631725 0)
(2.65186 -0.0598547 0)
(2.6679 -0.0565883 0)
(2.68308 -0.0533843 0)
(2.69742 -0.0502541 0)
(2.71096 -0.0472104 0)
(2.72374 -0.0442668 0)
(2.7358 -0.0414388 0)
(2.74719 -0.0387437 0)
(2.75796 -0.0362012 0)
(2.76817 -0.0338344 0)
(2.7779 -0.0316701 0)
(2.78722 -0.0297405 0)
(2.79622 -0.0280847 0)
(2.80502 -0.0267512 0)
(2.81373 -0.0258014 0)
(2.82248 -0.0253157 0)
(2.83142 -0.0253985 0)
(2.84074 -0.0261945 0)
(2.85055 -0.0278673 0)
(2.86121 -0.0306642 0)
(2.87157 -0.0344599 0)
(2.88718 -0.0392641 0)
(-0.0332884 0.234256 0)
(-0.0698844 0.27029 0)
(-0.112371 0.291199 0)
(-0.154692 0.305501 0)
(-0.195959 0.315169 0)
(-0.236779 0.321475 0)
(-0.277319 0.325391 0)
(-0.317523 0.327593 0)
(-0.357276 0.328508 0)
(-0.396451 0.328399 0)
(-0.434935 0.327423 0)
(-0.472644 0.325678 0)
(-0.509529 0.323236 0)
(-0.545588 0.320153 0)
(-0.580874 0.316487 0)
(-0.615504 0.312319 0)
(-0.649622 0.307795 0)
(-0.683351 0.30308 0)
(-0.716806 0.298307 0)
(-0.750085 0.293617 0)
(-0.783223 0.289138 0)
(-0.816192 0.284934 0)
(-0.848952 0.280993 0)
(-0.881474 0.277264 0)
(-0.91374 0.27369 0)
(-0.945731 0.27021 0)
(-0.97743 0.266766 0)
(-1.00882 0.263308 0)
(-1.03986 0.25979 0)
(-1.07054 0.256169 0)
(-1.10081 0.25241 0)
(-1.13065 0.248482 0)
(-1.16002 0.244359 0)
(-1.18886 0.240019 0)
(-1.21715 0.235441 0)
(-1.24484 0.230612 0)
(-1.27189 0.225518 0)
(-1.29824 0.22015 0)
(-1.32387 0.214497 0)
(-1.34871 0.208554 0)
(-1.37273 0.202314 0)
(-1.39588 0.195772 0)
(-1.41811 0.188923 0)
(-1.43937 0.181762 0)
(-1.45962 0.174283 0)
(-1.47881 0.166482 0)
(-1.49689 0.158355 0)
(-1.51379 0.1499 0)
(-1.52948 0.141114 0)
(-1.54388 0.131999 0)
(-1.55695 0.12256 0)
(-1.56861 0.112804 0)
(-1.57883 0.102741 0)
(-1.58752 0.0923873 0)
(-1.59464 0.0817637 0)
(-1.60014 0.0708963 0)
(-1.60395 0.0598167 0)
(-1.60603 0.0485618 0)
(-1.60634 0.0371734 0)
(-1.60485 0.0256969 0)
(-1.60154 0.0141775 0)
(-1.59639 0.00265591 0)
(-1.58939 -0.00875834 0)
(-1.5807 -0.01995 0)
(-1.57029 -0.0308976 0)
(-1.5582 -0.0415981 0)
(-1.54444 -0.0520523 0)
(-1.52903 -0.0622623 0)
(-1.51199 -0.0722291 0)
(-1.49336 -0.0819514 0)