/*--------------------------------*- C++ -*----------------------------------*\
  =========                 |
  \\      /  F ield         | OpenFOAM: The Open Source CFD Toolbox
   \\    /   O peration     | Website:  https://openfoam.org
    \\  /    A nd           | Version:  7
     \\/     M anipulation  |
\*---------------------------------------------------------------------------*/
FoamFile
{
    version     2.0;
    format      ascii;
    class       volVectorField;
    location    "0.3";
    object      U;
}
// * * * * * * * * * * * * * * * * * * * * * * * * * * * * * * * * * * * * * //

dimensions      [0 1 -1 0 0 0 0];

internalField   nonuniform List<vector> 
900
(
(7.84272e-06 -8.0345e-06 0)
(-0.000256659 0.000150258 0)
(-0.000910808 0.000252821 0)
(-0.00170713 0.000288789 0)
(-0.0025379 0.000290826 0)
(-0.00335148 0.000278871 0)
(-0.00412277 0.000261104 0)
(-0.00483869 0.000240167 0)
(-0.0054904 0.000216677 0)
(-0.00607032 0.000190752 0)
(-0.00657149 0.000162509 0)
(-0.00698763 0.00013214 0)
(-0.00731325 9.98997e-05 0)
(-0.00754373 6.60852e-05 0)
(-0.00767537 3.10262e-05 0)
(-0.00770549 -4.91718e-06 0)
(-0.00763247 -4.13548e-05 0)
(-0.00745586 -7.78588e-05 0)
(-0.00717641 -0.000113968 0)
(-0.00679621 -0.000149193 0)
(-0.00631874 -0.000183028 0)
(-0.00574888 -0.000214984 0)
(-0.00509295 -0.000244604 0)
(-0.00435873 -0.000271376 0)
(-0.00355631 -0.000294216 0)
(-0.00270125 -0.000309894 0)
(-0.00182267 -0.000309511 0)
(-0.000977599 -0.000272311 0)
(-0.000281723 -0.00016482 0)
(4.70781e-06 3.22227e-06 0)
(-0.000150415 0.00025585 0)
(-0.000942078 0.000937746 0)
(-0.0024233 0.00134995 0)
(-0.00416317 0.00150853 0)
(-0.00596505 0.0015237 0)
(-0.00773479 0.00146905 0)
(-0.0094183 0.0013796 0)
(-0.010983 0.00126922 0)
(-0.0124064 0.00114289 0)
(-0.0136703 0.00100271 0)
(-0.0147591 0.000850151 0)
(-0.0156593 0.000686701 0)
(-0.0163593 0.000513962 0)
(-0.0168497 0.000333649 0)
(-0.0171231 0.000147584 0)
(-0.0171745 -4.23019e-05 0)
(-0.0170012 -0.000233947 0)
(-0.0166028 -0.00042515 0)
(-0.0159818 -0.000613559 0)
(-0.0151432 -0.000796679 0)
(-0.0140953 -0.000971901 0)
(-0.012849 -0.00113653 0)
(-0.0114191 -0.00128769 0)
(-0.009824 -0.00142167 0)
(-0.00808828 -0.00153156 0)
(-0.00624883 -0.00160109 0)
(-0.00436646 -0.00159236 0)
(-0.00254446 -0.00142866 0)
(-0.000991711 -0.000996947 0)
(-0.000159295 -0.000278604 0)
(-0.000257262 0.000914446 0)
(-0.00138599 0.00242751 0)
(-0.00336319 0.00329022 0)
(-0.00563897 0.00363146 0)
(-0.00797668 0.0036656 0)
(-0.0102678 0.00353901 0)
(-0.0124464 0.00332626 0)
(-0.0144705 0.00305961 0)
(-0.0163103 0.00275226 0)
(-0.0179421 0.00241059 0)
(-0.0193457 0.00203906 0)
(-0.0205037 0.00164174 0)
(-0.0214017 0.00122278 0)
(-0.0220278 0.000786457 0)
(-0.0223733 0.000337238 0)
(-0.0224319 -0.000120213 0)
(-0.0222006 -0.000580973 0)
(-0.0216794 -0.00103982 0)
(-0.0208716 -0.00149121 0)
(-0.019784 -0.00192925 0)
(-0.0184271 -0.00234771 0)
(-0.0168155 -0.00274001 0)
(-0.0149682 -0.0030988 0)
(-0.0129094 -0.00341431 0)
(-0.010671 -0.00366928 0)
(-0.00830021 -0.0038265 0)
(-0.00587052 -0.00380551 0)
(-0.00350107 -0.00345375 0)
(-0.00144257 -0.00255151 0)
(-0.000267629 -0.000966277 0)
(-0.000305455 0.00174297 0)
(-0.0016166 0.00423855 0)
(-0.00388166 0.00560329 0)
(-0.00646317 0.00613623 0)
(-0.00909934 0.00618087 0)
(-0.0116759 0.00596502 0)
(-0.0141226 0.00560561 0)
(-0.0163937 0.00515441 0)
(-0.0184567 0.0046337 0)
(-0.0202851 0.00405486 0)
(-0.0218565 0.00342593 0)
(-0.023152 0.00275415 0)
(-0.0241556 0.00204669 0)
(-0.0248547 0.00131086 0)
(-0.0252396 0.00055415 0)
(-0.0253036 -0.000215643 0)
(-0.0250434 -0.000990353 0)
(-0.0244589 -0.00176134 0)
(-0.0235538 -0.0025194 0)
(-0.0223353 -0.00325477 0)
(-0.020815 -0.00395704 0)
(-0.0190088 -0.00461508 0)
(-0.0169376 -0.00521628 0)
(-0.0146281 -0.00574395 0)
(-0.0121156 -0.00616941 0)
(-0.00945126 -0.00643307 0)
(-0.00671379 -0.00640878 0)
(-0.00402944 -0.00585914 0)
(-0.00167577 -0.00443257 0)
(-0.00031572 -0.00182491 0)
(-0.000327564 0.00265494 0)
(-0.00174543 0.00622434 0)
(-0.00419556 0.00812281 0)
(-0.00697749 0.00884966 0)
(-0.00980914 0.0088964 0)
(-0.012571 0.00857915 0)
(-0.0151902 0.00805893 0)
(-0.0176194 0.00740738 0)
(-0.0198244 0.00665598 0)
(-0.0217778 0.00582133 0)
(-0.0234563 0.00491531 0)
(-0.02484 0.00394856 0)
(-0.0259126 0.00293146 0)
(-0.0266609 0.00187449 0)
(-0.0270747 0.000788267 0)
(-0.0271471 -0.000316206 0)
(-0.0268742 -0.00142745 0)
(-0.0262558 -0.00253331 0)
(-0.025295 -0.00362085 0)
(-0.0239988 -0.0046762 0)
(-0.0223787 -0.00568453 0)
(-0.0204509 -0.0066298 0)
(-0.0182368 -0.00749376 0)
(-0.0157643 -0.00825237 0)
(-0.0130702 -0.0088651 0)
(-0.0102081 -0.00924926 0)
(-0.00726072 -0.00923079 0)
(-0.00436144 -0.00848004 0)
(-0.0018107 -0.00649438 0)
(-0.000338417 -0.00276824 0)
(-0.000343547 0.00362155 0)
(-0.0018466 0.00834084 0)
(-0.00445151 0.0108062 0)
(-0.00740604 0.0117335 0)
(-0.0104085 0.0117769 0)
(-0.0133328 0.0113482 0)
(-0.016103 0.0106549 0)
(-0.0186698 0.0097896 0)
(-0.0209983 0.00879321 0)
(-0.0230603 0.00768777 0)
(-0.024832 0.00648918 0)
(-0.0262935 0.00521158 0)
(-0.0274281 0.00386867 0)
(-0.0282223 0.00247404 0)
(-0.0286658 0.00104145 0)
(-0.0287511 -0.000415014 0)
(-0.0284739 -0.00188063 0)
(-0.0278329 -0.00333981 0)
(-0.0268307 -0.00477585 0)
(-0.0254733 -0.00617074 0)
(-0.0237714 -0.00750504 0)
(-0.0217407 -0.00875749 0)
(-0.0194025 -0.00990378 0)
(-0.0167851 -0.0109119 0)
(-0.0139266 -0.0117288 0)
(-0.0108834 -0.012247 0)
(-0.0077431 -0.0122412 0)
(-0.00464862 -0.0112815 0)
(-0.00192376 -0.00869888 0)
(-0.000356211 -0.00377039 0)
(-0.000361794 0.00464056 0)
(-0.00195605 0.0105844 0)
(-0.00472525 0.0136528 0)
(-0.00786519 0.0147902 0)
(-0.011053 0.0148266 0)
(-0.0141541 0.0142764 0)
(-0.0170885 0.0133974 0)
(-0.0198049 0.0123043 0)
(-0.0222672 0.0110481 0)
(-0.0244467 0.00965666 0)
(-0.0263196 0.00815006 0)
(-0.0278658 0.00654607 0)
(-0.0290687 0.00486166 0)
(-0.0299147 0.0031135 0)
(-0.0303934 0.00131828 0)
(-0.0304966 -0.000507008 0)
(-0.0302194 -0.00234464 0)
(-0.0295593 -0.00417578 0)
(-0.0285175 -0.00598008 0)
(-0.0270988 -0.00773539 0)
(-0.0253123 -0.00941749 0)
(-0.0231725 -0.0109996 0)
(-0.0207001 -0.0124507 0)
(-0.0179236 -0.0137301 0)
(-0.0148825 -0.0147707 0)
(-0.0116365 -0.0154381 0)
(-0.00828007 -0.0154512 0)
(-0.00496823 -0.0142713 0)
(-0.00205128 -0.0110493 0)
(-0.000377469 -0.00483252 0)
(-0.000385223 0.00572232 0)
(-0.00208884 0.0129738 0)
(-0.00505115 0.0166856 0)
(-0.00840875 0.018045 0)
(-0.0118142 0.0180706 0)
(-0.0151232 0.0173877 0)
(-0.0182502 0.0163083 0)
(-0.0211413 0.0149708 0)
(-0.0237595 0.0134375 0)
(-0.0260756 0.0117425 0)
(-0.0280657 0.00991039 0)
(-0.0297103 0.00796261 0)
(-0.0309928 0.00591939 0)
(-0.0319 0.00380033 0)
(-0.0324212 0.00162473 0)
(-0.032548 -0.000587832 0)
(-0.032274 -0.00281701 0)
(-0.0315958 -0.00504105 0)
(-0.0305123 -0.00723623 0)
(-0.0290263 -0.00937633 0)
(-0.0271448 -0.0114322 0)
(-0.0248804 -0.0133712 0)
(-0.0222525 -0.0151548 0)
(-0.0192892 -0.0167325 0)
(-0.0160316 -0.0180212 0)
(-0.0125437 -0.0188564 0)
(-0.00892867 -0.0188956 0)
(-0.00535638 -0.017482 0)
(-0.00220882 -0.0135718 0)
(-0.000405098 -0.0059684 0)
(-0.000414781 0.00688215 0)
(-0.00225149 0.015539 0)
(-0.00544558 0.0199412 0)
(-0.00906313 0.021536 0)
(-0.0127277 0.021546 0)
(-0.0162831 0.0207165 0)
(-0.0196375 0.0194182 0)
(-0.0227341 0.0178162 0)
(-0.0255345 0.0159849 0)
(-0.0280094 0.0139653 0)
(-0.0301357 0.0117869 0)
(-0.0318941 0.00947511 0)
(-0.0332691 0.0070533 0)
(-0.0342481 0.00454365 0)
(-0.0348202 0.00196773 0)
(-0.0349767 -0.000652855 0)
(-0.03471 -0.0032957 0)
(-0.0340148 -0.00593667 0)
(-0.0328875 -0.00854908 0)
(-0.0313279 -0.0111029 0)
(-0.0293399 -0.013564 0)
(-0.0269331 -0.0158933 0)
(-0.0241245 -0.018044 0)
(-0.0209415 -0.019954 0)
(-0.0174264 -0.0215218 0)
(-0.0136483 -0.0225488 0)
(-0.00972092 -0.0226241 0)
(-0.00583268 -0.0209611 0)
(-0.00240406 -0.016305 0)
(-0.000440183 -0.00719708 0)
(-0.000451021 0.00813763 0)
(-0.00244822 0.0183161 0)
(-0.00591949 0.0234634 0)
(-0.00984619 0.0253086 0)
(-0.0138173 0.0252959 0)
(-0.0176624 0.0243019 0)
(-0.0212827 0.022762 0)
(-0.0246176 0.0208703 0)
(-0.027628 0.0187154 0)
(-0.0302849 0.0163461 0)
(-0.0325661 0.0137972 0)
(-0.034454 0.0110981 0)
(-0.0359345 0.00827535 0)
(-0.036996 0.00535326 0)
(-0.037628 0.00235505 0)
(-0.0378215 -0.000696403 0)
(-0.0375677 -0.00377743 0)
(-0.0368587 -0.00686234 0)
(-0.0356877 -0.00992217 0)
(-0.0340504 -0.0129235 0)
(-0.0319461 -0.0158273 0)
(-0.02938 -0.0185877 0)
(-0.0263653 -0.0211484 0)
(-0.0229274 -0.0234337 0)
(-0.0191093 -0.0253205 0)
(-0.0149858 -0.0265706 0)
(-0.0106834 -0.026696 0)
(-0.00641327 -0.0247666 0)
(-0.00264319 -0.0192958 0)
(-0.000483567 -0.00854062 0)
(-0.000494661 0.00950834 0)
(-0.00268353 0.0213466 0)
(-0.00648402 0.0273025 0)
(-0.0107758 0.0294137 0)
(-0.0151064 0.0293681 0)
(-0.0192889 0.0281866 0)
(-0.0232158 0.0263763 0)
(-0.0268232 0.0241642 0)
(-0.0300714 0.0216548 0)
(-0.0329327 0.0189059 0)
(-0.0353868 0.0159583 0)
(-0.0374187 0.0128457 0)
(-0.0390168 0.00959728 0)
(-0.0401711 0.00623916 0)
(-0.0408726 0.00279528 0)
(-0.0411117 -0.000711246 0)
(-0.0408785 -0.00425669 0)
(-0.0401619 -0.00781496 0)
(-0.0389511 -0.0113559 0)
(-0.037236 -0.0148435 0)
(-0.0350097 -0.0182341 0)
(-0.0322706 -0.0214747 0)
(-0.0290261 -0.0244983 0)
(-0.0252974 -0.0272132 0)
(-0.0211274 -0.0294702 0)
(-0.0165965 -0.0309848 0)
(-0.0118465 -0.0311806 0)
(-0.00711682 -0.0289664 0)
(-0.00293364 -0.0225994 0)
(-0.000536409 -0.0100243 0)
(-0.000546763 0.0110165 0)
(-0.00296331 0.0246778 0)
(-0.00715302 0.0315158 0)
(-0.0118736 0.0339089 0)
(-0.016623 0.0338154 0)
(-0.0211946 0.0324165 0)
(-0.0254714 0.0302995 0)
(-0.029386 0.027729 0)
(-0.032899 0.0248277 0)
(-0.0359851 0.021664 0)
(-0.0386278 0.0182855 0)
(-0.0408161 0.0147303 0)
(-0.042542 0.0110299 0)
(-0.0437988 0.00721122 0)
(-0.0445793 0.0032979 0)
(-0.0448743 -0.000688189 0)
(-0.0446722 -0.00472488 0)
(-0.0439586 -0.00878737 0)
(-0.042717 -0.0128459 0)
(-0.0409302 -0.0168631 0)
(-0.0385822 -0.0207916 0)
(-0.035662 -0.0245712 0)
(-0.0321677 -0.0281228 0)
(-0.0281134 -0.0313356 0)
(-0.0235392 -0.0340291 0)
(-0.0185314 -0.0358631 0)
(-0.0132495 -0.0361588 0)
(-0.00796784 -0.0336415 0)
(-0.00328539 -0.0262814 0)
(-0.000600378 -0.0116778 0)
(-0.000608834 0.0126879 0)
(-0.00329549 0.0283649 0)
(-0.00794474 0.0361692 0)
(-0.0131678 0.0388596 0)
(-0.0184029 0.0386963 0)
(-0.0234201 0.0370406 0)
(-0.0280918 0.034571 0)
(-0.0323477 0.0315949 0)
(-0.0361503 0.0282568 0)
(-0.0394786 0.0246372 0)
(-0.0423218 0.0207915 0)
(-0.0446751 0.016762 0)
(-0.0465364 0.0125822 0)
(-0.0479036 0.00827869 0)
(-0.0487725 0.00387315 0)
(-0.049135 -0.000615705 0)
(-0.0489781 -0.00516949 0)
(-0.0482833 -0.00976698 0)
(-0.0470273 -0.0143811 0)
(-0.0451833 -0.0189753 0)
(-0.0427232 -0.0235 0)
(-0.0396223 -0.027888 0)
(-0.0358651 -0.0320474 0)
(-0.0314534 -0.0358445 0)
(-0.0264211 -0.0390607 0)
(-0.0208583 -0.0412881 0)
(-0.0149453 -0.0417265 0)
(-0.00899974 -0.0388892 0)
(-0.00371223 -0.0304213 0)
(-0.000677806 -0.0135367 0)
(-0.000682978 0.0145533 0)
(-0.00369092 0.0324732 0)
(-0.0088837 0.04134 0)
(-0.0146954 0.0443404 0)
(-0.0204922 0.0440756 0)
(-0.0260167 0.0421116 0)
(-0.0311297 0.0392307 0)
(-0.0357594 0.0357906 0)
(-0.0398722 0.0319613 0)
(-0.0434546 0.0278379 0)
(-0.0465045 0.0234841 0)
(-0.0490262 0.0189468 0)
(-0.0510259 0.0142603 0)
(-0.0525084 0.00944946 0)
(-0.0534742 0.0045318 0)
(-0.0539174 -0.000479586 0)
(-0.0538239 -0.00557307 0)
(-0.0531706 -0.0107341 0)
(-0.051926 -0.0159415 0)
(-0.0500509 -0.0211628 0)
(-0.0475013 -0.0263486 0)
(-0.0442335 -0.0314265 0)
(-0.0402114 -0.0362909 0)
(-0.0354177 -0.0407818 0)
(-0.0298732 -0.0446334 0)
(-0.0236684 -0.047355 0)
(-0.0170065 -0.0479989 0)
(-0.0102591 -0.0448295 0)
(-0.00423343 -0.035118 0)
(-0.00077193 -0.0156452 0)
(-0.000772158 0.0166503 0)
(-0.00416461 0.037082 0)
(-0.0100033 0.0471206 0)
(-0.0165062 0.0504384 0)
(-0.0229518 0.0500264 0)
(-0.0290506 0.047685 0)
(-0.0346516 0.0443175 0)
(-0.0396834 0.0403405 0)
(-0.0441203 0.0359545 0)
(-0.0479604 0.0312715 0)
(-0.0512146 0.0263648 0)
(-0.0539 0.0212849 0)
(-0.0560346 0.016066 0)
(-0.0576328 0.010729 0)
(-0.0587022 0.00528464 0)
(-0.0592405 -0.000262817 0)
(-0.0592332 -0.00591224 0)
(-0.0586523 -0.0116598 0)
(-0.0574569 -0.017495 0)
(-0.0555926 -0.0233936 0)
(-0.0529946 -0.0293111 0)
(-0.0495932 -0.0351727 0)
(-0.0453225 -0.04086 0)
(-0.0401357 -0.0461834 0)
(-0.0340295 -0.0508196 0)
(-0.0270873 -0.0541739 0)
(-0.0195353 -0.055117 0)
(-0.0118125 -0.0516134 0)
(-0.00487666 -0.0404974 0)
(-0.000887306 -0.0180588 0)
(-0.000880638 0.0190259 0)
(-0.00473772 0.0422897 0)
(-0.0113499 0.053623 0)
(-0.018668 0.0572558 0)
(-0.0258629 0.05663 0)
(-0.0326079 0.0538189 0)
(-0.0387412 0.0498673 0)
(-0.0441962 0.0452624 0)
(-0.0489605 0.0402405 0)
(-0.0530496 0.0349336 0)
(-0.0564932 0.0294248 0)
(-0.0593262 0.0237677 0)
(-0.0615829 0.0179943 0)
(-0.0632907 0.0121187 0)
(-0.0644669 0.00614154 0)
(-0.0651151 5.40644e-05 0)
(-0.0652217 -0.00615677 0)
(-0.0647542 -0.0125041 0)
(-0.0636609 -0.0189937 0)
(-0.0618697 -0.0256163 0)
(-0.0592896 -0.0323386 0)
(-0.0558164 -0.0390896 0)
(-0.0513425 -0.0457415 0)
(-0.0457752 -0.0520727 0)
(-0.0390703 -0.0576912 0)
(-0.0312898 -0.0618715 0)
(-0.0226786 -0.063255 0)
(-0.0137577 -0.0594357 0)
(-0.00568293 -0.0467251 0)
(-0.00103061 -0.0208504 0)
(-0.00101474 0.0217409 0)
(-0.00544081 0.0482214 0)
(-0.0129889 0.0609858 0)
(-0.0212741 0.0649141 0)
(-0.0293344 0.0639776 0)
(-0.0368013 0.0605717 0)
(-0.0435055 0.0559096 0)
(-0.0493921 0.0505625 0)
(-0.0544705 0.0448096 0)
(-0.0587822 0.0388049 0)
(-0.0623828 0.0326415 0)
(-0.0653319 0.0263746 0)
(-0.0676848 0.0200307 0)
(-0.0694867 0.0136139 0)
(-0.0707678 0.00711051 0)
(-0.0715398 0.000494067 0)
(-0.0717923 -0.00626846 0)
(-0.0714902 -0.0132132 0)
(-0.0705705 -0.0203698 0)
(-0.0689407 -0.0277531 0)
(-0.0664788 -0.0353507 0)
(-0.0630364 -0.0431057 0)
(-0.0584483 -0.0508886 0)
(-0.0525543 -0.0584482 0)
(-0.0452418 -0.0653124 0)
(-0.036525 -0.0705912 0)
(-0.0266534 -0.0726309 0)
(-0.0162436 -0.0685537 0)
(-0.0067159 -0.0540255 0)
(-0.00121224 -0.0241181 0)
(-0.00118424 0.0248758 0)
(-0.00631934 0.05504 0)
(-0.0150148 0.069384 0)
(-0.0244556 0.073559 0)
(-0.0335149 0.0721699 0)
(-0.0417796 0.0679989 0)
(-0.0490806 0.0624617 0)
(-0.0553866 0.0562294 0)
(-0.0607416 0.0496314 0)
(-0.0652241 0.0428454 0)
(-0.0689258 0.0359732 0)
(-0.0719383 0.0290682 0)
(-0.0743444 0.0221478 0)
(-0.0762116 0.0152012 0)
(-0.0775873 0.00819547 0)
(-0.0784946 0.00108144 0)
(-0.0789294 -0.0062012 0)
(-0.0788559 -0.0137179 0)
(-0.0782017 -0.0215315 0)
(-0.0768536 -0.0296925 0)
(-0.0746544 -0.0382238 0)
(-0.0714016 -0.0470987 0)
(-0.0668544 -0.0562021 0)
(-0.0607548 -0.065263 0)
(-0.0528809 -0.0737226 0)
(-0.0431526 -0.0804875 0)
(-0.0317891 -0.0835185 0)
(-0.0195063 -0.0793163 0)
(-0.00808015 -0.0627152 0)
(-0.00144992 -0.0280006 0)
(-0.00140499 0.028542 0)
(-0.0074431 0.0629639 0)
(-0.0175672 0.0790418 0)
(-0.0283992 0.0833653 0)
(-0.038608 0.0813156 0)
(-0.0477391 0.0761468 0)
(-0.0556394 0.0695197 0)
(-0.0623204 0.0622245 0)
(-0.0678786 0.0546463 0)
(-0.0724455 0.0469867 0)
(-0.0761604 0.0393524 0)
(-0.0791563 0.0317895 0)
(-0.08155 0.0243006 0)
(-0.0834366 0.0168543 0)
(-0.0848848 0.00939299 0)
(-0.0859333 0.00183857 0)
(-0.086588 -0.00590235 0)
(-0.0868166 -0.0139327 0)
(-0.0865413 -0.0223589 0)
(-0.0856314 -0.0312812 0)
(-0.083894 -0.0407771 0)
(-0.0810655 -0.0508743 0)
(-0.0768099 -0.0615006 0)
(-0.0707345 -0.0723902 0)
(-0.0624482 -0.0829048 0)
(-0.0516982 -0.0917086 0)
(-0.0385974 -0.0962577 0)
(-0.0239348 -0.0922065 0)
(-0.00995855 -0.0732589 0)
(-0.00177742 -0.0327057 0)
(-0.00170426 0.0328989 0)
(-0.00892322 0.0722932 0)
(-0.0208564 0.0902504 0)
(-0.0333735 0.0945416 0)
(-0.0448941 0.0915248 0)
(-0.0549384 0.0850399 0)
(-0.0633988 0.0770448 0)
(-0.0703599 0.0684678 0)
(-0.0759968 0.0597533 0)
(-0.0805136 0.0511221 0)
(-0.084112 0.0426778 0)
(-0.0869762 0.0344513 0)
(-0.0892636 0.0264219 0)
(-0.0911014 0.0185307 0)
(-0.0925835 0.010689 0)
(-0.0937686 0.00278442 0)
(-0.0946774 -0.00531502 0)
(-0.0952873 -0.0137573 0)
(-0.0955232 -0.0227029 0)
(-0.0952451 -0.0323175 0)
(-0.0942311 -0.0427573 0)
(-0.0921566 -0.054139 0)
(-0.0885765 -0.0664792 0)
(-0.0829229 -0.0795684 0)
(-0.0745549 -0.0927254 0)
(-0.0629219 -0.104352 0)
(-0.04788 -0.111253 0)
(-0.0301874 -0.107901 0)
(-0.0126892 -0.0863675 0)
(-0.00226574 -0.0385694 0)
(-0.00213173 0.0381868 0)
(-0.0109431 0.0834513 0)
(-0.0252057 0.10339 0)
(-0.0397672 0.10733 0)
(-0.0527556 0.102895 0)
(-0.0637087 0.0946602 0)
(-0.0726174 0.0849408 0)
(-0.0796855 0.0748187 0)
(-0.0852024 0.0647934 0)
(-0.0894696 0.0550931 0)
(-0.0927672 0.0458048 0)
(-0.0953398 0.0369306 0)
(-0.0973911 0.0284159 0)
(-0.0990831 0.0201653 0)
(-0.100538 0.0120532 0)
(-0.101837 0.00392819 0)
(-0.103022 -0.00438436 0)
(-0.104088 -0.0130824 0)
(-0.104975 -0.022389 0)
(-0.105551 -0.0325502 0)
(-0.105582 -0.0438275 0)
(-0.104698 -0.0564716 0)
(-0.102348 -0.0706553 0)
(-0.0977561 -0.0863173 0)
(-0.0899391 -0.102828 0)
(-0.0778649 -0.118362 0)
(-0.0608589 -0.128932 0)
(-0.0393751 -0.127341 0)
(-0.0169153 -0.103164 0)
(-0.00307291 -0.0461791 0)
(-0.00278267 0.0447859 0)
(-0.0138144 0.0970483 0)
(-0.0311138 0.118954 0)
(-0.048132 0.121993 0)
(-0.0626897 0.115477 0)
(-0.0744379 0.104908 0)
(-0.0835559 0.0930173 0)
(-0.0904339 0.0810442 0)
(-0.0955223 0.0695253 0)
(-0.0992489 0.0586723 0)
(-0.101988 0.0485322 0)
(-0.10405 0.0390592 0)
(-0.105689 0.03015 0)
(-0.107099 0.0216633 0)
(-0.108431 0.0134303 0)
(-0.109791 0.0052583 0)
(-0.111245 -0.00307092 0)
(-0.112817 -0.0118053 0)
(-0.11448 -0.0212335 0)
(-0.116132 -0.0316921 0)
(-0.117563 -0.0435716 0)
(-0.118397 -0.0573059 0)
(-0.118013 -0.073315 0)
(-0.115433 -0.09183 0)
(-0.109253 -0.112464 0)
(-0.0977286 -0.133333 0)
(-0.0792102 -0.149596 0)
(-0.0532595 -0.151761 0)
(-0.023836 -0.125438 0)
(-0.00454932 -0.0566325 0)
(-0.00384542 0.05333 0)
(-0.0180731 0.113969 0)
(-0.0393315 0.137551 0)
(-0.0591958 0.138761 0)
(-0.0752487 0.129202 0)
(-0.0874466 0.115526 0)
(-0.0963015 0.100924 0)
(-0.102484 0.0867667 0)
(-0.106662 0.0735859 0)
(-0.109419 0.0615335 0)
(-0.111233 0.0505808 0)
(-0.112483 0.0406067 0)
(-0.113464 0.0314409 0)
(-0.114399 0.0228855 0)
(-0.115459 0.0147243 0)
(-0.116772 0.00672322 0)
(-0.118431 -0.00137486 0)
(-0.120497 -0.00986086 0)
(-0.122992 -0.0190824 0)
(-0.125878 -0.0294645 0)
(-0.129019 -0.0415375 0)
(-0.132107 -0.0559595 0)
(-0.134539 -0.0734978 0)
(-0.135218 -0.0948744 0)
(-0.132325 -0.120272 0)
(-0.123198 -0.148153 0)
(-0.10461 -0.173045 0)
(-0.0741785 -0.182525 0)
(-0.0354861 -0.155939 0)
(-0.00742093 -0.0720269 0)
(-0.00569314 0.0649214 0)
(-0.0246211 0.135475 0)
(-0.0508868 0.159835 0)
(-0.0737006 0.15767 0)
(-0.0906964 0.1437 0)
(-0.102496 0.125939 0)
(-0.110163 0.108017 0)
(-0.114768 0.0913606 0)
(-0.117257 0.0764123 0)
(-0.118386 0.0631945 0)
(-0.118735 0.05155 0)
(-0.118736 0.0412468 0)
(-0.118705 0.0320256 0)
(-0.118876 0.0236213 0)
(-0.119426 0.0157686 0)
(-0.120492 0.00819747 0)
(-0.122186 0.000621966 0)
(-0.124607 -0.00727921 0)
(-0.127842 -0.0158875 0)
(-0.131944 -0.0256965 0)
(-0.136906 -0.0373604 0)
(-0.142587 -0.0517704 0)
(-0.148555 -0.0701163 0)
(-0.153802 -0.0938285 0)
(-0.156293 -0.124119 0)
(-0.152453 -0.160551 0)
(-0.136912 -0.197809 0)
(-0.10388 -0.22037 0)
(-0.0546183 -0.198302 0)
(-0.0129896 -0.0961393 0)
(-0.00903941 0.0815197 0)
(-0.0348621 0.163231 0)
(-0.0667981 0.186179 0)
(-0.0916032 0.178129 0)
(-0.107777 0.157884 0)
(-0.117234 0.134894 0)
(-0.121888 0.113076 0)
(-0.123336 0.0937377 0)
(-0.122833 0.0770852 0)
(-0.121294 0.0629037 0)
(-0.119358 0.0508353 0)
(-0.117461 0.0404936 0)
(-0.115899 0.0315089 0)
(-0.114875 0.0235415 0)
(-0.11454 0.0162795 0)
(-0.115015 0.0094274 0)
(-0.116414 0.00268676 0)
(-0.118857 -0.00427095 0)
(-0.122486 -0.0118238 0)
(-0.127459 -0.0204915 0)
(-0.133932 -0.0309972 0)
(-0.142018 -0.0444135 0)
(-0.15164 -0.062347 0)
(-0.162209 -0.0870803 0)
(-0.171984 -0.121342 0)
(-0.177001 -0.166868 0)
(-0.16977 -0.220135 0)
(-0.139817 -0.263679 0)
(-0.0829578 -0.255729 0)
(-0.0229625 -0.134822 0)
(-0.0151172 0.106525 0)
(-0.0505263 0.198828 0)
(-0.0866347 0.215627 0)
(-0.109382 0.197796 0)
(-0.120149 0.168979 0)
(-0.123095 0.139717 0)
(-0.121274 0.113777 0)
(-0.116838 0.0919952 0)
(-0.111264 0.0741035 0)
(-0.105496 0.0594986 0)
(-0.100105 0.0475384 0)
(-0.0954199 0.0376435 0)
(-0.0916261 0.0293218 0)
(-0.0888282 0.022163 0)
(-0.0870951 0.0158209 0)
(-0.0864903 0.00999181 0)
(-0.087093 0.00438868 0)
(-0.0890034 -0.00128836 0)
(-0.0923883 -0.00739672 0)
(-0.0974805 -0.0144014 0)
(-0.104575 -0.0230068 0)
(-0.114051 -0.0343428 0)
(-0.126306 -0.0502887 0)
(-0.141517 -0.0739055 0)
(-0.159021 -0.10969 0)
(-0.175805 -0.162597 0)
(-0.183714 -0.233307 0)
(-0.167963 -0.305913 0)
(-0.115855 -0.327515 0)
(-0.0377479 -0.195784 0)
(-0.0255265 0.145521 0)
(-0.0719182 0.241167 0)
(-0.103341 0.242605 0)
(-0.112534 0.209819 0)
(-0.107895 0.170598 0)
(-0.0966491 0.135153 0)
(-0.082785 0.106086 0)
(-0.0685754 0.083164 0)
(-0.0552739 0.0653279 0)
(-0.0434772 0.0514451 0)
(-0.0334005 0.0405459 0)
(-0.0250618 0.0318628 0)
(-0.0183917 0.0248065 0)
(-0.0132965 0.018927 0)
(-0.00969394 0.0138745 0)
(-0.00753347 0.00936511 0)
(-0.00680971 0.00515077 0)
(-0.00757649 0.000987897 0)
(-0.00995926 -0.00341685 0)
(-0.0141759 -0.00842547 0)
(-0.020593 -0.0146146 0)
(-0.0297616 -0.0229902 0)
(-0.0424879 -0.0353916 0)
(-0.0598512 -0.0552036 0)
(-0.0829672 -0.0882681 0)
(-0.111685 -0.143022 0)
(-0.140692 -0.226774 0)
(-0.154874 -0.331611 0)
(-0.133626 -0.401915 0)
(-0.0517126 -0.287271 0)
(-0.0397203 0.208313 0)
(-0.0893887 0.278823 0)
(-0.0867948 0.248508 0)
(-0.0581816 0.197577 0)
(-0.0222352 0.150395 0)
(0.0128795 0.112739 0)
(0.0443008 0.0844711 0)
(0.0711797 0.063743 0)
(0.0935611 0.0485831 0)
(0.111888 0.0373956 0)
(0.126718 0.0290073 0)
(0.138589 0.0225854 0)
(0.147959 0.0175462 0)
(0.155199 0.0134786 0)
(0.160585 0.0100866 0)
(0.164312 0.00714713 0)
(0.166492 0.00447927 0)
(0.167155 0.00191766 0)
(0.166249 -0.000717656 0)
(0.16363 -0.00367493 0)
(0.15897 -0.00732003 0)
(0.15169 -0.0123451 0)
(0.140792 -0.020118 0)
(0.124534 -0.0334381 0)
(0.100018 -0.0579171 0)
(0.0633104 -0.103725 0)
(0.0124288 -0.185325 0)
(-0.0461571 -0.310911 0)
(-0.0958229 -0.442589 0)
(-0.0452505 -0.399144 0)
(-0.0313704 0.301449 0)
(-0.0409176 0.280414 0)
(0.0598562 0.198996 0)
(0.153881 0.139573 0)
(0.229658 0.0971372 0)
(0.28879 0.0673022 0)
(0.334392 0.0470712 0)
(0.369368 0.0335825 0)
(0.396225 0.0245223 0)
(0.416957 0.0183035 0)
(0.433056 0.0139116 0)
(0.445601 0.0107076 0)
(0.455373 0.00828761 0)
(0.462932 0.00639339 0)
(0.468673 0.0048548 0)
(0.47287 0.00355332 0)
(0.475702 0.00239882 0)
(0.477257 0.00131497 0)
(0.477539 0.000230391 0)
(0.47649 -0.000947676 0)
(0.47387 -0.00241803 0)
(0.469201 -0.00448615 0)
(0.461552 -0.00778343 0)
(0.449064 -0.0137028 0)
(0.428006 -0.0253964 0)
(0.391332 -0.0500047 0)
(0.328484 -0.102881 0)
(0.226931 -0.210108 0)
(0.0690431 -0.376352 0)
(0.0374021 -0.436659 0)
(0.305683 0.183308 0)
(0.389879 0.148084 0)
(0.570998 0.093335 0)
(0.694834 0.0586742 0)
(0.770064 0.0368572 0)
(0.818246 0.0229119 0)
(0.850561 0.0142733 0)
(0.872719 0.00908844 0)
(0.888285 0.00600172 0)
(0.899561 0.00413661 0)
(0.907967 0.00297208 0)
(0.914369 0.00220955 0)
(0.919303 0.00168065 0)
(0.923118 0.001291 0)
(0.926042 0.000986943 0)
(0.928227 0.000736225 0)
(0.929772 0.000517133 0)
(0.93073 0.000312298 0)
(0.931122 0.000107089 0)
(0.930901 -9.5359e-05 0)
(0.92993 -0.000366043 0)
(0.927977 -0.000771378 0)
(0.924504 -0.00144282 0)
(0.918366 -0.00268331 0)
(0.90707 -0.00520199 0)
(0.885061 -0.0107567 0)
(0.839946 -0.0237626 0)
(0.747196 -0.0568902 0)
(0.529458 -0.13578 0)
(0.377834 -0.200605 0)
)
;

boundaryField
{
    movingWall
    {
        type            fixedValue;
        value           uniform (1.2 0 0);
    }
    fixedWalls
    {
        type            noSlip;
    }
    frontAndBack
    {
        type            empty;
    }
}


// ************************************************************************* //
