/*--------------------------------*- C++ -*----------------------------------*\
  =========                 |
  \\      /  F ield         | OpenFOAM: The Open Source CFD Toolbox
   \\    /   O peration     | Website:  https://openfoam.org
    \\  /    A nd           | Version:  7
     \\/     M anipulation  |
\*---------------------------------------------------------------------------*/
FoamFile
{
    version     2.0;
    format      ascii;
    class       volScalarField;
    location    "4";
    object      p;
}
// * * * * * * * * * * * * * * * * * * * * * * * * * * * * * * * * * * * * * //

dimensions      [0 2 -2 0 0 0 0];

internalField   nonuniform List<scalar> 
900
(
2.48609e-08
-0.000283681
-0.00072315
-0.0011448
-0.00148438
-0.00168954
-0.00173557
-0.00161341
-0.00132049
-0.000856869
-0.000224445
0.000572017
0.00152267
0.00260995
0.00380614
0.00507176
0.00635553
0.00759593
0.0087254
0.00967641
0.0103893
0.0108206
0.0109508
0.0107902
0.0103809
0.00979637
0.00912996
0.00850663
0.00805676
0.00789883
0.00028125
-1.05122e-05
-0.000332005
-0.000631167
-0.000860592
-0.000983496
-0.000980212
-0.000841239
-0.000562014
-0.00014083
0.000421569
0.0011212
0.00194928
0.00289027
0.00392008
0.00500473
0.00610182
0.00715941
0.00812164
0.00893328
0.00954613
0.00992613
0.0100596
0.00995731
0.009656
0.00921584
0.00871436
0.00824075
0.00788778
0.00773912
0.000733934
0.000300157
-3.13299e-05
-0.000295236
-0.000482121
-0.000568948
-0.000543766
-0.000400916
-0.000136953
0.000250217
0.000761075
0.00139349
0.00214111
0.00299146
0.00392417
0.00491002
0.00591041
0.00687849
0.00776276
0.00851161
0.00907963
0.0094344
0.00956257
0.00947384
0.00920162
0.00879996
0.00833764
0.00789091
0.00753066
0.00730062
0.00118781
0.000584935
0.000194668
-7.76933e-05
-0.000257047
-0.000333289
-0.000303286
-0.00016694
7.68373e-05
0.000430057
0.000894689
0.00147122
0.00215675
0.00294275
0.00381296
0.00474185
0.00569402
0.00662436
0.00748178
0.00821352
0.00877174
0.00912084
0.00924413
0.00914829
0.00886412
0.00844297
0.00795072
0.00746016
0.00702724
0.00666404
0.00155757
0.000773915
0.00030809
8.12358e-06
-0.00018184
-0.000263131
-0.000241065
-0.000121121
9.54097e-05
0.000410605
0.000828331
0.00135235
0.00198397
0.00271939
0.0035469
0.00444457
0.00538006
0.00630829
0.00717636
0.00792727
0.00850701
0.00887293
0.00900159
0.00889438
0.0085789
0.00810546
0.00754114
0.00696167
0.0064146
0.00588418
0.00175662
0.000795883
0.000248375
-9.03628e-05
-0.000303785
-0.000403101
-0.000401119
-0.000308244
-0.000127682
0.000143163
0.000510595
0.000982314
0.00156466
0.00225941
0.00305989
0.00394762
0.00489658
0.00585791
0.00677584
0.00758666
0.00822662
0.00864176
0.00879762
0.00868687
0.00833227
0.0077838
0.00711342
0.00640616
0.0057088
0.00498272
0.00171559
0.000588477
-4.07714e-05
-0.000424277
-0.000670282
-0.000798642
-0.000828648
-0.000774789
-0.000641526
-0.000425155
-0.000116311
0.000297414
0.000828316
0.00148481
0.00226585
0.00315444
0.00414638
0.00517458
0.00618317
0.00710046
0.00784938
0.00835967
0.00858019
0.00848964
0.00810241
0.00746755
0.00666475
0.00579478
0.0049108
0.00395498
0.00137595
9.59123e-05
-0.000611753
-0.00104285
-0.00132836
-0.00149596
-0.00157061
-0.00157011
-0.00149956
-0.00135357
-0.00111909
-0.000778122
-0.00031125
0.00029822
0.00106086
0.00197832
0.00300661
0.00412543
0.00526545
0.00634225
0.00726167
0.00793119
0.0082753
0.00825076
0.00785715
0.00713955
0.00618703
0.00512239
0.00401185
0.00277948
0.000685418
-0.000732691
-0.00151394
-0.00199427
-0.0023258
-0.00254358
-0.0026777
-0.00274877
-0.00276211
-0.00271031
-0.00257612
-0.00233519
-0.00195959
-0.00142226
-0.000701837
0.000211129
0.00130001
0.00253314
0.00384423
0.00514012
0.0063069
0.00722309
0.00777873
0.00789683
0.00755127
0.00677611
0.00566912
0.00438135
0.00299859
0.0014256
-0.000403112
-0.00194311
-0.00279252
-0.00332378
-0.00370869
-0.00398956
-0.00420134
-0.00436732
-0.00449304
-0.00456905
-0.00457372
-0.00447571
-0.00423713
-0.00381788
-0.00318133
-0.00230197
-0.00117617
0.000173735
0.00168688
0.00326383
0.00476972
0.00604733
0.00693971
0.00731938
0.00711707
0.0063423
0.00509654
0.00356436
0.00185822
-0.000139357
-0.00193087
-0.00357502
-0.00448693
-0.00507148
-0.00551861
-0.00587793
-0.00618948
-0.00647948
-0.00675417
-0.00700258
-0.00719906
-0.00730506
-0.00727153
-0.00704268
-0.00656174
-0.00577975
-0.00466765
-0.00322429
-0.00149664
0.000417104
0.00236366
0.00414504
0.00554329
0.00635835
0.00645168
0.00578475
0.00444975
0.00266721
0.00058389
-0.00194329
-0.00393161
-0.0056606
-0.00662924
-0.00727007
-0.00778953
-0.00824482
-0.00868159
-0.00912984
-0.00959757
-0.0100735
-0.0105291
-0.0109189
-0.0111823
-0.0112454
-0.0110265
-0.0104455
-0.00943793
-0.00796236
-0.00604063
-0.0037553
-0.00126912
0.0011789
0.00329701
0.00478637
0.00540288
0.00502234
0.00370135
0.00169156
-0.00081888
-0.00400155
-0.00642957
-0.00822289
-0.00924223
-0.00994242
-0.0105445
-0.0111138
-0.0117026
-0.0123461
-0.0130557
-0.0138219
-0.014615
-0.0153845
-0.0160581
-0.0165426
-0.0167271
-0.0164913
-0.0157192
-0.0143313
-0.0122868
-0.00963621
-0.0065352
-0.00325534
-0.000168812
0.00230039
0.00375726
0.00393663
0.00281267
0.000648466
-0.00232395
-0.00630674
-0.00943732
-0.0112744
-0.012338
-0.0130993
-0.0137922
-0.0144911
-0.0152562
-0.01613
-0.0171297
-0.0182504
-0.0194641
-0.0207175
-0.0219284
-0.022984
-0.0237416
-0.0240355
-0.0236915
-0.0225546
-0.020519
-0.0175716
-0.0138326
-0.00958439
-0.00527332
-0.00146717
0.00123924
0.00236671
0.00173214
-0.000435978
-0.00387274
-0.00881394
-0.0129544
-0.0148163
-0.0159169
-0.016738
-0.0175243
-0.0183609
-0.0193184
-0.0204487
-0.0217783
-0.0233099
-0.0250208
-0.0268582
-0.0287332
-0.0305148
-0.0320278
-0.0330569
-0.0333601
-0.0326955
-0.0308693
-0.0277721
-0.0234531
-0.0181694
-0.0124154
-0.00690252
-0.00246582
0.00011739
0.000399878
-0.00151062
-0.00535697
-0.0114193
-0.0169667
-0.0188396
-0.0199687
-0.0208417
-0.0217135
-0.0226823
-0.0238319
-0.0252274
-0.0269077
-0.0288869
-0.0311515
-0.0336532
-0.0362998
-0.0389453
-0.041384
-0.0433506
-0.0445313
-0.0445897
-0.0432223
-0.0401983
-0.0354557
-0.0291771
-0.0218559
-0.0143171
-0.00764962
-0.00300705
-0.00123381
-0.00248127
-0.00659368
-0.013929
-0.0214488
-0.0233277
-0.0244748
-0.0253811
-0.0263136
-0.0273872
-0.0287036
-0.0303452
-0.0323672
-0.0347987
-0.0376388
-0.0408474
-0.0443329
-0.0479385
-0.0514317
-0.0545006
-0.0567626
-0.0577891
-0.0571404
-0.0544626
-0.0495433
-0.0424369
-0.0335678
-0.0238083
-0.0144712
-0.00713067
-0.00316602
-0.00317966
-0.00728985
-0.0160171
-0.0263676
-0.0282625
-0.0294136
-0.0303184
-0.0312613
-0.032381
-0.033804
-0.0356352
-0.0379501
-0.0407959
-0.0441868
-0.0480937
-0.0524282
-0.0570267
-0.0616345
-0.0658994
-0.0693759
-0.0715444
-0.0718477
-0.0697927
-0.0649941
-0.0573341
-0.0470954
-0.0351032
-0.022809
-0.0121906
-0.00526611
-0.00331289
-0.00699391
-0.0171687
-0.0316911
-0.0336346
-0.0347694
-0.0356126
-0.0364797
-0.0375453
-0.0389706
-0.0408898
-0.0434028
-0.0465768
-0.0504421
-0.0549809
-0.0601095
-0.0656591
-0.0713575
-0.0768183
-0.0815424
-0.0849312
-0.0863192
-0.0851013
-0.0806986
-0.0728002
-0.0614885
-0.0474388
-0.0321122
-0.0177933
-0.00716461
-0.00238777
-0.00503122
-0.016606
-0.0374026
-0.0394592
-0.0405445
-0.0412275
-0.0418832
-0.0427418
-0.0440136
-0.0458706
-0.0484404
-0.0518104
-0.0560258
-0.0610777
-0.0668853
-0.0732742
-0.0799564
-0.0865166
-0.0924105
-0.0969825
-0.0995012
-0.0991654
-0.0953178
-0.087436
-0.0753656
-0.0595487
-0.0413126
-0.0230818
-0.00812096
0.00039232
-0.000420426
-0.0131905
-0.043525
-0.0458009
-0.0467766
-0.0471408
-0.0473816
-0.0478165
-0.0487235
-0.0503216
-0.0527676
-0.0561667
-0.0605741
-0.0659844
-0.0723142
-0.0793797
-0.0868756
-0.0943596
-0.10125
-0.106836
-0.110314
-0.110814
-0.10752
-0.0997481
-0.087117
-0.0697945
-0.0488576
-0.0266753
-0.00690596
0.0062497
0.00823187
-0.00528875
-0.0501668
-0.0528136
-0.0535614
-0.0533522
-0.0528828
-0.0526027
-0.0528797
-0.0539854
-0.0561035
-0.0593496
-0.0637797
-0.0693826
-0.0760635
-0.0836218
-0.0917303
-0.0999168
-0.107564
-0.113915
-0.118101
-0.119182
-0.116239
-0.108433
-0.0951949
-0.0764242
-0.0528878
-0.0267288
-0.00175026
0.016948
0.0228592
0.00942391
-0.0576102
-0.0608053
-0.0610829
-0.0598901
-0.0582913
-0.0569235
-0.0562595
-0.0566212
-0.058207
-0.0611287
-0.0654283
-0.0710753
-0.0779504
-0.0858275
-0.0943512
-0.103008
-0.111144
-0.117955
-0.122512
-0.123794
-0.120839
-0.112597
-0.098391
-0.0778843
-0.0515295
-0.0211379
0.00958772
0.0348593
0.0460985
0.0342707
-0.0664986
-0.0703471
-0.0696501
-0.0668132
-0.0635038
-0.0605926
-0.0586498
-0.058024
-0.0589018
-0.0613663
-0.0654243
-0.0710089
-0.0779621
-0.0860175
-0.0947764
-0.103689
-0.112051
-0.119005
-0.123559
-0.124624
-0.121075
-0.111837
-0.0960222
-0.0731041
-0.0432515
-0.00789547
0.0295688
0.0629256
0.081513
0.0740563
-0.0782516
-0.0824545
-0.0797263
-0.0741922
-0.0683905
-0.0634082
-0.0598511
-0.0580363
-0.0580898
-0.0600286
-0.0637959
-0.0692659
-0.0762273
-0.0843615
-0.0932189
-0.1022
-0.110546
-0.117336
-0.121505
-0.121874
-0.117202
-0.106274
-0.0880214
-0.0617107
-0.0272505
0.0143895
0.0603266
0.104388
0.133764
0.135556
-0.0960212
-0.0988951
-0.0918996
-0.0820268
-0.072726
-0.0650998
-0.0596371
-0.0565138
-0.055719
-0.0571506
-0.0606545
-0.0660229
-0.0729748
-0.0811297
-0.0899813
-0.0988747
-0.106993
-0.11335
-0.116802
-0.116073
-0.10977
-0.0965165
-0.0750183
-0.044254
-0.00376105
0.0459542
0.102858
0.161965
0.208143
0.227415
-0.126827
-0.122628
-0.106827
-0.0901434
-0.0760808
-0.0652291
-0.0576705
-0.053258
-0.0517282
-0.0527909
-0.0561537
-0.0615051
-0.0684834
-0.0766423
-0.0854186
-0.0941051
-0.101832
-0.107554
-0.11006
-0.107985
-0.0997419
-0.0837926
-0.0585436
-0.0225486
0.0252564
0.0852408
0.156752
0.236082
0.308828
0.361389
-0.186444
-0.156853
-0.124643
-0.0977414
-0.0774052
-0.0628888
-0.053332
-0.0479365
-0.0460178
-0.047021
-0.0504854
-0.0559889
-0.0630931
-0.0712961
-0.0799912
-0.0884336
-0.0957157
-0.10075
-0.102271
-0.0988415
-0.088805
-0.0703674
-0.0415937
-0.000470707
0.0550446
0.126913
0.216907
0.324222
0.438094
0.564367
-0.31821
-0.197085
-0.136584
-0.0968725
-0.0704977
-0.0535869
-0.0435352
-0.0384736
-0.0371777
-0.0388588
-0.042952
-0.048983
-0.0564873
-0.0649508
-0.0737618
-0.0821749
-0.0892828
-0.093993
-0.0950075
-0.0907822
-0.0798881
-0.0601912
-0.0295048
0.0147244
0.0757261
0.1579
0.267663
0.413387
0.60189
0.891484
-0.645183
-0.233269
-0.105029
-0.0618272
-0.0386899
-0.0257751
-0.0200372
-0.0188399
-0.0206322
-0.0246914
-0.0306104
-0.0380511
-0.0466556
-0.0559953
-0.0655293
-0.0745719
-0.0822691
-0.0875859
-0.0893107
-0.0860676
-0.0760001
-0.0572902
-0.0277404
0.0154127
0.0759879
0.160264
0.280652
0.465364
0.771613
1.36553
)
;

boundaryField
{
    movingWall
    {
        type            zeroGradient;
    }
    fixedWalls
    {
        type            zeroGradient;
    }
    frontAndBack
    {
        type            empty;
    }
}


// ************************************************************************* //
