/*--------------------------------*- C++ -*----------------------------------*\
  =========                 |
  \\      /  F ield         | OpenFOAM: The Open Source CFD Toolbox
   \\    /   O peration     | Website:  https://openfoam.org
    \\  /    A nd           | Version:  7
     \\/     M anipulation  |
\*---------------------------------------------------------------------------*/
FoamFile
{
    version     2.0;
    format      ascii;
    class       surfaceScalarField;
    location    "4";
    object      phi;
}
// * * * * * * * * * * * * * * * * * * * * * * * * * * * * * * * * * * * * * //

dimensions      [0 3 -1 0 0 0 0];

internalField   nonuniform List<scalar> 
1740
(
5.5066e-07
-5.50679e-07
4.76487e-08
5.03014e-07
-1.74318e-06
1.79084e-06
-4.66367e-06
2.92049e-06
-8.40933e-06
3.74566e-06
-1.26869e-05
4.27759e-06
-1.72538e-05
4.56685e-06
-2.19151e-05
4.66134e-06
-2.6508e-05
4.59289e-06
-3.08838e-05
4.37576e-06
-3.48941e-05
4.01033e-06
-3.8383e-05
3.48886e-06
-4.11854e-05
2.80239e-06
-4.31331e-05
1.94776e-06
-4.40675e-05
9.34332e-07
-4.38566e-05
-2.10829e-07
-4.24165e-05
-1.44011e-06
-3.97337e-05
-2.68287e-06
-3.58832e-05
-3.85045e-06
-3.104e-05
-4.84316e-06
-2.54788e-05
-5.56122e-06
-1.95603e-05
-5.91856e-06
-1.37033e-05
-5.85695e-06
-8.34524e-06
-5.35807e-06
-3.89417e-06
-4.45107e-06
-6.7623e-07
-3.21794e-06
1.12837e-06
-1.8046e-06
1.53473e-06
-4.06368e-07
8.53861e-07
6.80875e-07
8.53863e-07
-4.88368e-07
-6.23115e-08
-3.41849e-06
3.43314e-06
-9.14158e-06
7.5139e-06
-1.72566e-05
1.10356e-05
-2.72083e-05
1.36973e-05
-3.84082e-05
1.54776e-05
-5.03102e-05
1.64688e-05
-6.24294e-05
1.67806e-05
-7.4331e-05
1.64944e-05
-8.56064e-05
1.56512e-05
-9.58537e-05
1.42576e-05
-0.000104666
1.23007e-05
-0.000111631
9.76833e-06
-0.000116353
6.66944e-06
-0.000118472
3.05352e-06
-0.000117714
-9.69364e-07
-0.000113917
-5.23652e-06
-0.000107096
-9.50396e-06
-9.74633e-05
-1.34834e-05
-8.54515e-05
-1.6855e-05
-7.17094e-05
-1.93033e-05
-5.70682e-05
-2.05598e-05
-4.24793e-05
-2.04458e-05
-2.89261e-05
-1.89112e-05
-1.7317e-05
-1.60603e-05
-8.36838e-06
-1.21665e-05
-2.49307e-06
-7.67992e-06
3.3602e-07
-3.23546e-06
7.3641e-07
2.80488e-07
1.59028e-06
-1.89153e-06
1.82922e-06
-7.89485e-06
9.43647e-06
-1.77348e-05
1.73538e-05
-3.08075e-05
2.41083e-05
-4.63498e-05
2.92396e-05
-6.35739e-05
3.27017e-05
-8.17313e-05
3.46262e-05
-0.000100133
3.5182e-05
-0.000118138
3.44999e-05
-0.000135136
3.2649e-05
-0.000150523
2.96442e-05
-0.000163694
2.54725e-05
-0.000174054
2.01277e-05
-0.000181033
1.36488e-05
-0.000184135
6.15532e-06
-0.00018298
-2.12392e-06
-0.000177368
-1.08493e-05
-0.00016733
-1.95418e-05
-0.000153177
-2.7636e-05
-0.000135521
-3.45113e-05
-0.000115266
-3.95579e-05
-9.35699e-05
-4.22561e-05
-7.17571e-05
-4.22586e-05
-5.1203e-05
-3.94653e-05
-3.31871e-05
-3.40762e-05
-1.87348e-05
-2.66188e-05
-8.4609e-06
-1.79539e-05
-2.42848e-06
-9.26787e-06
-6.01894e-08
-2.0878e-06
1.53009e-06
-3.32939e-06
5.1586e-06
-1.24355e-05
1.85426e-05
-2.64081e-05
3.13264e-05
-4.42741e-05
4.19743e-05
-6.50399e-05
5.00054e-05
-8.77444e-05
5.54061e-05
-0.000111488
5.837e-05
-0.000135436
5.913e-05
-0.000158801
5.78649e-05
-0.000180821
5.46687e-05
-0.000200739
4.95627e-05
-0.000217801
4.25338e-05
-0.00023126
3.35866e-05
-0.000240411
2.28002e-05
-0.000244637
1.0381e-05
-0.000243464
-3.2965e-06
-0.000236631
-1.76824e-05
-0.000224156
-3.20162e-05
-0.000206392
-4.54008e-05
-0.000184052
-5.68509e-05
-0.000158216
-6.53936e-05
-0.000130283
-7.01895e-05
-0.000101878
-7.06639e-05
-7.47149e-05
-6.6628e-05
-5.04215e-05
-5.83695e-05
-3.0343e-05
-4.66973e-05
-1.53567e-05
-3.29402e-05
-5.71971e-06
-1.89048e-05
-9.86806e-07
-6.82071e-06
5.43286e-07
-4.6633e-06
9.8219e-06
-1.67658e-05
3.06451e-05
-3.47445e-05
4.93051e-05
-5.7214e-05
6.44438e-05
-8.2923e-05
7.57144e-05
-0.000110742
8.32251e-05
-0.000139648
8.7276e-05
-0.0001687
8.8182e-05
-0.000197008
8.6173e-05
-0.000223704
8.13644e-05
-0.000247919
7.37776e-05
-0.000268778
6.33932e-05
-0.000285413
5.02215e-05
-0.000296993
3.43796e-05
-0.000302774
1.61628e-05
-0.000302172
-3.89904e-06
-0.000294818
-2.50358e-05
-0.000280663
-4.6172e-05
-0.000260027
-6.60367e-05
-0.000233656
-8.32212e-05
-0.000202736
-9.6314e-05
-0.000168856
-0.00010407
-0.000133919
-0.000105601
-9.99884e-05
-0.000100558
-6.90837e-05
-8.92743e-05
-4.29428e-05
-7.28382e-05
-2.27975e-05
-5.30854e-05
-9.196e-06
-3.25064e-05
-1.91669e-06
-1.41e-05
-1.3734e-06
-5.87716e-06
1.56991e-05
-2.0797e-05
4.55649e-05
-4.25833e-05
7.10914e-05
-6.94365e-05
9.1297e-05
-9.98418e-05
0.00010612
-0.000132507
0.00011589
-0.000166303
0.000121073
-0.000200215
0.000122093
-0.000233283
0.000119242
-0.000264571
0.000112652
-0.00029313
0.000102336
-0.000317991
8.82542e-05
-0.000338175
7.04059e-05
-0.000352724
4.89281e-05
-0.00036075
2.4189e-05
-0.000361522
-3.12647e-06
-0.000354495
-3.2063e-05
-0.00033948
-6.11869e-05
-0.000316687
-8.88299e-05
-0.000286809
-0.000113099
-0.000251068
-0.000132055
-0.000211208
-0.000143931
-0.00016941
-0.000147399
-0.000128136
-0.000141832
-8.98867e-05
-0.000127524
-5.69138e-05
-0.000105811
-3.09318e-05
-7.90675e-05
-1.28865e-05
-5.05517e-05
-2.8417e-06
-2.41448e-05
-4.21511e-06
-6.98172e-06
2.26808e-05
-2.45148e-05
6.3098e-05
-4.98712e-05
9.64478e-05
-8.08624e-05
0.000122288
-0.000115723
0.00014098
-0.000153008
0.000153176
-0.000191507
0.000159571
-0.00023015
0.000160736
-0.000267944
0.000157036
-0.000303912
0.00014862
-0.000337054
0.000135478
-0.000366328
0.000117529
-0.000390654
9.47314e-05
-0.000408935
6.72097e-05
-0.000420104
3.53579e-05
-0.000423276
4.51879e-08
-0.000417595
-3.77434e-05
-0.000402692
-7.60903e-05
-0.000378553
-0.000112969
-0.000345721
-0.000145931
-0.000305375
-0.000172401
-0.000259362
-0.000189944
-0.000210145
-0.000196615
-0.000160646
-0.000191331
-0.000113969
-0.000174201
-7.30427e-05
-0.000146738
-4.02327e-05
-0.000111878
-1.70224e-05
-7.3762e-05
-3.83312e-06
-3.7334e-05
-8.04822e-06
-7.98615e-06
3.06669e-05
-2.79185e-05
8.30303e-05
-5.65815e-05
0.000125111
-9.14373e-05
0.000157144
-0.000130494
0.000180036
-0.000172178
0.00019486
-0.000215213
0.000202606
-0.000258505
0.000204028
-0.000301052
0.000199583
-0.000341869
0.000189437
-0.000379931
0.00017354
-0.000414142
0.00015174
-0.000443329
0.000123919
-0.000466256
9.0137e-05
-0.000481678
5.07798e-05
-0.000488329
6.69573e-06
-0.000485263
-4.08086e-05
-0.000471653
-8.97004e-05
-0.000447183
-0.000137439
-0.00041213
-0.000180984
-0.000367521
-0.00021701
-0.000315228
-0.000242237
-0.000257972
-0.000253871
-0.000199188
-0.000250115
-0.000142717
-0.000230672
-9.23625e-05
-0.000197092
-5.13672e-05
-0.000152873
-2.19461e-05
-0.000103183
-4.99615e-06
-5.4284e-05
-1.30444e-05
-8.89076e-06
3.95577e-05
-3.09944e-05
0.000105134
-6.26715e-05
0.000156788
-0.000101081
0.000195554
-0.000144037
0.000222992
-0.000189861
0.000240684
-0.000237235
0.00024998
-0.000285068
0.000251861
-0.000332376
0.000246892
-0.000378194
0.000235255
-0.0004215
0.000216846
-0.000461168
0.000191408
-0.000495946
0.000158696
-0.000524457
0.000118648
-0.000545232
7.15548e-05
-0.000556763
1.8227e-05
-0.000557669
-3.99027e-05
-0.000546749
-0.00010062
-0.000523239
-0.00016095
-0.000487006
-0.000217217
-0.000438778
-0.000265238
-0.000380324
-0.000300691
-0.000314548
-0.000319647
-0.000245405
-0.000319258
-0.000177597
-0.000298479
-0.00011603
-0.00025866
-6.511e-05
-0.000203793
-2.80604e-05
-0.000140233
-6.45187e-06
-7.58925e-05
-1.94962e-05
-9.68668e-06
4.92444e-05
-3.37092e-05
0.000129156
-6.80685e-05
0.000191147
-0.000109668
0.000237153
-0.000156162
0.000269486
-0.000205792
0.000290315
-0.000257226
0.000301413
-0.000309394
0.00030403
-0.000361363
0.000298861
-0.000412215
0.000286107
-0.000460961
0.000265592
-0.000506475
0.000236921
-0.00054745
0.000199671
-0.000582386
0.000153584
-0.000609605
9.87743e-05
-0.000627308
3.59294e-05
-0.000633689
-3.35211e-05
-0.000627067
-0.000107242
-0.000606125
-0.000181893
-0.00057017
-0.000253172
-0.000519444
-0.000315964
-0.000455423
-0.000364711
-0.000381032
-0.000394038
-0.000300678
-0.000399612
-0.000219995
-0.000379162
-0.000145222
-0.000333432
-8.22864e-05
-0.000266728
-3.58039e-05
-0.000186715
-8.33116e-06
-0.000103365
-2.78274e-05
-1.03582e-05
5.96026e-05
-3.60129e-05
0.000154811
-7.26719e-05
0.000227806
-0.00011703
0.000281511
-0.000166611
0.000319068
-0.000219605
0.000343308
-0.000274679
0.000356487
-0.000330813
0.000360164
-0.000387145
0.000355192
-0.000442835
0.000341797
-0.00049696
0.000319717
-0.00054843
0.000288391
-0.000595923
0.000247164
-0.000637855
0.000195515
-0.000672372
0.000133292
-0.000697393
6.09505e-05
-0.00071071
-2.02041e-05
-0.000710107
-0.000107845
-0.000693632
-0.000198368
-0.000659885
-0.000286919
-0.000608411
-0.000367438
-0.000540127
-0.000432996
-0.000457711
-0.000476454
-0.000365831
-0.000491493
-0.000271013
-0.00047398
-0.000181026
-0.00042342
-0.000103725
-0.00034403
-4.56369e-05
-0.000244803
-1.07741e-05
-0.000138228
-3.86015e-05
-1.08867e-05
7.04893e-05
-3.7848e-05
0.000181772
-7.63675e-05
0.000266326
-0.000122972
0.000328115
-0.000175085
0.00037118
-0.000230853
0.000399077
-0.000288966
0.0004146
-0.000348466
0.000419664
-0.000408582
0.000415308
-0.000468579
0.000401794
-0.000527638
0.000378776
-0.000584747
0.0003455
-0.000638622
0.00030104
-0.000687656
0.000244549
-0.000729888
0.000175524
-0.000763017
9.40792e-05
-0.000784493
1.27144e-06
-0.000791573
-0.000100764
-0.000781647
-0.000208294
-0.000752488
-0.000316078
-0.000702725
-0.0004172
-0.0006324
-0.000503321
-0.000543561
-0.000565293
-0.000440764
-0.00059429
-0.000331219
-0.000583525
-0.000224296
-0.000530343
-0.000130198
-0.000438127
-5.80293e-05
-0.000316972
-1.39313e-05
-0.000182326
-5.25328e-05
-1.1255e-05
8.17443e-05
-3.91638e-05
0.000209681
-7.90512e-05
0.000306213
-0.000127311
0.000376375
-0.000181277
0.000425147
-0.000239069
0.000456869
-0.000299399
0.00047493
-0.000361382
0.000481647
-0.000424353
0.000478279
-0.000487708
0.000465149
-0.00055076
0.000441829
-0.000612627
0.000407367
-0.000672131
0.000360544
-0.000727725
0.000300143
-0.000777443
0.000225242
-0.000818887
0.000135523
-0.000849225
3.16095e-05
-0.000865373
-8.46163e-05
-0.000864048
-0.000209618
-0.000842161
-0.000337965
-0.000797252
-0.000462109
-0.000728147
-0.000572426
-0.000635777
-0.000657663
-0.000524024
-0.000706043
-0.00040031
-0.000707239
-0.000275452
-0.000655201
-0.000162341
-0.000551238
-7.34404e-05
-0.000405873
-1.79648e-05
-0.000237802
-7.04975e-05
-1.14546e-05
9.31989e-05
-3.9934e-05
0.000238161
-8.06611e-05
0.00034694
-0.000129914
0.000425628
-0.000184944
0.000480176
-0.000243835
0.00051576
-0.000305323
0.000536418
-0.000368595
0.000544919
-0.000433102
0.000542786
-0.000498384
0.000530431
-0.000563924
0.000507368
-0.000629016
0.000472459
-0.000692662
0.000424189
-0.000753476
0.000360957
-0.000809617
0.000281383
-0.000858738
0.000184645
-0.000897965
7.08367e-05
-0.000923944
-5.86378e-05
-0.000932931
-0.000200632
-0.000921022
-0.000349873
-0.000884585
-0.000498546
-0.000820944
-0.000636067
-0.000729377
-0.00074923
-0.000612352
-0.000823067
-0.000476716
-0.000842875
-0.000334213
-0.000797704
-0.000200517
-0.000684934
-9.22826e-05
-0.000514107
-2.30464e-05
-0.000307038
-9.35439e-05
-1.14922e-05
0.000104691
-4.01802e-05
0.000266849
-8.12171e-05
0.000387977
-0.000130763
0.000475174
-0.00018597
0.000535384
-0.000244876
0.000574666
-0.00030623
0.000597771
-0.000369286
0.000607976
-0.000433613
0.000607113
-0.000498909
0.000595727
-0.000564851
0.00057331
-0.000630961
0.000538569
-0.000696492
0.00048972
-0.000760329
0.000424794
-0.000820902
0.000341956
-0.000876108
0.00023985
-0.000923242
0.00011797
-0.000958937
-2.2942e-05
-0.000979244
-0.000180325
-0.000979634
-0.000349484
-0.00095537
-0.00052281
-0.000902119
-0.000689318
-0.000817033
-0.000834316
-0.000700327
-0.000939773
-0.000557178
-0.000986024
-0.000399251
-0.000955632
-0.00024463
-0.000839555
-0.000114861
-0.000643876
-2.9351e-05
-0.000392547
-0.000122895
-1.13993e-05
0.000116091
-3.99974e-05
0.000295447
-8.08668e-05
0.000428847
-0.000130012
0.000524319
-0.000184454
0.000589826
-0.000242163
0.000632375
-0.000301886
0.000657495
-0.000362943
0.000669033
-0.000425019
0.000669189
-0.00048798
0.000658689
-0.000551723
0.000637052
-0.000616036
0.000602882
-0.000680494
0.000554178
-0.000744355
0.000488655
-0.000806465
0.000404066
-0.000865154
0.000298539
-0.000918131
0.000170947
-0.000962331
2.12581e-05
-0.000993902
-0.000148754
-0.00100804
-0.000335348
-0.000999155
-0.000531692
-0.000961332
-0.000727141
-0.000889309
-0.000906339
-0.000780276
-0.00104881
-0.000636438
-0.00112986
-0.000467838
-0.00112423
-0.000293891
-0.0010135
-0.000141283
-0.000796484
-3.7045e-05
-0.000496785
-0.00015994
-1.12428e-05
0.000127333
-3.95861e-05
0.00032379
-7.99373e-05
0.000469198
-0.000128059
0.000572441
-0.00018079
0.000642556
-0.000236006
0.000687591
-0.000292449
0.000713938
-0.000349505
0.000726089
-0.000406986
0.000726669
-0.000464939
0.000716642
-0.000523497
0.00069561
-0.000582754
0.000662139
-0.000642662
0.000614087
-0.000702937
0.00054893
-0.000762959
0.000464088
-0.000821661
0.000357242
-0.000877384
0.00022667
-0.000927717
7.15908e-05
-0.000969185
-0.000107287
-0.000997202
-0.000307331
-0.00100578
-0.000523117
-0.000987742
-0.000745177
-0.000935477
-0.000958604
-0.000842636
-0.00114165
-0.000707184
-0.00126532
-0.000535567
-0.00129585
-0.000346558
-0.00120251
-0.000171353
-0.000971689
-4.62711e-05
-0.000621867
-0.000206211
-1.11394e-05
0.000138473
-3.92911e-05
0.000351942
-7.89945e-05
0.000508901
-0.000125619
0.000619065
-0.000175745
0.000692683
-0.000227142
0.000738987
-0.00027856
0.000765356
-0.000329477
0.000777006
-0.000379853
0.000777045
-0.000429942
0.000766731
-0.000480139
0.000745807
-0.000530871
0.000712871
-0.000582507
0.000665722
-0.000635275
0.000601698
-0.000689173
0.000517986
-0.000743856
0.000411925
-0.000798475
0.000281289
-0.000851467
0.000124583
-0.00090015
-5.8604e-05
-0.000940617
-0.000266864
-0.00096704
-0.000496693
-0.000971628
-0.000740588
-0.000944875
-0.000985357
-0.000876883
-0.00120964
-0.000760441
-0.00138176
-0.000596298
-0.00145999
-0.000399722
-0.00139909
-0.000204457
-0.00116695
-5.71381e-05
-0.000769186
-0.000263349
-1.12778e-05
0.00014975
-3.96544e-05
0.000380318
-7.89133e-05
0.00054816
-0.000123788
0.000663939
-0.000170518
0.000739413
-0.000216776
0.000785246
-0.000261378
0.000809958
-0.000303951
0.000819579
-0.000344662
0.000817756
-0.00038401
0.000806079
-0.000422686
0.000784483
-0.000461473
0.000751658
-0.000501179
0.000705428
-0.000542567
0.000643087
-0.000586286
0.000561705
-0.000632758
0.000458397
-0.000682027
0.000330558
-0.000733552
0.000176108
-0.00078563
-6.52625e-06
-0.000835561
-0.000216933
-0.000878227
-0.000454027
-0.000906062
-0.000712753
-0.000908565
-0.000982854
-0.0008729
-0.0012453
-0.000786431
-0.00146823
-0.000642424
-0.001604
-0.000449208
-0.0015923
-0.000239462
-0.0013767
-6.97297e-05
-0.000938919
-0.000333079
-1.1957e-05
0.000161707
-4.14944e-05
0.000409856
-8.09659e-05
0.000587632
-0.000124116
0.000707089
-0.000166768
0.000782065
-0.000206572
0.00082505
-0.000242526
0.000845911
-0.000274528
0.000851581
-0.000303045
0.000846273
-0.000328885
0.00083192
-0.000353076
0.000808673
-0.000376777
0.000775359
-0.000401237
0.000729888
-0.000427747
0.000669597
-0.000457581
0.000591539
-0.000491905
0.000492721
-0.000531641
0.000370293
-0.000577223
0.00022169
-0.000628478
4.47291e-05
-0.000683506
-0.000161905
-0.000738879
-0.000398653
-0.000788065
-0.000663568
-0.000820756
-0.000950163
-0.000822439
-0.00124362
-0.00077573
-0.00151493
-0.000665485
-0.00171424
-0.000489661
-0.00176813
-0.000274666
-0.00159169
-8.41452e-05
-0.00112944
-0.000417224
-1.3657e-05
0.000175364
-4.60313e-05
0.00044223
-8.69339e-05
0.000628534
-0.000128652
0.000748807
-0.00016658
0.000819993
-0.000198527
0.000856998
-0.000223898
0.000871281
-0.00024305
0.000870734
-0.000256888
0.000860111
-0.000266623
0.000841655
-0.000273662
0.000815712
-0.000279556
0.000781254
-0.000285979
0.000736311
-0.000294703
0.000678322
-0.000307566
0.000604402
-0.000326392
0.000511547
-0.00035289
0.000396791
-0.000388472
0.000257272
-0.000434014
9.02709e-05
-0.000489253
-0.000106666
-0.000552364
-0.000335543
-0.000618681
-0.000597251
-0.000679403
-0.000889441
-0.000720103
-0.00120292
-0.000720332
-0.00151471
-0.000656898
-0.00177768
-0.000514748
-0.00191028
-0.000307734
-0.00179871
-0.000100579
-0.00133659
-0.000517803
-1.71719e-05
0.000192536
-5.50831e-05
0.000480141
-9.92344e-05
0.000672686
-0.000139923
0.000789495
-0.000172274
0.000852344
-0.000194636
0.000879359
-0.000207181
0.000883827
-0.000211007
0.00087456
-0.000207636
0.00085674
-0.000198786
0.000832804
-0.000186288
0.000803214
-0.000172082
0.000767048
-0.000158223
0.000722452
-0.000146891
0.000666991
-0.000140393
0.000597904
-0.000141073
0.000512227
-0.00015128
0.000406998
-0.000173222
0.000279214
-0.000208761
0.00012581
-0.000259028
-5.63989e-05
-0.00032418
-0.000270391
-0.000401725
-0.000519705
-0.000485574
-0.000805593
-0.000563358
-0.00112514
-0.000614092
-0.00146397
-0.000608448
-0.00178332
-0.000517304
-0.00200142
-0.000335563
-0.00198045
-0.000119392
-0.00155276
-0.000637195
-2.38586e-05
0.000216395
-7.13472e-05
0.00052763
-0.000120979
0.000722318
-0.000160668
0.000829184
-0.000185827
0.000877503
-0.000196034
0.000889567
-0.000192786
0.000880578
-0.000178279
0.000860053
-0.000154867
0.000833327
-0.000124871
0.000802809
-9.05731e-05
0.000768916
-5.42687e-05
0.000730743
-1.83288e-05
0.000686512
1.47634e-05
0.000633898
4.24225e-05
0.000570244
6.18792e-05
0.00049277
7.03231e-05
0.000398554
6.49401e-05
0.000284597
4.30005e-05
0.00014775
2.02803e-06
-1.54264e-05
-5.91198e-05
-0.000209243
-0.000141239
-0.000437586
-0.000241497
-0.000705335
-0.000351318
-0.00101531
-0.000452195
-0.0013631
-0.000512117
-0.0017234
-0.000489085
-0.00202445
-0.000353834
-0.0021157
-0.000141035
-0.00176556
-0.00077823
-3.60794e-05
0.000252474
-9.87023e-05
0.000590252
-0.000155675
0.000779291
-0.000192843
0.000866352
-0.000207262
0.000891922
-0.000200917
0.000883222
-0.000177392
0.000857053
-0.000140416
0.000823078
-9.33738e-05
0.000786285
-3.92496e-05
0.000748684
1.92562e-05
0.00071041
7.95846e-05
0.000670415
0.000139179
0.000626918
0.000195397
0.00057768
0.000245443
0.000520198
0.000286386
0.000451828
0.000315123
0.000369817
0.000328423
0.000271297
0.000322978
0.000153195
0.000295463
1.20881e-05
0.00024254
-0.00015632
0.000161797
-0.000356844
5.23078e-05
-0.000595845
-8.24513e-05
-0.000880555
-0.000229538
-0.00121601
-0.000358936
-0.001594
-0.000419725
-0.00196366
-0.000355845
-0.00217958
-0.000165446
-0.00195596
-0.000943677
-5.79187e-05
0.000310393
-0.000142148
0.000674482
-0.000205597
0.000842739
-0.000234514
0.000895269
-0.000230426
0.000887834
-0.000199541
0.000852337
-0.000148484
0.000805995
-8.29173e-05
0.000757512
-7.35425e-06
0.000710722
7.46223e-05
0.000666708
0.000160036
0.000624996
0.000246234
0.000584217
0.000330667
0.000542485
0.000410733
0.000497614
0.000483676
0.000447255
0.000546534
0.00038897
0.000596098
0.000320253
0.000628896
0.000238499
0.000641166
0.000140925
0.000628819
2.44343e-05
0.00058748
-0.000114981
0.000512626
-0.000281989
0.000400093
-0.000483312
0.000247997
-0.000728459
6.17038e-05
-0.00102972
-0.000136529
-0.00139577
-0.000294375
-0.00180582
-0.000329941
-0.00214402
-0.000190249
-0.00209565
-0.00113393
-9.59597e-05
0.000406353
-0.000205755
0.000784277
-0.000265845
0.00090283
-0.000271006
0.00090043
-0.000232427
0.000849255
-0.000162916
0.000782826
-7.29548e-05
0.000716034
2.98036e-05
0.000654753
0.000139995
0.00060053
0.000253818
0.000552886
0.000368412
0.000510401
0.000481402
0.000471227
0.000590571
0.000433316
0.000693645
0.00039454
0.000788153
0.000352747
0.000871336
0.000305787
0.000940082
0.000251507
0.000990866
0.000187714
0.00101968
0.000112109
0.00102189
2.22268e-05
0.000992395
-8.54863e-05
0.000925181
-0.000214775
0.000813541
-0.000371672
0.000650845
-0.000565763
0.000433832
-0.000812704
0.000172822
-0.00113476
-8.81764e-05
-0.00154482
-0.000254524
-0.00197767
-0.000207553
-0.00214263
-0.00134148
-0.000158333
0.000564685
-0.000281595
0.00090754
-0.000304868
0.000926103
-0.000251358
0.00084692
-0.000149454
0.00074735
-2.00696e-05
0.000653442
0.000123157
0.000572807
0.000271871
0.000506039
0.000421131
0.00045127
0.000567996
0.000406021
0.000710573
0.000367824
0.000847415
0.000334385
0.00097714
0.000303591
0.00109819
0.000273485
0.0012087
0.000242238
0.00130637
0.000208116
0.00138843
0.000169454
0.00145154
0.000124606
0.00149173
7.19185e-05
0.00150401
9.94166e-06
0.00148315
-6.46259e-05
0.00142215
-0.000153775
0.00131275
-0.000262274
0.00114499
-0.000397999
0.000908059
-0.000575774
0.000596695
-0.000823395
0.000233462
-0.00118159
-8.85972e-05
-0.00165561
-0.000197914
-0.00203331
-0.00153939
-0.000242273
0.000806958
-0.000301693
0.000966961
-0.000205676
0.000830085
-3.24963e-05
0.000673741
0.000169679
0.000545174
0.000377693
0.000445428
0.000580595
0.000369906
0.000773634
0.000313
0.000955236
0.000269668
0.00112527
0.000235991
0.00128406
0.00020903
0.00143192
0.000186525
0.00156884
0.000166673
0.00169435
0.000147973
0.00180745
0.000129139
0.00190654
0.00010903
0.00198938
8.66054e-05
0.00205311
6.0875e-05
0.00209414
3.08962e-05
0.00210794
-3.86577e-06
0.00208919
-4.58745e-05
0.00203096
-9.5539e-05
0.00192463
-0.000155947
0.00175869
-0.000232055
0.00151728
-0.000334367
0.00118041
-0.000486525
0.000737837
-0.000739012
0.000247641
-0.00116541
-8.39994e-05
-0.00170167
-0.00162339
-0.000191565
0.000998523
2.41866e-05
0.00075121
0.000379606
0.000474665
0.000718814
0.000334533
0.00102015
0.000243834
0.00128376
0.000181825
0.00151367
0.000139994
0.00171504
0.000111633
0.00189284
9.18625e-05
0.00205126
7.7575e-05
0.00219348
6.6809e-05
0.00232175
5.82545e-05
0.00243744
5.09816e-05
0.00254112
4.4296e-05
0.0026326
3.76525e-05
0.00271103
3.06054e-05
0.00277486
2.27787e-05
0.00282186
1.3872e-05
0.00284902
3.73835e-06
0.00285389
-8.73789e-06
0.00283075
-2.27325e-05
0.00277462
-3.94135e-05
0.00267821
-5.95375e-05
0.00253102
-8.48608e-05
0.00231624
-0.000119586
0.00200475
-0.00017504
0.00155003
-0.000284291
0.000925862
-0.000541243
0.00026308
-0.00103889
-0.00136031
0.000998523
0.00174973
0.0022244
0.00255893
0.00280276
0.00298459
0.00312458
0.00323622
0.00332808
0.00340565
0.00347246
0.00353072
0.0035817
0.00362599
0.00366365
0.00369425
0.00371703
0.0037309
0.00373464
0.0037259
0.00370317
0.00366376
0.00360422
0.00351936
0.00339977
0.00322473
0.00294044
0.0023992
0.00136031
)
;

boundaryField
{
    movingWall
    {
        type            calculated;
        value           uniform 0;
    }
    fixedWalls
    {
        type            calculated;
        value           uniform 0;
    }
    frontAndBack
    {
        type            empty;
        value           nonuniform 0();
    }
}


// ************************************************************************* //
