/*--------------------------------*- C++ -*----------------------------------*\
  =========                 |
  \\      /  F ield         | OpenFOAM: The Open Source CFD Toolbox
   \\    /   O peration     | Website:  https://openfoam.org
    \\  /    A nd           | Version:  7
     \\/     M anipulation  |
\*---------------------------------------------------------------------------*/
FoamFile
{
    version     2.0;
    format      ascii;
    class       volVectorField;
    location    "4";
    object      U;
}
// * * * * * * * * * * * * * * * * * * * * * * * * * * * * * * * * * * * * * //

dimensions      [0 1 -1 0 0 0 0];

internalField   nonuniform List<vector> 
900
(
(0.000115841 -0.000114993 0)
(0.00017127 -2.45305e-05 0)
(-0.000159721 0.000109037 0)
(-0.000856589 0.000225658 0)
(-0.0018261 0.000306963 0)
(-0.00298778 0.000356434 0)
(-0.00426502 0.000382137 0)
(-0.00559515 0.000390793 0)
(-0.00692773 0.000386473 0)
(-0.00821902 0.000370792 0)
(-0.00942716 0.000343534 0)
(-0.0105089 0.000303398 0)
(-0.0114181 0.00024878 0)
(-0.0121067 0.000178541 0)
(-0.0125271 9.27519e-05 0)
(-0.0126365 -6.7069e-06 0)
(-0.012403 -0.000115999 0)
(-0.0118115 -0.000228503 0)
(-0.01087 -0.000335655 0)
(-0.00961396 -0.000427531 0)
(-0.00810809 -0.000493958 0)
(-0.00644442 -0.000525982 0)
(-0.00473633 -0.000517353 0)
(-0.0031087 -0.000465755 0)
(-0.00168485 -0.000373522 0)
(-0.000571004 -0.000248303 0)
(0.000153213 -0.000104754 0)
(0.000455797 3.82389e-05 0)
(0.000386505 0.000143448 0)
(0.000135563 0.000134266 0)
(3.02093e-05 -0.000175488 0)
(-0.000359648 0.00035927 0)
(-0.00161517 0.00102932 0)
(-0.00362874 0.00161431 0)
(-0.0062481 0.00204977 0)
(-0.00930803 0.00233593 0)
(-0.0126437 0.002494 0)
(-0.016107 0.00254624 0)
(-0.0195677 0.00250818 0)
(-0.0229068 0.00238719 0)
(-0.0260094 0.00218388 0)
(-0.0287603 0.00189496 0)
(-0.0310418 0.00151672 0)
(-0.0327371 0.00104861 0)
(-0.0337357 0.000496691 0)
(-0.0339444 -0.000123784 0)
(-0.0332981 -0.000786444 0)
(-0.0317733 -0.00145366 0)
(-0.0294006 -0.00207853 0)
(-0.0262718 -0.00260867 0)
(-0.0225428 -0.002992 0)
(-0.018428 -0.00318384 0)
(-0.014187 -0.00315424 0)
(-0.0101027 -0.00289425 0)
(-0.00645245 -0.00242014 0)
(-0.00347605 -0.00177597 0)
(-0.00134302 -0.0010368 0)
(-0.000116726 -0.000307368 0)
(0.000287323 0.000253985 0)
(0.000152437 0.000384773 0)
(-0.000112762 0.000157256 0)
(-0.00109427 0.00162822 0)
(-0.00340215 0.00325738 0)
(-0.00673608 0.00466641 0)
(-0.0108782 0.0057383 0)
(-0.0156126 0.00646079 0)
(-0.0207178 0.00686482 0)
(-0.0259873 0.00698971 0)
(-0.0312323 0.00686564 0)
(-0.0362754 0.00650831 0)
(-0.0409441 0.00592077 0)
(-0.0450659 0.00509914 0)
(-0.0484682 0.00404027 0)
(-0.0509822 0.00274993 0)
(-0.0524526 0.00125043 0)
(-0.0527505 -0.000413395 0)
(-0.0517893 -0.0021705 0)
(-0.0495412 -0.00392432 0)
(-0.0460533 -0.00555742 0)
(-0.0414567 -0.00694089 0)
(-0.0359696 -0.00794809 0)
(-0.0298909 -0.00847135 0)
(-0.0235818 -0.00843931 0)
(-0.0174368 -0.00783224 0)
(-0.0118455 -0.00669282 0)
(-0.00714823 -0.00513184 0)
(-0.00359001 -0.00333076 0)
(-0.00127451 -0.00154283 0)
(-0.00013098 -0.000105958 0)
(8.40653e-05 0.000499103 0)
(-0.000257922 0.000914365 0)
(-0.00184457 0.00379347 0)
(-0.0052215 0.00667537 0)
(-0.00985803 0.00911548 0)
(-0.0154459 0.0109685 0)
(-0.0217212 0.01222 0)
(-0.0284185 0.0129138 0)
(-0.0352894 0.0131063 0)
(-0.0421035 0.0128415 0)
(-0.0486408 0.012143 0)
(-0.0546855 0.0110161 0)
(-0.0600214 0.00945735 0)
(-0.0644324 0.00746649 0)
(-0.0677088 0.00505999 0)
(-0.0696577 0.00228353 0)
(-0.0701191 -0.000778534 0)
(-0.0689835 -0.00399854 0)
(-0.0662119 -0.0072047 0)
(-0.0618545 -0.0101909 0)
(-0.0560627 -0.012732 0)
(-0.0490943 -0.0146069 0)
(-0.0413077 -0.0156266 0)
(-0.0331425 -0.0156643 0)
(-0.0250866 -0.0146821 0)
(-0.0176299 -0.0127513 0)
(-0.0112109 -0.0100618 0)
(-0.00615932 -0.0069231 0)
(-0.00263987 -0.0037587 0)
(-0.00063366 -0.00110199 0)
(2.18238e-06 0.000357778 0)
(-0.000387434 0.00206223 0)
(-0.00255018 0.00683277 0)
(-0.00696665 0.0112515 0)
(-0.0128632 0.0148926 0)
(-0.0198299 0.0176265 0)
(-0.0275523 0.01946 0)
(-0.0357264 0.0204595 0)
(-0.0440719 0.0207016 0)
(-0.0523291 0.0202442 0)
(-0.0602487 0.0191173 0)
(-0.0675837 0.0173276 0)
(-0.0740847 0.0148712 0)
(-0.0795011 0.0117508 0)
(-0.083587 0.00799521 0)
(-0.0861135 0.00367633 0)
(-0.0868863 -0.00107725 0)
(-0.0857638 -0.0060751 0)
(-0.0826809 -0.0110593 0)
(-0.077673 -0.015722 0)
(-0.0708903 -0.0197257 0)
(-0.0626091 -0.0227355 0)
(-0.0532299 -0.0244605 0)
(-0.0432596 -0.0246989 0)
(-0.0332772 -0.0233801 0)
(-0.0238809 -0.0205968 0)
(-0.0156246 -0.0166208 0)
(-0.00894686 -0.0119019 0)
(-0.0041008 -0.00704873 0)
(-0.00114711 -0.0028025 0)
(-7.03837e-05 -5.41218e-05 0)
(-0.000501231 0.00357396 0)
(-0.00319849 0.0107056 0)
(-0.00860019 0.0169471 0)
(-0.0156971 0.0219546 0)
(-0.023976 0.0256594 0)
(-0.0330709 0.0281169 0)
(-0.0426427 0.0294321 0)
(-0.0523864 0.0297082 0)
(-0.0620231 0.0290188 0)
(-0.0712844 0.0273995 0)
(-0.0799023 0.024856 0)
(-0.087603 0.021381 0)
(-0.0941067 0.0169776 0)
(-0.0991333 0.0116837 0)
(-0.102415 0.00559593 0)
(-0.103716 -0.00111321 0)
(-0.102847 -0.00818972 0)
(-0.0996971 -0.0152824 0)
(-0.0942639 -0.0219715 0)
(-0.0866724 -0.0277899 0)
(-0.0771949 -0.032266 0)
(-0.0662577 -0.0349788 0)
(-0.0544293 -0.035622 0)
(-0.0423863 -0.0340661 0)
(-0.030856 -0.0304077 0)
(-0.020539 -0.0249965 0)
(-0.01202 -0.0184315 0)
(-0.0056755 -0.0115268 0)
(-0.00167148 -0.00525505 0)
(-0.000132566 -0.000729006 0)
(-0.000602557 0.00541707 0)
(-0.00379119 0.0153556 0)
(-0.0101123 0.0236992 0)
(-0.0183389 0.0302364 0)
(-0.0278596 0.0350008 0)
(-0.0382592 0.0381259 0)
(-0.0491679 0.0397727 0)
(-0.0602626 0.0400808 0)
(-0.0712532 0.0391425 0)
(-0.0818616 0.0369988 0)
(-0.0918075 0.0336507 0)
(-0.1008 0.0290827 0)
(-0.108534 0.0232916 0)
(-0.114696 0.0163171 0)
(-0.118974 0.00827108 0)
(-0.121081 -0.000637518 0)
(-0.120763 -0.0100791 0)
(-0.117838 -0.0196244 0)
(-0.112241 -0.0287312 0)
(-0.104042 -0.0367837 0)
(-0.0934825 -0.0431447 0)
(-0.0809952 -0.047226 0)
(-0.0672022 -0.0485739 0)
(-0.052887 -0.0469584 0)
(-0.0389322 -0.0424491 0)
(-0.0262278 -0.0354595 0)
(-0.0155545 -0.0267464 0)
(-0.00745858 -0.0173576 0)
(-0.00224361 -0.00853811 0)
(-0.000191573 -0.0016722 0)
(-0.000693712 0.00756144 0)
(-0.00433099 0.0207224 0)
(-0.0114994 0.0314352 0)
(-0.0207765 0.0396634 0)
(-0.0314615 0.0455798 0)
(-0.0430957 0.0494242 0)
(-0.0552842 0.0514328 0)
(-0.0676924 0.0517923 0)
(-0.080027 0.0506183 0)
(-0.0920086 0.0479565 0)
(-0.103353 0.0437994 0)
(-0.113759 0.0381157 0)
(-0.122901 0.0308862 0)
(-0.130434 0.0221409 0)
(-0.135998 0.0119951 0)
(-0.139229 0.000682671 0)
(-0.139805 -0.0114142 0)
(-0.137459 -0.0237797 0)
(-0.13202 -0.0357456 0)
(-0.123472 -0.0465313 0)
(-0.111991 -0.0553022 0)
(-0.0979881 -0.0612557 0)
(-0.0821231 -0.0637327 0)
(-0.0652894 -0.0623419 0)
(-0.0485519 -0.0570745 0)
(-0.0330394 -0.0483804 0)
(-0.0197924 -0.0371788 0)
(-0.00958901 -0.0247887 0)
(-0.00291896 -0.0127898 0)
(-0.000257702 -0.00291616 0)
(-0.000775383 0.00997884 0)
(-0.00481714 0.0267433 0)
(-0.0127544 0.0400763 0)
(-0.0229924 0.0501528 0)
(-0.034753 0.0573183 0)
(-0.0475408 0.0619454 0)
(-0.0609422 0.0643642 0)
(-0.0746185 0.0648199 0)
(-0.0882806 0.0634569 0)
(-0.101656 0.0603251 0)
(-0.114465 0.0554036 0)
(-0.126404 0.0486369 0)
(-0.137133 0.0399765 0)
(-0.146274 0.0294271 0)
(-0.153419 0.0170906 0)
(-0.158135 0.00320721 0)
(-0.160001 -0.0118183 0)
(-0.158638 -0.0273813 0)
(-0.15375 -0.0426906 0)
(-0.145194 -0.0567886 0)
(-0.133042 -0.0686103 0)
(-0.11764 -0.077084 0)
(-0.0996544 -0.0812709 0)
(-0.080076 -0.0805342 0)
(-0.0601703 -0.0747085 0)
(-0.0413564 -0.0642287 0)
(-0.0250119 -0.0501708 0)
(-0.012231 -0.0341699 0)
(-0.00376259 -0.018224 0)
(-0.000342266 -0.00452637 0)
(-0.00084689 0.0126399 0)
(-0.00524476 0.0333505 0)
(-0.0138631 0.049534 0)
(-0.0249594 0.0616095 0)
(-0.0376898 0.070124 0)
(-0.0515303 0.0756077 0)
(-0.0660552 0.0785024 0)
(-0.0809284 0.0791239 0)
(-0.0958724 0.0776509 0)
(-0.11063 0.074138 0)
(-0.124935 0.0685461 0)
(-0.138488 0.0607849 0)
(-0.150944 0.0507625 0)
(-0.161901 0.0384384 0)
(-0.170902 0.0238771 0)
(-0.177445 0.00729846 0)
(-0.181006 -0.0108791 0)
(-0.181075 -0.0299989 0)
(-0.177206 -0.0491554 0)
(-0.169092 -0.067207 0)
(-0.15665 -0.0828303 0)
(-0.140107 -0.0946269 0)
(-0.12008 -0.101291 0)
(-0.0976225 -0.10183 0)
(-0.0741976 -0.0958065 0)
(-0.0515578 -0.0835537 0)
(-0.0315062 -0.0662737 0)
(-0.0155633 -0.0459613 0)
(-0.0048456 -0.0251401 0)
(-0.000457218 -0.00660456 0)
(-0.000906625 0.0155115 0)
(-0.00560574 0.0404673 0)
(-0.0148052 0.059707 0)
(-0.02664 0.0739208 0)
(-0.0402126 0.0838828 0)
(-0.0549766 0.0903024 0)
(-0.0705004 0.0937509 0)
(-0.0864561 0.0946267 0)
(-0.102585 0.0931493 0)
(-0.118652 0.089379 0)
(-0.134413 0.0832543 0)
(-0.149585 0.0746406 0)
(-0.163827 0.0633874 0)
(-0.176725 0.0493884 0)
(-0.187785 0.0326449 0)
(-0.19644 0.0133275 0)
(-0.20207 -0.00816468 0)
(-0.204029 -0.031152 0)
(-0.201703 -0.0546384 0)
(-0.194591 -0.0773085 0)
(-0.1824 -0.0975649 0)
(-0.165169 -0.113633 0)
(-0.143388 -0.123747 0)
(-0.118101 -0.126421 0)
(-0.0909284 -0.120792 0)
(-0.0639765 -0.106944 0)
(-0.0395625 -0.0861307 0)
(-0.0197722 -0.0607339 0)
(-0.00624446 -0.033928 0)
(-0.00061554 -0.00929136 0)
(-0.000952549 0.0185556 0)
(-0.00589054 0.0480063 0)
(-0.0155577 0.0704781 0)
(-0.0279923 0.0869525 0)
(-0.0422528 0.0984518 0)
(-0.0577757 0.105884 0)
(-0.0741273 0.109967 0)
(-0.0909925 0.111194 0)
(-0.108136 0.109832 0)
(-0.125352 0.105951 0)
(-0.142427 0.0994639 0)
(-0.159107 0.090184 0)
(-0.175066 0.0778884 0)
(-0.189896 0.0623857 0)
(-0.203085 0.0435881 0)
(-0.214022 0.0215847 0)
(-0.222005 -0.00328308 0)
(-0.226267 -0.0303474 0)
(-0.226024 -0.0585658 0)
(-0.22056 -0.0864783 0)
(-0.209329 -0.112222 0)
(-0.192102 -0.133617 0)
(-0.16914 -0.148352 0)
(-0.141361 -0.1543 0)
(-0.110451 -0.149961 0)
(-0.0788421 -0.134959 0)
(-0.049436 -0.110441 0)
(-0.0250446 -0.0791584 0)
(-0.00804111 -0.0450706 0)
(-0.000831995 -0.0127691 0)
(-0.000982769 0.0217285 0)
(-0.00609077 0.0558692 0)
(-0.0161001 0.0817135 0)
(-0.0289771 0.100547 0)
(-0.0437436 0.113655 0)
(-0.0598207 0.122163 0)
(-0.0767749 0.126949 0)
(-0.0943053 0.128616 0)
(-0.112203 0.127488 0)
(-0.130298 0.123647 0)
(-0.148414 0.116983 0)
(-0.166337 0.107252 0)
(-0.183776 0.0941478 0)
(-0.200347 0.0773791 0)
(-0.215548 0.0567463 0)
(-0.228755 0.0322272 0)
(-0.239215 0.00406576 0)
(-0.246074 -0.0271346 0)
(-0.248404 -0.0603347 0)
(-0.245271 -0.093986 0)
(-0.235846 -0.126003 0)
(-0.219565 -0.153808 0)
(-0.196335 -0.17449 0)
(-0.166794 -0.185134 0)
(-0.132533 -0.183361 0)
(-0.0962046 -0.168024 0)
(-0.0613111 -0.139895 0)
(-0.0315559 -0.10198 0)
(-0.0103228 -0.059141 0)
(-0.00112405 -0.0172651 0)
(-0.000996234 0.0249825 0)
(-0.00620236 0.0639493 0)
(-0.016422 0.0932659 0)
(-0.0295697 0.114523 0)
(-0.0446347 0.129282 0)
(-0.0610213 0.138899 0)
(-0.0782946 0.144429 0)
(-0.096168 0.146597 0)
(-0.11446 0.145797 0)
(-0.133039 0.142131 0)
(-0.151775 0.135467 0)
(-0.170502 0.125504 0)
(-0.188984 0.111852 0)
(-0.206884 0.0941083 0)
(-0.223745 0.0719461 0)
(-0.238969 0.0452072 0)
(-0.251806 0.0140015 0)
(-0.261362 -0.0211879 0)
(-0.266611 -0.0593876 0)
(-0.26644 -0.099043 0)
(-0.259736 -0.13793 0)
(-0.245547 -0.173133 0)
(-0.223317 -0.201142 0)
(-0.193212 -0.21815 0)
(-0.156496 -0.220637 0)
(-0.115834 -0.206291 0)
(-0.0752448 -0.175072 0)
(-0.0394509 -0.12997 0)
(-0.0131801 -0.0767926 0)
(-0.00151284 -0.0230551 0)
(-0.000993542 0.0282693 0)
(-0.00622959 0.0721387 0)
(-0.016531 0.104981 0)
(-0.0297736 0.128685 0)
(-0.0449112 0.145092 0)
(-0.0613267 0.155804 0)
(-0.07858 0.162071 0)
(-0.0963968 0.164753 0)
(-0.114623 0.164326 0)
(-0.133166 0.160924 0)
(-0.151948 0.154401 0)
(-0.170863 0.144407 0)
(-0.189743 0.130468 0)
(-0.208328 0.112071 0)
(-0.226239 0.0887577 0)
(-0.242953 0.0602167 0)
(-0.257785 0.026395 0)
(-0.269866 -0.0123879 0)
(-0.278146 -0.0553067 0)
(-0.281401 -0.100899 0)
(-0.278278 -0.146925 0)
(-0.267432 -0.190258 0)
(-0.247755 -0.226873 0)
(-0.218758 -0.252037 0)
(-0.181092 -0.260877 0)
(-0.137102 -0.249454 0)
(-0.0910887 -0.216297 0)
(-0.0488113 -0.163847 0)
(-0.0167021 -0.098737 0)
(-0.00202398 -0.0304656 0)
(-0.000977912 0.0315454 0)
(-0.00618967 0.0803392 0)
(-0.0164641 0.116712 0)
(-0.0296359 0.14283 0)
(-0.0446141 0.160821 0)
(-0.0607516 0.172548 0)
(-0.0775987 0.179473 0)
(-0.0948904 0.18261 0)
(-0.112499 0.18253 0)
(-0.130374 0.179413 0)
(-0.148492 0.173111 0)
(-0.166817 0.163237 0)
(-0.185266 0.149245 0)
(-0.203677 0.130523 0)
(-0.221784 0.106483 0)
(-0.239189 0.076662 0)
(-0.255331 0.0408285 0)
(-0.269448 -0.00090053 0)
(-0.280556 -0.0479225 0)
(-0.287415 -0.0989717 0)
(-0.288527 -0.15195 0)
(-0.282204 -0.203709 0)
(-0.26677 -0.249888 0)
(-0.240935 -0.284931 0)
(-0.204438 -0.302494 0)
(-0.158875 -0.296566 0)
(-0.108395 -0.263449 0)
(-0.0596105 -0.204156 0)
(-0.0209679 -0.125703 0)
(-0.00268837 -0.0398729 0)
(-0.000956392 0.0347807 0)
(-0.00611849 0.0884798 0)
(-0.0162988 0.128334 0)
(-0.0292649 0.156764 0)
(-0.043862 0.176195 0)
(-0.0594022 0.188769 0)
(-0.0754223 0.196182 0)
(-0.0916672 0.199623 0)
(-0.108037 0.199774 0)
(-0.124526 0.196873 0)
(-0.14117 0.190791 0)
(-0.15801 0.181117 0)
(-0.17506 0.167253 0)
(-0.192277 0.148507 0)
(-0.209537 0.12418 0)
(-0.226606 0.0936701 0)
(-0.243102 0.0565659 0)
(-0.258452 0.0127619 0)
(-0.271827 -0.0374098 0)
(-0.282086 -0.092988 0)
(-0.28772 -0.152185 0)
(-0.286825 -0.212065 0)
(-0.27722 -0.268215 0)
(-0.256769 -0.314503 0)
(-0.224056 -0.343192 0)
(-0.179453 -0.345878 0)
(-0.126325 -0.31575 0)
(-0.0716573 -0.251105 0)
(-0.0260346 -0.15837 0)
(-0.0035433 -0.0516994 0)
(-0.000941616 0.0379702 0)
(-0.00607803 0.0965392 0)
(-0.016168 0.139772 0)
(-0.0288495 0.170327 0)
(-0.0428725 0.190947 0)
(-0.0574982 0.204089 0)
(-0.0722514 0.211712 0)
(-0.0868929 0.215196 0)
(-0.101359 0.215356 0)
(-0.115693 0.212506 0)
(-0.13 0.206547 0)
(-0.144403 0.19707 0)
(-0.159023 0.183447 0)
(-0.173949 0.164929 0)
(-0.189218 0.140737 0)
(-0.204788 0.110153 0)
(-0.220499 0.0726038 0)
(-0.236016 0.0277643 0)
(-0.250751 -0.0243267 0)
(-0.263789 -0.0830968 0)
(-0.273758 -0.147218 0)
(-0.278713 -0.214213 0)
(-0.276144 -0.27997 0)
(-0.263155 -0.338196 0)
(-0.237066 -0.380083 0)
(-0.196602 -0.394776 0)
(-0.143588 -0.371559 0)
(-0.0845377 -0.30436 0)
(-0.0319263 -0.197275 0)
(-0.00463504 -0.0664043 0)
(-0.000954803 0.0411514 0)
(-0.00616719 0.104577 0)
(-0.0162784 0.15103 0)
(-0.0286795 0.183409 0)
(-0.0419808 0.204835 0)
(-0.055388 0.218129 0)
(-0.0684258 0.225552 0)
(-0.0808893 0.228704 0)
(-0.0927672 0.228546 0)
(-0.104169 0.225482 0)
(-0.115273 0.219463 0)
(-0.126298 0.210097 0)
(-0.137474 0.196752 0)
(-0.149031 0.178654 0)
(-0.161175 0.154974 0)
(-0.174063 0.124911 0)
(-0.187774 0.0877649 0)
(-0.202247 0.043017 0)
(-0.217187 -0.00958575 0)
(-0.232 -0.0699209 0)
(-0.245599 -0.137186 0)
(-0.256209 -0.209588 0)
(-0.261247 -0.283691 0)
(-0.257299 -0.353576 0)
(-0.240514 -0.409957 0)
(-0.207721 -0.439876 0)
(-0.158449 -0.428241 0)
(-0.0975675 -0.362817 0)
(-0.0386266 -0.242685 0)
(-0.00602553 -0.0844741 0)
(-0.00103157 0.0444287 0)
(-0.00653979 0.112776 0)
(-0.0169362 0.162222 0)
(-0.0291694 0.195975 0)
(-0.0416543 0.217648 0)
(-0.0535506 0.230516 0)
(-0.0644157 0.237189 0)
(-0.0741148 0.239515 0)
(-0.0827201 0.238615 0)
(-0.090428 0.234991 0)
(-0.0975096 0.228654 0)
(-0.104282 0.219247 0)
(-0.111094 0.206156 0)
(-0.118309 0.188609 0)
(-0.126298 0.165757 0)
(-0.135413 0.136753 0)
(-0.14596 0.100807 0)
(-0.158152 0.0572444 0)
(-0.172042 0.00555214 0)
(-0.187373 -0.0545442 0)
(-0.203432 -0.122835 0)
(-0.218853 -0.198349 0)
(-0.231277 -0.27864 0)
(-0.237149 -0.35874 0)
(-0.231769 -0.429706 0)
(-0.210104 -0.477295 0)
(-0.168813 -0.482181 0)
(-0.109768 -0.4244 0)
(-0.0460814 -0.294444 0)
(-0.00780666 -0.10642 0)
(-0.00123389 0.0480137 0)
(-0.00743573 0.121495 0)
(-0.0185845 0.17361 0)
(-0.0308839 0.208076 0)
(-0.0424946 0.229206 0)
(-0.0525736 0.240869 0)
(-0.0607757 0.246092 0)
(-0.0670974 0.24699 0)
(-0.0717423 0.244847 0)
(-0.0750264 0.240263 0)
(-0.0773311 0.233311 0)
(-0.0790825 0.223676 0)
(-0.0807427 0.210777 0)
(-0.0828053 0.193863 0)
(-0.0857878 0.172096 0)
(-0.0902162 0.144612 0)
(-0.0966008 0.110571 0)
(-0.1054 0.0691843 0)
(-0.116961 0.0197386 0)
(-0.131401 -0.0383452 0)
(-0.148474 -0.10543 0)
(-0.167329 -0.181401 0)
(-0.186129 -0.264985 0)
(-0.201633 -0.352665 0)
(-0.208833 -0.436782 0)
(-0.20122 -0.503076 0)
(-0.172364 -0.528948 0)
(-0.11986 -0.485907 0)
(-0.0542055 -0.351789 0)
(-0.0101264 -0.132794 0)
(-0.00167467 0.0522932 0)
(-0.00923629 0.131343 0)
(-0.0218553 0.185633 0)
(-0.0345546 0.219827 0)
(-0.0452079 0.23932 0)
(-0.0530759 0.248767 0)
(-0.058027 0.251686 0)
(-0.0602825 0.250467 0)
(-0.0602423 0.246539 0)
(-0.058382 0.240582 0)
(-0.0552135 0.232716 0)
(-0.0512768 0.222668 0)
(-0.0471415 0.209892 0)
(-0.0434117 0.193673 0)
(-0.0407292 0.173201 0)
(-0.0397597 0.14762 0)
(-0.0411767 0.116073 0)
(-0.0456402 0.0777112 0)
(-0.0537459 0.0316898 0)
(-0.065937 -0.0228187 0)
(-0.0824536 -0.0865836 0)
(-0.103036 -0.160277 0)
(-0.126565 -0.243796 0)
(-0.150572 -0.335398 0)
(-0.170425 -0.429583 0)
(-0.178865 -0.513657 0)
(-0.166668 -0.563616 0)
(-0.126238 -0.542959 0)
(-0.0628665 -0.413123 0)
(-0.0132246 -0.164235 0)
(-0.00256758 0.0579508 0)
(-0.0125581 0.143272 0)
(-0.0276285 0.198894 0)
(-0.0410548 0.231339 0)
(-0.0504826 0.247689 0)
(-0.0555005 0.253643 0)
(-0.0563799 0.253265 0)
(-0.053697 0.249192 0)
(-0.0481275 0.242949 0)
(-0.0403486 0.235246 0)
(-0.0310185 0.226221 0)
(-0.0207882 0.215621 0)
(-0.0103187 0.202931 0)
(-0.000297436 0.187474 0)
(0.00854163 0.168473 0)
(0.0154344 0.145105 0)
(0.0195931 0.116523 0)
(0.0202063 0.0818598 0)
(0.016483 0.0402096 0)
(0.00773031 -0.00940203 0)
(-0.00674931 -0.068056 0)
(-0.0272899 -0.136881 0)
(-0.053567 -0.216844 0)
(-0.0842365 -0.308007 0)
(-0.115742 -0.407643 0)
(-0.141092 -0.506261 0)
(-0.149134 -0.581126 0)
(-0.126855 -0.590007 0)
(-0.0717678 -0.475715 0)
(-0.017456 -0.201522 0)
(-0.0043234 0.066191 0)
(-0.0183988 0.158671 0)
(-0.0370479 0.214061 0)
(-0.0512135 0.242511 0)
(-0.0586106 0.253684 0)
(-0.0595794 0.254592 0)
(-0.0550794 0.249835 0)
(-0.0462062 0.242197 0)
(-0.0339951 0.233194 0)
(-0.0193575 0.223486 0)
(-0.00309861 0.213171 0)
(0.0140372 0.201982 0)
(0.0313264 0.189417 0)
(0.0480339 0.174826 0)
(0.0633853 0.157474 0)
(0.0765647 0.136581 0)
(0.0867138 0.111334 0)
(0.092928 0.0808837 0)
(0.0942729 0.0443276 0)
(0.089805 0.000651118 0)
(0.0785547 -0.0513811 0)
(0.0596615 -0.113112 0)
(0.032566 -0.186234 0)
(-0.00260357 -0.272338 0)
(-0.043929 -0.371622 0)
(-0.0858396 -0.479149 0)
(-0.116736 -0.576636 0)
(-0.118892 -0.620376 0)
(-0.0800857 -0.535195 0)
(-0.023213 -0.245494 0)
(-0.00772071 0.0791447 0)
(-0.0283127 0.179379 0)
(-0.0513047 0.231504 0)
(-0.065127 0.252547 0)
(-0.068417 0.255886 0)
(-0.0629943 0.249987 0)
(-0.0508923 0.23981 0)
(-0.0339005 0.228069 0)
(-0.0134729 0.216087 0)
(0.00924734 0.204348 0)
(0.0333406 0.192825 0)
(0.0580184 0.181188 0)
(0.0825498 0.168921 0)
(0.106209 0.155395 0)
(0.128237 0.139914 0)
(0.147821 0.121751 0)
(0.164085 0.100149 0)
(0.17608 0.0743172 0)
(0.182778 0.0434072 0)
(0.183063 0.00645741 0)
(0.175732 -0.0377124 0)
(0.159506 -0.0905356 0)
(0.133102 -0.153975 0)
(0.0954815 -0.230598 0)
(0.0466467 -0.32314 0)
(-0.0103242 -0.431815 0)
(-0.0654008 -0.545896 0)
(-0.0980351 -0.626285 0)
(-0.0856276 -0.584787 0)
(-0.0305462 -0.296698 0)
(-0.0141243 0.100532 0)
(-0.0443819 0.207307 0)
(-0.0705082 0.250346 0)
(-0.0799778 0.258958 0)
(-0.0744111 0.251259 0)
(-0.0581939 0.23687 0)
(-0.0348249 0.22061 0)
(-0.00686822 0.204707 0)
(0.0238556 0.190011 0)
(0.0560757 0.176653 0)
(0.0888738 0.164382 0)
(0.121527 0.152747 0)
(0.153396 0.141191 0)
(0.183854 0.129096 0)
(0.212231 0.115815 0)
(0.237787 0.100689 0)
(0.25969 0.0830446 0)
(0.277001 0.0621885 0)
(0.288653 0.037384 0)
(0.293415 0.00780295 0)
(0.289921 -0.0275864 0)
(0.276598 -0.0700745 0)
(0.251631 -0.121543 0)
(0.213046 -0.184879 0)
(0.159085 -0.26442 0)
(0.0896906 -0.365092 0)
(0.0110122 -0.485822 0)
(-0.0570591 -0.599057 0)
(-0.0833354 -0.614542 0)
(-0.0381689 -0.355254 0)
(-0.0253612 0.136664 0)
(-0.0677013 0.242223 0)
(-0.0891491 0.265612 0)
(-0.083605 0.255221 0)
(-0.0597755 0.23357 0)
(-0.0255923 0.210062 0)
(0.0140612 0.18828 0)
(0.0562005 0.169291 0)
(0.0990292 0.153104 0)
(0.141491 0.139312 0)
(0.182944 0.127359 0)
(0.222942 0.116645 0)
(0.261102 0.106566 0)
(0.297019 0.0965281 0)
(0.330213 0.0859543 0)
(0.360096 0.0742817 0)
(0.385949 0.0609561 0)
(0.406909 0.0454207 0)
(0.421946 0.0270966 0)
(0.429777 0.00534469 0)
(0.428985 -0.0205822 0)
(0.417834 -0.051707 0)
(0.394193 -0.0895749 0)
(0.355487 -0.136769 0)
(0.29863 -0.197955 0)
(0.220545 -0.281056 0)
(0.122003 -0.394734 0)
(0.0165087 -0.529944 0)
(-0.0631251 -0.610807 0)
(-0.0413922 -0.42021 0)
(-0.0409776 0.198727 0)
(-0.0896039 0.27445 0)
(-0.0796711 0.25991 0)
(-0.0373262 0.225395 0)
(0.0184579 0.19087 0)
(0.0781328 0.161426 0)
(0.137346 0.137719 0)
(0.194125 0.118982 0)
(0.24771 0.104157 0)
(0.297939 0.0922751 0)
(0.344887 0.0825235 0)
(0.388672 0.0742187 0)
(0.429351 0.066777 0)
(0.466865 0.0596878 0)
(0.501011 0.0524941 0)
(0.531421 0.044778 0)
(0.557553 0.0361483 0)
(0.578684 0.0262267 0)
(0.593897 0.0146273 0)
(0.602027 0.00091547 0)
(0.601732 -0.0152622 0)
(0.591247 -0.0346055 0)
(0.568421 -0.0581486 0)
(0.530477 -0.0877166 0)
(0.473633 -0.127037 0)
(0.392613 -0.184107 0)
(0.28226 -0.273984 0)
(0.143788 -0.410625 0)
(-0.00459959 -0.55365 0)
(-0.0257061 -0.477019 0)
(-0.0337696 0.294505 0)
(-0.0468248 0.273896 0)
(0.0554004 0.200478 0)
(0.158508 0.149861 0)
(0.250587 0.114189 0)
(0.33123 0.0885517 0)
(0.401533 0.0703643 0)
(0.462888 0.0574417 0)
(0.51679 0.0480771 0)
(0.564589 0.0410974 0)
(0.607353 0.0357113 0)
(0.645862 0.0313608 0)
(0.680629 0.0276304 0)
(0.711929 0.0241965 0)
(0.739814 0.0207952 0)
(0.764136 0.0172034 0)
(0.784547 0.0132259 0)
(0.800518 0.00868859 0)
(0.811299 0.00342894 0)
(0.816087 -0.00268365 0)
(0.813774 -0.00989603 0)
(0.802842 -0.0184815 0)
(0.781543 -0.0288733 0)
(0.747458 -0.0419478 0)
(0.696928 -0.059684 0)
(0.623865 -0.0870822 0)
(0.518114 -0.137568 0)
(0.364695 -0.240599 0)
(0.143771 -0.407073 0)
(0.0587365 -0.458299 0)
(0.303394 0.181025 0)
(0.383108 0.144593 0)
(0.561935 0.0914635 0)
(0.688113 0.0591629 0)
(0.770726 0.0393235 0)
(0.829791 0.0266401 0)
(0.874768 0.018589 0)
(0.910166 0.0135101 0)
(0.938848 0.0102572 0)
(0.962769 0.00810756 0)
(0.983201 0.00662356 0)
(1.00094 0.0055349 0)
(1.01646 0.00466736 0)
(1.03003 0.00390328 0)
(1.04173 0.00315906 0)
(1.05149 0.00237211 0)
(1.05915 0.00149315 0)
(1.06444 0.000485243 0)
(1.06702 -0.000681545 0)
(1.06641 -0.00196129 0)
(1.06204 -0.00351886 0)
(1.05329 -0.00537705 0)
(1.03932 -0.00759866 0)
(1.0189 -0.0103761 0)
(0.989975 -0.0141915 0)
(0.948456 -0.0203699 0)
(0.884621 -0.0327833 0)
(0.776658 -0.0639174 0)
(0.544895 -0.139554 0)
(0.382489 -0.201774 0)
)
;

boundaryField
{
    movingWall
    {
        type            fixedValue;
        value           uniform (1.2 0 0);
    }
    fixedWalls
    {
        type            noSlip;
    }
    frontAndBack
    {
        type            empty;
    }
}


// ************************************************************************* //
