/*--------------------------------*- C++ -*----------------------------------*\
  =========                 |
  \\      /  F ield         | OpenFOAM: The Open Source CFD Toolbox
   \\    /   O peration     | Website:  https://openfoam.org
    \\  /    A nd           | Version:  7
     \\/     M anipulation  |
\*---------------------------------------------------------------------------*/
FoamFile
{
    version     2.0;
    format      ascii;
    class       volScalarField;
    location    "9.3";
    object      p;
}
// * * * * * * * * * * * * * * * * * * * * * * * * * * * * * * * * * * * * * //

dimensions      [0 2 -2 0 0 0 0];

internalField   nonuniform List<scalar> 
900
(
-1.31747e-07
-0.000353152
-0.000933119
-0.00156013
-0.00212295
-0.00255644
-0.00282678
-0.0029173
-0.00281784
-0.00252004
-0.00201703
-0.00130597
-0.000392059
0.000707006
0.00195734
0.00330679
0.00468516
0.00600789
0.0071828
0.00811991
0.00874316
0.00900248
0.00888372
0.0084148
0.0076666
0.00674658
0.00578939
0.00495381
0.00440418
0.00426584
0.000348027
-1.79147e-05
-0.000462503
-0.000924579
-0.00133847
-0.00165735
-0.0018547
-0.00191481
-0.0018263
-0.00157976
-0.00116781
-0.000587128
0.000158614
0.00105529
0.0020753
0.00317573
0.00430074
0.00538025
0.00633903
0.00710392
0.00761368
0.00782905
0.00774098
0.00737494
0.00679065
0.00607688
0.00534139
0.00468663
0.0042509
0.00412502
0.000949794
0.000410537
-4.92353e-05
-0.000464116
-0.000820177
-0.0010896
-0.00125714
-0.00131316
-0.0012484
-0.0010532
-0.000718502
-0.00023801
0.00038868
0.00115266
0.0020327
0.00299379
0.0039855
0.00494543
0.00580425
0.00649323
0.00695396
0.00714832
0.00706653
0.00673129
0.00619673
0.00554221
0.0048618
0.00425053
0.0038034
0.00359128
0.00162603
0.000850459
0.000309762
-0.000116675
-0.000463375
-0.000721231
-0.000887899
-0.000961814
-0.000937004
-0.000803532
-0.000549498
-0.000163892
0.000359757
0.00101938
0.00180069
0.00267453
0.00359529
0.00450318
0.00532886
0.0060012
0.00645749
0.00665433
0.0065766
0.00624238
0.00570194
0.00503058
0.00431803
0.00365646
0.00312038
0.00274533
0.002229
0.00119903
0.00055375
8.90403e-05
-0.000275328
-0.000547482
-0.000737496
-0.000851633
-0.000886765
-0.000831908
-0.000671179
-0.000387373
3.36265e-05
0.000598011
0.00129933
0.00211461
0.00300267
0.00390414
0.00474654
0.00545203
0.00594844
0.00618159
0.00612613
0.00579211
0.00522487
0.00449781
0.00370178
0.00293285
0.00225507
0.00166477
0.00263442
0.00135265
0.000593818
7.43408e-05
-0.000328654
-0.00063881
-0.000877215
-0.00105671
-0.00117586
-0.00122146
-0.00117232
-0.00100354
-0.000691747
-0.000220841
0.000412051
0.00119131
0.00208042
0.00301971
0.00393166
0.00472814
0.00532239
0.00564325
0.00564867
0.00533525
0.0047403
0.00393571
0.00301792
0.00209486
0.0012283
0.00038196
0.00273313
0.00121558
0.00034365
-0.000240259
-0.000698519
-0.00106877
-0.00138149
-0.00165453
-0.00188673
-0.00206132
-0.00215038
-0.00211977
-0.00193495
-0.00156781
-0.00100382
-0.00024905
0.000666974
0.00168495
0.0027218
0.00367645
0.00444247
0.00492441
0.00505496
0.00480892
0.00420965
0.00332553
0.00226186
0.00114647
4.80972e-05
-0.00109746
0.00242856
0.000699772
-0.000278764
-0.000932413
-0.00145995
-0.0019118
-0.00232637
-0.00272498
-0.00310544
-0.00344614
-0.00371112
-0.00385531
-0.0038309
-0.00359495
-0.00311791
-0.00239245
-0.00143638
-0.000306345
0.000910723
0.00209966
0.00312965
0.00387257
0.00422458
0.00412665
0.00357787
0.00263759
0.00142109
8.40347e-05
-0.00128873
-0.00278669
0.00163523
-0.000274119
-0.00134936
-0.00207621
-0.00268646
-0.00324233
-0.00378896
-0.00434998
-0.00492117
-0.0054752
-0.00596696
-0.00633886
-0.00652749
-0.00647169
-0.00612191
-0.00545062
-0.00446229
-0.00320062
-0.00175299
-0.000247696
0.00115663
0.0022903
0.00299902
0.00317295
0.00277072
0.00183135
0.000477592
-0.00109983
-0.00279067
-0.00470884
0.000280113
-0.0017739
-0.00293396
-0.00373706
-0.00444404
-0.00512805
-0.00584011
-0.00660548
-0.00741749
-0.00824273
-0.0090263
-0.00969684
-0.0101729
-0.0103715
-0.0102172
-0.00965503
-0.00866822
-0.00727764
-0.00556317
-0.00366131
-0.001759
-7.53369e-05
0.00116912
0.00179159
0.00168598
0.000851107
-0.000591894
-0.00241225
-0.00446465
-0.00688759
-0.00169409
-0.00385234
-0.00508396
-0.00596638
-0.00678475
-0.00762236
-0.00853565
-0.00955139
-0.0106607
-0.0118245
-0.012978
-0.0140355
-0.0148956
-0.0154494
-0.0155907
-0.0152298
-0.0143114
-0.0128278
-0.0108374
-0.00847441
-0.00594922
-0.00353432
-0.00153192
-0.000224227
0.000184472
-0.000379375
-0.00181628
-0.00385595
-0.00630867
-0.00933768
-0.00432502
-0.00654351
-0.00783228
-0.00879664
-0.00974056
-0.0107568
-0.0119072
-0.0132205
-0.0146866
-0.0162616
-0.0178722
-0.0194182
-0.020777
-0.021811
-0.0223776
-0.0223436
-0.0216048
-0.020109
-0.0178764
-0.0150225
-0.0117686
-0.00843715
-0.00542247
-0.00313368
-0.00191544
-0.00196125
-0.00323023
-0.00542443
-0.00830334
-0.0120544
-0.007627
-0.00985978
-0.01119
-0.0122371
-0.0133178
-0.014534
-0.0159532
-0.0176071
-0.0194861
-0.0215437
-0.0236994
-0.0258397
-0.0278213
-0.0294759
-0.0306201
-0.0310701
-0.0306619
-0.0292854
-0.0269003
-0.0235814
-0.0195394
-0.0151315
-0.0108438
-0.00723416
-0.00483418
-0.00402102
-0.00487256
-0.00709547
-0.0104011
-0.0150006
-0.0115885
-0.01379
-0.0151444
-0.0162709
-0.0174931
-0.0189216
-0.0206307
-0.0226569
-0.0249933
-0.0275931
-0.0303712
-0.0332033
-0.0359263
-0.0383416
-0.0402235
-0.0413333
-0.0414413
-0.0403569
-0.0379686
-0.0342824
-0.0294676
-0.0238869
-0.0181005
-0.0128213
-0.00880946
-0.00670085
-0.00677984
-0.00882139
-0.0125118
-0.018089
-0.0161714
-0.0182997
-0.0196591
-0.0208547
-0.0222114
-0.0238494
-0.0258513
-0.0282608
-0.0310766
-0.0342546
-0.0377082
-0.0413048
-0.0448645
-0.0481603
-0.0509253
-0.0528653
-0.0536802
-0.0530926
-0.0509022
-0.0470212
-0.041543
-0.0347939
-0.0273687
-0.0201169
-0.0140482
-0.0101317
-0.00897063
-0.0105139
-0.0144833
-0.0211597
-0.0213132
-0.0233345
-0.0246772
-0.0259208
-0.0273876
-0.029209
-0.0314795
-0.0342531
-0.0375373
-0.0412942
-0.0454384
-0.0498324
-0.0542823
-0.0585365
-0.0622906
-0.0651984
-0.0668891
-0.0669956
-0.0652325
-0.0613889
-0.0554505
-0.047659
-0.0385862
-0.0291672
-0.0206476
-0.0143816
-0.0114144
-0.0120203
-0.0160753
-0.0239498
-0.0269322
-0.0288257
-0.0301275
-0.0313829
-0.0329108
-0.0348584
-0.0373371
-0.0404164
-0.0441164
-0.0484082
-0.0532104
-0.0583832
-0.0637217
-0.0689538
-0.0737423
-0.0776947
-0.0803752
-0.0813232
-0.0802152
-0.0766625
-0.0705299
-0.0619335
-0.0513543
-0.0397336
-0.028493
-0.0193775
-0.0139804
-0.013088
-0.0169246
-0.0260549
-0.0329354
-0.0347012
-0.035934
-0.0371441
-0.0386517
-0.0406284
-0.0432115
-0.0464926
-0.0505089
-0.0552434
-0.0606203
-0.0664985
-0.0726645
-0.0788288
-0.0846265
-0.0896257
-0.0933498
-0.09531
-0.0949333
-0.0918713
-0.0858154
-0.0767138
-0.064894
-0.0512098
-0.0371553
-0.0248086
-0.0163652
-0.0133144
-0.0165006
-0.0268808
-0.0392317
-0.0408985
-0.0420285
-0.0431075
-0.0444716
-0.0463323
-0.0488665
-0.0521975
-0.0563849
-0.061425
-0.0672478
-0.0737102
-0.0805899
-0.0875813
-0.0942957
-0.100269
-0.104978
-0.107869
-0.108356
-0.105928
-0.10016
-0.0908362
-0.078092
-0.0626082
-0.0458254
-0.0300344
-0.0180054
-0.0120798
-0.0140493
-0.0255822
-0.0457481
-0.0473841
-0.0483664
-0.0491876
-0.050231
-0.0517743
-0.0540545
-0.0572385
-0.0614133
-0.0665886
-0.0726974
-0.0795917
-0.087037
-0.0947101
-0.1022
-0.109014
-0.114594
-0.118336
-0.119614
-0.117822
-0.112426
-0.103055
-0.0896416
-0.0726409
-0.0533229
-0.0340305
-0.0179932
-0.00846686
-0.00852243
-0.0209809
-0.0524557
-0.0541797
-0.0549446
-0.0553192
-0.055795
-0.0567563
-0.058527
-0.0613313
-0.0652861
-0.0704115
-0.0766373
-0.0838032
-0.0916562
-0.0998504
-0.107955
-0.115439
-0.121718
-0.126152
-0.128059
-0.126773
-0.121669
-0.112243
-0.098244
-0.0798871
-0.0581954
-0.0354043
-0.0150206
-0.00117343
0.00151028
-0.0114486
-0.0594133
-0.0614003
-0.0618227
-0.0614647
-0.0610343
-0.0610803
-0.0620437
-0.0642161
-0.0677415
-0.0726411
-0.0788303
-0.0861249
-0.0942429
-0.102806
-0.111378
-0.11935
-0.126134
-0.131055
-0.133354
-0.132327
-0.127268
-0.117565
-0.102808
-0.0830008
-0.0588929
-0.0324917
-0.00738044
0.011563
0.0179703
0.00527657
-0.0668537
-0.0693166
-0.069149
-0.0676161
-0.0658216
-0.0645493
-0.0643812
-0.0656742
-0.0685855
-0.0731189
-0.0791586
-0.08648
-0.0947638
-0.103593
-0.112466
-0.120781
-0.127878
-0.133028
-0.135451
-0.134358
-0.128964
-0.118558
-0.1026
-0.080914
-0.0539735
-0.023531
0.00694955
0.0320014
0.0434165
0.0323927
-0.0753694
-0.0784611
-0.0771935
-0.0737932
-0.0700257
-0.0669707
-0.0653465
-0.0655489
-0.0677148
-0.0718006
-0.0776319
-0.0849287
-0.0933167
-0.10233
-0.111413
-0.119927
-0.127155
-0.132312
-0.134558
-0.133021
-0.126822
-0.11514
-0.0973103
-0.0730022
-0.0423391
-0.00694997
0.0300823
0.0628546
0.0812601
0.0745235
-0.0863374
-0.0898147
-0.0863821
-0.0800363
-0.0735089
-0.0681665
-0.0647972
-0.0637662
-0.0651325
-0.0687612
-0.0743905
-0.0816631
-0.0901368
-0.0992864
-0.108503
-0.117095
-0.124289
-0.129233
-0.131011
-0.128655
-0.121162
-0.10758
-0.0870729
-0.0590962
-0.023653
0.0181728
0.0637278
0.107054
0.135943
0.138226
-0.102914
-0.105145
-0.0973056
-0.0863705
-0.0761079
-0.0679678
-0.0626373
-0.060327
-0.0609314
-0.0641698
-0.0696606
-0.0769501
-0.0855187
-0.0947774
-0.104061
-0.112623
-0.11963
-0.124165
-0.125226
-0.121739
-0.11254
-0.096519
-0.0726124
-0.0399923
0.00167647
0.051823
0.108448
0.166962
0.212477
0.231931
-0.132258
-0.12754
-0.110772
-0.0928126
-0.0776242
-0.0661918
-0.0587874
-0.0552713
-0.055256
-0.0582491
-0.0637166
-0.0710955
-0.0797858
-0.0891361
-0.0984293
-0.10687
-0.113573
-0.117558
-0.117746
-0.112954
-0.101859
-0.0831383
-0.0554342
-0.0174953
0.0316161
0.0922234
0.163722
0.242545
0.3147
0.367271
-0.190528
-0.160584
-0.127337
-0.0990035
-0.0774511
-0.0623497
-0.0529962
-0.04857
-0.0482423
-0.0512452
-0.0568742
-0.0644588
-0.0733295
-0.0827873
-0.0920784
-0.100373
-0.10675
-0.11018
-0.10952
-0.103491
-0.0907329
-0.0696113
-0.0384318
0.00462915
0.0614959
0.134094
0.224257
0.331312
0.444744
0.571035
-0.321617
-0.200304
-0.138813
-0.09747
-0.0697941
-0.0522584
-0.0423842
-0.0382694
-0.0385429
-0.0422055
-0.0484544
-0.0565745
-0.0658767
-0.0756551
-0.0851541
-0.0935433
-0.0998979
-0.103178
-0.102211
-0.0955935
-0.0820644
-0.0597813
-0.026762
0.0193798
0.0817568
0.164732
0.274787
0.420455
0.608767
0.89828
-0.649027
-0.236814
-0.107395
-0.0625059
-0.037924
-0.0242078
-0.0184663
-0.0180516
-0.0212858
-0.027249
-0.0353023
-0.0448671
-0.0553574
-0.0661459
-0.0765378
-0.0857494
-0.0928925
-0.0969648
-0.0968591
-0.0913996
-0.0788195
-0.0575838
-0.0256966
0.0194329
0.0814949
0.166712
0.287529
0.472296
0.778425
1.37227
)
;

boundaryField
{
    movingWall
    {
        type            zeroGradient;
    }
    fixedWalls
    {
        type            zeroGradient;
    }
    frontAndBack
    {
        type            empty;
    }
}


// ************************************************************************* //
