/*--------------------------------*- C++ -*----------------------------------*\
  =========                 |
  \\      /  F ield         | OpenFOAM: The Open Source CFD Toolbox
   \\    /   O peration     | Website:  https://openfoam.org
    \\  /    A nd           | Version:  7
     \\/     M anipulation  |
\*---------------------------------------------------------------------------*/
FoamFile
{
    version     2.0;
    format      ascii;
    class       volVectorField;
    location    "9.3";
    object      U;
}
// * * * * * * * * * * * * * * * * * * * * * * * * * * * * * * * * * * * * * //

dimensions      [0 1 -1 0 0 0 0];

internalField   nonuniform List<vector> 
900
(
(0.000164882 -0.000163768 0)
(0.000293376 -7.12841e-05 0)
(-2.88419e-05 9.79165e-05 0)
(-0.000811367 0.000246973 0)
(-0.00196195 0.000354888 0)
(-0.00337531 0.000424351 0)
(-0.00495654 0.000464748 0)
(-0.00662781 0.000484296 0)
(-0.00832483 0.000487591 0)
(-0.0099893 0.000475704 0)
(-0.0115622 0.000447167 0)
(-0.0129799 0.000399212 0)
(-0.0141731 0.000329044 0)
(-0.0150693 0.000235052 0)
(-0.0155983 0.000117879 0)
(-0.0156994 -1.88369e-05 0)
(-0.0153303 -0.000168457 0)
(-0.0144764 -0.000320291 0)
(-0.0131588 -0.00046119 0)
(-0.0114385 -0.000576689 0)
(-0.00941702 -0.000652844 0)
(-0.00723134 -0.000678436 0)
(-0.00504249 -0.000647024 0)
(-0.00301979 -0.000558451 0)
(-0.00132122 -0.000419633 0)
(-7.37193e-05 -0.000245278 0)
(0.000642876 -5.70912e-05 0)
(0.000817729 0.00011857 0)
(0.000559133 0.000224723 0)
(0.000172332 0.000171209 0)
(7.98685e-05 -0.000300859 0)
(-0.000299115 0.000296492 0)
(-0.00173754 0.00113858 0)
(-0.00414945 0.00189695 0)
(-0.00736955 0.0024805 0)
(-0.0111939 0.00288182 0)
(-0.015416 0.00312384 0)
(-0.0198476 0.00323195 0)
(-0.024318 0.00322197 0)
(-0.0286648 0.00309807 0)
(-0.032725 0.00285556 0)
(-0.0363295 0.00248586 0)
(-0.0393043 0.00198221 0)
(-0.041477 0.00134512 0)
(-0.0426891 0.000586919 0)
(-0.0428133 -0.000265126 0)
(-0.0417697 -0.00116708 0)
(-0.0395442 -0.00205999 0)
(-0.0362041 -0.00287392 0)
(-0.0319035 -0.00353459 0)
(-0.0268831 -0.00397254 0)
(-0.021457 -0.00413333 0)
(-0.0159894 -0.00398736 0)
(-0.0108605 -0.00353729 0)
(-0.00642531 -0.00282216 0)
(-0.00296928 -0.0019189 0)
(-0.000662992 -0.000941494 0)
(0.000464176 -4.15371e-05 0)
(0.000601955 0.000566462 0)
(0.000232741 0.000556567 0)
(-0.000105881 2.66699e-05 0)
(-0.00124843 0.00175774 0)
(-0.00405616 0.00381828 0)
(-0.00820263 0.00565988 0)
(-0.0134302 0.00710236 0)
(-0.0194692 0.00811391 0)
(-0.0260384 0.00872457 0)
(-0.0328703 0.00897594 0)
(-0.0397131 0.00889574 0)
(-0.0463217 0.0084914 0)
(-0.0524491 0.00775486 0)
(-0.0578438 0.00667295 0)
(-0.0622528 0.00523984 0)
(-0.0654329 0.0034691 0)
(-0.0671678 0.00140347 0)
(-0.0672882 -0.000878819 0)
(-0.0656954 -0.00326165 0)
(-0.0623823 -0.00559659 0)
(-0.0574505 -0.00771175 0)
(-0.0511184 -0.00942795 0)
(-0.0437188 -0.0105795 0)
(-0.0356836 -0.0110373 0)
(-0.0275135 -0.010732 0)
(-0.0197346 -0.00967121 0)
(-0.0128443 -0.00795078 0)
(-0.00725134 -0.00575703 0)
(-0.00321647 -0.00336485 0)
(-0.000804336 -0.00113765 0)
(0.000169905 0.000477124 0)
(0.00016915 0.000866344 0)
(-0.000303198 0.000912346 0)
(-0.00227425 0.00441642 0)
(-0.00654862 0.00809932 0)
(-0.0124793 0.011304 0)
(-0.0196817 0.0138002 0)
(-0.0278195 0.0155463 0)
(-0.0365506 0.0165829 0)
(-0.0455485 0.0169663 0)
(-0.0545014 0.0167336 0)
(-0.0631024 0.0158938 0)
(-0.0710414 0.0144356 0)
(-0.0780049 0.0123438 0)
(-0.0836812 0.00961971 0)
(-0.0877751 0.00629963 0)
(-0.0900266 0.00246998 0)
(-0.0902348 -0.00172343 0)
(-0.0882821 -0.00607455 0)
(-0.0841583 -0.0103236 0)
(-0.0779791 -0.0141741 0)
(-0.0699966 -0.0173183 0)
(-0.0605994 -0.0194712 0)
(-0.0502984 -0.0204088 0)
(-0.039695 -0.0200057 0)
(-0.0294337 -0.018268 0)
(-0.0201387 -0.015353 0)
(-0.0123423 -0.0115747 0)
(-0.00641217 -0.0073974 0)
(-0.00248609 -0.00342105 0)
(-0.000440447 -0.000363296 0)
(7.20373e-05 0.000886047 0)
(-0.000489981 0.00235593 0)
(-0.00328209 0.00830252 0)
(-0.00902677 0.0139997 0)
(-0.0167267 0.0187956 0)
(-0.02585 0.0224739 0)
(-0.0359882 0.0250159 0)
(-0.0467439 0.0264868 0)
(-0.0577441 0.0269613 0)
(-0.0686343 0.0264851 0)
(-0.0790637 0.0250675 0)
(-0.0886779 0.0226934 0)
(-0.0971184 0.0193479 0)
(-0.10403 0.015043 0)
(-0.109077 0.00984328 0)
(-0.111961 0.00388588 0)
(-0.112448 -0.00260828 0)
(-0.11039 -0.00933333 0)
(-0.105753 -0.0159071 0)
(-0.0986418 -0.0218941 0)
(-0.0893091 -0.0268405 0)
(-0.0781676 -0.0303203 0)
(-0.0657787 -0.0319898 0)
(-0.0528261 -0.0316444 0)
(-0.0400661 -0.029269 0)
(-0.0282584 -0.0250727 0)
(-0.0180815 -0.0195 0)
(-0.0100431 -0.0132189 0)
(-0.00439464 -0.00708687 0)
(-0.00111532 -0.0021062 0)
(-2.49623e-05 0.000557658 0)
(-0.000660832 0.00432995 0)
(-0.0042319 0.0133866 0)
(-0.0113896 0.0214921 0)
(-0.0207892 0.0280964 0)
(-0.0317469 0.0330638 0)
(-0.0437795 0.0364399 0)
(-0.0564388 0.0383361 0)
(-0.0693155 0.0388548 0)
(-0.0820257 0.038053 0)
(-0.0941908 0.0359396 0)
(-0.105428 0.0324954 0)
(-0.115347 0.0277051 0)
(-0.123563 0.0215914 0)
(-0.129703 0.0142473 0)
(-0.133432 0.00586001 0)
(-0.13447 -0.00327428 0)
(-0.132626 -0.0127485 0)
(-0.127815 -0.0220534 0)
(-0.120097 -0.0306048 0)
(-0.109693 -0.0377849 0)
(-0.0970077 -0.0430001 0)
(-0.0826273 -0.0457535 0)
(-0.0673048 -0.0457238 0)
(-0.0519132 -0.0428402 0)
(-0.0373698 -0.0373392 0)
(-0.0245375 -0.0297875 0)
(-0.0141107 -0.0210662 0)
(-0.00650183 -0.0123146 0)
(-0.00183147 -0.00484678 0)
(-0.000115498 -0.000127651 0)
(-0.000814927 0.00679511 0)
(-0.005103 0.0195963 0)
(-0.0135732 0.0304898 0)
(-0.0245572 0.0391092 0)
(-0.0372264 0.0454631 0)
(-0.0510262 0.0497047 0)
(-0.0654635 0.0520174 0)
(-0.0801021 0.0525442 0)
(-0.0945406 0.0513586 0)
(-0.108386 0.0484702 0)
(-0.121241 0.0438542 0)
(-0.132698 0.0374918 0)
(-0.142347 0.0294119 0)
(-0.149785 0.0197294 0)
(-0.154635 0.00867397 0)
(-0.156563 -0.00339132 0)
(-0.15531 -0.0159651 0)
(-0.150715 -0.0284134 0)
(-0.14276 -0.0399972 0)
(-0.131596 -0.0499171 0)
(-0.117582 -0.0573807 0)
(-0.1013 -0.0616932 0)
(-0.0835566 -0.0623626 0)
(-0.0653457 -0.0592088 0)
(-0.0477696 -0.0524518 0)
(-0.0319234 -0.0427591 0)
(-0.0187487 -0.0312311 0)
(-0.00887691 -0.0193203 0)
(-0.00261501 -0.00869947 0)
(-0.000204679 -0.00118667 0)
(-0.000951049 0.00970375 0)
(-0.00587826 0.0268308 0)
(-0.0155256 0.0408649 0)
(-0.0279385 0.0516943 0)
(-0.0421582 0.059529 0)
(-0.0575675 0.0646716 0)
(-0.0736363 0.0674043 0)
(-0.0899106 0.067926 0)
(-0.105983 0.0663335 0)
(-0.121458 0.0626391 0)
(-0.135936 0.0568099 0)
(-0.149003 0.0488183 0)
(-0.160235 0.0386907 0)
(-0.1692 0.0265516 0)
(-0.175475 0.0126579 0)
(-0.178667 -0.00257724 0)
(-0.178427 -0.0185714 0)
(-0.174495 -0.0345776 0)
(-0.166739 -0.0497017 0)
(-0.155199 -0.0629469 0)
(-0.140146 -0.073288 0)
(-0.122118 -0.0797776 0)
(-0.101947 -0.0816822 0)
(-0.0807409 -0.0786343 0)
(-0.0598086 -0.0707692 0)
(-0.04053 -0.0588132 0)
(-0.0241666 -0.0440847 0)
(-0.0116441 -0.0283892 0)
(-0.00351738 -0.0138283 0)
(-0.000302655 -0.00265996 0)
(-0.00106642 0.0129995 0)
(-0.00653852 0.0349637 0)
(-0.0171956 0.0524544 0)
(-0.0308428 0.0656742 0)
(-0.0464126 0.0750836 0)
(-0.0632359 0.0811724 0)
(-0.0807551 0.0843475 0)
(-0.0985075 0.0848795 0)
(-0.116089 0.082897 0)
(-0.133115 0.0784171 0)
(-0.149193 0.0713967 0)
(-0.163916 0.0617919 0)
(-0.176852 0.0496144 0)
(-0.187549 0.0349817 0)
(-0.195542 0.0181565 0)
(-0.200366 -0.000421572 0)
(-0.20158 -0.0201124 0)
(-0.198803 -0.0400748 0)
(-0.191756 -0.0592678 0)
(-0.180329 -0.0764893 0)
(-0.164653 -0.0904489 0)
(-0.145169 -0.0998872 0)
(-0.122686 -0.103743 0)
(-0.0983951 -0.101356 0)
(-0.0738188 -0.0926748 0)
(-0.0506682 -0.0784119 0)
(-0.0306077 -0.060084 0)
(-0.0149551 -0.0398942 0)
(-0.0046021 -0.0204664 0)
(-0.00042149 -0.00462027 0)
(-0.0011571 0.0166152 0)
(-0.00706232 0.0438434 0)
(-0.01853 0.065061 0)
(-0.0331792 0.0808323 0)
(-0.049857 0.0919086 0)
(-0.067855 0.0989985 0)
(-0.0865971 0.102657 0)
(-0.105621 0.103243 0)
(-0.124534 0.100925 0)
(-0.142971 0.0957297 0)
(-0.160561 0.0876003 0)
(-0.176913 0.0764692 0)
(-0.1916 0.06232 0)
(-0.204159 0.0452433 0)
(-0.214093 0.0254829 0)
(-0.220871 0.0034758 0)
(-0.223959 -0.0201152 0)
(-0.222843 -0.0443799 0)
(-0.217079 -0.0681517 0)
(-0.206371 -0.0900282 0)
(-0.190652 -0.108433 0)
(-0.170197 -0.121739 0)
(-0.145718 -0.128461 0)
(-0.11843 -0.127514 0)
(-0.0900386 -0.118516 0)
(-0.0626158 -0.102045 0)
(-0.0383161 -0.0797603 0)
(-0.0189715 -0.0542997 0)
(-0.00593833 -0.0289249 0)
(-0.000574103 -0.00717656 0)
(-0.00121874 0.0204715 0)
(-0.00742812 0.0532921 0)
(-0.0194776 0.0784528 0)
(-0.0348598 0.0969122 0)
(-0.0523616 0.109741 0)
(-0.0712468 0.117892 0)
(-0.0909291 0.122088 0)
(-0.110952 0.122793 0)
(-0.130944 0.120225 0)
(-0.150567 0.114423 0)
(-0.16948 0.105317 0)
(-0.187321 0.0928105 0)
(-0.203684 0.0768441 0)
(-0.21811 0.0574621 0)
(-0.230085 0.0348631 0)
(-0.239035 0.00944854 0)
(-0.24434 -0.0181335 0)
(-0.245363 -0.0469431 0)
(-0.241489 -0.0757252 0)
(-0.232204 -0.102902 0)
(-0.217198 -0.126612 0)
(-0.196498 -0.14482 0)
(-0.170617 -0.155521 0)
(-0.140689 -0.157058 0)
(-0.108531 -0.148524 0)
(-0.0765634 -0.130171 0)
(-0.0475069 -0.103689 0)
(-0.0238527 -0.0721532 0)
(-0.00759781 -0.0395948 0)
(-0.000774231 -0.0104758 0)
(-0.0012475 0.0244778 0)
(-0.00761756 0.0631084 0)
(-0.019995 0.0923665 0)
(-0.0358089 0.113619 0)
(-0.0538109 0.128273 0)
(-0.0732468 0.13754 0)
(-0.0935262 0.142332 0)
(-0.114203 0.143228 0)
(-0.134931 0.140509 0)
(-0.155406 0.134234 0)
(-0.175328 0.124322 0)
(-0.194375 0.110639 0)
(-0.212178 0.0930766 0)
(-0.228305 0.0716146 0)
(-0.242251 0.0463821 0)
(-0.253424 0.0177119 0)
(-0.261153 -0.0138011 0)
(-0.264699 -0.0472389 0)
(-0.263292 -0.0813119 0)
(-0.256195 -0.114317 0)
(-0.242812 -0.14414 0)
(-0.222842 -0.168331 0)
(-0.19648 -0.184294 0)
(-0.164633 -0.189641 0)
(-0.129091 -0.1827 0)
(-0.0925495 -0.163132 0)
(-0.0583311 -0.132434 0)
(-0.0297427 -0.0940628 0)
(-0.0096529 -0.0529423 0)
(-0.00103682 -0.0147038 0)
(-0.00124095 0.0285346 0)
(-0.00761932 0.0730731 0)
(-0.0200544 0.106514 0)
(-0.0359751 0.130626 0)
(-0.0541201 0.147152 0)
(-0.0737248 0.157577 0)
(-0.0941984 0.16301 0)
(-0.115108 0.164162 0)
(-0.136133 0.161389 0)
(-0.15701 0.154778 0)
(-0.177486 0.144242 0)
(-0.197294 0.129613 0)
(-0.21612 0.110726 0)
(-0.233583 0.0874866 0)
(-0.249217 0.0599349 0)
(-0.262455 0.0283078 0)
(-0.272614 -0.00689455 0)
(-0.278903 -0.0448339 0)
(-0.280435 -0.0842522 0)
(-0.276267 -0.1234 0)
(-0.265503 -0.159984 0)
(-0.247453 -0.191179 0)
(-0.221869 -0.213774 0)
(-0.18925 -0.224514 0)
(-0.151154 -0.220701 0)
(-0.110387 -0.201035 0)
(-0.0708338 -0.166471 0)
(-0.0367544 -0.120657 0)
(-0.0121743 -0.0694974 0)
(-0.00137853 -0.0200856 0)
(-0.001199 0.0325385 0)
(-0.00743326 0.0829586 0)
(-0.0196531 0.120592 0)
(-0.0353452 0.147581 0)
(-0.0532542 0.165994 0)
(-0.0726102 0.177586 0)
(-0.0928227 0.183677 0)
(-0.113472 0.185122 0)
(-0.134266 0.182367 0)
(-0.154983 0.175539 0)
(-0.175425 0.164554 0)
(-0.195391 0.149215 0)
(-0.21464 0.129304 0)
(-0.232866 0.104648 0)
(-0.249681 0.0751899 0)
(-0.264584 0.0410491 0)
(-0.27694 0.00259523 0)
(-0.285962 -0.0394683 0)
(-0.290706 -0.083993 0)
(-0.29008 -0.129287 0)
(-0.28291 -0.172992 0)
(-0.268087 -0.212012 0)
(-0.244819 -0.242565 0)
(-0.213008 -0.260455 0)
(-0.173715 -0.261707 0)
(-0.129583 -0.243619 0)
(-0.0849015 -0.206072 0)
(-0.0449485 -0.152523 0)
(-0.0152275 -0.0898339 0)
(-0.0018182 -0.0268845 0)
(-0.00112475 0.0363896 0)
(-0.0070746 0.0925433 0)
(-0.0188224 0.1343 0)
(-0.0339591 0.164126 0)
(-0.0512486 0.184389 0)
(-0.0699172 0.197113 0)
(-0.0893756 0.203833 0)
(-0.109217 0.205563 0)
(-0.129177 0.202853 0)
(-0.149079 0.195886 0)
(-0.168788 0.184594 0)
(-0.188175 0.168765 0)
(-0.207089 0.148134 0)
(-0.225327 0.122458 0)
(-0.242607 0.0915816 0)
(-0.258542 0.0554975 0)
(-0.2726 0.0144192 0)
(-0.284068 -0.0311295 0)
(-0.292025 -0.0801885 0)
(-0.295311 -0.131245 0)
(-0.292543 -0.182024 0)
(-0.282218 -0.229327 0)
(-0.262951 -0.268937 0)
(-0.233882 -0.295749 0)
(-0.195286 -0.304327 0)
(-0.14927 -0.290098 0)
(-0.100202 -0.251166 0)
(-0.0543049 -0.19012 0)
(-0.0188673 -0.114537 0)
(-0.00237724 -0.0353994 0)
(-0.00102523 0.0400009 0)
(-0.00657787 0.101631 0)
(-0.017637 0.14736 0)
(-0.0319241 0.179912 0)
(-0.0482274 0.201925 0)
(-0.0657691 0.215681 0)
(-0.0839616 0.222939 0)
(-0.102413 0.224883 0)
(-0.120889 0.222184 0)
(-0.139261 0.2151 0)
(-0.157462 0.203594 0)
(-0.175446 0.187457 0)
(-0.193164 0.166393 0)
(-0.210533 0.140102 0)
(-0.227407 0.10834 0)
(-0.243548 0.0709783 0)
(-0.258579 0.0280639 0)
(-0.271921 -0.0200938 0)
(-0.28277 -0.0727885 0)
(-0.290005 -0.128804 0)
(-0.292134 -0.186118 0)
(-0.287354 -0.241648 0)
(-0.273712 -0.290979 0)
(-0.249499 -0.328264 0)
(-0.213939 -0.34657 0)
(-0.168169 -0.339049 0)
(-0.11613 -0.30118 0)
(-0.0646907 -0.233659 0)
(-0.0231311 -0.144155 0)
(-0.00308008 -0.0459597 0)
(-0.000912134 0.0433096 0)
(-0.006001 0.110072 0)
(-0.0162242 0.159544 0)
(-0.0294286 0.19463 0)
(-0.0444205 0.218209 0)
(-0.0604165 0.232818 0)
(-0.0768349 0.240441 0)
(-0.0933042 0.242453 0)
(-0.109628 0.239661 0)
(-0.125734 0.232414 0)
(-0.141626 0.220731 0)
(-0.157352 0.204418 0)
(-0.172975 0.183172 0)
(-0.188541 0.156654 0)
(-0.204058 0.124552 0)
(-0.219462 0.086631 0)
(-0.234565 0.042783 0)
(-0.248971 -0.00690661 0)
(-0.262078 -0.0620913 0)
(-0.272911 -0.121875 0)
(-0.280002 -0.184665 0)
(-0.281398 -0.247745 0)
(-0.274706 -0.306823 0)
(-0.257385 -0.355636 0)
(-0.227444 -0.385927 0)
(-0.184616 -0.388345 0)
(-0.13177 -0.354893 0)
(-0.075827 -0.28297 0)
(-0.028033 -0.179139 0)
(-0.00395541 -0.0589175 0)
(-0.00080296 0.0462914 0)
(-0.00543045 0.117795 0)
(-0.0147739 0.170703 0)
(-0.0267548 0.208035 0)
(-0.0401765 0.232893 0)
(-0.0542495 0.24807 0)
(-0.0684084 0.255795 0)
(-0.0823174 0.257644 0)
(-0.0958329 0.25458 0)
(-0.108949 0.247062 0)
(-0.121755 0.235178 0)
(-0.134397 0.218772 0)
(-0.147054 0.197552 0)
(-0.159909 0.171162 0)
(-0.173125 0.139244 0)
(-0.186812 0.101476 0)
(-0.200987 0.0576099 0)
(-0.215531 0.00751258 0)
(-0.230035 -0.0487843 0)
(-0.243719 -0.11082 0)
(-0.255348 -0.177549 0)
(-0.263004 -0.246856 0)
(-0.264054 -0.31493 0)
(-0.255289 -0.375553 0)
(-0.233491 -0.419571 0)
(-0.196665 -0.435214 0)
(-0.145899 -0.410327 0)
(-0.0872649 -0.337345 0)
(-0.0335612 -0.219762 0)
(-0.00503956 -0.0746397 0)
(-0.000723273 0.0489773 0)
(-0.00498983 0.124838 0)
(-0.0135534 0.180805 0)
(-0.024294 0.219975 0)
(-0.0359743 0.245689 0)
(-0.0478019 0.261026 0)
(-0.0592501 0.26848 0)
(-0.0700475 0.26985 0)
(-0.0801287 0.266266 0)
(-0.0895765 0.258312 0)
(-0.0985764 0.246158 0)
(-0.107383 0.229702 0)
(-0.116293 0.208677 0)
(-0.125622 0.18273 0)
(-0.135684 0.151478 0)
(-0.14676 0.114535 0)
(-0.159064 0.0715355 0)
(-0.172695 0.0221558 0)
(-0.187516 -0.0338152 0)
(-0.203058 -0.0964172 0)
(-0.218368 -0.16521 0)
(-0.23177 -0.238846 0)
(-0.240673 -0.314345 0)
(-0.241492 -0.38608 0)
(-0.229968 -0.444664 0)
(-0.202261 -0.476408 0)
(-0.157034 -0.464722 0)
(-0.0983733 -0.395393 0)
(-0.0396841 -0.266031 0)
(-0.00638464 -0.0935044 0)
(-0.000712106 0.0514782 0)
(-0.00485634 0.13139 0)
(-0.0129305 0.18997 0)
(-0.0225669 0.230413 0)
(-0.0324316 0.256388 0)
(-0.0417456 0.271321 0)
(-0.050063 0.278012 0)
(-0.0572235 0.278498 0)
(-0.0632807 0.27409 0)
(-0.068435 0.265496 0)
(-0.0729871 0.252977 0)
(-0.0773063 0.23649 0)
(-0.0818058 0.215804 0)
(-0.0869246 0.19058 0)
(-0.0931111 0.160429 0)
(-0.100795 0.124921 0)
(-0.110358 0.0836127 0)
(-0.122101 0.036034 0)
(-0.136148 -0.0182886 0)
(-0.152351 -0.0797788 0)
(-0.170132 -0.148599 0)
(-0.188223 -0.224261 0)
(-0.204363 -0.304877 0)
(-0.214987 -0.385952 0)
(-0.215183 -0.458717 0)
(-0.199416 -0.508494 0)
(-0.16351 -0.514626 0)
(-0.108337 -0.454924 0)
(-0.0463656 -0.317577 0)
(-0.00807515 -0.115911 0)
(-0.000834268 0.0540234 0)
(-0.00529335 0.137852 0)
(-0.0134132 0.198505 0)
(-0.0222511 0.239445 0)
(-0.0303105 0.264853 0)
(-0.0368709 0.278627 0)
(-0.0416409 0.283927 0)
(-0.0446427 0.283045 0)
(-0.0461053 0.277464 0)
(-0.0463844 0.268013 0)
(-0.0459166 0.255033 0)
(-0.0451914 0.238535 0)
(-0.0447326 0.218321 0)
(-0.0450839 0.194073 0)
(-0.0468092 0.165409 0)
(-0.0504543 0.131862 0)
(-0.0565297 0.0929433 0)
(-0.0655062 0.0480805 0)
(-0.0777298 -0.00340115 0)
(-0.0933493 -0.0622229 0)
(-0.112193 -0.129066 0)
(-0.133518 -0.204262 0)
(-0.155644 -0.287138 0)
(-0.175455 -0.374768 0)
(-0.18794 -0.459903 0)
(-0.18633 -0.528192 0)
(-0.163543 -0.556062 0)
(-0.116142 -0.512863 0)
(-0.0535809 -0.373532 0)
(-0.0102566 -0.142315 0)
(-0.00120682 0.0570292 0)
(-0.00671136 0.144906 0)
(-0.0157114 0.206942 0)
(-0.0242115 0.247281 0)
(-0.030503 0.270984 0)
(-0.0340287 0.282609 0)
(-0.0347734 0.285745 0)
(-0.0330435 0.282939 0)
(-0.0293152 0.275822 0)
(-0.0241419 0.265309 0)
(-0.018115 0.251796 0)
(-0.0118463 0.235329 0)
(-0.00595739 0.215735 0)
(-0.00106987 0.192707 0)
(0.00215536 0.165854 0)
(0.00309149 0.134716 0)
(0.00115123 0.0987588 0)
(-0.00427824 0.0573443 0)
(-0.0137134 0.00969569 0)
(-0.0275503 -0.0451214 0)
(-0.0460102 -0.108165 0)
(-0.0689149 -0.180442 0)
(-0.0953364 -0.262436 0)
(-0.122996 -0.353017 0)
(-0.147423 -0.44726 0)
(-0.161359 -0.532678 0)
(-0.155214 -0.584761 0)
(-0.120511 -0.565205 0)
(-0.0612989 -0.432352 0)
(-0.0131744 -0.173294 0)
(-0.00205276 0.0612271 0)
(-0.00977394 0.153625 0)
(-0.0208153 0.216038 0)
(-0.0295005 0.254186 0)
(-0.0339417 0.274624 0)
(-0.0339629 0.282836 0)
(-0.0300165 0.282892 0)
(-0.0228275 0.27756 0)
(-0.0132 0.268556 0)
(-0.00192517 0.25682 0)
(0.0102391 0.242752 0)
(0.0225669 0.2264 0)
(0.0343561 0.207592 0)
(0.0449183 0.18602 0)
(0.0535576 0.161278 0)
(0.059595 0.13292 0)
(0.0623681 0.100385 0)
(0.0611992 0.0630027 0)
(0.0554373 0.0199639 0)
(0.0444657 -0.0297711 0)
(0.027734 -0.0874721 0)
(0.00488598 -0.154593 0)
(-0.0239658 -0.232546 0)
(-0.0576625 -0.321952 0)
(-0.0928715 -0.42073 0)
(-0.122812 -0.519788 0)
(-0.136301 -0.596369 0)
(-0.119711 -0.606969 0)
(-0.0693558 -0.491529 0)
(-0.0171983 -0.209622 0)
(-0.00380317 0.0679035 0)
(-0.0155598 0.165586 0)
(-0.0300375 0.226691 0)
(-0.0392073 0.260291 0)
(-0.0412657 0.27536 0)
(-0.0368311 0.278596 0)
(-0.0271045 0.274546 0)
(-0.0133899 0.266092 0)
(0.00310234 0.254915 0)
(0.0213164 0.24188 0)
(0.0403336 0.227317 0)
(0.0593348 0.211227 0)
(0.0775648 0.193406 0)
(0.0943043 0.17353 0)
(0.108847 0.151189 0)
(0.120495 0.125925 0)
(0.128545 0.0971842 0)
(0.132275 0.0643077 0)
(0.130933 0.0264881 0)
(0.123728 -0.0173077 0)
(0.109839 -0.0683996 0)
(0.0884509 -0.128437 0)
(0.0589132 -0.199415 0)
(0.0211547 -0.283371 0)
(-0.023082 -0.381067 0)
(-0.068556 -0.48815 0)
(-0.103929 -0.58663 0)
(-0.111157 -0.632107 0)
(-0.077072 -0.547082 0)
(-0.0227483 -0.252198 0)
(-0.00727165 0.0793349 0)
(-0.0257465 0.182919 0)
(-0.0448051 0.23961 0)
(-0.0537824 0.265138 0)
(-0.0517692 0.272087 0)
(-0.0408885 0.268542 0)
(-0.0234607 0.25936 0)
(-0.00152791 0.247307 0)
(0.0232471 0.233833 0)
(0.0495554 0.219585 0)
(0.0763534 0.20473 0)
(0.102773 0.189162 0)
(0.128052 0.172611 0)
(0.151485 0.154719 0)
(0.172385 0.135071 0)
(0.190066 0.113205 0)
(0.203818 0.0885941 0)
(0.212887 0.0606227 0)
(0.216451 0.028542 0)
(0.21358 -0.00859527 0)
(0.203238 -0.0520258 0)
(0.184248 -0.103361 0)
(0.155329 -0.164795 0)
(0.115352 -0.239228 0)
(0.0641696 -0.329809 0)
(0.00451265 -0.437395 0)
(-0.0539487 -0.551672 0)
(-0.0906401 -0.633396 0)
(-0.0823874 -0.592716 0)
(-0.029917 -0.30171 0)
(-0.0138632 0.0994784 0)
(-0.0425487 0.207954 0)
(-0.0654704 0.254393 0)
(-0.070771 0.266712 0)
(-0.0604402 0.262209 0)
(-0.0391622 0.250101 0)
(-0.0107398 0.235061 0)
(0.0219895 0.219317 0)
(0.0569777 0.203799 0)
(0.0927706 0.188755 0)
(0.128309 0.174083 0)
(0.162774 0.159508 0)
(0.195478 0.14467 0)
(0.225792 0.129169 0)
(0.253103 0.112583 0)
(0.276777 0.0944698 0)
(0.296134 0.0743508 0)
(0.31042 0.0516845 0)
(0.318772 0.0258312 0)
(0.320157 -0.004009 0)
(0.313402 -0.0388736 0)
(0.297071 -0.0801713 0)
(0.269432 -0.129946 0)
(0.228522 -0.191312 0)
(0.172512 -0.268933 0)
(0.101126 -0.368236 0)
(0.0200945 -0.488584 0)
(-0.0508677 -0.602537 0)
(-0.0803433 -0.618972 0)
(-0.0374819 -0.358504 0)
(-0.0254059 0.134946 0)
(-0.0670693 0.240946 0)
(-0.0865439 0.266605 0)
(-0.0780569 0.259017 0)
(-0.0505277 0.23998 0)
(-0.012143 0.218504 0)
(0.0319245 0.197997 0)
(0.0784178 0.179483 0)
(0.1253 0.163004 0)
(0.171308 0.148232 0)
(0.21563 0.134716 0)
(0.25769 0.121986 0)
(0.297017 0.10959 0)
(0.333171 0.0970975 0)
(0.365687 0.0841031 0)
(0.394048 0.0702109 0)
(0.417657 0.0550176 0)
(0.435812 0.0380891 0)
(0.447663 0.0189295 0)
(0.452159 -0.0030716 0)
(0.448067 -0.0286388 0)
(0.43381 -0.0588827 0)
(0.407411 -0.095455 0)
(0.366387 -0.141094 0)
(0.307668 -0.200693 0)
(0.228072 -0.282511 0)
(0.128102 -0.395595 0)
(0.0208934 -0.531045 0)
(-0.0608748 -0.612648 0)
(-0.0408246 -0.421888 0)
(-0.041326 0.19712 0)
(-0.0902628 0.27252 0)
(-0.0798323 0.25923 0)
(-0.0360999 0.226494 0)
(0.0219874 0.193804 0)
(0.0846921 0.165905 0)
(0.147409 0.14327 0)
(0.207908 0.125068 0)
(0.265174 0.110249 0)
(0.318811 0.0978914 0)
(0.368688 0.0872527 0)
(0.414754 0.0777396 0)
(0.45694 0.0688709 0)
(0.495112 0.0602471 0)
(0.529046 0.0515262 0)
(0.55841 0.042402 0)
(0.582753 0.0325851 0)
(0.601491 0.0217819 0)
(0.61386 0.00966841 0)
(0.618952 -0.00415698 0)
(0.615585 -0.0200903 0)
(0.602181 -0.0388471 0)
(0.576778 -0.0615237 0)
(0.536733 -0.0900518 0)
(0.478329 -0.128302 0)
(0.396267 -0.18447 0)
(0.285226 -0.273845 0)
(0.146084 -0.410555 0)
(-0.00332967 -0.554037 0)
(-0.0253698 -0.477545 0)
(-0.0341687 0.293654 0)
(-0.0480097 0.272464 0)
(0.0535845 0.199445 0)
(0.156667 0.149682 0)
(0.24971 0.114974 0)
(0.332147 0.0901881 0)
(0.404876 0.0726187 0)
(0.469054 0.0600334 0)
(0.525926 0.0507272 0)
(0.576597 0.043555 0)
(0.621919 0.0377682 0)
(0.662493 0.032859 0)
(0.698697 0.0284673 0)
(0.730721 0.0243267 0)
(0.758588 0.0202309 0)
(0.782171 0.0160109 0)
(0.8012 0.0115189 0)
(0.815272 0.00661833 0)
(0.823775 0.00116792 0)
(0.8261 -0.00490662 0)
(0.821299 -0.0119292 0)
(0.808085 -0.0201721 0)
(0.78485 -0.0301026 0)
(0.749287 -0.0426555 0)
(0.6978 -0.059882 0)
(0.624289 -0.0868717 0)
(0.518483 -0.137153 0)
(0.365152 -0.240255 0)
(0.144145 -0.406967 0)
(0.0588731 -0.458304 0)
(0.303194 0.180888 0)
(0.382356 0.144198 0)
(0.560492 0.0910424 0)
(0.686213 0.0589304 0)
(0.768947 0.039343 0)
(0.828706 0.0268954 0)
(0.874826 0.0190205 0)
(0.911646 0.0140393 0)
(0.941855 0.0108056 0)
(0.967247 0.00860683 0)
(0.988957 0.00701996 0)
(1.00768 0.00579095 0)
(1.02382 0.00476198 0)
(1.0376 0.00383136 0)
(1.0491 0.0029304 0)
(1.0583 0.00200973 0)
(1.06508 0.00103003 0)
(1.06926 -3.85177e-05 0)
(1.07061 -0.00123094 0)
(1.06875 -0.00246789 0)
(1.06319 -0.00393662 0)
(1.05345 -0.00567385 0)
(1.03874 -0.00775665 0)
(1.01789 -0.0103937 0)
(0.988828 -0.0140852 0)
(0.947445 -0.0201761 0)
(0.883927 -0.0325603 0)
(0.776328 -0.0637397 0)
(0.544816 -0.139458 0)
(0.38249 -0.201734 0)
)
;

boundaryField
{
    movingWall
    {
        type            fixedValue;
        value           uniform (1.2 0 0);
    }
    fixedWalls
    {
        type            noSlip;
    }
    frontAndBack
    {
        type            empty;
    }
}


// ************************************************************************* //
