/*--------------------------------*- C++ -*----------------------------------*\
  =========                 |
  \\      /  F ield         | OpenFOAM: The Open Source CFD Toolbox
   \\    /   O peration     | Website:  https://openfoam.org
    \\  /    A nd           | Version:  7
     \\/     M anipulation  |
\*---------------------------------------------------------------------------*/
FoamFile
{
    version     2.0;
    format      ascii;
    class       volScalarField;
    location    "100";
    object      epsilon;
}
// * * * * * * * * * * * * * * * * * * * * * * * * * * * * * * * * * * * * * //

dimensions      [0 2 -3 0 0 0 0];

internalField   nonuniform List<scalar> 
16900
(
61.7676
86.8381
138.211
192.192
247.166
302.198
356.555
409.647
461.014
510.311
557.269
601.714
643.523
682.618
718.977
752.594
783.511
811.786
837.483
860.713
881.566
900.181
916.684
931.231
943.979
955.093
964.768
973.181
980.541
987.078
992.213
996.035
998.629
1000.06
1000.38
999.597
997.689
994.602
990.239
984.465
977.107
967.959
956.79
943.361
927.438
908.821
887.359
862.981
835.707
805.656
773.039
738.148
701.35
663.094
623.943
584.541
545.523
507.405
471.301
438.076
411.461
391.249
372.611
355.112
338.649
323.178
308.665
295.077
282.373
270.512
259.448
249.134
239.524
230.571
222.232
214.462
207.222
200.473
194.18
188.309
182.829
177.712
172.933
168.465
164.288
160.382
156.726
153.305
150.102
147.102
144.294
141.664
139.202
136.896
134.739
132.72
130.832
129.068
127.421
125.884
124.453
123.12
121.883
120.735
119.674
118.694
117.793
116.967
116.213
115.528
114.909
114.354
113.861
113.426
113.049
112.727
112.459
112.242
112.074
111.954
111.881
111.852
111.867
111.922
112.018
112.152
112.323
112.529
112.768
113.039
113.341
113.671
114.029
114.412
114.819
115.249
115.699
116.169
116.657
117.162
117.682
118.216
118.763
119.322
119.89
120.468
121.055
121.648
122.248
122.853
123.463
124.076
124.691
125.309
125.927
126.546
127.163
127.779
128.393
129.003
129.608
130.208
130.802
131.389
131.968
132.537
133.097
133.647
134.185
134.71
135.223
135.723
136.209
136.68
137.137
137.578
138.005
138.416
138.811
139.192
139.557
139.907
140.242
140.563
140.869
141.161
141.44
141.706
141.959
142.2
142.429
142.647
142.854
143.051
143.238
143.416
143.585
143.746
143.9
144.045
84.5005
105.515
147.204
183.152
214.346
241.039
263.654
282.614
298.349
311.261
321.729
330.097
336.671
341.731
345.521
348.271
350.177
351.426
352.19
352.611
352.834
352.982
353.181
353.531
354.145
355.123
356.557
358.57
361.29
364.929
368.751
372.548
376.323
380.079
383.817
387.53
391.198
394.79
398.254
401.516
404.477
407.009
408.956
410.134
410.345
409.381
407.046
403.171
397.635
390.378
381.406
370.783
358.614
345.036
330.225
314.423
297.921
281.014
263.324
246.339
231.551
218.575
206.493
195.136
184.461
174.458
165.108
156.389
148.27
140.719
133.699
127.177
121.116
115.483
110.246
105.374
100.84
96.6164
92.6801
89.0086
85.5815
82.3801
79.3875
76.5878
73.967
71.5118
69.2105
67.052
65.0265
63.1248
61.3384
59.6599
58.082
56.5984
55.203
53.8905
52.6558
51.4942
50.4014
49.3734
48.4066
47.4976
46.6431
45.8402
45.0862
44.3784
43.7146
43.0923
42.5096
41.9645
41.4551
40.9796
40.5364
40.1239
39.7407
39.3853
39.0564
38.7529
38.4733
38.2167
37.982
37.768
37.574
37.3988
37.2416
37.1017
36.9781
36.8701
36.7771
36.6984
36.6333
36.5811
36.5415
36.5138
36.4975
36.4922
36.4975
36.513
36.5382
36.573
36.6169
36.6697
36.7311
36.801
36.8791
36.9653
37.0594
37.1612
37.2707
37.3877
37.5123
37.6442
37.7835
37.93
38.0839
38.2449
38.4132
38.5885
38.771
38.9605
39.157
39.3604
39.5706
39.7875
40.0109
40.2406
40.4765
40.7183
40.9658
41.2187
41.4765
41.7391
42.006
42.2767
42.5509
42.828
43.1076
43.389
43.6719
43.9556
44.2396
44.5233
44.8062
45.0877
45.3672
45.6443
45.9183
46.1888
46.4554
46.7175
46.9748
47.2268
47.4731
47.7135
47.9475
48.1746
48.3943
48.6056
48.8066
48.9949
120.262
126.622
164.442
195.041
219.451
238.501
253.052
263.93
271.869
277.494
281.323
283.778
285.208
285.889
286.054
285.887
285.547
285.163
284.83
284.635
284.638
284.886
285.413
286.243
287.391
288.86
290.663
292.794
295.257
297.997
300.773
303.578
306.441
309.394
312.47
315.698
319.1
322.682
326.43
330.306
334.239
338.12
341.804
345.106
347.809
349.674
350.461
349.939
347.916
344.25
338.863
331.734
322.897
312.424
300.44
287.112
272.545
256.44
240.243
225.522
212.129
199.736
188.068
177.048
166.667
156.927
147.822
139.335
131.44
124.106
117.3
110.986
105.128
99.6929
94.6466
89.9588
85.6007
81.5457
77.7693
74.2491
70.9646
67.8969
65.029
62.3453
59.8317
57.4752
55.264
53.1874
51.2357
49.3999
47.6718
46.0439
44.5095
43.0622
41.6963
40.4064
39.1878
38.0359
36.9466
35.916
34.9406
34.0172
33.1425
32.3139
31.5286
30.7843
30.0785
29.4092
28.7743
28.1719
27.6003
27.0578
26.5428
26.0539
25.5895
25.1485
24.7295
24.3313
23.9529
23.5932
23.2512
22.9258
22.6164
22.3218
22.0415
21.7745
21.5203
21.278
21.0471
20.8271
20.6172
20.417
20.2261
20.044
19.8702
19.7043
19.5461
19.3952
19.2513
19.1141
18.9834
18.859
18.7406
18.6282
18.5216
18.4206
18.3251
18.2351
18.1505
18.0713
17.9973
17.9286
17.8652
17.8071
17.7542
17.7067
17.6645
17.6276
17.5962
17.5702
17.5497
17.5347
17.5252
17.5213
17.5231
17.5304
17.5433
17.5619
17.586
17.6157
17.6509
17.6915
17.7374
17.7886
17.8449
17.9062
17.9724
18.0432
18.1185
18.1981
18.2817
18.3692
18.4602
18.5546
18.6521
18.7524
18.8552
18.9602
19.0672
19.1759
19.2859
19.3971
19.509
19.6213
19.7338
19.8461
19.9578
20.0681
20.1759
20.2804
155.961
142.32
176.982
204.574
225.791
241.687
253.338
261.721
267.653
271.782
274.609
276.516
277.787
278.644
279.25
279.733
280.187
280.678
281.255
281.936
282.732
283.634
284.627
285.688
286.793
287.923
289.053
290.181
291.305
292.337
293.186
293.891
294.52
295.152
295.87
296.757
297.886
299.316
301.085
303.201
305.636
308.321
311.144
313.949
316.537
318.682
320.142
320.67
320.038
318.04
314.515
309.342
302.463
293.837
283.494
271.515
257.646
243.315
229.621
216.69
204.438
192.759
181.604
170.982
160.917
151.43
142.528
134.205
126.443
119.22
112.504
106.266
100.473
95.0921
90.0933
85.4467
81.1245
77.1011
73.3523
69.8563
66.5927
63.5432
60.6908
58.0201
55.5171
53.1689
50.964
48.8915
46.9419
45.1062
43.3764
41.7449
40.205
38.7504
37.3755
36.0749
34.8438
33.6778
32.5727
31.5246
30.5301
29.586
28.6891
27.8366
27.026
26.2547
25.5206
24.8214
24.1552
23.5201
22.9144
22.3363
21.7845
21.2573
20.7535
20.2718
19.8109
19.3697
18.9472
18.5422
18.1539
17.7812
17.4235
17.0798
16.7494
16.4316
16.1257
15.831
15.547
15.2731
15.0087
14.7534
14.5067
14.2682
14.0375
13.8142
13.598
13.3885
13.1856
12.9888
12.798
12.613
12.4335
12.2594
12.0905
11.9267
11.7679
11.614
11.4648
11.3203
11.1805
11.0452
10.9144
10.788
10.6662
10.5487
10.4357
10.327
10.2227
10.1228
10.0272
9.93601
9.84911
9.76652
9.68824
9.61424
9.5445
9.47899
9.41768
9.36055
9.30753
9.2586
9.21369
9.17276
9.13573
9.10254
9.07312
9.04739
9.02526
9.00664
8.99145
8.97959
8.97095
8.96542
8.96291
8.96329
8.96646
8.97229
8.98067
8.99146
9.00456
9.01982
9.03711
9.05631
9.07725
9.09978
9.1237
9.14874
9.17448
9.2008
188.594
152.862
184.386
209.978
229.445
243.962
254.694
262.664
268.678
273.338
277.082
280.217
282.963
285.47
287.843
290.152
292.437
294.717
296.978
299.197
301.326
303.308
305.079
306.572
307.727
308.487
308.828
308.73
308.202
307.144
305.527
303.433
300.983
298.316
295.583
292.937
290.52
288.457
286.848
285.755
285.201
285.157
285.555
286.278
287.168
288.038
288.689
288.901
288.459
287.134
284.718
280.997
275.837
268.995
260.354
249.808
238.527
227.221
216.065
205.134
194.444
184.012
173.886
164.125
154.785
145.909
137.52
129.629
122.233
115.316
108.861
102.844
97.2389
92.0188
87.1573
82.6285
78.4077
74.4714
70.7979
67.3667
64.1591
61.1578
58.3469
55.7119
53.2394
50.9171
48.7339
46.6797
44.745
42.9213
41.2008
39.5762
38.041
36.5891
35.215
33.9136
32.68
31.5099
30.3994
29.3447
28.3424
27.3892
26.4822
25.6186
24.7959
24.0117
23.2637
22.5499
21.8683
21.2171
20.5946
19.9992
19.4294
18.8838
18.3611
17.86
17.3794
16.9182
16.4752
16.0496
15.6405
15.2469
14.868
14.5031
14.1515
13.8124
13.4853
13.1694
12.8643
12.5695
12.2843
12.0084
11.7412
11.4825
11.2318
10.9887
10.753
10.5243
10.3023
10.0869
9.8777
9.67456
9.47726
9.28564
9.09953
8.91878
8.74327
8.57286
8.40746
8.24697
8.09131
7.94038
7.79413
7.65248
7.51538
7.38277
7.2546
7.13082
7.01137
6.89622
6.7853
6.67857
6.57598
6.47748
6.38301
6.29251
6.20592
6.12319
6.04423
5.96898
5.89737
5.82932
5.76475
5.70359
5.64575
5.59114
5.53968
5.49127
5.44584
5.40328
5.3635
5.32642
5.29194
5.25997
5.23042
5.20319
5.1782
5.15536
5.13458
5.11577
5.09885
5.08373
5.07033
5.05856
5.04834
5.03957
5.03216
5.02599
5.02094
5.01714
216.688
159.049
187.254
211.271
229.72
243.705
254.441
262.943
269.972
276.067
281.591
286.785
291.795
296.715
301.595
306.452
311.275
316.027
320.653
325.066
329.166
332.841
335.969
338.432
340.116
340.936
340.813
339.725
337.663
334.517
330.319
325.195
319.32
312.903
306.174
299.366
292.706
286.399
280.614
275.478
271.054
267.35
264.323
261.894
259.94
258.316
256.896
255.525
254.068
252.344
250.165
247.265
243.437
238.096
231.303
223.725
215.663
207.251
198.59
189.771
180.878
171.993
163.209
154.617
146.295
138.303
130.682
123.457
116.637
110.222
104.202
98.564
93.2893
88.3581
83.7497
79.443
75.4175
71.6533
68.1317
64.8348
61.7462
58.8504
56.1331
53.5812
51.1826
48.9261
46.8014
44.7991
42.9106
41.1279
39.4437
37.8513
36.3445
34.9176
33.5654
32.2829
31.0658
29.9099
28.8114
27.7668
26.7727
25.8262
24.9243
24.0646
23.2444
22.4616
21.714
20.9997
20.3167
19.6633
19.038
18.4391
17.8653
17.3152
16.7876
16.2813
15.7951
15.3281
14.8793
14.4476
14.0324
13.6326
13.2477
12.8768
12.5192
12.1744
11.8416
11.5204
11.2102
10.9104
10.6207
10.3405
10.0694
9.80706
9.55312
9.3072
9.06901
8.83823
8.61461
8.39789
8.18784
7.98425
7.78691
7.59565
7.41031
7.23074
7.0568
6.88835
6.7253
6.56753
6.41494
6.26744
6.12495
5.98738
5.85466
5.72672
5.60349
5.48488
5.37083
5.26128
5.15614
5.05534
4.9588
4.86645
4.77819
4.69395
4.61364
4.53715
4.4644
4.39528
4.3297
4.26753
4.20868
4.15303
4.10047
4.05088
4.00416
3.96018
3.91882
3.87999
3.84355
3.80941
3.77744
3.74755
3.71963
3.69357
3.66929
3.64668
3.62565
3.60612
3.58801
3.57123
3.55571
3.54138
3.52816
3.51599
3.5048
3.49452
3.4851
3.47666
239.61
161.702
186.364
209.038
226.839
240.73
251.923
261.397
269.86
277.786
285.475
293.099
300.754
308.473
316.257
324.07
331.853
339.523
346.96
354.029
360.571
366.413
371.375
375.282
377.971
379.293
379.151
377.471
374.211
369.275
362.762
354.831
345.705
335.657
324.992
314.029
303.081
292.44
282.355
273.017
264.535
256.924
250.145
244.131
238.767
233.926
229.551
225.587
222.034
218.832
215.879
212.937
209.55
205.582
201.243
196.405
191.012
185.075
178.659
171.853
164.762
157.493
150.159
142.864
135.699
128.734
122.025
115.605
109.498
103.713
98.2505
93.1054
88.2676
83.7241
79.4602
75.4602
71.7081
68.1881
64.8849
61.7838
58.8708
56.1328
53.5577
51.1339
48.8509
46.6988
44.6687
42.752
40.9411
39.2287
37.6084
36.074
34.6199
33.2409
31.9321
30.6893
29.5082
28.385
27.3163
26.2986
25.3291
24.4049
23.5233
22.6819
21.8784
21.1106
20.3767
19.6748
19.003
18.3598
17.7437
17.1533
16.5872
16.0442
15.523
15.0227
14.5421
14.0804
13.6365
13.2096
12.7989
12.4037
12.0231
11.6566
11.3035
10.9631
10.635
10.3184
10.0131
9.71836
9.43385
9.1591
8.89372
8.63732
8.38956
8.15009
7.91861
7.69483
7.47848
7.26932
7.06711
6.87164
6.68272
6.50016
6.3238
6.15348
5.98907
5.83043
5.67745
5.53
5.38799
5.25131
5.11988
4.9936
4.87238
4.75615
4.64481
4.53828
4.43647
4.3393
4.24668
4.15851
4.0747
3.99514
3.91973
3.84836
3.78091
3.71727
3.6573
3.60088
3.54789
3.49817
3.45159
3.40802
3.36731
3.32932
3.29391
3.26093
3.23025
3.20173
3.17524
3.15065
3.12784
3.10668
3.08707
3.06888
3.05203
3.03641
3.02194
3.00852
2.99607
2.98453
2.97381
2.96387
2.95464
2.94606
2.93809
2.93067
2.92378
2.9174
257.224
161.606
182.622
204.019
221.366
235.367
247.196
257.788
267.799
277.648
287.578
297.711
308.085
318.69
329.474
340.356
351.226
361.94
372.338
382.22
391.37
399.554
406.537
412.089
415.994
418.076
418.18
416.211
412.06
405.71
397.302
387.02
375.119
361.922
347.802
333.151
318.367
303.824
289.849
276.701
264.54
253.38
243.147
233.747
225.06
216.952
209.392
202.443
196.262
190.896
186.354
182.507
179.284
176.451
173.624
170.518
166.957
162.864
158.242
153.145
147.657
141.882
135.928
129.899
123.888
117.97
112.204
106.635
101.291
96.1901
91.3411
86.7459
82.4012
78.3002
74.4337
70.791
67.3607
64.1308
61.0895
58.2251
55.5265
52.9829
50.5842
48.3209
46.184
44.1652
42.2567
40.4512
38.7421
37.123
35.5882
34.1324
32.7505
31.438
30.1905
29.0041
27.8751
26.8001
25.7758
24.7994
23.868
22.9792
22.1305
21.3196
20.5446
19.8034
19.0943
18.4155
17.7655
17.1428
16.546
15.9737
15.4248
14.8981
14.3926
13.9071
13.4409
12.9929
12.5623
12.1484
11.7503
11.3674
10.999
10.6445
10.3031
9.9745
9.65798
9.35307
9.05929
8.77618
8.50329
8.24021
7.98655
7.74194
7.50604
7.27853
7.05909
6.84745
6.64334
6.44651
6.25674
6.07381
5.89754
5.72773
5.56423
5.40687
5.25552
5.11004
4.97032
4.83623
4.70767
4.58454
4.46674
4.35417
4.24674
4.14437
4.04696
3.95441
3.86663
3.78353
3.705
3.63093
3.56121
3.49572
3.43433
3.37692
3.32334
3.27345
3.22711
3.18415
3.14443
3.10777
3.07402
3.043
3.01456
2.98853
2.96475
2.94306
2.9233
2.90533
2.889
2.87417
2.86071
2.8485
2.83741
2.82735
2.81821
2.80989
2.80231
2.79539
2.78905
2.78324
2.7779
2.77296
2.76839
2.76415
2.76019
2.75648
2.75301
2.74957
269.76
159.495
176.852
197.002
213.948
228.11
240.585
252.258
263.737
275.395
287.432
299.923
312.865
326.199
339.828
353.624
367.425
381.045
394.26
406.823
418.46
428.886
437.808
444.948
450.054
452.901
453.337
451.227
446.39
438.947
429.054
416.904
402.774
387.024
370.081
352.402
334.453
316.682
299.484
283.176
267.976
253.903
240.833
228.597
217.057
206.138
195.747
186.044
177.401
169.714
163.655
159.002
155.476
152.708
150.308
147.946
145.372
142.431
139.051
135.231
131.015
126.478
121.709
116.799
111.832
106.881
102.005
97.2487
92.646
88.2189
83.9814
79.9404
76.0979
72.4518
68.9977
65.7289
62.6379
59.7163
56.9554
54.3463
51.8804
49.5493
47.3448
45.2592
43.2852
41.4159
39.6447
37.9657
36.3729
34.8613
33.4257
32.0616
30.7646
29.5307
28.3563
27.2378
26.1719
25.1557
24.1863
23.2611
22.3776
21.5336
20.7269
19.9555
19.2175
18.5113
17.8351
17.1874
16.5669
15.9721
15.4019
14.855
14.3303
13.8267
13.3434
12.8793
12.4337
12.0056
11.5943
11.1991
10.8193
10.4542
10.1033
9.76576
9.44121
9.12906
8.82879
8.53993
8.262
7.99456
7.73721
7.48952
7.25115
7.02171
6.80088
6.58835
6.38381
6.18699
5.99763
5.81548
5.64033
5.47196
5.31018
5.15482
5.00571
4.8627
4.72565
4.59442
4.46892
4.349
4.23458
4.12556
4.02183
3.9233
3.82987
3.74147
3.65799
3.57933
3.5054
3.43608
3.37128
3.31085
3.2547
3.20266
3.15462
3.11041
3.06988
3.03287
2.9992
2.9687
2.94118
2.91648
2.89439
2.87475
2.85736
2.84205
2.82864
2.81696
2.80685
2.79815
2.79071
2.78439
2.77906
2.77459
2.77088
2.76781
2.7653
2.76325
2.76158
2.76024
2.75915
2.75827
2.75754
2.75693
2.7564
2.75592
2.75547
2.75503
2.75458
2.75377
277.627
155.991
169.8
188.679
205.216
219.496
232.521
245.12
257.863
271.085
284.948
299.494
314.678
330.402
346.526
362.877
379.251
395.41
411.09
425.995
439.805
452.187
462.805
471.337
477.488
481.019
481.743
479.532
474.15
465.86
454.821
441.232
425.377
407.642
388.497
368.457
348.047
327.775
308.086
289.326
271.742
255.394
240.142
225.693
211.805
198.679
186.062
174.096
163.724
154.833
147.628
141.97
137.632
134.315
131.678
129.387
127.159
124.786
122.137
119.157
115.845
112.24
108.403
104.404
100.312
96.1903
92.0925
88.0611
84.1289
80.3196
76.6494
73.1282
69.7612
66.5499
63.493
60.5873
57.8282
55.2101
52.7269
50.3724
48.1399
46.0231
44.0156
42.1113
40.3043
38.589
36.9602
35.4127
33.9419
32.5432
31.2125
29.9459
28.7397
27.5904
26.4949
25.45
24.4531
23.5014
22.5925
21.7241
20.894
20.1002
19.3409
18.6142
17.9185
17.2523
16.6141
16.0025
15.4162
14.8541
14.3151
13.798
13.3018
12.8257
12.3688
11.9301
11.5089
11.1046
10.7162
10.3433
9.98512
9.64108
9.31061
8.99315
8.68819
8.3952
8.11372
7.84328
7.58344
7.33378
7.0939
6.86342
6.64198
6.42924
6.22486
6.02855
5.84001
5.65899
5.48521
5.31846
5.15852
5.00518
4.85826
4.71758
4.583
4.45436
4.33153
4.2144
4.10283
3.99674
3.89602
3.80057
3.7103
3.62513
3.54496
3.46971
3.39927
3.33355
3.27245
3.21586
3.16365
3.1157
3.07188
3.03203
2.99601
2.96364
2.93476
2.90918
2.88671
2.86716
2.85033
2.83604
2.82406
2.81422
2.80632
2.80016
2.79557
2.79236
2.79037
2.78944
2.78942
2.79018
2.79157
2.7935
2.79584
2.7985
2.8014
2.80446
2.80761
2.81078
2.81394
2.81704
2.82005
2.82293
2.82566
2.82823
2.83062
2.83283
2.83484
2.83616
281.341
151.619
162.067
179.661
195.734
210.038
223.458
236.767
250.499
264.959
280.281
296.476
313.467
331.121
349.26
367.672
386.114
404.315
421.97
438.749
454.3
468.254
480.242
489.905
496.914
500.987
501.937
499.609
493.771
484.806
472.881
458.201
441.059
421.847
401.066
379.277
357.074
335.007
313.561
293.066
273.721
255.652
238.801
222.755
206.909
192.155
178.233
165.397
153.998
144.154
135.944
129.326
124.145
120.157
117.058
114.535
112.299
110.119
107.832
105.346
102.624
99.6706
96.5202
93.2195
89.8204
86.3729
82.9211
79.5023
76.1459
72.8744
69.7038
66.6454
63.7058
60.8886
58.1946
55.6229
53.1712
50.836
48.6134
46.4989
44.4877
42.5751
40.7562
39.0263
37.3808
35.8152
34.3252
32.9067
31.5558
30.2689
29.0424
27.873
26.7576
25.6934
24.6774
23.7073
22.7805
21.8948
21.0479
20.2381
19.4632
18.7216
18.0117
17.3318
16.6805
16.0564
15.4583
14.8849
14.3351
13.8078
13.302
12.8168
12.3513
11.9046
11.4759
11.0645
10.6696
10.2906
9.92689
9.57777
9.24267
8.92106
8.61238
8.31613
8.03181
7.75896
7.49713
7.24587
7.00478
6.77345
6.5515
6.33858
6.13433
5.93844
5.75057
5.57046
5.39781
5.23238
5.07391
4.9222
4.77703
4.63821
4.50556
4.37893
4.25816
4.14312
4.03369
3.92976
3.83121
3.73795
3.64989
3.56694
3.48902
3.41604
3.34792
3.28457
3.2259
3.1718
3.12218
3.07692
3.0359
2.99898
2.96601
2.93685
2.91131
2.88923
2.87042
2.85468
2.84181
2.8316
2.82385
2.81835
2.81488
2.81325
2.81324
2.81468
2.81736
2.82112
2.82578
2.83118
2.83719
2.84366
2.85048
2.85753
2.86472
2.87195
2.87915
2.88625
2.8932
2.89994
2.90644
2.91267
2.91861
2.92423
2.92952
2.93449
2.93912
2.94342
2.94738
2.95039
281.446
146.797
154.15
170.446
185.988
200.202
213.839
227.617
242.033
257.37
273.74
291.128
309.434
328.491
348.094
368
387.934
407.598
426.663
444.778
461.57
476.652
489.631
500.121
507.758
512.231
513.307
510.783
504.543
495.007
482.377
466.878
448.818
428.589
406.688
383.708
360.348
337.168
314.672
293.175
272.675
253.406
235.518
218.523
202.119
186.604
171.971
158.445
146.266
135.629
126.644
119.299
113.469
108.933
105.412
102.608
100.243
98.0834
95.9544
93.7437
91.3918
88.8807
86.2209
83.4397
80.5722
77.655
74.7225
71.8047
68.9263
66.1071
63.3616
60.7008
58.1317
55.6589
53.2844
51.0087
48.8311
46.7497
44.762
42.865
41.0554
39.3297
37.6842
36.1154
34.6196
33.1934
31.8332
30.5357
29.2979
28.1166
26.9889
25.9121
24.8836
23.9009
22.9617
22.0637
21.2049
20.3833
19.597
18.8444
18.1238
17.4336
16.7723
16.1387
15.5315
14.9493
14.3912
13.8559
13.3426
12.8502
12.3778
11.9246
11.4898
11.0727
10.6724
10.2884
9.91995
9.56646
9.22735
8.90204
8.59001
8.29073
8.00372
7.72849
7.46459
7.21158
6.96903
6.73655
6.51372
6.3002
6.0956
5.89959
5.71184
5.53204
5.35989
5.19513
5.03748
4.88671
4.74259
4.6049
4.47346
4.34808
4.2286
4.11488
4.00677
3.90415
3.8069
3.71493
3.62814
3.54644
3.46974
3.39797
3.33105
3.2689
3.21144
3.15859
3.11025
3.06633
3.02672
2.9913
2.95995
2.93252
2.90886
2.88881
2.87218
2.8588
2.84846
2.84096
2.83609
2.83363
2.83336
2.83508
2.83856
2.8436
2.84999
2.85754
2.86606
2.87537
2.88531
2.89573
2.90649
2.91745
2.92851
2.93955
2.9505
2.96127
2.97179
2.98201
2.99188
3.00136
3.01043
3.01906
3.02724
3.03497
3.04223
3.04904
3.05541
3.06133
3.06681
3.07115
278.482
141.884
146.442
161.444
176.392
190.403
204.085
218.093
232.892
248.745
265.745
283.861
302.968
322.884
343.376
364.178
384.997
405.516
425.395
444.269
461.76
477.473
491.007
501.958
509.938
514.59
515.659
512.817
506.149
496.087
482.872
466.765
448.099
427.276
404.755
381.082
357.211
333.619
310.803
289.105
268.603
249.388
231.294
214.026
197.4
181.433
166.253
152.125
139.336
128.118
118.6
110.777
104.525
99.6298
95.8192
92.8069
90.3243
88.1437
86.0909
84.0461
81.9384
79.7349
77.4306
75.0373
72.5767
70.0739
67.5541
65.0404
62.5525
60.1068
57.7159
55.3896
53.1347
50.956
48.8561
46.8365
44.8973
43.0377
41.2564
39.5514
37.9204
36.3611
34.8706
33.4463
32.0854
30.785
29.5426
28.3553
27.2207
26.1362
25.0994
24.108
23.1598
22.2528
21.3849
20.5543
19.7591
18.9976
18.2684
17.5698
16.9004
16.2589
15.6439
15.0544
14.4891
13.947
13.4271
12.9284
12.45
11.991
11.5508
11.1284
10.7231
10.3344
9.96144
9.60373
9.26064
8.9316
8.61607
8.31355
8.02353
7.74554
7.47913
7.22384
6.97926
6.74497
6.52058
6.3057
6.09997
5.90305
5.71458
5.53424
5.36174
5.19677
5.03906
4.88835
4.74439
4.60697
4.47585
4.35086
4.23181
4.11853
4.01088
3.90871
3.8119
3.72033
3.63391
3.55254
3.47614
3.40461
3.3379
3.27591
3.21859
3.16586
3.11764
3.07385
3.03439
2.99917
2.96809
2.94102
2.91782
2.89836
2.88247
2.86999
2.86072
2.85448
2.85105
2.85024
2.85182
2.85557
2.86128
2.86873
2.87769
2.88796
2.89934
2.91163
2.92465
2.93823
2.95221
2.96644
2.98079
2.99515
3.00939
3.02343
3.03719
3.05059
3.06359
3.07613
3.08817
3.09968
3.11065
3.12107
3.13093
3.14023
3.14897
3.15718
3.16486
3.17202
3.17868
3.18407
273.706
137.6
139.385
153.046
167.332
181.043
194.622
208.65
223.557
239.584
256.812
275.197
294.605
314.833
335.638
356.737
377.828
398.585
418.659
437.69
455.298
471.091
484.668
495.619
503.535
508.046
508.86
505.517
498.352
487.777
474.078
457.562
438.602
417.653
395.236
371.984
348.592
325.6
303.464
282.486
262.747
244.147
226.396
209.211
192.443
176.132
160.505
145.902
132.668
121.067
111.228
103.142
96.6713
91.5928
87.6349
84.5166
81.9777
79.7985
77.8093
75.8902
73.9655
71.9943
69.9615
67.8684
65.7265
63.5521
61.3629
59.176
57.0068
54.8683
52.7713
50.7241
48.733
46.8025
44.9358
43.1346
41.3997
39.7312
38.1283
36.59
35.1147
33.7009
32.3464
31.0494
29.8076
28.6189
27.4811
26.3921
25.3498
24.352
23.397
22.4826
21.607
20.7686
19.9655
19.1962
18.4591
17.7527
17.0757
16.4267
15.8044
15.2078
14.6356
14.0869
13.5605
13.0555
12.5711
12.1063
11.6604
11.2327
10.8222
10.4285
10.0508
9.68852
9.34104
9.00781
8.68829
8.38196
8.08833
7.80691
7.53727
7.27894
7.03151
6.79457
6.56773
6.35059
6.14279
5.94398
5.7538
5.57194
5.39807
5.23189
5.07311
4.92147
4.7767
4.63857
4.50683
4.38129
4.26175
4.14801
4.03993
3.93734
3.84011
3.7481
3.66121
3.57933
3.50237
3.43023
3.36285
3.30015
3.24205
3.18849
3.1394
3.09471
3.05434
3.01821
2.98622
2.95829
2.9343
2.91413
2.89764
2.88468
2.87508
2.86868
2.86529
2.8647
2.86672
2.87113
2.87771
2.88624
2.89651
2.90829
2.92137
2.93555
2.95062
2.96641
2.98273
2.99941
3.01631
3.03329
3.05022
3.06698
3.08349
3.09965
3.11539
3.13066
3.14539
3.15956
3.17313
3.18608
3.1984
3.21009
3.22114
3.23157
3.2414
3.25062
3.25928
3.26738
3.27494
3.28113
268.262
134.58
133.401
145.588
159.131
172.46
185.818
199.695
214.477
230.383
247.483
265.727
284.967
305
325.57
346.39
367.153
387.53
407.181
425.748
442.863
458.145
471.206
481.643
489.052
493.063
493.385
489.498
481.931
471.066
457.229
440.768
422.1
401.711
380.159
358.049
335.97
314.42
293.775
274.231
255.756
238.111
220.943
203.971
187.108
170.503
154.503
139.54
126.014
114.203
104.23
96.0624
89.5419
84.4301
80.45
77.3237
74.7983
72.6628
70.7539
68.9546
67.1885
65.4109
63.6004
61.7516
59.8689
57.9619
56.0427
54.1238
52.2171
50.3329
48.4802
46.666
44.8961
43.1749
41.5053
39.8896
38.3288
36.8236
35.3738
33.979
32.6382
31.3504
30.1141
28.9279
27.7901
26.6992
25.6533
24.6507
23.6898
22.7689
21.8862
21.0402
20.2293
19.452
18.7068
17.9924
17.3074
16.6505
16.0205
15.4163
14.8366
14.2806
13.7471
13.2353
12.7442
12.273
11.8209
11.387
10.9708
10.5714
10.1882
9.82059
9.46798
9.1298
8.80549
8.49455
8.19647
7.91078
7.63703
7.37476
7.12356
6.88302
6.65275
6.43235
6.22147
6.01974
5.82682
5.64238
5.4661
5.29766
5.13678
4.98316
4.83656
4.6967
4.56335
4.43629
4.31531
4.2002
4.09079
3.98691
3.8884
3.79513
3.70696
3.62378
3.54548
3.47198
3.40317
3.33897
3.27933
3.22415
3.17339
3.12696
3.0848
3.04685
3.01302
2.98323
2.9574
2.93541
2.91716
2.90253
2.89137
2.88353
2.87885
2.87715
2.87826
2.88195
2.88805
2.89632
2.90657
2.91856
2.9321
2.94695
2.96293
2.97982
2.99744
3.0156
3.03414
3.0529
3.07174
3.09052
3.10913
3.12746
3.14543
3.16295
3.17997
3.19642
3.21227
3.22748
3.24204
3.25592
3.26912
3.28165
3.29351
3.30471
3.31527
3.32521
3.33457
3.34335
3.35157
3.35837
261.96
132.626
128.619
139.264
151.994
164.866
177.899
191.479
205.938
221.472
238.14
255.884
274.562
293.961
313.828
333.877
353.801
373.28
391.978
409.558
425.665
439.942
452.021
461.525
468.066
471.306
470.973
466.575
458.751
447.856
434.247
418.309
400.488
381.282
361.241
340.919
320.822
301.358
282.778
265.121
248.205
231.672
215.133
198.354
181.365
164.47
148.15
132.93
119.252
107.394
97.4521
89.3603
82.9325
77.9113
74.0131
70.962
68.513
66.4641
64.6597
62.9877
61.373
59.7694
58.1525
56.5122
54.8481
53.1654
51.472
49.7772
48.09
46.4188
44.771
43.1529
41.5696
40.0252
38.5229
37.0648
35.6525
34.2869
32.9683
31.6967
30.4717
29.2926
28.1585
27.0683
26.0209
25.015
24.0492
23.1222
22.2326
21.3789
20.5598
19.774
19.0201
18.2967
17.6028
16.937
16.2982
15.6852
15.097
14.5326
13.9909
13.4711
12.9723
12.4935
12.034
11.593
11.1698
10.7637
10.374
10
9.64129
9.29715
8.96707
8.65052
8.34701
8.05606
7.7772
7.51
7.25403
7.00889
6.77417
6.5495
6.3345
6.12883
5.93213
5.74407
5.56433
5.39259
5.22857
5.07196
4.9225
4.77993
4.64398
4.51444
4.39107
4.27367
4.16205
4.05601
3.9554
3.86005
3.76983
3.6846
3.60424
3.52865
3.45772
3.39137
3.32951
3.27206
3.21895
3.17012
3.12549
3.085
3.04858
3.01615
2.98765
2.96298
2.94206
2.92478
2.91103
2.90067
2.89358
2.88961
2.88858
2.89033
2.89467
2.90141
2.91035
2.92128
2.93399
2.94828
2.96394
2.98075
2.99853
3.01709
3.03624
3.0558
3.07563
3.09557
3.11549
3.13526
3.15479
3.17396
3.1927
3.21094
3.22863
3.2457
3.26214
3.27791
3.29299
3.30738
3.32108
3.33408
3.34641
3.35807
3.36909
3.3795
3.38931
3.39856
3.40726
3.41451
254.678
131.555
125.105
134.204
146.081
158.432
171.056
184.218
198.191
213.144
229.126
246.082
263.864
282.272
301.054
319.931
338.605
356.766
374.1
390.28
404.982
417.874
428.623
436.884
442.308
444.598
443.487
438.687
430.79
420.142
407.122
392.144
375.665
358.178
340.192
322.193
304.591
287.662
271.492
255.94
240.656
225.186
209.151
192.423
175.206
157.986
141.388
126.016
112.326
100.575
90.8172
82.9414
76.7283
71.9011
68.1698
65.2619
62.9413
61.0158
59.3387
57.8038
56.339
54.8986
53.4564
52
50.5259
49.036
47.5357
46.0316
44.5308
43.0404
41.5667
40.1152
38.6907
37.297
35.9374
34.6141
33.3289
32.083
30.8772
29.7116
28.5864
27.5012
26.4554
25.4484
24.4794
23.5473
22.6512
21.7899
20.9624
20.1674
19.4039
18.6707
17.9667
17.2907
16.6417
16.0186
15.4205
14.8462
14.2949
13.7656
13.2575
12.7697
12.3015
11.852
11.4205
11.0063
10.6088
10.2273
9.86114
9.50984
9.1728
8.84951
8.53944
8.24213
7.95709
7.68389
7.42211
7.17132
6.93113
6.70116
6.48104
6.27041
6.06892
5.87624
5.69205
5.51603
5.34788
5.1873
5.03402
4.88777
4.74829
4.61534
4.48869
4.36811
4.2534
4.14437
4.04083
3.94262
3.84958
3.76157
3.67845
3.6001
3.52641
3.45727
3.3926
3.33229
3.27627
3.22446
3.1768
3.13321
3.09362
3.05797
3.02618
2.99818
2.97389
2.95323
2.9361
2.92239
2.912
2.9048
2.90065
2.89941
2.90091
2.90498
2.91145
2.92013
2.93083
2.94335
2.95749
2.97305
2.98984
3.00765
3.02631
3.04563
3.06544
3.08558
3.1059
3.12627
3.14655
3.16663
3.18642
3.20583
3.22477
3.24319
3.26104
3.27827
3.29485
3.31076
3.326
3.34054
3.3544
3.36758
3.3801
3.39197
3.40322
3.41387
3.42395
3.43348
3.44248
3.45005
246.368
131.185
122.87
130.514
141.52
153.302
165.447
178.093
191.449
205.654
220.749
236.678
253.309
270.443
287.843
305.242
322.357
338.896
354.558
369.049
382.07
393.325
402.519
409.354
413.529
414.796
412.878
407.837
400.068
389.939
377.847
364.219
349.507
334.176
318.678
303.406
288.642
274.499
260.863
247.392
233.58
218.918
203.101
186.182
168.587
151.001
134.177
118.768
105.216
93.7269
84.296
76.7614
70.8677
66.3199
62.824
60.113
57.9611
56.1875
54.6552
53.2653
51.9496
50.6642
49.3829
48.0919
46.7858
45.4648
44.1321
42.793
41.453
40.1182
38.7942
37.4859
36.198
34.934
33.6972
32.4901
31.3145
30.172
29.0635
27.9897
26.9508
25.9469
24.9777
24.0429
23.1419
22.2739
21.4384
20.6343
19.8608
19.117
18.402
17.7147
17.0542
16.4196
15.8099
15.2242
14.6616
14.1213
13.6023
13.1039
12.6252
12.1656
11.7243
11.3005
10.8937
10.5031
10.1282
9.76837
9.42305
9.09172
8.77385
8.46896
8.17657
7.89623
7.62751
7.36999
7.12327
6.88696
6.6607
6.44411
6.23685
6.03859
5.84899
5.66774
5.49453
5.32906
5.17106
5.02024
4.87634
4.73912
4.60832
4.48373
4.36512
4.2523
4.14506
4.04324
3.94665
3.85515
3.76859
3.68683
3.60975
3.53723
3.46917
3.40546
3.34601
3.29074
3.23956
3.19239
3.14917
3.10983
3.07428
3.04247
3.01431
2.98974
2.96866
2.951
2.93665
2.92552
2.91749
2.91244
2.91023
2.91072
2.91377
2.9192
2.92684
2.93652
2.94806
2.96126
2.97594
2.99192
3.009
3.027
3.04576
3.0651
3.08486
3.10489
3.12505
3.14521
3.16526
3.1851
3.20463
3.22376
3.24244
3.2606
3.27819
3.29519
3.31156
3.32729
3.34236
3.35677
3.37052
3.38363
3.39611
3.40797
3.41925
3.42996
3.44013
3.44979
3.45894
3.4667
236.987
131.319
121.882
128.25
138.415
149.602
161.214
173.265
185.897
199.222
213.271
227.998
243.275
258.926
274.729
290.434
305.778
320.488
334.294
346.923
358.112
367.602
375.145
380.493
383.403
383.694
381.118
375.954
368.517
359.171
348.317
336.379
323.786
310.956
298.26
285.973
274.217
262.899
251.683
240.017
227.276
212.97
196.957
179.543
161.413
143.444
126.481
111.179
97.9277
86.8577
77.8903
70.8086
65.3231
61.1241
57.917
55.4433
53.4894
51.8875
50.5114
49.2702
48.101
46.9627
45.83
44.6888
43.533
42.3615
41.1763
39.9815
38.7819
37.5827
36.3889
35.2052
34.0359
32.8847
31.7547
30.6486
29.5684
28.5158
27.492
26.498
25.5343
24.6011
23.6986
22.8265
21.9847
21.1726
20.3897
19.6355
18.9091
18.2098
17.537
16.8897
16.2672
15.6687
15.0933
14.5402
14.0087
13.4979
13.0072
12.5357
12.0828
11.6478
11.23
10.8288
10.4436
10.0737
9.71868
9.37789
9.05085
8.73705
8.43603
8.14731
7.87046
7.60506
7.3507
7.10698
6.87352