/*--------------------------------*- C++ -*----------------------------------*\
  =========                 |
  \\      /  F ield         | OpenFOAM: The Open Source CFD Toolbox
   \\    /   O peration     | Website:  https://openfoam.org
    \\  /    A nd           | Version:  7
     \\/     M anipulation  |
\*---------------------------------------------------------------------------*/
FoamFile
{
    version     2.0;
    format      ascii;
    class       volScalarField;
    location    "100";
    object      k;
}
// * * * * * * * * * * * * * * * * * * * * * * * * * * * * * * * * * * * * * //

dimensions      [0 2 -2 0 0 0 0];

internalField   nonuniform List<scalar> 
16900
(
0.1645
0.242093
0.337877
0.421327
0.498397
0.56999
0.636527
0.698316
0.755593
0.808584
0.857494
0.902528
0.943883
0.981749
1.01631
1.04776
1.07625
1.102
1.12511
1.14585
1.16427
1.18062
1.19499
1.20762
1.21861
1.22815
1.23643
1.2436
1.24984
1.25536
1.25979
1.26311
1.26541
1.26675
1.26718
1.2667
1.26531
1.26297
1.25959
1.25508
1.24928
1.24202
1.23309
1.22228
1.20935
1.19409
1.1763
1.15585
1.13263
1.10666
1.07797
1.04669
1.01302
0.977224
0.939667
0.900811
0.861214
0.82154
0.782665
0.745991
0.712674
0.688874
0.666923
0.646008
0.625986
0.60684
0.588571
0.571177
0.554651
0.538974
0.524127
0.51008
0.496804
0.484265
0.472429
0.46126
0.450724
0.440786
0.431413
0.422572
0.414234
0.406368
0.398948
0.391948
0.385342
0.37911
0.373229
0.36768
0.362444
0.357503
0.352843
0.348448
0.344305
0.340399
0.33672
0.333256
0.329997
0.326932
0.324054
0.321353
0.318822
0.316454
0.314241
0.312177
0.310256
0.308474
0.306824
0.305301
0.303902
0.302621
0.301455
0.300401
0.299453
0.29861
0.297867
0.297221
0.29667
0.296211
0.29584
0.295555
0.295353
0.295232
0.295188
0.295219
0.295322
0.295494
0.295733
0.296035
0.296398
0.296819
0.297295
0.297824
0.298401
0.299024
0.299691
0.300399
0.301143
0.301923
0.302735
0.303576
0.304444
0.305337
0.306252
0.307187
0.308139
0.309108
0.31009
0.311084
0.312089
0.313102
0.314123
0.315149
0.31618
0.317213
0.318248
0.319283
0.320317
0.321348
0.322375
0.323397
0.324412
0.325419
0.326416
0.327402
0.328376
0.329336
0.330281
0.33121
0.33212
0.333012
0.333883
0.334733
0.335562
0.336367
0.337148
0.337906
0.338639
0.339346
0.340029
0.340686
0.341319
0.341926
0.342508
0.343066
0.3436
0.34411
0.344598
0.345063
0.345507
0.345929
0.346332
0.346715
0.347079
0.347426
0.347756
0.348069
0.348368
0.348652
0.348923
0.349178
0.221217
0.392142
0.509515
0.603659
0.685578
0.758203
0.823472
0.882701
0.936863
0.986692
1.03277
1.07556
1.11544
1.15276
1.18778
1.22079
1.25202
1.28169
1.31001
1.33716
1.3633
1.3886
1.4132
1.43725
1.46087
1.4842
1.50734
1.53042
1.55358
1.57668
1.59943
1.62206
1.6447
1.66749
1.69052
1.71386
1.73753
1.76146
1.78554
1.80953
1.83311
1.85584
1.87715
1.89637
1.91276
1.92549
1.93377
1.93683
1.93401
1.92482
1.90897
1.8863
1.85682
1.82064
1.77802
1.72947
1.67578
1.61785
1.5542
1.4894
1.42788
1.36987
1.31352
1.25884
1.20606
1.15541
1.10701
1.06095
1.01721
0.975777
0.936582
0.899543
0.864565
0.831549
0.800388
0.77098
0.743221
0.717012
0.692259
0.668872
0.646764
0.625856
0.606073
0.587346
0.569608
0.552799
0.536863
0.521748
0.507404
0.493788
0.480856
0.468569
0.456893
0.445792
0.435236
0.425196
0.415643
0.406554
0.397903
0.38967
0.381832
0.374371
0.367268
0.360505
0.354066
0.347936
0.342101
0.336545
0.331257
0.326222
0.32143
0.316869
0.312528
0.308396
0.304463
0.30072
0.297157
0.293765
0.290536
0.287461
0.284532
0.281742
0.279084
0.27655
0.274134
0.27183
0.269632
0.267534
0.265531
0.263618
0.261791
0.260046
0.258379
0.256786
0.255264
0.253811
0.252425
0.251102
0.249841
0.248641
0.2475
0.246417
0.245391
0.244421
0.243507
0.242647
0.241843
0.241092
0.240395
0.239753
0.239164
0.238629
0.238148
0.237721
0.237348
0.237029
0.236764
0.236553
0.236396
0.236294
0.236245
0.236251
0.236309
0.236422
0.236586
0.236803
0.237072
0.237391
0.23776
0.238177
0.238642
0.239152
0.239705
0.240301
0.240937
0.241611
0.24232
0.243062
0.243834
0.244634
0.245459
0.246306
0.247172
0.248054
0.24895
0.249855
0.250769
0.251686
0.252606
0.253525
0.254441
0.255351
0.256253
0.257145
0.258024
0.258888
0.259734
0.260559
0.261353
0.26211
0.286454
0.524125
0.668476
0.784361
0.886499
0.978386
1.06182
1.138
1.20781
1.27186
1.33065
1.38458
1.43405
1.47939
1.52095
1.55909
1.59413
1.62642
1.65622
1.68383
1.70946
1.73335
1.75567
1.77659
1.79626
1.81481
1.83239
1.84912
1.86513
1.88023
1.89471
1.90887
1.923
1.93742
1.95241
1.96826
1.98516
2.00325
2.02258
2.04308
2.06453
2.08657
2.10867
2.13015
2.15019
2.16784
2.18209
2.19193
2.19639
2.1946
2.18583
2.1695
2.14516
2.11249
2.07142
2.02208
1.9645
1.89715
1.82546
1.75628
1.68941
1.62412
1.55989
1.4969
1.43554
1.37618
1.3191
1.26445
1.21232
1.16273
1.11565
1.07103
1.02877
0.988771
0.950932
0.915137
0.881276
0.849236
0.81891
0.790195
0.762994
0.737214
0.712767
0.689571
0.667551
0.646634
0.626755
0.607852
0.589866
0.572745
0.556439
0.540901
0.526089
0.511961
0.498481
0.485614
0.473327
0.46159
0.450374
0.439652
0.4294
0.419593
0.41021
0.40123
0.392633
0.3844
0.376514
0.368958
0.361716
0.354773
0.348114
0.341727
0.335597
0.329712
0.32406
0.318629
0.313409
0.308389
0.303558
0.298907
0.294427
0.290108
0.285943
0.281922
0.278038
0.274284
0.270653
0.267137
0.263732
0.260431
0.257229
0.254121
0.251102
0.248168
0.245315
0.242541
0.23984
0.237212
0.234654
0.232162
0.229736
0.227375
0.225075
0.222838
0.22066
0.218543
0.216484
0.214485
0.212544
0.210661
0.208836
0.207069
0.20536
0.203709
0.202117
0.200583
0.199107
0.197691
0.196333
0.195034
0.193795
0.192615
0.191494
0.190433
0.189432
0.18849
0.187607
0.186783
0.186019
0.185312
0.184664
0.184073
0.183539
0.183061
0.182637
0.182268
0.181952
0.181688
0.181475
0.18131
0.181193
0.181122
0.181094
0.18111
0.181166
0.18126
0.181392
0.181557
0.181756
0.181985
0.182242
0.182525
0.182832
0.183161
0.183509
0.183874
0.184253
0.184642
0.185033
0.185427
0.34209
0.629769
0.799487
0.935758
1.05726
1.16767
1.26848
1.36067
1.44494
1.52183
1.5918
1.65529
1.7127
1.76449
1.81107
1.85289
1.89036
1.92383
1.95366
1.98009
2.00333
2.02355
2.04086
2.05537
2.06718
2.07641
2.08317
2.08767
2.09013
2.09045
2.08891
2.086
2.08224
2.07823
2.07457
2.07182
2.07052
2.0711
2.07389
2.07912
2.08681
2.09686
2.10898
2.12269
2.13735
2.15217
2.16626
2.1786
2.18813
2.19369
2.19413
2.18827
2.17501
2.15323
2.12206
2.08099
2.02817
1.96859
1.9075
1.846
1.78407
1.72163
1.65894
1.5965
1.53491
1.47467
1.41618
1.35974
1.30552
1.25362
1.20409
1.15691
1.11204
1.06942
1.02895
0.990551
0.95412
0.919556
0.88676
0.855633
0.826079
0.798009
0.771335
0.745976
0.721854
0.698897
0.677037
0.65621
0.636357
0.617422
0.599353
0.582102
0.565624
0.549876
0.534819
0.520416
0.506632
0.493436
0.480796
0.468685
0.457075
0.445942
0.435262
0.425012
0.415172
0.405722
0.396642
0.387915
0.379523
0.371452
0.363685
0.356207
0.349006
0.342067
0.335378
0.328927
0.322702
0.316692
0.310886
0.305275
0.299849
0.294597
0.289513
0.284586
0.279809
0.275175
0.270676
0.266306
0.262058
0.257925
0.253904
0.249987
0.246171
0.24245
0.238822
0.235282
0.231826
0.228452
0.225157
0.221939
0.218795
0.215724
0.212724
0.209794
0.206932
0.204138
0.20141
0.198748
0.196152
0.19362
0.191153
0.188751
0.186412
0.184138
0.181927
0.17978
0.177696
0.175675
0.173717
0.171822
0.16999
0.16822
0.166512
0.164865
0.163279
0.161753
0.160287
0.158881
0.157532
0.156242
0.155008
0.15383
0.152707
0.151638
0.150622
0.149658
0.148744
0.147881
0.147066
0.146298
0.145576
0.1449
0.144267
0.143677
0.143128
0.142619
0.142149
0.141716
0.14132
0.140959
0.140631
0.140336
0.140073
0.139839
0.139633
0.139455
0.139301
0.139171
0.139059
0.138974
0.3887
0.710556
0.901753
1.05529
1.19271
1.31821
1.4332
1.5386
1.6351
1.72324
1.80353
1.87642
1.94238
2.00189
2.05539
2.10332
2.14607
2.18398
2.21724
2.24599
2.27026
2.29003
2.30522
2.31573
2.32149
2.32246
2.31872
2.31044
2.29789
2.28093
2.25995
2.23562
2.20878
2.18037
2.15139
2.12281
2.09557
2.07052
2.04838
2.02971
2.01488
2.00408
1.99734
1.9945
1.99527
1.9992
2.00579
2.01432
2.02391
2.03342
2.04146
2.0463
2.04628
2.03894
2.02228
1.99464
1.95882
1.91821
1.87383
1.82621
1.77563
1.72252
1.66751
1.61137
1.55488
1.4987
1.44338
1.38935
1.33691
1.28628
1.23758
1.19088
1.1462
1.10354
1.06284
1.02406
0.987135
0.951976
0.918508
0.88665
0.856321
0.827441
0.799931
0.773718
0.748729
0.724899
0.702161
0.680456
0.659728
0.639921
0.620986
0.602876
0.585547
0.568956
0.553065
0.537838
0.523239
0.509237
0.495802
0.482905
0.470519
0.458619
0.447181
0.436184
0.425605
0.415424
0.405623
0.396184
0.38709
0.378323
0.36987
0.361716
0.353846
0.346247
0.338908
0.331815
0.324957
0.318323
0.311904
0.305688
0.299667
0.293831
0.288172
0.282681
0.277351
0.272175
0.267144
0.262254
0.257497
0.252867
0.24836
0.243969
0.23969
0.23552
0.231453
0.227486
0.223615
0.219838
0.216152
0.212555
0.209043
0.205616
0.202272
0.199009
0.195825
0.192721
0.189695
0.186747
0.183875
0.18108
0.17836
0.175716
0.173147
0.170652
0.168233
0.165887
0.163615
0.161416
0.15929
0.157237
0.155255
0.153343
0.151502
0.149729
0.148025
0.146387
0.144815
0.143307
0.141862
0.140478
0.139153
0.137887
0.136677
0.135521
0.134419
0.133367
0.132364
0.13141
0.1305
0.129635
0.128812
0.12803
0.127287
0.126581
0.125912
0.125276
0.124674
0.124104
0.123564
0.123054
0.122572
0.122116
0.121687
0.121283
0.120902
0.120545
0.120209
0.119894
0.119598
0.119329
0.426564
0.768743
0.976422
1.14325
1.29286
1.42988
1.55599
1.67222
1.77934
1.87797
1.96864
2.05181
2.12793
2.19743
2.26072
2.31817
2.37004
2.41649
2.45759
2.49323
2.52317
2.54713
2.56472
2.57557
2.57933
2.57575
2.56468
2.54619
2.52048
2.48733
2.44729
2.40123
2.35026
2.29568
2.23889
2.18132
2.12441
2.06947
2.01768
1.96999
1.92712
1.88952
1.8575
1.83124
1.81078
1.79612
1.7873
1.78416
1.78645
1.79343
1.80395
1.81601
1.82754
1.83394
1.83355
1.82617
1.81262
1.79303
1.76758
1.73659
1.70054
1.6601
1.61611
1.56951
1.52121
1.47203
1.42265
1.37364
1.32542
1.27833
1.23258
1.18833
1.14569
1.1047
1.06538
1.02772
0.991682
0.957232
0.924316
0.892875
0.862847
0.834169
0.806778
0.780611
0.755607
0.731708
0.708855
0.686996
0.666078
0.646053
0.626874
0.608498
0.590883
0.57399
0.557782
0.542225
0.527286
0.512935
0.499142
0.48588
0.473124
0.460849
0.449033
0.437653
0.426689
0.416122
0.405933
0.396106
0.386624
0.37747
0.368631
0.360092
0.351841
0.343863
0.336148
0.328684
0.32146
0.314465
0.30769
0.301125
0.294761
0.28859
0.282604
0.276794
0.271154
0.265676
0.260355
0.255182
0.250154
0.245263
0.240505
0.235876
0.231369
0.226982
0.22271
0.218549
0.214497
0.210551
0.206707
0.202963
0.199318
0.19577
0.192316
0.188956
0.185689
0.182513
0.179427
0.176432
0.173526
0.170709
0.16798
0.16534
0.162788
0.160323
0.157946
0.155655
0.15345
0.151331
0.149297
0.147346
0.145479
0.143693
0.141988
0.140361
0.138811
0.137337
0.135936
0.134607
0.133346
0.132151
0.13102
0.12995
0.128939
0.127984
0.127082
0.12623
0.125426
0.124667
0.12395
0.123272
0.122633
0.122028
0.121456
0.120914
0.120402
0.119916
0.119455
0.119018
0.118603
0.118208
0.117833
0.117476
0.117137
0.116814
0.116506
0.116214
0.115935
0.11567
0.115418
0.115182
0.456236
0.807038
1.02588
1.20225
1.36055
1.50605
1.64079
1.76601
1.88261
1.99128
2.09254
2.1868
2.27445
2.35584
2.43123
2.50086
2.56483
2.62312
2.67553
2.7217
2.76112
2.79319
2.81721
2.83251
2.83843
2.83442
2.82014
2.79543
2.76025
2.71439
2.65862
2.59391
2.52156
2.44312
2.36035
2.27512
2.18932
2.10474
2.02304
1.94561
1.87349
1.80734
1.7476
1.69467
1.64884
1.6104
1.57994
1.55805
1.54541
1.54215
1.54779
1.56065
1.57767
1.59485
1.61048
1.62225
1.6285
1.62818
1.62084
1.60652
1.58561
1.55882
1.52706
1.49133
1.45262
1.41186
1.36985
1.32725
1.28461
1.24235
1.20079
1.16019
1.12071
1.08246
1.04552
1.00993
0.975696
0.942812
0.911257
0.881
0.852
0.824214
0.797596
0.772097
0.747668
0.724262
0.70183
0.680327
0.659708
0.639931
0.620954
0.602738
0.585246
0.568443
0.552296
0.536773
0.521843
0.507479
0.493653
0.480341
0.467519
0.455163
0.443252
0.431766
0.420687
0.409995
0.399673
0.389706
0.380078
0.370775
0.361782
0.353086
0.344676
0.336539
0.328663
0.32104
0.313658
0.306507
0.299579
0.292865
0.286357
0.280046
0.273926
0.267989
0.262228
0.256637
0.251209
0.245939
0.240821
0.235851
0.231022
0.226331
0.221773
0.217344
0.21304
0.208858
0.204795
0.200848
0.197014
0.193291
0.189678
0.186172
0.182772
0.179478
0.176286
0.173198
0.170212
0.167327
0.164544
0.161862
0.15928
0.156798
0.154417
0.152135
0.149952
0.147867
0.145881
0.143992
0.142198
0.1405
0.138895
0.137381
0.135957
0.13462
0.133368
0.132199
0.131108
0.130093
0.12915
0.128277
0.127469
0.126722
0.126033
0.125397
0.124812
0.124273
0.123776
0.123318
0.122896
0.122506
0.122145
0.12181
0.121499
0.121209
0.120938
0.120683
0.120443
0.120217
0.120002
0.119798
0.119603
0.119416
0.119237
0.119065
0.118899
0.11874
0.118586
0.118437
0.118294
0.118153
0.478391
0.828453
1.05367
1.23605
1.40011
1.55155
1.69284
1.82547
1.95049
2.06859
2.18028
2.2859
2.3857
2.47987
2.56853
2.65174
2.72938
2.80121
2.8668
2.92551
2.97655
3.01901
3.0519
3.07424
3.0851
3.08373
3.0695
3.04205
3.00097
2.94635
2.87908
2.80018
2.71101
2.61328
2.509
2.40036
2.28963
2.17904
2.07069
1.96638
1.86756
1.77504
1.68925
1.61061
1.53955
1.4766
1.42257
1.37881
1.34702
1.32811
1.32243
1.32932
1.34555
1.36819
1.39329
1.41737
1.43765
1.45214
1.45967
1.45978
1.45255
1.43851
1.41849
1.39344
1.36437
1.33224
1.29791
1.26213
1.22554
1.18863
1.15181
1.11539
1.07962
1.04465
1.01063
0.977633
0.945707
0.914881
0.885165
0.856551
0.829023
0.802558
0.777124
0.75269
0.729219
0.706674
0.685017
0.664212
0.644222
0.625009
0.606541
0.588782
0.5717
0.555265
0.539447
0.524217
0.509549
0.495416
0.481796
0.468665
0.456
0.443783
0.431992
0.420609
0.409617
0.399
0.388741
0.378825
0.369239
0.359969
0.351003
0.342328
0.333934
0.325809
0.317943
0.310327
0.302952
0.295808
0.288887
0.282182
0.275685
0.269389
0.263286
0.257371
0.251637
0.246078
0.240689
0.235464
0.230397
0.225484
0.220721
0.216102
0.211625
0.207284
0.203076
0.198999
0.195049
0.191223
0.187519
0.183935
0.180469
0.17712
0.173885
0.170765
0.167758
0.164863
0.162079
0.159407
0.156847
0.154396
0.152057
0.149828
0.147709
0.145699
0.143799
0.142008
0.140324
0.138746
0.137274
0.135904
0.134636
0.133467
0.132393
0.131413
0.130521
0.129715
0.128991
0.128343
0.127768
0.12726
0.126815
0.126427
0.126092
0.125805
0.125561
0.125355
0.125183
0.12504
0.124923
0.124827
0.12475
0.124688
0.124638
0.124598
0.124565
0.124538
0.124514
0.124493
0.124473
0.124452
0.124431
0.124409
0.124385
0.124359
0.124331
0.1243
0.124268
0.124233
0.124197
0.124151
0.493856
0.836128
1.06358
1.24901
1.41629
1.57151
1.71755
1.8561
1.98833
2.11497
2.23643
2.35294
2.4646
2.57141
2.67331
2.77013
2.86155
2.94712
3.02612
3.09771
3.16082
3.21426
3.25678
3.28714
3.30418
3.3069
3.29457
3.2666
3.22214
3.16191
3.08683
2.99786
2.89634
2.78406
2.66318
2.53611
2.40541
2.27366
2.14329
2.0165
1.8951
1.7802
1.67222
1.57135
1.47807
1.39357
1.31838
1.25432
1.20433
1.16882
1.15068
1.14823
1.15895
1.17955
1.20616
1.23496
1.26253
1.28615
1.30393
1.31478
1.31834
1.31482
1.3048
1.28911
1.26869
1.24447
1.21733
1.18804
1.15729
1.12563
1.09353
1.06134
1.02936
0.997819
0.966869
0.936638
0.907211
0.878645
0.850974
0.824217
0.798377
0.773447
0.749414
0.726258
0.703956
0.682481
0.661806
0.641902
0.622738
0.604287
0.586519
0.569405
0.552919
0.537032
0.52172
0.506958
0.492722
0.47899
0.465739
0.45295
0.440603
0.428679
0.417161
0.406032
0.395277
0.38488
0.374827
0.365105
0.3557
0.346602
0.337798
0.329278
0.321032
0.313049
0.305321
0.29784
0.290596
0.283582
0.27679
0.270213
0.263846
0.25768
0.25171
0.245929
0.240333
0.234915
0.229671
0.224594
0.219681
0.214927
0.210327
0.205878
0.201574
0.197413
0.193392
0.189506
0.185754
0.182132
0.178638
0.175271
0.172028
0.168908
0.16591
0.163033
0.160276
0.157638
0.155119
0.152719
0.150438
0.148275
0.146231
0.144305
0.142497
0.140806
0.139232
0.137773
0.13643
0.1352
0.134081
0.133071
0.132167
0.131366
0.130664
0.130056
0.129539
0.129108
0.128756
0.128478
0.128269
0.128123
0.128033
0.127993
0.127998
0.128042
0.128119
0.128224
0.128352
0.128497
0.128657
0.128826
0.129002
0.129181
0.129361
0.129539
0.129712
0.129881
0.130042
0.130195
0.130339
0.130474
0.130599
0.130714
0.13082
0.130915
0.131001
0.131079
0.131148
0.131209
0.131262
0.131294
0.503439
0.833003
1.05943
1.24541
1.41382
1.57098
1.7201
1.86309
2.00118
2.13509
2.26515
2.39145
2.51389
2.63228
2.74635
2.85569
2.95981
3.058
3.14938
3.23287
3.30718
3.37092
3.4226
3.46075
3.484
3.49119
3.48139
3.45394
3.40764
3.34391
3.26364
3.16772
3.05744
2.93455
2.80128
2.66021
2.51412
2.36584
2.21807
2.07317
1.93324
1.79987
1.67377
1.55472
1.44272
1.34094
1.24904
1.16858
1.10552
1.05909
1.03019
1.01782
1.02018
1.03458
1.05765
1.08569
1.11508
1.14268
1.16606
1.18363
1.19456
1.19867
1.19627
1.18799
1.17463
1.15702
1.13602
1.1124
1.08683
1.05991
1.03211
1.00385
0.975444
0.947144
0.919149
0.89161
0.864639
0.838317
0.8127
0.787826
0.763714
0.740373
0.717805
0.696
0.674946
0.654627
0.635023
0.616112
0.597873
0.580281
0.563313
0.546946
0.531156
0.515921
0.501219
0.487028
0.473328
0.460099
0.447321
0.434978
0.42305
0.411523
0.400379
0.389605
0.379187
0.369109
0.359361
0.34993
0.340805
0.331975
0.323429
0.315158
0.307153
0.299405
0.291907
0.284649
0.277626
0.270829
0.264252
0.257889
0.251734
0.24578
0.240022
0.234455
0.229073
0.223871
0.218844
0.213988
0.209297
0.204769
0.200397
0.196179
0.192111
0.188189
0.184409
0.18077
0.177267
0.173899
0.170663
0.167558
0.164581
0.161732
0.15901
0.156412
0.15394
0.151592
0.149368
0.147268
0.145292
0.14344
0.141712
0.140107
0.138626
0.137267
0.136031
0.134915
0.133919
0.13304
0.132275
0.131622
0.131078
0.130637
0.130295
0.130047
0.129887
0.129809
0.129807
0.129873
0.130002
0.130185
0.130417
0.130689
0.130997
0.131332
0.13169
0.132063
0.132449
0.13284
0.133233
0.133625
0.134012
0.13439
0.134758
0.135113
0.135454
0.13578
0.136089
0.136381
0.136656
0.136914
0.137154
0.137378
0.137585
0.137776
0.137953
0.138115
0.138264
0.1384
0.138524
0.138618
0.507936
0.821743
1.04471
1.22928
1.39708
1.5546
1.7053
1.85123
1.99368
2.13334
2.27044
2.4049
2.53643
2.66462
2.789
2.90896
3.0238
3.13265
3.23444
3.32794
3.41172
3.48421
3.54376
3.58873
3.61754
3.6288
3.6215
3.59479
3.54739
3.48137
3.39759
3.29691
3.18052
3.05006
2.90775
2.75627
2.59864
2.43789
2.27689
2.11802
1.96316
1.8146
1.674
1.54083
1.41307
1.29825
1.196
1.10797
1.03633
0.981706
0.944364
0.923764
0.918527
0.926431
0.944524
0.969387
0.997503
1.02563
1.05112
1.07204
1.08724
1.09621
1.099
1.09603
1.08792
1.07542
1.05929
1.04026
1.01898
0.996051
0.971952
0.947101
0.921836
0.89643
0.8711
0.846016
0.821307
0.797072
0.773383
0.750291
0.727831
0.706023
0.684877
0.664397
0.644577
0.625409
0.606881
0.588977
0.57168
0.554973
0.538837
0.523252
0.508199
0.493659
0.479612
0.466041
0.452928
0.440254
0.428004
0.416161
0.404711
0.393638
0.382928
0.372568
0.362546
0.35285
0.343468
0.334389
0.325604
0.317102
0.308875
0.300913
0.29321
0.285756
0.278545
0.27157
0.264824
0.258301
0.251994
0.245899
0.240009
0.234318
0.228823
0.223517
0.218397
0.213456
0.208691
0.204097
0.19967
0.195406
0.1913
0.187349
0.183549
0.179897
0.17639
0.173024
0.169797
0.166707
0.163752
0.160929
0.158237
0.155675
0.153243
0.150938
0.148761
0.146711
0.144789
0.142994
0.141326
0.139785
0.138372
0.137085
0.135925
0.134891
0.133981
0.133195
0.13253
0.131984
0.131553
0.131234
0.131022
0.130913
0.130899
0.130977
0.131138
0.131375
0.131682
0.132049
0.132471
0.132939
0.133445
0.133981
0.134542
0.13512
0.135709
0.136304
0.136898
0.137487
0.138068
0.138636
0.139189
0.139723
0.140238
0.140731
0.141201
0.141647
0.14207
0.142468
0.142843
0.143193
0.143521
0.143827
0.144111
0.144375
0.14462
0.144846
0.145056
0.145251
0.14543
0.145573
0.508062
0.804633
1.02253
1.20422
1.37004
1.5266
1.67749
1.82491
1.97014
2.11385
2.25614
2.39677
2.53528
2.67104
2.80337
2.9315
3.05454
3.17149
3.28117
3.38223
3.47316
3.5523
3.6179
3.66816
3.70134
3.71589
3.71053
3.68411
3.6359
3.56814
3.48181
3.37779
3.25721
3.12157
2.97291
2.81389
2.64802
2.47832
2.30782
2.13894
1.97256
1.81176
1.66024
1.51728
1.38323
1.26137
1.15272
1.05895
0.981448
0.921085
0.878111
0.852029
0.841552
0.844625
0.858526
0.880079
0.905959
0.933022
0.958593
0.980639
0.997827
1.00947
1.01542
1.0159
1.0114
1.00256
0.990036
0.974508
0.956595
0.936852
0.915762
0.893733
0.871108
0.848165
0.82513
0.802183
0.779465
0.757084
0.735124
0.713645
0.692691
0.672292
0.652465
0.63322
0.61456
0.596483
0.57898
0.562043
0.545659
0.529814
0.514492
0.499679
0.485358
0.471512
0.458126
0.445183
0.432668
0.420565
0.40886
0.397539
0.386587
0.375992
0.365742
0.355824
0.346228
0.336941
0.327956
0.31926
0.310847
0.302706
0.294829
0.28721
0.27984
0.272713
0.265822
0.25916
0.252723
0.246503
0.240497
0.234697
0.2291
0.2237
0.218493
0.213474
0.208638
0.203981
0.199499
0.195187
0.191042
0.187059
0.183234
0.179564
0.176046
0.172675
0.16945
0.166366
0.163423
0.160616
0.157945
0.155407
0.153001
0.150726
0.14858
0.146565
0.144678
0.142919
0.14129
0.139788
0.138416
0.137172
0.136056
0.135069
0.13421
0.133477
0.132869
0.132385
0.132021
0.131776
0.131644
0.131622
0.131704
0.131884
0.132157
0.132514
0.132949
0.133453
0.134018
0.134636
0.135299
0.135999
0.136727
0.137476
0.138238
0.139007
0.139777
0.140543
0.141298
0.142038
0.142761
0.143462
0.144139
0.144789
0.145412
0.146007
0.146571
0.147106
0.147611
0.148086
0.148533
0.148951
0.149342
0.149708
0.150048
0.150366
0.150661
0.150936
0.151193
0.151431
0.151653
0.151833
0.504475
0.783619
0.995583
1.17343
1.33626
1.49077
1.64065
1.78815
1.93458
2.08053
2.22601
2.37063
2.51373
2.65453
2.79217
2.9257
3.05411
3.17629
3.291
3.39683
3.49223
3.57552
3.64489
3.69848
3.73443
3.75095
3.74664
3.71972
3.67042
3.60101
3.5126
3.40613
3.28274
3.14386
2.99114
2.82678
2.65563
2.48029
2.30384
2.12908
1.95795
1.79309
1.63623
1.48819
1.35012
1.2238
1.11089
1.01317
0.93204
0.868394
0.822393
0.793431
0.780138
0.780438
0.791677
0.810817
0.8347
0.860334
0.885141
0.907122
0.924911
0.937744
0.945359
0.947879
0.94568
0.939289
0.929303
0.916325
0.900928
0.883634
0.864902
0.845128
0.824645
0.803731
0.782611
0.761469
0.740449
0.719666
0.69921
0.679145
0.659523
0.640379
0.621735
0.603608
0.586004
0.568926
0.552369
0.536329
0.520796
0.50576
0.491208
0.477128
0.463506
0.450327
0.437578
0.425245
0.413314
0.401771
0.390603
0.379798
0.369343
0.359227
0.349438
0.339966
0.3308
0.32193
0.313349
0.305046
0.297013
0.289243
0.281728
0.274462
0.267437
0.260648
0.254088
0.247752
0.241634
0.235729
0.230032
0.224539
0.219244
0.214143
0.209232
0.204506
0.199962
0.195594
0.191399
0.187372
0.183511
0.179811
0.176268
0.172879
0.16964
0.166548
0.163601
0.160795
0.158128
0.155598
0.153203
0.15094
0.148809
0.146809
0.144938
0.143197
0.141584
0.140099
0.138743
0.137515
0.136416
0.135445
0.134602
0.133886
0.133297
0.132833
0.132493
0.132275
0.132175
0.13219
0.132315
0.132545
0.132875
0.133298
0.133806
0.134392
0.135049
0.135767
0.136538
0.137353
0.138204
0.139082
0.139979
0.140888
0.141801
0.142712
0.143615
0.144504
0.145375
0.146224
0.147047
0.147841
0.148605
0.149336
0.150034
0.150698
0.151328
0.151923
0.152484
0.153013
0.153509
0.153974
0.154409
0.154817
0.155197
0.155553
0.155885
0.156196
0.156486
0.156758
0.157013
0.157223
0.498668
0.760622
0.966452
1.13998
1.29916
1.45079
1.5986
1.74486
1.89088
2.0372
2.18374
2.32998
2.47515
2.61829
2.75838
2.89437
3.02514
3.14951
3.26619
3.37377
3.47071
3.55533
3.62583
3.68032
3.71685
3.73357
3.72886
3.70035
3.64941
3.57819
3.4879
3.3796
3.25454
3.11424
2.96064
2.79639
2.62491
2.44917
2.27223
2.09691
1.92551
1.75993
1.60146
1.45124
1.31077
1.18186
1.06656
0.966835
0.884187
0.819445
0.772628
0.742945
0.728858
0.728181
0.738232
0.756033
0.778551
0.802947
0.826791
0.848188
0.865831
0.878961
0.887286
0.890868
0.890014
0.885181
0.876896
0.865705
0.852136
0.836673
0.819748
0.801737
0.78296
0.763685
0.744134
0.724487
0.704892
0.685462
0.66629
0.647445
0.62898
0.610933
0.593332
0.576196
0.559534
0.543352
0.527649
0.512423
0.497667
0.483373
0.469531
0.45613
0.443158
0.430604
0.418454
0.406696
0.395318
0.384308
0.373653
0.363343
0.353367
0.343713
0.334371
0.325332
0.316586
0.308124
0.299938
0.292021
0.284364
0.27696
0.269802
0.262885
0.256202
0.249748
0.243516
0.237502
0.231701
0.226107
0.220717
0.215526
0.21053
0.205724
0.201105
0.196668
0.192408
0.188324
0.184409
0.180661
0.177076
0.17365
0.17038
0.167262
0.164292
0.161468
0.158787
0.156246
0.153842
0.151574
0.149439
0.147435
0.145562
0.143818
0.142202
0.140714
0.139354
0.13812
0.137013
0.136032
0.135178
0.13445
0.133848
0.133371
0.133017
0.132786
0.132676
0.132683
0.132803
0.133034
0.13337
0.133806
0.134334
0.134949
0.135643
0.136407
0.137233
0.138112
0.139036
0.139996
0.140983
0.141989
0.143006
0.144026
0.145043
0.14605
0.147042
0.148013
0.14896
0.149879
0.150766
0.15162
0.152438
0.15322
0.153964
0.154672
0.155341
0.155974
0.156571
0.157132
0.15766
0.158155
0.158619
0.159054
0.159462
0.159844
0.160202
0.160538
0.160854
0.161151
0.161431
0.161665
0.492007
0.737519
0.937311
1.10638
1.26155
1.40971
1.55458
1.69845
1.84261
1.98753
2.13307
2.27863
2.42329
2.56603
2.7057
2.84116
2.97121
3.09462
3.21013
3.31633
3.41172
3.49468
3.56348
3.61628
3.65114
3.6662
3.65982
3.62928
3.57695
3.50471
3.41389
3.30569
3.18145
3.0428
2.8918
2.73098
2.5632
2.3913
2.21812
2.0462
1.87757
1.71375
1.55592
1.40545
1.26419
1.13439
1.01847
0.918621
0.836384
0.772475
0.726709
0.698063
0.684782
0.684529
0.694557
0.711912
0.733665
0.757133
0.780051
0.800672
0.817794
0.830718
0.839166
0.843182
0.843035
0.839132
0.83195
0.821987
0.809727
0.795619
0.780067
0.763425
0.745997
0.728039
0.709766
0.691354
0.672945
0.654654
0.636572
0.618769
0.601301
0.584207
0.567516
0.551249
0.535419
0.520033
0.505093
0.490596
0.47654
0.462917
0.44972
0.436938
0.424563
0.412581
0.400984
0.389759
0.378896
0.368382
0.358208
0.348363
0.338837
0.329619
0.3207
0.312072
0.303726
0.295653
0.287845
0.280296
0.272999
0.265946
0.259132
0.252551
0.246196
0.240064
0.234148
0.228445
0.222948
0.217655
0.212561
0.207661
0.202952
0.198429
0.19409
0.189929
0.185943
0.182129
0.178482
0.175
0.171677
0.168512
0.165499
0.162637
0.159921
0.157349
0.154917
0.152623
0.150465
0.14844
0.146546
0.144781
0.143145
0.141636
0.140252
0.138993
0.13786
0.13685
0.135964
0.135201
0.134562
0.134045
0.13365
0.133376
0.133222
0.133185
0.133263
0.133453
0.133751
0.134153
0.134654
0.135248
0.135927
0.136685
0.137514
0.138405
0.139351
0.140343
0.141371
0.142427
0.143503
0.144591
0.145683
0.146771
0.14785
0.148913
0.149956
0.150973
0.151961
0.152917
0.153838
0.154722
0.155568
0.156376
0.157144
0.157872
0.158562
0.159214
0.159829
0.160408
0.160952
0.161464
0.161945
0.162397
0.162822
0.163221
0.163596
0.16395
0.164285
0.164601
0.1649
0.165152
0.484246
0.71494
0.909302
1.07415
1.22524
1.36959
1.51088
1.65142
1.79244
1.93439
2.07708
2.21984
2.36174
2.50164
2.63833
2.7706
2.89722
3.01697
3.12856
3.23067
3.32187
3.40064
3.46537
3.51432
3.54563
3.55757
3.54855
3.5159
3.46256
3.39024
3.30031
3.19409
3.07299
2.93867
2.79312
2.63864
2.47769
2.31281
2.14639
1.9805
1.81675
1.65638
1.50064
1.35127
1.2106
1.08143
0.966571
0.86836
0.788308
0.72694
0.683812
0.657625
0.646388
0.647598
0.65843
0.675959
0.697368
0.720139
0.742194
0.761958
0.778361
0.790791
0.799011
0.803073
0.803224
0.799839
0.793356
0.784231
0.772911
0.759812
0.745312
0.729743
0.713391
0.696501
0.679277
0.661888
0.644472
0.627143
0.609988
0.59308
0.57647
0.560202
0.544305
0.5288
0.513702
0.49902
0.484755
0.47091
0.457479
0.444459
0.431843
0.419621
0.407786
0.396327
0.385234
0.374497
0.364105
0.354049
0.344319
0.334904
0.325794
0.316982
0.308458
0.300213
0.29224
0.284531
0.277079
0.269876
0.262917
0.256195
0.249705
0.24344
0.237396
0.231568
0.225951
0.220541
0.215334
0.210324
0.205509
0.200885
0.196447
0.192192
0.188116
0.184216
0.180488
0.176929
0.173534
0.170301
0.167225
0.164303
0.161531
0.158908
0.156428
0.154089
0.151888
0.149823
0.14789
0.146088
0.144414
0.142867
0.141445
0.140146
0.13897
0.137916
0.136982
0.136169
0.135475
0.1349
0.134444
0.134105
0.133883
0.133777
0.133783
0.133902
0.134129
0.134461
0.134895
0.135425
0.136046
0.136753
0.137537
0.138393
0.139312
0.140286
0.141306
0.142365
0.143453
0.144563
0.145687
0.146816
0.147943
0.149062
0.150167
0.151253
0.152314
0.153346
0.154347
0.155314
0.156243
0.157134
0.157986
0.158799
0.159571
0.160304
0.160998
0.161654
0.162274
0.162858
0.163408
0.163927
0.164415
0.164875
0.165309
0.165718
0.166104
0.16647
0.166818
0.167148
0.167461
0.167729
0.4752
0.693243
0.883183
1.04436
1.19165
1.33208
1.46939
1.60583
1.74265
1.88028
2.01851
2.15669
2.29381
2.42874
2.56025
2.68709
2.80803
2.92183
3.02729
3.12311
3.208
3.28057
3.33935
3.38277
3.40915
3.4169
3.40443
3.3699
3.31614
3.2447
3.15703
3.0545
2.93856
2.81079
2.67301
2.52719
2.37541
2.21972
2.06196
1.90362
1.74588
1.58986
1.43705
1.2897
1.15078
1.02363
0.911402
0.816482
0.740237
0.682921
0.643768
0.621176
0.612906
0.616291
0.628453
0.646513
0.667792
0.689967
0.711168
0.730008
0.745565
0.757327
0.765109
0.768979
0.769177
0.766051
0.760005
0.751462
0.740833
0.728507
0.714834
0.700125
0.68465
0.668641
0.652291
0.635764
0.619193
0.602685
0.586328
0.570191
0.554328
0.538779
0.523577
0.508742
0.49429
0.480229
0.466565
0.453298
0.440427
0.427946
0.415851
0.404133
0.392785
0.381798
0.371163
0.360869
0.350907
0.341269
0.331943
0.322922
0.314196
0.305757
0.297596
0.289705
0.282077
0.274705
0.267582
0.260701
0.254056
0.247642
0.241453
0.235484
0.22973
0.224186
0.218848
0.213713
0.208775
0.204031
0.199478
0.195111
0.190927
0.186923
0.183095
0.179439
0.175952
0.172631
0.169471
0.166469
0.163623
0.160927
0.15838
0.155977
0.153715
0.151591
0.149602
0.147745
0.146018
0.144418
0.142942
0.14159
0.140359
0.139247
0.138253
0.137377
0.136617
0.135971
0.135441
0.135023
0.134719
0.134525
0.134442
0.134468
0.134601
0.134837
0.135175
0.135611
0.13614
0.136758
0.137459
0.138238
0.139086
0.139999
0.140967
0.141982
0.143038
0.144125
0.145236
0.146363
0.147498
0.148635
0.149765
0.150884
0.151986
0.153066
0.154119
0.155142
0.156133
0.157088
0.158006
0.158885
0.159726
0.160527
0.16129
0.162013
0.162699
0.163348
0.163962
0.164542
0.165089
0.165606
0.166094
0.166556
0.166992
0.167406
0.167798
0.168171
0.168527
0.168867
0.169191
0.169471
0.464778
0.672599
0.859353
1.01774
1.16174
1.29841
1.43152
1.56334
1.69512
1.82731
1.95974