/*--------------------------------*- C++ -*----------------------------------*\
  =========                 |
  \\      /  F ield         | OpenFOAM: The Open Source CFD Toolbox
   \\    /   O peration     | Website:  https://openfoam.org
    \\  /    A nd           | Version:  7
     \\/     M anipulation  |
\*---------------------------------------------------------------------------*/
FoamFile
{
    version     2.0;
    format      ascii;
    class       volScalarField;
    location    "100";
    object      nut;
}
// * * * * * * * * * * * * * * * * * * * * * * * * * * * * * * * * * * * * * //

dimensions      [0 2 -1 0 0 0 0];

internalField   nonuniform List<scalar> 
16900
(
3.94287e-05
6.07431e-05
7.43388e-05
8.31279e-05
9.04492e-05
9.67578e-05
0.00010227
0.000107136
0.000111456
0.000115307
0.000118752
0.000121835
0.000124599
0.000127077
0.000129295
0.000131281
0.000133052
0.000134636
0.000136038
0.00013729
0.000138386
0.000139359
0.000140202
0.000140944
0.000141581
0.000142135
0.000142613
0.000143024
0.000143379
0.00014369
0.000143957
0.000144162
0.000144312
0.000144411
0.000144461
0.000144466
0.000144425
0.000144337
0.000144199
0.000144007
0.000143753
0.00014343
0.000143026
0.000142529
0.000141926
0.000141201
0.00014034
0.000139329
0.000138156
0.00013681
0.000135286
0.000133579
0.000131687
0.000129615
0.000127364
0.000124938
0.000122363
0.000119714
0.000116976
0.00011433
0.000111095
0.000109161
0.000107433
0.000105768
0.000104141
0.000102553
0.000101007
9.95059e-05
9.80524e-05
9.66477e-05
9.52939e-05
9.39909e-05
9.27392e-05
9.15383e-05
9.03876e-05
8.9286e-05
8.82323e-05
8.72251e-05
8.6263e-05
8.53442e-05
8.44672e-05
8.36303e-05
8.2832e-05
8.20707e-05
8.13447e-05
8.06526e-05
7.9993e-05
7.93646e-05
7.87659e-05
7.81958e-05
7.76529e-05
7.71364e-05
7.66449e-05
7.61776e-05
7.57335e-05
7.53116e-05
7.49112e-05
7.45314e-05
7.41714e-05
7.38305e-05
7.35081e-05
7.32036e-05
7.29162e-05
7.26456e-05
7.2391e-05
7.21521e-05
7.19283e-05
7.17192e-05
7.15244e-05
7.13435e-05
7.11761e-05
7.10219e-05
7.08805e-05
7.07515e-05
7.06347e-05
7.05298e-05
7.04364e-05
7.03544e-05
7.02833e-05
7.02229e-05
7.0173e-05
7.01333e-05
7.01034e-05
7.00831e-05
7.00721e-05
7.007e-05
7.00767e-05
7.00916e-05
7.01146e-05
7.01452e-05
7.01831e-05
7.0228e-05
7.02795e-05
7.03372e-05
7.04007e-05
7.04697e-05
7.05438e-05
7.06227e-05
7.07058e-05
7.0793e-05
7.08839e-05
7.09781e-05
7.10753e-05
7.11752e-05
7.12776e-05
7.13821e-05
7.14886e-05
7.15967e-05
7.17064e-05
7.18174e-05
7.19294e-05
7.20425e-05
7.21564e-05
7.22709e-05
7.2386e-05
7.25015e-05
7.26172e-05
7.27332e-05
7.28492e-05
7.29651e-05
7.30809e-05
7.31963e-05
7.33112e-05
7.34256e-05
7.35391e-05
7.36518e-05
7.37634e-05
7.38738e-05
7.39827e-05
7.40902e-05
7.41959e-05
7.42997e-05
7.44016e-05
7.45013e-05
7.45987e-05
7.46937e-05
7.47862e-05
7.48761e-05
7.49633e-05
7.50478e-05
7.51296e-05
7.52085e-05
7.52845e-05
7.53578e-05
7.54282e-05
7.54958e-05
7.55606e-05
7.56227e-05
7.56821e-05
7.57388e-05
7.57931e-05
7.58448e-05
7.58942e-05
7.59412e-05
7.5986e-05
7.60286e-05
7.60692e-05
7.6108e-05
7.61449e-05
7.61796e-05
5.21221e-05
0.000131165
0.000158722
0.000179067
0.000197351
0.000214648
0.000231476
0.000248128
0.000264771
0.000281502
0.000298372
0.000315405
0.000332606
0.000349972
0.000367486
0.000385132
0.00040288
0.000420702
0.000438544
0.000456364
0.000474082
0.000491636
0.000508926
0.000525873
0.000542357
0.000558275
0.0005735
0.000587881
0.000601245
0.000613086
0.000624369
0.000635613
0.000646929
0.000658408
0.000670132
0.000682167
0.000694559
0.000707333
0.00072048
0.000733961
0.0007477
0.000761586
0.000775467
0.000789157
0.000802441
0.000815078
0.000826817
0.000837404
0.000846593
0.000854161
0.000859909
0.000863665
0.00086528
0.000864625
0.000861601
0.000856163
0.000848348
0.000838282
0.000825594
0.000810462
0.000792461
0.000772686
0.000751989
0.000730883
0.000709703
0.000688689
0.000668005
0.000647773
0.000628075
0.000608965
0.000590479
0.000572634
0.000555438
0.000538888
0.000522975
0.000507684
0.000492999
0.0004789
0.000465365
0.000452372
0.0004399
0.000427926
0.000416429
0.000405387
0.000394781
0.000384591
0.000374799
0.000365386
0.000356337
0.000347635
0.000339265
0.000331213
0.000323467
0.000316012
0.000308837
0.000301931
0.000295283
0.000288882
0.000282719
0.000276785
0.000271071
0.000265568
0.000260268
0.000255163
0.000250247
0.000245511
0.000240949
0.000236553
0.000232319
0.000228238
0.000224305
0.000220514
0.000216858
0.000213332
0.000209931
0.000206649
0.00020348
0.000200419
0.000197461
0.000194601
0.000191835
0.000189157
0.000186563
0.000184048
0.00018161
0.000179244
0.000176946
0.000174713
0.000172542
0.00017043
0.000168375
0.000166374
0.000164425
0.000162528
0.000160679
0.000158878
0.000157124
0.000155416
0.000153753
0.000152135
0.000150561
0.000149031
0.000147546
0.000146104
0.000144705
0.000143351
0.00014204
0.000140773
0.000139549
0.00013837
0.000137234
0.000136142
0.000135094
0.00013409
0.000133129
0.000132212
0.000131339
0.000130509
0.000129723
0.00012898
0.00012828
0.000127623
0.000127008
0.000126436
0.000125905
0.000125416
0.000124968
0.000124561
0.000124194
0.000123865
0.000123576
0.000123324
0.000123108
0.000122929
0.000122784
0.000122672
0.000122593
0.000122545
0.000122526
0.000122536
0.000122571
0.000122632
0.000122716
0.000122822
0.000122949
0.000123093
0.000123255
0.000123431
0.000123622
0.000123824
0.000124037
0.00012426
0.00012449
0.000124726
0.000124968
0.000125213
0.000125461
0.000125709
0.000125956
0.0001262
6.14076e-05
0.000195254
0.000244569
0.000283889
0.000322301
0.000361221
0.000400988
0.000441612
0.000482923
0.000524645
0.000566451
0.000607996
0.000648945
0.000688982
0.000727825
0.000765226
0.000800965
0.000834861
0.000866747
0.000896496
0.000923995
0.00094917
0.00097197
0.000992386
0.00101043
0.00102616
0.00103966
0.00105102
0.00106038
0.00106771
0.00107421
0.00108025
0.00108606
0.00109188
0.00109794
0.00110442
0.00111149
0.00111928
0.00112788
0.00113735
0.0011477
0.00115887
0.0011708
0.00118335
0.00119634
0.00120957
0.00122278
0.00123568
0.00124793
0.00125916
0.00126897
0.00127694
0.00128262
0.00128555
0.00128534
0.0012817
0.00127441
0.00126316
0.00124836
0.00123095
0.00121091
0.00118857
0.00116443
0.00113903
0.00111282
0.00108617
0.00105939
0.00103273
0.00100635
0.000980408
0.000954999
0.000930199
0.000906059
0.000882612
0.000859877
0.00083786
0.000816561
0.000795972
0.00077608
0.000756868
0.000738318
0.000720409
0.000703121
0.00068643
0.000670316
0.000654756
0.000639729
0.000625214
0.000611191
0.00059764
0.000584543
0.000571882
0.000559639
0.000547798
0.000536343
0.00052526
0.000514534
0.000504151
0.000494099
0.000484364
0.000474936
0.000465801
0.000456951
0.000448373
0.000440058
0.000431996
0.000424178
0.000416594
0.000409235
0.000402093
0.000395159
0.000388425
0.000381883
0.000375525
0.000369344
0.000363331
0.00035748
0.000351782
0.000346233
0.000340823
0.000335547
0.000330398
0.00032537
0.000320457
0.000315653
0.000310953
0.000306351
0.000301843
0.000297424
0.00029309
0.000288837
0.000284663
0.000280563
0.000276535
0.000272578
0.000268689
0.000264866
0.000261109
0.000257417
0.000253789
0.000250224
0.000246722
0.000243284
0.00023991
0.000236599
0.000233352
0.00023017
0.000227053
0.000224001
0.000221014
0.000218094
0.000215241
0.000212455
0.000209735
0.000207084
0.0002045
0.000201984
0.000199536
0.000197156
0.000194844
0.000192601
0.000190425
0.000188318
0.000186278
0.000184305
0.0001824
0.000180563
0.000178792
0.000177087
0.000175449
0.000173876
0.000172369
0.000170926
0.000169547
0.000168231
0.000166979
0.000165788
0.000164658
0.000163588
0.000162578
0.000161625
0.000160729
0.000159888
0.000159102
0.000158368
0.000157686
0.000157053
0.000156468
0.00015593
0.000155437
0.000154987
0.000154579
0.00015421
0.000153879
0.000153584
0.000153323
0.000153095
0.000152896
0.000152724
0.000152586
6.75316e-05
0.000250806
0.000325039
0.000385229
0.000445556
0.000507726
0.000571624
0.000636662
0.00070205
0.000766924
0.000830432
0.000891804
0.000950375
0.00100561
0.00105711
0.00110458
0.00114784
0.00118677
0.00122135
0.00125158
0.00127754
0.0012993
0.00131702
0.00133086
0.001341
0.00134769
0.00135118
0.00135175
0.00134972
0.00134536
0.00133949
0.00133255
0.00132492
0.00131699
0.00130917
0.00130181
0.00129524
0.00128977
0.00128566
0.00128313
0.00128235
0.00128345
0.00128655
0.00129169
0.00129888
0.0013081
0.00131923
0.00133211
0.00134644
0.00136179
0.00137761
0.00139317
0.00140765
0.0014201
0.0014296
0.00143545
0.0014369
0.00143345
0.00142613
0.00141537
0.00140122
0.00138392
0.00136388
0.00134162
0.00131766
0.00129246
0.00126642
0.00123989
0.00121314
0.00118639
0.00115982
0.00113356
0.00110773
0.00108241
0.00105764
0.00103348
0.00100994
0.000987049
0.000964808
0.000943218
0.000922273
0.000901964
0.00088228
0.000863205
0.000844724
0.000826821
0.000809476
0.000792674
0.000776396
0.000760624
0.00074534
0.000730529
0.000716173
0.000702255
0.000688761
0.000675675
0.000662982
0.000650669
0.000638721
0.000627125
0.00061587
0.000604942
0.00059433
0.000584022
0.000574007
0.000564275
0.000554815
0.000545617
0.000536672
0.000527969
0.000519499
0.000511254
0.000503224
0.0004954
0.000487775
0.00048034
0.000473087
0.000466008
0.000459094
0.000452339
0.000445736
0.000439276
0.000432954
0.000426762
0.000420694
0.000414745
0.000408907
0.000403177
0.000397548
0.000392016
0.000386578
0.000381228
0.000375963
0.000370781
0.000365679
0.000360655
0.000355706
0.000350833
0.000346032
0.000341304
0.000336649
0.000332066
0.000327555
0.000323117
0.000318752
0.000314461
0.000310244
0.000306102
0.000302036
0.000298047
0.000294135
0.000290301
0.000286545
0.000282869
0.000279272
0.000275755
0.000272317
0.000268959
0.000265681
0.000262483
0.000259363
0.000256321
0.000253358
0.000250471
0.00024766
0.000244925
0.000242263
0.000239675
0.000237158
0.000234712
0.000232336
0.000230027
0.000227786
0.00022561
0.000223499
0.000221451
0.000219466
0.000217542
0.000215678
0.000213873
0.000212126
0.000210437
0.000208804
0.000207226
0.000205703
0.000204235
0.000202819
0.000201455
0.000200144
0.000198883
0.000197672
0.00019651
0.000195398
0.000194333
0.000193315
0.000192343
0.000191417
0.000190535
0.000189697
0.000188923
7.21018e-05
0.000297262
0.000396909
0.00047732
0.000558002
0.00064105
0.000725837
0.000811138
0.000895566
0.000977765
0.00105653
0.00113086
0.00120001
0.00126346
0.00132091
0.00137223
0.00141742
0.00145658
0.00148985
0.0015174
0.00153942
0.00155612
0.00156767
0.0015743
0.0015762
0.00157362
0.00156684
0.00155616
0.00154193
0.00152449
0.00150449
0.00148243
0.00145883
0.00143426
0.00140929
0.00138449
0.00136041
0.00133758
0.00131647
0.00129752
0.00128112
0.00126762
0.00125735
0.00125061
0.0012477
0.00124884
0.00125425
0.00126401
0.00127804
0.00129602
0.00131737
0.00134116
0.00136622
0.00139094
0.00141371
0.0014334
0.00144775
0.00145742
0.00146257
0.0014632
0.00145934
0.00145119
0.00143918
0.00142384
0.00140574
0.00138544
0.00136344
0.00134017
0.00131601
0.00129128
0.00126623
0.00124107
0.00121597
0.00119107
0.00116648
0.00114227
0.0011185
0.00109523
0.00107248
0.00105027
0.00102863
0.00100754
0.000987028
0.000967073
0.000947675
0.000928824
0.00091051
0.00089272
0.000875442
0.000858662
0.000842367
0.000826542
0.000811173
0.000796247
0.000781748
0.000767664
0.000753982
0.000740688
0.000727769
0.000715213
0.000703008
0.000691143
0.000679605
0.000668384
0.000657469
0.00064685
0.000636517
0.000626459
0.000616668
0.000607133
0.000597845
0.000588796
0.000579978
0.000571381
0.000562997
0.000554819
0.000546838
0.000539046
0.000531437
0.000524003
0.000516737
0.000509631
0.00050268
0.000495877
0.000489215
0.000482689
0.000476294
0.000470023
0.000463872
0.000457837
0.000451912
0.000446096
0.000440383
0.000434771
0.000429258
0.000423842
0.00041852
0.000413292
0.000408156
0.000403112
0.000398161
0.000393301
0.000388534
0.000383861
0.000379281
0.000374797
0.00037041
0.00036612
0.000361929
0.000357838
0.00035385
0.000349964
0.000346181
0.000342504
0.000338932
0.000335465
0.000332105
0.00032885
0.000325701
0.000322656
0.000319714
0.000316875
0.000314136
0.000311494
0.000308949
0.000306496
0.000304133
0.000301856
0.000299663
0.000297548
0.00029551
0.000293543
0.000291643
0.000289807
0.000288031
0.000286311
0.000284643
0.000283024
0.00028145
0.000279918
0.000278425
0.000276969
0.000275546
0.000274156
0.000272795
0.000271463
0.000270158
0.000268878
0.000267623
0.000266393
0.000265186
0.000264002
0.000262843
0.000261706
0.000260594
0.000259505
0.000258442
0.000257404
0.000256393
0.000255433
7.55746e-05
0.000334406
0.000458234
0.000556783
0.000654855
0.000755054
0.000856382
0.000957118
0.00105546
0.00114976
0.00123867
0.00132118
0.00139662
0.00146465
0.00152515
0.00157823
0.00162409
0.00166299
0.00169523
0.00172105
0.00174069
0.00175431
0.00176207
0.00176408
0.00176047
0.00175137
0.00173697
0.00171749
0.00169327
0.00166453
0.00163185
0.00159576
0.00155686
0.00151585
0.00147346
0.00143047
0.00138768
0.00134583
0.00130568
0.0012679
0.00123311
0.0012019
0.0011748
0.00115241
0.00113528
0.00112399
0.00111913
0.00112118
0.00113051
0.00114715
0.00117075
0.00120038
0.00123478
0.00127133
0.00130811
0.00134157
0.00137113
0.00139611
0.00141593
0.00143023
0.0014389
0.00144211
0.00144025
0.00143387
0.00142361
0.00141007
0.00139387
0.00137554
0.00135555
0.00133432
0.00131218
0.00128944
0.00126633
0.00124304
0.00121974
0.00119656
0.00117359
0.00115091
0.00112859
0.00110666
0.00108517
0.00106415
0.00104359
0.00102353
0.00100395
0.000984866
0.000966271
0.000948159
0.000930525
0.00091336
0.000896655
0.000880399
0.000864582
0.000849192
0.000834219
0.000819651
0.000805476
0.000791684
0.000778262
0.000765201
0.00075249
0.000740117
0.000728073
0.000716347
0.000704931
0.000693813
0.000682986
0.000672439
0.000662165
0.000652155
0.000642401
0.000632893
0.000623626
0.000614591
0.000605781
0.000597188
0.000588806
0.000580628
0.000572647
0.000564858
0.000557253
0.000549826
0.000542573
0.000535488
0.000528564
0.000521798
0.000515183
0.000508717
0.000502394
0.000496211
0.000490163
0.000484249
0.000478465
0.000472809
0.000467278
0.000461872
0.000456589
0.000451429
0.000446391
0.000441476
0.000436684
0.000432016
0.000427473
0.000423057
0.000418771
0.000414615
0.000410593
0.000406706
0.000402957
0.000399349
0.000395884
0.000392563
0.00038939
0.000386366
0.000383492
0.000380769
0.000378198
0.000375778
0.000373509
0.00037139
0.000369418
0.00036759
0.000365904
0.000364354
0.000362936
0.000361644
0.000360471
0.000359411
0.000358456
0.000357599
0.00035683
0.000356141
0.000355523
0.000354969
0.000354468
0.000354013
0.000353594
0.000353206
0.000352839
0.000352487
0.000352144
0.000351805
0.000351463
0.000351115
0.000350758
0.000350387
0.000350001
0.000349598
0.000349176
0.000348735
0.000348275
0.000347796
0.000347299
0.000346784
0.000346253
0.000345709
0.000345152
0.000344585
0.000344012
0.000343441
7.81839e-05
0.000362506
0.000508248
0.000622311
0.000734441
0.000847993
0.000961791
0.00107381
0.00118202
0.00128468
0.00138045
0.0014684
0.00154805
0.00161925
0.00168212
0.00173693
0.00178408
0.00182394
0.00185687
0.00188314
0.00190293
0.00191634
0.0019234
0.0019241
0.00191841
0.00190632
0.00188787
0.00186318
0.00183241
0.00179572
0.00175361
0.0017066
0.00165529
0.00160042
0.00154285
0.00148348
0.00142332
0.00136334
0.00130454
0.00124785
0.00119416
0.00114424
0.00109884
0.00105874
0.00102476
0.000997775
0.000978689
0.000968484
0.000968086
0.000978103
0.000998753
0.00102944
0.00106903
0.00111351
0.00115992
0.00120593
0.00124956
0.00128914
0.00132343
0.00135162
0.00137334
0.00138858
0.00139766
0.00140108
0.0013995
0.00139359
0.00138401
0.00137142
0.00135636
0.00133935
0.00132082
0.00130115
0.00128064
0.00125956
0.00123811
0.00121649
0.00119482
0.00117323
0.00115181
0.00113063
0.00110974
0.0010892
0.00106902
0.00104925
0.00102988
0.00101095
0.000992439
0.000974366
0.000956726
0.000939516
0.000922733
0.000906369
0.000890418
0.000874872
0.000859723
0.000844961
0.000830577
0.000816563
0.000802908
0.000789604
0.000776641
0.00076401
0.000751703
0.00073971
0.000728023
0.000716634
0.000705535
0.000694717
0.000684174
0.000673897
0.000663881
0.000654117
0.0006446
0.000635323
0.00062628
0.000617465
0.000608872
0.000600495
0.00059233
0.000584371
0.000576614
0.000569053
0.000561684
0.000554503
0.000547505
0.000540687
0.000534044
0.000527574
0.000521273
0.000515139
0.000509168
0.000503358
0.000497709
0.000492217
0.000486883
0.000481706
0.000476685
0.00047182
0.000467114
0.000462566
0.000458179
0.000453954
0.000449895
0.000446004
0.000442284
0.00043874
0.000435374
0.000432191
0.000429195
0.000426389
0.000423778
0.000421364
0.000419152
0.000417143
0.00041534
0.000413744
0.000412356
0.000411175
0.000410199
0.000409425
0.00040885
0.000408469
0.000408273
0.000408255
0.000408406
0.000408714
0.000409169
0.000409756
0.000410462
0.000411272
0.000412172
0.000413146
0.000414179
0.000415256
0.000416361
0.000417482
0.000418604
0.000419716
0.000420805
0.000421863
0.000422879
0.000423847
0.00042476
0.000425613
0.000426402
0.000427124
0.000427778
0.000428362
0.000428878
0.000429325
0.000429707
0.000430024
0.000430281
0.000430479
0.000430624
0.000430719
0.000430767
0.000430775
0.000430746
0.000430666
8.00747e-05
0.000382225
0.000547142
0.000673971
0.000796997
0.000920506
0.00104336
0.0011634
0.00127855
0.00138706
0.00148769
0.00157966
0.00166266
0.00173672
0.00180215
0.00185939
0.00190891
0.00195118
0.00198655
0.00201526
0.00203743
0.00205303
0.00206197
0.00206408
0.00205918
0.00204711
0.00202775
0.00200106
0.001967
0.00192573
0.00187772
0.0018234
0.00176334
0.00169824
0.00162897
0.00155652
0.00148199
0.00140654
0.00133138
0.00125768
0.00118659
0.00111914
0.00105624
0.000998803
0.000947835
0.000904492
0.00086982
0.000845179
0.000832063
0.000831598
0.000844595
0.000871404
0.000908873
0.000954794
0.00100627
0.00106033
0.00111415
0.00116529
0.0012118
0.00125231
0.00128603
0.00131263
0.00133225
0.00134528
0.00135231
0.00135405
0.00135121
0.00134448
0.00133452
0.00132191
0.00130718
0.00129077
0.00127306
0.00125437
0.00123498
0.00121511
0.00119495
0.00117464
0.00115431
0.00113407
0.00111398
0.00109411
0.00107451
0.00105521
0.00103625
0.00101765
0.000999425
0.000981577
0.000964118
0.000947049
0.00093037
0.00091408
0.000898175
0.00088265
0.0008675
0.000852717
0.000838296
0.000824229
0.000810507
0.000797124
0.000784072
0.000771344
0.000758931
0.000746827
0.000735023
0.000723514
0.000712292
0.000701351
0.000690685
0.000680287
0.000670151
0.000660272
0.000650645
0.000641265
0.000632126
0.000623225
0.000614556
0.000606116
0.0005979
0.000589906
0.000582128
0.000574564
0.000567211
0.000560065
0.000553124
0.000546385
0.000539844
0.000533501
0.000527353
0.000521398
0.000515635
0.000510062
0.000504679
0.000499486
0.000494481
0.000489666
0.000485043
0.000480611
0.000476373
0.000472332
0.000468491
0.000464853
0.000461422
0.000458203
0.0004552
0.000452419
0.000449865
0.000447543
0.000445459
0.000443619
0.000442027
0.000440689
0.000439608
0.000438787
0.000438228
0.000437933
0.000437901
0.000438129
0.000438615
0.000439351
0.00044033
0.000441541
0.000442974
0.000444612
0.000446441
0.000448441
0.000450594
0.000452878
0.000455272
0.000457753
0.000460298
0.000462885
0.000465492
0.000468097
0.00047068
0.000473224
0.000475711
0.000478125
0.000480455
0.000482689
0.000484817
0.000486834
0.000488734
0.000490513
0.00049217
0.000493704
0.000495118
0.000496413
0.000497593
0.000498663
0.000499626
0.000500489
0.000501259
0.00050194
0.00050254
0.000503066
0.000503524
0.000503921
0.000504262
0.000504516
8.13704e-05
0.000394495
0.000575665
0.000712699
0.000843798
0.000974392
0.00110355
0.00122914
0.00134912
0.00146181
0.00156609
0.00166132
0.00174734
0.00182433
0.00189271
0.001953
0.00200575
0.00205145
0.00209042
0.00212285
0.00214876
0.00216802
0.0021804
0.00218559
0.00218326
0.0021731
0.00215486
0.00212833
0.00209323
0.00204989
0.00199874
0.00194012
0.00187448
0.00180245
0.00172484
0.00164264
0.00155699
0.00146917
0.00138049
0.00129235
0.00120618
0.00112334
0.00104499
0.000972118
0.000905854
0.000847897
0.000799145
0.000761098
0.000735833
0.000724464
0.000728159
0.000746278
0.000777521
0.000819997
0.000871102
0.000927784
0.000986844
0.00104526
0.00110046
0.00115046
0.00119392
0.00123015
0.00125894
0.00128052
0.00129536
0.00130411
0.00130749
0.00130624
0.00130107
0.00129263
0.0012815
0.00126819
0.00125316
0.00123679
0.00121939
0.00120124
0.00118256
0.00116353
0.0011443
0.00112501
0.00110574
0.00108659
0.00106761
0.00104886
0.00103037
0.00101218
0.000994302
0.000976761
0.000959568
0.000942728
0.000926246
0.000910125
0.000894363
0.000878959
0.000863909
0.00084921
0.000834855
0.00082084
0.000807158
0.000793804
0.000780771
0.000768053
0.000755643
0.000743536
0.000731726
0.000720206
0.000708972
0.000698017
0.000687336
0.000676926
0.000666781
0.000656896
0.000647269
0.000637894
0.000628769
0.000619889
0.000611253
0.000602857
0.000594699
0.000586775
0.000579084
0.000571624
0.000564392
0.000557387
0.000550606
0.00054405
0.000537715
0.000531601
0.000525707
0.000520032
0.000514576
0.000509338
0.000504319
0.000499519
0.00049494
0.000490582
0.000486448
0.000482541
0.000478863
0.000475418
0.00047221
0.000469245
0.000466528
0.000464065
0.000461861
0.000459924
0.000458261
0.000456877
0.000455781
0.000454979
0.000454476
0.000454278
0.000454389
0.000454812
0.000455547
0.000456595
0.000457953
0.000459614
0.000461572
0.000463816
0.000466331
0.000469102
0.000472109
0.000475329
0.000478739
0.000482313
0.000486021
0.000489834
0.000493723
0.000497657
0.000501607
0.000505544
0.000509441
0.000513273
0.000517018
0.000520654
0.000524164
0.000527533
0.00053075
0.000533804
0.00053669
0.000539402
0.000541941
0.000544305
0.000546498
0.000548523
0.000550385
0.000552091
0.000553648
0.000555064
0.000556348
0.000557508
0.000558554
0.000559496
0.000560341
0.0005611
0.000561781
0.000562393
0.000562941
0.000563382
8.21629e-05
0.000400346
0.000594912
0.000739851
0.000876629
0.00101194
0.00114522
0.00127448
0.00139774
0.00151346
0.00162058
0.00171861
0.00180746
0.00188741
0.00195892
0.00202258
0.00207895
0.00212848
0.00217148
0.00220807
0.0022382
0.00226162
0.00227801
0.00228692
0.0022879
0.00228049
0.0022643
0.00223901
0.00220412
0.00216021
0.00210768
0.00204678
0.00197781
0.00190128
0.00181789
0.00172857
0.00163447
0.00153687
0.00143721
0.00133698
0.00123782
0.0011416
0.00104994
0.000963895
0.00088444
0.00081453
0.000754636
0.000705943
0.000671832
0.000651999
0.000647006
0.000656739
0.000680572
0.000717205
0.000764568
0.000819912
0.000880056
0.000941734
0.00100194
0.00105817
0.00110861
0.00115211
0.00118813
0.00121662
0.00123791
0.00125255
0.00126123
0.00126468
0.00126364
0.0012588
0.0012508
0.00124022
0.00122753
0.00121318
0.00119754
0.00118089
0.00116352
0.00114562
0.00112738
0.00110895
0.00109043
0.00107193
0.00105353
0.00103529
0.00101725
0.000999462
0.000981944
0.000964723
0.000947816
0.000931233
0.000914982
0.000899069
0.000883496
0.000868263
0.000853368
0.000838809
0.000824582
0.000810684
0.00079711
0.000783854
0.000770912
0.000758279
0.00074595
0.000733919
0.000722181
0.000710732
0.000699567
0.000688682
0.000678073
0.000667736
0.000657667
0.000647864
0.000638323
0.000629042
0.000620018
0.00061125
0.000602735
0.000594472
0.000586459
0.000578695
0.000571179
0.00056391
0.000556887
0.000550109
0.000543576
0.000537287
0.000531241
0.000525439
0.000519881
0.000514566
0.000509496
0.00050467
0.000500091
0.000495758
0.000491675
0.000487844
0.000484267
0.000480948
0.000477891
0.000475101
0.000472584
0.000470345
0.000468391
0.000466729
0.000465366
0.00046431
0.00046357
0.000463152
0.000463065
0.000463315
0.000463909
0.000464851
0.000466145
0.000467792
0.000469792
0.000472141
0.000474833
0.000477857
0.000481201
0.000484848
0.000488778
0.000492965
0.000497384
0.000502004
0.000506792
0.000511713
0.000516731
0.000521809
0.000526912
0.000532003
0.000537048
0.000542016
0.000546876
0.000551602
0.000556171
0.000560563
0.000564764
0.00056876
0.000572542
0.000576104
0.000579445
0.000582565
0.000585465
0.000588151
0.000590629
0.000592907
0.000594995
0.000596902
0.00059864
0.00060022
0.000601654
0.000602953
0.000604128
0.000605192
0.000606155
0.000607028
0.000607822
0.000608546
0.000609206
0.00060975
8.2533e-05
0.00040083
0.000606092
0.000756993
0.000897462
0.00103557
0.00117124
0.00130269
0.00142807
0.00154592
0.00165527
0.00175568
0.00184712
0.00192987
0.00200443
0.00207137
0.00213124
0.00218446
0.00223131
0.00227184
0.00230593
0.00233329
0.00235349
0.00236598
0.00237022
0.0023656
0.00235164
0.00232788
0.00229369
0.00224996
0.00219701
0.00213501
0.00206415
0.00198474
0.00189732
0.00180272
0.00170207
0.00159667
0.001488
0.00137764
0.0012672
0.00115919
0.00105614
0.000959235
0.00086854
0.000789425
0.000722293
0.000667994
0.000627663
0.000601698
0.000590419
0.000593852
0.00061164
0.000642866
0.000685907
0.000738411
0.000797435
0.000859739
0.000922145
0.000981857
0.00103667
0.00108508
0.00112622
0.00115979
0.00118594
0.0012051
0.00121789
0.00122502
0.00122724
0.00122527
0.00121976
0.00121134
0.00120052
0.00118779
0.00117353
0.0011581
0.00114176
0.00112478
0.00110733
0.00108958
0.00107168
0.00105372
0.0010358
0.00101798
0.00100033
0.000982887
0.000965686
0.000948755
0.000932114
0.000915778
0.000899757
0.000884059
0.000868686
0.000853641
0.000838925
0.000824535
0.00081047
0.000796727
0.000783301
0.000770189
0.000757387
0.00074489
0.000732694
0.000720794
0.000709187
0.000697869
0.000686836
0.000676084
0.000665611
0.000655414
0.000645489
0.000635836
0.000626451
0.000617334
0.000608483
0.000599896
0.000591574
0.000583516
0.00057572
0.000568187
0.000560917
0.00055391
0.000547165
0.000540684
0.000534466
0.000528513
0.000522823
0.000517399
0.00051224
0.000507349
0.000502725
0.00049837
0.000494287
0.000490477
0.000486942
0.000483687
0.000480714
0.000478027
0.000475632
0.000473534
0.000471739
0.000470254
0.000469086
0.000468243
0.000467734
0.000467565
0.000467747
0.000468287
0.000469192
0.000470469
0.000472125
0.000474161
0.000476581
0.000479383
0.000482564
0.000486115
0.000490027
0.000494284
0.000498867
0.000503753
0.000508913
0.000514318
0.000519931
0.000525714
0.000531629
0.000537633
0.000543685
0.000549742
0.000555763
0.000561711
0.000567548
0.000573241
0.000578763
0.000584086
0.00058919
0.000594058
0.000598678
0.000603041
0.000607142
0.000610981
0.000614558
0.000617878
0.000620949
0.000623778
0.000626378
0.000628758
0.000630933
0.000632915
0.000634717
0.000636355
0.000637841
0.000639189
0.000640413
0.000641526
0.000642539
0.000643466
0.000644316
0.0006451
0.000645824
0.00064643
8.25431e-05
0.000396937
0.000610453
0.000765718
0.000908287
0.00104766
0.00118434
0.0013168
0.00144332
0.00156254
0.00167354
0.00177587
0.0018695
0.0019547
0.00203192
0.00210172
0.00216459
0.00222094
0.00227099
0.00231476
0.0023521
0.00238265
0.00240595
0.00242138
0.00242831
0.00242606
0.002414
0.0023915
0.00235813
0.0023148
0.00226186
0.0021994
0.00212747
0.0020462
0.0019559
0.00185719
0.00175131
0.00163949
0.00152331
0.00140447
0.00128428
0.00116582
0.00105332
0.000948147
0.000851974
0.000767371
0.000695403
0.000636965
0.0005927
0.000562974
0.000547971
0.000547664
0.000561732
0.000589403
0.000629303
0.000679364
0.000736891
0.000798787
0.000861878
0.000923249
0.000980496
0.00103186
0.00107626
0.00111319
0.00114263
0.0011649
0.00118057
0.00119031
0.00119485
0.00119491
0.00119119
0.00118431
0.00117483
0.00116324
0.00114997
0.00113539
0.0011198
0.00110345
0.00108656
0.00106931
0.00105184
0.00103428
0.00101671
0.000999215
0.000981858
0.000964688
0.000947742
0.000931051
0.000914637
0.000898517
0.000882704
0.000867205
0.000852026
0.00083717
0.000822638
0.000808428
0.00079454
0.000780971
0.000767718
0.000754777
0.000742145
0.000729818
0.000717792
0.000706064
0.000694629
0.000683486
0.00067263
0.000662059
0.00065177
0.000641763
0.000632034
0.000622582
0.000613407
0.000604507
0.000595883
0.000587533
0.000579459
0.000571659
0.000564136
0.000556889
0.00054992
0.000543229
0.000536817
0.000530686
0.000524836
0.000519269
0.000513986
0.000508988
0.000504277
0.000499855
0.000495722
0.000491881
0.000488335
0.000485085
0.000482135
0.000479488
0.000477148
0.00047512
0.000473409
0.000472021
0.000470962
0.000470239
0.00046986
0.000469833
0.000470165
0.000470867
0.000471944
0.000473406
0.000475259
0.000477508
0.000480158
0.000483209
0.000486663
0.000490513
0.000494754
0.000499372
0.000504353
0.000509676
0.000515315
0.00052124
0.000527419
0.000533813
0.00054038
0.000547077
0.000553858
0.000560678
0.000567491
0.000574251
0.000580917
0.000587448
0.000593809
0.000599968
0.000605897
0.000611575
0.000616982
0.000622107
0.000626941
0.000631479
0.000635721
0.00063967
0.000643331
0.000646714
0.000649829
0.000652688
0.000655306
0.000657695
0.000659873
0.000661855
0.000663655
0.000665291
0.000666776
0.000668127
0.000669358
0.000670481
0.000671512
0.000672461
0.00067334
0.000674159
0.000674925
0.000675576
8.22481e-05
0.000389511
0.000609162
0.000767596
0.000911057
0.00105049
0.00118704
0.0013195
0.00144631
0.00156616
0.00167815
0.00178182
0.00187708
0.00196414
0.00204341
0.00211538
0.00218049
0.0022391
0.00229143
0.00233746
0.00237702
0.00240975
0.00243514
0.00245258
0.00246135
0.00246073
0.00244999
0.00242829
0.0023955
0.00235253
0.00229969
0.00223701
0.00216443
0.0020819
0.0019894
0.00188716
0.00177686
0.00165957
0.00153696
0.00141115
0.0012845
0.0011603
0.00104176
0.000931304
0.000831076
0.00074293
0.000668065
0.000607298
0.000561112
0.000529742
0.000513237
0.000511461
0.000524038
0.000550212
0.000588689
0.00063754
0.000694222
0.000755762
0.00081905
0.000881163
0.000939626
0.000992572
0.00103878
0.00107763
0.00110901
0.00113314
0.00115055
0.00116187
0.00116782
0.00116913
0.00116649
0.00116054
0.00115186
0.00114096
0.00112828
0.0011142
0.00109904
0.00108307
0.00106651
0.00104956
0.00103236
0.00101503
0.000997687
0.000980403
0.000963246
0.000946268
0.000929508
0.000913
0.000896766
0.000880824
0.000865189
0.000849867
0.000834866
0.000820189
0.000805835
0.000791806
0.0007781
0.000764715
0.000751647
0.000738893
0.00072645
0.000714315
0.000702484
0.000690954
0.000679721
0.000668782
0.000658136
0.00064778
0.000637712
0.000627931
0.000618435
0.000609223
0.000600296
0.000591654
0.000583296
0.000575223
0.000567437
0.000559938
0.000552727
0.000545807
0.000539178
0.000532843