/*--------------------------------*- C++ -*----------------------------------*\
  =========                 |
  \\      /  F ield         | OpenFOAM: The Open Source CFD Toolbox
   \\    /   O peration     | Website:  https://openfoam.org
    \\  /    A nd           | Version:  7
     \\/     M anipulation  |
\*---------------------------------------------------------------------------*/
FoamFile
{
    version     2.0;
    format      ascii;
    class       volScalarField;
    location    "100";
    object      p;
}
// * * * * * * * * * * * * * * * * * * * * * * * * * * * * * * * * * * * * * //

dimensions      [0 2 -2 0 0 0 0];

internalField   nonuniform List<scalar> 
16900
(
-15.5986
-15.8101
-16.1831
-16.7574
-17.5105
-18.4276
-19.4883
-20.6693
-21.9453
-23.2913
-24.6827
-26.0964
-27.5111
-28.9068
-30.2659
-31.5716
-32.8085
-33.9642
-35.0246
-35.9809
-36.8208
-37.538
-38.1224
-38.5698
-38.8738
-39.0322
-39.0444
-38.9082
-38.6201
-38.1774
-37.5803
-36.8313
-35.9334
-34.8896
-33.7033
-32.378
-30.9176
-29.3268
-27.6115
-25.7797
-23.8421
-21.8131
-19.7108
-17.5576
-15.3795
-13.2053
-11.0653
-8.99032
-7.00983
-5.15023
-3.43275
-1.87181
-0.474529
0.757729
1.82663
2.73467
3.48627
4.09194
4.57367
4.96514
5.2886
5.53947
5.71354
5.82133
5.8746
5.88385
5.85803
5.8046
5.7298
5.63876
5.53572
5.42414
5.30687
5.18618
5.0639
4.94151
4.82015
4.70071
4.58388
4.47017
4.35994
4.25347
4.1509
4.05234
3.9578
3.86728
3.78072
3.69803
3.61911
3.54383
3.47207
3.40367
3.33847
3.27634
3.21711
3.16063
3.10673
3.05527
3.00609
2.95905
2.914
2.87079
2.8293
2.78938
2.75091
2.71377
2.67783
2.64297
2.60909
2.57608
2.54383
2.51224
2.48122
2.45068
2.42052
2.39068
2.36106
2.33159
2.30221
2.27286
2.24346
2.21398
2.18436
2.15457
2.12455
2.0943
2.06379
2.03299
2.00191
1.97054
1.93889
1.90696
1.87476
1.84233
1.80968
1.77684
1.74384
1.71071
1.67749
1.64421
1.6109
1.5776
1.54433
1.51112
1.47801
1.44501
1.41215
1.37945
1.34692
1.31457
1.28241
1.25047
1.21872
1.1872
1.15589
1.12479
1.09392
1.06326
1.03282
1.00261
0.972614
0.942844
0.913301
0.883987
0.854909
0.82607
0.797477
0.769137
0.741058
0.713247
0.685712
0.658461
0.631501
0.604841
0.578486
0.552443
0.526717
0.50131
0.476227
0.451469
0.427036
0.402926
0.379138
0.355668
0.332511
0.309661
0.287111
0.264852
0.242873
0.221165
0.199712
0.178501
0.157513
0.136724
0.116106
0.0956166
0.0751942
0.054743
0.0340871
0.013116
-15.4959
-15.7487
-16.1309
-16.7033
-17.4593
-18.3824
-19.4507
-20.6397
-21.9235
-23.2767
-24.6744
-26.0941
-27.514
-28.9152
-30.2795
-31.5911
-32.8347
-33.9972
-35.0663
-36.031
-36.8811
-37.6083
-38.2045
-38.6634
-38.9797
-39.152
-39.1793
-39.06
-38.7887
-38.3624
-37.7825
-37.0523
-36.1751
-35.1542
-33.993
-32.6951
-31.2641
-29.7045
-28.0217
-26.2232
-24.3188
-22.3218
-20.2494
-18.1227
-15.9666
-13.8092
-11.6804
-9.61084
-7.62973
-5.76305
-4.03161
-2.45022
-1.0278
0.231175
1.32535
2.25713
3.0361
3.68088
4.21657
4.65425
4.99815
5.25963
5.44795
5.57278
5.64432
5.67193
5.66389
5.6273
5.5682
5.49165
5.40191
5.30247
5.19623
5.08555
4.97235
4.85816
4.74422
4.63148
4.52071
4.41246
4.30719
4.20518
4.10666
4.01175
3.92054
3.83302
3.74918
3.66897
3.5923
3.51907
3.44916
3.38245
3.31881
3.25809
3.20015
3.14484
3.09202
3.04154
2.99326
2.94705
2.90275
2.86024
2.81938
2.78004
2.74211
2.70546
2.66997
2.63553
2.60203
2.56936
2.53743
2.50614
2.47539
2.4451
2.41518
2.38554
2.35612
2.32683
2.29762
2.26841
2.23916
2.20981
2.18031
2.15062
2.12072
2.09056
2.06014
2.02943
1.99843
1.96714
1.93555
1.9037
1.87157
1.83921
1.80663
1.77386
1.74093
1.70787
1.67472
1.64151
1.60827
1.57504
1.54184
1.50871
1.47567
1.44275
1.40996
1.37734
1.34488
1.31261
1.28053
1.24865
1.21698
1.18553
1.15429
1.12326
1.09245
1.06186
1.03149
1.00134
0.971409
0.941699
0.912215
0.882959
0.853936
0.825152
0.796612
0.768324
0.740295
0.712533
0.685046
0.657841
0.630927
0.60431
0.577997
0.551995
0.526308
0.500939
0.475892
0.451168
0.426767
0.402689
0.378931
0.355488
0.332358
0.309532
0.287005
0.264767
0.242809
0.22112
0.199686
0.178492
0.157522
0.136753
0.116158
0.0957004
0.0753257
0.0549553
0.034448
0.0138489
-15.6017
-15.944
-16.3771
-16.975
-17.747
-18.6788
-19.7495
-20.9355
-22.2121
-23.5547
-24.9401
-26.3461
-27.753
-29.142
-30.496
-31.7992
-33.037
-34.1965
-35.2647
-36.2306
-37.0839
-37.8158
-38.4179
-38.8834
-39.2074
-39.3872
-39.4237
-39.314
-39.052
-38.6349
-38.0651
-37.3462
-36.482
-35.476
-34.3319
-33.0529
-31.6427
-30.105
-28.4447
-26.6686
-24.7855
-22.8078
-20.7517
-18.6375
-16.4898
-14.3367
-12.2086
-10.1366
-8.15019
-6.27508
-4.53217
-2.93725
-1.50171
-0.232871
0.866898
1.80386
2.59692
3.271
3.83836
4.30442
4.67777
4.96672
5.18054
5.3293
5.42301
5.47096
5.48142
5.46159
5.41764
5.35478
5.27737
5.18907
5.09288
4.99127
4.88624
4.77944
4.67217
4.56547
4.46015
4.35685
4.25604
4.15809
4.06325
3.97169
3.88351
3.79876
3.71744
3.63952
3.56494
3.49362
3.42546
3.36034
3.29816
3.23878
3.18206
3.12788
3.07609
3.02656
2.97915
2.93374
2.89018
2.84834
2.80811
2.76935
2.73195
2.69578
2.66074
2.62671
2.5936
2.56129
2.52968
2.49869
2.46822
2.43818
2.40849
2.37907
2.34985
2.32074
2.29169
2.26264
2.23353
2.2043
2.17491
2.14532
2.11551
2.08543
2.05508
2.02443
1.99349
1.96225
1.93071
1.89889
1.86681
1.83449
1.80194
1.76921
1.73632
1.7033
1.67019
1.63702
1.60384
1.57066
1.53752
1.50445
1.47148
1.43862
1.40591
1.37336
1.34098
1.30879
1.2768
1.24501
1.21343
1.18206
1.15091
1.11997
1.08925
1.05875
1.02847
0.998401
0.968555
0.938931
0.90953
0.880358
0.851418
0.822716
0.794259
0.766052
0.738104
0.710423
0.683016
0.655892
0.629058
0.602522
0.576289
0.550366
0.524758
0.499467
0.474498
0.449851
0.425525
0.401521
0.377835
0.354464
0.331402
0.308645
0.286183
0.264008
0.242112
0.220483
0.199108
0.177973
0.157063
0.136358
0.115835
0.0954648
0.0752109
0.0550315
0.0348583
0.015178
-15.9434
-16.3519
-16.8204
-17.4377
-18.2197
-19.1522
-20.2164
-21.3901
-22.6503
-23.9742
-25.3398
-26.7271
-28.1166
-29.4907
-30.8329
-32.1278
-33.3609
-34.518
-35.5873
-36.5561
-37.4141
-38.1514
-38.76
-39.2322
-39.5624
-39.7494
-39.7922
-39.6888
-39.4323
-39.02
-38.4559
-37.7439
-36.8884
-35.8931
-34.7616
-33.497
-32.1024
-30.5808
-28.9363
-27.174
-25.3018
-23.3306
-21.2757
-19.1569
-16.9991
-14.8311
-12.6843
-10.5908
-8.58087
-6.68151
-4.91562
-3.30198
-1.85451
-0.579378
0.527387
1.48158
2.30525
3.00797
3.59389
4.07471
4.46088
4.76178
4.98735
5.14781
5.25304
5.3122
5.33343
5.32386
5.28961
5.23587
5.16701
5.0867
4.99795
4.90325
4.80464
4.70378
4.602
4.50036
4.39973
4.30074
4.20392
4.10964
4.01818
3.92973
3.84443
3.76232
3.68345
3.60778
3.53528
3.46588
3.3995
3.33603
3.27536
3.21738
3.16196
3.10898
3.0583
3.00981
2.96336
2.91882
2.87608
2.83501
2.79548
2.75738
2.72059
2.68498
2.65047
2.61693
2.58427
2.55237
2.52116
2.49053
2.46039
2.43066
2.40126
2.37211
2.34312
2.31424
2.2854
2.25653
2.22758
2.1985
2.16925
2.13978
2.11006
2.08008
2.0498
2.01922
1.98833
1.95714
1.92564
1.89385
1.8618
1.8295
1.79697
1.76426
1.73139
1.69839
1.66531
1.63218
1.59902
1.56588
1.53279
1.49977
1.46685
1.43406
1.40141
1.36893
1.33663
1.30451
1.2726
1.24089
1.20939
1.17811
1.14704
1.11619
1.08556
1.05514
1.02494
0.99496
0.965195
0.93565
0.906328
0.877232
0.848368
0.81974
0.791356
0.763222
0.735346
0.707737
0.680402
0.65335
0.626588
0.600124
0.573964
0.548115
0.52258
0.497364
0.472468
0.447895
0.423643
0.399713
0.376101
0.352802
0.329813
0.307127
0.284736
0.262632
0.240806
0.219246
0.197942
0.176879
0.156044
0.13542
0.11499
0.0947348
0.0746371
0.0546965
0.0349267
0.0163673
-16.4755
-16.9153
-17.3996
-18.0297
-18.8172
-19.7483
-20.8042
-21.9643
-23.2072
-24.5116
-25.8574
-27.2251
-28.5972
-29.9563
-31.2865
-32.5723
-33.7989
-34.9532
-36.0208
-36.99
-37.8494
-38.5889
-39.1998
-39.6743
-40.0071
-40.1954
-40.2405
-40.1384
-39.8822
-39.4704
-38.9077
-38.1992
-37.3492
-36.3619
-35.2407
-33.9887
-32.6081
-31.1014
-29.471
-27.7206
-25.8565
-23.8881
-21.8295
-19.7001
-17.525
-15.3338
-13.1587
-11.0332
-8.98981
-7.05898
-5.26748
-3.63682
-2.17904
-0.891711
0.239184
1.22698
2.07757
2.79609
3.39379
3.88346
4.27681
4.58453
4.81721
4.98524
5.09841
5.16572
5.19517
5.19374
5.16746
5.12145
5.06001
4.98678
4.90475
4.81639
4.72375
4.62848
4.53192
4.43516
4.33906
4.24428
4.15137
4.06071
3.97261
3.88728
3.80485
3.72541
3.649
3.57562
3.50524
3.4378
3.37323
3.31144
3.25233
3.1958
3.14172
3.08998
3.04046
2.99304
2.94758
2.90398
2.8621
2.82182
2.78304
2.74563
2.70947
2.67447
2.64051
2.60749
2.57531
2.54387
2.51307
2.48283
2.45306
2.42366
2.39457
2.36569
2.33697
2.30833
2.2797
2.25103
2.22225
2.19333
2.16421
2.13486
2.10524
2.07533
2.04512
2.01459
1.98374
1.95256
1.92108
1.8893
1.85724
1.82493
1.79239
1.75966
1.72678
1.69377
1.66068
1.62754
1.59439
1.56125
1.52817
1.49517
1.46228
1.42953
1.39692
1.36449
1.33224
1.30018
1.26833
1.23669
1.20526
1.17405
1.14305
1.11228
1.08171
1.05137
1.02124
0.991331
0.961636
0.93216
0.902906
0.873877
0.845079
0.816517
0.788198
0.76013
0.732319
0.704776
0.677508
0.650524
0.623831
0.597437
0.571348
0.545571
0.52011
0.494969
0.470149
0.445652
0.421478
0.397626
0.374091
0.350871
0.327959
0.305351
0.283037
0.26101
0.239259
0.217777
0.196549
0.175565
0.154813
0.134279
0.11395
0.0938183
0.0738814
0.0541715
0.0347457
0.0169537
-17.1344
-17.5824
-18.0699
-18.7039
-19.4908
-20.4157
-21.4604
-22.6051
-23.8296
-25.1143
-26.44
-27.7892
-29.1442
-30.4887
-31.807
-33.0836
-34.3041
-35.4536
-36.5192
-37.4876
-38.3471
-39.0873
-39.6991
-40.1746
-40.5079
-40.6978
-40.743
-40.6402
-40.3823
-39.9693
-39.4073
-38.7015
-37.8567
-36.8773
-35.7665
-34.5272
-33.1611
-31.6696
-30.0538
-28.3156
-26.4592
-24.4929
-22.4295
-20.2872
-18.0912
-15.8715
-13.6611
-11.4971
-9.41593
-7.45312
-5.63749
-3.98811
-2.50898
-1.18777
-0.0201948
0.993267
1.85969
2.59013
3.19737
3.6946
4.09424
4.40794
4.64683
4.82149
4.94173
5.01644
5.05348
5.05971
5.04106
5.00254
4.9484
4.8822
4.80691
4.72496
4.63839
4.54885
4.45767
4.36595
4.27456
4.18419
4.09537
4.00852
3.92396
3.84192
3.76255
3.68595
3.61217
3.54123
3.47312
3.40778
3.34517
3.2852
3.22778
3.17281
3.12019
3.06981
3.02155
2.97529
2.93093
2.88834
2.84741
2.80801
2.77005
2.73341
2.69797
2.66363
2.6303
2.59786
2.56622
2.53528
2.50496
2.47515
2.44578
2.41677
2.38802
2.35947
2.33105
2.30268
2.2743
2.24585
2.21727
2.18853
2.15956
2.13034
2.10083
2.07101
2.04087
2.01039
1.97957
1.94841
1.91693
1.88514
1.85307
1.82073
1.78817
1.75541
1.7225
1.68946
1.65635
1.62318
1.59002
1.55688
1.52379
1.4908
1.45793
1.4252
1.39263
1.36023
1.32803
1.29602
1.26423
1.23265
1.20129
1.17014
1.13922
1.10851
1.07802
1.04774
1.01768
0.987835
0.958205
0.928793
0.8996
0.870632
0.841893
0.813389
0.785128
0.757117
0.729364
0.701878
0.674669
0.647744
0.621111
0.594779
0.568754
0.543042
0.517648
0.492574
0.467824
0.443398
0.419295
0.395515
0.372053
0.348906
0.326067
0.303532
0.281291
0.259337
0.23766
0.216251
0.195099
0.174192
0.153521
0.133075
0.112846
0.0928324
0.0730446
0.0535304
0.0343521
0.0169552
-17.8584
-18.2972
-18.7773
-19.4084
-20.1877
-21.1018
-22.1324
-23.2602
-24.4663
-25.7319
-27.0393
-28.3708
-29.7104
-31.0417
-32.3492
-33.6175
-34.8316
-35.9774
-37.0403
-38.0073
-38.8664
-39.6068
-40.2189
-40.6949
-41.0291
-41.2192
-41.2653
-41.161
-40.9008
-40.4871
-39.9265
-39.2246
-38.3863
-37.4161
-36.3173
-35.0923
-33.7423
-32.2678
-30.6686
-28.9446
-27.0983
-25.1363
-23.0699
-20.9157
-18.6979
-16.4481
-14.201
-11.9989
-9.88257
-7.88965
-6.04503
-4.361
-2.83718
-1.47454
-0.279942
0.7528
1.63392
2.37589
2.99231
3.49694
3.90293
4.22266
4.46776
4.64902
4.7763
4.8584
4.9031
4.91714
4.90631
4.87554
4.82898
4.77014
4.70191
4.62673
4.54659
4.46312
4.37768
4.29134
4.20499
4.11933
4.03491
3.95216
3.87142
3.79293
3.71687
3.64334
3.57242
3.50413
3.43849
3.37545
3.31496
3.25697
3.20139
3.14814
3.09712
3.04822
3.00134
2.95637
2.91321
2.87174
2.83185
2.79343
2.75637
2.72057
2.68592
2.65233
2.61968
2.58789
2.55685
2.52647
2.49667
2.46736
2.43844
2.40985
2.3815
2.35331
2.32522
2.29715
2.26905
2.24085
2.21249
2.18394
2.15514
2.12606
2.09668
2.06695
2.03688
2.00645
1.97566
1.94452
1.91303
1.88123
1.84913
1.81676
1.78416
1.75136
1.7184
1.68532
1.65217
1.61897
1.58578
1.55262
1.51954
1.48655
1.45368
1.42097
1.38843
1.35607
1.32391
1.29196
1.26023
1.22871
1.19741
1.16633
1.13548
1.10484
1.07442
1.04422
1.01423
0.984451
0.954888
0.925541
0.896412
0.867505
0.838826
0.810381
0.782177
0.754224
0.726529
0.699101
0.67195
0.645085
0.618513
0.592243
0.566281
0.540634
0.515305
0.490299
0.465617
0.441261
0.417229
0.39352
0.370129
0.347054
0.324287
0.301824
0.279654
0.257772
0.236165
0.214828
0.193747
0.172915
0.15232
0.131957
0.111821
0.0919149
0.072255
0.0528966
0.0338777
0.0166608
-18.5887
-19.0054
-19.4717
-20.0935
-20.861
-21.7613
-22.7762
-23.8871
-25.0756
-26.3237
-27.6143
-28.9309
-30.257
-31.577
-32.8753
-34.1364
-35.3456
-36.4873
-37.5483
-38.5142
-39.373
-40.1135
-40.7262
-41.203
-41.5379
-41.7301
-41.777
-41.6716
-41.4098
-40.9969
-40.4394
-39.7431
-38.9131
-37.954
-36.8689
-35.66
-34.3279
-32.8723
-31.292
-29.5853
-27.752
-25.7974
-23.7314
-21.5679
-19.3307
-17.0547
-14.7767
-12.5432
-10.3953
-8.36713
-6.47768
-4.74124
-3.17353
-1.77982
-0.560012
0.492889
1.38989
2.14433
2.77066
3.28342
3.69653
4.02305
4.27504
4.46352
4.59841
4.68847
4.74137
4.76375
4.76129
4.7388
4.70036
4.64939
4.58875
4.52082
4.44757
4.37064
4.29135
4.21081
4.12989
4.04931
3.96963
3.89132
3.8147
3.74005
3.66756
3.59736
3.52954
3.46413
3.40116
3.34061
3.28244
3.22661
3.17304
3.12165
3.07236
3.02508
2.97971
2.93615
2.8943
2.85405
2.8153
2.77794
2.74188
2.707
2.67322
2.64043
2.60854
2.57746
2.54708
2.51732
2.4881
2.45932
2.43091
2.40278
2.37486
2.34707
2.31934
2.29161
2.26381
2.23588
2.20777
2.17943
2.15082
2.12189
2.09263
2.06301
2.03301
2.00263
1.97187
1.94074
1.90925
1.87742
1.84528
1.81287
1.78022
1.74737
1.71436
1.68123
1.64803
1.6148
1.58157
1.54839
1.51529
1.4823
1.44945
1.41676
1.38425
1.35193
1.31982
1.28793
1.25625
1.2248
1.19358
1.16258
1.1318
1.10124
1.0709
1.04077
1.01085
0.981152
0.951661
0.922384
0.893323
0.864483
0.835869
0.807487
0.779346
0.751455
0.723821
0.696455
0.669366
0.642564
0.616055
0.58985
0.563954
0.538374
0.513113
0.488177
0.463565
0.43928
0.415318
0.39168
0.368361
0.345357
0.32266
0.300266
0.278166
0.256352
0.234813
0.213543
0.192531
0.171768
0.151246
0.130959
0.110907
0.0910953
0.0715437
0.0523051
0.033385
0.016249
-19.2762
-19.6623
-20.1101
-20.72
-21.4727
-22.3579
-23.3569
-24.4517
-25.6242
-26.8571
-28.1338
-29.4375
-30.7529
-32.0638
-33.3549
-34.6106
-35.8155
-36.9552
-38.0145
-38.98
-39.839
-40.5803
-41.1943
-41.6725
-42.0099
-42.2041
-42.2537
-42.1482
-41.8864
-41.4762
-40.9237
-40.2348
-39.4148
-38.4683
-37.3984
-36.2069
-34.894
-33.4588
-31.8992
-30.2118
-28.3937
-26.4484
-24.3852
-22.2161
-19.965
-17.6713
-15.3715
-13.1116
-10.9299
-8.85489
-6.91721
-5.1397
-3.53601
-2.11183
-0.866269
0.207808
1.12189
1.89006
2.52759
3.04982
3.47141
3.80601
4.06609
4.26289
4.40637
4.5053
4.56726
4.59877
4.60542
4.59191
4.56224
4.51977
4.46729
4.40716
4.34133
4.27141
4.19874
4.12441
4.04932
3.97419
3.89961
3.82605
3.75387
3.68335
3.6147
3.54808
3.48359
3.42128
3.36119
3.30333
3.24766
3.19415
3.14274
3.09337
3.04596
3.00043
2.95669
2.91464
2.87421
2.83528
2.79776
2.76155
2.72656
2.69269
2.65985
2.62794
2.59687
2.56654
2.53688
2.50779
2.47919
2.451
2.42313
2.3955
2.36805
2.34069
2.31336
2.28599
2.25852
2.23088
2.20303
2.17492
2.1465
2.11774
2.08862
2.0591
2.02918
1.99885
1.96811
1.93698
1.90548
1.87362
1.84144
1.80897
1.77626
1.74335
1.71028
1.6771
1.64385
1.61057
1.57731
1.54411
1.51099
1.478
1.44516
1.41249
1.38001
1.34774
1.31568
1.28385
1.25225
1.22087
1.18973
1.15881
1.12811
1.09764
1.06738
1.03734
1.00751
0.977892
0.948482
0.919283
0.890298
0.861532
0.83299
0.804679
0.776607
0.748785
0.721219
0.693922
0.666901
0.640167
0.613728
0.587593
0.561767
0.536259
0.51107
0.486206
0.461667
0.437454
0.413565
0.389999
0.366751
0.343817
0.32119
0.298865
0.276831
0.255083
0.23361
0.212404
0.191455
0.170757
0.150301
0.130084
0.110106
0.0903757
0.0709117
0.0517648
0.0329013
0.0158051
-19.8821
-20.2331
-20.6609
-21.2564
-21.994
-22.8642
-23.8484
-24.9287
-26.0876
-27.308
-28.5733
-29.8676
-31.1748
-32.4792
-33.7653
-35.0174
-36.2203
-37.3584
-38.4177
-39.3838
-40.244
-40.9872
-41.6035
-42.0846
-42.425
-42.6238
-42.677
-42.5736
-42.314
-41.9085
-41.3629
-40.683
-39.8746
-38.942
-37.8882
-36.7147
-35.4215
-34.007
-32.4682
-30.8001
-28.9965
-27.0605
-25.0021
-22.8328
-20.575
-18.2716
-15.9567
-13.6676
-11.4505
-9.3399
-7.3664
-5.55435
-3.91892
-2.46671
-1.19685
-0.10213
0.829272
1.61198
2.2619
2.79502
3.22661
3.5708
3.84041
4.04685
4.20016
4.30905
4.38106
4.42261
4.43918
4.4354
4.41519
4.38184
4.33811
4.28632
4.2284
4.16595
4.10032
4.0326
3.9637
3.89438
3.82522
3.75671
3.68925
3.62312
3.55857
3.49575
3.43481
3.3758
3.31879
3.26378
3.21078
3.15975
3.11065
3.06343
3.01802
2.97436
2.93236
2.89194
2.85302
2.8155
2.7793
2.74432
2.71048
2.67769
2.64585
2.61487
2.58468
2.55517
2.52628
2.4979
2.46997
2.4424
2.41511
2.38802
2.36106
2.33416
2.30726
2.28027
2.25315
2.22582
2.19825
2.17038
2.14217
2.11358
2.08459
2.05518
2.02534
1.99506
1.96435
1.93322
1.90169
1.86979
1.83756
1.80504
1.77226
1.73928
1.70614
1.6729
1.63959
1.60626
1.57296
1.53973
1.50661
1.47362
1.44079
1.40814
1.3757
1.34348
1.31148
1.27972
1.24819
1.2169
1.18584
1.15501
1.12441
1.09403
1.06387
1.03392
1.00418
0.974654
0.945332
0.91622
0.887319
0.858635
0.830173
0.801941
0.773947
0.746201
0.718711
0.691489
0.664543
0.637884
0.61152
0.585461
0.55971
0.534278
0.509164
0.484375
0.45991
0.435772
0.411955
0.388462
0.365284
0.34242
0.31986
0.297601
0.275631
0.253946
0.232534
0.211388
0.190498
0.169859
0.149463
0.129308
0.109396
0.0897333
0.0703416
0.0512642
0.0324341
0.0153667
-20.3794
-20.6938
-21.1008
-21.6821
-22.4049
-23.2613
-24.2325
-25.3008
-26.4489
-27.6599
-28.9174
-30.205
-31.507
-32.8077
-34.0911
-35.3418
-36.5441
-37.6829
-38.7433
-39.7114
-40.5742
-41.3205
-41.9406
-42.426
-42.7716
-42.9757
-43.0347
-42.9359
-42.6812
-42.2825
-41.7455
-41.0763
-40.2806
-39.3628
-38.3252
-37.1694
-35.8952
-34.4999
-32.9801
-31.3295
-29.5396
-27.6136
-25.5633
-23.4013
-21.1445
-18.8297
-16.5002
-14.1917
-11.9487
-9.81029
-7.80915
-5.97033
-4.30986
-2.83483
-1.54447
-0.431516
0.516015
1.31305
1.97586
2.52086
2.9637
3.31886
3.59937
3.81674
3.98105
4.101
4.18402
4.23648
4.26375
4.27041
4.26029
4.23663
4.20217
4.15919
4.10962
4.05505
3.99682
3.93606
3.87369
3.81046
3.747
3.68381
3.6213
3.5598
3.49955
3.44075
3.38354
3.32802
3.27424
3.22225
3.17206
3.12364
3.07698
3.03203
2.98875
2.94705
2.90689
2.86819
2.83087
2.79484
2.76003
2.72636
2.69373
2.66207
2.63129
2.60131
2.57204
2.5434
2.51531
2.48769
2.46046
2.43355
2.40687
2.38035
2.35392
2.3275
2.30104
2.27446
2.2477
2.2207
2.19342
2.1658
2.1378
2.10939
2.08055
2.05125
2.02148
1.99125
1.96055
1.92942
1.89787
1.86592
1.83364
1.80104
1.7682
1.73514
1.70193
1.66861
1.63524
1.60186
1.56852
1.53527
1.50213
1.46914
1.43632
1.40371
1.37131
1.33914
1.30721
1.27553
1.24408
1.21288
1.18192
1.15119
1.12069
1.09041
1.06035
1.03051
1.00087
0.97144
0.942216
0.913199
0.884391
0.855798
0.827425
0.799281
0.771372
0.74371
0.716303
0.689163
0.662299
0.635722
0.609438
0.583459
0.557788
0.532434
0.507398
0.482686
0.458297
0.434233
0.41049
0.387068
0.363959
0.341162
0.318668
0.296472
0.274563
0.252936
0.231581
0.210491
0.189655
0.169069
0.148727
0.128625
0.108769
0.0891634
0.0698278
0.0508039
0.0319894
0.0149493
-20.751
-21.0292
-21.4166
-21.9838
-22.6934
-23.5381
-24.4988
-25.5581
-26.6987
-27.9037
-29.1564
-30.4408
-31.7407
-33.0402
-34.3236
-35.575
-36.7788
-37.9197
-38.9829
-39.9544
-40.8213
-41.5722
-42.1975
-42.6889
-43.0409
-43.2527
-43.3189
-43.227
-42.9797
-42.5898
-42.0632
-41.4058
-40.6236
-39.7208
-38.6991
-37.56
-36.3033
-34.9257
-33.4234
-31.7914
-30.0205
-28.1086
-26.0668
-23.91
-21.6565
-19.3363
-16.9932
-14.6688
-12.4077
-10.2504
-8.23052
-6.37371
-4.69618
-3.20509
-1.89957
-0.772278
0.188861
0.998878
1.67418
2.23133
2.68615
3.05322
3.34567
3.57504
3.75136
3.88327
3.97814
4.04224
4.08088
4.09855
4.09904
4.08555
4.06077
4.02698
3.98609
3.93972
3.8892
3.83567
3.78006
3.72317
3.66563
3.60796
3.55061
3.49391
3.43815
3.38352
3.3302
3.2783
3.22791
3.17906
3.1318
3.08611
3.042
2.99942
2.95834
2.91871
2.88047
2.84356
2.80791
2.77345
2.7401
2.70778
2.67643
2.64595
2.61628
2.58733
2.55903
2.5313
2.50405
2.47722
2.45073
2.4245
2.39846
2.37253
2.34665
2.32074
2.29474
2.26857
2.2422
2.21554
2.18856
2.1612
2.13343
2.1052
2.07651
2.04731
2.01762
1.98743
1.95676
1.92561
1.89403
1.86203
1.82968
1.79701
1.76408
1.73094
1.69765
1.66426
1.63082
1.59739
1.56401
1.53073
1.49758
1.46459
1.4318
1.39922
1.36687
1.33476
1.3029
1.27129
1.23994
1.20883
1.17797
1.14735
1.11696
1.0868
1.05685
1.02711
0.997586
0.968264
0.939145
0.910231
0.881525
0.853031
0.824755
0.796705
0.768889
0.741319
0.714002
0.686951
0.660173
0.633682
0.607484
0.581588
0.555999
0.530727
0.50577
0.481136
0.456822
0.432833
0.409161
0.385808
0.362766
0.340034
0.317601
0.295464
0.273612
0.25204
0.230737
0.209697
0.18891
0.168371
0.148076
0.12802
0.108211
0.088651
0.0693609
0.0503766
0.0315699
0.0145586
-20.9895
-21.2329
-21.6019
-22.1561
-22.8546
-23.6902
-24.6434
-25.6971
-26.8337
-28.0361
-29.2876
-30.5719
-31.8726
-33.1737
-34.4593
-35.7135
-36.9205
-38.0652
-39.1328
-40.1091
-40.9813
-41.7381
-42.37
-42.8687
-43.2288
-43.4492
-43.524
-43.4407
-43.2033
-42.8241
-42.3094
-41.6651
-40.8974
-40.0111
-39.0079
-37.8879
-36.6503
-35.2918
-33.8076
-32.1927
-30.4405
-28.5441
-26.5111
-24.3563
-22.1005
-19.7756
-17.4239
-15.0895
-12.8178
-10.65
-8.62031
-6.75425
-5.0678
-3.5678
-2.25308
-1.1161
-0.144698
0.676132
1.36274
1.9316
2.39848
2.7779
3.0829
3.32493
3.51394
3.65847
3.76578
3.84206
3.89254
3.92163
3.9331
3.93009
3.91529
3.89095
3.85899
3.82103
3.77842
3.73231
3.68366
3.63326
3.5818
3.52982
3.47777
3.42602
3.37486
3.32454
3.27523
3.22706
3.18015
3.13455
3.09031
3.04745
3.00596
2.96584
2.92705
2.88955
2.8533
2.81824
2.78432
2.75147
2.71963
2.68872
2.65868
2.62944
2.60091
2.57304
2.54574
2.51894
2.49257
2.46656
2.44082
2.4153
2.38992
2.3646
2.33929
2.3139
2.28838
2.26265
2.23667
2.21037
2.1837
2.1566
2.12906
2.10102
2.07247
2.04339
2.01378
1.98363
1.95296
1.9218
1.89018
1.85813
1.8257
1.79295
1.75994
1.72671
1.69333
1.65986
1.62636
1.59287
1.55945
1.52614
1.49298
1.46
1.42723
1.39468
1.36239
1.33034
1.29856
1.26705
1.23579
1.20479
1.17404
1.14353
1.11326
1.08321
1.05338
1.02376
0.994353
0.965147
0.936141
0.907339
0.878742
0.850355
0.822182
0.794235
0.766518
0.739046
0.711824
0.684867
0.658182
0.631781
0.60567
0.579861
0.554356
0.529166
0.504289
0.479733
0.455493
0.431576
0.407973
0.384688
0.361709
0.339039
0.316664
0.294582
0.272782
0.25126
0.230004
0.209009
0.188264
0.167767
0.147511
0.127495
0.107723
0.0882002
0.0689428
0.049988
0.0311792
0.0141949
-21.0953
-21.3057
-21.6584
-22.2009
-22.8907
-23.7199
-24.6689
-25.7202
-26.8562
-28.0595
-29.3131
-30.6002
-31.9045
-33.2096
-34.4996
-35.7584
-36.9704
-38.1204
-39.1935
-40.1759
-41.0548
-41.819
-42.4589
-42.9665
-43.3364
-43.5677
-43.6525
-43.5802
-43.3555
-42.9901
-42.4901
-41.8617
-41.1107
-40.2423
-39.2592
-38.1601
-36.9432
-35.6047
-34.1388
-32.5387
-30.7978
-28.9108
-26.8834
-24.7294
-22.4715
-20.1434
-17.7873
-15.4488
-13.1737
-11.0036
-8.97248
-7.10549
-5.41791
-3.91593
-2.59789
-1.45595
-0.477894
0.351181
1.04741
1.62702
2.10553
2.49723
2.81493
3.06991
3.27195
3.42942
3.5495
3.63824
3.70081
3.74156
3.7642
3.77185
3.76717
3.75243
3.72953
3.70009
3.66551
3.62692
3.58533
3.54154
3.49625
3.45004
3.40339
3.35667
3.31021
3.26427
3.21905
3.1747
3.13135
3.08907
3.04793
3.00795
2.96916
2.93154
2.8951
2.85978
2.82557
2.79242
2.76027
2.72908
2.69879
2.66932
2.64063
2.61264
2.5853
2.55852
2.53225
2.50641
2.48094
2.45576
2.43081
2.40601
2.38131
2.35662
2.33189
2.30704
2.28201
2.25673
2.23115
2.20521
2.17885
2.15204
2.12472
2.09688
2.06848
2.03951
2.00997
1.97986
1.9492
1.91802
1.88636
1.85424
1.82175
1.78891
1.7558
1.72248
1.68902
1.65546
1.62189
1.58834
1.55488
1.52154
1.48837
1.4554
1.42265
1.39015
1.35791
1.32594
1.29424
1.26281
1.23166
1.20077
1.17013
1.13975
1.10959
1.07967
1.04997
1.02048
0.99119
0.962106
0.933221
0.904537
0.876055
0.847781
0.819719
0.791879
0.764268
0.736899
0.709777
0.682918
0.656328
0.63002
0.603999
0.578278
0.552857
0.527749
0.502951
0.478471
0.454304
0.430457
0.406921
0.383699
0.36078
0.338167
0.315845
0.293814
0.272061
0.250584
0.229369
0.208414
0.187706
0.167244
0.147022
0.127036
0.107295
0.0877985
0.0685663
0.0496304
0.0308162
0.0138534
-21.075
-21.2548
-21.5935
-22.1256
-22.8093
-23.635
-24.5827
-25.6349
-26.7737
-27.9811
-29.2397
-30.5327
-31.8431
-33.1547
-34.4511
-35.7164
-36.935
-38.0917
-39.172
-40.1618
-41.0488
-41.8216
-42.4711
-42.9891
-43.3707
-43.6144
-43.7105
-43.6507
-43.4416
-43.0928
-42.6105
-42.0007
-41.269
-40.42
-39.4563
-38.377
-37.1795
-35.859
-34.4086
-32.8206
-31.0877
-29.2062
-27.181
-25.0265
-22.7671
-20.4376
-18.0812
-15.7443
-13.4729
-11.3083
-9.28388
-7.4238
-5.74233
-4.2448
-2.92891
-1.78649
-0.805295
0.0293812
0.733349
1.32244
1.81179
2.2153
2.54547
2.81332
3.02837
3.19884
3.33172
3.43299
3.50769
3.56013
3.59396
3.61229
3.61777
3.61263
3.59881
3.57794
3.5514
3.52037
3.48586
3.44872
3.40965
3.36925
3.32803
3.2864
3.24469
3.20318
3.1621
3.12161
3.08187
3.04295
3.00495
2.9679
2.93185
2.89678
2.86271
2.82962
2.79748
2.76626
2.73593
2.70642
2.6777
2.6497
2.62238
2.59568
2.56953
2.54387
2.51865
2.49378
2.46922
2.4449
2.42074
2.39669
2.37267
2.34863
2.32448
2.30018
2.27565
2.25083
2.22566
2.20008
2.17405
2.14752
2.12044
2.09279
2.06454
2.03568
2.00622
1.97614
1.9455
1.91429
1.88258
1.8504
1.81782
1.78489
1.75168
1.71827
1.68471
1.65107
1.61743
1.58382
1.55031
1.51695
1.48377
1.45081
1.41809
1.38563
1.35345
1.32156
1.28995
1.25862
1.22757
1.1968
1.16629
1.13602
1.106
1.07621
1.04664
1.01728
0.98812
0.959164
0.930405
0.901845
0.873484
0.845329
0.817382
0.789656
0.762154
0.734891
0.707873
0.681115
0.654622
0.628409
0.602478
0.576845
0.551509
0.526482
0.501761
0.477355
0.453258
0.429479
0.406005
0.382843
0.35998
0.33742
0.315147
0.293162
0.271452
0.250015
0.228836
0.207915
0.187238
0.166806
0.14661
0.126649
0.10693
0.0874532
0.0682352
0.0493111
0.030483
0.0135316
-20.9394
-21.0913
-21.4178
-21.9409
-22.6205
-23.4451
-24.3946
-25.4509
-26.5954
-27.8101
-29.0768
-30.3782
-31.6974
-33.0175
-34.3223
-35.5958
-36.8223
-37.9871
-39.0752
-40.0736
-40.9694
-41.7519
-42.4118
-42.9413
-43.3355
-43.5928
-43.7009
-43.6543
-43.4623
-43.1321
-42.6693
-42.0797
-41.3687
-40.5404
-39.5968
-38.5369
-37.3575
-36.0528
-34.6151
-33.0358
-31.3078
-29.4282
-27.4026
-25.2465
-22.986
-20.6577
-18.3053
-15.9758
-13.7151
-11.5636
-9.55353
-7.70761
-6.03887
-4.55156
-3.2427
-2.10382
-1.12271
-0.284942
0.424859
1.02202
1.52117
1.93576
2.27789
2.55821
2.786
2.96922
3.11473
3.22833
3.31502
3.37901
3.42392
3.45282
3.46834
3.47273
3.46791
3.45552
3.43698
3.41347
3.38602
3.35549
3.32263
3.28804
3.25226
3.21571
3.17876
3.14169
3.10476
3.06816
3.03204
2.9965
2.96166
2.92757
2.89427
2.86177
2.83011
2.79925
2.76921
2.73994
2.71143
2.68362
2.65649
2.62998
2.60405
2.57864
2.5537
2.52917
2.505
2.48113
2.45749
2.43402
2.41068
2.38737
2.36405
2.34065
2.31711
2.29336
2.26934
2.24497
2.22023
2.19502
2.16932
2.14307
2.11624
2.08878
2.06069
2.03194
2.00255
1.97252
1.94187
1.91064
1.87888
1.84663
1.81396
1.78093
1.74763
1.71411
1.68046
1.64674
1.61302
1.57935
1.5458
1.51241
1.47923
1.44628
1.41359
1.38118
1.34906
1.31724
1.28573
1.2545
1.22357
1.19291
1.16252
1.13239
1.1025
1.07284
1.0434
1.01418
0.985155
0.956331
0.927703
0.899272
0.871036
0.843003
0.815176
0.787566
0.760177
0.733023
0.706111
0.679455
0.65306
0.626942
0.601103
0.575557
0.550303
0.525356
0.50071
0.476376
0.452346
0.42863
0.405215
0.38211
0.359298
0.336786
0.314557
0.292614
0.27094
0.249538
0.228391
0.207498
0.186847
0.166437
0.146263
0.12632
0.106617
0.0871505
0.0679413
0.0490194
0.0301757
0.0132216
-20.7018
-20.8278
-21.1442
-21.6589
-22.3371
-23.1634
-24.1175
-25.1809
-26.3343
-27.5591
-28.8365
-30.149
-31.4786
-32.809
-34.1235
-35.4062
-36.6416
-37.8147
-38.9117
-39.9188
-40.8238
-41.6163
-42.2869
-42.8281
-43.2354
-43.5069
-43.6273
-43.5948
-43.421
-43.1105
-42.6684
-42.1002
-41.4108
-40.6038
-39.6805
-38.6396
-37.4768
-36.1856
-34.7575
-33.1835
-31.4568
-29.5759
-27.5476
-25.3892
-23.1289
-20.8045
-18.4608
-16.1449
-13.9018
-11.7706
-9.78197
-7.95685
-6.30674
-4.83474
-3.53718
-2.40536
-1.42718
-0.588615
0.125193
0.728983
1.2368
1.66156
2.0149
2.30709
2.54709
2.74263
2.90037
3.02598
3.12434
3.19961
3.25534
3.29458
3.31995
3.33368
3.33771
3.33367
3.32301
3.30691
3.28643
3.26245
3.23574
3.20691
3.17653
3.14503
3.11281
3.08018
3.04739
3.01466
2.98216
2.95001
2.91833
2.88719
2.85664
2.82673
2.79747
2.76886
2.74092
2.71361
2.68692
2.66082
2.63529
2.61026
2.58573
2.56161
2.53789
2.5145
2.49139
2.4685
2.44579
2.42319
2.40065
2.3781
2.35548
2.33273
2.3098
2.2866
2.26309
2.23919
2.21487
2.19004
2.16468
2.13871
2.11212
2.08486
2.05693
2.0283
1.99898
1.96898
1.93834
1.90708
1.87526
1.84294
1.81018
1.77706
1.74365
1.71003
1.67628
1.64247
1.60867
1.57495
1.54136
1.50794
1.47475
1.44182
1.40916
1.3768
1.34475
1.31302
1.28159
1.25047
1.21965
1.18912
1.15886
1.12886
1.0991
1.06958
1.04028
1.0112
0.982311
0.953624
0.92513
0.89683
0.868723
0.840816
0.81311
0.785619
0.758344
0.731302
0.704497
0.677944
0.651647
0.625624
0.599874
0.574415
0.549242
0.524372
0.499798
0.475533
0.451567
0.427911
0.404552
0.381498
0.358733
0.336265
0.314076
0.292169
0.270528
0.249156
0.228035
0.207166
0.186536
0.166145
0.145985
0.126055
0.106361
0.0868993
0.0676894
0.0487639
0.0298964
0.0129229
-20.3784
-20.4799
-20.7872
-21.2954
-21.9734
-22.8039
-23.7656
-24.839
-26.0043
-27.2417
-28.5323
-29.8573
-31.1994
-32.5411
-33.8661
-35.1586
-36.403
-37.585
-38.6902
-39.7059
-40.62
-41.4221
-42.1033
-42.656
-43.0763
-43.3609
-43.4951
-43.4781
-43.3227
-43.0325
-42.6119
-42.0656
-41.3983
-40.6126
-39.7093
-38.6861
-37.538
-36.2575
-34.8354
-33.2629
-31.5341
-29.6489
-27.6163
-25.4556
-23.1972
-20.8805
-18.5506
-16.2544
-14.0357
-11.9317
-9.97101
-8.17255
-6.54616
-5.09377
-3.8111
-2.6893
-1.71652
-0.879181
-0.163059
0.445937
0.961216
1.39512
1.7588
2.06209
2.31363
2.52088
2.6903
2.82743
2.93702
3.02316
3.08936
3.13861
3.17354
3.19636
3.20901
3.21313
3.21017
3.20133
3.1877
3.17015
3.14948
3.12633