/*--------------------------------*- C++ -*----------------------------------*\
  =========                 |
  \\      /  F ield         | OpenFOAM: The Open Source CFD Toolbox
   \\    /   O peration     | Website:  https://openfoam.org
    \\  /    A nd           | Version:  7
     \\/     M anipulation  |
\*---------------------------------------------------------------------------*/
FoamFile
{
    version     2.0;
    format      ascii;
    class       surfaceScalarField;
    location    "100";
    object      phi;
}
// * * * * * * * * * * * * * * * * * * * * * * * * * * * * * * * * * * * * * //

dimensions      [0 3 -1 0 0 0 0];

internalField   nonuniform List<scalar> 
33502
(
-2.92901e-07
2.92893e-07
-7.5643e-07
4.63486e-07
-1.25692e-06
5.00591e-07
-1.76323e-06
5.06335e-07
-2.26713e-06
5.04035e-07
-2.76328e-06
4.96224e-07
-3.24723e-06
4.84076e-07
-3.71562e-06
4.68475e-07
-4.16581e-06
4.50285e-07
-4.59591e-06
4.30181e-07
-5.00461e-06
4.08748e-07
-5.39101e-06
3.8645e-07
-5.7546e-06
3.63607e-07
-6.09511e-06
3.40481e-07
-6.41233e-06
3.17228e-07
-6.70638e-06
2.93974e-07
-6.97685e-06
2.70815e-07
-7.22454e-06
2.47624e-07
-7.44868e-06
2.24716e-07
-7.65043e-06
2.0174e-07
-7.82888e-06
1.79058e-07
-7.98525e-06
1.56356e-07
-8.1187e-06
1.34024e-07
-8.23032e-06
1.11735e-07
-8.31974e-06
8.97935e-08
-8.38742e-06
6.81255e-08
-8.43379e-06
4.66422e-08
-8.45902e-06
2.54142e-08
-8.46319e-06
4.31001e-09
-8.44638e-06
-1.67012e-08
-8.40879e-06
-3.7502e-08
-8.35063e-06
-5.80938e-08
-8.27204e-06
-7.85431e-08
-8.17305e-06
-9.89745e-08
-8.05352e-06
-1.19529e-07
-7.9132e-06
-1.40352e-07
-7.75167e-06
-1.61572e-07
-7.56847e-06
-1.83276e-07
-7.36305e-06
-2.05494e-07
-7.13497e-06
-2.28164e-07
-6.88391e-06
-2.51138e-07
-6.60982e-06
-2.74144e-07
-6.31304e-06
-2.96814e-07
-5.99437e-06
-3.18672e-07
-5.65516e-06
-3.39174e-07
-5.29736e-06
-3.57738e-07
-4.92346e-06
-3.73799e-07
-4.53651e-06
-3.86856e-07
-4.13989e-06
-3.96523e-07
-3.73728e-06
-4.0256e-07
-3.33237e-06
-4.04888e-07
-2.92882e-06
-4.03586e-07
-2.52996e-06
-3.98878e-07
-2.13876e-06
-3.91223e-07
-1.75758e-06
-3.8121e-07
-1.38828e-06
-3.69434e-07
-1.03188e-06
-3.56643e-07
-6.88629e-07
-3.43608e-07
-3.54884e-07
-3.33919e-07
-3.02536e-08
-3.24764e-07
2.79308e-07
-3.09595e-07
5.68376e-07
-2.89186e-07
8.35236e-07
-2.66946e-07
1.08123e-06
-2.46037e-07
1.30812e-06
-2.26844e-07
1.5175e-06
-2.09266e-07
1.71082e-06
-1.93173e-07
1.88939e-06
-1.784e-07
2.05441e-06
-1.64844e-07
2.20695e-06
-1.52381e-07
2.34804e-06
-1.40933e-07
2.47858e-06
-1.30404e-07
2.59943e-06
-1.20731e-07
2.71138e-06
-1.11832e-07
2.81513e-06
-1.03653e-07
2.91134e-06
-9.61264e-08
3.00062e-06
-8.92041e-08
3.08351e-06
-8.2829e-08
3.16052e-06
-7.69604e-08
3.23212e-06
-7.15508e-08
3.29872e-06
-6.65658e-08
3.36072e-06
-6.19663e-08
3.41846e-06
-5.77233e-08
3.47229e-06
-5.38052e-08
3.52249e-06
-5.01875e-08
3.56934e-06
-4.68449e-08
3.61311e-06
-4.37569e-08
3.65401e-06
-4.09031e-08
3.69228e-06
-3.82664e-08
3.72811e-06
-3.58304e-08
3.76169e-06
-3.35807e-08
3.79319e-06
-3.15042e-08
3.82277e-06
-2.95889e-08
3.85059e-06
-2.78241e-08
3.87678e-06
-2.61996e-08
3.90147e-06
-2.4707e-08
3.9248e-06
-2.33373e-08
3.94688e-06
-2.20838e-08
3.9678e-06
-2.0939e-08
3.98769e-06
-1.98971e-08
4.00663e-06
-1.89516e-08
4.02472e-06
-1.80978e-08
4.04203e-06
-1.733e-08
4.05867e-06
-1.6644e-08
4.07469e-06
-1.60349e-08
4.09018e-06
-1.54989e-08
4.1052e-06
-1.50314e-08
4.11982e-06
-1.46291e-08
4.13409e-06
-1.42875e-08
4.14808e-06
-1.40034e-08
4.16185e-06
-1.37726e-08
4.17543e-06
-1.35917e-08
4.18887e-06
-1.34566e-08
4.20223e-06
-1.33637e-08
4.21553e-06
-1.3309e-08
4.22881e-06
-1.32885e-08
4.2421e-06
-1.32982e-08
4.25542e-06
-1.33339e-08
4.26881e-06
-1.33913e-08
4.28227e-06
-1.34664e-08
4.29581e-06
-1.35548e-08
4.30946e-06
-1.36522e-08
4.32321e-06
-1.37546e-08
4.33706e-06
-1.38578e-08
4.35101e-06
-1.39581e-08
4.36506e-06
-1.40518e-08
4.37919e-06
-1.41356e-08
4.39339e-06
-1.42066e-08
4.40764e-06
-1.42622e-08
4.42194e-06
-1.43003e-08
4.43625e-06
-1.43192e-08
4.45057e-06
-1.43178e-08
4.46486e-06
-1.42953e-08
4.4791e-06
-1.42518e-08
4.49329e-06
-1.41872e-08
4.50738e-06
-1.41025e-08
4.52138e-06
-1.39984e-08
4.53525e-06
-1.38766e-08
4.54899e-06
-1.37383e-08
4.56257e-06
-1.35856e-08
4.57598e-06
-1.342e-08
4.58922e-06
-1.32439e-08
4.60228e-06
-1.30586e-08
4.61514e-06
-1.28663e-08
4.6278e-06
-1.2668e-08
4.64027e-06
-1.24659e-08
4.65252e-06
-1.22604e-08
4.66457e-06
-1.20532e-08
4.67641e-06
-1.18443e-08
4.68805e-06
-1.16347e-08
4.69947e-06
-1.1424e-08
4.71068e-06
-1.12128e-08
4.72167e-06
-1.1e-08
4.73245e-06
-1.07861e-08
4.74302e-06
-1.05697e-08
4.75337e-06
-1.03508e-08
4.76349e-06
-1.0128e-08
4.77339e-06
-9.90128e-09
4.78306e-06
-9.66909e-09
4.79249e-06
-9.43174e-09
4.80167e-06
-9.18769e-09
4.81061e-06
-8.93756e-09
4.81928e-06
-8.68007e-09
4.8277e-06
-8.41622e-09
4.83584e-06
-8.14505e-09
4.84371e-06
-7.868e-09
4.85129e-06
-7.58441e-09
4.85858e-06
-7.29613e-09
4.86558e-06
-7.0028e-09
4.87229e-06
-6.70662e-09
4.87869e-06
-6.4074e-09
4.8848e-06
-6.10758e-09
4.89061e-06
-5.80708e-09
4.89611e-06
-5.50847e-09
4.90133e-06
-5.21161e-09
4.90624e-06
-4.91914e-09
4.91087e-06
-4.63073e-09
4.91522e-06
-4.34901e-09
4.9193e-06
-4.07341e-09
4.9231e-06
-3.80644e-09
4.92665e-06
-3.54726e-09
4.92995e-06
-3.29827e-09
4.93301e-06
-3.05829e-09
4.93584e-06
-2.82963e-09
4.93845e-06
-2.61079e-09
4.94086e-06
-2.40403e-09
4.94306e-06
-2.20758e-09
4.94509e-06
-2.02373e-09
4.94694e-06
-1.85053e-09
4.94863e-06
-1.69047e-09
4.95018e-06
-1.54165e-09
4.95158e-06
-1.40711e-09
4.95287e-06
-1.28558e-09
4.95405e-06
-1.18164e-09
4.95515e-06
-1.09661e-09
4.95619e-06
-1.04001e-09
4.95721e-06
-1.02339e-09
4.95828e-06
-1.07713e-09
4.95952e-06
-1.25748e-09
-1.79258e-09
-4.40943e-07
7.3393e-07
-8.98585e-07
9.21202e-07
-1.375e-06
9.77066e-07
-1.85956e-06
9.91117e-07
-2.34254e-06
9.87165e-07
-2.8172e-06
9.71089e-07
-3.27886e-06
9.45897e-07
-3.7241e-06
9.13872e-07
-4.15051e-06
8.76821e-07
-4.55645e-06
8.36227e-07
-4.94087e-06
7.93247e-07
-5.30314e-06
7.48747e-07
-5.64289e-06
7.03405e-07
-5.96005e-06
6.57633e-07
-6.2545e-06
6.11755e-07
-6.52638e-06
5.65895e-07
-6.77559e-06
5.20193e-07
-7.00236e-06
4.74685e-07
-7.20671e-06
4.29334e-07
-7.3889e-06
3.84165e-07
-7.54882e-06
3.39242e-07
-7.68677e-06
2.94549e-07
-7.80273e-06
2.50192e-07
-7.89698e-06
2.06207e-07
-7.96957e-06
1.62698e-07
-8.02087e-06
1.19578e-07
-8.05104e-06
7.7013e-08
-8.06038e-06
3.49e-08
-8.04918e-06
-6.78608e-09
-8.01782e-06
-4.79721e-08
-7.96669e-06
-8.85727e-08
-7.89602e-06
-1.28703e-07
-7.80598e-06
-1.68553e-07
-7.69658e-06
-2.08367e-07
-7.56769e-06
-2.4843e-07
-7.41905e-06
-2.89026e-07
-7.25027e-06
-3.30405e-07
-7.06086e-06
-3.72748e-07
-6.85032e-06
-4.16113e-07
-6.61816e-06
-4.60404e-07
-6.36404e-06
-5.05319e-07
-6.0879e-06
-5.50346e-07
-5.79e-06
-5.94748e-07
-5.47109e-06
-6.3759e-07
-5.13247e-06
-6.77776e-07
-4.77601e-06
-7.14152e-07
-4.40416e-06
-7.45582e-07
-4.01989e-06
-7.71058e-07
-3.62653e-06
-7.89809e-07
-3.2277e-06
-8.01358e-07
-2.827e-06
-8.05568e-07
-2.42797e-06
-8.02636e-07
-2.03377e-06
-7.93097e-07
-1.64708e-06
-7.77926e-07
-1.26999e-06
-7.58305e-07
-9.04082e-07
-7.35429e-07
-5.49887e-07
-7.10946e-07
-2.05129e-07
-6.88493e-07
1.25206e-07
-6.64312e-07
4.32422e-07
-6.3203e-07
7.16574e-07
-5.9377e-07
9.80864e-07
-5.53545e-07
1.228e-06
-5.14124e-07
1.45867e-06
-4.7675e-07
1.67362e-06
-4.41776e-07
1.87365e-06
-4.09261e-07
2.05966e-06
-3.79108e-07
2.23255e-06
-3.51216e-07
2.39324e-06
-3.25438e-07
2.54259e-06
-3.01652e-07
2.68146e-06
-2.79715e-07
2.81064e-06
-2.59506e-07
2.93087e-06
-2.40889e-07
3.04286e-06
-2.23751e-07
3.14724e-06
-2.07971e-07
3.2446e-06
-1.93444e-07
3.33552e-06
-1.80066e-07
3.42047e-06
-1.67745e-07
3.49994e-06
-1.56391e-07
3.57434e-06
-1.45926e-07
3.64407e-06
-1.36275e-07
3.70949e-06
-1.2737e-07
3.77094e-06
-1.19151e-07
3.82871e-06
-1.11563e-07
3.88308e-06
-1.04553e-07
3.93432e-06
-9.80779e-08
3.98266e-06
-9.20943e-08
4.02832e-06
-8.65652e-08
4.07151e-06
-8.14565e-08
4.11241e-06
-7.67372e-08
4.15121e-06
-7.23794e-08
4.18805e-06
-6.83575e-08
4.22311e-06
-6.46487e-08
4.25651e-06
-6.12315e-08
4.28839e-06
-5.80873e-08
4.31887e-06
-5.51982e-08
4.34807e-06
-5.25485e-08
4.3761e-06
-5.01233e-08
4.40306e-06
-4.79095e-08
4.42905e-06
-4.58945e-08
4.45415e-06
-4.4067e-08
4.47846e-06
-4.24162e-08
4.50205e-06
-4.09325e-08
4.525e-06
-3.96064e-08
4.54738e-06
-3.84293e-08
4.56927e-06
-3.73926e-08
4.59071e-06
-3.64887e-08
4.61178e-06
-3.57097e-08
4.63253e-06
-3.50482e-08
4.65302e-06
-3.44966e-08
4.67328e-06
-3.40479e-08
4.69338e-06
-3.36946e-08
4.71334e-06
-3.34295e-08
4.73321e-06
-3.3245e-08
4.75303e-06
-3.31336e-08
4.77282e-06
-3.30877e-08
4.79261e-06
-3.30994e-08
4.81243e-06
-3.31608e-08
4.8323e-06
-3.32638e-08
4.85222e-06
-3.34002e-08
4.87222e-06
-3.35619e-08
4.89231e-06
-3.37408e-08
4.91248e-06
-3.3929e-08
4.93273e-06
-3.41188e-08
4.95307e-06
-3.43027e-08
4.97349e-06
-3.44738e-08
4.99398e-06
-3.4626e-08
5.01452e-06
-3.47533e-08
5.0351e-06
-3.4851e-08
5.05571e-06
-3.49148e-08
5.07633e-06
-3.49417e-08
5.09694e-06
-3.49292e-08
5.11752e-06
-3.4876e-08
5.13805e-06
-3.47815e-08
5.1585e-06
-3.46462e-08
5.17887e-06
-3.44711e-08
5.19913e-06
-3.4258e-08
5.21926e-06
-3.40093e-08
5.23924e-06
-3.37277e-08
5.25907e-06
-3.34165e-08
5.27873e-06
-3.30789e-08
5.2982e-06
-3.27182e-08
5.31748e-06
-3.23378e-08
5.33655e-06
-3.19407e-08
5.35541e-06
-3.15298e-08
5.37405e-06
-3.11074e-08
5.39246e-06
-3.06758e-08
5.41064e-06
-3.02364e-08
5.42858e-06
-2.97903e-08
5.44628e-06
-2.93381e-08
5.46374e-06
-2.88801e-08
5.48094e-06
-2.84158e-08
5.49788e-06
-2.79448e-08
5.51455e-06
-2.74657e-08
5.53096e-06
-2.69777e-08
5.54708e-06
-2.64789e-08
5.56292e-06
-2.59683e-08
5.57846e-06
-2.54439e-08
5.59369e-06
-2.49046e-08
5.60861e-06
-2.4349e-08
5.62319e-06
-2.3776e-08
5.63743e-06
-2.31849e-08
5.65133e-06
-2.25753e-08
5.66486e-06
-2.19469e-08
5.67801e-06
-2.13004e-08
5.69077e-06
-2.06362e-08
5.70314e-06
-1.99557e-08
5.7151e-06
-1.92601e-08
5.72665e-06
-1.85516e-08
5.73777e-06
-1.78321e-08
5.74847e-06
-1.71041e-08
5.75873e-06
-1.63702e-08
5.76855e-06
-1.56332e-08
5.77794e-06
-1.48958e-08
5.78689e-06
-1.4161e-08
5.7954e-06
-1.34315e-08
5.80348e-06
-1.27103e-08
5.81113e-06
-1.19998e-08
5.81836e-06
-1.13027e-08
5.82517e-06
-1.0621e-08
5.83158e-06
-9.95718e-09
5.83759e-06
-9.31282e-09
5.84322e-06
-8.68977e-09
5.84848e-06
-8.08929e-09
5.85339e-06
-7.51276e-09
5.85794e-06
-6.96103e-09
5.86217e-06
-6.43512e-09
5.86608e-06
-5.93558e-09
5.8697e-06
-5.46326e-09
5.87303e-06
-5.01873e-09
5.87609e-06
-4.60301e-09
5.8789e-06
-4.21732e-09
5.88148e-06
-3.86385e-09
5.88384e-06
-3.54627e-09
5.88602e-06
-3.271e-09
5.88803e-06
-3.05017e-09
5.88991e-06
-2.90636e-09
5.89172e-06
-2.88733e-09
5.89354e-06
-3.09028e-09
-3.90592e-09
-4.60495e-07
1.19453e-06
-9.08583e-07
1.36948e-06
-1.35752e-06
1.42636e-06
-1.80623e-06
1.43998e-06
-2.24889e-06
1.43013e-06
-2.68105e-06
1.40349e-06
-3.09935e-06
1.3644e-06
-3.50144e-06
1.31612e-06
-3.88575e-06
1.26127e-06
-4.25131e-06
1.20189e-06
-4.59757e-06
1.13955e-06
-4.9242e-06
1.07545e-06
-5.23111e-06
1.01033e-06
-5.51822e-06
9.44777e-07
-5.78551e-06
8.79071e-07
-6.03292e-06
8.13403e-07
-6.26034e-06
7.47846e-07
-6.46783e-06
6.82317e-07
-6.65521e-06
6.16949e-07
-6.82248e-06
5.51642e-07
-6.96951e-06
4.86482e-07
-7.09628e-06
4.21494e-07
-7.20272e-06
3.56824e-07
-7.28888e-06
2.92531e-07
-7.35485e-06
2.28725e-07
-7.40065e-06
1.65608e-07
-7.4266e-06
1.03055e-07
-7.43287e-06
4.12566e-08
-7.41978e-06
-1.97958e-08
-7.38767e-06
-8.002e-08
-7.33683e-06
-1.39357e-07
-7.26752e-06
-1.97981e-07
-7.17987e-06
-2.56184e-07
-7.07388e-06
-3.14348e-07
-6.94942e-06
-3.72905e-07
-6.80619e-06
-4.3229e-07
-6.64375e-06
-4.92896e-07
-6.46155e-06
-5.55005e-07
-6.25899e-06
-6.18737e-07
-6.0355e-06
-6.83967e-07
-5.79061e-06
-7.50271e-07
-5.52411e-06
-8.1689e-07
-5.23616e-06
-8.82726e-07
-4.92739e-06
-9.46366e-07
-4.59901e-06
-1.00614e-06
-4.25285e-06
-1.06027e-06
-3.89135e-06
-1.10702e-06
-3.51753e-06
-1.14481e-06
-3.1348e-06
-1.17248e-06
-2.74682e-06
-1.1893e-06
-2.35724e-06
-1.19512e-06
-1.96961e-06
-1.19028e-06
-1.58709e-06
-1.17562e-06
-1.21228e-06
-1.15273e-06
-8.47222e-07
-1.12337e-06
-4.93435e-07
-1.08924e-06
-1.50793e-07
-1.05364e-06
1.75042e-07
-1.01437e-06
4.77852e-07
-9.67144e-07
7.60001e-07
-9.14172e-07
1.02417e-06
-8.57947e-07
1.27188e-06
-8.01262e-07
1.50386e-06
-7.46145e-07
1.72069e-06
-6.93604e-07
1.923e-06
-6.44096e-07
2.11152e-06
-5.97765e-07
2.28705e-06
-5.54612e-07
2.45043e-06
-5.14545e-07
2.60247e-06
-4.77439e-07
2.74401e-06
-4.43135e-07
2.87581e-06
-4.11467e-07
2.99862e-06
-3.82262e-07
3.11312e-06
-3.55348e-07
3.21997e-06
-3.30556e-07
3.31976e-06
-3.07724e-07
3.41305e-06
-2.86697e-07
3.50035e-06
-2.67331e-07
3.58212e-06
-2.4949e-07
3.65881e-06
-2.3305e-07
3.73079e-06
-2.17893e-07
3.79845e-06
-2.03916e-07
3.86212e-06
-1.9102e-07
3.92209e-06
-1.79118e-07
3.97867e-06
-1.68129e-07
4.0321e-06
-1.57981e-07
4.08264e-06
-1.48607e-07
4.13049e-06
-1.39948e-07
4.17588e-06
-1.31949e-07
4.21898e-06
-1.24561e-07
4.25999e-06
-1.17739e-07
4.29905e-06
-1.11443e-07
4.33632e-06
-1.05636e-07
4.37196e-06
-1.00285e-07
4.40608e-06
-9.53582e-08
4.43882e-06
-9.08285e-08
4.47028e-06
-8.66706e-08
4.50059e-06
-8.28611e-08
4.52984e-06
-7.93787e-08
4.55813e-06
-7.62037e-08
4.58554e-06
-7.33181e-08
4.61218e-06
-7.07051e-08
4.6381e-06
-6.83493e-08
4.6634e-06
-6.62359e-08
4.68814e-06
-6.43514e-08
4.71238e-06
-6.26828e-08
4.7362e-06
-6.1218e-08
4.75965e-06
-5.99451e-08
4.78279e-06
-5.88529e-08
4.80566e-06
-5.79301e-08
4.82832e-06
-5.71659e-08
4.85082e-06
-5.65496e-08
4.87319e-06
-5.60705e-08
4.89547e-06
-5.57176e-08
4.9177e-06
-5.54802e-08
4.93991e-06
-5.53471e-08
4.96212e-06
-5.53071e-08
4.98436e-06
-5.53489e-08
5.00666e-06
-5.54608e-08
5.02902e-06
-5.56311e-08
5.05146e-06
-5.58481e-08
5.074e-06
-5.61e-08
5.09663e-06
-5.63751e-08
5.11935e-06
-5.6662e-08
5.14218e-06
-5.69496e-08
5.1651e-06
-5.72274e-08
5.18811e-06
-5.74856e-08
5.21119e-06
-5.7715e-08
5.23434e-06
-5.79077e-08
5.25754e-06
-5.80566e-08
5.28078e-06
-5.8156e-08
5.30404e-06
-5.82013e-08
5.32729e-06
-5.81893e-08
5.35053e-06
-5.81181e-08
5.37373e-06
-5.79872e-08
5.39688e-06
-5.77969e-08
5.41995e-06
-5.7549e-08
5.44294e-06
-5.72459e-08
5.46582e-06
-5.68912e-08
5.48858e-06
-5.64888e-08
5.5112e-06
-5.6043e-08
5.53367e-06
-5.55585e-08
5.55599e-06
-5.504e-08
5.57814e-06
-5.44919e-08
5.60012e-06
-5.39187e-08
5.62191e-06
-5.33239e-08
5.64351e-06
-5.27112e-08
5.66492e-06
-5.20829e-08
5.68612e-06
-5.14414e-08
5.70711e-06
-5.07877e-08
5.72789e-06
-5.01227e-08
5.74846e-06
-4.9446e-08
5.7688e-06
-4.87574e-08
5.7889e-06
-4.80553e-08
5.80878e-06
-4.73383e-08
5.8284e-06
-4.6604e-08
5.84777e-06
-4.58506e-08
5.86687e-06
-4.50752e-08
5.8857e-06
-4.42759e-08
5.90425e-06
-4.34499e-08
5.92249e-06
-4.25958e-08
5.94043e-06
-4.17112e-08
5.95803e-06
-4.07954e-08
5.9753e-06
-3.98471e-08
5.99222e-06
-3.88666e-08
6.00877e-06
-3.78538e-08
6.02495e-06
-3.681e-08
6.04073e-06
-3.57364e-08
6.0561e-06
-3.46356e-08
6.07106e-06
-3.35095e-08
6.08559e-06
-3.23621e-08
6.09968e-06
-3.11962e-08
6.11332e-06
-3.00162e-08
6.12652e-06
-2.88256e-08
6.13925e-06
-2.76294e-08
6.15152e-06
-2.6431e-08
6.16332e-06
-2.52359e-08
6.17466e-06
-2.40473e-08
6.18553e-06
-2.28703e-08
6.19594e-06
-2.1708e-08
6.20588e-06
-2.0565e-08
6.21537e-06
-1.94439e-08
6.2244e-06
-1.8349e-08
6.233e-06
-1.72819e-08
6.24115e-06
-1.62465e-08
6.24889e-06
-1.52437e-08
6.2562e-06
-1.4277e-08
6.26311e-06
-1.33465e-08
6.26963e-06
-1.24554e-08
6.27578e-06
-1.16035e-08
6.28155e-06
-1.07939e-08
6.28698e-06
-1.00266e-08
6.29206e-06
-9.30531e-09
6.29683e-06
-8.63139e-09
6.3013e-06
-8.01163e-09
6.30548e-06
-7.45218e-09
6.3094e-06
-6.96943e-09
6.31308e-06
-6.58766e-09
6.31654e-06
-6.36119e-09
6.31983e-06
-6.39209e-09
-7.08184e-09
-4.38563e-07
1.63363e-06
-8.61117e-07
1.79242e-06
-1.2756e-06
1.84096e-06
-1.68284e-06
1.84763e-06
-2.08054e-06
1.82799e-06
-2.46625e-06
1.78938e-06
-2.83829e-06
1.73658e-06
-3.19545e-06
1.67341e-06
-3.53701e-06
1.60291e-06
-3.86251e-06
1.52746e-06
-4.17171e-06
1.44882e-06
-4.46451e-06
1.36823e-06
-4.74073e-06
1.28658e-06
-5.00028e-06
1.20434e-06
-5.24296e-06
1.1218e-06
-5.46854e-06
1.03908e-06
-5.6768e-06
9.56166e-07
-5.86737e-06
8.73142e-07
-6.04012e-06
7.89838e-07
-6.19469e-06
7.06381e-07
-6.33087e-06
6.22786e-07
-6.44841e-06
5.39187e-07
-6.54719e-06
4.55706e-07
-6.62713e-06
3.72548e-07
-6.68814e-06
2.89921e-07
-6.73041e-06
2.07833e-07
-6.75391e-06
1.26632e-07
-6.75891e-06
4.63162e-08
-6.74567e-06
-3.29707e-08
-6.7146e-06
-1.11039e-07
-6.66606e-06
-1.87848e-07
-6.60035e-06
-2.63664e-07
-6.5176e-06
-3.38914e-07
-6.41781e-06
-4.14132e-07
-6.3008e-06
-4.8992e-07
-6.16624e-06
-5.66887e-07
-6.01358e-06
-6.45587e-07
-5.8422e-06
-7.26447e-07
-5.65132e-06
-8.09671e-07
-5.44021e-06
-8.95147e-07
-5.20818e-06
-9.8235e-07
-4.95483e-06
-1.07028e-06
-4.68008e-06
-1.15749e-06
-4.3844e-06
-1.24206e-06
-4.06883e-06
-1.32168e-06
-3.73517e-06
-1.39389e-06
-3.38582e-06
-1.4563e-06
-3.02389e-06
-1.50668e-06
-2.65287e-06
-1.54344e-06
-2.27659e-06
-1.56554e-06
-1.89886e-06
-1.57283e-06
-1.52338e-06
-1.56575e-06
-1.15348e-06
-1.54553e-06
-7.91731e-07
-1.51449e-06
-4.40218e-07
-1.47488e-06
-9.99646e-08
-1.42951e-06
2.22861e-07
-1.37649e-06
5.23299e-07
-1.31484e-06
8.03785e-07
-1.24763e-06
1.06633e-06
-1.17671e-06
1.31255e-06
-1.10417e-06
1.54342e-06
-1.03216e-06
1.75955e-06
-9.62299e-07
1.9615e-06
-8.95582e-07
2.14992e-06
-8.32527e-07
2.32553e-06
-7.73371e-07
2.4891e-06
-7.18159e-07
2.64141e-06
-6.66828e-07
2.78325e-06
-6.19242e-07
2.91538e-06
-5.75224e-07
3.03852e-06
-5.34569e-07
3.15337e-06
-4.97068e-07
3.26056e-06
-4.625e-07
3.36069e-06
-4.30654e-07
3.45432e-06
-4.01322e-07
3.54196e-06
-3.74306e-07
3.62407e-06
-3.49422e-07
3.7011e-06
-3.26496e-07
3.77344e-06
-3.05367e-07
3.84145e-06
-2.85889e-07
3.90547e-06
-2.67924e-07
3.96581e-06
-2.5135e-07
4.02275e-06
-2.36054e-07
4.07656e-06
-2.21933e-07
4.12748e-06
-2.08893e-07
4.17572e-06
-1.96851e-07
4.22151e-06
-1.85728e-07
4.26501e-06
-1.75457e-07
4.30642e-06
-1.65974e-07
4.3459e-06
-1.57221e-07
4.3836e-06
-1.49147e-07
4.41966e-06
-1.41704e-07
4.45422e-06
-1.34849e-07
4.4874e-06
-1.28543e-07
4.51931e-06
-1.2275e-07
4.55007e-06
-1.17437e-07
4.57978e-06
-1.12575e-07
4.60853e-06
-1.08136e-07
4.63641e-06
-1.04094e-07
4.66351e-06
-1.00427e-07
4.68991e-06
-9.71111e-08
4.71568e-06
-9.41275e-08
4.74089e-06
-9.1457e-08
4.76561e-06
-8.90816e-08
4.78991e-06
-8.69847e-08
4.81383e-06
-8.515e-08
4.83744e-06
-8.35622e-08
4.86078e-06
-8.22064e-08
4.88391e-06
-8.10681e-08
4.90687e-06
-8.01329e-08
4.9297e-06
-7.93868e-08
4.95244e-06
-7.88156e-08
4.97512e-06
-7.84051e-08
4.99777e-06
-7.81412e-08
5.02043e-06
-7.80093e-08
5.04311e-06
-7.79949e-08
5.06583e-06
-7.8083e-08
5.08863e-06
-7.82586e-08
5.1115e-06
-7.85065e-08
5.13445e-06
-7.88114e-08
5.15751e-06
-7.91583e-08
5.18066e-06
-7.9532e-08
5.20391e-06
-7.99178e-08
5.22726e-06
-8.03016e-08
5.2507e-06
-8.067e-08
5.27422e-06
-8.10103e-08
5.29781e-06
-8.13112e-08
5.32146e-06
-8.15625e-08
5.34516e-06
-8.17554e-08
5.36888e-06
-8.18827e-08
5.39262e-06
-8.19389e-08
5.41634e-06
-8.19202e-08
5.44005e-06
-8.18243e-08
5.46371e-06
-8.16506e-08
5.48731e-06
-8.14002e-08
5.51084e-06
-8.10754e-08
5.53427e-06
-8.06797e-08
5.55759e-06
-8.02175e-08
5.5808e-06
-7.96941e-08
5.60387e-06
-7.91151e-08
5.62679e-06
-7.84867e-08
5.64957e-06
-7.78147e-08
5.67218e-06
-7.7105e-08
5.69462e-06
-7.63628e-08
5.71689e-06
-7.55931e-08
5.73897e-06
-7.47999e-08
5.76088e-06
-7.39866e-08
5.78259e-06
-7.31554e-08
5.8041e-06
-7.2308e-08
5.82542e-06
-7.14449e-08
5.84654e-06
-7.05658e-08
5.86745e-06
-6.96696e-08
5.88815e-06
-6.87546e-08
5.90862e-06
-6.78183e-08
5.92888e-06
-6.68582e-08
5.94889e-06
-6.58708e-08
5.96867e-06
-6.4853e-08
5.98819e-06
-6.38016e-08
6.00745e-06
-6.27134e-08
6.02644e-06
-6.15856e-08
6.04514e-06
-6.0416e-08
6.06355e-06
-5.92027e-08
6.08164e-06
-5.79446e-08
6.09941e-06
-5.66412e-08
6.11685e-06
-5.5293e-08
6.13394e-06
-5.39009e-08
6.15067e-06
-5.2467e-08
6.16702e-06
-5.09939e-08
6.183e-06
-4.94849e-08
6.19858e-06
-4.7944e-08
6.21375e-06
-4.63757e-08
6.22852e-06
-4.47848e-08
6.24287e-06
-4.31767e-08
6.2568e-06
-4.15568e-08
6.27029e-06
-3.99308e-08
6.28336e-06
-3.83044e-08
6.296e-06
-3.66832e-08
6.3082e-06
-3.50725e-08
6.31997e-06
-3.34777e-08
6.3313e-06
-3.19037e-08
6.34221e-06
-3.03552e-08
6.3527e-06
-2.88364e-08
6.36277e-06
-2.73513e-08
6.37243e-06
-2.59035e-08
6.38168e-06
-2.4496e-08
6.39053e-06
-2.31318e-08
6.399e-06
-2.18132e-08
6.40709e-06
-2.05425e-08
6.4148e-06
-1.93217e-08
6.42216e-06
-1.8153e-08
6.42918e-06
-1.70384e-08
6.43585e-06
-1.59808e-08
6.4422e-06
-1.49837e-08
6.44825e-06
-1.40526e-08
6.45399e-06
-1.31961e-08
6.45945e-06
-1.24286e-08
6.46464e-06
-1.17743e-08
6.46955e-06
-1.1277e-08
6.47416e-06
-1.10126e-08
-1.12026e-08
-4.01561e-07
2.03533e-06
-7.86104e-07
2.17704e-06
-1.15882e-06
2.21401e-06
-1.52149e-06
2.21026e-06
-1.87286e-06
2.17949e-06
-2.2122e-06
2.12881e-06
-2.53888e-06
2.06333e-06
-2.85255e-06
1.98713e-06
-3.15301e-06
1.90342e-06
-3.44017e-06
1.81463e-06
-3.71394e-06
1.72256e-06
-3.97417e-06
1.62849e-06
-4.22073e-06
1.53311e-06
-4.4533e-06
1.43692e-06
-4.67158e-06
1.3401e-06
-4.87516e-06
1.24271e-06
-5.06355e-06
1.14475e-06
-5.23644e-06
1.04608e-06
-5.39329e-06
9.46836e-07
-5.53378e-06
8.46972e-07
-5.65751e-06
7.46615e-07
-5.76419e-06
6.45952e-07
-5.85362e-06
5.45207e-07
-5.92563e-06
4.44648e-07
-5.98028e-06
3.44482e-07
-6.01741e-06
2.45108e-07
-6.03728e-06
1.46506e-07
-6.03997e-06
4.90384e-08
-6.0258e-06
-4.70912e-08
-5.99528e-06
-1.41527e-07
-5.94884e-06
-2.34251e-07
-5.88682e-06
-3.2566e-07
-5.80938e-06
-4.16337e-07
-5.71652e-06
-5.06993e-07
-5.60803e-06
-5.98423e-07
-5.48351e-06
-6.91437e-07
-5.34234e-06
-7.86792e-07
-5.18376e-06
-8.8509e-07
-5.00682e-06
-9.86672e-07
-4.81054e-06
-1.09149e-06
-4.59401e-06
-1.19894e-06
-4.35652e-06
-1.30782e-06
-4.09775e-06
-1.41628e-06
-3.81788e-06
-1.52193e-06
-3.51778e-06
-1.62175e-06
-3.19914e-06
-1.71248e-06
-2.86432e-06
-1.79105e-06
-2.51647e-06
-1.85445e-06
-2.15924e-06
-1.9006e-06
-1.79663e-06
-1.9281e-06
-1.43266e-06
-1.93676e-06
-1.07127e-06
-1.92713e-06
-7.15843e-07
-1.90094e-06
-3.68751e-07
-1.86157e-06
-3.28538e-08
-1.81077e-06
2.85404e-07
-1.74776e-06
5.82922e-07
-1.67402e-06
8.61352e-07
-1.59327e-06
1.12182e-06
-1.5081e-06
1.36561e-06
-1.42049e-06
1.59388e-06
-1.33243e-06
1.80751e-06
-1.24578e-06
2.00717e-06
-1.16197e-06
2.19354e-06
-1.08196e-06
2.36732e-06
-1.00631e-06
2.52924e-06
-9.35284e-07
2.68005e-06
-8.68959e-07
2.82052e-06
-8.07273e-07
2.95138e-06
-7.50076e-07
3.07334e-06
-6.9716e-07
3.18709e-06
-6.48288e-07
3.29326e-06
-6.03203e-07
3.39243e-06
-5.61647e-07
3.48516e-06
-5.23359e-07
3.57196e-06
-4.88093e-07
3.65329e-06
-4.5561e-07
3.72957e-06
-4.25687e-07
3.80121e-06
-3.98117e-07
3.86857e-06
-3.72706e-07
3.93197e-06
-3.49277e-07
3.99173e-06
-3.27668e-07
4.04812e-06
-3.0773e-07
4.1014e-06
-2.89329e-07
4.15182e-06
-2.72341e-07
4.19958e-06
-2.56655e-07
4.24491e-06
-2.42169e-07
4.28797e-06
-2.28793e-07
4.32896e-06
-2.16442e-07
4.36803e-06
-2.05042e-07
4.40533e-06
-1.94522e-07
4.441e-06
-1.84823e-07
4.47518e-06
-1.75885e-07
4.50799e-06
-1.67658e-07
4.53954e-06
-1.60095e-07
4.56994e-06
-1.53153e-07
4.59929e-06
-1.46791e-07
4.62769e-06
-1.40974e-07
4.65521e-06
-1.35669e-07
4.68196e-06
-1.30845e-07
4.708e-06
-1.26473e-07
4.73342e-06
-1.22528e-07
4.75827e-06
-1.18983e-07
4.78262e-06
-1.15817e-07
4.80654e-06
-1.13008e-07
4.83009e-06
-1.10534e-07
4.85331e-06
-1.08377e-07
4.87626e-06
-1.06518e-07
4.89898e-06
-1.04937e-07
4.92153e-06
-1.03618e-07
4.94393e-06
-1.02543e-07
4.96624e-06
-1.01694e-07
4.98847e-06
-1.01054e-07
5.01067e-06
-1.00606e-07
5.03285e-06
-1.00332e-07
5.05506e-06
-1.00215e-07
5.07729e-06
-1.00236e-07
5.09958e-06
-1.00378e-07
5.12194e-06
-1.00621e-07
5.14438e-06
-1.00948e-07
5.1669e-06
-1.0134e-07
5.18952e-06
-1.01778e-07
5.21223e-06
-1.02244e-07
5.23502e-06
-1.0272e-07
5.25791e-06
-1.0319e-07
5.28087e-06
-1.03637e-07
5.3039e-06
-1.04046e-07
5.32699e-06
-1.04403e-07
5.35012e-06
-1.04697e-07
5.37328e-06
-1.04917e-07
5.39645e-06
-1.05054e-07
5.41961e-06
-1.05102e-07
5.44274e-06
-1.05058e-07
5.46583e-06
-1.04918e-07
5.48886e-06
-1.04683e-07
5.51181e-06
-1.04353e-07
5.53466e-06
-1.03933e-07
5.55741e-06
-1.03427e-07
5.58002e-06
-1.0284e-07
5.6025e-06
-1.02179e-07
5.62484e-06
-1.01451e-07
5.64701e-06
-1.00663e-07
5.66902e-06
-9.98241e-08
5.69085e-06
-9.89396e-08
5.7125e-06
-9.80167e-08
5.73396e-06
-9.70609e-08
5.75524e-06
-9.60774e-08
5.77632e-06
-9.50697e-08
5.7972e-06
-9.40409e-08
5.81788e-06
-9.29924e-08
5.83836e-06
-9.1925e-08
5.85863e-06
-9.08379e-08
5.87869e-06
-8.97298e-08
5.89853e-06
-8.85982e-08
5.91815e-06
-8.74403e-08
5.93754e-06
-8.6252e-08
5.9567e-06
-8.503e-08
5.97562e-06
-8.37696e-08
5.99428e-06
-8.24672e-08
6.01269e-06
-8.11184e-08
6.03082e-06
-7.97203e-08
6.04867e-06
-7.82695e-08
6.06623e-06
-7.67641e-08
6.08349e-06
-7.52023e-08
6.10043e-06
-7.3584e-08
6.11705e-06
-7.19092e-08
6.13332e-06
-7.01797e-08
6.14925e-06
-6.83973e-08
6.16482e-06
-6.65659e-08
6.18003e-06
-6.46889e-08
6.19486e-06
-6.27718e-08
6.2093e-06
-6.08195e-08
6.22335e-06
-5.88387e-08
6.23701e-06
-5.68352e-08
6.25027e-06
-5.48164e-08
6.26313e-06
-5.27884e-08
6.27558e-06
-5.07592e-08
6.28763e-06
-4.87345e-08
6.29928e-06
-4.6722e-08
6.31053e-06
-4.47273e-08
6.32139e-06
-4.27573e-08
6.33185e-06
-4.08167e-08
6.34193e-06
-3.8912e-08
6.35162e-06
-3.70467e-08
6.36095e-06
-3.52264e-08
6.3699e-06
-3.34536e-08
6.37851e-06
-3.17333e-08
6.38676e-06
-3.00669e-08
6.39468e-06
-2.84587e-08
6.40226e-06
-2.69095e-08
6.40954e-06
-2.54234e-08
6.4165e-06
-2.40012e-08
6.42317e-06
-2.26476e-08
6.42955e-06
-2.13644e-08
6.43565e-06
-2.01591e-08
6.44149e-06
-1.90378e-08
6.44708e-06
-1.80151e-08
6.45241e-06
-1.71084e-08
6.45748e-06
-1.63497e-08
6.46223e-06
-1.57778e-08
-1.54615e-08
-3.56362e-07
2.39182e-06
-6.9645e-07
2.51724e-06
-1.024e-06
2.54143e-06
-1.34031e-06
2.52673e-06
-1.64548e-06
2.48466e-06
-1.93939e-06
2.42272e-06
-2.22214e-06
2.34609e-06
-2.49386e-06
2.25886e-06
-2.75469e-06
2.16423e-06
-3.0047e-06
2.0646e-06
-3.24382e-06
1.96168e-06
-3.47195e-06
1.85655e-06
-3.68879e-06
1.74992e-06
-3.89398e-06
1.64209e-06
-4.08703e-06
1.53318e-06
-4.26742e-06
1.42317e-06
-4.43463e-06
1.31197e-06
-4.58803e-06
1.19965e-06
-4.72718e-06
1.08608e-06
-4.85159e-06
9.71432e-07
-4.96081e-06
8.55889e-07
-5.05452e-06
7.39689e-07
-5.13246e-06
6.23173e-07
-5.19453e-06
5.06688e-07
-5.24058e-06
3.90645e-07
-5.27081e-06
2.75205e-07
-5.28514e-06
1.60856e-07
-5.28382e-06
4.77402e-08
-5.26719e-06
-6.36851e-08
-5.23584e-06
-1.72833e-07
-5.19029e-06
-2.79764e-07
-5.13092e-06
-3.85012e-07
-5.05791e-06
-4.89321e-07
-4.97131e-06
-5.93595e-07
-4.8709e-06
-6.98839e-07
-4.75626e-06
-8.06098e-07
-4.62673e-06
-9.16366e-07
-4.48139e-06
-1.03048e-06
-4.31916e-06
-1.14896e-06
-4.13882e-06
-1.27188e-06
-3.93917e-06
-1.39864e-06
-3.71923e-06
-1.5278e-06
-3.47839e-06
-1.65714e-06
-3.21654e-06
-1.78377e-06
-2.93431e-06
-1.90396e-06
-2.63329e-06
-2.01343e-06
-2.31575e-06
-2.1085e-06
-1.98489e-06
-2.18523e-06
-1.64453e-06
-2.24088e-06
-1.29881e-06
-2.27377e-06
-9.51875e-07
-2.28367e-06
-6.07686e-07
-2.27131e-06
-2.6931e-07
-2.23933e-06
5.86999e-08
-2.18959e-06
3.69585e-07
-2.12166e-06
6.6172e-07
-2.0399e-06
9.36038e-07
-1.94835e-06
1.19305e-06
-1.8503e-06
1.43342e-06
-1.74846e-06
1.65803e-06
-1.6451e-06
1.86786e-06
-1.54225e-06
2.06375e-06
-1.44167e-06
2.24648e-06
-1.34471e-06
2.41681e-06
-1.2523e-06
2.57549e-06
-1.16499e-06
2.72327e-06
-1.08306e-06
2.8609e-06
-1.00657e-06
2.98911e-06
-9.35463e-07
3.1086e-06
-8.69541e-07
3.22004e-06
-8.08569e-07
3.32404e-06
-7.52264e-07
3.4212e-06
-7.0033e-07
3.51204e-06
-6.52463e-07
3.59707e-06
-6.08363e-07
3.67674e-06
-5.6774e-07
3.75147e-06
-5.30321e-07
3.82165e-06
-4.95848e-07
3.88763e-06
-4.6408e-07
3.94973e-06
-4.34796e-07
4.00826e-06
-4.07792e-07
4.06348e-06
-3.82881e-07
4.11565e-06
-3.59894e-07
4.165e-06
-3.38676e-07
4.21175e-06
-3.19086e-07
4.2561e-06
-3.00996e-07
4.29822e-06
-2.84291e-07
4.33829e-06
-2.68865e-07
4.37647e-06
-2.54623e-07
4.4129e-06
-2.41479e-07
4.44773e-06
-2.29353e-07
4.48108e-06
-2.18175e-07
4.51307e-06
-2.07879e-07
4.54381e-06
-1.98406e-07
4.57341e-06
-1.89702e-07
4.60196e-06
-1.81716e-07
4.62957e-06
-1.74404e-07
4.65631e-06
-1.67723e-07
4.68227e-06
-1.61635e-07
4.70752e-06
-1.56105e-07
4.73214e-06
-1.511e-07
4.75619e-06
-1.46589e-07
4.77974e-06
-1.42542e-07
4.80285e-06
-1.38935e-07
4.82558e-06
-1.3574e-07
4.84797e-06
-1.32934e-07
4.87007e-06
-1.30494e-07
4.89195e-06
-1.28398e-07
4.91362e-06
-1.26624e-07
4.93515e-06
-1.25151e-07
4.95656e-06
-1.23959e-07
4.97788e-06
-1.23027e-07
4.99916e-06
-1.22335e-07
5.02041e-06
-1.21863e-07
5.04166e-06
-1.21589e-07
5.06293e-06
-1.21493e-07
5.08424e-06
-1.21553e-07
5.1056e-06
-1.21749e-07
5.12703e-06
-1.22059e-07
5.14854e-06
-1.22461e-07
5.17013e-06
-1.22933e-07
5.1918e-06
-1.23453e-07
5.21355e-06
-1.24001e-07
5.23538e-06
-1.24556e-07
5.25729e-06
-1.25097e-07
5.27925e-06
-1.25606e-07
5.30127e-06
-1.26066e-07
5.32332e-06
-1.2646e-07
5.3454e-06
-1.26776e-07
5.36748e-06
-1.27e-07
5.38955e-06
-1.27125e-07
5.41159e-06
-1.27143e-07
5.43358e-06
-1.27048e-07
5.4555e-06
-1.26841e-07
5.47733e-06
-1.26519e-07
5.49906e-06
-1.26086e-07
5.52067e-06
-1.25546e-07
5.54215e-06
-1.24905e-07
5.56348e-06
-1.24169e-07
5.58465e-06
-1.23347e-07
5.60564e-06
-1.22447e-07
5.62645e-06
-1.21479e-07
5.64708e-06
-1.20451e-07
5.66751e-06
-1.19371e-07
5.68774e-06
-1.18248e-07
5.70776e-06
-1.17087e-07
5.72758e-06
-1.15895e-07
5.74718e-06
-1.14676e-07
5.76657e-06
-1.13433e-07
5.78575e-06
-1.12169e-07
5.8047e-06
-1.10882e-07
5.82344e-06
-1.09574e-07
5.84194e-06
-1.08241e-07
5.86022e-06
-1.06881e-07
5.87827e-06
-1.0549e-07
5.89608e-06
-1.04063e-07
5.91364e-06
-1.02597e-07
5.93096e-06
-1.01086e-07
5.94801e-06
-9.95248e-08
5.9648e-06
-9.79092e-08
5.98131e-06
-9.62352e-08
5.99754e-06
-9.44991e-08
6.01347e-06
-9.26985e-08
6.0291e-06
-9.08317e-08
6.04441e-06
-8.88983e-08
6.0594e-06
-8.68987e-08
6.07405e-06
-8.48348e-08
6.08836e-06
-8.27095e-08
6.10232e-06
-8.05267e-08
6.11592e-06
-7.82914e-08
6.12915e-06
-7.60095e-08
6.14202e-06
-7.36876e-08
6.15451e-06
-7.13329e-08
6.16663e-06
-6.89532e-08
6.17837e-06
-6.65565e-08
6.18973e-06
-6.41509e-08
6.20071e-06
-6.17448e-08
6.21132e-06
-5.9346e-08
6.22156e-06
-5.69626e-08
6.23143e-06
-5.4602e-08