/*--------------------------------*- C++ -*----------------------------------*\
  =========                 |
  \\      /  F ield         | OpenFOAM: The Open Source CFD Toolbox
   \\    /   O peration     | Website:  https://openfoam.org
    \\  /    A nd           | Version:  7
     \\/     M anipulation  |
\*---------------------------------------------------------------------------*/
FoamFile
{
    version     2.0;
    format      ascii;
    class       volVectorField;
    location    "100";
    object      U;
}
// * * * * * * * * * * * * * * * * * * * * * * * * * * * * * * * * * * * * * //

dimensions      [0 1 -1 0 0 0 0];

internalField   nonuniform List<vector> 
16900
(
(-0.177877 0.240917 0)
(-0.410588 0.313019 0)
(-0.875103 0.31184 0)
(-1.30847 0.302943 0)
(-1.7464 0.292744 0)
(-2.18019 0.281475 0)
(-2.6054 0.269218 0)
(-3.01855 0.256198 0)
(-3.41701 0.242678 0)
(-3.79882 0.228894 0)
(-4.16259 0.215053 0)
(-4.5074 0.201303 0)
(-4.83267 0.187731 0)
(-5.13807 0.174424 0)
(-5.42343 0.161389 0)
(-5.6887 0.148662 0)
(-5.93382 0.136215 0)
(-6.15891 0.124018 0)
(-6.36398 0.112113 0)
(-6.54917 0.100395 0)
(-6.71459 0.0889299 0)
(-6.86037 0.0776388 0)
(-6.98663 0.0665882 0)
(-7.09349 0.0557007 0)
(-7.1812 0.0450406 0)
(-7.24994 0.0345776 0)
(-7.30011 0.024229 0)
(-7.33198 0.0139558 0)
(-7.34552 0.00367944 0)
(-7.34058 -0.00657371 0)
(-7.31752 -0.016754 0)
(-7.2765 -0.0268833 0)
(-7.21767 -0.0370072 0)
(-7.1411 -0.0471951 0)
(-7.04674 -0.0575275 0)
(-6.93438 -0.0680864 0)
(-6.8037 -0.0789452 0)
(-6.65427 -0.0901587 0)
(-6.4856 -0.101754 0)
(-6.29718 -0.113718 0)
(-6.08858 -0.125998 0)
(-5.85959 -0.138485 0)
(-5.61026 -0.151018 0)
(-5.34108 -0.163377 0)
(-5.05298 -0.175298 0)
(-4.74742 -0.186499 0)
(-4.42637 -0.19671 0)
(-4.09232 -0.205718 0)
(-3.74822 -0.213378 0)
(-3.39738 -0.219598 0)
(-3.04328 -0.22429 0)
(-2.68922 -0.227349 0)
(-2.33806 -0.228727 0)
(-1.99207 -0.228683 0)
(-1.65319 -0.22808 0)
(-1.32348 -0.22851 0)
(-1.00559 -0.231832 0)
(-0.702486 -0.238636 0)
(-0.414738 -0.24568 0)
(-0.138403 -0.243239 0)
(0.152444 -0.221681 0)
(0.399458 -0.197219 0)
(0.632063 -0.175205 0)
(0.848506 -0.156101 0)
(1.04926 -0.13957 0)
(1.23522 -0.1252 0)
(1.40738 -0.112638 0)
(1.56672 -0.101589 0)
(1.71418 -0.0918265 0)
(1.85066 -0.0831586 0)
(1.977 -0.0754381 0)
(2.09399 -0.0685376 0)
(2.20235 -0.0623566 0)
(2.30277 -0.0568048 0)
(2.39586 -0.0518103 0)
(2.48222 -0.0473064 0)
(2.56236 -0.0432398 0)
(2.63678 -0.0395601 0)
(2.70592 -0.036227 0)
(2.7702 -0.0332018 0)
(2.83 -0.0304535 0)
(2.88566 -0.0279522 0)
(2.93751 -0.0256741 0)
(2.98582 -0.0235956 0)
(3.03088 -0.0216985 0)
(3.07293 -0.0199641 0)
(3.11219 -0.0183782 0)
(3.14889 -0.0169262 0)
(3.18321 -0.0155969 0)
(3.21533 -0.0143785 0)
(3.24543 -0.0132623 0)
(3.27365 -0.012239 0)
(3.30014 -0.0113016 0)
(3.32504 -0.0104426 0)
(3.34847 -0.00965628 0)
(3.37055 -0.00893662 0)
(3.39138 -0.00827917 0)
(3.41109 -0.00767883 0)
(3.42975 -0.00713203 0)
(3.44746 -0.00663452 0)
(3.46431 -0.00618339 0)
(3.48039 -0.00577505 0)
(3.49576 -0.00540707 0)
(3.51049 -0.00507637 0)
(3.52467 -0.00478091 0)
(3.53835 -0.00451797 0)
(3.5516 -0.00428578 0)
(3.56447 -0.0040819 0)
(3.57701 -0.00390474 0)
(3.58929 -0.00375205 0)
(3.60134 -0.00362237 0)
(3.61321 -0.00351354 0)
(3.62495 -0.00342418 0)
(3.63658 -0.0033522 0)
(3.64816 -0.00329621 0)
(3.6597 -0.00325419 0)
(3.67123 -0.00322474 0)
(3.68278 -0.00320585 0)
(3.69438 -0.00319613 0)
(3.70602 -0.00319362 0)
(3.71774 -0.00319695 0)
(3.72954 -0.00320424 0)
(3.74142 -0.00321421 0)
(3.7534 -0.00322512 0)
(3.76545 -0.00323582 0)
(3.77759 -0.0032448 0)
(3.78981 -0.00325112 0)
(3.80209 -0.00325358 0)
(3.81443 -0.00325151 0)
(3.8268 -0.00324404 0)
(3.8392 -0.00323085 0)
(3.8516 -0.00321143 0)
(3.86399 -0.00318582 0)
(3.87636 -0.00315386 0)
(3.88867 -0.0031159 0)
(3.90092 -0.00307211 0)
(3.91309 -0.00302307 0)
(3.92516 -0.00296922 0)
(3.93712 -0.00291128 0)
(3.94895 -0.00284983 0)
(3.96065 -0.00278567 0)
(3.9722 -0.00271942 0)
(3.98359 -0.00265184 0)
(3.99482 -0.0025835 0)
(4.00588 -0.00251504 0)
(4.01677 -0.00244693 0)
(4.02748 -0.00237964 0)
(4.03801 -0.00231348 0)
(4.04837 -0.00224872 0)
(4.05854 -0.00218552 0)
(4.06854 -0.00212394 0)
(4.07835 -0.002064 0)
(4.08798 -0.0020056 0)
(4.09742 -0.00194863 0)
(4.10667 -0.00189287 0)
(4.11574 -0.00183815 0)
(4.12462 -0.0017842 0)
(4.1333 -0.0017308 0)
(4.14178 -0.00167769 0)
(4.15006 -0.0016247 0)
(4.15813 -0.00157158 0)
(4.16598 -0.00151823 0)
(4.17361 -0.0014645 0)
(4.18102 -0.00141037 0)
(4.1882 -0.00135576 0)
(4.19513 -0.00130078 0)
(4.20182 -0.00124544 0)
(4.20827 -0.00118991 0)
(4.21446 -0.00113428 0)
(4.22039 -0.0010788 0)
(4.22607 -0.0010236 0)
(4.23149 -0.000968972 0)
(4.23664 -0.00091505 0)
(4.24154 -0.000862136 0)
(4.24618 -0.000810352 0)
(4.25057 -0.000759982 0)
(4.2547 -0.000711113 0)
(4.25859 -0.00066399 0)
(4.26223 -0.000618653 0)
(4.26564 -0.000575298 0)
(4.26882 -0.000533918 0)
(4.27179 -0.000494657 0)
(4.27454 -0.000457464 0)
(4.27708 -0.000422441 0)
(4.27944 -0.000389508 0)
(4.28161 -0.000358733 0)
(4.28361 -0.000330032 0)
(4.28544 -0.000303466 0)
(4.28711 -0.00027898 0)
(4.28865 -0.000256665 0)
(4.29004 -0.000236559 0)
(4.29132 -0.000218876 0)
(4.29248 -0.000203918 0)
(4.29355 -0.000192286 0)
(4.29453 -0.000185035 0)
(4.29545 -0.000184111 0)
(4.29634 -0.000193327 0)
(4.29723 -0.000220264 0)
(4.29819 -0.000279448 0)
(4.29978 -0.000434093 0)
(-0.2816 0.470248 0)
(-0.577934 0.653285 0)
(-1.00587 0.696066 0)
(-1.43455 0.70442 0)
(-1.8652 0.70021 0)
(-2.29105 0.687632 0)
(-2.70727 0.66874 0)
(-3.11025 0.645071 0)
(-3.49746 0.617899 0)
(-3.86714 0.588267 0)
(-4.21811 0.557013 0)
(-4.54968 0.524775 0)
(-4.86142 0.492043 0)
(-5.15317 0.459135 0)
(-5.42487 0.426279 0)
(-5.67654 0.393612 0)
(-5.90821 0.361222 0)
(-6.11992 0.329117 0)
(-6.31178 0.297362 0)
(-6.48388 0.265908 0)
(-6.63627 0.234857 0)
(-6.76906 0.204162 0)
(-6.88234 0.17394 0)
(-6.97617 0.144159 0)
(-7.0507 0.11493 0)
(-7.10619 0.0862487 0)
(-7.14301 0.0581042 0)
(-7.16134 0.030399 0)
(-7.16105 0.0030517 0)
(-7.14249 -0.023862 0)
(-7.10624 -0.0502132 0)
(-7.05253 -0.0760631 0)
(-6.98153 -0.101533 0)
(-6.89329 -0.12679 0)
(-6.78776 -0.152027 0)
(-6.66475 -0.177437 0)
(-6.52395 -0.203191 0)
(-6.36492 -0.229409 0)
(-6.18718 -0.256139 0)
(-5.99022 -0.283326 0)
(-5.77363 -0.3108 0)
(-5.53718 -0.338258 0)
(-5.28089 -0.365261 0)
(-5.00523 -0.391238 0)
(-4.71109 -0.415517 0)
(-4.39995 -0.437389 0)
(-4.07378 -0.456183 0)
(-3.73512 -0.471349 0)
(-3.38693 -0.48251 0)
(-3.03244 -0.489452 0)
(-2.675 -0.492067 0)
(-2.31779 -0.490313 0)
(-1.96369 -0.484283 0)
(-1.61531 -0.474521 0)
(-1.27505 -0.46231 0)
(-0.945079 -0.449639 0)
(-0.626707 -0.438518 0)
(-0.319599 -0.429578 0)
(-0.0156013 -0.419943 0)
(0.26442 -0.402518 0)
(0.525045 -0.375399 0)
(0.766091 -0.345474 0)
(0.991314 -0.317034 0)
(1.20184 -0.290788 0)
(1.39828 -0.266813 0)
(1.58128 -0.244968 0)
(1.75159 -0.22506 0)
(1.90999 -0.206906 0)
(2.05727 -0.190338 0)
(2.19422 -0.175209 0)
(2.32157 -0.161388 0)
(2.44006 -0.148757 0)
(2.55034 -0.137211 0)
(2.65305 -0.126651 0)
(2.74878 -0.116991 0)
(2.83808 -0.108149 0)
(2.92143 -0.100053 0)
(2.99931 -0.0926343 0)
(3.07214 -0.0858329 0)
(3.14031 -0.0795935 0)
(3.20418 -0.0738661 0)
(3.26408 -0.0686054 0)
(3.32032 -0.0637707 0)
(3.37318 -0.0593252 0)
(3.42291 -0.0552356 0)
(3.46975 -0.051472 0)
(3.51392 -0.0480075 0)
(3.55563 -0.0448175 0)
(3.59505 -0.0418804 0)
(3.63237 -0.039176 0)
(3.66774 -0.0366868 0)
(3.70132 -0.0343961 0)
(3.73323 -0.0322897 0)
(3.76362 -0.0303539 0)
(3.7926 -0.0285768 0)
(3.82029 -0.0269474 0)
(3.8468 -0.0254555 0)
(3.87221 -0.0240921 0)
(3.89663 -0.0228487 0)
(3.92015 -0.0217175 0)
(3.94284 -0.0206915 0)
(3.96479 -0.019764 0)
(3.98606 -0.018929 0)
(4.00673 -0.0181806 0)
(4.02687 -0.0175136 0)
(4.04654 -0.0169227 0)
(4.06579 -0.0164033 0)
(4.08467 -0.0159506 0)
(4.10325 -0.0155602 0)
(4.12157 -0.0152278 0)
(4.13967 -0.0149492 0)
(4.1576 -0.01472 0)
(4.1754 -0.0145363 0)
(4.19309 -0.0143937 0)
(4.21073 -0.0142884 0)
(4.22832 -0.014216 0)
(4.24591 -0.0141724 0)
(4.2635 -0.0141534 0)
(4.28113 -0.0141549 0)
(4.29881 -0.0141727 0)
(4.31654 -0.0142028 0)
(4.33434 -0.014241 0)
(4.35222 -0.0142835 0)
(4.37017 -0.0143266 0)
(4.38819 -0.0143667 0)
(4.40629 -0.0144006 0)
(4.42445 -0.0144254 0)
(4.44267 -0.0144384 0)
(4.46092 -0.0144376 0)
(4.47921 -0.0144209 0)
(4.49751 -0.0143872 0)
(4.51581 -0.0143354 0)
(4.53409 -0.0142652 0)
(4.55233 -0.0141764 0)
(4.57052 -0.0140694 0)
(4.58863 -0.0139449 0)
(4.60666 -0.0138039 0)
(4.62458 -0.0136475 0)
(4.64239 -0.0134774 0)
(4.66006 -0.0132949 0)
(4.67758 -0.0131018 0)
(4.69494 -0.0128996 0)
(4.71214 -0.01269 0)
(4.72916 -0.0124744 0)
(4.746 -0.0122543 0)
(4.76264 -0.0120307 0)
(4.77909 -0.0118048 0)
(4.79533 -0.0115772 0)
(4.81137 -0.0113485 0)
(4.82719 -0.0111192 0)
(4.8428 -0.0108893 0)
(4.85819 -0.0106588 0)
(4.87335 -0.0104275 0)
(4.88827 -0.0101951 0)
(4.90296 -0.00996103 0)
(4.9174 -0.00972492 0)
(4.9316 -0.00948616 0)
(4.94553 -0.00924424 0)
(4.95919 -0.00899861 0)
(4.97257 -0.00874888 0)
(4.98567 -0.00849468 0)
(4.99847 -0.0082358 0)
(5.01096 -0.00797212 0)
(5.02313 -0.00770375 0)
(5.03498 -0.00743085 0)
(5.04648 -0.00715383 0)
(5.05763 -0.00687316 0)
(5.06843 -0.00658953 0)
(5.07887 -0.00630367 0)
(5.08893 -0.00601649 0)
(5.09861 -0.0057289 0)
(5.1079 -0.00544196 0)
(5.11682 -0.00515666 0)
(5.12534 -0.00487413 0)
(5.13347 -0.00459533 0)
(5.14122 -0.00432136 0)
(5.14858 -0.0040531 0)
(5.15555 -0.00379153 0)
(5.16215 -0.0035374 0)
(5.16838 -0.00329151 0)
(5.17425 -0.00305443 0)
(5.17976 -0.00282677 0)
(5.18492 -0.00260892 0)
(5.18975 -0.00240129 0)
(5.19426 -0.00220409 0)
(5.19845 -0.00201758 0)
(5.20235 -0.00184181 0)
(5.20596 -0.00167695 0)
(5.20929 -0.00152301 0)
(5.21237 -0.00138013 0)
(5.2152 -0.00124844 0)
(5.2178 -0.00112833 0)
(5.22019 -0.00102044 0)
(5.22238 -0.000926049 0)
(5.22439 -0.000847464 0)
(5.22624 -0.000789131 0)
(5.22796 -0.000759689 0)
(5.22959 -0.000776979 0)
(5.23116 -0.000877744 0)
(5.23329 -0.0012022 0)
(-0.295117 0.918224 0)
(-0.613714 1.09463 0)
(-1.0271 1.14844 0)
(-1.43806 1.16058 0)
(-1.84428 1.15207 0)
(-2.24263 1.12925 0)
(-2.6297 1.0959 0)
(-3.00293 1.05485 0)
(-3.3606 1.00833 0)
(-3.70159 0.958121 0)
(-4.02524 0.905596 0)
(-4.33119 0.85178 0)
(-4.61928 0.797393 0)
(-4.88946 0.742919 0)
(-5.1417 0.688671 0)
(-5.37595 0.634807 0)
(-5.59217 0.581423 0)
(-5.7903 0.528516 0)
(-5.97027 0.476126 0)
(-6.13198 0.424233 0)
(-6.27537 0.372894 0)
(-6.40037 0.322131 0)
(-6.50692 0.27203 0)
(-6.59497 0.222638 0)
(-6.66454 0.174045 0)
(-6.71577 0.126315 0)
(-6.74899 0.0794579 0)
(-6.76439 0.0334646 0)
(-6.76166 -0.0116745 0)
(-6.74144 -0.0558846 0)
(-6.70405 -0.0991366 0)
(-6.64972 -0.141563 0)
(-6.57864 -0.183375 0)
(-6.49087 -0.224846 0)
(-6.38633 -0.266281 0)
(-6.26481 -0.307984 0)
(-6.12596 -0.350222 0)
(-5.9693 -0.393181 0)
(-5.79425 -0.436926 0)
(-5.60023 -0.481352 0)
(-5.38671 -0.526148 0)
(-5.15333 -0.570776 0)
(-4.90003 -0.614469 0)
(-4.62713 -0.656243 0)
(-4.33549 -0.694967 0)
(-4.02653 -0.729468 0)
(-3.70231 -0.75864 0)
(-3.36544 -0.781536 0)
(-3.01896 -0.797463 0)
(-2.66621 -0.805976 0)
(-2.31055 -0.806927 0)
(-1.95523 -0.800493 0)
(-1.60332 -0.787306 0)
(-1.25777 -0.768772 0)
(-0.921269 -0.746912 0)
(-0.595783 -0.723552 0)
(-0.281108 -0.699343 0)
(0.0265474 -0.672563 0)
(0.310592 -0.641568 0)
(0.574527 -0.605491 0)
(0.821673 -0.566568 0)
(1.05325 -0.527232 0)
(1.27028 -0.489116 0)
(1.47334 -0.452974 0)
(1.66298 -0.41909 0)
(1.83982 -0.38753 0)
(2.00457 -0.358254 0)
(2.15796 -0.331174 0)
(2.30075 -0.306176 0)
(2.43368 -0.283138 0)
(2.55747 -0.261932 0)
(2.67281 -0.242429 0)
(2.78034 -0.224503 0)
(2.88066 -0.208035 0)
(2.97433 -0.192907 0)
(3.06188 -0.179012 0)
(3.14378 -0.166246 0)
(3.22047 -0.154516 0)
(3.29236 -0.143733 0)
(3.35982 -0.133818 0)
(3.4232 -0.124696 0)
(3.48281 -0.116301 0)
(3.53895 -0.108571 0)
(3.59187 -0.101451 0)
(3.64183 -0.0948908 0)
(3.68905 -0.0888448 0)
(3.73375 -0.0832715 0)
(3.77611 -0.0781337 0)
(3.81632 -0.0733973 0)
(3.85453 -0.0690318 0)
(3.89092 -0.0650092 0)
(3.92561 -0.0613042 0)
(3.95875 -0.0578939 0)
(3.99046 -0.0547573 0)
(4.02086 -0.0518753 0)
(4.05005 -0.0492307 0)
(4.07813 -0.0468074 0)
(4.10521 -0.0445909 0)
(4.13137 -0.0425678 0)
(4.1567 -0.0407257 0)
(4.18128 -0.0390531 0)
(4.20518 -0.0375395 0)
(4.22848 -0.036175 0)
(4.25123 -0.0349505 0)
(4.27351 -0.033857 0)
(4.29537 -0.0328866 0)
(4.31687 -0.0320312 0)
(4.33806 -0.0312835 0)
(4.35899 -0.0306361 0)
(4.37971 -0.0300821 0)
(4.40025 -0.0296144 0)
(4.42065 -0.0292264 0)
(4.44097 -0.0289112 0)
(4.46121 -0.0286621 0)
(4.48143 -0.0284725 0)
(4.50163 -0.0283355 0)
(4.52186 -0.0282446 0)
(4.54211 -0.0281928 0)
(4.56243 -0.0281736 0)
(4.58281 -0.0281801 0)
(4.60326 -0.0282058 0)
(4.6238 -0.0282443 0)
(4.64443 -0.0282893 0)
(4.66515 -0.0283349 0)
(4.68595 -0.0283754 0)
(4.70684 -0.0284056 0)
(4.72779 -0.028421 0)
(4.74882 -0.0284173 0)
(4.76989 -0.0283911 0)
(4.791 -0.0283395 0)
(4.81214 -0.0282605 0)
(4.83328 -0.0281525 0)
(4.85442 -0.028015 0)
(4.87553 -0.0278476 0)
(4.8966 -0.0276511 0)
(4.9176 -0.0274264 0)
(4.93854 -0.0271752 0)
(4.95939 -0.0268993 0)
(4.98013 -0.026601 0)
(5.00076 -0.0262827 0)
(5.02126 -0.0259468 0)
(5.04162 -0.025596 0)
(5.06183 -0.0252326 0)
(5.08189 -0.0248589 0)
(5.10179 -0.0244769 0)
(5.12152 -0.0240883 0)
(5.14107 -0.0236947 0)
(5.16044 -0.023297 0)
(5.17962 -0.0228961 0)
(5.19862 -0.0224924 0)
(5.21742 -0.0220859 0)
(5.23602 -0.0216765 0)
(5.25441 -0.0212637 0)
(5.27259 -0.0208468 0)
(5.29055 -0.020425 0)
(5.30828 -0.0199974 0)
(5.32578 -0.0195629 0)
(5.34303 -0.0191207 0)
(5.36002 -0.0186699 0)
(5.37675 -0.0182096 0)
(5.3932 -0.0177392 0)
(5.40936 -0.0172585 0)
(5.42522 -0.0167671 0)
(5.44076 -0.0162652 0)
(5.45598 -0.0157532 0)
(5.47086 -0.0152316 0)
(5.48538 -0.0147013 0)
(5.49954 -0.0141634 0)
(5.51333 -0.0136192 0)
(5.52674 -0.0130703 0)
(5.53975 -0.0125182 0)
(5.55235 -0.0119649 0)
(5.56455 -0.011412 0)
(5.57633 -0.0108616 0)
(5.5877 -0.0103154 0)
(5.59864 -0.00977541 0)
(5.60916 -0.00924335 0)
(5.61925 -0.00872097 0)
(5.62892 -0.00820983 0)
(5.63817 -0.00771144 0)
(5.647 -0.00722706 0)
(5.65541 -0.00675793 0)
(5.66343 -0.00630499 0)
(5.67104 -0.00586918 0)
(5.67826 -0.00545116 0)
(5.6851 -0.00505156 0)
(5.69156 -0.0046708 0)
(5.69766 -0.00430933 0)
(5.70342 -0.00396742 0)
(5.70883 -0.00364547 0)
(5.71392 -0.00334387 0)
(5.71869 -0.0030633 0)
(5.72317 -0.00280481 0)
(5.72736 -0.00257028 0)
(5.73129 -0.00236303 0)
(5.73496 -0.00218916 0)
(5.73841 -0.0020603 0)
(5.74166 -0.00200025 0)
(5.7447 -0.00205727 0)
(5.74832 -0.0024186 0)
(-0.283865 1.36024 0)
(-0.599086 1.5201 0)
(-0.993448 1.56725 0)
(-1.37844 1.5727 0)
(-1.75373 1.55387 0)
(-2.11879 1.5178 0)
(-2.4718 1.46911 0)
(-2.81141 1.41136 0)
(-3.13676 1.34734 0)
(-3.44734 1.27925 0)
(-3.74285 1.20873 0)
(-4.02316 1.13697 0)
(-4.28817 1.06476 0)
(-4.53776 0.992599 0)
(-4.77181 0.920774 0)
(-4.99013 0.84941 0)
(-5.19249 0.778541 0)
(-5.37862 0.708163 0)
(-5.54825 0.638248 0)
(-5.70114 0.568812 0)
(-5.837 0.49989 0)
(-5.95565 0.431556 0)
(-6.05689 0.363912 0)
(-6.14057 0.297071 0)
(-6.2066 0.231158 0)
(-6.25509 0.166272 0)
(-6.28631 0.102485 0)
(-6.30033 0.03983 0)
(-6.29677 -0.0216316 0)
(-6.27643 -0.0817688 0)
(-6.23965 -0.140571 0)
(-6.18674 -0.198236 0)
(-6.1179 -0.255079 0)
(-6.03318 -0.311501 0)
(-5.9325 -0.367944 0)
(-5.81559 -0.424853 0)
(-5.68204 -0.482626 0)
(-5.53127 -0.541555 0)
(-5.36258 -0.601769 0)
(-5.17521 -0.663156 0)
(-4.96843 -0.725297 0)
(-4.74167 -0.787439 0)
(-4.49465 -0.848495 0)
(-4.2275 -0.907068 0)
(-3.94096 -0.96153 0)
(-3.63642 -1.0102 0)
(-3.31593 -1.05145 0)
(-2.98221 -1.08383 0)
(-2.63841 -1.10621 0)
(-2.28803 -1.11787 0)
(-1.93466 -1.11874 0)
(-1.58195 -1.10942 0)
(-1.23335 -1.09125 0)
(-0.892189 -1.06642 0)
(-0.560984 -1.03701 0)
(-0.24086 -1.00351 0)
(0.0723764 -0.964253 0)
(0.360424 -0.92036 0)
(0.629357 -0.871764 0)
(0.880863 -0.820054 0)
(1.11672 -0.767019 0)
(1.33796 -0.714486 0)
(1.54525 -0.66373 0)
(1.73911 -0.61547 0)
(1.92012 -0.570058 0)
(2.08892 -0.527626 0)
(2.24621 -0.48817 0)
(2.3927 -0.451615 0)
(2.52914 -0.417836 0)
(2.65624 -0.386687 0)
(2.77468 -0.358004 0)
(2.88513 -0.331622 0)
(2.9882 -0.307374 0)
(3.08445 -0.285097 0)
(3.17443 -0.264636 0)
(3.25862 -0.245843 0)
(3.33747 -0.228581 0)
(3.41141 -0.21272 0)
(3.48082 -0.198143 0)
(3.54605 -0.18474 0)
(3.60743 -0.172411 0)
(3.66525 -0.161067 0)
(3.71978 -0.150624 0)
(3.77129 -0.141007 0)
(3.82 -0.132149 0)
(3.86613 -0.123987 0)
(3.90987 -0.116466 0)
(3.95141 -0.109535 0)
(3.99093 -0.103148 0)
(4.02857 -0.0972645 0)
(4.06449 -0.0918459 0)
(4.09882 -0.0868581 0)
(4.13169 -0.08227 0)
(4.16322 -0.0780532 0)
(4.19353 -0.0741818 0)
(4.22271 -0.0706323 0)
(4.25086 -0.0673829 0)
(4.27808 -0.0644137 0)
(4.30445 -0.0617066 0)
(4.33005 -0.0592446 0)
(4.35497 -0.0570121 0)
(4.37926 -0.0549946 0)
(4.403 -0.0531787 0)
(4.42626 -0.0515516 0)
(4.44909 -0.0501014 0)
(4.47155 -0.0488169 0)
(4.49369 -0.0476873 0)
(4.51556 -0.0467022 0)
(4.53721 -0.0458517 0)
(4.55867 -0.0451261 0)
(4.58 -0.0445159 0)
(4.60123 -0.0440119 0)
(4.62239 -0.0436047 0)
(4.64351 -0.0432853 0)
(4.66461 -0.0430443 0)
(4.68573 -0.0428727 0)
(4.70689 -0.0427613 0)
(4.72809 -0.042701 0)
(4.74936 -0.0426826 0)
(4.77071 -0.0426972 0)
(4.79214 -0.0427358 0)
(4.81366 -0.0427898 0)
(4.83528 -0.0428509 0)
(4.85698 -0.0429111 0)
(4.87877 -0.0429629 0)
(4.90064 -0.0429995 0)
(4.92258 -0.0430148 0)
(4.94458 -0.0430034 0)
(4.96663 -0.0429606 0)
(4.98871 -0.0428829 0)
(5.01081 -0.0427676 0)
(5.0329 -0.0426129 0)
(5.05499 -0.0424179 0)
(5.07704 -0.0421826 0)
(5.09904 -0.041908 0)
(5.12098 -0.0415955 0)
(5.14284 -0.0412473 0)
(5.16461 -0.040866 0)
(5.18627 -0.0404547 0)
(5.20781 -0.0400165 0)
(5.22923 -0.0395549 0)
(5.2505 -0.039073 0)
(5.27163 -0.0385742 0)
(5.29261 -0.0380612 0)
(5.31343 -0.0375368 0)
(5.33408 -0.0370032 0)
(5.35456 -0.0364621 0)
(5.37487 -0.0359149 0)
(5.395 -0.0353625 0)
(5.41495 -0.0348052 0)
(5.43471 -0.0342431 0)
(5.45428 -0.0336757 0)
(5.47366 -0.0331023 0)
(5.49283 -0.0325218 0)
(5.5118 -0.031933 0)
(5.53055 -0.0313345 0)
(5.54909 -0.030725 0)
(5.56739 -0.0301029 0)
(5.58545 -0.029467 0)
(5.60326 -0.0288162 0)
(5.62081 -0.0281496 0)
(5.63809 -0.0274665 0)
(5.65509 -0.0267667 0)
(5.67179 -0.0260501 0)
(5.68819 -0.0253172 0)
(5.70426 -0.0245688 0)
(5.72001 -0.0238059 0)
(5.73541 -0.02303 0)
(5.75046 -0.0222428 0)
(5.76515 -0.0214464 0)
(5.77947 -0.020643 0)
(5.79341 -0.0198351 0)
(5.80697 -0.019025 0)
(5.82013 -0.0182155 0)
(5.8329 -0.017409 0)
(5.84527 -0.0166084 0)
(5.85723 -0.015816 0)
(5.86879 -0.0150343 0)
(5.87995 -0.0142655 0)
(5.8907 -0.013512 0)
(5.90106 -0.0127755 0)
(5.91102 -0.012058 0)
(5.92059 -0.0113608 0)
(5.92977 -0.0106856 0)
(5.93857 -0.0100334 0)
(5.947 -0.00940532 0)
(5.95506 -0.00880216 0)
(5.96277 -0.00822472 0)
(5.97012 -0.00767361 0)
(5.97714 -0.00714956 0)
(5.98383 -0.00665322 0)
(5.9902 -0.00618562 0)
(5.99626 -0.00574813 0)
(6.00203 -0.00534305 0)
(6.00751 -0.00497416 0)
(6.01272 -0.0046481 0)
(6.01768 -0.00437677 0)
(6.02239 -0.00418295 0)
(6.02679 -0.00410987 0)
(6.03186 -0.00430393 0)
(-0.263119 1.77081 0)
(-0.561127 1.91029 0)
(-0.927528 1.94523 0)
(-1.27986 1.94033 0)
(-1.62047 1.90984 0)
(-1.94988 1.8609 0)
(-2.26747 1.79845 0)
(-2.57277 1.72638 0)
(-2.86556 1.64776 0)
(-3.14571 1.56496 0)
(-3.41317 1.47971 0)
(-3.66783 1.39322 0)
(-3.90958 1.30625 0)
(-4.13822 1.21927 0)
(-4.35345 1.13249 0)
(-4.55493 1.04599 0)
(-4.74224 0.959759 0)
(-4.91497 0.873772 0)
(-5.07269 0.78801 0)
(-5.21497 0.702501 0)
(-5.34146 0.617312 0)
(-5.45184 0.532581 0)
(-5.54587 0.448461 0)
(-5.62332 0.365149 0)
(-5.6841 0.282827 0)
(-5.72826 0.201667 0)
(-5.75608 0.121785 0)
(-5.76761 0.0433016 0)
(-5.7623 -0.0335933 0)
(-5.74126 -0.108654 0)
(-5.70484 -0.181919 0)
(-5.65341 -0.253689 0)
(-5.58721 -0.324406 0)
(-5.50631 -0.394611 0)
(-5.4106 -0.464901 0)
(-5.29978 -0.53588 0)
(-5.17336 -0.608098 0)
(-5.03065 -0.681981 0)
(-4.87077 -0.75775 0)
(-4.69275 -0.835318 0)
(-4.49558 -0.914182 0)
(-4.27843 -0.993385 0)
(-4.04071 -1.07155 0)
(-3.78231 -1.14686 0)
(-3.50377 -1.21717 0)
(-3.2064 -1.28017 0)
(-2.89219 -1.33365 0)
(-2.5639 -1.37547 0)
(-2.2248 -1.40413 0)
(-1.87877 -1.41874 0)
(-1.5298 -1.41955 0)
(-1.18224 -1.40779 0)
(-0.839511 -1.38514 0)
(-0.504837 -1.35379 0)
(-0.179744 -1.31419 0)
(0.134929 -1.26567 0)
(0.427183 -1.21046 0)
(0.700483 -1.14976 0)
(0.956207 -1.0856 0)
(1.19554 -1.01955 0)
(1.41969 -0.953254 0)
(1.62956 -0.888227 0)
(1.82586 -0.825587 0)
(2.00922 -0.766033 0)
(2.18028 -0.709948 0)
(2.33973 -0.657492 0)
(2.48829 -0.60868 0)
(2.62667 -0.563433 0)
(2.75559 -0.521611 0)
(2.87574 -0.483037 0)
(2.98777 -0.447516 0)
(3.09231 -0.414843 0)
(3.18994 -0.384812 0)
(3.28121 -0.357222 0)
(3.3666 -0.33188 0)
(3.44658 -0.308603 0)
(3.52157 -0.28722 0)
(3.59197 -0.267571 0)
(3.65812 -0.249511 0)
(3.72037 -0.232904 0)
(3.77901 -0.217628 0)
(3.83431 -0.203569 0)
(3.88654 -0.190627 0)
(3.93594 -0.178708 0)
(3.98271 -0.167729 0)
(4.02705 -0.157613 0)
(4.06917 -0.148292 0)
(4.10922 -0.139703 0)
(4.14737 -0.13179 0)
(4.18377 -0.124502 0)
(4.21855 -0.117791 0)
(4.25185 -0.111615 0)
(4.28379 -0.105937 0)
(4.31447 -0.10072 0)
(4.34401 -0.0959325 0)
(4.3725 -0.0915455 0)
(4.40003 -0.087532 0)
(4.4267 -0.0838671 0)
(4.45258 -0.0805281 0)
(4.47776 -0.077494 0)
(4.5023 -0.0747454 0)
(4.52627 -0.072264 0)
(4.54974 -0.0700329 0)
(4.57277 -0.0680363 0)
(4.59541 -0.0662592 0)
(4.61772 -0.0646874 0)
(4.63974 -0.0633074 0)
(4.66153 -0.0621062 0)
(4.68313 -0.0610712 0)
(4.70457 -0.0601902 0)
(4.7259 -0.0594512 0)
(4.74715 -0.0588426 0)
(4.76835 -0.0583526 0)
(4.78952 -0.0579698 0)
(4.8107 -0.0576825 0)
(4.8319 -0.0574792 0)
(4.85315 -0.0573485 0)
(4.87445 -0.0572789 0)
(4.89582 -0.057259 0)
(4.91727 -0.0572775 0)
(4.9388 -0.0573234 0)
(4.96042 -0.057386 0)
(4.98213 -0.0574549 0)
(5.00392 -0.0575202 0)
(5.02579 -0.0575729 0)
(5.04773 -0.0576045 0)
(5.06973 -0.0576075 0)
(5.09177 -0.0575754 0)
(5.11385 -0.0575027 0)
(5.13594 -0.0573851 0)
(5.15803 -0.0572195 0)
(5.18011 -0.0570038 0)
(5.20215 -0.0567374 0)
(5.22414 -0.0564203 0)
(5.24607 -0.056054 0)
(5.2679 -0.0556404 0)
(5.28965 -0.0551825 0)
(5.31127 -0.0546836 0)
(5.33278 -0.0541477 0)
(5.35415 -0.0535788 0)
(5.37537 -0.0529812 0)
(5.39643 -0.052359 0)
(5.41734 -0.0517161 0)
(5.43807 -0.0510562 0)
(5.45863 -0.0503824 0)
(5.47901 -0.0496975 0)
(5.49921 -0.0490036 0)
(5.51922 -0.0483022 0)
(5.53905 -0.0475944 0)
(5.55868 -0.0468806 0)
(5.57811 -0.0461605 0)
(5.59735 -0.0454336 0)
(5.61638 -0.0446989 0)
(5.6352 -0.0439549 0)
(5.65381 -0.0431999 0)
(5.6722 -0.0424323 0)
(5.69036 -0.04165 0)
(5.70828 -0.0408515 0)
(5.72596 -0.0400348 0)
(5.74339 -0.0391986 0)
(5.76055 -0.0383418 0)
(5.77744 -0.0374634 0)
(5.79405 -0.0365631 0)
(5.81036 -0.0356408 0)
(5.82636 -0.0346971 0)
(5.84205 -0.033733 0)
(5.8574 -0.0327497 0)
(5.87243 -0.031749 0)
(5.8871 -0.0307332 0)
(5.90142 -0.0297048 0)
(5.91538 -0.0286665 0)
(5.92896 -0.0276213 0)
(5.94218 -0.0265725 0)
(5.95501 -0.0255231 0)
(5.96746 -0.0244766 0)
(5.97953 -0.0234362 0)
(5.99121 -0.022405 0)
(6.00251 -0.0213861 0)
(6.01343 -0.0203824 0)
(6.02397 -0.0193966 0)
(6.03413 -0.0184313 0)
(6.04392 -0.0174886 0)
(6.05335 -0.0165706 0)
(6.06242 -0.0156791 0)
(6.07113 -0.0148155 0)
(6.0795 -0.0139814 0)
(6.08754 -0.0131778 0)
(6.09525 -0.0124056 0)
(6.10264 -0.0116657 0)
(6.10972 -0.0109591 0)
(6.1165 -0.0102865 0)
(6.123 -0.00964903 0)
(6.12922 -0.00904828 0)
(6.13517 -0.00848658 0)
(6.14087 -0.00796765 0)
(6.14631 -0.00749764 0)
(6.15152 -0.00708668 0)
(6.15649 -0.00675185 0)
(6.16114 -0.00652076 0)
(6.16652 -0.00645925 0)
(-0.237115 2.13874 0)
(-0.509349 2.25943 0)
(-0.841395 2.28088 0)
(-1.15667 2.26426 0)
(-1.46014 2.22177 0)
(-1.75257 2.16059 0)
(-2.03406 2.08581 0)
(-2.30471 2.00143 0)
(-2.56468 1.91059 0)
(-2.81408 1.81565 0)
(-3.05293 1.7183 0)
(-3.28116 1.61968 0)
(-3.49858 1.52046 0)
(-3.70487 1.42102 0)
(-3.89962 1.3215 0)
(-4.08235 1.22191 0)
(-4.25252 1.12224 0)
(-4.40957 1.02243 0)
(-4.55295 0.922489 0)
(-4.68217 0.822479 0)
(-4.79676 0.72254 0)
(-4.89637 0.622867 0)
(-4.98071 0.52371 0)
(-5.04954 0.425339 0)
(-5.10272 0.328023 0)
(-5.14039 0.23199 0)
(-5.16282 0.137408 0)
(-5.16997 0.0444638 0)
(-5.16121 -0.0464917 0)
(-5.13807 -0.135038 0)
(-5.1008 -0.221282 0)
(-5.04986 -0.305648 0)
(-4.98552 -0.38872 0)
(-4.90791 -0.4712 0)
(-4.81693 -0.553862 0)
(-4.71228 -0.637494 0)
(-4.5934 -0.722831 0)
(-4.45952 -0.810465 0)
(-4.30961 -0.90075 0)
(-4.14242 -0.993663 0)
(-3.95668 -1.08866 0)
(-3.75123 -1.18459 0)
(-3.52522 -1.27979 0)
(-3.27817 -1.37206 0)
(-3.01041 -1.45858 0)
(-2.72309 -1.53628 0)
(-2.41803 -1.6023 0)
(-2.09816 -1.65377 0)
(-1.76693 -1.68897 0)
(-1.42886 -1.70705 0)
(-1.08818 -1.70862 0)
(-0.750064 -1.69498 0)
(-0.416131 -1.66724 0)
(-0.0890919 -1.62595 0)
(0.223621 -1.57191 0)
(0.516956 -1.50809 0)
(0.79254 -1.43698 0)
(1.05093 -1.36117 0)
(1.29274 -1.28271 0)
(1.51879 -1.2033 0)
(1.73002 -1.12452 0)
(1.92732 -1.04774 0)
(2.11146 -0.974003 0)
(2.28319 -0.903978 0)
(2.44323 -0.838056 0)
(2.59232 -0.776406 0)
(2.73118 -0.719042 0)
(2.86053 -0.665869 0)
(2.98108 -0.616725 0)
(3.09348 -0.571403 0)
(3.19836 -0.52967 0)
(3.29631 -0.491286 0)
(3.38786 -0.456006 0)
(3.47353 -0.423594 0)
(3.55376 -0.39382 0)
(3.629 -0.366471 0)
(3.69962 -0.341344 0)
(3.76599 -0.318252 0)
(3.82843 -0.297023 0)
(3.88724 -0.277499 0)
(3.94271 -0.259537 0)
(3.99508 -0.243004 0)
(4.0446 -0.227782 0)
(4.09148 -0.213763 0)
(4.13593 -0.200847 0)
(4.17812 -0.188947 0)
(4.21823 -0.177982 0)
(4.25641 -0.167879 0)
(4.29283 -0.158571 0)
(4.32762 -0.149999 0)
(4.3609 -0.142109 0)
(4.39279 -0.134849 0)
(4.42342 -0.128175 0)
(4.45289 -0.122047 0)
(4.48128 -0.116425 0)
(4.50871 -0.111277 0)
(4.53525 -0.106569 0)
(4.56099 -0.102273 0)
(4.586 -0.0983615 0)
(4.61036 -0.0948103 0)
(4.63413 -0.0915961 0)
(4.65739 -0.0886973 0)
(4.68018 -0.0860939 0)
(4.70257 -0.0837669 0)
(4.72461 -0.0816986 0)
(4.74635 -0.079872 0)
(4.76784 -0.078271 0)
(4.78911 -0.07688 0)
(4.81022 -0.0756841 0)
(4.8312 -0.0746686 0)
(4.85208 -0.0738192 0)
(4.8729 -0.0731219 0)
(4.89367 -0.0725627 0)
(4.91444 -0.0721278 0)
(4.93522 -0.0718034 0)
(4.95602 -0.0715756 0)
(4.97688 -0.0714309 0)
(4.99779 -0.0713555 0)
(5.01877 -0.0713359 0)
(5.03983 -0.0713586 0)
(5.06097 -0.0714105 0)
(5.08218 -0.071479 0)
(5.10348 -0.0715518 0)
(5.12484 -0.0716172 0)
(5.14628 -0.0716646 0)
(5.16776 -0.0716841 0)
(5.18929 -0.071667 0)
(5.21085 -0.0716057 0)
(5.23242 -0.0714939 0)
(5.25398 -0.0713269 0)
(5.27552 -0.0711011 0)
(5.29703 -0.0708144 0)
(5.31847 -0.0704663 0)
(5.33984 -0.0700573 0)
(5.36111 -0.0695891 0)
(5.38228 -0.0690645 0)
(5.40332 -0.0684872 0)
(5.42423 -0.0678615 0)
(5.44498 -0.0671921 0)
(5.46557 -0.066484 0)
(5.48598 -0.0657424 0)
(5.50622 -0.0649722 0)
(5.52627 -0.0641783 0)
(5.54613 -0.0633649 0)
(5.56579 -0.0625357 0)
(5.58525 -0.061694 0)
(5.6045 -0.0608423 0)
(5.62355 -0.0599823 0)
(5.64239 -0.059115 0)
(5.66101 -0.058241 0)
(5.67942 -0.0573598 0)
(5.69761 -0.0564706 0)
(5.71558 -0.055572 0)
(5.73333 -0.0546624 0)
(5.75085 -0.0537396 0)
(5.76813 -0.0528014 0)
(5.78516 -0.0518455 0)
(5.80195 -0.0508698 0)
(5.81849 -0.0498721 0)
(5.83475 -0.0488506 0)
(5.85074 -0.047804 0)
(5.86645 -0.0467313 0)
(5.88187 -0.0456319 0)
(5.89698 -0.0445059 0)
(5.91178 -0.043354 0)
(5.92625 -0.0421772 0)
(5.9404 -0.0409772 0)
(5.9542 -0.0397564 0)
(5.96766 -0.0385172 0)
(5.98077 -0.0372628 0)
(5.99351 -0.0359966 0)
(6.0059 -0.0347222 0)
(6.01791 -0.0334434 0)
(6.02956 -0.0321643 0)
(6.04084 -0.0308886 0)
(6.05175 -0.0296205 0)
(6.06229 -0.0283637 0)
(6.07247 -0.0271219 0)
(6.08229 -0.0258985 0)
(6.09176 -0.0246968 0)
(6.10088 -0.0235198 0)
(6.10965 -0.0223703 0)
(6.11809 -0.0212504 0)
(6.1262 -0.0201625 0)
(6.134 -0.0191083 0)
(6.14149 -0.0180894 0)
(6.14867 -0.017107 0)
(6.15557 -0.0161623 0)
(6.16219 -0.0152563 0)
(6.16854 -0.0143898 0)
(6.17463 -0.0135638 0)
(6.18047 -0.0127792 0)
(6.18607 -0.0120376 0)
(6.19145 -0.0113411 0)
(6.1966 -0.010693 0)
(6.20154 -0.0100983 0)
(6.20627 -0.00956448 0)
(6.2108 -0.00910222 0)
(6.21503 -0.0087238 0)
(6.21999 -0.00844667 0)
(-0.208097 2.45957 0)
(-0.449103 2.56392 0)
(-0.742499 2.5721 0)
(-1.01793 2.54379 0)
(-1.28264 2.48991 0)
(-1.53708 2.41769 0)
(-1.78186 2.33225 0)
(-2.0174 2.23757 0)
(-2.24406 2.13671 0)
(-2.46205 2.03194 0)
(-2.67146 1.92481 0)
(-2.87216 1.81631 0)
(-3.0639 1.70701 0)
(-3.2463 1.59717 0)
(-3.41885 1.48686 0)
(-3.58096 1.37603 0)
(-3.732 1.26464 0)
(-3.87134 1.15263 0)
(-3.99836 1.04006 0)
(-4.11247 0.927039 0)
(-4.21318 0.813784 0)
(-4.30011 0.700572 0)
(-4.37291 0.587752 0)
(-4.43134 0.475683 0)
(-4.47529 0.364732 0)
(-4.50486 0.255197 0)
(-4.52038 0.147304 0)
(-4.52169 0.0412968 0)
(-4.50815 -0.0622995 0)
(-4.48161 -0.162858 0)
(-4.44223 -0.260581 0)
(-4.39049 -0.356003 0)
(-4.32674 -0.449852 0)
(-4.25117 -0.542998 0)
(-4.16374 -0.636408 0)
(-4.06417 -0.731077 0)
(-3.95193 -0.827956 0)
(-3.8262 -0.927843 0)
(-3.68583 -1.03127 0)
(-3.52937 -1.13836 0)
(-3.35526 -1.24857 0)
(-3.16209 -1.36059 0)
(-2.94875 -1.47243 0)
(-2.71437 -1.58151 0)
(-2.45896 -1.68422 0)
(-2.18369 -1.77655 0)
(-1.89012 -1.85523 0)
(-1.58176 -1.9167 0)
(-1.26215 -1.95917 0)
(-0.936525 -1.98172 0)
(-0.608442 -1.98444 0)
(-0.284346 -1.9678 0)
(0.0402938 -1.93089 0)
(0.345732 -1.87705 0)
(0.635959 -1.80905 0)
(0.910345 -1.73075 0)
(1.1686 -1.64538 0)
(1.41071 -1.55565 0)
(1.63702 -1.4638 0)
(1.84817 -1.37176 0)
(2.04501 -1.28113 0)
(2.22843 -1.19326 0)
(2.39925 -1.10913 0)
(2.55831 -1.02939 0)
(2.70638 -0.95442 0)
(2.84423 -0.884368 0)
(2.97262 -0.819229 0)
(3.09224 -0.758881 0)
(3.20377 -0.703129 0)
(3.30784 -0.651728 0)
(3.40504 -0.60441 0)
(3.49591 -0.560895 0)
(3.58094 -0.520903 0)
(3.6606 -0.484161 0)
(3.73531 -0.450408 0)
(3.80545 -0.4194 0)
(3.87137 -0.390907 0)
(3.9334 -0.364716 0)
(3.99183 -0.340634 0)
(4.04694 -0.318482 0)
(4.09898 -0.298096 0)
(4.14817 -0.279328 0)
(4.19474 -0.262045 0)
(4.23887 -0.246125 0)
(4.28076 -0.231456 0)
(4.32056 -0.217939 0)
(4.35844 -0.205482 0)
(4.39455 -0.194005 0)
(4.42901 -0.183431 0)
(4.46197 -0.173693 0)
(4.49353 -0.164731 0)
(4.52381 -0.156486 0)
(4.55291 -0.148909 0)
(4.58093 -0.141952 0)
(4.60797 -0.135573 0)
(4.63411 -0.129733 0)
(4.65942 -0.124396 0)