/*--------------------------------*- C++ -*----------------------------------*\
  =========                 |
  \\      /  F ield         | OpenFOAM: The Open Source CFD Toolbox
   \\    /   O peration     | Website:  https://openfoam.org
    \\  /    A nd           | Version:  7
     \\/     M anipulation  |
\*---------------------------------------------------------------------------*/
FoamFile
{
    version     2.0;
    format      ascii;
    class       surfaceScalarField;
    location    "6.6";
    object      phi;
}
// * * * * * * * * * * * * * * * * * * * * * * * * * * * * * * * * * * * * * //

dimensions      [0 3 -1 0 0 0 0];

internalField   nonuniform List<scalar> 
1740
(
7.72563e-07
-7.72218e-07
4.03372e-07
3.69167e-07
-1.50112e-06
1.90448e-06
-4.77435e-06
3.27326e-06
-9.07645e-06
4.3021e-06
-1.40683e-05
4.99189e-06
-1.94652e-05
5.39682e-06
-2.50355e-05
5.57039e-06
-3.05809e-05
5.54537e-06
-3.59124e-05
5.33146e-06
-4.08333e-05
4.9209e-06
-4.51307e-05
4.29744e-06
-4.85772e-05
3.44648e-06
-5.09421e-05
2.36491e-06
-5.20119e-05
1.06985e-06
-5.16163e-05
-3.95675e-07
-4.96569e-05
-1.95941e-06
-4.61365e-05
-3.52032e-06
-4.11806e-05
-4.95592e-06
-3.50466e-05
-6.13406e-06
-2.81177e-05
-6.92881e-06
-2.08787e-05
-7.23909e-06
-1.3872e-05
-7.00661e-06
-7.64239e-06
-6.22965e-06
-2.67177e-06
-4.97061e-06
6.89343e-07
-3.36111e-06
2.29585e-06
-1.6065e-06
2.26271e-06
3.31513e-08
1.09394e-06
1.16877e-06
1.09395e-06
-3.52387e-07
-4.1985e-07
-3.4926e-06
3.50934e-06
-9.95216e-06
8.36402e-06
-1.93506e-05
1.26717e-05
-3.10551e-05
1.60066e-05
-4.43773e-05
1.83142e-05
-5.86682e-05
1.96876e-05
-7.3341e-05
2.02432e-05
-8.78545e-05
2.00589e-05
-0.000101683
1.916e-05
-0.000114292
1.75303e-05
-0.000125131
1.51362e-05
-0.000133641
1.19561e-05
-0.000139285
8.00879e-06
-0.000141593
3.37769e-06
-0.000140222
-1.76628e-06
-0.000135001
-7.18088e-06
-0.000126
-1.25211e-05
-0.000113561
-1.73944e-05
-9.83124e-05
-2.13829e-05
-8.11471e-05
-2.40941e-05
-6.31695e-05
-2.52167e-05
-4.56014e-05
-2.45747e-05
-2.96603e-05
-2.21708e-05
-1.64184e-05
-1.82124e-05
-6.65958e-06
-1.312e-05
-7.4134e-07
-7.52474e-06
1.57624e-06
-2.28441e-06
1.22185e-06
1.52317e-06
2.3158e-06
-2.05658e-06
1.63672e-06
-8.92487e-06
1.03777e-05
-2.04396e-05
1.98788e-05
-3.5944e-05
2.81761e-05
-5.4557e-05
3.46197e-05
-7.5346e-05
3.91032e-05
-9.74107e-05
4.17523e-05
-0.000119905
4.27378e-05
-0.000142023
4.21767e-05
-0.000162969
4.0106e-05
-0.00018194
3.65015e-05
-0.000198123
3.13189e-05
-0.000210713
2.45463e-05
-0.000218959
1.62552e-05
-0.000222225
6.64331e-06
-0.000220054
-3.93766e-06
-0.000212249
-1.49855e-05
-0.000198938
-2.58319e-05
-0.000180617
-3.57161e-05
-0.000158162
-4.38373e-05
-0.000132811
-4.94453e-05
-0.000106085
-5.19426e-05
-7.96738e-05
-5.09859e-05
-5.52735e-05
-4.65711e-05
-3.43994e-05
-3.90865e-05
-1.8189e-05
-2.93304e-05
-7.21418e-06
-1.84995e-05
-1.33697e-06
-8.16161e-06
4.4318e-07
-2.56974e-07
2.75897e-06
-3.87409e-06
5.5108e-06
-1.46907e-05
2.11943e-05
-3.14598e-05
3.66479e-05
-5.30547e-05
4.9771e-05
-7.8297e-05
5.98619e-05
-0.000106033
6.68388e-05
-0.000135168
7.08874e-05
-0.000164666
7.2236e-05
-0.000193524
7.10352e-05
-0.000220747
6.73281e-05
-0.000245325
6.108e-05
-0.000266247
5.22411e-05
-0.000282523
4.08223e-05
-0.000293238
2.69697e-05
-0.00029762
1.10252e-05
-0.00029512
-6.43763e-06
-0.000285495
-2.46105e-05
-0.000268881
-4.24458e-05
-0.000245846
-5.87506e-05
-0.000217415
-7.22689e-05
-0.000185045
-8.18152e-05
-0.000150559
-8.64287e-05
-0.000116013
-8.55319e-05
-8.35137e-05
-7.90701e-05
-5.49954e-05
-6.76048e-05
-3.19785e-05
-5.23473e-05
-1.53473e-05
-3.51307e-05
-5.17515e-06
-1.83338e-05
-6.45304e-07
-4.78681e-06
2.11367e-06
-5.62758e-06
1.11384e-05
-2.03615e-05
3.59282e-05
-4.23432e-05
5.86296e-05
-6.98996e-05
7.73274e-05
-0.000101513
9.14757e-05
-0.00013581
0.000101136
-0.000171533
0.000106611
-0.000207505
0.000108207
-0.000242581
0.000106112
-0.000275623
0.00010037
-0.000305474
9.09311e-05
-0.000330972
7.77395e-05
-0.000350982
6.08316e-05
-0.000364446
4.0434e-05
-0.000370463
1.70425e-05
-0.00036837
-8.5312e-06
-0.000357823
-3.51574e-05
-0.000338893
-6.13754e-05
-0.000312128
-8.55158e-05
-0.000278593
-0.000105803
-0.000239876
-0.000120533
-0.000198024
-0.000128281
-0.000155423
-0.000128133
-0.000114597
-0.000119896
-7.79512e-05
-0.00010425
-4.74841e-05
-8.28144e-05
-2.45126e-05
-5.81022e-05
-9.46678e-06
-3.33796e-05
-1.79662e-06
-1.2457e-05
3.17052e-07
-7.26299e-06
1.84014e-05
-2.57369e-05
5.44021e-05
-5.27249e-05
8.56177e-05
-8.59962e-05
0.000110599
-0.000123683
0.000129162
-0.000164194
0.000141647
-0.000206135
0.000148551
-0.000248221
0.000150293
-0.000289218
0.000147108
-0.000327889
0.000139041
-0.00036298
0.000126022
-0.000393216
0.000107976
-0.00041734
8.49552e-05
-0.000434161
5.7255e-05
-0.000442629
2.55104e-05
-0.000441921
-9.23936e-06
-0.000431523
-4.5555e-05
-0.000411348
-8.15505e-05
-0.000381814
-0.00011505
-0.000343923
-0.000143695
-0.000299295
-0.000165161
-0.000250146
-0.000177429
-0.000199182
-0.000179097
-0.000149391
-0.000169686
-0.000103756
-0.000149886
-6.4893e-05
-0.000121677
-3.47121e-05
-8.82831e-05
-1.41389e-05
-5.39528e-05
-2.98919e-06
-2.36067e-05
-2.67214e-06
-8.76103e-06
2.71624e-05
-3.07066e-05
7.63477e-05
-6.23728e-05
0.000117284
-0.000101002
0.000149228
-0.00014439
0.00017255
-0.000190747
0.000188005
-0.000238562
0.000196366
-0.000286482
0.000198212
-0.000333217
0.000193843
-0.000377481
0.000183306
-0.000417956
0.000166497
-0.000453292
0.000143311
-0.000482126
0.000113789
-0.000503132
7.82612e-05
-0.000515085
3.74634e-05
-0.000516955
-7.36981e-06
-0.000507969
-5.45406e-05
-0.000487783
-0.000101737
-0.000456567
-0.000146265
-0.000415136
-0.000185126
-0.000365037
-0.00021526
-0.000308582
-0.000233885
-0.00024878
-0.000238899
-0.000189144
-0.000229322
-0.000133361
-0.000205669
-8.48552e-05
-0.000170182
-4.63283e-05
-0.00012681
-1.93741e-05
-8.0907e-05
-4.27708e-06
-3.87037e-05
-6.94923e-06
-1.01043e-05
3.72667e-05
-3.51826e-05
0.000101426
-7.10957e-05
0.000153197
-0.000114616
0.000192748
-0.00016324
0.000221174
-0.000215005
0.000239771
-0.000268313
0.000249674
-0.000321771
0.00025167
-0.000374075
0.000246147
-0.000423926
0.000233157
-0.000469983
0.000212554
-0.000510846
0.000184175
-0.000545068
0.000148012
-0.000571188
0.000104381
-0.00058778
5.40548e-05
-0.000593572
-1.5777e-06
-0.000587439
-6.06731e-05
-0.000568691
-0.000120485
-0.000537121
-0.000177836
-0.000493214
-0.000229033
-0.000438306
-0.000270168
-0.000374695
-0.000297495
-0.000305643
-0.000307951
-0.00023522
-0.000299745
-0.000167951
-0.000272939
-0.000108282
-0.000229851
-5.99637e-05
-0.000175129
-2.54885e-05
-0.000115382
-5.75981e-06
-5.84324e-05
-1.2709e-05
-1.12672e-05
4.85339e-05
-3.90689e-05
0.000129228
-7.86973e-05
0.000192825
-0.000126528
0.000240579
-0.000179808
0.000274454
-0.000236436
0.000296399
-0.000294754
0.000307992
-0.000353363
0.000310279
-0.000410978
0.000303762
-0.000466324
0.000288502
-0.000518073
0.000264303
-0.000564811
0.000230913
-0.000605031
0.000188232
-0.000637148
0.000136498
-0.000659546
7.64519e-05
-0.000670603
9.47967e-06
-0.000668914
-6.23617e-05
-0.000653275
-0.000136124
-0.000622989
-0.000208122
-0.000578058
-0.000273964
-0.000519433
-0.000328793
-0.000449227
-0.000367702
-0.000370832
-0.000386346
-0.000288845
-0.000381732
-0.000208729
-0.000353055
-0.000136185
-0.000302395
-7.63271e-05
-0.000234987
-3.28649e-05
-0.000158844
-7.55715e-06
-8.37401e-05
-2.02662e-05
-1.22168e-05
6.07507e-05
-4.22569e-05
0.000159268
-8.49658e-05
0.000235534
-0.000136407
0.00029202
-0.00019363
0.000331676
-0.00025443
0.0003572
-0.000317122
0.000370684
-0.000380327
0.000373484
-0.000442807
0.000366243
-0.000503351
0.000349045
-0.00056068
0.000321632
-0.000613404
0.000283637
-0.000659992
0.00023482
-0.000698768
0.000175274
-0.000727931
0.000105614
-0.000745591
2.71404e-05
-0.000749918
-5.80346e-05
-0.000739214
-0.000146828
-0.000712172
-0.000235163
-0.000668152
-0.000317984
-0.000607504
-0.000389441
-0.000531917
-0.000443288
-0.000444691
-0.000473572
-0.000350815
-0.000475609
-0.000256708
-0.000447162
-0.000169537
-0.000389565
-9.61537e-05
-0.00030837
-4.1915e-05
-0.000213083
-9.79854e-06
-0.000115857
-3.00647e-05
-1.29165e-05
7.36672e-05
-4.46333e-05
0.000190985
-8.96845e-05
0.000280586
-0.00014391
0.000346246
-0.000204215
0.000391981
-0.000268328
0.000421312
-0.000334556
0.000436912
-0.000401564
0.000440492
-0.000468194
0.000432872
-0.000533322
0.000414174
-0.000595764
0.000384074
-0.000654198
0.000342071
-0.000707119
0.000287742
-0.000752816
0.000220971
-0.000789359
0.000142158
-0.000814634
5.24149e-05
-0.00082642
-4.62488e-05
-0.000822509
-0.000150739
-0.000800928
-0.000256744
-0.000760247
-0.000358666
-0.000699988
-0.000449699
-0.000621111
-0.000522166
-0.00052648
-0.000568203
-0.000421185
-0.000580903
-0.00031248
-0.000555867
-0.000209133
-0.000492912
-0.000120137
-0.000397367
-5.30558e-05
-0.000280164
-1.26192e-05
-0.000156293
-4.26839e-05
-1.33327e-05
8.69999e-05
-4.60952e-05
0.000223747
-9.26559e-05
0.000327146
-0.000148719
0.000402308
-0.000211094
0.000454357
-0.00027747
0.000487688
-0.000346165
0.000505607
-0.000415903
0.00051023
-0.000485623
0.000502592
-0.000554323
0.000482874
-0.000620947
0.000450698
-0.000684295
0.000405419
-0.000742956
0.000346402
-0.000795258
0.000273272
-0.000839239
0.000186139
-0.000872645
8.58206e-05
-0.000892963
-2.59303e-05
-0.000897535
-0.000146168
-0.000883716
-0.000270563
-0.0008492
-0.000393181
-0.00079247
-0.000506429
-0.000713404
-0.000601233
-0.000613978
-0.000667629
-0.00049891
-0.000695971
-0.000375946
-0.00067883
-0.000255425
-0.000613433
-0.000148852
-0.00050394
-6.66861e-05
-0.00036233
-1.61583e-05
-0.000206821
-5.88422e-05
-1.34417e-05
0.000100442
-4.65706e-05
0.000256876
-9.37356e-05
0.000374311
-0.000150586
0.000459159
-0.000213881
0.000517651
-0.000281283
0.00055509
-0.000351132
0.000575456
-0.000422219
0.000581318
-0.000493594
0.000573966
-0.000564399
0.00055368
-0.000633747
0.000520046
-0.000700611
0.000472283
-0.000763749
0.00040954
-0.000821628
0.000331152
-0.000872375
0.000236886
-0.000913737
0.000127182
-0.000943053
3.38566e-06
-0.00095736
-0.000131861
-0.000953426
-0.000274497
-0.000928068
-0.000418539
-0.00087858
-0.000555917
-0.000803429
-0.000676384
-0.000703171
-0.000767887
-0.000581491
-0.000817651
-0.000446008
-0.000814313
-0.000308315
-0.000751126
-0.000182657
-0.000629598
-8.31583e-05
-0.000461829
-2.05571e-05
-0.000269422
-7.93993e-05
-1.32375e-05
0.000113679
-4.60405e-05
0.000289679
-9.28727e-05
0.000421143
-0.000149397
0.000515683
-0.000212347
0.000580601
-0.000279371
0.000622115
-0.000348832
0.000644917
-0.000419591
0.000652076
-0.000490813
0.000645189
-0.000561807
0.000624674
-0.000631884
0.000590122
-0.000700247
0.000540646
-0.000765899
0.000475191
-0.000827555
0.000392808
-0.000883568
0.000292899
-0.000931853
0.000175468
-0.000969842
4.13738e-05
-0.000994407
-0.000107296
-0.00100196
-0.000266943
-0.000988553
-0.000431948
-0.000950267
-0.000594203
-0.000883911
-0.000742739
-0.000788102
-0.000863696
-0.000664693
-0.000941061
-0.000520253
-0.000958752
-0.000366914
-0.000904465
-0.000221565
-0.000774948
-0.000102736
-0.000580658
-2.59539e-05
-0.000346204
-0.000105353
-1.27405e-05
0.00012642
-4.45643e-05
0.000321503
-9.01531e-05
0.000466732
-0.000145225
0.000570755
-0.000206504
0.00064188
-0.000271626
0.000687237
-0.000338972
0.000712262
-0.00040747
0.000720574
-0.000476412
0.000714131
-0.000545283
0.000693545
-0.000613626
0.000658465
-0.00068092
0.00060794
-0.000746486
0.000540757
-0.000809391
0.000455713
-0.000868357
0.000351865
-0.000921655
0.000228766
-0.000966999
8.67179e-05
-0.00100141
-7.28882e-05
-0.00102119
-0.00024716
-0.00102188
-0.000431259
-0.000998493
-0.000617588
-0.000946122
-0.00079511
-0.000861039
-0.000948779
-0.000742452
-0.00105965
-0.000594712
-0.00110649
-0.000429286
-0.00106989
-0.000265082
-0.000939151
-0.000125536
-0.000720204
-3.24762e-05
-0.000439263
-0.000137829
-1.20052e-05
0.000138425
-4.23044e-05
0.000351802
-8.58439e-05
0.000510272
-0.000138402
0.000623313
-0.000196688
0.000700167
-0.000258322
0.000748871
-0.000321702
0.000775642
-0.000385831
0.000784703
-0.000450134
0.000778433
-0.00051429
0.000757702
-0.000578098
0.000722272
-0.000641355
0.000671198
-0.000703763
0.000603165
-0.000764826
0.000516776
-0.000823753
0.000410792
-0.000879334
0.000284348
-0.000929793
0.000137177
-0.000972542
-3.01391e-05
-0.00100416
-0.000215546
-0.00101999
-0.00041542
-0.00101435
-0.000623231
-0.000980777
-0.000828685
-0.000913062
-0.00101649
-0.00080711
-0.0011656
-0.000663789
-0.00124981
-0.000492242
-0.00124144
-0.000312039
-0.00111935
-0.000151462
-0.000880782
-4.0231e-05
-0.000550494
-0.00017806
-1.1129e-05
0.000149554
-3.95526e-05
0.000380225
-8.04375e-05
0.000551157
-0.000129571
0.000672446
-0.000183624
0.00075422
-0.000240196
0.000805443
-0.000297718
0.000833165
-0.000355286
0.000842271
-0.000412477
0.000835625
-0.00046919
0.000814415
-0.000525506
0.000778588
-0.000581574
0.000727266
-0.000637516
0.000659107
-0.000693334
0.000572595
-0.000748808
0.000466266
-0.000803363
0.000338902
-0.000855899
0.000189713
-0.000904505
1.84669e-05
-0.00094629
-0.000173762
-0.000976911
-0.000384799
-0.000990427
-0.000609715
-0.000979309
-0.000839803
-0.000935084
-0.00106072
-0.000850051
-0.00125063
-0.000720486
-0.00137938
-0.000551262
-0.00141066
-0.000360437
-0.00131018
-0.00018013
-0.00106109
-4.92964e-05
-0.000681327
-0.000227357
-1.02633e-05
0.000159817
-3.67616e-05
0.000406724
-7.46995e-05
0.000589095
-0.000119745
0.000717491
-0.000168481
0.000802956
-0.0002185
0.000855462
-0.000268303
0.000882967
-0.000317123
0.000891091
-0.000364737
0.000883239
-0.000411299
0.000860977
-0.000457203
0.000824492
-0.000502976
0.000773039
-0.000549185
0.000705316
-0.000596354
0.000619763
-0.000644865
0.000514777
-0.000694833
0.00038887
-0.000745917
0.000240797
-0.000797129
6.96785e-05
-0.000846262
-0.000124629
-0.000889774
-0.000341287
-0.000922064
-0.000577425
-0.000935214
-0.000826653
-0.000919118
-0.00107682
-0.000862691
-0.00130706
-0.000756963
-0.00148511
-0.000600636
-0.00156699
-0.00040737
-0.00150344
-0.000210813
-0.00125765
-5.97241e-05
-0.000832416
-0.000287081
-9.63244e-06
0.000169449
-3.45898e-05
0.000431681
-6.97256e-05
0.00062423
-0.000110356
0.000758121
-0.000152911
0.000845511
-0.000195012
0.000897563
-0.000235311
0.000923267
-0.000273271
0.000929051
-0.000308944
0.000918911
-0.000342796
0.000894829
-0.000375572
0.000857269
-0.000408197
0.000805663
-0.000441686
0.000738805
-0.000477077
0.000655154
-0.000515341
0.000553041
-0.000557268
0.000430798
-0.000603305
0.000286834
-0.000653325
0.000119698
-0.00070618
-7.17738e-05
-0.000759339
-0.000288128
-0.000808134
-0.00052863
-0.000845093
-0.000789694
-0.000859462
-0.00106245
-0.0008376
-0.00132892
-0.000765356
-0.00155735
-0.000633828
-0.00169852
-0.000449043
-0.00168823
-0.00024241
-0.00146428
-7.15655e-05
-0.00100326
-0.000358646
-9.56918e-06
0.000179019
-3.39758e-05
0.000456088
-6.70236e-05
0.000657278
-0.000103313
0.00079441
-0.000139056
0.000881254
-0.000171994
0.000930502
-0.000201085
0.000952358
-0.000226164
0.000954129
-0.000247674
0.000940422
-0.000266476
0.00091363
-0.000283711
0.000874504
-0.000300711
0.000822663
-0.000318929
0.000757024
-0.000339877
0.000676102
-0.000365053
0.000578217
-0.000395853
0.000461598
-0.000433431
0.000324412
-0.000478497
0.000164764
-0.000530971
-1.92997e-05
-0.000589548
-0.000229551
-0.000650943
-0.000467235
-0.00070895
-0.000731687
-0.000753372
-0.00101802
-0.000769384
-0.00131291
-0.000738597
-0.00158814
-0.000643977
-0.00179314
-0.000480894
-0.00185131
-0.000273439
-0.00167174
-8.49307e-05
-0.00119177
-0.000443577
-1.05877e-05
0.000189606
-3.62685e-05
0.000481769
-6.86315e-05
0.000689641
-0.000101058
0.000826837
-0.00012952
0.000909716
-0.000152084
0.000953065
-0.000168255
0.000968529
-0.000178461
0.000964336
-0.000183699
0.000945659
-0.000185318
0.00091525
-0.000184904
0.000874089
-0.0001842
0.000821959
-0.000185059
0.000757884
-0.000189403
0.000680446
-0.000199168
0.000587982
-0.00021624
0.00047867
-0.000242353
0.000350525
-0.000278939
0.00020135
-0.000326904
2.8665e-05
-0.000386179
-0.000170275
-0.000455145
-0.00039827
-0.000529518
-0.000657313
-0.000600871
-0.000946672
-0.000654944
-0.00125883
-0.000670918
-0.00157216
-0.000624318
-0.00183974
-0.000497707
-0.00197792
-0.000301994
-0.00186745
-0.000100081
-0.00139368
-0.000543658
-1.35256e-05
0.000203132
-4.34444e-05
0.000511687
-7.72736e-05
0.00072347
-0.000106578
0.000856141
-0.000127228
0.000930366
-0.000137995
0.000963833
-0.000139325
0.000969859
-0.000132533
0.000957544
-0.000119361
0.000932487
-0.000101757
0.000897646
-8.17828e-05
0.000854115
-6.15809e-05
0.000801757
-4.33513e-05
0.000739654
-2.93397e-05
0.000666435
-2.18064e-05
0.000580449
-2.29849e-05
0.000479848
-3.50376e-05
0.000362578
-5.99768e-05
0.000226289
-9.95101e-05
6.81984e-05
-0.000154762
-0.000115024
-0.000225787
-0.000327244
-0.000310628
-0.000572473
-0.000403618
-0.000853682
-0.0004929
-0.00116955
-0.000557716
-0.00150735
-0.00056822
-0.00182923
-0.000493528
-0.00205261
-0.000325565
-0.00203541
-0.000117501
-0.00160175
-0.000661159
-1.98115e-05
0.000222943
-5.84306e-05
0.000550307
-9.64794e-05
0.000761519
-0.000123217
0.000882879
-0.000134929
0.000942079
-0.000131789
0.000960692
-0.000115737
0.000953807
-8.93519e-05
0.000931158
-5.53289e-05
0.000898464
-1.63055e-05
0.000858622
2.51747e-05
0.000812635
6.66245e-05
0.000760307
0.000105575
0.000700704
0.000139562
0.000632447
0.000166114
0.000553897
0.000182756
0.000463207
0.000187025
0.000358309
0.000176501
0.000236813
0.000148848
9.5851e-05
0.000101937
-6.81123e-05
3.41595e-05
-0.000259467
-5.4893e-05
-0.00048342
-0.00016296
-0.000745615
-0.000282187
-0.00105033
-0.000394667
-0.00139487
-0.000468629
-0.00175527
-0.000461138
-0.0020601
-0.000340482
-0.00215607
-0.000137816
-0.00180441
-0.000798975
-3.19365e-05
0.00025488
-8.54588e-05
0.000603829
-0.000130355
0.000806415
-0.000153773
0.000906297
-0.000153722
0.000942027
-0.000132931
0.000939901
-9.55967e-05
0.000916473
-4.5972e-05
0.000881534
1.21101e-05
0.000840382
7.52953e-05
0.000795437
0.000140589
0.000747341
0.000205241
0.000695656
0.000266633
0.000639312
0.0003222
0.00057688
0.000369383
0.000506713
0.000405596
0.000426994
0.000428199
0.000335706
0.000434474
0.000230538
0.000421591
0.000108734
0.000386595
-3.31162e-05
0.000326579
-0.000199451
0.000238919
-0.00039576
0.000122466
-0.000629162
-1.98579e-05
-0.000908002
-0.000176064
-0.00123866
-0.000316737
-0.0016146
-0.000390778
-0.00198606
-0.000340627
-0.00220622
-0.000161169
-0.00198387
-0.000960144
-5.4188e-05
0.000309068
-0.000130022
0.000679663
-0.000181972
0.000858366
-0.00019742
0.000921745
-0.000178856
0.000923464
-0.00013334
0.000894385
-6.82307e-05
0.000851364
1.01785e-05
0.000803125
9.68625e-05
0.000753698
0.000187816
0.000704483
0.000279754
0.000655404
0.000369829
0.000605581
0.000455432
0.000553709
0.000534051
0.000498262
0.000603174
0.000437591
0.000660219
0.000369948
0.000702476
0.00029345
0.000727028
0.000205986
0.000730673
0.000105089
0.000709768
-1.22117e-05
0.00066045
-0.000150132
0.000578266
-0.000313576
0.000458982
-0.000509878
0.000300313
-0.000749334
0.000106985
-0.00104533
-9.94954e-05
-0.00140812
-0.000267673
-0.00181789
-0.00031472
-0.00215917
-0.000185401
-0.00211319
-0.00114554
-9.33728e-05
0.000402441
-0.00019668
0.000782969
-0.000247213
0.0009089
-0.00024056
0.000915091
-0.000188796
0.0008717
-0.000105606
0.000811195
-2.25633e-06
0.000748014
0.000112935
0.000687933
0.000234039
0.000632595
0.000356796
0.000581725
0.000477998
0.000534202
0.000595028
0.000488551
0.000705562
0.000443175
0.000807365
0.000396459
0.000898157
0.000346798
0.000975515
0.00029259
0.00103678
0.00023218
0.00107898
0.000163786
0.00109869
8.53853e-05
0.00109169
-5.21318e-06
0.00105359
-0.000112031
0.000978532
-0.000238521
0.000859995
-0.000391341
0.000691256
-0.000580594
0.000468653
-0.00082273
0.000201689
-0.00114116
-6.61676e-05
-0.00155003
-0.000241227
-0.00198411
-0.000202886
-0.00215153
-0.00134843
-0.000157628
0.000560069
-0.000277494
0.000902835
-0.000294532
0.000925938
-0.000232275
0.000852835
-0.000119796
0.000759221
2.11855e-05
0.000670213
0.000176284
0.000592915
0.00033647
0.000527747
0.000496206
0.000472858
0.000652035
0.000425896
0.000801634
0.000384604
0.000943226
0.000346958
0.00107523
0.000311174
0.00119602
0.000275665
0.00130382
0.000238996
0.00139658
0.000199832
0.00147189
0.00015687
0.00152691
0.000108773
0.00155818
5.41128e-05
0.00156143
-8.46885e-06
0.00153176
-8.23569e-05
0.0014627
-0.000169463
0.00134633
-0.000274971
0.00117283
-0.000407092
0.000931273
-0.000581171
0.000615862
-0.000825745
0.000248238
-0.00118241
-7.88961e-05
-0.00165698
-0.000194091
-0.00203633
-0.00154252
-0.000243556
0.000803624
-0.000303068
0.000962347
-0.000204866
0.000827736
-2.67965e-05
0.000674765
0.000182483
0.000549942
0.000399226
0.00045347
0.000611825
0.000380317
0.000814862
0.00032471
0.00100613
0.000281595
0.00118489
0.000247135
0.00135096
0.000218527
0.00150423
0.00019369
0.00164438
0.000171025
0.00177078
0.000149263
0.00188242
0.000127354
0.00197786
0.000104395
0.00205516
7.95675e-05
0.00211185
5.20847e-05
0.00214478
2.11779e-05
0.00215045
-1.4138e-05
0.00212342
-5.53207e-05
0.00205765
-0.0001037
0.00194492
-0.000162239
0.00177397
-0.000236142
0.00152902
-0.000336219
0.00118979
-0.000486512
0.000745365
-0.000737984
0.000252983
-0.0011646
-8.14081e-05
-0.00170194
-0.00162393
-0.000193813
0.000997437
1.92904e-05
0.000749244
0.000374094
0.000472933
0.00071472
0.000334139
0.00101971
0.000244947
0.00128891
0.000184271
0.00152582
0.000143411
0.00173495
0.000115581
0.00192064
9.59034e-05
0.00208646
8.13163e-05
0.00223506
6.9926e-05
0.00236825
6.0502e-05
0.00248707
5.22014e-05
0.00259192
4.44203e-05
0.00268256
3.67048e-05
0.00275826
2.86948e-05
0.00281774
2.00871e-05
0.00285918
1.06476e-05
0.00287985
5.07527e-07
0.00287793
-1.222e-05
0.00284832
-2.57034e-05
0.00278641
-4.17978e-05
0.00268533
-6.11511e-05
0.00253481
-8.56275e-05
0.00231814
-0.000119549
0.00200601
-0.000174378
0.00155135
-0.000283328
0.000927158
-0.000540404
0.000263714
-0.0010385
-0.00136022
0.000997437
0.00174668
0.00221961
0.00255375
0.0027987
0.00298297
0.00312638
0.00324196
0.00333787
0.00341918
0.00348911
0.00354961
0.00360181
0.00364623
0.00368294
0.00371163
0.00373172
0.00374237
0.00374287
0.00373065
0.00370495
0.00366315
0.003602
0.00351637
0.00339682
0.00322245
0.00293912
0.00239871
0.00136022
)
;

boundaryField
{
    movingWall
    {
        type            calculated;
        value           uniform 0;
    }
    fixedWalls
    {
        type            calculated;
        value           uniform 0;
    }
    frontAndBack
    {
        type            empty;
        value           nonuniform 0();
    }
}


// ************************************************************************* //
