/*--------------------------------*- C++ -*----------------------------------*\
  =========                 |
  \\      /  F ield         | OpenFOAM: The Open Source CFD Toolbox
   \\    /   O peration     | Website:  https://openfoam.org
    \\  /    A nd           | Version:  7
     \\/     M anipulation  |
\*---------------------------------------------------------------------------*/
FoamFile
{
    version     2.0;
    format      ascii;
    class       volScalarField;
    location    "700";
    object      epsilon;
}
// * * * * * * * * * * * * * * * * * * * * * * * * * * * * * * * * * * * * * //

dimensions      [0 2 -3 0 0 0 0];

internalField   nonuniform List<scalar> 
4500
(
789.607
724.717
675.056
641.444
616.337
596.999
581.733
569.399
559.236
550.727
543.512
537.331
531.994
527.355
523.302
519.746
516.618
513.86
511.426
509.275
507.376
505.702
504.228
502.934
501.803
500.821
499.973
499.247
498.635
498.126
497.712
497.386
497.141
496.972
496.873
496.839
496.865
496.947
497.082
497.265
497.495
497.767
498.079
498.428
498.813
499.229
499.676
500.15
500.65
501.173
501.717
502.28
502.859
503.451
504.053
504.66
505.268
505.873
506.47
507.055
507.624
508.173
508.701
509.209
509.698
510.173
510.639
511.104
511.576
512.066
512.582
513.134
513.73
514.373
515.054
180.467
258.6
265.807
255.427
244.809
236.24
229.47
224.046
219.618
215.941
212.845
210.208
207.941
205.978
204.268
202.77
201.455
200.297
199.274
198.371
197.573
196.869
196.248
195.702
195.223
194.804
194.442
194.129
193.863
193.64
193.455
193.306
193.19
193.105
193.048
193.018
193.012
193.028
193.065
193.123
193.199
193.292
193.402
193.527
193.665
193.817
193.982
194.157
194.343
194.538
194.742
194.954
195.173
195.397
195.625
195.856
196.089
196.322
196.553
196.78
197.003
197.221
197.432
197.637
197.837
198.031
198.223
198.413
198.605
198.801
199.003
199.215
199.438
199.673
199.918
52.4732
112.464
134.457
135.922
132.522
128.669
125.265
122.401
120.007
117.993
116.284
114.823
113.562
112.469
111.515
110.679
109.944
109.296
108.724
108.219
107.772
107.376
107.028
106.72
106.451
106.215
106.01
105.833
105.682
105.554
105.448
105.361
105.293
105.242
105.207
105.187
105.18
105.185
105.202
105.229
105.268
105.315
105.372
105.437
105.51
105.591
105.678
105.771
105.87
105.974
106.083
106.196
106.313
106.433
106.555
106.68
106.805
106.93
107.055
107.178
107.298
107.416
107.53
107.64
107.747
107.851
107.952
108.052
108.152
108.253
108.357
108.465
108.578
108.698
108.823
18.9423
52.8112
76.111
83.4465
84.1244
82.8547
81.1903
79.5846
78.1513
76.9017
75.8187
74.8793
74.0618
73.3479
72.7222
72.1719
71.6868
71.2581
70.8788
70.5429
70.2455
69.9822
69.7494
69.544
69.3633
69.205
69.067
68.9476
68.8451
68.7581
68.6854
68.6259
68.5785
68.5424
68.5167
68.5007
68.4936
68.4945
68.503
68.5188
68.5415
68.5705
68.6054
68.6458
68.6914
68.7418
68.7965
68.8554
68.918
68.9841
69.0533
69.1254
69.1998
69.2764
69.3545
69.4338
69.5137
69.5935
69.6728
69.7508
69.827
69.9009
69.9722
70.0408
70.1065
70.1698
70.2312
70.2913
70.3511
70.4116
70.474
70.5394
70.6089
70.6834
70.7638
8.1872
25.0217
43.8942
53.7537
57.1337
57.7145
57.2786
56.5262
55.7185
54.9491
54.2478
53.6201
53.0624
52.5681
52.1302
51.742
51.3976
51.0917
50.82
50.5786
50.3641
50.1737
50.005
49.8557
49.7242
49.6086
49.5076
49.4199
49.3443
49.28
49.226
49.1814
49.1457
49.118
49.0979
49.0847
49.0781
49.0773
49.0818
49.0916
49.1064
49.1257
49.1493
49.1769
49.2082
49.2429
49.2808
49.3217
49.3652
49.4113
49.4596
49.5099
49.562
49.6154
49.67
49.7253
49.7808
49.8362
49.8908
49.9443
49.9961
50.0458
50.0933
50.1383
50.181
50.2217
50.2608
50.2991
50.3374
50.3767
50.4182
50.4628
50.5117
50.5659
50.6263
4.2188
11.9892
24.7098
34.5695
39.5749
41.5705
42.1325
42.0729
41.7614
41.3618
40.9462
40.5459
40.1736
39.8334
39.5253
39.2478
38.9985
38.7751
38.575
38.3962
38.2364
38.094
37.9673
37.8548
37.7554
37.6677
37.5909
37.524
37.4662
37.4168
37.3752
37.3407
37.3128
37.2911
37.275
37.2642
37.2584
37.257
37.2597
37.2663
37.2766
37.2903
37.3074
37.3274
37.3503
37.3758
37.4036
37.4338
37.4659
37.4999
37.5357
37.5728
37.6113
37.6508
37.6909
37.7315
37.7721
37.8123
37.8516
37.8897
37.9261
37.9607
37.993
38.0233
38.0515
38.0781
38.1035
38.1285
38.1541
38.1811
38.2108
38.2441
38.2821
38.3258
38.3763
2.53586
6.06763
13.4269
21.5411
27.1065
30.0891
31.4755
32.0206
32.1462
32.069
31.8979
31.6884
31.4685
31.2526
31.0476
30.8568
30.6813
30.521
30.3754
30.2438
30.1251
30.0186
29.9231
29.838
29.7624
29.6955
29.6366
29.5852
29.5407
29.5025
29.4703
29.4435
29.4217
29.4047
29.3921
29.3836
29.3789
29.3777
29.3797
29.3846
29.3924
29.4029
29.4159
29.4313
29.4488
29.4684
29.4899
29.513
29.5378
29.564
29.5915
29.62
29.6496
29.6798
29.7104
29.7412
29.7717
29.8017
29.8308
29.8585
29.8846
29.9089
29.9311
29.9514
29.97
29.9873
30.0038
30.0204
30.0379
30.0573
30.0797
30.1062
30.1377
30.1753
30.2198
1.72014
3.39495
7.19137
12.8165
17.9493
21.4137
23.4192
24.4852
25.0083
25.2292
25.2842
25.2494
25.1674
25.0624
24.9482
24.8326
24.7203
24.6137
24.514
24.4218
24.3374
24.2604
24.1908
24.1281
24.072
24.0221
23.9779
23.9393
23.9057
23.8769
23.8525
23.8323
23.8159
23.8032
23.7938
23.7877
23.7844
23.7839
23.786
23.7902
23.7967
23.8053
23.8159
23.8283
23.8424
23.8581
23.8752
23.8938
23.9135
23.9343
23.9562
23.9788
24.0021
24.0259
24.0498
24.0737
24.0973
24.1201
24.1419
24.1624
24.1812
24.1983
24.2136
24.2271
24.2391
24.25
24.2606
24.2714
24.2836
24.2979
24.3155
24.3374
24.3644
24.3975
24.4375
1.27853
2.13151
3.97937
7.32524
11.3239
14.7132
17.0625
18.5327
19.4051
19.9031
20.1732
20.3058
20.3557
20.3562
20.3275
20.2824
20.2286
20.1713
20.1134
20.057
20.0032
19.9528
19.9061
19.8633
19.8246
19.7897
19.7587
19.7314
19.7076
19.6872
19.67
19.6558
19.6445
19.6359
19.6298
19.6261
19.6247
19.6254
19.6281
19.6324
19.6384
19.6461
19.6552
19.6658
19.6777
19.6909
19.7052
19.7205
19.7368
19.7539
19.7718
19.7902
19.809
19.8282
19.8473
19.8663
19.8847
19.9024
19.919
19.9342
19.9479
19.9599
19.9702
19.9789
19.9864
19.993
19.9994
20.0064
20.0148
20.0255
20.0395
20.0578
20.0812
20.1104
20.1463
1.01869
1.48311
2.38188
4.15478
6.80161
9.62717
11.9836
13.6873
14.8322
15.5744
16.0458
16.3399
16.5189
16.623
16.6785
16.7023
16.7057
16.6961
16.6786
16.6564
16.632
16.6068
16.5819
16.558
16.5356
16.5151
16.4964
16.4799
16.4654
16.4531
16.4428
16.4345
16.4282
16.4238
16.4212
16.4203
16.421
16.4233
16.427
16.4321
16.4383
16.4457
16.4543
16.4639
16.4745
16.4861
16.4985
16.5117
16.5255
16.54
16.555
16.5705
16.5861
16.6019
16.6175
16.6328
16.6475
16.6614
16.6742
16.6857
16.6956
16.704
16.7108
16.7162
16.7204
16.724
16.7276
16.7317
16.7373
16.7453
16.7565
16.7717
16.7917
16.8173
16.8491
0.856486
1.12027
1.57153
2.45563
3.97547
5.97825
8.01089
9.72611
11.0249
11.954
12.6007
13.0453
13.349
13.5554
13.6948
13.7877
13.8485
13.8869
13.9097
13.9219
13.9266
13.9265
13.9233
13.9181
13.912
13.9055
13.8991
13.8933
13.8881
13.8839
13.8806
13.8784
13.8773
13.8773
13.8784
13.8806
13.8838
13.8881
13.8934
13.8996
13.9066
13.9144
13.923
13.9323
13.9423
13.953
13.9643
13.9761
13.9884
14.0011
14.0142
14.0274
14.0408
14.0541
14.0672
14.0798
14.0918
14.1029
14.113
14.1217
14.129
14.1347
14.1391
14.1421
14.1441
14.1456
14.147
14.1491
14.1526
14.1583
14.167
14.1794
14.1963
14.2182
14.2459
0.751138
0.901882
1.1357
1.57101
2.36209
3.58036
5.07589
6.57156
7.86573
8.89151
9.66657
10.2385
10.6564
10.9608
11.1828
11.345
11.4638
11.551
11.6151
11.6622
11.6969
11.7225
11.7413
11.7553
11.7658
11.7738
11.7801
11.7852
11.7897
11.7938
11.7979
11.802
11.8064
11.8112
11.8164
11.8221
11.8283
11.835
11.8423
11.8501
11.8583
11.867
11.8761
11.8857
11.8957
11.9061
11.9169
11.928
11.9393
11.9509
11.9627
11.9745
11.9862
11.9978
12.009
12.0198
12.0298
12.0389
12.047
12.0537
12.0591
12.0631
12.0657
12.0671
12.0675
12.0674
12.0674
12.0679
12.0696
12.0734
12.0799
12.0897
12.1035
12.1219
12.1454
0.681084
0.763094
0.884561
1.10001
1.49244
2.15026
3.09086
4.2063
5.32813
6.32978
7.15924
7.81699
8.32691
8.71822
9.01769
9.24721
9.42379
9.56035
9.6666
9.74982
9.81548
9.86769
9.90958
9.94353
9.97136
9.99448
10.014
10.0307
10.0453
10.0584
10.0702
10.0812
10.0916
10.1016
10.1114
10.121
10.1306
10.1402
10.1499
10.1598
10.1698
10.1798
10.19
10.2003
10.2108
10.2214
10.2322
10.2431
10.254
10.265
10.276
10.2869
10.2977
10.3081
10.3181
10.3275
10.3362
10.3439
10.3505
10.3559
10.36
10.3627
10.3642
10.3644
10.3638
10.3627
10.3614
10.3607
10.3611
10.3632
10.3676
10.375
10.3859
10.4009
10.4204
0.63403
0.671598
0.730768
0.83575
1.02644
1.35691
1.87632
2.58645
3.41896
4.27087
5.05819
5.73808
6.30134
6.75721
7.12188
7.41233
7.64372
7.8286
7.97704
8.09693
8.19441
8.27426
8.34018
8.39508
8.44121
8.48035
8.5139
8.54298
8.56847
8.59108
8.61137
8.62981
8.64676
8.66253
8.67735
8.69141
8.70489
8.7179
8.73054
8.7429
8.75503
8.76694
8.77864
8.79019
8.80161
8.81293
8.82417
8.83531
8.84635
8.85724
8.86796
8.87844
8.88861
8.89838
8.90762
8.9162
8.92398
8.93081
8.93654
8.94106
8.94429
8.94621
8.94688
8.94642
8.94509
8.94319
8.94116
8.93946
8.93864
8.93926
8.9419
8.94708
8.95529
8.96699
8.98273
0.602484
0.610007
0.63217
0.67868
0.768007
0.927183
1.19007
1.58499
2.11209
2.73181
3.38151
4.0041
4.56404
5.04728
5.45396
5.79146
6.06965
6.29853
6.48706
6.64286
6.7722
6.88017
6.97088
7.04758
7.11291
7.16898
7.21746
7.25973
7.29688
7.32982
7.35927
7.38582
7.40997
7.43212
7.45259
7.47166
7.48956
7.50647
7.52254
7.53789
7.55264
7.56686
7.58055
7.59377
7.6066
7.61906
7.63121
7.64305
7.65458
7.66579
7.67666
7.68714
7.69719
7.70671
7.71561
7.72378
7.73109
7.73742
7.74265
7.74667
7.74943
7.7509
7.75114
7.75028
7.74851
7.74614
7.74352
7.74107
7.73929
7.73866
7.73968
7.74284
7.74855
7.75726
7.76949
0.581598
0.568258
0.567053
0.580682
0.61734
0.689625
0.815044
1.01459
1.30566
1.69024
2.14768
2.64103
3.13178
3.59126
4.00373
4.36394
4.67321
4.93622
5.15888
5.34716
5.50658
5.64194
5.75733
5.85616
5.94124
6.01492
6.07909
6.13533
6.18494
6.22897
6.26832
6.3037
6.33573
6.36492
6.39167
6.41634
6.43923
6.46059
6.48061
6.49947
6.51733
6.53429
6.55044
6.5658
6.58047
6.59451
6.60799
6.62094
6.63338
6.64531
6.65672
6.6676
6.6779
6.68756
6.6965
6.70462
6.71183
6.71802
6.72308
6.72694
6.72953
6.73084
6.73094
6.72991
6.72796
6.72532
6.72232
6.71933
6.71677
6.71509
6.71471
6.71607
6.71955
6.72555
6.73459
0.568079
0.540126
0.523431
0.51743
0.525304
0.552668
0.607669
0.701329
0.846657
1.05501
1.32993
1.66241
2.03209
2.41414
2.7866
3.13432
3.44925
3.72875
3.97363
4.1866
4.37111
4.53081
4.66914
4.78922
4.89377
4.98516
5.06536
5.13607
5.19872
5.25449
5.30439
5.34928
5.38985
5.42671
5.46036
5.49125
5.51971
5.54608
5.57059
5.59349
5.61495
5.63513
5.65417
5.67213
5.6891
5.70516
5.72039
5.73485
5.74859
5.76163
5.77398
5.78562
5.79654
5.80668
5.816
5.82442
5.83185
5.83821
5.84341
5.84737
5.85007
5.85149
5.85167
5.8507
5.84876
5.84605
5.84286
5.83951
5.83637
5.83382
5.83227
5.83208
5.8336
5.8372
5.8434
0.559602
0.521507
0.494215
0.475854
0.467123
0.470264
0.488837
0.527918
0.594281
0.695973
0.840597
1.03225
1.26844
1.53938
1.83035
2.12588
2.41303
2.68294
2.93066
3.15433
3.35412
3.53139
3.68811
3.82648
3.94865
4.05666
4.15237
4.23741
4.31321
4.38101
4.44188
4.49674
4.54637
4.59146
4.63258
4.67023
4.70483
4.73674
4.76628
4.79372
4.81928
4.84316
4.86554
4.88654
4.90625
4.92475
4.94215
4.95854
4.97398
4.9885
5.00214
5.0149
5.02678
5.03775
5.04778
5.0568
5.06475
5.07157
5.07717
5.08151
5.08456
5.0863
5.08677
5.08606
5.08432
5.08171
5.0785
5.07497
5.07143
5.06823
5.06572
5.06424
5.06409
5.06562
5.06934
0.5545
0.509542
0.474918
0.448452
0.429644
0.419073
0.418104
0.428877
0.454437
0.498844
0.567017
0.66401
0.793577
0.956396
1.14891
1.36364
1.59092
1.82102
2.04586
2.25963
2.45884
2.64182
2.80825
2.95863
3.09399
3.21558
3.32473
3.42275
3.5109
3.59032
3.66202
3.72691
3.78582
3.83944
3.88839
3.93322
3.97439
4.01231
4.04734
4.07978
4.10991
4.13795
4.1641
4.18854
4.21141
4.23278
4.25277
4.27147
4.28898
4.30536
4.32065
4.33487
4.34805
4.36017
4.37121
4.38113
4.38989
4.39742
4.40369
4.40864
4.41225
4.41452
4.41548
4.41521
4.41383
4.4115
4.40844
4.40489
4.40115
4.3975
4.39426
4.39174
4.39022
4.39001
4.39162
0.551578
0.502159
0.462517
0.430613
0.405436
0.386738
0.374813
0.370408
0.374735
0.389544
0.417193
0.460615
0.52306
0.607482
0.715642
0.847209
0.999339
1.16703
1.34408
1.52425
1.70217
1.87373
2.03619
2.18798
2.32843
2.4575
2.57558
2.68332
2.78147
2.87084
2.95226
3.02649
3.09425
3.15622
3.21299
3.26511
3.31305
3.35724
3.39806
3.43585
3.4709
3.50347
3.53379
3.56204
3.58841
3.61304
3.63598
3.65737
3.67732
3.6959
3.71318
3.7292
3.74399
3.75756
3.76991
3.781
3.79082
3.79933
3.80649
3.81227
3.81666
3.81964
3.82127
3.82161
3.82076
3.81886
3.81612
3.81273
3.80896
3.80508
3.80135
3.79805
3.79545
3.79384
3.79371
0.549997
0.497833
0.454862
0.419311
0.390008
0.366314
0.347991
0.335115
0.328033
0.327378
0.334101
0.349515
0.375307
0.413461
0.46604
0.534794
0.620652
0.723263
0.840805
0.970169
1.10746
1.24861
1.38992
1.52835
1.66166
1.78835
1.90755
2.01888
2.12232
2.21806
2.30649
2.38803
2.46319
2.53246
2.59634
2.65528
2.70972
2.76008
2.8067
2.84993
2.89006
2.92736
2.96207
2.99441
3.02456
3.05268
3.0789
3.1033
3.126
3.1471
3.16667
3.18478
3.20147
3.21676
3.23068
3.2432
3.25433
3.26404
3.27231
3.27912
3.28446
3.28834
3.29081
3.29191
3.29174
3.29044
3.28817
3.28513
3.28153
3.27761
3.27363
3.26983
3.26646
3.26379
3.26228
0.549196
0.49545
0.450382
0.412443
0.380459
0.353629
0.331457
0.313683
0.300245
0.291252
0.28699
0.287933
0.294771
0.308424
0.330031
0.360892
0.402324
0.455437
0.520857
0.598475
0.687317
0.785601
0.890966
1.00079
1.11252
1.22388
1.33303
1.43859
1.5396
1.63547
1.72589
1.81079
1.89022
1.96437
2.03347
2.09782
2.15771
2.21344
2.26531
2.3136
2.35859
2.40051
2.4396
2.47606
2.51008
2.54183
2.57146
2.59906
2.62472
2.64856
2.67065
2.69109
2.7099
2.72715
2.74286
2.75703
2.76966
2.78077
2.79033
2.79834
2.80481
2.80975
2.8132
2.81522
2.8159
2.81535
2.81373
2.8112
2.80797
2.80425
2.80026
2.79624
2.79241
2.78902
2.78652
0.54882
0.494229
0.447927
0.408498
0.374812
0.346017
0.321496
0.300829
0.283749
0.270116
0.259909
0.253214
0.250232
0.251294
0.256863
0.267551
0.2841
0.307348
0.338153
0.377272
0.42521
0.482078
0.54749
0.620553
0.699939
0.784044
0.871158
0.959635
1.04801
1.13506
1.21984
1.30164
1.38
1.45464
1.5254
1.59226
1.65527
1.71453
1.77019
1.82241
1.87136
1.91724
1.9602
2.00043
2.03808
2.07329
2.10622
2.13698
2.16564
2.19228
2.21699
2.23985
2.26093
2.28026
2.2979
2.31385
2.32815
2.34079
2.35178
2.36114
2.36887
2.37501
2.37959
2.38267
2.38433
2.3847
2.38389
2.38208
2.37943
2.37614
2.37242
2.36848
2.36452
2.36078
2.35768
0.548657
0.493654
0.446683
0.406388
0.371673
0.341678
0.31574
0.293358
0.274166
0.257902
0.244398
0.233559
0.225367
0.219876
0.217213
0.217587
0.221296
0.228722
0.240335
0.25667
0.278288
0.305721
0.339393
0.379536
0.426116
0.478796
0.536941
0.599667
0.665925
0.734602
0.804607
0.87494
0.944741
1.0133
1.08007
1.14463
1.20671
1.26611
1.32274
1.37656
1.42757
1.47584
1.52141
1.56438
1.60483
1.64287
1.67858
1.71206
1.7434
1.77263
1.7998
1.825
1.84827
1.86967
1.88924
1.90701
1.92299
1.93723
1.94973
1.96051
1.9696
1.97703
1.98286
1.98713
1.98995
1.99139
1.9916
1.99071
1.98889
1.98632
1.98317
1.97964
1.97592
1.97224
1.96897
0.548592
0.493406
0.446107
0.405351
0.370059
0.339371
0.312608
0.289233
0.268829
0.251075
0.235728
0.222608
0.211595
0.202617
0.19565
0.190716
0.187888
0.187286
0.189086
0.193519
0.200869
0.211469
0.225679
0.243868
0.26637
0.293444
0.325224
0.361686
0.402619
0.447634
0.496183
0.547606
0.601178
0.656168
0.711875
0.767668
0.822995
0.877399
0.930512
0.982049
1.0318
1.07961
1.12539
1.16906
1.21061
1.25003
1.28733
1.32254
1.35568
1.3868
1.41588
1.44295
1.46806
1.49124
1.51251
1.53192
1.54949
1.56524
1.5792
1.59141
1.60189
1.61069
1.61785
1.62345
1.62757
1.63029
1.63174
1.63205
1.63135
1.62982
1.62761
1.62491
1.62187
1.6187
1.61575
0.548569
0.49331
0.445866
0.40489
0.369304
0.338249
0.311036
0.287114
0.266042
0.247465
0.231105
0.216739
0.204196
0.193345
0.184094
0.176382
0.17018
0.165488
0.162338
0.160793
0.160948
0.162932
0.16691
0.173077
0.181656
0.192888
0.207014
0.224254
0.244789
0.268724
0.296075
0.326749
0.360542
0.397143
0.436158
0.47713
0.519575
0.563004
0.606948
0.650977
0.694708
0.737809
0.780003
0.821062
0.860803
0.89908
0.935784
0.97083
1.00416
1.03573
1.06553
1.09349
1.1196
1.14386
1.16628
1.18687
1.20566
1.22266
1.2379
1.25141
1.26323
1.27341
1.282
1.28906
1.29467
1.29891
1.3019
1.30373
1.30454
1.30447
1.30366
1.30226
1.30043
1.29833
1.29626
0.548561
0.493276
0.445775
0.404707
0.368989
0.337759
0.310324
0.286125
0.264707
0.245702
0.22881
0.213787
0.200435
0.188595
0.17814
0.168972
0.161016
0.154218
0.148548
0.143992
0.140556
0.138266
0.137167
0.137327
0.138831
0.141788
0.146325
0.152588
0.160732
0.170915
0.183288
0.197983
0.215094
0.234666
0.256683
0.281062
0.307653
0.336239
0.366552
0.398287
0.431113
0.464694
0.4987
0.532817
0.566756
0.600258
0.633093
0.665063
0.696001
0.725768
0.754252
0.781369
0.807008
0.831113
0.853648
0.874589
0.893928
0.911666
0.927814
0.942394
0.955433
0.966969
0.977047
0.985719
0.993048
0.999105
1.00397
1.00774
1.01051
1.0124
1.01352
1.01399
1.01395
1.01352
1.01295
0.548559
0.493266
0.445745
0.404642
0.368873
0.337571
0.31004
0.285716
0.264139
0.24493
0.227779
0.212432
0.198676
0.186338
0.175272
0.165362
0.156511
0.148642
0.141694
0.13562
0.13039
0.125983
0.122391
0.11962
0.117686
0.116617
0.116455
0.117254
0.11908
0.122013
0.126141
0.131563
0.138379
0.14669
0.156589
0.168154
0.181436
0.196459
0.213205
0.231616
0.251591
0.272988
0.295629
0.319307
0.343797
0.368862
0.394263
0.41977
0.445161
0.470234
0.494808
0.51873
0.541862
0.564067
0.585247
0.605326
0.624247
0.641969
0.658468
0.67373
0.687754
0.700549
0.712132
0.722528
0.731771
0.739902
0.746973
0.753044
0.758181
0.762462
0.765969
0.768792
0.771025
0.772776
0.774201
0.548558
0.493263
0.445735
0.404622
0.368836
0.337509
0.309944
0.285572
0.26393
0.244636
0.227375
0.211885
0.197946
0.185378
0.174026
0.163764
0.154484
0.146098
0.138532
0.131724
0.125625
0.120197
0.11541
0.111242
0.10768
0.10472
0.102362
0.100617
0.0995
0.0990368
0.0992589
0.100206
0.101924
0.104467
0.107894
0.112267
0.11765
0.124106
0.13169
0.140449
0.150413
0.161594
0.173981
0.187535
0.202194
0.217867
0.234441
0.251783
0.269746
0.288172
0.306902
0.325777
0.344651
0.363375
0.381811
0.399831
0.417328
0.434207
0.450388
0.465807
0.480409
0.494155
0.507014
0.518968
0.530006
0.54013
0.54935
0.557687
0.56517
0.571838
0.57774
0.582932
0.587477
0.591449
0.594941
0.548558
0.493263
0.445733
0.404617
0.368827
0.337493
0.309918
0.285532
0.26387
0.244548
0.227249
0.211707
0.197701
0.185045
0.173583
0.163183
0.153733
0.145139
0.137321
0.130213
0.123758
0.11791
0.112631
0.10789
0.103663
0.099932
0.0966848
0.0939146
0.0916196
0.0898032
0.0884736
0.0876441
0.0873327
0.0875625
0.0883618
0.0897634
0.0918048
0.0945275
0.0979764
0.102198
0.107239
0.113145
0.119956
0.127704
0.136411
0.146084
0.156716
0.168278
0.180723
0.193984
0.207975
0.222594
0.237727
0.253254
0.269043
0.284956
0.300862
0.316632
0.332146
0.347297
0.361985
0.376128
0.389653
0.402501
0.414625
0.425991
0.436577
0.446373
0.45538
0.463611
0.471089
0.477846
0.483924
0.489376
0.494258
0.548558
0.493263
0.445733
0.404617
0.368827
0.337493
0.309918
0.285532
0.26387
0.244548
0.227249
0.211707
0.197701
0.185045
0.173583
0.163183
0.153733
0.145138
0.137321
0.130212
0.123758
0.11791
0.112631
0.10789
0.103663
0.0999317
0.0966844
0.0939141
0.0916191
0.0898026
0.0884729
0.0876433
0.0873318
0.0875615
0.0883607
0.0897621
0.0918033
0.0945259
0.0979745
0.102196
0.107237
0.113143
0.119953
0.127701
0.136407
0.146081
0.156713
0.168275
0.18072
0.19398
0.207971
0.22259
0.237723
0.25325
0.269039
0.284953
0.300858
0.316628
0.332142
0.347292
0.361981
0.376123
0.389647
0.402494
0.414617
0.425982
0.436568
0.446365
0.455374
0.463608
0.471091
0.477855
0.483943
0.489405
0.4943
0.548558
0.493263
0.445735
0.404622
0.368836
0.337509
0.309944
0.285572
0.26393
0.244636
0.227375
0.211884
0.197946
0.185377
0.174026
0.163763
0.154484
0.146097
0.138531
0.131722
0.125623
0.120195
0.115407
0.111239
0.107677
0.104716
0.102357
0.100611
0.0994937
0.0990294
0.0992503
0.100196
0.101912
0.104454
0.107878
0.112249
0.11763
0.124083
0.131665
0.14042
0.150381
0.161559
0.173942
0.187492
0.202147
0.217817
0.234387
0.251726
0.269686
0.28811
0.306837
0.32571
0.344582
0.363305
0.381739
0.399759
0.417255
0.434132
0.450313
0.46573
0.480331
0.494075
0.506933
0.518885
0.529923
0.540047
0.54927
0.557612
0.565105
0.571787
0.577708
0.582924
0.587498
0.591504
0.595035
0.548559
0.493266
0.445745
0.404642
0.368873
0.337571
0.31004
0.285716
0.264138
0.244929
0.227779
0.212431
0.198675
0.186336
0.175271
0.16536
0.156509
0.148639
0.14169
0.135616
0.130384
0.125976
0.122383
0.119611
0.117674
0.116603
0.116439
0.117235
0.119058
0.121987
0.126111
0.131527
0.138338
0.146643
0.156536
0.168092
0.181367
0.196381
0.213119
0.231521
0.251487
0.272875
0.295508
0.319178
0.34366
0.368718
0.394114
0.419614
0.445
0.470069
0.49464
0.518558
0.541687
0.56389
0.585069
0.605147
0.624066
0.641787
0.658284
0.673545
0.687568
0.700361
0.711943
0.722339
0.731584
0.739721
0.746801
0.752886
0.758045
0.762353
0.765896
0.768762
0.771046
0.772854
0.774342
0.548561
0.493276
0.445775
0.404707
0.368988
0.337758
0.310324
0.286124
0.264706
0.245701
0.228808
0.213785
0.200432
0.188591
0.178136
0.168967
0.161009
0.15421
0.148538
0.143979
0.14054
0.138247
0.137145
0.1373
0.138799
0.14175
0.146281
0.152535
0.16067
0.170842
0.183205
0.197887
0.214983
0.23454
0.256542
0.280906
0.307481
0.336052
0.366351
0.398072
0.430885
0.464455
0.49845
0.532558
0.566489
0.599984
0.632813
0.664778
0.695712
0.725476
0.753957
0.781072
0.806709
0.830813
0.853347
0.874288
0.893626
0.911362
0.927509
0.942088
0.955126
0.966663
0.976741
0.985417
0.992753
0.998821
1.00371
1.0075
1.01031
1.01223
1.0134
1.01394
1.01396
1.01361
1.01312
0.548569
0.49331
0.445866
0.404889
0.369303
0.338248
0.311035
0.287112
0.266039
0.247462
0.2311
0.216733
0.204189
0.193336
0.184083
0.176368
0.170163
0.165467
0.162313
0.160762
0.16091
0.162886
0.166854
0.173011
0.181577
0.192794
0.206902
0.224124
0.244637
0.268549
0.295877
0.326527
0.360295
0.396872
0.435863
0.476815
0.51924
0.562652
0.606581
0.650597
0.694316
0.737408
0.779595
0.820648
0.860384
0.898657
0.935358
0.970402
1.00373
1.0353
1.0651
1.09306
1.11917
1.14343
1.16585
1.18644
1.20523
1.22223
1.23747
1.25098
1.26281
1.27299
1.28158
1.28865
1.29427
1.29853
1.30154
1.3034
1.30426
1.30424
1.30349
1.30217
1.30042
1.29841
1.29643
0.548592
0.493406
0.446106
0.40535
0.370057
0.339369
0.312604
0.289228
0.268823
0.251067
0.235717
0.222595
0.211579
0.202597
0.195624
0.190685
0.187849
0.187238
0.189027
0.193447
0.200782
0.211362
0.225551
0.243714
0.266187
0.293228
0.324974
0.361399
0.402296
0.447274
0.495789
0.547179
0.600722
0.655686
0.711372
0.767145
0.822457
0.876849
0.929952
0.981482
1.03123
1.07903
1.12481
1.16848
1.21003
1.24945
1.28675
1.32196
1.3551
1.38622
1.4153
1.44238
1.46749
1.49067
1.51195
1.53136
1.54893
1.56468
1.57864
1.59085
1.60133
1.61013
1.61731
1.62292
1.62705
1.6298
1.63128
1.63163
1.63099
1.62951
1.62738
1.62476
1.62181
1.61875
1.61591
0.548657
0.493653
0.446681
0.406385
0.371669
0.341672
0.315732
0.293348
0.274153
0.257886
0.244376
0.233532
0.225333
0.219833
0.217159
0.21752
0.221212
0.228618
0.240206
0.256511
0.278094
0.305486
0.339112
0.379205
0.425732
0.478359
0.536452
0.599128
0.665342
0.733979
0.80395
0.874255
0.944033
1.01258
1.07933
1.14388
1.20595
1.26535
1.32198
1.3758
1.42682
1.47508
1.52066
1.56363
1.60409
1.64213
1.67784
1.71133
1.74267
1.7719
1.79908
1.82428
1.84756
1.86896
1.88853
1.9063
1.92229
1.93653
1.94903
1.95981
1.96891
1.97635
1.98219
1.98648
1.98931
1.99078
1.99103
1.99019
1.98842
1.98592
1.98285
1.97942
1.97581
1.97225
1.96911
0.54882
0.494228
0.447924
0.408492
0.374804
0.346005
0.321481
0.300809
0.283722
0.270083
0.259867
0.253159
0.250163
0.251206
0.256753
0.267411
0.283923
0.307126
0.337878
0.376935
0.424804
0.481598
0.546934
0.619922
0.699239
0.783281
0.870341
0.958773
1.04711
1.13413
1.21889
1.30068
1.37903
1.45366
1.52442
1.59128
1.65429
1.71356
1.76922
1.82145
1.87041
1.91629
1.95926
1.9995
2.03715
2.07238
2.10531
2.13607
2.16474
2.19138
2.2161
2.23897
2.26005
2.27939
2.29703
2.31298
2.32728
2.33993
2.35093
2.36029
2.36803
2.37418
2.37877
2.38187
2.38356
2.38396
2.38319
2.38143
2.37884
2.37563
2.37201
2.36817
2.36433
2.36073
2.35778
0.549195
0.495446
0.450375
0.412431
0.380442
0.353607
0.331427
0.313645
0.300196
0.291189
0.286908
0.287827
0.294635
0.308247
0.329804
0.360602
0.401957
0.454981
0.520302
0.597814
0.68655
0.784734
0.890008
0.999757
1.11142
1.22273
1.33185
1.43738
1.53838
1.63424
1.72466
1.80955
1.88899
1.96314
2.03226
2.09661
2.15651
2.21225
2.26413
2.31244
2.35744
2.39937
2.43847
2.47493
2.50896
2.54072
2.57036
2.59797
2.62364
2.64748
2.66958
2.69002
2.70884
2.72609
2.7418
2.75598
2.76862
2.77973
2.7893
2.79732
2.8038
2.80875
2.81222
2.81426
2.81496
2.81445
2.81287
2.8104
2.80724
2.80361
2.79972
2.79582
2.79213
2.78889
2.78657
0.549994
0.497825
0.454848
0.419289
0.389977
0.366273
0.347938
0.335046
0.327943
0.32726
0.333945
0.34931
0.375036
0.413106
0.46558
0.534211
0.61993
0.722395
0.839792
0.969022
1.1062
1.24725
1.38849
1.52687
1.66014
1.78681
1.906
2.01733
2.12077
2.21653
2.30497
2.38653
2.4617
2.53099
2.59488
2.65384
2.7083
2.75866
2.8053
2.84854
2.88868
2.926
2.96072
2.99307
3.02323
3.05136
3.07759
3.102
3.1247
3.1458
3.16538
3.1835
3.20019
3.21549
3.22941
3.24195
3.25308
3.2628
3.27107
3.27789
3.28324
3.28715
3.28963
3.29075
3.29062
3.28936
3.28713
3.28415
3.28063
3.27681
3.27294
3.26927
3.26605
3.26355
3.26224
0.551572
0.502144
0.462491
0.430575
0.405384
0.386669
0.374721
0.370286
0.374571
0.389323
0.416894
0.460212
0.522523
0.606781
0.714752
0.846117
0.99805
1.16556
1.34246
1.52252
1.70035
1.87185
2.03428
2.18606
2.3265
2.45559
2.57369
2.68144
2.77961
2.86901
2.95045
3.0247
3.09249
3.15448
3.21127
3.26341
3.31137
3.35558
3.39642
3.43422
3.46928
3.50186
3.53219
3.56046
3.58684
3.61147
3.63442
3.65582
3.67578
3.69436
3.71165
3.72768
3.74247
3.75605
3.7684
3.7795
3.78933
3.79785
3.80502
3.81081
3.81521
3.81821
3.81986
3.82022
3.8194
3.81755
3.81485
3.81153
3.80785
3.80406
3.80045
3.7973
3.79486
3.79345
3.79353
0.55449
0.509515
0.474874
0.448389
0.429558
0.418956
0.417945
0.428659
0.454136
0.498425
0.566438
0.663225
0.792544
0.95509
1.14733
1.36182
1.58889
1.81885
2.04358
2.25729
2.45647
2.63945
2.80589
2.95629
3.09168
3.2133
3.32248
3.42054
3.50873
3.58817
3.6599
3.72483
3.78376
3.83741
3.88638
3.93123
3.97242
4.01036
4.0454
4.07786
4.108
4.13605
4.16222
4.18667
4.20955
4.23093
4.25092
4.26963
4.28715
4.30353
4.31882
4.33306
4.34624
4.35837
4.36941
4.37934
4.38811
4.39565
4.40193
4.4069
4.41052
4.41281
4.41379
4.41355
4.4122
4.40991
4.4069
4.40342
4.39976
4.39622
4.3931
4.39073
4.38939
4.38939
4.39124
0.559583
0.521462
0.494144
0.475753
0.466982
0.470068
0.48856
0.527523
0.593716
0.69517
0.839487
1.03078
1.2666
1.53718
1.82787
2.12319
2.41021
2.68004
2.92774
3.15142
3.35124
3.52854
3.68531
3.82373
3.94595
4.05401
4.14977
4.23485
4.31069
4.37852
4.43942
4.49431
4.54398
4.58909
4.63024
4.6679
4.70252
4.73445
4.76401
4.79146
4.81703
4.84093
4.86332
4.88433
4.90404
4.92255
4.93997
4.95636
4.9718
4.98633
4.99997
5.01274
5.02463
5.03561
5.04564
5.05467
5.06264
5.06946
5.07508
5.07944
5.0825
5.08426
5.08475
5.08407
5.08235
5.07979
5.07663
5.07315
5.0697
5.0666
5.06422
5.06289
5.06293
5.06468
5.06867
0.568046
0.540055
0.523319
0.517269
0.525073
0.552333
0.607175
0.700596
0.845582
1.05349
1.3279
1.65988
2.02915
2.41088
2.78314
3.13077
3.44567
3.72519
3.97012
4.18314
4.36773
4.52749
4.66589
4.78604
4.89065
4.98209
5.06235
5.13311
5.19579
5.2516
5.30154
5.34646
5.38706
5.42394
5.45762
5.48853
5.51701
5.54339
5.56793
5.59083
5.6123
5.6325
5.65154
5.66952
5.68649
5.70256
5.7178
5.73227
5.74601
5.75905
5.7714
5.78305
5.79398
5.80413
5.81346
5.82189
5.82933
5.8357
5.84092
5.8449
5.84761
5.84905
5.84924
5.8483
5.84638
5.84371
5.84056
5.83726
5.8342
5.83176
5.83033
5.8303
5.83202
5.83585
5.84233
0.581544
0.568148
0.56688
0.580426
0.616956
0.689037
0.814135
1.0132
1.30366
1.68754
2.14433
2.63718
3.1276
3.58692
3.99935
4.35958
4.66893
4.93203
5.15478
5.34317
5.50268
5.63813
5.7536
5.8525
5.93765
6.01139
6.07561
6.1319
6.18155
6.22562
6.265
6.30042
6.33248
6.36168
6.38846
6.41315
6.43606
6.45743
6.47746
6.49634
6.51421
6.53118
6.54733
6.5627
6.57738
6.59143
6.60492
6.61787
6.63031
6.64224
6.65367
6.66455
6.67486
6.68452
6.69347
6.70161
6.70883
6.71504
6.72011
6.72398
6.72659
6.72792
6.72802
6.72701
6.72507
6.72246
6.71949
6.71655
6.71406
6.71246
6.71221
6.71373
6.71741
6.72365
6.73299
0.6024
0.609839
0.631903
0.678265
0.767348
0.926113
1.18836
1.58242
2.10857
2.72746
3.37659
3.99885
4.55868
5.04194
5.44872
5.78634
6.06468
6.2937
6.48236
6.63827
6.76772
6.8758
6.96659
7.04337
7.10877
7.16489
7.21342
7.25574
7.29294
7.32591
7.35539
7.38198
7.40615
7.42832
7.44881
7.4679
7.48582
7.50274
7.51882
7.53419
7.54895
7.56317
7.57687
7.5901
7.60293
7.6154
7.62755
7.63939
7.65092
7.66214
7.67301
7.68351
7.69355
7.70308
7.712
7.72018
7.72751
7.73386
7.7391
7.74314
7.7459
7.74738
7.74763
7.74677
7.74501
7.74264
7.74003
7.73762
7.73589
7.73533
7.73647
7.73978
7.7457
7.75466
7.76721
0.633903
0.671346
0.73035
0.835057
1.02526
1.35491
1.87316
2.582
3.41343
4.26465
5.05167
5.73151
6.29488
6.75093
7.1158
7.40645
7.63802
7.82307
7.97166
8.09167
8.18926
8.26921
8.33522
8.3902
8.43639
8.47559
8.5092
8.53832
8.56385
8.58649
8.60681
8.62528
8.64226
8.65804
8.67288
8.68696
8.70045
8.71347
8.72613
8.7385
8.75063
8.76256
8.77426
8.78581
8.79724
8.80857
8.81981
8.83095
8.84198
8.85288
8.86361
8.87409
8.88427
8.89405
8.9033
8.9119
8.9197
8.92654
8.93229
8.93682
8.94005
8.94197
8.94263
8.94217
8.94082
8.93891
8.93687
8.93518
8.93439
8.93507
8.9378
8.94313
8.95154
8.9635
8.97959
0.680892
0.762711
0.883889
1.0988
1.49025
2.14654
3.08538
4.19938
5.32037
6.32173
7.15124
7.80921
8.3194
8.711
9.01073
9.24048
9.41726
9.554
9.6604
9.74375
9.80952
9.86183
9.9038
9.93782
9.96572
9.9889
10.0084
10.0252
10.0399
10.053
10.0648
10.0759
10.0863
10.0963
10.1061
10.1157
10.1253
10.135
10.1447
10.1545
10.1645
10.1746
10.1848
10.1951
10.2056
10.2162