/*--------------------------------*- C++ -*----------------------------------*\
  =========                 |
  \\      /  F ield         | OpenFOAM: The Open Source CFD Toolbox
   \\    /   O peration     | Website:  https://openfoam.org
    \\  /    A nd           | Version:  7
     \\/     M anipulation  |
\*---------------------------------------------------------------------------*/
FoamFile
{
    version     2.0;
    format      ascii;
    class       volScalarField;
    location    "700";
    object      k;
}
// * * * * * * * * * * * * * * * * * * * * * * * * * * * * * * * * * * * * * //

dimensions      [0 2 -2 0 0 0 0];

internalField   nonuniform List<scalar> 
4500
(
2.10711
1.99003
1.89804
1.8345
1.78632
1.74875
1.71881
1.69443
1.67421
1.65718
1.64268
1.6302
1.61939
1.60996
1.6017
1.59444
1.58803
1.58238
1.57737
1.57295
1.56904
1.56558
1.56254
1.55986
1.55753
1.55549
1.55374
1.55223
1.55096
1.54991
1.54905
1.54837
1.54786
1.54751
1.54731
1.54724
1.54729
1.54746
1.54774
1.54812
1.5486
1.54916
1.54981
1.55053
1.55133
1.55219
1.55312
1.5541
1.55514
1.55622
1.55735
1.55851
1.55971
1.56094
1.56218
1.56344
1.5647
1.56595
1.56718
1.56839
1.56957
1.57071
1.5718
1.57284
1.57384
1.57481
1.57575
1.57668
1.57763
1.5786
1.57962
1.58072
1.5819
1.58317
1.58453
1.10354
1.6732
1.8379
1.85191
1.83283
1.80901
1.78664
1.7669
1.74973
1.73484
1.72188
1.71057
1.70066
1.69195
1.68428
1.6775
1.67151
1.6662
1.66151
1.65736
1.6537
1.65047
1.64764
1.64516
1.64301
1.64115
1.63956
1.63823
1.63712
1.63622
1.63551
1.63499
1.63463
1.63443
1.63437
1.63445
1.63464
1.63495
1.63536
1.63588
1.63649
1.63718
1.63797
1.63882
1.63975
1.64074
1.6418
1.64291
1.64407
1.64528
1.64653
1.64782
1.64913
1.65048
1.65183
1.6532
1.65456
1.65591
1.65724
1.65853
1.65977
1.66096
1.66209
1.66316
1.66416
1.66512
1.66603
1.66692
1.66781
1.66872
1.66968
1.67072
1.67187
1.67313
1.67449
0.644943
1.23225
1.53537
1.63719
1.66542
1.66864
1.66318
1.65482
1.64581
1.63702
1.62881
1.62129
1.61447
1.60833
1.60283
1.5979
1.59351
1.5896
1.58613
1.58307
1.58037
1.578
1.57594
1.57416
1.57264
1.57135
1.57029
1.56943
1.56875
1.56825
1.56791
1.56772
1.56767
1.56775
1.56795
1.56826
1.56868
1.56918
1.56978
1.57046
1.57122
1.57206
1.57297
1.57394
1.57497
1.57606
1.57719
1.57837
1.5796
1.58086
1.58215
1.58348
1.58482
1.58618
1.58755
1.58892
1.59028
1.59161
1.5929
1.59414
1.59532
1.59642
1.59743
1.59836
1.5992
1.59997
1.60067
1.60134
1.602
1.60268
1.60343
1.60428
1.60527
1.60643
1.60774
0.463615
0.893401
1.25805
1.43575
1.5127
1.54555
1.55894
1.56332
1.56337
1.56132
1.55829
1.55487
1.55137
1.54798
1.54477
1.54181
1.5391
1.53665
1.53446
1.53253
1.53083
1.52936
1.52811
1.52705
1.52619
1.5255
1.52498
1.52462
1.5244
1.52432
1.52436
1.52453
1.52481
1.52519
1.52567
1.52625
1.52691
1.52765
1.52845
1.52933
1.53027
1.53127
1.53233
1.53345
1.53461
1.53581
1.53706
1.53834
1.53966
1.541
1.54237
1.54376
1.54516
1.54657
1.54798
1.54938
1.55075
1.55209
1.55337
1.55458
1.55571
1.55673
1.55764
1.55844
1.55913
1.55971
1.56022
1.56068
1.56112
1.5616
1.56216
1.56285
1.56373
1.56485
1.56619
0.39407
0.646738
0.998479
1.23088
1.35547
1.4206
1.45545
1.47456
1.48513
1.49089
1.49385
1.49516
1.49547
1.49521
1.49462
1.49387
1.49306
1.49226
1.49151
1.49084
1.49026
1.48979
1.48943
1.48919
1.48906
1.48904
1.48912
1.48932
1.48961
1.49
1.49048
1.49104
1.49169
1.49242
1.49323
1.4941
1.49504
1.49604
1.49708
1.49818
1.49934
1.50053
1.50177
1.50306
1.50437
1.50573
1.50711
1.50852
1.50995
1.51139
1.51286
1.51434
1.51582
1.5173
1.51876
1.52021
1.52162
1.52297
1.52425
1.52544
1.52652
1.52748
1.52829
1.52897
1.5295
1.52991
1.53023
1.53049
1.53073
1.53103
1.53143
1.532
1.53282
1.53394
1.53537
0.370615
0.488905
0.769299
1.02349
1.18836
1.28645
1.34497
1.38088
1.40366
1.41854
1.4285
1.43532
1.44007
1.44345
1.44589
1.4477
1.44908
1.45017
1.45107
1.45184
1.45255
1.45323
1.45389
1.45457
1.45527
1.45601
1.45679
1.45761
1.45848
1.45941
1.46038
1.4614
1.46248
1.4636
1.46477
1.46598
1.46724
1.46853
1.46986
1.47122
1.47261
1.47403
1.47549
1.47697
1.47847
1.47999
1.48153
1.48309
1.48466
1.48623
1.48781
1.4894
1.49097
1.49254
1.49408
1.49559
1.49704
1.49843
1.49972
1.5009
1.50194
1.50283
1.50356
1.50411
1.5045
1.50475
1.50489
1.50496
1.50503
1.50516
1.50543
1.50592
1.5067
1.50786
1.5094
0.364546
0.403111
0.587007
0.823641
1.01304
1.14094
1.22398
1.27842
1.31506
1.34046
1.35856
1.3718
1.38173
1.38935
1.39533
1.40011
1.40404
1.40732
1.41012
1.41258
1.41476
1.41675
1.4186
1.42033
1.42199
1.4236
1.42517
1.42672
1.42826
1.42979
1.43133
1.43287
1.43443
1.436
1.43759
1.43919
1.44081
1.44245
1.44409
1.44575
1.44742
1.44911
1.4508
1.45251
1.45422
1.45595
1.45767
1.4594
1.46113
1.46286
1.46458
1.46629
1.46798
1.46965
1.47128
1.47286
1.47438
1.47581
1.47712
1.4783
1.47931
1.48015
1.4808
1.48124
1.48151
1.48161
1.48158
1.48149
1.4814
1.48139
1.48154
1.48196
1.48272
1.48393
1.4856
0.364603
0.363346
0.460994
0.64658
0.836783
0.985712
1.09154
1.16521
1.21704
1.25428
1.28169
1.30236
1.31829
1.33084
1.34093
1.34918
1.35605
1.36188
1.3669
1.37129
1.37519
1.3787
1.38191
1.38487
1.38763
1.39024
1.39272
1.3951
1.3974
1.39963
1.40182
1.40396
1.40607
1.40816
1.41023
1.41228
1.41431
1.41634
1.41835
1.42035
1.42234
1.42433
1.4263
1.42827
1.43023
1.43218
1.43413
1.43605
1.43797
1.43987
1.44175
1.44361
1.44544
1.44723
1.44897
1.45065
1.45224
1.45372
1.45507
1.45626
1.45727
1.45806
1.45864
1.459
1.45916
1.45913
1.45896
1.45873
1.45849
1.45836
1.45841
1.45877
1.45952
1.46078
1.46257
0.366685
0.347483
0.386684
0.507132
0.671669
0.826391
0.949252
1.04089
1.10836
1.15845
1.19625
1.22534
1.24815
1.26638
1.28121
1.29348
1.30378
1.31256
1.32014
1.32678
1.33266
1.33794
1.34271
1.34708
1.35112
1.35488
1.35841
1.36175
1.36493
1.36797
1.3709
1.37373
1.37647
1.37915
1.38177
1.38433
1.38685
1.38932
1.39175
1.39415
1.3965
1.39883
1.40113
1.4034
1.40564
1.40786
1.41004
1.41221
1.41434
1.41644
1.41851
1.42054
1.42252
1.42446
1.42633
1.42811
1.4298
1.43136
1.43276
1.43398
1.43499
1.43577
1.43631
1.4366
1.43666
1.43653
1.43625
1.43589
1.43553
1.43528
1.43525
1.43555
1.43629
1.43758
1.43946
0.369317
0.342581
0.348917
0.412157
0.531963
0.672822
0.801903
0.907129
0.989078
1.05222
1.10113
1.13949
1.17002
1.1947
1.21496
1.23184
1.24608
1.25827
1.26882
1.27805
1.28623
1.29353
1.30012
1.30612
1.31163
1.31672
1.32146
1.3259
1.33009
1.33406
1.33784
1.34146
1.34494
1.3483
1.35154
1.35469
1.35776
1.36074
1.36366
1.3665
1.36928
1.372
1.37467
1.37729
1.37985
1.38237
1.38485
1.38727
1.38966
1.39199
1.39427
1.3965
1.39867
1.40077
1.40279
1.40471
1.40651
1.40816
1.40964
1.41091
1.41195
1.41274
1.41326
1.41351
1.41351
1.41329
1.41292
1.41246
1.412
1.41166
1.41154
1.41178
1.41248
1.41378
1.41572
0.371958
0.342445
0.332102
0.356566
0.42837
0.537786
0.658014
0.768348
0.860997
0.935939
0.995905
1.044
1.08291
1.11474
1.1411
1.16319
1.18194
1.19802
1.21198
1.2242
1.23501
1.24466
1.25334
1.26122
1.26842
1.27504
1.28118
1.28689
1.29224
1.29728
1.30205
1.30658
1.3109
1.31503
1.319
1.32283
1.32652
1.33009
1.33356
1.33692
1.34018
1.34336
1.34645
1.34946
1.3524
1.35527
1.35807
1.36081
1.36348
1.36608
1.36861
1.37107
1.37345
1.37575
1.37795
1.38002
1.38196
1.38373
1.38531
1.38666
1.38775
1.38857
1.3891
1.38933
1.3893
1.38903
1.38859
1.38805
1.38751
1.38708
1.38689
1.38705
1.38771
1.38898
1.39093
0.374409
0.344309
0.325896
0.328085
0.362098
0.432748
0.529167
0.632415
0.728536
0.811707
0.881286
0.938793
0.986292
1.02573
1.05874
1.08663
1.11042
1.13091
1.14873
1.16436
1.17819
1.19052
1.20161
1.21164
1.22079
1.22918
1.23691
1.24409
1.25078
1.25705
1.26294
1.26851
1.2738
1.27883
1.28363
1.28823
1.29265
1.29689
1.30099
1.30494
1.30876
1.31246
1.31604
1.31951
1.32288
1.32615
1.32933
1.33242
1.33541
1.33832
1.34114
1.34387
1.3465
1.34902
1.35143
1.35369
1.3558
1.35772
1.35942
1.36087
1.36205
1.36293
1.36349
1.36375
1.36372
1.36343
1.36295
1.36235
1.36174
1.36124
1.36096
1.36105
1.36164
1.36285
1.36475
0.376595
0.346935
0.32478
0.315189
0.325142
0.361913
0.426574
0.510145
0.599357
0.684171
0.759763
0.824969
0.880429
0.92743
0.967348
1.00143
1.03072
1.05608
1.07822
1.09769
1.11493
1.13032
1.14415
1.15665
1.16802
1.17843
1.188
1.19685
1.20508
1.21276
1.21995
1.22672
1.23312
1.23917
1.24493
1.25042
1.25566
1.26068
1.2655
1.27014
1.2746
1.27889
1.28303
1.28702
1.29089
1.29462
1.29823
1.30172
1.3051
1.30837
1.31152
1.31456
1.31747
1.32026
1.3229
1.32539
1.32769
1.32979
1.33165
1.33324
1.33453
1.3355
1.33615
1.33645
1.33645
1.33617
1.33568
1.33506
1.3344
1.33384
1.33348
1.33348
1.33397
1.33508
1.3369
0.378494
0.349749
0.326042
0.310425
0.306798
0.320311
0.355502
0.412199
0.483847
0.561114
0.636428
0.705553
0.766924
0.820518
0.867011
0.907312
0.942336
0.972909
0.999742
1.02343
1.04448
1.06329
1.08019
1.09548
1.10938
1.12209
1.13376
1.14452
1.1545
1.1638
1.17248
1.18062
1.18828
1.19552
1.20237
1.20888
1.21507
1.22098
1.22663
1.23205
1.23723
1.24221
1.247
1.2516
1.25602
1.26029
1.2644
1.26836
1.27218
1.27585
1.27938
1.28278
1.28602
1.28912
1.29204
1.29479
1.29733
1.29964
1.30169
1.30345
1.3049
1.306
1.30675
1.30715
1.30721
1.30698
1.30651
1.30588
1.3052
1.30458
1.30416
1.30406
1.30443
1.30541
1.30708
0.380104
0.352469
0.328352
0.309741
0.298825
0.298554
0.31258
0.343818
0.391993
0.452699
0.519406
0.586268
0.64949
0.707223
0.758929
0.804788
0.845312
0.881119
0.912829
0.94101
0.96616
0.988712
1.00903
1.02742
1.04416
1.05945
1.07348
1.08642
1.09839
1.10952
1.11989
1.1296
1.13872
1.1473
1.15541
1.16308
1.17036
1.17729
1.18389
1.19019
1.19621
1.20198
1.2075
1.2128
1.21787
1.22275
1.22743
1.23193
1.23625
1.24039
1.24437
1.24817
1.2518
1.25525
1.2585
1.26155
1.26437
1.26694
1.26922
1.27119
1.27283
1.2741
1.275
1.27552
1.27569
1.27554
1.27512
1.27452
1.27384
1.27318
1.27269
1.27249
1.27273
1.27355
1.27504
0.381432
0.354953
0.331036
0.311052
0.296302
0.288389
0.289475
0.302115
0.328313
0.36807
0.418684
0.475701
0.534633
0.59211
0.646117
0.695722
0.740693
0.781189
0.817558
0.850219
0.879597
0.906091
0.930062
0.951828
0.971665
0.989815
1.00648
1.02185
1.03606
1.04926
1.06155
1.07303
1.08379
1.0939
1.10343
1.11244
1.12096
1.12905
1.13673
1.14405
1.15103
1.1577
1.16407
1.17015
1.17598
1.18155
1.18689
1.19201
1.1969
1.20159
1.20607
1.21035
1.21442
1.21828
1.22191
1.22532
1.22846
1.23133
1.23389
1.23612
1.23798
1.23947
1.24055
1.24125
1.24156
1.24152
1.2412
1.24065
1.23999
1.23932
1.23878
1.23848
1.23858
1.2392
1.24047
0.382496
0.357126
0.333732
0.313269
0.296566
0.284515
0.278275
0.279385
0.28963
0.310488
0.342261
0.383516
0.431393
0.482568
0.53415
0.584096
0.631194
0.674873
0.714976
0.751595
0.784951
0.815323
0.843002
0.868273
0.8914
0.912621
0.932149
0.950173
0.966858
0.982351
0.996777
1.01025
1.02286
1.0347
1.04584
1.05634
1.06627
1.07568
1.0846
1.09308
1.10115
1.10884
1.11617
1.12316
1.12984
1.13622
1.14231
1.14813
1.15369
1.159
1.16407
1.16889
1.17347
1.1778
1.18188
1.18569
1.18921
1.19243
1.19532
1.19785
1.2
1.20174
1.20306
1.20396
1.20446
1.20458
1.20438
1.20393
1.20332
1.20267
1.20208
1.20169
1.20164
1.20207
1.2031
0.383317
0.358954
0.336237
0.315805
0.298201
0.28395
0.27367
0.268176
0.268537
0.276002
0.291697
0.316126
0.348733
0.387879
0.431278
0.47661
0.521952
0.565944
0.607754
0.646952
0.683386
0.71708
0.748158
0.776798
0.803195
0.827551
0.850059
0.870898
0.890233
0.908214
0.924972
0.940628
0.955288
0.969044
0.981982
0.994173
1.00568
1.01657
1.02689
1.03667
1.04598
1.05482
1.06325
1.07128
1.07893
1.08622
1.09317
1.0998
1.10612
1.11214
1.11787
1.12332
1.12848
1.13336
1.13795
1.14223
1.1462
1.14983
1.1531
1.15598
1.15845
1.1605
1.16211
1.16327
1.16399
1.16432
1.16429
1.16397
1.16345
1.16283
1.16223
1.16177
1.16159
1.16182
1.16259
0.383926
0.360429
0.338437
0.318319
0.300425
0.285071
0.272597
0.26342
0.258096
0.257353
0.262057
0.273062
0.290942
0.315686
0.346543
0.382133
0.420773
0.460828
0.500941
0.540122
0.577726
0.61338
0.646914
0.678293
0.707566
0.734832
0.760217
0.783859
0.805894
0.826457
0.845674
0.863661
0.880526
0.896366
0.911269
0.925315
0.938573
0.951108
0.962977
0.97423
0.984913
0.995064
1.00472
1.01391
1.02266
1.03099
1.03892
1.04647
1.05365
1.06049
1.06698
1.07314
1.07897
1.08447
1.08964
1.09447
1.09894
1.10305
1.10676
1.11005
1.11291
1.11532
1.11725
1.11872
1.11973
1.12031
1.12049
1.12035
1.11996
1.11941
1.11883
1.11832
1.11802
1.11807
1.11859
0.384356
0.361567
0.340271
0.320613
0.302785
0.286971
0.273357
0.262155
0.253642
0.248183
0.246262
0.248465
0.255422
0.267671
0.285474
0.308658
0.336564
0.368157
0.40222
0.437572
0.473202
0.508334
0.542423
0.575121
0.606232
0.63567
0.663425
0.689534
0.714068
0.73711
0.758756
0.779099
0.798235
0.816251
0.833234
0.84926
0.864403
0.878727
0.892293
0.905155
0.917362
0.928958
0.939981
0.950466
0.960444
0.969937
0.978965
0.98755
0.995711
1.00346
1.01082
1.01779
1.02438
1.0306
1.03643
1.04188
1.04693
1.05157
1.05579
1.05956
1.06286
1.06568
1.06801
1.06984
1.07118
1.07206
1.07251
1.07259
1.07238
1.07196
1.07143
1.07092
1.07053
1.07042
1.07071
0.384645
0.3624
0.341721
0.322574
0.305012
0.28912
0.274988
0.262719
0.252442
0.244331
0.238618
0.235613
0.235703
0.239328
0.246928
0.258848
0.275219
0.295877
0.320342
0.347879
0.377621
0.408696
0.440324
0.471868
0.502846
0.532919
0.561867
0.589563
0.615944
0.641
0.664751
0.687239
0.708519
0.728653
0.747706
0.765743
0.782828
0.799021
0.814379
0.828956
0.842801
0.855959
0.868469
0.88037
0.891694
0.902469
0.912716
0.922453
0.931703
0.940483
0.948808
0.956689
0.964135
0.971149
0.977733
0.983883
0.989593
0.99485
0.999641
1.00395
1.00776
1.01106
1.01384
1.01609
1.01782
1.01906
1.01983
1.02019
1.02021
1.01997
1.01956
1.01908
1.01867
1.01844
1.01853
0.384827
0.362976
0.342805
0.324148
0.306947
0.291198
0.276922
0.264155
0.252946
0.243368
0.235524
0.229553
0.225648
0.224051
0.225056
0.228985
0.236149
0.246788
0.260999
0.278687
0.299546
0.323088
0.348708
0.375765
0.403652
0.431835
0.459883
0.487464
0.514338
0.540342
0.565373
0.589375
0.612327
0.634233
0.655112
0.674995
0.693921
0.711931
0.72907
0.745381
0.760906
0.775685
0.789757
0.803156
0.815915
0.828063
0.839624
0.850617
0.861057
0.870965
0.880356
0.889243
0.897635
0.90554
0.91296
0.919895
0.926339
0.932286
0.937726
0.942645
0.947031
0.950873
0.954162
0.956898
0.959086
0.960745
0.961906
0.962615
0.962932
0.962931
0.962702
0.962342
0.961958
0.961676
0.961636
0.384935
0.363349
0.343566
0.325333
0.308509
0.293015
0.278815
0.265893
0.254251
0.243905
0.234889
0.227257
0.221089
0.216497
0.213627
0.212662
0.213817
0.217326
0.223417
0.232273
0.243994
0.258559
0.275806
0.295441
0.317067
0.340231
0.364466
0.389336
0.414459
0.439515
0.464253
0.488484
0.51207
0.534916
0.556964
0.578181
0.598555
0.618086
0.636787
0.654676
0.671778
0.688117
0.703722
0.718617
0.73283
0.746385
0.759304
0.771608
0.783306
0.794414
0.804946
0.814916
0.824333
0.833206
0.841539
0.849332
0.856586
0.863295
0.869453
0.875051
0.880081
0.884534
0.888405
0.891694
0.894408
0.896563
0.898187
0.899322
0.900019
0.900348
0.900388
0.900228
0.899968
0.899724
0.899639
0.384994
0.363574
0.344062
0.326166
0.309682
0.294477
0.280464
0.267588
0.255813
0.24512
0.235503
0.226971
0.219547
0.21327
0.208201
0.204423
0.202042
0.201191
0.202024
0.20471
0.209419
0.216301
0.22546
0.236932
0.250663
0.266508
0.284234
0.303546
0.32411
0.345586
0.367651
0.390012
0.41242
0.434669
0.456596
0.478075
0.499014
0.519345
0.539026
0.558027
0.576335
0.593945
0.610859
0.627082
0.642626
0.657502
0.671723
0.6853
0.698247
0.710564
0.722259
0.733344
0.743827
0.753715
0.763011
0.77172
0.779841
0.787374
0.794314
0.800657
0.806399
0.811534
0.816062
0.819982
0.823304
0.826042
0.828221
0.829878
0.83106
0.831826
0.832247
0.832405
0.83239
0.832309
0.8323
0.385025
0.363699
0.344363
0.326707
0.310498
0.295561
0.281772
0.269042
0.257306
0.246517
0.236644
0.227667
0.219578
0.21238
0.206088
0.20073
0.196348
0.193
0.190761
0.189721
0.18999
0.191688
0.19494
0.199869
0.206575
0.215125
0.225537
0.237769
0.251715
0.267211
0.284048
0.301987
0.320777
0.340173
0.359944
0.379887
0.399823
0.419607
0.439118
0.458259
0.476958
0.495157
0.512815
0.529902
0.546396
0.562285
0.577558
0.592212
0.606244
0.619654
0.632431
0.644574
0.656088
0.666974
0.677236
0.686874
0.69589
0.704283
0.712054
0.719199
0.725719
0.731611
0.736877
0.741521
0.74555
0.748979
0.75183
0.754135
0.755935
0.757281
0.758234
0.758867
0.759259
0.759507
0.75974
0.385039
0.363763
0.344529
0.327031
0.311019
0.296298
0.282719
0.270166
0.25855
0.247804
0.237875
0.228725
0.220326
0.21266
0.205716
0.199495
0.194005
0.189262
0.185294
0.182139
0.179847
0.178479
0.178108
0.178817
0.180697
0.18384
0.188336
0.194259
0.201662
0.210564
0.220946
0.232746
0.24586
0.260148
0.275447
0.291573
0.308341
0.325568
0.343085
0.360736
0.378386
0.395916
0.413229
0.43024
0.446883
0.463101
0.478851
0.494096
0.508808
0.522965
0.536549
0.549534
0.561909
0.573667
0.584803
0.595313
0.605195
0.614448
0.623069
0.63106
0.63842
0.64515
0.651253
0.656732
0.661596
0.665858
0.669537
0.672657
0.675254
0.677369
0.679054
0.680369
0.681382
0.682178
0.682871
0.385045
0.363793
0.344613
0.327207
0.311323
0.296756
0.283344
0.270952
0.259476
0.248832
0.238951
0.229781
0.221278
0.213411
0.206155
0.199492
0.193412
0.187912
0.182994
0.178668
0.17495
0.171863
0.169439
0.167716
0.166741
0.16657
0.167264
0.16889
0.171516
0.175209
0.180029
0.18602
0.19321
0.2016
0.211164
0.221846
0.233564
0.24621
0.259659
0.273776
0.288419
0.303449
0.318732
0.334144
0.349572
0.364915
0.380084
0.395002
0.409603
0.423832
0.437642
0.450995
0.463846
0.476169
0.487944
0.499154
0.509788
0.519836
0.529292
0.538152
0.546411
0.55407
0.561127
0.567586
0.57345
0.578729
0.583435
0.587587
0.591209
0.594333
0.596999
0.599253
0.601151
0.602762
0.60418
0.385047
0.363805
0.344651
0.327293
0.311482
0.297013
0.283715
0.271447
0.260093
0.249557
0.239761
0.230639
0.22214
0.21422
0.206844
0.199984
0.193619
0.187734
0.182318
0.177365
0.172874
0.16885
0.165302
0.162241
0.159688
0.157665
0.156202
0.155334
0.155098
0.155542
0.156711
0.158657
0.16143
0.165076
0.169635
0.175137
0.181598
0.189016
0.197369
0.206617
0.216697
0.227534
0.239033
0.251096
0.263613
0.276476
0.289579
0.302819
0.316101
0.329337
0.34245
0.355369
0.368035
0.380385
0.392374
0.403962
0.415117
0.425813
0.436026
0.445739
0.454936
0.463606
0.471738
0.479326
0.486366
0.492856
0.4988
0.504204
0.509083
0.513455
0.517346
0.52079
0.523825
0.526505
0.5289
0.385048
0.36381
0.344666
0.32733
0.311556
0.29714
0.28391
0.271721
0.260452
0.250001
0.240283
0.231225
0.222767
0.214859
0.207459
0.200533
0.194052
0.187994
0.18234
0.177077
0.172195
0.167688
0.163555
0.159795
0.156413
0.153417
0.150818
0.148631
0.146872
0.145563
0.144731
0.144402
0.14461
0.145388
0.146775
0.148806
0.15152
0.154949
0.159124
0.164065
0.169784
0.176281
0.183544
0.191544
0.200241
0.20958
0.219497
0.229918
0.240763
0.251947
0.263386
0.274996
0.286699
0.298415
0.310068
0.32159
0.332919
0.343999
0.35478
0.365219
0.375276
0.38492
0.394121
0.402854
0.411101
0.418846
0.426077
0.432789
0.438982
0.444661
0.449839
0.454535
0.458775
0.462596
0.466044
0.385048
0.363811
0.344671
0.327343
0.311584
0.297191
0.283992
0.271841
0.260616
0.250212
0.24054
0.231524
0.2231
0.215215
0.207823
0.200885
0.19437
0.18825
0.182505
0.177117
0.172072
0.16736
0.162973
0.158908
0.155163
0.151739
0.148639
0.14587
0.14344
0.14136
0.139644
0.138308
0.13737
0.136854
0.136782
0.137182
0.138083
0.139516
0.141514
0.144108
0.147331
0.15121
0.155769
0.161027
0.166992
0.173664
0.181028
0.189061
0.197723
0.206965
0.216724
0.226931
0.237507
0.248371
0.259438
0.270618
0.281829
0.29299
0.304025
0.314867
0.325453
0.335729
0.345646
0.355164
0.364247
0.372866
0.380999
0.388628
0.395742
0.402338
0.408419
0.413994
0.419081
0.423707
0.427902
0.385048
0.363811
0.344671
0.327343
0.311584
0.297191
0.283992
0.271841
0.260616
0.250212
0.24054
0.231524
0.2231
0.215215
0.207823
0.200885
0.19437
0.18825
0.182505
0.177117
0.172072
0.16736
0.162973
0.158908
0.155163
0.151739
0.148639
0.14587
0.14344
0.14136
0.139644
0.138307
0.13737
0.136853
0.136781
0.137181
0.138082
0.139515
0.141513
0.144107
0.14733
0.151209
0.155768
0.161026
0.166991
0.173662
0.181027
0.189059
0.197722
0.206963
0.216723
0.226929
0.237505
0.24837
0.259436
0.270617
0.281828
0.292989
0.304025
0.314867
0.325453
0.335728
0.345646
0.355163
0.364244
0.372862
0.380992
0.388618
0.395728
0.40232
0.408396
0.413967
0.41905
0.423673
0.427866
0.385048
0.36381
0.344666
0.32733
0.311556
0.29714
0.28391
0.271721
0.260452
0.250001
0.240283
0.231225
0.222767
0.214859
0.207459
0.200533
0.194052
0.187994
0.18234
0.177077
0.172194
0.167688
0.163554
0.159794
0.156412
0.153416
0.150817
0.148628
0.146869
0.14556
0.144727
0.144397
0.144604
0.145382
0.146767
0.148798
0.15151
0.154938
0.159111
0.16405
0.169768
0.176264
0.183525
0.191523
0.200218
0.209556
0.219472
0.229892
0.240735
0.251918
0.263357
0.274966
0.286669
0.298384
0.310038
0.32156
0.332889
0.34397
0.354751
0.365191
0.375249
0.384892
0.394092
0.402824
0.411068
0.418808
0.426033
0.432738
0.438922
0.444591
0.449758
0.454443
0.458674
0.462489
0.465934
0.385047
0.363805
0.344651
0.327293
0.311482
0.297013
0.283715
0.271447
0.260093
0.249557
0.239761
0.23064
0.222141
0.21422
0.206844
0.199984
0.193619
0.187734
0.182317
0.177364
0.172873
0.168849
0.165299
0.162238
0.159684
0.15766
0.156196
0.155326
0.155089
0.155531
0.156698
0.158642
0.161412
0.165055
0.169611
0.17511
0.181568
0.188982
0.197331
0.206575
0.216652
0.227485
0.238982
0.251041
0.263555
0.276416
0.289517
0.302756
0.316036
0.329271
0.342382
0.355302
0.367967
0.380317
0.392306
0.403895
0.415051
0.425747
0.435961
0.445675
0.454873
0.463542
0.471673
0.479259
0.486294
0.492778
0.498713
0.504107
0.508974
0.513333
0.517212
0.520643
0.52367
0.526345
0.52874
0.385045
0.363793
0.344613
0.327207
0.311323
0.296757
0.283344
0.270953
0.259477
0.248833
0.238952
0.229782
0.221279
0.213412
0.206155
0.199492
0.193412
0.187911
0.182993
0.178666
0.174946
0.171858
0.169432
0.167707
0.166731
0.166557
0.167248
0.16887
0.171492
0.175181
0.179996
0.185982
0.193167
0.201551
0.211109
0.221786
0.233498
0.246138
0.259583
0.273695
0.288334
0.30336
0.318641
0.33405
0.349476
0.364817
0.379984
0.394901
0.409502
0.42373
0.43754
0.450893
0.463744
0.476068
0.487844
0.499055
0.50969
0.51974
0.529197
0.538057
0.546317
0.553975
0.561031
0.567486
0.573345
0.578616
0.583312
0.587452
0.59106
0.59417
0.596823
0.599066
0.600957
0.602567
0.603992
0.385039
0.363763
0.344529
0.327031
0.311019
0.296299
0.28272
0.270167
0.258551
0.247805
0.237876
0.228726
0.220327
0.21266
0.205716
0.199494
0.194003
0.189258
0.185289
0.182132
0.179838
0.178466
0.178092
0.178796
0.180671
0.183809
0.188298
0.194215
0.20161
0.210504
0.220878
0.23267
0.245775
0.260057
0.275348
0.291468
0.30823
0.325453
0.342966
0.360614
0.378261
0.395789
0.4131
0.43011
0.446752
0.46297
0.47872
0.493965
0.508678
0.522835
0.53642
0.549406
0.561782
0.573542
0.584679
0.595191
0.605075
0.614329
0.622952
0.630944
0.638304
0.645033
0.651133
0.656608
0.661466
0.665719
0.669386
0.672493
0.675075
0.677176
0.678849
0.680154
0.681164
0.681963
0.682669
0.385025
0.363699
0.344363
0.326708
0.310499
0.295562
0.281774
0.269044
0.257308
0.246519
0.236645
0.227668
0.219578
0.212379
0.206086
0.200726
0.196342
0.192991
0.190748
0.189704
0.189968
0.191659
0.194904
0.199824
0.20652
0.215061
0.225462
0.237683
0.251618
0.267104
0.283932
0.301862
0.320645
0.340034
0.3598
0.379738
0.399672
0.419453
0.438962
0.458103
0.476801
0.495
0.512658
0.529746
0.546241
0.562131
0.577406
0.592061
0.606094
0.619505
0.632283
0.644428
0.655944
0.666832
0.677096
0.686736
0.695754
0.70415
0.711922
0.719069
0.725588
0.731479
0.736742
0.741381
0.745402
0.748821
0.75166
0.753951
0.755736
0.757068
0.758009
0.758635
0.759025
0.759282
0.759535
0.384994
0.363574
0.344063
0.326167
0.309684
0.294479
0.280466
0.267591
0.255816
0.245122
0.235505
0.226971
0.219545
0.213266
0.208194
0.204412
0.202027
0.20117
0.201995
0.204673
0.209371
0.216241
0.225387
0.236845
0.250562
0.266393
0.284106
0.303406
0.323959
0.345427
0.367484
0.38984
0.412243
0.43449
0.456415
0.477893
0.498831
0.519163
0.538844
0.557847
0.576157
0.593768
0.610683
0.626909
0.642455
0.657333
0.671556
0.685135
0.698084
0.710403
0.722101
0.733188
0.743673
0.753563
0.762862
0.771573
0.779697
0.787232
0.794174
0.800518
0.80626
0.811394
0.815918
0.819832
0.823146
0.825873
0.828039
0.829681
0.830847
0.831599
0.832009
0.832162
0.832149
0.832082
0.8321
0.384935
0.36335
0.343567
0.325335
0.308511
0.293018
0.278818
0.265896
0.254254
0.243907
0.234889
0.227254
0.221083
0.216486
0.21361
0.212637
0.213783
0.21728
0.223357
0.232198
0.243902
0.258448
0.275678
0.295296
0.316907
0.340058
0.364282
0.389144
0.41426
0.439311
0.464047
0.488276
0.511861
0.534708
0.556758
0.577977
0.598352
0.617886
0.636589
0.654482
0.671586
0.687929
0.703536
0.718434
0.73265
0.746207
0.759129
0.771435
0.783137
0.794247
0.804781
0.814753
0.824174
0.833049
0.841384
0.849181
0.856437
0.863149
0.869309
0.874909
0.879939
0.88439
0.888257
0.891539
0.894244
0.896387
0.897997
0.899116
0.899799
0.900114
0.900143
0.89998
0.899726
0.899501
0.89945
0.384827
0.362977
0.342807
0.324151
0.30695
0.291202
0.276926
0.264158
0.252948
0.243368
0.235519
0.229544
0.225631
0.224025
0.225019
0.228933
0.23608
0.246699
0.260888
0.278554
0.299392
0.322913
0.348516
0.37556
0.403435
0.431611
0.459654
0.487232
0.514105
0.540109
0.565141
0.589146
0.612101
0.63401
0.654892
0.674779
0.693708
0.711723
0.728866
0.74518
0.760709
0.775492
0.789567
0.80297
0.815732
0.827883
0.839447
0.850442
0.860886
0.870796
0.880189
0.889079
0.897474
0.905382
0.912805
0.919742
0.92619
0.93214
0.937582
0.942502
0.946888
0.950728
0.954013
0.956741
0.958919
0.960566
0.961712
0.962405
0.962707
0.962693
0.962455
0.962094
0.96172
0.961461
0.961462
0.384645
0.362402
0.341724
0.322578
0.305017
0.289125
0.274992
0.262721
0.252441
0.244324
0.238605
0.23559
0.235666
0.239274
0.246854
0.258749
0.275094
0.295725
0.320163
0.347677
0.3774
0.408461
0.440078
0.471615
0.502589
0.532661
0.56161
0.589308
0.615692
0.640752
0.664508
0.687
0.708285
0.728424
0.747482
0.765524
0.782613
0.798811
0.814174
0.828755
0.842604
0.855765
0.86828
0.880184
0.891511
0.902289
0.912539
0.92228
0.931532
0.940315
0.948643
0.956527
0.963975
0.970992
0.977579
0.983733
0.989445
0.994706
0.9995
1.00381
1.00762
1.01092
1.01369
1.01593
1.01766
1.01888
1.01964
1.01998
1.01999
1.01973
1.01931
1.01884
1.01844
1.01823
1.01837
0.384357
0.361569
0.340275
0.320619
0.302791
0.286976
0.273359
0.262154
0.253634
0.248166
0.246231
0.248416
0.255349
0.267569
0.28534
0.30849
0.336365
0.36793
0.401972
0.437308
0.472928
0.508054
0.542141
0.574839
0.605953
0.635395
0.663155
0.68927
0.71381
0.736859
0.75851
0.77886
0.798001
0.816024
0.833012
0.849043
0.864191
0.87852
0.892091
0.904958
0.917169
0.928768
0.939795
0.950284
0.960265
0.969762
0.978792
0.98738
0.995544
1.0033
1.01066
1.01763
1.02423
1.03044
1.03628
1.04173
1.04679
1.05143
1.05565
1.05942
1.06273
1.06554
1.06787
1.06969
1.07102
1.07188
1.07232
1.07239
1.07215
1.07172
1.07119
1.07068
1.07031
1.07023
1.07057
0.383927
0.360433
0.338442
0.318325
0.300431
0.285075
0.272596
0.263411
0.258075
0.257314
0.261993
0.272966
0.290808
0.315512
0.34633
0.381887
0.420501
0.460537
0.50064
0.539816
0.577419
0.613076
0.646615
0.678001
0.707281
0.734554
0.759947
0.783596
0.805639
0.826209
0.845433
0.863427
0.880299
0.896145
0.911054
0.925104
0.938368
0.950908
0.962782
0.974039
0.984726
0.994881
1.00454
1.01374
1.02249
1.03082
1.03875
1.0463
1.05349
1.06033
1.06682
1.07299
1.07882
1.08433
1.0895
1.09433
1.09881
1.10291
1.10662
1.10992
1.11278
1.11518
1.11712
1.11858
1.11957
1.12013
1.1203
1.12014
1.11974
1.11918
1.11859
1.11809
1.11781
1.11789
1.11846
0.383319
0.358958
0.336244
0.315811
0.298206
0.283951
0.273661
0.268152
0.26849
0.275923
0.291577
0.315958
0.348517
0.38762
0.430987
0.476297
0.521626
0.565614
0.607424
0.646626
0.683068
0.71677
0.747858
0.776507
0.802914
0.82728
0.849796
0.870644
0.889987
0.907975
0.924741
0.940404
0.95507
0.968833
0.981775
0.993972
1.00549
1.01638
1.0267
1.03649
1.0458
1.05465
1.06308
1.07111
1.07876
1.08606
1.09301
1.09964
1.10597
1.11199
1.11772
1.12317
1.12834
1.13322
1.13781
1.1421
1.14607
1.1497
1.15297
1.15586
1.15833
1.16038
1.16197
1.16313
1.16384
1.16415
1.16411
1.16377
1.16324
1.16261
1.162
1.16155
1.16138
1.16165
1.16248
0.382499
0.357132
0.333739
0.313276
0.296568
0.284508
0.27825
0.279332
0.289537
0.310342
0.342057
0.383258
0.431091
0.482235
0.533801
0.583741
0.630842
0.674526
0.714639
0.751269
0.784637
0.81502
0.842711
0.867994
0.89113
0.912361
0.931899
0.949931
0.966625
0.982125
0.996558
1.01003
1.02265
1.0345
1.04564
1.05615
1.06609
1.0755
1.08442
1.09291
1.10098
1.10867
1.11601
1.123
1.12968
1.13606
1.14216
1.14798
1.15354
1.15886
1.16392
1.16875
1.17333
1.17766
1.18175
1.18556
1.18909
1.19231
1.1952
1.19773
1.19988
1.20162
1.20293
1.20383
1.20431
1.20442
1.20421
1.20374
1.20312
1.20244
1.20185
1.20147
1.20144
1.20191
1.203
0.381436
0.354959
0.331044
0.311056
0.296297
0.288366
0.28942
0.30201
0.328145
0.367832
0.418385
0.475358
0.534265
0.591732
0.64574
0.695353
0.740336
0.780846
0.817229
0.849905
0.879296
0.905804
0.929787
0.951564
0.971412
0.989572
1.00625
1.02162
1.03584
1.04905
1.06134
1.07283
1.0836
1.09372
1.10325
1.11226
1.12079
1.12888
1.13657
1.14389
1.15087
1.15754
1.16391
1.17
1.17583
1.18141
1.18675
1.19186
1.19676
1.20145
1.20594
1.21022
1.21429
1.21815
1.22179
1.2252
1.22835
1.23122
1.23378
1.23601
1.23788
1.23936
1.24044
1.24112
1.24142
1.24137
1.24103
1.24047
1.23979
1.23911
1.23856
1.23827
1.23838
1.23905
1.24038
0.380108
0.352477
0.328359
0.309741
0.298807
0.2985
0.312469
0.343631
0.391724
0.452364
0.519027
0.585869
0.649089
0.70683
0.75855
0.804426
0.844967
0.880792
0.912518
0.940714
0.965879
0.988444
1.00877
1.02718
1.04392
1.05922
1.07326
1.08621
1.09819
1.10932
1.11971
1.12942
1.13854
1.14713
1.15524
1.16291
1.1702
1.17713
1.18373
1.19004
1.19607
1.20184
1.20736
1.21266
1.21774
1.22261
1.2273
1.2318
1.23612
1.24026
1.24424
1.24805
1.25168
1.25513
1.25839
1.26144
1.26426
1.26683
1.26912
1.2711
1.27273
1.274
1.27489
1.27541
1.27556
1.27539
1.27496
1.27434
1.27364
1.27297
1.27247
1.27228
1.27254
1.27339
1.27494
0.378499
0.349757
0.326046
0.310415
0.306752
0.320203
0.355304
0.411906
0.483479
0.560703
0.636003
0.705133
0.766519
0.820133
0.866647
0.90697