/*--------------------------------*- C++ -*----------------------------------*\
  =========                 |
  \\      /  F ield         | OpenFOAM: The Open Source CFD Toolbox
   \\    /   O peration     | Website:  https://openfoam.org
    \\  /    A nd           | Version:  7
     \\/     M anipulation  |
\*---------------------------------------------------------------------------*/
FoamFile
{
    version     2.0;
    format      ascii;
    class       volScalarField;
    location    "700";
    object      nut;
}
// * * * * * * * * * * * * * * * * * * * * * * * * * * * * * * * * * * * * * //

dimensions      [0 2 -1 0 0 0 0];

internalField   nonuniform List<scalar> 
4500
(
0.000506064
0.000491803
0.000480303
0.000472195
0.000465952
0.000461027
0.000457063
0.00045381
0.000451094
0.000448794
0.000446826
0.000445126
0.000443647
0.000442353
0.000441217
0.000440216
0.000439331
0.000438548
0.000437854
0.000437239
0.000436695
0.000436214
0.00043579
0.000435417
0.000435091
0.000434806
0.000434561
0.000434351
0.000434173
0.000434025
0.000433905
0.00043381
0.000433739
0.00043369
0.000433661
0.000433651
0.000433659
0.000433683
0.000433722
0.000433775
0.000433842
0.000433921
0.000434011
0.000434113
0.000434224
0.000434345
0.000434475
0.000434612
0.000434757
0.000434908
0.000435065
0.000435228
0.000435396
0.000435567
0.000435741
0.000435917
0.000436094
0.00043627
0.000436444
0.000436614
0.00043678
0.000436939
0.000437091
0.000437235
0.000437372
0.000437502
0.000437626
0.000437746
0.000437866
0.000437987
0.000438113
0.000438247
0.000438393
0.000438553
0.000438724
0.000607327
0.000974335
0.00114372
0.00120841
0.00123497
0.00124672
0.00125197
0.00125409
0.00125464
0.00125437
0.00125368
0.00125278
0.00125181
0.00125083
0.00124989
0.001249
0.00124819
0.00124745
0.0012468
0.00124623
0.00124574
0.00124532
0.00124497
0.0012447
0.00124449
0.00124434
0.00124426
0.00124423
0.00124425
0.00124432
0.00124443
0.0012446
0.0012448
0.00124504
0.00124531
0.00124562
0.00124596
0.00124632
0.00124671
0.00124713
0.00124757
0.00124803
0.00124851
0.00124901
0.00124953
0.00125006
0.00125061
0.00125117
0.00125174
0.00125233
0.00125292
0.00125351
0.00125411
0.00125471
0.00125531
0.0012559
0.00125648
0.00125704
0.00125758
0.00125808
0.00125854
0.00125895
0.00125931
0.00125962
0.00125987
0.00126008
0.00126024
0.00126038
0.0012605
0.00126064
0.00126081
0.00126104
0.00126136
0.00126178
0.00126228
0.000713424
0.00121515
0.00157793
0.00177481
0.00188365
0.00194758
0.00198742
0.00201353
0.0020314
0.00204407
0.00205335
0.00206032
0.00206571
0.00206996
0.0020734
0.00207624
0.00207864
0.00208072
0.00208255
0.0020842
0.00208571
0.00208712
0.00208846
0.00208974
0.00209099
0.00209221
0.00209341
0.00209461
0.0020958
0.002097
0.0020982
0.00209941
0.00210063
0.00210186
0.0021031
0.00210435
0.00210561
0.00210687
0.00210813
0.00210941
0.00211069
0.00211198
0.00211327
0.00211458
0.00211588
0.00211719
0.0021185
0.00211981
0.00212112
0.00212242
0.00212371
0.002125
0.00212627
0.00212752
0.00212874
0.00212993
0.00213107
0.00213214
0.00213312
0.00213399
0.00213474
0.00213535
0.0021358
0.00213608
0.00213621
0.0021362
0.00213608
0.00213588
0.00213566
0.00213549
0.00213543
0.00213556
0.00213596
0.0021367
0.00213773
0.00102124
0.00136022
0.0018715
0.00222328
0.00244808
0.00259473
0.00269401
0.00276382
0.00281468
0.00285291
0.00288244
0.00290581
0.00292469
0.00294025
0.00295329
0.00296439
0.00297397
0.00298236
0.00298979
0.00299644
0.00300247
0.00300798
0.00301307
0.0030178
0.00302224
0.00302642
0.0030304
0.0030342
0.00303785
0.00304136
0.00304477
0.00304807
0.0030513
0.00305444
0.00305753
0.00306055
0.00306352
0.00306643
0.00306928
0.00307209
0.00307486
0.00307759
0.00308029
0.00308295
0.00308557
0.00308816
0.00309071
0.00309322
0.0030957
0.00309813
0.00310053
0.00310287
0.00310517
0.0031074
0.00310956
0.00311162
0.00311357
0.00311535
0.00311695
0.00311833
0.00311943
0.00312023
0.00312071
0.00312085
0.00312067
0.0031202
0.0031195
0.00311865
0.00311778
0.003117
0.00311648
0.00311635
0.00311679
0.00311795
0.00311975
0.00170708
0.00150447
0.00204415
0.00253669
0.00289421
0.00314704
0.00332847
0.0034619
0.00356263
0.0036406
0.00370233
0.00375222
0.00379326
0.00382758
0.0038567
0.00388174
0.00390351
0.00392266
0.00393966
0.00395491
0.00396869
0.00398124
0.00399275
0.00400339
0.00401327
0.00402251
0.00403119
0.00403938
0.00404715
0.00405454
0.00406161
0.00406838
0.0040749
0.00408118
0.00408725
0.00409313
0.00409884
0.00410437
0.00410974
0.00411496
0.00412005
0.00412501
0.00412986
0.00413459
0.00413921
0.00414373
0.00414814
0.00415245
0.00415665
0.00416075
0.00416475
0.00416864
0.00417241
0.00417605
0.00417954
0.00418284
0.00418592
0.00418872
0.00419118
0.00419324
0.00419483
0.00419589
0.00419639
0.00419632
0.00419568
0.00419454
0.00419301
0.00419123
0.00418939
0.00418772
0.00418647
0.00418592
0.00418632
0.00418796
0.00419074
0.00293021
0.00179432
0.00215557
0.00272719
0.0032116
0.00358299
0.00386409
0.004079
0.0042461
0.00437848
0.00448527
0.00457289
0.00464589
0.00470757
0.00476034
0.00480601
0.00484595
0.0048812
0.0049126
0.00494078
0.00496625
0.00498944
0.00501069
0.00503026
0.00504838
0.00506526
0.00508103
0.00509585
0.00510982
0.00512304
0.00513559
0.00514754
0.00515896
0.00516989
0.00518038
0.00519047
0.00520019
0.00520957
0.00521861
0.00522734
0.0052358
0.00524399
0.00525193
0.00525963
0.00526711
0.00527437
0.00528142
0.00528826
0.0052949
0.00530133
0.00530757
0.0053136
0.00531942
0.00532501
0.00533033
0.00533535
0.00534
0.00534419
0.00534785
0.00535088
0.00535317
0.00535464
0.00535523
0.00535492
0.00535374
0.00535177
0.00534918
0.00534619
0.0053431
0.00534023
0.00533799
0.00533679
0.00533703
0.00533914
0.00534303
0.00471652
0.00241031
0.00230969
0.00283433
0.00340742
0.00389369
0.00428366
0.0045937
0.00484179
0.00504269
0.00520757
0.00534471
0.00546027
0.00555879
0.00564371
0.00571766
0.00578263
0.00584021
0.00589162
0.00593786
0.00597972
0.00601784
0.00605276
0.0060849
0.00611463
0.00614226
0.00616804
0.00619219
0.00621489
0.00623631
0.00625657
0.00627579
0.00629408
0.00631152
0.00632819
0.00634415
0.00635947
0.00637418
0.00638831
0.00640191
0.00641502
0.00642766
0.00643986
0.00645165
0.00646304
0.00647405
0.00648469
0.00649498
0.00650492
0.00651452
0.00652379
0.00653272
0.00654129
0.0065495
0.0065573
0.00656462
0.00657138
0.00657748
0.00658278
0.00658715
0.00659046
0.00659257
0.0065934
0.00659292
0.00659117
0.00658826
0.00658443
0.00657999
0.00657534
0.00657098
0.00656745
0.00656535
0.00656527
0.0065678
0.00657289
0.00695534
0.00349985
0.00265963
0.00293574
0.00351092
0.00408367
0.00457876
0.00499055
0.00533047
0.0056121
0.00584735
0.00604576
0.00621481
0.00636025
0.00648655
0.00659718
0.00669488
0.0067818
0.00685966
0.00692986
0.00699353
0.00705158
0.00710479
0.00715379
0.0071991
0.00724119
0.00728043
0.00731714
0.0073516
0.00738404
0.00741468
0.00744369
0.00747122
0.00749741
0.00752238
0.00754623
0.00756905
0.00759092
0.00761187
0.00763198
0.0076513
0.00766988
0.00768776
0.00770499
0.00772158
0.00773757
0.00775298
0.00776784
0.00778215
0.00779593
0.00780919
0.00782193
0.00783415
0.00784581
0.00785686
0.00786723
0.00787679
0.00788542
0.00789294
0.00789916
0.00790389
0.00790698
0.00790829
0.00790779
0.00790552
0.00790163
0.00789642
0.00789031
0.00788386
0.00787771
0.00787262
0.00786938
0.00786879
0.00787167
0.00787804
0.00946494
0.00509827
0.00338174
0.00315982
0.00358556
0.0041774
0.00475296
0.00526158
0.00569759
0.00606845
0.00638432
0.00665477
0.00688795
0.00709051
0.00726779
0.00742409
0.00756284
0.00768683
0.0077983
0.00789909
0.00799071
0.00807441
0.00815122
0.00822202
0.00828754
0.0083484
0.00840513
0.00845819
0.00850797
0.00855481
0.00859899
0.00864076
0.00868037
0.00871798
0.00875379
0.00878793
0.00882053
0.00885172
0.00888156
0.00891015
0.00893756
0.00896388
0.00898916
0.00901345
0.00903681
0.00905927
0.00908087
0.00910164
0.00912162
0.00914082
0.00915925
0.00917694
0.00919385
0.00920998
0.00922525
0.00923956
0.00925278
0.00926472
0.00927516
0.00928386
0.00929059
0.00929511
0.00929727
0.009297
0.00929435
0.00928953
0.00928289
0.009275
0.00926654
0.00925838
0.00925149
0.00924688
0.00924563
0.00924879
0.00925649
0.0120503
0.00712193
0.0046001
0.00367976
0.00374451
0.00423199
0.00482945
0.00541081
0.00593604
0.00639799
0.00680078
0.00715173
0.00745842
0.00772772
0.00796548
0.00817659
0.00836512
0.00853441
0.00868723
0.00882588
0.00895226
0.00906798
0.00917438
0.00927259
0.00936358
0.00944817
0.00952706
0.00960086
0.00967009
0.00973522
0.00979663
0.00985468
0.00990967
0.00996185
0.0100115
0.0100588
0.0101038
0.0101469
0.0101881
0.0102275
0.0102653
0.0103015
0.0103362
0.0103695
0.0104015
0.0104322
0.0104617
0.01049
0.0105172
0.0105433
0.0105683
0.0105923
0.0106152
0.010637
0.0106577
0.0106771
0.010695
0.0107112
0.0107254
0.0107374
0.0107468
0.0107534
0.0107569
0.0107573
0.0107545
0.010749
0.010741
0.0107313
0.0107207
0.0107104
0.0107015
0.0106954
0.0106934
0.0106967
0.0107058
0.0145382
0.00942111
0.00631631
0.00465971
0.00415424
0.00435399
0.00486444
0.00546284
0.00605162
0.00659513
0.00708406
0.00751953
0.00790638
0.0082504
0.0085572
0.00883188
0.00907883
0.00930184
0.0095041
0.00968833
0.00985683
0.0100115
0.0101541
0.010286
0.0104083
0.0105222
0.0106285
0.010728
0.0108215
0.0109094
0.0109923
0.0110706
0.0111449
0.0112153
0.0112822
0.0113459
0.0114067
0.0114647
0.0115201
0.0115731
0.0116238
0.0116724
0.011719
0.0117636
0.0118065
0.0118476
0.011887
0.0119248
0.0119611
0.0119958
0.0120291
0.012061
0.0120915
0.0121205
0.0121479
0.0121736
0.0121974
0.0122191
0.0122382
0.0122545
0.0122675
0.0122769
0.0122825
0.0122841
0.0122817
0.0122758
0.0122667
0.0122553
0.0122428
0.0122303
0.0122193
0.0122116
0.0122086
0.0122121
0.0122226
0.0167964
0.0118301
0.00841662
0.00616647
0.00499572
0.00470745
0.00496497
0.00547746
0.00607302
0.00666908
0.00723109
0.00774722
0.00821571
0.00863906
0.00902134
0.00936699
0.00968026
0.00996504
0.0102248
0.0104624
0.0106807
0.0108817
0.0110675
0.0112398
0.0113999
0.0115493
0.0116889
0.0118197
0.0119427
0.0120584
0.0121676
0.0122709
0.0123688
0.0124616
0.0125499
0.0126339
0.0127139
0.0127904
0.0128634
0.0129332
0.013
0.0130639
0.0131251
0.0131839
0.0132401
0.0132941
0.0133458
0.0133954
0.0134429
0.0134885
0.0135321
0.0135738
0.0136136
0.0136515
0.0136873
0.013721
0.0137522
0.0137807
0.0138061
0.0138279
0.0138456
0.0138589
0.0138675
0.0138711
0.0138699
0.0138641
0.0138544
0.0138417
0.0138273
0.0138128
0.0137999
0.0137904
0.0137865
0.0137901
0.0138019
0.0187409
0.0141959
0.0107323
0.00812806
0.00637517
0.00548226
0.0052985
0.00556839
0.00606791
0.00665555
0.00725658
0.00783569
0.00837814
0.00887927
0.00933926
0.00976046
0.0101461
0.0104994
0.0108239
0.0111225
0.011398
0.0116528
0.0118892
0.0121089
0.0123137
0.0125051
0.0126843
0.0128526
0.0130109
0.0131602
0.0133011
0.0134345
0.0135609
0.0136809
0.013795
0.0139037
0.0140072
0.0141061
0.0142006
0.0142909
0.0143773
0.01446
0.0145392
0.0146151
0.0146879
0.0147576
0.0148244
0.0148885
0.0149499
0.0150086
0.0150649
0.0151187
0.01517
0.0152188
0.0152651
0.0153085
0.015349
0.015386
0.0154191
0.0154479
0.0154718
0.0154903
0.015503
0.0155098
0.0155106
0.0155059
0.0154963
0.0154829
0.0154672
0.0154509
0.0154362
0.0154251
0.0154202
0.0154237
0.0154366
0.0203353
0.0163925
0.0130921
0.0103772
0.00825299
0.00680513
0.00606205
0.00591225
0.00616261
0.00663481
0.00720686
0.00780792
0.00840069
0.00896709
0.00949942
0.00999542
0.0104556
0.0108818
0.0112765
0.0116424
0.0119818
0.0122974
0.0125913
0.0128656
0.013122
0.0133623
0.0135879
0.0138001
0.0140001
0.0141889
0.0143674
0.0145366
0.014697
0.0148495
0.0149946
0.0151328
0.0152646
0.0153904
0.0155107
0.0156257
0.0157358
0.0158412
0.0159421
0.0160389
0.0161316
0.0162204
0.0163056
0.0163872
0.0164654
0.0165403
0.0166119
0.0166804
0.0167458
0.016808
0.0168669
0.0169223
0.016974
0.0170215
0.0170643
0.0171019
0.0171336
0.0171589
0.0171774
0.0171887
0.0171929
0.0171904
0.0171819
0.0171687
0.0171524
0.017135
0.0171188
0.0171063
0.0171004
0.0171037
0.0171175
0.0215825
0.0183294
0.0153493
0.0127226
0.0104644
0.0086521
0.0073891
0.00671235
0.00654767
0.00675168
0.00718034
0.00772556
0.00831836
0.00891864
0.00950458
0.0100651
0.0105953
0.0110936
0.0115604
0.0119971
0.0124054
0.0127874
0.0131451
0.0134804
0.0137951
0.014091
0.0143697
0.0146324
0.0148806
0.0151154
0.0153378
0.0155488
0.0157492
0.0159399
0.0161214
0.0162946
0.0164598
0.0166177
0.0167687
0.0169131
0.0170515
0.0171839
0.0173109
0.0174325
0.0175492
0.017661
0.0177682
0.0178709
0.0179693
0.0180636
0.0181538
0.01824
0.0183223
0.0184006
0.0184748
0.0185448
0.0186102
0.0186705
0.0187252
0.0187737
0.0188153
0.0188494
0.0188754
0.018893
0.0189023
0.0189035
0.0188976
0.0188858
0.0188699
0.0188521
0.018835
0.0188215
0.0188146
0.0188176
0.0188319
0.0225141
0.0199544
0.0173928
0.0149958
0.0127993
0.010854
0.00925304
0.00809649
0.00743
0.00721364
0.00734589
0.00771147
0.00821417
0.00878619
0.00938426
0.00998242
0.0105658
0.0111265
0.0116607
0.0121669
0.0126453
0.0130966
0.0135221
0.0139234
0.0143021
0.0146596
0.0149974
0.0153171
0.0156199
0.0159071
0.0161797
0.0164388
0.0166854
0.0169203
0.0171444
0.0173582
0.0175626
0.017758
0.017945
0.0181241
0.0182957
0.0184601
0.0186178
0.018769
0.018914
0.0190531
0.0191864
0.0193143
0.0194368
0.0195542
0.0196665
0.0197739
0.0198765
0.0199741
0.0200667
0.0201541
0.020236
0.0203118
0.0203811
0.020443
0.0204969
0.020542
0.0205778
0.0206039
0.0206202
0.0206271
0.0206255
0.0206166
0.0206025
0.0205855
0.0205684
0.0205544
0.0205469
0.0205495
0.020564
0.0231786
0.0212515
0.0191504
0.0170697
0.0150687
0.0131822
0.011469
0.0100167
0.00891707
0.0082239
0.00792738
0.00796293
0.00824224
0.00868153
0.00921499
0.00979641
0.0103955
0.0109932
0.0115781
0.0121436
0.0126863
0.0132046
0.0136982
0.0141674
0.0146131
0.0150364
0.0154384
0.0158204
0.0161835
0.0165289
0.0168579
0.0171713
0.0174702
0.0177555
0.0180281
0.0182887
0.018538
0.0187768
0.0190055
0.0192248
0.0194351
0.0196369
0.0198305
0.0200162
0.0201945
0.0203656
0.0205298
0.0206872
0.0208382
0.0209829
0.0211214
0.0212539
0.0213804
0.0215009
0.0216154
0.0217235
0.0218251
0.0219195
0.0220062
0.0220844
0.0221534
0.0222123
0.0222605
0.0222976
0.0223235
0.0223384
0.0223432
0.0223394
0.0223288
0.0223141
0.0222982
0.0222846
0.022277
0.0222792
0.0222937
0.0236309
0.0222362
0.0205882
0.0188628
0.0171328
0.0154307
0.0137891
0.0122607
0.0109209
0.00985089
0.00911003
0.00871324
0.00862895
0.00879609
0.00914584
0.0096168
0.0101611
0.0107443
0.0113431
0.011942
0.0125313
0.0131048
0.0136592
0.0141925
0.014704
0.0151937
0.0156619
0.0161093
0.0165367
0.0169451
0.0173354
0.0177085
0.0180653
0.0184068
0.0187338
0.0190471
0.0193473
0.0196353
0.0199117
0.0201769
0.0204316
0.0206763
0.0209113
0.0211371
0.0213539
0.0215622
0.0217622
0.0219541
0.0221383
0.0223148
0.022484
0.0226458
0.0228005
0.0229479
0.0230881
0.0232207
0.0233456
0.0234621
0.0235696
0.0236674
0.0237546
0.0238304
0.0238941
0.0239452
0.0239835
0.0240092
0.0240231
0.0240267
0.024022
0.0240116
0.0239986
0.0239867
0.0239797
0.0239821
0.0239963
0.0239241
0.0229458
0.0217059
0.0203354
0.0189062
0.0174526
0.0159956
0.0145615
0.0131926
0.0119492
0.0109003
0.0101063
0.0095999
0.00937813
0.00940743
0.00963764
0.0100159
0.0104955
0.0110393
0.0116196
0.0122168
0.0128173
0.0134122
0.0139954
0.0145632
0.0151133
0.0156445
0.0161563
0.0166487
0.0171218
0.0175763
0.0180127
0.0184318
0.0188341
0.0192205
0.0195917
0.0199484
0.0202912
0.0206208
0.0209377
0.0212425
0.0215358
0.0218178
0.0220892
0.02235
0.0226009
0.022842
0.0230736
0.0232961
0.0235095
0.0237141
0.02391
0.0240973
0.024276
0.0244461
0.0246074
0.0247594
0.0249018
0.0250339
0.025155
0.025264
0.0253603
0.025443
0.0255114
0.0255655
0.0256053
0.0256316
0.0256457
0.0256496
0.0256459
0.025638
0.0256296
0.0256247
0.0256279
0.0256424
0.0241048
0.0234303
0.0225301
0.0214842
0.0203512
0.0191647
0.0179427
0.0166986
0.0154511
0.0142309
0.0130828
0.0120624
0.0112256
0.0106148
0.010249
0.0101206
0.0102015
0.0104527
0.0108329
0.0113054
0.0118395
0.0124118
0.0130047
0.0136056
0.0142055
0.0147983
0.0153798
0.0159471
0.0164986
0.0170333
0.0175506
0.0180505
0.0185331
0.0189987
0.0194476
0.0198805
0.0202977
0.0206999
0.0210875
0.0214612
0.0218214
0.0221685
0.022503
0.0228253
0.0231358
0.0234346
0.0237222
0.0239989
0.0242648
0.0245203
0.0247653
0.0250002
0.025225
0.0254398
0.0256443
0.0258386
0.0260222
0.0261947
0.0263555
0.0265038
0.0266387
0.0267593
0.0268649
0.0269547
0.0270284
0.0270861
0.0271285
0.0271567
0.0271726
0.027179
0.027179
0.0271765
0.0271757
0.0271814
0.0271969
0.0242104
0.023743
0.0231051
0.0223339
0.0214686
0.0205374
0.0195569
0.0185366
0.0174843
0.0164115
0.0153381
0.0142947
0.0133225
0.0124679
0.011775
0.0112758
0.0109838
0.0108936
0.0109844
0.0112267
0.0115885
0.0120397
0.0125545
0.0131118
0.0136953
0.0142927
0.0148948
0.015495
0.0160885
0.0166719
0.0172429
0.0177999
0.018342
0.0188686
0.0193795
0.0198746
0.020354
0.0208179
0.0212667
0.0217006
0.0221201
0.0225254
0.0229169
0.023295
0.0236599
0.0240118
0.024351
0.0246778
0.0249924
0.025295
0.0255856
0.0258645
0.0261318
0.0263873
0.0266311
0.0268631
0.0270828
0.0272899
0.0274838
0.0276637
0.0278288
0.0279782
0.028111
0.0282266
0.0283244
0.0284044
0.0284672
0.0285139
0.0285461
0.0285665
0.0285782
0.0285849
0.0285911
0.0286015
0.0286199
0.0242687
0.0239331
0.0234832
0.022928
0.0222874
0.0215809
0.0208224
0.0200202
0.0191788
0.0183021
0.0173958
0.0164709
0.015546
0.0146483
0.0138124
0.0130761
0.012475
0.0120354
0.0117707
0.0116797
0.0117493
0.0119586
0.012283
0.0126979
0.013181
0.0137132
0.014279
0.0148659
0.0154643
0.0160671
0.0166686
0.0172647
0.0178524
0.0184297
0.0189948
0.0195468
0.0200849
0.0206087
0.0211181
0.0216128
0.0220929
0.0225585
0.0230097
0.0234467
0.0238696
0.0242786
0.0246737
0.025055
0.0254228
0.0257771
0.0261181
0.0264457
0.0267601
0.0270613
0.0273491
0.0276235
0.027884
0.0281304
0.0283621
0.0285784
0.0287784
0.0289614
0.0291263
0.0292725
0.0293995
0.029507
0.0295955
0.0296658
0.0297195
0.0297589
0.029787
0.0298075
0.0298247
0.0298434
0.0298677
0.0242989
0.0240415
0.0237167
0.023319
0.0228541
0.0223318
0.0217619
0.0211513
0.0205038
0.0198214
0.019105
0.0183565
0.0175807
0.0167867
0.0159902
0.015213
0.0144829
0.0138304
0.013285
0.0128702
0.0126008
0.0124808
0.0125047
0.0126592
0.0129266
0.0132877
0.0137233
0.0142163
0.0147516
0.0153169
0.015902
0.0164988
0.0171009
0.0177035
0.0183026
0.0188954
0.0194797
0.0200537
0.0206163
0.0211666
0.0217038
0.0222276
0.0227375
0.0232335
0.0237153
0.0241829
0.024636
0.0250747
0.0254988
0.0259084
0.0263034
0.0266839
0.0270496
0.0274007
0.027737
0.0280584
0.0283645
0.0286549
0.0289293
0.0291869
0.029427
0.0296488
0.0298513
0.0300339
0.0301958
0.0303369
0.0304572
0.0305574
0.0306389
0.0307037
0.0307545
0.0307948
0.0308286
0.0308607
0.0308954
0.0243137
0.0240994
0.0238516
0.0235602
0.0232227
0.0228417
0.0224217
0.0219673
0.021482
0.0209674
0.020424
0.0198512
0.0192489
0.0186176
0.0179607
0.017285
0.0166018
0.0159277
0.0152838
0.0146943
0.0141835
0.0137732
0.0134797
0.0133118
0.0132708
0.0133509
0.0135415
0.0138287
0.0141972
0.014632
0.0151192
0.0156466
0.0162035
0.0167812
0.0173722
0.0179709
0.0185723
0.0191727
0.0197691
0.0203591
0.0209408
0.0215128
0.0220738
0.022623
0.0231595
0.0236828
0.0241925
0.0246879
0.0251689
0.0256349
0.0260858
0.0265214
0.0269414
0.0273458
0.0277343
0.0281067
0.0284628
0.028802
0.0291241
0.0294284
0.0297142
0.0299807
0.0302271
0.0304526
0.0306564
0.0308383
0.030998
0.031136
0.0312533
0.0313515
0.0314331
0.0315011
0.0315592
0.031612
0.0316638
0.0243203
0.0241281
0.0239241
0.023699
0.0234471
0.0231665
0.022858
0.0225234
0.0221648
0.0217837
0.0213807
0.0209556
0.0205075
0.0200352
0.0195375
0.0190143
0.0184671
0.0179
0.0173205
0.0167398
0.016173
0.0156382
0.0151549
0.0147427
0.0144182
0.0141938
0.0140765
0.0140677
0.0141634
0.0143559
0.0146348
0.0149883
0.0154045
0.0158718
0.0163798
0.0169191
0.0174816
0.0180606
0.0186502
0.0192456
0.019843
0.0204391
0.0210311
0.021617
0.0221949
0.0227632
0.0233208
0.0238666
0.0243995
0.0249189
0.0254239
0.0259141
0.026389
0.0268481
0.0272912
0.0277179
0.0281278
0.0285204
0.0288955
0.0292523
0.0295901
0.0299084
0.0302061
0.0304824
0.0307367
0.0309682
0.0311767
0.0313623
0.0315256
0.0316677
0.0317905
0.0318967
0.0319894
0.0320729
0.0321512
0.0243232
0.0241413
0.0239602
0.0237729
0.0235739
0.0233596
0.0231282
0.0228796
0.0226142
0.0223328
0.0220359
0.0217237
0.0213958
0.0210513
0.020689
0.0203073
0.0199048
0.0194805
0.0190346
0.0185687
0.018087
0.0175959
0.0171052
0.0166273
0.0161768
0.0157695
0.0154209
0.0151448
0.014952
0.0148493
0.0148393
0.0149208
0.015089
0.0153369
0.0156558
0.0160361
0.0164686
0.016944
0.017454
0.017991
0.0185486
0.0191208
0.0197027
0.0202903
0.0208798
0.0214682
0.022053
0.0226319
0.0232031
0.023765
0.0243161
0.0248552
0.0253813
0.0258935
0.0263913
0.0268739
0.0273407
0.0277912
0.0282248
0.0286407
0.0290383
0.0294167
0.0297751
0.0301123
0.0304277
0.0307203
0.0309895
0.0312351
0.0314571
0.0316562
0.0318336
0.0319914
0.032132
0.0322592
0.0323764
0.0243243
0.0241468
0.0239767
0.0238093
0.0236402
0.0234659
0.0232838
0.0230926
0.0228914
0.0226801
0.0224587
0.0222274
0.021986
0.0217344
0.0214717
0.0211972
0.0209094
0.020607
0.0202885
0.0199526
0.0195985
0.0192262
0.0188373
0.0184347
0.0180237
0.0176116
0.0172079
0.016824
0.0164722
0.0161651
0.0159144
0.0157302
0.0156198
0.0155875
0.0156346
0.0157596
0.0159585
0.0162258
0.0165544
0.016937
0.017366
0.0178339
0.0183339
0.0188596
0.0194053
0.0199659
0.0205369
0.0211144
0.021695
0.0222758
0.0228541
0.0234277
0.0239945
0.024553
0.0251017
0.0256394
0.0261649
0.0266772
0.0271752
0.0276579
0.0281243
0.0285732
0.0290034
0.0294139
0.0298033
0.0301705
0.0305145
0.0308346
0.0311302
0.0314014
0.0316487
0.0318734
0.0320771
0.0322627
0.0324332
0.0243246
0.024149
0.0239836
0.0238256
0.0236718
0.0235195
0.0233663
0.0232101
0.0230498
0.0228845
0.0227135
0.0225367
0.0223538
0.0221647
0.0219692
0.0217669
0.0215573
0.0213397
0.021113
0.0208762
0.0206281
0.0203674
0.020093
0.0198044
0.0195013
0.0191846
0.0188565
0.0185202
0.018181
0.0178456
0.0175221
0.0172198
0.0169488
0.0167189
0.0165391
0.016417
0.0163585
0.016367
0.0164439
0.0165884
0.0167979
0.0170683
0.0173946
0.017771
0.0181917
0.0186507
0.0191421
0.0196607
0.0202012
0.0207592
0.0213304
0.021911
0.0224974
0.0230865
0.0236757
0.0242624
0.0248443
0.0254194
0.0259856
0.026541
0.0270838
0.0276122
0.0281244
0.0286187
0.0290933
0.0295466
0.0299771
0.0303833
0.0307643
0.0311193
0.0314481
0.0317511
0.0320293
0.0322846
0.0325189
0.0243248
0.0241497
0.0239862
0.0238322
0.0236855
0.023544
0.0234057
0.0232688
0.0231318
0.0229936
0.0228531
0.0227097
0.0225629
0.0224126
0.0222584
0.0221002
0.0219379
0.0217713
0.0216001
0.021424
0.0212425
0.0210549
0.0208606
0.0206585
0.0204481
0.0202285
0.0199992
0.0197601
0.0195117
0.0192553
0.018993
0.0187282
0.0184655
0.0182106
0.01797
0.0177515
0.0175626
0.0174112
0.0173045
0.0172486
0.0172484
0.0173073
0.0174269
0.0176075
0.0178476
0.0181448
0.0184956
0.0188957
0.0193404
0.0198248
0.0203436
0.0208918
0.0214643
0.0220561
0.0226626
0.0232794
0.0239025
0.0245279
0.0251521
0.0257717
0.0263836
0.0269849
0.0275728
0.0281448
0.0286985
0.0292316
0.029742
0.0302277
0.0306872
0.0311192
0.0315228
0.0318977
0.0322442
0.0325634
0.0328565
0.0243248
0.0241499
0.023987
0.0238344
0.0236903
0.0235531
0.0234211
0.0232926
0.0231662
0.0230406
0.0229147
0.0227876
0.0226587
0.0225274
0.0223935
0.0222568
0.0221174
0.0219751
0.0218302
0.0216826
0.0215323
0.0213794
0.0212236
0.0210647
0.0209024
0.0207364
0.0205661
0.0203912
0.0202114
0.0200265
0.0198369
0.0196433
0.019447
0.0192503
0.0190561
0.0188685
0.0186921
0.0185325
0.0183958
0.0182885
0.0182169
0.0181872
0.0182048
0.0182742
0.0183987
0.0185805
0.0188201
0.0191169
0.019469
0.0198733
0.0203258
0.0208217
0.0213559
0.0219225
0.0225158
0.0231302
0.0237601
0.0244002
0.0250457
0.0256919
0.0263347
0.0269702
0.0275949
0.0282055
0.0287991
0.029373
0.0299246
0.0304517
0.0309523
0.0314247
0.0318677
0.0322807
0.0326634
0.0330165
0.033341
0.0243248
0.0241499
0.023987
0.0238344
0.0236903
0.0235531
0.0234211
0.0232926
0.0231662
0.0230406
0.0229147
0.0227876
0.0226587
0.0225274
0.0223935
0.0222568
0.0221174
0.0219751
0.0218302
0.0216826
0.0215323
0.0213794
0.0212236
0.0210647
0.0209025
0.0207364
0.0205662
0.0203913
0.0202114
0.0200266
0.019837
0.0196433
0.0194471
0.0192504
0.0190562
0.0188686
0.0186922
0.0185326
0.0183959
0.0182886
0.018217
0.0181873
0.0182049
0.0182743
0.0183988
0.0185806
0.0188202
0.019117
0.0194691
0.0198734
0.0203259
0.0208218
0.0213559
0.0219225
0.0225159
0.0231303
0.0237602
0.0244004
0.0250459
0.0256922
0.026335
0.0269705
0.0275952
0.0282058
0.0287993
0.0293729
0.0299242
0.0304507
0.0309506
0.0314221
0.0318641
0.0322758
0.0326573
0.0330093
0.0333325
0.0243248
0.0241497
0.0239862
0.0238322
0.0236855
0.023544
0.0234057
0.0232688
0.0231318
0.0229936
0.0228531
0.0227097
0.022563
0.0224127
0.0222585
0.0221003
0.021938
0.0217714
0.0216003
0.0214242
0.0212427
0.0210552
0.0208608
0.0206588
0.0204484
0.0202289
0.0199996
0.0197606
0.0195122
0.0192558
0.0189936
0.0187289
0.0184662
0.0182112
0.0179708
0.0177522
0.0175633
0.0174119
0.0173051
0.0172491
0.0172488
0.0173076
0.0174272
0.0176077
0.0178477
0.0181449
0.0184956
0.0188956
0.0193403
0.0198246
0.0203434
0.0208916
0.021464
0.0220558
0.0226623
0.0232792
0.0239024
0.0245279
0.0251522
0.0257719
0.026384
0.0269853
0.0275732
0.0281451
0.0286984
0.0292308
0.0297402
0.0302246
0.0306823
0.031112
0.0315131
0.0318852
0.0322289
0.0325453
0.0328359
0.0243246
0.024149
0.0239836
0.0238256
0.0236719
0.0235196
0.0233663
0.0232102
0.0230499
0.0228846
0.0227136
0.0225368
0.022354
0.0221649
0.0219695
0.0217672
0.0215577
0.0213401
0.0211135
0.0208768
0.0206287
0.0203681
0.0200938
0.0198052
0.0195022
0.0191857
0.0188576
0.0185214
0.0181822
0.0178468
0.0175233
0.0172211
0.0169501
0.01672
0.0165401
0.0164179
0.0163592
0.0163675
0.0164442
0.0165885
0.0167978
0.017068
0.0173941
0.0177705
0.018191
0.0186499
0.0191412
0.0196597
0.0202002
0.0207581
0.0213293
0.0219099
0.0224963
0.0230855
0.0236747
0.0242615
0.0248436
0.0254188
0.0259851
0.0265407
0.0270836
0.0276121
0.0281242
0.0286181
0.0290922
0.0295445
0.0299736
0.030378
0.0307567
0.0311089
0.0314347
0.0317344
0.0320094
0.0322616
0.0324933
0.0243243
0.0241468
0.0239767
0.0238093
0.0236402
0.0234659
0.0232839
0.0230927
0.0228916
0.0226803
0.022459
0.0222278
0.0219865
0.0217349
0.0214724
0.0211979
0.0209102
0.020608
0.0202896
0.0199538
0.0195998
0.0192277
0.0188389
0.0184364
0.0180255
0.0176135
0.0172098
0.0168258
0.016474
0.0161667
0.0159159
0.0157315
0.0156208
0.0155882
0.015635
0.0157597
0.0159584
0.0162254
0.0165537
0.0169361
0.0173649
0.0178327
0.0183325
0.0188581
0.0194037
0.0199642
0.0205352
0.0211126
0.0216932
0.022274
0.0228524
0.023426
0.0239929
0.0245514
0.0251002
0.025638
0.0261637
0.0266762
0.0271743
0.0276572
0.0281236
0.0285725
0.0290025
0.0294125
0.0298012
0.0301672
0.0305097
0.0308278
0.031121
0.0313894
0.0316337
0.0318552
0.032056
0.032239
0.0324075
0.0243232
0.0241413
0.0239602
0.023773
0.023574
0.0233598
0.0231285
0.02288
0.0226147
0.0223334
0.0220366
0.0217245
0.0213967
0.0210524
0.0206903
0.0203087
0.0199064
0.0194823
0.0190365
0.0185709
0.0180893
0.0175983
0.0171077
0.0166298
0.0161793
0.0157719
0.0154231
0.0151467
0.0149536
0.0148505
0.0148401
0.0149212
0.0150891
0.0153366
0.0156551
0.0160352
0.0164674
0.0169426
0.0174524
0.0179893
0.0185468
0.0191189
0.0197008
0.0202883
0.0208778
0.0214662
0.022051
0.0226299
0.0232012
0.0237631
0.0243143
0.0248534
0.0253796
0.0258919
0.0263898
0.0268725
0.0273396
0.0277902
0.0282239
0.02864
0.0290376
0.0294159
0.0297739
0.0301107
0.0304252
0.0307165
0.0309841
0.0312277
0.0314473
0.0316438
0.0318185
0.0319735
0.0321117
0.0322368
0.0323529
0.0243204
0.0241281
0.0239242
0.0236991
0.0234473
0.0231669
0.0228585
0.0225241
0.0221657
0.0217847
0.0213819
0.0209571
0.0205092
0.020037
0.0195396
0.0190166
0.0184697
0.0179029
0.0173235
0.016743
0.0161762
0.0156413
0.0151579
0.0147454
0.0144205
0.0141957
0.014078
0.0140686
0.0141639
0.0143559
0.0146344
0.0149875
0.0154034
0.0158705
0.0163783
0.0169174
0.0174798
0.0180586
0.0186482
0.0192436
0.0198409
0.020437
0.0210291
0.021615
0.0221929
0.0227613
0.023319
0.0238648
0.0243978
0.0249172
0.0254224
0.0259126
0.0263876
0.0268469
0.0272901
0.0277169
0.028127
0.0285198
0.028895
0.0292519
0.0295898
0.0299078
0.0302051
0.0304809
0.0307342
0.0309645
0.0311714
0.0313551
0.0315161
0.0316558
0.0317762
0.0318801
0.0319708
0.0320529
0.0321306
0.0243137
0.0240994
0.0238518
0.0235606
0.0232232
0.0228424
0.0224226
0.0219685
0.0214835
0.0209692
0.020426
0.0198536
0.0192515
0.0186206
0.017964
0.0172885
0.0166055
0.0159315
0.0152876
0.0146979
0.0141868
0.0137762
0.0134821
0.0133136
0.013272
0.0133516
0.0135417
0.0138283
0.0141964
0.0146309
0.0151179
0.015645
0.0162018
0.0167793
0.0173703
0.0179689
0.0185703
0.0191707
0.0197672
0.0203572
0.020939
0.021511
0.0220721
0.0226213
0.023158
0.0236814
0.0241911
0.0246867
0.0251677
0.0256338
0.0260848
0.0265205
0.0269407
0.0273452
0.0277339
0.0281064
0.0284626
0.0288021
0.0291243
0.0294286
0.0297144
0.0299807
0.0302267
0.0304515
0.0306545
0.030835
0.0309932
0.0311294
0.0312446
0.0313407
0.0314202
0.0314862
0.0315427
0.0315946
0.0316464
0.024299
0.0240417
0.0237171
0.0233196
0.022855
0.0223331
0.0217635
0.0211532
0.0205061
0.0198241
0.0191081
0.01836
0.0175845
0.0167909
0.0159945
0.0152174
0.0144873
0.0138346
0.0132887
0.0128734
0.0126033
0.0124826
0.0125058
0.0126596
0.0129265
0.0132871
0.0137223
0.014215
0.0147501
0.0153152
0.0159002
0.0164969
0.0170991
0.0177016
0.0183008
0.0188936
0.019478
0.0200521
0.0206148
0.0211651
0.0217024
0.0222263
0.0227364
0.0232325
0.0237144
0.0241821
0.0246353
0.0250741
0.0254984
0.0259081
0.0263032
0.0266838
0.0270497
0.0274009
0.0277374
0.0280589
0.0283651
0.0286558
0.0289302
0.0291879
0.0294279
0.0296495
0.0298516
0.0300335
0.0301945
0.0303344
0.0304533
0.0305518
0.0306314
0.0306943
0.0307432
0.0307819
0.0308145
0.0308461
0.0308811
0.0242687
0.0239334
0.0234838
0.022929
0.0222889
0.0215829
0.0208248
0.0200231
0.0191822
0.018306
0.0174001
0.0164756
0.015551
0.0146534
0.0138173
0.0130808
0.0124791
0.0120388
0.0117733
0.0116814
0.0117503
0.0119589