/*--------------------------------*- C++ -*----------------------------------*\
  =========                 |
  \\      /  F ield         | OpenFOAM: The Open Source CFD Toolbox
   \\    /   O peration     | Website:  https://openfoam.org
    \\  /    A nd           | Version:  7
     \\/     M anipulation  |
\*---------------------------------------------------------------------------*/
FoamFile
{
    version     2.0;
    format      ascii;
    class       volScalarField;
    location    "700";
    object      p;
}
// * * * * * * * * * * * * * * * * * * * * * * * * * * * * * * * * * * * * * //

dimensions      [0 2 -2 0 0 0 0];

internalField   nonuniform List<scalar> 
4500
(
65.7116
62.6999
61.5401
60.4059
59.2778
58.1929
57.1419
56.115
55.1087
54.1205
53.1478
52.1888
51.2421
50.3064
49.3808
48.4643
47.5562
46.6559
45.7628
44.8764
43.9962
43.122
42.2533
41.3897
40.5311
39.6771
38.8275
37.982
37.1405
36.3028
35.4686
34.6379
33.8103
32.9859
32.1644
31.3457
30.5297
29.7162
28.9052
28.0964
27.2898
26.4853
25.6827
24.882
24.083
23.2855
22.4896
21.695
20.9016
20.1094
19.3182
18.5278
17.7382
16.9492
16.1607
15.3725
14.5846
13.7968
13.0091
12.2213
11.4335
10.6455
9.85745
9.06932
8.28112
7.49292
6.70474
5.91667
5.12869
4.34081
3.55295
2.76505
1.97684
1.18838
0.400125
65.3248
62.6716
61.5389
60.4063
59.2782
58.1932
57.1421
56.1151
55.1089
54.1206
53.1479
52.1889
51.2422
50.3065
49.3808
48.4643
47.5562
46.6559
45.7628
44.8764
43.9963
43.122
42.2533
41.3897
40.5311
39.6771
38.8275
37.982
37.1405
36.3028
35.4686
34.6379
33.8103
32.9859
32.1644
31.3457
30.5297
29.7162
28.9052
28.0964
27.2898
26.4853
25.6827
24.882
24.083
23.2855
22.4896
21.695
20.9016
20.1094
19.3182
18.5278
17.7382
16.9492
16.1607
15.3725
14.5846
13.7968
13.0091
12.2213
11.4335
10.6455
9.85744
9.06931
8.28111
7.49291
6.70473
5.91666
5.12868
4.3408
3.55294
2.76504
1.97683
1.18837
0.400119
65.2373
62.6785
61.541
60.4074
59.2789
58.1937
57.1425
56.1154
55.1091
54.1208
53.1481
52.1891
51.2423
50.3066
49.3809
48.4644
47.5563
46.656
45.7629
44.8765
43.9963
43.1221
42.2533
41.3898
40.5311
39.6771
38.8275
37.982
37.1405
36.3028
35.4686
34.6379
33.8103
32.9859
32.1644
31.3457
30.5297
29.7162
28.9052
28.0964
27.2898
26.4853
25.6827
24.882
24.0829
23.2855
22.4896
21.695
20.9016
20.1094
19.3182
18.5278
17.7382
16.9492
16.1607
15.3725
14.5846
13.7968
13.0091
12.2213
11.4334
10.6455
9.85743
9.0693
8.2811
7.4929
6.70472
5.91665
5.12867
4.34079
3.55292
2.76503
1.97682
1.18836
0.400111
65.237
62.6868
61.5428
60.4085
59.2797
58.1943
57.1429
56.1158
55.1094
54.1211
53.1483
52.1892
51.2425
50.3067
49.381
48.4645
47.5564
46.6561
45.7629
44.8765
43.9964
43.1221
42.2534
41.3898
40.5312
39.6771
38.8275
37.9821
37.1406
36.3028
35.4687
34.6379
33.8104
32.9859
32.1644
31.3457
30.5297
29.7162
28.9052
28.0964
27.2898
26.4853
25.6827
24.882
24.0829
23.2855
22.4896
21.695
20.9016
20.1094
19.3182
18.5278
17.7382
16.9492
16.1607
15.3725
14.5846
13.7968
13.009
12.2213
11.4334
10.6455
9.85742
9.06929
8.28109
7.49289
6.70471
5.91663
5.12866
4.34077
3.55291
2.76501
1.9768
1.18834
0.400101
65.2332
62.6899
61.5441
60.4096
59.2806
58.195
57.1434
56.1162
55.1098
54.1214
53.1485
52.1894
51.2426
50.3069
49.3812
48.4646
47.5565
46.6562
45.763
44.8766
43.9964
43.1222
42.2534
41.3899
40.5312
39.6772
38.8276
37.9821
37.1406
36.3028
35.4687
34.6379
33.8104
32.9859
32.1644
31.3457
30.5297
29.7162
28.9052
28.0964
27.2898
26.4853
25.6827
24.882
24.0829
23.2855
22.4895
21.695
20.9016
20.1094
19.3182
18.5278
17.7382
16.9492
16.1606
15.3725
14.5845
13.7968
13.009
12.2213
11.4334
10.6455
9.8574
9.06927
8.28107
7.49287
6.70469
5.91662
5.12864
4.34075
3.55289
2.765
1.97679
1.18833
0.400089
65.2229
62.6922
61.5451
60.4107
59.2815
58.1957
57.144
56.1167
55.1102
54.1217
53.1488
52.1897
51.2429
50.3071
49.3814
48.4648
47.5566
46.6563
45.7631
44.8767
43.9965
43.1223
42.2535
41.3899
40.5313
39.6772
38.8276
37.9821
37.1406
36.3029
35.4687
34.6379
33.8104
32.986
32.1644
31.3458
30.5297
29.7162
28.9052
28.0964
27.2898
26.4853
25.6827
24.882
24.0829
23.2855
22.4895
21.695
20.9016
20.1094
19.3181
18.5278
17.7382
16.9492
16.1606
15.3725
14.5845
13.7968
13.009
12.2212
11.4334
10.6454
9.85738
9.06925
8.28105
7.49285
6.70467
5.9166
5.12862
4.34073
3.55287
2.76498
1.97677
1.18831
0.400075
65.2132
62.6951
61.5459
60.4116
59.2824
58.1965
57.1447
56.1173
55.1107
54.1221
53.1492
52.19
51.2431
50.3073
49.3816
48.465
47.5568
46.6564
45.7633
44.8768
43.9966
43.1223
42.2536
41.39
40.5313
39.6773
38.8277
37.9822
37.1407
36.3029
35.4687
34.638
33.8104
32.986
32.1645
31.3458
30.5297
29.7163
28.9052
28.0964
27.2898
26.4853
25.6827
24.882
24.0829
23.2855
22.4895
21.6949
20.9016
20.1094
19.3181
18.5278
17.7382
16.9491
16.1606
15.3724
14.5845
13.7967
13.009
12.2212
11.4334
10.6454
9.85736
9.06923
8.28103
7.49283
6.70465
5.91657
5.12859
4.34071
3.55285
2.76496
1.97675
1.18829
0.400058
65.2046
62.6983
61.5467
60.4124
59.2832
58.1973
57.1454
56.1178
55.1112
54.1225
53.1495
52.1903
51.2434
50.3076
49.3818
48.4652
47.557
46.6566
45.7634
44.8769
43.9968
43.1225
42.2537
41.3901
40.5314
39.6774
38.8277
37.9823
37.1407
36.303
35.4688
34.638
33.8105
32.986
32.1645
31.3458
30.5298
29.7163
28.9052
28.0964
27.2898
26.4853
25.6827
24.882
24.0829
23.2855
22.4895
21.6949
20.9016
20.1094
19.3181
18.5278
17.7381
16.9491
16.1606
15.3724
14.5845
13.7967
13.009
12.2212
11.4334
10.6454
9.85734
9.06921
8.281
7.4928
6.70462
5.91655
5.12857
4.34069
3.55282
2.76493
1.97673
1.18827
0.400037
65.1957
62.7016
61.5473
60.4131
59.2839
58.198
57.1461
56.1185
55.1117
54.123
53.15
52.1907
51.2438
50.3079
49.3821
48.4654
47.5572
46.6568
45.7636
44.8771
43.9969
43.1226
42.2538
41.3902
40.5315
39.6775
38.8278
37.9823
37.1408
36.303
35.4688
34.638
33.8105
32.986
32.1645
31.3458
30.5298
29.7163
28.9052
28.0965
27.2899
26.4853
25.6827
24.882
24.0829
23.2855
22.4895
21.6949
20.9016
20.1094
19.3181
18.5278
17.7381
16.9491
16.1606
15.3724
14.5845
13.7967
13.009
12.2212
11.4333
10.6454
9.85731
9.06918
8.28098
7.49277
6.70459
5.91652
5.12854
4.34066
3.5528
2.76491
1.9767
1.18825
0.400012
65.1861
62.7049
61.5478
60.4136
59.2845
58.1987
57.1467
56.1191
55.1123
54.1235
53.1504
52.1911
51.2441
50.3082
49.3824
48.4657
47.5575
46.657
45.7638
44.8773
43.9971
43.1227
42.2539
41.3903
40.5316
39.6776
38.8279
37.9824
37.1409
36.3031
35.4689
34.6381
33.8106
32.9861
32.1646
31.3459
30.5298
29.7163
28.9053
28.0965
27.2899
26.4853
25.6827
24.882
24.0829
23.2855
22.4895
21.6949
20.9016
20.1094
19.3181
18.5278
17.7381
16.9491
16.1606
15.3724
14.5845
13.7967
13.0089
12.2212
11.4333
10.6454
9.85729
9.06915
8.28095
7.49274
6.70456
5.91649
5.12851
4.34063
3.55277
2.76488
1.97668
1.18823
0.399983
65.1758
62.7084
61.5482
60.4141
59.285
58.1992
57.1473
56.1197
55.1129
54.1241
53.1509
52.1916
51.2445
50.3086
49.3827
48.466
47.5577
46.6573
45.764
44.8775
43.9973
43.1229
42.2541
41.3905
40.5318
39.6777
38.828
37.9825
37.141
36.3032
35.469
34.6382
33.8106
32.9862
32.1646
31.3459
30.5299
29.7164
28.9053
28.0965
27.2899
26.4854
25.6828
24.882
24.083
23.2855
22.4895
21.6949
20.9016
20.1094
19.3181
18.5277
17.7381
16.9491
16.1606
15.3724
14.5845
13.7967
13.0089
12.2211
11.4333
10.6453
9.85726
9.06913
8.28092
7.49271
6.70453
5.91645
5.12848
4.3406
3.55274
2.76485
1.97666
1.18821
0.399947
65.1649
62.7122
61.5484
60.4144
59.2854
58.1997
57.1479
56.1203
55.1134
54.1246
53.1514
52.192
51.245
50.309
49.3831
48.4663
47.558
46.6576
45.7643
44.8777
43.9975
43.1231
42.2543
41.3907
40.5319
39.6779
38.8282
37.9827
37.1411
36.3033
35.4691
34.6383
33.8107
32.9862
32.1647
31.346
30.5299
29.7164
28.9053
28.0966
27.2899
26.4854
25.6828
24.882
24.083
23.2855
22.4896
21.695
20.9016
20.1094
19.3181
18.5278
17.7381
16.9491
16.1606
15.3724
14.5844
13.7967
13.0089
12.2211
11.4333
10.6453
9.85724
9.0691
8.28089
7.49268
6.70449
5.91642
5.12844
4.34056
3.55271
2.76483
1.97663
1.18819
0.399904
65.1532
62.7164
61.5486
60.4147
59.2857
58.2
57.1483
56.1207
55.1139
54.1251
53.1519
52.1925
51.2454
50.3094
49.3835
48.4667
47.5584
46.6579
45.7646
44.878
43.9977
43.1234
42.2545
41.3909
40.5321
39.678
38.8283
37.9828
37.1412
36.3034
35.4692
34.6384
33.8108
32.9863
32.1648
31.3461
30.53
29.7165
28.9054
28.0966
27.29
26.4854
25.6828
24.8821
24.083
23.2856
22.4896
21.695
20.9016
20.1094
19.3181
18.5278
17.7381
16.9491
16.1606
15.3724
14.5844
13.7967
13.0089
12.2211
11.4333
10.6453
9.85722
9.06907
8.28086
7.49265
6.70446
5.91638
5.12841
4.34053
3.55267
2.7648
1.97661
1.18817
0.399852
65.1408
62.721
61.5487
60.4148
59.2859
58.2002
57.1485
56.1211
55.1144
54.1256
53.1524
52.193
51.2459
50.3099
49.3839
48.4671
47.5588
46.6582
45.7649
44.8783
43.998
43.1236
42.2547
41.3911
40.5323
39.6782
38.8285
37.983
37.1414
36.3036
35.4693
34.6385
33.8109
32.9864
32.1649
31.3462
30.5301
29.7166
28.9055
28.0967
27.2901
26.4855
25.6829
24.8821
24.0831
23.2856
22.4896
21.695
20.9016
20.1094
19.3181
18.5278
17.7381
16.9491
16.1606
15.3724
14.5844
13.7966
13.0089
12.2211
11.4332
10.6453
9.85719
9.06905
8.28083
7.49262
6.70443
5.91635
5.12837
4.34049
3.55264
2.76477
1.97658
1.18815
0.399789
65.1277
62.7259
61.5489
60.415
59.286
58.2003
57.1487
56.1213
55.1147
54.126
53.1528
52.1935
51.2463
50.3103
49.3843
48.4675
47.5592
46.6586
45.7653
44.8787
43.9983
43.1239
42.255
41.3913
40.5326
39.6785
38.8287
37.9832
37.1416
36.3038
35.4695
34.6387
33.8111
32.9866
32.165
31.3463
30.5302
29.7167
28.9056
28.0968
27.2901
26.4856
25.683
24.8822
24.0831
23.2857
22.4897
21.6951
20.9017
20.1094
19.3182
18.5278
17.7382
16.9491
16.1606
15.3724
14.5845
13.7967
13.0089
12.2211
11.4332
10.6453
9.85718
9.06902
8.2808
7.49259
6.70439
5.91631
5.12833
4.34046
3.55261
2.76474
1.97656
1.18813
0.399713
65.1137
62.7313
61.549
60.4152
59.286
58.2004
57.1488
56.1215
55.1149
54.1263
53.1532
52.1938
51.2468
50.3107
49.3847
48.4679
47.5596
46.659
45.7656
44.879
43.9987
43.1242
42.2553
41.3916
40.5328
39.6787
38.829
37.9834
37.1418
36.304
35.4697
34.6388
33.8112
32.9867
32.1652
31.3464
30.5303
29.7168
28.9057
28.0969
27.2902
26.4857
25.6831
24.8823
24.0832
23.2857
22.4897
21.6951
20.9017
20.1095
19.3182
18.5278
17.7382
16.9492
16.1606
15.3724
14.5845
13.7967
13.0089
12.2211
11.4332
10.6452
9.85716
9.06901
8.28078
7.49256
6.70436
5.91628
5.1283
4.34042
3.55258
2.76471
1.97653
1.18811
0.399621
65.099
62.7372
61.5491
60.4155
59.2861
58.2004
57.1488
56.1215
55.115
54.1264
53.1534
52.1941
51.2471
50.3111
49.3851
48.4683
47.56
46.6594
45.766
44.8794
43.999
43.1246
42.2557
41.3919
40.5331
39.679
38.8292
37.9837
37.142
36.3042
35.4699
34.6391
33.8114
32.9869
32.1653
31.3466
30.5305
29.7169
28.9058
28.097
27.2904
26.4858
25.6832
24.8824
24.0833
23.2858
22.4898
21.6952
20.9018
20.1095
19.3183
18.5279
17.7382
16.9492
16.1606
15.3725
14.5845
13.7967
13.0089
12.2211
11.4332
10.6452
9.85716
9.06899
8.28076
7.49254
6.70434
5.91625
5.12827
4.34039
3.55255
2.76468
1.97651
1.18809
0.39951
65.0835
62.7435
61.5493
60.4158
59.2863
58.2004
57.1488
56.1215
55.115
54.1265
53.1535
52.1943
51.2473
50.3114
49.3855
48.4687
47.5603
46.6597
45.7664
44.8798
43.9994
43.1249
42.256
41.3923
40.5335
39.6793
38.8295
37.9839
37.1423
36.3044
35.4702
34.6393
33.8117
32.9871
32.1655
31.3468
30.5307
29.7171
28.906
28.0972
27.2905
26.4859
25.6833
24.8825
24.0834
23.2859
22.4899
21.6953
20.9019
20.1096
19.3184
18.528
17.7383
16.9493
16.1607
15.3725
14.5845
13.7967
13.0089
12.2211
11.4332
10.6453
9.85716
9.06899
8.28075
7.49252
6.70432
5.91623
5.12824
4.34036
3.55252
2.76466
1.97649
1.18808
0.399376
65.0671
62.7503
61.5495
60.4161
59.2865
58.2005
57.1488
56.1215
55.115
54.1264
53.1535
52.1944
51.2474
50.3116
49.3857
48.469
47.5606
46.6601
45.7667
44.8801
43.9998
43.1253
42.2564
41.3926
40.5338
39.6796
38.8298
37.9842
37.1426
36.3047
35.4704
34.6395
33.8119
32.9874
32.1658
31.347
30.5309
29.7173
28.9062
28.0973
27.2907
26.4861
25.6834
24.8826
24.0835
23.286
22.49
21.6954
20.902
20.1097
19.3184
18.528
17.7384
16.9493
16.1608
15.3726
14.5846
13.7968
13.009
12.2212
11.4333
10.6453
9.85717
9.069
8.28075
7.49252
6.7043
5.91621
5.12822
4.34034
3.5525
2.76463
1.97647
1.18806
0.399216
65.0501
62.7575
61.5496
60.4166
59.2867
58.2006
57.1489
56.1215
55.1149
54.1264
53.1535
52.1943
51.2474
50.3116
49.3858
48.4691
47.5609
46.6603
45.767
44.8804
44.0001
43.1256
42.2567
41.393
40.5341
39.68
38.8302
37.9846
37.1429
36.305
35.4707
34.6398
33.8122
32.9876
32.166
31.3472
30.5311
29.7175
28.9064
28.0975
27.2909
26.4863
25.6836
24.8828
24.0837
23.2862
22.4902
21.6955
20.9021
20.1098
19.3186
18.5282
17.7385
16.9494
16.1609
15.3726
14.5847
13.7968
13.009
12.2212
11.4333
10.6453
9.8572
9.06902
8.28077
7.49252
6.7043
5.9162
5.12821
4.34033
3.55248
2.76462
1.97645
1.18805
0.399025
65.0324
62.765
61.5497
60.4171
59.287
58.2007
57.1489
56.1215
55.1149
54.1263
53.1534
52.1943
51.2474
50.3116
49.3858
48.4692
47.561
46.6605
45.7672
44.8807
44.0004
43.1259
42.257
41.3933
40.5345
39.6803
38.8305
37.9849
37.1432
36.3054
35.471
34.6401
33.8125
32.9879
32.1663
31.3475
30.5314
29.7178
28.9066
28.0978
27.2911
26.4865
25.6838
24.883
24.0839
23.2864
22.4904
21.6957
20.9023
20.11
19.3187
18.5283
17.7386
16.9495
16.161
15.3727
14.5848
13.7969
13.0091
12.2213
11.4334
10.6454
9.85724
9.06905
8.28079
7.49254
6.70431
5.91621
5.12821
4.34032
3.55247
2.76461
1.97644
1.18803
0.398799
65.0142
62.7729
61.5498
60.4177
59.2873
58.2009
57.1491
56.1216
55.1149
54.1263
53.1534
52.1942
51.2473
50.3115
49.3857
48.4691
47.5609
46.6605
45.7673
44.8808
44.0005
43.1261
42.2573
41.3936
40.5348
39.6806
38.8308
37.9852
37.1436
36.3057
35.4714
34.6405
33.8128
32.9882
32.1666
31.3478
30.5317
29.7181
28.9069
28.098
27.2913
26.4867
25.6841
24.8832
24.0841
23.2866
22.4906
21.6959
20.9025
20.1102
19.3189
18.5284
17.7388
16.9497
16.1611
15.3729
14.5849
13.797
13.0092
12.2214
11.4335
10.6454
9.85731
9.0691
8.28084
7.49257
6.70434
5.91622
5.12822
4.34032
3.55247
2.76461
1.97643
1.18803
0.398533
64.9957
62.7811
61.5497
60.4183
59.2877
58.2012
57.1492
56.1217
55.115
54.1263
53.1534
52.1942
51.2473
50.3114
49.3857
48.4691
47.5609
46.6605
45.7673
44.8808
44.0006
43.1262
42.2574
41.3937
40.535
39.6809
38.8311
37.9855
37.1439
36.306
35.4717
34.6408
33.8131
32.9885
32.1669
31.3481
30.532
29.7184
28.9072
28.0983
27.2916
26.487
25.6843
24.8835
24.0844
23.2868
22.4908
21.6961
20.9027
20.1104
19.3191
18.5286
17.7389
16.9499
16.1613
15.373
14.585
13.7972
13.0093
12.2215
11.4336
10.6455
9.85739
9.06918
8.2809
7.49263
6.70438
5.91626
5.12824
4.34034
3.55248
2.76461
1.97644
1.18803
0.398224
64.9771
62.7893
61.5497
60.4189
59.2882
58.2014
57.1494
56.1218
55.1151
54.1264
53.1534
52.1941
51.2472
50.3114
49.3856
48.469
47.5608
46.6604
45.7672
44.8807
44.0005
43.1262
42.2574
41.3938
40.5351
39.681
38.8313
37.9857
37.1441
36.3062
35.472
34.6411
33.8134
32.9889
32.1672
31.3484
30.5323
29.7187
28.9075
28.0986
27.2919
26.4873
25.6846
24.8838
24.0846
23.2871
22.491
21.6964
20.9029
20.1106
19.3193
18.5288
17.7391
16.9501
16.1614
15.3732
14.5852
13.7973
13.0095
12.2216
11.4337
10.6457
9.8575
9.06928
8.28098
7.4927
6.70445
5.91631
5.12829
4.34038
3.55251
2.76464
1.97645
1.18803
0.39787
64.9589
62.7975
61.5495
60.4195
59.2886
58.2017
57.1496
56.122
55.1152
54.1265
53.1534
52.1942
51.2472
50.3114
49.3855
48.4689
47.5607
46.6603
45.7671
44.8806
44.0005
43.1261
42.2574
41.3938
40.5351
39.681
38.8313
37.9858
37.1442
36.3064
35.4722
34.6413
33.8137
32.9891
32.1675
31.3487
30.5326
29.719
28.9078
28.0989
27.2922
26.4876
25.6849
24.8841
24.0849
23.2874
22.4913
21.6966
20.9032
20.1109
19.3195
18.5291
17.7394
16.9503
16.1617
15.3734
14.5854
13.7975
13.0097
12.2218
11.4338
10.6458
9.85763
9.0694
8.2811
7.4928
6.70453
5.91639
5.12835
4.34044
3.55256
2.76468
1.97648
1.18805
0.397474
64.9414
62.8054
61.5492
60.4202
59.2891
58.202
57.1499
56.1222
55.1153
54.1266
53.1535
52.1942
51.2473
50.3114
49.3855
48.4689
47.5607
46.6602
45.767
44.8806
44.0004
43.126
42.2573
41.3937
40.535
39.6809
38.8313
37.9858
37.1442
36.3064
35.4722
34.6414
33.8138
32.9893
32.1677
31.3489
30.5328
29.7192
28.9081
28.0992
27.2925
26.4879
25.6852
24.8843
24.0852
23.2877
22.4916
21.6969
20.9035
20.1111
19.3198
18.5294
17.7396
16.9505
16.1619
15.3736
14.5856
13.7977
13.0099
12.222
11.434
10.646
9.85779
9.06954
8.28123
7.49292
6.70465
5.91649
5.12844
4.34051
3.55263
2.76473
1.97653
1.18808
0.397042
64.9253
62.8128
61.5489
60.4207
59.2895
58.2022
57.1501
56.1223
55.1155
54.1267
53.1536
52.1943
51.2473
50.3114
49.3855
48.4689
47.5606
46.6602
45.767
44.8805
44.0003
43.126
42.2572
41.3936
40.5349
39.6808
38.8312
37.9857
37.1442
36.3064
35.4722
34.6414
33.8138
32.9893
32.1678
31.349
30.5329
29.7194
28.9083
28.0994
27.2927
26.4881
25.6855
24.8846
24.0855
23.2879
22.4919
21.6972
20.9037
20.1114
19.3201
18.5296
17.7399
16.9508
16.1622
15.3739
14.5858
13.7979
13.0101
12.2222
11.4342
10.6462
9.85797
9.06971
8.28139
7.49307
6.70478
5.91661
5.12856
4.34062
3.55272
2.76481
1.9766
1.18813
0.396595
64.9115
62.8193
61.5486
60.4212
59.2899
58.2025
57.1503
56.1225
55.1156
54.1268
53.1537
52.1944
51.2474
50.3115
49.3856
48.4689
47.5607
46.6602
45.767
44.8805
44.0002
43.1259
42.2571
41.3935
40.5348
39.6807
38.8311
37.9856
37.1441
36.3063
35.4721
34.6413
33.8137
32.9893
32.1678
31.349
30.533
29.7194
28.9083
28.0995
27.2929
26.4883
25.6856
24.8848
24.0857
23.2882
22.4921
21.6974
20.904
20.1117
19.3203
18.5299
17.7402
16.951
16.1624
15.3741
14.5861
13.7982
13.0103
12.2224
11.4344
10.6464
9.85817
9.0699
8.28157
7.49324
6.70494
5.91676
5.12869
4.34074
3.55283
2.76491
1.97669
1.1882
0.396167
64.9009
62.8243
61.5482
60.4216
59.2902
58.2027
57.1504
56.1226
55.1157
54.1269
53.1538
52.1944
51.2474
50.3115
49.3856
48.4689
47.5607
46.6602
45.767
44.8805
44.0002
43.1259
42.2571
41.3935
40.5347
39.6807
38.831
37.9855
37.144
36.3062
35.472
34.6412
33.8137
32.9892
32.1677
31.349
30.5329
29.7194
28.9083
28.0995
27.2929
26.4883
25.6857
24.8849
24.0858
23.2883
22.4923
21.6976
20.9042
20.1119
19.3205
18.5301
17.7404
16.9513
16.1626
15.3743
14.5863
13.7984
13.0105
12.2226
11.4346
10.6466
9.85835
9.07008
8.28174
7.4934
6.70509
5.91691
5.12883
4.34087
3.55295
2.76502
1.97678
1.18828
0.395812
64.8948
62.8272
61.548
60.4218
59.2903
58.2028
57.1505
56.1227
55.1158
54.127
53.1538
52.1945
51.2475
50.3115
49.3856
48.469
47.5607
46.6602
45.767
44.8805
44.0002
43.1259
42.2571
41.3934
40.5347
39.6807
38.831
37.9855
37.1439
36.3062
35.472
34.6412
33.8136
32.9891
32.1676
31.3489
30.5328
29.7193
28.9083
28.0995
27.2928
26.4883
25.6857
24.8849
24.0858
23.2883
22.4923
21.6977
20.9042
20.1119
19.3206
18.5302
17.7405
16.9514
16.1627
15.3745
14.5864
13.7985
13.0107
12.2228
11.4348
10.6467
9.85848
9.07021
8.28186
7.49352
6.7052
5.91701
5.12892
4.34096
3.55303
2.7651
1.97685
1.18833
0.395598
64.8948
62.8272
61.548
60.4218
59.2903
58.2028
57.1505
56.1227
55.1158
54.127
53.1538
52.1945
51.2475
50.3115
49.3856
48.469
47.5607
46.6602
45.767
44.8805
44.0002
43.1259
42.2571
41.3934
40.5347
39.6807
38.831
37.9855
37.1439
36.3062
35.472
34.6412
33.8136
32.9891
32.1676
31.3489
30.5328
29.7193
28.9083
28.0995
27.2928
26.4883
25.6857
24.8849
24.0858
23.2883
22.4923
21.6977
20.9042
20.1119
19.3206
18.5302
17.7405
16.9514
16.1627
15.3745
14.5864
13.7985
13.0107
12.2228
11.4348
10.6467
9.85848
9.07021
8.28186
7.49352
6.7052
5.91701
5.12892
4.34096
3.55303
2.7651
1.97685
1.18833
0.395594
64.9009
62.8243
61.5482
60.4216
59.2902
58.2027
57.1504
56.1226
55.1157
54.1269
53.1538
52.1944
51.2474
50.3115
49.3856
48.4689
47.5607
46.6602
45.767
44.8805
44.0002
43.1259
42.2571
41.3935
40.5347
39.6807
38.831
37.9855
37.144
36.3062
35.472
34.6412
33.8137
32.9892
32.1677
31.349
30.5329
29.7194
28.9083
28.0995
27.2929
26.4883
25.6857
24.8849
24.0858
23.2883
22.4923
21.6976
20.9042
20.1119
19.3205
18.5301
17.7404
16.9513
16.1626
15.3743
14.5863
13.7984
13.0105
12.2226
11.4346
10.6466
9.85835
9.07008
8.28174
7.4934
6.70509
5.91691
5.12883
4.34087
3.55295
2.76502
1.97678
1.18828
0.395801
64.9115
62.8193
61.5486
60.4212
59.2899
58.2025
57.1503
56.1225
55.1156
54.1268
53.1537
52.1944
51.2474
50.3115
49.3856
48.4689
47.5607
46.6602
45.767
44.8805
44.0002
43.1259
42.2571
41.3935
40.5348
39.6807
38.8311
37.9856
37.1441
36.3063
35.4721
34.6413
33.8137
32.9893
32.1678
31.349
30.533
29.7194
28.9083
28.0995
27.2929
26.4883
25.6856
24.8848
24.0857
23.2882
22.4921
21.6974
20.904
20.1117
19.3203
18.5299
17.7402
16.951
16.1624
15.3741
14.5861
13.7982
13.0103
12.2224
11.4344
10.6464
9.85816
9.0699
8.28157
7.49324
6.70494
5.91676
5.12869
4.34074
3.55283
2.76492
1.97669
1.1882
0.39615
64.9253
62.8128
61.5489
60.4207
59.2895
58.2022
57.1501
56.1223
55.1155
54.1267
53.1536
52.1943
51.2473
50.3114
49.3855
48.4689
47.5606
46.6602
45.767
44.8805
44.0003
43.126
42.2572
41.3936
40.5349
39.6808
38.8312
37.9857
37.1442
36.3064
35.4722
34.6414
33.8138
32.9893
32.1678
31.349
30.5329
29.7194
28.9083
28.0994
27.2927
26.4881
25.6855
24.8846
24.0855
23.2879
22.4919
21.6972
20.9037
20.1114
19.3201
18.5296
17.7399
16.9508
16.1622
15.3739
14.5858
13.7979
13.0101
12.2222
11.4342
10.6462
9.85797
9.06972
8.28139
7.49308
6.70478
5.91662
5.12856
4.34062
3.55272
2.76482
1.9766
1.18814
0.396572
64.9414
62.8054
61.5492
60.4202
59.2891
58.202
57.1499
56.1222
55.1153
54.1266
53.1535
52.1942
51.2473
50.3114
49.3855
48.4689
47.5607
46.6602
45.767
44.8806
44.0004
43.126
42.2573
41.3937
40.535
39.6809
38.8313
37.9858
37.1442
36.3064
35.4722
34.6414
33.8138
32.9893
32.1677
31.3489
30.5328
29.7192
28.9081
28.0992
27.2925
26.4879
25.6852
24.8843
24.0852
23.2877
22.4916
21.6969
20.9035
20.1111
19.3198
18.5294
17.7396
16.9505
16.1619
15.3736
14.5856
13.7977
13.0099
12.222
11.434
10.646
9.85779
9.06955
8.28123
7.49293
6.70465
5.9165
5.12845
4.34052
3.55263
2.76474
1.97654
1.18809
0.397015
64.9588
62.7975
61.5495
60.4195
59.2886
58.2017
57.1496
56.122
55.1152
54.1265
53.1534
52.1942
51.2472
50.3114
49.3855
48.4689
47.5607
46.6603
45.7671
44.8806
44.0005
43.1261
42.2574
41.3938
40.5351
39.681
38.8313
37.9858
37.1442
36.3064
35.4722
34.6413
33.8137
32.9891
32.1675
31.3487
30.5326
29.719
28.9078
28.0989
27.2922
26.4876
25.6849
24.8841
24.0849
23.2874
22.4913
21.6966
20.9032
20.1109
19.3195
18.5291
17.7394
16.9503
16.1617
15.3734
14.5854
13.7975
13.0097
12.2218
11.4338
10.6458
9.85763
9.0694
8.2811
7.49281
6.70453
5.9164
5.12836
4.34044
3.55256
2.76468
1.97649
1.18806
0.397442
64.9771
62.7893
61.5497
60.4189
59.2882
58.2014
57.1494
56.1218
55.1151
54.1264
53.1534
52.1941
51.2472
50.3114
49.3856
48.469
47.5608
46.6604
45.7672
44.8807
44.0005
43.1262
42.2574
41.3938
40.5351
39.681
38.8313
37.9857
37.1441
36.3062
35.472
34.6411
33.8134
32.9889
32.1672
31.3484
30.5323
29.7187
28.9075
28.0986
27.2919
26.4873
25.6846
24.8838
24.0846
23.2871
22.491
21.6964
20.9029
20.1106
19.3193
18.5289
17.7391
16.9501
16.1614
15.3732
14.5852
13.7973
13.0095
12.2216
11.4337
10.6457
9.8575
9.06928
8.28099
7.49271
6.70445
5.91632
5.12829
4.34039
3.55252
2.76464
1.97646
1.18804
0.397835
64.9956
62.7811
61.5497
60.4183
59.2877
58.2012
57.1492
56.1217
55.115
54.1263
53.1534
52.1942
51.2473
50.3114
49.3857
48.4691
47.5609
46.6605
45.7673
44.8808
44.0006
43.1262
42.2574
41.3937
40.535
39.6809
38.8311
37.9855
37.1439
36.306
35.4717
34.6408
33.8131
32.9885
32.1669
31.3481
30.532
29.7184
28.9072
28.0983
27.2916
26.487
25.6843
24.8835
24.0844
23.2868
22.4908
21.6961
20.9027
20.1104
19.3191
18.5286
17.7389
16.9499
16.1613
15.373
14.585
13.7972
13.0093
12.2215
11.4336
10.6455
9.85739
9.06918
8.2809
7.49263
6.70438
5.91627
5.12825
4.34035
3.55249
2.76462
1.97644
1.18803
0.398186
65.0141
62.773
61.5498
60.4177
59.2873
58.2009
57.1491
56.1216
55.1149
54.1263
53.1534
52.1942
51.2473
50.3115
49.3857
48.4691
47.5609
46.6605
45.7673
44.8808
44.0005
43.1261
42.2573
41.3936
40.5348
39.6806
38.8308
37.9852
37.1436
36.3057
35.4714
34.6405
33.8128
32.9882
32.1666
31.3478
30.5317
29.7181
28.9069
28.098
27.2913
26.4867
25.6841
24.8832
24.0841
23.2866
22.4906
21.6959
20.9025
20.1102
19.3189
18.5284
17.7388
16.9497
16.1611
15.3729
14.5849
13.797
13.0092
12.2214
11.4335
10.6454
9.85731
9.06911
8.28084
7.49258
6.70434
5.91623
5.12822
4.34034
3.55248
2.76461
1.97644
1.18803
0.398493
65.0323
62.7651
61.5497
60.4171
59.287
58.2007
57.1489
56.1215
55.1149
54.1263
53.1534
52.1943
51.2474
50.3116
49.3858
48.4692
47.561
46.6605
45.7672
44.8807
44.0004
43.1259
42.257
41.3933
40.5345
39.6803
38.8305
37.9849
37.1432
36.3054
35.471
34.6401
33.8125
32.9879
32.1663
31.3475
30.5314
29.7178
28.9066
28.0978
27.2911
26.4865
25.6838
24.883
24.0839
23.2864
22.4904
21.6957
20.9023
20.11
19.3187
18.5283
17.7386
16.9495
16.161
15.3727
14.5848
13.7969
13.0091
12.2213
11.4334
10.6454
9.85724
9.06906
8.28079
7.49255
6.70431
5.91622
5.12821
4.34033
3.55248
2.76462
1.97644
1.18804
0.398757
65.05
62.7575
61.5496
60.4166
59.2867
58.2006
57.1489
56.1215
55.1149
54.1264
53.1535
52.1943
51.2474
50.3116
49.3858
48.4691
47.5609
46.6603
45.767
44.8804
44.0001
43.1256
42.2567
41.393
40.5341
39.68
38.8302
37.9846
37.1429
36.305
35.4707
34.6398
33.8122
32.9876
32.166
31.3472
30.5311
29.7175
28.9064
28.0975
27.2909
26.4863
25.6836
24.8828
24.0837
23.2862
22.4902
21.6955
20.9021
20.1098
19.3186
18.5282
17.7385
16.9494
16.1609
15.3726
14.5847
13.7968
13.009
12.2212
11.4333
10.6453
9.8572
9.06902
8.28077
7.49253
6.7043
5.91621
5.12821
4.34034
3.55248
2.76463
1.97646
1.18805
0.398982
65.0671
62.7503
61.5495
60.4161
59.2865
58.2005
57.1488
56.1215
55.115
54.1264
53.1535
52.1944
51.2474
50.3116
49.3857
48.469
47.5606
46.6601
45.7667
44.8801
43.9998
43.1253
42.2564
41.3926
40.5338
39.6796
38.8298
37.9842
37.1426
36.3047
35.4704
34.6395
33.8119
32.9874
32.1658
31.347
30.5309
29.7173
28.9062
28.0973
27.2907
26.4861
25.6834
24.8826
24.0835
23.286
22.49
21.6954
20.902
20.1097
19.3184
18.528
17.7384
16.9493
16.1608
15.3726
14.5846
13.7968
13.009
12.2212
11.4333
10.6453
9.85717
9.06901
8.28076
7.49253
6.70431
5.91622
5.12823
4.34035
3.5525
2.76464
1.97647
1.18806
0.399171
65.0834
62.7435
61.5493
60.4158
59.2863
58.2004
57.1488
56.1215
55.115
54.1265
53.1535
52.1943
51.2473
50.3114
49.3855
48.4687
47.5603
46.6597
45.7664
44.8798
43.9994
43.1249
42.256
41.3923
40.5335
39.6793
38.8295
37.9839
37.1423
36.3044
35.4702
34.6393
33.8117
32.9871
32.1655
31.3468
30.5307
29.7171
28.906
28.0972
27.2905
26.4859
25.6833
24.8825
24.0834
23.2859
22.4899
21.6953
20.9019
20.1096
19.3184
18.528
17.7383
16.9493
16.1607
15.3725
14.5845
13.7967
13.0089
12.2211
11.4332
10.6453
9.85716
9.069
8.28076
7.49253
6.70432
5.91624
5.12825
4.34038
3.55252
2.76467
1.97649
1.18808
0.399331
65.0989
62.7372
61.5492
60.4155
59.2861
58.2004
57.1488
56.1215
55.115
54.1264
53.1534
52.1941
51.2471
50.3111
49.3851
48.4683
47.56
46.6594
45.766
44.8794
43.999
43.1246
42.2557
41.3919
40.5331
39.679
38.8292
37.9837
37.142
36.3042
35.4699
34.6391
33.8114
32.9869
32.1653
31.3466
30.5305
29.7169
28.9058
28.097
27.2904
26.4858
25.6832
24.8824
24.0833
23.2858
22.4898
21.6952
20.9018
20.1095
19.3183
18.5279
17.7382
16.9492
16.1606
15.3725
14.5845
13.7967
13.0089
12.2211
11.4332
10.6453
9.85716
9.069
8.28077
7.49255
6.70434
5.91627
5.12828
4.34041
3.55255
2.76469
1.97651
1.1881
0.399463
65.1137
62.7314
61.549
60.4152
59.286
58.2004
57.1488
56.1215
55.1149
54.1263
53.1532
52.1938
51.2468
50.3107
49.3847
48.4679
47.5596
46.659
45.7656
44.879
43.9987
43.1242
42.2553
41.3916
40.5328
39.6787
38.829
37.9834
37.1418
36.304
35.4697
34.6389
33.8112
32.9867
32.1652
31.3464
30.5303
29.7168
28.9057
28.0969
27.2902
26.4857
25.6831
24.8823
24.0832
23.2857
22.4897
21.6951
20.9017
20.1095
19.3182
18.5278
17.7382
16.9492
16.1606
15.3724
14.5845
13.7967
13.0089
12.2211
11.4332
10.6453
9.85716
9.06902
8.28078
7.49257
6.70437
5.9163
5.12831
4.34044
3.55258
2.76472
1.97653
1.18812
0.399574
65.1276
62.7259
61.5489
60.415
59.286
58.2003
57.1487
56.1213
55.1147
54.126
53.1529
52.1935
51.2463
50.3103
49.3843
48.4675
47.5592
46.6586
45.7653
44.8787
43.9983
43.1239
42.255
41.3913
40.5326
39.6785
38.8287
37.9832
37.1416
36.3038
35.4695
34.6387
33.8111
32.9866
32.165
31.3463
30.5302
29.7167
28.9056
28.0968
27.2901
26.4856
25.683
24.8822
24.0831
23.2857
22.4897
21.6951
20.9017
20.1094
19.3182
18.5278
17.7382
16.9491
16.1606
15.3724
14.5845
13.7967
13.0089
12.2211
11.4332
10.6453
9.85718
9.06903
8.28081
7.4926
6.7044
5.91633
5.12834
4.34047
3.55261
2.76475
1.97656
1.18813
0.399666
65.1408
62.721
61.5487
60.4148
59.2859
58.2002
57.1485
56.1211
55.1144
54.1256
53.1524
52.193
51.2459
50.3099
49.3839
48.4671
47.5588
46.6582
45.7649
44.8783
43.998
43.1236
42.2547
41.3911
40.5323
39.6782
38.8285
37.983
37.1414
36.3036
35.4693
34.6385
33.8109
32.9864
32.1649
31.3462
30.5301
29.7166
28.9055
28.0967
27.2901
26.4855
25.6829
24.8821
24.0831
23.2856
22.4896
21.695
20.9016
20.1094
19.3181
18.5278
17.7381
16.9491
16.1606
15.3724
14.5844
13.7967
13.0089
12.2211
11.4332
10.6453
9.85719
9.06906
8.28083
7.49263
6.70443
5.91636
5.12838
4.34051
3.55264
2.76478
1.97658
1.18815
0.399741
65.1532
62.7164
61.5486
60.4147
59.2857
58.2
57.1483
56.1207
55.1139
54.1251
53.1519
52.1925
51.2454
50.3094
49.3835
48.4667
47.5584
46.6579
45.7646
44.878
43.9977
43.1234
42.2545
41.3909
40.5321
39.678
38.8283
37.9828
37.1412
36.3034
35.4692
34.6384
33.8108
32.9863
32.1648
31.3461
30.53
29.7165
28.9054
28.0966
27.29
26.4854
25.6828
24.8821
24.083
23.2856
22.4896
21.695
20.9016
20.1094
19.3181
18.5278
17.7381
16.9491
16.1606
15.3724
14.5844
13.7967
13.0089
12.2211
11.4333
10.6453
9.85722
9.06908
8.28086
7.49266
6.70446
5.9164
5.12841
4.34054
3.55268
2.76481
1.97661
1.18817
0.399804
65.1648
62.7123
61.5484
60.4144
59.2854
58.1997
57.1479
56.1203
55.1134
54.1246
53.1514
52.192
51.245
50.309
49.3831
48.4663
47.558
46.6576
45.7643
44.8777
43.9975
43.1231
42.2543
41.3907
40.5319
39.6779
38.8282
37.9827
37.1411
36.3033
35.4691
34.6383
33.8107
32.9862
32.1647
31.346
30.5299
29.7164
28.9053
28.0966
27.2899
26.4854
25.6828
24.882
24.083
23.2855
22.4896
21.695
20.9016
20.1094
19.3181
18.5278
17.7381
16.9491
16.1606
15.3724
14.5844
13.7967
13.0089
12.2211
11.4333
10.6453
9.85724
9.06911
8.28089
7.4927
6.7045
5.91643
5.12845
4.34058
3.55271
2.76484
1.97663
1.18819
0.399856
65.1758
62.7084
61.5482
60.4141
59.285
58.1992
57.1473
56.1197
55.1129
54.1241
53.1509
52.1916
51.2445
50.3086
49.3827
48.466
47.5577
46.6573
45.764
44.8775
43.9973
43.1229
42.2541
41.3905
40.5318
39.6777
38.828
37.9825
37.141