/*--------------------------------*- C++ -*----------------------------------*\
  =========                 |
  \\      /  F ield         | OpenFOAM: The Open Source CFD Toolbox
   \\    /   O peration     | Website:  https://openfoam.org
    \\  /    A nd           | Version:  7
     \\/     M anipulation  |
\*---------------------------------------------------------------------------*/
FoamFile
{
    version     2.0;
    format      ascii;
    class       surfaceScalarField;
    location    "700";
    object      phi;
}
// * * * * * * * * * * * * * * * * * * * * * * * * * * * * * * * * * * * * * //

dimensions      [0 3 -1 0 0 0 0];

internalField   nonuniform List<scalar> 
8865
(
0.00452285
0.00168694
0.00415016
0.00037269
0.0039903
0.000159866
0.00389729
9.30109e-05
0.00383339
6.38985e-05
0.00378555
4.78348e-05
0.00374796
3.75907e-05
0.00371747
3.04976e-05
0.00369216
2.53061e-05
0.00367081
2.13471e-05
0.00365258
1.82337e-05
0.00363685
1.57255e-05
0.00362319
1.36651e-05
0.00361124
1.1945e-05
0.00360075
1.04895e-05
0.00359151
9.24361e-06
0.00358334
8.16644e-06
0.00357612
7.22704e-06
0.00356971
6.40152e-06
0.00356404
5.67114e-06
0.00355902
5.02103e-06
0.00355458
4.43924e-06
0.00355067
3.91604e-06
0.00354722
3.44347e-06
0.00354421
3.01491e-06
0.00354158
2.62486e-06
0.00353931
2.26868e-06
0.00353737
1.94245e-06
0.00353573
1.64276e-06
0.00353436
1.36691e-06
0.00353325
1.11237e-06
0.00353237
8.77003e-07
0.00353171
6.58885e-07
0.00353126
4.56586e-07
0.00353099
2.68599e-07
0.0035309
9.34134e-08
0.00353097
-7.0495e-08
0.00353119
-2.22848e-07
0.00353155
-3.64278e-07
0.00353205
-4.96111e-07
0.00353267
-6.19218e-07
0.0035334
-7.3394e-07
0.00353424
-8.40896e-07
0.00353518
-9.40529e-07
0.00353621
-1.03321e-06
0.00353733
-1.11947e-06
0.00353853
-1.19937e-06
0.0035398
-1.27316e-06
0.00354114
-1.34094e-06
0.00354255
-1.40261e-06
0.003544
-1.45863e-06
0.00354551
-1.50769e-06
0.00354706
-1.54903e-06
0.00354864
-1.58196e-06
0.00355024
-1.60549e-06
0.00355186
-1.61812e-06
0.00355348
-1.62057e-06
0.00355509
-1.61084e-06
0.00355668
-1.58655e-06
0.00355823
-1.55363e-06
0.00355974
-1.5073e-06
0.00356119
-1.45857e-06
0.00356259
-1.40132e-06
0.00356393
-1.34604e-06
0.00356523
-1.29364e-06
0.00356649
-1.25484e-06
0.00356772
-1.23025e-06
0.00356895
-1.22698e-06
0.00357019
-1.24439e-06
0.00357149
-1.28921e-06
0.00357285
-1.35823e-06
0.0035743
-1.4522e-06
0.00357587
-1.55942e-06
0.00357753
-1.65748e-06
-8.77084e-07
0.00573448
0.00277626
0.00532416
0.000783017
0.00510631
0.00037771
0.00497607
0.000223255
0.00488795
0.000152018
0.00482307
0.000112709
0.00477273
8.79388e-05
0.00473224
7.0979e-05
0.00469887
5.86788e-05
0.00467085
4.93648e-05
0.00464701
4.20794e-05
0.0046265
3.62353e-05
0.00460871
3.14508e-05
0.00459319
2.74677e-05
0.00457958
2.4105e-05
0.00456759
2.12321e-05
0.004557
1.87524e-05
0.00454763
1.65929e-05
0.00453934
1.46975e-05
0.00453199
1.30223e-05
0.00452548
1.15327e-05
0.00451971
1.02007e-05
0.00451463
9.0038e-06
0.00451015
7.92341e-06
0.00450622
6.94426e-06
0.00450279
6.05356e-06
0.00449982
5.24061e-06
0.00449726
4.49636e-06
0.00449509
3.81296e-06
0.00449328
3.18413e-06
0.00449178
2.60403e-06
0.00449059
2.0678e-06
0.00448968
1.57106e-06
0.00448903
1.11038e-06
0.00448861
6.82371e-07
0.00448842
2.8398e-07
0.00448844
-8.85156e-08
0.00448865
-4.35469e-07
0.00448905
-7.57762e-07
0.00448961
-1.05804e-06
0.00449033
-1.33828e-06
0.00449119
-1.59949e-06
0.00449219
-1.84306e-06
0.00449332
-2.07e-06
0.00449457
-2.28119e-06
0.00449593
-2.47769e-06
0.00449739
-2.65984e-06
0.00449894
-2.82816e-06
0.00450059
-2.98286e-06
0.00450231
-3.12375e-06
0.0045041
-3.2514e-06
0.00450595
-3.36349e-06
0.00450786
-3.45847e-06
0.00450981
-3.53472e-06
0.0045118
-3.5901e-06
0.0045138
-3.62171e-06
0.00451581
-3.63022e-06
0.00451781
-3.61235e-06
0.00451979
-3.56459e-06
0.00452173
-3.49685e-06
0.00452363
-3.40266e-06
0.00452547
-3.30111e-06
0.00452725
-3.18454e-06
0.00452898
-3.07217e-06
0.00453065
-2.96789e-06
0.00453229
-2.89112e-06
0.0045339
-2.845e-06
0.00453552
-2.84292e-06
0.00453716
-2.88487e-06
0.00453886
-2.98171e-06
0.00454063
-3.12791e-06
0.0045425
-3.32272e-06
0.00454448
-3.54227e-06
0.00454657
-3.74372e-06
-1.95654e-06
0.00677261
0.00350217
0.00634446
0.00121116
0.00607519
0.000646986
0.00590745
0.000390987
0.00579398
0.000265489
0.00571123
0.000195464
0.00564762
0.00015155
0.00559688
0.000121718
0.00555531
0.000100246
0.00552058
8.40915e-05
0.00549114
7.15231e-05
0.00546589
6.14851e-05
0.00544404
5.32969e-05
0.00542501
4.65006e-05
0.00540834
4.07775e-05
0.00539367
3.58985e-05
0.00538073
3.1695e-05
0.00536928
2.80402e-05
0.00535914
2.48369e-05
0.00535016
2.20093e-05
0.00534219
1.94976e-05
0.00533514
1.72539e-05
0.0053289
1.52395e-05
0.0053234
1.34226e-05
0.00531857
1.17771e-05
0.00531434
1.02813e-05
0.00531067
8.91677e-06
0.00530749
7.66824e-06
0.00530478
6.52241e-06
0.0053025
5.46844e-06
0.00530061
4.49654e-06
0.00529908
3.59844e-06
0.00529788
2.76678e-06
0.005297
1.99565e-06
0.0052964
1.27938e-06
0.00529607
6.13068e-07
0.00529599
-9.49484e-09
0.00529615
-5.90052e-07
0.00529652
-1.1298e-06
0.00529709
-1.63246e-06
0.00529785
-2.10136e-06
0.00529879
-2.53848e-06
0.0052999
-2.94609e-06
0.00530115
-3.32595e-06
0.00530255
-3.67955e-06
0.00530408
-4.00858e-06
0.00530573
-4.31375e-06
0.0053075
-4.5959e-06
0.00530937
-4.85541e-06
0.00531134
-5.09204e-06
0.0053134
-5.30631e-06
0.00531553
-5.49505e-06
0.00531773
-5.65591e-06
0.00531998
-5.7863e-06
0.00532227
-5.88292e-06
0.00532459
-5.94157e-06
0.00532692
-5.96258e-06
0.00532925
-5.94175e-06
0.00533156
-5.87514e-06
0.00533384
-5.77558e-06
0.00533607
-5.63671e-06
0.00533825
-5.48381e-06
0.00534038
-5.31025e-06
0.00534245
-5.14245e-06
0.00534447
-4.98839e-06
0.00534645
-4.87487e-06
0.00534842
-4.80863e-06
0.00535038
-4.80798e-06
0.00535237
-4.87435e-06
0.00535441
-5.02112e-06
0.00535653
-5.24099e-06
0.00535874
-5.53015e-06
0.00536105
-5.85227e-06
0.00536345
-6.14532e-06
-3.18924e-06
0.00776838
0.00397374
0.00736522
0.00161432
0.00705881
0.000953393
0.00685371
0.000596095
0.00671229
0.00040691
0.00660913
0.000298623
0.00653023
0.000230446
0.00646767
0.000184282
0.00641669
0.000151228
0.00637428
0.000126493
0.00633846
0.000107343
0.00630784
9.2113e-05
0.0062814
7.97342e-05
0.00625841
6.94918e-05
0.00623829
6.08895e-05
0.00622062
5.35729e-05
0.00620503
4.72819e-05
0.00619125
4.18216e-05
0.00617905
3.70432e-05
0.00616822
3.2831e-05
0.00615863
2.9094e-05
0.00615012
2.57594e-05
0.00614259
2.27684e-05
0.00613594
2.00732e-05
0.00613009
1.76342e-05
0.00612495
1.54185e-05
0.00612047
1.33988e-05
0.00611658
1.15518e-05
0.00611325
9.85766e-06
0.00611042
8.30009e-06
0.00610805
6.86445e-06
0.00610611
5.53834e-06
0.00610456
4.31082e-06
0.00610339
3.17295e-06
0.00610255
2.11632e-06
0.00610203
1.1337e-06
0.0061018
2.16611e-07
0.00610185
-6.3919e-07
0.00610216
-1.43587e-06
0.0061027
-2.17753e-06
0.00610347
-2.86913e-06
0.00610445
-3.51387e-06
0.00610561
-4.1151e-06
0.00610696
-4.67548e-06
0.00610848
-5.19726e-06
0.00611016
-5.68287e-06
0.00611198
-6.13349e-06
0.00611393
-6.55037e-06
0.00611601
-6.93411e-06
0.0061182
-7.28446e-06
0.0061205
-7.60191e-06
0.00612288
-7.88254e-06
0.00612535
-8.12324e-06
0.00612788
-8.32047e-06
0.00613047
-8.46979e-06
0.00613309
-8.56582e-06
0.00613574
-8.60854e-06
0.00613839
-8.59302e-06
0.00614103
-8.51496e-06
0.00614364
-8.39016e-06
0.00614622
-8.21231e-06
0.00614875
-8.01303e-06
0.00615122
-7.78645e-06
0.00615365
-7.56634e-06
0.00615602
-7.36435e-06
0.00615836
-7.21442e-06
0.00616068
-7.12639e-06
0.006163
-7.12359e-06
0.00616533
-7.2083e-06
0.00616771
-7.39615e-06
0.00617015
-7.67772e-06
0.00617266
-8.04611e-06
0.00617526
-8.45138e-06
0.00617793
-8.81488e-06
-4.54853e-06
0.00876053
0.0042679
0.00841816
0.00195669
0.00809688
0.00127467
0.00785897
0.000834004
0.00768847
0.000577413
0.00756264
0.000424452
0.00746628
0.000326806
0.00739005
0.000260516
0.00732813
0.000213142
0.00727681
0.000177816
0.00723358
0.00015057
0.00719672
0.00012898
0.00716496
0.000111491
0.00713739
9.7063e-05
0.0071133
8.49771e-05
0.00709215
7.47211e-05
0.00707351
6.59208e-05
0.00705704
5.82964e-05
0.00704245
5.16348e-05
0.00702951
4.57711e-05
0.00701803
4.05756e-05
0.00700784
3.5945e-05
0.00699881
3.17959e-05
0.00699083
2.80606e-05
0.00698378
2.46833e-05
0.00697758
2.16177e-05
0.00697215
1.88251e-05
0.00696743
1.62731e-05
0.00696335
1.39338e-05
0.00695987
1.17842e-05
0.00695693
9.80374e-06
0.00695449
7.97522e-06
0.00695252
6.28336e-06
0.00695098
4.71556e-06
0.00694983
3.26015e-06
0.00694906
1.90708e-06
0.00694863
6.45572e-07
0.00694852
-5.31946e-07
0.00694872
-1.62944e-06
0.00694919
-2.65107e-06
0.00694993
-3.60348e-06
0.0069509
-4.49133e-06
0.00695211
-5.31928e-06
0.00695352
-6.09106e-06
0.00695513
-6.80986e-06
0.00695693
-7.47896e-06
0.0069589
-8.10014e-06
0.00696102
-8.67517e-06
0.00696329
-9.20495e-06
0.0069657
-9.6893e-06
0.00696822
-1.01287e-05
0.00697086
-1.05187e-05
0.00697359
-1.08553e-05
0.0069764
-1.11343e-05
0.00697928
-1.135e-05
0.00698222
-1.14961e-05
0.00698518
-1.15722e-05
0.00698816
-1.15727e-05
0.00699114
-1.14931e-05
0.0069941
-1.13518e-05
0.00699703
-1.11431e-05
0.00699992
-1.09037e-05
0.00700276
-1.06297e-05
0.00700555
-1.03607e-05
0.0070083
-1.01125e-05
0.00701101
-9.9252e-06
0.0070137
-9.812e-06
0.00701638
-9.80018e-06
0.00701906
-9.89331e-06
0.00702178
-1.01085e-05
0.00702453
-1.04347e-05
0.00702735
-1.08614e-05
0.00703022
-1.13249e-05
0.00703314
-1.17319e-05
-6.02627e-06
0.00977742
0.00444047
0.00951399
0.00222012
0.00920569
0.00158298
0.00894539
0.0010943
0.00874723
0.000775576
0.0085973
0.000574375
0.00848145
0.000442657
0.00838959
0.000352373
0.00831504
0.000287698
0.00825334
0.000239516
0.00820147
0.000202437
0.00815732
0.000173135
0.00811935
0.000149463
0.00808642
0.000129986
0.00805769
0.000113709
0.00803248
9.99273e-05
0.00801028
8.8125e-05
0.00799066
7.79179e-05
0.00797328
6.90142e-05
0.00795786
6.11884e-05
0.00794417
5.42636e-05
0.00793202
4.80989e-05
0.00792123
4.25814e-05
0.00791168
3.76191e-05
0.00790322
3.31365e-05
0.00789577
2.90709e-05
0.00788922
2.53703e-05
0.00788351
2.19908e-05
0.00787855
1.8895e-05
0.00787428
1.60517e-05
0.00787065
1.34337e-05
0.00786761
1.10176e-05
0.00786511
8.78313e-06
0.00786311
6.71321e-06
0.00786158
4.79234e-06
0.00786048
3.00709e-06
0.00785978
1.34414e-06
0.00785945
-2.07873e-07
0.00785948
-1.65576e-06
0.00785983
-3.00398e-06
0.00786049
-4.26061e-06
0.00786143
-5.43199e-06
0.00786263
-6.52436e-06
0.00786409
-7.54271e-06
0.00786577
-8.49134e-06
0.00786766
-9.37457e-06
0.00786976
-1.01949e-05
0.00787204
-1.09548e-05
0.00787449
-1.16555e-05
0.0078771
-1.22971e-05
0.00787985
-1.28801e-05
0.00788273
-1.33994e-05
0.00788572
-1.38507e-05
0.00788882
-1.42288e-05
0.00789199
-1.45273e-05
0.00789524
-1.47387e-05
0.00789853
-1.48622e-05
0.00790184
-1.48918e-05
0.00790517
-1.48228e-05
0.0079085
-1.4676e-05
0.0079118
-1.44459e-05
0.00791507
-1.41748e-05
0.0079183
-1.38592e-05
0.00792148
-1.35455e-05
0.00792462
-1.32523e-05
0.00792772
-1.30257e-05
0.00793079
-1.28818e-05
0.00793385
-1.28521e-05
0.0079369
-1.29406e-05
0.00793995
-1.31663e-05
0.00794304
-1.35164e-05
0.00794615
-1.3977e-05
0.0079493
-1.44702e-05
0.00795246
-1.48908e-05
-7.61657e-06
0.0108418
0.0045325
0.0106586
0.00240329
0.0103907
0.00185088
0.0101252
0.00135979
0.00990488
0.000995899
0.00973121
0.000748042
0.00959448
0.000579386
0.00948519
0.000461659
0.00939623
0.000376666
0.00932255
0.000313187
0.00926065
0.000264341
0.009208
0.000225789
0.00916276
0.000194702
0.00912357
0.000169174
0.00908939
0.000147885
0.00905943
0.000129893
0.00903304
0.000114513
0.00900972
0.000101234
0.00898907
8.96694e-05
0.00897074
7.95188e-05
0.00895445
7.05485e-05
0.00893998
6.25726e-05
0.00892712
5.54417e-05
0.0089157
4.90349e-05
0.00890559
4.32527e-05
0.00889664
3.80131e-05
0.00888877
3.32475e-05
0.00888186
2.88985e-05
0.00887584
2.49173e-05
0.00887063
2.12631e-05
0.00886616
1.79002e-05
0.00886238
1.47983e-05
0.00885923
1.19308e-05
0.00885667
9.2756e-06
0.00885465
6.81247e-06
0.00885313
4.52401e-06
0.00885208
2.3937e-06
0.00885147
4.06709e-07
0.00885126
-1.44807e-06
0.00885143
-3.17646e-06
0.00885196
-4.78715e-06
0.00885281
-6.28853e-06
0.00885398
-7.68861e-06
0.00885543
-8.99393e-06
0.00885715
-1.02101e-05
0.00885912
-1.13427e-05
0.00886132
-1.23951e-05
0.00886373
-1.33706e-05
0.00886635
-1.42709e-05
0.00886915
-1.50964e-05
0.00887211
-1.58479e-05
0.00887523
-1.65199e-05
0.00887849
-1.71077e-05
0.00888187
-1.76053e-05
0.00888534
-1.80055e-05
0.00888891
-1.83e-05
0.00889253
-1.84876e-05
0.0088962
-1.85619e-05
0.0088999
-1.8518e-05
0.0089036
-1.83786e-05
0.00890729
-1.81388e-05
0.00891096
-1.78449e-05
0.0089146
-1.74953e-05
0.00891819
-1.7141e-05
0.00892174
-1.6804e-05
0.00892525
-1.65356e-05
0.00892873
-1.63548e-05
0.00893217
-1.62962e-05
0.0089356
-1.63653e-05
0.00893901
-1.65822e-05
0.00894243
-1.69332e-05
0.00894586
-1.74008e-05
0.00894928
-1.78934e-05
0.00895268
-1.82953e-05
-9.32405e-06
0.0119752
0.00457226
0.0118614
0.00251703
0.0116523
0.00206002
0.0114041
0.00160801
0.0111727
0.00122725
0.0109787
0.00094203
0.0108211
0.000736974
0.0106932
0.000589616
0.0105882
0.000481647
0.0105009
0.000400442
0.0104275
0.000337776
0.010365
0.000288286
0.0103113
0.000248398
0.0102648
0.00021568
0.0102243
0.000188432
0.0101887
0.000165439
0.0101574
0.000145814
0.0101298
0.000128895
0.0101052
0.00011418
0.0100835
0.000101282
0.0100641
8.98973e-05
0.0100469
7.97865e-05
0.0100316
7.07566e-05
0.010018
6.26517e-05
0.0100059
5.53437e-05
0.00999518
4.87271e-05
0.00998571
4.27139e-05
0.00997738
3.72304e-05
0.00997008
3.2214e-05
0.00996373
2.76125e-05
0.00995825
2.33802e-05
0.00995357
1.94784e-05
0.00994963
1.58733e-05
0.00994637
1.25364e-05
0.00994374
9.44211e-06
0.0099417
6.56823e-06
0.0099402
3.89426e-06
0.0099392
1.40224e-06
0.00993868
-9.2445e-07
0.00993859
-3.09456e-06
0.00993892
-5.11687e-06
0.00993964
-7.00192e-06
0.00994071
-8.75975e-06
0.00994211
-1.03987e-05
0.00994383
-1.19261e-05
0.00994584
-1.33487e-05
0.00994811
-1.46712e-05
0.00995064
-1.58977e-05
0.0099534
-1.70307e-05
0.00995637
-1.80711e-05
0.00995954
-1.90199e-05
0.0099629
-1.98717e-05
0.00996641
-2.06212e-05
0.00997007
-2.1262e-05
0.00997385
-2.17863e-05
0.00997773
-2.21848e-05
0.0099817
-2.24562e-05
0.00998573
-2.25935e-05
0.0099898
-2.25915e-05
0.0099939
-2.24749e-05
0.009998
-2.22385e-05
0.0100021
-2.19333e-05
0.0100061
-2.15577e-05
0.0100102
-2.1168e-05
0.0100142
-2.07886e-05
0.0100181
-2.04757e-05
0.010022
-2.02505e-05
0.0100259
-2.01514e-05
0.0100297
-2.01845e-05
0.0100335
-2.03719e-05
0.0100372
-2.06988e-05
0.010041
-2.11452e-05
0.0100447
-2.16051e-05
0.0100483
-2.19547e-05
-1.11502e-05
0.0131983
0.00457686
0.0131373
0.00257801
0.0129915
0.00220581
0.0127826
0.00181691
0.0125574
0.00145244
0.0123512
0.00114828
0.0121753
0.000912857
0.0120287
0.000736235
0.0119067
0.000603686
0.0118044
0.000502686
0.011718
0.000424209
0.0116442
0.000362025
0.0115808
0.000311841
0.0115258
0.00027067
0.0114778
0.0002364
0.0114358
0.000207506
0.0113987
0.00018287
0.011366
0.000161655
0.0113369
0.000143224
0.0113111
0.000127088
0.0112881
0.00011286
0.0112677
0.000100238
0.0112495
8.89769e-05
0.0112332
7.88784e-05
0.0112188
6.9781e-05
0.011206
6.15511e-05
0.0111946
5.40775e-05
0.0111846
4.72672e-05
0.0111758
4.10413e-05
0.011168
3.53337e-05
0.0111613
3.00872e-05
0.0111555
2.5253e-05
0.0111506
2.07885e-05
0.0111465
1.6658e-05
0.0111431
1.28293e-05
0.0111404
9.2746e-06
0.0111383
5.96856e-06
0.0111369
2.88979e-06
0.0111359
1.59121e-08
0.0111355
-2.66656e-06
0.0111355
-5.16718e-06
0.011136
-7.49807e-06
0.0111369
-9.67166e-06
0.0111382
-1.16984e-05
0.0111399
-1.35874e-05
0.0111419
-1.53472e-05
0.0111442
-1.69838e-05
0.0111468
-1.85025e-05
0.0111497
-1.99067e-05
0.0111528
-2.11979e-05
0.0111562
-2.23776e-05
0.0111597
-2.34404e-05
0.0111635
-2.43811e-05
0.0111674
-2.51927e-05
0.0111715
-2.58669e-05
0.0111757
-2.63939e-05
0.01118
-2.67719e-05
0.0111844
-2.69936e-05
0.0111889
-2.70534e-05
0.0111934
-2.69773e-05
0.0111979
-2.67602e-05
0.0112025
-2.64563e-05
0.011207
-2.60649e-05
0.0112114
-2.56459e-05
0.0112159
-2.52262e-05
0.0112203
-2.48661e-05
0.0112246
-2.45893e-05
0.0112289
-2.44371e-05
0.0112331
-2.44169e-05
0.0112373
-2.45525e-05
0.0112414
-2.48294e-05
0.0112455
-2.5225e-05
0.0112495
-2.56193e-05
0.0112535
-2.58815e-05
-1.31045e-05
0.0145294
0.00455582
0.0145054
0.00260198
0.0144157
0.00229555
0.0142598
0.00197282
0.0140612
0.00165105
0.0138564
0.00135304
0.0136688
0.00110045
0.0135058
0.000899213
0.0133669
0.000742613
0.0132489
0.000620723
0.0131482
0.000524839
0.0130619
0.000448325
0.0129874
0.000386336
0.0129227
0.00033538
0.0128662
0.00029293
0.0128166
0.000257137
0.0127728
0.000226629
0.0127341
0.000200373
0.0126997
0.000177581
0.0126692
0.000157643
0.012642
0.000140079
0.0126177
0.00012451
0.012596
0.000110631
0.0125767
9.81967e-05
0.0125595
8.70036e-05
0.0125442
7.68855e-05
0.0125305
6.77041e-05
0.0125185
5.93433e-05
0.0125078
5.1705e-05
0.0124984
4.47068e-05
0.0124902
3.82775e-05
0.0124831
3.23566e-05
0.012477
2.68913e-05
0.0124718
2.18369e-05
0.0124675
1.71537e-05
0.012464
1.28073e-05
0.0124612
8.76647e-06
0.0124591
5.00534e-06
0.0124576
1.49706e-06
0.0124567
-1.77889e-06
0.0124564
-4.83529e-06
0.0124566
-7.68422e-06
0.0124572
-1.03409e-05
0.0124583
-1.28183e-05
0.0124599
-1.51275e-05
0.0124618
-1.72794e-05
0.0124641
-1.92813e-05
0.0124667
-2.11399e-05
0.0124697
-2.286e-05
0.0124729
-2.44436e-05
0.0124765
-2.58933e-05
0.0124802
-2.72036e-05
0.0124842
-2.83695e-05
0.0124884
-2.93841e-05
0.0124928
-3.02384e-05
0.0124973
-3.09222e-05
0.012502
-3.14335e-05
0.0125067
-3.17644e-05
0.0125116
-3.1909e-05
0.0125165
-3.18944e-05
0.0125215
-3.1715e-05
0.0125264
-3.1428e-05
0.0125314
-3.10324e-05
0.0125363
-3.05921e-05
0.0125413
-3.01352e-05
0.0125461
-2.97261e-05
0.0125509
-2.93902e-05
0.0125557
-2.91722e-05
0.0125603
-2.90808e-05
0.0125649
-2.91419e-05
0.0125694
-2.93415e-05
0.0125739
-2.96556e-05
0.0125782
-2.99504e-05
0.0125824
-3.00891e-05
-1.51901e-05
0.0159844
0.00451431
0.0159863
0.00260012
0.0159396
0.0023422
0.015838
0.00207445
0.0156829
0.00180618
0.0154978
0.00153813
0.0153103
0.00128793
0.015137
0.00107255
0.0149835
0.000896033
0.0148502
0.000754095
0.0147348
0.000640183
0.014635
0.000548156
0.0145483
0.000473036
0.0144727
0.000411005
0.0144064
0.000359191
0.0143481
0.00031544
0.0142966
0.000278124
0.014251
0.000246004
0.0142104
0.000218126
0.0141743
0.000193748
0.0141421
0.000172285
0.0141134
0.000153272
0.0140877
0.000136333
0.0140647
0.000121167
0.0140442
0.000107525
0.0140259
9.52009e-05
0.0140095
8.4025e-05
0.013995
7.38542e-05
0.0139822
6.45679e-05
0.0139708
5.60647e-05
0.0139608
4.82569e-05
0.0139521
4.10699e-05
0.0139446
3.44392e-05
0.0139381
2.83096e-05
0.0139326
2.26324e-05
0.0139281
1.73653e-05
0.0139244
1.24703e-05
0.0139214
7.91586e-06
0.0139193
3.67097e-06
0.0139178
-2.92717e-07
0.0139169
-3.99381e-06
0.0139167
-7.44466e-06
0.013917
-1.06627e-05
0.0139179
-1.36638e-05
0.0139192
-1.64616e-05
0.013921
-1.90692e-05
0.0139232
-2.14959e-05
0.0139258
-2.37501e-05
0.0139288
-2.58379e-05
0.0139321
-2.77625e-05
0.0139357
-2.95273e-05
0.0139397
-3.11276e-05
0.0139439
-3.25585e-05
0.0139483
-3.38132e-05
0.0139529
-3.48826e-05
0.0139578
-3.57562e-05
0.0139628
-3.64317e-05
0.0139679
-3.69009e-05
0.0139731
-3.71572e-05
0.0139785
-3.72285e-05
0.0139839
-3.71084e-05
0.0139893
-3.68564e-05
0.0139947
-3.64714e-05
0.0140002
-3.60195e-05
0.0140056
-3.55304e-05
0.0140109
-3.50714e-05
0.0140162
-3.46703e-05
0.0140214
-3.4374e-05
0.0140265
-3.41932e-05
0.0140315
-3.41563e-05
0.0140364
-3.42509e-05
0.0140412
-3.4452e-05
0.0140459
-3.46126e-05
0.0140504
-3.459e-05
-1.74171e-05
0.0175785
0.00445507
0.0175995
0.00257919
0.0175837
0.00235791
0.0175281
0.00213005
0.0174232
0.00191109
0.0172751
0.00168623
0.0171043
0.00145878
0.0169315
0.00124532
0.0167696
0.00105797
0.0166236
0.000900065
0.0164944
0.000769374
0.0163809
0.000661678
0.0162813
0.000572637
0.0161938
0.0004985
0.0161167
0.000436243
0.0160487
0.000383494
0.0159884
0.000338409
0.0159348
0.000299552
0.0158872
0.000265805
0.0158446
0.000236287
0.0158066
0.000210298
0.0157726
0.000187279
0.0157422
0.00016678
0.0157149
0.000148433
0.0156905
0.000131937
0.0156686
0.000117043
0.0156491
0.000103542
0.0156317
9.12626e-05
0.0156162
8.00564e-05
0.0156025
6.98e-05
0.0155904
6.0387e-05
0.0155797
5.17263e-05
0.0155704
4.37394e-05
0.0155624
3.63589e-05
0.0155555
2.95257e-05
0.0155496
2.31881e-05
0.0155448
1.73003e-05
0.0155409
1.18239e-05
0.0155379
6.72252e-06
0.0155356
1.96188e-06
0.0155341
-2.48579e-06
0.0155333
-6.63611e-06
0.0155331
-1.05065e-05
0.0155336
-1.41163e-05
0.0155346
-1.7482e-05
0.0155361
-2.06195e-05
0.0155382
-2.35403e-05
0.0155407
-2.62547e-05
0.0155436
-2.87706e-05
0.015547
-3.10925e-05
0.0155507
-3.32252e-05
0.0155547
-3.51646e-05
0.015559
-3.69067e-05
0.0155637
-3.84448e-05
0.0155686
-3.977e-05
0.0155737
-4.08715e-05
0.015579
-4.17471e-05
0.0155845
-4.23883e-05
0.0155901
-4.27873e-05
0.0155959
-4.29731e-05
0.0156017
-4.29377e-05
0.0156076
-4.27428e-05
0.0156135
-4.23855e-05
0.0156194
-4.19349e-05
0.0156253
-4.14206e-05
0.0156311
-4.09132e-05
0.0156369
-4.04412e-05
0.0156426
-4.00552e-05
0.0156482
-3.97673e-05
0.0156536
-3.9609e-05
0.0156589
-3.95702e-05
0.0156641
-3.96264e-05
0.0156691
-3.96173e-05
0.0156739
-3.93946e-05
-1.97865e-05
0.0193271
0.00437951
0.0193633
0.00254302
0.0193699
0.00235126
0.0193491
0.00215085
0.0192904
0.00196985
0.0191886
0.00178799
0.0190512
0.00159619
0.0188945
0.00140198
0.0187348
0.00121769
0.0185826
0.00105228
0.0184429
0.000909105
0.0183171
0.00078748
0.0182049
0.000684848
0.0181051
0.000598216
0.0180166
0.00052479
0.0179379
0.000462184
0.0178679
0.000408444
0.0178054
0.000361996
0.0177496
0.000321578
0.0176998
0.000286181
0.0176551
0.000254993
0.017615
0.000227358
0.017579
0.000202744
0.0175467
0.000180714
0.0175178
0.000160909
0.0174918
0.000143032
0.0174685
0.000126832
0.0174476
0.000112102
0.017429
9.86647e-05
0.0174125
8.63706e-05
0.0173978
7.50916e-05
0.0173848
6.47178e-05
0.0173734
5.51545e-05
0.0173634
4.63202e-05
0.0173548
3.81435e-05
0.0173474
3.05623e-05
0.0173412
2.35211e-05
0.017336
1.69736e-05
0.0173319
1.08767e-05
0.0173286
5.19119e-06
0.0173263
-1.2097e-07
0.0173247
-5.08247e-06
0.0173239
-9.71085e-06
0.0173238
-1.4028e-05
0.0173244
-1.80539e-05
0.0173256
-2.18074e-05
0.0173274
-2.53028e-05
0.0173297
-2.85526e-05
0.0173325
-3.15668e-05
0.0173357
-3.43517e-05
0.0173394
-3.69134e-05
0.0173435
-3.92492e-05
0.0173479
-4.13559e-05
0.0173527
-4.32275e-05
0.0173578
-4.48555e-05
0.0173632
-4.62292e-05
0.0173688
-4.73464e-05
0.0173746
-4.81983e-05
0.0173806
-4.87764e-05
0.0173867
-4.91097e-05
0.017393
-4.9189e-05
0.0173993
-4.90767e-05
0.0174057
-4.87689e-05
0.0174121
-4.83355e-05
0.0174185
-4.78063e-05
0.0174248
-4.72539e-05
0.0174311
-4.67083e-05
0.0174372
-4.62224e-05
0.0174433
-4.58107e-05
0.0174492
-4.55081e-05
0.0174549
-4.53079e-05
0.0174605
-4.51867e-05
0.0174658
-4.49721e-05
0.0174709
-4.45092e-05
-2.23062e-05
0.0212463
0.00428825
0.0212957
0.00249367
0.0213195
0.00232744
0.0213242
0.00214617
0.0213021
0.00199196
0.0212453
0.00184475
0.0211515
0.00169
0.021027
0.00152649
0.0208846
0.00136013
0.0207372
0.00119968
0.020594
0.0010523
0.02046
0.000921453
0.0203373
0.000807544
0.0202262
0.000709285
0.0201263
0.000624735
0.0200366
0.000551878
0.0199562
0.000488871
0.019884
0.000434123
0.0198193
0.000386304
0.0197612
0.000344313
0.0197089
0.000307245
0.0196619
0.000274358
0.0196196
0.000245039
0.0195816
0.000218784
0.0195473
0.000195173
0.0195165
0.000173856
0.0194888
0.000154539
0.0194639
0.000136976
0.0194416
0.000120955
0.0194217
0.000106301
0.0194039
9.28591e-05
0.0193881
8.0499e-05
0.0193742
6.91071e-05
0.0193619
5.85863e-05
0.0193512
4.88508e-05
0.0193419
3.98263e-05
0.019334
3.14466e-05
0.0193273
2.36559e-05
0.0193218
1.64033e-05
0.0193173
9.64302e-06
0.0193139
3.33035e-06
0.0193114
-2.56916e-06
0.0193097
-8.07795e-06
0.0193089
-1.32169e-05
0.0193089
-1.80099e-05
0.0193096
-2.24795e-05
0.0193109
-2.66429e-05
0.0193129
-3.05155e-05
0.0193154
-3.41096e-05
0.0193185
-3.74335e-05
0.0193221
-4.04953e-05
0.0193261
-4.32938e-05
0.0193306
-4.5827e-05
0.0193354
-4.80901e-05
0.0193407
-5.00752e-05
0.0193462
-5.17721e-05
0.019352
-5.31787e-05
0.0193581
-5.42861e-05
0.0193644
-5.50849e-05
0.0193709
-5.56044e-05
0.0193776
-5.58329e-05
0.0193843
-5.58341e-05
0.0193912
-5.56011e-05
0.019398
-5.52053e-05
0.0194049
-5.46751e-05
0.0194117
-5.40849e-05
0.0194185
-5.34652e-05
0.0194251
-5.28721e-05
0.0194316
-5.23218e-05
0.019438
-5.18536e-05
0.0194442
-5.14647e-05
0.0194501
-5.11342e-05
0.0194558
-5.06782e-05
0.0194612
-4.99343e-05
-2.49717e-05
0.0233536
0.00418142
0.0234151
0.0024322
0.0234532
0.00228933
0.0234772
0.00212214
0.0234826
0.00198665
0.0234628
0.0018645
0.0234125
0.0017403
0.02333
0.00160898
0.0232201
0.00147005
0.0230924
0.00132737
0.0229574
0.00118727
0.0228234
0.00105551
0.0226954
0.000935567
0.022576
0.000828655
0.0224663
0.000734457
0.0223663
0.000651894
0.0222755
0.00057961
0.0221934
0.000516238
0.0221192
0.000460522
0.0220521
0.000411361
0.0219916
0.000367808
0.0219369
0.000329066
0.0218874
0.00029446
0.0218428
0.000263425
0.0218025
0.000235487
0.0217661
0.000210244
0.0217333
0.000187358
0.0217037
0.000166541
0.0216771
0.000147551
0.0216532
0.000130177
0.0216319
0.00011424
0.0216128
9.95858e-05
0.0215958
8.60807e-05
0.0215808
7.36092e-05
0.0215676
6.20699e-05
0.021556
5.13745e-05
0.021546
4.14446e-05
0.0215375
3.22138e-05
0.0215302
2.36215e-05
0.0215243
1.56145e-05
0.0215195
8.14235e-06
0.0215157
1.15896e-06
0.021513
-5.36858e-06
0.0215113
-1.14614e-05
0.0215104
-1.71451e-05
0.0215104
-2.24465e-05
0.0215111
-2.7386e-05
0.0215126
-3.19825e-05
0.0215147
-3.62507e-05
0.0215175
-4.02017e-05
0.0215208
-4.38458e-05
0.0215247
-4.71836e-05
0.0215291
-5.02149e-05
0.021534
-5.29364e-05
0.0215392
-5.53412e-05
0.0215449
-5.74197e-05
0.0215509
-5.91706e-05
0.0215572
-6.05848e-05
0.0215637
-6.16523e-05
0.0215705
-6.24021e-05
0.0215775
-6.28204e-05
0.0215846
-6.29707e-05
0.0215919
-6.28436e-05
0.0215992
-6.25102e-05
0.0216065
-6.19977e-05
0.0216138
-6.13811e-05
0.021621
-6.06913e-05
0.0216282
-5.99868e-05
0.0216351
-5.92863e-05
0.0216419
-5.86334e-05
0.0216485
-5.80307e-05
0.0216548
-5.74602e-05
0.0216608
-5.67282e-05
0.0216666
-5.56619e-05
-2.77848e-05
0.025668
0.00405883
0.0257411
0.00235909
0.025792
0.00223841
0.0258318
0.00208235
0.025858
0.00196046
0.0258665
0.00185601
0.0258526
0.00175414
0.0258122
0.00164945
0.0257435
0.00153871
0.0256497
0.00142115
0.0255378
0.00129914
0.0254163
0.00117709
0.0252923
0.00105955
0.0251711
0.000949846
0.0250558
0.000849723
0.0249481
0.000759626
0.0248485
0.000679192
0.0247571
0.000607648
0.0246736
0.000544065
0.0245974
0.000487505
0.0245281
0.000437091
0.0244652
0.000392034
0.024408
0.000351644
0.0243561
0.000315323
0.024309
0.000282556
0.0242664
0.000252903
0.0242277
0.000225985
0.0241928
0.000201478
0.0241612
0.000179104
0.0241328
0.000158624
0.0241072
0.000139831
0.0240842
0.000122546
0.0240637
0.000106612
0.0240454
9.1896e-05
0.0240292
7.82785e-05
0.0240149
6.56562e-05
0.0240024
5.39372e-05
0.0239916
4.3043e-05
0.0239823
3.29024e-05
0.0239745
2.34532e-05
0.023968
1.46377e-05
0.0239628
6.40326e-06
0.0239587
-1.29832e-06
0.0239557
-8.49548e-06
0.0239538
-1.52119e-05
0.0239528
-2.1478e-05
0.0239527
-2.73182e-05
0.0239535
-3.27548e-05
0.0239551
-3.7806e-05
0.0239574
-4.24856e-05
0.0239603
-4.68066e-05
0.0239639
-5.0772e-05
0.0239681
-5.43837e-05
0.0239728
-5.76403e-05
0.023978
-6.05362e-05
0.0239836
-6.30633e-05
0.0239897
-6.52209e-05
0.0239961
-6.70005e-05
0.0240028
-6.83912e-05
0.0240098
-6.94219e-05
0.0240171
-7.00761e-05
0.0240245
-7.04174e-05
0.0240321
-7.04326e-05
0.0240398
-7.01925e-05
0.0240475
-6.97215e-05
0.0240552
-6.90953e-05
0.0240629
-6.83441e-05
0.0240704
-6.75291e-05
0.0240778
-6.66711e-05
0.024085
-6.58186e-05
0.024092
-6.49798e-05
0.0240986
-6.41415e-05
0.024105
-6.31006e-05
0.024111
-6.16719e-05
-3.07306e-05
0.02821
0.00392004
0.0282946
0.00227448
0.0283577
0.00217531
0.0284114
0.00202872
0.0284545
0.00191736
0.0284846
0.00182582
0.028499
0.00173975
0.0284939
0.00165457
0.0284658
0.00156685
0.0284129
0.00147399
0.0283369
0.00137516
0.0282424
0.00127159
0.0281359
0.00116607
0.0280237
0.00106203
0.027911
0.000962457
0.0278012
0.000869359
0.0276967
0.000783741
0.0275985
0.00070584
0.0275072
0.000635404
0.0274227
0.000571917
0.0273451
0.000514754
0.0272738
0.000463267
0.0272087
0.000416832
0.0271491
0.000374877
0.0270948
0.000336886
0.0270453
0.000302404
0.0270002
0.000271029
0.0269593
0.000242411
0.0269222
0.000216246
0.0268885
0.000192267
0.0268581
0.000170242
0.0268307
0.000149968
0.026806
0.00013127
0.0267839
0.000113991
0.0267642
9.79966e-05
0.0267467
8.31663e-05
0.0267312
6.9394e-05
0.0267177
5.65882e-05
0.0267059
4.46663e-05
0.0266958
3.35559e-05
0.0266873
2.31908e-05
0.0266802
1.35118e-05
0.0266744
4.46094e-06
0.0266699
-4.00589e-06
0.0266666
-1.19165e-05
0.0266644
-1.9299e-05
0.0266633
-2.61818e-05
0.0266631
-3.25915e-05
0.0266639
-3.855e-05
0.0266655
-4.40744e-05
0.0266678
-4.91805e-05
0.0266709
-5.38744e-05
0.0266747
-5.81604e-05
0.0266791
-6.20394e-05
0.0266841
-6.55079e-05
0.0266896
-6.85594e-05
0.0266956
-7.11943e-05
0.026702
-7.34051e-05
0.0267088
-7.51805e-05
0.0267159
-7.65491e-05
0.0267233
-7.74921e-05
0.026731
-7.8072e-05
0.0267388
-7.82722e-05
0.0267468
-7.8162e-05
0.0267548
-7.7763e-05
0.0267629
-7.71502e-05
0.0267709
-7.63529e-05
0.0267788
-7.54342e-05
0.0267865
-7.44172e-05
0.0267941
-7.33555e-05
0.0268013
-7.22636e-05
0.0268083
-7.11337e-05
0.026815
-6.97552e-05
0.0268212
-6.79259e-05
-3.37969e-05
0.0310025
0.00376437
0.0310986
0.00217833
0.0311738
0.00210012
0.0312404
0.00196217
0.0312982
0.00185951
0.0313461
0.00177799
0.0313824
0.00170341
0.0314049
0.00163208
0.0314106
0.00156114
0.0313966
0.00148794
0.0313612
0.00141063
0.0313045
0.00132831
0.0312292
0.00124132
0.03114
0.00115123
0.0310421
0.00106038
0.0309402
0.000971214
0.0308382
0.000885745
0.0307387
0.000805322
0.0306435
0.000730647
0.0305535
0.00066193
0.0304692
0.000599048
0.0303908
0.000541688
0.0303182
0.00048944
0.0302512
0.000441861
0.0301896
0.000398507
0.030133
0.00035896
0.0300812
0.000322832
0.0300338
0.000289771
0.0299906
0.000259463
0.0299513
0.000231628