/*--------------------------------*- C++ -*----------------------------------*\
  =========                 |
  \\      /  F ield         | OpenFOAM: The Open Source CFD Toolbox
   \\    /   O peration     | Website:  https://openfoam.org
    \\  /    A nd           | Version:  7
     \\/     M anipulation  |
\*---------------------------------------------------------------------------*/
FoamFile
{
    version     2.0;
    format      ascii;
    class       volVectorField;
    location    "700";
    object      U;
}
// * * * * * * * * * * * * * * * * * * * * * * * * * * * * * * * * * * * * * //

dimensions      [0 1 -1 0 0 0 0];

internalField   nonuniform List<vector> 
4500
(
(15.4058 -0.778201 0)
(13.7077 -0.0619025 0)
(13.0325 -0.00325615 0)
(12.6708 0.00046499 0)
(12.4331 0.00050143 0)
(12.2594 0.000386177 0)
(12.125 0.000303744 0)
(12.0172 0.000246405 0)
(11.9286 0.0002045 0)
(11.8542 0.000172559 0)
(11.7911 0.000147435 0)
(11.7368 0.000127187 0)
(11.6898 0.000110546 0)
(11.6488 9.66465e-05 0)
(11.6128 8.48802e-05 0)
(11.5812 7.48044e-05 0)
(11.5533 6.60902e-05 0)
(11.5286 5.84884e-05 0)
(11.5067 5.18062e-05 0)
(11.4874 4.58929e-05 0)
(11.4702 4.06279e-05 0)
(11.455 3.59156e-05 0)
(11.4416 3.1677e-05 0)
(11.4298 2.78481e-05 0)
(11.4194 2.43751e-05 0)
(11.4104 2.12139e-05 0)
(11.4025 1.83268e-05 0)
(11.3958 1.56822e-05 0)
(11.39 1.32518e-05 0)
(11.3852 1.10152e-05 0)
(11.3812 8.95112e-06 0)
(11.378 7.04255e-06 0)
(11.3755 5.27269e-06 0)
(11.3738 3.63228e-06 0)
(11.3726 2.10722e-06 0)
(11.372 6.85444e-07 0)
(11.372 -6.4943e-07 0)
(11.3725 -1.88729e-06 0)
(11.3734 -3.03478e-06 0)
(11.3748 -4.10303e-06 0)
(11.3766 -5.10268e-06 0)
(11.3788 -6.03167e-06 0)
(11.3814 -6.89914e-06 0)
(11.3842 -7.70742e-06 0)
(11.3874 -8.46039e-06 0)
(11.3909 -9.15943e-06 0)
(11.3946 -9.80708e-06 0)
(11.3986 -1.04074e-05 0)
(11.4028 -1.09597e-05 0)
(11.4072 -1.14635e-05 0)
(11.4118 -1.19179e-05 0)
(11.4166 -1.23139e-05 0)
(11.4215 -1.26525e-05 0)
(11.4266 -1.2926e-05 0)
(11.4317 -1.3121e-05 0)
(11.4369 -1.32264e-05 0)
(11.4422 -1.32404e-05 0)
(11.4474 -1.31534e-05 0)
(11.4525 -1.29447e-05 0)
(11.4576 -1.26622e-05 0)
(11.4625 -1.22587e-05 0)
(11.4673 -1.1838e-05 0)
(11.4719 -1.13337e-05 0)
(11.4763 -1.084e-05 0)
(11.4805 -1.03555e-05 0)
(11.4846 -9.99005e-06 0)
(11.4886 -9.74201e-06 0)
(11.4926 -9.68327e-06 0)
(11.4965 -9.7901e-06 0)
(11.5006 -1.01505e-05 0)
(11.5049 -1.07287e-05 0)
(11.5094 -1.15519e-05 0)
(11.5143 -1.25008e-05 0)
(11.5195 -1.33806e-05 0)
(11.525 -7.2287e-06 0)
(17.5879 0.16307 0)
(16.0152 0.0238108 0)
(15.1976 0.00458796 0)
(14.7348 0.00198899 0)
(14.4341 0.00129709 0)
(14.2183 0.000960549 0)
(14.0538 0.000751469 0)
(13.9232 0.000608021 0)
(13.8165 0.000503607 0)
(13.7275 0.000424282 0)
(13.6522 0.000362065 0)
(13.5878 0.000312044 0)
(13.532 0.000271017 0)
(13.4835 0.000236811 0)
(13.441 0.000207895 0)
(13.4037 0.000183163 0)
(13.3708 0.000161797 0)
(13.3416 0.000143174 0)
(13.3158 0.000126818 0)
(13.293 0.000112353 0)
(13.2728 9.94827e-05 0)
(13.2548 8.79693e-05 0)
(13.239 7.76186e-05 0)
(13.225 6.82722e-05 0)
(13.2127 5.97982e-05 0)
(13.202 5.20875e-05 0)
(13.1926 4.50478e-05 0)
(13.1846 3.86015e-05 0)
(13.1777 3.26801e-05 0)
(13.1718 2.7231e-05 0)
(13.167 2.22033e-05 0)
(13.1631 1.75551e-05 0)
(13.16 1.32476e-05 0)
(13.1577 9.25355e-06 0)
(13.1562 5.5416e-06 0)
(13.1553 2.08488e-06 0)
(13.1551 -1.15106e-06 0)
(13.1554 -4.15987e-06 0)
(13.1563 -6.95389e-06 0)
(13.1577 -9.55652e-06 0)
(13.1596 -1.19876e-05 0)
(13.1619 -1.4251e-05 0)
(13.1647 -1.63631e-05 0)
(13.1678 -1.83312e-05 0)
(13.1713 -2.01633e-05 0)
(13.1751 -2.18653e-05 0)
(13.1793 -2.34432e-05 0)
(13.1837 -2.49035e-05 0)
(13.1884 -2.62457e-05 0)
(13.1933 -2.74691e-05 0)
(13.1985 -2.8571e-05 0)
(13.2038 -2.95357e-05 0)
(13.2093 -3.03575e-05 0)
(13.215 -3.10179e-05 0)
(13.2208 -3.14919e-05 0)
(13.2266 -3.17563e-05 0)
(13.2325 -3.18044e-05 0)
(13.2384 -3.16184e-05 0)
(13.2443 -3.11696e-05 0)
(13.25 -3.05359e-05 0)
(13.2556 -2.96621e-05 0)
(13.2611 -2.87208e-05 0)
(13.2664 -2.76396e-05 0)
(13.2716 -2.65919e-05 0)
(13.2765 -2.56074e-05 0)
(13.2814 -2.48775e-05 0)
(13.2861 -2.4427e-05 0)
(13.2909 -2.4387e-05 0)
(13.2956 -2.474e-05 0)
(13.3005 -2.56164e-05 0)
(13.3055 -2.69562e-05 0)
(13.3109 -2.87765e-05 0)
(13.3165 -3.08387e-05 0)
(13.3225 -3.27565e-05 0)
(13.3288 -1.7139e-05 0)
(18.7449 0.0973745 0)
(17.3725 0.0156216 0)
(16.4743 0.00605636 0)
(15.9331 0.00350033 0)
(15.5795 0.00236975 0)
(15.3279 0.00174957 0)
(15.138 0.00136082 0)
(14.9886 0.00109591 0)
(14.8673 0.000904526 0)
(14.7668 0.000760049 0)
(14.6821 0.000647306 0)
(14.6098 0.000557034 0)
(14.5474 0.000483241 0)
(14.4932 0.000421882 0)
(14.4459 0.000370133 0)
(14.4043 0.000325958 0)
(14.3676 0.000287855 0)
(14.3353 0.000254694 0)
(14.3066 0.000225603 0)
(14.2812 0.000199906 0)
(14.2586 0.000177063 0)
(14.2387 0.000156645 0)
(14.221 0.000138303 0)
(14.2054 0.000121753 0)
(14.1917 0.000106756 0)
(14.1796 9.31181e-05 0)
(14.1691 8.0673e-05 0)
(14.16 6.92819e-05 0)
(14.1522 5.88237e-05 0)
(14.1456 4.92023e-05 0)
(14.14 4.03278e-05 0)
(14.1355 3.21255e-05 0)
(14.1319 2.45273e-05 0)
(14.1291 1.74826e-05 0)
(14.1271 1.09371e-05 0)
(14.1259 4.84744e-06 0)
(14.1254 -8.46947e-07 0)
(14.1255 -6.15201e-06 0)
(14.1262 -1.10835e-05 0)
(14.1275 -1.56756e-05 0)
(14.1293 -1.99625e-05 0)
(14.1315 -2.39554e-05 0)
(14.1343 -2.76809e-05 0)
(14.1374 -3.11525e-05 0)
(14.141 -3.4385e-05 0)
(14.1449 -3.73898e-05 0)
(14.1491 -4.01765e-05 0)
(14.1537 -4.27551e-05 0)
(14.1586 -4.51261e-05 0)
(14.1637 -4.7288e-05 0)
(14.1691 -4.92374e-05 0)
(14.1747 -5.09493e-05 0)
(14.1804 -5.241e-05 0)
(14.1864 -5.35899e-05 0)
(14.1924 -5.44512e-05 0)
(14.1986 -5.49573e-05 0)
(14.2048 -5.50984e-05 0)
(14.211 -5.48481e-05 0)
(14.2172 -5.41704e-05 0)
(14.2234 -5.31798e-05 0)
(14.2294 -5.18156e-05 0)
(14.2353 -5.03271e-05 0)
(14.241 -4.86407e-05 0)
(14.2466 -4.7015e-05 0)
(14.2521 -4.55167e-05 0)
(14.2574 -4.44241e-05 0)
(14.2626 -4.37922e-05 0)
(14.2679 -4.38103e-05 0)
(14.2731 -4.44659e-05 0)
(14.2785 -4.59264e-05 0)
(14.284 -4.81031e-05 0)
(14.2898 -5.09898e-05 0)
(14.2958 -5.42065e-05 0)
(14.3021 -5.71517e-05 0)
(14.3086 -2.96525e-05 0)
(19.3754 0.0462247 0)
(18.326 0.0150409 0)
(17.4307 0.00910101 0)
(16.8356 0.00564414 0)
(16.435 0.00383709 0)
(16.1491 0.00281757 0)
(15.9342 0.00217867 0)
(15.7661 0.00174595 0)
(15.6305 0.00143549 0)
(15.5186 0.00120258 0)
(15.4247 0.00102181 0)
(15.3447 0.000877711 0)
(15.276 0.000760364 0)
(15.2164 0.000663101 0)
(15.1644 0.00058129 0)
(15.1188 0.000511614 0)
(15.0786 0.000451637 0)
(15.0431 0.000399526 0)
(15.0117 0.000353883 0)
(14.9839 0.000313617 0)
(14.9592 0.000277866 0)
(14.9373 0.000245946 0)
(14.9179 0.000217298 0)
(14.9007 0.00019147 0)
(14.8856 0.000168085 0)
(14.8723 0.000146834 0)
(14.8607 0.000127453 0)
(14.8505 0.000109725 0)
(14.8418 9.34572e-05 0)
(14.8343 7.84976e-05 0)
(14.8281 6.47052e-05 0)
(14.8228 5.19623e-05 0)
(14.8186 4.01629e-05 0)
(14.8154 2.9225e-05 0)
(14.8129 1.90654e-05 0)
(14.8113 9.61696e-06 0)
(14.8104 7.91026e-07 0)
(14.8102 -7.43994e-06 0)
(14.8106 -1.50994e-05 0)
(14.8117 -2.22289e-05 0)
(14.8133 -2.88813e-05 0)
(14.8154 -3.50789e-05 0)
(14.818 -4.08609e-05 0)
(14.8211 -4.62495e-05 0)
(14.8246 -5.1268e-05 0)
(14.8284 -5.59349e-05 0)
(14.8327 -6.02651e-05 0)
(14.8373 -6.42727e-05 0)
(14.8422 -6.79604e-05 0)
(14.8474 -7.13259e-05 0)
(14.8528 -7.43642e-05 0)
(14.8585 -7.70421e-05 0)
(14.8644 -7.93373e-05 0)
(14.8705 -8.12078e-05 0)
(14.8767 -8.26024e-05 0)
(14.883 -8.34708e-05 0)
(14.8894 -8.37977e-05 0)
(14.8959 -8.35505e-05 0)
(14.9023 -8.26898e-05 0)
(14.9087 -8.13629e-05 0)
(14.915 -7.95133e-05 0)
(14.9212 -7.74628e-05 0)
(14.9273 -7.51502e-05 0)
(14.9332 -7.29181e-05 0)
(14.939 -7.08779e-05 0)
(14.9448 -6.9393e-05 0)
(14.9504 -6.8555e-05 0)
(14.956 -6.86106e-05 0)
(14.9616 -6.95541e-05 0)
(14.9673 -7.15836e-05 0)
(14.9732 -7.4581e-05 0)
(14.9792 -7.85069e-05 0)
(14.9854 -8.28202e-05 0)
(14.9918 -8.67123e-05 0)
(14.9984 -4.47468e-05 0)
(19.693 0.0456702 0)
(18.9995 0.0202329 0)
(18.1918 0.0128969 0)
(17.577 0.00823931 0)
(17.1407 0.00564736 0)
(16.8239 0.00414117 0)
(16.5849 0.00318982 0)
(16.3982 0.00254609 0)
(16.2481 0.00208608 0)
(16.1247 0.00174263 0)
(16.0214 0.00147727 0)
(15.9337 0.00126663 0)
(15.8585 0.0010957 0)
(15.7934 0.000954472 0)
(15.7367 0.000836004 0)
(15.687 0.000735347 0)
(15.6433 0.00064888 0)
(15.6047 0.000573892 0)
(15.5705 0.000508315 0)
(15.5402 0.000450546 0)
(15.5133 0.000399323 0)
(15.4895 0.000353639 0)
(15.4683 0.000312682 0)
(15.4496 0.000275789 0)
(15.4331 0.000242416 0)
(15.4185 0.00021211 0)
(15.4057 0.000184492 0)
(15.3945 0.000159244 0)
(15.3848 0.000136091 0)
(15.3765 0.000114809 0)
(15.3694 9.51976e-05 0)
(15.3635 7.70859e-05 0)
(15.3587 6.03225e-05 0)
(15.3548 4.47874e-05 0)
(15.3518 3.03621e-05 0)
(15.3497 1.69502e-05 0)
(15.3484 4.43667e-06 0)
(15.3479 -7.23981e-06 0)
(15.348 -1.81191e-05 0)
(15.3487 -2.82436e-05 0)
(15.3501 -3.76867e-05 0)
(15.352 -4.64853e-05 0)
(15.3544 -5.46933e-05 0)
(15.3573 -6.23438e-05 0)
(15.3606 -6.94701e-05 0)
(15.3644 -7.60994e-05 0)
(15.3686 -8.22533e-05 0)
(15.3731 -8.79513e-05 0)
(15.3779 -9.31985e-05 0)
(15.3831 -9.79932e-05 0)
(15.3886 -0.000102329 0)
(15.3943 -0.000106165 0)
(15.4002 -0.000109472 0)
(15.4063 -0.000112196 0)
(15.4126 -0.000114273 0)
(15.4191 -0.00011564 0)
(15.4256 -0.000116276 0)
(15.4322 -0.000116142 0)
(15.4387 -0.000115199 0)
(15.4453 -0.000113624 0)
(15.4518 -0.000111366 0)
(15.4583 -0.000108814 0)
(15.4646 -0.000105924 0)
(15.4708 -0.000103115 0)
(15.4769 -0.000100544 0)
(15.483 -9.8652e-05 0)
(15.4889 -9.7567e-05 0)
(15.4948 -9.75874e-05 0)
(15.5007 -9.87154e-05 0)
(15.5067 -0.000101173 0)
(15.5127 -0.000104817 0)
(15.5189 -0.000109569 0)
(15.5252 -0.000114721 0)
(15.5316 -0.000119286 0)
(15.5381 -6.12727e-05 0)
(19.8488 0.0504549 0)
(19.4507 0.0244881 0)
(18.7997 0.016652 0)
(18.2081 0.0111579 0)
(17.7532 0.007791 0)
(17.4116 0.00573675 0)
(17.1505 0.00441439 0)
(16.9458 0.00351467 0)
(16.7812 0.00287186 0)
(16.6461 0.00239313 0)
(16.5332 0.00202448 0)
(16.4376 0.00173281 0)
(16.3557 0.00149689 0)
(16.2849 0.00130252 0)
(16.2233 0.00113989 0)
(16.1694 0.00100204 0)
(16.122 0.00088386 0)
(16.0802 0.000781559 0)
(16.0431 0.000692243 0)
(16.0103 0.000613679 0)
(15.9812 0.000544108 0)
(15.9553 0.000482135 0)
(15.9323 0.000426635 0)
(15.9119 0.000376692 0)
(15.8939 0.000331554 0)
(15.8779 0.000290597 0)
(15.8639 0.000253302 0)
(15.8516 0.000219229 0)
(15.8409 0.000188004 0)
(15.8317 0.000159319 0)
(15.8238 0.000132898 0)
(15.8171 0.000108509 0)
(15.8115 8.59464e-05 0)
(15.807 6.50432e-05 0)
(15.8035 4.56401e-05 0)
(15.8009 2.76051e-05 0)
(15.7991 1.07955e-05 0)
(15.7981 -4.89141e-06 0)
(15.7978 -1.95228e-05 0)
(15.7982 -3.31414e-05 0)
(15.7992 -4.58393e-05 0)
(15.8008 -5.76714e-05 0)
(15.803 -6.87083e-05 0)
(15.8057 -7.89969e-05 0)
(15.8088 -8.85822e-05 0)
(15.8124 -9.75018e-05 0)
(15.8164 -0.000105785 0)
(15.8208 -0.000113459 0)
(15.8256 -0.000120532 0)
(15.8307 -0.000127004 0)
(15.8361 -0.000132867 0)
(15.8417 -0.000138077 0)
(15.8477 -0.000142595 0)
(15.8538 -0.000146358 0)
(15.8601 -0.00014929 0)
(15.8666 -0.000151317 0)
(15.8731 -0.000152411 0)
(15.8798 -0.000152531 0)
(15.8865 -0.000151636 0)
(15.8932 -0.000149929 0)
(15.8998 -0.000147368 0)
(15.9064 -0.000144401 0)
(15.913 -0.000141003 0)
(15.9194 -0.000137661 0)
(15.9258 -0.000134575 0)
(15.932 -0.000132256 0)
(15.9382 -0.000130867 0)
(15.9444 -0.000130753 0)
(15.9505 -0.000131923 0)
(15.9566 -0.00013462 0)
(15.9628 -0.000138677 0)
(15.969 -0.000143978 0)
(15.9753 -0.000149648 0)
(15.9817 -0.000154544 0)
(15.9881 -7.9058e-05 0)
(19.929 0.0521809 0)
(19.7286 0.0270124 0)
(19.2674 0.0200258 0)
(18.7457 0.0142434 0)
(18.2961 0.0102331 0)
(17.9397 0.00761459 0)
(17.6607 0.00587475 0)
(17.4395 0.00467512 0)
(17.2609 0.0038141 0)
(17.114 0.00317259 0)
(16.9914 0.00267928 0)
(16.8876 0.00228985 0)
(16.7988 0.00197561 0)
(16.7221 0.00171734 0)
(16.6554 0.00150174 0)
(16.597 0.00131938 0)
(16.5458 0.00116334 0)
(16.5005 0.00102851 0)
(16.4605 0.000910981 0)
(16.4249 0.000807752 0)
(16.3934 0.000716463 0)
(16.3654 0.000635242 0)
(16.3405 0.000562585 0)
(16.3183 0.000497269 0)
(16.2987 0.000438292 0)
(16.2813 0.000384824 0)
(16.266 0.000336174 0)
(16.2525 0.000291759 0)
(16.2407 0.000251084 0)
(16.2305 0.000213738 0)
(16.2216 0.00017936 0)
(16.2141 0.000147641 0)
(16.2078 0.000118311 0)
(16.2026 9.11477e-05 0)
(16.1984 6.59432e-05 0)
(16.1952 4.25232e-05 0)
(16.1929 2.0712e-05 0)
(16.1914 3.64948e-07 0)
(16.1906 -1.86275e-05 0)
(16.1906 -3.63156e-05 0)
(16.1913 -5.28038e-05 0)
(16.1925 -6.81679e-05 0)
(16.1944 -8.24988e-05 0)
(16.1968 -9.58591e-05 0)
(16.1997 -0.000108308 0)
(16.2031 -0.000119896 0)
(16.2069 -0.000130663 0)
(16.2111 -0.000140642 0)
(16.2157 -0.000149848 0)
(16.2207 -0.000158284 0)
(16.226 -0.000165942 0)
(16.2316 -0.000172773 0)
(16.2374 -0.000178736 0)
(16.2435 -0.000183756 0)
(16.2498 -0.000187747 0)
(16.2562 -0.000190624 0)
(16.2628 -0.000192356 0)
(16.2695 -0.000192896 0)
(16.2762 -0.000192203 0)
(16.283 -0.000190504 0)
(16.2897 -0.000187764 0)
(16.2965 -0.000184484 0)
(16.3032 -0.000180655 0)
(16.3098 -0.000176829 0)
(16.3163 -0.000173241 0)
(16.3228 -0.000170468 0)
(16.3292 -0.000168704 0)
(16.3355 -0.000168336 0)
(16.3418 -0.000169382 0)
(16.348 -0.000172103 0)
(16.3543 -0.000176314 0)
(16.3605 -0.000181859 0)
(16.3668 -0.000187697 0)
(16.3731 -0.000192556 0)
(16.3793 -9.81394e-05 0)
(19.9739 0.052718 0)
(19.8889 0.0285834 0)
(19.6025 0.0227995 0)
(19.1903 0.0172661 0)
(18.776 0.0128803 0)
(18.4202 0.00975677 0)
(18.1302 0.00758162 0)
(17.8955 0.00604682 0)
(17.7042 0.0049334 0)
(17.546 0.00410026 0)
(17.4137 0.00345889 0)
(17.3016 0.00295286 0)
(17.2056 0.00254508 0)
(17.1228 0.00221049 0)
(17.0508 0.0019317 0)
(16.9878 0.00169629 0)
(16.9324 0.00149522 0)
(16.8836 0.00132175 0)
(16.8404 0.00117077 0)
(16.802 0.00103835 0)
(16.7679 0.000921395 0)
(16.7376 0.000817464 0)
(16.7106 0.000724593 0)
(16.6866 0.000641191 0)
(16.6653 0.000565954 0)
(16.6463 0.000497804 0)
(16.6296 0.000435843 0)
(16.6148 0.000379318 0)
(16.6019 0.000327588 0)
(16.5905 0.000280122 0)
(16.5807 0.000236452 0)
(16.5723 0.00019618 0)
(16.5651 0.00015896 0)
(16.5592 0.000124503 0)
(16.5543 9.25435e-05 0)
(16.5504 6.28564e-05 0)
(16.5475 3.52245e-05 0)
(16.5454 9.46646e-06 0)
(16.5442 -1.45862e-05 0)
(16.5437 -3.70075e-05 0)
(16.5439 -5.79044e-05 0)
(16.5448 -7.73771e-05 0)
(16.5463 -9.55393e-05 0)
(16.5483 -0.000112473 0)
(16.5509 -0.000128254 0)
(16.554 -0.000142947 0)
(16.5576 -0.000156604 0)
(16.5616 -0.00016927 0)
(16.566 -0.000180965 0)
(16.5708 -0.000191697 0)
(16.5759 -0.00020146 0)
(16.5814 -0.000210203 0)
(16.5871 -0.000217881 0)
(16.5931 -0.000224412 0)
(16.5993 -0.0002297 0)
(16.6056 -0.000233652 0)
(16.6122 -0.000236231 0)
(16.6189 -0.000237387 0)
(16.6256 -0.000237078 0)
(16.6324 -0.00023555 0)
(16.6392 -0.000232774 0)
(16.6461 -0.0002293 0)
(16.6529 -0.000225129 0)
(16.6596 -0.000220873 0)
(16.6663 -0.000216797 0)
(16.6729 -0.000213537 0)
(16.6794 -0.000211317 0)
(16.6858 -0.000210562 0)
(16.6922 -0.000211299 0)
(16.6985 -0.000213808 0)
(16.7048 -0.000217891 0)
(16.7111 -0.000223358 0)
(16.7173 -0.000228998 0)
(16.7234 -0.000233436 0)
(16.7295 -0.000118572 0)
(20.0011 0.0528694 0)
(19.9807 0.0295175 0)
(19.8226 0.0248232 0)
(19.5371 0.019951 0)
(19.1896 0.0155661 0)
(18.8549 0.0120995 0)
(18.5647 0.00952307 0)
(18.3221 0.00763897 0)
(18.1205 0.00624631 0)
(17.9523 0.0051943 0)
(17.8107 0.00438085 0)
(17.6905 0.00373795 0)
(17.5873 0.00321978 0)
(17.4983 0.00279489 0)
(17.4207 0.00244122 0)
(17.3529 0.00214297 0)
(17.2933 0.00188857 0)
(17.2407 0.00166939 0)
(17.194 0.00147888 0)
(17.1527 0.00131199 0)
(17.1159 0.00116477 0)
(17.0831 0.00103409 0)
(17.0539 0.000917444 0)
(17.0279 0.000812793 0)
(17.0047 0.000718472 0)
(16.9842 0.000633109 0)
(16.9659 0.00055556 0)
(16.9497 0.000484868 0)
(16.9355 0.000420217 0)
(16.923 0.000360931 0)
(16.9121 0.000306418 0)
(16.9027 0.000256174 0)
(16.8946 0.00020976 0)
(16.8878 0.000166811 0)
(16.8821 0.000126989 0)
(16.8775 9.00125e-05 0)
(16.8739 5.56114e-05 0)
(16.8712 2.3569e-05 0)
(16.8694 -6.35102e-06 0)
(16.8684 -3.42668e-05 0)
(16.8681 -6.02883e-05 0)
(16.8685 -8.45363e-05 0)
(16.8696 -0.000107152 0)
(16.8713 -0.000128239 0)
(16.8735 -0.000147893 0)
(16.8763 -0.000166198 0)
(16.8796 -0.000183218 0)
(16.8833 -0.000199011 0)
(16.8875 -0.000213607 0)
(16.892 -0.000227019 0)
(16.897 -0.000239248 0)
(16.9022 -0.000250239 0)
(16.9078 -0.000259946 0)
(16.9136 -0.000268284 0)
(16.9197 -0.000275148 0)
(16.926 -0.000280436 0)
(16.9324 -0.000284107 0)
(16.939 -0.000286108 0)
(16.9458 -0.000286395 0)
(16.9526 -0.00028523 0)
(16.9594 -0.000282586 0)
(16.9663 -0.000279055 0)
(16.9731 -0.000274648 0)
(16.9799 -0.000270025 0)
(16.9867 -0.00026548 0)
(16.9934 -0.000261699 0)
(17 -0.000258936 0)
(17.0065 -0.000257651 0)
(17.013 -0.000257881 0)
(17.0193 -0.000259927 0)
(17.0256 -0.000263584 0)
(17.0318 -0.000268634 0)
(17.038 -0.0002737 0)
(17.044 -0.000277318 0)
(17.0499 -0.000140422 0)
(20.0187 0.0527445 0)
(20.0354 0.0299682 0)
(19.9582 0.026127 0)
(19.7862 0.0220655 0)
(19.5283 0.0180611 0)
(19.2388 0.0145161 0)
(18.9637 0.0116492 0)
(18.7216 0.00944108 0)
(18.5144 0.00775985 0)
(18.3385 0.00646875 0)
(18.189 0.00546134 0)
(18.0611 0.00466132 0)
(17.951 0.00401502 0)
(17.8557 0.00348461 0)
(17.7726 0.00304311 0)
(17.6999 0.00267097 0)
(17.6358 0.00235379 0)
(17.5792 0.00208078 0)
(17.5291 0.00184373 0)
(17.4845 0.00163628 0)
(17.4448 0.00145347 0)
(17.4094 0.00129135 0)
(17.3779 0.00114679 0)
(17.3497 0.0010172 0)
(17.3246 0.000900514 0)
(17.3023 0.000794993 0)
(17.2824 0.000699205 0)
(17.2647 0.000611948 0)
(17.2491 0.000532203 0)
(17.2353 0.00045912 0)
(17.2232 0.000391959 0)
(17.2127 0.000330092 0)
(17.2036 0.000272969 0)
(17.1959 0.000220132 0)
(17.1894 0.000171164 0)
(17.184 0.00012571 0)
(17.1796 8.34389e-05 0)
(17.1762 4.40911e-05 0)
(17.1738 7.36923e-06 0)
(17.1722 -2.69146e-05 0)
(17.1713 -5.88913e-05 0)
(17.1713 -8.86883e-05 0)
(17.1719 -0.000116479 0)
(17.1731 -0.000142392 0)
(17.1749 -0.000166549 0)
(17.1773 -0.000189051 0)
(17.1803 -0.000209982 0)
(17.1837 -0.000229415 0)
(17.1875 -0.00024739 0)
(17.1918 -0.00026393 0)
(17.1965 -0.000279041 0)
(17.2015 -0.00029267 0)
(17.2069 -0.000304774 0)
(17.2125 -0.000315261 0)
(17.2184 -0.000324024 0)
(17.2246 -0.000330952 0)
(17.2309 -0.000336001 0)
(17.2374 -0.000339115 0)
(17.2441 -0.000340244 0)
(17.2508 -0.000339665 0)
(17.2576 -0.00033735 0)
(17.2645 -0.000333925 0)
(17.2713 -0.000329407 0)
(17.2781 -0.000324498 0)
(17.2849 -0.000319512 0)
(17.2917 -0.000315184 0)
(17.2983 -0.00031179 0)
(17.3049 -0.000309827 0)
(17.3114 -0.000309343 0)
(17.3178 -0.000310662 0)
(17.3241 -0.000313584 0)
(17.3302 -0.000317867 0)
(17.3363 -0.00032197 0)
(17.3422 -0.000324355 0)
(17.3479 -0.000163766 0)
(20.0306 0.0523702 0)
(20.0698 0.03007 0)
(20.0406 0.0268629 0)
(19.9512 0.0235191 0)
(19.7855 0.0201272 0)
(19.5621 0.0168135 0)
(19.3211 0.0138542 0)
(19.0917 0.0114083 0)
(18.8862 0.0094621 0)
(18.7068 0.00792766 0)
(18.5516 0.00671164 0)
(18.4174 0.00573709 0)
(18.3011 0.00494558 0)
(18.1999 0.00429407 0)
(18.1114 0.00375094 0)
(18.0336 0.00329287 0)
(17.9651 0.00290244 0)
(17.9044 0.00256648 0)
(17.8506 0.00227493 0)
(17.8027 0.00201996 0)
(17.76 0.00179544 0)
(17.7219 0.00159649 0)
(17.6879 0.00141922 0)
(17.6574 0.00126045 0)
(17.6302 0.00111758 0)
(17.6059 0.000988481 0)
(17.5843 0.000871373 0)
(17.565 0.000764766 0)
(17.5479 0.0006674 0)
(17.5327 0.00057822 0)
(17.5194 0.000496313 0)
(17.5077 0.0004209 0)
(17.4975 0.000351305 0)
(17.4887 0.000286959 0)
(17.4813 0.000227348 0)
(17.475 0.000172035 0)
(17.4698 0.000120616 0)
(17.4657 7.27732e-05 0)
(17.4625 2.81598e-05 0)
(17.4603 -1.35002e-05 0)
(17.4588 -5.23914e-05 0)
(17.4581 -8.86366e-05 0)
(17.4582 -0.00012244 0)
(17.459 -0.000153962 0)
(17.4603 -0.000183352 0)
(17.4623 -0.000210735 0)
(17.4648 -0.000236214 0)
(17.4679 -0.000259881 0)
(17.4714 -0.000281791 0)
(17.4753 -0.000301977 0)
(17.4797 -0.000320456 0)
(17.4844 -0.000337178 0)
(17.4895 -0.000352103 0)
(17.495 -0.00036514 0)
(17.5007 -0.000376177 0)
(17.5066 -0.000385099 0)
(17.5128 -0.000391859 0)
(17.5191 -0.000396395 0)
(17.5257 -0.000398654 0)
(17.5323 -0.000398924 0)
(17.539 -0.000397167 0)
(17.5458 -0.000394043 0)
(17.5527 -0.000389565 0)
(17.5595 -0.000384469 0)
(17.5663 -0.000379089 0)
(17.573 -0.000374194 0)
(17.5797 -0.000370089 0)
(17.5863 -0.000367298 0)
(17.5927 -0.00036589 0)
(17.5991 -0.000366213 0)
(17.6053 -0.00036808 0)
(17.6114 -0.000371235 0)
(17.6174 -0.000373977 0)
(17.6231 -0.000374701 0)
(17.6287 -0.000188681 0)
(20.039 0.0517789 0)
(20.0926 0.0299213 0)
(20.092 0.027188 0)
(20.0552 0.0243789 0)
(19.9649 0.0216134 0)
(19.8158 0.0187666 0)
(19.6268 0.0159671 0)
(19.4257 0.0134437 0)
(19.2323 0.0113079 0)
(19.0559 0.00955549 0)
(18.899 0.0081319 0)
(18.761 0.00697327 0)
(18.6398 0.00602317 0)
(18.5336 0.00523641 0)
(18.4401 0.0045781 0)
(18.3576 0.00402166 0)
(18.2847 0.0035468 0)
(18.22 0.00313796 0)
(18.1624 0.00278311 0)
(18.1111 0.00247283 0)
(18.0653 0.00219969 0)
(18.0243 0.00195779 0)
(17.9877 0.00174234 0)
(17.9548 0.00154949 0)
(17.9254 0.00137606 0)
(17.8991 0.00121944 0)
(17.8755 0.00107746 0)
(17.8545 0.000948275 0)
(17.8358 0.00083036 0)
(17.8192 0.000722416 0)
(17.8044 0.000623326 0)
(17.7915 0.000532137 0)
(17.7801 0.000448021 0)
(17.7702 0.000370282 0)
(17.7617 0.000298291 0)
(17.7545 0.000231514 0)
(17.7484 0.000169461 0)
(17.7435 0.000111741 0)
(17.7395 5.79572e-05 0)
(17.7365 7.75054e-06 0)
(17.7344 -3.91541e-05 0)
(17.733 -8.28936e-05 0)
(17.7325 -0.000123685 0)
(17.7327 -0.000161726 0)
(17.7335 -0.000197199 0)
(17.735 -0.000230255 0)
(17.7371 -0.000261024 0)
(17.7397 -0.000289618 0)
(17.7428 -0.00031611 0)
(17.7464 -0.000340546 0)
(17.7504 -0.000362957 0)
(17.7548 -0.000383299 0)
(17.7596 -0.000401539 0)
(17.7648 -0.00041759 0)
(17.7702 -0.000431337 0)
(17.7759 -0.000442663 0)
(17.7819 -0.000451519 0)
(17.788 -0.000457839 0)
(17.7944 -0.000461563 0)
(17.8009 -0.000462986 0)
(17.8075 -0.00046206 0)
(17.8142 -0.000459466 0)
(17.821 -0.000455211 0)
(17.8277 -0.000450058 0)
(17.8345 -0.00044435 0)
(17.8412 -0.00043889 0)
(17.8478 -0.000434002 0)
(17.8543 -0.000430243 0)
(17.8608 -0.000427701 0)
(17.8671 -0.000426755 0)
(17.8732 -0.000427241 0)
(17.8792 -0.000428898 0)
(17.885 -0.000429874 0)
(17.8906 -0.000428495 0)
(17.896 -0.000215237 0)
(20.0449 0.0509937 0)
(20.1082 0.029581 0)
(20.1254 0.0272183 0)
(20.1206 0.0247808 0)
(20.0821 0.0225188 0)
(19.9986 0.0202042 0)
(19.8707 0.0177773 0)
(19.7131 0.0153876 0)
(19.5451 0.0132012 0)
(19.3812 0.0113027 0)
(19.2289 0.00970101 0)
(19.0909 0.00836499 0)
(18.9675 0.00725183 0)
(18.8578 0.00632036 0)
(18.7603 0.00553561 0)
(18.6738 0.00486927 0)
(18.5968 0.00429896 0)
(18.5283 0.00380701 0)
(18.4671 0.00337952 0)
(18.4124 0.00300549 0)
(18.3634 0.00267615 0)
(18.3195 0.00238445 0)
(18.2801 0.0021247 0)
(18.2448 0.00189225 0)
(18.2131 0.00168328 0)
(18.1846 0.00149464 0)
(18.1591 0.0013237 0)
(18.1362 0.00116824 0)
(18.1158 0.00102641 0)
(18.0975 0.000896622 0)
(18.0813 0.000777535 0)
(18.067 0.000667989 0)
(18.0543 0.000566982 0)
(18.0433 0.000473666 0)
(18.0336 0.00038728 0)
(18.0254 0.000307177 0)
(18.0183 0.000232764 0)
(18.0124 0.000163568 0)
(18.0076 9.91195e-05 0)
(18.0038 3.90013e-05 0)
(18.0009 -1.71807e-05 0)
(17.9989 -6.9622e-05 0)
(17.9977 -0.000118534 0)
(17.9972 -0.000164153 0)
(17.9975 -0.000206697 0)
(17.9984 -0.000246351 0)
(18 -0.000283271 0)
(18.0021 -0.000317597 0)
(18.0047 -0.000349423 0)
(18.0079 -0.000378812 0)
(18.0115 -0.000405811 0)
(18.0156 -0.000430386 0)
(18.02 -0.000452516 0)
(18.0248 -0.000472118 0)
(18.0299 -0.000489081 0)
(18.0354 -0.000503286 0)
(18.0411 -0.000514685 0)
(18.047 -0.000523206 0)
(18.0531 -0.000528784 0)
(18.0594 -0.000531715 0)
(18.0659 -0.000531937 0)
(18.0724 -0.000530147 0)
(18.079 -0.000526338 0)
(18.0857 -0.000521293 0)
(18.0923 -0.000515354 0)
(18.099 -0.000509354 0)
(18.1055 -0.000503632 0)
(18.112 -0.000498778 0)
(18.1183 -0.0004949 0)
(18.1245 -0.000492414 0)
(18.1306 -0.000491192 0)
(18.1365 -0.000490978 0)
(18.1421 -0.000489775 0)
(18.1476 -0.000485838 0)
(18.1528 -0.000243485 0)
(20.0492 0.0500256 0)
(20.1193 0.0290806 0)
(20.1481 0.0270286 0)
(20.1628 0.0248477 0)
(20.1569 0.0229464 0)
(20.1211 0.0210868 0)
(20.0495 0.0191112 0)
(19.9437 0.0170398 0)
(19.8141 0.0149855 0)
(19.6744 0.0130688 0)
(19.5354 0.0113618 0)
(19.4037 0.00988347 0)
(19.2821 0.00862018 0)
(19.1717 0.0075449 0)
(19.0721 0.00662841 0)
(18.9827 0.00584401 0)
(18.9025 0.00516892 0)
(18.8306 0.00458437 0)
(18.7661 0.00407509 0)
(18.7082 0.00362869 0)
(18.6562 0.00323516 0)
(18.6094 0.00288635 0)
(18.5673 0.0025756 0)
(18.5295 0.00229746 0)
(18.4954 0.00204741 0)
(18.4647 0.0018217 0)
(18.4371 0.00161719 0)
(18.4123 0.00143126 0)
(18.39 0.00126167 0)
(18.3701 0.00110653 0)
(18.3524 0.000964219 0)
(18.3365 0.000833354 0)
(18.3225 0.000712727 0)
(18.3102 0.000601317 0)
(18.2993 0.000498212 0)
(18.2899 0.00040263 0)
(18.2818 0.000313863 0)
(18.2749 0.000231338 0)
(18.2692 0.000154499 0)
(18.2645 8.28677e-05 0)
(18.2608 1.59468e-05 0)
(18.2579 -4.65709e-05 0)
(18.256 -0.000104921 0)
(18.2549 -0.000159346 0)
(18.2545 -0.000210109 0)
(18.2548 -0.000257434 0)
(18.2557 -0.000301508 0)
(18.2573 -0.000342502 0)
(18.2595 -0.000380536 0)
(18.2621 -0.000415694 0)
(18.2653 -0.000448043 0)
(18.2689 -0.000477563 0)
(18.2729 -0.000504247 0)
(18.2773 -0.000528024 0)
(18.2821 -0.000548788 0)
(18.2872 -0.000566421 0)
(18.2926 -0.000580877 0)
(18.2982 -0.000592082 0)
(18.3041 -0.000599962 0)
(18.3102 -0.000604815 0)
(18.3164 -0.000606558 0)
(18.3227 -0.000605896 0)
(18.3292 -0.000602803 0)
(18.3356 -0.000598072 0)
(18.3421 -0.00059204 0)
(18.3486 -0.000585559 0)
(18.3551 -0.000578981 0)
(18.3614 -0.000572926 0)
(18.3676 -0.000567529 0)
(18.3737 -0.000563245 0)
(18.3796 -0.000559993 0)
(18.3854 -0.000557534 0)
(18.3909 -0.000553739 0)
(18.3962 -0.000546777 0)
(18.4012 -0.000273453 0)
(20.0522 0.0488783 0)
(20.1272 0.0284366 0)
(20.164 0.0266625 0)
(20.1912 0.0246654 0)
(20.2052 0.0230151 0)
(20.2004 0.0214911 0)
(20.1713 0.0199148 0)
(20.1139 0.0182338 0)
(20.0293 0.0164681 0)
(19.9247 0.0146947 0)
(19.8096 0.0130044 0)
(19.6925 0.0114605 0)
(19.579 0.0100893 0)
(19.4722 0.00889024 0)
(19.3736 0.00784889 0)
(19.2834 0.00694579 0)
(19.2015 0.00616125 0)
(19.1273 0.00547736 0)
(19.0602 0.00487863 0)
(18.9996 0.004352 0)
(18.9448 0.00388657 0)
(18.8953 0.00347327 0)
(18.8507 0.00310459 0)
(18.8103 0.00277431 0)
(18.7739 0.0024772 0)
(18.7409 0.00220891 0)
(18.7112 0.00196577 0)
(18.6845 0.00174469 0)
(18.6604 0.00154304 0)
(18.6387 0.00135859 0)
(18.6193 0.00118941 0)
(18.6019 0.00103386 0)
(18.5865 0.000890508 0)
(18.5727 0.00075813 0)
(18.5606 0.000635643 0)
(18.55 0.000522114 0)
(18.5407 0.000416701 0)
(18.5328 0.000318714 0)
(18.526 0.000227499 0)
(18.5204 0.000142493 0)
(18.5157 6.31331e-05 0)
(18.5121 -1.10298e-05 0)
(18.5093 -8.03251e-05 0)
(18.5074 -0.000144981 0)
(18.5063 -0.000205291 0)
(18.5059 -0.00026153 0)
(18.5062 -0.000313921 0)
(18.5072 -0.00036267 0)
(18.5088 -0.000407926 0)
(18.5109 -0.000449798 0)
(18.5135 -0.000488381 0)
(18.5166 -0.00052367 0)
(18.5202 -0.000555679 0)
(18.5242 -0.00058435 0)
(18.5286 -0.000609588 0)
(18.5333 -0.00063128 0)
(18.5383 -0.000649386 0)
(18.5436 -0.00066383 0)
(18.5491 -0.00067453 0)
(18.5549 -0.000681781 0)
(18.5608 -0.000685477 0)
(18.5669 -0.000686326 0)
(18.5731 -0.000684274 0)
(18.5793 -0.000680116 0)
(18.5857 -0.000674176 0)
(18.5919 -0.000667318 0)
(18.5982 -0.000659902 0)
(18.6044 -0.000652576 0)
(18.6104 -0.000645503 0)
(18.6164 -0.000639185 0)
(18.6221 -0.000633597 0)
(18.6277 -0.000628532 0)
(18.633 -0.000621736 0)
(18.6381 -0.000611276 0)
(18.6429 -0.000305127 0)
(20.0542 0.0475508 0)
(20.1328 0.0276568 0)
(20.1754 0.0261432 0)
(20.2109 0.0242867 0)
(20.2375 0.0228152 0)
(20.252 0.0215276 0)
(20.2508 0.02025 0)
(20.2303 0.0189168 0)
(20.1875 0.0174951 0)
(20.1228 0.0159937 0)
(20.0406 0.0144639 0)
(19.9476 0.0129732 0)
(19.8502 0.0115763 0)
(19.7535 0.0103042 0)
(19.6605 0.00916629 0)
(19.573 0.00815829 0)
(19.4918 0.00726913 0)
(19.417 0.00648537 0)
(19.3486 0.00579358 0)
(19.2862 0.00518137 0)
(19.2294 0.00463784 0)
(19.1777 0.00415353 0)
(19.1308 0.00372041 0)
(19.0882 0.00333163 0)
(19.0496 0.0029814 0)
(19.0145 0.0026648 0)
(18.9828 0.00237765 0)
(18.954 0.0021164 0)
(18.928 0.00187802 0)
(18.9046 0.0016599 0)
(18.8835 0.00145982 0)
(18.8645 0.00127583 0)
(18.8476 0.00110627 0)
(18.8324 0.000949681 0)
(18.8189 0.000804801 0)
(18.807 0.000670524 0)
(18.7966 0.000545855 0)
(18.7874 0.000429976 0)
(18.7796 0.000322114 0)
(18.7729 0.00022161 0)
(18.7673 0.000127828 0)
(18.7627 4.0215e-05 0)
(18.7591 -4.17184e-05 0)
(18.7564 -0.000118239 0)
(18.7545 -0.000189633 0)
(18.7533 -0.000256222 0)
(18.753 -0.00031827 0)
(18.7532 -0.000376028 0)
(18.7542 -0.000429678 0)
(18.7557 -0.00047936 0)
(18.7577 -0.000525196 0)
(18.7603 -0.000567206 0)
(18.7634 -0.000605426 0)
(18.7668 -0.000639821 0)
(18.7707 -0.000670306 0)
(18.775 -0.000696783 0)
(18.7796 -0.000719217 0)
(18.7844 -0.000737532 0)
(18.7896 -0.000751643 0)
(18.795 -0.00076184 0)
(18.8006 -0.00076799 0)
(18.8064 -0.000770795 0)
(18.8123 -0.000770171 0)
(18.8182 -0.000766906 0)
(18.8243 -0.000761303 0)
(18.8303 -0.000754226 0)
(18.8364 -0.000746041 0)
(18.8423 -0.000737422 0)
(18.8482 -0.000728561 0)
(18.8539 -0.000720009 0)
(18.8594 -0.00071181 0)
(18.8648 -0.000703798 0)
(18.8699 -0.000693612 0)
(18.8747 -0.000679183 0)
(18.8793 -0.000338439 0)
(20.0555 0.046039 0)
(20.1367 0.0267443 0)
(20.1836 0.0254815 0)
(20.2248 0.023741 0)
(20.2598 0.0224039 0)
(20.2863 0.0212858 0)
(20.3028 0.0202192 0)
(20.3068 0.019147 0)
(20.2955 0.0180268 0)
(20.2667 0.0168313 0)
(20.2202 0.0155621 0)
(20.1584 0.0142502 0)
(20.0856 0.0129428 0)
(20.0066 0.0116859 0)
(19.9257 0.0105116 0)
(19.846 0.00943648 0)
(19.7693 0.0084647 0)
(19.697 0.00759249 0)
(19.6294 0.00681222 0)
(19.5668 0.00611472 0)
(19.5091 0.00549069 0)
(19.4562 0.00493141 0)
(19.4076 0.00442896 0)
(19.3633 0.00397637 0)
(19.3228 0.00356754 0)
(19.2858 0.00319718 0)
(19.2522 0.00286071 0)