/*--------------------------------*- C++ -*----------------------------------*\
  =========                 |
  \\      /  F ield         | OpenFOAM: The Open Source CFD Toolbox
   \\    /   O peration     | Website:  https://openfoam.org
    \\  /    A nd           | Version:  7
     \\/     M anipulation  |
\*---------------------------------------------------------------------------*/
FoamFile
{
    version     2.0;
    format      ascii;
    class       volScalarField;
    location    "150";
    object      epsilon;
}
// * * * * * * * * * * * * * * * * * * * * * * * * * * * * * * * * * * * * * //

dimensions      [0 2 -3 0 0 0 0];

internalField   nonuniform List<scalar> 
16900
(
12.0668
59.0964
96.306
135.077
174.791
214.73
254.36
293.245
331.044
367.489
402.381
435.569
466.955
496.473
524.093
549.808
573.634
595.619
615.791
634.236
650.998
666.177
679.833
692.072
702.965
712.61
721.091
728.489
734.887
740.364
744.993
748.843
751.978
754.457
756.335
757.661
758.482
758.84
758.778
758.333
757.548
756.154
754.144
751.516
748.264
744.374
739.824
734.586
728.624
721.896
714.351
705.937
696.592
686.256
674.868
662.371
648.714
633.863
617.799
600.528
582.082
562.526
541.955
520.499
498.308
475.547
452.378
428.969
405.496
382.169
359.309
337.247
316.161
296.867
279.354
268.141
260.581
253.86
247.628
241.767
236.216
230.941
225.917
221.124
216.546
212.167
207.974
203.951
200.087
196.368
192.783
189.32
185.971
182.726
179.577
176.517
173.54
170.641
167.815
165.06
162.373
159.75
157.191
154.695
152.26
149.885
147.571
145.317
143.123
140.989
138.914
136.898
134.942
133.045
131.206
129.426
127.704
126.038
124.43
122.877
121.379
119.936
118.545
117.207
115.921
114.684
113.496
112.356
111.263
110.216
109.213
108.254
107.336
106.46
105.623
104.826
104.066
103.343
102.656
102.005
101.387
100.802
100.251
99.7308
99.2423
98.7844
98.3569
97.959
97.5907
97.2515
96.9413
96.6599
96.4073
96.1834
95.9883
95.8222
95.6852
95.5775
95.4996
95.4515
95.4336
95.4462
95.4896
95.5639
95.6692
95.8056
95.9729
96.1707
96.3987
96.6561
96.9421
97.2555
97.595
97.959
98.3458
98.7533
99.1795
99.6219
100.078
100.546
101.023
101.506
101.993
102.481
102.969
103.454
103.934
104.407
104.872
105.328
105.773
106.207
106.629
107.039
107.437
107.824
108.199
108.565
108.92
109.282
61.3692
72.7927
103.458
130.873
155.381
176.961
195.88
212.415
226.836
239.393
250.31
259.778
267.954
274.98
280.963
286.007
290.193
293.602
296.302
298.355
299.824
300.766
301.241
301.3
301
300.393
299.526
298.449
297.21
295.852
294.418
292.95
291.488
290.068
288.73
287.512
286.452
285.593
284.985
284.683
284.765
284.972
285.199
285.445
285.711
285.994
286.29
286.591
286.881
287.144
287.354
287.48
287.482
287.312
286.914
286.224
285.171
283.684
281.688
279.115
275.906
272.014
267.414
262.102
256.099
249.448
242.196
234.392
226.07
217.264
208.021
198.462
188.767
178.441
168.83
160.868
154.045
147.714
141.749
136.119
130.809
125.809
121.106
116.686
112.533
108.631
104.962
101.512
98.263
95.2006
92.31
89.5776
86.9908
84.5379
82.2081
79.992
77.8806
75.8662
73.9416
72.1007
70.3377
68.6478
67.0266
65.4702
63.9751
62.5383
61.1571
59.8291
58.5521
57.3241
56.1433
55.008
53.9168
52.8681
51.8607
50.8931
49.9642
49.0728
48.2176
47.3975
46.6115
45.8584
45.1371
44.4466
43.7858
43.1539
42.5496
41.9721
41.4205
40.8937
40.391
39.9114
39.454
39.0182
38.603
38.2078
37.8317
37.4742
37.1345
36.8119
36.506
36.2161
35.9416
35.6821
35.437
35.2059
34.9884
34.7841
34.5925
34.4133
34.2463
34.091
33.9472
33.8146
33.693
33.5822
33.4819
33.3921
33.3124
33.2427
33.1829
33.1329
33.0925
33.0617
33.0402
33.028
33.0249
33.0309
33.0458
33.0694
33.1015
33.142
33.1906
33.247
33.311
33.3823
33.4605
33.5453
33.6362
33.7329
33.835
33.9421
34.0537
34.1696
34.2891
34.4121
34.5381
34.6668
34.7979
34.931
35.0659
35.2021
35.3395
35.4777
35.6163
35.7546
35.8916
36.0254
36.1511
36.2663
88.6308
88.0469
116.384
141.178
162.227
179.92
194.828
207.494
218.375
227.834
236.141
243.491
250.022
255.829
260.977
265.516
269.482
272.906
275.814
278.23
280.179
281.684
282.772
283.468
283.8
283.794
283.481
282.891
282.055
281.009
279.785
278.422
276.956
275.427
273.873
272.335
270.852
269.461
268.2
267.103
266.154
265.27
264.462
263.749
263.147
262.67
262.324
262.113
262.03
262.063
262.19
262.381
262.591
262.767
262.842
262.741
262.376
261.658
260.495
258.801
256.497
253.525
249.843
245.436
240.311
234.496
228.026
220.94
213.264
205.042
196.196
186.699
176.258
166.214
157.461
149.731
142.659
136.006
129.699
123.724
118.077
112.757
107.755
103.061
98.6598
94.5361
90.6726
87.052
83.6574
80.4719
77.4798
74.666
72.0165
69.5183
67.1593
64.9286
62.8162
60.8128
58.9104
57.1013
55.3791
53.7375
52.1713
50.6756
49.2459
47.8785
46.5697
45.3164
44.1156
42.9649
41.8617
40.8038
39.7893
38.8162
37.8829
36.9876
36.1288
35.305
34.5149
33.757
33.0303
32.3333
31.665
31.0243
30.41
29.8211
29.2566
28.7155
28.1969
27.6999
27.2237
26.7673
26.33
25.9111
25.5097
25.1253
24.757
24.4042
24.0665
23.743
23.4334
23.1369
22.8533
22.5819
22.3222
22.074
21.8367
21.6099
21.3933
21.1865
20.9891
20.8009
20.6216
20.4508
20.2883
20.1338
19.9871
19.8479
19.7159
19.5911
19.4732
19.3619
19.2572
19.1588
19.0666
18.9804
18.9
18.8253
18.7562
18.6924
18.6339
18.5804
18.5318
18.4879
18.4486
18.4135
18.3826
18.3556
18.3323
18.3126
18.2963
18.2831
18.2728
18.2655
18.2607
18.2586
18.2588
18.2613
18.266
18.2727
18.2814
18.292
18.3043
18.3183
18.3336
18.35
18.3669
18.3834
18.3973
18.4086
116.146
99.4679
125.56
148.899
168.57
185.113
199.218
211.509
222.474
232.46
241.699
250.334
258.44
266.055
273.192
279.849
286.02
291.696
296.869
301.53
305.677
309.305
312.418
315.016
317.107
318.698
319.8
320.427
320.599
320.336
319.665
318.615
317.221
315.52
313.556
311.372
309.017
306.541
303.994
301.425
298.821
296.184
293.553
290.973
288.479
286.105
283.874
281.803
279.896
278.152
276.554
275.074
273.67
272.285
270.851
269.287
267.502
265.4
262.889
259.884
256.311
252.122
247.286
241.799
235.673
228.938
221.621
213.758
205.36
196.469
186.793
176.542
166.862
158.066
150.125
142.836
136.013
129.553
123.417
117.598
112.094
106.901
102.013
97.4201
93.1089
89.065
85.2729
81.7165
78.3797
75.247
72.3033
69.5344
66.9269
64.4682
62.1468
59.9521
57.8743
55.9046
54.0348
52.2577
50.5666
48.9556
47.4192
45.9527
44.5517
43.2121
41.9304
40.7035
39.5282
38.4019
37.3223
36.2869
35.2937
34.3408
33.4263
32.5486
31.706
30.8971
30.1205
29.3747
28.6586
27.9709
27.3104
26.676
26.0666
25.4812
24.9188
24.3785
23.8593
23.3604
22.881
22.4202
21.9772
21.5514
21.1419
20.7482
20.3696
20.0055
19.6553
19.3183
18.9942
18.6823
18.3822
18.0934
17.8154
17.5479
17.2904
17.0426
16.804
16.5744
16.3533
16.1406
15.9357
15.7386
15.5488
15.3662
15.1904
15.0213
14.8586
14.7021
14.5515
14.4068
14.2676
14.1339
14.0055
13.8821
13.7637
13.6501
13.5411
13.4366
13.3364
13.2404
13.1484
13.0603
12.9758
12.8948
12.8172
12.7428
12.6713
12.6027
12.5368
12.4733
12.4123
12.3535
12.2968
12.2422
12.1894
12.1385
12.0894
12.0419
11.996
11.9517
11.9088
11.8672
11.827
11.7877
11.7492
11.711
11.6722
11.6338
141.139
107.279
130.866
153.09
172.078
188.374
202.697
215.68
227.786
239.32
250.46
261.288
271.829
282.066
291.963
301.475
310.555
319.157
327.239
334.763
341.696
348.011
353.683
358.693
363.026
366.668
369.614
371.86
373.408
374.267
374.449
373.976
372.874
371.176
368.922
366.159
362.94
359.324
355.373
351.148
346.653
341.948
337.107
332.199
327.291
322.437
317.685
313.072
308.623
304.348
300.244
296.29
292.447
288.657
284.849
280.94
276.835
272.432
267.643
262.392
256.615
250.288
243.399
235.976
228.048
219.672
210.895
201.74
192.239
182.136
172.102
162.81
154.31
146.561
139.455
132.856
126.652
120.78
115.209
109.927
104.929
100.209
95.7583
91.5677
87.6255
83.919
80.4346
77.1583
74.0763
71.1751
68.4417
65.8635
63.429
61.1273
58.9481
56.8823
54.9214
53.0575
51.2836
49.5933
47.9808
46.4411
44.9692
43.5611
42.2129
40.9212
39.6827
38.4948
37.3548
36.2603
35.2091
34.1993
33.229
32.2964
31.4
30.5381
29.7094
28.9125
28.146
27.4088
26.6997
26.0175
25.3611
24.7295
24.1217
23.5368
22.9738
22.4318
21.9099
21.4074
20.9234
20.4573
20.0082
19.5755
19.1585
18.7565
18.369
17.9954
17.635
17.2874
16.952
16.6284
16.3161
16.0146
15.7235
15.4423
15.1708
14.9084
14.6549
14.4099
14.1731
13.9442
13.7228
13.5087
13.3016
13.1012
12.9073
12.7197
12.5381
12.3623
12.1922
12.0275
11.8681
11.7137
11.5643
11.4197
11.2797
11.1443
11.0131
10.8862
10.7634
10.6446
10.5295
10.418
10.3101
10.2055
10.104
10.0056
9.91
9.81713
9.72682
9.63893
9.55333
9.46988
9.38848
9.30901
9.23138
9.15549
9.08125
9.0086
8.93744
8.86772
8.79935
8.73224
8.6663
8.6014
8.53734
8.47384
8.41066
8.34934
162.4
112.069
132.888
154.062
172.624
188.984
203.855
217.845
231.381
244.724
258.002
271.25
284.442
297.516
310.391
322.98
335.194
346.95
358.172
368.789
378.739
387.966
396.422
404.063
410.853
416.761
421.759
425.829
428.957
431.138
432.373
432.67
432.048
430.534
428.162
424.975
421.029
416.386
411.112
405.266
398.875
392.056
384.913
377.545
370.048
362.505
354.993
347.573
340.292
333.182
326.255
319.503
312.892
306.36
299.832
293.223
286.43
279.341
271.868
263.953
255.534
246.622
237.236
227.454
217.337
207.003
196.486
185.806
175.042
164.967
155.758
147.378
139.753
132.8
126.419
120.511
114.992
109.806
104.917
100.305
95.9557
91.8555
87.993
84.3563
80.9328
77.71
74.675
71.8152
69.118
66.5717
64.1648
61.8867
59.7272
57.6773
55.7283
53.8726
52.1031
50.4134
48.7978
47.2513
45.7692
44.3474
42.9824
41.6707
40.4096
39.1963
38.0286
36.9043
35.8214
34.7782
33.773
32.8044
31.8708
30.9709
30.1035
29.2674
28.4613
27.6843
26.9353
26.2131
25.5169
24.8457
24.1985
23.5745
22.9727
22.3925
21.8328
21.293
20.7722
20.2698
19.785
19.3172
18.8656
18.4297
18.0087
17.6023
17.2096
16.8303
16.4638
16.1096
15.7671
15.436
15.1157
14.806
14.5062
14.2161
13.9353
13.6634
13.4
13.1449
12.8977
12.6581
12.4258
12.2005
11.982
11.77
11.5643
11.3647
11.1708
10.9827
10.7999
10.6225
10.4502
10.2828
10.1203
9.96242
9.80912
9.66025
9.5157
9.37534
9.23903
9.10667
8.9781
8.85321
8.73185
8.61388
8.49914
8.38751
8.27882
8.17294
8.06973
7.96905
7.87076
7.77475
7.6809
7.58909
7.49923
7.41121
7.32494
7.24033
7.1573
7.07577
6.99565
6.91686
6.8393
6.76286
6.68742
6.61279
6.53896
6.46783
179.436
114.416
132.289
152.398
170.598
187.096
202.561
217.568
232.51
247.609
262.954
278.54
294.304
310.141
325.928
341.537
356.841
371.717
386.052
399.742
412.693
424.823
436.057
446.33
455.583
463.765
470.836
476.757
481.504
485.057
487.406
488.551
488.501
487.278
484.91
481.437
476.914
471.405
464.974
457.66
449.532
440.749
431.443
421.739
411.761
401.623
391.429
381.265
371.204
361.299
351.578
342.05
332.686
323.42
314.163
304.824
295.303
285.463
275.211
264.511
253.319
241.675
229.639
217.408
204.981
192.709
180.251
168.729
158.159
148.566
139.908
132.091
125.028
118.63
112.806
107.468
102.542
97.9692
93.7083
89.7278
86.0035
82.5157
79.2468
76.181
73.3031
70.599
68.0549
65.658
63.396
61.2574
59.2314
57.3081
55.4786
53.7345
52.0686
50.474
48.9451
47.4765
46.0638
44.7031
43.3908
42.1241
40.9003
39.7172
38.5729
37.4658
36.3943
35.3571
34.3531
33.3812
32.4404
31.5299
30.6486
29.7959
28.9709
28.1728
27.4008
26.6543
25.9324
25.2345
24.5598
23.9076
23.2771
22.6678
22.0788
21.5096
20.9594
20.4276
19.9135
19.4166
18.9362
18.4717
18.0225
17.5882
17.168
16.7616
16.3684
15.9878
15.6195
15.2629
14.9177
14.5833
14.2594
13.9456
13.6415
13.3466
13.0607
12.7835
12.5145
12.2535
12.0002
11.7542
11.5153
11.2833
11.0578
10.8387
10.6257
10.4186
10.2172
10.0213
9.83072
9.64537
9.46506
9.28965
9.11903
8.95308
8.79168
8.63474
8.48214
8.33379
8.18956
8.04937
7.91308
7.78057
7.65173
7.52641
7.40449
7.28583
7.17028
7.05772
6.94801
6.841
6.73658
6.63461
6.53498
6.43757
6.34228
6.24899
6.15761
6.06803
5.98018
5.89395
5.80927
5.72604
5.64417
5.56356
5.48411
5.4057
5.32843
5.25434
192.175
114.858
129.739
148.722
166.534
183.121
199.087
214.971
231.135
247.774
264.949
282.627
300.71
319.059
337.516
355.914
374.085
391.87
409.119
425.695
441.471
456.338
470.195
482.954
494.537
504.877
513.913
521.599
527.894
532.769
536.204
538.192
538.735
537.849
535.56
531.905
526.938
520.726
513.328
504.749
495.125
484.634
473.428
461.658
449.47
437.006
424.395
411.751
399.165
386.708
374.425
362.337
350.43
338.625
326.811
314.885
302.753
290.263
277.304
263.852
249.947
235.655
221.005
206.546
191.788
178.082
165.339
153.793
143.379
134.024
125.648
118.155
111.449
105.434
100.018
95.1133
90.647
86.5578
82.7976
79.328
76.1185
73.1432
70.3802
67.8099
65.4145
63.1778
61.0844
59.1203
57.2724
55.5287
53.8778
52.3099
50.8158
49.3875
48.0176
46.7002
45.4296
44.2015
43.0119
41.8577
40.7362
39.6453
38.5833
37.5488
36.5408
35.5584
34.601
33.6681
32.7592
31.8741
31.0123
30.1737
29.3579
28.5646
27.7936
27.0446
26.3171
25.6109
24.9256
24.2607
23.6158
22.9905
22.3844
21.7969
21.2276
20.676
20.1416
19.6239
19.1224
18.6365
18.1659
17.7101
17.2684
16.8406
16.426
16.0244
15.6351
15.2578
14.8921
14.5375
14.1937
13.8602
13.5368
13.223
12.9184
12.6228
12.3357
12.057
11.7863
11.5232
11.2675
11.019
10.7773
10.5422
10.3136
10.0911
9.87453
9.66374
9.45853
9.25873
9.06419
8.87476
8.69033
8.51077
8.33598
8.16586
8.00033
7.83929
7.68266
7.53035
7.38227
7.23833
7.09841
6.96243
6.83025
6.70176
6.57683
6.45533
6.33713
6.22209
6.11008
6.00097
5.89462
5.79092
5.68973
5.59093
5.49441
5.40007
5.30779
5.21746
5.129
5.04231
4.95729
4.87386
4.79192
4.71139
4.63218
4.55421
4.47759
4.40441
200.838
113.878
125.83
143.626
160.968
177.529
193.832
210.375
227.498
245.376
264.054
283.478
303.526
324.033
344.807
365.647
386.35
406.722
426.576
445.742
464.065
481.405
497.638
512.656
526.361
538.668
549.505
558.812
566.536
572.639
577.094
579.884
581.01
580.482
578.324
574.573
569.286
562.531
554.36
544.735
533.882
521.977
509.188
495.68
481.619
467.171
452.492
437.715
422.948
408.276
393.751
379.401
365.226
351.144
337.017
322.703
308.107
293.109
277.61
261.485
245.021
228.352
211.167
195.027
179.655
165.541
152.67
141.068
130.685
121.442
113.245
105.984
99.5519
93.8397
88.748
84.1872
80.0801
76.3633
72.9848
69.903
67.0837
64.4986
62.1233
59.9366
57.9193
56.0539
54.3243
52.7154
51.2134
49.8052
48.4791
47.2241
46.0307
44.89
43.7946
42.7378
41.7142
40.719
39.7485
38.7996
37.8701
36.9583
36.0628
35.1828
34.318
33.468
32.6328
31.8125
31.0074
30.2176
29.4435
28.6854
27.9435
27.218
26.5091
25.817
25.1417
24.4832
23.8416
23.2167
22.6084
22.0166
21.4411
20.8816
20.3379
19.8096
19.2965
18.7983
18.3145
17.8449
17.389
16.9465
16.5171
16.1003
15.6958
15.3032
14.9221
14.5522
14.1932
13.8446
13.5061
13.1774
12.8581
12.548
12.2467
11.9539
11.6693
11.3926
11.1235
10.8618
10.6072
10.3595
10.1184
9.88371
9.65518
9.43262
9.21585
9.00469
8.79897
8.59856
8.4033
8.21309
8.02782
7.84739
7.67171
7.50071
7.33432
7.17246
7.01506
6.86206
6.71338
6.56893
6.42863
6.29237
6.16005
6.03156
5.90677
5.78557
5.66781
5.55337
5.44211
5.3339
5.22861
5.12611
5.02626
4.92895
4.83406
4.74147
4.65107
4.56276
4.47642
4.39197
4.30931
4.22835
4.14901
4.07119
3.99483
3.91985
3.8464
3.77647
205.782
111.883
121.062
137.614
154.387
170.78
187.222
204.174
221.957
240.735
260.544
281.32
302.924
325.171
347.843
370.712
393.542
416.107
438.189
459.587
480.117
499.612
517.927
534.932
550.512
564.569
577.014
587.777
596.797
604.024
609.425
612.976
614.671
614.519
612.542
608.78
603.293
596.149
587.355
576.937
565.125
552.104
538.05
523.141
507.557
491.48
475.09
458.539
441.951
425.418
408.993
392.693
376.519
360.402
344.201
327.716
310.769
293.376
275.565
256.85
238.04
219.613
201.673
184.783
169.05
154.642
141.607
129.943
119.598
110.48
102.474
95.4546
89.296
83.8778
79.0907
74.8396
71.044
67.6378
64.5673
61.7893
59.2689
56.9772
54.8899
52.9857
51.2459
49.6534
48.1925
46.8484
45.6071
44.4556
43.3817
42.3742
41.4226
40.5177
39.6512
38.8158
38.0054
37.2147
36.4396
35.6767
34.9235
34.1783
33.4398
32.7073
31.9807
31.2598
30.5451
29.8371
29.1363
28.4434
27.7592
27.0843
26.4195
25.7653
25.1224
24.4912
23.8723
23.2659
22.6723
22.0919
21.5247
20.9708
20.4303
19.9031
19.3893
18.8887
18.4012
17.9265
17.4646
17.0152
16.578
16.1529
15.7395
15.3375
14.9468
14.5669
14.1976
13.8387
13.4898
13.1506
12.8208
12.5002
12.1884
11.8852
11.5903
11.3035
11.0244
10.7529
10.4886
10.2313
9.98081
9.73689
9.49932
9.26789
9.04242
8.82272
8.60862
8.39997
8.19661
7.99844
7.80532
7.61717
7.43388
7.25539
7.08162
6.91252
6.74803
6.5881
6.43266
6.28166
6.13504
5.99273
5.85464
5.72068
5.59076
5.46476
5.34257
5.22406
5.1091
4.99756
4.88931
4.78421
4.68214
4.58294
4.48651
4.3927
4.30141
4.2125
4.12587
4.04141
3.95902
3.87859
3.80003
3.72326
3.6482
3.57476
3.50288
3.43251
3.36377
3.29854
207.442
109.209
115.838
131.113
147.215
163.292
179.674
196.781
214.919
234.25
254.807
276.522
299.248
322.788
346.907
371.352
395.865
420.191
444.085
467.318
489.681
510.984
531.059
549.758
566.95
582.521
596.375
608.426
618.605
626.855
633.131
637.404
639.663
639.91
638.166
634.474
628.904
621.517
612.262
601.269
588.749
574.888
559.87
543.88
527.104
509.734
491.965
473.975
455.899
437.837
419.839
401.89
383.945
365.97
347.887
329.449
310.21
290.527
270.706
250.542
230.637
211.283
192.761
175.361
159.277
144.644
131.514
119.873
109.65
100.732
92.9825
86.2562
80.4098
75.3107
70.8411
66.9005
63.405
60.2868
57.4912
54.9748
52.7029
50.6472
48.7842
47.0943
45.5599
44.1657
42.8971
41.7409
40.6843
39.715
38.8216
37.9931
37.2191
36.4901
35.7975
35.1333
34.4909
33.8644
33.249
32.6407
32.0367
31.4346
30.8329
30.2309
29.628
29.0244
28.4204
27.8166
27.2139
26.613
26.0149
25.4206
24.8311
24.2473
23.6701
23.1001
22.5382
21.985
21.441
20.9067
20.3825
19.8687
19.3656
18.8732
18.3919
17.9215
17.4623
17.014
16.5767
16.1504
15.7347
15.3297
14.9352
14.5509
14.1767
13.8124
13.4577
13.1125
12.7764
12.4494
12.131
11.8211
11.5195
11.2259
10.9401
10.6618
10.3909
10.127
9.87004
9.61972
9.37585
9.13824
8.90669
8.68103
8.46109
8.2467
8.03771
7.83401
7.63545
7.44193
7.25335
7.06964
6.89071
6.71652
6.547
6.38211
6.22181
6.06605
5.9148
5.76801
5.62561
5.48755
5.35375
5.22412
5.09856
4.97697
4.85924
4.74524
4.63484
4.52791
4.42431
4.32391
4.22658
4.13218
4.04057
3.95164
3.86527
3.78132
3.6997
3.62028
3.54298
3.4677
3.39434
3.32282
3.25308
3.18503
3.11862
3.05381
2.9907
2.93104
206.268
106.13
110.479
124.471
139.814
155.441
171.576
188.6
206.807
226.357
247.288
269.534
292.949
317.329
342.43
367.985
393.717
419.351
444.62
469.272
493.074
515.818
537.316
557.402
575.931
592.778
607.831
620.997
632.198
641.365
648.446
653.405
656.219
656.887
655.424
651.875
646.32
638.801
629.254
617.88
604.873
590.418
574.703
557.92
540.26
521.908
503.054
483.915
464.647
445.344
426.054
406.733
387.179
367.463
347.674
327.556
306.891
285.946
264.865
243.793
223.081
203.033
183.97
166.166
149.833
135.097
121.999
110.504
100.515
91.8928
84.4779
78.1052
72.6165
67.8688
63.7376
60.1183
56.9252
54.0896
51.5568
49.2838
47.2365
45.3879
43.7159
42.2021
40.831
39.5888
38.4632
37.4425
36.5158
35.6727
34.9029
34.1967
33.5444
32.937
32.3662
31.824
31.3034
30.7982
30.3031
29.8137
29.3263
28.8383
28.3476
27.8531
27.3539
26.8499
26.3413
25.8286
25.3125
24.7939
24.2738
23.7533
23.2334
22.7153
22.1999
21.6882
21.1811
20.6794
20.1838
19.695
19.2135
18.7398
18.2743
17.8174
17.3694
16.9304
16.5005
16.08
15.6688
15.267
14.8745
14.4914
14.1175
13.7527
13.3969
13.0501
12.7119
12.3823
12.0611
11.7481
11.4432
11.1461
10.8566
10.5746
10.2999
10.0322
9.77133
9.51716
9.26947
9.02809
8.79282
8.5635
8.33996
8.12204
7.9096
7.70249
7.50059
7.30378
7.11196
6.92504
6.74293
6.56558
6.39291
6.22489
6.06148
5.90264
5.74834
5.59855
5.45323
5.31234
5.17582
5.04363
4.91568
4.79189
4.67217
4.55641
4.44449
4.33629
4.23168
4.13054
4.03271
3.93808
3.8465
3.75785
3.67198
3.58879
3.50815
3.42993
3.35404
3.28038
3.20883
3.13932
3.07176
3.00608
2.94221
2.88009
2.81966
2.76091
2.70391
2.65025
202.717
102.89
105.254
117.98
132.502
147.567
163.299
180.034
198.054
217.52
238.477
260.867
284.551
309.327
334.951
361.147
387.631
414.111
440.307
465.948
490.785
514.59
537.161
558.316
577.897
595.765
611.8
625.897
637.969
647.938
655.742
661.334
664.683
665.779
664.63
661.281
655.818
648.237
638.547
626.957
613.649
598.81
582.629
565.303
547.027
527.975
508.275
488.224
468.025
447.736
427.408
407.028
386.485
365.808
344.93
323.736
302.168
280.331
258.364
236.509
215.092
194.462
174.965
156.893
140.458
125.774
112.858
101.644
92.0036
83.7717
76.765
70.801
65.7096
61.3399
57.5633
54.2736
51.3848
48.8286
46.5515
44.5116
42.676
41.0191
39.5201
38.1623
36.9317
35.8162
34.8053
33.8893
33.0593
32.3064
31.6222
30.9986
30.4272
29.9002
29.4099
28.9489
28.5106
28.0887
27.6777
27.273
26.8706
26.4673
26.0608
25.6493
25.2317
24.8074
24.3763
23.9387
23.4952
23.0464
22.5934
22.1371
21.6785
21.2189
20.7591
20.3004
19.8435
19.3895
18.9391
18.4931
18.0522
17.617
17.1879
16.7655
16.3501
15.942
15.5415
15.1487
14.7639
14.387
14.0183
13.6577
13.3052
12.9607
12.6244
12.2959
11.9754
11.6626
11.3574
11.0598
10.7695
10.4865
10.2105
9.94138
9.67904
9.4233
9.17397
8.93091
8.69395
8.46293
8.23771
8.01813
7.80405
7.59533
7.39185
7.19349
7.00013
6.81169
6.62807
6.4492
6.275
6.10544
5.94045
5.78002
5.6241
5.47267
5.3257
5.18317
5.04505
4.91129
4.78185
4.65667
4.53567
4.41877
4.30588
4.19688
4.09167
3.99011
3.89208
3.79744
3.70607
3.61783
3.53258
3.4502
3.37056
3.29355
3.21904
3.14693
3.07711
3.00949
2.94398
2.8805
2.81898
2.75935
2.70155
2.64554
2.59127
2.53873
2.48798
2.44047
197.967
100.041
100.505
111.958
125.608
140.032
155.241
171.525
189.143
208.26
228.928
251.103
274.659
299.403
325.098
351.472
378.238
405.099
431.766
457.958
483.413
507.889
531.169
553.06
573.391
592.011
608.79
623.613
636.383
647.014
655.431
661.578
665.413
666.911
666.074
662.951
657.624
650.026
640.298
628.616
615.156
600.103
583.649
565.994
547.343
527.893
507.826
487.39
466.743
445.974
425.135
404.229
383.205
362.005
340.51
318.636
296.366
273.782
251.06
228.499
206.471
185.375
165.588
147.412
131.048
116.584
104.003
93.2019
84.0201
76.2633
69.7277
64.2164
59.5508
55.5759
52.1619
49.203
46.6149
44.3314
42.3009
40.4834
38.8479
37.3704
36.0316
34.8164
33.7123
32.7087
31.7967
30.9682
30.2158
29.5325
28.9115
28.3462
27.8298
27.3557
26.9174
26.5086
26.1229
25.7549
25.3992
25.0511
24.7067
24.3625
24.0159
23.6647
23.3077
22.9437
22.5725
22.1939
21.8082
21.4161
21.0181
20.6153
20.2085
19.7988
19.3872
18.9747
18.5622
18.1507
17.741
17.334
16.9302
16.5305
16.1354
15.7453
15.3608
14.9822
14.6097
14.2438
13.8845
13.5322
13.1868
12.8485
12.5173
12.1933
11.8764
11.5667
11.2641
10.9685
10.6799
10.3981
10.1231
9.85477
9.59295
9.33753
9.08839
8.84541
8.60843
8.37733
8.15197
7.93222
7.71796
7.50905
7.30537
7.10681
6.91325
6.72461
6.54077
6.36167
6.18723
6.01738
5.85208
5.69127
5.53492
5.38301
5.23551
5.09239
4.95364
4.81923
4.68912
4.56329
4.44167
4.32421
4.21084
4.10145
3.99597
3.89427
3.79624
3.70176
3.61069
3.52292
3.43829
3.3567
3.27801
3.20209
3.12882
3.0581
2.98982
2.92387
2.86016
2.79861
2.73913
2.68166
2.62614
2.57251
2.52072
2.47075
2.42256
2.37613
2.33153
2.29006
192.788
97.9025
96.4756
106.624
119.359
133.082
147.684
163.392
180.444
198.998
219.118
240.774
263.856
288.189
313.547
339.669
366.275
393.07
419.763
446.068
471.716
496.457
520.063
542.331
563.079
582.147
599.396
614.703
627.96
639.073
647.958
654.547
658.787
660.641
660.104
657.225
652.073
644.566
634.942
623.349
609.957
594.95
578.524
560.883
542.241
522.812
502.804
482.424
461.814
441.063
420.21
399.244
378.1
356.666
334.804
312.428
289.544
266.267
242.845
219.648
197.115
175.696
155.789
137.693
121.584
107.511
95.4151
85.1513
76.5241
69.3134
63.2979
58.2705
54.0479
50.4746
47.4224
44.7884
42.4916
40.469
38.672
37.0634
35.6145
34.3031
33.1119
32.0273
31.0381
30.1355
29.3115
28.5597
27.8739
27.2485
26.6781
26.1574
25.681
25.2437
24.8399
24.4645
24.1121
23.7778
23.4568
23.1447
22.8378
22.5326
22.2264
21.9169
21.6026
21.2822
20.955
20.6207
20.2794
19.9313
19.577
19.2171
18.8525
18.4841
18.1127
17.7393
17.3648
16.9901
16.616
16.2433
15.8727
15.5048
15.1404
14.7798
14.4236
14.0722
13.726
13.3852
13.0501
12.7209
12.3978
12.0809
11.7704
11.4662
11.1684
10.877
10.5921
10.3135
10.0413
9.7754
9.51572
9.26217
9.01467
8.77313
8.53744
8.3075
8.0832
7.86442
7.65105
7.44299
7.24012
7.04234
6.84954
6.66162
6.4785
6.30009
6.12631
5.95709
5.79236
5.63208
5.4762
5.32469
5.17751
5.03464
4.89606
4.76175
4.63169
4.50585
4.38419
4.26668
4.15325
4.04385
3.93839
3.83679
3.73894
3.64472
3.55403
3.46674
3.38272
3.30184
3.22399
3.14902
3.07683
3.00729
2.9403
2.87575
2.81354
2.75359
2.69581
2.64013
2.58648
2.53481
2.48506
2.43719
2.39117
2.34698
2.30459
2.264
2.22526
2.18955
187.04
96.3372
93.2175
102.083
113.887
126.869
140.799
155.836
172.187
190.005
209.359
230.236
252.546
276.133
300.792
326.278
352.322
378.64
404.946
430.956
456.398
481.019
504.584
526.884
547.728
566.949
584.4
599.95
613.484
624.9
634.106
641.025
645.592
647.761
647.517
644.909
639.97
632.704
623.347
612.042
598.956
584.275
568.198
550.935
532.701
513.717
494.189
474.296
454.162
433.854
413.378
392.682
371.657
350.152
328.019
305.183
281.69
257.732
233.648
209.896
186.988
165.413
145.579
127.763
112.099
98.5874
87.1161
77.4988
69.5065
62.8967
57.4352
52.9095
49.136
45.9616
43.2628
40.9413
38.9211
37.1435
35.5637
34.1476
32.8695
31.7094
30.6519
29.6852
28.7997
27.9876
27.2425
26.5589
25.9319
25.3568
24.8295
24.3457
23.9011
23.4915
23.1125
22.7599
22.4292
22.1162
21.8167
21.527
21.2435
20.9631
20.6832
20.4014
20.1161
19.826
19.5301
19.228
18.9195
18.6047
18.284
17.9577
17.6266
17.2914
16.9529
16.6118
16.2691
15.9254
15.5817
15.2386
14.8967
14.5569
14.2195
13.8853
13.5546
13.2278
12.9054
12.5876
12.2748
11.9671
11.6648
11.368
11.0768
10.7913
10.5117
10.2378
9.96983
9.70768
9.45136
9.20084
8.95606
8.71699
8.48354
8.25565
8.03323
7.8162
7.60448
7.39796
7.19656
7.00019
6.80875
6.62215
6.44031
6.26314
6.09057
5.92252
5.75892
5.59972
5.44487
5.29432
5.14803
5.00598
4.86813
4.73446
4.60496
4.4796
4.35835
4.24119
4.12808
4.01896
3.91378
3.81246
3.71493
3.62108
3.5308
3.444
3.36054
3.2803
3.20317
3.12901
3.05771
2.98916
2.92322
2.85981
2.79881
2.74015
2.68372
2.62946
2.57729
2.52716
2.479
2.43277
2.38844
2.34597
2.30535
2.26655
2.22957
2.19441
2.16111
2.13073
180.647
95.2204
90.7443
98.4037
109.29
121.512
134.728
149.024
164.572
181.514
199.926
219.809
241.095
263.651
287.297
311.808
336.936
362.411
387.957
413.299
438.169
462.312
485.494
507.5
528.135
547.226
564.62
580.181
593.789
605.334
614.72
621.859
626.68
629.128
629.182
626.89
622.231
615.361
606.45
595.646
583.121
569.059
553.662
537.139
519.703
501.565
482.913
463.897
444.608
425.07
405.24
385.008
364.213
342.675
320.252
296.908
272.765
248.117
223.416
199.216
176.093
154.563
135.017
117.691
102.663
89.87
79.1485
70.2689
62.973
57.0015
52.1127
48.0937
44.7645
41.9782
39.6176
37.5912
35.8289
34.2771
32.8955
31.6539
30.5293
29.5044
28.5661
27.7042
26.9105
26.1788
25.5037
24.8807
24.3057
23.7753
23.2858
22.834
22.4165
22.0298
21.6705
21.335
21.0197
20.7211
20.4356
20.1601
19.8914
19.6267
19.3635
19.0998
18.8339
18.5644
18.2904
18.0113
17.7267
17.4366
17.1412
16.8407
16.5358
16.2269
15.9147
15.6
15.2834
14.9656
14.6474
14.3294
14.0122
13.6965
13.3828
13.0716
12.7634
12.4585
12.1574
11.8604
11.5677
11.2796
10.9963
10.7179
10.4446
10.1765
9.91374
9.65628
9.40418
9.15747
8.91616
8.68022
8.44963
8.22436
8.00435
7.78955
7.57989
7.37531
7.17574
6.9811
6.79131
6.60631
6.426
6.25032
6.07918
5.91253
5.7503
5.59242
5.43883
5.2895
5.14436
5.00339
4.86655
4.73382
4.60517
4.48058
4.36001
4.24346
4.13089
4.02226
3.91753
3.81664
3.71951
3.62608
3.53625
3.44991
3.36697
3.2873
3.21079
3.13731
3.06675
2.99899
2.93391
2.87141
2.81137
2.75372
2.69835
2.64518
2.59415
2.54519
2.49823
2.45323
2.41014
2.36894
2.32959
2.29207
2.25638
2.22251
2.19045
2.16021
2.13183
2.10625
173.597
94.4341
89.0362
95.6264
105.639
117.106
129.586
143.095
157.766
173.727
191.058
209.776
229.834
251.125
273.495
296.747
320.654
344.969
369.43
393.776
417.746
441.092
463.581
484.996
505.141
523.842
540.941
556.298
569.789
581.303
590.736
597.997
603.008
605.706
606.075
604.157
599.903
593.565
585.283
575.206
563.502
550.355
535.961
520.525
504.246
487.312
469.881
452.06
433.89
415.337
396.291
376.58
355.998
334.35
311.526
287.566
262.702
237.36
212.115
187.613
164.477
143.22
124.196
107.575
93.3641
81.4342
71.5667
63.4943
56.9361
51.6222
47.3097
43.7903
40.8915
38.4748
36.4317
34.6787
33.1523
31.805
30.6014
29.5149
28.5261
27.6203
26.7865
26.0161
25.3029
24.6414
24.0276
23.4578
22.9288
22.4378
21.982
21.5587
21.1652
20.7986
20.4562
20.1349
19.832
19.5443
19.2691
19.0034
18.7446
18.4902
18.2382
17.9866
17.7337
17.4785
17.2198
16.9571
16.6899
16.4181
16.1418
15.8612
15.5766
15.2885
14.9974
14.7039
14.4087
14.1123
13.8153
13.5185
13.2223
12.9272
12.6339
12.3427
12.0541
11.7686
11.4863
11.2077
10.933
10.6625
10.3963
10.1346
9.87762
9.62541
9.37806
9.13565
8.89822
8.6658
8.43841
8.21605
7.9987
7.78634
7.57892
7.37642
7.17878
6.98596
6.79787
6.61448
6.43571
6.2615
6.09179
5.9265
5.76559
5.60899
5.45663
5.30849
5.16449
5.02461
4.8888
4.75703
4.62927
4.5055
4.38569
4.26981
4.15785
4.04977
3.94553
3.84509
3.74839
3.65537
3.56594
3.48004
3.39754
3.31835
3.24235
3.16944
3.09948
3.03236
2.96797
2.9062
2.84693
2.79007
2.73553
2.68321
2.63305
2.58497
2.5389
2.4948
2.45261
2.4123
2.37383
2.33719
2.30235
2.2693
2.23803
2.20856
2.18087
2.15498
2.13092
2.10955
165.887
93.8539
88.0474
93.7614
102.983
113.724
125.467
138.164
151.91
166.817
182.966
200.39
219.063
238.906
259.794
281.558
303.999
326.892
350
373.074
395.868
418.143
439.67
460.237
479.65
497.731
514.323
529.286
542.495
553.834
563.201
570.5
575.649
578.584
579.292
577.806
574.094
568.446
560.987
551.862
541.235
529.285
516.197
502.158
487.346
471.913
455.97
439.566
422.675
405.191
386.929
367.658
347.139
325.196
301.786
277.065
251.413
225.403
199.736
175.13
152.224
131.5
113.241
97.536
84.3083
73.3617
64.4278
57.2084
51.4078
46.7533
43.0069
39.969
37.4779
35.4063
33.6555
32.1509
30.8367
29.6714
28.6248
27.6744
26.8039
26.0014
25.2579
24.5668
23.9229
23.3223
22.7616
22.2382
21.7496
21.2934
20.8675
20.4697
20.0978
19.7495
19.4224
19.1141
18.8221
18.5439
18.277
18.0192
17.7679
17.5213
17.2773
17.0343
16.7909
16.5458
16.2983
16.0477
15.7935
15.5356
15.274
15.0088
14.7402
14.4686
14.1945
13.9183