/*--------------------------------*- C++ -*----------------------------------*\
  =========                 |
  \\      /  F ield         | OpenFOAM: The Open Source CFD Toolbox
   \\    /   O peration     | Website:  https://openfoam.org
    \\  /    A nd           | Version:  7
     \\/     M anipulation  |
\*---------------------------------------------------------------------------*/
FoamFile
{
    version     2.0;
    format      ascii;
    class       volScalarField;
    location    "150";
    object      k;
}
// * * * * * * * * * * * * * * * * * * * * * * * * * * * * * * * * * * * * * //

dimensions      [0 2 -2 0 0 0 0];

internalField   nonuniform List<scalar> 
16900
(
0.162644
0.192797
0.266993
0.334624
0.397445
0.455975
0.510562
0.561435
0.60878
0.652763
0.693532
0.731242
0.766041
0.798069
0.827475
0.854398
0.878977
0.901363
0.921664
0.940043
0.956589
0.971459
0.984741
0.996576
1.00705
1.01629
1.02439
1.03143
1.03751
1.0427
1.04709
1.05074
1.05372
1.05609
1.05789
1.05918
1.06
1.06038
1.06038
1.06002
1.05934
1.05816
1.0564
1.05406
1.05114
1.04762
1.04348
1.03868
1.0332
1.02698
1.01998
1.01214
1.00339
0.993652
0.982865
0.970951
0.957839
0.943467
0.927782
0.91075
0.892359
0.872623
0.851584
0.82932
0.805932
0.781543
0.756283
0.730286
0.703697
0.676714
0.649626
0.622708
0.596306
0.571318
0.548629
0.530544
0.520038
0.510792
0.502219
0.494128
0.48643
0.479077
0.472036
0.465286
0.458806
0.452579
0.446589
0.440819
0.435253
0.429875
0.42467
0.419623
0.414721
0.409951
0.405301
0.400762
0.396325
0.391982
0.387727
0.383554
0.379461
0.375443
0.371499
0.367627
0.363826
0.360097
0.356439
0.352853
0.349339
0.345899
0.342534
0.339245
0.336032
0.332897
0.329841
0.326863
0.323966
0.321148
0.318412
0.315755
0.31318
0.310684
0.308269
0.305933
0.303676
0.301496
0.299394
0.297367
0.295416
0.293538
0.291732
0.289998
0.288334
0.286738
0.28521
0.283747
0.282349
0.281014
0.279742
0.27853
0.277377
0.276283
0.275247
0.274266
0.273342
0.272472
0.271656
0.270893
0.270184
0.269526
0.268921
0.268369
0.267868
0.267419
0.267023
0.266679
0.266388
0.266151
0.265968
0.26584
0.265767
0.26575
0.265789
0.265885
0.266039
0.26625
0.266519
0.266845
0.267227
0.267664
0.268156
0.2687
0.269294
0.269934
0.270619
0.271345
0.272107
0.272902
0.273724
0.27457
0.275435
0.276314
0.277202
0.278095
0.278989
0.279878
0.28076
0.281631
0.282488
0.283329
0.28415
0.28495
0.285729
0.286485
0.287219
0.28793
0.28862
0.289291
0.289942
0.290602
0.184612
0.325232
0.433037
0.524786
0.607817
0.683654
0.753538
0.818244
0.878276
0.93397
0.985546
1.03316
1.07692
1.11694
1.1533
1.18612
1.21551
1.24162
1.2646
1.28461
1.30181
1.31642
1.32861
1.3386
1.34661
1.35284
1.35752
1.36087
1.36311
1.36445
1.36511
1.3653
1.36521
1.36503
1.36494
1.36509
1.36563
1.36672
1.36845
1.37096
1.37418
1.37774
1.38173
1.38619
1.39111
1.39649
1.40229
1.40845
1.4149
1.42154
1.42822
1.43479
1.44105
1.44678
1.45172
1.45559
1.45809
1.45891
1.45776
1.45434
1.44841
1.43978
1.4283
1.41394
1.39673
1.37677
1.35419
1.32911
1.30158
1.27165
1.2394
1.20512
1.16944
1.13035
1.0922
1.05751
1.0258
0.995279
0.965745
0.937232
0.909789
0.883443
0.8582
0.834045
0.810951
0.788881
0.767792
0.747636
0.728361
0.709918
0.692256
0.675325
0.659079
0.643473
0.628467
0.614022
0.600104
0.586681
0.573727
0.561215
0.549123
0.537432
0.526124
0.515184
0.504598
0.494354
0.484442
0.474851
0.465573
0.456598
0.447919
0.43953
0.431421
0.423587
0.416021
0.408715
0.401664
0.394859
0.388295
0.381965
0.375862
0.369979
0.36431
0.358848
0.353586
0.348518
0.343638
0.338938
0.334414
0.330058
0.325865
0.321829
0.317945
0.314207
0.31061
0.307148
0.303818
0.300614
0.297532
0.294568
0.291718
0.288978
0.286344
0.283813
0.281382
0.279048
0.276807
0.274658
0.272597
0.270623
0.268733
0.266924
0.265195
0.263544
0.261969
0.260469
0.259041
0.257684
0.256396
0.255175
0.25402
0.25293
0.251902
0.250934
0.250024
0.249171
0.248373
0.247626
0.246928
0.246277
0.24567
0.245104
0.244577
0.244086
0.243627
0.243198
0.242797
0.242421
0.242068
0.241736
0.241422
0.241126
0.240847
0.240583
0.240334
0.240099
0.239879
0.239673
0.239482
0.239305
0.239144
0.238999
0.238869
0.238756
0.238659
0.238576
0.238506
0.238443
0.238368
0.238293
0.235971
0.44339
0.582617
0.701973
0.811479
0.91327
1.00854
1.09806
1.1823
1.26155
1.33594
1.4055
1.47025
1.53017
1.58527
1.63557
1.68113
1.72204
1.7584
1.79035
1.81804
1.84163
1.86133
1.87731
1.88979
1.89899
1.90515
1.9085
1.9093
1.9078
1.90428
1.89901
1.89228
1.88436
1.87553
1.86608
1.85625
1.8463
1.83647
1.82696
1.81766
1.80865
1.80008
1.79208
1.78474
1.77812
1.77226
1.76714
1.76274
1.75897
1.75571
1.7528
1.75004
1.74718
1.74394
1.74
1.735
1.72861
1.72048
1.71031
1.69782
1.68281
1.66516
1.64482
1.62182
1.59625
1.56819
1.53773
1.50486
1.46965
1.43159
1.3904
1.3448
1.29987
1.25975
1.22314
1.18858
1.15515
1.12261
1.09102
1.06044
1.03094
1.00255
0.975289
0.949136
0.924064
0.900033
0.876995
0.854899
0.833692
0.813318
0.793726
0.774862
0.75668
0.739134
0.722183
0.70579
0.68992
0.674544
0.659635
0.645171
0.631131
0.617499
0.604259
0.591397
0.578903
0.566767
0.55498
0.543533
0.532419
0.521632
0.511164
0.501009
0.491162
0.481615
0.472362
0.463397
0.454714
0.446305
0.438164
0.430284
0.422658
0.41528
0.408141
0.401236
0.394557
0.388098
0.381851
0.37581
0.369967
0.364317
0.358853
0.353569
0.348458
0.343514
0.338733
0.334108
0.329634
0.325307
0.32112
0.31707
0.313151
0.30936
0.305693
0.302145
0.298713
0.295393
0.292182
0.289077
0.286075
0.283172
0.280367
0.277656
0.275037
0.272507
0.270064
0.267706
0.265431
0.263236
0.261119
0.259078
0.25711
0.255214
0.253387
0.251626
0.24993
0.248295
0.246718
0.245196
0.243728
0.242308
0.240934
0.239603
0.238311
0.237055
0.235831
0.234637
0.23347
0.232327
0.231205
0.230103
0.229019
0.227951
0.226899
0.225861
0.224839
0.22383
0.222837
0.221858
0.220896
0.21995
0.219021
0.21811
0.217218
0.216345
0.215491
0.214653
0.213827
0.213001
0.212211
0.282651
0.53747
0.702759
0.844474
0.975672
1.09905
1.21576
1.32652
1.43181
1.53184
1.62668
1.71629
1.80056
1.8794
1.95269
2.02038
2.08242
2.13884
2.18966
2.23496
2.27483
2.30937
2.33872
2.36303
2.38244
2.39715
2.40734
2.41321
2.41499
2.41291
2.40725
2.39828
2.38629
2.37161
2.35457
2.3355
2.31475
2.29267
2.26962
2.24593
2.2216
2.1969
2.17212
2.14752
2.12333
2.09971
2.07681
2.05472
2.03346
2.01304
1.99338
1.97436
1.9558
1.93748
1.91912
1.90044
1.88109
1.86076
1.83917
1.81607
1.79127
1.76469
1.73629
1.70613
1.67429
1.64088
1.60595
1.56953
1.53149
1.49186
1.44901
1.40376
1.36059
1.32122
1.28551
1.25236
1.22074
1.19011
1.16028
1.13126
1.10308
1.0758
1.04943
1.02399
0.999466
0.975837
0.953072
0.93113
0.909967
0.889537
0.869792
0.850686
0.832174
0.814215
0.79677
0.779803
0.763285
0.747189
0.73149
0.716171
0.701214
0.686606
0.672337
0.658398
0.644784
0.631487
0.618505
0.605834
0.593472
0.581415
0.569662
0.558209
0.547055
0.536196
0.52563
0.515352
0.505359
0.495646
0.486209
0.477043
0.468142
0.459501
0.451114
0.442975
0.435078
0.427417
0.419984
0.412775
0.405782
0.398999
0.392419
0.386037
0.379847
0.373841
0.368015
0.362363
0.356878
0.351556
0.346392
0.341379
0.336514
0.331792
0.327207
0.322757
0.318436
0.31424
0.310166
0.30621
0.302369
0.298639
0.295017
0.2915
0.288084
0.284768
0.281547
0.278421
0.275385
0.272438
0.269578
0.2668
0.264105
0.261488
0.258948
0.256482
0.254088
0.251763
0.249505
0.247311
0.245177
0.243101
0.24108
0.239111
0.237189
0.235312
0.233476
0.231679
0.229916
0.228185
0.226482
0.224806
0.223153
0.221522
0.219912
0.21832
0.216746
0.215189
0.213649
0.212125
0.210618
0.209127
0.207654
0.206198
0.20476
0.203341
0.20194
0.200558
0.199192
0.197839
0.196494
0.195209
0.321894
0.608719
0.794363
0.95329
1.10111
1.24125
1.37498
1.50312
1.62615
1.74427
1.8575
1.96567
2.06859
2.166
2.25765
2.34333
2.42289
2.4962
2.56317
2.62377
2.67799
2.72585
2.76739
2.80268
2.83179
2.85483
2.87193
2.88321
2.88885
2.88904
2.884
2.87398
2.85925
2.84011
2.81691
2.79
2.75977
2.72663
2.691
2.65329
2.61359
2.57243
2.53025
2.48747
2.44447
2.40157
2.35905
2.31711
2.27591
2.23553
2.19599
2.15723
2.11913
2.08148
2.04404
2.00654
1.96871
1.93024
1.89094
1.85068
1.80939
1.76716
1.72412
1.68052
1.63655
1.59246
1.54838
1.50428
1.46006
1.41443
1.36975
1.32892
1.29219
1.25931
1.22955
1.20203
1.17598
1.15093
1.12666
1.10308
1.08018
1.05794
1.03637
1.01546
0.995184
0.975527
0.956457
0.937938
0.919933
0.902402
0.885305
0.868605
0.852265
0.836252
0.820538
0.805097
0.789909
0.774957
0.760229
0.745716
0.731414
0.71732
0.703434
0.689759
0.676298
0.663057
0.65004
0.637253
0.624702
0.612392
0.600329
0.588516
0.576956
0.565653
0.554609
0.543824
0.533298
0.523032
0.513023
0.50327
0.49377
0.484519
0.475515
0.466753
0.458228
0.449936
0.441871
0.434028
0.426402
0.418988
0.411779
0.40477
0.397956
0.39133
0.384888
0.378624
0.372533
0.366609
0.360847
0.355243
0.349791
0.344487
0.339326
0.334305
0.329417
0.324661
0.320031
0.315524
0.311135
0.306863
0.302703
0.298651
0.294706
0.290863
0.28712
0.283474
0.279922
0.276462
0.273092
0.269808
0.266609
0.263493
0.260456
0.257497
0.254613
0.251803
0.249063
0.246392
0.243786
0.241244
0.238761
0.236335
0.233964
0.231643
0.22937
0.227142
0.224955
0.222806
0.220693
0.218613
0.216563
0.214542
0.212546
0.210576
0.208628
0.206703
0.2048
0.202917
0.201054
0.199212
0.19739
0.195587
0.193805
0.192042
0.190299
0.188575
0.186868
0.185177
0.183501
0.181903
0.353449
0.659646
0.859975
1.03139
1.19143
1.34414
1.49113
1.63334
1.77132
1.90527
2.03511
2.16059
2.28132
2.39688
2.50685
2.61083
2.70847
2.79948
2.88364
2.96074
3.03067
3.09332
3.14863
3.19657
3.23712
3.27032
3.29621
3.31485
3.32636
3.33087
3.32853
3.31956
3.3042
3.28272
3.25545
3.22272
3.18495
3.14255
3.09597
3.04561
2.99168
2.93495
2.87603
2.8155
2.75387
2.69163
2.62919
2.56691
2.50507
2.44387
2.38343
2.3238
2.26489
2.20653
2.1485
2.09057
2.0325
1.974
1.91495
1.85537
1.79532
1.73508
1.67501
1.61564
1.55733
1.50066
1.4457
1.39238
1.34087
1.29408
1.25275
1.21652
1.18486
1.15711
1.1325
1.11027
1.08974
1.07044
1.05207
1.03446
1.01749
1.00108
0.98519
0.96977
0.954779
0.940176
0.925918
0.911963
0.898267
0.884787
0.871483
0.858316
0.845254
0.832266
0.819329
0.806423
0.793535
0.780659
0.76779
0.754932
0.742091
0.729276
0.716499
0.703775
0.69112
0.67855
0.666082
0.653733
0.641518
0.629453
0.617551
0.605826
0.594288
0.582947
0.571812
0.560889
0.550185
0.539703
0.529447
0.519418
0.509617
0.500045
0.4907
0.481581
0.472685
0.46401
0.455553
0.447309
0.439275
0.431447
0.423819
0.416389
0.409149
0.402097
0.395227
0.388534
0.382014
0.375661
0.369471
0.36344
0.357562
0.351833
0.346249
0.340806
0.335499
0.330325
0.325278
0.320357
0.315556
0.310873
0.306304
0.301845
0.297494
0.293247
0.289101
0.285054
0.281102
0.277245
0.273478
0.269799
0.266207
0.2627
0.259274
0.255929
0.252662
0.249472
0.246356
0.243312
0.240339
0.237433
0.234593
0.231816
0.229099
0.22644
0.223835
0.221282
0.218778
0.21632
0.213905
0.211531
0.209195
0.206895
0.204629
0.202395
0.20019
0.198015
0.195868
0.193747
0.191651
0.189581
0.187535
0.185513
0.183515
0.181539
0.179586
0.177655
0.175743
0.173851
0.17198
0.170202
0.377723
0.693078
0.902861
1.08273
1.25126
1.41311
1.57021
1.72369
1.87415
2.02179
2.16646
2.30774
2.44511
2.57792
2.70555
2.82739
2.94288
3.05154
3.15296
3.24679
3.33275
3.41062
3.48022
3.54141
3.59411
3.63825
3.67381
3.70078
3.71922
3.72921
3.73085
3.72431
3.7098
3.68757
3.65791
3.62115
3.57769
3.52797
3.47241
3.41129
3.34505
3.27464
3.2008
3.12424
3.04561
2.96552
2.88455
2.80316
2.72178
2.64071
2.56019
2.48036
2.40121
2.32258
2.24425
2.16601
2.0877
2.00902
1.92989
1.85051
1.77112
1.69221
1.61434
1.5387
1.46533
1.39596
1.32892
1.26914
1.21643
1.17062
1.13124
1.09756
1.06883
1.04428
1.02316
1.00474
0.988377
0.973585
0.959998
0.947356
0.935474
0.924215
0.913476
0.903169
0.893219
0.883558
0.87412
0.864841
0.85566
0.846518
0.837363
0.828143
0.818815
0.809343
0.799699
0.789859
0.779813
0.769554
0.759084
0.748411
0.73755
0.726519
0.715341
0.704042
0.692647
0.681186
0.669685
0.658174
0.646678
0.635224
0.623834
0.612532
0.601335
0.590263
0.579331
0.568553
0.55794
0.547502
0.537247
0.527182
0.517311
0.507639
0.498167
0.488898
0.479831
0.470967
0.462304
0.45384
0.445573
0.437501
0.429621
0.421929
0.414421
0.407094
0.399943
0.392966
0.386157
0.379512
0.373028
0.3667
0.360523
0.354494
0.348609
0.342864
0.337254
0.331775
0.326425
0.321199
0.316094
0.311106
0.306231
0.301467
0.296811
0.292259
0.287808
0.283456
0.2792
0.275038
0.270967
0.266986
0.263092
0.259284
0.25556
0.251918
0.248356
0.244874
0.24147
0.238142
0.234888
0.231707
0.228597
0.225556
0.222582
0.219671
0.216823
0.214034
0.211301
0.208622
0.205995
0.203416
0.200884
0.198395
0.195948
0.193541
0.191172
0.188838
0.186539
0.184273
0.182039
0.179835
0.177661
0.175516
0.173399
0.171309
0.169245
0.167207
0.165193
0.163202
0.161238
0.159379
0.395352
0.711947
0.926738
1.11158
1.28553
1.45363
1.61813
1.78035
1.94095
2.10011
2.25761
2.41293
2.56531
2.71394
2.85797
2.99655
3.12893
3.25442
3.3724
3.48236
3.58388
3.67658
3.76019
3.83447
3.89924
3.95436
3.99973
4.03531
4.06108
4.07707
4.08336
4.08006
4.06737
4.04549
4.01471
3.97534
3.92778
3.87246
3.80978
3.73983
3.6634
3.58152
3.49502
3.4047
3.31132
3.21562
3.11828
3.0199
2.92098
2.82194
2.7231
2.62467
2.52677
2.42925
2.33183
2.23431
2.13662
2.03856
1.94003
1.84131
1.74322
1.6464
1.55121
1.46072
1.37244
1.29311
1.22196
1.15986
1.10623
1.06038
1.02156
0.988922
0.961625
0.938837
0.919766
0.903683
0.889962
0.878091
0.867677
0.858421
0.850098
0.842539
0.835606
0.829188
0.823186
0.817509
0.812068
0.806778
0.801554
0.796317
0.790989
0.785498
0.77978
0.773781
0.767456
0.76077
0.753699
0.746232
0.738366
0.730109
0.721476
0.71249
0.703178
0.693574
0.683712
0.67363
0.663365
0.652955
0.642436
0.631844
0.621212
0.61057
0.599946
0.589367
0.578855
0.56843
0.558112
0.547914
0.537852
0.527935
0.518173
0.508575
0.499145
0.489889
0.48081
0.47191
0.463191
0.454653
0.446296
0.438118
0.430119
0.422297
0.414648
0.407171
0.399862
0.392719
0.385738
0.378915
0.372248
0.365732
0.359363
0.353139
0.347055
0.341107
0.335293
0.329608
0.324049
0.318612
0.313294
0.308092
0.303002
0.298021
0.293147
0.288375
0.283705
0.279132
0.274655
0.270272
0.26598
0.261777
0.257662
0.253634
0.249691
0.245832
0.242056
0.238361
0.234748
0.231214
0.227759
0.224381
0.22108
0.217853
0.2147
0.211617
0.208602
0.205655
0.202771
0.199949
0.197186
0.19448
0.191828
0.189228
0.186677
0.184173
0.181714
0.179298
0.176924
0.174589
0.172292
0.170031
0.167806
0.165615
0.163456
0.161329
0.159233
0.157167
0.15513
0.153121
0.151146
0.149281
0.407092
0.719082
0.935244
1.12219
1.29895
1.47081
1.64032
1.80892
1.97737
2.14583
2.31402
2.48128
2.64671
2.80929
2.96796
3.12166
3.26941
3.41031
3.54357
3.6685
3.78452
3.89112
3.98793
4.07459
4.15086
4.21652
4.27141
4.31543
4.34852
4.37066
4.38188
4.38228
4.37201
4.35127
4.32031
4.27945
4.22907
4.16963
4.10148
4.02444
3.93981
3.84861
3.7517
3.64994
3.54417
3.43522
3.32387
3.21082
3.09664
2.98182
2.86671
2.75159
2.63667
2.52187
2.40689
2.2914
2.17537
2.05898
1.94229
1.82506
1.70952
1.59671
1.48504
1.38309
1.28912
1.20539
1.13166
1.06776
1.01311
0.966924
0.928311
0.896316
0.86998
0.84838
0.830666
0.816084
0.803994
0.793881
0.785343
0.778076
0.771852
0.766498
0.761882
0.757891
0.754428
0.7514
0.748711
0.746267
0.74397
0.74172
0.739418
0.736969
0.734284
0.731283
0.727896
0.724068
0.719755
0.714929
0.709574
0.703687
0.697279
0.690369
0.682983
0.675157
0.666928
0.65834
0.649437
0.640262
0.63086
0.621274
0.611545
0.601712
0.591809
0.58187
0.571924
0.561999
0.552118
0.542303
0.532571
0.522939
0.51342
0.504027
0.494768
0.485651
0.476684
0.46787
0.459214
0.450718
0.442384
0.434212
0.426204
0.418358
0.410674
0.40315
0.395784
0.388574
0.381518
0.374613
0.367856
0.361244
0.354775
0.348444
0.342249
0.336186
0.330253
0.324445
0.31876
0.313194
0.307744
0.302408
0.297181
0.292062
0.287047
0.282134
0.277319
0.272602
0.267979
0.263449
0.25901
0.254661
0.250399
0.246225
0.242137
0.238134
0.234216
0.230383
0.226633
0.222967
0.219383
0.215881
0.212461
0.209121
0.205859
0.202674
0.199565
0.196529
0.193564
0.190668
0.187838
0.185073
0.182368
0.179723
0.177134
0.174599
0.172116
0.169682
0.167296
0.164956
0.16266
0.160405
0.158191
0.156017
0.15388
0.15178
0.149716
0.147686
0.145691
0.143729
0.141807
0.139999
0.413688
0.717028
0.931773
1.11848
1.29584
1.46932
1.64167
1.81446
1.98852
2.16402
2.34062
2.51756
2.6938
2.86815
3.03935
3.20614
3.36733
3.52184
3.66869
3.80701
3.93609
4.05529
4.16412
4.26215
4.34904
4.42451
4.48834
4.54039
4.58054
4.60873
4.62497
4.62931
4.62186
4.60281
4.5724
4.53093
4.4788
4.41644
4.34399
4.26158
4.17056
4.07196
3.96669
3.85563
3.73966
3.61965
3.4965
3.37097
3.24371
3.11524
2.98591
2.85596
2.72561
2.595
2.46393
2.33187
2.19839
2.06461
1.93142
1.79663
1.66524
1.54033
1.42235
1.31426
1.2165
1.12977
1.05404
0.98896
0.933867
0.887861
0.849906
0.818904
0.793767
0.77347
0.757088
0.743824
0.733017
0.724141
0.716799
0.710694
0.705616
0.701412
0.697972
0.695211
0.693053
0.691427
0.690256
0.689453
0.688926
0.688571
0.688281
0.687945
0.687454
0.686705
0.685604
0.684068
0.682032
0.679443
0.676266
0.672482
0.668087
0.66309
0.65751
0.651379
0.644733
0.637615
0.63007
0.622148
0.613895
0.605361
0.596592
0.587632
0.578521
0.5693
0.560003
0.550663
0.541308
0.531964
0.522655
0.5134
0.504217
0.495121
0.486126
0.477241
0.468477
0.459841
0.451338
0.442973
0.434751
0.426674
0.418743
0.41096
0.403325
0.395838
0.388497
0.381303
0.374252
0.367344
0.360576
0.353947
0.347452
0.341091
0.33486
0.328756
0.322777
0.316919
0.31118
0.305557
0.300046
0.294646
0.289353
0.284164
0.279078
0.274092
0.269203
0.264409
0.259709
0.255101
0.250583
0.246154
0.241814
0.237561
0.233396
0.229317
0.225326
0.22142
0.217602
0.21387
0.210224
0.206665
0.203192
0.199803
0.196499
0.193277
0.190136
0.187075
0.184091
0.181183
0.178347
0.175581
0.172883
0.170251
0.167681
0.165171
0.162719
0.160322
0.157979
0.155686
0.153443
0.151247
0.149097
0.146991
0.144928
0.142907
0.140927
0.138987
0.137086
0.135225
0.13341
0.131709
0.415848
0.708008
0.919304
1.10392
1.28008
1.45334
1.62659
1.80154
1.97905
2.15933
2.34201
2.52624
2.71089
2.89461
3.07598
3.25357
3.42601
3.59202
3.75047
3.90035
4.04078
4.17103
4.29048
4.39862
4.49505
4.5794
4.65144
4.71093
4.75773
4.79175
4.81294
4.82131
4.81694
4.79999
4.77068
4.72931
4.67629
4.61202
4.53634
4.44993
4.35404
4.24971
4.13785
4.01936
3.89513
3.76602
3.63298
3.49688
3.35845
3.21821
3.07652
2.93346
2.78903
2.64369
2.49778
2.35064
2.2004
2.05016
1.90265
1.75728
1.6176
1.48553
1.36263
1.25041
1.14975
1.06109
0.984365
0.919123
0.864552
0.819597
0.783061
0.753696
0.730283
0.711696
0.696935
0.685158
0.67568
0.667967
0.661625
0.656371
0.652015
0.648429
0.645535
0.643281
0.641625
0.640529
0.639948
0.639825
0.640087
0.640647
0.641406
0.642253
0.643073
0.643751
0.644173
0.644239
0.643857
0.642954
0.641472
0.639371
0.636629
0.63324
0.629212
0.624565
0.619329
0.613544
0.607252
0.600501
0.59334
0.58582
0.577989
0.569895
0.561583
0.553095
0.544471
0.535748
0.526957
0.51813
0.509291
0.500466
0.491674
0.482935
0.474263
0.465672
0.457174
0.448779
0.440494
0.432327
0.424283
0.416365
0.408578
0.400924
0.393404
0.386019
0.37877
0.371655
0.364675
0.357829
0.351115
0.344531
0.338076
0.331748
0.325543
0.319461
0.313498
0.307653
0.301921
0.296302
0.290792
0.285389
0.280091
0.274895
0.269798
0.264799
0.259896
0.255087
0.250371
0.245746
0.24121
0.236764
0.232406
0.228137
0.223956
0.219863
0.215858
0.211943
0.208116
0.20438
0.200733
0.197176
0.193709
0.190332
0.187043
0.183841
0.180726
0.177696
0.174748
0.17188
0.169091
0.166377
0.163736
0.161166
0.158663
0.156226
0.153851
0.151537
0.14928
0.14708
0.144933
0.142839
0.140795
0.1388
0.136853
0.134953
0.133099
0.131291
0.129528
0.127811
0.126146
0.124595
0.414215
0.693899
0.900437
1.08162
1.25513
1.42662
1.59909
1.77432
1.95325
2.13612
2.32253
2.51163
2.70219
2.89276
3.08179
3.2677
3.44898
3.6242
3.79208
3.95146
4.10135
4.2409
4.3694
4.48625
4.59097
4.68316
4.76249
4.82872
4.88164
4.92112
4.94706
4.95943
4.95828
4.94371
4.91591
4.87517
4.82194
4.75648
4.67855
4.58927
4.48979
4.38111
4.26417
4.13985
4.00903
3.87253
3.73118
3.58608
3.43806
3.28762
3.13512
2.98054
2.82301
2.66366
2.50411
2.34372
2.18227
2.02216
1.86508
1.71244
1.56657
1.42937
1.3026
1.1876
1.08527
0.995961
0.919506
0.855282
0.802304
0.759337
0.725015
0.697942
0.676783
0.660322
0.647501
0.637442
0.629445
0.622977
0.617651
0.6132
0.609454
0.606311
0.60372
0.601656
0.600113
0.599086
0.598563
0.59852
0.598916
0.599691
0.600767
0.602049
0.60343
0.604795
0.606029
0.607017
0.607655
0.60785
0.607526
0.606625
0.605104
0.602941
0.600128
0.596674
0.592598
0.58793
0.582709
0.576978
0.570784
0.564175
0.557201
0.549909
0.542347
0.53456
0.526587
0.518469
0.510241
0.501935
0.493579
0.485202
0.476824
0.468468
0.460151
0.451889
0.443695
0.43558
0.427556
0.41963
0.411808
0.404097
0.396501
0.389024
0.381667
0.374435
0.367326
0.360342
0.353484
0.34675
0.34014
0.333654
0.327289
0.321045
0.314919
0.30891
0.303015
0.297233
0.291562
0.285998
0.280541
0.275188
0.269936
0.264784
0.25973
0.254772
0.249908
0.245137
0.240457
0.235868
0.231369
0.226959
0.222638
0.218406
0.214264
0.210211
0.206248
0.202376
0.198596
0.194909
0.191314
0.187813
0.184404
0.181089
0.177867
0.174736
0.171695
0.168743
0.165878
0.163097
0.160399
0.15778
0.155239
0.152772
0.150376
0.14805
0.145791
0.143596
0.141463
0.13939
0.137375
0.135416
0.133513
0.131662
0.129865
0.128119
0.126425
0.124782
0.123191
0.121653
0.120172
0.118803
0.409383
0.676307
0.877438
1.05431
1.22412
1.39263
1.56287
1.73672
1.91519
2.09854
2.28643
2.47796
2.67189
2.8667
3.06077
3.25241
3.43999
3.62197
3.79694
3.96364
4.12094
4.26791
4.40374
4.52776
4.63941
4.73823
4.82385
4.89596
4.95433
4.99876
5.02912
5.04532
5.04737
5.0353
5.00926
4.96954
4.91656
4.8504
4.77105
4.67982
4.57777
4.46589
4.34508
4.21624
4.08024
3.93782
3.78939
3.63646
3.48015
3.32079
3.15879
2.99439
2.8275
2.65908
2.48982
2.3201
2.15067
1.98316
1.81925
1.66089
1.51025
1.36938
1.24009
1.12376
1.02122
0.932694
0.85784
0.795837
0.745493
0.705385
0.673981
0.649753
0.631266
0.617237
0.606573
0.59838
0.591961
0.586796
0.582516
0.578878
0.575733
0.573003
0.570659
0.5687
0.567145
0.566015
0.565325
0.565082
0.565273
0.565866
0.566811
0.568036
0.569452
0.570957
0.572442
0.573794
0.574905
0.575672
0.576006
0.575836
0.575103
0.57377
0.571815
0.569232
0.566029
0.562227
0.557855
0.552951
0.547556
0.541715
0.535476
0.528885
0.521987
0.514829
0.507451
0.499894
0.492193
0.484384
0.476496
0.468556
0.460591
0.452621
0.444667
0.436745
0.42887
0.421057
0.413315
0.405654
0.398082
0.390606
0.383232
0.375964
0.368805
0.361759
0.354827
0.34801
0.34131
0.334727
0.328261
0.321911
0.315676
0.309556
0.303549
0.297654
0.291869
0.286192
0.280622
0.275157
0.269795
0.264534
0.259373
0.254309
0.249341
0.244468
0.239687
0.234999
0.230402
0.225895
0.221478
0.21715
0.212912
0.208764
0.204707
0.20074
0.196866
0.193084
0.189397
0.185804
0.182307
0.178906
0.175601
0.172392
0.169279
0.166261
0.163335
0.160502
0.157758
0.155102
0.152531
0.150043
0.147635
0.145304
0.143048
0.140865
0.138751
0.136704
0.134722
0.132804
0.130947
0.129151
0.127413
0.125732
0.124109
0.122543
0.121034
0.119582
0.118188
0.116854
0.115583
0.114423
0.402897
0.656947
0.852617
1.02482
1.19028
1.35487
1.52172
1.69274
1.869
2.05085
2.23796
2.4295
2.62422
2.82061
3.01701
3.21167
3.4029
3.58907
3.76867
3.94035
4.10291
4.25528
4.3966
4.52611
4.64319
4.74732
4.83806
4.91507
4.97806
5.02679
5.06107
5.08076
5.08578
5.07615
5.05193
5.0134
4.96095
4.89433
4.81421
4.72173
4.61791
4.5037
4.38
4.2477
4.1077
3.96081
3.80782
3.64991
3.48793
3.32244
3.15393
2.98283
2.80952
2.63462
2.45864
2.2823
2.1067
1.93341
1.76429
1.60156
1.44756
1.30449
1.17425
1.05818
0.95698
0.870697
0.798763
0.74012
0.693357
0.656859
0.628942
0.607967
0.592424
0.580993
0.57257
0.566272
0.561423
0.557535
0.554271
0.551416
0.54885
0.546518
0.544411
0.54255
0.54097
0.539709
0.538804
0.538279
0.538145
0.538394
0.538999
0.539911
0.541062
0.54237
0.543738
0.545064
0.546243
0.547174
0.547764
0.547932
0.547611
0.546752
0.545322
0.543303
0.540693
0.537501
0.53375
0.529467
0.524689
0.519455
0.513809
0.507795
0.501456
0.494835
0.487974
0.480911
0.473684
0.466325
0.458867
0.451337
0.443762
0.436163
0.428561
0.420974
0.413419
0.405909
0.398455
0.391069
0.38376
0.376534
0.369398
0.362358
0.355417
0.348579
0.341847
0.335222
0.328707
0.322301
0.316006
0.30982
0.303745
0.297779
0.291921
0.286171
0.280527
0.274988
0.269552
0.264218
0.258985
0.253851
0.248814
0.243873
0.239026
0.234274
0.229613
0.225044
0.220566
0.216178
0.21188
0.207673
0.203556
0.19953
0.195596
0.191754
0.188006
0.184353
0.180797
0.177337
0.173974
0.170711
0.167545
0.164478
0.161509
0.158637
0.15586
0.153177
0.150586
0.148084
0.14567
0.14334
0.141092
0.138923
0.136831
0.134812
0.132866
0.130989
0.12918
0.127436
0.125757
0.124141
0.122587
0.121095
0.119665
0.118296
0.116989
0.115745
0.114565
0.113451
0.112407
0.11147
0.395778
0.637179
0.827601
0.995083
1.15583
1.31589
1.47844
1.64545
1.81806
1.99665
2.18099
2.37031
2.56343
2.75886
2.95496
3.14999
3.34221
3.52995
3.71165
3.88588
4.05137
4.20698
4.35176
4.4849
4.6057
4.71359
4.80809
4.8888
4.95539
5.00755
5.04507
5.06773
5.07542
5.06805
5.04566
5.00851
4.95688
4.89042
4.81034
4.71763
4.61322
4.49805
4.37301
4.23901
4.09696
3.94778
3.79236
3.63169
3.46655
3.29756
3.12523
2.95007
2.77254
2.59311
2.41234
2.2311
2.05069
1.87288
1.69985
1.53412
1.37824
1.2346
1.10507
0.990922
0.892647
0.810042
0.742269
0.688014
0.64564
0.613352
0.589335
0.571865
0.55939
0.550585
0.544362
0.539874
0.536493
0.533773
0.531422
0.529264
0.527209
0.52523
0.523338
0.52157
0.519973
0.5186
0.517498
0.516703
0.516242
0.516122
0.516332
0.516843
0.517606
0.518555
0.51961
0.520684
0.52168
0.522504
0.523065
0.523282
0.523085
0.522417
0.521239
0.519524
0.517261
0.514451
0.511108
0.507254
0.502917
0.498133
0.492938
0.487374
0.48148
0.475297
0.468865
0.462221
0.4554
0.448436
0.441359
0.434198
0.426978
0.419722
0.41245
0.405181
0.397932
0.390716
0.383545
0.376432
0.369385
0.362413
0.355521
0.348716
0.342003
0.335385
0.328866
0.322448
0.316132
0.30992
0.303813
0.297812
0.291915
0.286124
0.280437
0.274854
0.269373
0.263995
0.258717
0.253539
0.24846
0.243477
0.23859
0.233799
0.229101
0.224496
0.219983
0.215561
0.21123
0.20699
0.202841
0.198783
0.194817
0.190943
0.187162
0.183475
0.179884
0.17639
0.172993
0.169695
0.166497
0.1634
0.160402
0.157505
0.154707
0.152007
0.149404
0.146896
0.144481
0.142156
0.13992
0.137768
0.1357
0.133711
0.1318
0.129964
0.128201
0.126509
0.124887
0.123331
0.121843
0.120419
0.119062
0.117769
0.116541
0.115379
0.114284
0.113257
0.1123
0.111414
0.110604
0.109897
0.387813
0.61749
0.803231
0.966265
1.12225
1.27743
1.43503
1.5971
1.7648
1.93861
2.1184
2.30349
2.4928
2.68493
2.87829
3.07118
3.26188
3.44871
3.63008
3.80452
3.97069
4.12743
4.2737
4.40864
4.53149
4.64163
4.73853
4.82174
4.89089
4.94564
4.98571
5.01085
5.02086
5.01562
4.99509
4.95951
4.90897
4.84348
4.76433
4.67242
4.56865
4.45392
4.32915
4.19523
4.0531
3.90368
3.74789
3.58661
3.42053
3.25026
3.07628
2.89902
2.71891
2.53639
2.3521
2.16708
1.98292
1.80172
1.62606
1.45877
1.30266
1.16016
1.03312
0.922573
0.828771
0.751191
0.688695
0.639699
0.602353
0.574701
0.554826
0.540955
0.53153
0.525251
0.52108
0.518231
0.516138
0.514415
0.512824
0.511232
0.509586
0.507884
0.506157
0.504457
0.502843
0.501375
0.500106
0.499083
0.498336
0.497883
0.497724
0.497841
0.4982
0.498748
0.499422
0.500144
0.500832
0.5014
0.501765
0.501848
0.50158
0.500905
0.499778
0.49817
0.496061
0.49345
0.490341
0.486751
0.482703
0.478226
0.473353
0.468121
0.462566
0.456725
0.450636
0.444333
0.43785
0.43122
0.424472
0.417633
0.410728
0.40378
0.396808
0.389832
0.382868
0.375929
0.369029
0.362178
0.355386
0.348661
0.342011
0.335441
0.328957
0.322562
0.31626
0.310054
0.303946
0.297937
0.292028
0.286221
0.280515
0.27491
0.269407
0.264005
0.258703
0.2535
0.248397
0.243391
0.238482
0.233669
0.228951
0.224327
0.219796
0.215358
0.211012
0.206758
0.202595
0.198524
0.194544
0.190657
0.186863
0.183162
0.179557
0.176047
0.172635
0.169321
0.166107
0.162994
0.159981
0.157071
0.154262
0.151555
0.148947
0.146439
0.144029
0.141713
0.139491
0.13736
0.135317
0.133358
0.131483
0.129688
0.12797
0.126327
0.124758
0.12326
0.121831
0.120472
0.119181
0.117956
0.1168
0.11571
0.114689
0.113737
0.112856
0.112047
0.111313
0.110654
0.110076
0.109595
0.378871
0.598176
0.780058
0.939178
1.09065
1.24084
1.39311
1.54951
1.71129
1.87904
2.05271
2.23179
2.41531
2.60201
2.79038
2.97883
3.16567
3.34925
3.52801
3.70044
3.86518
4.02102
4.16689
4.30187
4.42514
4.53605
4.63402
4.71857
4.78928
4.84577
4.88772
4.91483
4.92686
4.92361
4.90501
4.87126
4.82218
4.75846
4.68115
4.59111
4.48922
4.37636
4.25344
4.12133
3.98096
3.83322
3.67896
3.51895
3.35381
3.18401
3.00996
2.83197
2.6504
2.46573
2.27875
2.09079
1.9038
1.72035
1.54341
1.37617
1.22157
1.08206
0.959289
0.854025
0.766158
0.694814
0.638539
0.595485
0.563609
0.540828
0.525163
0.51483
0.508304
0.504345
0.501993
0.500545
0.499512
0.49858
0.497567
0.49639
0.49503
0.493511
0.491884
0.490213
0.488566
0.487009
0.485599
0.484385
0.483402
0.482672
0.482199
0.481974
0.481969
0.482143
0.482442
0.4828
0.483145
0.483401
0.483492
0.483347
0.4829
0.482097
0.480893
0.479256
0.477168
0.47462
0.471613
0.46816
0.46428
0.459996
0.455338
0.450338
0.445028
0.439444
0.43362
0.427588
0.421379
0.415026
0.408554
0.40199
0.395359
0.388682
0.381978
0.375267
0.368562
0.361879
0.35523
0.348626
0.342076
0.335589
0.329171
0.32283
0.316569
0.310394
0.304308
0.298313
0.292413
0.286608
0.280901
0.275292
0.269781
0.264369
0.259056
0.253842
0.248726
0.243708
0.238787
0.233962
0.229234
0.224601
0.220062
0.215617
0.211265
0.207006
0.202839
0.198765
0.194784
0.190894
0.187098
0.183396
0.179788
0.176276
0.17286
0.169543
0.166324
0.163206
0.16019
0.157276
0.154464
0.151756
0.14915
0.146647
0.144244
0.141941
0.139736
0.137626
0.135608
0.133681
0.131841
0.130086
0.128412
0.126817
0.125299
0.123856
0.122485
0.121186
0.119956
0.118794
0.117701
0.116677
0.11572
0.114833
0.114016
0.11327
0.112597
0.112
0.11148
0.111039
0.110681
0.110413
0.368896
0.579388
0.758366
0.914349
1.06178
1.20714
1.35389
1.50414
1.65923
1.81983
1.98608
2.15759
2.33359
2.51295
2.69433
2.87624
3.0571
3.23532
3.40935
3.57772
3.73906
3.89213
4.03582
4.16917
4.29134
4.40162