/*--------------------------------*- C++ -*----------------------------------*\
  =========                 |
  \\      /  F ield         | OpenFOAM: The Open Source CFD Toolbox
   \\    /   O peration     | Website:  https://openfoam.org
    \\  /    A nd           | Version:  7
     \\/     M anipulation  |
\*---------------------------------------------------------------------------*/
FoamFile
{
    version     2.0;
    format      ascii;
    class       volScalarField;
    location    "150";
    object      nut;
}
// * * * * * * * * * * * * * * * * * * * * * * * * * * * * * * * * * * * * * //

dimensions      [0 2 -1 0 0 0 0];

internalField   nonuniform List<scalar> 
16900
(
0.000197299
5.66086e-05
6.66176e-05
7.46063e-05
8.13351e-05
8.71429e-05
9.22336e-05
9.67412e-05
0.000100758
0.000104354
0.000107582
0.000110486
0.000113102
0.000115459
0.000117583
0.000119496
0.000121217
0.000122765
0.000124152
0.000125397
0.000126507
0.000127497
0.000128376
0.000129155
0.000129842
0.000130445
0.000130973
0.000131431
0.000131826
0.000132165
0.000132452
0.000132692
0.00013289
0.000133048
0.000133172
0.000133262
0.000133323
0.000133358
0.000133367
0.000133355
0.000133323
0.00013327
0.000133182
0.000133057
0.000132895
0.000132696
0.000132459
0.00013218
0.000131858
0.000131491
0.000131074
0.000130604
0.000130077
0.000129486
0.000128828
0.000128096
0.000127284
0.000126386
0.000125397
0.000124311
0.000123123
0.00012183
0.00012043
0.000118923
0.000117312
0.000115599
0.000113791
0.000111893
0.000109907
0.000107844
0.000105706
0.000103482
0.000101221
9.89547e-05
9.6972e-05
9.44761e-05
9.34053e-05
9.24989e-05
9.16704e-05
9.0892e-05
9.01519e-05
8.94443e-05
8.87657e-05
8.81142e-05
8.74883e-05
8.68866e-05
8.63077e-05
8.57505e-05
8.52134e-05
8.46948e-05
8.41934e-05
8.37074e-05
8.32355e-05
8.27762e-05
8.2328e-05
8.18898e-05
8.14603e-05
8.10385e-05
8.06235e-05
8.02146e-05
7.98111e-05
7.94125e-05
7.90184e-05
7.86286e-05
7.82429e-05
7.78613e-05
7.74837e-05
7.71102e-05
7.6741e-05
7.63762e-05
7.6016e-05
7.56608e-05
7.53107e-05
7.49659e-05
7.46269e-05
7.42938e-05
7.39668e-05
7.36463e-05
7.33324e-05
7.30253e-05
7.27253e-05
7.24324e-05
7.21468e-05
7.18687e-05
7.15981e-05
7.13351e-05
7.10798e-05
7.08321e-05
7.05922e-05
7.03599e-05
7.01353e-05
6.99183e-05
6.97088e-05
6.95069e-05
6.93125e-05
6.91253e-05
6.89455e-05
6.87729e-05
6.86073e-05
6.84488e-05
6.82971e-05
6.81522e-05
6.80141e-05
6.78825e-05
6.77575e-05
6.76389e-05
6.75267e-05
6.74208e-05
6.73212e-05
6.72278e-05
6.71405e-05
6.70594e-05
6.69844e-05
6.69157e-05
6.6853e-05
6.67966e-05
6.67465e-05
6.67028e-05
6.66654e-05
6.66346e-05
6.66104e-05
6.6593e-05
6.65825e-05
6.6579e-05
6.65826e-05
6.65934e-05
6.66116e-05
6.66371e-05
6.66701e-05
6.67105e-05
6.67583e-05
6.68133e-05
6.68755e-05
6.69445e-05
6.702e-05
6.71018e-05
6.71893e-05
6.72821e-05
6.73798e-05
6.74815e-05
6.75869e-05
6.76953e-05
6.78059e-05
6.79182e-05
6.80315e-05
6.81453e-05
6.82588e-05
6.83716e-05
6.84832e-05
6.85931e-05
6.87009e-05
6.88063e-05
6.8909e-05
6.90088e-05
6.91056e-05
6.91994e-05
6.92903e-05
6.93782e-05
6.94633e-05
6.95491e-05
4.9982e-05
0.00013078
0.000163128
0.00018939
0.000213988
0.000237704
0.000260893
0.000283676
0.00030605
0.000327941
0.000349235
0.000369809
0.00038954
0.000408322
0.000426068
0.000442714
0.00045822
0.000472568
0.000485752
0.000497793
0.000508714
0.000518561
0.00052738
0.000535237
0.000542196
0.000548334
0.000553733
0.000558476
0.000562652
0.000566349
0.00056966
0.000572672
0.00057547
0.000578133
0.00058073
0.000583321
0.000585949
0.000588641
0.0005914
0.0005942
0.000596823
0.00059948
0.000602479
0.000605846
0.000609589
0.000613703
0.000618171
0.000622966
0.00062805
0.000633374
0.000638876
0.000644484
0.000650117
0.000655683
0.000661083
0.000666214
0.000670972
0.000675253
0.000678961
0.000682011
0.000684331
0.00068587
0.000686593
0.000686492
0.00068558
0.000683887
0.000681448
0.000678295
0.000674433
0.000669873
0.000664602
0.000658605
0.000652033
0.000644423
0.000635916
0.000625664
0.000614785
0.000603546
0.000592169
0.000580789
0.00056949
0.000558326
0.000547335
0.000536541
0.000525959
0.000515601
0.000505471
0.000495571
0.000485899
0.000476452
0.000467226
0.000458214
0.000449411
0.000440811
0.000432406
0.000424193
0.000416165
0.000408318
0.000400648
0.000393152
0.000385827
0.000378671
0.000371681
0.000364857
0.000358198
0.000351701
0.000345366
0.000339192
0.000333177
0.000327321
0.000321621
0.000316077
0.000310686
0.000305446
0.000300355
0.00029541
0.000290609
0.000285948
0.000281424
0.000277035
0.000272776
0.000268645
0.000264638
0.000260751
0.00025698
0.000253323
0.000249775
0.000246333
0.000242994
0.000239754
0.000236611
0.000233559
0.000230598
0.000227723
0.000224932
0.000222222
0.00021959
0.000217034
0.000214552
0.000212141
0.000209799
0.000207525
0.000205315
0.000203169
0.000201084
0.00019906
0.000197094
0.000195185
0.000193332
0.000191534
0.000189789
0.000188096
0.000186454
0.000184861
0.000183318
0.000181821
0.000180372
0.000178967
0.000177606
0.000176288
0.000175011
0.000173773
0.000172573
0.00017141
0.00017028
0.000169183
0.000168115
0.000167075
0.000166061
0.000165068
0.000164096
0.000163142
0.000162203
0.000161278
0.000160363
0.000159459
0.000158562
0.000157671
0.000156787
0.000155908
0.000155035
0.000154167
0.000153306
0.000152452
0.000151606
0.000150769
0.000149943
0.00014913
0.000148332
0.000147549
0.000146783
0.000146037
0.000145312
0.000144609
0.000143929
0.000143273
0.000142643
0.000142037
0.000141454
0.000140917
5.65427e-05
0.000200956
0.000262491
0.000314135
0.00036532
0.000417217
0.00046987
0.000522984
0.000576099
0.000628688
0.00068021
0.000730166
0.000778118
0.000823707
0.000866653
0.000906753
0.000943875
0.000977944
0.00100893
0.00103685
0.00106173
0.00108364
0.00110268
0.00111894
0.00113255
0.00114363
0.00115233
0.0011588
0.0011632
0.0011657
0.00116649
0.00116572
0.00116359
0.00116028
0.00115596
0.00115079
0.00114494
0.00113855
0.00113175
0.00112466
0.00111721
0.00110984
0.00110272
0.00109589
0.00108942
0.00108332
0.0010776
0.00107226
0.00106726
0.00106256
0.00105811
0.00105384
0.00104969
0.00104556
0.00104139
0.00103708
0.00103257
0.00102779
0.00102269
0.00101725
0.00101144
0.00100529
0.000998821
0.000992069
0.000985088
0.000977932
0.000970637
0.000963229
0.000955689
0.000948039
0.000940136
0.000931926
0.000923446
0.000914904
0.000907057
0.000899252
0.000891258
0.000882996
0.000874512
0.000865871
0.00085713
0.000848329
0.000839496
0.000830646
0.000821787
0.000812922
0.00080405
0.000795166
0.000786264
0.000777337
0.000768379
0.000759382
0.000750343
0.000741256
0.000732121
0.000722938
0.00071371
0.000704441
0.000695138
0.00068581
0.000676467
0.000667121
0.000657784
0.00064847
0.000639191
0.000629962
0.000620795
0.000611704
0.0006027
0.000593794
0.000584997
0.000576318
0.000567764
0.000559343
0.000551061
0.000542922
0.00053493
0.000527088
0.000519397
0.00051186
0.000504476
0.000497245
0.000490167
0.000483239
0.000476461
0.000469829
0.000463343
0.000456998
0.000450793
0.000444724
0.000438788
0.000432983
0.000427305
0.000421752
0.000416319
0.000411005
0.000405807
0.000400721
0.000395746
0.000390878
0.000386115
0.000381456
0.000376897
0.000372437
0.000368073
0.000363805
0.00035963
0.000355547
0.000351555
0.000347651
0.000343835
0.000340105
0.00033646
0.000332899
0.000329421
0.000326025
0.000322709
0.000319471
0.000316311
0.000313227
0.000310217
0.000307278
0.00030441
0.000301608
0.00029887
0.000296192
0.000293572
0.000291005
0.000288487
0.000286013
0.000283579
0.000281179
0.00027881
0.000276466
0.000274143
0.000271837
0.000269545
0.000267262
0.000264986
0.000262716
0.00026045
0.000258188
0.000255929
0.000253674
0.000251425
0.000249182
0.000246949
0.000244728
0.000242522
0.000240333
0.000238165
0.000236022
0.000233906
0.00023182
0.000229769
0.000227753
0.000225777
0.000223842
0.000221949
0.000220169
6.19072e-05
0.000261377
0.000354002
0.000431047
0.000508241
0.000587276
0.000667738
0.000748759
0.000829339
0.000908488
0.000985302
0.00105902
0.00112902
0.00119484
0.00125615
0.00131275
0.00136453
0.00141146
0.00145356
0.00149091
0.00152362
0.00155182
0.00157566
0.00159531
0.00161095
0.00162276
0.00163095
0.0016357
0.00163723
0.00163576
0.00163151
0.00162471
0.00161558
0.00160437
0.00159129
0.0015766
0.00156051
0.00154326
0.00152505
0.0015061
0.00148649
0.00146657
0.00144652
0.00142648
0.00140657
0.00138687
0.00136745
0.00134835
0.00132959
0.00131119
0.00129313
0.0012754
0.00125796
0.00124077
0.00122382
0.00120707
0.00119051
0.00117415
0.00115802
0.00114216
0.00112667
0.00111165
0.0010972
0.00108346
0.00107052
0.00105848
0.00104736
0.00103719
0.00102791
0.00101954
0.00101164
0.00100456
0.000998475
0.000993922
0.0009907
0.000988235
0.000986067
0.000983938
0.000981734
0.000979415
0.000976963
0.000974367
0.000971615
0.000968691
0.000965578
0.000962255
0.0009587
0.00095489
0.000950802
0.000946413
0.000941705
0.000936658
0.000931259
0.000925497
0.000919367
0.000912869
0.000906005
0.000898785
0.000891223
0.000883336
0.000875145
0.000866674
0.00085795
0.000849002
0.000839859
0.000830551
0.000821107
0.000811557
0.000801929
0.000792249
0.000782544
0.000772835
0.000763146
0.000753495
0.0007439
0.000734377
0.000724938
0.000715597
0.000706362
0.000697242
0.000688245
0.000679375
0.000670637
0.000662035
0.000653571
0.000645246
0.000637061
0.000629016
0.000621111
0.000613344
0.000605715
0.000598222
0.000590863
0.000583636
0.00057654
0.000569571
0.000562728
0.000556009
0.000549412
0.000542933
0.000536572
0.000530326
0.000524193
0.000518171
0.000512258
0.000506454
0.000500755
0.000495161
0.00048967
0.000484282
0.000478994
0.000473805
0.000468715
0.000463723
0.000458826
0.000454025
0.000449318
0.000444704
0.000440182
0.00043575
0.000431406
0.000427149
0.000422976
0.000418885
0.000414872
0.000410934
0.000407067
0.000403268
0.00039953
0.000395848
0.000392218
0.000388633
0.000385087
0.000381574
0.00037809
0.000374627
0.000371181
0.000367748
0.000364324
0.000360905
0.000357489
0.000354075
0.000350661
0.000347248
0.000343837
0.000340428
0.000337023
0.000333626
0.000330239
0.000326865
0.000323508
0.000320172
0.00031686
0.000313576
0.000310325
0.000307109
0.000303931
0.000300796
0.000297708
0.000294794
6.60723e-05
0.000310859
0.000433964
0.000534251
0.000634132
0.000736106
0.000839437
0.000942799
0.0010448
0.00114417
0.00123982
0.0013309
0.00141677
0.00149696
0.00157119
0.0016393
0.00170126
0.0017571
0.0018069
0.0018508
0.00188896
0.00192157
0.00194881
0.00197091
0.00198805
0.00200046
0.00200835
0.00201194
0.00201145
0.0020071
0.00199913
0.00198777
0.00197326
0.00195584
0.00193577
0.00191329
0.00188866
0.00186213
0.00183394
0.00180435
0.00177347
0.00174168
0.00170923
0.00167633
0.00164315
0.00160986
0.00157659
0.00154344
0.00151051
0.00147786
0.00144554
0.00141358
0.00138201
0.00135084
0.00132009
0.00128981
0.00126004
0.00123086
0.00120238
0.00117477
0.00114822
0.00112294
0.00109916
0.00107711
0.00105699
0.00103897
0.00102313
0.0010095
0.000998027
0.00098858
0.000981156
0.000976241
0.000973873
0.000973838
0.000975673
0.0009788
0.000982715
0.00098706
0.000991608
0.000996214
0.00100078
0.00100522
0.00100948
0.0010135
0.00101723
0.00102061
0.0010236
0.00102614
0.00102819
0.00102971
0.00103064
0.00103096
0.00103063
0.00102963
0.00102794
0.00102556
0.00102248
0.00101871
0.00101427
0.00100918
0.00100346
0.000997162
0.000990316
0.000982965
0.000975155
0.000966931
0.000958342
0.000949433
0.000940248
0.000930832
0.000921226
0.000911468
0.000901594
0.000891638
0.000881631
0.000871598
0.000861566
0.000851556
0.000841586
0.000831675
0.000821836
0.000812081
0.000802422
0.000792867
0.000783424
0.000774097
0.000764893
0.000755814
0.000746863
0.000738042
0.000729352
0.000720794
0.000712367
0.000704072
0.000695907
0.000687871
0.000679964
0.000672184
0.000664528
0.000656997
0.000649588
0.000642299
0.000635128
0.000628075
0.000621137
0.000614313
0.000607601
0.000601
0.000594508
0.000588124
0.000581847
0.000575676
0.000569608
0.000563644
0.000557783
0.000552022
0.000546362
0.000540801
0.000535338
0.000529971
0.0005247
0.000519522
0.000514435
0.000509438
0.000504528
0.0004997
0.000494953
0.000490281
0.00048568
0.000481145
0.00047667
0.00047225
0.000467878
0.000463549
0.000459256
0.000454992
0.000450754
0.000446534
0.00044233
0.000438136
0.000433951
0.00042977
0.000425593
0.000421419
0.000417248
0.00041308
0.000408917
0.00040476
0.000400612
0.000396476
0.000392354
0.00038825
0.000384167
0.000380109
0.00037608
0.000372083
0.000368121
0.000364196
0.00036032
0.000356672
6.92326e-05
0.000349446
0.000500875
0.000621431
0.000740074
0.000860413
0.000981639
0.00110217
0.00122042
0.00133499
0.00144476
0.00154888
0.00164673
0.00173791
0.00182218
0.00189943
0.00196967
0.00203297
0.00208945
0.00213927
0.00218263
0.00221972
0.00225075
0.00227594
0.00229548
0.0023096
0.0023185
0.0023224
0.00232149
0.00231601
0.00230616
0.00229217
0.00227427
0.0022527
0.0022277
0.0021995
0.00216838
0.00213457
0.00209834
0.00205992
0.00201947
0.00197741
0.00193405
0.00188966
0.00184447
0.0017987
0.00175253
0.00170615
0.0016597
0.0016133
0.00156708
0.00152112
0.00147551
0.00143031
0.00138559
0.00134145
0.00129803
0.00125545
0.00121394
0.00117376
0.00113521
0.00109863
0.00106438
0.00103285
0.00100431
0.000979106
0.000957341
0.000939066
0.000924426
0.00091363
0.000906812
0.000903754
0.000904097
0.000907386
0.000913077
0.000920598
0.000929432
0.000939164
0.000949485
0.000960163
0.000971022
0.000981919
0.000992738
0.00100337
0.00101373
0.00102373
0.00103327
0.00104227
0.00105066
0.00105835
0.00106528
0.00107137
0.00107658
0.00108084
0.00108413
0.00108643
0.00108771
0.00108798
0.00108724
0.00108554
0.00108289
0.00107934
0.00107494
0.00106974
0.00106381
0.00105721
0.00105
0.00104224
0.00103399
0.00102533
0.00101629
0.00100695
0.00099734
0.000987521
0.000977533
0.000967415
0.000957204
0.000946931
0.000936625
0.000926312
0.000916015
0.000905753
0.000895542
0.000885399
0.000875334
0.000865359
0.000855482
0.000845711
0.000836052
0.000826509
0.000817086
0.000807787
0.000798612
0.000789564
0.000780643
0.000771849
0.000763183
0.000754644
0.000746232
0.000737945
0.000729782
0.000721742
0.000713824
0.000706026
0.000698347
0.000690786
0.00068334
0.000676009
0.000668791
0.000661685
0.000654689
0.000647802
0.000641024
0.000634352
0.000627786
0.000621325
0.000614967
0.000608712
0.00060256
0.000596508
0.000590555
0.000584702
0.000578945
0.000573284
0.000567716
0.00056224
0.000556851
0.000551546
0.000546323
0.000541176
0.000536101
0.000531092
0.000526144
0.000521251
0.000516407
0.000511607
0.000506845
0.000502115
0.000497413
0.000492735
0.000488076
0.000483434
0.000478806
0.000474191
0.000469588
0.000464996
0.000460417
0.00045585
0.000451297
0.00044676
0.000442241
0.000437743
0.000433269
0.000428821
0.000424402
0.000420015
0.000415664
0.00041135
0.000407089
0.000403101
7.15615e-05
0.000377851
0.000554578
0.000692309
0.000825972
0.000960576
0.00109548
0.00122904
0.0013596
0.00148576
0.00160643
0.00172079
0.00182828
0.00192852
0.00202131
0.00210657
0.0021843
0.0022546
0.00231758
0.00237341
0.00242226
0.00246434
0.00249983
0.00252894
0.00255187
0.00256879
0.00257992
0.00258543
0.00258552
0.00258037
0.0025702
0.0025552
0.00253559
0.00251158
0.00248341
0.0024513
0.00241551
0.00237628
0.00233386
0.00228843
0.0022402
0.00218966
0.00213716
0.00208299
0.00202743
0.00197073
0.00191313
0.00185486
0.00179612
0.00173707
0.0016779
0.00161876
0.0015598
0.00150113
0.00144288
0.00138521
0.00132834
0.00127251
0.00121798
0.00116515
0.00111447
0.00106639
0.00102138
0.000980113
0.000942753
0.000910092
0.000881782
0.000859162
0.000842018
0.000830143
0.000823216
0.00082078
0.000822332
0.000827333
0.000835214
0.000845412
0.000857409
0.000870766
0.000885126
0.000900206
0.000915776
0.000931649
0.000947664
0.000963682
0.000979572
0.00099521
0.00101047
0.00102524
0.0010394
0.00105283
0.00106541
0.00107705
0.00108765
0.00109712
0.0011054
0.00111243
0.00111819
0.00112264
0.0011258
0.00112768
0.00112831
0.00112773
0.00112601
0.00112321
0.0011194
0.00111465
0.00110905
0.00110267
0.0010956
0.00108791
0.00107968
0.00107097
0.00106185
0.00105239
0.00104264
0.00103265
0.00102248
0.00101215
0.00100172
0.000991215
0.000980666
0.0009701
0.00095954
0.000949008
0.00093852
0.000928093
0.000917738
0.000907468
0.00089729
0.000887214
0.000877246
0.000867389
0.00085765
0.00084803
0.000838532
0.000829157
0.000819908
0.000810784
0.000801786
0.000792913
0.000784165
0.000775541
0.00076704
0.000758661
0.000750404
0.000742266
0.000734246
0.000726343
0.000718556
0.000710882
0.000703322
0.000695873
0.000688534
0.000681305
0.000674184
0.00066717
0.000660263
0.000653461
0.000646765
0.000640173
0.000633685
0.0006273
0.000621018
0.000614838
0.000608758
0.000602777
0.000596893
0.000591105
0.000585409
0.000579802
0.00057428
0.00056884
0.000563477
0.000558185
0.00055296
0.000547796
0.000542689
0.000537633
0.000532623
0.000527655
0.000522724
0.000517828
0.000512964
0.000508129
0.000503321
0.00049854
0.000493784
0.000489054
0.000484349
0.000479672
0.000475023
0.000470404
0.000465817
0.000461264
0.000456747
0.00045227
0.000447834
0.000443444
0.000439117
0.000435097
7.32001e-05
0.00039717
0.000595778
0.000747732
0.000893109
0.00103851
0.00118366
0.001327
0.00146691
0.00160204
0.00173133
0.00185403
0.00196958
0.00207765
0.00217802
0.0022706
0.0023554
0.00243247
0.0025019
0.00256385
0.00261846
0.00266591
0.00270635
0.00273998
0.00276696
0.00278746
0.00280165
0.0028097
0.00281176
0.00280801
0.00279864
0.00278381
0.00276372
0.00273858
0.00270859
0.00267398
0.00263498
0.00259183
0.00254476
0.00249386
0.00243947
0.00238211
0.00232214
0.00225985
0.00219556
0.00212954
0.00206207
0.0019934
0.00192375
0.00185335
0.0017824
0.00171112
0.00163973
0.00156844
0.0014974
0.00142685
0.0013571
0.00128854
0.00122152
0.00115647
0.00109421
0.00103522
0.000979902
0.000929734
0.000883911
0.000845072
0.000812797
0.000787264
0.000768156
0.000755063
0.000747503
0.000744926
0.000746752
0.000752387
0.000761239
0.000772741
0.000786379
0.000801706
0.000818354
0.000836019
0.000854458
0.00087347
0.000892884
0.000912548
0.000932319
0.000952057
0.000971621
0.000990862
0.00100963
0.00102777
0.00104514
0.00106157
0.00107693
0.00109109
0.00110395
0.0011154
0.00112538
0.00113384
0.00114077
0.00114615
0.00115002
0.00115241
0.00115338
0.00115301
0.00115136
0.00114853
0.00114461
0.0011397
0.00113388
0.00112726
0.00111992
0.00111195
0.00110342
0.00109442
0.00108502
0.00107527
0.00106524
0.00105498
0.00104453
0.00103395
0.00102327
0.00101252
0.00100173
0.000990929
0.000980139
0.000969381
0.00095867
0.000948021
0.000937447
0.000926958
0.000916564
0.000906271
0.000896085
0.000886012
0.000876054
0.000866216
0.000856499
0.000846905
0.000837435
0.000828089
0.000818868
0.000809771
0.000800797
0.000791947
0.000783218
0.000774611
0.000766122
0.000757752
0.0007495
0.000741363
0.00073334
0.000725431
0.000717633
0.000709947
0.000702371
0.000694904
0.000687546
0.000680297
0.000673156
0.000666123
0.000659198
0.000652381
0.000645672
0.000639072
0.000632581
0.000626197
0.000619922
0.000613753
0.000607689
0.000601729
0.000595871
0.00059011
0.000584445
0.00057887
0.000573383
0.000567978
0.00056265
0.000557396
0.00055221
0.000547088
0.000542026
0.000537021
0.000532068
0.000527166
0.000522311
0.000517501
0.000512737
0.000508015
0.000503337
0.000498702
0.000494111
0.000489565
0.000485065
0.000480613
0.000476212
0.000471864
0.000467572
0.000463339
0.000459188
0.00045537
7.42645e-05
0.000408657
0.000625617
0.000789127
0.00094338
0.00109669
0.00124932
0.00139987
0.00154682
0.0016889
0.00182509
0.00195467
0.00207711
0.00219203
0.00229923
0.00239857
0.00249
0.00257355
0.00264929
0.00271729
0.0027777
0.00283063
0.00287623
0.00291465
0.00294602
0.0029705
0.00298823
0.00299934
0.00300398
0.0030023
0.00299445
0.00298059
0.00296089
0.00293553
0.0029047
0.00286862
0.0028275
0.00278157
0.00273107
0.00267589
0.00261667
0.00255386
0.00248783
0.00241888
0.0023473
0.0022734
0.00219745
0.00211974
0.00204051
0.00195998
0.00187841
0.00179603
0.00171314
0.00163006
0.00154705
0.00146434
0.00138232
0.00130172
0.00122302
0.00114643
0.00107346
0.00100483
0.00093993
0.000882771
0.000832504
0.000789941
0.000754954
0.000727382
0.000706855
0.000692878
0.000684876
0.000682217
0.000684245
0.000690298
0.00069974
0.000711977
0.00072648
0.000742795
0.000760553
0.000779455
0.00079927
0.000819813
0.000840936
0.00086251
0.000884414
0.000906522
0.000928703
0.00095081
0.00097268
0.00099414
0.001015
0.00103509
0.0010542
0.00107217
0.00108883
0.00110405
0.00111771
0.00112972
0.00114003
0.00114862
0.00115547
0.00116063
0.00116414
0.00116606
0.00116649
0.0011655
0.00116322
0.00115974
0.00115516
0.00114961
0.00114317
0.00113595
0.00112804
0.00111954
0.00111051
0.00110105
0.00109122
0.00108108
0.00107069
0.00106009
0.00104935
0.00103848
0.00102754
0.00101655
0.00100554
0.000994527
0.000983542
0.000972599
0.000961713
0.000950898
0.000940164
0.000929521
0.000918977
0.000908537
0.000898208
0.000887993
0.000877896
0.000867919
0.000858064
0.000848332
0.000838723
0.000829238
0.000819877
0.000810639
0.000801524
0.000792531
0.000783657
0.000774904
0.000766268
0.00075775
0.000749347
0.000741059
0.000732885
0.000724823
0.000716874
0.000709036
0.00070131
0.000693694
0.000686191
0.000678799
0.00067152
0.000664355
0.000657305
0.000650371
0.000643553
0.000636854
0.000630274
0.000623813
0.000617472
0.000611249
0.000605145
0.000599158
0.000593285
0.000587524
0.000581871
0.000576323
0.000570876
0.000565526
0.000560269
0.000555099
0.000550014
0.00054501
0.000540082
0.000535228
0.000530444
0.000525728
0.000521079
0.000516495
0.000511975
0.000507519
0.000503127
0.000498799
0.000494537
0.000490344
0.00048622
0.000482171
0.000478199
0.000474311
0.000470528
0.000467096
7.4848e-05
0.000413572
0.000645436
0.000818149
0.000978891
0.00113773
0.00129555
0.00145123
0.00160337
0.00175076
0.00189244
0.00202768
0.00215595
0.00227685
0.00239012
0.00249557
0.00259312
0.00268273
0.0027644
0.0028382
0.00290419
0.00296247
0.00301315
0.00305634
0.00309216
0.00312073
0.00314216
0.00315657
0.00316409
0.00316484
0.00315894
0.00314653
0.00312777
0.0031028
0.00307181
0.00303499
0.00299252
0.00294464
0.00289148
0.00283306
0.00277005
0.00270289
0.00263194
0.00255749
0.00247983
0.00239923
0.00231598
0.00223037
0.00214266
0.0020531
0.00196192
0.00186936
0.00177576
0.00168162
0.0015874
0.00149332
0.00139963
0.00130766
0.00121835
0.00113105
0.00104844
0.000972332
0.000902834
0.000841283
0.00078787
0.000742842
0.00070611
0.000677402
0.000656279
0.000642171
0.000634413
0.000632283
0.000635033
0.000641923
0.000652244
0.000665352
0.000680679
0.00069775
0.000716184
0.00073569
0.000756052
0.000777118
0.000798779
0.00082095
0.000843561
0.000866535
0.00088978
0.000913183
0.000936602
0.000959873
0.000982805
0.00100519
0.00102681
0.00104746
0.00106692
0.00108501
0.00110156
0.00111644
0.00112955
0.00114083
0.00115025
0.00115781
0.00116355
0.00116752
0.00116981
0.0011705
0.00116971
0.00116754
0.00116412
0.00115955
0.00115396
0.00114745
0.00114014
0.00113211
0.00112347
0.0011143
0.00110468
0.00109468
0.00108437
0.00107379
0.00106302
0.00105209
0.00104104
0.0010299
0.00101872
0.00100752
0.000996323
0.000985148
0.000974014
0.000962937
0.000951931
0.000941006
0.000930172
0.000919437
0.000908807
0.000898287
0.000887881
0.000877594
0.000867426
0.000857381
0.000847458
0.000837659
0.000827984
0.000818433
0.000809004
0.000799699
0.000790515
0.000781451
0.000772508
0.000763682
0.000754975
0.000746383
0.000737908
0.000729547
0.000721301
0.000713169
0.000705151
0.000697249
0.000689462
0.000681792
0.00067424
0.000666808
0.000659498
0.000652312
0.000645254
0.000638324
0.000631525
0.000624859
0.000618327
0.000611931
0.000605671
0.000599546
0.000593556
0.000587699
0.000581972
0.000576374
0.0005709
0.000565547
0.000560311
0.000555189
0.000550176
0.000545268
0.000540461
0.000535753
0.000531141
0.00052662
0.000522191
0.00051785
0.000513596
0.000509431
0.000505353
0.000501364
0.000497465
0.000493659
0.00048995
0.000486342
0.00048284
0.000479452
0.000476202
0.000473315
7.50266e-05
0.000413104
0.000656615
0.000836516
0.00100176
0.00116415
0.0013253
0.00148438
0.00164014
0.00179144
0.00193734
0.00207712
0.00221021
0.00233618
0.0024547
0.00256553
0.00266853
0.00276359
0.00285068
0.00292979
0.00300096
0.00306423
0.00311969
0.00316741
0.0032075
0.00324003
0.0032651
0.00328282
0.00329328
0.00329658
0.00329283
0.00328214
0.00326463
0.00324045
0.00320974
0.00317266
0.00312941
0.00308015
0.00302494
0.00296401
0.002898
0.00282734
0.00275236
0.00267334
0.00259053
0.00250418
0.00241453
0.00232193
0.00222664
0.00212891
0.00202898
0.00192706
0.00182339
0.00171876
0.00161404
0.00150948
0.00140472
0.00130206
0.00120355
0.00110929
0.00102107
0.000940023
0.000866916
0.00080245
0.000746961
0.000700558
0.000663107
0.000634261
0.000613502
0.000600173
0.000593517
0.000592713
0.00059692
0.000605305
0.000617081
0.000631532
0.000648038
0.000666087
0.000685276
0.000705307
0.000725976
0.000747158
0.000768782
0.000790816
0.000813245
0.000836056
0.000859219
0.000882679
0.000906345
0.000930091
0.00095375
0.000977125
0.000999994
0.00102212
0.00104327
0.0010632
0.00108173
0.00109865
0.00111383
0.00112717
0.00113859
0.00114808
0.00115564
0.00116131
0.00116515
0.00116727
0.00116775
0.00116671
0.00116429
0.00116059
0.00115574
0.00114986
0.00114307
0.00113548
0.00112718
0.00111828
0.00110885
0.00109899
0.00108875
0.00107822
0.00106743
0.00105645
0.00104532
0.00103408
0.00102277
0.00101142
0.00100005
0.00098869
0.000977358
0.000966072
0.000954848
0.000943697
0.000932631
0.000921659
0.000910788
0.000900025
0.000889374
0.000878839
0.000868424
0.00085813
0.000847959
0.000837912
0.00082799
0.000818193
0.00080852
0.000798971
0.000789546
0.000780243
0.000771062
0.000762001
0.000753061
0.000744239
0.000735536
0.000726951
0.000718484
0.000710135
0.000701904
0.000693793
0.000685803
0.000677935
0.000670192
0.000662577
0.000655092
0.000647741
0.000640527
0.000633454
0.000626525
0.000619743
0.000613112
0.000606632
0.000600307
0.000594136
0.000588121
0.000582259
0.000576551
0.000570993
0.000565584
0.00056032
0.000555197
0.000550213
0.000545362
0.000540642
0.000536049
0.000531579
0.000527229
0.000522997
0.000518881
0.00051488
0.000510992
0.000507217
0.000503558
0.000500015
0.00049659
0.00049329
0.000490117
0.000487078
0.000484181
0.000481437
0.000478869
0.000476672
7.4862e-05
0.000408319
0.000660497
0.000845905
0.00101407
0.00117841
0.00134132
0.00150232
0.00166032
0.00181425
0.0019632
0.00210641
0.00224328
0.00237334
0.00249619
0.00261155
0.00271919
0.00281897
0.00291078
0.00299457
0.00307033
0.00313807
0.00319784
0.00324969
0.00329368
0.00332988
0.00335837
0.00337922
0.00339251
0.00339832
0.00339674
0.00338785
0.00337175
0.00334856
0.00331839
0.00328139
0.00323771
0.00318749
0.00313069
0.00306779
0.00299937
0.00292585
0.00284752
0.00276464
0.00267743
0.00258605
0.00249069
0.00239174
0.00228953
0.00218429
0.00207628
0.00196573
0.00185249
0.00173774
0.00162322
0.00150928
0.00139662
0.00128702
0.00118198
0.00108255
0.000990097
0.000905661
0.00083007
0.000763906
0.000707475
0.000660818
0.000623727
0.000595775
0.000576355
0.000564717
0.000560007
0.000561309
0.000567683
0.000578207
0.000592008
0.000608299
0.000626402
0.000645763
0.000665951
0.000686662
0.000707695
0.000728943
0.000750367
0.000771978
0.000793814
0.000815921
0.000838334
0.000861064
0.000884083
0.000907322
0.000930663
0.000953942
0.000976959
0.000999481
0.00102126
0.00104205
0.00106161
0.00107972
0.00109619
0.00111088
0.00112369
0.00113455
0.00114344
0.00115038
0.00115543
0.00115865
0.00116014
0.00116001
0.00115838
0.00115538
0.00115114
0.00114578
0.00113942
0.00113218
0.00112417
0.00111549
0.00110623
0.00109648
0.00108631
0.0010758
0.00106501
0.00105399
0.0010428
0.00103148
0.00102006
0.00100859
0.000997081
0.000985573
0.000974083
0.000962631
0.000951234
0.000939905
0.000928657
0.0009175
0.000906442
0.00089549
0.000884649
0.000873924
0.000863319
0.000852836
0.000842477
0.000832244
0.000822138
0.000812158
0.000802305
0.000792579
0.000782978
0.000773503
0.000764153
0.000754926
0.000745824
0.000736843
0.000727986
0.000719251
0.000710638
0.000702148
0.000693782
0.000685542
0.00067743
0.000669447
0.000661597
0.000653884
0.000646311
0.000638882
0.000631602
0.000624476
0.000617508
0.000610703
0.000604064
0.000597594
0.000591297
0.000585175
0.000579228
0.000573456
0.000567859
0.000562436
0.000557184
0.000552101
0.000547183
0.000542427
0.00053783
0.000533388
0.000529097
0.000524955
0.000520958
0.000517105
0.000513394
0.000509824
0.000506395
0.000503108
0.000499965
0.00049697
0.000494125
0.000491438
0.000488915
0.000486566
0.000484399
0.000482429
0.00048068
0.000479306
7.44067e-05
0.000400088
0.000658319
0.000847949
0.00101782
0.00118283
0.00134619
0.00150782
0.0016668
0.00182213
0.00197293
0.00211842
0.00225797
0.00239106
0.00251723
0.00263614
0.0027475
0.00285112
0.00294683
0.00303454
0.00311419
0.00318575
0.00324924
0.00330468
0.0033521
0.00339156
0.00342311
0.0034468
0.00346269
0.00347084
0.00347131
0.00346418
0.00344951
0.00342739
0.0033979
0.00336116
0.00331728
0.00326635
0.00320831
0.00314385
0.00307348
0.00299757
0.00291639
0.00283017
0.00273909
0.00264326
0.00254262
0.00243771
0.002329
0.00221668
0.00210108
0.0019826
0.00186173
0.00173962
0.00161752
0.00149646
0.00137766
0.00126266
0.00115291
0.00104972
0.000954364
0.000867866
0.00079104
0.000724417
0.000668244
0.000622485
0.000586845
0.000560803
0.000543658
0.000534562
0.000532567
0.00053666
0.000545806
0.000558989
0.000575258
0.000593756
0.000613754
0.000634662
0.000656032
0.000677555
0.000699039
0.000720395
0.000741612
0.000762736
0.000783848
0.000805042
0.000826407
0.000848013
0.000869892
0.000892035
0.00091438
0.000936812
0.000959167
0.00098124
0.0010028
0.00102358
0.00104334
0.00106184
0.00107886
0.00109423
0.00110779
0.00111946
0.00112919
0.00113696
0.00114281
0.00114679
0.00114899
0.00114951
0.00114847
0.00114599
0.0011422
0.00113722
0.00113118
0.00112421
0.0011164
0.00110788
0.00109874
0.00108907
0.00107895
0.00106845
0.00105765
0.0010466
0.00103535
0.00102396
0.00101245
0.00100088
0.000989263
0.000977637
0.000966023
0.000954441
0.00094291
0.000931445
0.000920059
0.000908762
0.000897564
0.000886471
0.000875491
0.000864629
0.000853887
0.00084327
0.00083278
0.000822418