/*--------------------------------*- C++ -*----------------------------------*\
  =========                 |
  \\      /  F ield         | OpenFOAM: The Open Source CFD Toolbox
   \\    /   O peration     | Website:  https://openfoam.org
    \\  /    A nd           | Version:  7
     \\/     M anipulation  |
\*---------------------------------------------------------------------------*/
FoamFile
{
    version     2.0;
    format      ascii;
    class       volScalarField;
    location    "150";
    object      p;
}
// * * * * * * * * * * * * * * * * * * * * * * * * * * * * * * * * * * * * * //

dimensions      [0 2 -2 0 0 0 0];

internalField   nonuniform List<scalar> 
16900
(
-18.3519
-18.5018
-18.7485
-19.1406
-19.649
-20.2612
-20.9623
-21.7357
-22.5652
-23.4352
-24.3316
-25.242
-26.1557
-27.0637
-27.9585
-28.8339
-29.6844
-30.5065
-31.2956
-32.0498
-32.7654
-33.4411
-34.074
-34.6631
-35.2062
-35.7021
-36.1498
-36.5478
-36.8949
-37.1902
-37.4326
-37.6212
-37.7549
-37.8325
-37.8524
-37.8135
-37.7148
-37.5552
-37.3324
-37.0425
-36.6816
-36.2461
-35.7332
-35.1396
-34.4618
-33.6963
-32.8394
-31.8877
-30.8383
-29.6891
-28.439
-27.0885
-25.6402
-24.0986
-22.4711
-20.7679
-19.0021
-17.19
-15.3502
-13.5033
-11.6712
-9.87593
-8.13915
-6.48144
-4.92136
-3.47408
-2.15004
-0.954531
0.111056
1.04669
1.85195
2.52691
3.07709
3.51867
3.88118
4.18061
4.40946
4.56506
4.65719
4.69656
4.69285
4.65443
4.5885
4.50119
4.39771
4.28243
4.15904
4.03059
3.89958
3.76807
3.63767
3.50971
3.38517
3.26482
3.14922
3.03874
2.93364
2.83404
2.73998
2.65143
2.56826
2.49036
2.41753
2.34956
2.28623
2.2273
2.17252
2.12164
2.07442
2.03061
1.98996
1.95226
1.91726
1.88476
1.85456
1.82647
1.80029
1.77587
1.75303
1.73165
1.71157
1.69267
1.67482
1.65793
1.64188
1.6266
1.61198
1.59795
1.58445
1.57141
1.55876
1.54645
1.53443
1.52266
1.51109
1.49969
1.48842
1.47724
1.46613
1.45506
1.444
1.43293
1.42182
1.41065
1.3994
1.38804
1.37656
1.36492
1.35311
1.3411
1.32886
1.31638
1.30361
1.29054
1.27712
1.26332
1.24911
1.23444
1.21927
1.20356
1.18725
1.17031
1.15267
1.1343
1.11513
1.09513
1.07425
1.05245
1.02968
1.00594
0.98119
0.955433
0.928668
0.900913
0.872193
0.842552
0.812038
0.780717
0.748661
0.715952
0.682674
0.648921
0.614783
0.580354
0.545724
0.51098
0.476199
0.441457
0.406813
0.372321
0.338016
0.303922
0.27004
0.236348
0.202794
0.169284
0.135659
0.101656
0.0666369
0.0315392
-18.2697
-18.4473
-18.7029
-19.0893
-19.5946
-20.2059
-20.907
-21.6808
-22.5106
-23.3807
-24.277
-25.187
-26.1003
-27.0081
-27.9028
-28.7784
-29.6297
-30.4527
-31.2438
-32
-32.7184
-33.3971
-34.0337
-34.6266
-35.174
-35.6746
-36.127
-36.53
-36.8825
-37.1832
-37.4314
-37.626
-37.766
-37.8502
-37.877
-37.8454
-37.7548
-37.6045
-37.3919
-37.1125
-36.762
-36.3378
-35.8373
-35.2573
-34.5944
-33.8451
-33.0058
-32.0731
-31.0438
-29.9158
-28.6878
-27.36
-25.9345
-24.4157
-22.8104
-21.1282
-19.3819
-17.587
-15.7618
-13.9263
-12.1023
-10.3118
-8.57674
-6.9175
-5.35219
-3.89549
-2.55808
-1.34692
-0.266309
0.681325
1.49677
2.18581
2.76195
3.24355
3.63795
3.94779
4.18141
4.34581
4.44964
4.50215
4.51206
4.48717
4.43436
4.35956
4.26789
4.16367
4.05059
3.93168
3.80951
3.68611
3.5632
3.44207
3.3238
3.20917
3.09879
2.99306
2.89228
2.79661
2.70611
2.62078
2.54054
2.46528
2.39484
2.32903
2.26765
2.21047
2.15728
2.10782
2.06188
2.01922
1.97962
1.94284
1.90868
1.87693
1.84741
1.81991
1.79428
1.77034
1.74795
1.72695
1.70722
1.68863
1.67107
1.65442
1.63861
1.62352
1.60909
1.59523
1.58187
1.56896
1.55643
1.54423
1.53231
1.52062
1.50914
1.4978
1.4866
1.47548
1.46443
1.45341
1.44239
1.43136
1.42029
1.40915
1.39793
1.3866
1.37514
1.36353
1.35174
1.33974
1.32753
1.31506
1.3023
1.28924
1.27583
1.26203
1.24783
1.23316
1.21799
1.20227
1.18596
1.169
1.15136
1.13297
1.11379
1.09377
1.07286
1.05103
1.02824
1.00446
0.979681
0.95389
0.927093
0.899305
0.870555
0.840885
0.810349
0.779009
0.74694
0.714222
0.680945
0.647198
0.613074
0.578667
0.544066
0.509356
0.474619
0.439924
0.405336
0.370904
0.336665
0.302642
0.268838
0.235233
0.20178
0.168394
0.13494
0.101214
0.0667026
0.0334593
-18.3373
-18.5702
-18.8588
-19.2548
-19.7624
-20.3707
-21.0645
-21.8278
-22.6447
-23.5005
-24.3818
-25.277
-26.1762
-27.0709
-27.9542
-28.8199
-29.6631
-30.4798
-31.2661
-32.0192
-32.736
-33.4142
-34.0515
-34.6461
-35.1962
-35.7
-36.1563
-36.5637
-36.9209
-37.2268
-37.4804
-37.6807
-37.8269
-37.9174
-37.951
-37.9265
-37.8435
-37.7015
-37.4979
-37.2278
-36.8871
-36.4737
-35.985
-35.4179
-34.7691
-34.0349
-33.2117
-32.2959
-31.2842
-30.1741
-28.9641
-27.654
-26.2455
-24.7424
-23.1512
-21.4812
-19.7448
-17.9573
-16.1366
-14.3031
-12.4787
-10.6858
-8.9468
-7.28202
-5.70948
-4.24392
-2.89717
-1.67832
-0.594073
0.353152
1.16929
1.86776
2.46363
2.96487
3.37638
3.70464
3.95556
4.13659
4.25642
4.32408
4.34811
4.33632
4.2956
4.23196
4.15059
4.05589
3.9516
3.84082
3.72613
3.60967
3.49313
3.3779
3.26505
3.15542
3.04963
2.94813
2.85122
2.75911
2.67187
2.58952
2.51201
2.43925
2.37108
2.30735
2.24787
2.19242
2.14079
2.09277
2.04812
2.00663
1.96809
1.93228
1.89899
1.86803
1.83921
1.81236
1.7873
1.76389
1.74196
1.72139
1.70203
1.68378
1.66653
1.65016
1.63459
1.61972
1.60548
1.5918
1.5786
1.56583
1.55343
1.54134
1.52953
1.51793
1.50653
1.49527
1.48413
1.47308
1.46208
1.45111
1.44014
1.42915
1.41811
1.40701
1.39583
1.38453
1.37309
1.36151
1.34974
1.33777
1.32558
1.31313
1.3004
1.28736
1.27397
1.2602
1.246
1.23135
1.2162
1.20049
1.18419
1.16725
1.14961
1.13122
1.11203
1.092
1.07107
1.04921
1.02639
1.00257
0.977743
0.951896
0.925037
0.897182
0.868361
0.838618
0.808009
0.776597
0.74446
0.711681
0.678349
0.644556
0.610398
0.575966
0.541353
0.506645
0.471922
0.437255
0.402707
0.36833
0.334162
0.300225
0.266526
0.233049
0.199759
0.166587
0.133441
0.100209
0.0665407
0.0357771
-18.5478
-18.8283
-19.1413
-19.5443
-20.0511
-20.6516
-21.3324
-22.0789
-22.8767
-23.7121
-24.5729
-25.4485
-26.3292
-27.2073
-28.0758
-28.9291
-29.7621
-30.5704
-31.3506
-32.0992
-32.8133
-33.4901
-34.1274
-34.723
-35.2749
-35.7816
-36.2412
-36.6525
-37.0142
-37.3249
-37.5838
-37.7898
-37.9419
-38.039
-38.0795
-38.0625
-37.9877
-37.8544
-37.6597
-37.3989
-37.0683
-36.6662
-36.1899
-35.6365
-35.0026
-34.2844
-33.4781
-32.5796
-31.5856
-30.4931
-29.2999
-28.0054
-26.6107
-25.1192
-23.5367
-21.8722
-20.1377
-18.3484
-16.5225
-14.6806
-12.8453
-11.0395
-9.28573
-7.60503
-6.0163
-4.53593
-3.17803
-1.9525
-0.864358
0.0896767
0.924446
1.6477
2.26244
2.7762
3.1976
3.53423
3.793
3.98192
4.1098
4.1855
4.21748
4.21342
4.18019
4.12376
4.04931
3.96124
3.86327
3.75851
3.64955
3.5385
3.42708
3.31667
3.20835
3.10296
3.00115
2.90336
2.80991
2.72101
2.63676
2.55718
2.48224
2.41184
2.34586
2.28415
2.22652
2.17278
2.12272
2.07613
2.0328
1.99252
1.95508
1.92027
1.8879
1.85778
1.82973
1.80357
1.77914
1.7563
1.73489
1.71479
1.69586
1.678
1.66109
1.64504
1.62976
1.61515
1.60115
1.58767
1.57467
1.56207
1.54982
1.53788
1.52619
1.51471
1.50341
1.49225
1.48119
1.47022
1.45929
1.44838
1.43747
1.42654
1.41556
1.40451
1.39336
1.3821
1.37071
1.35916
1.34744
1.3355
1.32335
1.31093
1.29824
1.28522
1.27187
1.25813
1.24397
1.22935
1.21423
1.19856
1.18229
1.16536
1.14774
1.12937
1.11019
1.09016
1.06923
1.04735
1.0245
1.00065
0.975768
0.94986
0.92293
0.894993
0.866084
0.836246
0.805539
0.774029
0.741797
0.708925
0.67551
0.641641
0.60742
0.572937
0.538289
0.50356
0.468833
0.434178
0.399663
0.365334
0.331236
0.297389
0.263808
0.23048
0.197385
0.164473
0.131698
0.0990392
0.0662732
0.037765
-18.8757
-19.1797
-19.5039
-19.911
-20.4154
-21.0078
-21.6755
-22.4053
-23.1839
-23.9989
-24.8392
-25.6946
-26.5566
-27.4174
-28.2707
-29.1106
-29.9321
-30.7312
-31.5037
-32.2464
-32.956
-33.6298
-34.2652
-34.8599
-35.4119
-35.9192
-36.3803
-36.7937
-37.1578
-37.4716
-37.7339
-37.9438
-38.1004
-38.2023
-38.2483
-38.2375
-38.1696
-38.0439
-37.8569
-37.6041
-37.2827
-36.8912
-36.4271
-35.8873
-35.2684
-34.5663
-33.777
-32.8963
-31.9203
-30.8456
-29.6696
-28.3909
-27.01
-25.5295
-23.955
-22.2946
-20.5601
-18.7669
-16.9332
-15.08
-13.2303
-11.4073
-9.63476
-7.93501
-6.32917
-4.83543
-3.46836
-2.23377
-1.13098
-0.151369
0.709746
1.45059
2.07864
2.60288
3.03243
3.37573
3.64082
3.83622
3.97084
4.05347
4.09242
4.09531
4.0689
4.01915
3.95117
3.86934
3.77737
3.67835
3.57486
3.469
3.3625
3.25673
3.15277
3.05148
2.9535
2.85929
2.76919
2.6834
2.60204
2.52514
2.45268
2.38459
2.32074
2.26099
2.20518
2.15311
2.10459
2.05942
2.01739
1.9783
1.94196
1.90816
1.8767
1.84742
1.82014
1.79468
1.7709
1.74864
1.72776
1.70814
1.68966
1.6722
1.65565
1.63993
1.62494
1.61061
1.59685
1.5836
1.5708
1.55838
1.5463
1.5345
1.52295
1.5116
1.50041
1.48935
1.47839
1.46749
1.45664
1.44581
1.43496
1.42409
1.41316
1.40216
1.39107
1.37986
1.36851
1.35701
1.34532
1.33343
1.32132
1.30895
1.29629
1.28333
1.27002
1.25632
1.24221
1.22764
1.21257
1.19694
1.18071
1.16383
1.14625
1.12791
1.10876
1.08874
1.06782
1.04593
1.02306
0.999167
0.974236
0.948258
0.921243
0.893206
0.864185
0.834225
0.803389
0.771745
0.739379
0.706377
0.672836
0.638852
0.604528
0.569956
0.535236
0.500452
0.465691
0.431022
0.396515
0.362217
0.328175
0.294412
0.260946
0.227773
0.194883
0.162251
0.129866
0.0977813
0.0658387
0.0391257
-19.2821
-19.5914
-19.9171
-20.3231
-20.8217
-21.4038
-22.0572
-22.7696
-23.5288
-24.3235
-25.1431
-25.9788
-26.8219
-27.6655
-28.5031
-29.3293
-30.1391
-30.9281
-31.6924
-32.4284
-33.1327
-33.8026
-34.4352
-35.0282
-35.5792
-36.0867
-36.5484
-36.963
-37.3291
-37.6453
-37.9106
-38.1241
-38.2847
-38.3913
-38.4426
-38.438
-38.3773
-38.2592
-38.0797
-37.8346
-37.5226
-37.1421
-36.6907
-36.1651
-35.5618
-34.8766
-34.1051
-33.243
-32.2859
-31.2299
-30.0719
-28.8097
-27.443
-25.9741
-24.4077
-22.7515
-21.0169
-19.2194
-17.3772
-15.5111
-13.6453
-11.8037
-10.0123
-8.29541
-6.67544
-5.16914
-3.78772
-2.52999
-1.39699
-0.393206
0.484252
1.23953
1.88028
2.41538
2.85405
3.20526
3.47781
3.68066
3.82282
3.91307
3.95966
3.9701
3.95111
3.90858
3.84759
3.7725
3.68698
3.59411
3.49646
3.39614
3.29486
3.194
3.09465
2.99767
2.90372
2.81326
2.72665
2.6441
2.56575
2.49165
2.42178
2.35608
2.29444
2.23674
2.18281
2.13248
2.08557
2.04187
2.00121
1.96337
1.92818
1.89543
1.86495
1.83656
1.81009
1.78538
1.76227
1.74064
1.72033
1.70123
1.68322
1.66619
1.65004
1.63467
1.62001
1.60597
1.59249
1.57948
1.5669
1.55468
1.54279
1.53116
1.51975
1.50854
1.49747
1.48653
1.47567
1.46487
1.45411
1.44335
1.43258
1.42178
1.41092
1.39998
1.38894
1.37779
1.36649
1.35504
1.34341
1.33157
1.31951
1.30719
1.29459
1.28168
1.26843
1.25479
1.24074
1.22623
1.21122
1.19566
1.1795
1.16268
1.14516
1.12687
1.10776
1.08777
1.06687
1.04499
1.02211
0.998181
0.973198
0.947146
0.920038
0.891888
0.862739
0.832634
0.801643
0.769837
0.737307
0.70414
0.670443
0.63631
0.60185
0.567157
0.532335
0.497468
0.462648
0.427942
0.393424
0.359141
0.325144
0.291457
0.258105
0.225086
0.192408
0.160057
0.128057
0.0965054
0.0652636
0.0398567
-19.7274
-20.0287
-20.3477
-20.7481
-21.237
-21.8061
-22.4438
-23.1384
-23.8784
-24.6533
-25.4535
-26.2701
-27.0955
-27.9227
-28.7457
-29.5588
-30.3572
-31.1366
-31.8928
-32.6223
-33.3215
-33.9874
-34.6172
-35.2083
-35.7586
-36.2657
-36.7281
-37.144
-37.5119
-37.8306
-38.0989
-38.3159
-38.4807
-38.592
-38.6488
-38.6505
-38.5972
-38.487
-38.3147
-38.0774
-37.7749
-37.4058
-36.9673
-36.4563
-35.869
-35.2011
-34.448
-33.6049
-32.6672
-31.6305
-30.4912
-29.2462
-27.8946
-26.438
-24.8808
-23.2299
-21.4959
-19.6949
-17.8446
-15.966
-14.0854
-12.228
-10.4215
-8.69105
-7.0563
-5.52975
-4.11889
-2.83314
-1.67918
-0.657397
0.235631
1.00518
1.65879
2.2053
2.65408
3.01451
3.29591
3.50754
3.65853
3.75764
3.81305
3.8322
3.82173
3.78747
3.73447
3.66702
3.58879
3.50285
3.41175
3.31759
3.22209
3.12664
3.03235
2.94009
2.85051
2.76412
2.68128
2.60224
2.52712
2.45601
2.38891
2.32577
2.2665
2.21097
2.15906
2.11058
2.06538
2.02326
1.98404
1.94755
1.91358
1.88196
1.85251
1.82507
1.79948
1.77557
1.7532
1.73223
1.71254
1.694
1.6765
1.65994
1.64421
1.62924
1.61493
1.60122
1.58802
1.57529
1.56295
1.55095
1.53926
1.52781
1.51657
1.50551
1.49458
1.48376
1.47302
1.46233
1.45166
1.441
1.43031
1.41959
1.4088
1.39793
1.38696
1.37587
1.36463
1.35324
1.34167
1.32989
1.31789
1.30564
1.29311
1.28026
1.26708
1.25352
1.23955
1.22512
1.21019
1.19471
1.17863
1.16189
1.14444
1.12622
1.10717
1.08723
1.06636
1.0445
1.02161
0.997655
0.972619
0.94649
0.919279
0.891003
0.861706
0.831435
0.800265
0.76827
0.735546
0.702186
0.6683
0.633988
0.599363
0.564521
0.529571
0.494598
0.459697
0.424936
0.390392
0.356113
0.322152
0.288535
0.255293
0.222429
0.18996
0.157887
0.126251
0.0951783
0.0645084
0.0399835
-20.1747
-20.4585
-20.7654
-21.1562
-21.6327
-22.1873
-22.8088
-23.4858
-24.2077
-24.9643
-25.7464
-26.546
-27.3553
-28.1678
-28.9775
-29.779
-30.5675
-31.3382
-32.0874
-32.8111
-33.5059
-34.1685
-34.7961
-35.386
-35.9357
-36.4433
-36.9066
-37.3241
-37.6942
-38.0156
-38.2872
-38.5081
-38.6774
-38.7937
-38.8561
-38.8645
-38.8188
-38.7164
-38.5512
-38.3217
-38.0291
-37.6714
-37.2459
-36.7495
-36.1782
-35.5275
-34.7927
-33.9686
-33.0502
-32.0328
-30.9123
-29.685
-28.3488
-26.9051
-25.3579
-23.7133
-21.9806
-20.1767
-18.3204
-16.4318
-14.5407
-12.6721
-10.8532
-9.1072
-7.4479
-5.89409
-4.46102
-3.15607
-1.98422
-0.94591
-0.0379373
0.745325
1.41152
1.96959
2.42911
2.79978
3.09124
3.31298
3.47418
3.58355
3.6492
3.67846
3.67788
3.6532
3.60941
3.55077
3.4809
3.40286
3.31919
3.232
3.14301
3.05362
2.96496
2.87791
2.79317
2.71126
2.63255
2.55732
2.48573
2.41786
2.35376
2.29338
2.23665
2.18347
2.13372
2.08723
2.04387
2.00344
1.96578
1.93072
1.89807
1.86766
1.83933
1.81291
1.78825
1.7652
1.74362
1.72338
1.70435
1.68642
1.66947
1.65342
1.63815
1.6236
1.60968
1.59631
1.58344
1.57099
1.55892
1.54716
1.53569
1.52444
1.51338
1.50248
1.49171
1.48103
1.47041
1.45984
1.44928
1.43871
1.42812
1.41747
1.40677
1.39597
1.38508
1.37405
1.36289
1.35157
1.34007
1.32836
1.31643
1.30425
1.29179
1.27903
1.26593
1.25245
1.23857
1.22423
1.2094
1.19401
1.17803
1.16139
1.14403
1.1259
1.10693
1.08705
1.06623
1.04439
1.0215
0.99752
0.972433
0.946219
0.918898
0.890481
0.86102
0.830561
0.799189
0.766977
0.734033
0.70045
0.666348
0.631828
0.597011
0.561995
0.526895
0.491794
0.456794
0.421963
0.387381
0.353094
0.319164
0.285612
0.252479
0.219768
0.187508
0.155703
0.12441
0.0937587
0.0635587
0.0395736
-20.5942
-20.854
-21.145
-21.5242
-21.9868
-22.5264
-23.132
-23.7926
-24.4979
-25.2381
-26.0045
-26.7891
-27.5847
-28.3848
-29.1834
-29.9752
-30.7553
-31.5193
-32.2628
-32.9822
-33.6738
-34.3343
-34.9606
-35.5501
-36.1003
-36.6089
-37.074
-37.4938
-37.8667
-38.1915
-38.4669
-38.6922
-38.8663
-38.988
-39.0565
-39.0718
-39.0338
-38.9388
-38.7807
-38.5593
-38.2765
-37.9301
-37.5175
-37.0352
-36.4794
-35.8454
-35.1282
-34.3224
-33.4227
-32.424
-31.3219
-30.1121
-28.7911
-27.3598
-25.8226
-24.1846
-22.4536
-20.6484
-18.7896
-16.8951
-14.9972
-13.1198
-11.283
-9.51561
-7.83768
-6.26594
-4.81512
-3.49382
-2.30663
-1.25403
-0.332837
0.462777
1.14064
1.70987
2.18022
2.56164
2.86398
3.09682
3.26936
3.39023
3.46739
3.50807
3.51868
3.50487
3.47154
3.42289
3.3625
3.2934
3.21811
3.13875
3.05705
2.97442
2.89203
2.81077
2.73136
2.65437
2.58019
2.50912
2.44137
2.37703
2.31617
2.25878
2.2048
2.15415
2.10672
2.06239
2.02099
1.98238
1.94639
1.91286
1.88162
1.85251
1.82538
1.80005
1.7764
1.75428
1.73354
1.71407
1.69576
1.67847
1.66212
1.64661
1.63184
1.61774
1.60423
1.59124
1.57871
1.56658
1.55479
1.54329
1.53205
1.52102
1.51016
1.49944
1.48883
1.47829
1.46781
1.45736
1.44692
1.43646
1.42596
1.41542
1.4048
1.39408
1.38327
1.37232
1.36124
1.34999
1.33856
1.32693
1.31508
1.30298
1.29061
1.27793
1.26493
1.25155
1.23777
1.22353
1.20881
1.19354
1.17767
1.16114
1.14389
1.12585
1.10697
1.08717
1.0664
1.0446
1.02171
0.997708
0.972564
0.94626
0.918815
0.890243
0.860598
0.82993
0.79833
0.765877
0.732685
0.698853
0.664508
0.629755
0.594722
0.55951
0.524239
0.488995
0.453882
0.418968
0.384339
0.35004
0.316134
0.282647
0.249622
0.217063
0.185008
0.153463
0.122488
0.0922094
0.0623953
0.0386874
-20.9625
-21.1951
-21.4686
-21.8346
-22.2832
-22.8083
-23.3991
-24.0449
-24.7355
-25.4618
-26.215
-26.9875
-27.772
-28.5621
-29.3521
-30.1366
-30.9107
-31.6697
-32.4097
-33.1265
-33.8164
-34.4762
-35.1026
-35.693
-36.2447
-36.7555
-37.2232
-37.6462
-38.0227
-38.3515
-38.6315
-38.8617
-39.0412
-39.1688
-39.2437
-39.2662
-39.2361
-39.1479
-38.9967
-38.7838
-38.5107
-38.1754
-37.775
-37.3063
-36.7652
-36.147
-35.4463
-34.6576
-33.7754
-32.7941
-31.7092
-30.5154
-29.2081
-27.788
-26.2599
-24.629
-22.9011
-21.0971
-19.2401
-17.344
-15.4352
-13.546
-11.6974
-9.91547
-8.22258
-6.63671
-5.17216
-3.83802
-2.6388
-1.57484
-0.642861
0.163186
0.85132
1.43083
1.91163
2.30382
2.61736
2.86185
3.04644
3.17964
3.26925
3.32235
3.34519
3.34331
3.32148
3.28384
3.2339
3.17466
3.10863
3.03791
2.96424
2.88906
2.81355
2.73863
2.66507
2.59344
2.5242
2.45766
2.39406
2.33354
2.27618
2.222
2.17098
2.12305
2.07812
2.03607
1.99678
1.96011
1.92591
1.89401
1.86428
1.83656
1.8107
1.78654
1.76396
1.74282
1.72299
1.70435
1.68678
1.67019
1.65448
1.63954
1.6253
1.61168
1.59861
1.58602
1.57386
1.56205
1.55056
1.53934
1.52835
1.51755
1.5069
1.49636
1.48593
1.47555
1.46522
1.4549
1.44458
1.43423
1.42384
1.41339
1.40286
1.39224
1.38151
1.37065
1.35965
1.34848
1.33713
1.32558
1.31382
1.3018
1.28953
1.27694
1.26404
1.25077
1.2371
1.22299
1.20838
1.19323
1.17749
1.16108
1.14396
1.12603
1.10725
1.08754
1.06684
1.04507
1.0222
0.998166
0.972963
0.94656
0.91898
0.890235
0.860388
0.829488
0.797637
0.764916
0.73145
0.697341
0.662728
0.627717
0.592447
0.557018
0.521559
0.486154
0.450917
0.41591
0.381227
0.346908
0.313026
0.279599
0.246682
0.214275
0.182423
0.151127
0.120453
0.0905071
0.0610272
0.0373999
-21.2638
-21.4681
-21.7232
-22.0761
-22.5111
-23.0229
-23.6005
-24.2336
-24.9122
-25.6272
-26.3701
-27.1332
-27.9096
-28.6927
-29.4769
-30.2566
-31.027
-31.7835
-32.5218
-33.2378
-33.928
-34.5886
-35.2167
-35.8093
-36.3638
-36.8778
-37.3494
-37.7764
-38.1575
-38.4912
-38.7764
-39.0123
-39.1977
-39.3316
-39.4134
-39.4435
-39.4212
-39.3394
-39.1948
-38.9905
-38.7271
-38.4023
-38.0136
-37.5575
-37.03
-36.4262
-35.7403
-34.9668
-34.1001
-33.1342
-32.064
-30.8844
-29.5888
-28.1787
-26.6598
-25.0387
-23.3194
-21.517
-19.6579
-17.7606
-15.8469
-13.9481
-12.0895
-10.2971
-8.59373
-6.99798
-5.52406
-4.18113
-2.97357
-1.9015
-0.961445
-0.147143
0.549613
1.13825
1.62881
2.03145
2.35614
2.61247
2.80943
2.9554
3.05801
3.12413
3.15987
3.1706
3.161
3.13509
3.09633
3.04766
2.99157
2.93015
2.86513
2.79798
2.72988
2.66181
2.59454
2.52869
2.46475
2.40308
2.34394
2.28751
2.23391
2.18316
2.13529
2.09025
2.04798
2.00837
1.97133
1.93671
1.9044
1.87425
1.84612
1.81986
1.79534
1.77242
1.75098
1.73087
1.712
1.69423
1.67746
1.6616
1.64655
1.63223
1.61855
1.60544
1.59283
1.58066
1.56888
1.55742
1.54625
1.53532
1.52459
1.51403
1.5036
1.49326
1.48301
1.4728
1.46261
1.45243
1.44224
1.43201
1.42174
1.41139
1.40096
1.39043
1.37979
1.36902
1.3581
1.34702
1.33576
1.3243
1.31263
1.30071
1.28853
1.27605
1.26326
1.2501
1.23655
1.22256
1.20809
1.19308
1.17747
1.1612
1.14421
1.12641
1.10774
1.08812
1.06749
1.04577
1.02291
0.998848
0.973578
0.947066
0.919339
0.890404
0.860333
0.82918
0.797052
0.764038
0.730272
0.695863
0.660957
0.625667
0.590139
0.554477
0.518815
0.483238
0.447865
0.412759
0.378015
0.343676
0.309815
0.276452
0.243642
0.211387
0.179734
0.148681
0.11829
0.0886464
0.0594613
0.0357713
-21.4884
-21.6647
-21.9021
-22.242
-22.6645
-23.1646
-23.7311
-24.354
-25.0233
-25.73
-26.4656
-27.2226
-27.9938
-28.7728
-29.5538
-30.3314
-31.1007
-31.8568
-32.5957
-33.313
-34.0051
-34.6684
-35.2996
-35.8959
-36.4544
-36.973
-37.4493
-37.8815
-38.268
-38.6074
-38.8986
-39.1407
-39.3326
-39.4733
-39.5623
-39.6003
-39.5856
-39.5099
-39.372
-39.1763
-38.9221
-38.6073
-38.2292
-37.7844
-37.269
-36.6779
-36.0046
-35.2441
-34.3903
-33.4373
-32.3802
-31.2144
-29.9333
-28.5346
-27.0244
-25.4103
-23.699
-21.9013
-20.0409
-18.1397
-16.222
-14.3172
-12.4524
-10.6538
-8.94455
-7.3435
-5.86472
-4.51721
-3.30511
-2.22825
-1.28289
-0.462568
0.241099
0.837637
1.33712
1.74971
2.08531
2.35339
2.56279
2.72168
2.8375
2.91692
2.96589
2.9896
2.99262
2.97886
2.95171
2.91406
2.86835
2.81666
2.76074
2.70203
2.64175
2.5809
2.52029
2.46056
2.40224
2.34572
2.29131
2.23921
2.18957
2.14246
2.09793
2.05594
2.01648
1.97944
1.94476
1.91231
1.882
1.85367
1.82722
1.8025
1.7794
1.75778
1.73753
1.71851
1.70064
1.68378
1.66786
1.65276
1.63841
1.62472
1.61162
1.59904
1.58692
1.57519
1.56381
1.55272
1.54188
1.53125
1.5208
1.51048
1.50027
1.49014
1.48008
1.47004
1.46001
1.44998
1.43992
1.42981
1.41965
1.40941
1.39909
1.38865
1.37811
1.36742
1.3566
1.3456
1.33444
1.32307
1.31149
1.29967
1.28759
1.27522
1.26255
1.24951
1.23609
1.22224
1.20791
1.19304
1.17759
1.16146
1.14461
1.12695
1.1084
1.08888
1.06833
1.04666
1.02381
0.999724
0.974384
0.947753
0.919865
0.890723
0.860411
0.82898
0.796554
0.76322
0.729132
0.694396
0.659178
0.623586
0.587783
0.551869
0.515991
0.48023
0.444714
0.4095
0.374694
0.340329
0.306489
0.273186
0.240487
0.208381
0.176927
0.14611
0.115995
0.0866313
0.0577267
0.0338749
-21.6324
-21.7817
-22.0023
-22.3298
-22.7414
-23.2317
-23.7895
-24.4048
-25.0677
-25.7691
-26.5006
-27.2544
-28.0235
-28.8014
-29.5821
-30.3602
-31.1307
-31.8888
-32.6302
-33.3508
-34.0466
-34.714
-35.3499
-35.9511
-36.515
-37.0391
-37.5213
-37.9596
-38.3523
-38.6982
-38.996
-39.2448
-39.4438
-39.5916
-39.6881
-39.7341
-39.7264
-39.6569
-39.5262
-39.3386
-39.0929
-38.7871
-38.4185
-37.9838
-37.4791
-36.8996
-36.239
-35.4908
-34.6496
-33.709
-32.6635
-31.5093
-30.2413
-28.8545
-27.353
-25.7437
-24.0351
-22.2397
-20.3787
-18.4755
-16.5558
-14.6483
-12.7812
-10.9808
-9.2704
-7.66871
-6.18958
-4.8417
-3.62882
-2.55043
-1.60249
-0.778313
-0.0694087
0.533792
1.04134
1.46329
1.80942
2.08902
2.31072
2.48247
2.61149
2.70425
2.7665
2.80329
2.81904
2.81757
2.8022
2.77575
2.74063
2.6989
2.6523
2.60228
2.55008
2.4967
2.44298
2.38962
2.33715
2.286
2.23652
2.18894
2.14345
2.10015
2.0591
2.02032
1.98378
1.94944
1.91722
1.88704
1.85881
1.83239
1.80769
1.78458
1.76296
1.74269
1.72368
1.7058
1.68896
1.67306
1.658
1.6437
1.63008
1.61705
1.60456
1.59252
1.5809
1.56963
1.55866
1.54795
1.53745
1.52713
1.51696
1.5069
1.49693
1.48702
1.47714
1.46728
1.45742
1.44753
1.43761
1.42763
1.41759
1.40746
1.39724
1.3869
1.37645
1.36586
1.35513
1.34423
1.33316
1.32188
1.3104
1.29868
1.28672
1.27446
1.2619
1.249
1.23572
1.222
1.20782
1.19311
1.17781
1.16184
1.14515
1.12762
1.10921
1.08981
1.06934
1.04771
1.02488
1.00076
0.975348
0.948588
0.920525
0.89116
0.860586
0.828856
0.796108
0.762433
0.727998
0.692916
0.657363
0.621454
0.585359
0.549182
0.513077
0.477124
0.441458
0.406134
0.371262
0.336873
0.303054
0.269815
0.237225
0.205271
0.174013
0.143429
0.113577
0.0844816
0.055847
0.0317667
-21.6968
-21.8206
-22.0258
-22.3418
-22.744
-23.2265
-23.7779
-24.3881
-25.0473
-25.7463
-26.4765
-27.2301
-27.9999
-28.7792
-29.5622
-30.3433
-31.1173
-31.8795
-32.6254
-33.3509
-34.052
-34.7251
-35.3669
-35.9744
-36.5447
-37.0755
-37.5645
-38.0097
-38.4095
-38.7625
-39.0677
-39.3239
-39.5304
-39.6859
-39.7904
-39.8447
-39.8436
-39.7806
-39.6577
-39.4784
-39.2413
-38.9444
-38.5851
-38.1599
-37.6651
-37.0962
-36.4472
-35.7109
-34.8814
-33.9522
-32.9174
-31.7721
-30.5116
-29.1322
-27.6365
-26.0304
-24.3233
-22.5292
-20.6684
-18.7648
-16.8453
-14.9386
-13.0731
-11.2753
-9.56833
-7.97061
-6.49556
-5.15137
-3.94132
-2.86448
-1.9165
-1.09052
-0.377951
0.23073
0.745465
1.17615
1.53237
1.82314
2.05689
2.24129
2.38334
2.48929
2.56469
2.61444
2.64283
2.65359
2.64995
2.63468
2.61016
2.57842
2.5412
2.49995
2.45591
2.41012
2.36344
2.31656
2.27008
2.22445
2.18004
2.13713
2.09591
2.05654
2.0191
1.98362
1.95012
1.91856
1.8889
1.86107
1.83498
1.81054
1.78766
1.76621
1.74611
1.72724
1.70951
1.69281
1.67705
1.66212
1.64797
1.63449
1.62161
1.60927
1.5974
1.58593
1.57482
1.56402
1.55348
1.54315
1.53301
1.523
1.51312
1.50332
1.49359
1.48389
1.47422
1.46453
1.45484
1.4451
1.43532
1.42547
1.41555
1.40553
1.39541
1.38518
1.37483
1.36433
1.35369
1.34288
1.33191
1.32073
1.30935
1.29774
1.28588
1.27374
1.26131
1.24854
1.2354
1.22183
1.20781
1.19326
1.17812
1.16232
1.14579
1.12842
1.11015
1.09086
1.07049
1.04892
1.02611
1.00195
0.976455
0.949559
0.92131
0.891706
0.860853
0.828804
0.795714
0.761676
0.726874
0.691425
0.65552
0.619275
0.582876
0.546423
0.510082
0.47393
0.438109
0.40267
0.367731
0.333315
0.299518
0.266341
0.233862
0.202058
0.170998
0.140642
0.111053
0.0822166
0.0538602
0.029516
-21.6857
-21.7861
-21.9775
-22.2826
-22.6771
-23.1535
-23.7004
-24.3078
-24.9657
-25.6647
-26.3962
-27.1521
-27.9251
-28.7085
-29.4962
-30.2824
-31.062
-31.8302
-32.5826
-33.3147
-34.0228
-34.703
-35.3521
-35.967
-36.545
-37.0834
-37.5802
-38.0332
-38.441
-38.802
-39.1152
-39.3796
-39.5942
-39.7579
-39.8712
-39.9342
-39.9397
-39.8834
-39.7691
-39.5984
-39.3701
-39.0821
-38.732
-38.3162
-37.8307
-37.2709
-36.631
-35.904
-35.0835
-34.1629
-33.1357
-31.9965
-30.7407
-29.3655
-27.8727
-26.2682
-24.5617
-22.7681
-20.9081
-19.0059
-17.089
-15.1864
-13.3264
-11.5356
-9.83658
-8.2473
-6.78055
-5.4439
-4.24004
-3.1676
-2.22192
-1.39598
-0.681213
-0.0681693
0.452904
0.891671
1.25744
1.55896
1.80437
2.00108
2.15584
2.27467
2.36294
2.42539
2.46618
2.48895
2.49683
2.49257
2.4785
2.45664
2.42871
2.39618
2.36028
2.32208
2.28244
2.24209
2.20166
2.1616
2.12234
2.08416
2.04731
2.01194
1.97818
1.94609
1.9157
1.88699
1.85996
1.83453
1.81066
1.78825
1.76723
1.74749
1.72896
1.71152
1.69511
1.67961
1.66495
1.65103
1.6378
1.62516
1.61305
1.6014
1.59017
1.57928
1.5687
1.55837
1.54826
1.53833
1.52854
1.51887
1.50928
1.49975
1.49026
1.48078
1.47131
1.4618
1.45228
1.44269
1.43305
1.42333
1.41353
1.40362
1.39362
1.38349
1.37323
1.36283
1.35229
1.34158
1.3307
1.31962
1.30834
1.29683
1.28509
1.27307
1.26077
1.24813
1.23514
1.22172
1.20787
1.19347
1.17852
1.16288
1.14653
1.12932
1.1112
1.09203
1.07176
1.05025
1.02745
1.00327
0.977684
0.950642
0.922196
0.892339
0.861189
0.828805
0.795352
0.760933
0.725746
0.689913
0.653641
0.61705
0.580335
0.543598
0.507015
0.47066
0.434682
0.399129
0.364123
0.329683
0.295909
0.262797
0.23043
0.198778
0.167912
0.137783
0.108451
0.0798716
0.0517988
0.0271738
-21.6061
-21.6851
-21.8639
-22.159
-22.5469
-23.0187
-23.5631
-24.1697
-24.8284
-25.5299
-26.265
-27.0256
-27.8042
-28.5938
-29.3881
-30.1815
-30.9686
-31.7446
-32.5048
-33.245
-33.9613
-34.6499
-35.3075
-35.9309
-36.5175
-37.0646
-37.57
-38.0318
-38.4482
-38.818
-39.1399
-39.4131
-39.6364
-39.809
-39.9314
-40.003
-40.0153
-39.9662
-39.8605
-39.6984
-39.4786
-39.1992
-38.8575
-38.45
-37.9728
-37.4207
-36.7881
-36.0681
-35.254
-34.3391
-33.3166
-32.1807
-30.927
-29.553
-28.0606
-26.4558
-24.749
-22.9558
-21.0972
-19.1982
-17.2865
-15.3913
-13.5409
-11.7613
-10.0746
-8.49797
-7.04348
-5.71788
-4.52326
-3.45776
-2.51644
-1.69222
-0.976545
-0.360172
0.166412
0.612576
0.987313
1.29907
1.55566
1.76423
1.93126
2.06256
2.1633
2.23807
2.29091
2.32533
2.34444
2.3509
2.34704
2.33483
2.31601
2.29203
2.26416
2.23343
2.20077
2.16691
2.13249
2.09801
2.0639
2.03048
1.99802
1.96669
1.93666
1.90799
1.88076
1.85496
1.83059
1.80761
1.786
1.76565
1.74653
1.72853
1.7116
1.69563
1.68056
1.66628
1.65275
1.63985
1.62756
1.61577
1.60444
1.5935
1.58292
1.57261
1.56257
1.55272
1.54306
1.53352
1.5241
1.51475
1.50546
1.49619
1.48695
1.47769
1.46842
1.4591
1.44974
1.44031
1.43081
1.42122
1.41154
1.40175
1.39185
1.38182
1.37167
1.36136
1.35092
1.34029
1.32951
1.31853
1.30736
1.29596
1.28433
1.27243
1.26026
1.24775
1.23491
1.22165
1.20796
1.19374
1.17896
1.16351
1.14733
1.13029
1.11233
1.0933
1.07313
1.05169
1.02892
1.00469
0.979025
0.951832
0.923181
0.893059
0.861601
0.828863
0.795034
0.760215
0.724629
0.688398
0.651748
0.614797
0.577759
0.540732
0.503904
0.467341
0.431206
0.395535
0.360464
0.325997
0.292249
0.2592
0.226946
0.195442
0.164772
0.134866
0.105794
0.0774704
0.0497008
0.024802
-21.466
-21.5253
-21.693
-21.9784
-22.361
-22.8298
-23.3734
-23.9813
-24.643
-25.349
-26.0899
-26.8573
-27.6433
-28.441
-29.2438
-30.0458
-30.8419
-31.6268
-32.3962
-33.1457
-33.8712
-34.5691
-35.2359
-35.8686
-36.4645
-37.0208
-37.5355
-38.0066
-38.4323
-38.8113
-39.1424
-39.4247
-39.6571
-39.839
-39.9709
-40.0505
-40.0699
-40.0286
-39.9314
-39.7777
-39.566
-39.2945
-38.9604
-38.5603
-38.0898
-37.5441
-36.9169
-36.2018
-35.3918
-34.4798
-33.459
-32.3236
-31.0692
-29.6938
-28.1996
-26.5929
-24.8849
-23.0921
-21.2359
-19.3419
-17.4382
-15.5538
-13.7169
-11.9527
-10.2825
-8.72252
-7.28389
-5.9725
-4.78978
-3.73342
-2.79827
-1.97719
-1.26179
-0.643052
-0.111769
0.341082
0.724149
1.04553
1.31274
1.53262
1.71139
1.85463
1.96735
2.05396
2.11839
2.16406
2.194
2.21083
2.21684
2.214
2.20402
2.18837
2.16831
2.14491
2.11909
2.09161
2.06312
2.03415
2.00515
1.97646
1.94838
1.9211
1.8948
1.86958
1.84552
1.82263
1.80096
1.78046
1.76111
1.74286
1.72566
1.70942
1.69411
1.67962
1.66591
1.65287
1.64048
1.62862
1.61728
1.60635
1.59581
1.58559
1.57566
1.56595
1.55644
1.54708
1.53786
1.52873
1.51967
1.51065
1.50166
1.49267
1.48367
1.47463
1.46557
1.45643
1.44724
1.43796
1.4286
1.41914
1.40958
1.3999
1.39011
1.38018
1.37013
1.35992
1.34957
1.33904
1.32836
1.31747
1.3064
1.29511
1.2836
1.27182
1.25978
1.24741
1.23472
1.22161
1.20809
1.19405
1.17946
1.16418
1.14819
1.13133
1.11353
1.09464
1.07459
1.05321
1.03047
1.00621
0.980457
0.953108
0.924245
0.893848
0.862069
0.828966
0.794746
0.759517
0.723518
0.686879
0.649842
0.612527
0.575161
0.537841
0.500766
0.463998
0.427707
0.391924
0.356788
0.322301
0.288578
0.255597
0.223455
0.192102
0.161623
0.131941
0.103123
0.0750573
0.0476029
0.0224439
-21.2753
-21.3162
-21.4735
-21.7501
-22.128
-22.5952
-23.1398
-23.7507
-24.4175
-25.13
-25.8786
-26.6544
-27.4497
-28.2568
-29.0694
-29.8814
-30.6873
-31.4823
-32.2616
-33.0209
-33.7562
-34.4638
-35.1404
-35.7829
-36.3884
-36.9544
-37.4787
-37.9593
-38.3945
-38.783
-39.1236
-39.4153
-39.6571
-39.8484
-39.9898
-40.0769
-40.1033
-40.0703
-39.9814
-39.8358
-39.6319
-39.3676
-39.0403
-38.6463
-38.1814
-37.6402
-37.0168
-36.3044
-35.4959
-34.5841
-33.5623
-32.4245
-31.1667
-29.7875
-28.2894
-26.6795
-24.9698
-23.1776
-21.3251
-19.4384
-17.5456
-15.6756
-13.856
-12.1112
-10.4613
-8.92161
-7.50201
-6.20756
-5.03901
-3.99365
-3.06616
-2.24946
-1.53536
-0.915134
-0.379939
0.0788757