/*--------------------------------*- C++ -*----------------------------------*\
  =========                 |
  \\      /  F ield         | OpenFOAM: The Open Source CFD Toolbox
   \\    /   O peration     | Website:  https://openfoam.org
    \\  /    A nd           | Version:  7
     \\/     M anipulation  |
\*---------------------------------------------------------------------------*/
FoamFile
{
    version     2.0;
    format      ascii;
    class       surfaceScalarField;
    location    "150";
    object      phi;
}
// * * * * * * * * * * * * * * * * * * * * * * * * * * * * * * * * * * * * * //

dimensions      [0 3 -1 0 0 0 0];

internalField   nonuniform List<scalar> 
33502
(
-2.34668e-07
2.34709e-07
-6.22092e-07
3.87444e-07
-1.04075e-06
4.18671e-07
-1.46141e-06
4.20688e-07
-1.87709e-06
4.15701e-07
-2.28358e-06
4.06525e-07
-2.67775e-06
3.94199e-07
-3.05736e-06
3.79621e-07
-3.42087e-06
3.63543e-07
-3.76747e-06
3.46595e-07
-4.09676e-06
3.29293e-07
-4.40878e-06
3.12043e-07
-4.70386e-06
2.9508e-07
-4.98249e-06
2.78653e-07
-5.2453e-06
2.62812e-07
-5.49297e-06
2.47677e-07
-5.72607e-06
2.33221e-07
-5.94551e-06
2.19415e-07
-6.15163e-06
2.06297e-07
-6.34538e-06
1.93711e-07
-6.52697e-06
1.81717e-07
-6.69717e-06
1.70167e-07
-6.85617e-06
1.59106e-07
-7.00459e-06
1.48404e-07
-7.14262e-06
1.38089e-07
-7.27065e-06
1.28089e-07
-7.38899e-06
1.18366e-07
-7.49788e-06
1.08901e-07
-7.59754e-06
9.96652e-08
-7.68817e-06
9.0628e-08
-7.76994e-06
8.17586e-08
-7.84297e-06
7.30248e-08
-7.90737e-06
6.43934e-08
-7.96321e-06
5.58267e-08
-8.01051e-06
4.72802e-08
-8.04922e-06
3.87029e-08
-8.07928e-06
3.0039e-08
-8.10052e-06
2.12305e-08
-8.11274e-06
1.2205e-08
-8.11558e-06
2.82908e-09
-8.10862e-06
-6.98135e-09
-8.0914e-06
-1.72325e-08
-8.06342e-06
-2.79856e-08
-8.0241e-06
-3.93223e-08
-7.97277e-06
-5.13334e-08
-7.90866e-06
-6.41045e-08
-7.83094e-06
-7.77135e-08
-7.7387e-06
-9.22208e-08
-7.63101e-06
-1.07666e-07
-7.50692e-06
-1.24061e-07
-7.36551e-06
-1.41382e-07
-7.20591e-06
-1.59566e-07
-7.02737e-06
-1.78498e-07
-6.82932e-06
-1.98016e-07
-6.61139e-06
-2.17902e-07
-6.37348e-06
-2.37888e-07
-6.11581e-06
-2.57653e-07
-5.83896e-06
-2.76846e-07
-5.54387e-06
-2.95089e-07
-5.2319e-06
-3.11995e-07
-4.90473e-06
-3.27188e-07
-4.56444e-06
-3.40329e-07
-4.21335e-06
-3.51128e-07
-3.854e-06
-3.59381e-07
-3.48907e-06
-3.64971e-07
-3.12123e-06
-3.67872e-07
-2.75313e-06
-3.68127e-07
-2.38728e-06
-3.65898e-07
-2.02591e-06
-3.61408e-07
-1.67084e-06
-3.55104e-07
-1.32298e-06
-3.47883e-07
-9.83021e-07
-3.39948e-07
-6.51974e-07
-3.31032e-07
-3.24834e-07
-3.27128e-07
-1.29862e-09
-3.23501e-07
3.09346e-07
-3.10574e-07
6.00818e-07
-2.91379e-07
8.71748e-07
-2.70837e-07
1.12336e-06
-2.51535e-07
1.35701e-06
-2.33614e-07
1.57395e-06
-2.16929e-07
1.77526e-06
-2.01335e-07
1.96196e-06
-1.86722e-07
2.13493e-06
-1.73013e-07
2.29504e-06
-1.6015e-07
2.44308e-06
-1.48088e-07
2.57983e-06
-1.36786e-07
2.70599e-06
-1.26207e-07
2.82227e-06
-1.16316e-07
2.92932e-06
-1.07075e-07
3.02774e-06
-9.84549e-08
3.11813e-06
-9.04167e-08
3.20104e-06
-8.29328e-08
3.27699e-06
-7.5967e-08
3.34647e-06
-6.94944e-08
3.40994e-06
-6.34809e-08
3.46784e-06
-5.79049e-08
3.52057e-06
-5.2735e-08
3.56852e-06
-4.79523e-08
3.61205e-06
-4.35283e-08
3.65149e-06
-3.94465e-08
3.68718e-06
-3.56809e-08
3.7194e-06
-3.22171e-08
3.74844e-06
-2.90312e-08
3.77455e-06
-2.61107e-08
3.79799e-06
-2.34334e-08
3.81899e-06
-2.09886e-08
3.83775e-06
-1.87557e-08
3.85449e-06
-1.67252e-08
3.86938e-06
-1.48783e-08
3.88259e-06
-1.32067e-08
3.8943e-06
-1.16931e-08
3.90464e-06
-1.03302e-08
3.91375e-06
-9.10228e-09
3.92176e-06
-8.00321e-09
3.92879e-06
-7.01869e-09
3.93495e-06
-6.14347e-09
3.94032e-06
-5.3647e-09
3.94501e-06
-4.67804e-09
3.94909e-06
-4.07197e-09
3.95264e-06
-3.54299e-09
3.95574e-06
-3.08083e-09
3.95843e-06
-2.68277e-09
3.96078e-06
-2.33969e-09
3.96283e-06
-2.04958e-09
3.96465e-06
-1.80438e-09
3.96625e-06
-1.60274e-09
3.9677e-06
-1.43756e-09
3.96901e-06
-1.30806e-09
3.97023e-06
-1.20803e-09
3.97137e-06
-1.13721e-09
3.97247e-06
-1.09018e-09
3.97354e-06
-1.06717e-09
3.97461e-06
-1.06344e-09
3.97569e-06
-1.07967e-09
3.97681e-06
-1.11174e-09
3.97797e-06
-1.16074e-09
3.9792e-06
-1.22311e-09
3.9805e-06
-1.30031e-09
3.98189e-06
-1.38928e-09
3.98339e-06
-1.49183e-09
3.985e-06
-1.60535e-09
3.98673e-06
-1.73199e-09
3.9886e-06
-1.86955e-09
3.99062e-06
-2.02048e-09
3.99281e-06
-2.18294e-09
3.99517e-06
-2.35967e-09
3.99772e-06
-2.54916e-09
4.00047e-06
-2.75437e-09
4.00345e-06
-2.97405e-09
4.00666e-06
-3.21132e-09
4.01013e-06
-3.46511e-09
4.01387e-06
-3.73858e-09
4.0179e-06
-4.03066e-09
4.02225e-06
-4.34436e-09
4.02693e-06
-4.67846e-09
4.03196e-06
-5.03555e-09
4.03738e-06
-5.41392e-09
4.0432e-06
-5.81541e-09
4.04944e-06
-6.23748e-09
4.05612e-06
-6.68088e-09
4.06326e-06
-7.14179e-09
4.07088e-06
-7.61953e-09
4.07899e-06
-8.10872e-09
4.0876e-06
-8.60699e-09
4.0967e-06
-9.10731e-09
4.10631e-06
-9.60569e-09
4.1164e-06
-1.00936e-08
4.12697e-06
-1.05658e-08
4.13798e-06
-1.1013e-08
4.14941e-06
-1.14295e-08
4.16122e-06
-1.18061e-08
4.17336e-06
-1.21378e-08
4.18577e-06
-1.24164e-08
4.19841e-06
-1.26388e-08
4.21121e-06
-1.27991e-08
4.22411e-06
-1.28963e-08
4.23704e-06
-1.29274e-08
4.24993e-06
-1.28944e-08
4.26273e-06
-1.27968e-08
4.27537e-06
-1.26394e-08
4.2878e-06
-1.24242e-08
4.29996e-06
-1.21581e-08
4.3118e-06
-1.1845e-08
4.3233e-06
-1.14932e-08
4.33441e-06
-1.1108e-08
4.34511e-06
-1.06986e-08
4.35538e-06
-1.02708e-08
4.36522e-06
-9.83444e-09
4.37462e-06
-9.39582e-09
4.38359e-06
-8.96508e-09
4.39215e-06
-8.54978e-09
4.40032e-06
-8.16145e-09
4.40815e-06
-7.81137e-09
4.41568e-06
-7.51724e-09
4.423e-06
-7.30485e-09
4.43024e-06
-7.22136e-09
4.43764e-06
-7.36744e-09
4.44562e-06
-7.96054e-09
-1.00408e-08
-3.52938e-07
5.87695e-07
-7.21638e-07
7.56156e-07
-1.10762e-06
8.04673e-07
-1.4993e-06
8.12398e-07
-1.88819e-06
8.04645e-07
-2.26885e-06
7.87224e-07
-2.63772e-06
7.63136e-07
-2.99255e-06
7.34496e-07
-3.33193e-06
7.02983e-07
-3.6552e-06
6.69912e-07
-3.96212e-06
6.36303e-07
-4.25294e-06
6.02869e-07
-4.52796e-06
5.70185e-07
-4.78784e-06
5.38527e-07
-5.03309e-06
5.08134e-07
-5.26446e-06
4.79044e-07
-5.48246e-06
4.51304e-07
-5.68781e-06
4.24836e-07
-5.88102e-06
3.99562e-07
-6.06265e-06
3.75384e-07
-6.23311e-06
3.52207e-07
-6.39284e-06
3.29923e-07
-6.54216e-06
3.08445e-07
-6.68142e-06
2.87682e-07
-6.81086e-06
2.67561e-07
-6.93074e-06
2.4799e-07
-7.04128e-06
2.28924e-07
-7.14267e-06
2.10292e-07
-7.23504e-06
1.92042e-07
-7.31854e-06
1.74119e-07
-7.39325e-06
1.56462e-07
-7.45924e-06
1.39013e-07
-7.51656e-06
1.21705e-07
-7.56521e-06
1.04469e-07
-7.60517e-06
8.72244e-08
-7.63636e-06
6.98765e-08
-7.65865e-06
5.23177e-08
-7.67186e-06
3.44334e-08
-7.67578e-06
1.61112e-08
-7.67018e-06
-2.78654e-09
-7.65482e-06
-2.23501e-08
-7.62939e-06
-4.26751e-08
-7.59344e-06
-6.39414e-08
-7.54644e-06
-8.63293e-08
-7.48775e-06
-1.10017e-07
-7.41668e-06
-1.35175e-07
-7.33243e-06
-1.61953e-07
-7.23417e-06
-1.90471e-07
-7.12101e-06
-2.20807e-07
-6.99206e-06
-2.52986e-07
-6.84645e-06
-2.86968e-07
-6.68336e-06
-3.2263e-07
-6.50207e-06
-3.59758e-07
-6.30202e-06
-3.98034e-07
-6.08286e-06
-4.37042e-07
-5.84447e-06
-4.76256e-07
-5.58706e-06
-5.15058e-07
-5.31115e-06
-5.52752e-07
-5.01765e-06
-5.88596e-07
-4.70783e-06
-6.21828e-07
-4.38333e-06
-6.51706e-07
-4.04612e-06
-6.7757e-07
-3.69842e-06
-6.98853e-07
-3.34267e-06
-7.15164e-07
-2.98139e-06
-7.26269e-07
-2.61715e-06
-7.32138e-07
-2.25243e-06
-7.32869e-07
-1.88949e-06
-7.28865e-07
-1.53035e-06
-7.20575e-07
-1.17656e-06
-7.08912e-07
-8.28784e-07
-6.95662e-07
-4.87331e-07
-6.81394e-07
-1.49182e-07
-6.69166e-07
1.77727e-07
-6.54031e-07
4.82318e-07
-6.28082e-07
7.66846e-07
-5.95084e-07
1.0347e-06
-5.59205e-07
1.28734e-06
-5.2344e-07
1.52483e-06
-4.88989e-07
1.7474e-06
-4.5617e-07
1.95549e-06
-4.25023e-07
2.14967e-06
-3.95522e-07
2.33056e-06
-3.67624e-07
2.49881e-06
-3.41287e-07
2.6551e-06
-3.16467e-07
2.80011e-06
-2.93119e-07
2.93448e-06
-2.7119e-07
3.05888e-06
-2.50629e-07
3.17392e-06
-2.31375e-07
3.28019e-06
-2.13374e-07
3.37828e-06
-1.9656e-07
3.46872e-06
-1.80878e-07
3.55204e-06
-1.66263e-07
3.62872e-06
-1.52661e-07
3.69923e-06
-1.40013e-07
3.76401e-06
-1.28267e-07
3.82347e-06
-1.17369e-07
3.878e-06
-1.07273e-07
3.92798e-06
-9.79275e-08
3.97374e-06
-8.92924e-08
4.01562e-06
-8.13216e-08
4.05392e-06
-7.3978e-08
4.08893e-06
-6.72201e-08
4.12091e-06
-6.10141e-08
4.15013e-06
-5.53221e-08
4.17682e-06
-5.01137e-08
4.20119e-06
-4.53542e-08
4.22346e-06
-4.1016e-08
4.24381e-06
-3.70674e-08
4.26242e-06
-3.34835e-08
4.27946e-06
-3.02356e-08
4.29508e-06
-2.73012e-08
4.30941e-06
-2.46546e-08
4.32259e-06
-2.22757e-08
4.33474e-06
-2.01414e-08
4.34596e-06
-1.82341e-08
4.35636e-06
-1.65331e-08
4.36603e-06
-1.50232e-08
4.37505e-06
-1.36861e-08
4.38349e-06
-1.25088e-08
4.39143e-06
-1.14752e-08
4.39893e-06
-1.05741e-08
4.40605e-06
-9.79189e-09
4.41284e-06
-9.11889e-09
4.41934e-06
-8.54341e-09
4.4256e-06
-8.05749e-09
4.43165e-06
-7.65117e-09
4.43754e-06
-7.31797e-09
4.44329e-06
-7.04948e-09
4.44893e-06
-6.84054e-09
4.45448e-06
-6.68418e-09
4.45997e-06
-6.5764e-09
4.46542e-06
-6.51149e-09
4.47085e-06
-6.48652e-09
4.47627e-06
-6.49691e-09
4.4817e-06
-6.54068e-09
4.48716e-06
-6.61428e-09
4.49265e-06
-6.71657e-09
4.4982e-06
-6.84491e-09
4.50381e-06
-6.99898e-09
4.5095e-06
-7.17697e-09
4.51527e-06
-7.37926e-09
4.52115e-06
-7.60481e-09
4.52714e-06
-7.85469e-09
4.53324e-06
-8.12856e-09
4.53949e-06
-8.42808e-09
4.54589e-06
-8.75356e-09
4.55244e-06
-9.10719e-09
4.55918e-06
-9.48982e-09
4.56611e-06
-9.90405e-09
4.57325e-06
-1.03511e-08
4.58062e-06
-1.08339e-08
4.58824e-06
-1.13538e-08
4.59612e-06
-1.19136e-08
4.60429e-06
-1.25146e-08
4.61277e-06
-1.3159e-08
4.62159e-06
-1.38475e-08
4.63076e-06
-1.45813e-08
4.6403e-06
-1.53596e-08
4.65025e-06
-1.61819e-08
4.66061e-06
-1.70454e-08
4.67142e-06
-1.79471e-08
4.68268e-06
-1.88814e-08
4.69441e-06
-1.9842e-08
4.70663e-06
-2.08202e-08
4.71933e-06
-2.18065e-08
4.73251e-06
-2.27887e-08
4.74617e-06
-2.37544e-08
4.76029e-06
-2.46892e-08
4.77486e-06
-2.55788e-08
4.78984e-06
-2.6408e-08
4.8052e-06
-2.71627e-08
4.82089e-06
-2.78287e-08
4.83687e-06
-2.83941e-08
4.85308e-06
-2.88482e-08
4.86946e-06
-2.91832e-08
4.88596e-06
-2.93929e-08
4.90251e-06
-2.94748e-08
4.91905e-06
-2.94283e-08
4.93551e-06
-2.92561e-08
4.95184e-06
-2.89628e-08
4.96797e-06
-2.8556e-08
4.98386e-06
-2.80444e-08
4.99945e-06
-2.74392e-08
5.01472e-06
-2.67523e-08
5.02961e-06
-2.59973e-08
5.0441e-06
-2.51878e-08
5.05817e-06
-2.43389e-08
5.07181e-06
-2.34653e-08
5.085e-06
-2.25828e-08
5.09775e-06
-2.17074e-08
5.11006e-06
-2.08563e-08
5.12196e-06
-2.00486e-08
5.13346e-06
-1.9307e-08
5.14462e-06
-1.86614e-08
5.15549e-06
-1.81566e-08
5.16616e-06
-1.78678e-08
5.17675e-06
-1.79419e-08
5.1875e-06
-1.86743e-08
-2.10437e-08
-3.66536e-07
9.54236e-07
-7.2092e-07
1.11058e-06
-1.07627e-06
1.16009e-06
-1.43118e-06
1.16734e-06
-1.78054e-06
1.15406e-06
-2.12066e-06
1.12742e-06
-2.44911e-06
1.09166e-06
-2.76436e-06
1.04982e-06
-3.0656e-06
1.00431e-06
-3.35253e-06
9.56936e-07
-3.62524e-06
9.09068e-07
-3.88399e-06
8.61715e-07
-4.12926e-06
8.15491e-07
-4.36153e-06
7.70837e-07
-4.58134e-06
7.27958e-07
-4.78919e-06
6.86937e-07
-4.98558e-06
6.47749e-07
-5.17099e-06
6.1029e-07
-5.34585e-06
5.74462e-07
-5.51054e-06
5.40105e-07
-5.6654e-06
5.0709e-07
-5.81074e-06
4.7527e-07
-5.9468e-06
4.44529e-07
-6.07385e-06
4.14741e-07
-6.1921e-06
3.858e-07
-6.30171e-06
3.57623e-07
-6.40288e-06
3.30094e-07
-6.49574e-06
3.03152e-07
-6.58041e-06
2.76715e-07
-6.657e-06
2.50702e-07
-6.72557e-06
2.25031e-07
-6.78618e-06
1.99613e-07
-6.83883e-06
1.74353e-07
-6.88352e-06
1.49149e-07
-6.92019e-06
1.23884e-07
-6.94875e-06
9.84232e-08
-6.96906e-06
7.26146e-08
-6.98093e-06
4.63e-08
-6.98417e-06
1.93376e-08
-6.97855e-06
-8.42003e-09
-6.9638e-06
-3.71069e-08
-6.93958e-06
-6.69029e-08
-6.90546e-06
-9.80754e-08
-6.86089e-06
-1.30898e-07
-6.80527e-06
-1.65642e-07
-6.73788e-06
-2.02558e-07
-6.65796e-06
-2.41871e-07
-6.56465e-06
-2.83759e-07
-6.4571e-06
-3.28343e-07
-6.3344e-06
-3.75666e-07
-6.19567e-06
-4.25675e-07
-6.04008e-06
-4.782e-07
-5.86688e-06
-5.32931e-07
-5.67548e-06
-5.89406e-07
-5.46549e-06
-6.47012e-07
-5.23675e-06
-7.04983e-07
-4.9894e-06
-7.62399e-07
-4.72393e-06
-8.18218e-07
-4.44119e-06
-8.71341e-07
-4.1424e-06
-9.20626e-07
-3.82917e-06
-9.64953e-07
-3.50341e-06
-1.00335e-06
-3.16733e-06
-1.03496e-06
-2.82331e-06
-1.0592e-06
-2.47384e-06
-1.07576e-06
-2.12139e-06
-1.0846e-06
-1.76837e-06
-1.0859e-06
-1.41689e-06
-1.08037e-06
-1.06891e-06
-1.06857e-06
-7.25864e-07
-1.05197e-06
-3.88221e-07
-1.0333e-06
-5.65094e-08
-1.01309e-06
2.60712e-07
-9.86373e-07
5.572e-07
-9.50508e-07
8.36618e-07
-9.07492e-07
1.10115e-06
-8.596e-07
1.35173e-06
-8.09766e-07
1.58842e-06
-7.60107e-07
1.81116e-06
-7.11713e-07
2.0201e-06
-6.65092e-07
2.21555e-06
-6.20476e-07
2.398e-06
-5.77972e-07
2.56798e-06
-5.3762e-07
2.72611e-06
-4.99426e-07
2.87299e-06
-4.63369e-07
3.00926e-06
-4.29406e-07
3.13553e-06
-3.97484e-07
3.25241e-06
-3.67533e-07
3.3605e-06
-3.39479e-07
3.46035e-06
-3.13241e-07
3.5525e-06
-2.88734e-07
3.63748e-06
-2.65872e-07
3.71578e-06
-2.44573e-07
3.78786e-06
-2.24752e-07
3.85416e-06
-2.06328e-07
3.91511e-06
-1.89224e-07
3.9711e-06
-1.73366e-07
4.02251e-06
-1.58682e-07
4.06968e-06
-1.45103e-07
4.11295e-06
-1.32564e-07
4.15263e-06
-1.21005e-07
4.18902e-06
-1.10364e-07
4.22239e-06
-1.00586e-07
4.25299e-06
-9.16157e-08
4.28107e-06
-8.34022e-08
4.30686e-06
-7.58948e-08
4.33055e-06
-6.90474e-08
4.35236e-06
-6.28135e-08
4.37244e-06
-5.71512e-08
4.39098e-06
-5.20181e-08
4.40813e-06
-4.73766e-08
4.42402e-06
-4.31884e-08
4.43879e-06
-3.94199e-08
4.45256e-06
-3.60368e-08
4.46543e-06
-3.30092e-08
4.47751e-06
-3.03068e-08
4.48889e-06
-2.79035e-08
4.49964e-06
-2.57726e-08
4.50985e-06
-2.38914e-08
4.51959e-06
-2.22367e-08
4.5289e-06
-2.07892e-08
4.53786e-06
-1.95286e-08
4.54652e-06
-1.84387e-08
4.5549e-06
-1.75022e-08
4.56307e-06
-1.67054e-08
4.57105e-06
-1.60338e-08
4.57888e-06
-1.5476e-08
4.58659e-06
-1.50199e-08
4.5942e-06
-1.46564e-08
4.60174e-06
-1.43753e-08
4.60922e-06
-1.41695e-08
4.61668e-06
-1.40307e-08
4.62413e-06
-1.39534e-08
4.63157e-06
-1.3931e-08
4.63904e-06
-1.39596e-08
4.64653e-06
-1.40342e-08
4.65407e-06
-1.4152e-08
4.66167e-06
-1.43094e-08
4.66933e-06
-1.4505e-08
4.67707e-06
-1.47362e-08
4.6849e-06
-1.50029e-08
4.69282e-06
-1.53035e-08
4.70086e-06
-1.56389e-08
4.70901e-06
-1.60085e-08
4.7173e-06
-1.64143e-08
4.72573e-06
-1.68566e-08
4.73431e-06
-1.73381e-08
4.74307e-06
-1.786e-08
4.752e-06
-1.84257e-08
4.76114e-06
-1.9037e-08
4.77048e-06
-1.9698e-08
4.78006e-06
-2.04107e-08
4.78989e-06
-2.11794e-08
4.79998e-06
-2.20061e-08
4.81036e-06
-2.28947e-08
4.82105e-06
-2.38466e-08
4.83207e-06
-2.48646e-08
4.84344e-06
-2.59485e-08
4.85518e-06
-2.70993e-08
4.86731e-06
-2.83143e-08
4.87986e-06
-2.9591e-08
4.89284e-06
-3.09232e-08
4.90626e-06
-3.23044e-08
4.92014e-06
-3.37237e-08
4.93449e-06
-3.51698e-08
4.94931e-06
-3.6627e-08
4.9646e-06
-3.80792e-08
4.98035e-06
-3.95064e-08
4.99655e-06
-4.08891e-08
5.01318e-06
-4.22045e-08
5.0302e-06
-4.34321e-08
5.04759e-06
-4.45493e-08
5.0653e-06
-4.55373e-08
5.08328e-06
-4.63768e-08
5.10149e-06
-4.70539e-08
5.11986e-06
-4.75552e-08
5.13834e-06
-4.78739e-08
5.15687e-06
-4.80043e-08
5.17539e-06
-4.79473e-08
5.19384e-06
-4.77052e-08
5.21216e-06
-4.72862e-08
5.23031e-06
-4.66996e-08
5.24822e-06
-4.59597e-08
5.26587e-06
-4.50809e-08
5.2832e-06
-4.40821e-08
5.30018e-06
-4.29809e-08
5.31679e-06
-4.17989e-08
5.33301e-06
-4.05555e-08
5.34882e-06
-3.92739e-08
5.36422e-06
-3.79745e-08
5.3792e-06
-3.66818e-08
5.39376e-06
-3.54183e-08
5.40793e-06
-3.42118e-08
5.42173e-06
-3.30917e-08
5.43517e-06
-3.2098e-08
5.44831e-06
-3.12847e-08
5.4612e-06
-3.07388e-08
5.47388e-06
-3.06126e-08
5.48641e-06
-3.11771e-08
-3.31536e-08
-3.46709e-07
1.30107e-06
-6.77006e-07
1.44095e-06
-9.9971e-07
1.4828e-06
-1.31656e-06
1.48428e-06
-1.6254e-06
1.46293e-06
-1.92435e-06
1.42643e-06
-2.21221e-06
1.37957e-06
-2.48827e-06
1.32596e-06
-2.75225e-06
1.26836e-06
-3.00415e-06
1.2089e-06
-3.24414e-06
1.14915e-06
-3.47257e-06
1.09017e-06
-3.68977e-06
1.03273e-06
-3.89613e-06
9.77225e-07
-4.09203e-06
9.23878e-07
-4.27781e-06
8.72746e-07
-4.45381e-06
8.23775e-07
-4.62033e-06
7.76867e-07
-4.77769e-06
7.31841e-07
-4.92612e-06
6.88553e-07
-5.06585e-06
6.4683e-07
-5.19709e-06
6.06518e-07
-5.32002e-06
5.67465e-07
-5.43482e-06
5.29544e-07
-5.54165e-06
4.92639e-07
-5.64066e-06
4.56617e-07
-5.73197e-06
4.21409e-07
-5.81572e-06
3.86899e-07
-5.89201e-06
3.53001e-07
-5.96093e-06
3.19618e-07
-6.02255e-06
2.86647e-07
-6.07692e-06
2.53979e-07
-6.12406e-06
2.2149e-07
-6.16397e-06
1.89047e-07
-6.19659e-06
1.56499e-07
-6.22185e-06
1.2367e-07
-6.2396e-06
9.0361e-08
-6.24968e-06
5.63668e-08
-6.25186e-06
2.15059e-08
-6.2459e-06
-1.43819e-08
-6.23158e-06
-5.14414e-08
-6.20856e-06
-8.99313e-08
-6.17642e-06
-1.3022e-07
-6.13464e-06
-1.72682e-07
-6.0826e-06
-2.1768e-07
-6.01961e-06
-2.65551e-07
-5.94488e-06
-3.16595e-07
-5.85757e-06
-3.71056e-07
-5.7568e-06
-4.29099e-07
-5.64166e-06
-4.90794e-07
-5.51122e-06
-5.56086e-07
-5.36463e-06
-6.24767e-07
-5.2011e-06
-6.96443e-07
-5.01997e-06
-7.70514e-07
-4.82078e-06
-8.46179e-07
-4.60331e-06
-9.22439e-07
-4.36763e-06
-9.98074e-07
-4.11417e-06
-1.07168e-06
-3.84372e-06
-1.14179e-06
-3.55745e-06
-1.2069e-06
-3.25695e-06
-1.26547e-06
-2.9441e-06
-1.31623e-06
-2.62108e-06
-1.358e-06
-2.29028e-06
-1.39002e-06
-1.95417e-06
-1.4119e-06
-1.61523e-06
-1.42355e-06
-1.27588e-06
-1.42527e-06
-9.3812e-07
-1.41815e-06
-6.03773e-07
-1.40293e-06
-2.73604e-07
-1.38214e-06
4.90177e-08
-1.35592e-06
3.55891e-07
-1.31995e-06
6.44795e-07
-1.27526e-06
9.17745e-07
-1.22345e-06
1.17623e-06
-1.16597e-06
1.42135e-06
-1.10471e-06
1.65346e-06
-1.04186e-06
1.87254e-06
-9.79177e-07
2.0786e-06
-9.1776e-07
2.2718e-06
-8.58275e-07
2.45243e-06
-8.01113e-07
2.62095e-06
-7.46496e-07
2.77786e-06
-6.94543e-07
2.92373e-06
-6.45304e-07
3.05912e-06
-5.98781e-07
3.18464e-06
-5.5494e-07
3.30086e-06
-5.13719e-07
3.40835e-06
-4.75038e-07
3.50766e-06
-4.38805e-07
3.59932e-06
-4.04919e-07
3.68385e-06
-3.73272e-07
3.76172e-06
-3.43757e-07
3.83341e-06
-3.16265e-07
3.89934e-06
-2.90692e-07
3.95994e-06
-2.66933e-07
4.0156e-06
-2.4489e-07
4.0667e-06
-2.24465e-07
4.11358e-06
-2.05568e-07
4.15658e-06
-1.8811e-07
4.19603e-06
-1.72006e-07
4.2322e-06
-1.57176e-07
4.26538e-06
-1.43543e-07
4.29583e-06
-1.31032e-07
4.32379e-06
-1.19573e-07
4.34949e-06
-1.09095e-07
4.37313e-06
-9.95363e-08
4.39492e-06
-9.08318e-08
4.41503e-06
-8.29231e-08
4.43364e-06
-7.57524e-08
4.45089e-06
-6.92663e-08
4.46694e-06
-6.34127e-08
4.4819e-06
-5.81436e-08
4.4959e-06
-5.34121e-08
4.50904e-06
-4.91759e-08
4.52143e-06
-4.53933e-08
4.53316e-06
-4.20269e-08
4.5443e-06
-3.90404e-08
4.55494e-06
-3.64012e-08
4.56513e-06
-3.40777e-08
4.57494e-06
-3.20419e-08
4.58442e-06
-3.02667e-08
4.59363e-06
-2.87283e-08
4.6026e-06
-2.74034e-08
4.61137e-06
-2.62721e-08
4.61999e-06
-2.53149e-08
4.62848e-06
-2.45152e-08
4.63686e-06
-2.38567e-08
4.64517e-06
-2.33258e-08
4.65343e-06
-2.29093e-08
4.66165e-06
-2.25961e-08
4.66986e-06
-2.23756e-08
4.67808e-06
-2.2239e-08
4.6863e-06
-2.21781e-08
4.69456e-06
-2.21862e-08
4.70286e-06
-2.2257e-08
4.71122e-06
-2.23857e-08
4.71963e-06
-2.25678e-08
4.72813e-06
-2.28001e-08
4.7367e-06
-2.30798e-08
4.74537e-06
-2.34052e-08
4.75415e-06
-2.37749e-08
4.76303e-06
-2.41886e-08
4.77204e-06
-2.46462e-08
4.78118e-06
-2.51487e-08
4.79047e-06
-2.56972e-08
4.7999e-06
-2.62938e-08
4.80951e-06
-2.69407e-08
4.81929e-06
-2.76411e-08
4.82926e-06
-2.83981e-08
4.83944e-06
-2.92156e-08
4.84984e-06
-3.00973e-08
4.86048e-06
-3.10477e-08
4.87137e-06
-3.20705e-08
4.88253e-06
-3.31702e-08
4.89399e-06
-3.43502e-08
4.90576e-06
-3.56138e-08
4.91786e-06
-3.69632e-08
4.93031e-06
-3.83995e-08
4.94313e-06
-3.99222e-08
4.95635e-06
-4.15292e-08
4.96997e-06
-4.32158e-08
4.98402e-06
-4.4975e-08
4.99852e-06
-4.67968e-08
5.01346e-06
-4.8668e-08
5.02886e-06
-5.05722e-08
5.04473e-06
-5.24901e-08
5.06105e-06
-5.43989e-08
5.07781e-06
-5.62739e-08
5.09501e-06
-5.80876e-08
5.11262e-06
-5.9812e-08
5.13061e-06
-6.14185e-08
5.14894e-06
-6.28793e-08
5.16757e-06
-6.41683e-08
5.18646e-06
-6.52623e-08
5.20555e-06
-6.61416e-08
5.22478e-06
-6.67912e-08
5.24411e-06
-6.72006e-08
5.26347e-06
-6.73647e-08
5.28281e-06
-6.72834e-08
5.30207e-06
-6.69618e-08
5.3212e-06
-6.64095e-08
5.34014e-06
-6.56404e-08
5.35885e-06
-6.46719e-08
5.3773e-06
-6.35246e-08
5.39544e-06
-6.22211e-08
5.41325e-06
-6.07863e-08
5.4307e-06
-5.92462e-08
5.44777e-06
-5.76277e-08
5.46446e-06
-5.59583e-08
5.48076e-06
-5.42662e-08
5.49666e-06
-5.25802e-08
5.51218e-06
-5.09303e-08
5.52732e-06
-4.93487e-08
5.54211e-06
-4.78717e-08
5.55657e-06
-4.65438e-08
5.57072e-06
-4.54235e-08
5.58459e-06
-4.45966e-08
5.5982e-06
-4.41998e-08
5.61149e-06
-4.44398e-08
-4.57855e-08
-3.14877e-07
1.61596e-06
-6.12657e-07
1.73873e-06
-8.99479e-07
1.76969e-06
-1.17786e-06
1.76263e-06
-1.44709e-06
1.73218e-06
-1.70659e-06
1.68595e-06
-1.956e-06
1.62901e-06
-2.19519e-06
1.56519e-06
-2.42421e-06
1.49744e-06
-2.64324e-06
1.42799e-06
-2.85252e-06
1.35845e-06
-3.05229e-06
1.29e-06
-3.24285e-06
1.2233e-06
-3.42442e-06
1.15882e-06
-3.59725e-06
1.09673e-06
-3.76155e-06
1.03707e-06
-3.91751e-06
9.7978e-07
-4.06534e-06
9.24704e-07
-4.20518e-06
8.71701e-07
-4.33719e-06
8.20573e-07
-4.4615e-06
7.71145e-07
-4.57823e-06
7.23255e-07
-4.68751e-06
6.76748e-07
-4.78946e-06
6.31487e-07
-4.88418e-06
5.87343e-07
-4.97177e-06
5.44223e-07
-5.05237e-06
5.01994e-07
-5.12605e-06
4.60577e-07
-5.19292e-06
4.19867e-07
-5.25307e-06
3.79758e-07
-5.30656e-06
3.40135e-07
-5.35346e-06
3.00871e-07
-5.39379e-06
2.61821e-07
-5.42758e-06
2.22826e-07
-5.45479e-06
1.83702e-07
-5.47537e-06
1.44238e-07
-5.48921e-06
1.0419e-07
-5.49615e-06
6.32995e-08
-5.49598e-06
2.13274e-08
-5.4885e-06
-2.18727e-08
-5.47351e-06
-6.64384e-08
-5.45071e-06
-1.12738e-07
-5.41969e-06
-1.61245e-07
-5.37995e-06
-2.12433e-07
-5.33087e-06
-2.66758e-07
-5.27177e-06
-3.24649e-07
-5.20187e-06
-3.86487e-07
-5.12033e-06
-4.52583e-07
-5.02626e-06
-5.23162e-07
-4.91871e-06
-5.98327e-07
-4.79674e-06
-6.78033e-07
-4.65943e-06
-7.62052e-07
-4.50593e-06
-8.49918e-07
-4.33553e-06
-9.40896e-07
-4.14769e-06
-1.034e-06
-3.94209e-06
-1.12802e-06
-3.71873e-06
-1.22143e-06
-3.47798e-06
-1.31243e-06
-3.22059e-06
-1.39919e-06
-2.94764e-06
-1.47986e-06
-2.66073e-06
-1.55239e-06
-2.36173e-06
-1.61525e-06
-2.05278e-06
-1.66697e-06
-1.7364e-06
-1.70642e-06
-1.41498e-06
-1.73334e-06
-1.09113e-06
-1.74741e-06
-7.67164e-07
-1.74925e-06
-4.45145e-07
-1.74018e-06
-1.25788e-07
-1.7223e-06
1.84742e-07
-1.69267e-06
4.79572e-07
-1.65074e-06
7.59169e-07
-1.59953e-06
1.0242e-06
-1.54028e-06
1.27527e-06
-1.47451e-06
1.51306e-06
-1.40375e-06
1.73817e-06
-1.32981e-06
1.95087e-06
-1.25455e-06
2.15125e-06
-1.17955e-06
2.33945e-06
-1.10594e-06
2.51568e-06
-1.03449e-06
2.68027e-06
-9.6571e-07
2.83368e-06
-8.999e-07
2.97637e-06
-8.37246e-07
3.10889e-06
-7.77833e-07
3.23177e-06
-7.2168e-07
3.34558e-06
-6.68757e-07
3.45084e-06
-6.18996e-07
3.54809e-06
-5.72305e-07
3.63784e-06
-5.28573e-07
3.72059e-06
-4.87679e-07
3.7968e-06
-4.49496e-07
3.86692e-06
-4.13895e-07
3.93139e-06
-3.80746e-07
3.99061e-06
-3.49922e-07
4.04497e-06
-3.213e-07
4.09484e-06
-2.9476e-07
4.14055e-06
-2.70188e-07
4.18245e-06
-2.47471e-07
4.22084e-06
-2.26504e-07
4.25602e-06
-2.07185e-07
4.28826e-06
-1.89416e-07
4.31782e-06
-1.73101e-07
4.34493e-06
-1.58151e-07
4.36984e-06
-1.44478e-07
4.39274e-06
-1.31998e-07
4.41384e-06
-1.20632e-07
4.43331e-06
-1.10301e-07
4.45132e-06
-1.00933e-07
4.46803e-06
-9.24572e-08
4.48357e-06
-8.48066e-08
4.49808e-06
-7.79185e-08
4.51168e-06
-7.17323e-08
4.52446e-06
-6.61921e-08
4.53653e-06
-6.12441e-08
4.54798e-06
-5.68391e-08
4.55889e-06
-5.29298e-08
4.56932e-06
-4.94734e-08
4.57935e-06
-4.64287e-08
4.58904e-06
-4.3759e-08
4.59843e-06
-4.14289e-08
4.60757e-06
-3.94069e-08
4.61651e-06
-3.76631e-08
4.62528e-06
-3.6171e-08
4.63392e-06
-3.49052e-08
4.64245e-06
-3.38438e-08
4.6509e-06
-3.29658e-08
4.6593e-06
-3.22531e-08
4.66767e-06
-3.16884e-08
4.67602e-06
-3.12572e-08
4.68437e-06
-3.09454e-08
4.69274e-06
-3.07417e-08
4.70114e-06
-3.06348e-08
4.70958e-06
-3.06162e-08
4.71807e-06
-3.06772e-08
4.72662e-06
-3.08114e-08
4.73525e-06
-3.10126e-08
4.74396e-06
-3.12767e-08
4.75276e-06
-3.1599e-08
4.76166e-06
-3.19776e-08
4.77067e-06
-3.24097e-08
4.77979e-06
-3.28949e-08
4.78903e-06
-3.34322e-08
4.79841e-06
-3.40227e-08
4.80793e-06
-3.46668e-08
4.8176e-06
-3.53671e-08
4.82743e-06
-3.61255e-08
4.83744e-06
-3.69458e-08
4.84763e-06
-3.7831e-08
4.85802e-06
-3.8786e-08
4.86862e-06
-3.98147e-08
4.87944e-06
-4.09228e-08
4.89051e-06
-4.21146e-08
4.90184e-06
-4.33962e-08
4.91344e-06
-4.47715e-08
4.92533e-06
-4.62459e-08
4.93754e-06
-4.78224e-08
4.95009e-06
-4.95045e-08
4.96298e-06
-5.12926e-08
4.97625e-06
-5.31868e-08
4.9899e-06
-5.51832e-08
5.00396e-06
-5.7277e-08
5.01845e-06
-5.94582e-08
5.03336e-06
-6.17152e-08
5.04873e-06
-6.40304e-08
5.06454e-06
-6.63845e-08
5.0808e-06
-6.87521e-08
5.09751e-06
-7.11061e-08
5.11465e-06
-7.34144e-08
5.13221e-06
-7.56444e-08
5.15015e-06
-7.77602e-08
5.16846e-06
-7.97277e-08
5.18709e-06
-8.15115e-08
5.20601e-06
-8.30812e-08
5.22515e-06
-8.44072e-08
5.24448e-06
-8.54673e-08
5.26393e-06
-8.62421e-08
5.28345e-06
-8.67211e-08
5.30298e-06
-8.68974e-08
5.32247e-06
-8.67732e-08
5.34186e-06
-8.63541e-08
5.36111e-06
-8.56542e-08
5.38016e-06
-8.46898e-08
5.39897e-06
-8.34841e-08
5.41751e-06
-8.20614e-08
5.43574e-06
-8.04514e-08
5.45363e-06
-7.86829e-08
5.47118e-06
-7.67893e-08
5.48835e-06
-7.48017e-08
5.50515e-06
-7.2755e-08
5.52157e-06
-7.06813e-08
5.53761e-06
-6.86166e-08
5.55328e-06
-6.65942e-08
5.56859e-06
-6.46529e-08
5.58355e-06
-6.28316e-08
5.5982e-06
-6.1179e-08
5.61253e-06
-5.97521e-08
5.62658e-06
-5.86302e-08
5.64031e-06
-5.79235e-08
5.65366e-06
-5.77721e-08
-5.84391e-08
-2.77342e-07
1.89334e-06
-5.38465e-07
1.99987e-06
-7.87887e-07
2.01906e-06
-1.02796e-06
2.00274e-06
-1.25897e-06
1.96319e-06
-1.48098e-06
1.90795e-06
-1.69414e-06
1.84218e-06
-1.89866e-06
1.76974e-06
-2.09479e-06
1.6936e-06
-2.28279e-06
1.61601e-06
-2.46288e-06
1.5386e-06
-2.63531e-06
1.46243e-06
-2.80022e-06
1.38823e-06
-2.95778e-06
1.31639e-06
-3.10812e-06
1.24708e-06
-3.25133e-06
1.1803e-06
-3.38752e-06
1.11598e-06
-3.51675e-06
1.05397e-06
-3.63912e-06
9.94082e-07
-3.75468e-06
9.36134e-07
-3.86349e-06
8.79949e-07
-3.96559e-06
8.25356e-07
-4.06105e-06
7.72206e-07
-4.14994e-06
7.20363e-07
-4.23231e-06
6.69715e-07
-4.30824e-06
6.20132e-07
-4.3778e-06
5.71545e-07
-4.44106e-06
5.23837e-07
-4.49811e-06
4.76913e-07
-4.54902e-06
4.30665e-07
-4.59386e-06
3.84973e-07
-4.6327e-06
3.39698e-07
-4.66556e-06
2.94682e-07
-4.69249e-06
2.49744e-07
-4.71347e-06
2.04675e-07
-4.72847e-06
1.59232e-07
-4.73742e-06
1.13133e-07
-4.74021e-06
6.60798e-08
-4.73665e-06
1.77592e-08
-4.72659e-06
-3.19384e-08
-4.7099e-06
-8.31414e-08
-4.68628e-06
-1.36366e-07
-4.65534e-06
-1.92184e-07
-4.61661e-06
-2.51165e-07
-4.56951e-06
-3.13862e-07
-4.51337e-06
-3.80796e-07
-4.44741e-06
-4.52434e-07
-4.37082e-06
-5.29168e-07
-4.28268e-06
-6.11286e-07
-4.18205e-06
-6.98943e-07
-4.06795e-06
-7.92118e-07
-3.9394e-06
-8.90577e-07
-3.79549e-06
-9.93804e-07
-3.63544e-06
-1.10093e-06
-3.45865e-06
-1.21077e-06
-3.26473e-06
-1.32192e-06
-3.05356e-06
-1.4326e-06
-2.82546e-06
-1.54052e-06
-2.5812e-06
-1.64346e-06
-2.32174e-06
-1.73934e-06
-2.0487e-06
-1.82544e-06
-1.76402e-06
-1.89995e-06
-1.46979e-06
-1.96122e-06
-1.16874e-06
-2.00749e-06
-8.63124e-07
-2.03897e-06
-5.55557e-07
-2.055e-06
-2.47701e-07
-2.05712e-06
5.70019e-08
-2.04489e-06
3.51095e-07
-2.0164e-06
6.32207e-07
-1.97379e-06
9.00677e-07
-1.9192e-06
1.15604e-06
-1.85488e-06
1.39828e-06
-1.78251e-06
1.62759e-06
-1.70381e-06
1.84435e-06
-1.62051e-06
2.04897e-06
-1.53442e-06
2.24174e-06
-1.44731e-06
2.42289e-06
-1.36068e-06
2.59264e-06
-1.27569e-06
2.75132e-06
-1.19316e-06
2.89928e-06
-1.11368e-06
3.03699e-06
-1.03761e-06
3.16491e-06
-9.65178e-07
3.28357e-06
-8.96495e-07
3.39346e-06
-8.31588e-07
3.49512e-06
-7.70423e-07
3.58903e-06
-7.12923e-07
3.67569e-06
-6.58982e-07
3.75558e-06
-6.08469e-07
3.82914e-06
-5.61246e-07
3.8968e-06
-5.17165e-07
3.95897e-06
-4.76076e-07
4.01605e-06
-4.3783e-07
4.0684e-06
-4.02281e-07
4.11638e-06
-3.69287e-07
4.16033e-06
-3.38712e-07
4.20056e-06
-3.10422e-07
4.23738e-06
-2.8429e-07
4.27107e-06
-2.60192e-07
4.3019e-06
-2.38012e-07
4.33012e-06
-2.17634e-07
4.35597e-06
-1.9895e-07
4.37967e-06
-1.81852e-07
4.40144e-06
-1.66239e-07
4.42145e-06
-1.52012e-07
4.4399e-06
-1.39077e-07
4.45695e-06
-1.27343e-07
4.47274e-06
-1.16724e-07
4.48743e-06
-1.07136e-07
4.50113e-06
-9.8502e-08
4.51396e-06
-9.07461e-08
4.52603e-06
-8.37983e-08
4.53744e-06
-7.75921e-08
4.54827e-06
-7.20653e-08
4.55859e-06
-6.71593e-08
4.56849e-06
-6.28199e-08
4.57802e-06
-5.89962e-08
4.58723e-06
-5.56412e-08
4.59619e-06
-5.27112e-08
4.60493e-06
-5.01663e-08
4.6135e-06
-4.79691e-08
4.62193e-06
-4.60861e-08
4.63025e-06
-4.44858e-08
4.63849e-06
-4.31402e-08
4.64667e-06
-4.20232e-08
4.65482e-06
-4.11118e-08
4.66296e-06
-4.03845e-08
4.6711e-06
-3.98226e-08
4.67925e-06
-3.94089e-08
4.68744e-06
-3.91285e-08
4.69567e-06
-3.89676e-08
4.70395e-06
-3.89147e-08
4.7123e-06
-3.89593e-08
4.72071e-06
-3.90928e-08
4.72921e-06
-3.93075e-08
4.7378e-06
-3.95971e-08
4.74648e-06
-3.99566e-08
4.75527e-06
-4.03819e-08
4.76416e-06
-4.08702e-08
4.77317e-06
-4.14196e-08
4.78231e-06
-4.20289e-08
4.79157e-06
-4.26983e-08
4.80098e-06
-4.34285e-08
4.81053e-06
-4.42212e-08
4.82025e-06
-4.50787e-08
4.83013e-06
-4.60044e-08
4.84018e-06
-4.7002e-08
4.85043e-06
-4.80762e-08
4.86087e-06
-4.9232e-08
4.87153e-06
-5.0475e-08
4.88242e-06
-5.1811e-08
4.89355e-06
-5.32462e-08
4.90495e-06
-5.47866e-08
4.91661e-06
-5.64381e-08
4.92857e-06
-5.82058e-08
4.94084e-06
-6.00943e-08
4.95345e-06
-6.21066e-08
4.9664e-06
-6.4244e-08
4.97972e-06
-6.65055e-08
4.99342e-06
-6.88873e-08
5.00753e-06
-7.13825e-08
5.02205e-06
-7.39799e-08
5.037e-06
-7.66643e-08
5.05238e-06
-7.94159e-08
5.06821e-06
-8.221e-08
5.08447e-06
-8.50172e-08
5.10117e-06
-8.7804e-08
5.11829e-06
-9.0533e-08
5.13581e-06
-9.31641e-08
5.15371e-06
-9.56557e-08
5.17194e-06
-9.79659e-08
5.19049e-06
-1.00054e-07
5.20929e-06
-1.01884e-07
5.22831e-06
-1.03421e-07
5.24748e-06
-1.0464e-07
5.26676e-06
-1.05518e-07
5.28608e-06
-1.06044e-07