/*--------------------------------*- C++ -*----------------------------------*\
  =========                 |
  \\      /  F ield         | OpenFOAM: The Open Source CFD Toolbox
   \\    /   O peration     | Website:  https://openfoam.org
    \\  /    A nd           | Version:  7
     \\/     M anipulation  |
\*---------------------------------------------------------------------------*/
FoamFile
{
    version     2.0;
    format      ascii;
    class       volVectorField;
    location    "150";
    object      U;
}
// * * * * * * * * * * * * * * * * * * * * * * * * * * * * * * * * * * * * * //

dimensions      [0 1 -1 0 0 0 0];

internalField   nonuniform List<vector> 
16900
(
(-0.135736 0.193721 0)
(-0.336142 0.262464 0)
(-0.72887 0.263688 0)
(-1.08567 0.254397 0)
(-1.44776 0.243723 0)
(-1.80399 0.232541 0)
(-2.151 0.220916 0)
(-2.48638 0.209055 0)
(-2.80847 0.197168 0)
(-3.11625 0.18546 0)
(-3.40918 0.174088 0)
(-3.68714 0.163175 0)
(-3.95028 0.152781 0)
(-4.19896 0.142963 0)
(-4.43367 0.133717 0)
(-4.65497 0.125044 0)
(-4.86343 0.11691 0)
(-5.05966 0.109273 0)
(-5.24422 0.10212 0)
(-5.41766 0.0953661 0)
(-5.58046 0.089011 0)
(-5.73308 0.0829826 0)
(-5.87591 0.0772791 0)
(-6.00932 0.0718376 0)
(-6.13364 0.066658 0)
(-6.24914 0.0616979 0)
(-6.35611 0.0569313 0)
(-6.45479 0.0523461 0)
(-6.54538 0.0479206 0)
(-6.62806 0.0436342 0)
(-6.70298 0.0394672 0)
(-6.7703 0.0353988 0)
(-6.8301 0.0314071 0)
(-6.88246 0.0274681 0)
(-6.92738 0.0235583 0)
(-6.96486 0.0196519 0)
(-6.99491 0.0157132 0)
(-7.01748 0.0116872 0)
(-7.03241 0.00750703 0)
(-7.03938 0.00311941 0)
(-7.03794 -0.00147855 0)
(-7.02783 -0.00628968 0)
(-7.00865 -0.0113551 0)
(-6.97992 -0.0167183 0)
(-6.9411 -0.0224243 0)
(-6.89156 -0.0285167 0)
(-6.83059 -0.0350349 0)
(-6.75743 -0.0420113 0)
(-6.67126 -0.0494692 0)
(-6.57122 -0.0574198 0)
(-6.45649 -0.0658589 0)
(-6.32624 -0.0747633 0)
(-6.17974 -0.0840883 0)
(-6.01637 -0.0937664 0)
(-5.83565 -0.103707 0)
(-5.63736 -0.113798 0)
(-5.4215 -0.123906 0)
(-5.1884 -0.133879 0)
(-4.93872 -0.143549 0)
(-4.67348 -0.152735 0)
(-4.39402 -0.161267 0)
(-4.10196 -0.169002 0)
(-3.79922 -0.175855 0)
(-3.48801 -0.181792 0)
(-3.17076 -0.186798 0)
(-2.85 -0.190811 0)
(-2.52813 -0.193695 0)
(-2.20714 -0.195355 0)
(-1.88851 -0.196006 0)
(-1.57354 -0.196564 0)
(-1.26378 -0.198934 0)
(-0.961505 -0.205083 0)
(-0.669401 -0.215001 0)
(-0.38817 -0.225279 0)
(-0.111003 -0.224812 0)
(0.177053 -0.204843 0)
(0.426142 -0.182818 0)
(0.662033 -0.163391 0)
(0.883032 -0.146637 0)
(1.08942 -0.132106 0)
(1.2818 -0.119377 0)
(1.46087 -0.108115 0)
(1.62733 -0.0980691 0)
(1.78188 -0.0890477 0)
(1.92517 -0.0809067 0)
(2.05786 -0.0735311 0)
(2.18059 -0.0668318 0)
(2.29396 -0.0607327 0)
(2.39857 -0.0551732 0)
(2.49497 -0.0500984 0)
(2.5837 -0.0454636 0)
(2.66527 -0.0412268 0)
(2.74016 -0.0373535 0)
(2.80882 -0.0338103 0)
(2.8717 -0.0305703 0)
(2.92918 -0.027606 0)
(2.98167 -0.0248961 0)
(3.02953 -0.0224179 0)
(3.07308 -0.0201541 0)
(3.11266 -0.018086 0)
(3.14857 -0.0161994 0)
(3.18108 -0.0144784 0)
(3.21047 -0.0129114 0)
(3.23699 -0.011485 0)
(3.26086 -0.0101892 0)
(3.28232 -0.0090127 0)
(3.30156 -0.00794708 0)
(3.31877 -0.00698239 0)
(3.33414 -0.00611162 0)
(3.34783 -0.00532607 0)
(3.36 -0.00461978 0)
(3.37079 -0.00398516 0)
(3.38033 -0.00341714 0)
(3.38876 -0.0029091 0)
(3.39617 -0.00245675 0)
(3.40268 -0.00205432 0)
(3.40839 -0.0016982 0)
(3.41338 -0.00138337 0)
(3.41774 -0.00110682 0)
(3.42153 -0.000864203 0)
(3.42483 -0.000653032 0)
(3.42771 -0.000469554 0)
(3.43021 -0.000311749 0)
(3.43239 -0.000176386 0)
(3.43429 -6.18522e-05 0)
(3.43597 3.46203e-05 0)
(3.43744 0.000114292 0)
(3.43876 0.000179523 0)
(3.43996 0.000231265 0)
(3.44105 0.000271524 0)
(3.44207 0.000300982 0)
(3.44304 0.000321336 0)
(3.44397 0.000333035 0)
(3.4449 0.000337505 0)
(3.44583 0.000334993 0)
(3.44678 0.000326692 0)
(3.44777 0.00031267 0)
(3.4488 0.000293917 0)
(3.4499 0.000270344 0)
(3.45107 0.000242767 0)
(3.45232 0.000210956 0)
(3.45366 0.000175573 0)
(3.45511 0.000136267 0)
(3.45668 9.35661e-05 0)
(3.45836 4.70076e-05 0)
(3.46019 -2.99434e-06 0)
(3.46216 -5.69951e-05 0)
(3.46429 -0.000114678 0)
(3.4666 -0.000176673 0)
(3.46908 -0.000242735 0)
(3.47177 -0.000313543 0)
(3.47467 -0.000388893 0)
(3.4778 -0.000469472 0)
(3.48117 -0.000555072 0)
(3.48481 -0.000646331 0)
(3.48873 -0.000742973 0)
(3.49295 -0.000845515 0)
(3.49749 -0.000953524 0)
(3.50237 -0.0010673 0)
(3.5076 -0.00118615 0)
(3.51321 -0.00131007 0)
(3.51921 -0.00143799 0)
(3.52562 -0.0015695 0)
(3.53245 -0.0017031 0)
(3.53971 -0.00183792 0)
(3.5474 -0.00197202 0)
(3.55552 -0.0021041 0)
(3.56406 -0.00223185 0)
(3.57302 -0.00235369 0)
(3.58238 -0.00246715 0)
(3.59211 -0.00257057 0)
(3.60217 -0.00266161 0)
(3.61255 -0.00273887 0)
(3.62318 -0.0028004 0)
(3.63403 -0.00284537 0)
(3.64504 -0.0028725 0)
(3.65616 -0.00288168 0)
(3.66733 -0.00287245 0)
(3.6785 -0.00284551 0)
(3.68961 -0.00280119 0)
(3.7006 -0.00274095 0)
(3.71144 -0.00266579 0)
(3.72206 -0.00257773 0)
(3.73244 -0.00247827 0)
(3.74252 -0.0023698 0)
(3.75229 -0.00225409 0)
(3.76171 -0.00213372 0)
(3.77077 -0.00201055 0)
(3.77946 -0.00188724 0)
(3.78777 -0.00176566 0)
(3.7957 -0.00164854 0)
(3.80327 -0.00153794 0)
(3.81049 -0.00143695 0)
(3.81739 -0.00134852 0)
(3.82401 -0.00127756 0)
(3.83041 -0.001231 0)
(3.83667 -0.00122226 0)
(3.84294 -0.00128023 0)
(3.84929 -0.0014635 0)
(3.85919 -0.00213284 0)
(-0.222338 0.374229 0)
(-0.46055 0.539322 0)
(-0.811443 0.578976 0)
(-1.15701 0.583053 0)
(-1.50434 0.576201 0)
(-1.84629 0.56269 0)
(-2.1792 0.544521 0)
(-2.50054 0.523141 0)
(-2.80871 0.499714 0)
(-3.10284 0.475173 0)
(-3.38254 0.45025 0)
(-3.64783 0.42549 0)
(-3.89896 0.401285 0)
(-4.13638 0.377886 0)
(-4.3606 0.355443 0)
(-4.57219 0.334024 0)
(-4.7717 0.313646 0)
(-4.95968 0.294261 0)
(-5.13668 0.275835 0)
(-5.30316 0.258266 0)
(-5.45955 0.241516 0)
(-5.60623 0.225479 0)
(-5.74354 0.210121 0)
(-5.87177 0.195348 0)
(-5.99119 0.181127 0)
(-6.10202 0.167389 0)
(-6.20447 0.154092 0)
(-6.29871 0.141195 0)
(-6.3849 0.128659 0)
(-6.46314 0.116446 0)
(-6.53355 0.104516 0)
(-6.5962 0.0928308 0)
(-6.65115 0.0813451 0)
(-6.69841 0.0700115 0)
(-6.73793 0.05878 0)
(-6.76967 0.0475985 0)
(-6.79362 0.0364022 0)
(-6.8097 0.0250972 0)
(-6.81774 0.0135673 0)
(-6.81729 0.00171127 0)
(-6.80823 -0.010503 0)
(-6.79043 -0.023107 0)
(-6.76353 -0.0362021 0)
(-6.72708 -0.0498945 0)
(-6.68057 -0.0642911 0)
(-6.62339 -0.0794924 0)
(-6.55488 -0.0955859 0)
(-6.47429 -0.11264 0)
(-6.38085 -0.130696 0)
(-6.27374 -0.149767 0)
(-6.15215 -0.169821 0)
(-6.0153 -0.19078 0)
(-5.86248 -0.21251 0)
(-5.69308 -0.234817 0)
(-5.50665 -0.257451 0)
(-5.30295 -0.280102 0)
(-5.082 -0.302411 0)
(-4.84411 -0.323976 0)
(-4.58991 -0.344365 0)
(-4.3204 -0.363128 0)
(-4.03689 -0.379836 0)
(-3.74103 -0.394123 0)
(-3.43473 -0.405723 0)
(-3.12015 -0.414494 0)
(-2.79962 -0.42036 0)
(-2.47546 -0.423261 0)
(-2.1499 -0.423076 0)
(-1.82495 -0.419806 0)
(-1.50247 -0.413802 0)
(-1.18425 -0.406134 0)
(-0.872123 -0.399064 0)
(-0.567326 -0.394505 0)
(-0.268881 -0.392105 0)
(0.0339755 -0.389042 0)
(0.309651 -0.376523 0)
(0.569301 -0.353311 0)
(0.812456 -0.327515 0)
(1.04186 -0.302899 0)
(1.25796 -0.280022 0)
(1.46088 -0.258869 0)
(1.65093 -0.239282 0)
(1.82852 -0.221098 0)
(1.99418 -0.204184 0)
(2.14844 -0.188432 0)
(2.29189 -0.173756 0)
(2.4251 -0.160086 0)
(2.54866 -0.147357 0)
(2.66314 -0.135513 0)
(2.76908 -0.124501 0)
(2.86703 -0.114268 0)
(2.95749 -0.104768 0)
(3.04096 -0.095955 0)
(3.1179 -0.0877855 0)
(3.18876 -0.0802186 0)
(3.25396 -0.0732159 0)
(3.31389 -0.0667407 0)
(3.36893 -0.0607593 0)
(3.41943 -0.0552394 0)
(3.46574 -0.0501512 0)
(3.50816 -0.0454663 0)
(3.547 -0.0411585 0)
(3.58254 -0.0372027 0)
(3.61503 -0.0335758 0)
(3.64472 -0.0302552 0)
(3.67185 -0.0272205 0)
(3.69663 -0.0244515 0)
(3.71927 -0.0219299 0)
(3.73994 -0.0196378 0)
(3.75884 -0.0175587 0)
(3.77611 -0.0156766 0)
(3.79192 -0.0139768 0)
(3.8064 -0.012445 0)
(3.81968 -0.0110682 0)
(3.83188 -0.00983365 0)
(3.84311 -0.00873002 0)
(3.85347 -0.00774605 0)
(3.86306 -0.0068718 0)
(3.87196 -0.00609744 0)
(3.88024 -0.00541438 0)
(3.88798 -0.0048141 0)
(3.89525 -0.00428922 0)
(3.9021 -0.00383241 0)
(3.90858 -0.00343743 0)
(3.91474 -0.00309802 0)
(3.92064 -0.00280894 0)
(3.9263 -0.00256491 0)
(3.93176 -0.00236159 0)
(3.93705 -0.00219457 0)
(3.94221 -0.0020603 0)
(3.94726 -0.00195514 0)
(3.95223 -0.00187627 0)
(3.95713 -0.0018207 0)
(3.96198 -0.00178624 0)
(3.96681 -0.00177051 0)
(3.97162 -0.00177186 0)
(3.97644 -0.00178845 0)
(3.98127 -0.0018191 0)
(3.98613 -0.00186244 0)
(3.99103 -0.00191772 0)
(3.99598 -0.00198398 0)
(4.001 -0.00206087 0)
(4.00609 -0.00214777 0)
(4.01126 -0.00224468 0)
(4.01652 -0.00235132 0)
(4.02189 -0.00246798 0)
(4.02738 -0.00259467 0)
(4.03299 -0.00273195 0)
(4.03874 -0.00288005 0)
(4.04465 -0.00303977 0)
(4.05071 -0.00321152 0)
(4.05696 -0.00339623 0)
(4.06341 -0.0035944 0)
(4.07006 -0.00380702 0)
(4.07695 -0.00403456 0)
(4.08408 -0.00427788 0)
(4.09147 -0.00453726 0)
(4.09915 -0.00481326 0)
(4.10714 -0.00510569 0)
(4.11545 -0.00541454 0)
(4.12411 -0.00573892 0)
(4.13314 -0.00607795 0)
(4.14254 -0.00642975 0)
(4.15234 -0.00679234 0)
(4.16256 -0.00716262 0)
(4.1732 -0.00753735 0)
(4.18426 -0.00791221 0)
(4.19576 -0.00828279 0)
(4.20768 -0.00864372 0)
(4.22002 -0.00898981 0)
(4.23276 -0.00931513 0)
(4.24588 -0.00961432 0)
(4.25934 -0.00988168 0)
(4.27312 -0.0101125 0)
(4.28718 -0.010302 0)
(4.30146 -0.0104468 0)
(4.31592 -0.010544 0)
(4.3305 -0.0105921 0)
(4.34516 -0.0105902 0)
(4.35983 -0.0105388 0)
(4.37446 -0.0104391 0)
(4.38899 -0.0102938 0)
(4.40338 -0.0101057 0)
(4.41757 -0.00987898 0)
(4.43153 -0.00961793 0)
(4.44521 -0.00932776 0)
(4.45857 -0.00901354 0)
(4.47159 -0.00868109 0)
(4.48425 -0.00833589 0)
(4.49653 -0.00798407 0)
(4.50841 -0.00763128 0)
(4.51991 -0.00728393 0)
(4.53101 -0.00694821 0)
(4.54173 -0.00663155 0)
(4.55209 -0.00634223 0)
(4.56213 -0.00609194 0)
(4.57187 -0.00589788 0)
(4.58139 -0.00579058 0)
(4.59079 -0.00583101 0)
(4.59999 -0.00615223 0)
(4.61232 -0.00722577 0)
(-0.236987 0.736965 0)
(-0.487463 0.892666 0)
(-0.815345 0.94001 0)
(-1.14025 0.94637 0)
(-1.46114 0.934732 0)
(-1.77488 0.911718 0)
(-2.07898 0.880984 0)
(-2.37167 0.845148 0)
(-2.65192 0.80624 0)
(-2.91926 0.765822 0)
(-3.17363 0.725073 0)
(-3.41519 0.684842 0)
(-3.64429 0.6457 0)
(-3.86136 0.608004 0)
(-4.06688 0.571949 0)
(-4.26131 0.537599 0)
(-4.44512 0.504941 0)
(-4.61875 0.473888 0)
(-4.7826 0.444344 0)
(-4.93704 0.416175 0)
(-5.08241 0.389266 0)
(-5.21898 0.363487 0)
(-5.34701 0.338736 0)
(-5.46675 0.314902 0)
(-5.57839 0.291896 0)
(-5.6821 0.269631 0)
(-5.77807 0.248027 0)
(-5.86642 0.227019 0)
(-5.94728 0.206541 0)
(-6.02075 0.186529 0)
(-6.0869 0.166915 0)
(-6.14579 0.147634 0)
(-6.19748 0.128614 0)
(-6.24193 0.109777 0)
(-6.27908 0.0910355 0)
(-6.30888 0.0722966 0)
(-6.33128 0.0534555 0)
(-6.34622 0.034396 0)
(-6.3535 0.0150051 0)
(-6.35263 -0.00480429 0)
(-6.34362 -0.0251139 0)
(-6.32618 -0.0460564 0)
(-6.29997 -0.0678094 0)
(-6.26454 -0.0905511 0)
(-6.21937 -0.114455 0)
(-6.16384 -0.139682 0)
(-6.09728 -0.166369 0)
(-6.01893 -0.194621 0)
(-5.92801 -0.224501 0)
(-5.82369 -0.256017 0)
(-5.70514 -0.289114 0)
(-5.57153 -0.323654 0)
(-5.42213 -0.359407 0)
(-5.2563 -0.396047 0)
(-5.07355 -0.433152 0)
(-4.87358 -0.470198 0)
(-4.65639 -0.506572 0)
(-4.42224 -0.541592 0)
(-4.17173 -0.574538 0)
(-3.90582 -0.604679 0)
(-3.62584 -0.631327 0)
(-3.33345 -0.653895 0)
(-3.03058 -0.671893 0)
(-2.71941 -0.684989 0)
(-2.40219 -0.692946 0)
(-2.0812 -0.695695 0)
(-1.75864 -0.693316 0)
(-1.4366 -0.686396 0)
(-1.11728 -0.675988 0)
(-0.802378 -0.663421 0)
(-0.493571 -0.650555 0)
(-0.191489 -0.636961 0)
(0.108593 -0.619803 0)
(0.385278 -0.597841 0)
(0.645255 -0.569812 0)
(0.891428 -0.53794 0)
(1.12465 -0.504818 0)
(1.34524 -0.472071 0)
(1.55321 -0.440423 0)
(1.74861 -0.410158 0)
(1.93168 -0.381376 0)
(2.10278 -0.354104 0)
(2.26238 -0.328336 0)
(2.411 -0.304051 0)
(2.54918 -0.281215 0)
(2.67748 -0.259787 0)
(2.79647 -0.239718 0)
(2.90669 -0.220955 0)
(3.00868 -0.20344 0)
(3.10296 -0.187113 0)
(3.19003 -0.171915 0)
(3.27037 -0.157784 0)
(3.34443 -0.144661 0)
(3.41264 -0.132489 0)
(3.47543 -0.12121 0)
(3.53316 -0.110773 0)
(3.58622 -0.101124 0)
(3.63495 -0.0922173 0)
(3.67969 -0.084005 0)
(3.72073 -0.076444 0)
(3.75838 -0.0694924 0)
(3.7929 -0.063111 0)
(3.82456 -0.0572623 0)
(3.8536 -0.0519108 0)
(3.88024 -0.0470226 0)
(3.90469 -0.0425658 0)
(3.92715 -0.0385097 0)
(3.94781 -0.0348257 0)
(3.96682 -0.0314861 0)
(3.98436 -0.0284652 0)
(4.00056 -0.0257384 0)
(4.01557 -0.0232827 0)
(4.02949 -0.0210762 0)
(4.04245 -0.0190986 0)
(4.05454 -0.0173307 0)
(4.06587 -0.0157546 0)
(4.07653 -0.0143537 0)
(4.08658 -0.0131124 0)
(4.0961 -0.0120162 0)
(4.10516 -0.0110519 0)
(4.11381 -0.010207 0)
(4.12211 -0.00947015 0)
(4.13011 -0.00883087 0)
(4.13785 -0.00827958 0)
(4.14538 -0.00780746 0)
(4.15271 -0.00740651 0)
(4.15989 -0.00706943 0)
(4.16695 -0.00678961 0)
(4.17391 -0.00656109 0)
(4.1808 -0.00637848 0)
(4.18762 -0.00623701 0)
(4.19442 -0.00613236 0)
(4.20119 -0.00606078 0)
(4.20796 -0.00601891 0)
(4.21473 -0.00600387 0)
(4.22153 -0.00601316 0)
(4.22837 -0.00604468 0)
(4.23525 -0.00609664 0)
(4.24218 -0.00616765 0)
(4.24918 -0.00625657 0)
(4.25626 -0.00636263 0)
(4.26342 -0.00648524 0)
(4.27068 -0.0066242 0)
(4.27804 -0.00677942 0)
(4.28551 -0.00695118 0)
(4.29311 -0.00713985 0)
(4.30085 -0.00734613 0)
(4.30873 -0.00757076 0)
(4.31678 -0.00781479 0)
(4.32499 -0.00807924 0)
(4.3334 -0.00836539 0)
(4.342 -0.00867438 0)
(4.35083 -0.00900757 0)
(4.35989 -0.00936602 0)
(4.3692 -0.00975091 0)
(4.37878 -0.0101629 0)
(4.38865 -0.0106028 0)
(4.39883 -0.0110704 0)
(4.40934 -0.0115654 0)
(4.4202 -0.0120866 0)
(4.43143 -0.0126324 0)
(4.44304 -0.0131997 0)
(4.45505 -0.0137851 0)
(4.46747 -0.0143836 0)
(4.48031 -0.0149897 0)
(4.49358 -0.0155963 0)
(4.50728 -0.016196 0)
(4.5214 -0.0167801 0)
(4.53593 -0.0173397 0)
(4.55085 -0.0178654 0)
(4.56615 -0.018348 0)
(4.5818 -0.0187784 0)
(4.59775 -0.0191485 0)
(4.61398 -0.0194509 0)
(4.63042 -0.0196798 0)
(4.64705 -0.0198305 0)
(4.66379 -0.0199003 0)
(4.68061 -0.0198879 0)
(4.69744 -0.0197942 0)
(4.71423 -0.0196212 0)
(4.73093 -0.0193728 0)
(4.7475 -0.0190541 0)
(4.76387 -0.0186714 0)
(4.78002 -0.0182319 0)
(4.7959 -0.0177438 0)
(4.81149 -0.0172154 0)
(4.82674 -0.0166559 0)
(4.84165 -0.0160743 0)
(4.85619 -0.0154803 0)
(4.87036 -0.014883 0)
(4.88415 -0.0142924 0)
(4.89757 -0.0137185 0)
(4.91061 -0.0131727 0)
(4.9233 -0.0126676 0)
(4.93566 -0.0122203 0)
(4.94772 -0.0118548 0)
(4.95953 -0.011611 0)
(4.97113 -0.0115619 0)
(4.98235 -0.0118475 0)
(4.99666 -0.0128716 0)
(-0.228716 1.08715 0)
(-0.47327 1.2277 0)
(-0.779695 1.26867 0)
(-1.07954 1.26942 0)
(-1.37118 1.24903 0)
(-1.65426 1.21494 0)
(-1.92751 1.17165 0)
(-2.19004 1.12247 0)
(-2.44143 1.06992 0)
(-2.68156 1.01595 0)
(-2.91053 0.961946 0)
(-3.12859 0.908908 0)
(-3.33605 0.857482 0)
(-3.53326 0.808046 0)
(-3.72056 0.760784 0)
(-3.8983 0.715738 0)
(-4.0668 0.672852 0)
(-4.22634 0.632012 0)
(-4.37721 0.593066 0)
(-4.51966 0.555857 0)
(-4.65392 0.520228 0)
(-4.78018 0.486027 0)
(-4.89862 0.453116 0)
(-5.00942 0.421367 0)
(-5.11272 0.390669 0)
(-5.20868 0.360914 0)
(-5.29742 0.332012 0)
(-5.37906 0.303873 0)
(-5.45371 0.276417 0)
(-5.52145 0.249558 0)
(-5.58237 0.223209 0)
(-5.63653 0.19728 0)
(-5.68397 0.171676 0)
(-5.72467 0.146291 0)
(-5.7586 0.121011 0)
(-5.78569 0.0957025 0)
(-5.80589 0.0702144 0)
(-5.81916 0.0443852 0)
(-5.82526 0.0180797 0)
(-5.82366 -0.00878818 0)
(-5.81445 -0.0363196 0)
(-5.79733 -0.0647164 0)
(-5.77195 -0.0942325 0)
(-5.73788 -0.125124 0)
(-5.69456 -0.157635 0)
(-5.6414 -0.191994 0)
(-5.57768 -0.228395 0)
(-5.50266 -0.266991 0)
(-5.4155 -0.307875 0)
(-5.31535 -0.351072 0)
(-5.20134 -0.396516 0)
(-5.0726 -0.444033 0)
(-4.92833 -0.493317 0)
(-4.76783 -0.543925 0)
(-4.59054 -0.595281 0)
(-4.3961 -0.646666 0)
(-4.18441 -0.697218 0)
(-3.9557 -0.745978 0)
(-3.71052 -0.791952 0)
(-3.44982 -0.834119 0)
(-3.17493 -0.871504 0)
(-2.8875 -0.903278 0)
(-2.5895 -0.928664 0)
(-2.28306 -0.947141 0)
(-1.97053 -0.958364 0)
(-1.65419 -0.962432 0)
(-1.33656 -0.959792 0)
(-1.01981 -0.951665 0)
(-0.706771 -0.939384 0)
(-0.397188 -0.923771 0)
(-0.0920753 -0.904432 0)
(0.202102 -0.879456 0)
(0.478245 -0.848764 0)
(0.738631 -0.812712 0)
(0.984956 -0.77236 0)
(1.21856 -0.729258 0)
(1.43999 -0.685251 0)
(1.64933 -0.641649 0)
(1.84655 -0.599221 0)
(2.03174 -0.55839 0)
(2.20515 -0.519379 0)
(2.36713 -0.482301 0)
(2.51812 -0.447203 0)
(2.65862 -0.414091 0)
(2.78916 -0.38294 0)
(2.91027 -0.353708 0)
(3.0225 -0.326334 0)
(3.12637 -0.300748 0)
(3.2224 -0.276875 0)
(3.3111 -0.254633 0)
(3.39293 -0.23394 0)
(3.46837 -0.214713 0)
(3.53785 -0.19687 0)
(3.60179 -0.180332 0)
(3.66058 -0.165022 0)
(3.7146 -0.150866 0)
(3.76421 -0.137794 0)
(3.80974 -0.12574 0)
(3.85152 -0.11464 0)
(3.88984 -0.104433 0)
(3.92498 -0.095062 0)
(3.95722 -0.0864721 0)
(3.98679 -0.0786115 0)
(4.01394 -0.0714307 0)
(4.03888 -0.0648829 0)
(4.06182 -0.0589233 0)
(4.08294 -0.0535095 0)
(4.10243 -0.0486012 0)
(4.12043 -0.0441605 0)
(4.1371 -0.0401512 0)
(4.15258 -0.0365395 0)
(4.167 -0.0332932 0)
(4.18047 -0.0303824 0)
(4.19309 -0.0277789 0)
(4.20497 -0.0254563 0)
(4.21618 -0.0233901 0)
(4.22682 -0.0215574 0)
(4.23695 -0.0199369 0)
(4.24664 -0.0185092 0)
(4.25594 -0.0172559 0)
(4.26492 -0.0161604 0)
(4.27362 -0.0152072 0)
(4.28207 -0.0143825 0)
(4.29033 -0.0136731 0)
(4.29842 -0.0130674 0)
(4.30638 -0.0125547 0)
(4.31423 -0.0121253 0)
(4.322 -0.0117705 0)
(4.32971 -0.0114823 0)
(4.33738 -0.0112538 0)
(4.34503 -0.0110786 0)
(4.35268 -0.0109511 0)
(4.36033 -0.0108664 0)
(4.368 -0.0108202 0)
(4.37571 -0.0108089 0)
(4.38347 -0.0108291 0)
(4.39127 -0.0108783 0)
(4.39915 -0.0109542 0)
(4.40709 -0.011055 0)
(4.41512 -0.0111795 0)
(4.42325 -0.0113266 0)
(4.43147 -0.0114957 0)
(4.4398 -0.0116867 0)
(4.44825 -0.0118995 0)
(4.45683 -0.0121348 0)
(4.46555 -0.0123929 0)
(4.47441 -0.0126751 0)
(4.48344 -0.0129823 0)
(4.49264 -0.0133162 0)
(4.50202 -0.013678 0)
(4.51161 -0.0140696 0)
(4.5214 -0.0144926 0)
(4.53143 -0.0149488 0)
(4.5417 -0.0154399 0)
(4.55224 -0.0159672 0)
(4.56305 -0.0165318 0)
(4.57417 -0.0171346 0)
(4.5856 -0.0177755 0)
(4.59738 -0.018454 0)
(4.60951 -0.0191684 0)
(4.62201 -0.0199162 0)
(4.6349 -0.0206935 0)
(4.6482 -0.0214953 0)
(4.66191 -0.0223147 0)
(4.67605 -0.0231441 0)
(4.69062 -0.0239738 0)
(4.70561 -0.0247933 0)
(4.72102 -0.0255909 0)
(4.73684 -0.0263542 0)
(4.75305 -0.0270703 0)
(4.76963 -0.0277267 0)
(4.78654 -0.0283109 0)
(4.80375 -0.0288118 0)
(4.82122 -0.0292195 0)
(4.8389 -0.029526 0)
(4.85674 -0.0297253 0)
(4.87469 -0.0298138 0)
(4.8927 -0.0297899 0)
(4.91071 -0.0296548 0)
(4.92867 -0.0294115 0)
(4.94653 -0.0290656 0)
(4.96424 -0.0286239 0)
(4.98176 -0.0280951 0)
(4.99904 -0.0274891 0)
(5.01606 -0.0268169 0)
(5.03278 -0.0260898 0)
(5.04919 -0.0253202 0)
(5.06524 -0.0245201 0)
(5.08095 -0.0237022 0)
(5.09629 -0.022879 0)
(5.11127 -0.0220635 0)
(5.12588 -0.0212687 0)
(5.14014 -0.0205092 0)
(5.15406 -0.0198008 0)
(5.16766 -0.0191639 0)
(5.18096 -0.0186256 0)
(5.19398 -0.0182277 0)
(5.20678 -0.0180399 0)
(5.21905 -0.018178 0)
(5.23449 -0.0189204 0)
(-0.211238 1.40941 0)
(-0.440284 1.53114 0)
(-0.721044 1.56109 0)
(-0.992152 1.55337 0)
(-1.2533 1.52349 0)
(-1.50534 1.47898 0)
(-1.74792 1.4247 0)
(-1.98082 1.36429 0)
(-2.204 1.30052 0)
(-2.41759 1.23549 0)
(-2.62179 1.17072 0)
(-2.81682 1.10726 0)
(-3.00295 1.04577 0)
(-3.18042 0.986631 0)
(-3.34945 0.930006 0)
(-3.51026 0.875915 0)
(-3.66305 0.824279 0)
(-3.80798 0.774957 0)
(-3.94524 0.727779 0)
(-4.07496 0.682568 0)
(-4.19728 0.639146 0)
(-4.31232 0.597351 0)
(-4.4202 0.557029 0)
(-4.52103 0.518047 0)
(-4.61493 0.480281 0)
(-4.70198 0.44362 0)
(-4.7823 0.407961 0)
(-4.85599 0.37321 0)
(-4.92313 0.339273 0)
(-4.98383 0.306054 0)
(-5.03814 0.27345 0)
(-5.08615 0.241352 0)
(-5.1279 0.209641 0)
(-5.16341 0.178189 0)
(-5.19264 0.146852 0)
(-5.21555 0.115468 0)
(-5.23215 0.0838403 0)
(-5.24238 0.051758 0)
(-5.24597 0.0190518 0)
(-5.24241 -0.0143482 0)
(-5.23193 -0.0485449 0)
(-5.21417 -0.0838239 0)
(-5.18881 -0.120523 0)
(-5.1554 -0.158975 0)
(-5.11342 -0.199499 0)
(-5.06223 -0.242387 0)
(-5.00115 -0.287893 0)
(-4.92937 -0.336215 0)
(-4.84606 -0.387484 0)
(-4.75034 -0.441739 0)
(-4.64127 -0.498913 0)
(-4.51793 -0.558801 0)
(-4.37945 -0.621025 0)
(-4.22503 -0.685026 0)
(-4.05405 -0.750077 0)
(-3.86605 -0.81528 0)
(-3.66083 -0.879529 0)
(-3.43858 -0.941581 0)
(-3.1998 -1.00018 0)
(-2.9454 -1.05399 0)
(-2.67674 -1.10168 0)
(-2.39541 -1.14219 0)
(-2.10346 -1.17443 0)
(-1.80304 -1.19779 0)
(-1.49669 -1.21208 0)
(-1.18692 -1.21772 0)
(-0.876604 -1.21545 0)
(-0.567265 -1.20639 0)
(-0.263313 -1.19115 0)
(0.0427297 -1.16817 0)
(0.329659 -1.13804 0)
(0.602569 -1.10068 0)
(0.861426 -1.0575 0)
(1.10665 -1.00966 0)
(1.33891 -0.958279 0)
(1.55887 -0.904754 0)
(1.76693 -0.85058 0)
(1.96322 -0.796928 0)
(2.14785 -0.744596 0)
(2.32099 -0.694094 0)
(2.48293 -0.645734 0)
(2.63403 -0.599694 0)
(2.77475 -0.556066 0)
(2.90555 -0.514878 0)
(3.02696 -0.476116 0)
(3.13948 -0.439733 0)
(3.24364 -0.405661 0)
(3.33995 -0.373817 0)
(3.42889 -0.344107 0)
(3.51094 -0.316432 0)
(3.58656 -0.29069 0)
(3.65618 -0.266779 0)
(3.72022 -0.244597 0)
(3.77907 -0.224046 0)
(3.83312 -0.205032 0)
(3.88271 -0.187463 0)
(3.9282 -0.171251 0)
(3.9699 -0.156314 0)
(4.00811 -0.142572 0)
(4.04313 -0.12995 0)
(4.07521 -0.118375 0)
(4.10463 -0.107779 0)
(4.13161 -0.0980962 0)
(4.15637 -0.089264 0)
(4.17913 -0.081223 0)
(4.20008 -0.0739166 0)
(4.21939 -0.067291 0)
(4.23724 -0.0612952 0)
(4.25377 -0.0558807 0)
(4.26912 -0.0510019 0)
(4.28344 -0.0466158 0)
(4.29682 -0.0426817 0)
(4.30938 -0.0391617 0)
(4.32122 -0.0360202 0)
(4.33242 -0.0332241 0)
(4.34307 -0.0307426 0)
(4.35324 -0.0285468 0)
(4.36299 -0.0266103 0)
(4.37238 -0.0249086 0)
(4.38147 -0.0234191 0)
(4.3903 -0.0221209 0)
(4.39892 -0.0209952 0)
(4.40736 -0.0200244 0)
(4.41566 -0.0191928 0)
(4.42384 -0.0184858 0)
(4.43194 -0.0178905 0)
(4.43997 -0.017395 0)
(4.44796 -0.0169886 0)
(4.45593 -0.0166618 0)
(4.46389 -0.0164061 0)
(4.47186 -0.016214 0)
(4.47986 -0.0160786 0)
(4.48788 -0.0159942 0)
(4.49596 -0.0159556 0)
(4.50409 -0.0159585 0)
(4.51228 -0.0159991 0)
(4.52055 -0.0160743 0)
(4.5289 -0.0161815 0)
(4.53734 -0.0163188 0)
(4.54587 -0.0164846 0)
(4.55452 -0.0166781 0)
(4.56328 -0.0168984 0)
(4.57216 -0.0171457 0)
(4.58117 -0.0174201 0)
(4.59032 -0.0177222 0)
(4.59962 -0.0180531 0)
(4.60908 -0.0184139 0)
(4.61871 -0.0188064 0)
(4.62853 -0.0192322 0)
(4.63853 -0.0196934 0)
(4.64875 -0.0201922 0)
(4.6592 -0.0207307 0)
(4.66988 -0.0213112 0)
(4.68081 -0.0219356 0)
(4.69202 -0.0226058 0)
(4.70352 -0.0233231 0)
(4.71532 -0.0240885 0)
(4.72746 -0.0249018 0)
(4.73994 -0.0257624 0)
(4.75278 -0.0266679 0)
(4.766 -0.0276151 0)
(4.77962 -0.028599 0)
(4.79365 -0.0296129 0)
(4.8081 -0.0306483 0)
(4.82297 -0.031695 0)
(4.83827 -0.0327408 0)
(4.854 -0.0337722 0)
(4.87015 -0.0347743 0)
(4.88671 -0.0357314 0)
(4.90364 -0.0366269 0)
(4.92094 -0.0374451 0)
(4.93856 -0.0381704 0)
(4.95646 -0.0387888 0)
(4.97461 -0.0392879 0)
(4.99296 -0.0396581 0)
(5.01144 -0.0398919 0)
(5.03002 -0.0399853 0)
(5.04864 -0.0399366 0)
(5.06724 -0.0397478 0)
(5.08577 -0.039423 0)
(5.10418 -0.0389695 0)
(5.12243 -0.0383963 0)
(5.14048 -0.0377148 0)
(5.15827 -0.0369372 0)
(5.17579 -0.0360778 0)
(5.19301 -0.0351506 0)
(5.20989 -0.0341713 0)
(5.22643 -0.0331547 0)
(5.24262 -0.0321169 0)
(5.25844 -0.0310729 0)
(5.27391 -0.0300387 0)
(5.28901 -0.0290299 0)
(5.30377 -0.0280638 0)
(5.31819 -0.0271583 0)
(5.33229 -0.0263358 0)
(5.34609 -0.0256239 0)
(5.35961 -0.0250622 0)
(5.37287 -0.0247091 0)
(5.38553 -0.0246476 0)
(5.40139 -0.0250448 0)
(-0.189288 1.69645 0)
(-0.39693 1.80016 0)
(-0.648523 1.81785 0)
(-0.888539 1.80046 0)
(-1.11847 1.76091 0)
(-1.33951 1.70663 0)
(-1.55187 1.6426 0)
(-1.75571 1.57258 0)
(-1.95128 1.49943 0)
(-2.13882 1.42529 0)
(-2.31856 1.35169 0)
(-2.49071 1.27968 0)
(-2.65548 1.20989 0)
(-2.813 1.1427 0)
(-2.96342 1.07824 0)
(-3.10685 1.0165 0)
(-3.24339 0.957401 0)
(-3.3731 0.900774 0)
(-3.49608 0.846441 0)
(-3.61237 0.794212 0)
(-3.72205 0.743907 0)
(-3.82516 0.695355 0)
(-3.92176 0.648403 0)
(-4.0119 0.602915 0)
(-4.09565 0.558766 0)
(-4.17307 0.515847 0)
(-4.24424 0.474056 0)
(-4.30923 0.433294 0)
(-4.3681 0.393466 0)
(-4.42095 0.354469 0)
(-4.46783 0.316192 0)
(-4.50882 0.278512 0)
(-4.54398 0.241293 0)
(-4.57333 0.204385 0)
(-4.59685 0.167622 0)
(-4.61453 0.130813 0)
(-4.62642 0.0937207 0)
(-4.63248 0.0560891 0)
(-4.63242 0.0177161 0)
(-4.6258 -0.0214582 0)
(-4.61297 -0.0615426 0)
(-4.59354 -0.102915 0)
(-4.56719 -0.145996 0)
(-4.5335 -0.191197 0)
(-4.49196 -0.238913 0)
(-4.44194 -0.289506 0)
(-4.38275 -0.343293 0)
(-4.31359 -0.400529 0)
(-4.2336 -0.461385 0)
(-4.14187 -0.525927 0)
(-4.03744 -0.594096 0)
(-3.91929 -0.665671 0)
(-3.78647 -0.740213 0)
(-3.63813 -0.817041 0)
(-3.47355 -0.895287 0)
(-3.29217 -0.97389 0)
(-3.09368 -1.05151 0)
(-2.87826 -1.12657 0)
(-2.64634 -1.19753 0)
(-2.39874 -1.26275 0)
(-2.13693 -1.32042 0)
(-1.86239 -1.36933 0)
(-1.57744 -1.40822 0)
(-1.28433 -1.4365 0)
(-0.985782 -1.45428 0)
(-0.684723 -1.4618 0)
(-0.383427 -1.45973 0)
(-0.0819248 -1.44733 0)
(0.212069 -1.42438 0)
(0.492731 -1.39173 0)
(0.760437 -1.35024 0)
(1.01554 -1.30176 0)
(1.25785 -1.24765 0)
(1.4874 -1.1892 0)
(1.7045 -1.12765 0)
(1.90957 -1.06435 0)
(2.10296 -1.00065 0)
(2.2849 -0.937643 0)
(2.45563 -0.876159 0)
(2.61543 -0.816764 0)
(2.76463 -0.759834 0)
(2.90364 -0.705598 0)
(3.03291 -0.654178 0)
(3.15293 -0.605623 0)
(3.26418 -0.559923 0)
(3.36718 -0.51703 0)
(3.46241 -0.476864 0)
(3.55036 -0.43933 0)
(3.63148 -0.404317 0)
(3.70623 -0.37171 0)
(3.77502 -0.341387 0)
(3.83828 -0.313229 0)
(3.89639 -0.287117 0)
(3.94971 -0.262936 0)
(3.99861 -0.240574 0)
(4.04341 -0.219924 0)
(4.08444 -0.200884 0)
(4.12199 -0.183355 0)
(4.15635 -0.167244 0)
(4.1878 -0.152461 0)
(4.21658 -0.138921 0)
(4.24294 -0.126542 0)
(4.26709 -0.115245 0)
(4.28926 -0.104957 0)
(4.30963 -0.0956049 0)
(4.32838 -0.0871219 0)
(4.34569 -0.0794433 0)
(4.3617 -0.0725075 0)
(4.37656 -0.0662567 0)
(4.3904 -0.0606359 0)
(4.40334 -0.0555934 0)
(4.41549 -0.0510808 0)
(4.42694 -0.0470526 0)
(4.43779 -0.0434663 0)
(4.44811 -0.0402823 0)
(4.45797 -0.037464 0)
(4.46745 -0.0349773 0)
(4.4766 -0.0327907 0)
(4.48547 -0.0308753 0)
(4.49411 -0.0292043 0)
(4.50255 -0.0277536 0)
(4.51085 -0.0265006 0)
(4.51902 -0.0254251 0)
(4.52711 -0.0245084 0)
(4.53513 -0.023734 0)
(4.5431 -0.0230865 0)
(4.55105 -0.0225523 0)
(4.559 -0.0221191 0)
(4.56695 -0.0217761 0)
(4.57493 -0.0215133 0)
(4.58295 -0.0213222 0)
(4.59101 -0.0211951 0)
(4.59913 -0.0211255 0)
(4.60732 -0.0211075 0)
(4.61558 -0.0211364 0)
(4.62393 -0.0212078 0)
(4.63236 -0.0213184 0)
(4.64089 -0.0214654 0)
(4.64952 -0.0216468 0)
(4.65827 -0.0218609 0)
(4.66713 -0.0221069 0)
(4.67612 -0.0223841 0)
(4.68524 -0.0226928 0)
(4.6945 -0.0230331 0)
(4.70391 -0.0234063 0)
(4.71348 -0.0238134 0)
(4.72322 -0.0242562 0)
(4.73313 -0.0247366 0)
(4.74324 -0.025257 0)
(4.75355 -0.0258197 0)
(4.76407 -0.0264274 0)
(4.77483 -0.0270827 0)
(4.78583 -0.0277884 0)
(4.79709 -0.0285467 0)
(4.80864 -0.02936 0)
(4.82047 -0.0302298 0)
(4.83263 -0.031157 0)
(4.84511 -0.0321416 0)
(4.85794 -0.0331825 0)
(4.87115 -0.0342769 0)
(4.88474 -0.0354209 0)
(4.89872 -0.036608 0)
(4.91312 -0.0378301 0)
(4.92795 -0.0390768 0)
(4.9432 -0.0403356 0)
(4.95888 -0.0415916 0)
(4.97499 -0.0428284 0)
(4.99151 -0.0440276 0)
(5.00844 -0.0451702 0)
(5.02574 -0.0462363 0)
(5.0434 -0.0472068 0)
(5.06136 -0.0480629 0)
(5.07961 -0.0487881 0)
(5.09808 -0.0493676 0)
(5.11673 -0.0497902 0)
(5.13551 -0.0500473 0)
(5.15436 -0.0501346 0)
(5.17322 -0.0500507 0)
(5.19205 -0.0497983 0)
(5.21079 -0.0493832 0)
(5.2294 -0.0488145 0)
(5.24781 -0.0481033 0)
(5.266 -0.0472639 0)
(5.28393 -0.0463112 0)
(5.30157 -0.0452623 0)
(5.31889 -0.0441345 0)
(5.33586 -0.0429462 0)
(5.35249 -0.0417154 0)
(5.36875 -0.0404607 0)
(5.38464 -0.0392002 0)
(5.40016 -0.0379522 0)
(5.41533 -0.0367348 0)
(5.43014 -0.0355672 0)
(5.44462 -0.0344691 0)
(5.45878 -0.0334635 0)
(5.47262 -0.032577 0)
(5.48617 -0.0318445 0)
(5.49944 -0.0313114 0)
(5.51206 -0.0310296 0)
(5.52789 -0.0310802 0)
(-0.165048 1.94505 0)
(-0.347591 2.03285 0)
(-0.56771 2.03846 0)
(-0.775292 2.01133 0)
(-0.973614 1.96263 0)
(-1.16372 1.89957 0)
(-1.34618 1.82715 0)
(-1.5214 1.74911 0)
(-1.68974 1.66828 0)
(-1.85151 1.58676 0)
(-2.00695 1.50606 0)
(-2.15626 1.42715 0)
(-2.29955 1.35066 0)
(-2.43694 1.2769 0)
(-2.56847 1.206 0)
(-2.69418 1.13792 0)
(-2.81408 1.07257 0)
(-2.92818 1.00976 0)
(-3.03648 0.949307 0)
(-3.13897 0.891023 0)
(-3.23565 0.834727 0)
(-3.3265 0.780245 0)
(-3.41152 0.727432 0)
(-3.4907 0.676153 0)
(-3.56408 0.626291 0)
(-3.63165 0.577743 0)
(-3.69347 0.530411 0)
(-3.74957 0.484203 0)
(-3.79999 0.439023 0)
(-3.84479 0.39477 0)
(-3.88403 0.351329 0)
(-3.91776 0.308572 0)
(-3.94605 0.266351 0)
(-3.96891 0.224499 0)
(-3.98634 0.182832 0)
(-3.99835 0.141131 0)
(-4.00502 0.0991263 0)
(-4.00632 0.0565288 0)
(-4.00185 0.0131346 0)
(-3.99154 -0.0311204 0)
(-3.97561 -0.0763895 0)
(-3.9537 -0.123138 0)
(-3.92553 -0.171863 0)
(-3.89069 -0.223053 0)
(-3.84868 -0.277179 0)
(-3.79892 -0.334678 0)
(-3.74071 -0.395936 0)
(-3.67326 -0.461266 0)
(-3.59571 -0.530893 0)
(-3.50713 -0.604917 0)
(-3.40652 -0.683298 0)
(-3.29283 -0.765818 0)
(-3.16499 -0.851996 0)
(-3.02208 -0.941024 0)
(-2.86337 -1.03189 0)
(-2.68818 -1.12339 0)
(-2.49606 -1.21398 0)
(-2.28722 -1.30162 0)
(-2.06207 -1.38446 0)
(-1.82119 -1.46071 0)
(-1.56649 -1.52795 0)
(-1.29921 -1.58501 0)
(-1.02216 -1.63065 0)
(-0.737911 -1.66392 0)
(-0.448113 -1.68513 0)
(-0.157607 -1.6932 0)
(0.135764 -1.68753 0)
(0.4163 -1.66843 0)
(0.687744 -1.63675 0)
(0.948673 -1.59452 0)
(1.19819 -1.54334 0)
(1.43578 -1.4849 0)
(1.66112 -1.42076 0)
(1.87416 -1.35239 0)
(2.0751 -1.2812 0)
(2.26429 -1.20859 0)
(2.44208 -1.13586 0)
(2.60881 -1.06408 0)
(2.76482 -0.994087 0)
(2.91047 -0.926496 0)
(3.04617 -0.861717 0)
(3.17235 -0.800008 0)
(3.2895 -0.741515 0)
(3.39808 -0.68629 0)
(3.4986 -0.634326 0)
(3.59152 -0.585566 0)
(3.67733 -0.539919 0)
(3.75647 -0.497274 0)
(3.82937 -0.457504 0)
(3.89646 -0.420476 0)
(3.95813 -0.386052 0)
(4.01475 -0.354096 0)
(4.06669 -0.324472 0)
(4.11428 -0.297049 0)