/*--------------------------------*- C++ -*----------------------------------*\
  =========                 |
  \\      /  F ield         | OpenFOAM: The Open Source CFD Toolbox
   \\    /   O peration     | Website:  https://openfoam.org
    \\  /    A nd           | Version:  7
     \\/     M anipulation  |
\*---------------------------------------------------------------------------*/
FoamFile
{
    version     2.0;
    format      ascii;
    class       volScalarField;
    location    "5";
    object      p;
}
// * * * * * * * * * * * * * * * * * * * * * * * * * * * * * * * * * * * * * //

dimensions      [0 2 -2 0 0 0 0];

internalField   nonuniform List<scalar> 
900
(
1.18547e-06
-0.000307173
-0.000792481
-0.0012866
-0.00170403
-0.00198839
-0.00211206
-0.00206339
-0.00183722
-0.00143073
-0.000842815
-7.55859e-05
0.000862729
0.00195449
0.00316971
0.00446421
0.00577974
0.00704618
0.00818678
0.00912565
0.00979703
0.0101552
0.0101828
0.00989726
0.00935348
0.00864168
0.00784881
0.00715123
0.00666451
0.00651631
0.000308846
-9.82177e-06
-0.000373883
-0.000729757
-0.00102312
-0.00121368
-0.00127942
-0.00120873
-0.000994811
-0.000633386
-0.00012252
0.00053625
0.0013358
0.002261
0.00328637
0.00437462
0.00547837
0.00653906
0.00749373
0.00828062
0.00884685
0.00915668
0.00919843
0.00898879
0.00857384
0.00802541
0.00742975
0.00688733
0.0065037
0.00636658
0.00081262
0.000342742
-3.33748e-05
-0.000349747
-0.000595104
-0.000744651
-0.000785306
-0.000710131
-0.000513847
-0.000191948
0.000258815
0.000839043
0.00154457
0.00236403
0.00327661
0.00425093
0.00524405
0.00620354
0.00707148
0.00779014
0.00830952
0.00859538
0.00863604
0.00844644
0.00806826
0.0075655
0.00701646
0.00650536
0.00611145
0.00589498
0.00134608
0.000682556
0.000239559
-8.64283e-05
-0.000323457
-0.000461663
-0.000498244
-0.000432783
-0.000262774
1.62191e-05
0.000409299
0.000920341
0.00154949
0.00229034
0.0031272
0.0040332
0.00496922
0.005885
0.00672294
0.00742378
0.00793447
0.0082168
0.00825506
0.00806059
0.00767193
0.00714983
0.00656936
0.00601137
0.00553936
0.0051758
0.00179869
0.000928012
0.000398933
4.15551e-05
-0.000208251
-0.000354088
-0.000403059
-0.000361237
-0.000228798
-1.0385e-06
0.000329651
0.000771345
0.00132957
0.00200388
0.00278436
0.00364876
0.00456152
0.00547269
0.00632242
0.00704633
0.00758405
0.00788897
0.00793735
0.00773424
0.00731437
0.00673716
0.00607899
0.00542385
0.00482625
0.00427639
0.00207142
0.000996727
0.000374358
-2.73982e-05
-0.000305487
-0.00047541
-0.000553116
-0.000550355
-0.000469344
-0.000304444
-4.4747e-05
0.000322991
0.000810783
0.00142531
0.00216347
0.00300838
0.00392849
0.00487312
0.00577851
0.0065722
0.00718226
0.00754869
0.00763465
0.00743474
0.00697771
0.00632227
0.00555007
0.00475529
0.00399111
0.00322105
0.00208143
0.000814777
9.91114e-05
-0.000354246
-0.000672198
-0.000880851
-0.00100386
-0.00105762
-0.00104551
-0.000960159
-0.000786465
-0.000504964
-9.5849e-05
0.000456241
0.00115668
0.00199546
0.00294765
0.00396124
0.00496816
0.0058856
0.00662588
0.00710972
0.00728037
0.00711558
0.00663365
0.0058915
0.00497904
0.00400779
0.00303744
0.00200859
0.00175684
0.000315013
-0.000489657
-0.000998238
-0.00136531
-0.00162672
-0.00181282
-0.00194372
-0.00202315
-0.00204121
-0.00197777
-0.001806
-0.00149672
-0.00102384
-0.000370509
0.000464148
0.00146101
0.00257285
0.00372751
0.00483041
0.0057741
0.00645307
0.00678155
0.00671082
0.00624083
0.00542267
0.00435598
0.00317663
0.0019584
0.00062052
0.00103325
-0.000563782
-0.00145094
-0.00201696
-0.00244205
-0.00277122
-0.00304086
-0.00327409
-0.00347445
-0.00362902
-0.00371192
-0.00368783
-0.00351647
-0.00315825
-0.00258092
-0.00176715
-0.000729019
0.000499637
0.00184518
0.00320178
0.00443905
0.00541749
0.0060106
0.0061292
0.00574182
0.00488502
0.00366681
0.00225408
0.000742385
-0.000970968
-0.00014639
-0.00187581
-0.00283778
-0.00346341
-0.00395631
-0.00437036
-0.00474763
-0.00511399
-0.00547267
-0.00580764
-0.00608695
-0.00626593
-0.00629129
-0.00610681
-0.00566069
-0.00491487
-0.0038586
-0.00251256
-0.000943257
0.000736633
0.00237278
0.00378434
0.00478991
0.00524072
0.00505359
0.00423441
0.00289298
0.00123257
-0.000621362
-0.0027952
-0.00183027
-0.00366638
-0.00469477
-0.00538266
-0.00595453
-0.00647299
-0.00698577
-0.00752171
-0.00808421
-0.00865462
-0.0091952
-0.00965148
-0.0099556
-0.0100315
-0.00980229
-0.00920142
-0.00818672
-0.00675317
-0.00494929
-0.002886
-0.000738272
0.00126678
0.00287787
0.00386238
0.00405592
0.00340659
0.00201021
0.000107864
-0.00213654
-0.00487516
-0.00405516
-0.00596962
-0.00705547
-0.00780861
-0.00847145
-0.00911535
-0.0097941
-0.0105402
-0.0113584
-0.0122287
-0.0131085
-0.0139339
-0.0146215
-0.0150727
-0.0151802
-0.0148402
-0.0139683
-0.0125188
-0.0105066
-0.00802595
-0.00526226
-0.00248802
-3.6777e-05
0.00174762
0.00258034
0.00230962
0.000986603
-0.00111728
-0.00379256
-0.00721851
-0.00684351
-0.00880616
-0.00993984
-0.0107607
-0.0115257
-0.0123153
-0.0131901
-0.0141877
-0.0153157
-0.0165548
-0.0178597
-0.0191582
-0.0203517
-0.0213168
-0.0219118
-0.0219876
-0.0214055
-0.020063
-0.017921
-0.0150359
-0.0115843
-0.00787313
-0.00432241
-0.0014125
0.000404636
0.000817917
-0.000218792
-0.00242842
-0.00555513
-0.00980608
-0.010201
-0.0121814
-0.0133523
-0.0142412
-0.0151161
-0.0160669
-0.0171625
-0.0184473
-0.0199346
-0.0216083
-0.0234229
-0.0253004
-0.0271283
-0.0287586
-0.0300121
-0.0306886
-0.0305851
-0.0295246
-0.0273938
-0.0241839
-0.0200344
-0.0152616
-0.0103614
-0.00596498
-0.00273823
-0.00122653
-0.0016542
-0.00379197
-0.00735327
-0.0125758
-0.0141149
-0.0160848
-0.0172812
-0.0182336
-0.0192182
-0.0203355
-0.0216645
-0.023259
-0.0251408
-0.0273005
-0.0296955
-0.0322454
-0.0348262
-0.0372669
-0.0393507
-0.0408237
-0.0414107
-0.0408454
-0.038929
-0.0355527
-0.0307832
-0.0249079
-0.0184671
-0.012235
-0.00712475
-0.00399729
-0.00336544
-0.00514279
-0.00906088
-0.0154004
-0.0185545
-0.0204913
-0.0216997
-0.0227033
-0.0237843
-0.0250557
-0.02661
-0.0285137
-0.0308003
-0.0334705
-0.0364883
-0.0397742
-0.0431963
-0.0465634
-0.0496238
-0.0520702
-0.0535531
-0.0537067
-0.052254
-0.0489401
-0.0437265
-0.036824
-0.0287639
-0.0204245
-0.0129686
-0.0076402
-0.00537129
-0.00636339
-0.0104709
-0.0180561
-0.0234737
-0.0253655
-0.0265698
-0.0275998
-0.0287437
-0.0301312
-0.0318727
-0.0340519
-0.0367178
-0.0398846
-0.043526
-0.0475662
-0.051869
-0.0562272
-0.0603579
-0.0639049
-0.0664557
-0.0675721
-0.0667908
-0.0637964
-0.058394
-0.0506624
-0.0410551
-0.0304815
-0.0203099
-0.0121959
-0.00761563
-0.0072502
-0.0112598
-0.0201821
-0.0288165
-0.0306682
-0.031849
-0.0328623
-0.0340072
-0.0354377
-0.0372892
-0.0396685
-0.0426445
-0.0462472
-0.0504622
-0.0552199
-0.0603815
-0.0657276
-0.0709493
-0.0756487
-0.0793521
-0.081536
-0.081652
-0.0792316
-0.0739289
-0.0656571
-0.0547234
-0.0419727
-0.0288844
-0.0174898
-0.00989165
-0.00746211
-0.0109407
-0.0212266
-0.0345268
-0.0363688
-0.0375005
-0.0384272
-0.0394727
-0.040828
-0.0426653
-0.0451221
-0.0482912
-0.0522207
-0.0569085
-0.0622906
-0.0682269
-0.0744871
-0.0807406
-0.0865553
-0.0914069
-0.0947014
-0.095807
-0.0941309
-0.0891744
-0.0806675
-0.0687188
-0.0540129
-0.0380108
-0.0230093
-0.0117395
-0.00644787
-0.00880172
-0.020379
-0.0405642
-0.0424617
-0.0435066
-0.0442371
-0.0450309
-0.0461383
-0.0477847
-0.050148
-0.0533491
-0.0574542
-0.0624713
-0.0683398
-0.0749156
-0.0819568
-0.0891129
-0.0959222
-0.101819
-0.106154
-0.108225
-0.107335
-0.102855
-0.0943355
-0.0816666
-0.0653016
-0.0465499
-0.027808
-0.012335
-0.00335225
-0.00382847
-0.0164792
-0.0469285
-0.0489925
-0.0498865
-0.0502501
-0.0505709
-0.0511935
-0.0524185
-0.0544746
-0.057513
-0.0616153
-0.0667943
-0.0729864
-0.0800381
-0.0876918
-0.0955756
-0.103199
-0.109962
-0.115168
-0.11806
-0.117847
-0.113801
-0.105319
-0.0920799
-0.0742793
-0.0529753
-0.030483
-0.0104018
0.00309009
0.00539355
-0.00789159
-0.0537052
-0.0560971
-0.0567191
-0.0564483
-0.0559827
-0.055811
-0.056334
-0.0578394
-0.0605059
-0.0644223
-0.0695962
-0.0759507
-0.0833148
-0.0914069
-0.0998291
-0.10806
-0.115463
-0.121299
-0.124755
-0.12498
-0.121145
-0.112526
-0.098615
-0.0793709
-0.0555569
-0.0292591
-0.0041874
0.0146503
0.0207976
0.00768444
-0.061154
-0.0640661
-0.0641716
-0.0628426
-0.0611549
-0.0598026
-0.0593055
-0.0600081
-0.0621039
-0.065673
-0.0707016
-0.0770854
-0.0846259
-0.0930034
-0.101788
-0.110423
-0.118229
-0.12442
-0.128129
-0.128437
-0.124422
-0.115272
-0.100287
-0.0792461
-0.0526206
-0.0221845
0.00845657
0.0336556
0.0449899
0.0335187
-0.0698968
-0.0734539
-0.0725363
-0.0694751
-0.0659718
-0.0629781
-0.0611268
-0.0607945
-0.0621605
-0.0652689
-0.0700633
-0.0763926
-0.0840104
-0.0925587
-0.101562
-0.110417
-0.118399
-0.124667
-0.128289
-0.128272
-0.123588
-0.113295
-0.0965906
-0.0730417
-0.0428497
-0.00745612
0.0298332
0.0629479
0.0814685
0.0743357
-0.0813373
-0.0852633
-0.0822624
-0.0764058
-0.0703022
-0.0651472
-0.0616235
-0.0600777
-0.0606222
-0.0632256
-0.0677578
-0.0740023
-0.0816514
-0.0902934
-0.0994005
-0.108319
-0.116269
-0.122347
-0.125545
-0.124782
-0.118895
-0.106815
-0.0875722
-0.0605212
-0.0256248
0.0161045
0.0618811
0.105627
0.134796
0.136812
-0.0986342
-0.101266
-0.0939449
-0.0836508
-0.073952
-0.0660863
-0.0606284
-0.0577779
-0.0575019
-0.0596388
-0.0639512
-0.0701352
-0.0778098
-0.0865005
-0.0956231
-0.10447
-0.112204
-0.117857
-0.120336
-0.118454
-0.110909
-0.0964559
-0.0739035
-0.0423184
-0.00130103
0.0486119
0.1054
0.164245
0.210137
0.229496
-0.128871
-0.124482
-0.108309
-0.0911208
-0.0765921
-0.0654667
-0.0579173
-0.0538016
-0.0528298
-0.0546413
-0.0588536
-0.0650564
-0.0727881
-0.0815101
-0.0905839
-0.0992523
-0.106626
-0.111677
-0.113252
-0.110106
-0.100589
-0.0834284
-0.0571042
-0.0202504
0.0281371
0.0884044
0.159918
0.239026
0.311515
0.364084
-0.187978
-0.158265
-0.125659
-0.0981919
-0.0773503
-0.0625543
-0.0530157
-0.0479415
-0.0466058
-0.0483794
-0.0527106
-0.0590793
-0.06695
-0.0757324
-0.0847484
-0.0932054
-0.100177
-0.104587
-0.105203
-0.100624
-0.0895285
-0.0699471
-0.0401183
0.00185963
0.0579756
0.130174
0.22025
0.327456
0.441135
0.56742
-0.319503
-0.198321
-0.137445
-0.0970901
-0.0701746
-0.0529654
-0.0429183
-0.0381659
-0.0374396
-0.0398778
-0.0448268
-0.0517174
-0.0599912
-0.0690488
-0.0782096
-0.0866811
-0.0935375
-0.0976988
-0.0979177
-0.0927099
-0.0807138
-0.0599059
-0.0282018
0.0168676
0.0784783
0.161012
0.270911
0.416616
0.605038
0.894598
-0.646655
-0.234643
-0.105958
-0.0620943
-0.0383629
-0.0250823
-0.0192785
-0.0183232
-0.0206291
-0.0254064
-0.0321626
-0.0404661
-0.049865
-0.0598443
-0.0697909
-0.0789681
-0.0864969
-0.0913465
-0.0923424
-0.0881942
-0.0770723
-0.057289
-0.0267318
0.0172826
0.0785122
0.163207
0.283791
0.468533
0.774732
1.36862
)
;

boundaryField
{
    movingWall
    {
        type            zeroGradient;
    }
    fixedWalls
    {
        type            zeroGradient;
    }
    frontAndBack
    {
        type            empty;
    }
}


// ************************************************************************* //
