/*--------------------------------*- C++ -*----------------------------------*\
  =========                 |
  \\      /  F ield         | OpenFOAM: The Open Source CFD Toolbox
   \\    /   O peration     | Website:  https://openfoam.org
    \\  /    A nd           | Version:  7
     \\/     M anipulation  |
\*---------------------------------------------------------------------------*/
FoamFile
{
    version     2.0;
    format      ascii;
    class       surfaceScalarField;
    location    "5";
    object      phi;
}
// * * * * * * * * * * * * * * * * * * * * * * * * * * * * * * * * * * * * * //

dimensions      [0 3 -1 0 0 0 0];

internalField   nonuniform List<scalar> 
1740
(
6.57915e-07
-6.58883e-07
2.19694e-07
4.3821e-07
-1.63059e-06
1.85029e-06
-4.72484e-06
3.09426e-06
-8.74155e-06
4.01671e-06
-1.3366e-05
4.62446e-06
-1.83356e-05
4.96962e-06
-2.34384e-05
5.10276e-06
-2.84945e-05
5.05614e-06
-3.33363e-05
4.84172e-06
-3.77919e-05
4.45567e-06
-4.16777e-05
3.88574e-06
-4.47974e-05
3.11972e-06
-4.69514e-05
2.15402e-06
-4.79528e-05
1.00144e-06
-4.76497e-05
-3.03174e-07
-4.59497e-05
-1.69996e-06
-4.28469e-05
-3.10281e-06
-3.84412e-05
-4.40568e-06
-3.29492e-05
-5.49197e-06
-2.67011e-05
-6.24814e-06
-2.01211e-05
-6.58004e-06
-1.3692e-05
-6.42911e-06
-7.90706e-06
-5.78489e-06
-3.21548e-06
-4.69158e-06
4.26036e-08
-3.25807e-06
1.74127e-06
-1.69867e-06
1.91214e-06
-1.70865e-07
9.75439e-07
9.36701e-07
9.75437e-07
-4.23308e-07
-2.35584e-07
-3.46121e-06
3.47612e-06
-9.54302e-06
7.9321e-06
-1.82818e-05
1.1833e-05
-2.90844e-05
1.48193e-05
-4.13147e-05
1.68548e-05
-5.43777e-05
1.80326e-05
-6.77406e-05
1.84657e-05
-8.09181e-05
1.82336e-05
-9.34456e-05
1.73692e-05
-0.000104857
1.58669e-05
-0.000114673
1.37024e-05
-0.000122411
1.08569e-05
-0.000127599
7.34261e-06
-0.000129822
3.22449e-06
-0.000128768
-1.35764e-06
-0.000124267
-6.20113e-06
-0.000116359
-1.10105e-05
-0.000105321
-1.54434e-05
-9.16847e-05
-1.91285e-05
-7.62233e-05
-2.17095e-05
-5.99088e-05
-2.28946e-05
-4.38321e-05
-2.25058e-05
-2.90969e-05
-2.052e-05
-1.66937e-05
-1.70948e-05
-7.3664e-06
-1.25854e-05
-1.5208e-06
-7.54427e-06
1.00777e-06
-2.69944e-06
9.91807e-07
9.52665e-07
1.96724e-06
-1.97482e-06
1.73923e-06
-8.39807e-06
9.89938e-06
-1.90501e-05
1.85841e-05
-3.33021e-05
2.60851e-05
-5.03354e-05
3.18527e-05
-6.92937e-05
3.5813e-05
-8.93569e-05
3.80958e-05
-0.000109762
3.88706e-05
-0.00012979
3.82613e-05
-0.00014874
3.63197e-05
-0.000165912
3.30392e-05
-0.000180598
2.83878e-05
-0.000192094
2.23528e-05
-0.000199736
1.49855e-05
-0.000202953
6.44143e-06
-0.000201321
-2.99015e-06
-0.000194635
-1.28875e-05
-0.000182971
-2.26742e-05
-0.000166731
-3.16828e-05
-0.000146663
-3.91971e-05
-0.00012384
-4.4532e-05
-9.96097e-05
-4.71252e-05
-7.54853e-05
-4.66302e-05
-5.30088e-05
-4.29965e-05
-3.35805e-05
-3.65232e-05
-1.82832e-05
-2.78827e-05
-7.71161e-06
-1.81158e-05
-1.81129e-06
-8.59977e-06
2.19752e-07
-1.07837e-06
2.18699e-06
-3.59362e-06
5.33286e-06
-1.35271e-05
1.98329e-05
-2.88542e-05
3.39111e-05
-4.853e-05
4.57609e-05
-7.14745e-05
5.47971e-05
-9.66359e-05
6.09745e-05
-0.000123024
6.44836e-05
-0.000149708
6.55551e-05
-0.0001758
6.43526e-05
-0.000200422
6.09419e-05
-0.000222695
5.53121e-05
-0.000241732
4.74253e-05
-0.000256662
3.72824e-05
-0.000266665
2.49892e-05
-0.000271039
1.08151e-05
-0.000269262
-4.76716e-06
-0.000261074
-2.10756e-05
-0.000246547
-3.72012e-05
-0.000226139
-5.20903e-05
-0.000200724
-6.46125e-05
-0.000171577
-7.36795e-05
-0.000140317
-7.83849e-05
-0.000108797
-7.81503e-05
-7.89364e-05
-7.28568e-05
-5.25226e-05
-6.2937e-05
-3.09916e-05
-4.94137e-05
-1.52237e-05
-3.38837e-05
-5.37263e-06
-1.84509e-05
-7.91139e-07
-5.65986e-06
1.39586e-06
-5.12824e-06
1.04611e-05
-1.85031e-05
3.32078e-05
-3.8423e-05
5.3831e-05
-6.33679e-05
7.07058e-05
-9.19622e-05
8.33915e-05
-0.000122962
9.19746e-05
-0.000155236
9.67575e-05
-0.000187731
9.805e-05
-0.000219436
9.60578e-05
-0.00024935
9.08559e-05
-0.000276461
8.24223e-05
-0.000299744
7.07083e-05
-0.000318187
5.57263e-05
-0.000330836
3.7638e-05
-0.000336853
1.68322e-05
-0.000335599
-6.0211e-06
-0.00032671
-2.99651e-05
-0.000310187
-5.37236e-05
-0.000286465
-7.58123e-05
-0.000256455
-9.46233e-05
-0.00022155
-0.000108584
-0.000183584
-0.00011635
-0.000144718
-0.000117017
-0.000107258
-0.000110317
-7.34275e-05
-9.67672e-05
-4.51015e-05
-7.77398e-05
-2.35543e-05
-5.54309e-05
-9.26522e-06
-3.27399e-05
-1.83194e-06
-1.30931e-05
-4.36082e-07
-6.54565e-06
1.70067e-05
-2.31872e-05
4.98493e-05
-4.75034e-05
7.81472e-05
-7.74926e-05
0.000100695
-0.000111475
0.000117374
-0.00014802
0.00012852
-0.000185876
0.000134613
-0.000223899
0.000136073
-0.000260998
0.000133157
-0.000296088
0.000125946
-0.000328064
0.000114397
-0.000355794
9.84383e-05
-0.000378145
7.8078e-05
-0.000394026
5.35187e-05
-0.000402448
2.52536e-05
-0.00040261
-5.85819e-06
-0.000393979
-3.85967e-05
-0.000376403
-7.12995e-05
-0.000350195
-0.00010202
-0.000316211
-0.000128608
-0.000275883
-0.000148912
-0.000231211
-0.000161023
-0.000184657
-0.000163571
-0.000138967
-0.000156006
-9.68988e-05
-0.000138836
-6.08981e-05
-0.000113741
-3.27789e-05
-8.355e-05
-1.34704e-05
-5.20485e-05
-2.89594e-06
-2.36676e-05
-3.33203e-06
-7.84276e-06
2.48495e-05
-2.75212e-05
6.95278e-05
-5.59601e-05
0.000106586
-9.07032e-05
0.000135438
-0.000129781
0.000156452
-0.00017159
0.000170329
-0.000214778
0.000177801
-0.000258142
0.000179437
-0.000300546
0.000175561
-0.000340857
0.000166257
-0.000377907
0.000151448
-0.000410486
0.000131017
-0.000437352
0.000104944
-0.00045727
7.34368e-05
-0.000469073
3.70558e-05
-0.000471754
-3.17719e-06
-0.000464525
-4.58254e-05
-0.000446994
-8.88309e-05
-0.000419242
-0.000129771
-0.000381958
-0.000165893
-0.00033652
-0.000194349
-0.000285031
-0.000212512
-0.000230253
-0.000218348
-0.000175431
-0.000210829
-0.000123982
-0.000190285
-7.90992e-05
-0.000158623
-4.33252e-05
-0.000119324
-1.81944e-05
-7.71793e-05
-4.04492e-06
-3.7817e-05
-7.37695e-06
-9.01636e-06
3.38659e-05
-3.14637e-05
9.19751e-05
-6.36884e-05
0.000138811
-0.000102828
0.000174578
-0.000146653
0.000200276
-0.000193409
0.000217086
-0.000241671
0.000226063
-0.000290204
0.00022797
-0.000337857
0.000223214
-0.000383484
0.000211883
-0.000425887
0.000193852
-0.0004638
0.000168931
-0.000495886
0.000137029
-0.000520764
9.83151e-05
-0.000537066
5.33577e-05
-0.000543517
3.27397e-06
-0.000539029
-5.03134e-05
-0.000522852
-0.000105008
-0.000494722
-0.000157902
-0.000455029
-0.000205586
-0.000404973
-0.000244405
-0.000346667
-0.000270818
-0.000283134
-0.000281882
-0.000218159
-0.000275804
-0.000155956
-0.000252488
-0.000100675
-0.000213904
-5.5826e-05
-0.000164173
-2.37653e-05
-0.00010924
-5.38073e-06
-5.62016e-05
-1.27577e-05
-1.00543e-05
4.39202e-05
-3.49607e-05
0.000116882
-7.05702e-05
0.00017442
-0.000113672
0.00021768
-0.000161817
0.000248421
-0.000213131
0.000268399
-0.000266139
0.000279071
-0.000319602
0.000281434
-0.000372388
0.000276
-0.000423367
0.000262862
-0.000471346
0.000241831
-0.00051503
0.000212614
-0.000553005
0.000175004
-0.000583755
0.000129065
-0.000605702
7.53048e-05
-0.00061726
1.48315e-05
-0.000616999
-5.05742e-05
-0.000603713
-0.000118294
-0.000576669
-0.000184945
-0.000535814
-0.00024644
-0.000482007
-0.000298212
-0.00041722
-0.000335606
-0.000344635
-0.000354466
-0.00026857
-0.000351869
-0.000194147
-0.000326911
-0.000126703
-0.000281348
-7.10202e-05
-0.000219855
-3.05746e-05
-0.000149686
-7.02339e-06
-7.97528e-05
-1.97811e-05
-1.09355e-05
5.48557e-05
-3.79404e-05
0.000143886
-7.64607e-05
0.00021294
-0.000123002
0.000264222
-0.000174938
0.000300356
-0.000230304
0.000323766
-0.000287605
0.000336371
-0.000345622
0.000339451
-0.000403267
0.000333646
-0.000459464
0.000319058
-0.000513056
0.000295423
-0.000562753
0.000262311
-0.000607098
0.000219349
-0.000644463
0.00016643
-0.000673072
0.000103913
-0.000691048
3.28083e-05
-0.000696549
-4.50738e-05
-0.000687872
-0.00012697
-0.000663706
-0.000209111
-0.000623394
-0.000286753
-0.000567253
-0.000354353
-0.000496896
-0.000405963
-0.000415475
-0.000435888
-0.000327731
-0.000439612
-0.000239741
-0.000414901
-0.000158251
-0.000362838
-8.96844e-05
-0.000288422
-3.90459e-05
-0.000200324
-9.10273e-06
-0.000109696
-2.88838e-05
-1.1633e-05
6.64887e-05
-4.03183e-05
0.000172572
-8.11952e-05
0.000253817
-0.000130552
0.000313579
-0.000185626
0.00035543
-0.000244394
0.000382533
-0.000305356
0.000397333
-0.000367339
0.000401434
-0.000429328
0.000395635
-0.000490325
0.000380055
-0.000549248
0.000354347
-0.000604857
0.000317919
-0.000655696
0.000270189
-0.000700075
0.000210809
-0.000736064
0.000139902
-0.000761532
5.82768e-05
-0.00077424
-3.2366e-05
-0.000771967
-0.000129243
-0.000752748
-0.00022833
-0.000715177
-0.000324324
-0.000658806
-0.000410724
-0.000584601
-0.000480168
-0.000495372
-0.000525117
-0.000396045
-0.00053894
-0.000293563
-0.000517383
-0.000196249
-0.000460152
-0.000112574
-0.000372097
-4.96164e-05
-0.000263282
-1.17562e-05
-0.000147556
-4.064e-05
-1.21193e-05
7.8608e-05
-4.20096e-05
0.000202462
-8.4609e-05
0.000296417
-0.000136052
0.000365022
-0.000193477
0.000412855
-0.000254819
0.000443876
-0.000318595
0.000461109
-0.000383692
0.000466531
-0.000449183
0.000461126
-0.000514183
0.000445055
-0.000577722
0.000417885
-0.000638654
0.000378852
-0.000695592
0.000327126
-0.000746851
0.000262068
-0.000790433
0.000183485
-0.000824031
9.18753e-05
-0.000845086
-1.13114e-05
-0.000850898
-0.000123431
-0.000838833
-0.000240395
-0.000806632
-0.000356525
-0.000752867
-0.000464489
-0.000677518
-0.000555517
-0.000582631
-0.000620003
-0.000472886
-0.000648685
-0.000355814
-0.000634455
-0.000241332
-0.000574634
-0.000140357
-0.000473072
-6.27183e-05
-0.00034092
-1.51287e-05
-0.000195146
-5.57687e-05
-1.2372e-05
9.098e-05
-4.29471e-05
0.000233037
-8.65668e-05
0.000340036
-0.000139269
0.000417724
-0.000198119
0.000471705
-0.000261027
0.000506784
-0.000326529
0.000526611
-0.00039358
0.000533582
-0.000461361
0.000528907
-0.000529118
0.000512812
-0.000596031
0.000484798
-0.000661106
0.000443927
-0.00072309
0.00038911
-0.000780404
0.000319382
-0.000831094
0.000234175
-0.000872807
0.000133588
-0.000902797
1.86787e-05
-0.000918006
-0.000108222
-0.000915196
-0.000243204
-0.000891236
-0.000380486
-0.00084355
-0.000512174
-0.0007708
-0.000628268
-0.000673747
-0.000717056
-0.000556206
-0.000766226
-0.000425745
-0.000764916
-0.000293634
-0.000706745
-0.000173516
-0.00059319
-7.87537e-05
-0.000435682
-1.93714e-05
-0.000254528
-7.51401e-05
-1.23816e-05
0.000103362
-4.31017e-05
0.000263757
-8.70007e-05
0.000383935
-0.000140061
0.000470784
-0.000199293
0.000530937
-0.00026258
0.000570071
-0.00032848
0.000592511
-0.000396014
0.000601116
-0.000464479
0.000597372
-0.000533273
0.000581606
-0.000601759
0.000553284
-0.000669149
0.000511317
-0.000734403
0.000454365
-0.000796154
0.000381133
-0.00085263
0.000290651
-0.0009016
0.000182557
-0.000940326
5.74057e-05
-0.000965578
-8.29702e-05
-0.000973694
-0.000235088
-0.000960754
-0.000393425
-0.000922989
-0.00054994
-0.000857466
-0.000693791
-0.000763135
-0.000811388
-0.000642167
-0.000887194
-0.0005013
-0.000905782
-0.00035253
-0.000855516
-0.000212219
-0.0007335
-9.80536e-05
-0.000549848
-2.46384e-05
-0.000327943
-9.97785e-05
-1.21597e-05
0.000115521
-4.25078e-05
0.000294105
-8.59526e-05
0.00042738
-0.000138441
0.000523273
-0.000196927
0.000589423
-0.000259261
0.000632405
-0.000324013
0.000657263
-0.000390272
0.000667375
-0.000457451
0.000664551
-0.000525117
0.000649272
-0.000592847
0.000621014
-0.000660106
0.000578576
-0.000726148
0.000520407
-0.000789923
0.000444908
-0.000849987
0.000350715
-0.000904419
0.000236989
-0.000950725
0.000103711
-0.000985721
-4.79733e-05
-0.00100564
-0.000215169
-0.00100598
-0.000393088
-0.000981875
-0.000574043
-0.000928702
-0.000746964
-0.000843153
-0.000896936
-0.000724927
-0.00100542
-0.000578788
-0.00105192
-0.000416336
-0.00101797
-0.000256146
-0.00089369
-0.000120818
-0.000685175
-3.10789e-05
-0.000417683
-0.000130857
-1.17474e-05
0.000127269
-4.12891e-05
0.000323647
-8.36217e-05
0.000469713
-0.00013464
0.000574291
-0.000191223
0.000646006
-0.000251173
0.000692355
-0.000313069
0.000719158
-0.000376063
0.00073037
-0.000439695
0.000728182
-0.000503711
0.000713289
-0.00056793
0.000685232
-0.000632115
0.000642761
-0.000695879
0.000584171
-0.000758585
0.000507614
-0.000819253
0.000411383
-0.000876449
0.000294185
-0.000928173
0.000155435
-0.000971503
-4.64383e-06
-0.00100302
-0.000183655
-0.00101789
-0.000378217
-0.00101049
-0.000581437
-0.000974636
-0.000782821
-0.000904551
-0.000967022
-0.000796739
-0.00111323
-0.000652703
-0.00119596
-0.000482034
-0.00118864
-0.000304279
-0.00107144
-0.000147037
-0.000842417
-3.88258e-05
-0.000525894
-0.000169683
-1.12257e-05
0.000138494
-3.96892e-05
0.000352111
-8.04136e-05
0.000510437
-0.000129175
0.000623052
-0.000182735
0.000699566
-0.000238838
0.000748459
-0.000296072
0.000776391
-0.000353666
0.000787964
-0.000411299
0.000785815
-0.000468921
0.000770912
-0.000526615
0.000742926
-0.00058448
0.000700626
-0.000642536
0.000642227
-0.000700634
0.000565712
-0.000758356
0.000469106
-0.000814896
0.000350725
-0.000868876
0.000209415
-0.0009183
4.47807e-05
-0.000959799
-0.000142156
-0.000989066
-0.00034895
-0.00100012
-0.00057038
-0.000985603
-0.000797341
-0.000937419
-0.00101521
-0.000848482
-0.00120217
-0.000715841
-0.0013286
-0.000545109
-0.00135937
-0.000354711
-0.00126184
-0.000176402
-0.00102073
-4.79841e-05
-0.000654312
-0.000217667
-1.07286e-05
0.000149223
-3.81067e-05
0.000379489
-7.69948e-05
0.000549325
-0.00012291
0.000668968
-0.000172438
0.000749094
-0.00022326
0.000799281
-0.000274
0.000827131
-0.000324001
0.000837966
-0.000373118
0.000834932
-0.000421536
0.00081933
-0.000469633
0.000791023
-0.000517871
0.000748864
-0.000566712
0.000691068
-0.000616536
0.000615535
-0.000667545
0.000520115
-0.000719647
0.000402826
-0.000772279
0.000262048
-0.000824214
9.6715e-05
-0.000873039
-9.33311e-05
-0.000915038
-0.000306952
-0.000944527
-0.000540891
-0.000953644
-0.000788224
-0.000932542
-0.00103631
-0.000870658
-0.00126405
-0.000759805
-0.00143945
-0.000599613
-0.00151956
-0.000404503
-0.00145695
-0.000208221
-0.00121701
-5.86281e-05
-0.000803904
-0.000276295
-1.04635e-05
0.000159686
-3.71452e-05
0.00040617
-7.43577e-05
0.000586538
-0.000117123
0.000711733
-0.000161774
0.000793745
-0.000205956
0.000843463
-0.000248397
0.000869571
-0.00028863
0.000878199
-0.000326754
0.000873057
-0.00036324
0.000855816
-0.000398798
0.00082658
-0.000434278
0.000784344
-0.000470598
0.000727388
-0.000508671
0.000653608
-0.000549325
0.00056077
-0.000593197
0.000446697
-0.000640564
0.000309415
-0.000691118
0.000147269
-0.000743532
-4.09166e-05
-0.000795122
-0.000255362
-0.000841072
-0.000494941
-0.000873856
-0.000755439
-0.000882817
-0.00102735
-0.000854649
-0.00129222
-0.00077586
-0.00151824
-0.000638508
-0.00165691
-0.000449668
-0.00164579
-0.000241367
-0.00142531
-7.08193e-05
-0.000974452
-0.000347115
-1.07487e-05
0.000170435
-3.76904e-05
0.000433112
-7.39056e-05
0.000622753
-0.000113563
0.00075139
-0.000152675
0.000832857
-0.00018893
0.000879719
-0.000221297
0.000901939
-0.000249637
0.000906538
-0.000274395
0.000897816
-0.000296406
0.000877827
-0.000316755
0.000846929
-0.000336697
0.000804287
-0.000357601
0.000748292
-0.000380887
0.000676894
-0.000407967
0.00058785
-0.000440152
0.000478882
-0.000478509
0.000347772
-0.000523659
0.000192419
-0.000575409
1.08337e-05
-0.000632334
-0.000198437
-0.000690995
-0.00043628
-0.000745055
-0.000701379
-0.000784248
-0.000988154
-0.000793862
-0.00128261
-0.000755927
-0.00155618
-0.000654227
-0.00175861
-0.000485282
-0.00181474
-0.000274248
-0.00163634
-8.46592e-05
-0.00116404
-0.000431774
-1.20848e-05
0.00018252
-4.10378e-05
0.000462065
-7.75684e-05
0.000659284
-0.000114506
0.000788328
-0.000147524
0.000865875
-0.000174551
0.000906745
-0.000195031
0.000922419
-0.000209355
0.000920862
-0.000218472
0.000906932
-0.00022367
0.000883024
-0.000226458
0.000849718
-0.000228507
0.000806335
-0.000231606
0.000751391
-0.000237629
0.000682918
-0.00024849
0.000598711
-0.00026607
0.000496461
-0.000292113
0.000373815
-0.000328055
0.000228361
-0.000374815
5.75936e-05
-0.000432221
-0.000141031
-0.000498562
-0.000369938
-0.000569391
-0.000630551
-0.000636088
-0.000921457
-0.000684293
-0.0012344
-0.00069332
-0.00154715
-0.000639236
-0.0018127
-0.000505642
-0.00194833
-0.000304767
-0.00183722
-0.000100376
-0.00136843
-0.00053215
-1.52929e-05
0.000197813
-4.90994e-05
0.000495872
-8.79424e-05
0.000698127
-0.000122746
0.000823131
-0.000148995
0.000892125
-0.000165237
0.000922987
-0.000171773
0.000928955
-0.000169808
0.000918897
-0.000160984
0.000898107
-0.000147149
0.000869189
-0.000130276
0.000832845
-0.000112434
0.000788493
-9.57949e-05
0.000734752
-8.25973e-05
0.00066972
-7.51477e-05
0.000591261
-7.57671e-05
0.000497081
-8.67224e-05
0.00038477
-0.000110123
0.000251762
-0.000147757
9.52278e-05
-0.000200766
-8.80221e-05
-0.000269146
-0.000301558
-0.000350824
-0.000548873
-0.000439863
-0.000832418
-0.000524165
-0.0011501
-0.000582849
-0.00148847
-0.000586266
-0.00180928
-0.000504291
-0.00203031
-0.000330159
-0.00201135
-0.000118402
-0.00158019
-0.000650553
-2.17721e-05
0.000219585
-6.47045e-05
0.000538804
-0.000108378
0.0007418
-0.000141367
0.000856121
-0.000159507
0.000910264
-0.000162658
0.000926138
-0.000152532
0.000918829
-0.000131521
0.000897886
-0.000102164
0.00086875
-6.69654e-05
0.000833991
-2.83786e-05
0.000794258
1.11634e-05
0.000748951
4.92255e-05
0.00069669
8.32774e-05
0.000635668
0.000110749
0.00056379
0.00012902
0.00047881
0.000135452
0.000378338
0.000127436
0.000259777
0.000102473
0.000120191
5.83137e-05
-4.38631e-05
-6.66114e-06
-0.000236583
-9.26912e-05
-0.000462843
-0.000197394
-0.000727715
-0.000312572
-0.00103492
-0.000420046
-0.00138099
-0.0004879
-0.00174143
-0.000473595
-0.00204461
-0.000346483
-0.00213846
-0.000139286
-0.00178739
-0.000789838
-3.39551e-05
0.00025354
-9.19233e-05
0.000596772
-0.000142706
0.000792582
-0.000172785
0.0008862
-0.000179671
0.000917151
-0.000165707
0.000912174
-0.00013478
0.000887902
-9.08846e-05
0.000853991
-3.76495e-05
0.000815515
2.172e-05
0.000774621
8.43414e-05
0.000731636
0.000147512
0.000685781
0.00020859
0.000635612
0.000264942
0.000579317
0.000313867
0.000514864
0.000352589
0.000440088
0.000378242
0.000352685
0.00038787
0.000250149
0.000378427
0.000129634
0.00034676
-1.21954e-05
0.000289936
-0.000179759
0.000205285
-0.000378193
9.1833e-05
-0.000614263
-4.72547e-05
-0.000895833
-0.000199513
-0.00122873
-0.000335297
-0.00160564
-0.00040356
-0.00197635
-0.000347383
-0.00219464
-0.000163084
-0.00197169
-0.000952922
-5.60303e-05
0.00030957
-0.000136008
0.00067675
-0.000193611
0.000850185
-0.000215633
0.000908222
-0.000204059
0.000905576
-0.000165505
0.00087362
-0.000106962
0.000829359
-3.44089e-05
0.000781438
4.73608e-05
0.000733745
0.000134521
0.000687462
0.000223894
0.000642263
0.000312685
0.00059699
0.000398264
0.000550033
0.000478036
0.000499545
0.000549339
0.000443561
0.000609392
0.000380036
0.000655238
0.000306839
0.000683706
0.00022168
0.000691352
0.000121988
0.000674283
4.87285e-06
0.000628554
-0.00013403
0.000549615
-0.000299253
0.000433287
-0.000497935
0.000277479
-0.000740025
8.71846e-05
-0.00103844
-0.000115719
-0.00140274
-0.000279395
-0.00181267
-0.000321427
-0.00215261
-0.000187549
-0.00210556
-0.00114047
-9.46867e-05
0.000404257
-0.000201257
0.00078332
-0.000256558
0.000905487
-0.000255743
0.000907407
-0.000210419
0.000860252
-0.000133802
0.000797004
-3.67886e-05
0.000732345
7.26608e-05
0.000671989
0.000188874
0.000617532
0.000307788
0.000568547
0.000426327
0.000523724
0.000541947
0.00048137
0.00065233
0.000439649
0.000755183
0.000396693
0.000848099
0.000350644
0.000928475
0.00029966
0.00099343
0.000241884
0.00103973
0.000175378
0.00106367
9.8052e-05
0.00106087
7.67134e-06
0.00102666
-9.98221e-05
0.000955133
-0.000227724
0.000839668
-0.000382469
0.0006736
-0.000573957
0.000453449
-0.000818288
0.000189075
-0.00113837
-7.58054e-05
-0.00154779
-0.000247058
-0.00198135
-0.000204939
-0.00214768
-0.00134541
-0.000158037
0.000562294
-0.00027969
0.000904973
-0.000299922
0.000925718
-0.000242074
0.000849559
-0.000134853
0.000753031
4.32194e-07
0.000661719
0.000149856
0.000582921
0.000304656
0.000517189
0.000459596
0.000462592
0.000611456
0.000416688
0.000758093
0.000377086
0.000897855
0.000341608
0.00102921
0.000308292
0.00115054
0.000275365
0.00125998
0.000241208
0.00135533
0.000204306
0.00143401
0.000163204
0.00149295
0.000116433
0.00152857
6.24353e-05
0.00153568
5.66772e-07
0.00151017
-7.43163e-05
0.00144479
-0.000162341
0.00133157
-0.00026925
0.00116064
-0.000403029
0.00092114
-0.000578787
0.000607509
-0.000824735
0.000241801
-0.00118209
-8.31295e-05
-0.00165642
-0.000195764
-0.00203505
-0.00154117
-0.000242977
0.000805271
-0.000302555
0.000964551
-0.000205571
0.000828734
-3.00545e-05
0.000674043
0.000175609
0.000547367
0.000388003
0.000449325
0.000595841
0.000375084
0.000794074
0.000318955
0.000980801
0.000275865
0.00115557
0.000241915
0.00131844
0.000214219
0.00146946
0.000190593
0.00160842
0.000169327
0.00173475
0.000149036
0.0018474
0.000128559
0.00194482
0.000106885
0.00202492
8.31016e-05
0.00208501
5.63448e-05
0.00212164
2.58042e-05
0.00213152
-9.31071e-06
0.00210817
-5.0965e-05
0.00204583
-0.000100001
0.00193599
-0.000159414
0.00176729
-0.000234328
0.00152392
-0.000335417
0.00118573
-0.000486545
0.000742111
-0.000738466
0.00025067
-0.00116498
-8.2533e-05
-0.00170184
-0.00162371
-0.000192719
0.00099799
2.16305e-05
0.000750202
0.000376628
0.000473737
0.000716415
0.000334255
0.00101947
0.000244312
0.0012858
0.000182991
0.00151921
0.000141679
0.00172453
0.000113629
0.00190645
9.39525e-05
0.00206881
7.95573e-05
0.00221452
6.85096e-05
0.00234557
5.95346e-05
0.00246316
5.17434e-05
0.00256771
4.44867e-05
0.002659
3.72682e-05
0.00273619
2.96902e-05
0.00279787
2.14219e-05
0.00284201
1.22056e-05
0.00286582
1.99266e-06
0.00286711
-1.05942e-05
0.00284048
-2.43381e-05
0.00278121
-4.0729e-05
0.00268223
-6.04404e-05
0.00253321
-8.53007e-05
0.00231737
-0.000119582
0.00200551
-0.000174688
0.00155081
-0.000283766
0.000926615
-0.000540783
0.000263445
-0.00103867
-0.00136026
0.00099799
0.00174819
0.00222193
0.00255618
0.0028005
0.00298349
0.00312517
0.00323879
0.00333275
0.0034123
0.00348081
0.00354035
0.00359209
0.00363658
0.00367385
0.00370354
0.00372496
0.00373716
0.00373916
0.00372856
0.00370422
0.0036635
0.00360306
0.00351775
0.00339817
0.00322349
0.00293972
0.00239894
0.00136026
)
;

boundaryField
{
    movingWall
    {
        type            calculated;
        value           uniform 0;
    }
    fixedWalls
    {
        type            calculated;
        value           uniform 0;
    }
    frontAndBack
    {
        type            empty;
        value           nonuniform 0();
    }
}


// ************************************************************************* //
