/*--------------------------------*- C++ -*----------------------------------*\
  =========                 |
  \\      /  F ield         | OpenFOAM: The Open Source CFD Toolbox
   \\    /   O peration     | Website:  https://openfoam.org
    \\  /    A nd           | Version:  7
     \\/     M anipulation  |
\*---------------------------------------------------------------------------*/
FoamFile
{
    version     2.0;
    format      ascii;
    class       volVectorField;
    location    "5";
    object      U;
}
// * * * * * * * * * * * * * * * * * * * * * * * * * * * * * * * * * * * * * //

dimensions      [0 1 -1 0 0 0 0];

internalField   nonuniform List<vector> 
900
(
(0.000133395 -0.00013256 0)
(0.000213156 -4.13973e-05 0)
(-0.000115634 0.000105941 0)
(-0.000842321 0.000233789 0)
(-0.00187663 0.000324244 0)
(-0.00312809 0.000380687 0)
(-0.00451368 0.000411566 0)
(-0.00596561 0.000424101 0)
(-0.00742872 0.000422542 0)
(-0.00885424 0.000408304 0)
(-0.0101943 0.000380702 0)
(-0.0113982 0.000337867 0)
(-0.0124114 0.000277707 0)
(-0.0131766 0.000198852 0)
(-0.0136374 0.000101527 0)
(-0.013744 -1.17611e-05 0)
(-0.01346 -0.000136127 0)
(-0.0127703 -0.000263414 0)
(-0.0116873 -0.000383285 0)
(-0.0102563 -0.000484032 0)
(-0.00855595 -0.000553977 0)
(-0.0066958 -0.000583233 0)
(-0.00480791 -0.000565408 0)
(-0.00303507 -0.000498858 0)
(-0.00151381 -0.000387236 0)
(-0.000351094 -0.000241436 0)
(0.000360665 -8.58407e-05 0)
(0.000600404 7.10936e-05 0)
(0.000454071 0.00017603 0)
(0.00014937 0.000148057 0)
(4.79234e-05 -0.000218889 0)
(-0.00033914 0.000337748 0)
(-0.00166064 0.00106995 0)
(-0.0038156 0.00171584 0)
(-0.00664855 0.00220336 0)
(-0.00998068 0.00253039 0)
(-0.0136328 0.00271867 0)
(-0.0174431 0.0027915 0)
(-0.0212676 0.00276448 0)
(-0.0249721 0.0026437 0)
(-0.0284247 0.00242765 0)
(-0.0314904 0.00211082 0)
(-0.0340307 0.001688 0)
(-0.0359071 0.00115867 0)
(-0.0369904 0.000530893 0)
(-0.0371731 -0.000175767 0)
(-0.036383 -0.000928342 0)
(-0.0345991 -0.00168101 0)
(-0.0318648 -0.00237781 0)
(-0.0282957 -0.00295763 0)
(-0.02408 -0.00336132 0)
(-0.0194711 -0.00354014 0)
(-0.0147697 -0.00346407 0)
(-0.0102971 -0.00312849 0)
(-0.00636066 -0.00255819 0)
(-0.00321521 -0.0018114 0)
(-0.00103585 -0.000987837 0)
(0.000130219 -0.000192299 0)
(0.000416446 0.000383237 0)
(0.000184171 0.000451973 0)
(-0.000110911 0.000112768 0)
(-0.00114989 0.00167593 0)
(-0.00363443 0.00345801 0)
(-0.00725623 0.00502016 0)
(-0.0117843 0.00622385 0)
(-0.0169845 0.00705027 0)
(-0.0226149 0.00753007 0)
(-0.0284484 0.00770332 0)
(-0.0342746 0.00759909 0)
(-0.0398923 0.00722967 0)
(-0.0451023 0.00659337 0)
(-0.0497029 0.00568195 0)
(-0.0534908 0.00449016 0)
(-0.0562679 0.00302558 0)
(-0.0578536 0.00131727 0)
(-0.0581011 -0.000577832 0)
(-0.0569166 -0.00257159 0)
(-0.054278 -0.00454725 0)
(-0.0502517 -0.00636568 0)
(-0.0450017 -0.00787757 0)
(-0.0387907 -0.00894015 0)
(-0.03197 -0.00943671 0)
(-0.0249563 -0.0092962 0)
(-0.0181963 -0.0085097 0)
(-0.0121222 -0.00714121 0)
(-0.00710043 -0.00533288 0)
(-0.00338316 -0.00330648 0)
(-0.00105652 -0.00135293 0)
(-1.6202e-06 0.000142549 0)
(0.00011809 0.000648587 0)
(-0.000273954 0.000914267 0)
(-0.0019961 0.00401517 0)
(-0.00569004 0.00718126 0)
(-0.0107859 0.00989365 0)
(-0.0169499 0.0119777 0)
(-0.0238939 0.0134096 0)
(-0.0313268 0.0142323 0)
(-0.0389736 0.0145017 0)
(-0.0465759 0.0142589 0)
(-0.0538832 0.013521 0)
(-0.0606452 0.0122858 0)
(-0.0666089 0.0105434 0)
(-0.0715209 0.00829193 0)
(-0.0751361 0.00555303 0)
(-0.0772324 0.00238607 0)
(-0.07763 -0.00110215 0)
(-0.0762122 -0.00475376 0)
(-0.0729478 -0.00836231 0)
(-0.0679103 -0.011685 0)
(-0.0612892 -0.0144628 0)
(-0.0533937 -0.0164476 0)
(-0.0446432 -0.0174352 0)
(-0.0355428 -0.0172987 0)
(-0.0266435 -0.0160178 0)
(-0.0184894 -0.0136987 0)
(-0.0115561 -0.0105822 0)
(-0.00618829 -0.00704131 0)
(-0.00253816 -0.00356917 0)
(-0.000541463 -0.000773563 0)
(3.22952e-05 0.000579458 0)
(-0.00042318 0.00216592 0)
(-0.00280756 0.00735316 0)
(-0.00769446 0.0122269 0)
(-0.0142338 0.0162821 0)
(-0.0219749 0.0193593 0)
(-0.0305719 0.0214561 0)
(-0.0396897 0.0226386 0)
(-0.0490166 0.0229822 0)
(-0.0582603 0.0225389 0)
(-0.0671352 0.0213293 0)
(-0.0753542 0.0193491 0)
(-0.0826256 0.0165866 0)
(-0.0886562 0.0130442 0)
(-0.0931609 0.00876055 0)
(-0.0958787 0.00382957 0)
(-0.0965934 -0.00158602 0)
(-0.0951559 -0.00725004 0)
(-0.0915094 -0.0128553 0)
(-0.0857125 -0.0180414 0)
(-0.0779557 -0.0224216 0)
(-0.0685695 -0.0256221 0)
(-0.0580201 -0.0273288 0)
(-0.0468874 -0.0273377 0)
(-0.0358234 -0.0256005 0)
(-0.0254925 -0.0222576 0)
(-0.0164992 -0.017652 0)
(-0.00930938 -0.0123228 0)
(-0.00417371 -0.00697962 0)
(-0.00111637 -0.0024688 0)
(-4.89561e-05 0.000210097 0)
(-0.000556973 0.00384009 0)
(-0.00356311 0.0116546 0)
(-0.00958995 0.0185626 0)
(-0.017513 0.0241476 0)
(-0.0267618 0.0283178 0)
(-0.0369314 0.0311248 0)
(-0.0476466 0.0326754 0)
(-0.0585671 0.0330713 0)
(-0.0693774 0.0323778 0)
(-0.0797691 0.0306171 0)
(-0.0894301 0.0277808 0)
(-0.0980401 0.0238529 0)
(-0.105273 0.0188378 0)
(-0.110808 0.0127892 0)
(-0.114342 0.00583444 0)
(-0.115614 -0.00180777 0)
(-0.114427 -0.00982054 0)
(-0.110676 -0.01779 0)
(-0.10438 -0.0252268 0)
(-0.0957007 -0.0315988 0)
(-0.084965 -0.0363813 0)
(-0.0726665 -0.0391197 0)
(-0.0594515 -0.0395004 0)
(-0.0460792 -0.0374175 0)
(-0.0333562 -0.0330257 0)
(-0.0220501 -0.0267648 0)
(-0.0127897 -0.0193504 0)
(-0.0059642 -0.0117298 0)
(-0.00171737 -0.0050145 0)
(-0.000122127 -0.000458841 0)
(-0.000677238 0.0059028 0)
(-0.00425715 0.0168598 0)
(-0.011349 0.0261202 0)
(-0.0205734 0.0334181 0)
(-0.0312457 0.0387779 0)
(-0.0429046 0.0423396 0)
(-0.0551396 0.0442711 0)
(-0.0675891 0.044711 0)
(-0.0799239 0.0437407 0)
(-0.0918233 0.041384 0)
(-0.10296 0.0376249 0)
(-0.112995 0.0324381 0)
(-0.121575 0.0258242 0)
(-0.128343 0.0178449 0)
(-0.13295 0.00865334 0)
(-0.13508 -0.00148236 0)
(-0.13447 -0.0121672 0)
(-0.130943 -0.0228818 0)
(-0.124446 -0.0329994 0)
(-0.115083 -0.041824 0)
(-0.103144 -0.04865 0)
(-0.0891281 -0.0528418 0)
(-0.0737369 -0.0539284 0)
(-0.0578444 -0.0517004 0)
(-0.0424265 -0.0462909 0)
(-0.0284592 -0.0382202 0)
(-0.0167888 -0.0283881 0)
(-0.00799439 -0.0180101 0)
(-0.00237683 -0.00850681 0)
(-0.000193347 -0.0014388 0)
(-0.000785116 0.00831918 0)
(-0.00488573 0.0228969 0)
(-0.0129517 0.0348117 0)
(-0.0233751 0.0440002 0)
(-0.0353682 0.0506481 0)
(-0.04842 0.0550164 0)
(-0.0620908 0.0573557 0)
(-0.0760055 0.0578531 0)
(-0.0898298 0.0566115 0)
(-0.10324 0.0536553 0)
(-0.115905 0.0489573 0)
(-0.127472 0.0424758 0)
(-0.137568 0.0341977 0)
(-0.145802 0.0241809 0)
(-0.151777 0.012591 0)
(-0.155109 -0.000268337 0)
(-0.155452 -0.0139343 0)
(-0.152533 -0.0277889 0)
(-0.146198 -0.0410642 0)
(-0.136453 -0.052883 0)
(-0.123517 -0.0623252 0)
(-0.107859 -0.0685237 0)
(-0.0902156 -0.0707867 0)
(-0.0715754 -0.0687337 0)
(-0.0531091 -0.0624182 0)
(-0.0360518 -0.0524081 0)
(-0.0215355 -0.0397909 0)
(-0.0103971 -0.0260889 0)
(-0.00314835 -0.0130978 0)
(-0.000272734 -0.00276695 0)
(-0.000880085 0.0110525 0)
(-0.0054415 0.0296838 0)
(-0.0143746 0.0445318 0)
(-0.0258737 0.0557816 0)
(-0.0390624 0.0638191 0)
(-0.0533885 0.0690568 0)
(-0.0683904 0.071849 0)
(-0.0836873 0.072444 0)
(-0.0989482 0.0709716 0)
(-0.113856 0.0674573 0)
(-0.128083 0.0618577 0)
(-0.141275 0.0541063 0)
(-0.153045 0.0441639 0)
(-0.162972 0.0320683 0)
(-0.17061 0.017979 0)
(-0.1755 0.00221517 0)
(-0.177205 -0.0147154 0)
(-0.175334 -0.0321057 0)
(-0.169598 -0.0490508 0)
(-0.15987 -0.0644804 0)
(-0.146249 -0.077227 0)
(-0.129129 -0.0861346 0)
(-0.109244 -0.0902112 0)
(-0.087677 -0.0888123 0)
(-0.0658078 -0.0818244 0)
(-0.0451806 -0.0698035 0)
(-0.0272934 -0.054014 0)
(-0.013331 -0.0363306 0)
(-0.00409606 -0.0190127 0)
(-0.000371813 -0.00451293 0)
(-0.00096023 0.0140615 0)
(-0.00591314 0.0371253 0)
(-0.0155882 0.0551563 0)
(-0.028016 0.0686266 0)
(-0.0422477 0.078156 0)
(-0.0576984 0.0843356 0)
(-0.0738928 0.087643 0)
(-0.0904512 0.0884008 0)
(-0.107054 0.0867717 0)
(-0.123399 0.0827834 0)
(-0.139172 0.0763717 0)
(-0.154026 0.0674361 0)
(-0.167571 0.0558972 0)
(-0.179364 0.0417536 0)
(-0.188917 0.0251355 0)
(-0.1957 0.00635133 0)
(-0.199175 -0.0140736 0)
(-0.198823 -0.0353656 0)
(-0.194197 -0.056497 0)
(-0.184996 -0.0762033 0)
(-0.17115 -0.0930435 0)
(-0.152915 -0.105515 0)
(-0.130961 -0.112236 0)
(-0.106417 -0.112176 0)
(-0.0808605 -0.104929 0)
(-0.0561823 -0.090939 0)
(-0.0343351 -0.0716071 0)
(-0.0169675 -0.0492022 0)
(-0.00529011 -0.0265587 0)
(-0.000502879 -0.00678249 0)
(-0.00102279 0.0172975 0)
(-0.00628675 0.0451104 0)
(-0.0165585 0.0665386 0)
(-0.0297422 0.082372 0)
(-0.044832 0.0934913 0)
(-0.0612194 0.10069 0)
(-0.0784215 0.104586 0)
(-0.0960658 0.10559 0)
(-0.11385 0.103905 0)
(-0.131496 0.0995615 0)
(-0.148713 0.0924728 0)
(-0.165173 0.0824951 0)
(-0.180493 0.0694945 0)
(-0.194224 0.0534109 0)
(-0.205848 0.0343194 0)
(-0.214779 0.0124871 0)
(-0.220385 -0.011574 0)
(-0.222017 -0.0370604 0)
(-0.219059 -0.0628499 0)
(-0.211007 -0.0874988 0)
(-0.197567 -0.109283 0)
(-0.178784 -0.12631 0)
(-0.155172 -0.136708 0)
(-0.127826 -0.138923 0)
(-0.0984626 -0.132084 0)
(-0.0693295 -0.116357 0)
(-0.0429175 -0.0931917 0)
(-0.0214817 -0.0652699 0)
(-0.00680501 -0.0361293 0)
(-0.000679234 -0.0097198 0)
(-0.00106479 0.020704 0)
(-0.00654818 0.053511 0)
(-0.0172518 0.0785087 0)
(-0.0309919 0.0968244 0)
(-0.0467211 0.10962 0)
(-0.0638135 0.117909 0)
(-0.0817832 0.122469 0)
(-0.100269 0.123809 0)
(-0.118992 0.122181 0)
(-0.137703 0.117624 0)
(-0.156144 0.110026 0)
(-0.174019 0.0991932 0)
(-0.190969 0.0849268 0)
(-0.206558 0.0670895 0)
(-0.220259 0.0456764 0)
(-0.231454 0.0208819 0)
(-0.239441 -0.00683437 0)
(-0.243459 -0.0366824 0)
(-0.242728 -0.0674909 0)
(-0.236525 -0.0976753 0)
(-0.224289 -0.125248 0)
(-0.205775 -0.147901 0)
(-0.181229 -0.163198 0)
(-0.15158 -0.168907 0)
(-0.118575 -0.163467 0)
(-0.0847698 -0.146532 0)
(-0.0532519 -0.119417 0)
(-0.0270428 -0.0851832 0)
(-0.00871894 -0.0482034 0)
(-0.000915801 -0.0135097 0)
(-0.00108381 0.0242169 0)
(-0.00668629 0.062184 0)
(-0.0176411 0.0908744 0)
(-0.0317151 0.111761 0)
(-0.0478321 0.126297 0)
(-0.0653524 0.135732 0)
(-0.0837895 0.141017 0)
(-0.102795 0.142773 0)
(-0.122116 0.14131 0)
(-0.141538 0.136683 0)
(-0.160846 0.128755 0)
(-0.179786 0.117284 0)
(-0.198042 0.101995 0)
(-0.215214 0.0826621 0)
(-0.230797 0.0591793 0)
(-0.244175 0.0316388 0)
(-0.254617 0.000408143 0)
(-0.261284 -0.033788 0)
(-0.263266 -0.0697891 0)
(-0.259627 -0.105935 0)
(-0.249517 -0.14003 0)
(-0.232329 -0.169374 0)
(-0.207919 -0.190922 0)
(-0.176882 -0.201618 0)
(-0.140814 -0.198962 0)
(-0.102449 -0.181761 0)
(-0.0654626 -0.150888 0)
(-0.0338 -0.109643 0)
(-0.0111125 -0.0633394 0)
(-0.00122985 -0.0183797 0)
(-0.00107875 0.0277673 0)
(-0.00669668 0.0709757 0)
(-0.0177146 0.103427 0)
(-0.0318847 0.126932 0)
(-0.0481111 0.143239 0)
(-0.0657407 0.153844 0)
(-0.0842858 0.159884 0)
(-0.103411 0.162105 0)
(-0.12289 0.16089 0)
(-0.142547 0.156315 0)
(-0.162214 0.148228 0)
(-0.181697 0.136339 0)
(-0.200738 0.1203 0)
(-0.218999 0.0997856 0)
(-0.236034 0.0745788 0)
(-0.251272 0.0446459 0)
(-0.264005 0.0102253 0)
(-0.273374 -0.0280772 0)
(-0.278389 -0.0691817 0)
(-0.277947 -0.111447 0)
(-0.270917 -0.152565 0)
(-0.256289 -0.189524 0)
(-0.233417 -0.218687 0)
(-0.20237 -0.236082 0)
(-0.164345 -0.238011 0)
(-0.122015 -0.222017 0)
(-0.0795308 -0.188057 0)
(-0.0418618 -0.139347 0)
(-0.014066 -0.0821601 0)
(-0.00164172 -0.0246017 0)
(-0.00105077 0.0312859 0)
(-0.00658594 0.079732 0)
(-0.0174852 0.115953 0)
(-0.0315119 0.142073 0)
(-0.0475537 0.160133 0)
(-0.0649416 0.171883 0)
(-0.0831839 0.178657 0)
(-0.101957 0.181343 0)
(-0.12106 0.180407 0)
(-0.140359 0.175962 0)
(-0.159743 0.167852 0)
(-0.179081 0.155747 0)
(-0.198197 0.13923 0)
(-0.216839 0.117885 0)
(-0.234656 0.091376 0)
(-0.251171 0.0595334 0)
(-0.265756 0.0224387 0)
(-0.277602 -0.0194704 0)
(-0.285716 -0.0652717 0)
(-0.288908 -0.113453 0)
(-0.285812 -0.16173 0)
(-0.275024 -0.206921 0)
(-0.255326 -0.244908 0)
(-0.22608 -0.270796 0)
(-0.187791 -0.279484 0)
(-0.142722 -0.266785 0)
(-0.0952219 -0.231077 0)
(-0.0512639 -0.174903 0)
(-0.0176536 -0.105326 0)
(-0.00217536 -0.0324921 0)
(-0.00100417 0.0347103 0)
(-0.00637639 0.0883128 0)
(-0.0170008 0.128248 0)
(-0.0306618 0.156918 0)
(-0.0462264 0.17665 0)
(-0.0630035 0.18945 0)
(-0.0804949 0.196867 0)
(-0.0983867 0.199946 0)
(-0.116506 0.199252 0)
(-0.134763 0.194949 0)
(-0.153106 0.186893 0)
(-0.171482 0.174729 0)
(-0.189809 0.157985 0)
(-0.207945 0.136166 0)
(-0.225665 0.108828 0)
(-0.242632 0.0756632 0)
(-0.258356 0.0365883 0)
(-0.272148 -0.00816324 0)
(-0.28311 -0.0579297 0)
(-0.29006 -0.111406 0)
(-0.291498 -0.166498 0)
(-0.285695 -0.220065 0)
(-0.270858 -0.267712 0)
(-0.245523 -0.303751 0)
(-0.209217 -0.321595 0)
(-0.163352 -0.314893 0)
(-0.112008 -0.279627 0)
(-0.0619292 -0.216714 0)
(-0.0219354 -0.13349 0)
(-0.00285894 -0.0424086 0)
(-0.000947527 0.0379953 0)
(-0.00611131 0.0966116 0)
(-0.0163561 0.140141 0)
(-0.0294707 0.171222 0)
(-0.0442871 0.192458 0)
(-0.0600848 0.206128 0)
(-0.0763576 0.214009 0)
(-0.0928046 0.217319 0)
(-0.109284 0.216744 0)
(-0.125755 0.212516 0)
(-0.142233 0.204517 0)
(-0.15875 0.192389 0)
(-0.175329 0.175625 0)
(-0.191958 0.153669 0)
(-0.20856 0.125987 0)
(-0.224966 0.092149 0)
(-0.240879 0.0519042 0)
(-0.255825 0.00526376 0)
(-0.269054 -0.0473955 0)
(-0.279488 -0.105103 0)
(-0.285659 -0.166123 0)
(-0.285642 -0.227593 0)
(-0.277163 -0.28514 0)
(-0.25791 -0.332569 0)
(-0.22622 -0.361923 0)
(-0.182194 -0.364404 0)
(-0.129001 -0.332717 0)
(-0.0736211 -0.264816 0)
(-0.0269481 -0.167232 0)
(-0.0037259 -0.0547442 0)
(-0.000895252 0.041125 0)
(-0.00586178 0.104581 0)
(-0.0157055 0.151521 0)
(-0.0281631 0.184781 0)
(-0.0420044 0.20725 0)
(-0.0564726 0.221499 0)
(-0.0710582 0.229559 0)
(-0.0854829 0.232841 0)
(-0.0996472 0.232167 0)
(-0.113569 0.227858 0)
(-0.127339 0.219843 0)
(-0.141083 0.207775 0)
(-0.154939 0.191141 0)
(-0.169031 0.169344 0)
(-0.183448 0.141788 0)
(-0.198212 0.107942 0)
(-0.213242 0.0674028 0)
(-0.2283 0.0199653 0)
(-0.242884 -0.0342725 0)
(-0.256147 -0.0947779 0)
(-0.26677 -0.16031 0)
(-0.272826 -0.228525 0)
(-0.271746 -0.295434 0)
(-0.260493 -0.354769 0)
(-0.236147 -0.397572 0)
(-0.19712 -0.412602 0)
(-0.144923 -0.388536 0)
(-0.0859009 -0.318697 0)
(-0.0326969 -0.206969 0)
(-0.00481786 -0.0699175 0)
(-0.000870336 0.0441312 0)
(-0.0057368 0.112267 0)
(-0.0152805 0.162371 0)
(-0.0270708 0.197462 0)
(-0.0397736 0.220757 0)
(-0.052594 0.235162 0)
(-0.0650355 0.242993 0)
(-0.0768647 0.245882 0)
(-0.0880454 0.244802 0)
(-0.0986718 0.240177 0)
(-0.108921 0.231999 0)
(-0.119024 0.219955 0)
(-0.129235 0.203542 0)
(-0.139821 0.182151 0)
(-0.151036 0.155151 0)
(-0.163093 0.121939 0)
(-0.176135 0.0819923 0)
(-0.190177 0.0349155 0)
(-0.205007 -0.01949 0)
(-0.220087 -0.0811221 0)
(-0.234387 -0.149324 0)
(-0.246179 -0.222478 0)
(-0.25287 -0.29734 0)
(-0.250963 -0.368113 0)
(-0.236416 -0.425468 0)
(-0.205757 -0.456131 0)
(-0.158138 -0.444368 0)
(-0.0980989 -0.377109 0)
(-0.0391553 -0.252845 0)
(-0.00619188 -0.0883664 0)
(-0.000910052 0.0471183 0)
(-0.00590079 0.11985 0)
(-0.0154148 0.172802 0)
(-0.0266556 0.209225 0)
(-0.0381293 0.232764 0)
(-0.0490155 0.246741 0)
(-0.0588669 0.253804 0)
(-0.0675358 0.255828 0)
(-0.0750844 0.253954 0)
(-0.081709 0.248715 0)
(-0.0876919 0.240177 0)
(-0.093373 0.228074 0)
(-0.0991304 0.211929 0)
(-0.105365 0.191144 0)
(-0.112485 0.165074 0)
(-0.120885 0.133077 0)
(-0.130913 0.0945431 0)
(-0.142827 0.0489257 0)
(-0.15671 -0.00423148 0)
(-0.17237 -0.0652296 0)
(-0.189159 -0.134007 0)
(-0.205744 -0.209785 0)
(-0.219804 -0.290363 0)
(-0.227769 -0.370977 0)
(-0.224832 -0.442763 0)
(-0.205728 -0.491288 0)
(-0.166738 -0.496642 0)
(-0.109303 -0.437904 0)
(-0.0462737 -0.304599 0)
(-0.00793592 -0.110549 0)
(-0.00107806 0.0503032 0)
(-0.00660542 0.127702 0)
(-0.0165824 0.183092 0)
(-0.027535 0.220133 0)
(-0.0377486 0.243106 0)
(-0.046421 0.255876 0)
(-0.0532228 0.261488 0)
(-0.0581576 0.262079 0)
(-0.0614379 0.258962 0)
(-0.0633969 0.252777 0)
(-0.0644414 0.243659 0)
(-0.0650294 0.231395 0)
(-0.0656572 0.215543 0)
(-0.0668499 0.195527 0)
(-0.0691503 0.170708 0)
(-0.0731042 0.140426 0)
(-0.0792362 0.104021 0)
(-0.0880132 0.0608352 0)
(-0.09979 0.0102167 0)
(-0.114706 -0.0484596 0)
(-0.132541 -0.115674 0)
(-0.152492 -0.191479 0)
(-0.172789 -0.274883 0)
(-0.19023 -0.362627 0)
(-0.199797 -0.447235 0)
(-0.194848 -0.514408 0)
(-0.168654 -0.541115 0)
(-0.118351 -0.49792 0)
(-0.0539918 -0.361407 0)
(-0.0101961 -0.136971 0)
(-0.00148975 0.0540845 0)
(-0.00824694 0.136462 0)
(-0.0194533 0.193715 0)
(-0.0305046 0.230344 0)
(-0.0394264 0.251631 0)
(-0.0455409 0.262182 0)
(-0.0487557 0.26551 0)
(-0.0493225 0.264025 0)
(-0.0476718 0.259187 0)
(-0.0443149 0.25172 0)
(-0.0398027 0.241817 0)
(-0.034714 0.229303 0)
(-0.0296549 0.21377 0)
(-0.0252553 0.194668 0)
(-0.0221645 0.171374 0)
(-0.021046 0.143229 0)
(-0.0225596 0.109545 0)
(-0.0273379 0.0695997 0)
(-0.0359504 0.0226143 0)
(-0.0488372 -0.0322605 0)
(-0.0661994 -0.0959236 0)
(-0.0878182 -0.169135 0)
(-0.112672 -0.252095 0)
(-0.138347 -0.343326 0)
(-0.160279 -0.437581 0)
(-0.171199 -0.52227 0)
(-0.1617 -0.573154 0)
(-0.123793 -0.552932 0)
(-0.0622227 -0.421685 0)
(-0.0132144 -0.168239 0)
(-0.00236344 0.0591671 0)
(-0.0114644 0.147134 0)
(-0.0249589 0.205342 0)
(-0.0365207 0.240035 0)
(-0.0439643 0.258104 0)
(-0.046959 0.265156 0)
(-0.0458394 0.265231 0)
(-0.0412376 0.260978 0)
(-0.033882 0.253953 0)
(-0.0245026 0.244916 0)
(-0.013808 0.234073 0)
(-0.00249137 0.221266 0)
(0.00874773 0.206105 0)
(0.0192015 0.188063 0)
(0.028149 0.166536 0)
(0.0348473 0.140873 0)
(0.0385439 0.110385 0)
(0.0384875 0.0743224 0)
(0.0339436 0.0318474 0)
(0.0242238 -0.0180149 0)
(0.00876201 -0.0764163 0)
(-0.0127975 -0.144621 0)
(-0.0402671 -0.223794 0)
(-0.0723252 -0.314251 0)
(-0.10553 -0.413546 0)
(-0.132976 -0.512392 0)
(-0.143473 -0.588026 0)
(-0.123731 -0.597647 0)
(-0.0707317 -0.482796 0)
(-0.0173519 -0.205125 0)
(-0.00411874 0.0667924 0)
(-0.0172904 0.161188 0)
(-0.0343155 0.21874 0)
(-0.0465242 0.249204 0)
(-0.0518046 0.26199 0)
(-0.0505927 0.263982 0)
(-0.0439345 0.259738 0)
(-0.0330044 0.252047 0)
(-0.0189098 0.242451 0)
(-0.00262803 0.231656 0)
(0.0149764 0.219821 0)
(0.0331132 0.206762 0)
(0.0510253 0.192084 0)
(0.0679638 0.175272 0)
(0.0831711 0.15574 0)
(0.0958673 0.132853 0)
(0.105248 0.105937 0)
(0.110486 0.0742553 0)
(0.110724 0.0369671 0)
(0.105075 -0.00692474 0)
(0.0926658 -0.0586643 0)
(0.0726644 -0.119767 0)
(0.0444531 -0.192024 0)
(0.00810986 -0.277236 0)
(-0.0345522 -0.375864 0)
(-0.0781057 -0.483226 0)
(-0.111029 -0.581171 0)
(-0.115465 -0.625679 0)
(-0.0787637 -0.540542 0)
(-0.0230138 -0.248492 0)
(-0.007548 0.0791546 0)
(-0.0273278 0.180589 0)
(-0.048807 0.234424 0)
(-0.0607512 0.257203 0)
(-0.0619584 0.262011 0)
(-0.0543529 0.257162 0)
(-0.0400717 0.247561 0)
(-0.0209998 0.235913 0)
(0.00132463 0.223562 0)
(0.0256833 0.211026 0)
(0.0510926 0.198329 0)
(0.0767143 0.185209 0)
(0.101785 0.171236 0)
(0.125566 0.155893 0)
(0.147314 0.138607 0)
(0.166255 0.118774 0)
(0.181576 0.095756 0)
(0.192407 0.0688589 0)
(0.197812 0.0372986 0)
(0.196742 0.000139471 0)
(0.188096 -0.0438116 0)
(0.170656 -0.0960719 0)
(0.143128 -0.158691 0)
(0.104448 -0.234393 0)
(0.0545472 -0.326115 0)
(-0.00365123 -0.434336 0)
(-0.0602644 -0.548524 0)
(-0.094731 -0.629512 0)
(-0.0841895 -0.588369 0)
(-0.0302703 -0.298951 0)
(-0.01403 0.100071 0)
(-0.0437042 0.207418 0)
(-0.0686259 0.251712 0)
(-0.0765091 0.261741 0)
(-0.0691015 0.255317 0)
(-0.0508896 0.241904 0)
(-0.0254842 0.22626 0)
(0.0044489 0.210581 0)
(0.0370025 0.195733 0)
(0.0708235 0.181867 0)
(0.104924 0.16877 0)
(0.138526 0.156044 0)
(0.170952 0.1432 0)
(0.201554 0.129705 0)
(0.229671 0.11501 0)
(0.254593 0.0985555 0)
(0.275542 0.079764 0)
(0.291656 0.0580246 0)
(0.301959 0.0326616 0)
(0.305285 0.00288274 0)
(0.300385 -0.0323706 0)
(0.28576 -0.0744101 0)
(0.259624 -0.125187 0)
(0.220012 -0.187693 0)
(0.165136 -0.266418 0)
(0.0948436 -0.366508 0)
(0.0151029 -0.487084 0)
(-0.0542763 -0.600648 0)
(-0.0819978 -0.616555 0)
(-0.0378641 -0.356723 0)
(-0.0253885 0.135969 0)
(-0.0675044 0.241631 0)
(-0.0882447 0.26584 0)
(-0.0816161 0.256503 0)
(-0.0563932 0.235875 0)
(-0.0205868 0.213208 0)
(0.020807 0.192011 0)
(0.0647042 0.17332 0)
(0.109229 0.157141 0)
(0.153232 0.143081 0)
(0.195993 0.130608 0)
(0.237002 0.119161 0)
(0.275824 0.108187 0)
(0.31202 0.0971551 0)
(0.345102 0.0855599 0)
(0.374497 0.0729132 0)
(0.399529 0.0587333 0)
(0.419401 0.0425252 0)
(0.433171 0.0237523 0)
(0.439585 0.00178552 0)
(0.437381 -0.024018 0)
(0.424912 -0.0547889 0)
(0.400085 -0.0921218 0)
(0.360373 -0.138659 0)
(0.302699 -0.199165 0)
(0.223943 -0.281713 0)
(0.124759 -0.395136 0)
(0.0184893 -0.53046 0)
(-0.0621119 -0.611654 0)
(-0.041138 -0.420974 0)
(-0.041119 0.1981 0)
(-0.0898992 0.273655 0)
(-0.07983 0.259549 0)
(-0.0370119 0.225691 0)
(0.0196026 0.191871 0)
(0.080408 0.163051 0)
(0.140963 0.139805 0)
(0.199203 0.121344 0)
(0.25428 0.106597 0)
(0.305938 0.0946044 0)
(0.354164 0.0845682 0)
(0.398998 0.0758324 0)
(0.440434 0.0678474 0)
(0.478368 0.0601444 0)
(0.512572 0.0523133 0)
(0.54268 0.0439855 0)
(0.568176 0.0348176 0)
(0.588385 0.0244738 0)
(0.60244 0.0125999 0)
(0.609343 -0.00123237 0)
(0.607818 -0.0173256 0)
(0.59608 -0.0364315 0)
(0.572135 -0.0596146 0)
(0.533279 -0.0887415 0)
(0.475755 -0.127601 0)
(0.394275 -0.184279 0)
(0.283613 -0.273936 0)
(0.144835 -0.410608 0)
(-0.00402227 -0.553836 0)
(-0.0255538 -0.477263 0)
(-0.0339225 0.294185 0)
(-0.0472944 0.273332 0)
(0.0546508 0.200041 0)
(0.157697 0.149733 0)
(0.250087 0.114426 0)
(0.331366 0.0891252 0)
(0.402567 0.0711955 0)
(0.465 0.0584333 0)
(0.520073 0.0491261 0)
(0.569041 0.0421056 0)
(0.612886 0.0365921 0)
(0.652308 0.0320429 0)
(0.687758 0.0280614 0)
(0.719463 0.0243452 0)
(0.747452 0.0206542 0)
(0.771571 0.016789 0)
(0.791496 0.0125773 0)
(0.806743 0.0078656 0)
(0.816615 0.00250727 0)
(0.820402 -0.00358067 0)
(0.817061 -0.0107475 0)
(0.805159 -0.0192101 0)
(0.783025 -0.029413 0)
(0.748298 -0.0422651 0)
(0.697347 -0.0597803 0)
(0.624084 -0.0869988 0)
(0.518302 -0.137392 0)
(0.364915 -0.240453 0)
(0.143946 -0.40703 0)
(0.0587998 -0.458304 0)
(0.303322 0.180979 0)
(0.382826 0.144444 0)
(0.561374 0.0912977 0)
(0.68735 0.0590635 0)
(0.769974 0.0393177 0)
(0.829271 0.0267257 0)
(0.874661 0.0187463 0)
(0.910594 0.0137117 0)
(0.93987 0.010474 0)
(0.964385 0.00831289 0)
(0.985353 0.0067951 0)
(1.00353 0.00565558 0)
(1.01935 0.00472585 0)
(1.03306 0.00389435 0)
(1.04473 0.00308367 0)
(1.05431 0.00223726 0)
(1.06164 0.00131095 0)
(1.0665 0.00027236 0)
(1.06857 -0.000910912 0)
(1.06745 -0.00217235 0)
(1.06257 -0.00369982 0)
(1.05339 -0.00551118 0)
(1.0391 -0.00767373 0)
(1.01848 -0.0103896 0)
(0.989489 -0.0141499 0)
(0.948023 -0.0202887 0)
(0.884322 -0.0326879 0)
(0.776516 -0.0638408 0)
(0.544862 -0.139513 0)
(0.38249 -0.201757 0)
)
;

boundaryField
{
    movingWall
    {
        type            fixedValue;
        value           uniform (1.2 0 0);
    }
    fixedWalls
    {
        type            noSlip;
    }
    frontAndBack
    {
        type            empty;
    }
}


// ************************************************************************* //
