/*--------------------------------*- C++ -*----------------------------------*\
  =========                 |
  \\      /  F ield         | OpenFOAM: The Open Source CFD Toolbox
   \\    /   O peration     | Website:  https://openfoam.org
    \\  /    A nd           | Version:  7
     \\/     M anipulation  |
\*---------------------------------------------------------------------------*/
FoamFile
{
    version     2.0;
    format      ascii;
    class       volScalarField;
    location    "650";
    object      epsilon;
}
// * * * * * * * * * * * * * * * * * * * * * * * * * * * * * * * * * * * * * //

dimensions      [0 2 -3 0 0 0 0];

internalField   nonuniform List<scalar> 
16900
(
1.25351
2.10948
3.14182
4.06852
4.88138
5.583
6.17951
6.6747
7.06737
7.35012
7.51296
7.55533
7.51883
7.80493
34.1669
35.2479
35.2706
39.3929
43.8779
48.6637
53.7466
59.1288
64.8151
70.8114
77.1244
83.76
90.7241
98.0215
105.656
113.63
121.946
130.603
139.601
148.936
158.605
168.602
178.919
189.549
200.479
211.699
223.193
234.946
246.941
259.157
271.573
284.165
296.908
309.775
322.737
335.761
348.815
361.865
374.874
387.806
400.625
413.293
425.776
438.042
450.065
461.827
473.325
484.576
495.635
506.354
516.599
526.359
535.616
544.356
552.562
560.225
567.333
573.881
579.865
585.285
590.144
594.448
598.207
601.432
604.141
606.351
608.085
609.365
610.217
610.669
610.75
610.49
609.919
609.071
607.977
606.67
605.182
603.544
601.788
599.944
598.04
596.106
594.17
592.26
590.401
588.617
586.933
585.371
583.956
582.711
581.658
580.817
580.208
579.855
579.779
579.997
580.525
581.38
582.582
584.133
586.035
588.3
590.902
593.815
597.029
600.455
604.052
607.719
611.201
614.501
617.587
620.426
623.22
630.163
638.724
646.608
653.213
658.213
661.363
662.484
661.458
658.237
652.839
645.346
635.894
624.664
611.868
597.738
582.511
566.425
549.704
532.557
515.174
497.72
480.341
463.157
446.27
429.761
413.693
398.115
383.064
368.563
354.628
341.266
328.478
316.262
304.609
293.509
282.951
272.923
263.415
254.428
245.991
238.095
230.651
223.604
216.917
210.565
204.531
198.798
193.357
188.195
183.305
178.677
174.304
170.179
166.295
162.649
159.234
156.047
153.085
150.346
147.828
145.532
143.456
141.602
139.972
138.568
137.395
136.457
135.762
135.319
135.138
135.226
135.549
135.877
2.33692
2.22144
2.9167
3.70134
4.45731
5.16822
5.84908
6.52906
7.24918
8.06607
9.05952
10.3406
12.0519
14.386
18.332
20.2965
22.2109
24.4806
26.8735
29.3833
32.0203
34.7881
37.6893
40.7259
43.8998
47.2123
50.6645
54.2565
57.9884
61.8594
65.8682
70.013
74.2914
78.7005
83.2365
87.8954
92.6723
97.5618
102.558
107.654
112.843
118.117
123.467
128.885
134.362
139.887
145.45
151.039
156.645
162.254
167.856
173.437
178.986
184.491
189.94
195.321
200.626
205.845
210.972
216.003
220.939
225.784
230.555
235.212
239.693
243.984
248.078
251.968
255.649
259.115
262.363
265.39
268.193
270.773
273.13
275.266
277.184
278.889
280.386
281.682
282.786
283.705
284.449
285.03
285.457
285.743
285.899
285.939
285.874
285.718
285.485
285.185
284.833
284.441
284.021
283.586
283.147
282.717
282.308
281.929
281.593
281.31
281.092
280.948
280.89
280.927
281.071
281.33
281.715
282.235
282.897
283.71
284.68
285.81
287.101
288.553
290.158
291.903
293.774
295.735
297.761
299.795
301.759
303.618
305.308
306.84
308.261
310.056
311.932
313.412
314.296
314.465
313.84
312.368
310.022
306.803
302.734
297.86
292.246
285.971
279.125
271.801
264.096
256.103
247.911
239.603
231.252
222.924
214.673
206.549
198.59
190.828
183.287
175.987
168.941
162.159
155.646
149.404
143.435
137.735
132.302
127.13
122.214
117.549
113.128
108.947
104.999
101.324
97.8866
94.6593
91.6233
88.764
86.0703
83.5329
81.1443
78.8979
76.788
74.8095
72.9579
71.2289
69.6187
68.1241
66.7419
65.4695
64.3046
63.2452
62.2896
61.4364
60.6847
60.0334
59.4819
59.0298
58.6765
58.4218
58.2658
58.2091
58.2543
58.4081
58.6835
59.0422
3.21151
2.64341
3.16277
3.87666
4.631
5.39338
6.17365
7.00128
7.91577
8.9614
10.1794
11.5945
13.2001
14.9729
16.9494
18.7971
20.7078
22.6909
24.7561
26.9177
29.1837
31.5571
34.0393
36.6317
39.3351
42.1504
45.0778
48.1174
51.269
54.5317
57.9044
61.3856
64.9732
68.665
72.4581
76.3492
80.3345
84.4101
88.5712
92.813
97.1301
101.517
105.967
110.473
115.03
119.63
124.265
128.928
133.61
138.304
143.001
147.693
152.37
157.024
161.647
166.23
170.765
175.245
179.664
184.015
188.295
192.5
196.624
200.632
204.505
208.231
211.803
215.217
218.465
221.543
224.447
227.173
229.72
232.086
234.269
236.272
238.095
239.74
241.212
242.514
243.651
244.631
245.46
246.144
246.693
247.115
247.418
247.613
247.709
247.715
247.642
247.5
247.299
247.048
246.757
246.437
246.095
245.743
245.388
245.042
244.711
244.405
244.132
243.901
243.721
243.601
243.548
243.57
243.675
243.872
244.166
244.563
245.07
245.689
246.421
247.266
248.216
249.264
250.396
251.581
252.796
254.006
255.148
256.166
257.041
257.769
258.356
258.872
259.198
259.16
258.65
257.596
255.949
253.681
250.782
247.258
243.134
238.448
233.253
227.61
221.588
215.257
208.689
201.954
195.118
188.239
181.371
174.562
167.85
161.271
154.85
148.609
142.565
136.731
131.114
125.721
120.553
115.611
110.895
106.401
102.125
98.0636
94.2113
90.5629
87.1126
83.8531
80.7942
77.9297
75.2469
72.7333
70.3773
68.1688
66.0989
64.1601
62.3455
60.6492
59.0657
57.5904
56.2189
54.9473
53.7723
52.6907
51.6999
50.7975
49.9814
49.2499
48.6016
48.0353
47.5499
47.1446
46.8185
46.571
46.4011
46.308
46.2906
46.348
46.4801
46.6881
46.9674
47.2607
3.91925
3.06065
3.46901
4.1346
4.88839
5.68784
6.53314
7.44376
8.44596
9.56434
10.8139
12.1937
13.6916
15.2949
16.9969
18.7536
20.5872
22.4953
24.4855
26.5677
28.7483
31.0307
33.4168
35.9082
38.506
41.2111
44.0242
46.9456
49.9755
53.1134
56.3588
59.7108
63.168
66.7287
70.3907
74.1515
78.0082
81.9574
85.9955
90.1182
94.3211
98.5993
102.948
107.361
111.832
116.357
120.927
125.537
130.18
134.847
139.533
144.229
148.926
153.618
158.294
162.948
167.57
172.151
176.684
181.161
185.574
189.914
194.16
198.291
202.295
206.162
209.883
213.452
216.862
220.108
223.183
226.085
228.81
231.354
233.717
235.897
237.895
239.711
241.349
242.811
244.101
245.224
246.186
246.993
247.652
248.171
248.557
248.819
248.965
249.005
248.948
248.803
248.579
248.285
247.931
247.525
247.076
246.592
246.084
245.559
245.025
244.49
243.962
243.45
242.961
242.504
242.086
241.713
241.394
241.138
240.951
240.836
240.803
240.853
240.99
241.213
241.517
241.898
242.342
242.828
243.33
243.814
244.253
244.602
244.837
244.938
244.892
244.677
244.212
243.405
242.183
240.495
238.304
235.588
232.341
228.572
224.301
219.565
214.409
208.887
203.06
196.99
190.739
184.369
177.937
171.494
165.087
158.757
152.538
146.459
140.542
134.805
129.262
123.923
118.795
113.88
109.18
104.695
100.423
96.3603
92.5032
88.8469
85.3863
82.1162
79.0301
76.1262
73.401
70.8468
68.4551
66.217
64.1238
62.1673
60.34
58.6349
57.0458
55.5668
54.193
52.9197
51.7427
50.6585
49.6636
48.7553
47.931
47.1885
46.5261
45.9421
45.4352
45.0043
44.6484
44.3666
44.1579
44.0214
43.9558
43.9596
44.0311
44.1685
44.37
44.6333
44.9444
45.2325
4.51505
3.42924
3.75698
4.38463
5.13193
5.94972
6.82967
7.78149
8.82063
9.9607
11.2084
12.5614
14.0133
15.5585
17.1931
18.9098
20.7117
22.5991
24.5757
26.6474
28.8188
31.0932
33.4732
35.9607
38.5573
41.2645
44.0836
47.0155
50.0611
53.2207
56.4944
59.882
63.383
66.9964
70.7206
74.5541
78.4944
82.539
86.6847
90.928
95.2649
99.6912
104.202
108.792
113.457
118.189
122.985
127.835
132.735
137.678
142.654
147.657
152.679
157.71
162.742
167.765
172.769
177.743
182.679
187.564
192.39
197.132
201.774
206.299
210.695
214.951
219.059
223.009
226.794
230.408
233.843
237.094
240.156
243.026
245.7
248.177
250.454
252.534
254.416
256.102
257.596
258.901
260.023
260.968
261.741
262.349
262.8
263.103
263.264
263.294
263.2
262.993
262.681
262.273
261.778
261.205
260.562
259.858
259.102
258.303
257.468
256.605
255.72
254.824
253.923
253.026
252.14
251.27
250.427
249.618
248.851
248.132
247.466
246.86
246.32
245.844
245.435
245.091
244.796
244.545
244.318
244.092
243.845
243.546
243.168
242.687
242.074
241.288
240.261
238.927
237.228
235.121
232.572
229.56
226.078
222.132
217.74
212.932
207.75
202.243
196.464
190.473
184.327
178.082
171.793
165.507
159.269
153.117
147.082
141.192
135.468
129.926
124.579
119.437
114.504
109.784
105.277
100.983
96.8996
93.0232
89.3496
85.874
82.5914
79.4962
76.5827
73.8459
71.279
68.8747
66.6259
64.5247
62.5637
60.7355
59.0331
57.4501
55.9805
54.6187
53.3598
52.1992
51.133
50.1576
49.2697
48.4667
47.7461
47.1058
46.544
46.0592
45.6501
45.3154
45.054
44.8648
44.7465
44.6976
44.7165
44.8009
44.9484
45.1561
45.421
45.7389
46.0903
46.3954
5.02103
3.7415
4.0024
4.59597
5.33011
6.15068
7.04328
8.01058
9.06118
10.2032
11.441
12.7746
14.2018
15.7209
17.3312
19.032
20.825
22.7118
24.6953
26.7795
28.9683
31.265
33.6726
36.1936
38.8304
41.5854
44.4604
47.4574
50.5779
53.8233
57.1946
60.6925
64.3171
68.0685
71.9459
75.9483
80.0742
84.3214
88.6875
93.1694
97.7634
102.466
107.272
112.176
117.175
122.261
127.429
132.671
137.982
143.354
148.779
154.248
159.753
165.283
170.829
176.379
181.922
187.444
192.935
198.379
203.762
209.052
214.234
219.292
224.215
228.991
233.608
238.058
242.33
246.417
250.309
254.001
257.485
260.757
263.813
266.649
269.262
271.653
273.82
275.765
277.49
278.999
280.295
281.384
282.272
282.966
283.471
283.797
283.952
283.943
283.781
283.474
283.032
282.464
281.778
280.984
280.089
279.104
278.036
276.895
275.689
274.424
273.109
271.75
270.356
268.937
267.499
266.047
264.591
263.14
261.704
260.287
258.893
257.542
256.238
254.98
253.776
252.63
251.537
250.495
249.496
248.526
247.569
246.603
245.604
244.544
243.391
242.099
240.609
238.861
236.804
234.395
231.6
228.394
224.766
220.715
216.255
211.41
206.216
200.718
194.964
189.01
182.91
176.718
170.487
164.263
158.089
152.002
146.034
140.212
134.557
129.085
123.81
118.739
113.879
109.233
104.802
100.585
96.5795
92.7826
89.1901
85.7972
82.5989
79.5895
76.7612
74.1073
71.6211
69.2956
67.1238
65.0984
63.2125
61.4589
59.8311
58.3228
56.9281
55.6417
54.4586
53.3745
52.3852
51.4874
50.6777
49.9536
49.3125
48.7522
48.2711
47.8673
47.5394
47.2859
47.1053
46.9962
46.9568
46.985
47.0783
47.2338
47.4481
47.7173
48.0374
48.4032
48.7924
49.12
5.44933
3.99841
4.19837
4.75829
5.47342
6.28535
7.17557
8.14224
9.1899
10.324
11.5484
12.8648
14.274
15.7767
17.374
19.0676
20.8597
22.7529
24.75
26.8546
29.0706
31.4017
33.8513
36.4228
39.1194
41.9444
44.9007
47.9912
51.2185
54.585
58.0927
61.7434
65.5382
69.4779
73.5629
77.7927
82.1666
86.6831
91.3401
96.1349
101.064
106.124
111.311
116.618
122.042
127.575
133.212
138.946
144.768
150.672
156.647
162.686
168.778
174.911
181.074
187.255
193.439
199.611
205.756
211.86
217.886
223.811
229.62
235.297
240.829
246.201
251.403
256.421
261.245
265.865
270.271
274.455
278.409
282.127
285.602
288.831
291.81
294.537
297.01
299.23
301.198
302.918
304.392
305.625
306.623
307.393
307.94
308.274
308.401
308.331
308.073
307.637
307.031
306.266
305.349
304.291
303.1
301.785
300.355
298.819
297.185
295.461
293.653
291.769
289.816
287.807
285.747
283.642
281.495
279.324
277.141
274.952
272.761
270.586
268.437
266.321
264.251
262.235
260.278
258.387
256.562
254.798
253.089
251.42
249.772
248.121
246.432
244.662
242.755
240.657
238.315
235.683
232.723
229.405
225.707
221.624
217.16
212.333
207.173
201.716
196.01
190.104
184.051
177.903
171.712
165.523
159.38
153.319
147.374
141.572
135.933
130.477
125.217
120.161
115.316
110.687
106.274
102.078
98.0958
94.3253
90.7625
87.4029
84.2419
81.2707
78.4814
75.8674
73.4222
71.1389
69.0104
67.0297
65.19
63.4843
61.9061
60.4493
59.108
57.8769
56.7512
55.7263
54.7983
53.9635
53.2187
52.5611
51.9881
51.4974
51.087
50.7549
50.4993
50.3183
50.21
50.1723
50.2028
50.2987
50.4567
50.6727
50.9424
51.2609
51.6235
52.0249
52.4426
52.7893
5.8086
4.2042
4.34579
4.87107
5.56254
6.35781
7.23557
8.19119
9.22687
10.3467
11.5546
12.8536
14.246
15.7344
17.3214
19.0098
20.8028
22.7037
24.7158
26.8432
29.0901
31.4606
33.9592
36.59
39.3574
42.2656
45.3188
48.521
51.8761
55.3875
59.0585
62.892
66.8902
71.0549
75.3873
79.8879
84.5566
89.3923
94.3936
99.5579
104.882
110.363
115.995
121.773
127.693
133.746
139.926
146.225
152.636
159.148
165.752
172.438
179.194
186.008
192.866
199.752
206.651
213.544
220.414
227.236
233.964
240.582
247.073
253.421
259.61
265.625
271.452
277.078
282.489
287.674
292.622
297.322
301.767
305.948
309.859
313.493
316.847
319.915
322.697
325.192
327.401
329.326
330.971
332.339
333.435
334.266
334.838
335.159
335.237
335.082
334.702
334.107
333.308
332.313
331.132
329.774
328.248
326.562
324.726
322.751
320.645
318.414
316.066
313.603
311.037
308.384
305.647
302.833
299.948
297.005
294.017
290.994
287.945
284.888
281.836
278.803
275.808
272.863
269.985
267.188
264.48
261.87
259.359
256.942
254.608
252.338
250.101
247.857
245.556
243.142
240.562
237.765
234.704
231.34
227.644
223.598
219.199
214.454
209.384
204.021
198.406
192.586
186.609
180.527
174.389
168.243
162.131
156.092
150.16
144.363
138.724
133.263
127.994
122.929
118.073
113.434
109.012
104.809
100.822
97.0511
93.4915
90.1396
86.9894
84.0297
81.2544
78.6573
76.2318
73.9709
71.8677
69.9152
68.1064
66.4345
64.893
63.4757
62.1768
60.9909
59.913
58.9386
58.0636
57.2841
56.5969
55.9988
55.4871
55.0592
54.7126
54.4451
54.2542
54.1377
54.093
54.1173
54.2074
54.3597
54.5698
54.8327
55.1428
55.4944
55.8824
56.3024
56.7336
57.0909
6.1061
4.36434
4.44909
4.93845
5.60273
6.37579
7.23436
8.17205
9.18971
10.2908
11.4794
12.7593
14.1343
15.6081
17.1844
18.8672
20.6606
22.5686
24.5958
26.7465
29.0259
31.439
33.9911
36.6876
39.5341
42.536
45.6988
49.0279
52.5283
56.2051
60.0627
64.1051
68.3359
72.7579
77.3733
82.1832
87.1883
92.3881
97.7812
103.366
109.138
115.095
121.23
127.54
134.016
140.652
147.44
154.37
161.433
168.619
175.916
183.314
190.797
198.353
205.964
213.614
221.283
228.951
236.597
244.167
251.633
258.977
266.18
273.225
280.095
286.773
293.243
299.49
305.498
311.255
316.748
321.967
326.901
331.541
335.881
339.913
343.63
347.029
350.106
352.86
355.293
357.405
359.201
360.682
361.855
362.723
363.295
363.579
363.582
363.314
362.784
362.001
360.977
359.721
358.243
356.552
354.657
352.565
350.285
347.834
345.218
342.443
339.515
336.442
333.232
329.898
326.446
322.884
319.221
315.468
311.638
307.743
303.798
299.82
295.826
291.837
287.874
283.959
280.114
276.362
272.724
269.216
265.852
262.639
259.575
256.65
253.84
251.111
248.416
245.702
242.912
239.989
236.876
233.525
229.894
225.953
221.686
217.089
212.175
206.967
201.5
195.814
189.958
183.979
177.926
171.848
165.788
159.785
153.876
148.09
142.453
136.986
131.705
126.623
121.749
117.089
112.647
108.425
104.423
100.638
97.0698
93.7137
90.558
87.596
84.8221
82.23
79.8132
77.5647
75.4776
73.5448
71.7592
70.114
68.6026
67.2188
65.9565
64.8103
63.7751
62.8461
62.0189
61.2897
60.6548
60.1107
59.6544
59.2827
58.9929
58.7821
58.6474
58.5858
58.594
58.6684
58.8051
58.9993
59.2457
59.5382
59.87
60.2349
60.6273
61.0448
61.4706
61.8261
6.34838
4.48465
4.51412
4.96654
5.60106
6.34816
7.18305
8.09824
9.09376
10.1728
11.3396
12.5988
13.9551
15.4133
16.978
18.6545
20.4476
22.3627
24.405
26.5803
28.8944
31.3537
33.9647
36.7341
39.6688
42.7757
46.0619
49.5342
53.1991
57.063
61.1319
65.4111
69.9053
74.6186
79.5539
84.7134
90.098
95.7078
101.541
107.597
113.871
120.359
127.056
133.954
141.048
148.327
155.783
163.405
171.181
179.099
187.148
195.311
203.576
211.924
220.337
228.795
237.276
245.755
254.194
262.532
270.752
278.833
286.757
294.504
302.055
309.394
316.501
323.359
329.951
336.264
342.283
347.998
353.398
358.473
363.215
367.617
371.669
375.366
378.706
381.688
384.312
386.579
388.492
390.055
391.27
392.144
392.683
392.896
392.791
392.378
391.664
390.659
389.377
387.828
386.02
383.964
381.668
379.142
376.395
373.44
370.284
366.936
363.402
359.69
355.809
351.77
347.58
343.247
338.784
334.2
329.51
324.727
319.868
314.952
310
305.035
300.083
295.172
290.332
285.593
280.986
276.539
272.278
268.222
264.383
260.76
257.342
254.103
251.001
247.986
244.999
241.974
238.848
235.557
232.047
228.272
224.203
219.823
215.132
210.144
204.886
199.394
193.71
187.882
181.958
175.984
170.007
164.068
158.204
152.447
146.826
141.364
136.078
130.985
126.095
121.417
116.955
112.713
108.691
104.891
101.31
97.9424
94.7756
91.8061
89.0284
86.4366
84.0241
81.784
79.7092
77.7925
76.0268
74.4052
72.9208
71.5673
70.3385
69.2287
68.2326
67.3452
66.5618
65.8781
65.2902
64.7941
64.3864
64.0634
63.8218
63.658
63.5686
63.5497
63.5973
63.707
63.8739
64.0923
64.3558
64.6573
64.989
65.344
65.717
66.1082
66.5066
66.845
6.54152
4.57085
4.54704
4.96196
5.56504
6.28372
7.09205
7.98177
8.95247
10.0072
11.1507
12.388
13.7248
15.1668
16.7198
18.3899
20.1835
22.1068
24.1664
26.3694
28.7229
31.2347
33.9128
36.7654
39.801
43.0284
46.456
50.0924
53.9458
58.024
62.3345
66.8841
71.6787
76.7234
82.0221
87.5777
93.3915
99.4635
105.792
112.376
119.21
126.289
133.608
141.158
148.931
156.916
165.102
173.476
182.023
190.73
199.582
208.562
217.653
226.835
236.088
245.387
254.708
264.019
273.24
282.347
291.316
300.126
308.757
317.188
325.399
333.371
341.087
348.524
355.664
362.493
368.997
375.165
380.984
386.446
391.542
396.266
400.604
404.55
408.104
411.264
414.031
416.404
418.388
419.986
421.198
422.032
422.495
422.596
422.343
421.744
420.811
419.551
417.978
416.102
413.933
411.481
408.756
405.767
402.525
399.04
395.321
391.377
387.216
382.846
378.278
373.519
368.578
363.467
358.197
352.778
347.226
341.555
335.784
329.933
324.025
318.086
312.145
306.236
300.392
294.653
289.058
283.645
278.453
273.516
268.858
264.496
260.43
256.646
253.113
249.783
246.596
243.483
240.368
237.175
233.834
230.282
226.473
222.376
217.976
213.275
208.292
203.055
197.603
191.98
186.232
180.408
174.554
168.713
162.924
157.223
151.64
146.201
140.927
135.836
130.941
126.253
121.778
117.522
113.487
109.675
106.084
102.702
99.5248
96.5479
93.7666
91.175
88.7667
86.5346
84.4717
82.5706
80.8241
79.2249
77.7663
76.4414
75.2439
74.1679
73.2077
72.358
71.6137
70.9701
70.4227
69.9673
69.5996
69.3157
69.1113
68.9823
68.9246
68.9335
69.0041
69.1314
69.3092
69.5312
69.7898
70.077
70.3842
70.704
71.0316
71.3707
71.7178
72.0218
6.6913
4.6283
4.55373
4.93121
5.50192
6.19075
6.97083
7.83343
8.77788
9.80733
10.9268
12.1421
13.4596
14.8861
16.4287
18.0946
19.8914
21.8268
23.9091
26.1466
28.5483
31.1235
33.882
36.8339
39.9895
43.3594
46.954
50.7837
54.8582
59.1872
63.7794
68.6431
73.7854
79.2125
84.9291
90.9385
97.2421
103.839
110.729
117.907
125.369
133.108
141.118
149.388
157.908
166.665
175.646
184.833
194.21
203.76
213.465
223.305
233.261
243.309
253.426
263.586
273.759
283.871
293.866
303.721
313.413
322.922
332.223
341.297
350.121
358.677
366.948
374.908
382.536
389.818
396.741
403.293
409.463
415.242
420.622
425.602
430.155
434.281
437.981
441.253
444.096
446.513
448.505
450.075
451.228
451.969
452.306
452.246
451.798
450.971
449.776
448.221
446.32
444.081
441.517
438.637
435.451
431.971
428.207
424.169
419.866
415.308
410.504
405.464
400.197
394.712
389.02
383.132
377.059
370.814
364.412
357.868
351.203
344.438
337.595
330.704
323.796
316.906
310.074
303.343
296.761
290.375
284.237
278.393
272.885
267.745
262.992
258.626
254.627
250.958
247.559
244.357
241.268
238.201
235.068
231.79
228.299
224.548
220.505
216.159
211.517
206.601
201.442
196.081
190.564
184.939
179.252
173.549
167.872
162.258
156.742
151.352
146.111
141.042
136.159
131.475
127
122.741
118.702
114.887
111.288
107.898
104.715
101.735
98.9534
96.3652
93.9637
91.7419
89.6926
87.8082
86.0814
84.5047
83.0711
81.7734
80.6052
79.5599
78.6317
77.8148
77.1037
76.4932
75.9783
75.5541
75.2159
74.9589
74.7784
74.6695
74.6272
74.6462
74.7209
74.8452
75.0123
75.2148
75.4445
75.6923
75.9491
76.2071
76.4625
76.7227
76.9937
77.2447
6.80311
4.66187
4.53959
4.88027
5.41841
6.07686
6.8281
7.66308
8.58106
9.5854
10.6815
11.8761
13.1764
14.5904
16.1263
17.7929
19.5992
21.5549
23.6697
25.954
28.4188
31.0754
33.9354
37.0112
40.3153
43.8604
47.659
51.7234
56.065
60.6949
65.6234
70.86
76.413
82.2892
88.4941
95.0312
101.901
109.103
116.632
124.485
132.656
141.136
149.915
158.982
168.323
177.925
187.77
197.834
208.097
218.54
229.142
239.878
250.726
261.659
272.65
283.671
294.664
305.54
316.27
326.829
337.195
347.345
357.255
366.903
376.268
385.331
394.081
402.482
410.51
418.155
425.407
432.254
438.683
444.687
450.258
455.388
460.066
464.287
468.049
471.352
474.195
476.579
478.508
479.984
481.011
481.596
481.745
481.466
480.769
479.661
478.155
476.259
473.985
471.344
468.346
465.003
461.326
457.326
453.014
448.4
443.494
438.306
432.848
427.129
421.159
414.949
408.509
401.851
394.989
387.936
380.706
373.317
365.789
358.142
350.403
342.599
334.763
326.932
319.148
311.458
303.915
296.574
289.496
282.741
276.367
270.424
264.95
259.964
255.465
251.425
247.792
244.491
241.431
238.508
235.615
232.653
229.534
226.188
222.566
218.642
214.408
209.877
205.074
200.037
194.807
189.432
183.961
178.441
172.915
167.426
162.009
156.696
151.516
146.491
141.641
136.981
132.523
128.276
124.246
120.438
116.839
113.449
110.268
107.292
104.517
101.937
99.547
97.3391
95.306
93.4403
91.7343
90.1802
88.7707
87.4985
86.3566
85.3382
84.4369
83.6465
82.9611
82.3748
81.8822
81.4778
81.1561
80.9118
80.7394
80.6335
80.5881
80.5975
80.655
80.754
80.8868
81.0454
81.2207
81.4032
81.583
81.7525
81.9089
82.0637
82.2336
82.4124
6.88205
4.6759
4.50943
4.81454
5.32065
5.9491
6.67193
7.48001
8.37269
9.35369
10.4291
11.6063
12.8939
14.3011
15.8377
17.5142
19.3414
21.3311
23.4953
25.8467
28.3985
31.1644
34.1586
37.3957
40.8907
44.6588
48.715
53.0734
57.7471
62.7483
68.0885
73.7782
79.8264
86.2404
93.0259
100.186
107.721
115.625
123.893
132.52
141.495
150.809
160.448
170.398
180.642
191.163
201.944
212.947
224.15
235.529
247.06
258.715
270.467
282.284
294.138
305.981
317.712
329.302
340.7
351.891
362.851
373.556
383.984
394.11
403.914
413.376
422.478
431.197
439.512
447.41
454.878
461.906
468.483
474.602
480.253
485.432
490.131
494.344
498.069
501.307
504.056
506.318
508.097
509.396
510.22
510.574
510.465
509.901
508.89
507.443
505.57
503.281
500.587
497.498
494.027
490.185
485.983
481.433
476.547
471.335
465.808
459.978
453.855
447.451
440.777
433.845
426.666
419.254
411.621
403.783
395.755
387.555
379.203
370.721
362.134
353.47
344.762
336.048
327.369
318.775
310.321
302.067
294.082
286.437
279.203
272.45
266.236
260.602
255.568
251.124
247.23
243.813
240.777
238.006
235.377
232.768
230.066
227.18
224.04
220.6
216.84
212.759
208.377
203.723
198.838
193.769
188.564
183.273
177.942
172.616
167.334
162.132
157.042
152.089
147.296
142.681
138.259
134.042
130.039
126.246
122.66
119.282
116.112
113.149
110.388
107.824
105.45
103.261
101.247
99.4021
97.7177
96.1859
94.7991
93.5496
92.43
91.4332
90.5522
89.7804
89.1113
88.5386
88.0562
87.6579
87.3378
87.0899
86.908
86.7859
86.7172
86.6954
86.7132
86.7633
86.8374
86.927
87.0223
87.1134
87.1902
87.2451
87.2766
87.3005
87.3453
87.4328
6.93284
4.67422
4.46748
4.73889
5.2143
5.81409
6.51018
7.29351
8.16376
9.12521
10.1848
11.3511
12.634
14.0445
15.5943
17.296
19.1629
21.209
23.4494
25.8995
28.5756
31.4939
34.6715
38.1257
41.8746
45.9359
50.3273
55.0654
60.1635
65.6346
71.491
77.7437
84.4016
91.4715
98.9583
106.865
115.192
123.922
133.05
142.567
152.46
162.716
173.316
184.241
195.472
206.987
218.777
230.771
242.953
255.297
267.772
280.347
292.987
305.66
318.325
330.854
343.228
355.415
367.379
379.093
390.534
401.677
412.498
422.975
433.087
442.815
452.141
461.045
469.51
477.522
485.07
492.144
498.736
504.837
510.441
515.545
520.141
524.226
527.799
530.859
533.407
535.446
536.977
538.006
538.537
538.576
538.13
537.206
535.813
533.962
531.661
528.923
525.757
522.175
518.188
513.808
509.047
503.918
498.432
492.6
486.436
479.95
473.156
466.064
458.689
451.041
443.135
434.985
426.604
418.01
409.217
400.246
391.116
381.85
372.473
363.012
353.5
343.973
334.473
325.049
315.756
306.657
297.824
289.337
281.278
273.732
266.779
260.484
254.892
250.015
245.829
242.272
239.248
236.631
234.281
232.052
229.808
227.431
224.829
221.934
218.71
215.144
211.243
207.034
202.552
197.844
192.958
187.944
182.853
177.732
172.624
167.568
162.599
157.747
153.038
148.493
144.13
139.963
136.001
132.238
128.678
125.325
122.179
119.239
116.5
113.958
111.607
109.44
107.449
105.626
103.963
102.453
101.086
99.8555
98.753
97.7709
96.9021
96.1393
95.4755
94.9039
94.4177
94.0104
93.6752
93.4057
93.1951
93.0365
92.9232
92.8478
92.8027
92.7799
92.771
92.7666
92.7569
92.7315
92.6804
92.5964
92.479
92.3485
92.2455
92.2231
6.95995
4.6602
4.4175
4.6578
5.1048
5.6785
6.35099
7.11359
7.96656
8.91507
9.96721
11.1332
12.4247
13.8549
15.4381
17.1896
19.1256
21.2635
23.6217
26.2197
29.0774
32.2141
35.6497
39.4051
43.5012
47.9589
52.7986
58.04
63.6949
69.7748
76.2927
83.259
90.6809
98.5632
106.908
115.719
125
134.707
144.839
155.384
166.324
177.639
189.306
201.3
213.595
226.163
238.976
251.987
265.16
278.464
291.862
305.316
318.788
332.24
345.527
358.632
371.528
384.188
396.577
408.67
420.441
431.866
442.923
453.589
463.846
473.675
483.061
491.987
500.438
508.402
515.869
522.831
529.281
535.213
540.623
545.507
549.862
553.686
556.976
559.735
561.964
563.664
564.841
565.498
565.64
565.273
564.404
563.041
561.192
558.867
556.077
552.831
549.14
545.016
540.47
535.515
530.162
524.424
518.315
511.845
505.029
497.878
490.406
482.627
474.554
466.201
457.582
448.713
439.611
430.29
420.771
411.071
401.213
391.218
381.112
370.922
360.68
350.421
340.185
330.02
319.978
310.123
300.527
291.273
282.451
274.159
266.495
259.549
253.39
248.06
243.557
239.837
236.808
234.339
232.274
230.446
228.693
226.868
224.854
222.561
219.933
216.941
213.584
209.879
205.858
201.566
197.051
192.364
187.559
182.686
177.791
172.917
168.103
163.384
158.787
154.337
150.056
145.961
142.055
138.339
134.822
131.508
128.397
125.49
122.782
120.27
117.947
115.807
113.84
112.041
110.399
108.908
107.558
106.34
105.248
104.273
103.406
102.641
101.97
101.386
100.881
100.448
100.08
99.7696
99.5103
99.2945
99.1146
98.9632
98.8321
98.7131
98.5973
98.4752
98.3368
98.1717
97.97
97.7248
97.4371
97.1313
96.8604
96.7108
6.96751
4.63684
4.36297
4.57566
4.9978
5.54961
6.20371
6.95218
7.79629
8.74256
9.80084
10.9835
12.3048
13.7808
15.4293
17.2696
19.3215
21.6066
24.1481
26.9704
30.099
33.5558
37.3638
41.5477
46.1318
51.1392
56.5928
62.5184
68.9202
75.8046
83.1855
91.0704
99.4627
108.362
117.766
127.669
138.061
148.912
160.207
171.924
184.039
196.526
209.354
222.492
235.906
249.562
263.422
277.441
291.577
305.792
320.041
334.281
348.464
362.441
376.197
389.712
402.959
415.912
428.541
440.821
452.727
464.237
475.33
485.986
496.189
505.922
515.172
523.926
532.172
539.9
547.102
553.772
559.906
565.5
570.551
575.058
579.02
582.434
585.303
587.627
589.408
590.651
591.358
591.536
591.188
590.321
588.942
587.058
584.678
581.811
578.466
574.655
570.388
565.676
560.53
554.963
548.988
542.616
535.862
528.738
521.259
513.436
505.286
496.822
488.06
479.014
469.701
460.137
450.34
440.328
430.121
419.738
409.202
398.536
387.765
376.918
366.024
355.118
344.238
333.428
322.739
312.232
301.977
292.055
282.561
273.6
265.283
257.72
251.01
245.223
240.389
236.484
233.431
231.099
229.32
227.907
226.669
225.433
224.052
222.411
220.433
218.074
215.318
212.175
208.673
204.851
200.759
196.449
191.976
187.394
182.753
178.099
173.476
168.92
164.465
160.138
155.963
151.96
148.128
144.478
141.019
137.758
134.695
131.831
129.164
126.688
124.398
122.287
120.347
118.571
116.949
115.473
114.134
112.924
111.834
110.856
109.981
109.202
108.51
107.897
107.357
106.881
106.462
106.092
105.764
105.47
105.202
104.953
104.714
104.476
104.231
103.97
103.681
103.356
102.983
102.558
102.081
101.583
101.126
100.832
6.95946
4.60695
4.30739
4.49728
4.8999
5.43634
6.0803
6.82514
7.67381
8.63494
9.721
10.9476
12.3327
13.8963
15.6615
17.6538
19.8968
22.4182
25.2475
28.4158
31.9578
35.8959
40.255
45.0648
50.352
56.1404
62.4516
69.3043
76.705
84.6582
93.1692
102.238
111.861
122.029
132.731
143.95
155.665
167.848
180.47
193.501
206.908
220.657
234.711
249.03
263.575
278.302
293.168
308.126
323.124
338.126
353.077
367.897
382.457
396.747
410.749
424.444
437.807
450.814
463.441
475.664
487.461
498.811
509.699
520.106
530.018
539.424
548.312
556.672
564.496
571.777
578.51
584.691
590.318
595.39
599.906
603.867
607.274
610.126
612.426
614.176
615.38
616.041
616.164
615.754
614.816
613.356
611.38
608.895
605.911
602.435
598.477
594.047
589.155
583.813
578.031
571.822
565.198
558.173
550.759
542.971
534.822
526.328
517.503
508.363
498.925
489.204
479.219
468.988
458.529
447.862
437.009
425.99
414.83
403.552
392.182
380.748
369.281
357.813
346.382
335.028
323.801
312.755
301.957
291.485
281.432
271.903
263.02
254.907
247.688
241.464
236.298
232.196
229.102
226.894
225.396
224.404
223.7
223.081
222.37
221.427
220.149
218.475
216.376
213.85
210.92
207.622
204.004
200.12
196.027
191.78
187.433
183.038
178.64
174.28
169.996
165.819
161.776
157.883
154.146
150.58
147.197
144.002
140.999
138.189
135.57
133.136
130.884
128.805
126.892
125.138
123.532
122.068
120.734
119.524
118.427
117.435
116.54
115.733
115.006
114.35
113.758
113.222
112.733
112.284
111.868
111.476
111.1
110.732
110.365
109.989
109.595
109.174
108.717
108.213
107.653
107.031
106.352
105.646
104.99
104.536
6.93956
4.57338
4.25481
4.42868
4.81987
5.35113
5.99795
6.75593
7.63077
8.6345
9.78367
11.0991
12.6045
14.3251
16.2921
18.5427
21.1029
24.0096
27.3012
31.0158
35.1913
39.8583
45.0463
50.7847
57.099
64.0101
71.5334
79.6785
88.4457
97.8307
107.826
118.42
129.596
141.331
153.601
166.379
179.631
193.32
207.408
221.856
236.622
251.663
266.934
282.393
297.989
313.677
329.405
345.125
360.773
376.325
391.627
406.604
421.249
435.551
449.494
463.061
476.234
488.991
501.311
513.176
524.567
535.468
545.864
555.744
565.096
573.911
582.182
589.903
597.067
603.673
609.717
615.198
620.118
624.476
628.275
631.517
634.204
636.338
637.924
638.963
639.461
639.42
638.847
637.746
636.121
633.98
631.327
628.169
624.514
620.371
615.747
610.652
605.096
599.09
592.644
585.77
578.48
570.789
562.708
554.253
545.439
536.279
526.791
516.992
506.898
496.527
485.899
475.033
463.95
452.671
441.218
429.615
417.885
406.056
394.153
382.205
370.243