/*--------------------------------*- C++ -*----------------------------------*\
  =========                 |
  \\      /  F ield         | OpenFOAM: The Open Source CFD Toolbox
   \\    /   O peration     | Website:  https://openfoam.org
    \\  /    A nd           | Version:  7
     \\/     M anipulation  |
\*---------------------------------------------------------------------------*/
FoamFile
{
    version     2.0;
    format      ascii;
    class       volScalarField;
    location    "650";
    object      k;
}
// * * * * * * * * * * * * * * * * * * * * * * * * * * * * * * * * * * * * * //

dimensions      [0 2 -2 0 0 0 0];

internalField   nonuniform List<scalar> 
16900
(
0.0168775
0.0350059
0.0521626
0.0675601
0.0810505
0.0926719
0.102511
0.110643
0.117108
0.121963
0.125382
0.127769
0.129731
0.131528
0.129013
0.133001
0.136729
0.147383
0.158371
0.169689
0.181311
0.193227
0.205429
0.217916
0.230688
0.243743
0.257078
0.270691
0.284575
0.298726
0.313134
0.32779
0.342684
0.357802
0.373132
0.388658
0.404363
0.420231
0.436243
0.452379
0.468617
0.484936
0.501312
0.517721
0.534137
0.550534
0.566883
0.583156
0.599322
0.615351
0.631212
0.646872
0.662298
0.677458
0.69232
0.706855
0.721034
0.734834
0.748238
0.761239
0.773845
0.786087
0.798031
0.809519
0.820427
0.830752
0.840488
0.84963
0.85817
0.866107
0.873437
0.880162
0.886285
0.891811
0.896748
0.901108
0.904903
0.908149
0.910865
0.913071
0.914791
0.916048
0.91687
0.917285
0.917321
0.917009
0.91638
0.915465
0.914297
0.912908
0.911331
0.909595
0.907733
0.905773
0.903747
0.901683
0.89961
0.897556
0.895547
0.893607
0.891763
0.890037
0.888455
0.887041
0.885818
0.884806
0.884028
0.883506
0.883265
0.883321
0.883692
0.884396
0.885453
0.886868
0.888643
0.890792
0.893291
0.896114
0.899262
0.902648
0.906214
0.909902
0.913486
0.916884
0.920091
0.923069
0.925838
0.93204
0.940665
0.94882
0.9558
0.961267
0.96498
0.966753
0.966458
0.964025
0.959443
0.952759
0.94407
0.933515
0.921267
0.90752
0.892479
0.876357
0.859357
0.841678
0.823502
0.804997
0.786311
0.767576
0.748906
0.730399
0.712134
0.694181
0.676595
0.659418
0.642686
0.626426
0.610655
0.595389
0.580635
0.5664
0.552686
0.539495
0.526831
0.514704
0.503147
0.492236
0.481853
0.471928
0.462418
0.453294
0.44454
0.436144
0.428097
0.420391
0.413022
0.405985
0.399276
0.392891
0.38683
0.381089
0.375668
0.370568
0.365789
0.361335
0.357207
0.353411
0.349951
0.346834
0.344066
0.341657
0.339616
0.337955
0.336688
0.335832
0.335405
0.335418
0.33581
0.336198
0.0314947
0.0525963
0.0706862
0.0872243
0.102087
0.115292
0.126988
0.137368
0.146643
0.155111
0.163317
0.172225
0.182922
0.194895
0.207653
0.224024
0.244508
0.264239
0.283437
0.303184
0.32356
0.344533
0.366084
0.388209
0.410905
0.434174
0.458016
0.482427
0.507405
0.532943
0.559032
0.58566
0.612814
0.640479
0.668634
0.69726
0.726333
0.755828
0.785717
0.81597
0.846557
0.877442
0.908591
0.939965
0.971525
1.00323
1.03503
1.06688
1.09873
1.13053
1.16223
1.19376
1.22507
1.2561
1.28678
1.31706
1.34686
1.37613
1.40481
1.43284
1.46019
1.4868
1.51254
1.53723
1.56095
1.58371
1.60548
1.62624
1.64597
1.66464
1.68224
1.69875
1.71418
1.72852
1.74177
1.75393
1.76503
1.77508
1.78409
1.79211
1.79916
1.80528
1.81052
1.81492
1.81852
1.82139
1.82357
1.82512
1.82611
1.8266
1.82664
1.82631
1.82566
1.82475
1.82365
1.82243
1.82114
1.81985
1.81862
1.81752
1.8166
1.81592
1.81555
1.81555
1.81598
1.8169
1.81838
1.82047
1.82324
1.82675
1.83105
1.8362
1.84225
1.84925
1.8572
1.86615
1.87607
1.88693
1.8987
1.91121
1.92434
1.9379
1.95154
1.96495
1.97769
1.98956
2.00008
2.00918
2.01663
2.02147
2.02318
2.02132
2.01555
2.00562
1.99139
1.97283
1.95004
1.92322
1.89264
1.85869
1.82178
1.78236
1.7409
1.69785
1.65365
1.60871
1.56341
1.51807
1.473
1.42844
1.3846
1.34166
1.29976
1.25902
1.21952
1.18133
1.14449
1.10905
1.07501
1.04238
1.01116
0.981354
0.952939
0.925909
0.900258
0.875997
0.853152
0.831463
0.810887
0.791386
0.772931
0.755491
0.739042
0.723559
0.709017
0.695393
0.682666
0.670814
0.659817
0.649657
0.640318
0.631783
0.62404
0.617076
0.610882
0.605449
0.600769
0.596838
0.593651
0.591203
0.589492
0.588516
0.588274
0.588766
0.589996
0.591969
0.594691
0.598146
0.602122
0.605941
0.0432994
0.0672475
0.0865097
0.104093
0.120368
0.135451
0.14956
0.163014
0.176201
0.189605
0.20384
0.219597
0.237269
0.256473
0.277078
0.299476
0.323465
0.347956
0.372801
0.39826
0.424424
0.451308
0.478911
0.507233
0.536276
0.566039
0.596523
0.627724
0.659636
0.692251
0.725557
0.75954
0.794181
0.829461
0.865355
0.901837
0.938877
0.976444
1.0145
1.05301
1.09194
1.13124
1.17086
1.21077
1.2509
1.29122
1.33167
1.37218
1.41271
1.45318
1.49355
1.53373
1.57366
1.61326
1.65247
1.69121
1.72939
1.76695
1.80381
1.83989
1.87514
1.90949
1.94265
1.97465
2.00549
2.03513
2.06354
2.0907
2.11656
2.1411
2.1643
2.18614
2.20659
2.22566
2.24334
2.25964
2.27455
2.28811
2.30033
2.31124
2.32088
2.32929
2.33651
2.34261
2.34762
2.35162
2.35467
2.35683
2.35818
2.35879
2.35874
2.35809
2.35692
2.35532
2.35336
2.35111
2.34865
2.34606
2.34342
2.3408
2.33829
2.33595
2.33387
2.33212
2.3308
2.32997
2.32972
2.33012
2.33128
2.33326
2.33615
2.34003
2.34497
2.35103
2.35826
2.36672
2.37637
2.38721
2.39921
2.41215
2.42591
2.44027
2.45475
2.46889
2.48239
2.49491
2.50597
2.51512
2.52175
2.52513
2.52468
2.51991
2.51041
2.49589
2.4762
2.45132
2.42136
2.38658
2.34734
2.30409
2.25735
2.20767
2.15562
2.10176
2.04662
1.99071
1.93447
1.87832
1.82259
1.76761
1.71361
1.6608
1.60937
1.55943
1.5111
1.46444
1.41951
1.37635
1.33498
1.29539
1.25759
1.22156
1.1873
1.15478
1.124
1.09498
1.0675
1.04148
1.01689
0.993672
0.97178
0.951175
0.931814
0.913659
0.896673
0.880823
0.866074
0.852399
0.839767
0.828154
0.817537
0.807894
0.799207
0.791459
0.784637
0.778728
0.773721
0.769607
0.766375
0.764017
0.762525
0.761889
0.762099
0.763147
0.765022
0.767721
0.771233
0.77552
0.780308
0.784599
0.0528427
0.0794583
0.100003
0.11858
0.136121
0.15293
0.169283
0.185537
0.202101
0.219419
0.237946
0.258073
0.279963
0.303424
0.328269
0.354446
0.381775
0.409905
0.4387
0.468225
0.498536
0.529658
0.561603
0.594377
0.627984
0.662426
0.697704
0.733814
0.770751
0.808505
0.847065
0.886415
0.926535
0.967403
1.00899
1.05127
1.09421
1.13777
1.18191
1.22658
1.27176
1.31737
1.36339
1.40974
1.45639
1.50326
1.5503
1.59745
1.64465
1.69182
1.73889
1.7858
1.83246
1.8788
1.92472
1.97016
2.01501
2.05919
2.10262
2.14519
2.18684
2.22743
2.26671
2.30472
2.3414
2.37673
2.41065
2.44313
2.47413
2.5036
2.53152
2.55785
2.58258
2.60568
2.62715
2.64699
2.6652
2.68178
2.69677
2.71018
2.72205
2.73242
2.74133
2.74885
2.75503
2.75992
2.76361
2.76615
2.76763
2.76813
2.76772
2.76649
2.76452
2.7619
2.75871
2.75504
2.75096
2.74658
2.74198
2.73724
2.73246
2.72771
2.72309
2.71869
2.71461
2.71094
2.70777
2.7052
2.70335
2.70231
2.70218
2.70306
2.70505
2.70825
2.71273
2.71856
2.72574
2.73428
2.74419
2.75525
2.76728
2.78005
2.79324
2.80642
2.8192
2.83114
2.8417
2.85025
2.85605
2.85836
2.85655
2.85005
2.83841
2.82128
2.79848
2.76996
2.73584
2.6964
2.65203
2.60324
2.55059
2.49471
2.43623
2.37578
2.31396
2.25132
2.18838
2.12558
2.06332
2.00194
1.94171
1.88287
1.82561
1.77007
1.71637
1.6646
1.61479
1.56701
1.52126
1.47754
1.43586
1.39619
1.35853
1.32285
1.28916
1.25731
1.22716
1.19867
1.1718
1.1465
1.12269
1.10034
1.07939
1.0598
1.04152
1.0245
1.00871
0.994118
0.980679
0.968369
0.957161
0.947029
0.937954
0.929915
0.922896
0.916882
0.911857
0.907809
0.904724
0.902586
0.901382
0.901092
0.901697
0.903176
0.905506
0.90867
0.912642
0.917365
0.922513
0.926908
0.0608719
0.089659
0.111486
0.131042
0.149712
0.168005
0.186254
0.204809
0.22404
0.2443
0.265901
0.289063
0.313854
0.340161
0.367824
0.39672
0.426714
0.457643
0.48942
0.522053
0.555571
0.589996
0.625343
0.661622
0.69884
0.737002
0.776109
0.816162
0.857155
0.899082
0.94193
0.985685
1.03033
1.07583
1.12217
1.16932
1.21723
1.26587
1.3152
1.36516
1.41572
1.4668
1.51837
1.57037
1.62272
1.67537
1.72825
1.78131
1.83445
1.88762
1.94074
1.99372
2.04649
2.09895
2.15102
2.20259
2.25358
2.30388
2.35339
2.40201
2.44965
2.496
2.541
2.58461
2.62678
2.66746
2.70659
2.74411
2.77998
2.81415
2.84657
2.87721
2.90604
2.93303
2.95817
2.98143
3.00282
3.02235
3.04002
3.05586
3.06989
3.08215
3.09269
3.10156
3.10882
3.11452
3.11874
3.12155
3.12302
3.12325
3.1223
3.12028
3.11727
3.11336
3.10864
3.10319
3.09712
3.09051
3.08347
3.07608
3.06845
3.06066
3.05281
3.04501
3.03735
3.02997
3.02294
3.01639
3.01044
3.00522
3.00084
2.99743
2.99512
2.99403
2.99426
2.99593
2.99909
3.00377
3.00994
3.01754
3.02643
3.0364
3.04721
3.05846
3.06972
3.0805
3.09021
3.09811
3.10338
3.10523
3.10293
3.09583
3.0834
3.06521
3.04101
3.01072
2.97443
2.93241
2.88507
2.83293
2.77661
2.71678
2.65413
2.58932
2.52302
2.45582
2.3883
2.32092
2.25414
2.1883
2.12373
2.06068
1.99934
1.93989
1.88245
1.8271
1.77392
1.72293
1.67416
1.62762
1.58329
1.54117
1.50124
1.46347
1.42779
1.39402
1.36211
1.33201
1.30366
1.277
1.25199
1.22854
1.20661
1.18615
1.1671
1.14941
1.13305
1.11796
1.10412
1.09149
1.08004
1.06974
1.06057
1.05251
1.04554
1.03964
1.03479
1.03097
1.02816
1.02634
1.02549
1.02557
1.02656
1.02842
1.03111
1.0346
1.03885
1.0438
1.04909
1.05347
0.0676879
0.0981383
0.121132
0.141604
0.161257
0.18077
0.200532
0.220878
0.242125
0.26455
0.288366
0.313703
0.340587
0.368944
0.398651
0.429599
0.461687
0.494816
0.528928
0.564018
0.600098
0.637187
0.6753
0.71445
0.754646
0.795898
0.83821
0.881584
0.926019
0.971511
1.01805
1.06562
1.11421
1.16378
1.21432
1.26579
1.31816
1.37137
1.42539
1.48016
1.53564
1.59175
1.64845
1.70566
1.76332
1.82137
1.87973
1.93832
1.99708
2.05592
2.11476
2.17352
2.2321
2.29041
2.34836
2.40583
2.46272
2.5189
2.57428
2.62872
2.68207
2.73404
2.78457
2.83361
2.88111
2.92698
2.97117
3.01362
3.05425
3.09302
3.12986
3.16474
3.19761
3.22843
3.25718
3.28383
3.30838
3.33082
3.35115
3.36938
3.38555
3.39968
3.4118
3.42198
3.43026
3.4367
3.44137
3.44435
3.4457
3.44552
3.44388
3.44088
3.43662
3.43118
3.42466
3.41714
3.40874
3.39954
3.38964
3.37916
3.3682
3.35684
3.34519
3.33335
3.32146
3.30963
3.29798
3.28662
3.27568
3.26532
3.2557
3.24694
3.23919
3.23264
3.22745
3.22371
3.22157
3.22111
3.22238
3.22539
3.23009
3.23635
3.24395
3.25258
3.2618
3.27112
3.27987
3.28729
3.29248
3.29457
3.29272
3.28617
3.27425
3.25645
3.23242
3.202
3.16523
3.12236
3.07379
3.02005
2.96179
2.8997
2.83452
2.76696
2.69774
2.6275
2.55684
2.48629
2.41631
2.34731
2.27962
2.21351
2.14922
2.08692
2.02675
1.96879
1.91314
1.85982
1.80887
1.76029
1.71407
1.6702
1.62866
1.58942
1.55226
1.51714
1.484
1.45278
1.42343
1.39587
1.37005
1.3459
1.32336
1.30237
1.28287
1.26481
1.24814
1.23283
1.21883
1.20611
1.19463
1.18436
1.17528
1.16736
1.16058
1.15491
1.15033
1.14681
1.14433
1.14285
1.14234
1.14276
1.14405
1.14618
1.14909
1.15272
1.15704
1.16197
1.16718
1.17144
0.0734553
0.105111
0.129086
0.150361
0.170837
0.191321
0.212246
0.233939
0.256674
0.28067
0.306081
0.332989
0.361402
0.391268
0.422501
0.455015
0.488735
0.523595
0.559555
0.596607
0.634758
0.674023
0.714419
0.755961
0.798663
0.842537
0.887592
0.933835
0.981268
1.02989
1.07969
1.13067
1.1828
1.23606
1.29042
1.34586
1.40233
1.45978
1.51818
1.57745
1.63756
1.69842
1.75997
1.82215
1.88489
1.94809
2.0117
2.07562
2.13978
2.20409
2.26846
2.3328
2.39701
2.46099
2.52463
2.58782
2.65043
2.71234
2.77342
2.83354
2.89237
2.94977
3.00566
3.05998
3.11264
3.16357
3.21269
3.25993
3.30522
3.34847
3.38964
3.42866
3.46548
3.50006
3.53236
3.56234
3.58999
3.61529
3.63823
3.65882
3.67707
3.69301
3.70668
3.71811
3.72735
3.73447
3.73951
3.74256
3.74369
3.74298
3.74052
3.7364
3.73071
3.72355
3.71501
3.7052
3.6942
3.68211
3.66905
3.65513
3.64045
3.6251
3.60921
3.59286
3.5762
3.55937
3.54247
3.52565
3.50901
3.49278
3.47713
3.46221
3.44817
3.43526
3.42366
3.41355
3.40512
3.39854
3.39396
3.39146
3.3911
3.39284
3.39654
3.40196
3.40874
3.41635
3.42415
3.43131
3.4369
3.43994
3.43947
3.43458
3.42446
3.40844
3.38606
3.35705
3.32138
3.27923
3.23098
3.17717
3.11844
3.05554
2.98921
2.92024
2.84937
2.77729
2.70465
2.63201
2.55988
2.48869
2.41881
2.35053
2.28411
2.21974
2.15756
2.0977
2.04023
1.9852
1.93265
1.88257
1.83498
1.78985
1.74717
1.70679
1.66857
1.63249
1.59848
1.56649
1.53645
1.50829
1.48195
1.45735
1.43444
1.41315
1.39341
1.37519
1.35841
1.34305
1.32905
1.31638
1.30501
1.29489
1.28599
1.2783
1.27177
1.26637
1.26208
1.25886
1.25668
1.25548
1.25523
1.25586
1.25732
1.25954
1.26245
1.26598
1.27008
1.27471
1.27958
1.28358
0.0782917
0.11076
0.135505
0.157438
0.178574
0.1998
0.221589
0.244263
0.268065
0.293176
0.319715
0.34774
0.377255
0.408224
0.440587
0.474282
0.509255
0.545463
0.582878
0.621493
0.661318
0.702367
0.744657
0.788209
0.833039
0.879166
0.926603
0.975362
1.02545
1.07687
1.12962
1.18368
1.23906
1.29572
1.35364
1.41278
1.4731
1.53457
1.59711
1.66067
1.7252
1.79061
1.85685
1.92382
1.99144
2.05965
2.12834
2.19743
2.26683
2.33644
2.40618
2.47593
2.5456
2.61508
2.68424
2.75296
2.82111
2.88855
2.95513
3.02066
3.08477
3.14739
3.20843
3.26781
3.32544
3.38124
3.4351
3.48695
3.53671
3.58429
3.62961
3.67263
3.71326
3.75146
3.78718
3.82038
3.85102
3.87907
3.90453
3.92738
3.94763
3.96531
3.98043
3.99304
4.00317
4.01088
4.01621
4.01925
4.02006
4.01872
4.01533
4.00996
4.00271
3.99368
3.98297
3.97068
3.95689
3.94171
3.92525
3.90764
3.88897
3.86935
3.84889
3.82768
3.80586
3.78362
3.76107
3.73834
3.71557
3.69296
3.67072
3.64902
3.62808
3.60813
3.58943
3.57221
3.55675
3.54329
3.53207
3.52329
3.51711
3.5136
3.51276
3.51444
3.51834
3.52402
3.53082
3.53793
3.54434
3.54899
3.55077
3.5486
3.54149
3.5286
3.50928
3.48315
3.45005
3.4101
3.36363
3.31114
3.25331
3.19088
3.12466
3.05544
2.98403
2.91116
2.83752
2.76372
2.6903
2.61774
2.54643
2.4767
2.40882
2.343
2.27942
2.21819
2.15942
2.10317
2.04946
1.99832
1.94974
1.90372
1.8602
1.81896
1.77999
1.74323
1.70863
1.67611
1.64563
1.61709
1.59044
1.56559
1.54249
1.52106
1.50125
1.48299
1.46623
1.45093
1.43704
1.42451
1.4133
1.40338
1.39471
1.38726
1.38097
1.37583
1.37178
1.36878
1.36679
1.36574
1.36559
1.36625
1.36766
1.36972
1.37235
1.37547
1.37904
1.38304
1.38727
1.39085
0.0822954
0.115248
0.140553
0.162989
0.184621
0.206387
0.228787
0.25214
0.276673
0.302543
0.329848
0.358635
0.388912
0.420656
0.453828
0.488388
0.524298
0.561532
0.600075
0.639926
0.681096
0.723602
0.767467
0.812714
0.859367
0.907449
0.956979
1.00797
1.06045
1.1144
1.16985
1.22677
1.28517
1.34501
1.40628
1.46893
1.53293
1.59823
1.66476
1.73246
1.80126
1.87108
1.94185
2.01347
2.08586
2.15892
2.23256
2.30667
2.38116
2.45593
2.53086
2.60586
2.68081
2.75558
2.83006
2.9041
2.97757
3.0503
3.12215
3.19271
3.26182
3.32938
3.39528
3.45944
3.52176
3.58214
3.64048
3.69668
3.75065
3.8023
3.85155
3.89832
3.94254
3.98415
4.0231
4.05933
4.09278
4.12342
4.15123
4.1762
4.19832
4.2176
4.23407
4.24774
4.25865
4.26685
4.27237
4.2753
4.2757
4.27365
4.26922
4.2625
4.2536
4.2426
4.2296
4.2147
4.198
4.17959
4.15957
4.1381
4.11528
4.09121
4.066
4.03976
4.01262
3.98476
3.9563
3.92739
3.8982
3.86892
3.83975
3.81092
3.78267
3.75527
3.72901
3.7042
3.68117
3.66026
3.64179
3.62608
3.61343
3.60403
3.59803
3.5954
3.59599
3.59942
3.60511
3.61224
3.6198
3.62661
3.63141
3.63293
3.62996
3.62145
3.60656
3.58469
3.55558
3.51922
3.47589
3.42605
3.37038
3.30963
3.24464
3.17625
3.10531
3.03259
2.95883
2.8847
2.81077
2.73755
2.66548
2.59491
2.52614
2.45942
2.39492
2.3328
2.27316
2.21608
2.1616
2.10973
2.0605
2.0139
1.96972
1.9279
1.88841
1.85121
1.81622
1.78339
1.75264
1.7239
1.69709
1.67214
1.64898
1.62754
1.60775
1.58955
1.57289
1.55771
1.54397
1.53161
1.52059
1.51087
1.5024
1.49513
1.48903
1.48404
1.48011
1.4772
1.47523
1.47415
1.47387
1.47431
1.47539
1.47699
1.47902
1.4814
1.48408
1.4871
1.49039
1.49333
0.085555
0.118726
0.144398
0.167182
0.189156
0.211281
0.234076
0.257862
0.282854
0.309197
0.336978
0.366243
0.397005
0.429253
0.462968
0.498126
0.534706
0.572697
0.612095
0.652907
0.695149
0.738846
0.784023
0.830711
0.878939
0.928738
0.980133
1.03315
1.0878
1.1441
1.20205
1.26166
1.32291
1.38578
1.45026
1.51629
1.58384
1.65284
1.72324
1.79496
1.86793
1.94205
2.01724
2.09341
2.17044
2.24824
2.32669
2.40569
2.48513
2.56488
2.64483
2.72487
2.80487
2.88471
2.96425
3.04334
3.12183
3.19954
3.27622
3.35149
3.42524
3.49736
3.56776
3.63633
3.70297
3.76757
3.83003
3.89023
3.94807
4.00345
4.05628
4.10649
4.154
4.19873
4.24063
4.27962
4.31564
4.34864
4.37858
4.40546
4.42925
4.44997
4.46762
4.48221
4.49377
4.50232
4.50792
4.51064
4.51053
4.50766
4.50211
4.49395
4.4833
4.47025
4.45489
4.43732
4.41764
4.39595
4.37235
4.34698
4.31995
4.29136
4.26134
4.22999
4.19747
4.16391
4.12946
4.09429
4.05857
4.0225
3.98629
3.95019
3.91447
3.87943
3.84539
3.81271
3.78179
3.75304
3.72689
3.70377
3.6841
3.66824
3.65649
3.649
3.64576
3.64655
3.65088
3.658
3.66687
3.67624
3.68469
3.69074
3.69295
3.68999
3.68077
3.6645
3.64071
3.60927
3.57037
3.52444
3.47212
3.41418
3.35149
3.28494
3.21539
3.1437
3.07065
2.99693
2.92319
2.84996
2.77772
2.70687
2.63774
2.57058
2.50562
2.44301
2.38288
2.32532
2.27038
2.2181
2.16849
2.12147
2.07688
2.03471
1.99492
1.95746
1.92228
1.88929
1.85843
1.82962
1.80277
1.77782
1.75469
1.73331
1.71361
1.69553
1.679
1.66396
1.65037
1.63817
1.6273
1.61771
1.60935
1.60218
1.59613
1.59115
1.58717
1.58414
1.58198
1.58061
1.57994
1.57987
1.58031
1.58112
1.58221
1.58348
1.5849
1.58658
1.5886
1.59068
0.0881529
0.121332
0.1472
0.170188
0.192359
0.214684
0.237692
0.261706
0.286937
0.31352
0.341543
0.371053
0.40207
0.434598
0.468631
0.504164
0.541191
0.579714
0.619741
0.661289
0.704384
0.749054
0.795336
0.843265
0.89288
0.944217
0.997309
1.05218
1.10887
1.16737
1.22772
1.28989
1.35389
1.4197
1.48729
1.55662
1.62764
1.70028
1.77448
1.85015
1.9272
2.00554
2.08507
2.16568
2.24726
2.32968
2.41282
2.49656
2.58077
2.66531
2.75007
2.83491
2.91971
3.00432
3.08861
3.17241
3.25556
3.33786
3.41885
3.49838
3.57632
3.65256
3.727
3.79953
3.87002
3.93839
4.00452
4.06828
4.12955
4.18824
4.24424
4.29749
4.34788
4.39536
4.43984
4.48127
4.51954
4.55458
4.58638
4.6149
4.64013
4.66205
4.68066
4.696
4.70802
4.71677
4.72231
4.72469
4.72395
4.72018
4.71343
4.70379
4.69136
4.67623
4.65848
4.63823
4.61556
4.59058
4.5634
4.53414
4.50291
4.46984
4.43503
4.39862
4.36073
4.32153
4.28116
4.23978
4.19759
4.15479
4.11161
4.06829
4.02514
3.98246
3.94062
3.90002
3.8611
3.82435
3.79027
3.75941
3.73232
3.70953
3.69149
3.67858
3.67097
3.66863
3.67123
3.67812
3.6883
3.70045
3.71303
3.72431
3.73258
3.73622
3.73385
3.72441
3.70721
3.68196
3.64873
3.6079
3.56007
3.50602
3.44664
3.38286
3.31561
3.24577
3.17417
3.10158
3.02867
2.95604
2.8842
2.81358
2.74455
2.6774
2.61237
2.54965
2.48937
2.43165
2.37654
2.32411
2.27436
2.2271
2.18231
2.13998
2.10007
2.06253
2.02729
1.99428
1.96342
1.93464
1.90786
1.88298
1.85995
1.83867
1.81909
1.80113
1.78472
1.7698
1.75631
1.74419
1.73339
1.72383
1.71547
1.70823
1.70206
1.69689
1.69265
1.68925
1.68663
1.68469
1.68333
1.68244
1.6819
1.68158
1.68136
1.68116
1.68096
1.68095
1.68138
1.68238
0.0901669
0.123193
0.149111
0.172172
0.194411
0.216796
0.239863
0.263935
0.289221
0.315857
0.34393
0.373493
0.404576
0.437195
0.471362
0.507085
0.544375
0.583248
0.623726
0.665836
0.709612
0.755096
0.80233
0.85136
0.902231
0.954989
1.00967
1.06632
1.12496
1.1856
1.24827
1.31296
1.37967
1.44838
1.51906
1.59166
1.66612
1.74237
1.82034
1.89991
1.98101
2.06352
2.14731
2.23228
2.3183
2.40522
2.49292
2.58123
2.67002
2.75913
2.84844
2.9378
3.02707
3.1161
3.20474
3.29283
3.3802
3.46644
3.55126
3.63453
3.71613
3.79596
3.87389
3.94982
4.02363
4.09522
4.16449
4.23128
4.29546
4.35693
4.4156
4.47139
4.52421
4.57396
4.6206
4.66407
4.70419
4.74091
4.77421
4.80406
4.83041
4.85326
4.87259
4.88841
4.9007
4.9095
4.91483
4.91675
4.9153
4.91054
4.90254
4.89137
4.87713
4.85989
4.83976
4.81683
4.79119
4.76296
4.73225
4.69917
4.66383
4.62635
4.58687
4.5455
4.50239
4.4577
4.41156
4.36416
4.3157
4.26637
4.21642
4.1661
4.11572
4.0656
4.01614
3.96776
3.92093
3.8762
3.83414
3.79541
3.76066
3.73058
3.70583
3.68697
3.67442
3.66839
3.66877
3.67506
3.68635
3.70132
3.71829
3.73533
3.75041
3.76159
3.76713
3.76566
3.75625
3.73839
3.71202
3.67742
3.63516
3.58604
3.53094
3.47084
3.40671
3.3395
3.27008
3.19928
3.12783
3.05636
2.98544
2.91554
2.84705
2.78032
2.7156
2.6531
2.59299
2.5354
2.4804
2.42806
2.3783
2.33102
2.28623
2.24392
2.20405
2.16656
2.1314
2.09848
2.06772
2.03905
2.01238
1.98763
1.96471
1.94356
1.92408
1.90621
1.88988
1.87501
1.86154
1.84941
1.83853
1.82886
1.82031
1.81282
1.80632
1.80073
1.79596
1.79194
1.78857
1.78575
1.78338
1.78133
1.77947
1.77768
1.77581
1.77379
1.77163
1.76959
1.76812
1.76781
0.0916699
0.124422
0.150271
0.17329
0.195482
0.217806
0.240799
0.264788
0.289981
0.316515
0.344481
0.373941
0.404936
0.437496
0.471648
0.507416
0.544828
0.583913
0.624709
0.667257
0.711604
0.757798
0.805894
0.855948
0.908014
0.962146
1.01839
1.07679
1.13737
1.20016
1.26517
1.33241
1.40185
1.47349
1.54729
1.62319
1.70113
1.78102
1.86275
1.94624
2.03136
2.11798
2.20599
2.29524
2.38558
2.47688
2.56898
2.66167
2.7548
2.84821
2.94175
3.03527
3.12862
3.22162
3.31413
3.40599
3.4969
3.58648
3.67453
3.76093
3.84558
3.92836
4.00915
4.08784
4.16433
4.2385
4.3103
4.37952
4.44598
4.50964
4.5704
4.62816
4.68285
4.73437
4.78263
4.82758
4.86908
4.90707
4.94149
4.97231
4.99948
5.02296
5.04275
5.05883
5.07119
5.07984
5.08481
5.08614
5.08386
5.07802
5.0687
5.05595
5.03987
5.02053
4.99802
4.97244
4.94389
4.91248
4.87831
4.8415
4.80217
4.76044
4.71644
4.67031
4.62218
4.57222
4.52057
4.46742
4.41297
4.35743
4.30103
4.24405
4.18678
4.12958
4.07283
4.01697
3.96251
3.91002
3.86014
3.81358
3.77112
3.73358
3.70179
3.67655
3.65853
3.64822
3.64577
3.65094
3.66297
3.68058
3.70202
3.72514
3.74762
3.76712
3.78152
3.7891
3.78858
3.77925
3.76085
3.73358
3.69794
3.65472
3.60484
3.54928
3.48909
3.42525
3.35871
3.29034
3.22093
3.15116
3.08166
3.01293
2.94541
2.87947
2.81542
2.75347
2.69383
2.63664
2.58199
2.52995
2.48035
2.43325
2.38863
2.3465
2.3068
2.26949
2.2345
2.20176
2.17117
2.14266
2.11614
2.09152
2.06872
2.04765
2.02824
2.01041
1.99407
1.97915
1.96558
1.95328
1.94218
1.9322
1.92327
1.91531
1.90823
1.90196
1.8964
1.89147
1.88705
1.88304
1.87933
1.8758
1.8723
1.86869
1.86485
1.86069
1.85625
1.85187
1.84823
1.84639
0.0927305
0.125124
0.150805
0.173685
0.195729
0.217888
0.240698
0.264486
0.289464
0.315772
0.343507
0.372741
0.403527
0.435913
0.469939
0.505648
0.543084
0.582294
0.623332
0.666254
0.711121
0.757992
0.806934
0.858011
0.91129
0.966831
1.02469
1.08492
1.14753
1.21256
1.28001
1.34989
1.42218
1.49685
1.57387
1.65317
1.73468
1.81827
1.90383
1.99124
2.08038
2.1711
2.26325
2.35668
2.45122
2.54672
2.64303
2.73985
2.83702
2.93438
3.03176
3.129
3.22591
3.32235
3.41813
3.51304
3.60671
3.69898
3.78957
3.8784
3.96538
4.05039
4.13332
4.21405
4.29248
4.3685
4.44201
4.51287
4.58093
4.64611
4.70832
4.76745
4.82341
4.87612
4.92549
4.97143
5.01384
5.05264
5.08777
5.11916
5.14678
5.17058
5.19053
5.20661
5.2188
5.22711
5.23154
5.23212
5.22889
5.22188
5.21117
5.1968
5.17885
5.1574
5.13254
5.10436
5.07296
5.03846
5.00095
4.96055
4.91739
4.87159
4.82329
4.77261
4.71973
4.66477
4.60792
4.54936
4.48928
4.42791
4.36548
4.30227
4.23857
4.17473
4.11115
4.04828
3.98662
3.92676
3.86939
3.81526
3.76522
3.72022
3.68125
3.64932
3.62538
3.6102
3.60428
3.60769
3.6199
3.63977
3.66554
3.69488
3.72514
3.7536
3.77769
3.79525
3.80468
3.80493
3.79558
3.77667
3.74866
3.71229
3.66851
3.61834
3.56286
3.50311
3.44011
3.37479
3.30798
3.24044
3.17283
3.10571
3.03956
2.97479
2.91173
2.85065
2.79175
2.73521
2.68115
2.62953
2.58032
2.53356
2.48928
2.44746
2.40806
2.37103
2.3363
2.30379
2.27341
2.24509
2.21872
2.19422
2.1715
2.15048
2.13106
2.11316
2.0967
2.0816
2.06778
2.05515
2.04364
2.03315
2.02361
2.01493
2.00703
1.99981
1.99317
1.98703
1.98126
1.97576
1.97041
1.96508
1.95963
1.95391
1.94779
1.94121
1.93422
1.92725
1.92117
1.91761
0.0934124
0.125388
0.150825
0.173483
0.195295
0.217201
0.239737
0.26323
0.287896
0.31388
0.341289
0.370206
0.400699
0.432831
0.466664
0.502257
0.539674
0.57898
0.620248
0.663552
0.708968
0.756568
0.806428
0.858624
0.913231
0.97032
1.02995
1.09218
1.15703
1.22449
1.29459
1.36731
1.44264
1.52054
1.60095
1.68382
1.76906
1.85647
1.94593
2.03731
2.13046
2.22523
2.32144
2.41891
2.51746
2.61692
2.7172
2.8178
2.91862
3.01947
3.12018
3.22055
3.32041
3.41959
3.51787
3.61484
3.71042
3.80446
3.89677
3.98723
4.07573
4.16217
4.24642
4.3284
4.40798
4.48506
4.55955
4.63132
4.70025
4.76624
4.8292
4.88902
4.94563
4.99892
5.0488
5.0952
5.138
5.17713
5.21251
5.24407
5.27175
5.29551
5.3153
5.3311
5.34287
5.3506
5.35431
5.35399
5.34968
5.34141
5.32922
5.31319
5.29336
5.26981
5.24264
5.21192
5.17776
5.14027
5.09956
5.05574
5.00893
4.95928
4.9069
4.85196
4.7946
4.73499
4.67329
4.60969
4.5444
4.47764
4.40965
4.34069
4.27108
4.20116
4.1313
4.06197
3.99367
3.92698
3.86261
3.80133
3.74405
3.6918
3.6457
3.60694
3.57673
3.55618
3.54614
3.54706
3.55876
3.58033
3.61006
3.64553
3.68377
3.72165
3.75611
3.7845
3.8048
3.81564
3.81634
3.80678
3.78735
3.75876
3.72194
3.67797
3.62795
3.573
3.51419
3.45251
3.38885
3.32404
3.25878
3.19369
3.1293
3.06605
3.0043
2.94437
2.88648
2.83083
2.77754
2.72653
2.67787
2.63163
2.58782
2.54644
2.50743
2.47076
2.43634
2.4041
2.37396
2.34581
2.31958
2.29516
2.27246
2.2514
2.23188
2.2138
2.19709
2.18166
2.16741
2.15426
2.14212
2.13091
2.12052
2.11089
2.1019
2.09346
2.08547
2.07783
2.07043
2.06315
2.05588
2.04847
2.04078
2.03269
2.02405
2.0148
2.00504
1.99525
1.98653
1.98106
0.0937756
0.125298
0.150429
0.172798
0.194306
0.215888
0.238076
0.261201
0.285482
0.311072
0.33809
0.366633
0.396787
0.428634
0.462256
0.497736
0.535155
0.574602
0.616169
0.659954
0.706053
0.754544
0.805512
0.859044
0.915224
0.974131
1.03583
1.10039
1.1678
1.23803
1.3111
1.38699
1.46566
1.54705
1.63111
1.71776
1.80696
1.89832
1.99176
2.08714
2.18428
2.28301
2.38312
2.48441
2.58668
2.68973
2.79334
2.8972
3.00109
3.10482
3.20816
3.31092
3.41291
3.51393
3.61357
3.71176
3.80842
3.90339
3.99654
4.08774
4.17688
4.26386
4.34858
4.43092
4.5108
4.58812
4.66277
4.73466
4.80367
4.86971
4.93269
4.99251
5.04908
5.10231
5.1521
5.19837
5.24102
5.27997
5.31512
5.3464
5.37375
5.3971
5.4164
5.43162
5.44271
5.44965
5.45243
5.45106
5.44554
5.43591
5.42219
5.40445
5.38274
5.35712
5.32768
5.29451
5.2577
5.21735
5.17359
5.12653
5.0763
5.02302
4.96685
4.90793
4.84643
4.7825
4.71633
4.64811
4.57805
4.50637
4.43332
4.35916
4.2842
4.20878
4.13327
4.05811
3.98381
3.91094
3.84019
3.77234
3.70833
3.64922
3.59622
3.5507
3.51408
3.48777
3.47302
3.47071
3.4811
3.50363
3.53676
3.57802
3.62423
3.6718
3.71714
3.75709
3.7891
3.81144
3.82313
3.82387
3.81395
3.79401
3.76499
3.72799
3.68418
3.63471
3.58071
3.52324
3.46328
3.40168
3.33922
3.27656
3.21429
3.15289
3.09277
3.03426
2.97763
2.9231
2.87072
2.82051
2.77258
2.727
2.68379
2.64294
2.60441
2.56815
2.53408
2.50213
2.47221
2.44423
2.41808
2.39368
2.37093
2.34973
2.32998
2.31159
2.29448
2.27853
2.26367
2.2498
2.23683
2.22466
2.2132
2.20236
2.19203
2.18211
2.17251
2.16312
2.15383
2.14451
2.13505
2.12532
2.11517
2.10447
2.0931
2.08101
2.06829
2.05552
2.04399
2.03644
0.0938756
0.124924
0.149704
0.171728
0.192876
0.214075
0.235859
0.258563
0.28241
0.307566
0.334164
0.362318
0.392136
0.423721
0.457182
0.492629
0.530161
0.569892
0.611941
0.656432
0.70349
0.753191
0.805618
0.860874
0.919048
0.980219
1.04446
1.11187
1.18234
1.25583
1.33234
1.41184
1.49426
1.57952
1.66752
1.75816
1.85129
1.94665
2.04408
2.14339
2.24439
2.34686
2.45059
2.55534
2.66088
2.76698
2.87339
2.97983
3.08605
3.19182
3.2969
3.40109
3.50417
3.60575
3.7058
3.80426
3.90102
3.99597
4.08899
4.17996
4.26877
4.35534
4.43957
4.52136
4.60063
4.67729
4.75125
4.82242
4.8907
4.956
5.01824
5.07732
5.13316
5.18566
5.23474
5.28029
5.32224
5.36048
5.39492
5.42548
5.45208
5.47465
5.49314
5.50748
5.51764
5.52356
5.52524
5.52266
5.51582
5.50474
5.48945
5.46998
5.4464
5.41875
5.38712
5.35159
5.31225
5.26921
5.22259
5.1725
5.11907
5.06244
5.00276
4.94019
4.87488
4.80702
4.73678
4.66437
4.59
4.5139
4.43631
4.35751
4.27779
4.19748
4.11697
4.03667
3.95706
3.87872
3.8023
3.72858
3.65847
3.59306
3.53362
3.4816
3.43861
3.40633
3.3864
3.38017
3.38841
3.41101
3.44676
3.49329
3.54722
3.60453
3.66111
3.71317
3.75763
3.79229
3.81585
3.82778
3.82823
3.8178
3.7974
3.76815
3.73125
3.68792
3.63936
3.58667
3.53091
3.473
3.41377
3.35395
3.29416
3.23494
3.17673
3.1199
3.06477
3.01154
2.96023
2.91099
2.86394
2.81915
2.77664
2.73641
2.69841
2.6626
2.62891
2.59725
2.56753
2.53966
2.51354
2.48908
2.46617
2.44471
2.4246
2.40576
2.38807
2.37144
2.35578
2.34099
2.32697
2.31363
2.30087
2.28858
2.27668
2.26505
2.2536
2.24222
2.2308
2.21922
2.20737
2.19511
2.18231
2.16884
2.15458
2.13949
2.1237
2.10782
2.09336
2.0836
0.0937657
0.124331
0.148722
0.170358
0.1911
0.211874
0.233216
0.255467
0.278861
0.303578
0.32977
0.357575
0.387127
0.418551
0.451992
0.487603
0.525489
0.565795
0.608673
0.654277
0.702789
0.754247
0.808721
0.866333
0.927169
0.991295
1.05876
1.12959
1.20372
1.28107
1.3616
1.44523
1.53185
1.62135
1.71359
1.8084
1.90562
2.00499
2.10632
2.20937
2.31393
2.41976
2.52662
2.63424
2.74239
2.85079
2.95918
3.06727
3.1748
3.28153
3.38719
3.49153
3.59424
3.69531
3.79469
3.89232
3.98811
4.08197
4.17379
4.26347
4.35092
4.43606
4.5188
4.59907
4.67678
4.75186
4.82423
4.89382
4.96054
5.0243
5.08503
5.14264
5.19704
5.24815
5.29588
5.34014
5.38083
5.41785
5.4511
5.48051
5.50597
5.52742
5.54477
5.55796
5.56694
5.57165
5.57205
5.56814
5.55988
5.5473
5.5304
5.50922
5.4838
5.4542
5.42047
5.38271
5.341
5.29545
5.24617
5.19329
5.13693
5.07724
5.01437
4.94848
4.87974
4.80833
4.73445
4.65831
4.5801
4.50009
4.4185
4.33562
4.25174
4.16719
4.08233
3.99758
3.9134
3.83033
3.74901
3.67018
3.59472
3.52372
3.45844
3.40037
3.35126
3.31301
3.2876
3.27685
3.28209
3.30381
3.34126
3.39228
3.45343
3.52033
3.58829
3.65288
3.71038
3.75809
3.79432
3.81828
3.82994
3.82983
3.81883
3.79808
3.7688
3.73227
3.68975
3.64241
3.59136
3.5376
3.48202
3.42541
3.36845
3.31171
3.2557
3.20081
3.14738
3.0956
3.04556
2.99746
2.95143
2.90753
2.86581
2.82625
2.78883
2.75349
2.72017
2.68877
2.65921
2.6314
2.60524
2.58061
2.55743
2.5356
2.515
2.49554
2.47711
2.45963
2.44298
2.42707
2.41181
2.39708
2.3828
2.36887
2.35518
2.34163
2.32813
2.31456
2.30082
2.2868
2.27238
2.25744
2.24185
2.22548
2.20823
2.19006
2.17112
2.15207
2.13459
2.12252
0.0934965
0.123574
0.147548
0.168761
0.189062
0.209383
0.230266
0.252061
0.275019
0.299341