/*--------------------------------*- C++ -*----------------------------------*\
  =========                 |
  \\      /  F ield         | OpenFOAM: The Open Source CFD Toolbox
   \\    /   O peration     | Website:  https://openfoam.org
    \\  /    A nd           | Version:  7
     \\/     M anipulation  |
\*---------------------------------------------------------------------------*/
FoamFile
{
    version     2.0;
    format      ascii;
    class       volScalarField;
    location    "650";
    object      nut;
}
// * * * * * * * * * * * * * * * * * * * * * * * * * * * * * * * * * * * * * //

dimensions      [0 2 -1 0 0 0 0];

internalField   nonuniform List<scalar> 
16900
(
2.04517e-05
5.22817e-05
7.79434e-05
0.000100969
0.000121119
0.000138443
0.000153049
0.000165066
0.000174645
0.00018214
0.000188322
0.000194465
0.000201455
0.000199484
4.38432e-05
4.51667e-05
4.77036e-05
4.96272e-05
5.14453e-05
5.32528e-05
5.50481e-05
5.683e-05
5.85989e-05
6.03558e-05
6.21013e-05
6.38364e-05
6.55616e-05
6.72771e-05
6.89832e-05
7.06796e-05
7.23661e-05
7.40424e-05
7.5708e-05
7.73622e-05
7.90042e-05
8.06333e-05
8.22486e-05
8.38491e-05
8.54339e-05
8.70018e-05
8.85519e-05
9.0083e-05
9.15938e-05
9.30833e-05
9.45501e-05
9.5993e-05
9.74106e-05
9.88017e-05
0.000100165
0.000101498
0.000102801
0.000104072
0.000105309
0.00010651
0.000107676
0.000108804
0.000109894
0.000110944
0.000111956
0.000112929
0.000113865
0.000114768
0.000115643
0.000116478
0.000117265
0.000118006
0.0001187
0.000119349
0.000119952
0.00012051
0.000121023
0.000121492
0.000121916
0.000122298
0.000122638
0.000122937
0.000123196
0.000123416
0.000123598
0.000123745
0.000123857
0.000123937
0.000123986
0.000124007
0.000124
0.000123969
0.000123914
0.000123839
0.000123746
0.000123636
0.000123512
0.000123376
0.000123229
0.000123075
0.000122915
0.000122752
0.000122586
0.00012242
0.000122256
0.000122096
0.000121942
0.000121794
0.000121656
0.000121528
0.000121412
0.000121311
0.000121224
0.000121155
0.000121105
0.000121075
0.000121066
0.000121081
0.00012112
0.000121185
0.000121276
0.000121394
0.000121538
0.000121708
0.000121904
0.000122124
0.000122357
0.000122611
0.000122875
0.000123126
0.000123369
0.000123601
0.000123786
0.000124068
0.000124681
0.000125305
0.00012587
0.000126347
0.000126718
0.000126969
0.000127088
0.000127068
0.000126904
0.000126595
0.000126144
0.000125556
0.000124841
0.000124006
0.000123065
0.000122029
0.00012091
0.00011972
0.000118473
0.000117178
0.000115846
0.000114487
0.00011311
0.000111721
0.000110329
0.000108938
0.000107555
0.000106182
0.000104826
0.000103488
0.000102171
0.000100878
9.9611e-05
9.83712e-05
9.71603e-05
9.59794e-05
9.48295e-05
9.37115e-05
9.2622e-05
9.15882e-05
9.05976e-05
8.96427e-05
8.87192e-05
8.78246e-05
8.69575e-05
8.61172e-05
8.53036e-05
8.45165e-05
8.3756e-05
8.30222e-05
8.23155e-05
8.16361e-05
8.09844e-05
8.03607e-05
7.97656e-05
7.91996e-05
7.86632e-05
7.81574e-05
7.76829e-05
7.72406e-05
7.68315e-05
7.64569e-05
7.61179e-05
7.5816e-05
7.55527e-05
7.53296e-05
7.51487e-05
7.50119e-05
7.49214e-05
7.48779e-05
7.48746e-05
7.48668e-05
3.82009e-05
0.000112077
0.000154177
0.000184994
0.000210432
0.000231471
0.00024813
0.000260113
0.000266977
0.00026845
0.000264973
0.000258158
0.000249872
0.000237631
0.000211694
0.000222542
0.00024225
0.000256694
0.000269049
0.00028155
0.000294257
0.000307095
0.000320028
0.000333045
0.000346149
0.000359348
0.000372649
0.000386059
0.000399587
0.000413236
0.000427012
0.000440915
0.000454948
0.00046911
0.000483399
0.000497812
0.000512347
0.000526997
0.000541758
0.000556623
0.000571585
0.000586636
0.000601767
0.000616968
0.000632228
0.000647536
0.000662877
0.000678237
0.000693599
0.000708943
0.00072425
0.000739495
0.000754652
0.000769691
0.000784582
0.000799287
0.000813769
0.000827984
0.000841885
0.00085542
0.000868532
0.000881155
0.000893059
0.000904188
0.000914889
0.0009252
0.00093512
0.000944643
0.000953762
0.000962471
0.000970762
0.00097863
0.000986071
0.000993082
0.000999662
0.00100581
0.00101153
0.00101682
0.00102169
0.00102615
0.00103021
0.00103387
0.00103716
0.00104008
0.00104265
0.00104489
0.00104682
0.00104847
0.00104984
0.00105097
0.00105188
0.0010526
0.00105315
0.00105355
0.00105384
0.00105404
0.00105418
0.00105429
0.0010544
0.00105453
0.00105472
0.00105499
0.00105538
0.00105592
0.00105664
0.00105758
0.00105875
0.00106021
0.00106199
0.00106411
0.00106663
0.00106956
0.00107296
0.00107685
0.00108125
0.0010862
0.00109171
0.00109778
0.00110443
0.00111162
0.00111928
0.00112741
0.00113589
0.0011445
0.00115298
0.00116104
0.00116793
0.00117176
0.00117337
0.00117344
0.00117212
0.00116933
0.00116499
0.00115897
0.00115123
0.00114173
0.0011305
0.0011176
0.00110314
0.00108727
0.00107013
0.00105193
0.00103283
0.00101304
0.000992735
0.000972091
0.000951266
0.000930406
0.00090964
0.00088908
0.000868824
0.000848953
0.000829538
0.000810634
0.000792288
0.000774538
0.000757413
0.000740935
0.000725121
0.000709986
0.000695537
0.000681783
0.000668731
0.000656389
0.000644773
0.000633917
0.000623893
0.000614065
0.000604561
0.000595465
0.000586837
0.000578714
0.000571121
0.000564069
0.000557568
0.000551618
0.000546218
0.000541364
0.000537053
0.00053328
0.000530038
0.000527324
0.000525132
0.000523456
0.000522294
0.000521639
0.000521486
0.000521831
0.000522668
0.00052399
0.000525791
0.000528066
0.000530808
0.000534014
0.000537683
0.000541813
0.000546382
0.000551295
0.000556027
0.000559682
5.25409e-05
0.000153968
0.000212963
0.000251554
0.000281573
0.00030616
0.000326086
0.000341596
0.000352992
0.000361048
0.000367367
0.000374321
0.000383837
0.000395386
0.000407655
0.000429414
0.000454741
0.000480219
0.000505258
0.000530319
0.000555524
0.000580888
0.000606417
0.000632122
0.000658019
0.000684124
0.000710452
0.000737017
0.00076383
0.000790899
0.000818228
0.000845819
0.00087367
0.000901776
0.000930131
0.000958726
0.000987547
0.00101658
0.00104582
0.00107523
0.0011048
0.00113452
0.00116435
0.00119428
0.00122428
0.00125431
0.00128435
0.00131437
0.00134433
0.00137419
0.00140391
0.00143344
0.00146273
0.00149172
0.00152035
0.00154855
0.00157626
0.00160341
0.0016299
0.00165567
0.00168063
0.00170469
0.00172741
0.00174914
0.00177003
0.00179012
0.00180941
0.00182788
0.00184553
0.00186234
0.0018783
0.00189339
0.0019076
0.00192093
0.00193338
0.00194494
0.00195562
0.00196542
0.00197435
0.00198243
0.00198966
0.00199608
0.0020017
0.00200656
0.00201067
0.00201409
0.00201684
0.00201896
0.00202049
0.00202148
0.00202198
0.00202202
0.00202167
0.00202098
0.00201998
0.00201875
0.00201732
0.00201576
0.00201413
0.00201248
0.00201088
0.00200937
0.00200804
0.00200693
0.00200612
0.00200569
0.00200569
0.00200621
0.00200733
0.00200913
0.00201168
0.00201508
0.00201941
0.00202476
0.00203118
0.00203878
0.00204758
0.00205762
0.00206895
0.00208149
0.00209518
0.00210996
0.00212551
0.00214153
0.00215764
0.00217331
0.00218763
0.00219925
0.00220809
0.00221434
0.00221791
0.00221857
0.00221604
0.00221007
0.00220049
0.00218722
0.00217029
0.00214982
0.00212602
0.00209918
0.00206964
0.00203776
0.00200394
0.00196858
0.00193206
0.00189474
0.00185695
0.00181899
0.00178115
0.00174365
0.00170669
0.00167045
0.00163508
0.00160069
0.00156739
0.00153525
0.00150433
0.0014747
0.00144637
0.00141938
0.00139376
0.00136951
0.00134666
0.00132523
0.00130526
0.00128687
0.00126939
0.00125269
0.00123681
0.00122179
0.00120767
0.00119448
0.00118224
0.00117097
0.00116066
0.00115132
0.00114292
0.00113548
0.00112896
0.00112336
0.00111866
0.00111485
0.00111191
0.00110983
0.00110859
0.00110818
0.00110856
0.00110974
0.00111167
0.00111434
0.00111772
0.00112179
0.00112651
0.00113188
0.00113788
0.00114451
0.00115172
0.00115937
0.00116675
0.0011723
6.41223e-05
0.000185655
0.000259455
0.000306079
0.000341133
0.000370065
0.000394774
0.000416207
0.000435241
0.000453039
0.00047121
0.000491579
0.000515217
0.000541746
0.000570603
0.000602918
0.000637177
0.000672229
0.000707407
0.000742674
0.000778079
0.00081366
0.000849447
0.000885468
0.000921745
0.000958303
0.00099516
0.00103233
0.00106983
0.00110765
0.00114581
0.0011843
0.00122312
0.00126225
0.00130167
0.00134138
0.00138134
0.00142154
0.00146195
0.00150253
0.00154327
0.00158412
0.00162504
0.00166601
0.00170698
0.00174791
0.00178876
0.00182947
0.00187001
0.00191032
0.00195034
0.00199001
0.00202927
0.00206805
0.00210627
0.00214386
0.00218073
0.0022168
0.00225198
0.00228618
0.00231931
0.00235121
0.00238164
0.00241087
0.00243898
0.002466
0.00249192
0.00251673
0.00254041
0.00256294
0.0025843
0.00260448
0.00262346
0.00264124
0.00265781
0.00267316
0.0026873
0.00270023
0.00271197
0.00272251
0.0027319
0.00274014
0.00274728
0.00275334
0.00275836
0.00276239
0.00276547
0.00276765
0.00276898
0.00276953
0.00276934
0.0027685
0.00276705
0.00276508
0.00276264
0.00275981
0.00275666
0.00275327
0.00274971
0.00274608
0.00274245
0.00273891
0.00273554
0.00273245
0.00272973
0.00272749
0.00272582
0.00272485
0.0027247
0.00272549
0.00272736
0.00273043
0.00273485
0.00274074
0.00274825
0.00275752
0.00276861
0.00278162
0.00279667
0.00281362
0.00283241
0.0028529
0.00287487
0.00289793
0.00292158
0.00294515
0.00296773
0.00298825
0.00300612
0.00302097
0.00303236
0.00303977
0.00304271
0.00304076
0.00303361
0.00302111
0.00300326
0.00298022
0.00295228
0.00291983
0.00288336
0.0028434
0.00280052
0.00275528
0.00270824
0.00265992
0.0026108
0.00256132
0.00251187
0.00246279
0.00241438
0.00236688
0.00232052
0.00227547
0.00223187
0.00218984
0.00214948
0.00211085
0.00207402
0.00203903
0.00200589
0.00197465
0.00194533
0.00191795
0.00189263
0.00186892
0.00184646
0.00182526
0.00180529
0.00178656
0.00176907
0.00175281
0.00173779
0.00172399
0.00171141
0.00170002
0.0016898
0.00168074
0.00167281
0.00166599
0.00166025
0.00165557
0.00165192
0.00164927
0.0016476
0.00164687
0.00164704
0.00164808
0.00164994
0.00165259
0.00165597
0.00166003
0.00166475
0.00167007
0.00167597
0.00168245
0.00168949
0.00169695
0.00170417
0.00170948
7.38609e-05
0.000210975
0.000297746
0.000352476
0.000393075
0.000426965
0.000457146
0.000485154
0.000512145
0.000539262
0.000567727
0.000598672
0.000632641
0.000669336
0.000708218
0.00074907
0.000791224
0.000834077
0.000877203
0.000920487
0.000963932
0.00100757
0.00105143
0.00109556
0.00113997
0.00118468
0.00122973
0.00127513
0.00132087
0.00136698
0.00141343
0.00146023
0.00150737
0.00155482
0.00160256
0.00165058
0.00169883
0.00174728
0.0017959
0.00184465
0.00189348
0.00194236
0.00199124
0.00204007
0.00208881
0.0021374
0.00218579
0.00223392
0.00228175
0.00232921
0.00237625
0.00242279
0.00246877
0.00251412
0.00255876
0.00260262
0.0026456
0.00268763
0.00272862
0.00276849
0.00280717
0.00284428
0.00287996
0.00291431
0.00294738
0.00297919
0.00300972
0.00303895
0.00306685
0.00309342
0.00311862
0.00314243
0.00316484
0.00318584
0.0032054
0.00322353
0.00324021
0.00325546
0.00326928
0.00328168
0.00329268
0.0033023
0.00331058
0.00331755
0.00332324
0.00332771
0.003331
0.00333317
0.00333427
0.00333437
0.00333355
0.00333185
0.00332938
0.00332619
0.00332238
0.00331802
0.0033132
0.00330801
0.00330255
0.00329692
0.00329122
0.00328555
0.00328002
0.00327476
0.00326988
0.00326553
0.00326183
0.00325895
0.00325703
0.00325625
0.00325678
0.00325881
0.00326255
0.00326816
0.00327584
0.00328583
0.00329826
0.00331321
0.00333083
0.00335111
0.00337402
0.00339945
0.00342715
0.00345673
0.00348765
0.00351916
0.00355034
0.00358014
0.00360768
0.00363215
0.00365274
0.00366865
0.00367913
0.00368355
0.00368145
0.00367257
0.00365689
0.00363454
0.00360589
0.00357143
0.00353175
0.00348754
0.00343952
0.00338839
0.00333487
0.0032796
0.0032232
0.00316622
0.00310916
0.00305244
0.00299644
0.00294148
0.00288782
0.0028357
0.00278528
0.00273672
0.00269014
0.00264563
0.00260324
0.00256305
0.00252507
0.00248934
0.00245587
0.00242473
0.00239575
0.0023684
0.00234263
0.00231844
0.00229576
0.00227458
0.00225486
0.00223655
0.00221965
0.0022041
0.00218989
0.00217698
0.00216534
0.00215493
0.00214573
0.00213769
0.00213079
0.00212499
0.00212024
0.00211653
0.00211379
0.00211198
0.00211107
0.00211099
0.00211168
0.00211309
0.00211516
0.00211782
0.00212101
0.00212469
0.00212882
0.0021334
0.00213843
0.00214383
0.0021491
0.00215285
8.21242e-05
0.000231673
0.000329945
0.000392659
0.000439079
0.000478161
0.000513848
0.000548129
0.000582287
0.000617336
0.000654133
0.000693321
0.000735119
0.000779262
0.000825276
0.000872742
0.000921197
0.000970237
0.00101958
0.00106912
0.00111883
0.00116874
0.00121888
0.00126927
0.00131995
0.00137093
0.00142224
0.00147389
0.00152588
0.00157822
0.00163089
0.00168388
0.00173719
0.00179077
0.00184461
0.00189867
0.00195292
0.00200731
0.00206181
0.00211636
0.00217092
0.00222543
0.00227986
0.00233413
0.00238821
0.00244203
0.00249555
0.00254869
0.00260142
0.00265366
0.00270535
0.00275645
0.00280687
0.00285655
0.00290543
0.00295342
0.00300045
0.00304645
0.00309132
0.00313498
0.00317732
0.00321808
0.0032574
0.00329534
0.00333193
0.00336717
0.00340103
0.00343349
0.00346453
0.00349412
0.00352222
0.00354882
0.00357388
0.0035974
0.00361934
0.00363969
0.00365845
0.00367561
0.00369117
0.00370513
0.00371751
0.00372834
0.00373762
0.00374539
0.0037517
0.00375658
0.00376008
0.00376226
0.00376317
0.00376287
0.00376145
0.00375897
0.00375552
0.00375117
0.00374601
0.00374014
0.00373365
0.00372663
0.0037192
0.00371147
0.00370354
0.00369556
0.00368763
0.0036799
0.00367253
0.00366565
0.00365945
0.00365411
0.00364981
0.00364677
0.0036452
0.00364535
0.00364749
0.00365183
0.00365864
0.00366818
0.00368067
0.00369632
0.0037153
0.00373774
0.00376365
0.00379299
0.00382556
0.00386099
0.00389873
0.00393801
0.00397788
0.00401722
0.00405488
0.00408974
0.00412063
0.00414643
0.00416609
0.00417876
0.00418377
0.00418073
0.00416954
0.00415034
0.00412352
0.00408965
0.00404945
0.00400373
0.00395333
0.00389913
0.00384195
0.00378258
0.00372175
0.00366012
0.00359826
0.00353669
0.00347584
0.0034161
0.00335777
0.00330112
0.00324636
0.00319366
0.00314315
0.00309494
0.0030491
0.00300568
0.0029647
0.00292621
0.0028902
0.00285669
0.00282509
0.00279534
0.00276739
0.00274119
0.00271668
0.00269379
0.00267248
0.00265268
0.00263433
0.0026174
0.00260182
0.00258756
0.00257457
0.00256281
0.00255224
0.00254281
0.00253449
0.00252722
0.00252097
0.00251569
0.00251133
0.00250783
0.00250514
0.00250318
0.00250191
0.00250124
0.00250111
0.00250144
0.00250216
0.00250322
0.00250457
0.00250621
0.00250818
0.00251049
0.00251283
0.00251435
8.91139e-05
0.000248687
0.000357209
0.000427623
0.000479898
0.000524128
0.000565023
0.00060493
0.000645204
0.000686733
0.000730121
0.000775708
0.00082353
0.000873326
0.000924694
0.000977235
0.00103058
0.00108442
0.00113855
0.00119289
0.00124739
0.00130208
0.00135698
0.00141211
0.0014675
0.00152316
0.00157913
0.00163539
0.00169196
0.00174884
0.00180601
0.00186347
0.00192118
0.00197912
0.00203727
0.00209558
0.00215401
0.00221251
0.00227105
0.00232957
0.00238802
0.00244634
0.00250448
0.00256239
0.00262001
0.00267729
0.00273416
0.00279058
0.00284648
0.00290182
0.00295653
0.00301056
0.00306385
0.00311634
0.00316797
0.00321867
0.00326837
0.003317
0.00336449
0.00341076
0.00345558
0.00349894
0.00354089
0.00358148
0.0036207
0.00365854
0.00369497
0.00372998
0.00376352
0.00379555
0.00382604
0.00385497
0.00388228
0.00390796
0.00393198
0.0039543
0.00397492
0.00399382
0.00401099
0.00402642
0.00404012
0.0040521
0.00406238
0.00407097
0.00407792
0.00408325
0.00408702
0.00408926
0.00409004
0.00408942
0.00408746
0.00408424
0.00407985
0.00407436
0.00406786
0.00406046
0.00405224
0.00404332
0.00403381
0.00402383
0.00401351
0.00400298
0.00399237
0.00398185
0.00397158
0.00396174
0.00395252
0.00394413
0.00393679
0.00393076
0.00392629
0.00392366
0.00392319
0.00392516
0.0039299
0.00393775
0.00394903
0.00396404
0.00398306
0.00400632
0.00403397
0.00406605
0.00410244
0.00414287
0.00418682
0.00423354
0.00428204
0.00433109
0.00437934
0.00442535
0.00446761
0.00450465
0.00453509
0.00455777
0.00457179
0.00457658
0.00457193
0.00455794
0.00453503
0.00450384
0.0044652
0.00442005
0.00436937
0.00431416
0.0042554
0.00419399
0.00413077
0.0040665
0.00400184
0.00393739
0.00387363
0.003811
0.00374986
0.00369048
0.00363311
0.00357794
0.00352511
0.00347473
0.00342687
0.00338157
0.00333886
0.00329875
0.00326127
0.00322602
0.00319275
0.00316144
0.00313204
0.00310448
0.00307867
0.00305453
0.00303199
0.00301097
0.0029914
0.00297322
0.00295636
0.00294077
0.00292639
0.00291318
0.00290109
0.00289007
0.00288008
0.00287106
0.00286297
0.00285575
0.00284936
0.00284373
0.00283879
0.00283449
0.00283074
0.00282748
0.00282462
0.00282209
0.0028198
0.0028177
0.00281573
0.0028139
0.00281227
0.00281095
0.0028099
0.00280895
9.49736e-05
0.000262617
0.000380262
0.000457971
0.000515946
0.000565101
0.000610756
0.000655558
0.00070092
0.000747648
0.000796184
0.000846698
0.000899125
0.00095321
0.00100861
0.00106497
0.001122
0.00117944
0.00123715
0.00129503
0.00135306
0.00141125
0.0014696
0.00152814
0.00158689
0.00164588
0.00170511
0.00176459
0.00182433
0.00188432
0.00194456
0.00200502
0.00206568
0.00212652
0.0021875
0.00224859
0.00230973
0.0023709
0.00243203
0.00249308
0.00255399
0.00261471
0.00267519
0.00273537
0.0027952
0.00285461
0.00291356
0.002972
0.00302986
0.00308711
0.00314368
0.00319953
0.00325461
0.00330887
0.00336225
0.0034147
0.00346615
0.00351654
0.00356581
0.00361385
0.00366049
0.00370579
0.00374975
0.0037924
0.00383372
0.00387368
0.00391226
0.00394941
0.0039851
0.00401927
0.00405188
0.0040829
0.00411227
0.00413996
0.00416593
0.00419013
0.00421255
0.00423315
0.00425191
0.00426882
0.00428386
0.00429705
0.00430838
0.00431787
0.00432554
0.00433141
0.00433552
0.00433792
0.00433866
0.00433778
0.00433537
0.00433148
0.00432619
0.0043196
0.00431178
0.00430284
0.00429288
0.004282
0.00427032
0.00425797
0.00424509
0.00423181
0.00421829
0.00420469
0.00419118
0.00417797
0.00416528
0.00415332
0.00414235
0.00413265
0.0041245
0.00411824
0.0041142
0.00411276
0.00411431
0.00411926
0.00412803
0.00414105
0.00415872
0.00418141
0.0042094
0.00424289
0.00428192
0.00432632
0.00437568
0.00442931
0.0044862
0.00454504
0.0046043
0.00466222
0.00471694
0.0047666
0.00480944
0.00484391
0.00486881
0.00488335
0.00488716
0.00488027
0.00486312
0.00483641
0.00480107
0.00475817
0.00470885
0.00465424
0.00459546
0.00453355
0.00446945
0.00440402
0.00433802
0.0042721
0.00420682
0.00414265
0.00407998
0.00401914
0.00396038
0.0039039
0.00384985
0.00379833
0.00374942
0.00370315
0.00365953
0.00361855
0.00358009
0.00354371
0.00350938
0.00347706
0.00344667
0.00341813
0.00339134
0.0033662
0.00334263
0.00332053
0.00329981
0.00328041
0.00326226
0.00324529
0.00322944
0.00321467
0.00320092
0.00318815
0.00317629
0.00316531
0.00315515
0.00314576
0.00313708
0.00312905
0.0031216
0.00311466
0.00310817
0.00310203
0.00309617
0.0030905
0.00308493
0.0030794
0.00307384
0.00306828
0.0030628
0.00305762
0.003053
0.00304954
9.98228e-05
0.000273899
0.000399623
0.000484137
0.000547528
0.000601276
0.000651185
0.000700157
0.000749678
0.00080051
0.000853004
0.000907239
0.000963101
0.00102035
0.00107868
0.0011378
0.00119745
0.00125744
0.00131763
0.00137795
0.00143838
0.0014989
0.00155954
0.00162031
0.00168123
0.00174233
0.00180361
0.00186508
0.00192675
0.00198862
0.00205067
0.00211289
0.00217526
0.00223776
0.00230035
0.002363
0.00242567
0.00248831
0.00255088
0.00261332
0.00267558
0.00273762
0.00279938
0.0028608
0.00292183
0.00298242
0.00304252
0.00310207
0.00316103
0.00321935
0.00327698
0.00333388
0.00339002
0.00344533
0.00349979
0.00355334
0.00360593
0.0036575
0.003708
0.0037573
0.00380536
0.00385219
0.00389779
0.00394215
0.00398526
0.00402706
0.00406753
0.00410661
0.00414425
0.0041804
0.00421501
0.00424801
0.00427936
0.00430901
0.00433689
0.00436297
0.0043872
0.00440953
0.00442993
0.00444838
0.00446485
0.00447933
0.00449181
0.0045023
0.0045108
0.00451732
0.0045219
0.00452458
0.00452538
0.00452437
0.00452159
0.00451712
0.00451103
0.0045034
0.00449432
0.00448388
0.00447219
0.00445934
0.00444547
0.0044307
0.00441517
0.00439904
0.00438246
0.00436559
0.00434863
0.00433179
0.00431528
0.00429937
0.0042843
0.00427038
0.00425793
0.00424731
0.00423892
0.00423316
0.00423052
0.00423147
0.00423655
0.00424629
0.00426124
0.00428193
0.00430882
0.0043423
0.00438259
0.00442974
0.00448348
0.00454325
0.00460807
0.00467661
0.00474715
0.00481765
0.00488589
0.00494955
0.0050064
0.00505446
0.00509214
0.00511833
0.00513247
0.0051345
0.00512483
0.00510421
0.0050737
0.00503451
0.00498791
0.00493521
0.00487766
0.00481643
0.0047526
0.00468713
0.00462086
0.0045545
0.00448869
0.00442394
0.00436068
0.00429926
0.00423994
0.00418294
0.00412841
0.00407645
0.00402713
0.00398047
0.00393645
0.00389506
0.00385587
0.0038188
0.0037838
0.00375079
0.00371969
0.00369039
0.00366279
0.00363677
0.00361224
0.00358909
0.00356724
0.0035466
0.00352711
0.0035087
0.00349131
0.00347488
0.00345936
0.0034447
0.00343086
0.00341778
0.00340541
0.0033937
0.00338258
0.003372
0.00336189
0.00335218
0.00334279
0.00333364
0.00332464
0.0033157
0.00330673
0.00329765
0.00328839
0.00327898
0.00326954
0.00326042
0.00325219
0.00324624
0.00010377
0.000282882
0.000415708
0.000506485
0.000574924
0.00063287
0.000686509
0.000738968
0.000791816
0.000845808
0.000901253
0.000958188
0.00101648
0.00107591
0.00113621
0.00119712
0.00125843
0.00131998
0.00138166
0.0014434
0.00150517
0.00156697
0.00162882
0.00169072
0.00175272
0.00181481
0.00187703
0.00193937
0.00200186
0.00206449
0.00212726
0.00219015
0.00225316
0.00231626
0.00237942
0.00244262
0.00250581
0.00256897
0.00263204
0.00269497
0.00275772
0.00282024
0.00288248
0.00294438
0.00300589
0.00306695
0.00312753
0.00318757
0.00324702
0.00330583
0.00336398
0.00342142
0.0034781
0.00353401
0.00358909
0.00364331
0.00369663
0.003749
0.00380036
0.00385066
0.00389989
0.00394802
0.00399503
0.0040409
0.0040856
0.00412908
0.0041713
0.00421219
0.00425169
0.00428974
0.00432627
0.00436122
0.00439452
0.00442612
0.00445594
0.00448392
0.00451
0.00453413
0.00455624
0.00457632
0.0045943
0.00461019
0.00462394
0.00463555
0.00464501
0.00465232
0.00465751
0.00466059
0.0046616
0.00466059
0.00465759
0.00465266
0.00464588
0.00463733
0.00462708
0.00461524
0.0046019
0.00458718
0.00457117
0.00455404
0.0045359
0.00451692
0.00449725
0.00447706
0.00445656
0.00443594
0.00441545
0.00439534
0.00437588
0.0043574
0.00434022
0.00432475
0.0043114
0.00430064
0.004293
0.00428905
0.0042894
0.00429471
0.00430567
0.00432298
0.00434731
0.00437927
0.00441934
0.00446781
0.00452465
0.0045895
0.00466151
0.00473937
0.00482123
0.0049048
0.00498747
0.00506642
0.00513887
0.00520231
0.00525465
0.00529441
0.00532074
0.00533345
0.0053329
0.00531991
0.00529564
0.00526143
0.00521874
0.00516905
0.00511376
0.00505419
0.00499154
0.00492688
0.00486114
0.00479513
0.00472952
0.00466489
0.00460168
0.00454029
0.00448099
0.004424
0.00436949
0.00431754
0.0042682
0.00422149
0.00417738
0.00413567
0.00409609
0.0040586
0.00402314
0.00398963
0.00395795
0.003928
0.00389965
0.00387279
0.00384731
0.00382311
0.00380009
0.00377818
0.00375729
0.00373737
0.00371836
0.00370019
0.00368282
0.00366621
0.00365029
0.00363502
0.00362036
0.00360624
0.00359261
0.0035794
0.00356655
0.00355399
0.00354164
0.00352941
0.00351721
0.00350494
0.00349251
0.00347982
0.00346681
0.00345351
0.00344007
0.00342698
0.00341514
0.00340676
0.000106915
0.000289865
0.000428873
0.000525345
0.000598411
0.000660125
0.000716969
0.000772274
0.000827697
0.000884015
0.000941527
0.00100026
0.00106008
0.00112079
0.00118216
0.00124396
0.00130601
0.00136818
0.00143038
0.00149254
0.00155465
0.00161671
0.00167873
0.00174073
0.00180274
0.00186479
0.0019269
0.00198909
0.00205137
0.00211376
0.00217625
0.00223885
0.00230155
0.00236434
0.00242719
0.00249009
0.00255301
0.0026159
0.00267873
0.00274146
0.00280404
0.00286642
0.00292855
0.00299038
0.00305185
0.00311291
0.00317352
0.00323362
0.00329316
0.00335211
0.00341042
0.00346805
0.00352498
0.00358117
0.00363659
0.00369121
0.00374499
0.0037979
0.00384997
0.00390115
0.00395139
0.00400068
0.00404897
0.00409623
0.00414241
0.00418747
0.00423135
0.00427397
0.00431527
0.00435517
0.00439359
0.00443047
0.00446572
0.00449927
0.00453105
0.00456098
0.00458897
0.00461495
0.00463886
0.00466065
0.00468026
0.00469765
0.00471279
0.00472566
0.00473622
0.00474446
0.0047504
0.00475404
0.00475542
0.00475456
0.0047515
0.00474629
0.004739
0.0047297
0.00471847
0.0047054
0.00469058
0.00467412
0.00465614
0.00463677
0.00461615
0.00459442
0.00457175
0.00454831
0.0045243
0.00449993
0.00447543
0.00445107
0.00442712
0.00440392
0.00438181
0.0043612
0.00434254
0.00432633
0.00431315
0.00430361
0.00429842
0.00429835
0.00430421
0.00431689
0.00433727
0.00436621
0.00440448
0.00445266
0.00451108
0.00457964
0.00465774
0.00474417
0.00483705
0.00493389
0.00503166
0.00512702
0.00521657
0.00529711
0.00536599
0.00542121
0.00546159
0.00548672
0.00549691
0.005493
0.00547628
0.00544825
0.00541055
0.00536483
0.00531268
0.00525557
0.00519484
0.00513168
0.00506712
0.00500204
0.00493718
0.00487317
0.00481049
0.00474956
0.00469067
0.00463405
0.00457985
0.00452818
0.00447907
0.0044325
0.00438842
0.0043465
0.00430669
0.00426893
0.00423313
0.00419919
0.00416699
0.00413641
0.00410733
0.00407961
0.00405315
0.00402786
0.00400362
0.00398037
0.00395803
0.00393654
0.00391584
0.00389587
0.0038766
0.00385796
0.00383991
0.0038224
0.00380539
0.00378882
0.00377262
0.00375674
0.00374111
0.00372566
0.0037103
0.00369494
0.0036795
0.00366387
0.00364795
0.00363163
0.00361485
0.00359763
0.0035802
0.00356314
0.00354771
0.00353693
0.000109352
0.000295114
0.000439438
0.000541021
0.000618259
0.000683288
0.000742819
0.000800355
0.000857654
0.000915531
0.000974297
0.00103399
0.00109449
0.00115561
0.00121716
0.00127895
0.00134083
0.00140268
0.00146442
0.00152602
0.00158747
0.00164876
0.00170993
0.00177101
0.00183203
0.00189302
0.00195403
0.00201509
0.00207621
0.00213743
0.00219877
0.00226022
0.0023218
0.0023835
0.00244531
0.00250723
0.00256922
0.00263126
0.0026933
0.00275532
0.00281726
0.00287907
0.0029407
0.0030021
0.00306322
0.00312398
0.00318435
0.00324427
0.00330369
0.00336255
0.00342082
0.00347847
0.00353546
0.00359176
0.00364735
0.0037022
0.00375628
0.00380968
0.0038624
0.00391439
0.00396559
0.00401595
0.00406544
0.00411401
0.00416161
0.00420817
0.00425365
0.00429795
0.004341
0.0043827
0.00442299
0.00446177
0.00449896
0.00453447
0.00456822
0.00460013
0.00463007
0.00465795
0.00468372
0.0047073
0.00472861
0.00474762
0.00476427
0.00477851
0.0047903
0.00479963
0.00480649
0.00481088
0.0048128
0.00481229
0.00480938
0.00480409
0.0047965
0.00478667
0.00477467
0.00476058
0.0047445
0.00472653
0.00470678
0.00468538
0.00466248
0.0046382
0.00461272
0.00458621
0.00455886
0.00453088
0.00450251
0.004474
0.00444565
0.00441777
0.00439073
0.00436494
0.00434085
0.00431899
0.00429996
0.00428443
0.00427316
0.00426701
0.00426692
0.00427391
0.00428909
0.00431356
0.00434842
0.00439462
0.00445287
0.00452348
0.00460618
0.00470002
0.0048032
0.0049131
0.00502632
0.00513895
0.00524688
0.00534616
0.00543338
0.00550594
0.0055622
0.00560149
0.00562399
0.0056306
0.00562269
0.00560196
0.00557024
0.00552938
0.00548115
0.0054272
0.00536903
0.00530794
0.00524506
0.00518138
0.00511769
0.00505467
0.00499286
0.00493268
0.00487446
0.00481844
0.00476476
0.00471352
0.00466475
0.00461841
0.00457434
0.00453234
0.00449238
0.0044544
0.0044183
0.00438395
0.00435122
0.00432
0.00429014
0.00426152
0.00423404
0.00420758
0.00418208
0.00415743
0.00413358
0.00411046
0.00408801
0.00406619
0.00404495
0.00402424
0.00400402
0.00398423
0.00396482
0.00394575
0.00392695
0.00390836
0.00388991
0.00387153
0.00385313
0.00383462
0.00381591
0.00379688
0.00377744
0.00375747
0.00373691
0.00371579
0.00369436
0.00367335
0.00365436
0.0036412
0.00011117
0.000298867
0.000447691
0.000553793
0.000634722
0.000702592
0.000764281
0.000823446
0.000881941
0.000940634
0.000999862
0.00105968
0.00112
0.00118066
0.00124149
0.00130234
0.00136308
0.00142362
0.00148391
0.00154392
0.00160366
0.00166316
0.00172245
0.00178157
0.00184059
0.00189955
0.00195851
0.00201752
0.00207662
0.00213586
0.00219525
0.00225483
0.00231462
0.00237462
0.00243484
0.00249526
0.00255587
0.00261664
0.00267754
0.00273853
0.00279955
0.00286056
0.00292149
0.00298229
0.0030429
0.00310325
0.00316327
0.00322292
0.00328212
0.00334083
0.003399
0.00345659
0.00351357
0.0035699
0.00362557
0.00368056
0.00373494
0.00378887
0.00384227
0.00389505
0.00394716
0.00399856
0.0040492
0.00409901
0.00414796
0.00419597
0.00424299
0.00428892
0.00433366
0.00437711
0.00441921
0.00445986
0.00449895
0.0045364
0.0045721
0.00460596
0.00463785
0.00466767
0.00469535
0.00472078
0.00474389
0.00476461
0.00478287
0.00479861
0.00481179
0.00482236
0.00483031
0.00483563
0.0048383
0.00483835
0.00483579
0.00483065
0.004823
0.00481287
0.00480034
0.00478548
0.00476839
0.00474917
0.00472792
0.00470476
0.00467984
0.00465328
0.00462526
0.00459595
0.00456553
0.00453421
0.00450223
0.00446983
0.0044373
0.00440497
0.00437318
0.00434235
0.00431294
0.00428547
0.00426056
0.0042389
0.0042213
0.00420865
0.004202
0.00420251
0.00421145
0.00423019
0.00426013
0.00430262
0.00435883
0.00442955
0.00451501
0.00461465
0.00472691
0.00484917
0.00497774
0.00510816
0.00523553
0.00535499
0.00546226
0.00555398
0.00562793
0.00568308
0.00571947
0.00573799
0.00574013
0.00572778
0.00570298
0.0056678
0.00562422
0.00557407
0.005519
0.00546047
0.00539971
0.0053378
0.00527561
0.00521388
0.00515318
0.00509398
0.0050366
0.00498131
0.00492825
0.00487752
0.00482913
0.00478302
0.00473896
0.00469693
0.00465686
0.00461867
0.00458224
0.00454745
0.00451416
0.00448223
0.00445154
0.00442196
0.00439338
0.00436571
0.00433886
0.00431276
0.00428733
0.00426252
0.00423828
0.00421456
0.00419131
0.00416848
0.00414603
0.00412391
0.00410207
0.00408046
0.00405901
0.00403767
0.00401636
0.00399501
0.00397353
0.00395184
0.00392982
0.00390738
0.0038844
0.00386078
0.00383644
0.00381143
0.00378603
0.0037611
0.00373856
0.00372304
0.000112453
0.000301339
0.000453894
0.000563912
0.000648019
0.000718222
0.000781513
0.00084168
0.000900672
0.000959414
0.00101828
0.00107736
0.00113659
0.00119584
0.00125497
0.00131386
0.00137242
0.00143059
0.00148834
0.00154567
0.00160263
0.00165925
0.00171561
0.00177177
0.00182781
0.00188381
0.00193984
0.00199598
0.0020523
0.00210885
0.00216569
0.00222285
0.00228035
0.00233823
0.00239649
0.00245511
0.00251409
0.0025734
0.002633
0.00269285
0.00275288
0.00281303
0.00287325