/*--------------------------------*- C++ -*----------------------------------*\
  =========                 |
  \\      /  F ield         | OpenFOAM: The Open Source CFD Toolbox
   \\    /   O peration     | Website:  https://openfoam.org
    \\  /    A nd           | Version:  7
     \\/     M anipulation  |
\*---------------------------------------------------------------------------*/
FoamFile
{
    version     2.0;
    format      ascii;
    class       volScalarField;
    location    "650";
    object      p;
}
// * * * * * * * * * * * * * * * * * * * * * * * * * * * * * * * * * * * * * //

dimensions      [0 2 -2 0 0 0 0];

internalField   nonuniform List<scalar> 
16900
(
-21.7648
-21.769
-21.7766
-21.787
-21.7999
-21.8152
-21.833
-21.8533
-21.8761
-21.9017
-21.9302
-21.9609
-21.9923
-22.0283
-22.0717
-22.1147
-22.1488
-22.1831
-22.2236
-22.2657
-22.3085
-22.3518
-22.3952
-22.4386
-22.4817
-22.5245
-22.5668
-22.6083
-22.6489
-22.6883
-22.7264
-22.7627
-22.7972
-22.8294
-22.8591
-22.886
-22.9097
-22.9299
-22.9463
-22.9584
-22.9659
-22.9684
-22.9656
-22.957
-22.9423
-22.921
-22.8928
-22.8574
-22.8144
-22.7634
-22.7041
-22.6363
-22.5597
-22.4741
-22.3792
-22.2751
-22.1616
-22.0386
-21.9062
-21.7645
-21.6136
-21.4536
-21.2848
-21.1072
-20.9213
-20.7275
-20.5262
-20.3178
-20.1026
-19.8812
-19.654
-19.4213
-19.1837
-18.9415
-18.6953
-18.4454
-18.1921
-17.936
-17.6773
-17.4165
-17.1537
-16.8892
-16.6234
-16.3563
-16.0882
-15.8192
-15.5493
-15.2788
-15.0074
-14.7354
-14.4625
-14.1888
-13.9141
-13.6384
-13.3613
-13.0829
-12.8029
-12.521
-12.2372
-11.9511
-11.6627
-11.3715
-11.0776
-10.7806
-10.4804
-10.1768
-9.86977
-9.55911
-9.24476
-8.92668
-8.60488
-8.2794
-7.95027
-7.61766
-7.28174
-6.94268
-6.6008
-6.25643
-5.9099
-5.56175
-5.21247
-4.86282
-4.51369
-4.1652
-3.81903
-3.47799
-3.14083
-2.80702
-2.48076
-2.16568
-1.86345
-1.57585
-1.30477
-1.05203
-0.819284
-0.607907
-0.418893
-0.252806
-0.109755
0.0106068
0.109047
0.1867
0.244995
0.285586
0.310264
0.320897
0.319356
0.307469
0.286976
0.259505
0.226545
0.18944
0.149384
0.107424
0.0644618
0.0212697
-0.0215074
-0.063332
-0.103771
-0.142476
-0.17918
-0.213679
-0.245833
-0.275548
-0.302776
-0.327493
-0.349674
-0.369312
-0.386454
-0.40117
-0.413529
-0.423597
-0.431444
-0.437138
-0.440749
-0.442347
-0.442
-0.439776
-0.435739
-0.429952
-0.422473
-0.413359
-0.402663
-0.390434
-0.37672
-0.361568
-0.345022
-0.327132
-0.307946
-0.287524
-0.265934
-0.243261
-0.219609
-0.19512
-0.169965
-0.144355
-0.11852
-0.092515
-0.0661266
-0.0389756
-21.7603
-21.7651
-21.7708
-21.7786
-21.7892
-21.8026
-21.8186
-21.837
-21.8576
-21.8803
-21.9048
-21.9311
-21.9627
-21.9986
-22.033
-22.0673
-22.1113
-22.1593
-22.2027
-22.2452
-22.2878
-22.3306
-22.3735
-22.4163
-22.4589
-22.5012
-22.5429
-22.5839
-22.6241
-22.6631
-22.7008
-22.7369
-22.7711
-22.8031
-22.8328
-22.8596
-22.8834
-22.9038
-22.9204
-22.9328
-22.9408
-22.9438
-22.9417
-22.9338
-22.92
-22.8998
-22.8727
-22.8386
-22.7969
-22.7474
-22.6898
-22.6237
-22.5489
-22.4652
-22.3724
-22.2704
-22.159
-22.0383
-21.9082
-21.7688
-21.6202
-21.4625
-21.2958
-21.1203
-20.9365
-20.7448
-20.5454
-20.3388
-20.1255
-19.9057
-19.6801
-19.4489
-19.2127
-18.9719
-18.7268
-18.478
-18.2258
-17.9706
-17.7127
-17.4525
-17.1904
-16.9265
-16.6612
-16.3946
-16.127
-15.8584
-15.5889
-15.3188
-15.0479
-14.7763
-14.5039
-14.2307
-13.9566
-13.6815
-13.4053
-13.1277
-12.8486
-12.5678
-12.2851
-12.0004
-11.7133
-11.4237
-11.1315
-10.8363
-10.538
-10.2366
-9.93172
-9.62342
-9.31157
-8.99611
-8.67706
-8.35444
-8.02831
-7.69877
-7.36604
-7.03024
-6.69169
-6.35075
-6.00764
-5.66302
-5.31725
-4.971
-4.62553
-4.2798
-3.93498
-3.59483
-3.25963
-2.9299
-2.60836
-2.29726
-1.99829
-1.71318
-1.44377
-1.19181
-0.958914
-0.74642
-0.555336
-0.386269
-0.239392
-0.114453
-0.0107926
0.0726026
0.13704
0.184048
0.215304
0.23257
0.237624
0.232215
0.218021
0.196617
0.169455
0.137855
0.102993
0.0659083
0.0275039
-0.0114453
-0.0502833
-0.0884625
-0.125533
-0.161133
-0.194976
-0.226843
-0.256577
-0.284067
-0.309239
-0.332028
-0.352408
-0.370407
-0.386066
-0.399424
-0.41053
-0.419439
-0.42621
-0.430904
-0.433584
-0.434314
-0.433159
-0.43018
-0.425441
-0.418998
-0.41091
-0.40123
-0.39001
-0.3773
-0.363147
-0.347598
-0.330702
-0.312508
-0.293073
-0.272458
-0.250741
-0.228016
-0.204402
-0.180054
-0.155172
-0.129996
-0.104831
-0.0797946
-0.0553142
-0.0323566
-21.7537
-21.7621
-21.7695
-21.7771
-21.7873
-21.8003
-21.816
-21.8342
-21.8549
-21.8782
-21.904
-21.9323
-21.9641
-21.9986
-22.0328
-22.0667
-22.1047
-22.1464
-22.1877
-22.2292
-22.2709
-22.3128
-22.3547
-22.3966
-22.4384
-22.4798
-22.5208
-22.5611
-22.6006
-22.639
-22.6761
-22.7117
-22.7455
-22.7772
-22.8065
-22.8332
-22.8569
-22.8773
-22.8939
-22.9066
-22.9149
-22.9184
-22.9168
-22.9096
-22.8966
-22.8773
-22.8514
-22.8185
-22.7782
-22.7302
-22.6742
-22.6099
-22.537
-22.4553
-22.3646
-22.2648
-22.1557
-22.0373
-21.9096
-21.7726
-21.6265
-21.4712
-21.3068
-21.1336
-20.9521
-20.7625
-20.5653
-20.3608
-20.1494
-19.9316
-19.7077
-19.4783
-19.2437
-19.0044
-18.7608
-18.5133
-18.2623
-18.0083
-17.7515
-17.4923
-17.2311
-16.968
-16.7035
-16.4377
-16.1708
-15.9029
-15.6342
-15.3647
-15.0945
-14.8237
-14.5521
-14.2798
-14.0066
-13.7325
-13.4574
-13.181
-12.9032
-12.6239
-12.3427
-12.0597
-11.7744
-11.4868
-11.1967
-10.9038
-10.608
-10.3091
-10.0071
-9.70175
-9.39306
-9.08093
-8.76542
-8.44657
-8.12438
-7.79899
-7.47071
-7.13955
-6.8059
-6.47031
-6.13266
-5.79396
-5.45432
-5.11373
-4.77411
-4.43512
-4.09734
-3.76362
-3.43359
-3.10752
-2.78844
-2.47874
-2.18025
-1.89477
-1.62408
-1.3699
-1.13381
-0.91718
-0.721048
-0.546094
-0.392593
-0.260407
-0.149009
-0.057517
0.0152411
0.0706699
0.110333
0.135891
0.149039
0.151457
0.14477
0.130514
0.110116
0.0848792
0.0559767
0.02445
-0.00879018
-0.0429547
-0.0773715
-0.111473
-0.144791
-0.176939
-0.207611
-0.236568
-0.263632
-0.28867
-0.311567
-0.332254
-0.350728
-0.367001
-0.381077
-0.392979
-0.402742
-0.410412
-0.416041
-0.419684
-0.421399
-0.421245
-0.419281
-0.415565
-0.410156
-0.40311
-0.39448
-0.38432
-0.372679
-0.359607
-0.345151
-0.32936
-0.312284
-0.293977
-0.274496
-0.253911
-0.232305
-0.209783
-0.186476
-0.162558
-0.138258
-0.113858
-0.0897788
-0.0662175
-0.0445694
-0.0261809
-21.7485
-21.7607
-21.7708
-21.7794
-21.7899
-21.8028
-21.8182
-21.8361
-21.8565
-21.8794
-21.9048
-21.9328
-21.9636
-21.9967
-22.0308
-22.0655
-22.1023
-22.1412
-22.181
-22.2213
-22.262
-22.303
-22.3441
-22.3852
-22.4262
-22.467
-22.5073
-22.5471
-22.586
-22.624
-22.6607
-22.696
-22.7296
-22.7611
-22.7903
-22.817
-22.8407
-22.8612
-22.8781
-22.8911
-22.8997
-22.9037
-22.9027
-22.8963
-22.884
-22.8656
-22.8407
-22.8088
-22.7697
-22.723
-22.6683
-22.6054
-22.5341
-22.4539
-22.3649
-22.2667
-22.1593
-22.0426
-21.9166
-21.7814
-21.637
-21.4832
-21.3203
-21.1486
-20.9686
-20.7804
-20.5846
-20.3814
-20.1713
-19.9547
-19.732
-19.5037
-19.2702
-19.0318
-18.7891
-18.5425
-18.2923
-18.039
-17.783
-17.5245
-17.2639
-17.0016
-16.7377
-16.4725
-16.2062
-15.939
-15.671
-15.4022
-15.1328
-14.8628
-14.5921
-14.3207
-14.0485
-13.7754
-13.5014
-13.2262
-12.9498
-12.6718
-12.3922
-12.1106
-11.8271
-11.5412
-11.2529
-10.962
-10.6683
-10.3716
-10.0718
-9.76886
-9.46266
-9.15311
-8.8403
-8.52435
-8.2051
-7.88277
-7.55789
-7.23014
-6.90003
-6.5685
-6.23457
-5.89906
-5.56309
-5.22645
-4.89045
-4.55515
-4.2212
-3.89069
-3.56366
-3.24059
-2.92389
-2.61573
-2.31797
-2.03244
-1.76093
-1.50517
-1.26676
-1.0471
-0.847271
-0.668023
-0.5097
-0.372247
-0.25522
-0.157828
-0.0789828
-0.0173632
0.0285199
0.060257
0.0794847
0.0878322
0.0868832
0.0781412
0.0630102
0.0427764
0.0186039
-0.00847103
-0.0375352
-0.0677964
-0.0985735
-0.129291
-0.159466
-0.188701
-0.216677
-0.243145
-0.267911
-0.29081
-0.3117
-0.330542
-0.34734
-0.36208
-0.374754
-0.385373
-0.393964
-0.400565
-0.405222
-0.407984
-0.408905
-0.408038
-0.405441
-0.401168
-0.395274
-0.387814
-0.378839
-0.3684
-0.356547
-0.343329
-0.328794
-0.312989
-0.295966
-0.277779
-0.258488
-0.238165
-0.216896
-0.194789
-0.171984
-0.148662
-0.125077
-0.10153
-0.0785658
-0.0563683
-0.0374417
-0.020721
-21.7467
-21.7619
-21.7742
-21.784
-21.7951
-21.8082
-21.8237
-21.8416
-21.8619
-21.8846
-21.9098
-21.9374
-21.9675
-21.9996
-22.0332
-22.0678
-22.1041
-22.1417
-22.1804
-22.2197
-22.2595
-22.2997
-22.34
-22.3805
-22.421
-22.4612
-22.5011
-22.5405
-22.5791
-22.6168
-22.6533
-22.6884
-22.7219
-22.7534
-22.7826
-22.8094
-22.8333
-22.854
-22.8712
-22.8845
-22.8936
-22.8981
-22.8976
-22.8918
-22.8803
-22.8626
-22.8385
-22.8075
-22.7694
-22.7237
-22.67
-22.6082
-22.538
-22.459
-22.371
-22.274
-22.1678
-22.0522
-21.9273
-21.7932
-21.6497
-21.4966
-21.3345
-21.1637
-20.9844
-20.797
-20.6018
-20.3994
-20.1899
-19.974
-19.7519
-19.5241
-19.2911
-19.0532
-18.811
-18.5649
-18.3152
-18.0623
-17.8067
-17.5487
-17.2886
-17.0267
-16.7634
-16.4988
-16.2331
-15.9665
-15.6991
-15.4311
-15.1625
-14.8933
-14.6235
-14.3531
-14.0819
-13.81
-13.5371
-13.2632
-12.988
-12.7114
-12.4332
-12.1532
-11.8712
-11.587
-11.3004
-11.0112
-10.7192
-10.4243
-10.1264
-9.82543
-9.52121
-9.21364
-8.90292
-8.58926
-8.27219
-7.95204
-7.6298
-7.30455
-6.97643
-6.64692
-6.31547
-5.98244
-5.64873
-5.31451
-4.98069
-4.64755
-4.31583
-3.98707
-3.66177
-3.34068
-3.02564
-2.71853
-2.42116
-2.13535
-1.86293
-1.60566
-1.3652
-1.14299
-0.94018
-0.757572
-0.595573
-0.454185
-0.33302
-0.231336
-0.148092
-0.0820132
-0.0316515
0.0045453
0.0281786
0.0408466
0.0441058
0.0394374
0.0282267
0.011746
-0.00885105
-0.0325347
-0.0583951
-0.0856407
-0.113589
-0.14166
-0.169366
-0.196302
-0.222146
-0.246646
-0.269581
-0.290746
-0.310034
-0.327433
-0.34292
-0.356467
-0.368059
-0.377703
-0.385417
-0.391236
-0.395198
-0.39735
-0.39774
-0.396419
-0.393441
-0.388857
-0.382721
-0.375083
-0.365995
-0.355504
-0.34366
-0.330509
-0.316098
-0.300474
-0.283687
-0.265788
-0.246839
-0.226908
-0.206081
-0.184463
-0.162193
-0.139452
-0.116501
-0.0936367
-0.0715004
-0.0501137
-0.0330503
-0.0148807
-21.7488
-21.766
-21.78
-21.791
-21.8027
-21.8163
-21.8321
-21.8501
-21.8705
-21.8932
-21.9182
-21.9456
-21.9751
-22.0066
-22.0395
-22.0737
-22.1093
-22.1461
-22.1838
-22.2223
-22.2613
-22.3008
-22.3406
-22.3805
-22.4205
-22.4604
-22.4999
-22.539
-22.5774
-22.615
-22.6514
-22.6865
-22.72
-22.7515
-22.7809
-22.8079
-22.832
-22.853
-22.8705
-22.8842
-22.8938
-22.8987
-22.8988
-22.8936
-22.8827
-22.8657
-22.8423
-22.8121
-22.7747
-22.7298
-22.677
-22.616
-22.5465
-22.4683
-22.3812
-22.2849
-22.1794
-22.0645
-21.9403
-21.8067
-21.6634
-21.5106
-21.3488
-21.1783
-20.9993
-20.8122
-20.6174
-20.4152
-20.206
-19.9902
-19.7683
-19.5407
-19.3079
-19.0703
-18.8283
-18.5823
-18.3329
-18.0803
-17.8249
-17.5673
-17.3075
-17.0461
-16.7832
-16.5191
-16.254
-15.988
-15.7214
-15.4542
-15.1864
-14.9181
-14.6493
-14.38
-14.11
-13.8392
-13.5676
-13.295
-13.0212
-12.746
-12.4692
-12.1907
-11.9102
-11.6275
-11.3425
-11.055
-10.7646
-10.4713
-10.1751
-9.87587
-9.57334
-9.26735
-8.95835
-8.64669
-8.33145
-8.01274
-7.6919
-7.36841
-7.04222
-6.71427
-6.38451
-6.05327
-5.72121
-5.3887
-5.05645
-4.72487
-4.39471
-4.06715
-3.7429
-3.42287
-3.10861
-2.8018
-2.50417
-2.21755
-1.94379
-1.6847
-1.442
-1.2172
-1.01153
-0.825864
-0.660654
-0.515953
-0.391407
-0.286305
-0.199627
-0.130116
-0.0763416
-0.0367681
-0.00980822
0.00612027
0.012561
0.010981
0.00275511
-0.0108556
-0.0287044
-0.0497691
-0.0731431
-0.0980391
-0.123774
-0.149768
-0.175529
-0.200655
-0.224827
-0.247777
-0.269238
-0.289017
-0.307065
-0.323357
-0.337846
-0.350496
-0.361288
-0.370225
-0.377322
-0.382607
-0.386114
-0.387887
-0.38797
-0.386412
-0.383261
-0.378569
-0.372384
-0.364756
-0.355732
-0.34536
-0.333685
-0.320751
-0.306604
-0.291287
-0.274847
-0.257334
-0.238805
-0.219322
-0.198967
-0.177837
-0.156067
-0.133822
-0.111363
-0.0889485
-0.0672965
-0.0460953
-0.0300229
-0.00809839
-21.7545
-21.773
-21.7881
-21.8
-21.8124
-21.8264
-21.8425
-21.8608
-21.8812
-21.904
-21.9289
-21.956
-21.985
-22.0159
-22.0483
-22.082
-22.1169
-22.1529
-22.1899
-22.2277
-22.2661
-22.305
-22.3443
-22.3838
-22.4235
-22.4631
-22.5024
-22.5414
-22.5797
-22.6172
-22.6536
-22.6888
-22.7224
-22.7541
-22.7837
-22.8109
-22.8353
-22.8566
-22.8745
-22.8886
-22.8986
-22.9041
-22.9047
-22.9
-22.8896
-22.8733
-22.8505
-22.8209
-22.7841
-22.7398
-22.6876
-22.6272
-22.5583
-22.4806
-22.394
-22.2981
-22.193
-22.0785
-21.9546
-21.8209
-21.6775
-21.5246
-21.3628
-21.1922
-21.0132
-20.8261
-20.6311
-20.4288
-20.2196
-20.0037
-19.7818
-19.5541
-19.3213
-19.0836
-18.8416
-18.5957
-18.3464
-18.0939
-17.8388
-17.5813
-17.3219
-17.0609
-16.7985
-16.5349
-16.2704
-16.0051
-15.7393
-15.4729
-15.2061
-14.9388
-14.6711
-14.4029
-14.1341
-13.8646
-13.5943
-13.3231
-13.0507
-12.777
-12.5017
-12.2246
-11.9457
-11.6645
-11.3811
-11.0951
-10.8062
-10.5144
-10.2196
-9.92206
-9.62111
-9.31643
-9.00869
-8.69816
-8.38434
-8.06714
-7.74743
-7.42507
-7.10014
-6.77327
-6.44457
-6.11446
-5.78345
-5.452
-5.12074
-4.79014
-4.46094
-4.1341
-3.81041
-3.49082
-3.17672
-2.86966
-2.57132
-2.28351
-2.00809
-1.74695
-1.50188
-1.27448
-1.06605
-0.877539
-0.709462
-0.561909
-0.434548
-0.326681
-0.237293
-0.165127
-0.108751
-0.0666277
-0.0371711
-0.0188012
-0.00997789
-0.00924002
-0.0152183
-0.0266585
-0.0424196
-0.0614855
-0.0829541
-0.106043
-0.13007
-0.154456
-0.178711
-0.202443
-0.22533
-0.247063
-0.267342
-0.286055
-0.303179
-0.31865
-0.332407
-0.344413
-0.354647
-0.363107
-0.369804
-0.374764
-0.378017
-0.379602
-0.37956
-0.377938
-0.374781
-0.370137
-0.364053
-0.356574
-0.347747
-0.337615
-0.326221
-0.313607
-0.299814
-0.284884
-0.268858
-0.251781
-0.233706
-0.214687
-0.194799
-0.174127
-0.152793
-0.130942
-0.108819
-0.0866178
-0.0651167
-0.0435271
-0.0277479
-0.000379035
-21.7632
-21.7825
-21.7982
-21.8108
-21.8237
-21.8381
-21.8545
-21.8729
-21.8934
-21.9161
-21.9408
-21.9676
-21.9962
-22.0266
-22.0584
-22.0915
-22.1258
-22.1613
-22.1977
-22.2349
-22.2728
-22.3113
-22.3502
-22.3895
-22.4289
-22.4683
-22.5076
-22.5465
-22.5848
-22.6224
-22.6589
-22.6942
-22.728
-22.76
-22.7898
-22.8173
-22.842
-22.8637
-22.882
-22.8965
-22.9069
-22.9128
-22.9139
-22.9097
-22.8998
-22.884
-22.8617
-22.8326
-22.7963
-22.7524
-22.7007
-22.6407
-22.5721
-22.4947
-22.4083
-22.3127
-22.2076
-22.0931
-21.9691
-21.835
-21.6911
-21.5379
-21.3758
-21.2049
-21.0256
-20.8381
-20.6429
-20.4403
-20.2307
-20.0146
-19.7924
-19.5645
-19.3314
-19.0936
-18.8515
-18.6055
-18.3562
-18.1038
-17.8488
-17.5916
-17.3325
-17.0718
-16.8099
-16.5469
-16.283
-16.0185
-15.7535
-15.4881
-15.2223
-14.9561
-14.6896
-14.4226
-14.1551
-13.887
-13.6181
-13.3483
-13.0775
-12.8053
-12.5315
-12.2559
-11.9785
-11.6989
-11.417
-11.1326
-10.8452
-10.5547
-10.2612
-9.96485
-9.66519
-9.36192
-9.05539
-8.74577
-8.43288
-8.1167
-7.79774
-7.47604
-7.15179
-6.82545
-6.49725
-6.16763
-5.83705
-5.50603
-5.17514
-4.84492
-4.51608
-4.18946
-3.86586
-3.54623
-3.23185
-2.92417
-2.6248
-2.33554
-2.05829
-1.79498
-1.54749
-1.31752
-1.10646
-0.915327
-0.744695
-0.594688
-0.464992
-0.354908
-0.263412
-0.189234
-0.130924
-0.0869343
-0.0556643
-0.0355291
-0.0249832
-0.0225662
-0.0269091
-0.0367628
-0.050989
-0.0685783
-0.0886326
-0.110375
-0.133125
-0.156307
-0.179438
-0.202142
-0.224067
-0.244838
-0.264216
-0.28217
-0.298636
-0.313533
-0.326792
-0.338376
-0.348258
-0.356438
-0.362922
-0.367733
-0.370897
-0.372451
-0.372433
-0.370886
-0.367853
-0.363379
-0.357507
-0.350282
-0.341746
-0.33194
-0.320904
-0.308676
-0.295295
-0.280796
-0.265218
-0.248599
-0.230984
-0.212421
-0.192973
-0.172709
-0.151737
-0.130168
-0.108231
-0.0860196
-0.0643791
-0.0419079
-0.0259359
0.00810856
-21.7745
-21.7939
-21.8097
-21.8228
-21.8361
-21.8508
-21.8673
-21.8858
-21.9063
-21.9288
-21.9533
-21.9798
-22.008
-22.0378
-22.0691
-22.1017
-22.1355
-22.1705
-22.2064
-22.2432
-22.2807
-22.3189
-22.3576
-22.3967
-22.436
-22.4753
-22.5146
-22.5535
-22.5919
-22.6296
-22.6664
-22.7019
-22.7359
-22.7681
-22.7983
-22.8261
-22.8511
-22.8731
-22.8918
-22.9067
-22.9175
-22.9238
-22.9253
-22.9215
-22.9121
-22.8966
-22.8747
-22.846
-22.81
-22.7665
-22.715
-22.6552
-22.5868
-22.5096
-22.4232
-22.3274
-22.2223
-22.1077
-21.983
-21.848
-21.7035
-21.5499
-21.3872
-21.2158
-21.036
-20.848
-20.6523
-20.4492
-20.2392
-20.0226
-19.8
-19.5717
-19.3384
-19.1003
-18.858
-18.6119
-18.3625
-18.1101
-17.8553
-17.5983
-17.3395
-17.0793
-16.8179
-16.5556
-16.2924
-16.0287
-15.7647
-15.5002
-15.2356
-14.9707
-14.7055
-14.4398
-14.1736
-13.907
-13.6396
-13.3713
-13.1021
-12.8316
-12.5594
-12.2853
-12.0094
-11.7314
-11.451
-11.168
-10.8821
-10.5931
-10.301
-10.0057
-9.70712
-9.40495
-9.09938
-8.7905
-8.47822
-8.16263
-7.84405
-7.5226
-7.19853
-6.87222
-6.54398
-6.21425
-5.88352
-5.55229
-5.22117
-4.89073
-4.56166
-4.23473
-3.91075
-3.59066
-3.27562
-2.967
-2.66636
-2.37549
-2.09628
-1.83076
-1.58086
-1.34838
-1.13482
-0.941277
-0.768372
-0.616266
-0.484652
-0.372824
-0.279735
-0.204091
-0.144415
-0.0991343
-0.0666294
-0.0453006
-0.0335915
-0.0300375
-0.0332666
-0.0420318
-0.0551971
-0.0717588
-0.0908234
-0.111619
-0.133466
-0.155797
-0.178149
-0.200142
-0.221348
-0.241388
-0.26015
-0.277607
-0.293649
-0.308188
-0.321153
-0.332505
-0.342217
-0.350286
-0.356714
-0.361524
-0.364738
-0.36639
-0.366515
-0.365154
-0.362347
-0.358136
-0.352562
-0.345668
-0.337491
-0.328071
-0.317445
-0.305646
-0.292709
-0.278666
-0.263551
-0.247393
-0.230232
-0.212104
-0.19306
-0.173151
-0.152464
-0.131075
-0.10918
-0.0867623
-0.0647331
-0.0409721
-0.0244764
0.0171478
-21.7875
-21.8067
-21.8224
-21.8357
-21.8492
-21.864
-21.8805
-21.8989
-21.9193
-21.9416
-21.9658
-21.9919
-22.0197
-22.049
-22.0798
-22.112
-22.1454
-22.1799
-22.2154
-22.2519
-22.2892
-22.3272
-22.3657
-22.4047
-22.444
-22.4834
-22.5227
-22.5618
-22.6004
-22.6382
-22.6752
-22.7109
-22.7452
-22.7777
-22.8082
-22.8363
-22.8617
-22.884
-22.903
-22.9183
-22.9294
-22.936
-22.9378
-22.9344
-22.9253
-22.9101
-22.8885
-22.86
-22.8243
-22.781
-22.7296
-22.6698
-22.6014
-22.5241
-22.4375
-22.3415
-22.2361
-22.1208
-21.9951
-21.8593
-21.7141
-21.5598
-21.3965
-21.2244
-21.0439
-20.8553
-20.659
-20.4553
-20.2446
-20.0275
-19.8044
-19.5758
-19.342
-19.1037
-18.8612
-18.6149
-18.3654
-18.1131
-17.8584
-17.6017
-17.3433
-17.0836
-16.8229
-16.5612
-16.2989
-16.0361
-15.773
-15.5098
-15.2463
-14.9827
-14.719
-14.4548
-14.1901
-13.925
-13.6592
-13.3926
-13.125
-12.8561
-12.5856
-12.3133
-12.0391
-11.7626
-11.4838
-11.2023
-10.9178
-10.6301
-10.3393
-10.0452
-9.74752
-9.44625
-9.14143
-8.83308
-8.5212
-8.20588
-7.88736
-7.56581
-7.2415
-6.91477
-6.586
-6.25563
-5.92415
-5.59213
-5.26017
-4.92889
-4.59898
-4.2712
-3.94635
-3.62534
-3.30927
-2.99943
-2.69734
-2.40471
-2.1235
-1.85574
-1.60347
-1.36858
-1.15267
-0.956922
-0.782011
-0.628129
-0.49497
-0.381813
-0.287581
-0.210946
-0.150394
-0.104323
-0.0710826
-0.0490548
-0.036666
-0.0324444
-0.0350116
-0.0431218
-0.0556388
-0.0715661
-0.0900126
-0.110211
-0.131484
-0.153286
-0.175168
-0.196703
-0.217375
-0.23693
-0.255343
-0.272524
-0.288345
-0.302717
-0.315566
-0.326853
-0.336548
-0.344649
-0.351155
-0.356086
-0.359462
-0.361316
-0.361678
-0.36059
-0.358085
-0.354208
-0.348993
-0.342483
-0.334712
-0.325717
-0.315531
-0.304185
-0.29171
-0.278131
-0.263478
-0.247773
-0.231048
-0.213326
-0.194645
-0.175035
-0.154561
-0.133253
-0.111279
-0.0884832
-0.0658699
-0.040492
-0.0232883
0.026524
-21.8018
-21.8205
-21.8357
-21.849
-21.8625
-21.8773
-21.8936
-21.9119
-21.932
-21.954
-21.9779
-22.0035
-22.0309
-22.0598
-22.0902
-22.1219
-22.1549
-22.1891
-22.2244
-22.2606
-22.2978
-22.3357
-22.3742
-22.4132
-22.4525
-22.492
-22.5315
-22.5707
-22.6095
-22.6476
-22.6848
-22.7208
-22.7554
-22.7882
-22.8189
-22.8473
-22.8729
-22.8956
-22.9148
-22.9303
-22.9417
-22.9486
-22.9507
-22.9474
-22.9386
-22.9236
-22.9021
-22.8738
-22.8381
-22.7948
-22.7434
-22.6836
-22.615
-22.5374
-22.4505
-22.3541
-22.2481
-22.1316
-22.0046
-21.868
-21.7221
-21.567
-21.4029
-21.2301
-21.0489
-20.8596
-20.6625
-20.4581
-20.2469
-20.0292
-19.8055
-19.5764
-19.3423
-19.1036
-18.861
-18.6146
-18.365
-18.1128
-17.8583
-17.6019
-17.344
-17.0849
-16.8249
-16.5641
-16.3025
-16.0408
-15.7789
-15.5168
-15.2547
-14.9925
-14.7303
-14.4677
-14.2047
-13.9412
-13.6772
-13.4124
-13.1465
-12.8794
-12.6107
-12.3402
-12.0677
-11.7929
-11.5156
-11.2356
-10.9525
-10.6662
-10.3766
-10.0835
-9.78676
-9.48626
-9.18203
-8.87407
-8.5624
-8.24711
-7.9284
-7.60645
-7.28154
-6.95401
-6.62426
-6.29274
-5.95999
-5.62658
-5.29317
-4.9604
-4.62902
-4.29979
-3.97353
-3.65113
-3.33365
-3.0223
-2.71854
-2.42407
-2.1408
-1.87083
-1.61626
-1.37909
-1.16101
-0.963269
-0.786621
-0.631279
-0.496931
-0.382837
-0.28788
-0.210692
-0.149714
-0.103306
-0.0697823
-0.0475018
-0.0348694
-0.0304032
-0.0327157
-0.0405609
-0.0528024
-0.0684495
-0.0866132
-0.10653
-0.127531
-0.149101
-0.170781
-0.19203
-0.212362
-0.231697
-0.249982
-0.267083
-0.282864
-0.297236
-0.310124
-0.321489
-0.331301
-0.339556
-0.346251
-0.351405
-0.355036
-0.357174
-0.357849
-0.3571
-0.354958
-0.351465
-0.346656
-0.340568
-0.333235
-0.32469
-0.314963
-0.304083
-0.292076
-0.278962
-0.264765
-0.2495
-0.23319
-0.215844
-0.197488
-0.178126
-0.157799
-0.136488
-0.114328
-0.0910132
-0.0676568
-0.0404054
-0.0223932
0.0360101
-21.8168
-21.8347
-21.8493
-21.8624
-21.8757
-21.8902
-21.9063
-21.9242
-21.944
-21.9657
-21.9891
-22.0143
-22.0412
-22.0697
-22.0997
-22.1311
-22.1639
-22.1978
-22.2329
-22.269
-22.3061
-22.344
-22.3825
-22.4216
-22.4611
-22.5007
-22.5404
-22.5798
-22.6188
-22.6572
-22.6946
-22.7309
-22.7657
-22.7987
-22.8296
-22.8582
-22.8841
-22.9069
-22.9263
-22.942
-22.9536
-22.9606
-22.9628
-22.9597
-22.9509
-22.936
-22.9146
-22.8862
-22.8505
-22.8071
-22.7555
-22.6954
-22.6265
-22.5485
-22.4611
-22.3643
-22.2571
-22.1391
-22.0111
-21.8737
-21.7269
-21.571
-21.4061
-21.2324
-21.0504
-20.8604
-20.6626
-20.4574
-20.2455
-20.0272
-19.803
-19.5735
-19.339
-19.1001
-18.8573
-18.6109
-18.3613
-18.1092
-17.855
-17.599
-17.3415
-17.083
-16.8238
-16.5639
-16.3034
-16.0428
-15.7822
-15.5215
-15.2609
-15.0002
-14.7396
-14.4787
-14.2175
-13.9559
-13.6938
-13.4308
-13.1669
-12.9016
-12.6348
-12.3661
-12.0953
-11.8223
-11.5466
-11.2681
-10.9864
-10.7015
-10.413
-10.1209
-9.82504
-9.52523
-9.22149
-8.91382
-8.60222
-8.28679
-7.96769
-7.64512
-7.31934
-6.99069
-6.65958
-6.32649
-5.99196
-5.65662
-5.32114
-4.98626
-4.65274
-4.32142
-3.99314
-3.66882
-3.34947
-3.03628
-2.73064
-2.4342
-2.14885
-1.87671
-1.61995
-1.38064
-1.16057
-0.961076
-0.782965
-0.626473
-0.491281
-0.376622
-0.281333
-0.204001
-0.143012
-0.0966858
-0.0632958
-0.0411726
-0.0286962
-0.0243726
-0.0268025
-0.0347397
-0.0470456
-0.0627368
-0.0809216
-0.100844
-0.121857
-0.143472
-0.16515
-0.186254
-0.206473
-0.225829
-0.244179
-0.261373
-0.277273
-0.291793
-0.304854
-0.316423
-0.326464
-0.334975
-0.341951
-0.347413
-0.351371
-0.353861
-0.354906
-0.354546
-0.352811
-0.34974
-0.345365
-0.339724
-0.332847
-0.324766
-0.315507
-0.305096
-0.293555
-0.280898
-0.267146
-0.252303
-0.236384
-0.219383
-0.201312
-0.18215
-0.16191
-0.140521
-0.118088
-0.0941362
-0.0699223
-0.0406078
-0.0217746
0.0454061
-21.832
-21.849
-21.8628
-21.8754
-21.8884
-21.9026
-21.9183
-21.9358
-21.9551
-21.9763
-21.9993
-22.0241
-22.0506
-22.0787
-22.1083
-22.1395
-22.172
-22.2058
-22.2408
-22.2768
-22.3139
-22.3518
-22.3905
-22.4297
-22.4693
-22.5092
-22.549
-22.5887
-22.6279
-22.6665
-22.7041
-22.7405
-22.7755
-22.8087
-22.8398
-22.8685
-22.8944
-22.9173
-22.9368
-22.9526
-22.9642
-22.9712
-22.9734
-22.9703
-22.9615
-22.9465
-22.925
-22.8965
-22.8605
-22.8168
-22.7649
-22.7045
-22.6351
-22.5566
-22.4687
-22.3708
-22.262
-22.1427
-22.0138
-21.8756
-21.7279
-21.5711
-21.4054
-21.2309
-21.0481
-20.8573
-20.6588
-20.453
-20.2404
-20.0215
-19.7969
-19.5668
-19.332
-19.0928
-18.8499
-18.6035
-18.354
-18.1021
-17.8482
-17.5927
-17.3359
-17.0781
-16.8197
-16.5608
-16.3015
-16.0422
-15.783
-15.5238
-15.2648
-15.0059
-14.747
-14.4879
-14.2287
-13.9691
-13.7089
-13.4479
-13.1859
-12.9226
-12.6577
-12.391
-12.1221
-11.8507
-11.5767
-11.2998
-11.0196
-10.7359
-10.4486
-10.1575
-9.86243
-9.56326
-9.25996
-8.95249
-8.64087
-8.32518
-8.00555
-7.68218
-7.35533
-7.02532
-6.69255
-6.35753
-6.0208
-5.68302
-5.34492
-5.00728
-4.67096
-4.33686
-4.00589
-3.67902
-3.35729
-3.04185
-2.73406
-2.4355
-2.14803
-1.87377
-1.61492
-1.37364
-1.1518
-0.950806
-0.77152
-0.6142
-0.478515
-0.363664
-0.268432
-0.191355
-0.13076
-0.0849206
-0.0520638
-0.0304901
-0.0185503
-0.0147371
-0.017637
-0.0260032
-0.038695
-0.0547333
-0.0732236
-0.0934248
-0.114725
-0.136623
-0.158425
-0.179551
-0.199918
-0.219491
-0.238075
-0.255517
-0.271678
-0.286475
-0.299829
-0.311708
-0.322076
-0.330931
-0.338266
-0.344102
-0.34845
-0.351343
-0.352804
-0.352871
-0.351574
-0.348952
-0.345034
-0.339856
-0.333447
-0.325837
-0.31705
-0.307107
-0.296027
-0.28382
-0.270499
-0.25606
-0.24051
-0.223827
-0.206007
-0.187003
-0.166801
-0.145271
-0.122492
-0.097811
-0.0726507
-0.0411439
-0.0215113
0.0544931
-21.8471
-21.8631
-21.8759
-21.888
-21.9005
-21.9141
-21.9293
-21.9462
-21.965
-21.9857
-22.0082
-22.0325
-22.0586
-22.0864
-22.1158
-22.1467
-22.179
-22.2128
-22.2477
-22.2838
-22.321
-22.359
-22.3978
-22.4372
-22.477
-22.517
-22.557
-22.5969
-22.6362
-22.6749
-22.7126
-22.7492
-22.7842
-22.8174
-22.8485
-22.8772
-22.9031
-22.926
-22.9454
-22.961
-22.9725
-22.9795
-22.9815
-22.9783
-22.9693
-22.9541
-22.9323
-22.9035
-22.8673
-22.8232
-22.7708
-22.7099
-22.6399
-22.5608
-22.472
-22.3725
-22.2622
-22.1421
-22.0124
-21.8733
-21.7248
-21.5671
-21.4005
-21.2252
-21.0416
-20.85
-20.6508
-20.4444
-20.2312
-20.0118
-19.7866
-19.5562
-19.321
-19.0817
-18.8386
-18.5922
-18.343
-18.0914
-17.8379
-17.583
-17.3269
-17.07
-16.8126
-16.5548
-16.2969
-16.039
-15.7813
-15.5238
-15.2666
-15.0095
-14.7525
-14.4954
-14.2382
-13.9807
-13.7226
-13.4637
-13.2038
-12.9425
-12.6796
-12.4148
-12.1478
-11.8783
-11.6059
-11.3305
-11.0518
-10.7694
-10.4833
-10.1932
-9.8989
-9.60034
-9.29743
-8.99013
-8.67844
-8.36241
-8.04218
-7.71791
-7.38985
-7.05831
-6.72368
-6.38645
-6.04719
-5.70657
-5.36535
-5.02439
-4.68461
-4.34702
-4.01264
-3.68253
-3.35779
-3.03961
-2.7293
-2.42841
-2.13875
-1.86239
-1.60158
-1.3585
-1.13509
-0.932867
-0.7527
-0.594878
-0.459044
-0.344368
-0.249572
-0.173137
-0.113327
-0.0683636
-0.0364232
-0.0157735
-0.00473308
-0.00177977
-0.00548365
-0.0145984
-0.0279784
-0.0446486
-0.0637103
-0.0844566
-0.106302
-0.128654
-0.150685
-0.172059
-0.1928
-0.212763
-0.231733
-0.249562
-0.26611
-0.2813
-0.29505
-0.307332
-0.318108
-0.327379
-0.335136
-0.341403
-0.346186
-0.349523
-0.351433
-0.351957
-0.35112
-0.348963
-0.345513
-0.340808
-0.334872
-0.327734
-0.319415
-0.309934
-0.299306
-0.287536
-0.27463
-0.260576
-0.245371
-0.228978
-0.211376
-0.19249
-0.172279
-0.150556
-0.127372
-0.101889
-0.0757293
-0.041961
-0.0215944
0.063102
-21.8619
-21.8767
-21.8885
-21.8999
-21.9116
-21.9245
-21.9391
-21.9554
-21.9735
-21.9937
-22.0157
-22.0396
-22.0653
-22.0928
-22.1219
-22.1527
-22.185
-22.2187
-22.2536
-22.2898
-22.3271
-22.3652
-22.4042
-22.4437
-22.4836
-22.5238
-22.5639
-22.6038
-22.6432
-22.6819
-22.7197
-22.7561
-22.791
-22.8241
-22.8551
-22.8837
-22.9094
-22.932
-22.9511
-22.9665
-22.9777
-22.9844
-22.9862
-22.9826
-22.9733
-22.9579
-22.9358
-22.9066
-22.8699
-22.8254
-22.7725
-22.711
-22.6405
-22.5606
-22.47
-22.3687
-22.2576
-22.1368
-22.0063
-21.8663
-21.717
-21.5584
-21.391
-21.2149
-21.0305
-20.8382
-20.6383
-20.4312
-20.2175
-19.9976
-19.772
-19.5413
-19.3059
-19.0664
-18.8233
-18.5771
-18.3282
-18.077
-17.8242
-17.5699
-17.3147
-17.0588
-16.8025
-16.5461
-16.2896
-16.0333
-15.7773
-15.5216
-15.2662
-15.011
-14.7561
-14.5011
-14.2461
-13.9907
-13.7348
-13.4781
-13.2203
-12.9611
-12.7003
-12.4375
-12.1724
-11.9047
-11.6341
-11.3603
-11.083
-10.802
-10.517
-10.2278
-9.93433
-9.63636
-9.33382
-9.02665
-8.71486
-8.39846
-8.07758
-7.75236
-7.42302
-7.08985
-6.75323
-6.41363
-6.0716
-5.72782
-5.38309
-5.0383
-4.69446
-4.3527
-4.01416
-3.68006
-3.35161
-3.03007
-2.71678
-2.41326
-2.12125
-1.8428
-1.58011
-1.3354
-1.11068
-0.907487
-0.726749
-0.568759
-0.433136
-0.319008
-0.225034
-0.149633
-0.0909981
-0.0472995
-0.0166562
0.00269818
0.0124817
0.014232
0.00939702
-0.000777055
-0.0151385
-0.0327121
-0.0526063
-0.0741617
-0.0967794
-0.119677
-0.142093
-0.163976
-0.185271
-0.205777
-0.225271
-0.243612
-0.260661
-0.276344
-0.290581
-0.303346
-0.3146
-0.324349
-0.332581
-0.339322
-0.34458
-0.348392
-0.350777
-0.351777
-0.351416
-0.349737
-0.346764
-0.342535
-0.337073
-0.330406
-0.322552
-0.313527
-0.303342
-0.291997
-0.279492
-0.265806
-0.250926
-0.234799
-0.217388
-0.198588
-0.178333
-0.156373
-0.132741
-0.106402
-0.0792082
-0.0431611
-0.0220962
0.0710545
-21.8761
-21.8899
-21.9005
-21.9109
-21.9218
-21.9339
-21.9476
-21.9631
-21.9806
-22.0002
-22.0217
-22.0451
-22.0705
-22.0978
-22.1268
-22.1574
-22.1896
-22.2233
-22.2584
-22.2947
-22.332
-22.3702
-22.4093
-22.4489
-22.4889
-22.5291
-22.5692
-22.609
-22.6483
-22.6868
-22.7243
-22.7606
-22.7952
-22.828
-22.8587
-22.8869
-22.9122
-22.9344
-22.9532
-22.9682
-22.979
-22.9853
-22.9866
-22.9827
-22.9729
-22.9571
-22.9346
-22.905
-22.8678
-22.8227
-22.7693
-22.7072
-22.636
-22.5542
-22.4618
-22.3595
-22.2476
-22.1261
-21.9948
-21.854
-21.7039
-21.5446
-21.3764
-21.1996
-21.0145
-20.8215
-20.6209
-20.4133
-20.1991
-19.9788
-19.753
-19.5221
-19.2866
-19.0471
-18.8042
-18.5582
-18.3097
-18.0591
-17.807
-17.5536
-17.2994
-17.0446
-16.7896
-16.5346
-16.2797
-16.0251
-15.7709
-15.5171
-15.2637
-15.0106
-14.7578
-14.5051
-14.2522
-13.9991
-13.7455
-13.491
-13.2354
-12.9784
-12.7197
-12.459
-12.1958
-11.9299
-11.6611
-11.3889
-11.113
-10.8333
-10.5495
-10.2613
-9.96855
-9.67115
-9.36897
-9.06194
-8.75002
-8.43326
-8.11172
-7.78553
-7.4549
-7.12008
-6.78143
-6.43938
-6.09447
-5.74735
-5.39883
-5.04983
-4.70144
-4.35488
-4.01146
-3.67258
-3.33962
-3.014
-2.69714
-2.39056
-2.09598
-1.81535
-1.55084
-1.30467
-1.07884
-0.874952
-0.693946
-0.53612
-0.40106
-0.287847
-0.195071
-0.121086
-0.0640098
-0.0219552
0.00701935
0.0247175
0.0328969
0.0331115
0.0268299
0.0152962
-0.000325072
-0.019063
-0.0400458
-0.0626663
-0.0862125
-0.109741
-0.132763
-0.155379
-0.177388
-0.198576
-0.218719
-0.237686
-0.255334
-0.271601
-0.286402
-0.299719
-0.311511
-0.321788
-0.330537
-0.33779