/*--------------------------------*- C++ -*----------------------------------*\
  =========                 |
  \\      /  F ield         | OpenFOAM: The Open Source CFD Toolbox
   \\    /   O peration     | Website:  https://openfoam.org
    \\  /    A nd           | Version:  7
     \\/     M anipulation  |
\*---------------------------------------------------------------------------*/
FoamFile
{
    version     2.0;
    format      ascii;
    class       surfaceScalarField;
    location    "650";
    object      phi;
}
// * * * * * * * * * * * * * * * * * * * * * * * * * * * * * * * * * * * * * //

dimensions      [0 3 -1 0 0 0 0];

internalField   nonuniform List<scalar> 
33502
(
2.37474e-09
-2.38525e-09
-3.3712e-08
3.60655e-08
-8.74675e-08
5.37548e-08
-1.47893e-07
6.04031e-08
-2.10983e-07
6.30915e-08
-2.75408e-07
6.44061e-08
-3.40673e-07
6.52699e-08
-4.06761e-07
6.60837e-08
-4.73901e-07
6.71501e-08
-5.42563e-07
6.86661e-08
-6.13129e-07
7.05746e-08
-6.8526e-07
7.2128e-08
-7.55427e-07
7.0167e-08
-8.23506e-07
6.80721e-08
-8.93964e-07
7.04562e-08
-9.72581e-07
7.86163e-08
-1.04604e-06
7.34608e-08
-1.10833e-06
6.22973e-08
-1.17244e-06
6.41136e-08
-1.23685e-06
6.44036e-08
-1.30087e-06
6.40238e-08
-1.36429e-06
6.34248e-08
-1.42706e-06
6.27721e-08
-1.48919e-06
6.21208e-08
-1.55067e-06
6.14852e-08
-1.61153e-06
6.08625e-08
-1.67178e-06
6.02447e-08
-1.7314e-06
5.96213e-08
-1.79038e-06
5.89821e-08
-1.8487e-06
5.83169e-08
-1.90631e-06
5.76168e-08
-1.96319e-06
5.68733e-08
-2.01927e-06
5.60791e-08
-2.07449e-06
5.52277e-08
-2.12881e-06
5.43131e-08
-2.18214e-06
5.33303e-08
-2.23441e-06
5.22747e-08
-2.28555e-06
5.11424e-08
-2.33548e-06
4.99299e-08
-2.38412e-06
4.86344e-08
-2.43137e-06
4.72532e-08
-2.47716e-06
4.57844e-08
-2.52138e-06
4.42263e-08
-2.56396e-06
4.25778e-08
-2.6048e-06
4.08383e-08
-2.64381e-06
3.90079e-08
-2.6809e-06
3.70875e-08
-2.71598e-06
3.50788e-08
-2.74896e-06
3.29844e-08
-2.77977e-06
3.08078e-08
-2.80832e-06
2.85539e-08
-2.83455e-06
2.62283e-08
-2.85839e-06
2.38383e-08
-2.87979e-06
2.13919e-08
-2.89868e-06
1.88986e-08
-2.91505e-06
1.63687e-08
-2.92887e-06
1.38136e-08
-2.94011e-06
1.12451e-08
-2.94879e-06
8.67551e-09
-2.95491e-06
6.11695e-09
-2.95849e-06
3.57968e-09
-2.95956e-06
1.07081e-09
-2.95817e-06
-1.3869e-09
-2.95442e-06
-3.7549e-09
-2.94839e-06
-6.02215e-09
-2.9402e-06
-8.19773e-09
-2.92991e-06
-1.02825e-08
-2.91764e-06
-1.22749e-08
-2.90347e-06
-1.41723e-08
-2.88749e-06
-1.59723e-08
-2.86982e-06
-1.76726e-08
-2.85055e-06
-1.92718e-08
-2.82978e-06
-2.07686e-08
-2.80761e-06
-2.2163e-08
-2.78416e-06
-2.34553e-08
-2.75951e-06
-2.46468e-08
-2.73377e-06
-2.57395e-08
-2.70703e-06
-2.67363e-08
-2.67939e-06
-2.76411e-08
-2.65093e-06
-2.84591e-08
-2.62173e-06
-2.91962e-08
-2.59187e-06
-2.98599e-08
-2.5614e-06
-3.04578e-08
-2.5304e-06
-3.09987e-08
-2.49891e-06
-3.14916e-08
-2.46696e-06
-3.19459e-08
-2.43458e-06
-3.23719e-08
-2.4018e-06
-3.27805e-08
-2.36861e-06
-3.31835e-08
-2.33501e-06
-3.35927e-08
-2.30099e-06
-3.40202e-08
-2.26651e-06
-3.44778e-08
-2.23153e-06
-3.49763e-08
-2.196e-06
-3.55264e-08
-2.15985e-06
-3.6139e-08
-2.12302e-06
-3.68251e-08
-2.08542e-06
-3.7596e-08
-2.04695e-06
-3.8462e-08
-2.00752e-06
-3.94323e-08
-1.967e-06
-4.05135e-08
-1.92528e-06
-4.17114e-08
-1.88225e-06
-4.30327e-08
-1.83776e-06
-4.44843e-08
-1.79168e-06
-4.60728e-08
-1.74387e-06
-4.78021e-08
-1.6942e-06
-4.96706e-08
-1.64252e-06
-5.1678e-08
-1.58869e-06
-5.38267e-08
-1.53256e-06
-5.6124e-08
-1.474e-06
-5.85643e-08
-1.41286e-06
-6.11336e-08
-1.34903e-06
-6.38312e-08
-1.28235e-06
-6.66751e-08
-1.21271e-06
-6.96435e-08
-1.14e-06
-7.27093e-08
-1.06408e-06
-7.5917e-08
-9.84849e-07
-7.92356e-08
-9.02246e-07
-8.2605e-08
-8.161e-07
-8.61478e-08
-7.2632e-07
-8.97825e-08
-6.32842e-07
-9.34815e-08
-5.3541e-07
-9.74359e-08
-4.3414e-07
-1.01273e-07
-3.28922e-07
-1.05222e-07
-2.192e-07
-1.09723e-07
-1.0464e-07
-1.14563e-07
1.41386e-08
-1.18781e-07
1.36108e-07
-1.21973e-07
2.6093e-07
-1.24825e-07
3.88547e-07
-1.27619e-07
5.18798e-07
-1.30252e-07
6.5136e-07
-1.32563e-07
7.85766e-07
-1.34407e-07
9.21422e-07
-1.35656e-07
1.05763e-06
-1.36211e-07
1.19363e-06
-1.36001e-07
1.32862e-06
-1.34989e-07
1.46179e-06
-1.3317e-07
1.59236e-06
-1.30568e-07
1.71959e-06
-1.27235e-07
1.84284e-06
-1.23244e-07
1.96152e-06
-1.18681e-07
2.07516e-06
-1.13639e-07
2.18338e-06
-1.08218e-07
2.28589e-06
-1.02511e-07
2.3825e-06
-9.66086e-08
2.4731e-06
-9.05921e-08
2.55763e-06
-8.45341e-08
2.63613e-06
-7.84966e-08
2.70866e-06
-7.2532e-08
2.77535e-06
-6.6683e-08
2.83634e-06
-6.09833e-08
2.8918e-06
-5.54589e-08
2.94193e-06
-5.01284e-08
2.98694e-06
-4.5005e-08
3.02704e-06
-4.00961e-08
3.06245e-06
-3.54059e-08
3.09338e-06
-3.09342e-08
3.12006e-06
-2.66791e-08
3.1427e-06
-2.26357e-08
3.1615e-06
-1.87986e-08
3.17667e-06
-1.51603e-08
3.18838e-06
-1.17138e-08
3.19683e-06
-8.45117e-09
3.2022e-06
-5.36785e-09
3.20468e-06
-2.47596e-09
3.20446e-06
2.26115e-10
3.20166e-06
2.79727e-09
3.19638e-06
5.28145e-09
3.1887e-06
7.68002e-09
3.17871e-06
9.99132e-09
3.16649e-06
1.22157e-08
3.15214e-06
1.43545e-08
3.13573e-06
1.64101e-08
3.11734e-06
1.83848e-08
3.09706e-06
2.02812e-08
3.07496e-06
2.21018e-08
3.05111e-06
2.38483e-08
3.02559e-06
2.5522e-08
2.99847e-06
2.71231e-08
2.96982e-06
2.86514e-08
2.93971e-06
3.01047e-08
2.90823e-06
3.14806e-08
2.87546e-06
3.27742e-08
2.84148e-06
3.398e-08
2.8064e-06
3.50891e-08
2.77031e-06
3.60923e-08
2.73334e-06
3.69751e-08
2.69562e-06
3.77227e-08
2.65731e-06
3.83132e-08
2.6186e-06
3.87229e-08
2.57968e-06
3.89191e-08
2.54083e-06
3.88654e-08
2.50232e-06
3.85147e-08
2.46451e-06
3.78194e-08
2.42778e-06
3.67338e-08
2.39251e-06
3.52783e-08
2.35891e-06
3.36012e-08
2.32584e-06
3.30523e-08
3.41468e-08
-3.27301e-08
3.03346e-08
-7.40657e-08
7.73937e-08
-1.23699e-07
1.03381e-07
-1.79591e-07
1.16293e-07
-2.39382e-07
1.22874e-07
-3.01622e-07
1.26646e-07
-3.6557e-07
1.29212e-07
-4.30845e-07
1.31363e-07
-4.97195e-07
1.335e-07
-5.64289e-07
1.35767e-07
-6.31699e-07
1.37983e-07
-6.99061e-07
1.39488e-07
-7.67799e-07
1.38903e-07
-8.37093e-07
1.3736e-07
-9.04159e-07
1.3752e-07
-9.64214e-07
1.38668e-07
-1.02606e-06
1.35304e-07
-1.09285e-06
1.29095e-07
-1.15549e-06
1.2675e-07
-1.21618e-06
1.25098e-07
-1.2757e-06
1.23544e-07
-1.33433e-06
1.22053e-07
-1.39218e-06
1.2063e-07
-1.44934e-06
1.19272e-07
-1.50582e-06
1.17966e-07
-1.56165e-06
1.16693e-07
-1.61683e-06
1.15431e-07
-1.67137e-06
1.14159e-07
-1.72524e-06
1.12856e-07
-1.77843e-06
1.11503e-07
-1.83089e-06
1.10082e-07
-1.8826e-06
1.08577e-07
-1.93349e-06
1.06975e-07
-1.98353e-06
1.05264e-07
-2.03265e-06
1.03431e-07
-2.08078e-06
1.01467e-07
-2.12787e-06
9.93634e-08
-2.17384e-06
9.71132e-08
-2.21862e-06
9.47095e-08
-2.26214e-06
9.21467e-08
-2.3043e-06
8.94199e-08
-2.34504e-06
8.6525e-08
-2.38428e-06
8.34588e-08
-2.42192e-06
8.02191e-08
-2.45788e-06
7.68047e-08
-2.49209e-06
7.32156e-08
-2.52446e-06
6.94534e-08
-2.5549e-06
6.55211e-08
-2.58334e-06
6.14238e-08
-2.6097e-06
5.71683e-08
-2.63391e-06
5.27636e-08
-2.65591e-06
4.82209e-08
-2.67562e-06
4.3554e-08
-2.69301e-06
3.87786e-08
-2.70802e-06
3.39129e-08
-2.72063e-06
2.89772e-08
-2.73081e-06
2.39932e-08
-2.73855e-06
1.89841e-08
-2.74385e-06
1.39735e-08
-2.74672e-06
8.98428e-09
-2.74717e-06
4.03665e-09
-2.74525e-06
-8.50079e-10
-2.74103e-06
-5.6087e-09
-2.7346e-06
-1.01835e-08
-2.72605e-06
-1.45806e-08
-2.71544e-06
-1.88041e-08
-2.70287e-06
-2.28527e-08
-2.68842e-06
-2.67224e-08
-2.67218e-06
-3.04086e-08
-2.65425e-06
-3.39064e-08
-2.63471e-06
-3.72121e-08
-2.61366e-06
-4.03228e-08
-2.59119e-06
-4.32371e-08
-2.5674e-06
-4.59549e-08
-2.54237e-06
-4.84778e-08
-2.51621e-06
-5.08085e-08
-2.489e-06
-5.29515e-08
-2.46082e-06
-5.49126e-08
-2.43176e-06
-5.67e-08
-2.40189e-06
-5.83238e-08
-2.37129e-06
-5.97965e-08
-2.34002e-06
-6.11322e-08
-2.30813e-06
-6.23468e-08
-2.27567e-06
-6.34573e-08
-2.24268e-06
-6.44816e-08
-2.20918e-06
-6.5438e-08
-2.1752e-06
-6.63465e-08
-2.14075e-06
-6.72284e-08
-2.10583e-06
-6.81063e-08
-2.07042e-06
-6.90035e-08
-2.03449e-06
-6.99436e-08
-1.99802e-06
-7.09495e-08
-1.96095e-06
-7.20424e-08
-1.92323e-06
-7.32424e-08
-1.88479e-06
-7.45706e-08
-1.84557e-06
-7.60484e-08
-1.80546e-06
-7.76971e-08
-1.76439e-06
-7.95375e-08
-1.72223e-06
-8.15877e-08
-1.67888e-06
-8.38606e-08
-1.63422e-06
-8.63671e-08
-1.58813e-06
-8.912e-08
-1.54048e-06
-9.21325e-08
-1.49113e-06
-9.5419e-08
-1.43995e-06
-9.89874e-08
-1.38678e-06
-1.02835e-07
-1.33149e-06
-1.06961e-07
-1.27395e-06
-1.11369e-07
-1.214e-06
-1.16075e-07
-1.15149e-06
-1.2107e-07
-1.0863e-06
-1.26326e-07
-1.01829e-06
-1.31839e-07
-9.47324e-07
-1.37644e-07
-8.73265e-07
-1.43702e-07
-7.96017e-07
-1.49958e-07
-7.15448e-07
-1.56487e-07
-6.31439e-07
-1.63245e-07
-5.43927e-07
-1.70118e-07
-4.52786e-07
-1.77291e-07
-3.57907e-07
-1.84663e-07
-2.59264e-07
-1.92127e-07
-1.5676e-07
-1.99942e-07
-4.99729e-08
-2.08062e-07
6.07806e-08
-2.15977e-07
1.74695e-07
-2.23639e-07
2.91665e-07
-2.31536e-07
4.11756e-07
-2.38874e-07
5.34692e-07
-2.4491e-07
6.60087e-07
-2.50221e-07
7.87639e-07
-2.55173e-07
9.16981e-07
-2.59594e-07
1.04768e-06
-2.6326e-07
1.17921e-06
-2.65947e-07
1.31101e-06
-2.67455e-07
1.44243e-06
-2.67627e-07
1.57278e-06
-2.66356e-07
1.70138e-06
-2.63589e-07
1.82754e-06
-2.59331e-07
1.95061e-06
-2.53638e-07
2.06998e-06
-2.46612e-07
2.18513e-06
-2.3839e-07
2.29558e-06
-2.29135e-07
2.40097e-06
-2.19021e-07
2.50098e-06
-2.08229e-07
2.5954e-06
-1.96933e-07
2.68409e-06
-1.85299e-07
2.76698e-06
-1.73477e-07
2.84404e-06
-1.61599e-07
2.91532e-06
-1.49779e-07
2.98091e-06
-1.38115e-07
3.04091e-06
-1.26683e-07
3.09547e-06
-1.15545e-07
3.14477e-06
-1.04749e-07
3.18897e-06
-9.4329e-08
3.22827e-06
-8.43076e-08
3.26288e-06
-7.46988e-08
3.29298e-06
-6.55087e-08
3.31879e-06
-5.67372e-08
3.34049e-06
-4.83791e-08
3.35828e-06
-4.04258e-08
3.37235e-06
-3.28654e-08
3.38288e-06
-2.56842e-08
3.39003e-06
-1.88675e-08
3.39399e-06
-1.24011e-08
3.3949e-06
-6.27573e-09
3.3929e-06
-4.81094e-10
3.38811e-06
5.02458e-09
3.38062e-06
1.02871e-08
3.37058e-06
1.53252e-08
3.35811e-06
2.01514e-08
3.34332e-06
2.47743e-08
3.32634e-06
2.92006e-08
3.30726e-06
3.34365e-08
3.28618e-06
3.74876e-08
3.26321e-06
4.13589e-08
3.23844e-06
4.50547e-08
3.21197e-06
4.85782e-08
3.18388e-06
5.19313e-08
3.15429e-06
5.51143e-08
3.12329e-06
5.8126e-08
3.09098e-06
6.09633e-08
3.05747e-06
6.36209e-08
3.02286e-06
6.60909e-08
2.98728e-06
6.83631e-08
2.95084e-06
7.04238e-08
2.91367e-06
7.22559e-08
2.87593e-06
7.38382e-08
2.83777e-06
7.51445e-08
2.79936e-06
7.61424e-08
2.76088e-06
7.67924e-08
2.72257e-06
7.70455e-08
2.68465e-06
7.68415e-08
2.64742e-06
7.6106e-08
2.6112e-06
7.47485e-08
2.57636e-06
7.26672e-08
2.54335e-06
6.97589e-08
2.51262e-06
6.60076e-08
2.48466e-06
6.15638e-08
2.45978e-06
5.79276e-08
5.45294e-08
-4.7182e-08
7.75071e-08
-9.38775e-08
1.24084e-07
-1.43183e-07
1.52685e-07
-1.96274e-07
1.69379e-07
-2.52569e-07
1.79169e-07
-3.11209e-07
1.85282e-07
-3.71504e-07
1.89509e-07
-4.32943e-07
1.92798e-07
-4.95061e-07
1.95621e-07
-5.57404e-07
1.98107e-07
-6.19519e-07
2.00099e-07
-6.81134e-07
2.011e-07
-7.4265e-07
2.00415e-07
-8.03762e-07
1.9847e-07
-8.62856e-07
1.96611e-07
-9.18716e-07
1.94528e-07
-9.7424e-07
1.90828e-07
-1.03129e-06
1.86149e-07
-1.08717e-06
1.82623e-07
-1.14184e-06
1.79771e-07
-1.19556e-06
1.77267e-07
-1.2485e-06
1.74988e-07
-1.30074e-06
1.72872e-07
-1.35234e-06
1.70876e-07
-1.40334e-06
1.68964e-07
-1.45375e-06
1.671e-07
-1.50357e-06
1.65251e-07
-1.55279e-06
1.63383e-07
-1.6014e-06
1.61468e-07
-1.64938e-06
1.59477e-07
-1.69668e-06
1.57387e-07
-1.74328e-06
1.55173e-07
-1.78912e-06
1.52818e-07
-1.83416e-06
1.50303e-07
-1.87834e-06
1.47612e-07
-1.92161e-06
1.44731e-07
-1.96389e-06
1.4165e-07
-2.00514e-06
1.38356e-07
-2.04527e-06
1.34841e-07
-2.08422e-06
1.31096e-07
-2.12191e-06
1.27115e-07
-2.15828e-06
1.22892e-07
-2.19324e-06
1.1842e-07
-2.22672e-06
1.13698e-07
-2.25864e-06
1.08723e-07
-2.28892e-06
1.03495e-07
-2.31748e-06
9.80157e-08
-2.34425e-06
9.2289e-08
-2.36915e-06
8.63219e-08
-2.39211e-06
8.01241e-08
-2.41305e-06
7.37083e-08
-2.43192e-06
6.70905e-08
-2.44866e-06
6.02902e-08
-2.46321e-06
5.33303e-08
-2.47553e-06
4.6237e-08
-2.4856e-06
3.90396e-08
-2.49337e-06
3.17699e-08
-2.49885e-06
2.44618e-08
-2.50203e-06
1.715e-08
-2.50291e-06
9.86696e-09
-2.50152e-06
2.64333e-09
-2.49791e-06
-4.46054e-09
-2.49216e-06
-1.13575e-08
-2.48434e-06
-1.80051e-08
-2.47452e-06
-2.4403e-08
-2.46277e-06
-3.05512e-08
-2.44918e-06
-3.64463e-08
-2.43382e-06
-4.20823e-08
-2.41677e-06
-4.74521e-08
-2.39813e-06
-5.25492e-08
-2.37797e-06
-5.73681e-08
-2.35639e-06
-6.19052e-08
-2.33347e-06
-6.61587e-08
-2.30929e-06
-7.01292e-08
-2.28395e-06
-7.38192e-08
-2.25753e-06
-7.72336e-08
-2.2301e-06
-8.0379e-08
-2.20175e-06
-8.32645e-08
-2.17254e-06
-8.59021e-08
-2.14256e-06
-8.83071e-08
-2.11186e-06
-9.04978e-08
-2.08049e-06
-9.24953e-08
-2.04851e-06
-9.43233e-08
-2.01596e-06
-9.60069e-08
-1.98287e-06
-9.75724e-08
-1.94926e-06
-9.90465e-08
-1.91515e-06
-1.00458e-07
-1.88054e-06
-1.01838e-07
-1.84542e-06
-1.0322e-07
-1.80979e-06
-1.04637e-07
-1.77361e-06
-1.06124e-07
-1.73684e-06
-1.07715e-07
-1.69944e-06
-1.09441e-07
-1.66135e-06
-1.11329e-07
-1.62251e-06
-1.13412e-07
-1.58284e-06
-1.15718e-07
-1.54225e-06
-1.1828e-07
-1.50066e-06
-1.21128e-07
-1.45796e-06
-1.2429e-07
-1.41403e-06
-1.27784e-07
-1.36877e-06
-1.31625e-07
-1.32206e-06
-1.35831e-07
-1.27377e-06
-1.40423e-07
-1.22376e-06
-1.45422e-07
-1.17191e-06
-1.50842e-07
-1.11806e-06
-1.56679e-07
-1.06209e-06
-1.6293e-07
-1.00386e-06
-1.696e-07
-9.43219e-07
-1.76717e-07
-8.80018e-07
-1.8427e-07
-8.14127e-07
-1.92216e-07
-7.45422e-07
-2.00544e-07
-6.73755e-07
-2.0931e-07
-5.98992e-07
-2.18466e-07
-5.21034e-07
-2.27916e-07
-4.39759e-07
-2.37762e-07
-3.55039e-07
-2.47965e-07
-2.66805e-07
-2.58353e-07
-1.74977e-07
-2.69119e-07
-7.93994e-08
-2.80241e-07
1.99479e-08
-2.91475e-07
1.22701e-07
-3.02695e-07
2.28615e-07
-3.13976e-07
3.37687e-07
-3.25049e-07
4.49772e-07
-3.35723e-07
5.64489e-07
-3.46253e-07
6.81662e-07
-3.56047e-07
8.01322e-07
-3.64571e-07
9.23189e-07
-3.72088e-07
1.04678e-06
-3.78766e-07
1.17163e-06
-3.84441e-07
1.29723e-06
-3.88863e-07
1.42305e-06
-3.91767e-07
1.54851e-06
-3.92916e-07
1.673e-06
-3.9212e-07
1.7959e-06
-3.89253e-07
1.91658e-06
-3.84264e-07
2.03442e-06
-3.77177e-07
2.14887e-06
-3.68084e-07
2.2594e-06
-3.57139e-07
2.36555e-06
-3.44543e-07
2.46694e-06
-3.30529e-07
2.56327e-06
-3.15345e-07
2.65428e-06
-2.99246e-07
2.73983e-06
-2.82479e-07
2.81981e-06
-2.65274e-07
2.89417e-06
-2.47842e-07
2.96294e-06
-2.30367e-07
3.02617e-06
-2.13009e-07
3.08396e-06
-1.95901e-07
3.13643e-06
-1.7915e-07
3.18372e-06
-1.62842e-07
3.22602e-06
-1.47043e-07
3.26349e-06
-1.31797e-07
3.29632e-06
-1.17136e-07
3.3247e-06
-1.03079e-07
3.34882e-06
-8.96327e-08
3.36888e-06
-7.67957e-08
3.38506e-06
-6.45602e-08
3.39755e-06
-5.29127e-08
3.40652e-06
-4.18363e-08
3.41215e-06
-3.13109e-08
3.4146e-06
-2.13153e-08
3.41402e-06
-1.18286e-08
3.41058e-06
-2.83253e-09
3.40438e-06
5.71674e-09
3.39554e-06
1.3864e-08
3.3842e-06
2.16307e-08
3.37049e-06
2.90379e-08
3.35453e-06
3.61039e-08
3.33646e-06
4.28425e-08
3.3164e-06
4.92656e-08
3.29445e-06
5.5383e-08
3.27073e-06
6.12032e-08
3.24536e-06
6.67331e-08
3.21843e-06
7.19781e-08
3.19007e-06
7.69417e-08
3.16037e-06
8.16255e-08
3.12946e-06
8.60289e-08
3.09744e-06
9.01486e-08
3.06442e-06
9.39789e-08
3.03053e-06
9.75109e-08
2.99589e-06
1.00733e-07
2.96062e-06
1.03628e-07
2.92487e-06
1.06177e-07
2.88877e-06
1.08354e-07
2.85248e-06
1.10129e-07
2.81616e-06
1.11465e-07
2.77998e-06
1.12315e-07
2.74415e-06
1.12622e-07
2.70888e-06
1.12318e-07
2.67441e-06
1.11315e-07
2.64101e-06
1.09507e-07
2.609e-06
1.06758e-07
2.57876e-06
1.02913e-07
2.55072e-06
9.77978e-08
2.52541e-06
9.13219e-08
2.50344e-06
8.35264e-08
2.48567e-06
7.56962e-08
6.71267e-08
-5.19971e-08
1.295e-07
-1.01675e-07
1.7376e-07
-1.51195e-07
2.02204e-07
-2.02368e-07
2.20552e-07
-2.55528e-07
2.32328e-07
-3.10342e-07
2.40096e-07
-3.66328e-07
2.45493e-07
-4.22987e-07
2.49457e-07
-4.79825e-07
2.52458e-07
-5.36363e-07
2.54645e-07
-5.9219e-07
2.55922e-07
-6.47097e-07
2.56007e-07
-7.01272e-07
2.54589e-07
-7.54734e-07
2.51932e-07
-8.06907e-07
2.48785e-07
-8.57569e-07
2.45189e-07
-9.07616e-07
2.40876e-07
-9.57754e-07
2.36287e-07
-1.00735e-06
2.32218e-07
-1.05623e-06
2.28648e-07
-1.10441e-06
2.25457e-07
-1.15197e-06
2.22548e-07
-1.19895e-06
2.1985e-07
-1.24538e-06
2.17307e-07
-1.29128e-06
2.14867e-07
-1.33667e-06
2.12482e-07
-1.38152e-06
2.10109e-07
-1.42585e-06
2.07705e-07
-1.46961e-06
2.05235e-07
-1.5128e-06
2.02661e-07
-1.55537e-06
1.99955e-07
-1.59728e-06
1.97088e-07
-1.6385e-06
1.94035e-07
-1.67897e-06
1.90774e-07
-1.71864e-06
1.87285e-07
-1.75746e-06
1.83553e-07
-1.79537e-06
1.7956e-07
-1.83231e-06
1.75294e-07
-1.86822e-06
1.70744e-07
-1.90302e-06
1.65899e-07
-1.93665e-06
1.60749e-07
-1.96905e-06
1.55287e-07
-2.00013e-06
1.49507e-07
-2.02984e-06
1.43404e-07
-2.05809e-06
1.36974e-07
-2.08481e-06
1.30217e-07
-2.10993e-06
1.23134e-07
-2.13337e-06
1.15731e-07
-2.15507e-06
1.08016e-07
-2.17494e-06
1e-07
-2.19294e-06
9.16994e-08
-2.20898e-06
8.31345e-08
-2.22302e-06
7.433e-08
-2.235e-06
6.53152e-08
-2.24489e-06
5.61237e-08
-2.25265e-06
4.67936e-08
-2.25824e-06
3.73665e-08
-2.26167e-06
2.78868e-08
-2.26292e-06
1.84004e-08
-2.262e-06
8.95155e-09
-2.25894e-06
-4.1924e-10
-2.2538e-06
-9.60363e-09
-2.24666e-06
-1.85002e-08
-2.23757e-06
-2.70911e-08
-2.2266e-06
-3.53683e-08
-2.21383e-06
-4.33267e-08
-2.19932e-06
-5.09597e-08
-2.18314e-06
-5.82588e-08
-2.16538e-06
-6.52146e-08
-2.14611e-06
-7.18186e-08
-2.12541e-06
-7.80639e-08
-2.10337e-06
-8.39459e-08
-2.08007e-06
-8.94629e-08
-2.05558e-06
-9.4616e-08
-2.02999e-06
-9.94092e-08
-2.00337e-06
-1.03849e-07
-1.9758e-06
-1.07946e-07
-1.94736e-06
-1.1171e-07
-1.9181e-06
-1.15157e-07
-1.8881e-06
-1.18309e-07
-1.85741e-06
-1.21189e-07
-1.82608e-06
-1.23825e-07
-1.79415e-06
-1.26247e-07
-1.76167e-06
-1.2849e-07
-1.72865e-06
-1.30588e-07
-1.69512e-06
-1.32574e-07
-1.66109e-06
-1.34487e-07
-1.62656e-06
-1.36367e-07
-1.59153e-06
-1.38256e-07
-1.55596e-06
-1.40198e-07
-1.51985e-06
-1.42238e-07
-1.48314e-06
-1.44421e-07
-1.4458e-06
-1.46787e-07
-1.40775e-06
-1.49371e-07
-1.36895e-06
-1.52212e-07
-1.32932e-06
-1.55351e-07
-1.28877e-06
-1.58827e-07
-1.24722e-06
-1.6268e-07
-1.20456e-06
-1.66948e-07
-1.16069e-06
-1.71655e-07
-1.11549e-06
-1.76818e-07
-1.06886e-06
-1.82461e-07
-1.02067e-06
-1.88609e-07
-9.708e-07
-1.95294e-07
-9.19104e-07
-2.02538e-07
-8.6545e-07
-2.10333e-07
-8.09706e-07
-2.18672e-07
-7.51742e-07
-2.27564e-07
-6.9141e-07
-2.37048e-07
-6.28562e-07
-2.47118e-07
-5.63066e-07
-2.57712e-07
-4.94801e-07
-2.68809e-07
-4.23621e-07
-2.80491e-07
-3.49385e-07
-2.92701e-07
-2.71988e-07
-3.05314e-07
-1.9133e-07
-3.18421e-07
-1.07295e-07
-3.32001e-07
-1.96911e-08
-3.45958e-07
7.13363e-08
-3.60147e-07
1.65568e-07
-3.74474e-07
2.63015e-07
-3.88922e-07
3.636e-07
-4.03281e-07
4.67147e-07
-4.17525e-07
5.73521e-07
-4.31423e-07
6.82589e-07
-4.44792e-07
7.93998e-07
-4.57663e-07
9.07542e-07
-4.69592e-07
1.02316e-06
-4.80186e-07
1.14055e-06
-4.89482e-07
1.25925e-06
-4.97467e-07
1.37876e-06
-5.03952e-07
1.49856e-06
-5.08663e-07
1.6181e-06
-5.11313e-07
1.73683e-06
-5.1164e-07
1.85414e-06
-5.09439e-07
1.96947e-06
-5.0458e-07
2.08223e-06
-4.97024e-07
2.19187e-06
-4.8682e-07
2.29789e-06
-4.74102e-07
2.39983e-06
-4.59079e-07
2.49729e-06
-4.42013e-07
2.58997e-06
-4.23204e-07
2.6776e-06
-4.02973e-07
2.75999e-06
-3.8164e-07
2.83703e-06
-3.59519e-07
2.90866e-06
-3.36899e-07
2.97486e-06
-3.14044e-07
3.03568e-06
-2.91184e-07
3.09119e-06
-2.68518e-07
3.1415e-06
-2.46211e-07
3.18674e-06
-2.24396e-07
3.22708e-06
-2.03178e-07
3.26268e-06
-1.82637e-07
3.29371e-06
-1.62828e-07
3.32036e-06
-1.43789e-07
3.34282e-06
-1.25541e-07
3.36128e-06
-1.08091e-07
3.37593e-06
-9.14367e-08
3.38693e-06
-7.55668e-08
3.39449e-06
-6.04635e-08
3.39876e-06
-4.61045e-08
3.39991e-06
-3.24643e-08
3.39811e-06
-1.95159e-08
3.39352e-06
-7.23211e-09
3.38625e-06
4.43258e-09
3.37644e-06
1.55279e-08
3.36423e-06
2.6081e-08
3.34975e-06
3.61144e-08
3.33313e-06
4.56518e-08
3.31452e-06
5.47147e-08
3.29405e-06
6.33215e-08
3.27183e-06
7.14877e-08
3.24798e-06
7.92264e-08
3.22264e-06
8.65488e-08
3.19591e-06
9.34634e-08
3.16791e-06
9.99768e-08
3.13876e-06
1.06093e-07
3.10858e-06
1.11813e-07
3.07747e-06
1.17137e-07
3.04556e-06
1.22058e-07
3.01297e-06
1.26569e-07
2.97983e-06
1.30659e-07
2.94625e-06
1.34311e-07
2.91238e-06
1.37506e-07
2.87834e-06
1.40218e-07
2.84428e-06
1.42415e-07
2.81035e-06
1.44058e-07
2.77672e-06
1.45102e-07
2.74355e-06
1.45488e-07
2.71103e-06
1.45145e-07
2.67937e-06
1.43986e-07
2.64879e-06
1.41901e-07
2.61955e-06
1.3875e-07
2.59196e-06
1.34359e-07
2.56636e-06
1.2852e-07
2.54318e-06
1.20984e-07
2.52293e-06
1.11578e-07
2.50625e-06
1.00208e-07
2.49391e-06
8.80321e-08
7.48475e-08
-5.28321e-08
1.82326e-07
-1.03077e-07
2.24003e-07
-1.51948e-07
2.51075e-07
-2.01052e-07
2.69656e-07
-2.51017e-07
2.82293e-07
-3.01823e-07
2.90901e-07
-3.53172e-07
2.96842e-07
-4.04669e-07
3.00953e-07
-4.55896e-07
3.03683e-07
-5.06467e-07
3.05213e-07
-5.56093e-07
3.05548e-07
-6.0468e-07
3.04592e-07
-6.52378e-07
3.02287e-07
-6.99316e-07
2.9887e-07
-7.45356e-07
2.94824e-07
-7.9052e-07
2.90353e-07
-8.3518e-07
2.85535e-07
-8.79591e-07
2.80699e-07
-9.23588e-07
2.76215e-07
-9.67082e-07
2.72142e-07
-1.01006e-06
2.68434e-07
-1.05254e-06
2.65026e-07
-1.09454e-06
2.6185e-07
-1.13607e-06
2.58843e-07
-1.17715e-06
2.55946e-07
-1.21777e-06
2.53104e-07
-1.25793e-06
2.50263e-07
-1.2976e-06
2.47377e-07
-1.33676e-06
2.44399e-07
-1.37539e-06
2.41291e-07
-1.41345e-06
2.38016e-07
-1.45091e-06
2.3454e-07
-1.48771e-06
2.30836e-07
-1.52381e-06
2.26878e-07
-1.55917e-06
2.22643e-07
-1.59373e-06
2.18111e-07
-1.62743e-06
2.13264e-07
-1.66023e-06
2.08088e-07
-1.69205e-06
2.02567e-07
-1.72284e-06
1.96691e-07
-1.75254e-06
1.90447e-07
-1.78108e-06
1.83827e-07
-1.8084e-06
1.76823e-07
-1.83442e-06
1.69427e-07
-1.85908e-06
1.61636e-07
-1.88231e-06
1.53448e-07
-1.90404e-06
1.44865e-07
-1.9242e-06
1.35892e-07
-1.94273e-06
1.26537e-07
-1.95954e-06
1.16815e-07
-1.97459e-06
1.06744e-07
-1.9878e-06
9.63483e-08
-1.99913e-06
8.56569e-08
-2.00852e-06
7.47053e-08
-2.01593e-06
6.35342e-08
-2.02132e-06
5.219e-08
-2.02468e-06
4.07235e-08
-2.02599e-06
2.91899e-08
-2.02523e-06
1.76442e-08
-2.02242e-06
6.14075e-09
-2.0176e-06
-5.23309e-09
-2.01086e-06
-1.63469e-08
-2.00224e-06
-2.71201e-08
-1.9918e-06
-3.75321e-08
-1.9796e-06
-4.7571e-08
-1.9657e-06
-5.72276e-08
-1.95017e-06
-6.64923e-08
-1.93307e-06
-7.53533e-08
-1.91449e-06
-8.37988e-08
-1.89449e-06
-9.18179e-08
-1.87315e-06
-9.94024e-08
-1.85055e-06
-1.06547e-07
-1.82676e-06
-1.1325e-07
-1.80186e-06
-1.19512e-07
-1.77593e-06
-1.2534e-07
-1.74904e-06
-1.30743e-07
-1.72125e-06
-1.35732e-07
-1.69264e-06
-1.40321e-07
-1.66327e-06
-1.4453e-07
-1.63319e-06
-1.48384e-07
-1.60247e-06
-1.51913e-07
-1.57114e-06
-1.5515e-07
-1.53925e-06
-1.58135e-07
-1.50683e-06
-1.60908e-07
-1.47391e-06
-1.63513e-07
-1.44049e-06
-1.6599e-07
-1.40659e-06
-1.68384e-07
-1.37222e-06
-1.70745e-07
-1.33735e-06
-1.73124e-07
-1.30197e-06
-1.75575e-07
-1.26605e-06
-1.78152e-07
-1.22956e-06
-1.80912e-07
-1.19245e-06
-1.83902e-07
-1.15465e-06
-1.87164e-07
-1.11612e-06
-1.90746e-07
-1.07677e-06
-1.94694e-07
-1.03654e-06
-1.99058e-07
-9.95332e-07
-2.03888e-07
-9.53049e-07
-2.0923e-07
-9.09589e-07
-2.15114e-07
-8.64848e-07
-2.21558e-07
-8.18715e-07
-2.28593e-07
-7.71076e-07
-2.36247e-07
-7.21808e-07
-2.44562e-07
-6.70776e-07
-2.53569e-07
-6.17851e-07
-2.63258e-07
-5.62904e-07
-2.73619e-07
-5.05808e-07
-2.84659e-07
-4.46421e-07
-2.96435e-07
-3.84598e-07
-3.0894e-07
-3.20203e-07
-3.22107e-07
-2.5311e-07
-3.35902e-07
-1.83188e-07
-3.50413e-07
-1.1031e-07
-3.65579e-07
-3.42893e-08
-3.81335e-07
4.48964e-08
-3.97606e-07
1.27178e-07
-4.14282e-07
2.1259e-07
-4.3137e-07
3.01137e-07
-4.48694e-07
3.92782e-07
-4.66118e-07
4.87432e-07
-4.83572e-07
5.85007e-07
-5.00855e-07
6.85346e-07
-5.17864e-07
7.88291e-07
-5.34368e-07
8.93672e-07
-5.50173e-07
1.00118e-06
-5.65168e-07
1.11057e-06
-5.78985e-07
1.22167e-06
-5.91288e-07
1.33416e-06
-6.01968e-07
1.44758e-06
-6.10887e-07
1.56143e-06
-6.17805e-07
1.6752e-06
-6.22427e-07
1.78833e-06
-6.24445e-07
1.90027e-06
-6.23583e-07
2.01047e-06
-6.19632e-07
2.11836e-06
-6.12469e-07
2.2234e-06
-6.02072e-07
2.32511e-06
-5.88524e-07
2.42301e-06
-5.72006e-07
2.51672e-06
-5.52782e-07
2.60588e-06
-5.31177e-07
2.69023e-06
-5.07558e-07
2.76957e-06
-4.82312e-07
2.84376e-06
-4.55824e-07
2.91271e-06
-4.28466e-07
2.97639e-06
-4.00584e-07
3.03483e-06
-3.72487e-07
3.0881e-06
-3.44448e-07
3.13628e-06
-3.16699e-07
3.1795e-06
-2.89433e-07
3.21791e-06
-2.62804e-07
3.25167e-06
-2.36933e-07
3.28094e-06
-2.11912e-07
3.30592e-06
-1.87803e-07
3.32678e-06
-1.64649e-07
3.34371e-06
-1.42471e-07
3.3569e-06
-1.21278e-07
3.36652e-06
-1.01064e-07
3.37277e-06
-8.18147e-08
3.37581e-06
-6.35075e-08
3.37582e-06
-4.61156e-08
3.37297e-06
-2.96085e-08
3.36741e-06
-1.39538e-08
3.35928e-06
8.95481e-10
3.34871e-06
1.49955e-08
3.33586e-06
2.83856e-08
3.32085e-06
4.10879e-08
3.30383e-06
5.31284e-08
3.28495e-06
6.45338e-08
3.26433e-06
7.53291e-08
3.24212e-06
8.55363e-08
3.21843e-06
9.51746e-08
3.1934e-06
1.0426e-07
3.16714e-06
1.12807e-07
3.13977e-06
1.20825e-07
3.11143e-06
1.28323e-07
3.08221e-06
1.35305e-07
3.05225e-06
1.41773e-07
3.02166e-06
1.47725e-07
2.99056e-06
1.53156e-07
2.95907e-06
1.58056e-07
2.92732e-06
1.62412e-07
2.89543e-06
1.66204e-07
2.86352e-06
1.6941e-07
2.83174e-06
1.72e-07
2.80021e-06
1.73937e-07
2.76909e-06
1.75176e-07
2.73853e-06
1.75662e-07
2.70869e-06
1.7533e-07
2.67974e-06
1.74095e-07
2.65187e-06
1.71853e-07
2.62529e-06
1.68475e-07
2.60025e-06
1.63794e-07
2.57701e-06
1.57598e-07
2.5559e-06
1.49629e-07
2.53731e-06
1.39574e-07
2.5217e-06
1.27186e-07
2.50964e-06
1.12267e-07
2.50166e-06
9.60155e-08
7.89423e-08
-5.15988e-08
2.3392e-07
-1.00743e-07
2.73146e-07
-1.47994e-07
2.98325e-07
-1.94577e-07
3.1624e-07
-2.41136e-07
3.28852e-07
-2.87803e-07
3.37568e-07
-3.34425e-07
3.43463e-07
-3.80732e-07
3.47259e-07
-4.26432e-07
3.49381e-07
-4.7127e-07
3.50051e-07
-5.15094e-07
3.49369e-07
-5.57892e-07
3.4739e-07
-5.99812e-07
3.44207e-07
-6.41008e-07
3.40065e-07
-6.81513e-07
3.3533e-07
-7.21414e-07
3.30254e-07
-7.60902e-07
3.25024e-07
-8.00089e-07
3.19886e-07
-8.3893e-07
3.15057e-07
-8.77384e-07
3.10596e-07
-9.15436e-07
3.06486e-07
-9.53086e-07
3.02676e-07
-9.90339e-07
2.99103e-07
-1.0272e-06
2.95702e-07
-1.06366e-06
2.92408e-07
-1.09971e-06
2.89159e-07
-1.13535e-06
2.85897e-07
-1.17054e-06
2.82568e-07
-1.20526e-06
2.79122e-07
-1.23948e-06
2.75514e-07
-1.27317e-06
2.71704e-07
-1.30629e-06
2.67655e-07
-1.33879e-06
2.63336e-07
-1.37063e-06
2.58717e-07
-1.40176e-06
2.53774e-07
-1.43213e-06
2.48484e-07
-1.46169e-06
2.42829e-07
-1.4904e-06
2.3679e-07
-1.51818e-06
2.30353e-07
-1.54499e-06
2.23503e-07
-1.57077e-06
2.16228e-07
-1.59547e-06
2.08518e-07
-1.619e-06
2.00361e-07
-1.64133e-06
1.91751e-07
-1.66238e-06
1.82682e-07
-1.68208e-06
1.73152e-07
-1.70037e-06
1.6316e-07
-1.71719e-06
1.52711e-07
-1.73247e-06
1.41817e-07
-1.74615e-06
1.30491e-07
-1.75816e-06
1.18755e-07
-1.76845e-06
1.06635e-07
-1.77696e-06
9.41661e-08
-1.78364e-06
8.1388e-08
-1.78845e-06
6.83488e-08
-1.79137e-06
5.51024e-08
-1.79235e-06
4.17092e-08
-1.7914e-06
2.82351e-08
-1.7885e-06
1.47466e-08
-1.78367e-06
1.30713e-09
-1.77697e-06
-1.19348e-08
-1.76848e-06
-2.48352e-08
-1.75825e-06
-3.73526e-08
-1.74632e-06
-4.94611e-08
-1.73274e-06
-6.11434e-08
-1.71759e-06
-7.23858e-08
-1.7009e-06
-8.31747e-08
-1.68276e-06
-9.34953e-08
-1.66323e-06
-1.03332e-07
-1.64237e-06
-1.12673e-07
-1.62027e-06
-1.21507e-07
-1.59699e-06
-1.29828e-07
-1.5726e-06
-1.37635e-07
-1.54718e-06
-1.4493e-07
-1.5208e-06
-1.51719e-07
-1.49353e-06
-1.58016e-07
-1.46543e-06
-1.63832e-07
-1.43657e-06
-1.69186e-07
-1.407e-06
-1.74099e-07
-1.37678e-06
-1.78601e-07
-1.34596e-06
-1.82728e-07
-1.31459e-06
-1.8652e-07
-1.2827e-06
-1.90023e-07
-1.25032e-06
-1.93287e-07
-1.21748e-06
-1.9636e-07
-1.18417e-06
-1.99291e-07
-1.15042e-06
-2.02133e-07
-1.11623e-06
-2.04942e-07
-1.08157e-06
-2.07779e-07
-1.04644e-06
-2.10706e-07
-1.0108e-06
-2.13787e-07
-9.74625e-07
-2.17091e-07
-9.37855e-07
-2.20671e-07
-9.00443e-07
-2.24575e-07
-8.62329e-07
-2.28859e-07
-8.23445e-07
-2.33577e-07
-7.83718e-07
-2.38785e-07
-7.43064e-07
-2.44541e-07
-7.01388e-07
-2.50906e-07
-6.58592e-07
-2.57909e-07
-6.14577e-07
-2.65572e-07
-5.69237e-07
-2.73931e-07
-5.22465e-07
-2.83019e-07
-4.74141e-07
-2.92885e-07
-4.2414e-07
-3.03569e-07
-3.72337e-07
-3.15061e-07
-3.18605e-07
-3.2735e-07
-2.62816e-07
-3.40448e-07
-2.04841e-07
-3.54411e-07
-1.44553e-07
-3.69228e-07
-8.18072e-08
-3.84852e-07
-1.64167e-08
-4.01293e-07
5.16694e-08
-4.18499e-07
1.22468e-07
-4.36378e-07
1.96102e-07
-4.54969e-07
2.72637e-07
-4.74142e-07
3.52118e-07
-4.93763e-07
4.34544e-07
-5.13797e-07
5.19915e-07
-5.34065e-07
6.08209e-07
-5.54413e-07
6.99343e-07
-5.74707e-07
7.93229e-07
-5.94743e-07
8.89719e-07
-6.14354e-07
9.88645e-07
-6.33295e-07
1.08981e-06
-6.51341e-07
1.19293e-06
-6.68288e-07
1.29774e-06
-6.83792e-07
1.40398e-06
-6.97527e-07
1.51129e-06
-7.09281e-07
1.61923e-06
-7.18825e-07
1.72729e-06
-7.25873e-07
1.83496e-06
-7.30099e-07
1.9417e-06
-7.31183e-07
2.04696e-06
-7.2884e-07
2.15019e-06
-7.22863e-07
2.25086e-06
-7.13143e-07
2.34847e-06
-6.99684e-07
2.44256e-06
-6.8261e-07
2.5327e-06
-6.62152e-07
2.61855e-06
-6.38632e-07
2.69981e-06
-6.12439e-07
2.77626e-06
-5.84006e-07
2.84774e-06
-5.53785e-07
2.91413e-06
-5.22223e-07
2.97542e-06
-4.89748e-07
3.03159e-06
-4.56753e-07
3.08269e-06
-4.23594e-07
3.12882e-06
-3.90578e-07
3.17009e-06
-3.57967e-07
3.20663e-06
-3.25976e-07
3.23861e-06
-2.9478e-07
3.26619e-06
-2.64511e-07
3.28955e-06
-2.35269e-07
3.30887e-06
-2.07124e-07
3.32434e-06
-1.80119e-07
3.33615e-06
-1.54278e-07
3.34448e-06
-1.29607e-07
3.34951e-06
-1.06097e-07
3.35143e-06
-8.37304e-08
3.3504e-06
-6.24807e-08
3.3466e-06
-4.23163e-08
3.3402e-06
-2.32009e-08
3.33134e-06
-5.0923e-09
3.32016e-06
1.20753e-08
3.3068e-06
2.83559e-08
3.29141e-06
4.3774e-08
3.27415e-06
5.83566e-08
3.25514e-06
7.21338e-08
3.23454e-06
8.51356e-08
3.21248e-06
9.73907e-08
3.18909e-06
1.08925e-07
3.16451e-06
1.19761e-07
3.13885e-06
1.29919e-07
3.11224e-06
1.39414e-07
3.08481e-06
1.4826e-07
3.05667e-06
1.56467e-07
3.02793e-06
1.6404e-07
2.99873e-06
1.70982e-07
2.96916e-06
1.77291e-07