/*--------------------------------*- C++ -*----------------------------------*\
  =========                 |
  \\      /  F ield         | OpenFOAM: The Open Source CFD Toolbox
   \\    /   O peration     | Website:  https://openfoam.org
    \\  /    A nd           | Version:  7
     \\/     M anipulation  |
\*---------------------------------------------------------------------------*/
FoamFile
{
    version     2.0;
    format      ascii;
    class       volVectorField;
    location    "650";
    object      U;
}
// * * * * * * * * * * * * * * * * * * * * * * * * * * * * * * * * * * * * * //

dimensions      [0 1 -1 0 0 0 0];

internalField   nonuniform List<vector> 
16900
(
(0.00592295 -0.00705483 0)
(-0.00973567 0.0216504 0)
(-0.0510824 0.0350183 0)
(-0.101544 0.0390238 0)
(-0.155372 0.0401529 0)
(-0.210665 0.0406563 0)
(-0.266715 0.0412173 0)
(-0.323286 0.0421309 0)
(-0.380449 0.0435984 0)
(-0.438671 0.0456828 0)
(-0.498929 0.048025 0)
(-0.561697 0.049025 0)
(-0.625603 0.0434123 0)
(-0.687656 0.0421863 0)
(-0.748499 0.0558979 0)
(-0.809503 0.0822825 0)
(-0.872673 0.0688752 0)
(-0.933429 0.0347196 0)
(-0.988212 0.0345508 0)
(-1.04424 0.0344778 0)
(-1.10001 0.0340989 0)
(-1.15527 0.0336141 0)
(-1.20998 0.0331085 0)
(-1.26411 0.0326132 0)
(-1.31768 0.0321341 0)
(-1.37071 0.0316702 0)
(-1.4232 0.0312158 0)
(-1.47516 0.030765 0)
(-1.52657 0.0303117 0)
(-1.57742 0.0298503 0)
(-1.62767 0.029376 0)
(-1.67731 0.0288842 0)
(-1.72628 0.0283713 0)
(-1.77453 0.0278338 0)
(-1.82203 0.0272688 0)
(-1.8687 0.0266739 0)
(-1.91448 0.0260467 0)
(-1.95932 0.0253857 0)
(-2.00315 0.0246891 0)
(-2.04589 0.0239557 0)
(-2.08746 0.0231844 0)
(-2.12781 0.0223746 0)
(-2.16684 0.0215255 0)
(-2.20448 0.0206369 0)
(-2.24065 0.0197087 0)
(-2.27527 0.0187414 0)
(-2.30827 0.0177355 0)
(-2.33956 0.0166921 0)
(-2.36908 0.0156128 0)
(-2.39674 0.0144995 0)
(-2.42247 0.0133548 0)
(-2.44623 0.0121816 0)
(-2.46793 0.0109835 0)
(-2.48754 0.0097645 0)
(-2.505 0.00852909 0)
(-2.52028 0.0072822 0)
(-2.53335 0.00602904 0)
(-2.5442 0.00477504 0)
(-2.55282 0.00352571 0)
(-2.55922 0.00228641 0)
(-2.56341 0.00106158 0)
(-2.5654 -0.000144778 0)
(-2.56523 -0.00131785 0)
(-2.56296 -0.00244012 0)
(-2.55869 -0.00351081 0)
(-2.5525 -0.0045353 0)
(-2.54446 -0.00551399 0)
(-2.53465 -0.00644603 0)
(-2.52316 -0.00733024 0)
(-2.51006 -0.00816549 0)
(-2.49545 -0.00895076 0)
(-2.47941 -0.00968536 0)
(-2.46203 -0.0103689 0)
(-2.4434 -0.0110012 0)
(-2.4236 -0.0115827 0)
(-2.40274 -0.012114 0)
(-2.38089 -0.0125961 0)
(-2.35813 -0.0130307 0)
(-2.33456 -0.0134197 0)
(-2.31024 -0.0137658 0)
(-2.28526 -0.0140719 0)
(-2.25968 -0.0143418 0)
(-2.23355 -0.0145792 0)
(-2.20694 -0.0147885 0)
(-2.17989 -0.0149742 0)
(-2.15243 -0.015141 0)
(-2.12459 -0.015294 0)
(-2.09641 -0.0154388 0)
(-2.06787 -0.0155813 0)
(-2.039 -0.0157272 0)
(-2.00976 -0.0158825 0)
(-1.98015 -0.0160531 0)
(-1.95013 -0.0162444 0)
(-1.91967 -0.016462 0)
(-1.8887 -0.0167114 0)
(-1.85718 -0.0169984 0)
(-1.82502 -0.0173287 0)
(-1.79217 -0.0177077 0)
(-1.75852 -0.01814 0)
(-1.72399 -0.0186295 0)
(-1.68847 -0.01918 0)
(-1.65186 -0.0197958 0)
(-1.61405 -0.0204811 0)
(-1.57492 -0.0212403 0)
(-1.53435 -0.0220763 0)
(-1.49222 -0.0229904 0)
(-1.44841 -0.0239845 0)
(-1.4028 -0.0250627 0)
(-1.35525 -0.0262309 0)
(-1.30564 -0.0274885 0)
(-1.25386 -0.0288329 0)
(-1.19979 -0.0302716 0)
(-1.14331 -0.0318163 0)
(-1.08429 -0.0334585 0)
(-1.02266 -0.0351996 0)
(-0.958291 -0.0370688 0)
(-0.891077 -0.039048 0)
(-0.820947 -0.0411378 0)
(-0.747764 -0.0433893 0)
(-0.671484 -0.0457789 0)
(-0.591924 -0.0483891 0)
(-0.50903 -0.0512486 0)
(-0.42293 -0.0543673 0)
(-0.332578 -0.0579582 0)
(-0.238731 -0.0620485 0)
(-0.142266 -0.0664283 0)
(-0.041002 -0.0695698 0)
(0.0666396 -0.0701443 0)
(0.173684 -0.0697174 0)
(0.283663 -0.0693688 0)
(0.395999 -0.0690751 0)
(0.510427 -0.0687527 0)
(0.626586 -0.0683224 0)
(0.744001 -0.0677163 0)
(0.862106 -0.0668828 0)
(0.980265 -0.0657859 0)
(1.0978 -0.0644071 0)
(1.21403 -0.0627432 0)
(1.32826 -0.0608063 0)
(1.43985 -0.0586197 0)
(1.54822 -0.0562163 0)
(1.65285 -0.0536343 0)
(1.75329 -0.0509155 0)
(1.84918 -0.0481012 0)
(1.94025 -0.0452319 0)
(2.02628 -0.0423439 0)
(2.10716 -0.0394701 0)
(2.18282 -0.036638 0)
(2.25326 -0.0338711 0)
(2.31851 -0.0311874 0)
(2.37865 -0.0286013 0)
(2.43381 -0.0261225 0)
(2.48412 -0.0237583 0)
(2.52974 -0.0215122 0)
(2.57085 -0.0193859 0)
(2.60762 -0.0173787 0)
(2.64024 -0.0154889 0)
(2.6689 -0.0137131 0)
(2.69379 -0.0120475 0)
(2.71509 -0.0104872 0)
(2.73298 -0.00902751 0)
(2.74764 -0.0076629 0)
(2.75923 -0.00638808 0)
(2.76792 -0.0051983 0)
(2.77386 -0.00409299 0)
(2.7772 -0.00307488 0)
(2.77813 -0.00213065 0)
(2.77679 -0.00123836 0)
(2.77327 -0.000390259 0)
(2.76763 0.000417195 0)
(2.75994 0.00118647 0)
(2.75029 0.00192014 0)
(2.73874 0.00262054 0)
(2.72538 0.00329014 0)
(2.71027 0.00393123 0)
(2.69349 0.00454602 0)
(2.67509 0.00513656 0)
(2.65515 0.00570467 0)
(2.63372 0.00625196 0)
(2.61088 0.00677971 0)
(2.58667 0.00728897 0)
(2.56118 0.00778026 0)
(2.53445 0.0082539 0)
(2.50657 0.00870947 0)
(2.4776 0.00914628 0)
(2.44763 0.00956264 0)
(2.41674 0.00995649 0)
(2.38502 0.0103243 0)
(2.3526 0.0106622 0)
(2.31959 0.0109641 0)
(2.28614 0.011223 0)
(2.25243 0.0114296 0)
(2.21864 0.0115728 0)
(2.18503 0.0116387 0)
(2.15186 0.0116132 0)
(2.11947 0.0114829 0)
(2.0882 0.011255 0)
(2.05838 0.0109713 0)
(2.03016 0.0110774 0)
(1.99455 0.0118126 0)
(-0.0205111 0.0115771 0)
(-0.045218 0.0528207 0)
(-0.0858427 0.0743886 0)
(-0.13368 0.0837508 0)
(-0.185415 0.08775 0)
(-0.23971 0.0895898 0)
(-0.295724 0.0905294 0)
(-0.353028 0.0910705 0)
(-0.411475 0.091391 0)
(-0.47102 0.0914573 0)
(-0.531375 0.091085 0)
(-0.591566 0.0902708 0)
(-0.652261 0.0891597 0)
(-0.713062 0.0882778 0)
(-0.771862 0.0885368 0)
(-0.827605 0.0899771 0)
(-0.884015 0.0905105 0)
(-0.941932 0.088596 0)
(-0.998589 0.0877864 0)
(-1.05311 0.0868056 0)
(-1.10637 0.0856422 0)
(-1.15878 0.0844323 0)
(-1.21047 0.0832385 0)
(-1.26151 0.0820818 0)
(-1.31195 0.0809609 0)
(-1.3618 0.0798664 0)
(-1.41108 0.0787851 0)
(-1.45979 0.0777026 0)
(-1.50792 0.0766052 0)
(-1.55545 0.07548 0)
(-1.60236 0.0743157 0)
(-1.64861 0.0731021 0)
(-1.69417 0.0718304 0)
(-1.73898 0.0704929 0)
(-1.78301 0.0690828 0)
(-1.82619 0.0675945 0)
(-1.86848 0.0660231 0)
(-1.9098 0.0643645 0)
(-1.9501 0.0626153 0)
(-1.98931 0.0607729 0)
(-2.02736 0.0588348 0)
(-2.06418 0.0567996 0)
(-2.0997 0.0546661 0)
(-2.13384 0.0524339 0)
(-2.16653 0.0501034 0)
(-2.1977 0.0476755 0)
(-2.22727 0.0451523 0)
(-2.25516 0.0425367 0)
(-2.28131 0.0398329 0)
(-2.30565 0.037046 0)
(-2.32811 0.0341826 0)
(-2.34863 0.0312505 0)
(-2.36715 0.028259 0)
(-2.38362 0.0252184 0)
(-2.39801 0.0221405 0)
(-2.41027 0.0190383 0)
(-2.42038 0.0159254 0)
(-2.42833 0.0128161 0)
(-2.43411 0.009725 0)
(-2.43772 0.00666556 0)
(-2.43919 0.00364825 0)
(-2.43852 0.000682097 0)
(-2.43575 -0.00219741 0)
(-2.431 -0.00495023 0)
(-2.42432 -0.00757449 0)
(-2.41579 -0.0100775 0)
(-2.40547 -0.0124606 0)
(-2.39346 -0.0147225 0)
(-2.37981 -0.0168616 0)
(-2.36462 -0.0188761 0)
(-2.34796 -0.0207646 0)
(-2.32991 -0.0225263 0)
(-2.31057 -0.0241614 0)
(-2.29002 -0.0256706 0)
(-2.26833 -0.0270558 0)
(-2.24559 -0.0283194 0)
(-2.22188 -0.0294647 0)
(-2.19728 -0.0304959 0)
(-2.17186 -0.0314186 0)
(-2.1457 -0.0322393 0)
(-2.11885 -0.0329656 0)
(-2.09139 -0.0336063 0)
(-2.06336 -0.0341708 0)
(-2.0348 -0.0346693 0)
(-2.00576 -0.035112 0)
(-1.97626 -0.0355098 0)
(-1.94633 -0.0358741 0)
(-1.91599 -0.0362169 0)
(-1.88522 -0.036551 0)
(-1.85403 -0.0368892 0)
(-1.82241 -0.0372445 0)
(-1.79031 -0.0376291 0)
(-1.75772 -0.0380544 0)
(-1.72457 -0.0385312 0)
(-1.69082 -0.0390706 0)
(-1.6564 -0.0396837 0)
(-1.62125 -0.0403815 0)
(-1.58528 -0.0411744 0)
(-1.5484 -0.0420712 0)
(-1.51051 -0.0430781 0)
(-1.47151 -0.0442003 0)
(-1.43129 -0.0454437 0)
(-1.38975 -0.0468146 0)
(-1.34676 -0.0483195 0)
(-1.3022 -0.0499615 0)
(-1.25594 -0.0517388 0)
(-1.20786 -0.0536497 0)
(-1.15784 -0.0556963 0)
(-1.10575 -0.0578864 0)
(-1.05144 -0.0602143 0)
(-0.994797 -0.0626642 0)
(-0.935717 -0.0652382 0)
(-0.874061 -0.0679545 0)
(-0.809709 -0.0707881 0)
(-0.742574 -0.0737173 0)
(-0.672531 -0.0767887 0)
(-0.59948 -0.0799653 0)
(-0.52335 -0.0832163 0)
(-0.443985 -0.0866275 0)
(-0.361437 -0.0901372 0)
(-0.275446 -0.0937977 0)
(-0.186031 -0.0976808 0)
(-0.0935316 -0.101692 0)
(0.00380897 -0.105804 0)
(0.103819 -0.109985 0)
(0.20626 -0.114457 0)
(0.311611 -0.118353 0)
(0.419977 -0.120889 0)
(0.530418 -0.122798 0)
(0.64295 -0.124579 0)
(0.757249 -0.126152 0)
(0.872951 -0.127407 0)
(0.989629 -0.128228 0)
(1.10679 -0.128509 0)
(1.22387 -0.12817 0)
(1.34028 -0.127154 0)
(1.45542 -0.125438 0)
(1.56865 -0.123025 0)
(1.67938 -0.119945 0)
(1.78707 -0.116251 0)
(1.8912 -0.112014 0)
(1.99133 -0.107316 0)
(2.0871 -0.102245 0)
(2.17821 -0.0968892 0)
(2.26444 -0.0913357 0)
(2.34562 -0.0856639 0)
(2.42168 -0.0799459 0)
(2.49257 -0.0742443 0)
(2.55831 -0.0686125 0)
(2.61895 -0.0630939 0)
(2.67459 -0.0577238 0)
(2.72533 -0.0525287 0)
(2.77133 -0.0475283 0)
(2.81274 -0.042736 0)
(2.84971 -0.0381599 0)
(2.88244 -0.0338037 0)
(2.91108 -0.0296676 0)
(2.93583 -0.0257489 0)
(2.95685 -0.0220431 0)
(2.97432 -0.0185434 0)
(2.9884 -0.0152425 0)
(2.99927 -0.0121316 0)
(3.00707 -0.009202 0)
(3.01195 -0.006447 0)
(3.01406 -0.00386255 0)
(3.01354 -0.0014443 0)
(3.01051 0.000824481 0)
(3.00502 0.00297149 0)
(2.9972 0.00501681 0)
(2.98717 0.00696828 0)
(2.97504 0.00882968 0)
(2.96091 0.010604 0)
(2.94487 0.0122939 0)
(2.92702 0.0139023 0)
(2.90744 0.0154321 0)
(2.88621 0.0168859 0)
(2.86344 0.0182662 0)
(2.83919 0.0195747 0)
(2.81356 0.0208129 0)
(2.78663 0.0219815 0)
(2.7585 0.0230804 0)
(2.72925 0.0241087 0)
(2.69898 0.0250645 0)
(2.66778 0.025945 0)
(2.63577 0.0267459 0)
(2.60306 0.0274617 0)
(2.56977 0.0280852 0)
(2.53603 0.0286072 0)
(2.50198 0.0290165 0)
(2.4678 0.0292987 0)
(2.43365 0.0294364 0)
(2.39975 0.0294075 0)
(2.36632 0.0291857 0)
(2.33363 0.0287386 0)
(2.30199 0.0280314 0)
(2.27178 0.0270301 0)
(2.24339 0.0257417 0)
(2.21732 0.0242485 0)
(2.19393 0.0233251 0)
(2.16966 0.0224896 0)
(-0.0321293 0.0512277 0)
(-0.0637923 0.0954532 0)
(-0.106272 0.121664 0)
(-0.153464 0.135778 0)
(-0.203473 0.143327 0)
(-0.255865 0.147644 0)
(-0.310029 0.150434 0)
(-0.365467 0.152567 0)
(-0.421814 0.154501 0)
(-0.478731 0.156432 0)
(-0.53574 0.158303 0)
(-0.592174 0.159615 0)
(-0.64803 0.159154 0)
(-0.703352 0.157146 0)
(-0.757309 0.155224 0)
(-0.809247 0.152799 0)
(-0.860527 0.148647 0)
(-0.912267 0.143979 0)
(-0.963545 0.140774 0)
(-1.01368 0.13817 0)
(-1.06289 0.135823 0)
(-1.11134 0.13364 0)
(-1.15914 0.131581 0)
(-1.20634 0.129623 0)
(-1.25298 0.127738 0)
(-1.29908 0.125901 0)
(-1.34465 0.124088 0)
(-1.38968 0.122274 0)
(-1.43417 0.120438 0)
(-1.47809 0.118558 0)
(-1.52141 0.116616 0)
(-1.56411 0.114598 0)
(-1.60615 0.112488 0)
(-1.64748 0.110276 0)
(-1.68805 0.10795 0)
(-1.72782 0.105502 0)
(-1.76673 0.102925 0)
(-1.80472 0.100211 0)
(-1.84173 0.0973567 0)
(-1.8777 0.0943567 0)
(-1.91256 0.0912079 0)
(-1.94625 0.0879077 0)
(-1.97869 0.0844546 0)
(-2.00982 0.0808479 0)
(-2.03957 0.0770881 0)
(-2.06786 0.0731769 0)
(-2.09463 0.0691175 0)
(-2.1198 0.0649146 0)
(-2.1433 0.0605747 0)
(-2.16507 0.0561062 0)
(-2.18504 0.0515197 0)
(-2.20315 0.0468274 0)
(-2.21935 0.0420441 0)
(-2.23358 0.0371866 0)
(-2.2458 0.0322735 0)
(-2.25598 0.0273253 0)
(-2.26409 0.0223638 0)
(-2.27011 0.0174118 0)
(-2.27404 0.0124924 0)
(-2.27588 0.00762688 0)
(-2.27564 0.00283407 0)
(-2.27333 -0.00185681 0)
(-2.26906 -0.00638431 0)
(-2.26287 -0.0107112 0)
(-2.25482 -0.0148426 0)
(-2.245 -0.0187819 0)
(-2.23345 -0.0225294 0)
(-2.22027 -0.026083 0)
(-2.20551 -0.0294402 0)
(-2.18926 -0.0325986 0)
(-2.1716 -0.0355567 0)
(-2.1526 -0.0383138 0)
(-2.13235 -0.0408708 0)
(-2.11092 -0.0432297 0)
(-2.08839 -0.045394 0)
(-2.06483 -0.0473683 0)
(-2.04033 -0.0491587 0)
(-2.01496 -0.0507723 0)
(-1.98878 -0.0522184 0)
(-1.96186 -0.0535079 0)
(-1.93427 -0.0546535 0)
(-1.90605 -0.0556695 0)
(-1.87725 -0.0565714 0)
(-1.84792 -0.0573756 0)
(-1.81808 -0.0580988 0)
(-1.78776 -0.058758 0)
(-1.75699 -0.0593713 0)
(-1.72576 -0.0599579 0)
(-1.69408 -0.0605376 0)
(-1.66194 -0.0611307 0)
(-1.62932 -0.0617576 0)
(-1.59618 -0.0624376 0)
(-1.5625 -0.0631884 0)
(-1.52821 -0.0640264 0)
(-1.49328 -0.0649684 0)
(-1.45762 -0.0660314 0)
(-1.42118 -0.0672322 0)
(-1.38387 -0.0685869 0)
(-1.34559 -0.0701093 0)
(-1.30626 -0.0718085 0)
(-1.26576 -0.0736913 0)
(-1.224 -0.0757663 0)
(-1.18086 -0.0780425 0)
(-1.13622 -0.0805297 0)
(-1.08997 -0.0832329 0)
(-1.04196 -0.0861476 0)
(-0.992084 -0.0892691 0)
(-0.940212 -0.092599 0)
(-0.886215 -0.0961493 0)
(-0.829952 -0.0999105 0)
(-0.771298 -0.103854 0)
(-0.710147 -0.107978 0)
(-0.646358 -0.112309 0)
(-0.579805 -0.116809 0)
(-0.510404 -0.121431 0)
(-0.438014 -0.12624 0)
(-0.362559 -0.131194 0)
(-0.283969 -0.136225 0)
(-0.201992 -0.141445 0)
(-0.116915 -0.146802 0)
(-0.0282265 -0.152229 0)
(0.0639566 -0.157745 0)
(0.158687 -0.163308 0)
(0.256635 -0.168674 0)
(0.357341 -0.173812 0)
(0.460504 -0.178965 0)
(0.565989 -0.183695 0)
(0.673863 -0.187671 0)
(0.783875 -0.191128 0)
(0.895672 -0.194185 0)
(1.00883 -0.196753 0)
(1.1229 -0.198695 0)
(1.23742 -0.199867 0)
(1.35187 -0.200141 0)
(1.46571 -0.199419 0)
(1.57837 -0.197638 0)
(1.68927 -0.194774 0)
(1.79786 -0.190845 0)
(1.90358 -0.185903 0)
(2.00594 -0.180034 0)
(2.10451 -0.173347 0)
(2.19889 -0.165967 0)
(2.28878 -0.158026 0)
(2.37394 -0.149658 0)
(2.45417 -0.140991 0)
(2.52937 -0.132144 0)
(2.59947 -0.123227 0)
(2.66447 -0.114332 0)
(2.72441 -0.10554 0)
(2.77934 -0.0969173 0)
(2.82938 -0.088516 0)
(2.87466 -0.0803775 0)
(2.91531 -0.0725319 0)
(2.95149 -0.065 0)
(2.98338 -0.0577948 0)
(3.01113 -0.0509226 0)
(3.03494 -0.0443846 0)
(3.05496 -0.0381773 0)
(3.07137 -0.0322944 0)
(3.08435 -0.0267266 0)
(3.09405 -0.0214628 0)
(3.10064 -0.0164905 0)
(3.10426 -0.0117984 0)
(3.10507 -0.00737624 0)
(3.1032 -0.00321167 0)
(3.0988 0.000719272 0)
(3.09192 0.00443941 0)
(3.08271 0.00796614 0)
(3.07128 0.0113116 0)
(3.05776 0.014486 0)
(3.04226 0.0174973 0)
(3.02489 0.0203523 0)
(3.00576 0.0230572 0)
(2.98497 0.0256171 0)
(2.96262 0.0280367 0)
(2.93881 0.0303199 0)
(2.91365 0.0324698 0)
(2.88722 0.0344886 0)
(2.85963 0.0363775 0)
(2.83099 0.0381366 0)
(2.80139 0.0397648 0)
(2.77094 0.0412597 0)
(2.73974 0.0426176 0)
(2.70793 0.0438328 0)
(2.6756 0.0448983 0)
(2.6429 0.0458046 0)
(2.60994 0.0465402 0)
(2.57689 0.0470905 0)
(2.54388 0.0474376 0)
(2.5111 0.0475592 0)
(2.47872 0.0474281 0)
(2.44694 0.0470098 0)
(2.41602 0.0462623 0)
(2.3862 0.0451334 0)
(2.35781 0.0435639 0)
(2.33122 0.0414904 0)
(2.30684 0.0388929 0)
(2.28528 0.0358222 0)
(2.267 0.0329478 0)
(2.25089 0.0297974 0)
(-0.0361096 0.0989634 0)
(-0.0721591 0.142222 0)
(-0.116733 0.169309 0)
(-0.164039 0.18575 0)
(-0.212784 0.195583 0)
(-0.263163 0.201625 0)
(-0.314865 0.205573 0)
(-0.367444 0.208363 0)
(-0.420463 0.21047 0)
(-0.473485 0.212059 0)
(-0.526044 0.213037 0)
(-0.577704 0.213046 0)
(-0.62838 0.211538 0)
(-0.678229 0.208688 0)
(-0.7271 0.205417 0)
(-0.774811 0.201669 0)
(-0.821862 0.197082 0)
(-0.868753 0.192325 0)
(-0.915251 0.18825 0)
(-0.961077 0.184684 0)
(-1.00624 0.181462 0)
(-1.05081 0.178489 0)
(-1.09481 0.175706 0)
(-1.1383 0.173066 0)
(-1.18129 0.170526 0)
(-1.22379 0.168049 0)
(-1.26581 0.1656 0)
(-1.30734 0.163146 0)
(-1.34836 0.160657 0)
(-1.38886 0.158108 0)
(-1.4288 0.155473 0)
(-1.46814 0.152732 0)
(-1.50686 0.149867 0)
(-1.54491 0.146862 0)
(-1.58224 0.143704 0)
(-1.6188 0.140381 0)
(-1.65454 0.136884 0)
(-1.68941 0.133203 0)
(-1.72334 0.129333 0)
(-1.75628 0.125267 0)
(-1.78816 0.121001 0)
(-1.81892 0.116531 0)
(-1.84849 0.111856 0)
(-1.87682 0.106973 0)
(-1.90382 0.101883 0)
(-1.92943 0.0965884 0)
(-1.95358 0.0910928 0)
(-1.97621 0.0854021 0)
(-1.99724 0.0795249 0)
(-2.01661 0.0734721 0)
(-2.03426 0.0672575 0)
(-2.05011 0.0608976 0)
(-2.06413 0.054412 0)
(-2.07626 0.0478232 0)
(-2.08644 0.0411564 0)
(-2.09466 0.0344394 0)
(-2.10088 0.0277022 0)
(-2.10508 0.0209759 0)
(-2.10725 0.0142924 0)
(-2.1074 0.00768069 0)
(-2.10554 0.00116741 0)
(-2.10168 -0.00518283 0)
(-2.09594 -0.0112966 0)
(-2.08837 -0.0171525 0)
(-2.07901 -0.0227497 0)
(-2.06794 -0.028089 0)
(-2.05521 -0.033169 0)
(-2.0409 -0.0379867 0)
(-2.02507 -0.0425387 0)
(-2.00781 -0.0468217 0)
(-1.98918 -0.0508337 0)
(-1.96926 -0.0545744 0)
(-1.94812 -0.0580451 0)
(-1.92585 -0.061249 0)
(-1.90251 -0.0641912 0)
(-1.87819 -0.0668786 0)
(-1.85294 -0.0693195 0)
(-1.82685 -0.0715241 0)
(-1.79997 -0.0735051 0)
(-1.77236 -0.0752775 0)
(-1.7441 -0.0768589 0)
(-1.71521 -0.0782691 0)
(-1.68576 -0.0795294 0)
(-1.65577 -0.0806626 0)
(-1.62527 -0.0816915 0)
(-1.59429 -0.0826392 0)
(-1.56284 -0.0835301 0)
(-1.53093 -0.0843902 0)
(-1.49856 -0.0852464 0)
(-1.4657 -0.0861263 0)
(-1.43235 -0.0870577 0)
(-1.39847 -0.0880674 0)
(-1.36402 -0.089179 0)
(-1.32894 -0.0904143 0)
(-1.29319 -0.091796 0)
(-1.25671 -0.0933467 0)
(-1.21941 -0.0950892 0)
(-1.18122 -0.0970459 0)
(-1.14205 -0.0992363 0)
(-1.10181 -0.101672 0)
(-1.06038 -0.104363 0)
(-1.01767 -0.107319 0)
(-0.973562 -0.110554 0)
(-0.927949 -0.114081 0)
(-0.880701 -0.11791 0)
(-0.831691 -0.122033 0)
(-0.780794 -0.126444 0)
(-0.727893 -0.131143 0)
(-0.672854 -0.136151 0)
(-0.615535 -0.141458 0)
(-0.555805 -0.147021 0)
(-0.493566 -0.152832 0)
(-0.428657 -0.158936 0)
(-0.360967 -0.165287 0)
(-0.290411 -0.171811 0)
(-0.21679 -0.178585 0)
(-0.140124 -0.185582 0)
(-0.0603457 -0.192714 0)
(0.0231259 -0.200019 0)
(0.109308 -0.20742 0)
(0.198592 -0.214823 0)
(0.290915 -0.222146 0)
(0.385989 -0.229409 0)
(0.483836 -0.236432 0)
(0.584276 -0.243139 0)
(0.687017 -0.249597 0)
(0.79182 -0.255483 0)
(0.898654 -0.260567 0)
(1.00733 -0.264946 0)
(1.11744 -0.268636 0)
(1.22855 -0.271534 0)
(1.34017 -0.273488 0)
(1.45181 -0.27434 0)
(1.56294 -0.273948 0)
(1.67303 -0.272204 0)
(1.78153 -0.269043 0)
(1.88788 -0.264452 0)
(1.99157 -0.258466 0)
(2.0921 -0.251165 0)
(2.18901 -0.242671 0)
(2.28192 -0.233132 0)
(2.37048 -0.222717 0)
(2.45445 -0.211601 0)
(2.53361 -0.199961 0)
(2.60782 -0.187966 0)
(2.677 -0.175772 0)
(2.74112 -0.163519 0)
(2.8002 -0.151329 0)
(2.8543 -0.139305 0)
(2.9035 -0.127532 0)
(2.94793 -0.116077 0)
(2.9877 -0.104992 0)
(3.02299 -0.0943158 0)
(3.05394 -0.084073 0)
(3.08073 -0.0742797 0)
(3.10354 -0.0649427 0)
(3.12253 -0.0560623 0)
(3.13788 -0.0476332 0)
(3.14977 -0.039646 0)
(3.15835 -0.0320877 0)
(3.16381 -0.0249429 0)
(3.16629 -0.0181957 0)
(3.16594 -0.0118313 0)
(3.16292 -0.0058328 0)
(3.15737 -0.000173016 0)
(3.14938 0.00517525 0)
(3.13909 0.010232 0)
(3.12662 0.0150124 0)
(3.1121 0.019531 0)
(3.09567 0.0238009 0)
(3.07743 0.0278331 0)
(3.05752 0.0316374 0)
(3.03604 0.0352221 0)
(3.0131 0.0385946 0)
(2.98883 0.041761 0)
(2.96331 0.0447265 0)
(2.93667 0.0474949 0)
(2.90901 0.050069 0)
(2.88044 0.05245 0)
(2.85107 0.0546379 0)
(2.82101 0.056631 0)
(2.79037 0.0584259 0)
(2.75927 0.0600173 0)
(2.72782 0.0613981 0)
(2.69616 0.0625586 0)
(2.66442 0.0634867 0)
(2.63272 0.0641672 0)
(2.60122 0.0645811 0)
(2.57007 0.0647053 0)
(2.53944 0.0645106 0)
(2.5095 0.063961 0)
(2.48046 0.0630111 0)
(2.45254 0.0616041 0)
(2.426 0.0596684 0)
(2.40115 0.0571195 0)
(2.37834 0.0538604 0)
(2.35798 0.0498323 0)
(2.34072 0.0450242 0)
(2.32687 0.0400176 0)
(2.31661 0.0345265 0)
(-0.0370581 0.149666 0)
(-0.07528 0.190472 0)
(-0.120994 0.216517 0)
(-0.168038 0.23358 0)
(-0.21537 0.244554 0)
(-0.26349 0.251603 0)
(-0.312299 0.256189 0)
(-0.361456 0.259186 0)
(-0.410574 0.261052 0)
(-0.459267 0.261959 0)
(-0.50718 0.261884 0)
(-0.554064 0.260666 0)
(-0.599901 0.25813 0)
(-0.644867 0.254444 0)
(-0.689031 0.250135 0)
(-0.732419 0.245402 0)
(-0.775287 0.240301 0)
(-0.817863 0.235218 0)
(-0.860074 0.230546 0)
(-0.901802 0.226295 0)
(-0.943031 0.222396 0)
(-0.983775 0.218783 0)
(-1.02405 0.215391 0)
(-1.06389 0.212166 0)
(-1.10329 0.209056 0)
(-1.14225 0.206016 0)
(-1.18077 0.203001 0)
(-1.21885 0.199973 0)
(-1.25645 0.196894 0)
(-1.29356 0.193734 0)
(-1.33014 0.190464 0)
(-1.36616 0.187058 0)
(-1.40158 0.183495 0)
(-1.43636 0.179757 0)
(-1.47045 0.175826 0)
(-1.50381 0.17169 0)
(-1.53637 0.167337 0)
(-1.5681 0.162756 0)
(-1.59893 0.157939 0)
(-1.6288 0.15288 0)
(-1.65766 0.147573 0)
(-1.68545 0.142013 0)
(-1.7121 0.136196 0)
(-1.73756 0.130123 0)
(-1.76174 0.123791 0)
(-1.7846 0.117204 0)
(-1.80606 0.110365 0)
(-1.82605 0.103282 0)
(-1.84451 0.0959636 0)
(-1.86137 0.0884241 0)
(-1.87658 0.0806799 0)
(-1.89007 0.0727511 0)
(-1.90178 0.0646618 0)
(-1.91167 0.0564398 0)
(-1.91969 0.0481165 0)
(-1.9258 0.0397269 0)
(-1.92997 0.0313084 0)
(-1.93219 0.022901 0)
(-1.93245 0.0145446 0)
(-1.93075 0.00627619 0)
(-1.92707 -0.0018571 0)
(-1.92155 -0.00976088 0)
(-1.91421 -0.0173643 0)
(-1.9051 -0.0246564 0)
(-1.89428 -0.0316322 0)
(-1.88181 -0.0382896 0)
(-1.86776 -0.0446252 0)
(-1.85218 -0.0506348 0)
(-1.83514 -0.0563133 0)
(-1.81672 -0.0616568 0)
(-1.79699 -0.0666628 0)
(-1.77601 -0.071331 0)
(-1.75387 -0.0756633 0)
(-1.73064 -0.0796642 0)
(-1.70638 -0.0833403 0)
(-1.68117 -0.086701 0)
(-1.65508 -0.0897567 0)
(-1.62817 -0.0925203 0)
(-1.6005 -0.0950078 0)
(-1.57214 -0.0972383 0)
(-1.54314 -0.0992341 0)
(-1.51354 -0.10102 0)
(-1.48339 -0.102623 0)
(-1.45273 -0.104073 0)
(-1.42157 -0.105398 0)
(-1.38993 -0.106626 0)
(-1.35784 -0.107789 0)
(-1.32529 -0.108918 0)
(-1.29228 -0.110047 0)
(-1.2588 -0.111211 0)
(-1.22482 -0.112445 0)
(-1.19031 -0.113782 0)
(-1.15523 -0.115252 0)
(-1.11954 -0.116881 0)
(-1.08317 -0.118698 0)
(-1.04606 -0.12073 0)
(-1.00814 -0.123006 0)
(-0.969343 -0.125555 0)
(-0.929566 -0.128401 0)
(-0.888715 -0.13156 0)
(-0.846693 -0.135041 0)
(-0.803396 -0.138859 0)
(-0.75872 -0.143029 0)
(-0.712549 -0.14757 0)
(-0.66476 -0.152498 0)
(-0.615226 -0.157801 0)
(-0.56382 -0.163469 0)
(-0.510432 -0.169502 0)
(-0.454923 -0.175933 0)
(-0.397153 -0.18275 0)
(-0.336992 -0.189901 0)
(-0.274342 -0.197369 0)
(-0.208996 -0.205209 0)
(-0.140923 -0.213382 0)
(-0.070016 -0.221816 0)
(0.00409986 -0.230534 0)
(0.0811066 -0.239478 0)
(0.161033 -0.248598 0)
(0.244081 -0.257791 0)
(0.330019 -0.267007 0)
(0.418897 -0.276195 0)
(0.510636 -0.285237 0)
(0.605074 -0.294099 0)
(0.702097 -0.302626 0)
(0.801552 -0.310721 0)
(0.903166 -0.31835 0)
(1.00668 -0.325256 0)
(1.11195 -0.331246 0)
(1.21873 -0.336312 0)
(1.32664 -0.340404 0)
(1.4352 -0.343394 0)
(1.54393 -0.345121 0)
(1.65232 -0.345415 0)
(1.75983 -0.344127 0)
(1.86594 -0.341146 0)
(1.9701 -0.336414 0)
(2.07179 -0.32993 0)
(2.17051 -0.32175 0)
(2.2658 -0.311986 0)
(2.35726 -0.300793 0)
(2.44452 -0.288362 0)
(2.5273 -0.2749 0)
(2.60537 -0.260627 0)
(2.67857 -0.245759 0)
(2.7468 -0.230502 0)
(2.81002 -0.215045 0)
(2.86821 -0.199558 0)
(2.92142 -0.184186 0)
(2.96974 -0.169054 0)
(3.01326 -0.154262 0)
(3.05213 -0.13989 0)
(3.08647 -0.125998 0)
(3.11646 -0.112632 0)
(3.14226 -0.0998195 0)
(3.16406 -0.0875787 0)
(3.18202 -0.0759161 0)
(3.19632 -0.0648308 0)
(3.20714 -0.054315 0)
(3.21466 -0.0443562 0)
(3.21904 -0.0349374 0)
(3.22044 -0.0260401 0)
(3.21904 -0.0176454 0)
(3.21497 -0.00973375 0)
(3.20841 -0.00227553 0)
(3.19946 0.00476351 0)
(3.18825 0.0114076 0)
(3.17492 0.0176741 0)
(3.15961 0.0235801 0)
(3.14246 0.0291423 0)
(3.12359 0.0343767 0)
(3.10313 0.039297 0)
(3.0812 0.0439157 0)
(3.05793 0.0482434 0)
(3.03344 0.0522896 0)
(3.00784 0.0560619 0)
(2.98124 0.0595669 0)
(2.95376 0.0628094 0)
(2.9255 0.0657929 0)
(2.8966 0.068519 0)
(2.86715 0.0709876 0)
(2.83727 0.0731967 0)
(2.80707 0.0751423 0)
(2.77669 0.0768183 0)
(2.74623 0.0782161 0)
(2.71582 0.0793244 0)
(2.68559 0.0801288 0)
(2.65568 0.0806114 0)
(2.62623 0.0807497 0)
(2.59738 0.0805161 0)
(2.5693 0.0798756 0)
(2.54215 0.0787847 0)
(2.51613 0.077188 0)
(2.49145 0.0750154 0)
(2.46835 0.0721771 0)
(2.44712 0.0685649 0)
(2.4281 0.0640486 0)
(2.41165 0.0585324 0)
(2.39843 0.0519477 0)
(2.38846 0.0448634 0)
(2.38284 0.0373174 0)
(-0.03654 0.200203 0)
(-0.075382 0.238383 0)
(-0.121153 0.262613 0)
(-0.167254 0.27923 0)
(-0.212791 0.2904 0)
(-0.258356 0.297721 0)
(-0.303985 0.302375 0)
(-0.349452 0.305124 0)
(-0.394475 0.306401 0)
(-0.43878 0.306415 0)
(-0.482149 0.305235 0)
(-0.524469 0.30286 0)
(-0.56579 0.299319 0)
(-0.60628 0.294809 0)
(-0.646076 0.289698 0)
(-0.685276 0.284242 0)
(-0.724046 0.278626 0)
(-0.762512 0.273126 0)
(-0.800652 0.267963 0)
(-0.838414 0.26318 0)
(-0.875782 0.258745 0)
(-0.912754 0.254606 0)
(-0.949337 0.250703 0)
(-0.985535 0.246977 0)
(-1.02135 0.243371 0)
(-1.05677 0.239833 0)
(-1.09179 0.236312 0)
(-1.12639 0.232765 0)
(-1.16054 0.22915 0)
(-1.19423 0.22543 0)
(-1.2274 0.221573 0)
(-1.26004 0.217551 0)
(-1.2921 0.21334 0)
(-1.32354 0.208917 0)
(-1.3543 0.204266 0)
(-1.38436 0.199371 0)
(-1.41364 0.194217 0)
(-1.44211 0.188795 0)
(-1.46972 0.183095 0)
(-1.4964 0.177108 0)
(-1.5221 0.170829 0)
(-1.54677 0.164252 0)
(-1.57034 0.157373 0)
(-1.59275 0.150189 0)
(-1.61395 0.1427 0)
(-1.63387 0.134907 0)
(-1.65244 0.126815 0)
(-1.66961 0.118432 0)
(-1.6853 0.109768 0)
(-1.69945 0.100839 0)
(-1.71201 0.0916636 0)
(-1.72291 0.0822652 0)
(-1.7321 0.0726722 0)
(-1.73953 0.0629173 0)
(-1.74515 0.0530378 0)
(-1.74893 0.0430752 0)
(-1.75084 0.033075 0)
(-1.75085 0.0230854 0)
(-1.74897 0.0131539 0)
(-1.74519 0.00332464 0)
(-1.7395 -0.00631236 0)
(-1.73208 -0.0156478 0)
(-1.72292 -0.024636 0)
(-1.71208 -0.0332631 0)
(-1.69961 -0.0415214 0)
(-1.68556 -0.0494056 0)
(-1.66999 -0.0569106 0)
(-1.65296 -0.0640299 0)
(-1.63454 -0.0707572 0)
(-1.61479 -0.0770872 0)
(-1.59379 -0.083017 0)
(-1.5716 -0.0885463 0)
(-1.5483 -0.0936775 0)
(-1.52395 -0.0984163 0)
(-1.49864 -0.102771 0)
(-1.47242 -0.106754 0)
(-1.44536 -0.110377 0)
(-1.41752 -0.113655 0)
(-1.38897 -0.116609 0)
(-1.35975 -0.11926 0)
(-1.32994 -0.121635 0)
(-1.29956 -0.123765 0)
(-1.26865 -0.125682 0)
(-1.23726 -0.127422 0)
(-1.20541 -0.129019 0)
(-1.1731 -0.130506 0)
(-1.14036 -0.13192 0)
(-1.10718 -0.133298 0)
(-1.07357 -0.134682 0)
(-1.0395 -0.136111 0)
(-1.00495 -0.137628 0)
(-0.969897 -0.139274 0)
(-0.93429 -0.141083 0)
(-0.898084 -0.143087 0)
(-0.861223 -0.145317 0)
(-0.823646 -0.147807 0)
(-0.785282 -0.15059 0)
(-0.746057 -0.1537 0)
(-0.705881 -0.157171 0)
(-0.66466 -0.161019 0)
(-0.622297 -0.165253 0)
(-0.578692 -0.169891 0)
(-0.533742 -0.174949 0)
(-0.487336 -0.180455 0)
(-0.439351 -0.186428 0)
(-0.389668 -0.192855 0)
(-0.338159 -0.199722 0)
(-0.284715 -0.20703 0)
(-0.229178 -0.214815 0)
(-0.171446 -0.223069 0)
(-0.111388 -0.231744 0)
(-0.0489001 -0.24083 0)
(0.016374 -0.250349 0)
(0.0841702 -0.26023 0)
(0.154672 -0.270462 0)
(0.228036 -0.280958 0)
(0.304241 -0.291655 0)
(0.383321 -0.302542 0)
(0.465313 -0.313492 0)
(0.550157 -0.324427 0)
(0.637829 -0.335267 0)
(0.728253 -0.345893 0)
(0.821296 -0.356225 0)
(0.916816 -0.366113 0)
(1.01464 -0.375439 0)
(1.11451 -0.384105 0)
(1.21616 -0.391891 0)
(1.31936 -0.398614 0)
(1.42381 -0.404187 0)
(1.52911 -0.408503 0)
(1.63478 -0.411413 0)
(1.74033 -0.412739 0)
(1.84523 -0.412305 0)
(1.94895 -0.40996 0)
(2.05095 -0.405595 0)
(2.15069 -0.399162 0)
(2.24767 -0.390676 0)
(2.34142 -0.380219 0)
(2.43149 -0.367936 0)
(2.51752 -0.354018 0)
(2.59919 -0.338694 0)
(2.67624 -0.322215 0)
(2.74849 -0.304839 0)
(2.81582 -0.28682 0)
(2.87815 -0.268398 0)
(2.93548 -0.249792 0)
(2.98783 -0.231199 0)
(3.03526 -0.212786 0)
(3.07789 -0.194695 0)
(3.11583 -0.177039 0)
(3.14923 -0.159909 0)
(3.17825 -0.143373 0)
(3.20306 -0.12748 0)
(3.22384 -0.112262 0)
(3.24077 -0.0977353 0)
(3.25403 -0.0839074 0)
(3.26381 -0.0707754 0)
(3.27028 -0.058329 0)
(3.27362 -0.0465521 0)
(3.274 -0.0354244 0)
(3.2716 -0.0249246 0)
(3.26656 -0.0150311 0)
(3.25906 -0.00571507 0)
(3.24925 0.00306666 0)
(3.23722 0.0113433 0)
(3.22314 0.0191365 0)
(3.20715 0.0264651 0)
(3.18939 0.0333487 0)
(3.17001 0.0398067 0)
(3.14914 0.0458576 0)
(3.1269 0.0515179 0)
(3.10344 0.0568028 0)
(3.07887 0.0617252 0)
(3.05331 0.0662968 0)
(3.02688 0.070527 0)
(2.9997 0.0744238 0)
(2.97189 0.0779934 0)
(2.94356 0.08124 0)
(2.91483 0.0841657 0)
(2.8858 0.0867711 0)
(2.8566 0.089054 0)
(2.82733 0.0910104 0)
(2.79812 0.0926336 0)
(2.76909 0.0939142 0)
(2.74035 0.0948397 0)
(2.71203 0.0953943 0)
(2.68427 0.095558 0)
(2.65718 0.0953055 0)
(2.63093 0.0946055 0)
(2.60565 0.0934186 0)
(2.58151 0.0916947 0)
(2.55867 0.0893697 0)
(2.53735 0.0863619 0)
(2.51776 0.0825653 0)
(2.50015 0.0778508 0)
(2.48485 0.0720597 0)
(2.47217 0.0650676 0)
(2.46272 0.0567687 0)
(2.4562 0.0477911 0)
(2.45456 0.0385339 0)
(-0.0352014 0.248895 0)
(-0.073584 0.284648 0)
(-0.118492 0.306769 0)
(-0.162998 0.32228 0)
(-0.206336 0.33293 0)
(-0.249083 0.3399 0)
(-0.291356 0.344121 0)
(-0.333038 0.346243 0)
(-0.37396 0.346679 0)
(-0.413967 0.345676 0)
(-0.452961 0.34339 0)
(-0.490928 0.339936 0)
(-0.52796 0.335457 0)
(-0.564222 0.330179 0)
(-0.599866 0.324403 0)
(-0.635011 0.318382 0)
(-0.669782 0.312322 0)
(-0.704262 0.306432 0)
(-0.738454 0.300861 0)
(-0.772335 0.295649 0)
(-0.805894 0.290778 0)
(-0.839122 0.286204 0)
(-0.872018 0.281867 0)
(-0.904575 0.277708 0)
(-0.936784 0.273666 0)
(-0.968634 0.269684 0)
(-1.0001 0.265706 0)
(-1.03117 0.261684 0)
(-1.06182 0.257572 0)
(-1.092 0.253331 0)
(-1.12168 0.248926 0)
(-1.15084 0.244326 0)
(-1.17942 0.239504 0)
(-1.20739 0.234437 0)
(-1.2347 0.229106 0)
(-1.2613 0.223493 0)
(-1.28715 0.217586 0)
(-1.3122 0.211371 0)
(-1.3364 0.204839 0)
(-1.3597 0.197981 0)
(-1.38205 0.19079 0)
(-1.40339 0.183259 0)
(-1.42366 0.175384 0)
(-1.44282 0.167162 0)
(-1.46081 0.15859 0)
(-1.47756 0.149671 0)
(-1.49301 0.140408 0)
(-1.5071 0.130809 0)
(-1.51978 0.120887 0)
(-1.53098 0.110658 0)
(-1.54063 0.100142 0)
(-1.5487 0.0893669 0)
(-1.55511 0.0783638 0)
(-1.55982 0.0671703 0)
(-1.56278 0.0558293 0)
(-1.56397 0.0443888 0)
(-1.56334 0.0329016 0)
(-1.56089 0.0214243 0)
(-1.55661 0.0100107 0)
(-1.55047 -0.00127156 0)
(-1.5426 -0.0122905 0)
(-1.53306 -0.0229443 0)
(-1.52188 -0.0332099 0)
(-1.5091 -0.0430706 0)
(-1.49478 -0.0525148 0)
(-1.47895 -0.0615344 0)
(-1.46169 -0.0701217 0)
(-1.44304 -0.0782681 0)
(-1.42306 -0.0859652 0)
(-1.40182 -0.0932064 0)
(-1.3794 -0.0999882 0)
(-1.35585 -0.10631 0)
(-1.33125 -0.112175 0)
(-1.30567 -0.11759 0)
(-1.27917 -0.122565 0)
(-1.25182 -0.127115 0)
(-1.22368 -0.131253 0)
(-1.19481 -0.134998 0)
(-1.16528 -0.138371 0)
(-1.13514 -0.1414 0)
(-1.10443 -0.144114 0)
(-1.0732 -0.14655 0)
(-1.0415 -0.148745 0)
(-1.00934 -0.150741 0)