/*--------------------------------*- C++ -*----------------------------------*\
  =========                 |
  \\      /  F ield         | OpenFOAM: The Open Source CFD Toolbox
   \\    /   O peration     | Website:  https://openfoam.org
    \\  /    A nd           | Version:  7
     \\/     M anipulation  |
\*---------------------------------------------------------------------------*/
FoamFile
{
    version     2.0;
    format      ascii;
    class       surfaceScalarField;
    location    "2.9";
    object      phi;
}
// * * * * * * * * * * * * * * * * * * * * * * * * * * * * * * * * * * * * * //

dimensions      [0 3 -1 0 0 0 0];

internalField   nonuniform List<scalar> 
1740
(
4.27316e-07
-4.27308e-07
-1.22666e-07
5.49971e-07
-1.82137e-06
1.69871e-06
-4.49215e-06
2.67079e-06
-7.85813e-06
3.36597e-06
-1.16589e-05
3.80076e-06
-1.56795e-05
4.02063e-06
-1.97485e-05
4.06894e-06
-2.37249e-05
3.97646e-06
-2.74852e-05
3.76025e-06
-3.09113e-05
3.4261e-06
-3.38839e-05
2.97262e-06
-3.62798e-05
2.39588e-06
-3.79742e-05
1.69442e-06
-3.88483e-05
8.74103e-07
-3.88004e-05
-4.79098e-08
-3.77601e-05
-1.04026e-06
-3.57052e-05
-2.05492e-06
-3.2676e-05
-3.0292e-06
-2.87863e-05
-3.88973e-06
-2.42273e-05
-4.55896e-06
-1.92628e-05
-4.96454e-06
-1.42131e-05
-5.04963e-06
-9.4305e-06
-4.78263e-06
-5.26625e-06
-4.16425e-06
-2.03466e-06
-3.2316e-06
3.59816e-08
-2.07064e-06
9.011e-07
-8.65122e-07
6.66931e-07
2.34166e-07
6.66931e-07
-5.39757e-07
1.12439e-07
-3.29957e-06
3.30979e-06
-8.48949e-06
6.88862e-06
-1.573e-05
9.91132e-06
-2.4514e-05
1.21499e-05
-3.4316e-05
1.36028e-05
-4.46538e-05
1.43585e-05
-5.51057e-05
1.45208e-05
-6.53017e-05
1.41724e-05
-7.49063e-05
1.33649e-05
-8.36014e-05
1.21212e-05
-9.1075e-05
1.04462e-05
-9.70183e-05
8.33919e-06
-0.000101133
5.80918e-06
-0.000103148
2.88891e-06
-0.000102847
-3.48902e-07
-0.000100089
-3.79781e-06
-9.48571e-05
-7.2871e-06
-8.72746e-05
-1.06117e-05
-7.76309e-05
-1.35334e-05
-6.63855e-05
-1.58044e-05
-5.41534e-05
-1.71966e-05
-4.16692e-05
-1.75339e-05
-2.97283e-05
-1.67235e-05
-1.91115e-05
-1.4781e-05
-1.0494e-05
-1.18492e-05
-4.34531e-06
-8.21928e-06
-8.56369e-07
-4.35407e-06
2.91953e-07
-9.14155e-07
9.58882e-07
-1.76811e-06
1.88056e-06
-7.16399e-06
8.70568e-06
-1.58727e-05
1.55974e-05
-2.73304e-05
2.1369e-05
-4.08506e-05
2.56702e-05
-5.57342e-05
2.84863e-05
-7.13242e-05
2.99484e-05
-8.70253e-05
3.02219e-05
-0.000102299
2.9446e-05
-0.000116647
2.77127e-05
-0.000129594
2.50689e-05
-0.00014068
2.1532e-05
-0.000149454
1.71135e-05
-0.000155491
1.18457e-05
-0.00015841
5.80827e-06
-0.000157913
-8.46178e-07
-0.000153819
-7.89192e-06
-0.000146113
-1.49932e-05
-0.000134981
-2.17439e-05
-0.000120836
-2.76784e-05
-0.000104325
-3.23153e-05
-8.63092e-05
-3.52122e-05
-6.78145e-05
-3.60286e-05
-4.99511e-05
-3.45869e-05
-3.38084e-05
-3.09238e-05
-2.03319e-05
-2.53257e-05
-1.01964e-05
-1.83548e-05
-3.68312e-06
-1.08674e-05
-5.61465e-07
-4.03581e-06
3.97414e-07
-2.96568e-06
4.84623e-06
-1.09411e-05
1.66811e-05
-2.30758e-05
2.77321e-05
-3.84976e-05
3.67908e-05
-5.63258e-05
4.34984e-05
-7.57136e-05
4.78741e-05
-9.58759e-05
5.01107e-05
-0.000116096
5.04416e-05
-0.000135715
4.90654e-05
-0.000154118
4.6116e-05
-0.000170715
4.16653e-05
-0.000184929
3.57461e-05
-0.000196201
2.83857e-05
-0.000204002
1.96468e-05
-0.000207861
9.66688e-06
-0.000207403
-1.30433e-06
-0.000202397
-1.2898e-05
-0.00019281
-2.45802e-05
-0.000178851
-3.57024e-05
-0.000161007
-4.55223e-05
-0.000140053
-5.32697e-05
-0.000117032
-5.82326e-05
-9.3204e-05
-5.98569e-05
-6.99445e-05
-5.78464e-05
-4.86206e-05
-5.22476e-05
-3.04396e-05
-4.35066e-05
-1.6298e-05
-3.24964e-05
-6.65071e-06
-2.05147e-05
-1.41827e-06
-9.26824e-06
-1.02086e-06
-4.03917e-06
8.88539e-06
-1.44373e-05
2.70792e-05
-2.98142e-05
4.3109e-05
-4.89591e-05
5.59357e-05
-7.07772e-05
6.53164e-05
-9.42794e-05
7.13764e-05
-0.000118575
7.44068e-05
-0.00014286
7.47265e-05
-0.000166394
7.25993e-05
-0.00018848
6.82018e-05
-0.000208444
6.16294e-05
-0.000225624
5.29264e-05
-0.000239371
4.21328e-05
-0.000249063
2.93383e-05
-0.000254134
1.47381e-05
-0.000254124
-1.3141e-06
-0.000248718
-1.83049e-05
-0.000237824
-3.54736e-05
-0.000221626
-5.19001e-05
-0.000200629
-6.65195e-05
-0.000175685
-7.82138e-05
-0.000147984
-8.59338e-05
-0.000118997
-8.8844e-05
-9.03706e-05
-8.64726e-05
-6.37773e-05
-7.88409e-05
-4.07338e-05
-6.65501e-05
-2.24206e-05
-5.08096e-05
-9.53232e-06
-3.34029e-05
-2.19482e-06
-1.66057e-05
-3.21568e-06
-4.99068e-06
1.38761e-05
-1.7621e-05
3.97095e-05
-3.60281e-05
6.15161e-05
-5.86662e-05
7.85738e-05
-8.42222e-05
9.08724e-05
-0.000111568
9.87226e-05
-0.000139724
0.000102562
-0.00016782
0.000102822
-0.000195063
9.98421e-05
-0.000220704
9.3843e-05
-0.000244013
8.49388e-05
-0.000264263
7.31765e-05
-0.000280726
5.85959e-05
-0.000292687
4.12993e-05
-0.000299471
2.15217e-05
-0.000300509
-2.75642e-07
-0.000295344
-2.34708e-05
-0.000283779
-4.7038e-05
-0.000265905
-6.97746e-05
-0.00024218
-9.02437e-05
-0.000213485
-0.000106909
-0.000181124
-0.000118295
-0.000146784
-0.000123184
-0.000112421
-0.000120836
-8.00817e-05
-0.00011118
-5.16852e-05
-9.49467e-05
-2.87918e-05
-7.37029e-05
-1.24134e-05
-4.97814e-05
-2.90878e-06
-2.61103e-05
-6.12445e-06
-5.8434e-06
1.97195e-05
-2.05242e-05
5.43903e-05
-4.17536e-05
8.27456e-05
-6.76732e-05
0.000104493
-9.67608e-05
0.00011996
-0.000127759
0.00012972
-0.00015961
0.000134413
-0.0001914
0.000134613
-0.000222308
0.00013075
-0.00025156
0.000123094
-0.000278391
0.00011177
-0.000302026
9.6812e-05
-0.000321668
7.8237e-05
-0.0003365
5.61322e-05
-0.000345725
3.07466e-05
-0.000348586
2.58542e-06
-0.000344491
-2.75665e-05
-0.000333026
-5.85024e-05
-0.000314114
-8.86865e-05
-0.000288093
-0.000116265
-0.000255802
-0.0001392
-0.000218628
-0.000155469
-0.00017848
-0.000163332
-0.000137676
-0.000161639
-9.87435e-05
-0.000150113
-6.41345e-05
-0.000129556
-3.59251e-05
-0.000101912
-1.5549e-05
-7.01576e-05
-3.64021e-06
-3.80191e-05
-9.76466e-06
-6.61957e-06
2.63391e-05
-2.31921e-05
7.09628e-05
-4.70538e-05
0.000106607
-7.60634e-05
0.000133503
-0.000108507
0.000152404
-0.000143012
0.000164225
-0.00017846
0.000169862
-0.000213914
0.000170067
-0.000248547
0.000165384
-0.000281584
0.000156131
-0.000312251
0.000142437
-0.000339739
0.000124301
-0.000363187
0.000101685
-0.000381676
7.46208e-05
-0.000394249
4.332e-05
-0.000399957
8.29319e-06
-0.000397949
-2.95751e-05
-0.000387547
-6.89036e-05
-0.000368404
-0.000107829
-0.000340634
-0.000144036
-0.00030495
-0.000174884
-0.000262762
-0.000197657
-0.000216192
-0.000209902
-0.000167981
-0.00020985
-0.000121255
-0.000196839
-7.91746e-05
-0.000171636
-4.4517e-05
-0.00013657
-1.92929e-05
-9.53817e-05
-4.49648e-06
-5.28155e-05
-1.42611e-05
-7.33432e-06
3.36734e-05
-2.56606e-05
8.92891e-05
-5.1982e-05
0.000132929
-8.39044e-05
0.000165425
-0.000119544
0.000188043
-0.00015743
0.000202111
-0.000196404
0.000208835
-0.000235526
0.000209189
-0.000273989
0.000203847
-0.000311041
0.000193183
-0.000345923
0.000177319
-0.000377814
0.000156192
-0.000405799
0.00012967
-0.000428851
9.76727e-05
-0.000445841
6.03097e-05
-0.000455577
1.80292e-05
-0.000456893
-2.82587e-05
-0.000448754
-7.70433e-05
-0.00043043
-0.000126154
-0.000401688
-0.000172777
-0.000362996
-0.000213577
-0.000315688
-0.000244965
-0.000262058
-0.000263532
-0.000205304
-0.000266605
-0.000149281
-0.000252862
-9.80652e-05
-0.000222852
-5.53857e-05
-0.000179249
-2.40605e-05
-0.000126707
-5.59908e-06
-7.12769e-05
-1.98602e-05
-7.99523e-06
4.16686e-05
-2.79493e-05
0.000109243
-5.65666e-05
0.000161546
-9.12272e-05
0.000200086
-0.000129898
0.000226714
-0.00017103
0.000243243
-0.000213444
0.000251249
-0.00025622
0.000251966
-0.000298597
0.000246223
-0.000339875
0.000234461
-0.000379336
0.000216779
-0.00041617
0.000193027
-0.000449429
0.000162929
-0.000477983
0.000126227
-0.000500523
8.28496e-05
-0.000515584
3.30905e-05
-0.000521636
-2.22071e-05
-0.000517191
-8.14878e-05
-0.000501028
-0.000142317
-0.000472422
-0.000201383
-0.000431433
-0.000254566
-0.000379173
-0.000297225
-0.000318004
-0.000324701
-0.000251562
-0.000333046
-0.000184539
-0.000319885
-0.000122162
-0.000285229
-6.94345e-05
-0.000231977
-3.03135e-05
-0.000165828
-7.0807e-06
-9.45096e-05
-2.69409e-05
-8.6036e-06
5.02722e-05
-3.00621e-05
0.000130702
-6.08093e-05
0.000192293
-9.8021e-05
0.000237298
-0.000139533
0.000268227
-0.000183735
0.000287444
-0.000229445
0.000296959
-0.000275788
0.000298308
-0.000322071
0.000292507
-0.000367678
0.000280068
-0.00041196
0.000261061
-0.000454153
0.00023522
-0.000493299
0.000202075
-0.000528192
0.00016112
-0.00055735
0.000112008
-0.000579029
5.47691e-05
-0.000591303
-9.93256e-06
-0.000592168
-8.06228e-05
-0.000579803
-0.000154682
-0.000552842
-0.000228344
-0.000510743
-0.000296664
-0.000454186
-0.000353782
-0.000385405
-0.000393482
-0.000308368
-0.000410083
-0.000228642
-0.000399611
-0.000152835
-0.000361035
-8.76203e-05
-0.000297192
-3.85535e-05
-0.000214895
-9.08634e-06
-0.000123977
-3.60273e-05
-9.1567e-06
5.94289e-05
-3.19917e-05
0.000153537
-6.4691e-05
0.000224993
-0.00010424
0.000276847
-0.000148355
0.000312342
-0.000195377
0.000334465
-0.000244136
0.000345719
-0.000293821
0.000347993
-0.000343834
0.000342521
-0.000393667
0.000329901
-0.000442777
0.000310171
-0.000490479
0.000282921
-0.000535847
0.000247442
-0.000577635
0.000202908
-0.000614228
0.000148601
-0.000643631
8.41712e-05
-0.000663517
9.95384e-06
-0.000671363
-7.27767e-05
-0.000664665
-0.000161379
-0.00064128
-0.00025173
-0.00059986
-0.000338085
-0.000540373
-0.000413269
-0.00046463
-0.000469225
-0.000376679
-0.000498034
-0.000282869
-0.000493421
-0.000191353
-0.000452552
-0.000110913
-0.000377632
-4.93172e-05
-0.00027649
-1.17762e-05
-0.000161518
-4.78035e-05
-9.65078e-06
6.90797e-05
-3.37283e-05
0.000177614
-6.81858e-05
0.00025945
-0.000109822
0.000318483
-0.000156235
0.000358755
-0.000205721
0.000383951
-0.000257136
0.000397133
-0.000309741
0.000400599
-0.000363057
0.000395836
-0.000416708
0.000383551
-0.000470287
0.000363751
-0.00052323
0.000335864
-0.000574692
0.000298904
-0.000623446
0.000251663
-0.000667811
0.000192966
-0.000705609
0.000121969
-0.000734179
3.85237e-05
-0.000750517
-5.64388e-05
-0.000751429
-0.000160467
-0.000733909
-0.000269249
-0.000695612
-0.000376382
-0.000635483
-0.000473398
-0.000554495
-0.000550214
-0.00045634
-0.000596188
-0.000347845
-0.000601917
-0.000238704
-0.000561693
-0.000140229
-0.000476107
-6.31664e-05
-0.000353552
-1.53295e-05
-0.000209355
-6.31329e-05
-1.00853e-05
7.9165e-05
-3.52718e-05
0.0002028
-7.12816e-05
0.00029546
-0.000114715
0.000361917
-0.000163043
0.000407082
-0.00021451
0.000435418
-0.000267997
0.000450621
-0.000322852
0.000455454
-0.00037872
0.000451704
-0.000435379
0.00044021
-0.000492588
0.000420959
-0.000549939
0.000393216
-0.000606726
0.000355691
-0.000661819
0.000306756
-0.000713566
0.000244713
-0.000759725
0.000168128
-0.000797443
7.62422e-05
-0.000823331
-3.05514e-05
-0.000833609
-0.000150189
-0.000824412
-0.000278445
-0.000792271
-0.000408524
-0.000734805
-0.000530864
-0.000651651
-0.000633367
-0.000545519
-0.000702321
-0.000423102
-0.000724334
-0.000295333
-0.000689462
-0.00017632
-0.000595121
-8.06644e-05
-0.000449207
-1.99468e-05
-0.000270072
-8.30797e-05
-1.04688e-05
8.96338e-05
-3.66485e-05
0.00022898
-7.40093e-05
0.000332821
-0.00011892
0.000406828
-0.000168695
0.000456857
-0.000221516
0.000488239
-0.000276281
0.000505386
-0.000332422
0.000511595
-0.000389715
0.000508997
-0.000448102
0.000498597
-0.000507526
0.000480384
-0.000567777
0.000453466
-0.000628341
0.000416255
-0.000688274
0.00036669
-0.000746078
0.000302517
-0.000799607
0.000221656
-0.00084601
0.000122645
-0.000881724
5.16267e-06
-0.000902586
-0.000129328
-0.000904005
-0.000277026
-0.000881386
-0.000431142
-0.00083081
-0.00058144
-0.000750077
-0.000714101
-0.000640114
-0.000812284
-0.000506539
-0.000857908
-0.000360764
-0.000835238
-0.000219589
-0.000736295
-0.000102326
-0.00056647
-2.58494e-05
-0.000346549
-0.000108929
-1.08262e-05
0.00010046
-3.79336e-05
0.000256088
-7.64801e-05
0.000371367
-0.000122538
0.000452886
-0.000173221
0.000507541
-0.000226622
0.00054164
-0.000281643
0.000560407
-0.000337796
0.000567747
-0.000394985
0.000566186
-0.00045332
0.000556933
-0.000512941
0.000540005
-0.000573859
0.000514384
-0.000635814
0.000478209
-0.000698133
0.000429009
-0.000759611
0.000363995
-0.000818387
0.000280432
-0.000871851
0.000176109
-0.000916574
4.98861e-05
-0.000948291
-9.76115e-05
-0.000961993
-0.000263324
-0.000952138
-0.000440997
-0.000913228
-0.00062035
-0.000840837
-0.000786491
-0.000733279
-0.000919842
-0.000593852
-0.000997336
-0.000433113
-0.000995976
-0.000269814
-0.000899595
-0.000128529
-0.000707754
-3.32708e-05
-0.000441808
-0.0001422
-1.12093e-05
0.000111669
-3.928e-05
0.000284158
-7.89321e-05
0.000411019
-0.000125833
0.000499787
-0.000176831
0.000558539
-0.000229898
0.000594706
-0.000283933
0.000614442
-0.00033852
0.000622334
-0.000393691
0.000621357
-0.000449721
0.000612963
-0.000506951
0.000597234
-0.000565635
0.000573068
-0.000625808
0.000538383
-0.000687158
0.000490359
-0.000748899
0.000425736
-0.00080965
0.000341183
-0.000867307
0.000233766
-0.000918905
0.000101484
-0.000960441
-5.60757e-05
-0.000986971
-0.000236794
-0.000992365
-0.000435603
-0.000969768
-0.000642946
-0.000912417
-0.000843843
-0.00081533
-0.00101693
-0.000678113
-0.00113455
-0.000508585
-0.0011655
-0.000325789
-0.00108239
-0.000159377
-0.000874167
-4.24407e-05
-0.000558744
-0.000184641
-1.17118e-05
0.000123381
-4.09571e-05
0.000313403
-8.17878e-05
0.00045185
-0.000129298
0.000547298
-0.000179988
0.000609229
-0.000231685
0.000646403
-0.000283285
0.000666042
-0.000334456
0.000673504
-0.000385361
0.000672263
-0.000436443
0.000664045
-0.000488244
0.000649036
-0.000541277
0.000626101
-0.000595904
0.000593009
-0.000652234
0.000546689
-0.000710014
0.000483516
-0.000768507
0.000399677
-0.000826349
0.000291608
-0.00088139
0.000156525
-0.000930214
-7.25214e-06
-0.000968594
-0.000198414
-0.000990282
-0.000413915
-0.000987628
-0.0006456
-0.000951811
-0.000879661
-0.000874279
-0.00109446
-0.000749758
-0.00125907
-0.000581092
-0.00133417
-0.000384932
-0.00127855
-0.00019452
-0.00106458
-5.35639e-05
-0.0006997
-0.000238204
-1.24913e-05
0.000135872
-4.3404e-05
0.000344316
-8.57247e-05
0.000494171
-0.000133728
0.000595301
-0.000183475
0.000658975
-0.000232646
0.000695575
-0.000280173
0.000713569
-0.000325844
0.000719175
-0.000369982
0.000716401
-0.000413209
0.000707271
-0.00045628
0.000692107
-0.00049997
0.000669791
-0.000544992
0.000638031
-0.000591912
0.00059361
-0.000641077
0.000532681
-0.000692503
0.000451103
-0.000745732
0.000344836
-0.000799593
0.000210387
-0.000852109
4.52639e-05
-0.0008995
-0.000151024
-0.000936561
-0.000376854
-0.00095556
-0.000626601
-0.000946355
-0.000888866
-0.000897165
-0.00114365
-0.00079721
-0.00135903
-0.000642242
-0.00148914
-0.000442971
-0.00147782
-0.000232968
-0.00127458
-6.68068e-05
-0.000865861
-0.000305011
-1.38083e-05
0.000149681
-4.73093e-05
0.000377817
-9.17644e-05
0.000538626
-0.000140287
0.000643824
-0.000188423
0.000707111
-0.000233768
0.00074092
-0.000275382
0.000755183
-0.000313263
0.000757056
-0.000347955
0.000751093
-0.000380298
0.000739615
-0.00041128
0.000723088
-0.000441949
0.000700461
-0.00047337
0.000669452
-0.000506581
0.000626821
-0.000542545
0.000568645
-0.000582069
0.000490627
-0.000625675
0.000388442
-0.000673388
0.0002581
-0.00072447
9.63461e-05
-0.000776709
-9.87847e-05
-0.000826145
-0.000327418
-0.000865973
-0.000586772
-0.000885893
-0.000868946
-0.000871957
-0.00115759
-0.000808196
-0.00142279
-0.000681844
-0.00161549
-0.00049385
-0.00166581
-0.000272916
-0.00149552
-8.23093e-05
-0.00105647
-0.000387321
-1.60944e-05
0.000165775
-5.37311e-05
0.000415454
-0.00010138
0.000586275
-0.000150557
0.000693001
-0.000196286
0.00075284
-0.000236246
0.00078088
-0.000269826
0.000788763
-0.000297391
0.000784621
-0.000319819
0.00077352
-0.000338234
0.00075803
-0.000353888
0.000738743
-0.000368117
0.00071469
-0.000382331
0.000683665
-0.000398017
0.000642506
-0.00041672
0.000587348
-0.000440001
0.000513908
-0.000469325
0.000417766
-0.000505887
0.000294661
-0.000550311
0.000140771
-0.000602087
-4.70093e-05
-0.000659072
-0.000270432
-0.000716244
-0.000529601
-0.000764512
-0.000820678
-0.000789473
-0.00113263
-0.000771399
-0.00144086
-0.000688897
-0.00169799
-0.000529915
-0.0018248
-0.000311613
-0.00171382
-0.000100232
-0.00126785
-0.000487553
-2.00804e-05
0.000185856
-6.42841e-05
0.000459658
-0.00011661
0.000638601
-0.000166498
0.000742889
-0.000208628
0.00079497
-0.000241132
0.000813384
-0.000264066
0.000811697
-0.000278417
0.000798972
-0.000285557
0.000780661
-0.000286994
0.000759467
-0.000284289
0.000736038
-0.00027907
0.00070947
-0.000273068
0.000677663
-0.000268164
0.000637603
-0.000266407
0.000585591
-0.000269996
0.000517497
-0.000281218
0.000428988
-0.000302297
0.000315741
-0.000335171
0.000173645
-0.00038091
-1.27045e-06
-0.000439554
-0.000211789
-0.000508431
-0.000460724
-0.000580991
-0.000748118
-0.000644451
-0.00106917
-0.000677809
-0.00140751
-0.000652659
-0.00172314
-0.000542289
-0.00193517
-0.000345218
-0.00191089
-0.000120809
-0.00149226
-0.000608362
-2.70355e-05
0.000212891
-8.14057e-05
0.000514028
-0.000140102
0.000697297
-0.000190172
0.000792959
-0.000226531
0.000831329
-0.000248454
0.000835307
-0.000257202
0.000820445
-0.000254739
0.000796509
-0.000243144
0.000769066
-0.000224414
0.000740737
-0.000200464
0.000712088
-0.000173199
0.000682206
-0.000144618
0.000649082
-0.000116914
0.000609899
-9.24994e-05
0.000561176
-7.40602e-05
0.000499058
-6.45028e-05
0.000419431
-6.68577e-05
0.000318095
-8.40916e-05
0.000190879
-0.000119014
3.36517e-05
-0.000173234
-0.000157568
-0.000247074
-0.000386885
-0.000337407
-0.000657785
-0.00043508
-0.000971492
-0.000521013
-0.00132157
-0.000563185
-0.00168097
-0.000521036
-0.00197731
-0.000368462
-0.00206346
-0.000144266
-0.00171645
-0.000752628
-3.92011e-05
0.000252092
-0.000108651
0.000583478
-0.000174812
0.000763458
-0.000222744
0.000840891
-0.000248985
0.000857571
-0.000255135
0.000841457
-0.000244433
0.000809743
-0.000220264
0.00077234
-0.000185637
0.000734439
-0.000143129
0.000698229
-9.50082e-05
0.000663967
-4.34088e-05
0.000630606
9.49708e-06
0.000596176
6.13973e-05
0.000557999
0.000109642
0.000512931
0.00015128
0.000457421
0.000183012
0.000387699
0.00020124
0.000299867
0.000202163
0.000189956
0.000181914
5.39012e-05
0.000136979
-0.000112633
6.4575e-05
-0.00031448
-3.60073e-05
-0.000557203
-0.000160777
-0.000846722
-0.000296051
-0.0011863
-0.000410659
-0.00156636
-0.000454571
-0.0019334
-0.000373698
-0.00214434
-0.000170243
-0.00191991
-0.000922872
-6.05181e-05
0.00031261
-0.00015068
0.00067364
-0.000222457
0.000835235
-0.000261489
0.000879923
-0.000268806
0.000864888
-0.000250173
0.000822823
-0.000211793
0.000771363
-0.000158917
0.000719463
-9.56267e-05
0.000671148
-2.50583e-05
0.000627661
5.02763e-05
0.000588632
0.00012818
0.000552703
0.000206512
0.000517844
0.000282967
0.000481543
0.000354965
0.000440933
0.000419514
0.000392872
0.000473177
0.000334035
0.000512067
0.000260978
0.000531865
0.000170157
0.000527878
5.78884e-05
0.000495198
-7.99531e-05
0.00042891
-0.000248193
0.000324748
-0.000453041
0.000181232
-0.000703207
4.65761e-06
-0.00100972
-0.000183109
-0.0013786
-0.000327664
-0.00178885
-0.000348596
-0.00212341
-0.000196032
-0.00207247
-0.0011189
-9.74718e-05
0.000410082
-0.00021137
0.000787538
-0.000277839
0.000901704
-0.000291306
0.00089339
-0.000262543
0.000836125
-0.000203909
0.000764189
-0.00012545
0.000692905
-3.43927e-05
0.000628406
6.43363e-05
0.000572419
0.000167391
0.000524606
0.000272385
0.000483638
0.000377412
0.000447676
0.000480682
0.000414574
0.000580261
0.000381964
0.000673881
0.000347313
0.000758803
0.00030795
0.000831733
0.000261105
0.00088877
0.00020394
0.000925375
0.000133552
0.000936316
4.69472e-05
0.000915782
-5.9419e-05
0.000857296
-0.000189707
0.000753782
-0.000349526
0.000598541
-0.000547965
0.000388565
-0.000799749
0.000135586
-0.00112562
-0.000116282
-0.00153698
-0.000271355
-0.00196833
-0.000213362
-0.00213046
-0.00133227
-0.000158334
0.000568416
-0.000283143
0.000912347
-0.00030995
0.00092851
-0.000261954
0.000845395
-0.000167276
0.000741446
-4.64411e-05
0.000643355
8.72992e-05
0.000559165
0.000225986
0.000489719
0.000365095
0.000433311
0.000502134
0.000387567
0.00063569
0.000350082
0.0007648
0.000318566
0.000888541
0.000290833
0.00100574
0.000264761
0.0011148
0.000238257
0.00121352
0.000209235
0.00129902
0.000175604
0.00136768
0.000135272
0.00141508
8.61558e-05
0.00143575
2.62738e-05
0.00142358
-4.72471e-05
0.00137113
-0.00013725
0.00126955
-0.000247955
0.00110856
-0.000386975
0.000877374
-0.00056856
0.000571329
-0.000819571
0.000213986
-0.00117964
-0.000101255
-0.00165309
-0.00020284
-0.00202888
-0.00153511
-0.000240929
0.000809345
-0.000299427
0.000970845
-0.000203898
0.000832981
-3.31429e-05
0.00067464
0.000164839
0.000543465
0.000367093
0.0004411
0.000562964
0.000363293
0.000748051
0.000304632
0.000921179
0.000260183
0.00108266
0.000226089
0.0012333
0.000199437
0.00137391
0.000177957
0.00150495
0.000159792
0.00162638
0.000143338
0.00173748
0.00012715
0.00183684
0.000109881
0.0019222
9.02413e-05
0.00199049
6.69807e-05
0.00203775
3.88947e-05
0.00205884
5.19021e-06
0.002048
-3.64087e-05
0.00199751
-8.67656e-05
0.00189821
-0.000148648
0.00173808
-0.000226847
0.00150106
-0.000331541
0.00116737
-0.000485877
0.000727443
-0.000739714
0.000240371
-0.00116602
-8.74714e-05
-0.00170104
-0.00162258
-0.000189829
0.000999174
2.83084e-05
0.000752708
0.00038499
0.0004763
0.000724224
0.000335406
0.001024
0.000243692
0.00128445
0.000180652
0.00150981
0.000137927
0.00170555
0.000108894
0.00187702
8.87171e-05
0.0020288
7.43014e-05
0.00216456
6.36836e-05
0.00228697
5.55383e-05
0.00239786
4.89065e-05
0.00249815
4.30473e-05
0.00258795
3.73521e-05
0.00266654
3.12939e-05
0.00273237
2.44041e-05
0.00278307
1.62784e-05
0.00281534
6.62711e-06
0.00282594
-5.40382e-06
0.00280918
-1.96485e-05
0.00275908
-3.66708e-05
0.00266791
-5.74764e-05
0.00252473
-8.36629e-05
0.00231248
-0.000119299
0.00200215
-0.000175541
0.00154769
-0.00028526
0.000923858
-0.000542182
0.000262153
-0.00103933
-0.00136042
0.000999174
0.00175188
0.00222818
0.00256359
0.00280728
0.00298793
0.00312586
0.00323475
0.00332347
0.00339777
0.00346145
0.00351699
0.0035659
0.00360895
0.0036463
0.00367759
0.003702
0.00371827
0.0037249
0.0037195
0.00369985
0.00366318
0.0036057
0.00352204
0.00340274
0.0032272
0.00294194
0.00239976
0.00136042
)
;

boundaryField
{
    movingWall
    {
        type            calculated;
        value           uniform 0;
    }
    fixedWalls
    {
        type            calculated;
        value           uniform 0;
    }
    frontAndBack
    {
        type            empty;
        value           nonuniform 0();
    }
}


// ************************************************************************* //
