/*--------------------------------*- C++ -*----------------------------------*\
  =========                 |
  \\      /  F ield         | OpenFOAM: The Open Source CFD Toolbox
   \\    /   O peration     | Website:  https://openfoam.org
    \\  /    A nd           | Version:  7
     \\/     M anipulation  |
\*---------------------------------------------------------------------------*/
FoamFile
{
    version     2.0;
    format      ascii;
    class       volVectorField;
    location    "2.9";
    object      U;
}
// * * * * * * * * * * * * * * * * * * * * * * * * * * * * * * * * * * * * * //

dimensions      [0 1 -1 0 0 0 0];

internalField   nonuniform List<vector> 
900
(
(9.61038e-05 -9.53115e-05 0)
(0.000118651 -8.68258e-06 0)
(-0.000208735 0.000112449 0)
(-0.000852044 0.000213221 0)
(-0.00172977 0.000281842 0)
(-0.00276747 0.000322324 0)
(-0.00389691 0.000341708 0)
(-0.00506277 0.000345874 0)
(-0.00622097 0.000338582 0)
(-0.00733434 0.000321655 0)
(-0.00836882 0.000295464 0)
(-0.00929078 0.000259462 0)
(-0.0100655 0.000212732 0)
(-0.0106573 0.000154537 0)
(-0.0110308 8.48504e-05 0)
(-0.0111538 4.79092e-06 0)
(-0.0110008 -8.32761e-05 0)
(-0.0105576 -0.000174845 0)
(-0.00982613 -0.000263979 0)
(-0.00882809 -0.000343488 0)
(-0.00760708 -0.000405584 0)
(-0.00622876 -0.000442846 0)
(-0.00477779 -0.00044929 0)
(-0.00335201 -0.000421325 0)
(-0.00205424 -0.000358357 0)
(-0.000980792 -0.00026307 0)
(-0.000204158 -0.000143647 0)
(0.00021279 -2.15009e-05 0)
(0.000276312 8.94387e-05 0)
(0.000115031 0.000113818 0)
(1.27317e-05 -0.000122099 0)
(-0.000372676 0.000372237 0)
(-0.00152932 0.000965271 0)
(-0.00333928 0.00146868 0)
(-0.00566308 0.00183558 0)
(-0.00835213 0.00206949 0)
(-0.0112602 0.00218997 0)
(-0.0142573 0.00221746 0)
(-0.0172313 0.00216724 0)
(-0.0200824 0.00204818 0)
(-0.0227183 0.00186369 0)
(-0.0250494 0.00161364 0)
(-0.0269867 0.00129668 0)
(-0.0284428 0.000912886 0)
(-0.0293349 0.000466138 0)
(-0.0295915 -3.3699e-05 0)
(-0.0291596 -0.000569202 0)
(-0.0280144 -0.00111461 0)
(-0.0261696 -0.00163666 0)
(-0.0236834 -0.00209661 0)
(-0.020663 -0.00245383 0)
(-0.0172637 -0.00267059 0)
(-0.0136814 -0.00271748 0)
(-0.0101388 -0.00257851 0)
(-0.00686691 -0.00225503 0)
(-0.00407968 -0.00176848 0)
(-0.00194647 -0.00116574 0)
(-0.000570426 -0.000531991 0)
(5.80364e-05 2.89428e-05 0)
(9.80357e-05 0.000276432 0)
(-0.00011431 0.000205786 0)
(-0.0010113 0.00153861 0)
(-0.00306877 0.00296342 0)
(-0.00600484 0.00417079 0)
(-0.00962154 0.00507127 0)
(-0.0137263 0.00566028 0)
(-0.0181237 0.00596818 0)
(-0.0226337 0.0060328 0)
(-0.0270949 0.00588544 0)
(-0.0313605 0.00554624 0)
(-0.0352926 0.00502486 0)
(-0.0387576 0.00432413 0)
(-0.0416252 0.00344513 0)
(-0.0437689 0.002393 0)
(-0.0450717 0.00118261 0)
(-0.0454342 -0.000156549 0)
(-0.0447849 -0.00157672 0)
(-0.043093 -0.00301112 0)
(-0.0403811 -0.00437554 0)
(-0.0367335 -0.00557363 0)
(-0.0323021 -0.00650566 0)
(-0.0273047 -0.00708 0)
(-0.0220151 -0.00722623 0)
(-0.0167446 -0.00690767 0)
(-0.0118152 -0.00613181 0)
(-0.00752658 -0.00495781 0)
(-0.00411845 -0.00350336 0)
(-0.00173227 -0.00195313 0)
(-0.00038332 -0.000564485 0)
(1.91542e-05 0.000247507 0)
(-0.000235494 0.000892391 0)
(-0.00163608 0.00346006 0)
(-0.00458112 0.0059617 0)
(-0.00859609 0.00804307 0)
(-0.013407 0.00959401 0)
(-0.0187808 0.0106105 0)
(-0.0244843 0.0111364 0)
(-0.030302 0.0112278 0)
(-0.0360383 0.0109324 0)
(-0.0415127 0.0102826 0)
(-0.0465537 0.00929516 0)
(-0.050995 0.00797738 0)
(-0.0546741 0.00633478 0)
(-0.0574338 0.0043807 0)
(-0.0591288 0.00214573 0)
(-0.0596355 -0.000314286 0)
(-0.058864 -0.00291317 0)
(-0.0567729 -0.00553108 0)
(-0.0533849 -0.00801921 0)
(-0.0487978 -0.0102084 0)
(-0.043192 -0.0119236 0)
(-0.0368297 -0.0130043 0)
(-0.0300451 -0.0133263 0)
(-0.023222 -0.0128252 0)
(-0.0167617 -0.0115141 0)
(-0.0110432 -0.00949726 0)
(-0.00637651 -0.00697761 0)
(-0.00295451 -0.00426007 0)
(-0.00084287 -0.00175496 0)
(-5.79282e-05 -3.47795e-05 0)
(-0.000339232 0.00189959 0)
(-0.0022048 0.00609622 0)
(-0.00599117 0.0099059 0)
(-0.0110259 0.012998 0)
(-0.0169514 0.0152779 0)
(-0.0234916 0.0167607 0)
(-0.0303806 0.0175123 0)
(-0.037376 0.01761 0)
(-0.0442584 0.0171192 0)
(-0.0508241 0.016084 0)
(-0.0568785 0.0145287 0)
(-0.0622311 0.0124646 0)
(-0.066694 0.0099019 0)
(-0.0700839 0.006863 0)
(-0.0722287 0.00339581 0)
(-0.0729786 -0.000414512 0)
(-0.0722187 -0.0044385 0)
(-0.0698867 -0.00849603 0)
(-0.0659923 -0.0123639 0)
(-0.0606314 -0.0157874 0)
(-0.0539973 -0.0185011 0)
(-0.0463837 -0.0202589 0)
(-0.0381761 -0.020868 0)
(-0.0298286 -0.0202235 0)
(-0.0218267 -0.0183384 0)
(-0.0146396 -0.0153632 0)
(-0.00866357 -0.0115939 0)
(-0.00416274 -0.00746687 0)
(-0.00127107 -0.00354722 0)
(-0.00011914 -0.000553517 0)
(-0.00042741 0.00319537 0)
(-0.00271461 0.00939806 0)
(-0.00728386 0.0147464 0)
(-0.013275 0.018982 0)
(-0.020246 0.022061 0)
(-0.0278773 0.0240401 0)
(-0.0358727 0.0250198 0)
(-0.0439683 0.0251049 0)
(-0.0519289 0.0243807 0)
(-0.0595363 0.0229038 0)
(-0.066581 0.0207046 0)
(-0.0728552 0.0177969 0)
(-0.0781507 0.0141934 0)
(-0.0822599 0.0099228 0)
(-0.0849817 0.00504811 0)
(-0.0861344 -0.000317399 0)
(-0.0855669 -0.00599667 0)
(-0.0831809 -0.0117489 0)
(-0.0789559 -0.017268 0)
(-0.0729666 -0.0222001 0)
(-0.065402 -0.0261716 0)
(-0.0565753 -0.0288288 0)
(-0.046919 -0.0298869 0)
(-0.0369629 -0.0291804 0)
(-0.0272927 -0.0267083 0)
(-0.0184921 -0.022663 0)
(-0.0110722 -0.0174397 0)
(-0.00539468 -0.0116208 0)
(-0.00167804 -0.00594144 0)
(-0.000165677 -0.00128138 0)
(-0.000504231 0.00474815 0)
(-0.00317434 0.0133109 0)
(-0.00846827 0.0204226 0)
(-0.0153545 0.0259331 0)
(-0.0233108 0.0298809 0)
(-0.0319755 0.0323871 0)
(-0.0410248 0.0336017 0)
(-0.0501789 0.0336655 0)
(-0.059193 0.0326877 0)
(-0.067842 0.0307379 0)
(-0.0759085 0.027851 0)
(-0.0831738 0.0240397 0)
(-0.0894129 0.0193142 0)
(-0.0943946 0.0137038 0)
(-0.0978853 0.00728035 0)
(-0.0996591 0.000179543 0)
(-0.099518 -0.00738 0)
(-0.0973116 -0.015094 0)
(-0.0929633 -0.0225676 0)
(-0.0865034 -0.0293341 0)
(-0.0780957 -0.0348895 0)
(-0.0680574 -0.0387434 0)
(-0.0568633 -0.040485 0)
(-0.0451277 -0.0398558 0)
(-0.0335595 -0.0368157 0)
(-0.0228921 -0.0315883 0)
(-0.0137917 -0.0246742 0)
(-0.00675404 -0.0168236 0)
(-0.0021049 -0.00897426 0)
(-0.000205678 -0.00220998 0)
(-0.000573082 0.00653272 0)
(-0.00359391 0.0177854 0)
(-0.00955981 0.0268765 0)
(-0.0172846 0.0337929 0)
(-0.0261728 0.0386829 0)
(-0.035824 0.0417541 0)
(-0.0458913 0.0432219 0)
(-0.0560838 0.0432729 0)
(-0.0661537 0.0420451 0)
(-0.0758762 0.0396222 0)
(-0.0850329 0.036041 0)
(-0.0933998 0.0313082 0)
(-0.100739 0.0254234 0)
(-0.106796 0.0184068 0)
(-0.1113 0.0103281 0)
(-0.113975 0.00133465 0)
(-0.114556 -0.00832571 0)
(-0.112819 -0.0182864 0)
(-0.108607 -0.0280606 0)
(-0.101877 -0.0370556 0)
(-0.0927387 -0.0446106 0)
(-0.0814915 -0.0500601 0)
(-0.0686417 -0.0528205 0)
(-0.0548947 -0.0524913 0)
(-0.0411085 -0.0489528 0)
(-0.0282103 -0.0424386 0)
(-0.0170756 -0.033559 0)
(-0.00838487 -0.0232636 0)
(-0.00260847 -0.0127445 0)
(-0.00024944 -0.00335827 0)
(-0.000636019 0.00852966 0)
(-0.00398055 0.0227795 0)
(-0.0105713 0.0340568 0)
(-0.0190827 0.0425094 0)
(-0.0288531 0.0484202 0)
(-0.0394488 0.0521044 0)
(-0.0505045 0.0538587 0)
(-0.0617241 0.0539265 0)
(-0.0728635 0.0524803 0)
(-0.0837054 0.0496191 0)
(-0.0940379 0.0453787 0)
(-0.103638 0.0397528 0)
(-0.112261 0.0327201 0)
(-0.119627 0.0242777 0)
(-0.125429 0.0144768 0)
(-0.129329 0.00345876 0)
(-0.130985 -0.00851163 0)
(-0.130072 -0.0210193 0)
(-0.126326 -0.0334864 0)
(-0.119595 -0.0451821 0)
(-0.1099 -0.0552602 0)
(-0.0974887 -0.0628329 0)
(-0.0828777 -0.0670817 0)
(-0.0668605 -0.0673945 0)
(-0.0504675 -0.06351 0)
(-0.0348698 -0.0556317 0)
(-0.0212207 -0.0444783 0)
(-0.0104576 -0.0312378 0)
(-0.0032544 -0.0174293 0)
(-0.000307874 -0.00477826 0)
(-0.000693964 0.0107228 0)
(-0.00433807 0.0282563 0)
(-0.01151 0.0419162 0)
(-0.0207576 0.0520334 0)
(-0.0313606 0.0590478 0)
(-0.0428566 0.0634028 0)
(-0.0548676 0.0654926 0)
(-0.0670983 0.0656289 0)
(-0.0793155 0.064025 0)
(-0.0913169 0.0607968 0)
(-0.102905 0.0559764 0)
(-0.113867 0.0495361 0)
(-0.123953 0.041421 0)
(-0.13287 0.0315877 0)
(-0.140266 0.0200477 0)
(-0.145743 0.00691355 0)
(-0.148864 -0.00755608 0)
(-0.149189 -0.0229159 0)
(-0.146313 -0.0385063 0)
(-0.139942 -0.0534515 0)
(-0.129961 -0.0666922 0)
(-0.11652 -0.0770663 0)
(-0.100108 -0.0834426 0)
(-0.0815864 -0.0849044 0)
(-0.0621685 -0.0809546 0)
(-0.043319 -0.0716993 0)
(-0.0265533 -0.0579464 0)
(-0.0131623 -0.0411653 0)
(-0.00411539 -0.0232958 0)
(-0.000392446 -0.00655848 0)
(-0.000747018 0.0130973 0)
(-0.00466727 0.0341805 0)
(-0.012377 0.0504082 0)
(-0.0223089 0.0623142 0)
(-0.0336893 0.0705167 0)
(-0.046032 0.0756072 0)
(-0.0589511 0.078094 0)
(-0.0721582 0.0783694 0)
(-0.0854376 0.0766951 0)
(-0.0986099 0.0732063 0)
(-0.111501 0.067928 0)
(-0.123916 0.0608029 0)
(-0.135613 0.0517282 0)
(-0.146285 0.0406001 0)
(-0.155548 0.0273654 0)
(-0.16294 0.0120782 0)
(-0.167928 -0.00503902 0)
(-0.169938 -0.023537 0)
(-0.168407 -0.0426948 0)
(-0.162856 -0.0614957 0)
(-0.152987 -0.0786469 0)
(-0.138794 -0.0926595 0)
(-0.120676 -0.102002 0)
(-0.0995126 -0.105334 0)
(-0.0766888 -0.10179 0)
(-0.0539993 -0.0912659 0)
(-0.0334141 -0.0746059 0)
(-0.0167051 -0.0535951 0)
(-0.00527134 -0.0307094 0)
(-0.000515659 -0.00882716 0)
(-0.000794779 0.0156379 0)
(-0.00496696 0.0405166 0)
(-0.0131695 0.0594844 0)
(-0.0237286 0.0732955 0)
(-0.0358211 0.0827671 0)
(-0.0489398 0.0886587 0)
(-0.0626946 0.0916102 0)
(-0.0768092 0.0921075 0)
(-0.0910915 0.0904697 0)
(-0.105393 0.0868543 0)
(-0.119571 0.0812772 0)
(-0.133459 0.0736435 0)
(-0.146832 0.0637882 0)
(-0.159385 0.0515261 0)
(-0.17071 0.0367116 0)
(-0.18029 0.0193079 0)
(-0.187502 -0.000536358 0)
(-0.191639 -0.0224049 0)
(-0.191964 -0.0455479 0)
(-0.187787 -0.0688266 0)
(-0.178578 -0.0907104 0)
(-0.164103 -0.109343 0)
(-0.144585 -0.122704 0)
(-0.120841 -0.128888 0)
(-0.0943687 -0.126485 0)
(-0.0672973 -0.115001 0)
(-0.0421392 -0.0952073 0)
(-0.0213043 -0.0692065 0)
(-0.00681052 -0.0401412 0)
(-0.000691857 -0.0117562 0)
(-0.000836703 0.0183281 0)
(-0.00523555 0.0472272 0)
(-0.0138834 0.0690917 0)
(-0.0250058 0.0849115 0)
(-0.0377308 0.0957225 0)
(-0.0515307 0.102473 0)
(-0.0660133 0.105952 0)
(-0.0809176 0.106755 0)
(-0.0960801 0.105268 0)
(-0.111389 0.101674 0)
(-0.126743 0.095982 0)
(-0.142011 0.0880513 0)
(-0.157001 0.0776422 0)
(-0.171422 0.0644687 0)
(-0.184863 0.0482661 0)
(-0.196771 0.0288722 0)
(-0.206452 0.0063212 0)
(-0.213084 -0.0190522 0)
(-0.215761 -0.0465127 0)
(-0.213571 -0.0748396 0)
(-0.205713 -0.102286 0)
(-0.191655 -0.126613 0)
(-0.171338 -0.14524 0)
(-0.145388 -0.155548 0)
(-0.115297 -0.15536 0)
(-0.083474 -0.143538 0)
(-0.0530285 -0.120564 0)
(-0.027183 -0.0887966 0)
(-0.00883096 -0.0521723 0)
(-0.000938361 -0.0155659 0)
(-0.000872576 0.0211507 0)
(-0.00547325 0.0542734 0)
(-0.0145184 0.0791724 0)
(-0.0261339 0.097085 0)
(-0.0393956 0.109285 0)
(-0.0537528 0.116931 0)
(-0.0688108 0.120983 0)
(-0.0843249 0.122159 0)
(-0.100163 0.120925 0)
(-0.116255 0.117499 0)
(-0.132546 0.111878 0)
(-0.148953 0.103878 0)
(-0.165326 0.093173 0)
(-0.181411 0.0793612 0)
(-0.196815 0.0620359 0)
(-0.210984 0.0408781 0)
(-0.223187 0.015767 0)
(-0.232523 -0.0130952 0)
(-0.237951 -0.0450465 0)
(-0.238353 -0.0788478 0)
(-0.232642 -0.112592 0)
(-0.219931 -0.143684 0)
(-0.199764 -0.168952 0)
(-0.172409 -0.184937 0)
(-0.139162 -0.188444 0)
(-0.102562 -0.177341 0)
(-0.0662942 -0.151468 0)
(-0.034555 -0.113248 0)
(-0.0114409 -0.0674935 0)
(-0.00127689 -0.0205317 0)
(-0.000903134 0.0240892 0)
(-0.00568502 0.0616179 0)
(-0.0150844 0.0896669 0)
(-0.0271203 0.109728 0)
(-0.0408078 0.123334 0)
(-0.0555667 0.131876 0)
(-0.0709969 0.136507 0)
(-0.0868694 0.138089 0)
(-0.103084 0.137177 0)
(-0.119615 0.134032 0)
(-0.136456 0.128649 0)
(-0.15358 0.120795 0)
(-0.170895 0.110058 0)
(-0.188202 0.09591 0)
(-0.205156 0.0777885 0)
(-0.221243 0.0551944 0)
(-0.235748 0.0278171 0)
(-0.247749 -0.00432141 0)
(-0.25613 -0.0407034 0)
(-0.259618 -0.0801531 0)
(-0.256867 -0.120699 0)
(-0.246608 -0.159478 0)
(-0.22789 -0.192761 0)
(-0.200434 -0.216181 0)
(-0.165081 -0.225287 0)
(-0.124229 -0.216525 0)
(-0.0819808 -0.188562 0)
(-0.0435962 -0.143468 0)
(-0.0147567 -0.0868945 0)
(-0.00173518 -0.0269897 0)
(-0.000930908 0.0271313 0)
(-0.00588463 0.0692326 0)
(-0.0156102 0.10052 0)
(-0.0279994 0.122746 0)
(-0.0419908 0.137723 0)
(-0.0569649 0.147107 0)
(-0.0725113 0.152266 0)
(-0.0884145 0.154225 0)
(-0.104606 0.153644 0)
(-0.121101 0.150839 0)
(-0.137948 0.145805 0)
(-0.155181 0.13827 0)
(-0.172773 0.127736 0)
(-0.190602 0.113554 0)
(-0.208406 0.0950009 0)
(-0.225753 0.0713872 0)
(-0.242007 0.0421907 0)
(-0.256304 0.00721178 0)
(-0.267538 -0.0332427 0)
(-0.274373 -0.0781567 0)
(-0.275277 -0.125631 0)
(-0.268625 -0.172683 0)
(-0.252918 -0.215157 0)
(-0.227163 -0.247813 0)
(-0.191441 -0.264783 0)
(-0.147614 -0.260637 0)
(-0.0998513 -0.232141 0)
(-0.0543976 -0.180276 0)
(-0.0188961 -0.111235 0)
(-0.00234857 -0.035343 0)
(-0.00096142 0.0302752 0)
(-0.00609994 0.0771093 0)
(-0.0161542 0.111694 0)
(-0.0288479 0.136045 0)
(-0.0430179 0.15229 0)
(-0.0579934 0.162381 0)
(-0.0733484 0.167935 0)
(-0.0888796 0.170159 0)
(-0.104548 0.169834 0)
(-0.120413 0.167339 0)
(-0.136575 0.162685 0)
(-0.153129 0.155565 0)
(-0.170127 0.14541 0)
(-0.187538 0.13146 0)
(-0.205213 0.112843 0)
(-0.22285 0.0886885 0)
(-0.239957 0.0582564 0)
(-0.255812 0.0211024 0)
(-0.26942 -0.0227326 0)
(-0.279504 -0.0724945 0)
(-0.284474 -0.126512 0)
(-0.282439 -0.181891 0)
(-0.271383 -0.234286 0)
(-0.249496 -0.277765 0)
(-0.215813 -0.305038 0)
(-0.171177 -0.308418 0)
(-0.119249 -0.281904 0)
(-0.0668938 -0.224241 0)
(-0.0239655 -0.14139 0)
(-0.00316179 -0.0460628 0)
(-0.00100501 0.0335386 0)
(-0.0063804 0.0852781 0)
(-0.016819 0.123182 0)
(-0.029803 0.149546 0)
(-0.0440326 0.16686 0)
(-0.058773 0.177421 0)
(-0.0735813 0.183129 0)
(-0.0882688 0.185399 0)
(-0.102829 0.185148 0)
(-0.117365 0.182829 0)
(-0.132028 0.178476 0)
(-0.14698 0.171766 0)
(-0.162354 0.162075 0)
(-0.178226 0.148555 0)
(-0.194582 0.130213 0)
(-0.211287 0.106017 0)
(-0.228051 0.0750326 0)
(-0.244373 0.0365723 0)
(-0.259474 -0.00962156 0)
(-0.272275 -0.0631784 0)
(-0.28128 -0.122766 0)
(-0.284501 -0.185832 0)
(-0.279534 -0.248168 0)
(-0.263776 -0.303506 0)
(-0.235029 -0.343363 0)
(-0.192627 -0.357628 0)
(-0.138963 -0.336674 0)
(-0.0807735 -0.275441 0)
(-0.0300414 -0.178147 0)
(-0.00423165 -0.059685 0)
(-0.00107998 0.0369739 0)
(-0.00680818 0.0938323 0)
(-0.0177696 0.135034 0)
(-0.031084 0.163196 0)
(-0.0452682 0.181252 0)
(-0.059516 0.191913 0)
(-0.0733762 0.197407 0)
(-0.0866862 0.199382 0)
(-0.0994824 0.198903 0)
(-0.111915 0.196507 0)
(-0.124193 0.192261 0)
(-0.136543 0.185842 0)
(-0.149184 0.176595 0)
(-0.162306 0.163612 0)
(-0.176043 0.145816 0)
(-0.190455 0.122058 0)
(-0.205485 0.0912386 0)
(-0.220915 0.052452 0)
(-0.236306 0.00514018 0)
(-0.250859 -0.0507272 0)
(-0.26332 -0.114315 0)
(-0.271857 -0.183646 0)
(-0.273909 -0.255023 0)
(-0.266256 -0.322348 0)
(-0.245463 -0.376451 0)
(-0.209001 -0.405006 0)
(-0.157156 -0.394148 0)
(-0.0953858 -0.333171 0)
(-0.0371505 -0.222068 0)
(-0.00563273 -0.0768001 0)
(-0.00121835 0.0406909 0)
(-0.00751603 0.102964 0)
(-0.0192595 0.147381 0)
(-0.0330156 0.176982 0)
(-0.0470626 0.195284 0)
(-0.0605311 0.205511 0)
(-0.072988 0.210275 0)
(-0.0843257 0.211483 0)
(-0.0946445 0.210356 0)
(-0.104158 0.207517 0)
(-0.113137 0.203077 0)
(-0.121879 0.196723 0)
(-0.13069 0.187795 0)
(-0.139874 0.175362 0)
(-0.149722 0.158303 0)
(-0.160491 0.135399 0)
(-0.172376 0.105439 0)
(-0.185469 0.0673391 0)
(-0.199688 0.0202769 0)
(-0.214637 -0.0361439 0)
(-0.229477 -0.101691 0)
(-0.242719 -0.175134 0)
(-0.251956 -0.253648 0)
(-0.253698 -0.331887 0)
(-0.243519 -0.400776 0)
(-0.21693 -0.446461 0)
(-0.171399 -0.450777 0)
(-0.109668 -0.395633 0)
(-0.0452542 -0.273282 0)
(-0.00746952 -0.0980428 0)
(-0.00147756 0.0448939 0)
(-0.00871765 0.113014 0)
(-0.0216667 0.160462 0)
(-0.0360523 0.190933 0)
(-0.0498607 0.208756 0)
(-0.0622011 0.217816 0)
(-0.0727176 0.221176 0)
(-0.0814102 0.221018 0)
(-0.0884823 0.218722 0)
(-0.0942354 0.214988 0)
(-0.0990168 0.209971 0)
(-0.1032 0.20338 0)
(-0.107178 0.194571 0)
(-0.111366 0.182621 0)
(-0.116201 0.166408 0)
(-0.122127 0.144693 0)
(-0.129583 0.116213 0)
(-0.138958 0.0797723 0)
(-0.150532 0.0343418 0)
(-0.164348 -0.0208225 0)
(-0.180078 -0.0860383 0)
(-0.196767 -0.160906 0)
(-0.21248 -0.243729 0)
(-0.223919 -0.330484 0)
(-0.226162 -0.413135 0)
(-0.213044 -0.4775 0)
(-0.178833 -0.501866 0)
(-0.122113 -0.459682 0)
(-0.0542365 -0.331237 0)
(-0.00989908 -0.12409 0)
(-0.00196403 0.0499472 0)
(-0.0107604 0.124536 0)
(-0.0255423 0.174646 0)
(-0.0407919 0.205095 0)
(-0.0541807 0.22141 0)
(-0.0649026 0.228335 0)
(-0.07279 0.229454 0)
(-0.0780366 0.22723 0)
(-0.0810077 0.223175 0)
(-0.0821283 0.218053 0)
(-0.0818413 0.212046 0)
(-0.0806028 0.204889 0)
(-0.078891 0.195965 0)
(-0.0772211 0.184388 0)
(-0.0761534 0.169069 0)
(-0.0762951 0.148796 0)
(-0.0782902 0.122308 0)
(-0.0827908 0.0883615 0)
(-0.0904041 0.0458023 0)
(-0.101586 -0.00637394 0)
(-0.116542 -0.0689694 0)
(-0.134968 -0.142331 0)
(-0.155665 -0.225982 0)
(-0.176011 -0.317624 0)
(-0.191292 -0.411213 0)
(-0.194342 -0.493822 0)
(-0.176395 -0.541913 0)
(-0.130765 -0.520694 0)
(-0.0638763 -0.394404 0)
(-0.0131627 -0.155684 0)
(-0.00288138 0.0564902 0)
(-0.0142157 0.138384 0)
(-0.0316652 0.190415 0)
(-0.0479452 0.21945 0)
(-0.060486 0.232821 0)
(-0.0687917 0.236376 0)
(-0.0730687 0.234272 0)
(-0.0738309 0.22922 0)
(-0.0716834 0.222815 0)
(-0.0672183 0.215834 0)
(-0.0609944 0.208464 0)
(-0.0535535 0.200449 0)
(-0.0454481 0.191206 0)
(-0.0372732 0.1799 0)
(-0.029683 0.1655 0)
(-0.0234027 0.14686 0)
(-0.0192314 0.122762 0)
(-0.018021 0.0919751 0)
(-0.0206417 0.0532972 0)
(-0.027932 0.00557273 0)
(-0.0405591 -0.0523098 0)
(-0.0588585 -0.121304 0)
(-0.0825501 -0.202028 0)
(-0.110088 -0.294025 0)
(-0.137736 -0.393968 0)
(-0.158349 -0.49192 0)
(-0.160941 -0.565119 0)
(-0.133181 -0.572607 0)
(-0.0737336 -0.459909 0)
(-0.0176035 -0.193652 0)
(-0.00462523 0.0656532 0)
(-0.0200218 0.15579 0)
(-0.0410572 0.208247 0)
(-0.0581509 0.233701 0)
(-0.0688083 0.242161 0)
(-0.0732698 0.240838 0)
(-0.0724021 0.234439 0)
(-0.0672063 0.225823 0)
(-0.0586166 0.216565 0)
(-0.0474331 0.20738 0)
(-0.0343407 0.198404 0)
(-0.0199579 0.189366 0)
(-0.0048868 0.179703 0)
(0.0102313 0.168633 0)
(0.0246929 0.155206 0)
(0.0377108 0.138362 0)
(0.0483916 0.116965 0)
(0.0557507 0.0898472 0)
(0.0587298 0.0558286 0)
(0.0562251 0.0137134 0)
(0.0471668 -0.0377291 0)
(0.0306165 -0.0998428 0)
(0.00597218 -0.17403 0)
(-0.0265207 -0.261452 0)
(-0.0647866 -0.361765 0)
(-0.102888 -0.469502 0)
(-0.129124 -0.565917 0)
(-0.126199 -0.608065 0)
(-0.0828073 -0.523027 0)
(-0.0235864 -0.238807 0)
(-0.00795504 0.0794524 0)
(-0.0296671 0.178375 0)
(-0.0547839 0.228255 0)
(-0.0713137 0.246783 0)
(-0.0777112 0.247744 0)
(-0.0756883 0.239828 0)
(-0.0671653 0.228114 0)
(-0.0538159 0.215387 0)
(-0.0369753 0.203026 0)
(-0.0176612 0.19156 0)
(0.00333762 0.180996 0)
(0.0253657 0.171004 0)
(0.0478184 0.161019 0)
(0.0700715 0.150302 0)
(0.0914359 0.137995 0)
(0.111124 0.123138 0)
(0.128223 0.104712 0)
(0.14169 0.0816579 0)
(0.150359 0.0528882 0)
(0.152941 0.0172713 0)
(0.148067 -0.0264247 0)
(0.134324 -0.0796396 0)
(0.110351 -0.144166 0)
(0.0751243 -0.222274 0)
(0.0286728 -0.316256 0)
(-0.0254288 -0.425724 0)
(-0.076863 -0.539516 0)
(-0.105324 -0.618629 0)
(-0.0887325 -0.576479 0)
(-0.0311153 -0.291573 0)
(-0.0142225 0.101452 0)
(-0.045194 0.207778 0)
(-0.0728863 0.249247 0)
(-0.0845124 0.25588 0)
(-0.0815615 0.246206 0)
(-0.0683172 0.230073 0)
(-0.0481611 0.212423 0)
(-0.0235369 0.195556 0)
(0.00385718 0.180377 0)
(0.0328777 0.167055 0)
(0.0627397 0.155371 0)
(0.0928562 0.144876 0)
(0.12272 0.134978 0)
(0.151814 0.124978 0)
(0.179549 0.114105 0)
(0.205221 0.101524 0)
(0.227975 0.0863577 0)
(0.246791 0.0677006 0)
(0.260473 0.04462 0)
(0.26763 0.0161371 0)
(0.266697 -0.0188483 0)
(0.255934 -0.0616471 0)
(0.2334 -0.114053 0)
(0.19705 -0.178774 0)
(0.145124 -0.259834 0)
(0.0778151 -0.361573 0)
(0.00164802 -0.482606 0)
(-0.0633743 -0.595145 0)
(-0.086322 -0.609764 0)
(-0.0388311 -0.351844 0)
(-0.0252738 0.137806 0)
(-0.0677643 0.24351 0)
(-0.089983 0.265952 0)
(-0.0857662 0.254158 0)
(-0.0637705 0.231003 0)
(-0.0318494 0.206096 0)
(0.00521704 0.183147 0)
(0.0445533 0.163295 0)
(0.084479 0.146599 0)
(0.124063 0.132689 0)
(0.162795 0.12103 0)
(0.20037 0.111024 0)
(0.236541 0.102045 0)
(0.271027 0.0934422 0)
(0.303443 0.084549 0)
(0.333255 0.0746786 0)
(0.359748 0.0631305 0)
(0.382005 0.0491922 0)
(0.398886 0.0321389 0)
(0.408981 0.0112161 0)
(0.410662 -0.014418 0)
(0.402018 -0.0457792 0)
(0.380753 -0.0843692 0)
(0.344163 -0.132663 0)
(0.289094 -0.195125 0)
(0.212549 -0.279324 0)
(0.115536 -0.393561 0)
(0.011898 -0.528547 0)
(-0.0654557 -0.60872 0)
(-0.0419662 -0.418394 0)
(-0.0407422 0.199657 0)
(-0.0889999 0.27581 0)
(-0.079022 0.260837 0)
(-0.037089 0.225504 0)
(0.017757 0.189992 0)
(0.0760074 0.159575 0)
(0.133387 0.135024 0)
(0.188013 0.115637 0)
(0.239231 0.100398 0)
(0.287002 0.0883616 0)
(0.331535 0.0787272 0)
(0.373088 0.0708114 0)
(0.41186 0.0640135 0)
(0.447921 0.0577862 0)
(0.481174 0.0516148 0)
(0.511322 0.0450032 0)
(0.537845 0.0374672 0)
(0.559992 0.0285295 0)
(0.576764 0.0177107 0)
(0.586861 0.00450686 0)
(0.588765 -0.0115295 0)
(0.580565 -0.0310687 0)
(0.559898 -0.0551185 0)
(0.523829 -0.0854391 0)
(0.468465 -0.125637 0)
(0.388514 -0.183521 0)
(0.27894 -0.273907 0)
(0.14126 -0.410525 0)
(-0.00597396 -0.553137 0)
(-0.0260643 -0.476419 0)
(-0.0335525 0.29493 0)
(-0.0460992 0.274756 0)
(0.0566815 0.201267 0)
(0.160102 0.150289 0)
(0.251991 0.114126 0)
(0.331966 0.0879844 0)
(0.401166 0.0693543 0)
(0.461056 0.0560913 0)
(0.513229 0.0465102 0)
(0.55915 0.039447 0)
(0.600017 0.0341125 0)
(0.636737 0.0299442 0)
(0.669952 0.0265148 0)
(0.700055 0.0234802 0)
(0.727193 0.0205468 0)
(0.751281 0.0174531 0)
(0.771996 0.013959 0)
(0.788785 0.00984253 0)
(0.800839 0.00489695 0)
(0.807205 -0.00106094 0)
(0.806651 -0.00825592 0)
(0.797527 -0.0169943 0)
(0.777886 -0.0276873 0)
(0.745161 -0.0411653 0)
(0.695593 -0.0593439 0)
(0.623061 -0.0871352 0)
(0.517479 -0.137857 0)
(0.36408 -0.240868 0)
(0.143324 -0.407141 0)
(0.0585803 -0.458279 0)
(0.303476 0.181066 0)
(0.383476 0.144794 0)
(0.562755 0.0917174 0)
(0.689334 0.0593475 0)
(0.772079 0.0393877 0)
(0.830966 0.0265735 0)
(0.87548 0.0184057 0)
(0.910183 0.0132391 0)
(0.938013 0.00993398 0)
(0.961003 0.00776898 0)
(0.980506 0.00630506 0)
(0.997394 0.00526874 0)
(1.01222 0.00448098 0)
(1.0253 0.00381752 0)
(1.03676 0.00318623 0)
(1.04657 0.00251423 0)
(1.05456 0.0017409 0)
(1.06043 0.000816891 0)
(1.06378 -0.000296432 0)
(1.06407 -0.00158524 0)
(1.06063 -0.0031594 0)
(1.05274 -0.00508017 0)
(1.03947 -0.00740196 0)
(1.01954 -0.0102979 0)
(0.990835 -0.0142306 0)
(0.949286 -0.0205031 0)
(0.885227 -0.0329624 0)
(0.77696 -0.0640707 0)
(0.54497 -0.139644 0)
(0.382488 -0.201816 0)
)
;

boundaryField
{
    movingWall
    {
        type            fixedValue;
        value           uniform (1.2 0 0);
    }
    fixedWalls
    {
        type            noSlip;
    }
    frontAndBack
    {
        type            empty;
    }
}


// ************************************************************************* //
