/*--------------------------------*- C++ -*----------------------------------*\
  =========                 |
  \\      /  F ield         | OpenFOAM: The Open Source CFD Toolbox
   \\    /   O peration     | Website:  https://openfoam.org
    \\  /    A nd           | Version:  7
     \\/     M anipulation  |
\*---------------------------------------------------------------------------*/
FoamFile
{
    version     2.0;
    format      ascii;
    class       volVectorField;
    location    "4.2";
    object      U;
}
// * * * * * * * * * * * * * * * * * * * * * * * * * * * * * * * * * * * * * //

dimensions      [0 1 -1 0 0 0 0];

internalField   nonuniform List<vector> 
900
(
(0.000119854 -0.000118962 0)
(0.000180131 -2.83673e-05 0)
(-0.000150784 0.000108666 0)
(-0.000854127 0.000227672 0)
(-0.0018382 0.000310886 0)
(-0.00301984 0.000361831 0)
(-0.00432098 0.000388631 0)
(-0.0056779 0.000398107 0)
(-0.00703913 0.000394369 0)
(-0.00835987 0.000378989 0)
(-0.00959695 0.000351647 0)
(-0.0107055 0.000310915 0)
(-0.0116376 0.000255073 0)
(-0.012343 0.000182925 0)
(-0.0127721 9.45674e-05 0)
(-0.0128807 -7.98239e-06 0)
(-0.0126357 -0.000120653 0)
(-0.0120219 -0.000236479 0)
(-0.0110483 -0.000346493 0)
(-0.00975264 -0.00044036 0)
(-0.00820277 -0.000507557 0)
(-0.00649472 -0.000538911 0)
(-0.00474617 -0.000528141 0)
(-0.00308605 -0.00047311 0)
(-0.00164076 -0.000376532 0)
(-0.000517658 -0.000246718 0)
(0.000202461 -9.96152e-05 0)
(0.00049018 4.63179e-05 0)
(0.000402405 0.000151055 0)
(0.000138855 0.000137516 0)
(3.41938e-05 -0.000184708 0)
(-0.000355505 0.000354827 0)
(-0.00162623 0.00103909 0)
(-0.00367126 0.00163729 0)
(-0.00633797 0.00208395 0)
(-0.00945802 0.00237891 0)
(-0.0128634 0.00254347 0)
(-0.016403 0.00260012 0)
(-0.0199438 0.00256443 0)
(-0.0233633 0.00244348 0)
(-0.0265432 0.0022374 0)
(-0.0293636 0.00194239 0)
(-0.0317026 0.00155435 0)
(-0.0334381 0.00107271 0)
(-0.0344556 0.000503921 0)
(-0.0346585 -0.000135824 0)
(-0.03398 -0.000818674 0)
(-0.0323969 -0.00150515 0)
(-0.0299427 -0.00214627 0)
(-0.0267144 -0.00268763 0)
(-0.0228754 -0.00307548 0)
(-0.018649 -0.00326416 0)
(-0.0143044 -0.00322372 0)
(-0.0101331 -0.00294623 0)
(-0.0064197 -0.00245003 0)
(-0.00340758 -0.00178237 0)
(-0.0012668 -0.00102283 0)
(-5.68419e-05 -0.000278943 0)
(0.000318636 0.000284459 0)
(0.000160476 0.000400922 0)
(-0.000112603 0.000148167 0)
(-0.00110721 0.00163972 0)
(-0.00345432 0.00330272 0)
(-0.00685187 0.00474523 0)
(-0.0110792 0.00584578 0)
(-0.0159163 0.00659083 0)
(-0.0211373 0.00701129 0)
(-0.0265312 0.00714672 0)
(-0.0319046 0.00702705 0)
(-0.0370749 0.00666723 0)
(-0.041864 0.00606922 0)
(-0.0460927 0.00522809 0)
(-0.0495817 0.00414009 0)
(-0.0521554 0.00281125 0)
(-0.0536528 0.00126529 0)
(-0.0539406 -0.000450347 0)
(-0.0529301 -0.00226074 0)
(-0.0505948 -0.00406476 0)
(-0.0469858 -0.00573995 0)
(-0.0422417 -0.00715262 0)
(-0.0365908 -0.0081723 0)
(-0.030344 -0.00868914 0)
(-0.0238755 -0.00863179 0)
(-0.017592 -0.00798303 0)
(-0.011893 -0.00679056 0)
(-0.00712485 -0.00517248 0)
(-0.00353399 -0.0033194 0)
(-0.00121971 -0.00149428 0)
(-9.79039e-05 -4.55401e-05 0)
(9.38038e-05 0.000534483 0)
(-0.000261601 0.000914981 0)
(-0.00187834 0.00384355 0)
(-0.00532522 0.00678812 0)
(-0.010063 0.00928791 0)
(-0.0157779 0.0111914 0)
(-0.0222007 0.0124824 0)
(-0.0290607 0.0132045 0)
(-0.0361034 0.0134141 0)
(-0.0430926 0.0131546 0)
(-0.0498019 0.012448 0)
(-0.0560077 0.0112981 0)
(-0.0614856 0.00969969 0)
(-0.0660113 0.0076518 0)
(-0.0693667 0.00517185 0)
(-0.071352 0.00230831 0)
(-0.0718022 -0.000849524 0)
(-0.0706056 -0.00416712 0)
(-0.0677247 -0.00746482 0)
(-0.0632146 -0.010528 0)
(-0.0572352 -0.0131234 0)
(-0.0500562 -0.0150235 0)
(-0.0420501 -0.0160357 0)
(-0.0336719 -0.0160328 0)
(-0.0254244 -0.0149811 0)
(-0.0178101 -0.0129602 0)
(-0.0112763 -0.0101718 0)
(-0.00615588 -0.0069405 0)
(-0.00261038 -0.00370629 0)
(-0.000609267 -0.00101982 0)
(1.02384e-05 0.000410499 0)
(-0.000395331 0.00208582 0)
(-0.00260689 0.0069487 0)
(-0.00712692 0.0114677 0)
(-0.0131651 0.0151998 0)
(-0.0203027 0.0180091 0)
(-0.0282186 0.0199006 0)
(-0.0366021 0.0209409 0)
(-0.0451662 0.0212063 0)
(-0.0536443 0.0207533 0)
(-0.0617793 0.01961 0)
(-0.0693153 0.0177801 0)
(-0.0759935 0.0152578 0)
(-0.0815533 0.0120452 0)
(-0.0857397 0.00817276 0)
(-0.0883157 0.00371697 0)
(-0.0890812 -0.00118619 0)
(-0.0878922 -0.00633536 0)
(-0.0846852 -0.0114618 0)
(-0.0795001 -0.0162452 0)
(-0.0724964 -0.0203362 0)
(-0.0639627 -0.0233906 0)
(-0.0543151 -0.0251116 0)
(-0.0440778 -0.0252967 0)
(-0.033847 -0.0238806 0)
(-0.0242368 -0.020967 0)
(-0.015813 -0.016845 0)
(-0.00902037 -0.0119851 0)
(-0.00411122 -0.00702027 0)
(-0.00113705 -0.00271623 0)
(-6.47073e-05 1.02952e-05 0)
(-0.000513453 0.00363327 0)
(-0.00327859 0.0109158 0)
(-0.00881786 0.0173042 0)
(-0.016097 0.022439 0)
(-0.0245904 0.0262467 0)
(-0.0339239 0.0287822 0)
(-0.0437508 0.0301507 0)
(-0.0537586 0.0304555 0)
(-0.0636605 0.0297681 0)
(-0.0731797 0.0281211 0)
(-0.0820381 0.0255164 0)
(-0.0899515 0.0219442 0)
(-0.0966292 0.0174072 0)
(-0.101781 0.0119461 0)
(-0.10513 0.00566363 0)
(-0.106434 -0.00125783 0)
(-0.1055 -0.00854806 0)
(-0.102218 -0.0158431 0)
(-0.0965913 -0.0227062 0)
(-0.0887517 -0.0286546 0)
(-0.0789846 -0.0332033 0)
(-0.0677323 -0.0359232 0)
(-0.0555821 -0.0365058 0)
(-0.0432305 -0.0348272 0)
(-0.0314237 -0.0309977 0)
(-0.0208784 -0.0253886 0)
(-0.0121896 -0.0186267 0)
(-0.00573652 -0.0115578 0)
(-0.00167936 -0.00518736 0)
(-0.00012952 -0.000661485 0)
(-0.000618917 0.00552458 0)
(-0.00389357 0.0156879 0)
(-0.0103845 0.0242339 0)
(-0.0188318 0.0309395 0)
(-0.028608 0.0358366 0)
(-0.0392887 0.0390602 0)
(-0.0504952 0.0407731 0)
(-0.0618965 0.0411146 0)
(-0.0731941 0.0401747 0)
(-0.0841007 0.0379897 0)
(-0.0943254 0.0345565 0)
(-0.103566 0.0298563 0)
(-0.111506 0.0238855 0)
(-0.117821 0.0166878 0)
(-0.122189 0.00838404 0)
(-0.124314 -0.000803688 0)
(-0.123939 -0.0105331 0)
(-0.120883 -0.0203513 0)
(-0.115084 -0.0296959 0)
(-0.106617 -0.0379315 0)
(-0.0957378 -0.0444042 0)
(-0.0828931 -0.0485137 0)
(-0.068725 -0.049802 0)
(-0.0540393 -0.0480439 0)
(-0.0397411 -0.043324 0)
(-0.0267411 -0.0360816 0)
(-0.0158357 -0.0271077 0)
(-0.00757865 -0.0174904 0)
(-0.00227225 -0.00851641 0)
(-0.000191418 -0.00161173 0)
(-0.000713777 0.00772871 0)
(-0.00445316 0.0212024 0)
(-0.01182 0.0321812 0)
(-0.0213513 0.0406229 0)
(-0.032328 0.0467036 0)
(-0.0442805 0.050668 0)
(-0.0568043 0.0527555 0)
(-0.0695566 0.0531529 0)
(-0.0822353 0.0519727 0)
(-0.0945515 0.0492549 0)
(-0.10621 0.0449867 0)
(-0.116897 0.039133 0)
(-0.126276 0.0316743 0)
(-0.133989 0.0226457 0)
(-0.139666 0.0121731 0)
(-0.142938 0.000506085 0)
(-0.143475 -0.0119569 0)
(-0.141006 -0.0246732 0)
(-0.135364 -0.0369501 0)
(-0.126539 -0.0479834 0)
(-0.114716 -0.0569172 0)
(-0.100322 -0.0629325 0)
(-0.0840343 -0.065362 0)
(-0.0667711 -0.0638168 0)
(-0.0496229 -0.0583034 0)
(-0.0337443 -0.0493 0)
(-0.0201977 -0.0377667 0)
(-0.00977518 -0.0250714 0)
(-0.00297082 -0.0128454 0)
(-0.000260719 -0.00287411 0)
(-0.00079846 0.0102158 0)
(-0.00495516 0.0273927 0)
(-0.0131134 0.0410616 0)
(-0.0236324 0.0514004 0)
(-0.0357132 0.0587635 0)
(-0.0488487 0.0635328 0)
(-0.0626152 0.0660436 0)
(-0.0766655 0.0665416 0)
(-0.0907014 0.0651673 0)
(-0.104441 0.0619641 0)
(-0.117593 0.0569044 0)
(-0.12984 0.0499283 0)
(-0.140832 0.0409873 0)
(-0.15018 0.0300918 0)
(-0.157462 0.0173555 0)
(-0.16224 0.00303593 0)
(-0.164086 -0.0124362 0)
(-0.162615 -0.028433 0)
(-0.157535 -0.0441347 0)
(-0.148705 -0.058555 0)
(-0.136204 -0.0706031 0)
(-0.12039 -0.0791858 0)
(-0.101947 -0.083351 0)
(-0.0818901 -0.08246 0)
(-0.0615123 -0.0763602 0)
(-0.0422635 -0.0655163 0)
(-0.0255505 -0.0510502 0)
(-0.012489 -0.0346549 0)
(-0.0038399 -0.0183915 0)
(-0.000348792 -0.00451526 0)
(-0.000872012 0.0129538 0)
(-0.00539327 0.0341851 0)
(-0.0142472 0.0507795 0)
(-0.0256418 0.0631683 0)
(-0.038711 0.0719151 0)
(-0.0529181 0.0775636 0)
(-0.0678273 0.0805635 0)
(-0.0830937 0.0812317 0)
(-0.0984306 0.0797423 0)
(-0.113571 0.0761422 0)
(-0.128237 0.0703845 0)
(-0.142117 0.062374 0)
(-0.154854 0.0520191 0)
(-0.166034 0.0392858 0)
(-0.175192 0.0242523 0)
(-0.181816 0.00715841 0)
(-0.185376 -0.0115513 0)
(-0.185359 -0.0311921 0)
(-0.181317 -0.0508271 0)
(-0.172946 -0.0692832 0)
(-0.160165 -0.0852067 0)
(-0.14321 -0.097173 0)
(-0.122712 -0.103857 0)
(-0.099746 -0.104256 0)
(-0.075802 -0.0979428 0)
(-0.0526676 -0.085277 0)
(-0.0321823 -0.06751 0)
(-0.015897 -0.0467036 0)
(-0.00495035 -0.0254564 0)
(-0.000467668 -0.00663804 0)
(-0.000932558 0.0159066 0)
(-0.00575799 0.0414958 0)
(-0.0151979 0.0612236 0)
(-0.0273367 0.0758032 0)
(-0.041254 0.0860326 0)
(-0.0563906 0.0926399 0)
(-0.0723046 0.0962069 0)
(-0.0886589 0.0971335 0)
(-0.105185 0.0956341 0)
(-0.121639 0.0917604 0)
(-0.137765 0.085442 0)
(-0.153267 0.0765392 0)
(-0.167794 0.0649018 0)
(-0.18092 0.0504317 0)
(-0.192144 0.0331454 0)
(-0.200891 0.0132357 0)
(-0.206536 -0.0088708 0)
(-0.208432 -0.0324638 0)
(-0.205961 -0.056514 0)
(-0.198622 -0.0796725 0)
(-0.186125 -0.100309 0)
(-0.168509 -0.116618 0)
(-0.146274 -0.126808 0)
(-0.120476 -0.129377 0)
(-0.0927625 -0.123458 0)
(-0.0652748 -0.109161 0)
(-0.0403729 -0.0877854 0)
(-0.020183 -0.061788 0)
(-0.00637817 -0.0344316 0)
(-0.000630408 -0.00938409 0)
(-0.000977827 0.019032 0)
(-0.00603866 0.0492284 0)
(-0.0159397 0.0722652 0)
(-0.0286705 0.0891576 0)
(-0.0432672 0.100959 0)
(-0.0591535 0.108602 0)
(-0.0758853 0.112816 0)
(-0.093138 0.114096 0)
(-0.110666 0.112706 0)
(-0.128255 0.108705 0)
(-0.14568 0.101996 0)
(-0.162674 0.0923866 0)
(-0.178903 0.0796564 0)
(-0.193948 0.0636231 0)
(-0.207292 0.0442163 0)
(-0.218318 0.0215495 0)
(-0.226325 -0.00400672 0)
(-0.230542 -0.0317521 0)
(-0.230187 -0.060611 0)
(-0.224541 -0.0890899 0)
(-0.213057 -0.115293 0)
(-0.195503 -0.137005 0)
(-0.172138 -0.151885 0)
(-0.143886 -0.15778 0)
(-0.112451 -0.153176 0)
(-0.0802949 -0.137708 0)
(-0.0503668 -0.112565 0)
(-0.0255295 -0.0805747 0)
(-0.00820442 -0.0457993 0)
(-0.000851821 -0.0129365 0)
(-0.00100577 0.0222817 0)
(-0.00622608 0.0572747 0)
(-0.0164504 0.0837575 0)
(-0.029601 0.103059 0)
(-0.0446791 0.116503 0)
(-0.0610937 0.125243 0)
(-0.0784003 0.130171 0)
(-0.0962885 0.131894 0)
(-0.114539 0.130729 0)
(-0.132972 0.126749 0)
(-0.151402 0.119833 0)
(-0.169601 0.109732 0)
(-0.187272 0.0961446 0)
(-0.204024 0.0787898 0)
(-0.219351 0.0574882 0)
(-0.232628 0.0322445 0)
(-0.243105 0.00333401 0)
(-0.24993 -0.0286072 0)
(-0.25218 -0.0625078 0)
(-0.248919 -0.096788 0)
(-0.239315 -0.129331 0)
(-0.222793 -0.157527 0)
(-0.199252 -0.17843 0)
(-0.169322 -0.189092 0)
(-0.134597 -0.187105 0)
(-0.0977519 -0.171314 0)
(-0.062334 -0.142518 0)
(-0.0321056 -0.103799 0)
(-0.0105148 -0.0601295 0)
(-0.00114935 -0.0175228 0)
(-0.00101529 0.0256035 0)
(-0.00631592 0.0655172 0)
(-0.0167186 0.0955391 0)
(-0.0301021 0.117311 0)
(-0.0454375 0.132438 0)
(-0.062118 0.142305 0)
(-0.0796976 0.147987 0)
(-0.0978798 0.15021 0)
(-0.116473 0.149361 0)
(-0.135334 0.145534 0)
(-0.154325 0.138586 0)
(-0.173268 0.128213 0)
(-0.191922 0.11403 0)
(-0.209947 0.0956496 0)
(-0.226883 0.072768 0)
(-0.242139 0.0452569 0)
(-0.254972 0.0132592 0)
(-0.264494 -0.0227093 0)
(-0.269689 -0.0616449 0)
(-0.269444 -0.101967 0)
(-0.262645 -0.141425 0)
(-0.248327 -0.177077 0)
(-0.225912 -0.205382 0)
(-0.195546 -0.222489 0)
(-0.158481 -0.224839 0)
(-0.117385 -0.210086 0)
(-0.0763125 -0.178195 0)
(-0.0400473 -0.132215 0)
(-0.0133975 -0.0780691 0)
(-0.00154395 -0.0234182 0)
(-0.00100707 0.028944 0)
(-0.00631277 0.0738374 0)
(-0.0167529 0.107442 0)
(-0.0301782 0.131702 0)
(-0.0455288 0.148504 0)
(-0.0621773 0.159483 0)
(-0.0796732 0.165907 0)
(-0.0977313 0.168639 0)
(-0.116187 0.168149 0)
(-0.134937 0.16456 0)
(-0.153895 0.157719 0)
(-0.172947 0.147274 0)
(-0.191921 0.132759 0)
(-0.210555 0.11368 0)
(-0.228475 0.0896064 0)
(-0.245167 0.0602604 0)
(-0.259957 0.0256242 0)
(-0.271991 -0.0139503 0)
(-0.280232 -0.0576094 0)
(-0.283463 -0.103872 0)
(-0.28033 -0.150482 0)
(-0.269475 -0.194296 0)
(-0.249763 -0.231263 0)
(-0.220673 -0.256611 0)
(-0.18282 -0.265411 0)
(-0.138535 -0.253668 0)
(-0.092132 -0.219879 0)
(-0.0494247 -0.166514 0)
(-0.0169378 -0.100318 0)
(-0.00206088 -0.0309466 0)
(-0.000984513 0.0322552 0)
(-0.00623482 0.0821271 0)
(-0.0165922 0.119305 0)
(-0.02988 0.146012 0)
(-0.0449989 0.164421 0)
(-0.0612932 0.176428 0)
(-0.0783029 0.183513 0)
(-0.0957526 0.186692 0)
(-0.113504 0.18653 0)
(-0.131496 0.183198 0)
(-0.149698 0.176542 0)
(-0.168068 0.166175 0)
(-0.186519 0.151565 0)
(-0.204894 0.132122 0)
(-0.222935 0.107292 0)
(-0.240254 0.0766489 0)
(-0.256308 0.0399999 0)
(-0.270354 -0.00250478 0)
(-0.281426 -0.0502406 0)
(-0.288299 -0.101928 0)
(-0.289475 -0.155465 0)
(-0.283258 -0.207699 0)
(-0.267942 -0.254259 0)
(-0.242198 -0.289554 0)
(-0.205714 -0.307183 0)
(-0.160045 -0.301055 0)
(-0.109323 -0.267398 0)
(-0.0601983 -0.207208 0)
(-0.0212102 -0.127585 0)
(-0.00273038 -0.0404805 0)
(-0.000954996 0.0355033 0)
(-0.0061195 0.0903066 0)
(-0.0163177 0.130993 0)
(-0.0293218 0.160036 0)
(-0.043975 0.179903 0)
(-0.059583 0.192766 0)
(-0.0756734 0.200338 0)
(-0.0919809 0.203808 0)
(-0.108396 0.203856 0)
(-0.124903 0.20071 0)
(-0.141532 0.194237 0)
(-0.15832 0.184031 0)
(-0.175281 0.169513 0)
(-0.192379 0.150015 0)
(-0.209499 0.124879 0)
(-0.226421 0.0935448 0)
(-0.242784 0.0556429 0)
(-0.258038 0.0111021 0)
(-0.271374 -0.0397269 0)
(-0.281668 -0.0958779 0)
(-0.287421 -0.155568 0)
(-0.286723 -0.215875 0)
(-0.277372 -0.272393 0)
(-0.25719 -0.318973 0)
(-0.224699 -0.347825 0)
(-0.180206 -0.350448 0)
(-0.127033 -0.319921 0)
(-0.0721645 -0.254461 0)
(-0.0262665 -0.160528 0)
(-0.00358876 -0.052435 0)
(-0.00093154 0.0386806 0)
(-0.00603083 0.0983481 0)
(-0.0160671 0.142421 0)
(-0.0287005 0.173602 0)
(-0.0426861 0.194671 0)
(-0.0572818 0.208107 0)
(-0.0720047 0.215884 0)
(-0.0866069 0.219385 0)
(-0.101016 0.219418 0)
(-0.115268 0.216294 0)
(-0.129463 0.209911 0)
(-0.143725 0.19987 0)
(-0.158175 0.185562 0)
(-0.172912 0.166272 0)
(-0.187985 0.141265 0)
(-0.203364 0.109868 0)
(-0.21891 0.0715533 0)
(-0.234312 0.0260316 0)
(-0.249006 -0.0266384 0)
(-0.262092 -0.0858899 0)
(-0.272211 -0.150407 0)
(-0.277423 -0.217742 0)
(-0.275205 -0.28381 0)
(-0.262626 -0.342324 0)
(-0.236944 -0.384438 0)
(-0.196809 -0.399204 0)
(-0.14397 -0.37576 0)
(-0.0849019 -0.307892 0)
(-0.0321256 -0.199651 0)
(-0.00468114 -0.0672593 0)
(-0.000935781 0.0418228 0)
(-0.00607009 0.106308 0)
(-0.016053 0.153588 0)
(-0.0283159 0.186595 0)
(-0.041482 0.208475 0)
(-0.054757 0.222066 0)
(-0.0676609 0.229639 0)
(-0.079982 0.232793 0)
(-0.0917026 0.232489 0)
(-0.102928 0.229126 0)
(-0.113835 0.222657 0)
(-0.124644 0.212703 0)
(-0.135592 0.198657 0)
(-0.146915 0.179781 0)
(-0.158831 0.155292 0)
(-0.171513 0.124439 0)
(-0.185054 0.0865703 0)
(-0.199412 0.0412017 0)
(-0.21432 -0.0119004 0)
(-0.229193 -0.0726062 0)
(-0.242956 -0.14015 0)
(-0.253849 -0.212777 0)
(-0.259286 -0.287096 0)
(-0.255833 -0.357217 0)
(-0.239588 -0.413843 0)
(-0.207306 -0.44394 0)
(-0.158423 -0.432257 0)
(-0.0977282 -0.36636 0)
(-0.0387681 -0.245191 0)
(-0.00606814 -0.0854278 0)
(-0.00100376 0.0450341 0)
(-0.00639373 0.114366 0)
(-0.0165883 0.164606 0)
(-0.0285941 0.198979 0)
(-0.0408464 0.221104 0)
(-0.0525094 0.234268 0)
(-0.063139 0.241086 0)
(-0.0725969 0.243404 0)
(-0.0809525 0.242343 0)
(-0.0884018 0.238405 0)
(-0.0952178 0.231606 0)
(-0.101723 0.221604 0)
(-0.108272 0.207812 0)
(-0.115241 0.189497 0)
(-0.123007 0.165858 0)
(-0.131935 0.1361 0)
(-0.142343 0.0994827 0)
(-0.154455 0.055366 0)
(-0.168331 0.00325891 0)
(-0.183734 -0.0571082 0)
(-0.199969 -0.125566 0)
(-0.215674 -0.201183 0)
(-0.228501 -0.281573 0)
(-0.23489 -0.361818 0)
(-0.230111 -0.432994 0)
(-0.209074 -0.480813 0)
(-0.168342 -0.485803 0)
(-0.10968 -0.427766 0)
(-0.0461402 -0.296963 0)
(-0.00784057 -0.107438 0)
(-0.00119792 0.0485272 0)
(-0.00724472 0.122886 0)
(-0.0181242 0.175742 0)
(-0.0301132 0.210804 0)
(-0.0414003 0.232381 0)
(-0.051151 0.244337 0)
(-0.0590232 0.249701 0)
(-0.0650144 0.250588 0)
(-0.0693297 0.248281 0)
(-0.0722891 0.243382 0)
(-0.07428 0.235972 0)
(-0.0757362 0.225754 0)
(-0.0771288 0.212174 0)
(-0.0789609 0.194524 0)
(-0.0817575 0.172009 0)
(-0.0860501 0.143819 0)
(-0.0923546 0.109163 0)
(-0.101133 0.0672894 0)
(-0.112735 0.0175083 0)
(-0.127285 -0.0407691 0)
(-0.144543 -0.107936 0)
(-0.163667 -0.1839 0)
(-0.182841 -0.267464 0)
(-0.19883 -0.355177 0)
(-0.206621 -0.439425 0)
(-0.199671 -0.505938 0)
(-0.171473 -0.53201 0)
(-0.119507 -0.488917 0)
(-0.0541628 -0.354187 0)
(-0.0101458 -0.13383 0)
(-0.00163185 0.0526917 0)
(-0.00900826 0.132484 0)
(-0.0213023 0.187442 0)
(-0.0336212 0.222199 0)
(-0.0438724 0.242124 0)
(-0.0513295 0.25186 0)
(-0.0558689 0.254921 0)
(-0.0577184 0.253695 0)
(-0.0572846 0.249613 0)
(-0.0550516 0.243358 0)
(-0.0515415 0.23506 0)
(-0.0473039 0.224463 0)
(-0.0429171 0.21105 0)
(-0.0389978 0.194149 0)
(-0.0361905 0.172983 0)
(-0.0351584 0.146754 0)
(-0.0365766 0.114651 0)
(-0.0410989 0.0758606 0)
(-0.0493157 0.0295615 0)
(-0.06168 -0.0250765 0)
(-0.0784031 -0.0888716 0)
(-0.0992344 -0.162472 0)
(-0.123098 -0.245872 0)
(-0.147528 -0.337397 0)
(-0.167906 -0.431609 0)
(-0.176971 -0.51584 0)
(-0.165448 -0.566026 0)
(-0.125644 -0.545468 0)
(-0.0627146 -0.415268 0)
(-0.0132241 -0.165233 0)
(-0.00252043 0.0582167 0)
(-0.0123066 0.144124 0)
(-0.0270152 0.200327 0)
(-0.040012 0.23329 0)
(-0.0489794 0.250051 0)
(-0.0535231 0.256288 0)
(-0.0539279 0.256056 0)
(-0.0507821 0.25199 0)
(-0.0447736 0.245616 0)
(-0.0365926 0.23765 0)
(-0.0269105 0.22824 0)
(-0.0163901 0.217149 0)
(-0.00569634 0.20389 0)
(0.00446178 0.187818 0)
(0.0133535 0.168199 0)
(0.0202302 0.144253 0)
(0.0243013 0.115175 0)
(0.0247715 0.080133 0)
(0.0208632 0.0382421 0)
(0.0118558 -0.0114676 0)
(-0.00286654 -0.070091 0)
(-0.0236386 -0.138789 0)
(-0.0502199 -0.218576 0)
(-0.0812458 -0.309578 0)
(-0.113185 -0.409138 0)
(-0.139066 -0.507817 0)
(-0.147727 -0.582876 0)
(-0.126083 -0.591937 0)
(-0.071515 -0.477496 0)
(-0.0174318 -0.202424 0)
(-0.00427656 0.0663157 0)
(-0.0181458 0.159214 0)
(-0.0364243 0.215088 0)
(-0.0501413 0.243999 0)
(-0.0570494 0.255555 0)
(-0.0575089 0.256737 0)
(-0.0524977 0.252132 0)
(-0.043129 0.244523 0)
(-0.0304547 0.235427 0)
(-0.0154026 0.225507 0)
(0.00120653 0.214872 0)
(0.0186158 0.203269 0)
(0.0360935 0.19022 0)
(0.0528926 0.175098 0)
(0.0682412 0.157216 0)
(0.0813345 0.135824 0)
(0.0913216 0.110145 0)
(0.0973162 0.0793627 0)
(0.0984032 0.0425915 0)
(0.0936415 -0.00117593 0)
(0.0821052 -0.0531433 0)
(0.062945 -0.114742 0)
(0.0355678 -0.187669 0)
(9.88576e-05 -0.273564 0)
(-0.0415675 -0.372694 0)
(-0.0838964 -0.480185 0)
(-0.115307 -0.577789 0)
(-0.118037 -0.621719 0)
(-0.0797582 -0.536544 0)
(-0.0231645 -0.246248 0)
(-0.00768193 0.0791351 0)
(-0.0280912 0.179626 0)
(-0.0507416 0.23213 0)
(-0.0641371 0.253568 0)
(-0.0669496 0.257252 0)
(-0.0610208 0.251612 0)
(-0.048406 0.241594 0)
(-0.0309159 0.229908 0)
(-0.0100238 0.217876 0)
(0.0131082 0.205986 0)
(0.0375437 0.194219 0)
(0.0624812 0.182257 0)
(0.0871792 0.169601 0)
(0.110904 0.155645 0)
(0.132898 0.139727 0)
(0.152357 0.121149 0)
(0.168417 0.0991831 0)
(0.180146 0.0730675 0)
(0.186539 0.0419715 0)
(0.186497 0.00494291 0)
(0.178847 -0.0391862 0)
(0.162322 -0.0918877 0)
(0.135637 -0.155139 0)
(0.0977476 -0.231544 0)
(0.0486423 -0.323888 0)
(-0.00864086 -0.432455 0)
(-0.0641077 -0.546566 0)
(-0.0972054 -0.627105 0)
(-0.0852681 -0.585694 0)
(-0.0304779 -0.297266 0)
(-0.0141043 0.100418 0)
(-0.044234 0.207308 0)
(-0.0700933 0.250623 0)
(-0.0792074 0.259554 0)
(-0.0732237 0.25215 0)
(-0.0565493 0.237997 0)
(-0.032706 0.221897 0)
(-0.00428035 0.206071 0)
(0.0268867 0.191368 0)
(0.0595046 0.177918 0)
(0.0926374 0.165479 0)
(0.125547 0.153608 0)
(0.157584 0.14176 0)
(0.188111 0.129338 0)
(0.216458 0.115717 0)
(0.24189 0.100263 0)
(0.263587 0.0823279 0)
(0.280625 0.0612397 0)
(0.29196 0.0362796 0)
(0.296381 0.00662987 0)
(0.292547 -0.0287396 0)
(0.278904 -0.0711302 0)
(0.253648 -0.122439 0)
(0.214807 -0.185577 0)
(0.160615 -0.264921 0)
(0.0909935 -0.365452 0)
(0.0120458 -0.486145 0)
(-0.0563571 -0.599464 0)
(-0.0829992 -0.615054 0)
(-0.0380927 -0.355626 0)
(-0.0253692 0.136501 0)
(-0.067665 0.242072 0)
(-0.0889617 0.265638 0)
(-0.0831803 0.255482 0)
(-0.0590409 0.234065 0)
(-0.0244924 0.210756 0)
(0.0155603 0.18912 0)
(0.0581113 0.170216 0)
(0.101344 0.15405 0)
(0.144182 0.140215 0)
(0.185963 0.12816 0)
(0.226225 0.117289 0)
(0.264571 0.10701 0)
(0.300585 0.0967418 0)
(0.333782 0.0859249 0)
(0.363575 0.0740142 0)
(0.389254 0.0604742 0)
(0.409968 0.0447649 0)
(0.424708 0.0263203 0)
(0.432209 0.00450704 0)
(0.431081 -0.0214042 0)
(0.419608 -0.0524543 0)
(0.395675 -0.0901991 0)
(0.356721 -0.137236 0)
(0.29966 -0.198258 0)
(0.221406 -0.281224 0)
(0.122702 -0.39484 0)
(0.0170104 -0.530078 0)
(-0.0628691 -0.611024 0)
(-0.0413281 -0.420405 0)
(-0.0410109 0.198583 0)
(-0.0896778 0.274261 0)
(-0.0797235 0.259812 0)
(-0.0372816 0.225441 0)
(0.0186811 0.191075 0)
(0.0786046 0.161776 0)
(0.138119 0.138182 0)
(0.195233 0.119518 0)
(0.249167 0.104722 0)
(0.299736 0.092827 0)
(0.346997 0.0830208 0)
(0.391047 0.0746252 0)
(0.431926 0.0670631 0)
(0.469564 0.0598329 0)
(0.503749 0.0524886 0)
(0.534111 0.0446241 0)
(0.560111 0.0358604 0)
(0.581039 0.0258306 0)
(0.595987 0.0141582 0)
(0.603829 0.000414427 0)
(0.603234 -0.0157532 0)
(0.592449 -0.0350473 0)
(0.569352 -0.0585078 0)
(0.531185 -0.0879708 0)
(0.474172 -0.127179 0)
(0.393037 -0.184153 0)
(0.282605 -0.273975 0)
(0.144055 -0.410623 0)
(-0.00445275 -0.553699 0)
(-0.0256675 -0.477082 0)
(-0.0338042 0.294434 0)
(-0.0469332 0.273767 0)
(0.0552225 0.200372 0)
(0.158307 0.149823 0)
(0.250447 0.114232 0)
(0.331225 0.0886718 0)
(0.401724 0.0705463 0)
(0.463321 0.0576645 0)
(0.517492 0.0483183 0)
(0.565564 0.0413347 0)
(0.608588 0.0359243 0)
(0.647322 0.0315318 0)
(0.682265 0.0277459 0)
(0.713677 0.0242471 0)
(0.741606 0.0207773 0)
(0.765897 0.0171191 0)
(0.786209 0.0130831 0)
(0.80202 0.00850069 0)
(0.812594 0.00321347 0)
(0.817147 -0.00289911 0)
(0.814584 -0.0101023 0)
(0.803419 -0.0186597 0)
(0.781918 -0.0290071 0)
(0.747675 -0.042028 0)
(0.69704 -0.0597101 0)
(0.623926 -0.0870635 0)
(0.518166 -0.137526 0)
(0.364753 -0.240564 0)
(0.143816 -0.407063 0)
(0.0587528 -0.458301 0)
(0.303379 0.181016 0)
(0.383045 0.14456 0)
(0.561807 0.0914253 0)
(0.687935 0.0591388 0)
(0.770545 0.03932 0)
(0.829656 0.0266573 0)
(0.874723 0.0186232 0)
(0.910239 0.0135553 0)
(0.939056 0.010307 0)
(0.963116 0.00815597 0)
(0.983675 0.0066653 0)
(1.00152 0.00556574 0)
(1.01712 0.00468426 0)
(1.03073 0.00390453 0)
(1.04243 0.00314442 0)
(1.05216 0.00234283 0)
(1.05975 0.00145179 0)
(1.06494 0.000435607 0)
(1.0674 -0.000735873 0)
(1.06667 -0.00201323 0)
(1.06217 -0.00356378 0)
(1.05332 -0.00541069 0)
(1.03927 -0.00761807 0)
(1.0188 -0.0103805 0)
(0.989857 -0.0141822 0)
(0.94835 -0.0203506 0)
(0.884548 -0.0327601 0)
(0.776623 -0.0638986 0)
(0.544887 -0.139544 0)
(0.382489 -0.20177 0)
)
;

boundaryField
{
    movingWall
    {
        type            fixedValue;
        value           uniform (1.2 0 0);
    }
    fixedWalls
    {
        type            noSlip;
    }
    frontAndBack
    {
        type            empty;
    }
}


// ************************************************************************* //
