/*--------------------------------*- C++ -*----------------------------------*\
  =========                 |
  \\      /  F ield         | OpenFOAM: The Open Source CFD Toolbox
   \\    /   O peration     | Website:  https://openfoam.org
    \\  /    A nd           | Version:  7
     \\/     M anipulation  |
\*---------------------------------------------------------------------------*/
FoamFile
{
    version     2.0;
    format      ascii;
    class       volScalarField;
    location    "450";
    object      k;
}
// * * * * * * * * * * * * * * * * * * * * * * * * * * * * * * * * * * * * * //

dimensions      [0 2 -2 0 0 0 0];

internalField   nonuniform List<scalar> 
4500
(
2.10711
1.99003
1.89804
1.8345
1.78632
1.74875
1.71881
1.69443
1.67421
1.65718
1.64268
1.6302
1.61939
1.60996
1.6017
1.59444
1.58803
1.58238
1.57737
1.57295
1.56904
1.56558
1.56254
1.55987
1.55754
1.55551
1.55378
1.55231
1.5511
1.55012
1.54937
1.54881
1.54841
1.54815
1.54796
1.54779
1.54759
1.54731
1.5469
1.54631
1.54553
1.54455
1.54337
1.542
1.54047
1.53879
1.537
1.53514
1.53324
1.53133
1.52945
1.52763
1.5259
1.52429
1.52282
1.52152
1.52041
1.5195
1.51882
1.51837
1.51817
1.51822
1.51853
1.5191
1.51993
1.52102
1.52235
1.52391
1.5257
1.52769
1.52987
1.53222
1.53472
1.53733
1.53995
1.10354
1.6732
1.8379
1.85191
1.83283
1.80901
1.78664
1.7669
1.74973
1.73484
1.72188
1.71057
1.70066
1.69195
1.68428
1.6775
1.67151
1.6662
1.66151
1.65736
1.6537
1.65047
1.64764
1.64516
1.64302
1.64117
1.63961
1.63831
1.63726
1.63645
1.63585
1.63544
1.6352
1.63507
1.63501
1.63496
1.63488
1.63471
1.6344
1.63393
1.63327
1.63243
1.63139
1.63017
1.62881
1.62731
1.6257
1.62403
1.62231
1.62059
1.61888
1.61722
1.61563
1.61414
1.61276
1.61152
1.61044
1.60954
1.60883
1.60832
1.60802
1.60793
1.60808
1.60846
1.60907
1.60993
1.61101
1.61232
1.61384
1.61556
1.61747
1.61955
1.62178
1.62414
1.62647
0.644943
1.23225
1.53537
1.63719
1.66542
1.66864
1.66318
1.65482
1.64581
1.63702
1.62881
1.62129
1.61447
1.60833
1.60283
1.5979
1.59351
1.5896
1.58613
1.58307
1.58037
1.578
1.57594
1.57416
1.57264
1.57137
1.57032
1.5695
1.56888
1.56847
1.56825
1.56821
1.56833
1.56858
1.56893
1.56934
1.56974
1.5701
1.57036
1.57049
1.57045
1.57022
1.5698
1.56917
1.56835
1.56734
1.56616
1.56483
1.56337
1.56181
1.56017
1.55847
1.55673
1.55499
1.55325
1.55155
1.54991
1.54835
1.54688
1.54554
1.54432
1.54325
1.54236
1.54165
1.54115
1.54085
1.54076
1.5409
1.54124
1.54181
1.54258
1.54355
1.54472
1.54607
1.54743
0.463615
0.893401
1.25805
1.43575
1.5127
1.54555
1.55894
1.56332
1.56337
1.56132
1.55829
1.55487
1.55137
1.54798
1.54477
1.54181
1.5391
1.53665
1.53446
1.53253
1.53083
1.52936
1.52811
1.52705
1.52619
1.52551
1.52501
1.52467
1.52451
1.52453
1.52472
1.5251
1.52564
1.52635
1.52718
1.52812
1.5291
1.53008
1.531
1.53181
1.53245
1.5329
1.53311
1.53306
1.53275
1.53216
1.53131
1.5302
1.52885
1.52728
1.52551
1.52357
1.52147
1.51924
1.51691
1.5145
1.51205
1.50959
1.50713
1.5047
1.50234
1.50008
1.49794
1.49596
1.49415
1.49254
1.49114
1.48996
1.48902
1.48833
1.48789
1.4877
1.48775
1.48806
1.48846
0.39407
0.646738
0.998479
1.23088
1.35547
1.4206
1.45545
1.47456
1.48513
1.49089
1.49385
1.49516
1.49547
1.49521
1.49462
1.49387
1.49306
1.49226
1.49151
1.49084
1.49026
1.48979
1.48943
1.48919
1.48906
1.48904
1.48914
1.48936
1.48972
1.49022
1.49089
1.49174
1.49277
1.494
1.49539
1.49694
1.49857
1.50025
1.50189
1.50343
1.5048
1.50593
1.50677
1.50727
1.50742
1.50718
1.50656
1.50556
1.50419
1.50246
1.5004
1.49804
1.49539
1.49249
1.48937
1.48607
1.48261
1.47905
1.47541
1.47173
1.46807
1.46445
1.46092
1.45751
1.45427
1.45123
1.44841
1.44583
1.44353
1.44152
1.43981
1.43841
1.43733
1.43658
1.43601
0.370615
0.488905
0.769299
1.02349
1.18836
1.28645
1.34497
1.38088
1.40366
1.41854
1.4285
1.43532
1.44007
1.44345
1.44589
1.4477
1.44908
1.45017
1.45107
1.45184
1.45255
1.45322
1.45389
1.45456
1.45527
1.456
1.4568
1.45765
1.4586
1.45966
1.46087
1.46226
1.46385
1.46566
1.46768
1.4699
1.47225
1.47467
1.47708
1.47938
1.48147
1.48328
1.48472
1.48573
1.48628
1.48631
1.48583
1.48483
1.48331
1.4813
1.47882
1.47589
1.47255
1.46883
1.46478
1.46044
1.45585
1.45105
1.44611
1.44106
1.43597
1.4309
1.42588
1.42098
1.41623
1.41169
1.4074
1.40339
1.39969
1.39633
1.39333
1.39072
1.3885
1.3867
1.38519
0.364546
0.403111
0.587007
0.823641
1.01304
1.14094
1.22398
1.27842
1.31506
1.34046
1.35856
1.3718
1.38173
1.38935
1.39533
1.40011
1.40404
1.40732
1.41012
1.41258
1.41476
1.41675
1.41859
1.42033
1.42198
1.42359
1.42517
1.42676
1.42838
1.43009
1.43191
1.43391
1.43613
1.43859
1.4413
1.44423
1.44734
1.45054
1.45372
1.45678
1.45959
1.46205
1.46406
1.46553
1.46641
1.46664
1.46622
1.46512
1.46337
1.46097
1.45796
1.45437
1.45023
1.4456
1.44052
1.43504
1.42922
1.42312
1.4168
1.41033
1.40377
1.39718
1.39065
1.38421
1.37795
1.3719
1.36613
1.36068
1.35559
1.3509
1.34663
1.34283
1.33949
1.33666
1.33424
0.364603
0.363346
0.460994
0.64658
0.836783
0.985712
1.09154
1.16521
1.21704
1.25428
1.28169
1.30236
1.31829
1.33084
1.34093
1.34918
1.35605
1.36188
1.3669
1.37129
1.37519
1.3787
1.3819
1.38486
1.38762
1.39022
1.39272
1.39514
1.39754
1.39998
1.40251
1.4052
1.40811
1.41128
1.41472
1.41841
1.4223
1.42629
1.43025
1.43406
1.43757
1.44065
1.44318
1.44506
1.44622
1.44659
1.44615
1.4449
1.44284
1.43999
1.43638
1.43206
1.42706
1.42146
1.4153
1.40865
1.40157
1.39414
1.38643
1.37852
1.37048
1.36241
1.35436
1.34642
1.33866
1.33114
1.32393
1.31708
1.31064
1.30466
1.29917
1.29421
1.28981
1.28599
1.28268
0.366685
0.347483
0.386684
0.507132
0.671669
0.826391
0.949252
1.04089
1.10836
1.15845
1.19625
1.22534
1.24815
1.26638
1.28121
1.29348
1.30378
1.31256
1.32014
1.32678
1.33266
1.33793
1.34271
1.34707
1.3511
1.35486
1.35841
1.3618
1.36509
1.36837
1.3717
1.37516
1.37884
1.38277
1.38699
1.39147
1.39615
1.40093
1.40567
1.41021
1.41439
1.41806
1.42108
1.42332
1.42471
1.42518
1.42469
1.42324
1.42083
1.41749
1.41326
1.40819
1.40233
1.39574
1.3885
1.38069
1.37237
1.36363
1.35456
1.34526
1.33581
1.32629
1.3168
1.30742
1.29823
1.28931
1.28073
1.27255
1.26483
1.25763
1.25099
1.24494
1.23951
1.23475
1.2306
0.369317
0.342581
0.348917
0.412157
0.531963
0.672822
0.801903
0.907129
0.989078
1.05222
1.10113
1.13949
1.17002
1.1947
1.21496
1.23184
1.24608
1.25827
1.26882
1.27805
1.28622
1.29353
1.30012
1.30611
1.31161
1.3167
1.32146
1.32596
1.33028
1.33451
1.33874
1.34307
1.34758
1.35234
1.35738
1.36268
1.36817
1.37374
1.37924
1.3845
1.38933
1.39356
1.39704
1.39963
1.40123
1.40177
1.40122
1.39956
1.39681
1.39299
1.38815
1.38235
1.37564
1.36812
1.35985
1.35092
1.34142
1.33146
1.32112
1.31051
1.29973
1.28888
1.27804
1.26733
1.25682
1.2466
1.23675
1.22734
1.21844
1.21011
1.20238
1.19531
1.18893
1.18328
1.17834
0.371958
0.342445
0.332102
0.356566
0.42837
0.537786
0.658014
0.768348
0.860997
0.935939
0.995905
1.044
1.08291
1.11474
1.1411
1.16319
1.18194
1.19802
1.21198
1.2242
1.23501
1.24466
1.25334
1.26121
1.26841
1.27503
1.28119
1.28696
1.29246
1.29778
1.30303
1.30832
1.31376
1.31941
1.32531
1.33146
1.33777
1.34414
1.35039
1.35636
1.36182
1.3666
1.37053
1.37346
1.37527
1.3759
1.37531
1.37347
1.37041
1.36615
1.36076
1.35429
1.34683
1.33845
1.32924
1.31931
1.30875
1.29767
1.28619
1.2744
1.26243
1.25037
1.23833
1.22641
1.21471
1.20333
1.19234
1.18182
1.17185
1.16248
1.15378
1.14577
1.1385
1.13201
1.12631
0.374409
0.344309
0.325896
0.328085
0.362098
0.432748
0.529167
0.632415
0.728536
0.811707
0.881286
0.938793
0.986292
1.02573
1.05874
1.08663
1.11042
1.13091
1.14873
1.16436
1.17818
1.19052
1.2016
1.21163
1.22078
1.22917
1.23693
1.24417
1.25101
1.25758
1.26398
1.27035
1.27681
1.28342
1.29025
1.29727
1.30443
1.31161
1.31862
1.32528
1.33139
1.33672
1.34111
1.34439
1.34645
1.34721
1.34662
1.34467
1.34138
1.33678
1.33093
1.32391
1.3158
1.30669
1.29668
1.28589
1.27442
1.26239
1.24993
1.23714
1.22413
1.21104
1.19796
1.185
1.17227
1.15987
1.14788
1.1364
1.12548
1.1152
1.1056
1.09675
1.08866
1.0814
1.07498
0.376595
0.346935
0.32478
0.315189
0.325142
0.361913
0.426574
0.510145
0.599357
0.684171
0.759763
0.824969
0.880429
0.92743
0.967348
1.00143
1.03072
1.05608
1.07822
1.09769
1.11493
1.13032
1.14414
1.15664
1.16801
1.17842
1.18802
1.19694
1.20533
1.2133
1.22102
1.2286
1.23618
1.24385
1.25167
1.25963
1.26767
1.27567
1.28346
1.29083
1.29759
1.3035
1.30838
1.31206
1.31443
1.31539
1.31489
1.31293
1.30952
1.3047
1.29854
1.29112
1.28252
1.27286
1.26223
1.25076
1.23857
1.22579
1.21253
1.19893
1.1851
1.17116
1.15723
1.14342
1.12984
1.11659
1.10377
1.09145
1.07972
1.06864
1.05827
1.04866
1.03984
1.03186
1.02477
0.378494
0.349749
0.326042
0.310425
0.306798
0.320311
0.355502
0.412199
0.483847
0.561114
0.636428
0.705553
0.766924
0.820518
0.867011
0.907312
0.942336
0.972909
0.999742
1.02343
1.04448
1.06328
1.08019
1.09548
1.10937
1.12208
1.13378
1.14462
1.15476
1.16435
1.17354
1.18249
1.19132
1.20015
1.20905
1.218
1.22697
1.23584
1.24444
1.25257
1.26001
1.26654
1.27197
1.27613
1.27889
1.28016
1.27988
1.27804
1.27467
1.2698
1.2635
1.25586
1.24698
1.23696
1.22592
1.214
1.20131
1.188
1.17418
1.15998
1.14554
1.13097
1.1164
1.10194
1.0877
1.07378
1.06029
1.04731
1.03491
1.02317
1.01213
1.00186
0.992386
0.983758
0.976044
0.380104
0.352469
0.328352
0.309741
0.298825
0.298554
0.31258
0.343818
0.391993
0.452699
0.519406
0.586268
0.64949
0.707223
0.758929
0.804789
0.845312
0.881119
0.912829
0.941009
0.96616
0.98871
1.00903
1.02742
1.04415
1.05944
1.07351
1.08651
1.09864
1.11005
1.12092
1.1314
1.14164
1.15176
1.16183
1.17188
1.18185
1.19165
1.20111
1.21005
1.21824
1.22547
1.23153
1.23627
1.23953
1.24124
1.24132
1.23978
1.23662
1.2319
1.22568
1.21804
1.2091
1.19896
1.18776
1.17563
1.1627
1.1491
1.13496
1.12041
1.1056
1.09063
1.07564
1.06074
1.04605
1.03166
1.01768
1.00419
0.991278
0.979003
0.967428
0.9566
0.946558
0.937353
0.929064
0.381432
0.354953
0.331036
0.311052
0.296302
0.288389
0.289475
0.302115
0.328313
0.36807
0.418684
0.475701
0.534633
0.59211
0.646117
0.695722
0.740693
0.781189
0.817558
0.850219
0.879596
0.906089
0.930059
0.951822
0.97166
0.989816
1.00651
1.02194
1.03629
1.04976
1.0625
1.07471
1.08652
1.09808
1.10946
1.1207
1.13178
1.14259
1.153
1.16282
1.17184
1.17986
1.18666
1.19209
1.19601
1.19831
1.19895
1.19789
1.19517
1.19081
1.1849
1.17752
1.16878
1.15879
1.1477
1.13562
1.12271
1.10909
1.09489
1.08026
1.06532
1.05021
1.03503
1.01992
1.00498
0.990321
0.976038
0.962218
0.948942
0.936278
0.924286
0.913013
0.9025
0.892798
0.883996
0.382496
0.357126
0.333732
0.313269
0.296566
0.284515
0.278275
0.279385
0.28963
0.310488
0.342261
0.383516
0.431393
0.482568
0.53415
0.584096
0.631195
0.674873
0.714976
0.751595
0.784951
0.815322
0.843
0.868269
0.891396
0.912623
0.932174
0.950258
0.96707
0.982803
0.997643
1.01177
1.02534
1.03849
1.05134
1.06391
1.0762
1.08813
1.09959
1.11039
1.12036
1.12928
1.13696
1.14323
1.14796
1.15104
1.15242
1.15208
1.15001
1.14628
1.14094
1.13408
1.12581
1.11626
1.10555
1.09382
1.08121
1.06785
1.05388
1.03943
1.02463
1.00961
0.994494
0.9794
0.964438
0.949712
0.935318
0.921346
0.907873
0.89497
0.882695
0.871097
0.860218
0.850111
0.84087
0.383317
0.358954
0.336237
0.315805
0.298201
0.28395
0.27367
0.268176
0.268537
0.276002
0.291697
0.316126
0.348733
0.387879
0.431279
0.47661
0.521952
0.565944
0.607754
0.646951
0.683385
0.717079
0.748156
0.776795
0.803192
0.827554
0.850082
0.870973
0.890419
0.908608
0.925729
0.941959
0.957466
0.972394
0.986851
1.0009
1.01454
1.02773
1.04036
1.05227
1.06331
1.07326
1.08196
1.08924
1.09496
1.09902
1.10136
1.10195
1.1008
1.09795
1.09346
1.0874
1.0799
1.07107
1.06105
1.04996
1.03794
1.02513
1.01167
0.99767
0.983279
0.968619
0.95381
0.93897
0.924208
0.909626
0.895322
0.881382
0.867885
0.8549
0.842487
0.830696
0.819568
0.809159
0.799568
0.383926
0.360429
0.338437
0.318319
0.300425
0.285071
0.272597
0.26342
0.258096
0.257353
0.262057
0.273062
0.290942
0.315686
0.346543
0.382133
0.420773
0.460828
0.500941
0.540122
0.577726
0.613379
0.646913
0.678291
0.707564
0.734835
0.760237
0.783921
0.806049
0.826788
0.84631
0.864785
0.882377
0.899228
0.915453
0.931123
0.946262
0.96084
0.974774
0.987938
1.00018
1.01132
1.0212
1.02965
1.03655
1.04179
1.04532
1.04709
1.0471
1.0454
1.04203
1.03707
1.03063
1.02282
1.01378
1.00363
0.992507
0.980538
0.967858
0.954597
0.940883
0.92684
0.912589
0.898242
0.883908
0.869688
0.855677
0.841962
0.82862
0.815721
0.803324
0.791482
0.780237
0.769646
0.759813
0.384356
0.361567
0.340271
0.320613
0.302785
0.286971
0.273357
0.262155
0.253642
0.248183
0.246262
0.248465
0.255422
0.267671
0.285474
0.308658
0.336564
0.368157
0.40222
0.437572
0.473202
0.508334
0.542422
0.575119
0.606231
0.635672
0.66344
0.689584
0.714191
0.737375
0.759269
0.780013
0.79975
0.818612
0.836709
0.854119
0.870878
0.886972
0.902341
0.916886
0.930472
0.942948
0.95416
0.963962
0.972226
0.978854
0.983776
0.986956
0.988389
0.988097
0.986126
0.982545
0.977456
0.970971
0.963209
0.954293
0.94435
0.93351
0.921901
0.909649
0.89688
0.883715
0.870269
0.856656
0.84298
0.829342
0.815833
0.802541
0.789542
0.776906
0.764693
0.752957
0.741741
0.731104
0.721155
0.384645
0.3624
0.341721
0.322574
0.305012
0.28912
0.274988
0.262719
0.252442
0.244331
0.238618
0.235613
0.235703
0.239328
0.246928
0.258848
0.275219
0.295877
0.320342
0.347879
0.377621
0.408696
0.440324
0.471867
0.502845
0.532921
0.561879
0.589599
0.616037
0.641202
0.665146
0.68795
0.709709
0.730525
0.750488
0.769668
0.788101
0.805787
0.822684
0.838711
0.853758
0.867693
0.880379
0.891681
0.901479
0.909675
0.916198
0.921007
0.924089
0.925456
0.925143
0.923211
0.919752
0.914866
0.908664
0.901264
0.892785
0.883352
0.873087
0.862113
0.85055
0.838516
0.826124
0.813482
0.800695
0.787859
0.775067
0.762402
0.749942
0.737756
0.725906
0.714446
0.703421
0.692894
0.682975
0.384827
0.362976
0.342805
0.324148
0.306947
0.291198
0.276922
0.264155
0.252946
0.243368
0.235524
0.229553
0.225648
0.224051
0.225056
0.228985
0.236149
0.246788
0.260999
0.278687
0.299546
0.323088
0.348707
0.375765
0.403651
0.431836
0.45989
0.487489
0.514403
0.540485
0.565659
0.589899
0.613218
0.635652
0.657246
0.67804
0.698056
0.71729
0.735706
0.753239
0.769793
0.785256
0.799503
0.812411
0.823867
0.833775
0.842062
0.84868
0.853608
0.856847
0.858421
0.858379
0.856797
0.853765
0.849384
0.84376
0.837008
0.829242
0.82058
0.811138
0.801032
0.790374
0.779275
0.767839
0.756168
0.744357
0.732496
0.720669
0.708951
0.697413
0.686117
0.675118
0.664464
0.654219
0.644497
0.384935
0.363349
0.343566
0.325333
0.308509
0.293015
0.278815
0.265893
0.254251
0.243905
0.234889
0.227257
0.221089
0.216497
0.213627
0.212662
0.213817
0.217326
0.223417
0.232273
0.243994
0.258559
0.275805
0.29544
0.317067
0.340231
0.36447
0.389352
0.4145
0.43961
0.464448
0.488847
0.512698
0.535935
0.558521
0.580435
0.601657
0.622157
0.641887
0.660779
0.678745
0.695679
0.711467
0.725993
0.739147
0.750834
0.760975
0.769515
0.776424
0.781691
0.785327
0.787364
0.787863
0.786899
0.78456
0.780941
0.776147
0.770283
0.763458
0.755783
0.747366
0.738317
0.728739
0.718736
0.708405
0.69784
0.687127
0.676351
0.665586
0.654903
0.644364
0.634026
0.623939
0.614168
0.604828
0.384994
0.363574
0.344062
0.326166
0.309682
0.294477
0.280464
0.267588
0.255813
0.24512
0.235503
0.226971
0.219547
0.21327
0.208201
0.204423
0.202042
0.201191
0.202024
0.20471
0.209419
0.216301
0.22546
0.236931
0.250663
0.266508
0.284236
0.303554
0.324134
0.345643
0.367771
0.390244
0.412832
0.435352
0.457662
0.479648
0.501218
0.522285
0.542765
0.562564
0.58158
0.599701
0.61681
0.632788
0.647523
0.660913
0.672872
0.683334
0.692254
0.699608
0.705391
0.709619
0.71233
0.713583
0.71345
0.712013
0.709362
0.705593
0.700807
0.695104
0.688587
0.681358
0.673517
0.665162
0.656388
0.647285
0.637939
0.628431
0.618836
0.609224
0.599658
0.590195
0.580887
0.5718
0.563049
0.385025
0.363699
0.344363
0.326707
0.310498
0.295561
0.281772
0.269042
0.257306
0.246517
0.236644
0.227667
0.219578
0.21238
0.206088
0.20073
0.196348
0.193
0.190761
0.189721
0.18999
0.191688
0.19494
0.199868
0.206574
0.215125
0.225538
0.237773
0.251727
0.267242
0.284115
0.30212
0.321022
0.340591
0.360615
0.380903
0.401282
0.421596
0.441698
0.461449
0.480709
0.499339
0.5172
0.534158
0.550083
0.564859
0.578384
0.590572
0.601359
0.610702
0.618578
0.62498
0.629922
0.633441
0.63559
0.636434
0.636047
0.634511
0.631915
0.62835
0.623909
0.618687
0.612778
0.606273
0.599263
0.591835
0.584072
0.576052
0.56785
0.559534
0.551166
0.542806
0.534505
0.526327
0.518389
0.385039
0.363763
0.344529
0.327031
0.311019
0.296298
0.282719
0.270166
0.25855
0.247804
0.237875
0.228725
0.220326
0.21266
0.205716
0.199495
0.194005
0.189262
0.185294
0.182139
0.179847
0.178479
0.178108
0.178817
0.180697
0.18384
0.188336
0.194261
0.201667
0.210578
0.220978
0.232813
0.245987
0.260375
0.275824
0.292164
0.309216
0.326797
0.344723
0.362814
0.380887
0.398768
0.416281
0.433262
0.449551
0.465002
0.479487
0.49289
0.50512
0.516104
0.525792
0.534154
0.541171
0.546854
0.551229
0.554341
0.556241
0.556996
0.556677
0.55536
0.553129
0.550065
0.546255
0.541783
0.536732
0.531183
0.525215
0.518903
0.512318
0.505526
0.49859
0.491566
0.484508
0.477478
0.470583
0.385045
0.363793
0.344613
0.327207
0.311323
0.296756
0.283344
0.270952
0.259476
0.248832
0.238951
0.229781
0.221278
0.213411
0.206155
0.199492
0.193412
0.187912
0.182994
0.178668
0.17495
0.171863
0.169439
0.167716
0.166741
0.16657
0.167264
0.16889
0.171518
0.175215
0.180042
0.18605
0.193268
0.201707
0.211349
0.222146
0.234024
0.24688
0.260584
0.274988
0.289927
0.305221
0.320687
0.336137
0.351387
0.366263
0.380599
0.394247
0.407077
0.418981
0.429869
0.439679
0.448358
0.45588
0.462237
0.46744
0.471517
0.474506
0.476455
0.477421
0.477469
0.476665
0.47508
0.472788
0.46986
0.46637
0.462388
0.457984
0.453223
0.448168
0.442879
0.437411
0.431816
0.426154
0.420518
0.385047
0.363805
0.344651
0.327293
0.311482
0.297013
0.283715
0.271447
0.260093
0.249557
0.239761
0.230639
0.22214
0.21422
0.206844
0.199984
0.193619
0.187734
0.182318
0.177365
0.172874
0.16885
0.165302
0.162241
0.159688
0.157665
0.156202
0.155334
0.155099
0.155544
0.156716
0.158669
0.161453
0.16512
0.169714
0.175269
0.181808
0.189331
0.197821
0.207231
0.21749
0.228502
0.240143
0.252274
0.264736
0.277364
0.28999
0.302449
0.314585
0.326257
0.337338
0.347722
0.357325
0.366071
0.373911
0.380812
0.386761
0.39176
0.395823
0.398975
0.401254
0.402702
0.403369
0.403307
0.402575
0.401232
0.399337
0.39695
0.394131
0.390936
0.387421
0.38364
0.379641
0.375481
0.371235
0.385048
0.36381
0.344666
0.32733
0.311556
0.29714
0.28391
0.271721
0.260452
0.250001
0.240283
0.231225
0.222767
0.214859
0.207459
0.200533
0.194052
0.187994
0.18234
0.177077
0.172195
0.167688
0.163554
0.159795
0.156413
0.153417
0.150818
0.148631
0.146872
0.145564
0.144732
0.144406
0.144619
0.145406
0.146806
0.148859
0.151606
0.155083
0.15932
0.164341
0.170154
0.176752
0.184107
0.192172
0.200876
0.210128
0.219819
0.229825
0.240013
0.250245
0.260386
0.270305
0.279885
0.289016
0.2976
0.305557
0.312823
0.319352
0.325114
0.330093
0.334289
0.337711
0.340381
0.342328
0.34359
0.344207
0.344227
0.343699
0.342672
0.341199
0.339331
0.337117
0.334605
0.331846
0.328903
0.385048
0.363811
0.344671
0.327343
0.311584
0.297191
0.283992
0.271841
0.260616
0.250212
0.24054
0.231524
0.2231
0.215215
0.207823
0.200885
0.19437
0.18825
0.182505
0.177117
0.172072
0.16736
0.162973
0.158908
0.155163
0.151739
0.148639
0.14587
0.14344
0.141361
0.139645
0.13831
0.137375
0.136862
0.136796
0.137207
0.138124
0.139581
0.141612
0.14425
0.147526
0.151467
0.156091
0.161404
0.167401
0.174056
0.181325
0.189145
0.197433
0.206089
0.214998
0.224036
0.233079
0.242001
0.250678
0.258997
0.266857
0.274173
0.280879
0.286923
0.292273
0.29691
0.300832
0.304047
0.306576
0.308447
0.309694
0.310359
0.310486
0.310121
0.309312
0.308106
0.306551
0.304694
0.30259
0.385048
0.363811
0.344671
0.327343
0.311584
0.297191
0.283992
0.271841
0.260616
0.250212
0.24054
0.231524
0.2231
0.215215
0.207823
0.200885
0.19437
0.18825
0.182505
0.177117
0.172072
0.16736
0.162973
0.158908
0.155163
0.151739
0.148639
0.14587
0.14344
0.14136
0.139645
0.13831
0.137375
0.136862
0.136797
0.137209
0.138127
0.139586
0.14162
0.144262
0.147544
0.151492
0.156125
0.16145
0.167461
0.174131
0.181418
0.189257
0.197564
0.206239
0.215167
0.224222
0.233279
0.242212
0.250897
0.25922
0.26708
0.274393
0.28109
0.287121
0.292454
0.297072
0.30097
0.30416
0.30666
0.3085
0.309715
0.310345
0.310437
0.310035
0.309188
0.307945
0.306353
0.304459
0.302319
0.385048
0.36381
0.344666
0.32733
0.311556
0.29714
0.28391
0.271721
0.260452
0.250001
0.240283
0.231225
0.222767
0.214859
0.207459
0.200533
0.194052
0.187994
0.18234
0.177077
0.172194
0.167688
0.163554
0.159794
0.156412
0.153416
0.150817
0.148628
0.146869
0.145561
0.144729
0.144402
0.144615
0.145402
0.146803
0.148859
0.151609
0.155092
0.159339
0.164374
0.170205
0.176827
0.184213
0.192315
0.201062
0.210362
0.220105
0.230166
0.240409
0.250695
0.260885
0.270847
0.280463
0.289621
0.298221
0.306182
0.313441
0.319951
0.325683
0.330621
0.334766
0.338128
0.340729
0.3426
0.343778
0.344307
0.344234
0.343608
0.342482
0.340907
0.338934
0.336616
0.334001
0.33114
0.328097
0.385047
0.363805
0.344651
0.327293
0.311482
0.297013
0.283715
0.271447
0.260093
0.249557
0.239761
0.23064
0.222141
0.21422
0.206844
0.199984
0.193619
0.187734
0.182317
0.177364
0.172873
0.168849
0.165299
0.162238
0.159684
0.15766
0.156196
0.155326
0.15509
0.155533
0.156704
0.158655
0.161438
0.165105
0.1697
0.17526
0.181807
0.189344
0.197853
0.207292
0.217589
0.228648
0.240348
0.252546
0.265084
0.277794
0.290505
0.30305
0.31527
0.327019
0.338167
0.348607
0.358253
0.367027
0.374876
0.381771
0.387696
0.392653
0.396658
0.399739
0.401931
0.40328
0.403836
0.403654
0.402793
0.401313
0.399275
0.396741
0.393771
0.390424
0.386755
0.38282
0.37867
0.37436
0.369971
0.385045
0.363793
0.344613
0.327207
0.311323
0.296757
0.283344
0.270953
0.259477
0.248833
0.238952
0.229782
0.221279
0.213412
0.206155
0.199492
0.193412
0.187911
0.182993
0.178666
0.174946
0.171858
0.169432
0.167707
0.166731
0.166557
0.167248
0.168871
0.171495
0.175188
0.180011
0.186015
0.193232
0.201671
0.211316
0.222123
0.234017
0.246899
0.26064
0.275094
0.290096
0.305468
0.321024
0.336574
0.351933
0.366921
0.38137
0.395127
0.408058
0.42005
0.431012
0.440879
0.449597
0.457136
0.463488
0.468666
0.472696
0.475618
0.477481
0.478345
0.478274
0.477337
0.475607
0.473159
0.470067
0.466404
0.462244
0.457657
0.452711
0.44747
0.441994
0.436342
0.430567
0.424727
0.418924
0.385039
0.363763
0.344529
0.327031
0.311019
0.296299
0.28272
0.270167
0.258551
0.247805
0.237876
0.228726
0.220327
0.21266
0.205716
0.199494
0.194003
0.189258
0.185289
0.182132
0.179838
0.178466
0.178092
0.178796
0.180671
0.183809
0.188299
0.194217
0.201616
0.21052
0.220914
0.232743
0.245916
0.260308
0.275766
0.292125
0.309207
0.326833
0.34482
0.362987
0.381154
0.399144
0.41678
0.433892
0.450318
0.465908
0.480525
0.494052
0.506392
0.517469
0.527229
0.535641
0.542685
0.54837
0.552722
0.555786
0.557616
0.558279
0.557848
0.556403
0.554026
0.550803
0.546822
0.542168
0.536927
0.531182
0.525013
0.518497
0.511706
0.50471
0.497572
0.490349
0.483097
0.47588
0.468809
0.385025
0.363699
0.344363
0.326708
0.310499
0.295562
0.281774
0.269044
0.257308
0.246519
0.236645
0.227668
0.219578
0.212379
0.206086
0.200726
0.196342
0.192991
0.190748
0.189704
0.189968
0.191659
0.194904
0.199824
0.20652
0.215061
0.225463
0.237688
0.251632
0.267137
0.284005
0.302007
0.320911
0.340491
0.360536
0.380858
0.401286
0.421667
0.441856
0.461713
0.481098
0.499868
0.517882
0.534999
0.551085
0.566018
0.579689
0.592009
0.60291
0.612343
0.620284
0.626726
0.63168
0.635183
0.637289
0.638065
0.637586
0.635938
0.63321
0.629494
0.624888
0.619488
0.613389
0.606687
0.599473
0.591835
0.58386
0.575627
0.567211
0.558685
0.550111
0.54155
0.533056
0.524694
0.516583
0.384994
0.363574
0.344063
0.326167
0.309684
0.294479
0.280466
0.267591
0.255816
0.245122
0.235505
0.226971
0.219545
0.213266
0.208194
0.204412
0.202027
0.20117
0.201995
0.204673
0.209371
0.216241
0.225387
0.236845
0.250562
0.266393
0.284109
0.303415
0.323986
0.345489
0.367615
0.39009
0.412689
0.435231
0.457575
0.479613
0.501252
0.522411
0.543004
0.562938
0.582108
0.600398
0.617685
0.633845
0.648759
0.662318
0.674432
0.685028
0.694059
0.701497
0.707336
0.711591
0.714298
0.715519
0.715326
0.713804
0.711045
0.707148
0.702214
0.696347
0.689653
0.682235
0.674196
0.665636
0.656652
0.647336
0.637776
0.628054
0.618249
0.60843
0.598663
0.589008
0.579516
0.570254
0.561343
0.384935
0.36335
0.343567
0.325335
0.308511
0.293018
0.278818
0.265896
0.254254
0.243907
0.234889
0.227254
0.221083
0.216486
0.21361
0.212637
0.213783
0.21728
0.223357
0.232198
0.243902
0.258448
0.275678
0.295296
0.316907
0.340058
0.364287
0.389161
0.414305
0.439414
0.464256
0.488666
0.512538
0.535808
0.558443
0.580426
0.601738
0.622352
0.642221
0.661274
0.679419
0.696546
0.712533
0.727258
0.740603
0.752466
0.762764
0.771438
0.778451
0.783794
0.787474
0.789526
0.790008
0.788998
0.786586
0.782871
0.777957
0.771955
0.764975
0.75713
0.748531
0.73929
0.729514
0.719306
0.708768
0.697994
0.687073
0.676091
0.665125
0.654247
0.64352
0.633003
0.622747
0.612818
0.603334
0.384827
0.362977
0.342807
0.324151
0.30695
0.291202
0.276926
0.264158
0.252948
0.243368
0.235519
0.229544
0.225631
0.224025
0.225019
0.228933
0.23608
0.246699
0.260889
0.278554
0.299392
0.322913
0.348516
0.375559
0.403435
0.431612
0.459662
0.487259
0.514174
0.540263
0.565447
0.589706
0.613054
0.635533
0.65719
0.678069
0.698195
0.717565
0.736142
0.753858
0.770612
0.786286
0.800747
0.813864
0.825518
0.835605
0.844047
0.850793
0.855818
0.859124
0.860733
0.860694
0.859084
0.855997
0.851535
0.845809
0.838933
0.831026
0.822207
0.812597
0.802311
0.791466
0.780174
0.768542
0.756673
0.744665
0.732608
0.720589
0.708685
0.696968
0.685501
0.674341
0.663536
0.653152
0.643304
0.384645
0.362402
0.341724
0.322578
0.305017
0.289125
0.274992
0.262721
0.252441
0.244324
0.238605
0.23559
0.235666
0.239274
0.246854
0.258749
0.275094
0.295725
0.320163
0.347677
0.3774
0.40846
0.440077
0.471614
0.502588
0.532663
0.561623
0.589347
0.615791
0.640967
0.664927
0.687756
0.709554
0.730424
0.750462
0.769742
0.788302
0.806142
0.823218
0.839446
0.854709
0.868869
0.881778
0.893294
0.903291
0.911664
0.918338
0.923268
0.926439
0.927864
0.927578
0.925641
0.922148
0.917202
0.910917
0.903413
0.894812
0.885241
0.874825
0.86369
0.851957
0.839746
0.827173
0.814349
0.801379
0.788362
0.775391
0.762553
0.749926
0.73758
0.725579
0.713977
0.702821
0.692173
0.682147
0.384357
0.361569
0.340275
0.320619
0.302791
0.286976
0.273359
0.262154
0.253634
0.248166
0.246231
0.248416
0.255349
0.267569
0.28534
0.30849
0.336365
0.36793
0.401972
0.437308
0.472928
0.508053
0.54214
0.574838
0.605952
0.635398
0.663172
0.689324
0.713941
0.737139
0.759054
0.779828
0.79961
0.818535
0.836718
0.854241
0.871139
0.887402
0.902965
0.917723
0.931535
0.944242
0.955681
0.965698
0.974159
0.980959
0.986025
0.989319
0.990833
0.990592
0.988641
0.985051
0.979927
0.973382
0.965539
0.956523
0.946466
0.935497
0.923748
0.911348
0.898423
0.885097
0.871489
0.857711
0.843872
0.830072
0.816406
0.802961
0.789815
0.77704
0.764696
0.752838
0.741509
0.730771
0.720732
0.383927
0.360433
0.338442
0.318325
0.300431
0.285075
0.272596
0.263411
0.258075
0.257314
0.261993
0.272966
0.290808
0.315512
0.34633
0.381887
0.420501
0.460538
0.50064
0.539817
0.577419
0.613076
0.646614
0.677999
0.707279
0.734558
0.759969
0.783663
0.805803
0.826558
0.846104
0.864614
0.882256
0.899177
0.915496
0.931288
0.946579
0.961335
0.975471
0.988856
1.00133
1.0127
1.0228
1.03147
1.03856
1.04397
1.04763
1.0495
1.04959
1.04793
1.04458
1.03961
1.03314
1.02528
1.01616
1.00592
0.994696
0.982612
0.969807
0.956415
0.942565
0.928382
0.913987
0.899498
0.885022
0.870664
0.856517
0.842671
0.829204
0.816187
0.80368
0.791735
0.780395
0.769719
0.75981
0.383319
0.358958
0.336244
0.315811
0.298206
0.283951
0.273661
0.268152
0.26849
0.275923
0.291577
0.315958
0.348517
0.38762
0.430987
0.476297
0.521626
0.565614
0.607424
0.646626
0.683067
0.71677
0.747856
0.776504
0.802912
0.827284
0.849822
0.870724
0.890183
0.908391
0.925537
0.941804
0.957365
0.972368
0.986926
1.0011
1.0149
1.02827
1.04111
1.05325
1.06451
1.0747
1.08362
1.0911
1.097
1.10122
1.10369
1.10438
1.1033
1.10049
1.09601
1.08995
1.08242
1.07354
1.06345
1.05229
1.04019
1.02728
1.01371
0.999599
0.985093
0.970315
0.955387
0.940427
0.925547
0.910851
0.896434
0.882386
0.868785
0.855702
0.843197
0.83132
0.820114
0.809633
0.799978
0.382499
0.357132
0.333739
0.313276
0.296568
0.284508
0.27825
0.279332
0.289537
0.310342
0.342057
0.383258
0.431091
0.482236
0.533801
0.583741
0.630842
0.674526
0.714639
0.751269
0.784637
0.815019
0.842709
0.86799
0.891127
0.912365
0.931926
0.950021
0.966848
0.9826
0.997466
1.01163
1.02526
1.03849
1.05143
1.06414
1.07659
1.08871
1.10037
1.1114
1.12158
1.13072
1.13862
1.14508
1.14998
1.15322
1.15471
1.15446
1.15246
1.14877
1.14345
1.13659
1.1283
1.11871
1.10795
1.09616
1.08348
1.07005
1.05599
1.04145
1.02656
1.01145
0.996236
0.981047
0.965991
0.951173
0.93669
0.922631
0.909075
0.896093
0.883743
0.872076
0.861132
0.850963
0.841666
0.381436
0.354959
0.331044
0.311056
0.296297
0.288366
0.28942
0.30201
0.328145
0.367832
0.418385
0.475358
0.534265
0.591732
0.64574
0.695354
0.740336
0.780846
0.817229
0.849905
0.879296
0.905802
0.929784
0.951559
0.971407
0.989574
1.00628
1.02172
1.03609
1.04957
1.06234
1.07459
1.08646
1.09809
1.10958
1.12095
1.13218
1.14318
1.15379
1.16382
1.17306
1.18128
1.18829
1.1939
1.19798
1.20042
1.20116
1.2002
1.19754
1.19322
1.18733
1.17996
1.1712
1.16119
1.15006
1.13795
1.12498
1.1113
1.09705
1.08235
1.06735
1.05216
1.03691
1.02173
1.00672
0.991994
0.977642
0.963757
0.950417
0.937692
0.92564
0.914311
0.903743
0.89399
0.885137
0.380108
0.352477
0.328359
0.309741
0.298807
0.2985
0.312469
0.343631
0.391724
0.452364
0.519027
0.585869
0.649089
0.70683
0.75855
0.804426
0.844967
0.880792
0.912518
0.940714
0.965879
0.988442
1.00877
1.02717
1.04391
1.05922
1.07329
1.08631
1.09845
1.10988
1.12077
1.13129
1.14159
1.15179
1.16196
1.17213
1.18226
1.19223
1.20189
1.21102
1.21941
1.22684
1.23309
1.23799
1.2414
1.24323
1.24343
1.24197
1.23887
1.23419
1.22799
1.22037
1.21143
1.20128
1.19006
1.17791
1.16494
1.1513
1.13713
1.12254
1.10768
1.09267
1.07763
1.06268
1.04794
1.03351