/*--------------------------------*- C++ -*----------------------------------*\
  =========                 |
  \\      /  F ield         | OpenFOAM: The Open Source CFD Toolbox
   \\    /   O peration     | Website:  https://openfoam.org
    \\  /    A nd           | Version:  7
     \\/     M anipulation  |
\*---------------------------------------------------------------------------*/
FoamFile
{
    version     2.0;
    format      ascii;
    class       volScalarField;
    location    "450";
    object      nut;
}
// * * * * * * * * * * * * * * * * * * * * * * * * * * * * * * * * * * * * * //

dimensions      [0 2 -1 0 0 0 0];

internalField   nonuniform List<scalar> 
4500
(
0.000506064
0.000491803
0.000480303
0.000472195
0.000465952
0.000461027
0.000457063
0.00045381
0.000451094
0.000448794
0.000446826
0.000445126
0.000443647
0.000442353
0.000441217
0.000440216
0.000439331
0.000438548
0.000437854
0.000437239
0.000436695
0.000436214
0.00043579
0.000435417
0.000435091
0.000434808
0.000434565
0.000434359
0.000434188
0.00043405
0.000433944
0.000433866
0.000433814
0.000433783
0.000433766
0.000433757
0.000433749
0.000433733
0.000433703
0.000433652
0.000433577
0.000433474
0.000433343
0.000433184
0.000432999
0.000432792
0.000432565
0.000432323
0.000432071
0.000431813
0.000431554
0.000431298
0.000431049
0.00043081
0.000430587
0.000430381
0.000430196
0.000430036
0.000429901
0.000429795
0.000429719
0.000429674
0.000429662
0.000429684
0.00042974
0.00042983
0.000429952
0.000430108
0.000430294
0.000430509
0.000430752
0.00043102
0.000431311
0.00043162
0.000431935
0.000607327
0.000974335
0.00114372
0.00120841
0.00123497
0.00124672
0.00125197
0.00125409
0.00125464
0.00125437
0.00125368
0.00125278
0.00125181
0.00125083
0.00124989
0.001249
0.00124819
0.00124745
0.0012468
0.00124623
0.00124574
0.00124532
0.00124497
0.0012447
0.00124449
0.00124435
0.00124427
0.00124426
0.00124431
0.00124442
0.00124461
0.00124485
0.00124517
0.00124553
0.00124594
0.00124638
0.00124683
0.00124726
0.00124766
0.00124801
0.00124829
0.00124847
0.00124857
0.00124855
0.00124843
0.0012482
0.00124786
0.00124741
0.00124687
0.00124623
0.00124551
0.00124471
0.00124384
0.00124291
0.00124194
0.00124094
0.00123991
0.00123888
0.00123784
0.00123682
0.00123582
0.00123486
0.00123394
0.0012331
0.00123232
0.00123163
0.00123104
0.00123054
0.00123014
0.00122985
0.00122967
0.0012296
0.00122963
0.00122977
0.00122989
0.000713424
0.00121515
0.00157793
0.00177481
0.00188365
0.00194758
0.00198742
0.00201353
0.0020314
0.00204407
0.00205335
0.00206032
0.00206571
0.00206996
0.0020734
0.00207624
0.00207864
0.00208072
0.00208255
0.0020842
0.00208571
0.00208712
0.00208846
0.00208974
0.00209098
0.00209221
0.00209343
0.00209466
0.00209593
0.00209725
0.00209866
0.00210018
0.00210184
0.00210365
0.00210561
0.00210769
0.00210986
0.00211207
0.00211424
0.00211632
0.00211822
0.00211987
0.00212121
0.00212219
0.00212276
0.00212291
0.0021226
0.00212183
0.00212061
0.00211895
0.00211687
0.00211438
0.00211151
0.0021083
0.00210479
0.002101
0.002097
0.00209281
0.00208848
0.00208406
0.00207961
0.00207516
0.00207078
0.0020665
0.00206237
0.00205843
0.00205472
0.00205126
0.00204809
0.00204522
0.00204266
0.00204044
0.00203857
0.00203705
0.00203563
0.00102124
0.00136022
0.0018715
0.00222328
0.00244808
0.00259473
0.00269401
0.00276382
0.00281468
0.00285291
0.00288244
0.00290581
0.00292469
0.00294025
0.00295329
0.00296439
0.00297397
0.00298236
0.00298979
0.00299644
0.00300247
0.00300798
0.00301306
0.00301779
0.00302223
0.00302642
0.00303042
0.00303429
0.00303809
0.00304189
0.00304578
0.00304985
0.00305415
0.00305875
0.00306365
0.00306884
0.00307423
0.0030797
0.00308511
0.00309027
0.00309501
0.00309914
0.00310252
0.003105
0.00310649
0.00310692
0.00310624
0.00310444
0.00310153
0.00309754
0.00309252
0.00308652
0.00307961
0.00307188
0.00306341
0.0030543
0.00304466
0.00303458
0.00302417
0.00301355
0.00300283
0.00299212
0.00298152
0.00297114
0.00296109
0.00295143
0.00294226
0.00293364
0.00292563
0.00291827
0.00291161
0.00290568
0.0029005
0.00289611
0.00289209
0.00170708
0.00150447
0.00204415
0.00253669
0.00289421
0.00314704
0.00332847
0.0034619
0.00356263
0.0036406
0.00370233
0.00375222
0.00379326
0.00382758
0.0038567
0.00388174
0.00390351
0.00392266
0.00393966
0.00395491
0.00396868
0.00398123
0.00399274
0.00400337
0.00401325
0.0040225
0.00403122
0.00403955
0.00404761
0.00405555
0.00406353
0.00407174
0.0040803
0.00408932
0.00409884
0.0041088
0.00411907
0.00412941
0.00413953
0.0041491
0.00415778
0.00416524
0.0041712
0.00417541
0.0041777
0.00417795
0.00417609
0.00417211
0.00416607
0.00415802
0.00414807
0.00413635
0.00412299
0.00410817
0.00409205
0.00407482
0.00405667
0.0040378
0.0040184
0.00399869
0.00397885
0.00395908
0.00393956
0.00392049
0.00390201
0.00388428
0.00386743
0.00385158
0.00383682
0.00382324
0.00381091
0.00379988
0.00379018
0.00378187
0.00377436
0.00293021
0.00179432
0.00215557
0.00272719
0.0032116
0.00358299
0.00386409
0.004079
0.0042461
0.00437848
0.00448527
0.00457289
0.00464589
0.00470757
0.00476034
0.00480601
0.00484595
0.0048812
0.0049126
0.00494077
0.00496625
0.00498944
0.00501067
0.00503023
0.00504835
0.00506524
0.00508111
0.00509615
0.0051106
0.00512472
0.00513878
0.00515305
0.00516777
0.0051831
0.00519909
0.00521565
0.00523253
0.00524935
0.00526564
0.00528086
0.00529446
0.00530593
0.00531482
0.00532076
0.00532349
0.00532285
0.00531878
0.00531129
0.00530048
0.00528648
0.0052695
0.00524975
0.00522749
0.00520299
0.00517654
0.00514845
0.00511902
0.00508858
0.00505744
0.00502591
0.00499429
0.00496287
0.00493195
0.00490179
0.00487263
0.00484469
0.00481817
0.00479324
0.00477005
0.00474871
0.00472932
0.00471196
0.00469668
0.00468354
0.00467178
0.00471652
0.00241031
0.00230969
0.00283433
0.00340742
0.00389369
0.00428366
0.0045937
0.00484179
0.00504269
0.00520757
0.00534471
0.00546027
0.00555879
0.00564371
0.00571766
0.00578263
0.00584021
0.00589162
0.00593786
0.00597972
0.00601783
0.00605274
0.00608487
0.0061146
0.00614227
0.00616818
0.00619268
0.00621611
0.00623886
0.00626133
0.00628394
0.00630701
0.00633077
0.00635527
0.00638036
0.00640566
0.00643062
0.00645452
0.00647659
0.00649603
0.0065121
0.00652418
0.00653178
0.00653455
0.0065323
0.00652498
0.00651266
0.00649551
0.00647377
0.00644776
0.00641785
0.00638441
0.00634786
0.00630865
0.00626722
0.00622403
0.00617954
0.0061342
0.00608843
0.00604267
0.00599733
0.0059528
0.00590945
0.00586761
0.00582757
0.00578961
0.00575396
0.00572082
0.00569034
0.00566265
0.00563785
0.005616
0.00559719
0.00558044
0.00695534
0.00349985
0.00265963
0.00293574
0.00351092
0.00408367
0.00457876
0.00499055
0.00533047
0.0056121
0.00584735
0.00604576
0.00621481
0.00636025
0.00648655
0.00659718
0.00669488
0.0067818
0.00685966
0.00692986
0.00699352
0.00705157
0.00710476
0.00715375
0.00719907
0.00724122
0.00728066
0.00731786
0.00735333
0.00738761
0.00742126
0.00745481
0.00748872
0.00752328
0.00755854
0.00759425
0.00762991
0.00766473
0.00769774
0.00772789
0.00775411
0.00777545
0.00779108
0.00780037
0.00780292
0.00779852
0.00778714
0.00776892
0.00774414
0.00771318
0.00767652
0.00763465
0.00758814
0.00753759
0.00748359
0.00742676
0.00736774
0.00730713
0.00724552
0.00718348
0.00712159
0.00706039
0.00700038
0.00694203
0.00688577
0.00683199
0.00678103
0.0067332
0.00668873
0.00664784
0.00661068
0.00657738
0.006548
0.00652263
0.00650011
0.00946494
0.00509827
0.00338174
0.00315982
0.00358556
0.0041774
0.00475296
0.00526158
0.00569759
0.00606845
0.00638432
0.00665477
0.00688795
0.00709051
0.00726779
0.00742409
0.00756284
0.00768683
0.0077983
0.00789909
0.0079907
0.00807439
0.00815119
0.00822198
0.00828751
0.00834846
0.00840548
0.00845919
0.00851029
0.00855947
0.00860747
0.00865498
0.00870257
0.00875059
0.00879909
0.00884773
0.00889584
0.0089424
0.00898617
0.00902581
0.00905997
0.00908744
0.00910722
0.00911855
0.00912096
0.00911424
0.00909839
0.00907367
0.00904047
0.00899933
0.00895088
0.00889584
0.00883493
0.00876894
0.00869867
0.00862492
0.00854851
0.00847021
0.00839073
0.00831085
0.00823126
0.00815264
0.00807562
0.00800078
0.00792865
0.00785971
0.00779439
0.00773306
0.00767601
0.00762351
0.00757575
0.00753287
0.00749494
0.00746208
0.00743289
0.0120503
0.00712193
0.0046001
0.00367976
0.00374451
0.00423199
0.00482945
0.00541081
0.00593604
0.00639799
0.00680078
0.00715173
0.00745842
0.00772772
0.00796548
0.00817659
0.00836512
0.00853441
0.00868723
0.00882588
0.00895226
0.00906797
0.00917435
0.00927256
0.00936357
0.00944828
0.00952752
0.00960214
0.00967299
0.00974097
0.00980699
0.00987189
0.00993639
0.0100009
0.0100654
0.0101296
0.0101925
0.0102529
0.0103094
0.0103602
0.0104037
0.0104386
0.0104636
0.0104777
0.0104806
0.010472
0.0104519
0.0104207
0.0103789
0.0103273
0.0102667
0.0101979
0.0101219
0.0100398
0.0099524
0.00986086
0.00976613
0.00966911
0.00957074
0.00947194
0.00937356
0.0092764
0.00918123
0.00908875
0.00899959
0.00891432
0.00883347
0.00875748
0.0086867
0.00862146
0.00856197
0.00850841
0.00846087
0.00841945
0.00838254
0.0145382
0.00942111
0.00631631
0.00465971
0.00415424
0.00435399
0.00486444
0.00546284
0.00605162
0.00659513
0.00708406
0.00751953
0.00790638
0.0082504
0.00855721
0.00883188
0.00907883
0.00930184
0.0095041
0.00968833
0.00985682
0.0100115
0.0101541
0.0102859
0.0104083
0.0105224
0.0106291
0.0107296
0.0108249
0.0109161
0.0110043
0.0110905
0.0111756
0.01126
0.0113437
0.0114263
0.0115067
0.0115835
0.011655
0.0117191
0.011774
0.011818
0.0118497
0.0118682
0.0118728
0.0118634
0.01184
0.0118032
0.0117535
0.011692
0.0116195
0.0115373
0.0114465
0.0113482
0.0112437
0.0111342
0.0110209
0.0109049
0.0107872
0.010669
0.0105513
0.010435
0.0103209
0.0102101
0.010103
0.0100006
0.00990326
0.00981162
0.0097261
0.00964705
0.00957474
0.00950937
0.00945105
0.00939989
0.00935407
0.0167964
0.0118301
0.00841662
0.00616647
0.00499572
0.00470745
0.00496497
0.00547746
0.00607302
0.00666908
0.00723109
0.00774722
0.00821571
0.00863906
0.00902134
0.00936699
0.00968026
0.00996504
0.0102248
0.0104624
0.0106807
0.0108817
0.0110675
0.0112397
0.0114
0.0115495
0.0116896
0.0118215
0.0119466
0.012066
0.0121811
0.012293
0.0124028
0.0125109
0.0126174
0.0127218
0.0128229
0.0129191
0.0130083
0.0130883
0.0131571
0.0132127
0.0132535
0.0132785
0.0132869
0.0132787
0.0132539
0.0132131
0.0131572
0.0130872
0.0130044
0.0129099
0.0128053
0.0126918
0.0125711
0.0124443
0.012313
0.0121784
0.0120418
0.0119044
0.0117673
0.0116318
0.0114988
0.0113692
0.0112439
0.0111237
0.0110093
0.0109013
0.0108002
0.0107064
0.0106202
0.0105419
0.0104716
0.0104095
0.0103534
0.0187409
0.0141959
0.0107323
0.00812806
0.00637517
0.00548226
0.0052985
0.00556839
0.00606791
0.00665555
0.00725658
0.00783569
0.00837814
0.00887927
0.00933926
0.00976046
0.0101461
0.0104994
0.0108239
0.0111225
0.011398
0.0116528
0.0118891
0.0121089
0.0123137
0.0125053
0.0126851
0.0128546
0.0130151
0.0131683
0.0133155
0.0134581
0.0135972
0.0137334
0.0138669
0.0139969
0.0141223
0.0142414
0.0143517
0.014451
0.0145369
0.0146072
0.0146602
0.0146947
0.01471
0.0147059
0.0146826
0.0146407
0.0145811
0.0145052
0.0144143
0.0143099
0.0141935
0.0140669
0.0139317
0.0137893
0.0136414
0.0134895
0.0133351
0.0131794
0.0130239
0.0128698
0.0127182
0.0125702
0.0124267
0.0122887
0.0121569
0.0120321
0.0119148
0.0118055
0.0117046
0.0116124
0.011529
0.0114545
0.0113868
0.0203353
0.0163925
0.0130921
0.0103772
0.00825299
0.00680513
0.00606205
0.00591225
0.00616261
0.00663481
0.00720686
0.00780792
0.00840069
0.00896709
0.00949942
0.00999543
0.0104556
0.0108818
0.0112766
0.0116424
0.0119818
0.0122974
0.0125913
0.0128656
0.0131221
0.0133626
0.0135887
0.0138022
0.0140045
0.0141974
0.0143824
0.0145611
0.0147347
0.0149039
0.0150688
0.0152289
0.0153829
0.0155289
0.0156644
0.0157869
0.0158938
0.0159828
0.016052
0.0161001
0.0161262
0.0161301
0.0161121
0.0160729
0.0160136
0.0159354
0.0158399
0.0157289
0.015604
0.0154673
0.0153203
0.015165
0.015003
0.0148361
0.0146659
0.0144938
0.0143215
0.0141501
0.0139811
0.0138156
0.0136546
0.0134993
0.0133504
0.0132088
0.0130751
0.0129499
0.0128337
0.0127267
0.0126291
0.0125412
0.0124605
0.0215825
0.0183294
0.0153493
0.0127226
0.0104644
0.0086521
0.0073891
0.00671235
0.00654767
0.00675168
0.00718034
0.00772556
0.00831836
0.00891864
0.00950458
0.0100651
0.0105953
0.0110936
0.0115604
0.0119971
0.0124054
0.0127874
0.013145
0.0134803
0.0137952
0.0140913
0.0143705
0.0146345
0.014885
0.0151239
0.0153528
0.0155734
0.0157871
0.0159946
0.0161962
0.0163913
0.0165786
0.0167563
0.0169216
0.017072
0.0172047
0.0173172
0.0174074
0.0174739
0.0175158
0.0175327
0.0175251
0.0174935
0.0174392
0.0173635
0.0172682
0.017155
0.017026
0.0168832
0.0167286
0.016564
0.0163914
0.0162128
0.0160298
0.0158441
0.0156573
0.015471
0.0152866
0.0151052
0.0149282
0.0147567
0.0145916
0.0144338
0.0142841
0.014143
0.0140112
0.0138889
0.0137765
0.0136741
0.0135794
0.0225141
0.0199544
0.0173928
0.0149958
0.0127993
0.010854
0.00925304
0.00809649
0.00743
0.00721364
0.00734589
0.00771147
0.00821417
0.00878619
0.00938426
0.00998242
0.0105658
0.0111265
0.0116607
0.0121669
0.0126453
0.0130966
0.0135221
0.0139234
0.0143021
0.0146598
0.0149983
0.0153191
0.0156242
0.0159154
0.0161944
0.0164629
0.0167225
0.016974
0.0172178
0.0174533
0.0176793
0.0178938
0.0180943
0.018278
0.0184418
0.0185834
0.0187003
0.018791
0.0188546
0.0188906
0.0188993
0.0188814
0.018838
0.0187708
0.0186814
0.0185718
0.0184441
0.0183006
0.0181432
0.0179742
0.0177957
0.0176096
0.0174179
0.0172223
0.0170247
0.0168266
0.0166295
0.016435
0.0162442
0.0160584
0.0158786
0.0157059
0.0155411
0.0153848
0.0152377
0.0151003
0.0149727
0.0148555
0.0147459
0.0231786
0.0212515
0.0191504
0.0170697
0.0150687
0.0131822
0.011469
0.0100167
0.00891707
0.0082239
0.00792738
0.00796293
0.00824224
0.00868153
0.00921499
0.00979641
0.0103955
0.0109932
0.0115781
0.0121436
0.0126863
0.0132046
0.0136982
0.0141674
0.0146132
0.0150367
0.0154392
0.0158223
0.0161875
0.0165368
0.0168718
0.0171942
0.0175056
0.0178069
0.0180985
0.0183801
0.0186504
0.0189076
0.019149
0.0193717
0.0195729
0.0197497
0.0198998
0.0200214
0.0201134
0.0201753
0.0202073
0.0202101
0.0201848
0.0201329
0.0200563
0.019957
0.0198373
0.0196993
0.0195454
0.0193779
0.019199
0.0190109
0.0188155
0.0186149
0.0184108
0.018205
0.0179992
0.0177949
0.0175934
0.0173961
0.0172042
0.0170187
0.0168405
0.0166705
0.0165092
0.0163573
0.0162151
0.016083
0.0159584
0.0236309
0.0222362
0.0205882
0.0188628
0.0171328
0.0154307
0.0137891
0.0122607
0.0109209
0.00985089
0.00911003
0.00871324
0.00862895
0.00879609
0.00914584
0.0096168
0.0101611
0.0107443
0.0113431
0.011942
0.0125313
0.0131048
0.0136592
0.0141925
0.0147041
0.0151939
0.0156626
0.016111
0.0165404
0.0169522
0.0173481
0.0177296
0.0180982
0.0184548
0.0187998
0.0191331
0.0194535
0.0197591
0.0200474
0.0203155
0.0205604
0.0207792
0.0209694
0.0211292
0.0212571
0.0213526
0.0214157
0.0214471
0.0214477
0.0214192
0.0213632
0.021282
0.0211777
0.0210527
0.0209095
0.0207504
0.0205778
0.020394
0.020201
0.020001
0.0197959
0.0195875
0.0193777
0.0191679
0.0189598
0.0187548
0.018554
0.0183586
0.0181697
0.0179882
0.0178147
0.0176499
0.0174942
0.0173482
0.0172093
0.0239241
0.0229458
0.0217059
0.0203354
0.0189062
0.0174526
0.0159956
0.0145615
0.0131926
0.0119492
0.0109003
0.0101063
0.0095999
0.00937813
0.00940743
0.00963764
0.0100159
0.0104955
0.0110393
0.0116196
0.0122168
0.0128173
0.0134122
0.0139954
0.0145633
0.0151135
0.0156451
0.0161578
0.0166519
0.0171281
0.0175877
0.0180317
0.0184614
0.0188777
0.019281
0.019671
0.0200467
0.0204063
0.0207474
0.0210671
0.0213622
0.0216299
0.0218676
0.022073
0.0222447
0.022382
0.0224846
0.022553
0.0225883
0.0225917
0.0225651
0.0225104
0.02243
0.0223263
0.0222018
0.022059
0.0219003
0.021728
0.0215444
0.0213517
0.0211518
0.0209469
0.0207386
0.0205288
0.0203189
0.0201106
0.0199052
0.0197039
0.0195078
0.0193179
0.019135
0.0189598
0.0187929
0.0186348
0.0184833
0.0241048
0.0234303
0.0225301
0.0214842
0.0203512
0.0191647
0.0179427
0.0166986
0.0154511
0.0142309
0.0130828
0.0120624
0.0112256
0.0106148
0.010249
0.0101206
0.0102015
0.0104527
0.0108329
0.0113054
0.0118395
0.0124118
0.0130047
0.0136056
0.0142056
0.0147985
0.0153803
0.0159483
0.0165013
0.0170386
0.0175603
0.0180669
0.018559
0.0190372
0.0195016
0.0199518
0.0203869
0.0208051
0.0212039
0.0215807
0.0219321
0.0222553
0.0225474
0.022806
0.0230295
0.0232168
0.0233675
0.023482
0.0235609
0.0236055
0.0236174
0.0235985
0.0235511
0.0234777
0.0233807
0.0232627
0.0231261
0.0229734
0.0228069
0.0226289
0.0224414
0.0222466
0.0220464
0.0218425
0.0216368
0.0214307
0.0212257
0.0210232
0.0208243
0.0206302
0.0204416
0.0202595
0.0200844
0.0199172
0.0197557
0.0242104
0.023743
0.0231051
0.0223339
0.0214686
0.0205374
0.0195569
0.0185366
0.0174843
0.0164115
0.0153381
0.0142947
0.0133225
0.0124679
0.011775
0.0112758
0.0109838
0.0108936
0.0109844
0.0112267
0.0115885
0.0120397
0.0125545
0.0131118
0.0136953
0.0142928
0.0148952
0.015496
0.0160906
0.0166762
0.0172509
0.0178136
0.018364
0.0189016
0.0194262
0.019937
0.0204329
0.0209119
0.0213718
0.0218095
0.022222
0.022606
0.0229586
0.0232772
0.0235598
0.0238051
0.0240124
0.0241816
0.0243132
0.0244083
0.0244682
0.0244946
0.0244897
0.024456
0.0243958
0.0243117
0.0242062
0.0240818
0.0239408
0.0237855
0.0236183
0.0234411
0.023256
0.023065
0.0228698
0.0226722
0.0224735
0.0222754
0.022079
0.0218856
0.0216962
0.0215115
0.0213325
0.02116
0.0209923
0.0242687
0.0239331
0.0234832
0.022928
0.0222874
0.0215809
0.0208224
0.0200202
0.0191788
0.0183021
0.0173958
0.0164709
0.015546
0.0146483
0.0138124
0.0130761
0.012475
0.0120354
0.0117707
0.0116797
0.0117493
0.0119586
0.012283
0.0126979
0.013181
0.0137133
0.0142792
0.0148666
0.015466
0.0160704
0.0166748
0.0172756
0.0178702
0.0184567
0.0190337
0.0195996
0.0201526
0.0206905
0.0212107
0.0217102
0.0221855
0.0226334
0.0230506
0.0234341
0.0237818
0.0240917
0.0243628
0.0245947
0.0247876
0.024942
0.0250591
0.0251403
0.0251875
0.025203
0.0251892
0.0251485
0.0250834
0.0249963
0.0248897
0.0247659
0.0246273
0.0244759
0.0243139
0.0241433
0.0239659
0.0237836
0.0235981
0.0234107
0.023223
0.0230362
0.0228515
0.0226697
0.0224918
0.0223189
0.0221497
0.0242989
0.0240415
0.0237167
0.023319
0.0228541
0.0223318
0.0217619
0.0211513
0.0205038
0.0198214
0.019105
0.0183565
0.0175807
0.0167867
0.0159902
0.015213
0.0144829
0.0138304
0.013285
0.0128702
0.0126008
0.0124808
0.0125047
0.0126592
0.0129267
0.0132877
0.0137235
0.0142168
0.0147528
0.0153193
0.0159065
0.0165069
0.0171144
0.0177245
0.0183335
0.0189381
0.0195354
0.0201222
0.0206954
0.0212513
0.0217862
0.0222963
0.0227781
0.0232282
0.0236437
0.0240223
0.0243625
0.0246633
0.0249243
0.0251457
0.0253283
0.0254728
0.0255812
0.0256552
0.0256972
0.0257094
0.0256942
0.025654
0.0255911
0.025508
0.0254069
0.0252901
0.0251598
0.0250179
0.0248666
0.0247075
0.0245426
0.0243734
0.0242014
0.0240281
0.0238546
0.023682
0.0235114
0.0233439
0.0231791
0.0243137
0.0240994
0.0238516
0.0235602
0.0232227
0.0228417
0.0224217
0.0219673
0.021482
0.0209674
0.020424
0.0198512
0.0192489
0.0186176
0.0179607
0.017285
0.0166018
0.0159277
0.0152838
0.0146943
0.0141835
0.0137732
0.0134797
0.0133118
0.0132708
0.013351
0.0135417
0.013829
0.0141978
0.0146335
0.0151222
0.0156521
0.0162129
0.0167962
0.017395
0.0180031
0.0186155
0.0192271
0.0198333
0.0204296
0.0210114
0.021574
0.0221132
0.0226249
0.0231056
0.0235522
0.0239625
0.0243347
0.0246678
0.0249614
0.0252156
0.0254307
0.0256079
0.0257489
0.0258556
0.0259298
0.0259739
0.0259901
0.0259807
0.0259479
0.0258941
0.0258215
0.0257322
0.0256284
0.0255121
0.0253852
0.0252496
0.025107
0.0249589
0.0248069
0.0246524
0.0244965
0.0243403
0.0241853
0.0240316
0.0243203
0.0241281
0.0239241
0.023699
0.0234471
0.0231665
0.022858
0.0225234
0.0221648
0.0217837
0.0213807
0.0209556
0.0205075
0.0200352
0.0195375
0.0190143
0.0184671
0.0179
0.0173205
0.0167398
0.016173
0.0156382
0.0151549
0.0147427
0.0144182
0.0141938
0.0140766
0.0140678
0.0141637
0.0143566
0.0146364
0.0149914
0.0154101
0.0158813
0.0163947
0.0169411
0.0175121
0.0181002
0.0186984
0.0193002
0.0198995
0.0204902
0.0210669
0.0216242
0.0221576
0.0226629
0.0231368
0.0235765
0.0239802
0.0243464
0.0246746
0.0249642
0.0252158
0.0254303
0.0256091
0.0257538
0.0258662
0.0259484
0.0260023
0.0260301
0.026034
0.0260161
0.0259785
0.0259232
0.0258524
0.0257679
0.0256716
0.0255653
0.0254506
0.0253293
0.0252026
0.025072
0.0249387
0.0248043
0.0246694
0.0243232
0.0241413
0.0239602
0.0237729
0.0235739
0.0233596
0.0231282
0.0228796
0.0226142
0.0223328
0.0220359
0.0217237
0.0213958
0.0210513
0.020689
0.0203073
0.0199048
0.0194805
0.0190346
0.0185687
0.018087
0.0175959
0.0171052
0.0166273
0.0161768
0.0157695
0.015421
0.0151449
0.0149521
0.0148496
0.0148399
0.0149221
0.0150916
0.0153415
0.0156636
0.0160484
0.0164866
0.0169686
0.0174855
0.0180282
0.0185887
0.0191588
0.0197311
0.0202987
0.0208553
0.021395
0.0219131
0.0224054
0.0228685
0.0232999
0.0236976
0.0240602
0.0243871
0.0246783
0.0249343
0.0251562
0.0253451
0.0255024
0.0256298
0.025729
0.0258019
0.0258503
0.0258761
0.0258812
0.0258677
0.0258372
0.0257917
0.0257329
0.0256626
0.0255824
0.0254939
0.0253984
0.0252974
0.0251924
0.0250848
0.0243243
0.0241468
0.0239767
0.0238093
0.0236402
0.0234659
0.0232838
0.0230926
0.0228914
0.0226801
0.0224587
0.0222274
0.021986
0.0217344
0.0214717
0.0211972
0.0209094
0.020607
0.0202885
0.0199526
0.0195985
0.0192262
0.0188373
0.0184347
0.0180237
0.0176116
0.0172079
0.016824
0.0164722
0.0161651
0.0159145
0.0157304
0.0156203
0.0155886
0.015637
0.015764
0.0159658
0.0162368
0.0165697
0.0169563
0.0173881
0.0178559
0.0183508
0.0188642
0.0193878
0.0199139
0.0204357
0.020947
0.0214425
0.0219178
0.0223693
0.0227942
0.0231899
0.0235551
0.0238892
0.0241917
0.0244629
0.0247032
0.0249134
0.0250944
0.0252476
0.0253742
0.0254757
0.0255537
0.0256097
0.0256454
0.0256625
0.0256627
0.0256478
0.0256193
0.0255789
0.0255281
0.0254684
0.0254016
0.0253292
0.0243246
0.024149
0.0239836
0.0238256
0.0236718
0.0235195
0.0233663
0.0232101
0.0230498
0.0228845
0.0227135
0.0225367
0.0223538
0.0221647
0.0219692
0.0217669
0.0215573
0.0213397
0.021113
0.0208762
0.0206281
0.0203674
0.020093
0.0198044
0.0195013
0.0191846
0.0188565
0.0185202
0.018181
0.0178456
0.017522
0.0172197
0.0169486
0.0167186
0.0165387
0.0164169
0.0163589
0.0163684
0.0164468
0.0165929
0.0168037
0.0170742
0.0173981
0.0177678
0.0181755
0.0186128
0.0190716
0.0195441
0.0200229
0.0205016
0.0209742
0.0214357
0.0218813
0.0223074
0.0227112
0.0230904
0.0234433
0.0237687
0.0240658
0.0243345
0.0245748
0.024787
0.0249719
0.0251304
0.0252635
0.0253728
0.0254595
0.0255252
0.0255716
0.0256004
0.0256132
0.0256117
0.0255975
0.0255726
0.0255387
0.0243248
0.0241497
0.0239862
0.0238322
0.0236855
0.023544
0.0234057
0.0232688
0.0231318
0.0229936
0.0228531
0.0227097
0.0225629
0.0224126
0.0222584
0.0221002
0.0219379
0.0217713
0.0216001
0.021424
0.0212425
0.0210549
0.0208606
0.0206585
0.0204481
0.0202285
0.0199992
0.0197601
0.0195117
0.0192553
0.018993
0.0187282
0.0184654
0.0182102
0.0179695
0.0177506
0.0175614
0.0174096
0.0173026
0.0172465
0.0172461
0.0173043
0.0174223
0.0175992
0.0178322
0.0181172
0.0184484
0.0188193
0.0192228
0.0196512
0.0200972
0.0205534
0.0210128
0.0214689
0.0219162
0.0223495
0.0227646
0.023158
0.0235269
0.0238693
0.0241837
0.0244692
0.0247255
0.024953
0.025152
0.0253235
0.0254689
0.0255894
0.0256866
0.0257624
0.0258186
0.0258568
0.0258791
0.0258873
0.0258835
0.0243248
0.0241499
0.023987
0.0238344
0.0236903
0.0235531
0.0234211
0.0232926
0.0231662
0.0230406
0.0229147
0.0227876
0.0226587
0.0225274
0.0223935
0.0222568
0.0221174
0.0219751
0.0218302
0.0216826
0.0215323
0.0213794
0.0212236
0.0210647
0.0209024
0.0207364
0.0205661
0.0203912
0.0202114
0.0200266
0.0198369
0.0196433
0.0194471
0.0192504
0.0190562
0.0188685
0.018692
0.0185323
0.0183954
0.0182879
0.0182161
0.0181858
0.0182023
0.0182693
0.0183894
0.0185633
0.0187899
0.0190664
0.0193883
0.0197498
0.0201441
0.0205636
0.0210006
0.021447
0.0218954
0.0223389
0.0227712
0.0231873
0.0235826
0.0239537
0.024298
0.0246139
0.0249003
0.0251568
0.0253836
0.0255814
0.0257511
0.0258943
0.0260123
0.0261071
0.0261803
0.0262341
0.0262703
0.0262909
0.0262983
0.0243248
0.0241499
0.023987
0.0238344
0.0236903
0.0235531
0.0234211
0.0232926
0.0231662
0.0230406
0.0229147
0.0227876
0.0226587
0.0225274
0.0223935
0.0222568
0.0221174
0.0219751
0.0218302
0.0216826
0.0215323
0.0213794
0.0212236
0.0210647
0.0209025
0.0207364
0.0205662
0.0203913
0.0202115
0.0200266
0.019837
0.0196434
0.0194471
0.0192504
0.0190562
0.0188684
0.0186918
0.018532
0.018395
0.0182874
0.0182154
0.018185
0.0182014
0.0182685
0.0183887
0.0185627
0.0187895
0.0190663
0.0193885
0.0197505
0.0201452
0.0205652
0.0210026
0.0214494
0.0218982
0.022342
0.0227746
0.0231909
0.0235863
0.0239575
0.0243019
0.0246178
0.0249041
0.0251605
0.0253871
0.0255846
0.0257542
0.025897
0.0260147
0.026109
0.0261818
0.026235
0.0262707
0.0262907
0.0262975
0.0243248
0.0241497
0.0239862
0.0238322
0.0236855
0.023544
0.0234057
0.0232688
0.0231318
0.0229936
0.0228531
0.0227097
0.022563
0.0224127
0.0222585
0.0221003
0.021938
0.0217714
0.0216003
0.0214242
0.0212427
0.0210552
0.0208608
0.0206588
0.0204484
0.0202289
0.0199996
0.0197606
0.0195122
0.0192558
0.0189936
0.0187288
0.018466
0.0182108
0.01797
0.0177509
0.0175616
0.0174097
0.0173025
0.0172464
0.017246
0.0173045
0.0174229
0.0176005
0.0178344
0.0181205
0.018453
0.0188253
0.0192302
0.0196602
0.0201076
0.0205651
0.0210257
0.0214828
0.0219308
0.0223646
0.02278
0.0231735
0.0235423
0.0238843
0.0241981
0.0244829
0.0247383
0.0249647
0.0251625
0.0253327
0.0254765
0.0255954
0.0256909
0.0257648
0.0258189
0.0258551
0.0258751
0.025881
0.0258749
0.0243246
0.024149
0.0239836
0.0238256
0.0236719
0.0235196
0.0233663
0.0232102
0.0230499
0.0228846
0.0227136
0.0225368
0.022354
0.0221649
0.0219695
0.0217672
0.0215577
0.0213401
0.0211135
0.0208768
0.0206287
0.0203681
0.0200938
0.0198052
0.0195022
0.0191857
0.0188576
0.0185214
0.0181823
0.0178468
0.0175233
0.0172209
0.0169497
0.0167196
0.0165396
0.0164176
0.0163595
0.016369
0.0164476
0.0165942
0.0168058
0.0170774
0.0174027
0.0177742
0.0181839
0.0186235
0.0190847
0.0195597
0.020041
0.020522
0.0209967
0.02146
0.0219072
0.0223345
0.022739
0.0231186
0.0234714
0.0237963
0.0240927
0.0243602
0.0245989
0.0248093
0.024992
0.0251481
0.0252785
0.0253848
0.0254683
0.0255306
0.0255734
0.0255984
0.0256072
0.0256015
0.0255831
0.0255538
0.0255154
0.0243243
0.0241468
0.0239767
0.0238093
0.0236402
0.0234659
0.0232839
0.0230927
0.0228916
0.0226803
0.022459
0.0222278
0.0219865
0.0217349
0.0214724
0.0211979
0.0209102
0.020608
0.0202896
0.0199538
0.0195998
0.0192277
0.0188389
0.0184364
0.0180255
0.0176135
0.0172098
0.0168259
0.016474
0.0161668
0.015916
0.0157317
0.0156213
0.0155894
0.0156376
0.0157646
0.0159666
0.016238
0.0165717
0.0169595
0.0173928
0.0178626
0.0183599
0.0188759
0.0194025
0.0199317
0.0204566
0.020971
0.0214694
0.0219474
0.0224014
0.0228282
0.0232255
0.0235919
0.0239265
0.0242291
0.0244998
0.0247391
0.0249479
0.0251271
0.0252779
0.0254017
0.0255
0.0255744
0.0256264
0.0256579
0.0256704
0.0256658
0.0256457
0.0256118
0.0255657
0.0255092
0.0254436
0.0253707
0.0252922
0.0243232
0.0241413
0.0239602
0.023773
0.023574
0.0233598
0.0231285
0.02288
0.0226147
0.0223334
0.0220366
0.0217245
0.0213967
0.0210524
0.0206903
0.0203087
0.0199064
0.0194823
0.0190365
0.0185709
0.0180893
0.0175983
0.0171077
0.0166298
0.0161793
0.0157719
0.0154231
0.0151468
0.0149537
0.0148508
0.0148408
0.0149226
0.0150918
0.0153416
0.0156637
0.0160489
0.0164876
0.0169707
0.0174889
0.0180336
0.0185963
0.0191691
0.0197445
0.0203155
0.0208756
0.0214189
0.0219406
0.0224363
0.0229025
0.0233367
0.0237368
0.0241014
0.0244298
0.0247218
0.0249782
0.0251997
0.0253877
0.0255436
0.0256691
0.0257658
0.0258356
0.0258805
0.0259024
0.0259031
0.0258848
0.0258491
0.0257981
0.0257335
0.025657
0.0255704
0.0254753
0.025373
0.025265
0.0251531
0.0250384
0.0243204
0.0241281
0.0239242
0.0236991
0.0234473
0.0231669
0.0228585
0.0225241
0.0221657
0.0217847
0.0213819
0.0209571
0.0205092
0.020037
0.0195396
0.0190166
0.0184697
0.0179029
0.0173235
0.016743
0.0161762
0.0156413
0.0151579
0.0147454
0.0144206
0.0141958
0.0140781
0.0140688
0.0141642
0.0143567
0.0146361
0.0149909
0.0154095
0.0158808
0.0163946
0.0169417
0.0175137
0.0181034
0.0187036
0.0193079
0.0199101
0.0205042
0.0210844
0.0216456
0.0221829
0.0226921
0.0231698
0.0236131
0.0240199
0.024389
0.0247194
0.0250108
0.0252636
0.0254787
0.0256574
0.0258014
0.0259126
0.0259929
0.0260444
0.0260693
0.0260697
0.0260477
0.0260056
0.0259454
0.0258692
0.025779
0.0256766
0.025564
0.0254427
0.0253144
0.0251807
0.0250428
0.0249022
0.0247603
0.024618
0.0243137
0.0240994
0.0238518
0.0235606
0.0232232
0.0228424
0.0224226
0.0219685
0.0214835
0.0209692
0.020426
0.0198536
0.0192515
0.0186206
0.017964
0.0172885
0.0166055
0.0159315
0.0152876
0.0146979
0.0141868
0.0137762
0.0134821
0.0133137
0.0132721
0.0133517
0.0135418
0.0138287
0.0141971
0.0146325
0.015121
0.0156509
0.0162119
0.0167956
0.0173951
0.0180044
0.0186182
0.0192318
0.0198406
0.0204399
0.021025
0.0215914
0.0221346
0.0226505
0.0231354
0.0235861
0.0240002
0.0243759
0.0247121
0.0250084
0.0252647
0.0254813
0.0256595
0.0258007
0.025907
0.0259802
0.0260227
0.0260366
0.0260244
0.0259883
0.0259307
0.0258537
0.0257596
0.0256506
0.0255287
0.0253958
0.0252539
0.0251047
0.0249498
0.0247908
0.0246291
0.0244659
0.0243024
0.0241401
0.023979
0.024299
0.0240417
0.0237171
0.0233196
0.022855
0.0223331
0.0217635
0.0211532
0.0205061
0.0198241
0.0191081
0.01836
0.0175845
0.0167909
0.0159945
0.0152174
0.0144873
0.0138346
0.0132887
0.0128734
0.0126033
0.0124826
0.0125058
0.0126596
0.0129265
0.0132872
0.0137225
0.0142155
0.0147513
0.0153177
0.015905
0.0165056
0.0171135
0.0177243
0.0183343
0.0189403
0.0195395
0.0201288
0.0207048
0.0212641
0.0218027
0.022317
0.0228031
0.0232575
0.0236773
0.02406
0.0244041
0.0247083
0.0249722
0.0251961
0.0253805
0.0255263
0.0256352
0.0257092
0.0257505
0.0257614
0.0257442
0.0257015
0.0256356
0.0255489
0.0254438
0.0253225
0.0251872
0.02504
0.024883
0.0247179
0.0245467
0.024371
0.0241924
0.0240122
0.0238318
0.0236522
0.0234746
0.0233002
0.0231286
0.0242687
0.0239334
0.0234838
0.022929
0.0222889
0.0215829
0.0208248
0.0200231
0.0191822
0.018306
0.0174001
0.0164756
0.015551
0.0146534
0.0138173
0.0130808
0.0124791
0.0120388
0.0117733