/*--------------------------------*- C++ -*----------------------------------*\
  =========                 |
  \\      /  F ield         | OpenFOAM: The Open Source CFD Toolbox
   \\    /   O peration     | Website:  https://openfoam.org
    \\  /    A nd           | Version:  7
     \\/     M anipulation  |
\*---------------------------------------------------------------------------*/
FoamFile
{
    version     2.0;
    format      ascii;
    class       volScalarField;
    location    "450";
    object      p;
}
// * * * * * * * * * * * * * * * * * * * * * * * * * * * * * * * * * * * * * //

dimensions      [0 2 -2 0 0 0 0];

internalField   nonuniform List<scalar> 
4500
(
62.8631
59.8513
58.6915
57.5573
56.4292
55.3443
54.2933
53.2664
52.2601
51.2719
50.2992
49.3402
48.3935
47.4578
46.5322
45.6157
44.7076
43.8073
42.9142
42.0278
41.1476
40.2734
39.4047
38.5412
37.6826
36.8287
35.9792
35.134
34.2926
33.4548
32.62
31.7877
30.957
30.1268
29.2961
28.4639
27.6288
26.7904
25.9479
25.1013
24.2508
23.3973
22.5418
21.6856
20.8304
19.9779
19.1299
18.2881
17.4541
16.6295
15.8156
15.014
14.2252
13.4503
12.6895
11.9436
11.2126
10.4969
9.79637
9.11083
8.44008
7.78378
7.14146
6.51268
5.89657
5.29263
4.69997
4.11814
3.54604
2.98297
2.42798
1.88047
1.33929
0.804351
0.27558
62.4762
59.823
58.6903
57.5577
56.4296
55.3446
54.2935
53.2665
52.2603
51.272
50.2993
49.3403
48.3936
47.4579
46.5322
45.6157
44.7076
43.8073
42.9142
42.0278
41.1477
40.2734
39.4047
38.5412
37.6826
36.8287
35.9792
35.134
34.2926
33.4548
32.6201
31.7877
30.957
30.1268
29.2962
28.4639
27.6289
26.7904
25.9479
25.1013
24.2508
23.3973
22.5418
21.6856
20.8304
19.978
19.1299
18.2881
17.4541
16.6295
15.8156
15.014
14.2252
13.4503
12.6895
11.9436
11.2126
10.4969
9.79637
9.11083
8.44008
7.78378
7.14146
6.51267
5.89656
5.29262
4.69995
4.11813
3.54603
2.98295
2.42796
1.88045
1.33927
0.804331
0.275569
62.3887
59.8299
58.6924
57.5588
56.4303
55.3451
54.2939
53.2668
52.2605
51.2722
50.2995
49.3405
48.3937
47.458
46.5323
45.6158
44.7077
43.8074
42.9143
42.0279
41.1477
40.2735
39.4047
38.5412
37.6826
36.8287
35.9793
35.134
34.2926
33.4548
32.6201
31.7877
30.957
30.1268
29.2962
28.4639
27.6289
26.7904
25.9479
25.1013
24.2508
23.3973
22.5418
21.6857
20.8304
19.978
19.13
18.2882
17.4541
16.6296
15.8157
15.014
14.2253
13.4503
12.6895
11.9436
11.2126
10.4969
9.79637
9.11083
8.44007
7.78377
7.14144
6.51265
5.89654
5.2926
4.69993
4.1181
3.546
2.98292
2.42793
1.88042
1.33923
0.804296
0.275549
62.3884
59.8382
58.6942
57.5599
56.4311
55.3457
54.2943
53.2672
52.2608
51.2725
50.2997
49.3406
48.3939
47.4581
46.5325
45.6159
44.7078
43.8075
42.9143
42.0279
41.1478
40.2735
39.4048
38.5413
37.6827
36.8288
35.9793
35.134
34.2926
33.4548
32.6201
31.7877
30.957
30.1268
29.2962
28.4639
27.6289
26.7904
25.9479
25.1013
24.2509
23.3974
22.5418
21.6857
20.8305
19.978
19.13
18.2882
17.4541
16.6296
15.8157
15.014
14.2253
13.4503
12.6895
11.9436
11.2126
10.4969
9.79636
9.11081
8.44005
7.78374
7.14142
6.51262
5.89651
5.29257
4.69989
4.11807
3.54596
2.98288
2.42789
1.88038
1.33919
0.804256
0.275524
62.3846
59.8413
58.6955
57.561
56.432
55.3464
54.2948
53.2676
52.2612
51.2728
50.2999
49.3409
48.3941
47.4583
46.5326
45.616
44.7079
43.8076
42.9144
42.028
41.1479
40.2736
39.4048
38.5413
37.6827
36.8288
35.9793
35.134
34.2927
33.4549
32.6201
31.7878
30.957
30.1269
29.2962
28.4639
27.6289
26.7904
25.948
25.1014
24.2509
23.3974
22.5419
21.6857
20.8305
19.978
19.13
18.2882
17.4542
16.6296
15.8157
15.014
14.2253
13.4503
12.6895
11.9436
11.2125
10.4969
9.79634
9.11079
8.44002
7.78371
7.14138
6.51258
5.89646
5.29252
4.69985
4.11802
3.54591
2.98283
2.42784
1.88033
1.33914
0.804208
0.275493
62.3743
59.8436
58.6965
57.5621
56.4329
55.3471
54.2954
53.2681
52.2616
51.2731
50.3002
49.3411
48.3943
47.4585
46.5328
45.6162
44.7081
43.8077
42.9145
42.0281
41.1479
40.2737
39.4049
38.5414
37.6828
36.8289
35.9794
35.1341
34.2927
33.4549
32.6201
31.7878
30.957
30.1269
29.2962
28.4639
27.6289
26.7905
25.948
25.1014
24.2509
23.3974
22.5419
21.6857
20.8305
19.9781
19.13
18.2882
17.4542
16.6296
15.8157
15.014
14.2253
13.4503
12.6895
11.9436
11.2125
10.4969
9.7963
9.11075
8.43998
7.78366
7.14133
6.51253
5.89641
5.29246
4.69979
4.11796
3.54585
2.98277
2.42778
1.88027
1.33909
0.804154
0.275453
62.3647
59.8465
58.6973
57.563
56.4338
55.3479
54.2961
53.2687
52.2621
51.2735
50.3006
49.3414
48.3945
47.4587
46.533
45.6164
44.7082
43.8078
42.9147
42.0282
41.148
40.2738
39.405
38.5415
37.6828
36.8289
35.9794
35.1341
34.2928
33.4549
32.6202
31.7878
30.9571
30.1269
29.2962
28.464
27.629
26.7905
25.948
25.1014
24.251
23.3975
22.5419
21.6858
20.8305
19.9781
19.1301
18.2882
17.4542
16.6296
15.8157
15.014
14.2253
13.4503
12.6895
11.9436
11.2125
10.4968
9.79625
9.11069
8.43992
7.7836
7.14127
6.51246
5.89634
5.29239
4.69972
4.11789
3.54578
2.98271
2.42771
1.88021
1.33903
0.804094
0.275404
62.356
59.8497
58.6981
57.5638
56.4346
55.3487
54.2968
53.2693
52.2626
51.2739
50.3009
49.3417
48.3948
47.459
46.5332
45.6166
44.7084
43.808
42.9148
42.0284
41.1482
40.2739
39.4051
38.5416
37.6829
36.829
35.9795
35.1342
34.2928
33.455
32.6202
31.7879
30.9571
30.127
29.2963
28.464
27.629
26.7906
25.9481
25.1015
24.251
23.3975
22.542
21.6858
20.8306
19.9781
19.1301
18.2882
17.4542
16.6296
15.8157
15.014
14.2252
13.4502
12.6894
11.9435
11.2124
10.4968
9.79619
9.11062
8.43985
7.78353
7.14119
6.51239
5.89626
5.29231
4.69964
4.11781
3.5457
2.98263
2.42764
1.88014
1.33896
0.804029
0.275344
62.3471
59.853
58.6987
57.5645
56.4353
55.3494
54.2975
53.2699
52.2631
51.2744
50.3014
49.3421
48.3952
47.4593
46.5335
45.6168
44.7086
43.8082
42.915
42.0285
41.1483
40.274
39.4052
38.5417
37.683
36.8291
35.9796
35.1343
34.2929
33.455
32.6203
31.7879
30.9572
30.127
29.2963
28.464
27.6291
26.7906
25.9481
25.1015
24.251
23.3976
22.542
21.6858
20.8306
19.9781
19.1301
18.2882
17.4542
16.6296
15.8157
15.014
14.2252
13.4502
12.6894
11.9434
11.2124
10.4967
9.79611
9.11054
8.43976
7.78344
7.1411
6.51229
5.89617
5.29222
4.69955
4.11772
3.54562
2.98255
2.42756
1.88006
1.33888
0.803959
0.275271
62.3375
59.8563
58.6992
57.565
56.4359
55.3501
54.2981
53.2705
52.2637
51.2749
50.3018
49.3425
48.3955
47.4596
46.5338
45.6171
44.7089
43.8084
42.9152
42.0287
41.1485
40.2742
39.4054
38.5418
37.6831
36.8292
35.9797
35.1344
34.293
33.4551
32.6203
31.788
30.9572
30.1271
29.2964
28.4641
27.6291
26.7907
25.9482
25.1016
24.2511
23.3976
22.542
21.6859
20.8306
19.9781
19.1301
18.2882
17.4542
16.6296
15.8156
15.0139
14.2251
13.4501
12.6893
11.9434
11.2123
10.4966
9.79602
9.11045
8.43966
7.78334
7.14099
6.51219
5.89607
5.29212
4.69945
4.11762
3.54552
2.98245
2.42747
1.87998
1.3388
0.803884
0.275183
62.3273
59.8598
58.6996
57.5655
56.4364
55.3506
54.2987
53.2711
52.2643
51.2755
50.3023
49.343
48.3959
47.46
46.5341
45.6174
44.7091
43.8087
42.9154
42.0289
41.1487
40.2743
39.4055
38.5419
37.6833
36.8293
35.9798
35.1345
34.2931
33.4552
32.6204
31.7881
30.9573
30.1272
29.2965
28.4642
27.6292
26.7907
25.9482
25.1016
24.2512
23.3977
22.5421
21.6859
20.8307
19.9782
19.1301
18.2882
17.4542
16.6295
15.8156
15.0139
14.2251
13.4501
12.6892
11.9433
11.2122
10.4965
9.79591
9.11034
8.43955
7.78322
7.14088
6.51208
5.89595
5.29201
4.69934
4.11752
3.54542
2.98236
2.42737
1.87989
1.33872
0.803805
0.275075
62.3163
59.8636
58.6998
57.5658
56.4368
55.3511
54.2993
53.2717
52.2648
51.276
50.3028
49.3435
48.3964
47.4604
46.5345
45.6177
44.7095
43.809
42.9157
42.0292
41.1489
40.2745
39.4057
38.5421
37.6834
36.8295
35.9799
35.1346
34.2932
33.4553
32.6205
31.7882
30.9574
30.1272
29.2966
28.4643
27.6293
26.7908
25.9483
25.1017
24.2512
23.3977
22.5421
21.6859
20.8307
19.9782
19.1301
18.2882
17.4541
16.6295
15.8155
15.0138
14.225
13.45
12.6891
11.9432
11.2121
10.4964
9.79579
9.11022
8.43943
7.7831
7.14076
6.51195
5.89583
5.29189
4.69922
4.1174
3.54531
2.98225
2.42728
1.87979
1.33863
0.803722
0.274944
62.3046
59.8678
58.7
57.5661
56.4371
55.3514
54.2997
53.2721
52.2653
51.2765
50.3033
49.3439
48.3968
47.4608
46.5349
45.6181
44.7098
43.8093
42.916
42.0294
41.1491
40.2748
39.4059
38.5423
37.6836
36.8296
35.9801
35.1347
34.2933
33.4555
32.6207
31.7883
30.9575
30.1273
29.2967
28.4644
27.6294
26.7909
25.9484
25.1018
24.2513
23.3978
22.5422
21.686
20.8307
19.9782
19.1301
18.2882
17.4541
16.6294
15.8155
15.0137
14.2249
13.4499
12.689
11.9431
11.212
10.4963
9.79567
9.11009
8.4393
7.78297
7.14063
6.51182
5.8957
5.29176
4.6991
4.11729
3.5452
2.98214
2.42717
1.8797
1.33854
0.803634
0.274786
62.2922
59.8724
58.7001
57.5662
56.4373
55.3516
54.2999
53.2725
52.2658
51.277
50.3038
49.3444
48.3973
47.4613
46.5353
45.6185
44.7102
43.8096
42.9163
42.0297
41.1494
40.275
39.4062
38.5425
37.6838
36.8298
35.9803
35.1349
34.2935
33.4556
32.6208
31.7884
30.9576
30.1275
29.2968
28.4645
27.6295
26.791
25.9485
25.1019
24.2514
23.3978
22.5422
21.686
20.8307
19.9782
19.1301
18.2882
17.4541
16.6294
15.8154
15.0137
14.2248
13.4498
12.6889
11.943
11.2118
10.4961
9.79554
9.10996
8.43916
7.78283
7.14049
6.51169
5.89557
5.29163
4.69897
4.11716
3.54508
2.98203
2.42707
1.8796
1.33845
0.803542
0.274596
62.2791
59.8773
58.7003
57.5664
56.4374
55.3517
54.3001
53.2727
52.2661
51.2774
50.3043
49.3449
48.3978
47.4617
46.5357
45.6189
44.7106
43.81
42.9167
42.0301
41.1497
40.2753
39.4065
38.5428
37.6841
36.8301
35.9805
35.1351
34.2937
33.4558
32.621
31.7886
30.9578
30.1276
29.2969
28.4646
27.6296
26.7911
25.9486
25.102
24.2514
23.3979
22.5423
21.6861
20.8307
19.9782
19.1301
18.2881
17.454
16.6293
15.8153
15.0136
14.2247
13.4497
12.6888
11.9428
11.2117
10.496
9.79541
9.10982
8.43903
7.7827
7.14035
6.51155
5.89543
5.2915
4.69884
4.11704
3.54496
2.98192
2.42696
1.87949
1.33835
0.803446
0.274368
62.2651
59.8827
58.7004
57.5666
56.4375
55.3518
54.3002
53.2729
52.2663
51.2777
50.3046
49.3452
48.3982
47.4621
46.5361
45.6193
44.711
43.8104
42.917
42.0304
41.1501
40.2756
39.4068
38.5431
37.6844
36.8303
35.9807
35.1353
34.2939
33.456
32.6212
31.7888
30.958
30.1278
29.2971
28.4648
27.6297
26.7913
25.9487
25.1021
24.2515
23.398
22.5423
21.6861
20.8308
19.9782
19.1301
18.2881
17.454
16.6293
15.8153
15.0135
14.2247
13.4496
12.6887
11.9427
11.2116
10.4959
9.79528
9.10969
8.43889
7.78256
7.14021
6.51141
5.8953
5.29137
4.69871
4.11691
3.54484
2.9818
2.42684
1.87939
1.33825
0.803347
0.274095
62.2504
59.8886
58.7006
57.5669
56.4376
55.3518
54.3002
53.2729
52.2664
51.2778
50.3048
49.3455
48.3985
47.4625
46.5365
45.6197
44.7114
43.8108
42.9174
42.0308
41.1504
40.276
39.4071
38.5434
37.6846
36.8306
35.981
35.1356
34.2941
33.4562
32.6214
31.789
30.9582
30.128
29.2973
28.4649
27.6299
26.7914
25.9488
25.1022
24.2516
23.3981
22.5424
21.6862
20.8308
19.9782
19.1301
18.2881
17.454
16.6293
15.8152
15.0134
14.2246
13.4495
12.6886
11.9426
11.2115
10.4958
9.79515
9.10956
8.43876
7.78243
7.14008
6.51128
5.89517
5.29124
4.69859
4.11679
3.54472
2.98168
2.42673
1.87928
1.33814
0.803245
0.273771
62.2349
59.8949
58.7007
57.5672
56.4377
55.3518
54.3002
53.2729
52.2664
51.2779
50.3049
49.3457
48.3987
47.4628
46.5369
45.6201
44.7117
43.8112
42.9178
42.0312
41.1508
40.2763
39.4074
38.5437
37.685
36.8309
35.9813
35.1359
34.2944
33.4565
32.6216
31.7892
30.9584
30.1282
29.2975
28.4651
27.6301
26.7916
25.949
25.1023
24.2518
23.3982
22.5425
21.6862
20.8309
19.9783
19.1301
18.2881
17.454
16.6292
15.8152
15.0134
14.2245
13.4494
12.6885
11.9425
11.2114
10.4957
9.79504
9.10945
8.43864
7.78231
7.13996
6.51116
5.89504
5.29112
4.69847
4.11667
3.5446
2.98157
2.42663
1.87918
1.33804
0.803141
0.27339
62.2185
59.9017
58.7009
57.5675
56.4379
55.3519
54.3002
53.2729
52.2664
51.2778
50.3049
49.3458
48.3988
47.463
46.5371
45.6204
44.712
43.8115
42.9181
42.0315
41.1512
40.2767
39.4078
38.5441
37.6853
36.8312
35.9816
35.1362
34.2947
33.4568
32.6219
31.7895
30.9586
30.1284
29.2977
28.4653
27.6303
26.7917
25.9492
25.1025
24.2519
23.3983
22.5426
21.6863
20.8309
19.9783
19.1301
18.2882
17.454
16.6292
15.8152
15.0134
14.2245
13.4494
12.6885
11.9425
11.2113
10.4956
9.79495
9.10935
8.43854
7.7822
7.13985
6.51105
5.89493
5.29101
4.69835
4.11656
3.54449
2.98147
2.42652
1.87908
1.33794
0.803038
0.272942
62.2015
59.9089
58.701
57.568
56.4381
55.352
54.3003
53.2729
52.2663
51.2778
50.3049
49.3457
48.3989
47.463
46.5372
45.6205
44.7123
43.8118
42.9184
42.0318
41.1515
40.2771
39.4081
38.5444
37.6857
36.8316
35.982
35.1365
34.295
33.4571
32.6222
31.7898
30.9589
30.1287
29.2979
28.4656
27.6305
26.7919
25.9494
25.1027
24.2521
23.3984
22.5427
21.6864
20.831
19.9784
19.1302
18.2882
17.454
16.6293
15.8152
15.0134
14.2245
13.4493
12.6884
11.9424
11.2113
10.4955
9.79488
9.10927
8.43845
7.78211
7.13976
6.51095
5.89483
5.29091
4.69826
4.11646
3.5444
2.98137
2.42643
1.87899
1.33785
0.802937
0.272425
62.1838
59.9164
58.7011
57.5685
56.4384
55.3522
54.3003
53.2729
52.2663
51.2778
50.3048
49.3457
48.3988
47.463
46.5372
45.6206
44.7124
43.8119
42.9186
42.0321
41.1518
40.2774
39.4084
38.5448
37.686
36.8319
35.9823
35.1369
34.2953
33.4574
32.6225
31.7901
30.9592
30.129
29.2982
28.4658
27.6307
26.7922
25.9496
25.1029
24.2522
23.3986
22.5429
21.6866
20.8312
19.9785
19.1303
18.2883
17.4541
16.6293
15.8152
15.0134
14.2245
13.4493
12.6884
11.9424
11.2112
10.4955
9.79483
9.10922
8.43839
7.78205
7.13969
6.51088
5.89476
5.29083
4.69818
4.11638
3.54431
2.98129
2.42635
1.8789
1.33777
0.802841
0.271829
62.1656
59.9243
58.7012
57.5691
56.4388
55.3523
54.3005
53.273
52.2663
51.2777
50.3048
49.3456
48.3987
47.4629
46.5371
45.6205
44.7124
43.8119
42.9187
42.0322
41.1519
40.2776
39.4087
38.545
37.6863
36.8322
35.9826
35.1372
34.2957
33.4577
32.6228
31.7904
30.9595
30.1293
29.2985
28.4661
27.631
26.7924
25.9498
25.1031
24.2525
23.3988
22.5431
21.6868
20.8313
19.9787
19.1305
18.2884
17.4542
16.6294
15.8153
15.0135
14.2245
13.4494
12.6885
11.9424
11.2112
10.4955
9.79482
9.1092
8.43837
7.78202
7.13965
6.51084
5.89471
5.29078
4.69812
4.11632
3.54425
2.98122
2.42628
1.87883
1.33769
0.802752
0.271154
62.1471
59.9325
58.7012
57.5697
56.4391
55.3526
54.3006
53.2731
52.2664
51.2777
50.3048
49.3456
48.3987
47.4628
46.5371
45.6205
44.7123
43.8119
42.9187
42.0322
41.152
40.2777
39.4088
38.5452
37.6865
36.8325
35.9829
35.1375
34.296
33.458
32.6231
31.7907
30.9598
30.1296
29.2988
28.4664
27.6313
26.7927
25.9501
25.1033
24.2527
23.3991
22.5433
21.687
20.8316
19.9789
19.1306
18.2886
17.4543
16.6296
15.8154
15.0136
14.2246
13.4495
12.6885
11.9425
11.2113
10.4955
9.79484
9.10922
8.43837
7.78202
7.13964
6.51082
5.89468
5.29075
4.69808
4.11628
3.5442
2.98117
2.42623
1.87878
1.33763
0.802672
0.270396
62.1285
59.9407
58.7011
57.5703
56.4396
55.3528
54.3008
53.2732
52.2665
51.2778
50.3048
49.3456
48.3986
47.4628
46.537
45.6204
44.7122
43.8118
42.9186
42.0322
41.1519
40.2776
39.4088
38.5453
37.6866
36.8326
35.983
35.1377
34.2962
33.4583
32.6234
31.791
30.9601
30.1298
29.2991
28.4667
27.6315
26.793
25.9503
25.1036
24.253
23.3993
22.5436
21.6872
20.8318
19.9791
19.1309
18.2888
17.4545
16.6297
15.8156
15.0137
14.2248
13.4496
12.6887
11.9426
11.2114
10.4956
9.79491
9.10927
8.43841
7.78205
7.13965
6.51083
5.89469
5.29074
4.69807
4.11626
3.54418
2.98115
2.42619
1.87874
1.33758
0.802603
0.269564
62.1103
59.9489
58.7009
57.5709
56.44
55.3531
54.301
53.2734
52.2666
51.2779
50.3048
49.3456
48.3986
47.4628
46.5369
45.6203
44.7121
43.8117
42.9185
42.0321
41.1519
40.2776
39.4088
38.5452
37.6866
36.8326
35.9831
35.1378
34.2963
33.4584
32.6236
31.7912
30.9603
30.1301
29.2993
28.4669
27.6318
26.7932
25.9506
25.1039
24.2532
23.3996
22.5438
21.6875
20.8321
19.9794
19.1311
18.2891
17.4548
16.63
15.8158
15.0139
14.225
13.4498
12.6888
11.9427
11.2115
10.4957
9.79501
9.10936
8.43848
7.78211
7.13971
6.51087
5.89472
5.29076
4.69808
4.11627
3.54418
2.98114
2.42618
1.87872
1.33755
0.802546
0.268669
62.0928
59.9568
58.7006
57.5716
56.4405
55.3534
54.3013
53.2736
52.2667
51.278
50.3049
49.3456
48.3987
47.4628
46.5369
45.6203
44.7121
43.8116
42.9184
42.032
41.1518
40.2775
39.4087
38.5451
37.6865
36.8326
35.9831
35.1377
34.2963
33.4585
32.6237
31.7913
30.9604
30.1302
29.2995
28.4671
27.632
26.7935
25.9508
25.1041
24.2535
23.3998
22.5441
21.6878
20.8323
19.9797
19.1314
18.2893
17.4551
16.6302
15.8161
15.0142
14.2252
13.45
12.689
11.9429
11.2117
10.4958
9.79514
9.10948
8.43859
7.78221
7.13979
6.51094
5.89477
5.29081
4.69812
4.1163
3.5442
2.98115
2.42618
1.87872
1.33754
0.802502
0.267738
62.0768
59.9642
58.7003
57.5721
56.4409
55.3537
54.3015
53.2738
52.2669
51.2781
50.305
49.3457
48.3987
47.4628
46.537
45.6203
44.7121
43.8116
42.9184
42.0319
41.1517
40.2774
39.4086
38.545
37.6864
36.8325
35.983
35.1377
34.2963
33.4584
32.6236
31.7913
30.9605
30.1303
29.2995
28.4672
27.6321
26.7936
25.951
25.1043
24.2537
23.4001
22.5444
21.688
20.8326
19.9799
19.1317
18.2896
17.4553
16.6305
15.8164
15.0144
14.2254
13.4502
12.6892
11.9431
11.2119
10.496
9.79531
9.10963
8.43873
7.78233
7.1399
6.51104
5.89486
5.29089
4.69818
4.11635
3.54424
2.98118
2.4262
1.87873
1.33754
0.802474
0.266814
62.0629
59.9707
58.7
57.5726
56.4413
55.3539
54.3017
53.2739
52.267
51.2782
50.3051
49.3458
48.3988
47.4629
46.537
45.6203
44.7121
43.8116
42.9184
42.0319
41.1516
40.2773
39.4085
38.545
37.6863
36.8324
35.9829
35.1375
34.2962
33.4583
32.6235
31.7912
30.9604
30.1302
29.2995
28.4671
27.6321
26.7936
25.951
25.1044
24.2538
23.4002
22.5445
21.6882
20.8328
19.9802
19.1319
18.2899
17.4556
16.6308
15.8166
15.0147
14.2257
13.4505
12.6895
11.9433
11.2121
10.4962
9.79549
9.10981
8.43889
7.78248
7.14003
6.51116
5.89496
5.29098
4.69826
4.11642
3.5443
2.98123
2.42624
1.87877
1.33756
0.802465
0.265968
62.0523
59.9757
58.6996
57.573
56.4416
55.3541
54.3018
53.274
52.2671
51.2783
50.3052
49.3459
48.3988
47.4629
46.537
45.6203
44.7121
43.8116
42.9184
42.0319
41.1516
40.2773
39.4085
38.5449
37.6863
36.8323
35.9828
35.1375
34.2961
33.4582
32.6234
31.7911
30.9603
30.1301
29.2994
28.467
27.632
26.7935
25.951
25.1043
24.2538
23.4002
22.5446
21.6883
20.8329
19.9803
19.1321
18.2901
17.4558
16.631
15.8168
15.0149
14.2259
13.4507
12.6897
11.9436
11.2123
10.4964
9.79567
9.10998
8.43904
7.78263
7.14016
6.51128
5.89507
5.29108
4.69835
4.1165
3.54437
2.9813
2.4263
1.87881
1.3376
0.802474
0.265299
62.0462
59.9786
58.6994
57.5732
56.4418
55.3542
54.3019
53.2741
52.2672
51.2784
50.3052
49.3459
48.3989
47.4629
46.5371
45.6204
44.7121
43.8116
42.9184
42.0319
41.1516
40.2773
39.4085
38.5449
37.6862
36.8323
35.9828
35.1374
34.296
33.4582
32.6234
31.791
30.9602
30.13
29.2993
28.467
27.6319
26.7934
25.9509
25.1043
24.2537
23.4002
22.5446
21.6883
20.8329
19.9803
19.1321
18.2901
17.4559
16.6311
15.817
15.015
14.226
13.4508
12.6898
11.9437
11.2124
10.4965
9.79579
9.11009
8.43914
7.78273
7.14025
6.51137
5.89515
5.29116
4.69841
4.11656
3.54442
2.98135
2.42634
1.87885
1.33763
0.80249
0.264927
62.0462
59.9786
58.6994
57.5732
56.4418
55.3542
54.3019
53.2741
52.2672
51.2784
50.3052
49.3459
48.3989
47.4629
46.5371
45.6204
44.7121
43.8116
42.9184
42.0319
41.1516
40.2773
39.4085
38.5449
37.6862
36.8323
35.9828
35.1374
34.296
33.4582
32.6234
31.791
30.9602
30.13
29.2993
28.467
27.6319
26.7934
25.9509
25.1043
24.2537
23.4002
22.5446
21.6883
20.8329
19.9803
19.1321
18.2901
17.4559
16.6311
15.8169
15.015
14.226
13.4508
12.6898
11.9437
11.2124
10.4965
9.79578
9.11009
8.43914
7.78273
7.14024
6.51137
5.89514
5.29115
4.69841
4.11656
3.54442
2.98135
2.42634
1.87885
1.33763
0.802491
0.264981
62.0523
59.9757
58.6996
57.573
56.4416
55.3541
54.3018
53.274
52.2671
51.2783
50.3052
49.3459
48.3988
47.4629
46.537
45.6203
44.7121
43.8116
42.9184
42.0319
41.1516
40.2773
39.4085
38.5449
37.6863
36.8323
35.9828
35.1375
34.2961
33.4582
32.6234
31.7911
30.9603
30.1301
29.2994
28.4671
27.632
26.7935
25.951
25.1043
24.2538
23.4002
22.5446
21.6883
20.8329
19.9803
19.1321
18.2901
17.4558
16.631
15.8168
15.0149
14.2259
13.4507
12.6897
11.9435
11.2123
10.4964
9.79565
9.10997
8.43902
7.78262
7.14014
6.51128
5.89505
5.29108
4.69833
4.1165
3.54435
2.9813
2.42629
1.87882
1.3376
0.802477
0.265451
62.0629
59.9707
58.7
57.5726
56.4413
55.3539
54.3017
53.2739
52.267
51.2782
50.3051
49.3458
48.3988
47.4629
46.537
45.6203
44.7121
43.8116
42.9184
42.0319
41.1516
40.2773
39.4085
38.545
37.6863
36.8324
35.9829
35.1376
34.2962
33.4583
32.6235
31.7912
30.9604
30.1302
29.2995
28.4672
27.6321
26.7936
25.9511
25.1044
24.2538
23.4002
22.5445
21.6882
20.8328
19.9802
19.1319
18.2899
17.4556
16.6308
15.8166
15.0147
14.2257
13.4505
12.6894
11.9433
11.212
10.4962
9.79546
9.10979
8.43885
7.78247
7.13999
6.51115
5.89493
5.29097
4.69823
4.11642
3.54428
2.98123
2.42623
1.87877
1.33756
0.80247
0.266206
62.0767
59.9642
58.7003
57.5721
56.4409
55.3537
54.3015
53.2738
52.2669
51.2781
50.305
49.3457
48.3987
47.4628
46.537
45.6203
44.7121
43.8116
42.9184
42.0319
41.1517
40.2774
39.4086
38.545
37.6864
36.8325
35.983
35.1377
34.2963
33.4584
32.6236
31.7913
30.9605
30.1303
29.2996
28.4672
27.6321
26.7936
25.951
25.1043
24.2537
23.4001
22.5444
21.6881
20.8326
19.9799
19.1317
18.2896
17.4553
16.6305
15.8163
15.0144
14.2254
13.4502
12.6892
11.9431
11.2118
10.496
9.79526
9.10961
8.43868
7.78232
7.13985
6.51103
5.89482
5.29088
4.69814
4.11635
3.54421
2.98118
2.42619
1.87874
1.33754
0.802483
0.267123
62.0928
59.9568
58.7006
57.5716
56.4405
55.3534
54.3013
53.2736
52.2667
51.278
50.3049
49.3456
48.3987
47.4628
46.5369
45.6203
44.7121
43.8116
42.9184
42.032
41.1518
40.2775
39.4087
38.5451
37.6865
36.8326
35.9831
35.1377
34.2963
33.4585
32.6237
31.7913
30.9605
30.1303
29.2995
28.4671
27.632
26.7935
25.9509
25.1042
24.2535
23.3999
22.5441
21.6878
20.8323
19.9796
19.1314
18.2893
17.455
16.6302
15.816
15.0141
14.2251
13.45
12.689
11.9429
11.2116
10.4958
9.79509
9.10946
8.43853
7.78219
7.13974
6.51093
5.89473
5.29081
4.69808
4.1163
3.54417
2.98115
2.42616
1.87873
1.33754
0.802515
0.268105
62.1102
59.9489
58.7009
57.5709
56.44
55.3531
54.301
53.2734
52.2666
51.2779
50.3048
49.3456
48.3986
47.4628
46.5369
45.6203
44.7121
43.8117
42.9185
42.0321
41.1519
40.2776
39.4088
38.5452
37.6866
36.8326
35.9831
35.1378
34.2963
33.4584
32.6236
31.7912
30.9603
30.1301
29.2994
28.467
27.6318
26.7933
25.9507
25.1039
24.2533
23.3996
22.5439
21.6875
20.832
19.9794
19.1311
18.289
17.4547
16.6299
15.8158
15.0139
14.2249
13.4497
12.6888
11.9427
11.2114
10.4957
9.79494
9.10933
8.43842
7.7821
7.13965
6.51086
5.89467
5.29076
4.69804
4.11627
3.54415
2.98114
2.42616
1.87873
1.33756
0.802563
0.269083
62.1285
59.9407
58.7011
57.5703
56.4396
55.3528
54.3008
53.2732
52.2665
51.2778
50.3048
49.3456
48.3986
47.4628
46.537
45.6204
44.7122
43.8118
42.9186
42.0322
41.1519
40.2776
39.4088
38.5453
37.6866
36.8326
35.983
35.1377
34.2962
33.4583
32.6234
31.791
30.9601
30.1299
29.2991
28.4667
27.6316
26.793
25.9504
25.1036
24.253
23.3993
22.5436
21.6872
20.8318
19.9791
19.1308
18.2888
17.4545
16.6297
15.8156
15.0137
14.2247
13.4496
12.6886
11.9425
11.2113
10.4955
9.79484
9.10924
8.43834
7.78204
7.13959
6.51082
5.89464
5.29074
4.69802
4.11627
3.54416
2.98116
2.42618
1.87876
1.3376
0.802625
0.270015
62.147
59.9325
58.7012
57.5697
56.4392
55.3526
54.3006
53.2731
52.2664
51.2777
50.3048
49.3456
48.3987
47.4628
46.5371
45.6205
44.7123
43.8119
42.9187
42.0322
41.152
40.2777
39.4088
38.5452
37.6865
36.8325
35.9829
35.1375
34.296
33.458
32.6232
31.7907
30.9598
30.1296
29.2988
28.4664
27.6313
26.7928
25.9501
25.1034
24.2527
23.3991
22.5433
21.687
20.8315
19.9789
19.1306
18.2886
17.4543
16.6295
15.8154
15.0135
14.2246
13.4494
12.6885
11.9424
11.2112
10.4955
9.79477
9.10919
8.4383
7.78201
7.13957
6.51081
5.89464
5.29075
4.69804
4.11629
3.54418
2.98119
2.42621
1.8788
1.33765
0.802699
0.270876
62.1656
59.9244
58.7012
57.5691
56.4388
55.3523
54.3005
53.273
52.2663
51.2777
50.3048
49.3456
48.3987
47.4629
46.5371
45.6205
44.7124
43.8119
42.9187
42.0322
41.1519
40.2776
39.4087
38.545
37.6863
36.8322
35.9826
35.1372
34.2957
33.4577
32.6229
31.7904
30.9595
30.1293
29.2985
28.4661
27.631
26.7925
25.9499
25.1031
24.2525
23.3989
22.5431
21.6868
20.8313
19.9787
19.1304
18.2884
17.4541
16.6294
15.8152
15.0134
14.2245
13.4493
12.6884
11.9424
11.2112
10.4954
9.79475
9.10918
8.43829
7.78201
7.13958
6.51083
5.89466
5.29078
4.69807
4.11634
3.54423
2.98125
2.42627
1.87886
1.33771
0.802784
0.271655
62.1838
59.9165
58.7011
57.5685
56.4384
55.3522
54.3003
53.2729
52.2663
51.2778
50.3048
49.3457
48.3988
47.463
46.5372
45.6206
44.7124
43.8119
42.9186
42.0321
41.1518
40.2774
39.4084
38.5448
37.686
36.8319
35.9823
35.1369
34.2954
33.4574
32.6225
31.7901
30.9592
30.129
29.2983
28.4659
27.6308
26.7922
25.9496
25.1029
24.2523
23.3986
22.5429
21.6866
20.8312
19.9785
19.1303
18.2883
17.454
16.6293
15.8152
15.0133
14.2244
13.4493
12.6884
11.9423
11.2112
10.4954
9.79476
9.1092
8.43832
7.78205
7.13962
6.51088
5.89472
5.29084
4.69813
4.11641
3.5443
2.98132
2.42634
1.87894
1.33779
0.802877
0.272347
62.2014
59.9089
58.701
57.568
56.4381
55.352
54.3003
53.2729
52.2663
51.2778
50.3049
49.3457
48.3989
47.463
46.5372
45.6205
44.7123
43.8118
42.9184
42.0318
41.1515
40.2771
39.4081
38.5444
37.6857
36.8316
35.982
35.1365
34.295
33.4571
32.6222
31.7898
30.9589
30.1287
29.298
28.4656
27.6305
26.792
25.9494
25.1027
24.2521
23.3985
22.5428
21.6864
20.831
19.9784
19.1302
18.2882
17.4539
16.6292
15.8151
15.0133
14.2244
13.4493
12.6884
11.9424
11.2112
10.4955
9.7948
9.10925
8.43838
7.78212
7.13969
6.51096
5.89479
5.29093
4.69822
4.11649
3.54438
2.98141
2.42642
1.87903
1.33788
0.802977
0.272955
62.2185
59.9017
58.7009
57.5675
56.4379
55.3519
54.3002
53.2729
52.2664
51.2778
50.3049
49.3458
48.3988
47.463
46.5371
45.6204
44.712
43.8115
42.9181
42.0315
41.1512
40.2767
39.4078
38.5441
37.6853
36.8312
35.9816
35.1362
34.2947
33.4568
32.6219
31.7895
30.9587
30.1285
29.2977
28.4654
27.6303
26.7918
25.9492
25.1025
24.2519
23.3983
22.5426
21.6863
20.8309
19.9783
19.1301
18.2881
17.4539
16.6292
15.8151
15.0133
14.2244
13.4493
12.6884
11.9424
11.2112
10.4955
9.79487
9.10933
8.43846
7.78221
7.13979
6.51106
5.89489
5.29103
4.69831
4.11659
3.54448
2.98151
2.42652
1.87912
1.33798
0.803081
0.273483
62.2348
59.895
58.7007
57.5672
56.4377
55.3518
54.3002
53.2729
52.2664
51.2779
50.3049
49.3457
48.3987
47.4628
46.5369
45.6201
44.7117
43.8112
42.9178
42.0312
41.1508
40.2764
39.4074
38.5437
37.685
36.8309
35.9813
35.1359
34.2944
33.4565
32.6217
31.7892
30.9584
30.1282
29.2975
28.4652
27.6301
26.7916
25.9491
25.1024
24.2518
23.3982
22.5425
21.6862
20.8308
19.9782
19.13
18.2881
17.4539
16.6292
15.8151
15.0133
14.2244
13.4494
12.6885
11.9425
11.2113
10.4956
9.79497
9.10944
8.43857
7.78232
7.1399
6.51117
5.895
5.29114
4.69843
4.11671
3.54459
2.98161
2.42663
1.87923
1.33808
0.803188
0.273937
62.2503
59.8886
58.7006
57.5669
56.4376
55.3518
54.3002
53.2729
52.2664
51.2778
50.3048
49.3455
48.3985
47.4625
46.5365
45.6197
44.7114
43.8108
42.9174
42.0308
41.1504
40.276
39.4071
38.5434
37.6846
36.8306
35.981
35.1356
34.2941
33.4562
32.6214
31.789
30.9582
30.128
29.2973
28.465
27.6299
26.7915
25.9489
25.1022
24.2517
23.3981
22.5424
21.6861
20.8308
19.9782
19.13
18.2881
17.4539
16.6292
15.8151
15.0134
14.2245
13.4494
12.6885
11.9426
11.2114
10.4957
9.79508
9.10956
8.43869
7.78244
7.14002
6.5113
5.89513
5.29127
4.69855
4.11683
3.54471
2.98173
2.42674
1.87933
1.33818
0.803294
0.274323
62.2651
59.8828
58.7004
57.5666
56.4375
55.3518
54.3002
53.2729
52.2663
51.2777
50.3046
49.3452
48.3982
47.4621
46.5361
45.6193
44.711
43.8104
42.917
42.0304
41.1501
40.2757
39.4068
38.5431
37.6844
36.8303
35.9807
35.1354
34.2939
33.456
32.6212
31.7888
30.958
30.1278
29.2971
28.4648
27.6298
26.7913
25.9488
25.1021
24.2516
23.398
22.5423
21.6861
20.8307
19.9782
19.13
18.2881
17.4539
16.6292
15.8152
15.0134
14.2246
13.4495
12.6886
11.9427
11.2115
10.4959
9.79521
9.10969
8.43882
7.78258
7.14015
6.51144
5.89526
5.2914
4.69868
4.11696
3.54483
2.98185
2.42685
1.87944
1.33829
0.803398
0.274651
62.279
59.8774
58.7003
57.5664
56.4374
55.3517
54.3001
53.2727
52.2661
51.2774
50.3043
49.3449
48.3978
47.4617
46.5357
45.6189
44.7106
43.81
42.9167
42.0301
41.1497
40.2753
39.4065
38.5428
37.6841
36.8301
35.9805
35.1351
34.2937
33.4558
32.621
31.7886
30.9578
30.1277
29.297
28.4647
27.6297
26.7912
25.9487
25.102
24.2515
23.3979
22.5423
21.686
20.8307
19.9781
19.13
18.2881
17.4539
16.6293
15.8153
15.0135
14.2247
13.4496
12.6888
11.9428
11.2116
10.496
9.79534
9.10982
8.43896
7.78272
7.14029
6.51157
5.8954
5.29154
4.69881
4.11709
3.54495
2.98197
2.42696
1.87955
1.33839
0.803499
0.274927
62.2922
59.8724
58.7001
57.5662
56.4373
55.3516
54.2999
53.2725
52.2658
51.277
50.3038
49.3444
48.3973
47.4613
46.5353
45.6185
44.7102
43.8096
42.9163
42.0297
41.1494
40.275
39.4062
38.5425
37.6838
36.8298
35.9803
35.1349
34.2935
33.4556
32.6208
31.7885
30.9577
30.1275
29.2968
28.4645
27.6295
26.7911
25.9485
25.1019
24.2514
23.3978
22.5422
21.686
20.8307
19.9781
19.13
18.2881
17.454
16.6293
15.8153
15.0136
14.2247
13.4497
12.6889
11.9429
11.2118
10.4961
9.79547
9.10996
8.43909
7.78286
7.14043
6.51171
5.89554
5.29167
4.69894
4.11721
3.54508
2.98209
2.42707
1.87966
1.33849
0.803597
0.275157
62.3046
59.8678
58.7
57.5661
56.4371
55.3514
54.2997
53.2721
52.2653
51.2765
50.3033
49.3439
48.3968
47.4608
46.5349
45.6181
44.7098
43.8093
42.916
42.0294
41.1491
40.2748
39.4059
38.5423
37.6836
36.8296
35.9801
35.1348
34.2933
33.4555
32.6207
31.7883
30.9575
30.1274
29.2967
28.4644
27.6294
26.791
25.9485
25.1018
24.2513
23.3978
22.5422
21.686
20.8306
19.9781
19.13
18.2881
17.454
16.6294
15.8154
15.0137
14.2248
13.4498
12.689
11.943
11.2119
10.4962
9.7956
9.11009
8.43923
7.783
7.14057
6.51185
5.89567
5.29181
4.69907
4.11734
3.5452
2.9822
2.42718
1.87976
1.33859
0.80369
0.275349
62.3162
59.8637
58.6998
57.5658
56.4368
55.3511
54.2993
53.2717
52.2648
51.276
50.3028
49.3435
48.3964
47.4604
46.5345
45.6177
44.7095
43.809
42.9157
42.0292
41.1489
40.2745
39.4057
38.5421
37.6834
36.8295
35.9799
35.1346
34.2932
33.4553
32.6206
31.7882
30.9574
30.1273
29.2966
28.4643
27.6293
26.7909
25.9484
25.1017
24.2512
23.3977
22.5421
21.6859
20.8306
19.9781
19.13
18.2882
17.454
16.6294
15.8154
15.0137
14.2249
13.4499
12.6891
11.9431
11.212
10.4964
9.79573
9.11022
8.43936
7.78313
7.1407
6.51198
5.8958
5.29193
4.69919
4.11746
3.54531
2.98231
2.42729
1.87986
1.33868
0.803778
0.275507
62.3272
59.8598
58.6996
57.5655
56.4364
55.3506
54.2987
53.2711
52.2643
51.2755
50.3023
49.343
48.3959
47.46
46.5341
45.6174
44.7091
43.8087
42.9154
42.0289
41.1487
40.2743
39.4055