/*--------------------------------*- C++ -*----------------------------------*\
  =========                 |
  \\      /  F ield         | OpenFOAM: The Open Source CFD Toolbox
   \\    /   O peration     | Website:  https://openfoam.org
    \\  /    A nd           | Version:  7
     \\/     M anipulation  |
\*---------------------------------------------------------------------------*/
FoamFile
{
    version     2.0;
    format      ascii;
    class       surfaceScalarField;
    location    "450";
    object      phi;
}
// * * * * * * * * * * * * * * * * * * * * * * * * * * * * * * * * * * * * * //

dimensions      [0 3 -1 0 0 0 0];

internalField   nonuniform List<scalar> 
8865
(
0.00452285
0.00168694
0.00415016
0.00037269
0.0039903
0.000159866
0.00389729
9.30109e-05
0.00383339
6.38985e-05
0.00378555
4.78347e-05
0.00374796
3.75906e-05
0.00371747
3.04976e-05
0.00369216
2.5306e-05
0.00367081
2.13471e-05
0.00365258
1.82337e-05
0.00363685
1.57254e-05
0.00362319
1.3665e-05
0.00361124
1.19449e-05
0.00360075
1.04894e-05
0.00359151
9.24351e-06
0.00358334
8.16632e-06
0.00357612
7.22693e-06
0.00356971
6.40138e-06
0.00356404
5.67111e-06
0.00355902
5.02085e-06
0.00355458
4.43884e-06
0.00355067
3.9144e-06
0.00354723
3.43948e-06
0.00354422
3.00573e-06
0.00354162
2.60644e-06
0.00353938
2.23493e-06
0.0035375
1.88634e-06
0.00353594
1.55618e-06
0.00353469
1.24811e-06
0.00353372
9.64291e-07
0.00353301
7.12415e-07
0.00353251
5.00082e-07
0.00353216
3.45321e-07
0.0035319
2.54653e-07
0.00353166
2.37508e-07
0.00353136
2.87713e-07
0.00353094
4.15762e-07
0.00353034
6.02181e-07
0.0035295
8.38064e-07
0.00352839
1.0922e-06
0.00352701
1.37039e-06
0.00352536
1.6435e-06
0.00352346
1.90157e-06
0.00352133
2.12248e-06
0.00351902
2.30333e-06
0.00351656
2.45083e-06
0.00351401
2.55246e-06
0.0035114
2.60396e-06
0.0035088
2.61291e-06
0.00350623
2.55041e-06
0.00350375
2.45834e-06
0.0035014
2.33724e-06
0.00349922
2.18014e-06
0.00349723
1.98368e-06
0.00349548
1.76321e-06
0.00349399
1.48477e-06
0.00349278
1.19218e-06
0.00349187
9.0532e-07
0.00349129
5.65934e-07
0.00349105
2.46237e-07
0.00349116
-1.28895e-07
0.00349161
-4.64752e-07
0.00349242
-8.12308e-07
0.00349356
-1.13711e-06
0.00349505
-1.47598e-06
0.00349686
-1.79251e-06
0.00349897
-2.10349e-06
0.00350138
-2.3765e-06
0.00350405
-2.64583e-06
0.00350696
-2.88223e-06
0.00351009
-3.10836e-06
0.00351339
-3.27753e-06
0.00351678
-3.36371e-06
-1.73871e-06
0.00573448
0.00277626
0.00532416
0.000783017
0.00510631
0.00037771
0.00497607
0.000223255
0.00488795
0.000152018
0.00482307
0.000112709
0.00477273
8.79388e-05
0.00473224
7.09789e-05
0.00469887
5.86788e-05
0.00467085
4.93648e-05
0.00464701
4.20794e-05
0.0046265
3.62352e-05
0.00460871
3.14507e-05
0.00459319
2.74676e-05
0.00457958
2.41049e-05
0.00456759
2.1232e-05
0.004557
1.87522e-05
0.00454763
1.65927e-05
0.00453934
1.46972e-05
0.00453199
1.30221e-05
0.00452548
1.15324e-05
0.00451972
1.01996e-05
0.00451463
8.99989e-06
0.00451016
7.91377e-06
0.00450624
6.92299e-06
0.00450283
6.01101e-06
0.00449991
5.16358e-06
0.00449742
4.36989e-06
0.00449536
3.62082e-06
0.00449368
2.92356e-06
0.00449236
2.28418e-06
0.00449135
1.72063e-06
0.0044906
1.25234e-06
0.00449002
9.15168e-07
0.00448955
7.25625e-07
0.00448909
7.02098e-07
0.00448853
8.34784e-07
0.00448781
1.13513e-06
0.00448685
1.56416e-06
0.00448559
2.09709e-06
0.004484
2.67324e-06
0.00448208
3.28891e-06
0.00447983
3.88731e-06
0.00447729
4.44386e-06
0.00447449
4.91727e-06
0.00447149
5.29784e-06
0.00446834
5.59313e-06
0.00446511
5.78221e-06
0.00446186
5.85873e-06
0.00445864
5.83517e-06
0.00445551
5.66887e-06
0.00445253
5.42677e-06
0.00444975
5.11158e-06
0.00444721
4.7154e-06
0.00444496
4.23576e-06
0.00444303
3.69869e-06
0.00444146
3.05488e-06
0.00444026
2.37469e-06
0.00443948
1.69092e-06
0.00443912
9.15994e-07
0.0044392
1.69145e-07
0.00443973
-6.66295e-07
0.00444069
-1.43803e-06
0.0044421
-2.22619e-06
0.00444394
-2.97183e-06
0.0044462
-3.72986e-06
0.00444886
-4.43866e-06
0.00445189
-5.12614e-06
0.00445526
-5.73792e-06
0.00445896
-6.32631e-06
0.00446294
-6.84317e-06
0.00446716
-7.32405e-06
0.00447159
-7.68612e-06
0.00447611
-7.87059e-06
-4.01806e-06
0.00677261
0.00350217
0.00634446
0.00121116
0.00607519
0.000646986
0.00590745
0.000390987
0.00579398
0.000265489
0.00571123
0.000195464
0.00564762
0.00015155
0.00559688
0.000121718
0.00555531
0.000100246
0.00552058
8.40914e-05
0.00549114
7.1523e-05
0.00546589
6.1485e-05
0.00544404
5.32967e-05
0.00542501
4.65005e-05
0.00540834
4.07774e-05
0.00539367
3.58984e-05
0.00538073
3.16948e-05
0.00536928
2.804e-05
0.00535914
2.48366e-05
0.00535016
2.2009e-05
0.00534219
1.9497e-05
0.00533514
1.72519e-05
0.00532891
1.52326e-05
0.00532341
1.34061e-05
0.0053186
1.1741e-05
0.0053144
1.02102e-05
0.00531077
8.78968e-06
0.00530768
7.46195e-06
0.00530508
6.21428e-06
0.00530295
5.05625e-06
0.00530123
4.00038e-06
0.00529988
3.07655e-06
0.00529881
2.31863e-06
0.00529794
1.78045e-06
0.00529718
1.48986e-06
0.00529641
1.47291e-06
0.00529552
1.71565e-06
0.00529443
2.2242e-06
0.00529306
2.93781e-06
0.00529134
3.81033e-06
0.00528926
4.75027e-06
0.00528681
5.73634e-06
0.00528401
6.68369e-06
0.0052809
7.55051e-06
0.00527754
8.27731e-06
0.00527399
8.84683e-06
0.00527032
9.2647e-06
0.00526659
9.50441e-06
0.00526289
9.55909e-06
0.00525928
9.44561e-06
0.00525583
9.11496e-06
0.0052526
8.65273e-06
0.00524964
8.06522e-06
0.00524701
7.34688e-06
0.00524475
6.49856e-06
0.00524289
5.55539e-06
0.00524148
4.4611e-06
0.00524054
3.30635e-06
0.0052401
2.13348e-06
0.00524017
8.41507e-07
0.00524076
-4.18347e-07
0.00524187
-1.78478e-06
0.0052435
-3.06994e-06
0.00524564
-4.36684e-06
0.00524827
-5.59978e-06
0.00525137
-6.83167e-06
0.00525493
-7.9847e-06
0.00525889
-9.089e-06
0.00526324
-1.00772e-05
0.00526794
-1.10104e-05
0.00527293
-1.18296e-05
0.00527819
-1.25738e-05
0.00528365
-1.3133e-05
0.00528919
-1.34028e-05
-6.81358e-06
0.00776838
0.00397374
0.00736522
0.00161432
0.00705881
0.000953393
0.00685371
0.000596095
0.00671229
0.00040691
0.00660913
0.000298623
0.00653023
0.000230446
0.00646767
0.000184282
0.00641669
0.000151227
0.00637428
0.000126493
0.00633846
0.000107343
0.00630784
9.21128e-05
0.0062814
7.97341e-05
0.00625841
6.94916e-05
0.00623829
6.08894e-05
0.00622062
5.35727e-05
0.00620503
4.72816e-05
0.00619125
4.18214e-05
0.00617905
3.70428e-05
0.00616822
3.28305e-05
0.00615863
2.90931e-05
0.00615012
2.57561e-05
0.0061426
2.2758e-05
0.00613596
2.00484e-05
0.00613012
1.75811e-05
0.00612501
1.53153e-05
0.00612058
1.32167e-05
0.00611679
1.12603e-05
0.00611357
9.42925e-06
0.00611089
7.73722e-06
0.00610868
6.20384e-06
0.00610689
4.87265e-06
0.00610541
3.79328e-06
0.00610415
3.03795e-06
0.006103
2.64525e-06
0.00610182
2.64707e-06
0.00610051
3.02237e-06
0.00609897
3.76747e-06
0.00609711
4.79559e-06
0.00609488
6.03488e-06
0.00609227
7.35979e-06
0.00608928
8.72761e-06
0.00608593
1.00239e-05
0.0060823
1.11886e-05
0.00607843
1.21444e-05
0.0060744
1.28661e-05
0.00607031
1.33587e-05
0.00606622
1.35912e-05
0.00606222
1.35577e-05
0.00605839
1.32806e-05
0.00605479
1.27069e-05
0.0060515
1.19409e-05
0.00604856
1.09939e-05
0.00604605
9.86413e-06
0.00604399
8.55726e-06
0.00604243
7.11812e-06
0.0060414
5.48594e-06
0.00604093
3.77079e-06
0.00604104
2.02606e-06
0.00604173
1.39933e-07
0.00604302
-1.70399e-06
0.0060449
-3.66978e-06
0.00604735
-5.52931e-06
0.00605037
-7.39089e-06
0.00605394
-9.16014e-06
0.00605802
-1.09078e-05
0.00606258
-1.25376e-05
0.00606758
-1.40857e-05
0.00607298
-1.54696e-05
0.00607874
-1.67597e-05
0.0060848
-1.78844e-05
0.00609113
-1.88893e-05
0.00609763
-1.9632e-05
0.0061042
-1.99609e-05
-1.00992e-05
0.00876053
0.0042679
0.00841816
0.00195669
0.00809688
0.00127467
0.00785897
0.000834004
0.00768847
0.000577413
0.00756264
0.000424452
0.00746628
0.000326806
0.00739005
0.000260516
0.00732813
0.000213142
0.00727681
0.000177816
0.00723358
0.00015057
0.00719672
0.00012898
0.00716496
0.000111491
0.00713739
9.70628e-05
0.0071133
8.49769e-05
0.00709215
7.47209e-05
0.00707351
6.59205e-05
0.00705704
5.82962e-05
0.00704245
5.16344e-05
0.00702951
4.57705e-05
0.00701803
4.05741e-05
0.00700784
3.59401e-05
0.00699882
3.17813e-05
0.00699084
2.80265e-05
0.00698381
2.46111e-05
0.00697765
2.14797e-05
0.00697228
1.85853e-05
0.00696764
1.58948e-05
0.00696368
1.33879e-05
0.00696034
1.10818e-05
0.00695754
9.00517e-06
0.00695519
7.21596e-06
0.00695321
5.78046e-06
0.00695145
4.7884e-06
0.00694981
4.28798e-06
0.00694814
4.314e-06
0.00694633
4.83528e-06
0.00694426
5.8329e-06
0.00694187
7.19034e-06
0.00693909
8.80566e-06
0.00693593
1.05171e-05
0.0069324
1.22566e-05
0.00692854
1.38799e-05
0.00692442
1.5308e-05
0.00692012
1.6447e-05
0.00691572
1.72649e-05
0.00691131
1.77657e-05
0.00690698
1.79162e-05
0.00690283
1.77134e-05
0.00689893
1.71861e-05
0.00689535
1.62813e-05
0.00689216
1.51201e-05
0.00688943
1.37203e-05
0.00688721
1.20861e-05
0.00688554
1.02293e-05
0.00688445
8.20462e-06
0.00688399
5.95038e-06
0.00688416
3.59456e-06
0.00688498
1.20105e-06
0.00688647
-1.34595e-06
0.0068886
-3.84009e-06
0.00689139
-6.45956e-06
0.0068948
-8.94626e-06
0.00689882
-1.14155e-05
0.00690342
-1.37587e-05
0.00690857
-1.60498e-05
0.00691421
-1.81794e-05
0.00692032
-2.0184e-05
0.00692683
-2.19712e-05
0.00693369
-2.36165e-05
0.00694085
-2.50405e-05
0.00694826
-2.62895e-05
0.00695583
-2.7194e-05
0.00696342
-2.75425e-05
-1.38983e-05
0.00977742
0.00444046
0.00951399
0.00222012
0.00920569
0.00158298
0.00894539
0.0010943
0.00874723
0.000775576
0.0085973
0.000574375
0.00848145
0.000442657
0.00838959
0.000352373
0.00831504
0.000287698
0.00825334
0.000239516
0.00820147
0.000202437
0.00815732
0.000173135
0.00811934
0.000149463
0.00808642
0.000129985
0.00805769
0.000113709
0.00803248
9.99271e-05
0.00801028
8.81246e-05
0.00799066
7.79177e-05
0.00797328
6.90137e-05
0.00795786
6.11874e-05
0.00794417
5.42615e-05
0.00793202
4.80922e-05
0.00792124
4.2562e-05
0.00791169
3.75745e-05
0.00790326
3.30442e-05
0.00789584
2.88969e-05
0.00788936
2.50724e-05
0.00788372
2.15284e-05
0.00787887
1.82404e-05
0.00787472
1.52306e-05
0.00787119
1.25363e-05
0.00786817
1.02308e-05
0.00786556
8.3967e-06
0.0078632
7.14021e-06
0.00786097
6.51677e-06
0.00785873
6.56093e-06
0.00785633
7.2272e-06
0.00785369
8.47711e-06
0.00785072
1.01602e-05
0.00784738
1.21409e-05
0.00784368
1.42188e-05
0.00783963
1.62987e-05
0.0078353
1.8206e-05
0.00783077
1.98431e-05
0.00782611
2.11007e-05
0.00782143
2.19408e-05
0.00781683
2.23681e-05
0.0078124
2.23491e-05
0.00780822
2.18849e-05
0.0078044
2.10124e-05
0.007801
1.96798e-05
0.00779809
1.80268e-05
0.00779572
1.60788e-05
0.00779396
1.38467e-05
0.00779284
1.13502e-05
0.00779239
8.65429e-06
0.00779264
5.69763e-06
0.00779361
2.62633e-06
0.00779529
-4.81653e-07
0.00779769
-3.75062e-06
0.0078008
-6.94831e-06
0.0078046
-1.02703e-05
0.00780908
-1.34224e-05
0.00781419
-1.65321e-05
0.00781991
-1.94735e-05
0.00782619
-2.23259e-05
0.00783298
-2.49631e-05
0.00784022
-2.74273e-05
0.00784787
-2.96129e-05
0.00785587
-3.16028e-05
0.00786414
-3.33072e-05
0.00787264
-3.47772e-05
0.00788126
-3.58102e-05
0.00788986
-3.61326e-05
-1.81751e-05
0.0108418
0.0045325
0.0106586
0.00240329
0.0103907
0.00185088
0.0101252
0.00135979
0.00990488
0.000995899
0.00973121
0.000748042
0.00959448
0.000579386
0.00948519
0.000461659
0.00939623
0.000376666
0.00932255
0.000313187
0.00926065
0.000264341
0.009208
0.000225789
0.00916276
0.000194702
0.00912357
0.000169174
0.00908939
0.000147884
0.00905943
0.000129893
0.00903304
0.000114513
0.00900972
0.000101234
0.00898907
8.96687e-05
0.00897074
7.95175e-05
0.00895445
7.05454e-05
0.00893998
6.25638e-05
0.00892713
5.54171e-05
0.00891572
4.89795e-05
0.00890563
4.31396e-05
0.00889672
3.78032e-05
0.0088889
3.28936e-05
0.00888207
2.83586e-05
0.00887614
2.41695e-05
0.00887102
2.03521e-05
0.0088666
1.69535e-05
0.00886277
1.40616e-05
0.00885939
1.17747e-05
0.00885632
1.02131e-05
0.00885339
9.43696e-06
0.00885048
9.47671e-06
0.00884743
1.02689e-05
0.00884416
1.17506e-05
0.00884058
1.37342e-05
0.00883668
1.60475e-05
0.00883244
1.84497e-05
0.00882792
2.0817e-05
0.00882318
2.29447e-05
0.00881831
2.47173e-05
0.0088134
2.60116e-05
0.00880855
2.67852e-05
0.00880387
2.70445e-05
0.00879946
2.67573e-05
0.00879542
2.5931e-05
0.00879182
2.46114e-05
0.00878875
2.27512e-05
0.00878626
2.05075e-05
0.00878442
1.7915e-05
0.00878327
1.49931e-05
0.00878285
1.17702e-05
0.00878319
8.32183e-06
0.00878429
4.58953e-06
0.00878618
7.38165e-07
0.00878884
-3.14314e-06
0.00879227
-7.18413e-06
0.00879645
-1.11319e-05
0.00880137
-1.51896e-05
0.00880698
-1.90372e-05
0.00881325
-2.28071e-05
0.00882014
-2.63606e-05
0.0088276
-2.97785e-05
0.00883556
-3.29238e-05
0.00884398
-3.5838e-05
0.00885278
-3.8408e-05
0.0088619
-4.07205e-05
0.00887128
-4.268e-05
0.00888085
-4.43374e-05
0.00889051
-4.54616e-05
0.00890009
-4.57032e-05
-2.2945e-05
0.0119752
0.00457226
0.0118614
0.00251703
0.0116523
0.00206002
0.0114041
0.00160801
0.0111727
0.00122725
0.0109787
0.00094203
0.0108211
0.000736974
0.0106932
0.000589616
0.0105882
0.000481647
0.0105009
0.000400442
0.0104275
0.000337776
0.010365
0.000288285
0.0103113
0.000248398
0.0102648
0.00021568
0.0102243
0.000188432
0.0101887
0.000165439
0.0101574
0.000145814
0.0101298
0.000128895
0.0101052
0.000114179
0.0100835
0.00010128
0.0100641
8.98935e-05
0.0100469
7.97754e-05
0.0100316
7.07266e-05
0.010018
6.25851e-05
0.0100059
5.52103e-05
0.00999525
4.8483e-05
0.00998584
4.23088e-05
0.00997757
3.66237e-05
0.00997035
3.13932e-05
0.00996405
2.66472e-05
0.00995857
2.24412e-05
0.00995375
1.88769e-05
0.00994946
1.60663e-05
0.00994553
1.41414e-05
0.0099418
1.31638e-05
0.00993812
1.31559e-05
0.00993436
1.40322e-05
0.0099304
1.57018e-05
0.0099262
1.79365e-05
0.00992172
2.05254e-05
0.00991698
2.31863e-05
0.00991203
2.57661e-05
0.00990694
2.80305e-05
0.00990181
2.98473e-05
0.00989674
3.10809e-05
0.00989184
3.16853e-05
0.00988721
3.16713e-05
0.00988296
3.10089e-05
0.00987918
2.97136e-05
0.00987595
2.78413e-05
0.00987335
2.53501e-05
0.00987143
2.24164e-05
0.00987026
1.90853e-05
0.00986986
1.53851e-05
0.00987028
1.13543e-05
0.00987153
7.0797e-06
0.00987361
2.50649e-06
0.00987652
-2.18075e-06
0.00988026
-6.88299e-06
0.00988481
-1.17393e-05
0.00989015
-1.64682e-05
0.00989624
-2.12882e-05
0.00990305
-2.58461e-05
0.00991052
-3.02857e-05
0.00991862
-3.44522e-05
0.00992727
-3.8431e-05
0.00993642
-4.20699e-05
0.00994601
-4.54165e-05
0.00995595
-4.8346e-05
0.00996619
-5.09524e-05
0.00997665
-5.31311e-05
0.00998726
-5.49382e-05
0.00999791
-5.61074e-05
0.0100084
-5.6212e-05
-2.81539e-05
0.0131983
0.00457686
0.0131373
0.00257801
0.0129915
0.00220581
0.0127826
0.00181691
0.0125574
0.00145244
0.0123512
0.00114828
0.0121753
0.000912857
0.0120287
0.000736235
0.0119067
0.000603686
0.0118044
0.000502686
0.011718
0.000424209
0.0116442
0.000362025
0.0115808
0.000311841
0.0115258
0.00027067
0.0114778
0.0002364
0.0114358
0.000207506
0.0113987
0.000182869
0.011366
0.000161654
0.0113369
0.000143223
0.0113111
0.000127085
0.0112881
0.000112855
0.0112677
0.000100225
0.0112495
8.89413e-05
0.0112333
7.8801e-05
0.0112188
6.9628e-05
0.011206
6.12758e-05
0.0111947
5.36281e-05
0.0111847
4.66072e-05
0.011176
4.01723e-05
0.0111683
3.43546e-05
0.0111615
2.92173e-05
0.0111555
2.48738e-05
0.0111501
2.14476e-05
0.0111452
1.90791e-05
0.0111405
1.78274e-05
0.011136
1.77035e-05
0.0111314
1.85961e-05
0.0111267
2.03828e-05
0.0111218
2.27927e-05
0.0111168
2.55745e-05
0.0111116
2.84043e-05
0.0111062
3.10994e-05
0.0111009
3.3397e-05
0.0110956
3.51493e-05
0.0110904
3.621e-05
0.0110856
3.65317e-05
0.0110811
3.61294e-05
0.0110772
3.49781e-05
0.0110738
3.31021e-05
0.011071
3.05687e-05
0.0110691
2.73439e-05
0.0110678
2.36226e-05
0.0110675
1.94615e-05
0.0110679
1.48994e-05
0.0110693
9.98562e-06
0.0110716
4.81815e-06
0.0110747
-6.49676e-07
0.0110788
-6.21797e-06
0.0110837
-1.17822e-05
0.0110894
-1.74825e-05
0.011096
-2.30162e-05
0.0111033
-2.86083e-05
0.0111113
-3.38833e-05
0.01112
-3.89888e-05
0.0111293
-4.3759e-05
0.0111392
-4.82808e-05
0.0111495
-5.23927e-05
0.0111602
-5.61421e-05
0.0111713
-5.93988e-05
0.0111826
-6.22605e-05
0.0111941
-6.46189e-05
0.0112057
-6.65294e-05
0.0112173
-6.76964e-05
0.0112287
-6.76019e-05
-3.38088e-05
0.0145294
0.00455582
0.0145054
0.00260198
0.0144157
0.00229555
0.0142598
0.00197282
0.0140612
0.00165105
0.0138564
0.00135304
0.0136688
0.00110045
0.0135058
0.000899212
0.0133669
0.000742613
0.0132489
0.000620723
0.0131482
0.000524839
0.0130619
0.000448325
0.0129874
0.000386336
0.0129227
0.00033538
0.0128662
0.00029293
0.0128166
0.000257137
0.0127728
0.000226629
0.0127341
0.000200373
0.0126997
0.00017758
0.0126692
0.00015764
0.012642
0.000140073
0.0126177
0.000124494
0.012596
0.000110591
0.0125767
9.81089e-05
0.0125595
8.68332e-05
0.0125442
7.65834e-05
0.0125306
6.72194e-05
0.0125186
5.86468e-05
0.0125079
5.0815e-05
0.0124985
4.37563e-05
0.0124902
3.75383e-05
0.0124828
3.22838e-05
0.0124761
2.81242e-05
0.01247
2.52049e-05
0.0124643
2.35787e-05
0.0124587
2.32411e-05
0.0124533
2.40523e-05
0.0124478
2.58555e-05
0.0124422
2.83356e-05
0.0124366
3.12003e-05
0.0124309
3.40839e-05
0.0124253
3.67746e-05
0.0124197
3.89826e-05
0.0124143
4.05454e-05
0.0124092
4.13078e-05
0.0124045
4.12218e-05
0.0124003
4.03092e-05
0.0123967
3.85499e-05
0.0123938
3.59791e-05
0.0123917
3.26761e-05
0.0123905
2.8615e-05
0.0123901
2.40112e-05
0.0123906
1.89339e-05
0.0123921
1.34328e-05
0.0123945
7.56877e-06
0.0123978
1.45334e-06
0.0124022
-4.95345e-06
0.0124074
-1.14405e-05
0.0124135
-1.78944e-05
0.0124205
-2.44593e-05
0.0124282
-3.08051e-05
0.0124368
-3.71729e-05
0.0124461
-4.3156e-05
0.012456
-4.89142e-05
0.0124665
-5.42666e-05
0.0124775
-5.93055e-05
0.012489
-6.38557e-05
0.0125008
-6.7972e-05
0.012513
-7.15143e-05
0.0125253
-7.45879e-05
0.0125378
-7.70774e-05
0.0125503
-7.90441e-05
0.0125627
-8.0155e-05
0.012575
-7.98016e-05
-3.98377e-05
0.0159844
0.00451431
0.0159863
0.00260012
0.0159396
0.0023422
0.015838
0.00207445
0.0156829
0.00180618
0.0154978
0.00153813
0.0153103
0.00128793
0.015137
0.00107255
0.0149835
0.000896033
0.0148502
0.000754095
0.0147348
0.000640183
0.014635
0.000548156
0.0145483
0.000473036
0.0144727
0.000411005
0.0144064
0.000359191
0.0143481
0.000315439
0.0142966
0.000278123
0.014251
0.000246003
0.0142104
0.000218125
0.0141743
0.000193745
0.0141421
0.000172278
0.0141134
0.000153254
0.0140877
0.000136288
0.0140647
0.000121071
0.0140442
0.000107339
0.0140259
9.48774e-05
0.0140096
8.35152e-05
0.0139951
7.31386e-05
0.0139823
6.36858e-05
0.0139708
5.51852e-05
0.0139607
4.77069e-05
0.0139516
4.13793e-05
0.0139433
3.63382e-05
0.0139358
3.27294e-05
0.0139288
3.05958e-05
0.0139221
2.99139e-05
0.0139157
3.05128e-05
0.0139093
3.21993e-05
0.013903
3.46136e-05
0.0138968
3.74223e-05
0.0138907
4.02187e-05
0.0138847
4.27627e-05
0.0138789
4.47386e-05
0.0138735
4.5971e-05
0.0138685
4.62973e-05
0.0138641
4.56702e-05
0.0138603
4.41183e-05
0.0138572
4.16285e-05
0.0138549
3.82471e-05
0.0138535
3.40661e-05
0.0138531
2.90699e-05
0.0138536
2.34933e-05
0.0138551
1.74191e-05
0.0138576
1.09089e-05
0.0138611
4.0367e-06
0.0138657
-3.07094e-06
0.0138712
-1.04508e-05
0.0138776
-1.7884e-05
0.013885
-2.52464e-05
0.0138932
-3.26813e-05
0.0139022
-3.984e-05
0.013912
-4.69699e-05
0.0139225
-5.36452e-05
0.0139336
-6.00303e-05
0.0139453
-6.59346e-05
0.0139574
-7.14528e-05
0.01397
-7.64025e-05
0.0139828
-8.08396e-05
0.013996
-8.46205e-05
0.0140092
-8.78552e-05
0.0140226
-9.04264e-05
0.0140359
-9.23954e-05
0.0140492
-9.3399e-05
0.0140621
-9.27236e-05
-4.62401e-05
0.0175785
0.00445507
0.0175995
0.00257919
0.0175837
0.00235791
0.0175281
0.00213005
0.0174232
0.00191109
0.0172751
0.00168623
0.0171043
0.00145878
0.0169315
0.00124532
0.0167696
0.00105797
0.0166236
0.000900065
0.0164944
0.000769374
0.0163809
0.000661678
0.0162813
0.000572637
0.0161938
0.0004985
0.0161167
0.000436243
0.0160487
0.000383494
0.0159884
0.000338408
0.0159348
0.000299552
0.0158872
0.000265803
0.0158446
0.000236283
0.0158066
0.00021029
0.0157726
0.000187259
0.0157422
0.00016673
0.0157149
0.000148329
0.0156905
0.00013174
0.0156687
0.000116704
0.0156492
0.000103019
0.0156318
9.05465e-05
0.0156163
7.92097e-05
0.0156024
6.90311e-05
0.01559
6.00782e-05
0.0155789
5.24809e-05
0.0155689
4.6375e-05
0.0155597
4.19023e-05
0.0155512
3.90919e-05
0.0155432
3.78986e-05
0.0155356
3.81177e-05
0.0155283
3.95194e-05
0.0155212
4.16988e-05
0.0155144
4.42822e-05
0.0155078
4.68234e-05
0.0155015
4.90552e-05
0.0154956
5.06377e-05
0.0154901
5.13835e-05
0.0154853
5.11242e-05
0.0154812
4.98135e-05
0.0154778
4.74886e-05
0.0154753
4.41434e-05
0.0154737
3.98362e-05
0.0154731
3.46716e-05
0.0154735
2.86443e-05
0.015475
2.20096e-05
0.0154775
1.48651e-05
0.0154812
7.28434e-06
0.0154858
-6.41161e-07
0.0154916
-8.77453e-06
0.0154983
-1.71547e-05
0.0155059
-2.55512e-05
0.0155145
-3.38269e-05
0.0155239
-4.21297e-05
0.0155342
-5.0086e-05
0.0155452
-5.79598e-05
0.0155568
-6.52971e-05
0.0155691
-7.22753e-05
0.0155818
-7.8691e-05
0.015595
-8.46451e-05
0.0156086
-8.99437e-05
0.0156224
-9.46519e-05
0.0156364
-9.86181e-05
0.0156505
-0.000101961
0.0156646
-0.000104558
0.0156787
-0.000106478
0.0156927
-0.000107319
0.0157062
-0.000106265
-5.29216e-05
0.0193271
0.00437951
0.0193633
0.00254302
0.0193699
0.00235126
0.0193491
0.00215085
0.0192904
0.00196985
0.0191886
0.00178799
0.0190512
0.00159619
0.0188945
0.00140198
0.0187348
0.00121769
0.0185826
0.00105228
0.0184429
0.000909105
0.0183171
0.000787479
0.0182049
0.000684848
0.0181051
0.000598216
0.0180166
0.00052479
0.0179379
0.000462184
0.0178679
0.000408444
0.0178054
0.000361996
0.0177496
0.000321576
0.0176998
0.000286177
0.0176551
0.000254984
0.017615
0.000227336
0.017579
0.00020269
0.0175467
0.000180603
0.0175178
0.000160704
0.0174918
0.000142684
0.0174685
0.000126306
0.0174477
0.000111403
0.017429
9.78797e-05
0.0174123
8.57467e-05
0.0173973
7.50659e-05
0.0173838
6.59636e-05
0.0173716
5.85705e-05
0.0173605
5.30202e-05
0.0173503
4.93238e-05
0.0173407
4.74118e-05
0.0173318
4.7045e-05
0.0173234
4.7956e-05
0.0173154
4.96965e-05
0.0173078
5.18538e-05
0.0173007
5.39442e-05
0.0172941
5.56747e-05
0.017288
5.66829e-05
0.0172826
5.67709e-05
0.017278
5.57652e-05
0.0172742
5.3622e-05
0.0172713
5.03861e-05
0.0172694
4.60594e-05
0.0172685
4.07123e-05
0.0172687
3.44613e-05
0.01727
2.73128e-05
0.0172725
1.95416e-05
0.0172761
1.12611e-05
0.0172808
2.55996e-06
0.0172866
-6.45317e-06
0.0172935
-1.56383e-05
0.0173014
-2.50349e-05
0.0173102
-3.43996e-05
0.01732
-4.3585e-05
0.0173306
-5.27394e-05
0.017342
-6.14728e-05
0.0173541
-7.00565e-05
0.0173668
-7.80205e-05
0.01738
-8.55484e-05
0.0173938
-9.24287e-05
0.0174079
-9.87663e-05
0.0174223
-0.000104362
0.017437
-0.000109285
0.0174517
-0.000113381
0.0174666
-0.000116776
0.0174814
-0.000119346
0.017496
-0.000121162
0.0175105
-0.000121791
0.0175246
-0.000120302
-5.98723e-05
0.0212463
0.00428825
0.0212957
0.00249367
0.0213195
0.00232744
0.0213242
0.00214617
0.0213021
0.00199196
0.0212453
0.00184475
0.0211515
0.00169
0.021027
0.00152649
0.0208846
0.00136013
0.0207372
0.00119968
0.020594
0.0010523
0.02046
0.000921453
0.0203373
0.000807544
0.0202262
0.000709284
0.0201263
0.000624735
0.0200366
0.000551878
0.0199562
0.000488871
0.019884
0.000434123
0.0198193
0.000386302
0.0197612
0.000344308
0.0197089
0.000307235
0.0196619
0.000274334
0.0196196
0.000244982
0.0195816
0.000218669
0.0195473
0.000194963
0.0195165
0.000173506
0.0194888
0.000154021
0.0194639
0.00013631
0.0194415
0.000120254
0.0194214
0.000105849
0.0194033
9.31459e-05
0.019387
8.22617e-05
0.0193723
7.33173e-05
0.0193588
6.6433e-05
0.0193466
6.15989e-05
0.0193353
5.87188e-05
0.0193248
5.75185e-05
0.019315
5.7694e-05
0.019306
5.8755e-05
0.0192976
6.02525e-05
0.0192899
6.16675e-05
0.0192828
6.26835e-05
0.0192766
6.29173e-05
0.0192712
6.21613e-05
0.0192667
6.02383e-05
0.0192633
5.71058e-05
0.0192608
5.28183e-05
0.0192595
4.7384e-05
0.0192593
4.08855e-05
0.0192603
3.34507e-05
0.0192626
2.50961e-05
0.019266
1.6117e-05
0.0192706
6.64427e-06
0.0192764
-3.21313e-06
0.0192832
-1.33375e-05
0.0192912
-2.35921e-05
0.0193002
-3.40106e-05
0.0193101
-4.43384e-05
0.0193209
-5.44167e-05
0.0193326
-6.43999e-05
0.019345
-7.38751e-05
0.0193581
-8.31323e-05
0.0193717
-9.16759e-05
0.0193859
-9.97046e-05
0.0194004
-0.000106996
0.0194153
-0.000113662
0.0194305
-0.000119496
0.0194458
-0.000124577
0.0194612
-0.000128746
0.0194765
-0.000132138
0.0194918
-0.000134626
0.0195069
-0.00013629
0.0195218
-0.000136657
0.0195362
-0.000134689
-6.69706e-05
0.0233536
0.00418142
0.0234151
0.0024322
0.0234532
0.00228933
0.0234772
0.00212214
0.0234826
0.00198665
0.0234628
0.0018645
0.0234125
0.0017403
0.02333
0.00160898
0.0232201
0.00147005
0.0230924
0.00132737
0.0229574
0.00118727
0.0228234
0.00105551
0.0226954
0.000935567
0.022576
0.000828654
0.0224663
0.000734457
0.0223663
0.000651894
0.0222755
0.000579609
0.0221934
0.000516237
0.0221192
0.00046052
0.0220521
0.000411356
0.0219916
0.000367798
0.0219369
0.000329041
0.0218874
0.000294401
0.0218428
0.000263308
0.0218025
0.000235275
0.0217661
0.000209898
0.0217333
0.000186857
0.0217037
0.000165923
0.021677
0.00014695
0.0216529
0.000129916
0.0216312
0.000114854
0.0216116
0.000101869
0.0215938
9.10666e-05
0.0215777
8.25485e-05
0.021563
7.62812e-05
0.0215496
7.21401e-05
0.0215373
6.98165e-05
0.021526
6.89711e-05
0.0215157
6.90747e-05
0.0215063
6.96448e-05
0.0214978
7.0131e-05
0.0214903
7.01945e-05
0.0214838
6.94338e-05
0.0214783
6.76328e-05
0.021474
6.46107e-05
0.0214707
6.03272e-05
0.0214687
5.48442e-05
0.0214679
4.8177e-05
0.0214684
4.04193e-05
0.0214701
3.17081e-05
0.0214732
2.20708e-05
0.0214774
1.18207e-05
0.021483
1.11393e-06
0.0214897
-9.92472e-06
0.0214975
-2.11774e-05
0.0215064
-3.25079e-05
0.0215164
-4.39415e-05
0.0215272
-5.52152e-05
0.021539
-6.61617e-05
0.0215515
-7.69374e-05
0.0215648
-8.71161e-05
0.0215786
-9.69961e-05
0.021593
-0.00010607
0.0216079
-0.000114544
0.021623
-0.000122189
0.0216385
-0.000129125
0.0216542
-0.00013514
0.0216699
-0.000140321
0.0216857
-0.000144507
0.0217014
-0.000147843
0.021717
-0.000150202
0.0217324
-0.000151666
0.0217474
-0.000151734
0.021762
-0.000149247
-7.41882e-05
0.025668
0.00405883
0.0257411
0.00235909
0.025792
0.00223841
0.0258318
0.00208235
0.025858
0.00196046
0.0258665
0.00185601
0.0258526
0.00175414
0.0258122
0.00164945
0.0257435
0.00153871
0.0256497
0.00142115
0.0255378
0.00129914
0.0254163
0.00117709
0.0252923
0.00105955
0.0251711
0.000949845
0.0250558
0.000849723
0.0249481
0.000759626
0.0248485
0.000679192
0.0247571
0.000607647
0.0246736
0.000544063
0.0245974
0.0004875
0.0245281
0.00043708
0.0244652
0.000392008
0.024408
0.000351584
0.0243561
0.000315204
0.024309
0.000282346
0.0242664
0.000252566
0.0242277
0.00022551
0.0241927
0.000200917
0.024161
0.000178616
0.0241324
0.000158563
0.0241065
0.000140773
0.024083
0.000125331
0.0240618
0.000112323
0.0240425
0.00010183
0.024025
9.3791e-05
0.024009
8.80538e-05
0.0239946
8.42752e-05
0.0239815
8.20835e-05
0.0239696
8.09144e-05
0.023959
8.02562e-05
0.0239496
7.95299e-05
0.0239414
7.83784e-05
0.0239345
7.63834e-05
0.0239288
7.33212e-05
0.0239244
6.90084e-05
0.0239213
6.3405e-05
0.0239196
5.65815e-05
0.0239192
4.85577e-05
0.0239202
3.94378e-05
0.0239225
2.93651e-05
0.0239262
1.8375e-05
0.0239312
6.802e-06
0.0239375
-5.16657e-06
0.023945
-1.74013e-05
0.0239536
-2.97892e-05
0.0239633
-4.21892e-05
0.0239739
-5.46199e-05
0.0239855
-6.68124e-05
0.023998
-7.85893e-05
0.0240111
-9.01156e-05
0.024025
-0.000100945
0.0240394
-0.000111397
0.0240542
-0.000120941
0.0240695
-0.000129802
0.024085
-0.000137741
0.0241008
-0.000144889
0.0241167
-0.000151025
0.0241326
-0.000156251
0.0241485
-0.000160403
0.0241643
-0.000163636
0.02418
-0.000165821
0.0241954
-0.000167051
0.0242104
-0.000166786
0.0242249
-0.000163756
-8.13594e-05
0.02821
0.00392004
0.0282946
0.00227448
0.0283577
0.00217531
0.0284114
0.00202872
0.0284545
0.00191736
0.0284846
0.00182582
0.028499
0.00173975
0.0284939
0.00165457
0.0284658
0.00156685
0.0284129
0.00147399
0.0283369
0.00137516
0.0282424
0.00127159
0.0281359
0.00116607
0.0280237
0.00106203
0.027911
0.000962457
0.0278012
0.000869359
0.0276967
0.000783741
0.0275985
0.00070584
0.0275072
0.000635401
0.0274227
0.000571912
0.0273451
0.000514743
0.0272738
0.000463241
0.0272087
0.000416772
0.0271491
0.00037476
0.0270948
0.000336681
0.0270452
0.000302081
0.0270002
0.000270586
0.0269592
0.000241915
0.0269219
0.000215876
0.0268881
0.000192404
0.0268574
0.000171495
0.0268295
0.000153213
0.0268042
0.000137623
0.0267812
0.000124779
0.0267604
0.000114596
0.0267416
0.000106889
0.0267246
0.000101286
0.0267093
9.73858e-05
0.0266956
9.45938e-05
0.0266835
9.23736e-05
0.0266729
9.01234e-05
0.0266638
8.74697e-05
0.0266562
8.39811e-05
0.0266501
7.94269e-05
0.0266455
7.36214e-05
0.0266423
6.65251e-05
0.0266407
5.8214e-05
0.0266405
4.87121e-05
0.0266418
3.81319e-05
0.0266446
2.66197e-05
0.0266487
1.42169e-05
0.0266543
1.28503e-06
0.0266611
-1.19611e-05
0.026669
-2.53991e-05
0.0266782
-3.89161e-05
0.0266884
-5.23671e-05
0.0266995
-6.57637e-05
0.0267115
-7.88345e-05
0.0267243
-9.13959e-05
0.0267378
-0.000103617
0.0267519
-0.000115043
0.0267665
-0.000126002
0.0267815
-0.000135956
0.0267969
-0.00014514
0.0268124
-0.000153312
0.0268282
-0.000160611
0.026844
-0.000166815
0.0268597
-0.000172034
0.0268755
-0.000176105
0.026891
-0.000179193
0.0269064
-0.000181173
0.0269215
-0.000182138
0.0269362
-0.000181523
0.0269504
-0.000177938
-8.84155e-05
0.0310025
0.00376437
0.0310986
0.00217833
0.0311738
0.00210012
0.0312404
0.00196216
0.0312982
0.00185951
0.0313461
0.00177799
0.0313824
0.00170341
0.0314049
0.00163208
0.0314106
0.00156114
0.0313966
0.00148794
0.0313612
0.00141063
0.0313045
0.00132831
0.0312292
0.00124132
0.03114
0.00115123
0.0310421
0.00106038
0.0309402
0.000971214
0.0308382
0.000885745
0.0307387
0.000805321
0.0306435
0.000730645
0.0305535
0.000661924
0.0304692
0.000599037
0.0303908
0.000541662
0.0303182
0.00048938
0.0302512
0.000441746
0.0301896
0.00039831
0.030133
0.000358655
0.0300811
0.000322425
0.0300337
0.000289343
0.0299904
0.00025921
0.0299508
0.000231953
0.0299148
0.00020755
0.0298819
0.000186048
0.0298521
0.000167489
0.0298249
0.000151904
0.0298004
0.000139178
0.0297781
0.000129103
0.0297582
0.000121278
0.0297403
0.000115277
0.0297244
0.000110483
0.0297104
0.00010634
0.0296983
0.000102229
0.029688
9.77651e-05
0.0296795
9.25059e-05
0.0296727
8.62156e-05