/*--------------------------------*- C++ -*----------------------------------*\
  =========                 |
  \\      /  F ield         | OpenFOAM: The Open Source CFD Toolbox
   \\    /   O peration     | Website:  https://openfoam.org
    \\  /    A nd           | Version:  7
     \\/     M anipulation  |
\*---------------------------------------------------------------------------*/
FoamFile
{
    version     2.0;
    format      ascii;
    class       volVectorField;
    location    "450";
    object      U;
}
// * * * * * * * * * * * * * * * * * * * * * * * * * * * * * * * * * * * * * //

dimensions      [0 1 -1 0 0 0 0];

internalField   nonuniform List<vector> 
4500
(
(15.4058 -0.778201 0)
(13.7077 -0.0619025 0)
(13.0325 -0.00325615 0)
(12.6708 0.00046499 0)
(12.4331 0.00050143 0)
(12.2594 0.000386177 0)
(12.125 0.000303744 0)
(12.0172 0.000246404 0)
(11.9286 0.000204499 0)
(11.8542 0.000172559 0)
(11.7911 0.000147435 0)
(11.7368 0.000127187 0)
(11.6898 0.000110545 0)
(11.6488 9.66456e-05 0)
(11.6128 8.48794e-05 0)
(11.5812 7.48035e-05 0)
(11.5533 6.60891e-05 0)
(11.5286 5.84871e-05 0)
(11.5067 5.18046e-05 0)
(11.4874 4.58923e-05 0)
(11.4702 4.0627e-05 0)
(11.455 3.59144e-05 0)
(11.4416 3.16682e-05 0)
(11.4298 2.78253e-05 0)
(11.4194 2.43181e-05 0)
(11.4104 2.10925e-05 0)
(11.4027 1.80917e-05 0)
(11.396 1.52715e-05 0)
(11.3905 1.25823e-05 0)
(11.386 1.00511e-05 0)
(11.3825 7.67838e-06 0)
(11.3798 5.51508e-06 0)
(11.3779 3.60872e-06 0)
(11.3766 2.12157e-06 0)
(11.3756 1.11043e-06 0)
(11.3749 6.76474e-07 0)
(11.3741 7.76314e-07 0)
(11.373 1.55678e-06 0)
(11.3714 2.86744e-06 0)
(11.3691 4.66473e-06 0)
(11.366 6.67127e-06 0)
(11.362 8.98873e-06 0)
(11.3571 1.13538e-05 0)
(11.3513 1.36815e-05 0)
(11.3448 1.57542e-05 0)
(11.3376 1.75427e-05 0)
(11.3299 1.91208e-05 0)
(11.3217 2.03562e-05 0)
(11.3134 2.11936e-05 0)
(11.3049 2.17041e-05 0)
(11.2966 2.15696e-05 0)
(11.2884 2.1209e-05 0)
(11.2806 2.06343e-05 0)
(11.2733 1.97604e-05 0)
(11.2665 1.85358e-05 0)
(11.2605 1.71138e-05 0)
(11.2552 1.51321e-05 0)
(11.2508 1.3028e-05 0)
(11.2474 1.10044e-05 0)
(11.245 8.4082e-06 0)
(11.2437 5.9985e-06 0)
(11.2434 3.00921e-06 0)
(11.2443 3.90216e-07 0)
(11.2464 -2.38026e-06 0)
(11.2495 -4.96439e-06 0)
(11.2538 -7.75565e-06 0)
(11.2591 -1.03893e-05 0)
(11.2654 -1.30394e-05 0)
(11.2727 -1.53692e-05 0)
(11.2809 -1.7739e-05 0)
(11.2899 -1.98506e-05 0)
(11.2997 -2.1944e-05 0)
(11.3101 -2.35539e-05 0)
(11.321 -2.4529e-05 0)
(11.332 -1.29643e-05 0)
(17.5879 0.16307 0)
(16.0152 0.0238108 0)
(15.1976 0.00458796 0)
(14.7348 0.00198899 0)
(14.4341 0.00129709 0)
(14.2183 0.000960549 0)
(14.0538 0.000751469 0)
(13.9232 0.000608021 0)
(13.8165 0.000503607 0)
(13.7275 0.000424282 0)
(13.6522 0.000362065 0)
(13.5878 0.000312043 0)
(13.532 0.000271016 0)
(13.4835 0.000236809 0)
(13.441 0.000207893 0)
(13.4037 0.000183162 0)
(13.3708 0.000161795 0)
(13.3416 0.000143173 0)
(13.3158 0.000126815 0)
(13.293 0.000112351 0)
(13.2728 9.94811e-05 0)
(13.2548 8.79624e-05 0)
(13.239 7.759e-05 0)
(13.225 6.81993e-05 0)
(13.2128 5.96316e-05 0)
(13.2021 5.17457e-05 0)
(13.1928 4.44131e-05 0)
(13.1849 3.7534e-05 0)
(13.1782 3.10176e-05 0)
(13.1728 2.49172e-05 0)
(13.1684 1.92698e-05 0)
(13.165 1.42207e-05 0)
(13.1625 9.93028e-06 0)
(13.1606 6.72594e-06 0)
(13.1592 4.76234e-06 0)
(13.1579 4.22933e-06 0)
(13.1564 5.06093e-06 0)
(13.1546 7.41266e-06 0)
(13.1522 1.09592e-05 0)
(13.149 1.55127e-05 0)
(13.1448 2.05324e-05 0)
(13.1397 2.60237e-05 0)
(13.1335 3.14657e-05 0)
(13.1265 3.66379e-05 0)
(13.1186 4.1148e-05 0)
(13.1101 4.49036e-05 0)
(13.101 4.79729e-05 0)
(13.0916 5.01449e-05 0)
(13.0821 5.13476e-05 0)
(13.0725 5.16918e-05 0)
(13.0632 5.07473e-05 0)
(13.0542 4.91503e-05 0)
(13.0457 4.69178e-05 0)
(13.0379 4.39602e-05 0)
(13.0308 4.02404e-05 0)
(13.0247 3.60041e-05 0)
(13.0195 3.07633e-05 0)
(13.0154 2.51867e-05 0)
(13.0125 1.95693e-05 0)
(13.0108 1.30347e-05 0)
(13.0104 6.73335e-06 0)
(13.0113 -4.50871e-07 0)
(13.0135 -7.06774e-06 0)
(13.017 -1.3895e-05 0)
(13.0217 -2.03788e-05 0)
(13.0278 -2.70575e-05 0)
(13.035 -3.33465e-05 0)
(13.0433 -3.95082e-05 0)
(13.0527 -4.50243e-05 0)
(13.0631 -5.04011e-05 0)
(13.0744 -5.51765e-05 0)
(13.0865 -5.96906e-05 0)
(13.0992 -6.31716e-05 0)
(13.1124 -6.51408e-05 0)
(13.1257 -3.33426e-05 0)
(18.7449 0.0973745 0)
(17.3725 0.0156216 0)
(16.4743 0.00605636 0)
(15.9331 0.00350033 0)
(15.5795 0.00236975 0)
(15.3279 0.00174957 0)
(15.138 0.00136082 0)
(14.9886 0.00109591 0)
(14.8673 0.000904525 0)
(14.7668 0.000760049 0)
(14.6821 0.000647306 0)
(14.6098 0.000557033 0)
(14.5474 0.00048324 0)
(14.4932 0.00042188 0)
(14.4459 0.000370131 0)
(14.4043 0.000325956 0)
(14.3676 0.000287853 0)
(14.3353 0.000254692 0)
(14.3066 0.0002256 0)
(14.2812 0.000199903 0)
(14.2586 0.000177058 0)
(14.2387 0.000156629 0)
(14.221 0.000138246 0)
(14.2054 0.00012161 0)
(14.1917 0.000106438 0)
(14.1797 9.24815e-05 0)
(14.1693 7.95174e-05 0)
(14.1604 6.73788e-05 0)
(14.1528 5.59332e-05 0)
(14.1465 4.52692e-05 0)
(14.1414 3.54843e-05 0)
(14.1374 2.68479e-05 0)
(14.1342 1.96655e-05 0)
(14.1317 1.44614e-05 0)
(14.1296 1.15033e-05 0)
(14.1276 1.10683e-05 0)
(14.1255 1.30403e-05 0)
(14.1229 1.75486e-05 0)
(14.1197 2.40344e-05 0)
(14.1156 3.21043e-05 0)
(14.1105 4.08839e-05 0)
(14.1045 5.02359e-05 0)
(14.0974 5.93336e-05 0)
(14.0895 6.77868e-05 0)
(14.0809 7.50001e-05 0)
(14.0716 8.08088e-05 0)
(14.0619 8.52799e-05 0)
(14.052 8.81273e-05 0)
(14.042 8.92666e-05 0)
(14.0322 8.88623e-05 0)
(14.0228 8.63706e-05 0)
(14.0138 8.26771e-05 0)
(14.0055 7.78274e-05 0)
(13.998 7.17386e-05 0)
(13.9915 6.43973e-05 0)
(13.986 5.61605e-05 0)
(13.9816 4.64082e-05 0)
(13.9784 3.60683e-05 0)
(13.9766 2.55645e-05 0)
(13.9761 1.38016e-05 0)
(13.9769 2.36657e-06 0)
(13.9792 -1.02367e-05 0)
(13.9829 -2.20319e-05 0)
(13.9879 -3.40299e-05 0)
(13.9943 -4.5446e-05 0)
(14.0019 -5.69673e-05 0)
(14.0108 -6.77803e-05 0)
(14.0209 -7.82217e-05 0)
(14.032 -8.75807e-05 0)
(14.0441 -9.65172e-05 0)
(14.057 -0.000104404 0)
(14.0707 -0.000111674 0)
(14.0851 -0.000117209 0)
(14.0999 -0.000120087 0)
(14.1147 -6.09857e-05 0)
(19.3754 0.0462247 0)
(18.326 0.0150409 0)
(17.4307 0.00910101 0)
(16.8356 0.00564414 0)
(16.435 0.00383709 0)
(16.1491 0.00281757 0)
(15.9342 0.00217867 0)
(15.7661 0.00174595 0)
(15.6305 0.00143548 0)
(15.5186 0.00120258 0)
(15.4247 0.0010218 0)
(15.3447 0.00087771 0)
(15.276 0.000760363 0)
(15.2164 0.000663098 0)
(15.1644 0.000581288 0)
(15.1188 0.000511612 0)
(15.0786 0.000451634 0)
(15.0431 0.000399524 0)
(15.0117 0.000353879 0)
(14.9839 0.000313612 0)
(14.9592 0.000277858 0)
(14.9373 0.000245917 0)
(14.9179 0.000217202 0)
(14.9007 0.000191237 0)
(14.8856 0.000167579 0)
(14.8724 0.000145837 0)
(14.8609 0.000125674 0)
(14.8509 0.00010684 0)
(14.8424 8.916e-05 0)
(14.8353 7.27622e-05 0)
(14.8294 5.78255e-05 0)
(14.8246 4.47718e-05 0)
(14.8207 3.40856e-05 0)
(14.8174 2.65057e-05 0)
(14.8146 2.24293e-05 0)
(14.8118 2.22119e-05 0)
(14.8089 2.56699e-05 0)
(14.8055 3.28418e-05 0)
(14.8014 4.28868e-05 0)
(14.7964 5.51347e-05 0)
(14.7906 6.83299e-05 0)
(14.7838 8.21078e-05 0)
(14.776 9.53048e-05 0)
(14.7675 0.000107325 0)
(14.7584 0.000117363 0)
(14.7487 0.000125166 0)
(14.7388 0.000130788 0)
(14.7288 0.000133884 0)
(14.719 0.000134375 0)
(14.7094 0.000132483 0)
(14.7004 0.000127605 0)
(14.692 0.000120844 0)
(14.6844 0.000112296 0)
(14.6777 0.000101914 0)
(14.6721 8.97327e-05 0)
(14.6677 7.62194e-05 0)
(14.6646 6.06794e-05 0)
(14.6627 4.427e-05 0)
(14.6623 2.7551e-05 0)
(14.6633 9.29308e-06 0)
(14.6657 -8.55428e-06 0)
(14.6695 -2.77709e-05 0)
(14.6748 -4.59263e-05 0)
(14.6814 -6.42001e-05 0)
(14.6894 -8.15975e-05 0)
(14.6987 -9.88998e-05 0)
(14.7092 -0.000115088 0)
(14.7209 -0.000130551 0)
(14.7335 -0.000144411 0)
(14.7471 -0.000157436 0)
(14.7615 -0.000168859 0)
(14.7765 -0.000179175 0)
(14.7922 -0.000186918 0)
(14.8081 -0.000190619 0)
(14.8241 -9.63701e-05 0)
(19.693 0.0456702 0)
(18.9995 0.0202329 0)
(18.1918 0.0128969 0)
(17.577 0.00823931 0)
(17.1407 0.00564736 0)
(16.8239 0.00414117 0)
(16.5849 0.00318982 0)
(16.3982 0.00254609 0)
(16.2481 0.00208608 0)
(16.1247 0.00174263 0)
(16.0214 0.00147727 0)
(15.9337 0.00126663 0)
(15.8585 0.0010957 0)
(15.7934 0.00095447 0)
(15.7367 0.000836002 0)
(15.687 0.000735345 0)
(15.6433 0.000648877 0)
(15.6047 0.000573889 0)
(15.5705 0.00050831 0)
(15.5402 0.000450539 0)
(15.5133 0.000399309 0)
(15.4895 0.000353594 0)
(15.4684 0.00031254 0)
(15.4496 0.000275453 0)
(15.4331 0.000241697 0)
(15.4186 0.000210718 0)
(15.4059 0.000182044 0)
(15.3949 0.000155338 0)
(15.3854 0.000130379 0)
(15.3774 0.000107342 0)
(15.3706 8.65015e-05 0)
(15.365 6.84472e-05 0)
(15.3603 5.3855e-05 0)
(15.3562 4.36757e-05 0)
(15.3525 3.84273e-05 0)
(15.349 3.85171e-05 0)
(15.3452 4.36611e-05 0)
(15.3409 5.37494e-05 0)
(15.336 6.76144e-05 0)
(15.3304 8.42577e-05 0)
(15.3238 0.000102013 0)
(15.3164 0.00012024 0)
(15.3082 0.000137427 0)
(15.2993 0.000152762 0)
(15.29 0.00016524 0)
(15.2803 0.000174523 0)
(15.2705 0.000180652 0)
(15.2608 0.000183247 0)
(15.2514 0.000182252 0)
(15.2425 0.000177957 0)
(15.2342 0.00016974 0)
(15.2267 0.000158907 0)
(15.2201 0.000145623 0)
(15.2146 0.000129897 0)
(15.2103 0.000111832 0)
(15.2072 9.20023e-05 0)
(15.2055 6.96804e-05 0)
(15.2051 4.62432e-05 0)
(15.2062 2.23922e-05 0)
(15.2088 -3.19407e-06 0)
(15.2128 -2.82625e-05 0)
(15.2182 -5.48057e-05 0)
(15.2251 -7.99903e-05 0)
(15.2333 -0.000105122 0)
(15.2429 -0.000129017 0)
(15.2536 -0.000152516 0)
(15.2656 -0.000174419 0)
(15.2786 -0.000195149 0)
(15.2925 -0.000213685 0)
(15.3073 -0.000230877 0)
(15.3229 -0.00024584 0)
(15.339 -0.000259109 0)
(15.3556 -0.000268875 0)
(15.3724 -0.000273039 0)
(15.3891 -0.000137561 0)
(19.8488 0.0504549 0)
(19.4507 0.0244881 0)
(18.7997 0.016652 0)
(18.2081 0.0111579 0)
(17.7532 0.007791 0)
(17.4116 0.00573675 0)
(17.1505 0.00441439 0)
(16.9458 0.00351467 0)
(16.7812 0.00287186 0)
(16.6461 0.00239313 0)
(16.5332 0.00202448 0)
(16.4376 0.00173281 0)
(16.3557 0.00149689 0)
(16.2849 0.00130252 0)
(16.2233 0.00113989 0)
(16.1694 0.00100204 0)
(16.122 0.000883857 0)
(16.0802 0.000781556 0)
(16.0431 0.000692237 0)
(16.0103 0.000613668 0)
(15.9812 0.000544088 0)
(15.9553 0.00048207 0)
(15.9323 0.00042644 0)
(15.9119 0.000376239 0)
(15.8939 0.000330605 0)
(15.878 0.000288789 0)
(15.8641 0.000250171 0)
(15.852 0.000214314 0)
(15.8415 0.000180955 0)
(15.8324 0.000150319 0)
(15.8248 0.000122786 0)
(15.8182 9.91214e-05 0)
(15.8127 8.01951e-05 0)
(15.8077 6.71571e-05 0)
(15.8032 6.06254e-05 0)
(15.7988 6.10226e-05 0)
(15.7942 6.79224e-05 0)
(15.7891 8.10102e-05 0)
(15.7835 9.87464e-05 0)
(15.7772 0.000119761 0)
(15.7701 0.000141949 0)
(15.7623 0.000164365 0)
(15.7539 0.000185147 0)
(15.7449 0.000203264 0)
(15.7356 0.000217526 0)
(15.7262 0.000227519 0)
(15.7168 0.000233287 0)
(15.7077 0.000234434 0)
(15.699 0.000230946 0)
(15.6909 0.000223196 0)
(15.6836 0.000210572 0)
(15.6772 0.000194584 0)
(15.6719 0.000175478 0)
(15.6677 0.000153341 0)
(15.6648 0.000128356 0)
(15.6632 0.000101208 0)
(15.663 7.11672e-05 0)
(15.6642 3.98346e-05 0)
(15.6669 8.05567e-06 0)
(15.671 -2.55796e-05 0)
(15.6765 -5.85354e-05 0)
(15.6835 -9.29758e-05 0)
(15.6918 -0.000125689 0)
(15.7014 -0.00015809 0)
(15.7124 -0.000188813 0)
(15.7244 -0.000218746 0)
(15.7376 -0.000246517 0)
(15.7517 -0.000272583 0)
(15.7667 -0.000295789 0)
(15.7825 -0.000317056 0)
(15.7989 -0.000335396 0)
(15.8158 -0.000351374 0)
(15.833 -0.000362831 0)
(15.8504 -0.000366956 0)
(15.8676 -0.000184332 0)
(19.929 0.0521809 0)
(19.7286 0.0270124 0)
(19.2674 0.0200258 0)
(18.7457 0.0142434 0)
(18.2961 0.0102331 0)
(17.9397 0.00761459 0)
(17.6607 0.00587475 0)
(17.4395 0.00467512 0)
(17.2609 0.0038141 0)
(17.114 0.00317259 0)
(16.9914 0.00267928 0)
(16.8876 0.00228985 0)
(16.7988 0.00197561 0)
(16.7221 0.00171734 0)
(16.6554 0.00150174 0)
(16.597 0.00131937 0)
(16.5458 0.00116334 0)
(16.5005 0.00102851 0)
(16.4605 0.000910974 0)
(16.4249 0.000807738 0)
(16.3934 0.000716434 0)
(16.3654 0.000635154 0)
(16.3405 0.000562332 0)
(16.3183 0.000496691 0)
(16.2987 0.000437102 0)
(16.2814 0.000382592 0)
(16.2662 0.000332371 0)
(16.2528 0.000285891 0)
(16.2412 0.000242843 0)
(16.2311 0.000203502 0)
(16.2224 0.000168362 0)
(16.2149 0.000138359 0)
(16.2084 0.000114555 0)
(16.2026 9.82767e-05 0)
(16.1972 9.02134e-05 0)
(16.1919 9.07615e-05 0)
(16.1865 9.93062e-05 0)
(16.1808 0.000115275 0)
(16.1745 0.000136713 0)
(16.1677 0.00016184 0)
(16.1602 0.000188093 0)
(16.1522 0.000214199 0)
(16.1437 0.000237946 0)
(16.1348 0.000258093 0)
(16.1259 0.000273278 0)
(16.1169 0.00028303 0)
(16.1081 0.000287407 0)
(16.0998 0.000286019 0)
(16.092 0.000278913 0)
(16.0849 0.000266563 0)
(16.0788 0.000248389 0)
(16.0737 0.000226111 0)
(16.0697 0.000200074 0)
(16.067 0.000170455 0)
(16.0655 0.000137527 0)
(16.0654 0.000102093 0)
(16.0667 6.34514e-05 0)
(16.0695 2.34326e-05 0)
(16.0736 -1.69895e-05 0)
(16.0792 -5.93142e-05 0)
(16.0862 -0.000100724 0)
(16.0945 -0.000143526 0)
(16.1041 -0.000184152 0)
(16.115 -0.000224116 0)
(16.1271 -0.000261875 0)
(16.1402 -0.000298359 0)
(16.1544 -0.000332035 0)
(16.1694 -0.000363388 0)
(16.1852 -0.000391144 0)
(16.2016 -0.000416287 0)
(16.2185 -0.000437737 0)
(16.2359 -0.000456085 0)
(16.2535 -0.000468815 0)
(16.2712 -0.000472312 0)
(16.2886 -0.000236663 0)
(19.9739 0.052718 0)
(19.8889 0.0285834 0)
(19.6025 0.0227995 0)
(19.1903 0.0172661 0)
(18.776 0.0128803 0)
(18.4202 0.00975677 0)
(18.1302 0.00758162 0)
(17.8955 0.00604682 0)
(17.7042 0.0049334 0)
(17.546 0.00410026 0)
(17.4137 0.00345889 0)
(17.3016 0.00295286 0)
(17.2056 0.00254508 0)
(17.1228 0.00221049 0)
(17.0508 0.00193169 0)
(16.9878 0.00169628 0)
(16.9324 0.00149521 0)
(16.8836 0.00132174 0)
(16.8404 0.00117076 0)
(16.802 0.00103833 0)
(16.7679 0.000921356 0)
(16.7376 0.00081735 0)
(16.7106 0.000724278 0)
(16.6866 0.000640484 0)
(16.6653 0.000564521 0)
(16.6464 0.000495159 0)
(16.6297 0.00043141 0)
(16.6151 0.0003726 0)
(16.6022 0.000318368 0)
(16.591 0.000269034 0)
(16.5813 0.000225198 0)
(16.5728 0.000187967 0)
(16.5652 0.000158572 0)
(16.5585 0.000138495 0)
(16.5522 0.000128456 0)
(16.5461 0.000128782 0)
(16.5399 0.000138625 0)
(16.5335 0.000157105 0)
(16.5268 0.000181814 0)
(16.5195 0.000210532 0)
(16.5118 0.00024022 0)
(16.5038 0.000269269 0)
(16.4954 0.000295122 0)
(16.4868 0.000316336 0)
(16.4783 0.0003314 0)
(16.4699 0.000339797 0)
(16.4619 0.000341619 0)
(16.4545 0.0003365 0)
(16.4478 0.00032457 0)
(16.4419 0.000306416 0)
(16.437 0.000281512 0)
(16.4332 0.000251795 0)
(16.4307 0.000217725 0)
(16.4293 0.000179578 0)
(16.4293 0.000137729 0)
(16.4307 9.31097e-05 0)
(16.4335 4.5078e-05 0)
(16.4376 -4.31763e-06 0)
(16.4432 -5.40026e-05 0)
(16.4501 -0.000105554 0)
(16.4583 -0.000155862 0)
(16.4679 -0.000207367 0)
(16.4786 -0.000256161 0)
(16.4905 -0.00030385 0)
(16.5035 -0.000348726 0)
(16.5175 -0.000391754 0)
(16.5323 -0.000431248 0)
(16.5479 -0.000467724 0)
(16.5642 -0.000499799 0)
(16.581 -0.00052852 0)
(16.5983 -0.000552721 0)
(16.6159 -0.00057302 0)
(16.6336 -0.000586535 0)
(16.6513 -0.000588756 0)
(16.6687 -0.000294357 0)
(20.0011 0.0528694 0)
(19.9807 0.0295175 0)
(19.8226 0.0248232 0)
(19.5371 0.019951 0)
(19.1896 0.0155661 0)
(18.8549 0.0120995 0)
(18.5647 0.00952307 0)
(18.3221 0.00763897 0)
(18.1205 0.00624631 0)
(17.9523 0.0051943 0)
(17.8107 0.00438085 0)
(17.6905 0.00373795 0)
(17.5873 0.00321978 0)
(17.4983 0.00279489 0)
(17.4207 0.00244122 0)
(17.3529 0.00214297 0)
(17.2933 0.00188857 0)
(17.2407 0.00166939 0)
(17.194 0.00147887 0)
(17.1527 0.00131197 0)
(17.1159 0.00116472 0)
(17.0831 0.00103395 0)
(17.0539 0.000917065 0)
(17.0279 0.000811956 0)
(17.0048 0.000716805 0)
(16.9842 0.00063008 0)
(16.966 0.000550567 0)
(16.9499 0.000477446 0)
(16.9358 0.000410284 0)
(16.9233 0.000349441 0)
(16.9124 0.000295609 0)
(16.9028 0.000250046 0)
(16.8943 0.000214131 0)
(16.8865 0.000189463 0)
(16.8793 0.000176755 0)
(16.8724 0.00017622 0)
(16.8655 0.000186731 0)
(16.8585 0.000207059 0)
(16.8513 0.000234311 0)
(16.8438 0.000265808 0)
(16.836 0.000298027 0)
(16.828 0.000329018 0)
(16.8199 0.000355888 0)
(16.8117 0.000377006 0)
(16.8038 0.000390729 0)
(16.7962 0.000396514 0)
(16.7891 0.000394503 0)
(16.7827 0.000384372 0)
(16.7771 0.000366351 0)
(16.7724 0.000341152 0)
(16.7688 0.000308325 0)
(16.7664 0.000270029 0)
(16.7651 0.000226854 0)
(16.7652 0.000179181 0)
(16.7666 0.000127501 0)
(16.7693 7.28939e-05 0)
(16.7735 1.47967e-05 0)
(16.7789 -4.45618e-05 0)
(16.7857 -0.000104022 0)
(16.7937 -0.000165209 0)
(16.8031 -0.000224725 0)
(16.8136 -0.000285139 0)
(16.8252 -0.000342218 0)
(16.8379 -0.000397662 0)
(16.8516 -0.000449601 0)
(16.8661 -0.000499035 0)
(16.8814 -0.000544137 0)
(16.8974 -0.000585459 0)
(16.9139 -0.000621517 0)
(16.9309 -0.000653421 0)
(16.9482 -0.000679931 0)
(16.9657 -0.000701693 0)
(16.9834 -0.000715445 0)
(17.0009 -0.000715701 0)
(17.0179 -0.000357122 0)
(20.0187 0.0527445 0)
(20.0354 0.0299682 0)
(19.9582 0.026127 0)
(19.7862 0.0220655 0)
(19.5283 0.0180611 0)
(19.2388 0.0145161 0)
(18.9637 0.0116492 0)
(18.7216 0.00944108 0)
(18.5144 0.00775985 0)
(18.3385 0.00646875 0)
(18.189 0.00546134 0)
(18.0611 0.00466132 0)
(17.951 0.00401502 0)
(17.8557 0.0034846 0)
(17.7726 0.0030431 0)
(17.6999 0.00267097 0)
(17.6358 0.00235379 0)
(17.5792 0.00208078 0)
(17.5291 0.00184371 0)
(17.4845 0.00163625 0)
(17.4448 0.0014534 0)
(17.4095 0.00129119 0)
(17.3779 0.00114634 0)
(17.3498 0.00101624 0)
(17.3247 0.000898631 0)
(17.3023 0.000791625 0)
(17.2825 0.000693745 0)
(17.2649 0.000604001 0)
(17.2493 0.000521867 0)
(17.2355 0.000447719 0)
(17.2234 0.000382323 0)
(17.2126 0.00032706 0)
(17.2029 0.000283424 0)
(17.1942 0.000253089 0)
(17.186 0.000236719 0)
(17.1783 0.000234368 0)
(17.1708 0.00024459 0)
(17.1633 0.000265774 0)
(17.1557 0.000294521 0)
(17.148 0.000327678 0)
(17.1402 0.000361237 0)
(17.1323 0.000392909 0)
(17.1245 0.00041948 0)
(17.1169 0.000439144 0)
(17.1096 0.000450148 0)
(17.1028 0.000451936 0)
(17.0967 0.000444716 0)
(17.0913 0.000428224 0)
(17.0868 0.000402804 0)
(17.0834 0.000369302 0)
(17.081 0.000327365 0)
(17.0798 0.000279381 0)
(17.0799 0.000226074 0)
(17.0813 0.000167939 0)
(17.084 0.000105608 0)
(17.0879 4.03267e-05 0)
(17.0932 -2.83981e-05 0)
(17.0998 -9.82019e-05 0)
(17.1076 -0.000167829 0)
(17.1166 -0.00023893 0)
(17.1268 -0.000307826 0)
(17.1381 -0.000377218 0)
(17.1504 -0.000442563 0)
(17.1637 -0.000505654 0)
(17.1778 -0.000564471 0)
(17.1927 -0.000620051 0)
(17.2082 -0.000670436 0)
(17.2243 -0.000716218 0)
(17.2408 -0.000755825 0)
(17.2577 -0.000790432 0)
(17.2748 -0.000818736 0)
(17.2921 -0.000841414 0)
(17.3093 -0.000854817 0)
(17.3265 -0.000852396 0)
(17.343 -0.000424586 0)
(20.0306 0.0523702 0)
(20.0698 0.03007 0)
(20.0406 0.0268629 0)
(19.9512 0.0235191 0)
(19.7855 0.0201272 0)
(19.5621 0.0168135 0)
(19.3211 0.0138542 0)
(19.0917 0.0114083 0)
(18.8862 0.0094621 0)
(18.7068 0.00792766 0)
(18.5516 0.00671164 0)
(18.4174 0.00573709 0)
(18.3011 0.00494558 0)
(18.1999 0.00429407 0)
(18.1114 0.00375094 0)
(18.0336 0.00329287 0)
(17.9651 0.00290243 0)
(17.9044 0.00256648 0)
(17.8506 0.00227491 0)
(17.8027 0.00201992 0)
(17.76 0.00179536 0)
(17.7219 0.0015963 0)
(17.6879 0.00141872 0)
(17.6574 0.00125937 0)
(17.6303 0.00111551 0)
(17.606 0.000984831 0)
(17.5844 0.000865561 0)
(17.5651 0.000756496 0)
(17.548 0.000656992 0)
(17.5328 0.000567411 0)
(17.5193 0.00048856 0)
(17.5073 0.000421909 0)
(17.4965 0.000369023 0)
(17.4867 0.000331607 0)
(17.4776 0.000310231 0)
(17.4691 0.000304748 0)
(17.4609 0.000313359 0)
(17.4529 0.000334045 0)
(17.445 0.000362889 0)
(17.4371 0.000396261 0)
(17.4294 0.000429674 0)
(17.4217 0.000460506 0)
(17.4143 0.000485237 0)
(17.4073 0.000501905 0)
(17.4007 0.000508663 0)
(17.3947 0.000504956 0)
(17.3895 0.000491073 0)
(17.3852 0.000466821 0)
(17.3818 0.000432671 0)
(17.3795 0.000389612 0)
(17.3783 0.000337401 0)
(17.3783 0.000278659 0)
(17.3796 0.00021425 0)
(17.3821 0.000144799 0)
(17.3859 7.11091e-05 0)
(17.391 -5.40782e-06 0)
(17.3973 -8.52179e-05 0)
(17.4048 -0.00016584 0)
(17.4134 -0.000245894 0)
(17.4232 -0.000327051 0)
(17.434 -0.000405366 0)
(17.4459 -0.000483671 0)
(17.4586 -0.000557131 0)
(17.4722 -0.000627635 0)
(17.4865 -0.000693021 0)
(17.5015 -0.000754371 0)
(17.517 -0.000809606 0)
(17.5329 -0.000859368 0)
(17.5493 -0.000902003 0)
(17.5658 -0.000938763 0)
(17.5826 -0.000968289 0)
(17.5994 -0.000991292 0)
(17.6161 -0.00100373 0)
(17.6326 -0.00099792 0)
(17.6486 -0.000496309 0)
(20.039 0.0517789 0)
(20.0926 0.0299213 0)
(20.092 0.027188 0)
(20.0552 0.0243789 0)
(19.9649 0.0216134 0)
(19.8158 0.0187666 0)
(19.6268 0.0159671 0)
(19.4257 0.0134437 0)
(19.2323 0.0113079 0)
(19.0559 0.00955549 0)
(18.899 0.0081319 0)
(18.761 0.00697327 0)
(18.6398 0.00602317 0)
(18.5336 0.0052364 0)
(18.4401 0.0045781 0)
(18.3576 0.00402165 0)
(18.2847 0.00354679 0)
(18.22 0.00313796 0)
(18.1624 0.00278309 0)
(18.1111 0.00247279 0)
(18.0653 0.00219961 0)
(18.0243 0.00195756 0)
(17.9877 0.00174178 0)
(17.9548 0.00154832 0)
(17.9254 0.00137383 0)
(17.8991 0.00121558 0)
(17.8756 0.00107142 0)
(17.8546 0.000939897 0)
(17.8359 0.000820216 0)
(17.8191 0.000712683 0)
(17.8042 0.00061811 0)
(17.7909 0.000538006 0)
(17.7789 0.000473962 0)
(17.768 0.000427663 0)
(17.7579 0.000399536 0)
(17.7486 0.000389198 0)
(17.7397 0.000394474 0)
(17.7312 0.000412917 0)
(17.723 0.000440089 0)
(17.715 0.000471888 0)
(17.7073 0.000503361 0)
(17.6999 0.000531569 0)
(17.693 0.000552699 0)
(17.6865 0.000564649 0)
(17.6806 0.000565494 0)
(17.6754 0.000554695 0)
(17.6711 0.000532629 0)
(17.6677 0.000499184 0)
(17.6654 0.000454967 0)
(17.6641 0.000401114 0)
(17.664 0.000337507 0)
(17.6651 0.000266992 0)
(17.6674 0.000190583 0)
(17.6709 0.000109064 0)
(17.6756 2.34386e-05 0)
(17.6816 -6.47641e-05 0)
(17.6886 -0.000156016 0)
(17.6969 -0.000247705 0)
(17.7061 -0.000338315 0)
(17.7164 -0.00042954 0)
(17.7277 -0.000517182 0)
(17.7398 -0.000604208 0)
(17.7528 -0.000685507 0)
(17.7664 -0.000763071 0)
(17.7807 -0.000834608 0)
(17.7956 -0.00090125 0)
(17.8109 -0.00096081 0)
(17.8265 -0.00101399 0)
(17.8424 -0.00105907 0)
(17.8585 -0.00109737 0)
(17.8746 -0.00112751 0)
(17.8908 -0.00115022 0)
(17.9068 -0.00116108 0)
(17.9226 -0.00115118 0)
(17.9378 -0.000571759 0)
(20.0449 0.0509937 0)
(20.1082 0.029581 0)
(20.1254 0.0272183 0)
(20.1206 0.0247808 0)
(20.0821 0.0225188 0)
(19.9986 0.0202042 0)
(19.8707 0.0177773 0)
(19.7131 0.0153876 0)
(19.5451 0.0132012 0)
(19.3812 0.0113027 0)
(19.2289 0.00970101 0)
(19.0909 0.00836499 0)
(18.9675 0.00725182 0)
(18.8578 0.00632036 0)
(18.7603 0.0055356 0)
(18.6738 0.00486927 0)
(18.5968 0.00429895 0)
(18.5283 0.003807 0)
(18.4671 0.0033795 0)
(18.4124 0.00300545 0)
(18.3634 0.00267605 0)
(18.3195 0.00238421 0)
(18.2801 0.00212409 0)
(18.2448 0.00189099 0)
(18.2131 0.00168093 0)
(18.1846 0.00149064 0)
(18.1591 0.00131757 0)
(18.1362 0.00115997 0)
(18.1158 0.00101684 0)
(18.0974 0.000888404 0)
(18.081 0.00077541 0)
(18.0663 0.000679363 0)
(18.053 0.000601821 0)
(18.041 0.000544396 0)
(18.0299 0.000507333 0)
(18.0197 0.000489974 0)
(18.0102 0.000489751 0)
(18.0011 0.000503784 0)
(17.9926 0.00052712 0)
(17.9845 0.000555201 0)
(17.9769 0.000582628 0)
(17.9697 0.000606154 0)
(17.9631 0.000621701 0)
(17.9572 0.000627036 0)
(17.9519 0.000620173 0)
(17.9475 0.000600594 0)
(17.944 0.000568774 0)
(17.9415 0.000524686 0)
(17.94 0.000469075 0)
(17.9396 0.000403226 0)
(17.9404 0.00032715 0)
(17.9424 0.00024391 0)
(17.9455 0.000154693 0)
(17.9499 6.04862e-05 0)
(17.9554 -3.75244e-05 0)
(17.9619 -0.000137764 0)
(17.9696 -0.000240703 0)
(17.9783 -0.000343579 0)
(17.988 -0.000444743 0)
(17.9986 -0.000545923 0)
(18.01 -0.000642675 0)
(18.0222 -0.000738112 0)
(18.0351 -0.000826861 0)
(18.0487 -0.000911031 0)
(18.0627 -0.000988204 0)
(18.0772 -0.00105958 0)
(18.0921 -0.00112286 0)
(18.1072 -0.00117883 0)
(18.1225 -0.00122571 0)
(18.1379 -0.00126493 0)
(18.1533 -0.00129503 0)
(18.1686 -0.00131684 0)
(18.1838 -0.0013255 0)
(18.1987 -0.00131086 0)
(18.213 -0.000650311 0)
(20.0492 0.0500256 0)
(20.1193 0.0290806 0)
(20.1481 0.0270286 0)
(20.1628 0.0248477 0)
(20.1569 0.0229464 0)
(20.1211 0.0210868 0)
(20.0495 0.0191112 0)
(19.9437 0.0170398 0)
(19.8141 0.0149855 0)
(19.6744 0.0130688 0)
(19.5354 0.0113618 0)
(19.4037 0.00988347 0)
(19.2821 0.00862017 0)
(19.1717 0.00754489 0)
(19.0721 0.00662841 0)
(18.9827 0.00584401 0)
(18.9025 0.00516892 0)
(18.8306 0.00458437 0)
(18.7661 0.00407507 0)
(18.7082 0.00362864 0)
(18.6562 0.00323505 0)
(18.6094 0.00288608 0)
(18.5673 0.00257496 0)
(18.5295 0.00229614 0)
(18.4954 0.00204498 0)
(18.4647 0.00181763 0)
(18.4371 0.0016111 0)
(18.4123 0.00142329 0)
(18.39 0.00125297 0)
(18.37 0.00110019 0)
(18.352 0.000965608 0)
(18.3358 0.000850657 0)
(18.3212 0.000756805 0)
(18.3079 0.000685537 0)
(18.2958 0.000636869 0)
(18.2847 0.000609846 0)
(18.2744 0.000601494 0)
(18.2649 0.000608504 0)
(18.256 0.000625428 0)
(18.2478 0.000647271 0)
(18.2401 0.000668216 0)
(18.2331 0.000684731 0)
(18.2269 0.000692488 0)
(18.2214 0.000689139 0)
(18.2167 0.000672649 0)
(18.2129 0.000642523 0)
(18.2101 0.000599336 0)
(18.2083 0.000543147 0)
(18.2076 0.000474841 0)
(18.2079 0.000395844 0)
(18.2095 0.000306288 0)
(18.2121 0.000209446 0)
(18.2159 0.000106734 0)
(18.2208 -6.39806e-07 0)
(18.2268 -0.000111376 0)
(18.2338 -0.000223904 0)
(18.2419 -0.000338646 0)
(18.2508 -0.000452702 0)
(18.2606 -0.000564296 0)
(18.2713 -0.000675195 0)
(18.2827 -0.000780729 0)
(18.2947 -0.00088416 0)
(18.3074 -0.000979875 0)
(18.3205 -0.00107011 0)
(18.3341 -0.00115233 0)
(18.3481 -0.0012278 0)
(18.3623 -0.00129416 0)
(18.3767 -0.00135226 0)
(18.3912 -0.00140029 0)
(18.4058 -0.00143976 0)
(18.4203 -0.00146921 0)
(18.4347 -0.0014895 0)
(18.4489 -0.0014954 0)
(18.4628 -0.00147542 0)
(18.4762 -0.000731234 0)
(20.0522 0.0488783 0)
(20.1272 0.0284366 0)
(20.164 0.0266625 0)
(20.1912 0.0246654 0)
(20.2052 0.0230151 0)
(20.2004 0.0214911 0)
(20.1713 0.0199148 0)
(20.1139 0.0182338 0)
(20.0293 0.0164681 0)
(19.9247 0.0146947 0)
(19.8096 0.0130044 0)
(19.6925 0.0114605 0)
(19.579 0.0100893 0)
(19.4722 0.00889023 0)
(19.3736 0.00784889 0)
(19.2834 0.00694579 0)
(19.2015 0.00616124 0)
(19.1273 0.00547735 0)
(19.0602 0.00487861 0)
(18.9996 0.00435195 0)
(18.9448 0.00388645 0)
(18.8953 0.00347299 0)
(18.8507 0.00310392 0)
(18.8103 0.00277295 0)
(18.7739 0.00247474 0)
(18.741 0.00220486 0)
(18.7112 0.00195983 0)
(18.6845 0.00173721 0)
(18.6603 0.00153544 0)
(18.6385 0.0013544 0)
(18.6189 0.00119458 0)
(18.6012 0.00105727 0)
(18.5851 0.000943802 0)
(18.5706 0.000855468 0)
(18.5574 0.000792022 0)
(18.5454 0.000752191 0)
(18.5343 0.000732593 0)
(18.5242 0.000729504 0)
(18.5149 0.000737009 0)
(18.5064 0.00074971 0)
(18.4988 0.000761401 0)
(18.4919 0.000768292 0)
(18.4858 0.000765827 0)
(18.4806 0.000751554 0)
(18.4764 0.000723397 0)
(18.4731 0.000680883 0)
(18.4708 0.000624686 0)
(18.4696 0.000554945 0)
(18.4695 0.00047268 0)
(18.4704 0.000379442 0)
(18.4725 0.000275464 0)
(18.4756 0.000164242 0)
(18.4798 4.74943e-05 0)
(18.4851 -7.33919e-05 0)
(18.4914 -0.000197098 0)
(18.4986 -0.000322046 0)
(18.5067 -0.000448579 0)
(18.5157 -0.000573678 0)
(18.5254 -0.000695455 0)
(18.5359 -0.000815727 0)
(18.547 -0.000929608 0)
(18.5587 -0.00104052 0)
(18.5708 -0.00114264 0)
(18.5834 -0.00123832 0)
(18.5964 -0.00132494 0)
(18.6096 -0.00140385 0)
(18.623 -0.0014726 0)
(18.6365 -0.00153217 0)
(18.6501 -0.00158068 0)
(18.6636 -0.00161977 0)
(18.6771 -0.00164797 0)
(18.6904 -0.0016662 0)
(18.7036 -0.00166881 0)
(18.7164 -0.00164301 0)
(18.7287 -0.000813645 0)
(20.0542 0.0475508 0)
(20.1328 0.0276568 0)
(20.1754 0.0261432 0)
(20.2109 0.0242867 0)
(20.2375 0.0228152 0)
(20.252 0.0215276 0)
(20.2508 0.02025 0)
(20.2303 0.0189168 0)
(20.1875 0.0174951 0)
(20.1228 0.0159937 0)
(20.0406 0.0144639 0)
(19.9476 0.0129732 0)
(19.8502 0.0115763 0)
(19.7535 0.0103042 0)
(19.6605 0.00916628 0)
(19.573 0.00815829 0)
(19.4918 0.00726912 0)
(19.417 0.00648537 0)
(19.3486 0.00579355 0)
(19.2862 0.00518131 0)
(19.2294 0.00463771 0)
(19.1778 0.00415324 0)
(19.1308 0.00371972 0)
(19.0882 0.00333026 0)
(19.0496 0.00297895 0)
(19.0145 0.00266083 0)
(18.9827 0.00237197 0)
(18.954 0.00210955 0)
(18.9279 0.00187169 0)
(18.9044 0.00165803 0)
(18.8831 0.00146886 0)
(18.8638 0.00130527 0)
(18.8464 0.00116837 0)
(18.8305 0.00105925 0)
(18.8162 0.000977346 0)
(18.8031 0.000921057 0)
(18.7912 0.000886604 0)
(18.7805 0.000869872 0)
(18.7707 0.000864514 0)
(18.7619 0.000864773 0)
(18.7541 0.000864098 0)
(18.7472 0.000858465 0)
(18.7413 0.000843115 0)
(18.7363 0.000815504 0)
(18.7324 0.000773522 0)
(18.7294 0.00071671 0)
(18.7275 0.000645836 0)
(18.7267 0.000561107 0)
(18.7269 0.000463668 0)
(18.7282 0.000355164 0)
(18.7306 0.000235907 0)
(18.734 0.000109659 0)
(18.7384 -2.15076e-05 0)
(18.7438 -0.000156145 0)
(18.7501 -0.000292958 0)
(18.7573 -0.000430321 0)
(18.7653 -0.000568495 0)
(18.774 -0.000704376 0)
(18.7834 -0.000835971 0)
(18.7935 -0.000965157 0)
(18.804 -0.00108685 0)
(18.8151 -0.00120466 0)
(18.8266 -0.00131254 0)
(18.8384 -0.00141301 0)
(18.8505 -0.00150334 0)
(18.8627 -0.001585 0)
(18.8752 -0.00165547 0)
(18.8876 -0.00171584 0)
(18.9001 -0.00176422 0)
(18.9125 -0.00180235 0)
(18.9248 -0.00182875 0)
(18.937 -0.00184443 0)
(18.9489 -0.00184334 0)
(18.9606 -0.00181134 0)
(18.9717 -0.00089647 0)
(20.0555 0.046039 0)
(20.1367 0.0267443 0)
(20.1836 0.0254815 0)
(20.2248 0.023741 0)
(20.2598 0.0224039 0)
(20.2863 0.0212858 0)
(20.3028 0.0202192 0)
(20.3068 0.019147 0)
(20.2955 0.0180268 0)
(20.2667 0.0168313 0)
(20.2202 0.0155621 0)
(20.1584 0.0142502 0)
(20.0856 0.0129428 0)
(20.0066 0.0116859 0)
(19.9257 0.0105116 0)
(19.846 0.00943648 0)
(19.7693 0.00846469 0)
(19.697 0.00759249 0)
(19.6294 0.0068122 0)
(19.5668 0.00611466 0)
(19.5091 0.00549057 0)
(19.4562 0.00493111 0)
(19.4076 0.00442826 0)
(19.3633 0.003975 0)
(19.3228 0.00356513 0)
(19.2858 0.00319335 0)
(19.2522 0.00285538 0)
(19.2216 0.00254808 0)
(19.1938 0.00226928 0)
(19.1685 0.00201837 0)
(19.1456 0.00179537 0)
(19.1247 0.00160118 0)
(19.1058 0.00143663 0)
(19.0887 0.00130254 0)
(19.0731 0.00119803 0)
(19.059 0.00112115 0)
(19.0463 0.00106777 0)
(19.0348 0.00103339 0)
(19.0245 0.0010113 0)
(19.0153 0.000995432 0)
(19.0072 0.000978937 0)