/*--------------------------------*- C++ -*----------------------------------*\
  =========                 |
  \\      /  F ield         | OpenFOAM: The Open Source CFD Toolbox
   \\    /   O peration     | Website:  https://openfoam.org
    \\  /    A nd           | Version:  7
     \\/     M anipulation  |
\*---------------------------------------------------------------------------*/
FoamFile
{
    version     2.0;
    format      ascii;
    class       volScalarField;
    location    "550";
    object      epsilon;
}
// * * * * * * * * * * * * * * * * * * * * * * * * * * * * * * * * * * * * * //

dimensions      [0 2 -3 0 0 0 0];

internalField   nonuniform List<scalar> 
4500
(
789.607
724.717
675.056
641.444
616.337
596.999
581.733
569.399
559.236
550.727
543.512
537.331
531.994
527.355
523.302
519.746
516.618
513.86
511.426
509.275
507.376
505.702
504.228
502.934
501.803
500.821
499.973
499.247
498.635
498.126
497.712
497.386
497.141
496.972
496.872
496.838
496.863
496.944
497.077
497.259
497.488
497.76
498.075
498.43
498.825
499.258
499.729
500.239
500.785
501.368
501.985
502.636
503.317
504.025
504.755
505.504
506.266
507.035
507.804
508.569
509.323
510.059
510.773
511.459
512.112
512.729
513.305
513.837
514.325
514.765
515.157
515.5
515.795
516.04
516.243
180.467
258.6
265.807
255.427
244.809
236.24
229.47
224.046
219.618
215.941
212.845
210.208
207.941
205.978
204.268
202.77
201.455
200.297
199.274
198.371
197.573
196.869
196.248
195.702
195.223
194.804
194.442
194.129
193.863
193.64
193.455
193.306
193.19
193.105
193.048
193.017
193.011
193.027
193.064
193.121
193.198
193.292
193.404
193.532
193.677
193.837
194.013
194.203
194.408
194.627
194.859
195.103
195.357
195.62
195.89
196.166
196.444
196.724
197.002
197.276
197.545
197.805
198.056
198.295
198.521
198.732
198.928
199.108
199.271
199.416
199.544
199.655
199.748
199.823
199.885
52.4732
112.464
134.457
135.922
132.522
128.669
125.265
122.401
120.007
117.993
116.284
114.823
113.562
112.469
111.515
110.679
109.944
109.296
108.724
108.219
107.772
107.376
107.028
106.72
106.451
106.215
106.01
105.833
105.682
105.554
105.448
105.361
105.293
105.242
105.207
105.187
105.179
105.185
105.201
105.229
105.268
105.317
105.375
105.442
105.518
105.603
105.696
105.796
105.904
106.019
106.14
106.267
106.399
106.534
106.673
106.814
106.956
107.098
107.239
107.378
107.513
107.644
107.77
107.89
108.003
108.109
108.208
108.298
108.381
108.455
108.52
108.577
108.625
108.666
108.699
18.9423
52.8112
76.111
83.4465
84.1244
82.8547
81.1903
79.5846
78.1513
76.9017
75.8187
74.8793
74.0618
73.3479
72.7222
72.1719
71.6868
71.2581
70.8788
70.5429
70.2455
69.9822
69.7494
69.544
69.3633
69.205
69.067
68.9476
68.8451
68.7581
68.6854
68.6259
68.5785
68.5424
68.5166
68.5006
68.4935
68.4945
68.5031
68.5191
68.542
68.5715
68.6073
68.6489
68.6961
68.7486
68.8061
68.8683
68.9349
69.0055
69.0798
69.1572
69.2374
69.3198
69.4039
69.4891
69.5749
69.6606
69.7457
69.8295
69.9117
69.9916
70.0688
70.1428
70.2133
70.28
70.3425
70.4007
70.4544
70.5036
70.548
70.5877
70.6228
70.6533
70.6797
8.1872
25.0217
43.8942
53.7537
57.1337
57.7145
57.2786
56.5262
55.7185
54.9491
54.2478
53.6201
53.0624
52.5681
52.1302
51.742
51.3976
51.0917
50.82
50.5786
50.3641
50.1737
50.005
49.8557
49.7242
49.6086
49.5076
49.4199
49.3443
49.28
49.226
49.1814
49.1457
49.118
49.0979
49.0847
49.0781
49.0773
49.082
49.0919
49.1067
49.1262
49.1501
49.1781
49.2099
49.2452
49.2839
49.3256
49.3701
49.4172
49.4666
49.518
49.5712
49.6259
49.6819
49.7387
49.7961
49.8539
49.9117
49.9691
50.0259
50.0818
50.1365
50.1897
50.2411
50.2906
50.3378
50.3827
50.4251
50.4649
50.5019
50.5361
50.5675
50.5961
50.6219
4.2188
11.9892
24.7098
34.5695
39.5749
41.5705
42.1325
42.0729
41.7614
41.3618
40.9462
40.5459
40.1736
39.8334
39.5253
39.2478
38.9985
38.7751
38.575
38.3962
38.2364
38.094
37.9673
37.8548
37.7554
37.6677
37.5909
37.524
37.4662
37.4168
37.3752
37.3407
37.3128
37.2911
37.275
37.2643
37.2584
37.2571
37.2597
37.2663
37.2765
37.2902
37.3071
37.3268
37.3493
37.3743
37.4016
37.4309
37.4621
37.4951
37.5297
37.5658
37.6033
37.6421
37.682
37.7229
37.7647
37.8073
37.8504
37.894
37.9378
37.9815
38.0251
38.0682
38.1107
38.1524
38.193
38.2324
38.2704
38.3069
38.3417
38.3747
38.4058
38.4349
38.462
2.53586
6.06763
13.4269
21.5411
27.1065
30.0891
31.4755
32.0206
32.1462
32.069
31.8979
31.6884
31.4685
31.2526
31.0476
30.8568
30.6813
30.521
30.3754
30.2438
30.1251
30.0186
29.9231
29.838
29.7624
29.6955
29.6366
29.5852
29.5407
29.5025
29.4703
29.4435
29.4218
29.4048
29.3922
29.3837
29.379
29.3777
29.3796
29.3844
29.3919
29.402
29.4145
29.4291
29.4456
29.4639
29.4838
29.5052
29.5279
29.5519
29.5773
29.6038
29.6317
29.6607
29.6911
29.7227
29.7555
29.7894
29.8245
29.8605
29.8974
29.9349
29.9729
30.0112
30.0496
30.0878
30.1256
30.1629
30.1995
30.235
30.2695
30.3028
30.3346
30.3649
30.3935
1.72014
3.39495
7.19137
12.8165
17.9493
21.4137
23.4192
24.4852
25.0083
25.2292
25.2842
25.2494
25.1674
25.0624
24.9482
24.8326
24.7203
24.6137
24.514
24.4218
24.3374
24.2604
24.1908
24.1281
24.072
24.0221
23.9779
23.9393
23.9057
23.8769
23.8525
23.8323
23.8159
23.8032
23.7939
23.7877
23.7844
23.7838
23.7857
23.7897
23.7958
23.8038
23.8135
23.8247
23.8374
23.8513
23.8663
23.8824
23.8996
23.9178
23.9371
23.9576
23.9794
24.0025
24.027
24.053
24.0805
24.1096
24.1401
24.1721
24.2053
24.2396
24.2748
24.3108
24.3473
24.384
24.4208
24.4574
24.4935
24.5291
24.5638
24.5975
24.6301
24.6614
24.691
1.27853
2.13151
3.97937
7.32524
11.3239
14.7132
17.0625
18.5327
19.4051
19.9031
20.1732
20.3058
20.3557
20.3562
20.3275
20.2824
20.2286
20.1713
20.1134
20.057
20.0032
19.9528
19.9061
19.8633
19.8246
19.7897
19.7587
19.7314
19.7076
19.6872
19.67
19.6558
19.6445
19.6359
19.6298
19.6261
19.6247
19.6252
19.6277
19.6317
19.6372
19.6441
19.6521
19.6613
19.6715
19.6825
19.6944
19.7071
19.7206
19.735
19.7505
19.7671
19.785
19.8044
19.8254
19.8481
19.8725
19.8987
19.9267
19.9564
19.9877
20.0203
20.0541
20.089
20.1245
20.1606
20.1969
20.2332
20.2692
20.3047
20.3396
20.3735
20.4064
20.4381
20.4682
1.01869
1.48311
2.38188
4.15478
6.80161
9.62717
11.9836
13.6873
14.8322
15.5744
16.0458
16.3399
16.5189
16.623
16.6785
16.7023
16.7057
16.6961
16.6786
16.6564
16.632
16.6068
16.5819
16.558
16.5356
16.5151
16.4964
16.4799
16.4654
16.4531
16.4428
16.4345
16.4282
16.4238
16.4212
16.4202
16.4209
16.423
16.4265
16.4312
16.4368
16.4433
16.4507
16.4587
16.4674
16.4768
16.4866
16.4971
16.5084
16.5204
16.5334
16.5476
16.5632
16.5803
16.5991
16.6198
16.6424
16.667
16.6935
16.7219
16.752
16.7837
16.8167
16.8508
16.8858
16.9213
16.9572
16.9931
17.0288
17.0641
17.0986
17.1323
17.165
17.1964
17.2262
0.856486
1.12027
1.57153
2.45563
3.97547
5.97825
8.01089
9.72611
11.0249
11.954
12.6007
13.0453
13.349
13.5554
13.6948
13.7877
13.8485
13.8869
13.9097
13.9219
13.9266
13.9265
13.9233
13.9181
13.912
13.9055
13.8991
13.8933
13.8881
13.8839
13.8806
13.8784
13.8773
13.8773
13.8784
13.8805
13.8837
13.8878
13.8928
13.8986
13.9049
13.9118
13.9191
13.9268
13.9349
13.9433
13.9522
13.9614
13.9713
13.9819
13.9935
14.0063
14.0204
14.0362
14.0537
14.0732
14.0947
14.1182
14.1438
14.1713
14.2006
14.2315
14.2638
14.2972
14.3315
14.3664
14.4016
14.4369
14.4719
14.5064
14.5403
14.5732
14.605
14.6356
14.6646
0.751138
0.901882
1.1357
1.57101
2.36209
3.58036
5.07589
6.57156
7.86573
8.89151
9.66657
10.2385
10.6564
10.9608
11.1828
11.345
11.4638
11.551
11.6151
11.6622
11.6969
11.7225
11.7413
11.7553
11.7658
11.7738
11.7801
11.7852
11.7897
11.7938
11.7979
11.802
11.8064
11.8112
11.8164
11.822
11.8281
11.8347
11.8417
11.849
11.8566
11.8643
11.8722
11.8802
11.8883
11.8966
11.905
11.9138
11.9231
11.933
11.9438
11.9558
11.9692
11.9841
12.0009
12.0196
12.0403
12.0631
12.0879
12.1147
12.1432
12.1733
12.2048
12.2374
12.2708
12.3048
12.339
12.3731
12.407
12.4404
12.473
12.5047
12.5352
12.5645
12.5921
0.681084
0.763094
0.884561
1.10001
1.49244
2.15026
3.09086
4.2063
5.32813
6.32978
7.15924
7.81699
8.32691
8.71822
9.01769
9.24721
9.42379
9.56035
9.6666
9.74982
9.81548
9.86769
9.90958
9.94353
9.97136
9.99448
10.014
10.0307
10.0453
10.0584
10.0702
10.0812
10.0916
10.1016
10.1114
10.1209
10.1304
10.1399
10.1493
10.1587
10.1681
10.1772
10.1862
10.195
10.2037
10.2124
10.2211
10.2299
10.2391
10.2489
10.2595
10.2712
10.2841
10.2986
10.3149
10.3331
10.3532
10.3753
10.3994
10.4253
10.453
10.4822
10.5126
10.5441
10.5763
10.609
10.6418
10.6746
10.707
10.7388
10.7697
10.7997
10.8285
10.856
10.8818
0.63403
0.671598
0.730768
0.83575
1.02644
1.35691
1.87632
2.58645
3.41896
4.27087
5.05819
5.73808
6.30134
6.75721
7.12188
7.41233
7.64372
7.8286
7.97704
8.09693
8.19441
8.27426
8.34018
8.39508
8.44121
8.48035
8.5139
8.54298
8.56847
8.59108
8.61138
8.62981
8.64676
8.66252
8.67732
8.69133
8.70472
8.71756
8.72994
8.74189
8.75342
8.76449
8.77509
8.78527
8.79509
8.80464
8.81405
8.82346
8.83308
8.84313
8.85387
8.86555
8.87843
8.89273
8.90867
8.92637
8.94592
8.96736
8.99064
9.01566
9.04228
9.07029
9.09947
9.12955
9.16027
9.19135
9.22251
9.25348
9.28403
9.31391
9.34292
9.37087
9.39761
9.423
9.44675
0.602484
0.610007
0.63217
0.67868
0.768007
0.927183
1.19007
1.58499
2.11209
2.73181
3.38151
4.0041
4.56404
5.04728
5.45396
5.79146
6.06965
6.29853
6.48706
6.64286
6.7722
6.88017
6.97088
7.04758
7.11291
7.16898
7.21746
7.25973
7.29688
7.32982
7.35927
7.38583
7.40997
7.43211
7.45256
7.47159
7.4894
7.50616
7.52199
7.53697
7.55118
7.56465
7.57736
7.58936
7.60077
7.61169
7.62226
7.63265
7.64307
7.65375
7.66495
7.67693
7.68993
7.7042
7.71991
7.73722
7.7562
7.7769
7.79927
7.82323
7.84862
7.87526
7.90292
7.93137
7.96033
7.98954
8.01874
8.04767
8.07609
8.1038
8.13058
8.15628
8.18073
8.20384
8.22534
0.581598
0.568258
0.567053
0.580682
0.61734
0.689625
0.815044
1.01459
1.30566
1.69024
2.14768
2.64103
3.13178
3.59126
4.00373
4.36394
4.67321
4.93622
5.15888
5.34716
5.50658
5.64194
5.75733
5.85616
5.94124
6.01492
6.07909
6.13533
6.18494
6.22897
6.26832
6.3037
6.33573
6.36491
6.39164
6.41627
6.43909
6.46031
6.48013
6.49867
6.51605
6.53237
6.54766
6.56197
6.57542
6.58814
6.60028
6.61204
6.62362
6.63526
6.64721
6.65972
6.67304
6.6874
6.70299
6.71995
6.73836
6.75828
6.77965
6.80242
6.82643
6.85152
6.87749
6.90409
6.93108
6.95822
6.98525
7.01193
7.03806
7.06341
7.08781
7.11109
7.13313
7.15383
7.17298
0.568079
0.540126
0.523431
0.51743
0.525304
0.552668
0.607669
0.701329
0.846657
1.05501
1.32993
1.66241
2.03209
2.41414
2.7866
3.13432
3.44925
3.72875
3.97363
4.1866
4.37111
4.53081
4.66914
4.78922
4.89377
4.98516
5.06536
5.13607
5.19872
5.25449
5.30439
5.34928
5.38985
5.4267
5.46034
5.49119
5.51959
5.54585
5.57019
5.59281
5.61387
5.63351
5.65184
5.66892
5.68485
5.69979
5.71392
5.72742
5.7405
5.75341
5.76638
5.77966
5.79349
5.8081
5.82367
5.84034
5.85821
5.87732
5.89765
5.91915
5.94169
5.96512
5.98925
6.01387
6.03875
6.06368
6.08841
6.11273
6.13643
6.15933
6.18126
6.20208
6.22165
6.2399
6.25668
0.559602
0.521507
0.494215
0.475854
0.467123
0.470264
0.488837
0.527918
0.594281
0.695973
0.840597
1.03225
1.26844
1.53938
1.83035
2.12588
2.41303
2.68294
2.93066
3.15433
3.35412
3.53139
3.68811
3.82648
3.94865
4.05666
4.15237
4.23741
4.31321
4.38101
4.44188
4.49674
4.54637
4.59145
4.63256
4.67018
4.70473
4.73655
4.76595
4.79317
4.81841
4.84185
4.86364
4.88393
4.90278
4.92037
4.93687
4.95247
4.96741
4.98189
4.99616
5.01046
5.02502
5.04005
5.05573
5.07222
5.08961
5.10796
5.12726
5.14747
5.1685
5.19021
5.21245
5.23503
5.25774
5.28039
5.30276
5.32466
5.34591
5.36633
5.38577
5.40411
5.42124
5.43707
5.45154
0.5545
0.509542
0.474918
0.448452
0.429644
0.419073
0.418104
0.428877
0.454437
0.498844
0.567017
0.66401
0.793577
0.956396
1.14891
1.36364
1.59092
1.82102
2.04586
2.25963
2.45884
2.64182
2.80825
2.95863
3.09399
3.21558
3.32473
3.42275
3.51091
3.59032
3.66202
3.72691
3.78582
3.83944
3.88838
3.93318
3.97432
4.01217
4.04709
4.07936
4.10923
4.13692
4.16261
4.18648
4.20868
4.2293
4.24856
4.26664
4.28376
4.30014
4.31601
4.33159
4.34711
4.36277
4.37875
4.39521
4.41225
4.42993
4.44827
4.46725
4.48681
4.50683
4.52718
4.54772
4.56826
4.58863
4.60866
4.62816
4.64697
4.66495
4.68196
4.69789
4.71264
4.72615
4.73839
0.551578
0.502159
0.462517
0.430613
0.405436
0.386738
0.374813
0.370408
0.374735
0.389544
0.417193
0.460615
0.52306
0.607482
0.715642
0.847209
0.999339
1.16703
1.34408
1.52425
1.70217
1.87373
2.03619
2.18798
2.32843
2.4575
2.57558
2.68332
2.78147
2.87084
2.95226
3.02649
3.09425
3.15622
3.21298
3.26508
3.31299
3.35713
3.39788
3.43554
3.47039
3.5027
3.53266
3.56047
3.58633
3.61037
3.63273
3.65363
3.67327
3.69186
3.70962
3.72676
3.74351
3.76004
3.77655
3.79318
3.81004
3.82722
3.84474
3.86262
3.8808
3.89922
3.91778
3.93634
3.95478
3.97295
3.9907
4.00787
4.02434
4.03997
4.05465
4.06828
4.08078
4.09211
4.10227
0.549997
0.497833
0.454862
0.419311
0.390008
0.366314
0.347991
0.335115
0.328033
0.327378
0.334101
0.349515
0.375307
0.413461
0.46604
0.534794
0.620652
0.723263
0.840805
0.970169
1.10746
1.24861
1.38992
1.52835
1.66166
1.78835
1.90755
2.01888
2.12232
2.21806
2.30649
2.38803
2.46319
2.53246
2.59633
2.65526
2.70969
2.76
2.80656
2.8497
2.88969
2.9268
2.96125
2.99326
3.02302
3.05071
3.07648
3.10049
3.12293
3.14402
3.16396
3.18295
3.20119
3.21887
3.23615
3.25319
3.27011
3.28699
3.30389
3.32084
3.33783
3.3548
3.37171
3.38845
3.40492
3.42101
3.43661
3.4516
3.46585
3.47928
3.49178
3.50327
3.5137
3.52303
3.53129
0.549196
0.49545
0.450382
0.412443
0.380459
0.353629
0.331457
0.313683
0.300245
0.291252
0.28699
0.287933
0.294771
0.308424
0.330031
0.360892
0.402324
0.455437
0.520857
0.598475
0.687317
0.785601
0.890966
1.00079
1.11252
1.22388
1.33303
1.43859
1.5396
1.63547
1.72589
1.81079
1.89022
1.96436
2.03347
2.09781
2.15768
2.21339
2.26522
2.31345
2.35834
2.40012
2.43903
2.47525
2.50899
2.54042
2.56972
2.59702
2.62248
2.64628
2.66863
2.68971
2.70969
2.72876
2.74707
2.76478
2.782
2.79884
2.81536
2.83162
2.84763
2.86337
2.87883
2.89394
2.90864
2.92286
2.93649
2.94948
2.96171
2.97313
2.98365
2.99322
3.00178
3.00933
3.01592
0.54882
0.494229
0.447927
0.408498
0.374812
0.346017
0.321496
0.300829
0.283749
0.270116
0.259909
0.253214
0.250232
0.251294
0.256863
0.267551
0.2841
0.307348
0.338153
0.377272
0.42521
0.482078
0.54749
0.620553
0.699939
0.784044
0.871158
0.959635
1.04801
1.13506
1.21984
1.30164
1.38
1.45464
1.5254
1.59225
1.65525
1.7145
1.77013
1.82231
1.8712
1.91698
1.95982
1.99989
2.03734
2.07233
2.10502
2.13556
2.16405
2.19064
2.21551
2.23881
2.26071
2.28136
2.30092
2.31952
2.3373
2.35434
2.37074
2.38657
2.40186
2.41664
2.4309
2.44464
2.45782
2.47039
2.48232
2.49355
2.50402
2.51367
2.52247
2.53037
2.53734
2.54337
2.54856
0.548657
0.493654
0.446683
0.406388
0.371673
0.341678
0.31574
0.293358
0.274166
0.257902
0.244398
0.233559
0.225367
0.219876
0.217213
0.217587
0.221296
0.228722
0.240335
0.25667
0.278288
0.305721
0.339393
0.379536
0.426116
0.478796
0.536941
0.599667
0.665925
0.734602
0.804607
0.87494
0.944741
1.0133
1.08007
1.14463
1.2067
1.26609
1.32271
1.3765
1.42748
1.47568
1.52118
1.56404
1.60436
1.64224
1.67779
1.71111
1.74233
1.7715
1.79875
1.82422
1.84803
1.87033
1.89124
1.91089
1.92939
1.94685
1.96337
1.97902
1.99387
2.00796
2.02133
2.03399
2.04595
2.05721
2.06774
2.07752
2.08654
2.09476
2.10217
2.10873
2.11444
2.1193
2.12341
0.548592
0.493406
0.446107
0.405351
0.370059
0.339371
0.312608
0.289233
0.268829
0.251075
0.235728
0.222608
0.211595
0.202617
0.19565
0.190716
0.187888
0.187286
0.189086
0.193519
0.200869
0.211469
0.225679
0.243868
0.26637
0.293444
0.325224
0.361686
0.402619
0.447634
0.496183
0.547606
0.601178
0.656168
0.711875
0.767666
0.82299
0.877389
0.930494
0.982017
1.03174
1.07952
1.12525
1.16886
1.21033
1.24965
1.28684
1.32194
1.35499
1.38606
1.41516
1.44239
1.46782
1.49156
1.51372
1.53438
1.55366
1.57165
1.58845
1.60414
1.6188
1.6325
1.6453
1.65723
1.66835
1.67866
1.68819
1.69694
1.70492
1.71213
1.71857
1.72422
1.7291
1.73321
1.73667
0.548569
0.49331
0.445866
0.40489
0.369304
0.338249
0.311036
0.287114
0.266042
0.247465
0.231105
0.216739
0.204196
0.193345
0.184094
0.176382
0.17018
0.165488
0.162338
0.160793
0.160948
0.162932
0.16691
0.173077
0.181656
0.192888
0.207014
0.224254
0.244789
0.268724
0.296075
0.326749
0.360542
0.397143
0.436157
0.477129
0.519573
0.563
0.60694
0.650961
0.69468
0.737763
0.77993
0.820952
0.860645
0.898863
0.935498
0.970474
1.00374
1.03528
1.06507
1.0931
1.11938
1.14397
1.16692
1.18829
1.20816
1.22661
1.24373
1.25959
1.27428
1.28787
1.30044
1.31205
1.32276
1.33261
1.34164
1.34989
1.35737
1.36412
1.37014
1.37544
1.38004
1.38396
1.3873
0.548561
0.493276
0.445775
0.404707
0.368989
0.337759
0.310324
0.286125
0.264707
0.245702
0.22881
0.213787
0.200435
0.188595
0.17814
0.168972
0.161016
0.154218
0.148548
0.143992
0.140556
0.138266
0.137167
0.137327
0.138831
0.141788
0.146325
0.152588
0.160732
0.170915
0.183288
0.197983
0.215094
0.234666
0.256683
0.281062
0.307652
0.336237
0.366548
0.39828
0.4311
0.464673
0.498665
0.532762
0.566676
0.600145
0.632942
0.66487
0.695768
0.725503
0.75398
0.781122
0.806844
0.831117
0.853936
0.875315
0.895284
0.913887
0.93118
0.947226
0.962092
0.975847
0.988561
1.0003
1.01112
1.02109
1.03025
1.03864
1.0463
1.05327
1.05956
1.06519
1.07019
1.07458
1.07844
0.548559
0.493266
0.445745
0.404642
0.368873
0.337571
0.31004
0.285716
0.264139
0.24493
0.227779
0.212432
0.198676
0.186338
0.175272
0.165362
0.156511
0.148642
0.141694
0.13562
0.13039
0.125983
0.122391
0.11962
0.117686
0.116617
0.116455
0.117254
0.11908
0.122013
0.126141
0.131563
0.138379
0.14669
0.156589
0.168153
0.181436
0.196458
0.213203
0.231613
0.251586
0.272979
0.295614
0.319283
0.343761
0.36881
0.394192
0.419676
0.445044
0.470097
0.49466
0.518589
0.541753
0.564032
0.585348
0.605646
0.624895
0.643083
0.660216
0.676313
0.691404
0.705526
0.718723
0.731039
0.742518
0.753205
0.76314
0.77236
0.780899
0.788784
0.796041
0.80269
0.808748
0.814238
0.819212
0.548558
0.493263
0.445735
0.404622
0.368836
0.337509
0.309944
0.285572
0.26393
0.244636
0.227375
0.211885
0.197946
0.185378
0.174026
0.163764
0.154484
0.146098
0.138532
0.131724
0.125625
0.120197
0.11541
0.111242
0.10768
0.10472
0.102362
0.100617
0.0995
0.0990368
0.0992589
0.100206
0.101924
0.104467
0.107894
0.112267
0.11765
0.124106
0.13169
0.140448
0.150412
0.161591
0.173975
0.187526
0.20218
0.217846
0.234412
0.251744
0.269695
0.28811
0.306831
0.325705
0.344589
0.363342
0.381834
0.399952
0.417603
0.434709
0.451213
0.467071
0.482253
0.496743
0.510534
0.523627
0.536032
0.547758
0.558822
0.569241
0.57903
0.588207
0.596786
0.604782
0.612208
0.619079
0.625416
0.548558
0.493263
0.445733
0.404617
0.368827
0.337493
0.309918
0.285532
0.26387
0.244548
0.227249
0.211707
0.197701
0.185045
0.173583
0.163183
0.153733
0.145139
0.137321
0.130213
0.123758
0.11791
0.112631
0.10789
0.103663
0.099932
0.0966848
0.0939146
0.0916196
0.0898032
0.0884736
0.0876441
0.0873327
0.0875625
0.0883618
0.0897634
0.0918047
0.0945274
0.0979762
0.102198
0.107239
0.113144
0.119954
0.1277
0.136405
0.146076
0.156704
0.168262
0.180701
0.193956
0.207942
0.222558
0.237695
0.253234
0.269049
0.285011
0.300996
0.316889
0.332584
0.347989
0.363026
0.37763
0.391749
0.405344
0.418387
0.43086
0.442751
0.454056
0.464775
0.47491
0.484466
0.493451
0.501872
0.509736
0.517049
0.548558
0.493263
0.445733
0.404617
0.368827
0.337493
0.309918
0.285532
0.26387
0.244548
0.227249
0.211707
0.197701
0.185045
0.173583
0.163183
0.153733
0.145138
0.137321
0.130212
0.123758
0.11791
0.112631
0.10789
0.103663
0.0999317
0.0966844
0.0939141
0.0916191
0.0898026
0.0884729
0.0876433
0.0873318
0.0875615
0.0883607
0.0897621
0.0918033
0.0945258
0.0979743
0.102196
0.107236
0.113141
0.119951
0.127697
0.136402
0.146073
0.156702
0.16826
0.1807
0.193956
0.207944
0.222562
0.237701
0.253243
0.269062
0.28503
0.301022
0.316923
0.332629
0.348046
0.363096
0.377715
0.39185
0.405463
0.418526
0.431018
0.44293
0.454256
0.464995
0.47515
0.484726
0.493729
0.502166
0.510045
0.517371
0.548558
0.493263
0.445735
0.404622
0.368836
0.337509
0.309944
0.285572
0.26393
0.244636
0.227375
0.211884
0.197946
0.185377
0.174026
0.163763
0.154484
0.146097
0.138531
0.131722
0.125623
0.120195
0.115407
0.111239
0.107677
0.104716
0.102357
0.100611
0.0994937
0.0990294
0.0992503
0.100196
0.101912
0.104454
0.107878
0.112249
0.11763
0.124083
0.131664
0.140419
0.150379
0.161556
0.173936
0.187484
0.202134
0.217798
0.234361
0.251692
0.269643
0.28806
0.306784
0.325663
0.344554
0.363319
0.381826
0.399964
0.417639
0.434775
0.451314
0.467212
0.48244
0.49698
0.510825
0.523977
0.536442
0.548231
0.559358
0.569839
0.579689
0.588924
0.597558
0.605605
0.613075
0.619985
0.626356
0.548559
0.493266
0.445745
0.404642
0.368873
0.337571
0.31004
0.285716
0.264138
0.244929
0.227779
0.212431
0.198675
0.186336
0.175271
0.16536
0.156509
0.148639
0.14169
0.135616
0.130384
0.125976
0.122383
0.119611
0.117674
0.116603
0.116439
0.117235
0.119058
0.121987
0.126111
0.131527
0.138338
0.146643
0.156535
0.168092
0.181367
0.196381
0.213117
0.231518
0.251482
0.272866
0.295493
0.319155
0.343626
0.36867
0.394049
0.419531
0.444899
0.469956
0.494527
0.518466
0.541649
0.563954
0.585303
0.605642
0.624941
0.643188
0.660389
0.676563
0.691739
0.705954
0.719249
0.731667
0.743252
0.754045
0.764085
0.773407
0.782041
0.790016
0.797354
0.804075
0.810194
0.815734
0.820749
0.548561
0.493276
0.445775
0.404707
0.368988
0.337758
0.310324
0.286124
0.264706
0.245701
0.228808
0.213785
0.200432
0.188591
0.178136
0.168967
0.161009
0.15421
0.148538
0.143979
0.14054
0.138247
0.137145
0.1373
0.138799
0.14175
0.146281
0.152535
0.16067
0.170842
0.183205
0.197887
0.214983
0.23454
0.256542
0.280906
0.30748
0.33605
0.366347
0.398064
0.430872
0.464433
0.498415
0.532504
0.566411
0.599876
0.632671
0.664602
0.695505
0.725252
0.753744
0.780912
0.806669
0.830988
0.853864
0.875312
0.895363
0.914061
0.93146
0.947624
0.962618
0.976509
0.989364
1.00125
1.01222
1.02233
1.03162
1.04014
1.04792
1.05499
1.06138
1.06709
1.07215
1.07658
1.08047
0.548569
0.49331
0.445866
0.404889
0.369303
0.338248
0.311035
0.287112
0.266039
0.247462
0.2311
0.216733
0.204189
0.193336
0.184083
0.176368
0.170163
0.165467
0.162313
0.160762
0.16091
0.162886
0.166854
0.173011
0.181577
0.192794
0.206902
0.224124
0.244637
0.268549
0.295877
0.326527
0.360294
0.396872
0.435863
0.476814
0.519238
0.562647
0.606572
0.65058
0.694287
0.737361
0.779522
0.820539
0.860229
0.898447
0.935087
0.970072
1.00335
1.03491
1.06474
1.09281
1.11915
1.14381
1.16684
1.18831
1.2083
1.22688
1.24414
1.26017
1.27502
1.28879
1.30154
1.31333
1.3242
1.33422
1.3434
1.35179
1.3594
1.36625
1.37235
1.37772
1.38237
1.38631
1.38966
0.548592
0.493406
0.446106
0.40535
0.370057
0.339369
0.312604
0.289228
0.268823
0.251067
0.235717
0.222595
0.211579
0.202597
0.195624
0.190685
0.187849
0.187238
0.189027
0.193447
0.200782
0.211362
0.225551
0.243714
0.266187
0.293228
0.324974
0.361399
0.402296
0.447274
0.495789
0.547179
0.600722
0.655686
0.711371
0.767143
0.822452
0.876839
0.929934
0.981449
1.03117
1.07895
1.12467
1.16828
1.20975
1.24908
1.28628
1.3214
1.35447
1.38558
1.41474
1.44202
1.46754
1.49138
1.51365
1.53445
1.55388
1.57204
1.58902
1.6049
1.61976
1.63366
1.64666
1.65879
1.67009
1.68057
1.69025
1.69914
1.70723
1.71453
1.72103
1.72672
1.73161
1.73572
1.73915
0.548657
0.493653
0.446681
0.406385
0.371669
0.341672
0.315732
0.293348
0.274153
0.257886
0.244376
0.233532
0.225333
0.219833
0.217159
0.21752
0.221212
0.228618
0.240206
0.256511
0.278094
0.305486
0.339112
0.379205
0.425732
0.478359
0.536452
0.599128
0.665342
0.733979
0.80395
0.874255
0.944033
1.01258
1.07933
1.14388
1.20594
1.26533
1.32194
1.37574
1.42672
1.47492
1.52042
1.56329
1.60362
1.64152
1.67708
1.71043
1.74169
1.77091
1.79823
1.82379
1.84771
1.87013
1.89119
1.911
1.92969
1.94735
1.96408
1.97995
1.99501
2.00932
2.0229
2.03576
2.0479
2.05931
2.06998
2.07988
2.08898
2.09726
2.10469
2.11126
2.11694
2.12175
2.1258
0.54882
0.494228
0.447924
0.408492
0.374804
0.346005
0.321481
0.300809
0.283722
0.270083
0.259867
0.253159
0.250163
0.251206
0.256753
0.267411
0.283923
0.307126
0.337878
0.376935
0.424804
0.481598
0.546934
0.619922
0.699239
0.783281
0.870341
0.958773
1.04711
1.13413
1.21889
1.30068
1.37903
1.45366
1.52442
1.59128
1.65428
1.71353
1.76916
1.82135
1.87025
1.91604
1.95889
1.99896
2.03642
2.07144
2.10415
2.13473
2.16328
2.18994
2.21489
2.2383
2.26033
2.28114
2.30087
2.31967
2.33765
2.35492
2.37155
2.3876
2.40312
2.41812
2.43258
2.4465
2.45984
2.47256
2.48459
2.49589
2.50641
2.51608
2.52487
2.53273
2.53963
2.54558
2.55066
0.549195
0.495446
0.450375
0.412431
0.380442
0.353607
0.331427
0.313645
0.300196
0.291189
0.286908
0.287827
0.294635
0.308247
0.329804
0.360602
0.401957
0.454981
0.520302
0.597814
0.68655
0.784734
0.890008
0.999757
1.11142
1.22273
1.33185
1.43738
1.53838
1.63424
1.72466
1.80955
1.88899
1.96314
2.03225
2.0966
2.15649
2.2122
2.26404
2.31228
2.35718
2.39898
2.43789
2.47413
2.50789
2.53934
2.56868
2.59603
2.62155
2.64545
2.6679
2.68911
2.70924
2.72849
2.747
2.76492
2.78236
2.79943
2.81619
2.83268
2.84891
2.86486
2.8805
2.89577
2.9106
2.92491
2.93862
2.95163
2.96387
2.97526
2.98573
2.99521
3.00367
3.01108
3.01753
0.549994
0.497825
0.454848
0.419289
0.389977
0.366273
0.347938
0.335046
0.327943
0.32726
0.333945
0.34931
0.375036
0.413106
0.46558
0.534211
0.61993
0.722395
0.839792
0.969022
1.1062
1.24725
1.38849
1.52687
1.66014
1.78681
1.906
2.01733
2.12077
2.21653
2.30497
2.38653
2.4617
2.53099
2.59487
2.65382
2.70826
2.75859
2.80516
2.84831
2.88831
2.92543
2.9599
2.99192
3.02171
3.04943
3.07525
3.09931
3.12184
3.14303
3.16309
3.18223
3.20064
3.2185
3.236
3.25326
3.2704
3.28752
3.30465
3.32182
3.339
3.35616
3.37321
3.39007
3.40663
3.42278
3.4384
3.45337
3.46758
3.48093
3.49333
3.5047
3.51498
3.52415
3.53225
0.551572
0.502144
0.462491
0.430575
0.405384
0.386669
0.374721
0.370286
0.374571
0.389323
0.416894
0.460212
0.522523
0.606781
0.714752
0.846117
0.99805
1.16556
1.34246
1.52252
1.70035
1.87185
2.03428
2.18606
2.3265
2.45559
2.57369
2.68144
2.77961
2.86901
2.95045
3.0247
3.09249
3.15448
3.21126
3.26338
3.31131
3.35547
3.39622
3.4339
3.46877
3.50108
3.53106
3.55889
3.58478
3.60885
3.63127
3.65224
3.67196
3.69067
3.70856
3.72586
3.74279
3.75952
3.77624
3.79309
3.81018
3.82758
3.84531
3.86338
3.88173
3.90029
3.91895
3.9376
3.95608
3.97425
3.99196
4.00908
4.02545
4.04096
4.0555
4.06897
4.08129
4.09243
4.1024
0.55449
0.509515
0.474874
0.448389
0.429558
0.418956
0.417945
0.428659
0.454136
0.498425
0.566438
0.663225
0.792544
0.95509
1.14733
1.36182
1.58889
1.81885
2.04358
2.25729
2.45647
2.63945
2.80589
2.95629
3.09168
3.2133
3.32248
3.42054
3.50873
3.58817
3.6599
3.72483
3.78376
3.8374
3.88637
3.93119
3.97234
4.01021
4.04514
4.07743
4.10731
4.13501
4.16073
4.18462
4.20684
4.22751
4.24683
4.26498
4.2822
4.2987
4.31471
4.33045
4.34615
4.36201
4.3782
4.39487
4.41211
4.42998
4.44851
4.46764
4.48732
4.50744
4.52785
4.54841
4.56894
4.58926
4.6092
4.62859
4.64727
4.66509
4.68192
4.69766
4.7122
4.72551
4.73754
0.559583
0.521462
0.494144
0.475753
0.466982
0.470068
0.48856
0.527523
0.593716
0.69517
0.839487
1.03078
1.2666
1.53718
1.82787
2.12319
2.41021
2.68004
2.92774
3.15142
3.35124
3.52854
3.68531
3.82373
3.94595
4.05401
4.14977
4.23485
4.31069
4.37852
4.43942
4.49431
4.54398
4.58908
4.63021
4.66785
4.70242
4.73426
4.76367
4.7909
4.81615
4.83961
4.86142
4.88173
4.90062
4.91825
4.93481
4.95049
4.96553
4.98013
4.99454
5.009
5.02374
5.03895
5.05482
5.0715
5.08906
5.10757
5.12701
5.14733
5.16843
5.19018
5.21242
5.23497
5.25761
5.28015
5.3024
5.32414
5.34521
5.36544
5.38467
5.40279
5.41969
5.43531
5.44956
0.568046
0.540055
0.523319
0.517269
0.525073
0.552333
0.607175
0.700596
0.845582
1.05349
1.3279
1.65988
2.02915
2.41088
2.78314
3.13077
3.44567
3.72519
3.97012
4.18314
4.36773
4.52749
4.66589
4.78604
4.89065
4.98209
5.06235
5.13311
5.19579
5.25161
5.30154
5.34646
5.38705
5.42393
5.4576
5.48846
5.51689
5.54316
5.56751
5.59015
5.61122
5.63087
5.64922
5.66632
5.68229
5.69728
5.71146
5.72504
5.73823
5.75125
5.76436
5.77779
5.79178
5.80655
5.82228
5.8391
5.85711
5.87633
5.89675
5.9183
5.94085
5.96426
5.98833
6.01286
6.03762
6.06239
6.08695
6.11107
6.13456
6.15723
6.17893
6.1995
6.21884
6.23686
6.25343
0.581544
0.568148
0.56688
0.580426
0.616956
0.689037
0.814135
1.0132
1.30366
1.68754
2.14433
2.63718
3.1276
3.58692
3.99935
4.35958
4.66893
4.93203
5.15478
5.34317
5.50268
5.63813
5.7536
5.8525
5.93765
6.01139
6.07561
6.1319
6.18155
6.22562
6.265
6.30042
6.33247
6.36167
6.38842
6.41308
6.43591
6.45715
6.47697
6.49553
6.51292
6.52925
6.54456
6.55889
6.57237
6.58514
6.59735
6.60918
6.62086
6.63261
6.64468
6.65732
6.67078
6.68527
6.70098
6.71805
6.73655
6.75652
6.77793
6.80068
6.82464
6.84965
6.87549
6.90194
6.92876
6.95569
6.9825
7.00895
7.03482
7.05992
7.08407
7.10711
7.12891
7.14937
7.16832
0.6024
0.609839
0.631903
0.678265
0.767348
0.926113
1.18836
1.58242
2.10857
2.72746
3.37659
3.99885
4.55868
5.04194
5.44872
5.78634
6.06468
6.2937
6.48236
6.63827
6.76773
6.8758
6.96659
7.04337
7.10877
7.16489
7.21342
7.25574
7.29294
7.32591
7.35539
7.38198
7.40615
7.42831
7.44878
7.46782
7.48565
7.50242
7.51826
7.53326
7.54748
7.56096
7.57368
7.58571
7.59715
7.60811
7.61874
7.6292
7.6397
7.65048
7.66178
7.67387
7.68698
7.70134
7.71713
7.73449
7.75351
7.7742
7.79653
7.82041
7.84569
7.87217
7.89966
7.92789
7.95662
7.98558
8.01451
8.04317
8.07132
8.09876
8.12528
8.15072
8.17493
8.19782
8.21912
0.633903
0.671346
0.73035
0.835057
1.02526
1.35491
1.87316
2.582
3.41343
4.26465
5.05167
5.73151
6.29488
6.75093
7.1158
7.40645
7.63802
7.82307
7.97166
8.09167
8.18926
8.26921
8.33522
8.3902
8.43639
8.47559
8.5092
8.53832
8.56385
8.58649
8.60682
8.62528
8.64226
8.65803
8.67285
8.68688
8.70028
8.71313
8.72552
8.73747
8.74901
8.7601
8.77071
8.78091
8.79077
8.80036
8.80981
8.81929
8.82897
8.8391
8.84992
8.86167
8.87462
8.88897
8.90493
8.92263
8.94215
8.96351
8.98668
9.01156
9.03799
9.06579
9.09472
9.12454
9.15498
9.18576
9.21662
9.24729
9.27754
9.30713
9.33587
9.36357
9.39007
9.41526
9.43883
0.680892
0.762711
0.883889
1.0988
1.49025
2.14654
3.08538
4.19938
5.32037
6.32173
7.15124
7.80921
8.3194
8.711
9.01073
9.24048
9.41726
9.554
9.6604
9.74375
9.80952
9.86183
9.9038
9.93782
9.96572
9.9889
10.0084
10.0252
10.0399
10.053
10.0648
10.0759
10.0863
10.0963
10.106
10.1156
10.1251
10.1346
10.144
10.1535
10.1628
10.172