/*--------------------------------*- C++ -*----------------------------------*\
  =========                 |
  \\      /  F ield         | OpenFOAM: The Open Source CFD Toolbox
   \\    /   O peration     | Website:  https://openfoam.org
    \\  /    A nd           | Version:  7
     \\/     M anipulation  |
\*---------------------------------------------------------------------------*/
FoamFile
{
    version     2.0;
    format      ascii;
    class       volScalarField;
    location    "550";
    object      k;
}
// * * * * * * * * * * * * * * * * * * * * * * * * * * * * * * * * * * * * * //

dimensions      [0 2 -2 0 0 0 0];

internalField   nonuniform List<scalar> 
4500
(
2.10711
1.99003
1.89804
1.8345
1.78632
1.74875
1.71881
1.69443
1.67421
1.65718
1.64268
1.6302
1.61939
1.60996
1.6017
1.59444
1.58803
1.58238
1.57737
1.57295
1.56904
1.56558
1.56254
1.55986
1.55753
1.55549
1.55374
1.55223
1.55096
1.54991
1.54905
1.54837
1.54786
1.54751
1.54731
1.54723
1.54729
1.54745
1.54773
1.54811
1.54858
1.54915
1.5498
1.55053
1.55135
1.55224
1.55322
1.55427
1.55539
1.55659
1.55786
1.5592
1.5606
1.56206
1.56356
1.56511
1.56668
1.56826
1.56985
1.57143
1.57299
1.57452
1.576
1.57742
1.57878
1.58007
1.58128
1.58239
1.58342
1.58435
1.58518
1.58591
1.58654
1.58707
1.58752
1.10354
1.6732
1.8379
1.85191
1.83283
1.80901
1.78664
1.7669
1.74973
1.73484
1.72188
1.71057
1.70066
1.69195
1.68428
1.6775
1.67151
1.6662
1.66151
1.65736
1.6537
1.65047
1.64764
1.64516
1.64301
1.64115
1.63956
1.63823
1.63712
1.63622
1.63551
1.63499
1.63463
1.63443
1.63437
1.63444
1.63464
1.63494
1.63535
1.63587
1.63647
1.63717
1.63796
1.63883
1.63977
1.6408
1.6419
1.64308
1.64433
1.64564
1.64703
1.64848
1.64998
1.65154
1.65313
1.65476
1.65642
1.65808
1.65975
1.6614
1.66303
1.66462
1.66616
1.66765
1.66907
1.67041
1.67168
1.67285
1.67393
1.67492
1.6758
1.67659
1.67728
1.67786
1.67836
0.644943
1.23225
1.53537
1.63719
1.66542
1.66864
1.66318
1.65482
1.64581
1.63702
1.62881
1.62129
1.61447
1.60833
1.60283
1.5979
1.59351
1.5896
1.58613
1.58307
1.58037
1.578
1.57594
1.57416
1.57264
1.57135
1.57029
1.56943
1.56875
1.56825
1.56791
1.56772
1.56767
1.56774
1.56794
1.56826
1.56867
1.56918
1.56977
1.57045
1.5712
1.57204
1.57294
1.57391
1.57494
1.57604
1.57719
1.57841
1.57968
1.58102
1.58241
1.58385
1.58535
1.5869
1.58849
1.59012
1.59177
1.59345
1.59514
1.59683
1.59851
1.60017
1.6018
1.60338
1.60492
1.60638
1.60778
1.6091
1.61034
1.61149
1.61255
1.61351
1.61437
1.61514
1.6158
0.463615
0.893401
1.25805
1.43575
1.5127
1.54555
1.55894
1.56332
1.56337
1.56132
1.55829
1.55487
1.55137
1.54798
1.54477
1.54181
1.5391
1.53665
1.53446
1.53253
1.53083
1.52936
1.52811
1.52705
1.52619
1.5255
1.52498
1.52462
1.5244
1.52432
1.52436
1.52453
1.52481
1.52519
1.52567
1.52625
1.52691
1.52764
1.52844
1.52931
1.53024
1.53123
1.53227
1.53337
1.53451
1.5357
1.53694
1.53822
1.53955
1.54093
1.54236
1.54384
1.54538
1.54697
1.54861
1.55029
1.55202
1.55378
1.55557
1.55738
1.5592
1.56101
1.56281
1.56458
1.5663
1.56798
1.5696
1.57115
1.57262
1.57401
1.5753
1.5765
1.5776
1.57859
1.57948
0.39407
0.646738
0.998479
1.23088
1.35547
1.4206
1.45545
1.47456
1.48513
1.49089
1.49385
1.49516
1.49547
1.49521
1.49462
1.49387
1.49306
1.49226
1.49151
1.49084
1.49026
1.48979
1.48943
1.48919
1.48906
1.48904
1.48912
1.48932
1.48961
1.49
1.49048
1.49104
1.49169
1.49242
1.49323
1.4941
1.49503
1.49602
1.49706
1.49815
1.49929
1.50046
1.50167
1.50291
1.50419
1.5055
1.50684
1.50822
1.50963
1.51109
1.51259
1.51414
1.51575
1.51742
1.51915
1.52094
1.52279
1.5247
1.52665
1.52864
1.53065
1.53268
1.53471
1.53673
1.53872
1.54067
1.54257
1.5444
1.54615
1.54782
1.5494
1.55087
1.55224
1.5535
1.55462
0.370615
0.488905
0.769299
1.02349
1.18836
1.28645
1.34497
1.38088
1.40366
1.41854
1.4285
1.43532
1.44007
1.44345
1.44589
1.4477
1.44908
1.45017
1.45107
1.45184
1.45255
1.45323
1.45389
1.45457
1.45527
1.45601
1.45679
1.45761
1.45848
1.45941
1.46038
1.4614
1.46248
1.4636
1.46476
1.46598
1.46723
1.46852
1.46983
1.47117
1.47254
1.47393
1.47534
1.47676
1.4782
1.47965
1.48112
1.48261
1.48414
1.48569
1.4873
1.48895
1.49067
1.49246
1.49433
1.49627
1.49829
1.50038
1.50254
1.50475
1.50702
1.50931
1.51162
1.51393
1.51623
1.51849
1.52071
1.52285
1.52493
1.52691
1.52879
1.53056
1.53221
1.53374
1.53512
0.364546
0.403111
0.587007
0.823641
1.01304
1.14094
1.22398
1.27842
1.31506
1.34046
1.35856
1.3718
1.38173
1.38935
1.39533
1.40011
1.40404
1.40732
1.41012
1.41258
1.41476
1.41675
1.4186
1.42033
1.42199
1.4236
1.42517
1.42672
1.42826
1.42979
1.43133
1.43287
1.43443
1.436
1.43758
1.43919
1.4408
1.44243
1.44406
1.44569
1.44733
1.44897
1.4506
1.45223
1.45386
1.45549
1.45712
1.45876
1.46042
1.46211
1.46385
1.46564
1.46751
1.46945
1.47148
1.47361
1.47584
1.47815
1.48056
1.48304
1.48559
1.48818
1.49081
1.49344
1.49607
1.49867
1.50122
1.50371
1.50611
1.50841
1.5106
1.51267
1.51461
1.51641
1.51804
0.364603
0.363346
0.460994
0.64658
0.836783
0.985712
1.09154
1.16521
1.21704
1.25428
1.28169
1.30236
1.31829
1.33084
1.34093
1.34918
1.35605
1.36188
1.3669
1.37129
1.37519
1.3787
1.38191
1.38487
1.38763
1.39024
1.39272
1.3951
1.3974
1.39963
1.40182
1.40396
1.40607
1.40816
1.41022
1.41227
1.4143
1.41632
1.41831
1.42028
1.42223
1.42415
1.42605
1.42793
1.42978
1.43162
1.43344
1.43526
1.4371
1.43896
1.44086
1.44282
1.44487
1.447
1.44923
1.45158
1.45404
1.45661
1.45929
1.46207
1.46492
1.46784
1.47079
1.47377
1.47675
1.47969
1.48259
1.48541
1.48815
1.49077
1.49327
1.49563
1.49784
1.4999
1.50176
0.366685
0.347483
0.386684
0.507132
0.671669
0.826391
0.949252
1.04089
1.10836
1.15845
1.19625
1.22534
1.24815
1.26638
1.28121
1.29348
1.30378
1.31256
1.32014
1.32678
1.33266
1.33794
1.34271
1.34708
1.35112
1.35488
1.35841
1.36175
1.36493
1.36797
1.3709
1.37373
1.37647
1.37915
1.38176
1.38432
1.38683
1.38929
1.3917
1.39406
1.39637
1.39863
1.40084
1.403
1.40512
1.4072
1.40925
1.41129
1.41333
1.4154
1.4175
1.41967
1.42192
1.42427
1.42674
1.42933
1.43205
1.4349
1.43787
1.44096
1.44413
1.44738
1.45068
1.454
1.45732
1.46061
1.46385
1.467
1.47006
1.47299
1.47578
1.47842
1.48089
1.48318
1.48525
0.369317
0.342581
0.348917
0.412157
0.531963
0.672822
0.801903
0.907129
0.989078
1.05222
1.10113
1.13949
1.17002
1.1947
1.21496
1.23184
1.24608
1.25827
1.26882
1.27805
1.28623
1.29353
1.30012
1.30612
1.31163
1.31672
1.32146
1.3259
1.33009
1.33406
1.33784
1.34146
1.34494
1.3483
1.35154
1.35468
1.35774
1.36071
1.3636
1.3664
1.36913
1.37177
1.37434
1.37684
1.37927
1.38164
1.38397
1.38627
1.38856
1.39086
1.3932
1.3956
1.3981
1.40069
1.40342
1.40628
1.40928
1.41242
1.4157
1.4191
1.4226
1.42618
1.42982
1.43348
1.43713
1.44075
1.44431
1.44778
1.45114
1.45436
1.45742
1.4603
1.463
1.4655
1.46776
0.371958
0.342445
0.332102
0.356566
0.42837
0.537786
0.658014
0.768348
0.860997
0.935939
0.995905
1.044
1.08291
1.11474
1.1411
1.16319
1.18194
1.19802
1.21198
1.2242
1.23501
1.24466
1.25334
1.26122
1.26842
1.27504
1.28118
1.28689
1.29224
1.29728
1.30205
1.30658
1.3109
1.31503
1.319
1.32282
1.3265
1.33006
1.33349
1.33681
1.34002
1.34311
1.34609
1.34898
1.35177
1.35449
1.35714
1.35974
1.36232
1.3649
1.36752
1.37019
1.37296
1.37583
1.37883
1.38198
1.38527
1.38871
1.3923
1.39601
1.39983
1.40374
1.4077
1.41168
1.41565
1.41959
1.42345
1.4272
1.43083
1.43431
1.43761
1.44071
1.44361
1.44629
1.4487
0.374409
0.344309
0.325896
0.328085
0.362098
0.432748
0.529167
0.632415
0.728536
0.811707
0.881286
0.938793
0.986292
1.02573
1.05874
1.08663
1.11042
1.13091
1.14873
1.16436
1.17819
1.19052
1.20161
1.21164
1.22079
1.22918
1.23691
1.24409
1.25078
1.25705
1.26294
1.26851
1.2738
1.27883
1.28363
1.28822
1.29263
1.29686
1.30092
1.30483
1.30859
1.3122
1.31567
1.31901
1.32222
1.32534
1.32836
1.33132
1.33424
1.33714
1.34007
1.34305
1.34612
1.34929
1.35259
1.35603
1.35963
1.36337
1.36727
1.37129
1.37542
1.37963
1.38389
1.38817
1.39244
1.39665
1.40078
1.4048
1.40867
1.41237
1.41587
1.41916
1.42223
1.42505
1.42758
0.376595
0.346935
0.32478
0.315189
0.325142
0.361913
0.426574
0.510145
0.599357
0.684171
0.759763
0.824969
0.880429
0.92743
0.967348
1.00143
1.03072
1.05608
1.07822
1.09769
1.11493
1.13032
1.14415
1.15665
1.16802
1.17843
1.188
1.19685
1.20508
1.21276
1.21995
1.22672
1.23311
1.23917
1.24493
1.25041
1.25564
1.26064
1.26543
1.27002
1.27442
1.27862
1.28265
1.28651
1.29022
1.2938
1.29726
1.30063
1.30394
1.30722
1.3105
1.31383
1.31722
1.32071
1.32433
1.32808
1.33198
1.33603
1.34023
1.34454
1.34896
1.35346
1.358
1.36256
1.36708
1.37155
1.37591
1.38015
1.38423
1.38812
1.39179
1.39523
1.39842
1.40135
1.40398
0.378494
0.349749
0.326042
0.310425
0.306798
0.320311
0.355502
0.412199
0.483847
0.561114
0.636428
0.705553
0.766924
0.820518
0.867011
0.907312
0.942336
0.972909
0.999742
1.02343
1.04448
1.06329
1.08019
1.09548
1.10938
1.12209
1.13376
1.14452
1.1545
1.1638
1.17248
1.18062
1.18828
1.19552
1.20237
1.20887
1.21505
1.22094
1.22657
1.23193
1.23706
1.24195
1.24663
1.2511
1.25537
1.25948
1.26345
1.26729
1.27105
1.27475
1.27844
1.28215
1.2859
1.28975
1.2937
1.29777
1.30199
1.30634
1.31082
1.31542
1.32011
1.32487
1.32966
1.33445
1.33921
1.34389
1.34845
1.35288
1.35712
1.36116
1.36496
1.36852
1.37181
1.37481
1.3775
0.380104
0.352469
0.328352
0.309741
0.298825
0.298554
0.31258
0.343818
0.391993
0.452699
0.519406
0.586268
0.64949
0.707223
0.758929
0.804788
0.845312
0.881119
0.912829
0.94101
0.96616
0.988712
1.00903
1.02742
1.04416
1.05945
1.07348
1.08642
1.09839
1.10952
1.11989
1.1296
1.13872
1.1473
1.1554
1.16307
1.17034
1.17725
1.18382
1.19008
1.19605
1.20173
1.20715
1.21232
1.21725
1.22198
1.22652
1.23091
1.23519
1.23937
1.24351
1.24765
1.25181
1.25602
1.26033
1.26474
1.26927
1.27392
1.27868
1.28355
1.28849
1.29349
1.2985
1.3035
1.30845
1.31331
1.31804
1.3226
1.32698
1.33113
1.33503
1.33866
1.34201
1.34506
1.34778
0.381432
0.354953
0.331036
0.311052
0.296302
0.288389
0.289475
0.302115
0.328313
0.36807
0.418684
0.475701
0.534633
0.59211
0.646117
0.695722
0.740693
0.781189
0.817558
0.850219
0.879597
0.906091
0.930062
0.951828
0.971665
0.989815
1.00648
1.02185
1.03606
1.04926
1.06155
1.07303
1.08379
1.0939
1.10343
1.11243
1.12094
1.12901
1.13667
1.14395
1.15088
1.15747
1.16374
1.16971
1.1754
1.18083
1.18605
1.19106
1.19592
1.20066
1.20531
1.20992
1.21453
1.21916
1.22384
1.22861
1.23346
1.23841
1.24345
1.24857
1.25374
1.25895
1.26416
1.26934
1.27444
1.27944
1.2843
1.28897
1.29344
1.29767
1.30163
1.30531
1.30869
1.31175
1.31447
0.382496
0.357126
0.333732
0.313269
0.296566
0.284515
0.278275
0.279385
0.28963
0.310488
0.342261
0.383516
0.431393
0.482568
0.53415
0.584096
0.631194
0.674873
0.714976
0.751595
0.784951
0.815323
0.843002
0.868273
0.8914
0.912621
0.932149
0.950173
0.966858
0.982351
0.996777
1.01025
1.02286
1.0347
1.04583
1.05634
1.06626
1.07565
1.08454
1.09299
1.10101
1.10863
1.11587
1.12276
1.12931
1.13556
1.14154
1.14727
1.1528
1.15817
1.1634
1.16855
1.17365
1.17873
1.18383
1.18897
1.19416
1.19942
1.20473
1.21009
1.21549
1.22089
1.22626
1.23159
1.23682
1.24193
1.24687
1.25163
1.25615
1.26042
1.26442
1.26811
1.27149
1.27455
1.27725
0.383317
0.358954
0.336237
0.315805
0.298201
0.28395
0.27367
0.268176
0.268537
0.276002
0.291697
0.316126
0.348733
0.387879
0.431278
0.47661
0.521952
0.565944
0.607754
0.646952
0.683386
0.71708
0.748158
0.776798
0.803195
0.827551
0.850059
0.870898
0.890233
0.908214
0.924972
0.940628
0.955287
0.969043
0.981978
0.994165
1.00567
1.01654
1.02684
1.0366
1.04585
1.05464
1.06299
1.07092
1.07846
1.08564
1.09249
1.09904
1.10533
1.1114
1.1173
1.12305
1.12871
1.1343
1.13985
1.1454
1.15095
1.15653
1.16212
1.16772
1.17332
1.1789
1.18443
1.18987
1.19521
1.2004
1.2054
1.2102
1.21476
1.21904
1.22304
1.22672
1.23008
1.2331
1.23576
0.383926
0.360429
0.338437
0.318319
0.300425
0.285071
0.272597
0.26342
0.258096
0.257353
0.262057
0.273062
0.290942
0.315686
0.346543
0.382133
0.420773
0.460828
0.500941
0.540122
0.577726
0.61338
0.646914
0.678293
0.707566
0.734832
0.760217
0.783859
0.805894
0.826457
0.845674
0.863661
0.880526
0.896365
0.911267
0.925309
0.938561
0.951086
0.962938
0.974165
0.984809
0.994909
1.0045
1.01361
1.02226
1.03049
1.03833
1.04581
1.05297
1.05984
1.06648
1.07292
1.0792
1.08536
1.09142
1.09742
1.10337
1.10928
1.11517
1.12102
1.12683
1.13258
1.13824
1.1438
1.14921
1.15446
1.1595
1.16432
1.16888
1.17316
1.17713
1.18079
1.1841
1.18708
1.18969
0.384356
0.361567
0.340271
0.320613
0.302785
0.286971
0.273357
0.262155
0.253642
0.248183
0.246262
0.248465
0.255422
0.267671
0.285474
0.308658
0.336564
0.368157
0.40222
0.437572
0.473202
0.508334
0.542423
0.575121
0.606232
0.63567
0.663425
0.689534
0.714068
0.73711
0.758756
0.779099
0.798234
0.81625
0.833232
0.849255
0.864393
0.878709
0.892261
0.905102
0.917278
0.928831
0.939798
0.950215
0.960113
0.96952
0.978467
0.986989
0.995126
1.00292
1.0104
1.01761
1.0246
1.03139
1.03802
1.04452
1.05091
1.05721
1.06341
1.06953
1.07556
1.08148
1.08728
1.09293
1.09842
1.10371
1.10877
1.1136
1.11814
1.1224
1.12634
1.12995
1.13321
1.13613
1.13869
0.384645
0.3624
0.341721
0.322574
0.305012
0.28912
0.274988
0.262719
0.252442
0.244331
0.238618
0.235613
0.235703
0.239328
0.246928
0.258848
0.275219
0.295877
0.320342
0.347879
0.377621
0.408696
0.440324
0.471868
0.502846
0.532919
0.561867
0.589563
0.615944
0.641
0.664751
0.687239
0.708519
0.728652
0.747704
0.765739
0.78282
0.799007
0.814355
0.828915
0.842735
0.855858
0.868324
0.880169
0.891427
0.902131
0.912309
0.921992
0.931217
0.940024
0.94845
0.956533
0.964313
0.971824
0.979099
0.986168
0.993053
0.999772
1.00634
1.01275
1.01902
1.02513
1.03107
1.03683
1.04239
1.04772
1.0528
1.05762
1.06215
1.06637
1.07027
1.07383
1.07705
1.07991
1.08242
0.384827
0.362976
0.342805
0.324148
0.306947
0.291198
0.276922
0.264155
0.252946
0.243368
0.235524
0.229553
0.225648
0.224051
0.225056
0.228985
0.236149
0.246788
0.260999
0.278687
0.299546
0.323088
0.348708
0.375765
0.403652
0.431835
0.459883
0.487464
0.514338
0.540342
0.565373
0.589375
0.612327
0.634232
0.65511
0.674992
0.693915
0.711921
0.729052
0.74535
0.760857
0.775609
0.789646
0.803001
0.815708
0.827799
0.839304
0.850249
0.860665
0.870589
0.880056
0.889103
0.897767
0.906081
0.914078
0.921786
0.929232
0.936434
0.943409
0.950167
0.95671
0.963039
0.969148
0.975028
0.980667
0.986049
0.991159
0.995981
1.0005
1.0047
1.00856
1.01209
1.01526
1.01809
1.02056
0.384935
0.363349
0.343566
0.325333
0.308509
0.293015
0.278815
0.265893
0.254251
0.243905
0.234889
0.227257
0.221089
0.216497
0.213627
0.212662
0.213817
0.217326
0.223417
0.232273
0.243994
0.258559
0.275806
0.295441
0.317067
0.340231
0.364466
0.389336
0.414459
0.439515
0.464253
0.488484
0.51207
0.534916
0.556964
0.57818
0.598551
0.618079
0.636774
0.654654
0.671743
0.688063
0.70364
0.718502
0.732675
0.746186
0.75906
0.771325
0.783
0.794114
0.8047
0.81479
0.824416
0.833611
0.842406
0.850828
0.858903
0.866653
0.874097
0.881249
0.888119
0.894711
0.901027
0.907065
0.912819
0.918283
0.923446
0.928298
0.932831
0.937033
0.940896
0.944413
0.947578
0.950395
0.952872
0.384994
0.363574
0.344062
0.326166
0.309682
0.294477
0.280464
0.267588
0.255813
0.24512
0.235503
0.226971
0.219547
0.21327
0.208201
0.204423
0.202042
0.201191
0.202024
0.20471
0.209419
0.216301
0.22546
0.236932
0.250663
0.266508
0.284234
0.303546
0.32411
0.345586
0.367651
0.390012
0.41242
0.434669
0.456596
0.478074
0.499011
0.519341
0.539017
0.558013
0.576311
0.593908
0.610802
0.627002
0.642516
0.657358
0.671544
0.685091
0.698017
0.710334
0.722063
0.733232
0.743867
0.753996
0.763645
0.772841
0.781609
0.789971
0.797949
0.805559
0.812816
0.819732
0.826313
0.832566
0.838493
0.844092
0.849362
0.854299
0.8589
0.863161
0.867076
0.870643
0.87386
0.876732
0.879275
0.385025
0.363699
0.344363
0.326707
0.310498
0.295561
0.281772
0.269042
0.257306
0.246517
0.236644
0.227667
0.219578
0.21238
0.206088
0.20073
0.196348
0.193
0.190761
0.189721
0.18999
0.191688
0.19494
0.199869
0.206575
0.215125
0.225537
0.237769
0.251715
0.267211
0.284048
0.301987
0.320777
0.340173
0.359944
0.379886
0.399822
0.419605
0.439113
0.45825
0.476943
0.495133
0.512778
0.529848
0.546322
0.562186
0.577434
0.592064
0.606079
0.619485
0.63228
0.644477
0.656094
0.667151
0.677667
0.687664
0.697165
0.70619
0.71476
0.722895
0.730614
0.737931
0.744861
0.751415
0.757601
0.763426
0.768895
0.774012
0.778777
0.783193
0.78726
0.790978
0.794348
0.797379
0.800091
0.385039
0.363763
0.344529
0.327031
0.311019
0.296298
0.282719
0.270166
0.25855
0.247804
0.237875
0.228725
0.220326
0.21266
0.205716
0.199495
0.194005
0.189262
0.185294
0.182139
0.179847
0.178479
0.178108
0.178817
0.180697
0.18384
0.188336
0.194259
0.201662
0.210564
0.220946
0.232746
0.24586
0.260148
0.275447
0.291573
0.30834
0.325567
0.343082
0.360731
0.378377
0.395902
0.413206
0.430207
0.446835
0.463037
0.478769
0.493996
0.508694
0.522846
0.536439
0.549455
0.561895
0.573765
0.585073
0.595832
0.606056
0.615763
0.62497
0.633696
0.641959
0.649778
0.657169
0.664147
0.670727
0.676919
0.682735
0.688182
0.693267
0.697996
0.702373
0.706402
0.710087
0.713437
0.716476
0.385045
0.363793
0.344613
0.327207
0.311323
0.296756
0.283344
0.270952
0.259476
0.248832
0.238951
0.229781
0.221278
0.213411
0.206155
0.199492
0.193412
0.187912
0.182994
0.178668
0.17495
0.171863
0.169439
0.167716
0.166741
0.16657
0.167264
0.16889
0.171516
0.175209
0.180029
0.18602
0.19321
0.2016
0.211164
0.221846
0.233564
0.246209
0.259658
0.273773
0.288414
0.303441
0.31872
0.334125
0.349545
0.364877
0.380034
0.39494
0.409531
0.423754
0.437567
0.450935
0.463823
0.476213
0.488095
0.499466
0.510325
0.520679
0.530536
0.539909
0.548811
0.557257
0.565261
0.572838
0.580003
0.586768
0.593145
0.599146
0.604777
0.610049
0.614966
0.619535
0.62376
0.627651
0.631228
0.385047
0.363805
0.344651
0.327293
0.311482
0.297013
0.283715
0.271447
0.260093
0.249557
0.239761
0.230639
0.22214
0.21422
0.206844
0.199984
0.193619
0.187734
0.182318
0.177365
0.172874
0.16885
0.165302
0.162241
0.159688
0.157665
0.156202
0.155334
0.155098
0.155542
0.156711
0.158657
0.16143
0.165076
0.169635
0.175137
0.181598
0.189016
0.197369
0.206616
0.216695
0.22753
0.239027
0.251086
0.263598
0.276456
0.289552
0.302785
0.316059
0.32929
0.342402
0.355329
0.368013
0.380399
0.392448
0.404131
0.415423
0.426308
0.436778
0.446826
0.456451
0.465656
0.474445
0.482824
0.490801
0.498383
0.505578
0.512394
0.518838
0.524916
0.530634
0.535997
0.541009
0.54568
0.55002
0.385048
0.36381
0.344666
0.32733
0.311556
0.29714
0.28391
0.271721
0.260452
0.250001
0.240283
0.231225
0.222767
0.214859
0.207459
0.200533
0.194052
0.187994
0.18234
0.177077
0.172195
0.167688
0.163555
0.159795
0.156413
0.153417
0.150818
0.148631
0.146872
0.145563
0.144731
0.144402
0.14461
0.145388
0.146775
0.148806
0.15152
0.154949
0.159123
0.164064
0.169783
0.17628
0.183541
0.19154
0.200234
0.209571
0.219484
0.229901
0.240741
0.251921
0.263359
0.274971
0.286683
0.298416
0.310101
0.321674
0.33308
0.344272
0.355208
0.365855
0.376186
0.386181
0.395822
0.4051
0.414007
0.422537
0.430689
0.438464
0.445861
0.452884
0.459534
0.465815
0.47173
0.477284
0.48248
0.385048
0.363811
0.344671
0.327343
0.311584
0.297191
0.283992
0.271841
0.260616
0.250212
0.24054
0.231524
0.2231
0.215215
0.207823
0.200885
0.19437
0.18825
0.182505
0.177117
0.172072
0.16736
0.162973
0.158908
0.155163
0.151739
0.148639
0.14587
0.14344
0.14136
0.139644
0.138308
0.137371
0.136854
0.136782
0.137182
0.138083
0.139516
0.141514
0.144108
0.14733
0.151209
0.155768
0.161025
0.166989
0.173659
0.181022
0.189052
0.197712
0.206952
0.21671
0.226916
0.237497
0.248371
0.259455
0.270667
0.281926
0.293158
0.304296
0.31528
0.326057
0.336584
0.346825
0.356749
0.366336
0.375568
0.384433
0.392922
0.401031
0.408757
0.4161
0.423059
0.429637
0.435837
0.441655
0.385048
0.363811
0.344671
0.327343
0.311584
0.297191
0.283992
0.271841
0.260616
0.250212
0.24054
0.231524
0.2231
0.215215
0.207823
0.200885
0.19437
0.18825
0.182505
0.177117
0.172072
0.16736
0.162973
0.158908
0.155163
0.151739
0.148639
0.14587
0.14344
0.14136
0.139644
0.138307
0.13737
0.136853
0.136781
0.137181
0.138082
0.139515
0.141513
0.144107
0.147329
0.151208
0.155767
0.161024
0.166988
0.173658
0.181021
0.189052
0.197712
0.206952
0.216711
0.226919
0.2375
0.248375
0.25946
0.270673
0.281934
0.293168
0.304308
0.315294
0.326074
0.336603
0.346847
0.356774
0.366365
0.3756
0.384469
0.392962
0.401076
0.408807
0.416155
0.42312
0.429704
0.43591
0.441734
0.385048
0.36381
0.344666
0.32733
0.311556
0.29714
0.28391
0.271721
0.260452
0.250001
0.240283
0.231225
0.222767
0.214859
0.207459
0.200533
0.194052
0.187994
0.18234
0.177077
0.172194
0.167688
0.163554
0.159794
0.156412
0.153416
0.150817
0.148628
0.146869
0.14556
0.144727
0.144397
0.144604
0.145382
0.146767
0.148798
0.15151
0.154938
0.159111
0.16405
0.169767
0.176262
0.183522
0.191519
0.200213
0.209548
0.219461
0.229877
0.240718
0.251899
0.263338
0.274952
0.286666
0.298403
0.310092
0.321671
0.333083
0.344281
0.355225
0.36588
0.37622
0.386224
0.395876
0.405165
0.414083
0.422625
0.430791
0.438579
0.445991
0.453028
0.459694
0.46599
0.471921
0.477491
0.482703
0.385047
0.363805
0.344651
0.327293
0.311482
0.297013
0.283715
0.271447
0.260093
0.249557
0.239761
0.23064
0.222141
0.21422
0.206844
0.199984
0.193619
0.187734
0.182317
0.177364
0.172873
0.168849
0.165299
0.162238
0.159684
0.15766
0.156196
0.155326
0.155089
0.155531
0.156698
0.158642
0.161412
0.165055
0.169611
0.17511
0.181568
0.188982
0.197331
0.206574
0.21665
0.227481
0.238976
0.251032
0.263542
0.276399
0.289494
0.302726
0.316002
0.329235
0.342349
0.35528
0.36797
0.380363
0.392422
0.404114
0.415418
0.426317
0.436801
0.446865
0.456507
0.46573
0.474539
0.482939
0.490937
0.498541
0.505758
0.512597
0.519064
0.525165
0.530905
0.536291
0.541326
0.546018
0.55038
0.385045
0.363793
0.344613
0.327207
0.311323
0.296757
0.283344
0.270953
0.259477
0.248833
0.238952
0.229782
0.221279
0.213412
0.206155
0.199492
0.193412
0.187911
0.182993
0.178666
0.174946
0.171858
0.169432
0.167707
0.166731
0.166557
0.167248
0.16887
0.171492
0.175181
0.179996
0.185982
0.193167
0.201551
0.211109
0.221786
0.233497
0.246137
0.259581
0.273692
0.288329
0.303353
0.318629
0.334032
0.34945
0.364782
0.37994
0.394847
0.409441
0.423668
0.437486
0.450863
0.46376
0.476162
0.488059
0.499445
0.510322
0.520697
0.530576
0.539973
0.548901
0.557373
0.565405
0.573011
0.580205
0.587
0.593407
0.599437
0.605097
0.610396
0.61534
0.619934
0.624183
0.628097
0.631695
0.385039
0.363763
0.344529
0.327031
0.311019
0.296299
0.28272
0.270167
0.258551
0.247805
0.237876
0.228726
0.220327
0.21266
0.205716
0.199494
0.194003
0.189258
0.185289
0.182132
0.179838
0.178466
0.178092
0.178796
0.180671
0.183809
0.188298
0.194215
0.20161
0.210504
0.220878
0.23267
0.245775
0.260057
0.275348
0.291468
0.30823
0.325452
0.342963
0.360609
0.378252
0.395775
0.413078
0.430079
0.446708
0.462911
0.478646
0.493877
0.50858
0.522738
0.536341
0.549369
0.561823
0.57371
0.585037
0.595818
0.606067
0.615801
0.625037
0.633794
0.64209
0.649943
0.657368
0.664381
0.670995
0.677222
0.68307
0.688549
0.693664
0.698421
0.702824
0.706877
0.710583
0.713952
0.717007
0.385025
0.363699
0.344363
0.326708
0.310499
0.295562
0.281774
0.269044
0.257308
0.246519
0.236645
0.227668
0.219578
0.212379
0.206086
0.200726
0.196342
0.192991
0.190748
0.189704
0.189968
0.191659
0.194904
0.199824
0.20652
0.215061
0.225462
0.237683
0.251618
0.267104
0.283932
0.301862
0.320645
0.340034
0.3598
0.379737
0.39967
0.41945
0.438957
0.458094
0.476786
0.494976
0.512622
0.529694
0.54617
0.562038
0.577291
0.591927
0.60595
0.619366
0.632174
0.644387
0.656023
0.667101
0.677642
0.687667
0.697198
0.706256
0.714862
0.723034
0.73079
0.738145
0.745113
0.751704
0.757926
0.763786
0.769288
0.774435
0.779228
0.783668
0.787757
0.791493
0.794879
0.797923
0.800646
0.384994
0.363574
0.344063
0.326167
0.309684
0.294479
0.280466
0.267591
0.255816
0.245122
0.235505
0.226971
0.219545
0.213266
0.208194
0.204412
0.202027
0.20117
0.201995
0.204673
0.209371
0.216241
0.225387
0.236845
0.250562
0.266393
0.284106
0.303406
0.323959
0.345427
0.367484
0.38984
0.412243
0.434489
0.456414
0.477892
0.498828
0.519158
0.538836
0.557832
0.576133
0.593731
0.610628
0.626831
0.642349
0.657197
0.671389
0.684945
0.697882
0.710211
0.721957
0.733146
0.743804
0.753959
0.763638
0.772867
0.78167
0.790069
0.798086
0.805736
0.813034
0.819989
0.82661
0.832901
0.838862
0.844493
0.849793
0.854756
0.85938
0.863659
0.867589
0.871168
0.874393
0.87727
0.879817
0.384935
0.36335
0.343567
0.325335
0.308511
0.293018
0.278818
0.265896
0.254254
0.243907
0.234889
0.227254
0.221083
0.216486
0.21361
0.212637
0.213783
0.21728
0.223357
0.232198
0.243902
0.258448
0.275678
0.295296
0.316907
0.340058
0.364282
0.389144
0.41426
0.439311
0.464047
0.488276
0.511861
0.534708
0.556757
0.577975
0.598348
0.617879
0.636576
0.65446
0.671551
0.687875
0.703456
0.718323
0.732501
0.746018
0.758901
0.771176
0.782865
0.793995
0.8046
0.814713
0.824366
0.833592
0.84242
0.850878
0.858991
0.866782
0.874268
0.881461
0.888372
0.895003
0.901357
0.907429
0.913215
0.918706
0.923893
0.928766
0.933313
0.937527
0.941398
0.944919
0.948085
0.950899
0.953372
0.384827
0.362977
0.342807
0.324151
0.30695
0.291202
0.276926
0.264158
0.252948
0.243368
0.235519
0.229544
0.225631
0.224025
0.225019
0.228933
0.23608
0.246699
0.260888
0.278554
0.299392
0.322913
0.348516
0.37556
0.403435
0.431611
0.459654
0.487232
0.514105
0.540109
0.565141
0.589146
0.612101
0.634009
0.654891
0.674776
0.693703
0.711713
0.728847
0.745149
0.76066
0.775417
0.789458
0.802818
0.815531
0.82763
0.839145
0.850103
0.860534
0.870476
0.879966
0.889039
0.897733
0.90608
0.914113
0.92186
0.929346
0.93659
0.943607
0.950405
0.956988
0.963354
0.969497
0.975407
0.981071
0.986475
0.991602
0.996437
1.00096
1.00517
1.00903
1.01255
1.01572
1.01854
1.021
0.384645
0.362402
0.341724
0.322578
0.305017
0.289125
0.274992
0.262721
0.252441
0.244324
0.238605
0.23559
0.235666
0.239274
0.246854
0.258749
0.275094
0.295725
0.320163
0.347677
0.3774
0.408461
0.440078
0.471615
0.502589
0.532661
0.56161
0.589308
0.615692
0.640752
0.664508
0.687
0.708285
0.728423
0.74748
0.76552
0.782605
0.798796
0.814149
0.828713
0.842538
0.855666
0.868137
0.879987
0.891253
0.901966
0.912154
0.921851
0.931094
0.939921
0.948371
0.956483
0.964294
0.97184
0.979153
0.986261
0.993187
0.999947
1.00655
1.01301
1.01931
1.02545
1.03143
1.03721
1.04278
1.04813
1.05322
1.05804
1.06258
1.06679
1.07069
1.07424
1.07744
1.08029
1.08278
0.384357
0.361569
0.340275
0.320619
0.302791
0.286976
0.273359
0.262154
0.253634
0.248166
0.246231
0.248416
0.255349
0.267569
0.28534
0.30849
0.336365
0.36793
0.401972
0.437308
0.472928
0.508054
0.542141
0.574839
0.605953
0.635395
0.663155
0.68927
0.71381
0.736859
0.75851
0.77886
0.798001
0.816023
0.833009
0.849039
0.864181
0.878502
0.892059
0.904904
0.917085
0.928642
0.939615
0.950038
0.959943
0.96936
0.978319
0.986857
0.995012
1.00282
1.01033
1.01757
1.02459
1.03142
1.03809
1.04463
1.05106
1.05739
1.06364
1.06979
1.07585
1.0818
1.08762
1.09329
1.09879
1.10409
1.10916
1.11398
1.11852
1.12276
1.12669
1.13028
1.13353
1.13643
1.13897
0.383927
0.360433
0.338442
0.318325
0.300431
0.285075
0.272596
0.263411
0.258075
0.257314
0.261993
0.272966
0.290808
0.315512
0.34633
0.381887
0.420501
0.460537
0.50064
0.539816
0.577419
0.613076
0.646615
0.678001
0.707281
0.734554
0.759947
0.783596
0.805639
0.826209
0.845433
0.863427
0.880298
0.896144
0.911051
0.925098
0.938356
0.950885
0.962742
0.973973
0.984623
0.994727
1.00432
1.01344
1.0221
1.03034
1.03819
1.04568
1.05286
1.05976
1.06643
1.0729
1.07921
1.0854
1.0915
1.09753
1.10352
1.10947
1.11539
1.12127
1.12711
1.13288
1.13856
1.14412
1.14955
1.15479
1.15984
1.16464
1.16919
1.17346
1.17741
1.18105
1.18434
1.18729
1.18988
0.383319
0.358958
0.336244
0.315811
0.298206
0.283951
0.273661
0.268152
0.26849
0.275923
0.291577
0.315958
0.348517
0.38762
0.430987
0.476297
0.521626
0.565614
0.607424
0.646626
0.683068
0.71677
0.747858
0.776507
0.802914
0.82728
0.849796
0.870644
0.889987
0.907975
0.924741
0.940404
0.955069
0.968831
0.981772
0.993964
1.00547
1.01635
1.02665
1.03641
1.04567
1.05447
1.06282
1.07076
1.07831
1.0855
1.09236
1.09892
1.10524
1.11133
1.11725
1.12304
1.12872
1.13434
1.13993
1.14551
1.1511
1.15671
1.16233
1.16796
1.17358
1.17917
1.18471
1.19016
1.19549
1.20068
1.20568
1.21046
1.215
1.21927
1.22324
1.2269
1.23023
1.23323
1.23587
0.382499
0.357132
0.333739
0.313276
0.296568
0.284508
0.27825
0.279332
0.289537
0.310342
0.342057
0.383258
0.431091
0.482235
0.533801
0.583741
0.630842
0.674526
0.714639
0.751269
0.784637
0.81502
0.842711
0.867994
0.89113
0.912361
0.931899
0.949931
0.966625
0.982125
0.996558
1.01003
1.02265
1.0345
1.04564
1.05615
1.06607
1.07546
1.08437
1.09281
1.10084
1.10846
1.11571
1.12261
1.12917
1.13543
1.14142
1.14717
1.15272
1.1581
1.16336
1.16854
1.17367
1.17878
1.18391
1.18908
1.19431
1.19959
1.20492
1.2103
1.21571
1.22112
1.2265
1.23182
1.23705
1.24215
1.24708
1.25182
1.25632
1.26057
1.26454
1.26821
1.27157
1.2746
1.27727
0.381436
0.354959
0.331044
0.311056
0.296297
0.288366
0.28942
0.30201
0.328145
0.367832
0.418385
0.475358
0.534265
0.591732
0.64574
0.695353
0.740336
0.780846
0.817229
0.849905
0.879296
0.905804
0.929787
0.951564
0.971412
0.989572
1.00625
1.02162
1.03584
1.04905
1.06134
1.07283
1.0836
1.09372
1.10325
1.11225
1.12077
1.12884
1.1365
1.14379
1.15072
1.15731
1.16359
1.16956
1.17526
1.18071
1.18593
1.19097
1.19584
1.2006
1.20528
1.20991
1.21455
1.2192
1.22392
1.22871
1.23359
1.23856
1.24361
1.24874
1.25393
1.25914
1.26434
1.26951
1.27461
1.2796
1.28443
1.28909
1.29353
1.29774
1.30168
1.30533
1.30869
1.31173
1.31442
0.380108
0.352477
0.328359
0.309741
0.298807
0.2985
0.312469
0.343631
0.391724
0.452364
0.519027
0.585869
0.649089
0.70683
0.75855
0.804426
0.844967
0.880792
0.912518
0.940714
0.965879
0.988444
1.00877
1.02718
1.04392
1.05922
1.07326
1.08621
1.09819
1.10932
1.11971
1.12942
1.13854
1.14713
1.15523
1.1629
1.17018
1.17709
1.18367
1.18993
1.1959
1.20159
1.20701
1.21218
1.21712
1.22186
1.22642
1.23082
1.23511
1.23932
1.24348
1.24764
1.25182
1.25606
1.26039
1.26483
1.26937
1.27404
1.27881
1.28368
1.28863
1.29362
1.29863
1.30362
1.30856
1.3134
1.31811
1.32265
1.327
1.33113
1.33501
1.33861
1.34194
1.34497
1.34766
0.378499
0.349757
0.326046
0.310415
0.306752
0.320203
0.355304
0.411906
0.483479
0.560703
0.636003
0.705133
0.766519
0.820133
0.866647
0.90697
0.942013
0.972604
0.999454
1.02316