/*--------------------------------*- C++ -*----------------------------------*\
  =========                 |
  \\      /  F ield         | OpenFOAM: The Open Source CFD Toolbox
   \\    /   O peration     | Website:  https://openfoam.org
    \\  /    A nd           | Version:  7
     \\/     M anipulation  |
\*---------------------------------------------------------------------------*/
FoamFile
{
    version     2.0;
    format      ascii;
    class       volScalarField;
    location    "550";
    object      nut;
}
// * * * * * * * * * * * * * * * * * * * * * * * * * * * * * * * * * * * * * //

dimensions      [0 2 -1 0 0 0 0];

internalField   nonuniform List<scalar> 
4500
(
0.000506064
0.000491803
0.000480303
0.000472195
0.000465952
0.000461027
0.000457063
0.00045381
0.000451094
0.000448794
0.000446826
0.000445126
0.000443647
0.000442353
0.000441217
0.000440216
0.000439331
0.000438548
0.000437854
0.000437239
0.000436695
0.000436214
0.00043579
0.000435417
0.000435091
0.000434806
0.000434561
0.000434351
0.000434173
0.000434025
0.000433905
0.00043381
0.000433739
0.00043369
0.000433661
0.000433651
0.000433658
0.000433682
0.00043372
0.000433773
0.000433839
0.000433918
0.000434009
0.000434111
0.000434224
0.000434348
0.000434482
0.000434627
0.000434782
0.000434947
0.000435121
0.000435305
0.000435498
0.000435698
0.000435906
0.000436119
0.000436337
0.000436558
0.00043678
0.000437002
0.000437222
0.000437438
0.000437649
0.000437853
0.000438049
0.000438236
0.000438412
0.000438577
0.000438729
0.000438868
0.000438995
0.000439108
0.000439207
0.000439292
0.000439365
0.000607327
0.000974335
0.00114372
0.00120841
0.00123497
0.00124672
0.00125197
0.00125409
0.00125464
0.00125437
0.00125368
0.00125278
0.00125181
0.00125083
0.00124989
0.001249
0.00124819
0.00124745
0.0012468
0.00124623
0.00124574
0.00124532
0.00124497
0.0012447
0.00124449
0.00124434
0.00124426
0.00124423
0.00124425
0.00124432
0.00124443
0.0012446
0.0012448
0.00124504
0.00124531
0.00124562
0.00124596
0.00124632
0.00124671
0.00124712
0.00124755
0.00124801
0.00124848
0.00124898
0.00124949
0.00125002
0.00125056
0.00125113
0.00125171
0.00125231
0.00125292
0.00125356
0.00125422
0.00125489
0.00125558
0.0012563
0.00125702
0.00125776
0.00125851
0.00125926
0.00126001
0.00126076
0.0012615
0.00126223
0.00126295
0.00126364
0.0012643
0.00126494
0.00126554
0.0012661
0.00126663
0.00126712
0.00126757
0.00126797
0.00126833
0.000713424
0.00121515
0.00157793
0.00177481
0.00188365
0.00194758
0.00198742
0.00201353
0.0020314
0.00204407
0.00205335
0.00206032
0.00206571
0.00206996
0.0020734
0.00207624
0.00207864
0.00208072
0.00208255
0.0020842
0.00208571
0.00208712
0.00208846
0.00208974
0.00209099
0.00209221
0.00209341
0.00209461
0.0020958
0.002097
0.0020982
0.00209941
0.00210063
0.00210186
0.00210309
0.00210434
0.0021056
0.00210685
0.00210811
0.00210937
0.00211063
0.00211188
0.00211314
0.00211439
0.00211564
0.00211689
0.00211814
0.00211939
0.00212066
0.00212194
0.00212325
0.00212459
0.00212597
0.00212741
0.0021289
0.00213045
0.00213206
0.00213372
0.00213544
0.00213721
0.00213902
0.00214085
0.0021427
0.00214456
0.0021464
0.00214822
0.00215
0.00215174
0.00215341
0.00215501
0.00215654
0.00215798
0.00215932
0.00216057
0.00216169
0.00102124
0.00136022
0.0018715
0.00222328
0.00244808
0.00259473
0.00269401
0.00276382
0.00281468
0.00285291
0.00288244
0.00290581
0.00292469
0.00294025
0.00295329
0.00296439
0.00297397
0.00298236
0.00298979
0.00299644
0.00300247
0.00300798
0.00301307
0.0030178
0.00302224
0.00302642
0.0030304
0.0030342
0.00303785
0.00304136
0.00304477
0.00304807
0.0030513
0.00305444
0.00305752
0.00306054
0.0030635
0.0030664
0.00306923
0.00307199
0.00307471
0.00307736
0.00307995
0.00308248
0.00308496
0.00308738
0.00308977
0.00309214
0.0030945
0.00309688
0.0030993
0.00310179
0.00310436
0.00310705
0.00310986
0.00311281
0.0031159
0.00311915
0.00312253
0.00312603
0.00312964
0.00313334
0.0031371
0.00314089
0.00314467
0.00314843
0.00315213
0.00315574
0.00315924
0.00316261
0.00316581
0.00316884
0.00317168
0.00317432
0.00317669
0.00170708
0.00150447
0.00204415
0.00253669
0.00289421
0.00314704
0.00332847
0.0034619
0.00356263
0.0036406
0.00370233
0.00375222
0.00379326
0.00382758
0.0038567
0.00388174
0.00390351
0.00392266
0.00393966
0.00395491
0.00396869
0.00398124
0.00399275
0.00400339
0.00401327
0.00402251
0.00403119
0.00403938
0.00404715
0.00405455
0.00406161
0.00406839
0.0040749
0.00408118
0.00408724
0.00409311
0.0040988
0.0041043
0.00410962
0.00411477
0.00411974
0.00412456
0.00412921
0.00413371
0.00413806
0.00414229
0.00414642
0.00415048
0.00415451
0.00415855
0.00416267
0.00416689
0.00417127
0.00417586
0.00418068
0.00418576
0.00419111
0.00419673
0.00420261
0.00420872
0.00421503
0.00422149
0.00422807
0.0042347
0.00424133
0.00424791
0.00425438
0.00426069
0.00426679
0.00427264
0.0042782
0.00428344
0.00428833
0.00429285
0.0042969
0.00293021
0.00179432
0.00215557
0.00272719
0.0032116
0.00358299
0.00386409
0.004079
0.0042461
0.00437848
0.00448527
0.00457289
0.00464589
0.00470757
0.00476034
0.00480601
0.00484595
0.0048812
0.0049126
0.00494078
0.00496625
0.00498944
0.00501069
0.00503026
0.00504838
0.00506526
0.00508103
0.00509585
0.00510982
0.00512304
0.00513559
0.00514754
0.00515896
0.00516988
0.00518037
0.00519044
0.00520014
0.00520945
0.00521841
0.00522703
0.0052353
0.00524325
0.00525089
0.00525823
0.0052653
0.00527214
0.00527878
0.00528528
0.00529173
0.00529818
0.00530472
0.00531144
0.00531841
0.0053257
0.00533335
0.00534142
0.0053499
0.00535881
0.00536811
0.00537777
0.00538774
0.00539793
0.00540827
0.00541868
0.00542906
0.00543933
0.0054494
0.00545918
0.00546861
0.00547761
0.00548612
0.0054941
0.0055015
0.0055083
0.00551434
0.00471652
0.00241031
0.00230969
0.00283433
0.00340742
0.00389369
0.00428366
0.0045937
0.00484179
0.00504269
0.00520757
0.00534471
0.00546027
0.00555879
0.00564371
0.00571766
0.00578263
0.00584021
0.00589162
0.00593786
0.00597972
0.00601784
0.00605276
0.0060849
0.00611463
0.00614226
0.00616804
0.00619219
0.00621489
0.00623631
0.00625657
0.00627579
0.00629407
0.00631151
0.00632816
0.0063441
0.00635938
0.00637401
0.00638803
0.00640145
0.0064143
0.00642661
0.00643839
0.00644968
0.00646052
0.00647097
0.0064811
0.006491
0.00650079
0.00651056
0.00652045
0.00653058
0.00654105
0.00655196
0.00656339
0.00657539
0.00658797
0.00660114
0.00661485
0.00662904
0.00664362
0.00665849
0.00667353
0.00668861
0.0067036
0.00671837
0.00673279
0.00674675
0.00676014
0.00677285
0.00678482
0.00679596
0.00680622
0.00681557
0.00682381
0.00695534
0.00349985
0.00265963
0.00293574
0.00351092
0.00408367
0.00457876
0.00499055
0.00533047
0.0056121
0.00584735
0.00604576
0.00621481
0.00636025
0.00648655
0.00659718
0.00669488
0.0067818
0.00685966
0.00692986
0.00699353
0.00705158
0.00710479
0.00715379
0.0071991
0.00724119
0.00728043
0.00731714
0.0073516
0.00738404
0.00741468
0.00744369
0.00747122
0.0074974
0.00752235
0.00754617
0.00756893
0.00759069
0.00761148
0.00763136
0.00765035
0.0076685
0.00768585
0.00770245
0.00771836
0.00773367
0.0077485
0.00776297
0.00777722
0.00779143
0.00780575
0.00782035
0.00783537
0.00785096
0.00786719
0.00788415
0.00790186
0.00792029
0.00793939
0.00795908
0.00797923
0.00799969
0.0080203
0.00804089
0.00806127
0.00808128
0.00810073
0.00811946
0.00813735
0.00815424
0.00817005
0.00818467
0.00819804
0.00821012
0.00822066
0.00946494
0.00509827
0.00338174
0.00315982
0.00358556
0.0041774
0.00475296
0.00526158
0.00569759
0.00606845
0.00638432
0.00665477
0.00688795
0.00709051
0.00726779
0.00742409
0.00756284
0.00768683
0.0077983
0.00789909
0.00799071
0.00807441
0.00815122
0.00822202
0.00828754
0.0083484
0.00840513
0.00845819
0.00850797
0.00855481
0.00859899
0.00864076
0.00868036
0.00871797
0.00875375
0.00878785
0.00882038
0.00885144
0.00888108
0.00890939
0.00893641
0.0089622
0.00898684
0.00901039
0.00903296
0.00905466
0.00907564
0.00909608
0.00911616
0.0091361
0.00915612
0.00917642
0.00919719
0.0092186
0.00924077
0.00926379
0.00928767
0.00931239
0.00933787
0.00936401
0.00939063
0.00941755
0.00944455
0.00947141
0.00949789
0.00952377
0.00954882
0.00957285
0.00959568
0.00961713
0.00963708
0.00965542
0.00967206
0.00968696
0.00969982
0.0120503
0.00712193
0.0046001
0.00367976
0.00374451
0.00423199
0.00482945
0.00541081
0.00593604
0.00639799
0.00680078
0.00715173
0.00745842
0.00772772
0.00796548
0.00817659
0.00836512
0.00853441
0.00868723
0.00882588
0.00895227
0.00906798
0.00917438
0.00927259
0.00936358
0.00944817
0.00952706
0.00960086
0.00967009
0.00973522
0.00979663
0.00985468
0.00990966
0.00996183
0.0100114
0.0100587
0.0101037
0.0101466
0.0101876
0.0102266
0.0102639
0.0102995
0.0103335
0.010366
0.0103971
0.010427
0.0104559
0.010484
0.0105115
0.0105387
0.0105659
0.0105933
0.0106212
0.0106497
0.010679
0.0107092
0.0107404
0.0107724
0.0108053
0.0108388
0.0108728
0.010907
0.0109411
0.0109749
0.0110081
0.0110405
0.0110716
0.0111014
0.0111295
0.0111559
0.0111802
0.0112024
0.0112225
0.0112402
0.0112554
0.0145382
0.00942111
0.00631631
0.00465971
0.00415424
0.00435399
0.00486444
0.00546284
0.00605162
0.00659513
0.00708406
0.00751953
0.00790638
0.0082504
0.0085572
0.00883188
0.00907883
0.00930184
0.0095041
0.00968833
0.00985683
0.0100115
0.0101541
0.010286
0.0104083
0.0105222
0.0106285
0.010728
0.0108215
0.0109094
0.0109923
0.0110706
0.0111449
0.0112153
0.0112822
0.0113458
0.0114065
0.0114643
0.0115195
0.0115721
0.0116223
0.0116703
0.0117161
0.0117598
0.0118018
0.011842
0.0118809
0.0119186
0.0119554
0.0119917
0.0120277
0.0120638
0.0121003
0.0121373
0.0121751
0.0122138
0.0122534
0.0122939
0.0123351
0.0123769
0.0124191
0.0124613
0.0125033
0.0125448
0.0125853
0.0126246
0.0126623
0.0126982
0.012732
0.0127634
0.0127924
0.0128187
0.0128422
0.0128629
0.0128804
0.0167964
0.0118301
0.00841662
0.00616647
0.00499572
0.00470745
0.00496497
0.00547746
0.00607302
0.00666908
0.00723109
0.00774722
0.00821571
0.00863906
0.00902134
0.00936699
0.00968026
0.00996504
0.0102248
0.0104624
0.0106807
0.0108817
0.0110675
0.0112398
0.0113999
0.0115493
0.0116889
0.0118197
0.0119427
0.0120584
0.0121676
0.0122709
0.0123688
0.0124616
0.0125498
0.0126337
0.0127137
0.01279
0.0128627
0.0129321
0.0129984
0.0130617
0.0131221
0.0131799
0.0132352
0.0132884
0.0133396
0.0133892
0.0134375
0.0134849
0.0135318
0.0135785
0.0136252
0.0136724
0.0137202
0.0137687
0.013818
0.013868
0.0139187
0.0139697
0.014021
0.014072
0.0141226
0.0141723
0.0142207
0.0142674
0.0143122
0.0143546
0.0143944
0.0144313
0.014465
0.0144956
0.0145227
0.0145464
0.0145663
0.0187409
0.0141959
0.0107323
0.00812806
0.00637517
0.00548226
0.0052985
0.00556839
0.00606791
0.00665555
0.00725658
0.00783569
0.00837814
0.00887927
0.00933926
0.00976046
0.0101461
0.0104994
0.0108239
0.0111225
0.011398
0.0116528
0.0118892
0.0121089
0.0123137
0.0125051
0.0126843
0.0128526
0.0130109
0.0131602
0.0133011
0.0134345
0.0135609
0.0136809
0.0137949
0.0139035
0.014007
0.0141057
0.0141999
0.0142898
0.0143757
0.0144577
0.0145361
0.0146111
0.014683
0.0147519
0.0148183
0.0148825
0.0149449
0.0150058
0.0150658
0.0151251
0.0151842
0.0152433
0.0153027
0.0153626
0.0154229
0.0154838
0.015545
0.0156064
0.0156676
0.0157283
0.0157882
0.0158468
0.0159037
0.0159584
0.0160107
0.01606
0.0161061
0.0161488
0.0161877
0.0162226
0.0162536
0.0162805
0.0163028
0.0203353
0.0163925
0.0130921
0.0103772
0.00825299
0.00680513
0.00606205
0.00591225
0.00616261
0.00663481
0.00720686
0.00780792
0.00840069
0.00896709
0.00949942
0.00999542
0.0104556
0.0108818
0.0112765
0.0116424
0.0119818
0.0122974
0.0125913
0.0128656
0.013122
0.0133623
0.0135879
0.0138001
0.0140001
0.0141889
0.0143674
0.0145366
0.014697
0.0148495
0.0149945
0.0151326
0.0152643
0.01539
0.01551
0.0156247
0.0157343
0.015839
0.0159391
0.016035
0.0161268
0.016215
0.0162998
0.0163817
0.016461
0.0165383
0.0166139
0.0166883
0.0167619
0.0168351
0.0169081
0.0169811
0.0170541
0.0171273
0.0172003
0.0172731
0.0173454
0.0174167
0.0174867
0.017555
0.017621
0.0176843
0.0177446
0.0178014
0.0178543
0.0179031
0.0179474
0.0179872
0.0180223
0.0180526
0.0180776
0.0215825
0.0183294
0.0153493
0.0127226
0.0104644
0.0086521
0.0073891
0.00671235
0.00654767
0.00675168
0.00718034
0.00772556
0.00831836
0.00891864
0.00950458
0.0100651
0.0105953
0.0110936
0.0115604
0.0119971
0.0124054
0.0127874
0.0131451
0.0134804
0.0137951
0.014091
0.0143697
0.0146324
0.0148806
0.0151154
0.0153378
0.0155488
0.0157492
0.0159398
0.0161214
0.0162944
0.0164596
0.0166173
0.016768
0.0169122
0.01705
0.0171818
0.017308
0.0174288
0.0175447
0.0176558
0.0177627
0.0178658
0.0179655
0.0180623
0.0181566
0.0182489
0.0183398
0.0184294
0.0185182
0.0186063
0.0186939
0.018781
0.0188675
0.0189531
0.0190376
0.0191206
0.0192017
0.0192805
0.0193564
0.0194291
0.019498
0.0195628
0.0196231
0.0196785
0.0197289
0.0197739
0.0198136
0.0198477
0.0198758
0.0225141
0.0199544
0.0173928
0.0149958
0.0127993
0.010854
0.00925304
0.00809649
0.00743
0.00721364
0.00734589
0.00771147
0.00821417
0.00878619
0.00938426
0.00998242
0.0105658
0.0111265
0.0116607
0.0121669
0.0126453
0.0130966
0.0135221
0.0139234
0.0143021
0.0146596
0.0149974
0.0153171
0.0156199
0.0159071
0.0161797
0.0164388
0.0166854
0.0169203
0.0171443
0.0173581
0.0175624
0.0177576
0.0179444
0.0181232
0.0182943
0.0184582
0.0186151
0.0187656
0.0189098
0.0190484
0.0191815
0.0193098
0.0194336
0.0195535
0.0196699
0.0197835
0.0198945
0.0200035
0.0201107
0.0202164
0.0203207
0.0204237
0.0205254
0.0206254
0.0207236
0.0208196
0.020913
0.0210034
0.0210902
0.0211731
0.0212516
0.0213252
0.0213935
0.0214563
0.0215133
0.0215642
0.021609
0.0216476
0.0216793
0.0231786
0.0212515
0.0191504
0.0170697
0.0150687
0.0131822
0.011469
0.0100167
0.00891707
0.0082239
0.00792738
0.00796293
0.00824224
0.00868153
0.00921499
0.00979641
0.0103955
0.0109932
0.0115781
0.0121436
0.0126863
0.0132046
0.0136982
0.0141674
0.0146131
0.0150364
0.0154384
0.0158204
0.0161835
0.0165289
0.0168579
0.0171713
0.0174702
0.0177555
0.018028
0.0182886
0.0185378
0.0187764
0.019005
0.019224
0.0194339
0.0196351
0.0198281
0.0200131
0.0201908
0.0203614
0.0205254
0.0206832
0.0208355
0.0209826
0.0211251
0.0212634
0.0213982
0.0215297
0.0216584
0.0217845
0.0219082
0.0220295
0.0221485
0.0222649
0.0223786
0.0224892
0.0225963
0.0226996
0.0227986
0.0228928
0.0229818
0.0230652
0.0231426
0.0232136
0.023278
0.0233357
0.0233864
0.0234302
0.0234664
0.0236309
0.0222362
0.0205882
0.0188628
0.0171328
0.0154307
0.0137891
0.0122607
0.0109209
0.00985089
0.00911003
0.00871324
0.00862895
0.00879609
0.00914584
0.0096168
0.0101611
0.0107443
0.0113431
0.011942
0.0125313
0.0131048
0.0136592
0.0141925
0.014704
0.0151937
0.0156619
0.0161093
0.0165367
0.0169451
0.0173354
0.0177085
0.0180653
0.0184068
0.0187338
0.019047
0.0193472
0.019635
0.0199112
0.0201762
0.0204306
0.0206748
0.0209092
0.0211344
0.0213506
0.0215584
0.0217583
0.0219506
0.0221359
0.0223148
0.0224877
0.022655
0.0228174
0.0229753
0.0231289
0.0232786
0.0234247
0.0235671
0.023706
0.0238412
0.0239725
0.0240997
0.0242224
0.0243403
0.0244529
0.0245599
0.0246608
0.0247552
0.0248427
0.0249232
0.0249962
0.0250617
0.0251195
0.0251695
0.0252112
0.0239241
0.0229458
0.0217059
0.0203354
0.0189062
0.0174526
0.0159956
0.0145615
0.0131926
0.0119492
0.0109003
0.0101063
0.0095999
0.00937813
0.00940743
0.00963764
0.0100159
0.0104955
0.0110393
0.0116196
0.0122168
0.0128173
0.0134122
0.0139954
0.0145632
0.0151133
0.0156445
0.0161563
0.0166487
0.0171218
0.0175763
0.0180127
0.0184318
0.0188341
0.0192205
0.0195917
0.0199483
0.020291
0.0206204
0.0209371
0.0212416
0.0215344
0.021816
0.0220868
0.0223472
0.0225976
0.0228386
0.0230706
0.0232941
0.0235095
0.0237175
0.0239185
0.0241129
0.0243011
0.0244837
0.0246608
0.0248327
0.0249995
0.0251613
0.0253181
0.0254697
0.0256158
0.0257563
0.0258909
0.0260191
0.0261406
0.026255
0.0263621
0.0264614
0.0265527
0.0266358
0.0267105
0.0267768
0.0268345
0.0268831
0.0241048
0.0234303
0.0225301
0.0214842
0.0203512
0.0191647
0.0179427
0.0166986
0.0154511
0.0142309
0.0130828
0.0120624
0.0112256
0.0106148
0.010249
0.0101206
0.0102015
0.0104527
0.0108329
0.0113054
0.0118395
0.0124118
0.0130047
0.0136056
0.0142055
0.0147983
0.0153798
0.0159471
0.0164986
0.0170333
0.0175506
0.0180505
0.0185331
0.0189986
0.0194476
0.0198804
0.0202976
0.0206997
0.0210872
0.0214607
0.0218206
0.0221673
0.0225014
0.0228233
0.0231333
0.0234318
0.0237193
0.0239962
0.0242631
0.0245203
0.0247684
0.0250078
0.0252389
0.0254621
0.0256779
0.0258866
0.0260883
0.0262832
0.0264715
0.0266532
0.0268281
0.0269962
0.0271572
0.0273109
0.0274571
0.0275954
0.0277256
0.0278473
0.0279604
0.0280645
0.0281595
0.0282453
0.0283218
0.0283891
0.0284464
0.0242104
0.023743
0.0231051
0.0223339
0.0214686
0.0205374
0.0195569
0.0185366
0.0174843
0.0164115
0.0153381
0.0142947
0.0133225
0.0124679
0.011775
0.0112758
0.0109838
0.0108936
0.0109844
0.0112267
0.0115885
0.0120397
0.0125545
0.0131118
0.0136953
0.0142927
0.0148948
0.015495
0.0160885
0.0166719
0.0172429
0.0177999
0.018342
0.0188686
0.0193795
0.0198745
0.0203539
0.0208178
0.0212664
0.0217002
0.0221194
0.0225244
0.0229156
0.0232933
0.0236578
0.0240094
0.0243485
0.0246755
0.0249909
0.025295
0.0255882
0.025871
0.0261437
0.0264067
0.0266604
0.0269051
0.027141
0.0273682
0.027587
0.0277973
0.0279992
0.0281926
0.0283774
0.0285535
0.0287206
0.0288785
0.0290272
0.0291663
0.0292956
0.0294151
0.0295245
0.0296238
0.029713
0.0297921
0.0298606
0.0242687
0.0239331
0.0234832
0.022928
0.0222874
0.0215809
0.0208224
0.0200202
0.0191788
0.0183021
0.0173958
0.0164709
0.015546
0.0146483
0.0138124
0.0130761
0.012475
0.0120354
0.0117707
0.0116797
0.0117493
0.0119586
0.012283
0.0126979
0.013181
0.0137132
0.014279
0.0148659
0.0154643
0.0160671
0.0166686
0.0172647
0.0178524
0.0184297
0.0189948
0.0195467
0.0200848
0.0206086
0.0211178
0.0216124
0.0220924
0.0225577
0.0230086
0.0234453
0.0238679
0.0242765
0.0246715
0.025053
0.0254214
0.025777
0.0261201
0.026451
0.0267701
0.0270777
0.027374
0.0276594
0.027934
0.0281981
0.0284517
0.0286951
0.0289281
0.0291509
0.0293634
0.0295656
0.0297574
0.0299386
0.0301092
0.0302691
0.0304181
0.0305562
0.0306833
0.0307994
0.0309044
0.0309986
0.0310814
0.0242989
0.0240415
0.0237167
0.023319
0.0228541
0.0223318
0.0217619
0.0211513
0.0205038
0.0198214
0.019105
0.0183565
0.0175807
0.0167867
0.0159902
0.015213
0.0144829
0.0138304
0.013285
0.0128702
0.0126008
0.0124808
0.0125047
0.0126592
0.0129266
0.0132877
0.0137233
0.0142163
0.0147516
0.0153169
0.015902
0.0164988
0.0171009
0.0177035
0.0183026
0.0188954
0.0194796
0.0200536
0.0206162
0.0211663
0.0217034
0.0222269
0.0227367
0.0232324
0.0237139
0.0241812
0.0246342
0.025073
0.0254976
0.0259082
0.0263049
0.026688
0.0270577
0.0274142
0.0277577
0.0280884
0.0284064
0.028712
0.0290053
0.0292864
0.0295554
0.0298124
0.0300574
0.0302904
0.0305114
0.0307205
0.0309177
0.0311028
0.031276
0.0314371
0.0315863
0.0317235
0.0318488
0.0319625
0.0320639
0.0243137
0.0240994
0.0238516
0.0235602
0.0232227
0.0228417
0.0224217
0.0219673
0.021482
0.0209674
0.020424
0.0198512
0.0192489
0.0186176
0.0179607
0.017285
0.0166018
0.0159277
0.0152838
0.0146943
0.0141835
0.0137732
0.0134797
0.0133118
0.0132708
0.0133509
0.0135415
0.0138287
0.0141972
0.014632
0.0151192
0.0156466
0.0162035
0.0167812
0.0173722
0.0179708
0.0185722
0.0191726
0.019769
0.0203589
0.0209405
0.0215123
0.0220732
0.0226221
0.0231584
0.0236815
0.024191
0.0246866
0.0251678
0.0256346
0.0260868
0.0265246
0.0269478
0.0273566
0.027751
0.0281312
0.0284972
0.0288491
0.0291871
0.0295112
0.0298216
0.0301183
0.0304015
0.0306712
0.0309275
0.0311705
0.0314002
0.0316167
0.0318201
0.0320104
0.0321876
0.032352
0.0325036
0.0326426
0.0327687
0.0243203
0.0241281
0.0239241
0.023699
0.0234471
0.0231665
0.022858
0.0225234
0.0221648
0.0217837
0.0213807
0.0209556
0.0205075
0.0200352
0.0195375
0.0190143
0.0184671
0.0179
0.0173205
0.0167398
0.016173
0.0156382
0.0151549
0.0147427
0.0144182
0.0141938
0.0140765
0.0140677
0.0141634
0.0143559
0.0146348
0.0149883
0.0154045
0.0158718
0.0163798
0.0169191
0.0174816
0.0180605
0.0186501
0.0192455
0.0198428
0.0204387
0.0210307
0.0216164
0.022194
0.0227622
0.0233197
0.0238655
0.0243987
0.0249186
0.0254246
0.0259165
0.0263938
0.0268565
0.0273043
0.0277372
0.0281552
0.0285581
0.0289461
0.0293192
0.0296774
0.0300207
0.0303493
0.0306632
0.0309626
0.0312474
0.0315178
0.0317739
0.0320158
0.0322435
0.0324573
0.0326571
0.0328432
0.0330157
0.0331745
0.0243232
0.0241413
0.0239602
0.0237729
0.0235739
0.0233596
0.0231282
0.0228796
0.0226142
0.0223328
0.0220359
0.0217237
0.0213958
0.0210513
0.020689
0.0203073
0.0199048
0.0194805
0.0190346
0.0185687
0.018087
0.0175959
0.0171052
0.0166273
0.0161768
0.0157695
0.0154209
0.0151448
0.014952
0.0148493
0.0148393
0.0149208
0.015089
0.0153369
0.0156558
0.0160361
0.0164686
0.016944
0.0174539
0.017991
0.0185484
0.0191206
0.0197024
0.0202898
0.0208792
0.0214675
0.0220522
0.0226311
0.0232025
0.0237648
0.0243166
0.0248569
0.0253848
0.0258998
0.0264012
0.0268886
0.0273618
0.0278204
0.0282641
0.028693
0.0291067
0.0295052
0.0298885
0.0302565
0.0306092
0.0309466
0.0312687
0.0315756
0.0318672
0.0321437
0.0324052
0.0326517
0.0328833
0.0331003
0.0333023
0.0243243
0.0241468
0.0239767
0.0238093
0.0236402
0.0234659
0.0232838
0.0230926
0.0228914
0.0226801
0.0224587
0.0222274
0.021986
0.0217344
0.0214717
0.0211972
0.0209094
0.020607
0.0202885
0.0199526
0.0195985
0.0192262
0.0188373
0.0184347
0.0180237
0.0176116
0.0172079
0.016824
0.0164722
0.0161651
0.0159144
0.0157302
0.0156198
0.0155875
0.0156346
0.0157596
0.0159585
0.0162258
0.0165544
0.016937
0.0173659
0.0178338
0.0183338
0.0188594
0.019405
0.0199655
0.0205364
0.0211139
0.0216946
0.0222756
0.0228545
0.0234289
0.0239971
0.0245575
0.0251088
0.0256501
0.0261803
0.0266987
0.0272044
0.0276969
0.0281755
0.0286399
0.0290895
0.029524
0.0299432
0.0303467
0.0307343
0.0311058
0.0314612
0.0318004
0.0321233
0.0324299
0.0327203
0.0329945
0.0332522
0.0243246
0.024149
0.0239836
0.0238256
0.0236718
0.0235195
0.0233663
0.0232101
0.0230498
0.0228845
0.0227135
0.0225367
0.0223538
0.0221647
0.0219692
0.0217669
0.0215573
0.0213397
0.021113
0.0208762
0.0206281
0.0203674
0.020093
0.0198044
0.0195013
0.0191846
0.0188565
0.0185202
0.018181
0.0178456
0.0175221
0.0172198
0.0169488
0.0167189
0.0165391
0.016417
0.0163585
0.016367
0.0164439
0.0165884
0.0167979
0.0170683
0.0173945
0.017771
0.0181916
0.0186506
0.019142
0.0196605
0.0202012
0.0207593
0.0213308
0.0219119
0.0224992
0.0230896
0.0236806
0.0242698
0.0248551
0.0254345
0.0260062
0.0265687
0.0271206
0.0276605
0.0281872
0.0286999
0.0291975
0.0296795
0.030145
0.0305936
0.031025
0.0314386
0.0318344
0.0322121
0.0325716
0.032913
0.0332356
0.0243248
0.0241497
0.0239862
0.0238322
0.0236855
0.023544
0.0234057
0.0232688
0.0231318
0.0229936
0.0228531
0.0227097
0.0225629
0.0224126
0.0222584
0.0221002
0.0219379
0.0217713
0.0216001
0.021424
0.0212425
0.0210549
0.0208606
0.0206585
0.0204481
0.0202285
0.0199992
0.0197601
0.0195117
0.0192553
0.018993
0.0187282
0.0184655
0.0182106
0.01797
0.0177515
0.0175626
0.0174112
0.0173045
0.0172486
0.0172484
0.0173073
0.0174269
0.0176075
0.0178476
0.0181449
0.0184957
0.0188958
0.0193406
0.019825
0.0203441
0.0208926
0.0214656
0.0220582
0.022666
0.0232845
0.0239099
0.0245384
0.0251667
0.0257916
0.0264103
0.0270204
0.0276197
0.0282062
0.0287784
0.0293348
0.0298742
0.0303958
0.0308987
0.0313824
0.0318463
0.0322902
0.0327138
0.033117
0.0334991
0.0243248
0.0241499
0.023987
0.0238344
0.0236903
0.0235531
0.0234211
0.0232926
0.0231662
0.0230406
0.0229147
0.0227876
0.0226587
0.0225274
0.0223935
0.0222568
0.0221174
0.0219751
0.0218302
0.0216826
0.0215323
0.0213794
0.0212236
0.0210647
0.0209024
0.0207364
0.0205661
0.0203912
0.0202114
0.0200265
0.0198369
0.0196433
0.019447
0.0192503
0.0190561
0.0188685
0.0186921
0.0185325
0.0183958
0.0182885
0.0182169
0.0181872
0.0182048
0.0182742
0.0183988
0.0185805
0.0188202
0.019117
0.0194692
0.0198736
0.0203262
0.0208224
0.0213569
0.0219241
0.0225183
0.023134
0.0237657
0.0244084
0.0250573
0.0257081
0.0263568
0.027
0.0276347
0.0282583
0.0288685
0.0294635
0.0300416
0.0306017
0.0311427
0.0316637
0.0321642
0.0326437
0.0331019
0.0335387
0.033953
0.0243248
0.0241499
0.023987
0.0238344
0.0236903
0.0235531
0.0234211
0.0232926
0.0231662
0.0230406
0.0229147
0.0227876
0.0226587
0.0225274
0.0223935
0.0222568
0.0221174
0.0219751
0.0218302
0.0216826
0.0215323
0.0213794
0.0212236
0.0210647
0.0209025
0.0207364
0.0205662
0.0203913
0.0202114
0.0200266
0.019837
0.0196433
0.0194471
0.0192504
0.0190562
0.0188686
0.0186922
0.0185326
0.0183959
0.0182886
0.0182171
0.0181874
0.018205
0.0182744
0.0183989
0.0185807
0.0188203
0.0191172
0.0194693
0.0198737
0.0203263
0.0208224
0.0213569
0.021924
0.0225181
0.0231336
0.0237651
0.0244074
0.0250559
0.0257062
0.0263544
0.026997
0.027631
0.0282539
0.0288634
0.0294576
0.0300351
0.0305945
0.0311349
0.0316555
0.0321556
0.0326348
0.0330928
0.0335295
0.0339439
0.0243248
0.0241497
0.0239862
0.0238322
0.0236855
0.023544
0.0234057
0.0232688
0.0231318
0.0229936
0.0228531
0.0227097
0.022563
0.0224127
0.0222585
0.0221003
0.021938
0.0217714
0.0216003
0.0214242
0.0212427
0.0210552
0.0208608
0.0206588
0.0204484
0.0202289
0.0199996
0.0197606
0.0195122
0.0192558
0.0189936
0.0187289
0.0184662
0.0182112
0.0179708
0.0177522
0.0175633
0.0174119
0.0173051
0.0172491
0.0172489
0.0173077
0.0174273
0.0176078
0.0178478
0.018145
0.0184957
0.0188958
0.0193406
0.019825
0.020344
0.0208924
0.0214653
0.0220578
0.0226652
0.0232833
0.0239082
0.024536
0.0251634
0.0257873
0.0264048
0.0270136
0.0276114
0.0281964
0.028767
0.0293218
0.0298597
0.0303799
0.0308815
0.0313641
0.0318273
0.0322706
0.032694
0.0330973
0.0334797
0.0243246
0.024149
0.0239836
0.0238256
0.0236719
0.0235196
0.0233663
0.0232102
0.0230499
0.0228846
0.0227136
0.0225368
0.022354
0.0221649
0.0219695
0.0217672
0.0215577
0.0213401
0.0211135
0.0208768
0.0206287
0.0203681
0.0200938
0.0198052
0.0195022
0.0191857
0.0188576
0.0185214
0.0181822
0.0178468
0.0175233
0.0172211
0.0169501
0.01672
0.0165401
0.0164179
0.0163592
0.0163675
0.0164443
0.0165886
0.0167978
0.0170681
0.0173942
0.0177705
0.018191
0.0186499
0.0191413
0.0196598
0.0202004
0.0207585
0.02133
0.0219111
0.0224982
0.0230885
0.0236792
0.024268
0.0248527
0.0254314
0.0260022
0.0265636
0.0271141
0.0276526
0.0281778
0.0286888
0.0291848
0.0296651
0.0301292
0.0305764
0.0310066
0.0314194
0.0318145
0.0321919
0.0325515
0.0328933
0.0332167
0.0243243
0.0241468
0.0239767
0.0238093
0.0236402
0.0234659
0.0232839
0.0230927
0.0228916
0.0226803
0.022459
0.0222278
0.0219865
0.0217349
0.0214724
0.0211979
0.0209102
0.020608
0.0202896
0.0199538
0.0195998
0.0192277
0.0188389
0.0184364
0.0180255
0.0176135
0.0172098
0.0168258
0.016474
0.0161667
0.0159159
0.0157315
0.0156208
0.0155882
0.015635
0.0157597
0.0159584
0.0162254
0.0165537
0.0169361
0.0173649
0.0178326
0.0183325
0.018858
0.0194036
0.019964
0.020535
0.0211125
0.0216932
0.0222743
0.0228532
0.0234276
0.0239957
0.024556
0.0251072
0.0256481
0.0261778
0.0266954
0.0272003
0.0276918
0.0281693
0.0286324
0.0290808
0.029514
0.0299318
0.030334
0.0307205
0.0310911
0.0314458
0.0317845
0.0321073
0.032414
0.0327048
0.0329799
0.0332387
0.0243232
0.0241413
0.0239602
0.023773
0.023574
0.0233598
0.0231285
0.02288
0.0226147
0.0223334
0.0220366
0.0217245
0.0213967
0.0210524
0.0206903
0.0203087
0.0199064
0.0194823
0.0190365
0.0185709
0.0180893
0.0175983
0.0171077
0.0166298
0.0161793
0.0157719
0.0154231
0.0151467
0.0149536
0.0148505
0.0148401
0.0149212
0.0150891
0.0153366
0.0156551
0.0160352
0.0164674
0.0169426
0.0174524
0.0179893
0.0185467
0.0191187
0.0197006
0.020288
0.0208774
0.0214657
0.0220505
0.0226295
0.023201
0.0237634
0.0243153
0.0248557
0.0253836
0.0258985
0.0263997
0.0268868
0.0273596
0.0278176
0.0282607
0.0286887
0.0291016
0.0294992
0.0298815
0.0302486
0.0306004
0.030937
0.0312584
0.0315648
0.0318562
0.0321327
0.0323944
0.0326413
0.0328737
0.0330918
0.0332952
0.0243204
0.0241281
0.0239242
0.0236991
0.0234473
0.0231669
0.0228585
0.0225241
0.0221657
0.0217847
0.0213819
0.0209571
0.0205092
0.020037
0.0195396
0.0190166
0.0184697
0.0179029
0.0173235
0.016743
0.0161762
0.0156413
0.0151579
0.0147454
0.0144205
0.0141957
0.014078
0.0140686
0.0141639
0.0143559
0.0146344
0.0149875
0.0154034
0.0158705
0.0163783
0.0169174
0.0174798
0.0180586
0.0186481
0.0192435
0.0198408
0.0204367
0.0210287
0.0216145
0.0221923
0.0227606
0.0233182
0.0238641
0.0243975
0.0249176
0.0254238
0.0259157
0.0263931
0.0268558
0.0273035
0.0277362
0.0281539
0.0285564
0.028944
0.0293165
0.029674
0.0300167
0.0303447
0.0306581
0.0309569
0.0312413
0.0315115
0.0317675
0.0320095
0.0322375
0.0324518
0.0326524
0.0328393
0.033013
0.0331731
0.0243137
0.0240994
0.0238518
0.0235606
0.0232232
0.0228424
0.0224226
0.0219685
0.0214835
0.0209692
0.020426
0.0198536
0.0192515
0.0186206
0.017964
0.0172885
0.0166055
0.0159315
0.0152876
0.0146979
0.0141868
0.0137762
0.0134821
0.0133136
0.013272
0.0133516
0.0135417
0.0138283
0.0141964
0.0146309
0.0151179
0.015645
0.0162018
0.0167793
0.0173703
0.0179689
0.0185703
0.0191707
0.019767
0.020357
0.0209387
0.0215106
0.0220715
0.0226206
0.0231571
0.0236804
0.0241901
0.0246858
0.0251672
0.0256342
0.0260867
0.0265246
0.026948
0.0273568
0.0277512
0.0281313
0.0284972
0.0288489
0.0291866
0.0295104
0.0298204
0.0301169
0.0303997
0.0306692
0.0309253
0.0311683
0.031398
0.0316147
0.0318184
0.0320092
0.0321871
0.0323522
0.0325047
0.0326448
0.0327721
0.024299
0.0240417
0.0237171
0.0233196
0.022855
0.0223331
0.0217635
0.0211532
0.0205061
0.0198241
0.0191081
0.01836
0.0175845
0.0167909
0.0159945
0.0152174
0.0144873
0.0138346
0.0132887
0.0128734
0.0126033
0.0124826
0.0125058
0.0126596
0.0129265
0.0132871
0.0137223
0.014215
0.0147501
0.0153152
0.0159002
0.0164969
0.0170991
0.0177016
0.0183008
0.0188936
0.0194779
0.020052
0.0206146
0.0211649
0.0217021
0.0222258
0.0227357
0.0232315
0.0237132
0.0241807
0.024634
0.025073
0.0254979
0.0259087
0.0263057
0.0266891
0.0270589
0.0274156
0.0277592
0.0280899
0.028408
0.0287136
0.0290068
0.0292878
0.0295567
0.0298136
0.0300586
0.0302916
0.0305127
0.030722
0.0309194
0.0311049
0.0312785
0.0314402
0.03159
0.031728
0.0318541
0.0319687
0.0320712
0.0242687
0.0239334
0.0234838
0.022929
0.0222889
0.0215829
0.0208248
0.0200231
0.0191822
0.018306
0.0174001
0.0164756
0.015551
0.0146534
0.0138173
0.0130808
0.0124791
0.0120388
0.0117733
0.0116814
0.0117503
0.0119589
0.0122827
0.0126972