/*--------------------------------*- C++ -*----------------------------------*\
  =========                 |
  \\      /  F ield         | OpenFOAM: The Open Source CFD Toolbox
   \\    /   O peration     | Website:  https://openfoam.org
    \\  /    A nd           | Version:  7
     \\/     M anipulation  |
\*---------------------------------------------------------------------------*/
FoamFile
{
    version     2.0;
    format      ascii;
    class       volScalarField;
    location    "550";
    object      p;
}
// * * * * * * * * * * * * * * * * * * * * * * * * * * * * * * * * * * * * * //

dimensions      [0 2 -2 0 0 0 0];

internalField   nonuniform List<scalar> 
4500
(
66.3846
63.3729
62.213
61.0789
59.9508
58.8659
57.8149
56.788
55.7817
54.7935
53.8208
52.8618
51.9151
50.9794
50.0538
49.1373
48.2292
47.3289
46.4358
45.5494
44.6692
43.795
42.9262
42.0627
41.2041
40.3501
39.5005
38.655
37.8135
36.9758
36.1416
35.3108
34.4833
33.6589
32.8374
32.0187
31.2027
30.3893
29.5783
28.7697
27.9634
27.1593
26.3573
25.5574
24.7595
23.9634
23.1692
22.3766
21.5854
20.7954
20.0064
19.218
18.4298
17.6414
16.8524
16.0623
15.2707
14.477
13.6809
12.8819
12.0797
11.274
10.4644
9.6509
8.83325
8.01134
7.18518
6.35472
5.52007
4.68128
3.83851
2.99189
2.1416
1.2879
0.431766
65.9978
63.3446
62.2119
61.0793
59.9512
58.8662
57.8151
56.7881
55.7819
54.7936
53.8209
52.8619
51.9152
50.9795
50.0538
49.1373
48.2292
47.3289
46.4358
45.5494
44.6693
43.795
42.9263
42.0627
41.2041
40.3501
39.5005
38.655
37.8135
36.9758
36.1416
35.3109
34.4833
33.6589
32.8374
32.0187
31.2027
30.3893
29.5783
28.7697
27.9634
27.1593
26.3573
25.5574
24.7595
23.9634
23.1692
22.3765
21.5854
20.7954
20.0064
19.218
18.4298
17.6414
16.8524
16.0623
15.2707
14.477
13.6809
12.8819
12.0797
11.274
10.4644
9.65089
8.83324
8.01133
7.18518
6.35472
5.52006
4.68127
3.8385
2.99189
2.1416
1.2879
0.431765
65.9103
63.3515
62.214
61.0804
59.9519
58.8667
57.8155
56.7884
55.7821
54.7938
53.8211
52.862
51.9153
50.9796
50.0539
49.1374
48.2293
47.329
46.4359
45.5495
44.6693
43.7951
42.9263
42.0628
41.2041
40.3501
39.5005
38.655
37.8135
36.9758
36.1416
35.3109
34.4833
33.6589
32.8374
32.0187
31.2027
30.3893
29.5783
28.7697
27.9634
27.1593
26.3573
25.5574
24.7595
23.9634
23.1692
22.3765
21.5854
20.7954
20.0064
19.218
18.4298
17.6414
16.8524
16.0623
15.2707
14.477
13.6809
12.8819
12.0797
11.2739
10.4644
9.65088
8.83323
8.01132
7.18516
6.35471
5.52005
4.68127
3.8385
2.99188
2.14159
1.2879
0.431763
65.91
63.3597
62.2158
61.0815
59.9527
58.8673
57.8159
56.7888
55.7824
54.7941
53.8213
52.8622
51.9155
50.9797
50.054
49.1375
48.2294
47.3291
46.4359
45.5495
44.6694
43.7951
42.9264
42.0628
41.2042
40.3501
39.5005
38.6551
37.8136
36.9758
36.1416
35.3109
34.4834
33.6589
32.8374
32.0187
31.2027
30.3893
29.5783
28.7697
27.9634
27.1593
26.3573
25.5574
24.7594
23.9634
23.1691
22.3765
21.5854
20.7954
20.0064
19.218
18.4298
17.6414
16.8524
16.0623
15.2707
14.477
13.6808
12.8819
12.0797
11.2739
10.4644
9.65087
8.83321
8.01131
7.18515
6.3547
5.52004
4.68126
3.83849
2.99188
2.14159
1.28789
0.431761
65.9062
63.3629
62.217
61.0826
59.9536
58.868
57.8164
56.7892
55.7828
54.7943
53.8215
52.8624
51.9156
50.9799
50.0542
49.1376
48.2295
47.3292
46.436
45.5496
44.6694
43.7952
42.9264
42.0629
41.2042
40.3502
39.5006
38.6551
37.8136
36.9758
36.1417
35.3109
34.4834
33.6589
32.8374
32.0187
31.2027
30.3893
29.5783
28.7697
27.9634
27.1593
26.3573
25.5574
24.7594
23.9634
23.1691
22.3765
21.5853
20.7954
20.0064
19.218
18.4298
17.6414
16.8524
16.0623
15.2706
14.4769
13.6808
12.8818
12.0796
11.2739
10.4644
9.65086
8.8332
8.0113
7.18515
6.35469
5.52004
4.68125
3.83849
2.99188
2.14159
1.28789
0.43176
65.8959
63.3652
62.218
61.0837
59.9545
58.8687
57.817
56.7897
55.7832
54.7947
53.8218
52.8627
51.9159
50.9801
50.0544
49.1378
48.2296
47.3293
46.4361
45.5497
44.6695
43.7952
42.9265
42.0629
41.2043
40.3502
39.5006
38.6551
37.8136
36.9759
36.1417
35.3109
34.4834
33.6589
32.8374
32.0188
31.2028
30.3893
29.5783
28.7697
27.9634
27.1593
26.3573
25.5574
24.7594
23.9634
23.1691
22.3765
21.5853
20.7954
20.0064
19.2179
18.4298
17.6414
16.8524
16.0623
15.2706
14.4769
13.6808
12.8818
12.0796
11.2739
10.4644
9.65085
8.83319
8.0113
7.18514
6.35468
5.52003
4.68125
3.83849
2.99187
2.14159
1.28789
0.431758
65.8862
63.3681
62.2189
61.0846
59.9554
58.8695
57.8177
56.7903
55.7837
54.7951
53.8222
52.863
51.9161
50.9803
50.0546
49.138
48.2298
47.3294
46.4363
45.5498
44.6696
43.7953
42.9266
42.063
41.2043
40.3503
39.5007
38.6552
37.8137
36.9759
36.1417
35.311
34.4834
33.659
32.8375
32.0188
31.2028
30.3893
29.5784
28.7697
27.9634
27.1593
26.3573
25.5574
24.7594
23.9634
23.1691
22.3765
21.5853
20.7954
20.0064
19.2179
18.4297
17.6414
16.8524
16.0623
15.2706
14.4769
13.6808
12.8818
12.0796
11.2739
10.4644
9.65084
8.83319
8.01129
7.18514
6.35468
5.52003
4.68125
3.83849
2.99188
2.14159
1.2879
0.431757
65.8776
63.3713
62.2197
61.0854
59.9562
58.8703
57.8184
56.7908
55.7842
54.7955
53.8225
52.8633
51.9164
50.9806
50.0548
49.1382
48.23
47.3296
46.4364
45.5499
44.6698
43.7955
42.9267
42.0631
41.2044
40.3504
39.5007
38.6553
37.8137
36.976
36.1418
35.311
34.4835
33.659
32.8375
32.0188
31.2028
30.3894
29.5784
28.7698
27.9634
27.1593
26.3573
25.5574
24.7594
23.9634
23.1691
22.3765
21.5853
20.7954
20.0063
19.2179
18.4297
17.6413
16.8523
16.0622
15.2706
14.4769
13.6808
12.8818
12.0796
11.2739
10.4644
9.65084
8.83318
8.01129
7.18513
6.35468
5.52003
4.68125
3.83849
2.99188
2.14159
1.2879
0.431756
65.8687
63.3745
62.2203
61.0861
59.9569
58.871
57.8191
56.7915
55.7847
54.796
53.823
52.8637
51.9168
50.9809
50.0551
49.1384
48.2302
47.3298
46.4366
45.5501
44.6699
43.7956
42.9268
42.0632
41.2045
40.3505
39.5008
38.6553
37.8138
36.976
36.1418
35.311
34.4835
33.659
32.8375
32.0188
31.2028
30.3894
29.5784
28.7698
27.9634
27.1593
26.3573
25.5574
24.7594
23.9634
23.1691
22.3765
21.5853
20.7954
20.0063
19.2179
18.4297
17.6413
16.8523
16.0622
15.2706
14.4769
13.6808
12.8818
12.0796
11.2739
10.4644
9.65083
8.83318
8.01129
7.18514
6.35468
5.52003
4.68126
3.83849
2.99188
2.1416
1.2879
0.431754
65.8591
63.3779
62.2208
61.0866
59.9575
58.8717
57.8197
56.7921
55.7853
54.7965
53.8234
52.8641
51.9171
50.9812
50.0554
49.1387
48.2305
47.33
46.4368
45.5503
44.6701
43.7957
42.9269
42.0633
41.2046
40.3506
39.5009
38.6554
37.8139
36.9761
36.1419
35.3111
34.4836
33.6591
32.8376
32.0189
31.2029
30.3894
29.5784
28.7698
27.9635
27.1593
26.3573
25.5574
24.7594
23.9634
23.1691
22.3765
21.5853
20.7953
20.0063
19.2179
18.4297
17.6413
16.8523
16.0622
15.2706
14.4769
13.6808
12.8818
12.0796
11.2739
10.4644
9.65083
8.83319
8.01129
7.18514
6.35469
5.52004
4.68126
3.8385
2.99189
2.1416
1.28791
0.431751
65.8488
63.3814
62.2212
61.0871
59.958
58.8722
57.8203
56.7927
55.7859
54.7971
53.8239
52.8646
51.9175
50.9816
50.0557
49.139
48.2307
47.3303
46.437
45.5505
44.6703
43.7959
42.9271
42.0635
41.2048
40.3507
39.501
38.6555
37.814
36.9762
36.142
35.3112
34.4836
33.6592
32.8376
32.0189
31.2029
30.3894
29.5785
28.7698
27.9635
27.1594
26.3573
25.5574
24.7595
23.9634
23.1691
22.3765
21.5853
20.7953
20.0063
19.2179
18.4297
17.6413
16.8523
16.0622
15.2706
14.4769
13.6808
12.8818
12.0796
11.2739
10.4644
9.65084
8.83319
8.0113
7.18515
6.35469
5.52005
4.68127
3.8385
2.99189
2.14161
1.28791
0.431747
65.8379
63.3852
62.2214
61.0874
59.9584
58.8727
57.8208
56.7933
55.7864
54.7976
53.8244
52.865
51.918
50.982
50.0561
49.1393
48.231
47.3306
46.4373
45.5507
44.6705
43.7961
42.9273
42.0636
41.2049
40.3508
39.5012
38.6557
37.8141
36.9763
36.1421
35.3113
34.4837
33.6592
32.8377
32.019
31.203
30.3895
29.5785
28.7699
27.9635
27.1594
26.3574
25.5574
24.7595
23.9634
23.1691
22.3765
21.5853
20.7954
20.0063
19.2179
18.4297
17.6413
16.8523
16.0622
15.2706
14.4769
13.6808
12.8818
12.0796
11.2739
10.4644
9.65085
8.8332
8.0113
7.18515
6.3547
5.52005
4.68127
3.83851
2.9919
2.14162
1.28792
0.43174
65.8262
63.3894
62.2216
61.0877
59.9587
58.873
57.8212
56.7937
55.7869
54.7981
53.8249
52.8655
51.9184
50.9824
50.0565
49.1397
48.2314
47.3309
46.4376
45.551
44.6707
43.7964
42.9275
42.0639
41.2051
40.351
39.5013
38.6558
37.8142
36.9764
36.1422
35.3114
34.4838
33.6593
32.8378
32.0191
31.203
30.3896
29.5786
28.7699
27.9636
27.1594
26.3574
25.5575
24.7595
23.9634
23.1692
22.3765
21.5853
20.7954
20.0064
19.2179
18.4297
17.6413
16.8523
16.0622
15.2706
14.4769
13.6808
12.8818
12.0796
11.2739
10.4644
9.65086
8.83321
8.01131
7.18516
6.35471
5.52006
4.68128
3.83852
2.99191
2.14162
1.28792
0.431731
65.8138
63.3939
62.2217
61.0878
59.9588
58.8732
57.8215
56.7941
55.7874
54.7986
53.8254
52.866
51.9189
50.9829
50.0569
49.1401
48.2318
47.3312
46.4379
45.5513
44.671
43.7966
42.9277
42.0641
41.2053
40.3512
39.5015
38.656
37.8144
36.9766
36.1423
35.3115
34.4839
33.6594
32.8379
32.0192
31.2031
30.3897
29.5786
28.77
27.9636
27.1595
26.3575
25.5575
24.7596
23.9635
23.1692
22.3766
21.5854
20.7954
20.0064
19.2179
18.4297
17.6414
16.8524
16.0623
15.2706
14.4769
13.6808
12.8818
12.0796
11.2739
10.4644
9.65087
8.83322
8.01133
7.18518
6.35472
5.52007
4.68129
3.83853
2.99191
2.14163
1.28793
0.431717
65.8007
63.3989
62.2219
61.088
59.959
58.8733
57.8217
56.7943
55.7877
54.799
53.8258
52.8665
51.9193
50.9833
50.0573
49.1405
48.2321
47.3316
46.4383
45.5516
44.6713
43.7969
42.928
42.0643
41.2056
40.3514
39.5017
38.6562
37.8146
36.9768
36.1425
35.3117
34.4841
33.6596
32.838
32.0193
31.2032
30.3898
29.5787
28.7701
27.9637
27.1596
26.3575
25.5576
24.7596
23.9635
23.1692
22.3766
21.5854
20.7954
20.0064
19.218
18.4298
17.6414
16.8524
16.0623
15.2706
14.4769
13.6808
12.8818
12.0797
11.2739
10.4644
9.65089
8.83324
8.01134
7.18519
6.35474
5.52008
4.6813
3.83853
2.99192
2.14163
1.28793
0.431698
65.7867
63.4043
62.222
61.0882
59.959
58.8734
57.8218
56.7945
55.7879
54.7992
53.8262
52.8668
51.9198
50.9837
50.0577
49.1409
48.2326
47.332
46.4386
45.552
44.6717
43.7972
42.9283
42.0646
41.2058
40.3517
39.502
38.6564
37.8148
36.977
36.1427
35.3118
34.4842
33.6597
32.8382
32.0194
31.2034
30.3899
29.5789
28.7702
27.9638
27.1597
26.3576
25.5577
24.7597
23.9636
23.1693
22.3767
21.5855
20.7955
20.0065
19.218
18.4298
17.6414
16.8524
16.0623
15.2707
14.477
13.6809
12.8819
12.0797
11.274
10.4644
9.65091
8.83326
8.01136
7.18521
6.35475
5.5201
4.68131
3.83854
2.99193
2.14163
1.28793
0.431672
65.772
63.4102
62.2221
61.0885
59.9591
58.8734
57.8218
56.7945
55.788
54.7994
53.8264
52.8671
51.9201
50.9841
50.0581
49.1413
48.233
47.3324
46.439
45.5524
44.672
43.7976
42.9286
42.0649
41.2061
40.352
39.5022
38.6567
37.815
36.9772
36.1429
35.312
34.4844
33.6599
32.8383
32.0196
31.2035
30.39
29.579
28.7703
27.9639
27.1598
26.3577
25.5578
24.7598
23.9637
23.1694
22.3767
21.5855
20.7955
20.0065
19.2181
18.4299
17.6415
16.8525
16.0624
15.2707
14.477
13.6809
12.8819
12.0797
11.274
10.4645
9.65094
8.83328
8.01138
7.18523
6.35477
5.52011
4.68132
3.83855
2.99193
2.14164
1.28793
0.431637
65.7565
63.4165
62.2223
61.0888
59.9593
58.8734
57.8218
56.7945
55.788
54.7995
53.8265
52.8673
51.9203
50.9844
50.0585
49.1417
48.2333
47.3327
46.4394
45.5527
44.6724
43.7979
42.929
42.0653
41.2065
40.3523
39.5025
38.6569
37.8153
36.9774
36.1432
35.3123
34.4847
33.6601
32.8385
32.0198
31.2037
30.3902
29.5791
28.7705
27.9641
27.1599
26.3579
25.5579
24.7599
23.9638
23.1695
22.3768
21.5856
20.7956
20.0066
19.2181
18.4299
17.6415
16.8525
16.0624
15.2708
14.4771
13.6809
12.882
12.0798
11.274
10.4645
9.65097
8.83331
8.01141
7.18525
6.35479
5.52013
4.68134
3.83856
2.99194
2.14164
1.28794
0.431591
65.7401
63.4233
62.2225
61.0891
59.9595
58.8735
57.8218
56.7945
55.788
54.7994
53.8265
52.8673
51.9204
50.9846
50.0587
49.142
48.2336
47.3331
46.4397
45.5531
44.6728
43.7983
42.9293
42.0656
41.2068
40.3526
39.5028
38.6572
37.8156
36.9777
36.1434
35.3125
34.4849
33.6604
32.8388
32.02
31.2039
30.3904
29.5793
28.7707
27.9643
27.1601
26.358
25.558
24.76
23.9639
23.1696
22.3769
21.5857
20.7957
20.0067
19.2182
18.43
17.6416
16.8526
16.0625
15.2708
14.4771
13.681
12.882
12.0798
11.2741
10.4645
9.65101
8.83335
8.01144
7.18528
6.35481
5.52015
4.68135
3.83858
2.99195
2.14165
1.28794
0.431531
65.7231
63.4305
62.2226
61.0896
59.9597
58.8736
57.8219
56.7945
55.7879
54.7994
53.8265
52.8673
51.9204
50.9846
50.0588
49.1421
48.2339
47.3333
46.44
45.5534
44.6731
43.7986
42.9297
42.066
41.2071
40.353
39.5032
38.6576
37.8159
36.978
36.1437
35.3128
34.4852
33.6606
32.839
32.0202
31.2041
30.3906
29.5796
28.7709
27.9645
27.1603
26.3582
25.5582
24.7602
23.9641
23.1698
22.3771
21.5859
20.7959
20.0068
19.2183
18.4301
17.6417
16.8527
16.0626
15.2709
14.4772
13.6811
12.8821
12.0799
11.2741
10.4646
9.65105
8.83339
8.01148
7.18531
6.35484
5.52017
4.68137
3.83859
2.99196
2.14166
1.28794
0.431453
65.7054
63.438
62.2227
61.0901
59.96
58.8737
57.8219
56.7945
55.7879
54.7993
53.8264
52.8673
51.9204
50.9846
50.0588
49.1422
48.2339
47.3335
46.4402
45.5537
44.6734
43.7989
42.93
42.0663
41.2075
40.3533
39.5035
38.6579
37.8162
36.9784
36.144
35.3131
34.4855
33.6609
32.8393
32.0205
31.2044
30.3909
29.5798
28.7711
27.9647
27.1605
26.3584
25.5584
24.7604
23.9643
23.1699
22.3772
21.586
20.796
20.0069
19.2185
18.4302
17.6418
16.8528
16.0627
15.271
14.4773
13.6811
12.8821
12.0799
11.2742
10.4647
9.65111
8.83344
8.01152
7.18535
6.35488
5.5202
4.6814
3.83861
2.99198
2.14167
1.28795
0.431354
65.6872
63.4459
62.2228
61.0907
59.9603
58.8739
57.8221
56.7946
55.7879
54.7993
53.8264
52.8672
51.9203
50.9845
50.0587
49.1421
48.2339
47.3335
46.4403
45.5538
44.6735
43.7991
42.9303
42.0666
41.2078
40.3536
39.5038
38.6582
37.8166
36.9787
36.1444
35.3135
34.4858
33.6612
32.8396
32.0208
31.2047
30.3911
29.5801
28.7714
27.9649
27.1607
26.3586
25.5586
24.7606
23.9645
23.1701
22.3774
21.5862
20.7962
20.0071
19.2186
18.4304
17.642
16.8529
16.0628
15.2711
14.4774
13.6812
12.8822
12.08
11.2743
10.4647
9.65118
8.8335
8.01158
7.1854
6.35492
5.52024
4.68143
3.83864
2.992
2.14169
1.28797
0.43123
65.6687
63.454
62.2227
61.0913
59.9607
58.8742
57.8222
56.7947
55.788
54.7993
53.8264
52.8672
51.9203
50.9844
50.0587
49.142
48.2339
47.3335
46.4403
45.5538
44.6736
43.7992
42.9304
42.0667
41.208
40.3538
39.5041
38.6585
37.8169
36.979
36.1447
35.3138
34.4861
33.6615
32.8399
32.0211
31.205
30.3914
29.5804
28.7716
27.9652
27.161
26.3589
25.5589
24.7609
23.9647
23.1704
22.3777
21.5864
20.7964
20.0073
19.2188
18.4306
17.6421
16.8531
16.0629
15.2713
14.4775
13.6814
12.8824
12.0801
11.2744
10.4648
9.65126
8.83358
8.01165
7.18546
6.35498
5.52029
4.68148
3.83868
2.99204
2.14171
1.28799
0.431076
65.6501
63.4623
62.2227
61.0919
59.9612
58.8744
57.8224
56.7948
55.7881
54.7994
53.8264
52.8671
51.9202
50.9844
50.0586
49.142
48.2338
47.3334
46.4402
45.5537
44.6735
43.7992
42.9304
42.0668
41.2081
40.354
39.5043
38.6587
37.8171
36.9792
36.145
35.3141
34.4864
33.6618
32.8402
32.0214
31.2053
30.3918
29.5807
28.7719
27.9655
27.1613
26.3592
25.5592
24.7611
23.965
23.1706
22.3779
21.5867
20.7966
20.0075
19.219
18.4308
17.6423
16.8533
16.0631
15.2714
14.4777
13.6815
12.8825
12.0803
11.2745
10.4649
9.65136
8.83367
8.01173
7.18554
6.35504
5.52036
4.68154
3.83873
2.99208
2.14175
1.28802
0.430888
65.6319
63.4705
62.2225
61.0925
59.9616
58.8747
57.8226
56.795
55.7882
54.7995
53.8264
52.8672
51.9202
50.9844
50.0585
49.1419
48.2337
47.3333
46.4401
45.5536
44.6735
43.7991
42.9304
42.0668
41.2081
40.354
39.5043
38.6588
37.8172
36.9794
36.1451
35.3143
34.4867
33.6621
32.8405
32.0217
31.2056
30.3921
29.581
28.7723
27.9658
27.1616
26.3595
25.5595
24.7614
23.9653
23.1709
22.3782
21.5869
20.7969
20.0078
19.2193
18.431
17.6426
16.8535
16.0633
15.2716
14.4779
13.6817
12.8826
12.0804
11.2746
10.4651
9.65148
8.83378
8.01183
7.18563
6.35513
5.52043
4.68161
3.8388
2.99214
2.1418
1.28807
0.430666
65.6144
63.4784
62.2222
61.0932
59.9621
58.875
57.8229
56.7952
55.7883
54.7996
53.8265
52.8672
51.9203
50.9844
50.0585
49.1419
48.2337
47.3332
46.44
45.5535
44.6734
43.799
42.9302
42.0667
41.208
40.3539
39.5043
38.6588
37.8172
36.9794
36.1452
35.3144
34.4868
33.6623
32.8407
32.0219
31.2058
30.3923
29.5812
28.7725
27.9661
27.1619
26.3598
25.5598
24.7617
23.9656
23.1712
22.3785
21.5872
20.7972
20.0081
19.2195
18.4313
17.6428
16.8537
16.0635
15.2718
14.4781
13.6819
12.8828
12.0806
11.2748
10.4652
9.65161
8.83391
8.01195
7.18574
6.35523
5.52053
4.6817
3.83888
2.99222
2.14187
1.28813
0.430413
65.5983
63.4858
62.2219
61.0937
59.9625
58.8752
57.8231
56.7953
55.7885
54.7997
53.8266
52.8673
51.9203
50.9844
50.0585
49.1419
48.2336
47.3332
46.44
45.5535
44.6733
43.799
42.9302
42.0666
41.2079
40.3538
39.5042
38.6587
37.8172
36.9794
36.1452
35.3144
34.4868
33.6623
32.8408
32.022
31.206
30.3925
29.5814
28.7727
27.9663
27.1621
26.36
25.56
24.762
23.9658
23.1715
22.3788
21.5875
20.7974
20.0083
19.2198
18.4315
17.6431
16.854
16.0638
15.272
14.4783
13.6821
12.883
12.0808
11.275
10.4654
9.65177
8.83405
8.01209
7.18588
6.35536
5.52065
4.68181
3.83898
2.99231
2.14196
1.28821
0.430138
65.5845
63.4923
62.2216
61.0942
59.9629
58.8755
57.8233
56.7955
55.7886
54.7998
53.8267
52.8674
51.9204
50.9844
50.0586
49.1419
48.2337
47.3332
46.44
45.5535
44.6732
43.7989
42.9301
42.0665
41.2078
40.3537
39.5041
38.6586
37.8171
36.9793
36.1451
35.3143
34.4867
33.6623
32.8408
32.022
31.206
30.3925
29.5815
28.7728
27.9665
27.1623
26.3602
25.5602
24.7622
23.9661
23.1717
22.379
21.5877
20.7977
20.0086
19.2201
18.4318
17.6433
16.8542
16.064
15.2723
14.4785
13.6823
12.8832
12.081
11.2751
10.4656
9.65194
8.83422
8.01225
7.18602
6.3555
5.52078
4.68193
3.8391
2.99242
2.14206
1.2883
0.429865
65.5739
63.4973
62.2212
61.0946
59.9632
58.8757
57.8234
56.7956
55.7887
54.7999
53.8268
52.8674
51.9204
50.9845
50.0586
49.1419
48.2337
47.3332
46.44
45.5535
44.6732
43.7989
42.9301
42.0664
41.2077
40.3537
39.504
38.6585
37.817
36.9792
36.145
35.3142
34.4867
33.6622
32.8407
32.022
31.2059
30.3925
29.5815
28.7728
27.9665
27.1623
26.3603
25.5603
24.7623
23.9662
23.1719
22.3792
21.5879
20.7979
20.0088
19.2203
18.432
17.6435
16.8544
16.0642
15.2725
14.4787
13.6825
12.8834
12.0811
11.2753
10.4657
9.65211
8.83438
8.0124
7.18617
6.35564
5.52091
4.68206
3.83922
2.99253
2.14217
1.2884
0.429633
65.5678
63.5002
62.221
61.0948
59.9633
58.8758
57.8235
56.7957
55.7888
54.8
53.8268
52.8675
51.9205
50.9845
50.0586
49.1419
48.2337
47.3332
46.44
45.5535
44.6732
43.7989
42.9301
42.0664
41.2077
40.3537
39.504
38.6585
37.8169
36.9792
36.1449
35.3141
34.4866
33.6621
32.8406
32.0219
31.2059
30.3924
29.5814
28.7728
27.9664
27.1623
26.3603
25.5603
24.7623
23.9662
23.1719
22.3792
21.588
20.798
20.0089
19.2204
18.4321
17.6436
16.8545
16.0644
15.2726
14.4788
13.6826
12.8836
12.0813
11.2754
10.4658
9.65223
8.83449
8.01251
7.18627
6.35573
5.521
4.68214
3.8393
2.99261
2.14224
1.28846
0.42949
65.5678
63.5002
62.221
61.0948
59.9633
58.8758
57.8235
56.7957
55.7888
54.8
53.8268
52.8675
51.9205
50.9845
50.0586
49.1419
48.2337
47.3332
46.44
45.5535
44.6732
43.7989
42.9301
42.0664
41.2077
40.3537
39.504
38.6585
37.8169
36.9792
36.1449
35.3141
34.4866
33.6621
32.8406
32.0219
31.2059
30.3924
29.5814
28.7728
27.9664
27.1623
26.3603
25.5603
24.7623
23.9662
23.1719
22.3792
21.588
20.798
20.0089
19.2204
18.4321
17.6436
16.8545
16.0644
15.2726
14.4788
13.6826
12.8836
12.0813
11.2754
10.4658
9.65222
8.83449
8.0125
7.18627
6.35573
5.521
4.68214
3.8393
2.99261
2.14224
1.28846
0.429488
65.5739
63.4973
62.2212
61.0946
59.9632
58.8757
57.8234
56.7956
55.7887
54.7999
53.8268
52.8674
51.9204
50.9845
50.0586
49.1419
48.2337
47.3332
46.44
45.5535
44.6732
43.7989
42.9301
42.0664
41.2077
40.3537
39.504
38.6585
37.817
36.9792
36.145
35.3142
34.4867
33.6622
32.8407
32.022
31.2059
30.3925
29.5815
28.7728
27.9665
27.1623
26.3603
25.5603
24.7623
23.9662
23.1719
22.3792
21.5879
20.7979
20.0088
19.2203
18.432
17.6435
16.8544
16.0642
15.2725
14.4787
13.6825
12.8834
12.0811
11.2753
10.4657
9.65211
8.83438
8.0124
7.18617
6.35563
5.52091
4.68205
3.83921
2.99253
2.14216
1.28839
0.429628
65.5845
63.4923
62.2216
61.0942
59.9629
58.8755
57.8233
56.7955
55.7886
54.7998
53.8267
52.8674
51.9204
50.9844
50.0586
49.1419
48.2337
47.3332
46.44
45.5535
44.6732
43.7989
42.9301
42.0665
41.2078
40.3537
39.5041
38.6586
37.8171
36.9793
36.1451
35.3143
34.4867
33.6623
32.8408
32.022
31.206
30.3925
29.5815
28.7728
27.9665
27.1623
26.3602
25.5602
24.7622
23.9661
23.1717
22.379
21.5878
20.7977
20.0086
19.2201
18.4318
17.6433
16.8542
16.064
15.2723
14.4785
13.6823
12.8832
12.081
11.2751
10.4656
9.65194
8.83422
8.01224
7.18602
6.35549
5.52077
4.68192
3.83909
2.99241
2.14205
1.28829
0.429858
65.5983
63.4858
62.2219
61.0937
59.9625
58.8752
57.8231
56.7953
55.7885
54.7997
53.8266
52.8673
51.9203
50.9844
50.0585
49.1419
48.2336
47.3332
46.44
45.5535
44.6733
43.799
42.9302
42.0666
41.2079
40.3538
39.5042
38.6587
37.8172
36.9794
36.1452
35.3144
34.4868
33.6623
32.8408
32.022
31.206
30.3925
29.5814
28.7727
27.9663
27.1621
26.36
25.56
24.762
23.9659
23.1715
22.3788
21.5875
20.7974
20.0083
19.2198
18.4315
17.6431
16.854
16.0638
15.2721
14.4783
13.6821
12.883
12.0808
11.275
10.4654
9.65177
8.83405
8.01208
7.18587
6.35535
5.52064
4.68179
3.83897
2.9923
2.14195
1.2882
0.43013
65.6144
63.4784
62.2222
61.0932
59.9621
58.875
57.8229
56.7952
55.7883
54.7996
53.8265
52.8672
51.9203
50.9844
50.0585
49.1419
48.2337
47.3332
46.44
45.5535
44.6734
43.799
42.9302
42.0667
41.208
40.3539
39.5043
38.6588
37.8172
36.9794
36.1452
35.3144
34.4868
33.6623
32.8407
32.0219
31.2058
30.3923
29.5812
28.7725
27.9661
27.1619
26.3598
25.5598
24.7617
23.9656
23.1712
22.3785
21.5872
20.7972
20.0081
19.2196
18.4313
17.6428
16.8537
16.0635
15.2718
14.4781
13.6819
12.8828
12.0806
11.2748
10.4652
9.65161
8.8339
8.01194
7.18574
6.35522
5.52052
4.68168
3.83887
2.9922
2.14186
1.28812
0.430404
65.6318
63.4705
62.2225
61.0925
59.9616
58.8747
57.8226
56.795
55.7882
54.7995
53.8264
52.8672
51.9202
50.9844
50.0585
49.1419
48.2337
47.3333
46.4401
45.5536
44.6735
43.7991
42.9304
42.0668
41.2081
40.354
39.5043
38.6588
37.8172
36.9794
36.1451
35.3143
34.4867
33.6621
32.8405
32.0217
31.2056
30.3921
29.581
28.7723
27.9658
27.1616
26.3595
25.5595
24.7614
23.9653
23.1709
22.3782
21.5869
20.7969
20.0078
19.2193
18.431
17.6426
16.8535
16.0633
15.2716
14.4779
13.6817
12.8827
12.0804
11.2746
10.4651
9.65147
8.83377
8.01182
7.18562
6.35512
5.52042
4.68159
3.83878
2.99212
2.14179
1.28805
0.430659
65.6501
63.4623
62.2227
61.0919
59.9612
58.8744
57.8224
56.7948
55.7881
54.7994
53.8264
52.8671
51.9202
50.9844
50.0586
49.142
48.2338
47.3334
46.4402
45.5537
44.6735
43.7992
42.9304
42.0668
41.2081
40.354
39.5043
38.6587
37.8171
36.9792
36.145
35.3141
34.4864
33.6618
32.8402
32.0214
31.2053
30.3918
29.5807
28.7719
27.9655
27.1613
26.3592
25.5592
24.7611
23.965
23.1706
22.3779
21.5867
20.7966
20.0076
19.2191
18.4308
17.6424
16.8533
16.0631
15.2714
14.4777
13.6815
12.8825
12.0803
11.2745
10.4649
9.65135
8.83366
8.01172
7.18553
6.35503
5.52034
4.68152
3.83872
2.99206
2.14173
1.28801
0.430882
65.6686
63.4541
62.2227
61.0913
59.9607
58.8742
57.8222
56.7947
55.788
54.7993
53.8264
52.8672
51.9203
50.9844
50.0587
49.142
48.2339
47.3335
46.4403
45.5538
44.6736
43.7992
42.9304
42.0667
41.208
40.3538
39.5041
38.6585
37.8169
36.979
36.1447
35.3138
34.4861
33.6615
32.8399
32.0211
31.205
30.3914
29.5804
28.7716
27.9652
27.161
26.3589
25.5589
24.7609
23.9647
23.1704
22.3777
21.5864
20.7964
20.0073
19.2188
18.4306
17.6422
16.8531
16.063
15.2713
14.4775
13.6814
12.8824
12.0801
11.2744
10.4648
9.65125
8.83357
8.01163
7.18545
6.35496
5.52028
4.68146
3.83866
2.99201
2.14169
1.28797
0.431071
65.6871
63.446
62.2228
61.0907
59.9603
58.8739
57.8221
56.7946
55.7879
54.7993
53.8264
52.8672
51.9203
50.9845
50.0587
49.1421
48.2339
47.3335
46.4403
45.5538
44.6735
43.7991
42.9303
42.0666
41.2078
40.3536
39.5038
38.6582
37.8166
36.9787
36.1444
35.3135
34.4858
33.6612
32.8396
32.0208
31.2047
30.3911
29.5801
28.7714
27.9649
27.1607
26.3586
25.5586
24.7606
23.9645
23.1702
22.3775
21.5862
20.7962
20.0071
19.2187
18.4304
17.642
16.853
16.0628
15.2711
14.4774
13.6813
12.8822
12.08
11.2743
10.4647
9.65117
8.8335
8.01156
7.18539
6.3549
5.52023
4.68141
3.83862
2.99198
2.14167
1.28795
0.431227
65.7053
63.4381
62.2227
61.0901
59.96
58.8737
57.8219
56.7945
55.7879
54.7993
53.8264
52.8673
51.9204
50.9846
50.0588
49.1422
48.2339
47.3335
46.4402
45.5537
44.6734
43.7989
42.93
42.0663
41.2075
40.3533
39.5035
38.6579
37.8162
36.9784
36.144
35.3131
34.4855
33.6609
32.8393
32.0205
31.2044
30.3909
29.5798
28.7711
27.9647
27.1605
26.3584
25.5584
24.7604
23.9643
23.1699
22.3773
21.586
20.796
20.007
19.2185
18.4303
17.6418
16.8528
16.0627
15.271
14.4773
13.6812
12.8822
12.0799
11.2742
10.4647
9.6511
8.83343
8.01151
7.18534
6.35485
5.52019
4.68138
3.83859
2.99195
2.14165
1.28793
0.431353
65.723
63.4305
62.2226
61.0896
59.9597
58.8736
57.8219
56.7945
55.7879
54.7994
53.8265
52.8673
51.9204
50.9846
50.0588
49.1421
48.2339
47.3333
46.44
45.5534
44.6731
43.7986
42.9297
42.066
41.2071
40.353
39.5032
38.6576
37.8159
36.978
36.1437
35.3128
34.4852
33.6606
32.839
32.0202
31.2041
30.3906
29.5796
28.7709
27.9645
27.1603
26.3582
25.5582
24.7602
23.9641
23.1698
22.3771
21.5859
20.7959
20.0068
19.2184
18.4301
17.6417
16.8527
16.0626
15.2709
14.4772
13.6811
12.8821
12.0799
11.2741
10.4646
9.65104
8.83338
8.01146
7.1853
6.35482
5.52015
4.68135
3.83857
2.99193
2.14163
1.28792
0.431454
65.7401
63.4233
62.2225
61.0891
59.9595
58.8735
57.8218
56.7945
55.788
54.7994
53.8265
52.8673
51.9204
50.9846
50.0587
49.142
48.2336
47.3331
46.4397
45.5531
44.6728
43.7983
42.9293
42.0656
41.2068
40.3526
39.5028
38.6572
37.8156
36.9777
36.1434
35.3125
34.4849
33.6604
32.8388
32.02
31.2039
30.3904
29.5793
28.7707
27.9643
27.1601
26.358
25.558
24.76
23.9639
23.1696
22.3769
21.5857
20.7957
20.0067
19.2182
18.43
17.6416
16.8526
16.0625
15.2708
14.4771
13.681
12.882
12.0798
11.2741
10.4645
9.651
8.83334
8.01142
7.18526
6.35479
5.52013
4.68133
3.83855
2.99192
2.14162
1.28792
0.431533
65.7564
63.4165
62.2223
61.0888
59.9593
58.8734
57.8218
56.7945
55.788
54.7995
53.8265
52.8673
51.9203
50.9844
50.0585
49.1417
48.2333
47.3327
46.4394
45.5527
44.6724
43.7979
42.929
42.0653
41.2065
40.3523
39.5025
38.6569
37.8153
36.9774
36.1432
35.3123
34.4847
33.6601
32.8385
32.0198
31.2037
30.3902
29.5792
28.7705
27.9641
27.1599
26.3579
25.5579
24.7599
23.9638
23.1695
22.3768
21.5856
20.7956
20.0066
19.2182
18.4299
17.6415
16.8525
16.0624
15.2708
14.4771
13.6809
12.882
12.0798
11.274
10.4645
9.65096
8.8333
8.01139
7.18524
6.35476
5.52011
4.68131
3.83854
2.99191
2.14162
1.28791
0.431595
65.7719
63.4102
62.2221
61.0885
59.9591
58.8734
57.8218
56.7945
55.788
54.7994
53.8264
52.8671
51.9201
50.9841
50.0581
49.1413
48.233
47.3324
46.439
45.5524
44.672
43.7976
42.9286
42.0649
41.2061
40.352
39.5022
38.6567
37.815
36.9772
36.1429
35.312
34.4844
33.6599
32.8383
32.0196
31.2035
30.39
29.579
28.7703
27.964
27.1598
26.3577
25.5578
24.7598
23.9637
23.1694
22.3767
21.5855
20.7956
20.0065
19.2181
18.4299
17.6415
16.8525
16.0624
15.2707
14.477
13.6809
12.8819
12.0797
11.274
10.4645
9.65092
8.83328
8.01136
7.18521
6.35474
5.52009
4.6813
3.83853
2.9919
2.14161
1.28791
0.431642
65.7867
63.4044
62.222
61.0882
59.959
58.8734
57.8218
56.7945
55.7879
54.7992
53.8262
52.8668
51.9198
50.9837
50.0577
49.1409
48.2326
47.332
46.4386
45.552
44.6717
43.7972
42.9283
42.0646
41.2058
40.3517
39.502
38.6564
37.8148
36.977
36.1427
35.3118
34.4842
33.6597
32.8382
32.0194
31.2034
30.3899
29.5789
28.7702
27.9638
27.1597
26.3576
25.5577
24.7597
23.9636
23.1693
22.3767
21.5855
20.7955
20.0065
19.218
18.4298
17.6414
16.8524
16.0623
15.2707
14.477
13.6809
12.8819
12.0797
11.2739
10.4644
9.6509
8.83325
8.01134
7.18519
6.35472
5.52008
4.68128
3.83852
2.9919
2.14161
1.28791
0.431678
65.8006
63.3989
62.2219
61.088
59.959
58.8733
57.8217
56.7943
55.7877
54.799
53.8258
52.8665
51.9193
50.9833
50.0573
49.1405
48.2321
47.3316
46.4383
45.5517
44.6713
43.7969
42.928
42.0643
41.2056
40.3514
39.5017
38.6562
37.8146
36.9768
36.1425
35.3117
34.4841
33.6596
32.838
32.0193
31.2032
30.3898
29.5787
28.7701
27.9637
27.1596
26.3575
25.5576
24.7596
23.9635
23.1693
22.3766
21.5854
20.7954
20.0064
19.218
18.4298
17.6414
16.8524
16.0623
15.2706
14.477
13.6808
12.8818
12.0797
11.2739
10.4644
9.65087
8.83323
8.01132
7.18518
6.35471
5.52006
4.68127
3.83851
2.99189
2.14161
1.28791
0.431706
65.8138
63.394
62.2217
61.0878
59.9588
58.8732
57.8215
56.7941
55.7874
54.7986
53.8254
52.866
51.9189
50.9829
50.0569
49.1401
48.2318
47.3312
46.4379
45.5513
44.671
43.7966
42.9277
42.0641
41.2053
40.3512
39.5015
38.656
37.8144
36.9766
36.1423
35.3115
34.4839
33.6594
32.8379
32.0192
31.2031
30.3897
29.5786
28.77
27.9637
27.1595
26.3575
25.5575
24.7596
23.9635
23.1692
22.3766
21.5854
20.7954
20.0064
19.218
18.4298
17.6414
16.8524
16.0623
15.2706
14.4769
13.6808
12.8818
12.0796
11.2739
10.4644
9.65086
8.83321
8.01131
7.18516
6.3547
5.52005
4.68126
3.8385
2.99188
2.1416
1.28791
0.431726
65.8262
63.3894
62.2216
61.0877
59.9587
58.873
57.8212
56.7937
55.7869
54.7981
53.8249
52.8655
51.9184
50.9824
50.0565
49.1397
48.2314
47.3309
46.4376
45.551
44.6707
43.7964
42.9275
42.0639
41.2051
40.351
39.5013
38.6558
37.8142
36.9764
36.1422
35.3114
34.4838
33.6593
32.8378
32.0191
31.203
30.3896
29.5786
28.7699
27.9636
27.1594
26.3574
25.5575
24.7595
23.9635
23.1692
22.3765
21.5854
20.7954
20.0064
19.2179
18.4297
17.6414
16.8524
16.0622
15.2706
14.4769
13.6808
12.8818
12.0796
11.2739
10.4644
9.65084
8.8332
8.01129
7.18515
6.35468
5.52004
4.68125
3.8385
2.99188
2.1416
1.2879
0.43174
65.8378
63.3853
62.2214
61.0874
59.9584
58.8727
57.8208
56.7933
55.7864
54.7976
53.8244
52.865
51.918
50.982
50.0561
49.1393
48.231
47.3306
46.4373
45.5507
44.6705
43.7961
42.9273
42.0636
41.2049
40.3508
39.5012
38.6557
37.8141
36.9763
36.1421
35.3113
34.4837
33.6592
32.8377
32.019
31.203
30.3895
29.5785
28.7699
27.9635
27.1594
26.3574
25.5574
24.7595
23.9634
23.1692
22.3765
21.5853
20.7954
20.0064
19.2179
18.4297
17.6413
16.8523
16.0622
15.2706
14.4769
13.6808
12.8818
12.0796
11.2739
10.4644
9.65083
8.83319
8.01128
7.18514
6.35467
5.52003
4.68125
3.83849
2.99187
2.14159
1.2879
0.431751
65.8488
63.3814
62.2212
61.0871
59.958
58.8722
57.8203
56.7927
55.7859
54.7971
53.8239
52.8646
51.9175
50.9816
50.0557
49.139
48.2307
47.3303
46.437
45.5505
44.6703
43.7959
42.9271
42.0635
41.2048
40.3507
39.501
38.6555
37.814
36.9762
36.142
35.3112
34.4836
33.6592