/*--------------------------------*- C++ -*----------------------------------*\
  =========                 |
  \\      /  F ield         | OpenFOAM: The Open Source CFD Toolbox
   \\    /   O peration     | Website:  https://openfoam.org
    \\  /    A nd           | Version:  7
     \\/     M anipulation  |
\*---------------------------------------------------------------------------*/
FoamFile
{
    version     2.0;
    format      ascii;
    class       surfaceScalarField;
    location    "550";
    object      phi;
}
// * * * * * * * * * * * * * * * * * * * * * * * * * * * * * * * * * * * * * //

dimensions      [0 3 -1 0 0 0 0];

internalField   nonuniform List<scalar> 
8865
(
0.00452285
0.00168694
0.00415016
0.00037269
0.0039903
0.000159866
0.00389729
9.30109e-05
0.00383339
6.38985e-05
0.00378555
4.78348e-05
0.00374796
3.75907e-05
0.00371747
3.04976e-05
0.00369216
2.53061e-05
0.00367081
2.13471e-05
0.00365258
1.82337e-05
0.00363685
1.57255e-05
0.00362319
1.36651e-05
0.00361124
1.1945e-05
0.00360075
1.04895e-05
0.00359151
9.24362e-06
0.00358334
8.16645e-06
0.00357612
7.22706e-06
0.00356971
6.40154e-06
0.00356404
5.67116e-06
0.00355902
5.02103e-06
0.00355458
4.43923e-06
0.00355067
3.91605e-06
0.00354722
3.44347e-06
0.00354421
3.01489e-06
0.00354158
2.62484e-06
0.00353931
2.26866e-06
0.00353737
1.94246e-06
0.00353573
1.64304e-06
0.00353436
1.36723e-06
0.00353325
1.11273e-06
0.00353237
8.77456e-07
0.00353171
6.59877e-07
0.00353126
4.57831e-07
0.00353099
2.70339e-07
0.00353089
9.5694e-08
0.00353096
-6.67193e-08
0.00353118
-2.18483e-07
0.00353154
-3.59331e-07
0.00353203
-4.91488e-07
0.00353264
-6.14822e-07
0.00353338
-7.32904e-07
0.00353422
-8.45764e-07
0.00353518
-9.55067e-07
0.00353624
-1.06088e-06
0.00353741
-1.16457e-06
0.00353868
-1.26795e-06
0.00354005
-1.37019e-06
0.00354152
-1.4706e-06
0.00354309
-1.56908e-06
0.00354475
-1.66115e-06
0.0035465
-1.74939e-06
0.00354833
-1.83177e-06
0.00355024
-1.90512e-06
0.00355221
-1.96686e-06
0.00355422
-2.01649e-06
0.00355627
-2.04837e-06
0.00355834
-2.06581e-06
0.00356041
-2.07011e-06
0.00356246
-2.05371e-06
0.00356449
-2.02498e-06
0.00356647
-1.97457e-06
0.00356838
-1.91421e-06
0.00357022
-1.83849e-06
0.00357197
-1.75257e-06
0.00357362
-1.65283e-06
0.00357517
-1.54501e-06
0.00357659
-1.42834e-06
0.0035779
-1.30828e-06
0.00357908
-1.18162e-06
0.00358013
-1.05349e-06
0.00358105
-9.2196e-07
0.00358183
-7.90855e-07
0.00358249
-6.63956e-07
-3.18233e-07
0.00573448
0.00277626
0.00532416
0.000783017
0.00510631
0.00037771
0.00497607
0.000223255
0.00488795
0.000152018
0.00482307
0.000112709
0.00477273
8.79388e-05
0.00473224
7.0979e-05
0.00469887
5.86788e-05
0.00467085
4.93648e-05
0.00464701
4.20794e-05
0.0046265
3.62353e-05
0.00460871
3.14508e-05
0.00459319
2.74677e-05
0.00457958
2.4105e-05
0.00456759
2.12321e-05
0.004557
1.87524e-05
0.00454763
1.65929e-05
0.00453934
1.46975e-05
0.00453199
1.30224e-05
0.00452548
1.15327e-05
0.00451971
1.02007e-05
0.00451463
9.00381e-06
0.00451015
7.92343e-06
0.00450622
6.9442e-06
0.00450279
6.05352e-06
0.00449982
5.24058e-06
0.00449726
4.49635e-06
0.00449509
3.81343e-06
0.00449328
3.18465e-06
0.00449178
2.60468e-06
0.00449059
2.06868e-06
0.00448968
1.57291e-06
0.00448902
1.11284e-06
0.00448861
6.85928e-07
0.00448842
2.88773e-07
0.00448843
-8.09952e-08
0.00448864
-4.26718e-07
0.00448903
-7.48069e-07
0.00448959
-1.04942e-06
0.0044903
-1.33164e-06
0.00449117
-1.60123e-06
0.00449219
-1.85915e-06
0.00449334
-2.10887e-06
0.00449463
-2.35125e-06
0.00449606
-2.58889e-06
0.00449761
-2.82486e-06
0.0044993
-3.05774e-06
0.00450112
-3.28607e-06
0.00450306
-3.50892e-06
0.00450511
-3.71838e-06
0.00450728
-3.91721e-06
0.00450955
-4.10081e-06
0.00451191
-4.26294e-06
0.00451434
-4.3983e-06
0.00451683
-4.50497e-06
0.00451936
-4.57339e-06
0.0045219
-4.60803e-06
0.00452444
-4.61054e-06
0.00452696
-4.56918e-06
0.00452943
-4.49742e-06
0.00453184
-4.38096e-06
0.00453416
-4.23923e-06
0.00453639
-4.06426e-06
0.0045385
-3.86539e-06
0.00454049
-3.63812e-06
0.00454233
-3.39284e-06
0.00454403
-3.12907e-06
0.00454558
-2.85675e-06
0.00454697
-2.57194e-06
0.0045482
-2.28391e-06
0.00454926
-1.99019e-06
0.00455017
-1.69638e-06
0.00455092
-1.41685e-06
-6.69266e-07
0.00677261
0.00350217
0.00634446
0.00121116
0.00607519
0.000646986
0.00590745
0.000390987
0.00579398
0.000265489
0.00571123
0.000195464
0.00564762
0.00015155
0.00559688
0.000121718
0.00555531
0.000100246
0.00552058
8.40915e-05
0.00549114
7.15231e-05
0.00546589
6.14851e-05
0.00544404
5.32969e-05
0.00542501
4.65007e-05
0.00540834
4.07775e-05
0.00539367
3.58985e-05
0.00538073
3.16951e-05
0.00536928
2.80403e-05
0.00535914
2.48369e-05
0.00535016
2.20093e-05
0.00534219
1.94976e-05
0.00533514
1.72539e-05
0.0053289
1.52395e-05
0.0053234
1.34226e-05
0.00531857
1.17771e-05
0.00531434
1.02812e-05
0.00531067
8.91674e-06
0.00530749
7.66826e-06
0.00530478
6.523e-06
0.0053025
5.46914e-06
0.00530061
4.49746e-06
0.00529908
3.59976e-06
0.00529788
2.76948e-06
0.00529699
1.99937e-06
0.00529639
1.28481e-06
0.00529606
6.20432e-07
0.00529598
1.59069e-09
0.00529613
-5.77325e-07
0.0052965
-1.11631e-06
0.00529707
-1.62166e-06
0.00529784
-2.09592e-06
0.00529878
-2.54845e-06
0.00529991
-2.98167e-06
0.0053012
-3.40097e-06
0.00530266
-3.80828e-06
0.00530428
-4.20741e-06
0.00530605
-4.60227e-06
0.00530799
-4.99086e-06
0.00531007
-5.3707e-06
0.0053123
-5.73952e-06
0.00531467
-6.08621e-06
0.00531717
-6.41249e-06
0.00531978
-6.71084e-06
0.00532249
-6.97189e-06
0.00532528
-7.1875e-06
0.00532812
-7.35393e-06
0.00533101
-7.4585e-06
0.00533391
-7.50612e-06
0.0053368
-7.4984e-06
0.00533965
-7.42134e-06
0.00534244
-7.29181e-06
0.00534516
-7.0934e-06
0.00534777
-6.85088e-06
0.00535026
-6.5559e-06
0.00535262
-6.22133e-06
0.00535482
-5.84337e-06
0.00535686
-5.43626e-06
0.00535874
-5.00122e-06
0.00536043
-4.55177e-06
0.00536194
-4.08475e-06
0.00536327
-3.61273e-06
0.00536441
-3.13408e-06
0.00536537
-2.65446e-06
0.00536615
-2.20387e-06
-1.03022e-06
0.00776838
0.00397374
0.00736522
0.00161432
0.00705881
0.000953393
0.00685371
0.000596095
0.00671229
0.00040691
0.00660913
0.000298623
0.00653023
0.000230446
0.00646767
0.000184282
0.00641669
0.000151228
0.00637428
0.000126493
0.00633846
0.000107343
0.00630784
9.2113e-05
0.0062814
7.97343e-05
0.00625841
6.94918e-05
0.00623829
6.08896e-05
0.00622062
5.35729e-05
0.00620503
4.72819e-05
0.00619125
4.18216e-05
0.00617905
3.70432e-05
0.00616822
3.28311e-05
0.00615863
2.9094e-05
0.00615012
2.57594e-05
0.00614259
2.27685e-05
0.00613594
2.00732e-05
0.00613009
1.76341e-05
0.00612495
1.54184e-05
0.00612047
1.33987e-05
0.00611658
1.15518e-05
0.00611325
9.85838e-06
0.00611042
8.30097e-06
0.00610805
6.86566e-06
0.00610611
5.54013e-06
0.00610456
4.3144e-06
0.00610338
3.17795e-06
0.00610255
2.12361e-06
0.00610202
1.14349e-06
0.00610179
2.30809e-07
0.00610184
-6.23439e-07
0.00610214
-1.4204e-06
0.00610269
-2.16765e-06
0.00610346
-2.86987e-06
0.00610446
-3.53953e-06
0.00610566
-4.18073e-06
0.00610706
-4.80095e-06
0.00610865
-5.40327e-06
0.00611044
-5.99254e-06
0.00611241
-6.57334e-06
0.00611456
-7.14279e-06
0.00611689
-7.6971e-06
0.00611938
-8.23224e-06
0.00612203
-8.73367e-06
0.00612482
-9.20158e-06
0.00612773
-9.62527e-06
0.00613075
-9.99209e-06
0.00613385
-1.02911e-05
0.00613702
-1.05166e-05
0.00614021
-1.06533e-05
0.00614341
-1.07063e-05
0.00614659
-1.06777e-05
0.00614972
-1.05516e-05
0.00615278
-1.03487e-05
0.00615574
-1.00507e-05
0.00615858
-9.68843e-06
0.00616127
-9.25313e-06
0.00616381
-8.76176e-06
0.00616618
-8.21162e-06
0.00616837
-7.62132e-06
0.00617036
-6.99355e-06
0.00617215
-6.34591e-06
0.00617374
-5.67617e-06
0.00617513
-5.00062e-06
0.00617631
-4.3182e-06
0.00617729
-3.63469e-06
0.00617808
-2.9986e-06
-1.39332e-06
0.00876053
0.0042679
0.00841816
0.00195669
0.00809688
0.00127467
0.00785897
0.000834004
0.00768847
0.000577413
0.00756264
0.000424452
0.00746628
0.000326806
0.00739005
0.000260516
0.00732813
0.000213142
0.00727681
0.000177816
0.00723358
0.00015057
0.00719672
0.00012898
0.00716496
0.000111491
0.00713739
9.7063e-05
0.0071133
8.49771e-05
0.00709215
7.47211e-05
0.00707351
6.59208e-05
0.00705704
5.82964e-05
0.00704245
5.16349e-05
0.00702951
4.57712e-05
0.00701803
4.05756e-05
0.00700784
3.59449e-05
0.00699881
3.17959e-05
0.00699083
2.80606e-05
0.00698378
2.46832e-05
0.00697758
2.16176e-05
0.00697215
1.88251e-05
0.00696743
1.62732e-05
0.00696335
1.39347e-05
0.00695987
1.17852e-05
0.00695693
9.80525e-06
0.00695449
7.9775e-06
0.00695252
6.28779e-06
0.00695097
4.72178e-06
0.00694983
3.26912e-06
0.00694905
1.9189e-06
0.00694862
6.62024e-07
0.00694851
-5.14725e-07
0.00694871
-1.61461e-06
0.00694919
-2.64628e-06
0.00694993
-3.61675e-06
0.00695094
-4.54168e-06
0.00695218
-5.42718e-06
0.00695367
-6.28281e-06
0.00695538
-7.11283e-06
0.00695731
-7.92303e-06
0.00695945
-8.71822e-06
0.0069618
-9.49447e-06
0.00696435
-1.02463e-05
0.00696709
-1.09676e-05
0.00696999
-1.16402e-05
0.00697306
-1.22623e-05
0.00697625
-1.28199e-05
0.00697956
-1.32971e-05
0.00698295
-1.36803e-05
0.00698639
-1.3962e-05
0.00698986
-1.41245e-05
0.00699333
-1.41737e-05
0.00699676
-1.4112e-05
0.00700014
-1.39227e-05
0.00700342
-1.36301e-05
0.00700658
-1.32156e-05
0.00700961
-1.27148e-05
0.00701248
-1.21202e-05
0.00701517
-1.14526e-05
0.00701767
-1.07111e-05
0.00701996
-9.9184e-06
0.00702205
-9.07956e-06
0.00702392
-8.21571e-06
0.00702557
-7.32633e-06
0.007027
-6.43088e-06
0.00702821
-5.52975e-06
0.0070292
-4.62757e-06
0.00702999
-3.79525e-06
-1.75378e-06
0.00977742
0.00444047
0.00951399
0.00222012
0.00920569
0.00158298
0.00894539
0.0010943
0.00874723
0.000775576
0.0085973
0.000574375
0.00848145
0.000442657
0.00838959
0.000352373
0.00831504
0.000287698
0.00825334
0.000239516
0.00820147
0.000202437
0.00815732
0.000173135
0.00811935
0.000149463
0.00808642
0.000129986
0.00805769
0.000113709
0.00803248
9.99273e-05
0.00801028
8.8125e-05
0.00799066
7.79179e-05
0.00797328
6.90143e-05
0.00795786
6.11886e-05
0.00794417
5.42635e-05
0.00793202
4.80989e-05
0.00792123
4.25815e-05
0.00791168
3.76191e-05
0.00790322
3.31364e-05
0.00789577
2.90709e-05
0.00788922
2.53703e-05
0.00788351
2.19909e-05
0.00787855
1.8896e-05
0.00787428
1.6053e-05
0.00787065
1.34355e-05
0.0078676
1.10204e-05
0.0078651
8.78837e-06
0.00786311
6.72053e-06
0.00786157
4.80272e-06
0.00786047
3.02036e-06
0.00785977
1.3617e-06
0.00785945
-1.91177e-07
0.00785948
-1.64481e-06
0.00785984
-3.00926e-06
0.00786052
-4.29362e-06
0.00786149
-5.51697e-06
0.00786275
-6.68753e-06
0.00786429
-7.817e-06
0.00786609
-8.91078e-06
0.00786814
-9.97529e-06
0.00787044
-1.10154e-05
0.00787297
-1.20258e-05
0.00787572
-1.29989e-05
0.00787868
-1.39263e-05
0.00788183
-1.47861e-05
0.00788514
-1.55742e-05
0.00788859
-1.62732e-05
0.00789216
-1.68642e-05
0.00789581
-1.7331e-05
0.00789951
-1.76648e-05
0.00790323
-1.7846e-05
0.00790694
-1.78813e-05
0.0079106
-1.77742e-05
0.00791419
-1.75076e-05
0.00791767
-1.71101e-05
0.00792102
-1.65624e-05
0.00792421
-1.59064e-05
0.00792722
-1.51355e-05
0.00793005
-1.42746e-05
0.00793266
-1.33252e-05
0.00793506
-1.23142e-05
0.00793722
-1.12489e-05
0.00793916
-1.01543e-05
0.00794087
-9.03147e-06
0.00794234
-7.90353e-06
0.00794358
-6.77172e-06
0.00794459
-5.63978e-06
0.0079454
-4.60304e-06
-2.12045e-06
0.0108418
0.0045325
0.0106586
0.00240329
0.0103907
0.00185088
0.0101252
0.00135979
0.00990488
0.000995899
0.00973121
0.000748042
0.00959448
0.000579386
0.00948519
0.000461659
0.00939623
0.000376666
0.00932255
0.000313187
0.00926065
0.000264341
0.009208
0.000225789
0.00916276
0.000194702
0.00912357
0.000169174
0.00908939
0.000147885
0.00905943
0.000129893
0.00903304
0.000114513
0.00900972
0.000101234
0.00898907
8.96695e-05
0.00897074
7.95189e-05
0.00895445
7.05485e-05
0.00893998
6.25725e-05
0.00892712
5.54418e-05
0.0089157
4.90349e-05
0.00890559
4.32526e-05
0.00889664
3.8013e-05
0.00888877
3.32475e-05
0.00888186
2.88986e-05
0.00887584
2.49184e-05
0.00887063
2.12645e-05
0.00886616
1.79023e-05
0.00886238
1.48015e-05
0.00885923
1.19368e-05
0.00885667
9.28382e-06
0.00885464
6.82383e-06
0.00885313
4.53793e-06
0.00885208
2.41093e-06
0.00885147
4.20507e-07
0.00885127
-1.44471e-06
0.00885145
-3.1973e-06
0.00885201
-4.84766e-06
0.00885291
-6.41844e-06
0.00885414
-7.92014e-06
0.00885569
-9.36655e-06
0.00885755
-1.07641e-05
0.00885969
-1.21198e-05
0.00886211
-1.3438e-05
0.0088648
-1.47118e-05
0.00886773
-1.59315e-05
0.00887089
-1.70858e-05
0.00887426
-1.81492e-05
0.0088778
-1.91151e-05
0.00888149
-1.9963e-05
0.00888529
-2.0671e-05
0.00888918
-2.12208e-05
0.00889312
-2.16025e-05
0.00889707
-2.17954e-05
0.008901
-2.18074e-05
0.00890487
-2.16433e-05
0.00890865
-2.12868e-05
0.00891231
-2.07703e-05
0.00891582
-2.00756e-05
0.00891916
-1.92498e-05
0.00892232
-1.82882e-05
0.00892526
-1.72202e-05
0.00892799
-1.60495e-05
0.00893048
-1.48074e-05
0.00893273
-1.35038e-05
0.00893475
-1.21673e-05
0.00893651
-1.08009e-05
0.00893804
-9.43092e-06
0.00893933
-8.06009e-06
0.00894038
-6.69002e-06
0.00894122
-5.44361e-06
-2.50136e-06
0.0119752
0.00457226
0.0118614
0.00251703
0.0116523
0.00206002
0.0114041
0.00160801
0.0111727
0.00122725
0.0109787
0.00094203
0.0108211
0.000736974
0.0106932
0.000589616
0.0105882
0.000481647
0.0105009
0.000400442
0.0104275
0.000337776
0.010365
0.000288286
0.0103113
0.000248398
0.0102648
0.00021568
0.0102243
0.000188432
0.0101887
0.000165439
0.0101574
0.000145814
0.0101298
0.000128895
0.0101052
0.00011418
0.0100835
0.000101282
0.0100641
8.98972e-05
0.0100469
7.97864e-05
0.0100316
7.07567e-05
0.010018
6.26517e-05
0.0100059
5.53436e-05
0.00999518
4.8727e-05
0.00998571
4.27139e-05
0.00997738
3.72305e-05
0.00997008
3.22153e-05
0.00996373
2.76141e-05
0.00995825
2.33826e-05
0.00995357
1.9482e-05
0.00994963
1.58799e-05
0.00994637
1.25453e-05
0.00994374
9.45395e-06
0.0099417
6.58187e-06
0.0099402
3.90957e-06
0.00993921
1.41058e-06
0.00993869
-9.32578e-07
0.00993863
-3.13659e-06
0.009939
-5.21259e-06
0.00993977
-7.18675e-06
0.00994092
-9.0719e-06
0.00994244
-1.08839e-05
0.0099443
-1.26302e-05
0.0099465
-1.43179e-05
0.00994902
-1.5951e-05
0.00995182
-1.75205e-05
0.00995491
-1.90143e-05
0.00995824
-2.04182e-05
0.00996179
-2.1703e-05
0.00996554
-2.28597e-05
0.00996944
-2.38648e-05
0.00997346
-2.46939e-05
0.00997757
-2.53271e-05
0.00998172
-2.57538e-05
0.00998588
-2.59527e-05
0.00999
-2.59336e-05
0.00999406
-2.57033e-05
0.00999802
-2.52462e-05
0.0100019
-2.45998e-05
0.0100055
-2.37467e-05
0.010009
-2.27401e-05
0.0100123
-2.1577e-05
0.0100154
-2.02914e-05
0.0100182
-1.88898e-05
0.0100208
-1.74079e-05
0.0100232
-1.58578e-05
0.0100253
-1.4272e-05
0.0100271
-1.26554e-05
0.0100287
-1.10375e-05
0.0100301
-9.42214e-06
0.0100312
-7.80893e-06
0.0100321
-6.34953e-06
-2.91726e-06
0.0131983
0.00457686
0.0131373
0.00257801
0.0129915
0.00220581
0.0127826
0.00181691
0.0125574
0.00145244
0.0123512
0.00114828
0.0121753
0.000912857
0.0120287
0.000736235
0.0119067
0.000603686
0.0118044
0.000502686
0.011718
0.000424209
0.0116442
0.000362025
0.0115808
0.000311841
0.0115258
0.00027067
0.0114778
0.0002364
0.0114358
0.000207506
0.0113987
0.00018287
0.011366
0.000161655
0.0113369
0.000143224
0.0113111
0.000127088
0.0112881
0.00011286
0.0112677
0.000100238
0.0112495
8.89769e-05
0.0112332
7.88784e-05
0.0112188
6.97809e-05
0.011206
6.1551e-05
0.0111946
5.40775e-05
0.0111846
4.72673e-05
0.0111758
4.10426e-05
0.011168
3.53355e-05
0.0111613
3.00899e-05
0.0111555
2.5257e-05
0.0111506
2.07956e-05
0.0111465
1.66672e-05
0.0111431
1.2841e-05
0.0111404
9.28695e-06
0.0111383
5.98026e-06
0.0111369
2.89007e-06
0.0111359
-7.56523e-09
0.0111355
-2.73521e-06
0.0111356
-5.30536e-06
0.0111362
-7.74694e-06
0.0111372
-1.00752e-05
0.0111386
-1.23081e-05
0.0111404
-1.44539e-05
0.0111426
-1.65198e-05
0.0111452
-1.85089e-05
0.0111481
-2.04101e-05
0.0111513
-2.22089e-05
0.0111548
-2.3888e-05
0.0111585
-2.54147e-05
0.0111624
-2.67776e-05
0.0111665
-2.79506e-05
0.0111707
-2.89072e-05
0.011175
-2.96265e-05
0.0111793
-3.00977e-05
0.0111837
-3.02999e-05
0.011188
-3.02448e-05
0.0111922
-2.99419e-05
0.0111964
-2.93775e-05
0.0112004
-2.85935e-05
0.0112042
-2.75747e-05
0.0112078
-2.63799e-05
0.0112113
-2.50086e-05
0.0112145
-2.34994e-05
0.0112174
-2.18615e-05
0.0112202
-2.01348e-05
0.0112226
-1.83341e-05
0.0112249
-1.64955e-05
0.0112268
-1.46257e-05
0.0112286
-1.27572e-05
0.01123
-1.08954e-05
0.0112312
-9.03647e-06
0.0112323
-7.36319e-06
-3.3859e-06
0.0145294
0.00455582
0.0145054
0.00260198
0.0144157
0.00229555
0.0142598
0.00197282
0.0140612
0.00165105
0.0138564
0.00135304
0.0136688
0.00110045
0.0135058
0.000899213
0.0133669
0.000742613
0.0132489
0.000620723
0.0131482
0.000524839
0.0130619
0.000448325
0.0129874
0.000386336
0.0129227
0.00033538
0.0128662
0.00029293
0.0128166
0.000257137
0.0127728
0.000226629
0.0127341
0.000200373
0.0126997
0.000177582
0.0126692
0.000157643
0.012642
0.000140079
0.0126177
0.00012451
0.012596
0.000110631
0.0125767
9.81967e-05
0.0125595
8.70034e-05
0.0125442
7.68854e-05
0.0125305
6.77041e-05
0.0125185
5.93434e-05
0.0125078
5.17064e-05
0.0124984
4.47087e-05
0.0124902
3.82804e-05
0.0124831
3.23608e-05
0.012477
2.68986e-05
0.0124718
2.18461e-05
0.0124675
1.71648e-05
0.012464
1.28173e-05
0.0124612
8.77293e-06
0.0124591
4.9951e-06
0.0124576
1.45473e-06
0.0124568
-1.87898e-06
0.0124565
-5.02214e-06
0.0124567
-8.00468e-06
0.0124575
-1.08444e-05
0.0124588
-1.35613e-05
0.0124605
-1.61645e-05
0.0124626
-1.8661e-05
0.0124652
-2.1053e-05
0.0124681
-2.33274e-05
0.0124713
-2.54667e-05
0.0124749
-2.7451e-05
0.0124787
-2.9244e-05
0.0124828
-3.08324e-05
0.012487
-3.21878e-05
0.0124914
-3.32821e-05
0.0124959
-3.4094e-05
0.0125004
-3.46132e-05
0.0125049
-3.48196e-05
0.0125094
-3.47279e-05
0.0125138
-3.43505e-05
0.0125181
-3.36759e-05
0.0125223
-3.27518e-05
0.0125262
-3.15644e-05
0.01253
-3.0179e-05
0.0125336
-2.85975e-05
0.012537
-2.6863e-05
0.0125401
-2.49878e-05
0.012543
-2.30161e-05
0.0125456
-2.09649e-05
0.012548
-1.88739e-05
0.0125501
-1.67516e-05
0.012552
-1.46336e-05
0.0125536
-1.2526e-05
0.012555
-1.04221e-05
0.0125562
-8.53547e-06
-3.93745e-06
0.0159844
0.00451431
0.0159863
0.00260012
0.0159396
0.0023422
0.015838
0.00207445
0.0156829
0.00180618
0.0154978
0.00153813
0.0153103
0.00128793
0.015137
0.00107255
0.0149835
0.000896033
0.0148502
0.000754095
0.0147348
0.000640183
0.014635
0.000548156
0.0145483
0.000473036
0.0144727
0.000411005
0.0144064
0.000359191
0.0143481
0.00031544
0.0142966
0.000278124
0.014251
0.000246004
0.0142104
0.000218126
0.0141743
0.000193749
0.0141421
0.000172285
0.0141134
0.000153272
0.0140877
0.000136334
0.0140647
0.000121167
0.0140442
0.000107525
0.0140259
9.52008e-05
0.0140095
8.4025e-05
0.013995
7.38544e-05
0.0139822
6.45694e-05
0.0139708
5.60667e-05
0.0139608
4.82599e-05
0.0139521
4.10744e-05
0.0139446
3.44466e-05
0.0139381
2.83185e-05
0.0139326
2.26421e-05
0.0139281
1.7372e-05
0.0139244
1.247e-05
0.0139215
7.89294e-06
0.0139193
3.60685e-06
0.0139179
-4.28082e-07
0.0139171
-4.23418e-06
0.0139169
-7.84226e-06
0.0139173
-1.12719e-05
0.0139183
-1.45453e-05
0.0139198
-1.76723e-05
0.0139218
-2.06597e-05
0.0139243
-2.35089e-05
0.0139272
-2.62043e-05
0.0139304
-2.8726e-05
0.013934
-3.10513e-05
0.0139379
-3.31409e-05
0.0139421
-3.49796e-05
0.0139464
-3.65372e-05
0.0139509
-3.77848e-05
0.0139555
-3.87011e-05
0.0139602
-3.92772e-05
0.0139649
-3.94945e-05
0.0139695
-3.93709e-05
0.0139741
-3.89226e-05
0.0139785
-3.81409e-05
0.0139829
-3.7079e-05
0.013987
-3.57259e-05
0.013991
-3.41527e-05
0.0139948
-3.23641e-05
0.0139983
-3.0408e-05
0.0140016
-2.82995e-05
0.0140047
-2.60868e-05
0.0140075
-2.37896e-05
0.0140101
-2.14506e-05
0.0140124
-1.90804e-05
0.0140145
-1.6717e-05
0.0140164
-1.4368e-05
0.014018
-1.20219e-05
0.0140193
-9.92451e-06
-4.59682e-06
0.0175785
0.00445507
0.0175995
0.00257919
0.0175837
0.00235791
0.0175281
0.00213005
0.0174232
0.00191109
0.0172751
0.00168623
0.0171043
0.00145878
0.0169315
0.00124532
0.0167696
0.00105797
0.0166236
0.000900065
0.0164944
0.000769374
0.0163809
0.000661678
0.0162813
0.000572637
0.0161938
0.0004985
0.0161167
0.000436243
0.0160487
0.000383494
0.0159884
0.000338409
0.0159348
0.000299552
0.0158872
0.000265805
0.0158446
0.000236287
0.0158066
0.000210298
0.0157726
0.000187279
0.0157422
0.00016678
0.0157149
0.000148433
0.0156905
0.000131937
0.0156686
0.000117042
0.0156491
0.000103542
0.0156317
9.12627e-05
0.0156162
8.0058e-05
0.0156025
6.98022e-05
0.0155904
6.03902e-05
0.0155797
5.17309e-05
0.0155704
4.37467e-05
0.0155624
3.63672e-05
0.0155555
2.95336e-05
0.0155496
2.31908e-05
0.0155448
1.72922e-05
0.0155409
1.17867e-05
0.0155379
6.63456e-06
0.0155357
1.78868e-06
0.0155342
-2.78264e-06
0.0155335
-7.11384e-06
0.0155335
-1.12239e-05
0.0155341
-1.51372e-05
0.0155352
-1.88646e-05
0.015537
-2.24128e-05
0.0155393
-2.57822e-05
0.015542
-2.8955e-05
0.0155452
-3.19091e-05
0.0155488
-3.46191e-05
0.0155527
-3.7043e-05
0.0155569
-3.91641e-05
0.0155613
-4.09512e-05
0.0155659
-4.23747e-05
0.0155706
-4.34146e-05
0.0155754
-4.40634e-05
0.0155802
-4.43051e-05
0.015585
-4.41612e-05
0.0155897
-4.36524e-05
0.0155943
-4.2773e-05
0.0155988
-4.15827e-05
0.0156032
-4.00724e-05
0.0156073
-3.83203e-05
0.0156113
-3.63335e-05
0.0156151
-3.41647e-05
0.0156186
-3.18318e-05
0.0156219
-2.93875e-05
0.015625
-2.68532e-05
0.0156278
-2.4275e-05
0.0156304
-2.16649e-05
0.0156327
-1.90642e-05
0.0156348
-1.64806e-05
0.0156367
-1.38984e-05
0.0156384
-1.15937e-05
-5.40107e-06
0.0193271
0.00437951
0.0193633
0.00254302
0.0193699
0.00235126
0.0193491
0.00215085
0.0192904
0.00196985
0.0191886
0.00178799
0.0190512
0.00159619
0.0188945
0.00140198
0.0187348
0.00121769
0.0185826
0.00105228
0.0184429
0.000909105
0.0183171
0.00078748
0.0182049
0.000684848
0.0181051
0.000598216
0.0180166
0.00052479
0.0179379
0.000462184
0.0178679
0.000408444
0.0178054
0.000361996
0.0177496
0.000321578
0.0176998
0.000286181
0.0176551
0.000254993
0.017615
0.000227358
0.017579
0.000202744
0.0175467
0.000180714
0.0175178
0.000160909
0.0174918
0.000143031
0.0174685
0.000126832
0.0174476
0.000112102
0.017429
9.86663e-05
0.0174125
8.63729e-05
0.0173978
7.50948e-05
0.0173848
6.47224e-05
0.0173734
5.51616e-05
0.0173634
4.63276e-05
0.0173548
3.81493e-05
0.0173474
3.05603e-05
0.0173412
2.35042e-05
0.0173361
1.69209e-05
0.0173319
1.07636e-05
0.0173287
4.97912e-06
0.0173264
-4.74999e-07
0.017325
-5.64052e-06
0.0173243
-1.05352e-05
0.0173243
-1.51848e-05
0.0173251
-1.96014e-05
0.0173264
-2.37917e-05
0.0173284
-2.77552e-05
0.0173309
-3.14722e-05
0.0173339
-3.49186e-05
0.0173374
-3.80667e-05
0.0173412
-4.08721e-05
0.0173454
-4.33173e-05
0.0173498
-4.53703e-05
0.0173544
-4.70018e-05
0.0173592
-4.81932e-05
0.0173641
-4.89395e-05
0.017369
-4.92277e-05
0.0173739
-4.90836e-05
0.0173788
-4.85325e-05
0.0173836
-4.75728e-05
0.0173883
-4.627e-05
0.0173928
-4.46188e-05
0.0173972
-4.2703e-05
0.0174014
-4.05331e-05
0.0174054
-3.81663e-05
0.0174092
-3.56237e-05
0.0174128
-3.29616e-05
0.0174161
-3.02037e-05
0.0174193
-2.73991e-05
0.0174221
-2.45616e-05
0.0174248
-2.17345e-05
0.0174273
-1.89267e-05
0.0174295
-1.61166e-05
0.0174315
-1.36098e-05
-6.37863e-06
0.0212463
0.00428825
0.0212957
0.00249367
0.0213195
0.00232744
0.0213242
0.00214617
0.0213021
0.00199196
0.0212453
0.00184475
0.0211515
0.00169
0.021027
0.00152649
0.0208846
0.00136013
0.0207372
0.00119968
0.020594
0.0010523
0.02046
0.000921453
0.0203373
0.000807544
0.0202262
0.000709285
0.0201263
0.000624735
0.0200366
0.000551878
0.0199562
0.000488871
0.019884
0.000434123
0.0198193
0.000386304
0.0197612
0.000344313
0.0197089
0.000307245
0.0196619
0.000274357
0.0196196
0.000245039
0.0195816
0.000218784
0.0195473
0.000195173
0.0195165
0.000173856
0.0194888
0.000154539
0.0194639
0.000136976
0.0194416
0.000120957
0.0194217
0.000106303
0.0194039
9.28624e-05
0.0193881
8.05034e-05
0.0193742
6.91139e-05
0.0193619
5.85925e-05
0.0193512
4.88541e-05
0.0193419
3.98193e-05
0.019334
3.14206e-05
0.0193274
2.35876e-05
0.0193219
1.6265e-05
0.0193174
9.39276e-06
0.019314
2.92085e-06
0.0193116
-3.20468e-06
0.0193101
-9.00436e-06
0.0193094
-1.45016e-05
0.0193095
-1.97104e-05
0.0193103
-2.46373e-05
0.0193119
-2.92817e-05
0.019314
-3.36222e-05
0.0193167
-3.76329e-05
0.01932
-4.12843e-05
0.0193236
-4.45304e-05
0.0193277
-4.73528e-05
0.019332
-4.97196e-05
0.0193366
-5.16022e-05
0.0193414
-5.29842e-05
0.0193463
-5.38635e-05
0.0193513
-5.42306e-05
0.0193564
-5.41161e-05
0.0193614
-5.35506e-05
0.0193663
-5.25365e-05
0.0193712
-5.11462e-05
0.019376
-4.93773e-05
0.0193806
-4.73206e-05
0.019385
-4.49892e-05
0.0193893
-4.24456e-05
0.0193934
-3.97132e-05
0.0193973
-3.68528e-05
0.019401
-3.38896e-05
0.0194045
-3.08759e-05
0.0194077
-2.78267e-05
0.0194108
-2.47881e-05
0.0194136
-2.17691e-05
0.0194162
-1.87424e-05
0.0194187
-1.60393e-05
-7.56879e-06
0.0233536
0.00418142
0.0234151
0.0024322
0.0234532
0.00228933
0.0234772
0.00212214
0.0234826
0.00198665
0.0234628
0.0018645
0.0234125
0.0017403
0.02333
0.00160898
0.0232201
0.00147005
0.0230924
0.00132737
0.0229574
0.00118727
0.0228234
0.00105551
0.0226954
0.000935567
0.022576
0.000828655
0.0224663
0.000734457
0.0223663
0.000651894
0.0222755
0.00057961
0.0221934
0.000516238
0.0221192
0.000460522
0.0220521
0.000411361
0.0219916
0.000367808
0.0219369
0.000329065
0.0218874
0.00029446
0.0218428
0.000263425
0.0218025
0.000235486
0.0217661
0.000210243
0.0217333
0.000187358
0.0217037
0.000166542
0.0216771
0.000147552
0.0216532
0.000130179
0.0216319
0.000114243
0.0216128
9.95901e-05
0.0215958
8.6087e-05
0.0215808
7.36142e-05
0.0215676
6.20706e-05
0.021556
5.13625e-05
0.021546
4.14095e-05
0.0215375
3.21301e-05
0.0215303
2.34591e-05
0.0215244
1.53281e-05
0.0215196
7.68148e-06
0.0215159
4.52305e-07
0.0215133
-6.3883e-06
0.0215117
-1.28615e-05
0.021511
-1.89815e-05
0.0215111
-2.47554e-05
0.021512
-3.01823e-05
0.0215136
-3.524e-05
0.0215159
-3.99013e-05
0.0215187
-4.41354e-05
0.0215221
-4.78951e-05
0.0215259
-5.11618e-05
0.0215301
-5.39038e-05
0.0215346
-5.60941e-05
0.0215393
-5.77188e-05
0.0215442
-5.8779e-05
0.0215493
-5.92697e-05
0.0215544
-5.92262e-05
0.0215595
-5.86848e-05
0.0215646
-5.76526e-05
0.0215697
-5.62088e-05
0.0215747
-5.43547e-05
0.0215795
-5.21875e-05
0.0215843
-4.97238e-05
0.0215888
-4.70306e-05
0.0215933
-4.41347e-05
0.0215975
-4.11004e-05
0.0216016
-3.79551e-05
0.0216055
-3.47537e-05
0.0216091
-3.15129e-05
0.0216126
-2.82808e-05
0.0216159
-2.50672e-05
0.021619
-2.18374e-05
0.0216219
-1.89453e-05
-8.99739e-06
0.025668
0.00405883
0.0257411
0.00235909
0.025792
0.00223841
0.0258318
0.00208235
0.025858
0.00196046
0.0258665
0.00185601
0.0258526
0.00175414
0.0258122
0.00164945
0.0257435
0.00153871
0.0256497
0.00142115
0.0255378
0.00129914
0.0254163
0.00117709
0.0252923
0.00105955
0.0251711
0.000949846
0.0250558
0.000849723
0.0249481
0.000759626
0.0248485
0.000679192
0.0247571
0.000607648
0.0246736
0.000544065
0.0245974
0.000487505
0.0245281
0.000437091
0.0244652
0.000392033
0.024408
0.000351644
0.0243561
0.000315323
0.024309
0.000282556
0.0242664
0.000252903
0.0242277
0.000225985
0.0241928
0.000201478
0.0241612
0.000179106
0.0241328
0.000158627
0.0241072
0.000139834
0.0240842
0.00012255
0.0240637
0.000106618
0.0240454
9.18997e-05
0.0240292
7.82766e-05
0.0240149
6.56394e-05
0.0240025
5.38937e-05
0.0239916
4.29453e-05
0.0239824
3.27181e-05
0.0239746
2.31343e-05
0.0239681
1.41312e-05
0.0239629
5.63488e-06
0.023959
-2.3981e-06
0.0239561
-9.99443e-06
0.0239543
-1.71628e-05
0.0239534
-2.3911e-05
0.0239535
-3.0239e-05
0.0239544
-3.61241e-05
0.023956
-4.15386e-05
0.0239583
-4.64509e-05
0.0239612
-5.0813e-05
0.0239647
-5.46067e-05
0.0239686
-5.78014e-05
0.0239729
-6.03713e-05
0.0239774
-6.23058e-05
0.0239823
-6.36097e-05
0.0239873
-6.42824e-05
0.0239924
-6.43644e-05
0.0239976
-6.38983e-05
0.0240029
-6.28956e-05
0.0240081
-6.14431e-05
0.0240133
-5.95454e-05
0.0240184
-5.73072e-05
0.0240235
-5.47477e-05
0.0240284
-5.19397e-05
0.0240331
-4.89125e-05
0.0240378
-4.57347e-05
0.0240423
-4.24354e-05
0.0240466
-3.90724e-05
0.0240507
-3.56637e-05
0.0240547
-3.22601e-05
0.0240585
-2.8871e-05
0.0240621
-2.5455e-05
0.0240656
-2.23818e-05
-1.06982e-05
0.02821
0.00392004
0.0282946
0.00227448
0.0283577
0.00217531
0.0284114
0.00202872
0.0284545
0.00191736
0.0284846
0.00182582
0.028499
0.00173975
0.0284939
0.00165457
0.0284658
0.00156685
0.0284129
0.00147399
0.0283369
0.00137516
0.0282424
0.00127159
0.0281359
0.00116607
0.0280237
0.00106203
0.027911
0.000962457
0.0278012
0.000869359
0.0276967
0.000783742
0.0275985
0.00070584
0.0275072
0.000635404
0.0274227
0.000571917
0.0273451
0.000514754
0.0272738
0.000463267
0.0272087
0.000416832
0.0271491
0.000374877
0.0270948
0.000336886
0.0270453
0.000302404
0.0270002
0.000271029
0.0269593
0.000242412
0.0269222
0.000216248
0.0268885
0.000192269
0.0268581
0.000170245
0.0268307
0.000149972
0.026806
0.000131275
0.0267839
0.000113994
0.0267642
9.79924e-05
0.0267467
8.31451e-05
0.0267313
6.93431e-05
0.0267177
5.64784e-05
0.026706
4.44634e-05
0.0266959
3.32098e-05
0.0266874
2.26464e-05
0.0266803
1.2694e-05
0.0266746
3.29782e-06
0.0266702
-5.58323e-06
0.026667
-1.39566e-05
0.0266649
-2.18253e-05
0.0266639
-2.91912e-05
0.0266638
-3.60318e-05
0.0266646
-4.232e-05
0.0266661
-4.80235e-05
0.0266684
-5.30948e-05
0.0266713
-5.75159e-05
0.0266748
-6.12577e-05
0.0266787
-6.42965e-05
0.026683
-6.66249e-05
0.0266877
-6.82514e-05
0.0266926
-6.91804e-05
0.0266977
-6.94575e-05
0.0267029
-6.91313e-05
0.0267082
-6.82188e-05
0.0267136
-6.68137e-05
0.026719
-6.49253e-05
0.0267243
-6.26646e-05
0.0267296
-6.00549e-05
0.0267349
-5.71739e-05
0.02674
-5.40545e-05
0.0267451
-5.07692e-05
0.02675
-4.73492e-05
0.0267547
-4.38552e-05
0.0267594
-4.03067e-05
0.0267639
-3.67567e-05
0.0267682
-3.32151e-05
0.0267724
-2.96322e-05
0.0267764
-2.63872e-05
-1.26841e-05
0.0310025
0.00376437
0.0310986
0.00217833
0.0311738
0.00210012
0.0312404
0.00196217
0.0312982
0.00185951
0.0313461
0.00177799
0.0313824
0.00170341
0.0314049
0.00163208
0.0314106
0.00156114
0.0313966
0.00148794
0.0313612
0.00141063
0.0313045
0.00132831
0.0312292
0.00124132
0.03114
0.00115123
0.0310421
0.00106038
0.0309402
0.000971214
0.0308382
0.000885745
0.0307387
0.000805322
0.0306435
0.000730648
0.0305535
0.00066193
0.0304692
0.000599048
0.0303908
0.000541688
0.0303182
0.00048944
0.0302512
0.000441861
0.0301896
0.000398507
0.030133
0.00035896
0.0300812
0.000322832
0.0300338
0.000289771
0.0299906
0.000259465
0.0299513