/*--------------------------------*- C++ -*----------------------------------*\
  =========                 |
  \\      /  F ield         | OpenFOAM: The Open Source CFD Toolbox
   \\    /   O peration     | Website:  https://openfoam.org
    \\  /    A nd           | Version:  7
     \\/     M anipulation  |
\*---------------------------------------------------------------------------*/
FoamFile
{
    version     2.0;
    format      ascii;
    class       volVectorField;
    location    "550";
    object      U;
}
// * * * * * * * * * * * * * * * * * * * * * * * * * * * * * * * * * * * * * //

dimensions      [0 1 -1 0 0 0 0];

internalField   nonuniform List<vector> 
4500
(
(15.4058 -0.778201 0)
(13.7077 -0.0619025 0)
(13.0325 -0.00325615 0)
(12.6708 0.00046499 0)
(12.4331 0.00050143 0)
(12.2594 0.000386177 0)
(12.125 0.000303744 0)
(12.0172 0.000246405 0)
(11.9286 0.0002045 0)
(11.8542 0.000172559 0)
(11.7911 0.000147435 0)
(11.7368 0.000127187 0)
(11.6898 0.000110546 0)
(11.6488 9.66466e-05 0)
(11.6128 8.48803e-05 0)
(11.5812 7.48045e-05 0)
(11.5533 6.60904e-05 0)
(11.5286 5.84885e-05 0)
(11.5067 5.18064e-05 0)
(11.4874 4.58929e-05 0)
(11.4702 4.0628e-05 0)
(11.455 3.59156e-05 0)
(11.4416 3.16771e-05 0)
(11.4298 2.7848e-05 0)
(11.4194 2.43749e-05 0)
(11.4104 2.12135e-05 0)
(11.4025 1.83264e-05 0)
(11.3958 1.5682e-05 0)
(11.39 1.32548e-05 0)
(11.3852 1.10183e-05 0)
(11.3812 8.95441e-06 0)
(11.378 7.04605e-06 0)
(11.3755 5.2817e-06 0)
(11.3738 3.64255e-06 0)
(11.3726 2.12152e-06 0)
(11.372 7.03652e-07 0)
(11.372 -6.15456e-07 0)
(11.3725 -1.84779e-06 0)
(11.3734 -2.98659e-06 0)
(11.3748 -4.05275e-06 0)
(11.3766 -5.04178e-06 0)
(11.3787 -5.98744e-06 0)
(11.3813 -6.88778e-06 0)
(11.3842 -7.75726e-06 0)
(11.3874 -8.59484e-06 0)
(11.391 -9.41367e-06 0)
(11.3949 -1.0234e-05 0)
(11.3992 -1.10493e-05 0)
(11.4038 -1.18553e-05 0)
(11.4087 -1.2655e-05 0)
(11.4139 -1.34062e-05 0)
(11.4194 -1.41401e-05 0)
(11.4252 -1.48425e-05 0)
(11.4312 -1.54847e-05 0)
(11.4374 -1.60427e-05 0)
(11.4439 -1.65141e-05 0)
(11.4504 -1.68413e-05 0)
(11.4571 -1.70575e-05 0)
(11.4638 -1.71787e-05 0)
(11.4704 -1.71232e-05 0)
(11.477 -1.69746e-05 0)
(11.4835 -1.66329e-05 0)
(11.4897 -1.62151e-05 0)
(11.4958 -1.56638e-05 0)
(11.5016 -1.50272e-05 0)
(11.5071 -1.42632e-05 0)
(11.5122 -1.3426e-05 0)
(11.517 -1.25044e-05 0)
(11.5214 -1.15522e-05 0)
(11.5254 -1.05325e-05 0)
(11.529 -9.4946e-06 0)
(11.5322 -8.41591e-06 0)
(11.5349 -7.33762e-06 0)
(11.5373 -6.26576e-06 0)
(11.5392 -3.16544e-06 0)
(17.5879 0.16307 0)
(16.0152 0.0238108 0)
(15.1976 0.00458796 0)
(14.7348 0.00198899 0)
(14.4341 0.00129709 0)
(14.2183 0.000960549 0)
(14.0538 0.000751469 0)
(13.9232 0.000608021 0)
(13.8165 0.000503607 0)
(13.7275 0.000424282 0)
(13.6522 0.000362065 0)
(13.5878 0.000312044 0)
(13.532 0.000271017 0)
(13.4835 0.000236811 0)
(13.441 0.000207895 0)
(13.4037 0.000183163 0)
(13.3708 0.000161797 0)
(13.3416 0.000143174 0)
(13.3158 0.000126818 0)
(13.293 0.000112353 0)
(13.2728 9.94827e-05 0)
(13.2548 8.79692e-05 0)
(13.239 7.76187e-05 0)
(13.225 6.82721e-05 0)
(13.2127 5.97978e-05 0)
(13.202 5.2087e-05 0)
(13.1926 4.50474e-05 0)
(13.1846 3.86011e-05 0)
(13.1777 3.26846e-05 0)
(13.1718 2.72357e-05 0)
(13.167 2.22089e-05 0)
(13.1631 1.75622e-05 0)
(13.16 1.3264e-05 0)
(13.1577 9.27446e-06 0)
(13.1562 5.57234e-06 0)
(13.1553 2.12647e-06 0)
(13.1551 -1.08195e-06 0)
(13.1554 -4.07849e-06 0)
(13.1563 -6.85842e-06 0)
(13.1577 -9.46308e-06 0)
(13.1595 -1.18969e-05 0)
(13.1619 -1.42196e-05 0)
(13.1646 -1.64377e-05 0)
(13.1678 -1.85825e-05 0)
(13.1714 -2.06609e-05 0)
(13.1754 -2.26983e-05 0)
(13.1798 -2.47259e-05 0)
(13.1845 -2.67325e-05 0)
(13.1896 -2.87077e-05 0)
(13.1952 -3.06471e-05 0)
(13.201 -3.24786e-05 0)
(13.2072 -3.42342e-05 0)
(13.2137 -3.58743e-05 0)
(13.2205 -3.73427e-05 0)
(13.2276 -3.85903e-05 0)
(13.2348 -3.96006e-05 0)
(13.2421 -4.02812e-05 0)
(13.2496 -4.06748e-05 0)
(13.2571 -4.07962e-05 0)
(13.2645 -4.05289e-05 0)
(13.2718 -3.99993e-05 0)
(13.279 -3.9066e-05 0)
(13.2859 -3.79118e-05 0)
(13.2926 -3.64569e-05 0)
(13.299 -3.47867e-05 0)
(13.305 -3.28532e-05 0)
(13.3106 -3.0752e-05 0)
(13.3158 -2.84764e-05 0)
(13.3206 -2.61186e-05 0)
(13.3249 -2.36375e-05 0)
(13.3287 -2.11194e-05 0)
(13.3321 -1.8539e-05 0)
(13.335 -1.59516e-05 0)
(13.3374 -1.34601e-05 0)
(13.3394 -6.46014e-06 0)
(18.7449 0.0973745 0)
(17.3725 0.0156216 0)
(16.4743 0.00605636 0)
(15.9331 0.00350033 0)
(15.5795 0.00236975 0)
(15.3279 0.00174957 0)
(15.138 0.00136082 0)
(14.9886 0.00109591 0)
(14.8673 0.000904526 0)
(14.7668 0.000760049 0)
(14.6821 0.000647306 0)
(14.6098 0.000557035 0)
(14.5474 0.000483241 0)
(14.4932 0.000421882 0)
(14.4459 0.000370133 0)
(14.4043 0.000325958 0)
(14.3676 0.000287856 0)
(14.3353 0.000254694 0)
(14.3066 0.000225604 0)
(14.2812 0.000199906 0)
(14.2586 0.000177063 0)
(14.2387 0.000156645 0)
(14.221 0.000138304 0)
(14.2054 0.000121753 0)
(14.1917 0.000106756 0)
(14.1796 9.31175e-05 0)
(14.1691 8.06725e-05 0)
(14.16 6.92816e-05 0)
(14.1522 5.88299e-05 0)
(14.1456 4.92091e-05 0)
(14.14 4.03365e-05 0)
(14.1355 3.21374e-05 0)
(14.1319 2.45535e-05 0)
(14.1291 1.75173e-05 0)
(14.1271 1.09885e-05 0)
(14.1259 4.91722e-06 0)
(14.1254 -7.3691e-07 0)
(14.1255 -6.02418e-06 0)
(14.1262 -1.09407e-05 0)
(14.1274 -1.55485e-05 0)
(14.1292 -1.98666e-05 0)
(14.1315 -2.39866e-05 0)
(14.1343 -2.79279e-05 0)
(14.1375 -3.1742e-05 0)
(14.1412 -3.54457e-05 0)
(14.1453 -3.90774e-05 0)
(14.1498 -4.26796e-05 0)
(14.1547 -4.62341e-05 0)
(14.1601 -4.972e-05 0)
(14.1659 -5.31209e-05 0)
(14.172 -5.63273e-05 0)
(14.1785 -5.93671e-05 0)
(14.1853 -6.21703e-05 0)
(14.1924 -6.46464e-05 0)
(14.1998 -6.67165e-05 0)
(14.2073 -6.83467e-05 0)
(14.215 -6.94058e-05 0)
(14.2227 -6.99467e-05 0)
(14.2304 -6.99866e-05 0)
(14.2381 -6.93733e-05 0)
(14.2457 -6.82814e-05 0)
(14.253 -6.653e-05 0)
(14.2601 -6.43748e-05 0)
(14.267 -6.17196e-05 0)
(14.2734 -5.8692e-05 0)
(14.2795 -5.52428e-05 0)
(14.2852 -5.15141e-05 0)
(14.2904 -4.751e-05 0)
(14.2952 -4.33668e-05 0)
(14.2994 -3.90426e-05 0)
(14.3032 -3.46646e-05 0)
(14.3065 -3.02086e-05 0)
(14.3093 -2.57412e-05 0)
(14.3116 -2.15087e-05 0)
(14.3135 -1.01682e-05 0)
(19.3754 0.0462247 0)
(18.326 0.0150409 0)
(17.4307 0.00910101 0)
(16.8356 0.00564414 0)
(16.435 0.00383709 0)
(16.1491 0.00281757 0)
(15.9342 0.00217867 0)
(15.7661 0.00174595 0)
(15.6305 0.00143549 0)
(15.5186 0.00120258 0)
(15.4247 0.00102181 0)
(15.3447 0.000877711 0)
(15.276 0.000760364 0)
(15.2164 0.000663101 0)
(15.1644 0.00058129 0)
(15.1188 0.000511614 0)
(15.0786 0.000451637 0)
(15.0431 0.000399527 0)
(15.0117 0.000353883 0)
(14.9839 0.000313617 0)
(14.9592 0.000277866 0)
(14.9373 0.000245946 0)
(14.9179 0.000217299 0)
(14.9007 0.00019147 0)
(14.8856 0.000168085 0)
(14.8723 0.000146833 0)
(14.8607 0.000127453 0)
(14.8505 0.000109724 0)
(14.8418 9.3465e-05 0)
(14.8343 7.85065e-05 0)
(14.8281 6.47172e-05 0)
(14.8228 5.19795e-05 0)
(14.8186 4.01993e-05 0)
(14.8153 2.92749e-05 0)
(14.8129 1.91392e-05 0)
(14.8113 9.71674e-06 0)
(14.8104 9.41687e-07 0)
(14.8102 -7.26919e-06 0)
(14.8106 -1.49199e-05 0)
(14.8116 -2.20911e-05 0)
(14.8133 -2.88242e-05 0)
(14.8154 -3.52458e-05 0)
(14.8181 -4.13934e-05 0)
(14.8212 -4.73422e-05 0)
(14.8249 -5.31217e-05 0)
(14.829 -5.87838e-05 0)
(14.8335 -6.43794e-05 0)
(14.8385 -6.98818e-05 0)
(14.844 -7.52561e-05 0)
(14.8498 -8.04675e-05 0)
(14.8561 -8.53675e-05 0)
(14.8627 -8.99685e-05 0)
(14.8696 -9.41649e-05 0)
(14.8768 -9.78283e-05 0)
(14.8843 -0.000100847 0)
(14.8919 -0.000103164 0)
(14.8996 -0.000104615 0)
(14.9074 -0.000105258 0)
(14.9152 -0.000105111 0)
(14.9229 -0.000103999 0)
(14.9304 -0.000102139 0)
(14.9377 -9.93252e-05 0)
(14.9447 -9.58814e-05 0)
(14.9515 -9.17069e-05 0)
(14.9578 -8.69738e-05 0)
(14.9638 -8.16431e-05 0)
(14.9693 -7.59053e-05 0)
(14.9744 -6.97826e-05 0)
(14.979 -6.34562e-05 0)
(14.9831 -5.68939e-05 0)
(14.9867 -5.02639e-05 0)
(14.9898 -4.35503e-05 0)
(14.9925 -3.68209e-05 0)
(14.9946 -3.05223e-05 0)
(14.9963 -1.43039e-05 0)
(19.693 0.0456702 0)
(18.9995 0.0202329 0)
(18.1918 0.0128969 0)
(17.577 0.00823931 0)
(17.1407 0.00564736 0)
(16.8239 0.00414117 0)
(16.5849 0.00318982 0)
(16.3982 0.00254609 0)
(16.2481 0.00208608 0)
(16.1247 0.00174263 0)
(16.0214 0.00147727 0)
(15.9337 0.00126663 0)
(15.8585 0.0010957 0)
(15.7934 0.000954472 0)
(15.7367 0.000836004 0)
(15.687 0.000735347 0)
(15.6433 0.00064888 0)
(15.6047 0.000573892 0)
(15.5705 0.000508315 0)
(15.5402 0.000450547 0)
(15.5133 0.000399323 0)
(15.4895 0.000353639 0)
(15.4683 0.000312682 0)
(15.4496 0.000275789 0)
(15.4331 0.000242415 0)
(15.4185 0.000212109 0)
(15.4057 0.000184491 0)
(15.3945 0.000159243 0)
(15.3848 0.0001361 0)
(15.3765 0.00011482 0)
(15.3694 9.5213e-05 0)
(15.3635 7.71087e-05 0)
(15.3587 6.03693e-05 0)
(15.3548 4.4852e-05 0)
(15.3518 3.04571e-05 0)
(15.3497 1.70768e-05 0)
(15.3484 4.62013e-06 0)
(15.3478 -7.04088e-06 0)
(15.3479 -1.7929e-05 0)
(15.3487 -2.81374e-05 0)
(15.3501 -3.77345e-05 0)
(15.352 -4.68835e-05 0)
(15.3545 -5.56437e-05 0)
(15.3575 -6.41144e-05 0)
(15.361 -7.23394e-05 0)
(15.3651 -8.03816e-05 0)
(15.3696 -8.82974e-05 0)
(15.3745 -9.60486e-05 0)
(15.3799 -0.000103583 0)
(15.3858 -0.000110843 0)
(15.392 -0.000117638 0)
(15.3986 -0.000123961 0)
(15.4056 -0.000129666 0)
(15.4127 -0.000134588 0)
(15.4202 -0.000138582 0)
(15.4277 -0.00014157 0)
(15.4354 -0.000143358 0)
(15.4431 -0.000144008 0)
(15.4507 -0.000143544 0)
(15.4582 -0.000141775 0)
(15.4656 -0.000138961 0)
(15.4727 -0.000134885 0)
(15.4796 -0.000129932 0)
(15.4861 -0.000124008 0)
(15.4922 -0.000117331 0)
(15.498 -0.000109879 0)
(15.5033 -0.000101891 0)
(15.5081 -9.34127e-05 0)
(15.5125 -8.46696e-05 0)
(15.5164 -7.56452e-05 0)
(15.5198 -6.65473e-05 0)
(15.5227 -5.73722e-05 0)
(15.5251 -4.81817e-05 0)
(15.5271 -3.96624e-05 0)
(15.5287 -1.84715e-05 0)
(19.8488 0.0504549 0)
(19.4507 0.0244881 0)
(18.7997 0.016652 0)
(18.2081 0.0111579 0)
(17.7532 0.007791 0)
(17.4116 0.00573675 0)
(17.1505 0.00441439 0)
(16.9458 0.00351467 0)
(16.7812 0.00287186 0)
(16.6461 0.00239313 0)
(16.5332 0.00202448 0)
(16.4376 0.00173281 0)
(16.3557 0.00149689 0)
(16.2849 0.00130252 0)
(16.2233 0.00113989 0)
(16.1694 0.00100204 0)
(16.122 0.000883861 0)
(16.0802 0.000781559 0)
(16.0431 0.000692244 0)
(16.0103 0.00061368 0)
(15.9812 0.000544108 0)
(15.9553 0.000482135 0)
(15.9323 0.000426635 0)
(15.9119 0.000376692 0)
(15.8939 0.000331553 0)
(15.8779 0.000290596 0)
(15.8639 0.000253301 0)
(15.8516 0.000219229 0)
(15.8409 0.000188015 0)
(15.8317 0.000159332 0)
(15.8238 0.000132917 0)
(15.8171 0.000108538 0)
(15.8115 8.60031e-05 0)
(15.807 6.51216e-05 0)
(15.8035 4.57535e-05 0)
(15.8009 2.77526e-05 0)
(15.7991 1.09997e-05 0)
(15.7981 -4.68561e-06 0)
(15.7978 -1.93571e-05 0)
(15.7982 -3.31211e-05 0)
(15.7992 -4.60723e-05 0)
(15.8009 -5.84124e-05 0)
(15.8031 -7.02246e-05 0)
(15.806 -8.1633e-05 0)
(15.8093 -9.26949e-05 0)
(15.8132 -0.000103482 0)
(15.8176 -0.000114053 0)
(15.8224 -0.000124355 0)
(15.8277 -0.000134314 0)
(15.8335 -0.000143844 0)
(15.8396 -0.000152716 0)
(15.8461 -0.000160894 0)
(15.853 -0.000168196 0)
(15.86 -0.000174416 0)
(15.8673 -0.000179382 0)
(15.8747 -0.000182995 0)
(15.8822 -0.000185037 0)
(15.8897 -0.000185581 0)
(15.8971 -0.000184656 0)
(15.9044 -0.000182067 0)
(15.9115 -0.000178116 0)
(15.9184 -0.000172585 0)
(15.925 -0.000165922 0)
(15.9312 -0.000158043 0)
(15.9371 -0.000149215 0)
(15.9426 -0.000139439 0)
(15.9476 -0.000129005 0)
(15.9522 -0.000117982 0)
(15.9563 -0.000106641 0)
(15.96 -9.49836e-05 0)
(15.9632 -8.32575e-05 0)
(15.9659 -7.14726e-05 0)
(15.9682 -5.9679e-05 0)
(15.97 -4.88362e-05 0)
(15.9714 -2.26431e-05 0)
(19.929 0.0521809 0)
(19.7286 0.0270124 0)
(19.2674 0.0200258 0)
(18.7457 0.0142434 0)
(18.2961 0.0102331 0)
(17.9397 0.00761459 0)
(17.6607 0.00587475 0)
(17.4395 0.00467512 0)
(17.2609 0.0038141 0)
(17.114 0.00317259 0)
(16.9914 0.00267928 0)
(16.8876 0.00228985 0)
(16.7988 0.00197561 0)
(16.7221 0.00171734 0)
(16.6554 0.00150174 0)
(16.597 0.00131938 0)
(16.5458 0.00116334 0)
(16.5005 0.00102851 0)
(16.4605 0.000910982 0)
(16.4249 0.000807753 0)
(16.3934 0.000716463 0)
(16.3654 0.000635242 0)
(16.3405 0.000562585 0)
(16.3183 0.000497269 0)
(16.2987 0.000438291 0)
(16.2813 0.000384823 0)
(16.266 0.000336173 0)
(16.2525 0.000291759 0)
(16.2407 0.000251096 0)
(16.2305 0.000213754 0)
(16.2216 0.000179382 0)
(16.2141 0.000147675 0)
(16.2078 0.000118376 0)
(16.2026 9.12378e-05 0)
(16.1984 6.60708e-05 0)
(16.1952 4.26834e-05 0)
(16.1929 2.09215e-05 0)
(16.1914 5.51636e-07 0)
(16.1906 -1.85274e-05 0)
(16.1906 -3.64433e-05 0)
(16.1913 -5.33104e-05 0)
(16.1927 -6.93712e-05 0)
(16.1946 -8.47346e-05 0)
(16.1972 -9.95492e-05 0)
(16.2003 -0.000113885 0)
(16.204 -0.00012782 0)
(16.2081 -0.000141412 0)
(16.2128 -0.000154588 0)
(16.218 -0.000167251 0)
(16.2236 -0.000179285 0)
(16.2295 -0.000190416 0)
(16.2359 -0.000200581 0)
(16.2425 -0.00020956 0)
(16.2494 -0.000217113 0)
(16.2564 -0.000223038 0)
(16.2636 -0.000227225 0)
(16.2708 -0.000229437 0)
(16.278 -0.000229757 0)
(16.2852 -0.000228231 0)
(16.2922 -0.000224663 0)
(16.299 -0.000219406 0)
(16.3056 -0.000212243 0)
(16.3119 -0.000203687 0)
(16.3178 -0.000193672 0)
(16.3234 -0.000182515 0)
(16.3286 -0.000170244 0)
(16.3334 -0.000157199 0)
(16.3377 -0.000143476 0)
(16.3416 -0.000129391 0)
(16.3451 -0.000114965 0)
(16.3481 -0.000100486 0)
(16.3507 -8.59767e-05 0)
(16.3528 -7.14706e-05 0)
(16.3545 -5.82301e-05 0)
(16.3559 -2.69201e-05 0)
(19.9739 0.052718 0)
(19.8889 0.0285834 0)
(19.6025 0.0227995 0)
(19.1903 0.0172661 0)
(18.776 0.0128803 0)
(18.4202 0.00975677 0)
(18.1302 0.00758162 0)
(17.8955 0.00604682 0)
(17.7042 0.0049334 0)
(17.546 0.00410026 0)
(17.4137 0.00345889 0)
(17.3016 0.00295286 0)
(17.2056 0.00254508 0)
(17.1228 0.00221049 0)
(17.0508 0.0019317 0)
(16.9878 0.00169629 0)
(16.9324 0.00149522 0)
(16.8836 0.00132175 0)
(16.8404 0.00117077 0)
(16.802 0.00103835 0)
(16.7679 0.000921395 0)
(16.7376 0.000817463 0)
(16.7106 0.000724593 0)
(16.6866 0.000641191 0)
(16.6653 0.000565952 0)
(16.6463 0.000497802 0)
(16.6296 0.000435842 0)
(16.6148 0.000379318 0)
(16.6019 0.000327602 0)
(16.5905 0.00028014 0)
(16.5807 0.000236477 0)
(16.5723 0.000196219 0)
(16.5651 0.000159033 0)
(16.5592 0.000124602 0)
(16.5543 9.26798e-05 0)
(16.5504 6.30189e-05 0)
(16.5475 3.54213e-05 0)
(16.5454 9.60483e-06 0)
(16.5442 -1.45968e-05 0)
(16.5437 -3.7349e-05 0)
(16.544 -5.87758e-05 0)
(16.5449 -7.91622e-05 0)
(16.5465 -9.86437e-05 0)
(16.5488 -0.000117393 0)
(16.5516 -0.000135492 0)
(16.555 -0.000153023 0)
(16.5589 -0.000170036 0)
(16.5633 -0.00018644 0)
(16.5683 -0.000202109 0)
(16.5736 -0.000216894 0)
(16.5793 -0.000230479 0)
(16.5854 -0.000242772 0)
(16.5918 -0.000253515 0)
(16.5984 -0.000262439 0)
(16.6052 -0.00026932 0)
(16.6121 -0.000274035 0)
(16.619 -0.00027634 0)
(16.6259 -0.000276334 0)
(16.6328 -0.000274083 0)
(16.6395 -0.000269402 0)
(16.646 -0.000262691 0)
(16.6522 -0.000253747 0)
(16.6582 -0.000243149 0)
(16.6638 -0.000230853 0)
(16.6691 -0.000217226 0)
(16.6741 -0.000202328 0)
(16.6786 -0.000186547 0)
(16.6827 -0.00017001 0)
(16.6864 -0.000153073 0)
(16.6897 -0.000135783 0)
(16.6926 -0.000118463 0)
(16.6951 -0.000101151 0)
(16.6971 -8.38563e-05 0)
(16.6988 -6.817e-05 0)
(16.7001 -3.14758e-05 0)
(20.0011 0.0528694 0)
(19.9807 0.0295175 0)
(19.8226 0.0248232 0)
(19.5371 0.019951 0)
(19.1896 0.0155661 0)
(18.8549 0.0120995 0)
(18.5647 0.00952307 0)
(18.3221 0.00763897 0)
(18.1205 0.00624631 0)
(17.9523 0.0051943 0)
(17.8107 0.00438085 0)
(17.6905 0.00373795 0)
(17.5873 0.00321978 0)
(17.4983 0.00279489 0)
(17.4207 0.00244122 0)
(17.3529 0.00214297 0)
(17.2933 0.00188857 0)
(17.2407 0.00166939 0)
(17.194 0.00147888 0)
(17.1527 0.00131199 0)
(17.1159 0.00116477 0)
(17.0831 0.00103409 0)
(17.0539 0.000917445 0)
(17.0279 0.000812793 0)
(17.0047 0.00071847 0)
(16.9842 0.000633108 0)
(16.9659 0.00055556 0)
(16.9497 0.000484868 0)
(16.9355 0.000420232 0)
(16.923 0.000360951 0)
(16.9121 0.000306447 0)
(16.9027 0.000256217 0)
(16.8946 0.00020984 0)
(16.8878 0.000166916 0)
(16.8821 0.000127128 0)
(16.8775 9.01658e-05 0)
(16.8739 5.57762e-05 0)
(16.8712 2.36285e-05 0)
(16.8694 -6.51824e-06 0)
(16.8684 -3.48875e-05 0)
(16.8682 -6.16127e-05 0)
(16.8687 -8.70158e-05 0)
(16.8699 -0.00011126 0)
(16.8718 -0.000134543 0)
(16.8742 -0.000156956 0)
(16.8773 -0.000178582 0)
(16.8809 -0.000199464 0)
(16.885 -0.000219487 0)
(16.8897 -0.000238496 0)
(16.8947 -0.000256309 0)
(16.9002 -0.000272565 0)
(16.906 -0.000287145 0)
(16.912 -0.000299759 0)
(16.9183 -0.000310111 0)
(16.9248 -0.000317961 0)
(16.9314 -0.000323182 0)
(16.938 -0.000325527 0)
(16.9445 -0.00032512 0)
(16.951 -0.000322052 0)
(16.9574 -0.000316153 0)
(16.9635 -0.000307881 0)
(16.9695 -0.000297048 0)
(16.9751 -0.000284301 0)
(16.9805 -0.000269622 0)
(16.9855 -0.00025343 0)
(16.9902 -0.000235817 0)
(16.9945 -0.000217222 0)
(16.9985 -0.000197801 0)
(17.002 -0.000177951 0)
(17.0052 -0.000157742 0)
(17.008 -0.000137532 0)
(17.0104 -0.000117375 0)
(17.0125 -9.725e-05 0)
(17.0141 -7.90953e-05 0)
(17.0155 -3.65362e-05 0)
(20.0187 0.0527445 0)
(20.0354 0.0299682 0)
(19.9582 0.026127 0)
(19.7862 0.0220655 0)
(19.5283 0.0180611 0)
(19.2388 0.0145161 0)
(18.9637 0.0116492 0)
(18.7216 0.00944108 0)
(18.5144 0.00775985 0)
(18.3385 0.00646875 0)
(18.189 0.00546134 0)
(18.0611 0.00466132 0)
(17.951 0.00401502 0)
(17.8557 0.00348461 0)
(17.7726 0.00304311 0)
(17.6999 0.00267097 0)
(17.6358 0.00235379 0)
(17.5792 0.00208078 0)
(17.5291 0.00184373 0)
(17.4845 0.00163628 0)
(17.4448 0.00145347 0)
(17.4094 0.00129135 0)
(17.3779 0.00114679 0)
(17.3497 0.0010172 0)
(17.3246 0.000900513 0)
(17.3023 0.000794992 0)
(17.2824 0.000699205 0)
(17.2647 0.000611948 0)
(17.2491 0.000532219 0)
(17.2353 0.000459142 0)
(17.2232 0.000391991 0)
(17.2127 0.000330139 0)
(17.2036 0.000273053 0)
(17.1959 0.000220239 0)
(17.1894 0.000171297 0)
(17.184 0.000125842 0)
(17.1796 8.3552e-05 0)
(17.1763 4.40418e-05 0)
(17.1738 7.00182e-06 0)
(17.1722 -2.7875e-05 0)
(17.1715 -6.0748e-05 0)
(17.1715 -9.196e-05 0)
(17.1722 -0.000121704 0)
(17.1736 -0.000150202 0)
(17.1756 -0.000177553 0)
(17.1783 -0.000203841 0)
(17.1815 -0.000229098 0)
(17.1853 -0.000253184 0)
(17.1896 -0.000275914 0)
(17.1943 -0.00029707 0)
(17.1994 -0.000316252 0)
(17.2048 -0.000333315 0)
(17.2106 -0.000347942 0)
(17.2165 -0.000359813 0)
(17.2226 -0.000368681 0)
(17.2288 -0.000374421 0)
(17.2351 -0.000376794 0)
(17.2413 -0.00037595 0)
(17.2475 -0.000372016 0)
(17.2535 -0.000364842 0)
(17.2593 -0.00035495 0)
(17.2649 -0.000342168 0)
(17.2703 -0.000327216 0)
(17.2754 -0.000310103 0)
(17.2802 -0.000291302 0)
(17.2847 -0.000270939 0)
(17.2888 -0.000249501 0)
(17.2926 -0.000227173 0)
(17.2961 -0.000204393 0)
(17.2992 -0.000181253 0)
(17.3019 -0.000158146 0)
(17.3043 -0.000135139 0)
(17.3064 -0.000112173 0)
(17.3082 -9.15496e-05 0)
(17.3097 -4.23802e-05 0)
(20.0306 0.0523702 0)
(20.0698 0.03007 0)
(20.0406 0.0268629 0)
(19.9512 0.0235191 0)
(19.7855 0.0201272 0)
(19.5621 0.0168135 0)
(19.3211 0.0138542 0)
(19.0917 0.0114083 0)
(18.8862 0.0094621 0)
(18.7068 0.00792766 0)
(18.5516 0.00671164 0)
(18.4174 0.00573709 0)
(18.3011 0.00494558 0)
(18.1999 0.00429407 0)
(18.1114 0.00375094 0)
(18.0336 0.00329287 0)
(17.9651 0.00290244 0)
(17.9044 0.00256648 0)
(17.8506 0.00227493 0)
(17.8027 0.00201996 0)
(17.76 0.00179543 0)
(17.7219 0.00159649 0)
(17.6879 0.00141922 0)
(17.6574 0.00126045 0)
(17.6302 0.00111758 0)
(17.6059 0.00098848 0)
(17.5843 0.000871372 0)
(17.565 0.000764767 0)
(17.5479 0.000667417 0)
(17.5327 0.000578243 0)
(17.5194 0.000496347 0)
(17.5077 0.000420949 0)
(17.4975 0.000351391 0)
(17.4887 0.000287064 0)
(17.4813 0.00022747 0)
(17.475 0.000172134 0)
(17.4698 0.000120659 0)
(17.4657 7.25878e-05 0)
(17.4626 2.75542e-05 0)
(17.4603 -1.48515e-05 0)
(17.4589 -5.48457e-05 0)
(17.4584 -9.27775e-05 0)
(17.4585 -0.000128867 0)
(17.4594 -0.000163358 0)
(17.461 -0.000196363 0)
(17.4632 -0.000227961 0)
(17.466 -0.000258174 0)
(17.4694 -0.000286834 0)
(17.4732 -0.000313726 0)
(17.4776 -0.000338602 0)
(17.4823 -0.000361021 0)
(17.4873 -0.000380818 0)
(17.4927 -0.00039765 0)
(17.4982 -0.000411185 0)
(17.504 -0.000421174 0)
(17.5098 -0.000427501 0)
(17.5157 -0.000429943 0)
(17.5215 -0.000428684 0)
(17.5273 -0.000423891 0)
(17.533 -0.000415444 0)
(17.5385 -0.000403928 0)
(17.5439 -0.000389197 0)
(17.549 -0.000372043 0)
(17.5538 -0.000352503 0)
(17.5584 -0.000331106 0)
(17.5627 -0.000308011 0)
(17.5667 -0.000283753 0)
(17.5704 -0.000258545 0)
(17.5738 -0.000232866 0)
(17.5769 -0.000206826 0)
(17.5797 -0.000180853 0)
(17.5821 -0.000155026 0)
(17.5843 -0.000129242 0)
(17.5861 -0.000106169 0)
(17.5878 -4.93301e-05 0)
(20.039 0.0517789 0)
(20.0926 0.0299213 0)
(20.092 0.027188 0)
(20.0552 0.0243789 0)
(19.9649 0.0216134 0)
(19.8158 0.0187666 0)
(19.6268 0.0159671 0)
(19.4257 0.0134437 0)
(19.2323 0.0113079 0)
(19.0559 0.00955549 0)
(18.899 0.0081319 0)
(18.761 0.00697327 0)
(18.6398 0.00602317 0)
(18.5336 0.00523641 0)
(18.4401 0.0045781 0)
(18.3576 0.00402166 0)
(18.2847 0.0035468 0)
(18.22 0.00313796 0)
(18.1624 0.00278311 0)
(18.1111 0.00247283 0)
(18.0653 0.00219969 0)
(18.0243 0.00195778 0)
(17.9877 0.00174234 0)
(17.9548 0.00154949 0)
(17.9254 0.00137606 0)
(17.8991 0.00121944 0)
(17.8755 0.00107746 0)
(17.8545 0.000948276 0)
(17.8358 0.000830378 0)
(17.8192 0.000722441 0)
(17.8044 0.000623362 0)
(17.7915 0.000532188 0)
(17.7801 0.000448108 0)
(17.7702 0.000370381 0)
(17.7617 0.000298395 0)
(17.7545 0.00023157 0)
(17.7484 0.000169418 0)
(17.7435 0.000111397 0)
(17.7395 5.70839e-05 0)
(17.7366 5.97053e-06 0)
(17.7345 -4.22521e-05 0)
(17.7333 -8.7954e-05 0)
(17.7328 -0.00013136 0)
(17.7331 -0.000172743 0)
(17.7342 -0.000212224 0)
(17.7359 -0.00024988 0)
(17.7382 -0.000285721 0)
(17.7411 -0.000319554 0)
(17.7445 -0.000351135 0)
(17.7483 -0.000380184 0)
(17.7526 -0.000406229 0)
(17.7572 -0.000429083 0)
(17.7622 -0.000448388 0)
(17.7673 -0.000463804 0)
(17.7726 -0.000475088 0)
(17.7781 -0.000482143 0)
(17.7836 -0.000484767 0)
(17.7891 -0.000483186 0)
(17.7945 -0.000477613 0)
(17.7999 -0.000467964 0)
(17.8051 -0.00045489 0)
(17.8101 -0.000438277 0)
(17.815 -0.000418988 0)
(17.8197 -0.000397092 0)
(17.8241 -0.000373172 0)
(17.8282 -0.000347421 0)
(17.8321 -0.000320421 0)
(17.8358 -0.000292413 0)
(17.8391 -0.000263911 0)
(17.8422 -0.000235047 0)
(17.845 -0.000206279 0)
(17.8476 -0.000177698 0)
(17.8499 -0.000149148 0)
(17.8519 -0.000123662 0)
(17.8537 -5.77465e-05 0)
(20.0449 0.0509937 0)
(20.1082 0.029581 0)
(20.1254 0.0272183 0)
(20.1206 0.0247808 0)
(20.0821 0.0225188 0)
(19.9986 0.0202042 0)
(19.8707 0.0177773 0)
(19.7131 0.0153876 0)
(19.5451 0.0132012 0)
(19.3812 0.0113027 0)
(19.2289 0.00970101 0)
(19.0909 0.00836499 0)
(18.9675 0.00725183 0)
(18.8578 0.00632036 0)
(18.7603 0.00553561 0)
(18.6738 0.00486927 0)
(18.5968 0.00429896 0)
(18.5283 0.00380701 0)
(18.4671 0.00337952 0)
(18.4124 0.0030055 0)
(18.3634 0.00267615 0)
(18.3195 0.00238445 0)
(18.2801 0.0021247 0)
(18.2448 0.00189225 0)
(18.2131 0.00168328 0)
(18.1846 0.00149464 0)
(18.1591 0.0013237 0)
(18.1362 0.00116824 0)
(18.1158 0.00102643 0)
(18.0975 0.000896648 0)
(18.0813 0.000777572 0)
(18.067 0.000668041 0)
(18.0543 0.000567067 0)
(18.0433 0.000473755 0)
(18.0336 0.00038736 0)
(18.0254 0.000307181 0)
(18.0183 0.000232623 0)
(18.0125 0.000163049 0)
(18.0077 9.79589e-05 0)
(18.0039 3.67714e-05 0)
(18.001 -2.09442e-05 0)
(17.9991 -7.56207e-05 0)
(17.998 -0.000127467 0)
(17.9977 -0.000176776 0)
(17.9981 -0.000223684 0)
(17.9992 -0.000268267 0)
(18.0009 -0.000310523 0)
(18.0033 -0.000350235 0)
(18.0062 -0.000387135 0)
(18.0095 -0.000420914 0)
(18.0133 -0.000451069 0)
(18.0175 -0.000477403 0)
(18.022 -0.000499544 0)
(18.0267 -0.000517152 0)
(18.0316 -0.00053 0)
(18.0366 -0.000538014 0)
(18.0417 -0.000541024 0)
(18.0468 -0.000539302 0)
(18.0519 -0.000533113 0)
(18.057 -0.000522415 0)
(18.0619 -0.000507931 0)
(18.0667 -0.000489578 0)
(18.0714 -0.000468294 0)
(18.0758 -0.000444181 0)
(18.0801 -0.000417876 0)
(18.0841 -0.000389606 0)
(18.088 -0.000360001 0)
(18.0916 -0.000329324 0)
(18.0949 -0.000298125 0)
(18.0981 -0.000266555 0)
(18.1009 -0.000235104 0)
(18.1036 -0.000203869 0)
(18.106 -0.000172636 0)
(18.1082 -0.000144788 0)
(18.1102 -6.80139e-05 0)
(20.0492 0.0500256 0)
(20.1193 0.0290806 0)
(20.1481 0.0270286 0)
(20.1628 0.0248477 0)
(20.1569 0.0229464 0)
(20.1211 0.0210868 0)
(20.0495 0.0191112 0)
(19.9437 0.0170398 0)
(19.8141 0.0149855 0)
(19.6744 0.0130688 0)
(19.5354 0.0113618 0)
(19.4037 0.00988347 0)
(19.2821 0.00862018 0)
(19.1717 0.0075449 0)
(19.0721 0.00662841 0)
(18.9827 0.00584401 0)
(18.9025 0.00516892 0)
(18.8306 0.00458437 0)
(18.7661 0.00407509 0)
(18.7082 0.00362869 0)
(18.6562 0.00323516 0)
(18.6094 0.00288635 0)
(18.5673 0.0025756 0)
(18.5295 0.00229746 0)
(18.4954 0.00204741 0)
(18.4647 0.0018217 0)
(18.4371 0.00161719 0)
(18.4123 0.00143126 0)
(18.39 0.00126169 0)
(18.3701 0.00110655 0)
(18.3524 0.000964257 0)
(18.3365 0.000833404 0)
(18.3225 0.000712808 0)
(18.3102 0.000601395 0)
(18.2993 0.000498264 0)
(18.2899 0.000402577 0)
(18.2818 0.000313617 0)
(18.2749 0.000230636 0)
(18.2692 0.000153043 0)
(18.2645 8.01859e-05 0)
(18.2609 1.1524e-05 0)
(18.2581 -5.3493e-05 0)
(18.2563 -0.000115075 0)
(18.2552 -0.000173508 0)
(18.255 -0.000228946 0)
(18.2554 -0.000281467 0)
(18.2566 -0.000331062 0)
(18.2583 -0.000377493 0)
(18.2606 -0.000420469 0)
(18.2635 -0.000459658 0)
(18.2667 -0.000494535 0)
(18.2704 -0.00052489 0)
(18.2744 -0.00055035 0)
(18.2786 -0.000570581 0)
(18.2831 -0.000585377 0)
(18.2877 -0.000594695 0)
(18.2924 -0.000598402 0)
(18.2971 -0.000596825 0)
(18.3019 -0.000590286 0)
(18.3066 -0.000578788 0)
(18.3113 -0.000563131 0)
(18.3158 -0.000543266 0)
(18.3203 -0.000520209 0)
(18.3246 -0.000494092 0)
(18.3287 -0.00046561 0)
(18.3327 -0.000435023 0)
(18.3364 -0.000403006 0)
(18.34 -0.000369844 0)
(18.3434 -0.000336124 0)
(18.3466 -0.000302013 0)
(18.3496 -0.000268029 0)
(18.3524 -0.000234276 0)
(18.3549 -0.000200473 0)
(18.3573 -0.000170329 0)
(18.3595 -8.05264e-05 0)
(20.0522 0.0488783 0)
(20.1272 0.0284366 0)
(20.164 0.0266625 0)
(20.1912 0.0246654 0)
(20.2052 0.0230151 0)
(20.2004 0.0214911 0)
(20.1713 0.0199148 0)
(20.1139 0.0182338 0)
(20.0293 0.0164681 0)
(19.9247 0.0146947 0)
(19.8096 0.0130044 0)
(19.6925 0.0114605 0)
(19.579 0.0100893 0)
(19.4722 0.00889024 0)
(19.3736 0.00784889 0)
(19.2834 0.00694579 0)
(19.2015 0.00616125 0)
(19.1273 0.00547736 0)
(19.0602 0.00487863 0)
(18.9996 0.00435201 0)
(18.9448 0.00388656 0)
(18.8953 0.00347326 0)
(18.8507 0.0031046 0)
(18.8103 0.00277431 0)
(18.7739 0.0024772 0)
(18.7409 0.0022089 0)
(18.7112 0.00196577 0)
(18.6845 0.00174469 0)
(18.6604 0.00154306 0)
(18.6387 0.00135862 0)
(18.6193 0.00118945 0)
(18.6019 0.00103391 0)
(18.5865 0.000890584 0)
(18.5727 0.000758194 0)
(18.5606 0.000635665 0)
(18.55 0.000522001 0)
(18.5407 0.000416348 0)
(18.5328 0.000317829 0)
(18.526 0.000225752 0)
(18.5204 0.000139375 0)
(18.5158 5.80856e-05 0)
(18.5122 -1.88218e-05 0)
(18.5095 -9.16206e-05 0)
(18.5077 -0.000160561 0)
(18.5067 -0.000225809 0)
(18.5065 -0.000287448 0)
(18.5069 -0.000345466 0)
(18.508 -0.00039961 0)
(18.5097 -0.000449573 0)
(18.5119 -0.000495003 0)
(18.5146 -0.000535359 0)
(18.5177 -0.000570426 0)
(18.5212 -0.000599834 0)
(18.5249 -0.00062326 0)
(18.5289 -0.000640527 0)
(18.5331 -0.000651628 0)
(18.5374 -0.000656476 0)
(18.5417 -0.000655454 0)
(18.5462 -0.000648947 0)
(18.5506 -0.000637009 0)
(18.555 -0.000620518 0)
(18.5593 -0.000599466 0)
(18.5635 -0.000574942 0)
(18.5677 -0.000547115 0)
(18.5717 -0.000516738 0)
(18.5755 -0.000484102 0)
(18.5793 -0.000449928 0)
(18.5829 -0.000414523 0)
(18.5863 -0.000378506 0)
(18.5895 -0.000342062 0)
(18.5926 -0.000305736 0)
(18.5955 -0.000269637 0)
(18.5983 -0.000233409 0)
(18.6009 -0.000201045 0)
(18.6033 -9.56689e-05 0)
(20.0542 0.0475508 0)
(20.1328 0.0276568 0)
(20.1754 0.0261432 0)
(20.2109 0.0242867 0)
(20.2375 0.0228152 0)
(20.252 0.0215276 0)
(20.2508 0.02025 0)
(20.2303 0.0189168 0)
(20.1875 0.0174951 0)
(20.1228 0.0159937 0)
(20.0406 0.0144639 0)
(19.9476 0.0129732 0)
(19.8502 0.0115763 0)
(19.7535 0.0103042 0)
(19.6605 0.00916629 0)
(19.573 0.00815829 0)
(19.4918 0.00726913 0)
(19.417 0.00648537 0)
(19.3486 0.00579358 0)
(19.2862 0.00518138 0)
(19.2294 0.00463783 0)
(19.1777 0.00415353 0)
(19.1308 0.00372041 0)
(19.0882 0.00333164 0)
(19.0496 0.0029814 0)
(19.0145 0.0026648 0)
(18.9828 0.00237765 0)
(18.954 0.0021164 0)
(18.928 0.00187804 0)
(18.9046 0.00165993 0)
(18.8835 0.00145986 0)
(18.8645 0.00127588 0)
(18.8476 0.00110634 0)
(18.8324 0.00094973 0)
(18.8189 0.000804793 0)
(18.807 0.000670352 0)
(18.7966 0.000545399 0)
(18.7875 0.000428919 0)
(18.7796 0.000320096 0)
(18.773 0.000218088 0)
(18.7674 0.000122214 0)
(18.7629 3.16464e-05 0)
(18.7593 -5.40277e-05 0)
(18.7566 -0.000135068 0)
(18.7548 -0.000211606 0)
(18.7538 -0.000283733 0)
(18.7535 -0.000351444 0)
(18.7539 -0.000414477 0)
(18.7549 -0.000472515 0)
(18.7564 -0.000525193 0)
(18.7585 -0.000571959 0)
(18.761 -0.0006126 0)
(18.7639 -0.000646754 0)
(18.7671 -0.000674115 0)
(18.7706 -0.000694539 0)
(18.7743 -0.00070806 0)
(18.7782 -0.000714644 0)
(18.7821 -0.00071473 0)
(18.7862 -0.000708772 0)
(18.7903 -0.000696879 0)
(18.7944 -0.000680009 0)
(18.7985 -0.000658197 0)
(18.8025 -0.000632611 0)
(18.8065 -0.000603457 0)
(18.8104 -0.000571543 0)
(18.8142 -0.000537197 0)
(18.8179 -0.000501185 0)
(18.8215 -0.000463834 0)
(18.8249 -0.000425797 0)
(18.8282 -0.000387274 0)
(18.8314 -0.000348838 0)
(18.8345 -0.0003106 0)
(18.8374 -0.000272123 0)
(18.8401 -0.000237627 0)
(18.8427 -0.00011379 0)
(20.0555 0.046039 0)
(20.1367 0.0267443 0)
(20.1836 0.0254815 0)
(20.2248 0.023741 0)
(20.2598 0.0224039 0)
(20.2863 0.0212858 0)
(20.3028 0.0202192 0)
(20.3068 0.019147 0)
(20.2955 0.0180268 0)
(20.2667 0.0168313 0)
(20.2202 0.0155621 0)
(20.1584 0.0142502 0)
(20.0856 0.0129428 0)
(20.0066 0.0116859 0)
(19.9257 0.0105116 0)
(19.846 0.00943648 0)
(19.7693 0.0084647 0)
(19.697 0.00759249 0)
(19.6294 0.00681222 0)
(19.5668 0.00611472 0)
(19.5091 0.00549069 0)
(19.4562 0.00493141 0)
(19.4076 0.00442896 0)
(19.3633 0.00397637 0)
(19.3228 0.00356754 0)
(19.2858 0.00319718 0)
(19.2522 0.00286071 0)