/*--------------------------------*- C++ -*----------------------------------*\
  =========                 |
  \\      /  F ield         | OpenFOAM: The Open Source CFD Toolbox
   \\    /   O peration     | Website:  https://openfoam.org
    \\  /    A nd           | Version:  7
     \\/     M anipulation  |
\*---------------------------------------------------------------------------*/
FoamFile
{
    version     2.0;
    format      ascii;
    class       volScalarField;
    location    "1.6";
    object      p;
}
// * * * * * * * * * * * * * * * * * * * * * * * * * * * * * * * * * * * * * //

dimensions      [0 2 -2 0 0 0 0];

internalField   nonuniform List<scalar> 
900
(
1.53797e-08
-0.000229465
-0.000516587
-0.000761865
-0.000906955
-0.000917953
-0.000781706
-0.000496657
-6.68316e-05
0.000501088
0.0011989
0.00201698
0.00294366
0.00396445
0.00506109
0.00621082
0.00738605
0.00855436
0.0096793
0.0107218
0.0116427
0.0124052
0.0129792
0.0133446
0.0134958
0.0134455
0.0132296
0.0129115
0.0125648
0.0123357
0.000226875
-5.79787e-06
-0.000214258
-0.000372286
-0.000446769
-0.000411817
-0.000254964
2.7911e-05
0.000436309
0.000966761
0.00161355
0.00236878
0.00322209
0.00416003
0.00516549
0.00621726
0.00728987
0.00835391
0.00937675
0.0103241
0.011162
0.0118599
0.0123935
0.0127483
0.0129224
0.0129292
0.0127995
0.0125822
0.0123338
0.0121073
0.000520567
0.000196363
-1.79254e-05
-0.000152454
-0.000201758
-0.000148234
1.6876e-05
0.000296556
0.000690891
0.00119776
0.00181299
0.0025302
0.00334041
0.00423149
0.00518758
0.00618877
0.00721109
0.00822637
0.00920356
0.01011
0.0109133
0.0115847
0.0121013
0.0124497
0.0126287
0.0126501
0.0125409
0.0123422
0.0120853
0.0117611
0.000782142
0.000346321
9.35377e-05
-4.76424e-05
-9.45086e-05
-3.71127e-05
0.000128661
0.000403272
0.000786207
0.00127591
0.00186937
0.00256167
0.00334537
0.00420982
0.00514055
0.00611882
0.00712147
0.00812092
0.00908624
0.00998442
0.0107826
0.0114507
0.011965
0.0123111
0.0124862
0.0125004
0.0123781
0.0121564
0.0118499
0.0114174
0.000946573
0.000401421
0.000101796
-5.78841e-05
-0.000112975
-5.96604e-05
0.000101939
0.000369734
0.000742411
0.0012188
0.00179699
0.00247355
0.00324268
0.00409535
0.0050185
0.00599444
0.00700051
0.00800908
0.00898828
0.00990344
0.0107193
0.0114031
0.0119282
0.0122774
0.012446
0.0124423
0.0122899
0.0120253
0.0116539
0.0111111
0.000966431
0.00032093
-2.7417e-05
-0.000211807
-0.000281658
-0.000237759
-8.36793e-05
0.000176332
0.000540299
0.00100748
0.00157711
0.00224732
0.00301408
0.00387009
0.00480376
0.00579837
0.00683154
0.0078749
0.00889478
0.00985352
0.0107119
0.0114324
0.0119837
0.0123447
0.0125075
0.0124793
0.0122843
0.0119623
0.0115161
0.0108661
0.000810467
7.38558e-05
-0.000322502
-0.000534519
-0.000622774
-0.000591477
-0.000446886
-0.000194917
0.000162076
0.000623962
0.00119127
0.0018639
0.00263976
0.00351348
0.00447512
0.00550902
0.00659287
0.00769725
0.00878583
0.00981671
0.010745
0.0115266
0.0121234
0.0125082
0.0126694
0.0126129
0.0123655
0.0119734
0.011442
0.0106834
0.000456431
-0.00036467
-0.000807731
-0.00104848
-0.00115694
-0.00113998
-0.00100597
-0.000762059
-0.000410654
4.8984e-05
0.000618942
0.00130113
0.00209576
0.00299974
0.00400515
0.00509766
0.00625523
0.00744717
0.00863395
0.00976833
0.010798
0.0116699
0.0123365
0.0127623
0.0129302
0.0128445
0.0125358
0.0120598
0.0114292
0.0105507
-0.000113895
-0.0010165
-0.0015057
-0.00177582
-0.00190561
-0.0019042
-0.00178175
-0.00154635
-0.00120018
-0.000741373
-0.000165957
0.000530388
0.00135062
0.00229452
0.0033568
0.00452512
0.00577822
0.0070845
0.00840094
0.00967405
0.0108423
0.0118409
0.0126097
0.0131014
0.0132901
0.0131775
0.0127987
0.0122223
0.0114711
0.0104477
-0.000917486
-0.00190224
-0.00243833
-0.00273883
-0.00289118
-0.00290679
-0.00279754
-0.00257232
-0.00223295
-0.00177616
-0.00119576
-0.000484576
0.000363747
0.00135265
0.00248047
0.00373796
0.00510574
0.00655226
0.00803144
0.00948305
0.0108346
0.0120067
0.0129218
0.0135156
0.0137491
0.0136176
0.0131607
0.0124628
0.0115603
0.0103497
-0.00197177
-0.00304257
-0.00362781
-0.0039604
-0.00413718
-0.0041721
-0.00407897
-0.0038676
-0.00353941
-0.00308956
-0.00250935
-0.00178821
-0.000915684
0.000116373
0.00131129
0.00266458
0.00416054
0.00576986
0.00744466
0.00911857
0.0107071
0.0121128
0.0132351
0.0139853
0.0143031
0.0141714
0.0136319
0.0127875
0.011691
0.0102291
-0.00329569
-0.00445935
-0.00509739
-0.00546466
-0.00566857
-0.00572622
-0.00565388
-0.00546263
-0.00515363
-0.00472049
-0.00415178
-0.00343308
-0.00254906
-0.00148571
-0.000233013
0.00121156
0.00283874
0.00462539
0.00652439
0.00846573
0.0103533
0.0120689
0.0134823
0.0144698
0.0149374
0.0148441
0.0142269
0.0132092
0.0118627
0.010058
-0.0049104
-0.00617642
-0.00687223
-0.00727747
-0.00751193
-0.00759685
-0.0075518
-0.00738982
-0.00711222
-0.00671127
-0.0061728
-0.00547834
-0.00460708
-0.00353799
-0.00225252
-0.000738127
0.00100685
0.0029684
0.0051079
0.00735658
0.00961019
0.0117289
0.0135465
0.0148907
0.0156145
0.015633
0.0149648
0.0137513
0.0120853
0.00981189
-0.00683978
-0.00822047
-0.00898008
-0.00942689
-0.00969551
-0.00981282
-0.009803
-0.00968203
-0.00945219
-0.00910492
-0.00862374
-0.00798628
-0.00716605
-0.00613427
-0.00486215
-0.00332391
-0.00150164
0.000604831
0.00297626
0.00555459
0.00823627
0.0108645
0.0132325
0.015104
0.0162521
0.0165147
0.0158645
0.0144507
0.0123854
0.00947646
-0.00911109
-0.010622
-0.0114522
-0.0119437
-0.0122492
-0.0124033
-0.0124368
-0.0123702
-0.0122076
-0.0119409
-0.0115522
-0.0110159
-0.0103005
-0.00936958
-0.00818303
-0.00669961
-0.00488091
-0.00269987
-0.000147715
0.00274502
0.00589302
0.00913623
0.0122309
0.0148623
0.0166891
0.0174213
0.0169352
0.0153595
0.0128158
0.00905821
-0.011756
-0.0134171
-0.0143249
-0.0148619
-0.0152041
-0.0153967
-0.0154796
-0.0154796
-0.015405
-0.0152491
-0.0149941
-0.0146131
-0.0140713
-0.0133258
-0.012326
-0.0110139
-0.00932609
-0.00719965
-0.0045834
-0.00145617
0.0021427
0.00607811
0.0100876
0.0137737
0.0166423
0.0182045
0.0181567
0.0165447
0.0134675
0.00860113
-0.0148123
-0.0166494
-0.0176411
-0.0182202
-0.0185926
-0.0188188
-0.0189512
-0.0190259
-0.0190568
-0.0190409
-0.0189629
-0.018797
-0.0185079
-0.0180499
-0.0173645
-0.0163784
-0.0150015
-0.0131278
-0.0106453
-0.00745639
-0.00351333
0.00112036
0.00620554
0.0112799
0.0156682
0.0185963
0.0194535
0.0180854
0.0144885
0.00821387
-0.0183277
-0.0203752
-0.0214545
-0.0220632
-0.022448
-0.0226909
-0.0228616
-0.0230085
-0.0231537
-0.0233
-0.0234368
-0.0235431
-0.0235876
-0.0235264
-0.0232988
-0.022821
-0.0219783
-0.0206186
-0.0185527
-0.0155854
-0.0115284
-0.00631068
-7.69414e-05
0.00670112
0.0131704
0.0181896
0.0206745
0.0200739
0.0161128
0.00811598
-0.0223654
-0.0246701
-0.0258345
-0.0264444
-0.026804
-0.0270267
-0.0272054
-0.0274045
-0.027656
-0.0279706
-0.0283451
-0.0287667
-0.0292127
-0.0296478
-0.0300165
-0.0302326
-0.0301636
-0.0296155
-0.0283207
-0.025939
-0.0221235
-0.0165887
-0.00928687
-0.000597294
0.00851157
0.0164927
0.0216112
0.0226365
0.018712
0.00871769
-0.0270154
-0.0296411
-0.0308746
-0.0314291
-0.0316942
-0.0318285
-0.0319559
-0.03216
-0.0324842
-0.0329478
-0.0335565
-0.0343084
-0.0351943
-0.0361934
-0.0372637
-0.0383258
-0.0392396
-0.0397768
-0.0395895
-0.0381959
-0.0350582
-0.0296062
-0.021499
-0.0108862
0.00128533
0.0131187
0.0221065
0.0260036
0.0228813
0.0107531
-0.0324144
-0.0354468
-0.0367053
-0.0370986
-0.0371488
-0.03708
-0.0370558
-0.0371811
-0.0375101
-0.0380691
-0.0388725
-0.0399305
-0.0412495
-0.0428276
-0.0446421
-0.0466283
-0.0486484
-0.0504497
-0.0516158
-0.051527
-0.0494632
-0.0445234
-0.0359987
-0.0236708
-0.00826898
0.00814299
0.0223077
0.0306693
0.0295777
0.0154907
-0.0387842
-0.0423311
-0.0435113
-0.0435526
-0.0431876
-0.0427346
-0.0424046
-0.0423224
-0.0425479
-0.0431104
-0.0440294
-0.0453247
-0.0470179
-0.0491258
-0.0516464
-0.0545324
-0.0576519
-0.060736
-0.0633219
-0.0647056
-0.0638625
-0.0597064
-0.0511109
-0.0373889
-0.0188543
0.00255269
0.0230579
0.0376708
0.040328
0.025044
-0.0465101
-0.0506798
-0.0515543
-0.0509048
-0.0498033
-0.0486946
-0.0478383
-0.0473701
-0.0473449
-0.0477848
-0.0487068
-0.0501344
-0.0520983
-0.0546291
-0.0577398
-0.0613948
-0.0654642
-0.0696618
-0.0734755
-0.076103
-0.0763976
-0.072984
-0.0643924
-0.0494648
-0.0279752
-0.00143268
0.0262947
0.04895
0.0575258
0.0428111
-0.0563064
-0.0611154
-0.0611945
-0.0592633
-0.0569248
-0.054773
-0.0530973
-0.0520199
-0.0515691
-0.0517429
-0.0525425
-0.0539834
-0.0560954
-0.0589113
-0.0624463
-0.0666626
-0.0714181
-0.076398
-0.0810367
-0.0844454
-0.0853659
-0.0822081
-0.073229
-0.0568633
-0.0323294
-0.000496617
0.0351731
0.0676475
0.0848326
0.0740633
-0.0695931
-0.0746476
-0.0728831
-0.0686637
-0.0643414
-0.0606248
-0.0577708
-0.0558372
-0.0547872
-0.0545672
-0.0551415
-0.056501
-0.0586583
-0.0616319
-0.0654216
-0.0699664
-0.075091
-0.0804315
-0.0853536
-0.0888773
-0.0896341
-0.0858634
-0.0756174
-0.0570102
-0.0287601
0.00895007
0.0536159
0.0980502
0.127535
0.126463
-0.08938
-0.0929151
-0.0870543
-0.078895
-0.0715419
-0.0656144
-0.0611962
-0.0581873
-0.0564219
-0.0557517
-0.0560737
-0.0573304
-0.0594969
-0.0625584
-0.0664778
-0.0711505
-0.0763447
-0.0816257
-0.0862727
-0.0892052
-0.0889396
-0.0835206
-0.0708355
-0.0487026
-0.0154333
0.0294406
0.085164
0.144767
0.192212
0.209803
-0.122296
-0.118505
-0.103946
-0.0892926
-0.0775361
-0.0686847
-0.062384
-0.0582123
-0.0557685
-0.0547446
-0.0549278
-0.0561844
-0.0584312
-0.0616023
-0.0656081
-0.0702842
-0.0753269
-0.0802171
-0.0841373
-0.0858988
-0.0838807
-0.0759762
-0.0598095
-0.0328572
0.00714281
0.061635
0.130725
0.210662
0.284942
0.33677
-0.183465
-0.153964
-0.123013
-0.0983683
-0.0805933
-0.0682561
-0.0600786
-0.0549974
-0.0522123
-0.0511722
-0.0515173
-0.0530198
-0.0555302
-0.0589278
-0.0630688
-0.0677283
-0.0725325
-0.0768821
-0.0798694
-0.0802045
-0.0761371
-0.0655125
-0.0455695
-0.0133174
0.0343643
0.100428
0.187306
0.294273
0.409431
0.535208
-0.315614
-0.194328
-0.134941
-0.0978036
-0.0741763
-0.0596022
-0.0510671
-0.0464474
-0.0444141
-0.0441917
-0.0453242
-0.0475354
-0.0506476
-0.0545179
-0.0589783
-0.0637747
-0.0684984
-0.072512
-0.0748648
-0.0742208
-0.0686967
-0.0562392
-0.0338179
0.00204
0.0555276
0.131928
0.23822
0.382732
0.571472
0.861417
-0.641684
-0.229726
-0.102825
-0.0622032
-0.0419623
-0.0316047
-0.0276449
-0.0271762
-0.0285246
-0.0309643
-0.0341847
-0.0380346
-0.0424297
-0.0472968
-0.0525205
-0.0578865
-0.0630202
-0.0673194
-0.069885
-0.0694708
-0.0644871
-0.0523876
-0.0305039
0.0046806
0.057883
0.136227
0.252714
0.435686
0.741825
1.336
)
;

boundaryField
{
    movingWall
    {
        type            zeroGradient;
    }
    fixedWalls
    {
        type            zeroGradient;
    }
    frontAndBack
    {
        type            empty;
    }
}


// ************************************************************************* //
