/*--------------------------------*- C++ -*----------------------------------*\
  =========                 |
  \\      /  F ield         | OpenFOAM: The Open Source CFD Toolbox
   \\    /   O peration     | Website:  https://openfoam.org
    \\  /    A nd           | Version:  7
     \\/     M anipulation  |
\*---------------------------------------------------------------------------*/
FoamFile
{
    version     2.0;
    format      ascii;
    class       surfaceScalarField;
    location    "1.6";
    object      phi;
}
// * * * * * * * * * * * * * * * * * * * * * * * * * * * * * * * * * * * * * //

dimensions      [0 3 -1 0 0 0 0];

internalField   nonuniform List<scalar> 
1740
(
2.95096e-07
-2.95105e-07
-3.17083e-07
6.12179e-07
-1.93204e-06
1.61496e-06
-4.34028e-06
2.40824e-06
-7.27841e-06
2.93813e-06
-1.05113e-05
3.23286e-06
-1.38518e-05
3.34055e-06
-1.71583e-05
3.30647e-06
-2.03232e-05
3.16492e-06
-2.32616e-05
2.93838e-06
-2.59011e-05
2.6395e-06
-2.8175e-05
2.27388e-06
-3.0018e-05
1.84304e-06
-3.13653e-05
1.34725e-06
-3.21534e-05
7.88115e-07
-3.23242e-05
1.70825e-07
-3.18303e-05
-4.93957e-07
-3.06419e-05
-1.18834e-06
-2.87556e-05
-1.88627e-06
-2.62023e-05
-2.55334e-06
-2.30548e-05
-3.14753e-06
-1.94335e-05
-3.62126e-06
-1.55089e-05
-3.92461e-06
-1.14993e-05
-4.00959e-06
-7.66443e-06
-3.83491e-06
-4.29259e-06
-3.37185e-06
-1.67878e-06
-2.61381e-06
-7.95706e-08
-1.59921e-06
4.03248e-07
-4.82816e-07
4.03252e-07
-6.04046e-07
3.08941e-07
-3.21518e-06
3.22332e-06
-7.86811e-06
6.26789e-06
-1.41687e-05
8.70883e-06
-2.16296e-05
1.0399e-05
-2.97728e-05
1.1376e-05
-3.81804e-05
1.17482e-05
-4.65082e-05
1.16343e-05
-5.44775e-05
1.11343e-05
-6.18596e-05
1.03204e-05
-6.84583e-05
9.23823e-06
-7.40974e-05
7.91298e-06
-7.86119e-05
6.35752e-06
-8.18454e-05
4.58069e-06
-8.36525e-05
2.5953e-06
-8.39071e-05
4.25349e-07
-8.25133e-05
-1.88776e-06
-7.9421e-05
-4.2806e-06
-7.46435e-05
-6.66376e-06
-6.82744e-05
-8.92249e-06
-6.05027e-05
-1.09192e-05
-5.16234e-05
-1.25005e-05
-4.20395e-05
-1.35086e-05
-3.22532e-05
-1.37958e-05
-2.28446e-05
-1.32435e-05
-1.44319e-05
-1.17846e-05
-7.60951e-06
-9.43622e-06
-2.85706e-06
-6.35165e-06
-4.37442e-07
-2.90243e-06
-3.41914e-08
-1.65636e-06
1.96531e-06
-6.44351e-06
8.01047e-06
-1.39655e-05
1.37899e-05
-2.36525e-05
1.83958e-05
-3.4858e-05
2.16045e-05
-4.6952e-05
2.34701e-05
-5.93711e-05
2.41673e-05
-7.16358e-05
2.38989e-05
-8.3346e-05
2.28445e-05
-9.41659e-05
2.11402e-05
-0.000103805
1.88777e-05
-0.000112005
1.61125e-05
-0.000118525
1.28779e-05
-0.000123144
9.2e-06
-0.000125661
5.11202e-06
-0.000125905
6.69218e-07
-0.000123751
-4.04207e-06
-0.000119141
-8.89041e-06
-0.000112107
-1.36976e-05
-0.000102793
-1.82368e-05
-9.14735e-05
-2.22385e-05
-7.85687e-05
-2.54054e-05
-6.46427e-05
-2.74346e-05
-5.03896e-05
-2.80489e-05
-3.65994e-05
-2.70337e-05
-2.41015e-05
-2.42825e-05
-1.36846e-05
-1.98531e-05
-5.99659e-06
-1.40397e-05
-1.42121e-06
-7.47781e-06
-1.45541e-06
-2.5954e-06
4.56071e-06
-9.38569e-06
1.48008e-05
-1.95354e-05
2.39396e-05
-3.22236e-05
3.1084e-05
-4.66433e-05
3.60242e-05
-6.20432e-05
3.88699e-05
-7.77572e-05
3.98813e-05
-9.32146e-05
3.93564e-05
-0.000107933
3.75632e-05
-0.000121503
3.47102e-05
-0.000133568
3.09423e-05
-0.000143807
2.63519e-05
-0.000151928
2.09985e-05
-0.000157658
1.49303e-05
-0.000160754
8.2075e-06
-0.000161008
9.23667e-07
-0.000158271
-6.77869e-06
-0.000152475
-1.46864e-05
-0.00014366
-2.25135e-05
-0.000131999
-2.98972e-05
-0.000117829
-3.64085e-05
-0.000101659
-4.15758e-05
-8.41717e-05
-4.49217e-05
-6.6207e-05
-4.60136e-05
-4.87163e-05
-4.45243e-05
-3.26978e-05
-4.0301e-05
-1.91086e-05
-3.34422e-05
-8.76882e-06
-2.43795e-05
-2.27548e-06
-1.39712e-05
-3.7309e-06
-3.37593e-06
7.93664e-06
-1.19317e-05
2.33566e-05
-2.44287e-05
3.64366e-05
-3.9783e-05
4.64382e-05
-5.70186e-05
5.32598e-05
-7.52707e-05
5.7122e-05
-9.37908e-05
5.84014e-05
-0.000111943
5.75083e-05
-0.000129189
5.48094e-05
-0.00014507
5.05918e-05
-0.000159186
4.50575e-05
-0.000171172
3.83384e-05
-0.000180695
3.05212e-05
-0.000187442
2.16774e-05
-0.000191129
1.1895e-05
-0.000191514
1.30825e-06
-0.000188414
-9.87913e-06
-0.000181736
-2.13642e-05
-0.00017151
-3.27392e-05
-0.000157922
-4.34856e-05
-0.000141341
-5.29892e-05
-0.000122344
-6.05731e-05
-0.000101713
-6.55528e-05
-8.04168e-05
-6.73094e-05
-5.95629e-05
-6.53782e-05
-4.03199e-05
-5.9544e-05
-2.38261e-05
-4.9936e-05
-1.10935e-05
-3.71122e-05
-2.93847e-06
-2.21262e-05
-6.66937e-06
-4.02184e-06
1.19585e-05
-1.4117e-05
3.34518e-05
-2.87042e-05
5.10238e-05
-4.6449e-05
6.4183e-05
-6.62064e-05
7.30172e-05
-8.70007e-05
7.79163e-05
-0.00010801
7.94107e-05
-0.000128548
7.80463e-05
-0.00014804
7.43009e-05
-0.000165994
6.85466e-05
-0.000181982
6.10448e-05
-0.000195609
5.19659e-05
-0.000206509
4.14209e-05
-0.000214332
2.95005e-05
-0.000218752
1.63152e-05
-0.00021948
2.03627e-06
-0.000216286
-1.30731e-05
-0.000209033
-2.86173e-05
-0.000197716
-4.40569e-05
-0.000182502
-5.86996e-05
-0.000163773
-7.17172e-05
-0.000142156
-8.21908e-05
-0.000118524
-8.91846e-05
-9.39841e-05
-9.18492e-05
-6.98188e-05
-8.95436e-05
-4.74002e-05
-8.19626e-05
-2.80823e-05
-6.92539e-05
-1.30933e-05
-5.21011e-05
-3.45865e-06
-3.17609e-05
-1.0128e-05
-4.57329e-06
1.65318e-05
-1.60337e-05
4.49122e-05
-3.25126e-05
6.75028e-05
-5.24463e-05
8.41166e-05
-7.45264e-05
9.50974e-05
-9.76695e-05
0.000101059
-0.000120986
0.000102728
-0.00014375
0.00010081
-0.000165359
9.59104e-05
-0.000185307
8.84941e-05
-0.000203144
7.88827e-05
-0.00021846
6.72811e-05
-0.000230856
5.38177e-05
-0.000239948
3.85923e-05
-0.00024536
2.1727e-05
-0.000246742
3.41826e-06
-0.000243795
-1.60198e-05
-0.00023631
-3.6103e-05
-0.000224212
-5.61549e-05
-0.00020762
-7.52915e-05
-0.000186898
-9.24385e-05
-0.000162703
-0.000106386
-0.000136001
-0.000115887
-0.000108056
-0.000119795
-8.03666e-05
-0.000117233
-5.45639e-05
-0.000107765
-3.22741e-05
-9.15436e-05
-1.49795e-05
-6.93958e-05
-3.91029e-06
-4.283e-05
-1.40383e-05
-5.06993e-06
2.16017e-05
-1.77871e-05
5.76294e-05
-3.60337e-05
8.57493e-05
-5.8035e-05
0.000106118
-8.23275e-05
0.00011939
-0.000107724
0.000126456
-0.000133273
0.000128277
-0.000158215
0.000125751
-0.000181933
0.000119629
-0.000203915
0.000110475
-0.000223704
9.86721e-05
-0.000240876
8.44532e-05
-0.000255011
6.79531e-05
-0.000265684
4.92651e-05
-0.000272462
2.85044e-05
-0.000274917
5.87311e-06
-0.000272654
-1.82822e-05
-0.000265356
-4.34015e-05
-0.000252838
-6.86728e-05
-0.000235124
-9.30053e-05
-0.000212521
-0.000115041
-0.000185689
-0.000133218
-0.000155682
-0.000145894
-0.000123946
-0.000151531
-9.22532e-05
-0.000148926
-6.25734e-05
-0.000137445
-3.68896e-05
-0.000117227
-1.70032e-05
-8.92822e-05
-4.37133e-06
-5.5462e-05
-1.84096e-05
-5.54539e-06
2.71471e-05
-1.94754e-05
7.15593e-05
-3.94408e-05
0.000105715
-6.34673e-05
0.000130144
-8.99415e-05
0.000145864
-0.000117577
0.000154091
-0.000145365
0.000156065
-0.000172523
0.000152908
-0.000198429
0.000145535
-0.000222574
0.00013462
-0.000244507
0.000120606
-0.000263802
0.000103747
-0.000280019
8.417e-05
-0.000292693
6.19399e-05
-0.000301328
3.71389e-05
-0.000305399
9.94427e-06
-0.000304387
-1.92942e-05
-0.000297822
-4.99669e-05
-0.000285356
-8.11386e-05
-0.000266858
-0.000111503
-0.000242517
-0.000139382
-0.000212951
-0.000162784
-0.000179282
-0.000179562
-0.000143163
-0.000187651
-0.000106708
-0.000185381
-7.23329e-05
-0.00017182
-4.25034e-05
-0.000147057
-1.94505e-05
-0.000112335
-4.92263e-06
-6.99898e-05
-2.33323e-05
-6.02657e-06
3.31737e-05
-2.11821e-05
8.67148e-05
-4.28863e-05
0.000127419
-6.89654e-05
0.000156224
-9.76575e-05
0.000174556
-0.00012758
0.000184014
-0.000157675
0.00018616
-0.000187142
0.000182376
-0.00021537
0.000173763
-0.000241865
0.000161115
-0.000266197
0.000144938
-0.000287948
0.000125497
-0.00030667
0.000102892
-0.000321865
7.71351e-05
-0.000332966
4.82392e-05
-0.000339337
1.63162e-05
-0.000340305
-1.83264e-05
-0.000335199
-5.50734e-05
-0.000323441
-9.28967e-05
-0.000304662
-0.000130282
-0.000278848
-0.000165196
-0.000246495
-0.000195137
-0.000208749
-0.000217308
-0.000167473
-0.000228926
-0.000125202
-0.000227652
-8.49374e-05
-0.000212084
-4.98112e-05
-0.000182183
-2.26614e-05
-0.000139485
-5.65607e-06
-8.69952e-05
-2.89883e-05
-6.53479e-06
3.97084e-05
-2.29762e-05
0.000103156
-4.64972e-05
0.00015094
-7.47144e-05
0.000184441
-0.000105712
0.000205554
-0.000138013
0.000216315
-0.000170516
0.000218663
-0.000202416
0.000214276
-0.000233123
0.00020447
-0.00026218
0.000190172
-0.000289192
0.00017195
-0.000313769
0.000150075
-0.000335474
0.000124597
-0.000353785
9.54462e-05
-0.00036807
6.2524e-05
-0.000377576
2.58215e-05
-0.000381444
-1.44578e-05
-0.000378753
-5.77646e-05
-0.000368617
-0.000103033
-0.000350323
-0.000148576
-0.00032353
-0.00019199
-0.00028849
-0.000230176
-0.00024628
-0.000259519
-0.000198946
-0.000276259
-0.00014951
-0.000277088
-0.000101739
-0.000259855
-5.96833e-05
-0.000224239
-2.70629e-05
-0.000172105
-6.6862e-06
-0.000107372
-3.56745e-05
-7.08731e-06
4.67958e-05
-2.49149e-05
0.000120984
-5.0379e-05
0.000176404
-8.08644e-05
0.000214926
-0.000114291
0.00023898
-0.000149083
0.000251107
-0.000184104
0.000253684
-0.000218558
0.00024873
-0.000251892
0.000237804
-0.000283707
0.000221986
-0.000313667
0.000201911
-0.000341437
0.000177844
-0.000366614
0.000149774
-0.000388676
0.000117509
-0.000406944
8.07918e-05
-0.000420547
3.94249e-05
-0.000428432
-6.57299e-06
-0.000429372
-5.6825e-05
-0.000422089
-0.000110316
-0.000405403
-0.000165262
-0.000378478
-0.000218914
-0.000341147
-0.000267508
-0.000294251
-0.000306414
-0.000239935
-0.000330576
-0.000181741
-0.000335282
-0.000124397
-0.000317199
-7.32156e-05
-0.00027542
-3.32029e-05
-0.000212118
-8.16242e-06
-0.000132412
-4.3837e-05
-7.69955e-06
5.44953e-05
-2.70493e-05
0.000140334
-5.46233e-05
0.000203978
-8.75402e-05
0.000247843
-0.000123535
0.000274975
-0.000160932
0.000288505
-0.000198563
0.000291314
-0.000235653
0.000285821
-0.000271713
0.000273864
-0.00030642
0.000256694
-0.000339532
0.000235023
-0.000370797
0.000209109
-0.000399882
0.000178859
-0.000426304
0.000143931
-0.000449367
0.000103854
-0.000468105
5.81633e-05
-0.000481264
6.58595e-06
-0.000487289
-5.08004e-05
-0.000484426
-0.000113178
-0.000470888
-0.0001788
-0.000445152
-0.00024465
-0.000406386
-0.000306275
-0.00035495
-0.000357849
-0.000292894
-0.000392632
-0.000224242
-0.000403935
-0.000154863
-0.000386578
-9.17521e-05
-0.000338531
-4.17745e-05
-0.000262096
-1.02792e-05
-0.000163908
-5.41162e-05
-8.38779e-06
6.28831e-05
-2.94317e-05
0.000161377
-5.93199e-05
0.000233866
-9.48552e-05
0.000283378
-0.00013356
0.00031368
-0.00017365
0.000328594
-0.000213931
0.000331595
-0.000253668
0.000325558
-0.000292452
0.000312648
-0.000330071
0.000294313
-0.000366402
0.000271354
-0.000401319
0.000244026
-0.000434603
0.000212143
-0.000465856
0.000175184
-0.000494415
0.000132413
-0.000519268
8.30166e-05
-0.000538974
2.62921e-05
-0.000551668
-3.81066e-05
-0.000555053
-0.000109793
-0.000546615
-0.000187239
-0.000523936
-0.000267329
-0.000485227
-0.000344983
-0.000430026
-0.00041305
-0.000359957
-0.000462701
-0.000279332
-0.00048456
-0.000195252
-0.000470658
-0.000116853
-0.00041693
-5.36234e-05
-0.000325325
-1.32832e-05
-0.000204248
-6.73994e-05
-9.1727e-06
7.20558e-05
-3.21258e-05
0.000184331
-6.45721e-05
0.000266313
-0.00010293
0.000321737
-0.000144473
0.000355223
-0.000187293
0.000371414
-0.000230178
0.00037448
-0.000272451
0.000367831
-0.000313806
0.000354003
-0.000354167
0.000334673
-0.000393566
0.000310754
-0.00043204
0.000282501
-0.000469532
0.000249634
-0.000505788
0.000211439
-0.000540245
0.00016687
-0.00057191
0.000114682
-0.00059924
5.36217e-05
-0.000620072
-1.72746e-05
-0.000631587
-9.82778e-05
-0.000630471
-0.000188354
-0.000613242
-0.000284558
-0.000576856
-0.00038137
-0.000519597
-0.000470309
-0.000442172
-0.000540127
-0.000348753
-0.000577979
-0.000247534
-0.000571876
-0.000150175
-0.000514289
-6.97265e-05
-0.000405774
-1.74765e-05
-0.000256498
-8.48759e-05
-1.00842e-05
8.214e-05
-3.52195e-05
0.000209466
-7.05168e-05
0.00030161
-0.000111917
0.000363136
-0.000156392
0.000399698
-0.0002019
0.000416922
-0.000247217
0.000419798
-0.000291741
0.000412354
-0.000335293
0.000397555
-0.000377957
0.000377338
-0.000419949
0.000352746
-0.000461504
0.000324055
-0.00050277
0.000290901
-0.000543698
0.000252367
-0.000583901
0.000207073
-0.0006225
0.000153281
-0.000657954
8.90753e-05
-0.000687911
1.26831e-05
-0.000709126
-7.70633e-05
-0.000717518
-0.000179962
-0.000708472
-0.000293605
-0.000677456
-0.000412386
-0.000621061
-0.000526703
-0.000538419
-0.00062277
-0.000432816
-0.000683582
-0.000312999
-0.000691693
-0.000193237
-0.000634052
-9.11394e-05
-0.000507871
-2.32197e-05
-0.000324418
-0.000108096
-1.11686e-05
9.33086e-05
-3.88437e-05
0.000237141
-7.73502e-05
0.000340116
-0.000122022
0.000407809
-0.000169472
0.000447148
-0.000217505
0.000464956
-0.000264903
0.000467195
-0.000311158
0.000458609
-0.000356238
0.000442635
-0.000400409
0.000421509
-0.000444085
0.000396422
-0.000487722
0.000367692
-0.000531708
0.000334887
-0.000576246
0.000296905
-0.000621202
0.000252029
-0.00066592
0.000197999
-0.000709008
0.000132163
-0.00074811
5.17859e-05
-0.000779756
-4.54172e-05
-0.000799301
-0.000160417
-0.000801108
-0.000291798
-0.000779104
-0.00043439
-0.000727831
-0.000577975
-0.000644113
-0.000706488
-0.000529269
-0.000798426
-0.000391464
-0.000829498
-0.000247028
-0.000778488
-0.000118898
-0.000636001
-3.09373e-05
-0.000412378
-0.000139033
-1.24993e-05
0.000105808
-4.3198e-05
0.00026784
-8.53617e-05
0.00038228
-0.000133543
0.00045599
-0.000183921
0.000497526
-0.000234148
0.000515183
-0.00028303
0.000516078
-0.000330183
0.000505761
-0.000375747
0.000488199
-0.000420174
0.000465936
-0.000464086
0.000440334
-0.000508161
0.000411767
-0.000553036
0.000379763
-0.000599197
0.000343066
-0.000646821
0.000299653
-0.000695584
0.000246762
-0.000744414
0.000180993
-0.000791221
9.85925e-05
-0.000832605
-4.03297e-06
-0.000863772
-0.00012925
-0.000878421
-0.000277149
-0.000869167
-0.000443645
-0.000828408
-0.000618733
-0.00075002
-0.000784876
-0.000632038
-0.000916408
-0.000480228
-0.000981307
-0.000311414
-0.000947302
-0.000153846
-0.000793569
-4.11236e-05
-0.000525101
-0.000180156
-1.41954e-05
0.000120003
-4.85913e-05
0.000302236
-9.49798e-05
0.000428669
-0.000146897
0.000507907
-0.000200015
0.000550643
-0.00025185
0.000567019
-0.000301283
0.00056551
-0.000348098
0.000552576
-0.000392629
0.00053273
-0.000435527
0.000508834
-0.000477607
0.000482413
-0.000519751
0.000453911
-0.000562831
0.000422843
-0.000607609
0.000387844
-0.000654606
0.000346651
-0.000703919
0.000296074
-0.000754969
0.000232044
-0.000806208
0.000149831
-0.000854788
4.45473e-05
-0.000896223
-8.78147e-05
-0.000924261
-0.000249111
-0.000930784
-0.000437122
-0.000906371
-0.000643146
-0.000841669
-0.000849579
-0.000730179
-0.0010279
-0.000572905
-0.00113858
-0.000384288
-0.00113592
-0.000196328
-0.000981528
-5.43385e-05
-0.000667091
-0.000234495
-1.64546e-05
0.000136458
-5.55054e-05
0.000341286
-0.000106835
0.000479998
-0.000162653
0.000563725
-0.000218076
0.000606066
-0.000270552
0.000619495
-0.000319131
0.00061409
-0.000363841
0.000597285
-0.000405254
0.000574143
-0.000444224
0.000547805
-0.000481745
0.000519934
-0.000518871
0.000491036
-0.000556661
0.000460633
-0.000596121
0.000427304
-0.000638109
0.000388638
-0.000683183
0.000341149
-0.0007314
0.00028026
-0.000782026
0.000200458
-0.000833194
9.57148e-05
-0.000881359
-3.96492e-05
-0.000921214
-0.000209257
-0.000944829
-0.000413507
-0.000941827
-0.000646147
-0.000900002
-0.000891404
-0.000807607
-0.00112029
-0.000658466
-0.00128772
-0.00046055
-0.00133384
-0.00024569
-0.00119639
-7.11791e-05
-0.000841603
-0.000305674
-1.96148e-05
0.000156073
-6.4701e-05
0.000386373
-0.000121843
0.000537141
-0.00018155
0.000623432
-0.000238402
0.000662918
-0.00028995
0.000671043
-0.00033559
0.000659729
-0.000375721
0.000637416
-0.000411227
0.000609649
-0.000443192
0.000579771
-0.000472777
0.000549519
-0.000501168
0.000519427
-0.00052956
0.000489025
-0.000559142
0.000456886
-0.000591053
0.000420549
-0.000626307
0.000376402
-0.000665649
0.000319603
-0.000709342
0.00024415
-0.00075687
0.000143243
-0.000806174
9.65502e-06
-0.000853843
-0.000161588
-0.000893251
-0.000374099
-0.000914473
-0.000624926
-0.000903673
-0.000902203
-0.000844207
-0.00117976
-0.000721075
-0.00141085
-0.00053118
-0.00152373
-0.000299581
-0.00142799
-9.22091e-05
-0.00104897
-0.000397883
-2.42741e-05
0.000180347
-7.73893e-05
0.000439488
-0.000141307
0.000601058
-0.000204443
0.000686568
-0.000261045
0.00071952
-0.000309122
0.000719121
-0.000348722
0.000699328
-0.000380826
0.00066952
-0.000406751
0.000635574
-0.000427872
0.000600892
-0.000445527
0.000567174
-0.00046101
0.00053491
-0.0004756
0.000503614
-0.000490592
0.000471879
-0.000507329
0.000437287
-0.000527199
0.000396272
-0.000551593
0.000343996
-0.000581787
0.000274345
-0.000618676
0.000180132
-0.000662605
5.35837e-05
-0.000711872
-0.000112321
-0.000762838
-0.000323133
-0.000807611
-0.000580152
-0.00083278
-0.000877034
-0.000818582
-0.00119396
-0.000741263
-0.00148817
-0.00058289
-0.0016821
-0.000353144
-0.00165773
-0.00011782
-0.0012843
-0.000515703
-3.15242e-05
0.000211871
-9.54995e-05
0.000503463
-0.000166967
0.000672526
-0.000232043
0.000751645
-0.000285246
0.000772722
-0.000325703
0.000759578
-0.000354613
0.000728238
-0.000373859
0.000688767
-0.000385381
0.000647095
-0.00039094
0.000606451
-0.000392091
0.000568326
-0.000390233
0.000533052
-0.000386686
0.000500067
-0.000382781
0.000467974
-0.000379961
0.000434466
-0.000379857
0.000396168
-0.00038436
0.0003485
-0.000395618
0.000285602
-0.000415929
0.000200443
-0.000447502
8.51564e-05
-0.000491558
-6.82647e-05
-0.000547626
-0.000267065
-0.000611515
-0.000516263
-0.000672777
-0.000815773
-0.00071175
-0.00115498
-0.000698412
-0.00150151
-0.000598725
-0.00178179
-0.000398287
-0.00185817
-0.000147933
-0.00153465
-0.000663636
-4.33911e-05
0.000255262
-0.000122017
0.000582089
-0.000200794
0.000751303
-0.000264063
0.000814913
-0.000308009
0.000816668
-0.000334038
0.000785608
-0.000345246
0.000739446
-0.000344855
0.000688376
-0.000335661
0.000637901
-0.000319931
0.000590721
-0.000299481
0.000547876
-0.000275805
0.000509376
-0.000250221
0.000474483
-0.000224019
0.000441772
-0.000198619
0.000409065
-0.000175732
0.000373281
-0.00015752
0.000330289
-0.000146717
0.000274799
-0.000146656
0.000200382
-0.000161149
9.96488e-05
-0.000194012
-3.54009e-05
-0.000248161
-0.000212916
-0.000324032
-0.000440393
-0.000416499
-0.000723306
-0.000510055
-0.00106143
-0.000573483
-0.00143808
-0.00055929
-0.00179598
-0.000423008
-0.00199445
-0.000181249
-0.00177641
-0.000844886
-6.36123e-05
0.000318874
-0.000161116
0.000679592
-0.000243692
0.00083388
-0.000296574
0.000867795
-0.000320502
0.000840596
-0.000320997
0.000786103
-0.000304049
0.000722497
-0.000274695
0.000659023
-0.000236777
0.000599983
-0.000193101
0.000547044
-0.0001457
0.000500475
-9.60874e-05
0.000459763
-4.54762e-05
0.000423872
5.0067e-06
0.000391289
5.41138e-05
0.000359958
0.000100246
0.000327149
0.000141234
0.000289301
0.000174121
0.000241912
0.000195005
0.000179498
0.000198997
9.5657e-05
0.000180362
-1.67654e-05
0.00013331
-0.000165864
5.28075e-05
-0.00035989
-6.24857e-05
-0.000608012
-0.000205232
-0.000918683
-0.000350155
-0.00129316
-0.000443211
-0.00170293
-0.000410156
-0.00202751
-0.000213443
-0.00197312
-0.00105833
-9.86294e-05
0.000417504
-0.000216635
0.000797597
-0.000290391
0.000907636
-0.000314318
0.000891722
-0.000299002
0.000825279
-0.000256546
0.000743647
-0.000196765
0.000662717
-0.000126683
0.000588941
-5.10079e-05
0.000524308
2.72098e-05
0.000468826
0.000106033
0.000421652
0.000184221
0.000381575
0.000260915
0.000347178
0.00033537
0.000316834
0.000406705
0.000288623
0.000473654
0.000260199
0.0005343
0.000228655
0.000585805
0.000190407
0.000624171
0.000141132
0.000644056
7.57722e-05
0.000638536
-1.12455e-05
0.000600096
-0.000127424
0.000519946
-0.00027974
0.00039039
-0.000478456
0.000209042
-0.000737336
-1.0823e-05
-0.00107329
-0.000224649
-0.0014891
-0.000334314
-0.00191784
-0.000234011
-0.00207343
-0.00129234
-0.000157158
0.000574662
-0.000282018
0.000922458
-0.000311485
0.000937103
-0.000269187
0.000849423
-0.000183255
0.000739347
-7.39976e-05
0.00063439
4.54947e-05
0.000543225
0.000167412
0.000467023
0.00028739
0.00040433
0.000403188
0.000353028
0.000513797
0.000311043
0.000618876
0.000276497
0.000718377
0.000247676
0.000812271
0.00022294
0.0009003
0.000200594
0.000981736
0.000178764
0.00105512
0.000155267
0.00111801
0.00012752
0.00116667
9.24758e-05
0.00119579
4.66476e-05
0.00119829
-1.37412e-05
0.00116555
-9.46876e-05
0.00108674
-0.000200932
0.000949604
-0.000341318
0.000742126
-0.000529858
0.000459953
-0.000791121
0.000130315
-0.00115946
-0.00015408
-0.00163345
-0.000222664
-0.00200484
-0.001515
-0.000238082
0.000812744
-0.000293342
0.000977718
-0.000196071
0.000839832
-2.62427e-05
0.000679595
0.000168101
0.000545003
0.000363895
0.000438596
0.000550523
0.000356597
0.000723664
0.000293882
0.000882284
0.000245711
0.00102692
0.000208387
0.00115879
0.000179178
0.00127926
0.000156032
0.0013896
0.000137334
0.00149081
0.000121729
0.00158343
0.000107971
0.00166739
9.48043e-05
0.00174179
8.08671e-05
0.0018047
6.46174e-05
0.00185285
4.4317e-05
0.00188143
1.80676e-05
0.00188418
-1.64901e-05
0.00185191
-6.24105e-05
0.00177359
-0.000122612
0.00163487
-0.000202604
0.0014175
-0.000312488
0.00110065
-0.000474269
0.000676096
-0.00073491
0.000206067
-0.00116342
-0.000103159
-0.00169562
-0.00161816
-0.000187075
0.000999818
3.55783e-05
0.000755065
0.000395883
0.000479527
0.000737495
0.000337983
0.00103749
0.000245005
0.00129567
0.000180424
0.00151616
0.000136104
0.00170447
0.000105569
0.00186611
8.4066e-05
0.00200595
6.85563e-05
0.00212799
5.71321e-05
0.00223549
4.85334e-05
0.00233095
4.18751e-05
0.00241619
3.64892e-05
0.00249234
3.18207e-05
0.00255979
2.73548e-05
0.00261809
2.2568e-05
0.0026658
1.68992e-05
0.00270035
9.77132e-06
0.00271758
8.43018e-07
0.00271312
-1.20367e-05
0.0026785
-2.77854e-05
0.0026045
-4.86138e-05
0.00247801
-7.61182e-05
0.00227976
-0.000114237
0.00197918
-0.000173683
0.00153066
-0.000286389
0.000911946
-0.00054471
0.000257178
-0.00104085
-0.00136098
0.000999818
0.00175488
0.00223441
0.00257239
0.0028174
0.00299782
0.00313393
0.0032395
0.00332356
0.00339212
0.00344925
0.00349778
0.00353966
0.00357615
0.00360797
0.00363532
0.00365789
0.00367479
0.00368456
0.00368541
0.00367337
0.00364558
0.00359697
0.00352085
0.00340661
0.00323293
0.00294654
0.00240183
0.00136098
)
;

boundaryField
{
    movingWall
    {
        type            calculated;
        value           uniform 0;
    }
    fixedWalls
    {
        type            calculated;
        value           uniform 0;
    }
    frontAndBack
    {
        type            empty;
        value           nonuniform 0();
    }
}


// ************************************************************************* //
