/*--------------------------------*- C++ -*----------------------------------*\
  =========                 |
  \\      /  F ield         | OpenFOAM: The Open Source CFD Toolbox
   \\    /   O peration     | Website:  https://openfoam.org
    \\  /    A nd           | Version:  7
     \\/     M anipulation  |
\*---------------------------------------------------------------------------*/
FoamFile
{
    version     2.0;
    format      ascii;
    class       volVectorField;
    location    "1.6";
    object      U;
}
// * * * * * * * * * * * * * * * * * * * * * * * * * * * * * * * * * * * * * //

dimensions      [0 1 -1 0 0 0 0];

internalField   nonuniform List<vector> 
900
(
(7.60044e-05 -7.53747e-05 0)
(6.28512e-05 9.00872e-06 0)
(-0.000265949 0.000117351 0)
(-0.000856901 0.00020068 0)
(-0.00163479 0.000253571 0)
(-0.00252881 0.000281231 0)
(-0.00347812 0.00029049 0)
(-0.00443576 0.000287018 0)
(-0.00536662 0.000274657 0)
(-0.00624376 0.000255637 0)
(-0.00704519 0.000230984 0)
(-0.00775136 0.000200934 0)
(-0.00834357 0.000165287 0)
(-0.00880324 0.000123727 0)
(-0.00911189 7.60796e-05 0)
(-0.00925192 2.25477e-05 0)
(-0.00920786 -3.61067e-05 0)
(-0.00896826 -9.83864e-05 0)
(-0.00852792 -0.000161934 0)
(-0.00789027 -0.000223511 0)
(-0.00706977 -0.000279051 0)
(-0.00609382 -0.000323849 0)
(-0.00500398 -0.000352843 0)
(-0.00385609 -0.000360978 0)
(-0.00271911 -0.000343546 0)
(-0.00167266 -0.000296575 0)
(-0.000801307 -0.000217747 0)
(-0.000181301 -0.000109681 0)
(0.000117795 9.17023e-06 0)
(8.90814e-05 8.77531e-05 0)
(-6.11718e-06 -6.49778e-05 0)
(-0.000392612 0.000392889 0)
(-0.00145556 0.000904906 0)
(-0.00305463 0.00131483 0)
(-0.00505293 0.00159409 0)
(-0.0073122 0.00175274 0)
(-0.00970255 0.00181264 0)
(-0.0121145 0.00179585 0)
(-0.01446 0.00171983 0)
(-0.0166675 0.0015965 0)
(-0.0186774 0.00143288 0)
(-0.0204371 0.00123238 0)
(-0.0218984 0.000996311 0)
(-0.0230153 0.000725284 0)
(-0.0237443 0.000420602 0)
(-0.0240461 8.54255e-05 0)
(-0.0238881 -0.000274235 0)
(-0.0232483 -0.000648538 0)
(-0.0221203 -0.00102346 0)
(-0.0205184 -0.00138063 0)
(-0.0184822 -0.00169777 0)
(-0.0160802 -0.00194979 0)
(-0.0134124 -0.00211056 0)
(-0.0106091 -0.00215518 0)
(-0.00782682 -0.00206278 0)
(-0.00524027 -0.00181997 0)
(-0.00302743 -0.00142633 0)
(-0.00134454 -0.000905282 0)
(-0.000308948 -0.000329138 0)
(1.7435e-05 0.000119183 0)
(-0.000117748 0.000263186 0)
(-0.000933386 0.00146174 0)
(-0.00273565 0.00266756 0)
(-0.00524699 0.00363833 0)
(-0.00827635 0.00431547 0)
(-0.0116463 0.00470988 0)
(-0.0151847 0.00486069 0)
(-0.0187417 0.0048128 0)
(-0.0221921 0.00460514 0)
(-0.0254323 0.00426654 0)
(-0.0283739 0.00381584 0)
(-0.0309394 0.00326394 0)
(-0.033058 0.0026169 0)
(-0.0346638 0.00187918 0)
(-0.0356958 0.00105679 0)
(-0.0361002 0.000160227 0)
(-0.0358334 -0.000793087 0)
(-0.0348679 -0.00177671 0)
(-0.0331985 -0.00275416 0)
(-0.0308487 -0.00367869 0)
(-0.0278774 -0.00449457 0)
(-0.0243832 -0.00513997 0)
(-0.0205072 -0.00555155 0)
(-0.0164306 -0.00567072 0)
(-0.0123684 -0.00545126 0)
(-0.00855697 -0.0048688 0)
(-0.00523293 -0.00393368 0)
(-0.00260013 -0.00270917 0)
(-0.000822371 -0.00134169 0)
(-8.30168e-05 -0.000150288 0)
(-0.000213612 0.000880673 0)
(-0.00142255 0.00313377 0)
(-0.00391051 0.00522026 0)
(-0.00724504 0.00687347 0)
(-0.0111728 0.00802464 0)
(-0.0154823 0.00869338 0)
(-0.0199711 0.00893979 0)
(-0.0244613 0.00883429 0)
(-0.0288034 0.0084401 0)
(-0.0328714 0.00780593 0)
(-0.0365569 0.00696516 0)
(-0.0397643 0.00593866 0)
(-0.0424066 0.00473939 0)
(-0.044403 0.00337775 0)
(-0.0456792 0.00186682 0)
(-0.0461699 0.000227304 0)
(-0.0458227 -0.0015081 0)
(-0.0446047 -0.00329149 0)
(-0.0425098 -0.00505758 0)
(-0.0395671 -0.00672361 0)
(-0.035848 -0.00819167 0)
(-0.0314725 -0.00935394 0)
(-0.0266117 -0.0101011 0)
(-0.021485 -0.0103336 0)
(-0.0163517 -0.00997546 0)
(-0.0114965 -0.00899053 0)
(-0.00720385 -0.00740171 0)
(-0.00372141 -0.00531369 0)
(-0.00127133 -0.00294271 0)
(-0.000166326 -0.00069351 0)
(-0.000288762 0.00174145 0)
(-0.0018368 0.00534126 0)
(-0.00493703 0.0084743 0)
(-0.00900694 0.0109012 0)
(-0.0137279 0.0125712 0)
(-0.0188541 0.0135275 0)
(-0.0241568 0.0138583 0)
(-0.0294374 0.0136635 0)
(-0.0345293 0.0130328 0)
(-0.039292 0.0120366 0)
(-0.0436039 0.0107242 0)
(-0.0473568 0.00912752 0)
(-0.0504519 0.00726756 0)
(-0.0527966 0.00516153 0)
(-0.0543053 0.00283066 0)
(-0.0549016 0.000307349 0)
(-0.054523 -0.00235841 0)
(-0.0531281 -0.00509401 0)
(-0.0507058 -0.00780099 0)
(-0.0472846 -0.0103548 0)
(-0.0429421 -0.0126083 0)
(-0.0378125 -0.0143997 0)
(-0.0320906 -0.0155655 0)
(-0.0260286 -0.0159583 0)
(-0.0199273 -0.0154668 0)
(-0.0141186 -0.0140402 0)
(-0.0089371 -0.0117117 0)
(-0.00467982 -0.00862341 0)
(-0.00163143 -0.00504908 0)
(-0.000223703 -0.00144655 0)
(-0.000347468 0.00280445 0)
(-0.00218482 0.00801866 0)
(-0.00582639 0.0123589 0)
(-0.0105547 0.0156458 0)
(-0.0159873 0.0178726 0)
(-0.0218434 0.0191223 0)
(-0.0278694 0.0195219 0)
(-0.0338498 0.0192061 0)
(-0.0396059 0.0182945 0)
(-0.0449877 0.0168807 0)
(-0.0498653 0.0150309 0)
(-0.0541224 0.0127883 0)
(-0.0576511 0.0101815 0)
(-0.060349 0.00723431 0)
(-0.0621192 0.00397545 0)
(-0.0628724 0.000448843 0)
(-0.0625326 -0.0032777 0)
(-0.061045 -0.00710519 0)
(-0.0583863 -0.0108987 0)
(-0.054577 -0.0144865 0)
(-0.0496934 -0.0176648 0)
(-0.0438778 -0.0202085 0)
(-0.0373447 -0.0218897 0)
(-0.0303796 -0.0225023 0)
(-0.0233284 -0.0218917 0)
(-0.0165783 -0.0199858 0)
(-0.0105245 -0.016825 0)
(-0.00552332 -0.0125862 0)
(-0.00192441 -0.00759702 0)
(-0.000261335 -0.00236501 0)
(-0.000395364 0.00403658 0)
(-0.00248494 0.0111073 0)
(-0.00661215 0.0168081 0)
(-0.0119404 0.0210399 0)
(-0.0180271 0.0238604 0)
(-0.0245568 0.0254095 0)
(-0.0312519 0.0258635 0)
(-0.0378822 0.0253995 0)
(-0.0442604 0.0241711 0)
(-0.0502307 0.022297 0)
(-0.0556587 0.0198607 0)
(-0.0604229 0.016916 0)
(-0.0644088 0.0134978 0)
(-0.0675048 0.00963405 0)
(-0.0696016 0.00535914 0)
(-0.0705944 0.00072628 0)
(-0.0703883 -0.00418031 0)
(-0.0689076 -0.00923532 0)
(-0.0661083 -0.0142651 0)
(-0.0619931 -0.0190457 0)
(-0.0566275 -0.0233077 0)
(-0.0501549 -0.026751 0)
(-0.0428065 -0.0290685 0)
(-0.0349032 -0.0299807 0)
(-0.0268453 -0.0292755 0)
(-0.0190897 -0.0268506 0)
(-0.0121093 -0.0227497 0)
(-0.00633497 -0.0171866 0)
(-0.00218687 -0.0105511 0)
(-0.000287785 -0.00341822 0)
(-0.000437345 0.00541638 0)
(-0.00275665 0.0145662 0)
(-0.00733427 0.0217747 0)
(-0.0132263 0.0270363 0)
(-0.0199336 0.0304902 0)
(-0.0271071 0.0323477 0)
(-0.0344464 0.0328469 0)
(-0.0417086 0.0322151 0)
(-0.0487001 0.0306444 0)
(-0.0552627 0.0282813 0)
(-0.0612607 0.0252263 0)
(-0.0665702 0.0215426 0)
(-0.0710719 0.0172686 0)
(-0.0746454 0.0124333 0)
(-0.0771678 0.00707194 0)
(-0.0785149 0.00124292 0)
(-0.0785669 -0.0049569 0)
(-0.0772184 -0.011378 0)
(-0.074393 -0.0178073 0)
(-0.0700631 -0.0239637 0)
(-0.0642706 -0.0295023 0)
(-0.0571496 -0.0340321 0)
(-0.0489432 -0.0371469 0)
(-0.0400103 -0.0384712 0)
(-0.0308174 -0.037715 0)
(-0.0219115 -0.0347312 0)
(-0.0138684 -0.0295627 0)
(-0.00721628 -0.0224686 0)
(-0.00245972 -0.0139206 0)
(-0.000310765 -0.00459688 0)
(-0.000477146 0.00693327 0)
(-0.00301712 0.0183738 0)
(-0.00803085 0.0272344 0)
(-0.0144729 0.0336121 0)
(-0.0217902 0.0377423 0)
(-0.0296006 0.0399225 0)
(-0.0375827 0.0404641 0)
(-0.0454824 0.0396533 0)
(-0.0531029 0.0377265 0)
(-0.0602868 0.0348599 0)
(-0.0669 0.0311716 0)
(-0.0728197 0.0267319 0)
(-0.0779238 0.021579 0)
(-0.0820844 0.0157374 0)
(-0.0851636 0.00923728 0)
(-0.0870145 0.00213503 0)
(-0.0874855 -0.00546654 0)
(-0.0864313 -0.0133988 0)
(-0.0837293 -0.021411 0)
(-0.0793045 -0.0291609 0)
(-0.0731576 -0.0362173 0)
(-0.0653973 -0.0420787 0)
(-0.0562683 -0.0462122 0)
(-0.0461674 -0.0481142 0)
(-0.0356403 -0.0473855 0)
(-0.0253505 -0.0438114 0)
(-0.0160117 -0.0374273 0)
(-0.00828527 -0.0285509 0)
(-0.00278721 -0.0177689 0)
(-0.000337149 -0.00591452 0)
(-0.000517514 0.00858536 0)
(-0.00328051 0.0225262 0)
(-0.00873499 0.0331837 0)
(-0.0157339 0.040766 0)
(-0.02367 0.0456188 0)
(-0.0321292 0.0481401 0)
(-0.0407699 0.0487272 0)
(-0.0493293 0.0477349 0)
(-0.0576106 0.0454497 0)
(-0.0654605 0.0420805 0)
(-0.0727512 0.0377627 0)
(-0.0793642 0.0325714 0)
(-0.0851785 0.0265399 0)
(-0.0900606 0.0196815 0)
(-0.0938583 0.0120124 0)
(-0.0963992 0.00357696 0)
(-0.0974941 -0.0055265 0)
(-0.0969461 -0.0151198 0)
(-0.0945701 -0.02492 0)
(-0.0902219 -0.0345232 0)
(-0.0838363 -0.0434009 0)
(-0.0754716 -0.050918 0)
(-0.0653546 -0.0563792 0)
(-0.0539132 -0.0591066 0)
(-0.0417834 -0.0585449 0)
(-0.029777 -0.0543747 0)
(-0.0187945 -0.0466098 0)
(-0.00968407 -0.0356434 0)
(-0.00322064 -0.022223 0)
(-0.000374033 -0.00740884 0)
(-0.000560481 0.0103776 0)
(-0.00355822 0.0270346 0)
(-0.00947423 0.0396373 0)
(-0.0170541 0.0485151 0)
(-0.0256339 0.0541385 0)
(-0.0347672 0.0570219 0)
(-0.0440934 0.0576622 0)
(-0.0533438 0.0564931 0)
(-0.0623248 0.0538581 0)
(-0.0708923 0.0500022 0)
(-0.0789293 0.0450784 0)
(-0.0863278 0.039164 0)
(-0.0929724 0.0322821 0)
(-0.0987285 0.0244262 0)
(-0.103432 0.0155878 0)
(-0.106886 0.00578536 0)
(-0.108858 -0.00490262 0)
(-0.109089 -0.0163037 0)
(-0.107313 -0.028115 0)
(-0.103289 -0.0398756 0)
(-0.0968536 -0.0509523 0)
(-0.0879772 -0.0605512 0)
(-0.076836 -0.067769 0)
(-0.0638691 -0.0716917 0)
(-0.0498069 -0.0715365 0)
(-0.0356451 -0.066819 0)
(-0.0225354 -0.0575015 0)
(-0.0115914 -0.0440681 0)
(-0.00382429 -0.0274885 0)
(-0.000430091 -0.00914635 0)
(-0.00060762 0.0123203 0)
(-0.00385963 0.0319222 0)
(-0.0102716 0.0466251 0)
(-0.0184704 0.056891 0)
(-0.0277306 0.0633326 0)
(-0.0375714 0.0665986 0)
(-0.0476144 0.067301 0)
(-0.0575877 0.0659646 0)
(-0.0673054 0.0629977 0)
(-0.076638 0.0586858 0)
(-0.0854862 0.0532004 0)
(-0.0937588 0.0466183 0)
(-0.101354 0.0389468 0)
(-0.108144 0.0301506 0)
(-0.113958 0.0201828 0)
(-0.118577 0.00901877 0)
(-0.121725 -0.00330415 0)
(-0.123073 -0.0166415 0)
(-0.122252 -0.0306927 0)
(-0.1189 -0.0449543 0)
(-0.112708 -0.0586877 0)
(-0.103509 -0.0709172 0)
(-0.0913782 -0.0804787 0)
(-0.0767248 -0.0861385 0)
(-0.0603629 -0.0867846 0)
(-0.0435044 -0.0816695 0)
(-0.0276319 -0.0706436 0)
(-0.0142357 -0.0542881 0)
(-0.00468174 -0.0338712 0)
(-0.000516944 -0.0112306 0)
(-0.000660316 0.0144285 0)
(-0.00419316 0.0372231 0)
(-0.0111474 0.0541895 0)
(-0.0200146 0.0659364 0)
(-0.0299993 0.07324 0)
(-0.0405837 0.0769041 0)
(-0.0513719 0.0776746 0)
(-0.0620918 0.0761811 0)
(-0.0725706 0.0729066 0)
(-0.0826999 0.0681822 0)
(-0.0924054 0.0621997 0)
(-0.101622 0.0550341 0)
(-0.110271 0.0466712 0)
(-0.118241 0.0370376 0)
(-0.125367 0.026033 0)
(-0.131415 0.0135684 0)
(-0.136068 -0.000387217 0)
(-0.138923 -0.0157487 0)
(-0.139498 -0.0322528 0)
(-0.137272 -0.0493818 0)
(-0.131747 -0.0663048 0)
(-0.122555 -0.0818488 0)
(-0.109592 -0.0945334 0)
(-0.0931738 -0.102702 0)
(-0.074158 -0.104772 0)
(-0.0539881 -0.0995783 0)
(-0.0345653 -0.0867484 0)
(-0.0179035 -0.0669385 0)
(-0.00590129 -0.0418046 0)
(-0.000650424 -0.013814 0)
(-0.000720083 0.0167213 0)
(-0.00456767 0.042981 0)
(-0.0121223 0.0623834 0)
(-0.021717 0.0757019 0)
(-0.0324745 0.0839019 0)
(-0.0438354 0.0879687 0)
(-0.0553864 0.0888039 0)
(-0.0668587 0.0871587 0)
(-0.0780981 0.083602 0)
(-0.0890244 0.0785174 0)
(-0.0995971 0.07212 0)
(-0.109787 0.0644829 0)
(-0.119551 0.0555664 0)
(-0.128806 0.0452498 0)
(-0.137408 0.0333644 0)
(-0.145122 0.0197332 0)
(-0.151602 0.00422404 0)
(-0.156375 -0.0131816 0)
(-0.158839 -0.0323036 0)
(-0.15829 -0.052657 0)
(-0.153994 -0.0733525 0)
(-0.145309 -0.0930226 0)
(-0.131863 -0.109822 0)
(-0.11377 -0.121555 0)
(-0.0918506 -0.125982 0)
(-0.0677561 -0.121296 0)
(-0.0438803 -0.106703 0)
(-0.0229402 -0.0828536 0)
(-0.00761949 -0.0518798 0)
(-0.000851738 -0.0171115 0)
(-0.000788967 0.0192231 0)
(-0.00499432 0.0492506 0)
(-0.0132211 0.0712706 0)
(-0.0236115 0.0862438 0)
(-0.0351909 0.095358 0)
(-0.0473519 0.0998122 0)
(-0.0596638 0.100691 0)
(-0.0718648 0.098886 0)
(-0.0838252 0.0950658 0)
(-0.0955003 0.0896747 0)
(-0.106892 0.0829558 0)
(-0.118017 0.0749814 0)
(-0.128879 0.0656848 0)
(-0.139442 0.0548911 0)
(-0.149597 0.0423487 0)
(-0.15913 0.0277689 0)
(-0.167686 0.0108814 0)
(-0.174739 -0.00848698 0)
(-0.179573 -0.0302997 0)
(-0.181296 -0.0541734 0)
(-0.178904 -0.079221 0)
(-0.171415 -0.103913 0)
(-0.158082 -0.126015 0)
(-0.138685 -0.14268 0)
(-0.113861 -0.150791 0)
(-0.0853737 -0.14759 0)
(-0.0561297 -0.131536 0)
(-0.029736 -0.103076 0)
(-0.0100026 -0.0648728 0)
(-0.00114888 -0.0214172 0)
(-0.000870122 0.0219651 0)
(-0.00548907 0.0561006 0)
(-0.0144772 0.0809273 0)
(-0.0257424 0.0976229 0)
(-0.0381904 0.107641 0)
(-0.0511593 0.112436 0)
(-0.0642003 0.113307 0)
(-0.0770631 0.11131 0)
(-0.0896488 0.107228 0)
(-0.101955 0.101573 0)
(-0.114033 0.0946246 0)
(-0.125954 0.0864571 0)
(-0.137781 0.0769775 0)
(-0.149538 0.0659532 0)
(-0.161171 0.0530391 0)
(-0.172513 0.0378133 0)
(-0.183227 0.0198311 0)
(-0.192767 -0.00128745 0)
(-0.200332 -0.0257236 0)
(-0.204864 -0.0532819 0)
(-0.205087 -0.0831692 0)
(-0.19964 -0.113768 0)
(-0.187307 -0.142478 0)
(-0.167375 -0.165726 0)
(-0.140086 -0.179294 0)
(-0.107109 -0.179083 0)
(-0.0717684 -0.162313 0)
(-0.0386944 -0.12883 0)
(-0.0132466 -0.0817614 0)
(-0.00157914 -0.0271202 0)
(-0.00096868 0.0249889 0)
(-0.00607626 0.0636191 0)
(-0.01594 0.0914451 0)
(-0.0281714 0.109904 0)
(-0.0415295 0.120773 0)
(-0.0552888 0.125815 0)
(-0.0689845 0.126582 0)
(-0.0823831 0.124322 0)
(-0.0954228 0.119944 0)
(-0.108149 0.114043 0)
(-0.120668 0.106937 0)
(-0.133111 0.0987087 0)
(-0.145607 0.0892438 0)
(-0.158251 0.0782523 0)
(-0.171064 0.0652913 0)
(-0.183947 0.049791 0)
(-0.196623 0.0311036 0)
(-0.20857 0.00859325 0)
(-0.218962 -0.0182138 0)
(-0.226631 -0.0494065 0)
(-0.230083 -0.084405 0)
(-0.227589 -0.121629 0)
(-0.217415 -0.158207 0)
(-0.198201 -0.189847 0)
(-0.169535 -0.211066 0)
(-0.132646 -0.215995 0)
(-0.0909835 -0.199938 0)
(-0.0501738 -0.161423 0)
(-0.0175759 -0.103721 0)
(-0.00219396 -0.0347235 0)
(-0.00109322 0.0283527 0)
(-0.0067941 0.0719235 0)
(-0.0176834 0.102938 0)
(-0.0309885 0.123154 0)
(-0.0452864 0.134756 0)
(-0.0597813 0.139881 0)
(-0.0739969 0.140385 0)
(-0.0877255 0.137732 0)
(-0.10095 0.132975 0)
(-0.113768 0.126797 0)
(-0.126342 0.119562 0)
(-0.138864 0.111367 0)
(-0.151532 0.102081 0)
(-0.164515 0.0913648 0)
(-0.177919 0.0786809 0)
(-0.191741 0.063309 0)
(-0.205799 0.044384 0)
(-0.219659 0.0209811 0)
(-0.232549 -0.00772544 0)
(-0.243301 -0.0422086 0)
(-0.250311 -0.0822293 0)
(-0.25158 -0.12642 0)
(-0.244884 -0.171825 0)
(-0.228129 -0.213575 0)
(-0.19997 -0.244894 0)
(-0.160736 -0.257787 0)
(-0.113448 -0.24482 0)
(-0.0643858 -0.20206 0)
(-0.0232384 -0.132083 0)
(-0.00306707 -0.0448637 0)
(-0.0012584 0.0321408 0)
(-0.00770344 0.081175 0)
(-0.0198194 0.115549 0)
(-0.0343237 0.137441 0)
(-0.0495682 0.14956 0)
(-0.0646857 0.154511 0)
(-0.0792011 0.154506 0)
(-0.0929472 0.151253 0)
(-0.105962 0.145963 0)
(-0.1184 0.139409 0)
(-0.130479 0.132003 0)
(-0.142449 0.123862 0)
(-0.154567 0.114848 0)
(-0.167075 0.104581 0)
(-0.180167 0.0924445 0)
(-0.193949 0.0775796 0)
(-0.208371 0.0589116 0)
(-0.223151 0.0352216 0)
(-0.237679 0.0053025 0)
(-0.250917 -0.0317714 0)
(-0.261329 -0.0762275 0)
(-0.266838 -0.127118 0)
(-0.264875 -0.181683 0)
(-0.252638 -0.234787 0)
(-0.227658 -0.278573 0)
(-0.188852 -0.30278 0)
(-0.138001 -0.29642 0)
(-0.0812274 -0.251504 0)
(-0.0304861 -0.168229 0)
(-0.00430661 -0.058333 0)
(-0.00149019 0.0364807 0)
(-0.00890304 0.0916008 0)
(-0.0225184 0.129462 0)
(-0.0383623 0.152828 0)
(-0.0545138 0.165107 0)
(-0.0700474 0.169494 0)
(-0.084518 0.16862 0)
(-0.0978244 0.164465 0)
(-0.110077 0.1584 0)
(-0.121495 0.151285 0)
(-0.132349 0.143578 0)
(-0.142938 0.135415 0)
(-0.153569 0.126657 0)
(-0.164542 0.116902 0)
(-0.176133 0.105474 0)
(-0.188559 0.0914076 0)
(-0.201927 0.0734522 0)
(-0.216162 0.0501268 0)
(-0.230913 0.0198604 0)
(-0.245425 -0.018742 0)
(-0.258451 -0.0664754 0)
(-0.268102 -0.123005 0)
(-0.271736 -0.186112 0)
(-0.266046 -0.250873 0)
(-0.247432 -0.308874 0)
(-0.212993 -0.347849 0)
(-0.162323 -0.352725 0)
(-0.100033 -0.309575 0)
(-0.0395295 -0.213375 0)
(-0.00607115 -0.0760962 0)
(-0.00183644 0.0415731 0)
(-0.0105567 0.103527 0)
(-0.0260397 0.144904 0)
(-0.0433609 0.169346 0)
(-0.0602853 0.181226 0)
(-0.0758739 0.184484 0)
(-0.0897671 0.182246 0)
(-0.101976 0.176778 0)
(-0.112711 0.169602 0)
(-0.12227 0.16165 0)
(-0.130979 0.153414 0)
(-0.139177 0.145045 0)
(-0.147206 0.136408 0)
(-0.15541 0.12709 0)
(-0.164127 0.116389 0)
(-0.173675 0.103276 0)
(-0.18432 0.0863838 0)
(-0.196226 0.0640433 0)
(-0.209374 0.034395 0)
(-0.223425 -0.00438077 0)
(-0.237632 -0.0537096 0)
(-0.250583 -0.113967 0)
(-0.259943 -0.183815 0)
(-0.262302 -0.259151 0)
(-0.253201 -0.331828 0)
(-0.227818 -0.388394 0)
(-0.182721 -0.409811 0)
(-0.119277 -0.374512 0)
(-0.0504491 -0.268194 0)
(-0.008589 -0.0992946 0)
(-0.00238913 0.0477456 0)
(-0.0129428 0.117426 0)
(-0.0307761 0.162148 0)
(-0.0496572 0.186952 0)
(-0.0670298 0.197582 0)
(-0.0820479 0.198927 0)
(-0.0945403 0.194671 0)
(-0.104704 0.187367 0)
(-0.112899 0.178659 0)
(-0.119523 0.169523 0)
(-0.124968 0.160458 0)
(-0.129611 0.151615 0)
(-0.133817 0.142861 0)
(-0.137955 0.133788 0)
(-0.142403 0.123692 0)
(-0.147554 0.111533 0)
(-0.153814 0.0959077 0)
(-0.161575 0.0750548 0)
(-0.171171 0.0469409 0)
(-0.182796 0.00943571 0)
(-0.196299 -0.0393967 0)
(-0.210973 -0.100724 0)
(-0.225238 -0.174327 0)
(-0.236126 -0.257493 0)
(-0.238919 -0.343383 0)
(-0.227236 -0.418749 0)
(-0.194237 -0.461713 0)
(-0.136322 -0.442308 0)
(-0.0630467 -0.332246 0)
(-0.012175 -0.129224 0)
(-0.00333107 0.0555572 0)
(-0.0165425 0.133981 0)
(-0.0373097 0.181471 0)
(-0.0576443 0.20542 0)
(-0.0747603 0.213542 0)
(-0.0881257 0.211918 0)
(-0.0979328 0.204832 0)
(-0.104681 0.195082 0)
(-0.108945 0.18438 0)
(-0.111266 0.17369 0)
(-0.112119 0.163482 0)
(-0.111921 0.153882 0)
(-0.111057 0.144744 0)
(-0.109901 0.135668 0)
(-0.108845 0.125976 0)
(-0.108328 0.114664 0)
(-0.108852 0.100368 0)
(-0.110996 0.0813509 0)
(-0.115409 0.055543 0)
(-0.122752 0.0206737 0)
(-0.133551 -0.0254923 0)
(-0.147974 -0.0848469 0)
(-0.165464 -0.158322 0)
(-0.184084 -0.244986 0)
(-0.199719 -0.34031 0)
(-0.205352 -0.433069 0)
(-0.191115 -0.500848 0)
(-0.147322 -0.506318 0)
(-0.076607 -0.403212 0)
(-0.0172189 -0.167255 0)
(-0.00503092 0.0659992 0)
(-0.0221896 0.15415 0)
(-0.0464462 0.203026 0)
(-0.0676168 0.224106 0)
(-0.083021 0.227921 0)
(-0.0928601 0.221975 0)
(-0.0979675 0.211124 0)
(-0.0993054 0.198307 0)
(-0.0977573 0.185197 0)
(-0.0940502 0.172667 0)
(-0.0887621 0.161099 0)
(-0.0823579 0.150553 0)
(-0.0752309 0.14085 0)
(-0.0677452 0.131591 0)
(-0.0602796 0.122134 0)
(-0.0532737 0.11155 0)
(-0.0472735 0.0985825 0)
(-0.0429722 0.0816183 0)
(-0.0412349 0.0587032 0)
(-0.0430916 0.0276155 0)
(-0.0496575 -0.0139928 0)
(-0.0619441 -0.06843 0)
(-0.0805384 -0.137575 0)
(-0.104978 -0.222309 0)
(-0.132661 -0.321075 0)
(-0.157337 -0.426517 0)
(-0.167449 -0.519026 0)
(-0.147296 -0.557352 0)
(-0.0894894 -0.476008 0)
(-0.0240604 -0.214565 0)
(-0.00822134 0.0808828 0)
(-0.0312793 0.179179 0)
(-0.0590715 0.226478 0)
(-0.079196 0.241464 0)
(-0.0899712 0.238521 0)
(-0.0930635 0.226663 0)
(-0.0903406 0.211124 0)
(-0.0834196 0.19477 0)
(-0.0735743 0.179061 0)
(-0.0617438 0.164661 0)
(-0.0486045 0.151779 0)
(-0.0346481 0.140357 0)
(-0.0202508 0.130149 0)
(-0.00573425 0.120741 0)
(0.00857371 0.111528 0)
(0.0222789 0.101677 0)
(0.0348566 0.0900845 0)
(0.0455873 0.0753398 0)
(0.053504 0.0557217 0)
(0.0573575 0.0292281 0)
(0.0556197 -0.0063632 0)
(0.0466306 -0.0534454 0)
(0.0287679 -0.11442 0)
(0.000901345 -0.191572 0)
(-0.0365458 -0.286296 0)
(-0.07969 -0.396396 0)
(-0.117517 -0.508809 0)
(-0.130057 -0.584354 0)
(-0.098384 -0.541928 0)
(-0.032547 -0.271552 0)
(-0.0142482 0.10352 0)
(-0.0458422 0.210269 0)
(-0.0752134 0.250125 0)
(-0.08943 0.254124 0)
(-0.0899155 0.241384 0)
(-0.0809095 0.222073 0)
(-0.0657344 0.201295 0)
(-0.0467772 0.181435 0)
(-0.0256793 0.163472 0)
(-0.00351394 0.147688 0)
(0.0190367 0.13402 0)
(0.0415421 0.122232 0)
(0.0637209 0.111977 0)
(0.0853591 0.102807 0)
(0.106239 0.0941526 0)
(0.126069 0.085288 0)
(0.14441 0.0752869 0)
(0.160602 0.0629901 0)
(0.173687 0.0469879 0)
(0.18235 0.0256231 0)
(0.18484 -0.0029995 0)
(0.179124 -0.0410104 0)
(0.162836 -0.090856 0)
(0.133522 -0.155489 0)
(0.0893212 -0.238472 0)
(0.0305005 -0.342841 0)
(-0.0352736 -0.464783 0)
(-0.0874887 -0.575522 0)
(-0.0971034 -0.588226 0)
(-0.0409804 -0.337509 0)
(-0.0250146 0.139868 0)
(-0.0672389 0.246593 0)
(-0.089867 0.268281 0)
(-0.0868735 0.25478 0)
(-0.0669487 0.229449 0)
(-0.0379257 0.202178 0)
(-0.00454095 0.176849 0)
(0.0303676 0.154699 0)
(0.0651616 0.135859 0)
(0.0989676 0.120044 0)
(0.131367 0.106837 0)
(0.162196 0.0957866 0)
(0.19142 0.0864356 0)
(0.219045 0.0783084 0)
(0.245043 0.070882 0)
(0.269289 0.0635495 0)
(0.291486 0.0555824 0)
(0.311096 0.0460993 0)
(0.32726 0.0340448 0)
(0.338711 0.0181786 0)
(0.343687 -0.00293745 0)
(0.340014 -0.0308849 0)
(0.324908 -0.0677406 0)
(0.295085 -0.116306 0)
(0.246893 -0.180931 0)
(0.177122 -0.268356 0)
(0.0872527 -0.384838 0)
(-0.0077062 -0.519775 0)
(-0.0749594 -0.598228 0)
(-0.0441649 -0.410166 0)
(-0.0403144 0.201098 0)
(-0.087635 0.278403 0)
(-0.076937 0.263302 0)
(-0.0348652 0.227117 0)
(0.0193499 0.190283 0)
(0.0761641 0.158329 0)
(0.131314 0.132195 0)
(0.182921 0.111273 0)
(0.23036 0.0946104 0)
(0.273644 0.0813225 0)
(0.31307 0.0706791 0)
(0.349031 0.062083 0)
(0.381921 0.0550326 0)
(0.412075 0.0490808 0)
(0.439722 0.0437968 0)
(0.46494 0.0387287 0)
(0.487603 0.0333722 0)
(0.507321 0.0271447 0)
(0.52338 0.0193674 0)
(0.534639 0.00925279 0)
(0.539532 -0.00411978 0)
(0.535939 -0.0216958 0)
(0.520982 -0.0448526 0)
(0.491121 -0.0755985 0)
(0.441786 -0.117537 0)
(0.367137 -0.17806 0)
(0.262104 -0.270852 0)
(0.129086 -0.408208 0)
(-0.0122913 -0.549908 0)
(-0.0276509 -0.473457 0)
(-0.0332418 0.295462 0)
(-0.0448968 0.276164 0)
(0.0591154 0.202867 0)
(0.163603 0.151581 0)
(0.25592 0.114801 0)
(0.335628 0.0879074 0)
(0.403827 0.0684936 0)
(0.461968 0.0544816 0)
(0.511675 0.0442258 0)
(0.554476 0.036591 0)
(0.591658 0.0308178 0)
(0.62426 0.0263783 0)
(0.653102 0.0228852 0)
(0.678799 0.0200339 0)
(0.701774 0.0175627 0)
(0.722247 0.0152221 0)
(0.740218 0.0127533 0)
(0.755426 0.00987305 0)
(0.767317 0.00626692 0)
(0.774929 0.00158438 0)
(0.777077 -0.00447683 0)
(0.771956 -0.0124943 0)
(0.757093 -0.0230274 0)
(0.729354 -0.0369785 0)
(0.684343 -0.0562287 0)
(0.615349 -0.0854819 0)
(0.512023 -0.137562 0)
(0.360067 -0.241132 0)
(0.140904 -0.407116 0)
(0.0577963 -0.458142 0)
(0.303536 0.181054 0)
(0.38392 0.145053 0)
(0.564005 0.0921382 0)
(0.691477 0.0597366 0)
(0.774828 0.0396418 0)
(0.833896 0.0266441 0)
(0.878129 0.0182806 0)
(0.9121 0.0129303 0)
(0.938786 0.00946784 0)
(0.960283 0.00717937 0)
(0.978017 0.00563185 0)
(0.992954 0.0045582 0)
(1.00576 0.00378659 0)
(1.01687 0.00319972 0)
(1.02657 0.00271012 0)
(1.035 0.00224435 0)
(1.04213 0.00173314 0)
(1.04779 0.00110507 0)
(1.05166 0.00028891 0)
(1.05325 -0.000798517 0)
(1.05181 -0.00212383 0)
(1.04632 -0.00393402 0)
(1.03564 -0.00631998 0)
(1.01812 -0.00944393 0)
(0.991305 -0.013736 0)
(0.950821 -0.0204289 0)
(0.88689 -0.0332364 0)
(0.778041 -0.0644506 0)
(0.545345 -0.139963 0)
(0.38252 -0.202025 0)
)
;

boundaryField
{
    movingWall
    {
        type            fixedValue;
        value           uniform (1.2 0 0);
    }
    fixedWalls
    {
        type            noSlip;
    }
    frontAndBack
    {
        type            empty;
    }
}


// ************************************************************************* //
