/*--------------------------------*- C++ -*----------------------------------*\
  =========                 |
  \\      /  F ield         | OpenFOAM: The Open Source CFD Toolbox
   \\    /   O peration     | Website:  https://openfoam.org
    \\  /    A nd           | Version:  7
     \\/     M anipulation  |
\*---------------------------------------------------------------------------*/
FoamFile
{
    version     2.0;
    format      ascii;
    class       volScalarField;
    location    "800";
    object      epsilon;
}
// * * * * * * * * * * * * * * * * * * * * * * * * * * * * * * * * * * * * * //

dimensions      [0 2 -3 0 0 0 0];

internalField   nonuniform List<scalar> 
16900
(
0.896166
1.66031
2.58081
3.42434
4.18509
4.86446
5.46818
6.00107
6.46591
6.86126
7.18084
7.41416
7.54758
7.57604
7.5236
7.73004
7.87095
7.84983
35.9428
39.9681
44.2548
48.8263
53.6815
58.8218
64.2513
69.9753
75.9991
82.3277
88.9656
95.916
103.181
110.763
118.661
126.875
135.401
144.236
153.374
162.811
172.536
182.542
192.817
203.349
214.124
225.129
236.345
247.756
259.342
271.082
282.956
294.938
307.006
319.133
331.293
343.458
355.601
367.693
379.707
391.618
403.401
415.035
426.507
437.81
448.952
459.962
470.901
481.668
492.113
502.228
512.002
521.42
530.47
539.137
547.409
555.274
562.721
569.737
576.315
582.443
588.113
593.317
598.049
602.302
606.072
609.354
612.145
614.441
616.241
617.544
618.349
618.658
618.473
617.795
616.629
614.978
612.847
610.245
607.178
603.654
599.681
595.271
590.435
585.187
579.537
573.501
567.097
560.34
553.245
545.833
538.127
530.145
521.904
513.431
504.751
495.878
486.841
477.674
468.386
459.001
449.569
440.1
430.582
421.086
411.709
402.483
393.746
386.539
380.302
374.235
368.217
362.239
356.309
350.437
344.637
338.92
333.299
327.787
322.397
317.139
312.026
307.069
302.278
297.665
293.24
289.013
284.997
281.201
277.637
274.318
271.257
268.468
265.968
263.775
261.908
260.393
259.253
258.522
258.231
258.422
259.137
260.43
262.355
264.978
268.366
272.598
277.753
283.915
291.162
299.561
309.153
319.935
331.838
344.701
358.253
372.108
385.779
398.71
410.338
420.147
427.728
432.808
435.27
435.137
432.559
427.767
421.055
412.737
403.131
392.539
381.237
369.466
357.434
345.314
333.245
321.341
309.687
298.351
287.385
276.839
266.821
257.82
1.83595
1.77352
2.39238
3.08871
3.76283
4.39818
5.00201
5.58995
6.18244
6.80536
7.49267
8.28901
9.24957
10.4314
11.857
13.4513
15.5032
18.4393
22.0857
24.3406
26.6055
28.9835
31.4848
34.1111
36.864
39.7447
42.7548
45.8947
49.1651
52.5657
56.0959
59.7547
63.5405
67.4511
71.4838
75.6354
79.9023
84.2802
88.7642
93.3492
98.0293
102.798
107.65
112.576
117.569
122.623
127.727
132.874
138.054
143.259
148.478
153.704
158.925
164.134
169.32
174.475
179.59
184.659
189.675
194.634
199.534
204.374
209.16
213.899
218.608
223.271
227.816
232.232
236.513
240.652
244.645
248.485
252.167
255.686
259.038
262.216
265.218
268.039
270.676
273.124
275.38
277.442
279.307
280.972
282.437
283.698
284.755
285.607
286.252
286.691
286.923
286.95
286.77
286.386
285.798
285.009
284.021
282.836
281.456
279.887
278.13
276.192
274.076
271.787
269.332
266.716
263.946
261.028
257.972
254.784
251.472
248.045
244.512
240.883
237.165
233.37
229.508
225.584
221.614
217.613
213.562
209.486
205.465
201.498
197.663
194.112
190.798
187.576
184.407
181.282
178.203
175.173
172.196
169.277
166.422
163.634
160.92
158.282
155.726
153.256
150.876
148.589
146.4
144.312
142.33
140.456
138.696
137.052
135.531
134.137
132.876
131.754
130.779
129.96
129.307
128.83
128.545
128.467
128.615
129.008
129.672
130.634
131.922
133.567
135.603
138.059
140.96
144.326
148.157
152.436
157.114
162.107
167.291
172.504
177.552
182.223
186.31
189.626
192.025
193.416
193.759
193.07
191.41
188.868
185.559
181.605
177.129
172.251
167.079
161.71
156.23
150.708
145.205
139.767
134.434
129.234
124.187
119.309
114.628
110.381
2.58573
2.12688
2.59004
3.21243
3.86315
4.51206
5.1623
5.83105
6.54231
7.32475
8.21063
9.23266
10.4159
11.7647
13.2512
14.8387
16.5935
18.5277
20.5137
22.4098
24.3677
26.4183
28.5688
30.8215
33.1774
35.6374
38.2022
40.8721
43.6473
46.5276
49.5124
52.6007
55.7913
59.0825
62.472
65.9576
69.5362
73.2045
76.9588
80.7951
84.7089
88.6953
92.7492
96.8651
101.037
105.26
109.526
113.83
118.165
122.524
126.901
131.288
135.678
140.066
144.444
148.805
153.143
157.454
161.73
165.968
170.164
174.316
178.422
182.482
186.496
190.431
194.268
198
201.62
205.123
208.505
211.76
214.884
217.872
220.721
223.425
225.983
228.389
230.641
232.736
234.671
236.444
238.051
239.493
240.766
241.87
242.804
243.566
244.157
244.575
244.821
244.895
244.798
244.531
244.095
243.491
242.722
241.789
240.695
239.443
238.036
236.478
234.773
232.924
230.937
228.817
226.569
224.197
221.71
219.113
216.413
213.615
210.729
207.763
204.719
201.609
198.444
195.217
191.948
188.667
185.364
182.051
178.759
175.501
172.312
169.235
166.27
163.375
160.534
157.742
155
152.309
149.673
147.096
144.581
142.131
139.75
137.44
135.205
133.047
130.969
128.974
127.063
125.238
123.503
121.86
120.309
118.855
117.5
116.246
115.098
114.059
113.134
112.329
111.65
111.105
110.704
110.459
110.382
110.489
110.797
111.326
112.096
113.129
114.447
116.066
118.001
120.256
122.824
125.677
128.771
132.035
135.372
138.663
141.772
144.557
146.88
148.622
149.695
150.045
149.657
148.55
146.773
144.393
141.495
138.165
134.491
130.556
126.436
122.198
117.901
113.594
109.317
105.102
100.977
96.9601
93.066
89.307
85.7202
82.5836
3.17509
2.46475
2.82954
3.40194
4.03913
4.70376
5.39338
6.12116
6.90684
7.7723
8.7387
9.82267
11.0309
12.3556
13.7801
15.2895
16.8928
18.5892
20.3503
22.1637
24.054
26.0328
28.1057
30.2756
32.5442
34.9128
37.3824
39.9537
42.6272
45.4032
48.2815
51.2619
54.3434
57.5251
60.8055
64.1827
67.6545
71.2182
74.8708
78.6089
82.4285
86.3256
90.2956
94.3337
98.4346
102.593
106.803
111.059
115.356
119.686
124.043
128.422
132.815
137.215
141.618
146.014
150.399
154.765
159.105
163.415
167.687
171.917
176.101
180.231
184.291
188.263
192.136
195.902
199.555
203.091
206.503
209.786
212.936
215.948
218.818
221.541
224.114
226.533
228.796
230.898
232.838
234.613
236.221
237.661
238.931
240.029
240.957
241.711
242.293
242.703
242.94
243.007
242.903
242.63
242.19
241.583
240.814
239.884
238.796
237.552
236.157
234.615
232.93
231.105
229.145
227.057
224.845
222.514
220.071
217.522
214.875
212.133
209.306
206.404
203.423
200.377
197.292
194.162
190.997
187.816
184.62
181.42
178.232
175.069
171.951
168.899
165.916
162.992
160.121
157.302
154.535
151.823
149.169
146.577
144.049
141.588
139.197
136.878
134.634
132.467
130.378
128.37
126.444
124.601
122.843
121.171
119.587
118.091
116.686
115.374
114.156
113.035
112.015
111.1
110.295
109.605
109.04
108.607
108.318
108.186
108.225
108.452
108.883
109.537
110.429
111.573
112.975
114.636
116.541
118.664
120.958
123.359
125.783
128.129
130.286
132.139
133.581
134.522
134.896
134.667
133.83
132.408
130.446
128.005
125.155
121.972
118.527
114.89
111.123
107.28
103.41
99.5514
95.736
91.9899
88.3333
84.7814
81.3461
78.0399
74.9102
72.2602
3.6599
2.75533
3.04938
3.58408
4.2085
4.88141
5.59554
6.35895
7.18577
8.09105
9.08789
10.185
11.3842
12.6806
14.0665
15.536
17.0893
18.7267
20.4434
22.2394
24.1208
26.0934
28.1615
30.3281
32.5956
34.9659
37.4406
40.021
42.7084
45.5036
48.4074
51.42
54.5416
57.7717
61.1096
64.5541
68.1037
71.7564
75.5096
79.3605
83.3057
87.3413
91.4632
95.6667
99.947
104.299
108.716
113.194
117.725
122.304
126.924
131.578
136.26
140.962
145.677
150.397
155.114
159.82
164.507
169.167
173.791
178.372
182.902
187.363
191.738
196.015
200.184
204.236
208.166
211.967
215.633
219.159
222.538
225.767
228.839
231.751
234.499
237.079
239.487
241.721
243.777
245.654
247.35
248.863
250.192
251.337
252.297
253.071
253.661
254.067
254.289
254.329
254.19
253.872
253.377
252.708
251.869
250.862
249.691
248.359
246.87
245.229
243.441
241.51
239.44
237.239
234.914
232.467
229.904
227.236
224.471
221.604
218.654
215.636
212.551
209.407
206.219
202.992
199.736
196.46
193.173
189.884
186.603
183.342
180.116
176.937
173.811
170.737
167.714
164.743
161.827
158.97
156.173
153.441
150.776
148.181
145.658
143.21
140.838
138.545
136.331
134.198
132.147
130.179
128.294
126.494
124.778
123.147
121.603
120.146
118.777
117.498
116.311
115.219
114.226
113.336
112.557
111.895
111.36
110.964
110.718
110.639
110.74
111.038
111.546
112.275
113.229
114.407
115.792
117.357
119.06
120.84
122.622
124.317
125.827
127.053
127.905
128.307
128.205
127.573
126.411
124.743
122.611
120.072
117.191
114.033
110.664
107.145
103.531
99.8693
96.201
92.5598
88.9733
85.4632
82.0466
78.7362
75.5424
72.479
69.6011
67.2239
4.06248
2.99534
3.23226
3.73519
4.34496
5.01755
5.74208
6.52235
7.36791
8.28912
9.29465
10.3899
11.5767
12.8531
14.2167
15.6658
17.2008
18.8227
20.5324
22.3316
24.2235
26.2119
28.3007
30.4931
32.7921
35.2002
37.72
40.3536
43.1031
45.9704
48.9569
52.0641
55.2927
58.6433
62.116
65.7104
69.4257
73.2606
77.213
81.2806
85.4603
89.7486
94.1416
98.6346
103.223
107.9
112.662
117.501
122.412
127.387
132.419
137.501
142.624
147.782
152.965
158.164
163.369
168.571
173.76
178.923
184.051
189.132
194.155
199.09
203.925
208.647
213.249
217.72
222.053
226.241
230.277
234.154
237.867
241.408
244.774
247.959
250.959
253.769
256.387
258.809
261.032
263.055
264.875
266.491
267.903
269.111
270.115
270.915
271.511
271.905
272.1
272.096
271.898
271.506
270.924
270.156
269.204
268.075
266.771
265.296
263.656
261.856
259.902
257.798
255.55
253.164
250.651
248.014
245.248
242.383
239.423
236.367
233.23
230.022
226.749
223.421
220.047
216.637
213.198
209.74
206.271
202.801
199.337
195.891
192.474
189.095
185.762
182.475
179.239
176.057
172.931
169.865
166.862
163.927
161.061
158.268
155.549
152.908
150.345
147.862
145.46
143.14
140.903
138.748
136.676
134.687
132.781
130.958
129.218
127.56
125.986
124.495
123.089
121.769
120.539
119.402
118.362
117.427
116.604
115.904
115.338
114.918
114.661
114.578
114.685
114.99
115.499
116.209
117.106
118.166
119.349
120.6
121.852
123.024
124.028
124.775
125.183
125.185
124.732
123.803
122.399
120.543
118.276
115.651
112.726
109.565
106.225
102.764
99.2299
95.6677
92.1137
88.5985
85.1465
81.7772
78.5054
75.3425
72.2981
69.3872
66.6708
64.4689
4.3956
3.18773
3.37407
3.84753
4.43996
5.10478
5.82853
6.61185
7.4611
8.38376
9.38626
10.473
11.6463
12.9067
14.2546
15.6907
17.2166
18.8344
20.5464
22.3552
24.2637
26.2755
28.3945
30.6245
32.969
35.4317
38.0158
40.7246
43.5612
46.5286
49.6293
52.8657
56.2397
59.7528
63.4062
67.2003
71.135
75.2097
79.423
83.773
88.257
92.8717
97.6131
102.477
107.457
112.549
117.746
123.041
128.427
133.896
139.441
145.053
150.722
156.44
162.197
167.981
173.781
179.585
185.38
191.151
196.886
202.571
208.178
213.68
219.066
224.325
229.445
234.417
239.232
243.881
248.356
252.65
256.755
260.666
264.375
267.878
271.171
274.248
277.106
279.742
282.153
284.337
286.293
288.02
289.519
290.788
291.83
292.645
293.235
293.601
293.748
293.677
293.393
292.899
292.199
291.296
290.197
288.906
287.43
285.772
283.938
281.934
279.769
277.449
274.973
272.355
269.609
266.739
263.745
260.647
257.45
254.162
250.792
247.35
243.844
240.283
236.677
233.034
229.364
225.674
221.974
218.272
214.577
210.897
207.243
203.623
200.044
196.511
193.026
189.596
186.223
182.911
179.665
176.488
173.383
170.352
167.398
164.523
161.729
159.015
156.384
153.835
151.369
148.986
146.685
144.466
142.328
140.27
138.292
136.392
134.57
132.826
131.159
129.571
128.063
126.637
125.297
124.049
122.898
121.854
120.928
120.131
119.477
118.981
118.654
118.509
118.552
118.783
119.192
119.758
120.448
121.215
121.996
122.718
123.302
123.662
123.723
123.418
122.705
121.558
119.981
117.992
115.631
112.947
109.993
106.829
103.51
100.087
96.6086
93.1138
89.6374
86.2076
82.8473
79.5742
76.4021
73.3412
70.4011
67.5977
64.9965
62.9182
4.66834
3.33727
3.47643
3.92083
4.49318
5.14437
5.85901
6.63558
7.4783
8.39296
9.38492
10.4584
11.6164
12.8612
14.1949
15.6197
17.1385
18.7542
20.4702
22.2896
24.2161
26.2536
28.4066
30.6794
33.0767
35.6029
38.2626
41.0601
43.9999
47.0859
50.3221
53.7119
57.2586
60.9647
64.8324
68.8631
73.0575
77.4158
81.9371
86.62
91.4621
96.4602
101.61
106.908
112.347
117.922
123.625
129.449
135.386
141.427
147.563
153.784
160.08
166.44
172.852
179.302
185.778
192.264
198.745
205.203
211.621
217.981
224.235
230.369
236.369
242.223
247.918
253.444
258.79
263.946
268.902
273.65
278.181
282.489
286.567
290.41
294.012
297.369
300.477
303.332
305.932
308.275
310.361
312.19
313.762
315.078
316.14
316.949
317.508
317.821
317.891
317.724
317.322
316.693
315.84
314.769
313.484
311.996
310.31
308.432
306.363
304.117
301.706
299.135
296.408
293.535
290.529
287.397
284.145
280.784
277.324
273.773
270.14
266.435
262.666
258.843
254.975
251.071
247.139
243.188
239.228
235.265
231.309
227.367
223.45
219.564
215.717
211.914
208.16
204.459
200.817
197.237
193.724
190.281
186.911
183.617
180.401
177.265
174.21
171.238
168.348
165.541
162.817
160.175
157.614
155.134
152.732
150.407
148.159
145.984
143.882
141.852
139.892
138.003
136.184
134.437
132.763
131.168
129.657
128.237
126.917
125.709
124.627
123.683
122.894
122.271
121.824
121.558
121.469
121.542
121.751
122.056
122.404
122.728
122.951
122.994
122.781
122.247
121.345
120.05
118.359
116.29
113.878
111.166
108.207
105.055
101.763
98.379
94.9489
91.5107
88.0972
84.7352
81.4466
78.2481
75.1528
72.1707
69.3112
66.5911
64.0793
62.0948
4.88827
3.44933
3.54339
3.95837
4.50824
5.14135
5.84087
6.60378
7.43294
8.33312
9.30926
10.3657
11.5062
12.7341
14.0528
15.4658
16.9769
18.59
20.3092
22.1389
24.0834
26.1475
28.3365
30.6558
33.111
35.7079
38.4523
41.3498
44.4062
47.6269
51.0172
54.582
58.3256
62.2519
66.3641
70.6647
75.1554
79.8369
84.709
89.7705
95.0194
100.452
106.066
111.854
117.811
123.929
130.202
136.62
143.174
149.854
156.648
163.547
170.536
177.605
184.738
191.921
199.138
206.37
213.599
220.804
227.963
235.037
241.984
248.792
255.446
261.932
268.236
274.346
280.249
285.935
291.391
296.608
301.577
306.29
310.742
314.924
318.834
322.465
325.814
328.876
331.65
334.134
336.329
338.236
339.856
341.192
342.243
343.015
343.51
343.735
343.694
343.393
342.837
342.034
340.99
339.712
338.202
336.478
334.546
332.413
330.085
327.573
324.889
322.04
319.034
315.881
312.591
309.173
305.636
301.991
298.246
294.41
290.493
286.505
282.453
278.349
274.2
270.016
265.805
261.575
257.337
253.096
248.862
244.643
240.447
236.281
232.153
228.068
224.031
220.048
216.123
212.261
208.467
204.742
201.092
197.518
194.023
190.608
187.275
184.024
180.855
177.769
174.765
171.842
168.999
166.233
163.544
160.929
158.386
155.913
153.507
151.166
148.888
146.673
144.518
142.425
140.394
138.429
136.532
134.711
132.973
131.33
129.795
128.381
127.105
125.982
125.026
124.248
123.65
123.227
122.961
122.822
122.765
122.729
122.642
122.424
122
121.3
120.273
118.89
117.141
115.041
112.618
109.913
106.975
103.854
100.602
97.2654
93.8871
90.5047
87.15
83.8492
80.6235
77.4894
74.4597
71.5443
68.7527
66.1025
63.6652
61.7563
5.06185
3.52921
3.57994
3.96498
4.49041
5.10216
5.78228
6.52672
7.33745
8.21869
9.17521
10.2117
11.3325
12.5419
13.8443
15.2444
16.7467
18.3564
20.0785
21.9184
23.8816
25.9741
28.2021
30.5724
33.0918
35.7676
38.607
41.6172
44.8054
48.1787
51.7437
55.5067
59.4736
63.6495
68.0388
72.645
77.4705
82.5169
87.7843
93.2718
98.9774
104.898
111.028
117.363
123.896
130.619
137.522
144.596
151.829
159.209
166.724
174.36
182.103
189.938
197.85
205.82
213.829
221.858
229.882
237.877
245.811
253.62
261.284
268.787
276.114
283.247
290.172
296.874
303.341
309.558
315.512
321.193
326.591
331.698
336.507
341.012
345.208
349.09
352.654
355.894
358.811
361.403
363.673
365.622
367.253
368.568
369.569
370.262
370.652
370.747
370.551
370.072
369.319
368.3
367.025
365.501
363.736
361.744
359.534
357.115
354.497
351.689
348.705
345.552
342.241
338.783
335.186
331.463
327.621
323.671
319.623
315.486
311.27
306.984
302.637
298.238
293.797
289.321
284.821
280.303
275.777
271.25
266.731
262.226
257.744
253.292
248.877
244.504
240.179
235.908
231.694
227.544
223.46
219.447
215.508
211.645
207.86
204.156
200.532
196.99
193.53
190.151
186.852
183.633
180.492
177.426
174.433
171.511
168.657
165.868
163.14
160.472
157.86
155.302
152.796
150.341
147.937
145.586
143.29
141.053
138.884
136.792
134.79
132.892
131.116
129.481
128.005
126.704
125.592
124.671
123.936
123.367
122.927
122.563
122.206
121.777
121.196
120.387
119.293
117.876
116.121
114.034
111.64
108.975
106.085
103.017
99.8203
96.5415
93.2223
89.8996
86.6048
83.3641
80.1986
77.1248
74.1556
71.3009
68.5707
65.9831
63.6117
61.7671
5.19499
3.58191
3.59117
3.94594
4.44546
5.03353
5.69129
6.414
7.20302
8.0623
8.99663
10.011
11.1106
12.3004
13.5857
14.9723
16.4658
18.0724
19.7984
21.6503
23.6351
25.7601
28.0329
30.4617
33.0551
35.8219
38.7708
41.9109
45.2511
48.8001
52.566
56.5567
60.7796
65.241
69.9465
74.9006
80.1066
85.5664
91.2804
97.2476
103.466
109.931
116.639
123.582
130.752
138.141
145.737
153.529
161.503
169.643
177.936
186.366
194.916
203.568
212.305
221.106
229.948
238.808
247.66
256.472
265.175
273.728
282.113
290.313
298.308
306.081
313.616
320.898
327.911
334.639
341.068
347.186
352.982
358.45
363.582
368.371
372.814
376.907
380.643
384.017
387.03
389.683
391.979
393.92
395.512
396.757
397.657
398.221
398.456
398.371
397.975
397.274
396.282
395.007
393.461
391.654
389.596
387.301
384.779
382.043
379.103
375.971
372.658
369.176
365.536
361.749
357.826
353.776
349.612
345.342
340.977
336.526
331.999
327.405
322.753
318.053
313.313
308.542
303.747
298.938
294.122
289.306
284.499
279.708
274.939
270.201
265.499
260.839
256.226
251.667
247.165
242.726
238.352
234.048
229.818
225.662
221.584
217.585
213.666
209.827
206.068
202.389
198.788
195.265
191.816
188.44
185.134
181.895
178.72
175.604
172.546
169.541
166.585
163.676
160.81
157.986
155.203
152.46
149.759
147.104
144.5
141.957
139.485
137.102
134.824
132.674
130.675
128.851
127.224
125.808
124.61
123.622
122.818
122.154
121.563
120.966
120.275
119.409
118.3
116.9
115.185
113.154
110.825
108.231
105.414
102.419
99.2952
96.0867
92.8355
89.5785
86.3475
83.1688
80.0638
77.0496
74.1392
71.3429
68.6712
66.1427
63.8325
62.0449
5.29296
3.61198
3.58192
3.90641
4.37908
4.94196
5.57546
6.27435
7.03967
7.87522
8.78595
9.77733
10.8551
12.0252
13.2939
14.668
16.1544
17.7605
19.4939
21.3629
23.3757
25.5415
27.8695
30.3698
33.0527
35.9287
39.0089
42.3039
45.8246
49.5813
53.584
57.842
62.3639
67.1576
72.2297
77.5856
83.2292
89.1625
95.3856
101.897
108.694
115.772
123.124
130.743
138.619
146.742
155.098
163.673
172.449
181.41
190.537
199.811
209.215
218.727
228.325
237.987
247.687
257.398
267.091
276.704
286.16
295.442
304.528
313.4
322.036
330.418
338.529
346.351
353.87
361.067
367.923
374.427
380.57
386.345
391.743
396.759
401.389
405.634
409.482
412.927
415.975
418.627
420.888
422.761
424.251
425.365
426.109
426.49
426.519
426.205
425.558
424.59
423.313
421.738
419.879
417.749
415.359
412.724
409.856
406.768
403.475
399.988
396.321
392.485
388.492
384.356
380.086
375.695
371.193
366.59
361.896
357.122
352.277
347.369
342.409
337.405
332.364
327.297
322.209
317.11
312.006
306.905
301.814
296.741
291.69
286.671
281.687
276.745
271.851
267.009
262.224
257.5
252.84
248.25
243.731
239.285
234.916
230.623
226.409
222.272
218.214
214.233
210.327
206.497
202.738
199.048
195.425
191.866
188.366
184.921
181.528
178.183
174.881
171.62
168.394
165.201
162.04
158.909
155.808
152.739
149.708
146.721
143.79
140.93
138.16
135.505
132.992
130.651
128.515
126.611
124.958
123.563
122.413
121.472
120.678
119.949
119.193
118.317
117.239
115.901
114.269
112.333
110.103
107.609
104.889
101.988
98.9518
95.8258
92.652
89.4678
86.3055
83.1922
80.15
77.1965
74.3454
71.6075
68.9937
66.5231
64.2717
62.5369
5.3607
3.62352
3.55653
3.85113
4.29656
4.83344
5.4417
6.11578
6.85652
7.66776
8.55474
9.52344
10.5803
11.7324
12.9869
14.3519
15.8357
17.4472
19.1958
21.0913
23.1441
25.3651
27.7659
30.3583
33.1549
36.1684
39.4119
42.8985
46.6408
50.651
54.9406
59.5203
64.4001
69.5889
75.0943
80.9223
87.0771
93.5606
100.371
107.507
114.962
122.733
130.809
139.183
147.842
156.772
165.959
175.386
185.029
194.866
204.878
215.043
225.338
235.739
246.221
256.758
267.322
277.882
288.399
298.754
308.927
318.895
328.637
338.13
347.353
356.285
364.907
373.204
381.162
388.76
395.969
402.784
409.198
415.201
420.788
425.953
430.691
435.001
438.878
442.321
445.33
447.911
450.067
451.804
453.129
454.05
454.575
454.713
454.477
453.877
452.928
451.64
450.029
448.108
445.892
443.395
440.633
437.62
434.37
430.9
427.223
423.354
419.306
415.093
410.728
406.223
401.591
396.844
391.992
387.047
382.018
376.915
371.748
366.526
361.257
355.949
350.612
345.252
339.877
334.494
329.11
323.732
318.366
313.019
307.697
302.406
297.151
291.938
286.772
281.657
276.598
271.599
266.664
261.795
256.995
252.267
247.613
243.033
238.529
234.1
229.746
225.467
221.26
217.125
213.058
209.058
205.12
201.242
197.419
193.647
189.923
186.242
182.599
178.989
175.41
171.856
168.326
164.817
161.328
157.861
154.417
151.005
147.633
144.317
141.075
137.935
134.926
132.087
129.457
127.076
124.98
123.19
121.709
120.511
119.541
118.714
117.93
117.084
116.082
114.848
113.338
111.531
109.433
107.065
104.465
101.675
98.741
95.7093
92.6221
89.5179
86.4298
83.3861
80.4099
77.5195
74.7294
72.0511
69.4961
67.0838
64.8907
63.206
5.40266
3.62008
3.51887
3.78439
4.20272
4.71353
5.29643
5.94571
6.66219
7.44988
8.31445
9.26253
10.3015
11.4395
12.6852
14.0479
15.5378
17.1657
18.9427
20.8811
22.9936
25.2935
27.7946
30.5115
33.4588
36.6521
40.1068
43.8384
47.8618
52.1909
56.8381
61.8155
67.134
72.8032
78.8312
85.224
91.9859
99.1183
106.616
114.474
122.687
131.245
140.14
149.358
158.884
168.702
178.794
189.143
199.714
210.481
221.421
232.509
243.719
255.022
266.39
277.793
289.199
300.574
311.816
322.857
333.678
344.26
354.578
364.61
374.333
383.725
392.766
401.439
409.727
417.612
425.075
432.104
438.69
444.826
450.505
455.723
460.475
464.762
468.58
471.931
474.817
477.241
479.211
480.734
481.818
482.474
482.71
482.539
481.974
481.029
479.718
478.056
476.06
473.743
471.124
468.219
465.045
461.618
457.954
454.069
449.981
445.704
441.253
436.643
431.888
427.001
421.995
416.882
411.673
406.38
401.012
395.58
390.092
384.558
378.984
373.38
367.753
362.11
356.457
350.801
345.149
339.506
333.879
328.273
322.693
317.145
311.634
306.165
300.742
295.37
290.051
284.792
279.593
274.459
269.392
264.393
259.465
254.609
249.825
245.113
240.474
235.905
231.405
226.973
222.606
218.302
214.057
209.868
205.73
201.64
197.593
193.584
189.609
185.663
181.742
177.842
173.958
170.089
166.231
162.386
158.555
154.743
150.958
147.215
143.532
139.936
136.461
133.149
130.048
127.21
124.686
122.516
120.718
119.28
118.155
117.259
116.481
115.703
114.814
113.723
112.37
110.726
108.786
106.569
104.108
101.446
98.629
95.7025
92.7107
89.6934
86.6853
83.7157
80.8091
77.9849
75.2584
72.642
70.1476
67.7951
65.6607
64.0244
5.42299
3.60478
3.47227
3.70997
4.10196
4.58738
5.14576
5.77139
6.46528
7.23179
8.07721
9.0091
10.036
11.1674
12.4136
13.7861
15.2969
16.9591
18.7866
20.7942
22.9976
25.4131
28.0576
30.9481
34.1024
37.5386
41.2751
45.33
49.7206
54.4625
59.5676
65.0487
70.9174
77.183
83.8531
90.9331
98.4265
106.335
114.645
123.347
132.434
141.894
151.714
161.875
172.36
183.147
194.217
205.558
217.11
228.845
240.739
252.764
264.888
277.079
289.303
301.529
313.717
325.753
337.6
349.22
360.586
371.672
382.455
392.91
403.013
412.744
422.081
431.006
439.503
447.555
455.147
462.266
468.903
475.051
480.704
485.859
490.513
494.667
498.321
501.476
504.137
506.31
508.001
509.221
509.98
510.29
510.161
509.609
508.647
507.292
505.56
503.468
501.033
498.274
495.207
491.853
488.23
484.354
480.245
475.92
471.396
466.691
461.819
456.797
451.64
446.36
440.973
435.49
429.922
424.281
418.577
412.819
407.017
401.178
395.31
389.42
383.515
377.602
371.687
365.774
359.87
353.98
348.109
342.262
336.444
330.658
324.91
319.204
313.544
307.932
302.374
296.871
291.428
286.046
280.728
275.476
270.291
265.173
260.125
255.144
250.232
245.387
240.607
235.892
231.237
226.641
222.101
217.613
213.173
208.777
204.42
200.098
195.807
191.541
187.296
183.067
178.851
174.643
170.442
166.246
162.057
157.878
153.715
149.582
145.496
141.484
137.58
133.831
130.29
127.022
124.091
121.556
119.455
117.794
116.534
115.591
114.849
114.171
113.429
112.515
111.352
109.899
108.144
106.1
103.797
101.279
98.59
95.779
92.891
89.9674
87.0448
84.1541
81.3212
78.5666
75.907
73.3551
70.9239
68.6333
66.5589
64.9702
5.42552
3.58034
3.41969
3.63133
3.99842
4.46004
4.99585
5.60043
6.27515
7.02501
7.85725
8.78067
9.80538
10.9427
12.2053
13.6068
15.1624
16.888
18.8008
20.919
23.2621
25.8505
28.7048
31.8444
35.2905
39.0645
43.1875
47.6805
52.5635
57.854
63.5589
69.6921
76.2644
83.2838
90.7554
98.6818
107.065
115.913
125.188
134.879
144.978
155.466
166.326
177.536
189.07
200.902
213.007
225.356
237.904
250.616
263.458
276.397
289.396
302.417
315.423
328.378
341.155
353.719
366.047
378.108
389.873
401.316
412.411
423.134
433.462
443.373
452.848
461.869
470.42
478.486
486.054
493.112
499.652
505.668
511.155
516.112
520.536
524.431
527.797
530.64
532.964
534.777
536.088
536.908
537.25
537.127
536.553
535.544
534.115
532.284
530.071
527.493
524.57
521.322
517.767
513.926
509.82
505.468
500.888
496.101
491.123
485.974
480.671
475.228
469.662
463.988
458.219
452.367
446.444
440.462
434.43
428.357
422.252
416.122
409.974
403.816
397.652
391.488
385.329
379.181
373.047
366.932
360.84
354.776
348.742
342.742
336.781
330.861
324.986
319.159
313.383
307.661
301.995
296.387
290.839
285.354
279.931
274.573
269.278
264.048
258.881
253.778
248.735
243.753
238.828
233.957
229.138
224.368
219.642
214.958
210.309
205.693
201.104
196.539
191.991
187.457
182.933
178.415
173.899
169.385
164.872
160.363
155.863
151.382
146.939
142.556
138.27
134.127
130.187
126.522
123.211
120.331
117.943
116.071
114.691
113.722
113.038
112.49
111.926
111.219
110.275
109.039
107.492
105.64
103.513
101.152
98.6034
95.9174
93.1409
90.3177
87.4862
84.6792
81.9241
79.2431
76.6537
74.1696
71.8046
69.5784
67.565
66.0244
5.41383
3.54912
3.36377
3.55174
3.89629
4.33686
4.85361
5.44164
6.10307
6.84397
7.67297
8.60067
9.63939
10.8031
12.1072
13.5691
15.2078
17.0434
19.0969
21.3912
23.951
26.8018
29.9699
33.4752
37.3434
41.5991
46.2661
51.3669
56.925
62.962
69.4677
76.4593
83.9451
91.9288
100.41
109.387
118.853
128.801
139.203
150.04
161.293
172.937
184.947
197.295
209.949
222.878
236.048
249.422
262.958
276.615
290.352
304.132
317.911
331.644
345.294
358.716
371.896
384.811
397.441
409.755
421.727
433.331
444.541
455.334
465.688
475.584
485.002
493.927
502.344
510.24
517.603
524.424
530.695
536.413
541.573
546.176
550.222
553.715
556.659
559.059
560.923
562.26
563.082
563.4
563.229
562.585
561.483
559.939
557.973
555.604
552.851
549.735
546.278
542.498
538.419
534.061
529.446
524.594
519.526
514.262
508.821
503.222
497.482
491.618
485.647
479.582
473.438
467.228
460.962
454.653
448.308
441.937
435.548
429.148
422.742
416.337
409.938
403.548
397.172
390.814
384.477
378.165
371.88
365.625
359.404
353.218
347.072
340.966
334.905
328.889
322.923
317.007
311.144
305.336
299.585
293.89
288.255
282.678
277.161
271.704
266.305
260.964
255.681
250.452
245.277
240.153
235.076
230.044
225.054
220.102
215.184
210.296
205.433
200.591
195.767
190.954
186.15
181.351
176.554
171.756
166.957
162.158
157.364
152.583
147.831
143.13
138.513
134.027
129.735
125.715
122.057
118.857
116.199
114.129
112.642
111.662
111.058
110.661
110.302
109.828
109.129
108.135
106.816
105.176
103.239
101.048
98.651
96.0988
93.4414
90.7249
87.9899
85.2715
82.5987
79.9952
77.4797
75.067
72.7713
70.6122
68.6614
67.1696
5.39134
3.51332
3.30711
3.4747
3.80031
4.22429
4.72767
5.30655
5.96436
6.70885
7.55084
8.5036
9.58276
10.8062
12.1932
13.7664
15.5509
17.5726
19.8571
22.4341
25.3347
28.5917
32.2413
36.2968
40.791
45.7511
51.2014
57.1635
63.6559
70.6917
78.2691
86.393
95.0637
104.277
114.023
124.29
135.063
146.322
158.038
170.183
182.726
195.637
208.882
222.426
236.232
250.26
264.471
278.825
293.272
307.772
322.273
336.74
351.122
365.343
379.28
392.931
406.28
419.309
431.998
444.321
456.253
467.77
478.849
489.469
499.61
509.254
518.384
526.987
535.049
542.561
549.511
555.894
561.703
566.936
571.591
575.67
579.176
582.114
584.489
586.31
587.585
588.326
588.545
588.257
587.477
586.222
584.51
582.359
579.79
576.822
573.477
569.778
565.745
561.401
556.769
551.871
546.729
541.365
535.8
530.054
524.149
518.102
511.932
505.657
499.292
492.851
486.35
479.799
473.212
466.597
459.964
453.321
446.675
440.032
433.398
426.776
420.171
413.587
407.026
400.49
393.982
387.505
381.059
374.647
368.271
361.932
355.633
349.374
343.158
336.986
330.86
324.781
318.752
312.773
306.846
300.972
295.151
289.384
283.671
278.012
272.408
266.856
261.356
255.907
250.506
245.152
239.842
234.573
229.344
224.149
218.986
213.851
208.741
203.65
198.577
193.516
188.463
183.416
178.371
173.326
168.28
163.233
158.191
153.158
148.149
143.184
138.293
133.522
128.932
124.604
120.64
117.151
114.242
111.989
110.404
109.424
108.914
108.689
108.554
108.338
107.906
107.175
106.105
104.692
102.96
100.952
98.7155
96.3057
93.7747
91.1711
88.5382
85.9132
83.3272
80.8053
78.3677
76.0298
73.8067
71.7169
69.831
68.3891
5.36137
3.47508
3.25263
3.40447
3.7167
4.13117
4.63039
5.21219
5.88219
6.65098
7.53289
8.54534
9.70914
11.0488
12.5885
14.3591
16.3965
18.7347
21.4041
24.4446
27.8952
31.7943
36.1788
41.0741
46.5104
52.5133
59.1031
66.2949
74.0977
82.5136
91.5348
101.153
111.354
122.12
133.43
145.257
157.574
170.349
183.545
197.126
211.051
225.283
239.781
254.503
269.406
284.446
299.576
314.757
329.932
345.063
360.082
374.966
389.567
403.829
417.75
431.32
444.53
457.363
469.802
481.827
493.414
504.545
515.199
525.357
535.003
544.121
552.698
560.721
568.181
575.069
581.377
587.101
592.238
596.786
600.747
604.122
606.918
609.14
610.797
611.898
612.454
612.477
611.983
610.986
609.504
607.555
605.158
602.333
599.101
595.483
591.503
587.182
582.544
577.613
572.41
566.959
561.284
555.406
549.346
543.127
536.768
530.288
523.707
517.04
510.304
503.513
496.682
489.821
482.942
476.055
469.167
462.287
455.419