/*--------------------------------*- C++ -*----------------------------------*\
  =========                 |
  \\      /  F ield         | OpenFOAM: The Open Source CFD Toolbox
   \\    /   O peration     | Website:  https://openfoam.org
    \\  /    A nd           | Version:  7
     \\/     M anipulation  |
\*---------------------------------------------------------------------------*/
FoamFile
{
    version     2.0;
    format      ascii;
    class       volScalarField;
    location    "800";
    object      k;
}
// * * * * * * * * * * * * * * * * * * * * * * * * * * * * * * * * * * * * * //

dimensions      [0 2 -2 0 0 0 0];

internalField   nonuniform List<scalar> 
16900
(
0.0120929
0.027593
0.0429
0.0569269
0.0695718
0.0808599
0.0908732
0.099687
0.107337
0.113818
0.119106
0.123223
0.126327
0.128846
0.1315
0.135061
0.137265
0.137096
0.138936
0.148928
0.159403
0.170207
0.181314
0.192713
0.204398
0.216366
0.228614
0.241137
0.253932
0.266993
0.280312
0.293883
0.307694
0.321735
0.335994
0.350457
0.365111
0.379938
0.394924
0.41005
0.425299
0.44065
0.456085
0.471582
0.487121
0.502678
0.518232
0.533759
0.549235
0.564635
0.579936
0.595111
0.610135
0.624983
0.639629
0.65405
0.668222
0.682125
0.69574
0.709055
0.722061
0.734762
0.747175
0.759339
0.771327
0.78304
0.794318
0.805165
0.815577
0.825547
0.83507
0.844141
0.852753
0.860901
0.868581
0.875787
0.882516
0.888763
0.894525
0.899798
0.904581
0.908871
0.912667
0.915967
0.918772
0.92108
0.922892
0.924207
0.925028
0.925355
0.925191
0.924539
0.9234
0.921779
0.919679
0.917105
0.914064
0.91056
0.906599
0.902188
0.897338
0.892055
0.88635
0.880231
0.873713
0.866807
0.859524
0.851878
0.84389
0.835574
0.826939
0.818012
0.808812
0.799349
0.78965
0.779745
0.769642
0.759359
0.748951
0.738423
0.72776
0.717042
0.706374
0.695803
0.685736
0.677438
0.670165
0.663037
0.655922
0.648811
0.641713
0.634641
0.627611
0.620638
0.613739
0.606931
0.600229
0.593651
0.587212
0.58093
0.574819
0.568898
0.563181
0.557686
0.552429
0.547429
0.542702
0.538269
0.534149
0.530366
0.526943
0.523907
0.521286
0.519116
0.51743
0.516272
0.515686
0.515726
0.516446
0.517913
0.520195
0.52337
0.52752
0.532731
0.539093
0.546694
0.555613
0.565913
0.577622
0.590715
0.605091
0.620547
0.636759
0.653281
0.669561
0.684982
0.69892
0.710809
0.720198
0.72678
0.730412
0.731102
0.728984
0.724286
0.717301
0.70835
0.697762
0.685856
0.67293
0.659249
0.645049
0.630529
0.61586
0.601182
0.586609
0.572235
0.558139
0.544403
0.531189
0.519196
0.0247793
0.043636
0.0597507
0.0747381
0.0884677
0.100932
0.112247
0.122562
0.132009
0.1407
0.148765
0.156444
0.164231
0.173009
0.183759
0.196032
0.209538
0.226165
0.243028
0.260644
0.278709
0.297383
0.316672
0.336551
0.357003
0.378023
0.399608
0.421756
0.444461
0.467719
0.491523
0.515862
0.540724
0.566095
0.591958
0.618295
0.645083
0.672301
0.699923
0.727924
0.756273
0.784942
0.8139
0.843113
0.872548
0.90217
0.931943
0.961828
0.991788
1.02178
1.05177
1.08171
1.11156
1.14127
1.1708
1.2001
1.22914
1.25786
1.28622
1.31418
1.34171
1.36878
1.39536
1.42143
1.44694
1.47162
1.49563
1.51897
1.54163
1.56359
1.58486
1.6054
1.6252
1.64425
1.66253
1.68004
1.69675
1.71266
1.72775
1.74202
1.75544
1.76801
1.77973
1.79058
1.80056
1.80965
1.81786
1.82517
1.83158
1.83709
1.84168
1.84537
1.84813
1.84998
1.85092
1.85093
1.85003
1.84821
1.84548
1.84185
1.83731
1.83189
1.82558
1.8184
1.81036
1.80148
1.79178
1.78127
1.76998
1.75794
1.74516
1.73167
1.71751
1.70272
1.68731
1.67135
1.65486
1.63786
1.62043
1.60264
1.58442
1.56584
1.54719
1.52846
1.50976
1.49126
1.473
1.4548
1.43667
1.41867
1.40081
1.38313
1.36568
1.34848
1.33156
1.31496
1.29871
1.28283
1.26736
1.25232
1.23774
1.22364
1.21005
1.197
1.18451
1.1726
1.1613
1.15064
1.14065
1.13136
1.12281
1.11504
1.1081
1.10204
1.09693
1.09283
1.08984
1.08806
1.08759
1.08856
1.09113
1.09545
1.10169
1.11003
1.12064
1.13369
1.14928
1.16747
1.18818
1.21123
1.23621
1.26253
1.28937
1.31569
1.34036
1.36216
1.37997
1.39285
1.40013
1.40145
1.39675
1.38628
1.37049
1.34998
1.32545
1.29761
1.26719
1.23483
1.20114
1.16663
1.13176
1.0969
1.06236
1.02837
0.995142
0.962809
0.931489
0.90129
0.872541
0.847241
0.0349101
0.0564937
0.0736195
0.0893974
0.10414
0.117909
0.130847
0.143173
0.15513
0.166975
0.179003
0.191587
0.205211
0.220408
0.237445
0.255957
0.275813
0.297167
0.319349
0.34217
0.365574
0.389647
0.414432
0.439936
0.466156
0.493093
0.520742
0.549103
0.578169
0.607935
0.63839
0.669522
0.701316
0.733754
0.766814
0.800472
0.834701
0.869472
0.904752
0.940508
0.976703
1.0133
1.05025
1.08752
1.12507
1.16284
1.2008
1.2389
1.27708
1.31529
1.3535
1.39164
1.42966
1.46752
1.50514
1.54249
1.57949
1.61611
1.65228
1.68795
1.72308
1.75761
1.79152
1.82478
1.85712
1.88858
1.91919
1.94893
1.9778
2.00578
2.03284
2.05897
2.08414
2.10835
2.13157
2.15378
2.17497
2.19513
2.21423
2.23228
2.24924
2.26512
2.2799
2.29358
2.30614
2.31758
2.32789
2.33706
2.34509
2.35198
2.35771
2.3623
2.36573
2.368
2.36912
2.36909
2.36791
2.36558
2.36211
2.3575
2.35177
2.34493
2.33698
2.32794
2.31784
2.30668
2.29449
2.28129
2.26712
2.252
2.23596
2.21904
2.20127
2.18272
2.16338
2.14334
2.12266
2.10131
2.0794
2.05711
2.0344
2.01134
1.98807
1.96466
1.9412
1.91781
1.89452
1.87131
1.84819
1.82521
1.80242
1.77986
1.75757
1.7356
1.71399
1.69278
1.672
1.65168
1.63186
1.61257
1.59384
1.5757
1.55817
1.54129
1.52508
1.50957
1.49479
1.48076
1.46753
1.45512
1.44358
1.43296
1.42331
1.4147
1.4072
1.40089
1.3959
1.39233
1.39034
1.39009
1.39175
1.39555
1.40169
1.4104
1.4219
1.43635
1.45389
1.47454
1.49818
1.52449
1.55295
1.58277
1.61292
1.64213
1.66902
1.69219
1.71036
1.72248
1.72782
1.72604
1.71715
1.7015
1.67966
1.6524
1.62054
1.58497
1.54652
1.50598
1.46403
1.4213
1.37829
1.33545
1.29311
1.25156
1.21102
1.17165
1.13358
1.09698
1.06244
1.03333
0.0428689
0.0669442
0.0851302
0.101614
0.117221
0.13217
0.146649
0.160909
0.175236
0.189932
0.205302
0.221662
0.239328
0.258558
0.279424
0.301736
0.325327
0.350105
0.375833
0.402323
0.429519
0.457464
0.486203
0.515755
0.54613
0.577332
0.609362
0.642219
0.675899
0.710397
0.745702
0.781801
0.818679
0.856314
0.894685
0.933764
0.973521
1.01392
1.05493
1.0965
1.1386
1.18118
1.22419
1.26759
1.31131
1.35531
1.39954
1.44393
1.48844
1.53301
1.57757
1.62207
1.66644
1.71063
1.75457
1.7982
1.84146
1.88427
1.92657
1.9683
2.0094
2.04981
2.08947
2.12831
2.16609
2.20286
2.23862
2.27336
2.30705
2.33967
2.3712
2.40162
2.4309
2.45903
2.48598
2.51173
2.53627
2.55958
2.58165
2.60246
2.622
2.64026
2.65723
2.67289
2.68725
2.7003
2.71203
2.72244
2.73152
2.73927
2.74568
2.75077
2.75453
2.75696
2.75807
2.75784
2.75631
2.75346
2.74931
2.74386
2.73713
2.72914
2.71989
2.7094
2.69769
2.68478
2.67071
2.65549
2.63916
2.62175
2.60331
2.58384
2.56342
2.54211
2.51989
2.49685
2.47315
2.44878
2.42381
2.39836
2.37246
2.34619
2.31964
2.29289
2.26604
2.23919
2.21237
2.1856
2.15892
2.13239
2.10606
2.07998
2.0542
2.02876
2.00372
1.97911
1.95498
1.93136
1.90828
1.88578
1.8639
1.84265
1.82207
1.80219
1.78303
1.76463
1.747
1.73018
1.7142
1.6991
1.68492
1.67171
1.65953
1.64844
1.63852
1.62989
1.62265
1.61694
1.61293
1.6108
1.61077
1.61308
1.61798
1.62574
1.63659
1.65074
1.66832
1.68935
1.71368
1.74093
1.77048
1.80143
1.83258
1.86256
1.88982
1.91284
1.93025
1.94093
1.94415
1.9396
1.92734
1.90779
1.88162
1.84969
1.81293
1.77229
1.72869
1.68298
1.63591
1.58814
1.54021
1.49259
1.44565
1.39967
1.35489
1.31147
1.26957
1.22942
1.19186
1.16123
0.0494138
0.0754642
0.0946852
0.111858
0.128228
0.1442
0.160019
0.175948
0.192277
0.209291
0.227256
0.246407
0.266934
0.288958
0.312489
0.337409
0.363581
0.390893
0.419218
0.448436
0.478496
0.509416
0.541224
0.573942
0.607584
0.642157
0.677668
0.714117
0.751505
0.789826
0.829074
0.869235
0.910296
0.952235
0.995029
1.03865
1.08307
1.12824
1.17413
1.2207
1.26789
1.31565
1.36393
1.41268
1.46184
1.51134
1.56113
1.61113
1.66129
1.71154
1.76182
1.81205
1.86217
1.91211
1.9618
2.01116
2.06012
2.10859
2.15651
2.2038
2.25038
2.29618
2.34114
2.38502
2.42775
2.46935
2.50978
2.54903
2.58707
2.62387
2.65942
2.69367
2.72661
2.75822
2.78847
2.81734
2.84481
2.87088
2.89552
2.91871
2.94046
2.96074
2.97955
2.99688
3.01273
3.0271
3.03998
3.05137
3.06127
3.06968
3.0766
3.08204
3.08601
3.0885
3.08951
3.08907
3.08717
3.08384
3.07907
3.07287
3.06527
3.05629
3.04593
3.03421
3.02116
3.00681
2.99118
2.9743
2.95619
2.93691
2.9165
2.89495
2.87236
2.84884
2.82439
2.79908
2.77302
2.74625
2.71884
2.69088
2.66243
2.63356
2.60437
2.57492
2.54532
2.51565
2.48595
2.45628
2.42668
2.39721
2.36794
2.33891
2.31018
2.28181
2.25383
2.22631
2.19927
2.17277
2.14682
2.12148
2.09677
2.07271
2.04934
2.02669
2.00478
1.98363
1.96327
1.94374
1.92505
1.90724
1.89036
1.87445
1.85957
1.84579
1.83319
1.82187
1.81197
1.80362
1.79701
1.79235
1.78987
1.78983
1.79254
1.79827
1.80732
1.81993
1.83625
1.85632
1.87997
1.90682
1.93619
1.9671
1.99826
2.02816
2.05516
2.07762
2.09406
2.10334
2.1047
2.09784
2.08287
2.06026
2.03078
1.99533
1.95492
1.91056
1.86324
1.81384
1.76315
1.71186
1.66054
1.60966
1.5596
1.51066
1.46308
1.41703
1.37268
1.33032
1.29102
1.25976
0.0548473
0.0823764
0.102525
0.120344
0.137382
0.154206
0.171122
0.1884
0.206313
0.225112
0.245016
0.266197
0.288773
0.312799
0.338263
0.365086
0.393167
0.422415
0.452745
0.484083
0.516389
0.549669
0.58394
0.619222
0.655532
0.692881
0.731279
0.770731
0.811242
0.852809
0.895428
0.93909
0.983781
1.02948
1.07617
1.12382
1.1724
1.22186
1.27216
1.32327
1.37511
1.42764
1.4808
1.53452
1.58874
1.64339
1.6984
1.75369
1.8092
1.86484
1.92055
1.97625
2.03187
2.08731
2.1425
2.19736
2.25179
2.30572
2.35905
2.41168
2.46353
2.5145
2.5645
2.61323
2.6607
2.70688
2.75175
2.79529
2.83744
2.8782
2.91752
2.95537
2.99173
3.02658
3.05989
3.09164
3.12181
3.15039
3.17736
3.20271
3.22643
3.2485
3.26894
3.28772
3.30486
3.32036
3.3342
3.3464
3.35696
3.36589
3.37318
3.37886
3.38293
3.3854
3.38627
3.38557
3.3833
3.37947
3.37411
3.36723
3.35883
3.34895
3.33761
3.32482
3.3106
3.29498
3.27802
3.25972
3.24005
3.21919
3.19716
3.17395
3.14965
3.12435
3.09807
3.0709
3.0429
3.01415
2.9847
2.95465
2.92406
2.89301
2.86157
2.82982
2.79787
2.76578
2.73361
2.70143
2.66929
2.63725
2.60537
2.57372
2.54235
2.51133
2.48069
2.45049
2.42078
2.39159
2.36295
2.33491
2.3075
2.28073
2.25465
2.22928
2.20463
2.18073
2.1576
2.13528
2.11378
2.09313
2.07338
2.05457
2.03674
2.01998
2.00435
1.98997
1.97696
1.96548
1.95571
1.94788
1.94225
1.9391
1.93875
1.94155
1.94782
1.95786
1.97186
1.98992
2.0119
2.03744
2.06584
2.09607
2.12678
2.15635
2.18301
2.205
2.22076
2.22904
2.22907
2.22054
2.20358
2.17872
2.14678
2.10872
2.06561
2.01852
1.96847
1.91638
1.86307
1.80926
1.75552
1.70235
1.65012
1.59916
1.54968
1.50188
1.45594
1.4122
1.37192
1.34048
0.059342
0.0879207
0.108836
0.127223
0.144823
0.16233
0.180102
0.19842
0.217533
0.237661
0.258982
0.281625
0.305668
0.331139
0.35802
0.386256
0.415775
0.446511
0.478405
0.511409
0.545497
0.58067
0.616942
0.654332
0.692858
0.732536
0.773381
0.815403
0.858609
0.903004
0.948587
0.995352
1.04329
1.09238
1.1426
1.19394
1.24634
1.29977
1.35419
1.40954
1.46577
1.52281
1.5806
1.63906
1.69813
1.75773
1.81777
1.87817
1.93886
1.99974
2.06073
2.12175
2.18271
2.24352
2.30408
2.36431
2.4241
2.48335
2.54196
2.59981
2.6568
2.71282
2.76764
2.82108
2.87311
2.92372
2.97286
3.0205
3.0666
3.11112
3.15403
3.1953
3.23489
3.27278
3.30896
3.34338
3.37605
3.40694
3.43604
3.46334
3.48883
3.51251
3.53437
3.55441
3.57265
3.58909
3.60372
3.61657
3.62763
3.63692
3.64446
3.65026
3.65432
3.65668
3.65733
3.65631
3.65362
3.64929
3.64333
3.63577
3.62662
3.6159
3.60365
3.58989
3.57461
3.55787
3.53974
3.52024
3.49937
3.47722
3.45384
3.42927
3.40357
3.3768
3.34901
3.32028
3.29067
3.26025
3.22909
3.19727
3.16486
3.13193
3.09855
3.06482
3.03081
2.9966
2.96227
2.92786
2.89344
2.85909
2.82486
2.79082
2.75703
2.72355
2.69042
2.65771
2.62545
2.59369
2.56246
2.5318
2.50174
2.4723
2.44352
2.4154
2.38798
2.36127
2.3353
2.31008
2.28564
2.26199
2.23919
2.21725
2.19624
2.17621
2.15724
2.13944
2.12294
2.10788
2.09446
2.08292
2.07352
2.06659
2.06247
2.06155
2.0642
2.0708
2.08162
2.09682
2.11636
2.13991
2.16682
2.19604
2.22615
2.25545
2.28201
2.30394
2.31954
2.32746
2.32685
2.31739
2.29922
2.27291
2.23931
2.19946
2.15447
2.10545
2.05346
1.99947
1.94431
1.88872
1.8333
1.77855
1.72486
1.67253
1.62181
1.57289
1.52597
1.48143
1.44066
1.40933
0.0630211
0.0922918
0.113797
0.132643
0.15069
0.168717
0.187128
0.206209
0.226194
0.247275
0.269602
0.293275
0.318351
0.344849
0.372752
0.402023
0.432614
0.46448
0.497582
0.53189
0.567388
0.604081
0.641983
0.681114
0.721496
0.76315
0.806095
0.850347
0.89592
0.942822
0.991058
1.04063
1.09152
1.14373
1.19722
1.25199
1.30798
1.36516
1.42348
1.48288
1.54331
1.60468
1.66694
1.73
1.79378
1.85818
1.92313
1.98853
2.05428
2.12028
2.18645
2.25269
2.31889
2.38495
2.45078
2.51626
2.58129
2.64575
2.70951
2.77245
2.83444
2.89534
2.9548
3.01276
3.06919
3.12404
3.17726
3.22882
3.27867
3.32677
3.37308
3.41756
3.46017
3.50091
3.53973
3.57662
3.61157
3.64456
3.67558
3.70461
3.73166
3.75672
3.77979
3.8009
3.82003
3.83722
3.85246
3.86576
3.87715
3.88665
3.89427
3.90005
3.90398
3.90611
3.90645
3.90502
3.90185
3.89697
3.89039
3.88214
3.87223
3.8607
3.84761
3.83297
3.81678
3.79911
3.78001
3.7595
3.73761
3.7144
3.68993
3.66423
3.63736
3.60939
3.58035
3.55033
3.51938
3.48757
3.45497
3.42166
3.38769
3.35315
3.3181
3.28264
3.24684
3.21077
3.17451
3.13811
3.10166
3.06521
3.02883
2.99259
2.95655
2.92077
2.88531
2.8502
2.81551
2.78127
2.74752
2.71429
2.68161
2.64951
2.61802
2.58715
2.55692
2.52734
2.49844
2.47023
2.44272
2.41595
2.38992
2.36469
2.34028
2.31676
2.29421
2.27271
2.25239
2.2334
2.21594
2.20025
2.18661
2.17535
2.16686
2.16157
2.15993
2.16238
2.1693
2.18097
2.19744
2.21851
2.24357
2.27162
2.3012
2.33046
2.35736
2.37981
2.39593
2.40424
2.40379
2.3942
2.37562
2.34864
2.31416
2.27325
2.22709
2.17684
2.12359
2.06834
2.01196
1.95521
1.89869
1.84292
1.78829
1.73513
1.68367
1.63412
1.58667
1.54175
1.50088
1.46983
0.0659864
0.0956566
0.117575
0.136762
0.155136
0.17353
0.192385
0.211992
0.232574
0.254303
0.277307
0.301672
0.327444
0.35464
0.38325
0.413252
0.444617
0.477317
0.51133
0.54664
0.583244
0.621151
0.660379
0.700953
0.742899
0.786243
0.831011
0.877226
0.924906
0.974067
1.02472
1.07686
1.1305
1.18561
1.24219
1.3002
1.35961
1.42038
1.48245
1.54576
1.61026
1.67585
1.74246
1.81
1.87838
1.94751
2.01726
2.08756
2.15827
2.22931
2.30055
2.37189
2.44322
2.51443
2.58539
2.656
2.72612
2.79563
2.86439
2.93225
2.99906
3.06454
3.12844
3.19071
3.2513
3.31017
3.36725
3.4225
3.47587
3.52731
3.57677
3.62422
3.66962
3.71294
3.75417
3.79328
3.83026
3.8651
3.89779
3.92831
3.95667
3.98287
4.00692
4.02885
4.04866
4.06638
4.082
4.09556
4.10708
4.1166
4.12414
4.12973
4.13339
4.13516
4.13506
4.13313
4.12938
4.12387
4.11663
4.10768
4.09705
4.08477
4.07091
4.05547
4.03849
4.02002
4.00008
3.97872
3.95598
3.93191
3.90653
3.87992
3.8521
3.82314
3.7931
3.76202
3.72997
3.69702
3.66322
3.62866
3.59338
3.55748
3.52101
3.48406
3.44669
3.409
3.37104
3.33288
3.2946
3.25625
3.21792
3.17965
3.14153
3.1036
3.06592
3.02855
2.99153
2.95489
2.91869
2.88295
2.8477
2.81297
2.77878
2.74515
2.71208
2.67961
2.64773
2.61646
2.58581
2.55581
2.52646
2.4978
2.46986
2.4427
2.41637
2.39098
2.36662
2.34346
2.32169
2.30153
2.28329
2.26731
2.25402
2.24388
2.23741
2.23514
2.23759
2.24517
2.25809
2.27628
2.29928
2.3261
2.35529
2.38488
2.41265
2.4363
2.45371
2.46323
2.46377
2.45488
2.43669
2.4098
2.37515
2.33388
2.2872
2.23632
2.18239
2.12644
2.06937
2.01195
1.95481
1.89848
1.84337
1.78979
1.73799
1.68818
1.64057
1.59563
1.55492
1.52429
0.0683258
0.0981619
0.120333
0.139738
0.15832
0.176944
0.196072
0.216003
0.236952
0.259078
0.282496
0.307282
0.333481
0.361109
0.390169
0.42065
0.45254
0.485827
0.520502
0.556566
0.594025
0.632896
0.673204
0.714979
0.758255
0.803063
0.849438
0.897408
0.946999
0.998233
1.05112
1.10568
1.1619
1.21978
1.2793
1.34044
1.40315
1.4674
1.53312
1.60026
1.66872
1.73845
1.80933
1.88127
1.95418
2.02793
2.10242
2.17752
2.25311
2.32907
2.40527
2.48159
2.55791
2.63411
2.71005
2.7856
2.86062
2.93498
3.00851
3.08105
3.15239
3.22213
3.29018
3.35647
3.42094
3.48353
3.54417
3.60282
3.65941
3.7139
3.76622
3.81633
3.86421
3.90982
3.95315
3.99418
4.0329
4.06931
4.10338
4.13511
4.1645
4.19156
4.21633
4.23881
4.25904
4.27705
4.29283
4.30641
4.31785
4.32718
4.33444
4.33967
4.34288
4.34413
4.34347
4.34093
4.33653
4.33035
4.32241
4.31276
4.30141
4.28843
4.27384
4.25768
4.23999
4.2208
4.20015
4.17808
4.15463
4.12983
4.10373
4.07637
4.0478
4.01807
3.98722
3.9553
3.92238
3.88851
3.85376
3.81817
3.78183
3.74479
3.70713
3.66892
3.63023
3.59113
3.55169
3.51198
3.47207
3.43203
3.39192
3.35181
3.31177
3.27184
3.2321
3.19258
3.15334
3.11442
3.07585
3.03767
2.99992
2.9626
2.92574
2.88937
2.85349
2.81811
2.78324
2.74889
2.71507
2.6818
2.64908
2.61693
2.5854
2.55451
2.52433
2.49493
2.46643
2.43896
2.41271
2.38791
2.36486
2.34392
2.32553
2.3102
2.29852
2.29114
2.28868
2.29173
2.3007
2.31571
2.33645
2.36206
2.39106
2.4214
2.45064
2.4762
2.49572
2.5073
2.50968
2.50231
2.48528
2.45921
2.42507
2.38405
2.33743
2.28648
2.23238
2.1762
2.11888
2.06122
2.00386
1.94735
1.89211
1.83846
1.78666
1.7369
1.68943
1.64472
1.6044
1.57428
0.0701187
0.0999375
0.122219
0.141728
0.160405
0.179131
0.198385
0.218469
0.239594
0.261912
0.285529
0.310518
0.336923
0.364769
0.394066
0.424818
0.457026
0.490695
0.52583
0.562443
0.600555
0.640192
0.681386
0.724177
0.768604
0.814709
0.862533
0.912112
0.96348
1.01666
1.07168
1.12854
1.18726
1.24782
1.31021
1.3744
1.44036
1.50803
1.57735
1.64825
1.72064
1.79444
1.86953
1.94582
2.02317
2.10148
2.18061
2.26043
2.34079
2.42155
2.50257
2.58372
2.66485
2.74583
2.82652
2.90678
2.98645
3.06537
3.14338
3.22028
3.29566
3.36931
3.44115
3.51109
3.57907
3.64501
3.70884
3.77052
3.82997
3.88714
3.94195
3.99437
4.04436
4.09191
4.13698
4.17958
4.2197
4.25734
4.29246
4.32507
4.35517
4.38279
4.40796
4.43072
4.45109
4.46912
4.48478
4.49815
4.50927
4.51819
4.52497
4.52964
4.53225
4.53286
4.53152
4.52827
4.52316
4.51625
4.50758
4.49719
4.48513
4.47143
4.45615
4.43931
4.42096
4.40114
4.37987
4.3572
4.33315
4.30778
4.2811
4.25317
4.22402
4.1937
4.16224
4.12969
4.09611
4.06154
4.02605
3.98967
3.95249
3.91455
3.87593
3.83668
3.79688
3.7566
3.71591
3.67486
3.63354
3.592
3.55031
3.50854
3.46674
3.42498
3.38332
3.3418
3.30047
3.25938
3.21856
3.17804
3.13786
3.09803
3.05858
3.01952
2.98087
2.94262
2.9048
2.8674
2.83043
2.7939
2.75782
2.7222
2.68706
2.65245
2.6184
2.58499
2.55232
2.52052
2.48976
2.46027
2.43233
2.40632
2.3827
2.36201
2.3449
2.33212
2.32445
2.32264
2.32735
2.33892
2.35727
2.38168
2.41071
2.44221
2.47351
2.50173
2.52418
2.53867
2.54372
2.53867
2.52356
2.49899
2.46599
2.4258
2.37977
2.32921
2.27538
2.21939
2.1622
2.10465
2.04742
1.99105
1.93598
1.88255
1.83101
1.78158
1.73449
1.69022
1.65046
1.62094
0.0714371
0.101099
0.123371
0.142878
0.161547
0.180264
0.199516
0.219609
0.240752
0.263092
0.286734
0.311747
0.338181
0.366068
0.395429
0.426281
0.458641
0.492527
0.52796
0.564966
0.603578
0.643833
0.685775
0.729452
0.774914
0.82221
0.871389
0.922496
0.975571
1.03065
1.08774
1.14688
1.20806
1.27128
1.33653
1.40377
1.47296
1.54405
1.61697
1.69162
1.76792
1.84576
1.92503
2.0056
2.08736
2.17014
2.25383
2.33825
2.42324
2.50865
2.59431
2.68007
2.76578
2.85129
2.93644
3.02107
3.10503
3.18814
3.27023
3.35094
3.42991
3.50702
3.58219
3.65533
3.72636
3.79519
3.86176
3.92601
3.98788
4.0473
4.10416
4.15845
4.21013
4.25919
4.3056
4.34936
4.39047
4.42896
4.46478
4.4979
4.52836
4.55619
4.58145
4.60415
4.62435
4.64207
4.65737
4.67028
4.68086
4.68918
4.69529
4.69924
4.70111
4.70094
4.6988
4.69474
4.68883
4.68112
4.67165
4.66049
4.64769
4.63328
4.61732
4.59983
4.58088
4.56048
4.53867
4.51549
4.49097
4.46514
4.43803
4.40968
4.38011
4.34937
4.31749
4.28451
4.25048
4.21542
4.1794
4.14246
4.10466
4.06605
4.02669
3.98664
3.94597
3.90474
3.863
3.82084
3.77831
3.73548
3.69241
3.64917
3.60581
3.56239
3.51898
3.47562
3.43235
3.38923
3.34629
3.30355
3.26106
3.21883
3.17688
3.13523
3.09389
3.05287
3.01216
2.97178
2.93173
2.89202
2.85264
2.8136
2.77494
2.73667
2.69883
2.66148
2.62472
2.58866
2.55346
2.51934
2.48657
2.45553
2.42668
2.40059
2.37799
2.35968
2.34661
2.33973
2.33992
2.34784
2.36366
2.38687
2.41611
2.44915
2.48309
2.51469
2.54088
2.55911
2.56767
2.56571
2.55321
2.5308
2.49951
2.46068
2.4157
2.36597
2.31279
2.25733
2.20061
2.14348
2.08666
2.0307
1.97606
1.92309
1.87204
1.82314
1.77663
1.733
1.69393
1.66507
0.0723473
0.101749
0.123912
0.143325
0.161894
0.180503
0.199644
0.219626
0.240657
0.262883
0.286405
0.311299
0.337619
0.365407
0.394695
0.425515
0.457899
0.491879
0.527493
0.564783
0.603795
0.644579
0.687192
0.73169
0.778134
0.826584
0.877097
0.929727
0.984518
1.04151
1.10072
1.16217
1.22586
1.2918
1.35995
1.4303
1.50279
1.57735
1.6539
1.73233
1.81255
1.89443
1.97785
2.06268
2.14875
2.23593
2.32405
2.41294
2.50241
2.59225
2.68231
2.7724
2.86238
2.95206
3.04128
3.12987
3.21765
3.30446
3.39008
3.47395
3.55595
3.63598
3.71393
3.78972
3.86324
3.93442
4.00318
4.06946
4.13324
4.19439
4.25279
4.30844
4.36132
4.41141
4.45869
4.50316
4.54482
4.58368
4.61973
4.65297
4.68342
4.71113
4.73614
4.75848
4.77822
4.79539
4.81006
4.82227
4.83209
4.83959
4.84485
4.84792
4.84888
4.84779
4.84472
4.83975
4.83294
4.82435
4.81404
4.80207
4.78849
4.77336
4.75672
4.73862
4.71909
4.69817
4.6759
4.6523
4.62741
4.60124
4.57383
4.54521
4.51539
4.48441
4.45229
4.41907
4.38477
4.34945
4.31312
4.27584
4.23764
4.19859
4.15873
4.11811
4.07679
4.03483
3.99229
3.94924
3.90572
3.86182
3.81758
3.77307
3.72834
3.68347
3.63849
3.59346
3.54843
3.50344
3.45853
3.41373
3.36907
3.32458
3.28026
3.23615
3.19224
3.14855
3.10509
3.06185
3.01883
2.97604
2.93349
2.89117
2.8491
2.80731
2.76582
2.72468
2.68398
2.64382
2.60435
2.56576
2.52833
2.49241
2.45847
2.4271
2.39906
2.37524
2.35671
2.34463
2.34014
2.34421
2.35735
2.37932
2.4089
2.44382
2.48092
2.51658
2.54727
2.57005
2.5829
2.58478
2.57558
2.55592
2.52689
2.48988
2.44637
2.39784
2.34565
2.29104
2.23506
2.17862
2.12245
2.06713
2.01314
1.96083
1.91047
1.86228
1.81652
1.77366
1.73541
1.70725
0.0729099
0.101979
0.123953
0.143192
0.161581
0.179998
0.198937
0.21871
0.239523
0.261522
0.284813
0.309475
0.335571
0.363152
0.392267
0.422961
0.455282
0.489281
0.525012
0.562531
0.601903
0.643193
0.686469
0.7318
0.779255
0.828905
0.880818
0.935053
0.991662
1.05068
1.11213
1.17603
1.24237
1.31115
1.38235
1.45593
1.53183
1.60998
1.69025
1.77254
1.85671
1.94265
2.0302
2.11921
2.20953
2.30097
2.39337
2.48656
2.58025
2.67425
2.76838
2.86245
2.95627
3.04966
3.14245
3.23444
3.32545
3.41531
3.50363
3.59002
3.67441
3.7567
3.83679
3.91457
3.98995
4.06283
4.13315
4.20083
4.26582
4.32803
4.38739
4.44384
4.49738
4.54799
4.59564
4.64034
4.68209
4.7209
4.75678
4.78974
4.81981
4.84703
4.87145
4.89311
4.91209
4.92843
4.9422
4.95346
4.9623
4.96878
4.97298
4.97499
4.97489
4.97274
4.96863
4.96263
4.95483
4.94529
4.93407
4.92125
4.90689
4.89103
4.87372
4.85502
4.83497
4.81359
4.79092
4.76699
4.74183
4.71544
4.68787
4.65911
4.6292
4.59815
4.56598
4.5327
4.49836
4.46296
4.42655
4.38914
4.35079
4.31152
4.27139
4.23043
4.18871
4.14626
4.10316
4.05944
4.01518
3.97043
3.92524
3.87968
3.83381
3.78768
3.74134
3.69485
3.64824
3.60157
3.55487
3.50818
3.46152
3.41493
3.36841
3.32199
3.27568
3.22948
3.18341
3.13746
3.09164
3.04594
3.00038
2.95494
2.90965
2.86452
2.81958
2.77486
2.73045
2.68642
2.64291
2.60012
2.55828
2.51775
2.47897
2.44255
2.40926
2.38007
2.35614
2.33883
2.32955
2.32962
2.33991
2.36056
2.39055
2.42759
2.4683
2.50863
2.54455
2.57265
2.59054
2.59696
2.5917
2.57536
2.54908
2.51433
2.47268
2.42568
2.37478
2.32128
2.2663
2.21076
2.15545
2.10097
2.04781
1.99633
1.94682
1.8995
1.85461
1.81266
1.77531
1.74787
0.0731809
0.101867
0.123589
0.142591
0.160732
0.178886
0.197548
0.217031
0.237542
0.25923
0.282204
0.306551
0.332344
0.359649
0.388529
0.419047
0.451269
0.485265
0.521106
0.558869
0.598636
0.640489
0.684511
0.730779
0.779374
0.830376
0.88386
0.939895
0.998537
1.05982
1.12375
1.19033
1.25956
1.33142
1.40588
1.48289
1.56238
1.6443
1.72843
1.81466
1.90284
1.99284
2.08449
2.17761
2.27202
2.36754
2.46398
2.56122
2.65883
2.75659
2.85434
2.95188
3.049
3.14549
3.24118
3.33586
3.42933
3.52118
3.61127
3.69939
3.78542
3.86922
3.9507
4.02974
4.10625
4.18014
4.25131
4.31972
4.38528
4.44793
4.50761
4.56427
4.61789
4.66845
4.71593
4.76035
4.8017
4.84
4.87527
4.90753
4.93681
4.96317
4.98664
5.0073
5.0252
5.04043
5.05304
5.06311
5.07073
5.07598
5.07895
5.07974
5.07841
5.07507
5.0698
5.06269
5.05382
5.04327
5.03111
5.0174
5.00223
4.98564
4.96769
4.94843
4.92789
4.90612
4.88314
4.85897
4.83364
4.80717
4.77956
4.75082
4.72098
4.69003
4.65799
4.62486
4.59067
4.55542
4.51913
4.48184
4.44355
4.40431
4.36415
4.3231
4.28121
4.23853
4.1951
4.15097
4.1062
4.06084
4.01495
3.96858
3.92178
3.87462
3.82714
3.77939
3.73143
3.68328
3.635
3.58662
3.53816
3.48965
3.44112
3.39258
3.34405
3.29554
3.24705
3.19858
3.15015
3.10175
3.05337
3.00504
2.95675
2.90851
2.86036
2.81232
2.76446
2.71686
2.66963
2.62294
2.57704
2.53223
2.48897
2.44783
2.4096
2.37528
2.34614
2.32368
2.30959
2.30552
2.3128
2.33197
2.36233
2.40166
2.44634
2.49188
2.53369
2.56782
2.59146
2.60309
2.60237
2.58989
2.56684
2.53475
2.49529
2.45013
2.40079
2.34864
2.29485
2.24042
2.18614
2.13266
2.08048
2.02999
1.98146
1.93513
1.89124
1.85029
1.81391
1.78721
0.073212
0.101486
0.122908
0.141618
0.159456
0.177289
0.195616
0.214747
0.234894
0.256208
0.278807
0.302788
0.328237
0.355235
0.383865
0.41421
0.446357
0.480397
0.516421
0.554527
0.594819
0.637401
0.682371
0.729807
0.779801
0.832442
0.887812
0.945983
1.00702
1.07096
1.13774
1.20737
1.27984
1.35512
1.43315
1.51386
1.59719
1.68312
1.77128
1.86153
1.95376
2.04779
2.14343
2.24051
2.3388
2.4381
2.53819
2.63887
2.73981
2.84077
2.94153
3.04186
3.14154
3.24035
3.33809
3.43454
3.52931
3.62229
3.71336
3.80237
3.88918
3.97366
4.05569
4.13518
4.21201
4.28611
4.35738
4.42576
4.49118
4.55359
4.61292
4.66913
4.7222
4.77212
4.81887
4.86245
4.90289
4.9402
4.9744
5.00552
5.03361
5.05871
5.08088
5.1002
5.11673
5.13055
5.14174
5.15039
5.15658
5.16041
5.16197
5.16138
5.15871
5.15406
5.14754
5.13923
5.12923
5.11762
5.10448
5.08989
5.07391
5.05662
5.03805
5.01828
4.99732
4.97523
4.95202
4.92772
4.90235
4.87591
4.84841
4.81986
4.79025
4.75958
4.72786
4.69509
4.66125
4.62637
4.59045
4.55349
4.51552
4.47655
4.43661
4.39572
4.35392
4.31125
4.26775
4.22346
4.17844
4.13272
4.08637
4.03943
3.99196
3.94401
3.89563
3.84686
3.79777
3.74837
3.69873
3.64887
3.59883
3.54864
3.49831
3.44787
3.39734
3.34672
3.29603
3.24527
3.19445
3.14357
3.09263
3.04164
2.99061
2.93954
2.88846
2.8374
2.7864
2.73555
2.68495
2.63475
2.58517
2.5365
2.48916
2.44372
2.40095
2.36187
2.3278
2.30037
2.28151
2.27324
2.27733
2.29482
2.32542
2.36706
2.41596
2.46715
2.51544
2.55626
2.58632
2.6038
2.60822
2.6001
2.5807
2.55165
2.51472
2.47166
2.42411
2.37352
2.32112
2.26795
2.21486
2.16253
2.11147
2.06208
2.01465
1.96941
1.92662
1.88675
1.85138
1.82544
0.0730516
0.100898
0.121984
0.140361
0.157851
0.17532
0.193265
0.212001
0.231742
0.252646
0.274843
0.298442
0.323548
0.350262
0.378686
0.408929
0.441107
0.475334
0.511719
0.550388
0.591469
0.635092
0.681383
0.730392
0.782226
0.836983
0.894743
0.955576
1.01956
1.08674
1.15691
1.23012
1.30632
1.38546
1.46746
1.55221
1.63961
1.72954
1.82174
1.91603
2.01223
2.11014
2.20957
2.31029
2.41207
2.51469
2.61789
2.72145
2.82506
2.92846
3.0314
3.13364
3.23493
3.33504
3.43375
3.53067
3.62574
3.71888
3.81
3.89894
3.98558
4.0698
4.15147
4.2305
4.30678
4.38023
4.45077
4.51832
4.58284
4.64425
4.70252
4.7576
4.80947
4.85812
4.90353
4.94573
4.98472
5.02054
5.0532
5.08275
5.10923
5.1327
5.15323
5.17088
5.18574
5.19789
5.20741
5.21441
5.21898
5.22121
5.22123
5.21912
5.21499
5.20896
5.20111
5.19156
5.18039
5.16771
5.15359
5.13811
5.12136
5.1034
5.08428
5.06405
5.04277
5.02045
4.99713
4.97282
4.94754
4.92128
4.89405
4.86585
4.83665
4.80646
4.77527
4.74305
4.7098
4.67551
4.64018
4.60381
4.56639
4.52795
4.48848
4.44801
4.40657
4.36418
4.32087
4.27669
4.23168
4.18587
4.13932
4.09208
4.04419
3.9957
3.94667
3.89714
3.84716
3.79677
3.74601
3.69492
3.64354
3.59189
3.54001
3.4879
3.43561
3.38313
3.33048
3.27768
3.22472
3.17162
3.11838
3.06501
3.01152
2.95791
2.90421
2.85045
2.79667
2.74293
2.68935
2.63604
2.5832
2.53112
2.48018
2.43092
2.38408
2.34067
2.30205
2.26994
2.24646
2.23395
2.23468
2.25025
2.28087
2.32473
2.37796
2.43514
2.49039
2.5385
2.57561
2.59956
2.60965
2.6064
2.59108
2.56542
2.53131
2.49062
2.44508
2.39622
2.34537
2.29362
2.24186
2.19079
2.14096
2.09277
2.04653
2.00248
1.96086
1.92213
1.8878
1.86266
0.0727459
0.100159
0.120883
0.138895
0.156003
0.173074
0.190609
0.208924
0.228241
0.24873
0.270535
0.293784
0.318606
0.345129
0.373474
0.403786
0.436222
0.47092
0.508005
0.547636
0.589969
0.635169
0.683418
0.734659
0.789041
0.846659
0.907578
0.971844
1.03948
1.11048
1.18471
1.26211
1.3426
1.4261
1.51246
1.60155
1.69322
1.7873
1.88356
1.98177
2.08173
2.18322
2.286
2.38985
2.49452
2.59975
2.7053
2.81088
2.91622
3.02105
3.12507
3.22805
3.32972
3.4298
3.52797
3.62422
3.71851
3.81074
3.90083
3.98866
4.0741
4.15703
4.23734
4.31494
4.38973
4.46163
4.53055
4.59644
4.65923
4.71888
4.77535
4.82859
4.87859
4.92533
4.96882
5.00906
5.04608
5.07991
5.11057
5.13812
5.1626
5.18408
5.20262
5.21831
5.23122
5.24145
5.2491
5.25426
5.25703
5.25754
5.25587
5.25216
5.2465
5.23902
5.22981
5.21899
5.20666
5.19291
5.17784
5.16153
5.14406
5.1255
5.10591
5.08533
5.06382
5.0414
5.01809
4.99392
4.96888
4.94297
4.91618
4.88851
4.85993
4.83042
4.79996
4.76852
4.73609
4.70264
4.66815
4.63261
4.59601
4.55835
4.51962
4.47985
4.43903
4.39719
4.35436
4.31056
4.26583
4.22021
4.17374
4.12647
4.07843
4.02969
3.98027
3.93024
3.87964
3.82852
3.77691
3.72485
3.67239
3.61955
3.56636
3.51285
3.45905
3.40498
3.35064
3.29606
3.24124
3.1862
3.13095
3.07549
3.01984
2.96401
2.90802
2.8519
2.79569
2.73946
2.68329
2.6273
2.57167
2.51665
2.4626
2.41003
2.35965
2.31243
2.26972
2.23329
2.20541
2.18872
2.18595
2.19932
2.22963
2.27549
2.33301
2.39637
2.45899
2.51491
2.55966
2.59065
2.60696
2.60905
2.59823
2.57631
2.54531
2.50722
2.46389
2.41695
2.3678
2.3176
2.26728
2.21758
2.16907
2.12217
2.07721
2.0344
1.99401
1.95645
1.92321
1.89887
0.0723396
0.099319
0.119663
0.137285
0.153986
0.170639
0.187749
0.20564
0.224547
0.244656