/*--------------------------------*- C++ -*----------------------------------*\
  =========                 |
  \\      /  F ield         | OpenFOAM: The Open Source CFD Toolbox
   \\    /   O peration     | Website:  https://openfoam.org
    \\  /    A nd           | Version:  7
     \\/     M anipulation  |
\*---------------------------------------------------------------------------*/
FoamFile
{
    version     2.0;
    format      ascii;
    class       volScalarField;
    location    "800";
    object      nut;
}
// * * * * * * * * * * * * * * * * * * * * * * * * * * * * * * * * * * * * * //

dimensions      [0 2 -1 0 0 0 0];

internalField   nonuniform List<scalar> 
16900
(
1.46865e-05
4.12716e-05
6.41801e-05
8.51726e-05
0.000104089
0.000120969
0.000135916
0.000149036
0.000160365
0.000169926
0.000177802
0.000184315
0.000190295
0.000197215
0.000206857
0.000212385
0.000215443
0.000215493
4.83345e-05
4.99436e-05
5.16741e-05
5.34e-05
5.51161e-05
5.68236e-05
5.85216e-05
6.02112e-05
6.18926e-05
6.35659e-05
6.52312e-05
6.68883e-05
6.85371e-05
7.01771e-05
7.18078e-05
7.34285e-05
7.50386e-05
7.66373e-05
7.82237e-05
7.97969e-05
8.1356e-05
8.29e-05
8.4428e-05
8.59388e-05
8.74315e-05
8.89051e-05
9.03585e-05
9.17906e-05
9.32004e-05
9.45869e-05
9.59488e-05
9.72852e-05
9.8595e-05
9.98771e-05
0.00010113
0.000102354
0.000103547
0.000104708
0.000105836
0.000106932
0.000107994
0.000109023
0.000110018
0.000110981
0.000111915
0.000112821
0.000113708
0.000114568
0.00011539
0.000116175
0.000116923
0.000117635
0.000118312
0.000118952
0.000119558
0.000120127
0.000120662
0.000121162
0.000121626
0.000122057
0.000122452
0.000122813
0.00012314
0.000123433
0.000123692
0.000123918
0.000124109
0.000124267
0.000124392
0.000124484
0.000124543
0.000124569
0.000124562
0.000124523
0.000124451
0.000124347
0.000124212
0.000124044
0.000123845
0.000123615
0.000123354
0.000123062
0.000122739
0.000122386
0.000122003
0.000121591
0.00012115
0.00012068
0.000120182
0.000119657
0.000119105
0.000118527
0.000117923
0.000117295
0.000116643
0.000115969
0.000115272
0.000114556
0.000113819
0.000113064
0.000112293
0.000111507
0.000110704
0.000109891
0.000109074
0.00010826
0.000107483
0.000106853
0.000106286
0.000105724
0.000105158
0.000104588
0.000104015
0.00010344
0.000102864
0.000102287
0.000101713
0.000101141
0.000100574
0.000100013
9.94584e-05
9.89132e-05
9.83782e-05
9.78552e-05
9.73456e-05
9.6851e-05
9.63732e-05
9.59138e-05
9.54746e-05
9.50575e-05
9.46645e-05
9.42977e-05
9.39594e-05
9.3652e-05
9.33783e-05
9.31412e-05
9.2944e-05
9.27903e-05
9.26841e-05
9.26298e-05
9.26324e-05
9.26969e-05
9.28295e-05
9.30361e-05
9.33238e-05
9.36991e-05
9.41696e-05
9.4742e-05
9.54231e-05
9.62182e-05
9.71308e-05
9.81605e-05
9.9302e-05
0.000100542
0.00010186
0.000103222
0.000104589
0.000105912
0.000107141
0.00010823
0.000109139
0.000109838
0.000110311
0.000110553
0.000110569
0.000110371
0.000109978
0.000109412
0.000108695
0.000107851
0.000106902
0.000105869
0.000104769
0.000103619
0.000102434
0.000101225
0.000100004
9.87788e-05
9.75583e-05
9.6351e-05
9.51745e-05
9.41e-05
3.00994e-05
9.66265e-05
0.000134307
0.000162761
0.000187196
0.000208461
0.000226699
0.000241851
0.000253682
0.000261805
0.000265833
0.000265741
0.000262441
0.00025825
0.000256309
0.000257117
0.000254886
0.000249661
0.000240682
0.000251192
0.000262767
0.000274616
0.000286656
0.000298846
0.00031116
0.000323593
0.000336145
0.00034882
0.000361621
0.000374551
0.000387613
0.000400809
0.000414136
0.000427595
0.000441181
0.000454892
0.000468721
0.000482664
0.000496713
0.000510862
0.000525102
0.000539426
0.000553825
0.000568289
0.00058281
0.000597378
0.000611982
0.000626612
0.000641256
0.000655901
0.000670533
0.000685139
0.0006997
0.000714199
0.000728617
0.000742929
0.000757113
0.000771141
0.000784984
0.000798609
0.000811981
0.000825058
0.000837794
0.000850132
0.000861937
0.000872978
0.000883701
0.000894162
0.00090437
0.000914326
0.000924031
0.000933485
0.000942686
0.000951636
0.000960332
0.000968773
0.000976959
0.000984889
0.00099256
0.000999972
0.00100712
0.00101401
0.00102063
0.00102699
0.00103309
0.00103891
0.00104446
0.00104974
0.00105474
0.00105947
0.00106391
0.00106808
0.00107195
0.00107554
0.00107884
0.00108184
0.00108455
0.00108696
0.00108906
0.00109086
0.00109234
0.00109352
0.00109439
0.00109494
0.00109518
0.0010951
0.00109471
0.00109399
0.00109297
0.00109163
0.00108999
0.00108803
0.00108578
0.00108324
0.0010804
0.00107729
0.00107391
0.00107026
0.00106636
0.00106226
0.00105794
0.00105338
0.00104856
0.00104347
0.00103785
0.0010311
0.00102346
0.00101548
0.00100735
0.000999189
0.000991024
0.000982888
0.000974803
0.000966788
0.000958858
0.00095103
0.000943316
0.000935731
0.000928287
0.000920994
0.000913866
0.000906912
0.000900143
0.000893569
0.0008872
0.000881045
0.000875117
0.000869426
0.000863983
0.000858803
0.000853901
0.000849295
0.000845007
0.000841061
0.000837486
0.000834319
0.000831601
0.00082938
0.000827714
0.000826668
0.000826316
0.000826739
0.000828021
0.00083025
0.000833505
0.000837854
0.000843334
0.000849939
0.000857602
0.000866175
0.000875412
0.000884964
0.000894381
0.000903136
0.000910665
0.000916417
0.000919911
0.00092078
0.000918802
0.000913912
0.000906191
0.000895837
0.000883138
0.000868433
0.000852086
0.00083446
0.000815894
0.0007967
0.000777151
0.000757482
0.000737887
0.000718526
0.000699526
0.000680987
0.000662985
0.000645576
0.000628813
0.000612772
0.000597754
0.000585276
4.2419e-05
0.000135051
0.000188331
0.000223902
0.000252659
0.000277306
0.000298489
0.000316387
0.000331055
0.000342572
0.000351225
0.000357805
0.000363871
0.000371637
0.000382927
0.000397356
0.000412604
0.000428963
0.000447436
0.000470207
0.000493604
0.000517226
0.000541073
0.000565154
0.000589472
0.000614035
0.000638852
0.000663931
0.000689279
0.000714901
0.0007408
0.000766975
0.000793422
0.000820134
0.000847104
0.000874318
0.000901765
0.000929428
0.00095729
0.000985333
0.00101354
0.00104188
0.00107033
0.00109889
0.00112751
0.00115618
0.00118486
0.00121354
0.00124219
0.00127077
0.00129926
0.00132762
0.00135581
0.00138381
0.00141156
0.00143902
0.00146615
0.0014929
0.00151921
0.00154503
0.0015703
0.00159497
0.00161897
0.00164226
0.00166438
0.00168568
0.00170638
0.00172652
0.00174612
0.0017652
0.00178374
0.00180176
0.00181926
0.00183623
0.00185267
0.00186858
0.00188397
0.00189883
0.00191317
0.00192697
0.00194024
0.00195298
0.00196519
0.00197687
0.00198801
0.00199861
0.00200868
0.00201821
0.00202719
0.00203562
0.0020435
0.00205084
0.00205761
0.00206382
0.00206947
0.00207454
0.00207904
0.00208296
0.00208629
0.00208903
0.00209117
0.00209271
0.00209365
0.00209398
0.0020937
0.0020928
0.00209129
0.00208917
0.00208644
0.0020831
0.00207916
0.00207462
0.0020695
0.00206381
0.00205756
0.00205076
0.00204346
0.00203566
0.00202737
0.00201864
0.00200951
0.00199996
0.00198993
0.00197941
0.0019682
0.00195597
0.00194281
0.00192907
0.001915
0.00190073
0.00188635
0.00187192
0.00185748
0.00184307
0.00182873
0.00181449
0.00180037
0.0017864
0.00177261
0.00175903
0.00174567
0.00173255
0.00171971
0.00170716
0.00169492
0.00168302
0.00167148
0.00166033
0.0016496
0.00163931
0.00162952
0.00162025
0.00161157
0.00160354
0.00159623
0.00158972
0.00158411
0.00157953
0.00157611
0.00157401
0.0015734
0.00157448
0.00157746
0.00158254
0.00158992
0.00159978
0.00161221
0.00162723
0.0016447
0.00166432
0.00168554
0.00170762
0.00172957
0.00175023
0.00176837
0.0017828
0.00179249
0.00179666
0.00179487
0.00178699
0.00177322
0.00175401
0.00172998
0.00170186
0.00167041
0.00163639
0.00160052
0.00156344
0.00152571
0.00148781
0.00145013
0.001413
0.00137666
0.00134133
0.00130714
0.00127422
0.00124267
0.0012127
0.00118513
0.00116366
5.20921e-05
0.000163642
0.000230512
0.000273166
0.000306171
0.000334245
0.000358874
0.000380687
0.00040014
0.000417725
0.000434093
0.00045019
0.000467328
0.000486964
0.000509938
0.000535923
0.000563872
0.000593441
0.000624686
0.000657279
0.00069027
0.000723496
0.000756978
0.000790746
0.000824824
0.00085923
0.000893977
0.000929078
0.000964539
0.00100036
0.00103655
0.0010731
0.00111
0.00114723
0.00118479
0.00122264
0.00126077
0.00129915
0.00133775
0.00137655
0.0014155
0.00145458
0.00149374
0.00153296
0.00157219
0.0016114
0.00165055
0.00168959
0.00172849
0.00176721
0.0018057
0.00184392
0.00188181
0.00191934
0.00195645
0.00199308
0.00202918
0.00206469
0.00209956
0.00213371
0.00216709
0.00219963
0.00223128
0.00226194
0.00229135
0.0023198
0.00234744
0.00237432
0.00240044
0.00242583
0.00245049
0.00247442
0.00249763
0.00252011
0.00254187
0.00256291
0.00258324
0.00260285
0.00262174
0.00263992
0.00265738
0.00267414
0.00269018
0.0027055
0.00272012
0.00273403
0.00274722
0.0027597
0.00277146
0.00278251
0.00279283
0.00280242
0.00281129
0.00281942
0.00282681
0.00283345
0.00283933
0.00284446
0.00284881
0.00285238
0.00285518
0.00285718
0.00285837
0.00285876
0.00285834
0.00285711
0.00285505
0.00285217
0.00284847
0.00284395
0.00283862
0.00283248
0.00282554
0.00281783
0.00280935
0.00280013
0.00279019
0.00277957
0.00276829
0.00275637
0.00274386
0.00273076
0.00271705
0.00270272
0.00268767
0.00267176
0.00265502
0.00263764
0.0026198
0.00260162
0.0025832
0.00256462
0.00254594
0.0025272
0.00250847
0.00248977
0.00247115
0.00245264
0.00243429
0.00241613
0.00239818
0.00238048
0.00236307
0.00234597
0.00232922
0.00231286
0.00229691
0.00228143
0.00226645
0.00225203
0.00223822
0.0022251
0.00221275
0.00220127
0.00219076
0.00218136
0.00217323
0.00216657
0.00216158
0.00215851
0.00215766
0.00215933
0.00216387
0.00217162
0.00218292
0.00219807
0.00221727
0.0022406
0.00226789
0.00229873
0.00233234
0.00236758
0.00240297
0.00243677
0.00246709
0.00249212
0.00251028
0.00252039
0.00252177
0.00251424
0.00249807
0.00247393
0.00244274
0.00240555
0.00236349
0.00231768
0.00226914
0.00221881
0.0021675
0.00211592
0.00206462
0.00201409
0.00196468
0.0019167
0.00187035
0.00182582
0.00178328
0.00174311
0.00170668
0.00167949
6.0044e-05
0.000186016
0.000264603
0.000314195
0.000351624
0.000383378
0.000411852
0.000438154
0.000463047
0.000487237
0.000511458
0.000536522
0.000563308
0.000592614
0.000624775
0.000659504
0.000696177
0.000734342
0.000773694
0.000813805
0.000854296
0.000895071
0.000936142
0.000977538
0.00101928
0.0010614
0.00110391
0.00114682
0.00119013
0.00123384
0.00127796
0.00132247
0.00136735
0.00141259
0.00145816
0.00150403
0.00155018
0.00159656
0.00164313
0.00168987
0.00173671
0.00178362
0.00183056
0.00187747
0.0019243
0.00197101
0.00201755
0.00206387
0.00210992
0.00215565
0.00220101
0.00224595
0.00229042
0.00233436
0.00237772
0.00242045
0.00246249
0.00250378
0.00254427
0.00258388
0.00262257
0.00266028
0.00269698
0.00273238
0.00276657
0.00279973
0.00283194
0.00286325
0.00289366
0.00292321
0.00295188
0.0029797
0.00300666
0.00303277
0.00305804
0.00308247
0.00310606
0.00312881
0.00315074
0.00317184
0.00319212
0.00321157
0.00323021
0.00324804
0.00326505
0.00328125
0.00329665
0.00331123
0.003325
0.00333796
0.0033501
0.00336143
0.00337193
0.0033816
0.00339044
0.00339843
0.00340557
0.00341185
0.00341726
0.00342179
0.00342542
0.00342815
0.00342996
0.00343084
0.00343079
0.00342979
0.00342784
0.00342492
0.00342106
0.00341622
0.00341042
0.00340367
0.00339597
0.00338732
0.00337776
0.00336731
0.00335598
0.00334382
0.00333084
0.00331708
0.00330256
0.00328732
0.00327136
0.00325467
0.00323724
0.00321901
0.0032
0.00318033
0.00316009
0.00313942
0.00311839
0.00309709
0.00307558
0.00305393
0.00303218
0.00301038
0.00298859
0.00296685
0.0029452
0.00292368
0.00290233
0.0028812
0.00286032
0.00283973
0.00281947
0.00279959
0.00278014
0.00276116
0.00274271
0.00272487
0.0027077
0.0026913
0.00267577
0.00266123
0.00264785
0.00263579
0.00262526
0.00261652
0.00260985
0.00260559
0.00260414
0.00260591
0.0026114
0.00262109
0.00263548
0.00265503
0.00268007
0.00271079
0.00274705
0.00278838
0.00283382
0.00288193
0.00293075
0.00297797
0.00302108
0.00305765
0.00308556
0.00310322
0.0031097
0.00310476
0.00308874
0.00306248
0.00302718
0.0029842
0.00293499
0.00288095
0.00282341
0.00276355
0.00270241
0.00264087
0.00257964
0.00251934
0.00246041
0.00240324
0.0023481
0.00229522
0.00224486
0.00219756
0.00215522
0.00212467
6.66442e-05
0.000203893
0.00029268
0.000348965
0.000390946
0.000426535
0.000458969
0.00048978
0.000519937
0.000550214
0.0005813
0.000613813
0.000648293
0.000685117
0.000724356
0.000765738
0.000808816
0.000853177
0.000898483
0.000944412
0.000990742
0.0010374
0.00108438
0.00113171
0.0011794
0.00122748
0.00127596
0.00132485
0.00137415
0.00142386
0.00147397
0.00152447
0.00157533
0.00162653
0.00167804
0.00172983
0.00178185
0.00183406
0.00188642
0.00193887
0.00199138
0.00204387
0.0020963
0.00214862
0.00220076
0.00225268
0.00230432
0.00235562
0.00240653
0.00245699
0.00250696
0.00255637
0.00260518
0.00265334
0.00270079
0.00274749
0.00279337
0.00283839
0.00288249
0.00292561
0.0029677
0.00300871
0.00304859
0.00308709
0.00312438
0.00316059
0.00319577
0.00322996
0.00326317
0.00329543
0.00332674
0.0033571
0.00338653
0.00341504
0.00344262
0.00346929
0.00349505
0.00351991
0.00354388
0.00356696
0.00358915
0.00361047
0.00363091
0.00365048
0.0036692
0.00368706
0.00370406
0.0037202
0.00373549
0.00374993
0.00376352
0.00377625
0.00378812
0.00379912
0.00380924
0.00381848
0.00382684
0.00383429
0.00384081
0.00384641
0.00385107
0.00385476
0.00385748
0.0038592
0.00385993
0.00385963
0.00385829
0.00385591
0.00385249
0.00384799
0.00384242
0.00383579
0.00382811
0.00381937
0.00380961
0.00379883
0.00378706
0.00377432
0.00376064
0.00374605
0.00373058
0.00371425
0.0036971
0.00367914
0.00366037
0.0036408
0.00362044
0.00359937
0.00357767
0.00355542
0.00353272
0.00350963
0.00348623
0.00346258
0.00343873
0.00341474
0.00339066
0.00336654
0.00334243
0.00331838
0.00329443
0.00327062
0.003247
0.00322361
0.00320051
0.00317774
0.00315536
0.00313342
0.003112
0.00309116
0.003071
0.00305163
0.00303317
0.00301577
0.00299959
0.00298487
0.00297184
0.00296082
0.00295215
0.00294625
0.00294361
0.00294478
0.00295036
0.002961
0.00297739
0.00300016
0.00302983
0.00306672
0.00311083
0.00316169
0.00321822
0.00327873
0.00334083
0.00340166
0.00345807
0.00350697
0.00354567
0.00357214
0.00358519
0.00358448
0.00357044
0.00354409
0.00350687
0.00346044
0.00340654
0.00334687
0.00328301
0.00321637
0.00314818
0.00307948
0.00301113
0.00294383
0.00287812
0.00281445
0.00275314
0.00269448
0.00263878
0.00258676
0.00254075
0.0025085
7.21023e-05
0.000218245
0.000315962
0.00037861
0.000425148
0.00046458
0.000500867
0.000535908
0.000570806
0.000606343
0.000643115
0.000681576
0.000722033
0.000764626
0.000809287
0.000855756
0.000903674
0.000952697
0.00100253
0.00105294
0.00110375
0.00115492
0.00120641
0.00125826
0.00131046
0.00136304
0.00141601
0.00146937
0.00152312
0.00157726
0.00163177
0.00168664
0.00174184
0.00179734
0.00185312
0.00190912
0.0019653
0.00202163
0.00207804
0.00213448
0.0021909
0.00224724
0.00230344
0.00235944
0.00241518
0.00247061
0.00252565
0.00258026
0.00263438
0.00268795
0.00274091
0.00279323
0.00284484
0.00289569
0.00294575
0.00299496
0.00304327
0.00309064
0.00313702
0.00318235
0.00322659
0.0032697
0.00331153
0.00335204
0.00339135
0.00342955
0.00346668
0.00350276
0.00353783
0.00357189
0.00360495
0.00363702
0.00366811
0.00369823
0.00372738
0.00375558
0.00378284
0.00380915
0.00383454
0.003859
0.00388255
0.00390519
0.00392694
0.0039478
0.00396778
0.00398689
0.00400512
0.00402249
0.004039
0.00405464
0.00406944
0.00408337
0.00409644
0.00410864
0.00411996
0.0041304
0.00413996
0.0041486
0.00415631
0.00416309
0.00416892
0.00417377
0.00417761
0.00418044
0.00418225
0.004183
0.00418265
0.0041812
0.00417865
0.00417498
0.00417018
0.00416424
0.00415717
0.00414897
0.00413966
0.00412923
0.00411771
0.00410511
0.00409147
0.00407681
0.00406115
0.00404453
0.00402697
0.0040085
0.00398915
0.00396893
0.00394789
0.00392606
0.00390352
0.00388034
0.0038566
0.00383236
0.00380769
0.00378265
0.00375732
0.00373173
0.00370595
0.00368003
0.00365402
0.00362797
0.00360193
0.00357594
0.00355005
0.00352432
0.00349879
0.00347351
0.00344856
0.00342398
0.00339985
0.00337627
0.00335331
0.00333111
0.0033098
0.00328953
0.00327052
0.00325299
0.00323724
0.00322361
0.00321249
0.00320439
0.00319988
0.00319959
0.00320429
0.00321479
0.00323195
0.00325661
0.00328954
0.00333128
0.003382
0.00344134
0.00350821
0.00358069
0.00365602
0.00373077
0.00380111
0.00386322
0.00391378
0.00395027
0.00397118
0.00397608
0.00396546
0.00394053
0.00390299
0.0038548
0.003798
0.00373458
0.00366634
0.00359494
0.00352175
0.00344798
0.0033746
0.0033024
0.00323199
0.00316387
0.00309842
0.00303594
0.00297683
0.00292193
0.00287394
0.00284113
7.65689e-05
0.000229708
0.000335249
0.000403865
0.00045484
0.000497996
0.000537892
0.000576737
0.000615744
0.000655674
0.000697039
0.000740162
0.000785206
0.00083218
0.000880947
0.000931259
0.000982814
0.00103533
0.00108856
0.00114231
0.00119646
0.00125096
0.00130578
0.00136093
0.00141641
0.00147223
0.00152841
0.00158495
0.00164184
0.00169907
0.00175664
0.00181452
0.00187269
0.00193112
0.00198976
0.00204859
0.00210755
0.0021666
0.00222568
0.00228474
0.00234372
0.00240256
0.00246119
0.00251957
0.00257762
0.00263528
0.00269249
0.0027492
0.00280534
0.00286086
0.00291571
0.00296983
0.00302317
0.0030757
0.00312736
0.00317811
0.00322792
0.00327673
0.00332451
0.00337121
0.00341678
0.00346118
0.00350425
0.00354608
0.00358673
0.00362627
0.00366471
0.0037021
0.00373844
0.00377375
0.00380804
0.0038413
0.00387357
0.00390483
0.0039351
0.0039644
0.00399273
0.00402011
0.00404653
0.00407202
0.00409658
0.00412022
0.00414296
0.00416481
0.00418578
0.00420588
0.00422512
0.00424349
0.00426102
0.0042777
0.00429355
0.00430856
0.00432273
0.00433604
0.0043485
0.00436012
0.00437088
0.00438073
0.00438968
0.00439771
0.00440483
0.00441098
0.00441611
0.00442023
0.00442332
0.00442534
0.00442627
0.00442608
0.00442477
0.0044223
0.00441866
0.00441385
0.00440785
0.00440066
0.00439228
0.00438272
0.00437197
0.00436007
0.00434701
0.00433284
0.00431756
0.00430121
0.00428382
0.00426541
0.00424603
0.0042257
0.00420446
0.00418235
0.00415943
0.00413577
0.00411143
0.00408648
0.00406098
0.00403499
0.00400859
0.00398182
0.00395473
0.0039274
0.00389986
0.00387217
0.00384437
0.00381653
0.00378868
0.00376089
0.00373319
0.00370565
0.00367834
0.0036513
0.00362464
0.00359842
0.00357275
0.00354776
0.00352358
0.0035004
0.00347842
0.0034579
0.00343914
0.00342253
0.0034085
0.00339761
0.0033905
0.00338792
0.00339074
0.00339994
0.0034166
0.00344179
0.00347655
0.00352173
0.00357778
0.00364451
0.00372094
0.00380501
0.00389363
0.00398276
0.00406782
0.00414421
0.00420782
0.00425557
0.00428561
0.00429735
0.00429136
0.00426906
0.00423242
0.00418374
0.00412536
0.00405955
0.00398837
0.00391367
0.00383701
0.00375973
0.00368289
0.00360737
0.00353385
0.00346285
0.0033948
0.00333002
0.00326897
0.0032126
0.00316385
0.00313129
8.01671e-05
0.000238747
0.000351119
0.000425263
0.000480462
0.000527128
0.000570308
0.000612478
0.000654943
0.000698452
0.000743446
0.000790158
0.00083866
0.000888889
0.000940682
0.000993801
0.00104799
0.00110301
0.00115865
0.00121476
0.00127124
0.00132803
0.00138511
0.00144247
0.00150013
0.00155809
0.00161635
0.00167491
0.00173378
0.00179295
0.0018524
0.00191212
0.00197207
0.00203224
0.00209259
0.00215308
0.00221366
0.00227429
0.00233492
0.0023955
0.00245595
0.00251624
0.00257629
0.00263604
0.00269543
0.00275439
0.00281287
0.00287081
0.00292814
0.0029848
0.00304075
0.00309593
0.0031503
0.0032038
0.00325641
0.00330808
0.00335877
0.00340844
0.00345706
0.00350459
0.00355098
0.00359616
0.00364009
0.00368283
0.00372443
0.00376491
0.00380432
0.00384266
0.00387994
0.00391618
0.00395139
0.00398556
0.0040187
0.00405084
0.00408197
0.00411211
0.00414128
0.00416947
0.00419671
0.00422301
0.00424837
0.00427281
0.00429635
0.00431901
0.0043408
0.00436173
0.00438181
0.00440105
0.00441947
0.00443706
0.00445386
0.00446987
0.00448505
0.00449942
0.00451298
0.00452573
0.0045377
0.00454878
0.00455899
0.00456832
0.00457676
0.00458427
0.00459082
0.00459637
0.00460092
0.00460442
0.00460685
0.00460817
0.00460836
0.00460739
0.00460523
0.00460187
0.00459729
0.00459147
0.00458441
0.00457609
0.00456653
0.00455572
0.00454367
0.00453041
0.00451594
0.0045003
0.00448351
0.0044656
0.0044466
0.00442656
0.0044055
0.00438347
0.00436052
0.00433672
0.00431212
0.00428678
0.00426077
0.00423415
0.00420698
0.00417931
0.00415121
0.00412273
0.00409392
0.00406484
0.00403554
0.00400606
0.00397646
0.00394679
0.00391711
0.00388746
0.00385792
0.00382856
0.00379944
0.00377065
0.00374231
0.00371453
0.00368746
0.00366128
0.0036362
0.00361249
0.00359047
0.00357054
0.00355317
0.00353895
0.00352858
0.0035229
0.0035229
0.00352972
0.00354463
0.00356899
0.00360416
0.00365134
0.00371134
0.00378434
0.00386952
0.00396481
0.00406681
0.0041709
0.00427165
0.00436351
0.00444151
0.00450186
0.00454227
0.00456203
0.00456175
0.00454309
0.00450835
0.00446014
0.00440116
0.00433397
0.00426091
0.004184
0.00410501
0.00402537
0.00394626
0.00386863
0.00379319
0.00372052
0.00365105
0.00358514
0.00352326
0.00346647
0.00341787
0.00338607
8.30046e-05
0.000245726
0.000364029
0.000443233
0.000502376
0.000552278
0.000598378
0.00064338
0.000688679
0.000735021
0.0007828
0.000832188
0.000883201
0.000935742
0.000989635
0.00104466
0.00110059
0.00115723
0.00121438
0.00127194
0.00132981
0.00138793
0.00144629
0.00150488
0.0015637
0.00162275
0.00168205
0.00174161
0.00180141
0.00186145
0.00192173
0.00198224
0.00204294
0.00210383
0.00216487
0.00222602
0.00228726
0.00234853
0.00240979
0.00247099
0.00253207
0.00259298
0.00265365
0.00271402
0.00277403
0.00283362
0.00289272
0.00295127
0.00300921
0.00306647
0.00312301
0.00317876
0.00323369
0.00328774
0.00334088
0.00339306
0.00344427
0.00349445
0.00354357
0.0035916
0.00363849
0.00368422
0.0037288
0.00377224
0.00381457
0.00385581
0.00389598
0.00393509
0.00397314
0.00401015
0.00404611
0.00408102
0.00411491
0.00414776
0.00417961
0.00421045
0.00424031
0.0042692
0.00429712
0.00432409
0.00435013
0.00437524
0.00439946
0.00442281
0.00444531
0.00446697
0.0044878
0.0045078
0.004527
0.00454543
0.0045631
0.00458004
0.00459618
0.00461155
0.00462615
0.00464001
0.0046531
0.00466539
0.00467687
0.00468753
0.00469735
0.0047063
0.00471434
0.00472144
0.00472758
0.00473271
0.0047368
0.00473981
0.00474171
0.00474245
0.00474201
0.00474035
0.00473745
0.00473328
0.00472782
0.00472106
0.00471298
0.00470359
0.00469288
0.00468086
0.00466755
0.00465295
0.0046371
0.00462002
0.00460174
0.00458229
0.00456172
0.00454006
0.00451737
0.00449369
0.00446909
0.00444362
0.00441735
0.00439033
0.00436262
0.00433429
0.00430539
0.00427597
0.00424609
0.00421581
0.00418517
0.00415422
0.00412303
0.00409164
0.0040601
0.00402847
0.00399681
0.0039652
0.0039337
0.00390241
0.00387142
0.00384086
0.00381087
0.00378164
0.00375337
0.00372633
0.00370085
0.00367733
0.00365627
0.00363828
0.0036241
0.00361464
0.003611
0.00361444
0.00362647
0.0036487
0.00368286
0.00373058
0.00379316
0.0038712
0.00396423
0.00407031
0.00418579
0.00430543
0.00442291
0.00453157
0.00462539
0.00469975
0.00475185
0.00478076
0.0047872
0.00477306
0.004741
0.00469404
0.00463521
0.00456741
0.00449324
0.00441496
0.00433447
0.00425336
0.00417289
0.00409405
0.00401762
0.00394419
0.00387419
0.00380802
0.00374616
0.00368972
0.00364191
0.00361119
8.51776e-05
0.000250949
0.000374358
0.000458144
0.00052091
0.000573737
0.000622372
0.000669722
0.000717267
0.000765761
0.000815574
0.000866837
0.000919536
0.000973555
0.00102872
0.00108483
0.00114167
0.00119908
0.00125691
0.00131503
0.00137338
0.00143191
0.0014906
0.00154945
0.00160845
0.00166763
0.00172699
0.00178654
0.00184628
0.00190623
0.00196638
0.00202672
0.00208725
0.00214795
0.0022088
0.00226978
0.00233085
0.00239199
0.00245314
0.00251426
0.0025753
0.0026362
0.0026969
0.00275735
0.00281748
0.00287721
0.0029365
0.00299526
0.00305343
0.00311095
0.00316775
0.00322379
0.003279
0.00333335
0.00338678
0.00343927
0.00349078
0.00354127
0.0035907
0.00363905
0.00368634
0.00373256
0.00377769
0.00382174
0.00386472
0.00390664
0.00394749
0.00398729
0.00402604
0.00406373
0.00410037
0.00413596
0.00417051
0.00420402
0.00423651
0.00426798
0.00429846
0.00432797
0.0043565
0.00438408
0.00441071
0.00443642
0.00446124
0.0044852
0.00450833
0.00453065
0.00455214
0.00457284
0.00459276
0.00461194
0.00463039
0.00464814
0.00466516
0.00468147
0.00469708
0.00471199
0.0047262
0.00473969
0.00475244
0.00476445
0.00477567
0.0047861
0.00479569
0.00480441
0.00481222
0.00481908
0.00482495
0.00482978
0.00483353
0.00483615
0.0048376
0.00483783
0.00483681
0.0048345
0.00483087
0.0048259
0.00481956
0.00481183
0.00480272
0.00479221
0.00478032
0.00476704
0.0047524
0.00473641
0.00471911
0.00470053
0.00468069
0.00465965
0.00463744
0.00461412
0.00458973
0.00456435
0.00453802
0.0045108
0.00448275
0.00445394
0.00442441
0.00439423
0.00436345
0.00433212
0.0043003
0.00426803
0.00423538
0.00420238
0.00416911
0.00413561
0.00410194
0.00406817
0.00403437
0.00400064
0.00396706
0.00393376
0.00390087
0.00386858
0.00383708
0.00380664
0.00377759
0.00375032
0.00372534
0.00370326
0.00368486
0.00367109
0.00366312
0.00366237
0.0036705
0.00368943
0.00372124
0.00376806
0.00383175
0.00391352
0.00401339
0.00412968
0.00425863
0.00439441
0.00452967
0.00465652
0.00476768
0.00485753
0.00492263
0.00496184
0.00497592
0.00496709
0.0049384
0.00489329
0.0048352
0.00476737
0.00469269
0.00461365
0.00453232
0.0044504
0.00436924
0.0042899
0.00421318
0.00413967
0.00406984
0.00400407
0.00394284
0.0038873
0.0038407
0.00381126
8.67744e-05
0.000254678
0.000382434
0.000470323
0.000536364
0.000591782
0.000642564
0.00069179
0.000741022
0.000791037
0.000842191
0.000894596
0.000948219
0.00100294
0.00105859
0.00111497
0.00117192
0.00122927
0.0012869
0.00134471
0.00140263
0.00146064
0.00151872
0.00157686
0.00163509
0.00169342
0.00175188
0.00181047
0.00186923
0.00192816
0.00198729
0.00204661
0.00210614
0.00216587
0.00222578
0.00228588
0.00234612
0.0024065
0.00246696
0.00252747
0.00258799
0.00264844
0.00270878
0.00276894
0.00282886
0.00288845
0.00294766
0.0030064
0.00306461
0.00312221
0.00317912
0.0032353
0.00329068
0.00334521
0.00339884
0.00345153
0.00350324
0.00355395
0.00360362
0.00365226
0.00369998
0.0037467
0.00379239
0.00383705
0.00388067
0.00392324
0.00396477
0.00400525
0.00404468
0.00408305
0.00412035
0.0041566
0.00419178
0.00422591
0.00425901
0.00429108
0.00432215
0.00435224
0.00438135
0.00440948
0.00443666
0.00446293
0.0044883
0.00451281
0.00453649
0.00455937
0.00458145
0.00460276
0.00462334
0.0046432
0.00466238
0.00468089
0.00469874
0.00471594
0.00473251
0.00474844
0.00476374
0.00477839
0.0047924
0.00480573
0.00481837
0.00483028
0.00484145
0.00485182
0.00486135
0.00487
0.00487772
0.00488446
0.00489016
0.00489477
0.00489823
0.00490049
0.00490151
0.00490122
0.0048996
0.0048966
0.00489219
0.00488634
0.00487902
0.00487024
0.00485998
0.00484824
0.00483504
0.00482037
0.00480428
0.00478677
0.00476789
0.00474767
0.00472615
0.00470338
0.0046794
0.00465429
0.00462808
0.00460084
0.00457263
0.0045435
0.00451351
0.00448272
0.00445119
0.00441896
0.00438609
0.00435264
0.00431866
0.0042842
0.00424931
0.00421405
0.00417848
0.00414266
0.00410667
0.00407059
0.00403451
0.00399855
0.00396283
0.00392753
0.00389284
0.00385901
0.00382637
0.00379529
0.00376628
0.00373994
0.00371706
0.00369863
0.00368585
0.00368025
0.00368366
0.00369825
0.00372649
0.00377102
0.00383435
0.00391841
0.00402392
0.00414965
0.00429189
0.00444426
0.00459833
0.00474476
0.00487481
0.00498167
0.00506113
0.00511174
0.00513438
0.00513158
0.00510685
0.00506409
0.00500721
0.00493981
0.00486508
0.00478575
0.00470406
0.00462184
0.00454052
0.0044612
0.0043847
0.00431165
0.00424249
0.00417759
0.00411744
0.00406318
0.00401804
0.00398997
8.78751e-05
0.000257143
0.000388549
0.000480063
0.000549016
0.000606672
0.000659205
0.000709839
0.000760217
0.000811143
0.000862973
0.00091581
0.000969612
0.00102426
0.00107959
0.00113544
0.00119164
0.00124805
0.00130458
0.00136114
0.00141769
0.00147421
0.00153069
0.00158715
0.00164363
0.00170015
0.00175675
0.00181347
0.00187035
0.00192743
0.00198473
0.00204228
0.0021001
0.0021582
0.00221658
0.00227524
0.00233417
0.00239334
0.00245273
0.00251229
0.00257198
0.00263173
0.00269148
0.00275117
0.00281072
0.00287006
0.00292909
0.00298774
0.00304592
0.00310356
0.00316055
0.00321685
0.00327237
0.00332707
0.00338088
0.00343376
0.00348567
0.00353659
0.00358649
0.00363559
0.00368382
0.00373111
0.00377742
0.00382272
0.00386701
0.00391027
0.00395249
0.00399366
0.00403379
0.00407286
0.00411083
0.00414773
0.00418355
0.0042183
0.004252
0.00428465
0.00431628
0.00434691
0.00437655
0.0044052
0.00443289
0.00445966
0.00448554
0.00451056
0.00453475
0.00455814
0.00458077
0.00460265
0.00462382
0.00464431
0.00466416
0.00468339
0.00470201
0.00472005
0.00473752
0.00475442
0.00477077
0.00478655
0.00480177
0.0048164
0.00483042
0.00484382
0.00485655
0.00486857
0.00487984
0.00489031
0.00489992
0.00490861
0.00491632
0.00492299
0.00492855
0.00493295
0.0049361
0.00493797
0.00493848
0.0049376
0.00493526
0.00493145
0.00492611
0.00491923
0.00491079
0.00490077
0.00488919
0.00487604
0.00486134
0.0048451
0.00482736
0.00480815
0.0047875
0.00476546
0.00474208
0.0047174
0.00469149
0.00466439
0.00463617
0.00460689
0.0045766
0.00454535
0.00451321
0.00448023
0.00444647
0.00441197
0.0043768
0.004341
0.00430463
0.00426775
0.00423041
0.00419268
0.00415462
0.00411632
0.00407786
0.00403936
0.00400093
0.00396273
0.00392496
0.00388784
0.00385168
0.00381684
0.00378381
0.00375319
0.00372574
0.00370246
0.00368458
0.00367369
0.00367175
0.00368117
0.00370475
0.00374568
0.00380716
0.00389198
0.00400174
0.00413591
0.004291
0.00446021
0.00463397
0.00480133
0.00495185
0.00507724
0.00517242
0.00523558
0.00526765
0.00527156
0.00525132
0.00521136
0.00515606
0.00508944
0.00501501
0.00493576
0.00485409
0.00477196
0.00469086
0.00461196
0.00453609
0.00446388
0.00439575
0.00433205
0.00427328
0.00422053
0.00417699
0.00415028
8.8554e-05
0.000258549
0.000392962
0.000487626
0.000559107
0.000618629
0.000672498
0.00072406
0.00077503
0.000826246
0.00087807
0.000930603
0.000983805
0.00103756
0.00109171
0.00114612
0.00120064
0.00125516
0.0013096
0.0013639
0.00141804
0.00147203
0.00152589
0.00157966
0.00163339
0.00168715
0.00174099
0.00179498
0.00184919
0.00190366
0.00195846
0.00201363
0.0020692
0.0021252
0.00218163
0.00223852
0.00229583
0.00235357