/*--------------------------------*- C++ -*----------------------------------*\
  =========                 |
  \\      /  F ield         | OpenFOAM: The Open Source CFD Toolbox
   \\    /   O peration     | Website:  https://openfoam.org
    \\  /    A nd           | Version:  7
     \\/     M anipulation  |
\*---------------------------------------------------------------------------*/
FoamFile
{
    version     2.0;
    format      ascii;
    class       volScalarField;
    location    "800";
    object      p;
}
// * * * * * * * * * * * * * * * * * * * * * * * * * * * * * * * * * * * * * //

dimensions      [0 2 -2 0 0 0 0];

internalField   nonuniform List<scalar> 
16900
(
-22.4109
-22.4144
-22.4209
-22.43
-22.4415
-22.4553
-22.4715
-22.4902
-22.5112
-22.5348
-22.5609
-22.5896
-22.6213
-22.655
-22.6889
-22.7263
-22.7693
-22.8088
-22.8434
-22.8815
-22.9232
-22.966
-23.0094
-23.0532
-23.0972
-23.1411
-23.1848
-23.2282
-23.2711
-23.3132
-23.3543
-23.3943
-23.4328
-23.4697
-23.5046
-23.5373
-23.5674
-23.5948
-23.6189
-23.6395
-23.6564
-23.669
-23.677
-23.6802
-23.6781
-23.6704
-23.6567
-23.6366
-23.6097
-23.5758
-23.5344
-23.4853
-23.4281
-23.3624
-23.2881
-23.2049
-23.1125
-23.0107
-22.8995
-22.7786
-22.6481
-22.5079
-22.3579
-22.1983
-22.0289
-21.8499
-21.6614
-21.4637
-21.2569
-21.0414
-20.8172
-20.5848
-20.3444
-20.0962
-19.8406
-19.5779
-19.3085
-19.0327
-18.7509
-18.4635
-18.1709
-17.8735
-17.5717
-17.2661
-16.957
-16.645
-16.3304
-16.0138
-15.6956
-15.3764
-15.0565
-14.7366
-14.417
-14.0983
-13.7809
-13.4654
-13.152
-12.8414
-12.5339
-12.2299
-11.9298
-11.634
-11.3429
-11.0568
-10.776
-10.5008
-10.2314
-9.96812
-9.71108
-9.46046
-9.21642
-8.97906
-8.74846
-8.52468
-8.30773
-8.09758
-7.89423
-7.69759
-7.50753
-7.32402
-7.1469
-6.97583
-6.81077
-6.6518
-6.4986
-6.35006
-6.20629
-6.06804
-5.93482
-5.80619
-5.68181
-5.56135
-5.4445
-5.33095
-5.2204
-5.11255
-5.00713
-4.90384
-4.80241
-4.70257
-4.60406
-4.50662
-4.41
-4.31396
-4.21828
-4.12273
-4.02709
-3.93117
-3.83476
-3.7377
-3.63979
-3.54089
-3.44082
-3.33946
-3.23667
-3.13231
-3.02627
-2.91844
-2.80868
-2.69689
-2.58293
-2.46664
-2.34784
-2.22631
-2.10178
-1.97396
-1.8425
-1.70711
-1.56752
-1.42364
-1.27566
-1.12415
-0.970228
-0.815565
-0.662435
-0.513578
-0.372013
-0.240741
-0.122471
-0.0193269
0.0673073
0.136892
0.18968
0.226637
0.249252
0.259388
0.259084
0.250432
0.235436
0.215959
0.193644
0.169922
0.145979
0.122792
0.10112
0.0815338
0.0643775
0.0496809
0.0369277
0.0259249
-22.407
-22.4111
-22.4161
-22.4231
-22.4328
-22.4451
-22.4599
-22.4772
-22.4967
-22.5184
-22.5422
-22.5676
-22.5946
-22.6229
-22.6558
-22.6924
-22.7271
-22.7665
-22.8141
-22.8607
-22.904
-22.9468
-22.99
-23.0333
-23.0767
-23.1201
-23.1633
-23.2062
-23.2485
-23.2902
-23.3309
-23.3705
-23.4087
-23.4453
-23.48
-23.5125
-23.5425
-23.5698
-23.594
-23.6148
-23.6318
-23.6447
-23.6532
-23.6569
-23.6554
-23.6483
-23.6354
-23.6162
-23.5904
-23.5577
-23.5176
-23.4698
-23.4141
-23.3501
-23.2775
-23.1961
-23.1057
-23.006
-22.8969
-22.7783
-22.6501
-22.5122
-22.3647
-22.2076
-22.0407
-21.8641
-21.678
-21.4828
-21.2786
-21.0655
-20.8439
-20.614
-20.3761
-20.1304
-19.8773
-19.6171
-19.3502
-19.0768
-18.7974
-18.5123
-18.222
-17.9269
-17.6273
-17.3238
-17.0167
-16.7066
-16.3939
-16.079
-15.7625
-15.4449
-15.1265
-14.8079
-14.4895
-14.1719
-13.8555
-13.5407
-13.2281
-12.918
-12.6108
-12.3071
-12.0071
-11.7113
-11.42
-11.1336
-10.8523
-10.5765
-10.3063
-10.0421
-9.78403
-9.53224
-9.28692
-9.04816
-8.81605
-8.59065
-8.372
-8.16006
-7.95484
-7.75628
-7.56418
-7.3786
-7.19943
-7.02604
-6.85856
-6.69725
-6.5418
-6.39158
-6.24655
-6.10693
-5.97225
-5.84213
-5.71627
-5.59435
-5.47605
-5.36108
-5.24916
-5.13999
-5.03328
-4.92877
-4.82619
-4.72527
-4.62574
-4.52737
-4.42991
-4.33311
-4.23677
-4.14065
-4.04455
-3.94827
-3.85162
-3.75441
-3.65649
-3.55769
-3.45786
-3.35685
-3.25455
-3.15081
-3.04552
-2.93857
-2.82984
-2.7192
-2.60652
-2.49165
-2.3744
-2.25455
-2.13187
-2.00606
-1.87683
-1.7439
-1.60707
-1.4663
-1.32178
-1.1741
-1.0243
-0.873945
-0.725133
-0.580383
-0.442466
-0.314152
-0.19795
-0.0958576
-0.00919821
0.0614618
0.116294
0.156124
0.182283
0.196457
0.200519
0.196404
0.18599
0.171026
0.153081
0.13352
0.113495
0.0939582
0.07567
0.0592084
0.044975
0.0331078
0.0236319
0.0183283
-22.4012
-22.4085
-22.415
-22.4219
-22.4313
-22.4433
-22.4578
-22.4748
-22.4942
-22.5159
-22.5398
-22.566
-22.5943
-22.6247
-22.6579
-22.6936
-22.7292
-22.7662
-22.8069
-22.8485
-22.89
-22.9318
-22.974
-23.0164
-23.059
-23.1015
-23.1439
-23.186
-23.2276
-23.2686
-23.3087
-23.3477
-23.3854
-23.4215
-23.4558
-23.488
-23.5178
-23.5449
-23.569
-23.5897
-23.6068
-23.6199
-23.6287
-23.6327
-23.6317
-23.6253
-23.6132
-23.5949
-23.5701
-23.5384
-23.4996
-23.4533
-23.3991
-23.3368
-23.266
-23.1866
-23.0982
-23.0007
-22.8938
-22.7776
-22.6518
-22.5165
-22.3717
-22.2172
-22.0528
-21.8789
-21.6955
-21.503
-21.3015
-21.0912
-20.8724
-20.6453
-20.4102
-20.1673
-19.917
-19.6596
-19.3954
-19.1248
-18.8481
-18.5657
-18.278
-17.9854
-17.6884
-17.3873
-17.0826
-16.7748
-16.4643
-16.1516
-15.8372
-15.5214
-15.2049
-14.888
-14.5713
-14.2551
-13.9401
-13.6265
-13.315
-13.0058
-12.6995
-12.3964
-12.097
-11.8016
-11.5105
-11.2241
-10.9428
-10.6667
-10.3962
-10.1314
-9.87271
-9.62011
-9.37388
-9.13408
-8.90076
-8.67411
-8.45409
-8.24057
-8.03378
-7.83358
-7.63953
-7.45188
-7.2707
-7.09542
-6.9261
-6.76282
-6.60528
-6.45277
-6.30521
-6.16294
-6.02559
-5.89287
-5.7645
-5.64016
-5.51957
-5.40242
-5.28843
-5.17731
-5.06877
-4.96256
-4.85839
-4.756
-4.65515
-4.55557
-4.45704
-4.35931
-4.26216
-4.16538
-4.06875
-3.97209
-3.8752
-3.77791
-3.68004
-3.58144
-3.48196
-3.38147
-3.27983
-3.17691
-3.07261
-2.96679
-2.85936
-2.75019
-2.63913
-2.52606
-2.41079
-2.29312
-2.17283
-2.04966
-1.92335
-1.79365
-1.66039
-1.52353
-1.38326
-1.24009
-1.09495
-0.94924
-0.80485
-0.664057
-0.529393
-0.40341
-0.288456
-0.186437
-0.0986641
-0.0257673
0.0322996
0.0761935
0.107055
0.126374
0.135842
0.13723
0.132278
0.122629
0.109769
0.0950088
0.0794677
0.0640841
0.0496271
0.0367066
0.0258187
0.01725
0.0116861
0.0116166
-22.3968
-22.4075
-22.4165
-22.4244
-22.434
-22.446
-22.4604
-22.4771
-22.4962
-22.5176
-22.5411
-22.5668
-22.5947
-22.6248
-22.6572
-22.6917
-22.7274
-22.7644
-22.8031
-22.8428
-22.8831
-22.924
-22.9653
-23.0069
-23.0487
-23.0905
-23.1323
-23.1737
-23.2148
-23.2553
-23.2949
-23.3335
-23.3709
-23.4067
-23.4408
-23.4728
-23.5025
-23.5296
-23.5537
-23.5746
-23.5918
-23.6052
-23.6143
-23.6188
-23.6184
-23.6126
-23.6011
-23.5837
-23.5598
-23.5292
-23.4915
-23.4464
-23.3936
-23.3326
-23.2634
-23.1855
-23.0988
-23.003
-22.8979
-22.7835
-22.6597
-22.5264
-22.3835
-22.2308
-22.0682
-21.8962
-21.7148
-21.5243
-21.3248
-21.1165
-20.8997
-20.6746
-20.4415
-20.2006
-19.9523
-19.6969
-19.4347
-19.166
-18.8912
-18.6107
-18.3248
-18.034
-17.7388
-17.4394
-17.1363
-16.8301
-16.5211
-16.2098
-15.8967
-15.5822
-15.2668
-14.951
-14.6353
-14.32
-14.0057
-13.6929
-13.3819
-13.0732
-12.7673
-12.4645
-12.1652
-11.8698
-11.5787
-11.2921
-11.0105
-10.734
-10.463
-10.1977
-9.93824
-9.68482
-9.43776
-9.19702
-8.96258
-8.73483
-8.51366
-8.29869
-8.0903
-7.88856
-7.69305
-7.5039
-7.32112
-7.1443
-6.97344
-6.80853
-6.64932
-6.49526
-6.34625
-6.20241
-6.06349
-5.92921
-5.79932
-5.67352
-5.55152
-5.43304
-5.3178
-5.2055
-5.09587
-4.98865
-4.88356
-4.78034
-4.67874
-4.57852
-4.47943
-4.38124
-4.28373
-4.18668
-4.08989
-3.99315
-3.89629
-3.79913
-3.7015
-3.60324
-3.5042
-3.40426
-3.30326
-3.20111
-3.09767
-2.99285
-2.88652
-2.77857
-2.66888
-2.55732
-2.44374
-2.32794
-2.20972
-2.08886
-1.96511
-1.83822
-1.70802
-1.57441
-1.43753
-1.2978
-1.15602
-1.01348
-0.871954
-0.733597
-0.600837
-0.476142
-0.36178
-0.259613
-0.170932
-0.0963917
-0.0359944
0.0108244
0.0451041
0.0682102
0.0817195
0.0872826
0.0865457
0.0810576
0.0722427
0.0613524
0.0494787
0.0375354
0.0263013
0.0164054
0.00845129
0.00282117
0.000900632
0.00387902
-22.3956
-22.4089
-22.42
-22.429
-22.4392
-22.4515
-22.4659
-22.4827
-22.5017
-22.5228
-22.5462
-22.5716
-22.5992
-22.6289
-22.6607
-22.6943
-22.7295
-22.7659
-22.8037
-22.8425
-22.8819
-22.922
-22.9626
-23.0035
-23.0447
-23.086
-23.1272
-23.1682
-23.2089
-23.249
-23.2884
-23.3268
-23.3639
-23.3996
-23.4336
-23.4656
-23.4954
-23.5225
-23.5468
-23.5678
-23.5854
-23.5991
-23.6085
-23.6135
-23.6136
-23.6084
-23.5976
-23.5808
-23.5578
-23.528
-23.4913
-23.4472
-23.3954
-23.3355
-23.2674
-23.1908
-23.1053
-23.0107
-22.907
-22.7939
-22.6714
-22.5395
-22.3978
-22.2461
-22.0849
-21.9141
-21.734
-21.5447
-21.3465
-21.1396
-20.9241
-20.7004
-20.4686
-20.2291
-19.9821
-19.728
-19.4671
-19.1996
-18.9261
-18.6468
-18.3621
-18.0725
-17.7783
-17.48
-17.1779
-16.8727
-16.5646
-16.2541
-15.9418
-15.6281
-15.3134
-14.9982
-14.6829
-14.3681
-14.0543
-13.7417
-13.431
-13.1225
-12.8166
-12.5138
-12.2145
-11.9189
-11.6275
-11.3407
-11.0587
-10.7817
-10.5101
-10.2443
-9.98425
-9.72999
-9.48224
-9.24069
-9.00514
-8.77619
-8.55386
-8.33785
-8.12838
-7.92547
-7.72888
-7.53864
-7.3547
-7.17681
-7.00489
-6.8389
-6.67859
-6.52362
-6.37381
-6.22914
-6.08938
-5.95427
-5.82356
-5.69697
-5.57423
-5.45504
-5.33914
-5.22625
-5.11608
-5.00837
-4.90286
-4.79928
-4.69738
-4.59693
-4.49767
-4.39937
-4.30182
-4.20479
-4.10809
-4.01151
-3.91487
-3.81799
-3.72071
-3.62286
-3.52429
-3.42488
-3.32448
-3.22298
-3.12027
-3.01624
-2.91077
-2.80378
-2.69514
-2.58474
-2.47244
-2.35809
-2.24151
-2.12249
-2.00079
-1.87616
-1.74838
-1.61732
-1.48298
-1.34569
-1.20615
-1.06554
-0.925579
-0.788413
-0.656468
-0.532217
-0.417929
-0.315454
-0.226066
-0.150408
-0.0884824
-0.0397449
-0.00319372
0.0224806
0.0387901
0.0473137
0.0496283
0.047217
0.0414479
0.0335244
0.024504
0.0152768
0.0066192
-0.00083051
-0.0063764
-0.00964578
-0.00855338
-0.00497497
-22.398
-22.4132
-22.4258
-22.4358
-22.4466
-22.4593
-22.474
-22.4909
-22.5099
-22.531
-22.5543
-22.5796
-22.607
-22.6363
-22.6676
-22.7007
-22.7351
-22.7709
-22.8079
-22.8459
-22.8846
-22.924
-22.9639
-23.0043
-23.045
-23.0858
-23.1267
-23.1674
-23.2078
-23.2477
-23.2869
-23.3252
-23.3623
-23.398
-23.432
-23.4641
-23.4939
-23.5212
-23.5457
-23.567
-23.5849
-23.5989
-23.6088
-23.6142
-23.6147
-23.6101
-23.5999
-23.5838
-23.5614
-23.5324
-23.4964
-23.4531
-23.4022
-23.3432
-23.276
-23.2003
-23.1157
-23.0221
-22.9193
-22.8072
-22.6856
-22.5546
-22.4135
-22.2625
-22.102
-21.932
-21.7528
-21.5644
-21.367
-21.161
-20.9464
-20.7235
-20.4926
-20.254
-20.0079
-19.7546
-19.4946
-19.228
-18.9552
-18.6767
-18.3928
-18.1039
-17.8104
-17.5128
-17.2114
-16.9068
-16.5992
-16.2893
-15.9775
-15.6641
-15.3498
-15.035
-14.72
-14.4054
-14.0917
-13.7793
-13.4687
-13.1601
-12.8542
-12.5513
-12.2518
-11.956
-11.6643
-11.3772
-11.0949
-10.8174
-10.5453
-10.2792
-10.0185
-9.76333
-9.5147
-9.27232
-9.03608
-8.80634
-8.58316
-8.36638
-8.15612
-7.95238
-7.755
-7.56398
-7.37925
-7.20062
-7.028
-6.86128
-6.70028
-6.5447
-6.39438
-6.24919
-6.10892
-5.97331
-5.84213
-5.71509
-5.59194
-5.47238
-5.35615
-5.24297
-5.13257
-5.02467
-4.91901
-4.81535
-4.71341
-4.61296
-4.51375
-4.41556
-4.31816
-4.22133
-4.12487
-4.02858
-3.93226
-3.83575
-3.73887
-3.64146
-3.54338
-3.44447
-3.34462
-3.24369
-3.14158
-3.03818
-2.9334
-2.82712
-2.71927
-2.60972
-2.49838
-2.38512
-2.26978
-2.15218
-2.03208
-1.90924
-1.78339
-1.6543
-1.5219
-1.38637
-1.24829
-1.10878
-0.969532
-0.832721
-0.700843
-0.576444
-0.461839
-0.358902
-0.26889
-0.192423
-0.129467
-0.0794622
-0.0413959
-0.0139774
0.00428369
0.0149195
0.0194675
0.0193547
0.0159095
0.0102859
0.00351344
-0.00355142
-0.010135
-0.0156146
-0.0192097
-0.0206893
-0.017173
-0.0150391
-22.4038
-22.4201
-22.4336
-22.4445
-22.4559
-22.469
-22.484
-22.501
-22.5201
-22.5412
-22.5644
-22.5896
-22.6168
-22.6458
-22.6767
-22.7091
-22.743
-22.7781
-22.8144
-22.8517
-22.8898
-22.9287
-22.9681
-23.008
-23.0483
-23.0889
-23.1295
-23.17
-23.2102
-23.25
-23.2892
-23.3274
-23.3646
-23.4003
-23.4345
-23.4667
-23.4967
-23.5242
-23.549
-23.5706
-23.5887
-23.6031
-23.6134
-23.6192
-23.6202
-23.6161
-23.6064
-23.5909
-23.5691
-23.5407
-23.5054
-23.4628
-23.4125
-23.3543
-23.2878
-23.2127
-23.1288
-23.0359
-22.9337
-22.8222
-22.7013
-22.5706
-22.4298
-22.2792
-22.1191
-21.9496
-21.7708
-21.583
-21.3862
-21.1807
-20.9666
-20.7443
-20.514
-20.2759
-20.0304
-19.7777
-19.5182
-19.2521
-18.9799
-18.7019
-18.4184
-18.13
-17.837
-17.5397
-17.2388
-16.9344
-16.6272
-16.3176
-16.006
-15.6929
-15.3788
-15.0641
-14.7492
-14.4347
-14.121
-13.8086
-13.4979
-13.1892
-12.8831
-12.5802
-12.2805
-11.9843
-11.6923
-11.405
-11.1224
-10.8443
-10.5716
-10.3048
-10.0435
-9.78796
-9.53871
-9.29568
-9.0589
-8.82858
-8.60477
-8.38742
-8.17657
-7.97223
-7.7743
-7.58273
-7.39746
-7.21834
-7.04525
-6.87809
-6.71665
-6.56071
-6.41008
-6.2646
-6.12405
-5.9882
-5.85679
-5.72956
-5.60624
-5.48656
-5.37023
-5.257
-5.14658
-5.03871
-4.93313
-4.82957
-4.72778
-4.62751
-4.52852
-4.43058
-4.33347
-4.23696
-4.14085
-4.04493
-3.94902
-3.85293
-3.75649
-3.65953
-3.56191
-3.46348
-3.36411
-3.26367
-3.16205
-3.05914
-2.95486
-2.84909
-2.74177
-2.63281
-2.52211
-2.40958
-2.29509
-2.17849
-2.05956
-1.93804
-1.81363
-1.68604
-1.55505
-1.42073
-1.28354
-1.14452
-1.00536
-0.868312
-0.735985
-0.611041
-0.495876
-0.392406
-0.301871
-0.224859
-0.161275
-0.110514
-0.0715225
-0.0429961
-0.0234428
-0.0113508
-0.00520976
-0.00363111
-0.00532386
-0.00917461
-0.0141869
-0.0195369
-0.024465
-0.0283798
-0.0304276
-0.0306465
-0.0251721
-0.0261543
-22.4124
-22.4292
-22.4433
-22.4547
-22.4667
-22.4801
-22.4952
-22.5124
-22.5315
-22.5527
-22.5758
-22.6008
-22.6277
-22.6564
-22.6868
-22.7187
-22.752
-22.7866
-22.8223
-22.8591
-22.8967
-22.9351
-22.9742
-23.0138
-23.0538
-23.0941
-23.1346
-23.175
-23.2152
-23.255
-23.2942
-23.3325
-23.3697
-23.4056
-23.4399
-23.4724
-23.5026
-23.5304
-23.5554
-23.5773
-23.5958
-23.6105
-23.6211
-23.6273
-23.6288
-23.6251
-23.6159
-23.6008
-23.5796
-23.5517
-23.5169
-23.4748
-23.4251
-23.3674
-23.3014
-23.2268
-23.1434
-23.0509
-22.9492
-22.8381
-22.7175
-22.5868
-22.4459
-22.2954
-22.1355
-21.9663
-21.7878
-21.6002
-21.4037
-21.1985
-20.9848
-20.7628
-20.5328
-20.295
-20.0498
-19.7975
-19.5382
-19.2725
-19.0006
-18.7228
-18.4397
-18.1515
-17.8587
-17.5617
-17.261
-16.9568
-16.6497
-16.3402
-16.0287
-15.7157
-15.4017
-15.087
-14.772
-14.4575
-14.1437
-13.8314
-13.5205
-13.2115
-12.9053
-12.6022
-12.3023
-12.0058
-11.7133
-11.4255
-11.1423
-10.864
-10.5909
-10.3235
-10.0618
-9.80583
-9.5561
-9.31259
-9.07536
-8.84459
-8.62032
-8.40253
-8.19127
-7.98651
-7.7882
-7.59628
-7.41068
-7.23126
-7.05791
-6.89049
-6.72884
-6.57274
-6.42198
-6.27641
-6.13579
-5.99989
-5.86846
-5.74124
-5.61797
-5.49835
-5.38214
-5.26904
-5.1588
-5.05113
-4.94578
-4.84249
-4.74099
-4.64105
-4.54242
-4.44485
-4.34813
-4.25204
-4.15636
-4.06088
-3.96543
-3.86979
-3.77381
-3.67732
-3.58015
-3.48216
-3.38322
-3.28318
-3.18195
-3.0794
-2.97546
-2.87001
-2.763
-2.65435
-2.544
-2.43185
-2.31784
-2.20182
-2.08362
-1.96296
-1.83953
-1.71295
-1.58292
-1.44935
-1.31258
-1.17358
-1.03406
-0.896349
-0.763209
-0.637451
-0.521576
-0.417554
-0.32661
-0.249289
-0.185416
-0.134324
-0.0948884
-0.0657748
-0.0454635
-0.0324524
-0.0252384
-0.022469
-0.0228777
-0.0253963
-0.0290546
-0.0330726
-0.0367038
-0.0394146
-0.0402716
-0.0397149
-0.0326234
-0.0380812
-22.4232
-22.4402
-22.4544
-22.4662
-22.4784
-22.492
-22.5074
-22.5246
-22.5437
-22.5647
-22.5877
-22.6125
-22.6391
-22.6674
-22.6973
-22.7288
-22.7616
-22.7957
-22.831
-22.8673
-22.9045
-22.9426
-22.9814
-23.0208
-23.0606
-23.1008
-23.1412
-23.1816
-23.2219
-23.2617
-23.301
-23.3395
-23.3769
-23.413
-23.4475
-23.4801
-23.5106
-23.5387
-23.5639
-23.5861
-23.6049
-23.62
-23.6309
-23.6375
-23.6393
-23.636
-23.6271
-23.6125
-23.5916
-23.5642
-23.5298
-23.4881
-23.4388
-23.3814
-23.3158
-23.2415
-23.1584
-23.0662
-22.9647
-22.8538
-22.733
-22.6019
-22.4609
-22.3105
-22.1506
-21.9814
-21.803
-21.6155
-21.4192
-21.2141
-21.0005
-20.7787
-20.5488
-20.3113
-20.0662
-19.814
-19.555
-19.2894
-19.0176
-18.74
-18.457
-18.169
-17.8763
-17.5794
-17.2787
-16.9746
-16.6676
-16.3581
-16.0466
-15.7336
-15.4195
-15.1047
-14.7896
-14.4749
-14.1611
-13.8487
-13.5376
-13.2283
-12.9217
-12.6182
-12.318
-12.0212
-11.7285
-11.4402
-11.1567
-10.878
-10.6046
-10.3368
-10.0746
-9.81834
-9.56822
-9.32434
-9.08677
-8.85566
-8.63106
-8.41297
-8.20143
-7.99642
-7.79789
-7.60578
-7.42
-7.24045
-7.067
-6.89952
-6.73783
-6.58173
-6.43102
-6.28552
-6.145
-6.00923
-5.87796
-5.75092
-5.62785
-5.50847
-5.39252
-5.27972
-5.1698
-5.06248
-4.95751
-4.85461
-4.75353
-4.65402
-4.55584
-4.45875
-4.36251
-4.2669
-4.17171
-4.07673
-3.98176
-3.88661
-3.79111
-3.69506
-3.59833
-3.50074
-3.40217
-3.30247
-3.20152
-3.09922
-2.99546
-2.89016
-2.78325
-2.67466
-2.56435
-2.45227
-2.33835
-2.2225
-2.10457
-1.9843
-1.86137
-1.73535
-1.60583
-1.47259
-1.33586
-1.19652
-1.05628
-0.917608
-0.783406
-0.656664
-0.540007
-0.435467
-0.344252
-0.266852
-0.202999
-0.151942
-0.112475
-0.0832096
-0.0625893
-0.0491042
-0.0412535
-0.0377085
-0.0372283
-0.0387829
-0.0414343
-0.0444451
-0.0470911
-0.0489124
-0.048886
-0.0479841
-0.039501
-0.0505435
-22.4356
-22.4524
-22.4664
-22.4784
-22.4908
-22.5045
-22.5198
-22.537
-22.556
-22.5768
-22.5996
-22.6241
-22.6503
-22.6783
-22.7078
-22.7388
-22.7712
-22.8049
-22.8398
-22.8758
-22.9127
-22.9506
-22.9892
-23.0284
-23.0682
-23.1084
-23.1488
-23.1893
-23.2296
-23.2696
-23.3091
-23.3477
-23.3853
-23.4216
-23.4563
-23.4892
-23.52
-23.5482
-23.5738
-23.5962
-23.6152
-23.6306
-23.6418
-23.6486
-23.6507
-23.6477
-23.6392
-23.6248
-23.6042
-23.5771
-23.543
-23.5016
-23.4525
-23.3954
-23.33
-23.2559
-23.1729
-23.0808
-22.9793
-22.8684
-22.747
-22.6154
-22.4743
-22.3237
-22.1637
-21.9945
-21.816
-21.6286
-21.4322
-21.2271
-21.0136
-20.7918
-20.562
-20.3245
-20.0795
-19.8274
-19.5684
-19.3029
-19.0312
-18.7536
-18.4706
-18.1826
-17.89
-17.5931
-17.2925
-16.9884
-16.6812
-16.3716
-16.0601
-15.7471
-15.4331
-15.1181
-14.8027
-14.4878
-14.1738
-13.861
-13.5497
-13.2403
-12.9334
-12.6296
-12.329
-12.0319
-11.7389
-11.4503
-11.1664
-10.8874
-10.6137
-10.3455
-10.0831
-9.8265
-9.57608
-9.33192
-9.09411
-8.86276
-8.63795
-8.41969
-8.20799
-8.00286
-7.80424
-7.61207
-7.42627
-7.24673
-7.07333
-6.90593
-6.74434
-6.58839
-6.43787
-6.29259
-6.15232
-6.01682
-5.88584
-5.75912
-5.6364
-5.5174
-5.40185
-5.28947
-5.17999
-5.07314
-4.96865
-4.86625
-4.76569
-4.66671
-4.56906
-4.47251
-4.37681
-4.28175
-4.1871
-4.09265
-3.9982
-3.90355
-3.80852
-3.71293
-3.61661
-3.51939
-3.42114
-3.32171
-3.22097
-3.1188
-3.01511
-2.9098
-2.80281
-2.69406
-2.58354
-2.4712
-2.35703
-2.24093
-2.12283
-2.00248
-1.87958
-1.75365
-1.62421
-1.49093
-1.35389
-1.21391
-1.0727
-0.932838
-0.797402
-0.669573
-0.552104
-0.4471
-0.355742
-0.278467
-0.214897
-0.164188
-0.125032
-0.0959835
-0.075428
-0.0618462
-0.0537237
-0.0497588
-0.0487241
-0.0496346
-0.0515774
-0.053869
-0.0558031
-0.0570183
-0.0563762
-0.0555173
-0.0457868
-0.0632958
-22.4491
-22.4654
-22.4791
-22.491
-22.5034
-22.517
-22.5322
-22.5492
-22.568
-22.5886
-22.611
-22.6352
-22.6611
-22.6887
-22.7178
-22.7484
-22.7805
-22.8138
-22.8484
-22.8841
-22.9209
-22.9586
-22.9971
-23.0363
-23.0762
-23.1164
-23.1569
-23.1975
-23.238
-23.2781
-23.3177
-23.3566
-23.3944
-23.4309
-23.4659
-23.4989
-23.5299
-23.5584
-23.5841
-23.6067
-23.6259
-23.6414
-23.6529
-23.6599
-23.6622
-23.6593
-23.651
-23.6368
-23.6165
-23.5895
-23.5555
-23.5143
-23.4653
-23.4083
-23.343
-23.2689
-23.1859
-23.0938
-22.9923
-22.8806
-22.7585
-22.6265
-22.4852
-22.3344
-22.1743
-22.0049
-21.8263
-21.6388
-21.4423
-21.2372
-21.0236
-20.8017
-20.5719
-20.3344
-20.0894
-19.8373
-19.5784
-19.3129
-19.0411
-18.7635
-18.4806
-18.1925
-17.8999
-17.6031
-17.3025
-16.9983
-16.691
-16.3814
-16.0697
-15.7565
-15.4423
-15.1272
-14.8118
-14.4967
-14.1824
-13.8693
-13.5577
-13.2481
-12.941
-12.6368
-12.3359
-12.0386
-11.7453
-11.4564
-11.1722
-10.8929
-10.6189
-10.3505
-10.0878
-9.83102
-9.58039
-9.33604
-9.09808
-8.8666
-8.64169
-8.42336
-8.21163
-8.00649
-7.8079
-7.6158
-7.43011
-7.25072
-7.07749
-6.9103
-6.74896
-6.59329
-6.44308
-6.29815
-6.15824
-6.02314
-5.89258
-5.76631
-5.64406
-5.52555
-5.41051
-5.29865
-5.18972
-5.08343
-4.97951
-4.8777
-4.77773
-4.67935
-4.58231
-4.48635
-4.39125
-4.29678
-4.2027
-4.1088
-4.01489
-3.92075
-3.82619
-3.73103
-3.6351
-3.53822
-3.44025
-3.34102
-3.24042
-3.1383
-3.03456
-2.9291
-2.82185
-2.71275
-2.60177
-2.48888
-2.3741
-2.25737
-2.13864
-2.01772
-1.89433
-1.768
-1.63821
-1.50449
-1.36684
-1.22596
-1.08358
-0.942366
-0.805593
-0.676632
-0.558376
-0.453002
-0.361659
-0.284721
-0.22169
-0.17162
-0.13309
-0.104586
-0.0844304
-0.0710816
-0.0630116
-0.058935
-0.0576423
-0.0581864
-0.0596859
-0.0615095
-0.0629741
-0.0638314
-0.0627992
-0.062326
-0.0514158
-0.0760845
-22.4632
-22.4789
-22.4919
-22.5037
-22.5159
-22.5293
-22.5443
-22.5609
-22.5794
-22.5997
-22.6217
-22.6456
-22.6711
-22.6983
-22.727
-22.7573
-22.789
-22.8221
-22.8565
-22.892
-22.9287
-22.9663
-23.0048
-23.0441
-23.084
-23.1244
-23.165
-23.2057
-23.2464
-23.2867
-23.3265
-23.3656
-23.4036
-23.4403
-23.4754
-23.5086
-23.5397
-23.5683
-23.5941
-23.6169
-23.6362
-23.6518
-23.6633
-23.6704
-23.6727
-23.67
-23.6617
-23.6476
-23.6273
-23.6004
-23.5665
-23.5253
-23.4763
-23.4193
-23.3539
-23.2797
-23.1966
-23.1043
-23.0023
-22.8896
-22.7668
-22.6345
-22.4929
-22.3419
-22.1816
-22.012
-21.8333
-21.6456
-21.4491
-21.2438
-21.0301
-20.8082
-20.5784
-20.3408
-20.0958
-19.8437
-19.5848
-19.3194
-19.0476
-18.77
-18.487
-18.1989
-17.9063
-17.6094
-17.3087
-17.0045
-16.6972
-16.3875
-16.0757
-15.7623
-15.4479
-15.1326
-14.8171
-14.5018
-14.1873
-13.8739
-13.5621
-13.2523
-12.9449
-12.6405
-12.3393
-12.0417
-11.7482
-11.459
-11.1746
-10.8951
-10.6209
-10.3522
-10.0894
-9.83245
-9.5817
-9.33725
-9.09923
-8.86772
-8.6428
-8.4245
-8.21284
-8.00781
-7.80937
-7.61745
-7.43198
-7.25284
-7.07991
-6.91304
-6.75206
-6.59678
-6.44701
-6.30253
-6.16311
-6.02851
-5.89849
-5.77276
-5.65108
-5.53316
-5.41872
-5.30749
-5.19919
-5.09354
-4.99027
-4.88911
-4.7898
-4.69208
-4.59569
-4.50038
-4.40591
-4.31205
-4.21857
-4.12525
-4.03188
-3.93824
-3.84416
-3.74942
-3.65386
-3.55729
-3.45956
-3.36049
-3.25996
-3.15781
-3.05394
-2.94821
-2.84058
-2.73095
-2.61931
-2.50563
-2.38992
-2.27218
-2.1524
-2.03043
-1.90606
-1.77882
-1.6482
-1.51366
-1.37506
-1.23305
-1.08932
-0.946641
-0.808462
-0.678357
-0.559352
-0.453703
-0.362517
-0.286107
-0.22384
-0.174667
-0.13704
-0.109373
-0.0899089
-0.0770895
-0.0693568
-0.0654489
-0.0641613
-0.0645941
-0.0658884
-0.0674773
-0.0686916
-0.0694197
-0.0681989
-0.0684241
-0.056352
-0.0886952
-22.4775
-22.4924
-22.5047
-22.5161
-22.528
-22.541
-22.5556
-22.5719
-22.59
-22.6098
-22.6315
-22.6549
-22.68
-22.7068
-22.7352
-22.7652
-22.7967
-22.8296
-22.8638
-22.8993
-22.9359
-22.9736
-23.0121
-23.0515
-23.0915
-23.132
-23.1728
-23.2137
-23.2545
-23.295
-23.335
-23.3742
-23.4123
-23.4491
-23.4843
-23.5176
-23.5487
-23.5773
-23.6032
-23.6259
-23.6452
-23.6607
-23.6722
-23.6793
-23.6816
-23.6788
-23.6705
-23.6563
-23.6359
-23.6089
-23.5749
-23.5336
-23.4846
-23.4274
-23.3618
-23.2875
-23.2041
-23.1115
-23.0083
-22.8945
-22.7714
-22.6389
-22.497
-22.3457
-22.1852
-22.0154
-21.8365
-21.6488
-21.4522
-21.2468
-21.033
-20.8111
-20.5812
-20.3436
-20.0986
-19.8464
-19.5875
-19.3221
-19.0504
-18.7728
-18.4898
-18.2018
-17.9091
-17.6121
-17.3114
-17.0071
-16.6998
-16.39
-16.0781
-15.7646
-15.45
-15.1346
-14.8189
-14.5035
-14.1888
-13.8752
-13.5632
-13.2531
-12.9456
-12.6409
-12.3395
-12.0417
-11.748
-11.4586
-11.174
-10.8943
-10.62
-10.3512
-10.0882
-9.83125
-9.58045
-9.33599
-9.09798
-8.86653
-8.6417
-8.42354
-8.21205
-8.00723
-7.80903
-7.6174
-7.43226
-7.25348
-7.08095
-6.91452
-6.75401
-6.59923
-6.44999
-6.30607
-6.16723
-6.03324
-5.90384
-5.77876
-5.65773
-5.54048
-5.42673
-5.3162
-5.2086
-5.10366
-5.00111
-4.90066
-4.80206
-4.70504
-4.60934
-4.5147
-4.4209
-4.32767
-4.23481
-4.14206
-4.04924
-3.95611
-3.86248
-3.76814
-3.67293
-3.57663
-3.4791
-3.38014
-3.27962
-3.17737
-3.07328
-2.9672
-2.85906
-2.74875
-2.63626
-2.52155
-2.40464
-2.28554
-2.16428
-2.04079
-1.9149
-1.78623
-1.65427
-1.51846
-1.37859
-1.2352
-1.08995
-0.945721
-0.806104
-0.674879
-0.555207
-0.449411
-0.358555
-0.282882
-0.221617
-0.173598
-0.137147
-0.110596
-0.092107
-0.0800926
-0.0729685
-0.0694853
-0.06845
-0.069002
-0.0703126
-0.0718756
-0.0730373
-0.073839
-0.0726003
-0.073793
-0.0605044
-0.100892
-22.4917
-22.5057
-22.5171
-22.5281
-22.5394
-22.552
-22.5661
-22.5819
-22.5994
-22.6188
-22.64
-22.663
-22.6877
-22.7142
-22.7423
-22.7721
-22.8034
-22.8361
-22.8703
-22.9057
-22.9423
-22.9801
-23.0187
-23.0582
-23.0983
-23.139
-23.1799
-23.221
-23.2619
-23.3026
-23.3426
-23.3818
-23.4199
-23.4567
-23.4919
-23.5252
-23.5562
-23.5847
-23.6104
-23.633
-23.6521
-23.6675
-23.6788
-23.6856
-23.6877
-23.6848
-23.6763
-23.6619
-23.6413
-23.6142
-23.58
-23.5385
-23.4892
-23.4318
-23.3659
-23.2913
-23.2077
-23.1139
-23.0094
-22.8953
-22.7719
-22.6391
-22.497
-22.3455
-22.1847
-22.0148
-21.8357
-21.6478
-21.4512
-21.2458
-21.032
-20.81
-20.5801
-20.3425
-20.0975
-19.8454
-19.5865
-19.3211
-19.0494
-18.7719
-18.4889
-18.2009
-17.9082
-17.6113
-17.3105
-17.0062
-16.6989
-16.3891
-16.0771
-15.7636
-15.4488
-15.1333
-14.8176
-14.502
-14.1871
-13.8734
-13.5612
-13.251
-12.9433
-12.6384
-12.3368
-12.0389
-11.745
-11.4555
-11.1708
-10.891
-10.6166
-10.3478
-10.0848
-9.82778
-9.57701
-9.33262
-9.09471
-8.8634
-8.63875
-8.42081
-8.20958
-8.00506
-7.80721
-7.61596
-7.43123
-7.25292
-7.08089
-6.91498
-6.75503
-6.60085
-6.45223
-6.30896
-6.17079
-6.03749
-5.90879
-5.78443
-5.66414
-5.54764
-5.43464
-5.32487
-5.21804
-5.11386
-5.01207
-4.91238
-4.81453
-4.71824
-4.62326
-4.52933
-4.4362
-4.34363
-4.25138
-4.15922
-4.06694
-3.9743
-3.88112
-3.78717
-3.69227
-3.59622
-3.49885
-3.39996
-3.29941
-3.19701
-3.09264
-2.98613
-2.87739
-2.7663
-2.65283
-2.5369
-2.41856
-2.29781
-2.17471
-2.04924
-1.92132
-1.79067
-1.65684
-1.5193
-1.37777
-1.23273
-1.0858
-0.939926
-0.798847
-0.66653
-0.546257
-0.440431
-0.350051
-0.275301
-0.215248
-0.168622
-0.133594
-0.108422
-0.0911677
-0.0802214
-0.0739557
-0.0711442
-0.0705908
-0.0714859
-0.0730192
-0.0747582
-0.0760518
-0.0771227
-0.0760277
-0.0784165
-0.0638433
-0.112522
-22.5055
-22.5186
-22.5291
-22.5394
-22.5501
-22.562
-22.5755
-22.5906
-22.6076
-22.6265
-22.6472
-22.6697
-22.6941
-22.7203
-22.7481
-22.7777
-22.8089
-22.8416
-22.8757
-22.9112
-22.9479
-22.9857
-23.0244
-23.064
-23.1043
-23.145
-23.1861
-23.2272
-23.2682
-23.3088
-23.3488
-23.3879
-23.4259
-23.4626
-23.4975
-23.5306
-23.5614
-23.5896
-23.615
-23.6372
-23.656
-23.6711
-23.682
-23.6886
-23.6904
-23.6871
-23.6784
-23.6638
-23.6429
-23.6154
-23.581
-23.5392
-23.4896
-23.4318
-23.3657
-23.2908
-23.2059
-23.1106
-23.0057
-22.8914
-22.7678
-22.6348
-22.4924
-22.3407
-22.1798
-22.0097
-21.8306
-21.6425
-21.4458
-21.2404
-21.0266
-20.8047
-20.5748
-20.3373
-20.0923
-19.8403
-19.5814
-19.3161
-19.0445
-18.7671
-18.4843
-18.1963
-17.9037
-17.6069
-17.3061
-17.0019
-16.6946
-16.3848
-16.0729
-15.7593
-15.4445
-15.129
-14.8132
-14.4976
-14.1826
-13.8688
-13.5565
-13.2462
-12.9383
-12.6334
-12.3317
-12.0337
-11.7397
-11.4501
-11.1653
-10.8855
-10.6111
-10.3422
-10.0793
-9.82237
-9.57171
-9.32746
-9.08973
-8.85865
-8.63426
-8.41662
-8.20574
-8.00161
-7.80419
-7.61341
-7.4292
-7.25143
-7.07998
-6.91469
-6.75539
-6.60189
-6.45397
-6.31142
-6.174
-6.04147
-5.91355
-5.78998
-5.6705
-5.5548
-5.44262
-5.33366
-5.22764
-5.12428
-5.02329
-4.92439
-4.82732
-4.73179
-4.63755
-4.54433
-4.45189
-4.35996
-4.26834
-4.17675
-4.085
-3.99283
-3.90007
-3.80648
-3.71187
-3.61603
-3.51878
-3.41992
-3.31929
-3.21668
-3.11197
-3.00496
-2.89555
-2.78358
-2.669
-2.5517
-2.43173
-2.30906
-2.18378
-2.05591
-1.92548
-1.79228
-1.65602
-1.51621
-1.37259
-1.22559
-1.0768
-0.929182
-0.786622
-0.653258
-0.532486
-0.426773
-0.33705
-0.263433
-0.204826
-0.159843
-0.126503
-0.102976
-0.0872261
-0.0776066
-0.0724525
-0.0705481
-0.0707031
-0.0721497
-0.0741052
-0.0762036
-0.0777989
-0.079318
-0.0784957
-0.0822419
-0.0663213
-0.123431
-22.5189
-22.531
-22.5405
-22.55
-22.5599
-22.571
-22.5837
-22.5982
-22.6145
-22.6328
-22.653
-22.6751
-22.6991
-22.725
-22.7527
-22.7821
-22.8132
-22.8459
-22.88
-22.9155
-22.9523
-22.9901
-23.029
-23.0686
-23.1089
-23.1497
-23.1907
-23.2318
-23.2726
-23.3131
-23.3528
-23.3917
-23.4294
-23.4657
-23.5003
-23.533
-23.5634
-23.5912
-23.6161
-23.6379
-23.6562
-23.6708
-23.6813
-23.6874
-23.6887
-23.685
-23.6759
-23.661
-23.6398
-23.612
-23.5772
-23.535
-23.4851
-23.427
-23.3606
-23.2844
-23.1979
-23.102
-22.9969
-22.8824
-22.7585
-22.6253
-22.4827
-22.3309
-22.1699
-21.9997
-21.8206
-21.6325
-21.4358
-21.2304
-21.0167
-20.7949
-20.5651
-20.3277
-20.0829
-19.831
-19.5723
-19.3071
-19.0358
-18.7585
-18.4759
-18.1881
-17.8957
-17.5989
-17.2983
-16.9942
-16.6871
-16.3774
-16.0655
-15.752
-15.4373
-15.1218
-14.806
-14.4904
-14.1754
-13.8615
-13.5492
-13.2389
-12.931
-12.626
-12.3243
-12.0262
-11.7322
-11.4426
-11.1578
-10.8781
-10.6037
-10.335
-10.0721
-9.81533
-9.56485
-9.32081
-9.08334
-8.85255
-8.6285
-8.41124
-8.20079
-7.99712
-7.8002
-7.60998
-7.42635
-7.24921
-7.07841
-6.91382
-6.75524
-6.60248
-6.45534
-6.31359
-6.17698
-6.04527
-5.91819
-5.79548
-5.67684
-5.56201
-5.45068
-5.34258
-5.23742
-5.13489
-5.03474
-4.93666
-4.84038
-4.74563
-4.65214
-4.55964
-4.46789
-4.37662
-4.2856
-4.19458
-4.10334
-4.01164
-3.91928
-3.82601
-3.73167
-3.636
-3.53885
-3.43997
-3.33923
-3.23637
-3.13128
-3.02372
-2.91359
-2.80067
-2.6849
-2.56614
-2.4444
-2.31961
-2.19189
-2.06128
-1.92787
-1.7916
-1.65233
-1.50969
-1.3635
-1.21417
-1.06327
-0.913784
-0.769703
-0.635314
-0.514107
-0.40862
-0.319695
-0.247395
-0.190441
-0.147339
-0.115935
-0.094315
-0.0803249
-0.0722914
-0.0684913
-0.0677329
-0.0688147
-0.0710249
-0.0735932
-0.0762345
-0.0782996
-0.0804463
-0.080004
-0.0852413
-0.0679754
-0.133529
-22.5317
-22.5429
-22.5513
-22.5598
-22.5687
-22.5788
-22.5906
-22.6043
-22.6199
-22.6376
-22.6573
-22.679
-22.7027
-22.7283
-22.7558
-22.7852
-22.8162
-22.8488
-22.883
-22.9185
-22.9553
-22.9932
-23.032
-23.0716
-23.1118
-23.1524
-23.1932
-23.234
-23.2746
-23.3147
-23.354
-23.3924
-23.4296
-23.4654
-23.4994
-23.5315
-23.5613
-23.5885
-23.6128
-23.634
-23.6517