/*--------------------------------*- C++ -*----------------------------------*\
  =========                 |
  \\      /  F ield         | OpenFOAM: The Open Source CFD Toolbox
   \\    /   O peration     | Website:  https://openfoam.org
    \\  /    A nd           | Version:  7
     \\/     M anipulation  |
\*---------------------------------------------------------------------------*/
FoamFile
{
    version     2.0;
    format      ascii;
    class       surfaceScalarField;
    location    "800";
    object      phi;
}
// * * * * * * * * * * * * * * * * * * * * * * * * * * * * * * * * * * * * * //

dimensions      [0 3 -1 0 0 0 0];

internalField   nonuniform List<scalar> 
33502
(
3.51964e-09
-3.52151e-09
-3.09947e-08
3.45104e-08
-8.29096e-08
5.19181e-08
-1.41152e-07
5.82386e-08
-2.01897e-07
6.07504e-08
-2.63864e-07
6.19626e-08
-3.26531e-07
6.26726e-08
-3.89697e-07
6.3161e-08
-4.53287e-07
6.35957e-08
-5.17425e-07
6.41332e-08
-5.82403e-07
6.49811e-08
-6.48714e-07
6.63102e-08
-7.16762e-07
6.8048e-08
-7.86306e-07
6.95441e-08
-8.54167e-07
6.7862e-08
-9.21659e-07
6.74929e-08
-9.97619e-07
7.59663e-08
-1.06963e-06
7.2011e-08
-1.13102e-06
6.13967e-08
-1.19344e-06
6.24167e-08
-1.25633e-06
6.29006e-08
-1.31912e-06
6.27828e-08
-1.38153e-06
6.24148e-08
-1.44347e-06
6.19363e-08
-1.50489e-06
6.14274e-08
-1.5658e-06
6.09099e-08
-1.62619e-06
6.03924e-08
-1.68606e-06
5.98699e-08
-1.74539e-06
5.93355e-08
-1.80418e-06
5.87809e-08
-1.86238e-06
5.81978e-08
-1.91995e-06
5.75783e-08
-1.97687e-06
5.69156e-08
-2.03307e-06
5.62032e-08
-2.08851e-06
5.54359e-08
-2.14312e-06
5.46088e-08
-2.19683e-06
5.37179e-08
-2.24959e-06
5.27596e-08
-2.30132e-06
5.1731e-08
-2.35195e-06
5.06292e-08
-2.4014e-06
4.94519e-08
-2.4496e-06
4.8197e-08
-2.49646e-06
4.68627e-08
-2.54191e-06
4.54472e-08
-2.58586e-06
4.39493e-08
-2.62823e-06
4.23675e-08
-2.66893e-06
4.07012e-08
-2.70788e-06
3.89498e-08
-2.74499e-06
3.71134e-08
-2.78018e-06
3.51923e-08
-2.81337e-06
3.31879e-08
-2.84447e-06
3.1102e-08
-2.87341e-06
2.89373e-08
-2.9001e-06
2.66972e-08
-2.92449e-06
2.43865e-08
-2.9465e-06
2.20104e-08
-2.96608e-06
1.95754e-08
-2.98316e-06
1.70884e-08
-2.99772e-06
1.45574e-08
-3.00971e-06
1.19901e-08
-3.01911e-06
9.39456e-09
-3.02588e-06
6.7781e-09
-3.03003e-06
4.14543e-09
-3.03153e-06
1.49919e-09
-3.03038e-06
-1.14683e-09
-3.02663e-06
-3.75736e-09
-3.02031e-06
-6.3207e-09
-3.01145e-06
-8.85205e-09
-3.0001e-06
-1.1356e-08
-2.98627e-06
-1.3834e-08
-2.96998e-06
-1.62861e-08
-2.95127e-06
-1.87116e-08
-2.93016e-06
-2.11095e-08
-2.90668e-06
-2.34786e-08
-2.88087e-06
-2.58173e-08
-2.85274e-06
-2.81241e-08
-2.82235e-06
-3.03971e-08
-2.78972e-06
-3.26341e-08
-2.75488e-06
-3.48327e-08
-2.7179e-06
-3.69902e-08
-2.67879e-06
-3.91039e-08
-2.63762e-06
-4.11712e-08
-2.59443e-06
-4.31896e-08
-2.54928e-06
-4.51567e-08
-2.50221e-06
-4.70698e-08
-2.45329e-06
-4.89259e-08
-2.40257e-06
-5.07216e-08
-2.35011e-06
-5.24534e-08
-2.296e-06
-5.41183e-08
-2.24028e-06
-5.57136e-08
-2.18305e-06
-5.72369e-08
-2.12436e-06
-5.86853e-08
-2.06431e-06
-6.0055e-08
-2.00297e-06
-6.13421e-08
-1.94043e-06
-6.25442e-08
-1.87677e-06
-6.36593e-08
-1.81208e-06
-6.46863e-08
-1.74646e-06
-6.56209e-08
-1.68e-06
-6.64593e-08
-1.6128e-06
-6.71996e-08
-1.54496e-06
-6.78429e-08
-1.47657e-06
-6.83872e-08
-1.40774e-06
-6.88276e-08
-1.33858e-06
-6.9162e-08
-1.26918e-06
-6.93947e-08
-1.19966e-06
-6.9526e-08
-1.13011e-06
-6.95482e-08
-1.06065e-06
-6.94596e-08
-9.91366e-07
-6.92772e-08
-9.22366e-07
-6.8997e-08
-8.53764e-07
-6.8599e-08
-7.85655e-07
-6.81056e-08
-7.18124e-07
-6.75277e-08
-6.51285e-07
-6.68358e-08
-5.85233e-07
-6.60478e-08
-5.20028e-07
-6.52002e-08
-4.55785e-07
-6.42394e-08
-3.92599e-07
-6.31802e-08
-3.30487e-07
-6.21076e-08
-2.69562e-07
-6.09186e-08
-2.09981e-07
-5.95754e-08
-1.51719e-07
-5.82562e-08
-9.47917e-08
-5.69223e-08
-3.92999e-08
-5.54856e-08
1.47129e-08
-5.4007e-08
6.69378e-08
-5.22182e-08
1.17126e-07
-5.0182e-08
1.65338e-07
-4.82067e-08
2.11644e-07
-4.63007e-08
2.56099e-07
-4.44491e-08
2.98742e-07
-4.26384e-08
3.39611e-07
-4.08634e-08
3.78738e-07
-3.91219e-08
4.16159e-07
-3.74158e-08
4.51911e-07
-3.57477e-08
4.86039e-07
-3.41234e-08
5.1859e-07
-3.25474e-08
5.49622e-07
-3.10272e-08
5.79194e-07
-2.95686e-08
6.07377e-07
-2.81799e-08
6.34248e-07
-2.68674e-08
6.59891e-07
-2.56404e-08
6.84398e-07
-2.45053e-08
7.07872e-07
-2.34722e-08
7.30422e-07
-2.25479e-08
7.52165e-07
-2.17431e-08
7.73231e-07
-2.1065e-08
7.93754e-07
-2.05247e-08
8.13884e-07
-2.01298e-08
8.33773e-07
-1.98916e-08
8.53589e-07
-1.98176e-08
8.73504e-07
-1.99187e-08
8.93702e-07
-2.02015e-08
9.14372e-07
-2.06752e-08
9.35711e-07
-2.13442e-08
9.57918e-07
-2.22139e-08
9.81195e-07
-2.3284e-08
1.00574e-06
-2.45534e-08
1.03175e-06
-2.60147e-08
1.0594e-06
-2.76582e-08
1.08886e-06
-2.94688e-08
1.12028e-06
-3.14304e-08
1.1538e-06
-3.35271e-08
1.18954e-06
-3.57494e-08
1.22764e-06
-3.81009e-08
1.26824e-06
-4.06064e-08
1.31156e-06
-4.33207e-08
1.35789e-06
-4.63314e-08
1.40765e-06
-4.97568e-08
1.46138e-06
-5.37278e-08
1.51975e-06
-5.83604e-08
1.58346e-06
-6.37119e-08
1.65321e-06
-6.97435e-08
1.7295e-06
-7.62873e-08
1.81255e-06
-8.30502e-08
1.90219e-06
-8.96399e-08
1.99781e-06
-9.56271e-08
2.09842e-06
-1.00606e-07
2.20267e-06
-1.0426e-07
2.30906e-06
-1.06389e-07
2.41598e-06
-1.06927e-07
2.5219e-06
-1.05921e-07
2.62541e-06
-1.03515e-07
2.72532e-06
-9.99066e-08
2.82064e-06
-9.53284e-08
2.91064e-06
-9.00124e-08
2.99481e-06
-8.41847e-08
3.07284e-06
-7.80402e-08
3.14458e-06
-7.17526e-08
3.21003e-06
-6.54562e-08
3.26928e-06
-5.92643e-08
3.32253e-06
-5.32535e-08
3.37e-06
-4.74877e-08
3.412e-06
-4.20017e-08
3.44882e-06
-3.68323e-08
3.48082e-06
-3.20072e-08
3.50842e-06
-2.76048e-08
3.53222e-06
-2.37895e-08
3.55354e-06
-2.12955e-08
-2.08102e-08
-3.11526e-08
2.76309e-08
-7.11987e-08
7.45563e-08
-1.19075e-07
9.97936e-08
-1.72852e-07
1.12018e-07
-2.30219e-07
1.18117e-07
-2.8977e-07
1.21516e-07
-3.50781e-07
1.23681e-07
-4.12898e-07
1.2528e-07
-4.75964e-07
1.26659e-07
-5.39891e-07
1.28061e-07
-6.04552e-07
1.29643e-07
-6.69676e-07
1.31431e-07
-7.34858e-07
1.33234e-07
-7.99819e-07
1.34501e-07
-8.66095e-07
1.34141e-07
-9.32169e-07
1.33565e-07
-9.90935e-07
1.34734e-07
-1.05118e-06
1.32261e-07
-1.11652e-06
1.26732e-07
-1.17842e-06
1.24321e-07
-1.23833e-06
1.22818e-07
-1.29709e-06
1.21537e-07
-1.35499e-06
1.20314e-07
-1.41219e-06
1.19143e-07
-1.46878e-06
1.18016e-07
-1.52479e-06
1.16921e-07
-1.58024e-06
1.15841e-07
-1.63513e-06
1.14759e-07
-1.68945e-06
1.13656e-07
-1.74319e-06
1.12515e-07
-1.79631e-06
1.11319e-07
-1.84878e-06
1.10053e-07
-1.90057e-06
1.08704e-07
-1.95163e-06
1.0726e-07
-2.0019e-06
1.05711e-07
-2.05134e-06
1.04047e-07
-2.09988e-06
1.02261e-07
-2.14747e-06
1.00347e-07
-2.19404e-06
9.8297e-08
-2.23951e-06
9.61075e-08
-2.28384e-06
9.37734e-08
-2.32693e-06
9.12906e-08
-2.36872e-06
8.86552e-08
-2.40914e-06
8.58639e-08
-2.4481e-06
8.29137e-08
-2.48554e-06
7.98022e-08
-2.52136e-06
7.65273e-08
-2.5555e-06
7.30879e-08
-2.58787e-06
6.94835e-08
-2.61839e-06
6.5715e-08
-2.64699e-06
6.17842e-08
-2.67358e-06
5.76947e-08
-2.69809e-06
5.34514e-08
-2.72046e-06
4.9061e-08
-2.7406e-06
4.4532e-08
-2.75847e-06
3.9875e-08
-2.77399e-06
3.5102e-08
-2.78713e-06
3.0227e-08
-2.79784e-06
2.52647e-08
-2.80608e-06
2.0231e-08
-2.81183e-06
1.51413e-08
-2.81506e-06
1.00094e-08
-2.81576e-06
4.84525e-09
-2.81391e-06
-3.45207e-10
-2.80956e-06
-5.50184e-09
-2.80274e-06
-1.05731e-08
-2.79349e-06
-1.55751e-08
-2.78182e-06
-2.05199e-08
-2.76777e-06
-2.54129e-08
-2.75135e-06
-3.02556e-08
-2.73258e-06
-3.50477e-08
-2.71151e-06
-3.97875e-08
-2.68815e-06
-4.44728e-08
-2.66252e-06
-4.91011e-08
-2.63467e-06
-5.36693e-08
-2.60462e-06
-5.81743e-08
-2.57241e-06
-6.26121e-08
-2.53807e-06
-6.69787e-08
-2.50163e-06
-7.12689e-08
-2.46314e-06
-7.54773e-08
-2.42265e-06
-7.95983e-08
-2.3802e-06
-8.36268e-08
-2.33583e-06
-8.75577e-08
-2.2896e-06
-9.13861e-08
-2.24156e-06
-9.51067e-08
-2.19178e-06
-9.87137e-08
-2.1403e-06
-1.022e-07
-2.0872e-06
-1.05559e-07
-2.03253e-06
-1.08783e-07
-1.97638e-06
-1.11869e-07
-1.9188e-06
-1.1481e-07
-1.85989e-06
-1.17603e-07
-1.79971e-06
-1.20238e-07
-1.73834e-06
-1.22708e-07
-1.67588e-06
-1.25008e-07
-1.6124e-06
-1.27134e-07
-1.548e-06
-1.29085e-07
-1.48277e-06
-1.30852e-07
-1.41681e-06
-1.32427e-07
-1.3502e-06
-1.33807e-07
-1.28305e-06
-1.34993e-07
-1.21545e-06
-1.35984e-07
-1.14751e-06
-1.36768e-07
-1.07933e-06
-1.37342e-07
-1.01101e-06
-1.37714e-07
-9.42653e-07
-1.37886e-07
-8.74357e-07
-1.37844e-07
-8.06233e-07
-1.37583e-07
-7.38376e-07
-1.37134e-07
-6.70877e-07
-1.36495e-07
-6.03847e-07
-1.35628e-07
-5.37382e-07
-1.34571e-07
-4.71563e-07
-1.33346e-07
-4.06489e-07
-1.31908e-07
-3.42255e-07
-1.3028e-07
-2.78932e-07
-1.28522e-07
-2.16597e-07
-1.26572e-07
-1.55348e-07
-1.24428e-07
-9.526e-08
-1.22193e-07
-3.63457e-08
-1.19831e-07
2.13379e-08
-1.17257e-07
7.75292e-08
-1.14445e-07
1.32099e-07
-1.1149e-07
1.85106e-07
-1.0849e-07
2.36527e-07
-1.05425e-07
2.86333e-07
-1.02021e-07
3.34507e-07
-9.83533e-08
3.81032e-07
-9.47282e-08
4.25888e-07
-9.11531e-08
4.69084e-07
-8.7641e-08
5.10641e-07
-8.41932e-08
5.50591e-07
-8.08091e-08
5.88965e-07
-7.74928e-08
6.25804e-07
-7.425e-08
6.6115e-07
-7.10905e-08
6.95055e-07
-6.80242e-08
7.27575e-07
-6.50639e-08
7.58774e-07
-6.22217e-08
7.88721e-07
-5.95123e-08
8.17494e-07
-5.69492e-08
8.45178e-07
-5.45481e-08
8.71864e-07
-5.23234e-08
8.97654e-07
-5.02919e-08
9.22654e-07
-4.8469e-08
9.4698e-07
-4.68721e-08
9.70757e-07
-4.55176e-08
9.94118e-07
-4.44238e-08
1.0172e-06
-4.36078e-08
1.04016e-06
-4.30884e-08
1.06315e-06
-4.28831e-08
1.08635e-06
-4.30104e-08
1.10992e-06
-4.34874e-08
1.13404e-06
-4.43306e-08
1.15892e-06
-4.55543e-08
1.18474e-06
-4.71707e-08
1.21172e-06
-4.91878e-08
1.24004e-06
-5.16091e-08
1.26991e-06
-5.4432e-08
1.30154e-06
-5.76469e-08
1.33511e-06
-6.12375e-08
1.37082e-06
-6.51806e-08
1.40883e-06
-6.94506e-08
1.44932e-06
-7.40231e-08
1.49245e-06
-7.88854e-08
1.53838e-06
-8.40459e-08
1.58732e-06
-8.95496e-08
1.63948e-06
-9.54866e-08
1.69514e-06
-1.01998e-07
1.75464e-06
-1.09265e-07
1.81838e-06
-1.17474e-07
1.88679e-06
-1.26771e-07
1.96026e-06
-1.37188e-07
2.03909e-06
-1.4858e-07
2.12339e-06
-1.60592e-07
2.21299e-06
-1.72666e-07
2.30745e-06
-1.84101e-07
2.40597e-06
-1.94158e-07
2.50752e-06
-2.02168e-07
2.61088e-06
-2.07625e-07
2.71472e-06
-2.10237e-07
2.81772e-06
-2.09936e-07
2.91865e-06
-2.06855e-07
3.0164e-06
-2.01276e-07
3.11007e-06
-1.93576e-07
3.19891e-06
-1.84179e-07
3.2824e-06
-1.73513e-07
3.36019e-06
-1.6198e-07
3.43208e-06
-1.49936e-07
3.498e-06
-1.37687e-07
3.55802e-06
-1.25481e-07
3.61226e-06
-1.1351e-07
3.66092e-06
-1.01921e-07
3.70424e-06
-9.08145e-08
3.74249e-06
-8.02594e-08
3.77595e-06
-7.03034e-08
3.80493e-06
-6.09911e-08
3.82973e-06
-5.24132e-08
3.85069e-06
-4.47507e-08
3.86815e-06
-3.87464e-08
-3.43457e-08
-4.56188e-08
7.32496e-08
-9.07015e-08
1.1964e-07
-1.38167e-07
1.47262e-07
-1.89164e-07
1.63015e-07
-2.43098e-07
1.72054e-07
-2.99141e-07
1.77558e-07
-3.56675e-07
1.81218e-07
-4.15302e-07
1.83905e-07
-4.74728e-07
1.86087e-07
-5.34695e-07
1.88025e-07
-5.94899e-07
1.89847e-07
-6.54996e-07
1.91527e-07
-7.14638e-07
1.92874e-07
-7.7361e-07
1.93473e-07
-8.32257e-07
1.92787e-07
-8.89935e-07
1.91243e-07
-9.44811e-07
1.8961e-07
-9.99179e-07
1.86628e-07
-1.05494e-06
1.82496e-07
-1.10985e-06
1.79235e-07
-1.16373e-06
1.76694e-07
-1.21673e-06
1.74537e-07
-1.26901e-06
1.72602e-07
-1.32069e-06
1.70816e-07
-1.3718e-06
1.69131e-07
-1.42239e-06
1.67509e-07
-1.47247e-06
1.65916e-07
-1.52203e-06
1.64321e-07
-1.57107e-06
1.62694e-07
-1.61956e-06
1.6101e-07
-1.66749e-06
1.59245e-07
-1.71481e-06
1.57377e-07
-1.7615e-06
1.55387e-07
-1.8075e-06
1.53259e-07
-1.85276e-06
1.50977e-07
-1.89724e-06
1.4853e-07
-1.94089e-06
1.45907e-07
-1.98364e-06
1.43097e-07
-2.02544e-06
1.40093e-07
-2.06622e-06
1.36887e-07
-2.10592e-06
1.33473e-07
-2.14447e-06
1.29844e-07
-2.18181e-06
1.25995e-07
-2.21787e-06
1.21921e-07
-2.25257e-06
1.17618e-07
-2.28585e-06
1.1308e-07
-2.31763e-06
1.08306e-07
-2.34783e-06
1.03292e-07
-2.37639e-06
9.80383e-08
-2.40321e-06
9.25447e-08
-2.42824e-06
8.68138e-08
-2.4514e-06
8.085e-08
-2.47261e-06
7.46599e-08
-2.4918e-06
6.8253e-08
-2.50891e-06
6.16412e-08
-2.52387e-06
5.48394e-08
-2.53664e-06
4.78652e-08
-2.54715e-06
4.07384e-08
-2.55536e-06
3.3481e-08
-2.56125e-06
2.6116e-08
-2.56477e-06
1.86665e-08
-2.56592e-06
1.11519e-08
-2.56466e-06
3.58884e-09
-2.56103e-06
-3.97861e-09
-2.55505e-06
-1.14749e-08
-2.54676e-06
-1.88663e-08
-2.53617e-06
-2.61657e-08
-2.52331e-06
-3.33848e-08
-2.50819e-06
-4.05294e-08
-2.49084e-06
-4.76013e-08
-2.47129e-06
-5.45993e-08
-2.44956e-06
-6.1521e-08
-2.42567e-06
-6.83629e-08
-2.39965e-06
-7.51209e-08
-2.37153e-06
-8.17907e-08
-2.34134e-06
-8.83672e-08
-2.30911e-06
-9.4845e-08
-2.27487e-06
-1.01218e-07
-2.23866e-06
-1.07478e-07
-2.20052e-06
-1.13617e-07
-2.16049e-06
-1.19627e-07
-2.11862e-06
-1.255e-07
-2.07495e-06
-1.31228e-07
-2.02953e-06
-1.36804e-07
-1.98242e-06
-1.42221e-07
-1.93366e-06
-1.47469e-07
-1.88332e-06
-1.52538e-07
-1.83146e-06
-1.57418e-07
-1.77815e-06
-1.62098e-07
-1.72345e-06
-1.66572e-07
-1.66743e-06
-1.70831e-07
-1.61016e-06
-1.7487e-07
-1.55172e-06
-1.78675e-07
-1.49219e-06
-1.82235e-07
-1.43166e-06
-1.85542e-07
-1.3702e-06
-1.88591e-07
-1.30791e-06
-1.91379e-07
-1.24487e-06
-1.93896e-07
-1.18116e-06
-1.96128e-07
-1.1169e-06
-1.98069e-07
-1.05217e-06
-1.99723e-07
-9.87065e-07
-2.0109e-07
-9.21681e-07
-2.02151e-07
-8.56122e-07
-2.029e-07
-7.90485e-07
-2.03351e-07
-7.24862e-07
-2.03509e-07
-6.59352e-07
-2.03353e-07
-5.94063e-07
-2.02871e-07
-5.29085e-07
-2.02113e-07
-4.64502e-07
-2.01077e-07
-4.00419e-07
-1.9971e-07
-3.36929e-07
-1.9806e-07
-2.74109e-07
-1.96164e-07
-2.12045e-07
-1.93972e-07
-1.50831e-07
-1.91494e-07
-9.05463e-08
-1.88806e-07
-3.12245e-08
-1.85893e-07
2.70446e-08
-1.82696e-07
8.40668e-08
-1.79215e-07
1.39752e-07
-1.75516e-07
1.94104e-07
-1.71608e-07
2.47087e-07
-1.67428e-07
2.98649e-07
-1.63052e-07
3.4874e-07
-1.58581e-07
3.97313e-07
-1.53998e-07
4.44436e-07
-1.49143e-07
4.90148e-07
-1.44065e-07
5.3439e-07
-1.3897e-07
5.77143e-07
-1.33905e-07
6.18401e-07
-1.28899e-07
6.58177e-07
-1.23969e-07
6.96495e-07
-1.19127e-07
7.33388e-07
-1.14386e-07
7.68898e-07
-1.0976e-07
8.03072e-07
-1.05264e-07
8.35963e-07
-1.00915e-07
8.67632e-07
-9.67332e-08
8.98147e-07
-9.2737e-08
9.27582e-07
-8.8947e-08
9.56017e-07
-8.53845e-08
9.8354e-07
-8.20712e-08
1.01025e-06
-7.90296e-08
1.03624e-06
-7.62824e-08
1.06162e-06
-7.38535e-08
1.08651e-06
-7.17665e-08
1.11104e-06
-7.00466e-08
1.13534e-06
-6.87184e-08
1.15954e-06
-6.78081e-08
1.18379e-06
-6.73412e-08
1.20825e-06
-6.73441e-08
1.23308e-06
-6.78422e-08
1.25845e-06
-6.88612e-08
1.28455e-06
-7.04241e-08
1.31155e-06
-7.2553e-08
1.33964e-06
-7.52651e-08
1.36902e-06
-7.85742e-08
1.3999e-06
-8.24866e-08
1.43247e-06
-8.70019e-08
1.46693e-06
-9.21098e-08
1.50349e-06
-9.77918e-08
1.54233e-06
-1.04021e-07
1.58364e-06
-1.10765e-07
1.62762e-06
-1.17996e-07
1.67443e-06
-1.25699e-07
1.72427e-06
-1.33883e-07
1.77733e-06
-1.42605e-07
1.83382e-06
-1.5197e-07
1.89397e-06
-1.62144e-07
1.95804e-06
-1.73331e-07
2.0263e-06
-1.85727e-07
2.09899e-06
-1.99458e-07
2.1763e-06
-2.14488e-07
2.25827e-06
-2.30548e-07
2.34478e-06
-2.47094e-07
2.43545e-06
-2.63334e-07
2.52967e-06
-2.78319e-07
2.62659e-06
-2.91076e-07
2.72518e-06
-3.00754e-07
2.8243e-06
-3.06738e-07
2.92277e-06
-3.08703e-07
3.01946e-06
-3.06627e-07
3.11335e-06
-3.00741e-07
3.20354e-06
-2.91471e-07
3.28932e-06
-2.79359e-07
3.37014e-06
-2.65002e-07
3.44562e-06
-2.48992e-07
3.51552e-06
-2.31883e-07
3.57974e-06
-2.14163e-07
3.6383e-06
-1.96248e-07
3.69129e-06
-1.78473e-07
3.73887e-06
-1.61101e-07
3.78127e-06
-1.44322e-07
3.81872e-06
-1.28273e-07
3.85149e-06
-1.13037e-07
3.87985e-06
-9.8668e-08
3.90406e-06
-8.52e-08
3.92435e-06
-7.27054e-08
3.9409e-06
-6.12911e-08
3.95369e-06
-5.15334e-08
-4.30228e-08
-5.02554e-08
1.23511e-07
-9.81736e-08
1.67561e-07
-1.45792e-07
1.94882e-07
-1.949e-07
2.12126e-07
-2.45818e-07
2.22974e-07
-2.98253e-07
2.29994e-07
-3.51814e-07
2.34779e-07
-4.06146e-07
2.38237e-07
-4.60928e-07
2.40868e-07
-5.15837e-07
2.42935e-07
-5.70533e-07
2.44542e-07
-6.24677e-07
2.45671e-07
-6.77983e-07
2.4618e-07
-7.30329e-07
2.45817e-07
-7.81881e-07
2.44338e-07
-8.32589e-07
2.41949e-07
-8.82081e-07
2.39101e-07
-9.31041e-07
2.35588e-07
-9.80131e-07
2.31586e-07
-1.02883e-06
2.27932e-07
-1.07694e-06
2.24804e-07
-1.12445e-06
2.22057e-07
-1.17143e-06
2.19578e-07
-1.21791e-06
2.17291e-07
-1.26391e-06
2.15135e-07
-1.30946e-06
2.13057e-07
-1.35456e-06
2.11012e-07
-1.39919e-06
2.08959e-07
-1.44336e-06
2.0686e-07
-1.48703e-06
2.04682e-07
-1.53018e-06
2.02395e-07
-1.57278e-06
1.99971e-07
-1.61478e-06
1.97388e-07
-1.65614e-06
1.94623e-07
-1.69683e-06
1.9166e-07
-1.73678e-06
1.88482e-07
-1.77595e-06
1.85077e-07
-1.81428e-06
1.81431e-07
-1.85173e-06
1.77536e-07
-1.88822e-06
1.73381e-07
-1.9237e-06
1.68958e-07
-1.95812e-06
1.6426e-07
-1.99141e-06
1.5928e-07
-2.02349e-06
1.54011e-07
-2.05432e-06
1.48446e-07
-2.08382e-06
1.4258e-07
-2.11192e-06
1.36408e-07
-2.13856e-06
1.29926e-07
-2.16365e-06
1.23134e-07
-2.18714e-06
1.1603e-07
-2.20894e-06
1.08618e-07
-2.22899e-06
1.00901e-07
-2.24722e-06
9.28886e-08
-2.26356e-06
8.45914e-08
-2.27794e-06
7.60247e-08
-2.29031e-06
6.72072e-08
-2.30061e-06
5.81615e-08
-2.30878e-06
4.89134e-08
-2.31479e-06
3.94915e-08
-2.3186e-06
2.99267e-08
-2.32019e-06
2.02501e-08
-2.31952e-06
1.04893e-08
-2.3166e-06
6.6549e-10
-2.31145e-06
-9.13097e-09
-2.30411e-06
-1.88119e-08
-2.2946e-06
-2.83747e-08
-2.28294e-06
-3.78276e-08
-2.26915e-06
-4.71803e-08
-2.25324e-06
-5.64384e-08
-2.23524e-06
-6.56032e-08
-2.21516e-06
-7.46727e-08
-2.19304e-06
-8.36431e-08
-2.16889e-06
-9.25098e-08
-2.14275e-06
-1.01267e-07
-2.11463e-06
-1.09909e-07
-2.08457e-06
-1.1843e-07
-2.05259e-06
-1.26822e-07
-2.01873e-06
-1.35077e-07
-1.98303e-06
-1.43185e-07
-1.94551e-06
-1.51135e-07
-1.90622e-06
-1.58915e-07
-1.86521e-06
-1.66516e-07
-1.82251e-06
-1.73926e-07
-1.77818e-06
-1.81136e-07
-1.73226e-06
-1.88138e-07
-1.68481e-06
-1.94919e-07
-1.63588e-06
-2.01466e-07
-1.58554e-06
-2.07763e-07
-1.53384e-06
-2.13798e-07
-1.48085e-06
-2.1956e-07
-1.42664e-06
-2.25042e-07
-1.37128e-06
-2.30233e-07
-1.31483e-06
-2.35119e-07
-1.25739e-06
-2.39682e-07
-1.19902e-06
-2.43911e-07
-1.13981e-06
-2.47799e-07
-1.07984e-06
-2.51347e-07
-1.0192e-06
-2.54541e-07
-9.57969e-07
-2.57358e-07
-8.96247e-07
-2.59791e-07
-8.34123e-07
-2.61849e-07
-7.71682e-07
-2.63531e-07
-7.09019e-07
-2.64814e-07
-6.46235e-07
-2.65684e-07
-5.83423e-07
-2.66163e-07
-5.20668e-07
-2.66264e-07
-4.58065e-07
-2.65956e-07
-3.95717e-07
-2.65219e-07
-3.33712e-07
-2.64118e-07
-2.72128e-07
-2.6266e-07
-2.1106e-07
-2.60778e-07
-1.50601e-07
-2.58517e-07
-9.08361e-08
-2.55929e-07
-3.18117e-08
-2.52995e-07
2.63815e-08
-2.49686e-07
8.35793e-08
-2.46003e-07
1.3969e-07
-2.42003e-07
1.94687e-07
-2.37693e-07
2.48517e-07
-2.33044e-07
3.01113e-07
-2.28112e-07
3.52433e-07
-2.22926e-07
4.02464e-07
-2.17458e-07
4.51177e-07
-2.11764e-07
4.98521e-07
-2.05923e-07
5.44464e-07
-1.9994e-07
5.8906e-07
-1.93738e-07
6.3235e-07
-1.87354e-07
6.74305e-07
-1.80924e-07
7.1491e-07
-1.74508e-07
7.54161e-07
-1.68148e-07
7.92071e-07
-1.61877e-07
8.28663e-07
-1.55717e-07
8.63971e-07
-1.49691e-07
8.98035e-07
-1.43822e-07
9.30906e-07
-1.38132e-07
9.62639e-07
-1.32646e-07
9.93297e-07
-1.27389e-07
1.02295e-06
-1.22387e-07
1.05167e-06
-1.17667e-07
1.07955e-06
-1.13257e-07
1.10666e-06
-1.09184e-07
1.13311e-06
-1.05477e-07
1.159e-06
-1.02167e-07
1.18443e-06
-9.92824e-08
1.20952e-06
-9.6855e-08
1.23439e-06
-9.49157e-08
1.25917e-06
-9.34968e-08
1.28399e-06
-9.26307e-08
1.309e-06
-9.23506e-08
1.33435e-06
-9.26895e-08
1.36019e-06
-9.36804e-08
1.38668e-06
-9.53556e-08
1.414e-06
-9.77455e-08
1.44233e-06
-1.00878e-07
1.47184e-06
-1.04778e-07
1.50273e-06
-1.09464e-07
1.53519e-06
-1.14947e-07
1.56942e-06
-1.21231e-07
1.60561e-06
-1.28307e-07
1.64397e-06
-1.36157e-07
1.6847e-06
-1.44753e-07
1.728e-06
-1.54063e-07
1.77405e-06
-1.64053e-07
1.82305e-06
-1.74706e-07
1.87519e-06
-1.86029e-07
1.93066e-06
-1.98075e-07
1.98963e-06
-2.10951e-07
2.05231e-06
-2.24821e-07
2.11885e-06
-2.39879e-07
2.18942e-06
-2.563e-07
2.26411e-06
-2.74157e-07
2.34295e-06
-2.93328e-07
2.4258e-06
-3.13406e-07
2.51237e-06
-3.33672e-07
2.60216e-06
-3.53128e-07
2.69446e-06
-3.70619e-07
2.78837e-06
-3.84995e-07
2.88289e-06
-3.9528e-07
2.97694e-06
-4.00802e-07
3.06949e-06
-4.01251e-07
3.15953e-06
-3.96676e-07
3.24621e-06
-3.87426e-07
3.32881e-06
-3.74073e-07
3.40676e-06
-3.57316e-07
3.47966e-06
-3.37906e-07
3.54725e-06
-3.16582e-07
3.60938e-06
-2.94027e-07
3.66606e-06
-2.70841e-07
3.71733e-06
-2.47529e-07
3.76335e-06
-2.245e-07
3.80432e-06
-2.02067e-07
3.84045e-06
-1.80459e-07
3.872e-06
-1.59832e-07
3.89924e-06
-1.40278e-07
3.92241e-06
-1.21844e-07
3.94175e-06
-1.04545e-07
3.95745e-06
-8.84101e-08
3.9696e-06
-7.34451e-08
3.97817e-06
-6.00998e-08
-4.79147e-08
-5.09273e-08
1.74439e-07
-9.93313e-08
2.15966e-07
-1.463e-07
2.41854e-07
-1.93433e-07
2.5926e-07
-2.41358e-07
2.70901e-07
-2.901e-07
2.78737e-07
-3.39451e-07
2.8413e-07
-3.89139e-07
2.87926e-07
-4.38879e-07
2.90608e-07
-4.88378e-07
2.92433e-07
-5.37348e-07
2.93513e-07
-5.85537e-07
2.93859e-07
-6.32772e-07
2.93413e-07
-6.79026e-07
2.92071e-07
-7.24462e-07
2.89772e-07
-7.69198e-07
2.86685e-07
-8.13224e-07
2.83126e-07
-8.56825e-07
2.79188e-07
-9.00291e-07
2.75052e-07
-9.43492e-07
2.71134e-07
-9.863e-07
2.67613e-07
-1.02868e-06
2.64441e-07
-1.07065e-06
2.61545e-07
-1.11221e-06
2.58854e-07
-1.15338e-06
2.56303e-07
-1.19416e-06
2.53833e-07
-1.23454e-06
2.51392e-07
-1.27451e-06
2.4893e-07
-1.31406e-06
2.46403e-07
-1.35315e-06
2.43773e-07
-1.39176e-06
2.41002e-07
-1.42985e-06
2.38061e-07
-1.46738e-06
2.34922e-07
-1.50432e-06
2.3156e-07
-1.54061e-06
2.27955e-07
-1.57622e-06
2.24089e-07
-1.61109e-06
2.19946e-07
-1.64517e-06
2.15513e-07
-1.67841e-06
2.10778e-07
-1.71076e-06
2.0573e-07
-1.74216e-06
2.0036e-07
-1.77256e-06
1.94659e-07
-1.8019e-06
1.88617e-07
-1.83011e-06
1.82228e-07
-1.85715e-06
1.75483e-07
-1.88295e-06
1.68374e-07
-1.90744e-06
1.60896e-07
-1.93055e-06
1.53044e-07
-1.95223e-06
1.44814e-07
-1.97241e-06
1.36206e-07
-1.99101e-06
1.27221e-07
-2.00798e-06
1.17865e-07
-2.02323e-06
1.08147e-07
-2.03672e-06
9.80783e-08
-2.04837e-06
8.76779e-08
-2.05814e-06
7.69678e-08
-2.06595e-06
6.59753e-08
-2.07177e-06
5.47319e-08
-2.07555e-06
4.32729e-08
-2.07726e-06
3.16369e-08
-2.07687e-06
1.98616e-08
-2.07436e-06
7.9821e-09
-2.06976e-06
-3.94206e-09
-2.06309e-06
-1.57982e-08
-2.05438e-06
-2.75177e-08
-2.04365e-06
-3.91032e-08
-2.03092e-06
-5.05627e-08
-2.0162e-06
-6.19048e-08
-1.9995e-06
-7.31344e-08
-1.98085e-06
-8.4252e-08
-1.96027e-06
-9.52545e-08
-1.93778e-06
-1.06137e-07
-1.91339e-06
-1.16892e-07
-1.88715e-06
-1.27514e-07
-1.85906e-06
-1.37996e-07
-1.82916e-06
-1.48329e-07
-1.79748e-06
-1.58504e-07
-1.76404e-06
-1.68514e-07
-1.72888e-06
-1.78344e-07
-1.69204e-06
-1.8798e-07
-1.65354e-06
-1.97409e-07
-1.61344e-06
-2.06617e-07
-1.57178e-06
-2.15591e-07
-1.5286e-06
-2.2432e-07
-1.48394e-06
-2.32793e-07
-1.43786e-06
-2.40998e-07
-1.39041e-06
-2.48915e-07
-1.34165e-06
-2.56525e-07
-1.29164e-06
-2.63812e-07
-1.24043e-06
-2.70763e-07
-1.18811e-06
-2.77369e-07
-1.13472e-06
-2.83622e-07
-1.08034e-06
-2.895e-07
-1.02504e-06
-2.9498e-07
-9.68903e-07
-3.00047e-07
-9.12008e-07
-3.04695e-07
-8.54428e-07
-3.08927e-07
-7.96242e-07
-3.12727e-07
-7.37538e-07
-3.16062e-07
-6.78406e-07
-3.18922e-07
-6.18933e-07
-3.21321e-07
-5.592e-07
-3.23264e-07
-4.99294e-07
-3.24719e-07
-4.39315e-07
-3.25664e-07
-3.79351e-07
-3.26127e-07
-3.19485e-07
-3.2613e-07
-2.59802e-07
-3.25638e-07
-2.00396e-07
-3.24625e-07
-1.41362e-07
-3.23151e-07
-8.27816e-08
-3.2124e-07
-2.47072e-08
-3.18852e-07
3.27571e-08
-3.15981e-07
8.94608e-08
-3.12632e-07
1.45326e-07
-3.0886e-07
2.00307e-07
-3.04667e-07
2.54338e-07
-3.00034e-07
3.07346e-07
-2.95011e-07
3.59277e-07
-2.89623e-07
4.10094e-07
-2.8386e-07
4.59748e-07
-2.77766e-07
5.08199e-07
-2.71377e-07
5.55434e-07
-2.64692e-07
6.01431e-07
-2.57762e-07
6.46156e-07
-2.50649e-07
6.89591e-07
-2.43374e-07
7.31768e-07
-2.35915e-07
7.72721e-07
-2.28307e-07
8.12444e-07
-2.20647e-07
8.50933e-07
-2.12997e-07
8.88194e-07
-2.05409e-07
9.24239e-07
-1.97923e-07
9.59096e-07
-1.90574e-07
9.92798e-07
-1.83394e-07
1.02539e-06
-1.76413e-07
1.05692e-06
-1.69661e-07
1.08744e-06
-1.63171e-07
1.11702e-06
-1.56973e-07
1.14574e-06
-1.511e-07
1.17365e-06
-1.45585e-07
1.20086e-06
-1.40461e-07
1.22744e-06
-1.35763e-07
1.25348e-06
-1.31524e-07
1.27909e-06
-1.27781e-07
1.30438e-06
-1.24569e-07
1.32945e-06
-1.21925e-07
1.35442e-06
-1.19887e-07
1.37942e-06
-1.18492e-07
1.40456e-06
-1.1778e-07
1.43e-06
-1.17788e-07
1.45587e-06
-1.18558e-07
1.48232e-06
-1.20128e-07
1.5095e-06
-1.22538e-07
1.53758e-06
-1.25823e-07
1.56672e-06
-1.3002e-07
1.5971e-06
-1.35157e-07
1.62889e-06
-1.41262e-07
1.6623e-06
-1.4835e-07
1.6975e-06
-1.56431e-07
1.73469e-06
-1.65501e-07
1.77408e-06
-1.75546e-07
1.81587e-06
-1.86539e-07
1.86026e-06
-1.98448e-07
1.90745e-06
-2.11239e-07
1.95763e-06
-2.24887e-07
2.011e-06
-2.39395e-07
2.06773e-06
-2.54801e-07
2.12798e-06
-2.71198e-07
2.19189e-06
-2.88726e-07
2.25956e-06
-3.07544e-07
2.33105e-06
-3.27782e-07
2.40634e-06
-3.4944e-07
2.48532e-06
-3.72294e-07
2.56772e-06
-3.95802e-07
2.65313e-06
-4.19077e-07
2.74095e-06
-4.40943e-07
2.83041e-06
-4.6007e-07
2.92059e-06
-4.75174e-07
3.01051e-06
-4.85198e-07
3.09917e-06
-4.89456e-07
3.1856e-06
-4.87683e-07
3.26896e-06
-4.80028e-07
3.34851e-06
-4.6697e-07
3.42366e-06
-4.49229e-07
3.494e-06
-4.27653e-07
3.55923e-06
-4.03138e-07
3.6192e-06
-3.76553e-07
3.67387e-06
-3.48692e-07
3.72327e-06
-3.20249e-07
3.76755e-06
-2.91805e-07
3.80687e-06
-2.63823e-07
3.84145e-06
-2.36658e-07
3.87155e-06
-2.10563e-07
3.89743e-06
-1.85708e-07
3.91933e-06
-1.62182e-07
3.93751e-06
-1.40023e-07
3.95217e-06
-1.19214e-07
3.9635e-06
-9.97384e-08
3.97156e-06
-8.14979e-08
3.97638e-06
-6.49109e-08
-4.96107e-08
-4.96031e-08
2.24044e-07
-9.68886e-08
2.63253e-07
-1.42303e-07
2.87269e-07
-1.8707e-07
3.04029e-07
-2.31846e-07
3.15677e-07
-2.76801e-07
3.23693e-07
-3.21853e-07
3.29184e-07
-3.66819e-07
3.32892e-07
-4.11481e-07
3.35269e-07
-4.55619e-07
3.36571e-07
-4.99039e-07
3.36931e-07
-5.41589e-07
3.36409e-07
-5.83201e-07
3.35024e-07
-6.23917e-07
3.32786e-07
-6.63891e-07
3.29745e-07
-7.03277e-07
3.2607e-07
-7.4216e-07
3.22008e-07
-7.807e-07
3.17727e-07
-8.1905e-07
3.13402e-07
-8.57188e-07
3.09272e-07
-8.95041e-07
3.05467e-07
-9.32578e-07
3.01979e-07
-9.69789e-07
2.98756e-07
-1.00667e-06
2.95736e-07
-1.04322e-06
2.92851e-07
-1.07943e-06
2.90041e-07
-1.11529e-06
2.87246e-07
-1.15077e-06
2.84413e-07
-1.18586e-06
2.81491e-07
-1.22052e-06
2.78437e-07
-1.25473e-06
2.75212e-07
-1.28845e-06
2.7178e-07
-1.32164e-06
2.68111e-07
-1.35426e-06
2.64178e-07
-1.38626e-06
2.59959e-07
-1.41761e-06
2.55435e-07
-1.44825e-06
2.50587e-07
-1.47814e-06
2.45402e-07
-1.50723e-06
2.39866e-07
-1.53546e-06
2.33969e-07
-1.5628e-06
2.277e-07
-1.58919e-06
2.21048e-07
-1.61458e-06
2.14005e-07
-1.63891e-06
2.0656e-07
-1.66214e-06
1.98705e-07
-1.68419e-06
1.9043e-07
-1.70502e-06
1.81728e-07
-1.72457e-06
1.72591e-07
-1.74277e-06
1.63016e-07
-1.75957e-06
1.53e-07
-1.77489e-06
1.42545e-07
-1.78868e-06
1.31656e-07
-1.80087e-06
1.20341e-07
-1.81141e-06
1.08615e-07
-1.82023e-06
9.64969e-08
-1.82727e-06
8.40134e-08
-1.83249e-06
7.11957e-08
-1.83584e-06
5.8081e-08
-1.83728e-06
4.47114e-08
-1.83678e-06
3.11335e-08
-1.83431e-06
1.73929e-08
-1.82986e-06
3.53099e-09
-1.82347e-06
-1.03355e-08
-1.81518e-06
-2.40818e-08
-1.80502e-06
-3.76807e-08
-1.79299e-06
-5.11337e-08
-1.7791e-06
-6.44476e-08
-1.76338e-06
-7.76295e-08
-1.74583e-06
-9.06834e-08
-1.72647e-06
-1.03609e-07
-1.70533e-06
-1.164e-07
-1.68241e-06
-1.29052e-07
-1.65775e-06
-1.41555e-07
-1.63136e-06
-1.53902e-07
-1.60327e-06
-1.66085e-07
-1.57351e-06
-1.78093e-07
-1.5421e-06
-1.89917e-07
-1.50906e-06
-2.01547e-07
-1.47444e-06
-2.12968e-07
-1.43826e-06
-2.24163e-07
-1.40055e-06
-2.35114e-07
-1.36137e-06
-2.45804e-07
-1.32074e-06
-2.5622e-07
-1.27871e-06
-2.66347e-07
-1.23533e-06
-2.76175e-07
-1.19064e-06
-2.85689e-07
-1.14469e-06
-2.94867e-07
-1.09753e-06
-3.03682e-07
-1.04923e-06
-3.12117e-07
-9.99834e-07
-3.20156e-07
-9.49416e-07
-3.27788e-07
-8.9803e-07
-3.35008e-07
-8.45741e-07
-3.41789e-07
-7.92621e-07
-3.481e-07
-7.38745e-07
-3.53924e-07
-6.84189e-07
-3.5925e-07
-6.29024e-07
-3.64093e-07
-5.73321e-07
-3.68429e-07
-5.17166e-07
-3.72217e-07
-4.60645e-07
-3.75444e-07
-4.0384e-07
-3.78127e-07
-3.46828e-07
-3.80276e-07
-2.89693e-07
-3.81854e-07
-2.32522e-07
-3.82835e-07
-1.75405e-07
-3.83243e-07
-1.18432e-07
-3.83103e-07
-6.16756e-08
-3.82394e-07
-5.18196e-09
-3.81119e-07
5.09117e-08
-3.79245e-07
1.06463e-07
-3.76791e-07
1.61426e-07
-3.73815e-07
2.15737e-07
-3.70292e-07
2.69321e-07
-3.66216e-07
3.221e-07
-3.61639e-07
3.7401e-07
-3.56577e-07
4.25004e-07
-3.51027e-07
4.75021e-07
-3.45028e-07
5.2401e-07
-3.38611e-07
5.71937e-07
-3.31787e-07
6.18766e-07
-3.24594e-07
6.64461e-07
-3.17072e-07
7.0901e-07
-3.0924e-07
7.52397e-07
-3.01147e-07
7.94599e-07
-2.9285e-07
8.35608e-07
-2.84382e-07
8.75446e-07
-2.75751e-07
9.14138e-07
-2.66998e-07
9.51693e-07
-2.582e-07
9.88118e-07
-2.4942e-07
1.02342e-06
-2.40713e-07
1.05763e-06
-2.32129e-07
1.09077e-06
-2.23709e-07
1.12287e-06
-2.15494e-07
1.15398e-06
-2.07522e-07
1.18415e-06
-1.99831e-07
1.21344e-06
-1.92458e-07
1.24191e-06
-1.85442e-07
1.26963e-06
-1.7882e-07
1.29668e-06
-1.72631e-07
1.32314e-06
-1.66914e-07
1.34909e-06
-1.61708e-07
1.37462e-06
-1.57053e-07
1.39983e-06
-1.5299e-07
1.42482e-06
-1.49559e-07
1.4497e-06
-1.46804e-07
1.47458e-06
-1.44765e-07
1.49958e-06
-1.43487e-07
1.52481e-06
-1.43013e-07
1.55041e-06
-1.43388e-07
1.57651e-06
-1.44658e-07
1.60325e-06
-1.46867e-07
1.63077e-06
-1.5006e-07
1.65923e-06
-1.5428e-07
1.68878e-06
-1.59569e-07
1.71959e-06
-1.65963e-07
1.75182e-06
-1.73494e-07
1.78565e-06
-1.82188e-07
1.82128e-06
-1.92059e-07
1.85889e-06
-2.0311e-07
1.89867e-06
-2.15335e-07
1.94084e-06
-2.28711e-07
1.9856e-06
-2.43209e-07
2.03315e-06
-2.58793e-07
2.08369e-06
-2.75435e-07
2.13742e-06
-2.93122e-07
2.19449e-06
-3.11876e-07
2.25504e-06
-3.31758e-07
2.31917e-06
-3.52865e-07
2.38693e-06
-3.75308e-07
2.45829e-06
-3.99144e-07
2.53313e-06
-4.24289e-07
2.61124e-06
-4.50407e-07
2.69226e-06
-4.76824e-07