/*--------------------------------*- C++ -*----------------------------------*\
  =========                 |
  \\      /  F ield         | OpenFOAM: The Open Source CFD Toolbox
   \\    /   O peration     | Website:  https://openfoam.org
    \\  /    A nd           | Version:  7
     \\/     M anipulation  |
\*---------------------------------------------------------------------------*/
FoamFile
{
    version     2.0;
    format      ascii;
    class       volVectorField;
    location    "800";
    object      U;
}
// * * * * * * * * * * * * * * * * * * * * * * * * * * * * * * * * * * * * * //

dimensions      [0 1 -1 0 0 0 0];

internalField   nonuniform List<vector> 
16900
(
(0.00659178 -0.00779319 0)
(-0.00775433 0.0203167 0)
(-0.0480571 0.0334319 0)
(-0.0966786 0.0371077 0)
(-0.148527 0.0380113 0)
(-0.201828 0.0382907 0)
(-0.255897 0.0385143 0)
(-0.310422 0.0388784 0)
(-0.365258 0.0395447 0)
(-0.420373 0.0407224 0)
(-0.475898 0.0426551 0)
(-0.532317 0.0455112 0)
(-0.590536 0.0491111 0)
(-0.651002 0.0521013 0)
(-0.712252 0.0494551 0)
(-0.771584 0.0532412 0)
(-0.829977 0.0759365 0)
(-0.894413 0.0618243 0)
(-0.955986 0.0310138 0)
(-1.00855 0.0320278 0)
(-1.06203 0.0328872 0)
(-1.11643 0.0329221 0)
(-1.17067 0.0326606 0)
(-1.22455 0.0322923 0)
(-1.27801 0.0318941 0)
(-1.33102 0.031492 0)
(-1.38359 0.0310939 0)
(-1.43572 0.0306982 0)
(-1.48739 0.0303015 0)
(-1.53858 0.0298994 0)
(-1.58929 0.0294874 0)
(-1.63948 0.0290615 0)
(-1.68911 0.0286179 0)
(-1.73815 0.0281537 0)
(-1.78655 0.027666 0)
(-1.83426 0.0271525 0)
(-1.88122 0.0266114 0)
(-1.92739 0.026041 0)
(-1.97269 0.0254398 0)
(-2.01707 0.0248068 0)
(-2.06046 0.0241409 0)
(-2.1028 0.0234412 0)
(-2.14401 0.0227072 0)
(-2.18404 0.0219382 0)
(-2.2228 0.0211337 0)
(-2.26023 0.0202933 0)
(-2.29625 0.019417 0)
(-2.33079 0.0185047 0)
(-2.36377 0.0175566 0)
(-2.39513 0.0165733 0)
(-2.42478 0.0155556 0)
(-2.45266 0.0145045 0)
(-2.4787 0.0134215 0)
(-2.50283 0.0123085 0)
(-2.52498 0.0111678 0)
(-2.5451 0.0100018 0)
(-2.56314 0.00881372 0)
(-2.57904 0.00760659 0)
(-2.59276 0.00638384 0)
(-2.60427 0.0051488 0)
(-2.61355 0.00390482 0)
(-2.62056 0.00265473 0)
(-2.6253 0.00139967 0)
(-2.62775 0.000139676 0)
(-2.6279 -0.001113 0)
(-2.62576 -0.00234043 0)
(-2.62139 -0.00354317 0)
(-2.61481 -0.00473015 0)
(-2.60604 -0.00590357 0)
(-2.59512 -0.0070643 0)
(-2.58206 -0.00821254 0)
(-2.56689 -0.00934831 0)
(-2.54963 -0.0104714 0)
(-2.5303 -0.0115816 0)
(-2.50893 -0.0126784 0)
(-2.48554 -0.0137616 0)
(-2.46017 -0.0148305 0)
(-2.43284 -0.0158845 0)
(-2.40359 -0.0169229 0)
(-2.37245 -0.0179447 0)
(-2.33945 -0.0189492 0)
(-2.30464 -0.0199356 0)
(-2.26806 -0.0209031 0)
(-2.22975 -0.021851 0)
(-2.18976 -0.0227784 0)
(-2.14813 -0.0236843 0)
(-2.10491 -0.0245675 0)
(-2.06016 -0.0254269 0)
(-2.01394 -0.0262615 0)
(-1.96631 -0.0270705 0)
(-1.91732 -0.0278531 0)
(-1.86703 -0.0286082 0)
(-1.81553 -0.0293344 0)
(-1.76287 -0.0300302 0)
(-1.70913 -0.030695 0)
(-1.65438 -0.0313282 0)
(-1.5987 -0.0319291 0)
(-1.54217 -0.0324961 0)
(-1.48487 -0.0330275 0)
(-1.42688 -0.0335229 0)
(-1.36829 -0.0339826 0)
(-1.30918 -0.0344056 0)
(-1.24965 -0.0347895 0)
(-1.18978 -0.0351337 0)
(-1.12966 -0.03544 0)
(-1.06939 -0.0357078 0)
(-1.00905 -0.0359331 0)
(-0.948739 -0.0361159 0)
(-0.888549 -0.0362639 0)
(-0.828558 -0.0363728 0)
(-0.768865 -0.0364335 0)
(-0.709564 -0.0364576 0)
(-0.650726 -0.0364475 0)
(-0.592444 -0.0363875 0)
(-0.534813 -0.0362894 0)
(-0.477891 -0.0361688 0)
(-0.42176 -0.0359948 0)
(-0.366512 -0.0357785 0)
(-0.312194 -0.035566 0)
(-0.258879 -0.0353034 0)
(-0.206643 -0.0349604 0)
(-0.155534 -0.0346215 0)
(-0.105693 -0.0342786 0)
(-0.0570754 -0.033877 0)
(-0.00978223 -0.0333293 0)
(0.0367547 -0.0320673 0)
(0.080529 -0.030315 0)
(0.123066 -0.0286492 0)
(0.16394 -0.0270952 0)
(0.203165 -0.0256369 0)
(0.240804 -0.0242557 0)
(0.276891 -0.0229411 0)
(0.311457 -0.0216862 0)
(0.344529 -0.0204871 0)
(0.376141 -0.0193409 0)
(0.406327 -0.0182465 0)
(0.435127 -0.017203 0)
(0.462586 -0.0162108 0)
(0.488756 -0.0152699 0)
(0.513692 -0.0143816 0)
(0.537459 -0.0135464 0)
(0.560126 -0.0127663 0)
(0.581771 -0.0120424 0)
(0.602477 -0.011377 0)
(0.622336 -0.0107715 0)
(0.641447 -0.0102288 0)
(0.659916 -0.00975048 0)
(0.67786 -0.00933977 0)
(0.695399 -0.00899837 0)
(0.712667 -0.0087298 0)
(0.729801 -0.0085357 0)
(0.74695 -0.00841948 0)
(0.764268 -0.00838241 0)
(0.781917 -0.00842722 0)
(0.800065 -0.00855413 0)
(0.818883 -0.00876434 0)
(0.838546 -0.00905599 0)
(0.859227 -0.00942753 0)
(0.881095 -0.00987384 0)
(0.904311 -0.0103895 0)
(0.929027 -0.0109657 0)
(0.955378 -0.0115937 0)
(0.983487 -0.012263 0)
(1.01347 -0.0129665 0)
(1.04542 -0.0137002 0)
(1.07948 -0.01447 0)
(1.1158 -0.0152928 0)
(1.15462 -0.0162016 0)
(1.19625 -0.0172439 0)
(1.24113 -0.018478 0)
(1.28981 -0.0199615 0)
(1.34292 -0.0217352 0)
(1.40109 -0.0238048 0)
(1.46483 -0.0261255 0)
(1.53445 -0.0285984 0)
(1.60993 -0.0310778 0)
(1.69089 -0.0333947 0)
(1.77656 -0.0353813 0)
(1.86591 -0.0369002 0)
(1.95764 -0.0378582 0)
(2.05041 -0.0382165 0)
(2.14284 -0.0379838 0)
(2.23369 -0.0372101 0)
(2.32183 -0.0359697 0)
(2.40636 -0.0343529 0)
(2.48655 -0.0324514 0)
(2.56187 -0.0303542 0)
(2.632 -0.0281393 0)
(2.69673 -0.0258746 0)
(2.75601 -0.0236135 0)
(2.80989 -0.0213992 0)
(2.85849 -0.0192618 0)
(2.90201 -0.0172242 0)
(2.94066 -0.0153 0)
(2.9747 -0.0135003 0)
(3.00442 -0.0118342 0)
(3.03014 -0.0103237 0)
(3.05224 -0.00901753 0)
(3.07121 -0.00813947 0)
(3.093 -0.00777526 0)
(-0.0194084 0.00977528 0)
(-0.0433254 0.0509838 0)
(-0.0826032 0.0720189 0)
(-0.128699 0.0809128 0)
(-0.178419 0.0846578 0)
(-0.230481 0.086379 0)
(-0.284061 0.0872436 0)
(-0.338707 0.0877056 0)
(-0.394218 0.0879592 0)
(-0.450525 0.088093 0)
(-0.507632 0.0881184 0)
(-0.565524 0.0879315 0)
(-0.623852 0.0873637 0)
(-0.681628 0.086485 0)
(-0.739605 0.0855785 0)
(-0.797737 0.0850915 0)
(-0.853547 0.0852927 0)
(-0.90783 0.0849812 0)
(-0.962849 0.0841479 0)
(-1.01851 0.0846154 0)
(-1.07291 0.084329 0)
(-1.12567 0.0836508 0)
(-1.17743 0.0827657 0)
(-1.22851 0.0818109 0)
(-1.27901 0.0808456 0)
(-1.32899 0.0798876 0)
(-1.37846 0.0789372 0)
(-1.42744 0.0779867 0)
(-1.47592 0.0770258 0)
(-1.52389 0.0760435 0)
(-1.57133 0.0750293 0)
(-1.61821 0.0739738 0)
(-1.6645 0.0728684 0)
(-1.71016 0.071706 0)
(-1.75516 0.0704803 0)
(-1.79943 0.069186 0)
(-1.84294 0.0678187 0)
(-1.88562 0.0663747 0)
(-1.92743 0.0648509 0)
(-1.9683 0.0632449 0)
(-2.00818 0.0615544 0)
(-2.04699 0.0597778 0)
(-2.08469 0.0579136 0)
(-2.1212 0.0559605 0)
(-2.15645 0.0539177 0)
(-2.19038 0.0517846 0)
(-2.22292 0.0495609 0)
(-2.25399 0.0472471 0)
(-2.28353 0.0448438 0)
(-2.31146 0.0423528 0)
(-2.33772 0.0397761 0)
(-2.36223 0.0371169 0)
(-2.38493 0.0343792 0)
(-2.40576 0.0315683 0)
(-2.42464 0.0286901 0)
(-2.44152 0.025752 0)
(-2.45636 0.022762 0)
(-2.46909 0.0197293 0)
(-2.47968 0.0166635 0)
(-2.4881 0.0135744 0)
(-2.49431 0.0104716 0)
(-2.4983 0.00736374 0)
(-2.50005 0.00425455 0)
(-2.49955 0.00114543 0)
(-2.49677 -0.0019337 0)
(-2.49181 -0.00494455 0)
(-2.48467 -0.00788887 0)
(-2.47538 -0.010779 0)
(-2.46395 -0.0136197 0)
(-2.45042 -0.0164127 0)
(-2.43479 -0.0191583 0)
(-2.4171 -0.0218562 0)
(-2.39737 -0.0245057 0)
(-2.37562 -0.0271057 0)
(-2.35188 -0.0296552 0)
(-2.32617 -0.0321527 0)
(-2.29852 -0.0345967 0)
(-2.26896 -0.0369854 0)
(-2.23753 -0.0393166 0)
(-2.20426 -0.0415878 0)
(-2.16919 -0.0437967 0)
(-2.13236 -0.0459411 0)
(-2.0938 -0.0480189 0)
(-2.05357 -0.0500281 0)
(-2.01171 -0.0519666 0)
(-1.96826 -0.0538318 0)
(-1.92329 -0.0556208 0)
(-1.87684 -0.0573305 0)
(-1.82898 -0.0589587 0)
(-1.77977 -0.0605032 0)
(-1.72926 -0.0619625 0)
(-1.67752 -0.0633343 0)
(-1.62462 -0.0646154 0)
(-1.57064 -0.0658027 0)
(-1.51564 -0.0668945 0)
(-1.45971 -0.0678899 0)
(-1.40291 -0.0687884 0)
(-1.34533 -0.0695871 0)
(-1.28706 -0.0702824 0)
(-1.22818 -0.0708738 0)
(-1.16877 -0.071363 0)
(-1.10892 -0.0717495 0)
(-1.04872 -0.072029 0)
(-0.988261 -0.0722003 0)
(-0.927636 -0.0722689 0)
(-0.86693 -0.0722363 0)
(-0.806234 -0.0720952 0)
(-0.745648 -0.0718454 0)
(-0.685258 -0.0715038 0)
(-0.625144 -0.071068 0)
(-0.5654 -0.0705199 0)
(-0.506119 -0.0698812 0)
(-0.447376 -0.0691631 0)
(-0.389253 -0.06834 0)
(-0.331837 -0.0674285 0)
(-0.275199 -0.0664626 0)
(-0.219419 -0.065404 0)
(-0.164539 -0.0642531 0)
(-0.110661 -0.0630698 0)
(-0.0578909 -0.061819 0)
(-0.00611157 -0.0604496 0)
(0.0445542 -0.0589795 0)
(0.0936138 -0.0574536 0)
(0.141353 -0.0558949 0)
(0.187673 -0.054291 0)
(0.232652 -0.0523327 0)
(0.276057 -0.0501034 0)
(0.318083 -0.0479395 0)
(0.358624 -0.045835 0)
(0.397677 -0.0437979 0)
(0.435264 -0.041823 0)
(0.471409 -0.039905 0)
(0.506139 -0.038042 0)
(0.539486 -0.0362342 0)
(0.571488 -0.0344841 0)
(0.602186 -0.0327947 0)
(0.631628 -0.0311703 0)
(0.659868 -0.0296154 0)
(0.686964 -0.0281352 0)
(0.712982 -0.0267351 0)
(0.737995 -0.0254206 0)
(0.76208 -0.0241976 0)
(0.785324 -0.023072 0)
(0.807818 -0.0220501 0)
(0.829661 -0.0211381 0)
(0.850961 -0.0203424 0)
(0.871832 -0.0196698 0)
(0.892394 -0.0191267 0)
(0.912779 -0.0187199 0)
(0.933121 -0.0184562 0)
(0.953567 -0.0183418 0)
(0.974269 -0.018383 0)
(0.995385 -0.0185853 0)
(1.01708 -0.0189534 0)
(1.03954 -0.0194906 0)
(1.06292 -0.0201985 0)
(1.08741 -0.0210763 0)
(1.11319 -0.0221206 0)
(1.14044 -0.0233245 0)
(1.16934 -0.024678 0)
(1.20004 -0.0261678 0)
(1.23272 -0.0277797 0)
(1.26753 -0.0294997 0)
(1.3046 -0.0313192 0)
(1.34409 -0.0332397 0)
(1.38615 -0.0352799 0)
(1.43097 -0.0374803 0)
(1.47878 -0.0399067 0)
(1.52985 -0.0426455 0)
(1.58452 -0.0457911 0)
(1.64318 -0.0494212 0)
(1.70622 -0.0535673 0)
(1.77395 -0.0581835 0)
(1.84657 -0.0631277 0)
(1.92406 -0.0681648 0)
(2.00614 -0.0729916 0)
(2.09221 -0.0772823 0)
(2.18145 -0.0807381 0)
(2.27282 -0.0831302 0)
(2.36515 -0.0843236 0)
(2.45727 -0.084284 0)
(2.54802 -0.0830644 0)
(2.63637 -0.0807865 0)
(2.72142 -0.0776139 0)
(2.80246 -0.073731 0)
(2.87894 -0.0693228 0)
(2.95047 -0.0645635 0)
(3.01683 -0.0596061 0)
(3.07791 -0.0545809 0)
(3.13371 -0.0495922 0)
(3.18431 -0.0447215 0)
(3.22988 -0.0400276 0)
(3.27061 -0.0355525 0)
(3.30672 -0.0313227 0)
(3.33846 -0.0273572 0)
(3.36609 -0.0236735 0)
(3.38987 -0.0203116 0)
(3.41008 -0.0173583 0)
(3.4269 -0.015197 0)
(3.44331 -0.0137818 0)
(-0.0310407 0.048114 0)
(-0.0617426 0.0920482 0)
(-0.102603 0.117407 0)
(-0.148003 0.130744 0)
(-0.195982 0.137716 0)
(-0.246115 0.141587 0)
(-0.297828 0.143946 0)
(-0.350676 0.145563 0)
(-0.404372 0.146844 0)
(-0.458706 0.148043 0)
(-0.513475 0.149321 0)
(-0.568425 0.150731 0)
(-0.623132 0.15216 0)
(-0.677029 0.153133 0)
(-0.730248 0.152564 0)
(-0.782986 0.150742 0)
(-0.834403 0.148983 0)
(-0.884287 0.145953 0)
(-0.934049 0.141444 0)
(-0.984179 0.137822 0)
(-1.03376 0.135291 0)
(-1.08238 0.133213 0)
(-1.13025 0.131325 0)
(-1.17751 0.129549 0)
(-1.22423 0.127849 0)
(-1.27047 0.1262 0)
(-1.31623 0.124581 0)
(-1.36153 0.122969 0)
(-1.40636 0.121344 0)
(-1.45071 0.119687 0)
(-1.49455 0.117981 0)
(-1.53786 0.11621 0)
(-1.58061 0.114362 0)
(-1.62276 0.112425 0)
(-1.66426 0.110389 0)
(-1.70507 0.108246 0)
(-1.74515 0.105989 0)
(-1.78444 0.103613 0)
(-1.82289 0.101113 0)
(-1.86045 0.0984847 0)
(-1.89705 0.0957249 0)
(-1.93264 0.0928308 0)
(-1.96716 0.0898001 0)
(-2.00054 0.0866308 0)
(-2.03273 0.0833213 0)
(-2.06365 0.0798706 0)
(-2.09324 0.0762781 0)
(-2.12144 0.0725442 0)
(-2.14817 0.06867 0)
(-2.17336 0.0646577 0)
(-2.19695 0.0605108 0)
(-2.21887 0.056234 0)
(-2.23906 0.0518336 0)
(-2.25744 0.0473176 0)
(-2.27396 0.0426958 0)
(-2.28855 0.0379795 0)
(-2.30117 0.0331816 0)
(-2.31176 0.0283167 0)
(-2.32028 0.0233999 0)
(-2.32669 0.0184472 0)
(-2.33098 0.0134741 0)
(-2.3331 0.0084939 0)
(-2.33306 0.00351545 0)
(-2.33081 -0.0014419 0)
(-2.32644 -0.00632269 0)
(-2.31995 -0.0110952 0)
(-2.31136 -0.0157724 0)
(-2.30069 -0.0203639 0)
(-2.28796 -0.024875 0)
(-2.2732 -0.0293075 0)
(-2.25642 -0.0336616 0)
(-2.23764 -0.0379365 0)
(-2.2169 -0.0421306 0)
(-2.1942 -0.0462422 0)
(-2.16958 -0.0502693 0)
(-2.14306 -0.0542095 0)
(-2.11467 -0.0580602 0)
(-2.08444 -0.0618182 0)
(-2.0524 -0.0654798 0)
(-2.01859 -0.0690409 0)
(-1.98304 -0.0724973 0)
(-1.94579 -0.0758453 0)
(-1.90688 -0.0790813 0)
(-1.86637 -0.0822019 0)
(-1.82428 -0.0852037 0)
(-1.78068 -0.0880825 0)
(-1.73561 -0.0908333 0)
(-1.68913 -0.093451 0)
(-1.64129 -0.0959314 0)
(-1.59216 -0.0982713 0)
(-1.5418 -0.100468 0)
(-1.49028 -0.102518 0)
(-1.43765 -0.104417 0)
(-1.38399 -0.106158 0)
(-1.32938 -0.107739 0)
(-1.2739 -0.109159 0)
(-1.21761 -0.110418 0)
(-1.1606 -0.111511 0)
(-1.10295 -0.112431 0)
(-1.04474 -0.113179 0)
(-0.98607 -0.113757 0)
(-0.927013 -0.114166 0)
(-0.867658 -0.114398 0)
(-0.808098 -0.114453 0)
(-0.748426 -0.114338 0)
(-0.688723 -0.114058 0)
(-0.629077 -0.113602 0)
(-0.569587 -0.112969 0)
(-0.510339 -0.112185 0)
(-0.451412 -0.111251 0)
(-0.392894 -0.110139 0)
(-0.334873 -0.108879 0)
(-0.27743 -0.107494 0)
(-0.220643 -0.105951 0)
(-0.164572 -0.104264 0)
(-0.109313 -0.10248 0)
(-0.0549662 -0.100575 0)
(-0.00145696 -0.098523 0)
(0.0510142 -0.0963552 0)
(0.10221 -0.0940929 0)
(0.152238 -0.0917142 0)
(0.201055 -0.0891775 0)
(0.248565 -0.086539 0)
(0.294783 -0.0838742 0)
(0.339623 -0.0811707 0)
(0.383119 -0.0783096 0)
(0.425297 -0.0753235 0)
(0.466189 -0.0723593 0)
(0.505728 -0.0694393 0)
(0.543904 -0.0665752 0)
(0.580724 -0.063772 0)
(0.616205 -0.0610328 0)
(0.650374 -0.0583616 0)
(0.683264 -0.0557639 0)
(0.714915 -0.0532464 0)
(0.745375 -0.0508167 0)
(0.774695 -0.0484833 0)
(0.802932 -0.0462548 0)
(0.830153 -0.0441405 0)
(0.856426 -0.0421498 0)
(0.881829 -0.0402925 0)
(0.906445 -0.0385783 0)
(0.930362 -0.0370173 0)
(0.953678 -0.0356196 0)
(0.976494 -0.0343956 0)
(0.998919 -0.0333556 0)
(1.02107 -0.0325103 0)
(1.04307 -0.0318702 0)
(1.06505 -0.0314461 0)
(1.08715 -0.0312483 0)
(1.10951 -0.0312872 0)
(1.13229 -0.0315724 0)
(1.15564 -0.0321127 0)
(1.17973 -0.0329157 0)
(1.20472 -0.0339869 0)
(1.2308 -0.0353296 0)
(1.25815 -0.0369434 0)
(1.28695 -0.0388245 0)
(1.31737 -0.0409642 0)
(1.34961 -0.0433497 0)
(1.38384 -0.045964 0)
(1.42024 -0.0487886 0)
(1.45897 -0.0518062 0)
(1.5002 -0.0550071 0)
(1.54409 -0.0583951 0)
(1.59083 -0.0619962 0)
(1.64058 -0.0658644 0)
(1.69356 -0.0700829 0)
(1.75 -0.0747559 0)
(1.81013 -0.0799883 0)
(1.87421 -0.0858518 0)
(1.94245 -0.0923449 0)
(2.01497 -0.0993553 0)
(2.09173 -0.106642 0)
(2.17252 -0.113845 0)
(2.25688 -0.120531 0)
(2.34411 -0.12625 0)
(2.43335 -0.130608 0)
(2.52357 -0.13332 0)
(2.61371 -0.134234 0)
(2.7027 -0.133338 0)
(2.78955 -0.130738 0)
(2.87339 -0.126627 0)
(2.95349 -0.121255 0)
(3.02928 -0.114892 0)
(3.10034 -0.107808 0)
(3.1664 -0.100255 0)
(3.22732 -0.092451 0)
(3.28306 -0.0845836 0)
(3.33369 -0.0768018 0)
(3.37932 -0.0692213 0)
(3.42014 -0.0619259 0)
(3.45635 -0.0549737 0)
(3.48819 -0.0484007 0)
(3.51591 -0.0422297 0)
(3.53973 -0.0364773 0)
(3.5599 -0.0311797 0)
(3.57659 -0.0264021 0)
(3.58987 -0.0224467 0)
(3.60123 -0.0191233 0)
(-0.0348888 0.0941615 0)
(-0.0698339 0.137181 0)
(-0.112612 0.163259 0)
(-0.158069 0.178732 0)
(-0.204798 0.187778 0)
(-0.253006 0.193194 0)
(-0.302433 0.196603 0)
(-0.352731 0.198888 0)
(-0.403598 0.200526 0)
(-0.454753 0.201775 0)
(-0.505909 0.202757 0)
(-0.556747 0.203469 0)
(-0.606917 0.203763 0)
(-0.656115 0.203311 0)
(-0.704377 0.201656 0)
(-0.751927 0.198992 0)
(-0.798645 0.196025 0)
(-0.844495 0.192473 0)
(-0.890021 0.188241 0)
(-0.935492 0.184285 0)
(-0.980605 0.180977 0)
(-1.02515 0.178092 0)
(-1.06915 0.175475 0)
(-1.11267 0.173038 0)
(-1.15573 0.170724 0)
(-1.19836 0.168489 0)
(-1.24057 0.166296 0)
(-1.28235 0.164113 0)
(-1.32371 0.16191 0)
(-1.36461 0.159661 0)
(-1.40505 0.157344 0)
(-1.44498 0.154938 0)
(-1.48438 0.152426 0)
(-1.52321 0.149792 0)
(-1.56142 0.147025 0)
(-1.59898 0.144113 0)
(-1.63583 0.141047 0)
(-1.67193 0.137821 0)
(-1.70723 0.134427 0)
(-1.74167 0.130862 0)
(-1.77519 0.127119 0)
(-1.80775 0.123197 0)
(-1.83929 0.119091 0)
(-1.86975 0.114798 0)
(-1.89906 0.110317 0)
(-1.92716 0.105645 0)
(-1.954 0.100781 0)
(-1.9795 0.0957253 0)
(-2.0036 0.0904789 0)
(-2.02623 0.0850442 0)
(-2.04734 0.0794253 0)
(-2.06684 0.0736282 0)
(-2.08468 0.0676609 0)
(-2.10079 0.0615339 0)
(-2.11511 0.0552598 0)
(-2.12758 0.0488539 0)
(-2.13814 0.0423337 0)
(-2.14675 0.0357186 0)
(-2.15336 0.0290296 0)
(-2.15794 0.022289 0)
(-2.16046 0.0155186 0)
(-2.16089 0.00873625 0)
(-2.15923 0.00195522 0)
(-2.15543 -0.00477084 0)
(-2.14962 -0.0113767 0)
(-2.14177 -0.0178509 0)
(-2.13191 -0.0242024 0)
(-2.12005 -0.0304402 0)
(-2.10621 -0.0365698 0)
(-2.09042 -0.0425932 0)
(-2.07268 -0.0485102 0)
(-2.05303 -0.0543195 0)
(-2.03148 -0.0600189 0)
(-2.00806 -0.0656058 0)
(-1.98278 -0.0710772 0)
(-1.95568 -0.0764301 0)
(-1.92679 -0.0816606 0)
(-1.89612 -0.0867647 0)
(-1.86372 -0.091737 0)
(-1.82962 -0.0965716 0)
(-1.79384 -0.101263 0)
(-1.75644 -0.105804 0)
(-1.71745 -0.110192 0)
(-1.67691 -0.114422 0)
(-1.63487 -0.118488 0)
(-1.59138 -0.122385 0)
(-1.54649 -0.126106 0)
(-1.50025 -0.129644 0)
(-1.45271 -0.132992 0)
(-1.40395 -0.136146 0)
(-1.35401 -0.139102 0)
(-1.30297 -0.141857 0)
(-1.25089 -0.144403 0)
(-1.19783 -0.146732 0)
(-1.14388 -0.148839 0)
(-1.08911 -0.150723 0)
(-1.0336 -0.152386 0)
(-0.97741 -0.153819 0)
(-0.920635 -0.155015 0)
(-0.863359 -0.155971 0)
(-0.805667 -0.156693 0)
(-0.74764 -0.157184 0)
(-0.68936 -0.157432 0)
(-0.630923 -0.157432 0)
(-0.572417 -0.1572 0)
(-0.513925 -0.156744 0)
(-0.455527 -0.156047 0)
(-0.397325 -0.155102 0)
(-0.339396 -0.153952 0)
(-0.28183 -0.152602 0)
(-0.224705 -0.151008 0)
(-0.168088 -0.149209 0)
(-0.112088 -0.147237 0)
(-0.05679 -0.145068 0)
(-0.00216733 -0.142694 0)
(0.0516134 -0.140142 0)
(0.104347 -0.137434 0)
(0.156097 -0.134554 0)
(0.206786 -0.13149 0)
(0.256337 -0.128284 0)
(0.304725 -0.124952 0)
(0.351918 -0.121469 0)
(0.397892 -0.117873 0)
(0.442622 -0.114222 0)
(0.486049 -0.110517 0)
(0.528187 -0.106692 0)
(0.569094 -0.10277 0)
(0.608782 -0.0988508 0)
(0.647215 -0.0949691 0)
(0.684386 -0.0911466 0)
(0.720298 -0.0873982 0)
(0.75497 -0.0837346 0)
(0.788428 -0.0801655 0)
(0.820706 -0.076701 0)
(0.851848 -0.0733519 0)
(0.881904 -0.0701296 0)
(0.910927 -0.0670459 0)
(0.93898 -0.0641134 0)
(0.96613 -0.0613445 0)
(0.992451 -0.0587522 0)
(1.01802 -0.0563496 0)
(1.04293 -0.0541499 0)
(1.06726 -0.0521665 0)
(1.09112 -0.0504131 0)
(1.11461 -0.0489034 0)
(1.13783 -0.0476512 0)
(1.16091 -0.0466705 0)
(1.18396 -0.0459755 0)
(1.20712 -0.0455803 0)
(1.23053 -0.0454987 0)
(1.25432 -0.0457443 0)
(1.27864 -0.0463301 0)
(1.30365 -0.0472679 0)
(1.32951 -0.0485679 0)
(1.3564 -0.0502381 0)
(1.38447 -0.0522835 0)
(1.41392 -0.0547047 0)
(1.44492 -0.0574982 0)
(1.47766 -0.0606545 0)
(1.51233 -0.0641591 0)
(1.54911 -0.0679924 0)
(1.58819 -0.0721328 0)
(1.62974 -0.0765599 0)
(1.67396 -0.0812615 0)
(1.72101 -0.0862409 0)
(1.77107 -0.0915258 0)
(1.82432 -0.0971742 0)
(1.88092 -0.103274 0)
(1.94106 -0.109933 0)
(2.0049 -0.117248 0)
(2.07255 -0.125271 0)
(2.1441 -0.133953 0)
(2.2195 -0.143109 0)
(2.29856 -0.1524 0)
(2.38091 -0.161351 0)
(2.46597 -0.16941 0)
(2.55298 -0.17603 0)
(2.64104 -0.180744 0)
(2.72915 -0.183234 0)
(2.81631 -0.183355 0)
(2.90156 -0.181135 0)
(2.98402 -0.176742 0)
(3.06297 -0.170452 0)
(3.13781 -0.162598 0)
(3.20808 -0.153539 0)
(3.27349 -0.143622 0)
(3.33386 -0.133171 0)
(3.38913 -0.122465 0)
(3.43933 -0.11174 0)
(3.48455 -0.101183 0)
(3.52497 -0.0909376 0)
(3.56078 -0.0811066 0)
(3.59222 -0.0717592 0)
(3.61951 -0.0629353 0)
(3.64291 -0.0546558 0)
(3.66264 -0.0469278 0)
(3.67891 -0.0397704 0)
(3.69183 -0.0332029 0)
(3.70152 -0.0274543 0)
(3.70842 -0.0222838 0)
(-0.0357081 0.143091 0)
(-0.0726873 0.183705 0)
(-0.116509 0.208653 0)
(-0.161702 0.224641 0)
(-0.207109 0.234717 0)
(-0.253249 0.241064 0)
(-0.300087 0.245123 0)
(-0.347379 0.247758 0)
(-0.394857 0.24945 0)
(-0.442252 0.250454 0)
(-0.489294 0.25088 0)
(-0.53572 0.250733 0)
(-0.581298 0.249926 0)
(-0.625891 0.2483 0)
(-0.669564 0.245704 0)
(-0.712518 0.242288 0)
(-0.754838 0.23845 0)
(-0.796597 0.234272 0)
(-0.83806 0.229849 0)
(-0.879367 0.22561 0)
(-0.920395 0.221788 0)
(-0.96103 0.218328 0)
(-1.00126 0.215146 0)
(-1.0411 0.212169 0)
(-1.08055 0.209335 0)
(-1.11963 0.206593 0)
(-1.15834 0.203896 0)
(-1.19666 0.201203 0)
(-1.23459 0.198481 0)
(-1.2721 0.195695 0)
(-1.30916 0.19282 0)
(-1.34574 0.189829 0)
(-1.38182 0.186703 0)
(-1.41734 0.183423 0)
(-1.45227 0.179976 0)
(-1.48657 0.176347 0)
(-1.5202 0.172526 0)
(-1.55309 0.168506 0)
(-1.58521 0.164278 0)
(-1.6165 0.159838 0)
(-1.64691 0.155178 0)
(-1.6764 0.150295 0)
(-1.7049 0.145186 0)
(-1.73236 0.139845 0)
(-1.75872 0.13427 0)
(-1.78393 0.128458 0)
(-1.80792 0.122408 0)
(-1.83064 0.116118 0)
(-1.85202 0.10959 0)
(-1.87199 0.102825 0)
(-1.8905 0.0958291 0)
(-1.90748 0.0886081 0)
(-1.92286 0.0811716 0)
(-1.93658 0.0735319 0)
(-1.94858 0.0657045 0)
(-1.95881 0.0577081 0)
(-1.9672 0.0495644 0)
(-1.97371 0.0412978 0)
(-1.9783 0.032935 0)
(-1.98092 0.0245046 0)
(-1.98155 0.0160344 0)
(-1.98019 0.00754784 0)
(-1.97677 -0.000925207 0)
(-1.97138 -0.00930315 0)
(-1.96405 -0.0175243 0)
(-1.95478 -0.0255911 0)
(-1.94358 -0.0335112 0)
(-1.93048 -0.0412926 0)
(-1.91549 -0.0489404 0)
(-1.89863 -0.0564567 0)
(-1.87992 -0.0638406 0)
(-1.85937 -0.07109 0)
(-1.83701 -0.0782018 0)
(-1.81286 -0.0851727 0)
(-1.78694 -0.0919989 0)
(-1.75928 -0.0986765 0)
(-1.7299 -0.105201 0)
(-1.69884 -0.111567 0)
(-1.66612 -0.117768 0)
(-1.63177 -0.123795 0)
(-1.59583 -0.129642 0)
(-1.55834 -0.135301 0)
(-1.51933 -0.140766 0)
(-1.47885 -0.146032 0)
(-1.43695 -0.151091 0)
(-1.39366 -0.155939 0)
(-1.34905 -0.160564 0)
(-1.30315 -0.164958 0)
(-1.25602 -0.169112 0)
(-1.20773 -0.17302 0)
(-1.15834 -0.176679 0)
(-1.10791 -0.180085 0)
(-1.05649 -0.183227 0)
(-1.00417 -0.186094 0)
(-0.951 -0.18868 0)
(-0.897074 -0.190983 0)
(-0.842459 -0.193008 0)
(-0.787227 -0.194745 0)
(-0.731457 -0.19618 0)
(-0.675238 -0.19731 0)
(-0.618653 -0.198146 0)
(-0.56178 -0.198692 0)
(-0.504699 -0.198932 0)
(-0.447503 -0.198857 0)
(-0.390278 -0.198488 0)
(-0.333109 -0.197841 0)
(-0.276072 -0.196894 0)
(-0.219267 -0.195635 0)
(-0.162741 -0.194113 0)
(-0.106641 -0.19234 0)
(-0.0510166 -0.190281 0)
(0.00414106 -0.187947 0)
(0.058618 -0.185362 0)
(0.112292 -0.182545 0)
(0.165171 -0.179488 0)
(0.217179 -0.176185 0)
(0.268228 -0.172673 0)
(0.318282 -0.168967 0)
(0.367288 -0.165056 0)
(0.415206 -0.160973 0)
(0.461993 -0.156741 0)
(0.507622 -0.152356 0)
(0.552083 -0.147849 0)
(0.595349 -0.143266 0)
(0.637383 -0.138618 0)
(0.678193 -0.133877 0)
(0.717824 -0.129064 0)
(0.756291 -0.12425 0)
(0.793581 -0.119475 0)
(0.829694 -0.114765 0)
(0.864638 -0.110144 0)
(0.898434 -0.105629 0)
(0.93111 -0.101236 0)
(0.962703 -0.0969784 0)
(0.993258 -0.0928726 0)
(1.02283 -0.0889333 0)
(1.05146 -0.0851761 0)
(1.07924 -0.0816165 0)
(1.10621 -0.0782705 0)
(1.13247 -0.0751542 0)
(1.15809 -0.0722838 0)
(1.18315 -0.0696755 0)
(1.20775 -0.0673458 0)
(1.23199 -0.0653114 0)
(1.25597 -0.063589 0)
(1.2798 -0.0621954 0)
(1.30359 -0.0611477 0)
(1.32746 -0.0604631 0)
(1.35154 -0.0601585 0)
(1.37597 -0.060251 0)
(1.40088 -0.0607571 0)
(1.42641 -0.0616928 0)
(1.45272 -0.0630726 0)
(1.47996 -0.0649099 0)
(1.5083 -0.0672148 0)
(1.5379 -0.0699948 0)
(1.56895 -0.0732525 0)
(1.60162 -0.0769855 0)
(1.63609 -0.0811852 0)
(1.67257 -0.0858371 0)
(1.71123 -0.0909208 0)
(1.75228 -0.0964129 0)
(1.7959 -0.10229 0)
(1.84229 -0.108538 0)
(1.89163 -0.115154 0)
(1.9441 -0.122163 0)
(1.99985 -0.129617 0)
(2.05904 -0.137596 0)
(2.12178 -0.146194 0)
(2.18815 -0.155489 0)
(2.25819 -0.165499 0)
(2.33183 -0.176122 0)
(2.40892 -0.187102 0)
(2.48913 -0.198008 0)
(2.57198 -0.208265 0)
(2.6568 -0.217225 0)
(2.74277 -0.224263 0)
(2.82895 -0.228868 0)
(2.9144 -0.23071 0)
(2.99814 -0.229665 0)
(3.07931 -0.225814 0)
(3.15715 -0.219395 0)
(3.23103 -0.210764 0)
(3.30047 -0.200337 0)
(3.36514 -0.18855 0)
(3.42484 -0.175823 0)
(3.47946 -0.16254 0)
(3.52904 -0.149032 0)
(3.57364 -0.135576 0)
(3.61343 -0.122389 0)
(3.64859 -0.109636 0)
(3.67935 -0.0974347 0)
(3.70597 -0.0858598 0)
(3.72867 -0.0749515 0)
(3.74772 -0.0647246 0)
(3.76332 -0.0551718 0)
(3.77569 -0.0462889 0)
(3.78488 -0.0380438 0)
(3.79114 -0.0306288 0)
(3.79401 -0.0238322 0)
(-0.0351058 0.191754 0)
(-0.0725993 0.229836 0)
(-0.116459 0.252952 0)
(-0.160771 0.268476 0)
(-0.204538 0.278735 0)
(-0.248377 0.285383 0)
(-0.29238 0.289616 0)
(-0.336396 0.29221 0)
(-0.380221 0.293622 0)
(-0.423642 0.294104 0)
(-0.466457 0.293781 0)
(-0.508493 0.292694 0)
(-0.549633 0.290839 0)
(-0.589845 0.288184 0)
(-0.629224 0.284733 0)
(-0.667946 0.280637 0)
(-0.706145 0.276165 0)
(-0.743927 0.271481 0)
(-0.781451 0.266737 0)
(-0.818799 0.26218 0)
(-0.855919 0.257955 0)
(-0.892747 0.254054 0)
(-0.92926 0.250423 0)
(-0.965452 0.247001 0)
(-1.00132 0.243727 0)
(-1.03686 0.240544 0)
(-1.07206 0.237401 0)
(-1.10691 0.234253 0)
(-1.14139 0.231058 0)
(-1.17547 0.227781 0)
(-1.20911 0.224389 0)
(-1.2423 0.220856 0)
(-1.27499 0.217157 0)
(-1.30714 0.213273 0)
(-1.33871 0.209188 0)
(-1.36967 0.204886 0)
(-1.39995 0.200357 0)
(-1.42953 0.195591 0)
(-1.45834 0.190581 0)
(-1.48635 0.185319 0)
(-1.51351 0.1798 0)
(-1.53977 0.174019 0)
(-1.56507 0.167971 0)
(-1.58936 0.161652 0)
(-1.6126 0.155058 0)
(-1.63473 0.148185 0)
(-1.65569 0.14103 0)
(-1.67543 0.133592 0)
(-1.69388 0.125871 0)
(-1.71099 0.11787 0)
(-1.72669 0.109592 0)
(-1.74092 0.101046 0)
(-1.75363 0.0922407 0)
(-1.76474 0.0831908 0)
(-1.77421 0.0739142 0)
(-1.78197 0.0644325 0)
(-1.78797 0.0547715 0)
(-1.79216 0.0449606 0)
(-1.79451 0.0350321 0)
(-1.79497 0.0250211 0)
(-1.79353 0.0149605 0)
(-1.79016 0.00487823 0)
(-1.78482 -0.00515626 0)
(-1.77765 -0.0150474 0)
(-1.76864 -0.02476 0)
(-1.7578 -0.034297 0)
(-1.74513 -0.0436657 0)
(-1.73067 -0.0528734 0)
(-1.71441 -0.0619249 0)
(-1.69638 -0.0708216 0)
(-1.67659 -0.0795618 0)
(-1.65507 -0.0881423 0)
(-1.63182 -0.0965593 0)
(-1.60688 -0.104809 0)
(-1.58027 -0.112886 0)
(-1.552 -0.120786 0)
(-1.52211 -0.128504 0)
(-1.49063 -0.136033 0)
(-1.45757 -0.143367 0)
(-1.42298 -0.150494 0)
(-1.38688 -0.157405 0)
(-1.34931 -0.164092 0)
(-1.31032 -0.170546 0)
(-1.26993 -0.176761 0)
(-1.22821 -0.182731 0)
(-1.18517 -0.188449 0)
(-1.14089 -0.193902 0)
(-1.09539 -0.199077 0)
(-1.04875 -0.203964 0)
(-1.00102 -0.208557 0)
(-0.952248 -0.212851 0)
(-0.902505 -0.216844 0)
(-0.851848 -0.220521 0)
(-0.800342 -0.223869 0)
(-0.74806 -0.226877 0)
(-0.695078 -0.229546 0)
(-0.641465 -0.231883 0)
(-0.587292 -0.233879 0)
(-0.532633 -0.235511 0)
(-0.477576 -0.236774 0)
(-0.4222 -0.237686 0)
(-0.366585 -0.238254 0)
(-0.310809 -0.238457 0)
(-0.254961 -0.238281 0)
(-0.199109 -0.237753 0)
(-0.143358 -0.236892 0)
(-0.0877916 -0.235679 0)
(-0.0324928 -0.23411 0)
(0.0225958 -0.232195 0)
(0.0771159 -0.229956 0)
(0.131102 -0.227404 0)
(0.1845 -0.224529 0)
(0.237218 -0.221332 0)
(0.289179 -0.217853 0)
(0.340325 -0.214103 0)
(0.390598 -0.210075 0)
(0.439943 -0.205802 0)
(0.488308 -0.201305 0)
(0.535649 -0.196586 0)
(0.581934 -0.191674 0)
(0.627127 -0.186595 0)
(0.671202 -0.181358 0)
(0.714151 -0.175994 0)
(0.755954 -0.170543 0)
(0.796589 -0.165023 0)
(0.836063 -0.159432 0)
(0.874407 -0.153793 0)
(0.91164 -0.14816 0)
(0.947764 -0.142572 0)
(0.982787 -0.137061 0)
(1.01673 -0.131655 0)
(1.0496 -0.126376 0)
(1.08145 -0.121244 0)
(1.1123 -0.116281 0)
(1.14221 -0.111504 0)
(1.17123 -0.106933 0)
(1.19942 -0.102587 0)
(1.22684 -0.0984839 0)
(1.25356 -0.0946433 0)
(1.27966 -0.0910839 0)
(1.30523 -0.0878249 0)
(1.33034 -0.0848852 0)
(1.35509 -0.0822839 0)
(1.37958 -0.0800403 0)
(1.4039 -0.0781737 0)
(1.42817 -0.0767037 0)
(1.4525 -0.0756496 0)
(1.477 -0.0750314 0)
(1.50179 -0.0748686 0)
(1.527 -0.0751808 0)
(1.55277 -0.0759873 0)
(1.57923 -0.0773067 0)
(1.60653 -0.0791564 0)
(1.63482 -0.0815523 0)
(1.66426 -0.0845075 0)
(1.695 -0.0880321 0)
(1.72722 -0.0921313 0)
(1.7611 -0.0968054 0)
(1.79682 -0.102048 0)
(1.83457 -0.107845 0)
(1.87455 -0.114179 0)
(1.91696 -0.121025 0)
(1.962 -0.128357 0)
(2.00986 -0.136158 0)
(2.06075 -0.144418 0)
(2.11482 -0.153151 0)
(2.17225 -0.162395 0)
(2.23313 -0.172213 0)
(2.29755 -0.182675 0)
(2.36553 -0.193827 0)
(2.43699 -0.205643 0)
(2.5118 -0.217967 0)
(2.58967 -0.23047 0)
(2.67018 -0.242638 0)
(2.75274 -0.253811 0)
(2.83663 -0.263262 0)
(2.92096 -0.270306 0)
(3.0048 -0.274407 0)
(3.08719 -0.275241 0)
(3.16723 -0.272724 0)
(3.24411 -0.266996 0)
(3.31716 -0.258372 0)
(3.38587 -0.247287 0)
(3.44986 -0.234236 0)
(3.5089 -0.219727 0)
(3.56287 -0.204243 0)
(3.61177 -0.188221 0)
(3.65566 -0.172036 0)
(3.69471 -0.155995 0)
(3.72909 -0.140341 0)
(3.75903 -0.125255 0)
(3.78479 -0.110862 0)
(3.80663 -0.0972405 0)
(3.8248 -0.0844264 0)
(3.83954 -0.072426 0)
(3.85109 -0.0612147 0)
(3.85964 -0.0507648 0)
(3.86522 -0.0409967 0)
(3.86826 -0.032108 0)
(3.86742 -0.0239507 0)
(-0.0337315 0.238512 0)
(-0.0707099 0.27433 0)
(-0.113755 0.295399 0)
(-0.156588 0.309876 0)
(-0.198351 0.31969 0)
(-0.239646 0.326096 0)
(-0.280627 0.330059 0)
(-0.321223 0.332251 0)
(-0.361302 0.333096 0)
(-0.400722 0.332848 0)
(-0.439362 0.331657 0)
(-0.477139 0.329613 0)
(-0.514023 0.326778 0)
(-0.550051 0.323212 0)
(-0.585334 0.318999 0)
(-0.620033 0.314298 0)
(-0.654284 0.309321 0)
(-0.688196 0.304236 0)
(-0.721879 0.29919 0)
(-0.755389 0.294346 0)
(-0.788705 0.289797 0)
(-0.821789 0.285545 0)
(-0.854617 0.281549 0)
(-0.887176 0.277755 0)
(-0.919453 0.274102 0)
(-0.951433 0.270531 0)
(-0.983099 0.266989 0)
(-1.01443 0.263426 0)
(-1.0454 0.259796 0)
(-1.07598 0.25606 0)
(-1.10613 0.252185 0)
(-1.13583 0.248139 0)
(-1.16503 0.243898 0)
(-1.19369 0.23944 0)
(-1.22177 0.234748 0)
(-1.24924 0.229806 0)
(-1.27603 0.224604 0)
(-1.30213 0.21913 0)
(-1.32747 0.213376 0)
(-1.35201 0.207338 0)
(-1.37572 0.201007 0)
(-1.39854 0.194379 0)
(-1.42042 0.18745 0)
(-1.44133 0.180213 0)
(-1.46122 0.172664 0)
(-1.48002 0.164799 0)
(-1.4977 0.156613 0)
(-1.51421 0.148105 0)
(-1.52947 0.139274 0)
(-1.54345 0.130122 0)
(-1.55608 0.120652 0)
(-1.56731 0.110873 0)
(-1.57707 0.100794 0)
(-1.58532 0.0904323 0)
(-1.59198 0.0798064 0)
(-1.59701 0.0689414 0)
(-1.60036 0.0578667 0)
(-1.60198 0.0466166 0)
(-1.60183 0.035229 0)
(-1.59987 0.0237453 0)
(-1.5961 0.0122034 0)
(-1.59047 0.000646429 0)
(-1.58304 -0.0108133 0)
(-1.57389 -0.0220829 0)
(-1.56302 -0.0331571 0)
(-1.55043 -0.0440382 0)
(-1.53614 -0.0547326 0)
(-1.52016 -0.0652466 0)
(-1.5025 -0.0755843 0)
(-1.48317 -0.0857463 0)
(-1.46219 -0.0957295 0)