/*--------------------------------*- C++ -*----------------------------------*\
  =========                 |
  \\      /  F ield         | OpenFOAM: The Open Source CFD Toolbox
   \\    /   O peration     | Website:  https://openfoam.org
    \\  /    A nd           | Version:  7
     \\/     M anipulation  |
\*---------------------------------------------------------------------------*/
FoamFile
{
    version     2.0;
    format      ascii;
    class       volScalarField;
    location    "350";
    object      k;
}
// * * * * * * * * * * * * * * * * * * * * * * * * * * * * * * * * * * * * * //

dimensions      [0 2 -2 0 0 0 0];

internalField   nonuniform List<scalar> 
4500
(
2.10711
1.99003
1.89804
1.8345
1.78632
1.74875
1.71881
1.69443
1.67421
1.65718
1.64268
1.6302
1.61939
1.60996
1.6017
1.59442
1.58797
1.58216
1.57679
1.57163
1.56647
1.56116
1.55571
1.55033
1.54545
1.54168
1.53972
1.54027
1.54395
1.55109
1.56171
1.57546
1.59173
1.60978
1.62892
1.64854
1.6682
1.68761
1.70656
1.72491
1.74252
1.75932
1.77516
1.78995
1.80356
1.81591
1.82691
1.83653
1.84475
1.85163
1.85724
1.86174
1.86526
1.86795
1.86993
1.87134
1.87229
1.87291
1.87329
1.87348
1.87357
1.87357
1.87353
1.87346
1.87337
1.87328
1.87319
1.87309
1.87301
1.87292
1.87284
1.87275
1.87267
1.87259
1.87252
1.10354
1.6732
1.8379
1.85191
1.83283
1.80901
1.78664
1.7669
1.74973
1.73484
1.72188
1.71057
1.70066
1.69195
1.68428
1.67748
1.67143
1.66595
1.66085
1.6559
1.6509
1.64573
1.64043
1.63525
1.63061
1.62711
1.62537
1.62593
1.62947
1.63641
1.64685
1.6605
1.67677
1.69493
1.71422
1.734
1.75381
1.77335
1.79243
1.81092
1.82874
1.84579
1.862
1.87724
1.8914
1.90438
1.91605
1.92634
1.93518
1.94256
1.94851
1.95311
1.95648
1.9588
1.96028
1.96114
1.96158
1.96178
1.96182
1.96177
1.96169
1.96158
1.96147
1.96135
1.96124
1.96113
1.96103
1.96094
1.96085
1.96077
1.96068
1.9606
1.96052
1.96044
1.96036
0.644943
1.23225
1.53537
1.63719
1.66542
1.66864
1.66318
1.65482
1.64581
1.63702
1.62881
1.62129
1.61447
1.60833
1.60283
1.5979
1.59348
1.58946
1.58569
1.58197
1.57808
1.57383
1.56912
1.564
1.55871
1.55367
1.5494
1.54651
1.54586
1.54814
1.55378
1.5628
1.57487
1.58934
1.60548
1.62261
1.64021
1.65793
1.67555
1.69297
1.71009
1.72683
1.74311
1.75879
1.77372
1.78771
1.80058
1.81213
1.82219
1.83067
1.83752
1.84278
1.84658
1.84914
1.85073
1.85163
1.85207
1.85225
1.85227
1.85222
1.85212
1.852
1.85187
1.85175
1.85163
1.85152
1.85141
1.85131
1.85122
1.85114
1.85105
1.85097
1.85089
1.85081
1.85073
0.463615
0.893401
1.25805
1.43575
1.5127
1.54555
1.55894
1.56332
1.56337
1.56132
1.55829
1.55487
1.55137
1.54798
1.54478
1.54183
1.53912
1.53664
1.53426
1.53182
1.52902
1.52558
1.52121
1.51575
1.50924
1.50194
1.49433
1.48718
1.48155
1.47849
1.47878
1.48282
1.4905
1.50132
1.51455
1.52944
1.54538
1.56197
1.57894
1.59615
1.61351
1.63093
1.64827
1.66536
1.68199
1.69789
1.71276
1.72629
1.73823
1.74837
1.75662
1.763
1.76765
1.77084
1.77288
1.77409
1.77476
1.77508
1.77519
1.77519
1.77512
1.77501
1.77489
1.77476
1.77463
1.77451
1.77438
1.77427
1.77417
1.77407
1.77398
1.77389
1.7738
1.77372
1.77363
0.39407
0.646738
0.998479
1.23088
1.35547
1.4206
1.45545
1.47456
1.48513
1.49089
1.49385
1.49516
1.49547
1.49522
1.49464
1.49391
1.49315
1.49238
1.49155
1.49047
1.48881
1.48612
1.48193
1.47584
1.4677
1.45766
1.44621
1.43432
1.42331
1.41456
1.40928
1.40821
1.41152
1.41883
1.42943
1.44251
1.45737
1.47351
1.4906
1.50845
1.52694
1.54592
1.56521
1.58458
1.6037
1.62222
1.63972
1.6558
1.67009
1.68231
1.69234
1.70018
1.706
1.71009
1.71282
1.71453
1.71555
1.71611
1.71638
1.71647
1.71645
1.71636
1.71624
1.7161
1.71595
1.7158
1.71566
1.71552
1.71539
1.71528
1.71517
1.71507
1.71497
1.71488
1.71478
0.370615
0.488905
0.769299
1.02349
1.18836
1.28645
1.34497
1.38088
1.40366
1.41854
1.4285
1.43532
1.44007
1.44345
1.44591
1.44777
1.44923
1.45041
1.45132
1.45175
1.4513
1.44936
1.44526
1.43838
1.4284
1.4154
1.39994
1.38317
1.36671
1.35229
1.34151
1.33547
1.33461
1.33871
1.34709
1.35889
1.3733
1.38972
1.40774
1.42708
1.44754
1.46891
1.49093
1.51327
1.53551
1.55719
1.57779
1.59681
1.6138
1.62843
1.64053
1.6501
1.65733
1.66255
1.66613
1.66847
1.66994
1.6708
1.67126
1.67146
1.6715
1.67144
1.67132
1.67117
1.67099
1.67081
1.67063
1.67046
1.6703
1.67016
1.67004
1.66992
1.66981
1.6697
1.66958
0.364546
0.403111
0.587007
0.823641
1.01304
1.14094
1.22398
1.27842
1.31506
1.34046
1.35856
1.3718
1.38173
1.38936
1.39536
1.4002
1.40423
1.40767
1.41054
1.41265
1.41352
1.4124
1.4084
1.40073
1.38891
1.373
1.35364
1.33221
1.31058
1.29082
1.27489
1.26425
1.25961
1.26093
1.26759
1.27868
1.29331
1.31075
1.33045
1.35203
1.3752
1.39963
1.42496
1.45077
1.47655
1.50173
1.52571
1.54791
1.56783
1.58508
1.59946
1.61098
1.61982
1.62632
1.63089
1.63397
1.63596
1.63717
1.63785
1.63819
1.6383
1.63827
1.63814
1.63797
1.63776
1.63755
1.63733
1.63712
1.63693
1.63676
1.63661
1.63648
1.63635
1.63622
1.63608
0.364603
0.363346
0.460994
0.64658
0.836783
0.985712
1.09154
1.16521
1.21704
1.25428
1.28169
1.30236
1.3183
1.33086
1.34096
1.34929
1.3563
1.36231
1.36742
1.37144
1.3738
1.37362
1.36986
1.36155
1.34812
1.3296
1.30677
1.28118
1.25495
1.23045
1.20996
1.19526
1.18735
1.1864
1.19186
1.20282
1.21829
1.23737
1.25938
1.28379
1.31017
1.33808
1.36706
1.39659
1.42607
1.45488
1.48235
1.50784
1.5308
1.55081
1.56764
1.58126
1.59187
1.59979
1.60548
1.60939
1.61196
1.61357
1.6145
1.61499
1.61519
1.61519
1.61507
1.61488
1.61464
1.61438
1.61412
1.61388
1.61365
1.61345
1.61328
1.61312
1.61297
1.61282
1.61266
0.366685
0.347483
0.386684
0.507132
0.671669
0.826391
0.949252
1.04089
1.10836
1.15845
1.19625
1.22534
1.24815
1.2664
1.28126
1.2936
1.30405
1.31303
1.32071
1.3269
1.33099
1.33199
1.32872
1.3201
1.30547
1.2849
1.25925
1.23027
1.20026
1.17184
1.14755
1.12947
1.11888
1.11616
1.12092
1.13222
1.14897
1.17014
1.19486
1.22242
1.25224
1.28378
1.31647
1.34971
1.38287
1.41525
1.44616
1.47492
1.50095
1.5238
1.54319
1.55906
1.57158
1.58108
1.58799
1.59283
1.59606
1.59812
1.59936
1.60003
1.60032
1.60037
1.60026
1.60005
1.59979
1.5995
1.5992
1.59891
1.59865
1.59842
1.59822
1.59804
1.59787
1.5977
1.59751
0.369317
0.342581
0.348917
0.412157
0.531963
0.672822
0.801903
0.907129
0.989078
1.05222
1.10113
1.13949
1.17002
1.19471
1.21501
1.23196
1.24636
1.25875
1.26937
1.27806
1.28419
1.28669
1.28429
1.27584
1.26063
1.23875
1.21118
1.17977
1.14698
1.11561
1.08841
1.06769
1.05502
1.05101
1.05542
1.06737
1.08566
1.1091
1.13663
1.16737
1.2006
1.23564
1.27186
1.30862
1.34523
1.38099
1.41519
1.44714
1.47622
1.50194
1.52398
1.54224
1.55683
1.56805
1.57633
1.58221
1.58621
1.58879
1.59037
1.59126
1.59168
1.59179
1.59171
1.5915
1.59121
1.59089
1.59056
1.59023
1.58994
1.58968
1.58945
1.58925
1.58906
1.58886
1.58865
0.371958
0.342445
0.332102
0.356566
0.42837
0.537786
0.658014
0.768348
0.860997
0.935939
0.995906
1.044
1.08291
1.11475
1.14114
1.16332
1.18222
1.1985
1.21248
1.22405
1.23259
1.23701
1.23598
1.2283
1.21329
1.19101
1.16254
1.12982
1.09539
1.06214
1.03297
1.0104
0.996221
0.991308
0.995596
1.00827
1.02809
1.05372
1.0839
1.1176
1.15393
1.19214
1.23154
1.27145
1.31119
1.35005
1.38732
1.42231
1.45438
1.48301
1.5078
1.52859
1.54541
1.55853
1.56836
1.57543
1.58031
1.58352
1.58552
1.58668
1.58726
1.58746
1.58742
1.58721
1.58692
1.58657
1.58621
1.58585
1.58553
1.58524
1.58499
1.58476
1.58455
1.58434
1.58411
0.374409
0.344309
0.325896
0.328085
0.362098
0.432748
0.529167
0.632415
0.728536
0.811707
0.881286
0.938794
0.986296
1.02574
1.05878
1.08675
1.11068
1.13134
1.14914
1.16404
1.17543
1.18225
1.18317
1.177
1.16304
1.14141
1.11318
1.08033
1.04545
1.01146
0.981311
0.957655
0.9425
0.936963
0.941192
0.954487
0.975603
1.00308
1.03553
1.07173
1.1107
1.1516
1.1937
1.23632
1.27878
1.3204
1.36049
1.39835
1.43334
1.46487
1.49251
1.51598
1.53524
1.55048
1.56206
1.57051
1.57643
1.58038
1.5829
1.5844
1.58519
1.58552
1.58554
1.58536
1.58507
1.58471
1.58432
1.58394
1.58358
1.58327
1.58299
1.58275
1.58251
1.58228
1.58203
0.376595
0.346935
0.32478
0.315189
0.325142
0.361913
0.426574
0.510145
0.599357
0.684171
0.759763
0.82497
0.880433
0.927443
0.967389
1.00154
1.03096
1.05646
1.07854
1.09721
1.11193
1.1217
1.12523
1.12134
1.10939
1.08947
1.06267
1.03094
0.996827
0.963218
0.933066
0.909088
0.893449
0.887496
0.89161
0.905257
0.927244
0.956063
0.9902
1.02833
1.06934
1.11236
1.15662
1.20145
1.2462
1.29021
1.33282
1.37335
1.41115
1.4456
1.47617
1.50249
1.52442
1.54202
1.55561
1.56568
1.57283
1.57769
1.58085
1.58277
1.58385
1.58434
1.58446
1.58433
1.58405
1.58368
1.58328
1.58288
1.5825
1.58216
1.58186
1.5816
1.58135
1.5811
1.58083
0.378494
0.349749
0.326042
0.310425
0.306798
0.320311
0.355502
0.412199
0.483847
0.561114
0.636428
0.705554
0.766928
0.82053
0.867048
0.90741
0.942542
0.973226
0.999962
1.02282
1.04136
1.05463
1.06143
1.06065
1.05165
1.03455
1.01036
0.980953
0.948801
0.916688
0.887498
0.863946
0.848302
0.842107
0.845989
0.85963
0.88196
0.91149
0.94665
0.986025
1.02844
1.07295
1.11879
1.16531
1.21187
1.25787
1.30269
1.34568
1.38616
1.4235
1.45708
1.48643
1.51127
1.53153
1.54742
1.55938
1.56802
1.57399
1.57794
1.5804
1.58184
1.58256
1.58281
1.58275
1.58251
1.58215
1.58175
1.58133
1.58093
1.58057
1.58025
1.57996
1.5797
1.57944
1.57915
0.380104
0.352469
0.328352
0.309741
0.298825
0.298553
0.31258
0.343818
0.391993
0.452699
0.519406
0.586268
0.649493
0.707233
0.75896
0.80487
0.845483
0.881374
0.912961
0.940322
0.963069
0.980356
0.99107
0.994168
0.989048
0.9758
0.955339
0.929418
0.900362
0.870812
0.843523
0.821147
0.805992
0.799755
0.803302
0.81657
0.838687
0.868261
0.903735
0.94365
0.98678
1.03215
1.07899
1.12664
1.17454
1.22212
1.2688
1.31396
1.35697
1.39713
1.43378
1.46632
1.49432
1.51755
1.5361
1.55029
1.56071
1.56804
1.57297
1.57613
1.57802
1.57905
1.57948
1.57954
1.57935
1.57902
1.57862
1.57819
1.57778
1.5774
1.57706
1.57676
1.57648
1.5762
1.5759
0.381432
0.354953
0.331036
0.311052
0.296302
0.288389
0.289475
0.302115
0.328313
0.36807
0.418684
0.475701
0.534635
0.592118
0.646142
0.695788
0.74083
0.781384
0.81762
0.849515
0.876684
0.898353
0.913496
0.921143
0.920709
0.912244
0.896539
0.875159
0.85025
0.824264
0.799782
0.779339
0.765216
0.759213
0.762408
0.775013
0.796413
0.825397
0.86049
0.900246
0.943421
0.989016
1.03625
1.08451
1.13324
1.18194
1.23009
1.27713
1.32242
1.36529
1.40502
1.4409
1.47231
1.49886
1.52044
1.53726
1.54982
1.55881
1.56497
1.569
1.57149
1.57291
1.5736
1.5738
1.57371
1.57342
1.57304
1.57261
1.57219
1.5718
1.57144
1.57112
1.57082
1.57053
1.57022
0.382496
0.357126
0.333732
0.313269
0.296566
0.284515
0.278275
0.279385
0.28963
0.310488
0.342261
0.383517
0.431395
0.482573
0.534169
0.584146
0.631299
0.675017
0.714992
0.750932
0.782348
0.808467
0.828317
0.840971
0.845838
0.842903
0.832808
0.816881
0.797047
0.775533
0.754716
0.736965
0.724481
0.7191
0.722068
0.733867
0.754176
0.782033
0.816123
0.855073
0.897652
0.94286
0.989922
1.03823
1.08729
1.13664
1.18583
1.23436
1.28165
1.32705
1.36979
1.40908
1.44415
1.47437
1.49941
1.51929
1.53442
1.54543
1.55312
1.55826
1.56152
1.56345
1.56447
1.56489
1.56492
1.5647
1.56435
1.56394
1.56352
1.56311
1.56274
1.5624
1.56208
1.56178
1.56146
0.383317
0.358954
0.336237
0.315805
0.298201
0.28395
0.27367
0.268176
0.268537
0.276002
0.291697
0.316126
0.348734
0.387883
0.431292
0.476646
0.522027
0.566047
0.607745
0.646377
0.68119
0.711297
0.735698
0.753451
0.763918
0.766972
0.763088
0.753317
0.739311
0.723049
0.706672
0.692352
0.682159
0.677904
0.680943
0.691987
0.711021
0.737378
0.769969
0.807552
0.848961
0.893216
0.939552
0.987383
1.03625
1.08575
1.1355
1.18509
1.23401
1.28165
1.32727
1.37
1.4089
1.44313
1.47208
1.49554
1.51372
1.52721
1.53679
1.54331
1.54755
1.55015
1.55161
1.55231
1.55251
1.5524
1.55211
1.55172
1.5513
1.55089
1.5505
1.55015
1.54982
1.5495
1.54917
0.383926
0.360429
0.338437
0.318319
0.300425
0.285071
0.272597
0.26342
0.258096
0.257353
0.262057
0.273062
0.290943
0.315689
0.346552
0.382157
0.420825
0.460897
0.500925
0.539668
0.575994
0.608771
0.636859
0.659213
0.675072
0.684143
0.686683
0.683463
0.675788
0.665358
0.654056
0.643828
0.63658
0.634039
0.637601
0.648152
0.665952
0.690645
0.721413
0.757209
0.796973
0.839778
0.884885
0.931734
0.9799
1.02904
1.07885
1.129
1.1791
1.22862
1.27686
1.32294
1.36579
1.40435
1.43768
1.46527
1.48708
1.50355
1.51547
1.52373
1.52921
1.53267
1.53471
1.53578
1.53622
1.53625
1.53604
1.53569
1.53529
1.53487
1.53448
1.53411
1.53377
1.53344
1.53309
0.384356
0.361567
0.340271
0.320613
0.302785
0.286971
0.273357
0.262155
0.253642
0.248183
0.246262
0.248465
0.255422
0.267672
0.285479
0.308672
0.336596
0.368201
0.402207
0.437248
0.471941
0.504904
0.534782
0.560343
0.580623
0.595083
0.603702
0.606949
0.605727
0.601406
0.595577
0.58994
0.5862
0.585959
0.590589
0.601076
0.6179
0.640994
0.669828
0.703588
0.74137
0.782334
0.825787
0.871202
0.918192
0.966472
1.01581
1.06599
1.11673
1.16765
1.21815
1.26738
1.31421
1.35735
1.39553
1.42785
1.45393
1.47401
1.48879
1.49922
1.50627
1.51082
1.5136
1.51517
1.51592
1.51614
1.51604
1.51576
1.51539
1.51498
1.51458
1.5142
1.51384
1.5135
1.51314
0.384645
0.3624
0.341721
0.322574
0.305012
0.28912
0.274988
0.262719
0.252442
0.244331
0.238618
0.235613
0.235703
0.239328
0.246931
0.258856
0.275237
0.295904
0.320334
0.347674
0.37679
0.406354
0.434942
0.461167
0.483841
0.502134
0.515678
0.524592
0.529372
0.530966
0.530631
0.529782
0.529893
0.532405
0.538609
0.549524
0.565775
0.587529
0.614527
0.6462
0.68183
0.720697
0.762179
0.805791
0.851189
0.898141
0.946497
0.996144
1.04695
1.0987
1.15096
1.203
1.25371
1.30162
1.3451
1.38278
1.41386
1.43825
1.45652
1.46963
1.47864
1.48459
1.48832
1.49052
1.49168
1.49216
1.49222
1.49203
1.4917
1.49131
1.49091
1.49052
1.49014
1.48979
1.48942
0.384827
0.362976
0.342805
0.324148
0.306947
0.291198
0.276922
0.264155
0.252946
0.243368
0.235524
0.229553
0.225648
0.224051
0.225057
0.228989
0.236159
0.246802
0.260996
0.278574
0.29906
0.321652
0.345269
0.368666
0.390611
0.410068
0.426344
0.439165
0.448657
0.455269
0.45986
0.463509
0.467418
0.472822
0.48089
0.49261
0.50868
0.529433
0.55483
0.584527
0.617998
0.654662
0.693982
0.735533
0.779012
0.824241
0.871141
0.919711
0.969975
1.02191
1.07534
1.12973
1.18409
1.23684
1.28602
1.32973
1.3666
1.39611
1.4186
1.43498
1.44644
1.45412
1.45906
1.46206
1.46375
1.46457
1.46484
1.46476
1.4645
1.46414
1.46375
1.46335
1.46297
1.4626
1.46222
0.384935
0.363349
0.343566
0.325333
0.308509
0.293015
0.278815
0.265893
0.254251
0.243905
0.234889
0.227257
0.221089
0.216497
0.213628
0.212664
0.213822
0.217334
0.223417
0.232218
0.243743
0.257781
0.273853
0.291226
0.308993
0.326218
0.342096
0.356079
0.367954
0.377761
0.385892
0.393039
0.400076
0.407986
0.417765
0.430319
0.44636
0.466319
0.490316
0.518189
0.549581
0.584041
0.621128
0.66047
0.701811
0.745015
0.790069
0.837073
0.886208
0.93768
0.991596
1.04776
1.10539
1.16295
1.21819
1.26859
1.31209
1.34761
1.37514
1.3955
1.40993
1.41977
1.4262
1.43023
1.43258
1.43384
1.43437
1.43446
1.43428
1.43397
1.43359
1.4332
1.43281
1.43243
1.43203
0.384994
0.363574
0.344062
0.326166
0.309682
0.294477
0.280464
0.267588
0.255813
0.24512
0.235503
0.226971
0.219547
0.21327
0.208202
0.204424
0.202045
0.201195
0.202025
0.204686
0.209302
0.215924
0.224477
0.23472
0.24624
0.258493
0.270888
0.282898
0.294151
0.304484
0.313901
0.322707
0.331427
0.340743
0.351432
0.364267
0.379924
0.398886
0.421381
0.447386
0.476673
0.5089
0.543697
0.58074
0.6198
0.660771
0.703685
0.748725
0.796218
0.846603
0.900323
0.957595
1.01804
1.08028
1.14185
1.1996
1.25063
1.29311
1.32657
1.35165
1.36967
1.38211
1.39038
1.39565
1.39885
1.40063
1.40151
1.4018
1.40174
1.40149
1.40114
1.40075
1.40036
1.39997
1.39955
0.385025
0.363699
0.344363
0.326707
0.310498
0.295561
0.281772
0.269042
0.257306
0.246517
0.236644
0.227667
0.219578
0.21238
0.206088
0.200731
0.196349
0.193002
0.190761
0.189711
0.189939
0.191519
0.194489
0.198825
0.204419
0.211074
0.218522
0.226462
0.234624
0.242823
0.250961
0.259083
0.267426
0.276395
0.286524
0.298418
0.312678
0.329801
0.350106
0.373689
0.40044
0.430103
0.462357
0.496898
0.533496
0.572044
0.612589
0.655363
0.70081
0.749588
0.802497
0.860251
0.923007
0.989741
1.05787
1.12359
1.18302
1.23342
1.27371
1.30429
1.32651
1.34203
1.35248
1.35925
1.36345
1.36589
1.36718
1.36772
1.36782
1.36765
1.36734
1.36696
1.36656
1.36616
1.36574
0.385039
0.363763
0.344529
0.327031
0.311019
0.296298
0.282719
0.270166
0.25855
0.247804
0.237875
0.228725
0.220326
0.21266
0.205716
0.199495
0.194005
0.189262
0.185294
0.182135
0.179826
0.178408
0.177913
0.178359
0.179733
0.181986
0.185036
0.188771
0.193075
0.197849
0.203046
0.208654
0.214771
0.221615
0.229525
0.238941
0.250361
0.264274
0.281081
0.301019
0.324131
0.35028
0.379214
0.41064
0.444307
0.480073
0.517954
0.558188
0.601289
0.648093
0.699747
0.7575
0.822163
0.893221
0.968088
1.04231
1.11091
1.17007
1.21799
1.25477
1.28176
1.30079
1.31374
1.32224
1.3276
1.33081
1.33258
1.33343
1.33371
1.33364
1.33338
1.33302
1.33262
1.33221
1.33178
0.385045
0.363793
0.344613
0.327207
0.311323
0.296756
0.283344
0.270952
0.259476
0.248832
0.238951
0.229781
0.221278
0.213411
0.206155
0.199492
0.193412
0.187913
0.182995
0.178667
0.174942
0.171835
0.169359
0.167525
0.166333
0.165774
0.165824
0.166449
0.167611
0.169276
0.171433
0.174096
0.177317
0.181218
0.186007
0.191984
0.199529
0.20908
0.221079
0.235902
0.253799
0.274852
0.298981
0.325994
0.355665
0.387826
0.422446
0.459728
0.500201
0.544821
0.595021
0.652566
0.718953
0.79426
0.875985
0.959021
1.03725
1.10569
1.16174
1.20517
1.2373
1.26015
1.27583
1.28623
1.29288
1.29693
1.29925
1.30044
1.30092
1.30097
1.30077
1.30044
1.30004
1.29963
1.29919
0.385047
0.363805
0.344651
0.327293
0.311482
0.297013
0.283715
0.271447
0.260093
0.249557
0.239761
0.230639
0.22214
0.21422
0.206844
0.199984
0.19362
0.187734
0.182318
0.177365
0.172872
0.16884
0.16527
0.162165
0.159522
0.157337
0.155602
0.154302
0.153425
0.152957
0.152896
0.153258
0.154071
0.155403
0.15737
0.160149
0.16399
0.169215
0.176205
0.185372
0.19711
0.21174
0.229471
0.250381
0.274447
0.301617
0.331905
0.365511
0.402964
0.445275
0.494067
0.551502
0.619659
0.699157
0.787584
0.879232
0.966889
1.04446
1.10857
1.15861
1.19588
1.22257
1.24102
1.25336
1.26132
1.26625
1.26914
1.27069
1.27138
1.27155
1.27141
1.27111
1.27073
1.27031
1.26986
0.385048
0.36381
0.344666
0.32733
0.311556
0.29714
0.28391
0.271721
0.260452
0.250001
0.240283
0.231225
0.222767
0.214859
0.207459
0.200533
0.194052
0.187994
0.18234
0.177077
0.172194
0.167685
0.163543
0.159765
0.156346
0.153283
0.150569
0.148197
0.146159
0.144449
0.143061
0.142002
0.141286
0.140943
0.141028
0.141633
0.142895
0.145008
0.148229
0.152877
0.159324
0.167974
0.179234
0.193476
0.21102
0.232138
0.257105
0.286293
0.320318
0.360238
0.407757
0.465237
0.535107
0.618332
0.712544
0.811559
0.90729
0.992719
1.06381
1.11963
1.16143
1.19152
1.21244
1.22651
1.23567
1.24139
1.24479
1.24667
1.24756
1.24784
1.24777
1.2475
1.24713
1.24671
1.24625
0.385048
0.363811
0.344671
0.327343
0.311584
0.297191
0.283992
0.271841
0.260616
0.250212
0.24054
0.231524
0.2231
0.215215
0.207823
0.200885
0.19437
0.188251
0.182506
0.177118
0.172072
0.167359
0.162969
0.158895
0.155131
0.151674
0.148516
0.145654
0.14308
0.140789
0.138777
0.137042
0.13559
0.134434
0.133601
0.133139
0.133126
0.133678
0.134961
0.1372
0.140685
0.145782
0.152923
0.162599
0.175346
0.191722
0.212312
0.237756
0.268858
0.306768
0.353226
0.410644
0.481567
0.567105
0.664898
0.768497
0.869299
0.959721
1.0353
1.09487
1.13964
1.17197
1.19453
1.20977
1.21972
1.22599
1.22975
1.23184
1.23287
1.23324
1.23322
1.23297
1.2326
1.23218
1.23171
0.385048
0.363811
0.344671
0.327343
0.311584
0.297191
0.283992
0.271841
0.260616
0.250212
0.24054
0.231524
0.2231
0.215215
0.207823
0.200885
0.19437
0.188251
0.182506
0.177118
0.172072
0.167359
0.162969
0.158895
0.155132
0.151674
0.148517
0.145654
0.143079
0.140786
0.13877
0.137031
0.135571
0.134403
0.133552
0.133065
0.133017
0.133522
0.134741
0.136895
0.140272
0.145231
0.152204
0.161683
0.174207
0.190346
0.210695
0.23591
0.266808
0.30455
0.350883
0.408225
0.479129
0.564711
0.662609
0.766363
0.867351
0.957972
1.03374
1.09348
1.13839
1.17084
1.19349
1.2088
1.2188
1.2251
1.22888
1.231
1.23204
1.23242
1.2324
1.23215
1.23178
1.23136
1.23089
0.385048
0.36381
0.344666
0.32733
0.311556
0.29714
0.28391
0.271721
0.260452
0.250001
0.240283
0.231225
0.222767
0.214859
0.207459
0.200533
0.194052
0.187994
0.18234
0.177077
0.172194
0.167685
0.163543
0.159766
0.156348
0.153285
0.150571
0.148197
0.146155
0.144437
0.143037
0.141958
0.14121
0.14082
0.140837
0.141347
0.142479
0.144417
0.147406
0.151755
0.15783
0.166031
0.17677
0.190432
0.207363
0.227864
0.252241
0.28089
0.314446
0.353981
0.40121
0.45851
0.528337
0.611677
0.706169
0.805604
0.901844
0.987815
1.05943
1.11572
1.15791
1.18831
1.20947
1.22372
1.23301
1.23883
1.2423
1.24422
1.24515
1.24546
1.2454
1.24513
1.24476
1.24433
1.24385
0.385047
0.363805
0.344651
0.327293
0.311482
0.297013
0.283715
0.271447
0.260093
0.249557
0.239761
0.23064
0.222141
0.21422
0.206844
0.199984
0.19362
0.187734
0.182318
0.177364
0.172871
0.168839
0.16527
0.162166
0.159524
0.15734
0.155604
0.154301
0.153414
0.152928
0.152838
0.153151
0.153889
0.155111
0.156919
0.159479
0.163025
0.167864
0.174367
0.18294
0.193984
0.207839
0.224746
0.24482
0.268077
0.294493
0.324101
0.357111
0.394051
0.435932
0.484387
0.541598
0.609695
0.68934
0.778145
0.870375
0.958751
1.03709
1.10195
1.15266
1.19049
1.21762
1.23641
1.249
1.25715
1.26222
1.2652
1.26682
1.26756
1.26777
1.26765
1.26735
1.26696
1.26653
1.26605
0.385045
0.363793
0.344613
0.327207
0.311323
0.296757
0.283344
0.270953
0.259477
0.248833
0.238952
0.229782
0.221279
0.213412
0.206155
0.199492
0.193412
0.187912
0.182993
0.178665
0.17494
0.171832
0.169358
0.167525
0.166336
0.165779
0.165828
0.166446
0.167589
0.169217
0.171312
0.173873
0.176937
0.180611
0.185085
0.190639
0.197638
0.206514
0.217711
0.23163
0.248559
0.268627
0.291802
0.317929
0.346808
0.378274
0.412295
0.449058
0.48908
0.533308
0.583185
0.640505
0.706824
0.782285
0.864424
0.948116
1.02717
1.0965
1.15342
1.19762
1.2304
1.25376
1.26983
1.28053
1.28738
1.29159
1.29403
1.2953
1.29584
1.29593
1.29575
1.29542
1.29501
1.29457
1.29408
0.385039
0.363763
0.344529
0.327031
0.311019
0.296299
0.28272
0.270167
0.258551
0.247805
0.237876
0.228726
0.220327
0.21266
0.205716
0.199495
0.194003
0.189259
0.18529
0.18213
0.17982
0.178401
0.177909
0.178359
0.179738
0.181996
0.185045
0.188768
0.193037
0.197741
0.202817
0.208231
0.21406
0.220501
0.227871
0.236596
0.247175
0.260112
0.275845
0.294665
0.316675
0.341794
0.369804
0.400431
0.433423
0.468619
0.506019
0.545836
0.588569
0.635044
0.686421
0.743984
0.808606
0.879839
0.955143
1.03005
1.09951
1.1596
1.20841
1.246
1.27366
1.29322
1.30658
1.31538
1.32095
1.32432
1.32622
1.32716
1.3275
1.32747
1.32723
1.32687
1.32644
1.32599
1.32551
0.385025
0.363699
0.344363
0.326708
0.310499
0.295562
0.281774
0.269044
0.257308
0.246519
0.236645
0.227668
0.219578
0.212379
0.206086
0.200727
0.196343
0.192993
0.190749
0.189697
0.189923
0.191504
0.194479
0.198824
0.204431
0.211098
0.218548
0.226469
0.234571
0.242648
0.250577
0.258375
0.266255
0.2746
0.28393
0.294856
0.308
0.323909
0.342967
0.365342
0.390985
0.419677
0.451113
0.484979
0.521028
0.559124
0.59929
0.641733
0.686886
0.735403
0.788101
0.845729
0.908504
0.975462
1.04405
1.11047
1.17076
1.22207
1.26324
1.29461
1.31747
1.3335
1.34434
1.3514
1.3558
1.3584
1.35981
1.36045
1.36061
1.36049
1.36019
1.3598
1.35936
1.3589
1.35841
0.384994
0.363574
0.344063
0.326167
0.309684
0.294479
0.280466
0.267591
0.255816
0.245122
0.235505
0.226971
0.219545
0.213266
0.208195
0.204413
0.202029
0.201174
0.201998
0.204654
0.209268
0.215893
0.224458
0.234723
0.246272
0.258553
0.270959
0.282939
0.294097
0.304238
0.313332
0.321659
0.329716
0.338174
0.347811
0.359429
0.373755
0.391347
0.412517
0.43731
0.465547
0.496901
0.530994
0.567477
0.606093
0.646702
0.689316
0.734094
0.781359
0.831552
0.885138
0.942367
1.00291
1.06544
1.12752
1.18597
1.23783
1.28118
1.31547
1.34128
1.35989
1.3728
1.38142
1.38696
1.39034
1.39228
1.39327
1.39366
1.39367
1.39346
1.39312
1.3927
1.39225
1.39178
1.39129
0.384935
0.36335
0.343567
0.325335
0.308511
0.293018
0.278818
0.265896
0.254254
0.243907
0.234889
0.227254
0.221083
0.216486
0.213611
0.212639
0.213788
0.217289
0.223361
0.232154
0.243678
0.257727
0.273828
0.291248
0.309074
0.326352
0.342252
0.356193
0.367928
0.377458
0.385141
0.391639
0.39781
0.404636
0.413136
0.424268
0.438822
0.457322
0.479974
0.506676
0.537097
0.570782
0.607265
0.646141
0.687118
0.73003
0.774845
0.821646
0.870617
0.92197
0.975837
1.03205
1.08987
1.1478
1.20358
1.25468
1.29898
1.33531
1.36359
1.38461
1.39957
1.40982
1.41657
1.42082
1.42336
1.42475
1.4254
1.42558
1.42547
1.42519
1.42481
1.42437
1.42391
1.42344
1.42295
0.384827
0.362977
0.342807
0.324151
0.30695
0.291202
0.276926
0.264158
0.252948
0.243368
0.235519
0.229544
0.225632
0.224026
0.22502
0.228938
0.236091
0.246716
0.260894
0.278463
0.298955
0.321578
0.345253
0.368736
0.390781
0.410324
0.426634
0.439398
0.448699
0.454941
0.45895
0.46178
0.464628
0.468742
0.475335
0.485471
0.499945
0.519192
0.543254
0.571835
0.604415
0.64039
0.679192
0.72035
0.76353
0.808524
0.855238
0.903663
0.953827
1.00572
1.05919
1.11373
1.16836
1.22154
1.2713
1.31571
1.35332
1.38358
1.40675
1.42371
1.43563
1.44367
1.44888
1.45208
1.45393
1.45488
1.45526
1.45527
1.45507
1.45474
1.45433
1.45388
1.4534
1.45293
1.45244
0.384645
0.362402
0.341724
0.322578
0.305017
0.289125
0.274992
0.262721
0.252441
0.244324
0.238605
0.23559
0.235666
0.239275
0.246857
0.258758
0.275113
0.295756
0.32017
0.347509
0.376651
0.406277
0.434967
0.461327
0.484147
0.50256
0.516151
0.524988
0.529523
0.530651
0.529602
0.527773
0.526642
0.52768
0.532243
0.541444
0.556021
0.576246
0.601936
0.63255
0.667363
0.705618
0.746649
0.789931
0.835084
0.881852
0.930074
0.979633
1.03041
1.08219
1.13458
1.18686
1.23793
1.28632
1.3304
1.36875
1.40053
1.4256
1.44448
1.45809
1.4675
1.47375
1.47771
1.48008
1.48138
1.48199
1.48215
1.48204
1.48177
1.4814
1.48097
1.4805
1.48002
1.47955
1.47906
0.384357
0.361569
0.340275
0.320619
0.302791
0.286976
0.273359
0.262154
0.253634
0.248166
0.246231
0.248416
0.255349
0.267571
0.285345
0.308505
0.3364
0.367983
0.401981
0.43704
0.471788
0.504852
0.534882
0.560632
0.581107
0.595723
0.6044
0.607555
0.60603
0.601151
0.594484
0.587718
0.582571
0.580695
0.58354
0.592207
0.6073
0.628858
0.656418
0.689177
0.726208
0.766626
0.80969
0.854828
0.901622
0.949766
0.999024
1.04917
1.09995
1.15098
1.20169
1.25123
1.29849
1.34215
1.38094
1.41391
1.44064
1.46133
1.47664
1.4875
1.49488
1.49969
1.50266
1.50438
1.50526
1.5056
1.5056
1.5054
1.50508
1.50468
1.50424
1.50376
1.50328
1.50281
1.50233
0.383927
0.360433
0.338442
0.318325
0.300431
0.285075
0.272596
0.263411
0.258075
0.257314
0.261993
0.272966
0.290809
0.315515
0.346339
0.381912
0.420556
0.460619
0.500656
0.539441
0.575853
0.608775
0.637065
0.659662
0.675767
0.685029
0.687641
0.684313
0.676283
0.665213
0.65296
0.64147
0.63267
0.628351
0.630006
0.638651
0.65468
0.677843
0.707374
0.742225
0.781299
0.823617
0.868386
0.915006
0.963021
1.01207
1.06185
1.11203
1.16223
1.21193
1.26046
1.30692
1.35025
1.38935
1.42329
1.45149
1.4739
1.49091
1.50329
1.51192
1.51768
1.52135
1.52355
1.52475
1.52531
1.52545
1.52534
1.52508
1.52472
1.5243
1.52385
1.52337
1.52289
1.52242
1.52195
0.383319
0.358958
0.336244
0.315811
0.298206
0.283951
0.273661
0.268152
0.26849
0.275923
0.291577
0.315958
0.348518
0.387625
0.431001
0.476334
0.521707
0.565732
0.607459
0.646155
0.681086
0.711377
0.73603
0.75408
0.764842
0.768123
0.76433
0.754439
0.740037
0.723065
0.705642
0.689943
0.678072
0.671915
0.672943
0.682016
0.699257
0.7241
0.755495
0.792188
0.832962
0.876779
0.922822
0.970466
1.01922
1.06868
1.11845
1.16812
1.2172
1.2651
1.31106
1.35422
1.39364
1.42843
1.45796
1.482
1.50072
1.51469
1.52467
1.5315
1.53597
1.53874
1.54034
1.54116
1.54147
1.54146
1.54127
1.54096
1.54058
1.54015
1.5397
1.53922
1.53874
1.53828
1.53782
0.382499
0.357132
0.333739
0.313276
0.296568
0.284508
0.27825
0.279332
0.289537
0.310342
0.342058
0.383259
0.431093
0.482242
0.533821
0.583794
0.630952
0.674691
0.714709
0.750733
0.782295
0.808636
0.828784
0.841785
0.846995
0.844327
0.834346
0.818295
0.798037
0.77576
0.75382
0.734592
0.720324
0.712939
0.713819
0.723603
0.742115
0.768485
0.801424
0.839532
0.881522
0.926334
0.97314
1.0213
1.07028
1.11963
1.16888
1.21754
1.26505
1.31075
1.35389
1.39366
1.42925
1.46003
1.48563
1.50605
1.52167
1.5331
1.54113
1.54653
1.54998
1.55206
1.55319
1.55371
1.55384
1.55373
1.55348
1.55314
1.55275
1.55233
1.55187
1.55139
1.55092
1.55047
1.55002
0.381436
0.354959
0.331044
0.311056
0.296297
0.288366
0.28942
0.30201
0.328145
0.367832
0.418385
0.475359
0.534268
0.591741
0.645766
0.695422
0.740481
0.781065
0.817356
0.849351
0.876689
0.898612
0.914094
0.922135
0.92209
0.913934
0.898368
0.876872
0.851527
0.824742
0.79908
0.777086
0.761099
0.753019
0.754077
0.764652
0.78427
0.811802
0.845789
0.884746
0.927368
0.972597
1.01961
1.06774
1.11643
1.16516
1.2134
1.26061
1.30617
1.34939
1.38955
1.42593
1.45788
1.48498
1.50708
1.5244
1.53739
1.54675
1.5532
1.55746
1.56011
1.56164
1.56242
1.56273
1.56272
1.56254
1.56225
1.5619
1.56151
1.56108
1.56063
1.56016
1.5597
1.55926
1.55883
0.380108
0.352477
0.328359
0.309741
0.298807
0.2985
0.312469
0.343631
0.391725
0.452364
0.519028
0.58587
0.649092
0.706841
0.758582
0.804511
0.845147
0.881073
0.912723
0.940196
0.96313
0.980698
0.991785
0.995317
0.990629
0.977731
0.957441
0.931423
0.901934
0.87157
0.843067
0.819094
0.802024
0.793674
0.795071
0.806323
0.826693
0.854861
0.88927
0.92842
0.971023
1.01605
1.06267
1.11022
1.15809
1.20572
1.25253
1.29791
1.34121
1.38175
1.41886
1.45192
1.48044
1.50421
1.52324
1.53789
1.5487
1.55635
1.56153
1.56487
1.5669
1.56802
1.56853
1.56867
1.56858
1.56835
1.56804
1.56768
1.56729
1.56687
1.56643
1.56597
1.56552
1.5651
1.56469
0.3785
0.349757
0.326046
0.310415
0.306752
0.320203
0.355304
0.411906
0.483479
0.560703
0.636004
0.705134
0.766523
0.820146
0.866685
0.90707
0.942229
0.972952
0.999753
1.02273
1.04147
1.05504
1.06224
1.06193
1.0534
1.03669
1.0127
0.983224
0.950657
0.917735
0.887324
0.862161
0.84459
0.836287
0.838047
0.84972
0.87036
0.898536
0.932673
0.971308
1.01321
1.05738
1.10302
1.14943
1.19598
1.24206