/*--------------------------------*- C++ -*----------------------------------*\
  =========                 |
  \\      /  F ield         | OpenFOAM: The Open Source CFD Toolbox
   \\    /   O peration     | Website:  https://openfoam.org
    \\  /    A nd           | Version:  7
     \\/     M anipulation  |
\*---------------------------------------------------------------------------*/
FoamFile
{
    version     2.0;
    format      ascii;
    class       volScalarField;
    location    "350";
    object      p;
}
// * * * * * * * * * * * * * * * * * * * * * * * * * * * * * * * * * * * * * //

dimensions      [0 2 -2 0 0 0 0];

internalField   nonuniform List<scalar> 
4500
(
52.8009
49.7892
48.6293
47.4952
46.3672
45.2823
44.2312
43.2043
42.198
41.2098
40.2371
39.2781
38.3314
37.3956
36.4699
35.5531
34.6444
33.7424
32.8462
31.9546
31.0693
30.1906
29.3268
28.4867
27.6825
26.9268
26.2321
25.6081
25.0589
24.5885
24.1921
23.8638
23.594
23.3699
23.178
23.004
22.8353
22.6603
22.4721
22.265
22.0372
21.7867
21.5157
21.2246
20.9161
20.5903
20.2496
19.894
19.5247
19.1386
18.7349
18.3043
17.8416
17.3332
16.7719
16.1485
15.4697
14.7373
13.9674
13.1673
12.3481
11.5141
10.6723
9.82375
8.97313
8.11982
7.26661
6.41153
5.55718
4.70205
3.84771
2.99235
2.13766
1.28216
0.428194
52.4141
49.7609
48.6282
47.4956
46.3675
45.2825
44.2314
43.2045
42.1982
41.2099
40.2372
39.2782
38.3314
37.3957
36.4699
35.5532
34.6444
33.7425
32.8462
31.9546
31.0693
30.1907
29.3269
28.4867
27.6825
26.9268
26.2321
25.6081
25.0589
24.5884
24.192
23.8637
23.5938
23.3698
23.1779
23.0039
22.8351
22.6601
22.472
22.2649
22.0371
21.7866
21.5156
21.2245
20.916
20.5902
20.2495
19.894
19.5247
19.1386
18.7349
18.3043
17.8416
17.3331
16.7719
16.1484
15.4697
14.7373
13.9674
13.1673
12.3481
11.5141
10.6723
9.82375
8.97313
8.11982
7.26661
6.41153
5.55718
4.70205
3.84771
2.99235
2.13766
1.28216
0.428194
52.3266
49.7678
48.6303
47.4967
46.3682
45.283
44.2318
43.2048
42.1984
41.2101
40.2374
39.2783
38.3316
37.3958
36.47
35.5533
34.6445
33.7425
32.8463
31.9547
31.0694
30.1907
29.3269
28.4868
27.6825
26.9268
26.2321
25.608
25.0588
24.5883
24.1919
23.8635
23.5937
23.3696
23.1777
23.0037
22.8349
22.6599
22.4718
22.2647
22.037
21.7865
21.5155
21.2244
20.9159
20.5901
20.2494
19.8939
19.5246
19.1385
18.7348
18.3042
17.8415
17.3331
16.7718
16.1484
15.4697
14.7373
13.9674
13.1673
12.3481
11.5141
10.6723
9.82375
8.97313
8.11982
7.26661
6.41154
5.55718
4.70205
3.84771
2.99235
2.13766
1.28216
0.428194
52.3263
49.776
48.6321
47.4978
46.369
45.2836
44.2322
43.2051
42.1987
41.2104
40.2376
39.2785
38.3317
37.396
36.4701
35.5534
34.6446
33.7426
32.8464
31.9547
31.0694
30.1908
29.327
28.4868
27.6826
26.9268
26.2321
25.608
25.0587
24.5882
24.1917
23.8633
23.5935
23.3694
23.1775
23.0035
22.8347
22.6598
22.4716
22.2645
22.0368
21.7863
21.5154
21.2243
20.9158
20.59
20.2493
19.8938
19.5246
19.1385
18.7348
18.3042
17.8415
17.3331
16.7718
16.1484
15.4696
14.7373
13.9674
13.1673
12.3481
11.5141
10.6723
9.82375
8.97314
8.11982
7.26661
6.41154
5.55718
4.70205
3.84771
2.99235
2.13766
1.28216
0.428194
52.3224
49.7792
48.6334
47.4989
46.3699
45.2843
44.2328
43.2055
42.1991
41.2107
40.2378
39.2787
38.3319
37.3961
36.4703
35.5535
34.6447
33.7427
32.8465
31.9548
31.0695
30.1909
29.327
28.4869
27.6826
26.9268
26.232
25.6079
25.0585
24.588
24.1915
23.8631
23.5932
23.3692
23.1773
23.0033
22.8346
22.6596
22.4715
22.2644
22.0367
21.7862
21.5152
21.2242
20.9157
20.5899
20.2493
19.8938
19.5245
19.1384
18.7347
18.3042
17.8415
17.3331
16.7718
16.1484
15.4696
14.7373
13.9674
13.1673
12.3481
11.5141
10.6723
9.82375
8.97314
8.11982
7.26661
6.41154
5.55719
4.70205
3.84771
2.99235
2.13766
1.28216
0.428194
52.3122
49.7815
48.6344
47.5
46.3708
45.285
44.2333
43.206
42.1995
41.211
40.2381
39.279
38.3321
37.3963
36.4705
35.5536
34.6448
33.7428
32.8466
31.9549
31.0696
30.1909
29.3271
28.4869
27.6825
26.9267
26.2319
25.6077
25.0584
24.5878
24.1913
23.8629
23.593
23.369
23.1771
23.0031
22.8344
22.6594
22.4713
22.2643
22.0366
21.7861
21.5152
21.2241
20.9157
20.5899
20.2492
19.8937
19.5245
19.1384
18.7347
18.3041
17.8415
17.3331
16.7718
16.1484
15.4696
14.7373
13.9674
13.1673
12.3481
11.5141
10.6723
9.82375
8.97314
8.11982
7.26661
6.41154
5.55719
4.70205
3.84771
2.99235
2.13766
1.28216
0.428194
52.3025
49.7844
48.6352
47.5009
46.3717
45.2858
44.234
43.2066
42.2
41.2114
40.2385
39.2793
38.3324
37.3965
36.4707
35.5538
34.645
33.743
32.8467
31.955
31.0697
30.191
29.3271
28.4869
27.6825
26.9266
26.2318
25.6075
25.0581
24.5875
24.191
23.8627
23.5928
23.3688
23.1769
23.0029
22.8342
22.6593
22.4712
22.2641
22.0365
21.786
21.5151
21.2241
20.9156
20.5898
20.2492
19.8937
19.5245
19.1384
18.7347
18.3041
17.8415
17.333
16.7718
16.1484
15.4696
14.7373
13.9674
13.1673
12.3481
11.5141
10.6723
9.82375
8.97314
8.11982
7.26661
6.41154
5.55718
4.70205
3.84771
2.99235
2.13766
1.28216
0.428194
52.2939
49.7876
48.636
47.5017
46.3725
45.2866
44.2347
43.2072
42.2005
41.2118
40.2388
39.2796
38.3327
37.3968
36.4709
35.554
34.6452
33.7432
32.8469
31.9552
31.0698
30.1911
29.3272
28.4869
27.6824
26.9265
26.2316
25.6073
25.0579
24.5873
24.1908
23.8624
23.5926
23.3685
23.1767
23.0028
22.8341
22.6592
22.4711
22.2641
22.0364
21.786
21.515
21.224
20.9156
20.5898
20.2492
19.8937
19.5245
19.1384
18.7347
18.3041
17.8414
17.333
16.7718
16.1484
15.4696
14.7373
13.9674
13.1673
12.3481
11.5141
10.6723
9.82375
8.97314
8.11982
7.26661
6.41154
5.55718
4.70205
3.84771
2.99235
2.13766
1.28216
0.428194
52.285
49.7908
48.6366
47.5024
46.3732
45.2873
44.2354
43.2078
42.201
41.2123
40.2393
39.28
38.333
37.3971
36.4712
35.5543
34.6454
33.7434
32.8471
31.9553
31.0699
30.1912
29.3272
28.4869
27.6824
26.9264
26.2314
25.6071
25.0576
24.587
24.1905
23.8622
23.5923
23.3684
23.1766
23.0026
22.834
22.6591
22.471
22.264
22.0364
21.7859
21.515
21.224
20.9156
20.5898
20.2492
19.8937
19.5244
19.1384
18.7347
18.3041
17.8414
17.333
16.7718
16.1484
15.4696
14.7373
13.9674
13.1673
12.3481
11.5141
10.6723
9.82375
8.97314
8.11982
7.26661
6.41153
5.55718
4.70205
3.84771
2.99235
2.13766
1.28215
0.428194
52.2754
49.7942
48.6371
47.5029
46.3739
45.288
44.236
43.2084
42.2016
41.2128
40.2397
39.2804
38.3334
37.3974
36.4715
35.5545
34.6456
33.7436
32.8473
31.9555
31.0701
30.1913
29.3273
28.4869
27.6823
26.9263
26.2312
25.6069
25.0574
24.5868
24.1903
23.8619
23.5921
23.3682
23.1764
23.0025
22.8339
22.659
22.471
22.264
22.0364
21.7859
21.515
21.224
20.9156
20.5898
20.2492
19.8937
19.5245
19.1384
18.7347
18.3041
17.8415
17.3331
16.7718
16.1484
15.4697
14.7373
13.9674
13.1673
12.3481
11.5141
10.6723
9.82375
8.97313
8.11982
7.26661
6.41153
5.55718
4.70205
3.84771
2.99235
2.13766
1.28215
0.428193
52.2651
49.7977
48.6375
47.5034
46.3743
45.2885
44.2367
43.209
42.2022
41.2134
40.2402
39.2809
38.3338
37.3978
36.4718
35.5549
34.6459
33.7438
32.8475
31.9557
31.0702
30.1914
29.3273
28.4869
27.6823
26.9261
26.2311
25.6066
25.0572
24.5865
24.19
23.8617
23.592
23.368
23.1763
23.0024
22.8339
22.659
22.471
22.264
22.0364
21.786
21.5151
21.2241
20.9156
20.5899
20.2492
19.8937
19.5245
19.1384
18.7347
18.3041
17.8415
17.3331
16.7718
16.1484
15.4697
14.7374
13.9675
13.1673
12.3481
11.5141
10.6723
9.82375
8.97313
8.11982
7.2666
6.41153
5.55718
4.70204
3.8477
2.99234
2.13766
1.28215
0.428195
52.2542
49.8015
48.6377
47.5037
46.3747
45.289
44.2372
43.2096
42.2027
41.2139
40.2407
39.2813
38.3342
37.3982
36.4722
35.5552
34.6462
33.7441
32.8477
31.9559
31.0704
30.1915
29.3274
28.4869
27.6822
26.926
26.2309
25.6065
25.057
24.5863
24.1898
23.8616
23.5918
23.3679
23.1762
23.0024
22.8339
22.659
22.471
22.2641
22.0365
21.786
21.5151
21.2241
20.9157
20.5899
20.2493
19.8938
19.5245
19.1384
18.7347
18.3042
17.8415
17.3331
16.7719
16.1485
15.4697
14.7374
13.9675
13.1673
12.3482
11.5141
10.6723
9.82375
8.97313
8.11981
7.2666
6.41153
5.55718
4.70204
3.8477
2.99234
2.13765
1.28215
0.428193
52.2425
49.8057
48.6379
47.504
46.375
45.2893
44.2376
43.2101
42.2032
41.2144
40.2412
39.2818
38.3347
37.3986
36.4726
35.5556
34.6466
33.7444
32.848
31.9562
31.0706
30.1917
29.3275
28.4869
27.6822
26.926
26.2308
25.6063
25.0568
24.5861
24.1897
23.8614
23.5917
23.3679
23.1762
23.0024
22.8339
22.6591
22.4711
22.2642
22.0366
21.7861
21.5152
21.2242
20.9158
20.59
20.2494
19.8939
19.5246
19.1385
18.7348
18.3042
17.8416
17.3332
16.7719
16.1485
15.4697
14.7374
13.9675
13.1673
12.3482
11.5142
10.6723
9.82375
8.97313
8.11981
7.2666
6.41152
5.55717
4.70204
3.8477
2.99234
2.13765
1.28214
0.428195
52.2301
49.8102
48.638
47.5041
46.3752
45.2895
44.2379
43.2104
42.2037
41.2149
40.2417
39.2823
38.3352
37.3991
36.473
35.556
34.6469
33.7448
32.8483
31.9565
31.0709
30.1919
29.3277
28.487
27.6822
26.9259
26.2307
25.6062
25.0567
24.586
24.1896
23.8614
23.5917
23.3679
23.1763
23.0025
22.834
22.6592
22.4713
22.2643
22.0367
21.7863
21.5154
21.2244
20.9159
20.5901
20.2495
19.8939
19.5247
19.1385
18.7348
18.3043
17.8416
17.3332
16.772
16.1486
15.4698
14.7375
13.9675
13.1674
12.3482
11.5142
10.6723
9.82375
8.97313
8.11981
7.2666
6.41152
5.55717
4.70203
3.8477
2.99234
2.13765
1.28214
0.428194
52.217
49.8152
48.6382
47.5043
46.3753
45.2896
44.238
43.2107
42.204
41.2153
40.2421
39.2827
38.3356
37.3995
36.4734
35.5564
34.6473
33.7451
32.8487
31.9568
31.0711
30.1921
29.3279
28.4872
27.6823
26.926
26.2307
25.6062
25.0566
24.586
24.1896
23.8614
23.5917
23.368
23.1764
23.0027
22.8342
22.6594
22.4715
22.2645
22.0369
21.7865
21.5156
21.2245
20.9161
20.5902
20.2496
19.8941
19.5248
19.1386
18.7349
18.3044
17.8417
17.3333
16.772
16.1486
15.4698
14.7375
13.9676
13.1674
12.3482
11.5142
10.6723
9.82375
8.97313
8.1198
7.26659
6.41152
5.55717
4.70203
3.84769
2.99233
2.13765
1.28213
0.428196
52.203
49.8206
48.6383
47.5045
46.3754
45.2897
44.2381
43.2108
42.2042
41.2156
40.2425
39.2831
38.336
37.3999
36.4738
35.5568
34.6477
33.7455
32.849
31.9571
31.0714
30.1924
29.3281
28.4874
27.6825
26.9261
26.2308
25.6063
25.0567
24.586
24.1896
23.8615
23.5918
23.3681
23.1766
23.0029
22.8344
22.6597
22.4717
22.2647
22.0371
21.7867
21.5158
21.2247
20.9162
20.5904
20.2498
19.8942
19.5249
19.1387
18.735
18.3044
17.8418
17.3334
16.7721
16.1487
15.4699
14.7376
13.9676
13.1674
12.3482
11.5142
10.6723
9.82375
8.97313
8.1198
7.26659
6.41151
5.55716
4.70203
3.84769
2.99233
2.13764
1.28213
0.428196
52.1883
49.8265
48.6384
47.5048
46.3755
45.2897
44.2381
43.2108
42.2043
41.2157
40.2427
39.2834
38.3363
37.4003
36.4742
35.5572
34.6481
33.7459
32.8494
31.9575
31.0718
30.1927
29.3284
28.4876
27.6827
26.9263
26.231
25.6064
25.0568
24.5862
24.1898
23.8616
23.592
23.3683
23.1768
23.0031
22.8347
22.66
22.472
22.265
22.0374
21.787
21.516
21.2249
20.9165
20.5906
20.2499
19.8944
19.525
19.1389
18.7352
18.3046
17.8419
17.3335
16.7722
16.1488
15.47
14.7376
13.9677
13.1674
12.3482
11.5142
10.6723
9.82375
8.97313
8.1198
7.26659
6.41151
5.55716
4.70202
3.84768
2.99232
2.13764
1.28212
0.4282
52.1728
49.8328
48.6386
47.5051
46.3756
45.2898
44.2381
43.2108
42.2043
41.2158
40.2428
39.2836
38.3366
37.4006
36.4746
35.5575
34.6485
33.7463
32.8498
31.9578
31.0721
30.193
29.3287
28.4879
27.683
26.9266
26.2313
25.6067
25.0571
24.5864
24.19
23.8619
23.5923
23.3686
23.1771
23.0035
22.8351
22.6603
22.4724
22.2654
22.0377
21.7873
21.5163
21.2252
20.9167
20.5909
20.2502
19.8946
19.5252
19.139
18.7353
18.3047
17.8421
17.3336
16.7724
16.1489
15.4701
14.7377
13.9677
13.1675
12.3483
11.5142
10.6723
9.82376
8.97313
8.1198
7.26659
6.4115
5.55716
4.70201
3.84768
2.99232
2.13763
1.28212
0.4282
52.1564
49.8396
48.6388
47.5054
46.3758
45.2898
44.2381
43.2108
42.2043
41.2157
40.2428
39.2836
38.3367
37.4008
36.4748
35.5578
34.6488
33.7466
32.8501
31.9582
31.0725
30.1934
29.329
28.4883
27.6834
26.927
26.2317
25.607
25.0574
24.5868
24.1904
23.8622
23.5926
23.369
23.1775
23.0039
22.8355
22.6607
22.4728
22.2658
22.0381
21.7876
21.5167
21.2255
20.917
20.5911
20.2504
19.8948
19.5255
19.1393
18.7355
18.3049
17.8423
17.3338
16.7726
16.1491
15.4702
14.7378
13.9678
13.1675
12.3483
11.5142
10.6723
9.82376
8.97313
8.11979
7.26658
6.4115
5.55715
4.70201
3.84767
2.99231
2.13763
1.28211
0.428205
52.1394
49.8468
48.6389
47.5059
46.376
45.2899
44.2382
43.2108
42.2042
41.2157
40.2428
39.2836
38.3367
37.4008
36.4749
35.558
34.649
33.7468
32.8504
31.9585
31.0728
30.1937
29.3294
28.4887
27.6838
26.9274
26.2321
25.6075
25.0579
24.5872
24.1908
23.8626
23.593
23.3694
23.1779
23.0043
22.8359
22.6612
22.4732
22.2662
22.0385
21.7881
21.517
21.2259
20.9174
20.5915
20.2508
19.8951
19.5257
19.1395
18.7358
18.3052
17.8425
17.3341
16.7728
16.1493
15.4704
14.7379
13.9679
13.1676
12.3483
11.5142
10.6723
9.82377
8.97314
8.11979
7.26658
6.4115
5.55715
4.702
3.84767
2.9923
2.13763
1.28211
0.428206
52.1217
49.8543
48.639
47.5064
46.3763
45.2901
44.2383
43.2108
42.2042
41.2157
40.2427
39.2836
38.3367
37.4008
36.4749
35.558
34.6491
33.747
32.8506
31.9587
31.0731
30.1941
29.3298
28.4891
27.6843
26.9279
26.2327
25.608
25.0584
24.5877
24.1913
23.8631
23.5935
23.3698
23.1784
23.0048
22.8364
22.6617
22.4737
22.2667
22.039
21.7885
21.5175
21.2263
20.9178
20.5919
20.2511
19.8955
19.5261
19.1399
18.7361
18.3055
17.8428
17.3344
16.7731
16.1495
15.4706
14.7381
13.968
13.1677
12.3484
11.5143
10.6724
9.82378
8.97315
8.11979
7.26658
6.41149
5.55714
4.702
3.84766
2.9923
2.13762
1.2821
0.428214
52.1035
49.8622
48.6391
47.507
46.3767
45.2903
44.2384
43.2109
42.2042
41.2156
40.2427
39.2835
38.3366
37.4007
36.4748
35.558
34.6491
33.747
32.8506
31.9588
31.0733
30.1943
29.3302
28.4896
27.6848
26.9285
26.2333
25.6087
25.059
24.5883
24.1918
23.8636
23.594
23.3703
23.1788
23.0052
22.8368
22.6621
22.4742
22.2672
22.0395
21.789
21.518
21.2268
20.9182
20.5923
20.2516
19.8959
19.5265
19.1403
18.7365
18.3059
17.8432
17.3348
16.7734
16.1499
15.4709
14.7383
13.9682
13.1678
12.3485
11.5143
10.6724
9.82379
8.97315
8.11979
7.26658
6.41149
5.55714
4.70199
3.84766
2.99229
2.13761
1.2821
0.428217
52.085
49.8703
48.639
47.5076
46.3771
45.2905
44.2385
43.211
42.2043
41.2156
40.2427
39.2834
38.3365
37.4006
36.4747
35.5579
34.649
33.7469
32.8506
31.9588
31.0733
30.1945
29.3304
28.49
27.6853
26.9291
26.2339
25.6093
25.0597
24.5889
24.1924
23.8641
23.5945
23.3707
23.1793
23.0056
22.8373
22.6626
22.4746
22.2677
22.04
21.7895
21.5185
21.2273
20.9187
20.5928
20.2521
19.8964
19.527
19.1408
18.737
18.3064
17.8438
17.3353
16.7739
16.1503
15.4712
14.7386
13.9684
13.1679
12.3486
11.5144
10.6724
9.82381
8.97316
8.11979
7.26658
6.41148
5.55713
4.70198
3.84765
2.99228
2.13761
1.28209
0.428227
52.0664
49.8786
48.639
47.5082
46.3775
45.2907
44.2387
43.2111
42.2044
41.2157
40.2427
39.2834
38.3365
37.4006
36.4747
35.5578
34.6489
33.7468
32.8505
31.9587
31.0733
30.1945
29.3306
28.4903
27.6857
26.9297
26.2345
25.61
25.0604
24.5896
24.193
23.8647
23.5949
23.3712
23.1796
23.006
22.8376
22.663
22.4751
22.2681
22.0405
21.79
21.519
21.2278
20.9193
20.5933
20.2526
19.8969
19.5276
19.1414
18.7376
18.3071
17.8444
17.3359
16.7745
16.1508
15.4716
14.7389
13.9686
13.1681
12.3487
11.5144
10.6725
9.82383
8.97318
8.11979
7.26658
6.41147
5.55713
4.70197
3.84764
2.99227
2.1376
1.28209
0.428233
52.0482
49.8868
48.6388
47.5088
46.3779
45.291
44.2389
43.2113
42.2045
41.2158
40.2427
39.2835
38.3365
37.4006
36.4746
35.5577
34.6488
33.7467
32.8504
31.9586
31.0732
30.1945
29.3307
28.4905
27.6861
26.9301
26.2351
25.6106
25.061
24.5902
24.1936
23.8652
23.5954
23.3716
23.18
23.0063
22.8379
22.6633
22.4754
22.2685
22.0409
21.7905
21.5195
21.2284
20.9198
20.5939
20.2532
19.8976
19.5282
19.142
18.7383
18.3078
17.8452
17.3367
16.7752
16.1514
15.4721
14.7393
13.9689
13.1682
12.3488
11.5145
10.6725
9.82385
8.97319
8.11979
7.26658
6.41147
5.55712
4.70196
3.84763
2.99226
2.1376
1.28208
0.428245
52.0307
49.8947
48.6385
47.5095
46.3784
45.2913
44.2392
43.2115
42.2046
41.2159
40.2428
39.2835
38.3365
37.4006
36.4746
35.5577
34.6488
33.7467
32.8503
31.9586
31.0732
30.1945
29.3308
28.4907
27.6864
26.9305
26.2356
25.6112
25.0616
24.5908
24.1941
23.8657
23.5958
23.3719
23.1802
23.0065
22.8381
22.6635
22.4756
22.2688
22.0413
21.7909
21.52
21.2289
20.9203
20.5945
20.2538
19.8982
19.5289
19.1428
18.7391
18.3087
17.8461
17.3376
16.7761
16.1522
15.4727
14.7397
13.9692
13.1685
12.349
11.5146
10.6726
9.82388
8.97321
8.11979
7.26658
6.41146
5.55712
4.70195
3.84762
2.99225
2.13759
1.28208
0.428255
52.0146
49.9021
48.6382
47.51
46.3788
45.2916
44.2394
43.2117
42.2048
41.216
40.2429
39.2836
38.3366
37.4006
36.4746
35.5577
34.6487
33.7466
32.8502
31.9585
31.0731
30.1945
29.3308
28.4908
27.6866
26.9309
26.236
25.6116
25.0621
24.5913
24.1946
23.8661
23.5961
23.3721
23.1804
23.0066
22.8382
22.6636
22.4758
22.269
22.0415
21.7912
21.5203
21.2293
20.9208
20.595
20.2544
19.8988
19.5296
19.1436
18.74
18.3097
17.8472
17.3387
16.7771
16.153
15.4734
14.7403
13.9696
13.1687
12.3491
11.5147
10.6726
9.8239
8.97322
8.11979
7.26658
6.41145
5.55711
4.70193
3.84761
2.99224
2.13758
1.28207
0.428269
52.0008
49.9086
48.6379
47.5105
46.3792
45.2918
44.2396
43.2118
42.2049
41.2161
40.243
39.2837
38.3366
37.4007
36.4747
35.5577
34.6487
33.7466
32.8502
31.9585
31.0731
30.1945
29.3309
28.491
27.6869
26.9312
26.2364
25.612
25.0625
24.5917
24.195
23.8664
23.5964
23.3723
23.1805
23.0067
22.8382
22.6636
22.4758
22.269
22.0416
21.7913
21.5205
21.2296
20.9212
20.5954
20.2549
19.8994
19.5303
19.1444
18.7409
18.3107
17.8484
17.3399
16.7782
16.154
15.4742
14.7408
13.97
13.1689
12.3493
11.5147
10.6727
9.82392
8.97323
8.11979
7.26658
6.41144
5.5571
4.70192
3.8476
2.99222
2.13758
1.28207
0.428282
51.9902
49.9136
48.6375
47.5109
46.3795
45.292
44.2397
43.212
42.205
41.2162
40.2431
39.2837
38.3367
37.4007
36.4747
35.5577
34.6488
33.7466
32.8502
31.9585
31.0731
30.1946
29.331
28.4911
27.687
26.9314
26.2366
25.6123
25.0628
24.592
24.1952
23.8666
23.5966
23.3724
23.1806
23.0067
22.8382
22.6636
22.4757
22.269
22.0416
21.7914
21.5206
21.2297
20.9214
20.5957
20.2553
19.8999
19.5309
19.1451
18.7418
18.3117
17.8495
17.341
16.7792
16.1548
15.4749
14.7413
13.9703
13.1691
12.3494
11.5148
10.6727
9.82393
8.97324
8.11978
7.26658
6.41142
5.55709
4.7019
3.84759
2.99221
2.13757
1.28206
0.428297
51.9841
49.9165
48.6373
47.5111
46.3797
45.2921
44.2398
43.212
42.2051
41.2163
40.2431
39.2838
38.3367
37.4007
36.4747
35.5578
34.6488
33.7466
32.8502
31.9585
31.0732
30.1946
29.331
28.4912
27.6872
26.9315
26.2368
25.6125
25.063
24.5921
24.1954
23.8667
23.5966
23.3725
23.1806
23.0067
22.8382
22.6635
22.4757
22.269
22.0416
21.7914
21.5207
21.2298
20.9215
20.5959
20.2556
19.9003
19.5313
19.1456
18.7424
18.3124
17.8502
17.3417
16.7799
16.1554
15.4753
14.7416
13.9705
13.1692
12.3495
11.5148
10.6728
9.82393
8.97325
8.11977
7.26659
6.41141
5.55709
4.70189
3.84759
2.9922
2.13757
1.28206
0.428313
51.9841
49.9165
48.6373
47.5111
46.3797
45.2921
44.2398
43.212
42.2051
41.2163
40.2431
39.2838
38.3367
37.4007
36.4747
35.5578
34.6488
33.7466
32.8502
31.9585
31.0732
30.1946
29.331
28.4912
27.6872
26.9315
26.2368
25.6125
25.0629
24.5921
24.1953
23.8667
23.5966
23.3724
23.1806
23.0067
22.8382
22.6635
22.4757
22.269
22.0416
21.7914
21.5207
21.2298
20.9216
20.5959
20.2556
19.9003
19.5313
19.1456
18.7424
18.3124
17.8502
17.3418
16.78
16.1554
15.4753
14.7416
13.9705
13.1692
12.3495
11.5148
10.6728
9.82392
8.97326
8.11976
7.2666
6.4114
5.55709
4.70187
3.84759
2.99218
2.13757
1.28205
0.428329
51.9901
49.9136
48.6375
47.5109
46.3795
45.292
44.2397
43.212
42.205
41.2162
40.2431
39.2837
38.3367
37.4007
36.4747
35.5577
34.6488
33.7466
32.8502
31.9585
31.0732
30.1946
29.331
28.4911
27.6871
26.9314
26.2366
25.6123
25.0627
24.5919
24.1951
23.8665
23.5964
23.3723
23.1805
23.0066
22.8382
22.6636
22.4758
22.269
22.0416
21.7914
21.5207
21.2298
20.9215
20.5958
20.2554
19.9
19.531
19.1451
18.7419
18.3118
17.8496
17.3411
16.7794
16.1549
15.4749
14.7413
13.9704
13.1691
12.3495
11.5147
10.6728
9.82391
8.97327
8.11976
7.26662
6.41139
5.55709
4.70186
3.84759
2.99218
2.13757
1.28205
0.428348
52.0008
49.9086
48.6379
47.5105
46.3792
45.2918
44.2396
43.2118
42.2049
41.2161
40.243
39.2837
38.3366
37.4007
36.4747
35.5577
34.6487
33.7466
32.8502
31.9585
31.0732
30.1946
29.331
28.491
27.6869
26.9312
26.2363
25.6119
25.0623
24.5915
24.1947
23.8662
23.5961
23.3721
23.1803
23.0066
22.8382
22.6636
22.4758
22.2691
22.0417
21.7914
21.5207
21.2297
20.9213
20.5955
20.255
19.8995
19.5304
19.1444
18.7411
18.3108
17.8485
17.34
16.7784
16.154
15.4743
14.7408
13.9701
13.1689
12.3494
11.5147
10.6728
9.82388
8.97328
8.11975
7.26663
6.41139
5.5571
4.70186
3.8476
2.99217
2.13758
1.28205
0.428361
52.0146
49.9021
48.6382
47.51
46.3788
45.2916
44.2394
43.2117
42.2048
41.216
40.2429
39.2836
38.3366
37.4006
36.4746
35.5577
34.6487
33.7466
32.8503
31.9585
31.0732
30.1946
29.3309
28.4909
27.6867
26.9309
26.236
25.6115
25.0619
24.591
24.1943
23.8657
23.5958
23.3718
23.1802
23.0065
22.8382
22.6636
22.4759
22.2691
22.0417
21.7913
21.5205
21.2294
20.921
20.595
20.2545
19.8989
19.5297
19.1437
18.7402
18.3098
17.8474
17.3388
16.7773
16.1531
15.4736
14.7402
13.9697
13.1686
12.3492
11.5146
10.6727
9.82385
8.97328
8.11975
7.26665
6.41139
5.55711
4.70186
3.8476
2.99217
2.13758
1.28205
0.428376
52.0307
49.8947
48.6385
47.5095
46.3784
45.2913
44.2392
43.2115
42.2046
41.2159
40.2428
39.2835
38.3365
37.4006
36.4746
35.5577
34.6488
33.7467
32.8503
31.9586
31.0733
30.1946
29.3309
28.4908
27.6865
26.9305
26.2355
25.611
25.0613
24.5905
24.1938
23.8653
23.5954
23.3715
23.18
23.0063
22.8381
22.6636
22.4758
22.269
22.0415
21.7911
21.5202
21.229
20.9205
20.5945
20.254
19.8983
19.5291
19.1429
18.7393
18.3088
17.8464
17.3377
16.7763
16.1522
15.4729
14.7397
13.9693
13.1683
12.3491
11.5144
10.6727
9.82381
8.97328
8.11974
7.26667
6.41139
5.55712
4.70185
3.84761
2.99217
2.13759
1.28206
0.428386
52.0481
49.8868
48.6388
47.5088
46.3779
45.291
44.2389
43.2113
42.2045
41.2158
40.2427
39.2835
38.3365
37.4006
36.4746
35.5577
34.6488
33.7468
32.8504
31.9587
31.0733
30.1947
29.3308
28.4906
27.6862
26.9301
26.235
25.6104
25.0607
24.5899
24.1932
23.8648
23.595
23.3712
23.1797
23.0061
22.8379
22.6634
22.4756
22.2687
22.0412
21.7907
21.5198
21.2285
20.92
20.594
20.2534
19.8977
19.5284
19.1421
18.7386
18.3079
17.8454
17.3368
16.7754
16.1514
15.4723
14.7392
13.969
13.1681
12.349
11.5143
10.6727
9.82377
8.97327
8.11973
7.26668
6.41138
5.55713
4.70185
3.84762
2.99217
2.1376
1.28206
0.428398
52.0664
49.8786
48.639
47.5082
46.3775
45.2907
44.2387
43.2111
42.2044
41.2157
40.2427
39.2834
38.3365
37.4006
36.4747
35.5578
34.6489
33.7469
32.8505
31.9588
31.0734
30.1947
29.3308
28.4904
27.6858
26.9297
26.2345
25.6098
25.0601
24.5892
24.1926
23.8642
23.5945
23.3707
23.1793
23.0058
22.8376
22.6631
22.4753
22.2684
22.0408
21.7903
21.5193
21.228
20.9195
20.5934
20.2528
19.8971
19.5278
19.1415
18.7379
18.3072
17.8447
17.336
16.7747
16.1508
15.4718
14.7388
13.9687
13.1679
12.3488
11.5142
10.6726
9.82374
8.97327
8.11972
7.26669
6.41138
5.55714
4.70185
3.84763
2.99217
2.13761
1.28207
0.428406
52.0849
49.8704
48.639
47.5076
46.3771
45.2905
44.2385
43.211
42.2043
41.2157
40.2427
39.2834
38.3365
37.4006
36.4747
35.5579
34.649
33.747
32.8506
31.9589
31.0734
30.1946
29.3306
28.4901
27.6854
26.9291
26.2338
25.6091
25.0594
24.5885
24.1919
23.8636
23.5939
23.3703
23.1789
23.0054
22.8373
22.6627
22.4749
22.2679
22.0403
21.7898
21.5188
21.2275
20.919
20.5929
20.2523
19.8965
19.5272
19.1409
18.7373
18.3065
17.844
17.3353
16.7741
16.1502
15.4714
14.7384
13.9685
13.1677
12.3488
11.5142
10.6726
9.82371
8.97327
8.11971
7.2667
6.41138
5.55714
4.70185
3.84764
2.99217
2.13762
1.28207
0.428415
52.1034
49.8622
48.6391
47.507
46.3767
45.2903
44.2384
43.2109
42.2042
41.2156
40.2427
39.2835
38.3366
37.4007
36.4748
35.558
34.6491
33.747
32.8507
31.9589
31.0734
30.1945
29.3303
28.4898
27.6849
26.9286
26.2332
25.6085
25.0587
24.5879
24.1913
23.863
23.5934
23.3698
23.1785
23.005
22.8368
22.6623
22.4744
22.2675
22.0399
21.7893
21.5183
21.227
20.9185
20.5924
20.2518
19.896
19.5268
19.1404
18.7368
18.306
17.8435
17.3348
16.7737
16.1498
15.4711
14.7382
13.9683
13.1676
12.3487
11.5141
10.6726
9.82368
8.97326
8.1197
7.26671
6.41137
5.55715
4.70185
3.84765
2.99218
2.13763
1.28208
0.42842
52.1216
49.8544
48.639
47.5064
46.3763
45.2901
44.2383
43.2108
42.2042
41.2157
40.2427
39.2836
38.3366
37.4008
36.4749
35.558
34.6491
33.747
32.8506
31.9588
31.0732
30.1942
29.33
28.4893
27.6844
26.928
26.2326
25.6078
25.0581
24.5873
24.1907
23.8625
23.5929
23.3694
23.178
23.0046
22.8364
22.6618
22.474
22.267
22.0394
21.7888
21.5178
21.2265
20.9181
20.592
20.2514
19.8956
19.5264
19.14
18.7364
18.3056
17.8431
17.3344
16.7733
16.1495
15.4708
14.7379
13.9682
13.1674
12.3486
11.514
10.6725
9.82366
8.97326
8.11969
7.26672
6.41137
5.55715
4.70185
3.84766
2.99218
2.13764
1.28208
0.428428
52.1393
49.8468
48.6389
47.5059
46.376
45.2899
44.2382
43.2108
42.2042
41.2157
40.2428
39.2836
38.3367
37.4008
36.4749
35.558
34.649
33.7469
32.8504
31.9586
31.0729
30.1939
29.3296
28.4889
27.6839
26.9275
26.232
25.6073
25.0575
24.5867
24.1902
23.862
23.5925
23.3689
23.1776
23.0042
22.836
22.6614
22.4735
22.2665
22.0389
21.7884
21.5174
21.2261
20.9177
20.5916
20.251
19.8952
19.526
19.1396
18.736
18.3052
17.8428
17.3341
16.773
16.1492
15.4706
14.7377
13.9681
13.1674
12.3486
11.514
10.6725
9.82364
8.97326
8.11969
7.26673
6.41137
5.55716
4.70186
3.84766
2.99219
2.13765
1.28209
0.428432
52.1564
49.8396
48.6388
47.5054
46.3758
45.2898
44.2381
43.2108
42.2043
41.2157
40.2428
39.2836
38.3367
37.4008
36.4748
35.5578
34.6488
33.7466
32.8502
31.9583
31.0726
30.1936
29.3293
28.4885
27.6835
26.927
26.2316
25.6068
25.0571
24.5863
24.1898
23.8616
23.5921
23.3685
23.1772
23.0037
22.8355
22.6609
22.4731
22.2661
22.0385
21.788
21.517
21.2258
20.9173
20.5912
20.2507
19.8949
19.5257
19.1394
18.7358
18.305
17.8425
17.3338
16.7728
16.149
15.4704
14.7376
13.968
13.1673
12.3485
11.514
10.6725
9.82363
8.97326
8.11968
7.26674
6.41137
5.55716
4.70186
3.84767
2.99219
2.13766
1.2821
0.428438
52.1727
49.8328
48.6386
47.5051
46.3756
45.2898
44.2381
43.2108
42.2043
41.2158
40.2428
39.2836
38.3366
37.4006
36.4746
35.5575
34.6485
33.7463
32.8498
31.9579
31.0723
30.1932
29.3289
28.4881
27.6831
26.9266
26.2312
25.6065
25.0567
24.586
24.1895
23.8613
23.5918
23.3682
23.1768
23.0034
22.8351
22.6605
22.4727
22.2657
22.0382
21.7876
21.5167
21.2254
20.917
20.591
20.2504
19.8947
19.5255
19.1391
18.7356
18.3048
17.8423
17.3337
16.7726
16.1489
15.4703
14.7375
13.9679
13.1672
12.3485
11.5139
10.6725
9.82361
8.97327
8.11968
7.26674
6.41137
5.55717
4.70186
3.84768
2.9922
2.13767
1.2821
0.428441
52.1882
49.8265
48.6384
47.5048
46.3755
45.2897
44.2381
43.2108
42.2043
41.2157
40.2427
39.2834
38.3363
37.4003
36.4742
35.5572
34.6481
33.7459
32.8495
31.9576
31.0719
30.1929
29.3286
28.4878
27.6828
26.9263
26.2309
25.6062
25.0565
24.5857
24.1892
23.8611
23.5915
23.3679
23.1765
23.003
22.8348
22.6602
22.4724
22.2654
22.0378
21.7873
21.5164
21.2252
20.9168
20.5907
20.2502
19.8945
19.5253
19.139
18.7354
18.3046
17.8422
17.3335
16.7725
16.1487
15.4702
14.7374
13.9678
13.1672
12.3485
11.5139
10.6725
9.8236
8.97327
8.11968
7.26675
6.41136
5.55717
4.70187
3.84769
2.9922
2.13768
1.28211
0.428446
52.203
49.8207
48.6383
47.5045
46.3754
45.2897
44.2381
43.2108
42.2042
41.2156
40.2425
39.2831
38.336
37.3999
36.4738
35.5568
34.6477
33.7455
32.8491
31.9572
31.0716
30.1926
29.3283
28.4876
27.6826
26.9262
26.2308
25.606
25.0564
24.5856
24.1891
23.8609
23.5913
23.3677
23.1763
23.0028
22.8345
22.6599
22.4721
22.2651
22.0376
21.787
21.5161
21.2249
20.9165
20.5905
20.25
19.8943
19.5251
19.1388
18.7353
18.3045
17.842
17.3334
16.7724
16.1486
15.4701
14.7373
13.9678
13.1671
12.3485
11.5139
10.6725
9.8236
8.97327
8.11968
7.26675
6.41136
5.55718
4.70187
3.84769
2.99221
2.13769
1.28212
0.428448
52.2169
49.8152
48.6382
47.5043
46.3753
45.2896
44.238
43.2107
42.204
41.2153
40.2421
39.2828
38.3356
37.3995
36.4734
35.5564
34.6473
33.7452
32.8487
31.9569
31.0713
30.1923
29.3281
28.4874
27.6825
26.926
26.2307
25.606
25.0563
24.5856
24.1891
23.8608
23.5912
23.3676
23.1761
23.0026
22.8343
22.6597
22.4718
22.2649
22.0373
21.7868
21.5159
21.2247
20.9164
20.5903
20.2499
19.8941
19.525
19.1387
18.7352
18.3044
17.8419
17.3333
16.7723
16.1485
15.47
14.7373
13.9677
13.1671
12.3485
11.5139
10.6725
9.82359
8.97327
8.11968
7.26676
6.41137
5.55718
4.70188
3.8477
2.99222
2.13769
1.28212
0.428452
52.2301
49.8103
48.638
47.5041
46.3752
45.2895
44.2379
43.2104
42.2037
41.2149
40.2417
39.2823
38.3352
37.3991
36.473
35.556
34.647
33.7448
32.8484
31.9566
31.071
30.1921
29.3279
28.4872
27.6824
26.926
26.2307
25.606
25.0563
24.5856
24.1891
23.8608
23.5912
23.3675
23.176
23.0025
22.8342
22.6595
22.4716
22.2647
22.0371
21.7866
21.5158
21.2246
20.9162
20.5902
20.2497
19.894
19.5249
19.1386
18.7351
18.3043
17.8419
17.3332
16.7722
16.1485
15.47
14.7372
13.9677
13.1671
12.3484
11.5139
10.6725
9.82358
8.97328
8.11968
7.26676
6.41137
5.55718
4.70188
3.84771
2.99222
2.1377
1.28213
0.428453
52.2425
49.8057
48.6379
47.504
46.375
45.2893
44.2376
43.2101
42.2032
41.2144
40.2412
39.2818
38.3347
37.3986
36.4726
35.5556
34.6466
33.7445
32.8481
31.9563
31.0708
30.1919
29.3278
28.4872
27.6823
26.926
26.2307
25.6061
25.0565
24.5857
24.1892
23.8609
23.5912
23.3675
23.176
23.0024
22.8341
22.6594
22.4715
22.2645
22.037
21.7865
21.5156
21.2244
20.9161
20.5901
20.2496
19.8939
19.5248
19.1385
18.735
18.3042
17.8418
17.3331
16.7721
16.1484
15.4699
14.7372
13.9677
13.1671
12.3484
11.5139
10.6725
9.82358
8.97328
8.11968
7.26677
6.41137
5.55719
4.70188
3.84771
2.99223
2.13771
1.28214
0.428456
52.2541
49.8016
48.6377
47.5037
46.3747
45.289
44.2372
43.2096
42.2027
41.2139
40.2407
39.2813
38.3342
37.3982
36.4722
35.5552
34.6462
33.7441
32.8478
31.9561
31.0706
30.1917
29.3277
28.4871
27.6824
26.9261
26.2308
25.6063
25.0566
24.5859
24.1894
23.8611
23.5914
23.3676
23.176
23.0024
22.834
22.6593
22.4714
22.2644
22.0369
21.7864
21.5155
21.2243
20.916
20.59
20.2496
19.8939
19.5248
19.1385
18.735
18.3042
17.8418
17.3331
16.7721
16.1484
15.4699
14.7371
13.9677
13.167
12.3484
11.5139
10.6725
9.82358
8.97328
8.11968
7.26677
6.41137
5.55719
4.70189
3.84772
2.99223
2.13772
1.28214
0.428458
52.2651
49.7977
48.6375
47.5034
46.3743
45.2885
44.2367
43.209
42.2022
41.2134
40.2402
39.2809
38.3338
37.3978
36.4718
35.5549
34.6459
33.7439
32.8475
31.9558
31.0704
30.1916
29.3276
28.4871
27.6824
26.9262
26.231
25.6064
25.0568
24.5861
24.1896
23.8612