/*--------------------------------*- C++ -*----------------------------------*\
  =========                 |
  \\      /  F ield         | OpenFOAM: The Open Source CFD Toolbox
   \\    /   O peration     | Website:  https://openfoam.org
    \\  /    A nd           | Version:  7
     \\/     M anipulation  |
\*---------------------------------------------------------------------------*/
FoamFile
{
    version     2.0;
    format      ascii;
    class       surfaceScalarField;
    location    "350";
    object      phi;
}
// * * * * * * * * * * * * * * * * * * * * * * * * * * * * * * * * * * * * * //

dimensions      [0 3 -1 0 0 0 0];

internalField   nonuniform List<scalar> 
8865
(
0.00452285
0.00168694
0.00415016
0.000372689
0.0039903
0.000159865
0.00389729
9.30098e-05
0.00383339
6.38976e-05
0.00378555
4.78344e-05
0.00374796
3.75904e-05
0.00371746
3.04981e-05
0.00369216
2.53047e-05
0.00367081
2.13455e-05
0.00365258
1.82327e-05
0.00363685
1.57257e-05
0.00362319
1.36657e-05
0.00361124
1.19478e-05
0.00360075
1.04954e-05
0.00359147
9.2738e-06
0.0035832
8.27118e-06
0.0035757
7.50544e-06
0.00356869
7.01431e-06
0.00356186
6.8054e-06
0.00355498
6.90972e-06
0.00354785
7.12046e-06
0.00354056
7.29164e-06
0.00353344
7.11891e-06
0.0035271
6.34085e-06
0.00352239
4.71638e-06
0.00352026
2.12401e-06
0.00352165
-1.36246e-06
0.00352719
-5.55516e-06
0.00353724
-1.00249e-05
0.00355164
-1.43918e-05
0.00356988
-1.82197e-05
0.00359112
-2.12039e-05
0.00361442
-2.32751e-05
0.00363891
-2.44628e-05
0.00366387
-2.49381e-05
0.00368876
-2.4824e-05
0.0037132
-2.44008e-05
0.00373694
-2.36993e-05
0.00375979
-2.28368e-05
0.0037816
-2.17217e-05
0.00380223
-2.05736e-05
0.00382155
-1.92793e-05
0.00383943
-1.78832e-05
0.00385575
-1.62997e-05
0.00387044
-1.46192e-05
0.00388343
-1.29587e-05
0.00389471
-1.12881e-05
0.00390433
-9.63688e-06
0.00391238
-8.11897e-06
0.00391903
-6.5605e-06
0.00392444
-5.29266e-06
0.0039288
-4.28907e-06
0.00393226
-3.45527e-06
0.00393494
-2.69693e-06
0.00393694
-2.1067e-06
0.00393838
-1.39463e-06
0.00393935
-8.8664e-07
0.00393997
-6.67768e-07
0.00394033
-3.06319e-07
0.00394051
-2.49809e-07
0.00394057
6.51771e-09
0.00394056
-7.84525e-09
0.00394049
4.23281e-08
0.00394041
-1.24099e-08
0.0039403
3.18709e-08
0.0039402
3.28649e-09
0.00394009
3.819e-08
0.00393998
-1.21463e-08
0.00393988
1.08801e-08
0.00393978
-1.63812e-08
0.00393968
2.33663e-08
0.00393958
-6.04138e-09
0.00393949
3.65607e-10
-3.76927e-08
0.00573448
0.00277626
0.00532416
0.000783015
0.00510631
0.000377709
0.00497607
0.000223253
0.00488795
0.000152016
0.00482307
0.000112708
0.00477273
8.79384e-05
0.00473224
7.09798e-05
0.00469887
5.86767e-05
0.00467085
4.93623e-05
0.00464701
4.2078e-05
0.0046265
3.62356e-05
0.00460871
3.14517e-05
0.00459319
2.74731e-05
0.00457956
2.41212e-05
0.00456753
2.13069e-05
0.0045568
1.90021e-05
0.00454706
1.72443e-05
0.00453797
1.61129e-05
0.00452914
1.56429e-05
0.00452029
1.57546e-05
0.00451125
1.61575e-05
0.00450217
1.63678e-05
0.00449355
1.57466e-05
0.0044862
1.36804e-05
0.00448122
9.69823e-06
0.00447978
3.56639e-06
0.00448293
-4.52077e-06
0.00449138
-1.3994e-05
0.00450544
-2.40701e-05
0.00452483
-3.37718e-05
0.0045488
-4.21837e-05
0.00457629
-4.86754e-05
0.00460613
-5.31003e-05
0.00463725
-5.5562e-05
0.00466876
-5.64427e-05
0.00470004
-5.60611e-05
0.00473062
-5.49578e-05
0.0047602
-5.32525e-05
0.00478854
-5.11742e-05
0.00481547
-4.86064e-05
0.00484083
-4.59014e-05
0.00486446
-4.28877e-05
0.00488622
-3.96453e-05
0.00490599
-3.60565e-05
0.0049237
-3.22841e-05
0.00493929
-2.85345e-05
0.00495279
-2.47935e-05
0.00496429
-2.11433e-05
0.00497392
-1.77886e-05
0.00498189
-1.44848e-05
0.00498841
-1.17472e-05
0.00499368
-9.51522e-06
0.00499784
-7.62384e-06
0.00500106
-5.91798e-06
0.00500343
-4.53833e-06
0.00500511
-3.05119e-06
0.00500624
-1.96493e-06
0.00500694
-1.39747e-06
0.00500734
-6.77544e-07
0.00500753
-4.80915e-07
0.00500759
-1.28362e-08
0.00500756
9.03096e-09
0.00500748
1.14099e-07
0.00500736
4.60716e-08
0.00500723
1.21994e-07
0.0050071
7.87936e-08
0.00500697
1.32066e-07
0.00500684
5.35311e-08
0.00500671
8.82337e-08
0.00500659
4.47338e-08
0.00500646
1.06166e-07
0.00500634
5.82884e-08
0.00500623
6.53749e-08
-4.03461e-08
0.00677261
0.00350217
0.00634446
0.00121116
0.00607519
0.000646985
0.00590745
0.000390985
0.00579398
0.000265488
0.00571123
0.000195463
0.00564762
0.00015155
0.00559688
0.000121719
0.00555531
0.000100243
0.00552058
8.40884e-05
0.00549114
7.15214e-05
0.00546589
6.14856e-05
0.00544404
5.32983e-05
0.00542501
4.65095e-05
0.00540832
4.08088e-05
0.00539359
3.60335e-05
0.00538047
3.21282e-05
0.00536857
2.91458e-05
0.00535748
2.72027e-05
0.00534679
2.63121e-05
0.00533619
2.63759e-05
0.00532556
2.67801e-05
0.00531515
2.6781e-05
0.00530559
2.53039e-05
0.00529788
2.13935e-05
0.00529327
1.43089e-05
0.00529306
3.78292e-06
0.00529833
-9.77104e-06
0.0053098
-2.54827e-05
0.00532769
-4.19501e-05
0.00535159
-5.76717e-05
0.0053806
-7.11821e-05
0.00541345
-8.15161e-05
0.00544881
-8.84479e-05
0.00548544
-9.21834e-05
0.00552235
-9.33452e-05
0.00555881
-9.24912e-05
0.0055943
-9.0429e-05
0.00562846
-8.74014e-05
0.00566105
-8.37561e-05
0.00569186
-7.9385e-05
0.00572073
-7.47456e-05
0.00574749
-6.96352e-05
0.00577202
-6.41722e-05
0.0057942
-5.82328e-05
0.00581399
-5.20488e-05
0.00583138
-4.59084e-05
0.00584641
-3.98312e-05
0.00585922
-3.39573e-05
0.00586998
-2.85679e-05
0.0058789
-2.33805e-05
0.00588623
-1.90286e-05
0.00589215
-1.54128e-05
0.00589684
-1.23088e-05
0.00590043
-9.51828e-06
0.00590307
-7.21765e-06
0.00590493
-4.88946e-06
0.00590616
-3.1657e-06
0.00590692
-2.1789e-06
0.00590735
-1.08786e-06
0.00590756
-7.1014e-07
0.00590761
-4.23604e-08
0.00590758
3.79616e-08
0.00590748
2.01306e-07
0.00590735
1.35669e-07
0.00590721
2.38324e-07
0.00590706
1.86375e-07
0.00590692
2.51715e-07
0.00590677
1.53968e-07
0.00590663
1.96066e-07
0.00590649
1.43012e-07
0.00590635
2.17657e-07
0.00590621
1.58576e-07
0.00590608
1.6132e-07
-2.37323e-09
0.00776838
0.00397374
0.00736522
0.00161432
0.00705881
0.000953391
0.00685371
0.000596092
0.00671229
0.000406908
0.00660913
0.000298622
0.00653023
0.000230446
0.00646767
0.000184283
0.00641668
0.000151225
0.00637428
0.00012649
0.00633846
0.000107341
0.00630783
9.21137e-05
0.0062814
7.97367e-05
0.0062584
6.95059e-05
0.00623827
6.09422e-05
0.00622052
5.37846e-05
0.00620471
4.79372e-05
0.0061904
4.34566e-05
0.00617712
4.04816e-05
0.00616444
3.90085e-05
0.00615205
3.87501e-05
0.00613992
3.89138e-05
0.00612839
3.83118e-05
0.00611824
3.54552e-05
0.00611062
2.90087e-05
0.00610689
1.80378e-05
0.00610838
2.28698e-06
0.00611619
-1.75902e-05
0.00613097
-4.02446e-05
0.00615283
-6.38066e-05
0.00618126
-8.60889e-05
0.00621517
-0.000105089
0.00625316
-0.000119499
0.00629374
-0.000129014
0.00633553
-0.000133957
0.0063774
-0.000135215
0.00641855
-0.000133616
0.0064584
-0.000130259
0.00649655
-0.000125537
0.00653273
-0.000119933
0.00656675
-0.00011337
0.00659843
-0.000106412
0.00662765
-9.88415e-05
0.0066543
-9.08222e-05
0.00667831
-8.22358e-05
0.00669967
-7.33844e-05
0.00671841
-6.46349e-05
0.00673462
-5.60408e-05
0.00674845
-4.77956e-05
0.0067601
-4.02423e-05
0.00676981
-3.30612e-05
0.0067778
-2.69786e-05
0.00678426
-2.18547e-05
0.00678937
-1.74127e-05
0.00679327
-1.34246e-05
0.00679612
-1.01034e-05
0.00679811
-6.86819e-06
0.00679943
-4.45606e-06
0.00680024
-3.00706e-06
0.0068007
-1.52628e-06
0.00680091
-9.47696e-07
0.00680097
-7.816e-08
0.00680093
6.98195e-08
0.00680083
2.93439e-07
0.0068007
2.35424e-07
0.00680055
3.63703e-07
0.0068004
3.04222e-07
0.00680025
3.80945e-07
0.0068001
2.68028e-07
0.00679994
3.18558e-07
0.00679979
2.5748e-07
0.00679964
3.4539e-07
0.00679949
2.74395e-07
0.00679934
2.73346e-07
2.67766e-08
0.00876053
0.00426789
0.00841816
0.00195669
0.00809688
0.00127467
0.00785897
0.000834001
0.00768847
0.00057741
0.00756264
0.000424452
0.00746628
0.000326806
0.00739005
0.000260517
0.00732813
0.000213138
0.00727681
0.000177812
0.00723358
0.000150568
0.00719672
0.000128981
0.00716496
0.000111495
0.00713738
9.70844e-05
0.00711326
8.50576e-05
0.00709202
7.50268e-05
0.00707313
6.68338e-05
0.00705606
6.05221e-05
0.00704031
5.62296e-05
0.00702543
5.38686e-05
0.00701116
5.30483e-05
0.00699752
5.25509e-05
0.00698498
5.0847e-05
0.00697446
4.59692e-05
0.00696722
3.62581e-05
0.00696467
2.05884e-05
0.00696814
-1.18751e-06
0.00697867
-2.80956e-05
0.00699683
-5.84231e-05
0.00702263
-8.96019e-05
0.00705543
-0.000118884
0.00709404
-0.000143687
0.0071369
-0.000162351
0.00718238
-0.000174483
0.00722896
-0.000180526
0.00727539
-0.000181647
0.00732077
-0.000178978
0.00736446
-0.000173935
0.00740604
-0.000167098
0.00744522
-0.000159112
0.00748183
-0.000149955
0.00751574
-0.000140303
0.00754685
-0.00012994
0.00757511
-0.000119079
0.0076005
-0.000107617
0.00762305
-9.59192e-05
0.00764284
-8.4419e-05
0.00766
-7.31991e-05
0.00767469
-6.24944e-05
0.00768713
-5.26939e-05
0.00769753
-4.34434e-05
0.00770612
-3.5535e-05
0.00771308
-2.87919e-05
0.00771856
-2.28978e-05
0.00772274
-1.76099e-05
0.00772579
-1.31778e-05
0.00772791
-8.98096e-06
0.00772932
-5.83582e-06
0.00773018
-3.8834e-06
0.00773066
-1.99856e-06
0.0077309
-1.19799e-06
0.00773096
-1.28275e-07
0.00773093
9.69729e-08
0.00773084
3.82598e-07
0.00773071
3.37681e-07
0.00773056
4.89763e-07
0.00773042
4.2598e-07
0.00773026
5.13198e-07
0.00773011
3.90762e-07
0.00772995
4.50445e-07
0.00772979
3.86833e-07
0.00772963
4.85061e-07
0.00772947
4.06673e-07
0.00772932
3.97271e-07
8.24003e-08
0.00977742
0.00444046
0.00951399
0.00222011
0.00920569
0.00158297
0.00894539
0.0010943
0.00874722
0.000775573
0.0085973
0.000574374
0.00848145
0.000442656
0.00838959
0.000352375
0.00831504
0.000287694
0.00825334
0.000239512
0.00820147
0.000202435
0.00815732
0.000173137
0.00811934
0.000149469
0.00808641
0.000130017
0.00805764
0.000113824
0.00803233
0.000100342
0.00800984
8.93241e-05
0.00798959
8.07758e-05
0.00797101
7.48042e-05
0.00795366
7.12314e-05
0.00793732
6.93742e-05
0.00792211
6.77622e-05
0.00790861
6.43505e-05
0.00789783
5.67539e-05
0.0078911
4.29833e-05
0.00788985
2.18318e-05
0.00789537
-6.70452e-06
0.0079086
-4.13335e-05
0.00793
-7.98115e-05
0.0079595
-0.000119092
0.00799635
-0.000155726
0.00803925
-0.000186587
0.00808656
-0.000209646
0.00813648
-0.000224402
0.00818737
-0.000231408
0.00823786
-0.000232124
0.00828692
-0.000228018
0.00833386
-0.000220862
0.00837824
-0.000211464
0.00841979
-0.000200664
0.00845839
-0.000188522
0.00849394
-0.000175839
0.00852642
-0.00016241
0.00855584
-0.000148499
0.00858224
-0.000134015
0.00860572
-0.000119374
0.00862637
-0.000105062
0.00864434
-9.1176e-05
0.00865982
-7.79775e-05
0.008673
-6.58848e-05
0.00868408
-5.45051e-05
0.00869326
-4.46874e-05
0.00870071
-3.6225e-05
0.00870659
-2.8773e-05
0.00871106
-2.20885e-05
0.00871432
-1.64615e-05
0.00871659
-1.12416e-05
0.00871809
-7.31583e-06
0.00871902
-4.82408e-06
0.00871955
-2.51367e-06
0.00871981
-1.47588e-06
0.0087199
-1.99453e-07
0.00871988
1.08953e-07
0.0087198
4.58731e-07
0.00871968
4.29486e-07
0.00871955
6.05893e-07
0.00871941
5.38882e-07
0.00871927
6.38857e-07
0.00871912
5.11348e-07
0.00871896
5.84292e-07
0.0087188
5.20284e-07
0.00871863
6.31354e-07
0.00871847
5.43916e-07
0.00871831
5.26851e-07
1.20975e-07
0.0108418
0.0045325
0.0106586
0.00240329
0.0103907
0.00185088
0.0101252
0.00135979
0.00990487
0.000995896
0.00973121
0.000748041
0.00959448
0.000579385
0.00948519
0.000461661
0.00939622
0.000376662
0.00932255
0.000313183
0.00926065
0.000264339
0.00920799
0.000225792
0.00916275
0.000194711
0.00912355
0.000169217
0.00908934
0.00014804
0.00905925
0.000130429
0.00903256
0.000116017
0.00900859
0.000104741
0.00898676
9.66396e-05
0.0089666
9.13629e-05
0.00894795
8.80444e-05
0.00893102
8.46912e-05
0.00891648
7.88959e-05
0.00890541
6.78143e-05
0.00889919
4.92166e-05
0.0088992
2.18239e-05
0.00890663
-1.41381e-05
0.00892232
-5.69942e-05
0.00894662
-0.000104139
0.00897935
-0.000151821
0.00901971
-0.000196073
0.00906631
-0.000233189
0.00911743
-0.000260754
0.00917117
-0.000278128
0.00922572
-0.000285951
0.00927958
-0.000285982
0.00933164
-0.000280057
0.00938114
-0.000270351
0.00942763
-0.00025795
0.0094709
-0.00024393
0.00951087
-0.000228465
0.00954753
-0.000212486
0.00958093
-0.000195802
0.00961116
-0.000178725
0.00963832
-0.000161167
0.00966253
-0.000143574
0.00968394
-0.000126464
0.00970269
-0.00010993
0.00971896
-9.42452e-05
0.0097329
-7.98427e-05
0.00974471
-6.62944e-05
0.00975454
-5.44924e-05
0.00976254
-4.42101e-05
0.00976886
-3.50913e-05
0.00977367
-2.69072e-05
0.00977718
-1.9993e-05
0.00977964
-1.36856e-05
0.00978126
-8.92541e-06
0.00978228
-5.84861e-06
0.00978286
-3.08941e-06
0.00978317
-1.79146e-06
0.00978328
-3.03518e-07
0.00978329
9.7572e-08
0.00978323
5.14703e-07
0.00978313
5.05666e-07
0.00978302
7.06258e-07
0.0097829
6.39717e-07
0.00978277
7.53895e-07
0.00978262
6.27632e-07
0.00978247
7.1693e-07
0.00978231
6.58968e-07
0.00978214
7.81579e-07
0.00978197
6.89489e-07
0.00978182
6.59901e-07
1.83868e-07
0.0119752
0.00457226
0.0118614
0.00251703
0.0116523
0.00206001
0.0114041
0.00160801
0.0111727
0.00122724
0.0109787
0.000942028
0.0108211
0.000736974
0.0106932
0.000589618
0.0105882
0.000481643
0.0105009
0.000400438
0.0104275
0.000337775
0.010365
0.000288289
0.0103113
0.000248411
0.0102648
0.000215737
0.0102242
0.000188633
0.0101885
0.000166104
0.0101569
0.00014763
0.0101286
0.00013304
0.010103
0.000122264
0.0100796
0.000114774
0.0100583
0.000109313
0.0100394
0.000103591
0.0100236
9.46649e-05
0.0100121
7.93274e-05
0.0100062
5.51155e-05
0.0100072
2.07998e-05
0.0100163
-2.31529e-05
0.010034
-7.47136e-05
0.0100606
-0.000130749
0.0100959
-0.0001871
0.010139
-0.000239148
0.0101884
-0.00028266
0.0102425
-0.000314819
0.0102992
-0.000334802
0.0103566
-0.000343308
0.010413
-0.000342391
0.0104672
-0.000334289
0.0105185
-0.000321631
0.0105664
-0.000305839
0.0106108
-0.000288266
0.0106515
-0.000269224
0.0106889
-0.000249781
0.0107228
-0.000229761
0.0107536
-0.000209507
0.0107814
-0.000188917
0.0108062
-0.000168445
0.0108284
-0.000148617
0.010848
-0.000129505
0.0108651
-0.000111377
0.0108799
-9.46697e-05
0.0108926
-7.89172e-05
0.0109031
-6.50558e-05
0.0109118
-5.28504e-05
0.0109187
-4.19473e-05
0.0109239
-3.21489e-05
0.0109277
-2.38428e-05
0.0109304
-1.63635e-05
0.0109322
-1.07009e-05
0.0109333
-6.98762e-06
0.010934
-3.74427e-06
0.0109344
-2.16298e-06
0.0109345
-4.49507e-07
0.0109346
5.33118e-08
0.0109345
5.42676e-07
0.0109345
5.57436e-07
0.0109344
7.84369e-07
0.0109343
7.20096e-07
0.0109341
8.52382e-07
0.010934
7.32698e-07
0.0109339
8.44096e-07
0.0109337
7.94999e-07
0.0109335
9.32973e-07
0.0109334
8.34285e-07
0.0109332
7.93479e-07
2.24001e-07
0.0131983
0.00457685
0.0131373
0.00257801
0.0129915
0.0022058
0.0127826
0.00181691
0.0125574
0.00145244
0.0123512
0.00114828
0.0121753
0.000912856
0.0120287
0.000736237
0.0119066
0.000603682
0.0118044
0.000502681
0.011718
0.000424208
0.0116442
0.00036203
0.0115808
0.000311858
0.0115258
0.000270743
0.0114778
0.000236649
0.0114356
0.000208303
0.0113982
0.000184993
0.0113648
0.0001664
0.0113348
0.000152303
0.0113076
0.000141907
0.0112833
0.000133703
0.011262
0.000124824
0.0112447
0.000111987
0.0112325
9.1597e-05
0.0112265
6.10631e-05
0.0112281
1.92022e-05
0.0112382
-3.32075e-05
0.0112572
-9.37337e-05
0.0112854
-0.000158931
0.0113223
-0.000224011
0.0113671
-0.000283934
0.0114183
-0.000333924
0.0114743
-0.000370745
0.0115328
-0.000393349
0.011592
-0.00040245
0.01165
-0.000400387
0.0117055
-0.000389827
0.0117578
-0.000373904
0.0118064
-0.000354431
0.0118512
-0.00033308
0.0118924
-0.000310328
0.01193
-0.000287373
0.0119643
-0.000264046
0.0119955
-0.000240703
0.0120238
-0.000217211
0.0120493
-0.000194007
0.0120723
-0.000171599
0.0120928
-0.00015002
0.012111
-0.00012952
0.0121268
-0.000110526
0.0121405
-9.25444e-05
0.012152
-7.65459e-05
0.0121614
-6.23009e-05
0.012169
-4.9477e-05
0.0121747
-3.79264e-05
0.012179
-2.80984e-05
0.012182
-1.93449e-05
0.012184
-1.2694e-05
0.0121853
-8.27451e-06
0.012186
-4.50383e-06
0.0121865
-2.60407e-06
0.0121867
-6.49858e-07
0.0121867
-3.07463e-08
0.0121868
5.37966e-07
0.0121867
5.82658e-07
0.0121866
8.37645e-07
0.0121866
7.80055e-07
0.0121865
9.33097e-07
0.0121864
8.2664e-07
0.0121862
9.64272e-07
0.0121861
9.31014e-07
0.0121859
1.08401e-06
0.0121857
9.83412e-07
0.0121856
9.26864e-07
2.8783e-07
0.0145294
0.00455582
0.0145054
0.00260198
0.0144157
0.00229555
0.0142598
0.00197281
0.0140612
0.00165105
0.0138564
0.00135304
0.0136688
0.00110045
0.0135058
0.000899215
0.0133669
0.000742608
0.0132489
0.000620718
0.0131482
0.000524838
0.0130619
0.000448331
0.0129874
0.000386358
0.0129227
0.000335469
0.0128661
0.000293229
0.0128164
0.000258064
0.0127723
0.000229041
0.0127331
0.000205655
0.0126979
0.000187493
0.0126663
0.000173497
0.0126383
0.000161686
0.0126142
0.000148896
0.0125949
0.000131335
0.0125813
0.000105135
0.0125748
6.75875e-05
0.0125763
1.76716e-05
0.0125867
-4.35385e-05
0.0126062
-0.000113258
0.0126348
-0.000187561
0.0126722
-0.000261396
0.0127175
-0.000329174
0.0127692
-0.000385662
0.0128257
-0.000427202
0.0128848
-0.00045248
0.0129446
-0.000462175
0.0130031
-0.000458884
0.013059
-0.000445721
0.0131114
-0.000426363
0.0131601
-0.000403066
0.0132049
-0.000377857
0.013246
-0.000351393
0.0132836
-0.000325001
0.0133181
-0.000298507
0.0133496
-0.00027226
0.0133785
-0.000246076
0.0134048
-0.000220348
0.0134288
-0.000195547
0.0134504
-0.000171649
0.0134698
-0.000148873
0.0134869
-0.00012763
0.0135017
-0.000107394
0.0135144
-8.91745e-05
0.0135249
-7.27601e-05
0.0135332
-5.78564e-05
0.0135397
-4.43874e-05
0.0135445
-3.28788e-05
0.0135478
-2.27153e-05
0.0135501
-1.49647e-05
0.0135516
-9.7543e-06
0.0135525
-5.39518e-06
0.013553
-3.13683e-06
0.0135533
-9.15041e-07
0.0135534
-1.63239e-07
0.0135535
4.94904e-07
0.0135534
5.75801e-07
0.0135534
8.63039e-07
0.0135534
8.1459e-07
0.0135533
9.93048e-07
0.0135532
9.05176e-07
0.0135531
1.07527e-06
0.0135529
1.06084e-06
0.0135527
1.23355e-06
0.0135526
1.12934e-06
0.0135524
1.05923e-06
3.26508e-07
0.0159844
0.00451431
0.0159863
0.00260011
0.0159396
0.0023422
0.015838
0.00207444
0.0156829
0.00180617
0.0154978
0.00153813
0.0153103
0.00128793
0.015137
0.00107256
0.0149835
0.000896028
0.0148502
0.00075409
0.0147348
0.000640182
0.014635
0.000548164
0.0145483
0.000473063
0.0144726
0.000411111
0.0144063
0.000359539
0.0143479
0.00031649
0.0142962
0.000280794
0.0142501
0.000251736
0.0142089
0.000228672
0.0141722
0.000210196
0.0141398
0.000194046
0.0141123
0.000176449
0.0140903
0.000153355
0.0140748
0.000120596
0.0140669
7.5464e-05
0.0140675
1.70647e-05
0.0140772
-5.31759e-05
0.014096
-0.000132076
0.0141239
-0.000215502
0.0141604
-0.000297885
0.0142047
-0.000373388
0.0142553
-0.000436329
0.0143108
-0.000482643
0.014369
-0.000510713
0.014428
-0.000521127
0.0144858
-0.000516698
0.0145411
-0.000500977
0.0145929
-0.000478208
0.014641
-0.000451126
0.0146853
-0.000422142
0.014726
-0.000392112
0.0147635
-0.00036248
0.0147981
-0.00033306
0.01483
-0.000304176
0.0148595
-0.000275576
0.0148867
-0.000247589
0.0149118
-0.000220627
0.0149348
-0.000194596
0.0149556
-0.000169671
0.0149742
-0.000146235
0.0149905
-0.000123733
0.0150046
-0.000103206
0.0150163
-8.44741e-05
0.0150257
-6.73021e-05
0.0150331
-5.17113e-05
0.0150385
-3.83232e-05
0.0150424
-2.65816e-05
0.015045
-1.75902e-05
0.0150467
-1.14772e-05
0.0150478
-6.45404e-06
0.0150484
-3.78048e-06
0.0150488
-1.25979e-06
0.015049
-3.51284e-07
0.015049
4.09948e-07
0.0150491
5.36519e-07
0.0150491
8.60111e-07
0.015049
8.25917e-07
0.015049
1.0329e-06
0.0150489
9.69813e-07
0.0150488
1.17656e-06
0.0150486
1.18795e-06
0.0150485
1.3807e-06
0.0150483
1.27829e-06
0.0150482
1.19075e-06
3.91415e-07
0.0175785
0.00445507
0.0175995
0.00257919
0.0175837
0.00235791
0.0175281
0.00213005
0.0174232
0.00191109
0.0172751
0.00168623
0.0171043
0.00145878
0.0169315
0.00124532
0.0167696
0.00105797
0.0166236
0.000900059
0.0164944
0.000769373
0.0163809
0.000661687
0.0162813
0.000572669
0.0161938
0.000498623
0.0161167
0.000436638
0.0160485
0.000384655
0.015988
0.000341298
0.0159341
0.000305634
0.015886
0.000276768
0.0158432
0.000252977
0.0158058
0.000231489
0.015774
0.000208278
0.0157485
0.000178842
0.0157302
0.000138854
0.0157201
8.56022e-05
0.0157187
1.8426e-05
0.0157265
-6.09449e-05
0.0157434
-0.000148997
0.0157691
-0.000241198
0.0158031
-0.000331905
0.0158446
-0.000414898
0.0158925
-0.000484182
0.0159452
-0.000535322
0.0160009
-0.000566383
0.0160575
-0.000577801
0.0161134
-0.000572537
0.016167
-0.000554541
0.0162174
-0.000528617
0.0162643
-0.000497997
0.0163076
-0.0004655
0.0163477
-0.00043219
0.0163849
-0.000399633
0.0164195
-0.000367623
0.0164517
-0.000336447
0.0164819
-0.000305771
0.0165102
-0.000275843
0.0165366
-0.000247004
0.0165611
-0.000219071
0.0165836
-0.000192163
0.0166039
-0.000166621
0.0166221
-0.000141856
0.0166378
-0.000118938
0.0166511
-9.77286e-05
0.0166619
-7.80714e-05
0.0166703
-6.01162e-05
0.0166765
-4.46064e-05
0.016681
-3.10718e-05
0.0166841
-2.06608e-05
0.0166861
-1.35083e-05
0.0166874
-7.72055e-06
0.0166882
-4.5646e-06
0.0166886
-1.69878e-06
0.0166889
-6.05087e-07
0.016689
2.77547e-07
0.0166891
4.60575e-07
0.0166891
8.27559e-07
0.0166891
8.10834e-07
0.0166891
1.05131e-06
0.016689
1.01771e-06
0.0166889
1.26704e-06
0.0166887
1.30692e-06
0.0166886
1.52514e-06
0.0166884
1.42329e-06
0.0166883
1.3218e-06
4.29042e-07
0.0193271
0.0043795
0.0193633
0.00254302
0.0193699
0.00235126
0.0193491
0.00215085
0.0192904
0.00196984
0.0191886
0.00178799
0.0190512
0.00159619
0.0188945
0.00140199
0.0187348
0.00121769
0.0185826
0.00105227
0.0184429
0.000909104
0.0183171
0.00078749
0.0182048
0.000684886
0.0181051
0.000598355
0.0180165
0.000525226
0.0179377
0.00046344
0.0178675
0.000411507
0.0178048
0.000368317
0.0177489
0.000332729
0.0176992
0.000302648
0.0176557
0.00027504
0.0176186
0.000245294
0.0175887
0.000208754
0.0175667
0.000160901
0.0175532
9.91425e-05
0.0175486
2.29851e-05
0.0175531
-6.55018e-05
0.0175666
-0.00016243
0.0175886
-0.000263177
0.0176184
-0.000361736
0.0176554
-0.000451868
0.0176985
-0.000527308
0.0177465
-0.00058332
0.0177978
-0.00061765
0.0178505
-0.000630528
0.017903
-0.000624972
0.0179537
-0.000605253
0.0180018
-0.00057669
0.0180468
-0.000543011
0.0180887
-0.000507448
0.0181279
-0.000471296
0.0181645
-0.000436243
0.0181989
-0.000402067
0.0182315
-0.000369015
0.0182624
-0.000336669
0.0182918
-0.00030518
0.0183196
-0.000274803
0.0183458
-0.000245255
0.0183702
-0.000216583
0.0183926
-0.000189069
0.0184129
-0.000162084
0.0184306
-0.000136707
0.0184458
-0.000112851
0.0184582
-9.04631e-05
0.0184679
-6.98559e-05
0.0184752
-5.19295e-05
0.0184805
-3.63407e-05
0.0184841
-2.42886e-05
0.0184865
-1.59219e-05
0.0184881
-9.24627e-06
0.018489
-5.51832e-06
0.0184896
-2.25245e-06
0.0184899
-9.34681e-07
0.0184901
9.302e-08
0.0184902
3.47575e-07
0.0184902
7.65489e-07
0.0184903
7.7238e-07
0.0184902
1.04969e-06
0.0184902
1.05088e-06
0.0184901
1.3464e-06
0.01849
1.42134e-06
0.0184898
1.66589e-06
0.0184897
1.57086e-06
0.0184895
1.45268e-06
4.95351e-07
0.0212463
0.00428824
0.0212957
0.00249367
0.0213195
0.00232744
0.0213242
0.00214616
0.0213021
0.00199196
0.0212453
0.00184475
0.0211515
0.00169
0.021027
0.00152649
0.0208846
0.00136012
0.0207372
0.00119968
0.020594
0.0010523
0.02046
0.000921465
0.0203373
0.000807587
0.0202262
0.000709438
0.0201262
0.000625208
0.0200364
0.00055321
0.0199559
0.000492058
0.0198836
0.00044057
0.019819
0.000397424
0.0197614
0.000360247
0.0197109
0.000325521
0.0196677
0.00028849
0.0196323
0.000244139
0.0196053
0.000187904
0.0195871
0.000117296
0.019578
3.21e-05
0.0195779
-6.53616e-05
0.0195863
-0.00017091
0.0196028
-0.000279591
0.0196266
-0.000385541
0.0196571
-0.00048235
0.0196934
-0.000563671
0.0197347
-0.000624566
0.0197796
-0.000662504
0.0198265
-0.000677453
0.0198739
-0.000672386
0.0199205
-0.000651775
0.0199651
-0.000621369
0.0200075
-0.000585352
0.0200474
-0.000547374
0.0200851
-0.000508971
0.0201209
-0.000471971
0.020155
-0.00043615
0.0201877
-0.000401719
0.0202192
-0.000368176
0.0202496
-0.000335572
0.0202788
-0.000304069
0.0203069
-0.000273266
0.0203334
-0.000243125
0.0203582
-0.000213844
0.0203808
-0.000184731
0.020401
-0.000156862
0.0204184
-0.0001302
0.0204327
-0.000104814
0.0204441
-8.12256e-05
0.0204527
-6.0534e-05
0.0204589
-4.25696e-05
0.0204632
-2.86032e-05
0.0204661
-1.88109e-05
0.020468
-1.109e-05
0.0204691
-6.68322e-06
0.0204698
-2.94284e-06
0.0204702
-1.35446e-06
0.0204705
-1.5115e-07
0.0204706
1.92735e-07
0.0204707
6.72871e-07
0.0204707
7.079e-07
0.0204707
1.02733e-06
0.0204707
1.06702e-06
0.0204706
1.41389e-06
0.0204705
1.52582e-06
0.0204704
1.80266e-06
0.0204702
1.71383e-06
0.0204701
1.58398e-06
5.33194e-07
0.0233536
0.00418142
0.0234151
0.0024322
0.0234532
0.00228933
0.0234772
0.00212213
0.0234826
0.00198665
0.0234628
0.00186449
0.0234125
0.0017403
0.02333
0.00160898
0.0232201
0.00147005
0.0230924
0.00132737
0.0229574
0.00118727
0.0228234
0.00105552
0.0226954
0.000935614
0.022576
0.000828821
0.0224662
0.000734959
0.0223661
0.000653282
0.0222753
0.00058287
0.0221932
0.000522701
0.0221192
0.000471406
0.022053
0.00042636
0.0219947
0.000383924
0.0219444
0.000338835
0.0219024
0.000286085
0.0218693
0.000221034
0.0218452
0.000141416
0.02183
4.72197e-05
0.0218236
-5.8963e-05
0.0218254
-0.00017263
0.0218346
-0.000288818
0.0218505
-0.000401447
0.0218725
-0.00050435
0.0219
-0.000591166
0.0219323
-0.000656889
0.0219686
-0.000698774
0.0220077
-0.000716514
0.0220482
-0.000712921
0.022089
-0.000692516
0.022129
-0.000661345
0.0221676
-0.000623974
0.0222047
-0.000584445
0.0222403
-0.000544557
0.0222746
-0.000506292
0.0223079
-0.000469451
0.0223404
-0.000434226
0.0223723
-0.000400044
0.0224036
-0.000366856
0.0224343
-0.000334723
0.0224641
-0.00030312
0.0224929
-0.000271899
0.0225202
-0.000241149
0.0225456
-0.00021009
0.0225685
-0.000179755
0.0225884
-0.000150153
0.0226051
-0.000121493
0.0226184
-9.45531e-05
0.0226286
-7.06885e-05
0.022636
-4.99688e-05
0.0226411
-3.37588e-05
0.0226446
-2.22796e-05
0.0226468
-1.33237e-05
0.0226483
-8.10185e-06
0.0226491
-3.79876e-06
0.0226497
-1.87948e-06
0.02265
-4.62364e-07
0.0226501
-5.64626e-09
0.0226503
5.49414e-07
0.0226503
6.20493e-07
0.0226504
9.85892e-07
0.0226503
1.06826e-06
0.0226503
1.46914e-06
0.0226502
1.62372e-06
0.02265
1.93397e-06
0.0226499
1.85845e-06
0.0226497
1.7155e-06
6.02894e-07
0.025668
0.00405883
0.0257411
0.00235909
0.025792
0.00223841
0.0258318
0.00208234
0.025858
0.00196046
0.0258665
0.001856
0.0258526
0.00175413
0.0258122
0.00164946
0.0257435
0.00153871
0.0256497
0.00142114
0.0255378
0.00129914
0.0254163
0.0011771
0.0252923
0.0010596
0.0251711
0.000950022
0.0250558
0.000850248
0.024948
0.000761049
0.0248484
0.000682477
0.0247571
0.000614029
0.024674
0.000554543
0.0245989
0.00050139
0.0245322
0.000450639
0.024474
0.000397097
0.0244245
0.000335552
0.0243841
0.00026146
0.0243527
0.000172754
0.0243302
6.97743e-05
0.0243159
-4.47397e-05
0.0243094
-0.00016608
0.0243095
-0.000288948
0.0243157
-0.000407596
0.0243272
-0.000515897
0.0243438
-0.000607692
0.0243649
-0.000678059
0.0243903
-0.000724162
0.0244193
-0.000745436
0.0244508
-0.000744434
0.0244838
-0.000725556
0.0245175
-0.000694965
0.024551
-0.000657491
0.0245841
-0.000617518
0.0246167
-0.000577102
0.0246488
-0.000538411
0.0246806
-0.000501302
0.0247124
-0.000465976
0.0247442
-0.000431811
0.024776
-0.000398665
0.0248078
-0.000366505
0.0248393
-0.000334669
0.0248703
-0.000302883
0.0249002
-0.00027109
0.0249285
-0.000238378
0.0249545
-0.000205696
0.0249774
-0.000173078
0.0249968
-0.00014088
0.0250125
-0.000110192
0.0250244
-8.26937e-05
0.0250333
-5.87706e-05
0.0250394
-3.9925e-05
0.0250436
-2.64496e-05
0.0250463
-1.60263e-05
0.025048
-9.82885e-06
0.0250491
-4.8508e-06
0.0250497
-2.52926e-06
0.0250501
-8.51013e-07
0.0250504
-2.53532e-07
0.0250505
3.93804e-07
0.0250506
5.07708e-07
0.0250506
9.25087e-07
0.0250506
1.05278e-06
0.0250506
1.51166e-06
0.0250505
1.7096e-06
0.0250503
2.05936e-06
0.0250502
1.99686e-06
0.02505
1.84755e-06
6.42431e-07
0.02821
0.00392003
0.0282946
0.00227448
0.0283577
0.0021753
0.0284114
0.00202872
0.0284545
0.00191736
0.0284846
0.00182582
0.028499
0.00173975
0.0284939
0.00165457
0.0284658
0.00156684
0.0284129
0.00147398
0.0283369
0.00137516
0.0282424
0.0012716
0.0281359
0.00116612
0.0280237
0.00106222
0.0279109
0.000962995
0.0278012
0.000870797
0.0276967
0.000787006
0.0275986
0.000712056
0.0275078
0.000645337
0.0274247
0.000584417
0.0273498
0.000525633
0.0272834
0.000463517
0.0272258
0.000393133
0.0271772
0.000310021
0.0271376
0.000212447
0.0271063
0.000101054
0.0270828
-2.12516e-05
0.0270663
-0.00014954
0.0270558
-0.000278503
0.0270505
-0.000402259
0.0270497
-0.000515141
0.0270533
-0.000611246
0.0270611
-0.0006859
0.0270733
-0.000736325
0.0270897
-0.000761778
0.0271097
-0.000764501
0.0271328
-0.000748607
0.027158
-0.000720165
0.0271846
-0.000684099
0.0272122
-0.000645037
0.0272404
-0.000605278
0.0272691
-0.000567183
0.0272986
-0.000530711
0.0273287
-0.000496105
0.0273596
-0.000462731
0.0273913
-0.00043037
0.0274237
-0.000398906
0.0274566
-0.000367537
0.0274896
-0.000335849
0.0275221
-0.000303594
0.0275534
-0.000269685
0.0275826
-0.000234913
0.0276089
-0.000199296
0.0276313
-0.000163336
0.0276496
-0.000128495
0.0276638
-9.68532e-05
0.0276742
-6.92205e-05
0.0276816
-4.72845e-05
0.0276866
-3.14468e-05
0.0276898
-1.92845e-05
0.0276919
-1.1917e-05
0.0276932
-6.13431e-06
0.027694
-3.32301e-06
0.0276945
-1.32688e-06
0.0276948
-5.54002e-07
0.0276949
2.05308e-07
0.0276951
3.72611e-07
0.0276951
8.4683e-07
0.0276951
1.02294e-06
0.0276951
1.54119e-06
0.027695
1.78662e-06
0.0276949
2.17675e-06
0.0276947
2.13478e-06
0.0276946
1.97909e-06
7.16611e-07
0.0310025
0.00376437
0.0310986
0.00217832
0.0311738
0.00210012
0.0312404
0.00196216
0.0312982
0.00185951
0.0313461
0.00177799
0.0313824
0.00170341
0.0314049
0.00163208
0.0314106
0.00156113
0.0313966
0.00148794
0.0313612
0.00141063
0.0313045
0.00132832
0.0312292
0.00124137
0.03114
0.00115142
0.0310421
0.00106093
0.0309402
0.000972646
0.0308383
0.000888948
0.030739
0.000811302
0.0306444
0.000739945
0.0305558
0.000673047
0.0304743
0.000607136
0.0304006
0.000537265
0.0303351
0.000458594
0.0302781
0.000366998
0.0302295
0.000261069
0.0301886
0.000141947
0.0301547
1.26264e-05
0.0301271
-0.000121888
0.0301045
-0.000255902
0.0300862
-0.000383931
0.0300715
-0.000500471
0.0300603