/*--------------------------------*- C++ -*----------------------------------*\
  =========                 |
  \\      /  F ield         | OpenFOAM: The Open Source CFD Toolbox
   \\    /   O peration     | Website:  https://openfoam.org
    \\  /    A nd           | Version:  7
     \\/     M anipulation  |
\*---------------------------------------------------------------------------*/
FoamFile
{
    version     2.0;
    format      ascii;
    class       volVectorField;
    location    "350";
    object      U;
}
// * * * * * * * * * * * * * * * * * * * * * * * * * * * * * * * * * * * * * //

dimensions      [0 1 -1 0 0 0 0];

internalField   nonuniform List<vector> 
4500
(
(15.4058 -0.778201 0)
(13.7077 -0.0619025 0)
(13.0325 -0.00325617 0)
(12.6708 0.000464973 0)
(12.4331 0.000501414 0)
(12.2594 0.000386166 0)
(12.125 0.000303733 0)
(12.0172 0.000246404 0)
(11.9286 0.000204472 0)
(11.8542 0.000172521 0)
(11.7911 0.000147403 0)
(11.7368 0.000127174 0)
(11.6898 0.000110541 0)
(11.6488 9.66746e-05 0)
(11.6128 8.48694e-05 0)
(11.5812 7.48757e-05 0)
(11.5531 6.66096e-05 0)
(11.5279 6.01607e-05 0)
(11.5048 5.58105e-05 0)
(11.4827 5.39795e-05 0)
(11.4608 5.43574e-05 0)
(11.4383 5.69236e-05 0)
(11.4149 6.00835e-05 0)
(11.3912 6.17864e-05 0)
(11.3689 5.95113e-05 0)
(11.3503 5.14094e-05 0)
(11.3384 3.51511e-05 0)
(11.3365 1.03825e-05 0)
(11.3473 -2.10613e-05 0)
(11.3723 -5.70908e-05 0)
(11.4119 -9.41893e-05 0)
(11.4651 -0.000128424 0)
(11.5295 -0.000156726 0)
(11.6021 -0.000177776 0)
(11.6798 -0.000191326 0)
(11.76 -0.000198491 0)
(11.8407 -0.000199828 0)
(11.9204 -0.000198499 0)
(11.9982 -0.000194387 0)
(12.0734 -0.000188971 0)
(12.1454 -0.000180402 0)
(12.2139 -0.00017223 0)
(12.2783 -0.000162808 0)
(12.3383 -0.000152662 0)
(12.3934 -0.000140119 0)
(12.4434 -0.000126371 0)
(12.488 -0.000113121 0)
(12.5271 -9.96184e-05 0)
(12.5607 -8.57339e-05 0)
(12.5891 -7.30095e-05 0)
(12.6127 -5.84651e-05 0)
(12.632 -4.69642e-05 0)
(12.6477 -3.878e-05 0)
(12.6602 -3.25742e-05 0)
(12.67 -2.64721e-05 0)
(12.6775 -2.20986e-05 0)
(12.6829 -1.47307e-05 0)
(12.6866 -9.31398e-06 0)
(12.689 -7.72636e-06 0)
(12.6905 -3.71066e-06 0)
(12.6913 -3.4462e-06 0)
(12.6916 -3.52799e-07 0)
(12.6916 -5.60814e-07 0)
(12.6915 -5.4476e-08 0)
(12.6912 -8.17787e-07 0)
(12.6909 -3.14947e-07 0)
(12.6905 -6.2692e-07 0)
(12.6902 -1.74155e-07 0)
(12.6898 -8.27639e-07 0)
(12.6895 -5.86678e-07 0)
(12.6891 -9.39864e-07 0)
(12.6888 -5.17529e-07 0)
(12.6885 -8.14596e-07 0)
(12.6882 -9.96778e-07 0)
(12.6879 -8.16161e-07 0)
(17.5879 0.16307 0)
(16.0152 0.0238108 0)
(15.1976 0.00458794 0)
(14.7348 0.00198897 0)
(14.4341 0.00129706 0)
(14.2183 0.000960535 0)
(14.0538 0.000751457 0)
(13.9232 0.000608022 0)
(13.8165 0.00050357 0)
(13.7275 0.000424234 0)
(13.6522 0.000362026 0)
(13.5878 0.00031203 0)
(13.532 0.000271014 0)
(13.4835 0.000236859 0)
(13.441 0.000207956 0)
(13.4036 0.000183601 0)
(13.3705 0.000163583 0)
(13.3407 0.000148194 0)
(13.3134 0.000138144 0)
(13.2874 0.000134128 0)
(13.2617 0.000135085 0)
(13.2355 0.000140034 0)
(13.2087 0.000144455 0)
(13.1822 0.0001431 0)
(13.1581 0.000130101 0)
(13.1391 0.000101334 0)
(13.1288 5.32733e-05 0)
(13.1306 -1.34074e-05 0)
(13.1472 -9.37056e-05 0)
(13.1802 -0.000181826 0)
(13.2296 -0.000268878 0)
(13.2939 -0.000346223 0)
(13.3702 -0.000407661 0)
(13.4551 -0.000451012 0)
(13.5452 -0.00047674 0)
(13.6376 -0.000487962 0)
(13.73 -0.000487085 0)
(13.8209 -0.00047983 0)
(13.9093 -0.000466785 0)
(13.9943 -0.00045056 0)
(14.0755 -0.000428881 0)
(14.1522 -0.000406813 0)
(14.2241 -0.000381879 0)
(14.2907 -0.000355004 0)
(14.3517 -0.000324061 0)
(14.4066 -0.000291055 0)
(14.4554 -0.000258543 0)
(14.498 -0.000225794 0)
(14.5346 -0.000193193 0)
(14.5654 -0.00016325 0)
(14.5911 -0.000132165 0)
(14.6122 -0.000106881 0)
(14.6294 -8.72164e-05 0)
(14.6431 -7.11094e-05 0)
(14.6538 -5.60588e-05 0)
(14.6619 -4.43518e-05 0)
(14.6677 -2.96153e-05 0)
(14.6717 -1.89291e-05 0)
(14.6743 -1.42875e-05 0)
(14.6758 -6.90203e-06 0)
(14.6766 -5.48511e-06 0)
(14.6769 -3.77968e-07 0)
(14.6769 -3.6285e-07 0)
(14.6767 6.64264e-07 0)
(14.6764 -2.35199e-07 0)
(14.676 5.96301e-07 0)
(14.6756 1.29465e-07 0)
(14.6753 7.59016e-07 0)
(14.6749 -1.83868e-07 0)
(14.6745 1.80596e-07 0)
(14.6741 -3.35289e-07 0)
(14.6737 2.78022e-07 0)
(14.6734 -1.90383e-07 0)
(14.673 -4.13529e-07 0)
(14.6727 -7.80216e-07 0)
(18.7449 0.0973745 0)
(17.3725 0.0156216 0)
(16.4743 0.00605633 0)
(15.9331 0.0035003 0)
(15.5795 0.00236972 0)
(15.3279 0.00174955 0)
(15.138 0.0013608 0)
(14.9886 0.00109591 0)
(14.8673 0.000904478 0)
(14.7668 0.000759988 0)
(14.6821 0.000647258 0)
(14.6098 0.000557019 0)
(14.5474 0.00048324 0)
(14.4932 0.000421968 0)
(14.4459 0.000370331 0)
(14.4042 0.000326977 0)
(14.3673 0.000291496 0)
(14.3342 0.000264392 0)
(14.3038 0.000246808 0)
(14.275 0.000239492 0)
(14.2468 0.000240451 0)
(14.2185 0.000246687 0)
(14.1901 0.000250107 0)
(14.1629 0.000241244 0)
(14.1391 0.000210338 0)
(14.1217 0.000150638 0)
(14.1144 5.81531e-05 0)
(14.1205 -6.42703e-05 0)
(14.1425 -0.000207719 0)
(14.1817 -0.000360966 0)
(14.238 -0.000508864 0)
(14.3093 -0.000637349 0)
(14.3927 -0.000736975 0)
(14.4846 -0.000805009 0)
(14.5814 -0.000843133 0)
(14.6801 -0.000857018 0)
(14.7783 -0.000851326 0)
(14.8746 -0.00083478 0)
(14.9677 -0.00080884 0)
(15.0568 -0.000777417 0)
(15.1415 -0.000737765 0)
(15.2212 -0.000696703 0)
(15.2955 -0.00065097 0)
(15.364 -0.000601991 0)
(15.4263 -0.000547217 0)
(15.4823 -0.000489648 0)
(15.5319 -0.000432955 0)
(15.5751 -0.000376543 0)
(15.6121 -0.000321348 0)
(15.6434 -0.000270908 0)
(15.6695 -0.000220357 0)
(15.691 -0.000178742 0)
(15.7086 -0.000145392 0)
(15.7227 -0.000117393 0)
(15.7336 -9.15381e-05 0)
(15.7419 -7.09199e-05 0)
(15.7477 -4.73762e-05 0)
(15.7517 -3.02773e-05 0)
(15.7542 -2.19165e-05 0)
(15.7557 -1.06279e-05 0)
(15.7565 -7.77366e-06 0)
(15.7568 -3.85166e-07 0)
(15.7568 -2.30983e-08 0)
(15.7566 1.57491e-06 0)
(15.7563 5.1521e-07 0)
(15.7559 1.67788e-06 0)
(15.7555 1.05013e-06 0)
(15.7551 1.86571e-06 0)
(15.7547 6.02577e-07 0)
(15.7543 1.08537e-06 0)
(15.754 4.0154e-07 0)
(15.7536 1.21584e-06 0)
(15.7532 5.79722e-07 0)
(15.7528 2.8188e-07 0)
(15.7525 -5.95465e-07 0)
(19.3754 0.0462246 0)
(18.326 0.0150408 0)
(17.4307 0.00910098 0)
(16.8356 0.0056441 0)
(16.435 0.00383706 0)
(16.1491 0.00281755 0)
(15.9342 0.00217865 0)
(15.7661 0.00174596 0)
(15.6305 0.00143543 0)
(15.5186 0.00120251 0)
(15.4247 0.00102175 0)
(15.3447 0.000877695 0)
(15.276 0.00076037 0)
(15.2164 0.000663239 0)
(15.1644 0.000581693 0)
(15.1187 0.000513425 0)
(15.0782 0.000457672 0)
(15.0419 0.000415077 0)
(15.0087 0.000387155 0)
(14.9775 0.000374502 0)
(14.9472 0.000373632 0)
(14.9173 0.000378998 0)
(14.8883 0.000378018 0)
(14.8613 0.000356262 0)
(14.839 0.000299591 0)
(14.8243 0.000198588 0)
(14.8208 4.92706e-05 0)
(14.8315 -0.000142664 0)
(14.8587 -0.000363486 0)
(14.9033 -0.000595673 0)
(14.9648 -0.000816716 0)
(15.0413 -0.00100627 0)
(15.1295 -0.00115114 0)
(15.2258 -0.00124786 0)
(15.3265 -0.00129959 0)
(15.4286 -0.00131505 0)
(15.5298 -0.00130182 0)
(15.6284 -0.00127197 0)
(15.7233 -0.00122834 0)
(15.8136 -0.00117638 0)
(15.8989 -0.00111323 0)
(15.9788 -0.00104734 0)
(16.0528 -0.000974942 0)
(16.1206 -0.000898027 0)
(16.1821 -0.000813868 0)
(16.2372 -0.000726468 0)
(16.2858 -0.000640605 0)
(16.3281 -0.000555975 0)
(16.3645 -0.000474134 0)
(16.3953 -0.000399525 0)
(16.4211 -0.000326465 0)
(16.4424 -0.000265603 0)
(16.4599 -0.000215746 0)
(16.4739 -0.000173194 0)
(16.4847 -0.000134194 0)
(16.4928 -0.000102532 0)
(16.4985 -6.87376e-05 0)
(16.5024 -4.40234e-05 0)
(16.5049 -3.08722e-05 0)
(16.5063 -1.51802e-05 0)
(16.5071 -1.03397e-05 0)
(16.5074 -5.61276e-07 0)
(16.5074 4.1015e-07 0)
(16.5072 2.66388e-06 0)
(16.5069 1.58099e-06 0)
(16.5065 3.05839e-06 0)
(16.5061 2.30804e-06 0)
(16.5058 3.27562e-06 0)
(16.5054 1.76059e-06 0)
(16.505 2.34303e-06 0)
(16.5047 1.53197e-06 0)
(16.5043 2.50636e-06 0)
(16.5039 1.73262e-06 0)
(16.5035 1.34222e-06 0)
(16.5032 -2.41789e-07 0)
(19.693 0.0456702 0)
(18.9995 0.0202329 0)
(18.1918 0.0128969 0)
(17.577 0.00823927 0)
(17.1407 0.00564732 0)
(16.8239 0.00414114 0)
(16.5849 0.0031898 0)
(16.3982 0.0025461 0)
(16.2481 0.00208602 0)
(16.1247 0.00174255 0)
(16.0214 0.00147721 0)
(15.9337 0.00126661 0)
(15.8585 0.00109572 0)
(15.7934 0.000954685 0)
(15.7367 0.000836688 0)
(15.6869 0.000738145 0)
(15.6428 0.000657735 0)
(15.6034 0.000596069 0)
(15.5675 0.00055482 0)
(15.5338 0.000534058 0)
(15.5017 0.000528358 0)
(15.4708 0.000528985 0)
(15.4415 0.000518462 0)
(15.4154 0.000477134 0)
(15.395 0.000386629 0)
(15.3833 0.000235332 0)
(15.3837 1.99974e-05 0)
(15.3987 -0.000250309 0)
(15.4302 -0.000556741 0)
(15.4789 -0.000875074 0)
(15.5441 -0.00117529 0)
(15.6238 -0.00143052 0)
(15.7147 -0.00162361 0)
(15.8132 -0.00175021 0)
(15.9156 -0.001815 0)
(16.019 -0.00182993 0)
(16.1208 -0.00180589 0)
(16.2195 -0.0017586 0)
(16.3139 -0.0016927 0)
(16.4032 -0.00161542 0)
(16.487 -0.00152414 0)
(16.5649 -0.00142894 0)
(16.6367 -0.00132576 0)
(16.7023 -0.00121724 0)
(16.7616 -0.00110062 0)
(16.8145 -0.000980837 0)
(16.8612 -0.000863657 0)
(16.9019 -0.00074905 0)
(16.937 -0.000639095 0)
(16.9668 -0.000538939 0)
(16.9919 -0.000442182 0)
(17.0128 -0.000360704 0)
(17.0299 -0.000292835 0)
(17.0436 -0.000234219 0)
(17.0542 -0.000180742 0)
(17.062 -0.000136828 0)
(17.0676 -9.204e-05 0)
(17.0714 -5.9082e-05 0)
(17.0738 -4.05466e-05 0)
(17.0752 -2.02267e-05 0)
(17.0759 -1.3091e-05 0)
(17.0762 -9.17687e-07 0)
(17.0762 8.09953e-07 0)
(17.076 3.75225e-06 0)
(17.0758 2.72875e-06 0)
(17.0755 4.50193e-06 0)
(17.0751 3.66489e-06 0)
(17.0748 4.77035e-06 0)
(17.0745 3.0704e-06 0)
(17.0741 3.75819e-06 0)
(17.0738 2.86812e-06 0)
(17.0734 3.97927e-06 0)
(17.0731 3.0962e-06 0)
(17.0727 2.59106e-06 0)
(17.0724 2.56105e-07 0)
(19.8488 0.0504549 0)
(19.4507 0.0244881 0)
(18.7997 0.0166519 0)
(18.2081 0.0111579 0)
(17.7532 0.00779095 0)
(17.4116 0.00573672 0)
(17.1505 0.00441437 0)
(16.9458 0.00351468 0)
(16.7812 0.00287178 0)
(16.6461 0.00239305 0)
(16.5332 0.00202441 0)
(16.4376 0.0017328 0)
(16.3557 0.00149693 0)
(16.2849 0.00130283 0)
(16.2233 0.00114094 0)
(16.1693 0.00100601 0)
(16.1215 0.000895908 0)
(16.0789 0.000810948 0)
(16.0401 0.000752647 0)
(16.0042 0.000720116 0)
(15.9704 0.000705397 0)
(15.9385 0.000696125 0)
(15.9092 0.000669566 0)
(15.8842 0.00060085 0)
(15.8658 0.00046771 0)
(15.8571 0.000257066 0)
(15.8608 -3.28575e-05 0)
(15.8793 -0.00038923 0)
(15.914 -0.00078781 0)
(15.9653 -0.0011977 0)
(16.0325 -0.00158135 0)
(16.1135 -0.00190537 0)
(16.205 -0.0021485 0)
(16.3037 -0.00230525 0)
(16.4058 -0.00238177 0)
(16.5083 -0.00239335 0)
(16.6088 -0.00235453 0)
(16.7056 -0.00228507 0)
(16.7975 -0.00219188 0)
(16.884 -0.0020843 0)
(16.9646 -0.00196032 0)
(17.0391 -0.00183168 0)
(17.1075 -0.00169429 0)
(17.1697 -0.00155139 0)
(17.2258 -0.00140028 0)
(17.2758 -0.00124668 0)
(17.3201 -0.00109717 0)
(17.3589 -0.000951876 0)
(17.3924 -0.000813231 0)
(17.4211 -0.000686872 0)
(17.4454 -0.00056571 0)
(17.4657 -0.000462626 0)
(17.4823 -0.000375553 0)
(17.4957 -0.000299632 0)
(17.506 -0.000230572 0)
(17.5136 -0.000173418 0)
(17.5191 -0.000117009 0)
(17.5227 -7.52838e-05 0)
(17.5251 -5.09021e-05 0)
(17.5264 -2.57529e-05 0)
(17.5272 -1.60962e-05 0)
(17.5275 -1.50617e-06 0)
(17.5275 1.07709e-06 0)
(17.5274 4.73223e-06 0)
(17.5272 3.82126e-06 0)
(17.5269 5.8822e-06 0)
(17.5266 4.9854e-06 0)
(17.5264 6.23666e-06 0)
(17.5261 4.41538e-06 0)
(17.5258 5.23734e-06 0)
(17.5254 4.31356e-06 0)
(17.5251 5.56081e-06 0)
(17.5248 4.58222e-06 0)
(17.5244 3.94743e-06 0)
(17.5242 7.83255e-07 0)
(19.929 0.0521808 0)
(19.7286 0.0270124 0)
(19.2674 0.0200258 0)
(18.7457 0.0142433 0)
(18.2961 0.0102331 0)
(17.9397 0.00761456 0)
(17.6607 0.00587472 0)
(17.4395 0.00467513 0)
(17.2609 0.00381402 0)
(17.114 0.0031725 0)
(16.9914 0.00267921 0)
(16.8876 0.00228984 0)
(16.7987 0.00197568 0)
(16.7221 0.00171778 0)
(16.6553 0.00150322 0)
(16.5969 0.00132469 0)
(16.5453 0.00117886 0)
(16.4992 0.00106545 0)
(16.4576 0.000985415 0)
(16.4193 0.000936386 0)
(16.3839 0.000907379 0)
(16.3511 0.000881874 0)
(16.3219 0.000831756 0)
(16.2979 0.000727074 0)
(16.2814 0.000542178 0)
(16.2751 0.000263277 0)
(16.2814 -0.000109248 0)
(16.3022 -0.00055849 0)
(16.3388 -0.00105477 0)
(16.3912 -0.00156058 0)
(16.4585 -0.00203112 0)
(16.5388 -0.00242646 0)
(16.6291 -0.00272103 0)
(16.7258 -0.00290793 0)
(16.8257 -0.00299451 0)
(16.9255 -0.00299951 0)
(17.0228 -0.00294151 0)
(17.1159 -0.00284478 0)
(17.2039 -0.00271905 0)
(17.2861 -0.00257623 0)
(17.3622 -0.00241526 0)
(17.4323 -0.00224966 0)
(17.4963 -0.00207538 0)
(17.5545 -0.00189628 0)
(17.6069 -0.0017096 0)
(17.6538 -0.00152167 0)
(17.6955 -0.00133965 0)
(17.7321 -0.00116362 0)
(17.7641 -0.0009962 0)
(17.7916 -0.000843319 0)
(17.8151 -0.000697226 0)
(17.8348 -0.000571642 0)
(17.8511 -0.000464224 0)
(17.8641 -0.000369774 0)
(17.8742 -0.000284007 0)
(17.8817 -0.000212607 0)
(17.8871 -0.000143888 0)
(17.8907 -9.28247e-05 0)
(17.893 -6.21145e-05 0)
(17.8944 -3.1892e-05 0)
(17.8951 -1.94802e-05 0)
(17.8955 -2.42237e-06 0)
(17.8956 1.11374e-06 0)
(17.8955 5.51131e-06 0)
(17.8953 4.7589e-06 0)
(17.8951 7.10693e-06 0)
(17.8949 6.18244e-06 0)
(17.8947 7.59904e-06 0)
(17.8944 5.72383e-06 0)
(17.8941 6.72094e-06 0)
(17.8939 5.81704e-06 0)
(17.8935 7.20619e-06 0)
(17.8932 6.14964e-06 0)
(17.8929 5.36249e-06 0)
(17.8927 1.38042e-06 0)
(19.9739 0.0527179 0)
(19.8889 0.0285833 0)
(19.6025 0.0227995 0)
(19.1903 0.017266 0)
(18.776 0.0128803 0)
(18.4202 0.00975674 0)
(18.1302 0.00758159 0)
(17.8955 0.00604683 0)
(17.7042 0.00493332 0)
(17.546 0.00410015 0)
(17.4137 0.00345882 0)
(17.3016 0.00295286 0)
(17.2056 0.00254518 0)
(17.1228 0.00221109 0)
(17.0507 0.00193367 0)
(16.9876 0.00170307 0)
(16.932 0.00151437 0)
(16.8824 0.00136628 0)
(16.8378 0.00125875 0)
(16.7971 0.0011874 0)
(16.7599 0.00113767 0)
(16.7262 0.00108858 0)
(16.6969 0.00100658 0)
(16.6737 0.000856954 0)
(16.6586 0.000611245 0)
(16.654 0.000255746 0)
(16.662 -0.00020645 0)
(16.684 -0.000754188 0)
(16.7209 -0.0013524 0)
(16.7726 -0.00195734 0)
(16.8383 -0.00251729 0)
(16.9161 -0.00298591 0)
(17.0031 -0.00333308 0)
(17.0961 -0.00355001 0)
(17.1918 -0.00364496 0)
(17.2872 -0.00364014 0)
(17.3797 -0.00355856 0)
(17.4678 -0.00342954 0)
(17.5505 -0.00326634 0)
(17.6273 -0.00308389 0)
(17.6981 -0.00288246 0)
(17.7631 -0.00267738 0)
(17.8223 -0.00246466 0)
(17.8761 -0.00224865 0)
(17.9248 -0.00202643 0)
(17.9685 -0.0018046 0)
(18.0076 -0.00159068 0)
(18.0423 -0.00138446 0)
(18.0728 -0.00118859 0)
(18.0993 -0.00100912 0)
(18.1221 -0.000837687 0)
(18.1414 -0.000688745 0)
(18.1574 -0.00055981 0)
(18.1703 -0.000445524 0)
(18.1803 -0.000341814 0)
(18.1877 -0.000255031 0)
(18.193 -0.00017317 0)
(18.1966 -0.000112075 0)
(18.199 -7.44674e-05 0)
(18.2004 -3.88439e-05 0)
(18.2012 -2.34036e-05 0)
(18.2015 -3.77985e-06 0)
(18.2017 8.20909e-07 0)
(18.2017 6.00648e-06 0)
(18.2016 5.46329e-06 0)
(18.2014 8.10844e-06 0)
(18.2013 7.1895e-06 0)
(18.2011 8.8019e-06 0)
(18.2009 6.94417e-06 0)
(18.2006 8.1682e-06 0)
(18.2004 7.33888e-06 0)
(18.2001 8.88559e-06 0)
(18.1998 7.76325e-06 0)
(18.1995 6.80893e-06 0)
(18.1993 1.97293e-06 0)
(20.0011 0.0528693 0)
(19.9807 0.0295175 0)
(19.8226 0.0248231 0)
(19.5371 0.0199509 0)
(19.1896 0.0155661 0)
(18.8549 0.0120995 0)
(18.5647 0.00952304 0)
(18.3221 0.00763898 0)
(18.1205 0.00624622 0)
(17.9523 0.00519419 0)
(17.8107 0.00438077 0)
(17.6905 0.00373796 0)
(17.5873 0.00321993 0)
(17.4982 0.00279566 0)
(17.4207 0.00244375 0)
(17.3528 0.00215129 0)
(17.2928 0.00191137 0)
(17.2396 0.00172123 0)
(17.1918 0.00157929 0)
(17.1486 0.00147864 0)
(17.1095 0.0014007 0)
(17.0747 0.00131976 0)
(17.0451 0.00119696 0)
(17.0222 0.000993255 0)
(17.0079 0.000678041 0)
(17.0042 0.000238427 0)
(17.0127 -0.000319339 0)
(17.0346 -0.000969787 0)
(17.0704 -0.00167268 0)
(17.1199 -0.0023786 0)
(17.1823 -0.00302942 0)
(17.2557 -0.0035726 0)
(17.3376 -0.00397326 0)
(17.4252 -0.00422022 0)
(17.5151 -0.00432218 0)
(17.6044 -0.00430474 0)
(17.6908 -0.00419572 0)
(17.7728 -0.00403014 0)
(17.8493 -0.00382544 0)
(17.92 -0.00360007 0)
(17.985 -0.00335592 0)
(18.0446 -0.00311013 0)
(18.099 -0.00285874 0)
(18.1485 -0.00260633 0)
(18.1935 -0.00234963 0)
(18.2342 -0.00209525 0)
(18.271 -0.00185072 0)
(18.3039 -0.00161539 0)
(18.3331 -0.00139174 0)
(18.3588 -0.00118582 0)
(18.3811 -0.000988704 0)
(18.4002 -0.000815526 0)
(18.416 -0.000663806 0)
(18.4289 -0.000528219 0)
(18.4389 -0.000405117 0)
(18.4464 -0.000301595 0)
(18.4517 -0.00020554 0)
(18.4554 -0.000133535 0)
(18.4578 -8.83226e-05 0)
(18.4592 -4.68584e-05 0)
(18.4601 -2.80447e-05 0)
(18.4605 -5.7e-06 0)
(18.4607 1.06899e-07 0)
(18.4608 6.14767e-06 0)
(18.4607 5.87378e-06 0)
(18.4606 8.83584e-06 0)
(18.4605 7.96097e-06 0)
(18.4604 9.80562e-06 0)
(18.4602 8.0388e-06 0)
(18.46 9.5465e-06 0)
(18.4598 8.85061e-06 0)
(18.4596 1.05744e-05 0)
(18.4593 9.40211e-06 0)
(18.459 8.26562e-06 0)
(18.4588 2.57917e-06 0)
(20.0187 0.0527444 0)
(20.0354 0.0299682 0)
(19.9582 0.0261269 0)
(19.7862 0.0220654 0)
(19.5283 0.0180611 0)
(19.2388 0.0145161 0)
(18.9637 0.0116492 0)
(18.7216 0.00944109 0)
(18.5144 0.00775976 0)
(18.3385 0.00646863 0)
(18.189 0.00546126 0)
(18.0611 0.00466134 0)
(17.951 0.00401522 0)
(17.8557 0.00348557 0)
(17.7726 0.00304621 0)
(17.6997 0.00268082 0)
(17.6354 0.00238009 0)
(17.5783 0.00213932 0)
(17.5272 0.00195491 0)
(17.4812 0.00181685 0)
(17.4401 0.00170219 0)
(17.404 0.00158037 0)
(17.3738 0.00140749 0)
(17.3507 0.00114066 0)
(17.3364 0.000747843 0)
(17.3326 0.000217597 0)
(17.3406 -0.000440346 0)
(17.3611 -0.00119623 0)
(17.3943 -0.00200499 0)
(17.4401 -0.00281228 0)
(17.4974 -0.00355428 0)
(17.5648 -0.00417258 0)
(17.6401 -0.00462744 0)
(17.7206 -0.00490474 0)
(17.8032 -0.0050131 0)
(17.8853 -0.00498128 0)
(17.9646 -0.00484223 0)
(18.0395 -0.00463718 0)
(18.1092 -0.00438841 0)
(18.1736 -0.00411834 0)
(18.2327 -0.00383075 0)
(18.2869 -0.00354445 0)
(18.3365 -0.00325544 0)
(18.3819 -0.0029683 0)
(18.4235 -0.00267915 0)
(18.4615 -0.00239432 0)
(18.4961 -0.00212108 0)
(18.5275 -0.00185814 0)
(18.5558 -0.00160768 0)
(18.5809 -0.00137561 0)
(18.6029 -0.00115253 0)
(18.6219 -0.000954183 0)
(18.6378 -0.000778252 0)
(18.6508 -0.000619655 0)
(18.661 -0.000475415 0)
(18.6686 -0.000353484 0)
(18.6741 -0.000241884 0)
(18.6779 -0.000157838 0)
(18.6803 -0.000104126 0)
(18.6819 -5.62323e-05 0)
(18.6828 -3.36067e-05 0)
(18.6833 -8.31035e-06 0)
(18.6836 -1.11528e-06 0)
(18.6837 5.87748e-06 0)
(18.6837 5.9474e-06 0)
(18.6836 9.25831e-06 0)
(18.6836 8.46851e-06 0)
(18.6835 1.05867e-05 0)
(18.6834 8.98341e-06 0)
(18.6832 1.08347e-05 0)
(18.683 1.03307e-05 0)
(18.6828 1.2257e-05 0)
(18.6826 1.10507e-05 0)
(18.6823 9.72361e-06 0)
(18.6821 3.17046e-06 0)
(20.0306 0.0523701 0)
(20.0698 0.03007 0)
(20.0406 0.0268629 0)
(19.9512 0.023519 0)
(19.7855 0.0201271 0)
(19.5621 0.0168134 0)
(19.3211 0.0138541 0)
(19.0917 0.0114083 0)
(18.8862 0.009462 0)
(18.7068 0.00792754 0)
(18.5516 0.00671156 0)
(18.4174 0.00573712 0)
(18.3011 0.00494584 0)
(18.1999 0.00429523 0)
(18.1113 0.00375463 0)
(18.0335 0.00330421 0)
(17.9647 0.00293195 0)
(17.9037 0.00263082 0)
(17.8491 0.00239473 0)
(17.8003 0.00221012 0)
(17.757 0.00204936 0)
(17.7192 0.00187707 0)
(17.6878 0.00164464 0)
(17.6639 0.00130595 0)
(17.649 0.000828208 0)
(17.6442 0.000201949 0)
(17.6505 -0.000559411 0)
(17.6683 -0.00142189 0)
(17.6977 -0.00233615 0)
(17.7383 -0.00324369 0)
(17.7893 -0.00407594 0)
(17.8493 -0.00476919 0)
(17.9165 -0.00527885 0)
(17.9885 -0.00558744 0)
(18.0627 -0.00570282 0)
(18.1364 -0.00565659 0)
(18.2078 -0.00548682 0)
(18.2752 -0.00524139 0)
(18.3379 -0.00494794 0)
(18.3958 -0.00463322 0)
(18.449 -0.00430308 0)
(18.498 -0.00397794 0)
(18.5431 -0.00365357 0)
(18.5847 -0.00333436 0)
(18.6231 -0.00301563 0)
(18.6587 -0.00270311 0)
(18.6915 -0.0024036 0)
(18.7216 -0.00211496 0)
(18.7491 -0.00183896 0)
(18.7738 -0.00158126 0)
(18.7958 -0.001332 0)
(18.8149 -0.00110748 0)
(18.8311 -0.000905719 0)
(18.8443 -0.000722095 0)
(18.8548 -0.000554588 0)
(18.8627 -0.000412178 0)
(18.8684 -0.000283301 0)
(18.8724 -0.000185769 0)
(18.875 -0.000122419 0)
(18.8766 -6.73228e-05 0)
(18.8776 -4.03227e-05 0)
(18.8782 -1.1753e-05 0)
(18.8785 -2.93328e-06 0)
(18.8787 5.14516e-06 0)
(18.8787 5.65229e-06 0)
(18.8787 9.35712e-06 0)
(18.8787 8.69774e-06 0)
(18.8787 1.11328e-05 0)
(18.8786 9.76288e-06 0)
(18.8784 1.20173e-05 0)
(18.8783 1.17644e-05 0)
(18.8781 1.39217e-05 0)
(18.8779 1.27027e-05 0)
(18.8777 1.11786e-05 0)
(18.8775 3.7845e-06 0)
(20.039 0.0517789 0)
(20.0926 0.0299213 0)
(20.092 0.0271879 0)
(20.0552 0.0243788 0)
(19.9649 0.0216134 0)
(19.8158 0.0187666 0)
(19.6268 0.0159671 0)
(19.4257 0.0134437 0)
(19.2323 0.0113077 0)
(19.0559 0.00955536 0)
(18.899 0.00813182 0)
(18.761 0.00697332 0)
(18.6398 0.00602349 0)
(18.5335 0.00523777 0)
(18.44 0.00458235 0)
(18.3575 0.00403436 0)
(18.2844 0.00357913 0)
(18.2194 0.003207 0)
(18.1613 0.00290906 0)
(18.1096 0.00266786 0)
(18.0637 0.00245094 0)
(18.024 0.00221817 0)
(17.991 0.00191678 0)
(17.9658 0.00149797 0)
(17.9493 0.00092896 0)
(17.9426 0.000202551 0)
(17.9462 -0.000664056 0)
(17.9603 -0.00163275 0)
(17.9847 -0.00265052 0)
(18.019 -0.0036557 0)
(18.0624 -0.00457602 0)
(18.1138 -0.00534329 0)
(18.1717 -0.00590834 0)
(18.2342 -0.00625002 0)
(18.2989 -0.00637477 0)
(18.3636 -0.00631635 0)
(18.4264 -0.00611774 0)
(18.486 -0.00583354 0)
(18.5416 -0.00549709 0)
(18.5931 -0.00513976 0)
(18.6406 -0.00476964 0)
(18.6846 -0.00440867 0)
(18.7255 -0.00405235 0)
(18.7635 -0.00370464 0)
(18.7991 -0.00335992 0)
(18.8325 -0.00302308 0)
(18.8637 -0.00270026 0)
(18.8927 -0.00238831 0)
(18.9196 -0.00208843 0)
(18.9441 -0.00180587 0)
(18.9661 -0.00153037 0)
(18.9855 -0.00127867 0)
(19.0021 -0.00104929 0)
(19.0158 -0.000838275 0)
(19.0267 -0.000644926 0)
(19.035 -0.000479482 0)
(19.041 -0.00033114 0)
(19.0452 -0.000218283 0)
(19.048 -0.000143861 0)
(19.0498 -8.05612e-05 0)
(19.0509 -4.84706e-05 0)
(19.0516 -1.61937e-05 0)
(19.0519 -5.44415e-06 0)
(19.0521 3.90051e-06 0)
(19.0522 4.96358e-06 0)
(19.0523 9.12361e-06 0)
(19.0523 8.64383e-06 0)
(19.0523 1.14409e-05 0)
(19.0522 1.03698e-05 0)
(19.0521 1.30852e-05 0)
(19.052 1.31403e-05 0)
(19.0518 1.55615e-05 0)
(19.0516 1.43536e-05 0)
(19.0514 1.26344e-05 0)
(19.0513 4.39677e-06 0)
(20.0449 0.0509936 0)
(20.1082 0.0295809 0)
(20.1254 0.0272182 0)
(20.1206 0.0247807 0)
(20.0821 0.0225187 0)
(19.9986 0.0202041 0)
(19.8707 0.0177772 0)
(19.7131 0.0153876 0)
(19.5451 0.0132011 0)
(19.3812 0.0113026 0)
(19.2289 0.00970093 0)
(19.0909 0.00836505 0)
(18.9675 0.0072522 0)
(18.8577 0.00632192 0)
(18.7603 0.00554038 0)
(18.6737 0.00488319 0)
(18.5966 0.00433359 0)
(18.5278 0.00387947 0)
(18.4663 0.00350897 0)
(18.4115 0.00320056 0)
(18.3631 0.00291697 0)
(18.3211 0.00261363 0)
(18.2861 0.00223413 0)
(18.2589 0.00172763 0)
(18.2402 0.00106204 0)
(18.2307 0.000232657 0)
(18.2307 -0.00073961 0)
(18.2402 -0.00181265 0)
(18.2587 -0.00293041 0)
(18.2858 -0.00402912 0)
(18.3207 -0.00503406 0)
(18.3626 -0.00587357 0)
(18.4104 -0.0064946 0)
(18.4624 -0.00687217 0)
(18.517 -0.00701061 0)
(18.572 -0.00694491 0)
(18.626 -0.00672233 0)
(18.6775 -0.00640387 0)
(18.7259 -0.00602867 0)
(18.771 -0.00563288 0)
(18.8131 -0.00522704 0)
(18.8523 -0.00483458 0)
(18.8892 -0.00445073 0)
(18.9239 -0.00407893 0)
(18.9568 -0.00371252 0)
(18.9881 -0.0033554 0)
(19.0178 -0.00301282 0)
(19.0459 -0.00268052 0)
(19.0722 -0.00235893 0)
(19.0966 -0.00205276 0)
(19.1188 -0.00175123 0)
(19.1387 -0.00147145 0)
(19.1558 -0.00121251 0)
(19.1702 -0.000971412 0)
(19.1816 -0.000749151 0)
(19.1904 -0.000557561 0)
(19.1968 -0.000387024 0)
(19.2013 -0.00025654 0)
(19.2043 -0.000169249 0)
(19.2063 -9.64711e-05 0)
(19.2075 -5.83854e-05 0)
(19.2082 -2.18315e-05 0)
(19.2087 -8.76231e-06 0)
(19.2089 2.08661e-06 0)
(19.209 3.85603e-06 0)
(19.2091 8.55235e-06 0)
(19.2091 8.30623e-06 0)
(19.2091 1.15119e-05 0)
(19.2091 1.07995e-05 0)
(19.209 1.40307e-05 0)
(19.2089 1.44474e-05 0)
(19.2088 1.71692e-05 0)
(19.2086 1.60001e-05 0)
(19.2084 1.40956e-05 0)
(19.2083 5.01758e-06 0)
(20.0492 0.0500256 0)
(20.1193 0.0290805 0)
(20.1481 0.0270285 0)
(20.1628 0.0248476 0)
(20.1569 0.0229463 0)
(20.1211 0.0210867 0)
(20.0495 0.0191112 0)
(19.9437 0.0170398 0)
(19.8141 0.0149854 0)
(19.6744 0.0130687 0)
(19.5354 0.0113617 0)
(19.4036 0.00988355 0)
(19.2821 0.00862061 0)
(19.1716 0.00754664 0)
(19.0721 0.00663366 0)
(18.9826 0.00585894 0)
(18.9023 0.0052053 0)
(18.8303 0.00465895 0)
(18.7657 0.00420536 0)
(18.708 0.00381912 0)
(18.6568 0.00345844 0)
(18.6125 0.00307464 0)
(18.5751 0.00260841 0)
(18.5455 0.00200752 0)
(18.5241 0.00124121 0)
(18.5111 0.000307374 0)
(18.5068 -0.000769576 0)
(18.5108 -0.0019437 0)
(18.5227 -0.00315651 0)
(18.5419 -0.0043432 0)
(18.5677 -0.00542798 0)
(18.5996 -0.00633708 0)
(18.6366 -0.00701445 0)
(18.6776 -0.00743159 0)
(18.7215 -0.00759001 0)
(18.7665 -0.00752481 0)
(18.8112 -0.00728636 0)
(18.8545 -0.0069413 0)
(18.8957 -0.00653435 0)
(18.9346 -0.00610649 0)
(18.9712 -0.00567092 0)
(19.0059 -0.00525263 0)
(19.0388 -0.00484672 0)
(19.0703 -0.0044561 0)
(19.1006 -0.00407307 0)
(19.1299 -0.0037004 0)
(19.1581 -0.00334238 0)
(19.1852 -0.00299341 0)
(19.2111 -0.00265305 0)
(19.2354 -0.00232515 0)
(19.2579 -0.00199833 0)
(19.2783 -0.00168982 0)
(19.2961 -0.00139938 0)
(19.3111 -0.00112519 0)
(19.3233 -0.000870439 0)
(19.3326 -0.000648967 0)
(19.3395 -0.000452888 0)
(19.3444 -0.000301931 0)
(19.3476 -0.000199542 0)
(19.3498 -0.000115685 0)
(19.3511 -7.04705e-05 0)
(19.3519 -2.8909e-05 0)
(19.3524 -1.30261e-05 0)
(19.3527 -3.64932e-07 0)
(19.3529 2.30117e-06 0)
(19.353 7.63864e-06 0)
(19.353 7.68832e-06 0)
(19.3531 1.13505e-05 0)
(19.3531 1.10509e-05 0)
(19.353 1.48475e-05 0)
(19.3529 1.56761e-05 0)
(19.3528 1.87375e-05 0)
(19.3526 1.76401e-05 0)
(19.3525 1.55675e-05 0)
(19.3524 5.6488e-06 0)
(20.0522 0.0488783 0)
(20.1272 0.0284365 0)
(20.164 0.0266624 0)
(20.1912 0.0246653 0)
(20.2052 0.023015 0)
(20.2004 0.0214911 0)
(20.1713 0.0199148 0)
(20.1139 0.0182338 0)
(20.0293 0.016468 0)
(19.9247 0.0146946 0)
(19.8096 0.0130043 0)
(19.6925 0.0114606 0)
(19.579 0.0100898 0)
(19.4722 0.00889215 0)
(19.3735 0.00785454 0)
(19.2833 0.00696151 0)
(19.2013 0.00619878 0)
(19.1271 0.00555272 0)
(19.06 0.00500721 0)
(18.9998 0.0045336 0)
(18.9462 0.00408618 0)
(18.8993 0.00361288 0)
(18.8595 0.00305228 0)
(18.8271 0.00235141 0)
(18.8024 0.00148149 0)
(18.7856 0.000443125 0)
(18.7764 -0.000736153 0)
(18.7745 -0.00200684 0)
(18.7794 -0.00330849 0)
(18.7903 -0.00457629 0)
(18.8068 -0.00573479 0)
(18.8282 -0.00670966 0)
(18.8541 -0.00744324 0)
(18.8839 -0.00790403 0)
(18.9166 -0.00809037 0)
(18.9512 -0.0080361 0)
(18.9865 -0.00779312 0)
(19.0214 -0.0074324 0)
(19.0553 -0.00700363 0)
(19.0879 -0.0065525 0)
(19.1191 -0.00609506 0)
(19.1491 -0.00565802 0)
(19.1782 -0.00523665 0)
(19.2064 -0.00483343 0)
(19.2341 -0.00443973 0)
(19.2613 -0.00405712 0)
(19.2879 -0.00368886 0)
(19.314 -0.00332788 0)
(19.3393 -0.00297264 0)
(19.3635 -0.00262585 0)
(19.3863 -0.00227527 0)
(19.4072 -0.0019379 0)
(19.4258 -0.00161419 0)
(19.4416 -0.00130372 0)
(19.4545 -0.0010124 0)
(19.4645 -0.000756653 0)
(19.4719 -0.000530995 0)
(19.4772 -0.000356091 0)
(19.4808 -0.000235875 0)
(19.4831 -0.000138954 0)
(19.4846 -8.52094e-05 0)
(19.4855 -3.77168e-05 0)
(19.4861 -1.84039e-05 0)
(19.4864 -3.53855e-06 0)
(19.4866 2.62689e-07 0)
(19.4867 6.37632e-06 0)
(19.4868 6.79234e-06 0)
(19.4869 1.09623e-05 0)
(19.4869 1.11226e-05 0)
(19.4868 1.55296e-05 0)
(19.4868 1.68137e-05 0)
(19.4866 2.02565e-05 0)
(19.4865 1.92669e-05 0)
(19.4864 1.70531e-05 0)
(19.4863 6.3005e-06 0)
(20.0542 0.0475507 0)
(20.1328 0.0276568 0)
(20.1754 0.0261431 0)
(20.2109 0.0242866 0)
(20.2375 0.0228151 0)
(20.252 0.0215276 0)
(20.2508 0.02025 0)
(20.2303 0.0189168 0)
(20.1875 0.017495 0)
(20.1228 0.0159935 0)
(20.0406 0.0144639 0)
(19.9476 0.0129733 0)
(19.8502 0.0115768 0)
(19.7535 0.0103063 0)
(19.6605 0.00917225 0)
(19.5729 0.00817457 0)
(19.4917 0.00730724 0)
(19.417 0.0065603 0)
(19.3487 0.00591822 0)
(19.2868 0.00535059 0)
(19.2313 0.00480904 0)
(19.1823 0.00423898 0)
(19.14 0.00357802 0)
(19.1047 0.0027732 0)
(19.0766 0.00179827 0)
(19.0556 0.000656838 0)
(19.0413 -0.000620987 0)
(19.0333 -0.00198258 0)
(19.0309 -0.00336576 0)
(19.0335 -0.00470655 0)
(19.0406 -0.00593129 0)
(19.0517 -0.00696674 0)
(19.0665 -0.00775527 0)
(19.0849 -0.00826354 0)
(19.1064 -0.00848659 0)
(19.1303 -0.00845575 0)
(19.1558 -0.00822251 0)
(19.1821 -0.0078603 0)
(19.2085 -0.00742272 0)
(19.2346 -0.00695971 0)
(19.2603 -0.00649035 0)
(19.2856 -0.00604332 0)
(19.3106 -0.00561441 0)
(19.3355 -0.00520593 0)
(19.3603 -0.00480853 0)
(19.3852 -0.00442264 0)
(19.4101 -0.00405044 0)
(19.435 -0.00368331 0)
(19.4595 -0.00331836 0)
(19.4835 -0.00295678 0)
(19.5064 -0.00258511 0)
(19.5278 -0.00221964 0)
(19.5471 -0.00186135 0)
(19.5638 -0.00151139 0)
(19.5775 -0.00117902 0)
(19.5883 -0.000883928 0)
(19.5963 -0.000623913 0)
(19.602 -0.000420894 0)
(19.6059 -0.000279554 0)
(19.6085 -0.000167148 0)
(19.6101 -0.00010316 0)
(19.6112 -4.85968e-05 0)
(19.6118 -2.50931e-05 0)
(19.6122 -7.53539e-06 0)
(19.6124 -2.30212e-06 0)
(19.6125 4.75653e-06 0)
(19.6126 5.62372e-06 0)
(19.6127 1.03558e-05 0)
(19.6127 1.10173e-05 0)
(19.6127 1.60719e-05 0)
(19.6126 1.78499e-05 0)
(19.6125 2.17151e-05 0)
(19.6124 2.08742e-05 0)
(19.6122 1.8554e-05 0)
(19.6122 6.98237e-06 0)
(20.0555 0.0460389 0)
(20.1367 0.0267443 0)
(20.1836 0.0254815 0)
(20.2248 0.0237409 0)
(20.2598 0.0224039 0)
(20.2863 0.0212857 0)
(20.3028 0.0202192 0)
(20.3068 0.019147 0)
(20.2955 0.0180267 0)
(20.2667 0.0168311 0)
(20.2202 0.015562 0)
(20.1584 0.0142503 0)
(20.0856 0.0129434 0)
(20.0066 0.011688 0)
(19.9257 0.0105178 0)
(19.8459 0.00945308 0)
(19.7693 0.00850284 0)
(19.697 0.00766589 0)
(19.6296 0.00693108 0)
(19.5676 0.00626887 0)
(19.5112 0.00563029 0)
(19.4608 0.0049598 0)
(19.4165 0.00419543 0)
(19.3787 0.00328516 0)
(19.3472 0.00220583 0)
(19.3221 0.000964671 0)
(19.3026 -0.000406289 0)
(19.2885 -0.001852 0)
(19.2791 -0.00330836 0)
(19.2736 -0.00471293 0)
(19.2715 -0.00599507 0)
(19.2726 -0.00708423 0)
(19.2766 -0.00792473 0)
(19.2838 -0.00848296 0)
(19.2941 -0.00875121 0)
(19.3072 -0.00875731 0)