/*--------------------------------*- C++ -*----------------------------------*\
  =========                 |
  \\      /  F ield         | OpenFOAM: The Open Source CFD Toolbox
   \\    /   O peration     | Website:  https://openfoam.org
    \\  /    A nd           | Version:  7
     \\/     M anipulation  |
\*---------------------------------------------------------------------------*/
FoamFile
{
    version     2.0;
    format      ascii;
    class       volScalarField;
    location    "5.6";
    object      p;
}
// * * * * * * * * * * * * * * * * * * * * * * * * * * * * * * * * * * * * * //

dimensions      [0 2 -2 0 0 0 0];

internalField   nonuniform List<scalar> 
900
(
8.67562e-07
-0.00031897
-0.000828379
-0.00135709
-0.00181236
-0.00213554
-0.00229739
-0.00228492
-0.00209171
-0.00171352
-0.00114773
-0.000395154
0.000536746
0.0016303
0.00285447
0.00416297
0.00549432
0.00677452
0.00792266
0.00885904
0.00951514
0.00984408
0.00982958
0.00949189
0.00888994
0.00811757
0.00728375
0.00654701
0.00604187
0.00589715
0.000319342
-1.1579e-05
-0.000396438
-0.000779857
-0.0011045
-0.00132833
-0.00142815
-0.00139129
-0.00120977
-0.000878038
-0.000392778
0.000245691
0.00103112
0.00194859
0.00297206
0.00406273
0.00517096
0.00623511
0.00718899
0.00796778
0.00851641
0.00879825
0.00880243
0.00854814
0.00808517
0.00748982
0.00685495
0.00628092
0.00588371
0.00575052
0.000848337
0.000360752
-3.7026e-05
-0.000378956
-0.000652963
-0.00083345
-0.000906775
-0.000865309
-0.000702787
-0.000413448
7.40685e-06
0.000561788
0.00124667
0.00205128
0.00295467
0.00392448
0.00491582
0.00587364
0.00673701
0.00744529
0.00794631
0.00820486
0.00820987
0.00797846
0.00755577
0.00701008
0.00642412
0.00588499
0.00547649
0.00526254
0.00141913
0.00072671
0.000258332
-9.37301e-05
-0.000359068
-0.000527992
-0.000597832
-0.000567923
-0.000434946
-0.000193145
0.000164251
0.000642878
0.00124446
0.00196365
0.00278513
0.00368145
0.00461179
0.00552341
0.00635565
0.00704614
0.00753932
0.00779569
0.00779978
0.00756485
0.00713271
0.00656818
0.00595048
0.00536347
0.00487391
0.00450811
0.00191119
0.000999176
0.000439828
5.4593e-05
-0.000224683
-0.000402742
-0.000487505
-0.000485171
-0.000395206
-0.000211436
7.57628e-05
0.00047672
0.000999119
0.00164419
0.00240292
0.00325292
0.00415723
0.00506343
0.00590841
0.00662427
0.00714757
0.00742978
0.00744683
0.00720522
0.00674265
0.00612244
0.00542507
0.00473779
0.00411796
0.00355777
0.0022191
0.00109037
0.000432341
3.83947e-08
-0.000310055
-0.000515511
-0.000633705
-0.000676823
-0.00064634
-0.000534865
-0.000328997
-1.26162e-05
0.00042917
0.00100548
0.00171481
0.00254067
0.00345025
0.00439063
0.00529452
0.00608534
0.0066873
0.0070375
0.00709781
0.00686348
0.00636569
0.00566687
0.00485278
0.00402141
0.00322849
0.00243787
0.00225333
0.000920793
0.000164091
-0.000323137
-0.000676877
-0.000926247
-0.00109682
-0.00120561
-0.0012551
-0.00123575
-0.00112937
-0.00091285
-0.000562605
-5.9899e-05
0.00060306
0.00141724
0.00235714
0.00336859
0.00437975
0.00530302
0.00604581
0.00652457
0.00667979
0.00648857
0.0059707
0.00518636
0.00422974
0.00321691
0.00221017
0.00114899
0.00193552
0.000417794
-0.00043276
-0.000978969
-0.00138683
-0.00169605
-0.00193933
-0.00213742
-0.00229291
-0.0023932
-0.00241434
-0.00232493
-0.00209098
-0.00168189
-0.00107776
-0.000277387
0.000707468
0.00182066
0.00298774
0.00410909
0.00507111
0.00576223
0.00609188
0.00600866
0.0055124
0.00465659
0.00354526
0.00231981
0.00105714
-0.000325876
0.00119564
-0.000484692
-0.00142173
-0.00202944
-0.0025015
-0.00288754
-0.00322659
-0.00354239
-0.00383694
-0.00409402
-0.00428307
-0.00436316
-0.00428797
-0.00401211
-0.00349804
-0.00272377
-0.00170564
-0.000473373
0.000894576
0.00228612
0.00356325
0.00457832
0.00519725
0.00532532
0.00492843
0.00404396
0.00278409
0.00132243
-0.000241404
-0.0020133
-2.7851e-05
-0.00184465
-0.00285939
-0.00353101
-0.0040782
-0.00456013
-0.00502168
-0.00548919
-0.00596394
-0.00642591
-0.00683756
-0.00714741
-0.00729475
-0.00721603
-0.00685269
-0.00616129
-0.00512964
-0.00377752
-0.00217473
-0.000440212
0.00126286
0.00274313
0.00380837
0.00430045
0.00412991
0.00330079
0.00192621
0.000217227
-0.0016952
-0.00394107
-0.00178596
-0.00370969
-0.00479247
-0.00553077
-0.00616526
-0.00676433
-0.00737865
-0.00803729
-0.00874122
-0.00946708
-0.0101706
-0.0107891
-0.0112459
-0.0114557
-0.0113333
-0.0108049
-0.009824
-0.00838425
-0.00653628
-0.00439707
-0.0021513
-3.87847e-05
0.00167489
0.00274316
0.00299049
0.00235901
0.000945783
-0.000999749
-0.00330645
-0.00612994
-0.00411622
-0.00611436
-0.00725476
-0.00806268
-0.00879718
-0.00953577
-0.0103351
-0.0112278
-0.0122155
-0.0132728
-0.0143495
-0.0153723
-0.0162473
-0.0168645
-0.0171066
-0.0168605
-0.0160354
-0.0145827
-0.0125179
-0.00994072
-0.00704665
-0.00412233
-0.00151873
0.000401602
0.00133679
0.00112333
-0.000190299
-0.00232491
-0.00506218
-0.00858413
-0.00703959
-0.00907762
-0.0102643
-0.011144
-0.0119899
-0.0128889
-0.0139043
-0.0150733
-0.0164002
-0.0178595
-0.0193969
-0.0209297
-0.0223468
-0.0235122
-0.0242713
-0.0244642
-0.023944
-0.022604
-0.0204041
-0.0174052
-0.0137936
-0.00989064
-0.00613577
-0.003032
-0.00105444
-0.000533097
-0.00152296
-0.00374188
-0.00692448
-0.0112794
-0.0105577
-0.012601
-0.0138216
-0.0147724
-0.0157369
-0.0168112
-0.018067
-0.0195477
-0.0212626
-0.0231887
-0.0252705
-0.027418
-0.0295045
-0.0313672
-0.0328126
-0.0336278
-0.0336006
-0.0325486
-0.0303574
-0.0270217
-0.022689
-0.0176896
-0.0125387
-0.00789212
-0.00444358
-0.00276499
-0.0030978
-0.00521341
-0.00881698
-0.0141466
-0.0146518
-0.0166679
-0.0179086
-0.0189246
-0.0200059
-0.0212591
-0.0227655
-0.0245778
-0.0267131
-0.0291539
-0.0318468
-0.0346975
-0.0375662
-0.0402653
-0.0425621
-0.0441889
-0.0448613
-0.0443095
-0.0423294
-0.0388189
-0.0338517
-0.0277272
-0.0210027
-0.0144755
-0.00908855
-0.0057348
-0.00495354
-0.00666797
-0.0106061
-0.0170487
-0.0192827
-0.0212458
-0.0224908
-0.0235575
-0.0247394
-0.0261557
-0.0279006
-0.0300391
-0.0325994
-0.0355734
-0.0389126
-0.0425219
-0.0462518
-0.0498929
-0.0531763
-0.0557807
-0.0573492
-0.0575178
-0.0559881
-0.0525317
-0.0471136
-0.0399538
-0.0315967
-0.022939
-0.0151697
-0.00956649
-0.00709516
-0.00797808
-0.0120751
-0.0197505
-0.024395
-0.0262903
-0.0275213
-0.0286108
-0.0298558
-0.031392
-0.0333313
-0.0357557
-0.0387082
-0.0421929
-0.0461697
-0.0505454
-0.0551639
-0.0597983
-0.0641476
-0.0678423
-0.0704602
-0.0715556
-0.0706973
-0.0675524
-0.0619426
-0.0539579
-0.0440612
-0.0331734
-0.0226807
-0.0142671
-0.00944479
-0.00892588
-0.0128885
-0.0218778
-0.0299224
-0.0317532
-0.0329484
-0.0340137
-0.0352547
-0.0368309
-0.0388802
-0.0415069
-0.0447735
-0.048699
-0.0532534
-0.0583473
-0.0638205
-0.0694316
-0.0748529
-0.0796737
-0.0834145
-0.0855534
-0.0855535
-0.0829596
-0.0774417
-0.0689253
-0.0577247
-0.0446894
-0.0313053
-0.0196202
-0.0117664
-0.00915165
-0.0125461
-0.0228656
-0.035799
-0.0375948
-0.0387261
-0.0396931
-0.0408231
-0.0423139
-0.0443403
-0.0470381
-0.0504933
-0.0547417
-0.0597637
-0.0654736
-0.0717072
-0.0782103
-0.0846328
-0.0905299
-0.095374
-0.0985776
-0.099523
-0.0976392
-0.0924495
-0.0837009
-0.0715111
-0.0565649
-0.0403194
-0.0250719
-0.0135676
-0.0080829
-0.0103229
-0.021892
-0.0419744
-0.0438011
-0.0448288
-0.045583
-0.0464429
-0.047667
-0.0494856
-0.0520755
-0.0555509
-0.0599645
-0.0653048
-0.0714869
-0.07834
-0.0855966
-0.0928854
-0.0997321
-0.10557
-0.109757
-0.111609
-0.11047
-0.105726
-0.0969543
-0.0840598
-0.0674973
-0.0485661
-0.0296482
-0.0139963
-0.00484433
-0.00519322
-0.0177906
-0.0484397
-0.0504103
-0.0512687
-0.0516342
-0.0519953
-0.0527078
-0.0540803
-0.0563426
-0.0596391
-0.0640363
-0.0695256
-0.0760164
-0.0833256
-0.0911681
-0.0991496
-0.106767
-0.113419
-0.118423
-0.121048
-0.120524
-0.116169
-0.107407
-0.0939379
-0.0759652
-0.054537
-0.0319455
-0.0117637
0.00184246
0.00426326
-0.00892668
-0.0552718
-0.0575516
-0.0581184
-0.0578224
-0.0573637
-0.057248
-0.0578886
-0.0595767
-0.0624841
-0.066683
-0.0721566
-0.0788001
-0.0864065
-0.0946671
-0.10316
-0.11135
-0.1186
-0.124184
-0.127317
-0.12718
-0.122987
-0.114044
-0.0998791
-0.0804626
-0.056555
-0.0302195
-0.00512866
0.0137478
0.0199774
0.00698929
-0.0627219
-0.0655091
-0.0655389
-0.0641521
-0.0624315
-0.0610961
-0.0606844
-0.0615469
-0.06387
-0.0677144
-0.0730378
-0.0797127
-0.0874866
-0.0960228
-0.104862
-0.113433
-0.121056
-0.126959
-0.130301
-0.130202
-0.125781
-0.116253
-0.100977
-0.0797403
-0.0530196
-0.0225772
0.00801983
0.0331796
0.0445422
0.033206
-0.0714027
-0.0748305
-0.0738155
-0.0706585
-0.0670777
-0.0640605
-0.0622648
-0.0620754
-0.0636626
-0.067049
-0.0721455
-0.0787672
-0.0866267
-0.0953346
-0.104388
-0.113169
-0.120952
-0.12691
-0.130137
-0.129674
-0.124542
-0.113834
-0.0967914
-0.0730077
-0.0426893
-0.0072889
0.0299262
0.0629408
0.0814298
0.0744175
-0.0827106
-0.0865122
-0.083391
-0.0773961
-0.0711695
-0.0659545
-0.0624649
-0.0610549
-0.0618255
-0.0647187
-0.0695691
-0.0761205
-0.0840254
-0.0928371
-0.102001
-0.110847
-0.118596
-0.124356
-0.127145
-0.125921
-0.119552
-0.107022
-0.0874004
-0.0600703
-0.0250122
0.0167478
0.0624586
0.106079
0.135166
0.137264
-0.0998046
-0.102326
-0.0948602
-0.0843847
-0.0745227
-0.0665717
-0.0611387
-0.0584303
-0.0583955
-0.0608424
-0.0654947
-0.0720061
-0.0799545
-0.0888301
-0.0980218
-0.106807
-0.114347
-0.119685
-0.121757
-0.11942
-0.111373
-0.096449
-0.0734896
-0.0415931
-0.000379849
0.0496041
0.106344
0.165089
0.210869
0.230257
-0.129791
-0.125313
-0.108974
-0.0915677
-0.0768479
-0.0656276
-0.0581047
-0.0541477
-0.0534375
-0.0555803
-0.0601529
-0.0667016
-0.0747236
-0.0836458
-0.0928038
-0.101426
-0.10862
-0.11337
-0.114535
-0.110867
-0.100931
-0.0833123
-0.0565734
-0.0193933
0.0292121
0.0895826
0.161092
0.240115
0.312503
0.365074
-0.188667
-0.158893
-0.126109
-0.098397
-0.0773488
-0.0624558
-0.0529558
-0.0480517
-0.0469908
-0.0491081
-0.0538102
-0.0605342
-0.068705
-0.077699
-0.0868133
-0.0952414
-0.102056
-0.106193
-0.106448
-0.101467
-0.0898573
-0.0698137
-0.0395808
0.00272234
0.0590646
0.131384
0.221488
0.328649
0.442254
0.568542
-0.320075
-0.198861
-0.137813
-0.0971806
-0.0700442
-0.052731
-0.0427181
-0.0381316
-0.0376768
-0.040456
-0.0457748
-0.0530225
-0.0616022
-0.0708822
-0.0801575
-0.0886221
-0.095348
-0.0992657
-0.0991496
-0.0935274
-0.0810758
-0.0598308
-0.0277356
0.0176547
0.0794958
0.162164
0.272111
0.417805
0.606195
0.89574
-0.647302
-0.235238
-0.10635
-0.062198
-0.0382213
-0.0248065
-0.0190053
-0.0181876
-0.0207436
-0.025849
-0.0329718
-0.0416388
-0.0513592
-0.0615842
-0.0716748
-0.0808779
-0.0883091
-0.092943
-0.0936228
-0.0891018
-0.077551
-0.0573376
-0.0263852
0.0179622
0.0794415
0.164294
0.284949
0.469699
0.775878
1.36975
)
;

boundaryField
{
    movingWall
    {
        type            zeroGradient;
    }
    fixedWalls
    {
        type            zeroGradient;
    }
    frontAndBack
    {
        type            empty;
    }
}


// ************************************************************************* //
