/*--------------------------------*- C++ -*----------------------------------*\
  =========                 |
  \\      /  F ield         | OpenFOAM: The Open Source CFD Toolbox
   \\    /   O peration     | Website:  https://openfoam.org
    \\  /    A nd           | Version:  7
     \\/     M anipulation  |
\*---------------------------------------------------------------------------*/
FoamFile
{
    version     2.0;
    format      ascii;
    class       surfaceScalarField;
    location    "5.6";
    object      phi;
}
// * * * * * * * * * * * * * * * * * * * * * * * * * * * * * * * * * * * * * //

dimensions      [0 3 -1 0 0 0 0];

internalField   nonuniform List<scalar> 
1740
(
7.08783e-07
-7.09515e-07
3.01549e-07
4.07225e-07
-1.57291e-06
1.87446e-06
-4.74672e-06
3.17381e-06
-8.89032e-06
4.1436e-06
-1.36784e-05
4.78804e-06
-1.88385e-05
5.16011e-06
-2.41501e-05
5.31165e-06
-2.94252e-05
5.27511e-06
-3.44866e-05
5.06139e-06
-3.91514e-05
4.66484e-06
-4.32228e-05
4.07132e-06
-4.64902e-05
3.26745e-06
-4.874e-05
2.24977e-06
-4.97729e-05
1.03294e-06
-4.94284e-05
-3.44508e-07
-4.76113e-05
-1.8171e-06
-4.43195e-05
-3.29188e-06
-3.96642e-05
-4.65524e-06
-3.38808e-05
-5.78341e-06
-2.73237e-05
-6.5571e-06
-2.04448e-05
-6.87896e-06
-1.37542e-05
-6.69054e-06
-7.76857e-06
-5.98564e-06
-2.95099e-06
-4.81758e-06
3.54244e-07
-3.30523e-06
2.00207e-06
-1.64783e-06
2.07581e-06
-7.3743e-08
1.03e-06
1.04581e-06
1.03e-06
-3.91625e-07
-3.17906e-07
-3.47499e-06
3.4906e-06
-9.72416e-06
8.12365e-06
-1.87559e-05
1.22055e-05
-2.99597e-05
1.53474e-05
-4.26766e-05
1.75049e-05
-5.62878e-05
1.87713e-05
-7.02368e-05
1.92607e-05
-8.40136e-05
1.90519e-05
-9.71264e-05
1.81742e-05
-0.000109078
1.66168e-05
-0.000119358
1.43511e-05
-0.000127447
1.13564e-05
-0.000132845
7.64779e-06
-0.00013511
3.29816e-06
-0.000133916
-1.5386e-06
-0.000129092
-6.64185e-06
-0.00012069
-1.16934e-05
-0.000109018
-1.63275e-05
-9.46498e-05
-2.01515e-05
-7.84149e-05
-2.2792e-05
-6.13456e-05
-2.39482e-05
-4.45932e-05
-2.3443e-05
-2.93138e-05
-2.12651e-05
-1.65357e-05
-1.75956e-05
-7.02222e-06
-1.28187e-05
-1.14845e-06
-7.52159e-06
1.2752e-06
-2.49739e-06
1.09862e-06
1.2224e-06
2.12862e-06
-2.01099e-06
1.69309e-06
-8.6312e-06
1.01108e-05
-1.96659e-05
1.91584e-05
-3.44747e-05
2.70143e-05
-5.22117e-05
3.30844e-05
-7.19872e-05
3.72804e-05
-9.2946e-05
3.97301e-05
-0.000114289
4.06033e-05
-0.000135257
4.00204e-05
-0.000155109
3.80263e-05
-0.000173098
3.46054e-05
-0.000188466
2.97196e-05
-0.000200466
2.33558e-05
-0.000208391
1.55734e-05
-0.00021164
6.54667e-06
-0.000209771
-3.40686e-06
-0.000202584
-1.38288e-05
-0.000190178
-2.41003e-05
-0.000172995
-3.35105e-05
-0.000151842
-4.13038e-05
-0.00012787
-4.67645e-05
-0.000102504
-4.93138e-05
-7.73406e-05
-4.86065e-05
-5.39922e-05
-4.46135e-05
-3.39124e-05
-3.76754e-05
-1.82086e-05
-2.85225e-05
-7.46305e-06
-1.82672e-05
-1.58268e-06
-8.37776e-06
3.26051e-07
-6.86332e-07
2.45466e-06
-3.71763e-06
5.41073e-06
-1.40426e-05
2.04358e-05
-3.00103e-05
3.51261e-05
-5.05407e-05
4.75446e-05
-7.45108e-05
5.70545e-05
-0.000100824
6.3594e-05
-0.000128445
6.73512e-05
-0.000156397
6.85553e-05
-0.00018374
6.73633e-05
-0.000209544
6.38299e-05
-0.000232871
5.7932e-05
-0.000252776
4.96248e-05
-0.000268332
3.89124e-05
-0.000278677
2.59174e-05
-0.000283071
1.09415e-05
-0.000280981
-5.49706e-06
-0.000272152
-2.26584e-05
-0.000256683
-3.9569e-05
-0.000235083
-5.51101e-05
-0.000208294
-6.80925e-05
-0.000177677
-7.73821e-05
-0.000144944
-8.20466e-05
-0.000112043
-8.15077e-05
-8.09802e-05
-7.56763e-05
-5.36107e-05
-6.50449e-05
-3.14093e-05
-5.07239e-05
-1.52568e-05
-3.44197e-05
-5.26961e-06
-1.83649e-05
-7.20208e-07
-5.23574e-06
1.73445e-06
-5.3493e-06
1.076e-05
-1.93276e-05
3.44141e-05
-4.01653e-05
5.59638e-05
-6.62757e-05
7.36551e-05
-9.62216e-05
8.70004e-05
-0.000128702
9.60746e-05
-0.000162531
0.00010118
-0.000196599
0.000102624
-0.000229838
0.000100602
-0.000261184
9.5175e-05
-0.000289557
8.63053e-05
-0.00031387
7.39384e-05
-0.000333053
5.80954e-05
-0.000346102
3.89656e-05
-0.000352146
1.69854e-05
-0.000350532
-7.11058e-06
-0.000340904
-3.22862e-05
-0.000323294
-5.71788e-05
-0.000298188
-8.02169e-05
-0.000266567
-9.97136e-05
-0.000229915
-0.000114034
-0.000190167
-0.000121795
-0.000149586
-0.000122088
-0.000110584
-0.000114679
-7.54654e-05
-0.000100163
-4.61636e-05
-8.00257e-05
-2.39715e-05
-5.66118e-05
-9.34495e-06
-3.29915e-05
-1.81138e-06
-1.27693e-05
-7.69351e-08
-6.86392e-06
1.7624e-05
-2.43209e-05
5.18711e-05
-4.98294e-05
8.14723e-05
-8.12877e-05
0.000105113
-0.000116934
0.000122646
-0.000155267
0.000134408
-0.000194973
0.000140885
-0.000234846
0.000142497
-0.00027373
0.000139487
-0.000310472
0.000131917
-0.000343896
0.000119729
-0.000372805
0.000102847
-0.000396005
8.12952e-05
-0.000412355
5.53155e-05
-0.000420834
2.54649e-05
-0.00042063
-7.3151e-06
-0.000411213
-4.17032e-05
-0.00039246
-7.59312e-05
-0.000364734
-0.000107944
-0.000328955
-0.000135492
-0.000286647
-0.000156342
-0.00023991
-0.000168532
-0.000191321
-0.000170677
-0.00014374
-0.00016226
-0.000100028
-0.000143875
-6.27125e-05
-0.000117341
-3.36498e-05
-8.56745e-05
-1.37667e-05
-5.28747e-05
-2.93485e-06
-2.36011e-05
-3.01179e-06
-8.25136e-06
2.58753e-05
-2.89417e-05
7.25614e-05
-5.88251e-05
0.000111356
-9.53134e-05
0.000141602
-0.000136335
0.000163668
-0.000180204
0.000178278
-0.000225499
0.00018618
-0.00027095
0.000187948
-0.000315352
0.000183889
-0.000357501
0.000174066
-0.00039616
0.000158388
-0.00043005
0.000136737
-0.00045787
0.000109115
-0.000478338
7.57836e-05
-0.000490255
3.73827e-05
-0.000492603
-4.96769e-06
-0.000484594
-4.97118e-05
-0.000465857
-9.46679e-05
-0.000436516
-0.000137285
-0.000397318
-0.000174691
-0.000349721
-0.000203939
-0.000295927
-0.000222326
-0.000238817
-0.000227788
-0.00018176
-0.000219317
-0.000128302
-0.000197333
-8.17427e-05
-0.0001639
-4.46985e-05
-0.000122719
-1.87301e-05
-7.8843e-05
-4.1487e-06
-3.81825e-05
-7.16049e-06
-9.50216e-06
3.53775e-05
-3.31278e-05
9.6187e-05
-6.70093e-05
0.000145237
-0.000108124
0.000182716
-0.000154122
0.000209666
-0.000203159
0.000227315
-0.000253732
0.000236753
-0.000304536
0.000238752
-0.000354351
0.000233704
-0.00040196
0.000221675
-0.000446096
0.000202524
-0.000485427
0.000176068
-0.00051856
0.000142248
-0.000544071
0.000101295
-0.000560559
5.38701e-05
-0.000566757
1.23106e-06
-0.000561538
-5.49312e-05
-0.00054419
-0.000112016
-0.000514472
-0.000167003
-0.000472821
-0.000216342
-0.000420502
-0.000256257
-0.000359719
-0.00028311
-0.000293607
-0.000293899
-0.000226087
-0.000286837
-0.00016152
-0.0002619
-0.000104197
-0.000221224
-5.77361e-05
-0.000169179
-2.45575e-05
-0.000112022
-5.55366e-06
-5.71864e-05
-1.27141e-05
-1.05982e-05
4.59757e-05
-3.68064e-05
0.000122395
-7.42285e-05
0.000182659
-0.000119472
0.000227959
-0.000169953
0.000260147
-0.000223699
0.000281061
-0.000279154
0.000292209
-0.000335008
0.000294606
-0.000390057
0.000288753
-0.000443103
0.000274721
-0.000492888
0.000252309
-0.000538056
0.000221236
-0.000577144
0.000181336
-0.000608598
0.000132749
-0.000630818
7.60901e-05
-0.000642186
1.25983e-05
-0.000641298
-5.5819e-05
-0.000626936
-0.000126378
-0.000598386
-0.000195552
-0.000555624
-0.000259104
-0.000499553
-0.000312328
-0.000432215
-0.000350447
-0.000356897
-0.000369218
-0.000278048
-0.000365685
-0.000200953
-0.000338994
-0.000131121
-0.000291057
-7.34871e-05
-0.000226813
-3.16361e-05
-0.000153873
-7.26954e-06
-8.15529e-05
-1.99837e-05
-1.15129e-05
5.74885e-05
-3.98887e-05
0.000150771
-8.03066e-05
0.000223077
-0.000129077
0.00027673
-0.00018343
0.0003145
-0.000241298
0.000338929
-0.0003011
0.00035201
-0.000361544
0.00035505
-0.000421475
0.000348684
-0.000479749
0.000332995
-0.00053515
0.00030771
-0.000586336
0.000272421
-0.000631807
0.000226807
-0.000669906
0.000170849
-0.00069884
0.000105023
-0.000716719
3.04777e-05
-0.000721706
-5.08324e-05
-0.000712097
-0.000135987
-0.000686585
-0.000221064
-0.000644521
-0.000301168
-0.000586243
-0.000370606
-0.000513404
-0.000423286
-0.00042923
-0.000453392
-0.000338583
-0.000456332
-0.000247704
-0.000429873
-0.000163538
-0.000375223
-9.27088e-05
-0.000297642
-4.03838e-05
-0.000206198
-9.42592e-06
-0.000112511
-2.94096e-05
-1.22147e-05
6.97032e-05
-4.22763e-05
0.000180833
-8.50538e-05
0.000265855
-0.000136637
0.000328313
-0.000194116
0.000371979
-0.000255359
0.000400171
-0.00031878
0.000415431
-0.000383134
0.000419404
-0.000447336
0.000412886
-0.000510329
0.000395988
-0.000570976
0.000368358
-0.000627993
0.000329438
-0.000679895
0.000278709
-0.000724973
0.000215927
-0.000761292
0.000141342
-0.000786722
5.59076e-05
-0.000799029
-3.85246e-05
-0.000796
-0.000139017
-0.000775663
-0.000241401
-0.000736605
-0.000340226
-0.000678369
-0.000428842
-0.000601921
-0.000499733
-0.000510106
-0.000545208
-0.00040793
-0.000558507
-0.000302489
-0.000535315
-0.000202316
-0.000475396
-0.000116127
-0.000383831
-5.12284e-05
-0.000271097
-1.21592e-05
-0.00015158
-4.15688e-05
-1.26729e-05
8.23761e-05
-4.3875e-05
0.000212035
-8.82881e-05
0.000310268
-0.000141855
0.00038188
-0.00020157
0.000431693
-0.000265258
0.00046386
-0.000331349
0.000481522
-0.000398653
0.000486709
-0.000466183
0.000480415
-0.000532992
0.000462797
-0.000598067
0.000433432
-0.000660228
0.000391599
-0.000718068
0.00033655
-0.000769903
0.000267762
-0.000813744
0.000185183
-0.000847304
8.94675e-05
-0.000868043
-1.77856e-05
-0.000873278
-0.000133782
-0.000860371
-0.000254308
-0.000827044
-0.000373553
-0.00077183
-0.000484056
-0.000694668
-0.000576895
-0.000597578
-0.000642298
-0.000485264
-0.000670821
-0.000365366
-0.000655213
-0.000248002
-0.00059276
-0.000144367
-0.000487465
-6.45865e-05
-0.000350877
-1.56118e-05
-0.000200555
-5.71806e-05
-1.28641e-05
9.52402e-05
-4.46139e-05
0.000243785
-8.98674e-05
0.000355521
-0.000144489
0.000436502
-0.000205408
0.000492613
-0.000270426
0.000528877
-0.00033799
0.000549086
-0.000406981
0.0005557
-0.000476516
0.00054995
-0.000545789
0.00053207
-0.000613942
0.000501585
-0.000679959
0.000457616
-0.000742583
0.000399174
-0.00080025
0.000325429
-0.000851038
0.000235971
-0.000892634
0.000131064
-0.000922337
1.19171e-05
-0.000937121
-0.000118998
-0.000933759
-0.000257671
-0.000909094
-0.000398218
-0.000860495
-0.000532654
-0.000786536
-0.000650854
-0.00068789
-0.000740943
-0.000568318
-0.000790394
-0.000435419
-0.000788113
-0.00030062
-0.000727558
-0.000177852
-0.000610233
-8.08369e-05
-0.000447893
-1.99301e-05
-0.000261462
-7.71107e-05
-1.27799e-05
0.00010802
-4.44671e-05
0.000275472
-8.97288e-05
0.000400783
-0.000144404
0.000491177
-0.00020538
0.000553589
-0.000270438
0.000593935
-0.000338044
0.000616693
-0.000407149
0.000624804
-0.000476984
0.000619785
-0.000546901
0.000601988
-0.000616234
0.000570918
-0.000684182
0.000525564
-0.000749719
0.000464711
-0.00081151
0.00038722
-0.000867835
0.000292296
-0.000916529
0.000179758
-0.000954927
5.03152e-05
-0.000979854
-9.40707e-05
-0.000987678
-0.000249847
-0.000974468
-0.000411429
-0.000936389
-0.000570734
-0.00087039
-0.000716853
-0.00077527
-0.000836064
-0.000653057
-0.000912607
-0.000510417
-0.000930752
-0.000359418
-0.000878557
-0.000216677
-0.000752974
-0.000100279
-0.000564291
-2.5261e-05
-0.000336479
-0.000102372
-1.24353e-05
0.000120455
-4.34787e-05
0.000306515
-8.79318e-05
0.000445236
-0.000141638
0.000544883
-0.000201449
0.0006134
-0.000265119
0.000657605
-0.000331133
0.000682707
-0.000398505
0.000692176
-0.000466589
0.00068787
-0.00053491
0.000670309
-0.000603022
0.00063903
-0.000670391
0.000592933
-0.000736296
0.000530616
-0.000799735
0.000450659
-0.000859339
0.0003519
-0.000913273
0.000233692
-0.000959138
9.61806e-05
-0.000993856
-5.93531e-05
-0.00101368
-0.00023002
-0.00101414
-0.000410974
-0.000990307
-0.000594564
-0.000937432
-0.000769728
-0.000852012
-0.000921483
-0.00073352
-0.0010311
-0.00058653
-0.00107774
-0.000422589
-0.0010425
-0.000260437
-0.000915126
-0.000123073
-0.000701655
-3.17435e-05
-0.000427808
-0.000134115
-1.18771e-05
0.000132332
-4.1789e-05
0.000336427
-8.47045e-05
0.000488152
-0.000136465
0.000596643
-0.000193872
0.000670807
-0.000254648
0.000718381
-0.000317289
0.000745347
-0.000380877
0.000755765
-0.000444896
0.000751888
-0.000509057
0.00073447
-0.000573163
0.000703136
-0.000636989
0.000656759
-0.000700183
0.00059381
-0.000762172
0.000512647
-0.00082206
0.000411788
-0.000878516
0.000290149
-0.000929641
0.000147306
-0.000972708
-1.62863e-05
-0.00100423
-0.000198494
-0.00101952
-0.00039569
-0.0010129
-0.000601186
-0.00097805
-0.000804574
-0.000909005
-0.000990527
-0.000801985
-0.00113812
-0.000658196
-0.00122153
-0.000487024
-0.00121367
-0.000308038
-0.00109411
-0.000149166
-0.000860527
-3.94978e-05
-0.000537476
-0.000173613
-1.11935e-05
0.000143526
-3.96629e-05
0.000364897
-8.04909e-05
0.00052898
-0.000129457
0.000645609
-0.000183282
0.000724632
-0.000239644
0.000774744
-0.00029706
0.000802763
-0.000354696
0.000813401
-0.000412181
0.000809373
-0.000469437
0.000791727
-0.000526543
0.000760241
-0.000583616
0.000713833
-0.000640722
0.000650915
-0.000697778
0.000569704
-0.000754461
0.00046847
-0.000810072
0.000345759
-0.00086337
0.000200604
-0.000912373
3.27172e-05
-0.000953988
-0.00015688
-0.000983863
-0.000365815
-0.000996043
-0.000589006
-0.000983084
-0.000817533
-0.000936716
-0.0010369
-0.000849559
-0.00122528
-0.000718297
-0.00135279
-0.000548199
-0.00138377
-0.000357525
-0.00128479
-0.000178212
-0.00103984
-4.86159e-05
-0.000667072
-0.000222229
-1.05265e-05
0.000154052
-3.75235e-05
0.000391894
-7.60029e-05
0.000567459
-0.000121548
0.000691154
-0.000170742
0.000773827
-0.000221226
0.000825228
-0.000271566
0.000853103
-0.000321054
0.000862889
-0.000369507
0.000857825
-0.000417091
0.000839311
-0.000464189
0.00080734
-0.000511292
0.000760936
-0.00055891
0.000698533
-0.000607488
0.000618283
-0.000657316
0.000518298
-0.000708398
0.000396842
-0.000760283
0.000252488
-0.000811843
8.42771e-05
-0.00086079
-0.000107932
-0.000903481
-0.000323124
-0.000934271
-0.000558216
-0.000945272
-0.000806532
-0.000926509
-0.00105566
-0.00086717
-0.00128462
-0.000758694
-0.00146127
-0.000600271
-0.00154219
-0.00040597
-0.00147909
-0.0002095
-0.00123631
-5.91607e-05
-0.000817412
-0.00028139
-1.00912e-05
0.000164144
-3.6e-05
0.000417802
-7.2281e-05
0.00060374
-0.000114087
0.000732959
-0.000157794
0.000817534
-0.000201035
0.000868468
-0.0002425
0.000894569
-0.000281692
0.00090208
-0.000318684
0.000894817
-0.000353943
0.00087457
-0.000388196
0.000841593
-0.000422327
0.000795067
-0.000457299
0.000733506
-0.000494086
0.00065507
-0.000533586
0.000557797
-0.000576509
0.000439765
-0.000623217
0.000299196
-0.000673488
0.000134548
-0.000726079
-5.53411e-05
-0.000778395
-0.000270808
-0.000825684
-0.000510927
-0.000860441
-0.000771775
-0.000871959
-0.00104414
-0.00084677
-0.0013098
-0.000771062
-0.00153698
-0.000636436
-0.00167682
-0.000449473
-0.00166605
-0.000241914
-0.00144387
-7.1188e-05
-0.000988138
-0.000352578
-1.0213e-05
0.000174357
-3.60035e-05
0.000443593
-7.07786e-05
0.000638515
-0.000108901
0.000771082
-0.00014647
0.000855103
-0.000181199
0.000903197
-0.000212047
0.000925418
-0.000238864
0.000928896
-0.000262093
0.000918046
-0.00028258
0.000895058
-0.000301439
0.000860451
-0.000319962
0.00081359
-0.000339559
0.000753103
-0.000361696
0.000677207
-0.000387831
0.000583932
-0.000419317
0.000471251
-0.000457267
0.000337146
-0.000502357
0.000179639
-0.00055439
-3.30815e-06
-0.000612101
-0.000213097
-0.00067206
-0.000450968
-0.000728002
-0.000715833
-0.000769689
-0.00100245
-0.000782353
-0.00129714
-0.000747815
-0.00157151
-0.000649467
-0.00177516
-0.00048328
-0.00183224
-0.000273911
-0.00165324
-8.48029e-05
-0.00117725
-0.00043738
-1.13994e-05
0.000185756
-3.88559e-05
0.000471049
-7.34788e-05
0.000673138
-0.000108346
0.000805949
-0.000139264
0.000886021
-0.00016422
0.000928153
-0.000182686
0.000943884
-0.000195068
0.000941278
-0.000202338
0.000925316
-0.000205815
0.000898535
-0.000207046
0.000861681
-0.00020774
0.000814284
-0.000209719
0.000755082
-0.000214886
0.000682373
-0.000225167
0.000594213
-0.000242451
0.000488535
-0.000268479
0.000363175
-0.000304678
0.000215839
-0.000352023
4.40364e-05
-0.000410296
-0.000154824
-0.000477887
-0.000383377
-0.000550414
-0.000643306
-0.000619347
-0.00093352
-0.000670367
-0.00124612
-0.000682718
-0.00155916
-0.000632203
-0.00182568
-0.000501925
-0.00196252
-0.000303486
-0.00185168
-0.000100249
-0.00138048
-0.000537629
-1.448e-05
0.000200236
-4.65015e-05
0.000503071
-8.30411e-05
0.000709678
-0.000115312
0.000838219
-0.00013897
0.00090968
-0.000152663
0.000941846
-0.000156756
0.000947976
-0.000152503
0.000937026
-0.000141596
0.000914409
-0.000125932
0.00088287
-0.000107526
0.000843275
-8.84992e-05
0.000795257
-7.10284e-05
0.000737612
-5.73666e-05
0.000668712
-4.98044e-05
0.000586651
-5.06274e-05
0.000489358
-6.20564e-05
0.000374604
-8.61545e-05
0.000239937
-0.000124683
8.25647e-05
-0.000178754
-0.000100754
-0.000248399
-0.000313732
-0.0003316
-0.000560105
-0.000422545
-0.000842575
-0.000509247
-0.00115942
-0.00057088
-0.00149753
-0.000577693
-0.00181887
-0.000499196
-0.00204101
-0.000327997
-0.00202288
-0.000117984
-0.0015905
-0.000655613
-2.08687e-05
0.000221105
-6.18176e-05
0.00054402
-0.000102903
0.000750763
-0.000133009
0.000868326
-0.000148172
0.000924842
-0.00014839
0.000942064
-0.000135479
0.000935065
-0.000111916
0.000913464
-8.03168e-05
0.00088281
-4.32532e-05
0.000845806
-3.23266e-06
0.000803255
3.73103e-05
0.000754714
7.5881e-05
0.000699041
0.000109986
0.000634606
0.000137097
0.00055954
0.000154658
0.000471796
0.000160112
0.00036915
0.000150937
0.000249112
0.00012471
0.000108792
7.9243e-05
-5.52865e-05
1.29237e-05
-0.000247413
-7.45626e-05
-0.000472618
-0.000180891
-0.000736246
-0.000298023
-0.00104229
-0.000407914
-0.00138764
-0.000478704
-0.00174808
-0.000467664
-0.00205205
-0.000343635
-0.00214691
-0.000138592
-0.00179554
-0.000794205
-3.30259e-05
0.000254131
-8.89512e-05
0.000599945
-0.000137027
0.000798839
-0.000164036
0.000895335
-0.000167711
0.000928517
-0.000150567
0.00092492
-0.00011663
0.000901128
-7.00161e-05
0.00086685
-1.44507e-05
0.000827244
4.67861e-05
0.00078457
0.000110756
0.000739285
0.000174713
0.000690757
0.000236033
0.000637721
0.000292102
0.000578538
0.000340279
0.000511362
0.000377874
0.000434201
0.000402128
0.000344896
0.000410195
0.000241045
0.000399131
0.000119856
0.000365876
-2.20315e-05
0.000307527
-0.000189064
0.000221431
-0.000386523
0.00010653
-0.000621346
-3.41269e-05
-0.00090163
-0.000188282
-0.00123348
-0.000326418
-0.00160994
-0.000397454
-0.00198102
-0.000344162
-0.0022002
-0.000162174
-0.00197753
-0.000956379
-5.51859e-05
0.000309317
-0.000133266
0.000678025
-0.000188277
0.00085385
-0.000207276
0.000914334
-0.000192474
0.000913715
-0.000150686
0.000883131
-8.90666e-05
0.000839509
-1.37417e-05
0.000791525
7.03838e-05
0.000743119
0.000159397
0.000695557
0.000250062
0.00064862
0.000339548
0.000601271
0.000425231
0.000552038
0.000504545
0.000499224
0.000574893
0.000441014
0.000633584
0.00037551
0.000677776
0.000300704
0.000704422
0.000214399
0.000710199
0.000114078
0.000691265
-3.09705e-06
0.000643843
-0.000141642
0.000563357
-0.000306037
0.000445614
-0.000503602
0.000288435
-0.000744451
9.66767e-05
-0.00104173
-0.000107947
-0.00140532
-0.000273784
-0.00181518
-0.000318221
-0.00215576
-0.000186524
-0.00210922
-0.0011429
-9.40905e-05
0.000403407
-0.000199176
0.00078311
-0.000252303
0.000906977
-0.000248816
0.000910846
-0.00020053
0.00086543
-0.000120877
0.000803478
-2.09031e-05
0.000739535
9.12492e-05
0.000679373
0.000209793
0.000624575
0.00033057
0.00057478
0.000450435
0.000528755
0.000566802
0.000484904
0.000677342
0.000441498
0.000779781
0.000396785
0.000871767
0.000349028
0.000950776
0.000296501
0.00101403
0.000237447
0.00105843
0.000170006
0.00108039
9.21099e-05
0.00107558
1.72082e-06
0.00103954
-0.000105606
0.000966335
-0.000232832
0.000849407
-0.000386674
0.000682064
-0.000577108
0.000460739
-0.000820402
0.000195122
-0.0011397
-7.11897e-05
-0.00154887
-0.000244267
-0.00198268
-0.000203957
-0.00214953
-0.00134686
-0.00015786
0.000561267
-0.000278713
0.000903963
-0.000297502
0.000925766
-0.000237651
0.000850995
-0.000128024
0.000755803
9.8936e-06
0.000665561
0.000161933
0.000587496
0.000319248
0.000522058
0.000476453
0.000467369
0.000630214
0.000421019
0.000778299
0.000380671
0.000918989
0.000344213
0.00105072
0.000309764
0.00117187
0.000275636
0.00128061
0.000240296
0.00137479
0.000202316
0.00145192
0.000160317
0.00150903
0.000112899
0.00154255
5.85847e-05
0.00154801
-3.73241e-06
0.00152048
-7.80762e-05
0.00145335
-0.000165701
0.00133863
-0.000271957
0.00116648
-0.000404956
0.000925997
-0.000579921
0.000611515
-0.000825218
0.000244889
-0.00118224
-8.10998e-05
-0.0016567
-0.000194963
-0.00203567
-0.00154182
-0.000243251
0.000804518
-0.000302818
0.000963531
-0.0002053
0.000828249
-2.86397e-05
0.000674334
0.000178659
0.000548505
0.000393031
0.000451188
0.000603061
0.000377466
0.000803521
0.000321598
0.00099237
0.000278521
0.00116903
0.00024436
0.00133344
0.000216263
0.00148556
0.000192092
0.00162514
0.000170185
0.00175156
0.000149211
0.0018638
0.000128061
0.00196033
0.000105777
0.00203916
8.1491e-05
0.00209768
5.43776e-05
0.00213262
2.36439e-05
0.00214047
-1.1583e-05
0.00211541
-5.30128e-05
0.00205146
-0.000101748
0.00194025
-0.000160753
0.00177049
-0.00023519
0.00152637
-0.0003358
0.00118768
-0.000486532
0.000743676
-0.00073824
0.000251782
-0.0011648
-8.19929e-05
-0.0017019
-0.00162382
-0.000193222
0.00099774
2.0547e-05
0.000749761
0.000375436
0.00047336
0.000715582
0.000334188
0.0010195
0.000244587
0.00128713
0.000183563
0.00152213
0.000142465
0.0017292
0.000114523
0.00191287
9.48548e-05
0.00207685
8.03797e-05
0.00222393
6.91812e-05
0.00235602
6.00037e-05
0.00247422
5.1979e-05
0.00257896
4.44787e-05
0.00266999
3.70264e-05
0.00274653
2.92429e-05
0.0028072
2.08116e-05
0.00285009
1.14872e-05
0.00287246
1.28198e-06
0.00287223
-1.13559e-05
0.0028442
-2.4981e-05
0.00278369
-4.12357e-05
0.00268371
-6.07792e-05
0.00253398
-8.54578e-05
0.00231775
-0.000119568
0.00200576
-0.000174542
0.00155108
-0.000283559
0.000926879
-0.000540603
0.000263575
-0.00103859
-0.00136024
0.00099774
0.0017475
0.00222086
0.00255505
0.00279964
0.0029832
0.00312566
0.00324019
0.00333504
0.00341542
0.0034846
0.00354461
0.00359658
0.00364106
0.00367809
0.00370733
0.00372814
0.00373963
0.00374091
0.00372956
0.00370458
0.00366334
0.00360256
0.0035171
0.00339754
0.00322299
0.00293944
0.00239883
0.00136024
)
;

boundaryField
{
    movingWall
    {
        type            calculated;
        value           uniform 0;
    }
    fixedWalls
    {
        type            calculated;
        value           uniform 0;
    }
    frontAndBack
    {
        type            empty;
        value           nonuniform 0();
    }
}


// ************************************************************************* //
