/*--------------------------------*- C++ -*----------------------------------*\
  =========                 |
  \\      /  F ield         | OpenFOAM: The Open Source CFD Toolbox
   \\    /   O peration     | Website:  https://openfoam.org
    \\  /    A nd           | Version:  7
     \\/     M anipulation  |
\*---------------------------------------------------------------------------*/
FoamFile
{
    version     2.0;
    format      ascii;
    class       volVectorField;
    location    "5.6";
    object      U;
}
// * * * * * * * * * * * * * * * * * * * * * * * * * * * * * * * * * * * * * //

dimensions      [0 1 -1 0 0 0 0];

internalField   nonuniform List<vector> 
900
(
(0.000141589 -0.000140681 0)
(0.000233923 -4.92437e-05 0)
(-9.3014e-05 0.00010388 0)
(-0.000833878 0.00023721 0)
(-0.00189832 0.000332203 0)
(-0.00319197 0.000392071 0)
(-0.00462875 0.000425485 0)
(-0.00613833 0.000439912 0)
(-0.0076632 0.000439685 0)
(-0.0091521 0.000426124 0)
(-0.0105542 0.000398329 0)
(-0.0118154 0.000354184 0)
(-0.0128771 0.000291395 0)
(-0.0136779 0.000208512 0)
(-0.0141574 0.00010586 0)
(-0.0142629 -1.37528e-05 0)
(-0.0139562 -0.000144967 0)
(-0.0132221 -0.00027893 0)
(-0.0120756 -0.000404529 0)
(-0.0105659 -0.000509287 0)
(-0.00877824 -0.000580894 0)
(-0.00682961 -0.000609089 0)
(-0.00486013 -0.000587477 0)
(-0.00301974 -0.000514895 0)
(-0.00145112 -0.000396093 0)
(-0.000269699 -0.000242703 0)
(0.000440768 -7.54047e-05 0)
(0.000663179 8.65447e-05 0)
(0.000484184 0.000190423 0)
(0.000155704 0.000154533 0)
(5.62892e-05 -0.000240127 0)
(-0.000328462 0.000326778 0)
(-0.00167989 0.00108757 0)
(-0.00390115 0.00176271 0)
(-0.00683464 0.00227541 0)
(-0.0102953 0.00262217 0)
(-0.0140969 0.00282495 0)
(-0.018071 0.00290755 0)
(-0.0220667 0.00288558 0)
(-0.0259425 0.00276455 0)
(-0.0295582 0.00254205 0)
(-0.0327696 0.00221165 0)
(-0.0354285 0.00176762 0)
(-0.037387 0.00120963 0)
(-0.0385076 0.00054682 0)
(-0.0386768 -0.000199194 0)
(-0.03782 -0.000992453 0)
(-0.0359178 -0.00178349 0)
(-0.0330198 -0.00251244 0)
(-0.0292521 -0.00311447 0)
(-0.0248175 -0.00352751 0)
(-0.0199862 -0.00370117 0)
(-0.0150768 -0.00360555 0)
(-0.0104267 -0.00323818 0)
(-0.00635693 -0.00262806 0)
(-0.00313156 -0.00183824 0)
(-0.000922431 -0.000968745 0)
(0.000228593 -0.000145007 0)
(0.000469728 0.00043701 0)
(0.000197783 0.000481482 0)
(-0.000109536 9.02176e-05 0)
(-0.00117492 0.00169643 0)
(-0.00374261 0.00355076 0)
(-0.00750032 0.00518594 0)
(-0.0122106 0.00645264 0)
(-0.0176306 0.0073286 0)
(-0.0235083 0.00784419 0)
(-0.0296064 0.00803972 0)
(-0.0357039 0.00794375 0)
(-0.0415879 0.00756707 0)
(-0.0470467 0.00690605 0)
(-0.0518649 0.00595084 0)
(-0.0558254 0.00469572 0)
(-0.0587172 0.00314961 0)
(-0.0603493 0.0013451 0)
(-0.0605681 -0.0006552 0)
(-0.0592773 -0.00275545 0)
(-0.0564587 -0.00483001 0)
(-0.0521878 -0.00673048 0)
(-0.0466435 -0.00829904 0)
(-0.0401081 -0.0093863 0)
(-0.0329554 -0.00987198 0)
(-0.0256258 -0.00968538 0)
(-0.0185884 -0.00882229 0)
(-0.0122938 -0.00735578 0)
(-0.0071204 -0.00544033 0)
(-0.00332177 -0.00331188 0)
(-0.000977663 -0.00128396 0)
(4.92387e-05 0.000241555 0)
(0.000132632 0.000710972 0)
(-0.000281334 0.000912945 0)
(-0.00206742 0.00411777 0)
(-0.00591144 0.00741834 0)
(-0.0112244 0.01026 0)
(-0.0176602 0.0124535 0)
(-0.0249186 0.0139705 0)
(-0.0326956 0.0148527 0)
(-0.0407032 0.015156 0)
(-0.0486692 0.0149202 0)
(-0.0563282 0.0141597 0)
(-0.0634137 0.0128693 0)
(-0.0696559 0.0110371 0)
(-0.074785 0.00866138 0)
(-0.0785411 0.00576729 0)
(-0.0806906 0.00242118 0)
(-0.0810466 -0.00125962 0)
(-0.079491 -0.00510387 0)
(-0.0759977 -0.00889004 0)
(-0.0706511 -0.01236 0)
(-0.063658 -0.0152404 0)
(-0.0553502 -0.0172727 0)
(-0.0461727 -0.0182467 0)
(-0.0366583 -0.0180357 0)
(-0.0273845 -0.016627 0)
(-0.0189181 -0.0141413 0)
(-0.0117509 -0.0108402 0)
(-0.00623344 -0.00712258 0)
(-0.00251331 -0.00351254 0)
(-0.000509074 -0.000648658 0)
(4.41434e-05 0.000668861 0)
(-0.000440211 0.0022138 0)
(-0.00292987 0.00759739 0)
(-0.00803966 0.0126862 0)
(-0.0148824 0.016937 0)
(-0.0229874 0.0201752 0)
(-0.031993 0.0223941 0)
(-0.0415484 0.0236589 0)
(-0.0513266 0.0240444 0)
(-0.0610186 0.0236004 0)
(-0.0703218 0.0223434 0)
(-0.0789304 0.0202655 0)
(-0.086534 0.0173528 0)
(-0.0928211 0.0136095 0)
(-0.0974912 0.00908018 0)
(-0.100271 0.00387021 0)
(-0.100939 -0.00184183 0)
(-0.0993427 -0.00780029 0)
(-0.0954323 -0.0136764 0)
(-0.0892778 -0.019088 0)
(-0.0810875 -0.0236288 0)
(-0.0712151 -0.0269093 0)
(-0.0601544 -0.0286069 0)
(-0.0485151 -0.028517 0)
(-0.0369793 -0.0266009 0)
(-0.0262388 -0.0230186 0)
(-0.0169192 -0.0181423 0)
(-0.00949777 -0.012548 0)
(-0.004225 -0.00698756 0)
(-0.00111153 -0.00235172 0)
(-4.13301e-05 0.000313446 0)
(-0.000583649 0.00396532 0)
(-0.0037365 0.0121021 0)
(-0.0100589 0.0193242 0)
(-0.0183704 0.0251802 0)
(-0.0280721 0.0295661 0)
(-0.0387397 0.0325318 0)
(-0.0499793 0.0341844 0)
(-0.0614331 0.0346251 0)
(-0.0727676 0.0339157 0)
(-0.0836554 0.0320737 0)
(-0.0937643 0.0290863 0)
(-0.102754 0.0249357 0)
(-0.110281 0.01963 0)
(-0.116007 0.0132321 0)
(-0.119617 0.00588552 0)
(-0.120845 -0.00216983 0)
(-0.119492 -0.0105918 0)
(-0.115458 -0.0189384 0)
(-0.108772 -0.0266921 0)
(-0.0996142 -0.0332957 0)
(-0.0883328 -0.0382039 0)
(-0.075449 -0.0409493 0)
(-0.0616404 -0.0412158 0)
(-0.0476995 -0.0389079 0)
(-0.0344648 -0.0342039 0)
(-0.0227315 -0.0275801 0)
(-0.0131467 -0.0197999 0)
(-0.00610589 -0.0118658 0)
(-0.00174515 -0.00494704 0)
(-0.000119352 -0.000357587 0)
(-0.000712881 0.0061325 0)
(-0.00447795 0.01757 0)
(-0.0119325 0.0272608 0)
(-0.0216232 0.0349124 0)
(-0.032829 0.0405444 0)
(-0.0450654 0.0442995 0)
(-0.0579008 0.0463487 0)
(-0.0709545 0.0468303 0)
(-0.0838781 0.045822 0)
(-0.0963309 0.0433419 0)
(-0.107966 0.0393692 0)
(-0.118422 0.0338778 0)
(-0.127329 0.0268742 0)
(-0.134314 0.0184328 0)
(-0.139018 0.00872769 0)
(-0.141117 -0.00194648 0)
(-0.140347 -0.0131656 0)
(-0.136533 -0.0243747 0)
(-0.129633 -0.0349136 0)
(-0.119764 -0.0440553 0)
(-0.107238 -0.0510682 0)
(-0.0925766 -0.0552988 0)
(-0.0765145 -0.0562701 0)
(-0.0599607 -0.0537811 0)
(-0.0439283 -0.0479905 0)
(-0.0294278 -0.0394615 0)
(-0.0173326 -0.0291522 0)
(-0.00823638 -0.0183463 0)
(-0.00244047 -0.00853673 0)
(-0.000195707 -0.00135755 0)
(-0.000828458 0.00867764 0)
(-0.00514693 0.0239224 0)
(-0.0136323 0.0363986 0)
(-0.0245872 0.0460298 0)
(-0.0371806 0.0530068 0)
(-0.0508747 0.0576006 0)
(-0.0652069 0.0600685 0)
(-0.0797815 0.060599 0)
(-0.0942446 0.0592909 0)
(-0.108252 0.0561624 0)
(-0.121453 0.0511815 0)
(-0.133474 0.0443072 0)
(-0.143926 0.0355345 0)
(-0.152402 0.0249377 0)
(-0.158496 0.0127068 0)
(-0.161818 -0.000823436 0)
(-0.162019 -0.0151525 0)
(-0.158827 -0.0296262 0)
(-0.152095 -0.0434379 0)
(-0.141839 -0.0556736 0)
(-0.128295 -0.0653813 0)
(-0.111953 -0.0716696 0)
(-0.0935785 -0.0738347 0)
(-0.0741967 -0.0715001 0)
(-0.0550192 -0.0647441 0)
(-0.0373235 -0.0541811 0)
(-0.0222787 -0.0409661 0)
(-0.0107467 -0.0267035 0)
(-0.0032504 -0.0132771 0)
(-0.000280493 -0.00272495 0)
(-0.000929269 0.0115594 0)
(-0.00573293 0.0310668 0)
(-0.0151273 0.0466187 0)
(-0.0272055 0.058404 0)
(-0.0410425 0.0668271 0)
(-0.0560564 0.0723193 0)
(-0.0717612 0.0752466 0)
(-0.0877545 0.0758608 0)
(-0.103686 0.0742878 0)
(-0.119217 0.0705471 0)
(-0.134002 0.064591 0)
(-0.147668 0.0563552 0)
(-0.159812 0.0458113 0)
(-0.170001 0.033017 0)
(-0.177779 0.0181598 0)
(-0.182682 0.00159389 0)
(-0.184268 -0.0161309 0)
(-0.182153 -0.0342691 0)
(-0.176047 -0.051873 0)
(-0.165828 -0.0678312 0)
(-0.151607 -0.0809384 0)
(-0.133793 -0.0900074 0)
(-0.113146 -0.0940262 0)
(-0.0907806 -0.0923464 0)
(-0.0681204 -0.0848741 0)
(-0.046759 -0.072212 0)
(-0.0282425 -0.055699 0)
(-0.0137934 -0.0373055 0)
(-0.0042388 -0.0193965 0)
(-0.000385366 -0.00453059 0)
(-0.00101283 0.0147301 0)
(-0.00622176 0.038894 0)
(-0.0163813 0.0577784 0)
(-0.029414 0.0718791 0)
(-0.0443187 0.0818491 0)
(-0.0604791 0.0883088 0)
(-0.0773942 0.0917534 0)
(-0.0946621 0.0925115 0)
(-0.111943 0.0907432 0)
(-0.128916 0.0864705 0)
(-0.145249 0.0796262 0)
(-0.160578 0.070114 0)
(-0.174499 0.0578679 0)
(-0.186559 0.0429103 0)
(-0.196263 0.0254031 0)
(-0.203079 0.00569296 0)
(-0.206466 -0.0156545 0)
(-0.205907 -0.0378206 0)
(-0.200954 -0.0597339 0)
(-0.191309 -0.0800863 0)
(-0.176905 -0.0973948 0)
(-0.158007 -0.110119 0)
(-0.135298 -0.116846 0)
(-0.109937 -0.116533 0)
(-0.0835407 -0.108782 0)
(-0.0580539 -0.0940766 0)
(-0.0354883 -0.073897 0)
(-0.017545 -0.05062 0)
(-0.0054755 -0.0272041 0)
(-0.000522788 -0.00688139 0)
(-0.0010759 0.0181335 0)
(-0.00659715 0.047276 0)
(-0.0173548 0.0697091 0)
(-0.0311438 0.0862673 0)
(-0.0469047 0.09788 0)
(-0.0639966 0.10538 0)
(-0.0819099 0.109412 0)
(-0.10025 0.110392 0)
(-0.118694 0.108525 0)
(-0.136946 0.103837 0)
(-0.154698 0.0962378 0)
(-0.171608 0.0855921 0)
(-0.187283 0.0717825 0)
(-0.201266 0.054776 0)
(-0.213036 0.0346828 0)
(-0.222008 0.0118104 0)
(-0.22755 -0.0132869 0)
(-0.229016 -0.0397609 0)
(-0.22579 -0.066446 0)
(-0.217366 -0.0918547 0)
(-0.203447 -0.11422 0)
(-0.184076 -0.131604 0)
(-0.159771 -0.142097 0)
(-0.131641 -0.144118 0)
(-0.101436 -0.136784 0)
(-0.0714567 -0.120295 0)
(-0.0442607 -0.0961699 0)
(-0.0221721 -0.0672088 0)
(-0.00703422 -0.0370934 0)
(-0.000706192 -0.00992256 0)
(-0.00111519 0.0217042 0)
(-0.00684336 0.0560653 0)
(-0.0180104 0.0822159 0)
(-0.0323284 0.101348 0)
(-0.0486979 0.114686 0)
(-0.06646 0.123295 0)
(-0.0851018 0.127984 0)
(-0.104239 0.129273 0)
(-0.123574 0.127416 0)
(-0.142838 0.122449 0)
(-0.161761 0.114263 0)
(-0.180033 0.102673 0)
(-0.197288 0.0875012 0)
(-0.213088 0.0686414 0)
(-0.226906 0.0461274 0)
(-0.23813 0.020196 0)
(-0.246065 -0.00864951 0)
(-0.249953 -0.0395765 0)
(-0.249019 -0.0713731 0)
(-0.242536 -0.102414 0)
(-0.229935 -0.130671 0)
(-0.210957 -0.153791 0)
(-0.185838 -0.169291 0)
(-0.155504 -0.174895 0)
(-0.121719 -0.169012 0)
(-0.0870829 -0.151304 0)
(-0.0547537 -0.123144 0)
(-0.0278365 -0.0877107 0)
(-0.00899153 -0.0495403 0)
(-0.000950533 -0.0138395 0)
(-0.00112814 0.0253685 0)
(-0.00694865 0.0650982 0)
(-0.0183196 0.0950803 0)
(-0.0329155 0.116868 0)
(-0.0496118 0.131993 0)
(-0.0677366 0.141762 0)
(-0.0867762 0.147164 0)
(-0.106359 0.148836 0)
(-0.126213 0.147093 0)
(-0.146106 0.14199 0)
(-0.16581 0.133395 0)
(-0.185063 0.12108 0)
(-0.203544 0.104796 0)
(-0.220856 0.084352 0)
(-0.2365 0.0596857 0)
(-0.249872 0.0309341 0)
(-0.260252 -0.00149121 0)
(-0.266815 -0.0368258 0)
(-0.268656 -0.0738741 0)
(-0.264839 -0.110943 0)
(-0.254503 -0.145802 0)
(-0.237017 -0.175712 0)
(-0.212213 -0.197577 0)
(-0.180661 -0.208285 0)
(-0.143949 -0.205281 0)
(-0.104838 -0.187348 0)
(-0.067068 -0.155387 0)
(-0.0346771 -0.112807 0)
(-0.0114253 -0.0650957 0)
(-0.00127294 -0.0188592 0)
(-0.00111383 0.0290479 0)
(-0.0069092 0.0742003 0)
(-0.0182718 0.108067 0)
(-0.0328798 0.132551 0)
(-0.049595 0.149486 0)
(-0.0677341 0.160435 0)
(-0.0867825 0.166575 0)
(-0.106382 0.168675 0)
(-0.126285 0.167125 0)
(-0.146301 0.162004 0)
(-0.166253 0.153172 0)
(-0.185936 0.140355 0)
(-0.205096 0.123237 0)
(-0.223399 0.101536 0)
(-0.240413 0.0750821 0)
(-0.255585 0.0438896 0)
(-0.268225 0.00824202 0)
(-0.277497 -0.0312185 0)
(-0.282422 -0.0733865 0)
(-0.281901 -0.116597 0)
(-0.274794 -0.158519 0)
(-0.260061 -0.196113 0)
(-0.237019 -0.225698 0)
(-0.20569 -0.243238 0)
(-0.167236 -0.244956 0)
(-0.124326 -0.228329 0)
(-0.0811557 -0.1933 0)
(-0.0427878 -0.143163 0)
(-0.0144113 -0.0843691 0)
(-0.00169336 -0.0252516 0)
(-0.0010738 0.0326643 0)
(-0.00673341 0.083198 0)
(-0.0178838 0.120937 0)
(-0.0322383 0.148103 0)
(-0.0486513 0.166825 0)
(-0.0664267 0.178923 0)
(-0.0850467 0.185778 0)
(-0.104164 0.188301 0)
(-0.12356 0.186972 0)
(-0.143086 0.18191 0)
(-0.162618 0.172975 0)
(-0.182026 0.159861 0)
(-0.201136 0.142191 0)
(-0.219706 0.119596 0)
(-0.237402 0.0917954 0)
(-0.253772 0.058671 0)
(-0.268216 0.0203507 0)
(-0.279953 -0.0226938 0)
(-0.28801 -0.0695262 0)
(-0.291205 -0.11862 0)
(-0.288171 -0.167687 0)
(-0.277476 -0.213538 0)
(-0.257853 -0.252021 0)
(-0.228602 -0.278182 0)
(-0.190164 -0.286823 0)
(-0.144761 -0.27365 0)
(-0.0967517 -0.236969 0)
(-0.0521875 -0.179345 0)
(-0.0180182 -0.107999 0)
(-0.00223502 -0.0333282 0)
(-0.00101299 0.0361479 0)
(-0.00644649 0.0919342 0)
(-0.0172099 0.133464 0)
(-0.0310664 0.163233 0)
(-0.0468615 0.183654 0)
(-0.0638814 0.196804 0)
(-0.0816035 0.204279 0)
(-0.099692 0.207152 0)
(-0.117956 0.206004 0)
(-0.136291 0.201013 0)
(-0.15464 0.192055 0)
(-0.172947 0.178808 0)
(-0.191138 0.160845 0)
(-0.209084 0.137727 0)
(-0.226582 0.10907 0)
(-0.243322 0.0746251 0)
(-0.258847 0.0343535 0)
(-0.272507 -0.0114794 0)
(-0.283426 -0.0621877 0)
(-0.290437 -0.116485 0)
(-0.292049 -0.172294 0)
(-0.286511 -0.226485 0)
(-0.271984 -0.274653 0)
(-0.246931 -0.311064 0)
(-0.210792 -0.329031 0)
(-0.164901 -0.32206 0)
(-0.113302 -0.285994 0)
(-0.062781 -0.221696 0)
(-0.022299 -0.136609 0)
(-0.00292498 -0.0434388 0)
(-0.000940793 0.0394476 0)
(-0.00609547 0.100289 0)
(-0.0163531 0.145458 0)
(-0.0295141 0.177675 0)
(-0.0444024 0.199621 0)
(-0.0602811 0.21364 0)
(-0.0766228 0.221556 0)
(-0.0931068 0.224618 0)
(-0.109575 0.223531 0)
(-0.125974 0.218547 0)
(-0.142316 0.209578 0)
(-0.158634 0.1963 0)
(-0.17496 0.178265 0)
(-0.191298 0.154975 0)
(-0.207594 0.125967 0)
(-0.223711 0.0908716 0)
(-0.239382 0.0494881 0)
(-0.254161 0.00185902 0)
(-0.267341 -0.0516245 0)
(-0.277874 -0.110021 0)
(-0.284295 -0.17163 0)
(-0.284671 -0.233625 0)
(-0.276691 -0.291655 0)
(-0.257974 -0.339503 0)
(-0.226759 -0.369124 0)
(-0.183042 -0.37156 0)
(-0.129905 -0.339315 0)
(-0.0743172 -0.27019 0)
(-0.027283 -0.170738 0)
(-0.00379524 -0.0559643 0)
(-0.000872422 0.0425442 0)
(-0.00575559 0.108206 0)
(-0.0154776 0.156796 0)
(-0.0278215 0.191212 0)
(-0.041565 0.214405 0)
(-0.055942 0.229001 0)
(-0.0704273 0.237075 0)
(-0.0847261 0.240071 0)
(-0.0987251 0.238836 0)
(-0.112434 0.233715 0)
(-0.125942 0.224672 0)
(-0.139379 0.211406 0)
(-0.152893 0.193463 0)
(-0.166626 0.170317 0)
(-0.180689 0.141444 0)
(-0.195129 0.106383 0)
(-0.209897 0.0647829 0)
(-0.224784 0.0164713 0)
(-0.239325 -0.0384602 0)
(-0.2527 -0.0994963 0)
(-0.263608 -0.165449 0)
(-0.270124 -0.234038 0)
(-0.269661 -0.301326 0)
(-0.259127 -0.361057 0)
(-0.235512 -0.404216 0)
(-0.197106 -0.419406 0)
(-0.145297 -0.395063 0)
(-0.0863522 -0.324254 0)
(-0.0329697 -0.210761 0)
(-0.00488573 -0.071308 0)
(-0.000831616 0.0454683 0)
(-0.00554004 0.115727 0)
(-0.0148252 0.167455 0)
(-0.0263379 0.203704 0)
(-0.0387689 0.22773 0)
(-0.051323 0.242482 0)
(-0.0634947 0.250313 0)
(-0.0750393 0.252888 0)
(-0.0859115 0.251211 0)
(-0.0962016 0.245735 0)
(-0.106089 0.236492 0)
(-0.115809 0.223223 0)
(-0.125631 0.205488 0)
(-0.135835 0.182753 0)
(-0.146693 0.154464 0)
(-0.158442 0.120089 0)
(-0.171247 0.0791636 0)
(-0.185146 0.0313221 0)
(-0.199953 -0.0236349 0)
(-0.215158 -0.0856293 0)
(-0.22975 -0.154069 0)
(-0.242017 -0.227415 0)
(-0.249364 -0.3025 0)
(-0.248265 -0.373577 0)
(-0.234611 -0.431299 0)
(-0.204815 -0.46227 0)
(-0.157884 -0.450502 0)
(-0.0982255 -0.382591 0)
(-0.0393301 -0.256777 0)
(-0.00625191 -0.0898892 0)
(-0.00085623 0.048325 0)
(-0.00561722 0.123034 0)
(-0.01474 0.177545 0)
(-0.025543 0.215109 0)
(-0.0365743 0.239381 0)
(-0.0470232 0.253706 0)
(-0.0564418 0.260766 0)
(-0.0646782 0.262465 0)
(-0.0717919 0.259978 0)
(-0.0779801 0.253875 0)
(-0.083531 0.244264 0)
(-0.0887937 0.230938 0)
(-0.0941578 0.213486 0)
(-0.100037 0.191388 0)
(-0.106853 0.164076 0)
(-0.115012 0.130981 0)
(-0.124877 0.0915527 0)
(-0.136718 0.0452757 0)
(-0.150628 -0.00830284 0)
(-0.166436 -0.0695192 0)
(-0.183519 -0.138368 0)
(-0.200557 -0.214155 0)
(-0.215246 -0.294776 0)
(-0.224013 -0.375546 0)
(-0.222018 -0.447631 0)
(-0.20391 -0.496523 0)
(-0.165831 -0.50209 0)
(-0.109053 -0.443034 0)
(-0.0463179 -0.30849 0)
(-0.0079805 -0.112148 0)
(-0.0010104 0.0513343 0)
(-0.00624275 0.130504 0)
(-0.015707 0.187353 0)
(-0.0260735 0.225499 0)
(-0.0356853 0.249199 0)
(-0.0437606 0.262324 0)
(-0.0499793 0.267941 0)
(-0.0543495 0.268218 0)
(-0.0570886 0.2645 0)
(-0.0585368 0.257467 0)
(-0.0591109 0.247304 0)
(-0.0592802 0.233855 0)
(-0.0595516 0.216745 0)
(-0.0604586 0.195475 0)
(-0.0625506 0.169483 0)
(-0.0663765 0.138179 0)
(-0.0724613 0.100961 0)
(-0.0812713 0.0572045 0)
(-0.0931653 0.0062635 0)
(-0.108286 -0.0525196 0)
(-0.12642 -0.119673 0)
(-0.146789 -0.195334 0)
(-0.167646 -0.278607 0)
(-0.185812 -0.366334 0)
(-0.196268 -0.451109 0)
(-0.19233 -0.518617 0)
(-0.167159 -0.545662 0)
(-0.117718 -0.502444 0)
(-0.0538832 -0.36506 0)
(-0.0102173 -0.138573 0)
(-0.00141022 0.0548996 0)
(-0.00781785 0.138791 0)
(-0.0184094 0.197368 0)
(-0.0287475 0.235046 0)
(-0.0369284 0.257048 0)
(-0.0423051 0.267965 0)
(-0.0448049 0.271322 0)
(-0.0446947 0.269555 0)
(-0.0424183 0.264158 0)
(-0.0385005 0.255898 0)
(-0.0335056 0.245015 0)
(-0.0280264 0.231394 0)
(-0.0226771 0.214688 0)
(-0.01809 0.194421 0)
(-0.0149152 0.170044 0)
(-0.013809 0.140962 0)
(-0.0154199 0.106542 0)
(-0.0203669 0.066096 0)
(-0.0292083 0.0188515 0)
(-0.042375 -0.0360561 0)
(-0.0600677 -0.0995743 0)
(-0.0820804 -0.172537 0)
(-0.107418 -0.255229 0)
(-0.133706 -0.346281 0)
(-0.156406 -0.44054 0)
(-0.168249 -0.525454 0)
(-0.159768 -0.576695 0)
(-0.122824 -0.556661 0)
(-0.0619561 -0.424912 0)
(-0.0132052 -0.169761 0)
(-0.00227558 0.0597336 0)
(-0.0109896 0.148917 0)
(-0.0237976 0.208287 0)
(-0.034552 0.243952 0)
(-0.0411468 0.262716 0)
(-0.0432913 0.270149 0)
(-0.0413512 0.27029 0)
(-0.035984 0.265811 0)
(-0.0279411 0.258303 0)
(-0.017972 0.248563 0)
(-0.00679938 0.236845 0)
(0.00486389 0.223044 0)
(0.0163147 0.20683 0)
(0.026851 0.187742 0)
(0.0357539 0.165241 0)
(0.0422969 0.138737 0)
(0.0457491 0.107589 0)
(0.0453838 0.0710809 0)
(0.0404901 0.0283862 0)
(0.0303993 -0.0214799 0)
(0.0145532 -0.0797056 0)
(-0.00740138 -0.147611 0)
(-0.0352984 -0.226436 0)
(-0.0678613 -0.316591 0)
(-0.101687 -0.415734 0)
(-0.129905 -0.514653 0)
(-0.141314 -0.590576 0)
(-0.122528 -0.600487 0)
(-0.0703243 -0.485447 0)
(-0.0173079 -0.206484 0)
(-0.00402959 0.0670918 0)
(-0.0168046 0.162384 0)
(-0.0331168 0.220914 0)
(-0.0444726 0.252258 0)
(-0.0488424 0.265707 0)
(-0.0467099 0.268092 0)
(-0.0391621 0.263961 0)
(-0.0274094 0.256121 0)
(-0.0125896 0.246144 0)
(0.00429477 0.234769 0)
(0.0223612 0.222197 0)
(0.0408044 0.208289 0)
(0.0588633 0.192708 0)
(0.0757953 0.174992 0)
(0.0908529 0.154611 0)
(0.103277 0.130986 0)
(0.112293 0.103487 0)
(0.117102 0.0714063 0)
(0.116881 0.0339194 0)
(0.110768 -0.00997549 0)
(0.0979119 -0.0615513 0)
(0.0774879 -0.122355 0)
(0.048868 -0.194242 0)
(0.0120959 -0.279087 0)
(-0.0310532 -0.377445 0)
(-0.075207 -0.48473 0)
(-0.10888 -0.582841 0)
(-0.114165 -0.627642 0)
(-0.0782565 -0.542533 0)
(-0.0229353 -0.249616 0)
(-0.00747066 0.0791929 0)
(-0.0268869 0.181207 0)
(-0.0476919 0.235825 0)
(-0.0588068 0.259371 0)
(-0.0591078 0.264794 0)
(-0.050571 0.260343 0)
(-0.035382 0.250905 0)
(-0.0154691 0.239197 0)
(0.00759237 0.226583 0)
(0.032556 0.213608 0)
(0.0584174 0.200333 0)
(0.0843246 0.186532 0)
(0.109509 0.171822 0)
(0.133239 0.155732 0)
(0.154782 0.137736 0)
(0.173388 0.117277 0)
(0.188272 0.0937541 0)
(0.198601 0.066503 0)
(0.203472 0.0347546 0)
(0.201863 -0.00242427 0)
(0.192705 -0.0462426 0)
(0.174799 -0.0982408 0)
(0.14685 -0.160514 0)
(0.107777 -0.23584 0)
(0.0574841 -0.327233 0)
(-0.00116491 -0.435268 0)
(-0.0583443 -0.549488 0)
(-0.0934903 -0.6307 0)
(-0.0836453 -0.589696 0)
(-0.0301644 -0.29979 0)
(-0.0139846 0.0998953 0)
(-0.0433873 0.207539 0)
(-0.0677578 0.252416 0)
(-0.0749254 0.26308 0)
(-0.0667016 0.257202 0)
(-0.0476258 0.244178 0)
(-0.0213573 0.228734 0)
(0.00939099 0.213079 0)
(0.0426688 0.198084 0)
(0.0770935 0.183922 0)
(0.111654 0.170408 0)
(0.145555 0.157173 0)
(0.178111 0.143763 0)
(0.208676 0.129684 0)
(0.236599 0.114426 0)
(0.261189 0.0974645 0)
(0.281695 0.0782567 0)
(0.297288 0.0562151 0)
(0.307028 0.030675 0)
(0.309777 0.000837681 0)
(0.304326 -0.0343015 0)
(0.289193 -0.0761225 0)
(0.262606 -0.126605 0)
(0.222603 -0.188774 0)
(0.167385 -0.267174 0)
(0.0967584 -0.367032 0)
(0.0166241 -0.487544 0)
(-0.0532389 -0.601228 0)
(-0.0814961 -0.617295 0)
(-0.0377488 -0.357266 0)
(-0.0253953 0.135678 0)
(-0.0673926 0.241419 0)
(-0.0877915 0.266019 0)
(-0.0806553 0.257163 0)
(-0.0547963 0.236981 0)
(-0.018275 0.21466 0)
(0.0238743 0.193679 0)
(0.0685211 0.175065 0)
(0.113736 0.158833 0)
(0.15834 0.144599 0)
(0.201585 0.131854 0)
(0.242938 0.120058 0)
(0.281949 0.108684 0)
(0.318175 0.0972307 0)
(0.35113 0.0852221 0)
(0.380256 0.0721988 0)
(0.404895 0.0577048 0)
(0.424277 0.0412664 0)
(0.43748 0.0223622 0)
(0.44335 0.00037056 0)
(0.440612 -0.0253771 0)
(0.427604 -0.0560006 0)
(0.402303 -0.0931124 0)
(0.362198 -0.139385 0)
(0.304212 -0.199623 0)
(0.225202 -0.281955 0)
(0.12578 -0.395278 0)
(0.019223 -0.530642 0)
(-0.0617351 -0.61196 0)
(-0.0410428 -0.421255 0)
(-0.0411782 0.197826 0)
(-0.0900094 0.273328 0)
(-0.0798517 0.259438 0)
(-0.0367924 0.225885 0)
(0.0202195 0.192379 0)
(0.0815439 0.163821 0)
(0.1427 0.140761 0)
(0.20158 0.122389 0)
(0.257286 0.10764 0)
(0.309524 0.0955627 0)
(0.358247 0.0853717 0)
(0.403466 0.0764262 0)
(0.445153 0.0681949 0)
(0.483191 0.0602282 0)
(0.51735 0.0521361 0)
(0.547271 0.0435693 0)
(0.572455 0.034202 0)
(0.592253 0.0237134 0)
(0.60583 0.0117631 0)
(0.612205 -0.00206183 0)
(0.610133 -0.0181277 0)
(0.597907 -0.0371432 0)
(0.573533 -0.0601813 0)
(0.534325 -0.0891323 0)
(0.476538 -0.127812 0)
(0.394884 -0.184337 0)
(0.284108 -0.273911 0)
(0.145218 -0.410595 0)
(-0.00381011 -0.5539 0)
(-0.0254976 -0.477351 0)
(-0.0339907 0.294039 0)
(-0.0474967 0.273088 0)
(0.0543425 0.199866 0)
(0.157387 0.149705 0)
(0.249946 0.114563 0)
(0.331534 0.0894073 0)
(0.403152 0.0715842 0)
(0.466071 0.0588788 0)
(0.521653 0.0495802 0)
(0.571112 0.0425254 0)
(0.615392 0.036942 0)
(0.655165 0.0322959 0)
(0.690856 0.0282004 0)
(0.722679 0.0243629 0)
(0.750658 0.0205532 0)
(0.774645 0.0165813 0)
(0.79433 0.0122828 0)
(0.809251 0.00750969 0)
(0.818732 0.00211606 0)
(0.822094 -0.00397508 0)
(0.818323 -0.0110989 0)
(0.806036 -0.0194972 0)
(0.783576 -0.0296199 0)
(0.7486 -0.0423832 0)
(0.697489 -0.0598122 0)
(0.624152 -0.0869621 0)
(0.518362 -0.137322 0)
(0.364991 -0.240395 0)
(0.144008 -0.407012 0)
(0.0588225 -0.458305 0)
(0.303288 0.180955 0)
(0.382697 0.144376 0)
(0.561128 0.0912259 0)
(0.687027 0.0590242 0)
(0.769673 0.0393217 0)
(0.82909 0.02677 0)
(0.874677 0.0188208 0)
(0.910854 0.0138026 0)
(0.940393 0.0105679 0)
(0.965159 0.00839813 0)
(0.986345 0.00686245 0)
(1.00468 0.00569867 0)
(1.02061 0.00474117 0)
(1.03436 0.00388113 0)
(1.04599 0.00304372 0)
(1.05547 0.00217462 0)
(1.06265 0.0012311 0)
(1.06731 0.000181609 0)
(1.06918 -0.00100912 0)
(1.06784 -0.00226318 0)
(1.06276 -0.00377201 0)
(1.05341 -0.00556097 0)
(1.039 -0.00769971 0)
(1.01831 -0.0103919 0)
(0.989294 -0.0141314 0)
(0.947852 -0.0202557 0)
(0.884205 -0.0326501 0)
(0.77646 -0.0638108 0)
(0.544848 -0.139497 0)
(0.38249 -0.20175 0)
)
;

boundaryField
{
    movingWall
    {
        type            fixedValue;
        value           uniform (1.2 0 0);
    }
    fixedWalls
    {
        type            noSlip;
    }
    frontAndBack
    {
        type            empty;
    }
}


// ************************************************************************* //
