/*--------------------------------*- C++ -*----------------------------------*\
  =========                 |
  \\      /  F ield         | OpenFOAM: The Open Source CFD Toolbox
   \\    /   O peration     | Website:  https://openfoam.org
    \\  /    A nd           | Version:  7
     \\/     M anipulation  |
\*---------------------------------------------------------------------------*/
FoamFile
{
    version     2.0;
    format      ascii;
    class       volScalarField;
    location    "5.8";
    object      p;
}
// * * * * * * * * * * * * * * * * * * * * * * * * * * * * * * * * * * * * * //

dimensions      [0 2 -2 0 0 0 0];

internalField   nonuniform List<scalar> 
900
(
7.64714e-07
-0.000322391
-0.000838864
-0.0013776
-0.00184385
-0.00217829
-0.00235121
-0.00234926
-0.00216563
-0.00179564
-0.00123626
-0.000487942
0.000442098
0.00153618
0.00276298
0.00407558
0.00541159
0.00669592
0.00784645
0.0087824
0.0094345
0.00975551
0.0097294
0.00937726
0.00875928
0.0079707
0.00712401
0.00637717
0.00586667
0.00572275
0.000322316
-1.21302e-05
-0.000403035
-0.000794458
-0.00112818
-0.00136167
-0.00147141
-0.00144439
-0.00127231
-0.000949218
-0.000471412
0.00016116
0.000942497
0.00185777
0.00288076
0.00397223
0.00508191
0.00614728
0.0071012
0.007878
0.00842197
0.00869623
0.00869009
0.00842346
0.00794718
0.00733887
0.00669297
0.00611002
0.00570907
0.00557686
0.00085868
0.000365918
-3.81422e-05
-0.00038749
-0.000669825
-0.000859322
-0.000942172
-0.000910545
-0.000757885
-0.00047805
-6.59183e-05
0.000480943
0.00115984
0.0019602
0.00286102
0.00382967
0.0048207
0.0057783
0.00664067
0.00734634
0.00784251
0.00809368
0.00808893
0.00784601
0.00741101
0.00685342
0.00625718
0.00571021
0.00529768
0.00508411
0.00144027
0.000739446
0.000263721
-9.59031e-05
-0.000369483
-0.000547377
-0.000626947
-0.000607453
-0.000485326
-0.000254409
9.25597e-05
0.000561743
0.00115533
0.00186831
0.00268545
0.00357913
0.00450808
0.0054188
0.00624977
0.00693769
0.00742631
0.00767572
0.00767052
0.0074245
0.00698037
0.0064041
0.00577605
0.00518095
0.00468643
0.00431984
0.00194374
0.00101974
0.000451635
5.8315e-05
-0.000229555
-0.000417054
-0.000512325
-0.000521602
-0.00044412
-0.000273253
1.22169e-06
0.000390304
0.000902312
0.00153898
0.00229155
0.00313759
0.00403974
0.00494486
0.00578888
0.0065029
0.00702257
0.00729882
0.00730744
0.00705536
0.00658109
0.00594905
0.00524082
0.00454462
0.00391855
0.00335533
0.00226179
0.00111744
0.000449091
7.91495e-06
-0.000311529
-0.000527429
-0.000657554
-0.0007142
-0.000698596
-0.000602811
-0.000412702
-0.000111289
0.000317166
0.000882505
0.00158368
0.00240426
0.00331113
0.00425068
0.00515461
0.00594514
0.00654535
0.00689152
0.00694511
0.00670156
0.00619272
0.00548203
0.00465643
0.00381495
0.00301403
0.00221753
0.00230293
0.000951384
0.00018284
-0.00031423
-0.000678455
-0.000939825
-0.00112445
-0.00124949
-0.00131713
-0.00131717
-0.00123048
-0.00103286
-0.000699636
-0.000211061
0.000441276
0.00124843
0.00218536
0.00319669
0.0042096
0.00513516
0.0058793
0.00635729
0.00650881
0.00631075
0.00578331
0.00498756
0.0040189
0.00299466
0.00197786
0.000907605
0.00198692
0.000447361
-0.000416402
-0.000973546
-0.00139338
-0.00171672
-0.0019769
-0.00219485
-0.00237272
-0.00249713
-0.00254294
-0.00247742
-0.00226517
-0.0018743
-0.00128425
-0.000494597
0.000488504
0.00160287
0.00277414
0.00390144
0.00486939
0.00556473
0.00589549
0.00580949
0.00530653
0.00444074
0.00331736
0.00207935
0.000804463
-0.000591104
0.00124212
-0.00046208
-0.00141345
-0.00203328
-0.00251914
-0.00292198
-0.00328156
-0.00362171
-0.00394392
-0.00423095
-0.00445084
-0.004561
-0.00451336
-0.00426089
-0.00376433
-0.00299953
-0.00198771
-0.000753984
0.000621029
0.00202324
0.00331246
0.00433872
0.00496581
0.0050974
0.00469866
0.00380716
0.00253623
0.00106135
-0.000516726
-0.00230477
5.73859e-06
-0.001836
-0.00286587
-0.00355087
-0.00411401
-0.00461597
-0.00510239
-0.00559964
-0.00610835
-0.00660726
-0.00705715
-0.00740454
-0.00758661
-0.00753772
-0.0071974
-0.00652051
-0.00549519
-0.00414054
-0.00252742
-0.000776619
0.000946196
0.00244671
0.00352966
0.00403426
0.00386927
0.00303822
0.00165511
-6.68497e-05
-0.00199515
-0.00426076
-0.00177399
-0.00372261
-0.00482096
-0.00557392
-0.0062268
-0.00684962
-0.0074938
-0.00818836
-0.00893345
-0.00970428
-0.0104545
-0.0111193
-0.0116192
-0.0118665
-0.0117735
-0.0112646
-0.0102922
-0.00884957
-0.00698814
-0.00482662
-0.00255241
-0.00040885
0.00133447
0.00242711
0.00269041
0.00206484
0.000647746
-0.0013091
-0.00363257
-0.00647918
-0.00413477
-0.00615655
-0.00731252
-0.00813637
-0.00889189
-0.00965828
-0.010493
-0.0114283
-0.0124651
-0.0135761
-0.0147089
-0.0157875
-0.016715
-0.0173783
-0.0176571
-0.017436
-0.0166226
-0.0151676
-0.0130867
-0.0104815
-0.00755009
-0.00458303
-0.00193612
2.2931e-05
0.000987535
0.000790915
-0.000519222
-0.00266156
-0.00541535
-0.00896331
-0.00709701
-0.00915621
-0.010358
-0.0112548
-0.0121244
-0.0130553
-0.0141117
-0.0153304
-0.0167145
-0.0182366
-0.0198398
-0.0214383
-0.0229175
-0.0241377
-0.0249412
-0.025165
-0.0246602
-0.023319
-0.0211015
-0.0180697
-0.0144127
-0.0104557
-0.00664359
-0.00348542
-0.00146268
-0.000910598
-0.00188662
-0.00410727
-0.00730454
-0.0116875
-0.0106612
-0.0127219
-0.0139567
-0.0149254
-0.015916
-0.0170264
-0.0183285
-0.0198657
-0.0216457
-0.0236433
-0.0258002
-0.0280228
-0.0301803
-0.0321061
-0.0336027
-0.0344541
-0.0344457
-0.0333937
-0.0311839
-0.0278118
-0.0234276
-0.018365
-0.0131446
-0.00842863
-0.00491851
-0.00319331
-0.00349922
-0.00560789
-0.00922229
-0.0145805
-0.0148065
-0.0168354
-0.0180887
-0.0191231
-0.0202325
-0.0215251
-0.0230827
-0.0249573
-0.0271645
-0.0296846
-0.0324605
-0.0353941
-0.0383412
-0.0411096
-0.0434626
-0.0451288
-0.0458219
-0.0452707
-0.0432708
-0.0397217
-0.0346993
-0.028506
-0.0217034
-0.0150955
-0.00963253
-0.00621645
-0.00539367
-0.00709012
-0.011033
-0.0175029
-0.0194917
-0.0214618
-0.0227172
-0.0238021
-0.0250133
-0.0264713
-0.0282709
-0.0304763
-0.033114
-0.0361729
-0.0396011
-0.0432988
-0.0471116
-0.0508254
-0.0541666
-0.0568107
-0.0583988
-0.0585666
-0.0570145
-0.0535174
-0.0480426
-0.0408122
-0.0323743
-0.0236303
-0.0157759
-0.0100979
-0.00757112
-0.0084237
-0.0125171
-0.0202162
-0.0246583
-0.0265543
-0.0277928
-0.0288994
-0.0301736
-0.0317525
-0.0337484
-0.0362423
-0.0392754
-0.0428485
-0.0469175
-0.0513841
-0.056087
-0.0607937
-0.0651987
-0.0689292
-0.0715613
-0.0726483
-0.0717647
-0.0685766
-0.0629093
-0.0548557
-0.0448809
-0.0339087
-0.0233297
-0.0148356
-0.00994772
-0.00938688
-0.0133361
-0.0223428
-0.0302374
-0.032062
-0.0332612
-0.0343415
-0.0356101
-0.0372282
-0.0393337
-0.0420303
-0.0453783
-0.0493931
-0.0540402
-0.0592247
-0.0647803
-0.0704598
-0.0759309
-0.0807796
-0.0845255
-0.0866481
-0.0866131
-0.08397
-0.0783929
-0.0698102
-0.0585381
-0.0454269
-0.0319643
-0.0202019
-0.0122796
-0.00961494
-0.0129863
-0.023314
-0.0361602
-0.0379427
-0.0390739
-0.0400525
-0.0412069
-0.0427364
-0.0448166
-0.0475823
-0.0511173
-0.0554537
-0.0605666
-0.0663642
-0.0726756
-0.0792407
-0.0857041
-0.091618
-0.0964546
-0.0996288
-0.100528
-0.0985857
-0.0933319
-0.0845179
-0.0722637
-0.057254
-0.0409445
-0.0256322
-0.0140659
-0.00852981
-0.010739
-0.0223051
-0.0423737
-0.0441803
-0.0452032
-0.0459642
-0.0468432
-0.0481008
-0.0499682
-0.0526221
-0.0561739
-0.0606724
-0.0661003
-0.0723659
-0.0792912
-0.0866019
-0.0939216
-0.100773
-0.106589
-0.110733
-0.112527
-0.111315
-0.106497
-0.0976568
-0.0847021
-0.0680876
-0.0491096
-0.030146
-0.0144475
-0.00525099
-0.00556585
-0.0181482
-0.0488666
-0.0508109
-0.0516593
-0.0520256
-0.0523983
-0.0531368
-0.0545513
-0.0568719
-0.0602403
-0.0647188
-0.070292
-0.0768621
-0.084238
-0.0921273
-0.10013
-0.107741
-0.114358
-0.119302
-0.121848
-0.121242
-0.116803
-0.107965
-0.0944351
-0.076417
-0.0549566
-0.0323398
-0.0121326
0.00150312
0.00395494
-0.00920902
-0.0557137
-0.057962
-0.0585133
-0.0582104
-0.0577541
-0.0576549
-0.0583293
-0.0600691
-0.063044
-0.0673209
-0.0728758
-0.0795954
-0.0872646
-0.0955669
-0.104074
-0.112248
-0.119452
-0.124965
-0.128007
-0.127772
-0.12348
-0.11445
-0.100217
-0.0807549
-0.0568229
-0.0304782
-0.00538341
0.0135024
0.0197535
0.00679903
-0.0631638
-0.0659159
-0.0659245
-0.0645217
-0.0627923
-0.0614625
-0.0610759
-0.0619841
-0.0643711
-0.068292
-0.0736962
-0.0804461
-0.0882817
-0.0968573
-0.105707
-0.114256
-0.121825
-0.127647
-0.130889
-0.130678
-0.126147
-0.116516
-0.101163
-0.0798733
-0.0531272
-0.0226836
0.00790084
0.0330493
0.0444189
0.0331188
-0.0718273
-0.0752187
-0.0741764
-0.0709928
-0.0673909
-0.0643681
-0.0625893
-0.062441
-0.0640907
-0.0675546
-0.0727335
-0.0794328
-0.0873556
-0.0961034
-0.105166
-0.113924
-0.121649
-0.127521
-0.130638
-0.130054
-0.1248
-0.113981
-0.096847
-0.0730004
-0.0426476
-0.00724581
0.0299491
0.0629364
0.0814164
0.0744363
-0.0830983
-0.0868649
-0.0837098
-0.0776765
-0.0714162
-0.0661857
-0.0627071
-0.0613365
-0.0621712
-0.0651452
-0.0700827
-0.0767166
-0.084689
-0.0935437
-0.102719
-0.111542
-0.119233
-0.124904
-0.127581
-0.126229
-0.119731
-0.107081
-0.087357
-0.059952
-0.0248505
0.0169177
0.0626108
0.106198
0.135262
0.137382
-0.100136
-0.102626
-0.0951196
-0.0845937
-0.074687
-0.0667135
-0.0612892
-0.058622
-0.0586557
-0.0611892
-0.065935
-0.072535
-0.0805561
-0.0894792
-0.0986862
-0.107451
-0.114936
-0.120187
-0.122152
-0.119716
-0.111506
-0.0964507
-0.073382
-0.0414019
-0.000136049
0.0498669
0.106594
0.165312
0.211061
0.230458
-0.130053
-0.125548
-0.109163
-0.0916962
-0.0769241
-0.0656785
-0.0581657
-0.0542543
-0.0536184
-0.055854
-0.060526
-0.0671688
-0.0752685
-0.0842426
-0.0934201
-0.102026
-0.109168
-0.113832
-0.11488
-0.111054
-0.101024
-0.0832853
-0.0564344
-0.0191666
0.0294971
0.089895
0.161403
0.240403
0.312765
0.365336
-0.188863
-0.159071
-0.126237
-0.0984571
-0.0773523
-0.062434
-0.0529471
-0.0480923
-0.0471097
-0.0493234
-0.0541281
-0.0609491
-0.0692006
-0.0782499
-0.0873879
-0.0958048
-0.102573
-0.106632
-0.106785
-0.10169
-0.0899503
-0.0697827
-0.0394402
0.00295045
0.0593532
0.131705
0.221816
0.328965
0.44255
0.568838
-0.320237
-0.199013
-0.137918
-0.0972074
-0.0700105
-0.0526704
-0.0426694
-0.0381314
-0.0377541
-0.0406291
-0.0460505
-0.053396
-0.0620583
-0.071397
-0.0807008
-0.0891603
-0.0958474
-0.0996959
-0.0994871
-0.0937511
-0.0811777
-0.059815
-0.0276142
0.0178624
0.0797652
0.162469
0.272428
0.41812
0.606501
0.896043
-0.647485
-0.235405
-0.10646
-0.0622277
-0.0381835
-0.0247332
-0.0189354
-0.0181585
-0.0207861
-0.0259841
-0.0332089
-0.041976
-0.0517837
-0.0620741
-0.0722016
-0.0814087
-0.08881
-0.093382
-0.093973
-0.0893506
-0.0776844
-0.0573553
-0.0262963
0.0181407
0.079687
0.164581
0.285256
0.470008
0.776181
1.37005
)
;

boundaryField
{
    movingWall
    {
        type            zeroGradient;
    }
    fixedWalls
    {
        type            zeroGradient;
    }
    frontAndBack
    {
        type            empty;
    }
}


// ************************************************************************* //
