/*--------------------------------*- C++ -*----------------------------------*\
  =========                 |
  \\      /  F ield         | OpenFOAM: The Open Source CFD Toolbox
   \\    /   O peration     | Website:  https://openfoam.org
    \\  /    A nd           | Version:  7
     \\/     M anipulation  |
\*---------------------------------------------------------------------------*/
FoamFile
{
    version     2.0;
    format      ascii;
    class       surfaceScalarField;
    location    "5.8";
    object      phi;
}
// * * * * * * * * * * * * * * * * * * * * * * * * * * * * * * * * * * * * * //

dimensions      [0 3 -1 0 0 0 0];

internalField   nonuniform List<scalar> 
1740
(
7.23513e-07
-7.24152e-07
3.25222e-07
3.98283e-07
-1.55615e-06
1.88137e-06
-4.75296e-06
3.19681e-06
-8.93328e-06
4.18033e-06
-1.37686e-05
4.83536e-06
-1.89838e-05
5.21514e-06
-2.43557e-05
5.3719e-06
-2.96938e-05
5.33815e-06
-3.48183e-05
5.1245e-06
-3.95431e-05
4.72479e-06
-4.36675e-05
4.12437e-06
-4.6977e-05
3.30955e-06
-4.9254e-05
2.27694e-06
-5.02958e-05
1.04177e-06
-4.99394e-05
-3.56383e-07
-4.80889e-05
-1.85045e-06
-4.47434e-05
-3.34558e-06
-4.00173e-05
-4.72601e-06
-3.41514e-05
-5.86599e-06
-2.75067e-05
-6.64464e-06
-2.0543e-05
-6.96373e-06
-1.37782e-05
-6.76483e-06
-7.73536e-06
-6.04281e-06
-2.88217e-06
-4.8532e-06
4.35651e-07
-3.31782e-06
2.07219e-06
-1.63654e-06
2.12115e-06
-4.8965e-08
1.04531e-06
1.07584e-06
1.04532e-06
-3.82475e-07
-3.41691e-07
-3.47891e-06
3.49473e-06
-9.77663e-06
8.17911e-06
-1.88932e-05
1.23134e-05
-3.02132e-05
1.55003e-05
-4.30707e-05
1.76929e-05
-5.68401e-05
1.89845e-05
-7.09579e-05
1.94897e-05
-8.49069e-05
1.92871e-05
-9.81873e-05
1.84049e-05
-0.000110294
1.68311e-05
-0.000120705
1.45358e-05
-0.000128893
1.1498e-05
-0.00013435
7.73357e-06
-0.000136626
3.3179e-06
-0.000135391
-1.59115e-06
-0.000130474
-6.76789e-06
-0.000121932
-1.18877e-05
-0.000110079
-1.65785e-05
-9.5504e-05
-2.04414e-05
-7.905e-05
-2.30987e-05
-6.17668e-05
-2.42469e-05
-4.48225e-05
-2.37091e-05
-2.93878e-05
-2.14776e-05
-1.65015e-05
-1.77395e-05
-6.93167e-06
-1.28876e-05
-1.04842e-06
-7.51979e-06
1.34759e-06
-2.44498e-06
1.12805e-06
1.29539e-06
2.17336e-06
-2.02147e-06
1.67978e-06
-8.6989e-06
1.01722e-05
-1.98447e-05
1.93249e-05
-3.48146e-05
2.72834e-05
-5.2755e-05
3.34407e-05
-7.27663e-05
3.77042e-05
-9.3983e-05
4.02012e-05
-0.000115595
4.11016e-05
-0.000136833
4.05249e-05
-0.000156942
3.8514e-05
-0.000175162
3.50513e-05
-0.000190723
3.0097e-05
-0.000202863
2.36381e-05
-0.000210866
1.57367e-05
-0.000214121
6.57255e-06
-0.000212183
-3.52885e-06
-0.000204852
-1.40988e-05
-0.000192233
-2.45066e-05
-0.000174782
-3.40293e-05
-0.000153323
-4.19006e-05
-0.000129026
-4.73964e-05
-0.000103339
-4.99334e-05
-7.78813e-05
-4.91669e-05
-5.42853e-05
-4.50736e-05
-3.40193e-05
-3.80055e-05
-1.81975e-05
-2.87094e-05
-7.39974e-06
-1.83176e-05
-1.52223e-06
-8.32249e-06
3.54487e-07
-5.81326e-07
2.52785e-06
-3.7537e-06
5.43349e-06
-1.41923e-05
2.06108e-05
-3.03457e-05
3.54783e-05
-5.11232e-05
4.80609e-05
-7.53892e-05
5.77067e-05
-0.000102034
6.43493e-05
-0.000130009
6.81761e-05
-0.000158324
6.94159e-05
-0.000186023
6.8224e-05
-0.000212161
6.46523e-05
-0.000235784
5.86745e-05
-0.000255932
5.02445e-05
-0.000271661
3.93676e-05
-0.000282097
2.61718e-05
-0.000286492
1.0968e-05
-0.000284309
-5.71235e-06
-0.000275294
-2.31135e-05
-0.000259557
-4.02439e-05
-0.000237619
-5.59669e-05
-0.000210442
-6.90773e-05
-0.00017941
-7.84284e-05
-0.000146263
-8.3081e-05
-0.000112973
-8.24571e-05
-8.15705e-05
-7.64757e-05
-5.39302e-05
-6.56458e-05
-3.15374e-05
-5.11022e-05
-1.52736e-05
-3.45814e-05
-5.24481e-06
-1.83513e-05
-7.01607e-07
-5.12453e-06
1.82624e-06
-5.41359e-06
1.08471e-05
-1.95669e-05
3.47641e-05
-4.06701e-05
5.65814e-05
-6.71168e-05
7.45076e-05
-9.74515e-05
8.80414e-05
-0.000130357
9.72545e-05
-0.000164629
0.000102449
-0.000199146
0.000103932
-0.000232818
0.000101897
-0.000264566
9.63997e-05
-0.000293291
8.74001e-05
-0.000317889
7.48426e-05
-0.000337273
5.87513e-05
-0.000350425
3.93241e-05
-0.000356469
1.70113e-05
-0.000354747
-7.43437e-06
-0.000344905
-3.2955e-05
-0.000326985
-5.81636e-05
-0.000301487
-8.14652e-05
-0.000269413
-0.000101151
-0.000232271
-0.00011557
-0.000192024
-0.000123329
-0.000150964
-0.000123517
-0.000111528
-0.000115911
-7.60482e-05
-0.000101126
-4.6471e-05
-8.06794e-05
-2.40956e-05
-5.69568e-05
-9.3714e-06
-3.30754e-05
-1.80705e-06
-1.26889e-05
1.91825e-08
-6.9563e-06
1.78034e-05
-2.46493e-05
5.24571e-05
-5.05019e-05
8.2434e-05
-8.23828e-05
0.000106388
-0.000118506
0.000124164
-0.00015735
0.000136099
-0.000197581
0.00014268
-0.000237977
0.000144328
-0.000277363
0.000141282
-0.000314565
0.000133602
-0.000348389
0.000121224
-0.000377619
0.000104072
-0.000401045
8.21777e-05
-0.000417515
5.57936e-05
-0.000425999
2.54956e-05
-0.000425682
-7.75159e-06
-0.000416037
-4.25997e-05
-0.00039695
-7.72508e-05
-0.000368795
-0.00010962
-0.000332515
-0.000137432
-0.000289655
-0.00015843
-0.000242343
-0.000170641
-0.000193187
-0.000172673
-0.00014508
-0.000164019
-0.00010091
-0.000145296
-6.32266e-05
-0.000118363
-3.38989e-05
-8.62845e-05
-1.3853e-05
-5.31213e-05
-2.94696e-06
-2.35949e-05
-2.92778e-06
-8.36963e-06
2.6173e-05
-2.93519e-05
7.34394e-05
-5.9651e-05
0.000112733
-9.66396e-05
0.000143377
-0.000138216
0.000165741
-0.00018267
0.000180554
-0.000228561
0.00018857
-0.000274597
0.000190364
-0.000319556
0.000186241
-0.000362213
0.000176259
-0.000401311
0.000160322
-0.000435553
0.000138315
-0.000463624
0.000110248
-0.00048423
7.63993e-05
-0.000496165
3.74307e-05
-0.000498409
-5.50797e-06
-0.000490173
-5.08355e-05
-0.000471094
-9.63297e-05
-0.000441307
-0.000139406
-0.000401576
-0.000177163
-0.00035338
-0.000206626
-0.00029895
-0.000225071
-0.000241195
-0.000230428
-0.000183521
-0.000221693
-0.000129506
-0.00019931
-8.24822e-05
-0.000165387
-4.50846e-05
-0.000123682
-1.88819e-05
-7.9324e-05
-4.17864e-06
-3.82982e-05
-7.10642e-06
-9.64228e-06
3.58153e-05
-3.36067e-05
9.74038e-05
-6.79632e-05
0.00014709
-0.000109642
0.000185056
-0.000156257
0.000212356
-0.000205939
0.000230235
-0.000257161
0.000239792
-0.000308598
0.000241802
-0.00035901
0.000236653
-0.00040716
0.000224409
-0.000451764
0.000204926
-0.000491472
0.000178023
-0.000524876
0.000143653
-0.000550544
0.000102067
-0.000567063
5.39497e-05
-0.000573184
6.13e-07
-0.000567749
-5.62709e-05
-0.000550069
-0.00011401
-0.000519909
-0.000169566
-0.000477717
-0.000219355
-0.000424776
-0.000259566
-0.000363312
-0.000286535
-0.000296493
-0.000297247
-0.000228275
-0.000289911
-0.000163059
-0.000264526
-0.000105173
-0.000223273
-5.82673e-05
-0.000170588
-2.47789e-05
-0.000112812
-5.60241e-06
-5.74747e-05
-1.27088e-05
-1.07544e-05
4.65697e-05
-3.73354e-05
0.000123985
-7.52749e-05
0.000185029
-0.000121127
0.000230908
-0.000172269
0.000263498
-0.000226698
0.000284664
-0.000282836
0.00029593
-0.00033935
0.000298316
-0.000395018
0.000292321
-0.000448624
0.000278014
-0.000498891
0.000255193
-0.000544448
0.000223581
-0.000583822
0.000183027
-0.000615449
0.000133695
-0.000637727
7.62279e-05
-0.000649019
1.1905e-05
-0.00064795
-5.73403e-05
-0.000633286
-0.000128674
-0.00060432
-0.000198532
-0.000561035
-0.00026264
-0.000504347
-0.000316254
-0.000436316
-0.000354567
-0.000360253
-0.000373309
-0.000280646
-0.000369518
-0.000202822
-0.00034235
-0.000132336
-0.000293759
-7.41677e-05
-0.000228756
-3.19299e-05
-0.00015505
-7.33807e-06
-8.20666e-05
-2.00469e-05
-1.16778e-05
5.82475e-05
-4.04445e-05
0.000152751
-8.14016e-05
0.000225986
-0.000130803
0.000280309
-0.000185836
0.000318531
-0.000244402
0.000343231
-0.000304896
0.000356424
-0.000366006
0.000359426
-0.000426556
0.000352872
-0.000485386
0.000336844
-0.000541264
0.000311071
-0.000592835
0.000275151
-0.00063859
0.000228783
-0.000676868
0.000171972
-0.000705869
0.000105229
-0.000723703
2.97391e-05
-0.000728538
-5.25058e-05
-0.000718668
-0.000138544
-0.000692787
-0.000224413
-0.000650249
-0.000305179
-0.000591394
-0.000375109
-0.000517886
-0.000428075
-0.00043297
-0.000458226
-0.000341539
-0.000460949
-0.000249877
-0.000434012
-0.000164984
-0.000378652
-9.35377e-05
-0.000300203
-4.07516e-05
-0.000207836
-9.51516e-06
-0.000113303
-2.95621e-05
-1.23799e-05
7.06274e-05
-4.28317e-05
0.000183203
-8.61464e-05
0.000269301
-0.000138356
0.000332518
-0.000196507
0.000376683
-0.000258437
0.00040516
-0.000322534
0.000420521
-0.000387531
0.000424423
-0.000452327
0.000417668
-0.000515847
0.000400364
-0.000576943
0.000372166
-0.000634319
0.000332527
-0.000686484
0.000280948
-0.000731727
0.000217215
-0.000768113
0.000141615
-0.000793514
5.51409e-05
-0.000805702
-4.03182e-05
-0.000802461
-0.000141784
-0.000781822
-0.000245052
-0.000742366
-0.000344634
-0.000683634
-0.000433842
-0.00060659
-0.000505118
-0.000514084
-0.000550731
-0.000411146
-0.000563887
-0.000304909
-0.000540249
-0.000203965
-0.000479596
-0.000117096
-0.000387072
-5.16689e-05
-0.000273263
-1.22698e-05
-0.000152702
-4.18319e-05
-1.2829e-05
8.34565e-05
-4.44008e-05
0.000214775
-8.93234e-05
0.000314224
-0.000143484
0.000386679
-0.000203835
0.000437033
-0.00026817
0.000469495
-0.000334891
0.000487242
-0.00040279
0.000492322
-0.000470859
0.000485737
-0.00053814
0.000467645
-0.000603606
0.000437633
-0.000666073
0.000394993
-0.00072413
0.000339005
-0.000776094
0.000269179
-0.000819982
0.000185504
-0.000853514
8.8673e-05
-0.000874157
-1.96754e-05
-0.000879232
-0.000136709
-0.000866101
-0.000258184
-0.000832478
-0.000378257
-0.000776887
-0.000489433
-0.000699251
-0.000582754
-0.000601583
-0.0006484
-0.00048859
-0.000676879
-0.00036794
-0.000660899
-0.000249804
-0.000597732
-0.000145454
-0.000491422
-6.50944e-05
-0.000353623
-1.57436e-05
-0.000202053
-5.75755e-05
-1.30017e-05
9.64581e-05
-4.508e-05
0.000246853
-9.07894e-05
0.000359933
-0.000145944
0.000441834
-0.000207434
0.000498523
-0.000273028
0.000535089
-0.000341149
0.000555363
-0.000410656
0.000561829
-0.000480649
0.00055573
-0.000550309
0.000537306
-0.00061877
0.000506093
-0.000685011
0.000461235
-0.000747778
0.000401772
-0.000805514
0.000326915
-0.000856305
0.000236295
-0.000897853
0.000130221
-0.000927468
9.93957e-06
-0.000942136
-0.000122041
-0.00093863
-0.00026169
-0.000913788
-0.000403099
-0.000864961
-0.00053826
-0.000790698
-0.000657017
-0.000691645
-0.000747453
-0.000571546
-0.000796978
-0.000438007
-0.000794438
-0.000302496
-0.000733243
-0.000179021
-0.000614897
-8.14003e-05
-0.000451244
-2.00819e-05
-0.000263371
-7.76574e-05
-1.28899e-05
0.000109348
-4.48449e-05
0.000278808
-9.04837e-05
0.000405572
-0.000145604
0.000496954
-0.000207057
0.000559977
-0.000272593
0.000600625
-0.000340655
0.000623425
-0.000410171
0.000631344
-0.000480356
0.000625915
-0.000550552
0.000607501
-0.000620084
0.000575625
-0.000688152
0.000529303
-0.000753736
0.000467355
-0.00081551
0.000388689
-0.000871772
0.000292557
-0.000920376
0.000178825
-0.000958677
4.8241e-05
-0.000983516
-9.72025e-05
-0.000991269
-0.000253937
-0.000978001
-0.000416368
-0.000939858
-0.000576403
-0.000873756
-0.000723119
-0.00077845
-0.000842758
-0.000655928
-0.0009195
-0.000512835
-0.000937531
-0.000361255
-0.000884823
-0.000217871
-0.000758281
-0.000100877
-0.000568237
-2.54293e-05
-0.000338819
-0.000103087
-1.25099e-05
0.000121858
-4.37429e-05
0.000310041
-8.84715e-05
0.0004503
-0.000142509
0.000550991
-0.000202678
0.000620146
-0.000266705
0.000664652
-0.00033305
0.00068977
-0.000400707
0.000699001
-0.000469014
0.000694222
-0.000537485
0.000675973
-0.000605671
0.000643811
-0.00067304
0.000596672
-0.000738879
0.000533194
-0.000802204
0.000452013
-0.000861664
0.000352018
-0.00091545
0.000232612
-0.000961191
9.39822e-05
-0.000995833
-6.25612e-05
-0.00101564
-0.000234127
-0.00101614
-0.000415866
-0.000992409
-0.000600139
-0.00093964
-0.000775888
-0.000854283
-0.000928114
-0.000735748
-0.00103804
-0.000588558
-0.00108472
-0.00042424
-0.00104914
-0.000261577
-0.000920944
-0.000123675
-0.000706139
-3.1922e-05
-0.000430572
-0.000135009
-1.19101e-05
0.000133768
-4.19193e-05
0.00034005
-8.49896e-05
0.000493371
-0.000136947
0.000602949
-0.000194573
0.000677771
-0.000255564
0.000725643
-0.000318393
0.000752599
-0.000382125
0.000762733
-0.000446226
0.000758324
-0.000510401
0.000740148
-0.000574451
0.00070786
-0.000638154
0.000660375
-0.000701171
0.000596211
-0.000762946
0.000513788
-0.000822608
0.00041168
-0.000878857
0.000288861
-0.00092982
0.000144946
-0.00097281
-1.95721e-05
-0.00100435
-0.000202586
-0.00101976
-0.000400456
-0.00101336
-0.000606535
-0.000978813
-0.000810439
-0.000910076
-0.000996852
-0.000803297
-0.00114481
-0.000659603
-0.00122842
-0.000488323
-0.00122042
-0.000309026
-0.00110024
-0.00014973
-0.000865435
-3.96772e-05
-0.000540625
-0.000174686
-1.1181e-05
0.000144949
-3.96451e-05
0.000368515
-8.04935e-05
0.000534219
-0.000129507
0.000651962
-0.000183394
0.000731659
-0.000239816
0.000782065
-0.000297267
0.00081005
-0.000354897
0.000820363
-0.000412323
0.000815749
-0.00046946
0.000797285
-0.000526385
0.000764786
-0.000583226
0.000717215
-0.000640058
0.000653043
-0.000696821
0.000570551
-0.000753214
0.000468073
-0.000808569
0.000344216
-0.000861681
0.000198058
-0.000910584
2.93312e-05
-0.000952236
-0.000160935
-0.000982285
-0.000370407
-0.000994781
-0.000594039
-0.000982259
-0.000822961
-0.0009364
-0.00104271
-0.000849745
-0.00123147
-0.00071888
-0.00135928
-0.000548978
-0.00139032
-0.000358253
-0.00129097
-0.000178687
-0.001045
-4.87833e-05
-0.000670528
-0.000223469
-1.04666e-05
0.000155416
-3.73504e-05
0.000395398
-7.57074e-05
0.000572576
-0.00012114
0.000697395
-0.000170232
0.000780751
-0.000220612
0.000832445
-0.000270831
0.000860269
-0.000320166
0.000869698
-0.000368424
0.000864007
-0.000415768
0.000844629
-0.000462583
0.000811602
-0.000509369
0.000764001
-0.000556648
0.000700323
-0.000604886
0.000618788
-0.000654393
0.00051758
-0.000705202
0.000395026
-0.000756889
0.000249744
-0.000808358
8.08004e-05
-0.000857346
-0.000111946
-0.000900232
-0.000327521
-0.000931382
-0.000562889
-0.000942899
-0.000811444
-0.000924778
-0.00106083
-0.000866138
-0.00129011
-0.00075832
-0.0014671
-0.000600394
-0.00154825
-0.000406332
-0.00148503
-0.000209829
-0.0012415
-5.93002e-05
-0.000821058
-0.000282769
-9.98435e-06
0.0001654
-3.56715e-05
0.000421085
-7.16855e-05
0.00060859
-0.000113217
0.000738926
-0.000156655
0.000824189
-0.000199627
0.000875418
-0.000240818
0.000901459
-0.000279717
0.000908597
-0.000316393
0.000900683
-0.000351314
0.000879551
-0.00038521
0.000845498
-0.000418975
0.000797766
-0.000453585
0.000734933
-0.000490029
0.000655232
-0.000529223
0.000556774
-0.000571897
0.000437701
-0.000618436
0.000296283
-0.000668639
0.000131004
-0.000721293
-5.92926e-05
-0.00077381
-0.000275004
-0.000821462
-0.000515237
-0.000856753
-0.000776153
-0.000868963
-0.00104862
-0.000844581
-0.00131449
-0.000769711
-0.00154197
-0.000635831
-0.00168213
-0.000449388
-0.00167147
-0.000242045
-0.00144885
-7.12827e-05
-0.00099182
-0.000354052
-1.00614e-05
0.000175461
-3.55261e-05
0.00044655
-6.98943e-05
0.000642958
-0.000107584
0.000776616
-0.000144721
0.000861325
-0.000179023
0.00090972
-0.000209451
0.000931888
-0.000235849
0.000934995
-0.000258662
0.000923496
-0.000278739
0.000899627
-0.000297199
0.000863958
-0.000315346
0.000815913
-0.000334601
0.000754187
-0.00035644
0.000677071
-0.000382333
0.000582666
-0.000413642
0.00046901
-0.000451492
0.000334133
-0.000496565
0.000176076
-0.000548714
-7.14345e-06
-0.000606628
-0.00021709
-0.000666936
-0.000454929
-0.000723382
-0.000719707
-0.000765737
-0.00100627
-0.000779218
-0.00130101
-0.000745594
-0.00157559
-0.000648152
-0.00177957
-0.000482716
-0.00183691
-0.000273805
-0.00165776
-8.4837e-05
-0.00118079
-0.000438889
-1.12071e-05
0.000186669
-3.82431e-05
0.000473586
-7.23306e-05
0.000677046
-0.000106618
0.000810903
-0.000136951
0.000891659
-0.000161335
0.000934103
-0.000179248
0.000949801
-0.000191103
0.00094685
-0.000197877
0.00093027
-0.000200897
0.000902647
-0.000201719
0.00086478
-0.000202063
0.000816257
-0.000203759
0.000755883
-0.000208713
0.000682025
-0.000218857
0.00059281
-0.000236078
0.000486231
-0.000262118
0.000360173
-0.00029841
0.000212368
-0.000345888
4.03349e-05
-0.00040441
-0.000158568
-0.000472338
-0.000387001
-0.000545319
-0.000646726
-0.000614846
-0.00093674
-0.000666615
-0.00124924
-0.000679853
-0.00156235
-0.000630294
-0.00182913
-0.000500908
-0.00196629
-0.00030313
-0.00185554
-0.000100211
-0.00138371
-0.0005391
-1.4253e-05
0.000200922
-4.5775e-05
0.000505108
-8.16704e-05
0.000712941
-0.000113235
0.000842468
-0.000136175
0.000914598
-0.000149166
0.000947094
-0.000152591
0.000953226
-0.000147721
0.00094198
-0.000136258
0.000918808
-0.000120113
0.000886502
-0.000101311
0.000845977
-8.19879e-05
0.000796935
-6.43172e-05
0.000738213
-5.05545e-05
0.000668263
-4.29845e-05
0.00058524
-4.38821e-05
0.000487129
-5.54547e-05
0.000371745
-7.97522e-05
0.000236665
-0.000118519
7.91016e-05
-0.000172879
-0.000104208
-0.000242865
-0.000317015
-0.000326468
-0.000563123
-0.000417917
-0.000845291
-0.000505254
-0.0011619
-0.000567669
-0.00149994
-0.000575387
-0.00182141
-0.00049782
-0.00204386
-0.000327409
-0.00202595
-0.000117868
-0.00159325
-0.000656968
-2.06167e-05
0.000221538
-6.10113e-05
0.000545503
-0.000101374
0.000753304
-0.000130677
0.000871771
-0.000145014
0.000928935
-0.000144426
0.000946505
-0.000130756
0.000939556
-0.000106506
0.00091773
-7.43105e-05
0.000886613
-3.67616e-05
0.000848953
3.61965e-06
0.000805596
4.44081e-05
0.000756146
8.30902e-05
0.00069953
0.000117183
0.00063417
0.000144173
0.00055825
0.000161523
0.000469779
0.000166698
0.00036657
0.000157201
0.000246162
0.00013063
0.000105673
8.48101e-05
-5.83887e-05
1.81361e-05
-0.000250341
-6.97394e-05
-0.000475248
-0.000176497
-0.000738533
-0.000294145
-0.00104425
-0.000404674
-0.00138941
-0.000476243
-0.00174984
-0.000466073
-0.00205403
-0.000342868
-0.00214915
-0.000138404
-0.00179771
-0.000795372
-3.27664e-05
0.000254305
-8.812e-05
0.000600856
-0.000135439
0.000800623
-0.000161592
0.000897924
-0.000164376
0.000931719
-0.000146356
0.000928485
-0.000111599
0.000904799
-6.42518e-05
0.000870383
-8.06824e-06
0.000830429
5.36547e-05
0.00078723
0.000117965
0.000741286
0.000182105
0.000692006
0.000243461
0.000638175
0.000299425
0.000578206
0.000347375
0.000510299
0.000384647
0.000432507
0.000408508
0.000342709
0.000416144
0.000238526
0.000404638
0.000117179
0.000370958
-2.47083e-05
0.000312197
-0.000191581
0.00022572
-0.00038877
0.000110437
-0.00062325
-3.06329e-05
-0.000903185
-0.000185291
-0.00123475
-0.000324049
-0.00161108
-0.000395822
-0.00198226
-0.0003433
-0.00220168
-0.000161929
-0.00197908
-0.000957301
-5.49488e-05
0.000309253
-0.000132495
0.000678403
-0.000186779
0.000854907
-0.000204933
0.000916078
-0.000189233
0.000916019
-0.000146551
0.000885803
-8.40901e-05
0.000842338
-8.01586e-06
0.000794309
7.67375e-05
0.000745676
0.000166233
0.000697734
0.000257223
0.000650296
0.00034687
0.000602359
0.000432551
0.000552494
0.000511712
0.000499044
0.000581778
0.000440234
0.000640081
0.000374204
0.000683814
0.000298977
0.00070996
0.00021238
0.000715218
0.000111921
0.000695791
-5.28122e-06
0.000647905
-0.000143695
0.000567008
-0.000307873
0.000448889
-0.000505132
0.000291346
-0.000745642
9.92022e-05
-0.00104261
-0.000105877
-0.001406
-0.000272288
-0.00181585
-0.000317365
-0.0021566
-0.00018625
-0.0021102
-0.00114355
-9.3921e-05
0.000403174
-0.000198586
0.000783068
-0.000251099
0.00090742
-0.00024686
0.000911839
-0.000197747
0.000866906
-0.000117248
0.000805304
-1.64618e-05
0.000741552
9.64259e-05
0.000681421
0.000215595
0.000626507
0.000336862
0.000576467
0.000457065
0.000530093
0.000573608
0.000485816
0.000684163
0.000441939
0.000786463
0.000396743
0.000878174
0.000348523
0.000956795
0.000295583
0.00101958
0.000236191
0.00106346
0.000168502
0.00108494
9.04362e-05
0.00107944
2.21949e-07
0.00104296
-0.000107216
0.000969314
-0.000234226
0.000851997
-0.000387815
0.000684315
-0.000577961
0.000462678
-0.000820971
0.000196731
-0.00114006
-6.99599e-05
-0.00154916
-0.000243523
-0.00198304
-0.000203695
-0.00215002
-0.00134725
-0.000157807
0.000560981
-0.000278429
0.00090369
-0.000296806
0.000925797
-0.000236387
0.00085142
-0.000126084
0.000756603
1.25637e-05
0.000666657
0.000165335
0.000588781
0.000323341
0.000523415
0.000481161
0.000468687
0.000635429
0.000422199
0.000783891
0.000381632
0.000924812
0.000344894
0.00105662
0.000310127
0.0011777
0.000275667
0.00128622
0.000240004
0.00138007
0.000201734
0.00145676
0.000159496
0.00151336
0.00011191
0.00154627
5.75199e-05
0.00155136
-4.8656e-06
0.00152325
-7.91054e-05
0.00145564
-0.000166618
0.00134052
-0.000272692
0.00116804
-0.000405477
0.000927291
-0.000580227
0.000612581
-0.000825348
0.00024571
-0.00118228
-8.05595e-05
-0.00165677
-0.000194749
-0.00203583
-0.001542
-0.000243325
0.000804306
-0.000302883
0.000963248
-0.000205207
0.000828122
-2.82165e-05
0.000674429
0.000179549
0.000548838
0.000394482
0.000451724
0.000605123
0.000378139
0.000806201
0.000322338
0.000995631
0.000279257
0.0011728
0.000245029
0.00133762
0.000216814
0.00149003
0.000192486
0.00162975
0.0001704
0.00175618
0.000149236
0.00186828
0.000127902
0.00196457
0.000105454
0.00204303
8.10343e-05
0.00210111
5.38294e-05
0.00213558
2.30509e-05
0.0021429
-1.21927e-05
0.00211737
-5.3568e-05
0.00205297
-0.000102222
0.00194139
-0.000161116
0.00177134
-0.000235423
0.00152702
-0.000335903
0.0011882
-0.000486528
0.000744091
-0.000738178
0.000252077
-0.00116475
-8.18492e-05
-0.00170191
-0.00162384
-0.000193363
0.000997669
2.02466e-05
0.000749638
0.000375111
0.000473257
0.000715367
0.000334174
0.00101954
0.000244669
0.00128753
0.000183728
0.00152298
0.000142688
0.00173055
0.000114774
0.0019147
9.51054e-05
0.00207912
8.06052e-05
0.00222657
6.93624e-05
0.00235893
6.01269e-05
0.0024773
5.20366e-05
0.00258206
4.44688e-05
0.00267301
3.69528e-05
0.00274935
2.91139e-05
0.00280975
2.06394e-05
0.00285229
1.12871e-05
0.00287425
1.09115e-06
0.00287362
-1.15606e-05
0.0028452
-2.51546e-05
0.00278435
-4.13728e-05
0.00268411
-6.08705e-05
0.00253419
-8.54999e-05
0.00231785
-0.000119564
0.00200582
-0.000174502
0.00155115
-0.000283503
0.000926949
-0.000540555
0.00026361
-0.00103857
-0.00136024
0.000997669
0.00174731
0.00222056
0.00255474
0.00279941
0.00298314
0.00312582
0.0032406
0.0033357
0.00341631
0.00348567
0.0035458
0.00359783
0.0036423
0.00367926
0.00370837
0.00372901
0.0037403
0.00374139
0.00372983
0.00370467
0.0036633
0.00360243
0.00351693
0.00339736
0.00322286
0.00293936
0.0023988
0.00136024
)
;

boundaryField
{
    movingWall
    {
        type            calculated;
        value           uniform 0;
    }
    fixedWalls
    {
        type            calculated;
        value           uniform 0;
    }
    frontAndBack
    {
        type            empty;
        value           nonuniform 0();
    }
}


// ************************************************************************* //
