/*--------------------------------*- C++ -*----------------------------------*\
  =========                 |
  \\      /  F ield         | OpenFOAM: The Open Source CFD Toolbox
   \\    /   O peration     | Website:  https://openfoam.org
    \\  /    A nd           | Version:  7
     \\/     M anipulation  |
\*---------------------------------------------------------------------------*/
FoamFile
{
    version     2.0;
    format      ascii;
    class       surfaceScalarField;
    location    "4.5";
    object      phi;
}
// * * * * * * * * * * * * * * * * * * * * * * * * * * * * * * * * * * * * * //

dimensions      [0 3 -1 0 0 0 0];

internalField   nonuniform List<scalar> 
1740
(
6.08237e-07
-6.0825e-07
1.3948e-07
4.6876e-07
-1.68545e-06
1.82494e-06
-4.70013e-06
3.01467e-06
-8.59096e-06
3.89084e-06
-1.30535e-05
4.46258e-06
-1.78348e-05
4.7812e-06
-2.27307e-05
4.896e-06
-2.75698e-05
4.83904e-06
-3.21932e-05
4.62338e-06
-3.64403e-05
4.24712e-06
-4.01403e-05
3.70002e-06
-4.31116e-05
2.9713e-06
-4.5169e-05
2.05742e-06
-4.61385e-05
9.69467e-07
-4.58771e-05
-2.61369e-07
-4.42962e-05
-1.5809e-06
-4.13861e-05
-2.91013e-06
-3.72352e-05
-4.15088e-06
-3.2041e-05
-5.19418e-06
-2.61084e-05
-5.93266e-06
-1.98326e-05
-6.27574e-06
-1.36676e-05
-6.165e-06
-8.08103e-06
-5.58661e-06
-3.50235e-06
-4.57868e-06
-2.64809e-07
-3.23754e-06
1.4727e-06
-1.73752e-06
1.74356e-06
-2.70855e-07
9.20269e-07
8.23289e-07
9.2027e-07
-4.54021e-07
-1.54228e-07
-3.44482e-06
3.45957e-06
-9.36043e-06
7.74053e-06
-1.7809e-05
1.14633e-05
-2.82146e-05
1.42964e-05
-3.99633e-05
1.62113e-05
-5.24832e-05
1.7301e-05
-6.52642e-05
1.7677e-05
-7.7845e-05
1.74198e-05
-8.97876e-05
1.6566e-05
-0.000100656
1.51155e-05
-0.000110005
1.30491e-05
-0.000117384
1.03505e-05
-0.000122357
7.03007e-06
-0.000124533
3.1451e-06
-0.000123615
-1.17855e-06
-0.00011944
-5.75663e-06
-0.000112032
-1.03173e-05
-0.000101641
-1.45426e-05
-8.87508e-05
-1.80842e-05
-7.40794e-05
-2.06041e-05
-5.85345e-05
-2.18207e-05
-4.3144e-05
-2.15555e-05
-2.89574e-05
-1.97732e-05
-1.69281e-05
-1.66079e-05
-7.78855e-06
-1.23771e-05
-1.94029e-06
-7.58578e-06
7.14567e-07
-2.92571e-06
8.78335e-07
6.59524e-07
1.79861e-06
-1.93782e-06
1.78359e-06
-8.16606e-06
9.68782e-06
-1.84395e-05
1.8014e-05
-3.21409e-05
2.51646e-05
-4.84776e-05
3.06331e-05
-6.66254e-05
3.43591e-05
-8.57982e-05
3.64738e-05
-0.000105268
3.71468e-05
-0.000124353
3.65051e-05
-0.000142396
3.46085e-05
-0.00015874
3.146e-05
-0.000172727
2.70357e-05
-0.000183701
2.13249e-05
-0.000191043
1.43721e-05
-0.000194213
6.31521e-06
-0.000192807
-2.58476e-06
-0.00018662
-1.19437e-05
-0.000175708
-2.12299e-05
-0.000160429
-2.98215e-05
-0.000141468
-3.7045e-05
-0.000119823
-4.22486e-05
-9.67555e-05
-4.48885e-05
-7.36936e-05
-4.46174e-05
-5.21044e-05
-4.13624e-05
-3.3334e-05
-3.53783e-05
-1.84385e-05
-2.72727e-05
-8.01923e-06
-1.8005e-05
-2.07464e-06
-8.8703e-06
9.847e-08
-1.51359e-06
1.89708e-06
-3.47101e-06
5.25459e-06
-1.30182e-05
1.92351e-05
-2.77122e-05
3.2708e-05
-4.65422e-05
4.39946e-05
-6.84689e-05
5.25598e-05
-9.24836e-05
5.83738e-05
-0.000117639
6.16294e-05
-0.000143051
6.25585e-05
-0.000167878
6.1332e-05
-0.000191298
5.80283e-05
-0.000212488
5.26504e-05
-0.000230623
4.51706e-05
-0.000244887
3.55896e-05
-0.000254514
2.39988e-05
-0.000258836
1.06371e-05
-0.000257352
-4.06888e-06
-0.000249799
-1.94972e-05
-0.000236222
-3.48065e-05
-0.00021703
-4.90131e-05
-0.000193025
-6.10508e-05
-0.000165391
-6.98818e-05
-0.000135651
-7.46285e-05
-0.000105555
-7.47135e-05
-7.69314e-05
-6.99864e-05
-5.14947e-05
-6.0815e-05
-3.06403e-05
-4.81271e-05
-1.52454e-05
-3.33999e-05
-5.50933e-06
-1.86064e-05
-8.73319e-07
-6.1496e-06
1.02376e-06
-4.91071e-06
1.01653e-05
-1.76902e-05
3.20146e-05
-3.67022e-05
5.17199e-05
-6.04905e-05
6.7783e-05
-8.77387e-05
7.9808e-05
-0.000117258
8.78928e-05
-0.000147967
9.23392e-05
-0.000178869
9.34598e-05
-0.000209008
9.14714e-05
-0.000237447
8.64669e-05
-0.000263239
7.84425e-05
-0.000285429
6.73604e-05
-0.000303068
5.32292e-05
-0.000315256
3.61869e-05
-0.000321196
1.65764e-05
-0.000320267
-4.99733e-06
-0.000312103
-2.76614e-05
-0.000296678
-5.02313e-05
-0.000274374
-7.13173e-05
-0.000246026
-8.93988e-05
-0.000212935
-0.000102973
-0.000176825
-0.000110738
-0.000139743
-0.000111796
-0.000103888
-0.000105841
-7.13921e-05
-9.33107e-05
-4.4069e-05
-7.54502e-05
-2.31728e-05
-5.42961e-05
-9.21213e-06
-3.2567e-05
-1.86316e-06
-1.34986e-05
-8.39401e-07
-6.23228e-06
1.63976e-05
-2.20678e-05
4.78501e-05
-4.52014e-05
7.48535e-05
-7.37274e-05
9.63089e-05
-0.000106045
0.000112125
-0.000140789
0.000122637
-0.000176768
0.000128318
-0.000212899
0.000129591
-0.000248154
0.000126727
-0.000281517
0.00011983
-0.000311953
0.000108879
-0.000338407
9.38138e-05
-0.000359811
7.46338e-05
-0.000375131
5.15069e-05
-0.00038342
2.48648e-05
-0.0003839
-4.51652e-06
-0.000376034
-3.55278e-05
-0.000359647
-6.6618e-05
-0.000335004
-9.59602e-05
-0.000302887
-0.000121517
-0.000264635
-0.000141225
-0.000222133
-0.000153239
-0.000177723
-0.000156206
-0.000134025
-0.00014954
-9.36818e-05
-0.000133654
-5.90543e-05
-0.000110078
-3.1911e-05
-8.14395e-05
-1.31866e-05
-5.12914e-05
-2.86451e-06
-2.38207e-05
-3.70391e-06
-7.43928e-06
2.38369e-05
-2.61144e-05
6.65252e-05
-5.31145e-05
0.000101854
-8.6111e-05
0.000129305
-0.000123232
0.000149246
-0.00016295
0.000162356
-0.000203981
0.000169349
-0.000245187
0.000170797
-0.000285499
0.000167038
-0.000323856
0.000158186
-0.000359167
0.00014419
-0.000390295
0.000124943
-0.000416069
0.000100408
-0.000435312
7.07493e-05
-0.000446896
3.6449e-05
-0.000449847
-1.56547e-06
-0.00044337
-4.2005e-05
-0.00042706
-8.29279e-05
-0.000400958
-0.000122063
-0.000365686
-0.000156788
-0.000322536
-0.000184375
-0.000273499
-0.000202276
-0.000221208
-0.000208497
-0.000168765
-0.000201982
-0.000119453
-0.000182966
-7.63463e-05
-0.000153184
-4.19089e-05
-0.000115877
-1.76508e-05
-7.55496e-05
-3.9435e-06
-3.7528e-05
-7.64741e-06
-8.53446e-06
3.23713e-05
-2.98079e-05
8.77986e-05
-6.03741e-05
0.00013242
-9.75252e-05
0.000166457
-0.000139146
0.000190866
-0.000183569
0.000206779
-0.000229441
0.000215221
-0.000275596
0.000216951
-0.000320952
0.000212395
-0.000364437
0.000201672
-0.000404932
0.000184685
-0.000441243
0.000161254
-0.000472102
0.000131266
-0.000496186
9.48332e-05
-0.000512171
5.24343e-05
-0.000518794
5.05787e-06
-0.000515001
-4.57982e-05
-0.000500016
-9.79125e-05
-0.000473549
-0.00014853
-0.000435938
-0.000194399
-0.00038831
-0.000232003
-0.000332674
-0.000257913
-0.000271923
-0.000269247
-0.000209692
-0.000264213
-0.000150033
-0.000242626
-9.69434e-05
-0.000206274
-5.3815e-05
-0.000159005
-2.29389e-05
-0.000106426
-5.20351e-06
-5.52633e-05
-1.28509e-05
-9.51154e-06
4.18829e-05
-3.31133e-05
0.0001114
-6.68973e-05
0.000166204
-0.000107829
0.000207388
-0.000153585
0.000236622
-0.000202387
0.000255581
-0.000252837
0.000265671
-0.000303765
0.00026788
-0.00035411
0.00026274
-0.000402817
0.000250379
-0.000448768
0.000230636
-0.000490739
0.000203225
-0.000527382
0.000167909
-0.000557233
0.000124685
-0.000578755
7.39563e-05
-0.000590392
1.66944e-05
-0.000590719
-4.54708e-05
-0.000578533
-0.000110098
-0.000553085
-0.000173978
-0.000514287
-0.000233197
-0.000462944
-0.000283347
-0.000400942
-0.000319914
-0.000331348
-0.000338841
-0.000258324
-0.000337237
-0.000186811
-0.000314138
-0.000121959
-0.000271126
-6.83839e-05
-0.00021258
-2.94475e-05
-0.000145362
-6.76492e-06
-7.79459e-05
-1.96158e-05
-1.03551e-05
5.22379e-05
-3.59766e-05
0.000137022
-7.25723e-05
0.0002028
-0.000116837
0.000251653
-0.00016628
0.000286065
-0.000219038
0.000308339
-0.000273692
0.000320325
-0.000329099
0.000323287
-0.000384242
0.000317882
-0.000438113
0.00030425
-0.000489631
0.000282153
-0.00053757
0.000251164
-0.000580534
0.000210872
-0.00061694
0.000161091
-0.000645046
0.000102062
-0.000663
3.46485e-05
-0.000668966
-3.95049e-05
-0.000661247
-0.000117818
-0.000638527
-0.000196699
-0.000600134
-0.000271589
-0.000546358
-0.000337123
-0.000478758
-0.000387515
-0.000400392
-0.000417207
-0.000315864
-0.000421765
-0.000231061
-0.000398941
-0.000152509
-0.000349678
-8.64135e-05
-0.000278676
-3.76067e-05
-0.000194169
-8.75798e-06
-0.000106795
-2.83738e-05
-1.10432e-05
6.32812e-05
-3.83285e-05
0.000164307
-7.72627e-05
0.000241734
-0.000124327
0.000298718
-0.000176899
0.000338636
-0.000233057
0.000364497
-0.000291384
0.000378653
-0.000350782
0.000382684
-0.000410303
0.000377404
-0.000469022
0.000362969
-0.000525922
0.000339054
-0.000579823
0.000305064
-0.000629318
0.000260368
-0.000672752
0.000204525
-0.000708218
0.000137528
-0.000733596
6.00263e-05
-0.00074665
-2.64512e-05
-0.000745158
-0.000119309
-0.000727159
-0.000214698
-0.000691251
-0.000307497
-0.000636989
-0.000391385
-0.000565325
-0.000459179
-0.000479022
-0.000503511
-0.000382899
-0.000517887
-0.000283727
-0.000498113
-0.000189591
-0.000443815
-0.000108692
-0.000359575
-4.78639e-05
-0.000254997
-1.13213e-05
-0.000143337
-3.96951e-05
-1.1552e-05
7.48332e-05
-4.00959e-05
0.000192851
-8.08249e-05
0.000282463
-0.000130061
0.000347954
-0.000185079
0.000393655
-0.00024392
0.000423338
-0.000305184
0.000439917
-0.000367831
0.000445332
-0.000431008
0.00044058
-0.000493893
0.000425854
-0.000555577
0.000400738
-0.000614967
0.000364454
-0.000670708
0.000316109
-0.000721138
0.000254956
-0.000764263
0.000180653
-0.000797768
9.35311e-05
-0.000819083
-5.13605e-06
-0.000825494
-0.000112898
-0.000814369
-0.000225823
-0.000783468
-0.000338399
-0.000731392
-0.00044346
-0.00065816
-0.000532412
-0.000565827
-0.000595844
-0.00045903
-0.000624684
-0.000345172
-0.000611971
-0.000233936
-0.00055505
-0.000135932
-0.000457579
-6.06679e-05
-0.00033026
-1.46022e-05
-0.000189403
-5.42973e-05
-1.18613e-05
8.66945e-05
-4.12175e-05
0.000222207
-8.31355e-05
0.000324381
-0.000133822
0.000398641
-0.000190474
0.000450307
-0.000251104
0.000483967
-0.000314334
0.000503146
-0.000379193
0.000510191
-0.000444934
0.000506321
-0.000510865
0.000491785
-0.000576219
0.000466093
-0.000640042
0.000428277
-0.000701103
0.000377169
-0.000757821
0.000311674
-0.000808227
0.000231059
-0.000849933
0.000135238
-0.000880156
2.50862e-05
-0.000895809
-9.72447e-05
-0.000893641
-0.000227991
-0.000870539
-0.0003615
-0.000823986
-0.000490013
-0.000752721
-0.000603676
-0.000657594
-0.000690971
-0.00054246
-0.000739818
-0.000414835
-0.000739596
-0.000285803
-0.000684083
-0.000168683
-0.000574699
-7.6446e-05
-0.000422497
-1.87571e-05
-0.000247092
-7.30544e-05
-1.19614e-05
9.86559e-05
-4.16642e-05
0.00025191
-8.4126e-05
0.000366842
-0.000135471
0.000449985
-0.000192825
0.000507662
-0.000254173
0.000545315
-0.000318156
0.000567129
-0.000383875
0.00057591
-0.000450694
0.00057314
-0.000518071
0.000559162
-0.000585415
0.000533436
-0.000651963
0.000494825
-0.000716683
0.000441889
-0.000778184
0.000373176
-0.000834654
0.000287528
-0.000883799
0.000184383
-0.000922816
6.41035e-05
-0.000948413
-7.16474e-05
-0.000956894
-0.00021951
-0.000944348
-0.000374047
-0.000907069
-0.000527292
-0.000842246
-0.000668499
-0.000748981
-0.000784236
-0.000629588
-0.000859211
-0.000490865
-0.000878319
-0.000344711
-0.000830237
-0.000207198
-0.000712212
-9.55648e-05
-0.00053413
-2.39477e-05
-0.000318709
-9.70021e-05
-1.1861e-05
0.000110517
-4.14625e-05
0.000281512
-8.38255e-05
0.000409205
-0.000134999
0.000501159
-0.000192034
0.000564697
-0.000252874
0.000606154
-0.000316172
0.000630428
-0.000381097
0.000640835
-0.000447128
0.000639171
-0.000513886
0.00062592
-0.000580985
0.000600535
-0.000647904
0.000561745
-0.000713886
0.00050787
-0.000777839
0.000437129
-0.000838255
0.000347944
-0.000893123
0.000239251
-0.00093985
0.000110831
-0.000975174
-3.63237e-05
-0.000995242
-0.000199441
-0.000995543
-0.000373746
-0.000971276
-0.000551559
-0.000917946
-0.000721829
-0.000832455
-0.000869727
-0.000714736
-0.00097693
-0.000569745
-0.00102331
-0.000409125
-0.000990857
-0.00025125
-0.000870087
-0.000118269
-0.000667111
-3.03345e-05
-0.000406644
-0.000127337
-1.15962e-05
0.000122113
-4.07218e-05
0.000310637
-8.2407e-05
0.000450891
-0.0001326
0.000551352
-0.000188251
0.000620348
-0.000247244
0.000665147
-0.000308237
0.000691421
-0.00037046
0.000703058
-0.000433514
0.000702225
-0.000497195
0.000689601
-0.000561347
0.000664686
-0.000625735
0.000626133
-0.000689945
0.00057208
-0.000753284
0.000500469
-0.000814688
0.000409348
-0.000872613
0.000297175
-0.000924926
0.000163144
-0.00096865
7.39981e-06
-0.00100016
-0.000167928
-0.00101466
-0.000359251
-0.00100653
-0.000559686
-0.00096971
-0.000758652
-0.00089865
-0.000940787
-0.00079016
-0.00108542
-0.000646057
-0.00116741
-0.000476141
-0.00116077
-0.000299916
-0.00104631
-0.000144599
-0.000822429
-3.80647e-05
-0.000513177
-0.000165401
-1.12414e-05
0.000133355
-3.96649e-05
0.000339061
-8.02386e-05
0.000491464
-0.000128735
0.000599848
-0.000181955
0.000673567
-0.000237706
0.000720898
-0.000294649
0.000748364
-0.000352084
0.000760493
-0.000409746
0.000759886
-0.000467623
0.000747478
-0.000525812
0.000722876
-0.000584403
0.000684724
-0.000643378
0.000631054
-0.000702519
0.000559611
-0.000761317
0.000468146
-0.000818847
0.000354705
-0.000873609
0.000217906
-0.000923422
5.72128e-05
-0.000964883
-0.000126466
-0.000993559
-0.000330575
-0.00100347
-0.000549775
-0.000987337
-0.000774785
-0.000937277
-0.000990847
-0.000846525
-0.00117617
-0.00071253
-0.00130141
-0.000541276
-0.00133203
-0.000351352
-0.00123624
-0.00017429
-0.000999491
-4.72591e-05
-0.000640208
-0.00021266
-1.09225e-05
0.000144277
-3.86655e-05
0.000366804
-7.79407e-05
0.00053074
-0.000124198
0.000646106
-0.000174025
0.000723394
-0.000225144
0.000772017
-0.000276236
0.000799457
-0.000326705
0.000810962
-0.00037645
0.000809631
-0.000425681
0.000796709
-0.000474778
0.000771973
-0.000524182
0.000734128
-0.000574308
0.00068118
-0.000625464
0.000610767
-0.000677763
0.000520444
-0.000731
0.000407942
-0.00078449
0.000271397
-0.000836862
0.000109584
-0.000885601
-7.77277e-05
-0.000926894
-0.000289281
-0.000955004
-0.000521664
-0.000962101
-0.000767688
-0.000938483
-0.00101447
-0.000873871
-0.00124078
-0.000760499
-0.00141478
-0.000598483
-0.00149404
-0.000402622
-0.0014321
-0.00020668
-0.00119543
-5.80058e-05
-0.000788883
-0.000270666
-1.08385e-05
0.000155116
-3.82999e-05
0.000394265
-7.64534e-05
0.000568893
-0.000120189
0.000689841
-0.000165797
0.000769003
-0.000210936
0.000817157
-0.000254373
0.000842893
-0.000295682
0.000852271
-0.000334989
0.000848938
-0.000372773
0.000834494
-0.000409732
0.000808932
-0.000446683
0.000771079
-0.000484493
0.00071899
-0.00052401
0.000650284
-0.000565984
0.000562418
-0.000610959
0.000452918
-0.000659117
0.000319555
-0.000710046
0.000160513
-0.000762304
-2.54697e-05
-0.000813133
-0.000238452
-0.000857629
-0.000477168
-0.000888244
-0.000737074
-0.000894382
-0.00100833
-0.000862935
-0.00127223
-0.000780772
-0.00149694
-0.000640471
-0.00163434
-0.000449651
-0.00162292
-0.000240637
-0.00140445
-7.03744e-05
-0.000959145
-0.000341041
-1.12996e-05
0.000166415
-3.94249e-05
0.00042239
-7.71235e-05
0.000606592
-0.000118369
0.000731087
-0.000159086
0.000809719
-0.000196943
0.000855014
-0.000230922
0.000876872
-0.000260896
0.000882245
-0.000287319
0.000875361
-0.000311011
0.000858186
-0.00033303
0.00083095
-0.00035459
0.000792638
-0.000377007
0.000741407
-0.000401648
0.000674925
-0.000429868
0.000590638
-0.000462922
0.000485971
-0.000501819
0.000358452
-0.000547112
0.000205806
-0.000598588
2.60058e-05
-0.000654675
-0.000182365
-0.000711901
-0.000419942
-0.000763851
-0.000685123
-0.000800241
-0.000971938
-0.000806434
-0.00126604
-0.000764704
-0.00153867
-0.000659288
-0.00173976
-0.000487323
-0.00179488
-0.000274514
-0.00161726
-8.44643e-05
-0.0011492
-0.000425505
-1.27978e-05
0.000179213
-4.33045e-05
0.000452897
-8.18186e-05
0.000645106
-0.000120919
0.000770187
-0.000156149
0.000844949
-0.000185378
0.000884243
-0.00020803
0.000899524
-0.000224479
0.000898694
-0.000235652
0.000886534
-0.000242801
0.000865336
-0.000247394
0.000835543
-0.00025105
0.000796295
-0.000255514
0.00074587
-0.000262622
0.000682033
-0.000274259
0.000602276
-0.000292291
0.000504003
-0.000318454
0.000384615
-0.000354181
0.000241533
-0.000400364
7.21886e-05
-0.000456819
-0.00012591
-0.00052176
-0.000355001
-0.000590653
-0.00061623
-0.0006548
-0.000907791
-0.000699802
-0.00122103
-0.000705065
-0.00153341
-0.000646963
-0.00179786
-0.00050967
-0.00193217
-0.000306114
-0.00182081
-0.000100488
-0.00135482
-0.000525993
-1.61434e-05
0.000195356
-5.18115e-05
0.000488565
-9.30598e-05
0.000686354
-0.000130521
0.000807649
-0.000159512
0.00087394
-0.000178484
0.000903214
-0.000187674
0.000908714
-0.000188239
0.000899259
-0.000181764
0.000880059
-0.000170044
0.000853616
-0.000154992
0.000820492
-0.000138628
0.00077993
-0.000123076
0.000730318
-0.000110568
0.000669525
-0.000103409
0.000595117
-0.000103945
0.00050454
-0.000114486
0.000395156
-0.000137187
0.000264234
-0.000173875
0.000108876
-0.000225711
-7.4074e-05
-0.000292679
-0.000288033
-0.00037259
-0.000536318
-0.000459433
-0.000820949
-0.000540976
-0.00113949
-0.000596286
-0.0014781
-0.000595842
-0.00179831
-0.000509941
-0.00201807
-0.000332529
-0.00199822
-0.000118847
-0.0015685
-0.00064484
-2.27178e-05
0.000218074
-6.77193e-05
0.000533566
-0.000114095
0.00073273
-0.000150113
0.000843666
-0.000171407
0.000895234
-0.000177703
0.00090951
-0.00017061
0.000901621
-0.000152431
0.000881079
-0.000125622
0.00085325
-9.26103e-05
0.000820604
-5.57799e-05
0.000783662
-1.75121e-05
0.000741662
1.97684e-05
0.000693038
5.35617e-05
0.000635732
8.12519e-05
0.000567426
0.000100159
0.000485633
0.000107563
0.000387752
0.000100763
0.000271034
7.71708e-05
0.000132468
3.44622e-05
-3.13654e-05
-2.89273e-05
-0.000224644
-0.000113329
-0.000451916
-0.000216164
-0.000718113
-0.000329087
-0.00102657
-0.000433778
-0.00137341
-0.000498271
-0.00173381
-0.000480253
-0.00203609
-0.000349659
-0.00212882
-0.000140049
-0.00177811
-0.00078489
-3.49228e-05
0.000252997
-9.50136e-05
0.000593657
-0.000148614
0.000786331
-0.000181907
0.000876959
-0.000192186
0.000905513
-0.000181626
0.00089895
-0.000153967
0.000873963
-0.000113087
0.000840199
-6.25032e-05
0.000802667
-5.3308e-06
0.000763431
5.56239e-05
0.000722707
0.000117706
0.00067958
0.000178303
0.000632441
0.000234755
0.00057928
0.000284319
0.000517863
0.000324134
0.000445818
0.000351226
0.00036066
0.000362519
0.000259741
0.00035487
0.000140117
0.000324919
-1.41496e-06
0.00026982
-0.000169545
0.000186842
-0.000368938
7.50627e-05
-0.000606334
-6.22055e-05
-0.0008893
-0.000212283
-0.00122333
-0.00034537
-0.00160073
-0.000410465
-0.001971
-0.00035101
-0.00218827
-0.000164102
-0.00196502
-0.000948992
-5.68991e-05
0.000309896
-0.000138831
0.000675589
-0.000199111
0.000846611
-0.000224277
0.000902124
-0.000216093
0.000897329
-0.000180981
0.000863838
-0.000125757
0.00081874
-5.62596e-05
0.000770701
2.28436e-05
0.000723564
0.00010783
0.000678445
0.000195601
0.000634936
0.000283412
0.000591768
0.000368657
0.000547196
0.00044872
0.000499216
0.000520889
0.000445694
0.000582289
0.000384418
0.000629848
0.000313101
0.000660259
0.00022933
0.000669913
0.000130462
0.000654994
1.3505e-05
0.000611131
-0.000125682
0.000533937
-0.000291745
0.00041922
-0.000491617
0.00026498
-0.00073506
7.63699e-05
-0.00103472
-0.000124561
-0.0013998
-0.000285768
-0.00180979
-0.000325057
-0.00214898
-0.000188704
-0.00210137
-0.0011377
-9.52847e-05
0.000405181
-0.000203357
0.000783661
-0.000260876
0.00090413
-0.000262809
0.000904057
-0.000220562
0.000855083
-0.000147162
0.000790438
-5.32945e-05
0.000724872
5.32069e-05
0.0006642
0.000166812
0.000609959
0.00028357
0.000561687
0.000400494
0.000518013
0.000515102
0.00047716
0.000625107
0.00043719
0.000728212
0.000396112
0.000821968
0.000351938
0.000903693
0.000302693
0.000970397
0.000246397
0.00101872
0.00018101
0.00104482
0.000104356
0.00104424
1.40895e-05
0.00101208
-9.35241e-05
0.000942411
-0.000222074
0.000828585
-0.000377791
0.000663954
-0.00057043
0.000445136
-0.000815903
0.000182184
-0.00113684
-8.10579e-05
-0.00154655
-0.000250231
-0.00197981
-0.000206052
-0.00214555
-0.00134375
-0.000158194
0.000563375
-0.000280623
0.000906091
-0.00030229
0.000925797
-0.000246464
0.000848231
-0.000141693
0.000750311
-9.08918e-06
0.000657834
0.000137523
0.000578259
0.000289609
0.000512114
0.000442056
0.000457511
0.000591767
0.000411976
0.000736703
0.000373076
0.000875294
0.000338569
0.00100607
0.000306419
0.00112741
0.000274768
0.00123745
0.0002419
0.00133393
0.000206207
0.00141418
0.000166146
0.00147501
0.000120181
0.00151264
6.673e-05
0.00152213
4.60321e-06
0.00149862
-7.00188e-05
0.00143514
-0.000158594
0.00132357
-0.000266222
0.001154
-0.000400862
0.000915601
-0.000577501
0.000602933
-0.000824175
0.000238272
-0.00118189
-8.54459e-05
-0.00165609
-0.000196676
-0.00203432
-0.00154042
-0.000242671
0.000806046
-0.000302214
0.000965633
-0.000205719
0.000829302
-3.13217e-05
0.000673834
0.000172703
0.000546287
0.000383063
0.000447474
0.000588647
0.000372675
0.000784535
0.000316226
0.000968979
0.000273066
0.00114167
0.000239282
0.00130279
0.000211956
0.0014525
0.000188867
0.00159066
0.000168257
0.00171674
0.000148688
0.0018297
0.000128941
0.00192796
0.00010795
0.00200936
8.4747e-05
0.00207112
5.84169e-05
0.00210976
2.809e-05
0.0021213
-6.9349e-06
0.0021
-4.87236e-05
0.00203946
-9.8052e-05
0.00193115
-0.000157913
0.00176364
-0.000233353
0.00152112
-0.000334975
0.00118349
-0.000486548
0.000740312
-0.00073871
0.000249393
-0.00116517
-8.31523e-05
-0.00170178
-0.00162358
-0.000192194
0.00099824
2.27783e-05
0.000750661
0.000377934
0.000474146
0.00071741
0.000334358
0.00101963
0.000244064
0.00128468
0.00018243
0.00151646
0.000140891
0.00171998
0.000112711
0.00190004
9.30057e-05
0.00206065
7.8674e-05
0.00220483
6.77672e-05
0.00233471
5.89925e-05
0.00245152
5.14411e-05
0.00255577
4.44427e-05
0.00264723
3.74791e-05
0.00272505
3.01316e-05
0.00278774
2.20509e-05
0.0028332
1.29614e-05
0.00285853
2.76482e-06
0.00286137
-9.78402e-06
0.00283629
-2.36372e-05
0.00277839
-4.01588e-05
0.00268054
-6.00537e-05
0.0025323
-8.51167e-05
0.00231691
-0.00011959
0.00200521
-0.000174844
0.0015505
-0.000283995
0.000926304
-0.000540982
0.000263293
-0.00103877
-0.00136028
0.00099824
0.0017489
0.00222305
0.0025574
0.00280147
0.0029839
0.00312479
0.0032375
0.00333051
0.00340918
0.00347695
0.00353594
0.00358738
0.00363182
0.0036693
0.00369943
0.00372149
0.00373445
0.00373721
0.00372743
0.00370379
0.00366363
0.00360358
0.00351846
0.00339887
0.00322403
0.00294003
0.00239905
0.00136028
)
;

boundaryField
{
    movingWall
    {
        type            calculated;
        value           uniform 0;
    }
    fixedWalls
    {
        type            calculated;
        value           uniform 0;
    }
    frontAndBack
    {
        type            empty;
        value           nonuniform 0();
    }
}


// ************************************************************************* //
