/*--------------------------------*- C++ -*----------------------------------*\
  =========                 |
  \\      /  F ield         | OpenFOAM: The Open Source CFD Toolbox
   \\    /   O peration     | Website:  https://openfoam.org
    \\  /    A nd           | Version:  7
     \\/     M anipulation  |
\*---------------------------------------------------------------------------*/
FoamFile
{
    version     2.0;
    format      ascii;
    class       volScalarField;
    location    "6.9";
    object      p;
}
// * * * * * * * * * * * * * * * * * * * * * * * * * * * * * * * * * * * * * //

dimensions      [0 2 -2 0 0 0 0];

internalField   nonuniform List<scalar> 
900
(
-3.11584e-07
-0.000339635
-0.000887928
-0.00147044
-0.00198437
-0.00236763
-0.00258851
-0.00263206
-0.0024898
-0.00215528
-0.00162363
-0.000893685
2.82923e-05
0.00112461
0.00236267
0.00369295
0.00504924
0.00635173
0.00751336
0.00844878
0.00908538
0.00937455
0.00930123
0.00888993
0.00820617
0.00735122
0.00644955
0.00565858
0.0051283
0.00498745
0.000332513
-1.78063e-05
-0.0004355
-0.000861957
-0.00123526
-0.00151078
-0.00166355
-0.00167926
-0.00154812
-0.00126252
-0.000817003
-0.000209928
0.000553804
0.00145969
0.00248082
0.00357615
0.00469264
0.00576408
0.00671934
0.00748906
0.00801485
0.00825867
0.00821068
0.00789361
0.00736272
0.00670118
0.00600995
0.00539144
0.00497324
0.00484438
0.00089963
0.000384126
-4.74317e-05
-0.000429142
-0.000747801
-0.000976547
-0.00110087
-0.00111207
-0.00100232
-0.000763805
-0.000389519
0.000124811
0.000777984
0.00156021
0.00245037
0.00341465
0.00440516
0.00536287
0.0062223
0.00691843
0.00739573
0.00761744
0.00757324
0.00728337
0.00679797
0.00619144
0.00555278
0.00497367
0.0045444
0.00433138
0.00152683
0.000789541
0.000281915
-0.00011057
-0.000420051
-0.000637073
-0.000759121
-0.00078509
-0.000710291
-0.00052679
-0.000225125
0.000203188
0.000762392
0.0014489
0.00224793
0.00313111
0.00405504
0.00496319
0.0057902
0.00646898
0.00694013
0.00716204
0.0071195
0.00682847
0.00633544
0.00571107
0.00504039
0.00441179
0.00389616
0.00352613
0.00207859
0.00110287
0.000496908
6.85646e-05
-0.000256721
-0.000485457
-0.000626725
-0.000686828
-0.000663926
-0.000549358
-0.000330219
7.46597e-06
0.000474802
0.00107569
0.00180249
0.00263255
0.00352662
0.00442858
0.00527027
0.00597842
0.00648489
0.00673811
0.00671336
0.00641916
0.00589746
0.00521717
0.0044645
0.0037316
0.00307955
0.00250323
0.00243932
0.00122779
0.000515043
3.55127e-05
-0.000324653
-0.000586265
-0.000768742
-0.000884733
-0.000934281
-0.000906996
-0.000785394
-0.0005487
-0.000177489
0.000341127
0.00100805
0.0018073
0.00270407
0.00364191
0.00454803
0.00533959
0.00593488
0.00626653
0.00629434
0.00601436
0.0054612
0.00470255
0.00383008
0.00294729
0.00211333
0.00129213
0.00250894
0.00107604
0.000256716
-0.000282841
-0.00069276
-0.00100675
-0.00125313
-0.00144952
-0.00159664
-0.00168122
-0.00167997
-0.00156391
-0.00130358
-0.000875154
-0.000267127
0.00051315
0.00143806
0.00245078
0.00347346
0.00441121
0.0051639
0.00564155
0.00578042
0.00555644
0.00499141
0.0041501
0.00313284
0.00206224
0.0010042
-0.000103757
0.00219923
0.000566641
-0.000353575
-0.00095789
-0.00142994
-0.00181525
-0.00214977
-0.00245478
-0.00273054
-0.00295983
-0.00311238
-0.00314949
-0.00302975
-0.0027158
-0.00218244
-0.00142515
-0.000458144
0.000661624
0.00185317
0.0030085
0.00400463
0.00472097
0.00505972
0.00496535
0.00443735
0.0035325
0.00236109
0.00107243
-0.000252169
-0.00169935
0.0014317
-0.00037373
-0.00138613
-0.00205824
-0.00260431
-0.0030809
-0.00353056
-0.00397728
-0.00442002
-0.00483686
-0.00518955
-0.00542827
-0.00549745
-0.00534304
-0.00492069
-0.00420488
-0.00320636
-0.00196124
-0.000552908
0.00089769
0.00224127
0.00331809
0.00398299
0.00413295
0.00372992
0.00281224
0.001498
-2.96859e-05
-0.00166532
-0.00351929
0.000138384
-0.00180855
-0.0029027
-0.00364534
-0.00427809
-0.00486783
-0.00546309
-0.00609003
-0.00674602
-0.00740416
-0.00801772
-0.00852456
-0.00885272
-0.0089278
-0.00868195
-0.00806493
-0.00706144
-0.005692
-0.00403157
-0.00220864
-0.000399416
0.00118945
0.00235005
0.00291062
0.00277253
0.001937
0.000521648
-0.00125147
-0.00324345
-0.00558914
-0.00173546
-0.00378846
-0.00495274
-0.00576889
-0.00650189
-0.00722845
-0.00800279
-0.00885324
-0.00977591
-0.0107393
-0.0116884
-0.012548
-0.0132279
-0.0136297
-0.0136563
-0.0132247
-0.0122829
-0.0108237
-0.00890148
-0.00664268
-0.00424611
-0.00196977
-9.96216e-05
0.00109789
0.00143124
0.000833887
-0.000595672
-0.00259628
-0.00498647
-0.00792631
-0.00422782
-0.00634809
-0.00756988
-0.00846233
-0.00930918
-0.0101966
-0.0111845
-0.012304
-0.013551
-0.0148906
-0.0162603
-0.0175721
-0.0187165
-0.019568
-0.0199948
-0.019872
-0.0191002
-0.0176298
-0.0154772
-0.012751
-0.00966086
-0.00651356
-0.00368443
-0.00156217
-0.000472654
-0.000596109
-0.00188818
-0.00405903
-0.00687791
-0.0105301
-0.00735645
-0.00950314
-0.0107687
-0.0117389
-0.0127111
-0.0137806
-0.0150138
-0.0164455
-0.0180732
-0.0198605
-0.0217391
-0.0236098
-0.0253434
-0.0267857
-0.0277658
-0.0281089
-0.0276563
-0.0263056
-0.0240092
-0.0208368
-0.0169889
-0.0128069
-0.00875682
-0.00537274
-0.0031617
-0.00248021
-0.00339594
-0.00562022
-0.00887449
-0.013369
-0.0111162
-0.0132485
-0.0145428
-0.0155887
-0.0166921
-0.0179576
-0.0194589
-0.0212365
-0.0232917
-0.0255892
-0.0280577
-0.0305884
-0.0330344
-0.0352126
-0.0369106
-0.0379006
-0.0379616
-0.0368978
-0.0346031
-0.0310765
-0.0264772
-0.0211541
-0.0156481
-0.0106477
-0.00688454
-0.00496677
-0.00515989
-0.00723693
-0.0108922
-0.0163638
-0.0154781
-0.0175583
-0.0188645
-0.0199779
-0.0212081
-0.0226697
-0.0244456
-0.0265844
-0.0290941
-0.0319435
-0.0350614
-0.0383324
-0.0415943
-0.044637
-0.0472075
-0.0490221
-0.0497868
-0.0492258
-0.0471361
-0.0434234
-0.0381722
-0.0316974
-0.0245782
-0.0176423
-0.0118711
-0.00820115
-0.00720778
-0.00882836
-0.012787
-0.0193645
-0.0203905
-0.022388
-0.0236871
-0.0248498
-0.0261863
-0.0278228
-0.0298546
-0.0323419
-0.0353024
-0.0387124
-0.0425039
-0.0465583
-0.0507011
-0.0546986
-0.0582606
-0.0610501
-0.0627018
-0.062851
-0.0611981
-0.0575295
-0.0518207
-0.0443045
-0.0355413
-0.0264508
-0.0182551
-0.0122761
-0.00952487
-0.0102529
-0.0143288
-0.0221201
-0.0257835
-0.0276801
-0.0289504
-0.0301301
-0.031529
-0.0332895
-0.0355244
-0.0383098
-0.0416772
-0.0456135
-0.0500565
-0.0548871
-0.0599217
-0.0649071
-0.0695205
-0.0733776
-0.0760487
-0.0770859
-0.0760881
-0.0727174
-0.0668145
-0.058483
-0.0481967
-0.0368891
-0.0259679
-0.017153
-0.0120033
-0.0112731
-0.0151663
-0.0242389
-0.0315762
-0.0333731
-0.0345892
-0.0357335
-0.0371198
-0.038915
-0.0412575
-0.044246
-0.0479302
-0.0523102
-0.0573312
-0.0628752
-0.0687518
-0.0746913
-0.0803436
-0.0852842
-0.0890315
-0.0910735
-0.0908823
-0.0880322
-0.0822125
-0.0733636
-0.061808
-0.0483986
-0.0346274
-0.0225608
-0.0143683
-0.0115046
-0.0147818
-0.025139
-0.0376884
-0.0394144
-0.0405452
-0.0415733
-0.0428311
-0.0445244
-0.0468304
-0.049879
-0.053743
-0.0584374
-0.0639153
-0.0700591
-0.0766714
-0.0834679
-0.090075
-0.0960351
-0.100821
-0.103861
-0.104559
-0.102373
-0.0968582
-0.0877824
-0.0752738
-0.0600162
-0.0434581
-0.0278944
-0.016086
-0.0103473
-0.0124333
-0.0239845
-0.0440568
-0.045779
-0.0467817
-0.0475723
-0.0485323
-0.0499313
-0.0520041
-0.0549235
-0.0587899
-0.0636333
-0.0694121
-0.0760061
-0.0832082
-0.0907182
-0.0981403
-0.104988
-0.110697
-0.114647
-0.116186
-0.11468
-0.109567
-0.100454
-0.0872614
-0.0704445
-0.0512867
-0.0321486
-0.0162709
-0.00690125
-0.00708164
-0.0196019
-0.0506607
-0.0524952
-0.053302
-0.053672
-0.0540952
-0.0549436
-0.0565352
-0.059098
-0.0627625
-0.0675708
-0.0734805
-0.080362
-0.0879929
-0.0960524
-0.10412
-0.111682
-0.11814
-0.122831
-0.125055
-0.124106
-0.119327
-0.110186
-0.0964134
-0.078218
-0.0566349
-0.0339239
-0.0136214
0.000126789
0.00269981
-0.0103594
-0.0575665
-0.0596839
-0.0601707
-0.0598399
-0.0593954
-0.0593671
-0.0601846
-0.0621406
-0.0653931
-0.0699871
-0.075869
-0.0828887
-0.0907987
-0.0992503
-0.107794
-0.115885
-0.122888
-0.128098
-0.130768
-0.13013
-0.125445
-0.116068
-0.101565
-0.0819227
-0.0578974
-0.0315208
-0.00641481
0.0125036
0.0188372
0.00601709
-0.0650142
-0.0676211
-0.0675413
-0.0660729
-0.0643095
-0.0630063
-0.062727
-0.0638269
-0.0664777
-0.0707097
-0.0764419
-0.0834875
-0.091562
-0.10028
-0.109152
-0.117595
-0.124932
-0.130416
-0.133243
-0.132581
-0.127607
-0.117575
-0.10191
-0.0804136
-0.0535683
-0.0231227
0.00740924
0.0325096
0.0439044
0.0327474
-0.0736049
-0.0768457
-0.0756902
-0.0723972
-0.0687104
-0.0656689
-0.0639648
-0.0639905
-0.0658993
-0.0696786
-0.0751921
-0.0822013
-0.0903701
-0.0992639
-0.108349
-0.116992
-0.124472
-0.129983
-0.132657
-0.131585
-0.125845
-0.11458
-0.0970851
-0.0729923
-0.0424977
-0.00709392
0.0300188
0.0628961
0.0813388
0.0744852
-0.0847239
-0.088345
-0.0850503
-0.0788591
-0.0724626
-0.0671728
-0.0637455
-0.062543
-0.0636442
-0.0669497
-0.072241
-0.0792053
-0.087441
-0.0964559
-0.105663
-0.114377
-0.121821
-0.127125
-0.129343
-0.127474
-0.120466
-0.107336
-0.0872067
-0.0595054
-0.024231
0.0175687
0.063191
0.106644
0.135618
0.137823
-0.101529
-0.103889
-0.0962149
-0.0854822
-0.0753942
-0.0673333
-0.0619517
-0.0594619
-0.059781
-0.062671
-0.0677971
-0.0747525
-0.0830597
-0.0921628
-0.101418
-0.110088
-0.117336
-0.122225
-0.123726
-0.120735
-0.112031
-0.0964804
-0.072979
-0.0406682
0.000805352
0.0508829
0.107558
0.16617
0.211799
0.231225
-0.131157
-0.126546
-0.109968
-0.092252
-0.0772677
-0.0659242
-0.0584613
-0.0547454
-0.0544202
-0.0570386
-0.0621161
-0.0691373
-0.0775441
-0.0867181
-0.0959634
-0.104493
-0.111418
-0.11574
-0.116353
-0.112045
-0.101449
-0.0832022
-0.0559114
-0.0182968
0.0305984
0.0911049
0.162609
0.241517
0.313772
0.366344
-0.189696
-0.159829
-0.126786
-0.098727
-0.0773938
-0.062379
-0.0529543
-0.0483113
-0.0476565
-0.0502687
-0.0554927
-0.0627054
-0.0712778
-0.0805425
-0.0897666
-0.0981291
-0.104704
-0.108447
-0.108187
-0.102611
-0.0903435
-0.0696851
-0.038912
0.00382474
0.0604675
0.132947
0.223086
0.330186
0.443693
0.569982
-0.320928
-0.199661
-0.138366
-0.0973362
-0.069895
-0.0524517
-0.0425094
-0.0381802
-0.0381283
-0.0414004
-0.047242
-0.0549839
-0.0639767
-0.0735458
-0.0829563
-0.0913871
-0.0979113
-0.101477
-0.100894
-0.094694
-0.0816255
-0.0597888
-0.0271663
0.0186537
0.0808018
0.163646
0.273656
0.419336
0.607681
0.897208
-0.648258
-0.236113
-0.10693
-0.062366
-0.0380481
-0.0244592
-0.0186844
-0.0180852
-0.0210153
-0.0265983
-0.0342428
-0.043417
-0.0535759
-0.0641256
-0.0743943
-0.0836096
-0.0908828
-0.0951977
-0.0954246
-0.0903996
-0.0782656
-0.0574662
-0.0259788
0.0188158
0.0806287
0.16569
0.286439
0.471199
0.77735
1.37121
)
;

boundaryField
{
    movingWall
    {
        type            zeroGradient;
    }
    fixedWalls
    {
        type            zeroGradient;
    }
    frontAndBack
    {
        type            empty;
    }
}


// ************************************************************************* //
