/*--------------------------------*- C++ -*----------------------------------*\
  =========                 |
  \\      /  F ield         | OpenFOAM: The Open Source CFD Toolbox
   \\    /   O peration     | Website:  https://openfoam.org
    \\  /    A nd           | Version:  7
     \\/     M anipulation  |
\*---------------------------------------------------------------------------*/
FoamFile
{
    version     2.0;
    format      ascii;
    class       volScalarField;
    location    "900";
    object      epsilon;
}
// * * * * * * * * * * * * * * * * * * * * * * * * * * * * * * * * * * * * * //

dimensions      [0 2 -3 0 0 0 0];

internalField   nonuniform List<scalar> 
16900
(
0.816123
1.54961
2.43961
3.25994
4.00446
4.6739
5.27268
5.80534
6.27494
6.68275
7.02876
7.31261
7.53524
7.70138
7.8222
7.91416
7.98226
7.83194
33.9228
37.7256
41.7975
46.1505
50.7807
55.6886
60.8778
66.3533
72.1208
78.1853
84.5516
91.2234
98.2035
105.494
113.095
121.006
129.226
137.751
146.577
155.697
165.106
174.793
184.75
194.964
205.423
216.112
227.015
238.116
249.395
260.832
272.406
284.093
295.87
307.709
319.585
331.47
343.335
355.151
366.89
378.525
390.029
401.381
412.562
423.563
434.386
445.053
455.614
466.019
476.085
485.804
495.165
504.153
512.756
520.962
528.759
536.136
543.085
549.597
555.666
561.285
566.451
571.16
575.411
579.203
582.538
585.418
587.846
589.828
591.369
592.475
593.156
593.419
593.274
592.734
591.808
590.509
588.848
586.838
584.494
581.83
578.858
575.593
572.049
568.239
564.179
559.882
555.361
550.629
545.7
540.589
535.306
529.859
524.263
518.531
512.67
506.686
500.595
494.405
488.113
481.734
475.281
468.744
462.131
455.471
448.745
441.927
435.075
428.258
421.529
415.233
410.847
407.512
404.288
401.02
397.678
394.25
390.728
387.109
383.392
379.574
375.657
371.641
367.529
363.322
359.025
354.642
350.176
345.634
341.022
336.345
331.61
326.825
321.997
317.135
312.245
307.336
302.416
297.495
292.579
287.677
282.798
277.949
273.139
268.374
263.663
259.012
254.429
249.921
245.494
241.155
236.909
232.765
228.726
224.801
220.995
217.316
213.77
210.365
207.109
204.012
201.083
198.336
195.783
193.44
191.326
189.463
187.877
186.599
185.666
185.123
185.024
185.436
186.441
188.14
190.658
194.148
198.796
204.825
212.493
222.135
234.099
248.919
1.71682
1.66519
2.26292
2.93582
3.58829
4.20348
4.78668
5.35038
5.9104
6.48581
7.10074
7.78672
8.58586
9.55556
10.7738
12.3456
14.4367
17.3864
20.8588
23.0141
25.1791
27.4504
29.841
32.353
34.988
37.7477
40.6335
43.6462
46.7866
50.0546
53.45
56.9719
60.6189
64.3892
68.2804
72.2896
76.4133
80.6477
84.9883
89.43
93.9674
98.5945
103.305
108.092
112.947
117.864
122.834
127.848
132.898
137.974
143.067
148.168
153.267
158.354
163.42
168.455
173.452
178.401
183.297
188.134
192.908
197.618
202.268
206.863
211.416
215.927
220.316
224.57
228.684
232.65
236.464
240.12
243.614
246.941
250.097
253.078
255.882
258.505
260.946
263.203
265.274
267.16
268.86
270.374
271.704
272.85
273.815
274.601
275.21
275.645
275.91
276.008
275.944
275.722
275.345
274.82
274.15
273.341
272.398
271.327
270.132
268.818
267.392
265.858
264.222
262.488
260.662
258.749
256.753
254.679
252.531
250.313
248.03
245.683
243.278
240.818
238.304
235.739
233.127
230.468
227.761
225.012
222.225
219.381
216.485
213.608
210.758
208.015
205.587
203.385
201.232
199.075
196.898
194.693
192.458
190.192
187.893
185.562
183.2
180.806
178.383
175.932
173.456
170.955
168.433
165.893
163.336
160.767
158.187
155.602
153.013
150.424
147.84
145.263
142.697
140.145
137.612
135.101
132.614
130.157
127.731
125.34
122.987
120.675
118.407
116.186
114.014
111.893
109.827
107.818
105.869
103.98
102.156
100.399
98.7107
97.0944
95.5532
94.0905
92.7099
91.4159
90.2136
89.1088
88.1086
87.2216
86.458
85.8303
85.3537
85.047
84.933
85.0395
85.4006
86.0567
87.0553
88.4498
90.2959
92.6444
95.5251
98.9186
102.72
106.295
2.43826
2.00388
2.45126
3.04998
3.67457
4.29531
4.91366
5.5438
6.20544
6.92176
7.71879
8.62462
9.66714
10.8706
12.2519
13.8178
15.5677
17.4799
19.3979
21.216
23.0887
25.0485
27.1051
29.261
31.5175
33.8754
36.3356
38.8987
41.5648
44.334
47.2058
50.1795
53.2541
56.4279
59.6993
63.0659
66.5251
70.0738
73.7086
77.4257
81.2209
85.0895
89.0267
93.0272
97.0855
101.196
105.352
109.547
113.776
118.031
122.306
126.593
130.886
135.178
139.462
143.731
147.978
152.198
156.385
160.533
164.639
168.698
172.71
176.672
180.585
184.421
188.157
191.785
195.298
198.691
201.96
205.1
208.106
210.974
213.7
216.282
218.717
221.001
223.132
225.11
226.932
228.599
230.108
231.461
232.659
233.7
234.589
235.324
235.91
236.347
236.638
236.787
236.797
236.671
236.413
236.026
235.514
234.882
234.135
233.275
232.308
231.238
230.07
228.807
227.455
226.018
224.499
222.903
221.235
219.498
217.694
215.829
213.905
211.926
209.894
207.811
205.682
203.505
201.284
199.024
196.715
194.363
191.992
189.586
187.149
184.709
182.278
179.893
177.606
175.4
173.221
171.043
168.856
166.655
164.439
162.206
159.957
157.691
155.41
153.115
150.807
148.487
146.157
143.82
141.476
139.129
136.781
134.433
132.089
129.752
127.423
125.106
122.804
120.518
118.253
116.01
113.792
111.601
109.441
107.314
105.222
103.167
101.152
99.1785
97.2485
95.364
93.5269
91.7388
90.0013
88.3163
86.6851
85.1093
83.5906
82.1305
80.7307
79.3929
78.1192
76.9116
75.7726
74.7052
73.7127
72.7993
71.9698
71.2305
70.5887
70.0539
69.6373
69.3533
69.2192
69.256
69.4888
69.9468
70.6624
71.6689
72.9959
74.6611
76.6551
78.9185
81.3164
83.3295
3.00086
2.32456
2.67677
3.22516
3.83308
4.46429
5.11556
5.79825
6.52976
7.32948
8.21676
9.2087
10.3177
11.5488
12.8996
14.3616
15.9203
17.5625
19.2558
20.9938
22.8027
24.6952
26.6784
28.7557
30.929
33.1997
35.5689
38.0374
40.6059
43.2748
46.0441
48.9136
51.8829
54.951
58.1167
61.3784
64.7342
68.1816
71.718
75.34
79.0443
82.8269
86.6836
90.6097
94.6004
98.6504
102.754
106.907
111.101
115.333
119.594
123.879
128.182
132.495
136.813
141.128
145.433
149.722
153.988
158.224
162.425
166.584
170.696
174.756
178.747
182.65
186.454
190.151
193.734
197.197
200.535
203.743
206.817
209.751
212.542
215.186
217.68
220.021
222.206
224.234
226.104
227.813
229.361
230.749
231.976
233.043
233.952
234.705
235.302
235.746
236.039
236.186
236.189
236.051
235.776
235.369
234.833
234.172
233.391
232.495
231.488
230.375
229.16
227.848
226.444
224.952
223.376
221.721
219.992
218.193
216.326
214.395
212.407
210.362
208.262
206.113
203.918
201.672
199.381
197.062
194.705
192.313
189.898
187.458
184.996
182.525
180.055
177.607
175.199
172.825
170.464
168.106
165.744
163.374
160.997
158.612
156.219
153.819
151.413
149.003
146.588
144.172
141.755
139.34
136.928
134.522
132.123
129.734
127.357
124.994
122.648
120.322
118.017
115.737
113.483
111.257
109.063
106.902
104.776
102.688
100.639
98.6315
96.6672
94.7477
92.8746
91.0495
89.2737
87.5486
85.8755
84.2556
82.69
81.18
79.7266
78.331
76.9944
75.7181
74.5035
73.3522
72.2662
71.2475
70.2989
69.4238
68.6261
67.9111
67.2852
66.7564
66.3349
66.0332
65.8666
65.8536
66.0159
66.3776
66.9645
67.8006
68.9035
70.2762
71.8945
73.6916
75.545
77.032
3.46062
2.59819
2.882
3.39253
3.9858
4.62229
5.29476
6.01063
6.78317
7.62684
8.55478
9.57699
10.6989
11.9206
13.2383
14.6463
16.1374
17.7073
19.3509
21.0691
22.8684
24.7549
26.7334
28.8074
30.9793
33.2511
35.6245
38.1011
40.6821
43.3686
46.1615
49.0613
52.0681
55.182
58.4023
61.7283
65.1586
68.6915
72.3249
76.0561
79.8822
83.7996
87.8045
91.8926
96.0593
100.3
104.608
108.979
113.408
117.887
122.41
126.972
131.565
136.182
140.815
145.458
150.103
154.74
159.362
163.961
168.527
173.052
177.53
181.943
186.273
190.506
194.632
198.644
202.532
206.292
209.917
213.402
216.739
219.926
222.956
225.826
228.531
231.07
233.438
235.633
237.654
239.5
241.169
242.661
243.976
245.116
246.082
246.876
247.498
247.952
248.241
248.368
248.336
248.151
247.815
247.333
246.709
245.949
245.058
244.04
242.901
241.646
240.28
238.808
237.237
235.57
233.812
231.969
230.046
228.049
225.979
223.84
221.641
219.385
217.065
214.697
212.289
209.836
207.343
204.818
202.261
199.676
197.067
194.437
191.791
189.135
186.477
183.83
181.202
178.591
175.988
173.387
170.786
168.184
165.58
162.975
160.37
157.765
155.161
152.561
149.965
147.374
144.791
142.217
139.654
137.104
134.57
132.052
129.553
127.077
124.623
122.196
119.797
117.428
115.091
112.789
110.524
108.297
106.111
103.967
101.868
99.8137
97.8071
95.8493
93.9417
92.0855
90.2819
88.5319
86.8366
85.1969
83.6138
82.088
80.6205
79.212
77.8633
76.5755
75.3496
74.1867
73.0882
72.0559
71.092
70.1992
69.381
68.6419
67.9876
67.4255
66.9648
66.617
66.3964
66.3197
66.4065
66.678
67.1555
67.8575
68.7941
69.9599
71.3245
72.8228
74.3505
75.5505
3.83989
2.82247
3.05131
3.53037
4.10818
4.74298
5.42451
6.15664
6.94887
7.81171
8.75435
9.78328
10.9017
12.1099
13.406
14.788
16.2536
17.8025
19.4353
21.154
22.9617
24.8622
26.8596
28.9572
31.1582
33.4651
35.8805
38.4068
41.0461
43.8004
46.6715
49.6607
52.7693
55.9979
59.347
62.8165
66.4059
70.1141
73.9396
77.8803
81.9336
86.0965
90.3652
94.7357
99.2034
103.763
108.41
113.137
117.939
122.809
127.741
132.727
137.76
142.832
147.934
153.058
158.194
163.333
168.463
173.574
178.655
183.695
188.683
193.589
198.398
203.1
207.683
212.139
216.458
220.635
224.66
228.528
232.232
235.766
239.124
242.303
245.297
248.102
250.716
253.136
255.36
257.385
259.212
260.839
262.268
263.499
264.534
265.374
266.023
266.482
266.755
266.846
266.759
266.499
266.071
265.479
264.729
263.826
262.775
261.585
260.26
258.805
257.226
255.531
253.726
251.816
249.806
247.7
245.51
243.239
240.889
238.459
235.973
233.429
230.826
228.173
225.477
222.74
219.966
217.161
214.327
211.468
208.589
205.692
202.783
199.865
196.946
194.035
191.134
188.245
185.362
182.485
179.612
176.743
173.878
171.019
168.167
165.322
162.486
159.66
156.846
154.045
151.259
148.489
145.738
143.006
140.297
137.612
134.952
132.321
129.72
127.151
124.616
122.117
119.656
117.236
114.858
112.523
110.234
107.992
105.8
103.657
101.566
99.5279
97.5439
95.6151
93.7425
91.9268
90.169
88.4697
86.8296
85.2492
83.7292
82.2701
80.8724
79.5366
78.2636
77.054
75.9088
74.8293
73.8171
72.8746
72.0045
71.2108
70.4985
69.8742
69.3465
68.926
68.6257
68.4613
68.4505
68.6123
68.9651
69.5232
70.2923
71.2628
72.4027
73.6528
74.9268
75.9168
4.15146
3.00074
3.18135
3.63168
4.19218
4.81896
5.49956
6.23511
7.03224
7.89881
8.84174
9.86607
10.9747
12.169
13.4492
14.8156
16.2689
17.8106
19.443
21.1685
22.9902
24.9115
26.9362
29.0682
31.3111
33.6685
36.1438
38.7404
41.4614
44.31
47.2889
50.4006
53.6473
57.0309
60.5526
64.2133
68.0133
71.9523
76.0294
80.243
84.5911
89.0706
93.6782
98.4098
103.261
108.225
113.298
118.473
123.743
129.101
134.54
140.05
145.625
151.254
156.928
162.637
168.368
174.112
179.853
185.58
191.277
196.93
202.519
208.01
213.39
218.648
223.772
228.753
233.581
238.246
242.741
247.057
251.187
255.124
258.862
262.395
265.719
268.829
271.721
274.393
276.842
279.067
281.065
282.838
284.386
285.71
286.812
287.694
288.359
288.81
289.051
289.086
288.921
288.561
288.011
287.278
286.367
285.284
284.036
282.632
281.077
279.378
277.541
275.573
273.485
271.283
268.97
266.545
264.035
261.44
258.763
256.007
253.187
250.307
247.369
244.381
241.35
238.279
235.174
232.038
228.878
225.697
222.498
219.287
216.067
212.843
209.62
206.404
203.198
200.003
196.818
193.643
190.477
187.321
184.176
181.044
177.925
174.822
171.734
168.665
165.615
162.585
159.578
156.595
153.636
150.705
147.803
144.932
142.092
139.288
136.519
133.789
131.098
128.45
125.845
123.285
120.773
118.31
115.897
113.536
111.228
108.975
106.778
104.637
102.555
100.531
98.5676
96.664
94.8213
93.0401
91.3206
89.6633
88.0685
86.5363
85.0671
83.661
82.3183
81.0394
79.8249
78.6754
77.5921
76.5766
75.6312
74.7591
73.9646
73.2536
72.6335
72.1142
71.7076
71.428
71.2918
71.316
71.5169
71.9065
72.4881
73.2509
74.1648
75.1782
76.2224
77.0302
4.40454
3.13793
3.27389
3.69632
4.23738
4.85098
5.52303
6.25267
7.04454
7.90478
8.83914
9.85216
10.9471
12.1263
13.3917
14.7454
16.1895
17.7269
19.3606
21.0942
22.9308
24.8746
26.9297
29.1005
31.3917
33.8077
36.3532
39.0325
41.8502
44.8104
47.9171
51.1742
54.585
58.1524
61.8788
65.7661
69.8155
74.0274
78.4016
82.937
87.6319
92.4835
97.4886
102.643
107.941
113.378
118.947
124.641
130.453
136.374
142.396
148.509
154.704
160.969
167.295
173.667
180.074
186.501
192.931
199.349
205.738
212.079
218.327
224.463
230.474
236.346
242.067
247.625
253.009
258.208
263.213
268.014
272.603
276.972
281.115
285.025
288.696
292.126
295.308
298.24
300.919
303.343
305.512
307.425
309.084
310.491
311.646
312.554
313.216
313.638
313.823
313.778
313.508
313.018
312.317
311.41
310.305
309.007
307.525
305.87
304.048
302.066
299.93
297.648
295.237
292.703
290.05
287.283
284.419
281.463
278.422
275.301
272.111
268.859
265.549
262.19
258.787
255.346
251.874
248.374
244.853
241.316
237.766
234.208
230.646
227.085
223.53
219.985
216.453
212.936
209.433
205.946
202.474
199.02
195.585
192.169
188.775
185.404
182.058
178.736
175.442
172.176
168.94
165.735
162.563
159.425
156.322
153.257
150.23
147.244
144.3
141.401
138.546
135.739
132.981
130.274
127.618
125.016
122.469
119.978
117.545
115.17
112.855
110.601
108.408
106.278
104.21
102.206
100.265
98.3882
96.5755
94.8271
93.1429
91.5229
89.967
88.475
87.0467
85.6822
84.3814
83.1445
81.9721
80.8652
79.8252
78.8547
77.957
77.137
76.4014
75.7588
75.2198
74.7977
74.5072
74.3641
74.3833
74.5757
74.9443
75.4795
76.1555
76.9297
77.7499
78.3852
4.60666
3.23937
3.33294
3.72739
4.24699
4.84341
5.50126
6.21831
6.99783
7.84493
8.76475
9.7618
10.8398
12.0022
13.2519
14.5924
16.027
17.5597
19.1943
20.9352
22.7866
24.7532
26.8402
29.0529
31.3968
33.8778
36.5016
39.274
42.2008
45.2877
48.5399
51.9626
55.5605
59.3378
63.298
67.444
71.7779
76.3011
81.0138
85.9154
91.0045
96.2784
101.734
107.366
113.17
119.139
125.266
131.543
137.961
144.511
151.182
157.964
164.845
171.813
178.855
185.956
193.102
200.273
207.453
214.621
221.755
228.823
235.775
242.599
249.278
255.799
262.148
268.311
274.276
280.031
285.564
290.865
295.924
300.733
305.285
309.573
313.591
317.336
320.801
323.984
326.88
329.489
331.811
333.845
335.595
337.061
338.246
339.152
339.785
340.149
340.249
340.092
339.685
339.033
338.147
337.033
335.698
334.151
332.398
330.456
328.332
326.035
323.571
320.951
318.189
315.292
312.269
309.128
305.88
302.535
299.101
295.585
291.997
288.344
284.634
280.876
277.075
273.238
269.373
265.485
261.579
257.662
253.738
249.812
245.888
241.972
238.067
234.177
230.307
226.456
222.628
218.821
215.039
211.281
207.551
203.849
200.177
196.537
192.929
189.354
185.815
182.312
178.847
175.42
172.034
168.688
165.385
162.126
158.911
155.744
152.624
149.554
146.535
143.568
140.655
137.797
134.996
132.253
129.568
126.944
124.381
121.881
119.443
117.069
114.76
112.516
110.338
108.225
106.179
104.198
102.284
100.435
98.6516
96.9335
95.28
93.6906
92.1648
90.702
89.3018
87.9636
86.6875
85.4737
84.3229
83.2366
82.2175
81.2693
80.3973
79.6091
78.9141
78.324
77.8524
77.514
77.3231
77.2906
77.421
77.708
78.132
78.6597
79.255
79.7206
4.76434
3.31025
3.36329
3.72944
4.22585
4.80204
5.4416
6.1413
6.90352
7.73275
8.63388
9.61155
10.6701
11.8136
13.0463
14.3725
15.7967
17.3237
18.9586
20.7065
22.573
24.5638
26.685
28.9434
31.3457
33.899
36.6107
39.488
42.5382
45.7684
49.1856
52.7963
56.6066
60.622
64.8472
69.2864
73.9424
78.8174
83.9121
89.2262
94.7584
100.506
106.465
112.631
118.998
125.558
132.303
139.224
146.31
153.549
160.931
168.442
176.068
183.796
191.611
199.494
207.429
215.395
223.37
231.331
239.25
247.058
254.736
262.266
269.63
276.813
283.799
290.574
297.124
303.435
309.493
315.287
320.807
326.043
330.988
335.636
339.981
344.018
347.743
351.149
354.234
356.998
359.441
361.565
363.37
364.862
366.041
366.911
367.478
367.747
367.725
367.42
366.837
365.986
364.878
363.521
361.924
360.095
358.045
355.789
353.334
350.692
347.873
344.887
341.746
338.461
335.042
331.5
327.845
324.086
320.235
316.301
312.292
308.218
304.088
299.91
295.692
291.442
287.166
282.872
278.566
274.255
269.943
265.635
261.338
257.054
252.79
248.548
244.332
240.145
235.987
231.86
227.766
223.706
219.682
215.696
211.749
207.842
203.976
200.153
196.373
192.638
188.949
185.305
181.709
178.162
174.663
171.215
167.818
164.474
161.183
157.948
154.768
151.645
148.58
145.575
142.631
139.748
136.928
134.171
131.479
128.852
126.292
123.798
121.371
119.011
116.719
114.495
112.339
110.25
108.228
106.273
104.384
102.56
100.802
99.1065
97.4741
95.9033
94.3931
92.9426
91.5508
90.2174
88.9422
87.7259
86.5699
85.4768
84.4509
83.4981
82.6266
81.8467
81.1709
80.6131
80.1874
79.9062
79.7766
79.7973
79.9563
80.2303
80.5981
80.8949
4.88339
3.35541
3.3698
3.70742
4.1793
4.73305
5.35141
6.03047
6.77202
7.58017
8.45977
9.41574
10.453
11.5764
12.791
14.1022
15.5157
17.0372
18.6729
20.4294
22.3133
24.3318
26.4924
28.8033
31.2728
33.9097
36.7228
39.7211
42.9138
46.3095
49.9168
53.7437
57.7979
62.0862
66.6146
71.3882
76.4109
81.6853
87.2124
92.992
99.0225
105.301
111.823
118.583
125.574
132.787
140.212
147.839
155.655
163.645
171.795
180.091
188.516
197.055
205.688
214.397
223.161
231.956
240.757
249.537
258.234
266.793
275.199
283.434
291.478
299.314
306.926
314.296
321.411
328.257
334.815
341.074
347.022
352.652
357.955
362.925
367.556
371.844
375.786
379.372
382.602
385.475
387.994
390.16
391.976
393.446
394.574
395.361
395.816
395.947
395.76
395.265
394.469
393.383
392.019
390.384
388.492
386.351
383.974
381.373
378.56
375.546
372.345
368.966
365.423
361.728
357.891
353.926
349.843
345.653
341.367
336.997
332.552
328.042
323.477
318.867
314.22
309.544
304.848
300.139
295.424
290.71
286.003
281.309
276.632
271.978
267.351
262.756
258.195
253.672
249.187
244.744
240.342
235.985
231.674
227.41
223.195
219.029
214.914
210.85
206.839
202.881
198.976
195.126
191.33
187.59
183.906
180.278
176.708
173.196
169.743
166.35
163.017
159.746
156.537
153.391
150.31
147.294
144.343
141.459
138.642
135.892
133.211
130.599
128.055
125.581
123.176
120.839
118.572
116.372
114.241
112.176
110.178
108.245
106.375
104.568
102.823
101.137
99.5084
97.9367
96.4199
94.9568
93.5464
92.1884
90.8831
89.632
88.4379
87.3055
86.2414
85.2545
84.3562
83.56
82.8804
82.3317
81.925
81.6654
81.5496
81.5645
81.7033
81.832
4.96904
3.37926
3.35705
3.66617
4.11263
4.64244
5.23769
5.89398
6.61271
7.39783
8.25427
9.18732
10.2025
11.3054
12.5022
13.7993
15.2033
16.7214
18.3612
20.1305
22.0377
24.0914
26.3011
28.6764
31.2276
33.9653
36.9002
40.0435
43.4058
46.9979
50.8299
54.9114
59.2515
63.8584
68.7393
73.9002
79.3457
85.0787
91.1002
97.4094
104.004
110.881
118.034
125.456
133.139
141.073
149.246
157.644
166.253
175.053
184.029
193.162
202.434
211.826
221.316
230.882
240.501
250.145
259.785
269.376
278.828
288.121
297.235
306.149
314.844
323.301
331.5
339.426
347.064
354.4
361.409
368.08
374.403
380.37
385.973
391.206
396.063
400.542
404.643
408.347
411.659
414.581
417.115
419.265
421.032
422.424
423.443
424.096
424.391
424.336
423.94
423.212
422.162
420.802
419.142
417.195
414.972
412.486
409.749
406.775
403.576
400.165
396.556
392.762
388.796
384.671
380.399
375.994
371.468
366.833
362.1
357.283
352.392
347.437
342.43
337.381
332.299
327.193
322.073
316.947
311.821
306.704
301.602
296.521
291.467
286.445
281.46
276.516
271.616
266.763
261.96
257.208
252.508
247.864
243.276
238.745
234.273
229.86
225.508
221.217
216.987
212.819
208.712
204.668
200.686
196.766
192.909
189.115
185.384
181.716
178.113
174.573
171.099
167.69
164.348
161.071
157.862
154.721
151.647
148.643
145.707
142.841
140.045
137.319
134.663
132.077
129.561
127.114
124.737
122.428
120.186
118.011
115.901
113.856
111.872
109.95
108.087
106.28
104.528
102.829
101.18
99.5799
98.0263
96.518
95.0544
93.6356
92.2632
90.9403
89.6721
88.4662
87.3329
86.2852
85.3386
84.5097
83.8145
83.2654
82.8689
82.6223
82.5326
82.4952
5.02609
3.3857
3.3292
3.61017
4.03079
4.53582
5.10691
5.7393
6.43419
7.1955
8.02837
8.93857
9.93227
11.0161
12.1971
13.4828
14.8815
16.4016
18.0523
19.8433
21.7846
23.8871
26.1621
28.6214
31.2772
34.1424
37.2301
40.5533
44.125
47.9577
52.0632
56.4525
61.1361
66.1234
71.4224
77.04
82.9812
89.2489
95.8432
102.762
110.001
117.556
125.42
133.584
142.038
150.767
159.76
168.999
178.466
188.137
197.991
208.008
218.167
228.444
238.815
249.255
259.735
270.228
280.698
291.037
301.209
311.193
320.967
330.51
339.799
348.815
357.539
365.952
374.041
381.8
389.184
396.19
402.81
409.035
414.859
420.275
425.279
429.866
434.036
437.781
441.102
444.002
446.482
448.546
450.201
451.451
452.302
452.763
452.841
452.546
451.888
450.878
449.528
447.849
445.853
443.554
440.965
438.1
434.972
431.595
427.984
424.152
420.114
415.885
411.478
406.907
402.186
397.329
392.35
387.261
382.076
376.807
371.465
366.064
360.614
355.126
349.61
344.078
338.537
332.997
327.466
321.952
316.462
311.002
305.579
300.198
294.864
289.581
284.353
279.183
274.073
269.026
264.043
259.125
254.275
249.492
244.779
240.136
235.562
231.059
226.627
222.264
217.972
213.75
209.598
205.514
201.5
197.555
193.679
189.871
186.132
182.461
178.859
175.326
171.862
168.467
165.142
161.886
158.701
155.585
152.541
149.566
146.663
143.83
141.067
138.375
135.753
133.2
130.715
128.298
125.948
123.663
121.442
119.284
117.186
115.146
113.162
111.232
109.353
107.522
105.737
103.995
102.293
100.629
99.001
97.4086
95.8517
94.3321
92.8534
91.4219
90.0468
88.741
87.5207
86.4053
85.4162
84.5738
83.8948
83.3875
83.0723
82.8723
5.05891
3.37814
3.28987
3.54342
3.93828
4.41837
4.96505
5.5734
6.24454
6.98252
7.79284
8.68188
9.65666
10.7249
11.8948
13.1755
14.5766
16.1087
17.7828
19.6106
21.6046
23.778
26.1445
28.7183
31.5143
34.5476
37.834
41.3889
45.2276
49.3647
53.8129
58.5847
63.6914
69.1433
74.9491
81.1155
87.6477
94.5484
101.816
109.443
117.426
125.757
134.427
143.424
152.734
162.342
172.231
182.382
192.774
203.37
214.149
225.087
236.158
247.336
258.594
269.9
281.225
292.533
303.732
314.768
325.594
336.196
346.551
356.639
366.436
375.921
385.074
393.878
402.315
410.374
418.03
425.271
432.088
438.473
444.419
449.921
454.975
459.578
463.728
467.425
470.667
473.458
475.801
477.702
479.166
480.201
480.815
481.016
480.813
480.218
479.241
477.896
476.194
474.149
471.774
469.083
466.091
462.813
459.262
455.456
451.407
447.133
442.647
437.966
433.104
428.077
422.898
417.584
412.147
406.602
400.963
395.243
389.454
383.61
377.723
371.804
365.863
359.912
353.961
348.019
342.095
336.196
330.332
324.507
318.73
313.005
307.338
301.733
296.194
290.724
285.325
280.001
274.752
269.58
264.486
259.471
254.536
249.681
244.906
240.211
235.595
231.058
226.6
222.219
217.915
213.687
209.534
205.456
201.452
197.521
193.663
189.878
186.164
182.522
178.951
175.452
172.024
168.668
165.382
162.168
159.024
155.952
152.95
150.019
147.158
144.366
141.644
138.99
136.403
133.882
131.427
129.035
126.705
124.435
122.222
120.065
117.961
115.907
113.899
111.935
110.011
108.125
106.272
104.45
102.655
100.887
99.1434
97.4252
95.7345
94.0762
92.4587
90.8943
89.4002
87.9986
86.7162
85.5818
84.623
83.8593
83.3242
82.9668
5.0715
3.35956
3.24223
3.46948
3.83921
4.29489
4.8178
5.40301
6.05176
6.7684
7.559
8.43076
9.39179
10.4511
11.6186
12.9051
14.3225
15.8833
17.6012
19.4905
21.5667
23.8458
26.3448
29.0805
32.0706
35.3331
38.8866
42.7492
46.9389
51.4722
56.3622
61.6213
67.2617
73.2936
79.7253
86.5628
93.8105
101.471
109.538
117.998
126.844
136.066
145.652
155.584
165.846
176.417
187.277
198.41
209.787
221.351
233.085
244.961
256.949
269.018
281.136
293.271
305.383
317.373
329.187
340.798
352.171
363.282
374.108
384.625
394.81
404.642
414.101
423.17
431.831
440.071
447.873
455.223
462.114
468.536
474.484
479.954
484.943
489.449
493.473
497.015
500.075
502.659
504.77
506.415
507.603
508.34
508.638
508.505
507.952
506.99
505.634
503.896
501.79
499.331
496.532
493.409
489.977
486.253
482.252
477.99
473.483
468.747
463.799
458.655
453.33
447.839
442.2
436.427
430.534
424.537
418.45
412.287
406.062
399.786
393.474
387.138
380.787
374.435
368.091
361.765
355.467
349.204
342.985
336.816
330.706
324.659
318.68
312.775
306.947
301.2
295.536
289.958
284.466
279.063
273.748
268.524
263.39
258.346
253.392
248.527
243.75
239.061
234.459
229.941
225.507
221.155
216.885
212.694
208.582
204.548
200.59
196.707
192.9
189.166
185.506
181.918
178.403
174.96
171.588
168.288
165.058
161.899
158.81
155.79
152.84
149.957
147.143
144.395
141.712
139.094
136.538
134.043
131.607
129.228
126.904
124.632
122.408
120.23
118.095
115.998
113.936
111.905
109.902
107.922
105.962
104.019
102.091
100.176
98.2769
96.396
94.5408
92.7234
90.9616
89.2802
87.7112
86.2914
85.0597
84.0472
83.3003
82.7924
5.06759
3.33252
3.18904
3.39158
3.73742
4.17004
4.67086
5.23515
5.8645
6.5638
7.33998
8.20141
9.15769
10.2196
11.3991
12.7095
14.1652
15.7821
17.5767
19.5667
21.7713
24.2107
26.9056
29.876
33.1424
36.7263
40.6491
44.9318
49.5949
54.6582
60.131
66.025
72.3521
79.1214
86.339
94.0082
102.131
110.711
119.739
129.179
139.029
149.272
159.893
170.869
182.178
193.793
205.689
217.839
230.209
242.753
255.44
268.236
281.106
294.013
306.924
319.798
332.524
345.048
357.351
369.406
381.183
392.656
403.8
414.591
425.009
435.03
444.638
453.813
462.542
470.811
478.605
485.913
492.727
499.041
504.849
510.149
514.939
519.219
522.991
526.257
529.02
531.285
533.059
534.349
535.164
535.515
535.411
534.865
533.887
532.492
530.692
528.503
525.94
523.018
519.752
516.158
512.252
508.053
503.576
498.837
493.855
488.645
483.225
477.611
471.819
465.867
459.769
453.543
447.203
440.765
434.244
427.653
421.007
414.319
407.602
400.87
394.133
387.403
380.691
374.007
367.36
360.759
354.213
347.728
341.312
334.97
328.709
322.532
316.444
310.447
304.546
298.741
293.034
287.426
281.919
276.512
271.206
265.999
260.892
255.883
250.971
246.155
241.432
236.802
232.261
227.809
223.444
219.163
214.964
210.847
206.81
202.851
198.968
195.162
191.43
187.771
184.185
180.671
177.229
173.856
170.554
167.321
164.157
161.061
158.031
155.068
152.171
149.337
146.566
143.856
141.207
138.615
136.078
133.595
131.163
128.779
126.439
124.141
121.88
119.654
117.456
115.284
113.133
110.999
108.877
106.764
104.656
102.552
100.451
98.3565
96.2738
94.2144
92.1969
90.2481
88.4046
86.7111
85.2177
83.9672
83.0188
82.3686
5.05062
3.29927
3.13278
3.31275
3.63677
4.04875
4.53054
5.0779
5.69308
6.38194
7.1527
8.01543
8.98181
10.0651
11.2802
12.6435
14.1735
15.8904
17.8141
19.9672
22.3738
25.0592
28.05
31.3686
35.0383
39.0844
43.531
48.4011
53.7171
59.5059
65.7637
72.499
79.7235
87.4423
95.6567
104.364
113.561
123.238
133.381
143.962
154.961
166.359
178.13
190.246
202.679
215.396
228.364
241.55
254.914
268.412
282.005
295.654
309.317
322.95
336.522
349.895
363.032
375.917
388.53
400.845
412.835
424.475
435.74
446.61
457.062
467.077
476.638
485.729
494.337
502.449
510.054
517.143
523.708
529.745
535.251
540.223
544.663
548.573
551.954
554.813
557.152
558.979
560.302
561.129
561.472
561.341
560.749
559.708
558.231
556.333
554.027
551.331
548.259
544.828
541.054
536.955
532.547
527.847
522.873
517.643
512.174
506.482
500.586
494.503
488.249
481.842
475.297
468.631
461.86
454.999
448.063
441.067
434.026
426.952
419.859
412.759
405.666
398.589
391.541
384.531
377.57
370.665
363.825
357.059
350.371
343.77
337.259
330.844
324.529
318.317
312.211
306.212
300.323
294.543
288.874
283.315
277.866
272.527
267.296
262.171
257.152
252.236
247.42
242.703
238.082
233.554
229.118
224.771
220.51
216.333
212.238
208.223
204.287
200.427
196.642
192.931
189.292
185.725
182.227
178.799
175.439
172.147
168.92
165.76
162.663
159.631
156.66
153.751
150.9
148.108
145.372
142.69
140.06
137.479
134.945
132.454
130.003
127.589
125.208
122.856
120.528
118.219
115.926
113.643
111.366
109.09
106.811
104.527
102.237
99.9411
97.6453
95.3601
93.104
90.9054
88.8048
86.854
85.1138
83.6391
82.5019
81.7189
5.02391
3.26185
3.07585
3.23617
3.54158
3.93687
4.40471
4.94176
5.55147
6.24128
7.02142
7.90454
8.90538
10.0411
11.3302
12.7942
14.4573
16.3465
18.4855
20.9037
23.6317
26.7017
30.15
33.9982
38.2712
42.9987
48.2063
53.9162
60.1479
66.9181
74.2281
82.0804
90.4769
99.4143
108.885
118.877
129.377
140.367
151.821
163.709
176.003
188.673
201.686
215.007
228.601
242.43
256.454
270.634
284.925
299.283
313.657
328.014
342.297
356.456
370.342
383.951
397.268
410.277
422.958
435.289
447.247
458.809
469.952
480.656
490.904
500.677
509.961
518.742
527.008
534.749
541.958
548.625
554.748
560.321
565.345
569.819
573.745
577.127
579.97
582.28
584.063
585.327
586.082
586.338
586.107
585.401
584.233
582.618
580.569
578.101
575.231
571.974
568.347
564.368
560.053
555.419
550.484
545.267
539.784
534.054
528.094
521.922
515.555
509.011
502.307
495.46
488.486
481.402
474.224
466.967
459.646
452.276
444.871
437.445
430.011
422.582
415.17
407.786
400.441
393.146
385.91
378.742
371.65
364.642
357.724
350.903
344.183
337.571
331.068
324.679
318.406
312.251
306.215
300.299
294.503
288.827
283.27
277.831
272.508
267.3
262.204
257.217
252.338
247.562
242.888
238.312
233.831
229.443
225.143
220.931
216.801
212.754
208.785
204.893
201.076
197.332
193.659
190.056
186.521
183.053
179.651
176.314
173.04
169.829
166.678
163.588
160.556
157.581
154.662
151.797
148.983
146.219
143.503
140.832
138.202
135.612
133.057
130.534
128.039
125.568
123.116
120.678
118.25
115.827
113.403
110.975
108.537
106.086
103.62
101.139
98.6489
96.1579
93.6847
91.2586
88.9229
86.7357
84.7674
83.0849
81.7731
80.8681
4.99067
3.22228
3.0209
3.16573
3.45747
3.84239
4.30454
4.84218
5.46079
6.17045
6.98468
7.92021
8.99649
10.2371
11.666
13.3119
15.2083
17.3953
19.8971
22.7548
26.0072
29.6933
33.8512
38.5106
43.6996
49.4451
55.7694
62.6889
70.2143
78.3502
87.0912
96.4283
106.349
116.837
127.871
139.426
151.475
163.987
176.93
190.264
203.953
217.957
232.238
246.753
261.462
276.322
291.288
306.318
321.359
336.368
351.285
366.085
380.639
394.857
408.74
422.28
435.469
448.292
460.734
472.776
484.399
495.583
506.31
516.563
526.326
535.584
544.326
552.54
560.217
567.35
573.933
579.96
585.429
590.338
594.688
598.482
601.723
604.416
606.569
608.187
609.28
609.856
609.927
609.505
608.601
607.23
605.405
603.141
600.454
597.359
593.872
590.011
585.791
581.232
576.35
571.163
565.688
559.944
553.949
547.72
541.275
534.633
527.81
520.823
513.691
506.429
499.054
491.583
484.03
476.412
468.744
461.039
453.312