/*--------------------------------*- C++ -*----------------------------------*\
  =========                 |
  \\      /  F ield         | OpenFOAM: The Open Source CFD Toolbox
   \\    /   O peration     | Website:  https://openfoam.org
    \\  /    A nd           | Version:  7
     \\/     M anipulation  |
\*---------------------------------------------------------------------------*/
FoamFile
{
    version     2.0;
    format      ascii;
    class       volScalarField;
    location    "900";
    object      k;
}
// * * * * * * * * * * * * * * * * * * * * * * * * * * * * * * * * * * * * * //

dimensions      [0 2 -2 0 0 0 0];

internalField   nonuniform List<scalar> 
16900
(
0.0110184
0.0257689
0.0405681
0.0542065
0.0665794
0.0777025
0.08765
0.0965064
0.104336
0.111187
0.117101
0.12213
0.126348
0.129843
0.132651
0.134615
0.135169
0.133195
0.133687
0.143347
0.153487
0.16397
0.174763
0.185851
0.197225
0.208881
0.220818
0.23303
0.245515
0.258267
0.27128
0.284546
0.298056
0.3118
0.325766
0.339941
0.354311
0.368862
0.383577
0.39844
0.413432
0.428534
0.443727
0.458991
0.474304
0.489644
0.504988
0.520314
0.535595
0.550809
0.565929
0.580929
0.595784
0.610466
0.62495
0.63921
0.653221
0.666961
0.680409
0.69355
0.706373
0.718876
0.731073
0.742995
0.754706
0.766155
0.77715
0.787693
0.79778
0.807407
0.816568
0.825257
0.833471
0.841206
0.848459
0.855228
0.861511
0.867309
0.872621
0.877448
0.881794
0.885661
0.889054
0.891977
0.894438
0.896442
0.897998
0.899112
0.899793
0.900052
0.899899
0.899345
0.8984
0.897076
0.895384
0.893337
0.890947
0.888228
0.885192
0.88185
0.878217
0.874303
0.870124
0.865692
0.861017
0.856111
0.850987
0.845658
0.840133
0.834419
0.828529
0.822476
0.816266
0.809901
0.803398
0.796764
0.789995
0.783103
0.776103
0.768981
0.761744
0.754422
0.746995
0.739431
0.731786
0.724144
0.716552
0.709384
0.704298
0.700489
0.696815
0.693086
0.689264
0.685334
0.681285
0.677114
0.672816
0.668387
0.663828
0.659137
0.654315
0.649363
0.644283
0.639079
0.633755
0.628314
0.622762
0.617105
0.611349
0.605502
0.599571
0.593564
0.587489
0.581356
0.575175
0.568953
0.562702
0.55643
0.550149
0.543867
0.537596
0.531345
0.525124
0.518943
0.512812
0.506741
0.500741
0.49482
0.48899
0.483259
0.477639
0.47214
0.466772
0.461548
0.456479
0.451579
0.446861
0.442342
0.438038
0.43397
0.43016
0.426633
0.423418
0.420552
0.418073
0.416029
0.414476
0.41348
0.413119
0.41349
0.414706
0.416906
0.420259
0.42497
0.431279
0.439473
0.449877
0.462898
0.478926
0.498537
0.0231834
0.0414375
0.0570231
0.0715885
0.0849925
0.0972137
0.108356
0.118564
0.127977
0.136732
0.144979
0.152912
0.16081
0.169062
0.178124
0.18837
0.200167
0.215391
0.232052
0.24934
0.266757
0.284769
0.303411
0.322651
0.342468
0.362853
0.383802
0.405312
0.427382
0.450007
0.473179
0.496891
0.521131
0.545887
0.571143
0.596881
0.623082
0.649724
0.676783
0.704234
0.732049
0.7602
0.788656
0.817384
0.846352
0.875525
0.904865
0.934337
0.9639
0.993514
1.02314
1.05273
1.08224
1.11163
1.14084
1.16984
1.19857
1.22698
1.25503
1.28268
1.30988
1.3366
1.3628
1.38846
1.41356
1.43781
1.46132
1.48413
1.50622
1.52756
1.54816
1.56799
1.58703
1.60527
1.62271
1.63933
1.65511
1.67006
1.68417
1.69743
1.70984
1.7214
1.7321
1.74196
1.75098
1.75916
1.76652
1.77305
1.77877
1.7837
1.78785
1.79123
1.79385
1.79575
1.79692
1.7974
1.79719
1.79633
1.79483
1.79272
1.79
1.78671
1.78287
1.77849
1.7736
1.76822
1.76237
1.75606
1.74933
1.74217
1.73462
1.72668
1.71838
1.70973
1.70073
1.69141
1.68177
1.67181
1.66155
1.65101
1.64015
1.629
1.6176
1.60585
1.59375
1.58151
1.56911
1.55662
1.5442
1.53185
1.51932
1.5066
1.49367
1.48052
1.46717
1.45359
1.4398
1.42579
1.41157
1.39715
1.38252
1.3677
1.35269
1.33752
1.32218
1.30669
1.29107
1.27534
1.2595
1.24359
1.22761
1.21159
1.19555
1.17952
1.1635
1.14753
1.13162
1.1158
1.1001
1.08452
1.0691
1.05385
1.03879
1.02395
1.00935
0.994996
0.980921
0.967138
0.953667
0.940527
0.927734
0.915309
0.90327
0.891637
0.88043
0.869671
0.859385
0.849596
0.840336
0.831637
0.823539
0.816087
0.809336
0.803352
0.798212
0.794014
0.790874
0.788934
0.788368
0.789385
0.792239
0.797222
0.804669
0.814938
0.828372
0.845243
0.865622
0.889178
0.914771
0.937076
0.0329297
0.0538793
0.0704442
0.0857457
0.100078
0.113483
0.126083
0.138074
0.149683
0.161156
0.172767
0.184835
0.197723
0.211802
0.227358
0.244483
0.263155
0.283551
0.305038
0.327178
0.349813
0.373081
0.397057
0.421752
0.447161
0.473285
0.50012
0.527666
0.555918
0.584871
0.614516
0.644844
0.675839
0.707486
0.739766
0.772655
0.806128
0.840159
0.874716
0.909767
0.945277
0.981208
1.01752
1.05418
1.09113
1.12833
1.16575
1.20332
1.24101
1.27877
1.31653
1.35425
1.39188
1.42936
1.46663
1.50363
1.54031
1.57661
1.61247
1.64783
1.68264
1.71685
1.75041
1.78329
1.81527
1.84633
1.87649
1.90575
1.93409
1.96148
1.98791
2.01336
2.0378
2.06122
2.0836
2.10493
2.12519
2.14437
2.16247
2.17948
2.19539
2.21021
2.22392
2.23654
2.24808
2.25853
2.26791
2.27624
2.28351
2.28976
2.29498
2.29922
2.30248
2.30478
2.30616
2.30663
2.30622
2.30495
2.30285
2.29995
2.29628
2.29186
2.28671
2.28088
2.27439
2.26725
2.2595
2.25117
2.24228
2.23285
2.2229
2.21246
2.20155
2.19018
2.17837
2.16614
2.15351
2.14047
2.12704
2.11326
2.09905
2.08446
2.0696
2.0544
2.03885
2.02305
2.00702
1.99081
1.97449
1.95803
1.94133
1.92437
1.90716
1.88969
1.87196
1.85398
1.83574
1.81726
1.79854
1.77959
1.7604
1.74101
1.7214
1.70161
1.68165
1.66153
1.64128
1.62091
1.60044
1.5799
1.55932
1.53871
1.51811
1.49754
1.47702
1.45659
1.43626
1.41608
1.39606
1.37622
1.35661
1.33724
1.31813
1.29932
1.28082
1.26266
1.24486
1.22745
1.21044
1.19385
1.17772
1.16205
1.14688
1.13222
1.11809
1.10453
1.09156
1.0792
1.0675
1.05649
1.04621
1.03674
1.02812
1.02045
1.01382
1.00835
1.00421
1.00156
1.00065
1.00173
1.00514
1.01124
1.02042
1.03309
1.04956
1.07002
1.0943
1.12164
1.15014
1.17326
0.0405294
0.0639305
0.0815044
0.0974458
0.112549
0.127009
0.14099
0.154714
0.168447
0.182472
0.197083
0.212579
0.229244
0.247309
0.266897
0.287987
0.310461
0.334225
0.359052
0.384682
0.410992
0.438025
0.465839
0.494458
0.523895
0.554154
0.585238
0.617147
0.649879
0.683429
0.717789
0.752949
0.788893
0.825604
0.863061
0.90124
0.940111
0.979644
1.0198
1.06055
1.10185
1.14365
1.18592
1.22859
1.27163
1.31497
1.35858
1.40238
1.44633
1.49037
1.53445
1.57849
1.62244
1.66624
1.70982
1.75312
1.79606
1.83859
1.88062
1.9221
1.96295
2.00311
2.04252
2.08111
2.11864
2.15513
2.19058
2.22496
2.25826
2.29044
2.32149
2.35137
2.38007
2.40755
2.4338
2.45881
2.48255
2.50502
2.5262
2.54608
2.56467
2.58195
2.59792
2.6126
2.62598
2.63808
2.64891
2.65847
2.66679
2.67388
2.67977
2.68447
2.68801
2.69042
2.69172
2.69194
2.69111
2.68927
2.68644
2.68266
2.67796
2.67237
2.66592
2.65866
2.65061
2.64181
2.63228
2.62206
2.61118
2.59967
2.58755
2.57486
2.56161
2.54784
2.53355
2.51877
2.50354
2.48781
2.47163
2.45509
2.43815
2.4208
2.40313
2.3851
2.36674
2.34807
2.32914
2.30998
2.29062
2.27104
2.25118
2.23103
2.21059
2.18988
2.16889
2.14763
2.12611
2.10433
2.08229
2.06002
2.03751
2.01479
1.99186
1.96874
1.94545
1.92201
1.89843
1.87475
1.85099
1.82717
1.80332
1.77947
1.75564
1.73187
1.70819
1.68462
1.6612
1.63795
1.61491
1.59211
1.56957
1.54732
1.52539
1.5038
1.48259
1.46178
1.44139
1.42144
1.40196
1.38298
1.36451
1.34657
1.32919
1.3124
1.29621
1.28065
1.26575
1.25154
1.23806
1.22535
1.21346
1.20245
1.1924
1.18339
1.17554
1.169
1.16393
1.16056
1.15915
1.16002
1.16353
1.17011
1.18017
1.19413
1.21227
1.23467
1.26096
1.2901
1.3198
1.34299
0.0467395
0.0720707
0.0906204
0.107179
0.122954
0.138324
0.153508
0.168746
0.184307
0.200465
0.217484
0.235605
0.255024
0.275871
0.298189
0.321926
0.346969
0.373203
0.400506
0.428734
0.457799
0.487706
0.518488
0.550169
0.582765
0.616287
0.65074
0.686128
0.722452
0.75971
0.797896
0.837
0.877009
0.917906
0.959669
1.00227
1.04569
1.08988
1.13481
1.18045
1.22673
1.27362
1.32106
1.369
1.41739
1.46616
1.51525
1.5646
1.61416
1.66384
1.7136
1.76335
1.81304
1.86259
1.91192
1.96097
2.00966
2.05791
2.10563
2.15274
2.19917
2.24483
2.28966
2.33347
2.37612
2.4176
2.4579
2.49699
2.53483
2.5714
2.60667
2.64061
2.67318
2.70437
2.73414
2.76249
2.78938
2.8148
2.83875
2.86121
2.88218
2.90165
2.91962
2.93609
2.95108
2.96459
2.97663
2.98723
2.99639
3.00415
3.01051
3.01551
3.01918
3.02154
3.02264
3.02249
3.02114
3.01862
3.01496
3.01022
3.00443
2.99761
2.98982
2.98109
2.97146
2.96098
2.94966
2.93756
2.92472
2.91117
2.89692
2.88202
2.86651
2.85042
2.83372
2.81649
2.7988
2.78061
2.76197
2.74291
2.72344
2.70358
2.68336
2.66278
2.64187
2.62064
2.59912
2.57735
2.55534
2.53306
2.51048
2.48761
2.46444
2.44098
2.41724
2.39323
2.36895
2.34442
2.31963
2.29461
2.26936
2.2439
2.21824
2.19239
2.16638
2.14023
2.11396
2.08759
2.06116
2.03468
2.00819
1.98172
1.95529
1.92894
1.90271
1.87662
1.8507
1.82499
1.79952
1.77432
1.74942
1.72485
1.70065
1.67683
1.65342
1.63046
1.60797
1.58596
1.56448
1.54353
1.52314
1.50334
1.48414
1.46557
1.44765
1.43041
1.41387
1.39807
1.38304
1.36882
1.35547
1.34305
1.33164
1.32133
1.31226
1.30457
1.29845
1.29416
1.29198
1.29227
1.29542
1.3019
1.31215
1.32658
1.34547
1.36878
1.39603
1.42599
1.45616
1.47917
0.0518617
0.0786278
0.0980451
0.115182
0.131543
0.147669
0.163841
0.180311
0.197337
0.215166
0.234021
0.254086
0.275495
0.298323
0.322577
0.348208
0.375127
0.403239
0.432462
0.462709
0.493924
0.526098
0.559251
0.593404
0.628573
0.664772
0.702012
0.740302
0.779645
0.820044
0.861494
0.903991
0.947522
0.992073
1.03762
1.08415
1.13161
1.17999
1.22923
1.2793
1.33014
1.38171
1.43393
1.48676
1.54013
1.59398
1.64823
1.70282
1.75767
1.81271
1.86788
1.92308
1.97825
2.03331
2.08817
2.14275
2.19697
2.25073
2.30394
2.3565
2.40831
2.45929
2.50934
2.55816
2.60572
2.65199
2.69694
2.74053
2.78273
2.8235
2.8628
2.9006
2.93687
2.97157
3.00468
3.03617
3.06604
3.09424
3.12079
3.14565
3.16883
3.19032
3.21012
3.22823
3.24467
3.25944
3.27255
3.28404
3.29391
3.30219
3.3089
3.31407
3.31775
3.31995
3.32073
3.32011
3.31813
3.31483
3.31027
3.30448
3.2975
3.28939
3.28018
3.26992
3.25866
3.24644
3.23331
3.21929
3.20445
3.18883
3.17245
3.15531
3.13755
3.11918
3.10019
3.08065
3.06059
3.04005
3.01903
2.99758
2.97573
2.95348
2.93086
2.9079
2.8846
2.86099
2.83709
2.81292
2.7885
2.7638
2.7388
2.71351
2.68792
2.66205
2.63591
2.6095
2.58284
2.55593
2.52877
2.50139
2.4738
2.446
2.41801
2.38985
2.36153
2.33309
2.30454
2.2759
2.24721
2.2185
2.18978
2.1611
2.13248
2.10396
2.07558
2.04735
2.01933
1.99154
1.96401
1.93678
1.90987
1.88333
1.85718
1.83145
1.80616
1.78135
1.75704
1.73326
1.71002
1.68735
1.66528
1.64382
1.623
1.60283
1.58334
1.56456
1.5465
1.5292
1.51269
1.49702
1.48223
1.46838
1.45557
1.44388
1.43344
1.42443
1.41704
1.41154
1.40824
1.40752
1.40981
1.4156
1.42537
1.43954
1.45836
1.48178
1.50924
1.53939
1.56962
1.59234
0.0560686
0.0838458
0.103976
0.121618
0.138472
0.155201
0.172147
0.189571
0.207716
0.226801
0.247011
0.268489
0.291329
0.315576
0.341228
0.368245
0.39656
0.426106
0.456822
0.488654
0.521566
0.555551
0.590622
0.626796
0.664094
0.702534
0.742129
0.782894
0.824838
0.867966
0.91228
0.957779
1.00445
1.05229
1.10127
1.15137
1.20257
1.25481
1.30807
1.36229
1.41742
1.4734
1.53018
1.58767
1.64582
1.70454
1.76377
1.82341
1.8834
1.94364
2.00406
2.06457
2.12509
2.18552
2.24578
2.30577
2.36539
2.42454
2.48311
2.54099
2.59807
2.65423
2.70929
2.763
2.81532
2.86623
2.91567
2.96362
3.01002
3.05483
3.09801
3.13951
3.17931
3.21737
3.25365
3.28814
3.32082
3.35165
3.38063
3.40775
3.43299
3.45634
3.47782
3.49743
3.51517
3.53105
3.54511
3.55735
3.56779
3.57646
3.58339
3.58862
3.59219
3.59412
3.59447
3.59327
3.59056
3.5864
3.58083
3.5739
3.56567
3.55618
3.54548
3.53362
3.52067
3.50667
3.49167
3.47565
3.45879
3.4411
3.4226
3.40332
3.38336
3.36275
3.34152
3.31971
3.29737
3.27453
3.25122
3.22748
3.20333
3.1788
3.15391
3.12869
3.10315
3.0773
3.05118
3.0248
2.99817
2.97126
2.94408
2.91662
2.88889
2.86088
2.83262
2.80411
2.77536
2.74638
2.71718
2.68776
2.65815
2.62834
2.59836
2.56822
2.53795
2.50755
2.47706
2.4465
2.41589
2.38527
2.35466
2.3241
2.29362
2.26324
2.23302
2.20297
2.17314
2.14355
2.11425
2.08526
2.05662
2.02836
2.00051
1.97309
1.94615
1.9197
1.89377
1.86839
1.84358
1.81935
1.79574
1.77275
1.75042
1.72875
1.70778
1.68751
1.66798
1.64921
1.63122
1.61407
1.59779
1.58245
1.56812
1.55491
1.54294
1.53238
1.52345
1.51642
1.51161
1.50943
1.51035
1.51486
1.52351
1.53672
1.55478
1.57764
1.60471
1.63461
1.66465
1.68703
0.0594851
0.0879223
0.108595
0.126644
0.143886
0.161074
0.178594
0.196719
0.21568
0.23567
0.256846
0.279323
0.30317
0.32842
0.35507
0.38309
0.412436
0.443059
0.474921
0.507987
0.542236
0.577666
0.61429
0.652127
0.691201
0.731533
0.773143
0.816051
0.86027
0.905813
0.952687
1.00089
1.05043
1.10128
1.15344
1.20687
1.26155
1.31745
1.37451
1.43269
1.49193
1.55217
1.61332
1.67533
1.73812
1.80159
1.86566
1.93024
1.99525
2.06059
2.12616
2.19187
2.25762
2.32332
2.38886
2.45414
2.51905
2.58347
2.64728
2.71035
2.77256
2.83377
2.89362
2.95202
3.00893
3.06429
3.11806
3.17018
3.22059
3.26926
3.31614
3.36116
3.40431
3.44554
3.48482
3.52212
3.55742
3.5907
3.62194
3.65113
3.67825
3.7033
3.72629
3.74722
3.7661
3.78296
3.79779
3.81063
3.8215
3.83043
3.83746
3.84262
3.84595
3.84749
3.8473
3.84541
3.84188
3.83675
3.83009
3.82194
3.81238
3.80144
3.78918
3.77565
3.76096
3.74514
3.72825
3.71032
3.69145
3.6717
3.6511
3.62971
3.60759
3.58479
3.56136
3.53734
3.51279
3.48773
3.4622
3.43626
3.40991
3.38321
3.35616
3.3288
3.30115
3.27322
3.24504
3.21661
3.18796
3.15906
3.12991
3.10051
3.07087
3.04098
3.01086
2.98052
2.94997
2.9192
2.88824
2.85708
2.82574
2.79423
2.76257
2.73076
2.69882
2.66678
2.63466
2.60247
2.57025
2.53803
2.50582
2.47367
2.4416
2.40966
2.37786
2.34625
2.31487
2.28374
2.2529
2.22238
2.19223
2.16246
2.13311
2.1042
2.07578
2.04786
2.02047
1.99363
1.96737
1.9417
1.91665
1.89222
1.86845
1.84535
1.82293
1.80121
1.78021
1.75995
1.74046
1.72178
1.70394
1.687
1.67103
1.65614
1.64244
1.63011
1.61936
1.61047
1.60377
1.5997
1.59874
1.60143
1.60834
1.61997
1.63665
1.65838
1.6846
1.71394
1.74363
1.76568
0.0622127
0.091025
0.112072
0.130417
0.14794
0.165447
0.183363
0.20197
0.221488
0.242093
0.263921
0.287068
0.311591
0.337519
0.364851
0.39357
0.42365
0.45506
0.487778
0.521785
0.557074
0.59365
0.631531
0.670738
0.7113
0.753245
0.796598
0.841385
0.887626
0.93534
0.984539
1.03523
1.08741
1.14108
1.19622
1.25281
1.31082
1.37021
1.43093
1.49294
1.55616
1.62052
1.68595
1.75237
1.81969
1.88781
1.95663
2.02607
2.096
2.16633
2.23695
2.30775
2.37863
2.44947
2.52017
2.5906
2.66065
2.73018
2.79906
2.86715
2.93428
3.00024
3.06468
3.12756
3.18882
3.24841
3.30626
3.36231
3.41652
3.46881
3.51914
3.56745
3.61371
3.65787
3.69991
3.73978
3.77748
3.81298
3.84626
3.87731
3.9061
3.93264
3.95694
3.97899
3.99883
4.01647
4.03191
4.04519
4.05632
4.06536
4.07232
4.07727
4.08024
4.08127
4.08042
4.07773
4.07328
4.0671
4.05924
4.0498
4.03884
4.02641
4.01258
3.99739
3.98096
3.96333
3.94456
3.92472
3.90387
3.88209
3.85944
3.83597
3.81174
3.78682
3.76125
3.73509
3.70838
3.68119
3.65354
3.62549
3.59706
3.56829
3.53921
3.50985
3.48023
3.45037
3.42028
3.38999
3.3595
3.32881
3.29791
3.26679
3.23547
3.20395
3.17222
3.14031
3.10822
3.07594
3.04349
3.01088
2.9781
2.94518
2.91212
2.87893
2.84563
2.81223
2.77877
2.74524
2.71169
2.67814
2.64461
2.61114
2.57776
2.54449
2.51138
2.47846
2.44575
2.41331
2.38115
2.34931
2.31783
2.28674
2.25607
2.22585
2.1961
2.16685
2.13812
2.10995
2.08234
2.05533
2.02892
2.00313
1.97797
1.95347
1.92963
1.90646
1.88399
1.86222
1.84119
1.82091
1.80142
1.78278
1.76505
1.74832
1.73271
1.71839
1.70556
1.69451
1.68558
1.67921
1.67592
1.67628
1.68092
1.69041
1.70518
1.7253
1.75032
1.77888
1.80814
1.8299
0.0643397
0.0933
0.114568
0.133097
0.15079
0.16849
0.186643
0.205542
0.2254
0.24638
0.268605
0.292158
0.317093
0.343436
0.371195
0.400365
0.430933
0.462888
0.49622
0.530926
0.567011
0.604489
0.643384
0.683725
0.725547
0.768882
0.813766
0.860229
0.908301
0.958004
1.00936
1.06237
1.11705
1.1734
1.23139
1.29102
1.35224
1.41502
1.47931
1.54505
1.61216
1.68058
1.75021
1.82096
1.89273
1.96542
2.03892
2.11311
2.18788
2.26311
2.33866
2.41443
2.4903
2.56613
2.64181
2.71722
2.79221
2.86664
2.94036
3.01321
3.08502
3.15533
3.22406
3.29112
3.35643
3.41993
3.48156
3.54124
3.59892
3.65453
3.70801
3.75931
3.80837
3.85517
3.89966
3.94183
3.98164
4.01908
4.05414
4.08677
4.11698
4.14475
4.17011
4.19307
4.21364
4.23184
4.2477
4.26121
4.27243
4.2814
4.28814
4.29273
4.29519
4.29558
4.29395
4.29037
4.2849
4.27759
4.26851
4.25775
4.24536
4.23143
4.216
4.19917
4.18101
4.16158
4.14096
4.11923
4.09645
4.0727
4.04804
4.02254
3.99627
3.96929
3.94166
3.91344
3.88469
3.85546
3.8258
3.79575
3.76536
3.73466
3.70368
3.67246
3.64103
3.60939
3.57758
3.54561
3.51348
3.4812
3.44875
3.41615
3.38338
3.35046
3.31738
3.28415
3.25078
3.21726
3.1836
3.1498
3.11587
3.08181
3.04763
3.01335
2.97896
2.94449
2.90996
2.87538
2.84077
2.80616
2.77157
2.73704
2.70259
2.66825
2.63406
2.60005
2.56625
2.5327
2.49943
2.46647
2.43385
2.40162
2.36978
2.33839
2.30745
2.27701
2.24707
2.21767
2.18882
2.16053
2.13283
2.10573
2.07924
2.05337
2.02812
2.00352
1.97956
1.95626
1.93364
1.91171
1.89051
1.87007
1.85046
1.83176
1.81407
1.79757
1.78244
1.76898
1.75752
1.74851
1.74249
1.74009
1.742
1.74888
1.76128
1.77943
1.80297
1.83061
1.85943
1.88098
0.0659445
0.0948756
0.11623
0.134834
0.152595
0.170369
0.188623
0.207653
0.227669
0.248827
0.271239
0.294984
0.320115
0.346661
0.374638
0.404053
0.434908
0.467206
0.500953
0.53616
0.572845
0.611031
0.650752
0.692046
0.734952
0.779515
0.825776
0.873773
0.923544
0.975116
1.02852
1.08376
1.14085
1.19979
1.26057
1.32317
1.38755
1.45368
1.52148
1.59091
1.66187
1.73429
1.80806
1.88309
1.95925
2.03645
2.11454
2.19341
2.27291
2.3529
2.43326
2.51384
2.59451
2.67514
2.75559
2.83571
2.91537
2.99441
3.07267
3.14996
3.22592
3.30026
3.37289
3.44374
3.51271
3.57974
3.64475
3.70767
3.76844
3.827
3.88326
3.93716
3.98866
4.03772
4.08431
4.12841
4.16999
4.20904
4.24555
4.27946
4.31077
4.33949
4.36563
4.38922
4.41026
4.42879
4.44483
4.45837
4.46947
4.47818
4.48454
4.4886
4.49042
4.49005
4.48756
4.483
4.47645
4.46797
4.45763
4.44552
4.43169
4.41624
4.39924
4.38076
4.36089
4.33971
4.31728
4.29371
4.26905
4.24338
4.21679
4.18934
4.16111
4.13217
4.10258
4.07242
4.04173
4.01058
3.97903
3.94712
3.9149
3.88241
3.8497
3.81678
3.7837
3.75047
3.71712
3.68365
3.65009
3.61642
3.58265
3.54878
3.5148
3.48072
3.44653
3.41224
3.37785
3.34335
3.30874
3.27403
3.23922
3.2043
3.16928
3.13418
3.09898
3.06371
3.02838
2.99301
2.95761
2.9222
2.88682
2.85147
2.8162
2.78103
2.74599
2.71111
2.67643
2.64198
2.60779
2.57389
2.54032
2.5071
2.47427
2.44185
2.40987
2.37835
2.34731
2.31678
2.28677
2.2573
2.22838
2.20002
2.17223
2.14502
2.11839
2.09235
2.0669
2.04205
2.01781
1.99419
1.97121
1.94891
1.92733
1.90655
1.88667
1.86783
1.85024
1.83415
1.81992
1.808
1.79894
1.79344
1.79223
1.79613
1.8058
1.82167
1.84353
1.87017
1.8986
1.92004
0.0670982
0.0958654
0.117192
0.135773
0.153504
0.171249
0.189483
0.208508
0.228532
0.249704
0.272133
0.295897
0.321048
0.347624
0.375649
0.405142
0.436121
0.468603
0.502608
0.538163
0.575298
0.61405
0.654462
0.696582
0.74046
0.786147
0.833694
0.883149
0.934553
0.987944
1.04335
1.10079
1.16027
1.22179
1.28535
1.35092
1.41846
1.48793
1.55926
1.63238
1.70718
1.78358
1.86147
1.94073
2.02124
2.10286
2.18547
2.2689
2.35301
2.43763
2.52261
2.6078
2.69305
2.7782
2.86312
2.94765
3.03163
3.11489
3.19726
3.27848
3.35809
3.43598
3.51204
3.5862
3.65835
3.72843
3.79635
3.86203
3.92543
3.98648
4.04506
4.10111
4.1546
4.20549
4.25375
4.29937
4.34231
4.38258
4.42018
4.45501
4.48707
4.5164
4.54301
4.56692
4.58815
4.60673
4.62268
4.63603
4.64681
4.65509
4.66091
4.66432
4.66538
4.66415
4.6607
4.6551
4.64741
4.63771
4.62607
4.61258
4.59732
4.58036
4.56179
4.54169
4.52015
4.49725
4.47308
4.44772
4.42125
4.39376
4.36533
4.33603
4.30595
4.27516
4.24374
4.21175
4.17926
4.14634
4.11304
4.07942
4.04554
4.01143
3.97714
3.94271
3.90816
3.87352
3.83882
3.80407
3.76927
3.73444
3.69957
3.66466
3.62971
3.59471
3.55966
3.52456
3.4894
3.45418
3.4189
3.38354
3.34811
3.31261
3.27702
3.24136
3.20563
3.16983
3.13397
3.09807
3.06214
3.02619
2.99025
2.95434
2.91848
2.88271
2.84705
2.81152
2.77617
2.74102
2.7061
2.67145
2.63709
2.60305
2.56937
2.53606
2.50316
2.47069
2.43867
2.40711
2.37603
2.34545
2.31538
2.28582
2.25678
2.22827
2.20028
2.17282
2.14589
2.11948
2.0936
2.06826
2.04347
2.01926
1.99565
1.97272
1.95056
1.92929
1.9091
1.89025
1.87308
1.85805
1.84574
1.83686
1.83227
1.83287
1.83955
1.8529
1.87295
1.89856
1.92668
1.94815
0.0678656
0.0963695
0.117573
0.136045
0.153661
0.171285
0.189397
0.208303
0.228209
0.249262
0.271571
0.295213
0.320245
0.346712
0.374651
0.404093
0.43507
0.467616
0.501767
0.537564
0.575053
0.614284
0.655312
0.698196
0.742996
0.789774
0.83859
0.889499
0.942551
0.997787
1.05524
1.11492
1.17684
1.24101
1.30741
1.37602
1.44679
1.51967
1.59457
1.67141
1.75008
1.83048
1.91247
1.99594
2.08073
2.16671
2.25371
2.34159
2.43015
2.5192
2.60857
2.6981
2.78761
2.87696
2.96596
3.05446
3.1423
3.22929
3.31525
3.39968
3.48239
3.56325
3.64218
3.71908
3.79385
3.8664
3.93665
4.00454
4.07
4.13303
4.19339
4.25106
4.30602
4.35825
4.4077
4.45436
4.49821
4.53924
4.57743
4.61276
4.64521
4.67481
4.70156
4.72549
4.74663
4.765
4.78063
4.79357
4.80384
4.8115
4.81661
4.81923
4.8194
4.81721
4.81271
4.80598
4.79709
4.78613
4.77317
4.75829
4.74158
4.72313
4.70302
4.68135
4.65819
4.63365
4.6078
4.58074
4.55256
4.52335
4.49319
4.46217
4.43037
4.39787
4.36475
4.33109
4.29695
4.26241
4.22754
4.19239
4.15701
4.12147
4.08579
4.05003
4.01421
3.97837
3.94253
3.9067
3.8709
3.83513
3.79939
3.76367
3.72798
3.69231
3.65664
3.62098
3.58531
3.54963
3.51393
3.47819
3.44242
3.40659
3.3707
3.33476
3.29875
3.26268
3.22656
3.19039
3.15418
3.11794
3.08169
3.04545
3.00925
2.9731
2.93703
2.90107
2.86525
2.82959
2.79413
2.7589
2.72393
2.68923
2.65485
2.6208
2.58712
2.55381
2.52091
2.48842
2.45637
2.42477
2.39361
2.36291
2.33268
2.30291
2.2736
2.24474
2.21634
2.18839
2.16088
2.13381
2.1072
2.08105
2.05539
2.03028
2.00579
1.98204
1.9592
1.93751
1.91731
1.89906
1.88335
1.87094
1.86276
1.85987
1.86333
1.874
1.89213
1.91673
1.94465
1.9663
0.0683058
0.0964762
0.117481
0.135769
0.153196
0.170619
0.188524
0.207217
0.226904
0.247733
0.26981
0.29322
0.318024
0.344279
0.372033
0.401332
0.432224
0.464761
0.498994
0.534982
0.572787
0.612474
0.654114
0.697775
0.74353
0.791448
0.8416
0.89405
0.948855
1.00606
1.06568
1.12775
1.19227
1.25923
1.32861
1.40039
1.47452
1.55093
1.62952
1.71017
1.79277
1.87718
1.96328
2.05091
2.13991
2.23013
2.32139
2.41353
2.50634
2.59956
2.69301
2.78651
2.87989
2.97296
3.06555
3.15748
3.24857
3.33863
3.42731
3.51435
3.59949
3.68267
3.76379
3.84276
3.91947
3.99384
4.06578
4.13521
4.20209
4.26634
4.32784
4.38655
4.44243
4.49545
4.54557
4.59278
4.63705
4.67839
4.71677
4.75219
4.78463
4.81412
4.84067
4.8643
4.88504
4.90293
4.918
4.93028
4.93983
4.94669
4.95091
4.95258
4.95174
4.94847
4.94283
4.93491
4.92477
4.91251
4.8982
4.88194
4.8638
4.84389
4.82229
4.79909
4.77439
4.74828
4.72085
4.69221
4.66243
4.63163
4.59987
4.56727
4.5339
4.49985
4.4652
4.43004
4.39443
4.35847
4.32221
4.28571
4.24904
4.21226
4.17541
4.13852
4.10165
4.06482
4.02806
3.99138
3.9548
3.91832
3.88194
3.84566
3.80947
3.77337
3.73734
3.70137
3.66545
3.62957
3.5937
3.55785
3.52198
3.48609
3.45017
3.4142
3.37818
3.3421
3.30597
3.26977
3.23353
3.19725
3.16093
3.1246
3.08828
3.05197
3.01571
2.97953
2.94344
2.90747
2.87166
2.83603
2.8006
2.76541
2.73047
2.69583
2.66148
2.62747
2.5938
2.56049
2.52756
2.49501
2.46285
2.43109
2.39972
2.36874
2.33815
2.30795
2.27811
2.24864
2.21952
2.19075
2.16232
2.13425
2.10655
2.07926
2.05245
2.02622
2.00072
1.97618
1.95293
1.93142
1.91225
1.89623
1.88437
1.87786
1.87798
1.88585
1.90201
1.92562
1.95346
1.97547
0.0684732
0.0962633
0.117011
0.135054
0.152227
0.169385
0.187012
0.205416
0.224804
0.245324
0.267088
0.290184
0.314685
0.340658
0.368167
0.397274
0.428046
0.460552
0.494863
0.531056
0.569212
0.609415
0.651749
0.696296
0.743134
0.792348
0.844013
0.898204
0.954981
1.01439
1.07645
1.14115
1.2085
1.2785
1.3511
1.42628
1.50396
1.58409
1.66654
1.75111
1.8377
1.92616
2.01634
2.10807
2.20117
2.29546
2.39076
2.48691
2.58369
2.68069
2.77778
2.87477
2.97146
3.06767
3.16319
3.25784
3.35141
3.44355
3.53406
3.6228
3.70959
3.79431
3.87686
3.95715
4.03506
4.11051
4.18342
4.2537
4.3213
4.38614
4.44816
4.50727
4.56346
4.61668
4.66691
4.71412
4.75831
4.79946
4.83758
4.87265
4.90467
4.93366
4.95964
4.98262
5.00266
5.01977
5.034
5.04539
5.05399
5.05985
5.06303
5.0636
5.06162
5.05717
5.05031
5.04113
5.0297
5.01612
5.00046
4.98282
4.96329
4.94196
4.91892
4.89428
4.86813
4.84056
4.81167
4.78156
4.75033
4.71808
4.6849
4.65087
4.61611
4.58069
4.5447
4.50824
4.47137
4.43418
4.39673
4.35911
4.32137
4.28357
4.24575
4.20798
4.17028
4.13269
4.09524
4.05795
4.02082
3.98387
3.9471
3.9105
3.87406
3.83777
3.80163
3.7656
3.72968
3.69385
3.65808
3.62236
3.58667
3.55097
3.51527
3.47953
3.44375
3.40792
3.37202
3.33606
3.30003
3.26394
3.22779
3.1916
3.15538
3.11914
3.0829
3.0467
3.01054
2.97445
2.93846
2.9026
2.86689
2.83136
2.79603
2.76092
2.72605
2.69146
2.65714
2.62312
2.5894
2.556
2.52293
2.49017
2.45774
2.42562
2.39381
2.36231
2.33109
2.30014
2.26946
2.23902
2.20883
2.17887
2.14917
2.11975
2.09066
2.06199
2.03388
2.00654
1.98028
1.95555
1.93296
1.91334
1.89778
1.88761
1.88432
1.88933
1.90347
1.92613
1.95402
1.97656
0.0684178
0.0957995
0.116244
0.133994
0.150862
0.167699
0.184993
0.20305
0.222079
0.242232
0.263626
0.286358
0.310514
0.336176
0.363424
0.392341
0.423015
0.455538
0.489999
0.526497
0.565133
0.606014
0.649244
0.694909
0.743095
0.793895
0.847394
0.903668
0.962784
1.0248
1.08968
1.1574
1.22797
1.30136
1.37752
1.45638
1.53788
1.62196
1.70847
1.79709
1.88773
1.98023
2.07442
2.17012
2.26711
2.36521
2.46419
2.56385
2.66395
2.76417
2.86429
2.96411
3.0634
3.16195
3.25957
3.35603
3.45098
3.54425
3.63575
3.72537
3.81295
3.89836
3.9815
4.06226
4.14055
4.21628
4.28937
4.35973
4.4273
4.49203
4.55385
4.6127
4.66854
4.72134
4.77107
4.81772
4.86128
4.90174
4.9391
4.97336
5.00453
5.03262
5.05765
5.07965
5.09865
5.1147
5.12783
5.13809
5.14552
5.1502
5.15216
5.1515
5.14826
5.14254
5.13439
5.1239
5.11115
5.09624
5.07925
5.06026
5.03938
5.0167
4.99232
4.96633
4.93883
4.90993
4.87972
4.84831
4.81579
4.78226
4.74782
4.71258
4.67662
4.64004
4.60292
4.56537
4.52745
4.48926
4.45087
4.41235
4.37377
4.33519
4.29666
4.25823
4.21995
4.18185
4.14395
4.10629
4.06887
4.0317
3.99478
3.9581
3.92166
3.88544
3.84943
3.8136
3.77794
3.74241
3.70699
3.67166
3.63639
3.60115
3.56591
3.53066
3.49537
3.46003
3.42462
3.38913
3.35355
3.31789
3.28214
3.24631
3.21041
3.17445
3.13844
3.10241
3.06638
3.03036
2.99438
2.95847
2.92264
2.88693
2.85134
2.81592
2.78067
2.74561
2.71077
2.67614
2.64175
2.6076
2.5737
2.54004
2.50663
2.47345
2.44049
2.40776
2.37522
2.34287
2.31068
2.27864
2.24675
2.21498
2.18335
2.15187
2.12058
2.08956
2.05894
2.0289
1.99975
1.97191
1.946
1.92287
1.90367
1.88987
1.88316
1.88527
1.89739
1.91914
1.9472
1.97042
0.0681866
0.0951456
0.115255
0.132672
0.149194
0.165671
0.182589
0.200258
0.218888
0.238639
0.259636
0.281988
0.3058
0.33117
0.3582
0.386996
0.417675
0.450355
0.485143
0.522161
0.561539
0.603409
0.647902
0.695097
0.745078
0.797949
0.853794
0.912688
0.974696
1.03992
1.1082
1.17949
1.25378
1.33104
1.41117
1.49409
1.57968
1.66784
1.75838
1.85106
1.9457
2.04212
2.14013
2.23952
2.34005
2.4415
2.54365
2.64625
2.74904
2.85174
2.9541
3.05587
3.15682
3.25672
3.35535
3.45234
3.54759
3.64103
3.73257
3.82211
3.90952
3.99467
4.07746
4.15779
4.23556
4.31069
4.3831
4.45271
4.51948
4.58333
4.64421
4.70208
4.75689
4.80862
4.85724
4.90274
4.94511
4.98435
5.02046
5.05345
5.08333
5.11011
5.13381
5.15448
5.17214
5.18683
5.1986
5.2075
5.21358
5.21689
5.21749
5.21547
5.21088
5.2038
5.19432
5.18249
5.16843
5.1522
5.1339
5.11363
5.09148
5.06754
5.04191
5.0147
4.986
4.95592
4.92455
4.892
4.85837
4.82377
4.78829
4.75204
4.7151
4.67758
4.63958
4.60117
4.56246
4.52351
4.48442
4.44526
4.40609
4.36699
4.32799
4.28917
4.25056
4.2122
4.17412
4.13635
4.09889
4.06175
4.02494
3.98844
3.95226
3.91636
3.88074
3.84536
3.8102
3.77523
3.74041
3.70572
3.67112
3.63658
3.60206
3.56754
3.53299
3.49838
3.46369
3.42891
3.39401
3.35901
3.32388
3.28864
3.25327
3.2178
3.18223
3.14658
3.11087
3.07511
3.03932
3.00352
2.96774
2.932
2.89633
2.86073
2.82523
2.78985
2.7546
2.71949
2.68454
2.64975
2.61512
2.58065
2.54635
2.51219
2.47818
2.4443
2.41053
2.37685
2.34324
2.30969
2.27618
2.2427
2.20923
2.1758
2.14244
2.1092
2.0762
2.04362
2.01173
1.98095
1.95188
1.92541
1.90271
1.88537
1.8753
1.87452
1.88461
1.90547
1.93379
1.95784
0.0678241
0.0943557
0.114106
0.131161
0.147307
0.163393
0.179909
0.197165
0.215381
0.234723
0.255332
0.277335
0.300857
0.326024
0.352959
0.381799
0.412698
0.445819
0.481267
0.519202
0.559782
0.603168
0.649551
0.698955
0.751448
0.807146
0.866127
0.92844
0.994117
1.06317
1.13549
1.211
1.28962
1.37126
1.45581
1.54312
1.63305
1.72543
1.82007
1.91673
2.01519
2.11525
2.21669
2.31927
2.42275
2.52689
2.63144
2.73614
2.84072
2.9449
3.04839
3.15097
3.25235
3.3523
3.45043
3.54674
3.64119
3.73371
3.82422
3.91263
3.99881
4.08267
4.1641
4.24301
4.3193
4.39291
4.46375
4.53175
4.59687
4.65905
4.71824
4.7744
4.82748
4.87747
4.92435
4.96811
5.00873
5.04623
5.0806
5.11187
5.14003
5.16511
5.18714
5.20614
5.22216
5.23524
5.24541
5.25274
5.25728
5.25908
5.2582
5.25472
5.24871
5.24024
5.22938
5.21623
5.20086
5.18336
5.16383
5.14235
5.11902
5.09394
5.06721
5.03892
5.00918
4.97809
4.94576
4.91228
4.87776
4.8423
4.80601
4.76898
4.73132
4.69311
4.65447
4.61548
4.57623
4.5368
4.49728
4.45774
4.41826
4.3789
4.33972
4.30077
4.26211
4.22376
4.18576
4.14814
4.1109
4.07406
4.03762
4.00157
3.96589
3.93057
3.89559
3.86091
3.82651
3.79234
3.75838
3.72457
3.69089
3.6573
3.62374
3.59019
3.55661
3.52297
3.48924
3.4554
3.42142
3.3873
3.35301
3.31857
3.28396
3.24918
3.21425
3.17918
3.14397
3.10865
3.07322
3.03772
3.00216
2.96656
2.93094
2.89531
2.85971
2.82414
2.78861
2.75315
2.71775
2.68243
2.64719
2.61203
2.57694
2.54191
2.50694
2.47201
2.4371
2.40219
2.36727
2.33232
2.2973
2.26221
2.22704
2.1918
2.1565
2.1212
2.086
2.05106
2.01664
1.98314
1.95115
1.92154
1.89554
1.87483
1.86149
1.85787
1.86591
1.88588
1.91454
1.93952
0.0673738
0.0934793
0.112855
0.129527
0.145274
0.160951
0.177051