/*--------------------------------*- C++ -*----------------------------------*\
  =========                 |
  \\      /  F ield         | OpenFOAM: The Open Source CFD Toolbox
   \\    /   O peration     | Website:  https://openfoam.org
    \\  /    A nd           | Version:  7
     \\/     M anipulation  |
\*---------------------------------------------------------------------------*/
FoamFile
{
    version     2.0;
    format      ascii;
    class       volScalarField;
    location    "900";
    object      nut;
}
// * * * * * * * * * * * * * * * * * * * * * * * * * * * * * * * * * * * * * //

dimensions      [0 2 -1 0 0 0 0];

internalField   nonuniform List<scalar> 
16900
(
1.33881e-05
3.85667e-05
6.07143e-05
8.11215e-05
9.96275e-05
0.000116261
0.000131134
0.000144387
0.000156135
0.000166493
0.000175583
0.000183575
0.000190671
0.000197019
0.000202457
0.000206074
0.000206001
0.000203867
4.74166e-05
4.90211e-05
5.07265e-05
5.2432e-05
5.41307e-05
5.58221e-05
5.75052e-05
5.91807e-05
6.08485e-05
6.25089e-05
6.41619e-05
6.58074e-05
6.74453e-05
6.90751e-05
7.06962e-05
7.23082e-05
7.39102e-05
7.55015e-05
7.70812e-05
7.86484e-05
8.02022e-05
8.17417e-05
8.32657e-05
8.47733e-05
8.62634e-05
8.77349e-05
8.91869e-05
9.06181e-05
9.20274e-05
9.34139e-05
9.47762e-05
9.61133e-05
9.7424e-05
9.87071e-05
9.99616e-05
0.000101186
0.00010238
0.000103542
0.000104671
0.000105767
0.000106828
0.000107855
0.000108848
0.000109808
0.000110736
0.000111636
0.000112513
0.000113363
0.000114174
0.000114946
0.00011568
0.000116377
0.000117035
0.000117656
0.000118241
0.000118788
0.000119299
0.000119774
0.000120213
0.000120616
0.000120985
0.000121319
0.000121618
0.000121884
0.000122117
0.000122316
0.000122484
0.00012262
0.000122725
0.0001228
0.000122846
0.000122862
0.00012285
0.00012281
0.000122744
0.000122652
0.000122535
0.000122392
0.000122227
0.000122038
0.000121827
0.000121595
0.000121342
0.00012107
0.000120778
0.000120468
0.000120141
0.000119796
0.000119436
0.00011906
0.000118669
0.000118263
0.000117844
0.000117413
0.000116968
0.000116511
0.000116043
0.000115563
0.000115072
0.000114571
0.000114059
0.000113537
0.000113004
0.000112463
0.000111913
0.000111349
0.000110776
0.000110201
0.000109625
0.000109072
0.000108661
0.000108369
0.00010809
0.000107808
0.000107518
0.00010722
0.000106912
0.000106594
0.000106265
0.000105926
0.000105575
0.000105213
0.000104839
0.000104454
0.000104057
0.000103648
0.000103228
0.000102797
0.000102354
0.0001019
0.000101436
0.000100962
0.000100478
9.99847e-05
9.94826e-05
9.89724e-05
9.84547e-05
9.79301e-05
9.73994e-05
9.68632e-05
9.63223e-05
9.57774e-05
9.52295e-05
9.46792e-05
9.41275e-05
9.35752e-05
9.30232e-05
9.24724e-05
9.19237e-05
9.1378e-05
9.08363e-05
9.02996e-05
8.97689e-05
8.92452e-05
8.87297e-05
8.82235e-05
8.77278e-05
8.72441e-05
8.67738e-05
8.63184e-05
8.58796e-05
8.54596e-05
8.50604e-05
8.46846e-05
8.43351e-05
8.40151e-05
8.37284e-05
8.34797e-05
8.32738e-05
8.31171e-05
8.30165e-05
8.29807e-05
8.30195e-05
8.31453e-05
8.33726e-05
8.37196e-05
8.42079e-05
8.48645e-05
8.57203e-05
8.68151e-05
8.81818e-05
8.98627e-05
2.81755e-05
9.28038e-05
0.000129323
0.000157108
0.000181183
0.000202343
0.000220758
0.000236463
0.000249398
0.000259431
0.000266408
0.000270253
0.000271072
0.000269201
0.000265045
0.000258674
0.000249783
0.000240153
0.000232339
0.000243127
0.000254351
0.000265876
0.000277647
0.000289598
0.000301691
0.000313915
0.000326266
0.000338747
0.000351362
0.000364113
0.000377004
0.000390036
0.000403208
0.000416519
0.000429968
0.00044355
0.000457261
0.000471095
0.000485046
0.000499107
0.00051327
0.000527528
0.000541872
0.000556292
0.00057078
0.000585326
0.000599919
0.000614547
0.000629199
0.000643862
0.000658522
0.000673162
0.000687766
0.000702313
0.000716784
0.000731154
0.000745397
0.000759485
0.000773387
0.000787068
0.00080049
0.00081361
0.000826381
0.000838743
0.000850622
0.000861659
0.000872346
0.000882743
0.000892858
0.000902691
0.000912241
0.000921507
0.000930488
0.00093918
0.000947583
0.000955696
0.000963517
0.000971046
0.000978283
0.000985226
0.000991876
0.000998234
0.0010043
0.00101008
0.00101557
0.00102077
0.0010257
0.00103034
0.00103471
0.00103881
0.00104265
0.00104622
0.00104953
0.0010526
0.00105542
0.00105799
0.00106034
0.00106246
0.00106436
0.00106604
0.00106752
0.00106879
0.00106988
0.00107077
0.00107149
0.00107203
0.0010724
0.00107262
0.00107268
0.00107258
0.00107235
0.00107197
0.00107147
0.00107083
0.00107006
0.00106918
0.00106817
0.00106705
0.00106581
0.00106446
0.00106299
0.0010614
0.00105972
0.00105793
0.00105598
0.00105382
0.00105139
0.00104836
0.00104389
0.00103837
0.0010324
0.00102618
0.00101979
0.00101326
0.00100662
0.000999848
0.000992966
0.000985973
0.00097887
0.000971659
0.000964343
0.000956925
0.000949409
0.000941799
0.0009341
0.000926319
0.00091846
0.000910533
0.000902543
0.0008945
0.000886413
0.00087829
0.000870142
0.000861979
0.000853812
0.000845652
0.000837509
0.000829395
0.000821321
0.000813299
0.000805341
0.000797456
0.000789658
0.000781957
0.000774364
0.00076689
0.000759546
0.000752342
0.00074529
0.0007384
0.000731682
0.000725147
0.000718807
0.000712672
0.000706754
0.000701065
0.00069562
0.000690434
0.000685523
0.000680908
0.00067661
0.000672659
0.000669086
0.000665932
0.000663246
0.000661087
0.00065953
0.000658665
0.000658603
0.000659477
0.000661445
0.000664686
0.000669394
0.000675763
0.000683952
0.000694043
0.000705962
0.000719353
0.000733186
0.0007435
4.00256e-05
0.000130382
0.000182198
0.000216956
0.000245308
0.000269841
0.000291172
0.0003095
0.000324951
0.000337691
0.000348027
0.000356509
0.000363966
0.000371405
0.000379716
0.000389313
0.000400352
0.000413968
0.000431713
0.000454095
0.000476995
0.000500111
0.000523477
0.0005471
0.000570979
0.000595118
0.000619525
0.000644207
0.000669172
0.000694425
0.000719969
0.000745804
0.000771928
0.000798334
0.000825014
0.000851959
0.000879156
0.000906588
0.000934241
0.000962096
0.000990132
0.00101833
0.00104667
0.00107512
0.00110367
0.00113228
0.00116094
0.00118961
0.00121827
0.00124689
0.00127543
0.00130386
0.00133215
0.00136025
0.00138812
0.00141571
0.00144298
0.00146988
0.00149634
0.0015223
0.00154772
0.00157251
0.00159663
0.00162002
0.00164227
0.00166361
0.00168429
0.00170436
0.00172384
0.00174274
0.00176105
0.00177877
0.0017959
0.00181244
0.00182838
0.00184372
0.00185847
0.00187262
0.00188617
0.00189912
0.00191148
0.00192324
0.00193441
0.001945
0.001955
0.00196443
0.00197328
0.00198158
0.00198932
0.00199651
0.00200317
0.0020093
0.00201491
0.00202003
0.00202465
0.0020288
0.00203247
0.0020357
0.00203849
0.00204085
0.0020428
0.00204436
0.00204553
0.00204634
0.0020468
0.00204691
0.00204669
0.00204617
0.00204534
0.00204423
0.00204284
0.00204118
0.00203928
0.00203712
0.00203473
0.00203211
0.00202927
0.00202622
0.00202295
0.00201948
0.00201582
0.00201195
0.00200787
0.00200359
0.00199906
0.0019942
0.00198889
0.00198285
0.00197557
0.00196721
0.00195813
0.00194858
0.00193866
0.00192843
0.00191792
0.00190715
0.00189611
0.00188482
0.00187328
0.0018615
0.00184946
0.00183719
0.00182468
0.00181195
0.001799
0.00178584
0.00177249
0.00175895
0.00174524
0.00173137
0.00171737
0.00170325
0.00168903
0.00167473
0.00166037
0.00164597
0.00163155
0.00161714
0.00160275
0.00158841
0.00157415
0.00155997
0.00154591
0.00153199
0.00151822
0.00150463
0.00149124
0.00147807
0.00146513
0.00145246
0.00144006
0.00142797
0.00141619
0.00140475
0.00139367
0.00138298
0.0013727
0.00136287
0.00135351
0.00134468
0.00133641
0.00132878
0.00132184
0.0013157
0.00131047
0.00130628
0.00130331
0.00130176
0.0013019
0.00130404
0.00130853
0.00131578
0.00132621
0.00134025
0.0013582
0.00138018
0.00140597
0.00143472
0.00146407
0.00148674
4.9265e-05
0.00015824
0.000223354
0.000264983
0.000297423
0.000325208
0.000349722
0.000371539
0.000391085
0.000408846
0.00042544
0.000441655
0.000458412
0.000476633
0.000496994
0.000519737
0.000544888
0.000572444
0.000602553
0.000634388
0.00066669
0.000699244
0.000732071
0.000765204
0.000798665
0.000832471
0.000866638
0.000901175
0.000936092
0.000971393
0.00100708
0.00104314
0.00107958
0.00111638
0.00115352
0.00119099
0.00122876
0.00126681
0.00130511
0.00134364
0.00138235
0.00142122
0.00146021
0.00149928
0.0015384
0.00157753
0.00161663
0.00165565
0.00169457
0.00173333
0.00177189
0.0018102
0.00184822
0.00188589
0.00192317
0.00195998
0.00199628
0.00203201
0.00206709
0.00210146
0.00213505
0.0021678
0.00219964
0.0022305
0.00226006
0.0022886
0.00231626
0.00234309
0.00236911
0.00239432
0.00241872
0.00244232
0.0024651
0.00248708
0.00250824
0.00252859
0.00254813
0.00256685
0.00258476
0.00260187
0.00261816
0.00263366
0.00264835
0.00266225
0.00267537
0.00268771
0.00269928
0.0027101
0.00272017
0.0027295
0.00273812
0.00274603
0.00275325
0.00275979
0.00276568
0.00277092
0.00277554
0.00277956
0.00278299
0.00278586
0.00278818
0.00278997
0.00279125
0.00279205
0.00279237
0.00279225
0.0027917
0.00279074
0.00278939
0.00278765
0.00278556
0.00278313
0.00278036
0.00277728
0.0027739
0.00277023
0.00276627
0.00276205
0.00275757
0.00275281
0.0027478
0.00274254
0.002737
0.0027312
0.00272508
0.00271859
0.00271161
0.00270395
0.00269537
0.00268587
0.00267564
0.00266483
0.00265353
0.00264179
0.00262966
0.00261713
0.00260422
0.00259094
0.00257728
0.00256325
0.00254885
0.00253408
0.00251896
0.00250348
0.00248765
0.0024715
0.00245502
0.00243825
0.00242119
0.00240387
0.0023863
0.00236852
0.00235054
0.0023324
0.00231411
0.00229572
0.00227724
0.00225871
0.00224016
0.00222161
0.0022031
0.00218466
0.00216632
0.0021481
0.00213004
0.00211216
0.0020945
0.00207707
0.0020599
0.00204303
0.00202647
0.00201026
0.00199442
0.00197897
0.00196396
0.00194941
0.00193537
0.00192186
0.00190895
0.00189669
0.00188515
0.00187443
0.00186464
0.0018559
0.00184841
0.00184236
0.00183804
0.00183576
0.00183594
0.00183905
0.00184566
0.0018564
0.00187192
0.00189282
0.00191956
0.00195225
0.00199044
0.00203268
0.00207516
0.00210725
5.68141e-05
0.000179924
0.000256449
0.000304744
0.000341359
0.000372546
0.000400549
0.000426371
0.000450704
0.000474214
0.000497611
0.000521656
0.000547102
0.000574589
0.000604493
0.000636832
0.000671411
0.000707913
0.000746039
0.000785187
0.000824814
0.000864764
0.000905034
0.000945651
0.000986639
0.00102802
0.00106981
0.00111203
0.00115467
0.00119774
0.00124124
0.00128515
0.00132947
0.00137417
0.00141924
0.00146464
0.00151034
0.00155632
0.00160252
0.00164892
0.00169547
0.00174213
0.00178884
0.00183557
0.00188227
0.00192888
0.00197536
0.00202165
0.00206772
0.0021135
0.00215894
0.002204
0.00224863
0.00229275
0.00233633
0.00237929
0.00242159
0.00246315
0.00250391
0.00254382
0.0025828
0.0026208
0.00265775
0.00269347
0.0027279
0.00276123
0.00279354
0.00282488
0.00285526
0.0028847
0.00291318
0.00294072
0.00296731
0.00299294
0.00301763
0.00304137
0.00306416
0.003086
0.0031069
0.00312685
0.00314586
0.00316393
0.00318107
0.00319729
0.0032126
0.003227
0.00324051
0.00325313
0.00326489
0.00327579
0.00328586
0.0032951
0.00330354
0.0033112
0.00331808
0.00332423
0.00332965
0.00333436
0.0033384
0.00334178
0.00334453
0.00334667
0.00334822
0.00334921
0.00334966
0.0033496
0.00334904
0.00334801
0.00334654
0.00334463
0.00334232
0.00333963
0.00333656
0.00333314
0.0033294
0.00332532
0.00332092
0.00331623
0.00331124
0.00330596
0.0033004
0.00329455
0.00328841
0.00328197
0.00327519
0.00326802
0.00326039
0.00325216
0.00324321
0.0032335
0.00322311
0.0032121
0.00320055
0.00318849
0.00317595
0.00316293
0.00314943
0.00313547
0.00312103
0.00310612
0.00309074
0.00307488
0.00305856
0.00304177
0.00302453
0.00300685
0.00298874
0.00297022
0.00295131
0.00293203
0.00291241
0.00289247
0.00287224
0.00285175
0.00283103
0.00281013
0.00278906
0.00276788
0.0027466
0.00272527
0.00270393
0.00268261
0.00266134
0.00264016
0.0026191
0.0025982
0.00257749
0.002557
0.00253676
0.0025168
0.00249715
0.00247785
0.00245893
0.00244042
0.00242235
0.00240476
0.00238771
0.00237123
0.0023554
0.00234028
0.00232597
0.00231258
0.00230026
0.00228917
0.00227956
0.0022717
0.00226594
0.00226273
0.00226261
0.00226623
0.00227434
0.00228778
0.00230742
0.00233407
0.0023683
0.00241023
0.00245919
0.00251308
0.0025667
0.0026064
6.30401e-05
0.000197136
0.000283536
0.000338211
0.000379077
0.000413779
0.000445375
0.000475274
0.000504367
0.000533391
0.000563028
0.00059391
0.000626578
0.000661415
0.000698568
0.000737925
0.000779199
0.000822027
0.000866058
0.000910891
0.000956221
0.00100193
0.00104799
0.00109442
0.00114125
0.00118849
0.00123616
0.00128426
0.0013328
0.00138178
0.00143118
0.00148101
0.00153123
0.00158182
0.00163276
0.00168401
0.00173553
0.00178728
0.00183922
0.0018913
0.00194346
0.00199567
0.00204785
0.00209997
0.00215196
0.00220376
0.00225533
0.00230661
0.00235754
0.00240807
0.00245815
0.00250771
0.00255671
0.0026051
0.00265281
0.0026998
0.002746
0.00279136
0.00283582
0.00287933
0.00292181
0.00296323
0.00300351
0.00304241
0.00308006
0.00311656
0.00315198
0.00318635
0.00321967
0.00325196
0.00328322
0.00331344
0.00334264
0.0033708
0.00339793
0.00342403
0.00344909
0.00347313
0.00349613
0.00351811
0.00353906
0.003559
0.00357792
0.00359583
0.00361275
0.00362868
0.00364364
0.00365764
0.00367068
0.0036828
0.003694
0.0037043
0.00371372
0.00372229
0.00373002
0.00373694
0.00374306
0.00374842
0.00375304
0.00375695
0.00376016
0.00376271
0.00376463
0.00376594
0.00376666
0.00376682
0.00376646
0.00376561
0.00376427
0.00376246
0.00376024
0.00375762
0.00375459
0.00375119
0.00374745
0.00374337
0.00373896
0.00373426
0.00372925
0.00372395
0.00371837
0.00371249
0.00370632
0.00369985
0.00369304
0.00368585
0.00367823
0.0036701
0.00366138
0.00365201
0.00364202
0.00363143
0.00362027
0.00360856
0.00359632
0.00358355
0.00357024
0.00355639
0.00354199
0.00352705
0.00351154
0.00349548
0.00347886
0.00346169
0.00344397
0.0034257
0.00340692
0.00338762
0.00336783
0.00334758
0.00332688
0.00330577
0.00328428
0.00326244
0.00324029
0.00321786
0.00319519
0.00317232
0.00314929
0.00312614
0.0031029
0.00307963
0.00305635
0.00303311
0.00300993
0.00298687
0.00296395
0.00294121
0.00291869
0.00289641
0.00287441
0.00285273
0.0028314
0.00281045
0.00278992
0.00276986
0.00275032
0.00273135
0.00271302
0.00269542
0.00267865
0.00266285
0.00264818
0.00263486
0.00262315
0.0026134
0.00260605
0.00260163
0.0026008
0.00260438
0.00261329
0.00262858
0.00265135
0.00268262
0.00272312
0.002773
0.00283141
0.00289569
0.00295934
0.00300591
6.81525e-05
0.000210852
0.000305843
0.000366548
0.000411645
0.000449863
0.000484967
0.000518731
0.000552191
0.000586099
0.000621066
0.000657583
0.000696008
0.000736538
0.000779178
0.000823752
0.000869965
0.000917483
0.000965992
0.00101521
0.00106492
0.00111504
0.00116553
0.0012164
0.00126766
0.00131933
0.00137141
0.00142392
0.00147685
0.00153019
0.00158395
0.00163809
0.0016926
0.00174744
0.0018026
0.00185802
0.00191367
0.00196949
0.00202545
0.00208149
0.00213755
0.00219357
0.00224951
0.00230529
0.00236087
0.00241618
0.00247116
0.00252576
0.00257991
0.00263357
0.00268667
0.00273917
0.00279101
0.00284214
0.00289252
0.00294208
0.00299079
0.00303859
0.00308543
0.00313126
0.00317601
0.00321963
0.00326204
0.00330309
0.00334291
0.00338157
0.00341912
0.00345557
0.00349095
0.00352525
0.00355847
0.00359062
0.00362169
0.00365168
0.00368059
0.00370842
0.00373517
0.00376084
0.00378543
0.00380894
0.00383137
0.00385273
0.00387302
0.00389226
0.00391044
0.00392759
0.0039437
0.0039588
0.00397289
0.003986
0.00399814
0.00400933
0.00401959
0.00402894
0.0040374
0.004045
0.00405176
0.00405772
0.0040629
0.00406731
0.00407099
0.00407398
0.0040763
0.00407799
0.00407905
0.00407953
0.00407947
0.00407891
0.00407783
0.00407628
0.00407429
0.00407189
0.00406909
0.00406593
0.00406242
0.00405858
0.00405444
0.00405
0.00404527
0.00404027
0.00403499
0.00402944
0.00402361
0.00401749
0.00401106
0.00400428
0.00399711
0.0039895
0.00398139
0.00397272
0.00396348
0.00395368
0.00394332
0.0039324
0.00392091
0.00390886
0.00389624
0.00388302
0.00386921
0.00385478
0.00383973
0.00382406
0.00380775
0.0037908
0.00377323
0.00375503
0.00373621
0.0037168
0.0036968
0.00367625
0.00365516
0.00363356
0.0036115
0.00358899
0.00356608
0.00354281
0.00351922
0.00349534
0.00347123
0.00344691
0.00342244
0.00339785
0.0033732
0.00334851
0.00332383
0.0032992
0.00327465
0.00325022
0.00322596
0.00320188
0.00317803
0.00315445
0.00313116
0.0031082
0.00308562
0.00306346
0.00304177
0.00302062
0.00300007
0.00298022
0.00296118
0.0029431
0.00292617
0.00291063
0.00289677
0.00288501
0.00287582
0.00286984
0.00286785
0.00287078
0.00287976
0.00289603
0.00292093
0.00295572
0.00300134
0.00305805
0.0031249
0.00319876
0.00327193
0.00332527
7.23033e-05
0.000221716
0.000324188
0.000390518
0.000439727
0.000481351
0.000519752
0.00055702
0.000594305
0.000632357
0.000671707
0.000712727
0.000755641
0.000800521
0.000847292
0.000895754
0.00094563
0.000996632
0.00104849
0.00110099
0.00115398
0.00120737
0.00126113
0.00131525
0.00136974
0.0014246
0.00147986
0.0015355
0.00159153
0.00164794
0.00170472
0.00176184
0.00181929
0.00187703
0.00193503
0.00199325
0.00205165
0.00211017
0.00216878
0.00222741
0.00228601
0.00234452
0.00240288
0.00246103
0.00251891
0.00257646
0.00263362
0.00269032
0.00274652
0.00280215
0.00285717
0.00291151
0.00296513
0.00301798
0.00307002
0.00312121
0.0031715
0.00322084
0.00326918
0.00331649
0.00336271
0.00340779
0.00345157
0.0034941
0.00353544
0.00357564
0.00361473
0.00365271
0.0036896
0.0037254
0.0037601
0.00379371
0.00382622
0.00385763
0.00388793
0.00391713
0.00394522
0.00397219
0.00399806
0.00402281
0.00404646
0.00406899
0.00409042
0.00411076
0.00413
0.00414817
0.00416527
0.00418131
0.00419631
0.00421027
0.00422323
0.0042352
0.00424621
0.00425626
0.00426539
0.00427361
0.00428096
0.00428747
0.00429318
0.00429808
0.00430222
0.00430564
0.00430838
0.00431046
0.0043119
0.00431273
0.004313
0.00431275
0.004312
0.00431077
0.0043091
0.00430703
0.00430458
0.00430177
0.00429863
0.00429518
0.00429144
0.00428743
0.00428317
0.00427865
0.00427389
0.00426888
0.00426363
0.00425811
0.00425233
0.00424623
0.0042398
0.00423299
0.00422575
0.00421802
0.00420979
0.00420103
0.00419174
0.00418189
0.00417148
0.00416048
0.00414888
0.00413667
0.00412382
0.00411031
0.00409613
0.00408126
0.00406569
0.00404943
0.00403246
0.00401479
0.00399642
0.00397737
0.00395765
0.00393728
0.00391629
0.00389471
0.00387256
0.00384988
0.00382671
0.00380309
0.00377905
0.00375465
0.00372993
0.00370492
0.00367967
0.00365423
0.00362865
0.00360295
0.00357719
0.00355141
0.00352563
0.00349991
0.00347428
0.00344876
0.00342341
0.00339825
0.00337332
0.00334865
0.00332429
0.00330028
0.00327667
0.00325352
0.00323092
0.00320896
0.00318775
0.00316745
0.00314827
0.00313045
0.00311434
0.00310036
0.00308907
0.00308115
0.00307749
0.00307916
0.00308745
0.00310381
0.00312985
0.00316709
0.00321675
0.00327929
0.00335378
0.0034367
0.00351925
0.00357957
7.56161e-05
0.000230199
0.000339165
0.000410685
0.0004638
0.000508639
0.000550051
0.000590396
0.000630927
0.000672385
0.000715238
0.000759768
0.000806102
0.000854237
0.000904053
0.000955346
0.00100787
0.00106136
0.00111561
0.00117044
0.00122571
0.00128136
0.00133735
0.00139367
0.00145032
0.0015073
0.00156462
0.00162228
0.00168028
0.00173861
0.00179725
0.0018562
0.00191542
0.0019749
0.00203458
0.00209445
0.00215446
0.00221455
0.00227469
0.00233482
0.00239489
0.00245483
0.0025146
0.00257412
0.00263333
0.00269218
0.00275061
0.00280855
0.00286595
0.00292275
0.0029789
0.00303433
0.00308902
0.00314291
0.00319596
0.00324813
0.00329938
0.00334968
0.00339897
0.00344723
0.0034944
0.00354041
0.0035852
0.00362882
0.0036713
0.00371266
0.00375293
0.00379211
0.00383021
0.00386721
0.00390312
0.00393793
0.00397163
0.00400422
0.0040357
0.00406605
0.00409528
0.00412338
0.00415035
0.00417618
0.00420088
0.00422445
0.00424688
0.00426819
0.00428838
0.00430747
0.00432546
0.00434235
0.00435816
0.00437291
0.00438662
0.00439931
0.00441101
0.00442172
0.00443146
0.00444026
0.00444817
0.00445521
0.00446143
0.0044668
0.00447139
0.00447523
0.00447836
0.00448082
0.00448263
0.00448383
0.00448447
0.00448457
0.00448417
0.00448331
0.00448202
0.00448033
0.00447828
0.0044759
0.0044732
0.00447023
0.00446699
0.00446352
0.00445982
0.0044559
0.00445178
0.00444746
0.00444293
0.00443819
0.00443322
0.004428
0.0044225
0.00441667
0.00441048
0.00440388
0.00439684
0.00438931
0.00438128
0.00437272
0.0043636
0.00435391
0.00434361
0.00433267
0.00432106
0.00430877
0.00429577
0.00428204
0.00426755
0.00425231
0.00423629
0.0042195
0.00420195
0.00418363
0.00416455
0.00414475
0.00412423
0.00410303
0.00408117
0.0040587
0.00403564
0.00401203
0.00398792
0.00396335
0.00393837
0.00391302
0.00388734
0.00386138
0.00383519
0.00380881
0.00378227
0.00375563
0.00372892
0.00370218
0.00367544
0.00364875
0.00362213
0.00359562
0.00356926
0.00354308
0.00351712
0.00349142
0.00346604
0.00344103
0.00341647
0.00339247
0.00336913
0.00334662
0.00332515
0.00330498
0.00328647
0.00327007
0.00325638
0.00324614
0.00324032
0.00324011
0.00324695
0.00326254
0.00328872
0.00332737
0.00338005
0.00344753
0.00352899
0.00362064
0.00371263
0.0037803
7.81983e-05
0.000236671
0.000351243
0.000427496
0.000484255
0.000532062
0.000576157
0.000619134
0.000662339
0.000706514
0.000752081
0.000799254
0.0008481
0.000898567
0.000950514
0.00100374
0.00105803
0.00111315
0.00116892
0.00122519
0.00128185
0.00133883
0.0013961
0.00145364
0.00151146
0.00156955
0.00162792
0.00168658
0.00174551
0.00180472
0.00186421
0.00192394
0.00198392
0.0020441
0.00210448
0.00216501
0.00222565
0.00228638
0.00234714
0.00240788
0.00246856
0.00252911
0.00258949
0.00264962
0.00270945
0.00276892
0.00282796
0.00288653
0.00294454
0.00300195
0.00305871
0.00311475
0.00317003
0.00322451
0.00327814
0.0033309
0.00338273
0.00343362
0.00348352
0.00353239
0.00358019
0.00362689
0.00367247
0.00371695
0.00376036
0.00380269
0.00384395
0.00388415
0.00392327
0.00396132
0.00399829
0.00403415
0.00406891
0.00410256
0.00413508
0.00416647
0.00419673
0.00422586
0.00425384
0.00428067
0.00430634
0.00433086
0.00435422
0.00437643
0.00439751
0.00441746
0.00443628
0.00445398
0.00447056
0.00448605
0.00450047
0.00451384
0.00452621
0.00453754
0.00454788
0.00455725
0.00456569
0.00457323
0.00457991
0.00458574
0.00459078
0.00459504
0.00459858
0.00460143
0.00460363
0.00460522
0.00460623
0.00460671
0.0046067
0.00460623
0.00460535
0.00460408
0.00460247
0.00460055
0.00459835
0.00459589
0.00459321
0.00459033
0.00458727
0.00458403
0.00458064
0.00457709
0.00457339
0.00456954
0.0045655
0.00456128
0.00455683
0.00455212
0.00454712
0.00454178
0.00453606
0.00452991
0.0045233
0.00451619
0.00450856
0.00450035
0.00449155
0.0044821
0.00447198
0.00446115
0.00444957
0.00443723
0.0044241
0.00441015
0.00439537
0.00437975
0.00436329
0.004346
0.00432787
0.00430893
0.00428918
0.00426866
0.00424739
0.00422541
0.00420275
0.00417945
0.00415555
0.00413109
0.00410613
0.0040807
0.00405485
0.00402862
0.00400207
0.00397524
0.00394816
0.00392088
0.00389345
0.00386589
0.00383825
0.00381055
0.00378284
0.00375515
0.0037275
0.00369995
0.00367251
0.00364523
0.00361817
0.00359138
0.00356493
0.00353892
0.00351347
0.00348873
0.00346492
0.00344231
0.00342126
0.00340224
0.00338587
0.00337295
0.00336451
0.00336183
0.00336653
0.0033805
0.00340589
0.00344495
0.00349966
0.00357122
0.00365905
0.00375921
0.00386082
0.00393631
8.01453e-05
0.000241438
0.000360809
0.000441335
0.000501437
0.000551928
0.00059836
0.000643526
0.000688861
0.000735118
0.000782686
0.000831737
0.000882297
0.000934285
0.000987553
0.00104191
0.00109715
0.00115309
0.00120955
0.00126642
0.00132359
0.00138101
0.00143864
0.00149648
0.00155451
0.00161275
0.00167121
0.00172989
0.00178879
0.00184793
0.00190729
0.00196688
0.00202668
0.00208669
0.00214687
0.00220722
0.0022677
0.00232827
0.00238891
0.00244956
0.00251018
0.00257071
0.0026311
0.00269129
0.00275122
0.00281083
0.00287004
0.00292881
0.00298706
0.00304473
0.00310177
0.00315811
0.0032137
0.00326851
0.00332248
0.00337558
0.00342778
0.00347905
0.00352934
0.00357863
0.00362691
0.00367421
0.00372049
0.00376574
0.00380997
0.00385317
0.00389533
0.00393646
0.00397653
0.00401555
0.00405349
0.00409034
0.00412609
0.00416072
0.00419422
0.0042266
0.00425783
0.00428793
0.00431687
0.00434465
0.00437125
0.00439667
0.00442092
0.004444
0.00446592
0.0044867
0.00450635
0.00452482
0.00454215
0.00455836
0.00457347
0.0045875
0.00460048
0.00461242
0.00462334
0.00463327
0.00464224
0.0046503
0.00465746
0.00466377
0.00466925
0.00467396
0.00467792
0.00468119
0.00468379
0.00468578
0.00468719
0.00468807
0.00468847
0.00468842
0.00468796
0.00468714
0.004686
0.00468457
0.00468288
0.00468099
0.0046789
0.00467665
0.00467427
0.00467177
0.00466915
0.00466645
0.00466364
0.00466074
0.00465772
0.00465458
0.00465128
0.0046478
0.00464409
0.00464011
0.00463581
0.00463115
0.00462609
0.00462057
0.00461455
0.004608
0.00460086
0.00459308
0.00458463
0.00457545
0.00456552
0.00455478
0.00454322
0.00453079
0.00451749
0.00450328
0.00448817
0.00447214
0.0044552
0.00443736
0.00441864
0.00439904
0.00437861
0.00435736
0.00433534
0.00431257
0.00428911
0.00426499
0.00424026
0.00421497
0.00418915
0.00416286
0.00413614
0.00410904
0.0040816
0.00405386
0.00402586
0.00399764
0.00396924
0.00394068
0.00391201
0.00388325
0.00385443
0.0038256
0.00379678
0.00376801
0.00373933
0.00371081
0.00368251
0.00365452
0.00362696
0.00359998
0.00357379
0.00354865
0.00352494
0.00350312
0.00348384
0.00346793
0.00345645
0.0034508
0.00345271
0.0034643
0.00348803
0.00352654
0.00358235
0.00365715
0.00375079
0.00385928
0.00397074
0.00405454
8.15439e-05
0.000244762
0.000368196
0.000452536
0.00051566
0.000568529
0.000616942
0.000663865
0.000710812
0.000758556
0.000807471
0.000857699
0.00090924
0.000961999
0.00101582
0.00107054
0.00112595
0.0011819
0.00123823
0.00129484
0.00135165
0.0014086
0.00146568
0.00152287
0.00158018
0.00163763
0.00169522
0.00175299
0.00181093
0.00186908
0.00192745
0.00198603
0.00204484
0.00210387
0.00216312
0.00222257
0.00228221
0.00234201
0.00240194
0.00246196
0.00252203
0.00258209
0.00264209
0.00270197
0.00276167
0.00282111
0.00288024
0.00293897
0.00299724
0.00305498
0.00311213
0.00316862
0.00322438
0.00327939
0.00333357
0.00338691
0.00343936
0.0034909
0.00354149
0.00359111
0.00363991
0.0036878
0.00373476
0.00378075
0.00382577
0.00386979
0.00391282
0.00395484
0.00399584
0.00403579
0.00407468
0.00411247
0.00414917
0.00418475
0.0042192
0.00425252
0.0042847
0.00431573
0.00434562
0.00437431
0.0044018
0.0044281
0.00445322
0.00447714
0.00449989
0.00452147
0.00454187
0.0045611
0.00457917
0.00459609
0.0046119
0.00462659
0.00464021
0.00465276
0.00466428
0.00467478
0.00468431
0.00469289
0.00470056
0.00470736
0.00471332
0.00471848
0.00472289
0.00472659
0.00472963
0.00473204
0.00473387
0.00473518
0.00473601
0.00473639
0.00473639
0.00473604
0.00473539
0.00473448
0.00473334
0.00473203
0.00473056
0.00472898
0.00472731
0.00472557
0.00472378
0.00472195
0.00472009
0.00471819
0.00471625
0.00471425
0.00471217
0.00470997
0.00470763
0.00470509
0.00470231
0.00469923
0.00469581
0.00469198
0.00468771
0.00468293
0.00467759
0.00467163
0.004665
0.00465765
0.00464952
0.00464058
0.00463077
0.00462007
0.00460843
0.00459584
0.00458227
0.00456773
0.00455219
0.00453567
0.00451817
0.00449971
0.00448032
0.00446001
0.00443883
0.0044168
0.00439396
0.00437037
0.00434606
0.00432107
0.00429546
0.00426927
0.00424254
0.00421533
0.00418766
0.0041596
0.00413116
0.00410241
0.00407335
0.00404405
0.00401451
0.00398478
0.00395488
0.00392485
0.00389472
0.00386452
0.00383429
0.00380408
0.00377397
0.00374402
0.00371436
0.00368513
0.00365653
0.00362882
0.00360237
0.00357763
0.00355526
0.0035361
0.00352127
0.00351221
0.00351079
0.00351933
0.00354059
0.00357768
0.00363367
0.00371091
0.00380979
0.0039264
0.00404795
0.00414055
8.24729e-05
0.000246873
0.000373698
0.0004614
0.000527206
0.000582134
0.000632166
0.000680415
0.000728472
0.000777133
0.000826765
0.000877494
0.000929305
0.000982094
0.00103571
0.00108999
0.00114476
0.00119987
0.0012552
0.00131066
0.00136618
0.00142173
0.00147729
0.00153288
0.0015885
0.0016442
0.00169999
0.00175593
0.00181204
0.00186835
0.00192491
0.00198173
0.00203883
0.00209623
0.00215394
0.00221194
0.00227024
0.00232882
0.00238765
0.00244669
0.0025059
0.00256522
0.0026246
0.00268398
0.00274328
0.00280243
0.00286135
0.00291997
0.00297819
0.00303595
0.00309317
0.00314976
0.00320567
0.00326084
0.00331521
0.00336875
0.00342141
0.00347317
0.003524
0.00357414
0.0036235
0.00367203
0.00371968
0.00376642
0.00381223
0.00385709
0.00390098
0.00394388
0.00398577
0.00402666
0.00406647
0.00410519
0.00414281
0.00417931
0.00421469
0.00424893
0.00428202
0.00431395
0.00434471
0.00437428
0.00440265
0.00442981
0.00445577
0.00448053
0.00450409
0.00452645
0.00454762
0.00456761
0.00458642
0.00460406
0.00462056
0.00463594
0.00465021
0.00466339
0.00467552
0.00468662
0.00469671
0.00470585
0.00471406
0.00472137
0.00472783
0.00473349
0.00473838
0.00474254
0.00474604
0.0047489
0.00475119
0.00475295
0.00475424
0.00475509
0.00475557
0.00475572
0.00475558
0.00475521
0.00475465
0.00475394
0.00475312
0.00475223
0.0047513
0.00475035
0.00474941
0.00474848
0.0047476
0.00474674
0.00474591
0.0047451
0.00474429
0.00474344
0.00474251
0.00474147
0.00474027
0.00473884
0.00473713
0.00473509
0.00473265
0.00472975
0.00472632
0.0047223
0.00471763
0.00471224
0.00470607
0.00469907
0.00469118
0.00468236
0.00467257
0.00466177
0.00464993
0.00463704
0.00462309
0.00460807
0.00459198
0.00457484
0.00455666
0.00453748
0.0045173
0.00449618
0.00447414
0.00445124
0.0044275
0.00440298
0.00437772
0.00435176
0.00432516
0.00429796
0.0042702
0.00424192
0.00421317
0.00418397
0.00415438
0.00412441
0.0040941
0.00406348
0.00403258
0.00400142
0.00397004
0.00393847
0.00390674
0.0038749
0.00384302
0.00381116
0.00377943
0.00374796
0.00371696
0.00368666
0.00365742
0.00362969
0.00360413
0.00358156
0.00356313
0.00355033
0.00354515
0.00355006
0.00356817
0.00360302
0.00365832
0.0037372
0.0038407
0.00396519
0.00409701
0.00419889
8.30044e-05
0.000247973
0.000377574
0.000468193
0.000536328
0.000592975
0.000644249
0.000693383
0.000742039
0.000791037
0.000840745
0.000891281
0.000942619
0.000994655
0.00104724
0.00110023
0.00115346
0.00120681
0.00126018
0.0013135
0.00136673
0.00141985
0.00147289
0.00152586
0.00157882
0.00163181
0.00168489
0.00173813
0.00179159
0.00184532
0.00189938
0.00195382
0.00200867
0.00206395
0.00211969
0.00217589
0.00223255