/*--------------------------------*- C++ -*----------------------------------*\
  =========                 |
  \\      /  F ield         | OpenFOAM: The Open Source CFD Toolbox
   \\    /   O peration     | Website:  https://openfoam.org
    \\  /    A nd           | Version:  7
     \\/     M anipulation  |
\*---------------------------------------------------------------------------*/
FoamFile
{
    version     2.0;
    format      ascii;
    class       volScalarField;
    location    "900";
    object      p;
}
// * * * * * * * * * * * * * * * * * * * * * * * * * * * * * * * * * * * * * //

dimensions      [0 2 -2 0 0 0 0];

internalField   nonuniform List<scalar> 
16900
(
-21.9125
-21.9158
-21.922
-21.9307
-21.9418
-21.9552
-21.9709
-21.9889
-22.0093
-22.0321
-22.0574
-22.0854
-22.1165
-22.1511
-22.1881
-22.2257
-22.2666
-22.3074
-22.3409
-22.3758
-22.4168
-22.4592
-22.5024
-22.5462
-22.5902
-22.6343
-22.6782
-22.7219
-22.765
-22.8076
-22.8492
-22.8898
-22.9291
-22.9667
-23.0026
-23.0363
-23.0675
-23.096
-23.1215
-23.1436
-23.1619
-23.1762
-23.186
-23.1911
-23.191
-23.1853
-23.1738
-23.156
-23.1316
-23.1002
-23.0615
-23.0151
-22.9608
-22.8982
-22.827
-22.7471
-22.6581
-22.56
-22.4526
-22.3357
-22.2094
-22.0736
-21.9284
-21.7738
-21.6099
-21.4367
-21.2545
-21.0634
-20.8639
-20.6561
-20.4404
-20.217
-19.9863
-19.7486
-19.5042
-19.2535
-18.9968
-18.7345
-18.467
-18.1946
-17.9178
-17.6369
-17.3523
-17.0645
-16.7737
-16.4803
-16.1848
-15.8875
-15.5887
-15.2889
-14.9883
-14.6873
-14.3862
-14.0853
-13.785
-13.4854
-13.187
-12.8899
-12.5944
-12.3008
-12.0092
-11.7199
-11.4332
-11.1491
-10.8678
-10.5896
-10.3146
-10.043
-9.77478
-9.51022
-9.24939
-8.99241
-8.73937
-8.4904
-8.24558
-8.00497
-7.76869
-7.53679
-7.30933
-7.08642
-6.86809
-6.65434
-6.44536
-6.24112
-6.04143
-5.84658
-5.65704
-5.47231
-5.29146
-5.11524
-4.9446
-4.77933
-4.61926
-4.46431
-4.31441
-4.1695
-4.02954
-3.89447
-3.76425
-3.63881
-3.5181
-3.40205
-3.29057
-3.18359
-3.08102
-2.98275
-2.88867
-2.79868
-2.71264
-2.63042
-2.55189
-2.47691
-2.40531
-2.33695
-2.27166
-2.20928
-2.14963
-2.09255
-2.03786
-1.98538
-1.93493
-1.88633
-1.83942
-1.794
-1.74991
-1.70696
-1.66499
-1.62383
-1.58332
-1.54328
-1.50356
-1.46402
-1.42449
-1.38483
-1.34491
-1.30459
-1.26374
-1.22225
-1.17998
-1.13685
-1.09273
-1.04753
-1.00116
-0.953517
-0.904505
-0.854024
-0.801949
-0.748139
-0.692407
-0.634519
-0.574168
-0.510981
-0.444522
-0.374352
-0.300156
-0.221985
-0.140854
-0.0593011
0.013431
0.0811299
-21.9087
-21.9127
-21.9175
-21.9242
-21.9336
-21.9456
-21.96
-21.9769
-21.9961
-22.0177
-22.0415
-22.0675
-22.0954
-22.1246
-22.1545
-22.1877
-22.2219
-22.2579
-22.3045
-22.3538
-22.3976
-22.4405
-22.4836
-22.527
-22.5705
-22.614
-22.6574
-22.7005
-22.7432
-22.7853
-22.8265
-22.8667
-22.9056
-22.943
-22.9786
-23.0121
-23.0433
-23.0718
-23.0973
-23.1195
-23.138
-23.1526
-23.1628
-23.1683
-23.1687
-23.1638
-23.153
-23.1361
-23.1127
-23.0824
-23.045
-22.9999
-22.9471
-22.886
-22.8166
-22.7384
-22.6514
-22.5552
-22.4498
-22.3351
-22.211
-22.0775
-21.9347
-21.7825
-21.6208
-21.4499
-21.2699
-21.0812
-20.884
-20.6785
-20.465
-20.2439
-20.0154
-19.7798
-19.5376
-19.289
-19.0343
-18.7741
-18.5085
-18.2381
-17.9631
-17.684
-17.4011
-17.1149
-16.8257
-16.5338
-16.2397
-15.9438
-15.6463
-15.3476
-15.0481
-14.7482
-14.4481
-14.1481
-13.8485
-13.5497
-13.252
-12.9555
-12.6605
-12.3673
-12.0761
-11.7872
-11.5006
-11.2167
-10.9356
-10.6575
-10.3825
-10.1107
-9.84244
-9.5777
-9.31665
-9.05939
-8.80601
-8.55666
-8.31139
-8.07029
-7.83346
-7.60098
-7.37286
-7.14926
-6.93019
-6.71557
-6.50573
-6.3006
-6.09967
-5.90338
-5.71236
-5.52638
-5.34506
-5.16874
-4.99782
-4.83213
-4.67157
-4.51605
-4.36552
-4.21992
-4.07921
-3.94334
-3.81225
-3.68591
-3.56425
-3.44719
-3.33468
-3.22662
-3.12293
-3.02352
-2.92827
-2.83708
-2.74982
-2.66637
-2.58659
-2.51035
-2.43749
-2.36786
-2.30131
-2.23766
-2.17676
-2.11844
-2.06251
-2.00881
-1.95717
-1.9074
-1.85933
-1.81279
-1.7676
-1.72359
-1.68059
-1.63843
-1.59695
-1.55599
-1.51539
-1.475
-1.43468
-1.39427
-1.35365
-1.31268
-1.27124
-1.2292
-1.18646
-1.1429
-1.09843
-1.05295
-1.00636
-0.958568
-0.909487
-0.859009
-0.807014
-0.753357
-0.697852
-0.640263
-0.580289
-0.517571
-0.451703
-0.382302
-0.309151
-0.232428
-0.153382
-0.0742757
-0.00561502
0.0746428
-21.9032
-21.9102
-21.9165
-21.9232
-21.9323
-21.944
-21.9583
-21.975
-21.9942
-22.0159
-22.04
-22.0664
-22.095
-22.1252
-22.1565
-22.1897
-22.2245
-22.2603
-22.3003
-22.3426
-22.3843
-22.4262
-22.4684
-22.5109
-22.5535
-22.5962
-22.6388
-22.6812
-22.7232
-22.7645
-22.8051
-22.8448
-22.8831
-22.92
-22.9552
-22.9884
-23.0193
-23.0476
-23.0729
-23.0951
-23.1137
-23.1284
-23.1388
-23.1447
-23.1456
-23.1413
-23.1312
-23.1152
-23.0927
-23.0635
-23.0273
-22.9836
-22.9323
-22.8729
-22.8051
-22.7288
-22.6438
-22.5497
-22.4465
-22.3341
-22.2123
-22.0812
-21.9409
-21.7911
-21.6319
-21.4634
-21.2859
-21.0997
-20.9049
-20.7019
-20.491
-20.2723
-20.0462
-19.8131
-19.5733
-19.327
-19.0747
-18.8168
-18.5534
-18.2852
-18.0124
-17.7353
-17.4545
-17.1702
-16.8828
-16.5928
-16.3005
-16.0062
-15.7103
-15.4132
-15.1151
-14.8166
-14.5177
-14.219
-13.9206
-13.6229
-13.3261
-13.0306
-12.7365
-12.4441
-12.1537
-11.8654
-11.5795
-11.2962
-11.0156
-10.7379
-10.4633
-10.1919
-9.92392
-9.65944
-9.39861
-9.14152
-8.88827
-8.63903
-8.39384
-8.15274
-7.91595
-7.68348
-7.45523
-7.23159
-7.01248
-6.79751
-6.5872
-6.38174
-6.18069
-5.98428
-5.79298
-5.60646
-5.42419
-5.24656
-5.0741
-4.90677
-4.74452
-4.58731
-4.43508
-4.28779
-4.14538
-4.0078
-3.87501
-3.74695
-3.62356
-3.50477
-3.39052
-3.28071
-3.17528
-3.07411
-2.97711
-2.88417
-2.79517
-2.70999
-2.62848
-2.55053
-2.47597
-2.40467
-2.33645
-2.27118
-2.20867
-2.14877
-2.09131
-2.0361
-1.98299
-1.93179
-1.88233
-1.83445
-1.78796
-1.7427
-1.6985
-1.6552
-1.61262
-1.57062
-1.52904
-1.48773
-1.44654
-1.40534
-1.36398
-1.32235
-1.2803
-1.23774
-1.19455
-1.15062
-1.10586
-1.06018
-1.01347
-0.965657
-0.916645
-0.866333
-0.814601
-0.761308
-0.706269
-0.649254
-0.589975
-0.528089
-0.463223
-0.395036
-0.323368
-0.248402
-0.171426
-0.0936281
-0.0269512
0.0780169
-21.8989
-21.9093
-21.918
-21.9257
-21.9351
-21.9469
-21.9611
-21.9777
-21.9968
-22.0181
-22.0418
-22.0677
-22.0955
-22.125
-22.1559
-22.1886
-22.2232
-22.2594
-22.2978
-22.3377
-22.378
-22.4189
-22.4602
-22.5019
-22.5438
-22.5858
-22.6277
-22.6695
-22.7109
-22.7518
-22.7919
-22.8312
-22.8692
-22.9058
-22.9407
-22.9737
-23.0045
-23.0327
-23.0581
-23.0804
-23.0991
-23.1141
-23.1249
-23.1312
-23.1326
-23.1288
-23.1195
-23.1042
-23.0826
-23.0544
-23.0193
-22.9768
-22.9267
-22.8686
-22.8023
-22.7275
-22.644
-22.5516
-22.4501
-22.3394
-22.2194
-22.0902
-21.9517
-21.8036
-21.646
-21.4793
-21.3035
-21.119
-20.926
-20.7248
-20.5156
-20.2986
-20.0743
-19.8429
-19.6047
-19.3601
-19.1095
-18.8531
-18.5913
-18.3246
-18.0532
-17.7776
-17.4982
-17.2152
-16.9292
-16.6404
-16.3493
-16.0561
-15.7613
-15.4652
-15.1682
-14.8706
-14.5726
-14.2747
-13.9771
-13.6801
-13.3841
-13.0892
-12.7957
-12.5038
-12.2139
-11.926
-11.6405
-11.3575
-11.0772
-10.7998
-10.5255
-10.2543
-9.98643
-9.72207
-9.46136
-9.20431
-8.95104
-8.70185
-8.45663
-8.21537
-7.97853
-7.74599
-7.51738
-7.29324
-7.07371
-6.85845
-6.64775
-6.44178
-6.24027
-6.0434
-5.85145
-5.66423
-5.48138
-5.30315
-5.1299
-4.96167
-4.79845
-4.64022
-4.48694
-4.33856
-4.19505
-4.05634
-3.9224
-3.79317
-3.6686
-3.54861
-3.43313
-3.3221
-3.21542
-3.11299
-3.01473
-2.92052
-2.83025
-2.7438
-2.66103
-2.58181
-2.506
-2.43345
-2.364
-2.29751
-2.23381
-2.17274
-2.11412
-2.05779
-2.00358
-1.95132
-1.90084
-1.85195
-1.80451
-1.75833
-1.71325
-1.66911
-1.62574
-1.58299
-1.54072
-1.49876
-1.45697
-1.41522
-1.37338
-1.33131
-1.2889
-1.24603
-1.2026
-1.15849
-1.11362
-1.06789
-1.02122
-0.973514
-0.92469
-0.874645
-0.823269
-0.770419
-0.715925
-0.659561
-0.601056
-0.540074
-0.476253
-0.409232
-0.338791
-0.264899
-0.188556
-0.109148
-0.0394385
0.0916857
-21.8979
-21.9108
-21.9216
-21.9304
-21.9404
-21.9525
-21.9669
-21.9835
-22.0024
-22.0236
-22.047
-22.0724
-22.0997
-22.1288
-22.1594
-22.1917
-22.2258
-22.2616
-22.2991
-22.3379
-22.3773
-22.4174
-22.4579
-22.4989
-22.5402
-22.5816
-22.6231
-22.6644
-22.7054
-22.7459
-22.7858
-22.8248
-22.8626
-22.8991
-22.9339
-22.9669
-22.9977
-23.026
-23.0515
-23.0739
-23.0929
-23.1082
-23.1193
-23.1261
-23.128
-23.1248
-23.116
-23.1014
-23.0806
-23.0533
-23.019
-22.9775
-22.9283
-22.8713
-22.8061
-22.7325
-22.6501
-22.5589
-22.4586
-22.3491
-22.2303
-22.1023
-21.9649
-21.8178
-21.6612
-21.4955
-21.3209
-21.1375
-20.9456
-20.7455
-20.5373
-20.3215
-20.0982
-19.8679
-19.6308
-19.3872
-19.1376
-18.8822
-18.6214
-18.3557
-18.0852
-17.8106
-17.532
-17.2499
-16.9647
-16.6767
-16.3863
-16.0939
-15.7998
-15.5044
-15.2081
-14.911
-14.6137
-14.3163
-14.0192
-13.7228
-13.4271
-13.1327
-12.8395
-12.548
-12.2584
-11.9709
-11.6857
-11.4029
-11.1228
-10.8455
-10.5714
-10.3003
-10.0325
-9.7682
-9.5076
-9.25051
-8.99711
-8.74798
-8.5027
-8.2611
-8.02386
-7.79096
-7.56214
-7.33769
-7.11776
-6.90217
-6.6911
-6.48466
-6.28273
-6.08543
-5.89295
-5.70518
-5.52197
-5.34344
-5.16979
-5.00107
-4.8373
-4.67846
-4.52452
-4.37545
-4.23121
-4.09175
-3.95704
-3.82701
-3.70161
-3.58078
-3.46445
-3.35255
-3.24498
-3.14167
-3.0425
-2.94739
-2.85621
-2.76884
-2.68516
-2.60503
-2.52832
-2.45487
-2.38455
-2.31719
-2.25263
-2.19072
-2.13129
-2.07417
-2.01919
-1.96618
-1.91497
-1.8654
-1.8173
-1.77049
-1.72482
-1.68012
-1.63623
-1.593
-1.55028
-1.50792
-1.46578
-1.42371
-1.3816
-1.33931
-1.29672
-1.25373
-1.21021
-1.16608
-1.12123
-1.07558
-1.02904
-0.981525
-0.932945
-0.883203
-0.832195
-0.779783
-0.725807
-0.670051
-0.612256
-0.552088
-0.48917
-0.423078
-0.353456
-0.279921
-0.203069
-0.120309
-0.0458569
0.109242
-21.9004
-21.915
-21.9273
-21.9371
-21.9478
-21.9603
-21.9749
-21.9917
-22.0106
-22.0317
-22.0549
-22.0801
-22.1071
-22.1359
-22.1663
-22.1983
-22.232
-22.2672
-22.3038
-22.3416
-22.3803
-22.4196
-22.4596
-22.5
-22.5408
-22.5818
-22.6228
-22.6638
-22.7046
-22.7449
-22.7846
-22.8234
-22.8612
-22.8976
-22.9325
-22.9655
-22.9964
-23.0249
-23.0506
-23.0733
-23.0926
-23.1081
-23.1197
-23.1268
-23.1292
-23.1265
-23.1183
-23.1044
-23.0842
-23.0576
-23.024
-22.9832
-22.9349
-22.8787
-22.8144
-22.7415
-22.66
-22.5696
-22.4702
-22.3615
-22.2436
-22.1164
-21.9795
-21.8328
-21.6769
-21.5118
-21.3378
-21.155
-20.9638
-20.7643
-20.5569
-20.3417
-20.1191
-19.8894
-19.6529
-19.41
-19.161
-18.9063
-18.6461
-18.381
-18.1111
-17.837
-17.559
-17.2775
-16.9928
-16.7054
-16.4156
-16.1236
-15.83
-15.5351
-15.2392
-14.9426
-14.6457
-14.3487
-14.052
-13.7559
-13.4607
-13.1665
-12.8737
-12.5825
-12.2931
-12.0059
-11.7209
-11.4383
-11.1584
-10.8813
-10.6074
-10.3364
-10.0685
-9.80436
-9.54395
-9.28682
-9.03319
-8.78382
-8.53838
-8.29676
-8.05936
-7.82622
-7.59724
-7.3726
-7.15239
-6.93655
-6.72521
-6.51844
-6.3162
-6.11859
-5.92571
-5.73755
-5.55401
-5.37519
-5.2012
-5.03208
-4.86786
-4.70852
-4.55405
-4.40442
-4.25958
-4.11952
-3.98417
-3.85349
-3.72743
-3.60592
-3.4889
-3.37629
-3.26802
-3.16399
-3.06411
-2.96827
-2.87637
-2.78828
-2.70389
-2.62305
-2.54564
-2.47151
-2.40051
-2.33249
-2.26729
-2.20475
-2.14471
-2.087
-2.03146
-1.97791
-1.92619
-1.87613
-1.82756
-1.78033
-1.73425
-1.68919
-1.64497
-1.60144
-1.55845
-1.51586
-1.47352
-1.4313
-1.38907
-1.3467
-1.30407
-1.26108
-1.2176
-1.17354
-1.12881
-1.08332
-1.03697
-0.98968
-0.941369
-0.891935
-0.841281
-0.789271
-0.735758
-0.680533
-0.623348
-0.563866
-0.501683
-0.436288
-0.367153
-0.293497
-0.215523
-0.128728
-0.049661
0.127241
-21.9061
-21.9219
-21.9351
-21.9457
-21.957
-21.97
-21.9848
-22.0017
-22.0207
-22.0417
-22.0648
-22.0898
-22.1166
-22.1451
-22.1752
-22.2069
-22.2401
-22.2747
-22.3107
-22.3478
-22.3858
-22.4245
-22.464
-22.5039
-22.5443
-22.585
-22.6258
-22.6666
-22.7071
-22.7473
-22.787
-22.8258
-22.8636
-22.9001
-22.9351
-22.9683
-22.9993
-23.028
-23.0539
-23.0769
-23.0965
-23.1124
-23.1243
-23.1319
-23.1347
-23.1325
-23.1248
-23.1114
-23.0918
-23.0657
-23.0328
-22.9926
-22.9449
-22.8894
-22.8256
-22.7534
-22.6725
-22.5827
-22.4838
-22.3756
-22.2582
-22.1313
-21.9945
-21.848
-21.6923
-21.5276
-21.3539
-21.1715
-20.9806
-20.7814
-20.5743
-20.3595
-20.1373
-19.9079
-19.6718
-19.4293
-19.1807
-18.9263
-18.6665
-18.4017
-18.1322
-17.8585
-17.5809
-17.2997
-17.0154
-16.7283
-16.4388
-16.1473
-15.854
-15.5594
-15.2638
-14.9676
-14.671
-14.3744
-14.078
-13.7821
-13.4872
-13.1933
-12.9008
-12.6098
-12.3207
-12.0337
-11.749
-11.4665
-11.1867
-10.9098
-10.6362
-10.3653
-10.0974
-9.83314
-9.57262
-9.31553
-9.06202
-8.81256
-8.56702
-8.32539
-8.08791
-7.85463
-7.62553
-7.40074
-7.18034
-6.96431
-6.75275
-6.54573
-6.34325
-6.14538
-5.9522
-5.76372
-5.57989
-5.40079
-5.22648
-5.05701
-4.8924
-4.73264
-4.57771
-4.4276
-4.28226
-4.14168
-4.0058
-3.87457
-3.74795
-3.62588
-3.50829
-3.3951
-3.28625
-3.18163
-3.08117
-2.98475
-2.89227
-2.80361
-2.71864
-2.63725
-2.55929
-2.48463
-2.41311
-2.34458
-2.2789
-2.21589
-2.1554
-2.09726
-2.04131
-1.98738
-1.9353
-1.88491
-1.83604
-1.78852
-1.7422
-1.69691
-1.6525
-1.60881
-1.56569
-1.523
-1.4806
-1.43835
-1.39612
-1.35378
-1.31121
-1.26831
-1.22495
-1.18105
-1.1365
-1.09121
-1.04509
-0.998056
-0.950021
-0.900884
-0.850553
-0.798896
-0.745774
-0.690988
-0.634297
-0.575356
-0.513733
-0.448817
-0.379906
-0.305806
-0.226408
-0.135379
-0.0523269
0.144334
-21.9147
-21.931
-21.9447
-21.9559
-21.9677
-21.9809
-21.996
-22.013
-22.032
-22.0529
-22.0759
-22.1006
-22.1272
-22.1554
-22.1852
-22.2165
-22.2493
-22.2834
-22.3188
-22.3553
-22.3928
-22.4311
-22.4702
-22.5098
-22.5499
-22.5903
-22.631
-22.6716
-22.7121
-22.7523
-22.792
-22.8309
-22.8688
-22.9054
-22.9406
-22.9739
-23.0052
-23.0341
-23.0604
-23.0836
-23.1035
-23.1198
-23.132
-23.1399
-23.1432
-23.1414
-23.1342
-23.1212
-23.1021
-23.0765
-23.044
-23.0044
-22.9572
-22.9021
-22.8388
-22.767
-22.6865
-22.597
-22.4984
-22.3905
-22.2733
-22.1463
-22.0092
-21.8627
-21.7071
-21.5423
-21.3687
-21.1864
-20.9956
-20.7966
-20.5896
-20.3749
-20.1528
-19.9237
-19.6877
-19.4453
-19.1969
-18.9427
-18.6831
-18.4185
-18.1492
-17.8757
-17.5983
-17.3174
-17.0333
-16.7465
-16.4572
-16.1659
-15.8729
-15.5786
-15.2833
-14.9873
-14.691
-14.3945
-14.0984
-13.8028
-13.5082
-13.2146
-12.9223
-12.6314
-12.3425
-12.0558
-11.7714
-11.4891
-11.2093
-10.9325
-10.6589
-10.3881
-10.1204
-9.85628
-9.59572
-9.33868
-9.08527
-8.83579
-8.59021
-8.34857
-8.11103
-7.87765
-7.64846
-7.42355
-7.20299
-6.9868
-6.77507
-6.56785
-6.36516
-6.16707
-5.97365
-5.78489
-5.60081
-5.42145
-5.24686
-5.07709
-4.91213
-4.75201
-4.59669
-4.44617
-4.30042
-4.15939
-4.02306
-3.89138
-3.76429
-3.64175
-3.52368
-3.41001
-3.30068
-3.19558
-3.09464
-2.99775
-2.90481
-2.81569
-2.73028
-2.64845
-2.57007
-2.49499
-2.42308
-2.35417
-2.28813
-2.22478
-2.16396
-2.10552
-2.0493
-1.99511
-1.9428
-1.8922
-1.84315
-1.79548
-1.74903
-1.70364
-1.65915
-1.61541
-1.57228
-1.5296
-1.48723
-1.44504
-1.4029
-1.36068
-1.31826
-1.27552
-1.23236
-1.18866
-1.14434
-1.09929
-1.05343
-1.00666
-0.958899
-0.910038
-0.859992
-0.808627
-0.755817
-0.701364
-0.645038
-0.586486
-0.525243
-0.460608
-0.391707
-0.316963
-0.236033
-0.14085
-0.0545767
0.159726
-21.9254
-21.9418
-21.9557
-21.9673
-21.9793
-21.9928
-22.0079
-22.0249
-22.0439
-22.0647
-22.0875
-22.112
-22.1382
-22.1661
-22.1956
-22.2265
-22.2589
-22.2926
-22.3276
-22.3636
-22.4007
-22.4387
-22.4774
-22.5168
-22.5567
-22.5971
-22.6376
-22.6783
-22.7188
-22.7591
-22.7988
-22.8379
-22.8759
-22.9127
-22.9481
-22.9817
-23.0132
-23.0424
-23.0689
-23.0924
-23.1126
-23.1291
-23.1417
-23.15
-23.1536
-23.1521
-23.1453
-23.1327
-23.114
-23.0887
-23.0566
-23.0173
-22.9704
-22.9157
-22.8526
-22.7811
-22.7008
-22.6115
-22.513
-22.4052
-22.2878
-22.1603
-22.0228
-21.8762
-21.7204
-21.5555
-21.3818
-21.1994
-21.0086
-20.8095
-20.6025
-20.3878
-20.1657
-19.9365
-19.7006
-19.4583
-19.2098
-18.9557
-18.6962
-18.4317
-18.1625
-17.8891
-17.6118
-17.331
-17.0472
-16.7605
-16.4714
-16.1803
-15.8875
-15.5934
-15.2983
-15.0027
-14.7065
-14.4103
-14.1143
-13.819
-13.5246
-13.2315
-12.9393
-12.6486
-12.3599
-12.0733
-11.789
-11.5069
-11.2274
-10.9508
-10.6771
-10.4065
-10.139
-9.87499
-9.61447
-9.35749
-9.10416
-8.85469
-8.60911
-8.36746
-8.12988
-7.89644
-7.66717
-7.44216
-7.22148
-7.00517
-6.79329
-6.5859
-6.38303
-6.18475
-5.99111
-5.80213
-5.61781
-5.43822
-5.26338
-5.09333
-4.92809
-4.76764
-4.61199
-4.46112
-4.315
-4.1736
-4.03689
-3.90481
-3.77733
-3.65439
-3.53592
-3.42186
-3.31213
-3.20664
-3.10531
-3.00804
-2.91472
-2.82525
-2.73949
-2.65732
-2.57862
-2.50323
-2.43103
-2.36185
-2.29554
-2.23196
-2.17093
-2.1123
-2.0559
-2.00156
-1.94912
-1.89842
-1.84929
-1.80156
-1.75509
-1.70969
-1.66522
-1.62153
-1.57847
-1.53588
-1.49364
-1.45159
-1.40962
-1.36758
-1.32537
-1.28286
-1.23994
-1.1965
-1.15245
-1.10767
-1.06208
-1.01557
-0.968072
-0.919462
-0.869657
-0.818522
-0.765938
-0.711709
-0.655615
-0.597293
-0.536256
-0.471716
-0.402657
-0.327147
-0.244715
-0.145635
-0.0569248
0.172852
-21.9377
-21.9539
-21.9676
-21.9794
-21.9915
-22.005
-22.0202
-22.0371
-22.0559
-22.0766
-22.0991
-22.1233
-22.1492
-22.1768
-22.2059
-22.2365
-22.2685
-22.3018
-22.3364
-22.3722
-22.4089
-22.4467
-22.4852
-22.5245
-22.5643
-22.6046
-22.6452
-22.6859
-22.7265
-22.7669
-22.8068
-22.846
-22.8843
-22.9213
-22.9569
-22.9907
-23.0224
-23.0519
-23.0786
-23.1024
-23.1228
-23.1396
-23.1525
-23.161
-23.1649
-23.1637
-23.1571
-23.1448
-23.1263
-23.1014
-23.0695
-23.0304
-22.9838
-22.9292
-22.8663
-22.7948
-22.7146
-22.6252
-22.5267
-22.4188
-22.3007
-22.1724
-22.0347
-21.8878
-21.7317
-21.5666
-21.3927
-21.2101
-21.0191
-20.8198
-20.6126
-20.3978
-20.1756
-19.9463
-19.7103
-19.468
-19.2195
-18.9654
-18.7059
-18.4414
-18.1722
-17.8989
-17.6217
-17.341
-17.0573
-16.7709
-16.4819
-16.1909
-15.8982
-15.6043
-15.3095
-15.0142
-14.7184
-14.4222
-14.1265
-13.8314
-13.5372
-13.2442
-12.9523
-12.6619
-12.3735
-12.0871
-11.8029
-11.5211
-11.2418
-10.9653
-10.6919
-10.4214
-10.1541
-9.89016
-9.62972
-9.37283
-9.11959
-8.87016
-8.62459
-8.38295
-8.14536
-7.91188
-7.68256
-7.45748
-7.2367
-7.02028
-6.80827
-6.60074
-6.39772
-6.19927
-6.00543
-5.81624
-5.63173
-5.45192
-5.27685
-5.10655
-4.94104
-4.78032
-4.62437
-4.47319
-4.32675
-4.18503
-4.04798
-3.91557
-3.78775
-3.66447
-3.54567
-3.43127
-3.32121
-3.2154
-3.11376
-3.01618
-2.92257
-2.83281
-2.74678
-2.66436
-2.58541
-2.5098
-2.43739
-2.36802
-2.30155
-2.23781
-2.17666
-2.11791
-2.06143
-2.00703
-1.95455
-1.90383
-1.8547
-1.80701
-1.76058
-1.71526
-1.67089
-1.62732
-1.5844
-1.54198
-1.49993
-1.45809
-1.41635
-1.37455
-1.33261
-1.29036
-1.24773
-1.20458
-1.16082
-1.11633
-1.07102
-1.02478
-0.977535
-0.929149
-0.879544
-0.828576
-0.776136
-0.722023
-0.666028
-0.60778
-0.546775
-0.48216
-0.412802
-0.336471
-0.252642
-0.150043
-0.05962
0.183358
-21.951
-21.9668
-21.9801
-21.9918
-22.004
-22.0174
-22.0324
-22.0492
-22.0678
-22.0881
-22.1103
-22.1342
-22.1598
-22.187
-22.2157
-22.246
-22.2776
-22.3107
-22.345
-22.3805
-22.4171
-22.4546
-22.4931
-22.5323
-22.5721
-22.6125
-22.6531
-22.6939
-22.7347
-22.7753
-22.8154
-22.8548
-22.8932
-22.9305
-22.9663
-23.0003
-23.0322
-23.0619
-23.0888
-23.1128
-23.1334
-23.1504
-23.1634
-23.1721
-23.1762
-23.1752
-23.1688
-23.1566
-23.1383
-23.1135
-23.0818
-23.0428
-22.9962
-22.9416
-22.8787
-22.8072
-22.7268
-22.6373
-22.5386
-22.4301
-22.311
-22.1821
-22.0441
-21.8968
-21.7404
-21.575
-21.4007
-21.2179
-21.0266
-20.8272
-20.6197
-20.4047
-20.1823
-19.9529
-19.7168
-19.4743
-19.2259
-18.9717
-18.7122
-18.4476
-18.1785
-17.9052
-17.6281
-17.3476
-17.064
-16.7778
-16.489
-16.198
-15.9056
-15.6119
-15.3173
-15.0221
-14.7265
-14.4307
-14.1353
-13.8405
-13.5465
-13.2537
-12.9621
-12.672
-12.3838
-12.0977
-11.8137
-11.5322
-11.2531
-10.9769
-10.7036
-10.4333
-10.1662
-9.90242
-9.6421
-9.38532
-9.13218
-8.88281
-8.63729
-8.39569
-8.1581
-7.9246
-7.69524
-7.47011
-7.24926
-7.03274
-6.82063
-6.61297
-6.40981
-6.21121
-6.0172
-5.82783
-5.64312
-5.46312
-5.28784
-5.11732
-4.95156
-4.79059
-4.63438
-4.48292
-4.3362
-4.19419
-4.05685
-3.92416
-3.79605
-3.67248
-3.55339
-3.43872
-3.32839
-3.22232
-3.12042
-3.0226
-2.92876
-2.83878
-2.75255
-2.66994
-2.59083
-2.51507
-2.44252
-2.37304
-2.30647
-2.24266
-2.18145
-2.12268
-2.06618
-2.01179
-1.95935
-1.90868
-1.85964
-1.81204
-1.76573
-1.72056
-1.67636
-1.63297
-1.59026
-1.54807
-1.50626
-1.46468
-1.42322
-1.38172
-1.34008
-1.29815
-1.25583
-1.213
-1.16955
-1.12536
-1.08035
-1.03437
-0.987362
-0.939173
-0.889726
-0.838868
-0.786491
-0.73239
-0.676366
-0.61804
-0.556902
-0.492049
-0.422275
-0.345094
-0.260025
-0.154347
-0.0628444
0.191012
-21.9649
-21.9801
-21.9928
-22.0043
-22.0163
-22.0295
-22.0443
-22.0607
-22.079
-22.099
-22.1208
-22.1443
-22.1695
-22.1964
-22.2248
-22.2547
-22.2861
-22.3189
-22.353
-22.3883
-22.4248
-22.4623
-22.5007
-22.54
-22.5799
-22.6203
-22.6611
-22.7021
-22.743
-22.7838
-22.824
-22.8636
-22.9022
-22.9397
-22.9756
-23.0098
-23.0419
-23.0717
-23.0987
-23.1228
-23.1435
-23.1606
-23.1737
-23.1825
-23.1866
-23.1857
-23.1793
-23.1672
-23.1489
-23.1241
-23.0924
-23.0534
-23.0067
-22.9521
-22.8891
-22.8174
-22.7368
-22.647
-22.5478
-22.4381
-22.3181
-22.1888
-22.0503
-21.9026
-21.7458
-21.58
-21.4055
-21.2224
-21.0309
-20.8311
-20.6234
-20.4081
-20.1856
-19.956
-19.7198
-19.4772
-19.2287
-18.9746
-18.7151
-18.4505
-18.1814
-17.9082
-17.6311
-17.3507
-17.0673
-16.7811
-16.4926
-16.2019
-15.9097
-15.6163
-15.3219
-15.0269
-14.7316
-14.4361
-14.141
-13.8465
-13.5528
-13.2603
-12.969
-12.6793
-12.3914
-12.1055
-11.8219
-11.5406
-11.2619
-10.9859
-10.7128
-10.4427
-10.1758
-9.91224
-9.65208
-9.39543
-9.14242
-8.89315
-8.6477
-8.40614
-8.16858
-7.93508
-7.70571
-7.48054
-7.25963
-7.04305
-6.83084
-6.62307
-6.41979
-6.22105
-6.02689
-5.83735
-5.65246
-5.47227
-5.2968
-5.12606
-4.96009
-4.79888
-4.64243
-4.49073
-4.34376
-4.2015
-4.06391
-3.93096
-3.8026
-3.67879
-3.55946
-3.44456
-3.334
-3.22772
-3.12562
-3.02762
-2.9336
-2.84346
-2.75709
-2.67435
-2.59513
-2.51928
-2.44666
-2.37712
-2.31053
-2.2467
-2.1855
-2.12676
-2.07032
-2.016
-1.96366
-1.91311
-1.8642
-1.81676
-1.77064
-1.72566
-1.68169
-1.63854
-1.59609
-1.55418
-1.51266
-1.47139
-1.43025
-1.38908
-1.34778
-1.30619
-1.26423
-1.22173
-1.17862
-1.13474
-1.09002
-1.04431
-0.997524
-0.949509
-0.900185
-0.849382
-0.796997
-0.742815
-0.68664
-0.628093
-0.566663
-0.501421
-0.431118
-0.353085
-0.266933
-0.158658
-0.0665947
0.195702
-21.979
-21.9934
-22.0054
-22.0166
-22.0283
-22.0411
-22.0555
-22.0715
-22.0894
-22.109
-22.1303
-22.1535
-22.1783
-22.2048
-22.2329
-22.2625
-22.2937
-22.3263
-22.3602
-22.3955
-22.4319
-22.4694
-22.5079
-22.5472
-22.5872
-22.6278
-22.6687
-22.7099
-22.751
-22.7919
-22.8323
-22.8721
-22.9108
-22.9484
-22.9844
-23.0187
-23.0508
-23.0806
-23.1077
-23.1317
-23.1524
-23.1695
-23.1825
-23.1913
-23.1953
-23.1943
-23.1879
-23.1757
-23.1573
-23.1324
-23.1006
-23.0614
-23.0146
-22.9597
-22.8965
-22.8245
-22.7436
-22.6535
-22.553
-22.4419
-22.3215
-22.1918
-22.0528
-21.9047
-21.7475
-21.5814
-21.4065
-21.2231
-21.0313
-20.8314
-20.6234
-20.408
-20.1852
-19.9555
-19.7192
-19.4766
-19.228
-18.9738
-18.7143
-18.4498
-18.1808
-17.9077
-17.6308
-17.3505
-17.0672
-16.7812
-16.4929
-16.2025
-15.9106
-15.6175
-15.3234
-15.0287
-14.7337
-14.4386
-14.1439
-13.8497
-13.5564
-13.2642
-12.9734
-12.684
-12.3965
-12.111
-11.8277
-11.5467
-11.2683
-10.9926
-10.7198
-10.45
-10.1833
-9.91997
-9.66
-9.40353
-9.15067
-8.90152
-8.65616
-8.41468
-8.17717
-7.9437
-7.71433
-7.48914
-7.26819
-7.05154
-6.83925
-6.63139
-6.42799
-6.22912
-6.03482
-5.84513
-5.66008
-5.47971
-5.30405
-5.13312
-4.96695
-4.80553
-4.64886
-4.49694
-4.34974
-4.20725
-4.06944
-3.93627
-3.8077
-3.68368
-3.56415
-3.44906
-3.33832
-3.23187
-3.12962
-3.03148
-2.93734
-2.84709
-2.76063
-2.67782
-2.59854
-2.52266
-2.45002
-2.3805
-2.31392
-2.25015
-2.18902
-2.13037
-2.07403
-2.01985
-1.96766
-1.91728
-1.86857
-1.82135
-1.77546
-1.73073
-1.68703
-1.64417
-1.60203
-1.56043
-1.51925
-1.47833
-1.43755
-1.39674
-1.35581
-1.31459
-1.27299
-1.23085
-1.18809
-1.14453
-1.10011
-1.05466
-1.00808
-0.960222
-0.910989
-0.860195
-0.807738
-0.753386
-0.696954
-0.63805
-0.57618
-0.5104
-0.439468
-0.360576
-0.273507
-0.163124
-0.0709082
0.197358
-21.993
-22.0066
-22.0177
-22.0284
-22.0396
-22.0519
-22.0658
-22.0814
-22.0987
-22.1178
-22.1387
-22.1614
-22.1858
-22.212
-22.2398
-22.2692
-22.3002
-22.3327
-22.3665
-22.4018
-22.4382
-22.4758
-22.5143
-22.5538
-22.5939
-22.6346
-22.6757
-22.717
-22.7583
-22.7993
-22.8398
-22.8796
-22.9184
-22.9559
-22.992
-23.0262
-23.0583
-23.0879
-23.1149
-23.1387
-23.1593
-23.1762
-23.189
-23.1976
-23.2014
-23.2002
-23.1936
-23.1812
-23.1626
-23.1375
-23.1054
-23.066
-23.0188
-22.9637
-22.9001
-22.8278
-22.7465
-22.6551
-22.5533
-22.4417
-22.3208
-22.1906
-22.0513
-21.9028
-21.7452
-21.5787
-21.4035
-21.2198
-21.0278
-20.8276
-20.6196
-20.4039
-20.1811
-19.9513
-19.7148
-19.4721
-19.2235
-18.9693
-18.7099
-18.4455
-18.1767
-17.9037
-17.627
-17.3469
-17.0638
-16.7781
-16.49
-16.2
-15.9085
-15.6156
-15.3219
-15.0276
-14.733
-14.4384
-14.1441
-13.8504
-13.5575
-13.2658
-12.9753
-12.6864
-12.3993
-12.1142
-11.8313
-11.5507
-11.2727
-10.9974
-10.7249
-10.4554
-10.189
-9.92591
-9.66617
-9.40991
-9.15722
-8.90822
-8.66299
-8.42162
-8.18417
-7.95074
-7.7214
-7.4962
-7.27523
-7.05853
-6.84618
-6.63823
-6.43474
-6.23575
-6.04131
-5.85147
-5.66626
-5.48573
-5.3099
-5.13879
-4.97242
-4.8108
-4.65393
-4.5018
-4.35441
-4.21171
-4.0737
-3.94034
-3.81158
-3.68739
-3.56769
-3.45244
-3.34157
-3.23499
-3.13263
-3.03438
-2.94016
-2.84985
-2.76334
-2.68051
-2.60122
-2.52535
-2.45275
-2.38328
-2.31678
-2.2531
-2.19209
-2.13358
-2.0774
-2.0234
-1.97141
-1.92125
-1.87278
-1.82582
-1.78021
-1.73578
-1.69239
-1.64986
-1.60806
-1.56682
-1.52601
-1.48546
-1.44507
-1.40465
-1.36412
-1.32329
-1.28207
-1.24031
-1.1979
-1.15467
-1.11055
-1.06535
-1.01898
-0.971259
-0.922091
-0.871269
-0.818687
-0.764094
-0.707307
-0.64793
-0.58548
-0.519028
-0.447357
-0.367604
-0.279741
-0.167747
-0.0756649
0.196014
-22.0067
-22.0193
-22.0296
-22.0396
-22.0502
-22.0619
-22.0751
-22.09
-22.1068
-22.1254
-22.1458
-22.168
-22.1921
-22.2179
-22.2455
-22.2747
-22.3056
-22.338
-22.3718
-22.4071
-22.4436
-22.4812
-22.5199
-22.5595
-22.5997
-22.6405
-22.6817
-22.7231
-22.7644
-22.8054
-22.8459
-22.8856
-22.9243
-22.9617
-22.9975
-23.0315
-23.0634
-23.0928
-23.1194
-23.143
-23.1632
-23.1798
-23.1923
-23.2005
-23.204
-23.2025
-23.1956
-23.1829
-23.164
-23.1385
-23.1061
-23.0664
-23.0189
-22.9633
-22.8994
-22.8267
-22.7442
-22.6513
-22.5487
-22.4368
-22.3155
-22.1849
-22.0452
-21.8963
-21.7384
-21.5716
-21.3962
-21.2122
-21.0199
-20.8196
-20.6113
-20.3956
-20.1727
-19.9428
-19.7064
-19.4637
-19.2152
-18.961
-18.7017
-18.4375
-18.1689
-17.8961
-17.6197
-17.3399
-17.0571
-16.7717
-16.4841
-16.1945
-15.9033
-15.611
-15.3177
-15.0239
-14.7298
-14.4357
-14.1419
-13.8487
-13.5563
-13.2651
-12.9751
-12.6867
-12.4001
-12.1155
-11.833
-11.5529
-11.2753
-11.0004
-10.7283
-10.4591
-10.1931
-9.93028
-9.67082
-9.4148
-9.16233
-8.91351
-8.66843
-8.42718
-8.18983
-7.95647
-7.72716
-7.50198
-7.28099
-7.06426
-6.85186
-6.64383
-6.44024
-6.24114
-6.04658
-5.8566
-5.67125
-5.49056
-5.31455
-5.14327
-4.97672
-4.81492
-4.65786
-4.50554
-4.35796
-4.21508
-4.0769
-3.94336
-3.81445
-3.6901
-3.57027
-3.4549
-3.34391
-3.23724
-3.1348
-3.0365
-2.94223
-2.8519
-2.76539
-2.68257
-2.60333
-2.52751
-2.455
-2.38562
-2.31925
-2.25571
-2.19486
-2.13653
-2.08057
-2.02679
-1.97504
-1.92515
-1.87696
-1.8303
-1.78501
-1.74092
-1.69788
-1.65571
-1.61429
-1.57344
-1.53303
-1.49289
-1.4529
-1.4129
-1.37278
-1.33235
-1.29154
-1.25015
-1.20811
-1.16522
-1.1214
-1.07644
-1.03028
-0.982674
-0.933551
-0.882667
-0.829916
-0.77502
-0.717798
-0.657839
-0.59469
-0.527433
-0.454924
-0.37429
-0.285747
-0.172611
-0.080847
0.191694
-22.0198
-22.0316
-22.0409
-22.0501
-22.0598
-22.0708
-22.0832
-22.0975
-22.1136
-22.1316
-22.1515
-22.1733
-22.197
-22.2226
-22.2499
-22.279
-22.3098
-22.3421
-22.376
-22.4113
-22.4478
-22.4856
-22.5243
-22.564
-22.6043
-22.6451
-22.6863
-22.7276
-22.7688
-22.8096
-22.8499
-22.8894
-22.9278
-22.9649
-23.0003
-23.0339
-23.0654
-23.0944
-23.1206
-23.1437
-23.1634
-23.1795
-23.1916
-23.1993
-23.2024
-23.2004
-23.1931
-23.18
-23.1608
-23.135
-23.1022
-23.062
-23.0141
-22.9582
-22.8938
-22.8199
-22.7357
-22.642
-22.539
-22.4266
-22.305
-22.1741
-22.0341
-21.8849
-21.7267
-21.5597
-21.384
-21.1998
-21.0074
-20.807
-20.5987
-20.3829
-20.16
-19.9302
-19.6938
-19.4513
-19.2028
-18.9489
-18.6898
-18.4259
-18.1575
-17.8851
-17.609
-17.3296
-17.0473
-16.7623
-16.4751
-16.186
-15.8954
-15.6036
-15.3109
-15.0176
-14.7241
-14.4306
-14.1374
-13.8448
-13.553
-13.2623
-12.973
-12.6852
-12.3991
-12.115
-11.8331
-11.5534
-11.2763
-11.0018
-10.7302
-10.4614
-10.1958
-9.93332
-9.67416
-9.41842
-9.1662
-8.9176
-8.6727
-8.4316
-8.19437
-7.96109
-7.73184
-7.5067
-7.28571
-7.06897
-6.85652
-6.64843
-6.44475
-6.24555
-6.05087
-5.86076
-5.67526
-5.49441
-5.31825
-5.14679
-4.98007
-4.81809
-4.66085
-4.50836
-4.3606
-4.21756
-4.07921
-3.94552
-3.81647
-3.69199
-3.57205
-3.45658
-3.34551
-3.23877
-3.13628
-3.03795
-2.94368
-2.85336
-2.76688
-2.68412
-2.60494
-2.52923
-2.45682
-2.38759
-2.32138
-2.25802
-2.19738
-2.13927
-2.08355
-2.03003
-1.97857
-1.92898
-1.88111
-1.83478
-1.78984
-1.74611
-1.70346
-1.66169
-1.62067
-1.58023
-1.54025
-1.50053
-1.46098
-1.4214
-1.38171
-1.3417
-1.3013
-1.2603
-1.21863
-1.17608
-1.13256
-1.08785
-1.04187
-0.994383
-0.94529
-0.894324
-0.841372
-0.786128
-0.728406
-0.667785
-0.603826
-0.535653
-0.462195
-0.380656
-0.291484
-0.177658
-0.0862827
0.184535
-22.0325
-22.0434
-22.0515
-22.0598
-22.0685
-22.0785
-22.0901
-22.1036
-22.119
-22.1364
-22.1558
-22.1772
-22.2005
-22.2258
-22.253
-22.282
-22.3127
-22.345
-22.3789
-22.4142
-22.4508
-22.4886
-22.5273
-22.5669
-22.6071
-22.6478
-22.6888
-22.7298
-22.7707
-22.8113
-22.8511
-22.8901
-22.928
-22.9646
-22.9995
-23.0325
-23.0634
-23.0917
-23.1174
-23.1399
-23.159
-23.1745
-23.186
-23.1932
-23.1958
-23.1933
-23.1855
-23.1719
-23.1522
-23.1259
-23.0927
-23.0521
-23.0038
-22.9474
-22.8818
-22.8061
-22.7212
-22.627
-22.5237
-22.411
-22.2891
-22.158
-22.0177
-21.8683
-21.7099
-21.5428
-21.367
-21.1827