/*--------------------------------*- C++ -*----------------------------------*\
  =========                 |
  \\      /  F ield         | OpenFOAM: The Open Source CFD Toolbox
   \\    /   O peration     | Website:  https://openfoam.org
    \\  /    A nd           | Version:  7
     \\/     M anipulation  |
\*---------------------------------------------------------------------------*/
FoamFile
{
    version     2.0;
    format      ascii;
    class       surfaceScalarField;
    location    "900";
    object      phi;
}
// * * * * * * * * * * * * * * * * * * * * * * * * * * * * * * * * * * * * * //

dimensions      [0 3 -1 0 0 0 0];

internalField   nonuniform List<scalar> 
33502
(
3.91991e-09
-3.91437e-09
-2.99706e-08
3.38807e-08
-8.12537e-08
5.12889e-08
-1.38847e-07
5.75832e-08
-1.98946e-07
6.01052e-08
-2.60318e-07
6.13639e-08
-3.22462e-07
6.21482e-08
-3.85188e-07
6.27202e-08
-4.48384e-07
6.32009e-08
-5.12043e-07
6.36526e-08
-5.76183e-07
6.41412e-08
-6.40884e-07
6.46973e-08
-7.06147e-07
6.52602e-08
-7.71846e-07
6.5699e-08
-8.3813e-07
6.62834e-08
-9.06474e-07
6.83472e-08
-9.83427e-07
7.69637e-08
-1.05756e-06
7.41323e-08
-1.11944e-06
6.18854e-08
-1.18044e-06
6.09996e-08
-1.24259e-06
6.21541e-08
-1.30495e-06
6.23555e-08
-1.36708e-06
6.21318e-08
-1.42881e-06
6.1721e-08
-1.49005e-06
6.12456e-08
-1.5508e-06
6.07486e-08
-1.61105e-06
6.02466e-08
-1.67079e-06
5.97381e-08
-1.73001e-06
5.92173e-08
-1.78868e-06
5.86763e-08
-1.84679e-06
5.81068e-08
-1.9043e-06
5.75011e-08
-1.96115e-06
5.6852e-08
-2.0173e-06
5.61531e-08
-2.0727e-06
5.5399e-08
-2.12729e-06
5.45847e-08
-2.18099e-06
5.37061e-08
-2.23375e-06
5.27594e-08
-2.28549e-06
5.17414e-08
-2.33614e-06
5.06496e-08
-2.38563e-06
4.94813e-08
-2.43386e-06
4.82345e-08
-2.48077e-06
4.69073e-08
-2.52627e-06
4.54981e-08
-2.57027e-06
4.40053e-08
-2.6127e-06
4.2428e-08
-2.65346e-06
4.07653e-08
-2.69248e-06
3.90167e-08
-2.72966e-06
3.71823e-08
-2.76493e-06
3.52629e-08
-2.79818e-06
3.32596e-08
-2.82936e-06
3.11748e-08
-2.85837e-06
2.90112e-08
-2.88514e-06
2.67729e-08
-2.90961e-06
2.44649e-08
-2.9317e-06
2.20931e-08
-2.95136e-06
1.96646e-08
-2.96855e-06
1.71873e-08
-2.98322e-06
1.467e-08
-2.99534e-06
1.21216e-08
-3.00489e-06
9.5517e-09
-3.01186e-06
6.96899e-09
-3.01624e-06
4.3802e-09
-3.01803e-06
1.79079e-09
-3.01724e-06
-7.90068e-10
-3.01391e-06
-3.32608e-09
-3.00811e-06
-5.79799e-09
-2.99989e-06
-8.22042e-09
-2.98929e-06
-1.05975e-08
-2.97636e-06
-1.29304e-08
-2.96114e-06
-1.52186e-08
-2.94368e-06
-1.74612e-08
-2.92403e-06
-1.9657e-08
-2.90222e-06
-2.18048e-08
-2.87832e-06
-2.39032e-08
-2.85237e-06
-2.59511e-08
-2.82442e-06
-2.79471e-08
-2.79453e-06
-2.98903e-08
-2.76275e-06
-3.17791e-08
-2.72914e-06
-3.36125e-08
-2.69375e-06
-3.5389e-08
-2.65664e-06
-3.7108e-08
-2.61787e-06
-3.87686e-08
-2.5775e-06
-4.03708e-08
-2.53559e-06
-4.19146e-08
-2.49219e-06
-4.34e-08
-2.44736e-06
-4.48269e-08
-2.40117e-06
-4.6195e-08
-2.35366e-06
-4.75042e-08
-2.30491e-06
-4.87551e-08
-2.25496e-06
-4.99487e-08
-2.20388e-06
-5.10862e-08
-2.15171e-06
-5.21689e-08
-2.09851e-06
-5.31974e-08
-2.04434e-06
-5.41714e-08
-1.98925e-06
-5.50921e-08
-1.93329e-06
-5.59612e-08
-1.87651e-06
-5.67814e-08
-1.81896e-06
-5.75545e-08
-1.76068e-06
-5.82804e-08
-1.70173e-06
-5.8959e-08
-1.64214e-06
-5.95923e-08
-1.58195e-06
-6.0184e-08
-1.52122e-06
-6.07368e-08
-1.45997e-06
-6.12493e-08
-1.39826e-06
-6.17198e-08
-1.33611e-06
-6.21522e-08
-1.27355e-06
-6.25554e-08
-1.21063e-06
-6.29266e-08
-1.14737e-06
-6.32569e-08
-1.08382e-06
-6.35523e-08
-1.02e-06
-6.38277e-08
-9.55925e-07
-6.40754e-08
-8.91649e-07
-6.42779e-08
-8.27187e-07
-6.44629e-08
-7.62553e-07
-6.46351e-08
-6.97798e-07
-6.47567e-08
-6.32946e-07
-6.48524e-08
-5.6799e-07
-6.49566e-08
-5.02987e-07
-6.50024e-08
-4.37981e-07
-6.50061e-08
-3.72918e-07
-6.50627e-08
-3.07866e-07
-6.50513e-08
-2.42958e-07
-6.49057e-08
-1.78106e-07
-6.48501e-08
-1.13244e-07
-6.48598e-08
-4.84141e-08
-6.48266e-08
1.6257e-08
-6.46681e-08
8.03596e-08
-6.40998e-08
1.43663e-07
-6.33014e-08
2.06232e-07
-6.25666e-08
2.68125e-07
-6.18908e-08
3.29373e-07
-6.12468e-08
3.89987e-07
-6.06119e-08
4.49958e-07
-5.99694e-08
5.09267e-07
-5.93082e-08
5.67889e-07
-5.86206e-08
6.25791e-07
-5.79014e-08
6.82939e-07
-5.7147e-08
7.39295e-07
-5.6355e-08
7.9482e-07
-5.55237e-08
8.49473e-07
-5.46521e-08
9.03213e-07
-5.37397e-08
9.56e-07
-5.27862e-08
1.00779e-06
-5.17917e-08
1.05855e-06
-5.07567e-08
1.10823e-06
-4.9682e-08
1.1568e-06
-4.85684e-08
1.20422e-06
-4.74173e-08
1.25045e-06
-4.623e-08
1.29546e-06
-4.50083e-08
1.33922e-06
-4.37541e-08
1.38169e-06
-4.24692e-08
1.42284e-06
-4.11563e-08
1.46266e-06
-3.98174e-08
1.50112e-06
-3.84555e-08
1.5382e-06
-3.70729e-08
1.57387e-06
-3.56728e-08
1.60813e-06
-3.42577e-08
1.64097e-06
-3.28313e-08
1.67236e-06
-3.1396e-08
1.70232e-06
-2.99558e-08
1.73084e-06
-2.85133e-08
1.75792e-06
-2.70728e-08
1.78356e-06
-2.56368e-08
1.80777e-06
-2.42101e-08
1.83058e-06
-2.27954e-08
1.85198e-06
-2.13979e-08
1.872e-06
-2.00204e-08
1.89068e-06
-1.8669e-08
1.90803e-06
-1.73466e-08
1.9241e-06
-1.60603e-08
1.93892e-06
-1.48135e-08
1.95254e-06
-1.36143e-08
1.96501e-06
-1.24671e-08
1.9764e-06
-1.13814e-08
1.98676e-06
-1.03624e-08
1.99619e-06
-9.42154e-09
2.00476e-06
-8.56474e-09
2.01257e-06
-7.80509e-09
2.01972e-06
-7.14911e-09
2.02633e-06
-6.61049e-09
2.03253e-06
-6.19485e-09
2.03844e-06
-5.9142e-09
2.04421e-06
-5.77017e-09
2.04998e-06
-5.76902e-09
2.05588e-06
-5.9042e-09
2.06205e-06
-6.17242e-09
2.0686e-06
-6.55848e-09
2.07564e-06
-7.05571e-09
2.08329e-06
-7.66026e-09
2.09168e-06
-8.40427e-09
2.10103e-06
-9.3734e-09
2.11178e-06
-1.07684e-08
2.12472e-06
-1.29685e-08
2.14137e-06
-1.66753e-08
2.16442e-06
-2.30809e-08
2.19897e-06
-3.45862e-08
2.25449e-06
-5.55578e-08
-9.57633e-08
-3.05905e-08
2.66767e-08
-7.02217e-08
7.35098e-08
-1.17569e-07
9.86359e-08
-1.70749e-07
1.10763e-07
-2.27461e-07
1.16815e-07
-2.86305e-07
1.20209e-07
-3.46552e-07
1.22392e-07
-4.07834e-07
1.24004e-07
-4.69977e-07
1.25341e-07
-5.32892e-07
1.26568e-07
-5.96508e-07
1.27759e-07
-6.6073e-07
1.28914e-07
-7.25437e-07
1.29974e-07
-7.90691e-07
1.30946e-07
-8.56397e-07
1.31997e-07
-9.21362e-07
1.3331e-07
-9.79566e-07
1.35174e-07
-1.03864e-06
1.33209e-07
-1.10393e-06
1.27173e-07
-1.16677e-06
1.23839e-07
-1.22689e-06
1.22281e-07
-1.28564e-06
1.21103e-07
-1.34346e-06
1.19951e-07
-1.40057e-06
1.18827e-07
-1.45706e-06
1.17732e-07
-1.51297e-06
1.16664e-07
-1.56834e-06
1.15609e-07
-1.62315e-06
1.14551e-07
-1.67741e-06
1.13473e-07
-1.73109e-06
1.12357e-07
-1.78417e-06
1.11187e-07
-1.83662e-06
1.09948e-07
-1.88839e-06
1.08625e-07
-1.93945e-06
1.07207e-07
-1.98973e-06
1.05683e-07
-2.03919e-06
1.04043e-07
-2.08777e-06
1.02281e-07
-2.13539e-06
1.00389e-07
-2.18201e-06
9.83601e-08
-2.22755e-06
9.619e-08
-2.27195e-06
9.38738e-08
-2.31512e-06
9.14073e-08
-2.357e-06
8.87867e-08
-2.39751e-06
8.60087e-08
-2.43657e-06
8.30705e-08
-2.47412e-06
7.99694e-08
-2.51005e-06
7.67038e-08
-2.54431e-06
7.32726e-08
-2.5768e-06
6.96756e-08
-2.60745e-06
6.59138e-08
-2.63618e-06
6.19896e-08
-2.66292e-06
5.79068e-08
-2.68758e-06
5.3671e-08
-2.71009e-06
4.92895e-08
-2.7304e-06
4.4772e-08
-2.74843e-06
4.01298e-08
-2.76415e-06
3.53766e-08
-2.77749e-06
3.05276e-08
-2.78842e-06
2.55999e-08
-2.7969e-06
2.06111e-08
-2.80293e-06
1.55797e-08
-2.80649e-06
1.05226e-08
-2.80756e-06
5.45276e-09
-2.80614e-06
3.76576e-10
-2.80228e-06
-4.64901e-09
-2.79604e-06
-9.56603e-09
-2.78746e-06
-1.43805e-08
-2.77658e-06
-1.91039e-08
-2.76343e-06
-2.37407e-08
-2.74807e-06
-2.82918e-08
-2.73053e-06
-3.27562e-08
-2.71086e-06
-3.71318e-08
-2.6891e-06
-4.14162e-08
-2.6653e-06
-4.56069e-08
-2.6395e-06
-4.97014e-08
-2.61176e-06
-5.36973e-08
-2.58211e-06
-5.75924e-08
-2.55062e-06
-6.13843e-08
-2.51732e-06
-6.50708e-08
-2.48229e-06
-6.86491e-08
-2.44556e-06
-7.2117e-08
-2.4072e-06
-7.54723e-08
-2.36725e-06
-7.87142e-08
-2.32578e-06
-8.18422e-08
-2.28284e-06
-8.48564e-08
-2.23848e-06
-8.77571e-08
-2.19276e-06
-9.05441e-08
-2.14574e-06
-9.32167e-08
-2.09747e-06
-9.57746e-08
-2.04801e-06
-9.82187e-08
-1.99741e-06
-1.00551e-07
-1.94572e-06
-1.02774e-07
-1.893e-06
-1.04891e-07
-1.8393e-06
-1.06902e-07
-1.78466e-06
-1.08807e-07
-1.72915e-06
-1.10607e-07
-1.6728e-06
-1.12307e-07
-1.61567e-06
-1.13911e-07
-1.5578e-06
-1.15424e-07
-1.49924e-06
-1.16844e-07
-1.44003e-06
-1.18172e-07
-1.38021e-06
-1.19411e-07
-1.31983e-06
-1.20567e-07
-1.25892e-06
-1.21648e-07
-1.19752e-06
-1.2265e-07
-1.13567e-06
-1.2357e-07
-1.07341e-06
-1.24413e-07
-1.01077e-06
-1.25198e-07
-9.47777e-07
-1.2592e-07
-8.84472e-07
-1.26563e-07
-8.2089e-07
-1.27135e-07
-7.57054e-07
-1.27665e-07
-6.92989e-07
-1.28141e-07
-6.28738e-07
-1.2853e-07
-5.64323e-07
-1.28878e-07
-4.99761e-07
-1.29198e-07
-4.35088e-07
-1.29429e-07
-3.70339e-07
-1.29602e-07
-3.05522e-07
-1.29774e-07
-2.40662e-07
-1.29863e-07
-1.75805e-07
-1.29863e-07
-1.10983e-07
-1.29886e-07
-4.61513e-08
-1.29883e-07
1.86898e-08
-1.29747e-07
8.32597e-08
-1.2942e-07
1.47393e-07
-1.28993e-07
2.11159e-07
-1.28593e-07
2.7455e-07
-1.28059e-07
3.37512e-07
-1.27061e-07
3.99976e-07
-1.25766e-07
4.61896e-07
-1.24487e-07
5.23228e-07
-1.23223e-07
5.83944e-07
-1.21963e-07
6.44021e-07
-1.20689e-07
7.03432e-07
-1.1938e-07
7.62147e-07
-1.18024e-07
8.20134e-07
-1.16608e-07
8.77358e-07
-1.15125e-07
9.33781e-07
-1.13571e-07
9.89366e-07
-1.1194e-07
1.04407e-06
-1.10231e-07
1.09786e-06
-1.08443e-07
1.1507e-06
-1.06574e-07
1.20254e-06
-1.04626e-07
1.25334e-06
-1.02598e-07
1.30308e-06
-1.00492e-07
1.35171e-06
-9.83094e-08
1.39919e-06
-9.60531e-08
1.4455e-06
-9.37257e-08
1.4906e-06
-9.13304e-08
1.53446e-06
-8.88708e-08
1.57706e-06
-8.6351e-08
1.61837e-06
-8.37754e-08
1.65836e-06
-8.11487e-08
1.69702e-06
-7.84761e-08
1.73433e-06
-7.57628e-08
1.77027e-06
-7.30145e-08
1.80484e-06
-7.02371e-08
1.83802e-06
-6.74367e-08
1.86981e-06
-6.46194e-08
1.90021e-06
-6.1792e-08
1.92922e-06
-5.89609e-08
1.95684e-06
-5.61333e-08
1.98309e-06
-5.3316e-08
2.00797e-06
-5.05166e-08
2.03151e-06
-4.77426e-08
2.05372e-06
-4.50021e-08
2.07463e-06
-4.23031e-08
2.09427e-06
-3.96548e-08
2.11267e-06
-3.70661e-08
2.12987e-06
-3.45473e-08
2.14593e-06
-3.21088e-08
2.16088e-06
-2.97624e-08
2.17479e-06
-2.75204e-08
2.18773e-06
-2.53967e-08
2.19976e-06
-2.34059e-08
2.21096e-06
-2.15647e-08
2.22144e-06
-1.98901e-08
2.23128e-06
-1.84015e-08
2.2406e-06
-1.71183e-08
2.24952e-06
-1.60615e-08
2.25816e-06
-1.52513e-08
2.26668e-06
-1.47074e-08
2.27521e-06
-1.44462e-08
2.28393e-06
-1.44804e-08
2.29298e-06
-1.48159e-08
2.30253e-06
-1.54512e-08
2.31273e-06
-1.63763e-08
2.32375e-06
-1.75768e-08
2.33574e-06
-1.90431e-08
2.34886e-06
-2.07892e-08
2.36334e-06
-2.28886e-08
2.37949e-06
-2.55287e-08
2.39781e-06
-2.90955e-08
2.41913e-06
-3.42883e-08
2.44476e-06
-4.23134e-08
2.47676e-06
-5.50941e-08
2.51817e-06
-7.60145e-08
2.57247e-06
-1.09879e-07
-1.60487e-07
-4.51477e-08
7.18229e-08
-8.97728e-08
1.18135e-07
-1.36732e-07
1.45595e-07
-1.87165e-07
1.61196e-07
-2.40469e-07
1.70121e-07
-2.95811e-07
1.75548e-07
-3.52568e-07
1.79152e-07
-4.1035e-07
1.81782e-07
-4.68885e-07
1.83878e-07
-5.27978e-07
1.85658e-07
-5.87439e-07
1.87222e-07
-6.47086e-07
1.88565e-07
-7.06738e-07
1.89625e-07
-7.66138e-07
1.90348e-07
-8.24786e-07
1.90644e-07
-8.81854e-07
1.90379e-07
-9.36134e-07
1.89455e-07
-9.89799e-07
1.86875e-07
-1.04521e-06
1.82588e-07
-1.10031e-06
1.78933e-07
-1.15429e-06
1.76264e-07
-1.20729e-06
1.741e-07
-1.25953e-06
1.72186e-07
-1.31113e-06
1.70429e-07
-1.36217e-06
1.68774e-07
-1.41269e-06
1.67184e-07
-1.46271e-06
1.65624e-07
-1.51222e-06
1.64063e-07
-1.56123e-06
1.62473e-07
-1.6097e-06
1.60826e-07
-1.65761e-06
1.591e-07
-1.70493e-06
1.5727e-07
-1.75163e-06
1.55319e-07
-1.79765e-06
1.5323e-07
-1.84295e-06
1.50986e-07
-1.88749e-06
1.48575e-07
-1.93119e-06
1.45987e-07
-1.97401e-06
1.43211e-07
-2.01589e-06
1.40238e-07
-2.05676e-06
1.37061e-07
-2.09656e-06
1.33674e-07
-2.13523e-06
1.3007e-07
-2.17268e-06
1.26244e-07
-2.20887e-06
1.22192e-07
-2.2437e-06
1.17907e-07
-2.27712e-06
1.13387e-07
-2.30905e-06
1.08629e-07
-2.33941e-06
1.03631e-07
-2.36812e-06
9.8391e-08
-2.39512e-06
9.29111e-08
-2.42032e-06
8.7194e-08
-2.44366e-06
8.12447e-08
-2.46506e-06
7.50707e-08
-2.48445e-06
6.86823e-08
-2.50177e-06
6.2093e-08
-2.51696e-06
5.5319e-08
-2.52997e-06
4.83799e-08
-2.54074e-06
4.12978e-08
-2.54923e-06
3.40974e-08
-2.55543e-06
2.68047e-08
-2.55929e-06
1.94468e-08
-2.56082e-06
1.20484e-08
-2.56e-06
4.6305e-09
-2.55685e-06
-2.77004e-09
-2.55142e-06
-1.0074e-08
-2.54376e-06
-1.72312e-08
-2.53389e-06
-2.42496e-08
-2.52185e-06
-3.11385e-08
-2.50769e-06
-3.79026e-08
-2.49144e-06
-4.45426e-08
-2.47314e-06
-5.10567e-08
-2.45283e-06
-5.74417e-08
-2.43055e-06
-6.36938e-08
-2.40635e-06
-6.98094e-08
-2.38027e-06
-7.57847e-08
-2.35235e-06
-8.16164e-08
-2.32264e-06
-8.73012e-08
-2.29119e-06
-9.2836e-08
-2.25804e-06
-9.82173e-08
-2.22325e-06
-1.03441e-07
-2.18686e-06
-1.08504e-07
-2.14893e-06
-1.13403e-07
-2.10951e-06
-1.18136e-07
-2.06865e-06
-1.22704e-07
-2.0264e-06
-1.27105e-07
-1.98281e-06
-1.31341e-07
-1.93795e-06
-1.35412e-07
-1.89185e-06
-1.39317e-07
-1.84457e-06
-1.43054e-07
-1.79616e-06
-1.46626e-07
-1.74668e-06
-1.50033e-07
-1.69617e-06
-1.53282e-07
-1.64469e-06
-1.56376e-07
-1.59227e-06
-1.59316e-07
-1.53898e-06
-1.62102e-07
-1.48485e-06
-1.64735e-07
-1.42994e-06
-1.6722e-07
-1.37428e-06
-1.69566e-07
-1.31793e-06
-1.71778e-07
-1.26092e-06
-1.73857e-07
-1.20329e-06
-1.758e-07
-1.14509e-06
-1.77611e-07
-1.08636e-06
-1.79302e-07
-1.02712e-06
-1.80883e-07
-9.67425e-07
-1.82349e-07
-9.07302e-07
-1.83693e-07
-8.46793e-07
-1.84922e-07
-7.85925e-07
-1.86066e-07
-7.24725e-07
-1.87121e-07
-6.63231e-07
-1.88057e-07
-6.0148e-07
-1.88886e-07
-5.39493e-07
-1.89652e-07
-4.77293e-07
-1.90341e-07
-4.1492e-07
-1.90903e-07
-3.52403e-07
-1.91396e-07
-2.89756e-07
-1.91845e-07
-2.27007e-07
-1.92178e-07
-1.64197e-07
-1.92413e-07
-1.01353e-07
-1.92618e-07
-3.84528e-08
-1.92762e-07
2.44599e-08
-1.92776e-07
8.72031e-08
-1.92629e-07
1.49696e-07
-1.92375e-07
2.11961e-07
-1.92011e-07
2.73972e-07
-1.9143e-07
3.35674e-07
-1.90694e-07
3.96982e-07
-1.89901e-07
4.57854e-07
-1.8893e-07
5.18361e-07
-1.87568e-07
5.78505e-07
-1.85909e-07
6.38182e-07
-1.84163e-07
6.97324e-07
-1.82364e-07
7.55879e-07
-1.80517e-07
8.13803e-07
-1.78613e-07
8.71059e-07
-1.76636e-07
9.2761e-07
-1.74574e-07
9.8342e-07
-1.72417e-07
1.03845e-06
-1.70156e-07
1.09266e-06
-1.67785e-07
1.14602e-06
-1.653e-07
1.19849e-06
-1.62699e-07
1.25003e-06
-1.59981e-07
1.3006e-06
-1.57146e-07
1.35017e-06
-1.54194e-07
1.3987e-06
-1.51126e-07
1.44616e-06
-1.47947e-07
1.4925e-06
-1.44658e-07
1.53771e-06
-1.41263e-07
1.58176e-06
-1.37768e-07
1.6246e-06
-1.34177e-07
1.66623e-06
-1.30497e-07
1.70661e-06
-1.26733e-07
1.74573e-06
-1.22893e-07
1.78356e-06
-1.18984e-07
1.8201e-06
-1.15014e-07
1.85533e-06
-1.10991e-07
1.88924e-06
-1.06924e-07
1.92182e-06
-1.02821e-07
1.95308e-06
-9.86931e-08
1.98301e-06
-9.45488e-08
2.01162e-06
-9.03982e-08
2.03891e-06
-8.62517e-08
2.06489e-06
-8.21197e-08
2.08959e-06
-7.80133e-08
2.11302e-06
-7.39435e-08
2.1352e-06
-6.99224e-08
2.15616e-06
-6.59616e-08
2.17593e-06
-6.20746e-08
2.19455e-06
-5.82743e-08
2.21206e-06
-5.45756e-08
2.22851e-06
-5.09931e-08
2.24394e-06
-4.75439e-08
2.25843e-06
-4.4245e-08
2.27202e-06
-4.11166e-08
2.28481e-06
-3.81784e-08
2.29685e-06
-3.54545e-08
2.30826e-06
-3.29682e-08
2.31911e-06
-3.07475e-08
2.32953e-06
-2.88197e-08
2.33963e-06
-2.72163e-08
2.34954e-06
-2.59668e-08
2.35939e-06
-2.51039e-08
2.36933e-06
-2.46551e-08
2.37953e-06
-2.46485e-08
2.39015e-06
-2.5102e-08
2.40136e-06
-2.60294e-08
2.41334e-06
-2.74304e-08
2.42626e-06
-2.92991e-08
2.4403e-06
-3.16217e-08
2.45565e-06
-3.4398e-08
2.47252e-06
-3.76615e-08
2.49115e-06
-4.15342e-08
2.51191e-06
-4.62921e-08
2.53528e-06
-5.24739e-08
2.56199e-06
-6.10073e-08
2.59307e-06
-7.34056e-08
2.62987e-06
-9.19035e-08
2.67385e-06
-1.2e-07
2.72487e-06
-1.60915e-07
-2.13534e-07
-4.97938e-08
1.21618e-07
-9.726e-08
1.656e-07
-1.44387e-07
1.92724e-07
-1.92961e-07
2.09771e-07
-2.43291e-07
2.20452e-07
-2.95082e-07
2.2734e-07
-3.47949e-07
2.32018e-07
-4.01555e-07
2.35389e-07
-4.55618e-07
2.3794e-07
-5.09882e-07
2.39924e-07
-5.64102e-07
2.41443e-07
-6.1804e-07
2.42504e-07
-6.71467e-07
2.43053e-07
-7.24135e-07
2.43016e-07
-7.75778e-07
2.42287e-07
-8.26159e-07
2.40759e-07
-8.75186e-07
2.38481e-07
-9.23647e-07
2.35338e-07
-9.72428e-07
2.31369e-07
-1.02105e-06
2.27553e-07
-1.06913e-06
2.24342e-07
-1.1166e-06
2.21575e-07
-1.16352e-06
2.19107e-07
-1.20994e-06
2.16846e-07
-1.25589e-06
2.14722e-07
-1.30139e-06
2.12684e-07
-1.34645e-06
2.10682e-07
-1.39107e-06
2.08675e-07
-1.43522e-06
2.06625e-07
-1.47889e-06
2.04497e-07
-1.52205e-06
2.02262e-07
-1.56467e-06
1.9989e-07
-1.60671e-06
1.97359e-07
-1.64813e-06
1.94646e-07
-1.68888e-06
1.91733e-07
-1.72891e-06
1.88604e-07
-1.76817e-06
1.85245e-07
-1.8066e-06
1.81644e-07
-1.84415e-06
1.77791e-07
-1.88077e-06
1.73675e-07
-1.91638e-06
1.69289e-07
-1.95094e-06
1.64625e-07
-1.98437e-06
1.59676e-07
-2.01661e-06
1.54435e-07
-2.0476e-06
1.48897e-07
-2.07727e-06
1.43056e-07
-2.10555e-06
1.36907e-07
-2.13236e-06
1.30448e-07
-2.15765e-06
1.23678e-07
-2.18133e-06
1.16595e-07
-2.20334e-06
1.09204e-07
-2.22361e-06
1.0151e-07
-2.24206e-06
9.3523e-08
-2.25863e-06
8.52545e-08
-2.27326e-06
7.67217e-08
-2.28589e-06
6.79452e-08
-2.29646e-06
5.89499e-08
-2.30493e-06
4.97647e-08
-2.31125e-06
4.04215e-08
-2.3154e-06
3.0955e-08
-2.31735e-06
2.14013e-08
-2.3171e-06
1.17936e-08
-2.31463e-06
2.15949e-09
-2.30998e-06
-7.41986e-09
-2.3032e-06
-1.68493e-08
-2.29433e-06
-2.61039e-08
-2.28339e-06
-3.51877e-08
-2.27042e-06
-4.41079e-08
-2.25546e-06
-5.28684e-08
-2.23853e-06
-6.14694e-08
-2.21968e-06
-6.9908e-08
-2.19894e-06
-7.81797e-08
-2.17635e-06
-8.62795e-08
-2.15196e-06
-9.42022e-08
-2.1258e-06
-1.01943e-07
-2.09792e-06
-1.09498e-07
-2.06836e-06
-1.16862e-07
-2.03716e-06
-1.24033e-07
-2.00437e-06
-1.31005e-07
-1.97004e-06
-1.37773e-07
-1.93421e-06
-1.44333e-07
-1.89694e-06
-1.5068e-07
-1.85826e-06
-1.56813e-07
-1.81823e-06
-1.6273e-07
-1.77691e-06
-1.68432e-07
-1.73433e-06
-1.73921e-07
-1.69054e-06
-1.79196e-07
-1.6456e-06
-1.84256e-07
-1.59956e-06
-1.891e-07
-1.55246e-06
-1.93727e-07
-1.50435e-06
-1.98143e-07
-1.45528e-06
-2.02352e-07
-1.40529e-06
-2.06361e-07
-1.35444e-06
-2.10174e-07
-1.30275e-06
-2.13785e-07
-1.25029e-06
-2.17198e-07
-1.19709e-06
-2.20419e-07
-1.1432e-06
-2.23458e-07
-1.08865e-06
-2.26326e-07
-1.03349e-06
-2.29022e-07
-9.77748e-07
-2.31541e-07
-9.21473e-07
-2.33886e-07
-8.647e-07
-2.36075e-07
-8.0746e-07
-2.38124e-07
-7.49785e-07
-2.40025e-07
-6.91713e-07
-2.41765e-07
-6.33284e-07
-2.43351e-07
-5.74523e-07
-2.44828e-07
-5.15451e-07
-2.46193e-07
-4.56108e-07
-2.47401e-07
-3.96529e-07
-2.48465e-07
-3.36737e-07
-2.49445e-07
-2.7675e-07
-2.50328e-07
-2.16602e-07
-2.51051e-07
-1.56331e-07
-2.51668e-07
-9.59611e-08
-2.52215e-07
-3.54851e-08
-2.52654e-07
2.50573e-08
-2.52955e-07
8.5535e-08
-2.53096e-07
1.45887e-07
-2.53114e-07
2.06113e-07
-2.53002e-07
2.6618e-07
-2.52696e-07
3.26036e-07
-2.5223e-07
3.85635e-07
-2.51611e-07
4.44972e-07
-2.50767e-07
5.04008e-07
-2.49731e-07
5.62664e-07
-2.48557e-07
6.20902e-07
-2.47168e-07
6.78772e-07
-2.45439e-07
7.36281e-07
-2.43418e-07
7.93348e-07
-2.41231e-07
8.49907e-07
-2.38923e-07
9.05897e-07
-2.36508e-07
9.61268e-07
-2.33984e-07
1.01598e-06
-2.31345e-07
1.06998e-06
-2.28579e-07
1.12324e-06
-2.25679e-07
1.17572e-06
-2.22637e-07
1.22739e-06
-2.19447e-07
1.27819e-06
-2.16107e-07
1.32811e-06
-2.12614e-07
1.37709e-06
-2.08968e-07
1.42512e-06
-2.05169e-07
1.47214e-06
-2.01219e-07
1.51814e-06
-1.97121e-07
1.56307e-06
-1.9288e-07
1.60691e-06
-1.88499e-07
1.64963e-06
-1.83985e-07
1.69121e-06
-1.79344e-07
1.73161e-06
-1.74583e-07
1.77083e-06
-1.69712e-07
1.80883e-06
-1.64738e-07
1.84561e-06
-1.59672e-07
1.88115e-06
-1.54523e-07
1.91544e-06
-1.49302e-07
1.94847e-06
-1.44021e-07
1.98024e-06
-1.38692e-07
2.01075e-06
-1.33326e-07
2.03999e-06
-1.27936e-07
2.06798e-06
-1.22536e-07
2.09472e-06
-1.17138e-07
2.12023e-06
-1.11757e-07
2.14452e-06
-1.06407e-07
2.16761e-06
-1.01103e-07
2.18953e-06
-9.58597e-08
2.2103e-06
-9.0693e-08
2.22996e-06
-8.56196e-08
2.24855e-06
-8.06566e-08
2.2661e-06
-7.58225e-08
2.28266e-06
-7.11365e-08
2.29829e-06
-6.66192e-08
2.31304e-06
-6.22929e-08
2.32698e-06
-5.81815e-08
2.34018e-06
-5.43108e-08
2.35271e-06
-5.07088e-08
2.36467e-06
-4.74062e-08
2.37614e-06
-4.44359e-08
2.38723e-06
-4.18336e-08
2.39805e-06
-3.96372e-08
2.40872e-06
-3.78871e-08
2.41938e-06
-3.66243e-08
2.43017e-06
-3.58905e-08
2.44125e-06
-3.57252e-08
2.45277e-06
-3.61642e-08
2.4649e-06
-3.72359e-08
2.47784e-06
-3.89599e-08
2.49175e-06
-4.13435e-08
2.50684e-06
-4.43851e-08
2.5233e-06
-4.80789e-08
2.54134e-06
-5.24351e-08
2.56118e-06
-5.75108e-08
2.58312e-06
-6.34686e-08
2.60748e-06
-7.06552e-08
2.63472e-06
-7.97144e-08
2.66542e-06
-9.17102e-08
2.7003e-06
-1.08291e-07
2.7401e-06
-1.31704e-07
2.78518e-06
-1.65085e-07
2.83406e-06
-2.09806e-07
-2.62011e-07
-5.04594e-08
1.72078e-07
-9.84192e-08
2.13562e-07
-1.44921e-07
2.39227e-07
-1.91556e-07
2.56408e-07
-2.38954e-07
2.67851e-07
-2.87141e-07
2.75527e-07
-3.35922e-07
2.80799e-07
-3.85046e-07
2.84513e-07
-4.34262e-07
2.87157e-07
-4.83326e-07
2.88989e-07
-5.32009e-07
2.90127e-07
-5.80103e-07
2.90599e-07
-6.27437e-07
2.90388e-07
-6.73877e-07
2.89456e-07
-7.19351e-07
2.87761e-07
-7.63891e-07
2.85299e-07
-8.07611e-07
2.82202e-07
-8.50859e-07
2.78585e-07
-8.94055e-07
2.74565e-07
-9.3712e-07
2.70617e-07
-9.79847e-07
2.67069e-07
-1.02217e-06
2.63895e-07
-1.06408e-06
2.61018e-07
-1.1056e-06
2.5836e-07
-1.14673e-06
2.55851e-07
-1.18747e-06
2.53431e-07
-1.22784e-06
2.51045e-07
-1.26781e-06
2.48642e-07
-1.30736e-06
2.46178e-07
-1.34648e-06
2.43612e-07
-1.38512e-06
2.40907e-07
-1.42327e-06
2.38033e-07
-1.46087e-06
2.34959e-07
-1.49788e-06
2.31663e-07
-1.53427e-06
2.28121e-07
-1.56998e-06
2.24316e-07
-1.60497e-06
2.20232e-07
-1.63918e-06
2.15854e-07
-1.67256e-06
2.11171e-07
-1.70506e-06
2.06172e-07
-1.73662e-06
2.00848e-07
-1.76718e-06
1.95189e-07
-1.79669e-06
1.89187e-07
-1.82509e-06
1.82834e-07
-1.85232e-06
1.76122e-07
-1.87831e-06
1.69046e-07
-1.903e-06
1.61598e-07
-1.92632e-06
1.53775e-07
-1.94822e-06
1.45574e-07
-1.96862e-06
1.36994e-07
-1.98745e-06
1.28038e-07
-2.00465e-06
1.18712e-07
-2.02016e-06
1.09027e-07
-2.0339e-06
9.89968e-08
-2.04582e-06
8.86407e-08
-2.05586e-06
7.79836e-08
-2.06396e-06
6.70554e-08
-2.07009e-06
5.58912e-08
-2.0742e-06
4.45304e-08
-2.07626e-06
3.3016e-08
-2.07625e-06
2.13926e-08
-2.07416e-06
9.70321e-09
-2.07e-06
-2.00293e-09
-2.06381e-06
-1.36063e-08
-2.05565e-06
-2.50134e-08
-2.04553e-06
-3.62205e-08
-2.03349e-06
-4.7229e-08
-2.01955e-06
-5.80438e-08
-2.00375e-06
-6.86673e-08
-1.98612e-06
-7.90988e-08
-1.9667e-06
-8.93341e-08
-1.94551e-06
-9.9367e-08
-1.9226e-06
-1.09191e-07
-1.898e-06
-1.188e-07
-1.87176e-06
-1.28187e-07
-1.84391e-06
-1.37349e-07
-1.81449e-06
-1.46279e-07
-1.78355e-06
-1.54973e-07
-1.75113e-06
-1.63427e-07
-1.71726e-06
-1.71635e-07
-1.68201e-06
-1.79589e-07
-1.64541e-06
-1.87284e-07
-1.6075e-06
-1.94718e-07
-1.56834e-06
-2.0189e-07
-1.52797e-06
-2.08801e-07
-1.48644e-06
-2.15453e-07
-1.44379e-06
-2.21847e-07
-1.40006e-06
-2.27981e-07
-1.35531e-06
-2.33851e-07
-1.30958e-06
-2.39459e-07
-1.26292e-06
-2.44808e-07
-1.21536e-06
-2.49906e-07
-1.16696e-06
-2.54765e-07
-1.11775e-06
-2.59385e-07
-1.06777e-06
-2.63761e-07
-1.01708e-06
-2.67896e-07
-9.65701e-07
-2.71795e-07
-9.13686e-07
-2.75473e-07
-8.61066e-07
-2.78947e-07
-8.07874e-07
-2.82214e-07
-7.54152e-07
-2.85263e-07
-6.99938e-07
-2.88101e-07
-6.45268e-07
-2.90746e-07
-5.90168e-07
-2.93224e-07
-5.34668e-07
-2.95526e-07
-4.78804e-07
-2.97629e-07
-4.22615e-07
-2.99541e-07
-3.66124e-07
-3.0132e-07
-3.09353e-07
-3.02964e-07
-2.52334e-07
-3.04421e-07
-1.95098e-07
-3.05701e-07
-1.37679e-07
-3.06864e-07
-8.00999e-08
-3.07908e-07
-2.23517e-08
-3.08799e-07
3.55068e-08
-3.09527e-07
9.33708e-08
-3.10078e-07
1.51214e-07
-3.10497e-07
2.09024e-07
-3.10765e-07
2.66767e-07
-3.10838e-07
3.24396e-07
-3.10744e-07
3.81875e-07
-3.10481e-07
4.39182e-07
-3.10002e-07
4.96276e-07
-3.09324e-07
5.53114e-07
-3.08448e-07
6.09679e-07
-3.07332e-07
6.6594e-07
-3.05991e-07
7.21835e-07
-3.04451e-07
7.77331e-07
-3.02663e-07
8.32447e-07
-3.00555e-07
8.8718e-07
-2.9815e-07
9.41474e-07
-2.95525e-07
9.95269e-07
-2.92717e-07
1.04851e-06
-2.89746e-07
1.10114e-06
-2.86615e-07
1.15312e-06
-2.83323e-07
1.2044e-06
-2.79861e-07
1.25495e-06
-2.76225e-07
1.30472e-06
-2.72409e-07
1.35368e-06
-2.68408e-07
1.40179e-06
-2.6422e-07
1.44903e-06
-2.59845e-07
1.49534e-06
-2.55282e-07
1.5407e-06
-2.50533e-07
1.58509e-06
-2.45602e-07
1.62846e-06
-2.40492e-07
1.67079e-06
-2.3521e-07
1.71205e-06
-2.29762e-07
1.75222e-06
-2.24156e-07
1.79128e-06
-2.184e-07
1.8292e-06
-2.12505e-07
1.86597e-06
-2.06481e-07
1.90157e-06
-2.0034e-07
1.93599e-06
-1.94094e-07
1.96922e-06
-1.87755e-07
2.00126e-06
-1.81339e-07
2.0321e-06
-1.74859e-07
2.06174e-06
-1.6833e-07
2.09018e-06
-1.61768e-07
2.11743e-06
-1.55188e-07
2.1435e-06
-1.48608e-07
2.1684e-06
-1.42043e-07
2.19216e-06
-1.35513e-07
2.21479e-06
-1.29034e-07
2.23631e-06
-1.22626e-07
2.25675e-06
-1.16307e-07
2.27616e-06
-1.10097e-07
2.29455e-06
-1.04017e-07
2.31199e-06
-9.809e-08
2.3285e-06
-9.23373e-08
2.34415e-06
-8.67842e-08
2.35899e-06
-8.14559e-08
2.37307e-06
-7.63809e-08
2.38648e-06
-7.15885e-08
2.39928e-06
-6.71117e-08
2.41156e-06
-6.29849e-08
2.42339e-06
-5.92468e-08
2.4349e-06
-5.59376e-08
2.44616e-06
-5.31026e-08
2.45731e-06
-5.07878e-08
2.46847e-06
-4.90444e-08
2.47977e-06
-4.79223e-08
2.49135e-06
-4.74747e-08
2.50337e-06
-4.77502e-08
2.516e-06
-4.87961e-08
2.52941e-06
-5.06494e-08
2.54379e-06
-5.33399e-08
2.55933e-06
-5.68826e-08
2.57622e-06
-6.12855e-08
2.59469e-06
-6.65517e-08
2.61496e-06
-7.27058e-08
2.63727e-06
-7.98244e-08
2.6619e-06
-8.81018e-08
2.68916e-06
-9.79293e-08
2.71945e-06
-1.10008e-07
2.75319e-06
-1.25453e-07
2.79081e-06
-1.45914e-07
2.83256e-06
-1.73465e-07
2.87816e-06
-2.10693e-07
2.92575e-06
-2.574e-07
-3.08315e-07
-4.91339e-08
2.21213e-07
-9.59896e-08
2.60419e-07
-1.40966e-07
2.84206e-07
-1.85287e-07
3.0073e-07
-2.29607e-07
3.12173e-07
-2.74106e-07
3.20028e-07
-3.18717e-07
3.2541e-07
-3.63272e-07
3.29069e-07
-4.07578e-07
3.31464e-07
-4.51444e-07
3.32855e-07
-4.94699e-07
3.33381e-07
-5.37205e-07
3.33106e-07
-5.78874e-07
3.32058e-07
-6.19674e-07
3.30256e-07
-6.59642e-07
3.27729e-07
-6.98892e-07
3.24549e-07
-7.37567e-07
3.20876e-07
-7.75859e-07
3.16877e-07
-8.13993e-07
3.127e-07
-8.51991e-07
3.08614e-07
-8.89752e-07
3.0483e-07
-9.27224e-07
3.01367e-07
-9.64387e-07
2.9818e-07
-1.00123e-06
2.95206e-07
-1.03776e-06
2.92378e-07
-1.07396e-06
2.89631e-07
-1.10982e-06
2.86905e-07
-1.14533e-06
2.84145e-07
-1.18045e-06
2.81301e-07
-1.21517e-06
2.78326e-07
-1.24944e-06
2.75181e-07
-1.28324e-06
2.7183e-07
-1.31652e-06
2.68241e-07
-1.34925e-06
2.64388e-07
-1.38137e-06
2.60246e-07
-1.41285e-06
2.55795e-07
-1.44364e-06
2.51018e-07
-1.47368e-06
2.45899e-07
-1.50294e-06
2.40426e-07
-1.53135e-06
2.34587e-07
-1.55887e-06
2.28372e-07
-1.58546e-06
2.21771e-07
-1.61104e-06
2.14774e-07
-1.63558e-06
2.07372e-07
-1.65902e-06
1.99557e-07
-1.68129e-06
1.91321e-07
-1.70235e-06
1.82654e-07
-1.72213e-06
1.73553e-07
-1.74056e-06
1.64011e-07
-1.7576e-06
1.5403e-07
-1.77317e-06
1.4361e-07
-1.78722e-06
1.32757e-07
-1.79967e-06
1.21483e-07
-1.81048e-06
1.09802e-07
-1.81957e-06
9.77371e-08
-1.8269e-06
8.53162e-08
-1.83242e-06
7.2574e-08
-1.83608e-06
5.95518e-08
-1.83785e-06
4.62963e-08
-1.83769e-06
3.28586e-08
-1.83559e-06
1.92913e-08
-1.83153e-06
5.64449e-09
-1.82556e-06
-7.97617e-09
-1.81773e-06
-2.1433e-08
-1.80807e-06
-3.46697e-08
-1.79661e-06
-4.76821e-08
-1.78337e-06
-6.04711e-08
-1.76838e-06
-7.30394e-08
-1.75165e-06
-8.53881e-08
-1.73324e-06
-9.75154e-08
-1.71316e-06
-1.09415e-07
-1.69144e-06
-1.21079e-07
-1.66814e-06
-1.32499e-07
-1.64327e-06
-1.43668e-07
-1.61688e-06
-1.54579e-07
-1.589e-06
-1.65225e-07
-1.55968e-06
-1.75601e-07
-1.52895e-06
-1.85703e-07
-1.49685e-06
-1.95525e-07
-1.46342e-06
-2.05061e-07
-1.42871e-06
-2.143e-07
-1.39276e-06
-2.23237e-07
-1.35561e-06
-2.3187e-07
-1.3173e-06
-2.40196e-07
-1.27789e-06
-2.48218e-07
-1.2374e-06
-2.55938e-07
-1.19589e-06
-2.63361e-07
-1.15339e-06
-2.7048e-07
-1.10995e-06
-2.77292e-07
-1.06561e-06
-2.83797e-07
-1.02042e-06
-2.90001e-07
-9.74413e-07
-2.95911e-07
-9.27633e-07
-3.01544e-07
-8.80115e-07
-3.06903e-07
-8.31899e-07
-3.11978e-07
-7.83026e-07
-3.16769e-07
-7.33535e-07
-3.21286e-07
-6.83464e-07
-3.25544e-07
-6.32844e-07
-3.29568e-07
-5.81705e-07
-3.33353e-07
-5.30085e-07
-3.36884e-07
-4.78021e-07
-3.40166e-07
-4.25545e-07
-3.43222e-07
-3.72684e-07
-3.46086e-07
-3.19464e-07
-3.48745e-07
-2.65916e-07
-3.51178e-07
-2.12071e-07
-3.53387e-07
-1.57961e-07
-3.55429e-07
-1.03618e-07
-3.57308e-07
-4.90513e-08
-3.58988e-07
5.73926e-09
-3.60492e-07
6.06669e-08
-3.61792e-07
1.15657e-07
-3.62898e-07
1.70715e-07
-3.63858e-07
2.25817e-07
-3.64629e-07
2.80929e-07
-3.65191e-07
3.36011e-07
-3.65579e-07
3.91029e-07
-3.65784e-07
4.45963e-07
-3.65772e-07
5.00774e-07
-3.65555e-07
5.55423e-07
-3.6513e-07
6.09888e-07
-3.64468e-07
6.64135e-07
-3.63571e-07
7.18126e-07
-3.62439e-07
7.71837e-07
-3.61044e-07
8.25239e-07
-3.59393e-07
8.78283e-07
-3.57495e-07
9.3094e-07
-3.5532e-07
9.83209e-07
-3.52824e-07
1.03508e-06
-3.50019e-07
1.0865e-06
-3.4695e-07
1.13743e-06
-3.43649e-07
1.18782e-06
-3.40131e-07
1.23761e-06
-3.36405e-07
1.28676e-06
-3.32472e-07
1.33522e-06
-3.28328e-07
1.38297e-06
-3.23969e-07
1.42995e-06
-3.19392e-07
1.47614e-06
-3.14595e-07
1.52149e-06
-3.09575e-07
1.56598e-06
-3.04334e-07
1.60957e-06
-2.98874e-07
1.65223e-06
-2.93196e-07
1.69394e-06
-2.87307e-07
1.73466e-06
-2.81212e-07
1.77437e-06
-2.74918e-07
1.81304e-06
-2.68435e-07
1.85066e-06
-2.61772e-07
1.8872e-06
-2.5494e-07
1.92264e-06
-2.47951e-07
1.95698e-06
-2.4082e-07
1.9902e-06
-2.33559e-07
2.02229e-06
-2.26185e-07
2.05325e-06
-2.18713e-07
2.08307e-06
-2.1116e-07
2.11176e-06
-2.03544e-07
2.13931e-06
-1.95882e-07
2.16574e-06
-1.88194e-07
2.19105e-06
-1.80499e-07
2.21526e-06
-1.72817e-07
2.23839e-06
-1.65169e-07
2.26045e-06
-1.57575e-07
2.28148e-06
-1.50057e-07
2.30149e-06
-1.42638e-07
2.32053e-06
-1.35341e-07
2.33862e-06
-1.2819e-07
2.35581e-06
-1.21209e-07
2.37215e-06
-1.14425e-07
2.38768e-06
-1.07866e-07
2.40246e-06
-1.0156e-07
2.41655e-06
-9.55394e-08
2.43001e-06