/*--------------------------------*- C++ -*----------------------------------*\
  =========                 |
  \\      /  F ield         | OpenFOAM: The Open Source CFD Toolbox
   \\    /   O peration     | Website:  https://openfoam.org
    \\  /    A nd           | Version:  7
     \\/     M anipulation  |
\*---------------------------------------------------------------------------*/
FoamFile
{
    version     2.0;
    format      ascii;
    class       volVectorField;
    location    "900";
    object      U;
}
// * * * * * * * * * * * * * * * * * * * * * * * * * * * * * * * * * * * * * //

dimensions      [0 1 -1 0 0 0 0];

internalField   nonuniform List<vector> 
16900
(
(0.00673907 -0.00806897 0)
(-0.00701756 0.0197551 0)
(-0.0469304 0.0328569 0)
(-0.094953 0.0364712 0)
(-0.146179 0.0373203 0)
(-0.198878 0.0375328 0)
(-0.252398 0.0376335 0)
(-0.306473 0.037745 0)
(-0.360991 0.0379094 0)
(-0.415922 0.0381715 0)
(-0.471308 0.0386187 0)
(-0.527293 0.0394213 0)
(-0.584172 0.0409309 0)
(-0.642204 0.0439731 0)
(-0.70068 0.0504049 0)
(-0.757954 0.063507 0)
(-0.814956 0.0881575 0)
(-0.880568 0.0746178 0)
(-0.945565 0.0363598 0)
(-0.998256 0.0311782 0)
(-1.05038 0.0323667 0)
(-1.10432 0.0326156 0)
(-1.15826 0.0324458 0)
(-1.21193 0.0321186 0)
(-1.26522 0.0317403 0)
(-1.31808 0.0313504 0)
(-1.37052 0.0309612 0)
(-1.42252 0.0305735 0)
(-1.47408 0.0301846 0)
(-1.52518 0.0297901 0)
(-1.57581 0.0293858 0)
(-1.62592 0.0289676 0)
(-1.67549 0.0285317 0)
(-1.72448 0.028075 0)
(-1.77284 0.0275947 0)
(-1.82052 0.0270883 0)
(-1.86747 0.026554 0)
(-1.91363 0.0259899 0)
(-1.95893 0.0253947 0)
(-2.00333 0.0247671 0)
(-2.04674 0.0241062 0)
(-2.08911 0.023411 0)
(-2.13036 0.0226809 0)
(-2.17042 0.0219153 0)
(-2.20923 0.0211136 0)
(-2.24671 0.0202756 0)
(-2.28278 0.0194011 0)
(-2.31738 0.0184902 0)
(-2.35042 0.0175431 0)
(-2.38183 0.0165605 0)
(-2.41154 0.0155431 0)
(-2.43948 0.0144924 0)
(-2.46558 0.0134097 0)
(-2.48977 0.0122974 0)
(-2.51199 0.0111577 0)
(-2.53217 0.00999374 0)
(-2.55028 0.0088087 0)
(-2.56626 0.00760627 0)
(-2.58007 0.00639034 0)
(-2.59168 0.00516486 0)
(-2.60107 0.00393382 0)
(-2.60823 0.0027009 0)
(-2.61314 0.00146858 0)
(-2.61581 0.000237991 0)
(-2.61623 -0.0009819 0)
(-2.61443 -0.002172 0)
(-2.61046 -0.00332865 0)
(-2.60437 -0.0044609 0)
(-2.5962 -0.00557072 0)
(-2.58599 -0.00665868 0)
(-2.57378 -0.00772474 0)
(-2.5596 -0.00876867 0)
(-2.5435 -0.0097901 0)
(-2.52552 -0.0107887 0)
(-2.5057 -0.011764 0)
(-2.48408 -0.0127158 0)
(-2.46071 -0.0136436 0)
(-2.43563 -0.0145472 0)
(-2.4089 -0.0154261 0)
(-2.38054 -0.01628 0)
(-2.35063 -0.0171086 0)
(-2.3192 -0.0179118 0)
(-2.28631 -0.0186896 0)
(-2.252 -0.0194421 0)
(-2.21633 -0.0201696 0)
(-2.17935 -0.0208723 0)
(-2.1411 -0.0215504 0)
(-2.10165 -0.022204 0)
(-2.06103 -0.0228335 0)
(-2.01931 -0.0234393 0)
(-1.97653 -0.0240223 0)
(-1.93274 -0.0245833 0)
(-1.88799 -0.025123 0)
(-1.84232 -0.025642 0)
(-1.79578 -0.0261405 0)
(-1.74843 -0.0266195 0)
(-1.7003 -0.0270802 0)
(-1.65144 -0.0275241 0)
(-1.60189 -0.0279521 0)
(-1.55168 -0.0283647 0)
(-1.50087 -0.0287622 0)
(-1.44949 -0.0291462 0)
(-1.39759 -0.0295188 0)
(-1.34518 -0.0298815 0)
(-1.29231 -0.0302337 0)
(-1.23901 -0.0305759 0)
(-1.18533 -0.0309108 0)
(-1.13128 -0.0312426 0)
(-1.07689 -0.0315699 0)
(-1.0222 -0.0318897 0)
(-0.967232 -0.0322068 0)
(-0.912018 -0.0325283 0)
(-0.856571 -0.0328499 0)
(-0.800932 -0.0331659 0)
(-0.745123 -0.0334917 0)
(-0.68915 -0.0338278 0)
(-0.63305 -0.0341565 0)
(-0.576858 -0.0344972 0)
(-0.520564 -0.0348646 0)
(-0.464211 -0.0352204 0)
(-0.407832 -0.0355932 0)
(-0.3514 -0.0360276 0)
(-0.294994 -0.0364524 0)
(-0.238632 -0.0368767 0)
(-0.182228 -0.0373843 0)
(-0.125959 -0.0379551 0)
(-0.0699361 -0.0385534 0)
(-0.0138709 -0.0388209 0)
(0.0427951 -0.0381023 0)
(0.0975965 -0.0368587 0)
(0.15216 -0.0357066 0)
(0.206138 -0.0346528 0)
(0.259537 -0.033676 0)
(0.312379 -0.0327579 0)
(0.364666 -0.0318841 0)
(0.416387 -0.0310446 0)
(0.46752 -0.0302316 0)
(0.518041 -0.0294397 0)
(0.567921 -0.0286645 0)
(0.617128 -0.0279028 0)
(0.665628 -0.0271518 0)
(0.713387 -0.0264095 0)
(0.76037 -0.0256742 0)
(0.806542 -0.0249445 0)
(0.851866 -0.0242193 0)
(0.896309 -0.0234978 0)
(0.939834 -0.0227793 0)
(0.982409 -0.0220636 0)
(1.024 -0.02135 0)
(1.06457 -0.0206388 0)
(1.1041 -0.0199297 0)
(1.14256 -0.0192231 0)
(1.17991 -0.0185189 0)
(1.21613 -0.0178176 0)
(1.25121 -0.0171196 0)
(1.28511 -0.0164254 0)
(1.31782 -0.0157354 0)
(1.34933 -0.0150504 0)
(1.37961 -0.0143707 0)
(1.40866 -0.0136974 0)
(1.43647 -0.0130307 0)
(1.46304 -0.0123718 0)
(1.48835 -0.011721 0)
(1.51242 -0.0110796 0)
(1.53523 -0.0104477 0)
(1.55681 -0.00982688 0)
(1.57716 -0.00921732 0)
(1.59628 -0.00862048 0)
(1.6142 -0.00803675 0)
(1.63094 -0.00746771 0)
(1.64653 -0.00691383 0)
(1.66097 -0.00637692 0)
(1.67433 -0.00585759 0)
(1.68662 -0.00535797 0)
(1.69789 -0.00487888 0)
(1.70819 -0.00442283 0)
(1.71758 -0.00399098 0)
(1.72611 -0.00358629 0)
(1.73387 -0.00321025 0)
(1.74092 -0.00286628 0)
(1.74736 -0.00255614 0)
(1.75327 -0.0022834 0)
(1.75876 -0.0020497 0)
(1.76395 -0.00185812 0)
(1.76895 -0.00170921 0)
(1.77388 -0.00160421 0)
(1.77886 -0.00154111 0)
(1.784 -0.00151775 0)
(1.78941 -0.00152867 0)
(1.79519 -0.00156908 0)
(1.80142 -0.00163463 0)
(1.8082 -0.00172906 0)
(1.81567 -0.0018717 0)
(1.82412 -0.00211492 0)
(1.83404 -0.00256871 0)
(1.84641 -0.00344914 0)
(1.86294 -0.00514732 0)
(1.88728 -0.00847909 0)
(1.92162 -0.0151254 0)
(2.01244 -0.0301873 0)
(-0.0190359 0.00893206 0)
(-0.0426816 0.0501614 0)
(-0.0815536 0.071132 0)
(-0.127144 0.0799491 0)
(-0.176298 0.0836498 0)
(-0.227752 0.0853477 0)
(-0.280694 0.086193 0)
(-0.334679 0.0866185 0)
(-0.389506 0.0867938 0)
(-0.445098 0.0867826 0)
(-0.501433 0.0865991 0)
(-0.558485 0.0862272 0)
(-0.616104 0.0856645 0)
(-0.67373 0.0850781 0)
(-0.730534 0.0849931 0)
(-0.787261 0.0856217 0)
(-0.843413 0.0858103 0)
(-0.897738 0.0844628 0)
(-0.952175 0.0832382 0)
(-1.00783 0.0838012 0)
(-1.06265 0.0837334 0)
(-1.11554 0.0832352 0)
(-1.16725 0.0824438 0)
(-1.21824 0.0815406 0)
(-1.26864 0.0806067 0)
(-1.31853 0.0796716 0)
(-1.36792 0.0787408 0)
(-1.41683 0.0778089 0)
(-1.46525 0.0768663 0)
(-1.51316 0.0759024 0)
(-1.56056 0.0749067 0)
(-1.60741 0.0738698 0)
(-1.65368 0.0727829 0)
(-1.69934 0.0716386 0)
(-1.74433 0.0704305 0)
(-1.78862 0.0691531 0)
(-1.83215 0.067802 0)
(-1.87486 0.0663732 0)
(-1.91671 0.0648636 0)
(-1.95764 0.0632706 0)
(-1.99757 0.061592 0)
(-2.03646 0.059826 0)
(-2.07422 0.0579713 0)
(-2.11081 0.0560265 0)
(-2.14615 0.0539908 0)
(-2.18017 0.0518637 0)
(-2.2128 0.0496452 0)
(-2.24398 0.0473354 0)
(-2.27362 0.0449355 0)
(-2.30167 0.042447 0)
(-2.32804 0.0398725 0)
(-2.35267 0.0372153 0)
(-2.3755 0.0344799 0)
(-2.39645 0.0316718 0)
(-2.41547 0.0287976 0)
(-2.4325 0.0258653 0)
(-2.44749 0.0228837 0)
(-2.46039 0.019863 0)
(-2.47117 0.0168139 0)
(-2.47979 0.0137475 0)
(-2.48623 0.0106751 0)
(-2.49048 0.0076068 0)
(-2.49254 0.00454904 0)
(-2.49239 0.0015047 0)
(-2.49001 -0.00150063 0)
(-2.48552 -0.00442635 0)
(-2.47893 -0.00726661 0)
(-2.47028 -0.0100334 0)
(-2.4596 -0.012731 0)
(-2.44694 -0.015361 0)
(-2.43232 -0.0179235 0)
(-2.41579 -0.020418 0)
(-2.39739 -0.0228436 0)
(-2.37716 -0.0251997 0)
(-2.35513 -0.0274854 0)
(-2.33135 -0.0297 0)
(-2.30586 -0.0318428 0)
(-2.27871 -0.0339132 0)
(-2.24994 -0.0359104 0)
(-2.2196 -0.0378338 0)
(-2.18773 -0.0396825 0)
(-2.15439 -0.0414564 0)
(-2.11962 -0.0431555 0)
(-2.08347 -0.0447803 0)
(-2.04599 -0.0463316 0)
(-2.00723 -0.0478101 0)
(-1.96724 -0.0492165 0)
(-1.92606 -0.0505511 0)
(-1.88375 -0.0518144 0)
(-1.84036 -0.0530078 0)
(-1.79594 -0.054133 0)
(-1.75053 -0.0551921 0)
(-1.70417 -0.0561873 0)
(-1.65692 -0.0571195 0)
(-1.60883 -0.0579894 0)
(-1.55993 -0.0587986 0)
(-1.51027 -0.0595496 0)
(-1.45989 -0.0602459 0)
(-1.40884 -0.06089 0)
(-1.35715 -0.0614826 0)
(-1.30487 -0.0620238 0)
(-1.25202 -0.0625164 0)
(-1.19866 -0.0629647 0)
(-1.14482 -0.0633724 0)
(-1.09052 -0.0637382 0)
(-1.0358 -0.0640612 0)
(-0.980705 -0.0643458 0)
(-0.925258 -0.0646013 0)
(-0.869482 -0.064826 0)
(-0.81341 -0.0650115 0)
(-0.757081 -0.065164 0)
(-0.700514 -0.0652988 0)
(-0.643728 -0.0654089 0)
(-0.58676 -0.0654787 0)
(-0.529639 -0.0655346 0)
(-0.472374 -0.0655819 0)
(-0.414997 -0.0655862 0)
(-0.357537 -0.0655727 0)
(-0.300005 -0.0655717 0)
(-0.242442 -0.0655296 0)
(-0.184839 -0.0654611 0)
(-0.12723 -0.0654249 0)
(-0.0697388 -0.0653682 0)
(-0.0121645 -0.0652471 0)
(0.0454881 -0.0650703 0)
(0.102547 -0.0648696 0)
(0.159313 -0.0646982 0)
(0.215754 -0.0643991 0)
(0.271955 -0.0636103 0)
(0.327598 -0.062521 0)
(0.382833 -0.0614777 0)
(0.437561 -0.0604719 0)
(0.491752 -0.0594994 0)
(0.545385 -0.0585467 0)
(0.598439 -0.0576005 0)
(0.650889 -0.056651 0)
(0.702707 -0.0556911 0)
(0.753862 -0.0547159 0)
(0.804323 -0.0537218 0)
(0.854055 -0.0527064 0)
(0.903025 -0.0516681 0)
(0.951197 -0.0506059 0)
(0.998537 -0.0495191 0)
(1.04501 -0.0484076 0)
(1.09058 -0.0472716 0)
(1.13522 -0.0461114 0)
(1.17888 -0.0449279 0)
(1.22155 -0.043722 0)
(1.26319 -0.0424948 0)
(1.30376 -0.0412478 0)
(1.34325 -0.0399825 0)
(1.38163 -0.0387008 0)
(1.41887 -0.0374044 0)
(1.45495 -0.0360956 0)
(1.48986 -0.0347763 0)
(1.52357 -0.033449 0)
(1.55608 -0.032116 0)
(1.58737 -0.0307797 0)
(1.61743 -0.0294425 0)
(1.64626 -0.0281073 0)
(1.67385 -0.0267764 0)
(1.70021 -0.0254527 0)
(1.72533 -0.0241388 0)
(1.74922 -0.0228374 0)
(1.7719 -0.0215515 0)
(1.79338 -0.0202838 0)
(1.81367 -0.0190374 0)
(1.83279 -0.0178154 0)
(1.85076 -0.0166208 0)
(1.86763 -0.0154573 0)
(1.88341 -0.0143281 0)
(1.89815 -0.0132373 0)
(1.91189 -0.0121888 0)
(1.92468 -0.0111872 0)
(1.93657 -0.010237 0)
(1.94762 -0.00934381 0)
(1.9579 -0.00851294 0)
(1.96749 -0.00775092 0)
(1.97647 -0.00706392 0)
(1.98494 -0.0064593 0)
(1.99299 -0.00594371 0)
(2.00075 -0.00552464 0)
(2.00832 -0.0052081 0)
(2.01584 -0.00499998 0)
(2.02344 -0.00490333 0)
(2.03127 -0.0049196 0)
(2.03946 -0.00504582 0)
(2.04817 -0.00527658 0)
(2.05752 -0.0056029 0)
(2.06765 -0.00601775 0)
(2.0787 -0.00652136 0)
(2.09083 -0.00713666 0)
(2.10428 -0.00792975 0)
(2.11937 -0.00904585 0)
(2.13669 -0.0107582 0)
(2.15718 -0.0135556 0)
(2.18221 -0.0182551 0)
(2.21457 -0.0263741 0)
(2.25393 -0.0406443 0)
(2.32792 -0.0633256 0)
(-0.0307511 0.0468643 0)
(-0.0611684 0.0907565 0)
(-0.101593 0.115982 0)
(-0.146516 0.129187 0)
(-0.193961 0.136063 0)
(-0.243502 0.139869 0)
(-0.294569 0.142176 0)
(-0.346722 0.143735 0)
(-0.399688 0.144923 0)
(-0.453281 0.145947 0)
(-0.507339 0.146928 0)
(-0.561677 0.147922 0)
(-0.616019 0.148921 0)
(-0.6699 0.149847 0)
(-0.722842 0.1504 0)
(-0.775132 0.149942 0)
(-0.826647 0.148804 0)
(-0.87647 0.146534 0)
(-0.925643 0.14194 0)
(-0.97551 0.137678 0)
(-1.02521 0.134961 0)
(-1.07385 0.132864 0)
(-1.12167 0.130994 0)
(-1.16886 0.129243 0)
(-1.21551 0.127569 0)
(-1.26168 0.125945 0)
(-1.30738 0.124351 0)
(-1.35263 0.122766 0)
(-1.39742 0.121168 0)
(-1.44174 0.119538 0)
(-1.48557 0.11786 0)
(-1.52887 0.116118 0)
(-1.57162 0.114298 0)
(-1.61378 0.112388 0)
(-1.65531 0.110379 0)
(-1.69617 0.108262 0)
(-1.73629 0.10603 0)
(-1.77564 0.103677 0)
(-1.81416 0.101198 0)
(-1.8518 0.0985894 0)
(-1.88849 0.0958477 0)
(-1.92417 0.0929701 0)
(-1.95879 0.0899542 0)
(-1.99229 0.0867981 0)
(-2.02459 0.0835004 0)
(-2.05564 0.0800601 0)
(-2.08536 0.0764769 0)
(-2.11369 0.0727512 0)
(-2.14056 0.0688844 0)
(-2.1659 0.064879 0)
(-2.18965 0.0607388 0)
(-2.21173 0.0564689 0)
(-2.23209 0.0520764 0)
(-2.25064 0.0475698 0)
(-2.26735 0.0429598 0)
(-2.28214 0.0382586 0)
(-2.29496 0.0334807 0)
(-2.30578 0.0286419 0)
(-2.31454 0.0237592 0)
(-2.32122 0.0188505 0)
(-2.3258 0.013934 0)
(-2.32825 0.009026 0)
(-2.32857 0.00413864 0)
(-2.32675 -0.000712273 0)
(-2.32284 -0.00547182 0)
(-2.31688 -0.0100987 0)
(-2.30889 -0.0146005 0)
(-2.29892 -0.0189863 0)
(-2.287 -0.0232605 0)
(-2.27317 -0.027425 0)
(-2.25745 -0.0314796 0)
(-2.23988 -0.0354234 0)
(-2.22051 -0.039255 0)
(-2.19937 -0.0429733 0)
(-2.1765 -0.0465768 0)
(-2.15193 -0.0500646 0)
(-2.12572 -0.0534356 0)
(-2.09791 -0.056689 0)
(-2.06853 -0.0598236 0)
(-2.03763 -0.0628383 0)
(-2.00526 -0.0657318 0)
(-1.97146 -0.0685037 0)
(-1.93628 -0.0711542 0)
(-1.89977 -0.0736841 0)
(-1.86198 -0.0760946 0)
(-1.82295 -0.0783872 0)
(-1.78272 -0.080563 0)
(-1.74136 -0.0826224 0)
(-1.69889 -0.0845662 0)
(-1.65538 -0.0863962 0)
(-1.61087 -0.0881152 0)
(-1.56541 -0.0897268 0)
(-1.51903 -0.0912345 0)
(-1.47178 -0.0926399 0)
(-1.42372 -0.0939437 0)
(-1.37487 -0.0951482 0)
(-1.32529 -0.0962572 0)
(-1.27502 -0.097276 0)
(-1.22409 -0.0982094 0)
(-1.17254 -0.099058 0)
(-1.12042 -0.0998215 0)
(-1.06775 -0.100504 0)
(-1.01458 -0.101111 0)
(-0.960947 -0.101651 0)
(-0.90687 -0.102121 0)
(-0.852387 -0.102517 0)
(-0.797539 -0.102846 0)
(-0.742352 -0.103124 0)
(-0.686849 -0.103348 0)
(-0.631059 -0.103504 0)
(-0.575023 -0.1036 0)
(-0.518762 -0.10366 0)
(-0.462293 -0.103675 0)
(-0.405652 -0.103619 0)
(-0.348864 -0.103528 0)
(-0.291951 -0.103415 0)
(-0.234941 -0.103234 0)
(-0.177843 -0.103006 0)
(-0.120691 -0.102773 0)
(-0.0635633 -0.102496 0)
(-0.00632517 -0.102152 0)
(0.0508925 -0.101759 0)
(0.107782 -0.101328 0)
(0.164506 -0.100822 0)
(0.221053 -0.100176 0)
(0.277303 -0.0994479 0)
(0.333237 -0.0987158 0)
(0.388778 -0.0978919 0)
(0.443984 -0.0968331 0)
(0.498845 -0.0956107 0)
(0.55334 -0.0943673 0)
(0.607377 -0.0931199 0)
(0.660901 -0.0918673 0)
(0.713869 -0.0906008 0)
(0.766246 -0.0893106 0)
(0.817998 -0.0879885 0)
(0.869092 -0.0866283 0)
(0.919495 -0.0852256 0)
(0.969172 -0.0837775 0)
(1.01809 -0.0822821 0)
(1.06621 -0.0807383 0)
(1.11351 -0.079146 0)
(1.15994 -0.0775052 0)
(1.20547 -0.0758169 0)
(1.25008 -0.0740821 0)
(1.29372 -0.0723024 0)
(1.33637 -0.0704799 0)
(1.378 -0.0686166 0)
(1.41858 -0.0667152 0)
(1.45809 -0.0647785 0)
(1.49649 -0.0628096 0)
(1.53378 -0.0608118 0)
(1.56992 -0.0587887 0)
(1.6049 -0.056744 0)
(1.63871 -0.0546816 0)
(1.67133 -0.0526055 0)
(1.70276 -0.05052 0)
(1.73298 -0.0484293 0)
(1.762 -0.0463377 0)
(1.78981 -0.0442498 0)
(1.81641 -0.0421701 0)
(1.84181 -0.0401033 0)
(1.86602 -0.0380539 0)
(1.88905 -0.0360268 0)
(1.91092 -0.0340269 0)
(1.93164 -0.0320593 0)
(1.95123 -0.0301289 0)
(1.96973 -0.0282412 0)
(1.98717 -0.0264017 0)
(2.00358 -0.0246164 0)
(2.019 -0.0228912 0)
(2.03347 -0.021233 0)
(2.04705 -0.0196486 0)
(2.05979 -0.0181458 0)
(2.07176 -0.0167328 0)
(2.08302 -0.0154186 0)
(2.09365 -0.0142126 0)
(2.10374 -0.0131255 0)
(2.11338 -0.0121681 0)
(2.12267 -0.0113523 0)
(2.13173 -0.0106894 0)
(2.14067 -0.0101916 0)
(2.14963 -0.00986904 0)
(2.15874 -0.00973126 0)
(2.16815 -0.00978395 0)
(2.17803 -0.0100299 0)
(2.18851 -0.0104662 0)
(2.19977 -0.0110865 0)
(2.21197 -0.011881 0)
(2.22526 -0.0128444 0)
(2.23982 -0.013986 0)
(2.25586 -0.015352 0)
(2.27364 -0.0170553 0)
(2.29353 -0.0193234 0)
(2.31607 -0.0225586 0)
(2.34209 -0.0274333 0)
(2.37257 -0.0349798 0)
(2.40945 -0.0469033 0)
(2.45026 -0.0651451 0)
(2.516 -0.0901923 0)
(-0.034611 0.0924221 0)
(-0.0692725 0.135444 0)
(-0.111602 0.16136 0)
(-0.156594 0.176666 0)
(-0.202811 0.185574 0)
(-0.250457 0.190886 0)
(-0.299281 0.194215 0)
(-0.348944 0.196433 0)
(-0.399173 0.198004 0)
(-0.449726 0.199166 0)
(-0.500366 0.20003 0)
(-0.550837 0.200605 0)
(-0.600847 0.200829 0)
(-0.650068 0.200578 0)
(-0.69828 0.199638 0)
(-0.745641 0.197765 0)
(-0.792272 0.195266 0)
(-0.83797 0.192239 0)
(-0.883141 0.188176 0)
(-0.928371 0.184017 0)
(-0.973413 0.180608 0)
(-1.0179 0.177698 0)
(-1.06184 0.175087 0)
(-1.10529 0.17267 0)
(-1.14829 0.170383 0)
(-1.19087 0.168179 0)
(-1.23303 0.16602 0)
(-1.27479 0.163872 0)
(-1.31612 0.161707 0)
(-1.35702 0.159497 0)
(-1.39746 0.15722 0)
(-1.43741 0.154853 0)
(-1.47684 0.15238 0)
(-1.51571 0.149785 0)
(-1.55398 0.147055 0)
(-1.5916 0.144179 0)
(-1.62853 0.141148 0)
(-1.66472 0.137953 0)
(-1.70011 0.13459 0)
(-1.73466 0.131053 0)
(-1.7683 0.127336 0)
(-1.80099 0.123437 0)
(-1.83266 0.119353 0)
(-1.86325 0.11508 0)
(-1.89271 0.110616 0)
(-1.92097 0.10596 0)
(-1.94796 0.101111 0)
(-1.97363 0.0960692 0)
(-1.99791 0.0908357 0)
(-2.02072 0.0854135 0)
(-2.04201 0.0798072 0)
(-2.06171 0.0740233 0)
(-2.07975 0.0680707 0)
(-2.09608 0.0619607 0)
(-2.11062 0.0557071 0)
(-2.12332 0.0493266 0)
(-2.13413 0.0428381 0)
(-2.143 0.0362633 0)
(-2.14989 0.0296254 0)
(-2.15477 0.0229492 0)
(-2.15761 0.0162598 0)
(-2.15841 0.00957983 0)
(-2.15714 0.00292707 0)
(-2.15379 -0.00365327 0)
(-2.14847 -0.0100927 0)
(-2.14117 -0.0163635 0)
(-2.13194 -0.0224716 0)
(-2.1208 -0.0284247 0)
(-2.10778 -0.0342276 0)
(-2.09292 -0.0398821 0)
(-2.07625 -0.0453878 0)
(-2.0578 -0.0507433 0)
(-2.03762 -0.0559465 0)
(-2.01574 -0.0609956 0)
(-1.99219 -0.0658889 0)
(-1.96701 -0.070625 0)
(-1.94026 -0.0752026 0)
(-1.91196 -0.0796205 0)
(-1.88215 -0.0838775 0)
(-1.85089 -0.0879718 0)
(-1.81821 -0.0919016 0)
(-1.78416 -0.0956662 0)
(-1.74878 -0.0992656 0)
(-1.71212 -0.102701 0)
(-1.67423 -0.105975 0)
(-1.63515 -0.109088 0)
(-1.59493 -0.112044 0)
(-1.55361 -0.114841 0)
(-1.51124 -0.117482 0)
(-1.46785 -0.119967 0)
(-1.42351 -0.122302 0)
(-1.37825 -0.12449 0)
(-1.33212 -0.126538 0)
(-1.28516 -0.128448 0)
(-1.23741 -0.13022 0)
(-1.1889 -0.131856 0)
(-1.1397 -0.133361 0)
(-1.08983 -0.134744 0)
(-1.03933 -0.136012 0)
(-0.988235 -0.137164 0)
(-0.936587 -0.138201 0)
(-0.884422 -0.139125 0)
(-0.831778 -0.139947 0)
(-0.778685 -0.140678 0)
(-0.72517 -0.141314 0)
(-0.671266 -0.141848 0)
(-0.617015 -0.142288 0)
(-0.562443 -0.142659 0)
(-0.50757 -0.142959 0)
(-0.452424 -0.143163 0)
(-0.397046 -0.143282 0)
(-0.341454 -0.143351 0)
(-0.285676 -0.143362 0)
(-0.229738 -0.143276 0)
(-0.173647 -0.143134 0)
(-0.117464 -0.142959 0)
(-0.0612192 -0.142711 0)
(-0.00483696 -0.142388 0)
(0.0515729 -0.142002 0)
(0.107804 -0.141561 0)
(0.163961 -0.141037 0)
(0.220003 -0.140401 0)
(0.275843 -0.139686 0)
(0.331471 -0.138889 0)
(0.386867 -0.13796 0)
(0.442 -0.136928 0)
(0.496816 -0.13584 0)
(0.551241 -0.134634 0)
(0.605308 -0.133223 0)
(0.659044 -0.131649 0)
(0.712414 -0.130004 0)
(0.765339 -0.128315 0)
(0.81776 -0.126588 0)
(0.869626 -0.124821 0)
(0.920894 -0.123009 0)
(0.971526 -0.121143 0)
(1.02148 -0.119221 0)
(1.07073 -0.117237 0)
(1.11923 -0.115188 0)
(1.16695 -0.113074 0)
(1.21386 -0.110893 0)
(1.25992 -0.108646 0)
(1.3051 -0.106334 0)
(1.34936 -0.103958 0)
(1.39268 -0.10152 0)
(1.43503 -0.0990227 0)
(1.47637 -0.096469 0)
(1.51668 -0.0938625 0)
(1.55593 -0.0912068 0)
(1.59411 -0.0885063 0)
(1.63118 -0.0857655 0)
(1.66714 -0.0829891 0)
(1.70196 -0.0801823 0)
(1.73563 -0.0773504 0)
(1.76814 -0.0744991 0)
(1.79949 -0.071634 0)
(1.82965 -0.0687611 0)
(1.85864 -0.0658866 0)
(1.88646 -0.0630164 0)
(1.9131 -0.0601571 0)
(1.93858 -0.0573149 0)
(1.96289 -0.0544964 0)
(1.98607 -0.0517082 0)
(2.00812 -0.0489572 0)
(2.02907 -0.0462501 0)
(2.04893 -0.043594 0)
(2.06774 -0.0409963 0)
(2.08553 -0.0384645 0)
(2.10234 -0.0360063 0)
(2.11821 -0.0336303 0)
(2.13318 -0.0313451 0)
(2.14731 -0.0291601 0)
(2.16064 -0.0270852 0)
(2.17326 -0.0251313 0)
(2.18521 -0.02331 0)
(2.19659 -0.021634 0)
(2.20747 -0.0201166 0)
(2.21794 -0.0187727 0)
(2.22811 -0.0176174 0)
(2.23809 -0.0166673 0)
(2.24798 -0.0159385 0)
(2.25793 -0.0154476 0)
(2.26807 -0.0152092 0)
(2.27854 -0.0152367 0)
(2.28951 -0.015539 0)
(2.30113 -0.0161211 0)
(2.31357 -0.0169816 0)
(2.32702 -0.0181147 0)
(2.34165 -0.0195123 0)
(2.35764 -0.021173 0)
(2.3752 -0.0231167 0)
(2.39456 -0.0254113 0)
(2.416 -0.0282097 0)
(2.43988 -0.0318029 0)
(2.46668 -0.0366816 0)
(2.49705 -0.0436218 0)
(2.53158 -0.0537207 0)
(2.57156 -0.0685871 0)
(2.61319 -0.0892648 0)
(2.67551 -0.114466 0)
(-0.0354244 0.140899 0)
(-0.072112 0.18154 0)
(-0.115484 0.206304 0)
(-0.160226 0.222099 0)
(-0.205152 0.232007 0)
(-0.250784 0.238222 0)
(-0.297096 0.242184 0)
(-0.343862 0.244754 0)
(-0.390843 0.246415 0)
(-0.437804 0.247422 0)
(-0.484507 0.247886 0)
(-0.530719 0.247826 0)
(-0.576218 0.247196 0)
(-0.62082 0.245907 0)
(-0.664463 0.243849 0)
(-0.707297 0.240973 0)
(-0.749491 0.237511 0)
(-0.791083 0.233676 0)
(-0.832298 0.229426 0)
(-0.873406 0.22517 0)
(-0.914321 0.221326 0)
(-0.954873 0.217865 0)
(-0.995035 0.214698 0)
(-1.03481 0.211748 0)
(-1.07422 0.208949 0)
(-1.11327 0.206246 0)
(-1.15195 0.203593 0)
(-1.19026 0.200948 0)
(-1.22819 0.198274 0)
(-1.26571 0.195539 0)
(-1.30281 0.192715 0)
(-1.33943 0.189776 0)
(-1.37556 0.186701 0)
(-1.41116 0.183471 0)
(-1.44617 0.180071 0)
(-1.48057 0.176489 0)
(-1.51429 0.172713 0)
(-1.5473 0.168734 0)
(-1.57955 0.164545 0)
(-1.61098 0.16014 0)
(-1.64154 0.155514 0)
(-1.67118 0.150662 0)
(-1.69984 0.14558 0)
(-1.72747 0.140264 0)
(-1.75401 0.134713 0)
(-1.7794 0.128923 0)
(-1.80358 0.122893 0)
(-1.8265 0.116622 0)
(-1.84808 0.110112 0)
(-1.86826 0.103366 0)
(-1.88698 0.096388 0)
(-1.90418 0.0891863 0)
(-1.91979 0.0817712 0)
(-1.93375 0.0741559 0)
(-1.946 0.0663574 0)
(-1.95648 0.0583959 0)
(-1.96515 0.0502951 0)
(-1.97194 0.0420821 0)
(-1.97683 0.0337862 0)
(-1.97977 0.0254392 0)
(-1.98075 0.0170732 0)
(-1.97976 0.00871763 0)
(-1.97676 0.000400079 0)
(-1.9718 -0.00780063 0)
(-1.96496 -0.0158098 0)
(-1.95623 -0.0236187 0)
(-1.94565 -0.0312315 0)
(-1.93326 -0.0386544 0)
(-1.91907 -0.0458916 0)
(-1.90311 -0.0529446 0)
(-1.88543 -0.0598125 0)
(-1.86606 -0.066493 0)
(-1.84502 -0.0729835 0)
(-1.82235 -0.0792815 0)
(-1.79809 -0.0853848 0)
(-1.77228 -0.0912916 0)
(-1.74496 -0.0970005 0)
(-1.71617 -0.10251 0)
(-1.68594 -0.107819 0)
(-1.65432 -0.112926 0)
(-1.62135 -0.117826 0)
(-1.58707 -0.12252 0)
(-1.55153 -0.127008 0)
(-1.51477 -0.131291 0)
(-1.47683 -0.135371 0)
(-1.43776 -0.139252 0)
(-1.39761 -0.142937 0)
(-1.3564 -0.146424 0)
(-1.3142 -0.149715 0)
(-1.27104 -0.152813 0)
(-1.22697 -0.155721 0)
(-1.18203 -0.158447 0)
(-1.13626 -0.160998 0)
(-1.0897 -0.163378 0)
(-1.04239 -0.165585 0)
(-0.994373 -0.167622 0)
(-0.945687 -0.169495 0)
(-0.896375 -0.171215 0)
(-0.846468 -0.172793 0)
(-0.796001 -0.174228 0)
(-0.745006 -0.175516 0)
(-0.693526 -0.176663 0)
(-0.641594 -0.177683 0)
(-0.58924 -0.178589 0)
(-0.53649 -0.179379 0)
(-0.483373 -0.18004 0)
(-0.429932 -0.180579 0)
(-0.376186 -0.181033 0)
(-0.322169 -0.181401 0)
(-0.267897 -0.18165 0)
(-0.21341 -0.181788 0)
(-0.158707 -0.181861 0)
(-0.103868 -0.181862 0)
(-0.0488936 -0.18176 0)
(0.00629346 -0.181568 0)
(0.0614976 -0.181296 0)
(0.116663 -0.180949 0)
(0.171829 -0.180508 0)
(0.226957 -0.179952 0)
(0.281979 -0.179307 0)
(0.336882 -0.178569 0)
(0.391636 -0.177703 0)
(0.446202 -0.17673 0)
(0.500544 -0.175649 0)
(0.554634 -0.17443 0)
(0.608454 -0.173089 0)
(0.661954 -0.171648 0)
(0.715076 -0.17007 0)
(0.767827 -0.168301 0)
(0.820224 -0.166364 0)
(0.872235 -0.164319 0)
(0.923798 -0.162192 0)
(0.974856 -0.159996 0)
(1.02536 -0.157732 0)
(1.07526 -0.155398 0)
(1.12451 -0.15299 0)
(1.17308 -0.150504 0)
(1.22094 -0.147938 0)
(1.26803 -0.145289 0)
(1.31433 -0.142557 0)
(1.35981 -0.139741 0)
(1.40443 -0.136842 0)
(1.44816 -0.133863 0)
(1.49097 -0.130805 0)
(1.53282 -0.127671 0)
(1.5737 -0.124465 0)
(1.61357 -0.121191 0)
(1.6524 -0.117854 0)
(1.69019 -0.114459 0)
(1.7269 -0.111012 0)
(1.76252 -0.107518 0)
(1.79704 -0.103984 0)
(1.83043 -0.100417 0)
(1.86269 -0.0968235 0)
(1.89381 -0.093211 0)
(1.92379 -0.089587 0)
(1.95263 -0.0859591 0)
(1.98032 -0.0823352 0)
(2.00687 -0.0787234 0)
(2.03229 -0.0751318 0)
(2.05659 -0.0715687 0)
(2.07979 -0.0680426 0)
(2.1019 -0.0645618 0)
(2.12294 -0.0611353 0)
(2.14294 -0.0577718 0)
(2.16193 -0.0544805 0)
(2.17994 -0.0512708 0)
(2.19702 -0.0481526 0)
(2.21319 -0.0451359 0)
(2.22851 -0.0422315 0)
(2.24303 -0.0394506 0)
(2.2568 -0.0368054 0)
(2.26989 -0.0343087 0)
(2.28236 -0.0319746 0)
(2.2943 -0.0298177 0)
(2.30577 -0.0278545 0)
(2.31687 -0.0261021 0)
(2.3277 -0.0245795 0)
(2.33836 -0.0233059 0)
(2.34896 -0.0223025 0)
(2.35963 -0.0215899 0)
(2.3705 -0.0211894 0)
(2.38171 -0.0211201 0)
(2.39342 -0.0213995 0)
(2.40579 -0.0220404 0)
(2.41899 -0.023051 0)
(2.43321 -0.0244326 0)
(2.44861 -0.0261821 0)
(2.46542 -0.0282944 0)
(2.48382 -0.0307738 0)
(2.50404 -0.0336499 0)
(2.52634 -0.0370081 0)
(2.55098 -0.0410291 0)
(2.57831 -0.0460429 0)
(2.60871 -0.0525842 0)
(2.64265 -0.0614568 0)
(2.68036 -0.073708 0)
(2.72268 -0.0907017 0)
(2.76498 -0.112643 0)
(2.82611 -0.137219 0)
(-0.0348158 0.189122 0)
(-0.0720086 0.227256 0)
(-0.115427 0.250178 0)
(-0.159314 0.265495 0)
(-0.202644 0.275574 0)
(-0.246042 0.282081 0)
(-0.289611 0.286221 0)
(-0.333221 0.288774 0)
(-0.376687 0.290204 0)
(-0.419817 0.290769 0)
(-0.462422 0.290598 0)
(-0.504336 0.289739 0)
(-0.545428 0.288189 0)
(-0.585628 0.285929 0)
(-0.624966 0.282939 0)
(-0.66359 0.279272 0)
(-0.701668 0.275123 0)
(-0.739297 0.270701 0)
(-0.77663 0.266112 0)
(-0.813814 0.261601 0)
(-0.850821 0.257399 0)
(-0.887565 0.253521 0)
(-0.924015 0.249922 0)
(-0.96016 0.24654 0)
(-0.995997 0.243311 0)
(-1.03152 0.240179 0)
(-1.06672 0.237092 0)
(-1.10158 0.234003 0)
(-1.13608 0.23087 0)
(-1.1702 0.227656 0)
(-1.2039 0.224328 0)
(-1.23716 0.220859 0)
(-1.26993 0.217223 0)
(-1.30218 0.213401 0)
(-1.33387 0.209374 0)
(-1.36494 0.20513 0)
(-1.39537 0.200655 0)
(-1.42509 0.195939 0)
(-1.45406 0.190976 0)
(-1.48224 0.185758 0)
(-1.50957 0.180279 0)
(-1.53601 0.174535 0)
(-1.56151 0.168521 0)
(-1.586 0.162232 0)
(-1.60944 0.155667 0)
(-1.63178 0.14882 0)
(-1.65296 0.14169 0)
(-1.67292 0.134276 0)
(-1.6916 0.126578 0)
(-1.70894 0.1186 0)
(-1.72488 0.110345 0)
(-1.73935 0.101823 0)
(-1.75231 0.093045 0)
(-1.76368 0.0840258 0)
(-1.77342 0.074785 0)
(-1.78145 0.0653462 0)
(-1.78774 0.0557376 0)
(-1.79223 0.0459913 0)
(-1.79488 0.036143 0)
(-1.79567 0.0262309 0)
(-1.79457 0.0162939 0)
(-1.79157 0.0063669 0)
(-1.78663 -0.00349179 0)
(-1.77989 -0.0131796 0)
(-1.77134 -0.0226383 0)
(-1.76102 -0.0318676 0)
(-1.74895 -0.0408706 0)
(-1.73514 -0.0496523 0)
(-1.71965 -0.0582161 0)
(-1.70247 -0.0665628 0)
(-1.68366 -0.0746907 0)
(-1.66324 -0.0825965 0)
(-1.64124 -0.0902767 0)
(-1.6177 -0.0977282 0)
(-1.59265 -0.104948 0)
(-1.56614 -0.111935 0)
(-1.53819 -0.118687 0)
(-1.50885 -0.125202 0)
(-1.47815 -0.13148 0)
(-1.44614 -0.137518 0)
(-1.41285 -0.143311 0)
(-1.37832 -0.148859 0)
(-1.34261 -0.154161 0)
(-1.30574 -0.15922 0)
(-1.26777 -0.164039 0)
(-1.22874 -0.168622 0)
(-1.18868 -0.172972 0)
(-1.14763 -0.177089 0)
(-1.10565 -0.180973 0)
(-1.06277 -0.184627 0)
(-1.01903 -0.188056 0)
(-0.974477 -0.191267 0)
(-0.929151 -0.194274 0)
(-0.883086 -0.197078 0)
(-0.836318 -0.199678 0)
(-0.788889 -0.202075 0)
(-0.740838 -0.204277 0)
(-0.692203 -0.206296 0)
(-0.643016 -0.208149 0)
(-0.593308 -0.209835 0)
(-0.54311 -0.211346 0)
(-0.492462 -0.212686 0)
(-0.441396 -0.213874 0)
(-0.389939 -0.214932 0)
(-0.338122 -0.215852 0)
(-0.285966 -0.216619 0)
(-0.233516 -0.21724 0)
(-0.180762 -0.217756 0)
(-0.127794 -0.218169 0)
(-0.0745994 -0.21845 0)
(-0.0212045 -0.21861 0)
(0.0324605 -0.21866 0)
(0.0861225 -0.218606 0)
(0.139871 -0.218456 0)
(0.193694 -0.218187 0)
(0.247537 -0.217791 0)
(0.301363 -0.217298 0)
(0.355147 -0.216699 0)
(0.408862 -0.215969 0)
(0.462473 -0.215123 0)
(0.515944 -0.214161 0)
(0.569249 -0.213059 0)
(0.622357 -0.211827 0)
(0.675231 -0.210464 0)
(0.727844 -0.208951 0)
(0.780173 -0.207297 0)
(0.832175 -0.205512 0)
(0.883806 -0.203574 0)
(0.935058 -0.201451 0)
(0.985931 -0.199156 0)
(1.0364 -0.196725 0)
(1.0864 -0.194181 0)
(1.1359 -0.191537 0)
(1.18484 -0.188798 0)
(1.23318 -0.185963 0)
(1.28087 -0.183032 0)
(1.32787 -0.180003 0)
(1.37415 -0.176873 0)
(1.41966 -0.173643 0)
(1.46438 -0.170311 0)
(1.50827 -0.16688 0)
(1.5513 -0.163351 0)
(1.59344 -0.159725 0)
(1.63465 -0.156008 0)
(1.67492 -0.152202 0)
(1.7142 -0.148313 0)
(1.75249 -0.144345 0)
(1.78976 -0.140306 0)
(1.82598 -0.136201 0)
(1.86114 -0.132038 0)
(1.89522 -0.127824 0)
(1.92822 -0.123567 0)
(1.96012 -0.119276 0)
(1.99091 -0.114959 0)
(2.0206 -0.110625 0)
(2.04917 -0.106284 0)
(2.07663 -0.101945 0)
(2.10299 -0.0976171 0)
(2.12825 -0.093311 0)
(2.15243 -0.0890364 0)
(2.17555 -0.0848034 0)
(2.19761 -0.0806224 0)
(2.21864 -0.0765037 0)
(2.23868 -0.0724581 0)
(2.25774 -0.0684963 0)
(2.27586 -0.0646296 0)
(2.29308 -0.0608694 0)
(2.30944 -0.0572278 0)
(2.32499 -0.053717 0)
(2.33977 -0.0503502 0)
(2.35385 -0.047141 0)
(2.36729 -0.0441044 0)
(2.38014 -0.0412558 0)
(2.39248 -0.0386122 0)
(2.4044 -0.0361915 0)
(2.41597 -0.0340136 0)
(2.42729 -0.0320992 0)
(2.43845 -0.0304709 0)
(2.44957 -0.0291524 0)
(2.46076 -0.0281689 0)
(2.47216 -0.0275455 0)
(2.48388 -0.0273079 0)
(2.49609 -0.0274799 0)
(2.50893 -0.0280836 0)
(2.52258 -0.0291359 0)
(2.53721 -0.0306493 0)
(2.55301 -0.032629 0)
(2.57017 -0.0350761 0)
(2.58891 -0.0379898 0)
(2.60946 -0.0413803 0)
(2.63203 -0.0452852 0)
(2.6569 -0.0498013 0)
(2.68432 -0.0551238 0)
(2.7146 -0.0615978 0)
(2.74803 -0.0697626 0)
(2.7849 -0.0803938 0)
(2.82513 -0.0944197 0)
(2.86927 -0.112918 0)
(2.91212 -0.135419 0)
(2.97303 -0.15913 0)
(-0.0334388 0.235449 0)
(-0.0701122 0.271355 0)
(-0.112737 0.292231 0)
(-0.15518 0.306505 0)
(-0.196561 0.316144 0)
(-0.237489 0.322421 0)
(-0.27813 0.326315 0)
(-0.318427 0.328504 0)
(-0.358262 0.32942 0)
(-0.397501 0.329322 0)
(-0.436022 0.328361 0)
(-0.473735 0.32662 0)
(-0.51059 0.32415 0)
(-0.546595 0.32099 0)
(-0.581831 0.317195 0)
(-0.616444 0.312866 0)
(-0.650586 0.308181 0)
(-0.684366 0.303322 0)
(-0.717899 0.298425 0)
(-0.751276 0.293658 0)
(-0.784491 0.28916 0)
(-0.817502 0.284954 0)
(-0.85028 0.281007 0)
(-0.882807 0.277267 0)
(-0.91507 0.273673 0)
(-0.947053 0.270167 0)
(-0.978738 0.266694 0)
(-1.0101 0.263203 0)
(-1.04112 0.259649 0)
(-1.07177 0.25599 0)
(-1.10201 0.252191 0)
(-1.1318 0.248222 0)
(-1.16111 0.244056 0)
(-1.1899 0.239671 0)
(-1.21813 0.235049 0)
(-1.24575 0.230175 0)
(-1.27271 0.225036 0)
(-1.29898 0.219621 0)
(-1.32451 0.213923 0)
(-1.34926 0.207935 0)
(-1.37317 0.201651 0)
(-1.3962 0.195066 0)
(-1.41831 0.188175 0)
(-1.43944 0.180974 0)
(-1.45956 0.173457 0)
(-1.4786 0.165623 0)
(-1.49653 0.157466 0)
(-1.51328 0.148985 0)
(-1.5288 0.140181 0)
(-1.54303 0.131055 0)
(-1.55592 0.121612 0)
(-1.56741 0.111861 0)
(-1.57744 0.101813 0)
(-1.58596 0.0914864 0)
(-1.5929 0.0809014 0)
(-1.59822 0.0700852 0)
(-1.60186 0.0590699 0)
(-1.60378 0.0478927 0)
(-1.60394 0.0365956 0)
(-1.60231 0.0252236 0)
(-1.59888 0.0138217 0)
(-1.59362 0.00243081 0)
(-1.58654 -0.00883966 0)
(-1.57779 -0.0198771 0)
(-1.56734 -0.0306616 0)
(-1.55524 -0.0411912 0)
(-1.54149 -0.0514679 0)
(-1.52612 -0.061495 0)
(-1.50916 -0.0712751 0)
(-1.49062 -0.0808084 0)