/*--------------------------------*- C++ -*----------------------------------*\
  =========                 |
  \\      /  F ield         | OpenFOAM: The Open Source CFD Toolbox
   \\    /   O peration     | Website:  https://openfoam.org
    \\  /    A nd           | Version:  7
     \\/     M anipulation  |
\*---------------------------------------------------------------------------*/
FoamFile
{
    version     2.0;
    format      ascii;
    class       volScalarField;
    location    "600";
    object      epsilon;
}
// * * * * * * * * * * * * * * * * * * * * * * * * * * * * * * * * * * * * * //

dimensions      [0 2 -3 0 0 0 0];

internalField   nonuniform List<scalar> 
4500
(
789.607
724.717
675.056
641.444
616.337
596.999
581.733
569.399
559.236
550.727
543.512
537.331
531.994
527.355
523.302
519.746
516.618
513.86
511.426
509.275
507.376
505.702
504.228
502.934
501.803
500.821
499.973
499.247
498.635
498.126
497.712
497.386
497.141
496.972
496.873
496.839
496.865
496.947
497.082
497.265
497.495
497.767
498.08
498.429
498.814
499.231
499.679
500.154
500.655
501.18
501.725
502.29
502.87
503.464
504.07
504.684
505.304
505.928
506.553
507.177
507.798
508.413
509.02
509.618
510.205
510.78
511.34
511.886
512.415
512.927
513.421
513.897
514.352
514.786
515.19
180.467
258.6
265.807
255.427
244.809
236.24
229.47
224.046
219.618
215.941
212.845
210.208
207.941
205.978
204.268
202.77
201.455
200.297
199.274
198.371
197.573
196.869
196.248
195.702
195.223
194.804
194.442
194.129
193.863
193.64
193.455
193.306
193.19
193.105
193.048
193.018
193.012
193.028
193.065
193.122
193.199
193.292
193.402
193.527
193.666
193.818
193.983
194.159
194.346
194.542
194.747
194.961
195.181
195.408
195.64
195.877
196.117
196.359
196.603
196.847
197.091
197.333
197.574
197.81
198.043
198.271
198.494
198.71
198.92
199.122
199.317
199.504
199.682
199.85
200.007
52.4732
112.464
134.457
135.922
132.522
128.669
125.265
122.401
120.007
117.993
116.284
114.823
113.562
112.469
111.515
110.679
109.944
109.296
108.724
108.219
107.772
107.376
107.028
106.72
106.451
106.215
106.01
105.833
105.682
105.554
105.448
105.361
105.293
105.242
105.207
105.187
105.18
105.185
105.202
105.229
105.268
105.316
105.372
105.438
105.511
105.592
105.679
105.773
105.872
105.978
106.088
106.202
106.321
106.443
106.567
106.694
106.823
106.952
107.082
107.212
107.341
107.469
107.595
107.719
107.84
107.958
108.072
108.183
108.289
108.391
108.489
108.582
108.671
108.755
108.832
18.9423
52.8112
76.111
83.4465
84.1244
82.8547
81.1903
79.5846
78.1513
76.9017
75.8187
74.8793
74.0618
73.3479
72.7222
72.1719
71.6868
71.2581
70.8788
70.5429
70.2455
69.9822
69.7494
69.544
69.3633
69.205
69.067
68.9476
68.8451
68.7581
68.6854
68.6259
68.5785
68.5424
68.5167
68.5007
68.4936
68.4945
68.503
68.5188
68.5415
68.5706
68.6056
68.6462
68.692
68.7428
68.798
68.8575
68.9209
68.9878
69.058
69.131
69.2064
69.284
69.3631
69.4434
69.5245
69.6058
69.687
69.7675
69.8471
69.9253
70.0019
70.0764
70.1487
70.2186
70.2859
70.3505
70.4123
70.4712
70.5273
70.5805
70.6309
70.6784
70.7222
8.1872
25.0217
43.8942
53.7537
57.1337
57.7145
57.2786
56.5262
55.7185
54.9491
54.2478
53.6201
53.0624
52.5681
52.1302
51.742
51.3976
51.0917
50.82
50.5786
50.3641
50.1737
50.005
49.8557
49.7242
49.6086
49.5076
49.4199
49.3443
49.28
49.226
49.1814
49.1457
49.118
49.0979
49.0847
49.0781
49.0773
49.0819
49.0917
49.1064
49.1258
49.1495
49.1773
49.2089
49.2439
49.2823
49.3237
49.3679
49.4146
49.4635
49.5143
49.5668
49.6205
49.6751
49.7302
49.7855
49.8406
49.8952
49.9489
50.0015
50.0527
50.1023
50.1502
50.1961
50.2402
50.2822
50.3222
50.3603
50.3964
50.4306
50.463
50.4937
50.5228
50.5499
4.2188
11.9892
24.7098
34.5695
39.5749
41.5705
42.1325
42.0729
41.7614
41.3618
40.9462
40.5459
40.1736
39.8334
39.5253
39.2478
38.9985
38.7751
38.575
38.3962
38.2364
38.094
37.9673
37.8548
37.7554
37.6677
37.5909
37.524
37.4662
37.4168
37.3752
37.3407
37.3128
37.2911
37.275
37.2642
37.2584
37.257
37.2597
37.2663
37.2767
37.2905
37.3077
37.3279
37.351
37.3768
37.405
37.4356
37.4681
37.5025
37.5385
37.5758
37.6141
37.6531
37.6926
37.7322
37.7715
37.8104
37.8485
37.8857
37.9217
37.9563
37.9894
38.0211
38.0512
38.0797
38.1067
38.1322
38.1564
38.1793
38.201
38.2216
38.2413
38.2602
38.2782
2.53586
6.06763
13.4269
21.5411
27.1065
30.0891
31.4755
32.0206
32.1462
32.069
31.8979
31.6884
31.4685
31.2526
31.0476
30.8568
30.6813
30.521
30.3754
30.2438
30.1251
30.0186
29.9231
29.838
29.7624
29.6955
29.6366
29.5852
29.5407
29.5025
29.4703
29.4435
29.4217
29.4047
29.3921
29.3836
29.3789
29.3778
29.3797
29.3847
29.3925
29.4031
29.4162
29.4317
29.4495
29.4693
29.491
29.5145
29.5394
29.5657
29.5932
29.6214
29.6503
29.6796
29.7089
29.7381
29.7668
29.7949
29.8221
29.8483
29.8734
29.8972
29.9198
29.941
29.961
29.9797
29.9974
30.014
30.0297
30.0446
30.0589
30.0727
30.0861
30.0993
30.1123
1.72014
3.39495
7.19137
12.8165
17.9493
21.4137
23.4192
24.4852
25.0083
25.2292
25.2842
25.2494
25.1674
25.0624
24.9482
24.8326
24.7203
24.6137
24.514
24.4218
24.3374
24.2604
24.1908
24.1281
24.072
24.0221
23.9779
23.9393
23.9057
23.8769
23.8525
23.8323
23.8159
23.8032
23.7938
23.7877
23.7844
23.784
23.786
23.7903
23.7968
23.8055
23.8161
23.8287
23.8429
23.8588
23.8761
23.8948
23.9145
23.9352
23.9567
23.9787
24.001
24.0234
24.0457
24.0676
24.089
24.1096
24.1293
24.1481
24.1657
24.1823
24.1978
24.2122
24.2256
24.2381
24.2498
24.2609
24.2714
24.2816
24.2915
24.3012
24.311
24.3209
24.3312
1.27853
2.13151
3.97937
7.32524
11.3239
14.7132
17.0625
18.5327
19.4051
19.9031
20.1732
20.3058
20.3557
20.3562
20.3275
20.2824
20.2286
20.1713
20.1134
20.057
20.0032
19.9528
19.9061
19.8633
19.8246
19.7897
19.7587
19.7314
19.7076
19.6872
19.67
19.6558
19.6445
19.6359
19.6298
19.6261
19.6247
19.6254
19.6281
19.6325
19.6386
19.6463
19.6555
19.6662
19.6782
19.6914
19.7058
19.7211
19.7372
19.754
19.7712
19.7888
19.8064
19.8239
19.8411
19.8578
19.874
19.8893
19.9038
19.9174
19.93
19.9417
19.9524
19.9623
19.9714
19.9799
19.9879
19.9955
20.0029
20.0102
20.0175
20.025
20.0327
20.0409
20.0498
1.01869
1.48311
2.38188
4.15478
6.80161
9.62717
11.9836
13.6873
14.8322
15.5744
16.0458
16.3399
16.5189
16.623
16.6785
16.7023
16.7057
16.6961
16.6786
16.6564
16.632
16.6068
16.5819
16.558
16.5356
16.5151
16.4964
16.4799
16.4654
16.4531
16.4428
16.4345
16.4282
16.4238
16.4212
16.4203
16.421
16.4233
16.4271
16.4321
16.4384
16.4459
16.4545
16.4641
16.4748
16.4864
16.4988
16.5118
16.5254
16.5394
16.5536
16.568
16.5822
16.5962
16.6098
16.6228
16.6352
16.6468
16.6577
16.6677
16.6768
16.6851
16.6927
16.6997
16.7061
16.712
16.7177
16.7232
16.7287
16.7343
16.7401
16.7463
16.7529
16.7601
16.7682
0.856486
1.12027
1.57153
2.45563
3.97547
5.97825
8.01089
9.72611
11.0249
11.954
12.6007
13.0453
13.349
13.5554
13.6948
13.7877
13.8485
13.8869
13.9097
13.9219
13.9266
13.9265
13.9233
13.9181
13.912
13.9055
13.8991
13.8933
13.8881
13.8839
13.8806
13.8784
13.8773
13.8773
13.8784
13.8806
13.8839
13.8882
13.8935
13.8997
13.9067
13.9145
13.9231
13.9325
13.9425
13.9531
13.9643
13.9759
13.9878
13.9999
14.0121
14.0241
14.036
14.0475
14.0585
14.0689
14.0787
14.0877
14.096
14.1035
14.1103
14.1164
14.1219
14.1269
14.1316
14.1359
14.1402
14.1444
14.1488
14.1534
14.1584
14.1638
14.1698
14.1765
14.1841
0.751138
0.901882
1.1357
1.57101
2.36209
3.58036
5.07589
6.57156
7.86573
8.89151
9.66657
10.2385
10.6564
10.9608
11.1828
11.345
11.4638
11.551
11.6151
11.6622
11.6969
11.7225
11.7413
11.7553
11.7658
11.7738
11.7801
11.7852
11.7897
11.7938
11.7979
11.802
11.8064
11.8112
11.8164
11.8221
11.8283
11.835
11.8423
11.8501
11.8584
11.8671
11.8763
11.8858
11.8958
11.9061
11.9167
11.9275
11.9384
11.9493
11.9601
11.9707
11.9809
11.9907
11.9999
12.0086
12.0165
12.0238
12.0304
12.0362
12.0414
12.0461
12.0503
12.0541
12.0576
12.061
12.0643
12.0678
12.0715
12.0755
12.08
12.085
12.0905
12.0968
12.1041
0.681084
0.763094
0.884561
1.10001
1.49244
2.15026
3.09086
4.2063
5.32813
6.32978
7.15924
7.81699
8.32691
8.71822
9.01769
9.24721
9.42379
9.56035
9.6666
9.74982
9.81548
9.86769
9.90958
9.94353
9.97136
9.99448
10.014
10.0307
10.0453
10.0584
10.0702
10.0812
10.0916
10.1016
10.1114
10.121
10.1306
10.1402
10.15
10.1598
10.1698
10.1799
10.1901
10.2004
10.2108
10.2213
10.2319
10.2424
10.2529
10.2632
10.2732
10.2829
10.2922
10.3009
10.309
10.3165
10.3233
10.3294
10.3348
10.3396
10.3438
10.3476
10.3509
10.3539
10.3567
10.3595
10.3623
10.3653
10.3686
10.3722
10.3763
10.3809
10.3861
10.3919
10.3988
0.63403
0.671598
0.730768
0.83575
1.02644
1.35691
1.87632
2.58645
3.41896
4.27087
5.05819
5.73808
6.30134
6.75721
7.12188
7.41233
7.64372
7.8286
7.97704
8.09693
8.19441
8.27426
8.34018
8.39508
8.44121
8.48035
8.5139
8.54298
8.56847
8.59108
8.61137
8.62981
8.64676
8.66253
8.67735
8.69142
8.7049
8.71791
8.73056
8.74292
8.75507
8.76699
8.77868
8.7902
8.80155
8.81275
8.82377
8.83457
8.8451
8.85529
8.86508
8.8744
8.88317
8.89135
8.89886
8.9057
8.91184
8.91728
8.92207
8.92624
8.92987
8.93304
8.93584
8.93839
8.9408
8.94317
8.94562
8.94824
8.95115
8.95442
8.95812
8.96233
8.9671
8.97252
8.97888
0.602484
0.610007
0.63217
0.67868
0.768007
0.927183
1.19007
1.58499
2.11209
2.73181
3.38151
4.0041
4.56404
5.04728
5.45396
5.79146
6.06965
6.29853
6.48706
6.64286
6.7722
6.88017
6.97088
7.04758
7.11291
7.16898
7.21746
7.25973
7.29688
7.32982
7.35927
7.38582
7.40997
7.43212
7.45259
7.47167
7.48957
7.50648
7.52255
7.53792
7.55267
7.56689
7.58057
7.59376
7.60651
7.61885
7.63077
7.64228
7.65332
7.66387
7.67388
7.68328
7.69204
7.70011
7.70747
7.71408
7.71996
7.72513
7.72963
7.73351
7.73684
7.73972
7.74225
7.74452
7.74664
7.74873
7.75088
7.7532
7.75576
7.75866
7.76195
7.7657
7.76995
7.77479
7.78051
0.581598
0.568258
0.567053
0.580682
0.61734
0.689625
0.815044
1.01459
1.30566
1.69024
2.14768
2.64103
3.13178
3.59126
4.00373
4.36394
4.67321
4.93622
5.15888
5.34716
5.50658
5.64194
5.75733
5.85616
5.94124
6.01492
6.07909
6.13533
6.18494
6.22897
6.26832
6.3037
6.33573
6.36492
6.39167
6.41634
6.43924
6.46059
6.48062
6.49949
6.51735
6.53431
6.55044
6.56577
6.58037
6.59429
6.60757
6.62021
6.6322
6.64353
6.65416
6.66407
6.67322
6.68158
6.68915
6.69591
6.70188
6.7071
6.7116
6.71544
6.71872
6.72151
6.72392
6.72604
6.72798
6.72984
6.73173
6.73373
6.73593
6.7384
6.7412
6.74439
6.74802
6.75216
6.75711
0.568079
0.540126
0.523431
0.51743
0.525304
0.552668
0.607669
0.701329
0.846657
1.05501
1.32993
1.66241
2.03209
2.41414
2.7866
3.13432
3.44925
3.72875
3.97363
4.1866
4.37111
4.53081
4.66914
4.78922
4.89377
4.98516
5.06536
5.13607
5.19872
5.25449
5.30439
5.34928
5.38985
5.42671
5.46037
5.49125
5.51972
5.54608
5.5706
5.5935
5.61496
5.63514
5.65416
5.6721
5.689
5.70495
5.72001
5.7342
5.74755
5.76006
5.77171
5.7825
5.79241
5.80143
5.80956
5.81679
5.82316
5.82869
5.83345
5.83749
5.8409
5.84376
5.84618
5.84824
5.85006
5.85174
5.85337
5.85503
5.85682
5.85881
5.86105
5.86359
5.86649
5.86983
5.87388
0.559602
0.521507
0.494215
0.475854
0.467123
0.470264
0.488837
0.527918
0.594281
0.695973
0.840597
1.03225
1.26844
1.53938
1.83035
2.12588
2.41303
2.68294
2.93066
3.15433
3.35412
3.53139
3.68811
3.82648
3.94865
4.05666
4.15237
4.23741
4.31321
4.38101
4.44188
4.49674
4.54637
4.59146
4.63258
4.67023
4.70483
4.73674
4.76629
4.79372
4.81929
4.84317
4.86553
4.88651
4.90617
4.92458
4.94183
4.95799
4.9731
4.98717
5.00023
5.01226
5.02328
5.03329
5.04229
5.05029
5.05733
5.06344
5.06868
5.07312
5.07684
5.07991
5.08245
5.08455
5.08631
5.08783
5.08921
5.09053
5.09188
5.09333
5.09495
5.09678
5.09887
5.10132
5.1044
0.5545
0.509542
0.474918
0.448452
0.429644
0.419073
0.418104
0.428877
0.454437
0.498844
0.567017
0.66401
0.793577
0.956396
1.14891
1.36364
1.59092
1.82102
2.04586
2.25963
2.45884
2.64182
2.80825
2.95863
3.09399
3.21558
3.32473
3.42275
3.5109
3.59032
3.66202
3.72691
3.78582
3.83944
3.8884
3.93322
3.97439
4.01232
4.04734
4.07979
4.10991
4.13795
4.1641
4.18852
4.21135
4.23265
4.25251
4.27104
4.28828
4.3043
4.3191
4.33273
4.34519
4.3565
4.36667
4.37572
4.38369
4.39063
4.39657
4.4016
4.40579
4.40922
4.412
4.41423
4.41599
4.41741
4.41856
4.41955
4.42045
4.42135
4.42231
4.42339
4.42465
4.42616
4.42821
0.551578
0.502159
0.462517
0.430613
0.405436
0.386738
0.374813
0.370408
0.374735
0.389544
0.417193
0.460615
0.52306
0.607482
0.715642
0.847209
0.999339
1.16703
1.34408
1.52425
1.70217
1.87373
2.03619
2.18798
2.32843
2.4575
2.57558
2.68332
2.78147
2.87084
2.95226
3.02649
3.09425
3.15622
3.21299
3.26511
3.31305
3.35724
3.39807
3.43586
3.47091
3.50348
3.53379
3.56203
3.58837
3.61294
3.6358
3.65706
3.6768
3.6951
3.712
3.72754
3.74175
3.75465
3.76627
3.77664
3.78579
3.79377
3.80063
3.80643
3.81127
3.81521
3.81836
3.82082
3.82269
3.82407
3.82506
3.82575
3.82624
3.82661
3.82693
3.82727
3.82768
3.82827
3.82929
0.549997
0.497833
0.454862
0.419311
0.390008
0.366314
0.347991
0.335115
0.328033
0.327378
0.334101
0.349515
0.375307
0.413461
0.46604
0.534794
0.620652
0.723263
0.840805
0.970169
1.10746
1.24861
1.38992
1.52835
1.66166
1.78835
1.90755
2.01888
2.12232
2.21806
2.30649
2.38803
2.46319
2.53246
2.59634
2.65528
2.70973
2.76008
2.8067
2.84993
2.89006
2.92736
2.96207
2.9944
3.02454
3.05263
3.07879
3.10309
3.12564
3.14652
3.16581
3.18355
3.19979
3.21455
3.22788
3.2398
3.25036
3.2596
3.26757
3.27435
3.28
3.28461
3.28828
3.29111
3.29319
3.29464
3.29555
3.29604
3.29619
3.2961
3.29584
3.2955
3.29513
3.29484
3.2949
0.549196
0.49545
0.450382
0.412443
0.380459
0.353629
0.331457
0.313683
0.300245
0.291252
0.28699
0.287933
0.294771
0.308424
0.330031
0.360892
0.402324
0.455437
0.520857
0.598475
0.687317
0.785601
0.890966
1.00079
1.11252
1.22388
1.33303
1.43859
1.5396
1.63547
1.72589
1.81079
1.89022
1.96437
2.03347
2.09782
2.15771
2.21344
2.26531
2.3136
2.35859
2.40051
2.4396
2.47606
2.51007
2.5418
2.57139
2.59893
2.62449
2.64818
2.67007
2.69023
2.70871
2.72555
2.7408
2.75448
2.76664
2.77733
2.78661
2.79453
2.80117
2.80661
2.81096
2.8143
2.81675
2.81841
2.81939
2.8198
2.81974
2.81931
2.8186
2.81769
2.81666
2.81562
2.81484
0.54882
0.494229
0.447927
0.408498
0.374812
0.346017
0.321496
0.300829
0.283749
0.270116
0.259909
0.253214
0.250232
0.251294
0.256863
0.267551
0.2841
0.307348
0.338153
0.377272
0.42521
0.482078
0.54749
0.620553
0.699939
0.784044
0.871158
0.959635
1.04801
1.13506
1.21984
1.30164
1.38
1.45464
1.5254
1.59226
1.65527
1.71453
1.77019
1.82241
1.87137
1.91724
1.96021
2.00043
2.03807
2.07328
2.10619
2.13691
2.16551
2.19206
2.21663
2.23931
2.26014
2.27918
2.29646
2.31204
2.32595
2.33823
2.34895
2.35817
2.36595
2.37239
2.37758
2.38161
2.38459
2.38664
2.38787
2.38839
2.38831
2.38773
2.38677
2.3855
2.38401
2.38242
2.38099
0.548657
0.493654
0.446683
0.406388
0.371673
0.341678
0.31574
0.293358
0.274166
0.257902
0.244398
0.233559
0.225367
0.219876
0.217213
0.217587
0.221296
0.228722
0.240335
0.25667
0.278288
0.305721
0.339393
0.379536
0.426116
0.478796
0.536941
0.599667
0.665925
0.734602
0.804607
0.87494
0.944741
1.0133
1.08007
1.14463
1.20671
1.26611
1.32274
1.37656
1.42758
1.47584
1.52141
1.56438
1.60484
1.64287
1.67857
1.71204
1.74334
1.77252
1.79961
1.82469
1.8478
1.86899
1.88831
1.90579
1.92148
1.93542
1.94767
1.95829
1.96734
1.97491
1.9811
1.986
1.98973
1.99238
1.99409
1.99497
1.99513
1.99468
1.99373
1.99238
1.99073
1.98889
1.98711
0.548592
0.493406
0.446107
0.405351
0.370059
0.339371
0.312608
0.289233
0.268829
0.251075
0.235728
0.222608
0.211595
0.202617
0.19565
0.190716
0.187888
0.187286
0.189086
0.193519
0.200869
0.211469
0.225679
0.243868
0.26637
0.293444
0.325224
0.361686
0.402619
0.447634
0.496183
0.547606
0.601178
0.656168
0.711876
0.767668
0.822995
0.877399
0.930512
0.98205
1.0318
1.07961
1.12539
1.16907
1.21062
1.25004
1.28734
1.32254
1.35566
1.38676
1.41579
1.4428
1.46781
1.49086
1.51197
1.53118
1.54852
1.56405
1.5778
1.58983
1.60022
1.60904
1.61638
1.62235
1.62704
1.63057
1.63305
1.63461
1.63535
1.6354
1.63487
1.63384
1.63243
1.63075
1.62904
0.548569
0.49331
0.445866
0.40489
0.369304
0.338249
0.311036
0.287114
0.266042
0.247465
0.231105
0.216739
0.204196
0.193345
0.184094
0.176382
0.17018
0.165488
0.162338
0.160793
0.160948
0.162932
0.16691
0.173077
0.181656
0.192888
0.207014
0.224254
0.244789
0.268724
0.296075
0.326749
0.360542
0.397143
0.436158
0.47713
0.519575
0.563004
0.606949
0.650978
0.694708
0.73781
0.780005
0.821066
0.860808
0.899087
0.935792
0.970838
1.00417
1.03573
1.06551
1.09344
1.11949
1.14368
1.166
1.18647
1.2051
1.22194
1.23701
1.25037
1.26208
1.27222
1.28085
1.28808
1.29401
1.29874
1.30237
1.30503
1.30682
1.30785
1.30823
1.30806
1.30743
1.30646
1.30536
0.548561
0.493276
0.445775
0.404707
0.368989
0.337759
0.310324
0.286125
0.264707
0.245702
0.22881
0.213787
0.200435
0.188595
0.17814
0.168972
0.161016
0.154218
0.148548
0.143992
0.140556
0.138266
0.137167
0.137327
0.138831
0.141788
0.146325
0.152588
0.160732
0.170915
0.183288
0.197983
0.215094
0.234666
0.256683
0.281062
0.307653
0.336239
0.366552
0.398287
0.431114
0.464695
0.498701
0.532819
0.566759
0.600262
0.633099
0.665072
0.696011
0.725778
0.754258
0.781364
0.806982
0.831053
0.853536
0.874407
0.893656
0.911287
0.927317
0.941778
0.954712
0.966174
0.976229
0.984949
0.992419
0.998724
1.00396
1.00822
1.0116
1.0142
1.01611
1.01742
1.01821
1.0186
1.01873
0.548559
0.493266
0.445745
0.404642
0.368873
0.337571
0.31004
0.285716
0.264139
0.24493
0.227779
0.212432
0.198676
0.186338
0.175272
0.165362
0.156511
0.148642
0.141694
0.13562
0.13039
0.125983
0.122391
0.11962
0.117686
0.116617
0.116455
0.117254
0.11908
0.122013
0.126141
0.131563
0.138379
0.14669
0.156589
0.168154
0.181436
0.196459
0.213205
0.231616
0.251591
0.272988
0.295629
0.319308
0.343798
0.368864
0.394267
0.419776
0.445169
0.470244
0.49482
0.518741
0.541868
0.564062
0.585222
0.605269
0.624144
0.641807
0.658235
0.673418
0.687363
0.700087
0.71162
0.722002
0.73128
0.739511
0.746757
0.753083
0.758559
0.763256
0.767247
0.770602
0.773391
0.775692
0.777622
0.548558
0.493263
0.445735
0.404622
0.368836
0.337509
0.309944
0.285572
0.26393
0.244636
0.227375
0.211885
0.197946
0.185378
0.174026
0.163764
0.154484
0.146098
0.138532
0.131724
0.125625
0.120197
0.11541
0.111242
0.10768
0.10472
0.102362
0.100617
0.0995
0.0990368
0.0992589
0.100206
0.101924
0.104467
0.107894
0.112267
0.11765
0.124106
0.13169
0.140449
0.150413
0.161594
0.173981
0.187535
0.202194
0.217868
0.234442
0.251786
0.26975
0.288178
0.30691
0.325787
0.344663
0.363386
0.381817
0.399827
0.417306
0.434159
0.450305
0.46568
0.480233
0.493928
0.506741
0.518661
0.529689
0.539835
0.549119
0.557569
0.565221
0.572114
0.578294
0.583809
0.588709
0.59305
0.596901
0.548558
0.493263
0.445733
0.404617
0.368827
0.337493
0.309918
0.285532
0.26387
0.244548
0.227249
0.211707
0.197701
0.185045
0.173583
0.163183
0.153733
0.145139
0.137321
0.130213
0.123758
0.11791
0.112631
0.10789
0.103663
0.099932
0.0966848
0.0939146
0.0916196
0.0898032
0.0884736
0.0876441
0.0873327
0.0875625
0.0883618
0.0897634
0.0918048
0.0945275
0.0979764
0.102198
0.107239
0.113145
0.119956
0.127704
0.136411
0.146085
0.156717
0.16828
0.180725
0.193987
0.207979
0.2226
0.237735
0.253265
0.269054
0.284966
0.300867
0.316627
0.332126
0.347254
0.361915
0.376025
0.389516
0.402334
0.414437
0.425799
0.436405
0.446253
0.455351
0.463714
0.471367
0.47834
0.484668
0.490393
0.495557
0.548558
0.493263
0.445733
0.404617
0.368827
0.337493
0.309918
0.285532
0.26387
0.244548
0.227249
0.211707
0.197701
0.185045
0.173583
0.163183
0.153733
0.145138
0.137321
0.130212
0.123758
0.11791
0.112631
0.10789
0.103663
0.0999317
0.0966844
0.0939141
0.0916191
0.0898026
0.0884729
0.0876433
0.0873318
0.0875615
0.0883607
0.0897621
0.0918033
0.0945259
0.0979745
0.102196
0.107237
0.113143
0.119953
0.127701
0.136408
0.146081
0.156713
0.168276
0.180722
0.193984
0.207976
0.222596
0.237732
0.253261
0.269051
0.284963
0.300865
0.316626
0.332125
0.347255
0.361918
0.376031
0.389525
0.402347
0.414456
0.425825
0.436439
0.446297
0.455405
0.463781
0.471447
0.478434
0.484777
0.490517
0.495696
0.548558
0.493263
0.445735
0.404622
0.368836
0.337509
0.309944
0.285572
0.26393
0.244636
0.227375
0.211884
0.197946
0.185377
0.174026
0.163763
0.154484
0.146097
0.138531
0.131722
0.125623
0.120195
0.115407
0.111239
0.107677
0.104716
0.102357
0.100611
0.0994937
0.0990294
0.0992503
0.100196
0.101912
0.104454
0.107878
0.112249
0.11763
0.124083
0.131665
0.14042
0.150381
0.161559
0.173942
0.187493
0.202148
0.217818
0.234389
0.251729
0.269691
0.288116
0.306845
0.32572
0.344594
0.363317
0.381747
0.399758
0.417238
0.434093
0.450243
0.465624
0.480184
0.49389
0.506716
0.518654
0.529703
0.539874
0.549188
0.557672
0.565361
0.572295
0.578519
0.584079
0.589026
0.593413
0.597311
0.548559
0.493266
0.445745
0.404642
0.368873
0.337571
0.31004
0.285716
0.264138
0.244929
0.227779
0.212431
0.198675
0.186336
0.175271
0.16536
0.156509
0.148639
0.14169
0.135616
0.130384
0.125976
0.122383
0.119611
0.117674
0.116603
0.116439
0.117235
0.119058
0.121987
0.126111
0.131527
0.138338
0.146643
0.156536
0.168092
0.181367
0.196381
0.213119
0.231521
0.251487
0.272876
0.295508
0.319179
0.343662
0.368721
0.394118
0.41962
0.445008
0.470079
0.494651
0.51857
0.541694
0.563887
0.585047
0.605095
0.623974
0.641644
0.658081
0.673277
0.68724
0.699988
0.711551
0.721969
0.731291
0.739572
0.746875
0.753265
0.75881
0.763582
0.76765
0.771084
0.773953
0.776332
0.778337
0.548561
0.493276
0.445775
0.404707
0.368988
0.337758
0.310324
0.286124
0.264706
0.245701
0.228808
0.213785
0.200432
0.188591
0.178136
0.168967
0.161009
0.15421
0.148538
0.143979
0.14054
0.138247
0.137145
0.1373
0.138799
0.14175
0.146281
0.152535
0.16067
0.170842
0.183205
0.197887
0.214983
0.23454
0.256542
0.280906
0.307481
0.336052
0.366351
0.398072
0.430886
0.464455
0.498451
0.532559
0.566492
0.599988
0.632819
0.664786
0.695721
0.725484
0.753962
0.781066
0.806683
0.830755
0.853241
0.874117
0.893375
0.911019
0.927069
0.941555
0.954522
0.966026
0.976131
0.984912
0.992451
0.998835
1.00416
1.00851
1.01199
1.0147
1.01671
1.01813
1.01903
1.01952
1.01975
0.548569
0.49331
0.445866
0.404889
0.369303
0.338248
0.311035
0.287112
0.266039
0.247462
0.2311
0.216733
0.204189
0.193336
0.184083
0.176368
0.170163
0.165467
0.162313
0.160762
0.16091
0.162886
0.166854
0.173011
0.181577
0.192794
0.206902
0.224124
0.244637
0.268549
0.295877
0.326527
0.360295
0.396872
0.435863
0.476815
0.51924
0.562652
0.606581
0.650597
0.694317
0.737409
0.779597
0.820651
0.860388
0.898663
0.935364
0.970408
1.00373
1.0353
1.06508
1.093
1.11906
1.14325
1.16558
1.18606
1.20471
1.22157
1.23668
1.25008
1.26184
1.27204
1.28075
1.28807
1.29409
1.29892
1.30267
1.30545
1.30736
1.30852
1.30903
1.30898
1.30847
1.30761
1.30661
0.548592
0.493406
0.446106
0.40535
0.370057
0.339369
0.312604
0.289228
0.268823
0.251067
0.235717
0.222595
0.211579
0.202597
0.195624
0.190685
0.187849
0.187238
0.189027
0.193447
0.200782
0.211362
0.225551
0.243714
0.266187
0.293228
0.324974
0.361399
0.402296
0.447274
0.495789
0.547179
0.600722
0.655686
0.711372
0.767145
0.822457
0.876849
0.929952
0.981483
1.03123
1.07904
1.12481
1.16849
1.21004
1.24946
1.28676
1.32195
1.35508
1.38618
1.41522
1.44223
1.46725
1.4903
1.51143
1.53066
1.54803
1.56359
1.57739
1.58948
1.59994
1.60885
1.61629
1.62236
1.62717
1.63082
1.63344
1.63514
1.63602
1.63621
1.63581
1.63491
1.63361
1.63204
1.63041
0.548657
0.493653
0.446681
0.406385
0.371669
0.341672
0.315732
0.293348
0.274153
0.257886
0.244376
0.233532
0.225333
0.219833
0.217159
0.21752
0.221212
0.228618
0.240206
0.256511
0.278094
0.305486
0.339112
0.379205
0.425732
0.478359
0.536452
0.599128
0.665342
0.733979
0.80395
0.874255
0.944033
1.01258
1.07933
1.14388
1.20595
1.26535
1.32198
1.3758
1.42682
1.47508
1.52066
1.56363
1.60409
1.64212
1.67783
1.7113
1.74261
1.77178
1.79888
1.82397
1.84709
1.8683
1.88764
1.90516
1.92089
1.93488
1.94719
1.95788
1.96703
1.97471
1.98101
1.98604
1.9899
1.9927
1.99455
1.99557
1.99587
1.99556
1.99474
1.99351
1.99195
1.99019
1.98847
0.54882
0.494228
0.447924
0.408492
0.374804
0.346005
0.321481
0.300809
0.283722
0.270083
0.259867
0.253159
0.250163
0.251206
0.256753
0.267411
0.283923
0.307126
0.337878
0.376935
0.424804
0.481598
0.546934
0.619922
0.699239
0.783281
0.870341
0.958773
1.04711
1.13413
1.21889
1.30068
1.37903
1.45366
1.52442
1.59128
1.65429
1.71356
1.76922
1.82145
1.87041
1.9163
1.95927
1.9995
2.03715
2.07236
2.10527
2.136
2.16461
2.19116
2.21574
2.23843
2.25928
2.27834
2.29566
2.31128
2.32524
2.33759
2.34839
2.35771
2.3656
2.37216
2.37748
2.38165
2.38478
2.38698
2.38835
2.38901
2.38906
2.38861
2.38775
2.38656
2.38514
2.3836
2.38219
0.549195
0.495446
0.450375
0.412431
0.380442
0.353607
0.331427
0.313645
0.300196
0.291189
0.286908
0.287827
0.294635
0.308247
0.329804
0.360602
0.401957
0.454981
0.520302
0.597814
0.68655
0.784734
0.890008
0.999757
1.11142
1.22273
1.33185
1.43738
1.53838
1.63424
1.72466
1.80955
1.88899
1.96314
2.03226
2.09661
2.15651
2.21225
2.26414
2.31244
2.35744
2.39937
2.43847
2.47493
2.50895
2.54069
2.57029
2.59783
2.6234
2.6471
2.669
2.68918
2.70768
2.72456
2.73984
2.75358
2.76581
2.77658
2.78595
2.79398
2.80075
2.80633
2.81081
2.8143
2.8169
2.8187
2.81982
2.82036
2.82041
2.82008
2.81944
2.81859
2.81759
2.81655
2.81574
0.549994
0.497825
0.454848
0.419289
0.389977
0.366273
0.347938
0.335046
0.327943
0.32726
0.333945
0.34931
0.375036
0.413106
0.46558
0.534211
0.61993
0.722395
0.839792
0.969022
1.1062
1.24725
1.38849
1.52687
1.66014
1.78681
1.906
2.01733
2.12077
2.21653
2.30497
2.38653
2.4617
2.53099
2.59488
2.65384
2.7083
2.75866
2.8053
2.84854
2.88869
2.926
2.96072
2.99306
3.0232
3.0513
3.07747
3.10178
3.12433
3.14523
3.16453
3.1823
3.19856
3.21337
3.22675
3.23874
3.24938
3.25871
3.26679
3.27369
3.27947
3.28423
3.28804
3.29101
3.29324
3.29482
3.29586
3.29645
3.29668
3.29665
3.29643
3.29609
3.2957
3.29536
3.29534
0.551572
0.502144
0.462491
0.430575
0.405384
0.386669
0.374721
0.370286
0.374571
0.389323
0.416894
0.460212
0.522523
0.606781
0.714752
0.846117
0.99805
1.16556
1.34246
1.52252
1.70035
1.87185
2.03428
2.18606
2.3265
2.45559
2.57369
2.68144
2.77961
2.86901
2.95045
3.0247
3.09249
3.15448
3.21127
3.26341
3.31137
3.35558
3.39642
3.43422
3.46929
3.50187
3.53219
3.56044
3.58679
3.61137
3.63423
3.6555
3.67525
3.69357
3.71049
3.72605
3.7403
3.75325
3.76494
3.77538
3.78462
3.7927
3.79968
3.80561
3.81058
3.81467
3.81796
3.82056
3.82255
3.82404
3.82513
3.82589
3.82643
3.82682
3.82713
3.82743
3.82776
3.82824
3.82913
0.55449
0.509515
0.474874
0.448389
0.429558
0.418956
0.417945
0.428659
0.454136
0.498425
0.566438
0.663225
0.792544
0.95509
1.14733
1.36182
1.58889
1.81885
2.04358
2.25729
2.45647
2.63945
2.80589
2.95629
3.09168
3.2133
3.32248
3.42054
3.50873
3.58817
3.6599
3.72483
3.78376
3.83741
3.88638
3.93123
3.97242
4.01036
4.04541
4.07787
4.108
4.13605
4.16221
4.18664
4.20948
4.23079
4.25066
4.26919
4.28645
4.30248
4.31731
4.33097
4.34348
4.35484
4.36508
4.37422
4.38229
4.38933
4.3954
4.40055
4.40488
4.40845
4.41136
4.4137
4.41558
4.41708
4.41829
4.41932
4.42023
4.4211
4.422
4.42298
4.42411
4.42546
4.42731
0.559583
0.521462
0.494144
0.475753
0.466982
0.470068
0.48856
0.527523
0.593716
0.69517
0.839487
1.03078
1.2666
1.53718
1.82787
2.12319
2.41021
2.68004
2.92774
3.15142
3.35124
3.52854
3.68531
3.82373
3.94595
4.05401
4.14977
4.23485
4.31069
4.37852
4.43942
4.49431
4.54398
4.58909
4.63024
4.6679
4.70252
4.73446
4.76401
4.79147
4.81704
4.84093
4.86331
4.88429
4.90396
4.92238
4.93964
4.95581
4.97093
4.98502
4.99811
5.01018
5.02125
5.03132
5.04039
5.04848
5.05562
5.06185
5.06722
5.07178
5.07563
5.07883
5.08148
5.08368
5.08551
5.08709
5.08849
5.08981
5.09112
5.09249
5.09399
5.09567
5.09758
5.09981
5.10263
0.568046
0.540055
0.523319
0.517269
0.525073
0.552333
0.607175
0.700596
0.845582
1.05349
1.3279
1.65988
2.02915
2.41088
2.78314
3.13077
3.44567
3.72519
3.97012
4.18314
4.36773
4.52749
4.66589
4.78604
4.89065
4.98209
5.06235
5.13311
5.19579
5.2516
5.30154
5.34646
5.38706
5.42394
5.45762
5.48853
5.51702
5.5434
5.56793
5.59084
5.61231
5.6325
5.65154
5.66948
5.68639
5.70235
5.71741
5.73162
5.74498
5.75751
5.7692
5.78003
5.78999
5.79908
5.80728
5.81461
5.82108
5.82673
5.83161
5.83577
5.83929
5.84226
5.84477
5.84691
5.84877
5.85047
5.85208
5.85369
5.85539
5.85725
5.85932
5.86166
5.86431
5.86737
5.87112
0.581544
0.568148
0.56688
0.580426
0.616956
0.689037
0.814135
1.0132
1.30366
1.68754
2.14433
2.63718
3.1276
3.58692
3.99935
4.35958
4.66893
4.93203
5.15478
5.34317
5.50268
5.63813
5.7536
5.8525
5.93765
6.01139
6.07561
6.1319
6.18155
6.22562
6.265
6.30042
6.33248
6.36168
6.38846
6.41315
6.43606
6.45743
6.47747
6.49636
6.51422
6.53119
6.54733
6.56267
6.57727
6.5912
6.60449
6.61714
6.62915
6.6405
6.65117
6.66112
6.67033
6.67876
6.68641
6.69326
6.69934
6.70466
6.70927
6.71323
6.7166
6.71948
6.72195
6.72412
6.72607
6.72791
6.72974
6.73164
6.7337
6.73599
6.73857
6.7415
6.74483
6.74864
6.75323
0.6024
0.609839
0.631903
0.678265
0.767348
0.926113
1.18836
1.58242
2.10857
2.72746
3.37659
3.99885
4.55868
5.04194
5.44872
5.78634
6.06468
6.2937
6.48236
6.63827
6.76772
6.8758
6.96659
7.04337
7.10877
7.16489
7.21342
7.25574
7.29294
7.32591
7.35539
7.38198
7.40615
7.42832
7.44881
7.46791
7.48582
7.50275
7.51883
7.53421
7.54897
7.5632
7.57688
7.59008
7.60283
7.61518
7.62712
7.63863
7.6497
7.66027
7.67031
7.67976
7.68858
7.69672
7.70415
7.71086
7.71684
7.72211
7.7267
7.73067
7.73409
7.73703
7.73959
7.74187
7.74398
7.746
7.74805
7.75022
7.7526
7.75526
7.75828
7.76172
7.76562
7.77008
7.7754
0.633903
0.671346
0.73035
0.835057
1.02526
1.35491
1.87316
2.582
3.41343
4.26465
5.05167
5.73151
6.29488
6.75093
7.1158
7.40645
7.63802
7.82307
7.97166
8.09167
8.18926
8.26921
8.33522
8.3902
8.43639
8.47559
8.5092
8.53832
8.56385
8.58649
8.60681
8.62528
8.64226
8.65804
8.67288
8.68697
8.70046
8.71349
8.72615
8.73852
8.75067
8.7626
8.7743
8.78582
8.79718
8.80838
8.81941
8.83022
8.84077
8.85099
8.86081
8.87018
8.87901
8.88724
8.89484
8.90176
8.90798
8.91352
8.91839
8.92263
8.92632
8.92953
8.93235
8.93487
8.93722
8.93948
8.94179
8.94423
8.9469
8.94989
8.95328
8.95712
8.96149
8.96649
8.9724
0.680892
0.762711
0.883889
1.0988
1.49025
2.14654
3.08538
4.19938
5.32037
6.32173
7.15124
7.80921
8.3194
8.711
9.01073
9.24048
9.41726
9.554
9.6604
9.74375
9.80952
9.86183
9.9038
9.93782
9.96572
9.9889
10.0084
10.0252
10.0399
10.053
10.0648
10.0759
10.0863
10.0963
10.1061
10.1157
10.1253
10.135
10.1447
10.1546
10.1646
10.1746
10.1848
10.1951