/*--------------------------------*- C++ -*----------------------------------*\
  =========                 |
  \\      /  F ield         | OpenFOAM: The Open Source CFD Toolbox
   \\    /   O peration     | Website:  https://openfoam.org
    \\  /    A nd           | Version:  7
     \\/     M anipulation  |
\*---------------------------------------------------------------------------*/
FoamFile
{
    version     2.0;
    format      ascii;
    class       volScalarField;
    location    "600";
    object      k;
}
// * * * * * * * * * * * * * * * * * * * * * * * * * * * * * * * * * * * * * //

dimensions      [0 2 -2 0 0 0 0];

internalField   nonuniform List<scalar> 
4500
(
2.10711
1.99003
1.89804
1.8345
1.78632
1.74875
1.71881
1.69443
1.67421
1.65718
1.64268
1.6302
1.61939
1.60996
1.6017
1.59444
1.58803
1.58238
1.57737
1.57295
1.56904
1.56558
1.56254
1.55986
1.55753
1.55549
1.55374
1.55223
1.55096
1.54991
1.54905
1.54837
1.54786
1.54751
1.54731
1.54724
1.54729
1.54746
1.54774
1.54812
1.5486
1.54916
1.54981
1.55054
1.55133
1.5522
1.55313
1.55411
1.55515
1.55624
1.55737
1.55854
1.55974
1.56096
1.56222
1.56348
1.56476
1.56605
1.56733
1.56862
1.56989
1.57115
1.57239
1.57361
1.57481
1.57598
1.57712
1.57823
1.5793
1.58034
1.58134
1.5823
1.58322
1.58409
1.58491
1.10354
1.6732
1.8379
1.85191
1.83283
1.80901
1.78664
1.7669
1.74973
1.73484
1.72188
1.71057
1.70066
1.69195
1.68428
1.6775
1.67151
1.6662
1.66151
1.65736
1.6537
1.65047
1.64764
1.64516
1.64301
1.64115
1.63956
1.63823
1.63712
1.63622
1.63551
1.63499
1.63463
1.63443
1.63437
1.63445
1.63464
1.63495
1.63536
1.63588
1.63649
1.63719
1.63797
1.63883
1.63976
1.64076
1.64182
1.64293
1.6441
1.64532
1.64658
1.64787
1.64919
1.65053
1.6519
1.65327
1.65464
1.65601
1.65737
1.65871
1.66003
1.66132
1.66258
1.66381
1.665
1.66615
1.66726
1.66832
1.66935
1.67033
1.67126
1.67216
1.67301
1.67383
1.67456
0.644943
1.23225
1.53537
1.63719
1.66542
1.66864
1.66318
1.65482
1.64581
1.63702
1.62881
1.62129
1.61447
1.60833
1.60283
1.5979
1.59351
1.5896
1.58613
1.58307
1.58037
1.578
1.57594
1.57416
1.57264
1.57135
1.57029
1.56943
1.56875
1.56825
1.56791
1.56772
1.56767
1.56775
1.56795
1.56826
1.56868
1.56918
1.56978
1.57046
1.57123
1.57206
1.57297
1.57395
1.57498
1.57607
1.57722
1.57841
1.57964
1.58091
1.58222
1.58354
1.58488
1.58624
1.58759
1.58894
1.59027
1.59159
1.59287
1.59412
1.59533
1.5965
1.59761
1.59868
1.5997
1.60067
1.60158
1.60245
1.60327
1.60405
1.60479
1.60549
1.60616
1.6068
1.60736
0.463615
0.893401
1.25805
1.43575
1.5127
1.54555
1.55894
1.56332
1.56337
1.56132
1.55829
1.55487
1.55137
1.54798
1.54477
1.54181
1.5391
1.53665
1.53446
1.53253
1.53083
1.52936
1.52811
1.52705
1.52619
1.5255
1.52498
1.52462
1.5244
1.52432
1.52436
1.52453
1.52481
1.52519
1.52567
1.52625
1.52691
1.52765
1.52845
1.52933
1.53027
1.53128
1.53234
1.53346
1.53463
1.53584
1.5371
1.53839
1.53972
1.54107
1.54244
1.54383
1.54522
1.5466
1.54798
1.54933
1.55065
1.55193
1.55316
1.55434
1.55547
1.55653
1.55752
1.55846
1.55933
1.56013
1.56089
1.56158
1.56223
1.56284
1.56341
1.56395
1.56446
1.56496
1.56538
0.39407
0.646738
0.998479
1.23088
1.35547
1.4206
1.45545
1.47456
1.48513
1.49089
1.49385
1.49516
1.49547
1.49521
1.49462
1.49387
1.49306
1.49226
1.49151
1.49084
1.49026
1.48979
1.48943
1.48919
1.48906
1.48904
1.48912
1.48932
1.48961
1.49
1.49048
1.49104
1.49169
1.49242
1.49323
1.4941
1.49504
1.49604
1.49708
1.49819
1.49934
1.50054
1.50178
1.50307
1.5044
1.50576
1.50715
1.50857
1.51001
1.51147
1.51293
1.5144
1.51585
1.51729
1.5187
1.52007
1.52139
1.52266
1.52386
1.52498
1.52604
1.52701
1.5279
1.52872
1.52946
1.53013
1.53074
1.53129
1.53179
1.53225
1.53268
1.53308
1.53346
1.53384
1.53417
0.370615
0.488905
0.769299
1.02349
1.18836
1.28645
1.34497
1.38088
1.40366
1.41854
1.4285
1.43532
1.44007
1.44345
1.44589
1.4477
1.44908
1.45017
1.45107
1.45184
1.45255
1.45323
1.45389
1.45457
1.45527
1.45601
1.45679
1.45761
1.45848
1.45941
1.46038
1.4614
1.46248
1.4636
1.46477
1.46598
1.46724
1.46853
1.46986
1.47122
1.47262
1.47404
1.4755
1.47698
1.47849
1.48003
1.48158
1.48315
1.48472
1.4863
1.48788
1.48944
1.49098
1.49249
1.49395
1.49535
1.49669
1.49795
1.49913
1.50022
1.50122
1.50212
1.50293
1.50365
1.50428
1.50484
1.50532
1.50575
1.50612
1.50646
1.50677
1.50706
1.50735
1.50763
1.50788
0.364546
0.403111
0.587007
0.823641
1.01304
1.14094
1.22398
1.27842
1.31506
1.34046
1.35856
1.3718
1.38173
1.38935
1.39533
1.40011
1.40404
1.40732
1.41012
1.41258
1.41476
1.41675
1.4186
1.42033
1.42199
1.4236
1.42517
1.42672
1.42826
1.42979
1.43133
1.43287
1.43443
1.436
1.43759
1.43919
1.44081
1.44245
1.4441
1.44575
1.44743
1.44911
1.45081
1.45253
1.45425
1.45598
1.45772
1.45946
1.4612
1.46292
1.46463
1.46631
1.46795
1.46954
1.47106
1.47252
1.47389
1.47517
1.47635
1.47742
1.47838
1.47923
1.47997
1.48061
1.48116
1.48162
1.48201
1.48233
1.48261
1.48284
1.48306
1.48326
1.48347
1.48369
1.48388
0.364603
0.363346
0.460994
0.64658
0.836783
0.985712
1.09154
1.16521
1.21704
1.25428
1.28169
1.30236
1.31829
1.33084
1.34093
1.34918
1.35605
1.36188
1.3669
1.37129
1.37519
1.3787
1.38191
1.38487
1.38763
1.39024
1.39272
1.3951
1.3974
1.39963
1.40182
1.40396
1.40607
1.40816
1.41023
1.41228
1.41431
1.41634
1.41836
1.42036
1.42235
1.42434
1.42632
1.42829
1.43026
1.43222
1.43418
1.43611
1.43803
1.43993
1.44179
1.4436
1.44536
1.44706
1.44867
1.4502
1.45162
1.45294
1.45413
1.4552
1.45615
1.45697
1.45767
1.45825
1.45874
1.45913
1.45944
1.45968
1.45988
1.46004
1.46019
1.46032
1.46047
1.46064
1.46079
0.366685
0.347483
0.386684
0.507132
0.671669
0.826391
0.949252
1.04089
1.10836
1.15845
1.19625
1.22534
1.24815
1.26638
1.28121
1.29348
1.30378
1.31256
1.32014
1.32678
1.33266
1.33794
1.34271
1.34708
1.35112
1.35488
1.35841
1.36175
1.36493
1.36797
1.3709
1.37373
1.37647
1.37915
1.38177
1.38433
1.38685
1.38932
1.39175
1.39415
1.39651
1.39884
1.40114
1.40342
1.40567
1.4079
1.41009
1.41226
1.41439
1.41648
1.41852
1.4205
1.42241
1.42423
1.42595
1.42757
1.42907
1.43044
1.43167
1.43277
1.43372
1.43454
1.43522
1.43577
1.43622
1.43656
1.43682
1.43701
1.43715
1.43725
1.43734
1.43743
1.43753
1.43766
1.43779
0.369317
0.342581
0.348917
0.412157
0.531963
0.672822
0.801903
0.907129
0.989078
1.05222
1.10113
1.13949
1.17002
1.1947
1.21496
1.23184
1.24608
1.25827
1.26882
1.27805
1.28623
1.29353
1.30012
1.30612
1.31163
1.31672
1.32146
1.3259
1.33009
1.33406
1.33784
1.34146
1.34494
1.3483
1.35154
1.35469
1.35776
1.36074
1.36366
1.3665
1.36929
1.37201
1.37468
1.37731
1.37988
1.38241
1.38489
1.38732
1.3897
1.39202
1.39427
1.39644
1.39851
1.40049
1.40235
1.40409
1.40569
1.40714
1.40844
1.40958
1.41057
1.4114
1.41209
1.41264
1.41307
1.41339
1.41362
1.41377
1.41387
1.41394
1.41399
1.41404
1.41411
1.41421
1.41432
0.371958
0.342445
0.332102
0.356566
0.42837
0.537786
0.658014
0.768348
0.860997
0.935939
0.995905
1.044
1.08291
1.11474
1.1411
1.16319
1.18194
1.19802
1.21198
1.2242
1.23501
1.24466
1.25334
1.26122
1.26842
1.27504
1.28118
1.28689
1.29224
1.29728
1.30205
1.30658
1.3109
1.31503
1.319
1.32283
1.32652
1.33009
1.33356
1.33692
1.34019
1.34337
1.34646
1.34948
1.35243
1.35531
1.35812
1.36085
1.36351
1.36609
1.36858
1.37098
1.37326
1.37542
1.37745
1.37934
1.38106
1.38263
1.38402
1.38524
1.38629
1.38717
1.38789
1.38846
1.38889
1.38921
1.38943
1.38957
1.38965
1.3897
1.38972
1.38974
1.38979
1.38987
1.38996
0.374409
0.344309
0.325896
0.328085
0.362098
0.432748
0.529167
0.632415
0.728536
0.811707
0.881286
0.938793
0.986292
1.02573
1.05874
1.08663
1.11042
1.13091
1.14873
1.16436
1.17819
1.19052
1.20161
1.21164
1.22079
1.22918
1.23691
1.24409
1.25078
1.25705
1.26294
1.26851
1.2738
1.27883
1.28363
1.28823
1.29265
1.29689
1.30099
1.30495
1.30877
1.31247
1.31605
1.31953
1.32291
1.32618
1.32937
1.33245
1.33544
1.33833
1.3411
1.34376
1.34628
1.34866
1.35089
1.35296
1.35485
1.35656
1.35807
1.3594
1.36054
1.36149
1.36227
1.36289
1.36336
1.36369
1.36392
1.36407
1.36414
1.36417
1.36418
1.36418
1.3642
1.36426
1.36434
0.376595
0.346935
0.32478
0.315189
0.325142
0.361913
0.426574
0.510145
0.599357
0.684171
0.759763
0.824969
0.880429
0.92743
0.967348
1.00143
1.03072
1.05608
1.07822
1.09769
1.11493
1.13032
1.14415
1.15665
1.16802
1.17843
1.188
1.19685
1.20508
1.21276
1.21995
1.22672
1.23312
1.23917
1.24493
1.25042
1.25566
1.26068
1.26551
1.27014
1.2746
1.2789
1.28304
1.28704
1.29091
1.29465
1.29827
1.30176
1.30512
1.30836
1.31147
1.31443
1.31724
1.31988
1.32235
1.32463
1.32672
1.32861
1.33028
1.33175
1.33301
1.33407
1.33493
1.33562
1.33614
1.33652
1.33678
1.33694
1.33702
1.33705
1.33705
1.33704
1.33704
1.33707
1.33712
0.378494
0.349749
0.326042
0.310425
0.306798
0.320311
0.355502
0.412199
0.483847
0.561114
0.636428
0.705553
0.766924
0.820518
0.867011
0.907312
0.942336
0.972909
0.999742
1.02343
1.04448
1.06329
1.08019
1.09548
1.10938
1.12209
1.13376
1.14452
1.1545
1.1638
1.17248
1.18062
1.18828
1.19552
1.20237
1.20888
1.21507
1.22098
1.22664
1.23205
1.23724
1.24222
1.24701
1.25161
1.25605
1.26032
1.26443
1.26839
1.27219
1.27584
1.27932
1.28264
1.28578
1.28873
1.29149
1.29403
1.29636
1.29846
1.30033
1.30197
1.30339
1.30458
1.30556
1.30635
1.30695
1.30739
1.3077
1.30789
1.30799
1.30802
1.30802
1.30799
1.30796
1.30797
1.30799
0.380104
0.352469
0.328352
0.309741
0.298825
0.298554
0.31258
0.343818
0.391993
0.452699
0.519406
0.586268
0.64949
0.707223
0.758929
0.804788
0.845312
0.881119
0.912829
0.94101
0.96616
0.988712
1.00903
1.02742
1.04416
1.05945
1.07348
1.08642
1.09839
1.10952
1.11989
1.1296
1.13872
1.1473
1.15541
1.16308
1.17036
1.17729
1.18389
1.19019
1.19622
1.20199
1.20751
1.21281
1.21789
1.22277
1.22746
1.23195
1.23626
1.24038
1.24431
1.24804
1.25156
1.25487
1.25796
1.26081
1.26342
1.26579
1.2679
1.26975
1.27136
1.27272
1.27384
1.27475
1.27546
1.27599
1.27636
1.27659
1.27672
1.27677
1.27676
1.27672
1.27667
1.27663
1.27662
0.381432
0.354953
0.331036
0.311052
0.296302
0.288389
0.289475
0.302115
0.328313
0.36807
0.418684
0.475701
0.534633
0.59211
0.646117
0.695722
0.740693
0.781189
0.817558
0.850219
0.879597
0.906091
0.930062
0.951828
0.971665
0.989815
1.00648
1.02185
1.03606
1.04926
1.06155
1.07303
1.08379
1.0939
1.10343
1.11244
1.12096
1.12905
1.13673
1.14405
1.15104
1.1577
1.16408
1.17017
1.176
1.18158
1.18692
1.19203
1.19692
1.20158
1.20602
1.21022
1.2142
1.21793
1.2214
1.22462
1.22756
1.23023
1.23262
1.23474
1.23657
1.23814
1.23944
1.2405
1.24134
1.24197
1.24243
1.24272
1.24289
1.24296
1.24296
1.2429
1.24282
1.24274
1.24268
0.382496
0.357126
0.333732
0.313269
0.296566
0.284515
0.278275
0.279385
0.28963
0.310488
0.342261
0.383516
0.431393
0.482568
0.53415
0.584096
0.631194
0.674873
0.714976
0.751595
0.784951
0.815323
0.843002
0.868273
0.8914
0.912621
0.932149
0.950173
0.966858
0.982351
0.996777
1.01025
1.02286
1.0347
1.04584
1.05634
1.06627
1.07568
1.0846
1.09308
1.10115
1.10884
1.11618
1.12318
1.12986
1.13624
1.14233
1.14815
1.15371
1.15899
1.16402
1.16878
1.17327
1.17748
1.18141
1.18505
1.18838
1.19141
1.19414
1.19655
1.19866
1.20047
1.20199
1.20324
1.20423
1.20499
1.20555
1.20593
1.20615
1.20625
1.20625
1.20618
1.20607
1.20595
1.20583
0.383317
0.358954
0.336237
0.315805
0.298201
0.28395
0.27367
0.268176
0.268537
0.276002
0.291697
0.316126
0.348733
0.387879
0.431278
0.47661
0.521952
0.565944
0.607754
0.646952
0.683386
0.71708
0.748158
0.776798
0.803195
0.827551
0.850059
0.870898
0.890233
0.908214
0.924972
0.940628
0.955288
0.969044
0.981982
0.994173
1.00568
1.01657
1.02689
1.03668
1.04598
1.05483
1.06326
1.07129
1.07894
1.08624
1.09319
1.09982
1.10614
1.11214
1.11784
1.12323
1.12832
1.13309
1.13754
1.14166
1.14545
1.1489
1.15201
1.15478
1.15721
1.1593
1.16108
1.16255
1.16374
1.16466
1.16535
1.16582
1.16612
1.16626
1.16628
1.1662
1.16606
1.16589
1.1657
0.383926
0.360429
0.338437
0.318319
0.300425
0.285071
0.272597
0.26342
0.258096
0.257353
0.262057
0.273062
0.290942
0.315686
0.346543
0.382133
0.420773
0.460828
0.500941
0.540122
0.577726
0.61338
0.646914
0.678293
0.707566
0.734832
0.760217
0.783859
0.805894
0.826457
0.845674
0.863661
0.880526
0.896366
0.911269
0.925315
0.938573
0.951109
0.962978
0.974232
0.984915
0.995069
1.00473
1.01392
1.02268
1.03101
1.03894
1.04649
1.05367
1.06049
1.06696
1.07308
1.07884
1.08425
1.0893
1.09398
1.09829
1.10223
1.10578
1.10896
1.11176
1.1142
1.11627
1.11801
1.11943
1.12054
1.12139
1.12199
1.12237
1.12258
1.12263
1.12256
1.12239
1.12218
1.12193
0.384356
0.361567
0.340271
0.320613
0.302785
0.286971
0.273357
0.262155
0.253642
0.248183
0.246262
0.248465
0.255422
0.267671
0.285474
0.308658
0.336564
0.368157
0.40222
0.437572
0.473202
0.508334
0.542423
0.575121
0.606232
0.63567
0.663425
0.689534
0.714068
0.73711
0.758756
0.779099
0.798235
0.816251
0.833234
0.84926
0.864403
0.878727
0.892294
0.905156
0.917364
0.928961
0.939987
0.950476
0.960457
0.969956
0.978988
0.987576
0.995736
1.00348
1.01082
1.01775
1.02429
1.03042
1.03615
1.04147
1.04638
1.05087
1.05494
1.05859
1.06183
1.06465
1.06708
1.06913
1.07082
1.07217
1.07321
1.07397
1.07448
1.07477
1.07487
1.07482
1.07465
1.0744
1.07411
0.384645
0.3624
0.341721
0.322574
0.305012
0.28912
0.274988
0.262719
0.252442
0.244331
0.238618
0.235613
0.235703
0.239328
0.246928
0.258848
0.275219
0.295877
0.320342
0.347879
0.377621
0.408696
0.440324
0.471868
0.502846
0.532919
0.561867
0.589563
0.615944
0.641
0.664751
0.687239
0.708519
0.728653
0.747706
0.765743
0.782828
0.799021
0.81438
0.828957
0.842803
0.855962
0.868474
0.880378
0.891706
0.902486
0.912738
0.92248
0.931731
0.940508
0.94882
0.956676
0.964079
0.97103
0.977528
0.983569
0.989151
0.994271
0.998926
1.00312
1.00685
1.01013
1.01297
1.01539
1.0174
1.01903
1.02031
1.02127
1.02194
1.02236
1.02255
1.02256
1.02241
1.02215
1.02183
0.384827
0.362976
0.342805
0.324148
0.306947
0.291198
0.276922
0.264155
0.252946
0.243368
0.235524
0.229553
0.225648
0.224051
0.225056
0.228985
0.236149
0.246788
0.260999
0.278687
0.299546
0.323088
0.348708
0.375765
0.403652
0.431835
0.459883
0.487464
0.514338
0.540342
0.565373
0.589375
0.612327
0.634233
0.655112
0.674995
0.693921
0.711931
0.729071
0.745382
0.760907
0.775688
0.789761
0.803163
0.815926
0.828078
0.839645
0.850644
0.861088
0.870996
0.88038
0.889251
0.897613
0.90547
0.912822
0.919667
0.926004
0.931829
0.937144
0.941949
0.946248
0.95005
0.953367
0.956214
0.958614
0.960589
0.962169
0.963385
0.96427
0.964859
0.965189
0.965296
0.965215
0.964992
0.964682
0.384935
0.363349
0.343566
0.325333
0.308509
0.293015
0.278815
0.265893
0.254251
0.243905
0.234889
0.227257
0.221089
0.216497
0.213627
0.212662
0.213817
0.217326
0.223417
0.232273
0.243994
0.258559
0.275806
0.295441
0.317067
0.340231
0.364466
0.389336
0.414459
0.439515
0.464253
0.488484
0.51207
0.534916
0.556964
0.578181
0.598555
0.618086
0.636787
0.654677
0.671779
0.688119
0.703725
0.718623
0.732839
0.746398
0.759323
0.771633
0.783337
0.794448
0.804979
0.814941
0.824339
0.833179
0.84146
0.849185
0.85635
0.862956
0.869003
0.874494
0.879433
0.883829
0.887694
0.891046
0.893905
0.896296
0.898248
0.899793
0.900966
0.901803
0.90234
0.902617
0.90267
0.902546
0.90231
0.384994
0.363574
0.344062
0.326166
0.309682
0.294477
0.280464
0.267588
0.255813
0.24512
0.235503
0.226971
0.219547
0.21327
0.208201
0.204423
0.202042
0.201191
0.202024
0.20471
0.209419
0.216301
0.22546
0.236932
0.250663
0.266508
0.284234
0.303546
0.32411
0.345586
0.367651
0.390012
0.41242
0.434669
0.456596
0.478075
0.499014
0.519345
0.539026
0.558027
0.576336
0.593946
0.610861
0.627086
0.642633
0.657513
0.671739
0.685323
0.698276
0.710598
0.722297
0.733381
0.743854
0.753721
0.762983
0.771641
0.779694
0.787143
0.793989
0.800235
0.805887
0.810954
0.815449
0.81939
0.822796
0.825694
0.828113
0.830084
0.831644
0.832827
0.833673
0.83422
0.834507
0.834582
0.834514
0.385025
0.363699
0.344363
0.326707
0.310498
0.295561
0.281772
0.269042
0.257306
0.246517
0.236644
0.227667
0.219578
0.21238
0.206088
0.20073
0.196348
0.193
0.190761
0.189721
0.18999
0.191688
0.19494
0.199869
0.206575
0.215125
0.225537
0.237769
0.251715
0.267211
0.284048
0.301987
0.320777
0.340173
0.359944
0.379887
0.399823
0.419607
0.439118
0.45826
0.476958
0.495158
0.512817
0.529905
0.546401
0.562293
0.577571
0.592231
0.606269
0.619686
0.632468
0.644615
0.656127
0.667004
0.677245
0.686849
0.695817
0.704147
0.711842
0.718904
0.72534
0.73116
0.736376
0.741006
0.745069
0.748591
0.751601
0.754129
0.75621
0.75788
0.759177
0.760138
0.760804
0.761221
0.761461
0.385039
0.363763
0.344529
0.327031
0.311019
0.296298
0.282719
0.270166
0.25855
0.247804
0.237875
0.228725
0.220326
0.21266
0.205716
0.199495
0.194005
0.189262
0.185294
0.182139
0.179847
0.178479
0.178108
0.178817
0.180697
0.18384
0.188336
0.194259
0.201662
0.210564
0.220946
0.232746
0.24586
0.260148
0.275447
0.291573
0.308341
0.325568
0.343085
0.360736
0.378386
0.395917
0.41323
0.430242
0.446886
0.463107
0.47886
0.494109
0.508827
0.522991
0.536583
0.549574
0.561952
0.573709
0.584836
0.595327
0.605178
0.614387
0.622953
0.630877
0.638166
0.644827
0.650871
0.656314
0.661174
0.665475
0.669242
0.672503
0.675292
0.677641
0.679585
0.681162
0.682408
0.683368
0.684111
0.385045
0.363793
0.344613
0.327207
0.311323
0.296756
0.283344
0.270952
0.259476
0.248832
0.238951
0.229781
0.221278
0.213411
0.206155
0.199492
0.193412
0.187912
0.182994
0.178668
0.17495
0.171863
0.169439
0.167716
0.166741
0.16657
0.167264
0.16889
0.171516
0.175209
0.180029
0.18602
0.19321
0.2016
0.211164
0.221846
0.233564
0.24621
0.259659
0.273776
0.288419
0.303449
0.318733
0.334145
0.349574
0.364919
0.38009
0.395011
0.409617
0.423852
0.437669
0.451028
0.463885
0.476212
0.487986
0.49919
0.509808
0.51983
0.529249
0.538061
0.546265
0.553864
0.560865
0.567276
0.573113
0.578392
0.583132
0.587357
0.591093
0.594369
0.597215
0.599662
0.601744
0.6035
0.60499
0.385047
0.363805
0.344651
0.327293
0.311482
0.297013
0.283715
0.271447
0.260093
0.249557
0.239761
0.230639
0.22214
0.21422
0.206844
0.199984
0.193619
0.187734
0.182318
0.177365
0.172874
0.16885
0.165302
0.162241
0.159688
0.157665
0.156202
0.155334
0.155098
0.155542
0.156711
0.158657
0.16143
0.165076
0.169635
0.175137
0.181598
0.189016
0.197369
0.206617
0.216697
0.227534
0.239034
0.251096
0.263614
0.276478
0.289582
0.302825
0.31611
0.32935
0.342468
0.355394
0.368066
0.380422
0.392415
0.404004
0.415155
0.425839
0.436032
0.445715
0.454875
0.4635
0.471585
0.479127
0.486128
0.492594
0.498535
0.503963
0.508896
0.513352
0.517354
0.520926
0.524096
0.526895
0.529368
0.385048
0.36381
0.344666
0.32733
0.311556
0.29714
0.28391
0.271721
0.260452
0.250001
0.240283
0.231225
0.222767
0.214859
0.207459
0.200533
0.194052
0.187994
0.18234
0.177077
0.172195
0.167688
0.163555
0.159795
0.156413
0.153417
0.150818
0.148631
0.146872
0.145563
0.144731
0.144402
0.14461
0.145388
0.146775
0.148806
0.15152
0.154949
0.159124
0.164065
0.169784
0.176281
0.183544
0.191544
0.200241
0.209581
0.219499
0.229921
0.240767
0.251954
0.263396
0.275012
0.28672
0.298442
0.310101
0.321628
0.33296
0.344038
0.354812
0.365236
0.375273
0.384888
0.394054
0.40275
0.410958
0.41867
0.425878
0.432582
0.438787
0.444502
0.449738
0.454512
0.458844
0.462757
0.466281
0.385048
0.363811
0.344671
0.327343
0.311584
0.297191
0.283992
0.271841
0.260616
0.250212
0.24054
0.231524
0.2231
0.215215
0.207823
0.200885
0.19437
0.18825
0.182505
0.177117
0.172072
0.16736
0.162973
0.158908
0.155163
0.151739
0.148639
0.14587
0.14344
0.14136
0.139644
0.138308
0.13737
0.136854
0.136782
0.137182
0.138083
0.139516
0.141514
0.144108
0.147331
0.15121
0.155769
0.161027
0.166993
0.173664
0.181029
0.189062
0.197726
0.206969
0.216731
0.226941
0.237521
0.248391
0.259463
0.27065
0.281867
0.293031
0.304066
0.314903
0.325479
0.335737
0.34563
0.355118
0.364167
0.372752
0.380855
0.388462
0.395568
0.402174
0.408284
0.413908
0.419061
0.423761
0.428027
0.385048
0.363811
0.344671
0.327343
0.311584
0.297191
0.283992
0.271841
0.260616
0.250212
0.24054
0.231524
0.2231
0.215215
0.207823
0.200885
0.19437
0.18825
0.182505
0.177117
0.172072
0.16736
0.162973
0.158908
0.155163
0.151739
0.148639
0.14587
0.14344
0.14136
0.139644
0.138307
0.13737
0.136853
0.136781
0.137181
0.138082
0.139515
0.141513
0.144107
0.14733
0.151209
0.155768
0.161026
0.166991
0.173663
0.181028
0.189061
0.197724
0.206968
0.21673
0.226939
0.23752
0.24839
0.259463
0.270651
0.281868
0.293032
0.304068
0.314906
0.325482
0.33574
0.345633
0.355121
0.364169
0.372753
0.380855
0.38846
0.395565
0.402169
0.408276
0.413898
0.419048
0.423745
0.428008
0.385048
0.36381
0.344666
0.32733
0.311556
0.29714
0.28391
0.271721
0.260452
0.250001
0.240283
0.231225
0.222767
0.214859
0.207459
0.200533
0.194052
0.187994
0.18234
0.177077
0.172194
0.167688
0.163554
0.159794
0.156412
0.153416
0.150817
0.148628
0.146869
0.14556
0.144727
0.144397
0.144604
0.145382
0.146767
0.148798
0.15151
0.154938
0.159111
0.16405
0.169768
0.176264
0.183525
0.191523
0.200219
0.209557
0.219474
0.229895
0.24074
0.251926
0.263368
0.274983
0.286692
0.298415
0.310075
0.321603
0.332935
0.344015
0.354791
0.365217
0.375255
0.384871
0.394038
0.402734
0.410943
0.418653
0.42586
0.432562
0.438764
0.444475
0.449707
0.454476
0.458803
0.46271
0.466227
0.385047
0.363805
0.344651
0.327293
0.311482
0.297013
0.283715
0.271447
0.260093
0.249557
0.239761
0.23064
0.222141
0.21422
0.206844
0.199984
0.193619
0.187734
0.182317
0.177364
0.172873
0.168849
0.165299
0.162238
0.159684
0.15766
0.156196
0.155326
0.155089
0.155531
0.156698
0.158642
0.161412
0.165055
0.169611
0.17511
0.181568
0.188982
0.197331
0.206575
0.216652
0.227485
0.238982
0.251041
0.263556
0.276418
0.289521
0.302762
0.316045
0.329285
0.342402
0.355329
0.368001
0.380358
0.392353
0.403944
0.415097
0.425783
0.435979
0.445666
0.454828
0.463457
0.471544
0.479089
0.486092
0.49256
0.498501
0.50393
0.508862
0.513317
0.517316
0.520886
0.524051
0.526845
0.529311
0.385045
0.363793
0.344613
0.327207
0.311323
0.296757
0.283344
0.270953
0.259477
0.248833
0.238952
0.229782
0.221279
0.213412
0.206155
0.199492
0.193412
0.187911
0.182993
0.178666
0.174946
0.171858
0.169432
0.167707
0.166731
0.166557
0.167248
0.16887
0.171492
0.175181
0.179996
0.185982
0.193167
0.201551
0.211109
0.221786
0.233498
0.246138
0.259583
0.273695
0.288334
0.303361
0.318641
0.334051
0.349478
0.36482
0.37999
0.394911
0.409517
0.423751
0.437569
0.450929
0.463788
0.476116
0.487893
0.499099
0.509721
0.519747
0.52917
0.537987
0.546196
0.5538
0.560807
0.567224
0.573066
0.57835
0.583094
0.587324
0.591063
0.594341
0.597188
0.599635
0.601715
0.603468
0.604952
0.385039
0.363763
0.344529
0.327031
0.311019
0.296299
0.28272
0.270167
0.258551
0.247805
0.237876
0.228726
0.220327
0.21266
0.205716
0.199494
0.194003
0.189258
0.185289
0.182132
0.179838
0.178466
0.178092
0.178796
0.180671
0.183809
0.188298
0.194215
0.20161
0.210504
0.220878
0.23267
0.245775
0.260057
0.275348
0.291468
0.30823
0.325453
0.342966
0.360614
0.378261
0.39579
0.413101
0.430112
0.446756
0.462976
0.478729
0.493979
0.508698
0.522863
0.536456
0.549449
0.56183
0.573589
0.58472
0.595215
0.605072
0.614286
0.622858
0.630789
0.638085
0.644754
0.650807
0.656259
0.661128
0.665437
0.669213
0.672482
0.675277
0.677631
0.67958
0.681158
0.682404
0.683361
0.684097
0.385025
0.363699
0.344363
0.326708
0.310499
0.295562
0.281774
0.269044
0.257308
0.246519
0.236645
0.227668
0.219578
0.212379
0.206086
0.200726
0.196342
0.192991
0.190748
0.189704
0.189968
0.191659
0.194904
0.199824
0.20652
0.215061
0.225462
0.237683
0.251618
0.267104
0.283932
0.301862
0.320645
0.340034
0.3598
0.379738
0.399672
0.419453
0.438962
0.458103
0.476801
0.495001
0.51266
0.529749
0.546246
0.562139
0.577418
0.59208
0.60612
0.619539
0.632324
0.644473
0.655988
0.666869
0.677115
0.686725
0.695699
0.704037
0.711739
0.718811
0.725258
0.731089
0.736316
0.740958
0.745034
0.748568
0.751589
0.754127
0.756217
0.757894
0.759196
0.76016
0.760825
0.761238
0.76147
0.384994
0.363574
0.344063
0.326167
0.309684
0.294479
0.280466
0.267591
0.255816
0.245122
0.235505
0.226971
0.219545
0.213266
0.208194
0.204412
0.202027
0.20117
0.201995
0.204673
0.209371
0.216241
0.225387
0.236845
0.250562
0.266393
0.284106
0.303406
0.323959
0.345427
0.367484
0.38984
0.412243
0.43449
0.456415
0.477893
0.498831
0.519163
0.538844
0.557847
0.576157
0.593769
0.610686
0.626913
0.642462
0.657344
0.671572
0.685158
0.698114
0.710439
0.722141
0.733228
0.743706
0.753578
0.762846
0.771511
0.779572
0.78703
0.793887
0.800145
0.80581
0.810891
0.815401
0.819356
0.822778
0.82569
0.828123
0.830106
0.831675
0.832866
0.833716
0.834264
0.834548
0.834616
0.834536
0.384935
0.36335
0.343567
0.325335
0.308511
0.293018
0.278818
0.265896
0.254254
0.243907
0.234889
0.227254
0.221083
0.216486
0.21361
0.212637
0.213783
0.21728
0.223357
0.232198
0.243902
0.258448
0.275678
0.295296
0.316907
0.340058
0.364282
0.389144
0.41426
0.439311
0.464047
0.488276
0.511861
0.534708
0.556758
0.577977
0.598352
0.617886
0.636589
0.654482
0.671587
0.68793
0.703539
0.71844
0.732659
0.746221
0.759148
0.771461
0.783168
0.794283
0.804818
0.814784
0.824187
0.833032
0.841321
0.849054
0.856229
0.862846
0.868907
0.874411
0.879366
0.883778
0.887661
0.89103
0.893906
0.896314
0.898281
0.899839
0.901021
0.901864
0.902404
0.902678
0.902725
0.90259
0.902336
0.384827
0.362977
0.342807
0.324151
0.30695
0.291202
0.276926
0.264158
0.252948
0.243368
0.235519
0.229544
0.225631
0.224025
0.225019
0.228933
0.23608
0.246699
0.260888
0.278554
0.299392
0.322913
0.348516
0.37556
0.403435
0.431611
0.459654
0.487232
0.514105
0.540109
0.565141
0.589146
0.612101
0.63401
0.654892
0.674779
0.693708
0.711723
0.728866
0.745181
0.76071
0.775494
0.789571
0.802976
0.815742
0.827898
0.839468
0.850469
0.860917
0.870829
0.880217
0.889093
0.897461
0.905325
0.912685
0.91954
0.925888
0.931727
0.937056
0.941877
0.946194
0.950015
0.953351
0.956218
0.958636
0.960628
0.962223
0.963451
0.964344
0.964938
0.965267
0.965368
0.965276
0.965036
0.964704
0.384645
0.362402
0.341724
0.322578
0.305017
0.289125
0.274992
0.262721
0.252441
0.244324
0.238605
0.23559
0.235666
0.239274
0.246854
0.258749
0.275094
0.295725
0.320163
0.347677
0.3774
0.408461
0.440078
0.471615
0.502589
0.532661
0.56161
0.589308
0.615692
0.640752
0.664508
0.687
0.708285
0.728424
0.747482
0.765524
0.782613
0.798811
0.814174
0.828756
0.842605
0.855768
0.868285
0.880192
0.891523
0.902306
0.912562
0.922307
0.931562
0.940342
0.948659
0.95652
0.963929
0.970888
0.977395
0.983448
0.989043
0.994177
0.998849
1.00306
1.00681
1.01011
1.01297
1.01541
1.01744
1.01909
1.02039
1.02136
1.02203
1.02245
1.02264
1.02263
1.02247
1.02219
1.02184
0.384357
0.361569
0.340275
0.320619
0.302791
0.286976
0.273359
0.262154
0.253634
0.248166
0.246231
0.248416
0.255349
0.267569
0.28534
0.30849
0.336365
0.36793
0.401972
0.437308
0.472928
0.508054
0.542141
0.574839
0.605953
0.635395
0.663155
0.68927
0.71381
0.736859
0.75851
0.77886
0.798001
0.816024
0.833012
0.849044
0.864191
0.878521
0.892092
0.904959
0.917171
0.928772
0.939801
0.950293
0.960278
0.96978
0.978816
0.987407
0.99557
1.00332
1.01066
1.0176
1.02415
1.03029
1.03603
1.04136
1.04628
1.05079
1.05488
1.05855
1.0618
1.06465
1.0671
1.06917
1.07088
1.07224
1.0733
1.07406
1.07457
1.07486
1.07496
1.0749
1.07471
1.07443
1.0741
0.383927
0.360433
0.338442
0.318325
0.300431
0.285075
0.272596
0.263411
0.258075
0.257314
0.261993
0.272966
0.290808
0.315512
0.34633
0.381887
0.420501
0.460537
0.50064
0.539816
0.577419
0.613076
0.646615
0.678001
0.707281
0.734554
0.759947
0.783596
0.805639
0.826209
0.845433
0.863427
0.880299
0.896145
0.911054
0.925105
0.938368
0.950909
0.962782
0.97404
0.984728
0.994885
1.00455
1.01375
1.0225
1.03084
1.03878
1.04633
1.05351
1.06034
1.06681
1.07293
1.0787
1.08412
1.08918
1.09388
1.0982
1.10215
1.10573
1.10893
1.11175
1.11421
1.11631
1.11806
1.11949
1.12063
1.12148
1.12209
1.12247
1.12267
1.12271
1.12262
1.12243
1.12218
1.1219
0.383319
0.358958
0.336244
0.315811
0.298206
0.283951
0.273661
0.268152
0.26849
0.275923
0.291577
0.315958
0.348517
0.38762
0.430987
0.476297
0.521626
0.565614
0.607424
0.646626
0.683068
0.71677
0.747858
0.776507
0.802914
0.82728
0.849796
0.870644
0.889987
0.907975
0.924741
0.940404
0.95507
0.968833
0.981775
0.993972
1.00549
1.01638
1.0267
1.03649
1.0458
1.05465
1.06309
1.07112
1.07878
1.08608
1.09304
1.09967
1.10598
1.11199
1.1177
1.1231
1.12819
1.13297
1.13743
1.14157
1.14537
1.14884
1.15197
1.15476
1.15721
1.15932
1.16112
1.16261
1.16381
1.16475
1.16545
1.16592
1.16622
1.16635
1.16635
1.16625
1.16608
1.16587
1.16564
0.382499
0.357132
0.333739
0.313276
0.296568
0.284508
0.27825
0.279332
0.289537
0.310342
0.342057
0.383258
0.431091
0.482235
0.533801
0.583741
0.630842
0.674526
0.714639
0.751269
0.784637
0.81502
0.842711
0.867994
0.89113
0.912361
0.931899
0.949931
0.966625
0.982125
0.996558
1.01003
1.02265
1.0345
1.04564
1.05615
1.06609
1.0755
1.08442
1.09291
1.10098
1.10867
1.11601
1.12302
1.1297
1.13608
1.14218
1.14801
1.15356
1.15885
1.16388
1.16865
1.17315
1.17737
1.18131
1.18496
1.18831
1.19136
1.1941
1.19654
1.19866
1.20049
1.20204
1.2033
1.20431
1.20509
1.20565
1.20603
1.20625
1.20633
1.20631
1.20622
1.20607
1.20591
1.20574
0.381436
0.354959
0.331044
0.311056
0.296297
0.288366
0.28942
0.30201
0.328145
0.367832
0.418385
0.475358
0.534265
0.591732
0.64574
0.695353
0.740336
0.780846
0.817229
0.849905
0.879296
0.905804
0.929787
0.951564
0.971412
0.989572
1.00625
1.02162
1.03584
1.04905
1.06134
1.07283
1.0836
1.09372
1.10325
1.11226
1.12079
1.12888
1.13657
1.14389
1.15088
1.15755
1.16392
1.17002
1.17585
1.18143
1.18677
1.19189
1.19678
1.20145
1.20589
1.2101
1.21408
1.21782
1.22131
1.22454
1.2275
1.23019
1.2326
1.23473
1.23658
1.23817
1.23949
1.24057
1.24142
1.24206
1.24252
1.24282
1.24298
1.24303
1.243
1.24292
1.2428
1.24268
1.24256
0.380108
0.352477
0.328359
0.309741
0.298807
0.2985
0.312469
0.343631
0.391724
0.452364
0.519027
0.585869
0.649089
0.70683
0.75855
0.804426
0.844967
0.880792
0.912518
0.940714
0.965879
0.988444
1.00877
1.02718
1.04392
1.05922
1.07326
1.08621
1.09819
1.10932
1.11971
1.12942
1.13854
1.14713
1.15524
1.16291
1.1702
1.17713
1.18373
1.19004
1.19607
1.20184
1.20737
1.21267
1.21776
1.22264
1.22732
1.23182
1.23613
1.24025
1.24419
1.24792
1.25146
1.25478
1.25787
1.26074
1.26337
1.26575
1.26788
1.26975
1.27137
1.27275
1.2739
1.27482
1.27554
1.27607
1.27644
1.27667
1.27679
1.27682
1.27679
1.27672
1.27663
1.27655
1.27648
0.378499
0.349757
0.326046
0.310415
0.306752
0.320203
0.355304
0.411906
0.483479
0.560703
0.636003