/*--------------------------------*- C++ -*----------------------------------*\
  =========                 |
  \\      /  F ield         | OpenFOAM: The Open Source CFD Toolbox
   \\    /   O peration     | Website:  https://openfoam.org
    \\  /    A nd           | Version:  7
     \\/     M anipulation  |
\*---------------------------------------------------------------------------*/
FoamFile
{
    version     2.0;
    format      ascii;
    class       volScalarField;
    location    "600";
    object      p;
}
// * * * * * * * * * * * * * * * * * * * * * * * * * * * * * * * * * * * * * //

dimensions      [0 2 -2 0 0 0 0];

internalField   nonuniform List<scalar> 
4500
(
65.7365
62.7247
61.5649
60.4307
59.3027
58.2178
57.1667
56.1398
55.1336
54.1453
53.1726
52.2136
51.2669
50.3312
49.4056
48.4891
47.581
46.6807
45.7876
44.9012
44.0211
43.1468
42.2781
41.4145
40.5559
39.7019
38.8523
38.0068
37.1653
36.3276
35.4934
34.6627
33.8352
33.0107
32.1892
31.3706
30.5545
29.7411
28.93
28.1213
27.3147
26.5102
25.7076
24.9068
24.1078
23.3104
22.5146
21.7201
20.9269
20.1349
19.344
18.5541
17.7651
16.9769
16.1893
15.4024
14.6158
13.8297
13.0437
12.2579
11.472
10.686
9.89963
9.11287
8.32558
7.53763
6.74893
5.95936
5.16886
4.37732
3.58472
2.79097
1.99598
1.1999
0.403482
65.3497
62.6965
61.5637
60.4312
59.3031
58.2181
57.1669
56.14
55.1337
54.1454
53.1727
52.2137
51.267
50.3313
49.4057
48.4891
47.5811
46.6807
45.7876
44.9012
44.0211
43.1468
42.2781
41.4146
40.5559
39.7019
38.8523
38.0069
37.1654
36.3276
35.4935
34.6627
33.8352
33.0107
32.1892
31.3706
30.5545
29.7411
28.93
28.1213
27.3147
26.5102
25.7076
24.9068
24.1078
23.3104
22.5145
21.7201
20.9269
20.1349
19.344
18.5541
17.7651
16.9769
16.1893
15.4023
14.6158
13.8297
13.0437
12.2579
11.472
10.686
9.89962
9.11286
8.32557
7.53762
6.74892
5.95935
5.16885
4.37732
3.58471
2.79097
1.99598
1.19989
0.403478
65.2622
62.7034
61.5658
60.4322
59.3037
58.2186
57.1673
56.1403
55.134
54.1456
53.1729
52.2139
51.2671
50.3314
49.4058
48.4892
47.5811
46.6808
45.7877
44.9013
44.0211
43.1469
42.2781
41.4146
40.5559
39.7019
38.8523
38.0069
37.1654
36.3276
35.4935
34.6627
33.8352
33.0107
32.1892
31.3706
30.5545
29.7411
28.93
28.1212
27.3147
26.5101
25.7076
24.9068
24.1078
23.3104
22.5145
21.72
20.9269
20.1349
19.344
18.5541
17.7651
16.9768
16.1893
15.4023
14.6158
13.8297
13.0437
12.2579
11.472
10.6859
9.8996
9.11285
8.32555
7.5376
6.74891
5.95933
5.16884
4.3773
3.5847
2.79095
1.99597
1.19988
0.403472
65.2618
62.7116
61.5677
60.4333
59.3045
58.2191
57.1677
56.1406
55.1343
54.1459
53.1731
52.2141
51.2673
50.3316
49.4059
48.4893
47.5812
46.6809
45.7878
44.9013
44.0212
43.1469
42.2782
41.4146
40.556
39.702
38.8524
38.0069
37.1654
36.3277
35.4935
34.6627
33.8352
33.0107
32.1893
31.3706
30.5545
29.7411
28.93
28.1212
27.3147
26.5101
25.7076
24.9068
24.1078
23.3104
22.5145
21.72
20.9268
20.1349
19.344
18.5541
17.765
16.9768
16.1893
15.4023
14.6158
13.8296
13.0437
12.2579
11.472
10.6859
9.89959
9.11283
8.32554
7.53759
6.74889
5.95932
5.16882
4.37729
3.58469
2.79094
1.99595
1.19987
0.403465
65.258
62.7147
61.5689
60.4344
59.3054
58.2198
57.1683
56.141
55.1346
54.1462
53.1733
52.2143
51.2675
50.3317
49.406
48.4895
47.5813
46.681
45.7879
44.9014
44.0213
43.147
42.2782
41.4147
40.556
39.702
38.8524
38.0069
37.1654
36.3277
35.4935
34.6627
33.8352
33.0108
32.1893
31.3706
30.5546
29.7411
28.93
28.1212
27.3147
26.5101
25.7076
24.9068
24.1078
23.3104
22.5145
21.72
20.9268
20.1348
19.3439
18.554
17.765
16.9768
16.1893
15.4023
14.6158
13.8296
13.0437
12.2578
11.472
10.6859
9.89957
9.11281
8.32552
7.53757
6.74887
5.9593
5.1688
4.37727
3.58467
2.79093
1.99594
1.19986
0.403455
65.2477
62.717
61.5699
60.4355
59.3063
58.2205
57.1689
56.1415
55.135
54.1465
53.1736
52.2145
51.2677
50.3319
49.4062
48.4896
47.5815
46.6811
45.788
44.9015
44.0214
43.1471
42.2783
41.4147
40.5561
39.7021
38.8524
38.007
37.1655
36.3277
35.4935
34.6628
33.8352
33.0108
32.1893
31.3706
30.5546
29.7411
28.93
28.1213
27.3147
26.5101
25.7076
24.9068
24.1078
23.3104
22.5145
21.72
20.9268
20.1348
19.3439
18.554
17.765
16.9768
16.1893
15.4023
14.6158
13.8296
13.0437
12.2578
11.4719
10.6859
9.89955
9.11279
8.3255
7.53755
6.74885
5.95928
5.16878
4.37725
3.58465
2.79091
1.99592
1.19984
0.403444
65.2381
62.72
61.5708
60.4364
59.3072
58.2213
57.1695
56.1421
55.1355
54.1469
53.174
52.2148
51.268
50.3321
49.4064
48.4898
47.5816
46.6813
45.7881
44.9016
44.0215
43.1472
42.2784
41.4148
40.5562
39.7021
38.8525
38.007
37.1655
36.3277
35.4936
34.6628
33.8353
33.0108
32.1893
31.3706
30.5546
29.7411
28.93
28.1213
27.3147
26.5101
25.7076
24.9068
24.1078
23.3104
22.5145
21.72
20.9268
20.1348
19.3439
18.554
17.765
16.9768
16.1892
15.4023
14.6158
13.8296
13.0437
12.2578
11.4719
10.6859
9.89953
9.11277
8.32548
7.53753
6.74883
5.95926
5.16876
4.37723
3.58463
2.79089
1.9959
1.19982
0.40343
65.2294
62.7231
61.5715
60.4372
59.308
58.2221
57.1702
56.1427
55.136
54.1474
53.1744
52.2152
51.2682
50.3324
49.4066
48.49
47.5818
46.6814
45.7882
44.9018
44.0216
43.1473
42.2785
41.4149
40.5562
39.7022
38.8526
38.0071
37.1656
36.3278
35.4936
34.6628
33.8353
33.0108
32.1893
31.3706
30.5546
29.7411
28.93
28.1213
27.3147
26.5102
25.7076
24.9068
24.1078
23.3104
22.5145
21.72
20.9268
20.1348
19.3439
18.554
17.765
16.9768
16.1892
15.4023
14.6157
13.8296
13.0436
12.2578
11.4719
10.6858
9.8995
9.11275
8.32545
7.5375
6.74881
5.95924
5.16874
4.37721
3.58461
2.79087
1.99588
1.19981
0.403413
65.2205
62.7264
61.5721
60.4379
59.3088
58.2228
57.1709
56.1433
55.1365
54.1478
53.1748
52.2155
51.2686
50.3327
49.4069
48.4902
47.582
46.6816
45.7884
44.9019
44.0217
43.1474
42.2786
41.415
40.5563
39.7023
38.8526
38.0072
37.1656
36.3279
35.4937
34.6629
33.8353
33.0109
32.1894
31.3707
30.5546
29.7411
28.9301
28.1213
27.3147
26.5102
25.7076
24.9068
24.1078
23.3104
22.5145
21.72
20.9268
20.1348
19.3439
18.554
17.765
16.9768
16.1892
15.4022
14.6157
13.8296
13.0436
12.2578
11.4719
10.6858
9.89948
9.11272
8.32543
7.53748
6.74878
5.95921
5.16872
4.37719
3.58459
2.79085
1.99586
1.19979
0.403392
65.2109
62.7297
61.5726
60.4385
59.3094
58.2235
57.1716
56.1439
55.1371
54.1484
53.1753
52.216
51.269
50.333
49.4072
48.4905
47.5823
46.6818
45.7886
44.9021
44.0219
43.1476
42.2788
41.4152
40.5565
39.7024
38.8527
38.0072
37.1657
36.3279
35.4937
34.6629
33.8354
33.0109
32.1894
31.3707
30.5547
29.7412
28.9301
28.1213
27.3147
26.5102
25.7076
24.9068
24.1078
23.3104
22.5145
21.72
20.9268
20.1348
19.3439
18.554
17.765
16.9767
16.1892
15.4022
14.6157
13.8295
13.0436
12.2577
11.4718
10.6858
9.89945
9.1127
8.3254
7.53745
6.74876
5.95919
5.16869
4.37716
3.58457
2.79083
1.99584
1.19977
0.403367
65.2007
62.7332
61.573
60.4389
59.3099
58.2241
57.1722
56.1445
55.1377
54.1489
53.1758
52.2164
51.2694
50.3334
49.4075
48.4908
47.5826
46.6821
45.7888
44.9023
44.0221
43.1477
42.2789
41.4153
40.5566
39.7025
38.8529
38.0074
37.1658
36.328
35.4938
34.663
33.8355
33.011
32.1895
31.3708
30.5547
29.7412
28.9301
28.1214
27.3147
26.5102
25.7076
24.9069
24.1078
23.3104
22.5145
21.72
20.9268
20.1348
19.3439
18.554
17.765
16.9767
16.1892
15.4022
14.6157
13.8295
13.0436
12.2577
11.4718
10.6858
9.89943
9.11267
8.32538
7.53743
6.74873
5.95916
5.16867
4.37714
3.58454
2.7908
1.99582
1.19974
0.403337
65.1897
62.7371
61.5732
60.4392
59.3102
58.2245
57.1727
56.1451
55.1383
54.1494
53.1763
52.2169
51.2698
50.3338
49.4079
48.4912
47.5829
46.6824
45.7891
44.9026
44.0223
43.148
42.2791
41.4155
40.5568
39.7027
38.853
38.0075
37.1659
36.3281
35.4939
34.6631
33.8355
33.0111
32.1895
31.3708
30.5548
29.7413
28.9302
28.1214
27.3148
26.5102
25.7077
24.9069
24.1079
23.3104
22.5145
21.72
20.9268
20.1348
19.3439
18.554
17.765
16.9767
16.1892
15.4022
14.6157
13.8295
13.0436
12.2577
11.4718
10.6858
9.89941
9.11265
8.32535
7.5374
6.74871
5.95913
5.16864
4.37711
3.58452
2.79078
1.9958
1.19972
0.4033
65.1781
62.7412
61.5734
60.4395
59.3105
58.2248
57.1731
56.1456
55.1388
54.15
53.1768
52.2174
51.2703
50.3342
49.4083
48.4915
47.5832
46.6827
45.7894
44.9028
44.0226
43.1482
42.2793
41.4157
40.5569
39.7029
38.8532
38.0076
37.1661
36.3283
35.494
34.6632
33.8356
33.0112
32.1896
31.3709
30.5548
29.7413
28.9302
28.1214
27.3148
26.5103
25.7077
24.9069
24.1079
23.3105
22.5146
21.7201
20.9268
20.1348
19.3439
18.554
17.765
16.9767
16.1892
15.4022
14.6157
13.8295
13.0435
12.2577
11.4718
10.6857
9.89939
9.11262
8.32533
7.53737
6.74868
5.95911
5.16861
4.37708
3.58449
2.79075
1.99577
1.1997
0.403255
65.1657
62.7458
61.5735
60.4397
59.3107
58.225
57.1734
56.1459
55.1392
54.1504
53.1773
52.2178
51.2707
50.3347
49.4087
48.4919
47.5836
46.683
45.7897
44.9031
44.0229
43.1484
42.2796
41.4159
40.5572
39.703
38.8533
38.0078
37.1662
36.3284
35.4942
34.6633
33.8358
33.0113
32.1897
31.371
30.5549
29.7414
28.9303
28.1215
27.3149
26.5104
25.7077
24.907
24.1079
23.3105
22.5146
21.7201
20.9269
20.1349
19.3439
18.554
17.765
16.9767
16.1892
15.4022
14.6157
13.8295
13.0435
12.2577
11.4718
10.6857
9.89937
9.1126
8.3253
7.53735
6.74865
5.95908
5.16858
4.37706
3.58446
2.79072
1.99574
1.19967
0.4032
65.1525
62.7507
61.5737
60.4398
59.3108
58.2252
57.1735
56.1462
55.1395
54.1508
53.1777
52.2183
51.2712
50.3351
49.4091
48.4923
47.584
46.6834
45.7901
44.9035
44.0232
43.1487
42.2798
41.4162
40.5574
39.7033
38.8536
38.008
37.1664
36.3286
35.4943
34.6635
33.8359
33.0114
32.1899
31.3711
30.555
29.7415
28.9304
28.1216
27.315
26.5104
25.7078
24.907
24.108
23.3106
22.5146
21.7201
20.9269
20.1349
19.344
18.554
17.765
16.9768
16.1892
15.4022
14.6157
13.8295
13.0435
12.2577
11.4718
10.6857
9.89935
9.11258
8.32528
7.53732
6.74863
5.95905
5.16856
4.37703
3.58443
2.7907
1.99572
1.19965
0.403134
65.1386
62.7562
61.5738
60.44
59.3109
58.2252
57.1736
56.1463
55.1397
54.1511
53.178
52.2187
51.2716
50.3356
49.4096
48.4928
47.5844
46.6838
45.7905
44.9038
44.0235
43.1491
42.2801
41.4165
40.5577
39.7035
38.8538
38.0082
37.1666
36.3288
35.4945
34.6637
33.8361
33.0116
32.19
31.3712
30.5552
29.7416
28.9305
28.1217
27.3151
26.5105
25.7079
24.9071
24.1081
23.3106
22.5147
21.7202
20.927
20.1349
19.344
18.5541
17.765
16.9768
16.1892
15.4022
14.6157
13.8295
13.0435
12.2577
11.4718
10.6857
9.89934
9.11257
8.32526
7.5373
6.7486
5.95903
5.16853
4.377
3.58441
2.79067
1.99569
1.19962
0.403054
65.1238
62.762
61.574
60.4403
59.311
58.2252
57.1736
56.1463
55.1398
54.1512
53.1782
52.2189
51.2719
50.3359
49.41
48.4932
47.5848
46.6842
45.7908
44.9042
44.0239
43.1494
42.2805
41.4168
40.558
39.7038
38.8541
38.0085
37.1669
36.329
35.4947
34.6639
33.8363
33.0117
32.1902
31.3714
30.5553
29.7418
28.9307
28.1218
27.3152
26.5106
25.708
24.9072
24.1082
23.3107
22.5148
21.7203
20.927
20.135
19.3441
18.5541
17.7651
16.9768
16.1893
15.4023
14.6157
13.8295
13.0436
12.2577
11.4718
10.6857
9.89933
9.11256
8.32525
7.53729
6.74858
5.95901
5.16851
4.37698
3.58438
2.79064
1.99566
1.19959
0.402957
65.1083
62.7683
61.5741
60.4406
59.3111
58.2253
57.1736
56.1463
55.1398
54.1513
53.1783
52.2191
51.2721
50.3362
49.4103
48.4935
47.5852
46.6846
45.7912
44.9046
44.0242
43.1498
42.2808
41.4171
40.5583
39.7041
38.8544
38.0088
37.1671
36.3293
35.495
34.6641
33.8365
33.012
32.1904
31.3716
30.5555
29.742
28.9308
28.122
27.3153
26.5108
25.7081
24.9073
24.1083
23.3108
22.5149
21.7204
20.9271
20.1351
19.3441
18.5542
17.7651
16.9769
16.1893
15.4023
14.6158
13.8296
13.0436
12.2577
11.4718
10.6857
9.89934
9.11256
8.32524
7.53728
6.74857
5.95899
5.16848
4.37695
3.58435
2.79061
1.99563
1.19956
0.40284
65.092
62.7751
61.5743
60.441
59.3113
58.2253
57.1736
56.1463
55.1398
54.1513
53.1784
52.2192
51.2723
50.3364
49.4105
48.4938
47.5855
46.6849
45.7916
44.9049
44.0246
43.1501
42.2812
41.4174
40.5586
39.7044
38.8547
38.0091
37.1674
36.3296
35.4953
34.6644
33.8367
33.0122
32.1906
31.3718
30.5557
29.7421
28.931
28.1222
27.3155
26.5109
25.7083
24.9075
24.1084
23.311
22.515
21.7205
20.9272
20.1352
19.3442
18.5543
17.7652
16.977
16.1894
15.4024
14.6158
13.8296
13.0436
12.2577
11.4718
10.6857
9.89935
9.11256
8.32524
7.53727
6.74856
5.95897
5.16847
4.37693
3.58433
2.79059
1.9956
1.19953
0.4027
65.0749
62.7823
61.5744
60.4414
59.3115
58.2254
57.1737
56.1463
55.1397
54.1512
53.1783
52.2192
51.2723
50.3364
49.4106
48.4939
47.5857
46.6852
45.7919
44.9053
44.0249
43.1505
42.2815
41.4178
40.559
39.7048
38.855
38.0094
37.1677
36.3299
35.4956
34.6647
33.837
33.0125
32.1909
31.3721
30.5559
29.7424
28.9312
28.1224
27.3157
26.5111
25.7085
24.9077
24.1086
23.3111
22.5152
21.7206
20.9274
20.1353
19.3443
18.5544
17.7653
16.9771
16.1895
15.4024
14.6159
13.8297
13.0437
12.2578
11.4718
10.6858
9.89937
9.11258
8.32525
7.53728
6.74856
5.95897
5.16845
4.37691
3.58431
2.79056
1.99558
1.1995
0.402532
65.0572
62.7899
61.5745
60.4419
59.3118
58.2256
57.1738
56.1463
55.1397
54.1512
53.1782
52.2191
51.2722
50.3364
49.4106
48.494
47.5858
46.6853
45.7921
44.9055
44.0252
43.1508
42.2818
41.4181
40.5593
39.7051
38.8553
38.0097
37.1681
36.3302
35.4959
34.665
33.8373
33.0128
32.1911
31.3723
30.5562
29.7426
28.9315
28.1226
27.3159
26.5113
25.7087
24.9079
24.1088
23.3113
22.5153
21.7208
20.9275
20.1355
19.3445
18.5545
17.7655
16.9772
16.1896
15.4025
14.616
13.8298
13.0438
12.2578
11.4719
10.6858
9.89942
9.11261
8.32528
7.53729
6.74857
5.95897
5.16845
4.3769
3.5843
2.79054
1.99555
1.19947
0.402332
65.039
62.7978
61.5746
60.4425
59.3122
58.2258
57.1739
56.1464
55.1397
54.1512
53.1782
52.219
51.2721
50.3363
49.4106
48.494
47.5858
46.6854
45.7921
44.9056
44.0254
43.151
42.2821
41.4184
40.5596
39.7054
38.8557
38.0101
37.1684
36.3305
35.4962
34.6653
33.8376
33.0131
32.1914
31.3726
30.5565
29.7429
28.9317
28.1229
27.3162
26.5116
25.7089
24.9081
24.109
23.3115
22.5155
21.721
20.9277
20.1356
19.3447
18.5547
17.7656
16.9773
16.1897
15.4027
14.6161
13.8299
13.0439
12.2579
11.472
10.6859
9.89947
9.11266
8.32532
7.53732
6.74859
5.95898
5.16846
4.3769
3.58429
2.79053
1.99554
1.19945
0.402096
65.0205
62.8059
61.5746
60.4431
59.3126
58.226
57.174
56.1465
55.1398
54.1512
53.1782
52.219
51.2721
50.3363
49.4105
48.4939
47.5857
46.6853
45.7921
44.9056
44.0254
43.1511
42.2822
41.4186
40.5598
39.7057
38.8559
38.0103
37.1687
36.3308
35.4965
34.6656
33.8379
33.0134
32.1918
31.3729
30.5568
29.7432
28.932
28.1232
27.3165
26.5118
25.7092
24.9083
24.1092
23.3117
22.5158
21.7212
20.9279
20.1358
19.3449
18.5549
17.7658
16.9775
16.1899
15.4028
14.6162
13.83
13.044
12.258
11.4721
10.686
9.89955
9.11273
8.32538
7.53737
6.74863
5.95901
5.16848
4.37692
3.58429
2.79053
1.99553
1.19943
0.401821
65.0019
62.8141
61.5745
60.4437
59.313
58.2263
57.1742
56.1466
55.1399
54.1512
53.1782
52.219
51.272
50.3362
49.4104
48.4938
47.5856
46.6852
45.792
44.9056
44.0254
43.1511
42.2822
41.4186
40.5599
39.7058
38.8561
38.0105
37.1689
36.3311
35.4968
34.6659
33.8382
33.0137
32.1921
31.3733
30.5571
29.7435
28.9323
28.1235
27.3168
26.5121
25.7095
24.9086
24.1095
23.312
22.516
21.7214
20.9282
20.1361
19.3451
18.5551
17.766
16.9777
16.1901
15.403
14.6164
13.8302
13.0441
12.2582
11.4722
10.6861
9.89966
9.11282
8.32546
7.53744
6.74868
5.95906
5.16851
4.37694
3.58431
2.79054
1.99553
1.19943
0.401504
64.9837
62.8223
61.5743
60.4444
59.3134
58.2265
57.1745
56.1468
55.14
54.1513
53.1783
52.219
51.2721
50.3362
49.4104
48.4937
47.5855
46.6851
45.7919
44.9055
44.0253
43.151
42.2822
41.4186
40.5599
39.7058
38.8562
38.0106
37.1691
36.3312
35.497
34.6661
33.8385
33.0139
32.1923
31.3735
30.5574
29.7438
28.9326
28.1238
27.3171
26.5124
25.7098
24.9089
24.1098
23.3123
22.5163
21.7217
20.9284
20.1363
19.3453
18.5553
17.7662
16.9779
16.1903
15.4032
14.6166
13.8303
13.0443
12.2583
11.4724
10.6862
9.89978
9.11294
8.32556
7.53753
6.74876
5.95912
5.16857
4.37699
3.58435
2.79057
1.99555
1.19943
0.401145
64.9662
62.8302
61.5741
60.445
59.3139
58.2268
57.1747
56.147
55.1402
54.1514
53.1783
52.2191
51.2721
50.3362
49.4104
48.4937
47.5855
46.6851
45.7919
44.9054
44.0252
43.1509
42.2821
41.4185
40.5598
39.7058
38.8561
38.0106
37.1691
36.3313
35.4971
34.6662
33.8386
33.0141
32.1925
31.3738
30.5576
29.7441
28.9329
28.124
27.3174
26.5127
25.7101
24.9092
24.1101
23.3126
22.5166
21.722
20.9287
20.1366
19.3456
18.5556
17.7665
16.9782
16.1905
15.4034
14.6168
13.8306
13.0445
12.2585
11.4725
10.6864
9.89994
9.11308
8.32569
7.53764
6.74887
5.95921
5.16865
4.37706
3.58441
2.79062
1.99558
1.19946
0.400752
64.9502
62.8376
61.5737
60.4456
59.3143
58.2271
57.1749
56.1472
55.1403
54.1515
53.1784
52.2191
51.2721
50.3362
49.4104
48.4937
47.5855
46.685
45.7918
44.9053
44.0251
43.1508
42.282
41.4184
40.5597
39.7057
38.856
38.0105
37.169
36.3312
35.497
34.6662
33.8386
33.0142
32.1926
31.3739
30.5578
29.7442
28.9331
28.1243
27.3176
26.513
25.7103
24.9095
24.1104
23.3129
22.5169
21.7223
20.929
20.1369
19.3459
18.5559
17.7668
16.9784
16.1908
15.4037
14.6171
13.8308
13.0447
12.2587
11.4727
10.6866
9.90011
9.11324
8.32584
7.53778
6.74899
5.95933
5.16875
4.37715
3.58449
2.79069
1.99564
1.1995
0.400342
64.9363
62.8441
61.5734
60.4461
59.3147
58.2273
57.1751
56.1473
55.1404
54.1517
53.1785
52.2192
51.2722
50.3363
49.4104
48.4937
47.5855
46.685
45.7918
44.9053
44.0251
43.1507
42.2819
41.4183
40.5596
39.7056
38.8559
38.0104
37.1689
36.3311
35.4969
34.6661
33.8386
33.0141
32.1926
31.3739
30.5578
29.7443
28.9332
28.1244
27.3177
26.5131
25.7105
24.9097
24.1106
23.3131
22.5171
21.7225
20.9292
20.1371
19.3461
18.5561
17.767
16.9787
16.191
15.4039
14.6173
13.831
13.0449
12.259
11.4729
10.6868
9.9003
9.11342
8.32601
7.53794
6.74914
5.95947
5.16888
4.37726
3.58459
2.79078
1.99572
1.19956
0.399947
64.9257
62.8491
61.5731
60.4464
59.315
58.2275
57.1752
56.1475
55.1405
54.1517
53.1786
52.2193
51.2723
50.3363
49.4104
48.4938
47.5855
46.685
45.7918
44.9053
44.0251
43.1507
42.2819
41.4183
40.5596
39.7055
38.8558
38.0104
37.1688
36.331
35.4968
34.666
33.8385
33.014
32.1925
31.3738
30.5577
29.7442
28.9331
28.1243
27.3177
26.5132
25.7105
24.9097
24.1107
23.3132
22.5172
21.7227
20.9294
20.1373
19.3463
18.5563
17.7672
16.9789
16.1912
15.4042
14.6175
13.8312
13.0452
12.2592
11.4731
10.687
9.90049
9.1136
8.32618
7.5381
6.74929
5.9596
5.16901
4.37738
3.5847
2.79088
1.99581
1.19963
0.399617
64.9196
62.8521
61.5729
60.4467
59.3152
58.2276
57.1753
56.1475
55.1406
54.1518
53.1787
52.2193
51.2723
50.3364
49.4105
48.4938
47.5855
46.6851
45.7918
44.9053
44.0251
43.1507
42.2819
41.4183
40.5596
39.7055
38.8558
38.0103
37.1688
36.331
35.4968
34.666
33.8384
33.014
32.1924
31.3737
30.5577
29.7442
28.9331
28.1243
27.3177
26.5131
25.7105
24.9097
24.1107
23.3132
22.5173
21.7227
20.9295
20.1374
19.3464
18.5564
17.7673
16.979
16.1914
15.4043
14.6177
13.8314
13.0453
12.2593
11.4733
10.6871
9.90062
9.11372
8.32629
7.53821
6.7494
5.9597
5.1691
4.37747
3.58478
2.79095
1.99588
1.19969
0.399415
64.9196
62.8521
61.5729
60.4467
59.3152
58.2276
57.1753
56.1475
55.1406
54.1518
53.1787
52.2193
51.2723
50.3364
49.4105
48.4938
47.5855
46.6851
45.7918
44.9053
44.0251
43.1507
42.2819
41.4183
40.5596
39.7055
38.8558
38.0103
37.1688
36.331
35.4968
34.666
33.8384
33.014
32.1924
31.3737
30.5577
29.7442
28.9331
28.1243
27.3177
26.5131
25.7105
24.9097
24.1107
23.3132
22.5173
21.7227
20.9295
20.1374
19.3464
18.5564
17.7673
16.979
16.1914
15.4043
14.6177
13.8314
13.0453
12.2593
11.4733
10.6871
9.90062
9.11372
8.32629
7.53821
6.7494
5.9597
5.1691
4.37747
3.58478
2.79095
1.99588
1.19969
0.399409
64.9257
62.8491
61.5731
60.4464
59.315
58.2275
57.1752
56.1475
55.1405
54.1517
53.1786
52.2193
51.2723
50.3363
49.4104
48.4938
47.5855
46.685
45.7918
44.9053
44.0251
43.1507
42.2819
41.4183
40.5596
39.7055
38.8558
38.0104
37.1688
36.331
35.4968
34.666
33.8385
33.014
32.1925
31.3738
30.5577
29.7442
28.9331
28.1243
27.3177
26.5132
25.7105
24.9097
24.1107
23.3132
22.5172
21.7227
20.9294
20.1373
19.3463
18.5563
17.7672
16.9789
16.1912
15.4042
14.6175
13.8312
13.0452
12.2592
11.4732
10.687
9.90049
9.1136
8.32618
7.5381
6.74929
5.9596
5.16901
4.37738
3.5847
2.79088
1.99581
1.19963
0.399599
64.9363
62.8441
61.5734
60.4461
59.3147
58.2273
57.1751
56.1473
55.1404
54.1517
53.1785
52.2192
51.2722
50.3363
49.4104
48.4937
47.5855
46.685
45.7918
44.9053
44.0251
43.1507
42.2819
41.4183
40.5596
39.7056
38.8559
38.0104
37.1689
36.3311
35.4969
34.6661
33.8386
33.0141
32.1926
31.3739
30.5578
29.7443
28.9332
28.1244
27.3177
26.5131
25.7105
24.9097
24.1106
23.3131
22.5171
21.7225
20.9292
20.1371
19.3461
18.5561
17.767
16.9787
16.191
15.4039
14.6173
13.831
13.0449
12.259
11.473
10.6868
9.90031
9.11343
8.32601
7.53794
6.74914
5.95947
5.16888
4.37726
3.58459
2.79078
1.99572
1.19956
0.399919
64.9502
62.8376
61.5737
60.4456
59.3143
58.2271
57.1749
56.1472
55.1403
54.1515
53.1784
52.2191
51.2721
50.3362
49.4104
48.4937
47.5855
46.685
45.7918
44.9053
44.0251
43.1508
42.282
41.4184
40.5597
39.7057
38.856
38.0105
37.169
36.3312
35.497
34.6662
33.8386
33.0142
32.1926
31.3739
30.5578
29.7442
28.9331
28.1243
27.3176
26.513
25.7103
24.9095
24.1104
23.3129
22.5169
21.7223
20.929
20.1369
19.3459
18.5559
17.7668
16.9784
16.1908
15.4037
14.6171
13.8308
13.0447
12.2588
11.4727
10.6866
9.90012
9.11325
8.32584
7.53779
6.749
5.95933
5.16876
4.37715
3.58449
2.79068
1.99564
1.19949
0.400306
64.9662
62.8303
61.5741
60.445
59.3139
58.2268
57.1747
56.147
55.1402
54.1514
53.1783
52.2191
51.2721
50.3362
49.4104
48.4937
47.5855
46.6851
45.7919
44.9054
44.0252
43.1509
42.2821
41.4185
40.5598
39.7058
38.8561
38.0106
37.1691
36.3313
35.4971
34.6662
33.8386
33.0141
32.1925
31.3738
30.5576
29.7441
28.9329
28.124
27.3174
26.5127
25.7101
24.9092
24.1101
23.3126
22.5166
21.722
20.9287
20.1366
19.3456
18.5556
17.7665
16.9782
16.1905
15.4035
14.6168
13.8306
13.0445
12.2585
11.4725
10.6864
9.89994
9.11308
8.32569
7.53765
6.74887
5.95922
5.16866
4.37706
3.58441
2.79061
1.99559
1.19945
0.400709
64.9837
62.8223
61.5743
60.4444
59.3134
58.2265
57.1745
56.1468
55.14
54.1513
53.1783
52.219
51.2721
50.3362
49.4104
48.4937
47.5855
46.6851
45.7919
44.9055
44.0253
43.151
42.2822
41.4186
40.5599
39.7058
38.8562
38.0106
37.1691
36.3312
35.497
34.6661
33.8385
33.0139
32.1923
31.3735
30.5574
29.7438
28.9326
28.1238
27.3171
26.5124
25.7098
24.9089
24.1098
23.3123
22.5163
21.7217
20.9284
20.1363
19.3453
18.5553
17.7662
16.9779
16.1903
15.4032
14.6166
13.8303
13.0443
12.2584
11.4724
10.6862
9.89979
9.11295
8.32557
7.53754
6.74877
5.95913
5.16858
4.37699
3.58436
2.79057
1.99555
1.19943
0.401097
65.0019
62.8141
61.5745
60.4437
59.313
58.2263
57.1742
56.1466
55.1399
54.1512
53.1782
52.219
51.272
50.3362
49.4104
48.4938
47.5856
46.6852
45.792
44.9056
44.0254
43.1511
42.2822
41.4186
40.5599
39.7058
38.8561
38.0105
37.1689
36.3311
35.4968
34.6659
33.8382
33.0137
32.1921
31.3733
30.5571
29.7435
28.9323
28.1235
27.3168
26.5121
25.7095
24.9086
24.1095
23.312
22.516
21.7214
20.9282
20.1361
19.3451
18.5551
17.766
16.9777
16.1901
15.403
14.6164
13.8302
13.0441
12.2582
11.4722
10.6861
9.89967
9.11283
8.32547
7.53745
6.74869
5.95906
5.16852
4.37694
3.58432
2.79054
1.99553
1.19942
0.401451
65.0205
62.8059
61.5746
60.4431
59.3126
58.226
57.174
56.1465
55.1398
54.1512
53.1782
52.219
51.2721
50.3363
49.4105
48.4939
47.5857
46.6853
45.7921
44.9056
44.0254
43.1511
42.2822
41.4186
40.5598
39.7057
38.8559
38.0103
37.1687
36.3308
35.4965
34.6656
33.8379
33.0134
32.1918
31.3729
30.5568
29.7432
28.932
28.1232
27.3165
26.5118
25.7092
24.9083
24.1092
23.3117
22.5158
21.7212
20.9279
20.1358
19.3449
18.5549
17.7658
16.9775
16.1899
15.4028
14.6162
13.83
13.044
12.2581
11.4721
10.686
9.89957
9.11274
8.32539
7.53738
6.74864
5.95901
5.16849
4.37692
3.5843
2.79053
1.99553
1.19943
0.401764
65.039
62.7978
61.5746
60.4425
59.3122
58.2258
57.1739
56.1464
55.1397
54.1512
53.1782
52.219
51.2721
50.3363
49.4106
48.494
47.5858
46.6854
45.7921
44.9056
44.0254
43.151
42.2821
41.4184
40.5596
39.7054
38.8557
38.0101
37.1684
36.3305
35.4962
34.6653
33.8376
33.0131
32.1914
31.3726
30.5565
29.7429
28.9317
28.1229
27.3162
26.5116
25.7089
24.9081
24.109
23.3115
22.5155
21.721
20.9277
20.1356
19.3447
18.5547
17.7656
16.9773
16.1897
15.4027
14.6161
13.8299
13.0439
12.2579
11.472
10.6859
9.89949
9.11267
8.32533
7.53733
6.7486
5.95898
5.16847
4.3769
3.5843
2.79053
1.99554
1.19944
0.402037
65.0572
62.7899
61.5745
60.4419
59.3118
58.2256
57.1738
56.1463
55.1397
54.1512
53.1782
52.2191
51.2722
50.3364
49.4106
48.494
47.5858
46.6853
45.7921
44.9055
44.0252
43.1508
42.2818
41.4181
40.5593
39.7051
38.8553
38.0097
37.1681
36.3302
35.4959
34.665
33.8373
33.0128
32.1911
31.3723
30.5562
29.7426
28.9315
28.1226
27.3159
26.5113
25.7087
24.9079
24.1088
23.3113
22.5153
21.7208
20.9275
20.1355
19.3445
18.5545
17.7655
16.9772
16.1896
15.4026
14.616
13.8298
13.0438
12.2579
11.4719
10.6858
9.89943
9.11262
8.32529
7.5373
6.74858
5.95897
5.16846
4.3769
3.5843
2.79054
1.99556
1.19946
0.402271
65.0749
62.7823
61.5744
60.4414
59.3115
58.2254
57.1737
56.1463
55.1397
54.1512
53.1783
52.2192
51.2723
50.3364
49.4106
48.4939
47.5857
46.6852
45.7919
44.9053
44.0249
43.1505
42.2815
41.4178
40.559
39.7048
38.855
38.0094
37.1677
36.3299
35.4956
34.6647
33.837
33.0125
32.1909
31.3721
30.5559
29.7424
28.9312
28.1224
27.3157
26.5111
25.7085
24.9077
24.1086
23.3111
22.5152
21.7206
20.9274
20.1353
19.3443
18.5544
17.7653
16.9771
16.1895
15.4025
14.6159
13.8297
13.0437
12.2578
11.4719
10.6858
9.89939
9.11259
8.32527
7.53728
6.74857
5.95897
5.16846
4.37691
3.58432
2.79056
1.99558
1.19949
0.402469
65.0919
62.7751
61.5743
60.441
59.3113
58.2253
57.1736
56.1463
55.1398
54.1513
53.1784
52.2192
51.2723
50.3364
49.4105
48.4938
47.5855
46.6849
45.7916
44.9049
44.0246
43.1501
42.2812
41.4174
40.5586
39.7044
38.8547
38.0091
37.1674
36.3296
35.4953
34.6644
33.8367
33.0122
32.1906
31.3718
30.5557
29.7421
28.931
28.1222
27.3155
26.5109
25.7083
24.9075
24.1084
23.311
22.515
21.7205
20.9272
20.1352
19.3442
18.5543
17.7652
16.977
16.1894
15.4024
14.6158
13.8296
13.0436
12.2577
11.4718
10.6857
9.89936
9.11257
8.32526
7.53728
6.74857
5.95897
5.16848
4.37693
3.58434
2.79058
1.9956
1.19952
0.402636
65.1082
62.7684
61.5741
60.4406
59.3111
58.2253
57.1736
56.1463
55.1398
54.1513
53.1783
52.2191
51.2721
50.3362
49.4103
48.4935
47.5852
46.6846
45.7912
44.9046
44.0242
43.1498
42.2808
41.4171
40.5583
39.7041
38.8544
38.0088
37.1671
36.3293
35.495
34.6641
33.8365
33.012
32.1904
31.3716
30.5555
29.742
28.9308
28.122
27.3153
26.5108
25.7081
24.9073
24.1083
23.3108
22.5149
21.7204
20.9271
20.1351
19.3441
18.5542
17.7651
16.9769
16.1893
15.4023
14.6158
13.8296
13.0436
12.2577
11.4718
10.6857
9.89935
9.11257
8.32525
7.53728
6.74858
5.95899
5.16849
4.37695
3.58436
2.7906
1.99563
1.19955
0.402775
65.1238
62.7621
61.574
60.4403
59.311
58.2252
57.1736
56.1463
55.1398
54.1512
53.1782
52.219
51.2719
50.3359
49.41
48.4932
47.5848
46.6842
45.7908
44.9042
44.0239
43.1494
42.2805
41.4168
40.558
39.7038
38.8541
38.0085
37.1669
36.329
35.4947
34.6639
33.8363
33.0117
32.1902
31.3714
30.5553
29.7418
28.9307
28.1218
27.3152
26.5106
25.708
24.9072
24.1082
23.3107
22.5148
21.7203
20.927
20.135
19.3441
18.5541
17.7651
16.9768
16.1893
15.4023
14.6157
13.8295
13.0436
12.2577
11.4718
10.6857
9.89934
9.11257
8.32526
7.53729
6.7486
5.95901
5.16852
4.37697
3.58439
2.79063
1.99566
1.19958
0.402892
65.1385
62.7562
61.5738
60.44
59.3109
58.2252
57.1736
56.1463
55.1397
54.1511
53.178
52.2187
51.2716
50.3356
49.4096
48.4928
47.5844
46.6838
45.7905
44.9038
44.0235
43.1491
42.2802
41.4165
40.5577
39.7035
38.8538
38.0082
37.1666
36.3288
35.4945
34.6637
33.8361
33.0116
32.19
31.3712
30.5552
29.7416
28.9305
28.1217
27.3151
26.5105
25.7079
24.9071
24.1081
23.3106
22.5147
21.7202
20.927
20.1349
19.344
18.5541
17.765
16.9768
16.1892
15.4022
14.6157
13.8295
13.0435
12.2577
11.4718
10.6857
9.89935
9.11258
8.32527
7.53731
6.74862
5.95903
5.16854
4.377
3.58441
2.79066
1.99569
1.19961
0.402988
65.1524
62.7508
61.5737
60.4398
59.3108
58.2252
57.1735
56.1462
55.1395
54.1508
53.1777
52.2183
51.2712
50.3351
49.4091
48.4923
47.584
46.6834
45.7901
44.9035
44.0232
43.1487
42.2798
41.4162
40.5574
39.7033
38.8536
38.008
37.1664
36.3286
35.4943
34.6635
33.8359
33.0114
32.1899
31.3711
30.555
29.7415
28.9304
28.1216
27.315
26.5104
25.7078
24.907
24.108
23.3106
22.5146
21.7201
20.9269
20.1349
19.344
18.554
17.765
16.9768
16.1892
15.4022
14.6157
13.8295
13.0435
12.2577
11.4718
10.6857
9.89936
9.11259
8.32529
7.53733
6.74864
5.95905
5.16857
4.37702
3.58444
2.79069
1.99572
1.19963
0.403068
65.1656
62.7458
61.5736
60.4397
59.3107
58.225
57.1734
56.1459
55.1392
54.1504
53.1773
52.2178
51.2707
50.3347
49.4087
48.4919
47.5836
46.683
45.7897
44.9031
44.0229
43.1484
42.2796
41.4159
40.5572
39.7031
38.8533
38.0078
37.1662
36.3284
35.4942
34.6633
33.8358
33.0113
32.1897
31.371
30.5549
29.7414
28.9303
28.1215
27.3149
26.5104
25.7077
24.907
24.1079
23.3105
22.5146
21.7201
20.9269
20.1349
19.3439
18.554
17.765
16.9768
16.1892
15.4022
14.6157
13.8295
13.0435
12.2577
11.4718
10.6857
9.89938
9.11261
8.32531
7.53735
6.74866
5.95908
5.16859
4.37705
3.58447
2.79071
1.99575
1.19966
0.403134
65.178
62.7413
61.5734
60.4395
59.3105
58.2248
57.1731
56.1456
55.1388
54.15
53.1768
52.2174
51.2703
50.3342
49.4083
48.4915
47.5832
46.6827
45.7894
44.9028
44.0226
43.1482
42.2793
41.4157
40.5569
39.7029
38.8532
38.0076
37.1661
36.3283
35.494
34.6632
33.8356
33.0112
32.1896
31.3709
30.5548
29.7413
28.9302
28.1215
27.3148
26.5103
25.7077
24.9069
24.1079
23.3105
22.5146
21.7201
20.9268
20.1348
19.3439
18.554
17.765
16.9767
16.1892
15.4022
14.6157
13.8295
13.0436
12.2577
11.4718
10.6857
9.8994
9.11263
8.32534
7.53738
6.74869
5.9591
5.16862
4.37708
3.5845
2.79074
1.99577
1.19969
0.403188
65.1897
62.7371
61.5732
60.4392
59.3102
58.2245
57.1727
56.1451
55.1383
54.1494
53.1763
52.2169
51.2698
50.3338
49.4079
48.4912
47.5829
46.6824
45.7891
44.9026
44.0223
43.148
42.2791
41.4155
40.5568
39.7027
38.853
38.0075
37.1659
36.3281
35.4939
34.6631
33.8355
33.0111
32.1895
31.3708
30.5548
29.7413
28.9302
28.1214
27.3148
26.5102
25.7077
24.9069
24.1079
23.3104
22.5145
21.72
20.9268
20.1348
19.3439
18.554
17.765
16.9767
16.1892
15.4022
14.6157
13.8295
13.0436
12.2577
11.4718
10.6858
9.89942
9.11265
8.32536
7.5374
6.74871
5.95913
5.16865
4.3771
3.58452
2.79077
1.9958
1.19971
0.403233
65.2006
62.7333
61.573
60.4389
59.3099
58.2241
57.1722
56.1445
55.1377
54.1489
53.1758
52.2164
51.2694
50.3334
49.4075
48.4908
47.5826
46.6821
45.7889
44.9023
44.0221
43.1477
42.2789
41.4153
40.5566
39.7025
38.8529
38.0074
37.1658
36.328
35.4938
34.663
33.8355