/*--------------------------------*- C++ -*----------------------------------*\
  =========                 |
  \\      /  F ield         | OpenFOAM: The Open Source CFD Toolbox
   \\    /   O peration     | Website:  https://openfoam.org
    \\  /    A nd           | Version:  7
     \\/     M anipulation  |
\*---------------------------------------------------------------------------*/
FoamFile
{
    version     2.0;
    format      ascii;
    class       surfaceScalarField;
    location    "600";
    object      phi;
}
// * * * * * * * * * * * * * * * * * * * * * * * * * * * * * * * * * * * * * //

dimensions      [0 3 -1 0 0 0 0];

internalField   nonuniform List<scalar> 
8865
(
0.00452285
0.00168694
0.00415016
0.00037269
0.0039903
0.000159866
0.00389729
9.30109e-05
0.00383339
6.38985e-05
0.00378555
4.78348e-05
0.00374796
3.75907e-05
0.00371747
3.04976e-05
0.00369216
2.53061e-05
0.00367081
2.13471e-05
0.00365258
1.82337e-05
0.00363685
1.57255e-05
0.00362319
1.36651e-05
0.00361124
1.1945e-05
0.00360075
1.04895e-05
0.00359151
9.24361e-06
0.00358334
8.16644e-06
0.00357612
7.22705e-06
0.00356971
6.40152e-06
0.00356404
5.67114e-06
0.00355902
5.02103e-06
0.00355458
4.43924e-06
0.00355067
3.91604e-06
0.00354722
3.44347e-06
0.00354421
3.01491e-06
0.00354158
2.62486e-06
0.00353931
2.26868e-06
0.00353737
1.94245e-06
0.00353573
1.6428e-06
0.00353436
1.36695e-06
0.00353325
1.11241e-06
0.00353237
8.77046e-07
0.00353171
6.5896e-07
0.00353126
4.56677e-07
0.00353099
2.68693e-07
0.0035309
9.35404e-08
0.00353097
-7.03368e-08
0.00353119
-2.22653e-07
0.00353155
-3.64133e-07
0.00353205
-4.95963e-07
0.00353267
-6.19289e-07
0.0035334
-7.34143e-07
0.00353424
-8.41382e-07
0.00353518
-9.41293e-07
0.00353622
-1.03459e-06
0.00353734
-1.12142e-06
0.00353854
-1.20154e-06
0.00353982
-1.27542e-06
0.00354116
-1.34319e-06
0.00354256
-1.4045e-06
0.00354402
-1.46034e-06
0.00354553
-1.50939e-06
0.00354708
-1.55137e-06
0.00354867
-1.58662e-06
0.00355029
-1.61539e-06
0.00355193
-1.63698e-06
0.00355358
-1.65288e-06
0.00355524
-1.66157e-06
0.0035569
-1.66297e-06
0.00355856
-1.65891e-06
0.00356021
-1.64826e-06
0.00356185
-1.63228e-06
0.00356346
-1.61103e-06
0.00356504
-1.58486e-06
0.0035666
-1.55505e-06
0.00356812
-1.52047e-06
0.00356961
-1.48311e-06
0.00357105
-1.44166e-06
0.00357245
-1.39983e-06
0.0035738
-1.35329e-06
0.00357511
-1.3064e-06
0.00357636
-1.25378e-06
0.00357756
-1.19951e-06
0.00357868
-1.12929e-06
-5.71048e-07
0.00573448
0.00277626
0.00532416
0.000783017
0.00510631
0.00037771
0.00497607
0.000223255
0.00488795
0.000152018
0.00482307
0.000112709
0.00477273
8.79388e-05
0.00473224
7.0979e-05
0.00469887
5.86788e-05
0.00467085
4.93648e-05
0.00464701
4.20794e-05
0.0046265
3.62353e-05
0.00460871
3.14508e-05
0.00459319
2.74677e-05
0.00457958
2.4105e-05
0.00456759
2.12321e-05
0.004557
1.87524e-05
0.00454763
1.65929e-05
0.00453934
1.46975e-05
0.00453199
1.30223e-05
0.00452548
1.15327e-05
0.00451971
1.02007e-05
0.00451463
9.0038e-06
0.00451015
7.92342e-06
0.00450622
6.94426e-06
0.00450279
6.05356e-06
0.00449982
5.2406e-06
0.00449726
4.49635e-06
0.00449509
3.81302e-06
0.00449328
3.18418e-06
0.00449178
2.60409e-06
0.00449059
2.06787e-06
0.00448968
1.57118e-06
0.00448903
1.11052e-06
0.00448861
6.82533e-07
0.00448842
2.84207e-07
0.00448844
-8.82271e-08
0.00448865
-4.3511e-07
0.00448905
-7.5747e-07
0.00448961
-1.05774e-06
0.00449033
-1.33834e-06
0.00449119
-1.59982e-06
0.00449219
-1.84392e-06
0.00449332
-2.07144e-06
0.00449457
-2.28375e-06
0.00449593
-2.48139e-06
0.0044974
-2.66417e-06
0.00449895
-2.83294e-06
0.0045006
-2.98806e-06
0.00450232
-3.12902e-06
0.00450412
-3.25738e-06
0.00450598
-3.3711e-06
0.0045079
-3.46976e-06
0.00450987
-3.55381e-06
0.00451188
-3.62359e-06
0.00451392
-3.67793e-06
0.00451598
-3.71909e-06
0.00451807
-3.74471e-06
0.00452016
-3.75464e-06
0.00452225
-3.75178e-06
0.00452434
-3.73434e-06
0.00452641
-3.70439e-06
0.00452846
-3.66216e-06
0.00453049
-3.60826e-06
0.00453248
-3.54483e-06
0.00453443
-3.47029e-06
0.00453633
-3.38814e-06
0.00453819
-3.29621e-06
0.00453999
-3.20079e-06
0.00454173
-3.09517e-06
0.00454341
-2.98691e-06
0.00454502
-2.86701e-06
0.00454656
-2.7398e-06
0.00454802
-2.58373e-06
-1.28963e-06
0.00677261
0.00350217
0.00634446
0.00121116
0.00607519
0.000646986
0.00590745
0.000390987
0.00579398
0.000265489
0.00571123
0.000195464
0.00564762
0.00015155
0.00559688
0.000121718
0.00555531
0.000100246
0.00552058
8.40915e-05
0.00549114
7.15231e-05
0.00546589
6.14851e-05
0.00544404
5.32969e-05
0.00542501
4.65006e-05
0.00540834
4.07775e-05
0.00539367
3.58985e-05
0.00538073
3.1695e-05
0.00536928
2.80402e-05
0.00535914
2.48369e-05
0.00535016
2.20093e-05
0.00534219
1.94976e-05
0.00533514
1.72539e-05
0.0053289
1.52395e-05
0.0053234
1.34226e-05
0.00531857
1.17771e-05
0.00531434
1.02813e-05
0.00531067
8.91677e-06
0.00530749
7.66824e-06
0.00530478
6.52248e-06
0.0053025
5.46851e-06
0.00530061
4.49661e-06
0.00529908
3.59852e-06
0.00529788
2.76693e-06
0.005297
1.99585e-06
0.0052964
1.27961e-06
0.00529607
6.13399e-07
0.00529599
-9.06105e-09
0.00529614
-5.89498e-07
0.00529652
-1.12929e-06
0.00529709
-1.63192e-06
0.00529785
-2.10126e-06
0.00529879
-2.53873e-06
0.0052999
-2.9471e-06
0.00530115
-3.32784e-06
0.00530255
-3.68312e-06
0.00530408
-4.01395e-06
0.00530574
-4.32048e-06
0.00530751
-4.604e-06
0.00530939
-4.86513e-06
0.00531136
-5.10342e-06
0.00531343
-5.32083e-06
0.00531557
-5.51491e-06
0.00531779
-5.68513e-06
0.00532006
-5.83199e-06
0.0053224
-5.95574e-06
0.00532477
-6.05486e-06
0.00532719
-6.13195e-06
0.00532963
-6.18402e-06
0.00533208
-6.21079e-06
0.00533455
-6.21571e-06
0.00533701
-6.19653e-06
0.00533946
-6.15584e-06
0.00534189
-6.09396e-06
0.0053443
-6.01177e-06
0.00534666
-5.91198e-06
0.00534899
-5.793e-06
0.00535126
-5.65926e-06
0.00535347
-5.5086e-06
0.00535562
-5.3489e-06
0.0053577
-5.17249e-06
0.0053597
-4.98902e-06
0.00536162
-4.78757e-06
0.00536345
-4.57008e-06
0.00536517
-4.31158e-06
-2.13741e-06
0.00776838
0.00397374
0.00736522
0.00161432
0.00705881
0.000953393
0.00685371
0.000596095
0.00671229
0.00040691
0.00660913
0.000298623
0.00653023
0.000230446
0.00646767
0.000184282
0.00641669
0.000151228
0.00637428
0.000126493
0.00633846
0.000107343
0.00630784
9.2113e-05
0.0062814
7.97342e-05
0.00625841
6.94918e-05
0.00623829
6.08895e-05
0.00622062
5.35729e-05
0.00620503
4.72819e-05
0.00619125
4.18216e-05
0.00617905
3.70432e-05
0.00616822
3.2831e-05
0.00615863
2.9094e-05
0.00615012
2.57594e-05
0.00614259
2.27684e-05
0.00613594
2.00732e-05
0.00613009
1.76342e-05
0.00612495
1.54185e-05
0.00612047
1.33987e-05
0.00611658
1.15517e-05
0.00611325
9.85774e-06
0.00611042
8.30017e-06
0.00610805
6.86453e-06
0.00610611
5.53844e-06
0.00610456
4.31101e-06
0.00610339
3.1732e-06
0.00610255
2.11663e-06
0.00610203
1.13416e-06
0.0061018
2.17226e-07
0.00610185
-6.38382e-07
0.00610216
-1.43506e-06
0.0061027
-2.17661e-06
0.00610347
-2.8687e-06
0.00610444
-3.51387e-06
0.00610561
-4.11608e-06
0.00610696
-4.67773e-06
0.00610848
-5.20189e-06
0.00611016
-5.69031e-06
0.00611198
-6.14354e-06
0.00611394
-6.56351e-06
0.00611603
-6.95122e-06
0.00611823
-7.30635e-06
0.00612054
-7.63133e-06
0.00612295
-7.92339e-06
0.00612545
-8.18187e-06
0.00612802
-8.40725e-06
0.00613066
-8.59964e-06
0.00613337
-8.75703e-06
0.00613612
-8.88222e-06
0.0061389
-8.97148e-06
0.00614172
-9.02421e-06
0.00614455
-9.04424e-06
0.00614738
-9.02873e-06
0.0061502
-8.98065e-06
0.00615301
-8.90036e-06
0.00615579
-8.78888e-06
0.00615853
-8.64953e-06
0.00616122
-8.48067e-06
0.00616384
-8.28801e-06
0.00616641
-8.06905e-06
0.00616889
-7.83374e-06
0.00617129
-7.5734e-06
0.0061736
-7.30037e-06
0.00617581
-7.00144e-06
0.00617792
-6.67598e-06
0.0061799
-6.29693e-06
-3.10931e-06
0.00876053
0.0042679
0.00841816
0.00195669
0.00809688
0.00127467
0.00785897
0.000834004
0.00768847
0.000577413
0.00756264
0.000424452
0.00746628
0.000326806
0.00739005
0.000260516
0.00732813
0.000213142
0.00727681
0.000177816
0.00723358
0.00015057
0.00719672
0.00012898
0.00716496
0.000111491
0.00713739
9.7063e-05
0.0071133
8.49771e-05
0.00709215
7.47211e-05
0.00707351
6.59208e-05
0.00705704
5.82964e-05
0.00704245
5.16348e-05
0.00702951
4.57711e-05
0.00701803
4.05756e-05
0.00700784
3.5945e-05
0.00699881
3.17959e-05
0.00699083
2.80606e-05
0.00698378
2.46833e-05
0.00697758
2.16177e-05
0.00697215
1.88251e-05
0.00696743
1.62731e-05
0.00696335
1.39339e-05
0.00695987
1.17842e-05
0.00695693
9.80383e-06
0.00695449
7.97534e-06
0.00695252
6.28358e-06
0.00695098
4.71586e-06
0.00694983
3.26054e-06
0.00694906
1.90768e-06
0.00694863
6.46403e-07
0.00694852
-5.30827e-07
0.00694872
-1.62823e-06
0.00694919
-2.64966e-06
0.00694992
-3.60258e-06
0.0069509
-4.49096e-06
0.0069521
-5.3202e-06
0.00695352
-6.0938e-06
0.00695513
-6.816e-06
0.00695693
-7.48939e-06
0.00695891
-8.11523e-06
0.00696104
-8.69616e-06
0.00696332
-9.23368e-06
0.00696574
-9.72775e-06
0.00696829
-1.01812e-05
0.00697096
-1.05912e-05
0.00697373
-1.09567e-05
0.00697661
-1.12783e-05
0.00697956
-1.15557e-05
0.00698259
-1.17863e-05
0.00698568
-1.19729e-05
0.00698882
-1.21109e-05
0.006992
-1.21993e-05
0.00699519
-1.2242e-05
0.0069984
-1.22355e-05
0.0070016
-1.2183e-05
0.00700479
-1.20849e-05
0.00700794
-1.19423e-05
0.00701105
-1.17592e-05
0.00701411
-1.15341e-05
0.00701709
-1.12736e-05
0.00702
-1.09757e-05
0.00702282
-1.0652e-05
0.00702554
-1.02936e-05
0.00702815
-9.91497e-06
0.00703065
-9.50182e-06
0.00703302
-9.04942e-06
0.00703526
-8.53083e-06
-4.20005e-06
0.00977742
0.00444047
0.00951399
0.00222012
0.00920569
0.00158298
0.00894539
0.0010943
0.00874723
0.000775576
0.0085973
0.000574375
0.00848145
0.000442657
0.00838959
0.000352373
0.00831504
0.000287698
0.00825334
0.000239516
0.00820147
0.000202437
0.00815732
0.000173135
0.00811935
0.000149463
0.00808642
0.000129986
0.00805769
0.000113709
0.00803248
9.99273e-05
0.00801028
8.8125e-05
0.00799066
7.79179e-05
0.00797328
6.90143e-05
0.00795786
6.11885e-05
0.00794417
5.42636e-05
0.00793202
4.80989e-05
0.00792123
4.25814e-05
0.00791168
3.76191e-05
0.00790322
3.31365e-05
0.00789577
2.90709e-05
0.00788922
2.53703e-05
0.00788351
2.19908e-05
0.00787855
1.88951e-05
0.00787428
1.60518e-05
0.00787065
1.34338e-05
0.00786761
1.10178e-05
0.00786511
8.78338e-06
0.00786311
6.71358e-06
0.00786158
4.79284e-06
0.00786048
3.00786e-06
0.00785978
1.34522e-06
0.00785945
-2.0639e-07
0.00785948
-1.65408e-06
0.00785983
-3.00202e-06
0.00786049
-4.25919e-06
0.00786143
-5.43126e-06
0.00786263
-6.52535e-06
0.00786408
-7.54634e-06
0.00786577
-8.49982e-06
0.00786767
-9.38951e-06
0.00786977
-1.02175e-05
0.00787206
-1.09874e-05
0.00787453
-1.17012e-05
0.00787716
-1.23594e-05
0.00787995
-1.29653e-05
0.00788287
-1.35156e-05
0.00788592
-1.40094e-05
0.00788909
-1.44469e-05
0.00789236
-1.48275e-05
0.00789572
-1.51477e-05
0.00789916
-1.54102e-05
0.00790266
-1.56094e-05
0.0079062
-1.57435e-05
0.00790978
-1.58166e-05
0.00791337
-1.58242e-05
0.00791696
-1.57699e-05
0.00792053
-1.56539e-05
0.00792406
-1.54776e-05
0.00792755
-1.52454e-05
0.00793097
-1.49563e-05
0.00793432
-1.46183e-05
0.00793757
-1.42295e-05
0.00794072
-1.38036e-05
0.00794376
-1.33315e-05
0.00794667
-1.28309e-05
0.00794946
-1.22854e-05
0.00795209
-1.16867e-05
0.00795457
-1.10087e-05
-5.40893e-06
0.0108418
0.0045325
0.0106586
0.00240329
0.0103907
0.00185088
0.0101252
0.00135979
0.00990488
0.000995899
0.00973121
0.000748042
0.00959448
0.000579386
0.00948519
0.000461659
0.00939623
0.000376666
0.00932255
0.000313187
0.00926065
0.000264341
0.009208
0.000225789
0.00916276
0.000194702
0.00912357
0.000169174
0.00908939
0.000147885
0.00905943
0.000129893
0.00903304
0.000114513
0.00900972
0.000101234
0.00898907
8.96694e-05
0.00897074
7.95188e-05
0.00895445
7.05485e-05
0.00893998
6.25726e-05
0.00892712
5.54417e-05
0.0089157
4.90349e-05
0.00890559
4.32527e-05
0.00889664
3.80131e-05
0.00888877
3.32475e-05
0.00888186
2.88985e-05
0.00887584
2.49174e-05
0.00887063
2.12632e-05
0.00886616
1.79003e-05
0.00886238
1.47984e-05
0.00885923
1.19311e-05
0.00885667
9.27603e-06
0.00885465
6.81309e-06
0.00885313
4.52497e-06
0.00885208
2.39506e-06
0.00885147
4.08592e-07
0.00885126
-1.44587e-06
0.00885143
-3.1739e-06
0.00885196
-4.78521e-06
0.00885281
-6.28755e-06
0.00885398
-7.69e-06
0.00885543
-8.99914e-06
0.00885715
-1.02222e-05
0.00885913
-1.13641e-05
0.00886134
-1.24283e-05
0.00886377
-1.34192e-05
0.00886641
-1.43398e-05
0.00886924
-1.51908e-05
0.00887225
-1.59762e-05
0.00887543
-1.66926e-05
0.00887876
-1.73386e-05
0.00888222
-1.79142e-05
0.00888581
-1.84181e-05
0.00888951
-1.88461e-05
0.0088933
-1.92003e-05
0.00889717
-1.9474e-05
0.00890109
-1.96646e-05
0.00890505
-1.97759e-05
0.00890903
-1.98029e-05
0.00891301
-1.97491e-05
0.00891697
-1.96146e-05
0.00892089
-1.94011e-05
0.00892476
-1.91138e-05
0.00892856
-1.87522e-05
0.00893226
-1.83257e-05
0.00893587
-1.78331e-05
0.00893935
-1.72902e-05
0.00894271
-1.66885e-05
0.00894593
-1.6048e-05
0.00894899
-1.5352e-05
0.00895189
-1.45868e-05
0.00895461
-1.3729e-05
-6.73404e-06
0.0119752
0.00457226
0.0118614
0.00251703
0.0116523
0.00206002
0.0114041
0.00160801
0.0111727
0.00122725
0.0109787
0.00094203
0.0108211
0.000736974
0.0106932
0.000589616
0.0105882
0.000481647
0.0105009
0.000400442
0.0104275
0.000337776
0.010365
0.000288286
0.0103113
0.000248398
0.0102648
0.00021568
0.0102243
0.000188432
0.0101887
0.000165439
0.0101574
0.000145814
0.0101298
0.000128895
0.0101052
0.00011418
0.0100835
0.000101282
0.0100641
8.98972e-05
0.0100469
7.97864e-05
0.0100316
7.07567e-05
0.010018
6.26517e-05
0.0100059
5.53437e-05
0.00999518
4.87271e-05
0.00998571
4.27139e-05
0.00997738
3.72304e-05
0.00997008
3.22142e-05
0.00996373
2.76126e-05
0.00995825
2.33803e-05
0.00995357
1.94786e-05
0.00994963
1.58736e-05
0.00994637
1.25369e-05
0.00994374
9.44284e-06
0.0099417
6.56939e-06
0.0099402
3.89593e-06
0.0099392
1.40454e-06
0.00993868
-9.21721e-07
0.00993859
-3.09141e-06
0.00993892
-5.1145e-06
0.00993964
-7.00091e-06
0.00994071
-8.762e-06
0.00994211
-1.04064e-05
0.00994384
-1.19431e-05
0.00994585
-1.33789e-05
0.00994814
-1.47184e-05
0.00995069
-1.59673e-05
0.00995348
-1.71295e-05
0.00995649
-1.82064e-05
0.00995972
-1.92023e-05
0.00996314
-2.01137e-05
0.00996674
-2.0939e-05
0.0099705
-2.16776e-05
0.00997441
-2.23274e-05
0.00997845
-2.28834e-05
0.0099826
-2.33467e-05
0.00998683
-2.37095e-05
0.00999114
-2.39683e-05
0.00999549
-2.41265e-05
0.00999986
-2.41782e-05
0.0100042
-2.41271e-05
0.0100086
-2.39733e-05
0.0100129
-2.3719e-05
0.0100172
-2.33701e-05
0.0100214
-2.29269e-05
0.0100254
-2.24005e-05
0.0100294
-2.17907e-05
0.0100332
-2.11157e-05
0.0100369
-2.03674e-05
0.0100404
-1.95695e-05
0.0100438
-1.87039e-05
0.0100469
-1.77523e-05
0.0100499
-1.6694e-05
-8.17828e-06
0.0131983
0.00457686
0.0131373
0.00257801
0.0129915
0.00220581
0.0127826
0.00181691
0.0125574
0.00145244
0.0123512
0.00114828
0.0121753
0.000912857
0.0120287
0.000736235
0.0119067
0.000603686
0.0118044
0.000502686
0.011718
0.000424209
0.0116442
0.000362025
0.0115808
0.000311841
0.0115258
0.00027067
0.0114778
0.0002364
0.0114358
0.000207506
0.0113987
0.00018287
0.011366
0.000161655
0.0113369
0.000143224
0.0113111
0.000127088
0.0112881
0.00011286
0.0112677
0.000100238
0.0112495
8.89769e-05
0.0112332
7.88784e-05
0.0112188
6.9781e-05
0.011206
6.15511e-05
0.0111946
5.40775e-05
0.0111846
4.72672e-05
0.0111758
4.10414e-05
0.011168
3.53338e-05
0.0111613
3.00873e-05
0.0111555
2.52532e-05
0.0111506
2.07889e-05
0.0111465
1.66586e-05
0.0111431
1.28302e-05
0.0111404
9.27598e-06
0.0111383
5.97054e-06
0.0111369
2.89251e-06
0.0111359
1.91558e-08
0.0111355
-2.66287e-06
0.0111355
-5.16451e-06
0.011136
-7.49734e-06
0.0111369
-9.67534e-06
0.0111382
-1.17095e-05
0.0111399
-1.36111e-05
0.0111419
-1.53888e-05
0.0111443
-1.70488e-05
0.0111469
-1.85983e-05
0.0111498
-2.00422e-05
0.011153
-2.13827e-05
0.0111564
-2.26246e-05
0.01116
-2.37641e-05
0.0111639
-2.47994e-05
0.011168
-2.57292e-05
0.0111722
-2.65505e-05
0.0111766
-2.7257e-05
0.0111811
-2.7849e-05
0.0111857
-2.83173e-05
0.0111904
-2.86574e-05
0.0111951
-2.88721e-05
0.0111999
-2.89548e-05
0.0112047
-2.89093e-05
0.0112094
-2.87358e-05
0.0112141
-2.84371e-05
0.0112188
-2.802e-05
0.0112234
-2.74861e-05
0.0112278
-2.68483e-05
0.0112321
-2.61077e-05
0.0112363
-2.52851e-05
0.0112403
-2.43737e-05
0.0112441
-2.34002e-05
0.0112478
-2.23466e-05
0.0112512
-2.11882e-05
0.0112544
-1.99091e-05
-9.74302e-06
0.0145294
0.00455582
0.0145054
0.00260198
0.0144157
0.00229555
0.0142598
0.00197282
0.0140612
0.00165105
0.0138564
0.00135304
0.0136688
0.00110045
0.0135058
0.000899213
0.0133669
0.000742613
0.0132489
0.000620723
0.0131482
0.000524839
0.0130619
0.000448325
0.0129874
0.000386336
0.0129227
0.00033538
0.0128662
0.00029293
0.0128166
0.000257137
0.0127728
0.000226629
0.0127341
0.000200373
0.0126997
0.000177581
0.0126692
0.000157643
0.012642
0.000140079
0.0126177
0.00012451
0.012596
0.000110631
0.0125767
9.81967e-05
0.0125595
8.70036e-05
0.0125442
7.68855e-05
0.0125305
6.77041e-05
0.0125185
5.93433e-05
0.0125078
5.17051e-05
0.0124984
4.47069e-05
0.0124902
3.82777e-05
0.0124831
3.23568e-05
0.012477
2.68917e-05
0.0124718
2.18376e-05
0.0124675
1.71547e-05
0.012464
1.28089e-05
0.0124612
8.76875e-06
0.0124591
5.00847e-06
0.0124576
1.50078e-06
0.0124567
-1.77477e-06
0.0124564
-4.83249e-06
0.0124566
-7.6841e-06
0.0124572
-1.03466e-05
0.0124583
-1.28338e-05
0.0124599
-1.51595e-05
0.0124618
-1.73348e-05
0.0124642
-1.93675e-05
0.0124668
-2.12668e-05
0.0124698
-2.30386e-05
0.0124731
-2.4686e-05
0.0124767
-2.62145e-05
0.0124806
-2.762e-05
0.0124847
-2.89003e-05
0.012489
-3.00534e-05
0.0124935
-3.10751e-05
0.0124982
-3.19579e-05
0.0125031
-3.27011e-05
0.0125081
-3.32938e-05
0.0125131
-3.37302e-05
0.0125183
-3.40129e-05
0.0125234
-3.41343e-05
0.0125286
-3.40984e-05
0.0125338
-3.39058e-05
0.0125389
-3.35598e-05
0.012544
-3.30688e-05
0.0125489
-3.24356e-05
0.0125538
-3.16754e-05
0.0125584
-3.07907e-05
0.012563
-2.98056e-05
0.0125673
-2.87145e-05
0.0125714
-2.75484e-05
0.0125754
-2.62881e-05
0.0125791
-2.49036e-05
0.0125826
-2.33834e-05
-1.14349e-05
0.0159844
0.00451431
0.0159863
0.00260012
0.0159396
0.0023422
0.015838
0.00207445
0.0156829
0.00180618
0.0154978
0.00153813
0.0153103
0.00128793
0.015137
0.00107255
0.0149835
0.000896033
0.0148502
0.000754095
0.0147348
0.000640183
0.014635
0.000548156
0.0145483
0.000473036
0.0144727
0.000411005
0.0144064
0.000359191
0.0143481
0.00031544
0.0142966
0.000278124
0.014251
0.000246004
0.0142104
0.000218126
0.0141743
0.000193748
0.0141421
0.000172285
0.0141134
0.000153272
0.0140877
0.000136333
0.0140647
0.000121167
0.0140442
0.000107525
0.0140259
9.52009e-05
0.0140095
8.40249e-05
0.013995
7.38542e-05
0.0139822
6.45681e-05
0.0139708
5.60648e-05
0.0139608
4.8257e-05
0.0139521
4.10702e-05
0.0139446
3.44396e-05
0.0139381
2.83103e-05
0.0139326
2.26335e-05
0.0139281
1.7367e-05
0.0139244
1.24728e-05
0.0139214
7.91936e-06
0.0139193
3.6751e-06
0.0139178
-2.88257e-07
0.0139169
-3.99108e-06
0.0139167
-7.44549e-06
0.013917
-1.0671e-05
0.0139179
-1.36847e-05
0.0139192
-1.65033e-05
0.013921
-1.91405e-05
0.0139233
-2.16064e-05
0.0139259
-2.39122e-05
0.0139289
-2.60651e-05
0.0139323
-2.80694e-05
0.013936
-2.9931e-05
0.0139401
-3.1646e-05
0.0139444
-3.32113e-05
0.0139489
-3.46245e-05
0.0139537
-3.58801e-05
0.0139588
-3.69689e-05
0.0139639
-3.7889e-05
0.0139693
-3.86281e-05
0.0139747
-3.9179e-05
0.0139803
-3.95437e-05
0.0139858
-3.97139e-05
0.0139914
-3.96938e-05
0.013997
-3.94844e-05
0.0140025
-3.90901e-05
0.014008
-3.85206e-05
0.0140133
-3.77807e-05
0.0140186
-3.6888e-05
0.0140236
-3.58472e-05
0.0140285
-3.46855e-05
0.0140332
-3.33993e-05
0.0140377
-3.20236e-05
0.0140419
-3.05395e-05
0.0140459
-2.891e-05
0.0140497
-2.7129e-05
-1.32586e-05
0.0175785
0.00445507
0.0175995
0.00257919
0.0175837
0.00235791
0.0175281
0.00213005
0.0174232
0.00191109
0.0172751
0.00168623
0.0171043
0.00145878
0.0169315
0.00124532
0.0167696
0.00105797
0.0166236
0.000900065
0.0164944
0.000769374
0.0163809
0.000661678
0.0162813
0.000572637
0.0161938
0.0004985
0.0161167
0.000436243
0.0160487
0.000383494
0.0159884
0.000338409
0.0159348
0.000299552
0.0158872
0.000265805
0.0158446
0.000236287
0.0158066
0.000210298
0.0157726
0.000187279
0.0157422
0.00016678
0.0157149
0.000148433
0.0156905
0.000131937
0.0156686
0.000117043
0.0156491
0.000103542
0.0156317
9.12625e-05
0.0156162
8.00565e-05
0.0156025
6.98001e-05
0.0155904
6.03871e-05
0.0155797
5.17266e-05
0.0155704
4.37399e-05
0.0155624
3.63597e-05
0.0155555
2.95269e-05
0.0155496
2.31901e-05
0.0155448
1.73031e-05
0.0155409
1.18278e-05
0.0155379
6.727e-06
0.0155356
1.96656e-06
0.0155341
-2.4833e-06
0.0155333
-6.63815e-06
0.0155331
-1.05179e-05
0.0155336
-1.41432e-05
0.0155346
-1.75344e-05
0.0155362
-2.07083e-05
0.0155383
-2.36773e-05
0.0155408
-2.6455e-05
0.0155438
-2.90506e-05
0.0155472
-3.1469e-05
0.015551
-3.37175e-05
0.0155551
-3.57918e-05
0.0155596
-3.76885e-05
0.0155644
-3.94042e-05
0.0155694
-4.0932e-05
0.0155747
-4.22615e-05
0.0155802
-4.3389e-05
0.0155859
-4.43007e-05
0.0155917
-4.49881e-05
0.0155976
-4.54524e-05
0.0156036
-4.56846e-05
0.0156096
-4.56894e-05
0.0156156
-4.54684e-05
0.0156215
-4.5027e-05
0.0156274
-4.4377e-05
0.0156331
-4.3525e-05
0.0156387
-4.24919e-05
0.0156441
-4.12843e-05
0.0156494
-3.99336e-05
0.0156544
-3.84382e-05
0.0156592
-3.68379e-05
0.0156638
-3.51137e-05
0.0156681
-3.32218e-05
0.0156722
-3.11609e-05
-1.52243e-05
0.0193271
0.00437951
0.0193633
0.00254302
0.0193699
0.00235126
0.0193491
0.00215085
0.0192904
0.00196985
0.0191886
0.00178799
0.0190512
0.00159619
0.0188945
0.00140198
0.0187348
0.00121769
0.0185826
0.00105228
0.0184429
0.000909105
0.0183171
0.00078748
0.0182049
0.000684848
0.0181051
0.000598216
0.0180166
0.00052479
0.0179379
0.000462184
0.0178679
0.000408444
0.0178054
0.000361996
0.0177496
0.000321578
0.0176998
0.000286181
0.0176551
0.000254993
0.017615
0.000227358
0.017579
0.000202744
0.0175467
0.000180714
0.0175178
0.000160909
0.0174918
0.000143032
0.0174685
0.000126832
0.0174476
0.000112102
0.017429
9.86648e-05
0.0174125
8.63707e-05
0.0173978
7.50917e-05
0.0173848
6.47181e-05
0.0173734
5.5155e-05
0.0173634
4.63211e-05
0.0173548
3.81449e-05
0.0173474
3.05644e-05
0.0173412
2.35241e-05
0.017336
1.69777e-05
0.0173319
1.08815e-05
0.0173286
5.19601e-06
0.0173263
-1.18816e-07
0.0173247
-5.08586e-06
0.0173239
-9.7254e-06
0.0173239
-1.40613e-05
0.0173244
-1.81175e-05
0.0173256
-2.19144e-05
0.0173274
-2.54676e-05
0.0173298
-2.8793e-05
0.0173326
-3.19019e-05
0.017336
-3.48008e-05
0.0173397
-3.74979e-05
0.0173439
-3.9989e-05
0.0173485
-4.22702e-05
0.0173534
-4.43375e-05
0.0173587
-4.61824e-05
0.0173642
-4.77929e-05
0.01737
-4.91639e-05
0.017376
-5.02798e-05
0.0173821
-5.11305e-05
0.0173884
-5.17168e-05
0.0173947
-5.20288e-05
0.0174011
-5.20719e-05
0.0174075
-5.18483e-05
0.0174138
-5.13648e-05
0.0174201
-5.06353e-05
0.0174262
-4.9669e-05
0.0174322
-4.849e-05
0.0174381
-4.71079e-05
0.0174437
-4.5558e-05
0.0174491
-4.38415e-05
0.0174543
-4.20031e-05
0.0174592
-4.00245e-05
0.0174638
-3.78542e-05
0.0174681
-3.54955e-05
-1.73384e-05
0.0212463
0.00428825
0.0212957
0.00249367
0.0213195
0.00232744
0.0213242
0.00214617
0.0213021
0.00199196
0.0212453
0.00184475
0.0211515
0.00169
0.021027
0.00152649
0.0208846
0.00136013
0.0207372
0.00119968
0.020594
0.0010523
0.02046
0.000921453
0.0203373
0.000807544
0.0202262
0.000709285
0.0201263
0.000624735
0.0200366
0.000551878
0.0199562
0.000488871
0.019884
0.000434123
0.0198193
0.000386304
0.0197612
0.000344313
0.0197089
0.000307245
0.0196619
0.000274358
0.0196196
0.000245039
0.0195816
0.000218784
0.0195473
0.000195173
0.0195165
0.000173856
0.0194888
0.000154539
0.0194639
0.000136976
0.0194416
0.000120956
0.0194217
0.000106301
0.0194039
9.28592e-05
0.0193881
8.04992e-05
0.0193742
6.91077e-05
0.0193619
5.85872e-05
0.0193512
4.88522e-05
0.0193419
3.98286e-05
0.019334
3.14498e-05
0.0193273
2.36603e-05
0.0193218
1.64083e-05
0.0193173
9.64793e-06
0.0193139
3.33211e-06
0.0193114
-2.57391e-06
0.0193097
-8.09569e-06
0.0193089
-1.32564e-05
0.0193089
-1.80846e-05
0.0193096
-2.26046e-05
0.019311
-2.68353e-05
0.019313
-3.07959e-05
0.0193156
-3.44998e-05
0.0193187
-3.79555e-05
0.0193224
-4.11723e-05
0.0193266
-4.41465e-05
0.0193312
-4.68738e-05
0.0193362
-4.93494e-05
0.0193415
-5.15636e-05
0.0193473
-5.35026e-05
0.0193533
-5.51597e-05
0.0193595
-5.65177e-05
0.0193659
-5.75649e-05
0.0193725
-5.83014e-05
0.0193792
-5.87168e-05
0.0193859
-5.88168e-05
0.0193927
-5.86046e-05
0.0193994
-5.80887e-05
0.0194061
-5.72855e-05
0.0194126
-5.62067e-05
0.019419
-5.48805e-05
0.0194252
-5.33192e-05
0.0194312
-5.15633e-05
0.019437
-4.96165e-05
0.0194425
-4.75296e-05
0.0194478
-4.52844e-05
0.0194528
-4.28223e-05
0.0194574
-4.01489e-05
-1.96123e-05
0.0233536
0.00418142
0.0234151
0.0024322
0.0234532
0.00228933
0.0234772
0.00212214
0.0234826
0.00198665
0.0234628
0.0018645
0.0234125
0.0017403
0.02333
0.00160898
0.0232201
0.00147005
0.0230924
0.00132737
0.0229574
0.00118727
0.0228234
0.00105551
0.0226954
0.000935567
0.022576
0.000828655
0.0224663
0.000734457
0.0223663
0.000651894
0.0222755
0.00057961
0.0221934
0.000516238
0.0221192
0.000460522
0.0220521
0.000411361
0.0219916
0.000367808
0.0219369
0.000329066
0.0218874
0.00029446
0.0218428
0.000263425
0.0218025
0.000235487
0.0217661
0.000210244
0.0217333
0.000187358
0.0217037
0.000166541
0.0216771
0.000147551
0.0216532
0.000130177
0.0216319
0.00011424
0.0216128
9.95861e-05
0.0215958
8.60813e-05
0.0215808
7.36102e-05
0.0215676
6.20714e-05
0.021556
5.13769e-05
0.021546
4.1448e-05
0.0215375
3.22183e-05
0.0215302
2.36267e-05
0.0215243
1.56195e-05
0.0215195
8.14376e-06
0.0215157
1.15299e-06
0.021513
-5.38916e-06
0.0215113
-1.15066e-05
0.0215104
-1.723e-05
0.0215104
-2.25884e-05
0.0215112
-2.76043e-05
0.0215127
-3.23007e-05
0.0215149
-3.66937e-05
0.0215177
-4.0794e-05
0.0215211
-4.46123e-05
0.0215251
-4.81458e-05
0.0215297
-5.13901e-05
0.0215347
-5.43399e-05
0.0215401
-5.69839e-05
0.0215459
-5.9307e-05
0.021552
-6.13009e-05
0.0215584
-6.29465e-05
0.0215651
-6.42307e-05
0.021572
-6.5153e-05
0.021579
-6.5702e-05
0.021586
-6.58844e-05
0.0215931
-6.57042e-05
0.0216002
-6.51718e-05
0.0216072
-6.43061e-05
0.0216141
-6.31223e-05
0.0216209
-6.16522e-05
0.0216275
-5.99121e-05
0.0216339
-5.79472e-05
0.02164
-5.5765e-05
0.0216459
-5.34221e-05
0.0216515
-5.09017e-05
0.0216569
-4.81369e-05
0.0216618
-4.51342e-05
-2.20506e-05
0.025668
0.00405883
0.0257411
0.00235909
0.025792
0.00223841
0.0258318
0.00208235
0.025858
0.00196046
0.0258665
0.00185601
0.0258526
0.00175414
0.0258122
0.00164945
0.0257435
0.00153871
0.0256497
0.00142115
0.0255378
0.00129914
0.0254163
0.00117709
0.0252923
0.00105955
0.0251711
0.000949846
0.0250558
0.000849723
0.0249481
0.000759626
0.0248485
0.000679192
0.0247571
0.000607648
0.0246736
0.000544065
0.0245974
0.000487505
0.0245281
0.000437091
0.0244652
0.000392034
0.024408
0.000351644
0.0243561
0.000315323
0.024309
0.000282556
0.0242664
0.000252903
0.0242277
0.000225985
0.0241928
0.000201478
0.0241612
0.000179105
0.0241328
0.000158625
0.0241072
0.000139831
0.0240842
0.000122546
0.0240637
0.000106613
0.0240454
9.18969e-05
0.0240292
7.828e-05
0.0240149
6.56586e-05
0.0240024
5.39407e-05
0.0239916
4.30476e-05
0.0239823
3.29077e-05
0.0239745
2.34583e-05
0.023968
1.46389e-05
0.0239628
6.39639e-06
0.0239587
-1.32112e-06
0.0239557
-8.5453e-06
0.0239538
-1.53052e-05
0.0239528
-2.16343e-05
0.0239528
-2.75592e-05
0.0239536
-3.31067e-05
0.0239552
-3.82966e-05
0.0239576
-4.31421e-05
0.0239606
-4.76559e-05
0.0239643
-5.18362e-05
0.0239686
-5.56789e-05
0.0239734
-5.91785e-05
0.0239788
-6.23224e-05
0.0239845
-6.50945e-05
0.0239907
-6.74846e-05
0.0239973
-6.94721e-05
0.0240041
-7.10423e-05
0.0240111
-7.2194e-05
0.0240183
-7.29153e-05
0.0240256
-7.32134e-05
0.024033
-7.30934e-05
0.0240404
-7.25678e-05
0.0240478
-7.16582e-05
0.024055
-7.03832e-05
0.0240622
-6.87794e-05
0.0240691
-6.68663e-05
0.0240759
-6.46953e-05
0.0240824
-6.22774e-05
0.0240886
-5.96762e-05
0.0240946
-5.68754e-05
0.0241003
-5.38013e-05
0.0241056
-5.04569e-05
-2.46603e-05
0.02821
0.00392004
0.0282946
0.00227448
0.0283577
0.00217531
0.0284114
0.00202872
0.0284545
0.00191736
0.0284846
0.00182582
0.028499
0.00173975
0.0284939
0.00165457
0.0284658
0.00156685
0.0284129
0.00147399
0.0283369
0.00137516
0.0282424
0.00127159
0.0281359
0.00116607
0.0280237
0.00106203
0.027911
0.000962457
0.0278012
0.000869359
0.0276967
0.000783741
0.0275985
0.00070584
0.0275072
0.000635404
0.0274227
0.000571917
0.0273451
0.000514754
0.0272738
0.000463267
0.0272087
0.000416832
0.0271491
0.000374877
0.0270948
0.000336886
0.0270453
0.000302404
0.0270002
0.000271029
0.0269593
0.000242411
0.0269222
0.000216246
0.0268885
0.000192267
0.0268581
0.000170242
0.0268307
0.000149969
0.026806
0.00013127
0.0267839
0.000113992
0.0267642
9.79981e-05
0.0267467
8.31688e-05
0.0267312
6.93975e-05
0.0267177
5.6593e-05
0.0267059
4.46718e-05
0.0266958
3.35611e-05
0.0266873
2.3192e-05
0.0266802
1.35045e-05
0.0266744
4.43681e-06
0.0266699
-4.05881e-06
0.0266666
-1.2016e-05
0.0266645
-1.94663e-05
0.0266633
-2.64407e-05
0.0266632
-3.2971e-05
0.026664
-3.90805e-05
0.0266656
-4.47858e-05
0.0266681
-5.01018e-05
0.0266713
-5.50285e-05
0.0266752
-5.95625e-05
0.0266797
-6.36984e-05
0.0266848
-6.74228e-05
0.0266904
-7.07185e-05
0.0266965
-7.35739e-05
0.026703
-7.59671e-05
0.0267098
-7.78817e-05
0.0267169
-7.9316e-05
0.0267243
-8.02572e-05
0.0267318
-8.07135e-05
0.0267394
-8.0691e-05
0.026747
-8.02042e-05
0.0267546
-7.92778e-05
0.0267622
-7.79339e-05
0.0267696
-7.62137e-05
0.0267769
-7.41412e-05
0.026784
-7.17735e-05
0.0267908
-6.9126e-05
0.0267974
-6.62693e-05
0.0268037
-6.3189e-05
0.0268097
-5.98035e-05
0.0268154
-5.61087e-05
-2.74354e-05
0.0310025
0.00376437
0.0310986
0.00217833
0.0311738
0.00210012
0.0312404
0.00196217
0.0312982
0.00185951
0.0313461
0.00177799
0.0313824
0.00170341
0.0314049
0.00163208
0.0314106
0.00156114
0.0313966
0.00148794
0.0313612
0.00141063
0.0313045
0.00132831
0.0312292
0.00124132
0.03114
0.00115123
0.0310421
0.00106038
0.0309402
0.000971214
0.0308382
0.000885745
0.0307387
0.000805322
0.0306435
0.000730648
0.0305535
0.00066193
0.0304692
0.000599048
0.0303908
0.000541688
0.0303182
0.00048944
0.0302512
0.000441861
0.0301896
0.000398507
0.030133
0.00035896
0.0300812
0.000322832
0.0300338
0.000289771
0.0299906
0.000259463
0.0299513
0.000231628
0.0299155