/*--------------------------------*- C++ -*----------------------------------*\
  =========                 |
  \\      /  F ield         | OpenFOAM: The Open Source CFD Toolbox
   \\    /   O peration     | Website:  https://openfoam.org
    \\  /    A nd           | Version:  7
     \\/     M anipulation  |
\*---------------------------------------------------------------------------*/
FoamFile
{
    version     2.0;
    format      ascii;
    class       volVectorField;
    location    "600";
    object      U;
}
// * * * * * * * * * * * * * * * * * * * * * * * * * * * * * * * * * * * * * //

dimensions      [0 1 -1 0 0 0 0];

internalField   nonuniform List<vector> 
4500
(
(15.4058 -0.778201 0)
(13.7077 -0.0619025 0)
(13.0325 -0.00325615 0)
(12.6708 0.00046499 0)
(12.4331 0.00050143 0)
(12.2594 0.000386177 0)
(12.125 0.000303744 0)
(12.0172 0.000246405 0)
(11.9286 0.0002045 0)
(11.8542 0.000172559 0)
(11.7911 0.000147435 0)
(11.7368 0.000127187 0)
(11.6898 0.000110546 0)
(11.6488 9.66465e-05 0)
(11.6128 8.48802e-05 0)
(11.5812 7.48044e-05 0)
(11.5533 6.60903e-05 0)
(11.5286 5.84884e-05 0)
(11.5067 5.18061e-05 0)
(11.4874 4.58926e-05 0)
(11.4702 4.06279e-05 0)
(11.455 3.59156e-05 0)
(11.4416 3.16771e-05 0)
(11.4298 2.7848e-05 0)
(11.4194 2.43751e-05 0)
(11.4104 2.12138e-05 0)
(11.4025 1.83267e-05 0)
(11.3958 1.5682e-05 0)
(11.39 1.32522e-05 0)
(11.3852 1.10155e-05 0)
(11.3812 8.95128e-06 0)
(11.378 7.04243e-06 0)
(11.3755 5.27338e-06 0)
(11.3738 3.63258e-06 0)
(11.3726 2.10752e-06 0)
(11.372 6.85414e-07 0)
(11.372 -6.48478e-07 0)
(11.3725 -1.88718e-06 0)
(11.3734 -3.03523e-06 0)
(11.3748 -4.1043e-06 0)
(11.3766 -5.10567e-06 0)
(11.3788 -6.03747e-06 0)
(11.3814 -6.90795e-06 0)
(11.3842 -7.71862e-06 0)
(11.3874 -8.47651e-06 0)
(11.3909 -9.18269e-06 0)
(11.3946 -9.83234e-06 0)
(11.3986 -1.04301e-05 0)
(11.4029 -1.09777e-05 0)
(11.4073 -1.14697e-05 0)
(11.4119 -1.19211e-05 0)
(11.4167 -1.23137e-05 0)
(11.4216 -1.2642e-05 0)
(11.4267 -1.29112e-05 0)
(11.4318 -1.31268e-05 0)
(11.4371 -1.32782e-05 0)
(11.4424 -1.33902e-05 0)
(11.4477 -1.34395e-05 0)
(11.4531 -1.34195e-05 0)
(11.4585 -1.3362e-05 0)
(11.4638 -1.32451e-05 0)
(11.4691 -1.30905e-05 0)
(11.4743 -1.28925e-05 0)
(11.4795 -1.26573e-05 0)
(11.4845 -1.24014e-05 0)
(11.4895 -1.21075e-05 0)
(11.4943 -1.1802e-05 0)
(11.4991 -1.14614e-05 0)
(11.5036 -1.11461e-05 0)
(11.5081 -1.07815e-05 0)
(11.5123 -1.04353e-05 0)
(11.5165 -1.00104e-05 0)
(11.5204 -9.61643e-06 0)
(11.5242 -9.06797e-06 0)
(11.5277 -4.75077e-06 0)
(17.5879 0.16307 0)
(16.0152 0.0238108 0)
(15.1976 0.00458796 0)
(14.7348 0.00198899 0)
(14.4341 0.00129709 0)
(14.2183 0.000960549 0)
(14.0538 0.000751469 0)
(13.9232 0.000608021 0)
(13.8165 0.000503607 0)
(13.7275 0.000424282 0)
(13.6522 0.000362065 0)
(13.5878 0.000312044 0)
(13.532 0.000271017 0)
(13.4835 0.00023681 0)
(13.441 0.000207895 0)
(13.4037 0.000183163 0)
(13.3708 0.000161797 0)
(13.3416 0.000143174 0)
(13.3158 0.000126818 0)
(13.293 0.000112353 0)
(13.2728 9.94828e-05 0)
(13.2548 8.79693e-05 0)
(13.239 7.76186e-05 0)
(13.225 6.82721e-05 0)
(13.2127 5.97982e-05 0)
(13.202 5.20874e-05 0)
(13.1926 4.50477e-05 0)
(13.1846 3.86012e-05 0)
(13.1777 3.26807e-05 0)
(13.1718 2.72314e-05 0)
(13.167 2.22035e-05 0)
(13.1631 1.7555e-05 0)
(13.16 1.32485e-05 0)
(13.1577 9.25405e-06 0)
(13.1562 5.54225e-06 0)
(13.1553 2.08539e-06 0)
(13.1551 -1.14931e-06 0)
(13.1554 -4.15904e-06 0)
(13.1563 -6.95378e-06 0)
(13.1577 -9.55747e-06 0)
(13.1596 -1.1992e-05 0)
(13.1619 -1.426e-05 0)
(13.1647 -1.63779e-05 0)
(13.1678 -1.83513e-05 0)
(13.1713 -2.01936e-05 0)
(13.1751 -2.19087e-05 0)
(13.1793 -2.34919e-05 0)
(13.1837 -2.49517e-05 0)
(13.1884 -2.62909e-05 0)
(13.1934 -2.75022e-05 0)
(13.1985 -2.86064e-05 0)
(13.2039 -2.95774e-05 0)
(13.2094 -3.04077e-05 0)
(13.2151 -3.11042e-05 0)
(13.221 -3.16735e-05 0)
(13.2269 -3.20998e-05 0)
(13.2329 -3.24175e-05 0)
(13.239 -3.25935e-05 0)
(13.2451 -3.26216e-05 0)
(13.2513 -3.25459e-05 0)
(13.2574 -3.23372e-05 0)
(13.2635 -3.20267e-05 0)
(13.2696 -3.16106e-05 0)
(13.2755 -3.10983e-05 0)
(13.2814 -3.05163e-05 0)
(13.2872 -2.98406e-05 0)
(13.2929 -2.91149e-05 0)
(13.2984 -2.83046e-05 0)
(13.3037 -2.75009e-05 0)
(13.3089 -2.65969e-05 0)
(13.3139 -2.56987e-05 0)
(13.3188 -2.46625e-05 0)
(13.3234 -2.36207e-05 0)
(13.3278 -2.22958e-05 0)
(13.3319 -1.12083e-05 0)
(18.7449 0.0973745 0)
(17.3725 0.0156216 0)
(16.4743 0.00605636 0)
(15.9331 0.00350033 0)
(15.5795 0.00236975 0)
(15.3279 0.00174957 0)
(15.138 0.00136082 0)
(14.9886 0.00109591 0)
(14.8673 0.000904526 0)
(14.7668 0.000760049 0)
(14.6821 0.000647306 0)
(14.6098 0.000557034 0)
(14.5474 0.000483241 0)
(14.4932 0.000421882 0)
(14.4459 0.000370133 0)
(14.4043 0.000325958 0)
(14.3676 0.000287856 0)
(14.3353 0.000254694 0)
(14.3066 0.000225603 0)
(14.2812 0.000199905 0)
(14.2586 0.000177063 0)
(14.2387 0.000156645 0)
(14.221 0.000138304 0)
(14.2054 0.000121753 0)
(14.1917 0.000106756 0)
(14.1796 9.3118e-05 0)
(14.1691 8.06729e-05 0)
(14.16 6.92816e-05 0)
(14.1522 5.88245e-05 0)
(14.1456 4.92028e-05 0)
(14.14 4.03281e-05 0)
(14.1355 3.21255e-05 0)
(14.1319 2.45287e-05 0)
(14.1291 1.74835e-05 0)
(14.1271 1.09384e-05 0)
(14.1259 4.84882e-06 0)
(14.1254 -8.43689e-07 0)
(14.1255 -6.14948e-06 0)
(14.1262 -1.10815e-05 0)
(14.1275 -1.56746e-05 0)
(14.1293 -1.99658e-05 0)
(14.1315 -2.39646e-05 0)
(14.1343 -2.76978e-05 0)
(14.1374 -3.11774e-05 0)
(14.141 -3.44247e-05 0)
(14.1449 -3.74486e-05 0)
(14.1491 -4.02455e-05 0)
(14.1537 -4.28289e-05 0)
(14.1586 -4.52045e-05 0)
(14.1637 -4.73643e-05 0)
(14.1691 -4.93363e-05 0)
(14.1747 -5.10867e-05 0)
(14.1806 -5.26062e-05 0)
(14.1866 -5.39036e-05 0)
(14.1927 -5.49865e-05 0)
(14.199 -5.58335e-05 0)
(14.2054 -5.64886e-05 0)
(14.2119 -5.69068e-05 0)
(14.2184 -5.70799e-05 0)
(14.225 -5.70643e-05 0)
(14.2316 -5.6821e-05 0)
(14.2381 -5.63905e-05 0)
(14.2446 -5.57684e-05 0)
(14.2511 -5.4967e-05 0)
(14.2575 -5.40218e-05 0)
(14.2637 -5.29028e-05 0)
(14.2699 -5.16697e-05 0)
(14.2758 -5.02791e-05 0)
(14.2817 -4.88538e-05 0)
(14.2873 -4.72557e-05 0)
(14.2927 -4.56306e-05 0)
(14.298 -4.37879e-05 0)
(14.303 -4.18746e-05 0)
(14.3077 -3.95275e-05 0)
(14.3122 -1.96702e-05 0)
(19.3754 0.0462247 0)
(18.326 0.0150409 0)
(17.4307 0.00910101 0)
(16.8356 0.00564414 0)
(16.435 0.00383709 0)
(16.1491 0.00281757 0)
(15.9342 0.00217867 0)
(15.7661 0.00174595 0)
(15.6305 0.00143549 0)
(15.5186 0.00120258 0)
(15.4247 0.00102181 0)
(15.3447 0.000877711 0)
(15.276 0.000760364 0)
(15.2164 0.0006631 0)
(15.1644 0.00058129 0)
(15.1188 0.000511614 0)
(15.0786 0.000451637 0)
(15.0431 0.000399526 0)
(15.0117 0.000353883 0)
(14.9839 0.000313616 0)
(14.9592 0.000277866 0)
(14.9373 0.000245946 0)
(14.9179 0.000217298 0)
(14.9007 0.00019147 0)
(14.8856 0.000168085 0)
(14.8723 0.000146834 0)
(14.8607 0.000127453 0)
(14.8505 0.000109724 0)
(14.8418 9.34582e-05 0)
(14.8343 7.84982e-05 0)
(14.8281 6.47056e-05 0)
(14.8228 5.19624e-05 0)
(14.8186 4.01647e-05 0)
(14.8154 2.92265e-05 0)
(14.8129 1.90674e-05 0)
(14.8113 9.61939e-06 0)
(14.8104 7.96097e-07 0)
(14.8102 -7.43514e-06 0)
(14.8106 -1.50946e-05 0)
(14.8117 -2.22247e-05 0)
(14.8133 -2.88818e-05 0)
(14.8154 -3.50863e-05 0)
(14.818 -4.08781e-05 0)
(14.8211 -4.6278e-05 0)
(14.8246 -5.13176e-05 0)
(14.8284 -5.60124e-05 0)
(14.8327 -6.03629e-05 0)
(14.8373 -6.43887e-05 0)
(14.8422 -6.80997e-05 0)
(14.8474 -7.14884e-05 0)
(14.8529 -7.45901e-05 0)
(14.8586 -7.73649e-05 0)
(14.8646 -7.98019e-05 0)
(14.8708 -8.19109e-05 0)
(14.8771 -8.36994e-05 0)
(14.8836 -8.51399e-05 0)
(14.8902 -8.62827e-05 0)
(14.8969 -8.7072e-05 0)
(14.9038 -8.74954e-05 0)
(14.9106 -8.76188e-05 0)
(14.9175 -8.73932e-05 0)
(14.9244 -8.68668e-05 0)
(14.9312 -8.6034e-05 0)
(14.938 -8.49094e-05 0)
(14.9447 -8.35368e-05 0)
(14.9513 -8.18827e-05 0)
(14.9577 -8.00222e-05 0)
(14.964 -7.7906e-05 0)
(14.9702 -7.56859e-05 0)
(14.9761 -7.32011e-05 0)
(14.9818 -7.06348e-05 0)
(14.9873 -6.77565e-05 0)
(14.9926 -6.47076e-05 0)
(14.9975 -6.10709e-05 0)
(15.0022 -3.02299e-05 0)
(19.693 0.0456702 0)
(18.9995 0.0202329 0)
(18.1918 0.0128969 0)
(17.577 0.00823931 0)
(17.1407 0.00564736 0)
(16.8239 0.00414117 0)
(16.5849 0.00318982 0)
(16.3982 0.00254609 0)
(16.2481 0.00208608 0)
(16.1247 0.00174263 0)
(16.0214 0.00147727 0)
(15.9337 0.00126663 0)
(15.8585 0.0010957 0)
(15.7934 0.000954472 0)
(15.7367 0.000836004 0)
(15.687 0.000735347 0)
(15.6433 0.00064888 0)
(15.6047 0.000573892 0)
(15.5705 0.000508315 0)
(15.5402 0.000450546 0)
(15.5133 0.000399323 0)
(15.4895 0.000353639 0)
(15.4683 0.000312682 0)
(15.4496 0.000275789 0)
(15.4331 0.000242416 0)
(15.4185 0.00021211 0)
(15.4057 0.000184492 0)
(15.3945 0.000159243 0)
(15.3848 0.000136092 0)
(15.3765 0.00011481 0)
(15.3694 9.5198e-05 0)
(15.3635 7.70861e-05 0)
(15.3587 6.03247e-05 0)
(15.3548 4.47893e-05 0)
(15.3518 3.0365e-05 0)
(15.3497 1.69539e-05 0)
(15.3484 4.44395e-06 0)
(15.3479 -7.23205e-06 0)
(15.348 -1.81105e-05 0)
(15.3487 -2.82347e-05 0)
(15.35 -3.76826e-05 0)
(15.3519 -4.64892e-05 0)
(15.3544 -5.47097e-05 0)
(15.3573 -6.23763e-05 0)
(15.3606 -6.95329e-05 0)
(15.3644 -7.62042e-05 0)
(15.3686 -8.23964e-05 0)
(15.3731 -8.81373e-05 0)
(15.378 -9.34419e-05 0)
(15.3832 -9.8305e-05 0)
(15.3887 -0.000102769 0)
(15.3945 -0.000106788 0)
(15.4005 -0.000110352 0)
(15.4067 -0.000113468 0)
(15.4132 -0.000116144 0)
(15.4198 -0.000118344 0)
(15.4265 -0.000120122 0)
(15.4334 -0.000121411 0)
(15.4404 -0.000122192 0)
(15.4474 -0.000122539 0)
(15.4545 -0.000122391 0)
(15.4616 -0.000121802 0)
(15.4687 -0.000120765 0)
(15.4757 -0.000119297 0)
(15.4826 -0.000117449 0)
(15.4894 -0.000115187 0)
(15.4961 -0.0001126 0)
(15.5026 -0.000109636 0)
(15.5089 -0.000106476 0)
(15.5151 -0.000102942 0)
(15.521 -9.92533e-05 0)
(15.5266 -9.51469e-05 0)
(15.532 -9.07447e-05 0)
(15.5371 -8.56008e-05 0)
(15.5419 -4.22204e-05 0)
(19.8488 0.0504549 0)
(19.4507 0.0244881 0)
(18.7997 0.016652 0)
(18.2081 0.0111579 0)
(17.7532 0.007791 0)
(17.4116 0.00573675 0)
(17.1505 0.00441439 0)
(16.9458 0.00351467 0)
(16.7812 0.00287186 0)
(16.6461 0.00239313 0)
(16.5332 0.00202448 0)
(16.4376 0.00173281 0)
(16.3557 0.00149689 0)
(16.2849 0.00130252 0)
(16.2233 0.00113989 0)
(16.1694 0.00100204 0)
(16.122 0.00088386 0)
(16.0802 0.000781559 0)
(16.0431 0.000692243 0)
(16.0103 0.000613678 0)
(15.9812 0.000544108 0)
(15.9553 0.000482135 0)
(15.9323 0.000426635 0)
(15.9119 0.000376692 0)
(15.8939 0.000331554 0)
(15.8779 0.000290597 0)
(15.8639 0.000253302 0)
(15.8516 0.000219229 0)
(15.8409 0.000188006 0)
(15.8317 0.00015932 0)
(15.8238 0.000132899 0)
(15.8171 0.00010851 0)
(15.8115 8.5949e-05 0)
(15.807 6.50457e-05 0)
(15.8035 4.56439e-05 0)
(15.8009 2.76104e-05 0)
(15.7991 1.08054e-05 0)
(15.7981 -4.88001e-06 0)
(15.7978 -1.95094e-05 0)
(15.7982 -3.31267e-05 0)
(15.7992 -4.58296e-05 0)
(15.8008 -5.76711e-05 0)
(15.803 -6.87246e-05 0)
(15.8056 -7.90368e-05 0)
(15.8088 -8.86659e-05 0)
(15.8124 -9.76483e-05 0)
(15.8164 -0.000105999 0)
(15.8209 -0.000113754 0)
(15.8257 -0.000120937 0)
(15.8308 -0.000127544 0)
(15.8362 -0.000133626 0)
(15.842 -0.000139134 0)
(15.848 -0.000144053 0)
(15.8543 -0.000148392 0)
(15.8607 -0.000152153 0)
(15.8674 -0.000155292 0)
(15.8742 -0.000157865 0)
(15.8812 -0.000159791 0)
(15.8883 -0.000161045 0)
(15.8955 -0.000161701 0)
(15.9027 -0.00016169 0)
(15.9099 -0.00016107 0)
(15.9171 -0.000159832 0)
(15.9243 -0.000157994 0)
(15.9313 -0.000155615 0)
(15.9383 -0.000152662 0)
(15.9451 -0.000149241 0)
(15.9517 -0.000145299 0)
(15.9582 -0.000141044 0)
(15.9644 -0.00013629 0)
(15.9704 -0.000131291 0)
(15.9761 -0.000125757 0)
(15.9816 -0.00011978 0)
(15.9867 -0.000112907 0)
(15.9915 -5.55448e-05 0)
(19.929 0.0521809 0)
(19.7286 0.0270124 0)
(19.2674 0.0200258 0)
(18.7457 0.0142434 0)
(18.2961 0.0102331 0)
(17.9397 0.00761459 0)
(17.6607 0.00587475 0)
(17.4395 0.00467512 0)
(17.2609 0.0038141 0)
(17.114 0.00317259 0)
(16.9914 0.00267928 0)
(16.8876 0.00228985 0)
(16.7988 0.00197561 0)
(16.7221 0.00171734 0)
(16.6554 0.00150174 0)
(16.597 0.00131938 0)
(16.5458 0.00116334 0)
(16.5005 0.00102851 0)
(16.4605 0.000910981 0)
(16.4249 0.000807752 0)
(16.3934 0.000716463 0)
(16.3654 0.000635242 0)
(16.3405 0.000562585 0)
(16.3183 0.000497269 0)
(16.2987 0.000438292 0)
(16.2813 0.000384824 0)
(16.266 0.000336173 0)
(16.2525 0.000291758 0)
(16.2407 0.000251085 0)
(16.2305 0.000213739 0)
(16.2216 0.000179361 0)
(16.2141 0.000147641 0)
(16.2078 0.000118314 0)
(16.2026 9.11507e-05 0)
(16.1984 6.59482e-05 0)
(16.1952 4.25304e-05 0)
(16.1929 2.07249e-05 0)
(16.1914 3.80539e-07 0)
(16.1906 -1.86085e-05 0)
(16.1906 -3.62944e-05 0)
(16.1913 -5.27879e-05 0)
(16.1925 -6.81641e-05 0)
(16.1944 -8.25176e-05 0)
(16.1968 -9.59127e-05 0)
(16.1997 -0.000108425 0)
(16.2031 -0.000120105 0)
(16.2069 -0.000130979 0)
(16.2112 -0.000141094 0)
(16.2158 -0.000150482 0)
(16.2208 -0.000159145 0)
(16.2262 -0.000167139 0)
(16.2319 -0.000174412 0)
(16.2378 -0.000180946 0)
(16.244 -0.000186749 0)
(16.2505 -0.000191815 0)
(16.2572 -0.000196094 0)
(16.264 -0.000199636 0)
(16.271 -0.000202347 0)
(16.2782 -0.000204192 0)
(16.2854 -0.000205248 0)
(16.2926 -0.000205433 0)
(16.2999 -0.000204809 0)
(16.3072 -0.000203364 0)
(16.3144 -0.00020112 0)
(16.3216 -0.000198144 0)
(16.3286 -0.000194406 0)
(16.3355 -0.000190029 0)
(16.3421 -0.000184965 0)
(16.3486 -0.000179449 0)
(16.3549 -0.000173291 0)
(16.3609 -0.000166783 0)
(16.3667 -0.000159611 0)
(16.3721 -0.00015183 0)
(16.3773 -0.000142994 0)
(16.3821 -7.02094e-05 0)
(19.9739 0.052718 0)
(19.8889 0.0285834 0)
(19.6025 0.0227995 0)
(19.1903 0.0172661 0)
(18.776 0.0128803 0)
(18.4202 0.00975677 0)
(18.1302 0.00758162 0)
(17.8955 0.00604682 0)
(17.7042 0.0049334 0)
(17.546 0.00410026 0)
(17.4137 0.00345889 0)
(17.3016 0.00295286 0)
(17.2056 0.00254508 0)
(17.1228 0.00221049 0)
(17.0508 0.0019317 0)
(16.9878 0.00169629 0)
(16.9324 0.00149522 0)
(16.8836 0.00132175 0)
(16.8404 0.00117077 0)
(16.802 0.00103835 0)
(16.7679 0.000921395 0)
(16.7376 0.000817464 0)
(16.7106 0.000724593 0)
(16.6866 0.000641191 0)
(16.6653 0.000565954 0)
(16.6463 0.000497803 0)
(16.6296 0.000435842 0)
(16.6148 0.000379317 0)
(16.6019 0.00032759 0)
(16.5905 0.000280123 0)
(16.5807 0.000236452 0)
(16.5723 0.000196181 0)
(16.5651 0.000158963 0)
(16.5592 0.000124507 0)
(16.5543 9.25498e-05 0)
(16.5504 6.28656e-05 0)
(16.5475 3.52408e-05 0)
(16.5454 9.48659e-06 0)
(16.5442 -1.45613e-05 0)
(16.5437 -3.69797e-05 0)
(16.5439 -5.7883e-05 0)
(16.5448 -7.73718e-05 0)
(16.5463 -9.55653e-05 0)
(16.5483 -0.000112549 0)
(16.5509 -0.00012842 0)
(16.5541 -0.000143244 0)
(16.5576 -0.000157062 0)
(16.5617 -0.000169936 0)
(16.5661 -0.000181905 0)
(16.571 -0.000192979 0)
(16.5762 -0.000203219 0)
(16.5817 -0.000212573 0)
(16.5876 -0.000221017 0)
(16.5937 -0.000228555 0)
(16.6001 -0.000235174 0)
(16.6067 -0.000240811 0)
(16.6135 -0.000245513 0)
(16.6205 -0.000249169 0)
(16.6276 -0.000251735 0)
(16.6348 -0.000253284 0)
(16.6421 -0.000253726 0)
(16.6494 -0.000253122 0)
(16.6567 -0.000251461 0)
(16.6639 -0.000248768 0)
(16.6711 -0.000245121 0)
(16.6781 -0.000240495 0)
(16.685 -0.000235032 0)
(16.6917 -0.000228692 0)
(16.6981 -0.000221741 0)
(16.7044 -0.000213987 0)
(16.7104 -0.000205764 0)
(16.7161 -0.000196738 0)
(16.7216 -0.00018692 0)
(16.7267 -0.000175885 0)
(16.7314 -8.62281e-05 0)
(20.0011 0.0528694 0)
(19.9807 0.0295175 0)
(19.8226 0.0248232 0)
(19.5371 0.019951 0)
(19.1896 0.0155661 0)
(18.8549 0.0120995 0)
(18.5647 0.00952307 0)
(18.3221 0.00763897 0)
(18.1205 0.00624631 0)
(17.9523 0.0051943 0)
(17.8107 0.00438085 0)
(17.6905 0.00373795 0)
(17.5873 0.00321978 0)
(17.4983 0.00279489 0)
(17.4207 0.00244122 0)
(17.3529 0.00214297 0)
(17.2933 0.00188857 0)
(17.2407 0.00166939 0)
(17.194 0.00147888 0)
(17.1527 0.00131199 0)
(17.1159 0.00116477 0)
(17.0831 0.00103409 0)
(17.0539 0.000917445 0)
(17.0279 0.000812792 0)
(17.0047 0.000718472 0)
(16.9842 0.000633109 0)
(16.9659 0.00055556 0)
(16.9497 0.000484867 0)
(16.9355 0.000420218 0)
(16.923 0.000360932 0)
(16.9121 0.000306418 0)
(16.9027 0.000256175 0)
(16.8946 0.000209764 0)
(16.8878 0.000166815 0)
(16.8821 0.000126997 0)
(16.8775 9.00239e-05 0)
(16.8739 5.56312e-05 0)
(16.8712 2.35938e-05 0)
(16.8694 -6.32028e-06 0)
(16.8684 -3.42329e-05 0)
(16.8681 -6.02627e-05 0)
(16.8685 -8.45328e-05 0)
(16.8696 -0.000107191 0)
(16.8713 -0.000128349 0)
(16.8736 -0.000148127 0)
(16.8763 -0.000166612 0)
(16.8796 -0.00018386 0)
(16.8834 -0.00019995 0)
(16.8876 -0.000214933 0)
(16.8922 -0.000228825 0)
(16.8972 -0.000241695 0)
(16.9026 -0.000253487 0)
(16.9083 -0.000264173 0)
(16.9143 -0.000273752 0)
(16.9206 -0.0002822 0)
(16.9271 -0.000289443 0)
(16.9338 -0.000295516 0)
(16.9407 -0.000300296 0)
(16.9478 -0.000303723 0)
(16.9549 -0.00030587 0)
(16.9622 -0.000306633 0)
(16.9694 -0.000306078 0)
(16.9766 -0.000304192 0)
(16.9838 -0.000301007 0)
(16.9909 -0.000296611 0)
(16.9979 -0.000290991 0)
(17.0048 -0.000284308 0)
(17.0114 -0.000276534 0)
(17.0178 -0.00026797 0)
(17.024 -0.000258426 0)
(17.03 -0.00024828 0)
(17.0356 -0.000237183 0)
(17.041 -0.000225094 0)
(17.046 -0.000211622 0)
(17.0508 -0.000103625 0)
(20.0187 0.0527445 0)
(20.0354 0.0299682 0)
(19.9582 0.026127 0)
(19.7862 0.0220655 0)
(19.5283 0.0180611 0)
(19.2388 0.0145161 0)
(18.9637 0.0116492 0)
(18.7216 0.00944108 0)
(18.5144 0.00775985 0)
(18.3385 0.00646875 0)
(18.189 0.00546134 0)
(18.0611 0.00466132 0)
(17.951 0.00401502 0)
(17.8557 0.00348461 0)
(17.7726 0.00304311 0)
(17.6999 0.00267097 0)
(17.6358 0.00235379 0)
(17.5792 0.00208078 0)
(17.5291 0.00184373 0)
(17.4845 0.00163628 0)
(17.4448 0.00145347 0)
(17.4094 0.00129135 0)
(17.3779 0.00114679 0)
(17.3497 0.0010172 0)
(17.3246 0.000900514 0)
(17.3023 0.000794993 0)
(17.2824 0.000699205 0)
(17.2647 0.000611947 0)
(17.2491 0.000532204 0)
(17.2353 0.000459121 0)
(17.2232 0.00039196 0)
(17.2127 0.000330093 0)
(17.2036 0.000272973 0)
(17.1959 0.000220137 0)
(17.1894 0.000171173 0)
(17.184 0.000125723 0)
(17.1796 8.34622e-05 0)
(17.1762 4.41205e-05 0)
(17.1738 7.40548e-06 0)
(17.1722 -2.68753e-05 0)
(17.1713 -5.88635e-05 0)
(17.1712 -8.86903e-05 0)
(17.1719 -0.000116539 0)
(17.1731 -0.000142549 0)
(17.175 -0.000166869 0)
(17.1774 -0.000189611 0)
(17.1803 -0.000210851 0)
(17.1838 -0.000230686 0)
(17.1877 -0.00024918 0)
(17.192 -0.000266357 0)
(17.1968 -0.000282295 0)
(17.2019 -0.000296933 0)
(17.2074 -0.00031024 0)
(17.2132 -0.000322207 0)
(17.2193 -0.000332797 0)
(17.2257 -0.000341923 0)
(17.2323 -0.000349609 0)
(17.2391 -0.000355714 0)
(17.246 -0.000360164 0)
(17.2531 -0.000363028 0)
(17.2602 -0.000364191 0)
(17.2673 -0.000363722 0)
(17.2745 -0.000361611 0)
(17.2816 -0.000357895 0)
(17.2886 -0.000352677 0)
(17.2955 -0.000345958 0)
(17.3023 -0.000337922 0)
(17.3088 -0.000328559 0)
(17.3152 -0.000318205 0)
(17.3213 -0.000306679 0)
(17.3271 -0.000294406 0)
(17.3327 -0.000281023 0)
(17.338 -0.000266434 0)
(17.343 -0.000250289 0)
(17.3476 -0.000122447 0)
(20.0306 0.0523702 0)
(20.0698 0.03007 0)
(20.0406 0.0268629 0)
(19.9512 0.0235191 0)
(19.7855 0.0201272 0)
(19.5621 0.0168135 0)
(19.3211 0.0138542 0)
(19.0917 0.0114083 0)
(18.8862 0.0094621 0)
(18.7068 0.00792766 0)
(18.5516 0.00671164 0)
(18.4174 0.00573709 0)
(18.3011 0.00494558 0)
(18.1999 0.00429407 0)
(18.1114 0.00375094 0)
(18.0336 0.00329287 0)
(17.9651 0.00290244 0)
(17.9044 0.00256648 0)
(17.8506 0.00227493 0)
(17.8027 0.00201996 0)
(17.76 0.00179544 0)
(17.7219 0.00159649 0)
(17.6879 0.00141922 0)
(17.6574 0.00126045 0)
(17.6302 0.00111758 0)
(17.6059 0.000988481 0)
(17.5843 0.000871372 0)
(17.565 0.000764765 0)
(17.5479 0.000667401 0)
(17.5327 0.000578221 0)
(17.5194 0.000496313 0)
(17.5077 0.000420901 0)
(17.4975 0.000351309 0)
(17.4887 0.000286965 0)
(17.4813 0.000227358 0)
(17.475 0.000172051 0)
(17.4698 0.000120643 0)
(17.4657 7.28068e-05 0)
(17.4625 2.82009e-05 0)
(17.4603 -1.34568e-05 0)
(17.4588 -5.23634e-05 0)
(17.4581 -8.86482e-05 0)
(17.4582 -0.000122528 0)
(17.459 -0.000154177 0)
(17.4603 -0.000183777 0)
(17.4623 -0.000211468 0)
(17.4649 -0.000237349 0)
(17.4679 -0.000261538 0)
(17.4715 -0.000284115 0)
(17.4755 -0.000305114 0)
(17.48 -0.000324622 0)
(17.4849 -0.000342575 0)
(17.4901 -0.000358935 0)
(17.4957 -0.000373685 0)
(17.5016 -0.000386776 0)
(17.5077 -0.000398103 0)
(17.5141 -0.000407679 0)
(17.5208 -0.000415343 0)
(17.5275 -0.000421005 0)
(17.5344 -0.000424732 0)
(17.5414 -0.000426395 0)
(17.5484 -0.00042607 0)
(17.5554 -0.000423747 0)
(17.5624 -0.000419475 0)
(17.5693 -0.000413374 0)
(17.5761 -0.000405461 0)
(17.5827 -0.000395951 0)
(17.5892 -0.000384851 0)
(17.5954 -0.000372537 0)
(17.6014 -0.000358844 0)
(17.6072 -0.000344245 0)
(17.6126 -0.00032837 0)
(17.6178 -0.000311058 0)
(17.6227 -0.000292011 0)
(17.6272 -0.000142761 0)
(20.039 0.0517789 0)
(20.0926 0.0299213 0)
(20.092 0.027188 0)
(20.0552 0.0243789 0)
(19.9649 0.0216134 0)
(19.8158 0.0187666 0)
(19.6268 0.0159671 0)
(19.4257 0.0134437 0)
(19.2323 0.0113079 0)
(19.0559 0.00955549 0)
(18.899 0.0081319 0)
(18.761 0.00697327 0)
(18.6398 0.00602317 0)
(18.5336 0.00523641 0)
(18.4401 0.0045781 0)
(18.3576 0.00402166 0)
(18.2847 0.0035468 0)
(18.22 0.00313796 0)
(18.1624 0.00278311 0)
(18.1111 0.00247283 0)
(18.0653 0.00219969 0)
(18.0243 0.00195779 0)
(17.9877 0.00174234 0)
(17.9548 0.00154949 0)
(17.9254 0.00137606 0)
(17.8991 0.00121944 0)
(17.8755 0.00107746 0)
(17.8545 0.000948274 0)
(17.8358 0.000830361 0)
(17.8192 0.000722417 0)
(17.8044 0.000623327 0)
(17.7915 0.000532138 0)
(17.7801 0.000448026 0)
(17.7702 0.000370289 0)
(17.7617 0.000298303 0)
(17.7545 0.000231532 0)
(17.7484 0.00016949 0)
(17.7435 0.000111779 0)
(17.7395 5.80024e-05 0)
(17.7365 7.79663e-06 0)
(17.7344 -3.9128e-05 0)
(17.733 -8.29184e-05 0)
(17.7325 -0.000123806 0)
(17.7327 -0.000162009 0)
(17.7336 -0.000197743 0)
(17.7351 -0.000231184 0)
(17.7371 -0.000262456 0)
(17.7398 -0.000291704 0)
(17.7429 -0.000319024 0)
(17.7466 -0.000344464 0)
(17.7507 -0.000368118 0)
(17.7552 -0.000389923 0)
(17.7602 -0.000409832 0)
(17.7655 -0.000427822 0)
(17.7711 -0.000443827 0)
(17.777 -0.000457725 0)
(17.7832 -0.000469514 0)
(17.7896 -0.000479013 0)
(17.7961 -0.000486116 0)
(17.8028 -0.000490885 0)
(17.8096 -0.000493181 0)
(17.8165 -0.000493085 0)
(17.8233 -0.000490591 0)
(17.8301 -0.000485763 0)
(17.8369 -0.000478738 0)
(17.8435 -0.000469557 0)
(17.85 -0.000458465 0)
(17.8563 -0.000445495 0)
(17.8624 -0.000431067 0)
(17.8683 -0.000415036 0)
(17.8739 -0.000397927 0)
(17.8793 -0.000379365 0)
(17.8843 -0.000359122 0)
(17.8891 -0.000336947 0)
(17.8936 -0.000164652 0)
(20.0449 0.0509937 0)
(20.1082 0.029581 0)
(20.1254 0.0272183 0)
(20.1206 0.0247808 0)
(20.0821 0.0225188 0)
(19.9986 0.0202042 0)
(19.8707 0.0177773 0)
(19.7131 0.0153876 0)
(19.5451 0.0132012 0)
(19.3812 0.0113027 0)
(19.2289 0.00970101 0)
(19.0909 0.00836499 0)
(18.9675 0.00725183 0)
(18.8578 0.00632036 0)
(18.7603 0.00553561 0)
(18.6738 0.00486927 0)
(18.5968 0.00429896 0)
(18.5283 0.00380701 0)
(18.4671 0.00337952 0)
(18.4124 0.00300549 0)
(18.3634 0.00267615 0)
(18.3195 0.00238445 0)
(18.2801 0.0021247 0)
(18.2448 0.00189225 0)
(18.2131 0.00168328 0)
(18.1846 0.00149464 0)
(18.1591 0.0013237 0)
(18.1362 0.00116824 0)
(18.1158 0.00102641 0)
(18.0975 0.000896623 0)
(18.0813 0.000777536 0)
(18.067 0.00066799 0)
(18.0543 0.000566988 0)
(18.0433 0.000473673 0)
(18.0336 0.000387293 0)
(18.0254 0.000307196 0)
(18.0183 0.000232797 0)
(18.0124 0.000163609 0)
(18.0076 9.91681e-05 0)
(18.0038 3.9049e-05 0)
(18.0009 -1.71582e-05 0)
(17.9989 -6.96624e-05 0)
(17.9977 -0.000118693 0)
(17.9972 -0.000164509 0)
(17.9975 -0.00020737 0)
(17.9985 -0.000247489 0)
(18 -0.000285022 0)
(18.0022 -0.000320142 0)
(18.0049 -0.000352966 0)
(18.0081 -0.000383559 0)
(18.0118 -0.000412025 0)
(18.0159 -0.000438299 0)
(18.0205 -0.000462331 0)
(18.0255 -0.000484087 0)
(18.0308 -0.000503484 0)
(18.0364 -0.000520384 0)
(18.0423 -0.000534766 0)
(18.0484 -0.000546431 0)
(18.0547 -0.000555256 0)
(18.0611 -0.000561295 0)
(18.0677 -0.000564401 0)
(18.0743 -0.000564661 0)
(18.081 -0.000562076 0)
(18.0876 -0.000556725 0)
(18.0941 -0.000548769 0)
(18.1006 -0.000538273 0)
(18.1069 -0.000525521 0)
(18.113 -0.000510573 0)
(18.119 -0.000493899 0)
(18.1247 -0.000475377 0)
(18.1302 -0.000455593 0)
(18.1355 -0.000434168 0)
(18.1404 -0.000410799 0)
(18.1451 -0.000385282 0)
(18.1494 -0.00018822 0)
(20.0492 0.0500256 0)
(20.1193 0.0290806 0)
(20.1481 0.0270286 0)
(20.1628 0.0248477 0)
(20.1569 0.0229464 0)
(20.1211 0.0210868 0)
(20.0495 0.0191112 0)
(19.9437 0.0170398 0)
(19.8141 0.0149855 0)
(19.6744 0.0130688 0)
(19.5354 0.0113618 0)
(19.4037 0.00988347 0)
(19.2821 0.00862018 0)
(19.1717 0.0075449 0)
(19.0721 0.00662841 0)
(18.9827 0.00584401 0)
(18.9025 0.00516892 0)
(18.8306 0.00458437 0)
(18.7661 0.00407509 0)
(18.7082 0.00362869 0)
(18.6562 0.00323516 0)
(18.6094 0.00288635 0)
(18.5673 0.0025756 0)
(18.5295 0.00229746 0)
(18.4954 0.00204741 0)
(18.4647 0.0018217 0)
(18.4371 0.00161719 0)
(18.4123 0.00143126 0)
(18.39 0.00126167 0)
(18.3701 0.00110653 0)
(18.3524 0.00096422 0)
(18.3365 0.000833355 0)
(18.3225 0.000712733 0)
(18.3102 0.000601325 0)
(18.2993 0.000498226 0)
(18.2899 0.000402652 0)
(18.2818 0.000313899 0)
(18.2749 0.000231382 0)
(18.2692 0.000154551 0)
(18.2645 8.29159e-05 0)
(18.2608 1.59647e-05 0)
(18.2579 -4.6628e-05 0)
(18.256 -0.000105119 0)
(18.2549 -0.000159777 0)
(18.2545 -0.000210914 0)
(18.2548 -0.000258785 0)
(18.2558 -0.000303583 0)
(18.2574 -0.000345515 0)
(18.2596 -0.000384723 0)
(18.2623 -0.00042129 0)
(18.2655 -0.000455333 0)
(18.2692 -0.000486789 0)
(18.2734 -0.000515604 0)
(18.278 -0.000541736 0)
(18.2829 -0.000565083 0)
(18.2881 -0.00058549 0)
(18.2937 -0.000602919 0)
(18.2995 -0.000617149 0)
(18.3055 -0.000628038 0)
(18.3116 -0.000635639 0)
(18.3179 -0.00063979 0)
(18.3243 -0.000640589 0)
(18.3307 -0.000638043 0)
(18.3371 -0.000632251 0)
(18.3434 -0.000623399 0)
(18.3496 -0.000611585 0)
(18.3557 -0.000597131 0)
(18.3617 -0.000580132 0)
(18.3675 -0.000561112 0)
(18.3731 -0.000539977 0)
(18.3784 -0.000517377 0)
(18.3835 -0.000492937 0)
(18.3884 -0.00046627 0)
(18.3929 -0.000437212 0)
(18.3972 -0.000213572 0)
(20.0522 0.0488783 0)
(20.1272 0.0284366 0)
(20.164 0.0266625 0)
(20.1912 0.0246654 0)
(20.2052 0.0230151 0)
(20.2004 0.0214911 0)
(20.1713 0.0199148 0)
(20.1139 0.0182338 0)
(20.0293 0.0164681 0)
(19.9247 0.0146947 0)
(19.8096 0.0130044 0)
(19.6925 0.0114605 0)
(19.579 0.0100893 0)
(19.4722 0.00889024 0)
(19.3736 0.00784889 0)
(19.2834 0.00694579 0)
(19.2015 0.00616125 0)
(19.1273 0.00547736 0)
(19.0602 0.00487863 0)
(18.9996 0.004352 0)
(18.9448 0.00388656 0)
(18.8953 0.00347327 0)
(18.8507 0.0031046 0)
(18.8103 0.00277431 0)
(18.7739 0.0024772 0)
(18.7409 0.00220891 0)
(18.7112 0.00196577 0)
(18.6845 0.00174469 0)
(18.6604 0.00154304 0)
(18.6387 0.00135859 0)
(18.6193 0.00118941 0)
(18.6019 0.00103386 0)
(18.5865 0.000890514 0)
(18.5727 0.000758138 0)
(18.5606 0.000635657 0)
(18.55 0.000522136 0)
(18.5407 0.000416738 0)
(18.5328 0.00031876 0)
(18.526 0.000227552 0)
(18.5203 0.000142542 0)
(18.5157 6.31463e-05 0)
(18.5121 -1.11027e-05 0)
(18.5093 -8.05589e-05 0)
(18.5074 -0.000145483 0)
(18.5063 -0.000206222 0)
(18.5059 -0.000263087 0)
(18.5063 -0.00031631 0)
(18.5073 -0.000366139 0)
(18.5089 -0.000412743 0)
(18.511 -0.00045623 0)
(18.5138 -0.000496732 0)
(18.517 -0.000534192 0)
(18.5206 -0.000568552 0)
(18.5247 -0.000599766 0)
(18.5292 -0.000627713 0)
(18.5341 -0.000652221 0)
(18.5392 -0.000673233 0)
(18.5446 -0.000690508 0)
(18.5503 -0.000703885 0)
(18.5561 -0.000713412 0)
(18.5621 -0.000718917 0)
(18.5681 -0.000720506 0)
(18.5742 -0.000718197 0)
(18.5803 -0.000712109 0)
(18.5864 -0.000702459 0)
(18.5924 -0.000689376 0)
(18.5983 -0.000673231 0)
(18.6041 -0.000654154 0)
(18.6097 -0.000632729 0)
(18.615 -0.000608898 0)
(18.6202 -0.000583378 0)
(18.6252 -0.0005558 0)
(18.6299 -0.000525696 0)
(18.6343 -0.000492913 0)
(18.6385 -0.000240806 0)
(20.0542 0.0475508 0)
(20.1328 0.0276568 0)
(20.1754 0.0261432 0)
(20.2109 0.0242867 0)
(20.2375 0.0228152 0)
(20.252 0.0215276 0)
(20.2508 0.02025 0)
(20.2303 0.0189168 0)
(20.1875 0.0174951 0)
(20.1228 0.0159937 0)
(20.0406 0.0144639 0)
(19.9476 0.0129732 0)
(19.8502 0.0115763 0)
(19.7535 0.0103042 0)
(19.6605 0.00916629 0)
(19.573 0.00815829 0)
(19.4918 0.00726913 0)
(19.417 0.00648537 0)
(19.3486 0.00579358 0)
(19.2862 0.00518137 0)
(19.2294 0.00463784 0)
(19.1777 0.00415353 0)
(19.1308 0.00372041 0)
(19.0882 0.00333163 0)
(19.0496 0.0029814 0)
(19.0145 0.0026648 0)
(18.9828 0.00237765 0)
(18.954 0.0021164 0)
(18.928 0.00187802 0)
(18.9046 0.00165991 0)
(18.8835 0.00145982 0)
(18.8645 0.00127583 0)
(18.8476 0.00110627 0)
(18.8324 0.00094969 0)
(18.8189 0.000804816 0)
(18.807 0.000670547 0)
(18.7966 0.000545894 0)
(18.7874 0.000430024 0)
(18.7796 0.000322168 0)
(18.7729 0.000221658 0)
(18.7673 0.000127838 0)
(18.7627 4.01291e-05 0)
(18.7591 -4.1983e-05 0)
(18.7564 -0.000118803 0)
(18.7545 -0.000190674 0)
(18.7534 -0.000257962 0)
(18.753 -0.000320946 0)
(18.7533 -0.000379918 0)
(18.7542 -0.000435083 0)
(18.7558 -0.000486577 0)
(18.7579 -0.000534551 0)
(18.7606 -0.00057896 0)
(18.7637 -0.000619744 0)
(18.7673 -0.000656855 0)
(18.7713 -0.000690156 0)
(18.7756 -0.000719459 0)
(18.7803 -0.000744688 0)
(18.7853 -0.000765582 0)
(18.7906 -0.000781964 0)
(18.796 -0.000793873 0)
(18.8016 -0.000801127 0)
(18.8073 -0.000803844 0)
(18.8131 -0.000802051 0)
(18.8189 -0.000795892 0)
(18.8246 -0.000785613 0)
(18.8304 -0.000771383 0)
(18.836 -0.000753621 0)
(18.8415 -0.000732501 0)
(18.8469 -0.000708669 0)
(18.8521 -0.000682108 0)
(18.8571 -0.00065361 0)
(18.8619 -0.000622815 0)
(18.8665 -0.000589169 0)
(18.8708 -0.000552504 0)
(18.8748 -0.000269994 0)
(20.0555 0.046039 0)
(20.1367 0.0267443 0)
(20.1836 0.0254815 0)
(20.2248 0.023741 0)
(20.2598 0.0224039 0)
(20.2863 0.0212858 0)
(20.3028 0.0202192 0)
(20.3068 0.019147 0)
(20.2955 0.0180268 0)
(20.2667 0.0168313 0)
(20.2202 0.0155621 0)
(20.1584 0.0142502 0)
(20.0856 0.0129428 0)
(20.0066 0.0116859 0)
(19.9257 0.0105116 0)
(19.846 0.00943648 0)
(19.7693 0.0084647 0)
(19.697 0.00759249 0)
(19.6294 0.00681222 0)
(19.5668 0.00611472 0)
(19.5091 0.00549069 0)
(19.4562 0.00493141 0)
(19.4076 0.00442896 0)
(19.3633 0.00397637 0)
(19.3228 0.00356754 0)
(19.2858 0.00319718 0)