/*--------------------------------*- C++ -*----------------------------------*\
  =========                 |
  \\      /  F ield         | OpenFOAM: The Open Source CFD Toolbox
   \\    /   O peration     | Website:  https://openfoam.org
    \\  /    A nd           | Version:  7
     \\/     M anipulation  |
\*---------------------------------------------------------------------------*/
FoamFile
{
    version     2.0;
    format      ascii;
    class       surfaceScalarField;
    location    "0.7";
    object      phi;
}
// * * * * * * * * * * * * * * * * * * * * * * * * * * * * * * * * * * * * * //

dimensions      [0 3 -1 0 0 0 0];

internalField   nonuniform List<scalar> 
1740
(
7.42718e-08
-7.428e-08
-9.23731e-07
9.98003e-07
-2.93242e-06
2.00869e-06
-5.57374e-06
2.64131e-06
-8.51913e-06
2.94538e-06
-1.15367e-05
3.01753e-06
-1.44778e-05
2.94113e-06
-1.72513e-05
2.77352e-06
-1.97992e-05
2.54787e-06
-2.208e-05
2.2808e-06
-2.40597e-05
1.97977e-06
-2.57078e-05
1.64803e-06
-2.69953e-05
1.28748e-06
-2.78953e-05
9.00016e-07
-2.83835e-05
4.88212e-07
-2.84391e-05
5.55753e-08
-2.80455e-05
-3.9353e-07
-2.71924e-05
-8.53092e-07
-2.58765e-05
-1.31593e-06
-2.41033e-05
-1.77318e-06
-2.18897e-05
-2.21365e-06
-1.92672e-05
-2.62249e-06
-1.62885e-05
-2.97869e-06
-1.30377e-05
-3.2508e-06
-9.64635e-06
-3.39135e-06
-6.31433e-06
-3.33202e-06
-3.32891e-06
-2.98541e-06
-1.06845e-06
-2.26046e-06
5.52223e-08
-1.12367e-06
5.52257e-08
-9.94251e-07
9.1997e-07
-4.29272e-06
4.29647e-06
-9.46482e-06
7.1808e-06
-1.58809e-05
9.0574e-06
-2.29439e-05
1.00083e-05
-3.01827e-05
1.02564e-05
-3.72621e-05
1.00205e-05
-4.39542e-05
9.46563e-06
-5.01028e-05
8.69652e-06
-5.55942e-05
7.77213e-06
-6.03377e-05
6.72337e-06
-6.42565e-05
5.56682e-06
-6.72822e-05
4.31319e-06
-6.93543e-05
2.97205e-06
-7.04202e-05
1.55417e-06
-7.04381e-05
7.3466e-08
-6.9376e-05
-1.45566e-06
-6.7218e-05
-3.01102e-06
-6.39655e-05
-4.56848e-06
-5.96412e-05
-6.09748e-06
-5.42954e-05
-7.5594e-06
-4.80148e-05
-8.90317e-06
-4.09357e-05
-1.00578e-05
-3.32651e-05
-1.09214e-05
-2.53078e-05
-1.13487e-05
-1.74949e-05
-1.11449e-05
-1.03981e-05
-1.00822e-05
-4.70115e-06
-7.95744e-06
-1.08481e-06
-4.74001e-06
-1.02958e-06
-2.05105e-06
2.97102e-06
-7.34354e-06
9.58894e-06
-1.50294e-05
1.48666e-05
-2.42644e-05
1.82924e-05
-3.42945e-05
2.00384e-05
-4.45202e-05
2.04821e-05
-5.45016e-05
2.00019e-05
-6.39278e-05
1.88919e-05
-7.25782e-05
1.73469e-05
-8.02888e-05
1.54827e-05
-8.69298e-05
1.33643e-05
-9.23923e-05
1.10294e-05
-9.65825e-05
8.50338e-06
-9.94189e-05
5.80843e-06
-0.000100833
2.96801e-06
-0.000100771
1.17006e-08
-9.91943e-05
-3.03229e-06
-9.60869e-05
-6.11848e-06
-9.14559e-05
-9.19951e-06
-8.53387e-05
-1.22146e-05
-7.78111e-05
-1.50871e-05
-6.89981e-05
-1.77161e-05
-5.90923e-05
-1.99636e-05
-4.83777e-05
-2.1636e-05
-3.72606e-05
-2.24657e-05
-2.62992e-05
-2.21063e-05
-1.62169e-05
-2.01645e-05
-7.87402e-06
-1.63004e-05
-2.18045e-06
-1.04336e-05
-3.21003e-06
-2.80768e-06
5.77871e-06
-9.6477e-06
1.6429e-05
-1.92774e-05
2.44963e-05
-3.06352e-05
2.96502e-05
-4.28405e-05
3.22438e-05
-5.52114e-05
3.2853e-05
-6.72481e-05
3.20386e-05
-7.85934e-05
3.02371e-05
-8.89893e-05
2.77428e-05
-9.82419e-05
2.47353e-05
-0.000106197
2.13193e-05
-0.000112726
1.75581e-05
-0.000117718
1.34955e-05
-0.000121079
9.16945e-06
-0.00012273
4.61928e-06
-0.000122608
-1.09768e-07
-0.000120674
-4.96653e-06
-0.000116908
-9.88501e-06
-0.000111319
-1.47879e-05
-0.000103955
-1.95791e-05
-9.49049e-05
-2.41372e-05
-8.43179e-05
-2.83031e-05
-7.24203e-05
-3.18611e-05
-5.95428e-05
-3.45135e-05
-4.61524e-05
-3.58561e-05
-3.28857e-05
-3.5373e-05
-2.05683e-05
-3.24819e-05
-1.0205e-05
-2.66637e-05
-2.93244e-06
-1.77061e-05
-6.14247e-06
-3.31892e-06
9.09763e-06
-1.13126e-05
2.44226e-05
-2.24308e-05
3.56145e-05
-3.54143e-05
4.26338e-05
-4.92678e-05
4.60973e-05
-6.32434e-05
4.68286e-05
-7.68008e-05
4.5596e-05
-8.95554e-05
4.29918e-05
-0.000101229
3.94161e-05
-0.00011161
3.51164e-05
-0.00012053
3.02399e-05
-0.00012785
2.48774e-05
-0.000133447
1.90929e-05
-0.000137219
1.29414e-05
-0.000139078
6.47865e-06
-0.000138956
-2.32158e-07
-0.000136804
-7.11877e-06
-0.000132598
-1.40904e-05
-0.000126347
-2.10389e-05
-0.000118097
-2.78295e-05
-0.000107943
-3.42913e-05
-9.60456e-05
-4.02004e-05
-8.26518e-05
-4.52549e-05
-6.81234e-05
-4.9042e-05
-5.29725e-05
-5.1007e-05
-3.78998e-05
-5.04458e-05
-2.38228e-05
-4.65588e-05
-1.1884e-05
-3.86026e-05
-3.42911e-06
-2.6161e-05
-9.57158e-06
-3.68078e-06
1.27784e-05
-1.25652e-05
3.3307e-05
-2.48758e-05
4.79251e-05
-3.91821e-05
5.69401e-05
-5.43815e-05
6.12967e-05
-6.96644e-05
6.21114e-05
-8.44561e-05
6.03877e-05
-9.83524e-05
5.6888e-05
-0.000111062
5.21257e-05
-0.000122365
4.64194e-05
-0.000132085
3.99601e-05
-0.000140074
3.28667e-05
-0.000146205
2.52235e-05
-0.000150365
1.71019e-05
-0.000152461
8.57381e-06
-0.000152412
-2.80333e-07
-0.000150162
-9.36919e-06
-0.000145676
-1.85762e-05
-0.000138953
-2.77621e-05
-0.000130031
-3.67515e-05
-0.000119003
-4.53197e-05
-0.000106032
-5.31715e-05
-9.13776e-05
-5.99089e-05
-7.5429e-05
-6.49906e-05
-5.87425e-05
-6.76935e-05
-4.20867e-05
-6.71016e-05
-2.64788e-05
-6.21667e-05
-1.32017e-05
-5.18797e-05
-3.7902e-06
-3.55725e-05
-1.33618e-05
-3.97676e-06
1.67552e-05
-1.36267e-05
4.2957e-05
-2.69923e-05
6.12907e-05
-4.24906e-05
7.24384e-05
-5.89153e-05
7.77214e-05
-7.53942e-05
7.85903e-05
-9.13183e-05
7.63118e-05
-0.000106265
7.18351e-05
-0.000119935
6.57954e-05
-0.000132102
5.85861e-05
-0.000142585
5.04432e-05
-0.000151232
4.15137e-05
-0.000157909
3.19008e-05
-0.000162498
2.16908e-05
-0.000164893
1.09691e-05
-0.000165006
-1.67853e-07
-0.00016276
-1.16148e-05
-0.000158108
-2.32289e-05
-0.000151029
-3.48412e-05
-0.000141546
-4.62345e-05
-0.000129739
-5.71263e-05
-0.000115769
-6.71417e-05
-9.9904e-05
-7.57738e-05
-8.256e-05
-8.23346e-05
-6.43457e-05
-8.59078e-05
-4.61114e-05
-8.5336e-05
-2.89906e-05
-7.92874e-05
-1.44184e-05
-6.64519e-05
-4.11135e-06
-4.58795e-05
-1.74731e-05
-4.26721e-06
2.10224e-05
-1.467e-05
5.33598e-05
-2.90842e-05
7.57049e-05
-4.57799e-05
8.9134e-05
-6.34453e-05
9.53868e-05
-8.11421e-05
9.62871e-05
-9.82243e-05
9.3394e-05
-0.000114251
8.7862e-05
-0.000128914
8.04583e-05
-0.000141984
7.16559e-05
-0.000153278
6.17372e-05
-0.000162641
5.08766e-05
-0.000169934
3.91944e-05
-0.000175032
2.67885e-05
-0.000177817
1.3754e-05
-0.000178187
2.0187e-07
-0.000176042
-1.37598e-05
-0.000171312
-2.79587e-05
-0.000163951
-4.22022e-05
-0.000153955
-5.62301e-05
-0.000141384
-6.96978e-05
-0.000126385
-8.21408e-05
-0.000109232
-9.29261e-05
-9.0373e-05
-0.000101194
-7.04788e-05
-0.000105802
-5.05015e-05
-0.000105313
-3.17157e-05
-9.80732e-05
-1.57315e-05
-8.24361e-05
-4.45847e-06
-5.71525e-05
-2.19316e-05
-4.59085e-06
2.56132e-05
-1.58147e-05
6.45836e-05
-3.13685e-05
9.12587e-05
-4.93667e-05
0.000107132
-6.83844e-05
0.000114405
-8.74109e-05
0.000115314
-0.00010576
0.000111743
-0.00012297
0.000105073
-0.000138727
9.62147e-05
-0.000152798
8.57269e-05
-0.000165001
7.39404e-05
-0.00017518
6.10559e-05
-0.000183194
4.72082e-05
-0.000188908
3.25032e-05
-0.000192195
1.70406e-05
-0.000192926
9.32324e-07
-0.000190986
-1.56998e-05
-0.000186266
-3.26782e-05
-0.000178685
-4.97834e-05
-0.0001682
-6.67147e-05
-0.000154837
-8.30613e-05
-0.00013872
-9.82571e-05
-0.000120125
-0.000111521
-9.95307e-05
-0.000121788
-7.7685e-05
-0.000127648
-5.56666e-05
-0.000127332
-3.49255e-05
-0.000118814
-1.72831e-05
-0.000100078
-4.87408e-06
-6.95616e-05
-2.68057e-05
-4.97162e-06
3.05849e-05
-1.71401e-05
7.67521e-05
-3.39934e-05
0.000108112
-5.34698e-05
0.000126609
-7.40169e-05
0.000134952
-9.45434e-05
0.00013584
-0.000114318
0.000131517
-0.00013286
0.000123615
-0.000149847
0.000113202
-0.000165049
0.000100929
-0.000178287
8.71779e-05
-0.000189406
7.21753e-05
-0.000198265
5.60672e-05
-0.000204724
3.89619e-05
-0.00020864
2.09566e-05
-0.000209864
2.15684e-06
-0.000208249
-1.73147e-05
-0.000203646
-3.7282e-05
-0.000195921
-5.75083e-05
-0.000184979
-7.76566e-05
-0.000170793
-9.72474e-05
-0.00015345
-0.0001156
-0.000133213
-0.000131758
-0.000110592
-0.000144409
-8.64277e-05
-0.000151812
-6.19549e-05
-0.000151804
-3.88447e-05
-0.000141925
-1.91849e-05
-0.000119738
-5.38799e-06
-8.33585e-05
-3.21937e-05
-5.42569e-06
3.60106e-05
-1.87027e-05
9.00291e-05
-3.70664e-05
0.000126476
-5.82476e-05
0.00014779
-8.0547e-05
0.000157251
-0.000102781
0.000158074
-0.000124171
0.000152907
-0.000144215
0.000143658
-0.000162587
0.000131574
-0.000179063
0.000117405
-0.000193471
0.000101586
-0.000205665
8.43699e-05
-0.000215507
6.59093e-05
-0.000222854
4.63086e-05
-0.00022755
2.5653e-05
-0.000229425
4.03141e-06
-0.000228291
-1.8449e-05
-0.000223947
-4.16252e-05
-0.000216197
-6.52584e-05
-0.000204869
-8.89845e-05
-0.00018986
-0.000112257
-0.000171193
-0.000134267
-0.000149099
-0.000153853
-0.000124113
-0.000169394
-9.7177e-05
-0.000178748
-6.97214e-05
-0.00017926
-4.37003e-05
-0.000167946
-2.15458e-05
-0.000141893
-6.02717e-06
-9.88771e-05
-3.82208e-05
-5.96677e-06
4.19773e-05
-2.05504e-05
0.000104613
-4.06782e-05
0.000146603
-6.38326e-05
0.000170944
-8.81413e-05
0.00018156
-0.000112317
0.00018225
-0.000135526
0.000176116
-0.00015725
0.000165383
-0.000177165
0.000151489
-0.000195058
0.000135297
-0.000210773
0.000117301
-0.000224179
9.77759e-05
-0.000235148
7.68782e-05
-0.000243539
5.47003e-05
-0.00024919
3.1304e-05
-0.000251905
6.74662e-06
-0.000251456
-1.88989e-05
-0.000247578
-4.5503e-05
-0.000239991
-7.28456e-05
-0.000228421
-0.000100554
-0.000212656
-0.000128022
-0.000192615
-0.000154307
-0.000168465
-0.000178003
-0.000140742
-0.000197117
-0.000110498
-0.000208993
-7.94016e-05
-0.000210357
-4.97733e-05
-0.000197574
-2.45003e-05
-0.000167166
-6.82432e-06
-0.000116553
-4.50452e-05
-6.61e-06
4.85873e-05
-2.27345e-05
0.000120737
-4.49233e-05
0.000168792
-7.03586e-05
0.00019638
-9.69633e-05
0.000208165
-0.00012333
0.000208617
-0.000148571
0.000201357
-0.000172152
0.000188964
-0.000193759
0.000173095
-0.0002132
0.000154738
-0.000230346
0.000134447
-0.000245092
0.000112522
-0.000257332
8.91176e-05
-0.000266936
6.43043e-05
-0.000273739
3.81075e-05
-0.000277527
1.05346e-05
-0.000278026
-1.83998e-05
-0.000274901
-4.86283e-05
-0.000267766
-7.9981e-05
-0.000256213
-0.000112107
-0.000239872
-0.000144363
-0.000218507
-0.000175672
-0.000192158
-0.000204352
-0.000161323
-0.000227952
-0.000127151
-0.000243164
-9.15984e-05
-0.00024591
-5.7461e-05
-0.000231711
-2.8242e-05
-0.000196385
-7.82716e-06
-0.000136968
-5.28723e-05
-7.37511e-06
5.59624e-05
-2.53191e-05
0.000138681
-4.99165e-05
0.00019339
-7.79833e-05
0.000224446
-0.000107199
0.00023738
-0.000136021
0.000237439
-0.000163503
0.000228839
-0.000189104
0.000214565
-0.000212531
0.000196522
-0.000233628
0.000175835
-0.000252308
0.000153127
-0.000268504
0.000128719
-0.000282147
0.00010276
-0.000293133
7.52905e-05
-0.000301308
4.62825e-05
-0.000306446
1.56718e-05
-0.000308231
-1.66143e-05
-0.00030625
-5.06097e-05
-0.000299992
-8.62385e-05
-0.000288879
-0.00012322
-0.000272322
-0.000160919
-0.00024985
-0.000198145
-0.000221285
-0.000232917
-0.000187003
-0.000262233
-0.000148215
-0.000281953
-0.000107196
-0.000286928
-6.73647e-05
-0.000271543
-3.30715e-05
-0.000230678
-9.11201e-06
-0.000160927
-6.19843e-05
-8.28973e-06
6.42522e-05
-2.83912e-05
0.000158783
-5.58089e-05
0.000220807
-8.69088e-05
0.000255546
-0.00011908
0.000269552
-0.000150627
0.000268986
-0.000180548
0.00025876
-0.000208307
0.000242324
-0.000233648
0.000221863
-0.00025647
0.000198657
-0.000276744
0.000173401
-0.000294467
0.000146442
-0.000309621
0.000117914
-0.000322149
8.78187e-05
-0.000331926
5.60592e-05
-0.00033873
2.24758e-05
-0.000342218
-1.31259e-05
-0.000341897
-5.09311e-05
-0.000337118
-9.10169e-05
-0.000327092
-0.000133247
-0.000310943
-0.000177068
-0.000287852
-0.000221236
-0.000257289
-0.00026348
-0.000219363
-0.00030016
-0.000175239
-0.000326077
-0.000127523
-0.000334644
-8.04211e-05
-0.000318645
-3.94734e-05
-0.000271626
-1.0807e-05
-0.000189594
-7.27913e-05
-9.39388e-06
7.36461e-05
-3.2073e-05
0.000181462
-6.28073e-05
0.000251542
-9.74035e-05
0.000290142
-0.000132905
0.000305053
-0.000167446
0.000303527
-0.000199978
0.000291292
-0.000229989
0.000272334
-0.000257284
0.000249158
-0.000281838
0.000223211
-0.000303708
0.000195271
-0.000322973
0.000165707
-0.000339698
0.000134639
-0.000353895
0.000102016
-0.000365494
6.76587e-05
-0.000374306
3.1288e-05
-0.000379989
-7.44371e-06
-0.000381975
-4.89449e-05
-0.000379484
-9.35077e-05
-0.000371482
-0.000141249
-0.000356731
-0.000191819
-0.000333928
-0.000244039
-0.00030199
-0.000295418
-0.000260519
-0.00034163
-0.000210424
-0.000376173
-0.000154558
-0.00039051
-9.80913e-05
-0.000375111
-4.82368e-05
-0.00032148
-1.31314e-05
-0.000224699
-8.59227e-05
-1.07469e-05
8.4393e-05
-3.65399e-05
0.000207255
-7.11989e-05
0.000286201
-0.000109829
0.000328772
-0.000149061
0.000344285
-0.00018685
0.000341317
-0.000222118
0.00032656
-0.000254405
0.000304621
-0.000283607
0.000278361
-0.00030981
0.000249414
-0.000333182
0.000218643
-0.000353917
0.000186442
-0.000372187
0.000152909
-0.00038811
0.000117938
-0.000401705
8.1254e-05
-0.000412849
4.24318e-05
-0.000421262
9.69464e-07
-0.000426311
-4.38955e-05
-0.000427129
-9.269e-05
-0.000422426
-0.000145952
-0.000410533
-0.000203712
-0.000389511
-0.000265061
-0.00035746
-0.000327468
-0.00031311
-0.00038598
-0.000256719
-0.000432564
-0.000191133
-0.000456096
-0.000122593
-0.000443652
-6.06247e-05
-0.000383448
-1.64587e-05
-0.000268865
-0.000102381
-1.24388e-05
9.68318e-05
-4.20466e-05
0.000236863
-8.13852e-05
0.000325539
-0.000124668
0.000372055
-0.000168045
0.000387662
-0.000209292
0.000382563
-0.000247334
0.000364602
-0.000281808
0.000339095
-0.000312745
0.000309298
-0.000340375
0.000277044
-0.000365015
0.000243283
-0.000387002
0.000208429
-0.000406654
0.00017256
-0.000424226
0.00013551
-0.000439876
9.69042e-05
-0.000453613
5.6168e-05
-0.000465183
1.25403e-05
-0.000474114
-3.4965e-05
-0.000479416
-8.73876e-05
-0.000479599
-0.000145769
-0.000472543
-0.000210768
-0.000455532
-0.000282071
-0.000425543
-0.000357458
-0.000379927
-0.000431595
-0.00031765
-0.000494841
-0.000240973
-0.000532773
-0.000157085
-0.00052754
-7.85702e-05
-0.000461963
-2.14042e-05
-0.000326031
-0.000123786
-1.46087e-05
0.000111441
-4.89664e-05
0.00027122
-9.39249e-05
0.000370498
-0.00014256
0.000420691
-0.00019047
0.000435572
-0.00023528
0.000427373
-0.000275981
0.000405303
-0.000312369
0.000375484
-0.000344665
0.000341594
-0.00037329
0.000305668
-0.000398743
0.000268737
-0.000421544
0.000231229
-0.000442184
0.000193201
-0.000461098
0.000154424
-0.000478622
0.000114428
-0.000494943
7.24887e-05
-0.000510008
2.76058e-05
-0.00052345
-2.15233e-05
-0.000534368
-7.64692e-05
-0.000541167
-0.00013897
-0.000541332
-0.000210603
-0.000531314
-0.00029209
-0.000506677
-0.000382094
-0.000462803
-0.00047547
-0.000396433
-0.000561211
-0.000308192
-0.000621014
-0.000205575
-0.000630156
-0.000104811
-0.000562728
-2.89318e-05
-0.00040191
-0.000152717
-1.74767e-05
0.000128917
-5.78488e-05
0.000311592
-0.000109583
0.000422232
-0.000164308
0.000475415
-0.000217023
0.000488288
-0.000265281
0.000475631
-0.000308244
0.000448266
-0.00034596
0.0004132
-0.000378911
0.000374544
-0.000407759
0.000334517
-0.000433231
0.000294209
-0.000456056
0.000254054
-0.000476932
0.000214076
-0.0004965
0.000173992
-0.000515317
0.000133245
-0.000533807
9.09793e-05
-0.000552187
4.59859e-05
-0.000570338
-3.37264e-06
-0.000587599
-5.92085e-05
-0.000602469
-0.0001241
-0.00061224
-0.000200832
-0.000612637
-0.000291693
-0.000597699
-0.000397033
-0.000560298
-0.000512872
-0.000493849
-0.00062766
-0.000395716
-0.000719147
-0.000272128
-0.000753744
-0.000142776
-0.00069208
-4.04592e-05
-0.000504227
-0.000193177
-2.13985e-05
0.000150316
-6.94998e-05
0.000359694
-0.000129374
0.000482106
-0.00019083
0.000536872
-0.000248305
0.000545762
-0.000299444
0.00052677
-0.000343751
0.000492573
-0.000381662
0.000451111
-0.000414008
0.00040689
-0.000441761
0.000362269
-0.000465913
0.000318361
-0.000487431
0.000275573
-0.000507237
0.000233882
-0.000526192
0.000192948
-0.000545092
0.000152145
-0.000564632
0.00011052
-0.000585354
6.67078e-05
-0.000607508
1.87811e-05
-0.000630855
-3.58613e-05
-0.00065427
-0.000100685
-0.000675213
-0.000179889
-0.000689069
-0.000277837
-0.000688608
-0.000397494
-0.000664039
-0.000537441
-0.000604506
-0.000687193
-0.000502068
-0.000821585
-0.000358835
-0.000896977
-0.000195934
-0.000854981
-5.79348e-05
-0.000642226
-0.000251111
-2.69637e-05
0.000177279
-8.50931e-05
0.000417823
-0.000154547
0.00055156
-0.00022296
0.000605284
-0.000284406
0.000607208
-0.000336954
0.000579318
-0.000380726
0.000536346
-0.000416733
0.000487117
-0.000446283
0.00043644
-0.00047073
0.000386716
-0.000491377
0.000339008
-0.000509448
0.000293643
-0.000526082
0.000250516
-0.000542351
0.000209216
-0.000559261
0.000169055
-0.000577763
0.000129022
-0.000598722
8.76663e-05
-0.000622832
4.28915e-05
-0.000650374
-8.3196e-06
-0.000680942
-7.01167e-05
-0.00071265
-0.00014818
-0.000741268
-0.000249219
-0.00075914
-0.000379622
-0.000754469
-0.000542112
-0.000711969
-0.000729693
-0.000616566
-0.000916988
-0.000462165
-0.00105138
-0.000266196
-0.00105095
-8.38191e-05
-0.000824602
-0.000334931
-3.51793e-05
0.000212459
-0.000106307
0.000488951
-0.000186436
0.000631689
-0.000260872
0.00067972
-0.000323916
0.000670251
-0.00037466
0.000630063
-0.000414279
0.000575964
-0.000444631
0.00051747
-0.000467669
0.000459478
-0.000485222
0.000404269
-0.000498943
0.000352729
-0.00051031
0.000305011
-0.000520653
0.000260859
-0.000531186
0.000219749
-0.000543052
0.00018092
-0.000557358
0.000143328
-0.000575201
0.00010551
-0.000597653
6.53439e-05
-0.000625556
1.95827e-05
-0.000659384
-3.62888e-05
-0.000698461
-0.000109103
-0.000739902
-0.000207777
-0.000777131
-0.000342393
-0.000798177
-0.000521066
-0.000784755
-0.000743115
-0.000714209
-0.000987534
-0.000567951
-0.00119764
-0.000350896
-0.00126801
-0.000120712
-0.00105479
-0.000455643
-4.78243e-05
0.000260283
-0.000135457
0.000576584
-0.000225893
0.000722124
-0.00030272
0.000756548
-0.000361814
0.000729345
-0.000404354
0.000672603
-0.000433228
0.000604838
-0.000451531
0.000535773
-0.000462064
0.000470011
-0.000467221
0.000409426
-0.000469014
0.000354522
-0.000469131
0.000305127
-0.000468996
0.000260725
-0.000469849
0.000220603
-0.000472817
0.000183888
-0.000478989
0.0001495
-0.000489495
0.000116016
-0.000505554
8.14025e-05
-0.000528539
4.25677e-05
-0.000559528
-5.29966e-06
-0.000599567
-6.90643e-05
-0.000647981
-0.000159363
-0.000701152
-0.000289222
-0.00074989
-0.000472329
-0.000776472
-0.000716533
-0.000753076
-0.00101093
-0.000646434
-0.00130428
-0.000438
-0.00147644
-0.000169852
-0.00132293
-0.000625495
-6.81271e-05
0.00032841
-0.000175407
0.000683864
-0.000271628
0.000818345
-0.000341436
0.000826356
-0.000385106
0.000773015
-0.000407653
0.00069515
-0.000414622
0.000611807
-0.000410797
0.000531948
-0.000399987
0.000459201
-0.000385137
0.000394577
-0.000368505
0.000337891
-0.000351818
0.00028844
-0.000336406
0.000245312
-0.000323324
0.000207521
-0.000313464
0.000174028
-0.000307665
0.000143701
-0.000306821
0.000115173
-0.000312018
8.65994e-05
-0.000324667
5.52168e-05
-0.00034658
1.66131e-05
-0.000379924
-3.57206e-05
-0.000426867
-0.00011242
-0.000488221
-0.000227867
-0.00056082
-0.000399731
-0.000632816
-0.000644536
-0.000677523
-0.000966224
-0.000650085
-0.00133171
-0.000500085
-0.00162644
-0.000227112
-0.00159591
-0.000852607
-0.000101786
0.000430196
-0.000228129
0.000810207
-0.000315175
0.000905391
-0.000357084
0.000868265
-0.000363836
0.000779767
-0.000346747
0.00067806
-0.000314979
0.000580039
-0.000275179
0.000492148
-0.000231948
0.00041597
-0.000188395
0.000351024
-0.000146593
0.000296088
-0.000107892
0.00024974
-7.31599e-05
0.000210579
-4.29492e-05
0.00017731
-1.7645e-05
0.000148724
2.41192e-06
0.000123644
1.67935e-05
0.000100791
2.48303e-05
7.85626e-05
2.53657e-05
5.46814e-05
1.63987e-05
2.55802e-05
-4.91654e-06
-1.44054e-05
-4.30184e-05
-7.43178e-05
-0.00010341
-0.000167475
-0.000190835
-0.000312306
-0.000304498
-0.000530873
-0.000428398
-0.000842324
-0.000517041
-0.00124307
-0.000489558
-0.00165392
-0.000276101
-0.00180936
-0.00112871
-0.000157091
0.000587287
-0.00028574
0.000938857
-0.000324582
0.000944232
-0.000297572
0.000841255
-0.00023231
0.000714505
-0.000148143
0.000593894
-5.74146e-05
0.00048931
3.25716e-05
0.000402162
0.000117759
0.000330782
0.000196055
0.000272728
0.000266552
0.000225591
0.000329032
0.000187259
0.000383659
0.000155953
0.000430783
0.000130185
0.000470808
0.000108699
0.000504078
9.03745e-05
0.000530766
7.4103e-05
0.000550721
5.86075e-05
0.000563234
4.21679e-05
0.000566603
2.22116e-05
0.00055743
-5.23239e-06
0.000530385
-4.72725e-05
0.000476568
-0.000113659
0.000384108
-0.000219846
0.000240825
-0.00038759
4.37671e-05
-0.000645265
-0.00017905
-0.00102025
-0.000338045
-0.00149493
-0.000285162
-0.00186225
-0.00141387
-0.000233996
0.000821283
-0.000286363
0.000991223
-0.000191377
0.000849247
-3.05711e-05
0.00068045
0.000148523
0.00053541
0.000323417
0.000419
0.000484296
0.000328432
0.000627571
0.000258887
0.000752808
0.000205545
0.000861059
0.000164477
0.000953965
0.000132685
0.00103332
0.000107908
0.00110084
8.84303e-05
0.00115808
7.29419e-05
0.00120637
6.04168e-05
0.00124673
5.00081e-05
0.0012799
4.09397e-05
0.00130613
3.23752e-05
0.00132505
2.32426e-05
0.00133525
1.20167e-05
0.00133347
-3.45677e-06
0.0013141
-2.79034e-05
0.00126701
-6.65674e-05
0.00117649
-0.000129321
0.00102038
-0.000231488
0.000773836
-0.000398718
0.000428352
-0.000674771
4.81238e-05
-0.0011147
-0.000170713
-0.00164341
-0.00158458
-0.000181048
0.00100233
4.93768e-05
0.000760799
0.000413549
0.000485075
0.000753706
0.000340292
0.00104589
0.000243224
0.00129018
0.00017471
0.00149151
0.000127105
0.0016563
9.40914e-05
0.00179098
7.08684e-05
0.00190119
5.42634e-05
0.00199166
4.22223e-05
0.00206619
3.33707e-05
0.00212786
2.67639e-05
0.00217906
2.17406e-05
0.00222165
1.78245e-05
0.00225701
1.4651e-05
0.00228604
1.19067e-05
0.00230915
9.27084e-06
0.00232603
6.35766e-06
0.00233538
2.66629e-06
0.00233489
-2.96564e-06
0.00231882
-1.18302e-05
0.00227805
-2.57999e-05
0.00219731
-4.85827e-05
0.00205188
-8.60489e-05
0.00180363
-0.000150476
0.00140244
-0.000273579
0.000829198
-0.000541455
0.000224968
-0.00103918
-0.00135961
0.00100233
0.00176313
0.0022482
0.0025885
0.00283172
0.00300643
0.00313354
0.00322763
0.0032985
0.00335276
0.00339498
0.00342835
0.00345512
0.00347686
0.00349468
0.00350933
0.00352124
0.00353051
0.00353687
0.00353953
0.00353657
0.00352474
0.00349894
0.00345035
0.00336431
0.00321383
0.00294025
0.00239879
0.00135961
)
;

boundaryField
{
    movingWall
    {
        type            calculated;
        value           uniform 0;
    }
    fixedWalls
    {
        type            calculated;
        value           uniform 0;
    }
    frontAndBack
    {
        type            empty;
        value           nonuniform 0();
    }
}


// ************************************************************************* //
