/*--------------------------------*- C++ -*----------------------------------*\
  =========                 |
  \\      /  F ield         | OpenFOAM: The Open Source CFD Toolbox
   \\    /   O peration     | Website:  https://openfoam.org
    \\  /    A nd           | Version:  7
     \\/     M anipulation  |
\*---------------------------------------------------------------------------*/
FoamFile
{
    version     2.0;
    format      ascii;
    class       volScalarField;
    location    "2.3";
    object      p;
}
// * * * * * * * * * * * * * * * * * * * * * * * * * * * * * * * * * * * * * //

dimensions      [0 2 -2 0 0 0 0];

internalField   nonuniform List<scalar> 
900
(
-2.59001e-08
-0.000240267
-0.000564226
-0.000855286
-0.00105229
-0.00111591
-0.00102889
-0.000786621
-0.000390621
0.000154588
0.000842545
0.00166469
0.00260945
0.00366088
0.0047974
0.00599078
0.00720609
0.00840133
0.00953001
0.0105438
0.0113965
0.0120489
0.0124742
0.0126621
0.0126234
0.0123917
0.0120247
0.0116011
0.0112289
0.0110225
0.000237378
-6.96833e-06
-0.000242545
-0.000435974
-0.000549859
-0.000555021
-0.000436505
-0.000188219
0.00019103
0.000699278
0.00133204
0.00208218
0.00293931
0.00388884
0.00491096
0.00597998
0.00706588
0.00813102
0.00913556
0.0100385
0.0108015
0.0113925
0.0117909
0.0119907
0.012003
0.0118576
0.0116017
0.011298
0.0110175
0.0108155
0.000569803
0.00022135
-2.09736e-05
-0.000187204
-0.000270132
-0.00025036
-0.000117925
0.00013113
0.000497884
0.00098127
0.00157813
0.00228287
0.00308672
0.00397687
0.0049354
0.00593827
0.00695973
0.00796266
0.00891031
0.00976422
0.010488
0.0110518
0.0114358
0.0116346
0.0116587
0.0115349
0.0113049
0.0110226
0.0107342
0.0104508
0.00088075
0.000405333
0.000119116
-5.39471e-05
-0.000132311
-0.000105641
3.01445e-05
0.000275496
0.000630244
0.00109356
0.00166342
0.0023359
0.00310425
0.00395781
0.00488099
0.00585287
0.00684401
0.00782343
0.00875346
0.00959492
0.0103103
0.010868
0.0112467
0.0114391
0.0114543
0.0113169
0.0110665
0.0107534
0.0104079
0.0100088
0.0010997
0.000495034
0.000153878
-4.00882e-05
-0.000126772
-0.000103393
2.86799e-05
0.000266395
0.000608215
0.00105348
0.00160136
0.00224983
0.00299434
0.00382657
0.0047331
0.00569438
0.006684
0.00766895
0.00861081
0.00946799
0.0101995
0.0107698
0.0111535
0.0113399
0.011336
0.0111652
0.0108674
0.0104942
0.0100679
0.00954443
0.00116875
0.00044156
4.20149e-05
-0.000180654
-0.00028408
-0.000271501
-0.000148886
7.77066e-05
0.000405631
0.000834575
0.00136511
0.00199729
0.00272912
0.00355489
0.00446364
0.00543787
0.00645096
0.00747014
0.00845419
0.00935726
0.0101326
0.010738
0.0111416
0.0113274
0.0112993
0.0110804
0.0107134
0.0102557
0.00972897
0.00907403
0.00104591
0.00020528
-0.000252455
-0.000507766
-0.000633185
-0.000636756
-0.000528194
-0.000315938
-3.31338e-06
0.000410039
0.000926376
0.00154819
0.00227638
0.00310829
0.00403571
0.00504306
0.00610493
0.00718707
0.00824499
0.009227
0.0100783
0.010747
0.0111918
0.0113889
0.0113372
0.01106
0.0106049
0.0100397
0.00939156
0.00859159
0.000698553
-0.000247294
-0.000761523
-0.00105115
-0.0012018
-0.00122552
-0.0011351
-0.000940776
-0.000646105
-0.000249674
0.000252831
0.000866749
0.00159639
0.00244275
0.00340112
0.0044586
0.00559138
0.00676422
0.0079289
0.00902663
0.00999217
0.0107608
0.0112775
0.0115068
0.0114401
0.0110995
0.0105395
0.0098427
0.00904665
0.00807495
9.87609e-05
-0.00094612
-0.00151515
-0.00184003
-0.00201849
-0.00206616
-0.00199846
-0.00182702
-0.00155527
-0.00118041
-0.000695685
-9.24244e-05
0.000637733
0.00150034
0.00249534
0.00361391
0.00483507
0.006124
0.00742915
0.00868403
0.00981075
0.0107278
0.0113612
0.0116577
0.0115962
0.0111947
0.0105154
0.00966002
0.00868068
0.00749249
-0.00077896
-0.00191884
-0.00254169
-0.00290299
-0.00311216
-0.00318835
-0.00314944
-0.0030083
-0.00276803
-0.00242425
-0.00196746
-0.0013852
-0.0006643
0.000206518
0.0012335
0.00241409
0.00373247
0.00515716
0.00663504
0.0080926
0.00943782
0.010568
0.0113832
0.0118034
0.0117863
0.0113397
0.0105321
0.00948843
0.00827953
0.00680822
-0.00195877
-0.00319148
-0.00386816
-0.00426776
-0.00451151
-0.00462224
-0.0046205
-0.0045205
-0.00432512
-0.00402841
-0.00361807
-0.00307749
-0.00238797
-0.00153118
-0.000492425
0.000734992
0.00214421
0.00371248
0.00538868
0.00709542
0.00872678
0.0101549
0.0112449
0.0118776
0.0119749
0.0115227
0.01059
0.00932881
0.00783268
0.00598624
-0.00346391
-0.00478892
-0.00552042
-0.00596112
-0.00624446
-0.00639753
-0.00644408
-0.00640012
-0.0062688
-0.00604301
-0.0057079
-0.00524276
-0.00462287
-0.00382159
-0.00281339
-0.00157824
-0.000108086
0.00158898
0.00347268
0.00546841
0.00746001
0.00929244
0.0107864
0.0117659
0.0120955
0.0117174
0.0106885
0.0091884
0.00733774
0.00499563
-0.00531673
-0.00673501
-0.00752325
-0.00800854
-0.00833739
-0.00854211
-0.00865056
-0.00868155
-0.00863941
-0.00851678
-0.00829714
-0.00795632
-0.00746367
-0.00678346
-0.005877
-0.00470607
-0.00323897
-0.00146531
0.000603743
0.00290771
0.00532977
0.00769063
0.00975836
0.0112794
0.0120285
0.0118696
0.0108208
0.00908245
0.00680586
0.00381676
-0.00753848
-0.00905277
-0.00990035
-0.0104338
-0.0108141
-0.0110802
-0.0112655
-0.0113931
-0.0114701
-0.0114904
-0.0114375
-0.0112853
-0.0109984
-0.0105319
-0.00983264
-0.00884028
-0.00749337
-0.00574171
-0.00355854
-0.000968293
0.0019312
0.00494853
0.00779729
0.0101247
0.0115742
0.0118769
0.0109644
0.00903513
0.0062691
0.00245032
-0.0101492
-0.0117647
-0.0126746
-0.0132588
-0.0136947
-0.0140299
-0.0143057
-0.0145516
-0.0147796
-0.0149873
-0.0151606
-0.015274
-0.0152899
-0.0151562
-0.0148048
-0.0141502
-0.0130931
-0.0115303
-0.00937492
-0.00658698
-0.00321502
0.000563522
0.00441914
0.00788509
0.0104262
0.0115661
0.0110693
0.00908083
0.00579132
0.000931874
-0.0131679
-0.014894
-0.0158688
-0.0165031
-0.0169939
-0.0174005
-0.017775
-0.0181564
-0.018564
-0.0190023
-0.019463
-0.019925
-0.0203523
-0.0206892
-0.0208548
-0.0207378
-0.0201948
-0.0190569
-0.0171523
-0.0143442
-0.0105897
-0.00600872
-0.000941507
0.00403546
0.0081672
0.0106785
0.0110483
0.00926837
0.00548578
-0.000644338
-0.0166141
-0.0184664
-0.0195075
-0.020185
-0.0207205
-0.0211896
-0.0216595
-0.0221817
-0.0227869
-0.0234894
-0.0242908
-0.0251789
-0.0261244
-0.0270732
-0.0279362
-0.0285784
-0.0288101
-0.028387
-0.0270293
-0.0244759
-0.0205389
-0.0152222
-0.00881827
-0.00197711
0.0043116
0.00888474
0.010781
0.00967352
0.0055436
-0.00208662
-0.0205109
-0.022515
-0.0236207
-0.0243227
-0.0248766
-0.0253806
-0.0259225
-0.0265711
-0.0273714
-0.0283515
-0.0295261
-0.0308971
-0.0324471
-0.0341299
-0.0358543
-0.0374665
-0.0387328
-0.03933
-0.0388555
-0.0369045
-0.0330917
-0.02724
-0.0195142
-0.0105605
-0.00156787
0.00585882
0.010152
0.0104298
0.00627855
-0.00304553
-0.0248908
-0.0270874
-0.0282493
-0.0289377
-0.0294574
-0.0299399
-0.0305008
-0.0312312
-0.0321939
-0.0334331
-0.0349803
-0.0368543
-0.0390546
-0.0415481
-0.0442482
-0.0469887
-0.0494979
-0.0513811
-0.052124
-0.0511122
-0.047785
-0.0417162
-0.0328524
-0.0217242
-0.00961882
0.00143907
0.00914922
0.0117924
0.00819473
-0.00292448
-0.0298078
-0.0322594
-0.0334552
-0.0340588
-0.034452
-0.034815
-0.0353014
-0.0360297
-0.0370828
-0.0385223
-0.0403973
-0.0427454
-0.045585
-0.0488992
-0.0526099
-0.0565446
-0.0604011
-0.0637198
-0.0658732
-0.0660869
-0.0635808
-0.0576543
-0.0479682
-0.0348174
-0.0194305
-0.00412632
0.00804101
0.014253
0.0120847
-0.000751946
-0.0353587
-0.0381564
-0.039335
-0.0397283
-0.0398431
-0.0399324
-0.0401997
-0.0407953
-0.0418228
-0.0433598
-0.0454712
-0.0482117
-0.0516172
-0.0556861
-0.0603488
-0.0654286
-0.0705983
-0.0753432
-0.07894
-0.0804697
-0.0789698
-0.0734542
-0.0632711
-0.0483883
-0.0298035
-0.00990976
0.00761918
0.0187174
0.0191652
0.0049962
-0.0417248
-0.0449902
-0.0460411
-0.0460074
-0.0456049
-0.0451928
-0.0450368
-0.0453207
-0.0461649
-0.0476578
-0.0498749
-0.0528821
-0.0567272
-0.0614179
-0.0668878
-0.0729527
-0.0792604
-0.0852483
-0.0901211
-0.0928657
-0.092266
-0.0871878
-0.0766638
-0.0602953
-0.0387156
-0.0141369
0.00943352
0.0267254
0.0312533
0.0166419
-0.0492552
-0.05312
-0.0538078
-0.0529786
-0.0516951
-0.050463
-0.0496167
-0.0493668
-0.04984
-0.0511247
-0.0532962
-0.056422
-0.0605511
-0.06569
-0.0717646
-0.0785749
-0.0857365
-0.09264
-0.0984201
-0.101963
-0.101947
-0.097027
-0.0859891
-0.0681031
-0.0435891
-0.0142668
0.0158871
0.0406461
0.0509911
0.0376533
-0.0586426
-0.0631544
-0.0629822
-0.0607368
-0.0580345
-0.0555581
-0.0536964
-0.0526644
-0.052572
-0.0534882
-0.0554717
-0.0585764
-0.0628382
-0.068247
-0.0747054
-0.0819902
-0.0896657
-0.0970716
-0.103274
-0.107067
-0.10703
-0.101669
-0.0895465
-0.0696608
-0.0418497
-0.00741496
0.0300331
0.0637305
0.0821269
0.0731427
-0.0713154
-0.0761146
-0.0740309
-0.0693431
-0.0644555
-0.0602
-0.0569598
-0.0549012
-0.0540766
-0.0545043
-0.0562021
-0.0591901
-0.0634726
-0.0690064
-0.0756568
-0.083146
-0.0909929
-0.09847
-0.104566
-0.107988
-0.107204
-0.100559
-0.0864647
-0.0636636
-0.0316385
0.00888826
0.0549358
0.0998381
0.12972
0.130334
-0.0903493
-0.0937012
-0.0874624
-0.0786844
-0.0705747
-0.0639143
-0.0589372
-0.0556637
-0.0540207
-0.0539286
-0.0553303
-0.0581864
-0.0624485
-0.068022
-0.0747175
-0.0821964
-0.0899136
-0.0970676
-0.102566
-0.105021
-0.102783
-0.0940267
-0.076973
-0.0500788
-0.0124308
0.0357657
0.0926441
0.152538
0.199681
0.218373
-0.12253
-0.118653
-0.103685
-0.0882941
-0.0756284
-0.0658971
-0.0589133
-0.0543816
-0.0519937
-0.051503
-0.0527336
-0.0555573
-0.0598536
-0.0654623
-0.07213
-0.0794526
-0.0868169
-0.0933495
-0.0978813
-0.0989389
-0.0947385
-0.0832849
-0.0625324
-0.0305479
0.0141681
0.0722875
0.14327
0.223274
0.296982
0.349362
-0.183219
-0.153753
-0.122396
-0.0969286
-0.0781275
-0.0648141
-0.0558738
-0.0503726
-0.0475982
-0.0470541
-0.0484078
-0.0514255
-0.0559092
-0.0616347
-0.0682903
-0.075415
-0.0823398
-0.0881343
-0.091571
-0.0911116
-0.0848729
-0.070742
-0.0463119
-0.00911627
0.0432814
0.113114
0.202244
0.309754
0.424369
0.550508
-0.315328
-0.194168
-0.134435
-0.0963521
-0.0716188
-0.0559921
-0.0466266
-0.0415263
-0.0394461
-0.0396601
-0.0417328
-0.0453754
-0.0503555
-0.0564244
-0.0632493
-0.0703513
-0.0770463
-0.082392
-0.0851389
-0.0836937
-0.0762197
-0.0605336
-0.0339492
0.00652458
0.0644794
0.144565
0.253264
0.398779
0.587531
0.877283
-0.641766
-0.229898
-0.102577
-0.0610157
-0.0396211
-0.0281348
-0.0232515
-0.022196
-0.0233828
-0.0261392
-0.0301766
-0.0353324
-0.0414714
-0.048421
-0.0559117
-0.0635197
-0.0706147
-0.0763141
-0.0794529
-0.0785724
-0.0718079
-0.0568512
-0.0312133
0.00824876
0.0657186
0.147741
0.266834
0.451107
0.757455
1.3515
)
;

boundaryField
{
    movingWall
    {
        type            zeroGradient;
    }
    fixedWalls
    {
        type            zeroGradient;
    }
    frontAndBack
    {
        type            empty;
    }
}


// ************************************************************************* //
