/*--------------------------------*- C++ -*----------------------------------*\
  =========                 |
  \\      /  F ield         | OpenFOAM: The Open Source CFD Toolbox
   \\    /   O peration     | Website:  https://openfoam.org
    \\  /    A nd           | Version:  7
     \\/     M anipulation  |
\*---------------------------------------------------------------------------*/
FoamFile
{
    version     2.0;
    format      ascii;
    class       surfaceScalarField;
    location    "2.3";
    object      phi;
}
// * * * * * * * * * * * * * * * * * * * * * * * * * * * * * * * * * * * * * //

dimensions      [0 3 -1 0 0 0 0];

internalField   nonuniform List<scalar> 
1740
(
3.64248e-07
-3.64227e-07
-2.01439e-07
5.65675e-07
-1.83674e-06
1.63531e-06
-4.35679e-06
2.52005e-06
-7.49848e-06
3.14168e-06
-1.10179e-05
3.51942e-06
-1.4715e-05
3.69712e-06
-1.84319e-05
3.71685e-06
-2.20417e-05
3.60984e-06
-2.54369e-05
3.3952e-06
-2.85189e-05
3.08196e-06
-3.11911e-05
2.67218e-06
-3.33557e-05
2.16459e-06
-3.49142e-05
1.55852e-06
-3.5772e-05
8.57778e-07
-3.5846e-05
7.40497e-08
-3.50732e-05
-7.72789e-07
-3.34264e-05
-1.64683e-06
-3.09242e-05
-2.50217e-06
-2.76417e-05
-3.2825e-06
-2.37165e-05
-3.9252e-06
-1.93488e-05
-4.36765e-06
-1.47941e-05
-4.55475e-06
-1.03475e-05
-4.44654e-06
-6.32252e-06
-4.02503e-06
-3.02268e-06
-3.29984e-06
-7.05603e-07
-2.31708e-06
4.74833e-07
-1.18044e-06
5.64836e-07
-9.00081e-08
5.64833e-07
-5.56347e-07
1.92108e-07
-3.20442e-06
3.21375e-06
-8.08085e-06
6.51173e-06
-1.4816e-05
9.25523e-06
-2.2926e-05
1.12517e-05
-3.1917e-05
1.25105e-05
-4.13412e-05
1.31213e-05
-5.08129e-05
1.31885e-05
-6.00017e-05
1.27987e-05
-6.86177e-05
1.20112e-05
-7.63951e-05
1.08593e-05
-8.30805e-05
9.35764e-06
-8.8428e-05
7.51202e-06
-9.22006e-05
5.33117e-06
-9.4181e-05
2.83821e-06
-9.41915e-05
8.44954e-08
-9.21033e-05
-2.86094e-06
-8.78808e-05
-5.86931e-06
-8.1594e-05
-8.78896e-06
-7.34413e-05
-1.14352e-05
-6.37601e-05
-1.36064e-05
-5.30241e-05
-1.51036e-05
-4.18242e-05
-1.57546e-05
-3.08314e-05
-1.54393e-05
-2.07435e-05
-1.4113e-05
-1.22157e-05
-1.18276e-05
-5.77698e-06
-8.75584e-06
-1.73219e-06
-5.22524e-06
-4.14941e-08
-1.78071e-06
5.23336e-07
-1.68947e-06
1.88158e-06
-6.7335e-06
8.25779e-06
-1.47992e-05
1.45775e-05
-2.53405e-05
1.97964e-05
-3.77073e-05
2.36185e-05
-5.12446e-05
2.60478e-05
-6.53443e-05
2.7221e-05
-7.94646e-05
2.73088e-05
-9.31274e-05
2.64614e-05
-0.000105904
2.47878e-05
-0.000117399
2.23548e-05
-0.00012724
1.91977e-05
-0.000135066
1.53386e-05
-0.000140541
1.08061e-05
-0.00014336
5.65704e-06
-0.000143282
6.80352e-09
-0.000140135
-6.00821e-06
-0.000133884
-1.21203e-05
-0.00012464
-1.80333e-05
-0.000112691
-2.3384e-05
-9.85176e-05
-2.77795e-05
-8.2787e-05
-3.08343e-05
-6.63246e-05
-3.2217e-05
-5.00634e-05
-3.17006e-05
-3.49674e-05
-2.9209e-05
-2.19365e-05
-2.48585e-05
-1.16965e-05
-1.89958e-05
-4.6848e-06
-1.2237e-05
-9.36734e-07
-5.52878e-06
-4.13399e-07
-2.75754e-06
4.63912e-06
-1.00978e-05
1.5598e-05
-2.12032e-05
2.56829e-05
-3.525e-05
3.38433e-05
-5.14117e-05
3.97802e-05
-6.88984e-05
4.35345e-05
-8.69852e-05
4.53078e-05
-0.000105022
4.53455e-05
-0.000122427
4.38666e-05
-0.000138673
4.10339e-05
-0.00015327
3.69519e-05
-0.000165754
3.16814e-05
-0.00017568
2.52649e-05
-0.000182632
1.77575e-05
-0.000186233
9.25833e-06
-0.000186183
-4.31737e-08
-0.000182274
-9.91691e-06
-0.000174455
-1.99396e-05
-0.000162852
-2.96359e-05
-0.00014781
-3.84261e-05
-0.000129907
-4.56824e-05
-0.000109953
-5.07884e-05
-8.89572e-05
-5.32132e-05
-6.8065e-05
-5.25927e-05
-4.84674e-05
-4.88066e-05
-3.12837e-05
-4.20423e-05
-1.74364e-05
-3.28431e-05
-7.53353e-06
-2.21398e-05
-1.78263e-06
-1.12797e-05
-2.19603e-06
-3.69088e-06
8.32999e-06
-1.31423e-05
2.50494e-05
-2.707e-05
3.96106e-05
-4.43495e-05
5.11228e-05
-6.39617e-05
5.93924e-05
-8.49873e-05
6.456e-05
-0.000106605
6.69259e-05
-0.000128087
6.68269e-05
-0.000148779
6.45584e-05
-0.000168086
6.03411e-05
-0.000185452
5.43181e-05
-0.000200346
4.65751e-05
-0.000212255
3.71741e-05
-0.000220693
2.61957e-05
-0.000225218
1.37829e-05
-0.000225452
1.91414e-07
-0.000221148
-1.42209e-05
-0.000212201
-2.88865e-05
-0.000198722
-4.31156e-05
-0.000181069
-5.60786e-05
-0.000159882
-6.68693e-05
-0.000136082
-7.45891e-05
-0.00011084
-7.84552e-05
-8.55108e-05
-7.79214e-05
-6.15242e-05
-7.27932e-05
-4.02462e-05
-6.33203e-05
-2.28351e-05
-5.02542e-05
-1.01132e-05
-3.48617e-05
-2.49146e-06
-1.89014e-05
-4.68749e-06
-4.49995e-06
1.28299e-05
-1.58623e-05
3.64117e-05
-3.23876e-05
5.6136e-05
-5.26569e-05
7.1392e-05
-7.54553e-05
8.21908e-05
-9.97363e-05
8.8841e-05
-0.000124595
9.17844e-05
-0.000149241
9.14736e-05
-0.000172976
8.82932e-05
-0.000195161
8.25256e-05
-0.000215194
7.43517e-05
-0.000232496
6.3877e-05
-0.000246497
5.11755e-05
-0.000256645
3.63434e-05
-0.000262419
1.95568e-05
-0.00026336
1.13219e-06
-0.000259128
-1.84531e-05
-0.000249537
-3.84774e-05
-0.000234631
-5.80215e-05
-0.000214738
-7.59711e-05
-0.000190517
-9.10903e-05
-0.000162975
-0.000102131
-0.000133445
-0.000107985
-0.000103515
-0.000107851
-7.4902e-05
-0.000101406
-4.92864e-05
-8.89359e-05
-2.81315e-05
-7.14091e-05
-1.25265e-05
-5.04667e-05
-3.09394e-06
-2.8334e-05
-7.78143e-06
-5.21386e-06
1.80438e-05
-1.83125e-05
4.95104e-05
-3.72366e-05
7.50601e-05
-6.02931e-05
9.44485e-05
-8.60783e-05
0.000107976
-0.000113424
0.000116187
-0.000141351
0.000119711
-0.000169025
0.000119148
-0.000195718
0.000114986
-0.00022077
0.000107577
-0.000243553
9.71351e-05
-0.000263454
8.37774e-05
-0.000279852
6.75744e-05
-0.000292127
4.86185e-05
-0.000299668
2.70968e-05
-0.000301902
3.36678e-06
-0.000298358
-2.19972e-05
-0.000288714
-4.81216e-05
-0.000272887
-7.38487e-05
-0.000251111
-9.77463e-05
-0.000224015
-0.000118187
-0.000192662
-0.000133485
-0.00015855
-0.000142097
-0.000123543
-0.000142859
-8.97238e-05
-0.000135225
-5.91885e-05
-0.000119471
-3.38093e-05
-9.67884e-05
-1.50182e-05
-6.92577e-05
-3.66943e-06
-3.96828e-05
-1.14509e-05
-5.86159e-06
2.39054e-05
-2.05625e-05
6.42113e-05
-4.17275e-05
9.62251e-05
-6.74139e-05
0.000120135
-9.60418e-05
0.000136604
-0.000126331
0.000146476
-0.000157239
0.00015062
-0.000187904
0.000149812
-0.000217586
0.000144668
-0.000245621
0.000135612
-0.000271378
0.000122892
-0.000294221
0.00010662
-0.000313488
8.68417e-05
-0.000328486
6.36162e-05
-0.000338495
3.71058e-05
-0.0003428
7.67175e-06
-0.000340746
-2.4051e-05
-0.000331809
-5.70584e-05
-0.000315701
-8.99564e-05
-0.000292484
-0.000120964
-0.00026268
-0.00014799
-0.000227364
-0.0001688
-0.000188195
-0.000181266
-0.000147357
-0.000183696
-0.000107401
-0.000175181
-7.09796e-05
-0.000155893
-4.05205e-05
-0.000127247
-1.7919e-05
-9.18592e-05
-4.31812e-06
-5.32837e-05
-1.5769e-05
-6.46627e-06
3.03717e-05
-2.26751e-05
8.04201e-05
-4.59664e-05
0.000119516
-7.41686e-05
0.000148337
-0.00010554
0.000167975
-0.0001387
0.000179636
-0.000172558
0.000184477
-0.000206238
0.000183492
-0.000239011
0.000177441
-0.000270231
0.000166832
-0.000299279
0.00015194
-0.000325517
0.000132858
-0.000348252
0.000109577
-0.000366718
8.20817e-05
-0.000380072
5.04598e-05
-0.00038742
1.50203e-05
-0.000387874
-2.35974e-05
-0.000380628
-6.43046e-05
-0.000365094
-0.00010549
-0.000341054
-0.000145004
-0.000308826
-0.000180219
-0.000269416
-0.00020821
-0.000224611
-0.000226071
-0.000176958
-0.00023135
-0.000129588
-0.000222551
-8.5888e-05
-0.000199593
-4.90519e-05
-0.000164084
-2.16233e-05
-0.000119288
-5.15363e-06
-6.97533e-05
-2.09226e-05
-7.0447e-06
3.74164e-05
-2.47004e-05
9.80758e-05
-5.00402e-05
0.000144856
-8.06788e-05
0.000178976
-0.000114725
0.000202021
-0.000150711
0.000215622
-0.000187511
0.000221278
-0.000224256
0.000220237
-0.000260248
0.000213433
-0.000294884
0.000201468
-0.000327582
0.000184639
-0.000357724
0.000163
-0.000384601
0.000136454
-0.000407382
0.000104862
-0.000425093
6.81712e-05
-0.000436635
2.6562e-05
-0.000440831
-1.94012e-05
-0.000436513
-6.86224e-05
-0.000422686
-0.000119318
-0.000398717
-0.000168972
-0.000364581
-0.000214355
-0.000321094
-0.000251698
-0.000270095
-0.00027707
-0.000214497
-0.000286948
-0.000158125
-0.000278923
-0.000105317
-0.0002524
-6.03138e-05
-0.000209087
-2.65868e-05
-0.000153015
-6.3041e-06
-9.0036e-05
-2.72267e-05
-7.60825e-06
4.50246e-05
-2.66744e-05
0.000117142
-5.40127e-05
0.000172194
-8.70308e-05
0.000211994
-0.000123696
0.000238686
-0.000162464
0.00025439
-0.000202191
0.000261005
-0.000242033
0.000260079
-0.000281347
0.000252748
-0.000319601
0.000239721
-0.000356279
0.000221317
-0.00039081
0.000197532
-0.000422498
0.000168142
-0.000450461
0.000132825
-0.000473602
9.13124e-05
-0.000490598
4.3558e-05
-0.000499948
-1.00509e-05
-0.00050004
-6.85307e-05
-0.000489358
-0.000129999
-0.00046671
-0.000191621
-0.000431547
-0.000249518
-0.000384314
-0.000298931
-0.000326759
-0.000334625
-0.000262102
-0.000351605
-0.000194942
-0.000346083
-0.000130802
-0.000316541
-7.53304e-05
-0.000264558
-3.33292e-05
-0.000195016
-7.91545e-06
-0.00011545
-3.51422e-05
-8.16447e-06
5.31891e-05
-2.86227e-05
0.0001376
-5.79277e-05
0.000201499
-9.32774e-05
0.000247344
-0.000132499
0.000277908
-0.000173981
0.000295872
-0.000216573
0.000303597
-0.000259477
0.000302983
-0.000302132
0.000295403
-0.000344102
0.000281691
-0.000384973
0.000262188
-0.000424256
0.000236815
-0.000461301
0.000205186
-0.00049521
0.000166735
-0.000524783
0.000120885
-0.000548481
6.7256e-05
-0.000564457
5.92509e-06
-0.000570607
-6.23808e-05
-0.000564795
-0.000135811
-0.000545114
-0.000211302
-0.00051029
-0.000284342
-0.000460157
-0.000349064
-0.000396135
-0.000398646
-0.00032159
-0.00042615
-0.000241878
-0.000425795
-0.000163923
-0.000394496
-9.52145e-05
-0.000333266
-4.24342e-05
-0.000247796
-1.01548e-05
-0.000147729
-4.52969e-05
-8.71926e-06
6.19084e-05
-3.05659e-05
0.000159447
-6.18172e-05
0.000232751
-9.94479e-05
0.000284974
-0.000141138
0.000319598
-0.00018521
0.000339944
-0.000230521
0.000348907
-0.000276334
0.000348797
-0.000322193
0.000341261
-0.000367789
0.000327287
-0.000412843
0.000307242
-0.00045699
0.000280962
-0.000499666
0.000247862
-0.000540005
0.000207074
-0.000576749
0.00015763
-0.000608186
9.86928e-05
-0.000632118
2.98568e-05
-0.00064598
-4.85185e-05
-0.000646934
-0.000134856
-0.000632241
-0.000225995
-0.000599695
-0.000316888
-0.000548234
-0.000400526
-0.00047861
-0.00046827
-0.000394011
-0.000510749
-0.000300383
-0.000519422
-0.000206155
-0.000488725
-0.000121115
-0.000418305
-5.45441e-05
-0.000314367
-1.32139e-05
-0.000189059
-5.85108e-05
-9.28001e-06
7.11884e-05
-3.25281e-05
0.000182695
-6.57164e-05
0.000265939
-0.000105567
0.000324825
-0.000149595
0.000363627
-0.000196053
0.000386401
-0.000243807
0.000396661
-0.000292201
0.00039719
-0.0003409
0.00038996
-0.000389749
0.000376136
-0.000438636
0.000356129
-0.000487357
0.000329683
-0.000535485
0.00029599
-0.000582245
0.000253833
-0.000626389
0.000201774
-0.000666102
0.000138405
-0.000698941
6.26967e-05
-0.000721889
-2.55711e-05
-0.000731455
-0.00012529
-0.00072401
-0.000233441
-0.000696257
-0.00034464
-0.000645937
-0.000450846
-0.000572698
-0.000541509
-0.000479045
-0.000604402
-0.000371081
-0.000627386
-0.000258617
-0.000601189
-0.000154121
-0.000522801
-7.0344e-05
-0.000398145
-1.73136e-05
-0.00024209
-7.58244e-05
-9.86e-06
8.10484e-05
-3.45504e-05
0.000207385
-6.96845e-05
0.000301073
-0.000111682
0.000366822
-0.000157861
0.000409807
-0.00020639
0.00043493
-0.000256148
0.00044642
-0.000306564
0.000447606
-0.000357442
0.000440838
-0.000408797
0.000427492
-0.000460707
0.00040804
-0.000513164
0.00038214
-0.000565927
0.000348753
-0.000618378
0.000306284
-0.000669372
0.000252767
-0.000717107
0.000186141
-0.000759033
0.000104622
-0.000791823
7.21887e-06
-0.000811465
-0.000105648
-0.000813502
-0.000231404
-0.000793489
-0.000364653
-0.000747723
-0.000496613
-0.000674269
-0.000614963
-0.000574251
-0.00070442
-0.000453169
-0.000748468
-0.000321698
-0.00073266
-0.000195098
-0.000649401
-9.05257e-05
-0.000502717
-2.27073e-05
-0.000309908
-9.85316e-05
-1.04846e-05
9.1533e-05
-3.67081e-05
0.000233609
-7.38332e-05
0.000338198
-0.000117898
0.000410887
-0.000165978
0.000457886
-0.000216134
0.000485086
-0.000267255
0.000497541
-0.00031886
0.00049921
-0.000370895
0.000492873
-0.000423556
0.000480153
-0.000477124
0.000461608
-0.000531809
0.000436824
-0.000587597
0.000404542
-0.000644096
0.000362783
-0.00070037
0.000309041
-0.000754785
0.000240556
-0.000804873
0.000154711
-0.000847249
4.95946e-05
-0.000877622
-7.5275e-05
-0.000890934
-0.000218092
-0.000881701
-0.000373886
-0.00084467
-0.000533644
-0.000775895
-0.000683739
-0.000674308
-0.000806007
-0.000543696
-0.00087908
-0.000394525
-0.000881831
-0.00024442
-0.000799506
-0.000115716
-0.000631421
-2.96809e-05
-0.000395944
-0.000128212
-1.12003e-05
0.000102733
-3.91353e-05
0.000261544
-7.8365e-05
0.000377428
-0.000124427
0.000456949
-0.000174089
0.000507548
-0.00022528
0.000536278
-0.000276895
0.000549156
-0.000328542
0.000550858
-0.000380316
0.000544646
-0.000432589
0.000532426
-0.000485844
0.000514863
-0.000540517
0.000491498
-0.000596853
0.000460877
-0.000654745
0.000420675
-0.000713576
0.000367872
-0.000772048
0.000299028
-0.000828023
0.000210686
-0.000878375
9.99465e-05
-0.000918883
-3.47675e-05
-0.00094431
-0.000192665
-0.00094844
-0.000369756
-0.000924605
-0.000557479
-0.000866615
-0.000741729
-0.000770451
-0.000902171
-0.000636826
-0.0010127
-0.000474298
-0.00104436
-0.000301567
-0.000972237
-0.000146345
-0.000786643
-3.85441e-05
-0.000503744
-0.000166757
-1.20883e-05
0.000114822
-4.20595e-05
0.000291515
-8.36223e-05
0.000418991
-0.000131642
0.000504969
-0.000182495
0.000558401
-0.000233961
0.000587744
-0.000284946
0.00060014
-0.000335159
0.000601071
-0.000384842
0.000594329
-0.000434539
0.000582123
-0.000484923
0.000565247
-0.000536653
0.000543228
-0.000590239
0.000514464
-0.00064591
0.000476346
-0.000703464
0.000425425
-0.000762105
0.00035767
-0.000820274
0.000268855
-0.000875465
0.000155138
-0.000923949
1.37158e-05
-0.000960868
-0.000155746
-0.000979799
-0.000350825
-0.0009731
-0.000564179
-0.000932466
-0.000782362
-0.000850454
-0.000984183
-0.00072336
-0.0011398
-0.000555617
-0.0012121
-0.000364603
-0.00116325
-0.000182436
-0.00096881
-4.96101e-05
-0.00063657
-0.000216367
-1.32856e-05
0.000128107
-4.58516e-05
0.000324081
-9.01518e-05
0.000463291
-0.000140136
0.000554953
-0.000191703
0.000609968
-0.000242487
0.000638528
-0.000291435
0.000649088
-0.000338393
0.000648029
-0.000383761
0.000639697
-0.000428252
0.000626614
-0.000472716
0.000609711
-0.000518019
0.000588531
-0.000564937
0.000561382
-0.000614054
0.000525463
-0.000665652
0.000477023
-0.00071957
0.000411588
-0.000775041
0.000324326
-0.000830473
0.00021057
-0.000883249
6.64917e-05
-0.000929187
-0.000109807
-0.00096255
-0.000317462
-0.000975439
-0.00055129
-0.000958024
-0.000799776
-0.000899518
-0.00104269
-0.000790873
-0.00124844
-0.000630047
-0.00137293
-0.000429617
-0.00136368
-0.000223331
-0.0011751
-6.31688e-05
-0.000796732
-0.000279535
-1.50228e-05
0.00014313
-5.11014e-05
0.000360159
-9.87878e-05
0.000510977
-0.000150788
0.000606953
-0.000202455
0.000661636
-0.000251333
0.000687406
-0.000296503
0.000694258
-0.000338016
0.000689542
-0.000376477
0.000678158
-0.000412778
0.000662916
-0.000447942
0.000644874
-0.000483023
0.000623613
-0.00051905
0.000597409
-0.000556967
0.000563379
-0.000597564
0.00051762
-0.000641389
0.000455412
-0.000688604
0.000371541
-0.000738784
0.00026075
-0.000790636
0.000118344
-0.0008414
-5.90431e-05
-0.000886662
-0.0002722
-0.000919237
-0.000518716
-0.000928842
-0.000790171
-0.000902176
-0.00106936
-0.000824775
-0.00132584
-0.000686267
-0.00151144
-0.000490328
-0.00155962
-0.000267377
-0.00139805
-7.94671e-05
-0.000984642
-0.000359002
-1.76902e-05
0.00016082
-5.87352e-05
0.000401204
-0.000110755
0.000562998
-0.000164801
0.000660999
-0.000215686
0.00071252
-0.000261028
0.000732748
-0.000300225
0.000733455
-0.000333673
0.00072299
-0.000362267
0.000706753
-0.000387125
0.000687774
-0.00040945
0.000667199
-0.00043048
0.000644642
-0.000451475
0.000618404
-0.000473714
0.000585619
-0.000498483
0.000542389
-0.000527032
0.000483961
-0.000560478
0.000404987
-0.000599637
0.000299909
-0.000644756
0.000163463
-0.00069478
-9.01894e-06
-0.000747348
-0.000219632
-0.000796908
-0.000469156
-0.000834156
-0.000752923
-0.000844864
-0.00105865
-0.000810256
-0.00136045
-0.000710996
-0.0016107
-0.000538056
-0.00173256
-0.000311635
-0.00162447
-9.87123e-05
-0.00119756
-0.000457715
-2.19635e-05
0.000182784
-7.0199e-05
0.00044944
-0.000127783
0.000620582
-0.000183673
0.000716889
-0.000232329
0.000761176
-0.000271806
0.000772225
-0.000302142
0.000763791
-0.000324311
0.000745159
-0.000339645
0.000722086
-0.000349562
0.000697691
-0.000355483
0.00067312
-0.000358828
0.000647988
-0.000361069
0.000620645
-0.000363774
0.000588324
-0.000368657
0.000547272
-0.000377588
0.000492893
-0.000392553
0.000419952
-0.000415521
0.000322876
-0.000448178
0.00019612
-0.000491726
3.45297e-05
-0.000545486
-0.000165872
-0.000606805
-0.000407837
-0.000668722
-0.000691005
-0.000718203
-0.00100917
-0.0007345
-0.00134416
-0.000690501
-0.00165469
-0.000562136
-0.00186093
-0.000351631
-0.00183497
-0.000121078
-0.00142812
-0.000578793
-2.90411e-05
0.000211825
-8.77264e-05
0.000508125
-0.000152156
0.000685012
-0.000208926
0.000773658
-0.000252735
0.000804985
-0.000282758
0.000802248
-0.000300197
0.00078123
-0.000306946
0.000751908
-0.000304976
0.000720116
-0.00029612
0.000688835
-0.000282062
0.000659062
-0.000264411
0.000630337
-0.000244809
0.000601043
-0.000225045
0.000568559
-0.000207148
0.000529374
-0.000193465
0.00047921
-0.000186667
0.000413154
-0.000189662
0.000325872
-0.000205454
0.000211912
-0.000236846
6.59211e-05
-0.000285645
-0.000117073
-0.00035206
-0.000341422
-0.000432651
-0.000610415
-0.000517812
-0.000924006
-0.000588134
-0.00127383
-0.000611976
-0.00163085
-0.000550485
-0.00192242
-0.000381055
-0.0020044
-0.000146595
-0.00166258
-0.000725389
-4.10801e-05
0.000252905
-0.000114651
0.000581696
-0.000186447
0.000756808
-0.000241163
0.000828375
-0.000275136
0.000838957
-0.000289836
0.000816949
-0.000288399
0.000779793
-0.000274086
0.000737595
-0.000249746
0.000695775
-0.000217734
0.000656824
-0.000180029
0.000621357
-0.0001384
0.000588708
-9.45908e-05
0.000557233
-5.04977e-05
0.000524466
-8.32268e-06
0.000487199
2.93397e-05
0.000441548
5.94116e-05
0.000383082
7.82985e-05
0.000306985
8.20414e-05
0.000208169
6.64913e-05
8.14713e-05
2.7736e-05
-7.83177e-05
-3.7061e-05
-0.000276625
-0.000128724
-0.000518752
-0.000242834
-0.000809896
-0.000364902
-0.00115176
-0.000463808
-0.00153195
-0.000489652
-0.00189657
-0.000391031
-0.00210302
-0.000174571
-0.00187904
-0.00089996
-6.1942e-05
0.000314847
-0.000155445
0.000675199
-0.000232067
0.000833431
-0.000277214
0.000873521
-0.000291742
0.000853486
-0.000281269
0.000806476
-0.000251858
0.000750382
-0.000208607
0.000694344
-0.000155412
0.00064258
-9.51661e-05
0.000596579
-3.00689e-05
0.00055626
3.80696e-05
0.000520569
0.000107556
0.000487747
0.000176577
0.000455445
0.000243
0.000420776
0.000304197
0.000380351
0.000356936
0.000330343
0.000397343
0.000266577
0.000420888
0.000184624
0.000422482
7.98774e-05
0.000396691
-5.25265e-05
0.000338111
-0.000218045
0.000242256
-0.000422896
0.000107661
-0.000675302
-5.90461e-05
-0.000985057
-0.000233903
-0.00135709
-0.000363325
-0.00176715
-0.000368124
-0.00209823
-0.000201852
-0.00204531
-0.00110181
-9.80939e-05
0.000412941
-0.000213978
0.000791082
-0.000283806
0.000903259
-0.000301946
0.000891661
-0.000279045
0.000830584
-0.000227317
0.000754747
-0.000156664
0.000679729
-7.41602e-05
0.00061184
1.54456e-05
0.000552975
0.00010904
0.000502984
0.000204541
0.000460759
0.00030042
0.00042469
0.000395339
0.000392829
0.000487848
0.000362935
0.000576151
0.000332474
0.000657897
0.000298605
0.000730039
0.000258201
0.000788723
0.000207893
0.000829234
0.000144113
0.000845962
6.31493e-05
0.000832477
-3.90418e-05
0.000781782
-0.000167349
0.000686268
-0.000327383
0.000539043
-0.000528076
0.000337484
-0.000783498
9.35124e-05
-0.00111312
-0.000147708
-0.00152593
-0.000289916
-0.00195602
-0.000219625
-0.0021156
-0.00132144
-0.000157979
0.00057092
-0.000283076
0.000916179
-0.0003113
0.000931484
-0.000265985
0.000846346
-0.000175214
0.000739814
-5.93961e-05
0.000638929
6.8331e-05
0.000552002
0.000200131
0.00048004
0.000331632
0.000421474
0.000460549
0.000374067
0.000585746
0.000335562
0.000706619
0.000303817
0.000822672
0.000276776
0.000933207
0.0002524
0.00103708
0.000228596
0.00113252
0.000203167
0.00121694
0.000173787
0.00128682
0.000138009
0.00133764
9.32944e-05
0.00136368
3.71082e-05
0.00135819
-3.3546e-05
0.0013132
-0.000122364
0.00121924
-0.00023342
0.00106549
-0.000374333
0.000840983
-0.000558987
0.000541293
-0.000813428
0.000191132
-0.00117577
-0.0001159
-0.00164899
-0.000208443
-0.00202306
-0.00152988
-0.000239845
0.000810765
-0.000297216
0.00097355
-0.000201242
0.00083551
-3.1171e-05
0.000676275
0.000165002
0.000543641
0.000364318
0.000439613
0.000556176
0.000360144
0.000736264
0.000299952
0.000903538
0.0002542
0.00105849
0.00021911
0.00120221
0.000191849
0.0013358
0.000170224
0.00146014
0.000152441
0.0015756
0.000136935
0.00168194
0.000122254
0.00177813
0.000106981
0.00186222
8.9691e-05
0.0019313
6.89343e-05
0.00198133
4.32597e-05
0.00200706
1.13869e-05
0.00200217
-2.86616e-05
0.00195839
-7.8585e-05
0.00186589
-0.000140919
0.00171203
-0.000220474
0.00148027
-0.000327223
0.00115072
-0.000483876
0.000714414
-0.000739466
0.000231467
-0.00116604
-9.16353e-05
-0.00169995
-0.00162152
-0.000188713
0.000999477
3.11774e-05
0.000753659
0.000389152
0.000477536
0.000729106
0.000336321
0.00102869
0.00024406
0.00128792
0.000180383
0.00151104
0.000137022
0.00170357
0.000107419
0.001871
8.67764e-05
0.00201808
7.20255e-05
0.0021487
6.12266e-05
0.00226585
5.30757e-05
0.00237166
4.66299e-05
0.00246744
4.11551e-05
0.00255366
3.60325e-05
0.00262994
3.07034e-05
0.00269499
2.46413e-05
0.00274657
1.7353e-05
0.00278141
8.42398e-06
0.00279557
-2.77959e-06
0.00278387
-1.69566e-05
0.00273917
-3.38845e-05
0.00265329
-5.50416e-05
0.0025147
-8.18879e-05
0.00230587
-0.000118393
0.00199755
-0.000175552
0.00154406
-0.000285972
0.000921096
-0.000543078
0.000260946
-0.0010398
-0.00136057
0.000999477
0.00175314
0.00223067
0.00256699
0.00281105
0.00299144
0.00312846
0.00323588
0.00332265
0.00339468
0.00345591
0.00350898
0.00355561
0.00359677
0.0036328
0.0036635
0.00368814
0.0037055
0.00371392
0.00371114
0.00369418
0.0036603
0.00360526
0.00352337
0.00340498
0.00322943
0.00294345
0.00240037
0.00136057
)
;

boundaryField
{
    movingWall
    {
        type            calculated;
        value           uniform 0;
    }
    fixedWalls
    {
        type            calculated;
        value           uniform 0;
    }
    frontAndBack
    {
        type            empty;
        value           nonuniform 0();
    }
}


// ************************************************************************* //
