/*--------------------------------*- C++ -*----------------------------------*\
  =========                 |
  \\      /  F ield         | OpenFOAM: The Open Source CFD Toolbox
   \\    /   O peration     | Website:  https://openfoam.org
    \\  /    A nd           | Version:  7
     \\/     M anipulation  |
\*---------------------------------------------------------------------------*/
FoamFile
{
    version     2.0;
    format      ascii;
    class       surfaceScalarField;
    location    "1.7";
    object      phi;
}
// * * * * * * * * * * * * * * * * * * * * * * * * * * * * * * * * * * * * * //

dimensions      [0 3 -1 0 0 0 0];

internalField   nonuniform List<scalar> 
1740
(
3.05545e-07
-3.05553e-07
-2.94533e-07
6.00078e-07
-1.90358e-06
1.60905e-06
-4.31824e-06
2.41466e-06
-7.27711e-06
2.95887e-06
-1.05448e-05
3.2677e-06
-1.39327e-05
3.38789e-06
-1.72965e-05
3.36379e-06
-2.05256e-05
3.22907e-06
-2.35313e-05
3.00575e-06
-2.62374e-05
2.70608e-06
-2.85727e-05
2.33528e-06
-3.04672e-05
1.89453e-06
-3.18512e-05
1.38396e-06
-3.26565e-05
8.05323e-07
-3.2821e-05
1.64544e-07
-3.22947e-05
-5.26351e-07
-3.10474e-05
-1.24727e-06
-2.90781e-05
-1.96933e-06
-2.64233e-05
-2.65483e-06
-2.31648e-05
-3.2585e-06
-1.94346e-05
-3.73018e-06
-1.54159e-05
-4.01871e-06
-1.13391e-05
-4.07682e-06
-7.47277e-06
-3.8663e-06
-4.10894e-06
-3.36382e-06
-1.53924e-06
-2.56971e-06
-7.26067e-09
-1.53198e-06
4.2463e-07
-4.31889e-07
4.24633e-07
-5.91725e-07
2.86173e-07
-3.19309e-06
3.20145e-06
-7.85765e-06
6.27361e-06
-1.41994e-05
8.75641e-06
-2.17351e-05
1.04945e-05
-2.99865e-05
1.15191e-05
-3.85321e-05
1.19335e-05
-4.70215e-05
1.18532e-05
-5.51679e-05
1.13755e-05
-6.27328e-05
1.05707e-05
-6.95097e-05
9.48293e-06
-7.53107e-05
8.13632e-06
-7.9959e-05
6.54286e-06
-8.32864e-05
4.71129e-06
-8.51365e-05
2.6555e-06
-8.53744e-05
4.02407e-07
-8.3899e-05
-2.00173e-06
-8.06603e-05
-4.48597e-06
-7.56781e-05
-6.95156e-06
-6.90597e-05
-9.27326e-06
-6.10149e-05
-1.13033e-05
-5.18646e-05
-1.28805e-05
-4.20399e-05
-1.38433e-05
-3.20697e-05
-1.4047e-05
-2.25532e-05
-1.33828e-05
-1.41161e-05
-1.18009e-05
-7.34381e-06
-9.34199e-06
-2.68792e-06
-6.18786e-06
-3.79577e-07
-2.74023e-06
4.50553e-08
-1.65174e-06
1.93792e-06
-6.45427e-06
8.00398e-06
-1.40272e-05
1.38465e-05
-2.38096e-05
1.85389e-05
-3.51591e-05
2.1844e-05
-4.74445e-05
2.38045e-05
-6.00967e-05
2.45857e-05
-7.26267e-05
2.43832e-05
-8.46223e-05
2.3371e-05
-9.5733e-05
2.16815e-05
-0.000105653
1.9403e-05
-0.000114106
1.65891e-05
-0.000120835
1.32716e-05
-0.0001256
9.47679e-06
-0.000128185
5.24064e-06
-0.000128408
6.24673e-07
-0.000126134
-4.27486e-06
-0.000121309
-9.31138e-06
-0.000113972
-1.42884e-05
-0.000104287
-1.89585e-05
-9.25574e-05
-2.30328e-05
-7.92393e-05
-2.61987e-05
-6.4936e-05
-2.81465e-05
-5.03789e-05
-2.86041e-05
-3.63859e-05
-2.73759e-05
-2.3799e-05
-2.43879e-05
-1.33991e-05
-1.97419e-05
-5.80429e-06
-1.37826e-05
-1.34885e-06
-7.19567e-06
-1.3038e-06
-2.60747e-06
4.54539e-06
-9.4523e-06
1.48488e-05
-1.97095e-05
2.41037e-05
-3.25642e-05
3.13936e-05
-4.72114e-05
3.64911e-05
-6.28964e-05
3.94895e-05
-7.89454e-05
4.06347e-05
-9.47754e-05
4.02132e-05
-0.000109889
3.84843e-05
-0.000123857
3.56497e-05
-0.000136303
3.18494e-05
-0.000146886
2.71723e-05
-0.00015529
2.16757e-05
-0.000161222
1.54087e-05
-0.000164418
8.43605e-06
-0.000164655
8.61758e-07
-0.000161774
-7.15549e-06
-0.000155707
-1.53784e-05
-0.000146504
-2.34915e-05
-0.000134363
-3.10996e-05
-0.000119653
-3.77423e-05
-0.000102929
-4.29234e-05
-8.49213e-05
-4.6154e-05
-6.65174e-05
-4.70081e-05
-4.87062e-05
-4.5187e-05
-3.25059e-05
-4.05881e-05
-1.88704e-05
-3.33774e-05
-8.58917e-06
-2.40639e-05
-2.20298e-06
-1.35819e-05
-3.50679e-06
-3.40968e-06
7.95507e-06
-1.20695e-05
2.35086e-05
-2.47428e-05
3.6777e-05
-4.03468e-05
4.69976e-05
-5.79039e-05
5.40482e-05
-7.65435e-05
5.81291e-05
-9.55067e-05
5.9598e-05
-0.000114143
5.88494e-05
-0.000131896
5.62375e-05
-0.000148286
5.20398e-05
-0.000162888
4.64513e-05
-0.000175314
3.95983e-05
-0.000185203
3.15647e-05
-0.000192218
2.24232e-05
-0.00019605
1.22681e-05
-0.000196436
1.24832e-06
-0.000193183
-1.04092e-05
-0.000186193
-2.23675e-05
-0.000175508
-3.41767e-05
-0.000161336
-4.52715e-05
-0.000144087
-5.4992e-05
-0.000124386
-6.26244e-05
-0.000103075
-6.74652e-05
-8.11806e-05
-6.8902e-05
-5.986e-05
-6.65077e-05
-4.03126e-05
-6.01355e-05
-2.36808e-05
-5.00092e-05
-1.09488e-05
-3.67959e-05
-2.87272e-06
-2.16579e-05
-6.37951e-06
-4.07954e-06
1.20346e-05
-1.43334e-05
3.37625e-05
-2.91723e-05
5.16159e-05
-4.72563e-05
6.50817e-05
-6.74349e-05
7.42268e-05
-8.87236e-05
7.94178e-05
-0.000110288
8.11625e-05
-0.000131426
7.99868e-05
-0.000151541
7.63526e-05
-0.00017012
7.06191e-05
-0.000186707
6.30381e-05
-0.000200881
5.37724e-05
-0.000212245
4.29287e-05
-0.00022042
3.05981e-05
-0.000225051
1.68992e-05
-0.000225824
2.02141e-06
-0.000222491
-1.3742e-05
-0.000214908
-2.99508e-05
-0.000203075
-4.601e-05
-0.000187183
-6.11636e-05
-0.000167654
-7.45204e-05
-0.00014517
-8.51082e-05
-0.000120675
-9.19607e-05
-9.5346e-05
-9.4231e-05
-7.05312e-05
-9.13225e-05
-4.7649e-05
-8.30177e-05
-2.80696e-05
-6.95887e-05
-1.29995e-05
-5.18661e-05
-3.40225e-06
-3.12552e-05
-9.78176e-06
-4.65498e-06
1.66896e-05
-1.63292e-05
4.54367e-05
-3.31354e-05
6.84221e-05
-5.34981e-05
8.54443e-05
-7.6099e-05
9.68277e-05
-9.98435e-05
0.000103162
-0.000123828
0.000105147
-0.000147308
0.000103467
-0.000169662
9.87064e-05
-0.000190357
9.13144e-05
-0.000208919
8.16001e-05
-0.000224904
6.97581e-05
-0.000237886
5.59099e-05
-0.000247442
4.01541e-05
-0.000253163
2.26207e-05
-0.000254669
3.52693e-06
-0.000251633
-1.67772e-05
-0.000243831
-3.7753e-05
-0.000231187
-5.86537e-05
-0.000213838
-7.8513e-05
-0.000192187
-9.61719e-05
-0.000166949
-0.000110346
-0.000139171
-0.000119739
-0.000110204
-0.000123198
-8.16348e-05
-0.000119892
-5.51611e-05
-0.000109491
-3.24442e-05
-9.23056e-05
-1.49559e-05
-6.93544e-05
-3.8663e-06
-4.23447e-05
-1.36481e-05
-5.17374e-06
2.18633e-05
-1.81557e-05
5.84187e-05
-3.68001e-05
8.70665e-05
-5.93145e-05
0.000107959
-8.42219e-05
0.000121735
-0.000110322
0.000129262
-0.000136648
0.000131473
-0.000162423
0.000129241
-0.00018701
0.000123294
-0.000209871
0.000114175
-0.000230524
0.000102253
-0.000248513
8.77467e-05
-0.000263383
7.07798e-05
-0.00027467
5.14411e-05
-0.0002819
2.98514e-05
-0.000284607
6.23329e-06
-0.000282357
-1.90266e-05
-0.000274805
-4.53055e-05
-0.000261752
-7.17063e-05
-0.00024323
-9.70355e-05
-0.000219577
-0.000119824
-0.000191515
-0.000138408
-0.000160186
-0.000151067
-0.000127146
-0.000156238
-9.42793e-05
-0.000152758
-6.36552e-05
-0.000140115
-3.73194e-05
-0.000118641
-1.70821e-05
-8.95917e-05
-4.34623e-06
-5.50806e-05
-1.79943e-05
-5.6678e-06
2.75311e-05
-1.99059e-05
7.26568e-05
-4.03296e-05
0.00010749
-6.49422e-05
0.000132571
-9.21146e-05
0.000148907
-0.000120546
0.000157694
-0.000149215
0.000160142
-0.00017732
0.000157346
-0.000204221
0.000150195
-0.000229386
0.000139341
-0.00025234
0.000125207
-0.000272623
0.00010803
-0.000289762
8.79183e-05
-0.000303248
6.49276e-05
-0.000312537
3.91396e-05
-0.000317052
1.07489e-05
-0.000316224
-1.98548e-05
-0.000309536
-5.19939e-05
-0.000296607
-8.46348e-05
-0.000277295
-0.000116347
-0.000251809
-0.000145311
-0.000220821
-0.000169395
-0.000185553
-0.000186336
-0.000147785
-0.000194006
-0.000109782
-0.000190762
-7.41008e-05
-0.000175797
-4.33114e-05
-0.000149431
-1.96847e-05
-0.000113218
-4.92889e-06
-6.98365e-05
-2.29232e-05
-6.16279e-06
3.36939e-05
-2.16588e-05
8.81528e-05
-4.38674e-05
0.000129699
-7.05902e-05
0.000159294
-0.000100049
0.000178366
-0.000130847
0.000188492
-0.000161914
0.00019121
-0.000192437
0.000187868
-0.000221786
0.000179544
-0.00024945
0.000167005
-0.000274977
0.000150733
-0.000297917
0.00013097
-0.000317789
0.00010779
-0.000334048
8.11864e-05
-0.00034607
5.1162e-05
-0.000353159
1.78373e-05
-0.000354568
-1.84454e-05
-0.000349559
-5.70033e-05
-0.000337493
-9.67002e-05
-0.000317964
-0.000135877
-0.000290951
-0.000172324
-0.000256996
-0.00020335
-0.000217342
-0.000225989
-0.000174008
-0.000237341
-0.000129717
-0.000235052
-8.76728e-05
-0.000217841
-5.11684e-05
-0.000185935
-2.31307e-05
-0.000141256
-5.71421e-06
-8.7253e-05
-2.86374e-05
-6.67891e-06
4.03728e-05
-2.34797e-05
0.000104954
-4.75335e-05
0.000153752
-7.64321e-05
0.000188193
-0.000108245
0.000210179
-0.000141483
0.00022173
-0.000175036
0.000224762
-0.000208088
0.000220921
-0.000240038
0.000211494
-0.000270417
0.000197383
-0.000298811
0.000179128
-0.000324805
0.000156965
-0.000347928
0.000130913
-0.00036761
0.000100869
-0.000383157
6.67088e-05
-0.000393737
2.84177e-05
-0.000398404
-1.37785e-05
-0.000396135
-5.92727e-05
-0.000385949
-0.000106886
-0.000367059
-0.000154768
-0.00033908
-0.000200302
-0.000302287
-0.000240143
-0.000257848
-0.000270428
-0.000207984
-0.000287205
-0.000155956
-0.00028708
-0.000105801
-0.000267996
-6.18143e-05
-0.000229922
-2.78758e-05
-0.000175195
-6.8256e-06
-0.000108303
-3.5463e-05
-7.23244e-06
4.76053e-05
-2.54225e-05
0.000123144
-5.14265e-05
0.000179757
-8.26075e-05
0.000219374
-0.000116873
0.000244444
-0.000152641
0.000257498
-0.000188768
0.000260889
-0.000224453
0.000256606
-0.000259141
0.000246182
-0.000292424
0.000230667
-0.000323959
0.000210662
-0.000353389
0.000186395
-0.000380282
0.000157806
-0.00040407
0.000124656
-0.000424003
8.66421e-05
-0.000439121
4.35353e-05
-0.000448257
-4.64228e-06
-0.00045005
-5.74795e-05
-0.000443088
-0.000113848
-0.000426064
-0.000171792
-0.000398058
-0.000228309
-0.00035888
-0.000279321
-0.00030945
-0.000319858
-0.000252096
-0.000344559
-0.00019065
-0.000348527
-0.000130193
-0.000328454
-7.63842e-05
-0.00028373
-3.44908e-05
-0.000217088
-8.42011e-06
-0.000134374
-4.38831e-05
-7.8378e-06
5.54431e-05
-2.75349e-05
0.000142841
-5.56316e-05
0.000207853
-8.92304e-05
0.000252973
-0.000126059
0.000281273
-0.00016444
0.000295879
-0.000203203
0.000299652
-0.000241579
0.000294982
-0.000279078
0.000283681
-0.000315383
0.000266971
-0.000350248
0.000245527
-0.000383413
0.00021956
-0.00041452
0.000188914
-0.000443042
0.000153178
-0.000468211
0.00011181
-0.000488958
6.42828e-05
-0.000503886
1.02855e-05
-0.000511285
-5.00806e-05
-0.000509212
-0.000115921
-0.000495703
-0.000185301
-0.000469093
-0.000254919
-0.00042848
-0.000319934
-0.00037427
-0.000374068
-0.000308692
-0.000410137
-0.000236095
-0.000421124
-0.000162785
-0.000401763
-9.62274e-05
-0.000350288
-4.36777e-05
-0.000269638
-1.06964e-05
-0.000167355
-5.45795e-05
-8.51022e-06
6.39533e-05
-2.98659e-05
0.000164196
-6.02319e-05
0.000238219
-9.64033e-05
0.000289144
-0.000135902
0.000320772
-0.000176947
0.000336923
-0.000218349
0.000341054
-0.000259384
0.000336017
-0.000299654
0.000323951
-0.000338958
0.000306275
-0.000377183
0.000283753
-0.000414203
0.00025658
-0.000449783
0.000224494
-0.000483486
0.000186881
-0.000514575
0.000142899
-0.000541925
9.16328e-05
-0.00056394
3.23006e-05
-0.000578556
-3.5465e-05
-0.000583253
-0.000111223
-0.000575289
-0.000193264
-0.000552051
-0.000278157
-0.000511625
-0.00036036
-0.000453543
-0.000432149
-0.000379585
-0.000484095
-0.000294397
-0.000506312
-0.000205577
-0.000490583
-0.000122854
-0.000433011
-5.62676e-05
-0.000336224
-1.38995e-05
-0.000209723
-6.84789e-05
-9.26933e-06
7.32226e-05
-3.24757e-05
0.000187403
-6.53241e-05
0.000271068
-0.000104236
0.000328056
-0.000146491
0.000363027
-0.000190192
0.000380624
-0.000234137
0.000385
-0.000277665
0.000379545
-0.00032049
0.000366775
-0.000362556
0.000348342
-0.000403916
0.000325112
-0.000444616
0.00029728
-0.000484592
0.00026447
-0.000523557
0.000225846
-0.000560876
0.000180218
-0.000595437
0.000126194
-0.000625529
6.23925e-05
-0.000648771
-1.22228e-05
-0.000662093
-9.79019e-05
-0.00066192
-0.000193437
-0.000644531
-0.000295546
-0.00060671
-0.00039818
-0.000546684
-0.000492175
-0.000465255
-0.000565525
-0.000366888
-0.000604679
-0.000260289
-0.000597182
-0.000157799
-0.000535501
-7.31946e-05
-0.000420828
-1.8324e-05
-0.000264594
-8.68029e-05
-1.01441e-05
8.33667e-05
-3.54498e-05
0.000212708
-7.10396e-05
0.000306657
-0.00011287
0.000369887
-0.00015793
0.000408087
-0.000204189
0.000426883
-0.000250442
0.000431253
-0.000296105
0.000425208
-0.000341026
0.000411696
-0.000385317
0.000392633
-0.000429221
0.000369016
-0.000472992
0.00034105
-0.000516779
0.000308257
-0.000560505
0.000269571
-0.000603714
0.000223428
-0.00064541
0.000167891
-0.000683883
0.000100865
-0.000716555
2.04491e-05
-0.000739932
-7.45246e-05
-0.000749668
-0.000183702
-0.000740898
-0.000304317
-0.000708895
-0.000430182
-0.00065014
-0.000550931
-0.000563773
-0.000651892
-0.000453274
-0.000715178
-0.000327821
-0.000722635
-0.000202381
-0.000660941
-9.54406e-05
-0.000527768
-2.43176e-05
-0.000335717
-0.000111121
-1.11802e-05
9.4547e-05
-3.89171e-05
0.000240445
-7.75716e-05
0.000345312
-0.000122508
0.000414824
-0.000170362
0.00045594
-0.000218957
0.000475478
-0.000267091
0.000479387
-0.000314279
0.000472397
-0.00036052
0.000457937
-0.000406109
0.000438222
-0.000451494
0.000414401
-0.000497152
0.000386709
-0.00054348
0.000354585
-0.000590656
0.000316747
-0.000638483
0.000271255
-0.000686196
0.000215604
-0.000732245
0.000146913
-0.000774076
6.22806e-05
-0.000807975
-4.06257e-05
-0.000829098
-0.000162579
-0.000831584
-0.000301831
-0.000809175
-0.00045259
-0.000756275
-0.000603832
-0.000669617
-0.000738549
-0.000550547
-0.000834248
-0.000407472
-0.000865711
-0.000257307
-0.000811107
-0.000123934
-0.00066114
-3.22863e-05
-0.000427365
-0.000143407
-1.24513e-05
0.000106998
-4.30784e-05
0.000271072
-8.52112e-05
0.000387445
-0.000133448
0.000463061
-0.000183996
0.000506488
-0.000234527
0.000526009
-0.000283864
0.000528724
-0.000331644
0.000520177
-0.000378035
0.000504328
-0.000423522
0.000483708
-0.000468755
0.000459635
-0.000514439
0.000432393
-0.000561218
0.000401364
-0.000609555
0.000365085
-0.000659576
0.000321275
-0.000710861
0.000266889
-0.00076221
0.000198262
-0.000811389
0.000111459
-0.000854763
2.74839e-06
-0.000887506
-0.000129836
-0.000903116
-0.00028622
-0.0008941
-0.000461606
-0.000852724
-0.000645208
-0.000772689
-0.000818584
-0.000651858
-0.000955079
-0.000495946
-0.00102162
-0.000322081
-0.000984972
-0.000159371
-0.000823851
-4.26962e-05
-0.00054404
-0.000186103
-1.40779e-05
0.000121076
-4.82478e-05
0.000305242
-9.4397e-05
0.000433594
-0.000146121
0.000514784
-0.000199124
0.000559491
-0.000250941
0.000577826
-0.000300466
0.000578249
-0.000347499
0.00056721
-0.000392399
0.000549228
-0.000435842
0.000527152
-0.00047867
0.000502463
-0.000521787
0.00047551
-0.000566068
0.000445645
-0.000612261
0.000411277
-0.000660842
0.000369857
-0.000711838
0.000317885
-0.000764583
0.000251007
-0.000817422
0.000164299
-0.00086751
5.28357e-05
-0.000910189
-8.71566e-05
-0.000939277
-0.000257132
-0.000946624
-0.000454259
-0.00092273
-0.000669103
-0.000858032
-0.000883282
-0.000745683
-0.00106743
-0.000586298
-0.00118101
-0.000394191
-0.00117708
-0.000201897
-0.00101615
-5.60621e-05
-0.000689874
-0.000242165
-1.6261e-05
0.000137337
-5.49191e-05
0.0003439
-0.000105782
0.000484457
-0.00016113
0.000570133
-0.000216113
0.000614474
-0.000268195
0.000629908
-0.000316433
0.000626486
-0.000360864
0.000611642
-0.000402078
0.000590442
-0.000440949
0.000566023
-0.00047849
0.000540003
-0.000515768
0.000512788
-0.000553848
0.000483726
-0.000593727
0.000451156
-0.000636234
0.000412364
-0.000681894
0.000363544
-0.000730723
0.000299836
-0.000781972
0.000215548
-0.000833803
0.000104667
-0.00088271
-3.82491e-05
-0.000923506
-0.000216336
-0.000948362
-0.000429404
-0.000946921
-0.000670544
-0.000906807
-0.000923396
-0.00081584
-0.00115839
-0.00066718
-0.00132967
-0.000468173
-0.00137609
-0.000250625
-0.00123369
-7.29123e-05
-0.000867587
-0.000315078
-1.93454e-05
0.000156683
-6.38742e-05
0.000388429
-0.000120322
0.000540904
-0.000179274
0.000629085
-0.000235343
0.000670543
-0.00028609
0.000680656
-0.000330913
0.000671309
-0.000370217
0.000650945
-0.000404892
0.000625117
-0.000436037
0.000597168
-0.000464825
0.000568791
-0.000492451
0.000540414
-0.000520119
0.000511393
-0.000549017
0.000480054
-0.000580285
0.000443632
-0.00061494
0.000398199
-0.000653747
0.000338643
-0.000697018
0.000258818
-0.000744325
0.000151974
-0.000793793
1.12193e-05
-0.000842139
-0.000167991
-0.000882973
-0.00038857
-0.000906493
-0.000647024
-0.000898805
-0.000931084
-0.00084288
-0.00121432
-0.000722943
-0.0014496
-0.000534866
-0.00156416
-0.000302998
-0.00146556
-9.37239e-05
-0.00107686
-0.000408802
-2.39405e-05
0.000180623
-7.63587e-05
0.000440847
-0.00013938
0.000603926
-0.000201499
0.000691203
-0.000256991
0.000726035
-0.00030387
0.000727535
-0.000342183
0.000709622
-0.000372914
0.000681675
-0.000397383
0.000649586
-0.000416972
0.000616757
-0.000433026
0.000584845
-0.000446849
0.000554237
-0.000459732
0.000524277
-0.000472993
0.000493315
-0.000488005
0.000458644
-0.000506206
0.000416401
-0.000529063
0.0003615
-0.000557957
0.000287713
-0.000593931
0.000187948
-0.000637488
5.47759e-05
-0.00068718
-0.000118298
-0.000739573
-0.000336177
-0.000786988
-0.000599609
-0.000816088
-0.000901983
-0.000806906
-0.0012235
-0.000735012
-0.0015215
-0.000581285
-0.00171789
-0.000354112
-0.00169273
-0.000118811
-0.00131216
-0.000527613
-3.1155e-05
0.000211778
-9.43508e-05
0.000504043
-0.000164787
0.000674362
-0.000228647
0.000755064
-0.000280474
0.000777862
-0.000319402
0.000766462
-0.000346627
0.000736847
-0.000364035
0.000699084
-0.000373568
0.000659119
-0.000376989
0.000620178
-0.000375861
0.000583716
-0.000371592
0.000549968
-0.000365526
0.000518211
-0.00035904
0.000486828
-0.000353641
0.000453246
-0.000351062
0.000413821
-0.000353318
0.000363756
-0.000362707
0.000297101
-0.000381693
0.000206934
-0.000412653
8.57361e-05
-0.000457003
-7.39478e-05
-0.000514451
-0.000278729
-0.000581007
-0.000533053
-0.000646393
-0.000836598
-0.000690961
-0.00117893
-0.000684295
-0.00152816
-0.000591338
-0.00181085
-0.000396118
-0.00188795
-0.000148072
-0.00156021
-0.000675685
-4.30382e-05
0.000254816
-0.000120897
0.000581902
-0.000198618
0.000752082
-0.000260588
0.000817035
-0.000303016
0.000820289
-0.000327315
0.000790761
-0.000336586
0.000746119
-0.000334057
0.000696555
-0.000322523
0.000647586
-0.000304253
0.000601908
-0.000281066
0.000560529
-0.000254471
0.000523373
-0.000225821
0.000489561
-0.00019647
0.000457478
-0.00016794
0.000424716
-0.000142084
0.000387965
-0.000121235
0.000342907
-0.000108313
0.000284179
-0.000106831
0.000205452
-0.000120744
9.9649e-05
-0.000153981
-4.07115e-05
-0.000209552
-0.000223157
-0.000288007
-0.000454599
-0.000384356
-0.000740249
-0.000483282
-0.00108001
-0.00055349
-0.00145795
-0.000546897
-0.00181744
-0.000417605
-0.00201725
-0.000180292
-0.00179752
-0.000855976
-6.33516e-05
0.000318168
-0.000160233
0.000678783
-0.000241881
0.00083373
-0.000293549
0.000868703
-0.000315994
0.000842735
-0.000314754
0.000789521
-0.00029583
0.000727194
-0.000264267
0.000664992
-0.000223904
0.000607223
-0.000177546
0.00055555
-0.000127228
0.00051021
-7.44761e-05
0.000470621
-2.0548e-05
0.000435633
3.33502e-05
0.000403579
8.58434e-05
0.000372223
0.000135165
0.000338644
0.000178939
0.000299133
0.000213992
0.000249126
0.000236228
0.000183216
0.000240621
9.52564e-05
0.000221389
-2.14791e-05
0.000172746
-0.000174514
8.97038e-05
-0.000371557
-2.91686e-05
-0.000621377
-0.000176624
-0.000932553
-0.000327627
-0.00130695
-0.000427815
-0.00171725
-0.000402233
-0.00204283
-0.000211366
-0.00198839
-0.00106734
-9.85471e-05
0.000416715
-0.000216218
0.000796454
-0.000289345
0.000906857
-0.000312335
0.000891693
-0.000295783
0.000826183
-0.000251813
0.000745552
-0.000190256
0.000665637
-0.000118138
0.000592875
-4.01678e-05
0.000529252
4.06127e-05
0.00047477
0.000122267
0.000428556
0.000203539
0.000389349
0.000283524
0.000355648
0.00036139
0.000325713
0.000436123
0.000297491
0.00050627
0.000268497
0.000569691
0.000235712
0.000623311
0.000195505
0.000662918
0.000143609
0.000683018
7.51567e-05
0.000676692
-1.51536e-05
0.00063643
-0.000134252
0.00055363
-0.000288757
0.000420766
-0.000488513
0.000235484
-0.000747271
1.09494e-05
-0.00108242
-0.000208956
-0.00149735
-0.0003254
-0.00192639
-0.000231186
-0.0020826
-0.00129853
-0.000157299
0.000574014
-0.000282208
0.000921363
-0.000311474
0.000936122
-0.000268672
0.000848891
-0.000181927
0.000739437
-7.15654e-05
0.00063519
4.93121e-05
0.000544759
0.000172893
0.000469293
0.000294821
0.000407325
0.000412861
0.000356729
0.000526005
0.000315412
0.000633894
0.00028146
0.000736436
0.000253106
0.000833514
0.000228635
0.000924737
0.000206267
0.00100919
0.000184038
0.00108521
0.000159695
0.0011501
0.000130622
0.00119989
9.3812e-05
0.00122914
4.59129e-05
0.00123069
-1.67121e-05
0.00119602
-9.95772e-05
0.00111449
-0.000207227
0.000974136
-0.000348158
0.000763146
-0.00053628
0.000477092
-0.000796363
0.000143139
-0.00116339
-0.000146095
-0.00163715
-0.00021973
-0.00200897
-0.00151826
-0.000238385
0.0008124
-0.000294012
0.00097699
-0.000196965
0.000839075
-2.70927e-05
0.000679019
0.00016757
0.000544775
0.000363975
0.000438785
0.000551507
0.000357227
0.000725849
0.000294952
0.000885968
0.000247206
0.00103241
0.000210286
0.00116637
0.000181449
0.00128921
0.000158623
0.00140215
0.000140166
0.0015061
0.000124681
0.00160149
0.00011088
0.00168807
9.74585e-05
0.00176475
8.30196e-05
0.00182936
6.60092e-05
0.00187845
4.47191e-05
0.00190703
1.7336e-05
0.00190877
-1.84552e-05
0.00187457
-6.53777e-05
0.0017936
-0.000126257
0.00165185
-0.000206407
0.00143142
-0.000315846
0.00111172
-0.000476669
0.000684536
-0.000736204
0.000211603
-0.00116422
-0.000100679
-0.00169669
-0.00161894
-0.00018736
0.00099976
3.48131e-05
0.000754817
0.00039471
0.000479178
0.000736035
0.000337693
0.00103597
0.000244842
0.00129433
0.00018042
0.00151529
0.000136268
0.00170435
0.000105896
0.00186701
8.45435e-05
0.00200813
6.91709e-05
0.00213171
5.78666e-05
0.00224097
4.93647e-05
0.00233836
4.27706e-05
0.00242564
3.74035e-05
0.00250383
3.26933e-05
0.00257317
2.81107e-05
0.00263307
2.31212e-05
0.00268192
1.71613e-05
0.00271697
9.66762e-06
0.00273388
4.24748e-07
0.00272838
-1.29469e-05
0.00269196
-2.89621e-05
0.00261565
-4.99469e-05
0.00248664
-7.74022e-05
0.00228605
-0.000115249
0.00198362
-0.000174241
0.00153384
-0.000286429
0.000914064
-0.000544439
0.000258035
-0.00104066
-0.0013609
0.00099976
0.00175458
0.00223376
0.00257145
0.00281629
0.00299671
0.00313298
0.00323887
0.00332342
0.00339259
0.00345046
0.00349982
0.00354259
0.00357999
0.00361269
0.0036408
0.00366392
0.00368108
0.00369075
0.00369117
0.00367823
0.00364926
0.00359932
0.00352192
0.00340667
0.00323243
0.002946
0.00240156
0.0013609
)
;

boundaryField
{
    movingWall
    {
        type            calculated;
        value           uniform 0;
    }
    fixedWalls
    {
        type            calculated;
        value           uniform 0;
    }
    frontAndBack
    {
        type            empty;
        value           nonuniform 0();
    }
}


// ************************************************************************* //
