/*--------------------------------*- C++ -*----------------------------------*\
  =========                 |
  \\      /  F ield         | OpenFOAM: The Open Source CFD Toolbox
   \\    /   O peration     | Website:  https://openfoam.org
    \\  /    A nd           | Version:  7
     \\/     M anipulation  |
\*---------------------------------------------------------------------------*/
FoamFile
{
    version     2.0;
    format      ascii;
    class       volVectorField;
    location    "1.7";
    object      U;
}
// * * * * * * * * * * * * * * * * * * * * * * * * * * * * * * * * * * * * * //

dimensions      [0 1 -1 0 0 0 0];

internalField   nonuniform List<vector> 
900
(
(7.72596e-05 -7.66223e-05 0)
(6.77283e-05 7.1439e-06 0)
(-0.00025785 0.000115862 0)
(-0.000848827 0.000200329 0)
(-0.00163056 0.000254567 0)
(-0.00253256 0.000283532 0)
(-0.00349374 0.000293936 0)
(-0.00446652 0.000291383 0)
(-0.00541496 0.000279678 0)
(-0.00631115 0.00026102 0)
(-0.007132 0.000236404 0)
(-0.00785674 0.000206024 0)
(-0.00846539 0.00016964 0)
(-0.00893796 0.000126901 0)
(-0.00925458 7.76279e-05 0)
(-0.00939636 2.20698e-05 0)
(-0.00934686 -3.88998e-05 0)
(-0.00909415 -0.000103583 0)
(-0.00863326 -0.000169348 0)
(-0.00796879 -0.000232628 0)
(-0.00711732 -0.000289021 0)
(-0.00610922 -0.000333544 0)
(-0.00498963 -0.00036099 0)
(-0.00381806 -0.000366351 0)
(-0.00266662 -0.000345218 0)
(-0.00161694 -0.000294149 0)
(-0.000753396 -0.000211496 0)
(-0.000146835 -0.000101106 0)
(0.000132981 1.44189e-05 0)
(9.05303e-05 8.92914e-05 0)
(-4.16933e-06 -6.99332e-05 0)
(-0.000386824 0.000387103 0)
(-0.00144919 0.000902871 0)
(-0.0030553 0.00131933 0)
(-0.00507003 0.00160619 0)
(-0.00735559 0.00177238 0)
(-0.00978146 0.001839 0)
(-0.0122368 0.00182756 0)
(-0.0146312 0.00175519 0)
(-0.0168909 0.00163353 0)
(-0.0189531 0.00146937 0)
(-0.0207622 0.00126593 0)
(-0.0222666 0.00102435 0)
(-0.0234167 0.000745198 0)
(-0.024166 0.000429891 0)
(-0.0244721 8.19966e-05 0)
(-0.0243002 -0.000291714 0)
(-0.0236276 -0.00068023 0)
(-0.0224488 -0.00106802 0)
(-0.0207809 -0.00143499 0)
(-0.0186684 -0.00175718 0)
(-0.0161868 -0.00200818 0)
(-0.0134441 -0.00216122 0)
(-0.0105785 -0.00219185 0)
(-0.00775357 -0.00208081 0)
(-0.0051481 -0.00181757 0)
(-0.00294005 -0.00140552 0)
(-0.00128037 -0.000873104 0)
(-0.000278259 -0.000301187 0)
(2.36393e-05 0.000131728 0)
(-0.000116301 0.000255021 0)
(-0.000932209 0.00145554 0)
(-0.00274313 0.00267312 0)
(-0.00527489 0.00366112 0)
(-0.00833836 0.00435785 0)
(-0.0117564 0.00477169 0)
(-0.0153561 0.00493979 0)
(-0.018985 0.00490558 0)
(-0.0225151 0.00470689 0)
(-0.0258387 0.00437178 0)
(-0.0288632 0.00391847 0)
(-0.0315061 0.00335739 0)
(-0.0336919 0.0026943 0)
(-0.0353495 0.00193365 0)
(-0.0364132 0.00108195 0)
(-0.0368249 0.000150903 0)
(-0.0365383 -0.000839971 0)
(-0.0355247 -0.00186122 0)
(-0.0337802 -0.00287256 0)
(-0.0313325 -0.00382302 0)
(-0.0282473 -0.0046528 0)
(-0.0246329 -0.00529691 0)
(-0.0206412 -0.00569064 0)
(-0.016465 -0.0057765 0)
(-0.0123289 -0.00551228 0)
(-0.00847548 -0.00488056 0)
(-0.00514239 -0.00390095 0)
(-0.00252835 -0.00264755 0)
(-0.000785426 -0.00127815 0)
(-7.43176e-05 -0.000117472 0)
(-0.00021373 0.000873363 0)
(-0.00143022 0.00313667 0)
(-0.00394081 0.00524738 0)
(-0.00731423 0.00693271 0)
(-0.0112983 0.0081193 0)
(-0.0156815 0.00882277 0)
(-0.0202595 0.00909982 0)
(-0.0248519 0.00901823 0)
(-0.0293048 0.00863919 0)
(-0.0334874 0.00800994 0)
(-0.0372858 0.00716273 0)
(-0.0405985 0.00611761 0)
(-0.0433319 0.00488709 0)
(-0.0453991 0.00348169 0)
(-0.0467197 0.00191553 0)
(-0.047223 0.000211615 0)
(-0.0468531 -0.00159355 0)
(-0.0455755 -0.00344668 0)
(-0.0433854 -0.00527577 0)
(-0.0403166 -0.00699063 0)
(-0.036449 -0.00848625 0)
(-0.0319141 -0.0096493 0)
(-0.0268963 -0.010368 0)
(-0.0216295 -0.0105445 0)
(-0.0163855 -0.0101096 0)
(-0.0114579 -0.00903889 0)
(-0.00713374 -0.00737099 0)
(-0.0036564 -0.00522847 0)
(-0.00123497 -0.00284519 0)
(-0.000157136 -0.000639444 0)
(-0.000290967 0.00174049 0)
(-0.00185593 0.00536629 0)
(-0.00499616 0.00854133 0)
(-0.00912709 0.0110192 0)
(-0.0139299 0.0127437 0)
(-0.019158 0.0137525 0)
(-0.0245802 0.0141292 0)
(-0.0299945 0.0139696 0)
(-0.0352295 0.0133605 0)
(-0.0401389 0.0123699 0)
(-0.0445947 0.0110454 0)
(-0.0484818 0.00941782 0)
(-0.0516938 0.00750736 0)
(-0.0541309 0.00533152 0)
(-0.0557 0.00291317 0)
(-0.0563184 0.000288211 0)
(-0.0559186 -0.00248759 0)
(-0.0544572 -0.0053335 0)
(-0.0519236 -0.00814096 0)
(-0.0483512 -0.0107742 0)
(-0.0438266 -0.0130753 0)
(-0.0384971 -0.0148738 0)
(-0.0325733 -0.0160024 0)
(-0.0263248 -0.0163153 0)
(-0.0200685 -0.0157111 0)
(-0.0141482 -0.0141556 0)
(-0.00890427 -0.0117052 0)
(-0.00463073 -0.00852808 0)
(-0.00159915 -0.00492396 0)
(-0.000214709 -0.00137247 0)
(-0.000351972 0.00281649 0)
(-0.00221663 0.00808104 0)
(-0.00591739 0.0124868 0)
(-0.0107307 0.0158478 0)
(-0.0162724 0.018151 0)
(-0.0222601 0.0194732 0)
(-0.0284371 0.0199353 0)
(-0.0345838 0.0196668 0)
(-0.0405163 0.0187834 0)
(-0.0460782 0.0173754 0)
(-0.0511326 0.0155066 0)
(-0.0555554 0.0132185 0)
(-0.0592306 0.0105387 0)
(-0.0620472 0.00749122 0)
(-0.0638997 0.00410694 0)
(-0.064691 0.000434494 0)
(-0.0643388 -0.00345051 0)
(-0.0627842 -0.00743802 0)
(-0.0600036 -0.0113792 0)
(-0.0560216 -0.0150868 0)
(-0.0509234 -0.0183415 0)
(-0.0448653 -0.0209058 0)
(-0.0380802 -0.0225451 0)
(-0.030874 -0.0230549 0)
(-0.0236132 -0.0222924 0)
(-0.0167018 -0.020208 0)
(-0.0105444 -0.0168731 0)
(-0.00549741 -0.0125005 0)
(-0.001898 -0.0074542 0)
(-0.000252466 -0.00227314 0)
(-0.000402154 0.00406858 0)
(-0.00252948 0.011223 0)
(-0.00673518 0.0170189 0)
(-0.0121726 0.0213518 0)
(-0.0183957 0.0242736 0)
(-0.0250866 0.0259171 0)
(-0.0319642 0.0264516 0)
(-0.0387937 0.0260482 0)
(-0.0453822 0.0248551 0)
(-0.0515676 0.0229872 0)
(-0.0572079 0.0205246 0)
(-0.0621735 0.0175188 0)
(-0.0663411 0.014003 0)
(-0.0695893 0.0100053 0)
(-0.071799 0.00556243 0)
(-0.0728557 0.000733207 0)
(-0.0726561 -0.00438845 0)
(-0.0711182 -0.00966316 0)
(-0.0681952 -0.0148993 0)
(-0.0638919 -0.0198522 0)
(-0.0582817 -0.0242317 0)
(-0.0515224 -0.0277198 0)
(-0.0438654 -0.0299986 0)
(-0.0356563 -0.0307885 0)
(-0.0273211 -0.0298909 0)
(-0.01934 -0.0272309 0)
(-0.0122017 -0.0228926 0)
(-0.00634125 -0.0171376 0)
(-0.00216845 -0.0104044 0)
(-0.000278929 -0.00331158 0)
(-0.000446228 0.00547505 0)
(-0.00281292 0.0147507 0)
(-0.00748697 0.0220897 0)
(-0.0135107 0.0274835 0)
(-0.0203801 0.0310662 0)
(-0.0277428 0.0330422 0)
(-0.035295 0.0336418 0)
(-0.0427886 0.0330853 0)
(-0.0500249 0.0315587 0)
(-0.0568391 0.0292034 0)
(-0.0630882 0.0261159 0)
(-0.0686401 0.0223561 0)
(-0.073366 0.01796 0)
(-0.077135 0.0129557 0)
(-0.0798128 0.00738079 0)
(-0.0812633 0.00129959 0)
(-0.0813554 -0.00517983 0)
(-0.0799739 -0.0118912 0)
(-0.0770362 -0.0185991 0)
(-0.072513 -0.0249961 0)
(-0.0664517 -0.03071 0)
(-0.0589998 -0.0353246 0)
(-0.0504219 -0.0384168 0)
(-0.041106 -0.039607 0)
(-0.0315514 -0.0386186 0)
(-0.022337 -0.0353368 0)
(-0.014063 -0.0298548 0)
(-0.0072691 -0.0224935 0)
(-0.00245333 -0.0137893 0)
(-0.000302085 -0.00447966 0)
(-0.000487777 0.00702451 0)
(-0.00308327 0.0186407 0)
(-0.00820869 0.0276725 0)
(-0.0148019 0.0342172 0)
(-0.0223037 0.0385068 0)
(-0.0303286 0.0408321 0)
(-0.0385514 0.0414963 0)
(-0.0467134 0.0407781 0)
(-0.054613 0.0389068 0)
(-0.0620865 0.0360529 0)
(-0.0689934 0.0323292 0)
(-0.0752025 0.0278014 0)
(-0.0805824 0.0225042 0)
(-0.0849937 0.01646 0)
(-0.0882858 0.00969999 0)
(-0.0902972 0.00228626 0)
(-0.0908615 -0.00566658 0)
(-0.0898187 -0.013971 0)
(-0.0870348 -0.0223498 0)
(-0.0824274 -0.0304286 0)
(-0.075998 -0.0377404 0)
(-0.0678657 -0.0437495 0)
(-0.0582971 -0.0478967 0)
(-0.0477222 -0.0496669 0)
(-0.036728 -0.0486713 0)
(-0.0260214 -0.0447312 0)
(-0.0163534 -0.0379427 0)
(-0.0084075 -0.0287024 0)
(-0.0028001 -0.0176816 0)
(-0.00032934 -0.00579343 0)
(-0.000529433 0.00871387 0)
(-0.00335398 0.0228867 0)
(-0.00893163 0.0337604 0)
(-0.0160967 0.041548 0)
(-0.0242353 0.0465937 0)
(-0.03293 0.0492896 0)
(-0.0418357 0.050025 0)
(-0.050686 0.0491463 0)
(-0.0592795 0.0469325 0)
(-0.0674582 0.0435858 0)
(-0.0750883 0.0392354 0)
(-0.0820443 0.0339502 0)
(-0.0881958 0.0277581 0)
(-0.0933976 0.020668 0)
(-0.0974832 0.0126953 0)
(-0.100263 0.00388836 0)
(-0.101528 -0.00564347 0)
(-0.101062 -0.0157021 0)
(-0.0986592 -0.0259748 0)
(-0.0941616 -0.0360192 0)
(-0.0874963 -0.0452618 0)
(-0.0787266 -0.0530212 0)
(-0.0680994 -0.0585621 0)
(-0.0560791 -0.0611835 0)
(-0.0433527 -0.0603325 0)
(-0.0307902 -0.0557264 0)
(-0.0193472 -0.0474503 0)
(-0.00990958 -0.0359962 0)
(-0.00326438 -0.0222221 0)
(-0.000368537 -0.00729524 0)
(-0.000573126 0.0105465 0)
(-0.00363585 0.027496 0)
(-0.00968183 0.0403635 0)
(-0.0174372 0.0494878 0)
(-0.0262318 0.0553408 0)
(-0.0356161 0.0584318 0)
(-0.045227 0.05925 0)
(-0.0547927 0.0582206 0)
(-0.0641169 0.0556792 0)
(-0.073052 0.0518632 0)
(-0.0814768 0.0469183 0)
(-0.0892772 0.0409137 0)
(-0.0963297 0.0338644 0)
(-0.102488 0.0257569 0)
(-0.107573 0.0165779 0)
(-0.111367 0.00634677 0)
(-0.113613 -0.00484937 0)
(-0.114025 -0.0168191 0)
(-0.112308 -0.0292278 0)
(-0.108196 -0.0415703 0)
(-0.101507 -0.053158 0)
(-0.0922075 -0.0631355 0)
(-0.0804882 -0.0705414 0)
(-0.0668267 -0.0744192 0)
(-0.0520143 -0.0739748 0)
(-0.0371229 -0.0687555 0)
(-0.0233819 -0.0588043 0)
(-0.0119657 -0.044727 0)
(-0.00391516 -0.0276363 0)
(-0.00042921 -0.00905874 0)
(-0.000620338 0.0125311 0)
(-0.00393774 0.0324879 0)
(-0.0104809 0.0475061 0)
(-0.0188581 0.0580622 0)
(-0.0283383 0.064773 0)
(-0.0384388 0.0682835 0)
(-0.0487795 0.0691984 0)
(-0.0590871 0.0680341 0)
(-0.0691746 0.0651909 0)
(-0.0789111 0.0609461 0)
(-0.088195 0.0554625 0)
(-0.0969314 0.048807 0)
(-0.105012 0.0409752 0)
(-0.112297 0.0319208 0)
(-0.118602 0.0215872 0)
(-0.123682 0.00994497 0)
(-0.127234 -0.00296488 0)
(-0.128892 -0.0169815 0)
(-0.128249 -0.0317737 0)
(-0.124902 -0.0467892 0)
(-0.118511 -0.0612228 0)
(-0.108892 -0.0740193 0)
(-0.0961261 -0.0839323 0)
(-0.08066 -0.0896587 0)
(-0.0633768 -0.0900515 0)
(-0.0455836 -0.0843821 0)
(-0.0288687 -0.0725869 0)
(-0.0148132 -0.0553941 0)
(-0.00484006 -0.0342554 0)
(-0.000523788 -0.0111972 0)
(-0.000672361 0.0146802 0)
(-0.00426752 0.0378914 0)
(-0.0113479 0.0552239 0)
(-0.0203887 0.0673064 0)
(-0.0305904 0.0749215 0)
(-0.0414346 0.0788709 0)
(-0.0525252 0.079894 0)
(-0.0635904 0.0786122 0)
(-0.0744582 0.0755008 0)
(-0.0850213 0.0708823 0)
(-0.0952058 0.0649385 0)
(-0.104945 0.0577322 0)
(-0.114157 0.049234 0)
(-0.12272 0.0393537 0)
(-0.130453 0.0279747 0)
(-0.137097 0.0149955 0)
(-0.142301 0.000380892 0)
(-0.145618 -0.0157749 0)
(-0.146515 -0.0331806 0)
(-0.144417 -0.0512669 0)
(-0.138779 -0.0691257 0)
(-0.129199 -0.0854843 0)
(-0.115569 -0.0987501 0)
(-0.098233 -0.107162 0)
(-0.0781236 -0.109065 0)
(-0.0567965 -0.103292 0)
(-0.0362885 -0.0895512 0)
(-0.0187419 -0.0686718 0)
(-0.0061495 -0.0425415 0)
(-0.000668659 -0.0138743 0)
(-0.000730603 0.0170108 0)
(-0.00463352 0.0437449 0)
(-0.0123021 0.0635627 0)
(-0.0220568 0.0772625 0)
(-0.0330186 0.0858185 0)
(-0.044629 0.0902151 0)
(-0.0564762 0.0913482 0)
(-0.0682935 0.0899618 0)
(-0.0799298 0.0866172 0)
(-0.0913083 0.0816896 0)
(-0.102392 0.0753833 0)
(-0.113153 0.0677562 0)
(-0.123548 0.0587494 0)
(-0.133485 0.0482189 0)
(-0.142805 0.035971 0)
(-0.151247 0.0218061 0)
(-0.158426 0.00557666 0)
(-0.163818 -0.0127373 0)
(-0.16676 -0.0329331 0)
(-0.166482 -0.0544744 0)
(-0.162185 -0.0763851 0)
(-0.153179 -0.0971765 0)
(-0.13907 -0.114857 0)
(-0.119993 -0.127084 0)
(-0.0968375 -0.131499 0)
(-0.071376 -0.126252 0)
(-0.0461645 -0.110614 0)
(-0.0240899 -0.0854288 0)
(-0.0079791 -0.0531135 0)
(-0.000885237 -0.0173172 0)
(-0.000797005 0.0195445 0)
(-0.00504635 0.0500968 0)
(-0.0133668 0.0725779 0)
(-0.023894 0.087977 0)
(-0.0356538 0.0974927 0)
(-0.0480418 0.102324 0)
(-0.06063 0.103551 0)
(-0.0731605 0.102058 0)
(-0.0855088 0.0985079 0)
(-0.097636 0.0933366 0)
(-0.10955 0.0867756 0)
(-0.121273 0.0788797 0)
(-0.13281 0.0695581 0)
(-0.144119 0.058605 0)
(-0.155076 0.0457337 0)
(-0.165443 0.0306203 0)
(-0.174822 0.0129653 0)
(-0.18263 -0.0074182 0)
(-0.188085 -0.0304808 0)
(-0.190218 -0.0557897 0)
(-0.187951 -0.0823635 0)
(-0.180242 -0.108531 0)
(-0.166306 -0.131876 0)
(-0.145928 -0.149359 0)
(-0.119798 -0.157689 0)
(-0.0897944 -0.154009 0)
(-0.0589998 -0.136807 0)
(-0.0312276 -0.106727 0)
(-0.0104906 -0.0667688 0)
(-0.00120145 -0.0218307 0)
(-0.000874616 0.0223096 0)
(-0.00552152 0.057009 0)
(-0.0145747 0.082336 0)
(-0.0259424 0.0994996 0)
(-0.0385346 0.109965 0)
(-0.0516932 0.115185 0)
(-0.0649741 0.116457 0)
(-0.0781318 0.11483 0)
(-0.0910739 0.111081 0)
(-0.103806 0.105719 0)
(-0.116387 0.0990063 0)
(-0.128897 0.0910001 0)
(-0.141403 0.0815776 0)
(-0.153923 0.070467 0)
(-0.166393 0.057277 0)
(-0.178617 0.0415361 0)
(-0.19022 0.0227556 0)
(-0.200597 0.000526847 0)
(-0.208878 -0.0253296 0)
(-0.213927 -0.0545698 0)
(-0.214396 -0.0863019 0)
(-0.208856 -0.118749 0)
(-0.196046 -0.149101 0)
(-0.175235 -0.173546 0)
(-0.146695 -0.187639 0)
(-0.112177 -0.187113 0)
(-0.0751678 -0.169155 0)
(-0.0405244 -0.133779 0)
(-0.0138721 -0.0844934 0)
(-0.00165454 -0.0278118 0)
(-0.000968494 0.0253443 0)
(-0.00608309 0.0645623 0)
(-0.0159742 0.0929192 0)
(-0.0282628 0.111883 0)
(-0.041715 0.123241 0)
(-0.055611 0.128756 0)
(-0.0694906 0.129976 0)
(-0.0831261 0.128144 0)
(-0.0964627 0.124167 0)
(-0.109555 0.118632 0)
(-0.122518 0.111847 0)
(-0.135493 0.103871 0)
(-0.148614 0.0945542 0)
(-0.161973 0.0835607 0)
(-0.175579 0.0703889 0)
(-0.189311 0.0544055 0)
(-0.202853 0.0349031 0)
(-0.215629 0.0112038 0)
(-0.226749 -0.0171741 0)
(-0.23498 -0.0502715 0)
(-0.238766 -0.0874072 0)
(-0.236319 -0.126829 0)
(-0.225857 -0.165436 0)
(-0.20599 -0.19867 0)
(-0.176292 -0.220772 0)
(-0.138024 -0.225641 0)
(-0.0947427 -0.208457 0)
(-0.0522884 -0.167843 0)
(-0.0183365 -0.10745 0)
(-0.00229597 -0.035767 0)
(-0.0010872 0.0287035 0)
(-0.0067694 0.0728669 0)
(-0.0176397 0.104431 0)
(-0.0309455 0.125181 0)
(-0.045274 0.137309 0)
(-0.0598353 0.14295 0)
(-0.074158 0.143955 0)
(-0.0880394 0.141784 0)
(-0.101469 0.137491 0)
(-0.114554 0.131751 0)
(-0.127466 0.124918 0)
(-0.140407 0.117063 0)
(-0.153577 0.108016 0)
(-0.167146 0.0973818 0)
(-0.18121 0.0845542 0)
(-0.195744 0.0687363 0)
(-0.210536 0.0489912 0)
(-0.225107 0.0243437 0)
(-0.238633 -0.00604505 0)
(-0.249903 -0.0426126 0)
(-0.25728 -0.0849991 0)
(-0.258724 -0.13166 0)
(-0.251977 -0.179409 0)
(-0.234905 -0.223104 0)
(-0.206111 -0.255678 0)
(-0.165883 -0.268846 0)
(-0.117259 -0.254946 0)
(-0.0666625 -0.210011 0)
(-0.0241135 -0.136926 0)
(-0.00319912 -0.0463301 0)
(-0.00124554 0.0324684 0)
(-0.00764215 0.0820771 0)
(-0.0196856 0.117006 0)
(-0.0341243 0.139452 0)
(-0.049323 0.152125 0)
(-0.0644204 0.157625 0)
(-0.0789452 0.158158 0)
(-0.0927341 0.155433 0)
(-0.105831 0.150658 0)
(-0.118397 0.144602 0)
(-0.13066 0.137667 0)
(-0.142875 0.129942 0)
(-0.155304 0.121244 0)
(-0.168188 0.111131 0)
(-0.181715 0.098908 0)
(-0.195972 0.0836305 0)
(-0.210885 0.0641435 0)
(-0.226146 0.0391732 0)
(-0.241123 0.00750059 0)
(-0.254755 -0.0317582 0)
(-0.265492 -0.0787033 0)
(-0.271264 -0.13221 0)
(-0.269493 -0.189299 0)
(-0.257342 -0.244586 0)
(-0.232263 -0.289943 0)
(-0.193058 -0.314799 0)
(-0.14141 -0.307844 0)
(-0.0834562 -0.260873 0)
(-0.0314279 -0.174222 0)
(-0.00447001 -0.0602799 0)
(-0.00146977 0.0367641 0)
(-0.00880206 0.0924149 0)
(-0.022287 0.130818 0)
(-0.0379923 0.154744 0)
(-0.0540121 0.167595 0)
(-0.0694259 0.172552 0)
(-0.0837905 0.172241 0)
(-0.0970074 0.168642 0)
(-0.10919 0.163126 0)
(-0.120564 0.156551 0)
(-0.131406 0.149362 0)
(-0.142019 0.141667 0)
(-0.152713 0.133279 0)
(-0.16379 0.123728 0)
(-0.17552 0.112253 0)
(-0.188109 0.0977979 0)
(-0.201653 0.0790283 0)
(-0.216068 0.0544094 0)
(-0.231002 0.0223672 0)
(-0.245708 -0.018427 0)
(-0.258962 -0.068649 0)
(-0.268911 -0.127785 0)
(-0.27294 -0.193417 0)
(-0.267729 -0.260424 0)
(-0.249597 -0.32018 0)
(-0.215481 -0.360145 0)
(-0.164763 -0.364872 0)
(-0.101909 -0.320019 0)
(-0.0404504 -0.220422 0)
(-0.00626148 -0.0785514 0)
(-0.00180844 0.04179 0)
(-0.0104165 0.104205 0)
(-0.0257118 0.146094 0)
(-0.0428202 0.171087 0)
(-0.0595233 0.183539 0)
(-0.0748852 0.187373 0)
(-0.0885471 0.185704 0)
(-0.10052 0.1808 0)
(-0.111018 0.174184 0)
(-0.12034 0.166789 0)
(-0.128817 0.159092 0)
(-0.136792 0.151215 0)
(-0.144608 0.142973 0)
(-0.152612 0.133884 0)
(-0.161142 0.123156 0)
(-0.170516 0.109668 0)
(-0.181 0.091975 0)
(-0.192767 0.0683591 0)
(-0.205817 0.0369708 0)
(-0.219847 -0.00392959 0)
(-0.234153 -0.0556289 0)
(-0.247383 -0.118329 0)
(-0.257262 -0.190522 0)
(-0.2604 -0.267963 0)
(-0.252285 -0.342384 0)
(-0.227929 -0.400153 0)
(-0.183624 -0.421878 0)
(-0.120431 -0.385433 0)
(-0.0512147 -0.276023 0)
(-0.0087912 -0.102232 0)
(-0.00235478 0.0478752 0)
(-0.0127698 0.117922 0)
(-0.0303659 0.163107 0)
(-0.0489675 0.188438 0)
(-0.0660346 0.199623 0)
(-0.0807227 0.201528 0)
(-0.0928602 0.197827 0)
(-0.102644 0.191073 0)
(-0.110434 0.182914 0)
(-0.116631 0.174324 0)
(-0.121628 0.165791 0)
(-0.125804 0.157436 0)
(-0.129529 0.149076 0)
(-0.133176 0.140232 0)
(-0.13713 0.130114 0)
(-0.141796 0.117595 0)
(-0.147596 0.101195 0)
(-0.154946 0.0791176 0)
(-0.164214 0.0493512 0)
(-0.175638 0.00985839 0)
(-0.189126 -0.0411408 0)
(-0.204038 -0.10464 0)
(-0.218864 -0.180265 0)
(-0.230687 -0.265216 0)
(-0.234787 -0.352625 0)
(-0.224663 -0.429197 0)
(-0.193199 -0.472813 0)
(-0.136399 -0.452908 0)
(-0.063487 -0.340382 0)
(-0.0123593 -0.132538 0)
(-0.0032936 0.0555841 0)
(-0.0163518 0.134261 0)
(-0.0368507 0.18215 0)
(-0.0568578 0.206582 0)
(-0.0736021 0.215223 0)
(-0.0865523 0.214124 0)
(-0.0959002 0.207558 0)
(-0.102145 0.198324 0)
(-0.105863 0.188136 0)
(-0.107594 0.177959 0)
(-0.107815 0.168252 0)
(-0.106947 0.159111 0)
(-0.105377 0.150344 0)
(-0.103491 0.141483 0)
(-0.101696 0.131769 0)
(-0.100452 0.120117 0)
(-0.100295 0.105098 0)
(-0.101844 0.0849457 0)
(-0.105787 0.0576213 0)
(-0.112836 0.0209545 0)
(-0.123568 -0.027131 0)
(-0.138205 -0.0883403 0)
(-0.15625 -0.163454 0)
(-0.175827 -0.251479 0)
(-0.192862 -0.347926 0)
(-0.200306 -0.441663 0)
(-0.188083 -0.510217 0)
(-0.146118 -0.515749 0)
(-0.076556 -0.411019 0)
(-0.0173411 -0.170745 0)
(-0.00499643 0.0659194 0)
(-0.0220077 0.154202 0)
(-0.0459953 0.203397 0)
(-0.0668231 0.2249 0)
(-0.0818232 0.22918 0)
(-0.0911978 0.223707 0)
(-0.0957813 0.213323 0)
(-0.0965372 0.200969 0)
(-0.0943496 0.188322 0)
(-0.0899457 0.176255 0)
(-0.0839036 0.165137 0)
(-0.0766906 0.155005 0)
(-0.0687066 0.145635 0)
(-0.0603297 0.136569 0)
(-0.0519622 0.127093 0)
(-0.0440778 0.116207 0)
(-0.0372672 0.102597 0)
(-0.0322747 0.0846266 0)
(-0.0300175 0.0603741 0)
(-0.0315723 0.027714 0)
(-0.0380913 -0.0155463 0)
(-0.0506165 -0.0715258 0)
(-0.0697659 -0.141945 0)
(-0.09511 -0.227617 0)
(-0.124108 -0.327044 0)
(-0.150568 -0.433068 0)
(-0.162816 -0.526221 0)
(-0.144876 -0.564928 0)
(-0.0888498 -0.482801 0)
(-0.0240698 -0.217939 0)
(-0.00819906 0.080711 0)
(-0.0311439 0.179024 0)
(-0.0587081 0.226557 0)
(-0.0785208 0.24189 0)
(-0.0889089 0.23934 0)
(-0.0915411 0.227888 0)
(-0.0882881 0.212751 0)
(-0.0807695 0.196797 0)
(-0.0702599 0.181488 0)
(-0.0576978 0.167486 0)
(-0.0437586 0.154992 0)
(-0.0289361 0.143925 0)
(-0.0136141 0.134003 0)
(0.00186826 0.124761 0)
(0.0171547 0.115537 0)
(0.0318089 0.105437 0)
(0.0452518 0.0933091 0)
(0.0567029 0.0777239 0)
(0.0651354 0.056986 0)
(0.0692515 0.0291762 0)
(0.0674975 -0.00779029 0)
(0.0582042 -0.056128 0)
(0.0397526 -0.118076 0)
(0.0110325 -0.195822 0)
(-0.0275738 -0.290807 0)
(-0.0722974 -0.40106 0)
(-0.112063 -0.513777 0)
(-0.126796 -0.589728 0)
(-0.0971993 -0.54715 0)
(-0.0324073 -0.274475 0)
(-0.0142486 0.103296 0)
(-0.0457952 0.209972 0)
(-0.0750253 0.249973 0)
(-0.0890135 0.254232 0)
(-0.0891869 0.241803 0)
(-0.0797879 0.222821 0)
(-0.064143 0.202372 0)
(-0.0446421 0.182841 0)
(-0.0229266 0.165206 0)
(-6.81414e-05 0.149747 0)
(0.0232526 0.136394 0)
(0.0466039 0.124893 0)
(0.0696959 0.114867 0)
(0.0922965 0.105832 0)
(0.114157 0.0971743 0)
(0.13494 0.0881195 0)
(0.154148 0.0777047 0)
(0.171053 0.0647544 0)
(0.184633 0.0478774 0)
(0.193516 0.0254801 0)
(0.195934 -0.00422373 0)
(0.189847 -0.0432189 0)
(0.172921 -0.0937975 0)
(0.142764 -0.158796 0)
(0.0975272 -0.241786 0)
(0.0373983 -0.345964 0)
(-0.0299362 -0.467803 0)
(-0.0840106 -0.578753 0)
(-0.0956085 -0.591626 0)
(-0.0407067 -0.339694 0)
(-0.0250428 0.139652 0)
(-0.0673047 0.246255 0)
(-0.0899098 0.268006 0)
(-0.0868132 0.254674 0)
(-0.0666997 0.229564 0)
(-0.0374036 0.202538 0)
(-0.00366458 0.17746 0)
(0.0316783 0.155561 0)
(0.0669875 0.136969 0)
(0.101391 0.121399 0)
(0.134472 0.108425 0)
(0.166066 0.0975841 0)
(0.196128 0.0883998 0)
(0.224647 0.0803702 0)
(0.251564 0.0729411 0)
(0.276709 0.0654735 0)
(0.299727 0.0572128 0)
(0.320014 0.0472658 0)
(0.336643 0.0345893 0)
(0.348287 0.0179878 0)
(0.353158 -0.00389942 0)
(0.349078 -0.0325528 0)
(0.3333 -0.069923 0)
(0.30262 -0.118708 0)
(0.253459 -0.183232 0)
(0.182623 -0.270318 0)
(0.0916123 -0.386434 0)
(-0.00470449 -0.521334 0)
(-0.0735396 -0.599971 0)
(-0.0438495 -0.411473 0)
(-0.0403589 0.20095 0)
(-0.0877823 0.278126 0)
(-0.0771702 0.263028 0)
(-0.035127 0.226926 0)
(0.0191375 0.190226 0)
(0.0760842 0.158432 0)
(0.131449 0.132464 0)
(0.183355 0.111709 0)
(0.231178 0.0952094 0)
(0.274934 0.0820783 0)
(0.314916 0.0715811 0)
(0.351517 0.0631136 0)
(0.385119 0.0561625 0)
(0.416041 0.0502656 0)
(0.444482 0.0449738 0)
(0.470478 0.0398165 0)
(0.493853 0.0342743 0)
(0.514156 0.0277587 0)
(0.53061 0.0195991 0)
(0.542014 0.00903716 0)
(0.546776 -0.00480346 0)
(0.542766 -0.0228008 0)
(0.527148 -0.0462543 0)
(0.496458 -0.077101 0)
(0.446229 -0.118912 0)
(0.370715 -0.17911 0)
(0.264893 -0.271511 0)
(0.131069 -0.408709 0)
(-0.011282 -0.550493 0)
(-0.0274022 -0.473951 0)
(-0.033273 0.29541 0)
(-0.0450228 0.276016 0)
(0.0588547 0.202693 0)
(0.163222 0.151436 0)
(0.255483 0.114718 0)
(0.335206 0.0879019 0)
(0.403497 0.0685705 0)
(0.461809 0.0546395 0)
(0.511768 0.0444603 0)
(0.554898 0.0368965 0)
(0.592483 0.0311866 0)
(0.625558 0.0268 0)
(0.654929 0.0233445 0)
(0.681198 0.020509 0)
(0.704761 0.0180238 0)
(0.725804 0.0156319 0)
(0.744285 0.0130685 0)
(0.759894 0.0100482 0)
(0.772032 0.00626168 0)
(0.779682 0.00136987 0)
(0.781646 -0.00488771 0)
(0.776117 -0.013071 0)
(0.76066 -0.0237063 0)
(0.732214 -0.0376631 0)
(0.686482 -0.056809 0)
(0.616861 -0.0858645 0)
(0.513077 -0.137716 0)
(0.3608 -0.241159 0)
(0.141323 -0.407149 0)
(0.0579279 -0.458171 0)
(0.303531 0.181057 0)
(0.383877 0.145026 0)
(0.563876 0.0920935 0)
(0.69125 0.0596939 0)
(0.77453 0.0396123 0)
(0.833571 0.0266333 0)
(0.877826 0.0182902 0)
(0.911867 0.0129597 0)
(0.938668 0.00951495 0)
(0.960321 0.00724189 0)
(0.978249 0.00570706 0)
(0.99341 0.0046428 0)
(1.00646 0.00387626 0)
(1.01783 0.00328877 0)
(1.02779 0.00279118 0)
(1.03646 0.00230848 0)
(1.04378 0.0017703 0)
(1.04956 0.00110494 0)
(1.05346 0.00024274 0)
(1.05498 -0.000900535 0)
(1.05336 -0.00226331 0)
(1.04757 -0.00410027 0)
(1.03652 -0.00649512 0)
(1.01862 -0.00960265 0)
(0.991461 -0.0138519 0)
(0.950738 -0.0204835 0)
(0.886711 -0.0332293 0)
(0.777899 -0.0644133 0)
(0.545289 -0.13992 0)
(0.382514 -0.201992 0)
)
;

boundaryField
{
    movingWall
    {
        type            fixedValue;
        value           uniform (1.2 0 0);
    }
    fixedWalls
    {
        type            noSlip;
    }
    frontAndBack
    {
        type            empty;
    }
}


// ************************************************************************* //
