/*--------------------------------*- C++ -*----------------------------------*\
  =========                 |
  \\      /  F ield         | OpenFOAM: The Open Source CFD Toolbox
   \\    /   O peration     | Website:  https://openfoam.org
    \\  /    A nd           | Version:  7
     \\/     M anipulation  |
\*---------------------------------------------------------------------------*/
FoamFile
{
    version     2.0;
    format      ascii;
    class       volVectorField;
    location    "9.2";
    object      U;
}
// * * * * * * * * * * * * * * * * * * * * * * * * * * * * * * * * * * * * * //

dimensions      [0 1 -1 0 0 0 0];

internalField   nonuniform List<vector> 
900
(
(0.000164544 -0.000163613 0)
(0.000292603 -7.10886e-05 0)
(-2.95979e-05 9.79611e-05 0)
(-0.000811642 0.000246858 0)
(-0.00196129 0.000354642 0)
(-0.00337337 0.000424007 0)
(-0.00495308 0.000464333 0)
(-0.00662266 0.00048383 0)
(-0.00831788 0.00048709 0)
(-0.00998052 0.000475187 0)
(-0.0115517 0.000446658 0)
(-0.0129678 0.000398743 0)
(-0.0141596 0.000328653 0)
(-0.0150548 0.000234776 0)
(-0.0155833 0.000117753 0)
(-0.0156844 -1.87879e-05 0)
(-0.015316 -0.000168219 0)
(-0.0144633 -0.00031987 0)
(-0.0131475 -0.000460613 0)
(-0.0114293 -0.000576001 0)
(-0.00941025 -0.000652109 0)
(-0.00722699 -0.000677725 0)
(-0.00504038 -0.000646411 0)
(-0.00301956 -0.000557999 0)
(-0.00132235 -0.000419383 0)
(-7.55693e-05 -0.000245238 0)
(0.000640905 -5.72475e-05 0)
(0.000816201 0.000118258 0)
(0.000558384 0.000224381 0)
(0.000172162 0.000171039 0)
(7.95863e-05 -0.000300362 0)
(-0.000299478 0.000296728 0)
(-0.00173695 0.00113799 0)
(-0.0041468 0.00189549 0)
(-0.00736384 0.0024783 0)
(-0.0111844 0.00287907 0)
(-0.0154021 0.0031207 0)
(-0.0198289 0.00322856 0)
(-0.0242943 0.00321847 0)
(-0.0286362 0.00309461 0)
(-0.0326918 0.00285232 0)
(-0.0362924 0.00248304 0)
(-0.039264 0.00198001 0)
(-0.0414345 0.00134374 0)
(-0.0426457 0.000586523 0)
(-0.0427704 -0.000264435 0)
(-0.0417288 -0.00116528 0)
(-0.0395067 -0.00205715 0)
(-0.036171 -0.00287022 0)
(-0.0318759 -0.0035303 0)
(-0.0268615 -0.00396799 0)
(-0.0214415 -0.00412891 0)
(-0.0159796 -0.00398344 0)
(-0.0108556 -0.0035342 0)
(-0.00642417 -0.00282012 0)
(-0.00297057 -0.001918 0)
(-0.000665406 -0.000941674 0)
(0.000461898 -4.24993e-05 0)
(0.00060067 0.000565198 0)
(0.000232399 0.000555819 0)
(-0.00010593 2.72369e-05 0)
(-0.00124766 0.00175699 0)
(-0.00405281 0.00381535 0)
(-0.00819513 0.00565479 0)
(-0.0134172 0.00709545 0)
(-0.0194497 0.00810562 0)
(-0.0260117 0.00871534 0)
(-0.0328359 0.00896618 0)
(-0.0396711 0.00888586 0)
(-0.0462722 0.00848186 0)
(-0.0523928 0.00774615 0)
(-0.0577816 0.00666558 0)
(-0.0621861 0.00523433 0)
(-0.0653635 0.00346592 0)
(-0.0670974 0.00140297 0)
(-0.067219 -0.000876437 0)
(-0.0656293 -0.0032564 0)
(-0.0623213 -0.0055887 0)
(-0.0573963 -0.0077017 0)
(-0.0510723 -0.00941641 0)
(-0.0436815 -0.0105673 0)
(-0.0356553 -0.0110254 0)
(-0.0274937 -0.0107213 0)
(-0.0197224 -0.00966247 0)
(-0.0128382 -0.00794458 0)
(-0.00724957 -0.00575362 0)
(-0.00321723 -0.0033641 0)
(-0.000805922 -0.00113891 0)
(0.000168764 0.000474914 0)
(0.000168807 0.000864832 0)
(-0.000302965 0.000912246 0)
(-0.00227204 0.00441312 0)
(-0.00654182 0.00809198 0)
(-0.012466 0.0112929 0)
(-0.0196602 0.013786 0)
(-0.0277888 0.0155298 0)
(-0.03651 0.0165648 0)
(-0.0454977 0.0169475 0)
(-0.0544405 0.0167149 0)
(-0.0630319 0.015876 0)
(-0.0709623 0.0144196 0)
(-0.0779186 0.0123306 0)
(-0.0835896 0.00961014 0)
(-0.0876802 0.00629446 0)
(-0.089931 0.00246976 0)
(-0.0901409 -0.00171844 0)
(-0.0881924 -0.00606444 0)
(-0.0840751 -0.0103089 0)
(-0.0779044 -0.0141555 0)
(-0.069932 -0.0172971 0)
(-0.0605459 -0.0194488 0)
(-0.0502562 -0.0203867 0)
(-0.0396638 -0.0199856 0)
(-0.0294125 -0.0182512 0)
(-0.0201258 -0.0153405 0)
(-0.0123359 -0.0115669 0)
(-0.00641002 -0.00739427 0)
(-0.00248615 -0.00342163 0)
(-0.000441045 -0.000365902 0)
(7.17662e-05 0.000883962 0)
(-0.000489446 0.00235431 0)
(-0.00327832 0.00829487 0)
(-0.00901627 0.0139856 0)
(-0.0167071 0.0187759 0)
(-0.0258198 0.0224497 0)
(-0.0359462 0.0249885 0)
(-0.0466895 0.0264574 0)
(-0.0576772 0.0269311 0)
(-0.0685552 0.0264555 0)
(-0.0789733 0.0250397 0)
(-0.0885775 0.0226688 0)
(-0.0970098 0.0193279 0)
(-0.103916 0.0150288 0)
(-0.108959 0.00983607 0)
(-0.111843 0.00388628 0)
(-0.112331 -0.00259998 0)
(-0.110278 -0.00931734 0)
(-0.105649 -0.0158841 0)
(-0.0985474 -0.0218654 0)
(-0.0892262 -0.0268079 0)
(-0.0780974 -0.0302857 0)
(-0.0657219 -0.0319555 0)
(-0.0527824 -0.0316126 0)
(-0.0400347 -0.0292418 0)
(-0.0282377 -0.0250516 0)
(-0.0180695 -0.0194859 0)
(-0.0100373 -0.0132117 0)
(-0.00439273 -0.00708542 0)
(-0.00111519 -0.00210834 0)
(-2.51104e-05 0.000555344 0)
(-0.000660006 0.00432595 0)
(-0.00422664 0.0133728 0)
(-0.0113755 0.021469 0)
(-0.0207637 0.0280656 0)
(-0.0317083 0.0330271 0)
(-0.0437268 0.0363992 0)
(-0.0563716 0.0382932 0)
(-0.0692339 0.0388114 0)
(-0.0819303 0.0380108 0)
(-0.0940827 0.0359004 0)
(-0.105308 0.0324613 0)
(-0.115219 0.0276777 0)
(-0.123429 0.0215724 0)
(-0.129565 0.014238 0)
(-0.133293 0.00586123 0)
(-0.134334 -0.00326224 0)
(-0.132494 -0.012726 0)
(-0.127691 -0.0220214 0)
(-0.119984 -0.030565 0)
(-0.109593 -0.0377394 0)
(-0.0969213 -0.0429516 0)
(-0.0825556 -0.045705 0)
(-0.0672482 -0.0456783 0)
(-0.051871 -0.0428004 0)
(-0.0373405 -0.0373073 0)
(-0.0245192 -0.0297649 0)
(-0.0141009 -0.021053 0)
(-0.0064977 -0.0123096 0)
(-0.00183052 -0.00484737 0)
(-0.000115518 -0.000129772 0)
(-0.000813842 0.00678795 0)
(-0.00509639 0.0195747 0)
(-0.0135559 0.0304556 0)
(-0.0245265 0.0390651 0)
(-0.0371805 0.0454117 0)
(-0.0509643 0.0496486 0)
(-0.0653854 0.051959 0)
(-0.0800081 0.0524858 0)
(-0.0944315 0.0513025 0)
(-0.108263 0.0484187 0)
(-0.121106 0.0438097 0)
(-0.132554 0.0374564 0)
(-0.142196 0.0293877 0)
(-0.149631 0.0197178 0)
(-0.154479 0.00867598 0)
(-0.15641 -0.00337547 0)
(-0.155162 -0.0159358 0)
(-0.150575 -0.028372 0)
(-0.142631 -0.0399456 0)
(-0.13148 -0.049858 0)
(-0.11748 -0.0573173 0)
(-0.101214 -0.061629 0)
(-0.083487 -0.0623015 0)
(-0.0652925 -0.0591542 0)
(-0.0477314 -0.0524068 0)
(-0.0318985 -0.0427257 0)
(-0.0187345 -0.0312098 0)
(-0.00887043 -0.0193099 0)
(-0.00261321 -0.00869736 0)
(-0.000204574 -0.00118816 0)
(-0.000949756 0.00969276 0)
(-0.0058706 0.0267999 0)
(-0.0155059 0.0408178 0)
(-0.0279037 0.051635 0)
(-0.0421067 0.0594612 0)
(-0.0574986 0.0645986 0)
(-0.07355 0.0673291 0)
(-0.0898074 0.0678516 0)
(-0.105864 0.0662627 0)
(-0.121325 0.0625746 0)
(-0.135791 0.0567546 0)
(-0.148848 0.0487747 0)
(-0.160073 0.038661 0)
(-0.169034 0.0265376 0)
(-0.175309 0.0126605 0)
(-0.178501 -0.00255784 0)
(-0.178267 -0.0185357 0)
(-0.174343 -0.034527 0)
(-0.166596 -0.0496384 0)
(-0.155069 -0.062874 0)
(-0.14003 -0.073209 0)
(-0.122019 -0.0796967 0)
(-0.101865 -0.081604 0)
(-0.0806769 -0.0785631 0)
(-0.0597616 -0.0707089 0)
(-0.0404985 -0.0587667 0)
(-0.024148 -0.044053 0)
(-0.0116352 -0.0283718 0)
(-0.0035147 -0.0138223 0)
(-0.000302422 -0.00266037 0)
(-0.00106499 0.0129842 0)
(-0.00653015 0.0349226 0)
(-0.0171742 0.0523932 0)
(-0.0308053 0.0655984 0)
(-0.0463575 0.0749982 0)
(-0.0631626 0.0810815 0)
(-0.0806638 0.0842548 0)
(-0.098399 0.0847885 0)
(-0.115965 0.0828111 0)
(-0.132976 0.0783395 0)
(-0.149043 0.0713306 0)
(-0.163756 0.06174 0)
(-0.176685 0.0495792 0)
(-0.187378 0.034965 0)
(-0.195369 0.0181592 0)
(-0.200195 -0.000399078 0)
(-0.201413 -0.0200708 0)
(-0.198642 -0.0400157 0)
(-0.191604 -0.0591935 0)
(-0.18019 -0.0764029 0)
(-0.164528 -0.0903545 0)
(-0.145059 -0.0997894 0)
(-0.122594 -0.103647 0)
(-0.0983215 -0.101267 0)
(-0.0737636 -0.0925973 0)
(-0.0506301 -0.0783501 0)
(-0.0305846 -0.06004 0)
(-0.0149437 -0.039868 0)
(-0.0045985 -0.0204552 0)
(-0.000421124 -0.00461913 0)
(-0.00115561 0.0165953 0)
(-0.00705368 0.0437914 0)
(-0.018508 0.064985 0)
(-0.0331407 0.0807394 0)
(-0.0498008 0.0918051 0)
(-0.0677805 0.0988893 0)
(-0.0865047 0.102547 0)
(-0.105511 0.103135 0)
(-0.124409 0.100825 0)
(-0.142832 0.0956392 0)
(-0.160412 0.0875235 0)
(-0.176754 0.0764092 0)
(-0.191434 0.0622794 0)
(-0.20399 0.0452238 0)
(-0.213922 0.0254856 0)
(-0.220701 0.00350078 0)
(-0.223792 -0.0200687 0)
(-0.222682 -0.0443134 0)
(-0.216927 -0.0680675 0)
(-0.206228 -0.0899296 0)
(-0.190521 -0.108324 0)
(-0.170081 -0.121625 0)
(-0.145619 -0.128347 0)
(-0.118349 -0.127406 0)
(-0.0899762 -0.118421 0)
(-0.0625719 -0.101966 0)
(-0.0382888 -0.0797021 0)
(-0.0189577 -0.0542629 0)
(-0.0059338 -0.0289074 0)
(-0.000573591 -0.0071734 0)
(-0.00121729 0.020447 0)
(-0.00741969 0.0532292 0)
(-0.0194561 0.078362 0)
(-0.0348223 0.0968024 0)
(-0.0523068 0.10962 0)
(-0.0711744 0.117765 0)
(-0.0908396 0.121961 0)
(-0.110847 0.122669 0)
(-0.130824 0.12011 0)
(-0.150434 0.11432 0)
(-0.169338 0.105231 0)
(-0.18717 0.0927432 0)
(-0.203527 0.0767986 0)
(-0.217951 0.0574401 0)
(-0.229925 0.0348656 0)
(-0.238875 0.00947545 0)
(-0.244183 -0.018083 0)
(-0.24521 -0.0468705 0)
(-0.241342 -0.0756328 0)
(-0.232066 -0.102793 0)
(-0.21707 -0.12649 0)
(-0.196382 -0.14469 0)
(-0.170515 -0.15539 0)
(-0.140603 -0.156932 0)
(-0.108463 -0.148409 0)
(-0.0765147 -0.130074 0)
(-0.0474757 -0.103615 0)
(-0.0238365 -0.0721042 0)
(-0.00759235 -0.0395698 0)
(-0.000773561 -0.0104701 0)
(-0.00124618 0.0244489 0)
(-0.00760983 0.0630353 0)
(-0.0199752 0.0922617 0)
(-0.0357743 0.113493 0)
(-0.0537602 0.128134 0)
(-0.0731799 0.137397 0)
(-0.0934436 0.142189 0)
(-0.114106 0.14309 0)
(-0.134821 0.140382 0)
(-0.155285 0.134121 0)
(-0.175199 0.124227 0)
(-0.194239 0.110566 0)
(-0.212038 0.0930273 0)
(-0.228164 0.0715909 0)
(-0.242109 0.0463846 0)
(-0.253284 0.0177405 0)
(-0.261014 -0.0137474 0)
(-0.264564 -0.0471616 0)
(-0.263161 -0.0812135 0)
(-0.25607 -0.114201 0)
(-0.242694 -0.144009 0)
(-0.222732 -0.16819 0)
(-0.196381 -0.184149 0)
(-0.164547 -0.189498 0)
(-0.129022 -0.182567 0)
(-0.0924979 -0.163016 0)
(-0.0582971 -0.132343 0)
(-0.0297245 -0.0940004 0)
(-0.00964655 -0.0529086 0)
(-0.00103598 -0.0146951 0)
(-0.00123985 0.0285018 0)
(-0.00761275 0.0729907 0)
(-0.0200374 0.106396 0)
(-0.0359452 0.130486 0)
(-0.0540761 0.146999 0)
(-0.0736667 0.157419 0)
(-0.0941267 0.162853 0)
(-0.115024 0.164011 0)
(-0.136039 0.161251 0)
(-0.156907 0.154656 0)
(-0.177377 0.144141 0)
(-0.197181 0.129536 0)
(-0.216005 0.110675 0)
(-0.233467 0.0874623 0)
(-0.249103 0.0599382 0)
(-0.262342 0.0283383 0)
(-0.272504 -0.00683812 0)
(-0.278796 -0.0447534 0)
(-0.28033 -0.08415 0)
(-0.276165 -0.123279 0)
(-0.265405 -0.159847 0)
(-0.247359 -0.19103 0)
(-0.221781 -0.213619 0)
(-0.189171 -0.224358 0)
(-0.151087 -0.220553 0)
(-0.110335 -0.200903 0)
(-0.0707984 -0.166364 0)
(-0.0367348 -0.120581 0)
(-0.0121672 -0.0694543 0)
(-0.00137751 -0.0200735 0)
(-0.0011982 0.0325025 0)
(-0.00742828 0.0828686 0)
(-0.0196399 0.120464 0)
(-0.0353216 0.147429 0)
(-0.0532193 0.165827 0)
(-0.0725638 0.177415 0)
(-0.0927656 0.183508 0)
(-0.113406 0.184962 0)
(-0.134192 0.182221 0)
(-0.154903 0.175411 0)
(-0.175342 0.164449 0)
(-0.195307 0.149136 0)
(-0.214555 0.129252 0)
(-0.232783 0.104625 0)
(-0.249601 0.0751953 0)
(-0.264507 0.0410821 0)
(-0.276866 0.00265416 0)
(-0.285891 -0.0393856 0)
(-0.290636 -0.0838891 0)
(-0.29001 -0.129165 0)
(-0.28284 -0.172853 0)
(-0.268017 -0.21186 0)
(-0.24475 -0.242404 0)
(-0.212942 -0.260291 0)
(-0.173656 -0.261547 0)
(-0.129535 -0.243472 0)
(-0.0848667 -0.205949 0)
(-0.0449282 -0.152433 0)
(-0.0152198 -0.0897808 0)
(-0.001817 -0.0268685 0)
(-0.00112432 0.0363515 0)
(-0.00707155 0.0924478 0)
(-0.0188138 0.134164 0)
(-0.0339432 0.163963 0)
(-0.0512247 0.184212 0)
(-0.0698851 0.196932 0)
(-0.089336 0.203655 0)
(-0.109171 0.205396 0)
(-0.129127 0.202701 0)
(-0.149026 0.195755 0)
(-0.168734 0.184488 0)
(-0.188123 0.168686 0)
(-0.20704 0.148084 0)
(-0.225282 0.122438 0)
(-0.242567 0.0915907 0)
(-0.258506 0.055534 0)
(-0.272568 0.014481 0)
(-0.284038 -0.031045 0)
(-0.291996 -0.0800844 0)
(-0.295281 -0.131123 0)
(-0.292509 -0.181888 0)
(-0.28218 -0.229177 0)
(-0.262909 -0.268777 0)
(-0.233837 -0.295583 0)
(-0.19524 -0.30416 0)
(-0.14923 -0.289941 0)
(-0.100171 -0.25103 0)
(-0.0542854 -0.190016 0)
(-0.0188593 -0.114474 0)
(-0.00237589 -0.0353792 0)
(-0.00102519 0.0399617 0)
(-0.00657698 0.101532 0)
(-0.0176337 0.147219 0)
(-0.0319171 0.179744 0)
(-0.048216 0.201742 0)
(-0.0657532 0.215495 0)
(-0.0839418 0.222756 0)
(-0.10239 0.224712 0)
(-0.120865 0.222031 0)
(-0.139238 0.214968 0)
(-0.157441 0.20349 0)
(-0.175429 0.187381 0)
(-0.193153 0.166348 0)
(-0.210528 0.140087 0)
(-0.227408 0.108355 0)
(-0.243555 0.0710196 0)
(-0.25859 0.0281292 0)
(-0.271936 -0.0200074 0)
(-0.282785 -0.0726854 0)
(-0.290018 -0.128686 0)
(-0.292141 -0.185987 0)
(-0.287353 -0.241505 0)
(-0.273702 -0.290825 0)
(-0.24948 -0.328102 0)
(-0.213913 -0.346405 0)
(-0.168141 -0.338888 0)
(-0.116105 -0.301036 0)
(-0.0646733 -0.233545 0)
(-0.0231234 -0.144083 0)
(-0.00307862 -0.0459353 0)
(-0.000912509 0.0432705 0)
(-0.00600237 0.109973 0)
(-0.0162265 0.159402 0)
(-0.029431 0.19446 0)
(-0.0444225 0.218024 0)
(-0.060418 0.232629 0)
(-0.0768363 0.240257 0)
(-0.0933064 0.242281 0)
(-0.109633 0.239509 0)
(-0.125742 0.232286 0)
(-0.141638 0.220631 0)
(-0.157371 0.204348 0)
(-0.173001 0.183133 0)
(-0.188575 0.156646 0)
(-0.2041 0.124574 0)
(-0.219509 0.0866777 0)
(-0.234617 0.0428512 0)
(-0.249028 -0.00682144 0)
(-0.262136 -0.0619907 0)
(-0.272965 -0.121762 0)
(-0.280049 -0.184542 0)
(-0.281435 -0.247613 0)
(-0.27473 -0.306682 0)
(-0.257395 -0.355486 0)
(-0.227441 -0.38577 0)
(-0.184604 -0.388188 0)
(-0.131754 -0.354746 0)
(-0.0758136 -0.282849 0)
(-0.0280262 -0.179059 0)
(-0.00395392 -0.0588892 0)
(-0.000803735 0.0462537 0)
(-0.0054341 0.117698 0)
(-0.0147818 0.170563 0)
(-0.0267669 0.207867 0)
(-0.0401924 0.232709 0)
(-0.0542689 0.247882 0)
(-0.0684314 0.255613 0)
(-0.0823448 0.257476 0)
(-0.0958653 0.254432 0)
(-0.108988 0.246939 0)
(-0.1218 0.235084 0)
(-0.13445 0.21871 0)
(-0.147115 0.197522 0)
(-0.159979 0.171163 0)
(-0.173203 0.139273 0)
(-0.186897 0.101529 0)
(-0.201077 0.0576823 0)
(-0.215624 0.00759934 0)
(-0.230127 -0.0486853 0)
(-0.243808 -0.110712 0)
(-0.25543 -0.177436 0)
(-0.263075 -0.246737 0)
(-0.264111 -0.314804 0)
(-0.255329 -0.375419 0)
(-0.233513 -0.419428 0)
(-0.196672 -0.435067 0)
(-0.145895 -0.410183 0)
(-0.0872573 -0.337222 0)
(-0.033556 -0.219677 0)
(-0.00503814 -0.074608 0)
(-0.000724419 0.0489422 0)
(-0.00499565 0.124746 0)
(-0.0135668 0.180672 0)
(-0.0243156 0.219813 0)
(-0.0360038 0.245511 0)
(-0.0478389 0.260844 0)
(-0.0592945 0.268304 0)
(-0.0700994 0.269688 0)
(-0.0801885 0.266125 0)
(-0.0896444 0.258197 0)
(-0.0986528 0.246072 0)
(-0.107468 0.229648 0)
(-0.116386 0.208655 0)
(-0.125723 0.182739 0)
(-0.135793 0.151514 0)
(-0.146875 0.114594 0)
(-0.159183 0.0716129 0)
(-0.172816 0.0222466 0)
(-0.187636 -0.0337169 0)
(-0.203174 -0.0963149 0)
(-0.218478 -0.165105 0)
(-0.231869 -0.23874 0)
(-0.240757 -0.314236 0)
(-0.241558 -0.385964 0)
(-0.230015 -0.44454 0)
(-0.202287 -0.476277 0)
(-0.157043 -0.46459 0)
(-0.0983728 -0.395273 0)
(-0.0396811 -0.265944 0)
(-0.00638345 -0.0934702 0)
(-0.000713584 0.0514468 0)
(-0.00486417 0.131307 0)
(-0.0129491 0.189846 0)
(-0.0225975 0.230261 0)
(-0.032474 0.25622 0)
(-0.0417994 0.271149 0)
(-0.0501277 0.277845 0)
(-0.0572987 0.278345 0)
(-0.063366 0.273958 0)
(-0.06853 0.26539 0)
(-0.0730913 0.252901 0)
(-0.0774191 0.236445 0)
(-0.0819262 0.215789 0)
(-0.0870513 0.190595 0)
(-0.0932431 0.160471 0)
(-0.100931 0.124985 0)
(-0.110497 0.0836926 0)
(-0.12224 0.0361247 0)
(-0.136285 -0.0181927 0)
(-0.152485 -0.0796816 0)
(-0.170258 -0.148504 0)
(-0.18834 -0.224167 0)
(-0.204467 -0.304784 0)
(-0.215073 -0.385856 0)
(-0.215249 -0.458615 0)
(-0.19946 -0.508384 0)
(-0.163533 -0.514509 0)
(-0.108344 -0.454813 0)
(-0.0463655 -0.317492 0)
(-0.00807432 -0.115876 0)
(-0.000836038 0.0539967 0)
(-0.00530293 0.137778 0)
(-0.0134363 0.198394 0)
(-0.0222897 0.239306 0)
(-0.0303646 0.264699 0)
(-0.03694 0.278468 0)
(-0.041724 0.283772 0)
(-0.044739 0.282903 0)
(-0.0462135 0.277343 0)
(-0.0465034 0.267917 0)
(-0.046045 0.254965 0)
(-0.0453278 0.238497 0)
(-0.0448752 0.218312 0)
(-0.0452299 0.194092 0)
(-0.0469579 0.165455 0)
(-0.0506047 0.131928 0)
(-0.05668 0.0930238 0)
(-0.0656544 0.0481692 0)
(-0.0778741 -0.00330867 0)
(-0.0934887 -0.0621311 0)
(-0.112325 -0.128978 0)
(-0.133642 -0.204179 0)
(-0.155756 -0.287059 0)
(-0.175552 -0.37469 0)
(-0.188019 -0.459822 0)
(-0.186387 -0.528104 0)
(-0.163578 -0.555966 0)
(-0.116158 -0.512766 0)
(-0.053584 -0.373453 0)
(-0.0102563 -0.14228 0)
(-0.00120884 0.0570081 0)
(-0.00672237 0.144845 0)
(-0.0157383 0.206847 0)
(-0.0242567 0.247159 0)
(-0.0305669 0.270846 0)
(-0.0341108 0.282466 0)
(-0.0348724 0.285605 0)
(-0.033158 0.282811 0)
(-0.0294432 0.275713 0)
(-0.0242813 0.265223 0)
(-0.0182635 0.251737 0)
(-0.0120017 0.235297 0)
(-0.0061176 0.215731 0)
(-0.00122931 0.192729 0)
(0.00199663 0.165899 0)
(0.00293313 0.134779 0)
(0.000996019 0.0988358 0)
(-0.00442875 0.0574292 0)
(-0.013857 0.00978328 0)
(-0.0276874 -0.0450356 0)
(-0.0461403 -0.108085 0)
(-0.0690368 -0.180369 0)
(-0.0954484 -0.262369 0)
(-0.123095 -0.352955 0)
(-0.147507 -0.447198 0)
(-0.161424 -0.532612 0)
(-0.155257 -0.584687 0)
(-0.120533 -0.565126 0)
(-0.0613053 -0.432283 0)
(-0.0131747 -0.173261 0)
(-0.00205495 0.0612123 0)
(-0.00978595 0.153578 0)
(-0.0208449 0.215961 0)
(-0.0295506 0.254084 0)
(-0.0340129 0.274507 0)
(-0.0340549 0.282712 0)
(-0.0301277 0.28277 0)
(-0.022956 0.277447 0)
(-0.0133432 0.26846 0)
(-0.00208015 0.256745 0)
(0.0100755 0.2427 0)
(0.0223978 0.226374 0)
(0.0341846 0.207591 0)
(0.0447488 0.186043 0)
(0.0533917 0.16132 0)
(0.0594337 0.132979 0)
(0.0622134 0.100455 0)
(0.0610524 0.0630809 0)
(0.0552992 0.0200445 0)
(0.0443361 -0.0296926 0)
(0.0276125 -0.0873991 0)
(0.00477268 -0.154528 0)
(-0.0240704 -0.232489 0)
(-0.0577564 -0.321903 0)
(-0.0929528 -0.420683 0)
(-0.122878 -0.519741 0)
(-0.136348 -0.596316 0)
(-0.119737 -0.606909 0)
(-0.069365 -0.491473 0)
(-0.0171994 -0.209593 0)
(-0.00380538 0.0678955 0)
(-0.015572 0.165554 0)
(-0.0300678 0.226633 0)
(-0.0392592 0.260211 0)
(-0.0413403 0.275264 0)
(-0.0369282 0.278492 0)
(-0.0272226 0.274443 0)
(-0.0135266 0.265996 0)
(0.00295013 0.254832 0)
(0.0211522 0.241814 0)
(0.0401612 0.227271 0)
(0.0591581 0.211203 0)
(0.0773874 0.193404 0)
(0.0941302 0.173548 0)
(0.108679 0.151226 0)
(0.120334 0.125976 0)
(0.128394 0.0972458 0)
(0.132134 0.0643763 0)
(0.130803 0.0265591 0)
(0.123609 -0.0172383 0)
(0.109729 -0.0683351 0)
(0.0883499 -0.12838 0)
(0.0588204 -0.199367 0)
(0.021072 -0.283331 0)
(-0.0231549 -0.381034 0)
(-0.0686179 -0.488119 0)
(-0.103975 -0.586595 0)
(-0.111185 -0.632066 0)
(-0.0770831 -0.54704 0)
(-0.0227501 -0.252174 0)
(-0.0072736 0.0793334 0)
(-0.0257577 0.182902 0)
(-0.0448336 0.239572 0)
(-0.0538321 0.26508 0)
(-0.0518416 0.272015 0)
(-0.0409838 0.268461 0)
(-0.0235776 0.259278 0)
(-0.00166401 0.247229 0)
(0.023095 0.233764 0)
(0.0493911 0.219529 0)
(0.076181 0.204691 0)
(0.102597 0.18914 0)
(0.127876 0.172607 0)
(0.151313 0.154732 0)
(0.17222 0.135099 0)
(0.18991 0.113246 0)
(0.203673 0.0886448 0)
(0.212755 0.0606795 0)
(0.216331 0.0286015 0)
(0.213471 -0.00853667 0)
(0.203141 -0.0519712 0)
(0.184161 -0.103313 0)
(0.155251 -0.164755 0)
(0.115282 -0.239196 0)
(0.0641083 -0.329785 0)
(0.00446025 -0.437376 0)
(-0.0539894 -0.551652 0)
(-0.0906665 -0.633371 0)
(-0.0823991 -0.592688 0)
(-0.0299193 -0.301692 0)
(-0.0138644 0.0994824 0)
(-0.042557 0.20795 0)
(-0.0654931 0.254373 0)
(-0.0708123 0.266675 0)
(-0.0605023 0.262159 0)
(-0.0392458 0.250043 0)
(-0.0108443 0.234999 0)
(0.021866 0.219257 0)
(0.056838 0.203745 0)
(0.0926184 0.18871 0)
(0.128149 0.17405 0)
(0.162609 0.159488 0)
(0.195312 0.144664 0)
(0.225629 0.129176 0)
(0.252947 0.112603 0)
(0.27663 0.0945002 0)
(0.295999 0.0743893 0)
(0.310297 0.0517285 0)
(0.318662 0.0258777 0)
(0.320061 -0.00396282 0)
(0.313318 -0.0388303 0)
(0.296998 -0.0801332 0)
(0.269369 -0.129914 0)
(0.228467 -0.191288 0)
(0.172465 -0.268916 0)
(0.101085 -0.368225 0)
(0.0200626 -0.488575 0)
(-0.0508896 -0.602525 0)
(-0.080354 -0.618957 0)
(-0.0374844 -0.358492 0)
(-0.0254058 0.134954 0)
(-0.0670726 0.24095 0)
(-0.0865565 0.266599 0)
(-0.078083 0.258998 0)
(-0.0505704 0.239949 0)
(-0.0122041 0.218466 0)
(0.0318446 0.197955 0)
(0.07832 0.17944 0)
(0.125186 0.162964 0)
(0.171181 0.148197 0)
(0.215494 0.134689 0)
(0.257547 0.121969 0)
(0.296873 0.109583 0)
(0.333027 0.0971005 0)
(0.365548 0.0841154 0)
(0.393917 0.0702312 0)
(0.417537 0.0550442 0)
(0.435704 0.03812 0)
(0.447568 0.0189626 0)
(0.452076 -0.00303864 0)
(0.447998 -0.0286078 0)
(0.433753 -0.0588555 0)
(0.407364 -0.095433 0)
(0.366349 -0.141078 0)
(0.307636 -0.200683 0)
(0.228046 -0.282506 0)
(0.12808 -0.395592 0)
(0.020878 -0.531041 0)
(-0.0608827 -0.612642 0)
(-0.0408267 -0.421882 0)
(-0.0413246 0.197127 0)
(-0.0902605 0.272528 0)
(-0.0798327 0.259232 0)
(-0.0361072 0.226488 0)
(0.0219692 0.193789 0)
(0.0846601 0.165884 0)
(0.147362 0.143245 0)
(0.207844 0.125042 0)
(0.265095 0.110224 0)
(0.318719 0.0978692 0)
(0.368586 0.0872351 0)
(0.414645 0.0777278 0)
(0.456826 0.0688653 0)
(0.494998 0.0602479 0)
(0.528934 0.0515329 0)
(0.558304 0.0424139 0)
(0.582656 0.0326012 0)
(0.601404 0.0218008 0)
(0.613785 0.00968888 0)
(0.618888 -0.00413684 0)
(0.615534 -0.0200716 0)
(0.602141 -0.038831 0)
(0.576748 -0.0615111 0)
(0.53671 -0.0900432 0)
(0.478312 -0.128298 0)
(0.396254 -0.184468 0)
(0.285215 -0.273846 0)
(0.146076 -0.410555 0)
(-0.00333407 -0.554035 0)
(-0.025371 -0.477543 0)
(-0.0341669 0.293658 0)
(-0.0480047 0.27247 0)
(0.0535918 0.199449 0)
(0.156674 0.149682 0)
(0.249712 0.11497 0)
(0.332141 0.0901802 0)
(0.404858 0.0726084 0)
(0.469024 0.060022 0)
(0.525883 0.050716 0)
(0.576542 0.0435451 0)
(0.621855 0.0377604 0)
(0.662421 0.0328539 0)
(0.698621 0.0284651 0)
(0.730644 0.0243275 0)
(0.758512 0.0202344 0)
(0.782099 0.0160166 0)
(0.801135 0.0115262 0)
(0.815216 0.00662658 0)
(0.823728 0.00117592 0)
(0.826062 -0.00489844 0)
(0.821271 -0.0119216 0)
(0.808065 -0.0201658 0)
(0.784838 -0.0300981 0)
(0.749281 -0.0426529 0)
(0.697797 -0.0598814 0)
(0.624288 -0.0868726 0)
(0.518482 -0.137155 0)
(0.36515 -0.240257 0)
(0.144144 -0.406968 0)
(0.0588726 -0.458304 0)
(0.303195 0.180889 0)
(0.382359 0.1442 0)
(0.560498 0.0910443 0)
(0.686221 0.0589313 0)
(0.768954 0.0393428 0)
(0.828709 0.0268942 0)
(0.874824 0.0190185 0)
(0.911637 0.014037 0)
(0.94184 0.0108033 0)
(0.967226 0.00860483 0)
(0.988931 0.00701849 0)
(1.00765 0.00579014 0)
(1.02379 0.00476187 0)
(1.03757 0.00383193 0)
(1.04907 0.00293156 0)
(1.05828 0.00201135 0)
(1.06506 0.00103187 0)
(1.06925 -3.67056e-05 0)
(1.0706 -0.00123002 0)
(1.06875 -0.00246671 0)
(1.06319 -0.00393539 0)
(1.05345 -0.00567293 0)
(1.03874 -0.00775619 0)
(1.01789 -0.0103938 0)
(0.988832 -0.0140857 0)
(0.947449 -0.0201769 0)
(0.88393 -0.0325612 0)
(0.776329 -0.0637404 0)
(0.544816 -0.139459 0)
(0.38249 -0.201734 0)
)
;

boundaryField
{
    movingWall
    {
        type            fixedValue;
        value           uniform (1.2 0 0);
    }
    fixedWalls
    {
        type            noSlip;
    }
    frontAndBack
    {
        type            empty;
    }
}


// ************************************************************************* //
