/*--------------------------------*- C++ -*----------------------------------*\
  =========                 |
  \\      /  F ield         | OpenFOAM: The Open Source CFD Toolbox
   \\    /   O peration     | Website:  https://openfoam.org
    \\  /    A nd           | Version:  7
     \\/     M anipulation  |
\*---------------------------------------------------------------------------*/
FoamFile
{
    version     2.0;
    format      ascii;
    class       volScalarField;
    location    "3";
    object      p;
}
// * * * * * * * * * * * * * * * * * * * * * * * * * * * * * * * * * * * * * //

dimensions      [0 2 -2 0 0 0 0];

internalField   nonuniform List<scalar> 
900
(
-1.10296e-08
-0.000258622
-0.000629751
-0.000973005
-0.001226
-0.00134405
-0.00130678
-0.00110771
-0.000746708
-0.000226627
0.000447685
0.00126887
0.00222563
0.00330089
0.00447002
0.0056996
0.00694718
0.00816227
0.00928908
0.0102708
0.0110555
0.0116022
0.0118876
0.0119114
0.0116989
0.0113031
0.0108019
0.0102807
0.00987753
0.00969867
0.000255479
-8.40404e-06
-0.000278623
-0.000513694
-0.000672067
-0.00072141
-0.000644818
-0.000434848
-8.90572e-05
0.000391865
0.00100465
0.00174308
0.00259698
0.0035509
0.00458281
0.00566317
0.00675602
0.00781771
0.00880135
0.00965978
0.0103504
0.0108408
0.0111136
0.0111708
0.0110358
0.0107527
0.0103836
0.0100018
0.00969006
0.00951908
0.000637733
0.000253245
-2.50319e-05
-0.000229407
-0.000351781
-0.000371207
-0.000276919
-6.43672e-05
0.000268296
0.000721004
0.00129172
0.00197584
0.00276514
0.00364645
0.00460048
0.00560101
0.00661479
0.00760212
0.00851944
0.00932257
0.00997142
0.0104352
0.0106975
0.0107602
0.0106445
0.0103902
0.0100521
0.00969418
0.00937473
0.00912243
0.00100532
0.00047679
0.000148586
-6.31315e-05
-0.000179417
-0.000189949
-9.10652e-05
0.000117392
0.000435503
0.00086324
0.00139978
0.00204252
0.00278578
0.00361925
0.00452655
0.00548412
0.00646091
0.00741856
0.00831392
0.00910206
0.00974119
0.0101983
0.0104544
0.0105092
0.0103819
0.0101101
0.00974604
0.00935071
0.00896738
0.00859218
0.00128323
0.000604297
0.000212699
-2.25153e-05
-0.000147676
-0.000161584
-6.72664e-05
0.000131034
0.000431546
0.000834289
0.00133984
0.00194797
0.00265599
0.00345687
0.00433735
0.00527629
0.00624496
0.00720462
0.00811071
0.00891514
0.00957146
0.0100413
0.0103005
0.0103445
0.0101901
0.00987395
0.00944919
0.00897924
0.00849963
0.00798216
0.0014018
0.000577751
0.000118137
-0.00014974
-0.00029391
-0.000320743
-0.000239072
-5.69805e-05
0.000222247
0.000598953
0.00107543
0.00165421
0.00233603
0.00311763
0.00398918
0.0049319
0.00592057
0.00691385
0.00786466
0.00871962
0.00942476
0.00993299
0.0102118
0.01025
0.0100607
0.00968035
0.00916624
0.00858956
0.00798555
0.007308
0.00130786
0.000348241
-0.000179357
-0.00048464
-0.000654526
-0.000701731
-0.000639969
-0.000480464
-0.0002275
0.000120007
0.00056648
0.00111767
0.00177834
0.00254963
0.0034263
0.00439416
0.00542529
0.00648222
0.00751301
0.00845675
0.00924908
0.00983044
0.0101558
0.0102033
0.00998035
0.0095232
0.00889572
0.00818229
0.00742439
0.00656209
0.000958162
-0.000126844
-0.000720106
-0.00106488
-0.00126507
-0.00133895
-0.00130438
-0.00117506
-0.000955783
-0.000644278
-0.000233555
0.000285918
0.00092366
0.00168619
0.00257384
0.00357725
0.00467193
0.00582052
0.00696737
0.0080431
0.00897011
0.00967191
0.0100852
0.0101722
0.00992984
0.00939245
0.00863236
0.0077524
0.00680588
0.00572039
0.000314716
-0.000886103
-0.00154206
-0.00192746
-0.00216201
-0.00226909
-0.00227023
-0.0021812
-0.00200691
-0.0017436
-0.00138133
-0.000906209
-0.00030308
0.000441359
0.00133481
0.00237495
0.00354379
0.00480625
0.00610454
0.00736082
0.00848172
0.0093686
0.00993243
0.0101108
0.00988241
0.00927511
0.00836982
0.00729312
0.00611524
0.00474963
-0.000657081
-0.00196479
-0.00268061
-0.00310795
-0.00338149
-0.00352964
-0.00357746
-0.00354262
-0.00343006
-0.00323446
-0.00294275
-0.00253626
-0.00199322
-0.00129188
-0.000414535
0.000647153
0.0018854
0.0032729
0.00475323
0.00624205
0.00762897
0.00878768
0.00959367
0.00994718
0.00979596
0.00915161
0.00810074
0.00679866
0.0053378
0.00361353
-0.00198881
-0.00339484
-0.00416814
-0.00463944
-0.00495787
-0.00515706
-0.00526577
-0.00530379
-0.00527645
-0.00517716
-0.00498993
-0.00469116
-0.00425168
-0.0036395
-0.00282373
-0.00178054
-0.000501345
0.00100249
0.0026825
0.00445347
0.00618947
0.00773194
0.00890925
0.00956666
0.00960068
0.00898908
0.00781526
0.00626658
0.0044636
0.00227835
-0.00370864
-0.00520455
-0.00603345
-0.00655159
-0.0069222
-0.00718458
-0.0073718
-0.00750646
-0.00759506
-0.00763067
-0.00759517
-0.00746044
-0.00718959
-0.00673879
-0.00606053
-0.00510931
-0.00385074
-0.00227329
-0.000402026
0.00168694
0.00385838
0.00592012
0.00764158
0.0087905
0.00918226
0.00873106
0.00749764
0.00569987
0.00349256
0.000719028
-0.00584038
-0.00741793
-0.00830095
-0.00886939
-0.00930029
-0.00963949
-0.00992537
-0.0101846
-0.0104263
-0.0106447
-0.0108212
-0.0109246
-0.0109106
-0.0107226
-0.0102935
-0.00954951
-0.00842035
-0.00685755
-0.00484581
-0.00243444
0.000246294
0.00297618
0.00545733
0.00735464
0.00836204
0.00828363
0.00712063
0.00510881
0.00244107
-0.00107286
-0.00840239
-0.0100541
-0.01099
-0.0116119
-0.0121106
-0.0125397
-0.0129447
-0.0133579
-0.0137933
-0.0142488
-0.0147077
-0.0151379
-0.0154898
-0.0156942
-0.0156619
-0.0152859
-0.0144499
-0.0130473
-0.0110061
-0.00832185
-0.00509525
-0.00155759
0.00192703
0.00489824
0.00688026
0.00750088
0.00663883
0.00451378
0.00135141
-0.00307713
-0.0114067
-0.013127
-0.0141144
-0.014791
-0.0153618
-0.0158902
-0.0164308
-0.0170244
-0.0176924
-0.0184395
-0.0192544
-0.0201076
-0.0209471
-0.0216935
-0.0222348
-0.0224263
-0.0220966
-0.0210646
-0.0191786
-0.0163467
-0.0126055
-0.00816545
-0.00343891
0.000978955
0.00439503
0.00617703
0.00598448
0.00395084
0.000306246
-0.00522632
-0.0148586
-0.0166463
-0.0176831
-0.0184112
-0.0190514
-0.0196794
-0.0203622
-0.0211523
-0.022082
-0.0231664
-0.0244036
-0.0257711
-0.0272189
-0.0286604
-0.0299635
-0.0309442
-0.0313699
-0.0309753
-0.029494
-0.0267252
-0.0225956
-0.0172467
-0.0110978
-0.00486293
0.000516598
0.00405891
0.00507296
0.00348355
-0.000549034
-0.00737684
-0.0187582
-0.0206193
-0.0217019
-0.0224702
-0.0231641
-0.0238762
-0.02469
-0.0256738
-0.0268746
-0.0283216
-0.0300266
-0.0319785
-0.0341341
-0.0364048
-0.0386416
-0.040624
-0.0420562
-0.0425784
-0.0417999
-0.039382
-0.0350944
-0.0289528
-0.0213193
-0.0129749
-0.00510193
0.000897714
0.00383029
0.00322695
-0.000972763
-0.0092662
-0.0231033
-0.0250559
-0.0261774
-0.0269607
-0.0276723
-0.028428
-0.0293343
-0.03048
-0.0319307
-0.0337334
-0.0359167
-0.038485
-0.0414062
-0.0445942
-0.0478886
-0.0510366
-0.0536832
-0.0553745
-0.0555861
-0.053842
-0.0497051
-0.0430129
-0.0339926
-0.0234039
-0.0126073
-0.00344167
0.00225815
0.00339207
-0.000578242
-0.0104523
-0.0278965
-0.0299775
-0.0311243
-0.0318751
-0.032537
-0.0332604
-0.0341831
-0.0354203
-0.0370599
-0.0391689
-0.0417952
-0.0449604
-0.0486462
-0.0527721
-0.0571709
-0.0615635
-0.0655426
-0.0685748
-0.0700286
-0.0692091
-0.0655366
-0.0586152
-0.0484591
-0.0356961
-0.0217437
-0.00881223
0.000549798
0.00436154
0.00123457
-0.0102305
-0.0331579
-0.0354308
-0.0365759
-0.0372105
-0.0377104
-0.0382776
-0.0390933
-0.0403056
-0.0420275
-0.044347
-0.0473306
-0.0510169
-0.0554005
-0.0604072
-0.0658651
-0.0714737
-0.0767821
-0.0811859
-0.083948
-0.0842349
-0.0812693
-0.0744257
-0.0634611
-0.0487694
-0.0316702
-0.0145886
-0.000745733
0.00680471
0.00537165
-0.00752148
-0.0389486
-0.0415118
-0.0425999
-0.0429771
-0.0431382
-0.0433641
-0.0438943
-0.0449164
-0.0465695
-0.0489605
-0.0521714
-0.0562534
-0.0612099
-0.0669698
-0.0733544
-0.0800441
-0.0865511
-0.0922114
-0.0962001
-0.0975728
-0.0953794
-0.0887832
-0.0772753
-0.0609525
-0.0408912
-0.0195163
-0.000546403
0.0118291
0.0131652
-0.000718717
-0.0454145
-0.0484042
-0.049321
-0.0492055
-0.0487607
-0.0483849
-0.0483923
-0.0490139
-0.0504118
-0.0527059
-0.0559858
-0.0603074
-0.0656751
-0.072013
-0.0791301
-0.0866843
-0.0941531
-0.100821
-0.105792
-0.108028
-0.106444
-0.100025
-0.0880209
-0.0702246
-0.0473792
-0.0216971
0.002884
0.0211401
0.0265222
0.0125249
-0.0528734
-0.0564435
-0.0569498
-0.0559524
-0.0545097
-0.0531844
-0.0523759
-0.0523544
-0.0532941
-0.0553152
-0.0585028
-0.0629051
-0.0685151
-0.0752414
-0.0828706
-0.091031
-0.099162
-0.106499
-0.112082
-0.114792
-0.113423
-0.106824
-0.0940447
-0.0746047
-0.0488984
-0.0187745
0.0119166
0.037154
0.0481107
0.0356168
-0.0619979
-0.0662232
-0.0658185
-0.063299
-0.060298
-0.05758
-0.0556194
-0.0547023
-0.0549913
-0.0565853
-0.0595456
-0.0638961
-0.0696034
-0.0765473
-0.084479
-0.0929874
-0.101465
-0.109091
-0.114839
-0.117511
-0.115801
-0.108421
-0.0942503
-0.0725764
-0.0434768
-0.00833047
0.0293071
0.0629831
0.0815994
0.0735064
-0.0742193
-0.0787682
-0.0763995
-0.0713194
-0.0659851
-0.0613399
-0.0578725
-0.0558309
-0.0553219
-0.0563884
-0.0590424
-0.063262
-0.0689698
-0.0759998
-0.0840572
-0.0926798
-0.101204
-0.108748
-0.114211
-0.116305
-0.113616
-0.104709
-0.0882898
-0.0634308
-0.0299224
0.011499
0.057592
0.102144
0.131832
0.13316
-0.0926599
-0.095821
-0.0892505
-0.0799668
-0.0712762
-0.0641011
-0.0587977
-0.0554738
-0.0541082
-0.0546388
-0.0569927
-0.0610772
-0.0667524
-0.0737928
-0.081846
-0.0903909
-0.0987033
-0.105834
-0.110604
-0.111633
-0.107371
-0.09622
-0.0766706
-0.0475012
-0.00809779
0.0411444
0.0981576
0.157696
0.204357
0.223425
-0.124226
-0.120234
-0.104907
-0.0889231
-0.0755754
-0.0652432
-0.0578718
-0.0532533
-0.0511264
-0.0512532
-0.0534327
-0.0574749
-0.0631614
-0.0701991
-0.0781734
-0.0865041
-0.0944088
-0.100876
-0.10466
-0.104293
-0.0980672
-0.0842109
-0.0609316
-0.0265913
0.0200231
0.0793645
0.150776
0.230468
0.303668
0.356183
-0.18447
-0.154983
-0.123266
-0.0971435
-0.0775896
-0.0636247
-0.0542621
-0.0486526
-0.0461241
-0.046182
-0.0484616
-0.0526631
-0.0584886
-0.0655832
-0.0734807
-0.0815553
-0.0889808
-0.0947013
-0.0974223
-0.0956237
-0.0874636
-0.0710283
-0.0441636
-0.00467012
0.0496317
0.120774
0.21052
0.317987
0.4322
0.558435
-0.316475
-0.195366
-0.13532
-0.0964921
-0.0709538
-0.0546319
-0.0448054
-0.0395597
-0.0376861
-0.0384575
-0.0414038
-0.0461697
-0.0524255
-0.0597973
-0.0678069
-0.0758213
-0.0830109
-0.0883145
-0.09041
-0.0876853
-0.0785286
-0.0607174
-0.0318513
0.0108
0.0705955
0.152003
0.261423
0.407126
0.595761
0.885421
-0.643175
-0.231326
-0.103626
-0.0613212
-0.0390818
-0.0268396
-0.0214214
-0.0201375
-0.0214437
-0.024671
-0.0295008
-0.0357092
-0.043069
-0.0512894
-0.059962
-0.0685153
-0.0761778
-0.0819529
-0.0846115
-0.0826942
-0.0742995
-0.0573851
-0.0296057
0.011963
0.0712761
0.154694
0.274634
0.459232
0.765551
1.35953
)
;

boundaryField
{
    movingWall
    {
        type            zeroGradient;
    }
    fixedWalls
    {
        type            zeroGradient;
    }
    frontAndBack
    {
        type            empty;
    }
}


// ************************************************************************* //
