/*--------------------------------*- C++ -*----------------------------------*\
  =========                 |
  \\      /  F ield         | OpenFOAM: The Open Source CFD Toolbox
   \\    /   O peration     | Website:  https://openfoam.org
    \\  /    A nd           | Version:  7
     \\/     M anipulation  |
\*---------------------------------------------------------------------------*/
FoamFile
{
    version     2.0;
    format      ascii;
    class       surfaceScalarField;
    location    "3";
    object      phi;
}
// * * * * * * * * * * * * * * * * * * * * * * * * * * * * * * * * * * * * * //

dimensions      [0 3 -1 0 0 0 0];

internalField   nonuniform List<scalar> 
1740
(
4.38262e-07
-4.38252e-07
-1.08768e-07
5.47018e-07
-1.81774e-06
1.70898e-06
-4.51371e-06
2.69597e-06
-7.91708e-06
3.40337e-06
-1.17643e-05
3.84726e-06
-1.5838e-05
4.07362e-06
-1.99641e-05
4.12616e-06
-2.39999e-05
4.03572e-06
-2.78189e-05
3.81907e-06
-3.13004e-05
3.48151e-06
-3.43215e-05
3.02106e-06
-3.67548e-05
2.43333e-06
-3.84715e-05
1.71669e-06
-3.93488e-05
8.77324e-07
-3.92822e-05
-6.66108e-08
-3.82e-05
-1.08226e-06
-3.60807e-05
-2.1193e-06
-3.29681e-05
-3.11252e-06
-2.89823e-05
-3.98585e-06
-2.43228e-05
-4.65944e-06
-1.92634e-05
-5.05946e-06
-1.41345e-05
-5.12892e-06
-9.29689e-06
-4.83757e-06
-5.10758e-06
-4.18932e-06
-1.88062e-06
-3.22696e-06
1.62062e-07
-2.04268e-06
9.71316e-07
-8.09257e-07
6.85453e-07
2.85861e-07
6.85453e-07
-5.3669e-07
9.84265e-08
-3.3149e-06
3.32524e-06
-8.55804e-06
6.9521e-06
-1.5884e-05
1.00219e-05
-2.4781e-05
1.23003e-05
-3.47178e-05
1.37841e-05
-4.52061e-05
1.4562e-05
-5.58182e-05
1.47382e-05
-6.61777e-05
1.43952e-05
-7.59421e-05
1.35835e-05
-8.47852e-05
1.23246e-05
-9.23856e-05
1.06215e-05
-9.84247e-05
8.47245e-06
-0.000102595
5.88654e-06
-0.000104615
2.89798e-06
-0.000104265
-4.17067e-07
-0.000101401
-3.94628e-06
-9.60078e-05
-7.51218e-06
-8.82191e-05
-1.09012e-05
-7.83382e-05
-1.38667e-05
-6.68437e-05
-1.6154e-05
-5.43728e-05
-1.75304e-05
-4.16823e-05
-1.78195e-05
-2.95871e-05
-1.69328e-05
-1.8881e-05
-1.48954e-05
-1.02436e-05
-1.18643e-05
-4.13909e-06
-8.14722e-06
-7.25616e-07
-4.22273e-06
3.41087e-07
-7.80843e-07
1.02654e-06
-1.78107e-06
1.8795e-06
-7.23705e-06
8.78123e-06
-1.60554e-05
1.57705e-05
-2.76684e-05
2.16349e-05
-4.13825e-05
2.60145e-05
-5.64903e-05
2.88919e-05
-7.23264e-05
3.03981e-05
-8.82865e-05
3.06983e-05
-0.000103822
2.99311e-05
-0.000118425
2.81859e-05
-0.000131607
2.55065e-05
-0.000142893
2.19075e-05
-0.000151819
1.73986e-05
-0.000157945
1.20125e-05
-0.000160879
5.83258e-06
-0.000160315
-9.81566e-07
-0.000156069
-8.19261e-06
-0.00014813
-1.54512e-05
-0.000136696
-2.23349e-05
-0.0001222
-2.83622e-05
-0.000105316
-3.3038e-05
-8.69353e-05
-3.59114e-05
-6.81139e-05
-3.66409e-05
-4.99901e-05
-3.50566e-05
-3.36728e-05
-3.12127e-05
-2.01156e-05
-2.54215e-05
-9.9856e-06
-1.82772e-05
-3.53767e-06
-1.06707e-05
-5.04805e-07
-3.81371e-06
5.2173e-07
-3.00107e-06
4.88057e-06
-1.1085e-05
1.68652e-05
-2.33952e-05
2.80807e-05
-3.905e-05
3.72896e-05
-5.71583e-05
4.41228e-05
-7.6863e-05
4.85965e-05
-9.73682e-05
5.09033e-05
-0.000117946
5.12762e-05
-0.000137927
4.99115e-05
-0.00015668
4.69389e-05
-0.000173599
4.24257e-05
-0.000188091
3.63997e-05
-0.000199578
2.88861e-05
-0.000207514
1.99483e-05
-0.000211412
9.73019e-06
-0.000210886
-1.50717e-06
-0.000205702
-1.33766e-05
-0.000195831
-2.53226e-05
-0.000181495
-3.6671e-05
-0.000163203
-4.66542e-05
-0.000141761
-5.44801e-05
-0.00011825
-5.94224e-05
-9.39664e-05
-6.09241e-05
-7.03231e-05
-5.86999e-05
-4.87141e-05
-5.28218e-05
-3.03605e-05
-4.37751e-05
-1.61557e-05
-3.24821e-05
-6.53108e-06
-2.02953e-05
-1.36692e-06
-8.97787e-06
-8.45185e-07
-4.09863e-06
8.97919e-06
-1.46584e-05
2.7425e-05
-3.02819e-05
4.37041e-05
-4.97422e-05
5.675e-05
-7.19305e-05
6.6311e-05
-9.5845e-05
7.25111e-05
-0.000120583
7.56417e-05
-0.000145328
7.60209e-05
-0.000169325
7.39086e-05
-0.000191862
6.94753e-05
-0.000212245
6.28087e-05
-0.000229792
5.39469e-05
-0.000243832
4.2926e-05
-0.000253721
2.98375e-05
-0.000258875
1.48846e-05
-0.000258819
-1.56304e-06
-0.000253231
-1.8965e-05
-0.000242022
-3.65316e-05
-0.000225387
-5.33062e-05
-0.000203854
-6.81872e-05
-0.000178309
-8.00245e-05
-0.000149985
-8.77465e-05
-0.000120399
-9.05107e-05
-9.12414e-05
-8.78572e-05
-6.42224e-05
-7.98408e-05
-4.08819e-05
-6.71155e-05
-2.24049e-05
-5.09591e-05
-9.46796e-06
-3.32322e-05
-2.15679e-06
-1.6289e-05
-3.00197e-06
-5.07435e-06
1.40535e-05
-1.79207e-05
4.02713e-05
-3.6647e-05
6.24305e-05
-5.96845e-05
7.97875e-05
-8.57022e-05
9.23287e-05
-0.000113558
0.000100366
-0.000142257
0.000104341
-0.000170918
0.000104681
-0.000198731
0.000101722
-0.000224932
9.56756e-05
-0.000248768
8.66449e-05
-0.000269489
7.46678e-05
-0.000286341
5.97786e-05
-0.000298585
4.2081e-05
-0.000305521
2.1821e-05
-0.000306559
-5.25373e-07
-0.000301234
-2.42903e-05
-0.000289344
-4.84213e-05
-0.000270988
-7.16621e-05
-0.000246649
-9.25266e-05
-0.00021724
-0.000109434
-0.000184113
-0.000120873
-0.000149009
-0.000125615
-0.000113938
-0.000122928
-8.09993e-05
-0.00011278
-5.21464e-05
-9.59684e-05
-2.89558e-05
-7.41497e-05
-1.24295e-05
-4.97584e-05
-2.8909e-06
-2.58277e-05
-5.89287e-06
-5.95046e-06
2.0004e-05
-2.08999e-05
5.52207e-05
-4.25191e-05
8.40497e-05
-6.892e-05
0.000106188
-9.85588e-05
0.000121968
-0.000130162
0.000131969
-0.000162658
0.000136837
-0.00019512
0.000137144
-0.000226712
0.000133314
-0.000256639
0.000125603
-0.000284117
0.000114123
-0.000308344
9.88943e-05
-0.000328491
7.99261e-05
-0.000343716
5.73053e-05
-0.000353186
3.12917e-05
-0.000356128
2.41594e-06
-0.000351918
-2.85002e-05
-0.000340141
-6.01977e-05
-0.000320722
-9.10812e-05
-0.000294017
-0.000119232
-0.0002609
-0.000142551
-0.000222807
-0.000158965
-0.000181711
-0.000166711
-0.000139997
-0.000164642
-0.000100256
-0.000152521
-6.49951e-05
-0.000131229
-3.63211e-05
-0.000102824
-1.56703e-05
-7.04092e-05
-3.64888e-06
-3.78491e-05
-9.54175e-06
-6.7481e-06
2.67521e-05
-2.36374e-05
7.21099e-05
-4.79536e-05
0.000108366
-7.75198e-05
0.000135755
-0.000110598
0.000155046
-0.000145798
0.000167169
-0.00018199
0.000173029
-0.000218222
0.000173376
-0.000253653
0.000168745
-0.000287489
0.000159439
-0.000318932
0.000145566
-0.000347146
0.000127108
-0.000371235
0.000104016
-0.000390246
7.63158e-05
-0.000403186
4.4232e-05
-0.000409072
8.30174e-06
-0.000407025
-3.05473e-05
-0.00039635
-7.0872e-05
-0.000376696
-0.000110736
-0.000348189
-0.000147739
-0.000311575
-0.000179165
-0.000268315
-0.000202225
-0.000220601
-0.000214425
-0.000171253
-0.000213989
-0.000123482
-0.000200292
-8.05206e-05
-0.000174191
-4.51979e-05
-0.000138146
-1.95445e-05
-9.60626e-05
-4.53832e-06
-5.28552e-05
-1.40801e-05
-7.48109e-06
3.42332e-05
-2.61645e-05
9.07934e-05
-5.29948e-05
0.000135196
-8.5538e-05
0.000168298
-0.000121884
0.000191392
-0.000160546
0.000205831
-0.000200353
0.000212835
-0.000240353
0.000213376
-0.000279724
0.000208117
-0.000317698
0.000197412
-0.000353488
0.000181356
-0.000386246
0.000159865
-0.000415017
0.000132787
-0.000438735
0.000100034
-0.000456229
6.17252e-05
-0.000466263
1.83365e-05
-0.000467638
-2.91728e-05
-0.000459288
-7.92215e-05
-0.000440474
-0.00012955
-0.000410967
-0.000177246
-0.000371261
-0.000218871
-0.000322741
-0.000250745
-0.000267776
-0.000269391
-0.000209653
-0.000272112
-0.000152328
-0.000257616
-9.99765e-05
-0.000226542
-5.64027e-05
-0.00018172
-2.44675e-05
-0.000127998
-5.68095e-06
-7.16418e-05
-1.9761e-05
-8.15544e-06
4.23886e-05
-2.84959e-05
0.000111134
-5.76617e-05
0.000164362
-9.29905e-05
0.000203627
-0.000132424
0.000230825
-0.000174396
0.000247803
-0.000217716
0.000256156
-0.000261456
0.000257116
-0.00030484
0.000251501
-0.000347151
0.000239723
-0.000387643
0.000221849
-0.000425478
0.0001977
-0.000459664
0.000166973
-0.000489028
0.000129398
-0.000512212
8.49085e-05
-0.000527701
3.38259e-05
-0.000533921
-2.29525e-05
-0.000529351
-8.37921e-05
-0.000512745
-0.000146156
-0.000483378
-0.000206613
-0.000441328
-0.000260921
-0.000387752
-0.000304321
-0.000325084
-0.000332059
-0.000257058
-0.000340139
-0.000188481
-0.000326193
-0.000124702
-0.000290321
-7.0832e-05
-0.00023559
-3.08993e-05
-0.000167931
-7.20946e-06
-9.53316e-05
-2.69705e-05
-8.7708e-06
5.11595e-05
-3.06301e-05
0.000132993
-6.19455e-05
0.000195677
-9.98508e-05
0.000241532
-0.000142157
0.000273132
-0.000187239
0.000292885
-0.000233906
0.000302823
-0.000281274
0.000304484
-0.000328639
0.000298866
-0.000375365
0.000286449
-0.000420779
0.000267263
-0.000464083
0.000241003
-0.000504275
0.000207165
-0.000540101
0.000165224
-0.000570025
0.000114833
-0.000592251
5.60516e-05
-0.000604804
-1.03997e-05
-0.000605638
-8.29577e-05
-0.000592906
-0.000158888
-0.000565229
-0.00023429
-0.000522076
-0.000304074
-0.00046416
-0.000362237
-0.000393778
-0.000402441
-0.000314993
-0.000418924
-0.000233496
-0.00040769
-0.000156037
-0.00036778
-8.9429e-05
-0.000302198
-3.93371e-05
-0.000218022
-9.26829e-06
-0.0001254
-3.62388e-05
-9.32276e-06
6.04822e-05
-3.25545e-05
0.000156225
-6.58172e-05
0.00022894
-0.000106057
0.000281772
-0.000150968
0.000318043
-0.000198878
0.000340794
-0.000248612
0.000352557
-0.000299349
0.000355221
-0.00035048
0.000349998
-0.00040148
0.000337449
-0.00045178
0.000317563
-0.000500657
0.000289881
-0.000547143
0.000253651
-0.000589942
0.000208023
-0.000627383
0.000152275
-0.000657418
8.60862e-05
-0.000677672
9.85443e-06
-0.000685581
-7.5049e-05
-0.000678611
-0.000165858
-0.000654602
-0.000258299
-0.000612205
-0.000346471
-0.000551407
-0.000423035
-0.000474061
-0.000479788
-0.000384292
-0.000508692
-0.00028857
-0.000503413
-0.000195201
-0.000461148
-0.000113141
-0.000384258
-5.03102e-05
-0.000280854
-1.20166e-05
-0.000163694
-4.82553e-05
-9.80607e-06
7.02883e-05
-3.42546e-05
0.000180673
-6.92418e-05
0.000263927
-0.000111533
0.000324063
-0.000158707
0.000365217
-0.000209052
0.000391139
-0.000261415
0.00040492
-0.000315053
0.00040886
-0.000369474
0.000404418
-0.000424283
0.000392257
-0.000479047
0.000372327
-0.000533164
0.000343998
-0.000585746
0.000306233
-0.000635518
0.000257794
-0.000680745
0.000197502
-0.000719203
0.000124544
-0.000748187
3.8839e-05
-0.000764661
-5.85753e-05
-0.000765406
-0.000165113
-0.000747399
-0.000276306
-0.000708282
-0.000385587
-0.000647
-0.000484317
-0.000564539
-0.000562249
-0.000464638
-0.000608593
-0.000354215
-0.000613835
-0.000243118
-0.000572246
-0.000142853
-0.000484523
-6.43688e-05
-0.000359338
-1.56317e-05
-0.000212431
-6.3887e-05
-1.02191e-05
8.05074e-05
-3.57267e-05
0.000206181
-7.22004e-05
0.000300401
-0.000116216
0.000368078
-0.000165228
0.00041423
-0.000217478
0.000443388
-0.000271839
0.000459281
-0.000327651
0.000464672
-0.000384548
0.000461315
-0.000442286
0.000449996
-0.000500597
0.000430638
-0.000559037
0.000402438
-0.000616857
0.000364054
-0.000672884
0.000313821
-0.00072542
0.000250038
-0.000772187
0.000171311
-0.000810305
7.69567e-05
-0.000836362
-3.2518e-05
-0.000846571
-0.000154903
-0.000837055
-0.000285822
-0.000804326
-0.000418316
-0.000745984
-0.00054266
-0.000661643
-0.00064659
-0.00055401
-0.000716226
-0.000429824
-0.000738021
-0.000300141
-0.000701929
-0.000179269
-0.000605395
-8.2059e-05
-0.000456548
-2.03113e-05
-0.000274179
-8.41983e-05
-1.05697e-05
9.10771e-05
-3.69956e-05
0.000232607
-7.47207e-05
0.000338126
-0.0001201
0.000413458
-0.000170441
0.00046457
-0.000223919
0.000496866
-0.000279427
0.00051479
-0.000336388
0.000521633
-0.000394562
0.000519489
-0.000453872
0.000509305
-0.00051423
0.000490996
-0.000575391
0.000463599
-0.000636804
0.000425467
-0.000697488
0.000374504
-0.000755912
0.000308462
-0.00080991
0.000225308
-0.000856623
0.00012367
-0.000892485
3.34425e-06
-0.000913352
-0.000134037
-0.000914628
-0.000284546
-0.000891707
-0.000441237
-0.000840633
-0.000593735
-0.000759146
-0.000728077
-0.000648116
-0.000827256
-0.000513139
-0.000872998
-0.000365685
-0.000849383
-0.000222732
-0.000748347
-0.000103871
-0.000575409
-2.62715e-05
-0.000351779
-0.00011047
-1.08831e-05
0.00010196
-3.81372e-05
0.000259861
-7.69154e-05
0.000376904
-0.00012329
0.000459833
-0.000174374
0.000515655
-0.000228257
0.000550749
-0.000283835
0.000570368
-0.000340607
0.000578405
-0.000398461
0.000577343
-0.000457484
0.000568328
-0.000517787
0.000551299
-0.000579348
0.000525161
-0.000641877
0.000487995
-0.000704674
0.000437302
-0.000766515
0.000370304
-0.00082554
0.000284332
-0.00087915
0.000177281
-0.000923952
4.81458e-05
-0.000955702
-0.000102287
-0.00096942
-0.000270828
-0.000959562
-0.000451095
-0.000920588
-0.000632709
-0.000847989
-0.000800676
-0.000739964
-0.00093528
-0.000599708
-0.00101325
-0.000437748
-0.00101134
-0.000272945
-0.00091315
-0.00013015
-0.000718204
-3.37383e-05
-0.00044819
-0.000144208
-1.12124e-05
0.000113173
-3.93083e-05
0.000287957
-7.90299e-05
0.000416626
-0.00012606
0.000506863
-0.000177254
0.000566849
-0.000230583
0.000604077
-0.000284936
0.000624721
-0.000339884
0.000633353
-0.000395442
0.000632901
-0.000451858
0.000624745
-0.000509449
0.000608889
-0.000568441
0.000584153
-0.000628847
0.000548401
-0.000690339
0.000498793
-0.000752131
0.000432097
-0.00081286
0.000345061
-0.000870455
0.000234875
-0.000922004
9.9695e-05
-0.000963567
-6.07238e-05
-0.000990231
-0.000244164
-0.000995889
-0.000445437
-0.000973657
-0.00065494
-0.000916678
-0.000857655
-0.000819821
-0.00103214
-0.000682512
-0.00115056
-0.000512431
-0.00118142
-0.000328623
-0.00109696
-0.000160956
-0.000885871
-4.29301e-05
-0.000566216
-0.000187138
-1.16532e-05
0.000124826
-4.07854e-05
0.000317089
-8.15004e-05
0.000457341
-0.000128925
0.000554288
-0.000179574
0.000617497
-0.000231273
0.000655777
-0.000282912
0.00067636
-0.000334143
0.000684583
-0.000385109
0.000683867
-0.00043623
0.000675867
-0.00048803
0.000660689
-0.000541
0.000637123
-0.000595492
0.000602893
-0.000651612
0.000554914
-0.000709122
0.000489607
-0.000767317
0.000403256
-0.000824882
0.00029244
-0.000879726
0.000154539
-0.000928558
-1.18921e-05
-0.000967129
-0.000205592
-0.000989283
-0.000423283
-0.000987352
-0.000656871
-0.000952434
-0.000892573
-0.00087582
-0.00110875
-0.000752007
-0.00127438
-0.000583604
-0.00134983
-0.000387122
-0.00129344
-0.000195901
-0.00107709
-5.40386e-05
-0.000708079
-0.000241177
-1.23666e-05
0.000137192
-4.30188e-05
0.000347741
-8.50255e-05
0.000499347
-0.000132711
0.000601973
-0.000182157
0.000666944
-0.00023105
0.000704669
-0.000278311
0.000723621
-0.000323713
0.000729985
-0.000367563
0.000727717
-0.000410467
0.000718771
-0.000453167
0.000703388
-0.00049643
0.000680387
-0.000540968
0.000647431
-0.000587362
0.000601308
-0.000635983
0.000538228
-0.000686889
0.000454162
-0.000739678
0.00034523
-0.000793263
0.000208124
-0.00084568
4.0525e-05
-0.000893323
-0.00015795
-0.000930977
-0.000385629
-0.000950938
-0.00063691
-0.00094302
-0.000900491
-0.000895309
-0.00115646
-0.000796797
-0.00137289
-0.000642934
-0.00150369
-0.000444159
-0.00149222
-0.000233966
-0.00128728
-6.72173e-05
-0.000874828
-0.000308394
-1.36175e-05
0.00015081
-4.67114e-05
0.000380835
-9.06549e-05
0.000543291
-0.000138626
0.000649944
-0.000186199
0.000714517
-0.000230976
0.000749447
-0.000272012
0.000764657
-0.000309293
0.000767267
-0.000343354
0.000761778
-0.000375027
0.000750443
-0.000405296
0.000733657
-0.000435217
0.000710308
-0.00046587
0.000678083
-0.000498316
0.000633754
-0.000533553
0.000573464
-0.000572432
0.000493041
-0.000615527
0.000388325
-0.000662924
0.00025552
-0.000713944
9.15454e-05
-0.000766455
-0.000105439
-0.000816541
-0.000335542
-0.000857439
-0.000596012
-0.000878845
-0.000879086
-0.000866732
-0.00116858
-0.000804947
-0.00143467
-0.000680424
-0.00162821
-0.000493741
-0.0016789
-0.000273345
-0.00150768
-8.25971e-05
-0.00106558
-0.000390991
-1.58433e-05
0.000166653
-5.29409e-05
0.000417933
-9.98979e-05
0.000590248
-0.000148306
0.000698352
-0.000193224
0.000759435
-0.000232344
0.000788566
-0.000265051
0.000797364
-0.000291708
0.000793924
-0.000313191
0.000783261
-0.000330631
0.000767883
-0.000345291
0.000748317
-0.000358527
0.000723544
-0.000371779
0.000691335
-0.000386566
0.000648541
-0.000404476
0.000591374
-0.000427107
0.000515672
-0.000455968
0.000417186
-0.000492289
0.000291842
-0.000536738
0.000135994
-0.000588864
-5.33134e-05
-0.000646531
-0.000277875
-0.00070478
-0.000537764
-0.000754553
-0.000829313
-0.000781431
-0.0011417
-0.000765581
-0.00145052
-0.000685376
-0.00170842
-0.000528372
-0.0018359
-0.000311329
-0.00172472
-0.000100339
-0.00127657
-0.00049133
-1.97827e-05
0.000186436
-6.33457e-05
0.000461496
-0.000114837
0.00064174
-0.000163779
0.000747294
-0.000204889
0.000800545
-0.000236318
0.000819994
-0.000258126
0.000819172
-0.000271309
0.000807107
-0.00027725
0.000789202
-0.000277474
0.000768107
-0.000273571
0.000744415
-0.000267203
0.000717177
-0.000260143
0.000684275
-0.000254314
0.000642712
-0.000251804
0.000588865
-0.000254851
0.000518719
-0.000265762
0.000428097
-0.000286775
0.000312855
-0.00031982
0.000169039
-0.000366076
-7.05713e-06
-0.00042543
-0.000218521
-0.000495348
-0.000467846
-0.000569309
-0.000755352
-0.000634567
-0.00107644
-0.000670107
-0.00141498
-0.0006474
-0.00173113
-0.0005394
-0.0019439
-0.000344168
-0.00191996
-0.00012069
-0.00150004
-0.00061202
-2.67148e-05
0.000213151
-8.0393e-05
0.000515174
-0.000138174
0.00069952
-0.000187183
0.000796303
-0.000222378
0.000835741
-0.000243057
0.000840674
-0.000250498
0.000826613
-0.000246681
0.00080329
-0.000233711
0.000776231
-0.000213615
0.000748011
-0.000188348
0.000719148
-0.000159865
0.000688693
-0.000130216
0.000654625
-0.000101635
0.000614131
-7.65848e-05
0.000563815
-5.7777e-05
0.000499911
-4.81266e-05
0.000418446
-5.06538e-05
0.000315382
-6.83173e-05
0.000186703
-0.000103794
2.84198e-05
-0.000158854
-0.000163461
-0.000233715
-0.000392986
-0.000325302
-0.000663764
-0.000424532
-0.00097721
-0.000512387
-0.00132713
-0.000556846
-0.00168667
-0.00051713
-0.00198362
-0.000366721
-0.00207037
-0.000143905
-0.00172286
-0.000755925
-3.88941e-05
0.000252045
-0.000107673
0.000583952
-0.000172921
0.000764769
-0.000219768
0.00084315
-0.000244795
0.000860767
-0.000249627
0.000845506
-0.000237532
0.000814518
-0.000211922
0.00077768
-0.00017584
0.000740149
-0.000131905
0.000704076
-8.24328e-05
0.000669676
-2.96118e-05
0.000635872
2.43342e-05
0.000600679
7.70172e-05
0.000561448
0.000125769
0.000515062
0.000167611
0.000458069
0.000199244
0.000386814
0.000217092
0.000297534
0.0002174
0.000186395
0.000196375
4.94447e-05
0.000150518
-0.000117604
7.70899e-05
-0.000319558
-2.46296e-05
-0.000562044
-0.000150693
-0.000851147
-0.000287466
-0.00119035
-0.000404065
-0.00157007
-0.000450176
-0.00193751
-0.000371479
-0.00214906
-0.000169664
-0.00192467
-0.000925589
-6.02747e-05
0.00031232
-0.000149874
0.000673551
-0.000220847
0.000835742
-0.000258884
0.000881187
-0.000265052
0.000866935
-0.000245148
0.000825602
-0.000205408
0.000774778
-0.000151118
0.000723389
-8.63976e-05
0.000675429
-1.44293e-05
0.000632107
6.22223e-05
0.000593024
0.000141301
0.000556794
0.000220604
0.000521376
0.000297782
0.000484271
0.000370201
0.000442643
0.000434849
0.00039342
0.000488294
0.000333369
0.000526675
0.000259153
0.000545731
0.000167339
0.000540837
5.43392e-05
0.000507153
-8.392e-05
0.000439818
-0.000252223
0.000334587
-0.000456814
0.000189911
-0.000706471
1.1911e-05
-0.00101235
-0.000177101
-0.00138106
-0.000323376
-0.00179123
-0.000346215
-0.00212622
-0.000195306
-0.00207558
-0.00112089
-9.73478e-05
0.000409667
-0.000210885
0.000787088
-0.00027677
0.000901627
-0.00028945
0.000893868
-0.000259728
0.000837213
-0.000199995
0.000765869
-0.000120331
0.000695115
-2.7997e-05
0.000631055
7.20418e-05
0.00057539
0.000176394
0.000527755
0.000282621
0.000486797
0.000388758
0.000450657
0.000492954
0.00041718
0.00059322
0.000384005
0.000687241
0.000348623
0.000772249
0.000308412
0.000844949
0.000260669
0.000901465
0.000202637
0.000937306
0.000131498
0.000947308
4.43367e-05
0.000925747
-6.23588e-05
0.000866209
-0.000192685
0.000761675
-0.000352279
0.000605474
-0.00055027
0.000394622
-0.000801501
0.000140509
-0.00112694
-0.000112589
-0.00153813
-0.000269156
-0.00196966
-0.00021261
-0.00213213
-0.0013335
-0.000158364
0.000568031
-0.000283076
0.000911801
-0.000309597
0.000928148
-0.000261116
0.000845387
-0.000165766
0.000741863
-4.41032e-05
0.000644206
9.0595e-05
0.000560417
0.000230339
0.000491311
0.000370569
0.00043516
0.000508752
0.000389572
0.000643423
0.000352126
0.000773563
0.000320517
0.000898189
0.000292554
0.00101607
0.00026612
0.00112556
0.000239139
0.00122441
0.000209556
0.00130976
0.000175326
0.00137798
0.000134412
0.00142469
8.47907e-05
0.00144448
2.45482e-05
0.00143133
-4.92084e-05
0.00137786
-0.000139217
0.00127532
-0.000249742
0.00111347
-0.000388418
0.00088153
-0.000569562
0.000574753
-0.000820166
0.0002166
-0.00117998
-9.95667e-05
-0.00165349
-0.000202188
-0.00202951
-0.00153569
-0.000241083
0.000809114
-0.000299719
0.000970436
-0.000204204
0.000832633
-3.32779e-05
0.000674461
0.000165054
0.000543531
0.000367829
0.000441431
0.000564372
0.000363873
0.000750259
0.000305424
0.000924282
0.000261137
0.00108671
0.000227143
0.00123832
0.000200521
0.00137984
0.000178994
0.00151169
0.000160703
0.00163376
0.000144049
0.0017453
0.000127597
0.00184484
0.000110016
0.00193012
9.00456e-05
0.00199807
6.64646e-05
0.00204476
3.81001e-05
0.00206506
4.2454e-06
0.00205336
-3.74994e-05
0.00200196
-8.78255e-05
0.0019018
-0.000149576
0.00174093
-0.000227549
0.00150333
-0.000331961
0.00116919
-0.000486025
0.00072888
-0.000739676
0.000241365
-0.00116597
-8.70007e-05
-0.00170114
-0.00162269
-0.000190004
0.000999118
2.78746e-05
0.000752558
0.000384388
0.000476119
0.000723561
0.000335288
0.00102342
0.000243668
0.00128412
0.000180731
0.0015099
0.000138101
0.00170617
0.000109149
0.00187828
8.903e-05
0.00203078
7.46475e-05
0.00216726
6.40356e-05
0.00229039
5.5868e-05
0.0024019
4.91858e-05
0.0025027
4.32506e-05
0.00259284
3.74582e-05
0.00267157
3.12896e-05
0.00273733
2.42863e-05
0.00278773
1.60568e-05
0.00281951
6.32886e-06
0.00282953
-5.77725e-06
0.00281204
-2.00118e-05
0.00276123
-3.70154e-05
0.00266941
-5.77521e-05
0.0025257
-8.38403e-05
0.0023131
-0.000119364
0.00200258
-0.000175503
0.00154806
-0.000285153
0.00092415
-0.000542067
0.000262284
-0.00103928
-0.00136041
0.000999118
0.00175168
0.0022278
0.00256308
0.00280675
0.00298748
0.00312558
0.00323473
0.00332376
0.00339841
0.00346245
0.00351831
0.0035675
0.00361075
0.00364821
0.0036795
0.00370378
0.00371984
0.00372617
0.00372039
0.00370038
0.00366336
0.00360561
0.00352177
0.00340241
0.00322691
0.00294175
0.00239969
0.00136041
)
;

boundaryField
{
    movingWall
    {
        type            calculated;
        value           uniform 0;
    }
    fixedWalls
    {
        type            calculated;
        value           uniform 0;
    }
    frontAndBack
    {
        type            empty;
        value           nonuniform 0();
    }
}


// ************************************************************************* //
