/*--------------------------------*- C++ -*----------------------------------*\
  =========                 |
  \\      /  F ield         | OpenFOAM: The Open Source CFD Toolbox
   \\    /   O peration     | Website:  https://openfoam.org
    \\  /    A nd           | Version:  7
     \\/     M anipulation  |
\*---------------------------------------------------------------------------*/
FoamFile
{
    version     2.0;
    format      ascii;
    class       volVectorField;
    location    "3";
    object      U;
}
// * * * * * * * * * * * * * * * * * * * * * * * * * * * * * * * * * * * * * //

dimensions      [0 1 -1 0 0 0 0];

internalField   nonuniform List<vector> 
900
(
(9.78667e-05 -9.70697e-05 0)
(0.000123269 -9.99565e-06 0)
(-0.000204899 0.000112312 0)
(-0.000853778 0.000214585 0)
(-0.00174062 0.000284394 0)
(-0.00279046 0.000325713 0)
(-0.00393427 0.000345681 0)
(-0.00511603 0.000350251 0)
(-0.00629103 0.000343207 0)
(-0.00742146 0.000326353 0)
(-0.00847248 0.000300004 0)
(-0.00940953 0.000263547 0)
(-0.0101968 0.000216003 0)
(-0.0107974 0.000156597 0)
(-0.0111747 8.53074e-05 0)
(-0.0112956 3.32706e-06 0)
(-0.0111339 -8.68184e-05 0)
(-0.0106753 -0.000180436 0)
(-0.0099225 -0.00027133 0)
(-0.00889837 -0.00035203 0)
(-0.00764872 -0.000414503 0)
(-0.00624189 -0.000451169 0)
(-0.00476547 -0.000456011 0)
(-0.00332006 -0.000425576 0)
(-0.00201048 -0.00035962 0)
(-0.000934207 -0.000261528 0)
(-0.00016661 -0.000140054 0)
(0.000237481 -1.41708e-05 0)
(0.000288359 9.52804e-05 0)
(0.000117115 0.000115812 0)
(1.41327e-05 -0.000126853 0)
(-0.000372272 0.000371732 0)
(-0.00153901 0.000972138 0)
(-0.00336901 0.00148325 0)
(-0.00572151 0.00185659 0)
(-0.00844638 0.00209541 0)
(-0.0113956 0.00221941 0)
(-0.0144375 0.00224917 0)
(-0.0174582 0.00219998 0)
(-0.0203561 0.00208056 0)
(-0.0230366 0.00189407 0)
(-0.0254076 0.00164005 0)
(-0.0273774 0.00131698 0)
(-0.0288557 0.00092485 0)
(-0.0297569 0.000467743 0)
(-0.0300076 -4.39551e-05 0)
(-0.0295533 -0.000591944 0)
(-0.0283696 -0.00114931 0)
(-0.0264716 -0.00168144 0)
(-0.0239209 -0.00214819 0)
(-0.0208297 -0.00250773 0)
(-0.0173592 -0.0027216 0)
(-0.0137118 -0.00276033 0)
(-0.0101166 -0.00260863 0)
(-0.00680925 -0.00226948 0)
(-0.00400642 -0.00176697 0)
(-0.00187788 -0.00115083 0)
(-0.000520645 -0.00050553 0)
(8.28504e-05 5.36556e-05 0)
(0.000103702 0.000287759 0)
(-0.000114317 0.00020194 0)
(-0.00101986 0.00154857 0)
(-0.0031018 0.00299288 0)
(-0.00607624 0.00421928 0)
(-0.00974336 0.00513591 0)
(-0.0139085 0.00573753 0)
(-0.0183737 0.0060545 0)
(-0.0229565 0.00612477 0)
(-0.0274929 0.00597946 0)
(-0.0318332 0.00563826 0)
(-0.035836 0.00511021 0)
(-0.0393642 0.00439751 0)
(-0.042283 0.00350082 0)
(-0.0444622 0.00242533 0)
(-0.0457806 0.00118659 0)
(-0.046136 -0.000184446 0)
(-0.0454553 -0.00163776 0)
(-0.0437079 -0.00310363 0)
(-0.0409184 -0.00449452 0)
(-0.0371761 -0.00571072 0)
(-0.0326393 -0.00664968 0)
(-0.0275342 -0.00721805 0)
(-0.0221437 -0.00734521 0)
(-0.0167877 -0.00699623 0)
(-0.0117952 -0.00618233 0)
(-0.00746993 -0.00496827 0)
(-0.00405217 -0.00347851 0)
(-0.00167854 -0.00190436 0)
(-0.000354849 -0.000513113 0)
(2.61835e-05 0.000274588 0)
(-0.000237744 0.000895738 0)
(-0.0016563 0.00349374 0)
(-0.00464269 0.00603151 0)
(-0.00871691 0.00814676 0)
(-0.0136019 0.00972626 0)
(-0.0190616 0.0107651 0)
(-0.0248602 0.0113071 0)
(-0.0307789 0.0114081 0)
(-0.0366189 0.0111157 0)
(-0.0421959 0.010461 0)
(-0.0473342 0.00946006 0)
(-0.0518626 0.00811887 0)
(-0.0556134 0.00644239 0)
(-0.0584243 0.00444422 0)
(-0.0601451 0.00215629 0)
(-0.0606482 -0.000362884 0)
(-0.0598416 -0.00302298 0)
(-0.0576838 -0.00569913 0)
(-0.0542 -0.00823674 0)
(-0.0494931 -0.0104608 0)
(-0.0437512 -0.0121914 0)
(-0.0372466 -0.0132647 0)
(-0.0303243 -0.0135564 0)
(-0.0233791 -0.0130045 0)
(-0.0168218 -0.0116284 0)
(-0.0110374 -0.00954159 0)
(-0.0063378 -0.00695845 0)
(-0.00291252 -0.00419653 0)
(-0.000817538 -0.00167947 0)
(-5.11249e-05 8.5541e-06 0)
(-0.000343862 0.00191645 0)
(-0.00223767 0.00616833 0)
(-0.00608375 0.0100358 0)
(-0.0112002 0.0131798 0)
(-0.0172245 0.0155029 0)
(-0.0238773 0.0170193 0)
(-0.0308894 0.017795 0)
(-0.0380146 0.0179071 0)
(-0.04503 0.0174199 0)
(-0.0517275 0.0163764 0)
(-0.0579075 0.0147989 0)
(-0.0633739 0.0126973 0)
(-0.0679326 0.010081 0)
(-0.071394 0.00697264 0)
(-0.0735801 0.00342229 0)
(-0.0743361 -0.000480879 0)
(-0.0735438 -0.00460116 0)
(-0.0711402 -0.00875109 0)
(-0.0671371 -0.0126988 0)
(-0.0616351 -0.0161807 0)
(-0.054836 -0.0189241 0)
(-0.0470446 -0.0206776 0)
(-0.0386592 -0.0212472 0)
(-0.0301473 -0.0205314 0)
(-0.0220065 -0.0185519 0)
(-0.014715 -0.0154722 0)
(-0.0086735 -0.0116048 0)
(-0.00414452 -0.00740504 0)
(-0.00125333 -0.00345683 0)
(-0.000113189 -0.000496674 0)
(-0.000434393 0.00323267 0)
(-0.00276028 0.00952413 0)
(-0.00740806 0.0149571 0)
(-0.0135038 0.019266 0)
(-0.020599 0.0224049 0)
(-0.0283699 0.0244304 0)
(-0.0365166 0.0254433 0)
(-0.0447717 0.0255481 0)
(-0.0528957 0.0248287 0)
(-0.060666 0.0233398 0)
(-0.0678674 0.0211091 0)
(-0.0742859 0.0181482 0)
(-0.0797062 0.0144686 0)
(-0.0839131 0.0100995 0)
(-0.0866986 0.00510674 0)
(-0.0878742 -0.000391109 0)
(-0.0872843 -0.00620955 0)
(-0.0848288 -0.0120968 0)
(-0.0804875 -0.017735 0)
(-0.0743395 -0.0227582 0)
(-0.0665822 -0.0267819 0)
(-0.0575405 -0.0294448 0)
(-0.0476617 -0.0304592 0)
(-0.0374917 -0.0296631 0)
(-0.0276317 -0.0270657 0)
(-0.0186783 -0.0228769 0)
(-0.0111504 -0.0175141 0)
(-0.00541089 -0.0115851 0)
(-0.00167166 -0.00585086 0)
(-0.000161091 -0.0012161 0)
(-0.000513478 0.00481279 0)
(-0.00323237 0.0135064 0)
(-0.00862312 0.0207349 0)
(-0.0156361 0.0263432 0)
(-0.0237413 0.0303698 0)
(-0.0325721 0.0329368 0)
(-0.0418011 0.0341951 0)
(-0.0511444 0.0342853 0)
(-0.0603534 0.0333147 0)
(-0.0691981 0.0313499 0)
(-0.0774554 0.0284223 0)
(-0.0848995 0.0245417 0)
(-0.0912975 0.0197161 0)
(-0.0964095 0.0139753 0)
(-0.0999932 0.00739422 0)
(-0.101815 0.000115182 0)
(-0.10167 -0.00763365 0)
(-0.0994031 -0.0155345 0)
(-0.0949369 -0.0231769 0)
(-0.088305 -0.0300784 0)
(-0.0796786 -0.0357198 0)
(-0.0693872 -0.0395992 0)
(-0.0579218 -0.0413005 0)
(-0.0459159 -0.0405675 0)
(-0.0340978 -0.0373717 0)
(-0.0232188 -0.0319579 0)
(-0.0139576 -0.0248549 0)
(-0.0068151 -0.0168461 0)
(-0.0021135 -0.00890332 0)
(-0.000202913 -0.00214293 0)
(-0.000584417 0.00663118 0)
(-0.00366327 0.0180649 0)
(-0.00974268 0.02731 0)
(-0.0176147 0.0343519 0)
(-0.0266745 0.0393417 0)
(-0.0365168 0.0424901 0)
(-0.0467906 0.0440141 0)
(-0.0572015 0.0441001 0)
(-0.0674978 0.0428838 0)
(-0.07745 0.0404447 0)
(-0.0868336 0.0368152 0)
(-0.0954173 0.0319974 0)
(-0.102954 0.0259882 0)
(-0.10918 0.0188074 0)
(-0.113813 0.010528 0)
(-0.116568 0.00130447 0)
(-0.117171 -0.00860284 0)
(-0.11539 -0.018812 0)
(-0.111066 -0.0288168 0)
(-0.104156 -0.0380039 0)
(-0.0947763 -0.0456923 0)
(-0.0832389 -0.0512001 0)
(-0.0700673 -0.0539341 0)
(-0.0559887 -0.0534938 0)
(-0.0418851 -0.0497716 0)
(-0.0287073 -0.0430248 0)
(-0.0173489 -0.0338988 0)
(-0.0085014 -0.0233848 0)
(-0.00263574 -0.0127183 0)
(-0.000248983 -0.00329796 0)
(-0.000649144 0.00866769 0)
(-0.00405948 0.023156 0)
(-0.0107778 0.0346287 0)
(-0.0194536 0.0432376 0)
(-0.0294152 0.0492716 0)
(-0.0402237 0.0530515 0)
(-0.0515101 0.0548768 0)
(-0.0629751 0.054991 0)
(-0.074371 0.0535633 0)
(-0.0854758 0.0506876 0)
(-0.0960717 0.0463937 0)
(-0.105928 0.0406692 0)
(-0.114789 0.0334886 0)
(-0.122367 0.0248476 0)
(-0.128338 0.0148002 0)
(-0.132356 0.00349592 0)
(-0.134065 -0.00878716 0)
(-0.133132 -0.0216152 0)
(-0.129285 -0.0343873 0)
(-0.122374 -0.0463467 0)
(-0.112422 -0.0566211 0)
(-0.0996885 -0.0643003 0)
(-0.0847079 -0.0685502 0)
(-0.0682975 -0.0687549 0)
(-0.051516 -0.0646629 0)
(-0.0355638 -0.0565044 0)
(-0.0216203 -0.0450389 0)
(-0.0106401 -0.0315057 0)
(-0.00330419 -0.0174783 0)
(-0.000310274 -0.00473517 0)
(-0.000708435 0.0109051 0)
(-0.004424 0.0287398 0)
(-0.0117335 0.0426403 0)
(-0.0211582 0.052947 0)
(-0.031967 0.0601104 0)
(-0.0436928 0.0645821 0)
(-0.0559541 0.0667606 0)
(-0.068453 0.0669576 0)
(-0.0809529 0.0653828 0)
(-0.0932472 0.0621455 0)
(-0.105133 0.0572697 0)
(-0.116387 0.0507199 0)
(-0.126752 0.0424351 0)
(-0.13592 0.032369 0)
(-0.143528 0.0205353 0)
(-0.149161 0.00705457 0)
(-0.152371 -0.0077998 0)
(-0.152703 -0.023561 0)
(-0.149747 -0.0395423 0)
(-0.143203 -0.0548367 0)
(-0.132959 -0.0683525 0)
(-0.119175 -0.0788977 0)
(-0.102355 -0.0853189 0)
(-0.0833849 -0.0866886 0)
(-0.0635103 -0.0825163 0)
(-0.0442305 -0.0729344 0)
(-0.0270949 -0.0587971 0)
(-0.0134204 -0.0416349 0)
(-0.00419145 -0.0234555 0)
(-0.000398311 -0.00654506 0)
(-0.000762225 0.0133268 0)
(-0.00475674 0.0347776 0)
(-0.012609 0.0512934 0)
(-0.0227244 0.063424 0)
(-0.0343187 0.0718034 0)
(-0.0469014 0.0770341 0)
(-0.0600836 0.0796302 0)
(-0.0735747 0.0799841 0)
(-0.0871561 0.0783533 0)
(-0.100645 0.0748645 0)
(-0.11386 0.0695327 0)
(-0.126598 0.0622903 0)
(-0.138606 0.0530263 0)
(-0.149564 0.0416323 0)
(-0.159075 0.028056 0)
(-0.166658 0.0123596 0)
(-0.171766 -0.00521862 0)
(-0.173815 -0.0242054 0)
(-0.172227 -0.0438487 0)
(-0.166521 -0.0630954 0)
(-0.156398 -0.080614 0)
(-0.141857 -0.0948785 0)
(-0.12331 -0.104327 0)
(-0.101661 -0.107599 0)
(-0.0783254 -0.103831 0)
(-0.055137 -0.0929391 0)
(-0.0341079 -0.0758193 0)
(-0.0170464 -0.0543267 0)
(-0.00537707 -0.0310196 0)
(-0.000525641 -0.00885781 0)
(-0.000809942 0.0159155 0)
(-0.00505564 0.041229 0)
(-0.0133993 0.060533 0)
(-0.0241406 0.0746052 0)
(-0.0364467 0.0842831 0)
(-0.0498066 0.0903406 0)
(-0.0638282 0.0934247 0)
(-0.0782329 0.0940217 0)
(-0.0928264 0.092445 0)
(-0.107456 0.0888422 0)
(-0.121973 0.0832168 0)
(-0.136202 0.075461 0)
(-0.149906 0.0653991 0)
(-0.162767 0.0528393 0)
(-0.174362 0.037636 0)
(-0.184157 0.0197601 0)
(-0.191515 -0.000622417 0)
(-0.195715 -0.0230691 0)
(-0.196012 -0.0467954 0)
(-0.191707 -0.070622 0)
(-0.182268 -0.0929741 0)
(-0.167464 -0.111951 0)
(-0.147525 -0.125495 0)
(-0.123287 -0.131671 0)
(-0.096272 -0.129058 0)
(-0.0686517 -0.11718 0)
(-0.0429862 -0.0968538 0)
(-0.0217327 -0.0702621 0)
(-0.00694863 -0.0406448 0)
(-0.000706653 -0.011847 0)
(-0.000850887 0.0186522 0)
(-0.00531833 0.0480508 0)
(-0.0140983 0.0702985 0)
(-0.0253925 0.0864158 0)
(-0.0383208 0.0974637 0)
(-0.0523526 0.104407 0)
(-0.0670939 0.108045 0)
(-0.082282 0.108971 0)
(-0.097751 0.107564 0)
(-0.113385 0.103999 0)
(-0.129076 0.0982652 0)
(-0.144684 0.0902093 0)
(-0.160005 0.0795778 0)
(-0.174736 0.0660764 0)
(-0.188449 0.0494393 0)
(-0.200578 0.0295125 0)
(-0.210415 0.00634901 0)
(-0.217127 -0.019688 0)
(-0.219801 -0.0478253 0)
(-0.217518 -0.0767988 0)
(-0.209472 -0.104814 0)
(-0.195132 -0.129584 0)
(-0.174438 -0.148482 0)
(-0.148024 -0.158853 0)
(-0.117399 -0.158493 0)
(-0.0850104 -0.14627 0)
(-0.0540161 -0.122703 0)
(-0.0276973 -0.0902346 0)
(-0.00900298 -0.0529129 0)
(-0.000958706 -0.0157343 0)
(-0.000884729 0.0215168 0)
(-0.00554442 0.0551975 0)
(-0.0147043 0.0805233 0)
(-0.0264712 0.0987685 0)
(-0.0399147 0.111236 0)
(-0.054482 0.119103 0)
(-0.069777 0.123339 0)
(-0.0855535 0.124663 0)
(-0.101677 0.123531 0)
(-0.118072 0.120147 0)
(-0.134677 0.114494 0)
(-0.1514 0.106365 0)
(-0.16808 0.0954223 0)
(-0.184449 0.0812533 0)
(-0.200102 0.0634504 0)
(-0.214473 0.0417039 0)
(-0.226822 0.0159138 0)
(-0.23624 -0.0136863 0)
(-0.241683 -0.0463946 0)
(-0.242029 -0.0809272 0)
(-0.236188 -0.115329 0)
(-0.223269 -0.146957 0)
(-0.202808 -0.172589 0)
(-0.175068 -0.188721 0)
(-0.141349 -0.19212 0)
(-0.104213 -0.180638 0)
(-0.0673914 -0.154138 0)
(-0.0351457 -0.115117 0)
(-0.0116465 -0.068512 0)
(-0.00130352 -0.0207957 0)
(-0.000912147 0.0244895 0)
(-0.00573863 0.0626248 0)
(-0.0152267 0.0911384 0)
(-0.0273828 0.111564 0)
(-0.0412185 0.125466 0)
(-0.0561525 0.134257 0)
(-0.0717833 0.139098 0)
(-0.08788 0.140851 0)
(-0.104339 0.14006 0)
(-0.121129 0.136972 0)
(-0.138238 0.131561 0)
(-0.15563 0.123574 0)
(-0.173199 0.112582 0)
(-0.190737 0.0980485 0)
(-0.20789 0.0794097 0)
(-0.224134 0.0561788 0)
(-0.23875 0.0280687 0)
(-0.250815 -0.00486397 0)
(-0.259216 -0.042061 0)
(-0.262683 -0.0823018 0)
(-0.25987 -0.12357 0)
(-0.249499 -0.162957 0)
(-0.230605 -0.196689 0)
(-0.202893 -0.220348 0)
(-0.167186 -0.229434 0)
(-0.125889 -0.220353 0)
(-0.0831323 -0.191765 0)
(-0.0442429 -0.145795 0)
(-0.0149925 -0.0882245 0)
(-0.00176866 -0.0273671 0)
(-0.000935691 0.0275548 0)
(-0.00591484 0.0702971 0)
(-0.0156944 0.102079 0)
(-0.0281624 0.124697 0)
(-0.0422564 0.139996 0)
(-0.0573572 0.149654 0)
(-0.0730526 0.155046 0)
(-0.0891249 0.157196 0)
(-0.105501 0.156753 0)
(-0.122192 0.154013 0)
(-0.139237 0.148953 0)
(-0.156662 0.141276 0)
(-0.174431 0.130469 0)
(-0.192412 0.115873 0)
(-0.210337 0.0967674 0)
(-0.227771 0.0724783 0)
(-0.24408 0.0425112 0)
(-0.258406 0.00670474 0)
(-0.269653 -0.0345926 0)
(-0.276494 -0.0803232 0)
(-0.277399 -0.128547 0)
(-0.27074 -0.176248 0)
(-0.255001 -0.219232 0)
(-0.229157 -0.252213 0)
(-0.193256 -0.269267 0)
(-0.149136 -0.264898 0)
(-0.100973 -0.235829 0)
(-0.0550649 -0.183059 0)
(-0.0191543 -0.112896 0)
(-0.00238906 -0.0358491 0)
(-0.000960994 0.0307077 0)
(-0.00610156 0.0781997 0)
(-0.0161677 0.113298 0)
(-0.0288891 0.138062 0)
(-0.0431054 0.154652 0)
(-0.0581466 0.165038 0)
(-0.0735853 0.170844 0)
(-0.0892149 0.173274 0)
(-0.104992 0.173097 0)
(-0.120969 0.170672 0)
(-0.13724 0.165986 0)
(-0.153892 0.158711 0)
(-0.170969 0.148262 0)
(-0.188436 0.133871 0)
(-0.206139 0.114672 0)
(-0.223778 0.0898144 0)
(-0.240869 0.0585918 0)
(-0.256703 0.0206018 0)
(-0.270303 -0.0240707 0)
(-0.280407 -0.0746357 0)
(-0.285432 -0.129387 0)
(-0.28349 -0.185412 0)
(-0.272547 -0.238339 0)
(-0.250758 -0.282206 0)
(-0.217106 -0.309666 0)
(-0.172386 -0.31295 0)
(-0.12023 -0.28597 0)
(-0.0675288 -0.227434 0)
(-0.0242318 -0.143379 0)
(-0.00320862 -0.046708 0)
(-0.000998611 0.0339636 0)
(-0.00634943 0.0863569 0)
(-0.0167519 0.124781 0)
(-0.0297052 0.151571 0)
(-0.0439161 0.169245 0)
(-0.0586513 0.180117 0)
(-0.0734665 0.186092 0)
(-0.0881694 0.188577 0)
(-0.102749 0.188478 0)
(-0.117301 0.186225 0)
(-0.131972 0.18183 0)
(-0.146916 0.174949 0)
(-0.162263 0.164942 0)
(-0.178086 0.150957 0)
(-0.194372 0.13201 0)
(-0.210994 0.107098 0)
(-0.22767 0.07532 0)
(-0.243919 0.0360371 0)
(-0.258987 -0.0109631 0)
(-0.27181 -0.065267 0)
(-0.280907 -0.125529 0)
(-0.284299 -0.189187 0)
(-0.279572 -0.25203 0)
(-0.264087 -0.307778 0)
(-0.235588 -0.347904 0)
(-0.19334 -0.362209 0)
(-0.139674 -0.340945 0)
(-0.081307 -0.278943 0)
(-0.0302942 -0.180432 0)
(-0.00428283 -0.0604711 0)
(-0.00106714 0.0373729 0)
(-0.00674239 0.0948579 0)
(-0.0176164 0.136572 0)
(-0.0308374 0.165164 0)
(-0.0449324 0.18359 0)
(-0.0590978 0.194571 0)
(-0.0728809 0.200338 0)
(-0.0861158 0.202531 0)
(-0.098834 0.202202 0)
(-0.111181 0.199863 0)
(-0.123362 0.195562 0)
(-0.135598 0.188954 0)
(-0.14811 0.179371 0)
(-0.161086 0.165906 0)
(-0.174669 0.147495 0)
(-0.188925 0.123018 0)
(-0.203813 0.0914222 0)
(-0.219134 0.0518494 0)
(-0.234464 0.00379056 0)
(-0.249033 -0.0527447 0)
(-0.261611 -0.116914 0)
(-0.270371 -0.186743 0)
(-0.27275 -0.258554 0)
(-0.265504 -0.32626 0)
(-0.245147 -0.380672 0)
(-0.20907 -0.409388 0)
(-0.15747 -0.3984 0)
(-0.0957393 -0.336827 0)
(-0.0373614 -0.224577 0)
(-0.00568455 -0.0777162 0)
(-0.00119904 0.0410445 0)
(-0.00741561 0.103894 0)
(-0.0190208 0.1488 0)
(-0.0326206 0.178825 0)
(-0.046507 0.197498 0)
(-0.0598141 0.208047 0)
(-0.0721081 0.213085 0)
(-0.0832785 0.214508 0)
(-0.0934225 0.213522 0)
(-0.102751 0.21073 0)
(-0.111533 0.206221 0)
(-0.120066 0.199664 0)
(-0.12866 0.190389 0)
(-0.137624 0.177467 0)
(-0.147256 0.159795 0)
(-0.157825 0.136188 0)
(-0.16954 0.105483 0)
(-0.182509 0.0666509 0)
(-0.196667 0.0189181 0)
(-0.21164 -0.0380808 0)
(-0.226608 -0.104101 0)
(-0.240095 -0.177925 0)
(-0.2497 -0.25676 0)
(-0.251924 -0.335301 0)
(-0.242304 -0.404484 0)
(-0.216283 -0.450406 0)
(-0.171224 -0.454763 0)
(-0.109768 -0.399244 0)
(-0.0453906 -0.275902 0)
(-0.0075164 -0.0990622 0)
(-0.00145232 0.0451839 0)
(-0.00858593 0.113807 0)
(-0.0213507 0.161707 0)
(-0.035522 0.192585 0)
(-0.0491031 0.210772 0)
(-0.0612073 0.22015 0)
(-0.0714793 0.223777 0)
(-0.079918 0.223826 0)
(-0.0867259 0.22166 0)
(-0.0922047 0.217962 0)
(-0.0967042 0.212867 0)
(-0.100602 0.206068 0)
(-0.1043 0.196912 0)
(-0.108221 0.184482 0)
(-0.112811 0.167676 0)
(-0.118528 0.145291 0)
(-0.12582 0.116112 0)
(-0.13509 0.0789992 0)
(-0.146628 0.0329746 0)
(-0.160493 -0.0226718 0)
(-0.176367 -0.0882528 0)
(-0.193304 -0.163378 0)
(-0.209387 -0.246395 0)
(-0.221319 -0.333337 0)
(-0.224167 -0.416213 0)
(-0.211716 -0.480827 0)
(-0.178145 -0.505361 0)
(-0.121911 -0.463028 0)
(-0.0542674 -0.333825 0)
(-0.00993383 -0.125169 0)
(-0.00193423 0.0501576 0)
(-0.0106048 0.125158 0)
(-0.0251667 0.17567 0)
(-0.0401553 0.206499 0)
(-0.053261 0.223161 0)
(-0.063683 0.230392 0)
(-0.0712559 0.231767 0)
(-0.0761747 0.229738 0)
(-0.078807 0.225804 0)
(-0.079582 0.22071 0)
(-0.0789493 0.214624 0)
(-0.0773738 0.207265 0)
(-0.0753448 0.198012 0)
(-0.0733892 0.185982 0)
(-0.0720792 0.17011 0)
(-0.0720332 0.149218 0)
(-0.0739033 0.12209 0)
(-0.0783466 0.0875387 0)
(-0.0859725 0.0444561 0)
(-0.0972502 -0.00812782 0)
(-0.112379 -0.0709872 0)
(-0.131053 -0.144497 0)
(-0.152096 -0.228223 0)
(-0.1729 -0.319929 0)
(-0.188756 -0.413635 0)
(-0.192483 -0.49644 0)
(-0.175253 -0.544758 0)
(-0.130257 -0.523579 0)
(-0.0637805 -0.396797 0)
(-0.0131774 -0.156761 0)
(-0.00284956 0.0566104 0)
(-0.0140488 0.138812 0)
(-0.031259 0.191184 0)
(-0.0472497 0.220562 0)
(-0.0594701 0.234255 0)
(-0.0674308 0.238097 0)
(-0.0713426 0.236233 0)
(-0.0717237 0.231363 0)
(-0.069185 0.22507 0)
(-0.0643265 0.218118 0)
(-0.0577173 0.210677 0)
(-0.0499118 0.202483 0)
(-0.0414774 0.192945 0)
(-0.0330219 0.181233 0)
(-0.0252126 0.166339 0)
(-0.0187859 0.147147 0)
(-0.0145455 0.122483 0)
(-0.0133447 0.0911644 0)
(-0.0160505 0.052033 0)
(-0.0234834 0.00396827 0)
(-0.0363098 -0.0541112 0)
(-0.0548736 -0.123181 0)
(-0.0788889 -0.203891 0)
(-0.106828 -0.295847 0)
(-0.134968 -0.395792 0)
(-0.156193 -0.493834 0)
(-0.159488 -0.567246 0)
(-0.132417 -0.574893 0)
(-0.0735083 -0.461959 0)
(-0.0175914 -0.194659 0)
(-0.00459555 0.0656813 0)
(-0.0198625 0.156018 0)
(-0.0406626 0.208748 0)
(-0.057464 0.2345 0)
(-0.0677901 0.243249 0)
(-0.0718884 0.242186 0)
(-0.0706323 0.236007 0)
(-0.0650303 0.22756 0)
(-0.0560251 0.21841 0)
(-0.0444275 0.209259 0)
(-0.0309353 0.200231 0)
(-0.0161821 0.191046 0)
(-0.000788307 0.181138 0)
(0.0145928 0.169727 0)
(0.0292445 0.155883 0)
(0.042366 0.138569 0)
(0.0530625 0.116689 0)
(0.0603527 0.0891169 0)
(0.0631878 0.0547148 0)
(0.0604829 0.012322 0)
(0.0511809 -0.0392829 0)
(0.0343513 -0.101435 0)
(0.00939855 -0.175561 0)
(-0.0234408 -0.262874 0)
(-0.062092 -0.363093 0)
(-0.100696 -0.470799 0)
(-0.127557 -0.56736 0)
(-0.125284 -0.609705 0)
(-0.0824749 -0.524627 0)
(-0.0235442 -0.239675 0)
(-0.00793343 0.079399 0)
(-0.0295403 0.178421 0)
(-0.0544543 0.228505 0)
(-0.0707208 0.247278 0)
(-0.0768092 0.248487 0)
(-0.0744389 0.2408 0)
(-0.0655388 0.229282 0)
(-0.0517915 0.21671 0)
(-0.0345426 0.204452 0)
(-0.0148218 0.19303 0)
(0.00656814 0.182438 0)
(0.0289556 0.17234 0)
(0.051718 0.162166 0)
(0.0742161 0.151183 0)
(0.0957468 0.138542 0)
(0.115511 0.123307 0)
(0.132593 0.104487 0)
(0.145956 0.0810597 0)
(0.154444 0.0519721 0)
(0.156788 0.0161228 0)
(0.151638 -0.0277048 0)
(0.137599 -0.0809409 0)
(0.11332 -0.14539 0)
(0.0777802 -0.223356 0)
(0.031044 -0.317183 0)
(-0.0234404 -0.426568 0)
(-0.0753867 -0.540397 0)
(-0.104391 -0.619666 0)
(-0.0883399 -0.577587 0)
(-0.0310458 -0.292248 0)
(-0.0142157 0.101344 0)
(-0.0451267 0.207688 0)
(-0.0726784 0.249294 0)
(-0.0841037 0.256116 0)
(-0.0809013 0.246641 0)
(-0.0673618 0.230699 0)
(-0.0468754 0.213217 0)
(-0.0218953 0.196488 0)
(0.00587016 0.181406 0)
(0.0352656 0.168135 0)
(0.065492 0.156446 0)
(0.0959468 0.145884 0)
(0.126105 0.135854 0)
(0.155432 0.125661 0)
(0.183326 0.114539 0)
(0.20907 0.101671 0)
(0.231804 0.0862034 0)
(0.250512 0.0672564 0)
(0.264009 0.0439255 0)
(0.270919 0.0152568 0)
(0.269702 -0.0198344 0)
(0.258638 -0.0626488 0)
(0.235804 -0.114984 0)
(0.199168 -0.179562 0)
(0.146985 -0.260443 0)
(0.0793987 -0.362078 0)
(0.00288357 -0.483069 0)
(-0.0625464 -0.59569 0)
(-0.0859343 -0.610413 0)
(-0.0387468 -0.3523 0)
(-0.0252857 0.137685 0)
(-0.0677737 0.243354 0)
(-0.0899343 0.265873 0)
(-0.0856046 0.254208 0)
(-0.0634427 0.231201 0)
(-0.0313071 0.206441 0)
(0.00601505 0.183626 0)
(0.0456402 0.163887 0)
(0.0858788 0.147276 0)
(0.125788 0.133415 0)
(0.164846 0.121765 0)
(0.202731 0.111724 0)
(0.23918 0.102661 0)
(0.273893 0.0939287 0)
(0.30647 0.0848656 0)
(0.336366 0.0747962 0)
(0.362859 0.0630357 0)
(0.38503 0.0488909 0)
(0.401748 0.0316573 0)
(0.411615 0.0105999 0)
(0.413026 -0.0151108 0)
(0.404091 -0.0464824 0)
(0.382539 -0.0850163 0)
(0.345684 -0.133196 0)
(0.290384 -0.19551 0)
(0.213633 -0.279582 0)
(0.116407 -0.393744 0)
(0.0125149 -0.528754 0)
(-0.0651464 -0.609011 0)
(-0.041891 -0.418641 0)
(-0.0407674 0.199564 0)
(-0.0890713 0.275662 0)
(-0.0791143 0.260718 0)
(-0.0371597 0.225457 0)
(0.0177598 0.190039 0)
(0.0761345 0.159721 0)
(0.133685 0.135263 0)
(0.188521 0.115956 0)
(0.239983 0.100777 0)
(0.28802 0.0887795 0)
(0.332828 0.0791572 0)
(0.374653 0.0712244 0)
(0.413674 0.0643793 0)
(0.449947 0.0580756 0)
(0.483359 0.0518023 0)
(0.513598 0.0450703 0)
(0.540138 0.037405 0)
(0.562225 0.0283411 0)
(0.578866 0.0174115 0)
(0.588766 0.00412282 0)
(0.590433 -0.0119537 0)
(0.581972 -0.0314917 0)
(0.561047 -0.0554991 0)
(0.524743 -0.0857405 0)
(0.469187 -0.125836 0)
(0.38909 -0.18362 0)
(0.279402 -0.273937 0)
(0.141608 -0.410552 0)
(-0.00578703 -0.553213 0)
(-0.026016 -0.476502 0)
(-0.0335736 0.294891 0)
(-0.0461735 0.274669 0)
(0.0565424 0.201179 0)
(0.159917 0.150231 0)
(0.251807 0.114113 0)
(0.331829 0.0880215 0)
(0.401123 0.0694388 0)
(0.461148 0.0562161 0)
(0.513491 0.0466653 0)
(0.559607 0.0396206 0)
(0.600682 0.0342914 0)
(0.63761 0.0301144 0)
(0.671021 0.0266623 0)
(0.701289 0.0235917 0)
(0.728552 0.0206112 0)
(0.752711 0.0174627 0)
(0.773437 0.0139109 0)
(0.790173 0.00973957 0)
(0.802114 0.0047481 0)
(0.808324 -0.00124102 0)
(0.807582 -0.00844863 0)
(0.798248 -0.017178 0)
(0.778405 -0.0278421 0)
(0.745507 -0.0412753 0)
(0.695809 -0.0594005 0)
(0.623198 -0.0871414 0)
(0.517583 -0.137829 0)
(0.364172 -0.240838 0)
(0.143387 -0.407134 0)
(0.058602 -0.458282 0)
(0.30347 0.181064 0)
(0.383443 0.144775 0)
(0.562673 0.0916915 0)
(0.689206 0.0593266 0)
(0.771928 0.0393776 0)
(0.830822 0.026576 0)
(0.875371 0.0184204 0)
(0.910136 0.0132639 0)
(0.938048 0.00996593 0)
(0.961134 0.00780474 0)
(0.980737 0.00634111 0)
(0.997725 0.00530155 0)
(1.01264 0.0045072 0)
(1.02579 0.00383419 0)
(1.0373 0.00319106 0)
(1.04712 0.0025059 0)
(1.0551 0.00171941 0)
(1.06092 0.000783864 0)
(1.06419 -0.000337715 0)
(1.06438 -0.00162681 0)
(1.06084 -0.00320287 0)
(1.05284 -0.00511903 0)
(1.03949 -0.00743037 0)
(1.01948 -0.0103124 0)
(0.990743 -0.0142303 0)
(0.94919 -0.02049 0)
(0.885153 -0.0329421 0)
(0.776922 -0.0640522 0)
(0.54496 -0.139632 0)
(0.382488 -0.20181 0)
)
;

boundaryField
{
    movingWall
    {
        type            fixedValue;
        value           uniform (1.2 0 0);
    }
    fixedWalls
    {
        type            noSlip;
    }
    frontAndBack
    {
        type            empty;
    }
}


// ************************************************************************* //
