/*--------------------------------*- C++ -*----------------------------------*\
  =========                 |
  \\      /  F ield         | OpenFOAM: The Open Source CFD Toolbox
   \\    /   O peration     | Website:  https://openfoam.org
    \\  /    A nd           | Version:  7
     \\/     M anipulation  |
\*---------------------------------------------------------------------------*/
FoamFile
{
    version     2.0;
    format      ascii;
    class       volScalarField;
    location    "0.2";
    object      p;
}
// * * * * * * * * * * * * * * * * * * * * * * * * * * * * * * * * * * * * * //

dimensions      [0 2 -2 0 0 0 0];

internalField   nonuniform List<scalar> 
900
(
2.41057e-08
-0.000268522
-0.000288751
-5.0765e-05
0.000443757
0.00118583
0.00216153
0.00335512
0.00474932
0.00632495
0.00806067
0.00993315
0.0119172
0.0139859
0.0161112
0.0182637
0.0204133
0.0225294
0.0245814
0.026539
0.0283724
0.0300532
0.0315545
0.0328515
0.0339213
0.0347434
0.0353
0.0355802
0.0355813
0.0353139
0.000259519
-1.24675e-05
9.10573e-07
0.000260663
0.000755338
0.00148478
0.00244072
0.00360984
0.00497609
0.006521
0.00822378
0.0100615
0.0120095
0.0140412
0.0161289
0.0182436
0.0203556
0.0224348
0.0244509
0.0263739
0.0281745
0.0298247
0.0312981
0.0325706
0.0336206
0.0344299
0.0349861
0.0352872
0.0353212
0.03505
0.000275179
-4.10369e-05
-3.05655e-05
0.000234546
0.000731421
0.00146102
0.00241628
0.00358446
0.00494994
0.00649451
0.00819754
0.0100362
0.0119858
0.0140198
0.0161105
0.0182289
0.0203451
0.022429
0.0244501
0.0263783
0.0281841
0.0298393
0.0313174
0.0325941
0.033648
0.034461
0.0350218
0.0353289
0.0353587
0.0350406
3.58853e-05
-0.000320999
-0.000321129
-5.43337e-05
0.000448841
0.00118842
0.00215704
0.00334179
0.00472695
0.00629421
0.00802276
0.00988957
0.0118696
0.0139362
0.0160612
0.0182152
0.0203679
0.0224887
0.0245466
0.0265107
0.0283511
0.0300388
0.0315465
0.0328493
0.0339251
0.0347551
0.0353271
0.0356383
0.0356575
0.0352963
-0.000464946
-0.000850775
-0.00085868
-0.000587625
-7.22212e-05
0.000686832
0.00168165
0.00289885
0.00432228
0.00593322
0.00771039
0.00963027
0.0116673
0.0137941
0.015982
0.0182009
0.0204198
0.0226071
0.0247309
0.0267593
0.0286614
0.0304068
0.0319672
0.0333163
0.0344308
0.0352905
0.0358823
0.0362022
0.0362147
0.0358227
-0.00123455
-0.00164597
-0.00165937
-0.00138003
-0.000845274
-5.62682e-05
0.000978505
0.00224494
0.00372622
0.00540288
0.00725289
0.00925192
0.0113736
0.0135897
0.0158705
0.018185
0.0205011
0.0227859
0.0250063
0.0271291
0.0291214
0.0309515
0.0325891
0.0340063
0.0351777
0.0360815
0.0367031
0.0370376
0.0370467
0.0366271
-0.00228149
-0.00272059
-0.00273811
-0.00244592
-0.00188393
-0.00105369
3.56134e-05
0.00136897
0.00292857
0.00469396
0.00664203
0.00874737
0.0109825
0.013318
0.0157229
0.018165
0.0206107
0.0230257
0.0253752
0.0276239
0.0297371
0.0316806
0.0334219
0.0349306
0.0361788
0.0371426
0.0378054
0.0381612
0.0381692
0.0377195
-0.00361901
-0.00409036
-0.00411114
-0.00380118
-0.00320348
-0.00231996
-0.00116066
0.000258236
0.00191766
0.00379582
0.00586826
0.00810817
0.0104866
0.0129729
0.0155344
0.0181375
0.0207468
0.0233263
0.0258389
0.0282473
0.030514
0.032602
0.0344758
0.0361018
0.037449
0.0384903
0.039207
0.0395918
0.0396006
0.0391157
-0.00526582
-0.00577542
-0.00579892
-0.00546598
-0.00482341
-0.00387362
-0.00262772
-0.00110341
0.000678651
0.00269501
0.00491952
0.00732368
0.00987688
0.0125467
0.0152989
0.018098
0.0209068
0.023687
0.0263993
0.0290034
0.031459
0.0337256
0.0357637
0.0375357
0.0390068
0.0401458
0.0409308
0.0413532
0.0413647
0.0408376
-0.00724582
-0.00780082
-0.00782673
-0.00746518
-0.0067677
-0.00573743
-0.0043869
-0.00273569
-0.000806472
0.00137524
0.00378125
0.00638103
0.00914206
0.01203
0.0150088
0.0180408
0.021087
0.0241066
0.0270576
0.0298968
0.0325801
0.0350628
0.0373009
0.0392516
0.040875
0.0421348
0.0430052
0.0434751
0.0434911
0.0429137
-0.00958837
-0.0101971
-0.0102252
-0.00982873
-0.00906516
-0.00793863
-0.00646356
-0.00466194
-0.00255895
-0.000182635
0.00243635
0.00526514
0.008269
0.0114115
0.0146547
0.0179588
0.0212825
0.0245829
0.0278148
0.0309318
0.0338855
0.0366264
0.0391049
0.0412719
0.0430808
0.0444888
0.0454645
0.0459938
0.0460166
0.0453791
-0.0123287
-0.0130009
-0.0130309
-0.0125925
-0.01175
-0.0105094
-0.00888752
-0.00690941
-0.00460343
-0.00200072
0.000865134
0.00395858
0.00724244
0.0106781
0.0142255
0.0178429
0.021487
0.0251122
0.0286706
0.032112
0.0353836
0.0384302
0.0411954
0.0436224
0.045656
0.047245
0.0483504
0.0489536
0.0489861
0.0482766
-0.0155091
-0.0162562
-0.016288
-0.015799
-0.0148629
-0.0134876
-0.0116935
-0.00950955
-0.00696814
-0.00410418
-0.000954749
0.00244153
0.00604484
0.00981429
0.0137079
0.0176821
0.0216916
0.0256887
0.0296227
0.0334397
0.037082
0.040488
0.0435934
0.046332
0.0486376
0.0504475
0.0517128
0.0524079
0.0524537
0.0516577
-0.0191795
-0.0200157
-0.0200489
-0.0194991
-0.0184515
-0.0169173
-0.0149215
-0.0124983
-0.00968497
-0.00652123
-0.00304822
0.000691913
0.00465652
0.00880251
0.0130861
0.0174625
0.0218848
0.0263036
0.0306659
0.0349143
0.0389861
0.0428129
0.0463209
0.0494324
0.0520675
0.0541482
0.0556114
0.0564217
0.0564857
0.055585
-0.0234002
-0.0243427
-0.0243765
-0.023753
-0.022572
-0.0208499
-0.0186175
-0.0159161
-0.0127894
-0.00928283
-0.00544244
-0.00131433
0.0030559
0.00762308
0.0123422
0.0171674
0.0220515
0.0269442
0.0317909
0.0365313
0.0410979
0.0454153
0.049399
0.0529574
0.0559928
0.0584072
0.0601178
0.061074
0.061163
0.0601341
-0.0282432
-0.0293141
-0.029347
-0.0286328
-0.0272908
-0.0253446
-0.0228337
-0.0198082
-0.0163202
-0.0124222
-0.00816618
-0.00360255
0.00122003
0.00625466
0.0114556
0.0167774
0.0221732
0.0275933
0.0329828
0.03828
0.0434136
0.0483008
0.052846
0.0569406
0.0604652
0.0632946
0.0653178
0.0664618
0.0665858
0.0653975
-0.0337963
-0.0350238
-0.035053
-0.0342252
-0.0326862
-0.0304703
-0.0276289
-0.0242243
-0.0203189
-0.0159742
-0.011249
-0.00619858
-0.000874626
0.00467479
0.0104042
0.0162697
0.0222266
0.0282276
0.0342198
0.0401419
0.0459205
0.0514669
0.0566737
0.0614136
0.0655395
0.0688902
0.071315
0.0727056
0.0728798
0.0714893
-0.0401678
-0.0415892
-0.041609
-0.0406354
-0.0388508
-0.0363061
-0.0330693
-0.0292182
-0.024829
-0.0199738
-0.0147197
-0.00912737
-0.00325102
0.00286082
0.00916431
0.0156186
0.0221836
0.0288169
0.0354705
0.0420867
0.0485933
0.0548979
0.0608828
0.0664004
0.0712703
0.0752842
0.0782344
0.0799573
0.0802062
0.078553
-0.047494
-0.0491597
-0.049159
-0.0479924
-0.0458956
-0.0429439
-0.0392282
-0.0348472
-0.0298942
-0.0244547
-0.0186049
-0.012411
-0.00592968
0.000791463
0.00771186
0.0147959
0.0220111
0.0293229
0.0366922
0.0440694
0.0513883
0.058558
0.0654541
0.0719095
0.077706
0.0825744
0.0862263
0.0884111
0.0887764
0.0867721
-0.0559521
-0.0579308
-0.0578879
-0.0564572
-0.0539536
-0.0504892
-0.0461861
-0.0411703
-0.0355565
-0.0294459
-0.022925
-0.0160657
-0.00892582
-0.00155062
0.00602488
0.0137735
0.0216718
0.0296988
0.0378286
0.046026
0.0542379
0.0623828
0.0703375
0.0779209
0.0848761
0.0908591
0.0954692
0.0983191
0.0988777
0.0963909
-0.065781
-0.0681667
-0.0680385
-0.0662325
-0.0631855
-0.0590629
-0.0540292
-0.0482452
-0.0418516
-0.0349676
-0.0276907
-0.0200975
-0.0122456
-0.00417545
0.00408595
0.0125226
0.0211254
0.0298897
0.0388091
0.0478702
0.0570427
0.0662668
0.0754346
0.0843647
0.0927689
0.10022
0.106168
0.110013
0.110915
0.107753
-0.0773204
-0.0802378
-0.0799368
-0.077577
-0.0737849
-0.0688017
-0.0628467
-0.0561235
-0.0488035
-0.0410253
-0.0328969
-0.0244975
-0.0158813
-0.00708148
0.00188665
0.0110216
0.0203324
0.029835
0.0395489
0.0494906
0.0596649
0.0700502
0.0805763
0.091088
0.101291
0.110684
0.118535
0.12393
0.125482
0.121387
-0.0910881
-0.0946839
-0.0940297
-0.0908229
-0.0859848
-0.0798569
-0.0727248
-0.0648428
-0.0564159
-0.0476017
-0.0385152
-0.0292344
-0.0198058
-0.0102503
-0.000567822
0.00925833
0.0192583
0.0294727
0.0399525
0.0507522
0.0619242
0.0735054
0.0854942
0.0978066
0.110198
0.122144
0.132737
0.140624
0.143475
0.138204
-0.107944
-0.11232
-0.110936
-0.106396
-0.10006
-0.0923875
-0.0837349
-0.0744125
-0.0646579
-0.0546428
-0.0444823
-0.0342452
-0.0239631
-0.0136384
-0.00325094
0.0072382
0.0178828
0.0287492
0.0399239
0.0515052
0.0636028
0.0763318
0.089796
0.104047
0.11899
0.134214
0.148756
0.160747
0.166298
0.160028
-0.129464
-0.13441
-0.131495
-0.124818
-0.116314
-0.106534
-0.0959015
-0.0847808
-0.0734335
-0.0620322
-0.050678
-0.0394165
-0.0282532
-0.0171635
-0.00610107
0.00499935
0.0162188
0.0276385
0.03939
0.0516125
0.0644748
0.0781807
0.0929699
0.1091
0.126774
0.14596
0.166048
0.184852
0.196172
0.19082
-0.158849
-0.162973
-0.156786
-0.146663
-0.135
-0.122322
-0.1091
-0.0957382
-0.082497
-0.0695207
-0.0568677
-0.0445378
-0.0324928
-0.0206699
-0.00898981
0.0026439
0.014353
0.0261847
0.0383537
0.0510191
0.0643959
0.0787667
0.0945088
0.112126
0.132256
0.155626
0.182868
0.212527
0.235874
0.238111
-0.203022
-0.201218
-0.188048
-0.172316
-0.155981
-0.139289
-0.122706
-0.10662
-0.0912175
-0.0765449
-0.062565
-0.0491949
-0.0363302
-0.023857
-0.0116578
0.000386409
0.0123903
0.024564
0.0369924
0.0498876
0.0634981
0.0781555
0.0943381
0.11277
0.134546
0.161403
0.196558
0.241582
0.287317
0.313599
-0.277186
-0.251862
-0.225127
-0.200258
-0.17705
-0.155107
-0.134595
-0.115627
-0.0981295
-0.081934
-0.0668379
-0.0526402
-0.0391544
-0.0262106
-0.0136528
-0.0013341
0.0108922
0.0231952
0.035727
0.0486859
0.0623328
0.0770258
0.0933161
0.112125
0.13508
0.164697
0.20825
0.272727
0.354433
0.447065
-0.421905
-0.306331
-0.256029
-0.218472
-0.188158
-0.162109
-0.139222
-0.118839
-0.100462
-0.0837013
-0.0682338
-0.0537862
-0.0401293
-0.0270688
-0.0144344
-0.00206979
0.0101755
0.0224538
0.0349593
0.0478558
0.0614239
0.0760505
0.092363
0.111508
0.135765
0.16991
0.224633
0.316536
0.458964
0.731894
-0.753254
-0.351158
-0.234437
-0.196104
-0.169987
-0.147833
-0.128634
-0.111244
-0.0950225
-0.0797587
-0.0653427
-0.0516523
-0.0385575
-0.0259293
-0.0136412
-0.00156649
0.0104244
0.0224644
0.0346825
0.0473243
0.0606164
0.0749364
0.0909317
0.109852
0.134423
0.171127
0.236007
0.366188
0.629683
1.20084
)
;

boundaryField
{
    movingWall
    {
        type            zeroGradient;
    }
    fixedWalls
    {
        type            zeroGradient;
    }
    frontAndBack
    {
        type            empty;
    }
}


// ************************************************************************* //
