/*--------------------------------*- C++ -*----------------------------------*\
  =========                 |
  \\      /  F ield         | OpenFOAM: The Open Source CFD Toolbox
   \\    /   O peration     | Website:  https://openfoam.org
    \\  /    A nd           | Version:  7
     \\/     M anipulation  |
\*---------------------------------------------------------------------------*/
FoamFile
{
    version     2.0;
    format      ascii;
    class       volVectorField;
    location    "0.2";
    object      U;
}
// * * * * * * * * * * * * * * * * * * * * * * * * * * * * * * * * * * * * * //

dimensions      [0 1 -1 0 0 0 0];

internalField   nonuniform List<vector> 
900
(
(-3.74151e-05 3.62582e-05 0)
(-0.000393637 0.000207466 0)
(-0.0011127 0.00028921 0)
(-0.00191935 0.000306679 0)
(-0.00272452 0.000299697 0)
(-0.00349812 0.000284361 0)
(-0.00422588 0.000265124 0)
(-0.00489847 0.000242979 0)
(-0.0055082 0.00021815 0)
(-0.00604807 0.000190808 0)
(-0.00651174 0.000161192 0)
(-0.00689371 0.000129596 0)
(-0.0071893 9.6344e-05 0)
(-0.00739477 6.1776e-05 0)
(-0.00750728 2.62473e-05 0)
(-0.00752496 -9.87222e-06 0)
(-0.00744694 -4.61991e-05 0)
(-0.00727336 -8.23273e-05 0)
(-0.00700543 -0.00011783 0)
(-0.00664551 -0.000152262 0)
(-0.00619709 -0.000185164 0)
(-0.00566489 -0.00021608 0)
(-0.00505478 -0.000244588 0)
(-0.00437374 -0.00027032 0)
(-0.00362991 -0.000292845 0)
(-0.00283358 -0.000310927 0)
(-0.00200061 -0.000319791 0)
(-0.00116315 -0.000302882 0)
(-0.00041536 -0.00021963 0)
(-4.09238e-05 -4.17224e-05 0)
(-0.000209985 0.000393358 0)
(-0.00108919 0.00108138 0)
(-0.00256354 0.00139419 0)
(-0.0041865 0.00146874 0)
(-0.0058046 0.00144108 0)
(-0.00736419 0.00137136 0)
(-0.00883416 0.00127959 0)
(-0.0101929 0.00117184 0)
(-0.0114233 0.0010503 0)
(-0.0125108 0.000916457 0)
(-0.0134427 0.000771785 0)
(-0.014208 0.000617865 0)
(-0.0147977 0.000456339 0)
(-0.0152046 0.000288896 0)
(-0.0154235 0.000117266 0)
(-0.015451 -5.67754e-05 0)
(-0.0152857 -0.000231392 0)
(-0.0149284 -0.000404674 0)
(-0.0143817 -0.000574628 0)
(-0.0136507 -0.000739173 0)
(-0.0127427 -0.000896164 0)
(-0.0116672 -0.00104342 0)
(-0.0104363 -0.00117878 0)
(-0.00906452 -0.00130001 0)
(-0.00756958 -0.00140411 0)
(-0.0059746 -0.00148402 0)
(-0.00431322 -0.00151832 0)
(-0.00264295 -0.00144481 0)
(-0.00112419 -0.00112427 0)
(-0.000216724 -0.000412721 0)
(-0.000296913 0.00112037 0)
(-0.0014377 0.00256682 0)
(-0.00327632 0.00319578 0)
(-0.00527573 0.00335019 0)
(-0.00726044 0.00328981 0)
(-0.00917173 0.00313353 0)
(-0.0109727 0.00292439 0)
(-0.0126366 0.00267693 0)
(-0.0141424 0.00239718 0)
(-0.0154723 0.00208917 0)
(-0.0166106 0.00175663 0)
(-0.0175443 0.00140337 0)
(-0.0182626 0.00103321 0)
(-0.0187569 0.00065006 0)
(-0.0190211 0.000257863 0)
(-0.0190514 -0.000139348 0)
(-0.0188463 -0.000537429 0)
(-0.0184066 -0.000932091 0)
(-0.0177358 -0.00131886 0)
(-0.01684 -0.00169309 0)
(-0.015728 -0.00204995 0)
(-0.0144114 -0.00238446 0)
(-0.012905 -0.00269156 0)
(-0.0112266 -0.00296573 0)
(-0.00939791 -0.0031993 0)
(-0.00744739 -0.00337565 0)
(-0.00541482 -0.00344889 0)
(-0.00336353 -0.00329584 0)
(-0.00147665 -0.00265047 0)
(-0.00030504 -0.00116023 0)
(-0.000328497 0.00196586 0)
(-0.00158781 0.00426559 0)
(-0.00360749 0.00523317 0)
(-0.00579157 0.00546518 0)
(-0.00795227 0.00536262 0)
(-0.0100298 0.00510715 0)
(-0.0119858 0.00476539 0)
(-0.0137917 0.00436062 0)
(-0.0154251 0.00390299 0)
(-0.0168668 0.00339943 0)
(-0.0181003 0.00285627 0)
(-0.0191115 0.0022798 0)
(-0.0198892 0.00167633 0)
(-0.0204244 0.00105218 0)
(-0.0207105 0.000413741 0)
(-0.0207436 -0.000232511 0)
(-0.0205219 -0.000879938 0)
(-0.0200464 -0.00152167 0)
(-0.0193206 -0.00215054 0)
(-0.0183509 -0.00275908 0)
(-0.0171463 -0.00333947 0)
(-0.0157192 -0.00388365 0)
(-0.0140853 -0.00438323 0)
(-0.0122635 -0.00482901 0)
(-0.0102771 -0.00520824 0)
(-0.00815655 -0.00549442 0)
(-0.00594334 -0.00561641 0)
(-0.00370243 -0.00538602 0)
(-0.00162992 -0.0043929 0)
(-0.000337303 -0.00202708 0)
(-0.00034417 0.00286075 0)
(-0.00167566 0.00606831 0)
(-0.00381568 0.00738916 0)
(-0.00612559 0.00769657 0)
(-0.00840657 0.00754531 0)
(-0.010597 0.00718297 0)
(-0.0126573 0.0067002 0)
(-0.0145581 0.006129 0)
(-0.0162762 0.00548372 0)
(-0.0177919 0.00477431 0)
(-0.0190882 0.00400984 0)
(-0.020151 0.00319922 0)
(-0.0209687 0.0023513 0)
(-0.0215322 0.00147488 0)
(-0.0218349 0.0005788 0)
(-0.0218725 -0.000328034 0)
(-0.0216433 -0.0012365 0)
(-0.0211479 -0.00213715 0)
(-0.0203896 -0.00302011 0)
(-0.0193743 -0.003875 0)
(-0.0181112 -0.00469096 0)
(-0.0166126 -0.00545661 0)
(-0.0148942 -0.00616006 0)
(-0.0129756 -0.00678819 0)
(-0.0108807 -0.00732301 0)
(-0.00864104 -0.00772795 0)
(-0.00629985 -0.00790605 0)
(-0.00392464 -0.00760066 0)
(-0.00172373 -0.00624429 0)
(-0.000354156 -0.00294569 0)
(-0.000359891 0.00379756 0)
(-0.00176156 0.0079655 0)
(-0.00401939 0.00965854 0)
(-0.00645517 0.0100427 0)
(-0.00885792 0.0098375 0)
(-0.0111628 0.00936072 0)
(-0.0133286 0.00872823 0)
(-0.015325 0.00798118 0)
(-0.0171279 0.00713833 0)
(-0.0187175 0.00621284 0)
(-0.0200765 0.00521667 0)
(-0.0211909 0.00416142 0)
(-0.0220489 0.00305854 0)
(-0.0226417 0.00191929 0)
(-0.0229625 0.000754891 0)
(-0.0230069 -0.000423394 0)
(-0.0227729 -0.00160405 0)
(-0.0222606 -0.00277514 0)
(-0.0214728 -0.00392411 0)
(-0.0204151 -0.0050377 0)
(-0.0190959 -0.00610184 0)
(-0.0175271 -0.00710171 0)
(-0.0157244 -0.00802167 0)
(-0.0137075 -0.00884433 0)
(-0.011501 -0.00954605 0)
(-0.00913784 -0.0100796 0)
(-0.00666347 -0.0103204 0)
(-0.00414973 -0.00993897 0)
(-0.00181893 -0.00819873 0)
(-0.000371754 -0.00391018 0)
(-0.000380179 0.00478418 0)
(-0.00186603 0.00997043 0)
(-0.00426232 0.0120578 0)
(-0.00684659 0.0125215 0)
(-0.00939356 0.0122571 0)
(-0.0118341 0.0116571 0)
(-0.0141247 0.0108645 0)
(-0.0162335 0.00993035 0)
(-0.0181361 0.00887816 0)
(-0.019812 0.00772462 0)
(-0.0212442 0.00648474 0)
(-0.0224186 0.00517295 0)
(-0.0233238 0.00380329 0)
(-0.0239511 0.00238943 0)
(-0.0242937 0.000944852 0)
(-0.0243472 -0.000516989 0)
(-0.0241091 -0.00198236 0)
(-0.0235789 -0.00343697 0)
(-0.0227588 -0.00486571 0)
(-0.0216532 -0.00625243 0)
(-0.0202699 -0.00757983 0)
(-0.01862 -0.00882942 0)
(-0.0167187 -0.00998146 0)
(-0.0145858 -0.0110138 0)
(-0.0122465 -0.0118966 0)
(-0.00973548 -0.0125706 0)
(-0.00710144 -0.0128817 0)
(-0.00442197 -0.0124217 0)
(-0.00193623 -0.0102731 0)
(-0.000394646 -0.0049303 0)
(-0.000406169 0.00583361 0)
(-0.00199587 0.0121063 0)
(-0.00456048 0.0146138 0)
(-0.00732469 0.0151605 0)
(-0.0100462 0.0148303 0)
(-0.0126504 0.0140963 0)
(-0.015091 0.0131307 0)
(-0.0173346 0.0119954 0)
(-0.0193558 0.0107194 0)
(-0.0211341 0.00932321 0)
(-0.0226527 0.00782522 0)
(-0.0238979 0.00624278 0)
(-0.0248588 0.00459251 0)
(-0.0255269 0.00289039 0)
(-0.0258958 0.00115196 0)
(-0.0259609 -0.000607385 0)
(-0.0257192 -0.00237195 0)
(-0.0251695 -0.00412537 0)
(-0.0243128 -0.00585014 0)
(-0.0231525 -0.00752733 0)
(-0.0216947 -0.00913633 0)
(-0.0199495 -0.0106548 0)
(-0.0179312 -0.0120584 0)
(-0.0156593 -0.0133197 0)
(-0.0131599 -0.0144014 0)
(-0.0104694 -0.015231 0)
(-0.00764068 -0.0156219 0)
(-0.00475866 -0.0150805 0)
(-0.00208297 -0.0124947 0)
(-0.00042407 -0.00602111 0)
(-0.000438331 0.00696102 0)
(-0.00215444 0.0144018 0)
(-0.00492231 0.0173597 0)
(-0.00790291 0.0179929 0)
(-0.0108334 0.0175885 0)
(-0.0136328 0.0167067 0)
(-0.0162513 0.0155518 0)
(-0.0186536 0.0141979 0)
(-0.0208137 0.0126803 0)
(-0.0227113 0.0110238 0)
(-0.0243299 0.00925047 0)
(-0.0256568 0.00738073 0)
(-0.0266818 0.00543378 0)
(-0.0273973 0.00342772 0)
(-0.0277972 0.00137985 0)
(-0.0278768 -0.000692857 0)
(-0.0276326 -0.00277318 0)
(-0.0270624 -0.00484303 0)
(-0.0261658 -0.00688285 0)
(-0.0249442 -0.00887111 0)
(-0.023402 -0.0107839 0)
(-0.0215472 -0.0125946 0)
(-0.0193927 -0.0142741 0)
(-0.0169572 -0.0157884 0)
(-0.0142672 -0.0170919 0)
(-0.0113616 -0.0180968 0)
(-0.00829809 -0.0185798 0)
(-0.00517049 -0.0179543 0)
(-0.00226349 -0.0148971 0)
(-0.000460686 -0.00720022 0)
(-0.000477232 0.00818312 0)
(-0.00234509 0.0168897 0)
(-0.00535579 0.0203333 0)
(-0.00859373 0.0210561 0)
(-0.0117714 0.0205663 0)
(-0.0148003 0.0195192 0)
(-0.0176263 0.0181547 0)
(-0.0202123 0.0165607 0)
(-0.0225319 0.0147797 0)
(-0.0245652 0.0128416 0)
(-0.0262969 0.0107726 0)
(-0.0277157 0.00859637 0)
(-0.0288129 0.00633454 0)
(-0.029582 0.00400703 0)
(-0.0300176 0.0016325 0)
(-0.030115 -0.000771061 0)
(-0.0298704 -0.00318548 0)
(-0.0292802 -0.00559154 0)
(-0.0283419 -0.0079681 0)
(-0.0270544 -0.0102914 0)
(-0.0254193 -0.0125342 0)
(-0.0234417 -0.0146656 0)
(-0.0211321 -0.0166507 0)
(-0.0185077 -0.0184485 0)
(-0.0155948 -0.0200028 0)
(-0.0124348 -0.021208 0)
(-0.00909113 -0.0217997 0)
(-0.00566862 -0.0210883 0)
(-0.00248253 -0.0175193 0)
(-0.000505336 -0.00848733 0)
(-0.000523722 0.00951854 0)
(-0.00257216 0.0196068 0)
(-0.00587073 0.023577 0)
(-0.0094122 0.0243918 0)
(-0.0128795 0.0238017 0)
(-0.0161749 0.022567 0)
(-0.0192398 0.0209673 0)
(-0.0220351 0.0191066 0)
(-0.0245343 0.0170358 0)
(-0.0267188 0.0147911 0)
(-0.0285755 0.0124029 0)
(-0.0300952 0.00989839 0)
(-0.0312715 0.00730155 0)
(-0.0320997 0.00463369 0)
(-0.0325756 0.00191415 0)
(-0.032695 -0.000838811 0)
(-0.0324533 -0.00360691 0)
(-0.0318453 -0.00637062 0)
(-0.0308658 -0.00910799 0)
(-0.0295105 -0.0117935 0)
(-0.0277767 -0.014397 0)
(-0.0256654 -0.016883 0)
(-0.0231832 -0.0192103 0)
(-0.0203443 -0.0213292 0)
(-0.0171744 -0.0231712 0)
(-0.0137167 -0.0246092 0)
(-0.0100416 -0.0253318 0)
(-0.00626725 -0.0245342 0)
(-0.00274635 -0.0204061 0)
(-0.000559232 -0.00990498 0)
(-0.000578993 0.0109886 0)
(-0.00284144 0.0225953 0)
(-0.00647988 0.0271393 0)
(-0.0103776 0.0280468 0)
(-0.0141819 0.0273364 0)
(-0.0177843 0.0258855 0)
(-0.021121 0.0240186 0)
(-0.024151 0.0218583 0)
(-0.026849 0.0194661 0)
(-0.0291986 0.016885 0)
(-0.0311898 0.0141508 0)
(-0.0328172 0.0112939 0)
(-0.0340778 0.00834047 0)
(-0.0349696 0.00531253 0)
(-0.0354902 0.00222925 0)
(-0.0356362 -0.000891907 0)
(-0.0354023 -0.0040337 0)
(-0.0347814 -0.0071775 0)
(-0.0337648 -0.0103016 0)
(-0.0323435 -0.0133796 0)
(-0.0305092 -0.016379 0)
(-0.0282569 -0.0192598 0)
(-0.025587 -0.0219737 0)
(-0.0225092 -0.0244606 0)
(-0.0190463 -0.0266373 0)
(-0.0152434 -0.0283507 0)
(-0.0111782 -0.0292342 0)
(-0.00698521 -0.0283526 0)
(-0.00306335 -0.0236102 0)
(-0.000624062 -0.0114795 0)
(-0.000644679 0.0126183 0)
(-0.00316068 0.0259046 0)
(-0.00720011 0.031076 0)
(-0.011515 0.0320741 0)
(-0.0157099 0.0312168 0)
(-0.0196634 0.0295127 0)
(-0.0233059 0.027338 0)
(-0.0265957 0.0248378 0)
(-0.0295093 0.0220859 0)
(-0.0320347 0.0191339 0)
(-0.0341669 0.0160232 0)
(-0.0359057 0.0127877 0)
(-0.0372531 0.00945517 0)
(-0.0382111 0.00604745 0)
(-0.0387802 0.00258233 0)
(-0.0389581 -0.00092495 0)
(-0.038739 -0.00445978 0)
(-0.0381133 -0.00800604 0)
(-0.037068 -0.0115438 0)
(-0.035588 -0.0150473 0)
(-0.0336573 -0.0184824 0)
(-0.0312622 -0.021805 0)
(-0.0283942 -0.0249592 0)
(-0.0250551 -0.027873 0)
(-0.0212627 -0.0304444 0)
(-0.017062 -0.0324888 0)
(-0.0125389 -0.0335743 0)
(-0.00784789 -0.0326156 0)
(-0.00344499 -0.0271952 0)
(-0.000702139 -0.0132427 0)
(-0.000723013 0.0144374 0)
(-0.00354037 0.0295934 0)
(-0.00805398 0.0354529 0)
(-0.0128577 0.0365349 0)
(-0.0175041 0.0354942 0)
(-0.0218566 0.0334888 0)
(-0.0258398 0.030955 0)
(-0.0294123 0.0280648 0)
(-0.0325549 0.0249074 0)
(-0.035262 0.0215442 0)
(-0.0375364 0.0180229 0)
(-0.0393855 0.0143811 0)
(-0.0408183 0.0106468 0)
(-0.0418426 0.00684083 0)
(-0.0424628 0.00297781 0)
(-0.0426785 -0.000931138 0)
(-0.0424836 -0.00487609 0)
(-0.0418655 -0.0088456 0)
(-0.0408062 -0.0128238 0)
(-0.0392822 -0.0167873 0)
(-0.0372675 -0.0207023 0)
(-0.0347361 -0.0245214 0)
(-0.0316668 -0.0281808 0)
(-0.028049 -0.0315946 0)
(-0.023891 -0.0346382 0)
(-0.0192351 -0.0370876 0)
(-0.0141752 -0.0384318 0)
(-0.00888998 -0.0374107 0)
(-0.00390704 -0.0312387 0)
(-0.000796651 -0.0152331 0)
(-0.000817093 0.0164825 0)
(-0.0039949 0.0337331 0)
(-0.00907207 0.0403485 0)
(-0.0144499 0.0415003 0)
(-0.0196176 0.0402262 0)
(-0.0244211 0.0378563 0)
(-0.0287794 0.0348978 0)
(-0.0326537 0.0315556 0)
(-0.0360323 0.0279374 0)
(-0.0389199 0.0241164 0)
(-0.0413304 0.0201472 0)
(-0.0432821 0.01607 0)
(-0.0447936 0.0119128 0)
(-0.0458804 0.00769276 0)
(-0.0465524 0.00341964 0)
(-0.0468122 -0.000902073 0)
(-0.0466536 -0.00526984 0)
(-0.0460611 -0.00967975 0)
(-0.0450099 -0.0141229 0)
(-0.0434667 -0.0185813 0)
(-0.041392 -0.023024 0)
(-0.0387435 -0.0274022 0)
(-0.0354812 -0.0316447 0)
(-0.0315757 -0.0356501 0)
(-0.0270194 -0.0392662 0)
(-0.0218467 -0.0422196 0)
(-0.0161576 -0.0439021 0)
(-0.0101599 -0.0428455 0)
(-0.00447167 -0.0358382 0)
(-0.000912071 -0.0174996 0)
(-0.000931325 0.0187994 0)
(-0.00454442 0.0384124 0)
(-0.0102966 0.0458587 0)
(-0.0163517 0.0470541 0)
(-0.0221214 0.0454774 0)
(-0.027431 0.0426591 0)
(-0.0321962 0.0391916 0)
(-0.0363844 0.03532 0)
(-0.0399968 0.0311747 0)
(-0.0430531 0.0268423 0)
(-0.0455832 0.0223846 0)
(-0.0476204 0.0178436 0)
(-0.049196 0.0132448 0)
(-0.0503361 0.00859996 0)
(-0.051058 0.00391084 0)
(-0.0513683 -0.000827658 0)
(-0.0512615 -0.00562374 0)
(-0.0507189 -0.0104847 0)
(-0.049708 -0.0154124 0)
(-0.0481836 -0.0203984 0)
(-0.0460891 -0.0254185 0)
(-0.0433601 -0.0304259 0)
(-0.0399309 -0.0353441 0)
(-0.0357437 -0.0400555 0)
(-0.0307648 -0.0443748 0)
(-0.0250114 -0.0479665 0)
(-0.0185849 -0.0501007 0)
(-0.0117268 -0.0490563 0)
(-0.00517087 -0.0411193 0)
(-0.00105484 -0.0201048 0)
(-0.00107215 0.0214468 0)
(-0.00521782 0.043744 0)
(-0.0117869 0.0521018 0)
(-0.0186461 0.0532958 0)
(-0.0251103 0.0513192 0)
(-0.0309833 0.0479404 0)
(-0.036181 0.0438549 0)
(-0.0406838 0.0393575 0)
(-0.044513 0.0346058 0)
(-0.047711 0.0297015 0)
(-0.0503298 0.0247126 0)
(-0.0524226 0.019681 0)
(-0.0540378 0.0146272 0)
(-0.0552148 0.0095543 0)
(-0.0559804 0.00445265 0)
(-0.0563472 -0.000696233 0)
(-0.056311 -0.00591531 0)
(-0.0558501 -0.0112274 0)
(-0.054924 -0.0166504 0)
(-0.0534733 -0.0221909 0)
(-0.0514205 -0.027837 0)
(-0.0486731 -0.0335499 0)
(-0.0451296 -0.0392522 0)
(-0.0406913 -0.0448113 0)
(-0.0352827 -0.0500043 0)
(-0.0288876 -0.0544183 0)
(-0.0215983 -0.0571682 0)
(-0.0136921 -0.056218 0)
(-0.0060524 -0.0472479 0)
(-0.00123466 -0.0231321 0)
(-0.00124934 0.024503 0)
(-0.00605771 0.0498746 0)
(-0.0136285 0.0592277 0)
(-0.0214487 0.0603448 0)
(-0.0287136 0.0578302 0)
(-0.0352056 0.0537395 0)
(-0.040849 0.0488949 0)
(-0.0456483 0.0436518 0)
(-0.0496562 0.0381998 0)
(-0.0529476 0.0326558 0)
(-0.0556045 0.0270924 0)
(-0.0577064 0.021548 0)
(-0.0593233 0.0160341 0)
(-0.0605112 0.010541 0)
(-0.061309 0.00504335 0)
(-0.0617368 -0.000494993 0)
(-0.0617932 -0.00611643 0)
(-0.0614545 -0.0118646 0)
(-0.0606719 -0.0177793 0)
(-0.0593708 -0.0238892 0)
(-0.0574494 -0.0302038 0)
(-0.05478 -0.0367006 0)
(-0.0512144 -0.0433102 0)
(-0.0465952 -0.0498909 0)
(-0.0407816 -0.0561801 0)
(-0.0336977 -0.0616702 0)
(-0.0254042 -0.0652766 0)
(-0.0162094 -0.0645607 0)
(-0.0071905 -0.0544505 0)
(-0.00146691 -0.026696 0)
(-0.00147842 0.0280747 0)
(-0.00712901 0.0570008 0)
(-0.0159472 0.0674281 0)
(-0.0249247 0.0683437 0)
(-0.0331085 0.0650935 0)
(-0.0402664 0.0600856 0)
(-0.0463466 0.0542988 0)
(-0.0513954 0.0481622 0)
(-0.0555129 0.0419002 0)
(-0.0588198 0.0356436 0)
(-0.0614385 0.0294649 0)
(-0.0634816 0.0233937 0)
(-0.0650454 0.0174269 0)
(-0.0662061 0.0115366 0)
(-0.0670169 0.00567695 0)
(-0.0675074 -0.000210755 0)
(-0.0676811 -0.00619326 0)
(-0.0675134 -0.0123408 0)
(-0.0669491 -0.018722 0)
(-0.0658984 -0.025397 0)
(-0.0642333 -0.0324071 0)
(-0.0617851 -0.0397609 0)
(-0.058346 -0.0474115 0)
(-0.0536781 -0.0552217 0)
(-0.0475418 -0.0628946 0)
(-0.0397581 -0.0698125 0)
(-0.0303117 -0.0746343 0)
(-0.0195195 -0.0743924 0)
(-0.0087068 -0.0630464 0)
(-0.00177793 -0.0309608 0)
(-0.00178545 0.0323142 0)
(-0.00853431 0.0653921 0)
(-0.0189328 0.0769528 0)
(-0.0293128 0.0774623 0)
(-0.0385409 0.0731906 0)
(-0.0463893 0.0669863 0)
(-0.0528588 0.0600219 0)
(-0.0580649 0.0528116 0)
(-0.0621787 0.0456152 0)
(-0.0653839 0.0385712 0)
(-0.0678546 0.0317439 0)
(-0.0697443 0.0251456 0)
(-0.0711801 0.0187508 0)
(-0.0722607 0.0125068 0)
(-0.0730559 0.00634153 0)
(-0.0736064 0.000168915 0)
(-0.0739227 -0.00610678 0)
(-0.0739826 -0.0125883 0)
(-0.0737274 -0.0193805 0)
(-0.0730553 -0.0265849 0)
(-0.0718135 -0.0342898 0)
(-0.0697895 -0.0425537 0)
(-0.0667047 -0.0513775 0)
(-0.0622157 -0.0606552 0)
(-0.0559383 -0.0700763 0)
(-0.0475222 -0.0789075 0)
(-0.036794 -0.0854847 0)
(-0.0240151 -0.086131 0)
(-0.0108127 -0.0735025 0)
(-0.00221711 -0.0361764 0)
(-0.00221688 0.0374482 0)
(-0.0104426 0.0754293 0)
(-0.0228794 0.0881289 0)
(-0.0349629 0.0878973 0)
(-0.0453523 0.0821885 0)
(-0.0538685 0.0744093 0)
(-0.0606146 0.0659672 0)
(-0.0658184 0.0574699 0)
(-0.0697535 0.0492044 0)
(-0.0726876 0.041304 0)
(-0.0748593 0.0338105 0)
(-0.0764692 0.0267059 0)
(-0.0776782 0.0199322 0)
(-0.0786088 0.013404 0)
(-0.0793478 0.00701718 0)
(-0.0799484 0.000653986 0)
(-0.0804305 -0.00581469 0)
(-0.080779 -0.0125282 0)
(-0.0809373 -0.0196347 0)
(-0.0807989 -0.0272876 0)
(-0.0801936 -0.0356389 0)
(-0.0788695 -0.0448233 0)
(-0.0764726 -0.0549264 0)
(-0.0725307 -0.0659214 0)
(-0.0664599 -0.0775338 0)
(-0.0576379 -0.0889393 0)
(-0.0455856 -0.0980883 0)
(-0.0303573 -0.100344 0)
(-0.0138989 -0.086526 0)
(-0.00288599 -0.0427487 0)
(-0.00286102 0.0438329 0)
(-0.0131441 0.0876637 0)
(-0.028252 0.101385 0)
(-0.0423915 0.0998618 0)
(-0.0540129 0.0921112 0)
(-0.06308 0.0822486 0)
(-0.0698831 0.0719563 0)
(-0.0748242 0.0619297 0)
(-0.0783205 0.0524617 0)
(-0.0807473 0.0436546 0)
(-0.0824187 0.035505 0)
(-0.0835859 0.0279466 0)
(-0.084443 0.0208754 0)
(-0.0851345 0.0141647 0)
(-0.0857625 0.00767292 0)
(-0.0863928 0.00124745 0)
(-0.0870573 -0.00527612 0)
(-0.0877526 -0.0120758 0)
(-0.0884342 -0.019347 0)
(-0.0890041 -0.027304 0)
(-0.089291 -0.0361797 0)
(-0.0890211 -0.0462155 0)
(-0.0877764 -0.0576332 0)
(-0.0849471 -0.0705618 0)
(-0.0796961 -0.0848625 0)
(-0.0709946 -0.0997103 0)
(-0.0578128 -0.112655 0)
(-0.0396734 -0.117781 0)
(-0.0187201 -0.103221 0)
(-0.00400861 -0.051395 0)
(-0.0038948 0.0520607 0)
(-0.0171544 0.102908 0)
(-0.0357919 0.117265 0)
(-0.0523461 0.113548 0)
(-0.0651383 0.102882 0)
(-0.0744595 0.090268 0)
(-0.0809226 0.0776822 0)
(-0.0851903 0.0658735 0)
(-0.0878709 0.0550936 0)
(-0.0894688 0.0453705 0)
(-0.0903785 0.0366212 0)
(-0.0908987 0.0287066 0)
(-0.0912499 0.0214611 0)
(-0.0915915 0.0147076 0)
(-0.092036 0.00826352 0)
(-0.0926591 0.00194051 0)
(-0.0935057 -0.00445921 0)
(-0.094591 -0.0111502 0)
(-0.0958943 -0.018374 0)
(-0.0973459 -0.0264093 0)
(-0.0988022 -0.0355816 0)
(-0.100005 -0.0462695 0)
(-0.100512 -0.0588918 0)
(-0.0996074 -0.0738442 0)
(-0.0961782 -0.091297 0)
(-0.0886476 -0.110643 0)
(-0.07507 -0.129165 0)
(-0.0538147 -0.139356 0)
(-0.0267371 -0.125344 0)
(-0.00608785 -0.0634884 0)
(-0.00568293 0.0631776 0)
(-0.0233995 0.122367 0)
(-0.0466425 0.136406 0)
(-0.0658106 0.129024 0)
(-0.0793807 0.114205 0)
(-0.0883096 0.0979989 0)
(-0.093735 0.082634 0)
(-0.0966853 0.0688229 0)
(-0.098006 0.0566889 0)
(-0.0983388 0.046117 0)
(-0.0981495 0.0368968 0)
(-0.0977677 0.0287865 0)
(-0.0974233 0.0215423 0)
(-0.0972759 0.0149295 0)
(-0.0974376 0.00872307 0)
(-0.0979876 0.00270284 0)
(-0.0989823 -0.0033562 0)
(-0.10046 -0.00969493 0)
(-0.102438 -0.0165935 0)
(-0.104899 -0.0243865 0)
(-0.107766 -0.0334915 0)
(-0.110858 -0.0444411 0)
(-0.113798 -0.0579075 0)
(-0.115858 -0.0746855 0)
(-0.11573 -0.0955165 0)
(-0.111222 -0.120439 0)
(-0.0990375 -0.146941 0)
(-0.0753716 -0.165875 0)
(-0.0405474 -0.155564 0)
(-0.0101821 -0.0817207 0)
(-0.00896375 0.0791166 0)
(-0.033473 0.147772 0)
(-0.0623176 0.15936 0)
(-0.0836102 0.14596 0)
(-0.0967508 0.125311 0)
(-0.103932 0.104541 0)
(-0.107075 0.085956 0)
(-0.107675 0.0700471 0)
(-0.106829 0.0566618 0)
(-0.105288 0.0454428 0)
(-0.103551 0.0359924 0)
(-0.101937 0.027934 0)
(-0.100652 0.0209316 0)
(-0.0998292 0.0146904 0)
(-0.0995612 0.00894764 0)
(-0.099918 0.00345982 0)
(-0.100959 -0.00201356 0)
(-0.102747 -0.0077194 0)
(-0.105346 -0.01396 0)
(-0.10881 -0.0211016 0)
(-0.113176 -0.0296296 0)
(-0.118415 -0.0402149 0)
(-0.124343 -0.0538027 0)
(-0.130426 -0.0716978 0)
(-0.135419 -0.095525 0)
(-0.136709 -0.126648 0)
(-0.129395 -0.163831 0)
(-0.106233 -0.197067 0)
(-0.0636384 -0.197144 0)
(-0.0181132 -0.110935 0)
(-0.0150815 0.103443 0)
(-0.0496555 0.181207 0)
(-0.0836537 0.185904 0)
(-0.104338 0.162875 0)
(-0.113862 0.134325 0)
(-0.116459 0.108101 0)
(-0.115049 0.0861425 0)
(-0.111592 0.0683709 0)
(-0.107345 0.0541347 0)
(-0.103056 0.0427079 0)
(-0.0991514 0.0334439 0)
(-0.0958594 0.0258082 0)
(-0.0933001 0.0193708 0)
(-0.0915372 0.0137848 0)
(-0.0906119 0.00876333 0)
(-0.0905636 0.00405666 0)
(-0.0914339 -0.000569972 0)
(-0.0933025 -0.00536256 0)
(-0.0962774 -0.0105982 0)
(-0.100485 -0.0166377 0)
(-0.106096 -0.0239817 0)
(-0.113297 -0.0333748 0)
(-0.12223 -0.0459757 0)
(-0.132825 -0.0636062 0)
(-0.144394 -0.0890033 0)
(-0.15462 -0.125679 0)
(-0.157495 -0.175451 0)
(-0.141737 -0.229846 0)
(-0.0968732 -0.252253 0)
(-0.0315746 -0.159076 0)
(-0.0258078 0.14233 0)
(-0.0730866 0.222849 0)
(-0.105533 0.212158 0)
(-0.116696 0.174721 0)
(-0.11509 0.136599 0)
(-0.107529 0.104974 0)
(-0.0976714 0.0804626 0)
(-0.0875372 0.0618733 0)
(-0.0781635 0.0477873 0)
(-0.0699955 0.037008 0)
(-0.063168 0.0286221 0)
(-0.0576725 0.0219548 0)
(-0.0534459 0.0165107 0)
(-0.0504179 0.0119208 0)
(-0.0485341 0.00790142 0)
(-0.0477688 0.00422223 0)
(-0.0481343 0.000676445 0)
(-0.0496901 -0.0029541 0)
(-0.0525474 -0.00688816 0)
(-0.0568934 -0.011427 0)
(-0.0630025 -0.0170127 0)
(-0.0712651 -0.0243487 0)
(-0.0821926 -0.0346427 0)
(-0.0963603 -0.0500439 0)
(-0.114242 -0.0743241 0)
(-0.135132 -0.113681 0)
(-0.153944 -0.175089 0)
(-0.157497 -0.256191 0)
(-0.12805 -0.318282 0)
(-0.0477376 -0.239094 0)
(-0.0404663 0.206354 0)
(-0.093755 0.26304 0)
(-0.097653 0.222242 0)
(-0.0778474 0.167606 0)
(-0.0514488 0.122178 0)
(-0.0255826 0.0885841 0)
(-0.00263145 0.0647622 0)
(0.0167082 0.0479956 0)
(0.0325251 0.0360543 0)
(0.0452336 0.0273725 0)
(0.0553089 0.0209011 0)
(0.0631778 0.0159399 0)
(0.0691872 0.0120158 0)
(0.0735997 0.00880185 0)
(0.076602 0.00606294 0)
(0.0783092 0.00361936 0)
(0.0787668 0.00131946 0)
(0.0779624 -0.000979573 0)
(0.0758242 -0.00343675 0)
(0.0721663 -0.006242 0)
(0.0666838 -0.00970123 0)
(0.0588893 -0.0143305 0)
(0.0480211 -0.0211027 0)
(0.0329394 -0.0319968 0)
(0.0117315 -0.0511405 0)
(-0.0179493 -0.0866295 0)
(-0.0555793 -0.151489 0)
(-0.093345 -0.256109 0)
(-0.116624 -0.374013 0)
(-0.0488284 -0.354489 0)
(-0.0317285 0.302337 0)
(-0.0447594 0.271951 0)
(0.0455991 0.183332 0)
(0.12486 0.122103 0)
(0.18634 0.0813382 0)
(0.232681 0.0545046 0)
(0.267566 0.037319 0)
(0.293811 0.0263344 0)
(0.313629 0.0191205 0)
(0.328696 0.0141958 0)
(0.340214 0.0106984 0)
(0.349024 0.00811736 0)
(0.355717 0.00613847 0)
(0.360701 0.00456139 0)
(0.364259 0.00325178 0)
(0.366573 0.00211202 0)
(0.367745 0.00106671 0)
(0.367804 5.50194e-05 0)
(0.366735 -0.000986097 0)
(0.364418 -0.00215906 0)
(0.360609 -0.0035896 0)
(0.354888 -0.00550778 0)
(0.346499 -0.00838325 0)
(0.334035 -0.0132973 0)
(0.314672 -0.0229747 0)
(0.283024 -0.0438864 0)
(0.231675 -0.0907034 0)
(0.152219 -0.189221 0)
(0.0265091 -0.346738 0)
(0.0244467 -0.414019 0)
(0.307034 0.185128 0)
(0.391356 0.147415 0)
(0.566522 0.0897415 0)
(0.680553 0.0542749 0)
(0.745879 0.0328516 0)
(0.785862 0.0198272 0)
(0.812068 0.0121771 0)
(0.829877 0.00778938 0)
(0.842368 0.00523812 0)
(0.851427 0.00368799 0)
(0.858172 0.00269029 0)
(0.863267 0.0020082 0)
(0.867132 0.00151422 0)
(0.870037 0.00113719 0)
(0.872163 0.000835125 0)
(0.87363 0.000580508 0)
(0.874506 0.00035345 0)
(0.874836 0.000140127 0)
(0.874609 -5.77617e-05 0)
(0.873774 -0.000280297 0)
(0.87224 -0.000547032 0)
(0.869801 -0.000899009 0)
(0.86605 -0.00142681 0)
(0.860132 -0.00235099 0)
(0.850061 -0.00428988 0)
(0.830995 -0.00888983 0)
(0.791673 -0.0205723 0)
(0.7079 -0.0523384 0)
(0.505395 -0.130934 0)
(0.370289 -0.196101 0)
)
;

boundaryField
{
    movingWall
    {
        type            fixedValue;
        value           uniform (1.2 0 0);
    }
    fixedWalls
    {
        type            noSlip;
    }
    frontAndBack
    {
        type            empty;
    }
}


// ************************************************************************* //
