/*--------------------------------*- C++ -*----------------------------------*\
  =========                 |
  \\      /  F ield         | OpenFOAM: The Open Source CFD Toolbox
   \\    /   O peration     | Website:  https://openfoam.org
    \\  /    A nd           | Version:  7
     \\/     M anipulation  |
\*---------------------------------------------------------------------------*/
FoamFile
{
    version     2.0;
    format      ascii;
    class       volScalarField;
    location    "550";
    object      epsilon;
}
// * * * * * * * * * * * * * * * * * * * * * * * * * * * * * * * * * * * * * //

dimensions      [0 2 -3 0 0 0 0];

internalField   nonuniform List<scalar> 
16900
(
1.9603
2.89497
4.06524
5.07967
5.92312
6.6005
7.12156
7.49735
7.74259
7.88106
7.94277
7.92829
7.49315
7.94741
37.1396
41.8674
46.8897
52.2268
57.8762
63.8407
70.1233
76.7312
83.6694
90.9449
98.562
106.526
114.84
123.505
132.523
141.893
151.612
161.675
172.079
182.814
193.871
205.241
216.911
228.866
241.091
253.57
266.284
279.215
292.342
305.645
319.102
332.691
346.39
360.176
374.028
387.922
401.839
415.756
429.653
443.513
457.316
471.047
484.692
498.239
511.678
525.002
538.208
551.297
564.277
577.161
589.976
602.763
615.587
628.551
641.603
654.601
667.566
680.51
693.438
706.354
719.256
732.14
744.999
757.82
770.586
783.274
795.857
808.298
820.555
832.575
844.299
855.657
866.568
876.94
886.666
895.632
903.708
910.754
916.619
921.144
924.163
925.512
925.024
922.545
917.931
911.067
901.853
890.258
876.248
859.881
841.243
820.848
799.719
779.704
764.205
748.536
731.776
713.914
695.097
675.508
655.338
634.772
613.984
593.135
572.368
551.811
531.571
511.74
492.393
473.592
455.382
437.799
420.869
404.607
389.023
374.12
359.9
346.357
333.49
321.299
309.803
299.074
289.181
279.875
271.055
262.679
254.732
247.211
240.111
233.431
227.169
221.321
215.886
210.859
206.24
202.026
198.214
194.803
191.791
189.172
186.944
185.099
183.627
182.519
181.759
181.332
181.217
181.394
181.839
182.528
183.437
184.542
185.818
187.243
188.797
190.462
192.22
194.06
195.971
197.955
199.98
202.183
204.464
206.689
208.862
211.001
213.116
215.21
217.284
219.34
221.376
223.393
225.391
227.373
229.34
231.3
233.26
235.234
237.242
239.316
241.511
243.923
246.731
250.364
255.846
266.115
3.23202
3.02902
3.83841
4.75561
5.6367
6.47174
7.29597
8.16822
9.16816
10.3972
11.9725
14.037
16.8521
19.7312
23.8515
26.5152
29.1892
31.9877
34.9223
37.9958
41.21
44.5673
48.0695
51.7182
55.5143
59.4583
63.5501
67.7888
72.1732
76.701
81.3698
86.1763
91.1166
96.1862
101.38
106.692
112.117
117.647
123.276
128.995
134.798
140.675
146.618
152.618
158.666
164.753
170.871
177.009
183.16
189.315
195.465
201.602
207.72
213.81
219.868
225.888
231.864
237.795
243.678
249.511
255.297
261.039
266.74
272.41
278.06
283.706
289.369
295.089
300.871
306.641
312.396
318.141
323.878
329.607
335.329
341.042
346.744
352.43
358.093
363.724
369.312
374.844
380.3
385.661
390.9
395.991
400.897
405.582
410.002
414.108
417.847
421.161
423.988
426.262
427.914
428.876
429.079
428.458
426.951
424.503
421.067
416.61
411.106
404.546
396.951
388.294
379.34
370.247
361.616
352.794
343.605
334.055
324.203
314.127
303.905
293.612
283.321
273.095
262.992
253.061
243.346
233.881
224.696
215.812
207.249
199.017
191.127
183.582
176.385
169.535
163.031
156.87
151.049
145.565
140.418
135.605
131.223
127.186
123.432
119.928
116.652
113.592
110.74
108.089
105.634
103.371
101.298
99.4091
97.7035
96.1788
94.8332
93.6652
92.6734
91.8564
91.2125
90.7393
90.4335
90.2909
90.3059
90.4717
90.7801
91.2215
91.7854
92.4604
93.2345
94.0955
95.0313
96.03
97.0805
98.1722
99.2954
100.442
101.604
102.775
103.939
105.113
106.338
107.537
108.694
109.806
110.875
111.899
112.879
113.814
114.703
115.544
116.338
117.084
117.78
118.428
119.027
119.578
120.081
120.533
120.933
121.268
121.509
121.586
121.557
120.863
4.29596
3.57815
4.19866
5.07285
6.01474
6.99456
8.03764
9.19271
10.5127
12.0403
13.7939
15.7691
17.9391
20.1342
22.4658
24.7099
27.0221
29.4366
31.9625
34.6028
37.3594
40.2337
43.2271
46.3403
49.5741
52.9286
56.4037
59.9987
63.7125
67.5438
71.4905
75.5503
79.7204
83.9974
88.3777
92.8569
97.4305
102.093
106.84
111.665
116.561
121.522
126.542
131.612
136.727
141.878
147.057
152.258
157.473
162.693
167.913
173.124
178.321
183.497
188.646
193.763
198.843
203.883
208.881
213.833
218.741
223.604
228.426
233.21
237.963
242.692
247.408
252.116
256.799
261.444
266.052
270.624
275.164
279.672
284.15
288.596
293.011
297.391
301.733
306.032
310.281
314.47
318.589
322.623
326.555
330.365
334.029
337.519
340.804
343.849
346.613
349.053
351.122
352.769
353.94
354.582
354.638
354.056
352.781
350.766
347.967
344.345
339.876
334.493
328.354
321.547
314.344
306.866
299.257
291.395
283.252
274.858
266.269
257.548
248.76
239.966
231.221
222.578
214.079
205.764
197.665
189.808
182.215
174.902
167.88
161.159
154.742
148.633
142.83
137.334
132.139
127.244
122.644
118.335
114.315
110.595
107.173
104.018
101.101
98.4022
95.9038
93.5942
91.4642
89.5066
87.7156
86.0865
84.6154
83.299
82.1346
81.1202
80.2538
79.5341
78.9595
78.5283
78.2386
78.0877
78.0722
78.1879
78.4293
78.7899
79.2621
79.8373
80.506
81.2581
82.0831
82.9703
83.9093
84.8896
85.9014
86.9353
87.9829
89.0363
90.0884
91.1305
92.1559
93.1685
94.1598
95.1103
96.0109
96.8583
97.6516
98.3901
99.073
99.6992
100.268
100.779
101.23
101.621
101.952
102.222
102.429
102.572
102.648
102.649
102.564
102.367
102.008
101.395
100.539
99.1824
5.19647
4.1403
4.63972
5.47937
6.45262
7.5119
8.66238
9.92862
11.3344
12.8907
14.5917
16.4159
18.3431
20.3391
22.4179
24.5584
26.7853
29.1116
31.5441
34.0863
36.7405
39.5084
42.3914
45.3908
48.5074
51.7417
55.0941
58.5646
62.1527
65.8576
69.6783
73.6132
77.6602
81.8168
86.0803
90.4472
94.9137
99.4753
104.127
108.864
113.681
118.571
123.527
128.543
133.611
138.724
143.875
149.054
154.255
159.468
164.687
169.902
175.107
180.293
185.454
190.584
195.675
200.722
205.721
210.667
215.558
220.392
225.168
229.887
234.552
239.165
243.724
248.22
252.65
257.011
261.304
265.531
269.695
273.798
277.841
281.825
285.75
289.615
293.419
297.16
300.833
304.433
307.951
311.379
314.703
317.909
320.978
323.889
326.616
329.13
331.398
333.382
335.042
336.331
337.202
337.603
337.483
336.788
335.465
333.464
330.739
327.233
322.964
317.96
312.311
306.091
299.429
292.404
285.078
277.445
269.531
261.384
253.064
244.635
236.158
227.693
219.293
211.006
202.875
194.936
187.218
179.748
172.543
165.62
158.989
152.657
146.628
140.903
135.483
130.365
125.545
121.021
116.787
112.841
109.18
105.795
102.673
99.7965
97.1462
94.7066
92.464
90.4075
88.528
86.8182
85.2719
83.8841
82.6504
81.5674
80.632
79.8415
79.1937
78.6862
78.3167
78.0826
77.9808
78.0075
78.1582
78.4274
78.8086
79.2946
79.8771
80.5469
81.2944
82.1094
82.9816
83.9007
84.8564
85.8387
86.8382
87.8461
88.8542
89.8553
90.8413
91.8044
92.7315
93.6189
94.4601
95.2468
95.9736
96.6382
97.2393
97.7761
98.248
98.6542
98.9943
99.2676
99.4737
99.6122
99.6823
99.6834
99.614
99.4715
99.2514
98.9451
98.5369
97.9983
97.2814
96.3132
95.1479
93.7351
5.97898
4.65
5.05692
5.86195
6.84046
7.9316
9.12416
10.4254
11.8439
13.3816
15.0332
16.7874
18.6351
20.5697
22.5944
24.7089
26.9204
29.2352
31.6585
34.1937
36.8436
39.6104
42.4958
45.5017
48.6294
51.8803
55.2554
58.7554
62.3807
66.1314
70.0072
74.0074
78.1307
82.3756
86.7399
91.2209
95.8153
100.519
105.328
110.238
115.241
120.333
125.507
130.755
136.07
141.443
146.866
152.329
157.825
163.342
168.873
174.407
179.935
185.448
190.935
196.39
201.802
207.163
212.468
217.707
222.876
227.971
232.986
237.919
242.771
247.532
252.193
256.75
261.202
265.549
269.792
273.934
277.976
281.922
285.772
289.529
293.194
296.768
300.251
303.643
306.941
310.145
313.249
316.247
319.132
321.892
324.514
326.984
329.279
331.377
333.25
334.865
336.185
337.17
337.772
337.945
337.633
336.785
335.344
333.252
330.473
327.001
322.851
318.046
312.638
306.682
300.25
293.398
286.168
278.59
270.709
262.584
254.278
245.857
237.386
228.923
220.524
212.238
204.109
196.175
188.465
181.006
173.818
166.916
160.313
154.015
148.027
142.352
136.987
131.933
127.185
122.741
118.596
114.749
111.185
107.89
104.852
102.057
99.4894
97.1367
94.9868
93.0292
91.255
89.6565
88.2274
86.962
85.8556
84.9038
84.103
83.4496
82.9402
82.5715
82.3397
82.2409
82.2704
82.4229
82.6925
83.0722
83.5543
84.1302
84.7908
85.5262
86.3262
87.1802
88.0776
89.0081
89.9614
90.9276
91.8975
92.8625
93.815
94.7472
95.6512
96.5068
97.309
98.0539
98.7367
99.3526
99.8984
100.372
100.774
101.102
101.356
101.538
101.645
101.679
101.639
101.525
101.337
101.075
100.737
100.32
99.8188
99.2247
98.5213
97.6814
96.6647
95.4233
94.0516
92.6051
6.66168
5.09124
5.41579
6.18253
7.14796
8.24143
9.4413
10.7449
12.1543
13.6697
15.2891
17.0083
18.8245
20.7373
22.7492
24.8625
27.0813
29.4101
31.8531
34.4138
37.0953
39.9003
42.8315
45.8912
49.0816
52.4049
55.863
59.4575
63.1898
67.0609
71.0716
75.2219
79.5115
83.9398
88.5052
93.2057
98.0386
103.001
108.087
113.294
118.615
124.044
129.574
135.197
140.905
146.688
152.537
158.442
164.392
170.376
176.382
182.4
188.417
194.422
200.404
206.35
212.249
218.091
223.864
229.558
235.165
240.676
246.083
251.381
256.563
261.606
266.506
271.262
275.873
280.337
284.657
288.833
292.869
296.765
300.525
304.151
307.644
311.007
314.241
317.348
320.329
323.185
325.915
328.517
330.986
333.317
335.504
337.535
339.396
341.069
342.533
343.761
344.722
345.378
345.687
345.602
345.071
344.036
342.446
340.268
337.476
334.06
330.021
325.371
320.137
314.357
308.074
301.328
294.158
286.602
278.715
270.557
262.197
253.701
245.137
236.568
228.049
219.635
211.37
203.295
195.444
187.844
180.517
173.482
166.751
160.333
154.234
148.456
143.002
137.869
133.056
128.56
124.378
120.504
116.913
113.596
110.54
107.735
105.165
102.821
100.689
98.7602
97.0254
95.4765
94.1065
92.909
91.8785
91.0096
90.2975
89.7374
89.3246
89.0542
88.9208
88.9188
89.0419
89.2832
89.6349
90.0887
90.6355
91.2656
91.9688
92.7342
93.5512
94.4088
95.2961
96.2024
97.1176
98.0316
98.9356
99.8212
100.681
101.507
102.277
102.983
103.62
104.185
104.676
105.089
105.422
105.674
105.845
105.934
105.943
105.872
105.721
105.492
105.183
104.797
104.334
103.792
103.171
102.469
101.68
100.795
99.7992
98.6689
97.3738
95.8881
94.3338
92.8194
7.25434
5.46208
5.70664
6.43065
7.37103
8.44945
9.63794
10.9285
12.3203
13.8138
15.4089
17.1058
18.9048
20.8077
22.8174
24.9372
27.1706
29.5217
31.9946
34.5931
37.3206
40.1808
43.1769
46.3122
49.5899
53.0131
56.5848
60.3075
64.1839
68.2159
72.4054
76.7534
81.2606
85.9271
90.7523
95.7348
100.872
106.162
111.6
117.182
122.901
128.751
134.725
140.814
147.009
153.299
159.673
166.12
172.628
179.184
185.773
192.384
199.001
205.61
212.196
218.746
225.244
231.676
238.029
244.288
250.44
256.473
262.376
268.141
273.738
279.153
284.384
289.427
294.281
298.944
303.416
307.697
311.79
315.696
319.418
322.956
326.314
329.495
332.501
335.337
338.004
340.508
342.851
345.033
347.056
348.919
350.622
352.161
353.528
354.712
355.701
356.473
357.006
357.268
357.221
356.82
356.021
354.781
353.059
350.824
348.045
344.704
340.788
336.295
331.235
325.625
319.493
312.866
305.779
298.272
290.401
282.227
273.82
265.248
256.58
247.882
239.215
230.633
222.187
213.919
205.868
198.063
190.531
183.292
176.361
169.749
163.465
157.512
151.893
146.609
141.66
137.043
132.758
128.78
125.096
121.696
118.568
115.701
113.083
110.702
108.547
106.608
104.875
103.34
101.994
100.831
99.8433
99.0249
98.3691
97.8699
97.5206
97.3148
97.2454
97.3049
97.4852
97.7776
98.1729
98.6613
99.2323
99.8751
100.578
101.331
102.121
102.938
103.771
104.608
105.439
106.255
107.046
107.806
108.525
109.187
109.772
110.279
110.705
111.048
111.305
111.474
111.555
111.548
111.452
111.268
110.999
110.644
110.206
109.685
109.083
108.402
107.641
106.801
105.882
104.882
103.795
102.614
101.325
99.9099
98.3478
96.6301
94.8958
93.282
7.76427
5.76648
5.93113
6.60855
7.51631
8.56945
9.73611
11.0054
12.3749
13.8455
15.4189
17.0969
18.8823
20.7779
22.7876
24.9151
27.1645
29.54
32.046
34.6868
37.4667
40.3899
43.4608
46.6837
50.0628
53.6023
57.3064
61.1789
65.2236
69.4435
73.8416
78.4202
83.1809
88.1246
93.2515
98.561
104.051
109.72
115.564
121.577
127.754
134.089
140.572
147.195
153.947
160.816
167.79
174.857
182
189.207
196.461
203.745
211.044
218.34
225.615
232.851
240.032
247.138
254.152
261.056
267.833
274.467
280.943
287.237
293.314
299.167
304.793
310.186
315.342
320.259
324.934
329.368
333.559
337.51
341.222
344.696
347.934
350.94
353.718
356.272
358.607
360.731
362.649
364.365
365.885
367.214
368.36
369.323
370.106
370.707
371.121
371.338
371.342
371.111
370.621
369.839
368.732
367.266
365.404
363.11
360.348
357.089
353.308
348.989
344.123
338.713
332.768
326.308
319.359
311.959
304.161
296.025
287.618
279.011
270.273
261.473
252.674
243.935
235.311
226.848
218.587
210.564
202.807
195.339
188.18
181.344
174.841
168.678
162.859
157.388
152.264
147.49
143.057
138.938
135.123
131.604
128.371
125.412
122.716
120.272
118.067
116.091
114.334
112.786
111.439
110.284
109.312
108.515
107.886
107.417
107.099
106.923
106.882
106.965
107.162
107.465
107.861
108.339
108.889
109.497
110.153
110.844
111.558
112.284
113.011
113.727
114.423
115.09
115.717
116.299
116.822
117.259
117.609
117.87
118.038
118.114
118.095
117.98
117.77
117.466
117.068
116.579
116
115.333
114.58
113.744
112.826
111.829
110.754
109.601
108.372
107.063
105.673
104.192
102.613
100.918
99.0982
97.1559
95.2396
93.5044
8.19837
6.01105
6.09593
6.72398
7.59432
8.61613
9.75481
10.9977
12.3418
13.7881
15.3393
16.9988
18.7705
20.6587
22.6677
24.8023
27.0671
29.4671
32.0072
34.6926
37.5284
40.52
43.6726
46.9919
50.4832
54.1522
58.0041
62.0442
66.2774
70.7082
75.3407
80.1782
85.2235
90.4783
95.9437
101.62
107.505
113.597
119.893
126.388
133.076
139.948
146.997
154.212
161.58
169.09
176.727
184.475
192.319
200.241
208.224
216.248
224.294
232.342
240.37
248.358
256.284
264.126
271.863
279.473
286.934
294.227
301.329
308.186
314.789
321.128
327.193
332.979
338.477
343.685
348.597
353.212
357.528
361.544
365.262
368.68
371.802
374.628
377.165
379.418
381.393
383.1
384.545
385.737
386.687
387.405
387.905
388.197
388.291
388.196
387.917
387.458
386.821
385.992
384.969
383.73
382.253
380.508
378.462
376.077
373.311
370.126
366.484
362.354
357.71
352.538
346.834
340.603
333.863
326.646
318.997
310.973
302.639
294.064
285.319
276.472
267.591
258.738
249.971
241.34
232.892
224.665
216.693
209.003
201.618
194.554
187.825
181.442
175.412
169.738
164.426
159.478
154.871
150.587
146.62
142.963
139.606
136.537
133.744
131.217
128.943
126.911
125.109
123.527
122.155
120.982
119.999
119.196
118.563
118.091
117.769
117.586
117.533
117.598
117.77
118.037
118.386
118.806
119.284
119.808
120.364
120.941
121.526
122.108
122.676
123.218
123.726
124.189
124.6
124.95
125.211
125.376
125.443
125.411
125.279
125.046
124.712
124.276
123.741
123.107
122.377
121.553
120.638
119.635
118.547
117.376
116.126
114.799
113.398
111.923
110.376
108.756
107.06
105.283
103.418
101.453
99.385
97.2251
95.1258
93.2556
8.5634
6.20329
6.20951
6.78657
7.61659
8.60343
9.71044
10.9238
12.2402
13.6607
15.1889
16.8292
18.5866
20.4664
22.4741
24.6151
26.8953
29.3202
31.896
34.6287
37.5247
40.5904
43.8325
47.2579
50.8734
54.686
58.7024
62.9293
67.3728
72.039
76.9331
82.0595
87.4221
93.0235
98.8654
104.948
111.271
117.832
124.628
131.654
138.902
146.366
154.034
161.895
169.936
178.142
186.497
194.984
203.583
212.276
221.042
229.859
238.706
247.557
256.389
265.176
273.893
282.516
291.018
299.374
307.558
315.544
323.277
330.727
337.885
344.735
351.265
357.467
363.33
368.847
374.013
378.823
383.273
387.362
391.089
394.45
397.446
400.08
402.357
404.282
405.863
407.11
408.031
408.639
408.948
408.975
408.739
408.258
407.555
406.652
405.564
404.315
402.921
401.388
399.726
397.93
395.989
393.881
391.579
389.043
386.23
383.091
379.578
375.642
371.245
366.352
360.943
355.01
348.557
341.607
334.196
326.374
318.201
309.744
301.072
292.255
283.362
274.459
265.606
256.859
248.267
239.875
231.72
223.834
216.243
208.968
202.027
195.432
189.194
183.321
177.819
172.689
167.898
163.441
159.314
155.509
152.016
148.825
145.924
143.3
140.942
138.836
136.97
135.333
133.913
132.698
131.676
130.836
130.166
129.655
129.291
129.062
128.954
128.957
129.056
129.239
129.492
129.803
130.157
130.543
130.946
131.355
131.758
132.142
132.497
132.812
133.078
133.286
133.428
133.485
133.437
133.284
133.025
132.66
132.189
131.611
130.928
130.141
129.251
128.261
127.174
125.993
124.723
123.367
121.928
120.411
118.818
117.154
115.421
113.622
111.757
109.827
107.831
105.764
103.622
101.399
99.095
96.7265
94.4465
92.4352
8.86615
6.35071
6.28058
6.80611
7.59424
8.54411
9.61735
10.7994
12.0867
13.4806
14.9853
16.6061
18.3491
20.2207
22.2274
24.3758
26.6728
29.1254
31.7407
34.526
37.4892
40.6382
43.981
47.5262
51.282
55.257
59.4595
63.8975
68.5788
73.5107
78.6996
84.1513
89.8704
95.8603
102.123
108.66
115.469
122.55
129.898
137.507
145.372
153.482
161.825
170.389
179.159
188.116
197.242
206.519
215.924
225.436
235.031
244.685
254.371
264.064
273.734
283.352
292.889
302.317
311.605
320.725
329.646
338.309
346.674
354.724
362.441
369.806
376.804
383.423
389.649
395.475
400.891
405.891
410.468
414.62
418.343
421.631
424.482
426.9
428.888
430.452
431.6
432.341
432.685
432.649
432.25
431.512
430.459
429.119
427.527
425.715
423.716
421.568
419.302
416.947
414.526
412.053
409.532
406.953
404.296
401.527
398.599
395.459
392.047
388.301
384.164
379.584
374.524
368.956
362.87
356.275
349.197
341.675
333.763
325.521
317.018
308.321
299.502
290.628
281.763
272.967
264.294
255.791
247.502
239.462
231.702
224.248
217.121
210.337
203.91
197.851
192.17
186.856
181.884
177.256
172.967
169.011
165.379
162.06
159.041
156.31
153.854
151.658
149.711
147.997
146.505
145.22
144.13
143.221
142.48
141.893
141.447
141.127
140.921
140.814
140.793
140.842
140.948
141.098
141.277
141.471
141.669
141.858
142.025
142.159
142.249
142.286
142.261
142.165
141.986
141.698
141.299
140.789
140.168
139.436
138.594
137.642
136.583
135.419
134.152
132.786
131.325
129.774
128.136
126.417
124.62
122.75
120.812
118.81
116.747
114.625
112.448
110.217
107.93
105.586
103.182
100.715
98.19
95.625
93.1705
91.0176
9.11318
6.46037
6.31734
6.79179
7.53755
8.44963
9.48829
10.6385
11.8964
13.2639
14.7456
16.348
18.0781
19.9433
21.9517
24.1111
26.4297
28.916
31.5786
34.4265
37.4691
40.7158
44.1768
47.862
51.7816
55.9459
60.3645
65.0472
70.0031
75.241
80.7685
86.5923
92.718
99.1495
105.889
112.937
120.292
127.953
135.914
144.17
152.713
161.531
170.611
179.939
189.494
199.257
209.208
219.323
229.579
239.951
250.412
260.934
271.49
282.048
292.575
303.035
313.398
323.632
333.704
343.58
353.196
362.504
371.481
380.108
388.365
396.223
403.664
410.674
417.239
423.346
428.985
434.145
438.819
443.002
446.692
449.872
452.543
454.707
456.367
457.528
458.197
458.385
458.105
457.374
456.214
454.652
452.72
450.454
447.896
445.091
442.088
438.938
435.689
432.391
429.086
425.808
422.577
419.402
416.274
413.167
410.038
406.83
403.474
399.896
396.022
391.781
387.114
381.974
376.334
370.184
363.535
356.416
348.869
340.948
332.717
324.243
315.595
306.842
298.052
289.287
280.606
272.061
263.699
255.56
247.681
240.091
232.816
225.875
219.287
213.067
207.226
201.735
196.593
191.801
187.356
183.252
179.48
176.029
172.887
170.04
167.473
165.173
163.125
161.314
159.725
158.343
157.154
156.142
155.293
154.591
154.022
153.569
153.219
152.957
152.766
152.632
152.542
152.479
152.431
152.385
152.326
152.244
152.126
151.961
151.739
151.452
151.09
150.645
150.093
149.425
148.641
147.742
146.729
145.603
144.365
143.017
141.563
140.005
138.347
136.593
134.749
132.819
130.808
128.723
126.567
124.347
122.067
119.732
117.346
114.912
112.435
109.914
107.352
104.747
102.099
99.4071
96.678
93.9315
91.3133
89.0235
9.31088
6.53868
6.32714
6.7519
7.45577
8.33035
9.33481
10.4537
11.6834
13.0262
14.4873
16.0742
17.7951
19.659
21.675
23.8529
26.2025
28.7339
31.4576
34.3846
37.5259
40.8934
44.4989
48.3546
52.4726
56.8646
61.5422
66.5165
71.7981
77.397
83.3219
89.5804
96.1788
103.121
110.408
118.04
126.016
134.331
142.981
151.957
161.25
170.847
180.733
190.89
201.293
211.919
222.745
233.744
244.891
256.155
267.506
278.915
290.351
301.781
313.162
324.454
335.624
346.638
357.46
368.018
378.261
388.165
397.705
406.856
415.606
423.901
431.729
439.074
445.921
452.254
458.059
463.324
468.039
472.196
475.788
478.807
481.247
483.109
484.394
485.105
485.252
484.844
483.896
482.427
480.461
478.028
475.167
471.92
468.336
464.471
460.385
456.144
451.815
447.464
443.155
438.943
434.871
430.968
427.242
423.679
420.246
416.886
413.525
410.079
406.456
402.566
398.328
393.673
388.551
382.933
376.81
370.197
363.123
355.634
347.786
339.642
331.27
322.74
314.12
305.477
296.872
288.362
279.998
271.826
263.887
256.214
248.837
241.782
235.069
228.716
222.732
217.089
211.795
206.853
202.262
198.016
194.107
190.524
187.254
184.282
181.594
179.175
177.008
175.077
173.367
171.86
170.54
169.392
168.398
167.542
166.808
166.18
165.642
165.177
164.771
164.407
164.072
163.75
163.428
163.093
162.732
162.333
161.885
161.377
160.801
160.149
159.41
158.572
157.613
156.536
155.34
154.028
152.602
151.062
149.411
147.653
145.792
143.83
141.774
139.628
137.397
135.088
132.707
130.26
127.751
125.188
122.576
119.92
117.225
114.494
111.732
108.941
106.123
103.278
100.406
97.5105
94.5983
91.6885
88.921
86.5034
9.46518
6.59128
6.31646
6.69382
7.3573
8.19581
9.16778
10.2577
11.462
12.7837
14.2289
15.8062
17.5253
19.3965
21.4311
23.6405
26.0367
28.6321
31.4393
34.4714
37.7419
41.2649
45.0547
49.1257
53.4922
58.1678
63.1653
68.4971
74.1753
80.2108
86.613
93.3903
100.549
108.093
116.021
124.33
133.019
142.082
151.511
161.295
171.423
181.879
192.647
203.708
215.022
226.567
238.315
250.237
262.303
274.478
286.731
299.025
311.329
323.615
335.821
347.902
359.825
371.559
383.014
394.153
404.947
415.366
425.382
434.968
444.099
452.739
460.867
468.461
475.503
481.976
487.864
493.152
497.828
501.883
505.307
508.092
510.233
511.727
512.575
512.78
512.349
511.295
509.632
507.381
504.567
501.225
497.395
493.125
488.47
483.494
478.269
472.871
467.383
461.89
456.475
451.215
446.18
441.42
436.967
432.826
428.976
425.368
421.928
418.562
415.165
411.627
407.843
403.719
399.181
394.175
388.673
382.668
376.177
369.231
361.879
354.178
346.192
337.992
329.645
321.22
312.783
304.393
296.107
287.975
280.041
272.346
264.922
257.799
251.004
244.556
238.454
232.684
227.26
222.187
217.463
213.085
209.045
205.33
201.929
198.826
196.007
193.453
191.149
189.078
187.221
185.561
184.081
182.762
181.588
180.541
179.603
178.758
177.99
177.28
176.615
175.977
175.354
174.729
174.09
173.424
172.719
171.963
171.146
170.259
169.294
168.241
167.093
165.826
164.437
162.929
161.304
159.563
157.708
155.743
153.671
151.497
149.223
146.857
144.402
141.866
139.254
136.573
133.83
131.031
128.182
125.29
122.362
119.402
116.415
113.407
110.382
107.342
104.29
101.229
98.1586
95.0826
92.0101
88.958
86.059
83.5264
9.58171
6.62313
6.29095
6.62416
7.2499
8.05518
8.99801
10.063
11.2472
12.5543
13.9917
15.5693
17.2985
19.1918
21.2625
23.5245
25.9924
28.6813
31.6066
34.7839
38.2294
41.96
45.9927
50.3447
55.0328
60.0722
65.4761
71.2584
77.4319
84.0081
90.9964
98.4049
106.24
114.506
123.194
132.3
141.819
151.742
162.059
172.756
183.816
195.22
206.95
218.994
231.282
243.795
256.503
269.374
282.371
295.457
308.595
321.746
334.871
347.932
360.879
373.665
386.244
398.526
410.488
422.1
433.331
444.148
454.521
464.42
473.817
482.681
490.985
498.707
505.826
512.322
518.178
523.377
527.906
531.753
534.91
537.366
539.116
540.157
540.487
540.11
539.035
537.273
534.841
531.759
528.055
523.765
518.933
513.609
507.854
501.738
495.338
488.743
482.046
475.348
468.752
462.358
456.257
450.529
445.231
440.393
436.014
432.057
428.453
425.106
421.898
418.699
415.382
411.826
407.929
403.611
398.817
393.521
387.718
381.428
374.686
367.543
360.057
352.297
344.329
336.225
328.052
319.873
311.749
303.735
295.88
288.227
280.816
273.679
266.847
260.346
254.156
248.291
242.763
237.579
232.74
228.242
224.077
220.234
216.7
213.461
210.5
207.799
205.341
203.108
201.081
199.242
197.572
196.052
194.664
193.39
192.212
191.112
190.074
189.081
188.118
187.168
186.217
185.251
184.258
183.225
182.141
180.996
179.778
178.482
177.098
175.618
174.029
172.316
170.482
168.531
166.465
164.286
161.998
159.604
157.11
154.519
151.837
149.07
146.225
143.308
140.326
137.286
134.195
131.06
127.889
124.688
121.463
118.221
114.966
111.705
108.441
105.178
101.919
98.6671
95.4244
92.1943
88.9864
85.8153
82.8056
80.1736
9.66554
6.63856
6.25568
6.54911
7.14119
7.91783
8.83706
9.88401
11.0565
12.3595
13.8019
15.3955
17.154
19.0925
21.2268
23.5741
26.1525
28.9805
32.0769
35.4599
39.1494
43.1653
47.5277
52.2568
57.3727
62.8919
68.8257
75.1893
81.9957
89.2558
96.9777
105.168
113.831
122.976
132.58
142.63
153.121
164.041
175.374
187.1
199.198
211.643
224.409
237.467
250.768
264.278
277.96
291.776
305.685
319.647
333.617
347.554
361.415
375.153
388.729
402.056
415.076
427.762
440.088
452.023
463.536
474.594
485.164
495.217
504.722
513.649
521.972
529.665
536.706
543.074
548.75
553.718
557.961
561.469
564.23
566.236
567.48
567.958
567.67
566.621
564.817
562.272
559.004
555.034
550.393
545.116
539.251
532.851
525.978
518.707
511.12
503.312
495.388
487.458
479.642
472.059
464.826
458.047
451.81
446.174
441.161
436.757
432.904
429.507
426.441
423.56
420.713
417.752
414.544
410.979
406.977
402.483
397.473
391.948
385.93
379.458
372.587
365.378
357.899
350.22
342.411
334.537
326.665
318.851
311.15
303.61
296.273
289.18
282.362
275.842
269.608
263.682
258.08
252.81
247.874
243.269
238.988
235.022
231.356
227.976
224.864
222.004
219.377
216.964
214.745
212.702
210.815
209.065
207.433
205.9
204.449
203.061
201.721
200.41
199.114
197.819
196.508
195.17
193.793
192.364
190.873
189.311
187.67
185.941
184.118
182.191
180.142
177.974
175.689
173.29
170.78
168.162
165.442
162.624
159.712
156.713
153.633
150.478
147.256
143.973
140.637
137.257
133.838
130.39
126.919
123.431
119.935
116.436
112.94
109.453
105.978
102.52
99.0826
95.6686
92.2814
88.9246
85.6075
82.3424
79.2448
76.5316
9.72149
6.64145
6.2154
6.47487
7.03935
7.7944
8.69863
9.73815
10.9122
12.2273
13.6947
15.3288
17.1464
19.1661
21.407
23.8903
26.6389
29.6764
33.0254
36.707
40.7449
45.163
49.9845
55.2325
60.9317
67.1002
73.7404
80.8701
88.5011
96.6415
105.296
114.467
124.152
134.348
145.038
156.202
167.826
179.891
192.373
205.246
218.481
232.047
245.91
260.032
274.368
288.875
303.51
318.229
332.987
347.738
362.436
377.035
391.49
405.742
419.693
433.324
446.603
459.504
472.001
484.062
495.657
506.752
517.318
527.322
536.735
545.527
553.672
561.143
567.917
573.972
579.29
583.852
587.642
590.649
592.861
594.27
594.87
594.656
593.63
591.796
589.164
585.746
581.564
576.639
571.004
564.699
557.769
550.271
542.271
533.844
525.076
516.067
506.925
497.772
488.736
479.954
471.561
463.69
456.455
449.947
444.22
439.284
435.102
431.587
428.612
426.02
423.638
421.288
418.809
416.058
412.921
409.318
405.199
400.544
395.36
389.673
383.529
376.984
370.103
362.955
355.611
348.14
340.609
333.08
325.612
318.256
311.062
304.07
297.319
290.825
284.589
278.64
272.994
267.664
262.651
257.955
253.57
249.486
245.689
242.165
238.898
235.868
233.058
230.448
228.019
225.751
223.623
221.618
219.715
217.897
216.144
214.441
212.769
211.113
209.458
207.789
206.094
204.359
202.574
200.727
198.81
196.814
194.731
192.555
190.279
187.89
185.38
182.756
180.019
177.174
174.225
171.177
168.033
164.8
161.484
158.092
154.629
151.104
147.524
143.896
140.23
136.532
132.811
129.074
125.33
121.584
117.845
114.118
110.41
106.726
103.07
99.4474
95.8613
92.3151
88.8126
85.3572
81.9581
78.6247
75.4634
72.6889
9.75384
6.63543
6.17505
6.4085
6.95422
7.69836
8.60076
9.64923
10.8451
12.1977
13.7216
15.4345
17.3582
19.5161
21.9311
24.6305
27.6433
31.0009
34.7312
38.8554
43.4037
48.4034
53.8805
59.8593
66.362
73.4046
80.9947
89.1424
97.8541
107.132
116.974
127.374
138.32
149.8
161.79
174.265
187.198
200.562
214.324
228.45
242.903
257.643
272.63
287.819
303.163
318.611
334.117
349.632
365.105
380.489
395.733
410.787
425.552
439.986
454.065
467.767
481.066
493.938
506.356
518.294
529.72
540.604
550.917
560.627
569.706
578.126
585.859
592.88
599.165
604.693
609.443
613.397
616.542
618.862
620.349
620.993
620.79
619.737
617.834
615.089
611.513
607.12
601.932
595.976
589.286
581.901
573.873
565.258
556.124
546.549
536.62
526.439
516.117
505.78
495.564
485.615
476.086
467.127
458.881
451.469
444.979
439.452
434.878
431.186
428.255
425.921
423.991
422.264
420.544
418.656
416.453
413.821
410.685
407.001
402.757
397.964
392.658
386.887
380.713
374.201
367.424
360.452
353.354
346.196
339.041
331.945
324.959
318.131
311.503
305.079
298.886
292.952
287.297
281.934
276.867
272.098
267.62
263.425
259.501
255.833
252.405
249.198
246.195
243.375
240.719
238.208
235.821
233.54
231.346
229.22
227.144
225.102
223.077
221.054
219.019
216.958
214.859
212.711
210.502
208.224
205.867
203.426
200.893
198.264
195.529
192.676
189.711
186.636
183.456
180.175
176.799
173.332
169.781
166.151
162.449
158.683
154.86
150.988
147.074
143.128
139.157
135.169
131.174
127.178
123.19
119.217
115.266
111.343
107.454
103.604
99.7991
96.0426
92.3385
88.6904
85.1018
81.5764
78.1223
74.7467
71.5463
68.7313
9.76675
6.62436
6.14061
6.35918
6.89929
7.64878
8.56974
9.65277
10.9028
12.3333
13.9641
15.8175
17.9231
20.3133
23.0129
26.0591
29.4887
33.339
37.6442
42.4346
47.7423
53.5968
60.0243
67.0475
74.6843
82.9453
91.8337
101.35
111.489
122.244
133.599
145.535
158.029
171.054
184.578
198.563
212.972
227.767
242.906
258.345
274.039
289.942
306.007
322.181
338.417
354.658
370.854
386.953
402.901
418.652
434.101
449.188
463.902
478.22
492.124
505.592
518.604
531.139
543.174
554.683
565.639
576.016
585.783
594.913
603.379
611.152
618.208
624.52
630.065
634.823
638.773
641.897
644.18
645.611
646.178
645.874
644.695
642.64
639.713
635.919
631.274
625.794
619.504
612.433
604.618
596.102
586.938
577.186
566.915
556.204
545.144
533.835
522.39
510.936
499.612
488.569
477.969
467.978
458.758
450.46
443.203
437.063
432.061
428.152
425.228
423.123
421.634
420.535
419.599
418.617