/*--------------------------------*- C++ -*----------------------------------*\
  =========                 |
  \\      /  F ield         | OpenFOAM: The Open Source CFD Toolbox
   \\    /   O peration     | Website:  https://openfoam.org
    \\  /    A nd           | Version:  7
     \\/     M anipulation  |
\*---------------------------------------------------------------------------*/
FoamFile
{
    version     2.0;
    format      ascii;
    class       volScalarField;
    location    "550";
    object      k;
}
// * * * * * * * * * * * * * * * * * * * * * * * * * * * * * * * * * * * * * //

dimensions      [0 2 -2 0 0 0 0];

internalField   nonuniform List<scalar> 
16900
(
0.0263641
0.0480255
0.0674752
0.0843489
0.0984047
0.109768
0.118674
0.125438
0.13041
0.13396
0.136273
0.137112
0.135914
0.140825
0.141787
0.15331
0.165353
0.177688
0.190291
0.203161
0.216291
0.229686
0.243342
0.257263
0.271447
0.285891
0.300592
0.315542
0.330735
0.346159
0.361804
0.377657
0.393703
0.409925
0.426308
0.442831
0.459476
0.476221
0.493047
0.509931
0.526851
0.543784
0.560709
0.577604
0.594445
0.611212
0.627884
0.64444
0.660861
0.677128
0.693224
0.709134
0.724842
0.740335
0.755601
0.770632
0.78542
0.799959
0.814247
0.828285
0.842075
0.855626
0.86895
0.882069
0.895012
0.907825
0.920572
0.933354
0.946146
0.958792
0.97132
0.983742
0.99607
1.00831
1.02046
1.03252
1.04449
1.05637
1.06813
1.07976
1.09124
1.10255
1.11365
1.12449
1.13504
1.14524
1.15501
1.1643
1.17302
1.18107
1.18835
1.19475
1.20014
1.20441
1.2074
1.20898
1.209
1.20734
1.20384
1.19841
1.19092
1.18132
1.16952
1.15557
1.13944
1.12141
1.10257
1.08367
1.06909
1.05482
1.03945
1.02288
1.0052
0.986576
0.967146
0.947076
0.926519
0.905626
0.884531
0.863363
0.842234
0.821243
0.800479
0.780017
0.759921
0.740246
0.721035
0.702327
0.68415
0.666529
0.649483
0.633029
0.617184
0.601965
0.587406
0.573553
0.560687
0.5485
0.53684
0.52565
0.514916
0.504641
0.494834
0.485506
0.476665
0.468321
0.460482
0.453157
0.446355
0.440083
0.434351
0.429165
0.424532
0.420457
0.416941
0.413982
0.411576
0.409712
0.408374
0.407543
0.407192
0.407291
0.407808
0.408706
0.409947
0.411494
0.413309
0.415356
0.417602
0.420017
0.422573
0.42525
0.428028
0.4309
0.43388
0.436903
0.440248
0.443516
0.446685
0.449785
0.452835
0.455845
0.458817
0.461755
0.464656
0.467523
0.470357
0.47316
0.475936
0.478695
0.481446
0.48421
0.487013
0.489899
0.492942
0.496274
0.500137
0.505112
0.512562
0.526327
0.0435213
0.0677427
0.0885691
0.107078
0.123183
0.137033
0.149004
0.159633
0.169631
0.179891
0.191299
0.204718
0.222605
0.241774
0.260856
0.281668
0.302943
0.324752
0.347114
0.370016
0.39345
0.417417
0.441917
0.466954
0.492528
0.51864
0.545285
0.572457
0.600146
0.62834
0.657022
0.686175
0.715776
0.7458
0.776219
0.807004
0.838123
0.869539
0.901217
0.933118
0.965203
0.997431
1.02976
1.06215
1.09456
1.12695
1.15927
1.19149
1.22357
1.25547
1.28716
1.31861
1.34979
1.38066
1.41122
1.44143
1.47128
1.50077
1.52988
1.55861
1.58698
1.61499
1.64266
1.67002
1.69709
1.72393
1.75059
1.77694
1.80288
1.82863
1.85428
1.87987
1.90545
1.93103
1.95666
1.98234
2.00809
2.03393
2.05985
2.08584
2.11188
2.13794
2.16398
2.18993
2.21573
2.24127
2.26644
2.2911
2.31509
2.33822
2.36028
2.38103
2.4002
2.41751
2.43264
2.44527
2.45505
2.46165
2.46474
2.464
2.45913
2.44988
2.43601
2.41739
2.39391
2.36521
2.33315
2.29741
2.25938
2.21863
2.17528
2.12967
2.08217
2.03318
1.98309
1.93226
1.88103
1.82974
1.77867
1.72808
1.6782
1.62925
1.58138
1.53475
1.48948
1.44565
1.40336
1.36266
1.3236
1.28622
1.25053
1.21657
1.18434
1.15388
1.12524
1.09851
1.07313
1.04906
1.02631
1.0049
0.984836
0.966114
0.948731
0.932681
0.917954
0.904539
0.892423
0.881595
0.872042
0.863753
0.856713
0.850909
0.846323
0.842936
0.840721
0.839647
0.839673
0.840751
0.842824
0.845827
0.849685
0.854316
0.859635
0.86555
0.871968
0.8788
0.885955
0.893349
0.900902
0.908543
0.916205
0.923833
0.931382
0.938819
0.946123
0.952994
0.958935
0.96424
0.969032
0.973375
0.977296
0.980808
0.983914
0.986613
0.988906
0.990791
0.992268
0.993337
0.994003
0.994269
0.994141
0.993626
0.992731
0.991462
0.989812
0.987754
0.985204
0.981956
0.978636
0.972353
0.0578558
0.085225
0.107635
0.127807
0.146236
0.163235
0.1793
0.195125
0.211518
0.229259
0.248846
0.270483
0.294437
0.319685
0.345686
0.372516
0.399928
0.427956
0.456643
0.486001
0.516033
0.546743
0.578134
0.61021
0.642971
0.676418
0.710545
0.745344
0.780805
0.816913
0.853647
0.890987
0.928905
0.967372
1.00635
1.04581
1.08571
1.126
1.16663
1.20757
1.24875
1.29013
1.33165
1.37326
1.41489
1.45651
1.49804
1.53944
1.58066
1.62163
1.66232
1.70268
1.74265
1.78221
1.82132
1.85994
1.89804
1.9356
1.97261
2.00906
2.04494
2.08025
2.11502
2.14926
2.18299
2.21625
2.24906
2.28119
2.31283
2.3441
2.37508
2.40581
2.43636
2.46677
2.49707
2.52731
2.5575
2.58768
2.61786
2.64804
2.67821
2.70837
2.73847
2.76845
2.79826
2.82779
2.85692
2.88552
2.91339
2.94032
2.96608
2.99038
3.0129
3.03328
3.05116
3.0661
3.0777
3.0855
3.08907
3.08799
3.08184
3.07028
3.05298
3.02955
3.0004
2.96582
2.92667
2.88322
2.83602
2.78517
2.73102
2.67405
2.61475
2.55364
2.4912
2.4279
2.36418
2.30045
2.23707
2.17438
2.11266
2.05216
1.99311
1.93567
1.88
1.82623
1.77443
1.7247
1.67708
1.63161
1.58832
1.54724
1.50838
1.47178
1.43749
1.4052
1.37471
1.34598
1.31901
1.29376
1.27023
1.24838
1.22821
1.20969
1.19279
1.1775
1.16379
1.15164
1.14104
1.13195
1.12435
1.11822
1.11353
1.11024
1.1083
1.10767
1.10829
1.11007
1.11295
1.11683
1.12161
1.1272
1.13348
1.14034
1.14767
1.15536
1.16331
1.17142
1.17959
1.18775
1.19581
1.20371
1.21139
1.2188
1.22574
1.23182
1.23711
1.24169
1.24564
1.249
1.25178
1.25401
1.25568
1.25679
1.25735
1.25736
1.25681
1.25571
1.25406
1.25187
1.24914
1.24585
1.24201
1.23758
1.2325
1.22664
1.21976
1.21148
1.20239
1.19141
0.0699788
0.10035
0.12451
0.146306
0.16686
0.186694
0.206331
0.226399
0.24754
0.270265
0.294819
0.321176
0.349214
0.378535
0.408812
0.439886
0.471651
0.504128
0.537353
0.57135
0.60613
0.641701
0.678069
0.71524
0.753215
0.791994
0.831575
0.871949
0.913107
0.955031
0.997705
1.0411
1.0852
1.12996
1.17534
1.22131
1.26782
1.31482
1.36226
1.41008
1.45822
1.50662
1.55522
1.60394
1.65273
1.7015
1.7502
1.79876
1.8471
1.89516
1.94288
1.9902
2.03705
2.08338
2.12913
2.17427
2.21874
2.26251
2.30554
2.34782
2.38932
2.43005
2.46999
2.50916
2.54758
2.58529
2.62205
2.65798
2.69321
2.72781
2.76186
2.79543
2.82857
2.86136
2.89383
2.92604
2.95803
2.98985
3.02152
3.05307
3.08452
3.11586
3.14709
3.17817
3.20906
3.23967
3.2699
3.29964
3.32869
3.35686
3.3839
3.40951
3.43336
3.45507
3.4742
3.49029
3.50285
3.51137
3.5153
3.51415
3.5074
3.49455
3.4754
3.44994
3.41847
3.38122
3.33869
3.29118
3.23907
3.18266
3.1224
3.05885
2.99261
2.92424
2.85431
2.78338
2.71195
2.64048
2.5694
2.49909
2.42989
2.36209
2.29593
2.23163
2.16936
2.10925
2.05142
1.99595
1.94291
1.89234
1.84427
1.79873
1.75575
1.71533
1.67743
1.64166
1.60801
1.57645
1.54692
1.5194
1.49384
1.47022
1.4485
1.42864
1.41061
1.39438
1.37992
1.3672
1.35618
1.34683
1.33912
1.33299
1.32842
1.32533
1.32368
1.32338
1.32436
1.32653
1.32978
1.33402
1.33912
1.34496
1.35143
1.3584
1.36574
1.37335
1.38111
1.38891
1.39666
1.40427
1.41166
1.41875
1.42548
1.43173
1.4371
1.44163
1.44534
1.4483
1.45052
1.45205
1.4529
1.45308
1.4526
1.45146
1.44966
1.44722
1.44412
1.44039
1.43601
1.43099
1.42533
1.41902
1.41203
1.4043
1.39572
1.38611
1.37516
1.36252
1.34914
1.33545
0.0805075
0.113387
0.139301
0.162659
0.185071
0.207256
0.229737
0.253034
0.277613
0.303799
0.331706
0.361261
0.392293
0.424579
0.457911
0.492147
0.527213
0.56311
0.599861
0.637485
0.675997
0.715407
0.755725
0.796958
0.839109
0.882182
0.926175
0.971083
1.0169
1.0636
1.11119
1.15962
1.20887
1.25892
1.30971
1.36121
1.41337
1.46614
1.51944
1.57323
1.62743
1.68198
1.73679
1.7918
1.84691
1.90205
1.95714
2.01209
2.06682
2.12124
2.17529
2.22887
2.2819
2.33433
2.38607
2.43706
2.48724
2.53655
2.58494
2.63237
2.67881
2.72422
2.7686
2.81194
2.85425
2.89543
2.93536
2.97419
3.01201
3.04891
3.08496
3.12023
3.15479
3.18871
3.22206
3.25489
3.28727
3.31926
3.35091
3.38227
3.41338
3.44427
3.47497
3.50547
3.53576
3.56578
3.59548
3.62477
3.65348
3.68146
3.70846
3.73421
3.75838
3.78057
3.80032
3.81715
3.83049
3.83978
3.8444
3.84373
3.83724
3.82456
3.80557
3.78018
3.74852
3.71074
3.66713
3.61798
3.56359
3.50433
3.44072
3.37337
3.30291
3.22998
3.15522
3.07923
3.00257
2.92577
2.8493
2.7736
2.69905
2.62597
2.55465
2.48532
2.41818
2.35339
2.29108
2.23134
2.17426
2.11988
2.06825
2.01939
1.97333
1.9301
1.88936
1.851
1.81501
1.78134
1.74994
1.72076
1.69375
1.66888
1.64608
1.62533
1.60657
1.58976
1.57486
1.56182
1.55061
1.54116
1.53344
1.52738
1.52291
1.51997
1.51846
1.51831
1.51941
1.52165
1.52491
1.52908
1.53402
1.5396
1.54569
1.55216
1.55889
1.56575
1.57263
1.57941
1.58601
1.59232
1.59828
1.6038
1.60881
1.61291
1.6161
1.6184
1.61984
1.62045
1.62026
1.61928
1.61753
1.61504
1.61179
1.60781
1.60311
1.59769
1.59156
1.58472
1.57718
1.56895
1.56001
1.55035
1.53993
1.52867
1.51644
1.50303
1.48814
1.47157
1.45462
1.43879
0.0896888
0.124525
0.152033
0.176811
0.200792
0.224844
0.249499
0.275187
0.302252
0.330902
0.361196
0.393056
0.426338
0.460884
0.496554
0.533245
0.5709
0.609509
0.649084
0.689639
0.73119
0.773748
0.817325
0.861931
0.907574
0.954259
1.00199
1.05076
1.10057
1.1514
1.20325
1.25608
1.30987
1.36459
1.4202
1.47666
1.5339
1.59188
1.65053
1.70977
1.76954
1.82975
1.89033
1.95117
2.01219
2.07329
2.13437
2.19535
2.2561
2.31655
2.37658
2.4361
2.49501
2.55323
2.61065
2.6672
2.72278
2.77733
2.83077
2.88304
2.93408
2.98384
3.03229
3.07941
3.12516
3.1693
3.21192
3.25312
3.29297
3.33156
3.36894
3.40521
3.44043
3.47468
3.50804
3.54058
3.57238
3.60352
3.63407
3.66411
3.69372
3.72296
3.75188
3.78052
3.80891
3.83706
3.86495
3.89253
3.91971
3.94636
3.97229
3.99725
4.02094
4.04299
4.06292
4.08024
4.09434
4.10458
4.11033
4.11095
4.10598
4.09504
4.07786
4.05426
4.02419
3.98769
3.94492
3.8961
3.84149
3.78151
3.71667
3.6476
3.57498
3.49949
3.42182
3.34261
3.2625
3.18205
3.1018
3.02222
2.94373
2.86671
2.79148
2.71829
2.64738
2.57893
2.51309
2.44997
2.38966
2.33224
2.27773
2.2262
2.17765
2.13202
2.08897
2.04851
2.01061
1.97522
1.94229
1.91177
1.88359
1.85771
1.83407
1.8126
1.79326
1.776
1.76074
1.74745
1.73605
1.72648
1.71867
1.71254
1.70801
1.70498
1.70336
1.70303
1.70388
1.70578
1.7086
1.71221
1.71646
1.72122
1.72635
1.73172
1.7372
1.74266
1.74799
1.75308
1.75783
1.76216
1.76599
1.76925
1.77161
1.77298
1.77338
1.77285
1.7714
1.76905
1.76583
1.76176
1.75686
1.75114
1.74462
1.73731
1.72923
1.72039
1.7108
1.70048
1.68943
1.67765
1.66514
1.65187
1.6378
1.62285
1.60687
1.58966
1.57099
1.55079
1.53069
1.51285
0.0976557
0.133925
0.162775
0.188776
0.214042
0.239546
0.265829
0.29327
0.322129
0.352555
0.384577
0.418132
0.453108
0.48939
0.526877
0.565494
0.605198
0.645977
0.687836
0.730786
0.774842
0.820019
0.86633
0.913789
0.962408
1.0122
1.06316
1.1153
1.16862
1.2231
1.27875
1.33553
1.39342
1.45239
1.5124
1.5734
1.63534
1.69816
1.76178
1.82614
1.89115
1.95672
2.02275
2.08915
2.1558
2.22261
2.28945
2.35621
2.42278
2.48903
2.55485
2.62012
2.68473
2.74856
2.81149
2.87342
2.93425
2.99387
3.05218
3.1091
3.16456
3.21846
3.27077
3.32143
3.37023
3.41709
3.4621
3.50532
3.54684
3.5867
3.62499
3.66177
3.69713
3.73114
3.76389
3.79547
3.82597
3.85549
3.88411
3.91196
3.93913
3.96572
3.99183
4.01755
4.04296
4.06811
4.09306
4.11783
4.14237
4.16664
4.19053
4.21382
4.23627
4.25756
4.27721
4.29476
4.30958
4.32101
4.32845
4.33132
4.32905
4.32114
4.30719
4.28687
4.25997
4.2264
4.1862
4.13949
4.0865
4.02763
3.96338
3.8944
3.82137
3.74501
3.66604
3.58516
3.50304
3.42032
3.33757
3.25532
3.17404
3.09413
3.01595
2.93982
2.86597
2.79462
2.72595
2.66009
2.59714
2.53719
2.48031
2.42653
2.37591
2.32813
2.2831
2.24083
2.20128
2.1644
2.13015
2.09846
2.06926
2.04248
2.01807
1.99595
1.97605
1.95831
1.94266
1.92901
1.9173
1.90743
1.89932
1.89287
1.88798
1.88453
1.88241
1.88148
1.88162
1.88269
1.88455
1.88704
1.89003
1.89338
1.89694
1.90057
1.90416
1.90758
1.9107
1.91344
1.9157
1.91739
1.91844
1.91863
1.91775
1.91582
1.91289
1.90898
1.90409
1.89826
1.89151
1.88386
1.87533
1.86594
1.85572
1.84468
1.83286
1.82026
1.8069
1.7928
1.77797
1.76241
1.74612
1.72908
1.71123
1.6925
1.67276
1.65182
1.62952
1.60594
1.58294
1.56311
0.104508
0.141748
0.171661
0.198662
0.22495
0.251558
0.27904
0.307743
0.337884
0.369576
0.402841
0.437631
0.473866
0.511462
0.550345
0.590461
0.631778
0.674285
0.717986
0.762893
0.80902
0.856385
0.905004
0.954897
1.00608
1.05856
1.11236
1.16748
1.22393
1.2817
1.34078
1.40116
1.46281
1.5257
1.58979
1.65504
1.72138
1.78875
1.85709
1.9263
1.9963
2.06698
2.13825
2.20999
2.28207
2.35439
2.4268
2.49917
2.57138
2.64328
2.71474
2.78562
2.85578
2.92508
2.99339
3.06058
3.12651
3.19106
3.25412
3.31556
3.37527
3.43317
3.48917
3.54312
3.59476
3.64415
3.69133
3.73635
3.77927
3.82014
3.85901
3.89597
3.93109
3.96445
3.99614
4.02626
4.05491
4.0822
4.10825
4.13319
4.15716
4.18029
4.20273
4.22461
4.24606
4.26722
4.28821
4.30911
4.32999
4.35086
4.37173
4.39244
4.41282
4.43269
4.45154
4.46894
4.48438
4.49727
4.50696
4.5128
4.51413
4.51032
4.5008
4.48508
4.46279
4.43368
4.39763
4.35469
4.30501
4.24893
4.18696
4.11969
4.04784
3.97213
3.89332
3.81215
3.72935
3.64559
3.56149
3.47764
3.39454
3.31266
3.23239
3.15407
3.07799
3.0044
2.93348
2.86541
2.8003
2.73827
2.67938
2.6237
2.5712
2.52155
2.4748
2.43093
2.38992
2.35171
2.31626
2.28348
2.25331
2.22567
2.20048
2.17766
2.15713
2.13881
2.1226
2.10842
2.09616
2.08572
2.07701
2.06989
2.06424
2.05995
2.05686
2.05485
2.05377
2.05346
2.05379
2.05459
2.05572
2.05705
2.05842
2.0597
2.06078
2.06152
2.06183
2.0616
2.06075
2.05919
2.0568
2.05328
2.04866
2.04297
2.03623
2.02847
2.0197
2.00996
1.99926
1.98763
1.97511
1.96171
1.94747
1.93242
1.91657
1.89996
1.88261
1.86454
1.84576
1.82628
1.8061
1.7852
1.76354
1.74104
1.71758
1.69302
1.66727
1.64053
1.61477
1.59294
0.110338
0.14816
0.178864
0.206641
0.23371
0.26113
0.289467
0.319051
0.350077
0.382643
0.41677
0.452431
0.48957
0.528128
0.568054
0.60931
0.651875
0.695742
0.740916
0.787412
0.835246
0.88444
0.935015
0.986994
1.0404
1.09525
1.15156
1.20935
1.26862
1.32937
1.39161
1.4553
1.52045
1.587
1.65492
1.72417
1.79468
1.86639
1.93922
2.01307
2.08786
2.16347
2.23978
2.31668
2.39402
2.47168
2.54949
2.62732
2.70501
2.7824
2.85935
2.93568
3.01124
3.08588
3.15942
3.23172
3.30261
3.37195
3.4396
3.50541
3.56925
3.63099
3.6905
3.74744
3.80178
3.85353
3.90271
3.94934
3.99347
4.03512
4.07436
4.11124
4.14585
4.17825
4.20855
4.23683
4.26321
4.28782
4.31078
4.33226
4.35241
4.37142
4.38946
4.40671
4.42337
4.43964
4.45573
4.47181
4.48801
4.50449
4.52136
4.53855
4.55602
4.57359
4.59103
4.60795
4.6239
4.6383
4.6505
4.65977
4.66535
4.66647
4.66238
4.65242
4.63602
4.61275
4.58235
4.54471
4.49991
4.44822
4.39008
4.32607
4.25689
4.18326
4.10598
4.02583
3.94356
3.8599
3.77553
3.69107
3.60709
3.52408
3.4425
3.36272
3.28506
3.2098
3.13718
3.06738
3.00054
2.9368
2.87625
2.81898
2.76476
2.71348
2.6652
2.6199
2.57756
2.53813
2.50154
2.46771
2.43657
2.40802
2.38198
2.35836
2.33705
2.31796
2.30097
2.28598
2.27288
2.26154
2.25184
2.24363
2.2368
2.23118
2.22664
2.22302
2.22016
2.21792
2.21614
2.21467
2.21336
2.21207
2.21067
2.20901
2.20699
2.20449
2.20141
2.19765
2.19314
2.18779
2.18131
2.17367
2.16491
2.15504
2.14411
2.13213
2.11913
2.10514
2.09018
2.07429
2.05751
2.03986
2.02138
2.00211
1.98208
1.96131
1.93984
1.9177
1.89489
1.87145
1.84735
1.8226
1.79715
1.77095
1.74389
1.71587
1.68686
1.65714
1.62876
1.60493
0.115238
0.153328
0.184574
0.212915
0.240546
0.268532
0.297443
0.327604
0.359201
0.392326
0.42701
0.463241
0.500987
0.540211
0.58088
0.622972
0.666474
0.711389
0.757725
0.8055
0.854736
0.905459
0.957697
1.01148
1.06683
1.12378
1.18235
1.24255
1.3044
1.36791
1.43307
1.49987
1.5683
1.63831
1.70988
1.78294
1.85744
1.9333
2.01044
2.08877
2.16817
2.24854
2.32974
2.41163
2.49406
2.57689
2.65994
2.74305
2.82605
2.90876
2.99102
3.07263
3.15342
3.2332
3.3118
3.38901
3.46468
3.53862
3.61067
3.68065
3.7484
3.81378
3.87643
3.93621
3.99308
4.04703
4.09803
4.1461
4.19125
4.2335
4.27291
4.30952
4.34339
4.3746
4.40324
4.42941
4.45321
4.47478
4.49426
4.51184
4.5277
4.54206
4.55511
4.56709
4.57824
4.58886
4.59922
4.6096
4.62022
4.63136
4.6432
4.65591
4.66955
4.68411
4.69948
4.71539
4.73147
4.74718
4.76187
4.77477
4.78499
4.79164
4.79378
4.79054
4.78116
4.765
4.7416
4.71071
4.67227
4.62646
4.57364
4.51435
4.44924
4.37908
4.30463
4.22673
4.14617
4.06371
3.9801
3.89599
3.81201
3.7287
3.64656
3.566
3.48739
3.41104
3.33722
3.26614
3.19799
3.1329
3.071
3.01234
2.95664
2.90394
2.8543
2.80771
2.76415
2.72355
2.68585
2.65097
2.61881
2.58928
2.56227
2.53768
2.51539
2.49529
2.47725
2.46115
2.44685
2.43422
2.42312
2.41339
2.40489
2.39746
2.39095
2.38519
2.38003
2.37531
2.37087
2.36658
2.36227
2.35782
2.3531
2.34797
2.34233
2.33607
2.3291
2.32133
2.31269
2.30298
2.29205
2.27995
2.26671
2.25237
2.23694
2.22047
2.20298
2.18451
2.16508
2.14474
2.12353
2.10149
2.07865
2.05507
2.03076
2.00579
1.98016
1.95393
1.92711
1.89972
1.87176
1.84323
1.8141
1.78433
1.75383
1.72254
1.69048
1.65797
1.62709
1.60128
0.119299
0.157409
0.188983
0.217694
0.24569
0.27403
0.303283
0.333773
0.365684
0.399114
0.434101
0.470652
0.508756
0.548394
0.589551
0.63222
0.6764
0.7221
0.769337
0.818136
0.868524
0.920534
0.9742
1.02956
1.08664
1.14548
1.2061
1.26854
1.33279
1.39889
1.46681
1.53656
1.60812
1.68146
1.75652
1.83326
1.91161
1.99148
2.0728
2.15545
2.23933
2.3243
2.41022
2.49695
2.58431
2.67213
2.76023
2.84843
2.93654
3.02437
3.11172
3.19838
3.28417
3.36887
3.45226
3.53415
3.61433
3.6926
3.76877
3.84265
3.91404
3.98262
4.04814
4.11053
4.16973
4.22565
4.27828
4.32758
4.37356
4.41623
4.45561
4.49175
4.52469
4.55451
4.58129
4.60511
4.62608
4.64434
4.66006
4.67341
4.68461
4.6939
4.70151
4.7077
4.7128
4.71714
4.72108
4.72498
4.72922
4.73416
4.74015
4.7475
4.75645
4.76716
4.77966
4.79384
4.80945
4.82602
4.84292
4.85935
4.87436
4.88688
4.89583
4.9001
4.8987
4.89077
4.87561
4.8528
4.82211
4.78358
4.7375
4.68431
4.62466
4.55926
4.48892
4.41447
4.33676
4.25658
4.17472
4.0919
4.00878
3.92597
3.844
3.76334
3.68439
3.60751
3.533
3.46109
3.39201
3.32593
3.26298
3.20312
3.14617
3.09226
3.04142
2.99366
2.94895
2.90723
2.86843
2.83245
2.7992
2.76856
2.74043
2.71467
2.69117
2.66979
2.65039
2.63284
2.61698
2.60266
2.58973
2.57803
2.56739
2.55767
2.54869
2.54029
2.53231
2.5246
2.517
2.50938
2.50158
2.49349
2.48497
2.4759
2.46619
2.45574
2.44447
2.43228
2.41908
2.40464
2.389
2.37218
2.35424
2.33519
2.31509
2.29395
2.27181
2.24871
2.2247
2.19982
2.17411
2.14761
2.12039
2.09247
2.0639
2.03474
2.00501
1.97475
1.94399
1.91276
1.88106
1.84889
1.81625
1.78308
1.74935
1.715
1.68011
1.64502
1.61178
1.58404
0.122611
0.160552
0.192272
0.22118
0.249369
0.27788
0.307279
0.337894
0.369909
0.403431
0.438511
0.475173
0.513423
0.553264
0.594696
0.637727
0.682369
0.728642
0.776572
0.826191
0.877535
0.930646
0.985564
1.04233
1.10099
1.16158
1.22413
1.28867
1.35522
1.42379
1.49438
1.56699
1.6416
1.71817
1.79664
1.87697
1.95907
2.04286
2.12824
2.2151
2.30332
2.39276
2.48327
2.57467
2.66678
2.7594
2.85235
2.94541
3.03839
3.13106
3.22322
3.31465
3.40513
3.49444
3.58231
3.66852
3.75285
3.83509
3.91501
3.9924
4.06691
4.13828
4.20636
4.27107
4.3323
4.38993
4.44391
4.49419
4.54076
4.58361
4.62275
4.6582
4.69001
4.71823
4.74296
4.76422
4.78215
4.79689
4.80861
4.8175
4.82378
4.8277
4.82954
4.8296
4.82825
4.82587
4.82289
4.81978
4.81701
4.81506
4.81445
4.81563
4.81902
4.82498
4.83371
4.84531
4.85964
4.87637
4.89495
4.91458
4.93424
4.95275
4.96885
4.98121
4.98858
4.98983
4.98404
4.97052
4.94886
4.91896
4.88095
4.83521
4.78232
4.72296
4.65795
4.58813
4.51437
4.43751
4.35839
4.27778
4.19638
4.11486
4.03379
3.95369
3.87501
3.79815
3.72344
3.65116
3.58154
3.51481
3.45111
3.39024
3.33228
3.27733
3.22544
3.17662
3.13083
3.08801
3.04808
3.01095
2.97651
2.94463
2.91519
2.88806
2.86309
2.84015
2.81907
2.79972
2.78192
2.76551
2.75034
2.73623
2.72302
2.71055
2.69864
2.68714
2.67589
2.66473
2.65353
2.64214
2.63042
2.61827
2.60555
2.59217
2.57803
2.56304
2.54713
2.53021
2.51209
2.49274
2.4722
2.45051
2.42771
2.40385
2.37895
2.35305
2.3262
2.29844
2.26981
2.24037
2.21017
2.17926
2.14768
2.1155
2.08275
2.0495
2.01578
1.98162
1.94708
1.91216
1.8769
1.84129
1.80533
1.769
1.73227
1.69513
1.65765
1.62018
1.58475
1.55516
0.125259
0.162892
0.194607
0.223564
0.251793
0.280317
0.309698
0.340266
0.372212
0.405651
0.440649
0.477248
0.515472
0.555341
0.596875
0.640097
0.685033
0.731716
0.780183
0.830476
0.882642
0.936729
0.99279
1.05087
1.11103
1.1733
1.23772
1.30432
1.37311
1.44413
1.51736
1.59281
1.67044
1.75021
1.83207
1.91595
2.00175
2.08939
2.17876
2.26974
2.36219
2.45597
2.5509
2.64682
2.74348
2.84068
2.93821
3.03586
3.1334
3.23059
3.32722
3.42303
3.5178
3.61131
3.70323
3.79331
3.88131
3.96702
4.05018
4.13044
4.20752
4.28126
4.3515
4.41812
4.48104
4.54001
4.59498
4.64591
4.69276
4.73551
4.77413
4.80864
4.83907
4.86546
4.88788
4.90639
4.92111
4.93218
4.93975
4.94402
4.94522
4.94363
4.93953
4.93327
4.92523
4.91586
4.90566
4.89515
4.88491
4.87554
4.86769
4.86197
4.859
4.85932
4.86335
4.87138
4.88349
4.89951
4.91901
4.94124
4.96517
4.98955
5.01291
5.03372
5.05046
5.0617
5.06623
5.06311
5.05169
5.03166
5.003
4.96599
4.92112
4.86904
4.81054
4.74649
4.67777
4.60526
4.52985
4.45234
4.37351
4.29406
4.21461
4.13574
4.05794
3.98164
3.90722
3.835
3.76524
3.69818
3.63395
3.57237
3.51362
3.45782
3.40502
3.35523
3.30841
3.2645
3.22342
3.18506
3.14931
3.11604
3.08511
3.05638
3.0297
3.00491
2.98185
2.96035
2.94026
2.9214
2.9036
2.88668
2.8705
2.85486
2.83962
2.82462
2.8097
2.79471
2.77952
2.764
2.74802
2.73147
2.71425
2.69625
2.67739
2.65761
2.63681
2.6149
2.59172
2.56734
2.54182
2.51518
2.48748
2.45875
2.42904
2.39838
2.36683
2.33443
2.30124
2.26732
2.23271
2.19748
2.16167
2.12536
2.08859
2.0514
2.01386
1.97601
1.93787
1.89949
1.86089
1.82208
1.78306
1.74383
1.70437
1.66468
1.62488
1.58527
1.54784
1.5165
0.127323
0.164551
0.196138
0.225016
0.253154
0.281555
0.310779
0.341158
0.372891
0.406104
0.440879
0.477275
0.515335
0.555099
0.596605
0.639893
0.685007
0.731993
0.780902
0.831788
0.884707
0.93972
0.996888
1.05627
1.11792
1.18189
1.2482
1.31689
1.38799
1.4615
1.53742
1.61575
1.69646
1.7795
1.86478
1.95222
2.04172
2.13318
2.22649
2.3215
2.41808
2.51605
2.61524
2.71549
2.81646
2.91796
3.01977
3.12165
3.22337
3.32466
3.42529
3.525
3.62355
3.72074
3.81615
3.90949
4.00055
4.08908
4.17469
4.25714
4.33626
4.41184
4.48372
4.55173
4.61574
4.67557
4.73112
4.78231
4.82907
4.87137
4.90916
4.94245
4.97124
4.99557
5.0155
5.03109
5.04244
5.04969
5.053
5.05256
5.0486
5.04141
5.0313
5.01864
5.00382
4.98735
4.96975
4.95163
4.93363
4.91647
4.9009
4.8877
4.87766
4.87151
4.86991
4.87339
4.88225
4.89655
4.91603
4.94005
4.96765
4.99749
5.028
5.0574
5.08391
5.10577
5.12146
5.12971
5.12962
5.12062
5.10253
5.07546
5.03982
4.99621
4.94539
4.88822
4.8256
4.75845
4.6877
4.61419
4.53876
4.46214
4.38503
4.30804
4.23172
4.15653
4.08289
4.01116
3.94165
3.87461
3.81008
3.74806
3.68875
3.63227
3.57869
3.52801
3.48021
3.43521
3.39294
3.35328
3.31611
3.28129
3.24869
3.21815
3.18951
3.1626
3.13727
3.11333
3.09062
3.06896
3.04818
3.02812
3.0086
2.98947
2.97056
2.95171
2.9328
2.91367
2.8942
2.87426
2.85375
2.83256
2.81059
2.78777
2.76402
2.73926
2.71343
2.68636
2.65809
2.62867
2.59815
2.56658
2.53399
2.50044
2.46597
2.43062
2.39446
2.35754
2.31991
2.28163
2.24277
2.20339
2.16354
2.12328
2.08268
2.04179
2.00066
1.95934
1.91787
1.87628
1.8346
1.79286
1.75106
1.70921
1.66731
1.62537
1.58352
1.54204
1.50281
1.46987
0.128878
0.165635
0.196996
0.225686
0.25362
0.281783
0.310734
0.340807
0.372212
0.405087
0.43953
0.475618
0.513417
0.552986
0.594382
0.637665
0.682898
0.730147
0.779476
0.830949
0.884637
0.940612
0.998945
1.0597
1.12295
1.18873
1.25707
1.328
1.40154
1.47769
1.55645
1.6378
1.72171
1.80814
1.89695
1.98802
2.08126
2.17655
2.27376
2.37273
2.47329
2.57529
2.67853
2.7829
2.88788
2.99333
3.09901
3.20467
3.31007
3.41492
3.51897
3.62194
3.72357
3.82359
3.92167
4.0175
4.1108
4.2012
4.28851
4.37253
4.45304
4.52986
4.60277
4.6716
4.73618
4.79635
4.85198
4.90295
4.94919
4.99064
5.02723
5.05896
5.08581
5.10782
5.12502
5.13749
5.14531
5.14861
5.14755
5.14232
5.13316
5.12035
5.10423
5.08516
5.06358
5.03999
5.01498
4.98918
4.9633
4.93815
4.91457
4.89348
4.87582
4.86252
4.85446
4.85242
4.85699
4.86848
4.88687
4.91172
4.94214
4.97685
5.01413
5.05205
5.08851
5.12145
5.14896
5.16944
5.18165
5.18476
5.17836
5.16241
5.13717
5.10318
5.06116
5.01195
4.95648
4.89569
4.83052
4.7619
4.69068
4.61767
4.54361
4.46915
4.39489
4.32135
4.24898
4.17818
4.10929
4.0426
3.97804
3.91583
3.85617
3.79919
3.74496
3.69348
3.64474
3.59866
3.55515
3.51411
3.47542
3.43892
3.40447
3.37192
3.3411
3.31184
3.28397
3.25732
3.23171
3.20697
3.18293
3.15943
3.13629
3.11337
3.09052
3.06758
3.04442
3.02091
2.99694
2.97239
2.94716
2.92117
2.89432
2.86655
2.83779
2.80798
2.777
2.74482
2.71149
2.67709
2.64164
2.6052
2.56783
2.52956
2.49046
2.45057
2.40995
2.36867
2.32678
2.28436
2.24145
2.19813
2.15447
2.11052
2.06635
2.02201
1.97756
1.93304
1.88852
1.84401
1.79956
1.75519
1.71092
1.66676
1.62273
1.57884
1.53523
1.49214
1.45136
1.41699
0.129995
0.166238
0.197293
0.225705
0.253339
0.281169
0.309752
0.339428
0.370416
0.40287
0.436907
0.472625
0.51011
0.549444
0.590706
0.633979
0.679348
0.726902
0.77672
0.828876
0.883454
0.940538
1.00021
1.06255
1.12762
1.19548
1.2661
1.33953
1.41577
1.49483
1.57668
1.66128
1.74861
1.83864
1.93114
2.02596
2.12299
2.22212
2.32318
2.42601
2.53041
2.63618
2.74314
2.85105
2.95957
3.06846
3.17746
3.28631
3.39472
3.50243
3.60915
3.71458
3.81845
3.92046
4.02031
4.11762
4.2121
4.30358
4.39184
4.47668
4.55787
4.6352
4.70846
4.77745
4.84198
4.90188
4.957
5.00722
5.05243
5.09255
5.12752
5.15729
5.18186
5.20123
5.21544
5.22456
5.22865
5.22786
5.22232
5.21223
5.19784
5.17943
5.15733
5.13192
5.10365
5.07305
5.04071
5.0073
4.97359
4.94041
4.90871
4.87951
4.85387
4.8329
4.81772
4.80934
4.80863
4.81623
4.8324
4.85696
4.88922
4.92795
4.97144
5.01756
5.06396
5.10822
5.14806
5.18147
5.20685
5.22306
5.22941
5.22566
5.21194
5.18868
5.15655
5.11637
5.06906
5.01559
4.95694
4.89407
4.82788
4.75923
4.68891
4.61763
4.54603
4.47467
4.40405
4.33461
4.26672
4.20064
4.13638
4.07425
4.01446
3.95715
3.90239
3.8502
3.80055
3.75339
3.70863
3.66615
3.62583
3.58753
3.55109
3.51636
3.48317
3.45135
3.42073
3.39114
3.3624
3.33435
3.30682
3.27965
3.25268
3.22577
3.19877
3.17154
3.14397
3.11594
3.08733
3.05805
3.02801
2.99713
2.96534
2.93258
2.89879
2.8639
2.82782
2.79062
2.75235
2.71307
2.67283
2.63168
2.58968
2.54687
2.50332
2.45909
2.41423
2.36882
2.32291
2.27657
2.22988
2.1829
2.13569
2.08833
2.04088
1.99339
1.94592
1.89853
1.85126
1.80415
1.75725
1.71058
1.66416
1.61801
1.57216
1.52664
1.48156
1.43716
1.39509
1.35948
0.130738
0.16644
0.197126
0.225183
0.252438
0.279857
0.307998
0.33721
0.367724
0.399711
0.43331
0.46864
0.505816
0.544945
0.586126
0.629468
0.675088
0.723102
0.773606
0.826673
0.882404
0.940895
1.00223
1.06651
1.13381
1.20418
1.27751
1.35386
1.43322
1.51558
1.60088
1.68907
1.78007
1.8738
1.97006
2.06869
2.16954
2.27245
2.37723
2.4837
2.59165
2.70085
2.81108
2.92209
3.03357
3.14525
3.25685
3.36809
3.47869
3.58836
3.69679
3.80368
3.90875
4.01169
4.1121
4.2098
4.30459
4.39627
4.48462
4.56943
4.65047
4.72751
4.80033
4.86873
4.93249
4.99144
5.04542
5.09427
5.13788
5.17615
5.209
5.23638
5.25827
5.27465
5.28557
5.29107
5.29123
5.28617
5.27604
5.26103
5.24138
5.21738
5.18937
5.15772
5.12291
5.08545
5.04596
5.00513
4.96373
4.92267
4.88292
4.84557
4.81181
4.7829
4.76011
4.74473
4.73791
4.74061
4.75343
4.77654
4.80951
4.85128
4.90017
4.95396
5.01006
5.0657
5.11819
5.16509
5.20438
5.23456
5.25463
5.26412
5.26298
5.25153
5.23034
5.20022
5.16207
5.11688
5.06566
5.00939
4.94904
4.8855
4.81962
4.75216
4.6838
4.61515
4.54676
4.47909
4.41257
4.34741
4.28377
4.22198
4.16227
4.1048
4.04964
3.99682
3.94633
3.8981
3.85206
3.80809
3.76608
3.72587
3.68732
3.65028
3.61457
3.58003
3.5465
3.51379
3.48176
3.45022
3.41904
3.38804
3.35709
3.32605
3.29478
3.26316
3.23108
3.19844
3.16513
3.13108
3.0962
3.06044
3.02372
2.986
2.94723
2.90733
2.86631
2.82425
2.7812
2.73723
2.69239
2.64674
2.60032
2.5532
2.50545
2.45712
2.40828
2.359
2.30935
2.2594
2.20922
2.15887
2.10844
2.05798
2.00756
1.95725
1.90709
1.85715
1.80748
1.75811
1.70909
1.66045
1.61222
1.56442
1.51708
1.47024
1.42401
1.37858
1.3355
1.29885
0.131164
0.166309
0.196572
0.224211
0.251023
0.277972
0.305622
0.334331
0.36435
0.395869
0.429052
0.464043
0.500993
0.540044
0.581303
0.624917
0.671037
0.71983
0.771406
0.825802
0.883154
0.943567
1.00713
1.07391
1.14398
1.21734
1.29394
1.37376
1.45677
1.54292
1.63211
1.72425
1.81923
1.9169
2.01707
2.11956
2.22417
2.33071
2.43899
2.54876
2.65982
2.77192
2.8848
2.99822
3.11187
3.22546
3.33872
3.45135
3.56304
3.67351
3.78245
3.88956
3.99449
4.097
4.19689
4.29398
4.38807
4.47896
4.56643
4.65027
4.73023
4.8061
4.87763
4.9446
5.00681
5.06407
5.11619
5.16301
5.20441
5.24026
5.27047
5.29498
5.31375
5.32677
5.33406
5.33567
5.33166
5.32216
5.30731
5.2873
5.26238
5.23283
5.19898
5.16123
5.12004
5.07594
5.02954
4.98154
4.93274
4.88405
4.83647
4.79115
4.74934
4.7124
4.68178
4.65897
4.64539
4.64232
4.65077
4.67127
4.70374
4.74741
4.80073
4.86145
4.92678
4.99365
5.05893
5.11971
5.17352
5.21844
5.25312
5.27682
5.28926
5.29063
5.28142
5.26236
5.23435
5.19838
5.15547
5.10665
5.05293
4.99526
4.9345
4.87149
4.80695
4.74154
4.67585
4.61039
4.54562
4.4817
4.41898
4.35779
4.29838
4.24092
4.18549
4.13214
4.08086
4.0316
3.98428
3.9388
3.89504
3.85287
3.81213
3.77267
3.73434
3.69697
3.66041
3.62448
3.58903
3.55391
3.51896
3.48405
3.44904
3.4138
3.37821
3.34216
3.30556
3.2683
3.23032
3.19153
3.15186
3.11128
3.06972
3.02715
2.98351
2.93877
2.89302
2.84631
2.79872
2.75029
2.7011
2.65119
2.60062
2.54947
2.49779
2.44566
2.39314
2.34031
2.28723
2.23398
2.18063
2.12726
2.07393
2.02071
1.96767
1.91488
1.86239
1.81025
1.75852
1.70723
1.65644
1.60618
1.55647
1.50735
1.45886
1.41102
1.36393
1.31777
1.27396
1.2365
0.131328
0.165903
0.195698
0.222865
0.249185
0.275626
0.302763
0.330971
0.360521
0.391632
0.424504
0.459297
0.496222
0.535476
0.577136
0.621415
0.668497
0.71856
0.771735
0.828115
0.887814
0.950925
1.01752
1.08765
1.16133
1.23854
1.3192
1.40326
1.4906
1.58114