/*--------------------------------*- C++ -*----------------------------------*\
  =========                 |
  \\      /  F ield         | OpenFOAM: The Open Source CFD Toolbox
   \\    /   O peration     | Website:  https://openfoam.org
    \\  /    A nd           | Version:  7
     \\/     M anipulation  |
\*---------------------------------------------------------------------------*/
FoamFile
{
    version     2.0;
    format      ascii;
    class       volScalarField;
    location    "550";
    object      nut;
}
// * * * * * * * * * * * * * * * * * * * * * * * * * * * * * * * * * * * * * //

dimensions      [0 2 -1 0 0 0 0];

internalField   nonuniform List<scalar> 
16900
(
3.19113e-05
7.17039e-05
0.000100796
0.000126057
0.000147138
0.000164292
0.000177984
0.000188882
0.000197687
0.00020493
0.00021042
0.00021341
0.000221875
0.000224584
4.87164e-05
5.05254e-05
5.24794e-05
5.4408e-05
5.63094e-05
5.81872e-05
6.00424e-05
6.18782e-05
6.36955e-05
6.54968e-05
6.72824e-05
6.9054e-05
7.08116e-05
7.25558e-05
7.42864e-05
7.60034e-05
7.77064e-05
7.9395e-05
8.10685e-05
8.27263e-05
8.43674e-05
8.59911e-05
8.75965e-05
8.91825e-05
9.07482e-05
9.22927e-05
9.3815e-05
9.5314e-05
9.67891e-05
9.82392e-05
9.96635e-05
0.000101061
0.000102432
0.000103775
0.000105089
0.000106375
0.000107631
0.000108858
0.000110055
0.000111223
0.00011236
0.000113468
0.000114546
0.000115595
0.000116616
0.000117609
0.000118575
0.000119516
0.000120432
0.000121325
0.000122199
0.000123055
0.000123899
0.000124737
0.000125572
0.000126391
0.000127196
0.000127988
0.00012877
0.000129541
0.000130302
0.000131053
0.000131795
0.000132527
0.00013325
0.000133963
0.000134664
0.000135353
0.000136029
0.000136689
0.000137331
0.000137953
0.000138553
0.000139125
0.000139666
0.000140172
0.000140638
0.000141057
0.000141423
0.00014173
0.000141969
0.000142134
0.000142215
0.000142204
0.000142093
0.000141873
0.000141537
0.000141078
0.000140486
0.000139765
0.000138902
0.000137883
0.00013681
0.000135552
0.000134605
0.000133778
0.000132883
0.000131899
0.00013083
0.00012968
0.000128458
0.000127173
0.000125833
0.000124448
0.000123025
0.000121574
0.000120101
0.000118614
0.00011712
0.000115624
0.000114131
0.000112647
0.000111176
0.000109721
0.000108285
0.000106873
0.000105486
0.000104128
0.000102799
0.000101502
0.000100239
9.89944e-05
9.78393e-05
9.67458e-05
9.5692e-05
9.46697e-05
9.36765e-05
9.2713e-05
9.17805e-05
9.08809e-05
9.00161e-05
8.9188e-05
8.83983e-05
8.76491e-05
8.69421e-05
8.62791e-05
8.56622e-05
8.50932e-05
8.45739e-05
8.4106e-05
8.36911e-05
8.33303e-05
8.30244e-05
8.27737e-05
8.25778e-05
8.24357e-05
8.23459e-05
8.23059e-05
8.23129e-05
8.23635e-05
8.24539e-05
8.258e-05
8.27379e-05
8.29233e-05
8.31326e-05
8.33619e-05
8.36079e-05
8.38676e-05
8.41386e-05
8.4417e-05
8.47219e-05
8.49704e-05
8.5314e-05
8.56531e-05
8.59777e-05
8.62915e-05
8.6598e-05
8.6899e-05
8.71954e-05
8.74877e-05
8.77759e-05
8.80602e-05
8.83406e-05
8.86177e-05
8.88914e-05
8.9163e-05
8.9433e-05
8.97037e-05
8.9977e-05
9.02577e-05
9.0552e-05
9.08727e-05
9.12426e-05
9.17162e-05
9.2418e-05
9.36879e-05
5.27439e-05
0.000136353
0.000183931
0.000216987
0.000242279
0.000261141
0.000273878
0.000280775
0.000282469
0.000280118
0.000275096
0.000268707
0.000264641
0.00026663
0.000256761
0.000269291
0.000282971
0.000296732
0.000310515
0.000324301
0.00033808
0.000351857
0.00036564
0.000379443
0.000393278
0.000407157
0.000421089
0.000435081
0.000449139
0.000463266
0.000477462
0.000491727
0.000506056
0.000520444
0.000534884
0.000549366
0.00056388
0.000578414
0.000592957
0.000607493
0.000622009
0.00063649
0.000650922
0.000665288
0.000679575
0.000693768
0.000707853
0.000721817
0.000735646
0.000749329
0.000762855
0.000776214
0.000789397
0.000802397
0.000815206
0.000827819
0.000840233
0.000852444
0.000864451
0.000876253
0.000887852
0.000899246
0.000910439
0.000921429
0.000932214
0.000942789
0.000953149
0.000963026
0.000972288
0.000981441
0.000990573
0.000999721
0.00100891
0.00101818
0.00102754
0.00103703
0.00104665
0.00105643
0.00106639
0.00107654
0.00108689
0.00109745
0.00110821
0.00111918
0.00113034
0.00114168
0.00115318
0.0011648
0.0011765
0.00118823
0.00119992
0.0012115
0.00122288
0.00123397
0.00124463
0.00125477
0.00126423
0.00127288
0.00128058
0.00128719
0.00129257
0.00129659
0.00129911
0.00130007
0.00129933
0.00129664
0.00129152
0.001283
0.0012705
0.00125572
0.00123941
0.00122194
0.00120353
0.00118438
0.00116464
0.00114445
0.00112397
0.00110333
0.00108265
0.00106205
0.00104162
0.00102146
0.00100166
0.000982296
0.000963423
0.000945102
0.000927383
0.000910308
0.000893916
0.000878236
0.0008633
0.000849131
0.000835757
0.000823209
0.000811536
0.0008009
0.000789832
0.000778754
0.000768016
0.000757826
0.000748305
0.000739522
0.000731519
0.000724317
0.000717928
0.000712355
0.000707596
0.000703647
0.000700499
0.000698139
0.000696551
0.000695713
0.000695601
0.000696181
0.000697417
0.000699263
0.00070167
0.000704585
0.000707946
0.000711693
0.000715761
0.000720084
0.000724598
0.00072924
0.000733951
0.000738675
0.00074336
0.000747959
0.00075243
0.000756737
0.000760849
0.000764742
0.0007684
0.000771823
0.000775103
0.000777619
0.000778277
0.000778133
0.000777523
0.000776561
0.000775288
0.000773722
0.000771869
0.000769735
0.000767325
0.000764641
0.000761689
0.000758473
0.000754997
0.000751268
0.000747294
0.000743081
0.000738641
0.000733985
0.000729128
0.000724095
0.000718928
0.000713742
0.000709094
0.000704037
7.01256e-05
0.000182692
0.000248337
0.000289803
0.00031999
0.000342855
0.000359978
0.000372757
0.000383021
0.000392876
0.000404031
0.000417558
0.000434938
0.000456828
0.000478724
0.00050543
0.000532705
0.000559955
0.000587159
0.000614336
0.000641501
0.000668679
0.000695894
0.000723171
0.000750534
0.000778004
0.000805597
0.000833326
0.000861199
0.000889218
0.000917384
0.000945691
0.000974128
0.00100268
0.00103134
0.00106007
0.00108886
0.00111768
0.00114651
0.00117531
0.00120404
0.00123269
0.00126122
0.00128958
0.00131776
0.00134572
0.00137342
0.00140084
0.00142795
0.00145472
0.00148111
0.00150712
0.00153272
0.00155788
0.00158258
0.00160682
0.00163058
0.00165384
0.00167659
0.00169884
0.00172057
0.00174179
0.00176249
0.00178267
0.00180234
0.00182149
0.00184006
0.00185765
0.00187472
0.00189155
0.00190824
0.00192486
0.00194149
0.00195817
0.00197496
0.0019919
0.00200905
0.00202646
0.00204415
0.00206217
0.00208055
0.00209932
0.00211849
0.00213807
0.00215805
0.00217842
0.00219915
0.00222019
0.00224147
0.0022629
0.00228435
0.0023057
0.00232677
0.00234735
0.00236723
0.00238616
0.00240386
0.00242004
0.00243441
0.00244668
0.00245655
0.00246379
0.00246815
0.00246951
0.00246751
0.002462
0.00245236
0.00243808
0.00241889
0.00239586
0.00236984
0.00234139
0.00231091
0.00227878
0.00224532
0.00221082
0.00217558
0.00213986
0.00210391
0.00206796
0.00203222
0.00199687
0.00196209
0.00192802
0.00189479
0.00186251
0.00183127
0.00180117
0.00177226
0.00174461
0.00171825
0.00169325
0.00166963
0.00164746
0.00162686
0.00160688
0.001587
0.00156752
0.00154874
0.0015309
0.00151415
0.00149861
0.00148435
0.00147141
0.0014598
0.00144953
0.00144059
0.00143297
0.00142664
0.00142156
0.00141769
0.00141497
0.00141333
0.0014127
0.00141299
0.00141411
0.00141595
0.00141842
0.00142139
0.00142477
0.00142844
0.00143231
0.00143628
0.00144026
0.00144418
0.00144795
0.00145152
0.00145483
0.00145782
0.00146047
0.00146273
0.00146459
0.00146602
0.00146706
0.00146729
0.00146579
0.00146283
0.00145896
0.00145448
0.00144954
0.00144418
0.00143844
0.00143233
0.00142586
0.00141903
0.00141186
0.00140434
0.00139649
0.00138831
0.00137981
0.001371
0.0013619
0.00135251
0.00134286
0.00133297
0.00132287
0.00131269
0.00130275
0.00129419
0.00128804
8.48138e-05
0.000218898
0.00030072
0.000351588
0.000388339
0.000417593
0.000442319
0.000464626
0.000486558
0.000509974
0.000536101
0.000565538
0.000598348
0.00063405
0.000670957
0.000709126
0.00074746
0.000785701
0.000823843
0.000861922
0.000899973
0.000938034
0.00097614
0.00101433
0.00105262
0.00109105
0.00112964
0.0011684
0.00120733
0.00124644
0.00128573
0.00132518
0.00136478
0.0014045
0.00144433
0.00148423
0.00152416
0.00156409
0.00160398
0.00164379
0.00168346
0.00172296
0.00176223
0.00180124
0.00183993
0.00187825
0.00191617
0.00195363
0.0019906
0.00202704
0.0020629
0.00209815
0.00213276
0.0021667
0.00219994
0.00223245
0.00226422
0.00229523
0.00232547
0.00235492
0.00238358
0.00241144
0.00243852
0.00246481
0.00249035
0.00251514
0.00253879
0.00256159
0.00258382
0.00260566
0.00262724
0.00264864
0.00266996
0.00269126
0.00271264
0.00273416
0.0027559
0.00277792
0.0028003
0.0028231
0.00284637
0.00287017
0.00289453
0.0029195
0.00294507
0.00297126
0.00299804
0.00302537
0.00305318
0.00308136
0.00310977
0.00313823
0.00316653
0.0031944
0.00322153
0.00324758
0.00327216
0.00329487
0.00331529
0.00333299
0.00334756
0.00335866
0.00336589
0.00336894
0.00336758
0.00336154
0.00335042
0.00333398
0.00331224
0.00328583
0.00325545
0.00322167
0.00318501
0.00314593
0.00310486
0.00306223
0.00301842
0.0029738
0.00292871
0.00288347
0.00283836
0.00279365
0.00274956
0.00270629
0.00266402
0.0026229
0.00258306
0.00254461
0.00250762
0.00247217
0.00243832
0.00240611
0.00237558
0.00234677
0.00231946
0.00229268
0.00226654
0.00224123
0.00221693
0.00219384
0.0021721
0.00215181
0.00213303
0.0021158
0.00210015
0.00208606
0.00207351
0.00206248
0.00205291
0.00204475
0.00203793
0.00203236
0.00202795
0.00202459
0.00202217
0.00202057
0.00201967
0.00201933
0.00201944
0.00201987
0.0020205
0.00202122
0.00202194
0.00202257
0.00202301
0.00202321
0.00202309
0.0020226
0.00202169
0.00202033
0.00201847
0.0020161
0.00201317
0.00200957
0.00200443
0.00199796
0.00199039
0.00198202
0.00197306
0.00196362
0.00195377
0.00194352
0.0019329
0.00192192
0.00191058
0.0018989
0.00188687
0.00187451
0.00186182
0.00184882
0.00183551
0.00182189
0.00180797
0.00179376
0.00177926
0.00176449
0.00174953
0.00173478
0.0017217
0.00171237
9.75636e-05
0.000248835
0.000345355
0.000406214
0.000450647
0.00048741
0.00052061
0.000552725
0.000585638
0.000620734
0.000658715
0.000699681
0.000743245
0.000788736
0.000835226
0.000882222
0.000929253
0.000976164
0.00102295
0.00106964
0.00111627
0.00116289
0.00120955
0.00125628
0.00130311
0.00135007
0.00139719
0.00144447
0.00149192
0.00153955
0.00158735
0.0016353
0.00168338
0.00173156
0.00177981
0.0018281
0.00187638
0.0019246
0.00197272
0.00202068
0.00206843
0.00211591
0.00216307
0.00220984
0.00225617
0.002302
0.00234728
0.00239196
0.00243597
0.00247927
0.00252182
0.00256357
0.00260448
0.00264451
0.00268363
0.0027218
0.002759
0.00279522
0.00283042
0.0028646
0.00289776
0.00292988
0.00296098
0.00299107
0.00302017
0.00304814
0.00307491
0.00310077
0.00312594
0.00315056
0.00317478
0.00319868
0.00322238
0.00324597
0.00326956
0.00329323
0.00331709
0.00334123
0.00336575
0.00339075
0.0034163
0.00344249
0.00346941
0.0034971
0.00352563
0.00355502
0.00358528
0.0036164
0.00364832
0.00368095
0.00371416
0.00374776
0.00378151
0.00381511
0.00384821
0.00388039
0.00391117
0.00394006
0.00396652
0.00399002
0.00401
0.00402584
0.00403719
0.00404369
0.00404501
0.00404087
0.004031
0.0040153
0.00399389
0.00396722
0.00393584
0.00390033
0.00386123
0.00381908
0.0037744
0.00372766
0.00367936
0.00362992
0.00357978
0.0035293
0.00347884
0.00342871
0.00337917
0.00333048
0.00328284
0.00323643
0.00319139
0.00314784
0.00310588
0.00306558
0.00302699
0.00299016
0.00295508
0.00292182
0.00288951
0.00285809
0.00282764
0.0027983
0.00277019
0.00274345
0.00271818
0.00269446
0.00267232
0.00265181
0.00263291
0.00261562
0.0025999
0.0025857
0.00257297
0.00256163
0.00255159
0.00254276
0.00253502
0.00252826
0.00252236
0.00251719
0.00251261
0.00250851
0.00250475
0.00250121
0.00249778
0.00249436
0.00249084
0.00248714
0.00248318
0.0024789
0.00247422
0.00246909
0.00246348
0.00245733
0.00245062
0.00244331
0.00243536
0.00242608
0.00241559
0.00240408
0.00239171
0.00237868
0.00236511
0.0023511
0.0023367
0.00232192
0.0023068
0.00229133
0.00227554
0.00225942
0.00224299
0.00222625
0.00220921
0.00219188
0.00217425
0.00215633
0.00213811
0.00211957
0.00210069
0.00208144
0.00206189
0.00204243
0.00202477
0.00201187
0.000108676
0.000274114
0.000384109
0.000455088
0.000507637
0.000552081
0.0005934
0.000634303
0.000676473
0.000720912
0.000767974
0.000817504
0.000869011
0.000921875
0.00097546
0.00102932
0.00108316
0.00113686
0.0011904
0.00124381
0.00129713
0.00135041
0.00140368
0.001457
0.00151038
0.00156388
0.0016175
0.00167125
0.00172516
0.00177921
0.00183339
0.0018877
0.0019421
0.00199656
0.00205105
0.00210552
0.00215993
0.00221423
0.00226836
0.00232226
0.00237587
0.00242913
0.00248197
0.00253433
0.00258614
0.00263734
0.00268786
0.00273765
0.00278664
0.00283477
0.00288199
0.00292825
0.0029735
0.00301769
0.00306079
0.00310276
0.00314356
0.00318318
0.00322158
0.00325875
0.00329468
0.00332937
0.00336282
0.00339503
0.00342603
0.00345558
0.00348389
0.00351118
0.00353761
0.00356333
0.00358846
0.00361313
0.00363743
0.0036615
0.00368544
0.00370938
0.00373344
0.00375773
0.00378239
0.00380754
0.00383331
0.00385982
0.00388718
0.0039155
0.00394489
0.00397541
0.00400713
0.00404007
0.00407422
0.00410954
0.00414592
0.00418319
0.00422113
0.00425943
0.00429769
0.00433547
0.00437221
0.00440734
0.00444022
0.00446998
0.00449608
0.00451789
0.00453489
0.00454661
0.00455263
0.00455262
0.00454637
0.0045338
0.00451505
0.00449048
0.00446057
0.00442587
0.00438695
0.00434441
0.0042988
0.00425069
0.00420062
0.00414911
0.00409661
0.00404358
0.00399041
0.00393745
0.00388501
0.00383337
0.00378276
0.00373337
0.00368536
0.00363887
0.00359397
0.00355076
0.00350925
0.00346948
0.00343143
0.0033949
0.00335928
0.00332474
0.00329136
0.00325924
0.00322847
0.00319913
0.00317128
0.00314497
0.00312023
0.00309707
0.00307547
0.00305541
0.00303683
0.0030197
0.00300393
0.00298944
0.00297614
0.00296393
0.00295269
0.0029423
0.00293265
0.0029236
0.00291504
0.00290683
0.00289885
0.002891
0.00288317
0.00287526
0.00286717
0.00285882
0.00285014
0.00284107
0.00283153
0.00282149
0.0028109
0.00279971
0.00278788
0.0027754
0.00276185
0.00274716
0.00273152
0.00271505
0.0026979
0.0026802
0.00266202
0.00264344
0.0026245
0.00260523
0.00258564
0.00256575
0.00254556
0.00252509
0.00250435
0.00248333
0.00246206
0.00244052
0.00241871
0.00239664
0.00237427
0.00235158
0.0023285
0.002305
0.00228111
0.00225727
0.00223537
0.0022192
0.000118315
0.000295533
0.000417865
0.000498748
0.000559388
0.000611211
0.000659879
0.000708295
0.000758019
0.000809813
0.000863845
0.000919867
0.000977404
0.00103593
0.00109495
0.00115412
0.00121322
0.00127214
0.00133087
0.00138942
0.00144784
0.00150616
0.00156443
0.0016227
0.001681
0.00173935
0.00179779
0.00185633
0.00191497
0.00197371
0.00203255
0.00209146
0.00215043
0.00220942
0.00226839
0.00232729
0.00238609
0.00244472
0.00250313
0.00256125
0.00261902
0.00267638
0.00273324
0.00278955
0.00284523
0.00290021
0.00295442
0.00300779
0.00306025
0.00311175
0.0031622
0.00321157
0.00325979
0.00330681
0.00335257
0.00339705
0.0034402
0.00348197
0.00352236
0.00356133
0.00359886
0.00363495
0.00366959
0.00370281
0.00373444
0.00376454
0.00379329
0.00382085
0.00384736
0.00387297
0.00389779
0.00392195
0.00394557
0.00396877
0.0039917
0.00401449
0.00403729
0.00406024
0.00408351
0.00410724
0.00413161
0.00415679
0.00418294
0.00421022
0.00423878
0.00426877
0.00430031
0.00433348
0.00436835
0.00440494
0.0044432
0.00448298
0.00452412
0.00456636
0.00460922
0.00465233
0.00469501
0.00473644
0.00477595
0.00481275
0.00484609
0.00487522
0.00489945
0.00491815
0.00493082
0.00493703
0.00493653
0.00492921
0.00491517
0.00489472
0.00486829
0.00483643
0.00479972
0.00475878
0.00471425
0.00466673
0.00461685
0.00456515
0.00451218
0.00445842
0.00440432
0.00435027
0.00429661
0.00424364
0.00419162
0.00414076
0.00409123
0.00404316
0.00399664
0.00395174
0.00390848
0.00386686
0.00382686
0.00378796
0.00375014
0.00371349
0.0036781
0.00364403
0.00361132
0.00358004
0.0035502
0.00352185
0.00349497
0.00346956
0.0034456
0.00342305
0.00340186
0.00338196
0.00336328
0.00334573
0.00332922
0.00331364
0.00329888
0.00328484
0.00327138
0.0032584
0.00324576
0.00323337
0.0032211
0.00320885
0.00319652
0.00318401
0.00317126
0.00315816
0.00314467
0.00313071
0.00311622
0.00310117
0.0030855
0.00306918
0.00305217
0.00303427
0.0030153
0.00299543
0.00297478
0.00295347
0.0029316
0.00290925
0.00288649
0.00286338
0.00283995
0.00281622
0.00279222
0.00276795
0.00274344
0.00271869
0.00269371
0.00266851
0.00264309
0.00261745
0.00259159
0.00256549
0.00253912
0.00251244
0.00248538
0.00245786
0.00242995
0.0024021
0.00237642
0.00235734
0.000126601
0.000313591
0.000447143
0.000537485
0.000605914
0.000664608
0.000719763
0.000774485
0.0008303
0.000887852
0.000947232
0.00100818
0.00107029
0.0011331
0.00119623
0.00125939
0.00132242
0.00138522
0.00144778
0.0015101
0.00157223
0.00163421
0.00169608
0.00175788
0.00181966
0.00188145
0.00194327
0.00200513
0.00206705
0.00212904
0.00219107
0.00225314
0.00231522
0.00237729
0.0024393
0.00250122
0.00256299
0.00262456
0.00268588
0.00274687
0.00280748
0.00286763
0.00292725
0.00298627
0.00304461
0.0031022
0.00315895
0.0032148
0.00326967
0.00332348
0.00337617
0.00342767
0.00347791
0.00352684
0.00357439
0.00362051
0.00366516
0.00370829
0.00374986
0.00378985
0.00382822
0.00386495
0.00390004
0.00393344
0.00396506
0.00399503
0.00402349
0.00405057
0.00407639
0.00410109
0.00412477
0.00414757
0.00416961
0.00419104
0.004212
0.00423264
0.00425313
0.00427365
0.00429438
0.00431552
0.00433727
0.00435986
0.00438349
0.00440838
0.00443477
0.00446285
0.00449285
0.00452492
0.00455921
0.00459581
0.00463482
0.00467611
0.00471956
0.00476511
0.00481207
0.00486003
0.00490837
0.00495631
0.00500307
0.00504774
0.00508943
0.00512721
0.00516022
0.00518766
0.00520884
0.00522323
0.00523044
0.00523032
0.00522289
0.00520839
0.00518723
0.00515994
0.00512712
0.00508943
0.00504755
0.00500216
0.00495392
0.00490345
0.00485136
0.00479818
0.00474439
0.00469044
0.00463669
0.00458349
0.0045311
0.00447974
0.00442961
0.00438084
0.00433351
0.00428769
0.00424339
0.00420059
0.00415914
0.00411869
0.00407938
0.00404127
0.00400444
0.00396892
0.00393472
0.00390189
0.00387041
0.00384031
0.00381155
0.00378413
0.00375801
0.00373314
0.00370947
0.00368692
0.00366542
0.00364488
0.00362521
0.00360631
0.00358807
0.00357038
0.00355313
0.00353621
0.00351951
0.00350293
0.00348635
0.00346968
0.00345284
0.00343573
0.00341828
0.00340041
0.00338207
0.0033632
0.00334374
0.00332365
0.00330288
0.0032814
0.00325914
0.00323587
0.00321174
0.00318687
0.00316136
0.00313529
0.00310876
0.00308182
0.00305453
0.00302693
0.00299906
0.00297093
0.00294258
0.00291402
0.00288525
0.0028563
0.00282718
0.00279789
0.00276843
0.00273881
0.00270901
0.00267903
0.00264881
0.00261832
0.00258747
0.00255621
0.00252458
0.00249311
0.00246403
0.00244236
0.000133649
0.000328667
0.000472333
0.000571544
0.000647303
0.000712271
0.000773076
0.000833029
0.0008937
0.000955709
0.00101913
0.00108375
0.0011492
0.00121512
0.00128119
0.00134719
0.00141296
0.00147843
0.00154359
0.00160846
0.00167306
0.00173744
0.00180165
0.00186573
0.00192972
0.00199367
0.00205759
0.00212151
0.00218545
0.0022494
0.00231337
0.00237735
0.00244132
0.00250525
0.0025691
0.00263285
0.00269644
0.00275982
0.00282294
0.00288573
0.00294813
0.00301007
0.00307147
0.00313226
0.00319236
0.00325168
0.00331015
0.00336768
0.0034242
0.00347961
0.00353384
0.00358681
0.00363846
0.0036887
0.00373746
0.00378469
0.00383033
0.00387431
0.00391659
0.00395713
0.00399588
0.00403282
0.00406792
0.00410108
0.00413235
0.00416182
0.00418959
0.00421576
0.00424046
0.00426379
0.00428585
0.00430679
0.00432673
0.0043458
0.00436418
0.00438203
0.00439952
0.00441687
0.00443428
0.00445198
0.00447023
0.00448927
0.00450939
0.00453086
0.00455397
0.00457902
0.00460633
0.00463614
0.00466867
0.00470416
0.00474287
0.00478467
0.00482951
0.00487729
0.00492761
0.00498003
0.00503394
0.00508857
0.00514303
0.00519631
0.00524735
0.00529504
0.0053383
0.0053761
0.00540756
0.00543195
0.00544875
0.00545766
0.00545861
0.00545178
0.00543752
0.00541636
0.00538891
0.00535587
0.00531798
0.00527596
0.00523055
0.00518243
0.00513226
0.00508062
0.00502807
0.00497507
0.00492204
0.00486933
0.00481726
0.00476606
0.00471593
0.004667
0.00461937
0.0045731
0.00452819
0.00448462
0.0044421
0.00440059
0.00436021
0.00432104
0.00428309
0.0042464
0.00421096
0.00417677
0.00414383
0.00411212
0.00408162
0.00405229
0.00402409
0.00399697
0.00397087
0.00394572
0.00392144
0.00389794
0.00387513
0.00385292
0.00383121
0.00380989
0.00378885
0.00376801
0.00374724
0.00372646
0.00370558
0.00368449
0.00366313
0.0036414
0.00361925
0.00359661
0.00357342
0.00354963
0.0035252
0.00350007
0.00347422
0.00344761
0.00342007
0.00339169
0.00336259
0.00333287
0.00330262
0.0032719
0.00324079
0.00320933
0.00317758
0.00314557
0.00311334
0.0030809
0.00304829
0.00301551
0.0029826
0.00294956
0.0029164
0.00288313
0.00284976
0.00281629
0.0027827
0.00274898
0.00271509
0.00268098
0.00264657
0.00261182
0.00257679
0.00254204
0.0025099
0.00248586
0.000139569
0.000341085
0.000493774
0.000601182
0.000683718
0.000754332
0.000819994
0.00088423
0.000948699
0.00101406
0.00108042
0.00114761
0.00121533
0.0012833
0.00135124
0.00141898
0.00148639
0.00155342
0.00162005
0.00168631
0.00175222
0.00181785
0.00188323
0.00194842
0.00201346
0.0020784
0.00214327
0.00220809
0.00227291
0.00233771
0.00240251
0.00246731
0.00253209
0.00259683
0.00266152
0.0027261
0.00279055
0.00285481
0.00291884
0.00298257
0.00304594
0.00310888
0.00317132
0.00323317
0.00329436
0.0033548
0.00341439
0.00347305
0.00353069
0.00358722
0.00364255
0.00369658
0.00374924
0.00380043
0.00385009
0.00389812
0.00394446
0.00398903
0.00403178
0.00407265
0.00411158
0.00414852
0.00418343
0.00421627
0.00424708
0.00427592
0.00430286
0.00432799
0.00435139
0.00437317
0.00439343
0.00441228
0.00442987
0.00444633
0.00446183
0.00447654
0.00449066
0.00450441
0.00451802
0.00453176
0.0045459
0.00456075
0.00457664
0.0045939
0.00461288
0.00463399
0.00465764
0.00468419
0.00471392
0.00474718
0.0047843
0.00482538
0.0048705
0.00491963
0.00497255
0.00502888
0.00508805
0.00514931
0.0052117
0.00527411
0.0053353
0.00539396
0.00544876
0.00549841
0.00554178
0.00557789
0.00560601
0.00562568
0.0056367
0.00563915
0.00563333
0.00561975
0.00559903
0.00557191
0.00553917
0.00550161
0.00546002
0.00541516
0.00536775
0.00531844
0.00526782
0.00521642
0.00516469
0.00511303
0.00506175
0.00501114
0.00496139
0.00491266
0.00486505
0.00481861
0.00477334
0.00472919
0.00468591
0.00464363
0.00460245
0.0045624
0.00452351
0.00448577
0.00444918
0.00441372
0.00437936
0.00434609
0.00431386
0.00428263
0.00425236
0.00422299
0.00419446
0.00416669
0.00413961
0.00411313
0.00408717
0.00406164
0.00403643
0.00401146
0.00398662
0.00396183
0.00393698
0.003912
0.00388679
0.00386128
0.00383539
0.00380905
0.00378221
0.0037548
0.00372677
0.00369809
0.0036687
0.00363858
0.00360768
0.00357594
0.00354335
0.00351006
0.00347616
0.00344175
0.00340688
0.00337163
0.00333604
0.00330018
0.00326407
0.00322776
0.00319127
0.00315464
0.00311788
0.00308103
0.00304409
0.00300709
0.00297003
0.00293294
0.00289581
0.00285864
0.00282143
0.00278416
0.00274679
0.00270927
0.00267154
0.00263356
0.00259543
0.00255769
0.00252277
0.00249653
0.000144472
0.000351139
0.000511787
0.000626665
0.000715375
0.000790992
0.000860761
0.000928418
0.000995745
0.00106347
0.00113177
0.00120053
0.00126954
0.00133854
0.00140733
0.00147577
0.00154376
0.00161126
0.00167826
0.0017448
0.00181092
0.00187667
0.00194211
0.00200729
0.00207228
0.00213712
0.00220187
0.00226655
0.00233119
0.00239583
0.00246047
0.00252513
0.00258979
0.00265446
0.0027191
0.0027837
0.00284821
0.00291261
0.00297683
0.00304083
0.00310454
0.00316789
0.00323081
0.00329321
0.00335502
0.00341612
0.00347644
0.00353587
0.00359431
0.00365165
0.00370781
0.00376267
0.00381614
0.00386812
0.00391851
0.00396722
0.00401416
0.00405924
0.00410239
0.00414353
0.0041826
0.00421955
0.00425435
0.00428696
0.00431739
0.00434566
0.00437184
0.00439597
0.00441813
0.0044384
0.00445688
0.00447367
0.0044889
0.00450272
0.00451529
0.00452678
0.00453742
0.00454741
0.00455702
0.00456652
0.00457624
0.00458653
0.00459774
0.00461025
0.00462451
0.00464096
0.00466009
0.00468236
0.00470823
0.00473816
0.00477256
0.00481177
0.00485604
0.00490547
0.00496003
0.00501946
0.0050833
0.00515081
0.00522105
0.00529279
0.00536464
0.00543507
0.00550246
0.00556525
0.00562197
0.00567137
0.00571244
0.00574451
0.0057672
0.00578047
0.00578455
0.00577991
0.00576718
0.00574714
0.00572062
0.00568849
0.00565161
0.00561081
0.00556688
0.00552054
0.00547243
0.00542314
0.00537317
0.00532295
0.00527283
0.00522311
0.00517401
0.00512571
0.00507831
0.00503187
0.00498639
0.00494176
0.00489793
0.00485505
0.00481318
0.00477235
0.00473257
0.00469383
0.0046561
0.00461935
0.00458355
0.00454868
0.00451468
0.0044815
0.00444911
0.00441743
0.00438641
0.00435596
0.00432603
0.00429652
0.00426735
0.00423844
0.0042097
0.00418103
0.00415236
0.00412359
0.00409464
0.00406544
0.0040359
0.00400596
0.00397555
0.00394461
0.00391309
0.00388094
0.00384811
0.00381458
0.0037803
0.00374523
0.00370936
0.00367265
0.00363524
0.00359723
0.00355872
0.00351976
0.00348043
0.00344079
0.00340087
0.00336073
0.0033204
0.00327993
0.00323933
0.00319865
0.00315791
0.00311714
0.00307634
0.00303555
0.00299477
0.00295402
0.00291332
0.00287265
0.00283201
0.00279139
0.00275075
0.00271005
0.00266925
0.00262831
0.00258734
0.0025469
0.00250943
0.00248112
0.000148468
0.0003591
0.000526671
0.000648262
0.000742503
0.000822467
0.000895615
0.00096588
0.00103519
0.00110436
0.00117365
0.00124303
0.00131233
0.00138137
0.00144999
0.00151808
0.00158558
0.00165246
0.00171875
0.00178447
0.00184969
0.00191447
0.00197888
0.00204299
0.00210686
0.00217058
0.00223418
0.00229773
0.00236127
0.00242482
0.00248843
0.0025521
0.00261585
0.00267968
0.00274357
0.00280751
0.00287146
0.00293541
0.00299928
0.00306305
0.00312663
0.00318997
0.00325299
0.0033156
0.00337771
0.00343921
0.00350001
0.00356
0.00361906
0.00367708
0.00373395
0.00378955
0.00384377
0.00389649
0.00394759
0.00399698
0.00404454
0.00409016
0.00413376
0.00417525
0.0042146
0.00425176
0.00428667
0.00431925
0.00434951
0.00437743
0.00440304
0.00442637
0.00444749
0.00446645
0.00448334
0.00449826
0.00451132
0.00452266
0.00453245
0.00454085
0.00454809
0.00455439
0.00456003
0.00456529
0.00457051
0.00457607
0.00458235
0.0045898
0.00459889
0.00461014
0.00462411
0.00464137
0.0046625
0.0046881
0.00471874
0.00475494
0.00479715
0.00484569
0.00490072
0.00496217
0.00502972
0.00510277
0.00518036
0.00526125
0.00534389
0.00542654
0.0055073
0.00558425
0.00565558
0.00571967
0.0057752
0.00582119
0.00585707
0.00588263
0.005898
0.0059036
0.00590007
0.00588821
0.00586891
0.0058431
0.00581174
0.00577572
0.00573591
0.0056931
0.00564801
0.00560126
0.00555342
0.00550496
0.00545627
0.00540767
0.00535943
0.00531171
0.00526465
0.0052183
0.0051727
0.00512769
0.00508343
0.00504001
0.0049975
0.00495591
0.00491524
0.00487545
0.00483653
0.00479844
0.00476114
0.00472458
0.00468873
0.00465352
0.00461891
0.00458484
0.00455124
0.00451804
0.00448517
0.00445256
0.00442012
0.00438777
0.00435543
0.00432303
0.00429048
0.00425771
0.00422464
0.00419121
0.00415734
0.00412298
0.00408808
0.00405257
0.00401642
0.00397958
0.00394203
0.00390372
0.00386463
0.00382473
0.00378402
0.0037426
0.00370058
0.00365806
0.00361511
0.0035718
0.00352818
0.00348431
0.00344023
0.00339598
0.00335161
0.00330716
0.00326264
0.0032181
0.00317356
0.00312905
0.0030846
0.00304021
0.00299592
0.00295173
0.00290765
0.00286369
0.00281984
0.0027761
0.00273243
0.0026888
0.00264517
0.00260153
0.002558
0.00251512
0.00247531
0.00244503
0.000151659
0.000365219
0.000538705
0.000666222
0.000765312
0.000848941
0.000924731
0.000996798
0.00106722
0.00113692
0.00120626
0.00127526
0.00134385
0.00141189
0.00147928
0.00154594
0.00161185
0.001677
0.00174145
0.00180523
0.00186844
0.00193116
0.00199346
0.00205545
0.0021172
0.00217881
0.00224034
0.00230186
0.00236343
0.00242511
0.00248692
0.00254891
0.0026111
0.00267348
0.00273607
0.00279885
0.00286179
0.00292486
0.00298802
0.00305122
0.0031144
0.00317747
0.00324037
0.00330299
0.00336524
0.00342702
0.0034882
0.00354866
0.00360829
0.00366695
0.00372452
0.00378087
0.00383586
0.00388937
0.00394126
0.0039914
0.00403968
0.00408596
0.00413014
0.00417222
0.00421215
0.0042498
0.00428509
0.00431794
0.0043483
0.00437615
0.00440148
0.00442432
0.00444469
0.00446265
0.00447827
0.00449162
0.00450281
0.00451198
0.00451928
0.00452488
0.00452899
0.00453184
0.00453371
0.00453489
0.00453573
0.00453662
0.00453797
0.00454026
0.004544
0.00454976
0.00455817
0.00456989
0.00458561
0.00460606
0.00463198
0.00466408
0.00470301
0.00474935
0.00480349
0.00486561
0.00493562
0.00501307
0.00509712
0.00518653
0.00527968
0.00537462
0.00546915
0.005561
0.00564794
0.00572793
0.00579925
0.0058606
0.0059111
0.00595035
0.00597835
0.00599545
0.00600227
0.00599964
0.00598852
0.00596989
0.0059448
0.00591424
0.00587914
0.00584038
0.00579875
0.00575494
0.00570956
0.00566314
0.0056161
0.00556882
0.00552157
0.00547455
0.00542791
0.00538174
0.00533602
0.00529075
0.00524611
0.00520219
0.00515903
0.00511665
0.00507504
0.00503415
0.00499397
0.00495445
0.00491554
0.00487721
0.0048394
0.00480206
0.00476514
0.00472858
0.0046923
0.00465626
0.00462038
0.00458458
0.0045488
0.00451296
0.00447699
0.00444082
0.00440437
0.00436758
0.0043304
0.00429274
0.00425457
0.00421584
0.00417648
0.00413647
0.00409577
0.00405434
0.00401215
0.00396919
0.00392542
0.00388084
0.00383553
0.00378963
0.00374323
0.00369641
0.00364924
0.00360178
0.00355408
0.00350619
0.00345815
0.00341001
0.0033618
0.00331357
0.00326534
0.00321716
0.00316905
0.00312103
0.00307314
0.00302539
0.0029778
0.0029304
0.00288319
0.00283618
0.00278937
0.00274274
0.00269629
0.00264998
0.00260379
0.00255772
0.00251189
0.00246681
0.00242487
0.00239274
0.000154143
0.000369721
0.000548141
0.000680759
0.000783958
0.000870514
0.000948161
0.00102118
0.0010918
0.00116108
0.00122945
0.00129703
0.00136382
0.00142975
0.00149476
0.00155884
0.00162198
0.00168424
0.00174567
0.00180638
0.00186645
0.00192601
0.00198516
0.00204402
0.00210269
0.00216129
0.0022199
0.00227862
0.00233752
0.00239666
0.0024561
0.00251588
0.00257603
0.00263657
0.0026975
0.0027588
0.00282046
0.00288244
0.00294471
0.00300719
0.00306983
0.00313254
0.00319525
0.00325785