/*--------------------------------*- C++ -*----------------------------------*\
  =========                 |
  \\      /  F ield         | OpenFOAM: The Open Source CFD Toolbox
   \\    /   O peration     | Website:  https://openfoam.org
    \\  /    A nd           | Version:  7
     \\/     M anipulation  |
\*---------------------------------------------------------------------------*/
FoamFile
{
    version     2.0;
    format      ascii;
    class       volScalarField;
    location    "550";
    object      p;
}
// * * * * * * * * * * * * * * * * * * * * * * * * * * * * * * * * * * * * * //

dimensions      [0 2 -2 0 0 0 0];

internalField   nonuniform List<scalar> 
16900
(
-22.8468
-22.8523
-22.862
-22.8746
-22.8899
-22.9079
-22.9288
-22.9529
-22.981
-23.0129
-23.0468
-23.0823
-23.1181
-23.1547
-23.1929
-23.2327
-23.2755
-23.3192
-23.3633
-23.4077
-23.4521
-23.4964
-23.5404
-23.584
-23.6269
-23.669
-23.7103
-23.7503
-23.789
-23.8261
-23.8614
-23.8946
-23.9255
-23.9538
-23.9792
-24.0015
-24.0203
-24.0354
-24.0464
-24.0532
-24.0553
-24.0524
-24.0444
-24.031
-24.0118
-23.9866
-23.9551
-23.9172
-23.8725
-23.8209
-23.7621
-23.6959
-23.622
-23.5404
-23.4507
-23.3529
-23.2466
-23.1317
-23.008
-22.8752
-22.7333
-22.582
-22.421
-22.2501
-22.0691
-21.8776
-21.6755
-21.4623
-21.2377
-21.0013
-20.753
-20.4923
-20.2189
-19.9324
-19.6325
-19.3189
-18.9912
-18.6492
-18.2928
-17.9218
-17.5361
-17.1357
-16.7209
-16.2919
-15.849
-15.3928
-14.9241
-14.4436
-13.9524
-13.4518
-12.9432
-12.4281
-11.9085
-11.3864
-10.8639
-10.3436
-9.82783
-9.31941
-8.82104
-8.33547
-7.86543
-7.41358
-6.98244
-6.57427
-6.19101
-5.83502
-5.50735
-5.20252
-4.92136
-4.67025
-4.44896
-4.25635
-4.09106
-3.95164
-3.83648
-3.74385
-3.67195
-3.61892
-3.58291
-3.56207
-3.55462
-3.55883
-3.57309
-3.59586
-3.62572
-3.66138
-3.70164
-3.74542
-3.79175
-3.83977
-3.88871
-3.93789
-3.98673
-4.03472
-4.08144
-4.12651
-4.16958
-4.2104
-4.24874
-4.28443
-4.31731
-4.34727
-4.3742
-4.39803
-4.41872
-4.43622
-4.4505
-4.46155
-4.46933
-4.47384
-4.47504
-4.4729
-4.46738
-4.45842
-4.44594
-4.42985
-4.41003
-4.38635
-4.35863
-4.32671
-4.29038
-4.24943
-4.20364
-4.15279
-4.09665
-4.03502
-3.9677
-3.89452
-3.81535
-3.73007
-3.63863
-3.54101
-3.43724
-3.32737
-3.21148
-3.08972
-2.9623
-2.82958
-2.69189
-2.54963
-2.4032
-2.25307
-2.09972
-1.94371
-1.78562
-1.62608
-1.46576
-1.30538
-1.14568
-0.987452
-0.83155
-0.678885
-0.530457
-0.387425
-0.251204
-0.123692
-0.00790891
0.0914284
0.160065
0.206083
-22.841
-22.8473
-22.8543
-22.8636
-22.876
-22.8916
-22.9099
-22.9311
-22.9546
-22.9798
-23.0082
-23.0394
-23.0758
-23.1183
-23.1636
-23.2095
-23.2532
-23.2967
-23.3404
-23.3842
-23.428
-23.4717
-23.5151
-23.558
-23.6004
-23.642
-23.6827
-23.7223
-23.7606
-23.7974
-23.8323
-23.8653
-23.896
-23.9242
-23.9495
-23.9718
-23.9906
-24.0058
-24.0171
-24.024
-24.0265
-24.0241
-24.0166
-24.0037
-23.9851
-23.9606
-23.93
-23.8929
-23.8492
-23.7986
-23.7409
-23.6759
-23.6034
-23.5231
-23.4349
-23.3386
-23.234
-23.1209
-22.999
-22.8683
-22.7285
-22.5794
-22.4207
-22.2523
-22.074
-21.8855
-21.6863
-21.4761
-21.2546
-21.0217
-20.777
-20.5201
-20.2508
-19.9686
-19.6733
-19.3644
-19.0418
-18.7052
-18.3543
-17.989
-17.6093
-17.2153
-16.8069
-16.3846
-15.9486
-15.4995
-15.0379
-14.5646
-14.0807
-13.5873
-13.0859
-12.5778
-12.065
-11.5493
-11.0329
-10.518
-10.0072
-9.50289
-9.00777
-8.5245
-8.0558
-7.60432
-7.1726
-6.76273
-6.37544
-6.01191
-5.6753
-5.36544
-5.08239
-4.82826
-4.60269
-4.40477
-4.23339
-4.08727
-3.96493
-3.86481
-3.7852
-3.72437
-3.68055
-3.65197
-3.63691
-3.63371
-3.64077
-3.65661
-3.67983
-3.70914
-3.74336
-3.78141
-3.82231
-3.86521
-3.90932
-3.95396
-3.99853
-4.04251
-4.08543
-4.12691
-4.16664
-4.20436
-4.23983
-4.27283
-4.30323
-4.33087
-4.35567
-4.37754
-4.39643
-4.4123
-4.42512
-4.43486
-4.44151
-4.44505
-4.44546
-4.44272
-4.43678
-4.42758
-4.41507
-4.39915
-4.3797
-4.35658
-4.32965
-4.29871
-4.26356
-4.22397
-4.17972
-4.13057
-4.07629
-4.01665
-3.95145
-3.88049
-3.80362
-3.72072
-3.63174
-3.53664
-3.43545
-3.32815
-3.21479
-3.09552
-2.97062
-2.84039
-2.70518
-2.56536
-2.42135
-2.27361
-2.12263
-1.96896
-1.81318
-1.65591
-1.49784
-1.33965
-1.18212
-1.02603
-0.872246
-0.72169
-0.575396
-0.434561
-0.300675
-0.175705
-0.062833
0.0339787
0.0996813
0.175464
-22.8331
-22.8438
-22.8528
-22.8619
-22.874
-22.8892
-22.9075
-22.9288
-22.9529
-22.9791
-23.0077
-23.0392
-23.0742
-23.1126
-23.1532
-23.195
-23.2369
-23.2792
-23.3218
-23.3645
-23.4073
-23.4499
-23.4924
-23.5344
-23.5759
-23.6167
-23.6567
-23.6956
-23.7332
-23.7694
-23.8038
-23.8363
-23.8667
-23.8945
-23.9196
-23.9417
-23.9604
-23.9756
-23.9869
-23.9941
-23.9967
-23.9946
-23.9875
-23.9751
-23.9571
-23.9333
-23.9035
-23.8673
-23.8245
-23.775
-23.7185
-23.6547
-23.5836
-23.5048
-23.4183
-23.3237
-23.2209
-23.1098
-22.99
-22.8615
-22.7241
-22.5775
-22.4216
-22.256
-22.0808
-21.8955
-21.6995
-21.4927
-21.275
-21.0459
-20.8053
-20.5528
-20.2881
-20.0108
-19.7206
-19.4171
-19.1002
-18.7694
-18.4248
-18.066
-17.6931
-17.3061
-16.9051
-16.4903
-16.0621
-15.621
-15.1676
-14.7028
-14.2274
-13.7427
-13.2498
-12.7504
-12.2462
-11.7389
-11.2306
-10.7235
-10.22
-9.72252
-9.23365
-8.75601
-8.29242
-7.8452
-7.41651
-7.00722
-6.61877
-6.25379
-5.91347
-5.59667
-5.30456
-5.04006
-4.80336
-4.5939
-4.4108
-4.25291
-4.11888
-4.00721
-3.91629
-3.84444
-3.78994
-3.75108
-3.72616
-3.71353
-3.71164
-3.71898
-3.73416
-3.7559
-3.783
-3.81437
-3.84902
-3.88607
-3.92472
-3.96429
-4.00414
-4.04373
-4.08255
-4.12026
-4.15652
-4.19104
-4.22357
-4.25389
-4.28184
-4.30728
-4.3301
-4.35022
-4.36757
-4.38211
-4.39381
-4.40263
-4.40856
-4.41158
-4.41166
-4.40877
-4.40288
-4.39393
-4.38185
-4.36655
-4.34792
-4.32581
-4.30006
-4.27049
-4.23689
-4.19904
-4.15669
-4.1096
-4.05754
-4.00026
-3.93756
-3.86922
-3.79508
-3.71503
-3.62901
-3.53696
-3.43881
-3.33451
-3.22416
-3.10795
-2.98608
-2.85881
-2.7265
-2.58951
-2.44826
-2.3032
-2.15483
-2.00369
-1.85035
-1.69545
-1.53965
-1.38366
-1.22822
-1.07416
-0.922322
-0.773648
-0.629179
-0.49012
-0.357952
-0.234511
-0.122782
-0.0247101
0.0442954
0.167799
-22.8269
-22.8421
-22.8542
-22.8644
-22.8767
-22.8917
-22.9096
-22.9304
-22.9539
-22.9798
-23.0082
-23.0395
-23.0738
-23.1108
-23.1494
-23.1893
-23.2297
-23.2707
-23.3122
-23.3539
-23.3956
-23.4374
-23.479
-23.5202
-23.561
-23.6012
-23.6405
-23.6789
-23.716
-23.7517
-23.7858
-23.8181
-23.8481
-23.8758
-23.9008
-23.9228
-23.9416
-23.9568
-23.9683
-23.9756
-23.9785
-23.9768
-23.97
-23.9581
-23.9406
-23.9174
-23.8882
-23.8528
-23.8109
-23.7623
-23.7067
-23.6441
-23.5741
-23.4967
-23.4115
-23.3184
-23.2172
-23.1078
-22.9899
-22.8633
-22.728
-22.5836
-22.43
-22.2671
-22.0945
-21.9118
-21.7186
-21.5148
-21.3003
-21.0747
-20.8377
-20.589
-20.3282
-20.0551
-19.7692
-19.4703
-19.1581
-18.8323
-18.4928
-18.1393
-17.7718
-17.3903
-16.995
-16.5861
-16.1638
-15.7287
-15.2814
-14.8226
-14.3533
-13.8746
-13.3877
-12.8941
-12.3954
-11.8934
-11.3902
-10.8877
-10.3884
-9.89471
-9.40924
-8.93437
-8.4728
-8.02556
-7.59464
-7.18291
-6.79148
-6.42256
-6.07731
-5.75533
-5.45776
-5.1868
-4.94289
-4.72578
-4.53474
-4.36875
-4.22658
-4.1068
-4.00786
-3.92814
-3.86597
-3.81965
-3.78753
-3.76798
-3.75946
-3.76048
-3.76967
-3.78572
-3.80745
-3.83378
-3.8637
-3.89632
-3.93086
-3.96662
-4.00294
-4.03922
-4.075
-4.10994
-4.1437
-4.17598
-4.2065
-4.23505
-4.26147
-4.28559
-4.30732
-4.32656
-4.34325
-4.35733
-4.36876
-4.37751
-4.38355
-4.38685
-4.38739
-4.38513
-4.38002
-4.37199
-4.36096
-4.34684
-4.32949
-4.30878
-4.28451
-4.25651
-4.22455
-4.1884
-4.14782
-4.10255
-4.05236
-3.997
-3.93624
-3.86988
-3.79777
-3.7198
-3.63589
-3.54591
-3.44969
-3.34727
-3.23887
-3.12464
-3.00473
-2.87939
-2.74896
-2.6138
-2.47434
-2.33102
-2.18434
-2.03484
-1.88309
-1.72971
-1.57538
-1.4208
-1.26672
-1.11395
-0.963326
-0.815784
-0.672339
-0.534127
-0.402508
-0.278963
-0.165945
-0.0627087
0.0155408
0.179812
-22.8247
-22.8433
-22.8579
-22.8695
-22.8823
-22.8976
-22.9155
-22.936
-22.9593
-22.9851
-23.0135
-23.0445
-23.0781
-23.1139
-23.1513
-23.1899
-23.2293
-23.2692
-23.3096
-23.3504
-23.3913
-23.4323
-23.4731
-23.5137
-23.554
-23.5936
-23.6325
-23.6705
-23.7073
-23.7428
-23.7767
-23.8087
-23.8387
-23.8663
-23.8913
-23.9133
-23.9322
-23.9476
-23.9592
-23.9667
-23.9699
-23.9684
-23.9621
-23.9505
-23.9335
-23.9108
-23.8821
-23.8473
-23.806
-23.7581
-23.7034
-23.6416
-23.5726
-23.4961
-23.4121
-23.3202
-23.2203
-23.1122
-22.9958
-22.8709
-22.7373
-22.5948
-22.4432
-22.2825
-22.112
-21.9313
-21.7405
-21.5393
-21.3275
-21.1048
-20.8708
-20.6253
-20.368
-20.0983
-19.8161
-19.521
-19.2127
-18.8909
-18.5555
-18.2062
-17.843
-17.4658
-17.0749
-16.6703
-16.2524
-15.8217
-15.3787
-14.9242
-14.4591
-13.9845
-13.5014
-13.0115
-12.5163
-12.0174
-11.517
-11.0169
-10.5198
-10.0277
-9.54335
-9.06822
-8.60428
-8.15442
-7.72059
-7.30525
-6.90989
-6.53654
-6.18656
-5.86028
-5.55871
-5.28325
-5.0344
-4.81199
-4.61545
-4.44384
-4.29601
-4.17058
-4.06606
-3.98085
-3.91331
-3.86178
-3.82463
-3.80024
-3.78707
-3.78367
-3.78865
-3.80073
-3.81872
-3.84154
-3.86819
-3.89778
-3.92954
-3.96276
-3.99672
-4.03081
-4.06464
-4.09788
-4.13016
-4.16117
-4.19062
-4.21832
-4.24406
-4.26771
-4.28915
-4.30829
-4.32504
-4.33936
-4.35119
-4.36049
-4.36723
-4.37136
-4.37285
-4.37166
-4.3677
-4.36092
-4.35121
-4.33847
-4.32255
-4.30329
-4.2805
-4.254
-4.22354
-4.18889
-4.1498
-4.10602
-4.0573
-4.00339
-3.94407
-3.87914
-3.80846
-3.73196
-3.64946
-3.56068
-3.46556
-3.36429
-3.25708
-3.14404
-3.02531
-2.90115
-2.77186
-2.63781
-2.49943
-2.35716
-2.21149
-2.06297
-1.91217
-1.7597
-1.60624
-1.45249
-1.29919
-1.14713
-0.997144
-0.85013
-0.707048
-0.568931
-0.436948
-0.31214
-0.196399
-0.0864903
0.00117424
0.196931
-22.8268
-22.8479
-22.8643
-22.8772
-22.8908
-22.9065
-22.9247
-22.9454
-22.9687
-22.9945
-23.0228
-23.0535
-23.0863
-23.1211
-23.1574
-23.1949
-23.2333
-23.2723
-23.3118
-23.3518
-23.3919
-23.4322
-23.4725
-23.5126
-23.5523
-23.5916
-23.6302
-23.6679
-23.7045
-23.7398
-23.7736
-23.8056
-23.8356
-23.8632
-23.8883
-23.9104
-23.9294
-23.945
-23.9567
-23.9645
-23.9679
-23.9667
-23.9606
-23.9494
-23.9328
-23.9104
-23.8822
-23.8478
-23.8071
-23.7598
-23.7056
-23.6445
-23.5763
-23.5006
-23.4174
-23.3265
-23.2277
-23.1208
-23.0057
-22.8822
-22.75
-22.6091
-22.4593
-22.3004
-22.1316
-21.9527
-21.764
-21.565
-21.3557
-21.1356
-20.9044
-20.6618
-20.4074
-20.1409
-19.8618
-19.57
-19.265
-18.9467
-18.6147
-18.2689
-17.9092
-17.5356
-17.1481
-16.7469
-16.3324
-15.9051
-15.4653
-15.0139
-14.5518
-14.08
-13.5995
-13.1119
-12.6189
-12.1218
-11.623
-11.1242
-10.628
-10.1359
-9.64978
-9.17255
-8.70637
-8.2537
-7.81666
-7.39757
-6.99821
-6.62052
-6.266
-5.93545
-5.62985
-5.35024
-5.09705
-4.87017
-4.6691
-4.49297
-4.34066
-4.21083
-4.10202
-4.01265
-3.9411
-3.8857
-3.84484
-3.81691
-3.80039
-3.79381
-3.79579
-3.80507
-3.82045
-3.84086
-3.86529
-3.89288
-3.92285
-3.95447
-3.98693
-4.01968
-4.05241
-4.08474
-4.11631
-4.14678
-4.17589
-4.2034
-4.22913
-4.25293
-4.27467
-4.29425
-4.3116
-4.32663
-4.33931
-4.34956
-4.35736
-4.36264
-4.36536
-4.36546
-4.36285
-4.35746
-4.34916
-4.33784
-4.32335
-4.30551
-4.28413
-4.259
-4.22989
-4.19655
-4.15873
-4.11619
-4.06867
-4.01591
-3.9577
-3.89387
-3.82432
-3.74889
-3.66724
-3.57914
-3.48473
-3.38425
-3.27781
-3.16553
-3.04755
-2.92412
-2.79554
-2.66219
-2.52448
-2.38284
-2.23779
-2.08985
-1.9396
-1.78765
-1.63468
-1.48136
-1.32845
-1.1767
-1.02695
-0.880024
-0.736829
-0.598267
-0.465304
-0.338539
-0.219434
-0.102661
-0.00723824
0.213538
-22.8331
-22.8557
-22.8734
-22.8873
-22.9017
-22.9179
-22.9364
-22.9573
-22.9806
-23.0064
-23.0345
-23.0648
-23.097
-23.1309
-23.1663
-23.2028
-23.2403
-23.2785
-23.3172
-23.3565
-23.396
-23.4357
-23.4755
-23.5152
-23.5546
-23.5936
-23.632
-23.6696
-23.7061
-23.7414
-23.7752
-23.8072
-23.8372
-23.8649
-23.8901
-23.9124
-23.9316
-23.9473
-23.9592
-23.9672
-23.9708
-23.9698
-23.964
-23.953
-23.9366
-23.9146
-23.8867
-23.8526
-23.8123
-23.7654
-23.7118
-23.6512
-23.5835
-23.5085
-23.4261
-23.336
-23.238
-23.1321
-23.0181
-22.8957
-22.7649
-22.6255
-22.4773
-22.3196
-22.1521
-21.9751
-21.7883
-21.5915
-21.3844
-21.1666
-20.938
-20.698
-20.4463
-20.1826
-19.9064
-19.6175
-19.3155
-19.0001
-18.6711
-18.3282
-17.9715
-17.6007
-17.216
-16.8176
-16.4057
-15.9808
-15.5434
-15.0941
-14.634
-14.1641
-13.6852
-13.199
-12.7072
-12.211
-11.7129
-11.2142
-10.7165
-10.2228
-9.73498
-9.25546
-8.78656
-8.33072
-7.89015
-7.46716
-7.06373
-6.68178
-6.32289
-5.98813
-5.67854
-5.39497
-5.13783
-4.90704
-4.70211
-4.52223
-4.36629
-4.23298
-4.12084
-4.02829
-3.95372
-3.89547
-3.85191
-3.82145
-3.80256
-3.79376
-3.7937
-3.8011
-3.81478
-3.83364
-3.85671
-3.88312
-3.91212
-3.94284
-3.97447
-4.0066
-4.0389
-4.07098
-4.10245
-4.13299
-4.16231
-4.19018
-4.2164
-4.24083
-4.26332
-4.28378
-4.3021
-4.31821
-4.33205
-4.34355
-4.35266
-4.35931
-4.36344
-4.36497
-4.36382
-4.35989
-4.35304
-4.34316
-4.33007
-4.31359
-4.29353
-4.26967
-4.24177
-4.20958
-4.17287
-4.13137
-4.08482
-4.03298
-3.97565
-3.91272
-3.84404
-3.76927
-3.68802
-3.6003
-3.50638
-3.4064
-3.30044
-3.1886
-3.07106
-2.94806
-2.81989
-2.68693
-2.54958
-2.40829
-2.26355
-2.1159
-1.96592
-1.8142
-1.66142
-1.50826
-1.35545
-1.20373
-1.05389
-0.906735
-0.76308
-0.623695
-0.48935
-0.360243
-0.237562
-0.114239
-0.0127813
0.228209
-22.8429
-22.8662
-22.8847
-22.8994
-22.9144
-22.9311
-22.9498
-22.9708
-22.9942
-23.0198
-23.0476
-23.0774
-23.109
-23.1421
-23.1767
-23.2125
-23.2491
-23.2866
-23.3247
-23.3634
-23.4024
-23.4418
-23.4812
-23.5206
-23.5598
-23.5987
-23.6369
-23.6745
-23.711
-23.7463
-23.7801
-23.8123
-23.8424
-23.8702
-23.8955
-23.918
-23.9373
-23.9532
-23.9653
-23.9734
-23.9772
-23.9764
-23.9707
-23.9599
-23.9437
-23.9219
-23.8942
-23.8604
-23.8203
-23.7737
-23.7204
-23.6602
-23.5929
-23.5185
-23.4366
-23.3472
-23.25
-23.1449
-23.0318
-22.9105
-22.7809
-22.6427
-22.4957
-22.3392
-22.173
-21.9976
-21.8127
-21.6179
-21.4129
-21.1974
-20.9711
-20.7336
-20.4844
-20.2233
-19.9498
-19.6635
-19.3641
-19.0513
-18.7249
-18.3846
-18.0303
-17.6619
-17.2795
-16.8831
-16.4732
-16.0501
-15.6143
-15.1663
-14.7074
-14.2386
-13.7604
-13.2747
-12.7836
-12.2872
-11.7878
-11.2879
-10.7888
-10.2931
-9.80294
-9.32063
-8.84856
-8.38918
-7.94481
-7.51777
-7.11018
-6.72399
-6.36085
-6.02203
-5.70859
-5.42132
-5.1606
-4.92637
-4.71817
-4.53519
-4.37633
-4.2403
-4.12561
-4.03071
-3.95395
-3.89368
-3.84826
-3.81609
-3.79564
-3.78544
-3.78413
-3.79042
-3.80314
-3.82118
-3.84359
-3.86954
-3.89821
-3.9286
-3.95998
-3.99208
-4.02453
-4.05689
-4.08878
-4.11986
-4.14985
-4.17851
-4.20565
-4.23109
-4.25469
-4.27634
-4.29593
-4.31339
-4.32864
-4.34159
-4.35219
-4.36035
-4.36601
-4.36908
-4.36944
-4.367
-4.36163
-4.35316
-4.34144
-4.32627
-4.30745
-4.28476
-4.25797
-4.22682
-4.19107
-4.15045
-4.10471
-4.05362
-3.99703
-3.93482
-3.86671
-3.79218
-3.71106
-3.62359
-3.52997
-3.43026
-3.32454
-3.21292
-3.09559
-2.97277
-2.84478
-2.71197
-2.57475
-2.43357
-2.28892
-2.14134
-1.99139
-1.83969
-1.68689
-1.53366
-1.38071
-1.22879
-1.07864
-0.93101
-0.786637
-0.646162
-0.51018
-0.378541
-0.252309
-0.122948
-0.0169388
0.240386
-22.8555
-22.8791
-22.8977
-22.913
-22.9284
-22.9453
-22.9642
-22.9852
-23.0084
-23.0338
-23.0612
-23.0905
-23.1215
-23.154
-23.1879
-23.223
-23.259
-23.2959
-23.3335
-23.3717
-23.4104
-23.4494
-23.4886
-23.5278
-23.5669
-23.6057
-23.644
-23.6816
-23.7181
-23.7536
-23.7875
-23.8198
-23.8501
-23.8781
-23.9035
-23.9261
-23.9456
-23.9616
-23.9738
-23.9821
-23.986
-23.9852
-23.9797
-23.9689
-23.9528
-23.931
-23.9034
-23.8697
-23.8298
-23.7833
-23.7303
-23.6703
-23.6034
-23.5293
-23.4479
-23.359
-23.2625
-23.1582
-23.0459
-22.9255
-22.7969
-22.6599
-22.5137
-22.358
-22.1934
-22.0196
-21.8364
-21.6436
-21.4406
-21.2273
-21.0033
-20.7681
-20.5213
-20.2627
-19.9916
-19.7077
-19.4107
-19.1003
-18.7762
-18.4381
-18.0859
-17.7195
-17.3387
-16.9439
-16.5354
-16.1137
-15.6788
-15.2314
-14.773
-14.3049
-13.8269
-13.3404
-12.8483
-12.3511
-11.8504
-11.3486
-10.8475
-10.3492
-9.85617
-9.37063
-8.89503
-8.43184
-7.98347
-7.55228
-7.14047
-6.75007
-6.38281
-6.04006
-5.72294
-5.43222
-5.16827
-4.93104
-4.72007
-4.53454
-4.37338
-4.23526
-4.11871
-4.02214
-3.9439
-3.88232
-3.83575
-3.80258
-3.78127
-3.77035
-3.76845
-3.77429
-3.78668
-3.80453
-3.8269
-3.85298
-3.88183
-3.91235
-3.94401
-3.97659
-4.00965
-4.04274
-4.07547
-4.1075
-4.13855
-4.16836
-4.19673
-4.22348
-4.24847
-4.27157
-4.29268
-4.31168
-4.3285
-4.34306
-4.35527
-4.36505
-4.37232
-4.37696
-4.37888
-4.37795
-4.37403
-4.36695
-4.35656
-4.34264
-4.325
-4.3034
-4.27762
-4.2474
-4.21249
-4.17263
-4.12757
-4.07711
-4.02115
-3.95947
-3.89156
-3.81699
-3.7359
-3.64858
-3.55509
-3.45547
-3.34981
-3.23822
-3.1209
-2.99808
-2.87008
-2.73723
-2.59997
-2.45871
-2.31398
-2.16628
-2.0162
-1.86433
-1.71133
-1.55786
-1.40462
-1.25232
-1.10168
-0.953396
-0.808124
-0.666387
-0.528631
-0.394415
-0.264803
-0.13001
-0.0206419
0.249807
-22.8703
-22.8935
-22.9119
-22.9274
-22.9431
-22.96
-22.9789
-22.9997
-23.0227
-23.0478
-23.0748
-23.1036
-23.134
-23.1659
-23.1992
-23.2337
-23.2692
-23.3056
-23.3428
-23.3807
-23.4191
-23.4579
-23.497
-23.5362
-23.5753
-23.6141
-23.6525
-23.6901
-23.7268
-23.7624
-23.7965
-23.8289
-23.8594
-23.8875
-23.9131
-23.9359
-23.9554
-23.9715
-23.9838
-23.9921
-23.996
-23.9953
-23.9897
-23.979
-23.9628
-23.941
-23.9134
-23.8797
-23.8397
-23.7934
-23.7404
-23.6806
-23.6139
-23.5401
-23.459
-23.3705
-23.2745
-23.1708
-23.0592
-22.9397
-22.8121
-22.6757
-22.53
-22.3756
-22.2125
-22.0403
-21.8589
-21.6679
-21.467
-21.2558
-21.0339
-20.801
-20.5566
-20.3002
-20.0314
-19.7498
-19.4551
-19.1468
-18.8247
-18.4886
-18.1383
-17.7734
-17.3939
-17.0002
-16.5927
-16.1719
-15.7378
-15.2907
-14.832
-14.3633
-13.8848
-13.3976
-12.9039
-12.4049
-11.9022
-11.398
-10.8941
-10.3928
-9.89641
-9.40728
-8.92786
-8.46066
-8.00815
-7.57274
-7.15671
-6.76216
-6.3909
-6.04439
-5.72378
-5.42987
-5.16302
-4.92317
-4.70987
-4.52231
-4.35938
-4.21975
-4.10192
-4.00429
-3.92518
-3.86291
-3.8158
-3.78224
-3.76067
-3.74963
-3.74772
-3.75368
-3.76629
-3.78448
-3.80735
-3.83407
-3.86347
-3.89453
-3.92695
-3.96044
-3.9945
-4.0287
-4.06263
-4.09595
-4.12835
-4.1596
-4.18947
-4.21778
-4.24438
-4.26912
-4.2919
-4.3126
-4.33113
-4.34739
-4.3613
-4.37276
-4.38167
-4.38793
-4.39141
-4.39197
-4.38948
-4.38377
-4.37466
-4.36194
-4.34541
-4.32483
-4.29998
-4.2706
-4.23645
-4.19723
-4.15275
-4.10286
-4.04743
-3.98599
-3.91795
-3.84324
-3.76218
-3.67489
-3.58139
-3.48172
-3.37598
-3.26428
-3.14683
-3.02387
-2.89571
-2.76268
-2.62522
-2.48376
-2.33879
-2.19083
-2.04048
-1.88831
-1.73498
-1.58114
-1.42747
-1.27466
-1.12339
-0.974315
-0.828017
-0.684911
-0.545322
-0.40857
-0.275814
-0.136204
-0.0243896
0.256451
-22.8865
-22.9089
-22.9268
-22.9423
-22.9579
-22.9748
-22.9934
-23.014
-23.0366
-23.0613
-23.0878
-23.1161
-23.146
-23.1774
-23.2101
-23.2441
-23.2792
-23.3153
-23.3522
-23.3899
-23.4282
-23.4669
-23.506
-23.5452
-23.5843
-23.6233
-23.6617
-23.6995
-23.7364
-23.7721
-23.8064
-23.839
-23.8696
-23.8979
-23.9236
-23.9464
-23.966
-23.9821
-23.9944
-24.0026
-24.0065
-24.0057
-24
-23.9891
-23.9728
-23.9508
-23.923
-23.8892
-23.8491
-23.8027
-23.7496
-23.6899
-23.6233
-23.5496
-23.4688
-23.3806
-23.285
-23.1818
-23.071
-22.9523
-22.8251
-22.689
-22.5443
-22.3912
-22.2296
-22.059
-21.8793
-21.6902
-21.4913
-21.2822
-21.0624
-20.8317
-20.5896
-20.3355
-20.0689
-19.7894
-19.4967
-19.1904
-18.8702
-18.5358
-18.1871
-17.8239
-17.4456
-17.0529
-16.6459
-16.2254
-15.7915
-15.3444
-14.8853
-14.4154
-13.9355
-13.4468
-12.9509
-12.4495
-11.9441
-11.4368
-10.9297
-10.4249
-9.92471
-9.43166
-8.94816
-8.47677
-8.02001
-7.58035
-7.16015
-6.76154
-6.38643
-6.03634
-5.71249
-5.41567
-5.14625
-4.90419
-4.689
-4.49988
-4.3357
-4.1951
-4.07655
-3.97842
-3.89901
-3.83661
-3.78953
-3.75614
-3.73486
-3.72422
-3.72283
-3.72941
-3.74273
-3.76175
-3.78561
-3.81336
-3.84363
-3.87562
-3.90921
-3.94397
-3.97939
-4.01502
-4.05044
-4.08532
-4.11935
-4.15226
-4.18385
-4.21391
-4.24228
-4.26882
-4.29339
-4.3159
-4.33622
-4.35426
-4.36992
-4.3831
-4.39368
-4.40154
-4.40657
-4.40862
-4.40753
-4.40314
-4.39526
-4.38368
-4.3682
-4.34857
-4.32458
-4.29596
-4.26246
-4.2238
-4.17985
-4.13047
-4.07536
-4.01381
-3.9455
-3.87068
-3.78958
-3.70221
-3.60859
-3.50875
-3.40281
-3.29089
-3.17319
-3.04996
-2.92152
-2.7882
-2.65042
-2.50862
-2.36331
-2.21499
-2.06425
-1.91167
-1.7579
-1.60358
-1.44938
-1.29596
-1.14397
-0.994018
-0.846621
-0.7021
-0.560685
-0.42151
-0.285893
-0.142075
-0.0284814
0.260385
-22.9034
-22.9248
-22.9419
-22.9571
-22.9725
-22.989
-23.0073
-23.0275
-23.0497
-23.0739
-23.0999
-23.1276
-23.157
-23.188
-23.2203
-23.2539
-23.2887
-23.3245
-23.3613
-23.3988
-23.4371
-23.4758
-23.515
-23.5543
-23.5936
-23.6326
-23.6713
-23.7093
-23.7463
-23.7822
-23.8166
-23.8493
-23.88
-23.9083
-23.9341
-23.9569
-23.9764
-23.9925
-24.0047
-24.0127
-24.0164
-24.0154
-24.0094
-23.9983
-23.9817
-23.9595
-23.9314
-23.8973
-23.857
-23.8103
-23.7572
-23.6973
-23.6307
-23.5571
-23.4764
-23.3885
-23.2932
-23.1906
-23.0803
-22.9619
-22.8348
-22.6994
-22.5559
-22.4042
-22.244
-22.075
-21.8971
-21.7098
-21.5129
-21.3058
-21.0882
-20.8597
-20.6197
-20.3679
-20.1036
-19.8262
-19.5356
-19.2313
-18.9129
-18.5801
-18.2328
-17.8709
-17.4939
-17.102
-16.6956
-16.275
-15.8407
-15.393
-14.9329
-14.4615
-13.9796
-13.4886
-12.9901
-12.4856
-11.9769
-11.466
-10.9551
-10.4463
-9.94195
-9.44462
-8.95679
-8.48104
-8.01995
-7.57603
-7.1517
-6.74917
-6.37038
-6.01695
-5.69011
-5.39069
-5.11906
-4.87518
-4.65855
-4.46835
-4.30341
-4.16234
-4.0436
-3.9455
-3.86632
-3.80433
-3.7578
-3.72509
-3.7046
-3.69485
-3.69446
-3.7021
-3.71658
-3.73687
-3.76214
-3.7912
-3.82264
-3.85597
-3.89107
-3.92742
-3.96449
-4.00181
-4.03898
-4.07565
-4.1115
-4.14628
-4.17974
-4.2117
-4.24197
-4.27042
-4.29689
-4.32127
-4.34345
-4.36331
-4.38075
-4.39564
-4.40789
-4.41736
-4.42392
-4.42742
-4.4277
-4.42458
-4.41788
-4.40738
-4.39289
-4.37415
-4.35095
-4.32301
-4.29008
-4.25193
-4.20847
-4.15949
-4.10439
-4.04251
-3.97396
-3.89904
-3.81782
-3.73028
-3.63644
-3.53635
-3.43011
-3.31787
-3.19983
-3.07624
-2.94742
-2.8137
-2.67552
-2.53329
-2.38753
-2.23876
-2.08754
-1.93447
-1.78018
-1.62529
-1.47048
-1.31638
-1.16361
-1.01272
-0.86418
-0.718234
-0.575042
-0.433589
-0.295392
-0.147928
-0.0330188
0.261775
-22.9206
-22.9408
-22.9568
-22.9715
-22.9864
-23.0025
-23.0203
-23.04
-23.0617
-23.0853
-23.1107
-23.138
-23.1669
-23.1975
-23.2294
-23.2628
-23.2973
-23.333
-23.3697
-23.4073
-23.4455
-23.4844
-23.5236
-23.5631
-23.6025
-23.6418
-23.6806
-23.7187
-23.7559
-23.7919
-23.8265
-23.8592
-23.8899
-23.9182
-23.9439
-23.9666
-23.986
-24.0018
-24.0138
-24.0216
-24.0249
-24.0236
-24.0173
-24.0057
-23.9887
-23.966
-23.9375
-23.9031
-23.8624
-23.8155
-23.762
-23.702
-23.6353
-23.5616
-23.481
-23.3932
-23.2983
-23.1961
-23.0859
-22.9673
-22.8407
-22.7063
-22.5641
-22.4139
-22.2552
-22.0879
-21.9117
-21.7264
-21.5314
-21.3265
-21.111
-20.8847
-20.6469
-20.3973
-20.1353
-19.8602
-19.5717
-19.2694
-18.9528
-18.6217
-18.2758
-17.9149
-17.5388
-17.1475
-16.7413
-16.3205
-15.8855
-15.4368
-14.9752
-14.5018
-14.0175
-13.5238
-13.022
-12.5139
-12.0013
-11.4863
-10.9709
-10.4576
-9.94869
-9.44672
-8.95428
-8.47399
-8.00847
-7.56029
-7.13191
-6.7256
-6.34335
-5.98683
-5.65731
-5.35564
-5.08219
-4.83692
-4.61931
-4.4285
-4.2633
-4.12229
-4.00387
-3.90633
-3.8279
-3.76682
-3.72135
-3.6898
-3.67058
-3.66219
-3.66323
-3.67237
-3.68841
-3.71039
-3.73743
-3.76802
-3.80093
-3.83598
-3.87289
-3.91109
-3.95005
-3.98931
-4.02844
-4.06709
-4.10494
-4.14173
-4.1772
-4.21117
-4.24345
-4.27387
-4.3023
-4.32861
-4.35267
-4.37437
-4.39359
-4.41022
-4.42412
-4.43516
-4.44322
-4.44812
-4.44972
-4.44783
-4.44225
-4.43278
-4.4192
-4.40129
-4.37881
-4.35147
-4.31904
-4.28137
-4.23835
-4.18953
-4.13414
-4.07189
-4.00317
-3.92809
-3.84668
-3.75887
-3.66474
-3.5643
-3.45769
-3.34504
-3.22658
-3.10254
-2.97325
-2.83905
-2.70038
-2.55764
-2.41137
-2.26206
-2.1103
-1.95666
-1.80178
-1.64627
-1.4908
-1.33596
-1.18236
-1.03051
-0.880828
-0.733492
-0.588611
-0.445061
-0.304576
-0.154007
-0.0380849
0.260764
-22.9376
-22.9564
-22.9712
-22.9852
-22.9995
-23.015
-23.0321
-23.0512
-23.0722
-23.0952
-23.1202
-23.147
-23.1755
-23.2057
-23.2374
-23.2705
-23.305
-23.3406
-23.3773
-23.4149
-23.4533
-23.4923
-23.5317
-23.5713
-23.6109
-23.6503
-23.6893
-23.7275
-23.7648
-23.8008
-23.8353
-23.868
-23.8986
-23.9268
-23.9523
-23.9747
-23.9938
-24.0093
-24.0209
-24.0283
-24.0312
-24.0293
-24.0225
-24.0104
-23.9928
-23.9696
-23.9406
-23.9056
-23.8645
-23.8171
-23.7633
-23.703
-23.6362
-23.5625
-23.4818
-23.3942
-23.2996
-23.1972
-23.0866
-22.9684
-22.8427
-22.7095
-22.5685
-22.4197
-22.2627
-22.0971
-21.9229
-21.7395
-21.5466
-21.3438
-21.1306
-20.9066
-20.6711
-20.4238
-20.1639
-19.891
-19.6046
-19.3042
-18.9894
-18.6598
-18.3152
-17.9553
-17.5799
-17.189
-16.7828
-16.3616
-15.9258
-15.4758
-15.0125
-14.5368
-14.0498
-13.5528
-13.0473
-12.5352
-12.0181
-11.4984
-10.9781
-10.4597
-9.94572
-9.4387
-8.94132
-8.45626
-7.98619
-7.53373
-7.10137
-6.69143
-6.30595
-5.94662
-5.61474
-5.31118
-5.03633
-4.7901
-4.57197
-4.38104
-4.21609
-4.07564
-3.95805
-3.86157
-3.78439
-3.72472
-3.68077
-3.65086
-3.63335
-3.62675
-3.62963
-3.64065
-3.65863
-3.68268
-3.71175
-3.74408
-3.77877
-3.81585
-3.85483
-3.89513
-3.9362
-3.97758
-4.01884
-4.05963
-4.09962
-4.13853
-4.17612
-4.21219
-4.24653
-4.27899
-4.30942
-4.33768
-4.36364
-4.38718
-4.40818
-4.4265
-4.44203
-4.45462
-4.46413
-4.4704
-4.47327
-4.47254
-4.46803
-4.45952
-4.44681
-4.42966
-4.40782
-4.38101
-4.34905
-4.31182
-4.26912
-4.22015
-4.16433
-4.1018
-4.0329
-3.95761
-3.87593
-3.78781
-3.6933
-3.59245
-3.4854
-3.37227
-3.25331
-3.12875
-2.99894
-2.86419
-2.72496
-2.58165
-2.43479
-2.28489
-2.13252
-1.97826
-1.82274
-1.66656
-1.51038
-1.35477
-1.20033
-1.04751
-0.896701
-0.748024
-0.601559
-0.456098
-0.313592
-0.160402
-0.0436421
0.257569
-22.9541
-22.9714
-22.985
-22.9981
-23.0115
-23.0262
-23.0425
-23.0609
-23.0812
-23.1036
-23.1281
-23.1544
-23.1826
-23.2124
-23.244
-23.277
-23.3114
-23.347
-23.3838
-23.4215
-23.46
-23.4991
-23.5387
-23.5784
-23.6182
-23.6577
-23.6967
-23.7349
-23.7721
-23.8081
-23.8425
-23.875
-23.9054
-23.9333
-23.9584
-23.9804
-23.999
-24.014
-24.0251
-24.0319
-24.0342
-24.0317
-24.0243
-24.0115
-23.9933
-23.9694
-23.9398
-23.9042
-23.8625
-23.8146
-23.7604
-23.6998
-23.6326
-23.5589
-23.4783
-23.3907
-23.2955
-23.1926
-23.0824
-22.9651
-22.8404
-22.7083
-22.5687
-22.4213
-22.2659
-22.1022
-21.9299
-21.7486
-21.5578
-21.3573
-21.1464
-20.9246
-20.6915
-20.4464
-20.1888
-19.918
-19.6337
-19.3352
-19.0221
-18.6941
-18.3507
-17.9917
-17.617
-17.2264
-16.8202
-16.3984
-15.9616
-15.5101
-15.0448
-14.5666
-14.0766
-13.5761
-13.0666
-12.5499
-12.028
-11.503
-10.9773
-10.4533
-9.93368
-9.42116
-8.91846
-8.42835
-7.95356
-7.49677
-7.06049
-6.64707
-6.25858
-5.89673
-5.56285
-5.25781
-4.98197
-4.73525
-4.51709
-4.32654
-4.16234
-4.02297
-3.90672
-3.81181
-3.73637
-3.67859
-3.63664
-3.6088
-3.59344
-3.58903
-3.59414
-3.6074
-3.62769
-3.65416
-3.68542
-3.71973
-3.75656
-3.79592
-3.8372
-3.87979
-3.92316
-3.96683
-4.01037
-4.05343
-4.09566
-4.13679
-4.17658
-4.21479
-4.25125
-4.28578
-4.31823
-4.34844
-4.3763
-4.40167
-4.42442
-4.44441
-4.46153
-4.47562
-4.48654
-4.49411
-4.49819
-4.49857
-4.49506
-4.48745
-4.47554
-4.45908
-4.43781
-4.41146
-4.37995
-4.34311
-4.30047
-4.2511
-4.19487
-4.13212
-4.063
-3.98743
-3.90541
-3.8169
-3.72196
-3.62062
-3.51306
-3.39939
-3.27988
-3.15474
-3.02433
-2.88897
-2.74911
-2.60517
-2.45768
-2.30713
-2.15411
-1.99918
-1.84298
-1.68611
-1.52919
-1.3728
-1.2175
-1.06373
-0.911843
-0.761907
-0.613987
-0.466824
-0.322563
-0.167219
-0.0497055
0.252335
-22.97
-22.9858
-22.9979
-23.0099
-23.0223
-23.036
-23.0514
-23.0689
-23.0886
-23.1104
-23.1342
-23.1602
-23.188
-23.2177
-23.2491
-23.282
-23.3164
-23.3521
-23.389
-23.4268
-23.4654
-23.5046
-23.5443
-23.5841
-23.6239
-23.6633
-23.7022
-23.7403
-23.7773
-23.813
-23.8471
-23.8793
-23.9093
-23.9367
-23.9613
-23.9827
-24.0008
-24.0151
-24.0255
-24.0316
-24.0331
-24.0299
-24.0217
-24.0082
-23.9892
-23.9646
-23.9342
-23.8979
-23.8556
-23.8072
-23.7525
-23.6915
-23.624
-23.5501
-23.4692
-23.3808
-23.2851
-23.1826
-23.0732
-22.9567
-22.8331
-22.7023
-22.564
-22.4182
-22.2645
-22.1027
-21.9324
-21.7532
-21.5646
-21.3664
-21.1578
-20.9384
-20.7076
-20.4648
-20.2094
-19.9408
-19.6585
-19.3619
-19.0505
-18.724
-18.3818
-18.0238
-17.6497
-17.2594
-16.853
-16.4307
-15.9928
-15.5398
-15.0725
-14.5916
-14.0984
-13.5942
-13.0804
-12.5589
-12.0317
-11.5011
-10.9694
-10.4393
-9.91362
-9.39509
-8.88663
-8.39112
-7.91137
-7.45012
-7.00992
-6.59314
-6.20184
-5.83777
-5.50224
-5.1961
-4.91972
-4.67296
-4.45524
-4.26558
-4.10262
-3.96483
-3.85042
-3.75756
-3.68434
-3.62891
-3.58939
-3.56406
-3.55124
-3.54942
-3.55709
-3.57294
-3.59589
-3.62505
-3.65865
-3.69517
-3.73445
-3.77632
-3.82008
-3.86515
-3.91097
-3.95707
-4.003
-4.04842
-4.09298
-4.1364
-4.17843
-4.21884
-4.25744
-4.29405
-4.32851
-4.36068
-4.39042
-4.41758
-4.44205
-4.46368
-4.48235
-4.49788
-4.51016
-4.51899
-4.52422
-4.52564
-4.52308
-4.5163
-4.50513
-4.48928
-4.46852
-4.4426
-4.41151
-4.37492
-4.33203
-4.28219
-4.22565
-4.16268
-4.09329
-4.01738
-3.93498
-3.84601
-3.75058
-3.64871
-3.54059
-3.42632
-3.30619
-3.18042
-3.04936
-2.91334
-2.77282
-2.6282
-2.48002
-2.32878
-2.17507
-2.01944
-1.86253
-1.70493
-1.54727
-1.39009
-1.23395
-1.07925
-0.926332
-0.775223
-0.625979
-0.477311
-0.331532
-0.174442
-0.0561872
0.245288
-22.985
-22.9993
-23.0099
-23.0206
-23.0317
-23.0443
-23.0587
-23.0753
-23.0941
-23.1153
-23.1387
-23.1642
-23.1918
-23.2213
-23.2526
-23.2855
-23.3199
-23.3557
-23.3926
-23.4304
-23.4691
-23.5083
-23.5479
-23.5876
-23.6273
-23.6665
-23.7052
-23.7429
-23.7796
-23.8148
-23.8484
-23.88
-23.9093
-23.9361
-23.96
-23.9808
-23.9981
-24.0116
-24.0211
-24.0264
-24.0271
-24.023
-24.0138
-23.9995
-23.9796
-23.9542
-23.9231
-23.886
-23.8431
-23.794
-23.7388
-23.6774
-23.6096
-23.5348
-23.4528
-23.3643
-23.269
-23.1671
-23.0585
-22.943
-22.8205
-22.691
-22.5542
-22.41
-22.2581
-22.0982
-21.9299
-21.7529
-21.5667
-21.3707
-21.1645
-20.9474
-20.719
-20.4785
-20.2254
-19.959
-19.6787
-19.3839
-19.0743
-18.7492
-18.4082