/*--------------------------------*- C++ -*----------------------------------*\
  =========                 |
  \\      /  F ield         | OpenFOAM: The Open Source CFD Toolbox
   \\    /   O peration     | Website:  https://openfoam.org
    \\  /    A nd           | Version:  7
     \\/     M anipulation  |
\*---------------------------------------------------------------------------*/
FoamFile
{
    version     2.0;
    format      ascii;
    class       surfaceScalarField;
    location    "550";
    object      phi;
}
// * * * * * * * * * * * * * * * * * * * * * * * * * * * * * * * * * * * * * //

dimensions      [0 3 -1 0 0 0 0];

internalField   nonuniform List<scalar> 
33502
(
-9.70775e-10
9.68769e-10
-4.09535e-08
3.99484e-08
-9.8968e-08
5.80284e-08
-1.64237e-07
6.52448e-08
-2.32598e-07
6.83833e-08
-3.02682e-07
7.00607e-08
-3.73903e-07
7.12408e-08
-4.46085e-07
7.21557e-08
-5.18953e-07
7.28821e-08
-5.92826e-07
7.38595e-08
-6.69748e-07
7.69293e-08
-7.56362e-07
8.6613e-08
-8.38923e-07
8.2563e-08
-9.10055e-07
7.11302e-08
-9.81515e-07
7.14643e-08
-1.05188e-06
7.03599e-08
-1.12135e-06
6.94804e-08
-1.18985e-06
6.84867e-08
-1.25729e-06
6.74674e-08
-1.32376e-06
6.64594e-08
-1.38926e-06
6.55094e-08
-1.45388e-06
6.4615e-08
-1.51766e-06
6.37871e-08
-1.58067e-06
6.30041e-08
-1.64293e-06
6.22638e-08
-1.70447e-06
6.15454e-08
-1.76531e-06
6.08406e-08
-1.82544e-06
6.01362e-08
-1.88487e-06
5.94226e-08
-1.94356e-06
5.86904e-08
-2.00149e-06
5.7932e-08
-2.05863e-06
5.71405e-08
-2.11493e-06
5.63106e-08
-2.17037e-06
5.54379e-08
-2.22489e-06
5.45195e-08
-2.27844e-06
5.35528e-08
-2.33097e-06
5.25366e-08
-2.38244e-06
5.147e-08
-2.43279e-06
5.03532e-08
-2.48197e-06
4.91863e-08
-2.52994e-06
4.79704e-08
-2.57665e-06
4.67066e-08
-2.62204e-06
4.53964e-08
-2.66608e-06
4.40413e-08
-2.70872e-06
4.26431e-08
-2.74992e-06
4.12031e-08
-2.78964e-06
3.97232e-08
-2.82785e-06
3.82044e-08
-2.86449e-06
3.66482e-08
-2.89955e-06
3.50552e-08
-2.93297e-06
3.34263e-08
-2.96473e-06
3.17616e-08
-2.99479e-06
3.00614e-08
-3.02312e-06
2.83252e-08
-3.04967e-06
2.65529e-08
-3.07441e-06
2.47433e-08
-3.09731e-06
2.28954e-08
-3.11832e-06
2.10072e-08
-3.1374e-06
1.90767e-08
-3.1545e-06
1.71008e-08
-3.16958e-06
1.5076e-08
-3.18258e-06
1.29976e-08
-3.19344e-06
1.08601e-08
-3.2021e-06
8.65632e-09
-3.20848e-06
6.37659e-09
-3.2125e-06
4.01132e-09
-3.21405e-06
1.54837e-09
-3.21305e-06
-1.00492e-09
-3.20943e-06
-3.62433e-09
-3.20311e-06
-6.32236e-09
-3.19399e-06
-9.13254e-09
-3.18192e-06
-1.20712e-08
-3.16678e-06
-1.51507e-08
-3.1484e-06
-1.83793e-08
-3.12664e-06
-2.17649e-08
-3.10134e-06
-2.53122e-08
-3.07232e-06
-2.90258e-08
-3.03942e-06
-3.29072e-08
-3.00246e-06
-3.69585e-08
-2.96129e-06
-4.11778e-08
-2.91573e-06
-4.5564e-08
-2.86562e-06
-5.0111e-08
-2.81081e-06
-5.4813e-08
-2.75115e-06
-5.96592e-08
-2.68651e-06
-6.46399e-08
-2.61677e-06
-6.97408e-08
-2.54182e-06
-7.49477e-08
-2.46158e-06
-8.02399e-08
-2.37598e-06
-8.55957e-08
-2.28498e-06
-9.09904e-08
-2.18858e-06
-9.63976e-08
-2.08678e-06
-1.01782e-07
-1.97966e-06
-1.07111e-07
-1.86731e-06
-1.12344e-07
-1.74986e-06
-1.17435e-07
-1.6275e-06
-1.22344e-07
-1.50047e-06
-1.27012e-07
-1.36906e-06
-1.31395e-07
-1.23361e-06
-1.3543e-07
-1.09451e-06
-1.39082e-07
-9.52212e-07
-1.42285e-07
-8.0714e-07
-1.45058e-07
-6.5985e-07
-1.47277e-07
-5.10723e-07
-1.49112e-07
-3.60361e-07
-1.5035e-07
-2.08782e-07
-1.51569e-07
-5.594e-08
-1.52837e-07
9.57064e-08
-1.51643e-07
2.44179e-07
-1.4847e-07
3.88844e-07
-1.44662e-07
5.29249e-07
-1.40403e-07
6.65036e-07
-1.35788e-07
7.95875e-07
-1.30842e-07
9.21458e-07
-1.25591e-07
1.04152e-06
-1.20066e-07
1.15582e-06
-1.14311e-07
1.26418e-06
-1.0837e-07
1.36645e-06
-1.0229e-07
1.46255e-06
-9.61128e-08
1.55242e-06
-8.98813e-08
1.63604e-06
-8.36317e-08
1.71342e-06
-7.73959e-08
1.78461e-06
-7.12015e-08
1.84967e-06
-6.50705e-08
1.90868e-06
-5.90216e-08
1.96174e-06
-5.30684e-08
2.00895e-06
-4.72225e-08
2.05044e-06
-4.1491e-08
2.08631e-06
-3.58808e-08
2.1167e-06
-3.03949e-08
2.14173e-06
-2.50378e-08
2.16154e-06
-1.98109e-08
2.17625e-06
-1.47191e-08
2.18602e-06
-9.76545e-09
2.19098e-06
-4.96308e-09
2.19128e-06
-3.04078e-10
2.18702e-06
4.25583e-09
2.17828e-06
8.73914e-09
2.16516e-06
1.31263e-08
2.14775e-06
1.74028e-08
2.1262e-06
2.15564e-08
2.10062e-06
2.55789e-08
2.07116e-06
2.94604e-08
2.03797e-06
3.31923e-08
2.0012e-06
3.67625e-08
1.96104e-06
4.01588e-08
1.91768e-06
4.33651e-08
1.87131e-06
4.63641e-08
1.82218e-06
4.9135e-08
1.77052e-06
5.16556e-08
1.71662e-06
5.39012e-08
1.66077e-06
5.58463e-08
1.6033e-06
5.74643e-08
1.54457e-06
5.87301e-08
1.48495e-06
5.96195e-08
1.42483e-06
6.0112e-08
1.36464e-06
6.01911e-08
1.30478e-06
5.98463e-08
1.24571e-06
5.90731e-08
1.18782e-06
5.78746e-08
1.13156e-06
5.62603e-08
1.0773e-06
5.42469e-08
1.02544e-06
5.18563e-08
9.76318e-07
4.91154e-08
9.30256e-07
4.6054e-08
8.87546e-07
4.27037e-08
8.48443e-07
3.9096e-08
8.13175e-07
3.52619e-08
7.81939e-07
3.12296e-08
7.54909e-07
2.70255e-08
7.32233e-07
2.26714e-08
7.14046e-07
1.81845e-08
7.0047e-07
1.3574e-08
6.91631e-07
8.83866e-09
6.87711e-07
3.92112e-09
6.88769e-07
-1.05646e-09
6.94654e-07
-5.88147e-09
7.05223e-07
-1.05644e-08
7.20406e-07
-1.5177e-08
7.40167e-07
-1.97545e-08
7.64484e-07
-2.43076e-08
7.93332e-07
-2.88393e-08
8.26688e-07
-3.33449e-08
8.64521e-07
-3.78223e-08
9.06801e-07
-4.22654e-08
9.53488e-07
-4.66746e-08
1.00455e-06
-5.10466e-08
1.05995e-06
-5.5389e-08
1.11968e-06
-5.97068e-08
1.18371e-06
-6.40229e-08
1.25209e-06
-6.83648e-08
1.32488e-06
-7.27945e-08
1.40229e-06
-7.74047e-08
1.48466e-06
-8.23778e-08
1.57268e-06
-8.80345e-08
1.66771e-06
-9.50479e-08
1.77244e-06
-1.04752e-07
1.89302e-06
-1.20648e-07
2.04428e-06
-1.51323e-07
-2.17588e-07
-3.6689e-08
3.76572e-08
-8.15608e-08
8.48168e-08
-1.35409e-07
1.11873e-07
-1.96043e-07
1.25891e-07
-2.6106e-07
1.33393e-07
-3.28937e-07
1.37949e-07
-3.98881e-07
1.41172e-07
-4.70483e-07
1.43761e-07
-5.4365e-07
1.46035e-07
-6.18127e-07
1.48337e-07
-6.92138e-07
1.5093e-07
-7.59164e-07
1.53638e-07
-8.27836e-07
1.51232e-07
-9.01268e-07
1.44556e-07
-9.70556e-07
1.40752e-07
-1.03759e-06
1.37395e-07
-1.10271e-06
1.34597e-07
-1.16633e-06
1.32114e-07
-1.22869e-06
1.29827e-07
-1.28995e-06
1.27722e-07
-1.35022e-06
1.25787e-07
-1.40961e-06
1.23998e-07
-1.46816e-06
1.22335e-07
-1.52592e-06
1.20771e-07
-1.58294e-06
1.19279e-07
-1.63922e-06
1.17834e-07
-1.69479e-06
1.1641e-07
-1.74964e-06
1.14987e-07
-1.80376e-06
1.13544e-07
-1.85714e-06
1.12065e-07
-1.90974e-06
1.10534e-07
-1.96154e-06
1.0894e-07
-2.0125e-06
1.07272e-07
-2.06258e-06
1.05521e-07
-2.11174e-06
1.03683e-07
-2.15994e-06
1.01753e-07
-2.20713e-06
9.97276e-08
-2.25327e-06
9.76063e-08
-2.2983e-06
9.53884e-08
-2.34219e-06
9.30751e-08
-2.38488e-06
9.06676e-08
-2.42634e-06
8.81683e-08
-2.46652e-06
8.55793e-08
-2.50538e-06
8.29039e-08
-2.54289e-06
8.01444e-08
-2.57898e-06
7.73041e-08
-2.61365e-06
7.43849e-08
-2.64683e-06
7.13895e-08
-2.6785e-06
6.83192e-08
-2.70862e-06
6.51754e-08
-2.73715e-06
6.19585e-08
-2.76406e-06
5.86689e-08
-2.7893e-06
5.53059e-08
-2.81284e-06
5.18687e-08
-2.83465e-06
4.83554e-08
-2.85467e-06
4.47642e-08
-2.87286e-06
4.10918e-08
-2.88919e-06
3.73346e-08
-2.9036e-06
3.34876e-08
-2.91605e-06
2.95448e-08
-2.92647e-06
2.54989e-08
-2.93482e-06
2.13409e-08
-2.94102e-06
1.70599e-08
-2.94501e-06
1.26419e-08
-2.9467e-06
8.06761e-09
-2.94601e-06
3.31791e-09
-2.94286e-06
-1.60567e-09
-2.9372e-06
-6.66763e-09
-2.92895e-06
-1.18701e-08
-2.91801e-06
-1.72658e-08
-2.90426e-06
-2.2893e-08
-2.88755e-06
-2.8779e-08
-2.86776e-06
-3.49438e-08
-2.84474e-06
-4.14046e-08
-2.81834e-06
-4.81736e-08
-2.78839e-06
-5.52608e-08
-2.75475e-06
-6.26717e-08
-2.71725e-06
-7.04104e-08
-2.67574e-06
-7.84766e-08
-2.63005e-06
-8.68683e-08
-2.58004e-06
-9.55776e-08
-2.52556e-06
-1.04595e-07
-2.46647e-06
-1.13902e-07
-2.40265e-06
-1.23478e-07
-2.33399e-06
-1.33299e-07
-2.2604e-06
-1.43337e-07
-2.18179e-06
-1.53557e-07
-2.09811e-06
-1.6392e-07
-2.00932e-06
-1.74375e-07
-1.91544e-06
-1.84874e-07
-1.81647e-06
-1.95362e-07
-1.71248e-06
-2.05767e-07
-1.60357e-06
-2.16019e-07
-1.48986e-06
-2.26044e-07
-1.37155e-06
-2.35748e-07
-1.24883e-06
-2.45051e-07
-1.12199e-06
-2.53846e-07
-9.91337e-07
-2.62045e-07
-8.57225e-07
-2.69537e-07
-7.20048e-07
-2.76253e-07
-5.80251e-07
-2.82077e-07
-4.3827e-07
-2.87035e-07
-2.94585e-07
-2.9096e-07
-1.4956e-07
-2.94133e-07
-3.53973e-09
-2.96369e-07
1.41646e-07
-2.96753e-07
2.84358e-07
-2.9555e-07
4.24381e-07
-2.91665e-07
5.6114e-07
-2.8523e-07
6.94267e-07
-2.77789e-07
8.23341e-07
-2.69478e-07
9.47955e-07
-2.60403e-07
1.06775e-06
-2.50635e-07
1.1824e-06
-2.40245e-07
1.29164e-06
-2.29315e-07
1.39526e-06
-2.17933e-07
1.49308e-06
-2.06192e-07
1.58496e-06
-1.94183e-07
1.67084e-06
-1.81991e-07
1.75065e-06
-1.69696e-07
1.82438e-06
-1.57369e-07
1.89205e-06
-1.4507e-07
1.95369e-06
-1.32853e-07
2.00938e-06
-1.20762e-07
2.05918e-06
-1.08832e-07
2.1032e-06
-9.70915e-08
2.14154e-06
-8.55632e-08
2.17431e-06
-7.42645e-08
2.20164e-06
-6.32083e-08
2.22364e-06
-5.24055e-08
2.24047e-06
-4.18642e-08
2.25225e-06
-3.1593e-08
2.25913e-06
-2.15999e-08
2.26126e-06
-1.18924e-08
2.25877e-06
-2.47118e-09
2.25178e-06
6.68686e-09
2.24043e-06
1.56026e-08
2.22491e-06
2.42664e-08
2.20537e-06
3.26638e-08
2.182e-06
4.0777e-08
2.15497e-06
4.85891e-08
2.12447e-06
5.60821e-08
2.0907e-06
6.32376e-08
2.05386e-06
7.00348e-08
2.01417e-06
7.64509e-08
1.97187e-06
8.24596e-08
1.92721e-06
8.80318e-08
1.88044e-06
9.31349e-08
1.83185e-06
9.77337e-08
1.78171e-06
1.01791e-07
1.73035e-06
1.05267e-07
1.67808e-06
1.08124e-07
1.62522e-06
1.10323e-07
1.57212e-06
1.1183e-07
1.51913e-06
1.12614e-07
1.46659e-06
1.12652e-07
1.41486e-06
1.11929e-07
1.36427e-06
1.10437e-07
1.31516e-06
1.0818e-07
1.26786e-06
1.05174e-07
1.22268e-06
1.01442e-07
1.17991e-06
9.70167e-08
1.13983e-06
9.19404e-08
1.10268e-06
8.62587e-08
1.06871e-06
8.00227e-08
1.03813e-06
7.32835e-08
1.01114e-06
6.60933e-08
9.87897e-07
5.85013e-08
9.68571e-07
5.0555e-08
9.53301e-07
4.22958e-08
9.42212e-07
3.37595e-08
9.35425e-07
2.49712e-08
9.33054e-07
1.59456e-08
9.3521e-07
6.68213e-09
9.41828e-07
-2.69593e-09
9.52755e-07
-1.19838e-08
9.67988e-07
-2.11141e-08
9.87552e-07
-3.01274e-08
1.01144e-06
-3.90678e-08
1.03965e-06
-4.79605e-08
1.07216e-06
-5.68125e-08
1.10894e-06
-6.56213e-08
1.14998e-06
-7.43798e-08
1.19524e-06
-8.308e-08
1.24469e-06
-9.1715e-08
1.2983e-06
-1.00281e-07
1.35604e-06
-1.08778e-07
1.41787e-06
-1.17213e-07
1.48377e-06
-1.25606e-07
1.55374e-06
-1.33991e-07
1.62781e-06
-1.42431e-07
1.70605e-06
-1.5103e-07
1.78862e-06
-1.59971e-07
1.87581e-06
-1.6957e-07
1.96817e-06
-1.80396e-07
2.06666e-06
-1.93542e-07
2.17297e-06
-2.11069e-07
2.28991e-06
-2.37616e-07
2.42085e-06
-2.82295e-07
-3.55148e-07
-5.09932e-08
8.86549e-08
-1.01643e-07
1.35472e-07
-1.55218e-07
1.65462e-07
-2.12913e-07
1.83588e-07
-2.74139e-07
1.94636e-07
-3.37998e-07
2.01801e-07
-4.03688e-07
2.06868e-07
-4.7061e-07
2.10669e-07
-5.38122e-07
2.13546e-07
-6.05323e-07
2.15523e-07
-6.70775e-07
2.1638e-07
-7.32887e-07
2.15739e-07
-7.94176e-07
2.12515e-07
-8.56647e-07
2.07023e-07
-9.17765e-07
2.01866e-07
-9.7753e-07
1.9716e-07
-1.03595e-06
1.93021e-07
-1.09316e-06
1.89322e-07
-1.1493e-06
1.85966e-07
-1.20448e-06
1.82909e-07
-1.2588e-06
1.80109e-07
-1.31233e-06
1.77526e-07
-1.36511e-06
1.7512e-07
-1.41719e-06
1.72851e-07
-1.46859e-06
1.70679e-07
-1.51933e-06
1.68568e-07
-1.5694e-06
1.66483e-07
-1.61881e-06
1.64394e-07
-1.66753e-06
1.62271e-07
-1.71556e-06
1.60092e-07
-1.76286e-06
1.57836e-07
-1.80941e-06
1.55485e-07
-1.85516e-06
1.53025e-07
-1.90008e-06
1.50445e-07
-1.94413e-06
1.47737e-07
-1.98727e-06
1.44894e-07
-2.02946e-06
1.41914e-07
-2.07065e-06
1.38795e-07
-2.11079e-06
1.35536e-07
-2.14986e-06
1.32138e-07
-2.18779e-06
1.28605e-07
-2.22456e-06
1.24937e-07
-2.26012e-06
1.21141e-07
-2.29443e-06
1.17218e-07
-2.32746e-06
1.13173e-07
-2.35916e-06
1.09009e-07
-2.38951e-06
1.04731e-07
-2.41846e-06
1.0034e-07
-2.44598e-06
9.58384e-08
-2.47203e-06
9.12275e-08
-2.49658e-06
8.65076e-08
-2.51959e-06
8.16781e-08
-2.54102e-06
7.67379e-08
-2.56083e-06
7.16847e-08
-2.57899e-06
6.65157e-08
-2.59546e-06
6.12271e-08
-2.61018e-06
5.5814e-08
-2.62311e-06
5.02702e-08
-2.63422e-06
4.45883e-08
-2.64343e-06
3.87591e-08
-2.6507e-06
3.27714e-08
-2.65598e-06
2.66122e-08
-2.65918e-06
2.02657e-08
-2.66025e-06
1.37111e-08
-2.65911e-06
6.92291e-09
-2.65567e-06
-1.20695e-10
-2.6499e-06
-7.37764e-09
-2.64175e-06
-1.48248e-08
-2.6311e-06
-2.25193e-08
-2.61785e-06
-3.05155e-08
-2.60189e-06
-3.88599e-08
-2.58308e-06
-4.75885e-08
-2.5613e-06
-5.67307e-08
-2.53639e-06
-6.63097e-08
-2.50823e-06
-7.63441e-08
-2.47664e-06
-8.68462e-08
-2.44149e-06
-9.78242e-08
-2.40262e-06
-1.09282e-07
-2.35988e-06
-1.21218e-07
-2.31312e-06
-1.33627e-07
-2.26221e-06
-1.46497e-07
-2.20699e-06
-1.59811e-07
-2.14735e-06
-1.73542e-07
-2.08318e-06
-1.87654e-07
-2.01437e-06
-2.02108e-07
-1.94084e-06
-2.16859e-07
-1.86254e-06
-2.31857e-07
-1.77943e-06
-2.47035e-07
-1.69148e-06
-2.62317e-07
-1.59873e-06
-2.77627e-07
-1.5012e-06
-2.9288e-07
-1.399e-06
-3.07967e-07
-1.29223e-06
-3.22782e-07
-1.18106e-06
-3.37213e-07
-1.06569e-06
-3.51119e-07
-9.46346e-07
-3.64385e-07
-8.23333e-07
-3.76855e-07
-6.96974e-07
-3.884e-07
-5.6764e-07
-3.98866e-07
-4.35735e-07
-4.08154e-07
-3.01704e-07
-4.16105e-07
-1.66009e-07
-4.22727e-07
-2.89932e-08
-4.27973e-07
1.08138e-07
-4.31262e-07
2.44061e-07
-4.3229e-07
3.7829e-07
-4.30981e-07
5.10024e-07
-4.27283e-07
6.39069e-07
-4.2071e-07
7.65309e-07
-4.11469e-07
8.88074e-07
-4.00553e-07
1.00686e-06
-3.88261e-07
1.12122e-06
-3.7477e-07
1.23081e-06
-3.60219e-07
1.33531e-06
-3.44743e-07
1.43447e-06
-3.2848e-07
1.5281e-06
-3.11568e-07
1.61606e-06
-2.94147e-07
1.69822e-06
-2.76353e-07
1.77454e-06
-2.5831e-07
1.84497e-06
-2.40133e-07
1.90952e-06
-2.21926e-07
1.96823e-06
-2.03777e-07
2.02113e-06
-1.85763e-07
2.06832e-06
-1.67948e-07
2.10986e-06
-1.50384e-07
2.14588e-06
-1.33113e-07
2.17648e-06
-1.1617e-07
2.2018e-06
-9.95826e-08
2.22196e-06
-8.33715e-08
2.2371e-06
-6.75543e-08
2.24738e-06
-5.21469e-08
2.25295e-06
-3.71642e-08
2.25397e-06
-2.26199e-08
2.2506e-06
-8.52243e-09
2.24298e-06
5.14144e-09
2.23128e-06
1.83842e-08
2.21569e-06
3.11974e-08
2.19638e-06
4.35665e-08
2.17357e-06
5.5472e-08
2.14746e-06
6.68919e-08
2.11824e-06
7.78019e-08
2.08615e-06
8.8177e-08
2.05139e-06
9.79895e-08
2.01422e-06
1.0721e-07
1.97486e-06
1.15806e-07
1.93358e-06
1.23741e-07
1.89063e-06
1.30976e-07
1.84629e-06
1.37471e-07
1.80084e-06
1.4318e-07
1.75457e-06
1.48058e-07
1.70778e-06
1.52062e-07
1.66075e-06
1.55147e-07
1.6138e-06
1.57273e-07
1.56722e-06
1.58406e-07
1.52131e-06
1.58519e-07
1.47637e-06
1.57591e-07
1.43268e-06
1.55616e-07
1.39052e-06
1.52596e-07
1.35015e-06
1.48546e-07
1.31183e-06
1.43494e-07
1.27579e-06
1.37477e-07
1.24226e-06
1.30543e-07
1.21145e-06
1.22747e-07
1.18355e-06
1.14151e-07
1.15875e-06
1.04818e-07
1.13722e-06
9.48153e-08
1.1191e-06
8.42064e-08
1.10455e-06
7.30543e-08
1.09369e-06
6.14177e-08
1.08663e-06
4.93485e-08
1.0835e-06
3.68901e-08
1.08439e-06
2.40767e-08
1.08941e-06
1.09296e-08
1.09851e-06
-2.41821e-09
1.11158e-06
-1.57651e-08
1.12861e-06
-2.90164e-08
1.14965e-06
-4.21514e-08
1.17472e-06
-5.51891e-08
1.20381e-06
-6.81561e-08
1.23692e-06
-8.10676e-08
1.27403e-06
-9.39245e-08
1.31513e-06
-1.0672e-07
1.3602e-06
-1.19442e-07
1.40921e-06
-1.3208e-07
1.46212e-06
-1.44623e-07
1.51891e-06
-1.57066e-07
1.57954e-06
-1.69408e-07
1.644e-06
-1.81662e-07
1.71225e-06
-1.93852e-07
1.78429e-06
-2.06028e-07
1.86014e-06
-2.18276e-07
1.93985e-06
-2.30742e-07
2.02355e-06
-2.43667e-07
2.11145e-06
-2.57471e-07
2.20392e-06
-2.72868e-07
2.30153e-06
-2.91162e-07
2.40505e-06
-3.14602e-07
2.51512e-06
-3.477e-07
2.62941e-06
-3.96611e-07
-4.64026e-07
-5.59411e-08
1.44624e-07
-1.09659e-07
1.89203e-07
-1.63391e-07
2.19206e-07
-2.1893e-07
2.39143e-07
-2.7658e-07
2.52292e-07
-3.35909e-07
2.61134e-07
-3.96277e-07
2.67232e-07
-4.57009e-07
2.71397e-07
-5.17415e-07
2.73943e-07
-5.76787e-07
2.74889e-07
-6.34507e-07
2.74087e-07
-6.90295e-07
2.71524e-07
-7.45032e-07
2.67245e-07
-7.99627e-07
2.61614e-07
-8.53499e-07
2.55736e-07
-9.06476e-07
2.50136e-07
-9.58498e-07
2.45047e-07
-1.0096e-06
2.40425e-07
-1.05985e-06
2.36216e-07
-1.10931e-06
2.32371e-07
-1.15804e-06
2.28841e-07
-1.20608e-06
2.25575e-07
-1.25349e-06
2.22523e-07
-1.30027e-06
2.19633e-07
-1.34645e-06
2.16856e-07
-1.39202e-06
2.14146e-07
-1.437e-06
2.1146e-07
-1.48137e-06
2.08758e-07
-1.5251e-06
2.06007e-07
-1.56819e-06
2.03177e-07
-1.61059e-06
2.00241e-07
-1.65229e-06
1.97179e-07
-1.69323e-06
1.93973e-07
-1.7334e-06
1.90609e-07
-1.77274e-06
1.87077e-07
-1.81121e-06
1.8337e-07
-1.84878e-06
1.79485e-07
-1.8854e-06
1.75419e-07
-1.92104e-06
1.71172e-07
-1.95565e-06
1.66746e-07
-1.98919e-06
1.62144e-07
-2.02162e-06
1.5737e-07
-2.0529e-06
1.52429e-07
-2.08301e-06
1.47325e-07
-2.1119e-06
1.42063e-07
-2.13954e-06
1.36648e-07
-2.16589e-06
1.31084e-07
-2.19092e-06
1.25374e-07
-2.21461e-06
1.1952e-07
-2.2369e-06
1.13524e-07
-2.25778e-06
1.07384e-07
-2.2772e-06
1.011e-07
-2.29513e-06
9.46694e-08
-2.31153e-06
8.8089e-08
-2.32637e-06
8.13542e-08
-2.3396e-06
7.44597e-08
-2.35119e-06
6.73986e-08
-2.36108e-06
6.01625e-08
-2.36923e-06
5.27412e-08
-2.3756e-06
4.51223e-08
-2.38012e-06
3.72913e-08
-2.38274e-06
2.92312e-08
-2.38339e-06
2.09211e-08
-2.38202e-06
1.23337e-08
-2.37853e-06
3.43729e-09
-2.37291e-06
-5.74557e-09
-2.36511e-06
-1.51759e-08
-2.35505e-06
-2.48871e-08
-2.34263e-06
-3.49435e-08
-2.32774e-06
-4.5407e-08
-2.31027e-06
-5.63315e-08
-2.2901e-06
-6.77623e-08
-2.26709e-06
-7.97365e-08
-2.24112e-06
-9.22844e-08
-2.21204e-06
-1.05429e-07
-2.1797e-06
-1.19187e-07
-2.14396e-06
-1.33567e-07
-2.10467e-06
-1.48572e-07
-2.06169e-06
-1.64201e-07
-2.01487e-06
-1.80445e-07
-1.96408e-06
-1.97288e-07
-1.90919e-06
-2.14705e-07
-1.85007e-06
-2.32658e-07
-1.78663e-06
-2.51097e-07
-1.71877e-06
-2.69968e-07
-1.64642e-06
-2.89208e-07
-1.56953e-06
-3.0875e-07
-1.48806e-06
-3.28502e-07
-1.40202e-06
-3.48356e-07
-1.31144e-06
-3.68208e-07
-1.21637e-06
-3.87948e-07
-1.11691e-06
-4.07425e-07
-1.0132e-06
-4.26488e-07
-9.05409e-07
-4.45003e-07
-7.93756e-07
-4.62769e-07
-6.78497e-07
-4.79642e-07
-5.59935e-07
-4.95415e-07
-4.38415e-07
-5.09917e-07
-3.14317e-07
-5.22962e-07
-1.8807e-07
-5.34399e-07
-6.00427e-08
-5.4413e-07
6.89567e-08
-5.51725e-07
1.97852e-07
-5.56867e-07
3.25974e-07
-5.59383e-07
4.52733e-07
-5.59049e-07
5.77572e-07
-5.5582e-07
6.99931e-07
-5.49642e-07
8.19566e-07
-5.40345e-07
9.36274e-07
-5.28177e-07
1.0495e-06
-5.13781e-07
1.15875e-06
-4.97515e-07
1.26362e-06
-4.79631e-07
1.36374e-06
-4.6034e-07
1.45883e-06
-4.39841e-07
1.54868e-06
-4.18328e-07
1.6331e-06
-3.95995e-07
1.71198e-06
-3.73028e-07
1.78523e-06
-3.49604e-07
1.8528e-06
-3.25887e-07
1.91469e-06
-3.02026e-07
1.97092e-06
-2.78155e-07
2.02153e-06
-2.54389e-07
2.06659e-06
-2.30826e-07
2.10619e-06
-2.07549e-07
2.14043e-06
-1.84626e-07
2.16943e-06
-1.62115e-07
2.19332e-06
-1.40061e-07
2.21224e-06
-1.185e-07
2.22633e-06
-9.74629e-08
2.23575e-06
-7.69757e-08
2.24066e-06
-5.70614e-08
2.24124e-06
-3.77427e-08
2.23766e-06
-1.90389e-08
2.23009e-06
-9.49818e-10
2.21869e-06
1.65352e-08
2.20367e-06
3.34098e-08
2.18522e-06
4.96516e-08
2.16354e-06
6.52392e-08
2.13887e-06
8.01486e-08
2.11141e-06
9.43524e-08
2.08139e-06
1.07821e-07
2.04905e-06
1.20524e-07
2.01461e-06
1.32426e-07
1.97834e-06
1.43492e-07
1.94046e-06
1.53682e-07
1.90125e-06
1.62955e-07
1.86096e-06
1.71267e-07
1.81986e-06
1.78572e-07
1.77822e-06
1.84822e-07
1.73631e-06
1.89972e-07
1.6944e-06
1.93975e-07
1.65276e-06
1.9679e-07
1.61165e-06
1.98382e-07
1.57134e-06
1.9872e-07
1.53208e-06
1.97784e-07
1.4941e-06
1.95566e-07
1.45766e-06
1.92066e-07
1.42295e-06
1.87299e-07
1.39021e-06
1.81291e-07
1.35962e-06
1.74082e-07
1.33138e-06
1.65721e-07
1.30566e-06
1.56267e-07
1.28262e-06
1.45787e-07
1.26242e-06
1.34352e-07
1.2452e-06
1.22036e-07
1.2311e-06
1.08914e-07
1.22025e-06
9.50603e-08
1.21276e-06
8.05458e-08
1.20874e-06
6.54366e-08
1.2083e-06
4.97901e-08
1.21153e-06
3.36575e-08
1.21853e-06
1.70786e-08
1.22928e-06
1.76099e-10
1.2437e-06
-1.68301e-08
1.26174e-06
-3.38131e-08
1.28347e-06
-5.07415e-08
1.30891e-06
-6.75896e-08
1.33808e-06
-8.4361e-08
1.37099e-06
-1.01066e-07
1.40763e-06
-1.17711e-07
1.448e-06
-1.3429e-07
1.49207e-06
-1.5079e-07
1.53982e-06
-1.67196e-07
1.59124e-06
-1.83494e-07
1.64628e-06
-1.99668e-07
1.70493e-06
-2.15713e-07
1.76715e-06
-2.31628e-07
1.83292e-06
-2.47425e-07
1.90221e-06
-2.63137e-07
1.975e-06
-2.78822e-07
2.05132e-06
-2.94585e-07
2.13118e-06
-3.10599e-07
2.21466e-06
-3.27149e-07
2.3019e-06
-3.44709e-07
2.39309e-06
-3.64061e-07
2.48848e-06
-3.86548e-07
2.58816e-06
-4.14284e-07
2.69151e-06
-4.51057e-07
2.7949e-06
-5.00018e-07
-5.60602e-07
-5.68647e-08
2.015e-07
-1.11075e-07
2.43424e-07
-1.63928e-07
2.72071e-07
-2.16994e-07
2.92216e-07
-2.70832e-07
3.06136e-07
-3.25311e-07
3.15615e-07
-3.79984e-07
3.21905e-07
-4.34321e-07
3.2573e-07
-4.87815e-07
3.27432e-07
-5.40077e-07
3.27142e-07
-5.90928e-07
3.24935e-07
-6.4044e-07
3.21026e-07
-6.88993e-07
3.15793e-07
-7.37031e-07
3.09648e-07
-7.84512e-07
3.03215e-07
-8.31343e-07
2.96968e-07
-8.77454e-07
2.91158e-07
-9.22845e-07
2.8582e-07
-9.67549e-07
2.80923e-07
-1.01161e-06
2.7643e-07
-1.05505e-06
2.72287e-07
-1.09791e-06
2.68439e-07
-1.14022e-06
2.64827e-07
-1.18198e-06
2.61391e-07
-1.22319e-06
2.58075e-07
-1.26387e-06
2.54824e-07
-1.304e-06
2.51587e-07
-1.34356e-06
2.48321e-07
-1.38254e-06
2.44984e-07
-1.4209e-06
2.41542e-07
-1.45863e-06
2.37964e-07
-1.49567e-06
2.34227e-07
-1.53201e-06
2.3031e-07
-1.5676e-06
2.26197e-07
-1.6024e-06
2.21878e-07
-1.63637e-06
2.17344e-07
-1.66948e-06
2.12592e-07
-1.70168e-06
2.07619e-07
-1.73293e-06
2.02427e-07
-1.7632e-06
1.97017e-07
-1.79245e-06
1.91395e-07
-1.82064e-06
1.85564e-07
-1.84774e-06
1.7953e-07
-1.87372e-06
1.73301e-07
-1.89854e-06
1.66881e-07
-1.92217e-06
1.60277e-07
-1.94457e-06
1.53493e-07
-1.96573e-06
1.46534e-07
-1.98561e-06
1.394e-07
-2.00418e-06
1.32094e-07
-2.02141e-06
1.24614e-07
-2.03727e-06
1.16958e-07
-2.05173e-06
1.09124e-07
-2.06474e-06
1.01105e-07
-2.07628e-06
9.28964e-08
-2.08632e-06
8.44912e-08
-2.0948e-06
7.58804e-08
-2.10169e-06
6.70534e-08
-2.10694e-06
5.79974e-08
-2.11052e-06
4.86973e-08
-2.11236e-06
3.91353e-08
-2.11242e-06
2.92908e-08
-2.11064e-06
1.91372e-08
-2.10695e-06
8.64233e-09
-2.10131e-06
-2.20598e-09
-2.0937e-06
-1.33567e-08
-2.08407e-06
-2.48041e-08
-2.07234e-06
-3.66231e-08
-2.0584e-06
-4.88836e-08
-2.04215e-06
-6.16538e-08
-2.02349e-06
-7.4995e-08
-2.00229e-06
-8.89603e-08
-1.97844e-06
-1.03594e-07
-1.95179e-06
-1.18934e-07
-1.92221e-06
-1.35009e-07
-1.88956e-06
-1.51836e-07
-1.8537e-06
-1.69427e-07
-1.81449e-06
-1.87784e-07
-1.77179e-06
-2.06905e-07
-1.72545e-06
-2.26779e-07
-1.67536e-06
-2.47385e-07
-1.62137e-06
-2.68692e-07
-1.56338e-06
-2.90651e-07
-1.50128e-06
-3.13198e-07
-1.43498e-06
-3.36261e-07
-1.36443e-06
-3.59762e-07
-1.28956e-06
-3.83617e-07
-1.21035e-06
-4.07708e-07
-1.12681e-06
-4.31894e-07
-1.03898e-06
-4.56038e-07
-9.46912e-07
-4.80014e-07
-8.50713e-07
-5.03621e-07
-7.50539e-07
-5.26659e-07
-6.46558e-07
-5.48981e-07
-5.39005e-07
-5.70319e-07
-4.28149e-07
-5.90494e-07
-3.14301e-07
-6.0926e-07
-1.9783e-07
-6.26384e-07
-7.90837e-08
-6.41705e-07
4.13517e-08
-6.54832e-07
1.62619e-07
-6.65395e-07
2.84039e-07
-6.73143e-07
4.05028e-07
-6.77855e-07
5.25011e-07
-6.79365e-07
6.43462e-07
-6.77498e-07
7.59865e-07
-6.72222e-07
8.73749e-07
-6.63525e-07
9.84807e-07
-6.51403e-07
1.09275e-06
-6.36122e-07
1.19713e-06
-6.18158e-07
1.2975e-06
-5.97887e-07
1.39349e-06
-5.75616e-07
1.48477e-06
-5.5162e-07
1.57109e-06
-5.2616e-07
1.65225e-06
-4.99487e-07
1.7281e-06
-4.71847e-07
1.79854e-06
-4.43472e-07
1.86352e-06
-4.14582e-07
1.92301e-06
-3.85378e-07
1.97702e-06
-3.56041e-07
2.0256e-06
-3.26734e-07
2.0688e-06
-2.97595e-07
2.10672e-06
-2.68746e-07
2.13945e-06
-2.40286e-07
2.16712e-06
-2.123e-07
2.18986e-06
-1.84857e-07
2.20781e-06
-1.58014e-07
2.22113e-06
-1.31818e-07
2.22997e-06
-1.06308e-07
2.23451e-06
-8.15164e-08
2.23492e-06
-5.74765e-08
2.23139e-06
-3.42175e-08
2.22411e-06
-1.17609e-08
2.21326e-06
9.90356e-09
2.19901e-06
3.07761e-08
2.18159e-06
5.08277e-08
2.16121e-06
7.00296e-08
2.1381e-06
8.83556e-08
2.11247e-06
1.05777e-07
2.08455e-06
1.22263e-07
2.05459e-06
1.3778e-07
2.02282e-06
1.52294e-07
1.98948e-06
1.65766e-07
1.95481e-06
1.78158e-07
1.91906e-06
1.89426e-07
1.88249e-06
1.99527e-07
1.84534e-06
2.08417e-07
1.80786e-06
2.16049e-07
1.7703e-06
2.22376e-07
1.73291e-06
2.27357e-07
1.69594e-06
2.30948e-07
1.65961e-06
2.33116e-07
1.62416e-06
2.33831e-07
1.5898e-06
2.33072e-07
1.55675e-06
2.3083e-07
1.52521e-06
2.27104e-07
1.49537e-06
2.21907e-07
1.4674e-06
2.15266e-07
1.44147e-06
2.07218e-07
1.41774e-06
1.97811e-07
1.39635e-06
1.87104e-07
1.37745e-06
1.75167e-07
1.36116e-06
1.62073e-07
1.34761e-06
1.479e-07
1.33691e-06
1.3273e-07
1.32918e-06
1.16644e-07
1.32452e-06
9.97226e-08
1.32302e-06
8.2041e-08
1.32478e-06
6.36696e-08
1.3299e-06
4.46711e-08
1.33846e-06
2.51019e-08
1.35048e-06
5.06024e-09
1.36586e-06
-1.52136e-08
1.38458e-06
-3.55407e-08
1.40665e-06
-5.58889e-08
1.43213e-06
-7.62197e-08
1.46105e-06
-9.65032e-08
1.49342e-06
-1.1673e-07
1.52925e-06
-1.36898e-07
1.56854e-06
-1.57002e-07
1.61129e-06
-1.77031e-07
1.65747e-06
-1.96966e-07
1.70706e-06
-2.16789e-07
1.76005e-06
-2.36479e-07
1.81641e-06
-2.56021e-07
1.8761e-06
-2.75404e-07
1.93911e-06
-2.94628e-07
2.00539e-06
-3.13707e-07
2.07493e-06
-3.32673e-07
2.14771e-06
-3.51595e-07
2.22371e-06
-3.70587e-07
2.30295e-06
-3.89839e-07
2.38546e-06
-4.09657e-07
2.47129e-06
-4.30537e-07
2.56049e-06
-4.53264e-07
2.65304e-06
-4.79109e-07
2.74864e-06
-5.0989e-07
2.84612e-06
-5.48552e-07
2.94204e-06
-5.95949e-07
-6.50271e-07
-5.55724e-08
2.57082e-07
-1.08474e-07
2.96333e-07
-1.59347e-07
3.2295e-07
-2.09371e-07
3.42247e-07
-2.59122e-07
3.55891e-07
-3.08639e-07
3.65135e-07
-3.57679e-07
3.70944e-07
-4.05911e-07
3.7396e-07
-4.53056e-07
3.74571e-07
-4.98957e-07
3.7304e-07
-5.43642e-07
3.69609e-07
-5.87256e-07
3.64639e-07
-6.30039e-07
3.5857e-07
-6.72234e-07
3.5184e-07
-7.13923e-07
3.44902e-07
-7.55089e-07
3.38133e-07
-7.95688e-07
3.3176e-07
-8.35715e-07
3.25847e-07
-8.75184e-07
3.20394e-07
-9.14116e-07
3.15364e-07
-9.52533e-07
3.10706e-07
-9.90452e-07
3.06359e-07
-1.02788e-06
3.02259e-07
-1.06483e-06
2.98339e-07
-1.10129e-06
2.94536e-07
-1.13726e-06
2.90789e-07
-1.17271e-06
2.87043e-07
-1.20764e-06
2.83247e-07
-1.24201e-06
2.79355e-07
-1.2758e-06
2.75329e-07
-1.30897e-06
2.71136e-07
-1.34149e-06
2.66749e-07
-1.37333e-06
2.62145e-07
-1.40444e-06
2.57307e-07
-1.43478e-06
2.52225e-07
-1.46433e-06
2.4689e-07
-1.49303e-06
2.41298e-07
-1.52086e-06
2.35447e-07
-1.54777e-06
2.29341e-07
-1.57374e-06
2.22981e-07
-1.59872e-06
2.16374e-07
-1.62268e-06
2.09526e-07
-1.64559e-06
2.02443e-07
-1.66742e-06
1.95134e-07
-1.68815e-06
1.87607e-07
-1.70774e-06
1.79867e-07
-1.72616e-06
1.71922e-07
-1.7434e-06
1.63774e-07
-1.75943e-06
1.55428e-07
-1.77422e-06
1.46883e-07
-1.78774e-06
1.38138e-07
-1.79998e-06
1.2919e-07
-1.81089e-06
1.20035e-07
-1.82045e-06
1.10667e-07
-1.82863e-06
1.01077e-07
-1.8354e-06
9.12584e-08
-1.84072e-06
8.11999e-08
-1.84455e-06
7.08887e-08
-1.84686e-06
6.03096e-08
-1.84761e-06
4.94449e-08
-1.84675e-06
3.82742e-08
-1.84423e-06
2.67733e-08
-1.84001e-06
1.49119e-08
-1.83402e-06
2.65268e-09
-1.82627e-06
-9.95942e-09
-1.81674e-06
-2.28822e-08
-1.80537e-06
-3.6181e-08
-1.79205e-06
-4.9936e-08
-1.77671e-06
-6.42247e-08
-1.75925e-06
-7.91218e-08
-1.73955e-06
-9.46956e-08
-1.7175e-06
-1.11007e-07
-1.69299e-06
-1.28107e-07
-1.66589e-06
-1.4604e-07
-1.63606e-06
-1.64841e-07
-1.60337e-06
-1.8453e-07
-1.56768e-06
-2.05118e-07
-1.52885e-06
-2.2661e-07
-1.48676e-06
-2.49001e-07
-1.44126e-06
-2.72278e-07
-1.39223e-06
-2.96417e-07
-1.33954e-06
-3.21384e-07
-1.28307e-06
-3.47119e-07
-1.22273e-06
-3.73541e-07
-1.15843e-06
-4.00562e-07
-1.0901e-06
-4.28086e-07
-1.0177e-06
-4.56021e-07
-9.41187e-07
-4.84221e-07
-8.60576e-07
-5.12504e-07
-7.75909e-07
-5.40704e-07
-6.87239e-07
-5.68684e-07
-5.9467e-07
-5.9619e-07
-4.98371e-07
-6.22957e-07
-3.98505e-07
-6.48846e-07
-2.9531e-07
-6.73512e-07
-1.8908e-07
-6.96722e-07
-8.00997e-08
-7.18239e-07
3.11737e-08
-7.37656e-07
1.4405e-07
-7.5458e-07
2.57919e-07
-7.687e-07
3.72255e-07
-7.79729e-07
4.86507e-07
-7.87395e-07
6.00124e-07
-7.91471e-07
7.12563e-07
-7.91804e-07
8.23328e-07
-7.88263e-07
9.31935e-07
-7.8083e-07
1.03795e-06
-7.69537e-07
1.14102e-06
-7.54478e-07
1.24083e-06
-7.3593e-07
1.33697e-06
-7.14303e-07
1.42907e-06
-6.89981e-07
1.51677e-06
-6.63319e-07
1.5998e-06
-6.34649e-07
1.67793e-06
-6.04289e-07
1.75098e-06
-5.72546e-07
1.81885e-06
-5.39715e-07
1.88145e-06
-5.06075e-07
1.93875e-06
-4.71886e-07
1.99076e-06
-4.37385e-07
2.0375e-06
-4.02785e-07
2.07904e-06
-3.68276e-07
2.11546e-06
-3.34019e-07
2.14687e-06
-3.00155e-07
2.17339e-06
-2.66802e-07
2.19514e-06
-2.34058e-07
2.21229e-06
-2.02004e-07
2.22498e-06
-1.70707e-07
2.23338e-06
-1.40225e-07
2.23768e-06
-1.10604e-07
2.23805e-06
-8.18851e-08
2.23468e-06
-5.41101e-08
2.22778e-06
-2.73153e-08
2.21753e-06
-1.50949e-09
2.20412e-06
2.33148e-08
2.18776e-06
4.71384e-08
2.16867e-06
6.99196e-08
2.14707e-06
9.16257e-08
2.1232e-06
1.12226e-07
2.09729e-06
1.31691e-07
2.06957e-06
1.49986e-07
2.04028e-06
1.67077e-07
2.00965e-06
1.82928e-07
1.97791e-06
1.975e-07
1.94532e-06
2.10754e-07
1.9121e-06
2.22647e-07
1.87849e-06
2.33137e-07
1.84473e-06
2.42182e-07
1.81105e-06
2.49738e-07
1.77766e-06
2.55765e-07
1.74479e-06
2.60225e-07
1.71266e-06
2.63085e-07
1.68146e-06
2.64317e-07
1.65139e-06
2.63903e-07
1.62263e-06
2.61831e-07
1.59536e-06
2.58103e-07
1.56974e-06
2.5273e-07
1.54591e-06
2.45736e-07
1.52403e-06
2.37155e-07
1.50421e-06
2.27036e-07
1.48659e-06
2.15435e-07
1.47127e-06
2.0242e-07
1.45838e-06
1.88064e-07
1.448e-06
1.72449e-07
1.44025e-06
1.55656e-07
1.43521e-06
1.37771e-07
1.43297e-06
1.1888e-07
1.43363e-06
9.90662e-08
1.43727e-06
7.84075e-08
1.44396e-06
5.6978e-08
1.45379e-06
3.4844e-08
1.46681e-06
1.20829e-08
1.48293e-06
-1.10654e-08
1.50208e-06
-3.43654e-08
1.52431e-06
-5.77645e-08
1.54964e-06
-8.12224e-08
1.57812e-06
-1.04697e-07
1.60977e-06
-1.28154e-07
1.64461e-06
-1.51574e-07
1.68266e-06
-1.74943e-07
1.7239e-06
-1.98247e-07
1.76834e-06
-2.21468e-07
1.81596e-06
-2.44583e-07
1.86673e-06
-2.67567e-07
1.92065e-06
-2.90398e-07
1.97769e-06
-3.13056e-07
2.03781e-06