/*--------------------------------*- C++ -*----------------------------------*\
  =========                 |
  \\      /  F ield         | OpenFOAM: The Open Source CFD Toolbox
   \\    /   O peration     | Website:  https://openfoam.org
    \\  /    A nd           | Version:  7
     \\/     M anipulation  |
\*---------------------------------------------------------------------------*/
FoamFile
{
    version     2.0;
    format      ascii;
    class       volVectorField;
    location    "550";
    object      U;
}
// * * * * * * * * * * * * * * * * * * * * * * * * * * * * * * * * * * * * * //

dimensions      [0 1 -1 0 0 0 0];

internalField   nonuniform List<vector> 
16900
(
(0.0039408 -0.00489131 0)
(-0.0147054 0.0245293 0)
(-0.0589187 0.0382069 0)
(-0.113449 0.0426928 0)
(-0.17174 0.0441768 0)
(-0.231844 0.0449404 0)
(-0.293097 0.045723 0)
(-0.355473 0.0469208 0)
(-0.41926 0.0494 0)
(-0.483955 0.0553523 0)
(-0.547982 0.0686935 0)
(-0.611193 0.0925957 0)
(-0.685079 0.0729518 0)
(-0.761544 0.0357873 0)
(-0.823593 0.0368088 0)
(-0.883117 0.0375432 0)
(-0.942506 0.0376643 0)
(-1.0021 0.0371667 0)
(-1.06094 0.0364881 0)
(-1.11895 0.0357773 0)
(-1.17612 0.0350926 0)
(-1.23251 0.034447 0)
(-1.28815 0.033845 0)
(-1.3431 0.0332782 0)
(-1.39739 0.0327418 0)
(-1.45105 0.0322256 0)
(-1.5041 0.0317239 0)
(-1.55653 0.0312291 0)
(-1.60836 0.0307355 0)
(-1.65956 0.030238 0)
(-1.71011 0.0297324 0)
(-1.75999 0.0292151 0)
(-1.80917 0.0286833 0)
(-1.85762 0.0281347 0)
(-1.90528 0.027568 0)
(-1.95213 0.0269818 0)
(-1.99812 0.0263757 0)
(-2.0432 0.0257494 0)
(-2.08734 0.0251031 0)
(-2.13049 0.024437 0)
(-2.1726 0.0237517 0)
(-2.21364 0.023048 0)
(-2.25356 0.0223268 0)
(-2.29233 0.0215889 0)
(-2.3299 0.0208354 0)
(-2.36624 0.0200671 0)
(-2.40132 0.0192849 0)
(-2.4351 0.0184895 0)
(-2.46755 0.0176817 0)
(-2.49863 0.016862 0)
(-2.52832 0.0160308 0)
(-2.55658 0.0151884 0)
(-2.58338 0.0143348 0)
(-2.6087 0.0134699 0)
(-2.6325 0.0125936 0)
(-2.65475 0.0117054 0)
(-2.67541 0.0108046 0)
(-2.69447 0.00989014 0)
(-2.71187 0.00896093 0)
(-2.72758 0.00801516 0)
(-2.74156 0.00705083 0)
(-2.75377 0.0060652 0)
(-2.76416 0.0050554 0)
(-2.77267 0.0040178 0)
(-2.77925 0.00294647 0)
(-2.78382 0.00183172 0)
(-2.78631 0.000669189 0)
(-2.78661 -0.000527402 0)
(-2.78468 -0.00174665 0)
(-2.78046 -0.0030022 0)
(-2.77385 -0.00431132 0)
(-2.76476 -0.00568209 0)
(-2.75307 -0.00712037 0)
(-2.73864 -0.00863116 0)
(-2.72135 -0.0102187 0)
(-2.70106 -0.0118866 0)
(-2.67761 -0.0136382 0)
(-2.65088 -0.015476 0)
(-2.6207 -0.0174027 0)
(-2.58693 -0.0194198 0)
(-2.54942 -0.0215289 0)
(-2.50803 -0.0237305 0)
(-2.46262 -0.0260248 0)
(-2.41306 -0.0284109 0)
(-2.35921 -0.030888 0)
(-2.30098 -0.0334549 0)
(-2.23825 -0.0361097 0)
(-2.17094 -0.0388488 0)
(-2.09898 -0.0416683 0)
(-2.02231 -0.0445643 0)
(-1.94093 -0.0475312 0)
(-1.85481 -0.050561 0)
(-1.76399 -0.0536468 0)
(-1.66853 -0.0567786 0)
(-1.56853 -0.059946 0)
(-1.46413 -0.0631391 0)
(-1.35549 -0.0663427 0)
(-1.24286 -0.0695438 0)
(-1.12651 -0.0727211 0)
(-1.00674 -0.0758611 0)
(-0.883928 -0.0789434 0)
(-0.758453 -0.0819947 0)
(-0.63076 -0.0850741 0)
(-0.501179 -0.0883479 0)
(-0.370099 -0.0919871 0)
(-0.238078 -0.0958418 0)
(-0.108973 -0.0988965 0)
(0.0284235 -0.0977003 0)
(0.157109 -0.0929627 0)
(0.283154 -0.08811 0)
(0.405935 -0.083439 0)
(0.524943 -0.0789325 0)
(0.639865 -0.0745606 0)
(0.750419 -0.0702999 0)
(0.856348 -0.0661379 0)
(0.95743 -0.0620695 0)
(1.05348 -0.0580962 0)
(1.14436 -0.0542215 0)
(1.22996 -0.0504512 0)
(1.31022 -0.0467903 0)
(1.3851 -0.0432441 0)
(1.4546 -0.0398156 0)
(1.51874 -0.0365077 0)
(1.57756 -0.0333207 0)
(1.63112 -0.0302546 0)
(1.6795 -0.0273073 0)
(1.72279 -0.0244763 0)
(1.76108 -0.0217577 0)
(1.79447 -0.0191479 0)
(1.82306 -0.016642 0)
(1.84696 -0.0142355 0)
(1.86628 -0.0119231 0)
(1.88115 -0.0097021 0)
(1.89166 -0.00757253 0)
(1.89795 -0.0055378 0)
(1.90014 -0.00356954 0)
(1.89836 -0.0016419 0)
(1.89267 0.000237346 0)
(1.88312 0.00206595 0)
(1.86982 0.00384479 0)
(1.85287 0.00557536 0)
(1.83237 0.00725924 0)
(1.80845 0.00889736 0)
(1.78122 0.0104899 0)
(1.75083 0.0120361 0)
(1.71742 0.013534 0)
(1.68114 0.0149805 0)
(1.64216 0.0163708 0)
(1.60068 0.0176988 0)
(1.55689 0.0189565 0)
(1.51103 0.0201346 0)
(1.46334 0.0212218 0)
(1.4141 0.0222061 0)
(1.36358 0.0230737 0)
(1.31212 0.023811 0)
(1.26005 0.0244035 0)
(1.20771 0.0248385 0)
(1.15547 0.0251034 0)
(1.1037 0.0251889 0)
(1.05278 0.0250871 0)
(1.00306 0.0247946 0)
(0.954914 0.0243097 0)
(0.908672 0.0236357 0)
(0.864656 0.0227778 0)
(0.823161 0.0217454 0)
(0.784456 0.0205484 0)
(0.748781 0.0191994 0)
(0.716351 0.0177104 0)
(0.687356 0.0160977 0)
(0.661961 0.0143794 0)
(0.640307 0.0125736 0)
(0.622514 0.0106837 0)
(0.608682 0.00869754 0)
(0.598918 0.00660662 0)
(0.593367 0.0044365 0)
(0.592257 0.00227102 0)
(0.595447 0.000173183 0)
(0.602745 -0.00186228 0)
(0.614079 -0.00384328 0)
(0.629413 -0.0057778 0)
(0.648726 -0.00766775 0)
(0.671994 -0.00951344 0)
(0.699196 -0.0113116 0)
(0.730303 -0.0130602 0)
(0.765285 -0.0147559 0)
(0.804108 -0.0163982 0)
(0.846738 -0.0179859 0)
(0.893143 -0.0195216 0)
(0.943295 -0.0210082 0)
(0.997179 -0.0224541 0)
(1.0548 -0.0238709 0)
(1.1162 -0.0252802 0)
(1.1815 -0.0267163 0)
(1.2509 -0.0282412 0)
(1.32482 -0.0299657 0)
(1.40412 -0.0321186 0)
(1.49026 -0.0351614 0)
(1.58747 -0.0402839 0)
(1.69671 -0.0507834 0)
(1.90694 -0.0760077 0)
(-0.0230678 0.0165579 0)
(-0.0501967 0.0577256 0)
(-0.0942705 0.0799622 0)
(-0.146157 0.089992 0)
(-0.202407 0.0944295 0)
(-0.261657 0.0965322 0)
(-0.323036 0.0976255 0)
(-0.386069 0.0982075 0)
(-0.450268 0.0985599 0)
(-0.514655 0.0992303 0)
(-0.579167 0.100649 0)
(-0.643117 0.101923 0)
(-0.707538 0.100356 0)
(-0.770281 0.0966783 0)
(-0.830982 0.0961689 0)
(-0.891229 0.0954133 0)
(-0.950246 0.093996 0)
(-1.00752 0.0923677 0)
(-1.06343 0.0906716 0)
(-1.11828 0.0890164 0)
(-1.17221 0.0874476 0)
(-1.22531 0.0859715 0)
(-1.27765 0.0845838 0)
(-1.32928 0.0832679 0)
(-1.38023 0.0820088 0)
(-1.43052 0.0807879 0)
(-1.48018 0.0795889 0)
(-1.5292 0.078397 0)
(-1.57757 0.0771988 0)
(-1.6253 0.0759827 0)
(-1.67235 0.0747389 0)
(-1.7187 0.0734594 0)
(-1.76432 0.0721377 0)
(-1.80918 0.0707689 0)
(-1.85324 0.0693496 0)
(-1.89647 0.0678774 0)
(-1.93882 0.0663511 0)
(-1.98026 0.0647704 0)
(-2.02073 0.0631358 0)
(-2.06021 0.0614483 0)
(-2.09865 0.0597096 0)
(-2.13602 0.0579218 0)
(-2.17226 0.0560869 0)
(-2.20736 0.0542076 0)
(-2.24126 0.0522862 0)
(-2.27393 0.0503252 0)
(-2.30535 0.0483268 0)
(-2.33547 0.0462931 0)
(-2.36427 0.0442258 0)
(-2.3917 0.0421263 0)
(-2.41774 0.0399957 0)
(-2.44236 0.0378349 0)
(-2.46552 0.0356441 0)
(-2.48718 0.0334235 0)
(-2.50732 0.0311728 0)
(-2.5259 0.0288914 0)
(-2.54288 0.0265781 0)
(-2.55822 0.0242314 0)
(-2.57189 0.0218489 0)
(-2.58383 0.0194278 0)
(-2.59401 0.0169642 0)
(-2.60237 0.0144535 0)
(-2.60886 0.0118901 0)
(-2.61341 0.00926732 0)
(-2.61598 0.00657274 0)
(-2.61647 0.00378925 0)
(-2.6148 0.000915092 0)
(-2.61092 -0.00202568 0)
(-2.60481 -0.00502212 0)
(-2.59635 -0.00809953 0)
(-2.58545 -0.0112861 0)
(-2.57199 -0.014598 0)
(-2.55586 -0.0180468 0)
(-2.53692 -0.0216412 0)
(-2.51505 -0.0253878 0)
(-2.49011 -0.0292911 0)
(-2.46195 -0.0333538 0)
(-2.43043 -0.0375774 0)
(-2.39542 -0.0419615 0)
(-2.35677 -0.0465043 0)
(-2.31434 -0.0512018 0)
(-2.268 -0.0560479 0)
(-2.21763 -0.061034 0)
(-2.1631 -0.066149 0)
(-2.10431 -0.0713805 0)
(-2.04116 -0.0767147 0)
(-1.97358 -0.0821354 0)
(-1.90151 -0.087622 0)
(-1.82491 -0.0931513 0)
(-1.74375 -0.0987003 0)
(-1.65805 -0.104242 0)
(-1.56785 -0.109743 0)
(-1.4732 -0.11517 0)
(-1.37421 -0.120486 0)
(-1.27102 -0.125648 0)
(-1.16381 -0.13062 0)
(-1.05279 -0.135347 0)
(-0.938213 -0.139789 0)
(-0.820395 -0.143884 0)
(-0.699659 -0.147601 0)
(-0.576397 -0.150896 0)
(-0.450981 -0.1538 0)
(-0.323947 -0.156344 0)
(-0.195492 -0.158597 0)
(-0.0662982 -0.160424 0)
(0.0643189 -0.161572 0)
(0.191457 -0.16197 0)
(0.317651 -0.159739 0)
(0.440432 -0.155084 0)
(0.560223 -0.150009 0)
(0.676609 -0.144591 0)
(0.789196 -0.138902 0)
(0.897642 -0.132972 0)
(1.00165 -0.12683 0)
(1.10096 -0.120508 0)
(1.19536 -0.114046 0)
(1.28468 -0.107485 0)
(1.36879 -0.100868 0)
(1.44759 -0.0942347 0)
(1.52103 -0.0876224 0)
(1.58907 -0.0810635 0)
(1.65173 -0.074586 0)
(1.70903 -0.068213 0)
(1.76101 -0.0619631 0)
(1.80774 -0.0558509 0)
(1.84929 -0.0498869 0)
(1.88576 -0.0440787 0)
(1.91724 -0.0384311 0)
(1.94383 -0.0329475 0)
(1.96565 -0.027629 0)
(1.98281 -0.0224759 0)
(1.99544 -0.0174883 0)
(2.00365 -0.0126694 0)
(2.00758 -0.00802225 0)
(2.00736 -0.00354446 0)
(2.0031 0.000780972 0)
(1.99489 0.00497157 0)
(1.9829 0.00903596 0)
(1.96727 0.0129677 0)
(1.94816 0.0167588 0)
(1.92573 0.0204017 0)
(1.90013 0.0238901 0)
(1.87153 0.0272174 0)
(1.84012 0.0303768 0)
(1.80608 0.0333601 0)
(1.76962 0.0361578 0)
(1.73095 0.0387589 0)
(1.69029 0.0411504 0)
(1.64788 0.0433179 0)
(1.60397 0.0452457 0)
(1.55883 0.0469169 0)
(1.51273 0.0483143 0)
(1.46597 0.0494207 0)
(1.41883 0.05022 0)
(1.37164 0.050698 0)
(1.32468 0.050843 0)
(1.27828 0.0506473 0)
(1.23275 0.0501071 0)
(1.18838 0.0492237 0)
(1.14546 0.0480031 0)
(1.1043 0.0464564 0)
(1.06514 0.0445988 0)
(1.02825 0.0424498 0)
(0.993862 0.0400316 0)
(0.962195 0.0373684 0)
(0.933448 0.0344846 0)
(0.907804 0.0314045 0)
(0.885428 0.0281525 0)
(0.86647 0.0247548 0)
(0.851062 0.0212354 0)
(0.839321 0.0176098 0)
(0.831348 0.0138772 0)
(0.827243 0.0100341 0)
(0.827116 0.00609944 0)
(0.831098 0.00209975 0)
(0.838937 -0.00187216 0)
(0.850581 -0.00572848 0)
(0.866073 -0.00948314 0)
(0.885416 -0.0131659 0)
(0.908604 -0.0167941 0)
(0.935623 -0.0203731 0)
(0.966456 -0.0239032 0)
(1.00108 -0.0273813 0)
(1.03948 -0.0308045 0)
(1.08161 -0.0341695 0)
(1.12746 -0.0374752 0)
(1.17698 -0.0407216 0)
(1.23015 -0.0439126 0)
(1.28695 -0.0470557 0)
(1.34736 -0.0501657 0)
(1.41139 -0.0532675 0)
(1.47908 -0.0564041 0)
(1.55052 -0.0596477 0)
(1.62591 -0.0631263 0)
(1.70558 -0.0670713 0)
(1.7902 -0.0719389 0)
(1.88073 -0.0786285 0)
(1.97994 -0.0892466 0)
(2.08494 -0.108928 0)
(2.24493 -0.142249 0)
(-0.0346207 0.0596905 0)
(-0.0689408 0.104301 0)
(-0.115269 0.131709 0)
(-0.166543 0.147026 0)
(-0.22095 0.155624 0)
(-0.278029 0.160883 0)
(-0.337074 0.164575 0)
(-0.397448 0.167525 0)
(-0.458479 0.170023 0)
(-0.51926 0.171922 0)
(-0.579304 0.172533 0)
(-0.638298 0.171737 0)
(-0.695914 0.168946 0)
(-0.751925 0.163842 0)
(-0.806964 0.158624 0)
(-0.861658 0.153833 0)
(-0.91554 0.149955 0)
(-0.968183 0.146584 0)
(-1.01972 0.143517 0)
(-1.07033 0.140691 0)
(-1.1201 0.138072 0)
(-1.16913 0.13563 0)
(-1.21745 0.133338 0)
(-1.26512 0.131164 0)
(-1.31217 0.129079 0)
(-1.3586 0.127055 0)
(-1.40443 0.125066 0)
(-1.44966 0.123087 0)
(-1.49428 0.121098 0)
(-1.53828 0.119081 0)
(-1.58162 0.117021 0)
(-1.6243 0.114905 0)
(-1.66627 0.112724 0)
(-1.7075 0.11047 0)
(-1.74796 0.108137 0)
(-1.78761 0.105722 0)
(-1.82641 0.103224 0)
(-1.86432 0.100642 0)
(-1.9013 0.0979772 0)
(-1.93732 0.0952306 0)
(-1.97234 0.0924052 0)
(-2.00631 0.0895039 0)
(-2.03919 0.0865302 0)
(-2.07097 0.0834877 0)
(-2.10159 0.08038 0)
(-2.13102 0.0772106 0)
(-2.15924 0.0739826 0)
(-2.1862 0.0706989 0)
(-2.21188 0.0673615 0)
(-2.23624 0.0639723 0)
(-2.25925 0.0605322 0)
(-2.28088 0.0570421 0)
(-2.30109 0.0535017 0)
(-2.31985 0.0499107 0)
(-2.33713 0.0462679 0)
(-2.35288 0.0425718 0)
(-2.36707 0.0388199 0)
(-2.37966 0.0350091 0)
(-2.3906 0.0311353 0)
(-2.39986 0.0271934 0)
(-2.40737 0.0231769 0)
(-2.4131 0.0190784 0)
(-2.41698 0.0148887 0)
(-2.41895 0.0105957 0)
(-2.41895 0.00617971 0)
(-2.41691 0.00162583 0)
(-2.41273 -0.00304277 0)
(-2.40644 -0.00779957 0)
(-2.39793 -0.0126696 0)
(-2.38712 -0.0176922 0)
(-2.37388 -0.0228975 0)
(-2.35813 -0.0283069 0)
(-2.33972 -0.033937 0)
(-2.31855 -0.0397999 0)
(-2.29448 -0.0459048 0)
(-2.26737 -0.0522569 0)
(-2.23708 -0.0588588 0)
(-2.20348 -0.0657101 0)
(-2.16643 -0.072808 0)
(-2.12579 -0.0801464 0)
(-2.08142 -0.0877161 0)
(-2.03321 -0.0955039 0)
(-1.98102 -0.103492 0)
(-1.92475 -0.111657 0)
(-1.8643 -0.119975 0)
(-1.7996 -0.128418 0)
(-1.73057 -0.136956 0)
(-1.65716 -0.145549 0)
(-1.57935 -0.154152 0)
(-1.49715 -0.162723 0)
(-1.41058 -0.171212 0)
(-1.3197 -0.179559 0)
(-1.22459 -0.187704 0)
(-1.12539 -0.195582 0)
(-1.02226 -0.203118 0)
(-0.915397 -0.210248 0)
(-0.805047 -0.216883 0)
(-0.691483 -0.222953 0)
(-0.57504 -0.228371 0)
(-0.456047 -0.233101 0)
(-0.334963 -0.237085 0)
(-0.212069 -0.240344 0)
(-0.0881713 -0.242816 0)
(0.0373223 -0.244341 0)
(0.161413 -0.244664 0)
(0.284543 -0.243572 0)
(0.405422 -0.241113 0)
(0.524212 -0.236889 0)
(0.640392 -0.23105 0)
(0.753686 -0.224319 0)
(0.86357 -0.216881 0)
(0.96961 -0.208838 0)
(1.07145 -0.200266 0)
(1.16878 -0.191238 0)
(1.26135 -0.181829 0)
(1.34898 -0.172119 0)
(1.43149 -0.162186 0)
(1.50878 -0.152105 0)
(1.58078 -0.141945 0)
(1.64743 -0.131771 0)
(1.70874 -0.121639 0)
(1.7647 -0.111597 0)
(1.81537 -0.101684 0)
(1.86081 -0.091936 0)
(1.90108 -0.0823777 0)
(1.93627 -0.0730305 0)
(1.96649 -0.0639103 0)
(1.99184 -0.0550291 0)
(2.01245 -0.0463957 0)
(2.02844 -0.0380163 0)
(2.03993 -0.0298951 0)
(2.04707 -0.0220379 0)
(2.05 -0.0144522 0)
(2.04887 -0.00713906 0)
(2.04383 -8.32569e-05 0)
(2.03498 0.00672463 0)
(2.02251 0.0132862 0)
(2.00658 0.0195969 0)
(1.98738 0.0256497 0)
(1.96507 0.0314355 0)
(1.93985 0.0369448 0)
(1.91192 0.0421672 0)
(1.88146 0.0470917 0)
(1.84869 0.051706 0)
(1.81383 0.0559964 0)
(1.7771 0.0599474 0)
(1.73874 0.0635418 0)
(1.69899 0.0667611 0)
(1.65809 0.0695853 0)
(1.61632 0.071994 0)
(1.57393 0.0739663 0)
(1.5312 0.0754824 0)
(1.48839 0.0765239 0)
(1.44579 0.0770755 0)
(1.40366 0.0771252 0)
(1.36228 0.076666 0)
(1.3219 0.0756962 0)
(1.28278 0.0742204 0)
(1.24518 0.0722494 0)
(1.20932 0.0698001 0)
(1.17544 0.0668954 0)
(1.14373 0.063563 0)
(1.11441 0.0598348 0)
(1.08765 0.055745 0)
(1.06362 0.0513295 0)
(1.0425 0.0466231 0)
(1.02441 0.0416613 0)
(1.00951 0.0364787 0)
(0.997909 0.03111 0)
(0.989727 0.0255816 0)
(0.98506 0.0199068 0)
(0.984003 0.01409 0)
(0.986657 0.00815216 0)
(0.993131 0.00215107 0)
(1.00323 -0.00382193 0)
(1.01692 -0.00970566 0)
(1.03425 -0.0154849 0)
(1.05523 -0.0211707 0)
(1.07988 -0.0267796 0)
(1.10819 -0.0323226 0)
(1.14016 -0.0378023 0)
(1.17576 -0.0432174 0)
(1.21499 -0.0485634 0)
(1.25781 -0.0538365 0)
(1.3042 -0.0590327 0)
(1.35413 -0.0641505 0)
(1.40757 -0.0691907 0)
(1.4645 -0.0741589 0)
(1.5249 -0.0790668 0)
(1.58873 -0.0839365 0)
(1.65602 -0.0888053 0)
(1.72679 -0.0937364 0)
(1.80111 -0.0988358 0)
(1.87913 -0.104286 0)
(1.9611 -0.110405 0)
(2.04748 -0.117787 0)
(2.13871 -0.127503 0)
(2.23647 -0.141804 0)
(2.33484 -0.164305 0)
(2.47086 -0.197693 0)
(-0.0387148 0.111409 0)
(-0.07757 0.155019 0)
(-0.126166 0.183528 0)
(-0.177503 0.201417 0)
(-0.23041 0.212526 0)
(-0.285022 0.219633 0)
(-0.340872 0.224396 0)
(-0.397323 0.22762 0)
(-0.453712 0.229569 0)
(-0.509351 0.23015 0)
(-0.563855 0.229036 0)
(-0.61716 0.226308 0)
(-0.669199 0.222249 0)
(-0.720037 0.216901 0)
(-0.77008 0.211036 0)
(-0.819638 0.205325 0)
(-0.868542 0.200245 0)
(-0.916584 0.195695 0)
(-0.963784 0.191558 0)
(-1.01021 0.187761 0)
(-1.05593 0.184252 0)
(-1.10099 0.180982 0)
(-1.14543 0.177908 0)
(-1.18928 0.174988 0)
(-1.23256 0.17218 0)
(-1.27529 0.169448 0)
(-1.31746 0.166755 0)
(-1.35906 0.164071 0)
(-1.40009 0.161369 0)
(-1.44052 0.158625 0)
(-1.48034 0.155819 0)
(-1.5195 0.152936 0)
(-1.55799 0.149962 0)
(-1.59577 0.146888 0)
(-1.63279 0.143707 0)
(-1.66904 0.140415 0)
(-1.70445 0.13701 0)
(-1.73901 0.133491 0)
(-1.77266 0.12986 0)
(-1.80538 0.12612 0)
(-1.83711 0.122272 0)
(-1.86784 0.118323 0)
(-1.89751 0.114275 0)
(-1.92611 0.110135 0)
(-1.95358 0.105907 0)
(-1.97991 0.101594 0)
(-2.00505 0.0972023 0)
(-2.02899 0.0927339 0)
(-2.05167 0.0881918 0)
(-2.07309 0.0835778 0)
(-2.0932 0.078893 0)
(-2.11197 0.0741375 0)
(-2.12937 0.069311 0)
(-2.14536 0.0644122 0)
(-2.15992 0.0594391 0)
(-2.173 0.0543891 0)
(-2.18457 0.0492585 0)
(-2.19458 0.0440426 0)
(-2.203 0.0387356 0)
(-2.20977 0.03333 0)
(-2.21486 0.0278172 0)
(-2.2182 0.0221868 0)
(-2.21975 0.0164265 0)
(-2.21944 0.0105177 0)
(-2.21721 0.00443552 0)
(-2.21296 -0.00181388 0)
(-2.20675 -0.00819137 0)
(-2.19847 -0.014703 0)
(-2.18804 -0.0213938 0)
(-2.17536 -0.0283057 0)
(-2.16034 -0.0354739 0)
(-2.14285 -0.0429259 0)
(-2.1228 -0.0506835 0)
(-2.10004 -0.0587633 0)
(-2.07445 -0.0671771 0)
(-2.0459 -0.0759315 0)
(-2.01425 -0.0850292 0)
(-1.97936 -0.0944688 0)
(-1.9411 -0.104246 0)
(-1.89932 -0.11435 0)
(-1.85391 -0.124769 0)
(-1.80474 -0.135483 0)
(-1.75168 -0.146465 0)
(-1.69464 -0.157681 0)
(-1.63351 -0.169096 0)
(-1.56823 -0.180669 0)
(-1.49873 -0.192355 0)
(-1.42498 -0.204097 0)
(-1.34695 -0.21583 0)
(-1.26467 -0.22749 0)
(-1.17817 -0.23901 0)
(-1.08752 -0.250299 0)
(-0.992839 -0.261273 0)
(-0.894254 -0.271845 0)
(-0.79196 -0.2819 0)
(-0.686168 -0.291358 0)
(-0.577151 -0.300093 0)
(-0.465188 -0.308023 0)
(-0.35067 -0.315041 0)
(-0.233889 -0.321095 0)
(-0.115461 -0.326107 0)
(0.00471445 -0.329916 0)
(0.124929 -0.332352 0)
(0.24488 -0.333198 0)
(0.363689 -0.332308 0)
(0.48101 -0.329671 0)
(0.59618 -0.325252 0)
(0.708985 -0.318909 0)
(0.819159 -0.31085 0)
(0.926329 -0.301541 0)
(1.03 -0.291214 0)
(1.12976 -0.280024 0)
(1.22524 -0.268095 0)
(1.31616 -0.255546 0)
(1.40227 -0.242489 0)
(1.48341 -0.22904 0)
(1.55942 -0.215306 0)
(1.63022 -0.201392 0)
(1.69575 -0.187393 0)
(1.75599 -0.173394 0)
(1.81093 -0.159471 0)
(1.86062 -0.145689 0)
(1.90511 -0.132101 0)
(1.94447 -0.118753 0)
(1.97879 -0.105681 0)
(2.00817 -0.092913 0)
(2.03274 -0.0804714 0)
(2.0526 -0.0683734 0)
(2.06791 -0.056632 0)
(2.0788 -0.0452563 0)
(2.08541 -0.0342547 0)
(2.0879 -0.0236378 0)
(2.08644 -0.0134148 0)
(2.0812 -0.00357871 0)
(2.07231 0.00588526 0)
(2.05995 0.0149765 0)
(2.0443 0.0236895 0)
(2.02555 0.0320171 0)
(2.00391 0.0399502 0)
(1.97957 0.0474777 0)
(1.95275 0.0545877 0)
(1.92364 0.0612673 0)
(1.89249 0.0675023 0)
(1.85949 0.0732773 0)
(1.8249 0.0785755 0)
(1.78894 0.0833785 0)
(1.75185 0.0876664 0)
(1.71389 0.0914185 0)
(1.67529 0.0946132 0)
(1.63632 0.0972291 0)
(1.59722 0.0992455 0)
(1.55825 0.100644 0)
(1.51965 0.101408 0)
(1.48167 0.101526 0)
(1.44455 0.10099 0)
(1.40852 0.0997996 0)
(1.3738 0.0979592 0)
(1.34061 0.0954805 0)
(1.30914 0.0923824 0)
(1.27959 0.0886898 0)
(1.25213 0.0844338 0)
(1.22694 0.0796502 0)
(1.20418 0.0743789 0)
(1.18399 0.0686617 0)
(1.16652 0.0625415 0)
(1.15189 0.0560605 0)
(1.14022 0.0492619 0)
(1.13164 0.0421881 0)
(1.12625 0.0348771 0)
(1.12414 0.027354 0)
(1.1254 0.0196334 0)
(1.13013 0.0117392 0)
(1.13843 0.0037344 0)
(1.15018 -0.00427945 0)
(1.16528 -0.0122264 0)
(1.1838 -0.0200805 0)
(1.20577 -0.0278311 0)
(1.23121 -0.0354844 0)
(1.26014 -0.0430495 0)
(1.29256 -0.050532 0)
(1.32844 -0.057931 0)
(1.36779 -0.0652426 0)
(1.41058 -0.0724603 0)
(1.4568 -0.0795784 0)
(1.50641 -0.0865917 0)
(1.5594 -0.0934978 0)
(1.61572 -0.100298 0)
(1.67536 -0.106999 0)
(1.73829 -0.113616 0)
(1.8045 -0.120177 0)
(1.87397 -0.126731 0)
(1.94672 -0.133357 0)
(2.0228 -0.140187 0)
(2.10231 -0.147441 0)
(2.18539 -0.155488 0)
(2.2723 -0.164979 0)
(2.36305 -0.17698 0)
(2.45859 -0.1935 0)
(2.55157 -0.216661 0)
(2.67578 -0.246851 0)
(-0.0397485 0.166094 0)
(-0.0808706 0.207178 0)
(-0.130579 0.234717 0)
(-0.181438 0.25328 0)
(-0.23253 0.265523 0)
(-0.284269 0.273503 0)
(-0.336408 0.278584 0)
(-0.388447 0.281504 0)
(-0.43988 0.282559 0)
(-0.490282 0.281808 0)
(-0.539471 0.27924 0)
(-0.587517 0.275094 0)
(-0.634503 0.269816 0)
(-0.680549 0.263706 0)
(-0.725918 0.257223 0)
(-0.770781 0.250851 0)
(-0.815077 0.244934 0)
(-0.858711 0.239504 0)
(-0.901677 0.234518 0)
(-0.944006 0.229922 0)
(-0.985734 0.225662 0)
(-1.02689 0.221682 0)
(-1.06751 0.21793 0)
(-1.10759 0.214354 0)
(-1.14717 0.210904 0)
(-1.18623 0.207535 0)
(-1.22477 0.204205 0)
(-1.26277 0.200878 0)
(-1.30024 0.197519 0)
(-1.33713 0.194102 0)
(-1.37342 0.190602 0)
(-1.40908 0.187001 0)
(-1.44409 0.183284 0)
(-1.4784 0.179439 0)
(-1.51197 0.175458 0)
(-1.54478 0.171338 0)
(-1.57678 0.167075 0)
(-1.60793 0.16267 0)
(-1.6382 0.158124 0)
(-1.66754 0.153442 0)
(-1.69594 0.148627 0)
(-1.72334 0.143685 0)
(-1.74971 0.138622 0)
(-1.77503 0.133442 0)
(-1.79926 0.128154 0)
(-1.82237 0.122761 0)
(-1.84433 0.117269 0)
(-1.86511 0.111682 0)
(-1.88468 0.106003 0)
(-1.90302 0.100234 0)
(-1.9201 0.0943749 0)
(-1.93589 0.0884264 0)
(-1.95035 0.082387 0)
(-1.96346 0.0762548 0)
(-1.97518 0.0700269 0)
(-1.98548 0.0636995 0)
(-1.99431 0.0572678 0)
(-2.00166 0.0507254 0)
(-2.00746 0.0440646 0)
(-2.01169 0.0372762 0)
(-2.01429 0.0303491 0)
(-2.01522 0.0232707 0)
(-2.01441 0.0160241 0)
(-2.01183 0.00858478 0)
(-2.00739 0.0009372 0)
(-2.00108 -0.00688247 0)
(-1.99289 -0.014853 0)
(-1.98274 -0.0230164 0)
(-1.97053 -0.0314215 0)
(-1.95617 -0.0401147 0)
(-1.93956 -0.0491363 0)
(-1.9206 -0.0585193 0)
(-1.89915 -0.0682906 0)
(-1.87511 -0.0784707 0)
(-1.84834 -0.0890744 0)
(-1.81872 -0.100109 0)
(-1.78609 -0.111578 0)
(-1.75033 -0.123479 0)
(-1.71131 -0.135804 0)
(-1.66889 -0.148542 0)
(-1.62294 -0.161674 0)
(-1.57334 -0.175176 0)
(-1.51996 -0.189011 0)
(-1.46271 -0.203136 0)
(-1.40149 -0.217501 0)
(-1.33624 -0.232053 0)
(-1.26689 -0.246735 0)
(-1.19339 -0.261473 0)
(-1.11575 -0.276175 0)
(-1.03399 -0.290759 0)
(-0.948149 -0.305143 0)
(-0.858302 -0.319202 0)
(-0.764576 -0.332825 0)
(-0.667114 -0.345906 0)
(-0.566133 -0.358291 0)
(-0.46184 -0.369887 0)
(-0.354562 -0.380541 0)
(-0.244547 -0.390147 0)
(-0.132293 -0.398593 0)
(-0.0179321 -0.405697 0)
(0.0975676 -0.411289 0)
(0.213509 -0.415127 0)
(0.329273 -0.417062 0)
(0.444386 -0.417021 0)
(0.558246 -0.414884 0)
(0.670388 -0.410643 0)
(0.780306 -0.404289 0)
(0.887682 -0.39581 0)
(0.992236 -0.385424 0)
(1.09359 -0.373482 0)
(1.19132 -0.36024 0)
(1.28502 -0.345896 0)
(1.37437 -0.330621 0)
(1.45908 -0.314577 0)
(1.53896 -0.297915 0)
(1.61382 -0.280784 0)
(1.68357 -0.263325 0)
(1.74812 -0.245667 0)
(1.80744 -0.227931 0)
(1.86152 -0.210224 0)
(1.9104 -0.192638 0)
(1.95412 -0.175255 0)
(1.99275 -0.158141 0)
(2.02638 -0.141351 0)
(2.05513 -0.124932 0)
(2.07911 -0.108918 0)
(2.09845 -0.0933389 0)
(2.1133 -0.0782156 0)
(2.12381 -0.0635654 0)
(2.13013 -0.0494011 0)
(2.13243 -0.035736 0)
(2.13087 -0.0225858 0)
(2.12566 -0.00995714 0)
(2.11696 0.00216745 0)
(2.10493 0.0137909 0)
(2.08976 0.0249052 0)
(2.07167 0.0355007 0)
(2.05086 0.0455681 0)
(2.02755 0.0550964 0)
(2.00195 0.0640737 0)
(1.97429 0.0724863 0)
(1.94478 0.0803199 0)
(1.91367 0.0875589 0)
(1.88117 0.0941865 0)
(1.84752 0.100185 0)
(1.81297 0.105534 0)
(1.77775 0.110216 0)
(1.74209 0.114208 0)
(1.70624 0.117491 0)
(1.67044 0.120046 0)
(1.63491 0.121854 0)
(1.59989 0.122901 0)
(1.5656 0.123177 0)
(1.53225 0.122673 0)
(1.50005 0.121391 0)
(1.46919 0.119334 0)
(1.43987 0.116515 0)
(1.41224 0.112955 0)
(1.38648 0.108677 0)
(1.36275 0.103715 0)
(1.34119 0.0981065 0)
(1.32193 0.0918934 0)
(1.3051 0.0851217 0)
(1.29082 0.0778382 0)
(1.27922 0.0700906 0)
(1.27039 0.061927 0)
(1.26444 0.0533965 0)
(1.26147 0.0445449 0)
(1.26157 0.0354087 0)
(1.26481 0.0260113 0)
(1.27129 0.0163788 0)
(1.28111 0.00657363 0)
(1.29423 -0.00329514 0)
(1.31048 -0.0131325 0)
(1.32993 -0.0229029 0)
(1.3526 -0.0325853 0)
(1.37855 -0.0421672 0)
(1.40779 -0.0516484 0)
(1.44033 -0.0610313 0)
(1.47618 -0.0703163 0)
(1.51532 -0.0794991 0)
(1.55776 -0.0885733 0)
(1.60346 -0.0975301 0)
(1.65242 -0.106362 0)
(1.7046 -0.115063 0)
(1.75998 -0.123629 0)
(1.81853 -0.132061 0)
(1.88023 -0.140367 0)
(1.94504 -0.148565 0)
(2.01295 -0.156688 0)
(2.08394 -0.164791 0)
(2.15801 -0.172964 0)
(2.23517 -0.181356 0)
(2.31548 -0.190205 0)
(2.39897 -0.199896 0)
(2.48574 -0.211065 0)
(2.57547 -0.224666 0)
(2.66873 -0.242303 0)
(2.75753 -0.26483 0)
(2.87542 -0.291553 0)
(-0.0392225 0.22057 0)
(-0.0809697 0.258851 0)
(-0.130546 0.284497 0)
(-0.180115 0.302494 0)
(-0.228904 0.314739 0)
(-0.277428 0.322686 0)
(-0.325617 0.327407 0)
(-0.373162 0.329561 0)
(-0.419754 0.329508 0)
(-0.465187 0.327453 0)
(-0.509434 0.323595 0)
(-0.552625 0.318282 0)
(-0.594901 0.311979 0)
(-0.636396 0.305071 0)
(-0.67729 0.297938 0)
(-0.717695 0.290948 0)
(-0.757603 0.284353 0)
(-0.796971 0.278223 0)
(-0.835794 0.272549 0)
(-0.874086 0.26729 0)
(-0.911865 0.262395 0)
(-0.94915 0.257806 0)
(-0.985954 0.253463 0)
(-1.02228 0.249307 0)
(-1.05814 0.245284 0)
(-1.09352 0.241341 0)
(-1.12841 0.23743 0)
(-1.16279 0.233509 0)
(-1.19665 0.229542 0)
(-1.22995 0.225495 0)
(-1.26266 0.221344 0)
(-1.29475 0.217066 0)
(-1.3262 0.212645 0)
(-1.35695 0.208068 0)
(-1.38697 0.203328 0)
(-1.41624 0.198419 0)
(-1.4447 0.19334 0)
(-1.47232 0.188091 0)
(-1.49906 0.182675 0)
(-1.52489 0.177098 0)
(-1.54978 0.171363 0)
(-1.57369 0.165479 0)
(-1.59659 0.159451 0)
(-1.61845 0.153288 0)
(-1.63924 0.146997 0)
(-1.65894 0.140584 0)
(-1.67751 0.134056 0)
(-1.69493 0.127416 0)
(-1.71119 0.120668 0)
(-1.72624 0.113815 0)
(-1.74007 0.106856 0)
(-1.75266 0.099791 0)
(-1.76397 0.0926183 0)
(-1.77397 0.0853347 0)
(-1.78265 0.0779366 0)
(-1.78996 0.0704191 0)
(-1.79587 0.062776 0)
(-1.80035 0.0549997 0)
(-1.80337 0.0470806 0)
(-1.80487 0.0390077 0)
(-1.80483 0.0307681 0)
(-1.8032 0.0223469 0)
(-1.79993 0.0137215 0)
(-1.79497 0.00486319 0)
(-1.78823 -0.00420783 0)
(-1.77982 -0.0134468 0)
(-1.76964 -0.0228788 0)
(-1.75762 -0.0325603 0)
(-1.74365 -0.0425447 0)
(-1.72767 -0.0528827 0)
(-1.70955 -0.0636192 0)
(-1.6892 -0.0747922 0)
(-1.6665 -0.0864331 0)
(-1.64134 -0.0985668 0)
(-1.61357 -0.111211 0)
(-1.58308 -0.124375 0)
(-1.54972 -0.13806 0)
(-1.51337 -0.152263 0)
(-1.47389 -0.166976 0)
(-1.43115 -0.182184 0)
(-1.38501 -0.197864 0)
(-1.33536 -0.213989 0)
(-1.28207 -0.230512 0)
(-1.22504 -0.247377 0)
(-1.16418 -0.264522 0)
(-1.09941 -0.281882 0)
(-1.03067 -0.299391 0)
(-0.957924 -0.316953 0)
(-0.881158 -0.334452 0)
(-0.800403 -0.351783 0)
(-0.71569 -0.368854 0)
(-0.627109 -0.385504 0)
(-0.53479 -0.401587 0)
(-0.438866 -0.416994 0)
(-0.339607 -0.431525 0)
(-0.237164 -0.445069 0)
(-0.131983 -0.457465 0)
(-0.0241843 -0.468506 0)
(0.0855373 -0.478004 0)
(0.196444 -0.485692 0)
(0.308084 -0.491388 0)
(0.419921 -0.494951 0)
(0.531386 -0.496237 0)
(0.641968 -0.495172 0)
(0.751138 -0.49168 0)
(0.85842 -0.485763 0)
(0.963353 -0.477453 0)
(1.06558 -0.466812 0)
(1.16478 -0.454056 0)
(1.26058 -0.439482 0)
(1.35259 -0.423357 0)
(1.44047 -0.405914 0)
(1.5239 -0.387367 0)
(1.60263 -0.367915 0)
(1.67648 -0.34775 0)
(1.7453 -0.327055 0)
(1.809 -0.305999 0)
(1.86754 -0.28474 0)
(1.92089 -0.263422 0)
(1.96908 -0.242172 0)
(2.01215 -0.221099 0)
(2.05017 -0.2003 0)
(2.08324 -0.179854 0)
(2.11148 -0.159826 0)
(2.13499 -0.140269 0)
(2.15393 -0.121227 0)
(2.16844 -0.102733 0)
(2.17869 -0.0848156 0)
(2.18483 -0.0674936 0)
(2.18704 -0.0507845 0)
(2.18551 -0.0347079 0)
(2.18043 -0.0192826 0)
(2.172 -0.00450385 0)
(2.16038 0.00964431 0)
(2.14578 0.0231544 0)
(2.1284 0.0360122 0)
(2.10846 0.0482058 0)
(2.08619 0.0597244 0)
(2.06181 0.0705567 0)
(2.03555 0.0806902 0)
(2.00764 0.0901114 0)
(1.9783 0.0988057 0)
(1.94778 0.106758 0)
(1.9163 0.113951 0)
(1.88409 0.120369 0)
(1.85139 0.125992 0)
(1.81842 0.130805 0)
(1.78542 0.134787 0)
(1.7526 0.137923 0)
(1.72018 0.140198 0)
(1.68838 0.141598 0)
(1.65739 0.142115 0)
(1.62742 0.141743 0)
(1.59863 0.140483 0)
(1.57122 0.138342 0)
(1.54534 0.135331 0)
(1.52114 0.131471 0)
(1.49877 0.126788 0)
(1.47836 0.121313 0)
(1.46003 0.115086 0)
(1.4439 0.108149 0)
(1.43009 0.10055 0)
(1.41868 0.0923378 0)
(1.40979 0.0835635 0)
(1.40351 0.0742786 0)
(1.39992 0.0645356 0)
(1.39912 0.0543871 0)
(1.40119 0.0438777 0)
(1.4062 0.0330395 0)
(1.41423 0.0219006 0)
(1.42536 0.010519 0)
(1.43967 -0.000997386 0)
(1.45689 -0.0125261 0)
(1.47709 -0.0240197 0)
(1.50031 -0.0354543 0)
(1.52659 -0.046808 0)
(1.55596 -0.0580651 0)
(1.58845 -0.0692195 0)
(1.62406 -0.0802673 0)
(1.66281 -0.0912044 0)
(1.70468 -0.102023 0)
(1.74966 -0.112714 0)
(1.79775 -0.123267 0)
(1.84891 -0.133672 0)
(1.90314 -0.143922 0)
(1.96039 -0.154011 0)
(2.02065 -0.163941 0)
(2.08389 -0.173719 0)
(2.15007 -0.183364 0)
(2.21917 -0.192912 0)
(2.29117 -0.202423 0)
(2.36604 -0.211992 0)
(2.44377 -0.221774 0)
(2.52436 -0.23201 0)
(2.60778 -0.243073 0)
(2.69397 -0.255547 0)
(2.7824 -0.27022 0)
(2.8735 -0.288298 0)
(2.95897 -0.309714 0)
(3.07309 -0.333424 0)
(-0.0377877 0.273056 0)
(-0.0789827 0.30861 0)
(-0.127389 0.331933 0)
(-0.174936 0.348567 0)
(-0.220986 0.359973 0)
(-0.266062 0.367181 0)
(-0.310231 0.371022 0)
(-0.353361 0.372092 0)
(-0.395321 0.370806 0)
(-0.436064 0.367486 0)
(-0.47566 0.36246 0)
(-0.514275 0.356133 0)
(-0.552071 0.348963 0)
(-0.589185 0.341342 0)
(-0.625752 0.333612 0)
(-0.66186 0.326068 0)
(-0.697524 0.318905 0)
(-0.732731 0.3122 0)
(-0.767482 0.305956 0)
(-0.801781 0.300143 0)
(-0.835638 0.294708 0)
(-0.86906 0.289592 0)
(-0.90205 0.28473 0)
(-0.934607 0.28006 0)
(-0.966723 0.275519 0)
(-0.998385 0.27105 0)
(-1.02958 0.266602 0)
(-1.06027 0.262128 0)
(-1.09044 0.257588 0)
(-1.12007 0.252946 0)
(-1.14911 0.248174 0)
(-1.17752 0.243249 0)
(-1.20529 0.238153 0)
(-1.23236 0.232874 0)
(-1.25869 0.227404 0)
(-1.28426 0.221737 0)
(-1.30903 0.215872 0)
(-1.33295 0.209813 0)
(-1.35599 0.203562 0)
(-1.37812 0.197125 0)
(-1.39931 0.19051 0)
(-1.41952 0.183724 0)
(-1.43873 0.176777 0)
(-1.45692 0.169677 0)
(-1.47404 0.162432 0)
(-1.49009 0.155052 0)
(-1.50503 0.147543 0)
(-1.51886 0.13991 0)
(-1.53154 0.132157 0)
(-1.54306 0.124286 0)
(-1.55339 0.116298 0)
(-1.56252 0.10819 0)
(-1.57043 0.0999617 0)
(-1.57708 0.0916075 0)
(-1.58246 0.0831232 0)
(-1.58653 0.0745032 0)
(-1.58928 0.06574 0)
(-1.59066 0.0568247 0)
(-1.59066 0.0477461 0)
(-1.58923 0.0384916 0)
(-1.58634 0.0290466 0)
(-1.58195 0.0193923 0)
(-1.57603 0.0095005 0)
(-1.56849 -0.000636189 0)
(-1.55942 -0.0109652 0)
(-1.5488 -0.0214755 0)
(-1.53654 -0.032229 0)
(-1.52257 -0.0432862 0)
(-1.50681 -0.0547053 0)
(-1.48916 -0.0665409 0)
(-1.46954 -0.0788425 0)
(-1.44782 -0.0916529 0)
(-1.42391 -0.105008 0)
(-1.39768 -0.118936 0)
(-1.36901 -0.13346 0)
(-1.33777 -0.148589 0)
(-1.30383 -0.164323 0)
(-1.26706 -0.18066 0)
(-1.22732 -0.19759 0)
(-1.18448 -0.215095 0)
(-1.13842 -0.23315 0)
(-1.08901 -0.251724 0)
(-1.03612 -0.270763 0)
(-0.979649 -0.290197 0)
(-0.919499 -0.309952 0)
(-0.855603 -0.32995 0)
(-0.78789 -0.350121 0)
(-0.716303 -0.370347 0)
(-0.640837 -0.390481 0)
(-0.561525 -0.410398 0)
(-0.478373 -0.430003 0)
(-0.391493 -0.449093 0)