/*--------------------------------*- C++ -*----------------------------------*\
  =========                 |
  \\      /  F ield         | OpenFOAM: The Open Source CFD Toolbox
   \\    /   O peration     | Website:  https://openfoam.org
    \\  /    A nd           | Version:  7
     \\/     M anipulation  |
\*---------------------------------------------------------------------------*/
FoamFile
{
    version     2.0;
    format      ascii;
    class       volScalarField;
    location    "2.6";
    object      p;
}
// * * * * * * * * * * * * * * * * * * * * * * * * * * * * * * * * * * * * * //

dimensions      [0 2 -2 0 0 0 0];

internalField   nonuniform List<scalar> 
900
(
-5.02205e-09
-0.000247979
-0.000591161
-0.000903873
-0.00112396
-0.00120987
-0.00114299
-0.00091786
-0.000535252
1.02588e-06
0.000685171
0.00150908
0.00246121
0.00352506
0.00467763
0.00588832
0.00711888
0.00832356
0.00945183
0.0104517
0.0112743
0.0118798
0.012243
0.0123579
0.012242
0.0119374
0.0115111
0.0110438
0.0106593
0.0104659
0.000245024
-7.53684e-06
-0.000257341
-0.000467824
-0.000599792
-0.000622719
-0.000520802
-0.000287355
7.9351e-05
0.000577872
0.00120419
0.0019515
0.00280943
0.00376291
0.00479111
0.00586659
0.00695659
0.00802093
0.00901668
0.00990017
0.0106311
0.0111775
0.0115201
0.0116564
0.0116032
0.0113966
0.0110906
0.0107521
0.0104576
0.0102733
0.000597724
0.000234471
-2.26005e-05
-0.000204348
-0.000303137
-0.000298891
-0.00018129
5.3876e-05
0.000407995
0.000880386
0.00146831
0.00216651
0.00296635
0.00385479
0.0048133
0.00581728
0.00683586
0.00783258
0.00876726
0.00959889
0.0102895
0.0108088
0.0111386
0.0112767
0.0112384
0.0110565
0.0107785
0.0104629
0.0101617
0.00989794
0.000932137
0.000434655
0.000131152
-5.76049e-05
-0.000151108
-0.000139001
-1.73631e-05
0.000214123
0.000555362
0.00100581
0.00156387
0.00222611
0.0029861
0.0038332
0.00475134
0.00571812
0.00670461
0.00767532
0.00859046
0.00940842
0.0100899
0.0106026
0.0109265
0.0110573
0.0110086
0.0108111
0.0105098
0.0101602
0.00979777
0.0094065
0.00117535
0.000539674
0.000177662
-3.30646e-05
-0.000135048
-0.000126138
-8.39401e-06
0.000214614
0.000541205
0.000970936
0.00150349
0.00213748
0.00286905
0.0036903
0.0045877
0.00554079
0.00652273
0.00749739
0.00842375
0.00925749
0.00995528
0.0104803
0.0108078
0.0109301
0.0108582
0.0106219
0.010267
0.00985049
0.00940079
0.00888087
0.0012646
0.000496818
7.23286e-05
-0.000168755
-0.000288361
-0.000291006
-0.000183857
2.61505e-05
0.000336047
0.000745715
0.00125635
0.00186893
0.00258249
0.00339221
0.00428743
0.00524974
0.0062539
0.00726253
0.00823205
0.00911339
0.00985672
0.0104177
0.0107643
0.0108827
0.0107811
0.0104888
0.0100551
0.00954379
0.00898312
0.00832044
0.00115321
0.000262556
-0.000224303
-0.000500029
-0.000643118
-0.00066353
-0.000572659
-0.000380141
-8.97675e-05
0.000299037
0.000789326
0.00138483
0.00208792
0.00289737
0.00380612
0.00479919
0.0058491
0.00692095
0.00796681
0.00893093
0.00975437
0.010382
0.0107709
0.0108985
0.0107676
0.0104075
0.00987343
0.00924095
0.00854416
0.00771921
0.000804078
-0.000200443
-0.000747728
-0.00105994
-0.00123031
-0.00127344
-0.00120423
-0.00103442
-0.000768132
-0.000403703
6.41861e-05
0.00064248
0.00133749
0.00215234
0.00308421
0.00412149
0.00523987
0.00640304
0.00755948
0.0086458
0.00959141
0.0103265
0.0107928
0.0109538
0.010804
0.0103712
0.00971837
0.00893752
0.00807395
0.00705419
0.000184999
-0.000925791
-0.00153127
-0.00188099
-0.00208182
-0.00215257
-0.00211123
-0.00197118
-0.00173653
-0.00140418
-0.00096617
-0.000411839
0.000269813
0.00108734
0.00204365
0.00313238
0.00433357
0.00561206
0.00691348
0.00816635
0.0092861
0.0101839
0.0107794
0.0110157
0.0108722
0.010372
0.00958598
0.00862766
0.00755796
0.00629236
-0.00073339
-0.00194435
-0.00260627
-0.0029947
-0.00322961
-0.00333394
-0.00332856
-0.00322837
-0.0030373
-0.00275066
-0.00235764
-0.00184338
-0.00119139
-0.000386332
0.000582499
0.00171677
0.00300373
0.00441349
0.00589129
0.00735887
0.00871629
0.00985073
0.0106518
0.0110313
0.0109432
0.010398
0.00947272
0.00830683
0.00698143
0.0053969
-0.00197842
-0.00328468
-0.00400201
-0.0044311
-0.0047048
-0.00485039
-0.00489183
-0.00484564
-0.00471581
-0.00449622
-0.00417322
-0.00372756
-0.0031365
-0.00237644
-0.00142632
-0.000272676
0.00108379
0.00262517
0.00430116
0.00603106
0.00770037
0.00916806
0.0102835
0.0109123
0.010966
0.0104279
0.00937442
0.00797427
0.00633376
0.00433236
-0.00357547
-0.00497312
-0.00574563
-0.00621821
-0.00653671
-0.00673325
-0.00683542
-0.006862
-0.0068176
-0.00669531
-0.00647919
-0.0061458
-0.00566582
-0.00500599
-0.00413212
-0.00301387
-0.00163213
1.25313e-05
0.00188733
0.00391713
0.00597778
0.00789828
0.00947705
0.0105137
0.0108515
0.0104215
0.00928334
0.00763502
0.00561323
0.00306995
-0.00554758
-0.00703365
-0.00786182
-0.00838138
-0.00875158
-0.00901031
-0.00918977
-0.00931207
-0.00938361
-0.00939795
-0.00933806
-0.00917733
-0.00888019
-0.00840297
-0.00769567
-0.00670569
-0.00538507
-0.00370645
-0.00166911
0.000672318
0.00319607
0.00570537
0.00793928
0.00960799
0.0104505
0.0103046
0.00918232
0.00730143
0.00483288
0.00159459
-0.00791483
-0.00948767
-0.0103724
-0.0109425
-0.0113711
-0.0117033
-0.0119776
-0.012221
-0.0124435
-0.0126412
-0.0127979
-0.012886
-0.0128651
-0.0126815
-0.0122675
-0.0115437
-0.0104251
-0.00883594
-0.00672793
-0.00411097
-0.0010821
0.00215064
0.0052662
0.00786283
0.00952969
0.00995128
0.00903625
0.00699472
0.00402861
-8.47902e-05
-0.0106939
-0.0123541
-0.0132966
-0.0139191
-0.0144106
-0.014825
-0.0152094
-0.0155981
-0.0160072
-0.0164379
-0.0168783
-0.0173024
-0.0176683
-0.0179139
-0.017954
-0.0176784
-0.0169562
-0.0156485
-0.013635
-0.0108506
-0.00733431
-0.00327636
0.000956418
0.00483739
0.00775725
0.0091669
0.00878323
0.00674804
0.00327187
-0.00191877
-0.0138981
-0.0156503
-0.0166512
-0.0173246
-0.0178775
-0.0183759
-0.0188784
-0.0194296
-0.020055
-0.0207644
-0.0215535
-0.0224027
-0.0232723
-0.024096
-0.0247729
-0.0251612
-0.0250774
-0.0243062
-0.0226298
-0.0198752
-0.0159799
-0.0110702
-0.00552211
2.18151e-05
0.00471634
0.00768676
0.00833191
0.00661432
0.0026896
-0.00379087
-0.0175384
-0.019394
-0.0204526
-0.0211682
-0.0217702
-0.0223412
-0.0229553
-0.0236717
-0.0245285
-0.0255478
-0.0267373
-0.0280883
-0.0295686
-0.0311128
-0.0326087
-0.0338847
-0.0347029
-0.0347617
-0.0337224
-0.0312845
-0.0272274
-0.0215555
-0.0145928
-0.00705392
-2.56842e-05
0.0052097
0.00757748
0.00668462
0.00249559
-0.00547621
-0.021627
-0.0236083
-0.0247205
-0.025457
-0.0260777
-0.0266882
-0.0273844
-0.0282443
-0.0293226
-0.0306573
-0.0322717
-0.0341723
-0.0363398
-0.038715
-0.0411801
-0.0435387
-0.0455003
-0.0466743
-0.0465853
-0.0448108
-0.0409034
-0.0346903
-0.026365
-0.0166319
-0.00677017
0.00149295
0.00645455
0.00712642
0.00303784
-0.00658023
-0.0261831
-0.028329
-0.0294843
-0.0301995
-0.0307799
-0.031365
-0.0320803
-0.0330279
-0.0342828
-0.0359012
-0.037925
-0.0403789
-0.0432599
-0.0465196
-0.0500398
-0.0536051
-0.0568792
-0.0593973
-0.0605845
-0.0597448
-0.0563221
-0.0498881
-0.040417
-0.02849
-0.0154674
-0.00347737
0.00504743
0.00825479
0.00486732
-0.00645149
-0.0312455
-0.033619
-0.0347929
-0.03541
-0.0358489
-0.0362991
-0.0369265
-0.0378631
-0.0392069
-0.0410334
-0.0434034
-0.0463604
-0.0499184
-0.0540415
-0.0586142
-0.063407
-0.0680457
-0.0719935
-0.074558
-0.0749164
-0.0722735
-0.0659544
-0.0556617
-0.0417419
-0.025479
-0.00925913
0.00376553
0.0106498
0.00883432
-0.00406106
-0.036895
-0.0395903
-0.0407299
-0.0411163
-0.0412504
-0.0413972
-0.0417762
-0.0425551
-0.0438549
-0.0457693
-0.0483755
-0.0517326
-0.055869
-0.0607586
-0.0662874
-0.072214
-0.078132
-0.0834451
-0.0873662
-0.0889482
-0.0872041
-0.0812183
-0.0704021
-0.0547898
-0.0354282
-0.0147412
0.00355695
0.0153236
0.0162173
0.0021626
-0.0432969
-0.0464422
-0.0474351
-0.0473655
-0.0469429
-0.0465433
-0.0464538
-0.0468804
-0.0479641
-0.0498108
-0.0525078
-0.0561231
-0.0606923
-0.066192
-0.0725036
-0.0793707
-0.0863557
-0.0928112
-0.0978745
-0.100498
-0.0995234
-0.0938484
-0.0826118
-0.0655146
-0.0432547
-0.0180578
0.00608554
0.0239109
0.0288859
0.0145621
-0.0507865
-0.0545236
-0.0551325
-0.0542287
-0.0528724
-0.0515934
-0.0507555
-0.0505967
-0.0512677
-0.0528751
-0.0555047
-0.0592224
-0.0640593
-0.0699833
-0.0768619
-0.0844135
-0.0921662
-0.099422
-0.105251
-0.108517
-0.107939
-0.10225
-0.0903665
-0.0716858
-0.0465262
-0.0167337
0.0137614
0.0388206
0.0495047
0.0365829
-0.0600482
-0.0644367
-0.064163
-0.0617954
-0.0589567
-0.0563648
-0.0544467
-0.0534507
-0.0535135
-0.054722
-0.0571429
-0.0608241
-0.0657771
-0.0719462
-0.0791737
-0.087137
-0.0953221
-0.102975
-0.109097
-0.112466
-0.111702
-0.105389
-0.092272
-0.0714694
-0.0429644
-0.00810661
0.0295035
0.0632481
0.0817918
0.0732607
-0.072513
-0.0772058
-0.0749975
-0.0701344
-0.0650426
-0.0606022
-0.0572437
-0.0551717
-0.0544669
-0.0551641
-0.0572854
-0.0608399
-0.0658021
-0.0720772
-0.0794596
-0.087583
-0.0958743
-0.103516
-0.109436
-0.112323
-0.110687
-0.102969
-0.087728
-0.0638732
-0.0310587
0.00998622
0.0561122
0.100887
0.130704
0.131691
-0.0912796
-0.0945525
-0.0881691
-0.0791651
-0.0707895
-0.0638848
-0.05874
-0.0554171
-0.0538708
-0.0540353
-0.0558538
-0.0592707
-0.064203
-0.0705006
-0.0779002
-0.0859757
-0.0940892
-0.101354
-0.106619
-0.108481
-0.105323
-0.0954211
-0.0771283
-0.0490675
-0.0104888
0.0382946
0.0952901
0.155042
0.201968
0.220865
-0.12319
-0.119268
-0.104145
-0.0884896
-0.0755112
-0.0654937
-0.0583101
-0.0537075
-0.0514038
-0.0511628
-0.0528047
-0.0561809
-0.0611327
-0.0674432
-0.0747853
-0.082669
-0.090393
-0.0970051
-0.101282
-0.101736
-0.0966078
-0.083999
-0.0619881
-0.0287946
0.0169254
0.0757171
0.146964
0.226839
0.300307
0.352767
-0.18369
-0.154222
-0.122711
-0.0969518
-0.0778047
-0.0641797
-0.0550206
-0.0494354
-0.0467353
-0.0464314
-0.0481836
-0.0517352
-0.0568486
-0.0632432
-0.0705359
-0.0781851
-0.0854396
-0.0912972
-0.0944829
-0.0934496
-0.0863299
-0.0710896
-0.0454471
-0.00707338
0.0463284
0.116874
0.20636
0.313875
0.428297
0.554491
-0.315764
-0.194634
-0.134769
-0.0963539
-0.0712505
-0.0552911
-0.045688
-0.0404859
-0.0384614
-0.0388945
-0.0413406
-0.0454873
-0.0510631
-0.0577649
-0.0651927
-0.0727923
-0.0798039
-0.0852179
-0.0877373
-0.0857459
-0.0774975
-0.0607903
-0.0330744
0.00851034
0.06743
0.148229
0.257334
0.40297
0.591672
0.881377
-0.642322
-0.230471
-0.10299
-0.061098
-0.0393167
-0.0274716
-0.0223186
-0.0211244
-0.0223273
-0.0252623
-0.0296336
-0.035257
-0.0419606
-0.049521
-0.057605
-0.0657174
-0.0731554
-0.0789731
-0.0819629
-0.080652
-0.0731415
-0.0572546
-0.0305651
0.0099613
0.0683871
0.151153
0.270713
0.455178
0.761521
1.35553
)
;

boundaryField
{
    movingWall
    {
        type            zeroGradient;
    }
    fixedWalls
    {
        type            zeroGradient;
    }
    frontAndBack
    {
        type            empty;
    }
}


// ************************************************************************* //
