/*--------------------------------*- C++ -*----------------------------------*\
  =========                 |
  \\      /  F ield         | OpenFOAM: The Open Source CFD Toolbox
   \\    /   O peration     | Website:  https://openfoam.org
    \\  /    A nd           | Version:  7
     \\/     M anipulation  |
\*---------------------------------------------------------------------------*/
FoamFile
{
    version     2.0;
    format      ascii;
    class       surfaceScalarField;
    location    "2.6";
    object      phi;
}
// * * * * * * * * * * * * * * * * * * * * * * * * * * * * * * * * * * * * * //

dimensions      [0 3 -1 0 0 0 0];

internalField   nonuniform List<scalar> 
1740
(
3.95053e-07
-3.95049e-07
-1.62796e-07
5.57838e-07
-1.82919e-06
1.6664e-06
-4.42336e-06
2.59417e-06
-7.67603e-06
3.25267e-06
-1.13357e-05
3.65962e-06
-1.51951e-05
3.85938e-06
-1.90894e-05
3.89439e-06
-2.28849e-05
3.79543e-06
-2.64654e-05
3.5805e-06
-2.97224e-05
3.25697e-06
-3.25475e-05
2.82516e-06
-3.483e-05
2.28249e-06
-3.64579e-05
1.62791e-06
-3.73241e-05
8.66243e-07
-3.73364e-05
1.22881e-08
-3.64276e-05
-9.08834e-07
-3.45731e-05
-1.85448e-06
-3.18026e-05
-2.77054e-06
-2.82107e-05
-3.5919e-06
-2.39624e-05
-4.24823e-06
-1.92906e-05
-4.67185e-06
-1.44839e-05
-4.80667e-06
-9.86692e-06
-4.61697e-06
-5.77236e-06
-4.09456e-06
-2.50843e-06
-3.26394e-06
-3.16939e-07
-2.19149e-06
6.94209e-07
-1.01115e-06
6.16919e-07
7.72861e-08
6.16917e-07
-5.48081e-07
1.53021e-07
-3.25066e-06
3.26043e-06
-8.28017e-06
6.6959e-06
-1.52637e-05
9.57769e-06
-2.3707e-05
1.1696e-05
-3.31016e-05
1.30543e-05
-4.29832e-05
1.37409e-05
-5.29479e-05
1.38591e-05
-6.26455e-05
1.3493e-05
-7.17625e-05
1.26975e-05
-8.00061e-05
1.15006e-05
-8.7093e-05
9.91199e-06
-9.27447e-05
7.93427e-06
-9.66932e-05
5.57636e-06
-9.86929e-05
2.86601e-06
-9.85473e-05
-1.33386e-07
-9.61203e-05
-3.33576e-06
-9.13858e-05
-6.58907e-06
-8.44408e-05
-9.71553e-06
-7.55299e-05
-1.25027e-05
-6.5053e-05
-1.47251e-05
-5.35563e-05
-1.61686e-05
-4.17042e-05
-1.66587e-05
-3.0232e-05
-1.60891e-05
-1.98803e-05
-1.44463e-05
-1.13149e-05
-1.18293e-05
-5.03527e-06
-8.47116e-06
-1.27874e-06
-4.76769e-06
1.2908e-07
-1.33053e-06
7.45995e-07
-1.72792e-06
1.88095e-06
-6.94345e-06
8.47597e-06
-1.5324e-05
1.50764e-05
-2.63161e-05
2.05698e-05
-3.92536e-05
2.46335e-05
-5.34609e-05
2.72615e-05
-6.83061e-05
2.85862e-05
-8.32209e-05
2.8774e-05
-9.76964e-05
2.79685e-05
-0.000111268
2.62694e-05
-0.000123501
2.37331e-05
-0.000133975
2.0386e-05
-0.000142285
1.62448e-05
-0.000148049
1.134e-05
-0.000150923
5.74037e-06
-0.000150634
-4.22877e-07
-0.00014701
-6.9601e-06
-0.000140022
-1.35768e-05
-0.00012982
-1.99176e-05
-0.000116755
-2.5567e-05
-0.000101394
-3.00861e-05
-8.45033e-05
-3.30599e-05
-6.70104e-05
-3.41516e-05
-4.994e-05
-3.31595e-05
-3.4321e-05
-3.00654e-05
-2.10766e-05
-2.50737e-05
-1.09055e-05
-1.86422e-05
-4.16234e-06
-1.15109e-05
-7.49375e-07
-4.7435e-06
-3.38207e-09
-2.85929e-06
4.74023e-06
-1.05103e-05
1.6127e-05
-2.21209e-05
2.6687e-05
-3.68455e-05
3.52944e-05
-5.38328e-05
4.16208e-05
-7.22661e-05
4.56948e-05
-9.13913e-05
4.77114e-05
-0.000110525
4.79075e-05
-0.000129046
4.64901e-05
-0.000146383
4.36063e-05
-0.000161994
3.93439e-05
-0.000175357
3.37491e-05
-0.00018597
2.68572e-05
-0.000193356
1.87269e-05
-0.000197093
9.47739e-06
-0.00019684
-6.76257e-07
-0.000192379
-1.14213e-05
-0.000183665
-2.22904e-05
-0.000170868
-3.27147e-05
-0.000154404
-4.20313e-05
-0.000134951
-4.95387e-05
-0.000113441
-5.45706e-05
-9.1009e-05
-5.65833e-05
-6.89214e-05
-5.52471e-05
-4.84591e-05
-5.05276e-05
-3.07864e-05
-4.27464e-05
-1.68108e-05
-3.26178e-05
-7.0584e-06
-2.12632e-05
-1.58405e-06
-1.02178e-05
-1.58744e-06
-3.86161e-06
8.60183e-06
-1.37776e-05
2.6043e-05
-2.84186e-05
4.13279e-05
-4.66196e-05
5.34954e-05
-6.73263e-05
6.23275e-05
-8.95864e-05
6.79549e-05
-0.000112545
7.067e-05
-0.000135435
7.07974e-05
-0.000157559
6.86144e-05
-0.000178271
6.43177e-05
-0.000196953
5.80259e-05
-0.000213007
4.98036e-05
-0.000225852
3.97018e-05
-0.000234931
2.78058e-05
-0.000239738
1.42844e-05
-0.000239858
-5.56467e-07
-0.000234999
-1.62799e-05
-0.000225069
-3.22205e-05
-0.000210213
-4.7571e-05
-0.000190863
-6.13806e-05
-0.000167769
-7.26332e-05
-0.000141988
-8.03517e-05
-0.000114846
-8.37246e-05
-8.78502e-05
-8.22432e-05
-6.25537e-05
-7.58242e-05
-4.04003e-05
-6.48998e-05
-2.25581e-05
-5.046e-05
-9.78018e-06
-3.40411e-05
-2.32657e-06
-1.76715e-05
-3.914e-06
-4.74119e-06
1.3343e-05
-1.67276e-05
3.80294e-05
-3.41814e-05
5.87817e-05
-5.56234e-05
7.49374e-05
-7.97925e-05
8.64966e-05
-0.000105603
9.37656e-05
-0.000132114
9.71803e-05
-0.000158494
9.71778e-05
-0.000183997
9.41174e-05
-0.000207928
8.82489e-05
-0.000229621
7.97185e-05
-0.000248419
6.86022e-05
-0.000263674
5.49568e-05
-0.00027475
3.88812e-05
-0.000281047
2.05815e-05
-0.000282048
4.44401e-07
-0.000277354
-2.09736e-05
-0.000266772
-4.28028e-05
-0.000250366
-6.39765e-05
-0.000228532
-8.3215e-05
-0.000202039
-9.91263e-05
-0.000172047
-0.000110343
-0.000140073
-0.000115699
-0.000107894
-0.000114422
-7.73994e-05
-0.000106319
-5.03921e-05
-9.19071e-05
-2.83841e-05
-7.2468e-05
-1.24209e-05
-5.00043e-05
-2.98325e-06
-2.71091e-05
-6.89725e-06
-5.52412e-06
1.88672e-05
-1.94034e-05
5.19086e-05
-3.94675e-05
7.88458e-05
-6.39443e-05
9.94143e-05
-9.13739e-05
0.000113926
-0.000120545
0.000122937
-0.00015044
0.000127075
-0.000180185
0.000126923
-0.000209005
0.000122937
-0.00023618
0.000115424
-0.000261016
0.000104555
-0.000282816
9.04023e-05
-0.00030087
7.30111e-05
-0.00031446
5.24704e-05
-0.000322876
2.89974e-05
-0.000325454
3.02246e-06
-0.000321654
-2.47729e-05
-0.000311109
-5.33484e-05
-0.000293732
-8.13533e-05
-0.000269809
-0.000107138
-0.000240073
-0.000128862
-0.000205754
-0.000144662
-0.000168563
-0.00015289
-0.000130601
-0.000152384
-9.41813e-05
-0.000142739
-6.1587e-05
-0.000124501
-3.47946e-05
-9.92604e-05
-1.5233e-05
-6.95659e-05
-3.63495e-06
-3.87072e-05
-1.05322e-05
-6.23591e-06
2.51031e-05
-2.18621e-05
6.75348e-05
-4.43634e-05
0.000101347
-7.17016e-05
0.000126752
-0.000102233
0.000144457
-0.000134632
0.000155336
-0.000167821
0.000160264
-0.000200899
0.000160001
-0.000233083
0.000155121
-0.000263654
0.000145995
-0.000291907
0.000132808
-0.000317122
0.000115617
-0.000338537
9.44254e-05
-0.000355342
6.92754e-05
-0.000366697
4.03527e-05
-0.000371765
8.09063e-06
-0.000369786
-2.6752e-05
-0.000360152
-6.29824e-05
-0.000342537
-9.89682e-05
-0.000317023
-0.000132652
-0.000284228
-0.000161657
-0.000245397
-0.000183493
-0.000202431
-0.000195856
-0.000157806
-0.00019701
-0.000114376
-0.000186168
-7.50623e-05
-0.000163815
-4.24744e-05
-0.000131848
-1.8564e-05
-9.34762e-05
-4.38789e-06
-5.28834e-05
-1.49201e-05
-6.89569e-06
3.19988e-05
-2.41533e-05
8.47924e-05
-4.89487e-05
0.000126143
-7.90034e-05
0.000156807
-0.000112508
0.000177962
-0.000148038
0.000190866
-0.000184471
0.000196697
-0.000220899
0.000196429
-0.000256556
0.000190778
-0.000290744
0.000180183
-0.000322774
0.000164838
-0.000351919
0.000144762
-0.000377373
0.00011988
-0.000398239
9.01411e-05
-0.000413525
5.56395e-05
-0.000422183
1.67481e-05
-0.000423172
-2.57631e-05
-0.000415558
-7.05964e-05
-0.00039867
-0.000115857
-0.00037227
-0.000159052
-0.000336745
-0.000197181
-0.000293272
-0.000226966
-0.000243902
-0.000245226
-0.000191529
-0.000249383
-0.00013967
-0.000238026
-9.20812e-05
-0.000211405
-5.22378e-05
-0.000171692
-2.28247e-05
-0.000122889
-5.36152e-06
-7.03466e-05
-2.02816e-05
-7.51562e-06
3.95144e-05
-2.63115e-05
0.000103588
-5.32811e-05
0.000153112
-8.59262e-05
0.000189452
-0.000122288
0.000214324
-0.000160861
0.000229439
-0.000200495
0.00023633
-0.000240297
0.000236231
-0.000279539
0.000230021
-0.000317574
0.000218217
-0.000353754
0.000201018
-0.000387368
0.000178376
-0.000417588
0.000150099
-0.000443431
0.000115984
-0.000463748
7.59566e-05
-0.000477244
3.02446e-05
-0.000482549
-2.04587e-05
-0.000478311
-7.4834e-05
-0.0004634
-0.000130768
-0.000437119
-0.000185332
-0.000399476
-0.000234825
-0.000351438
-0.000275005
-0.000295122
-0.000301542
-0.000233833
-0.000310672
-0.000171866
-0.000299993
-0.00011404
-0.000269231
-6.5002e-05
-0.000220729
-2.8479e-05
-0.000159412
-6.68777e-06
-9.21378e-05
-2.69694e-05
-8.10208e-06
4.76165e-05
-2.83568e-05
0.000123843
-5.73932e-05
0.000182149
-9.25076e-05
0.000224567
-0.000131606
0.000253422
-0.000173113
0.000270947
-0.000215872
0.000279089
-0.000259024
0.000279384
-0.000301909
0.000272905
-0.000343954
0.000260262
-0.000384585
0.000241649
-0.000423138
0.000216929
-0.000458786
0.000185748
-0.000490483
0.000147681
-0.000516928
0.000102401
-0.000536566
4.98834e-05
-0.00054766
-9.36516e-06
-0.000548366
-7.41283e-05
-0.000536983
-0.00014215
-0.000512205
-0.000210111
-0.000473471
-0.000273558
-0.000421346
-0.000327129
-0.000357845
-0.000365043
-0.0002866
-0.000381916
-0.000212746
-0.000373848
-0.000142399
-0.000339578
-8.17633e-05
-0.000281365
-3.60405e-05
-0.000205135
-8.51296e-06
-0.000119665
-3.54823e-05
-8.65748e-06
5.6274e-05
-3.02985e-05
0.000145484
-6.12973e-05
0.000213147
-9.87511e-05
0.00026202
-0.000140436
0.000295107
-0.000184722
0.000315232
-0.000230454
0.000324821
-0.000276833
0.000325763
-0.000323287
0.000319359
-0.000369352
0.000306327
-0.000414557
0.000286855
-0.000458323
0.000260694
-0.00049986
0.000227285
-0.000538093
0.000185913
-0.000571596
0.000135905
-0.000598575
7.68627e-05
-0.000616904
8.9637e-06
-0.000624227
-6.68051e-05
-0.000618178
-0.0001482
-0.000596693
-0.000231595
-0.000558443
-0.000311808
-0.000503331
-0.000382242
-0.000432998
-0.000435376
-0.000351201
-0.000463713
-0.000263859
-0.00046119
-0.00017858
-0.000424857
-0.000103563
-0.000356382
-4.60695e-05
-0.000262628
-1.10008e-05
-0.000154734
-4.64832e-05
-9.18284e-06
6.54568e-05
-3.21414e-05
0.000168443
-6.49959e-05
0.000246002
-0.000104639
0.000301663
-0.000148716
0.000339184
-0.000195541
0.000362058
-0.000243979
0.000373259
-0.000293301
0.000375086
-0.000343049
0.000369107
-0.000392891
0.00035617
-0.000442497
0.00033646
-0.000491406
0.000309604
-0.000538916
0.000274795
-0.000583972
0.000230969
-0.000625081
0.000177013
-0.000660259
0.000112041
-0.00068703
3.57351e-05
-0.000702552
-5.12833e-05
-0.000703754
-0.000146998
-0.000687719
-0.000247631
-0.000652146
-0.000347381
-0.000595978
-0.00043841
-0.000520107
-0.000511246
-0.000428031
-0.000555789
-0.000326212
-0.000563009
-0.000223799
-0.00052727
-0.000131425
-0.000448756
-5.91659e-05
-0.000334888
-1.43365e-05
-0.000199563
-6.08196e-05
-9.6814e-06
7.51382e-05
-3.38971e-05
0.000192658
-6.84995e-05
0.000280604
-0.000110156
0.00034332
-0.000156367
0.000385394
-0.000205388
0.000411079
-0.000256103
0.000423974
-0.000307869
0.000426852
-0.000360354
0.000421592
-0.000413384
0.000409199
-0.000466793
0.000389869
-0.000520283
0.000363094
-0.000573288
0.0003278
-0.000624839
0.000282521
-0.000673458
0.000225632
-0.000717071
0.000155654
-0.000752972
7.16361e-05
-0.000777891
-2.63641e-05
-0.000788133
-0.000136756
-0.000779904
-0.00025586
-0.000749792
-0.000377493
-0.000695479
-0.000492723
-0.000616636
-0.00059009
-0.000515924
-0.000656501
-0.000399823
-0.00067911
-0.000278804
-0.00064829
-0.000166258
-0.000561301
-7.59494e-05
-0.000425196
-1.873e-05
-0.000256783
-7.95496e-05
-1.01637e-05
8.53019e-05
-3.55985e-05
0.000218093
-7.18513e-05
0.000316857
-0.000115323
0.000386792
-0.000163339
0.00043341
-0.000214083
0.000461823
-0.000266455
0.000476346
-0.000319898
0.000480295
-0.000374219
0.000475913
-0.000429412
0.000464392
-0.000485499
0.000445956
-0.000542377
0.000419972
-0.000599665
0.000385088
-0.000656564
0.000339419
-0.000711716
0.000280784
-0.000763095
0.000207033
-0.000807938
0.000116479
-0.000842734
8.43251e-06
-0.000863333
-0.000116157
-0.000865168
-0.000254025
-0.000843695
-0.000398966
-0.000795101
-0.000541318
-0.000717339
-0.000667852
-0.00061148
-0.00076236
-0.000483154
-0.000807436
-0.000343502
-0.000787942
-0.000208672
-0.000696131
-9.7017e-05
-0.000536852
-2.44182e-05
-0.000329382
-0.000103968
-1.06546e-05
9.59565e-05
-3.73197e-05
0.000244758
-7.51609e-05
0.000354698
-0.000120241
0.000431872
-0.000169663
0.000482832
-0.000221514
0.000513674
-0.000274703
0.000529536
-0.000328759
0.000534351
-0.000383625
0.000530778
-0.000439468
0.000520235
-0.00049651
0.000502998
-0.000554865
0.000478327
-0.000614389
0.000444612
-0.000674526
0.000399556
-0.000734165
0.000340423
-0.000791507
0.000264375
-0.000843951
0.000168924
-0.000888029
5.25104e-05
-0.000919412
-8.47735e-05
-0.000933035
-0.000240403
-0.000923365
-0.000408635
-0.000885025
-0.000579658
-0.00081384
-0.000739037
-0.000708457
-0.000867743
-0.000572462
-0.000943432
-0.000416444
-0.00094396
-0.00025871
-0.000853864
-0.00012286
-0.000672702
-3.166e-05
-0.000420582
-0.000135628
-1.12029e-05
0.000107159
-3.9203e-05
0.000272758
-7.86463e-05
0.000394142
-0.000125143
0.000478368
-0.000175509
0.000533198
-0.000227706
0.000565871
-0.000280643
0.000582473
-0.000333932
0.00058764
-0.00038765
0.000584497
-0.000442135
0.00057472
-0.000497807
0.00055867
-0.000555012
0.000535532
-0.000613876
0.000503476
-0.000674165
0.000459845
-0.000735137
0.000401396
-0.000795407
0.000324644
-0.000852799
0.000226316
-0.000904223
0.000103934
-0.000945525
-4.34721e-05
-0.000971613
-0.000214314
-0.000976301
-0.000403947
-0.000952828
-0.000603132
-0.000894715
-0.00079715
-0.00079746
-0.000964998
-0.000661226
-0.00107967
-0.000494237
-0.00111095
-0.000315457
-0.00103264
-0.000153726
-0.000834433
-4.07222e-05
-0.000533585
-0.00017635
-1.18956e-05
0.000119055
-4.14963e-05
0.000302359
-8.26888e-05
0.000435334
-0.00013046
0.000526139
-0.000181256
0.000583993
-0.000232889
0.000617504
-0.000284272
0.000633856
-0.000335106
0.000638475
-0.000385606
0.000634997
-0.000436275
0.000625389
-0.000487725
0.00061012
-0.000540537
0.000588344
-0.000595133
0.000558072
-0.000651656
0.000516367
-0.000709843
0.000459583
-0.000768891
0.000383692
-0.000827301
0.000284726
-0.000882727
0.000159361
-0.000931545
5.34556e-06
-0.000969284
-0.000176575
-0.000989576
-0.000383655
-0.000984789
-0.000607919
-0.000946354
-0.000835585
-0.000866244
-0.00104511
-0.00073993
-0.00120598
-0.000571026
-0.00127985
-0.000376584
-0.00122709
-0.000189421
-0.0010216
-5.1857e-05
-0.000671149
-0.000228207
-1.28803e-05
0.000131935
-4.46049e-05
0.000334084
-8.79011e-05
0.00047863
-0.000136887
0.000575125
-0.000187548
0.000634654
-0.000237549
0.000667506
-0.000285838
0.000682145
-0.00033224
0.000684877
-0.000377125
0.000679882
-0.000421166
0.000669429
-0.000465165
0.000654119
-0.000509935
0.000633114
-0.000556204
0.000604341
-0.000604526
0.00056469
-0.000655189
0.000510246
-0.000708095
0.000436598
-0.000762616
0.000339247
-0.000817361
0.000214105
-0.000870089
5.80737e-05
-0.00091677
-0.000129893
-0.000952003
-0.000348422
-0.000967985
-0.000591937
-0.000954722
-0.000848847
-0.000900888
-0.00109894
-0.000796493
-0.00131037
-0.000638304
-0.00143804
-0.000437922
-0.00142747
-0.00022908
-0.00123044
-6.52815e-05
-0.000834948
-0.000293489
-1.44031e-05
0.000146338
-4.91698e-05
0.00036885
-9.52141e-05
0.000524675
-0.00014545
0.000625361
-0.00019533
0.000684534
-0.000242426
0.000714602
-0.000285814
0.000725533
-0.000325523
0.000724585
-0.00036213
0.000716489
-0.000396502
0.000703801
-0.000429639
0.000687256
-0.000462585
0.00066606
-0.000496372
0.000638128
-0.000531976
0.000600294
-0.000570262
0.000548532
-0.000611899
0.000478235
-0.000657232
0.00038458
-0.000706078
0.000262952
-0.00075746
0.000109456
-0.000808929
-7.84252e-05
-0.000856319
-0.000301032
-0.000892674
-0.000555582
-0.000907711
-0.000833811
-0.000887763
-0.00111889
-0.000817522
-0.00138062
-0.00068529
-0.00157027
-0.000493248
-0.00161951
-0.000270932
-0.00145275
-8.11748e-05
-0.00102471
-0.000374663
-1.6876e-05
0.000163214
-5.61865e-05
0.000408161
-0.000105983
0.000574471
-0.000157551
0.000676928
-0.000205806
0.00073279
-0.000248399
0.000757195
-0.000284721
0.000761855
-0.000315152
0.000755016
-0.000340577
0.000741915
-0.000362113
0.000725338
-0.000380982
0.000706125
-0.000398462
0.00068354
-0.00041588
0.000655547
-0.000434616
0.00061903
-0.000456087
0.000570003
-0.000481708
0.000503856
-0.000512792
0.000415663
-0.000550373
0.000300533
-0.000594922
0.000154005
-0.000645758
-2.75893e-05
-0.000700568
-0.000246222
-0.00075416
-0.00050199
-0.000797346
-0.000790624
-0.000815786
-0.00110045
-0.000790148
-0.00140625
-0.000699934
-0.00166049
-0.000534407
-0.00178504
-0.000312109
-0.00167505
-9.9707e-05
-0.00123711
-0.00047437
-2.10042e-05
0.000184219
-6.71903e-05
0.000454347
-0.000122101
0.000629382
-0.000174931
0.000729759
-0.000220248
0.000778106
-0.00025614
0.000793086
-0.000282648
0.000788363
-0.000300748
0.000773116
-0.000311785
0.000752952
-0.000317217
0.00073077
-0.000318528
0.000707435
-0.000317237
0.000682249
-0.000314945
0.000653254
-0.000313384
0.000617469
-0.000314457
0.000571076
-0.000320222
0.000509622
-0.000332849
0.00042829
-0.000354478
0.000322161
-0.00038696
0.000186487
-0.000431476
1.69261e-05
-0.000487729
-0.000189968
-0.000553091
-0.000436629
-0.000620829
-0.000722885
-0.000678031
-0.00104325
-0.00070378
-0.0013805
-0.00067021
-0.00169406
-0.000551724
-0.00190352
-0.000348469
-0.00187831
-0.000121075
-0.0014645
-0.000595445
-2.80235e-05
0.000212242
-8.45223e-05
0.000510846
-0.000146043
0.000690902
-0.000199399
0.000783116
-0.000239393
0.0008181
-0.00026524
0.000818933
-0.000278162
0.000801285
-0.00028008
0.000775034
-0.000273009
0.000745881
-0.000258857
0.000716617
-0.000239416
0.000687994
-0.000216444
0.000659277
-0.00019177
0.00062858
-0.000167391
0.000593089
-0.000145593
0.000549278
-0.000128903
0.000492932
-0.000120162
0.000419549
-0.000122393
0.000324392
-0.000138626
0.000202721
-0.000171629
4.99294e-05
-0.000223239
-0.000138358
-0.000293634
-0.000366234
-0.000379615
-0.000636904
-0.000471771
-0.000951093
-0.000550868
-0.00130141
-0.000585023
-0.0016599
-0.000534368
-0.00195418
-0.00037429
-0.00203838
-0.000145413
-0.00169338
-0.000740858
-4.01349e-05
0.000252377
-0.000111631
0.000582342
-0.000180582
0.000759852
-0.000231853
0.000834387
-0.000261874
0.000848121
-0.000272167
0.000829227
-0.00026591
0.000795028
-0.000246413
0.000755537
-0.000216594
0.000716063
-0.000178911
0.000678934
-0.000135481
0.000644564
-8.82567e-05
0.000612053
-3.92144e-05
0.000579538
9.4873e-06
0.000544388
5.54662e-05
0.000503299
9.58257e-05
0.000452573
0.000127325
0.00038805
0.000146334
0.000305383
0.000148939
0.000200116
0.000131131
6.77381e-05
8.91727e-05
-9.64002e-05
2.01958e-05
-0.000297257
-7.63947e-05
-0.000540314
-0.000196499
-0.000830989
-0.000326017
-0.00117189
-0.000433919
-0.001552
-0.000470028
-0.00191807
-0.000381422
-0.00212699
-0.000172218
-0.00190258
-0.000913076
-6.12397e-05
0.000313617
-0.000153083
0.000674186
-0.000227282
0.000834051
-0.000269346
0.000876452
-0.000280208
0.000858982
-0.000265545
0.000814564
-0.00023148
0.000760963
-0.000183173
0.00070723
-0.000124601
0.00065749
-5.87668e-05
0.0006131
1.19788e-05
0.000573818
8.56281e-05
0.000538404
0.000160248
0.000504918
0.000233759
0.000470876
0.000303726
0.000433332
0.00036731
0.000388989
0.000421115
0.000334244
0.000461204
0.000265294
0.000483118
0.000178202
0.000481953
6.89024e-05
0.000452547
-6.69936e-05
0.000389801
-0.000234512
0.000289301
-0.000439813
0.000149605
-0.000691294
-2.29003e-05
-0.000999383
-0.000205013
-0.00136989
-0.000343084
-0.00178
-0.000357097
-0.00211298
-0.000198597
-0.00206108
-0.00111167
-9.78106e-05
0.000411427
-0.000212743
0.000789119
-0.000280927
0.000902235
-0.000296744
0.000892269
-0.000270893
0.000833131
-0.000215648
0.000759319
-0.000140972
0.000686287
-5.40006e-05
0.000620259
4.04428e-05
0.000563047
0.000139141
0.000514402
0.000239865
0.000473093
0.000340897
0.000437372
0.000440658
0.000405157
0.000537427
0.000374107
0.000629122
0.000341638
0.000713145
0.000304966
0.000786266
0.000261123
0.000844555
0.000207006
0.000883344
0.000139412
0.0008972
5.50465e-05
0.000880016
-4.98101e-05
0.000825087
-0.000179583
0.00072511
-0.000339836
0.000573336
-0.000539519
0.000366994
-0.000793042
0.000117735
-0.00112063
-0.000129659
-0.0015326
-0.000279289
-0.00196335
-0.000216058
-0.00212431
-0.00132773
-0.000158196
0.000569624
-0.000283216
0.000914138
-0.000310798
0.000929817
-0.000264196
0.000845667
-0.000171499
0.000740434
-5.31657e-05
0.000640986
7.76222e-05
0.000555499
0.000212981
0.0004849
0.000348477
0.000427551
0.000481737
0.000381143
0.000611494
0.000343337
0.000736965
0.000311901
0.000857429
0.000284692
0.000971931
0.000259605
0.00107905
0.000234516
0.00117676
0.000207262
0.00126226
0.00017562
0.00133195
0.000137321
0.00138128
9.00729e-05
0.00140468
3.16531e-05
0.00139569
-4.0817e-05
0.00134664
-0.00013054
0.00124844
-0.00024163
0.00109057
-0.000381656
0.000862209
-0.000564678
0.000558792
-0.000817212
0.000204411
-0.00117822
-0.000107417
-0.00165152
-0.00020521
-0.00202652
-0.00153294
-0.000240423
0.000810047
-0.000298425
0.000972139
-0.000202753
0.000834145
-3.24177e-05
0.000675331
0.000164593
0.000543423
0.000365335
0.000440244
0.000559192
0.000361642
0.000741821
0.000302271
0.000912126
0.000257245
0.00107053
0.000222744
0.00121797
0.000195889
0.00135543
0.000174442
0.00148356
0.000156564
0.00160251
0.000140656
0.00171177
0.000125256
0.00181007
0.000108966
0.00189526
9.04246e-05
0.0019643
6.8281e-05
0.00201315
4.12187e-05
0.0020366
8.20359e-06
0.0020286
-3.28081e-05
0.00198117
-8.31157e-05
0.00188487
-0.000145325
0.00172742
-0.000224212
0.00149259
-0.000329849
0.00116057
-0.000485192
0.000722095
-0.000739745
0.00023669
-0.00116611
-8.92037e-05
-0.00170063
-0.00162215
-0.000189286
0.000999333
2.9682e-05
0.000753171
0.000386945
0.000476882
0.00072646
0.000335816
0.00102606
0.000243825
0.00128583
0.000180472
0.00151003
0.000137441
0.00170416
0.000108143
0.00187365
8.77596e-05
0.00202318
7.32076e-05
0.00215654
6.25337e-05
0.00227656
5.442e-05
0.00238521
4.79115e-05
0.0024836
4.22656e-05
0.00257199
3.68633e-05
0.0026498
3.11579e-05
0.00271558
2.46501e-05
0.00276697
1.68925e-05
0.00280065
7.53795e-06
0.00281303
-4.17515e-06
0.00279864
-1.84229e-05
0.00275098
-3.54559e-05
0.00266211
-5.64583e-05
0.00252086
-8.29613e-05
0.00231
-0.000118985
0.00200042
-0.000175615
0.00154629
-0.00028561
0.000922753
-0.000542582
0.000261662
-0.00103954
-0.00136048
0.000999333
0.0017525
0.00222939
0.0025652
0.00280903
0.0029895
0.00312694
0.00323508
0.00332284
0.00339605
0.00345858
0.003513
0.00356092
0.00360318
0.00364004
0.0036712
0.00369585
0.00371275
0.00372028
0.00371611
0.00369769
0.00366223
0.00360577
0.00352281
0.00340382
0.00322821
0.0029426
0.00240002
0.00136048
)
;

boundaryField
{
    movingWall
    {
        type            calculated;
        value           uniform 0;
    }
    fixedWalls
    {
        type            calculated;
        value           uniform 0;
    }
    frontAndBack
    {
        type            empty;
        value           nonuniform 0();
    }
}


// ************************************************************************* //
