/*--------------------------------*- C++ -*----------------------------------*\
  =========                 |
  \\      /  F ield         | OpenFOAM: The Open Source CFD Toolbox
   \\    /   O peration     | Website:  https://openfoam.org
    \\  /    A nd           | Version:  7
     \\/     M anipulation  |
\*---------------------------------------------------------------------------*/
FoamFile
{
    version     2.0;
    format      ascii;
    class       volVectorField;
    location    "2.6";
    object      U;
}
// * * * * * * * * * * * * * * * * * * * * * * * * * * * * * * * * * * * * * //

dimensions      [0 1 -1 0 0 0 0];

internalField   nonuniform List<vector> 
900
(
(9.08529e-05 -9.01085e-05 0)
(0.000105329 -4.86631e-06 0)
(-0.000219318 0.000112618 0)
(-0.000845817 0.000208956 0)
(-0.00169592 0.000274035 0)
(-0.00269682 0.000311968 0)
(-0.00378259 0.000329546 0)
(-0.00490001 0.000332454 0)
(-0.00600689 0.000324398 0)
(-0.00706813 0.000307271 0)
(-0.0080521 0.000281604 0)
(-0.00892807 0.000247051 0)
(-0.00966476 0.00020288 0)
(-0.0102301 0.000148455 0)
(-0.0105924 8.37113e-05 0)
(-0.0107225 9.54937e-06 0)
(-0.0105968 -7.20803e-05 0)
(-0.0102015 -0.000157326 0)
(-0.00953656 -0.000241054 0)
(-0.00861941 -0.000316925 0)
(-0.00748708 -0.000377916 0)
(-0.00619685 -0.000417128 0)
(-0.00482419 -0.000428697 0)
(-0.00345815 -0.000408662 0)
(-0.00219447 -0.000355589 0)
(-0.00112643 -0.000271003 0)
(-0.00033296 -0.000160641 0)
(0.000125952 -3.83416e-05 0)
(0.00024272 7.4599e-05 0)
(0.000110052 0.000108736 0)
(8.61112e-06 -0.000108398 0)
(-0.000373342 0.000373145 0)
(-0.00149929 0.000944038 0)
(-0.00324894 0.00142447 0)
(-0.00548635 0.00177198 0)
(-0.00806736 0.00199091 0)
(-0.0108507 0.00210048 0)
(-0.0137118 0.00212082 0)
(-0.0165435 0.00206729 0)
(-0.0192521 0.00194928 0)
(-0.021752 0.00177101 0)
(-0.0239612 0.0015332 0)
(-0.0257996 0.00123517 0)
(-0.0271883 0.000877106 0)
(-0.028053 0.000462249 0)
(-0.0283288 -1.1249e-06 0)
(-0.0279664 -0.000498107 0)
(-0.0269409 -0.00100666 0)
(-0.0252606 -0.00149773 0)
(-0.0229737 -0.00193689 0)
(-0.0201722 -0.0022872 0)
(-0.0169925 -0.00251332 0)
(-0.0136099 -0.00258616 0)
(-0.0102281 -0.00248751 0)
(-0.00706277 -0.00221394 0)
(-0.0043204 -0.00177989 0)
(-0.0021737 -0.00122206 0)
(-0.000734663 -0.000608224 0)
(-2.01612e-05 -4.4523e-05 0)
(8.05417e-05 0.000242049 0)
(-0.000114054 0.00021639 0)
(-0.000985157 0.00150773 0)
(-0.00296934 0.00287435 0)
(-0.00579052 0.00402473 0)
(-0.00925595 0.00487638 0)
(-0.0131792 0.00542676 0)
(-0.0173717 0.00570638 0)
(-0.0216609 0.0057531 0)
(-0.0258936 0.00559893 0)
(-0.0299317 0.00526548 0)
(-0.0336478 0.00476439 0)
(-0.0369203 0.00410041 0)
(-0.0396311 0.0032758 0)
(-0.0416668 0.00229552 0)
(-0.042922 0.00117229 0)
(-0.0433065 -6.8867e-05 0)
(-0.0427542 -0.00138698 0)
(-0.0412338 -0.00272445 0)
(-0.0387608 -0.00400741 0)
(-0.0354054 -0.00514993 0)
(-0.0312988 -0.00606113 0)
(-0.0266329 -0.00665494 0)
(-0.0216535 -0.00686156 0)
(-0.0166447 -0.00663895 0)
(-0.0119065 -0.00598288 0)
(-0.00772596 -0.00493508 0)
(-0.00434284 -0.00359093 0)
(-0.0019109 -0.00210903 0)
(-0.00047664 -0.000726358 0)
(-3.99965e-06 0.000164202 0)
(-0.000228638 0.000881485 0)
(-0.00157541 0.00335822 0)
(-0.00439708 0.00575202 0)
(-0.00823497 0.00773175 0)
(-0.0128241 0.00919608 0)
(-0.0179392 0.0101438 0)
(-0.0233559 0.0106196 0)
(-0.0288677 0.0106799 0)
(-0.0342891 0.0103744 0)
(-0.039451 0.00973826 0)
(-0.0441951 0.00879185 0)
(-0.0483701 0.00754555 0)
(-0.0518293 0.00600666 0)
(-0.054432 0.00418778 0)
(-0.0560477 0.0021153 0)
(-0.0565646 -0.000163127 0)
(-0.0559 -0.00257342 0)
(-0.0540134 -0.00501178 0)
(-0.05092 -0.00734748 0)
(-0.0467018 -0.00942935 0)
(-0.0415149 -0.011098 0)
(-0.0355912 -0.0122026 0)
(-0.02923 -0.012621 0)
(-0.0227809 -0.0122799 0)
(-0.0166159 -0.0111733 0)
(-0.0110945 -0.00937605 0)
(-0.00652147 -0.00705408 0)
(-0.00309998 -0.00447125 0)
(-0.000926546 -0.00199837 0)
(-7.92465e-05 -0.000170991 0)
(-0.000325363 0.00184825 0)
(-0.00210669 0.00587973 0)
(-0.00571502 0.0095169 0)
(-0.0105058 0.0124529 0)
(-0.0161349 0.0146017 0)
(-0.0223364 0.0159808 0)
(-0.0288543 0.0166568 0)
(-0.0354564 0.0167084 0)
(-0.0419348 0.016204 0)
(-0.0480989 0.0151926 0)
(-0.0537694 0.0137036 0)
(-0.0587733 0.0117533 0)
(-0.0629416 0.00935431 0)
(-0.0661106 0.00652776 0)
(-0.0681266 0.00331511 0)
(-0.0688548 -0.000210734 0)
(-0.068191 -0.00393771 0)
(-0.0660764 -0.00771014 0)
(-0.0625152 -0.0113317 0)
(-0.0575875 -0.0145745 0)
(-0.0514612 -0.0171974 0)
(-0.0443958 -0.0189703 0)
(-0.0367364 -0.0197044 0)
(-0.0288948 -0.0192846 0)
(-0.021318 -0.017697 0)
(-0.0144467 -0.0150504 0)
(-0.00866377 -0.0115869 0)
(-0.00423865 -0.00768357 0)
(-0.00133391 -0.00384616 0)
(-0.000138813 -0.000737706 0)
(-0.000406566 0.00308303 0)
(-0.00257846 0.0090207 0)
(-0.00691346 0.0141161 0)
(-0.0125921 0.0181312 0)
(-0.0191908 0.0210279 0)
(-0.0264018 0.0228635 0)
(-0.0339399 0.0237385 0)
(-0.0415523 0.0237597 0)
(-0.0490156 0.0230169 0)
(-0.056126 0.0215738 0)
(-0.0626904 0.0194683 0)
(-0.0685209 0.0167212 0)
(-0.0734308 0.0133489 0)
(-0.0772355 0.00937903 0)
(-0.0797563 0.00486628 0)
(-0.0808306 -9.21593e-05 0)
(-0.0803234 -0.00534433 0)
(-0.0781456 -0.0106804 0)
(-0.074274 -0.0158311 0)
(-0.0687707 -0.0204808 0)
(-0.0617996 -0.0242903 0)
(-0.0536371 -0.026931 0)
(-0.0446695 -0.0281276 0)
(-0.0353755 -0.0277044 0)
(-0.0262909 -0.025627 0)
(-0.0179585 -0.0220335 0)
(-0.0108644 -0.0172472 0)
(-0.00536704 -0.0117689 0)
(-0.00170783 -0.0062516 0)
(-0.000181901 -0.00149665 0)
(-0.000476647 0.00455432 0)
(-0.00300125 0.0127265 0)
(-0.00800617 0.0194888 0)
(-0.0145129 0.0247045 0)
(-0.0220224 0.0284121 0)
(-0.0301863 0.0307297 0)
(-0.0386923 0.0318058 0)
(-0.0472716 0.0317835 0)
(-0.0556914 0.0307782 0)
(-0.063741 0.028869 0)
(-0.0712205 0.0261016 0)
(-0.0779324 0.0224984 0)
(-0.0836761 0.0180754 0)
(-0.0882467 0.0128616 0)
(-0.091438 0.00691975 0)
(-0.0930505 0.000366277 0)
(-0.0929077 -0.00661172 0)
(-0.090874 -0.0137488 0)
(-0.0868782 -0.0206977 0)
(-0.080943 -0.0270432 0)
(-0.0732094 -0.0323291 0)
(-0.0639565 -0.0361023 0)
(-0.0536075 -0.037971 0)
(-0.0427156 -0.0376696 0)
(-0.0319261 -0.0351209 0)
(-0.0219156 -0.030482 0)
(-0.0133095 -0.0241615 0)
(-0.00658766 -0.016803 0)
(-0.00208934 -0.00923502 0)
(-0.000216742 -0.00243662 0)
(-0.000539256 0.00623801 0)
(-0.00338684 0.0169501 0)
(-0.00901345 0.0255803 0)
(-0.016297 0.0321177 0)
(-0.024669 0.0367023 0)
(-0.0337433 0.0395336 0)
(-0.0431843 0.0408228 0)
(-0.0527115 0.0407588 0)
(-0.0620884 0.0394877 0)
(-0.0711041 0.0371057 0)
(-0.079558 0.0336641 0)
(-0.0872488 0.0291831 0)
(-0.0939653 0.0236716 0)
(-0.0994829 0.0171513 0)
(-0.103564 0.00968337 0)
(-0.105966 0.00139356 0)
(-0.106455 -0.00750508 0)
(-0.104829 -0.0166949 0)
(-0.100945 -0.0257487 0)
(-0.09476 -0.0341396 0)
(-0.0863661 -0.0412714 0)
(-0.0760247 -0.0465329 0)
(-0.0641865 -0.0493732 0)
(-0.0514856 -0.0493932 0)
(-0.0387011 -0.0464364 0)
(-0.0266839 -0.0406584 0)
(-0.0162485 -0.0325571 0)
(-0.00804201 -0.0229464 0)
(-0.00253435 -0.0128771 0)
(-0.000253583 -0.00357034 0)
(-0.000596805 0.00811674 0)
(-0.0037446 0.0216546 0)
(-0.00995362 0.0323458 0)
(-0.0179712 0.0403259 0)
(-0.0271655 0.0458586 0)
(-0.0371169 0.0492441 0)
(-0.0474705 0.0507717 0)
(-0.0579396 0.0506866 0)
(-0.06829 0.0491713 0)
(-0.0783171 0.0463408 0)
(-0.0878269 0.0422504 0)
(-0.0966202 0.0369121 0)
(-0.10448 0.0303186 0)
(-0.111163 0.0224726 0)
(-0.116399 0.0134186 0)
(-0.119893 0.00327632 0)
(-0.12134 -0.00772855 0)
(-0.120449 -0.0192378 0)
(-0.116981 -0.0307459 0)
(-0.110793 -0.0416045 0)
(-0.101894 -0.0510519 0)
(-0.0904973 -0.0582761 0)
(-0.0770619 -0.0625111 0)
(-0.0623018 -0.0631612 0)
(-0.0471532 -0.0599331 0)
(-0.0326892 -0.0529455 0)
(-0.0199775 -0.0427834 0)
(-0.00989887 -0.0304667 0)
(-0.0031075 -0.0173356 0)
(-0.00030306 -0.00494265 0)
(-0.000650658 0.0101777 0)
(-0.00408078 0.0268106 0)
(-0.01084 0.0397484 0)
(-0.0195549 0.0492912 0)
(-0.0295359 0.0558473 0)
(-0.040334 0.0598366 0)
(-0.0515802 0.0616419 0)
(-0.0629865 0.0615759 0)
(-0.0743279 0.0598644 0)
(-0.0854136 0.0566436 0)
(-0.0960637 0.0519702 0)
(-0.106089 0.0458415 0)
(-0.115271 0.0382231 0)
(-0.123355 0.0290828 0)
(-0.130035 0.0184296 0)
(-0.134958 0.00635513 0)
(-0.137739 -0.0069235 0)
(-0.137979 -0.0210255 0)
(-0.135308 -0.035376 0)
(-0.129449 -0.0492 0)
(-0.120285 -0.0615455 0)
(-0.107939 -0.071351 0)
(-0.092844 -0.077564 0)
(-0.0757772 -0.0793057 0)
(-0.0578463 -0.0760605 0)
(-0.0403964 -0.0678483 0)
(-0.0248291 -0.0553246 0)
(-0.0123498 -0.0397555 0)
(-0.00388119 -0.0228578 0)
(-0.000376395 -0.00663447 0)
(-0.000701417 0.0124107 0)
(-0.00439886 0.0323941 0)
(-0.0116803 0.0477562 0)
(-0.0210588 0.0589794 0)
(-0.0317909 0.0666361 0)
(-0.0434019 0.0712852 0)
(-0.0555129 0.073419 0)
(-0.0678407 0.0734303 0)
(-0.0801758 0.0715958 0)
(-0.0923494 0.0680756 0)
(-0.104204 0.0629262 0)
(-0.115569 0.0561229 0)
(-0.126235 0.0475914 0)
(-0.135938 0.0372466 0)
(-0.144344 0.0250382 0)
(-0.151043 0.0110024 0)
(-0.155559 -0.00468199 0)
(-0.157368 -0.021637 0)
(-0.155949 -0.0392391 0)
(-0.150849 -0.0565903 0)
(-0.141778 -0.0725283 0)
(-0.128712 -0.0856927 0)
(-0.112 -0.0946609 0)
(-0.0924449 -0.098159 0)
(-0.0713195 -0.0953264 0)
(-0.0502825 -0.0859812 0)
(-0.031161 -0.0708034 0)
(-0.0156066 -0.0513395 0)
(-0.00493625 -0.0297915 0)
(-0.000485932 -0.0087665 0)
(-0.000749197 0.0148067 0)
(-0.00470035 0.0383838 0)
(-0.0124782 0.0563396 0)
(-0.0224863 0.0693555 0)
(-0.0339291 0.0781878 0)
(-0.0463083 0.0835539 0)
(-0.0592388 0.0860736 0)
(-0.0724472 0.0862327 0)
(-0.0857462 0.084368 0)
(-0.0989963 0.0806676 0)
(-0.112072 0.0751865 0)
(-0.12483 0.067871 0)
(-0.137082 0.0585941 0)
(-0.148566 0.0471978 0)
(-0.158928 0.0335461 0)
(-0.167706 0.0175872 0)
(-0.174336 -0.00057503 0)
(-0.178166 -0.0206018 0)
(-0.178503 -0.0418529 0)
(-0.174688 -0.0633248 0)
(-0.166206 -0.0836391 0)
(-0.152818 -0.101094 0)
(-0.134713 -0.113809 0)
(-0.112647 -0.119981 0)
(-0.0880101 -0.118237 0)
(-0.0627926 -0.108032 0)
(-0.0393386 -0.0899694 0)
(-0.0198988 -0.0658861 0)
(-0.00636317 -0.0385942 0)
(-0.000645899 -0.0115037 0)
(-0.000793941 0.0173569 0)
(-0.00498613 0.0447594 0)
(-0.0132355 0.0654686 0)
(-0.0238367 0.0803801 0)
(-0.0359407 0.0904543 0)
(-0.0490258 0.0965885 0)
(-0.0627025 0.0995485 0)
(-0.0767113 0.0999288 0)
(-0.0908924 0.0981363 0)
(-0.105143 0.0943929 0)
(-0.119378 0.0887518 0)
(-0.133493 0.0811252 0)
(-0.14733 0.0713207 0)
(-0.160644 0.0590883 0)
(-0.173077 0.0441793 0)
(-0.184132 0.0264189 0)
(-0.19317 0.00579483 0)
(-0.199419 -0.0174424 0)
(-0.202016 -0.0426777 0)
(-0.200077 -0.0688391 0)
(-0.19282 -0.0943481 0)
(-0.179722 -0.117141 0)
(-0.160712 -0.134802 0)
(-0.13638 -0.144854 0)
(-0.10814 -0.145199 0)
(-0.0782725 -0.134689 0)
(-0.0497066 -0.113663 0)
(-0.0254672 -0.0841966 0)
(-0.00826373 -0.0498407 0)
(-0.000873484 -0.015061 0)
(-0.000835825 0.0200529 0)
(-0.00525832 0.0515019 0)
(-0.0139566 0.0751124 0)
(-0.0251115 0.0920069 0)
(-0.0378154 0.103372 0)
(-0.0515203 0.110308 0)
(-0.0658324 0.113747 0)
(-0.080508 0.11441 0)
(-0.095419 0.112787 0)
(-0.110505 0.109139 0)
(-0.125727 0.10352 0)
(-0.141029 0.0958052 0)
(-0.156298 0.0857268 0)
(-0.171323 0.0729265 0)
(-0.185761 0.0570182 0)
(-0.199108 0.0376711 0)
(-0.210679 0.0147132 0)
(-0.219611 -0.0117449 0)
(-0.224893 -0.0411705 0)
(-0.225426 -0.0724818 0)
(-0.220143 -0.103947 0)
(-0.208171 -0.133157 0)
(-0.189072 -0.15712 0)
(-0.163114 -0.172548 0)
(-0.131564 -0.176376 0)
(-0.0968677 -0.166524 0)
(-0.0625399 -0.142742 0)
(-0.0325516 -0.107182 0)
(-0.0107521 -0.0642264 0)
(-0.00119035 -0.01971 0)
(-0.000875814 0.022888 0)
(-0.00552298 0.0585963 0)
(-0.014654 0.0852405 0)
(-0.0263228 0.104182 0)
(-0.0395528 0.116857 0)
(-0.0537635 0.124595 0)
(-0.0685545 0.128521 0)
(-0.0836984 0.129499 0)
(-0.0991003 0.128115 0)
(-0.114744 0.12468 0)
(-0.130645 0.119252 0)
(-0.146801 0.111668 0)
(-0.163155 0.101581 0)
(-0.179547 0.0885138 0)
(-0.195679 0.0719243 0)
(-0.211072 0.0512987 0)
(-0.225042 0.0262675 0)
(-0.236688 -0.00324861 0)
(-0.244902 -0.0368684 0)
(-0.248414 -0.0735777 0)
(-0.245886 -0.111577 0)
(-0.236068 -0.148181 0)
(-0.218049 -0.17984 0)
(-0.191597 -0.202372 0)
(-0.157584 -0.211505 0)
(-0.118383 -0.203812 0)
(-0.0779663 -0.177961 0)
(-0.0413659 -0.13581 0)
(-0.0139544 -0.0825615 0)
(-0.00162451 -0.0257869 0)
(-0.000916439 0.0258601 0)
(-0.00579368 0.0660365 0)
(-0.0153558 0.0958282 0)
(-0.0275043 0.116846 0)
(-0.0411761 0.130806 0)
(-0.0557487 0.139297 0)
(-0.0708112 0.143664 0)
(-0.0861511 0.144937 0)
(-0.101707 0.14381 0)
(-0.117509 0.140656 0)
(-0.133624 0.135544 0)
(-0.150113 0.128275 0)
(-0.166981 0.118424 0)
(-0.184141 0.105392 0)
(-0.201363 0.088476 0)
(-0.218238 0.0669627 0)
(-0.234143 0.0402589 0)
(-0.248208 0.00805167 0)
(-0.259311 -0.0294966 0)
(-0.266094 -0.0715298 0)
(-0.267014 -0.116306 0)
(-0.260461 -0.160996 0)
(-0.244991 -0.2016 0)
(-0.219697 -0.233053 0)
(-0.18476 -0.249696 0)
(-0.142103 -0.246308 0)
(-0.0958499 -0.219781 0)
(-0.0520521 -0.171002 0)
(-0.0180032 -0.105749 0)
(-0.00221247 -0.0337006 0)
(-0.000962936 0.0289768 0)
(-0.00609656 0.0738358 0)
(-0.0161165 0.106866 0)
(-0.0287256 0.129941 0)
(-0.0427488 0.145094 0)
(-0.0575097 0.154217 0)
(-0.0725824 0.158904 0)
(-0.0877687 0.160373 0)
(-0.10304 0.159447 0)
(-0.118471 0.156565 0)
(-0.134182 0.151816 0)
(-0.150293 0.144976 0)
(-0.166884 0.135548 0)
(-0.18395 0.12282 0)
(-0.20136 0.105932 0)
(-0.21882 0.0839778 0)
(-0.235827 0.05613 0)
(-0.251632 0.0218153 0)
(-0.265197 -0.0190788 0)
(-0.275198 -0.0659517 0)
(-0.280008 -0.117267 0)
(-0.277738 -0.170247 0)
(-0.266425 -0.220651 0)
(-0.244371 -0.262687 0)
(-0.210768 -0.289271 0)
(-0.166613 -0.292988 0)
(-0.115639 -0.268111 0)
(-0.0646074 -0.213471 0)
(-0.0230264 -0.134734 0)
(-0.00300151 -0.0439368 0)
(-0.00102504 0.0322643 0)
(-0.00647756 0.0820423 0)
(-0.0170296 0.118372 0)
(-0.0301093 0.143416 0)
(-0.0443934 0.159582 0)
(-0.0591397 0.169116 0)
(-0.0739062 0.173901 0)
(-0.0885114 0.17537 0)
(-0.102962 0.174485 0)
(-0.117375 0.171764 0)
(-0.131922 0.167324 0)
(-0.146786 0.160924 0)
(-0.162118 0.152013 0)
(-0.178009 0.139785 0)
(-0.19445 0.123245 0)
(-0.211299 0.101312 0)
(-0.228235 0.0729431 0)
(-0.244713 0.0373052 0)
(-0.259889 -0.00602067 0)
(-0.272614 -0.0568122 0)
(-0.281338 -0.113849 0)
(-0.28405 -0.174646 0)
(-0.278381 -0.235038 0)
(-0.261839 -0.288828 0)
(-0.232413 -0.327695 0)
(-0.189672 -0.341828 0)
(-0.136204 -0.322004 0)
(-0.0787843 -0.263483 0)
(-0.0291271 -0.17041 0)
(-0.00405283 -0.0570588 0)
(-0.00112007 0.0357811 0)
(-0.0070133 0.0907622 0)
(-0.0182465 0.130413 0)
(-0.0318512 0.157242 0)
(-0.0463095 0.174117 0)
(-0.0608064 0.183713 0)
(-0.0748919 0.188252 0)
(-0.0884119 0.189404 0)
(-0.101415 0.188283 0)
(-0.114067 0.185495 0)
(-0.126589 0.181189 0)
(-0.139221 0.175122 0)
(-0.152191 0.166708 0)
(-0.16569 0.155073 0)
(-0.179845 0.139127 0)
(-0.194692 0.117649 0)
(-0.210134 0.0894177 0)
(-0.225895 0.0533631 0)
(-0.241467 0.008756 0)
(-0.255971 -0.0445787 0)
(-0.268084 -0.105898 0)
(-0.27593 -0.173247 0)
(-0.276952 -0.242904 0)
(-0.268015 -0.308754 0)
(-0.245861 -0.361706 0)
(-0.208233 -0.389702 0)
(-0.155718 -0.379361 0)
(-0.093976 -0.320536 0)
(-0.0363595 -0.213471 0)
(-0.0054471 -0.0736992 0)
(-0.00127869 0.0396392 0)
(-0.00782876 0.100192 0)
(-0.0200017 0.143127 0)
(-0.0342436 0.171414 0)
(-0.0487886 0.188529 0)
(-0.0627565 0.197679 0)
(-0.0757154 0.201482 0)
(-0.087565 0.20187 0)
(-0.0984156 0.200117 0)
(-0.10849 0.196913 0)
(-0.118064 0.19245 0)
(-0.127437 0.186491 0)
(-0.136911 0.178436 0)
(-0.146778 0.16738 0)
(-0.157306 0.152175 0)
(-0.168719 0.131519 0)
(-0.181169 0.104063 0)
(-0.194692 0.0685466 0)
(-0.209138 0.0239658 0)
(-0.224043 -0.0302214 0)
(-0.238498 -0.0938653 0)
(-0.250959 -0.165723 0)
(-0.258992 -0.242884 0)
(-0.259144 -0.319903 0)
(-0.24712 -0.387672 0)
(-0.218684 -0.432514 0)
(-0.171651 -0.436743 0)
(-0.109116 -0.383008 0)
(-0.0447043 -0.264195 0)
(-0.00729601 -0.0945489 0)
(-0.00155636 0.0440409 0)
(-0.00912724 0.110667 0)
(-0.0226479 0.156748 0)
(-0.0376991 0.185956 0)
(-0.0522153 0.202616 0)
(-0.0652934 0.210615 0)
(-0.0765766 0.213033 0)
(-0.0860688 0.212082 0)
(-0.0939776 0.209191 0)
(-0.100605 0.205129 0)
(-0.106291 0.200123 0)
(-0.111399 0.193952 0)
(-0.116303 0.186025 0)
(-0.12139 0.175436 0)
(-0.127064 0.161028 0)
(-0.133731 0.141472 0)
(-0.141787 0.115356 0)
(-0.151577 0.0813036 0)
(-0.163333 0.0381029 0)
(-0.177052 -0.0151413 0)
(-0.192354 -0.0788368 0)
(-0.20823 -0.152547 0)
(-0.222706 -0.23446 0)
(-0.232467 -0.320385 0)
(-0.232651 -0.402145 0)
(-0.217273 -0.465595 0)
(-0.180927 -0.489412 0)
(-0.122621 -0.447845 0)
(-0.0540453 -0.32216 0)
(-0.00976323 -0.120349 0)
(-0.00205676 0.0493415 0)
(-0.0112427 0.12272 0)
(-0.0267052 0.171619 0)
(-0.042764 0.200891 0)
(-0.0570347 0.216098 0)
(-0.0686973 0.222005 0)
(-0.0775795 0.222224 0)
(-0.0838727 0.21925 0)
(-0.0879374 0.214643 0)
(-0.090188 0.209226 0)
(-0.0910492 0.203247 0)
(-0.0909505 0.196505 0)
(-0.0903364 0.188427 0)
(-0.0896813 0.178137 0)
(-0.0895043 0.16451 0)
(-0.0903718 0.146241 0)
(-0.0928899 0.121922 0)
(-0.0976807 0.0901343 0)
(-0.10533 0.0495383 0)
(-0.116293 -0.00102316 0)
(-0.130744 -0.062422 0)
(-0.148337 -0.135002 0)
(-0.167849 -0.218167 0)
(-0.186609 -0.30942 0)
(-0.199878 -0.40249 0)
(-0.200579 -0.484335 0)
(-0.180173 -0.531657 0)
(-0.132384 -0.510374 0)
(-0.0641318 -0.385912 0)
(-0.0130938 -0.151901 0)
(-0.00297963 0.0561635 0)
(-0.0147293 0.137169 0)
(-0.0329149 0.188176 0)
(-0.0500888 0.216153 0)
(-0.0636257 0.228499 0)
(-0.0730137 0.231107 0)
(-0.0784493 0.228166 0)
(-0.0804358 0.222419 0)
(-0.079564 0.215504 0)
(-0.0764042 0.208251 0)
(-0.0714849 0.200902 0)
(-0.0653096 0.193259 0)
(-0.058385 0.184774 0)
(-0.0512521 0.174618 0)
(-0.0445204 0.161734 0)
(-0.0388746 0.144878 0)
(-0.0350796 0.122705 0)
(-0.0339764 0.0938203 0)
(-0.0364398 0.0568466 0)
(-0.0433165 0.0104802 0)
(-0.055298 -0.0464619 0)
(-0.0727347 -0.114958 0)
(-0.0953235 -0.195526 0)
(-0.121463 -0.287531 0)
(-0.147328 -0.38737 0)
(-0.165786 -0.484864 0)
(-0.165944 -0.557344 0)
(-0.135761 -0.564334 0)
(-0.0744617 -0.452555 0)
(-0.0176289 -0.190075 0)
(-0.00471549 0.0656089 0)
(-0.0205061 0.155187 0)
(-0.0422587 0.20683 0)
(-0.0602486 0.231371 0)
(-0.0719307 0.238919 0)
(-0.0775277 0.236743 0)
(-0.0778899 0.229586 0)
(-0.0740002 0.220338 0)
(-0.06677 0.210609 0)
(-0.0569693 0.201161 0)
(-0.0452443 0.192175 0)
(-0.0321673 0.183429 0)
(-0.018288 0.174393 0)
(-0.00418002 0.16429 0)
(0.00949656 0.152141 0)
(0.0219916 0.136812 0)
(0.0324506 0.117055 0)
(0.0398867 0.091562 0)
(0.0432191 0.0589987 0)
(0.0413079 0.0180349 0)
(0.0330306 -0.0326612 0)
(0.017409 -0.0944547 0)
(-0.00618738 -0.168695 0)
(-0.0374744 -0.256396 0)
(-0.0742393 -0.356962 0)
(-0.110555 -0.464604 0)
(-0.13468 -0.560557 0)
(-0.129402 -0.602066 0)
(-0.0839464 -0.517233 0)
(-0.0237227 -0.235691 0)
(-0.00801851 0.0796534 0)
(-0.0300432 0.178322 0)
(-0.055768 0.227603 0)
(-0.0730952 0.245385 0)
(-0.0804397 0.245571 0)
(-0.0794941 0.236915 0)
(-0.0721582 0.224536 0)
(-0.0600821 0.211246 0)
(-0.0445737 0.198454 0)
(-0.0266172 0.186726 0)
(-0.00695923 0.176109 0)
(0.0137947 0.166312 0)
(0.0350967 0.156798 0)
(0.0563879 0.146837 0)
(0.0770317 0.135538 0)
(0.0962822 0.121897 0)
(0.113258 0.104801 0)
(0.126917 0.0830741 0)
(0.136063 0.055503 0)
(0.139359 0.0208377 0)
(0.135366 -0.0222446 0)
(0.122606 -0.0752265 0)
(0.0996589 -0.139887 0)
(0.0654998 -0.218387 0)
(0.0203031 -0.312835 0)
(-0.0324207 -0.422597 0)
(-0.082229 -0.536238 0)
(-0.10868 -0.614804 0)
(-0.0901214 -0.572435 0)
(-0.0313557 -0.289129 0)
(-0.0142387 0.101811 0)
(-0.0453792 0.208123 0)
(-0.0734794 0.249199 0)
(-0.0857002 0.255268 0)
(-0.0835068 0.244974 0)
(-0.0711656 0.228233 0)
(-0.0520366 0.210024 0)
(-0.0285399 0.192673 0)
(-0.00234665 0.177111 0)
(0.0254324 0.163538 0)
(0.0540531 0.151764 0)
(0.0829782 0.141372 0)
(0.111757 0.131792 0)
(0.139936 0.122333 0)
(0.166983 0.112204 0)
(0.192241 0.100535 0)
(0.214888 0.0863801 0)
(0.233909 0.0687455 0)
(0.248085 0.0465992 0)
(0.25598 0.0188661 0)
(0.255954 -0.0156284 0)
(0.246192 -0.058245 0)
(0.224682 -0.110784 0)
(0.189334 -0.175888 0)
(0.13842 -0.257461 0)
(0.072137 -0.35972 0)
(-0.00284288 -0.480878 0)
(-0.0663747 -0.593116 0)
(-0.0877145 -0.60738 0)
(-0.0391302 -0.350182 0)
(-0.0252319 0.138194 0)
(-0.0677112 0.244033 0)
(-0.090079 0.266266 0)
(-0.0861798 0.254093 0)
(-0.0646688 0.230488 0)
(-0.0333885 0.205118 0)
(0.00289817 0.181731 0)
(0.0413351 0.161493 0)
(0.0802653 0.144483 0)
(0.118787 0.130353 0)
(0.156428 0.118593 0)
(0.19293 0.108625 0)
(0.228101 0.0998377 0)
(0.261719 0.0915888 0)
(0.293459 0.0831995 0)
(0.322839 0.0739573 0)
(0.349181 0.0631154 0)
(0.37158 0.0498994 0)
(0.388885 0.0335128 0)
(0.399654 0.0131285 0)
(0.40219 -0.0121536 0)
(0.394504 -0.0433867 0)
(0.374225 -0.0820883 0)
(0.338576 -0.130707 0)
(0.284366 -0.193638 0)
(0.208592 -0.278338 0)
(0.112342 -0.392844 0)
(0.00963895 -0.527756 0)
(-0.0665822 -0.60764 0)
(-0.0422383 -0.417488 0)
(-0.0406619 0.199944 0)
(-0.0887627 0.276286 0)
(-0.0786947 0.261242 0)
(-0.0367983 0.225706 0)
(0.0178528 0.189913 0)
(0.0757494 0.159189 0)
(0.132626 0.134339 0)
(0.186612 0.114686 0)
(0.237072 0.0992273 0)
(0.283995 0.0870342 0)
(0.327623 0.0773192 0)
(0.368259 0.0694116 0)
(0.406153 0.0627195 0)
(0.441432 0.0566986 0)
(0.474054 0.0508279 0)
(0.503775 0.0445946 0)
(0.530114 0.0374861 0)
(0.552338 0.0289872 0)
(0.569445 0.0185751 0)
(0.580115 0.0057043 0)
(0.582769 -0.0101374 0)
(0.57543 -0.0296213 0)
(0.555649 -0.0537665 0)
(0.520413 -0.0843231 0)
(0.465761 -0.12486 0)
(0.386366 -0.183114 0)
(0.277217 -0.273761 0)
(0.139971 -0.410403 0)
(-0.00666342 -0.552847 0)
(-0.0262417 -0.476111 0)
(-0.0334884 0.295047 0)
(-0.0458667 0.275029 0)
(0.057128 0.201553 0)
(0.160713 0.150494 0)
(0.252628 0.114196 0)
(0.332485 0.0879011 0)
(0.401424 0.0691208 0)
(0.460917 0.0557249 0)
(0.512574 0.0460372 0)
(0.557887 0.0389003 0)
(0.598082 0.0335303 0)
(0.634108 0.0293694 0)
(0.666653 0.0259933 0)
(0.696154 0.0230576 0)
(0.722809 0.020265 0)
(0.746574 0.0173448 0)
(0.767161 0.0140431 0)
(0.784033 0.0101188 0)
(0.796386 0.00534371 0)
(0.803218 -0.000488863 0)
(0.803266 -0.00761226 0)
(0.79484 -0.016354 0)
(0.775898 -0.0271246 0)
(0.743798 -0.0407431 0)
(0.69472 -0.059103 0)
(0.622502 -0.0870814 0)
(0.517064 -0.137936 0)
(0.363727 -0.240964 0)
(0.143087 -0.407162 0)
(0.0584998 -0.458267 0)
(0.303494 0.18107 0)
(0.383575 0.144849 0)
(0.563004 0.0917983 0)
(0.689738 0.0594159 0)
(0.77257 0.0394251 0)
(0.831455 0.0265724 0)
(0.875875 0.0183665 0)
(0.910401 0.0131668 0)
(0.937985 0.00983659 0)
(0.960679 0.00765606 0)
(0.979857 0.00618707 0)
(0.996417 0.00515667 0)
(1.01094 0.00438591 0)
(1.02376 0.00374995 0)
(1.03503 0.00315509 0)
(1.04475 0.00252573 0)
(1.05275 0.00179735 0)
(1.05874 0.000915061 0)
(1.06231 -0.000165545 0)
(1.0629 -0.00144681 0)
(1.05982 -0.00300777 0)
(1.05229 -0.00493856 0)
(1.03935 -0.00729222 0)
(1.01967 -0.0102343 0)
(0.99112 -0.0142191 0)
(0.94961 -0.0205401 0)
(0.885487 -0.0330294 0)
(0.777101 -0.0641344 0)
(0.545009 -0.139685 0)
(0.382489 -0.201837 0)
)
;

boundaryField
{
    movingWall
    {
        type            fixedValue;
        value           uniform (1.2 0 0);
    }
    fixedWalls
    {
        type            noSlip;
    }
    frontAndBack
    {
        type            empty;
    }
}


// ************************************************************************* //
