/*--------------------------------*- C++ -*----------------------------------*\
  =========                 |
  \\      /  F ield         | OpenFOAM: The Open Source CFD Toolbox
   \\    /   O peration     | Website:  https://openfoam.org
    \\  /    A nd           | Version:  7
     \\/     M anipulation  |
\*---------------------------------------------------------------------------*/
FoamFile
{
    version     2.0;
    format      ascii;
    class       volScalarField;
    location    "2.5";
    object      p;
}
// * * * * * * * * * * * * * * * * * * * * * * * * * * * * * * * * * * * * * //

dimensions      [0 2 -2 0 0 0 0];

internalField   nonuniform List<scalar> 
900
(
4.11019e-08
-0.000245225
-0.000581767
-0.000887081
-0.00109928
-0.00117757
-0.00110378
-0.000872718
-0.000485385
5.41746e-05
0.000739938
0.00156364
0.00251372
0.00357386
0.00472149
0.00592678
0.00715248
0.00835417
0.00948267
0.0104872
0.0113197
0.0119407
0.0123243
0.0124632
0.0123726
0.0120918
0.0116848
0.0112323
0.0108539
0.0106545
0.000242496
-7.21062e-06
-0.00025211
-0.000456727
-0.000582474
-0.000599262
-0.000491571
-0.000252904
0.000118289
0.000620395
0.00124924
0.00199789
0.00285596
0.00380851
0.00483504
0.00590858
0.00699752
0.00806227
0.00906102
0.00995099
0.0106925
0.0112536
0.0116145
0.0117716
0.0117399
0.0115533
0.0112636
0.0109362
0.0106448
0.0104563
0.000588257
0.000230111
-2.18696e-05
-0.000198259
-0.000291561
-0.0002819
-0.00015908
8.10242e-05
0.000439699
0.000916135
0.00150744
0.00220824
0.00300983
0.00389923
0.00485815
0.00586246
0.0068818
0.00788064
0.0088197
0.00965873
0.0103603
0.0108942
0.0112418
0.0113998
0.0113819
0.011219
0.0109568
0.010652
0.0103545
0.0100829
0.000914688
0.000424757
0.000127192
-5.61377e-05
-0.000144372
-0.00012715
-4.93416e-07
0.00023596
0.000582084
0.00103724
0.00159967
0.00226577
0.00302898
0.00387862
0.00479873
0.00576723
0.00675575
0.00772955
0.00864971
0.00947546
0.0101681
0.0106956
0.0110374
0.0111884
0.0111606
0.0109828
0.0106982
0.0103606
0.0100042
0.00961257
0.00114965
0.000524527
0.000169648
-3.52836e-05
-0.000131924
-0.000117905
4.94785e-06
0.000233239
0.000565332
0.0010007
0.00153886
0.00217817
0.00291453
0.00373989
0.00464069
0.00559665
0.00658155
0.00755981
0.00849137
0.00933284
0.0100417
0.0105815
0.0109274
0.0110706
0.0110209
0.010806
0.0104698
0.0100676
0.00962582
0.00910564
0.00123201
0.000478002
6.20171e-05
-0.00017271
-0.000286666
-0.000283928
-0.000171259
4.47017e-05
0.000361086
0.000777704
0.00129553
0.00191521
0.00263543
0.00345102
0.00435125
0.00531813
0.00632531
0.00733756
0.00831194
0.00920042
0.00995418
0.0105296
0.0108947
0.011035
0.0109573
0.0106888
0.0102769
0.00978316
0.00923383
0.00857428
0.00111669
0.000242973
-0.000233985
-0.000502687
-0.000639619
-0.000654085
-0.000556915
-0.000357343
-5.90064e-05
0.000338589
0.000838215
0.00144317
0.00215531
0.00297287
0.00388838
0.00488656
0.00594091
0.00701641
0.00806631
0.00903623
0.00986861
0.0105094
0.0109163
0.0110663
0.0109609
0.0106276
0.0101191
0.00950855
0.00882786
0.00801172
0.000768096
-0.000216605
-0.00075268
-0.00105715
-0.00122067
-0.00125697
-0.00118024
-0.00100172
-0.000725337
-0.000349518
0.0001307
0.000721707
0.00142911
0.00225527
0.0031967
0.00424129
0.00536493
0.00653157
0.00769078
0.00878067
0.00973244
0.010478
0.0109602
0.0111428
0.0110195
0.0106162
0.00999323
0.0092396
0.00839818
0.00739478
0.000155454
-0.000933114
-0.00152626
-0.00186749
-0.00206057
-0.00212325
-0.00207262
-0.00192148
-0.00167371
-0.00132631
-0.000871758
-0.000300068
0.000398832
0.00123243
0.0022026
0.00330207
0.0045105
0.00579278
0.00709544
0.00834865
0.00947006
0.0103733
0.0109801
0.011235
0.0111171
0.010648
0.00989604
0.00897078
0.00793047
0.0066907
-0.000749306
-0.00193633
-0.00258506
-0.00296424
-0.00319027
-0.00328479
-0.00326767
-0.0031531
-0.00294473
-0.00263798
-0.0022225
-0.00168427
-0.00100794
-0.000179619
0.000809832
0.00196057
0.00325875
0.00467388
0.0061517
0.0076155
0.00896796
0.0100997
0.0109037
0.0112947
0.011228
0.0107132
0.00982497
0.00869797
0.00741011
0.00586279
-0.00197245
-0.00325398
-0.0039576
-0.00437666
-0.00464006
-0.00477356
-0.00479996
-0.00473498
-0.00458224
-0.00433567
-0.00398209
-0.00350318
-0.00287762
-0.00208365
-0.00110246
7.70375e-05
0.00145198
0.00300277
0.00467877
0.00640036
0.0080559
0.00950873
0.0106135
0.011241
0.0113063
0.0107937
0.00977742
0.00842093
0.00682645
0.00487529
-0.00353865
-0.00491189
-0.0056706
-0.00613235
-0.00643879
-0.00662033
-0.00670323
-0.00670532
-0.00663072
-0.00647244
-0.00621493
-0.00583573
-0.00530713
-0.00459822
-0.00367783
-0.00251922
-0.00110704
0.000555376
0.0024329
0.00445052
0.00648678
0.008376
0.00992402
0.0109386
0.0112702
0.0108536
0.00974794
0.00814538
0.00617749
0.00369865
-0.0054707
-0.00693403
-0.00774877
-0.00825671
-0.00861278
-0.00885295
-0.00900794
-0.00909873
-0.009131
-0.00909803
-0.00898297
-0.00876012
-0.00839566
-0.00784875
-0.00707336
-0.00602187
-0.0046519
-0.00294168
-0.000894502
0.0014332
0.00392142
0.00637924
0.00855534
0.0101718
0.0109796
0.0108251
0.00972255
0.00788448
0.00547555
0.00231616
-0.00778911
-0.00934233
-0.0102146
-0.0107723
-0.0111844
-0.011494
-0.0117378
-0.0119415
-0.0121141
-0.0122509
-0.0123358
-0.0123417
-0.0122301
-0.0119505
-0.0114402
-0.0106265
-0.00943224
-0.00779022
-0.00565904
-0.00305309
-6.93606e-05
0.00308976
0.00611463
0.00861944
0.010211
0.010589
0.00966984
0.00766021
0.00475515
0.000733973
-0.0105117
-0.0121569
-0.0130885
-0.0136981
-0.0141706
-0.0145582
-0.0149055
-0.0152455
-0.0155929
-0.0159477
-0.0162972
-0.016616
-0.0168638
-0.0169821
-0.0168918
-0.0164913
-0.0156601
-0.014271
-0.0122144
-0.00943248
-0.00596706
-0.00200363
0.00210317
0.0058459
0.00863897
0.00995654
0.00953103
0.00750572
0.00408507
-0.00100312
-0.0136536
-0.0153971
-0.0163892
-0.0170495
-0.0175814
-0.0180488
-0.0185079
-0.0190015
-0.0195532
-0.0201709
-0.0208493
-0.0215684
-0.0222903
-0.0229526
-0.0234616
-0.0236859
-0.0234553
-0.0225695
-0.0208247
-0.0180588
-0.0142145
-0.00941525
-0.00402544
0.00133329
0.00584394
0.00866307
0.00921502
0.00747208
0.0035876
-0.00278592
-0.0172288
-0.0190833
-0.020136
-0.0208388
-0.0214185
-0.0219552
-0.0225207
-0.0231717
-0.0239439
-0.0248568
-0.0259165
-0.0271134
-0.0284171
-0.0297663
-0.0310573
-0.0321309
-0.032765
-0.0326762
-0.031544
-0.029078
-0.025067
-0.0195142
-0.0127329
-0.00541797
0.00137369
0.00639637
0.00861066
0.00764477
0.00346907
-0.0044002
-0.0212529
-0.0232418
-0.0243519
-0.0250769
-0.0256753
-0.0262501
-0.0268946
-0.0276837
-0.0286691
-0.0298855
-0.031354
-0.03308
-0.0350457
-0.0371969
-0.0394256
-0.0415497
-0.0432973
-0.0442991
-0.0441033
-0.0422831
-0.0384158
-0.032324
-0.0241913
-0.0147041
-0.00511492
0.00288553
0.00763548
0.00817986
0.00406648
-0.0054655
-0.0257497
-0.0279124
-0.02907
-0.0297763
-0.0303366
-0.0308874
-0.0315512
-0.0324264
-0.0335841
-0.0350769
-0.0369438
-0.0392081
-0.0418689
-0.0448837
-0.0481458
-0.0514564
-0.0544999
-0.0568323
-0.0578943
-0.0570201
-0.0536419
-0.0473314
-0.0380536
-0.0263745
-0.0136339
-0.00193016
0.00634282
0.00937324
0.0059162
-0.00534705
-0.0307629
-0.0331622
-0.0343435
-0.0349563
-0.03538
-0.0358012
-0.0363817
-0.0372491
-0.0384965
-0.0401955
-0.0424036
-0.0451631
-0.0484908
-0.0523584
-0.0566635
-0.0611959
-0.065604
-0.0693741
-0.0718316
-0.0721667
-0.0695836
-0.0633971
-0.0532961
-0.0396112
-0.0236121
-0.00766717
0.00509883
0.0117777
0.00985101
-0.00303283
-0.0363784
-0.0391076
-0.0402603
-0.0406491
-0.0407768
-0.0409044
-0.0412461
-0.0419641
-0.0431738
-0.0449642
-0.0474093
-0.0505676
-0.0544717
-0.0591047
-0.0643681
-0.070042
-0.0757449
-0.0809044
-0.0847509
-0.0863431
-0.0846932
-0.0788639
-0.0682459
-0.0528534
-0.0337213
-0.0132666
0.00480589
0.0163738
0.0171312
0.00303548
-0.0427668
-0.045952
-0.0469642
-0.0469065
-0.0464904
-0.0460862
-0.0459741
-0.0463529
-0.0473571
-0.0490877
-0.0516287
-0.0550488
-0.0593891
-0.064638
-0.0706949
-0.0773264
-0.0841219
-0.0904586
-0.0954915
-0.0981789
-0.0973433
-0.0918636
-0.0808451
-0.0639658
-0.0419049
-0.0168843
0.00709725
0.0247697
0.0296118
0.0151958
-0.050268
-0.0540475
-0.0546827
-0.0538034
-0.0524706
-0.0512063
-0.0503643
-0.0501741
-0.0507788
-0.0522797
-0.0547603
-0.0582882
-0.0629021
-0.0685843
-0.075222
-0.082559
-0.0901507
-0.0973252
-0.103169
-0.10655
-0.106169
-0.100723
-0.0890963
-0.0706511
-0.0456807
-0.0160195
0.0143858
0.0393655
0.0499526
0.0369023
-0.0595692
-0.0639988
-0.0637586
-0.0614311
-0.0586364
-0.056081
-0.0541795
-0.0531692
-0.0531787
-0.0542899
-0.056568
-0.060064
-0.0647994
-0.0707347
-0.0777343
-0.0855026
-0.0935522
-0.101157
-0.107333
-0.110863
-0.110345
-0.10432
-0.0915221
-0.070983
-0.0426785
-0.00794013
0.0296344
0.0633766
0.081883
0.0732151
-0.0721007
-0.0768292
-0.074662
-0.0698562
-0.0648303
-0.0604484
-0.0571257
-0.0550546
-0.054307
-0.0549133
-0.0568955
-0.0602676
-0.0650155
-0.0710628
-0.0782277
-0.0861703
-0.0943458
-0.101963
-0.107965
-0.111044
-0.10969
-0.102309
-0.0874169
-0.0638712
-0.031283
0.00960642
0.0557241
0.100548
0.130392
0.131269
-0.0909541
-0.0942538
-0.0879182
-0.0789879
-0.070698
-0.0638706
-0.0587768
-0.0554654
-0.0538827
-0.0539595
-0.0556403
-0.0588761
-0.0635967
-0.0696712
-0.0768609
-0.0847662
-0.0927775
-0.100033
-0.105395
-0.107463
-0.104605
-0.0950626
-0.0771457
-0.0494316
-0.011124
0.0374916
0.0944625
0.154266
0.201264
0.220102
-0.122953
-0.119047
-0.103976
-0.0884064
-0.0755286
-0.0656014
-0.0584785
-0.0538934
-0.0515566
-0.0512293
-0.0527347
-0.0559319
-0.0606761
-0.0667698
-0.0739098
-0.081633
-0.0892644
-0.0958742
-0.100253
-0.100913
-0.0960848
-0.0838367
-0.0622091
-0.0293757
0.0160509
0.0746508
0.145828
0.225749
0.299293
0.351732
-0.183517
-0.154051
-0.122591
-0.0969269
-0.0778909
-0.0643639
-0.055271
-0.0497071
-0.0469765
-0.046589
-0.0482084
-0.0515867
-0.0565003
-0.0626876
-0.0697887
-0.0772872
-0.0844563
-0.0903141
-0.0935975
-0.0927586
-0.0859231
-0.0710289
-0.0457561
-0.00773396
0.0453739
0.115715
0.205103
0.312623
0.427105
0.553284
-0.315604
-0.194465
-0.134644
-0.0963379
-0.0713533
-0.0554985
-0.0459675
-0.0407922
-0.0387431
-0.0390994
-0.0414207
-0.0454034
-0.0507898
-0.0572948
-0.0645406
-0.0719961
-0.0789242
-0.0843345
-0.0869424
-0.0851358
-0.077137
-0.0607489
-0.033379
0.00787287
0.0665089
0.147103
0.256094
0.401699
0.590419
0.880138
-0.642123
-0.230269
-0.102841
-0.0610569
-0.0394
-0.0276682
-0.0225978
-0.0214425
-0.0226337
-0.0255048
-0.0297636
-0.0352341
-0.0417572
-0.0491266
-0.05703
-0.0649944
-0.0723389
-0.0781359
-0.0811888
-0.0800263
-0.0727567
-0.0571625
-0.0307968
0.00940853
0.0675512
0.150101
0.269528
0.453942
0.760289
1.35431
)
;

boundaryField
{
    movingWall
    {
        type            zeroGradient;
    }
    fixedWalls
    {
        type            zeroGradient;
    }
    frontAndBack
    {
        type            empty;
    }
}


// ************************************************************************* //
