/*--------------------------------*- C++ -*----------------------------------*\
  =========                 |
  \\      /  F ield         | OpenFOAM: The Open Source CFD Toolbox
   \\    /   O peration     | Website:  https://openfoam.org
    \\  /    A nd           | Version:  7
     \\/     M anipulation  |
\*---------------------------------------------------------------------------*/
FoamFile
{
    version     2.0;
    format      ascii;
    class       surfaceScalarField;
    location    "2.5";
    object      phi;
}
// * * * * * * * * * * * * * * * * * * * * * * * * * * * * * * * * * * * * * //

dimensions      [0 3 -1 0 0 0 0];

internalField   nonuniform List<scalar> 
1740
(
3.84597e-07
-3.84623e-07
-1.75717e-07
5.60312e-07
-1.83132e-06
1.65561e-06
-4.40017e-06
2.56884e-06
-7.61527e-06
3.2151e-06
-1.12278e-05
3.61252e-06
-1.5033e-05
3.80521e-06
-1.88684e-05
3.83542e-06
-2.26025e-05
3.73403e-06
-2.61218e-05
3.51939e-06
-2.93212e-05
3.19939e-06
-3.20962e-05
2.77494e-06
-3.43401e-05
2.24391e-06
-3.59454e-05
1.60536e-06
-3.68092e-05
8.63795e-07
-3.68422e-05
3.29537e-08
-3.59785e-05
-8.6366e-07
-3.41928e-05
-1.78576e-06
-3.15109e-05
-2.68189e-06
-2.80211e-05
-3.48983e-06
-2.38793e-05
-4.14178e-06
-1.93076e-05
-4.57167e-06
-1.45839e-05
-4.72371e-06
-1.00231e-05
-4.56077e-06
-5.95171e-06
-4.07141e-06
-2.67643e-06
-3.27528e-06
-4.44488e-07
-2.23194e-06
6.18976e-07
-1.06347e-06
6.03892e-07
1.50838e-08
6.03893e-07
-5.50696e-07
1.6607e-07
-3.23433e-06
3.24395e-06
-8.21133e-06
6.6326e-06
-1.51103e-05
9.46786e-06
-2.3441e-05
1.15457e-05
-3.27e-05
1.28716e-05
-4.24288e-05
1.3534e-05
-5.22296e-05
1.36362e-05
-6.17587e-05
1.32631e-05
-7.07102e-05
1.24709e-05
-7.88003e-05
1.12895e-05
-8.57554e-05
9.72999e-06
-9.13076e-05
7.79617e-06
-9.51991e-05
5.49684e-06
-9.71932e-05
2.85791e-06
-9.71013e-05
-5.89347e-08
-9.47868e-05
-3.17819e-06
-9.02219e-05
-6.35059e-06
-8.34947e-05
-9.40915e-06
-7.48343e-05
-1.21503e-05
-6.46199e-05
-1.43561e-05
-5.3374e-05
-1.58175e-05
-4.17371e-05
-1.63606e-05
-3.04233e-05
-1.58746e-05
-2.01591e-05
-1.43356e-05
-1.16071e-05
-1.18273e-05
-5.27595e-06
-8.56311e-06
-1.42291e-06
-4.91651e-06
7.1434e-08
-1.47926e-06
6.75325e-07
-1.7146e-06
1.88068e-06
-6.87129e-06
8.40063e-06
-1.51444e-05
1.49057e-05
-2.59836e-05
2.0307e-05
-3.87286e-05
2.42907e-05
-5.2711e-05
2.6854e-05
-6.73072e-05
2.81302e-05
-8.19577e-05
2.82867e-05
-9.61638e-05
2.74692e-05
-0.000109473
2.578e-05
-0.000121462
2.32791e-05
-0.000131728
1.99957e-05
-0.00013988
1.59483e-05
-0.00014555
1.11669e-05
-0.000148409
5.71636e-06
-0.000148189
-2.78739e-07
-0.000144724
-6.64285e-06
-0.000137981
-1.30938e-05
-0.000128096
-1.92942e-05
-0.000115401
-2.48459e-05
-0.000100432
-2.93249e-05
-8.39237e-05
-3.23256e-05
-6.67711e-05
-3.35132e-05
-4.99685e-05
-3.26772e-05
-3.45235e-05
-2.97806e-05
-2.13515e-05
-2.49993e-05
-1.116e-05
-1.87547e-05
-4.33002e-06
-1.17465e-05
-8.0806e-07
-5.00123e-06
-1.32738e-07
-2.82447e-06
4.70514e-06
-1.03695e-05
1.59457e-05
-2.18085e-05
2.63447e-05
-3.63038e-05
3.48023e-05
-5.30131e-05
4.1e-05
-7.1129e-05
4.497e-05
-8.99076e-05
4.69087e-05
-0.000108676
4.70554e-05
-0.000126828
4.56205e-05
-0.000143804
4.27561e-05
-0.00015908
3.85553e-05
-0.000172153
3.30692e-05
-0.000182541
2.63355e-05
-0.000189785
1.84117e-05
-0.00019348
9.41062e-06
-0.000193294
-4.6382e-07
-0.000189018
-1.09198e-05
-0.000180601
-2.15108e-05
-0.000168199
-3.1696e-05
-0.000152204
-4.08401e-05
-0.000133264
-4.82656e-05
-0.000112267
-5.33222e-05
-9.03102e-05
-5.54702e-05
-6.86187e-05
-5.43687e-05
-4.84443e-05
-4.9955e-05
-3.09366e-05
-4.2507e-05
-1.70078e-05
-3.26834e-05
-7.21069e-06
-2.15436e-05
-1.6507e-06
-1.05612e-05
-1.78345e-06
-3.80352e-06
8.50867e-06
-1.35618e-05
2.57039e-05
-2.79613e-05
4.07441e-05
-4.58514e-05
5.26924e-05
-6.61902e-05
6.13389e-05
-8.80369e-05
6.68167e-05
-0.000110548
6.94201e-05
-0.00013297
6.94768e-05
-0.000154619
6.72696e-05
-0.000174865
6.30026e-05
-0.000193112
5.68025e-05
-0.000208784
4.87407e-05
-0.000221321
3.88721e-05
-0.000230189
2.72802e-05
-0.000234903
1.41249e-05
-0.000235065
-3.01967e-07
-0.00023039
-1.55947e-05
-0.000220786
-3.11151e-05
-0.000206385
-4.60969e-05
-0.000187597
-5.96286e-05
-0.000165132
-7.07299e-05
-0.000140006
-7.84489e-05
-0.000113492
-8.19835e-05
-8.70487e-05
-8.08123e-05
-6.21881e-05
-7.48156e-05
-4.03288e-05
-6.43663e-05
-2.26353e-05
-5.03769e-05
-9.88282e-06
-3.42961e-05
-2.37964e-06
-1.80644e-05
-4.16309e-06
-4.65944e-06
1.31681e-05
-1.64346e-05
3.74791e-05
-3.3575e-05
5.78845e-05
-5.46222e-05
7.37397e-05
-7.83314e-05
8.50481e-05
-0.000103631
9.21159e-05
-0.00012959
9.53797e-05
-0.000155394
9.52807e-05
-0.00018031
9.21858e-05
-0.000203663
8.63551e-05
-0.000224806
7.79462e-05
-0.000243111
6.70449e-05
-0.000257952
5.37135e-05
-0.000268722
3.80503e-05
-0.000274849
2.02515e-05
-0.00027583
6.792e-07
-0.000271291
-2.01333e-05
-0.000261038
-4.13681e-05
-0.000245129
-6.20057e-05
-0.000223937
-8.08208e-05
-0.000198195
-9.64721e-05
-0.000169012
-0.000107631
-0.000137846
-0.00011315
-0.000106412
-0.000112247
-7.6542e-05
-0.000104685
-4.99999e-05
-9.09084e-05
-2.82813e-05
-7.20955e-05
-1.24451e-05
-5.01324e-05
-3.01653e-06
-2.74929e-05
-7.17962e-06
-5.41928e-06
1.85874e-05
-1.9035e-05
5.10949e-05
-3.87151e-05
7.75645e-05
-6.27147e-05
9.77393e-05
-8.95934e-05
0.000111927
-0.000118155
0.000120677
-0.000147394
0.000124619
-0.000176451
0.000124337
-0.000204565
0.0001203
-0.000231036
0.000112827
-0.000255193
0.000102103
-0.000276365
8.82171e-05
-0.000293874
7.12218e-05
-0.000307031
5.12072e-05
-0.00031516
2.83806e-05
-0.000317628
3.14769e-06
-0.000313917
-2.38447e-05
-0.000303673
-5.16123e-05
-0.000286811
-7.88676e-05
-0.000263599
-0.000104033
-0.000234736
-0.000125335
-0.000201396
-0.000140971
-0.000165221
-0.000149325
-0.000128234
-0.000149233
-9.26746e-05
-0.000140245
-6.07647e-05
-0.000122818
-3.44464e-05
-9.84138e-05
-1.51486e-05
-6.94301e-05
-3.64175e-06
-3.89998e-05
-1.08214e-05
-6.10968e-06
2.46971e-05
-2.14242e-05
6.64094e-05
-4.34761e-05
9.96165e-05
-7.02602e-05
0.000124523
-0.000100155
0.000141821
-0.00013185
0.000152372
-0.00016428
0.000157049
-0.000196556
0.000156613
-0.00022791
0.000151654
-0.000257641
0.000142558
-0.00028507
0.000129531
-0.000309502
0.000112649
-0.00033021
9.19295e-05
-0.000346422
6.74198e-05
-0.000357339
3.92976e-05
-0.000362163
7.97197e-06
-0.000360168
-2.58397e-05
-0.000350773
-6.10075e-05
-0.000333663
-9.59778e-05
-0.000308912
-0.000128784
-0.000277105
-0.000157142
-0.000239432
-0.000178644
-0.000197714
-0.000191043
-0.000154334
-0.000192614
-0.000112048
-0.000182531
-7.36881e-05
-0.000161178
-4.18071e-05
-0.000130295
-1.83367e-05
-9.29005e-05
-4.3595e-06
-5.2977e-05
-1.51809e-05
-6.75109e-06
3.14481e-05
-2.36559e-05
8.33142e-05
-4.79463e-05
0.000123907
-7.73805e-05
0.000153958
-0.000110172
0.000174613
-0.000144913
0.000187113
-0.000180489
0.000192625
-0.000216006
0.00019213
-0.000250707
0.000186356
-0.000283914
0.000175765
-0.000314961
0.000160578
-0.00034315
0.000140838
-0.000367714
0.000116493
-0.000387798
8.75038e-05
-0.000402461
5.39606e-05
-0.000410703
1.62145e-05
-0.000411534
-2.50091e-05
-0.000404059
-6.84825e-05
-0.000387632
-0.000112405
-0.000362019
-0.000154397
-0.000327584
-0.000191578
-0.000285444
-0.000220783
-0.000237568
-0.000238919
-0.000186736
-0.000243446
-0.000136344
-0.000232924
-9.0027e-05
-0.000207494
-5.11718e-05
-0.00016915
-2.24163e-05
-0.000121656
-5.28766e-06
-7.01056e-05
-2.04685e-05
-7.35723e-06
3.88054e-05
-2.577e-05
0.000101727
-5.21931e-05
0.00015033
-8.4167e-05
0.000185931
-0.000119756
0.000210202
-0.000157468
0.000224825
-0.000196161
0.000231318
-0.000234951
0.000230919
-0.00027312
0.000224525
-0.000310034
0.000212679
-0.000345071
0.000195615
-0.00037755
0.000173317
-0.000406683
0.000145626
-0.000431537
0.000112358
-0.000451023
7.3446e-05
-0.000463907
2.90984e-05
-0.000468879
-2.00363e-05
-0.000464647
-7.27149e-05
-0.000450118
-0.000126934
-0.000424614
-0.0001799
-0.000388128
-0.000228064
-0.000341576
-0.000267335
-0.000286988
-0.000293507
-0.000227542
-0.000302891
-0.000167386
-0.00029308
-0.000111185
-0.000263695
-6.34588e-05
-0.000216876
-2.78499e-05
-0.000157265
-6.55732e-06
-9.13982e-05
-2.70259e-05
-7.93614e-06
4.67415e-05
-2.7792e-05
0.000121583
-5.62596e-05
0.000178798
-9.06737e-05
0.000220345
-0.000128961
0.00024849
-0.000169559
0.000265423
-0.000211313
0.000273072
-0.000253372
0.000272979
-0.000295082
0.000266234
-0.000335883
0.000253481
-0.000375224
0.000234956
-0.000412472
0.000210565
-0.000446845
0.000179999
-0.00047735
0.000142864
-0.000502755
9.88502e-05
-0.000521577
4.79207e-05
-0.000532152
-9.46123e-06
-0.000532707
-7.21603e-05
-0.000521594
-0.000138046
-0.000497539
-0.000203956
-0.00045998
-0.000265623
-0.000409442
-0.000317873
-0.000347854
-0.000355095
-0.000278722
-0.000372024
-0.00020701
-0.000364791
-0.000138652
-0.000332053
-7.96758e-05
-0.000275853
-3.51545e-05
-0.000201786
-8.31496e-06
-0.000118238
-3.53408e-05
-8.49198e-06
5.52335e-05
-2.97364e-05
0.000142827
-6.01686e-05
0.00020923
-9.69205e-05
0.000257097
-0.000137787
0.000289356
-0.000181143
0.000308779
-0.000225838
0.000317768
-0.000271074
0.000318215
-0.000316284
0.000311444
-0.000361015
0.000298212
-0.000404817
0.000278758
-0.000447142
0.000252891
-0.000487249
0.000220106
-0.000524121
0.000179736
-0.000556406
0.000131135
-0.000582388
7.39029e-05
-0.000600026
8.17641e-06
-0.000607038
-6.51479e-05
-0.000601123
-0.000143961
-0.000580261
-0.000224818
-0.000543133
-0.000302751
-0.000489619
-0.000371387
-0.000421293
-0.000423421
-0.000341791
-0.000451526
-0.000256862
-0.000449721
-0.000173902
-0.000415013
-0.000100888
-0.000348867
-4.48984e-05
-0.000257776
-1.07255e-05
-0.000152411
-4.60663e-05
-9.02737e-06
6.42609e-05
-3.16135e-05
0.000165413
-6.39325e-05
0.000241549
-0.000102906
0.00029607
-0.000146191
0.000332641
-0.000192107
0.000354695
-0.000239516
0.000365177
-0.00028769
0.000366389
-0.000336173
0.000359926
-0.000384643
0.000346682
-0.00043279
0.000326905
-0.000480188
0.000300289
-0.000526182
0.0002661
-0.000569778
0.000223332
-0.000609558
0.000170915
-0.000643621
0.000107966
-0.000669573
3.41286e-05
-0.00068465
-5.00712e-05
-0.000685844
-0.000142766
-0.000670285
-0.000240377
-0.000635697
-0.000337339
-0.000581018
-0.000426066
-0.000507102
-0.000497337
-0.000417356
-0.000541272
-0.00031809
-0.000548987
-0.000218234
-0.00051487
-0.000128161
-0.000438939
-5.76952e-05
-0.000328242
-1.39762e-05
-0.00019613
-6.00426e-05
-9.54693e-06
7.38078e-05
-3.3439e-05
0.000189306
-6.75698e-05
0.00027568
-0.000108627
0.000337127
-0.000154116
0.00037813
-0.000202293
0.000402873
-0.00025204
0.000414924
-0.000302711
0.000417059
-0.000353975
0.00041119
-0.000405668
0.000398376
-0.000457647
0.000378883
-0.000509647
0.000352289
-0.000561149
0.000317602
-0.000611247
0.000273431
-0.000658535
0.000218202
-0.000701014
0.000150445
-0.000736052
6.91673e-05
-0.000760447
-2.56762e-05
-0.000770556
-0.000132658
-0.000762624
-0.000248309
-0.000733271
-0.000366693
-0.000680194
-0.000479142
-0.000603066
-0.000574466
-0.000504509
-0.000639828
-0.000390899
-0.000662597
-0.000272512
-0.000633257
-0.000162459
-0.000548993
-7.41852e-05
-0.000416515
-1.82806e-05
-0.000252034
-7.83232e-05
-1.00621e-05
8.38698e-05
-3.52482e-05
0.000214492
-7.11288e-05
0.00031156
-0.000114112
0.000380111
-0.000161524
0.000425541
-0.000211543
0.000452892
-0.000263067
0.000466448
-0.000315536
0.000469528
-0.000368759
0.000464413
-0.000422743
0.000452359
-0.000477531
0.000433672
-0.000533055
0.000407813
-0.000588981
0.000373528
-0.000644567
0.000329017
-0.000698519
0.000272154
-0.000748874
0.0002008
-0.000792924
0.000113217
-0.0008272
8.60034e-06
-0.000847582
-0.000112275
-0.000849526
-0.000246366
-0.000828511
-0.000387708
-0.000780759
-0.000526894
-0.000704268
-0.000650957
-0.000600138
-0.000743958
-0.000473975
-0.000788759
-0.000336792
-0.00077044
-0.000204472
-0.000681314
-9.49956e-05
-0.000525991
-2.38809e-05
-0.000323149
-0.000102204
-1.05977e-05
9.44675e-05
-3.71154e-05
0.000241009
-7.47191e-05
0.000349164
-0.000119465
0.000424856
-0.000168448
0.000474525
-0.00021975
0.000504194
-0.000272276
0.000518973
-0.000325554
0.000522806
-0.000379532
0.000518392
-0.000434393
0.00050722
-0.000490381
0.000489659
-0.000547644
0.000465076
-0.000606082
0.000431966
-0.000665188
0.000388123
-0.000723902
0.000330868
-0.000780465
0.000257364
-0.000832307
0.000165059
-0.000875969
5.22617e-05
-0.000907118
-8.11264e-05
-0.000920679
-0.000232805
-0.000911131
-0.000397256
-0.000873135
-0.00056489
-0.000802596
-0.000721495
-0.000698266
-0.000848289
-0.000563809
-0.000923216
-0.000409799
-0.000924451
-0.000254344
-0.000836768
-0.00012066
-0.000659675
-3.10448e-05
-0.000412764
-0.000133249
-1.12017e-05
0.000105669
-3.91799e-05
0.000268988
-7.85532e-05
0.000388537
-0.000124909
0.000471212
-0.000175049
0.000524665
-0.000226927
0.000556072
-0.000279449
0.000571496
-0.00033223
0.000575588
-0.000385358
0.000571519
-0.000439184
0.000561046
-0.000494154
0.000544629
-0.000550646
0.000521567
-0.000608822
0.000490142
-0.000668487
0.000447788
-0.00072893
0.000391312
-0.000788783
0.000317216
-0.000845867
0.000222143
-0.000897066
0.000103461
-0.000938195
-3.99973e-05
-0.000964102
-0.000206898
-0.000968588
-0.00039277
-0.000944923
-0.000588554
-0.000886728
-0.000779691
-0.000789661
-0.000945356
-0.000654073
-0.0010588
-0.000488312
-0.00109021
-0.000311281
-0.0010138
-0.000151483
-0.000819473
-4.00529e-05
-0.000524195
-0.000173302
-1.19592e-05
0.000117628
-4.16826e-05
0.000298711
-8.29989e-05
0.000429854
-0.000130856
0.000519069
-0.000181678
0.000575486
-0.000233269
0.000607663
-0.000284541
0.000622768
-0.000335204
0.00062625
-0.000385482
0.000621797
-0.000435896
0.000611461
-0.000487082
0.000595815
-0.000539646
0.000574131
-0.000594037
0.000544533
-0.000650421
0.000504171
-0.000708545
0.000449436
-0.000767599
0.00037627
-0.000826052
0.000280596
-0.000881492
0.000158901
-0.000930274
8.78442e-06
-0.000967764
-0.000169408
-0.000987596
-0.000372938
-0.000982134
-0.000594017
-0.000942896
-0.000818929
-0.000862045
-0.00102621
-0.000735318
-0.00118553
-0.000566601
-0.00125893
-0.000373066
-0.00120733
-0.000187336
-0.0010052
-5.11762e-05
-0.000660354
-0.000224478
-1.30142e-05
0.000130643
-4.50173e-05
0.000330714
-8.86468e-05
0.000473483
-0.000137966
0.000568388
-0.000188933
0.000626453
-0.000239203
0.000657933
-0.000287726
0.000671292
-0.000334337
0.000672861
-0.00037942
0.00066688
-0.00042366
0.000655701
-0.000467879
0.000640034
-0.000512905
0.000619157
-0.000559479
0.000591107
-0.00060816
0.000552852
-0.000659226
0.000500502
-0.000712551
0.000429596
-0.000767454
0.000335499
-0.000822478
0.000213925
-0.000875236
6.15431e-05
-0.000921686
-0.000122959
-0.000956299
-0.000338325
-0.000971247
-0.000579068
-0.000956595
-0.000833581
-0.000901184
-0.00108162
-0.000795321
-0.00129139
-0.000636152
-0.0014181
-0.000435594
-0.00140789
-0.00022741
-0.00121339
-6.46533e-05
-0.000823111
-0.000289131
-1.46076e-05
0.00014525
-4.98081e-05
0.000365915
-9.63962e-05
0.000520071
-0.000147217
0.000619209
-0.000197691
0.000676927
-0.000245381
0.000705624
-0.000289367
0.000715277
-0.000329685
0.000713179
-0.000366924
0.000704119
-0.000401959
0.000690737
-0.000435798
0.000673873
-0.000469487
0.000652846
-0.000504052
0.000625673
-0.000540456
0.000589256
-0.000579534
0.000539579
-0.00062191
0.000471972
-0.000667868
0.000381457
-0.000717147
0.000263203
-0.000768666
0.000113062
-0.000819892
-7.17327e-05
-0.000866576
-0.000291641
-0.000901697
-0.000543947
-0.000914978
-0.0008203
-0.000892859
-0.00110374
-0.000820294
-0.00136396
-0.000685994
-0.0015524
-0.000492608
-0.00160128
-0.000269964
-0.00143603
-8.06821e-05
-0.00101239
-0.000369813
-1.71445e-05
0.000162395
-5.70281e-05
0.000405798
-0.00010756
0.000570603
-0.000159947
0.000671596
-0.000209071
0.000726051
-0.00025257
0.000749124
-0.00028984
0.000752547
-0.000321265
0.000744604
-0.000347734
0.000730587
-0.000370363
0.000713366
-0.000390365
0.000693876
-0.000409006
0.000671486
-0.000427586
0.000644254
-0.000447449
0.00060912
-0.000469969
0.000562099
-0.000496505
0.000498508
-0.00052831
0.000413262
-0.000566351
0.000301244
-0.00061103
0.000157742
-0.000661576
-2.11866e-05
-0.000715634
-0.000237583
-0.000767922
-0.000491659
-0.000809229
-0.000778994
-0.000825231
-0.00108773
-0.000796765
-0.00139242
-0.000703684
-0.00164548
-0.000535774
-0.00176919
-0.000312096
-0.00165971
-9.9441e-05
-0.00122505
-0.000469254
-2.13207e-05
0.000183715
-6.81841e-05
0.000452662
-0.000123978
0.000626397
-0.000177818
0.000725436
-0.000224234
0.000772467
-0.000261302
0.000786192
-0.000289061
0.000780306
-0.000308486
0.000764029
-0.000320916
0.000743017
-0.000327794
0.000720243
-0.00033058
0.000696661
-0.00033076
0.000671666
-0.000329889
0.000643383
-0.000329648
0.000608878
-0.000331876
0.000564327
-0.000338578
0.00050521
-0.000351868
0.000426552
-0.000373841
0.000323217
-0.000406307
0.000190208
-0.000450443
2.29496e-05
-0.000505865
-0.000182161
-0.000569922
-0.000427602
-0.000635849
-0.000713067
-0.00069066
-0.00103292
-0.000713483
-0.0013696
-0.000676679
-0.00168228
-0.000555109
-0.00189076
-0.000349556
-0.00186526
-0.000121117
-0.00145349
-0.000590371
-2.83599e-05
0.000212075
-8.55824e-05
0.000509884
-0.000148065
0.000688879
-0.000202547
0.000779918
-0.000243795
0.000813714
-0.000271008
0.000813405
-0.0002854
0.000794699
-0.000288881
0.00076751
-0.000283449
0.000737585
-0.000270984
0.000707778
-0.000253241
0.000678918
-0.000231926
0.000650351
-0.000208807
0.000620265
-0.000185819
0.00058589
-0.000165155
0.000543663
-0.000149309
0.000489364
-0.000141067
0.00041831
-0.000143431
0.00032558
-0.000159431
0.000206208
-0.000191852
5.53708e-05
-0.000242529
-0.000131484
-0.000311586
-0.000358545
-0.000395958
-0.000628695
-0.000485974
-0.000942908
-0.000562386
-0.00129319
-0.00059339
-0.00165128
-0.000539413
-0.00194474
-0.000376444
-0.00202823
-0.000145809
-0.00168412
-0.00073618
-4.04491e-05
0.000252524
-0.000112634
0.000582069
-0.000182528
0.000758773
-0.000234937
0.000832328
-0.000266257
0.000845034
-0.000277992
0.00082514
-0.000273301
0.000790008
-0.000255477
0.000749685
-0.00022741
0.000709519
-0.000191522
0.000671891
-0.000149882
0.000637277
-0.000104379
0.000604848
-5.69132e-05
0.000572798
-9.55474e-06
0.000538532
3.53316e-05
0.000498777
7.49768e-05
0.000449719
0.000106161
0.000387126
0.000125257
0.000306484
0.000128324
0.000203141
0.000111298
7.23968e-05
7.03567e-05
-9.0543e-05
2.50852e-06
-0.000290697
-9.23841e-05
-0.000533802
-0.000210613
-0.000824679
-0.000337859
-0.00116594
-0.000443047
-0.00154609
-0.000476048
-0.00191173
-0.000384394
-0.00211989
-0.000172959
-0.00189556
-0.000909139
-6.1476e-05
0.000314
-0.000153876
0.000674469
-0.000228882
0.000833779
-0.000271969
0.000875414
-0.000284039
0.000857105
-0.000270749
0.00081185
-0.000238198
0.000757457
-0.000191523
0.00070301
-0.000134669
0.000652665
-7.05998e-05
0.000607822
-1.61344e-06
0.000568291
7.03488e-05
0.000532886
0.00014343
0.000499717
0.000215631
0.000466331
0.000284619
0.000429789
0.000347595
0.000386743
0.000401212
0.000333509
0.000441535
0.000266161
0.00046407
0.000180606
0.000463848
7.26193e-05
0.000435621
-6.23156e-05
0.000374263
-0.000229339
0.000275126
-0.000434666
0.000136966
-0.000686519
-3.38153e-05
-0.00099516
-0.000213734
-0.00136617
-0.000349209
-0.00177626
-0.00036045
-0.00210864
-0.000199595
-0.00205641
-0.00110873
-9.79113e-05
0.000411912
-0.000213171
0.000789728
-0.00028191
0.000902519
-0.000298504
0.000892008
-0.000273632
0.000832232
-0.000219545
0.000757763
-0.000146183
0.000684095
-6.06577e-05
0.000617485
3.22359e-05
0.000559771
0.000129319
0.000510739
0.000228414
0.000469195
0.000327868
0.000433432
0.000426178
0.000401407
0.000521708
0.0003708
0.000612463
0.000339035
0.000695911
0.000303294
0.000768868
0.000260553
0.000827413
0.000207616
0.000866852
0.000141167
0.000881688
5.77838e-05
0.000865711
-4.63392e-05
0.000812129
-0.000175757
0.000713512
-0.000336049
0.000563106
-0.000536113
0.0003582
-0.000790253
0.0001105
-0.00111847
-0.000135061
-0.0015307
-0.000282479
-0.00196123
-0.000217134
-0.00212176
-0.00132587
-0.000158133
0.000570045
-0.000283193
0.000914788
-0.000311004
0.00093033
-0.000264842
0.000845846
-0.000172794
0.000740183
-5.52968e-05
0.000640266
7.44834e-05
0.000554315
0.000208682
0.000483286
0.000342891
0.000425563
0.000474768
0.000378861
0.000603095
0.000340868
0.000727149
0.000309379
0.000846283
0.000282273
0.000959621
0.000257462
0.00106583
0.000232825
0.00116295
0.000206178
0.00124824
0.000175262
0.00131811
0.000137746
0.00136801
9.12596e-05
0.00139231
3.34843e-05
0.00138446
-3.84842e-05
0.0013367
-0.000127995
0.00123979
-0.000239142
0.00108317
-0.000379488
0.000855946
-0.000563034
0.000553624
-0.000816152
0.00020048
-0.00117755
-0.000109936
-0.00165081
-0.000206174
-0.00202552
-0.00153204
-0.000240239
0.000810284
-0.000298046
0.000972595
-0.000202292
0.000834577
-3.2062e-05
0.000675616
0.000164655
0.000543466
0.000364913
0.000440008
0.000558102
0.000361126
0.000739893
0.000301494
0.000909213
0.000256243
0.00106651
0.000221567
0.00121277
0.000194602
0.00134903
0.000173122
0.001476
0.0001553
0.00159392
0.000139547
0.00170234
0.000124398
0.00180008
0.000108446
0.00188503
9.03061e-05
0.00195419
6.85927e-05
0.0020035
4.19472e-05
0.00202773
9.25499e-06
0.00202073
-3.14885e-05
0.00197445
-8.1716e-05
0.00187931
-0.000144
0.00172294
-0.000223118
0.00148901
-0.000329106
0.00115771
-0.000484845
0.000719852
-0.0007397
0.000235158
-0.00116612
-8.99202e-05
-0.00170044
-0.00162196
-0.000189099
0.000999383
3.01654e-05
0.000753331
0.00038765
0.000477092
0.000727294
0.000335973
0.00102687
0.000243891
0.00128645
0.000180431
0.00151028
0.000137294
0.00170387
0.000107899
0.00187268
8.7435e-05
0.00202142
7.28241e-05
0.00215391
6.21169e-05
0.00227303
5.39995e-05
0.00238081
4.75199e-05
0.00247842
4.19371e-05
0.00256619
3.66309e-05
0.00264359
3.10491e-05
0.00270921
2.46828e-05
0.00276073
1.70695e-05
0.00279484
7.84057e-06
0.00280782
-3.72807e-06
0.0027943
-1.79629e-05
0.00274756
-3.49777e-05
0.0026596
-5.60397e-05
0.00251913
-8.26554e-05
0.00230886
-0.000118828
0.00199963
-0.000175615
0.00154566
-0.000285731
0.000922278
-0.000542736
0.000261455
-0.00103962
-0.00136051
0.000999383
0.00175271
0.0022298
0.00256578
0.00280967
0.0029901
0.00312739
0.00323529
0.00332273
0.00339555
0.00345767
0.00351167
0.00355919
0.00360113
0.00363776
0.00366881
0.00369349
0.00371056
0.0037184
0.00371467
0.00369671
0.00366173
0.00360569
0.00352304
0.00340421
0.00322859
0.00294286
0.00240013
0.00136051
)
;

boundaryField
{
    movingWall
    {
        type            calculated;
        value           uniform 0;
    }
    fixedWalls
    {
        type            calculated;
        value           uniform 0;
    }
    frontAndBack
    {
        type            empty;
        value           nonuniform 0();
    }
}


// ************************************************************************* //
