/*--------------------------------*- C++ -*----------------------------------*\
  =========                 |
  \\      /  F ield         | OpenFOAM: The Open Source CFD Toolbox
   \\    /   O peration     | Website:  https://openfoam.org
    \\  /    A nd           | Version:  7
     \\/     M anipulation  |
\*---------------------------------------------------------------------------*/
FoamFile
{
    version     2.0;
    format      ascii;
    class       volVectorField;
    location    "2.5";
    object      U;
}
// * * * * * * * * * * * * * * * * * * * * * * * * * * * * * * * * * * * * * //

dimensions      [0 1 -1 0 0 0 0];

internalField   nonuniform List<vector> 
900
(
(8.91536e-05 -8.84204e-05 0)
(0.000101073 -3.6262e-06 0)
(-0.000222631 0.000112633 0)
(-0.000843635 0.000207526 0)
(-0.0016846 0.00027143 0)
(-0.00267326 0.000308494 0)
(-0.00374441 0.000325438 0)
(-0.0048455 0.000327898 0)
(-0.00593502 0.000319567 0)
(-0.00697855 0.000302366 0)
(-0.00794532 0.00027688 0)
(-0.00880563 0.000242831 0)
(-0.00952936 0.000199546 0)
(-0.0100857 0.000146424 0)
(-0.0104442 8.34026e-05 0)
(-0.0105768 1.13095e-05 0)
(-0.0104605 -6.81663e-05 0)
(-0.0100816 -0.000151275 0)
(-0.00943951 -0.000233159 0)
(-0.00855008 -0.000307786 0)
(-0.00744815 -0.000368404 0)
(-0.00618809 -0.000408293 0)
(-0.0048422 -0.000421634 0)
(-0.00349652 -0.000404333 0)
(-0.00224439 -0.000354639 0)
(-0.00117801 -0.000273571 0)
(-0.000377485 -0.000166065 0)
(9.58995e-05 -4.43185e-05 0)
(0.000231137 7.05301e-05 0)
(0.000108952 0.00010782 0)
(7.28415e-06 -0.000104033 0)
(-0.000373488 0.000373374 0)
(-0.00148937 0.000937007 0)
(-0.00321927 0.00140988 0)
(-0.0054282 0.0017509 0)
(-0.00797338 0.0019647 0)
(-0.0107152 0.00207044 0)
(-0.0135305 0.0020882 0)
(-0.0163142 0.00203342 0)
(-0.0189746 0.00191567 0)
(-0.0214282 0.00173946 0)
(-0.023596 0.0015058 0)
(-0.0254006 0.00121423 0)
(-0.0267663 0.000864946 0)
(-0.0276215 0.000460971 0)
(-0.0279039 1.00405e-05 0)
(-0.0275653 -0.000473756 0)
(-0.0265805 -0.000969684 0)
(-0.0249564 -0.00145015 0)
(-0.0227376 -0.00188218 0)
(-0.0200109 -0.00223015 0)
(-0.0169061 -0.00245952 0)
(-0.0135916 -0.00254135 0)
(-0.0102644 -0.00245667 0)
(-0.00713483 -0.00220034 0)
(-0.00440675 -0.00178424 0)
(-0.00225367 -0.00124161 0)
(-0.00079136 -0.000635515 0)
(-4.61952e-05 -6.93366e-05 0)
(7.5236e-05 0.000231478 0)
(-0.000113929 0.000219699 0)
(-0.000976559 0.00149755 0)
(-0.00293683 0.00284514 0)
(-0.00572038 0.00397669 0)
(-0.00913599 0.00481192 0)
(-0.0129991 0.00534903 0)
(-0.0171233 0.0056187 0)
(-0.0213385 0.00565892 0)
(-0.0254941 0.00550203 0)
(-0.0294553 0.00517022 0)
(-0.0330982 0.00467582 0)
(-0.0363051 0.0040242 0)
(-0.0389625 0.00321804 0)
(-0.0409612 0.0022622 0)
(-0.0422 0.00116865 0)
(-0.0425918 -3.91013e-05 0)
(-0.0420723 -0.00132229 0)
(-0.0406103 -0.00262656 0)
(-0.0382186 -0.00388162 0)
(-0.0349629 -0.0050051 0)
(-0.0309671 -0.0059092 0)
(-0.0264143 -0.00650982 0)
(-0.0215405 -0.00673742 0)
(-0.0166203 -0.0065481 0)
(-0.0119463 -0.00593359 0)
(-0.00780104 -0.00492951 0)
(-0.00442421 -0.0036235 0)
(-0.00197407 -0.00216552 0)
(-0.000507742 -0.000784794 0)
(-1.07088e-05 0.000132967 0)
(-0.000226379 0.000877799 0)
(-0.00155557 0.00332488 0)
(-0.00433694 0.00568335 0)
(-0.00811675 0.0076294 0)
(-0.0126328 0.00906453 0)
(-0.0176621 0.00998862 0)
(-0.0229832 0.0104466 0)
(-0.0283925 0.0104956 0)
(-0.0337079 0.0101859 0)
(-0.0387642 0.00955379 0)
(-0.0434077 0.00862083 0)
(-0.0474922 0.0073985 0)
(-0.0508765 0.00589469 0)
(-0.0534254 0.00412174 0)
(-0.0550137 0.0021046 0)
(-0.0555337 -0.000111864 0)
(-0.0549052 -0.00245779 0)
(-0.0530879 -0.00483477 0)
(-0.0500947 -0.00711826 0)
(-0.046002 -0.00916338 0)
(-0.040958 -0.0108161 0)
(-0.0351837 -0.0119293 0)
(-0.0289666 -0.0123812 0)
(-0.0226443 -0.0120957 0)
(-0.0165786 -0.0110601 0)
(-0.0111224 -0.00933908 0)
(-0.00657868 -0.00708552 0)
(-0.00315464 -0.00454899 0)
(-0.000958435 -0.00208648 0)
(-8.79753e-05 -0.000221108 0)
(-0.000320819 0.00183135 0)
(-0.0020746 0.00580892 0)
(-0.00562463 0.00938948 0)
(-0.0103353 0.0122736 0)
(-0.0158666 0.0143781 0)
(-0.0219556 0.0157214 0)
(-0.0283497 0.0163707 0)
(-0.03482 0.0164053 0)
(-0.0411624 0.0158951 0)
(-0.0471909 0.0148907 0)
(-0.0527314 0.0134234 0)
(-0.0576168 0.0115112 0)
(-0.0616848 0.00916746 0)
(-0.0647782 0.00641288 0)
(-0.0667495 0.00328674 0)
(-0.0674696 -0.000142268 0)
(-0.0668377 -0.0037678 0)
(-0.0647965 -0.00744271 0)
(-0.0613481 -0.0109798 0)
(-0.0565677 -0.0141608 0)
(-0.0506144 -0.0167527 0)
(-0.043736 -0.018531 0)
(-0.0362633 -0.0193088 0)
(-0.0285935 -0.0189673 0)
(-0.0211604 -0.0174832 0)
(-0.0143945 -0.0149507 0)
(-0.00867432 -0.011593 0)
(-0.00427139 -0.00776617 0)
(-0.00135893 -0.00395481 0)
(-0.000146611 -0.000802434 0)
(-0.000399733 0.00304615 0)
(-0.00253384 0.0088972 0)
(-0.00679197 0.0139094 0)
(-0.0123677 0.0178511 0)
(-0.0188433 0.0206861 0)
(-0.0259146 0.0224721 0)
(-0.0333 0.02331 0)
(-0.0407503 0.0233076 0)
(-0.0480462 0.0225568 0)
(-0.0549886 0.0211236 0)
(-0.0613903 0.0190486 0)
(-0.0670699 0.0163551 0)
(-0.0718482 0.0130607 0)
(-0.0755483 0.00919248 0)
(-0.0779994 0.00480251 0)
(-0.0790452 -1.74768e-05 0)
(-0.0785567 -0.0051239 0)
(-0.0764481 -0.0103176 0)
(-0.0726956 -0.0153421 0)
(-0.067357 -0.0198948 0)
(-0.060588 -0.0236487 0)
(-0.0526522 -0.026284 0)
(-0.0439199 -0.0275291 0)
(-0.0348519 -0.0272046 0)
(-0.0259665 -0.0252648 0)
(-0.017792 -0.0218286 0)
(-0.010806 -0.0171937 0)
(-0.00536588 -0.0118322 0)
(-0.00172191 -0.0063676 0)
(-0.000188358 -0.00157413 0)
(-0.000467591 0.00449072 0)
(-0.00294441 0.012535 0)
(-0.00785426 0.0191822 0)
(-0.0142358 0.0242996 0)
(-0.0215972 0.0279257 0)
(-0.0295943 0.0301779 0)
(-0.0379187 0.0312049 0)
(-0.0463049 0.0311509 0)
(-0.0545243 0.0301338 0)
(-0.062371 0.0282363 0)
(-0.0696511 0.0255076 0)
(-0.0761742 0.0219735 0)
(-0.081748 0.017652 0)
(-0.0861765 0.0125719 0)
(-0.0892629 0.00679316 0)
(-0.0908169 0.000425666 0)
(-0.0906697 -0.00635414 0)
(-0.0886911 -0.0132938 0)
(-0.0848126 -0.0200627 0)
(-0.0790544 -0.0262632 0)
(-0.0715501 -0.0314559 0)
(-0.062566 -0.0352013 0)
(-0.0525071 -0.0371142 0)
(-0.0419052 -0.0369272 0)
(-0.0313829 -0.0345502 0)
(-0.0215967 -0.0301165 0)
(-0.0131575 -0.0240023 0)
(-0.00653977 -0.0168131 0)
(-0.00208837 -0.00933842 0)
(-0.000221526 -0.0025205 0)
(-0.000528131 0.00614124 0)
(-0.0033187 0.0166761 0)
(-0.00883345 0.0251542 0)
(-0.0159711 0.031565 0)
(-0.0241717 0.0360458 0)
(-0.0330535 0.0387937 0)
(-0.0422846 0.0400195 0)
(-0.0515878 0.0399133 0)
(-0.0607304 0.0386243 0)
(-0.069506 0.0362531 0)
(-0.0777203 0.0328562 0)
(-0.085179 0.0284581 0)
(-0.0916802 0.023071 0)
(-0.0970094 0.0167174 0)
(-0.100941 0.00945556 0)
(-0.103243 0.00140436 0)
(-0.103692 -0.00723474 0)
(-0.102096 -0.0161606 0)
(-0.0983186 -0.0249663 0)
(-0.0923161 -0.0331479 0)
(-0.0841754 -0.0401322 0)
(-0.0741455 -0.0453274 0)
(-0.0626572 -0.0481947 0)
(-0.0503194 -0.0483364 0)
(-0.0378826 -0.0455829 0)
(-0.0261705 -0.0400626 0)
(-0.0159753 -0.0322328 0)
(-0.00793278 -0.0228589 0)
(-0.00251336 -0.012941 0)
(-0.000256102 -0.00365181 0)
(-0.000583884 0.00798104 0)
(-0.0036668 0.021285 0)
(-0.00974971 0.0317826 0)
(-0.0176036 0.0396044 0)
(-0.0266062 0.0450084 0)
(-0.036342 0.0482901 0)
(-0.0464597 0.049737 0)
(-0.0566753 0.0495958 0)
(-0.0667578 0.0480527 0)
(-0.0765068 0.0452284 0)
(-0.0857341 0.0411846 0)
(-0.0942479 0.0359397 0)
(-0.101841 0.0294912 0)
(-0.108282 0.0218441 0)
(-0.113314 0.0130411 0)
(-0.116655 0.00319505 0)
(-0.118017 -0.00748081 0)
(-0.117122 -0.0186473 0)
(-0.113739 -0.0298235 0)
(-0.10773 -0.0403898 0)
(-0.0991011 -0.049615 0)
(-0.0880556 -0.0567144 0)
(-0.0750312 -0.0609418 0)
(-0.060713 -0.0617083 0)
(-0.0460027 -0.0587098 0)
(-0.0319374 -0.0520349 0)
(-0.0195538 -0.0422204 0)
(-0.00971224 -0.0302254 0)
(-0.00306075 -0.0173253 0)
(-0.000302519 -0.00501024 0)
(-0.000636364 0.00999841 0)
(-0.00399579 0.0263351 0)
(-0.0106184 0.0390337 0)
(-0.0191563 0.048384 0)
(-0.0289298 0.0547836 0)
(-0.0394938 0.0586455 0)
(-0.0504819 0.0603494 0)
(-0.0616086 0.0602093 0)
(-0.0726509 0.0584553 0)
(-0.0834218 0.0552306 0)
(-0.0937467 0.0506004 0)
(-0.103443 0.0445705 0)
(-0.112305 0.0371136 0)
(-0.120089 0.0282021 0)
(-0.126504 0.0178451 0)
(-0.131217 0.0061283 0)
(-0.133859 -0.00674412 0)
(-0.134048 -0.0204125 0)
(-0.131431 -0.0343309 0)
(-0.125737 -0.0477597 0)
(-0.116852 -0.0597855 0)
(-0.104889 -0.0693843 0)
(-0.0902605 -0.0755333 0)
(-0.0737133 -0.0773691 0)
(-0.056315 -0.0743702 0)
(-0.0393662 -0.0665258 0)
(-0.0242262 -0.0544358 0)
(-0.0120694 -0.0392923 0)
(-0.00380255 -0.0227304 0)
(-0.000371858 -0.0066736 0)
(-0.000686337 0.0121846 0)
(-0.00431003 0.0318058 0)
(-0.0114494 0.0468807 0)
(-0.0206437 0.0578745 0)
(-0.0311588 0.0653445 0)
(-0.0425234 0.0698393 0)
(-0.0543605 0.0718471 0)
(-0.0663883 0.0717613 0)
(-0.0783985 0.0698638 0)
(-0.0902252 0.0663235 0)
(-0.101716 0.0612074 0)
(-0.112707 0.054502 0)
(-0.123001 0.0461432 0)
(-0.132347 0.0360536 0)
(-0.140429 0.0241856 0)
(-0.146858 0.0105711 0)
(-0.151178 -0.00462358 0)
(-0.152887 -0.0210437 0)
(-0.151482 -0.0380987 0)
(-0.146524 -0.0549326 0)
(-0.137725 -0.0704312 0)
(-0.125058 -0.0832825 0)
(-0.108853 -0.0921058 0)
(-0.0898839 -0.095654 0)
(-0.0693788 -0.0930693 0)
(-0.0489448 -0.0841422 0)
(-0.0303553 -0.0694915 0)
(-0.0152176 -0.050576 0)
(-0.00481974 -0.0294962 0)
(-0.000476388 -0.00875936 0)
(-0.000734091 0.0145327 0)
(-0.00461194 0.0376805 0)
(-0.0122486 0.0553002 0)
(-0.0220728 0.0680482 0)
(-0.0332974 0.0766611 0)
(-0.0454265 0.081843 0)
(-0.0580759 0.0842077 0)
(-0.0709727 0.0842417 0)
(-0.08393 0.0822877 0)
(-0.0968105 0.0785445 0)
(-0.109493 0.07308 0)
(-0.121842 0.065855 0)
(-0.13368 0.0567563 0)
(-0.144761 0.0456372 0)
(-0.154748 0.0323679 0)
(-0.163204 0.0168945 0)
(-0.169587 -0.000691034 0)
(-0.173269 -0.0200744 0)
(-0.173577 -0.0406526 0)
(-0.169869 -0.0614709 0)
(-0.161637 -0.0812077 0)
(-0.148641 -0.098221 0)
(-0.131058 -0.110686 0)
(-0.109616 -0.116839 0)
(-0.0856654 -0.115323 0)
(-0.0611388 -0.105574 0)
(-0.0383167 -0.0881329 0)
(-0.0193902 -0.0647364 0)
(-0.00620357 -0.0380735 0)
(-0.000630294 -0.0114294 0)
(-0.000779736 0.0170365 0)
(-0.00490324 0.0439447 0)
(-0.0130199 0.0642697 0)
(-0.0234466 0.0788745 0)
(-0.0353412 0.0886949 0)
(-0.0481832 0.0946121 0)
(-0.0615831 0.0973845 0)
(-0.0752808 0.097607 0)
(-0.0891166 0.0956938 0)
(-0.102989 0.0918791 0)
(-0.116818 0.086232 0)
(-0.130505 0.0786827 0)
(-0.143905 0.0690567 0)
(-0.156789 0.0571195 0)
(-0.168818 0.042632 0)
(-0.179518 0.0254201 0)
(-0.188274 0.00545971 0)
(-0.194337 -0.0170242 0)
(-0.196866 -0.0414576 0)
(-0.194993 -0.0668234 0)
(-0.187945 -0.0916076 0)
(-0.175202 -0.113815 0)
(-0.156689 -0.1311 0)
(-0.132977 -0.141038 0)
(-0.105447 -0.141564 0)
(-0.0763255 -0.131526 0)
(-0.0484713 -0.111206 0)
(-0.0248344 -0.0825739 0)
(-0.00805718 -0.0490332 0)
(-0.000850725 -0.0148961 0)
(-0.000823588 0.0196904 0)
(-0.00518676 0.0505862 0)
(-0.0137693 0.0737673 0)
(-0.0247695 0.0903171 0)
(-0.0372844 0.101393 0)
(-0.0507659 0.108077 0)
(-0.0648193 0.111294 0)
(-0.0792 0.111764 0)
(-0.0937796 0.109984 0)
(-0.108499 0.106233 0)
(-0.123323 0.100582 0)
(-0.138206 0.092927 0)
(-0.153043 0.0830243 0)
(-0.16764 0.0705342 0)
(-0.181675 0.0550838 0)
(-0.194664 0.0363446 0)
(-0.205944 0.0141333 0)
(-0.214674 -0.0114674 0)
(-0.21986 -0.0399695 0)
(-0.220415 -0.0703504 0)
(-0.215282 -0.100948 0)
(-0.203596 -0.129429 0)
(-0.18492 -0.152876 0)
(-0.15952 -0.168072 0)
(-0.128642 -0.172002 0)
(-0.0946933 -0.162604 0)
(-0.0611177 -0.139591 0)
(-0.0317997 -0.105007 0)
(-0.0104969 -0.0630705 0)
(-0.0011593 -0.0194292 0)
(-0.000866703 0.022491 0)
(-0.00546898 0.0575971 0)
(-0.0145102 0.0837725 0)
(-0.0260553 0.102334 0)
(-0.0391294 0.114686 0)
(-0.0531506 0.122138 0)
(-0.0677172 0.125805 0)
(-0.0826005 0.126552 0)
(-0.0977059 0.124976 0)
(-0.113019 0.121404 0)
(-0.128559 0.115916 0)
(-0.144333 0.108376 0)
(-0.160295 0.0984609 0)
(-0.1763 0.0857177 0)
(-0.192067 0.0696199 0)
(-0.207138 0.0496565 0)
(-0.220845 0.0254453 0)
(-0.232301 -0.00312361 0)
(-0.240409 -0.0357173 0)
(-0.243905 -0.0713839 0)
(-0.241457 -0.108395 0)
(-0.231824 -0.144141 0)
(-0.214105 -0.17515 0)
(-0.188081 -0.197318 0)
(-0.154628 -0.206442 0)
(-0.1161 -0.199142 0)
(-0.0764153 -0.17408 0)
(-0.0405138 -0.133023 0)
(-0.0136521 -0.0810017 0)
(-0.00158406 -0.0253644 0)
(-0.000911633 0.0254397 0)
(-0.00576349 0.064979 0)
(-0.0152711 0.0942707 0)
(-0.0273381 0.114878 0)
(-0.0408999 0.128482 0)
(-0.0553318 0.136654 0)
(-0.0702212 0.140727 0)
(-0.085355 0.141734 0)
(-0.100672 0.140382 0)
(-0.116206 0.13706 0)
(-0.132028 0.131864 0)
(-0.148206 0.124625 0)
(-0.16476 0.114945 0)
(-0.181613 0.102253 0)
(-0.198551 0.0858596 0)
(-0.21518 0.0650555 0)
(-0.230886 0.0392312 0)
(-0.244806 0.00803886 0)
(-0.255817 -0.0284109 0)
(-0.26256 -0.0693271 0)
(-0.263489 -0.113035 0)
(-0.257 -0.156775 0)
(-0.241666 -0.196619 0)
(-0.216609 -0.227579 0)
(-0.182038 -0.244078 0)
(-0.139892 -0.240972 0)
(-0.094268 -0.215193 0)
(-0.0511381 -0.16758 0)
(-0.0176609 -0.103744 0)
(-0.00216183 -0.0331116 0)
(-0.000963538 0.0285475 0)
(-0.00609594 0.0727526 0)
(-0.0161048 0.105262 0)
(-0.0286852 0.127902 0)
(-0.0426568 0.142673 0)
(-0.0573401 0.151446 0)
(-0.0723079 0.155808 0)
(-0.087362 0.156982 0)
(-0.102476 0.155801 0)
(-0.117726 0.152729 0)
(-0.13324 0.147879 0)
(-0.149147 0.14106 0)
(-0.165534 0.131808 0)
(-0.182409 0.119436 0)
(-0.199652 0.103101 0)
(-0.216975 0.0818938 0)
(-0.233879 0.0549668 0)
(-0.249611 0.0217065 0)
(-0.263124 -0.0180555 0)
(-0.273079 -0.063786 0)
(-0.277835 -0.114007 0)
(-0.275508 -0.166 0)
(-0.264148 -0.21558 0)
(-0.242098 -0.25702 0)
(-0.208601 -0.283318 0)
(-0.164708 -0.287163 0)
(-0.114168 -0.262922 0)
(-0.0636946 -0.209444 0)
(-0.022659 -0.132267 0)
(-0.00294073 -0.0431615 0)
(-0.00103196 0.0318436 0)
(-0.00651113 0.0809726 0)
(-0.0171023 0.116774 0)
(-0.0302144 0.141368 0)
(-0.0445156 0.15713 0)
(-0.0592598 0.16629 0)
(-0.0740043 0.170727 0)
(-0.0885686 0.171878 0)
(-0.102962 0.170719 0)
(-0.117305 0.167792 0)
(-0.131776 0.163244 0)
(-0.146564 0.156867 0)
(-0.161828 0.148142 0)
(-0.177668 0.136288 0)
(-0.194079 0.120326 0)
(-0.21092 0.099166 0)
(-0.227866 0.0717383 0)
(-0.244358 0.0371614 0)
(-0.259538 -0.00504502 0)
(-0.272229 -0.0547155 0)
(-0.280856 -0.110692 0)
(-0.283405 -0.17053 0)
(-0.277517 -0.230098 0)
(-0.26074 -0.283238 0)
(-0.231129 -0.321698 0)
(-0.188338 -0.335782 0)
(-0.135023 -0.316411 0)
(-0.0779629 -0.258953 0)
(-0.0287603 -0.167504 0)
(-0.00398353 -0.0560864 0)
(-0.00113389 0.0353884 0)
(-0.0070838 0.0897493 0)
(-0.0184102 0.12888 0)
(-0.0321137 0.155252 0)
(-0.0466647 0.17171 0)
(-0.0612439 0.180918 0)
(-0.0754009 0.185094 0)
(-0.0889836 0.185914 0)
(-0.102044 0.184511 0)
(-0.114751 0.181512 0)
(-0.127331 0.1771 0)
(-0.140029 0.171064 0)
(-0.153077 0.16285 0)
(-0.16667 0.151608 0)
(-0.180935 0.136256 0)
(-0.195901 0.115564 0)
(-0.211462 0.0882736 0)
(-0.227325 0.0532592 0)
(-0.242949 0.00972559 0)
(-0.257434 -0.0425598 0)
(-0.269431 -0.10291 0)
(-0.277042 -0.169394 0)
(-0.277712 -0.238297 0)
(-0.268335 -0.303512 0)
(-0.245723 -0.355987 0)
(-0.207719 -0.383766 0)
(-0.15502 -0.373648 0)
(-0.0933579 -0.315686 0)
(-0.0360309 -0.210201 0)
(-0.00537333 -0.0725347 0)
(-0.00129949 0.039295 0)
(-0.00793616 0.0992817 0)
(-0.0202561 0.141721 0)
(-0.0346642 0.169556 0)
(-0.0493791 0.186251 0)
(-0.063517 0.195007 0)
(-0.0766456 0.198442 0)
(-0.0886668 0.198497 0)
(-0.0996939 0.196463 0)
(-0.109952 0.193054 0)
(-0.119721 0.188493 0)
(-0.129299 0.182577 0)
(-0.13899 0.174735 0)
(-0.149083 0.164084 0)
(-0.159839 0.14948 0)
(-0.171474 0.129605 0)
(-0.184124 0.103067 0)
(-0.197806 0.0685471 0)
(-0.212343 0.0249698 0)
(-0.227241 -0.0282761 0)
(-0.241569 -0.0910807 0)
(-0.253756 -0.162215 0)
(-0.261358 -0.238755 0)
(-0.260937 -0.315228 0)
(-0.248247 -0.382523 0)
(-0.219152 -0.42703 0)
(-0.171601 -0.431249 0)
(-0.108818 -0.3781 0)
(-0.0444609 -0.260693 0)
(-0.0072248 -0.0932188 0)
(-0.00158351 0.043765 0)
(-0.00926777 0.109902 0)
(-0.0229841 0.155526 0)
(-0.0382631 0.184301 0)
(-0.0530222 0.200549 0)
(-0.0663541 0.208159 0)
(-0.0779019 0.210215 0)
(-0.0876712 0.208939 0)
(-0.0958707 0.205779 0)
(-0.102803 0.201524 0)
(-0.108808 0.196432 0)
(-0.114244 0.190315 0)
(-0.11948 0.182608 0)
(-0.124896 0.172422 0)
(-0.130883 0.158604 0)
(-0.137834 0.139801 0)
(-0.146129 0.11456 0)
(-0.156094 0.0814371 0)
(-0.167942 0.0391489 0)
(-0.181646 -0.0132689 0)
(-0.196807 -0.0762698 0)
(-0.212395 -0.149421 0)
(-0.226416 -0.23088 0)
(-0.235553 -0.316406 0)
(-0.234966 -0.397774 0)
(-0.218743 -0.460854 0)
(-0.181608 -0.484474 0)
(-0.122735 -0.443185 0)
(-0.0539367 -0.318619 0)
(-0.00970467 -0.118906 0)
(-0.00208863 0.0491505 0)
(-0.0114077 0.122137 0)
(-0.0271026 0.170632 0)
(-0.0434384 0.199501 0)
(-0.0580123 0.214316 0)
(-0.0700004 0.219851 0)
(-0.0792294 0.219724 0)
(-0.0858907 0.216443 0)
(-0.0903439 0.211583 0)
(-0.0930006 0.205988 0)
(-0.0942802 0.199936 0)
(-0.094604 0.193251 0)
(-0.0944052 0.185387 0)
(-0.0941446 0.175481 0)
(-0.0943243 0.162409 0)
(-0.0954942 0.144843 0)
(-0.0982455 0.121332 0)
(-0.103185 0.0903894 0)
(-0.110887 0.0506056 0)
(-0.121799 0.000754686 0)
(-0.136083 -0.0600832 0)
(-0.153375 -0.132259 0)
(-0.172445 -0.215132 0)
(-0.190603 -0.306161 0)
(-0.203101 -0.398981 0)
(-0.202897 -0.480511 0)
(-0.181549 -0.52754 0)
(-0.132946 -0.506262 0)
(-0.0641984 -0.382559 0)
(-0.01306 -0.150423 0)
(-0.00301315 0.0560678 0)
(-0.0149041 0.13679 0)
(-0.0333398 0.187459 0)
(-0.0508188 0.215074 0)
(-0.0646978 0.227059 0)
(-0.0744609 0.229321 0)
(-0.0803021 0.226061 0)
(-0.0827225 0.220031 0)
(-0.082309 0.212884 0)
(-0.079626 0.205468 0)
(-0.0751924 0.198052 0)
(-0.0694988 0.190459 0)
(-0.0630363 0.182166 0)
(-0.0563286 0.172356 0)
(-0.0499612 0.159966 0)
(-0.0446015 0.14374 0)
(-0.0410028 0.122285 0)
(-0.0399936 0.0941484 0)
(-0.0424454 0.0578829 0)
(-0.0492081 0.0121196 0)
(-0.0609763 -0.0443712 0)
(-0.0780887 -0.112587 0)
(-0.100261 -0.192983 0)
(-0.12587 -0.284931 0)
(-0.15104 -0.38469 0)
(-0.168648 -0.481991 0)
(-0.167849 -0.554186 0)
(-0.136726 -0.561 0)
(-0.0747204 -0.449619 0)
(-0.0176318 -0.188661 0)
(-0.00474584 0.0656089 0)
(-0.0206689 0.155016 0)
(-0.0426632 0.206391 0)
(-0.060957 0.230623 0)
(-0.0729896 0.237851 0)
(-0.078979 0.235366 0)
(-0.0797717 0.227923 0)
(-0.0763456 0.21842 0)
(-0.0696062 0.208482 0)
(-0.0603144 0.198884 0)
(-0.0491043 0.189831 0)
(-0.0365319 0.181119 0)
(-0.0231285 0.172239 0)
(-0.00945016 0.162423 0)
(0.00387581 0.150694 0)
(0.0161179 0.135898 0)
(0.0264264 0.116753 0)
(0.0338275 0.0918969 0)
(0.0372383 0.0599372 0)
(0.0355049 0.0194835 0)
(0.0274881 -0.0308422 0)
(0.012238 -0.0924292 0)
(-0.0109594 -0.166617 0)
(-0.041807 -0.254367 0)
(-0.077981 -0.354993 0)
(-0.113578 -0.462591 0)
(-0.13685 -0.558354 0)
(-0.130643 -0.599621 0)
(-0.084378 -0.514894 0)
(-0.0237704 -0.234445 0)
(-0.00803908 0.0797351 0)
(-0.0301665 0.178334 0)
(-0.0560928 0.227421 0)
(-0.0736874 0.244952 0)
(-0.0813528 0.244869 0)
(-0.080777 0.235949 0)
(-0.0738543 0.223322 0)
(-0.0622286 0.209809 0)
(-0.0472003 0.196831 0)
(-0.0297438 0.184967 0)
(-0.0105924 0.174279 0)
(0.00966565 0.164495 0)
(0.0305027 0.155092 0)
(0.0513812 0.145351 0)
(0.0716931 0.134386 0)
(0.090714 0.12117 0)
(0.107573 0.104566 0)
(0.121236 0.0833584 0)
(0.130505 0.0562828 0)
(0.134027 0.0220391 0)
(0.130339 -0.0207366 0)
(0.11795 -0.0735525 0)
(0.0953967 -0.138231 0)
(0.0616486 -0.21683 0)
(0.0169355 -0.311427 0)
(-0.0352304 -0.421287 0)
(-0.0843623 -0.534868 0)
(-0.110008 -0.613224 0)
(-0.0906648 -0.570783 0)
(-0.031447 -0.288141 0)
(-0.0142425 0.101943 0)
(-0.0454348 0.208266 0)
(-0.0736655 0.249217 0)
(-0.0860811 0.255098 0)
(-0.0841403 0.244592 0)
(-0.0721051 0.227636 0)
(-0.0533297 0.209222 0)
(-0.0302281 0.191685 0)
(-0.00446419 0.175964 0)
(0.0228607 0.162269 0)
(0.051015 0.150425 0)
(0.0794782 0.140027 0)
(0.10782 0.130516 0)
(0.135609 0.121212 0)
(0.16234 0.111326 0)
(0.187377 0.099973 0)
(0.209915 0.0861903 0)
(0.228947 0.0689527 0)
(0.243253 0.0471901 0)
(0.251383 0.0197869 0)
(0.251673 -0.0144669 0)
(0.242282 -0.0569594 0)
(0.221163 -0.109511 0)
(0.186206 -0.17473 0)
(0.13569 -0.256486 0)
(0.0698242 -0.358927 0)
(-0.00466181 -0.480136 0)
(-0.0675841 -0.592262 0)
(-0.0882716 -0.606394 0)
(-0.039248 -0.349502 0)
(-0.0252159 0.138331 0)
(-0.0676845 0.244227 0)
(-0.0900931 0.266398 0)
(-0.0862919 0.254102 0)
(-0.064937 0.230344 0)
(-0.0338686 0.204813 0)
(0.00215474 0.181269 0)
(0.0402817 0.160885 0)
(0.0788612 0.143749 0)
(0.116999 0.12952 0)
(0.154236 0.117697 0)
(0.190328 0.107713 0)
(0.225102 0.0989651 0)
(0.258359 0.0908153 0)
(0.289798 0.0825873 0)
(0.318958 0.0735613 0)
(0.345181 0.0629772 0)
(0.367573 0.0500397 0)
(0.384985 0.0339249 0)
(0.395967 0.0137757 0)
(0.398798 -0.0113355 0)
(0.391465 -0.042482 0)
(0.371561 -0.0811947 0)
(0.33628 -0.129914 0)
(0.282413 -0.193015 0)
(0.206956 -0.277905 0)
(0.111027 -0.392522 0)
(0.00871336 -0.527411 0)
(-0.067041 -0.607186 0)
(-0.042348 -0.417113 0)
(-0.0406334 0.200043 0)
(-0.0886754 0.276456 0)
(-0.0785678 0.261395 0)
(-0.0366735 0.225795 0)
(0.0179219 0.189909 0)
(0.0757077 0.159079 0)
(0.132421 0.134124 0)
(0.186191 0.114372 0)
(0.236391 0.0988274 0)
(0.283013 0.0865666 0)
(0.326312 0.0768079 0)
(0.366605 0.0688857 0)
(0.404158 0.0622133 0)
(0.439119 0.0562498 0)
(0.471469 0.0504747 0)
(0.500985 0.0443711 0)
(0.527205 0.0374182 0)
(0.549408 0.0290876 0)
(0.566595 0.0188404 0)
(0.577444 0.0061136 0)
(0.580356 -0.00963094 0)
(0.573332 -0.0290702 0)
(0.553889 -0.0532319 0)
(0.51898 -0.0838649 0)
(0.464618 -0.124526 0)
(0.385455 -0.182924 0)
(0.276491 -0.273681 0)
(0.139433 -0.410339 0)
(-0.0069492 -0.552721 0)
(-0.0263148 -0.475983 0)
(-0.0334667 0.295085 0)
(-0.0457859 0.275124 0)
(0.0572872 0.201656 0)
(0.160937 0.150572 0)
(0.25287 0.11423 0)
(0.332698 0.0878836 0)
(0.401557 0.0690506 0)
(0.460921 0.0556062 0)
(0.512405 0.0458774 0)
(0.557506 0.0387091 0)
(0.597461 0.0333201 0)
(0.633232 0.0291543 0)
(0.66552 0.0257893 0)
(0.694781 0.0228822 0)
(0.721231 0.020135 0)
(0.744844 0.0172751 0)
(0.765347 0.0140439 0)
(0.782214 0.0101941 0)
(0.794645 0.00548901 0)
(0.801626 -0.000288144 0)
(0.801886 -0.00737299 0)
(0.793719 -0.016105 0)
(0.775046 -0.0268967 0)
(0.743196 -0.0405637 0)
(0.694321 -0.0589922 0)
(0.622242 -0.0870454 0)
(0.516875 -0.137957 0)
(0.363573 -0.240998 0)
(0.142986 -0.407169 0)
(0.058466 -0.458263 0)
(0.303499 0.181071 0)
(0.383607 0.144867 0)
(0.56309 0.0918264 0)
(0.68988 0.0594407 0)
(0.772748 0.03944 0)
(0.831638 0.0265745 0)
(0.876032 0.0183552 0)
(0.910502 0.0131435 0)
(0.938004 0.00980373 0)
(0.960596 0.00761652 0)
(0.979659 0.00614423 0)
(0.996098 0.00511428 0)
(1.0105 0.00434795 0)
(1.02322 0.00372045 0)
(1.03441 0.00313782 0)
(1.04407 0.00252369 0)
(1.05206 0.00181223 0)
(1.05808 0.000946595 0)
(1.06172 -0.000119886 0)
(1.06242 -0.0013959 0)
(1.05947 -0.00294894 0)
(1.05208 -0.00488105 0)
(1.03927 -0.00724518 0)
(1.01969 -0.0102042 0)
(0.991214 -0.0142096 0)
(0.949729 -0.0205505 0)
(0.885588 -0.0330533 0)
(0.777157 -0.0641586 0)
(0.545026 -0.139701 0)
(0.382489 -0.201846 0)
)
;

boundaryField
{
    movingWall
    {
        type            fixedValue;
        value           uniform (1.2 0 0);
    }
    fixedWalls
    {
        type            noSlip;
    }
    frontAndBack
    {
        type            empty;
    }
}


// ************************************************************************* //
