/*--------------------------------*- C++ -*----------------------------------*\
  =========                 |
  \\      /  F ield         | OpenFOAM: The Open Source CFD Toolbox
   \\    /   O peration     | Website:  https://openfoam.org
    \\  /    A nd           | Version:  7
     \\/     M anipulation  |
\*---------------------------------------------------------------------------*/
FoamFile
{
    version     2.0;
    format      ascii;
    class       volScalarField;
    location    "800";
    object      k;
}
// * * * * * * * * * * * * * * * * * * * * * * * * * * * * * * * * * * * * * //

dimensions      [0 2 -2 0 0 0 0];

internalField   nonuniform List<scalar> 
4500
(
2.10711
1.99003
1.89804
1.8345
1.78632
1.74875
1.71881
1.69443
1.67421
1.65718
1.64268
1.6302
1.61939
1.60996
1.6017
1.59444
1.58803
1.58238
1.57737
1.57295
1.56904
1.56558
1.56254
1.55986
1.55753
1.55549
1.55374
1.55223
1.55096
1.54991
1.54905
1.54837
1.54786
1.54751
1.54731
1.54724
1.54729
1.54746
1.54774
1.54812
1.5486
1.54916
1.54981
1.55053
1.55133
1.55219
1.55312
1.5541
1.55513
1.55621
1.55733
1.55849
1.55969
1.56091
1.56216
1.56342
1.5647
1.566
1.5673
1.56859
1.56988
1.57116
1.5724
1.5736
1.57474
1.5758
1.57678
1.57765
1.57841
1.57906
1.57961
1.58009
1.58054
1.581
1.58152
1.10354
1.6732
1.8379
1.85191
1.83283
1.80901
1.78664
1.7669
1.74973
1.73484
1.72188
1.71057
1.70066
1.69195
1.68428
1.6775
1.67151
1.6662
1.66151
1.65736
1.6537
1.65047
1.64764
1.64516
1.64301
1.64115
1.63956
1.63823
1.63712
1.63622
1.63551
1.63499
1.63463
1.63443
1.63437
1.63445
1.63464
1.63495
1.63536
1.63588
1.63649
1.63718
1.63797
1.63882
1.63975
1.64074
1.6418
1.64291
1.64407
1.64527
1.64651
1.64779
1.6491
1.65044
1.65179
1.65316
1.65454
1.65594
1.65734
1.65874
1.66013
1.66151
1.66287
1.66418
1.66543
1.66658
1.66762
1.6685
1.66922
1.66974
1.67007
1.67021
1.67022
1.67014
1.67001
0.644943
1.23225
1.53537
1.63719
1.66542
1.66864
1.66318
1.65482
1.64581
1.63702
1.62881
1.62129
1.61447
1.60833
1.60283
1.5979
1.59351
1.5896
1.58613
1.58307
1.58037
1.578
1.57594
1.57416
1.57264
1.57135
1.57029
1.56943
1.56875
1.56825
1.56791
1.56772
1.56767
1.56775
1.56795
1.56826
1.56868
1.56918
1.56978
1.57046
1.57122
1.57206
1.57297
1.57394
1.57497
1.57606
1.57719
1.57837
1.57959
1.58085
1.58213
1.58344
1.58478
1.58613
1.58749
1.58886
1.59023
1.59162
1.593
1.59439
1.59577
1.59715
1.59849
1.59979
1.60101
1.60211
1.60304
1.60377
1.60424
1.60443
1.60431
1.60389
1.60322
1.60238
1.60144
0.463615
0.893401
1.25805
1.43575
1.5127
1.54555
1.55894
1.56332
1.56337
1.56132
1.55829
1.55487
1.55137
1.54798
1.54477
1.54181
1.5391
1.53665
1.53446
1.53253
1.53083
1.52936
1.52811
1.52705
1.52619
1.5255
1.52498
1.52462
1.5244
1.52432
1.52436
1.52453
1.52481
1.52519
1.52567
1.52625
1.52691
1.52765
1.52845
1.52933
1.53027
1.53127
1.53233
1.53345
1.53461
1.53581
1.53706
1.53834
1.53965
1.54099
1.54234
1.54372
1.5451
1.5465
1.5479
1.5493
1.5507
1.5521
1.5535
1.5549
1.55629
1.55767
1.55902
1.5603
1.56149
1.56252
1.56335
1.5639
1.56412
1.56397
1.56341
1.56247
1.5612
1.55972
1.55813
0.39407
0.646738
0.998479
1.23088
1.35547
1.4206
1.45545
1.47456
1.48513
1.49089
1.49385
1.49516
1.49547
1.49521
1.49462
1.49387
1.49306
1.49226
1.49151
1.49084
1.49026
1.48979
1.48943
1.48919
1.48906
1.48904
1.48912
1.48932
1.48961
1.49
1.49048
1.49104
1.49169
1.49242
1.49323
1.4941
1.49504
1.49604
1.49708
1.49818
1.49934
1.50053
1.50177
1.50306
1.50437
1.50573
1.50711
1.50851
1.50994
1.51138
1.51283
1.51429
1.51575
1.51721
1.51866
1.52011
1.52155
1.52299
1.52442
1.52584
1.52726
1.52865
1.52999
1.53125
1.53239
1.53335
1.53404
1.53441
1.53437
1.53389
1.53294
1.53154
1.52978
1.52779
1.52574
0.370615
0.488905
0.769299
1.02349
1.18836
1.28645
1.34497
1.38088
1.40366
1.41854
1.4285
1.43532
1.44007
1.44345
1.44589
1.4477
1.44908
1.45017
1.45107
1.45184
1.45255
1.45323
1.45389
1.45457
1.45527
1.45601
1.45679
1.45761
1.45848
1.45941
1.46038
1.4614
1.46248
1.4636
1.46477
1.46598
1.46724
1.46853
1.46986
1.47122
1.47261
1.47404
1.47549
1.47697
1.47847
1.47999
1.48153
1.48308
1.48464
1.48621
1.48778
1.48934
1.4909
1.49244
1.49397
1.49549
1.49699
1.49847
1.49994
1.5014
1.50283
1.50423
1.50557
1.50681
1.50789
1.50874
1.5093
1.50948
1.5092
1.50842
1.50712
1.50534
1.50318
1.50083
1.49847
0.364546
0.403111
0.587007
0.823641
1.01304
1.14094
1.22398
1.27842
1.31506
1.34046
1.35856
1.3718
1.38173
1.38935
1.39533
1.40011
1.40404
1.40732
1.41012
1.41258
1.41476
1.41675
1.4186
1.42033
1.42199
1.4236
1.42517
1.42672
1.42826
1.42979
1.43133
1.43287
1.43443
1.436
1.43759
1.43919
1.44081
1.44245
1.44409
1.44575
1.44742
1.44911
1.4508
1.45251
1.45422
1.45594
1.45767
1.45939
1.46112
1.46283
1.46454
1.46622
1.4679
1.46954
1.47117
1.47276
1.47433
1.47588
1.4774
1.4789
1.48036
1.48177
1.4831
1.4843
1.48532
1.48608
1.4865
1.48649
1.48599
1.48494
1.48335
1.48126
1.47881
1.4762
1.47367
0.364603
0.363346
0.460994
0.64658
0.836783
0.985712
1.09154
1.16521
1.21704
1.25428
1.28169
1.30236
1.31829
1.33084
1.34093
1.34918
1.35605
1.36188
1.3669
1.37129
1.37519
1.3787
1.38191
1.38487
1.38763
1.39024
1.39272
1.3951
1.3974
1.39963
1.40182
1.40396
1.40607
1.40816
1.41023
1.41228
1.41431
1.41634
1.41835
1.42035
1.42234
1.42433
1.4263
1.42827
1.43023
1.43218
1.43412
1.43605
1.43796
1.43984
1.44171
1.44354
1.44535
1.44712
1.44885
1.45055
1.45221
1.45383
1.45542
1.45696
1.45846
1.45988
1.46121
1.46238
1.46334
1.464
1.46429
1.46412
1.46342
1.46215
1.46031
1.45799
1.45532
1.45254
1.44992
0.366685
0.347483
0.386684
0.507132
0.671669
0.826391
0.949252
1.04089
1.10836
1.15845
1.19625
1.22534
1.24815
1.26638
1.28121
1.29348
1.30378
1.31256
1.32014
1.32678
1.33266
1.33794
1.34271
1.34708
1.35112
1.35488
1.35841
1.36175
1.36493
1.36797
1.3709
1.37373
1.37647
1.37915
1.38177
1.38433
1.38685
1.38932
1.39175
1.39415
1.3965
1.39883
1.40113
1.4034
1.40564
1.40785
1.41004
1.4122
1.41432
1.41641
1.41846
1.42047
1.42243
1.42435
1.42621
1.42803
1.42979
1.4315
1.43316
1.43477
1.43631
1.43775
1.43908
1.44023
1.44114
1.44172
1.4419
1.44159
1.44072
1.43927
1.43725
1.43474
1.43192
1.42903
1.42638
0.369317
0.342581
0.348917
0.412157
0.531963
0.672822
0.801903
0.907129
0.989078
1.05222
1.10113
1.13949
1.17002
1.1947
1.21496
1.23184
1.24608
1.25827
1.26882
1.27805
1.28623
1.29353
1.30012
1.30612
1.31163
1.31672
1.32146
1.3259
1.33009
1.33406
1.33784
1.34146
1.34494
1.3483
1.35154
1.35469
1.35776
1.36074
1.36366
1.3665
1.36928
1.372
1.37467
1.37728
1.37985
1.38237
1.38484
1.38726
1.38964
1.39196
1.39422
1.39643
1.39858
1.40066
1.40268
1.40463
1.40652
1.40834
1.41009
1.41177
1.41336
1.41485
1.41618
1.41732
1.41819
1.41871
1.4188
1.41838
1.41739
1.4158
1.41365
1.41101
1.40809
1.40514
1.40248
0.371958
0.342445
0.332102
0.356566
0.42837
0.537786
0.658014
0.768348
0.860997
0.935939
0.995905
1.044
1.08291
1.11474
1.1411
1.16319
1.18194
1.19802
1.21198
1.2242
1.23501
1.24466
1.25334
1.26122
1.26842
1.27504
1.28118
1.28689
1.29224
1.29728
1.30205
1.30658
1.3109
1.31503
1.319
1.32283
1.32652
1.33009
1.33356
1.33692
1.34018
1.34336
1.34645
1.34946
1.3524
1.35527
1.35807
1.3608
1.36346
1.36605
1.36856
1.371
1.37336
1.37564
1.37784
1.37996
1.38199
1.38394
1.3858
1.38757
1.38923
1.39076
1.39212
1.39326
1.39411
1.3946
1.39463
1.39413
1.39305
1.39137
1.38912
1.38641
1.38343
1.38045
1.3778
0.374409
0.344309
0.325896
0.328085
0.362098
0.432748
0.529167
0.632415
0.728536
0.811707
0.881286
0.938793
0.986292
1.02573
1.05874
1.08663
1.11042
1.13091
1.14873
1.16436
1.17819
1.19052
1.20161
1.21164
1.22079
1.22918
1.23691
1.24409
1.25078
1.25705
1.26294
1.26851
1.2738
1.27883
1.28363
1.28823
1.29265
1.29689
1.30099
1.30494
1.30876
1.31246
1.31604
1.31951
1.32288
1.32615
1.32932
1.33241
1.3354
1.33829
1.3411
1.3438
1.34641
1.34892
1.35133
1.35363
1.35584
1.35793
1.35993
1.3618
1.36356
1.36515
1.36656
1.36772
1.36858
1.36905
1.36905
1.36851
1.36738
1.36565
1.36336
1.36061
1.3576
1.35462
1.35198
0.376595
0.346935
0.32478
0.315189
0.325142
0.361913
0.426574
0.510145
0.599357
0.684171
0.759763
0.824969
0.880429
0.92743
0.967348
1.00143
1.03072
1.05608
1.07822
1.09769
1.11493
1.13032
1.14415
1.15665
1.16802
1.17843
1.188
1.19685
1.20508
1.21276
1.21995
1.22672
1.23312
1.23917
1.24493
1.25042
1.25566
1.26068
1.2655
1.27014
1.2746
1.27889
1.28303
1.28702
1.29088
1.29462
1.29823
1.30171
1.30508
1.30834
1.31147
1.31449
1.31738
1.32016
1.32281
1.32534
1.32774
1.33002
1.33216
1.33418
1.33604
1.33772
1.3392
1.34041
1.34129
1.34177
1.34177
1.34123
1.34009
1.33836
1.33606
1.33332
1.33031
1.32733
1.3247
0.378494
0.349749
0.326042
0.310425
0.306798
0.320311
0.355502
0.412199
0.483847
0.561114
0.636428
0.705553
0.766924
0.820518
0.867011
0.907312
0.942336
0.972909
0.999742
1.02343
1.04448
1.06329
1.08019
1.09548
1.10938
1.12209
1.13376
1.14452
1.1545
1.1638
1.17248
1.18062
1.18828
1.19552
1.20237
1.20888
1.21507
1.22098
1.22663
1.23205
1.23724
1.24221
1.247
1.2516
1.25602
1.26029
1.26439
1.26835
1.27216
1.27582
1.27934
1.28271
1.28594
1.28902
1.29195
1.29474
1.29738
1.29986
1.3022
1.30437
1.30637
1.30817
1.30973
1.31101
1.31195
1.31247
1.31251
1.312
1.31089
1.30919
1.30693
1.30422
1.30125
1.29829
1.29566
0.380104
0.352469
0.328352
0.309741
0.298825
0.298554
0.31258
0.343818
0.391993
0.452699
0.519406
0.586268
0.64949
0.707223
0.758929
0.804788
0.845312
0.881119
0.912829
0.94101
0.96616
0.988712
1.00903
1.02742
1.04416
1.05945
1.07348
1.08642
1.09839
1.10952
1.11989
1.1296
1.13872
1.1473
1.15541
1.16308
1.17036
1.17729
1.18389
1.19019
1.19621
1.20198
1.2075
1.2128
1.21787
1.22275
1.22743
1.23192
1.23623
1.24036
1.24432
1.24811
1.25172
1.25516
1.25842
1.26151
1.26442
1.26715
1.2697
1.27207
1.27423
1.27617
1.27785
1.27924
1.28026
1.28086
1.28096
1.28052
1.27949
1.27785
1.27567
1.27303
1.27012
1.26719
1.26456
0.381432
0.354953
0.331036
0.311052
0.296302
0.288389
0.289475
0.302115
0.328313
0.36807
0.418684
0.475701
0.534633
0.59211
0.646117
0.695722
0.740693
0.781189
0.817558
0.850219
0.879597
0.906091
0.930062
0.951828
0.971665
0.989815
1.00648
1.02185
1.03606
1.04926
1.06155
1.07303
1.08379
1.0939
1.10343
1.11244
1.12096
1.12905
1.13673
1.14405
1.15103
1.1577
1.16407
1.17015
1.17598
1.18155
1.18689
1.192
1.19689
1.20156
1.20603
1.21029
1.21434
1.21819
1.22183
1.22527
1.2285
1.23152
1.23433
1.23693
1.23929
1.24141
1.24325
1.24476
1.2459
1.2466
1.24681
1.24647
1.24555
1.24403
1.24195
1.23942
1.23659
1.23372
1.23109
0.382496
0.357126
0.333732
0.313269
0.296566
0.284515
0.278275
0.279385
0.28963
0.310488
0.342261
0.383516
0.431393
0.482568
0.53415
0.584096
0.631194
0.674873
0.714976
0.751595
0.784951
0.815323
0.843002
0.868273
0.8914
0.912621
0.932149
0.950173
0.966858
0.982351
0.996776
1.01025
1.02286
1.0347
1.04584
1.05634
1.06627
1.07568
1.0846
1.09308
1.10115
1.10884
1.11617
1.12316
1.12984
1.13622
1.14231
1.14812
1.15368
1.15898
1.16403
1.16883
1.1734
1.17772
1.1818
1.18564
1.18924
1.1926
1.19572
1.19859
1.20119
1.20352
1.20555
1.20723
1.20852
1.20937
1.20972
1.20952
1.20874
1.20736
1.20544
1.20304
1.20033
1.19752
1.19491
0.383317
0.358954
0.336237
0.315805
0.298201
0.28395
0.27367
0.268176
0.268537
0.276002
0.291697
0.316126
0.348733
0.387879
0.431278
0.47661
0.521952
0.565944
0.607754
0.646952
0.683386
0.71708
0.748158
0.776798
0.803195
0.827551
0.850059
0.870898
0.890233
0.908214
0.924972
0.940628
0.955288
0.969044
0.981982
0.994173
1.00568
1.01657
1.02689
1.03667
1.04598
1.05482
1.06325
1.07128
1.07893
1.08622
1.09317
1.09979
1.10611
1.11212
1.11784
1.12327
1.12842
1.13329
1.13788
1.14219
1.14622
1.14997
1.15344
1.15663
1.15952
1.16211
1.16436
1.16625
1.16773
1.16876
1.16929
1.16927
1.16867
1.16748
1.16574
1.16352
1.16095
1.15824
1.15566
0.383926
0.360429
0.338437
0.318319
0.300425
0.285071
0.272597
0.26342
0.258096
0.257353
0.262057
0.273062
0.290942
0.315686
0.346543
0.382133
0.420773
0.460828
0.500941
0.540122
0.577726
0.61338
0.646914
0.678293
0.707566
0.734832
0.760217
0.783859
0.805894
0.826457
0.845674
0.863661
0.880526
0.896366
0.911269
0.925315
0.938573
0.951108
0.962977
0.974231
0.984913
0.995065
1.00472
1.01391
1.02266
1.03099
1.03892
1.04646
1.05364
1.06047
1.06695
1.0731
1.07892
1.08441
1.08957
1.09442
1.09895
1.10315
1.10704
1.1106
1.11384
1.11673
1.11926
1.1214
1.12311
1.12437
1.12511
1.12531
1.12493
1.12396
1.12244
1.12043
1.11804
1.11547
1.11295
0.384356
0.361567
0.340271
0.320613
0.302785
0.286971
0.273357
0.262155
0.253642
0.248183
0.246262
0.248465
0.255422
0.267671
0.285474
0.308658
0.336564
0.368157
0.40222
0.437572
0.473202
0.508334
0.542423
0.575121
0.606232
0.63567
0.663425
0.689534
0.714068
0.73711
0.758756
0.779099
0.798235
0.816251
0.833234
0.84926
0.864403
0.878727
0.892293
0.905156
0.917363
0.928958
0.939981
0.950466
0.960444
0.969936
0.978963
0.987545
0.995702
1.00345
1.0108
1.01775
1.02433
1.03053
1.03636
1.04183
1.04692
1.05165
1.05601
1.06001
1.06364
1.06689
1.06975
1.07219
1.07419
1.07571
1.07671
1.07717
1.07705
1.07635
1.07509
1.07333
1.07117
1.06876
1.06634
0.384645
0.3624
0.341721
0.322574
0.305012
0.28912
0.274988
0.262719
0.252442
0.244331
0.238618
0.235613
0.235703
0.239328
0.246928
0.258848
0.275219
0.295877
0.320342
0.347879
0.377621
0.408696
0.440324
0.471868
0.502846
0.532919
0.561867
0.589563
0.615944
0.641
0.664751
0.687239
0.708519
0.728653
0.747706
0.765743
0.782828
0.799021
0.814379
0.828957
0.842801
0.855959
0.86847
0.88037
0.891694
0.902468
0.912714
0.92245
0.931696
0.94047
0.948787
0.956657
0.96409
0.971094
0.977672
0.98383
0.98957
0.994896
0.99981
1.00431
1.0084
1.01207
1.01531
1.01811
1.02043
1.02227
1.02358
1.02435
1.02454
1.02415
1.0232
1.02174
1.01984
1.01766
1.01539
0.384827
0.362976
0.342805
0.324148
0.306947
0.291198
0.276922
0.264155
0.252946
0.243368
0.235524
0.229553
0.225648
0.224051
0.225056
0.228985
0.236149
0.246788
0.260999
0.278687
0.299546
0.323088
0.348708
0.375765
0.403652
0.431835
0.459883
0.487464
0.514338
0.540342
0.565373
0.589375
0.612327
0.634233
0.655112
0.674995
0.693921
0.711931
0.729071
0.745381
0.760906
0.775686
0.789757
0.803156
0.815915
0.828063
0.839623
0.850614
0.861052
0.870954
0.880338
0.889216
0.897598
0.905491
0.912904
0.919841
0.926307
0.932305
0.937841
0.942915
0.94753
0.951684
0.955372
0.958583
0.961304
0.963514
0.965192
0.966316
0.966869
0.966846
0.966259
0.965148
0.963582
0.961682
0.959633
0.384935
0.363349
0.343566
0.325333
0.308509
0.293015
0.278815
0.265893
0.254251
0.243905
0.234889
0.227257
0.221089
0.216497
0.213627
0.212662
0.213817
0.217326
0.223417
0.232273
0.243994
0.258559
0.275806
0.295441
0.317067
0.340231
0.364466
0.389336
0.414459
0.439515
0.464253
0.488484
0.51207
0.534916
0.556964
0.578181
0.598555
0.618086
0.636787
0.654676
0.671778
0.688118
0.703722
0.718617
0.73283
0.746385
0.759303
0.771606
0.783302
0.794406
0.804932
0.814894
0.824302
0.833164
0.841489
0.849281
0.856547
0.863292
0.869521
0.87524
0.880453
0.885161
0.889365
0.89306
0.89624
0.898891
0.900999
0.90255
0.90353
0.903938
0.903782
0.903094
0.901932
0.900397
0.898653
0.384994
0.363574
0.344062
0.326166
0.309682
0.294477
0.280464
0.267588
0.255813
0.24512
0.235503
0.226971
0.219547
0.21327
0.208201
0.204423
0.202042
0.201191
0.202024
0.20471
0.209419
0.216301
0.22546
0.236932
0.250663
0.266508
0.284234
0.303546
0.32411
0.345586
0.367651
0.390012
0.41242
0.434669
0.456596
0.478075
0.499014
0.519345
0.539026
0.558027
0.576336
0.593945
0.610859
0.627083
0.642626
0.657502
0.671722
0.685299
0.698244
0.710558
0.722249
0.733328
0.743802
0.75368
0.762968
0.771672
0.779799
0.787353
0.794344
0.800776
0.806657
0.811994
0.81679
0.821048
0.824765
0.827939
0.83056
0.83262
0.834114
0.835038
0.835403
0.835233
0.834574
0.83351
0.832183
0.385025
0.363699
0.344363
0.326707
0.310498
0.295561
0.281772
0.269042
0.257306
0.246517
0.236644
0.227667
0.219578
0.21238
0.206088
0.20073
0.196348
0.193
0.190761
0.189721
0.18999
0.191688
0.19494
0.199869
0.206575
0.215125
0.225537
0.237769
0.251715
0.267211
0.284048
0.301987
0.320777
0.340173
0.359944
0.379887
0.399823
0.419607
0.439118
0.458259
0.476958
0.495157
0.512815
0.529902
0.546397
0.562285
0.577558
0.592212
0.606243
0.61965
0.632423
0.644562
0.656069
0.666947
0.6772
0.686832
0.695848
0.704253
0.712055
0.719261
0.725882
0.731925
0.7374
0.742312
0.746667
0.750466
0.753708
0.75639
0.758511
0.760072
0.76108
0.761556
0.761534
0.761083
0.760322
0.385039
0.363763
0.344529
0.327031
0.311019
0.296298
0.282719
0.270166
0.25855
0.247804
0.237875
0.228725
0.220326
0.21266
0.205716
0.199495
0.194005
0.189262
0.185294
0.182139
0.179847
0.178479
0.178108
0.178817
0.180697
0.18384
0.188336
0.194259
0.201662
0.210564
0.220946
0.232746
0.24586
0.260148
0.275447
0.291573
0.308341
0.325568
0.343085
0.360736
0.378386
0.395916
0.413229
0.43024
0.446883
0.463101
0.478851
0.494095
0.508807
0.522962
0.536545
0.549526
0.561896
0.573648
0.584776
0.595279
0.605157
0.614413
0.623052
0.631081
0.638509
0.645345
0.6516
0.657284
0.662404
0.666967
0.670976
0.674435
0.677344
0.679705
0.681527
0.682823
0.683621
0.68397
0.68397
0.385045
0.363793
0.344613
0.327207
0.311323
0.296756
0.283344
0.270952
0.259476
0.248832
0.238951
0.229781
0.221278
0.213411
0.206155
0.199492
0.193412
0.187912
0.182994
0.178668
0.17495
0.171863
0.169439
0.167716
0.166741
0.16657
0.167264
0.16889
0.171516
0.175209
0.180029
0.18602
0.19321
0.2016
0.211164
0.221846
0.233564
0.24621
0.259659
0.273776
0.288419
0.303449
0.318732
0.334145
0.349572
0.364915
0.380084
0.395002
0.409603
0.423831
0.43764
0.45099
0.463837
0.476156
0.487924
0.499128
0.509757
0.519804
0.529266
0.538146
0.546446
0.554173
0.561334
0.567938
0.573992
0.579502
0.584475
0.588914
0.592821
0.596199
0.599053
0.601392
0.603234
0.604615
0.605606
0.385047
0.363805
0.344651
0.327293
0.311482
0.297013
0.283715
0.271447
0.260093
0.249557
0.239761
0.230639
0.22214
0.21422
0.206844
0.199984
0.193619
0.187734
0.182318
0.177365
0.172874
0.16885
0.165302
0.162241
0.159688
0.157665
0.156202
0.155334
0.155098
0.155542
0.156711
0.158657
0.16143
0.165076
0.169635
0.175137
0.181598
0.189016
0.197369
0.206617
0.216697
0.227534
0.239034
0.251096
0.263613
0.276476
0.289579
0.302819
0.316101
0.329337
0.342448
0.355367
0.36803
0.380377
0.392361
0.403944
0.415094
0.425786
0.435999
0.44572
0.454937
0.463645
0.471841
0.479523
0.486692
0.493349
0.499494
0.505129
0.510252
0.514864
0.518966
0.522562
0.525661
0.528283
0.530474
0.385048
0.36381
0.344666
0.32733
0.311556
0.29714
0.28391
0.271721
0.260452
0.250001
0.240283
0.231225
0.222767
0.214859
0.207459
0.200533
0.194052
0.187994
0.18234
0.177077
0.172195
0.167688
0.163555
0.159795
0.156413
0.153417
0.150818
0.148631
0.146872
0.145563
0.144731
0.144402
0.14461
0.145388
0.146775
0.148806
0.15152
0.154949
0.159124
0.164065
0.169784
0.176281
0.183544
0.191544
0.200241
0.20958
0.219497
0.229918
0.240763
0.251947
0.263385
0.274995
0.286697
0.298411
0.310061
0.32158
0.332904
0.34398
0.354758
0.365197
0.375261
0.384923
0.394157
0.402946
0.411275
0.419131
0.426507
0.433394
0.439787
0.44568
0.45107
0.455953
0.460333
0.464218
0.467627
0.385048
0.363811
0.344671
0.327343
0.311584
0.297191
0.283992
0.271841
0.260616
0.250212
0.24054
0.231524
0.2231
0.215215
0.207823
0.200885
0.19437
0.18825
0.182505
0.177117
0.172072
0.16736
0.162973
0.158908
0.155163
0.151739
0.148639
0.14587
0.14344
0.14136
0.139644
0.138308
0.13737
0.136854
0.136782
0.137182
0.138083
0.139516
0.141514
0.144108
0.147331
0.15121
0.155769
0.161027
0.166992
0.173664
0.181028
0.189061
0.197723
0.206965
0.216724
0.22693
0.237506
0.248369
0.259434
0.270612
0.28182
0.292976
0.304008
0.314847
0.325434
0.335717
0.345652
0.355203
0.36434
0.373039
0.38128
0.389049
0.396332
0.40312
0.409405
0.41518
0.420443
0.425195
0.429441
0.385048
0.363811
0.344671
0.327343
0.311584
0.297191
0.283992
0.271841
0.260616
0.250212
0.24054
0.231524
0.2231
0.215215
0.207823
0.200885
0.19437
0.18825
0.182505
0.177117
0.172072
0.16736
0.162973
0.158908
0.155163
0.151739
0.148639
0.14587
0.14344
0.14136
0.139644
0.138307
0.13737
0.136853
0.136781
0.137181
0.138082
0.139515
0.141513
0.144107
0.14733
0.151209
0.155768
0.161026
0.166991
0.173662
0.181027
0.189059
0.197722
0.206963
0.216723
0.226929
0.237504
0.248368
0.259432
0.270611
0.281818
0.292975
0.304006
0.314845
0.325433
0.335716
0.345652
0.355203
0.36434
0.37304
0.381281
0.389049
0.396332
0.403117
0.409398
0.415168
0.420424
0.425167
0.429403
0.385048
0.36381
0.344666
0.32733
0.311556
0.29714
0.28391
0.271721
0.260452
0.250001
0.240283
0.231225
0.222767
0.214859
0.207459
0.200533
0.194052
0.187994
0.18234
0.177077
0.172194
0.167688
0.163554
0.159794
0.156412
0.153416
0.150817
0.148628
0.146869
0.14556
0.144727
0.144397
0.144604
0.145382
0.146767
0.148798
0.15151
0.154938
0.159111
0.16405
0.169768
0.176264
0.183525
0.191523
0.200219
0.209557
0.219472
0.229892
0.240735
0.251918
0.263356
0.274965
0.286666
0.29838
0.31003
0.321549
0.332873
0.343949
0.354727
0.365167
0.375232
0.384895
0.394131
0.402921
0.411251
0.419109
0.426485
0.433371
0.439761
0.445647
0.451026
0.455895
0.460255
0.464115
0.467496
0.385047
0.363805
0.344651
0.327293
0.311482
0.297013
0.283715
0.271447
0.260093
0.249557
0.239761
0.23064
0.222141
0.21422
0.206844
0.199984
0.193619
0.187734
0.182317
0.177364
0.172873
0.168849
0.165299
0.162238
0.159684
0.15766
0.156196
0.155326
0.155089
0.155531
0.156698
0.158642
0.161412
0.165055
0.169611
0.17511
0.181568
0.188982
0.197331
0.206575
0.216652
0.227485
0.238982
0.251041
0.263556
0.276417
0.289517
0.302756
0.316036
0.329271
0.342381
0.355299
0.367962
0.380308
0.392292
0.403876
0.415026
0.425718
0.435932
0.445654
0.454873
0.463583
0.47178
0.479465
0.486636
0.493294
0.499439
0.505071
0.510189
0.51479
0.518875
0.522447
0.525515
0.5281
0.530249
0.385045
0.363793
0.344613
0.327207
0.311323
0.296757
0.283344
0.270953
0.259477
0.248833
0.238952
0.229782
0.221279
0.213412
0.206155
0.199492
0.193412
0.187911
0.182993
0.178666
0.174946
0.171858
0.169432
0.167707
0.166731
0.166557
0.167248
0.16887
0.171492
0.175181
0.179996
0.185982
0.193167
0.201551
0.211109
0.221786
0.233498
0.246138
0.259583
0.273695
0.288334
0.30336
0.318641
0.33405
0.349476
0.364817
0.379984
0.394901
0.409501
0.423729
0.437537
0.450888
0.463735
0.476054
0.487823
0.499027
0.509657
0.519704
0.529168
0.538049
0.546351
0.554081
0.561245
0.567851
0.573907
0.579419
0.584391
0.588825
0.592722
0.596084
0.598914
0.601221
0.603022
0.604354
0.605292
0.385039
0.363763
0.344529
0.327031
0.311019
0.296299
0.28272
0.270167
0.258551
0.247805
0.237876
0.228726
0.220327
0.21266
0.205716
0.199494
0.194003
0.189258
0.185289
0.182132
0.179838
0.178466
0.178092
0.178796
0.180671
0.183809
0.188298
0.194215
0.20161
0.210504
0.220878
0.23267
0.245775
0.260057
0.275348
0.291468
0.30823
0.325453
0.342966
0.360614
0.378261
0.395789
0.4131
0.430111
0.446752
0.462971
0.47872
0.493965
0.508677
0.522833
0.536416
0.549398
0.561769
0.573521
0.58465
0.595154
0.605034
0.614291
0.622932
0.630963
0.638393
0.645232
0.651491
0.657177
0.6623
0.666863
0.67087
0.674321
0.677216
0.679555
0.681345
0.6826
0.683346
0.683636
0.683572
0.385025
0.363699
0.344363
0.326708
0.310499
0.295562
0.281774
0.269044
0.257308
0.246519
0.236645
0.227668
0.219578
0.212379
0.206086
0.200726
0.196342
0.192991
0.190748
0.189704
0.189968
0.191659
0.194904
0.199824
0.20652
0.215061
0.225462
0.237683
0.251618
0.267104
0.283932
0.301862
0.320645
0.340034
0.3598
0.379738
0.399672
0.419453
0.438962
0.458103
0.476801
0.495
0.512659
0.529746
0.546241
0.562131
0.577405
0.59206
0.606092
0.619501
0.632276
0.644416
0.655924
0.666804
0.677058
0.686692
0.695709
0.704116
0.71192
0.719129
0.725753
0.7318
0.737278
0.742194
0.746551
0.750349
0.753586
0.756258
0.75836
0.759892
0.76086
0.761284
0.7612
0.760678
0.759845
0.384994
0.363574
0.344063
0.326167
0.309684
0.294479
0.280466
0.267591
0.255816
0.245122
0.235505
0.226971
0.219545
0.213266
0.208194
0.204412
0.202027
0.20117
0.201995
0.204673
0.209371
0.216241
0.225387
0.236845
0.250562
0.266393
0.284106
0.303406
0.323959
0.345427
0.367484
0.38984
0.412243
0.43449
0.456415
0.477893
0.498831
0.519163
0.538844
0.557847
0.576157
0.593768
0.610684
0.626909
0.642455
0.657333
0.671555
0.685134
0.698081
0.710397
0.72209
0.733171
0.743647
0.753527
0.762816
0.771522
0.77965
0.787207
0.7942
0.800635
0.80652
0.811861
0.816662
0.820923
0.824643
0.827815
0.830429
0.832476
0.833944
0.834833
0.835148
0.834915
0.834182
0.833037
0.831627
0.384935
0.36335
0.343567
0.325335
0.308511
0.293018
0.278818
0.265896
0.254254
0.243907
0.234889
0.227254
0.221083
0.216486
0.21361
0.212637
0.213783
0.21728
0.223357
0.232198
0.243902
0.258448
0.275678
0.295296
0.316907
0.340058
0.364282
0.389144
0.41426
0.439311
0.464047
0.488276
0.511861
0.534708
0.556758
0.577977
0.598352
0.617886
0.636589
0.654482
0.671586
0.687929
0.703536
0.718434
0.73265
0.746207
0.759129
0.771433
0.783133
0.794239
0.804767
0.814731
0.824141
0.833005
0.841332
0.849126
0.856394
0.863141
0.869374
0.875096
0.880313
0.885026
0.889235
0.892934
0.896115
0.898764
0.900864
0.902396
0.903346
0.903709
0.903494
0.902733
0.901485
0.899857
0.898021
0.384827
0.362977
0.342807
0.324151
0.30695
0.291202
0.276926
0.264158
0.252948
0.243368
0.235519
0.229544
0.225631
0.224025
0.225019
0.228933
0.23608
0.246699
0.260888
0.278554
0.299392
0.322913
0.348516
0.37556
0.403435
0.431611
0.459654
0.487232
0.514105
0.540109
0.565141
0.589146
0.612101
0.63401
0.654892
0.674779
0.693709
0.711723
0.728866
0.745181
0.760709
0.775492
0.789567
0.80297
0.815732
0.827882
0.839446
0.85044
0.86088
0.870785
0.880171
0.889051
0.897435
0.905331
0.912746
0.919685
0.926152
0.932154
0.937692
0.942771
0.947391
0.95155
0.955243
0.958459
0.961181
0.963388
0.965055
0.966156
0.966673
0.966597
0.965941
0.964744
0.963079
0.961076
0.958926
0.384645
0.362402
0.341724
0.322578
0.305017
0.289125
0.274992
0.262721
0.252441
0.244324
0.238605
0.23559
0.235666
0.239274
0.246854
0.258749
0.275094
0.295725
0.320163
0.347677
0.3774
0.408461
0.440078
0.471615
0.502589
0.532661
0.56161
0.589308
0.615692
0.640752
0.664508
0.687
0.708285
0.728424
0.747482
0.765524
0.782613
0.798811
0.814174
0.828755
0.842604
0.855766
0.86828
0.880184
0.891511
0.902289
0.912538
0.922276
0.931525
0.940302
0.948621
0.956494
0.963929
0.970934
0.977514
0.983674
0.989417
0.994746
0.999664
1.00417
1.00826
1.01194
1.01519
1.01799
1.02032
1.02215
1.02345
1.02418
1.02433
1.02388
1.02285
1.02129
1.01929
1.01699
1.01461
0.384357
0.361569
0.340275
0.320619
0.302791
0.286976
0.273359
0.262154
0.253634
0.248166
0.246231
0.248416
0.255349
0.267569
0.28534
0.30849
0.336365
0.36793
0.401972
0.437308
0.472928
0.508054
0.542141
0.574839
0.605953
0.635395
0.663155
0.68927
0.71381
0.736859
0.75851
0.77886
0.798001
0.816024
0.833012
0.849044
0.864191
0.878521
0.892091
0.904958
0.917169
0.928769
0.939795
0.950284
0.960265
0.969761
0.97879
0.987375
0.995535
1.00328
1.01063
1.01759
1.02417
1.03038
1.03621
1.04167
1.04677
1.0515
1.05587
1.05988
1.06351
1.06677
1.06963
1.07208
1.07408
1.07559
1.07658
1.077
1.07683
1.07607
1.07472
1.07285
1.07056
1.06803
1.06549
0.383927
0.360433
0.338442
0.318325
0.300431
0.285075
0.272596
0.263411
0.258075
0.257314
0.261993
0.272966
0.290808
0.315512
0.34633
0.381887
0.420501
0.460537
0.50064
0.539816
0.577419
0.613076
0.646615
0.678001
0.707281
0.734554
0.759947
0.783596
0.805639
0.826209
0.845433
0.863427
0.880299
0.896145
0.911054
0.925105
0.938368
0.950908
0.962782
0.974039
0.984726
0.994882
1.00454
1.01374
1.02249
1.03082
1.03875
1.0463
1.05348
1.06031
1.06679
1.07294
1.07876
1.08426
1.08943
1.09427
1.0988
1.10301
1.1069
1.11047
1.11371
1.11661
1.11915
1.12129
1.12301
1.12425
1.12498
1.12514
1.1247
1.12366
1.12204
1.11991
1.11739
1.11467
1.11203
0.383319
0.358958
0.336244
0.315811
0.298206
0.283951
0.273661
0.268152
0.26849
0.275923
0.291577
0.315958
0.348517
0.38762
0.430987
0.476297
0.521626
0.565614
0.607424
0.646626
0.683068
0.71677
0.747858
0.776507
0.802914
0.82728
0.849796
0.870644
0.889987
0.907975
0.924741
0.940404
0.95507
0.968833
0.981775
0.993972
1.00549
1.01638
1.0267
1.03649
1.0458
1.05465
1.06308
1.07111
1.07876
1.08605
1.09301
1.09964
1.10595
1.11197
1.11769
1.12313
1.12828
1.13314
1.13773
1.14204
1.14608
1.14983
1.15331
1.1565
1.1594
1.162
1.16426
1.16616
1.16764
1.16866
1.16917
1.1691
1.16844
1.16717
1.16532
1.16296
1.16025
1.15739
1.15468
0.382499
0.357132
0.333739
0.313276
0.296568
0.284508
0.27825
0.279332
0.289537
0.310342
0.342057
0.383258
0.431091
0.482235
0.533801
0.583741
0.630842
0.674526
0.714639
0.751269
0.784637
0.81502
0.842711
0.867994
0.89113
0.912361
0.931899
0.949931
0.966625
0.982125
0.996558
1.01003
1.02265
1.0345
1.04564
1.05615
1.06609
1.0755
1.08442
1.09291
1.10098
1.10867
1.11601
1.123
1.12968
1.13606
1.14215
1.14797
1.15353
1.15883
1.16389
1.16869
1.17326
1.17758
1.18166
1.18551
1.18911
1.19247
1.19559
1.19847
1.20108
1.20342
1.20545
1.20714
1.20844
1.20928
1.2096
1.20936
1.20851
1.20704
1.205
1.20246
1.19959
1.19662
1.19388
0.381436
0.354959
0.331044
0.311056
0.296297
0.288366
0.28942
0.30201
0.328145
0.367832
0.418385
0.475358
0.534265
0.591732
0.64574
0.695353
0.740336
0.780846
0.817229
0.849905
0.879296
0.905804
0.929787
0.951564
0.971412
0.989572
1.00625
1.02162
1.03584
1.04905
1.06134
1.07283
1.0836
1.09372
1.10325
1.11226
1.12079
1.12888
1.13657
1.14389
1.15087
1.15754
1.16391
1.17
1.17583
1.1814
1.18674
1.19186
1.19675
1.20143
1.2059
1.21016
1.21421
1.21806
1.2217
1.22514
1.22838
1.2314
1.23422
1.23682
1.23919
1.24132
1.24317
1.24469
1.24583
1.24652
1.24671
1.24632
1.24532
1.2437
1.2415
1.23882
1.23582
1.23277
1.23
0.380108
0.352477
0.328359
0.309741
0.298807
0.2985
0.312469
0.343631
0.391724
0.452364
0.519027
0.585869
0.649089
0.70683
0.75855
0.804426
0.844967
0.880792
0.912518
0.940714
0.965879
0.988444
1.00877
1.02718
1.04392
1.05922
1.07326
1.08621
1.09819
1.10932
1.11971
1.12942
1.13854
1.14713
1.15524
1.16291
1.1702
1.17713
1.18373
1.19004
1.19607
1.20184
1.20736
1.21266
1.21773
1.22261
1.22729
1.23179
1.2361
1.24024
1.2442
1.24798
1.2516
1.25503
1.2583
1.26138
1.2643
1.26704
1.26959
1.27197
1.27414
1.27609
1.27778
1.27917
1.2802
1.28079
1.28087
1.28037
1.27926
1.27753
1.27521
1.27241
1.26932
1.26621
1.26343
0.378499
0.349757
0.326046
0.310415
0.306752
0.320203
0.355304
0.411906
0.483479
0.560703
0.636003
0.705133
0.766519
0.820133
0.866647
0.90697
0.942013
0.972604
0.999454