/*--------------------------------*- C++ -*----------------------------------*\
  =========                 |
  \\      /  F ield         | OpenFOAM: The Open Source CFD Toolbox
   \\    /   O peration     | Website:  https://openfoam.org
    \\  /    A nd           | Version:  7
     \\/     M anipulation  |
\*---------------------------------------------------------------------------*/
FoamFile
{
    version     2.0;
    format      ascii;
    class       volScalarField;
    location    "800";
    object      p;
}
// * * * * * * * * * * * * * * * * * * * * * * * * * * * * * * * * * * * * * //

dimensions      [0 2 -2 0 0 0 0];

internalField   nonuniform List<scalar> 
4500
(
65.7477
62.7359
61.5761
60.4419
59.3139
58.229
57.1779
56.151
55.1448
54.1565
53.1838
52.2248
51.2781
50.3424
49.4168
48.5003
47.5922
46.6919
45.7988
44.9124
44.0323
43.158
42.2893
41.4257
40.5671
39.7131
38.8635
38.018
37.1765
36.3388
35.5046
34.6739
33.8463
33.0219
32.2004
31.3817
30.5657
29.7523
28.9412
28.1325
27.3259
26.5214
25.7188
24.9181
24.1191
23.3216
22.5257
21.7311
20.9378
20.1455
19.3543
18.5639
17.7743
16.9853
16.1968
15.4086
14.6206
13.8328
13.0448
12.2568
11.4684
10.6796
9.89035
9.10055
8.31016
7.51921
6.72774
5.9359
5.14379
4.35168
3.55974
2.7683
1.97743
1.18754
0.399413
65.3608
62.7076
61.5749
60.4423
59.3142
58.2292
57.1781
56.1511
55.1449
54.1566
53.1839
52.2249
51.2782
50.3425
49.4168
48.5003
47.5922
46.6919
45.7988
44.9124
44.0323
43.158
42.2893
41.4257
40.5671
39.7131
38.8635
38.018
37.1765
36.3388
35.5046
34.6739
33.8464
33.0219
32.2004
31.3817
30.5657
29.7523
28.9412
28.1325
27.3259
26.5214
25.7188
24.9181
24.119
23.3216
22.5257
21.7311
20.9378
20.1455
19.3543
18.5639
17.7743
16.9853
16.1968
15.4086
14.6206
13.8328
13.0448
12.2567
11.4684
10.6796
9.89034
9.10055
8.31016
7.51921
6.72773
5.93589
5.14379
4.35168
3.55973
2.7683
1.97743
1.18753
0.399408
65.2734
62.7145
61.577
60.4434
59.3149
58.2297
57.1785
56.1514
55.1451
54.1568
53.1841
52.2251
51.2783
50.3426
49.4169
48.5004
47.5923
46.692
45.7989
44.9125
44.0323
43.1581
42.2893
41.4258
40.5671
39.7131
38.8635
38.0181
37.1766
36.3388
35.5046
34.6739
33.8464
33.0219
32.2004
31.3817
30.5657
29.7523
28.9412
28.1325
27.3259
26.5214
25.7188
24.9181
24.119
23.3216
22.5257
21.7311
20.9378
20.1455
19.3543
18.5639
17.7743
16.9853
16.1968
15.4086
14.6206
13.8327
13.0448
12.2567
11.4684
10.6796
9.89033
9.10053
8.31014
7.5192
6.72772
5.93588
5.14378
4.35167
3.55972
2.76828
1.97741
1.18752
0.3994
65.273
62.7228
61.5788
60.4445
59.3157
58.2303
57.1789
56.1518
55.1454
54.1571
53.1843
52.2252
51.2785
50.3427
49.4171
48.5005
47.5924
46.6921
45.7989
44.9125
44.0324
43.1581
42.2894
41.4258
40.5672
39.7132
38.8635
38.0181
37.1766
36.3388
35.5047
34.6739
33.8464
33.0219
32.2004
31.3818
30.5657
29.7523
28.9412
28.1325
27.3259
26.5214
25.7188
24.9181
24.119
23.3216
22.5257
21.7311
20.9377
20.1455
19.3543
18.5639
17.7743
16.9853
16.1968
15.4086
14.6206
13.8327
13.0448
12.2567
11.4683
10.6796
9.89032
9.10052
8.31013
7.51918
6.7277
5.93587
5.14376
4.35165
3.55971
2.76827
1.97739
1.1875
0.399388
65.2692
62.7259
61.5801
60.4456
59.3166
58.231
57.1794
56.1522
55.1458
54.1574
53.1845
52.2255
51.2787
50.3429
49.4172
48.5007
47.5925
46.6922
45.799
44.9126
44.0325
43.1582
42.2894
41.4259
40.5672
39.7132
38.8636
38.0181
37.1766
36.3389
35.5047
34.6739
33.8464
33.0219
32.2005
31.3818
30.5657
29.7523
28.9412
28.1325
27.3259
26.5214
25.7188
24.9181
24.119
23.3216
22.5257
21.7311
20.9377
20.1455
19.3543
18.5639
17.7743
16.9853
16.1967
15.4086
14.6206
13.8327
13.0448
12.2567
11.4683
10.6796
9.8903
9.10051
8.31012
7.51917
6.72769
5.93585
5.14375
4.35163
3.55969
2.76825
1.97737
1.18747
0.399374
65.2589
62.7282
61.5811
60.4467
59.3175
58.2317
57.18
56.1527
55.1462
54.1577
53.1848
52.2257
51.2789
50.3431
49.4174
48.5008
47.5927
46.6923
45.7991
44.9127
44.0325
43.1583
42.2895
41.4259
40.5673
39.7133
38.8636
38.0182
37.1766
36.3389
35.5047
34.6739
33.8464
33.022
32.2005
31.3818
30.5658
29.7523
28.9412
28.1325
27.3259
26.5214
25.7188
24.918
24.119
23.3216
22.5257
21.7311
20.9377
20.1455
19.3543
18.5639
17.7743
16.9853
16.1967
15.4085
14.6206
13.8327
13.0448
12.2567
11.4683
10.6795
9.89029
9.10049
8.3101
7.51915
6.72767
5.93583
5.14373
4.35161
3.55966
2.76822
1.97735
1.18745
0.399356
65.2493
62.7311
61.5819
60.4476
59.3184
58.2325
57.1807
56.1533
55.1467
54.1581
53.1852
52.226
51.2791
50.3433
49.4176
48.501
47.5928
46.6924
45.7993
44.9128
44.0326
43.1584
42.2896
41.426
40.5673
39.7133
38.8637
38.0182
37.1767
36.3389
35.5047
34.674
33.8464
33.022
32.2005
31.3818
30.5658
29.7523
28.9412
28.1325
27.3259
26.5214
25.7188
24.918
24.119
23.3216
22.5256
21.7311
20.9377
20.1455
19.3542
18.5639
17.7743
16.9852
16.1967
15.4085
14.6206
13.8327
13.0448
12.2567
11.4683
10.6795
9.89027
9.10047
8.31008
7.51913
6.72765
5.93581
5.1437
4.35159
3.55964
2.76819
1.97732
1.18742
0.399334
65.2406
62.7343
61.5827
60.4484
59.3192
58.2333
57.1814
56.1539
55.1472
54.1585
53.1856
52.2263
51.2794
50.3436
49.4178
48.5012
47.593
46.6926
45.7994
44.913
44.0328
43.1585
42.2897
41.4261
40.5674
39.7134
38.8637
38.0183
37.1767
36.339
35.5048
34.674
33.8465
33.022
32.2005
31.3818
30.5658
29.7523
28.9412
28.1325
27.3259
26.5214
25.7188
24.9181
24.119
23.3216
22.5256
21.7311
20.9377
20.1455
19.3542
18.5639
17.7742
16.9852
16.1967
15.4085
14.6205
13.8327
13.0447
12.2566
11.4683
10.6795
9.89025
9.10045
8.31006
7.51911
6.72763
5.93578
5.14368
4.35156
3.55961
2.76816
1.97728
1.18738
0.399307
65.2317
62.7376
61.5833
60.4491
59.3199
58.234
57.1821
56.1545
55.1477
54.159
53.186
52.2267
51.2798
50.3439
49.4181
48.5014
47.5932
46.6928
45.7996
44.9131
44.0329
43.1586
42.2898
41.4262
40.5675
39.7135
38.8638
38.0183
37.1768
36.339
35.5048
34.6741
33.8465
33.0221
32.2006
31.3818
30.5658
29.7523
28.9413
28.1325
27.3259
26.5214
25.7188
24.9181
24.119
23.3216
22.5256
21.7311
20.9377
20.1455
19.3542
18.5639
17.7742
16.9852
16.1967
15.4085
14.6205
13.8326
13.0447
12.2566
11.4683
10.6795
9.89023
9.10043
8.31004
7.51909
6.7276
5.93576
5.14365
4.35153
3.55957
2.76812
1.97724
1.18734
0.399275
65.2221
62.7409
61.5838
60.4496
59.3206
58.2347
57.1827
56.1551
55.1483
54.1595
53.1864
52.2271
51.2801
50.3442
49.4184
48.5017
47.5935
46.693
45.7998
44.9133
44.0331
43.1588
42.2899
41.4263
40.5676
39.7136
38.8639
38.0184
37.1769
36.3391
35.5049
34.6741
33.8466
33.0221
32.2006
31.3819
30.5659
29.7524
28.9413
28.1325
27.3259
26.5214
25.7188
24.9181
24.119
23.3216
22.5256
21.7311
20.9377
20.1455
19.3542
18.5639
17.7742
16.9852
16.1967
15.4085
14.6205
13.8326
13.0447
12.2566
11.4682
10.6795
9.89021
9.10041
8.31002
7.51906
6.72758
5.93573
5.14362
4.35149
3.55953
2.76808
1.9772
1.1873
0.399237
65.2119
62.7444
61.5842
60.4501
59.321
58.2352
57.1833
56.1557
55.1489
54.1601
53.1869
52.2276
51.2805
50.3446
49.4187
48.502
47.5937
46.6933
45.8
44.9135
44.0333
43.1589
42.2901
41.4265
40.5678
39.7137
38.864
38.0185
37.177
36.3392
35.505
34.6742
33.8466
33.0222
32.2007
31.3819
30.5659
29.7524
28.9413
28.1326
27.326
26.5214
25.7188
24.9181
24.1191
23.3216
22.5257
21.7311
20.9377
20.1455
19.3542
18.5639
17.7742
16.9852
16.1967
15.4085
14.6205
13.8326
13.0447
12.2566
11.4682
10.6794
9.89019
9.10039
8.30999
7.51904
6.72755
5.9357
5.14358
4.35146
3.55949
2.76804
1.97716
1.18726
0.399193
65.2009
62.7482
61.5844
60.4504
59.3214
58.2357
57.1839
56.1563
55.1494
54.1606
53.1874
52.2281
51.281
50.345
49.4191
48.5023
47.5941
46.6936
45.8003
44.9138
44.0335
43.1591
42.2903
41.4267
40.5679
39.7139
38.8642
38.0187
37.1771
36.3393
35.5051
34.6743
33.8467
33.0223
32.2007
31.382
30.566
29.7525
28.9414
28.1326
27.326
26.5215
25.7189
24.9181
24.1191
23.3216
22.5257
21.7311
20.9377
20.1455
19.3542
18.5639
17.7742
16.9852
16.1967
15.4085
14.6205
13.8326
13.0447
12.2566
11.4682
10.6794
9.89017
9.10037
8.30997
7.51901
6.72752
5.93567
5.14355
4.35142
3.55945
2.76799
1.97711
1.18721
0.39914
65.1892
62.7524
61.5846
60.4507
59.3217
58.236
57.1843
56.1567
55.1499
54.1611
53.188
52.2285
51.2814
50.3454
49.4195
48.5027
47.5944
46.6939
45.8006
44.914
44.0338
43.1594
42.2905
41.4269
40.5681
39.714
38.8643
38.0188
37.1772
36.3394
35.5052
34.6744
33.8468
33.0223
32.2008
31.3821
30.566
29.7525
28.9414
28.1327
27.326
26.5215
25.7189
24.9182
24.1191
23.3217
22.5257
21.7311
20.9377
20.1455
19.3542
18.5639
17.7742
16.9852
16.1967
15.4085
14.6205
13.8326
13.0447
12.2566
11.4682
10.6794
9.89016
9.10035
8.30995
7.51899
6.72749
5.93564
5.14351
4.35137
3.55941
2.76795
1.97706
1.18716
0.399077
65.1768
62.757
61.5847
60.4509
59.3219
58.2362
57.1845
56.1571
55.1504
54.1616
53.1884
52.229
51.2819
50.3459
49.4199
48.5031
47.5948
46.6942
45.8009
44.9143
44.034
43.1596
42.2908
41.4271
40.5683
39.7142
38.8645
38.019
37.1774
36.3396
35.5054
34.6745
33.8469
33.0225
32.2009
31.3822
30.5661
29.7526
28.9415
28.1327
27.3261
26.5216
25.719
24.9182
24.1192
23.3217
22.5257
21.7311
20.9378
20.1455
19.3543
18.5639
17.7742
16.9852
16.1967
15.4085
14.6205
13.8326
13.0447
12.2566
11.4682
10.6794
9.89014
9.10034
8.30993
7.51897
6.72747
5.9356
5.14347
4.35133
3.55936
2.7679
1.97701
1.18711
0.399003
65.1637
62.7619
61.5849
60.451
59.322
58.2363
57.1847
56.1573
55.1507
54.162
53.1889
52.2295
51.2824
50.3463
49.4203
48.5035
47.5952
46.6946
45.8013
44.9147
44.0343
43.1599
42.291
41.4273
40.5686
39.7145
38.8647
38.0192
37.1776
36.3398
35.5055
34.6747
33.8471
33.0226
32.201
31.3823
30.5662
29.7527
28.9416
28.1328
27.3262
26.5216
25.719
24.9183
24.1192
23.3218
22.5258
21.7312
20.9378
20.1456
19.3543
18.5639
17.7743
16.9852
16.1967
15.4085
14.6205
13.8326
13.0447
12.2566
11.4682
10.6794
9.89013
9.10032
8.30991
7.51895
6.72744
5.93557
5.14344
4.35129
3.55931
2.76785
1.97696
1.18706
0.398916
65.1497
62.7673
61.585
60.4512
59.3221
58.2364
57.1848
56.1575
55.1509
54.1623
53.1892
52.2299
51.2828
50.3467
49.4207
48.5039
47.5956
46.695
45.8016
44.915
44.0347
43.1602
42.2913
41.4276
40.5689
39.7147
38.865
38.0194
37.1778
36.34
35.5057
34.6749
33.8473
33.0228
32.2012
31.3824
30.5664
29.7528
28.9417
28.1329
27.3263
26.5217
25.7191
24.9183
24.1193
23.3218
22.5258
21.7312
20.9379
20.1456
19.3543
18.5639
17.7743
16.9853
16.1967
15.4085
14.6205
13.8326
13.0447
12.2566
11.4682
10.6794
9.89013
9.10031
8.3099
7.51893
6.72742
5.93554
5.1434
4.35125
3.55927
2.76779
1.9769
1.187
0.398812
65.135
62.7732
61.5852
60.4515
59.3222
58.2364
57.1848
56.1575
55.151
54.1624
53.1894
52.2301
51.2831
50.3471
49.4211
48.5043
47.596
46.6954
45.802
44.9154
44.035
43.1606
42.2917
41.4279
40.5691
39.715
38.8652
38.0197
37.178
36.3402
35.5059
34.6751
33.8475
33.0229
32.2014
31.3826
30.5665
29.753
28.9419
28.133
27.3264
26.5218
25.7192
24.9184
24.1194
23.3219
22.5259
21.7313
20.9379
20.1457
19.3544
18.564
17.7743
16.9853
16.1967
15.4085
14.6205
13.8326
13.0447
12.2566
11.4682
10.6794
9.89013
9.10031
8.30989
7.51892
6.7274
5.93552
5.14337
4.35121
3.55922
2.76775
1.97685
1.18695
0.39869
65.1195
62.7795
61.5853
60.4518
59.3223
58.2364
57.1848
56.1575
55.151
54.1625
53.1895
52.2303
51.2833
50.3474
49.4215
48.5047
47.5963
46.6958
45.8024
44.9158
44.0354
43.1609
42.292
41.4283
40.5695
39.7153
38.8655
38.0199
37.1783
36.3405
35.5062
34.6753
33.8477
33.0231
32.2016
31.3828
30.5667
29.7531
28.942
28.1332
27.3266
26.522
25.7194
24.9186
24.1195
23.322
22.526
21.7314
20.938
20.1457
19.3545
18.5641
17.7744
16.9854
16.1968
15.4086
14.6206
13.8327
13.0447
12.2566
11.4682
10.6794
9.89014
9.10032
8.3099
7.51891
6.72739
5.9355
5.14334
4.35118
3.55918
2.7677
1.9768
1.1869
0.398546
65.1032
62.7863
61.5855
60.4521
59.3225
58.2365
57.1848
56.1575
55.151
54.1625
53.1895
52.2304
51.2834
50.3476
49.4217
48.505
47.5966
46.6961
45.8028
44.9161
44.0358
43.1613
42.2924
41.4286
40.5698
39.7156
38.8659
38.0203
37.1786
36.3407
35.5064
34.6756
33.8479
33.0234
32.2018
31.383
30.5669
29.7533
28.9422
28.1334
27.3267
26.5221
25.7195
24.9187
24.1196
23.3221
22.5261
21.7315
20.9381
20.1458
19.3546
18.5641
17.7745
16.9854
16.1969
15.4086
14.6206
13.8327
13.0448
12.2567
11.4682
10.6794
9.89016
9.10033
8.30991
7.51891
6.72738
5.93549
5.14333
4.35115
3.55915
2.76766
1.97675
1.18685
0.398375
65.0861
62.7935
61.5856
60.4526
59.3227
58.2366
57.1849
56.1575
55.1509
54.1624
53.1895
52.2303
51.2835
50.3476
49.4218
48.5051
47.5969
46.6964
45.803
44.9164
44.0361
43.1616
42.2927
41.429
40.5702
39.716
38.8662
38.0206
37.1789
36.341
35.5067
34.6758
33.8482
33.0236
32.202
31.3833
30.5671
29.7536
28.9424
28.1336
27.3269
26.5223
25.7197
24.9189
24.1198
23.3223
22.5263
21.7316
20.9382
20.146
19.3547
18.5643
17.7746
16.9855
16.1969
15.4087
14.6207
13.8328
13.0448
12.2567
11.4683
10.6795
9.8902
9.10036
8.30993
7.51893
6.72739
5.93549
5.14332
4.35113
3.55912
2.76763
1.97671
1.1868
0.398175
65.0684
62.8011
61.5857
60.4531
59.323
58.2368
57.1849
56.1575
55.1509
54.1624
53.1894
52.2303
51.2834
50.3476
49.4218
48.5052
47.597
46.6965
45.8032
44.9167
44.0364
43.1619
42.293
41.4293
40.5705
39.7163
38.8665
38.0209
37.1793
36.3414
35.5071
34.6762
33.8485
33.0239
32.2023
31.3835
30.5674
29.7538
28.9427
28.1338
27.3271
26.5225
25.7199
24.9191
24.12
23.3225
22.5265
21.7318
20.9384
20.1461
19.3548
18.5644
17.7747
16.9856
16.1971
15.4088
14.6208
13.8329
13.0449
12.2568
11.4684
10.6796
9.89025
9.10041
8.30996
7.51896
6.72741
5.9355
5.14332
4.35113
3.55911
2.7676
1.97668
1.18676
0.39794
65.0502
62.8089
61.5858
60.4537
59.3234
58.237
57.1851
56.1576
55.1509
54.1623
53.1894
52.2302
51.2833
50.3475
49.4218
48.5051
47.597
46.6965
45.8033
44.9168
44.0365
43.1622
42.2933
41.4296
40.5708
39.7166
38.8668
38.0212
37.1796
36.3417
35.5074
34.6765
33.8488
33.0242
32.2026
31.3838
30.5677
29.7541
28.9429
28.1341
27.3274
26.5228
25.7201
24.9193
24.1202
23.3227
22.5267
21.732
20.9386
20.1463
19.355
18.5645
17.7749
16.9858
16.1972
15.4089
14.6209
13.833
13.045
12.2569
11.4684
10.6796
9.89032
9.10047
8.31002
7.519
6.72745
5.93553
5.14334
4.35113
3.5591
2.76759
1.97666
1.18673
0.397666
65.0317
62.8171
61.5858
60.4543
59.3238
58.2372
57.1852
56.1577
55.151
54.1624
53.1894
52.2302
51.2833
50.3474
49.4217
48.5051
47.5969
46.6965
45.8033
44.9168
44.0366
43.1622
42.2934
41.4298
40.571
39.7169
38.8671
38.0215
37.1799
36.342
35.5077
34.6768
33.8491
33.0246
32.2029
31.3841
30.568
29.7544
28.9432
28.1344
27.3277
26.5231
25.7204
24.9196
24.1204
23.3229
22.5269
21.7322
20.9388
20.1465
19.3552
18.5647
17.775
16.9859
16.1973
15.4091
14.6211
13.8331
13.0451
12.257
11.4686
10.6797
9.89041
9.10055
8.31009
7.51907
6.7275
5.93557
5.14337
4.35116
3.55912
2.76759
1.97665
1.18671
0.39735
65.0131
62.8253
61.5857
60.4549
59.3242
58.2374
57.1854
56.1578
55.1511
54.1624
53.1894
52.2302
51.2832
50.3474
49.4216
48.505
47.5968
46.6964
45.8032
44.9168
44.0366
43.1622
42.2934
41.4298
40.5711
39.717
38.8673
38.0217
37.1801
36.3423
35.508
34.6771
33.8494
33.0249
32.2033
31.3844
30.5683
29.7547
28.9435
28.1347
27.328
26.5234
25.7207
24.9198
24.1207
23.3232
22.5272
21.7325
20.939
20.1467
19.3554
18.5649
17.7752
16.9861
16.1975
15.4093
14.6212
13.8333
13.0453
12.2571
11.4687
10.6798
9.89052
9.10065
8.31019
7.51915
6.72758
5.93564
5.14342
4.3512
3.55915
2.76761
1.97666
1.1867
0.39699
64.9949
62.8335
61.5855
60.4555
59.3246
58.2377
57.1856
56.158
55.1512
54.1625
53.1894
52.2302
51.2832
50.3474
49.4215
48.5049
47.5967
46.6963
45.8031
44.9167
44.0365
43.1622
42.2934
41.4298
40.5711
39.717
38.8673
38.0218
37.1802
36.3424
35.5082
34.6773
33.8497
33.0251
32.2035
31.3847
30.5686
29.755
28.9438
28.135
27.3283
26.5237
25.721
24.9201
24.121
23.3235
22.5274
21.7327
20.9393
20.147
19.3557
18.5652
17.7755
16.9864
16.1977
15.4095
14.6214
13.8335
13.0455
12.2573
11.4688
10.68
9.89066
9.10078
8.3103
7.51926
6.72768
5.93572
5.1435
4.35127
3.5592
2.76765
1.97668
1.18671
0.396586
64.9774
62.8414
61.5852
60.4562
59.3251
58.238
57.1859
56.1582
55.1513
54.1626
53.1895
52.2302
51.2833
50.3474
49.4215
48.5049
47.5967
46.6962
45.803
44.9166
44.0364
43.1621
42.2933
41.4297
40.571
39.7169
38.8673
38.0218
37.1803
36.3425
35.5082
34.6774
33.8498
33.0253
32.2037
31.3849
30.5688
29.7553
28.9441
28.1353
27.3286
26.5239
25.7213
24.9204
24.1213
23.3238
22.5277
21.733
20.9396
20.1473
19.3559
18.5655
17.7757
16.9866
16.198
15.4097
14.6216
13.8337
13.0457
12.2575
11.469
10.6802
9.89082
9.10093
8.31044
7.51939
6.7278
5.93584
5.1436
4.35136
3.55928
2.76772
1.97673
1.18674
0.396148
64.9614
62.8488
61.5849
60.4567
59.3255
58.2383
57.1861
56.1584
55.1515
54.1627
53.1896
52.2303
51.2833
50.3474
49.4216
48.5049
47.5967
46.6962
45.803
44.9165
44.0363
43.162
42.2932
41.4296
40.5709
39.7168
38.8672
38.0217
37.1802
36.3424
35.5082
34.6774
33.8498
33.0253
32.2038
31.3851
30.569
29.7554
28.9443
28.1355
27.3288
26.5242
25.7215
24.9207
24.1216
23.324
22.528
21.7333
20.9399
20.1475
19.3562
18.5657
17.776
16.9869
16.1982
15.4099
14.6219
13.8339
13.0459
12.2577
11.4692
10.6804
9.891
9.1011
8.3106
7.51954
6.72794
5.93597
5.14373
4.35147
3.55938
2.76781
1.97681
1.1868
0.395695
64.9475
62.8553
61.5846
60.4572
59.3259
58.2385
57.1863
56.1585
55.1516
54.1628
53.1897
52.2304
51.2834
50.3475
49.4216
48.5049
47.5967
46.6962
45.803
44.9165
44.0363
43.1619
42.2931
41.4295
40.5708
39.7168
38.8671
38.0216
37.1801
36.3423
35.5081
34.6773
33.8498
33.0253
32.2038
31.385
30.569
29.7555
28.9444
28.1356
27.3289
26.5243
25.7217
24.9209
24.1218
23.3243
22.5282
21.7336
20.9401
20.1478
19.3565
18.566
17.7763
16.9871
16.1985
15.4102
14.6221
13.8341
13.0461
12.2579
11.4694
10.6806
9.89119
9.10129
8.31078
7.51971
6.7281
5.93612
5.14387
4.3516
3.5595
2.76792
1.97691
1.18687
0.395261
64.9369
62.8603
61.5843
60.4576
59.3262
58.2387
57.1864
56.1586
55.1517
54.1629
53.1898
52.2305
51.2834
50.3475
49.4216
48.5049
47.5967
46.6962
45.803
44.9165
44.0362
43.1619
42.2931
41.4295
40.5708
39.7167
38.867
38.0215
37.18
36.3422
35.508
34.6772
33.8497
33.0252
32.2037
31.385
30.5689
29.7554
28.9443
28.1356
27.3289
26.5244
25.7218
24.921
24.1219
23.3244
22.5284
21.7337
20.9403
20.148
19.3566
18.5662
17.7765
16.9873
16.1987
15.4104
14.6223
13.8343
13.0463
12.2581
11.4696
10.6808
9.89138
9.10147
8.31096
7.51988
6.72826
5.93627
5.14401
4.35174
3.55963
2.76804
1.97701
1.18696
0.394902
64.9308
62.8633
61.584
60.4578
59.3264
58.2388
57.1865
56.1587
55.1518
54.163
53.1898
52.2305
51.2835
50.3475
49.4217
48.505
47.5967
46.6962
45.803
44.9165
44.0362
43.1619
42.2931
41.4294
40.5707
39.7167
38.867
38.0215
37.18
36.3422
35.508
34.6772
33.8496
33.0251
32.2036
31.3849
30.5689
29.7554
28.9443
28.1355
27.3289
26.5244
25.7217
24.921
24.1219
23.3244
22.5284
21.7338
20.9404
20.1481
19.3567
18.5663
17.7766
16.9875
16.1988
15.4105
14.6225
13.8345
13.0464
12.2583
11.4698
10.6809
9.89151
9.10159
8.31107
7.51999
6.72837
5.93638
5.14411
4.35183
3.55972
2.76812
1.97709
1.18702
0.394687
64.9308
62.8633
61.584
60.4578
59.3264
58.2388
57.1865
56.1587
55.1518
54.163
53.1898
52.2305
51.2835
50.3475
49.4217
48.505
47.5967
46.6962
45.803
44.9165
44.0362
43.1619
42.2931
41.4294
40.5707
39.7167
38.867
38.0215
37.18
36.3422
35.508
34.6772
33.8496
33.0251
32.2036
31.3849
30.5689
29.7554
28.9443
28.1355
27.3289
26.5244
25.7217
24.921
24.1219
23.3244
22.5284
21.7338
20.9404
20.1481
19.3567
18.5663
17.7766
16.9875
16.1988
15.4105
14.6225
13.8345
13.0464
12.2583
11.4698
10.6809
9.89151
9.10159
8.31107
7.51999
6.72837
5.93638
5.14411
4.35183
3.55972
2.76812
1.97709
1.18702
0.394686
64.9369
62.8603
61.5843
60.4576
59.3262
58.2387
57.1864
56.1586
55.1517
54.1629
53.1898
52.2305
51.2834
50.3475
49.4216
48.5049
47.5967
46.6962
45.803
44.9165
44.0362
43.1619
42.2931
41.4295
40.5708
39.7167
38.867
38.0215
37.18
36.3422
35.508
34.6772
33.8497
33.0252
32.2037
31.385
30.5689
29.7554
28.9443
28.1356
27.3289
26.5244
25.7218
24.921
24.1219
23.3244
22.5284
21.7337
20.9403
20.148
19.3566
18.5662
17.7765
16.9873
16.1987
15.4104
14.6223
13.8343
13.0463
12.2581
11.4696
10.6808
9.89138
9.10147
8.31096
7.51988
6.72826
5.93627
5.14401
4.35174
3.55963
2.76804
1.97701
1.18696
0.3949
64.9475
62.8553
61.5846
60.4572
59.3259
58.2385
57.1863
56.1585
55.1516
54.1628
53.1897
52.2304
51.2834
50.3475
49.4216
48.5049
47.5967
46.6962
45.803
44.9165
44.0363
43.1619
42.2931
41.4295
40.5708
39.7168
38.8671
38.0216
37.1801
36.3423
35.5081
34.6773
33.8498
33.0253
32.2038
31.385
30.569
29.7555
28.9444
28.1356
27.3289
26.5243
25.7217
24.9209
24.1218
23.3243
22.5282
21.7336
20.9401
20.1478
19.3565
18.566
17.7763
16.9871
16.1985
15.4102
14.6221
13.8341
13.0461
12.2579
11.4694
10.6806
9.89119
9.10129
8.31078
7.51971
6.7281
5.93612
5.14386
4.3516
3.5595
2.76792
1.9769
1.18688
0.395258
64.9613
62.8488
61.5849
60.4567
59.3255
58.2383
57.1861
56.1584
55.1515
54.1627
53.1896
52.2303
51.2833
50.3474
49.4216
48.5049
47.5967
46.6962
45.803
44.9165
44.0363
43.162
42.2932
41.4296
40.5709
39.7168
38.8672
38.0217
37.1802
36.3424
35.5082
34.6774
33.8498
33.0253
32.2038
31.3851
30.569
29.7554
28.9443
28.1355
27.3288
26.5242
25.7215
24.9207
24.1216
23.324
22.528
21.7333
20.9399
20.1475
19.3562
18.5657
17.776
16.9869
16.1982
15.4099
14.6219
13.8339
13.0459
12.2577
11.4692
10.6804
9.891
9.1011
8.3106
7.51954
6.72794
5.93597
5.14372
4.35147
3.55938
2.76781
1.97681
1.1868
0.395691
64.9774
62.8414
61.5852
60.4562
59.3251
58.238
57.1859
56.1582
55.1513
54.1626
53.1895
52.2302
51.2833
50.3474
49.4215
48.5049
47.5967
46.6962
45.803
44.9166
44.0364
43.1621
42.2933
41.4297
40.571
39.7169
38.8673
38.0218
37.1803
36.3425
35.5082
34.6774
33.8498
33.0253
32.2037
31.3849
30.5688
29.7553
28.9441
28.1353
27.3286
26.5239
25.7213
24.9204
24.1213
23.3238
22.5277
21.733
20.9396
20.1473
19.3559
18.5655
17.7757
16.9866
16.198
15.4097
14.6216
13.8337
13.0457
12.2575
11.469
10.6802
9.89082
9.10093
8.31044
7.51939
6.72779
5.93584
5.1436
4.35136
3.55928
2.76772
1.97673
1.18675
0.396144
64.9948
62.8335
61.5855
60.4555
59.3246
58.2377
57.1856
56.158
55.1512
54.1625
53.1894
52.2302
51.2832
50.3474
49.4215
48.5049
47.5967
46.6963
45.8031
44.9167
44.0365
43.1622
42.2934
41.4298
40.5711
39.717
38.8673
38.0218
37.1802
36.3424
35.5082
34.6773
33.8497
33.0251
32.2035
31.3847
30.5686
29.755
28.9438
28.135
27.3283
26.5237
25.721
24.9201
24.121
23.3235
22.5274
21.7327
20.9393
20.147
19.3557
18.5652
17.7755
16.9864
16.1977
15.4095
14.6214
13.8335
13.0455
12.2573
11.4688
10.68
9.89066
9.10078
8.3103
7.51926
6.72767
5.93573
5.1435
4.35127
3.5592
2.76766
1.97669
1.18672
0.396581
65.0131
62.8253
61.5857
60.4549
59.3242
58.2374
57.1854
56.1578
55.1511
54.1624
53.1894
52.2302
51.2832
50.3474
49.4216
48.505
47.5968
46.6964
45.8032
44.9168
44.0366
43.1622
42.2934
41.4298
40.5711
39.717
38.8673
38.0217
37.1801
36.3423
35.508
34.6771
33.8494
33.0249
32.2033
31.3844
30.5683
29.7547
28.9435
28.1347
27.328
26.5234
25.7207
24.9198
24.1207
23.3232
22.5272
21.7325
20.939
20.1467
19.3554
18.5649
17.7752
16.9861
16.1975
15.4093
14.6212
13.8333
13.0453
12.2571
11.4687
10.6799
9.89052
9.10066
8.31018
7.51915
6.72757
5.93564
5.14342
4.35121
3.55915
2.76762
1.97666
1.18672
0.396983
65.0316
62.8171
61.5858
60.4543
59.3238
58.2372
57.1852
56.1577
55.151
54.1624
53.1894
52.2302
51.2833
50.3474
49.4217
48.5051
47.5969
46.6965
45.8033
44.9168
44.0366
43.1622
42.2934
41.4298
40.571
39.7169
38.8671
38.0215
37.1799
36.342
35.5077
34.6768
33.8491
33.0246
32.2029
31.3841
30.568
29.7544
28.9432
28.1344
27.3277
26.5231
25.7204
24.9196
24.1204
23.3229
22.5269
21.7322
20.9388
20.1465
19.3552
18.5647
17.775
16.9859
16.1973
15.4091
14.6211
13.8331
13.0451
12.257
11.4686
10.6797
9.89041
9.10055
8.31009
7.51907
6.7275
5.93558
5.14337
4.35116
3.55911
2.7676
1.97665
1.18673
0.397343
65.0502
62.809
61.5858
60.4537
59.3234
58.237
57.1851
56.1576
55.1509
54.1623
53.1894
52.2302
51.2833
50.3475
49.4217
48.5051
47.597
46.6965
45.8033
44.9168
44.0365
43.1622
42.2933
41.4296
40.5708
39.7166
38.8668
38.0212
37.1796
36.3417
35.5074
34.6765
33.8488
33.0242
32.2026
31.3838
30.5677
29.7541
28.9429
28.1341
27.3274
26.5228
25.7201
24.9193
24.1202
23.3227
22.5267
21.732
20.9386
20.1463
19.355
18.5645
17.7749
16.9858
16.1972
15.4089
14.6209
13.833
13.045
12.2569
11.4684
10.6796
9.89032
9.10047
8.31002
7.51901
6.72744
5.93553
5.14333
4.35114
3.5591
2.7676
1.97667
1.18675
0.397659
65.0684
62.8011
61.5857
60.4531
59.323
58.2368
57.1849
56.1575
55.1509
54.1624
53.1894
52.2303
51.2834
50.3476
49.4218
48.5052
47.597
46.6965
45.8032
44.9167
44.0364
43.1619
42.293
41.4293
40.5705
39.7163
38.8665
38.0209
37.1793
36.3414
35.5071
34.6762
33.8485
33.0239
32.2023
31.3835
30.5674
29.7538
28.9427
28.1338
27.3271
26.5225
25.7199
24.9191
24.12
23.3225
22.5265
21.7318
20.9384
20.1461
19.3548
18.5644
17.7747
16.9856
16.1971
15.4088
14.6208
13.8329
13.0449
12.2568
11.4684
10.6796
9.89025
9.10041
8.30996
7.51896
6.72741
5.93551
5.14332
4.35114
3.55911
2.76762
1.97669
1.18679
0.397933
65.086
62.7935
61.5856
60.4526
59.3227
58.2366
57.1849
56.1575
55.1509
54.1624
53.1895
52.2303
51.2835
50.3476
49.4218
48.5051
47.5969
46.6964
45.803
44.9164
44.0361
43.1616
42.2927
41.429
40.5702
39.716
38.8662
38.0206
37.1789
36.341
35.5067
34.6758
33.8482
33.0236
32.202
31.3833
30.5671
29.7536
28.9424
28.1336
27.3269
26.5223
25.7197
24.9189
24.1198
23.3223
22.5263
21.7316
20.9382
20.146
19.3547
18.5643
17.7746
16.9855
16.1969
15.4087
14.6207
13.8328
13.0448
12.2567
11.4683
10.6795
9.8902
9.10037
8.30993
7.51893
6.72739
5.93549
5.14331
4.35114
3.55912
2.76764
1.97672
1.18683
0.398168
65.1031
62.7863
61.5855
60.4521
59.3225
58.2365
57.1848
56.1575
55.151
54.1625
53.1895
52.2304
51.2834
50.3476
49.4217
48.505
47.5966
46.6961
45.8028
44.9161
44.0358
43.1613
42.2924
41.4286
40.5698
39.7156
38.8659
38.0203
37.1786
36.3407
35.5064
34.6756
33.8479
33.0234
32.2018
31.383
30.5669
29.7533
28.9422
28.1334
27.3267
26.5221
25.7195
24.9187
24.1196
23.3221
22.5261
21.7315
20.9381
20.1458
19.3546
18.5641
17.7745
16.9854
16.1969
15.4086
14.6206
13.8327
13.0448
12.2567
11.4682
10.6795
9.89016
9.10034
8.3099
7.51892
6.72738
5.9355
5.14332
4.35116
3.55915
2.76768
1.97677
1.18688
0.398369
65.1194
62.7796
61.5853
60.4518
59.3223
58.2364
57.1848
56.1575
55.151
54.1625
53.1895
52.2303
51.2833
50.3474
49.4215
48.5047
47.5963
46.6958
45.8024
44.9158
44.0354
43.1609
42.292
41.4283
40.5695
39.7153
38.8655
38.0199
37.1783
36.3405
35.5062
34.6753
33.8477
33.0231
32.2016
31.3828
30.5667
29.7531
28.942
28.1332
27.3266
26.522
25.7194
24.9186
24.1195
23.322
22.526
21.7314
20.938
20.1457
19.3545
18.5641
17.7744
16.9854
16.1968
15.4086
14.6206
13.8327
13.0447
12.2566
11.4682
10.6794
9.89014
9.10032
8.30989
7.51891
6.72738
5.93551
5.14334
4.35119
3.55919
2.76772
1.97682
1.18693
0.39854
65.1349
62.7732
61.5852
60.4515
59.3222
58.2364
57.1848
56.1575
55.151
54.1624
53.1894
52.2301
51.2831
50.3471
49.4211
48.5043
47.596
46.6954
45.802
44.9154
44.035
43.1606
42.2917
41.4279
40.5691
39.715
38.8652
38.0197
37.1781
36.3402
35.5059
34.6751
33.8475
33.0229
32.2014
31.3826
30.5665
29.753
28.9419
28.133
27.3264
26.5218
25.7192
24.9184
24.1194
23.3219
22.5259
21.7313
20.9379
20.1457
19.3544
18.564
17.7743
16.9853
16.1967
15.4085
14.6205
13.8326
13.0447
12.2566
11.4682
10.6794
9.89013
9.10031
8.30989
7.51892
6.7274
5.93553
5.14337
4.35123
3.55923
2.76777
1.97687
1.18698
0.398685
65.1497
62.7674
61.585
60.4512
59.3221
58.2364
57.1848
56.1575
55.1509
54.1623
53.1892
52.2299
51.2828
50.3467
49.4208
48.5039
47.5956
46.695
45.8016
44.915
44.0347
43.1602
42.2913
41.4276
40.5689
39.7147
38.865
38.0194
37.1778
36.34
35.5057
34.6749
33.8473
33.0228
32.2012
31.3824
30.5664
29.7528
28.9417
28.1329
27.3263
26.5217
25.7191
24.9183
24.1193
23.3218
22.5258
21.7312
20.9379
20.1456
19.3543
18.5639
17.7743
16.9853
16.1967
15.4085
14.6205
13.8326
13.0447
12.2566
11.4682
10.6794
9.89013
9.10032
8.3099
7.51893
6.72741
5.93555
5.1434
4.35126
3.55927
2.76782
1.97692
1.18704
0.398807
65.1636
62.762
61.5849
60.451
59.322
58.2363
57.1847
56.1573
55.1507
54.162
53.1889
52.2295
51.2824
50.3463
49.4203
48.5035
47.5952
46.6946
45.8013
44.9147
44.0343
43.1599
42.291
41.4274
40.5686
39.7145
38.8647
38.0192
37.1776
36.3398
35.5055
34.6747
33.8471
33.0226
32.201
31.3823
30.5662
29.7527
28.9416
28.1328
27.3262
26.5216
25.719
24.9183
24.1192
23.3218
22.5258
21.7312
20.9378
20.1456
19.3543
18.5639
17.7743
16.9852
16.1967
15.4085
14.6205
13.8326
13.0447
12.2566
11.4682
10.6794
9.89013
9.10032
8.30991
7.51895
6.72744
5.93558
5.14344
4.35131
3.55932
2.76787
1.97698
1.18709
0.398912
65.1768
62.757
61.5847
60.4509
59.3219
58.2362
57.1845
56.1571
55.1504
54.1616
53.1884
52.229
51.2819
50.3459
49.4199
48.5031
47.5948
46.6942
45.8009
44.9143
44.034
43.1596
42.2908
41.4271
40.5683
39.7142
38.8645
38.019
37.1774
36.3396
35.5054
34.6745
33.8469
33.0225
32.2009
31.3822
30.5661
29.7526
28.9415
28.1327
27.3261
26.5216
25.719
24.9182
24.1192
23.3217
22.5257
21.7311
20.9378
20.1455
19.3543
18.5639
17.7742
16.9852
16.1967
15.4085
14.6205
13.8326
13.0447
12.2566
11.4682
10.6794
9.89014
9.10034
8.30993
7.51897
6.72746
5.93561
5.14347
4.35135
3.55937
2.76792
1.97703
1.18714
0.399
65.1892
62.7524
61.5846
60.4507
59.3217
58.236
57.1843
56.1567
55.15
54.1611
53.188
52.2285
51.2814
50.3454
49.4195
48.5027
47.5944
46.6939
45.8006
44.914
44.0338
43.1594
42.2905
41.4269
40.5681
39.714
38.8643
38.0188
37.1772
36.3394
35.5052
34.6744
33.8468
33.0223
32.2008
31.3821
30.566
29.7525
28.9414
28.1327
27.326
26.5215
25.7189
24.9182
24.1191
23.3217
22.5257
21.7311
20.9377
20.1455
19.3542
18.5639
17.7742
16.9852
16.1967
15.4085
14.6205
13.8326
13.0447
12.2566
11.4682
10.6794
9.89015
9.10035
8.30995
7.51899
6.72749
5.93565
5.14351
4.35139
3.55942
2.76797
1.97708
1.1872
0.399075
65.2008
62.7483
61.5844
60.4504
59.3214
58.2357
57.1839
56.1563
55.1494
54.1606
53.1874
52.2281
51.281
50.345
49.4191
48.5023
47.5941
46.6936
45.8003
44.9138
44.0335
43.1591
42.2903
41.4267
40.5679
39.7139
38.8642
38.0187
37.1771
36.3393
35.5051
34.6743
33.8467
33.0223
32.2007
31.382
30.566
29.7525
28.9414
28.1326
27.326
26.5215
25.7189
24.9181
24.1191
23.3216
22.5257
21.7311
20.9377
20.1455
19.3542
18.5639
17.7742
16.9852
16.1967
15.4085
14.6205
13.8326
13.0447
12.2566
11.4682
10.6794
9.89017
9.10037
8.30997
7.51902
6.72752
5.93568
5.14355
4.35143
3.55946
2.76802
1.97714
1.18725
0.399138
65.2118
62.7444
61.5842
60.4501
59.321
58.2352
57.1833
56.1557
55.1489
54.1601
53.1869
52.2276
51.2805
50.3446
49.4187
48.502
47.5937
46.6933
45.8
44.9135
44.0333
43.1589
42.2901
41.4265
40.5678
39.7137
38.864
38.0185
37.177
36.3392