/*--------------------------------*- C++ -*----------------------------------*\
  =========                 |
  \\      /  F ield         | OpenFOAM: The Open Source CFD Toolbox
   \\    /   O peration     | Website:  https://openfoam.org
    \\  /    A nd           | Version:  7
     \\/     M anipulation  |
\*---------------------------------------------------------------------------*/
FoamFile
{
    version     2.0;
    format      ascii;
    class       surfaceScalarField;
    location    "800";
    object      phi;
}
// * * * * * * * * * * * * * * * * * * * * * * * * * * * * * * * * * * * * * //

dimensions      [0 3 -1 0 0 0 0];

internalField   nonuniform List<scalar> 
8865
(
0.00452285
0.00168694
0.00415016
0.00037269
0.0039903
0.000159866
0.00389729
9.30109e-05
0.00383339
6.38985e-05
0.00378555
4.78348e-05
0.00374796
3.75907e-05
0.00371747
3.04976e-05
0.00369216
2.53061e-05
0.00367081
2.13471e-05
0.00365258
1.82337e-05
0.00363685
1.57255e-05
0.00362319
1.36651e-05
0.00361124
1.1945e-05
0.00360075
1.04895e-05
0.00359151
9.24361e-06
0.00358334
8.16644e-06
0.00357612
7.22705e-06
0.00356971
6.40152e-06
0.00356404
5.67114e-06
0.00355902
5.02103e-06
0.00355458
4.43924e-06
0.00355067
3.91604e-06
0.00354722
3.44347e-06
0.00354421
3.01491e-06
0.00354158
2.62486e-06
0.00353931
2.26868e-06
0.00353737
1.94246e-06
0.00353573
1.6428e-06
0.00353436
1.36695e-06
0.00353325
1.1124e-06
0.00353237
8.7703e-07
0.00353171
6.58947e-07
0.00353126
4.56638e-07
0.00353099
2.6865e-07
0.0035309
9.34589e-08
0.00353097
-7.03915e-08
0.00353119
-2.22743e-07
0.00353155
-3.64174e-07
0.00353205
-4.95998e-07
0.00353267
-6.19091e-07
0.0035334
-7.33787e-07
0.00353424
-8.40698e-07
0.00353518
-9.40204e-07
0.00353621
-1.03273e-06
0.00353733
-1.11863e-06
0.00353853
-1.19789e-06
0.0035398
-1.2708e-06
0.00354114
-1.33751e-06
0.00354253
-1.39801e-06
0.00354399
-1.45293e-06
0.00354549
-1.50168e-06
0.00354703
-1.54429e-06
0.00354861
-1.58095e-06
0.00355022
-1.61179e-06
0.00355186
-1.63639e-06
0.00355352
-1.65526e-06
0.00355518
-1.66718e-06
0.00355685
-1.6701e-06
0.00355852
-1.66487e-06
0.00356016
-1.64686e-06
0.00356178
-1.61776e-06
0.00356335
-1.57106e-06
0.00356485
-1.50816e-06
0.00356628
-1.42629e-06
0.00356761
-1.32998e-06
0.00356883
-1.21979e-06
0.00356993
-1.10398e-06
0.00357092
-9.87127e-07
0.00357181
-8.86114e-07
0.00357262
-8.09916e-07
0.0035734
-7.78514e-07
0.0035742
-7.9337e-07
0.00357506
-8.58636e-07
-4.7595e-07
0.00573448
0.00277626
0.00532416
0.000783017
0.00510631
0.00037771
0.00497607
0.000223255
0.00488795
0.000152018
0.00482307
0.000112709
0.00477273
8.79388e-05
0.00473224
7.0979e-05
0.00469887
5.86788e-05
0.00467085
4.93648e-05
0.00464701
4.20794e-05
0.0046265
3.62353e-05
0.00460871
3.14508e-05
0.00459319
2.74677e-05
0.00457958
2.4105e-05
0.00456759
2.12321e-05
0.004557
1.87524e-05
0.00454763
1.65929e-05
0.00453934
1.46975e-05
0.00453199
1.30223e-05
0.00452548
1.15327e-05
0.00451971
1.02007e-05
0.00451463
9.0038e-06
0.00451015
7.92342e-06
0.00450622
6.94426e-06
0.00450279
6.05356e-06
0.00449982
5.24061e-06
0.00449726
4.49636e-06
0.00449509
3.81302e-06
0.00449328
3.18418e-06
0.00449178
2.60408e-06
0.00449059
2.06784e-06
0.00448968
1.57115e-06
0.00448903
1.11045e-06
0.00448861
6.82445e-07
0.00448842
2.84049e-07
0.00448844
-8.83582e-08
0.00448865
-4.3531e-07
0.00448905
-7.57601e-07
0.00448961
-1.05787e-06
0.00449033
-1.33808e-06
0.00449119
-1.59925e-06
0.00449219
-1.84272e-06
0.00449332
-2.06939e-06
0.00449457
-2.28019e-06
0.00449593
-2.47592e-06
0.00449739
-2.65673e-06
0.00449894
-2.8232e-06
0.00450058
-2.97571e-06
0.00450229
-3.11432e-06
0.00450408
-3.24003e-06
0.00450593
-3.35201e-06
0.00450784
-3.45029e-06
0.00450979
-3.53514e-06
0.00451178
-3.6066e-06
0.00451381
-3.66378e-06
0.00451586
-3.70712e-06
0.00451793
-3.73415e-06
0.00452
-3.74096e-06
0.00452206
-3.72808e-06
0.0045241
-3.68727e-06
0.0045261
-3.6206e-06
0.00452805
-3.51726e-06
0.00452992
-3.37995e-06
0.0045317
-3.20519e-06
0.00453337
-3.00228e-06
0.00453493
-2.77514e-06
0.00453636
-2.54174e-06
0.00453769
-2.31453e-06
0.00453893
-2.12629e-06
0.00454012
-1.99741e-06
0.00454131
-1.96514e-06
0.00454255
-2.03318e-06
0.0045439
-2.20703e-06
-1.19599e-06
0.00677261
0.00350217
0.00634446
0.00121116
0.00607519
0.000646986
0.00590745
0.000390987
0.00579398
0.000265489
0.00571123
0.000195464
0.00564762
0.00015155
0.00559688
0.000121718
0.00555531
0.000100246
0.00552058
8.40915e-05
0.00549114
7.15231e-05
0.00546589
6.14851e-05
0.00544404
5.32969e-05
0.00542501
4.65006e-05
0.00540834
4.07775e-05
0.00539367
3.58985e-05
0.00538073
3.1695e-05
0.00536928
2.80402e-05
0.00535914
2.48369e-05
0.00535016
2.20093e-05
0.00534219
1.94976e-05
0.00533514
1.72539e-05
0.0053289
1.52395e-05
0.0053234
1.34226e-05
0.00531857
1.17771e-05
0.00531434
1.02813e-05
0.00531067
8.91678e-06
0.00530749
7.66824e-06
0.00530478
6.52248e-06
0.0053025
5.4685e-06
0.00530061
4.4966e-06
0.00529908
3.59848e-06
0.00529788
2.76688e-06
0.005297
1.99573e-06
0.0052964
1.27947e-06
0.00529607
6.13151e-07
0.00529599
-9.30163e-09
0.00529615
-5.89858e-07
0.00529652
-1.1296e-06
0.00529709
-1.63224e-06
0.00529785
-2.10112e-06
0.00529879
-2.53818e-06
0.0052999
-2.94563e-06
0.00530115
-3.32506e-06
0.00530255
-3.67803e-06
0.00530408
-4.00582e-06
0.00530573
-4.30893e-06
0.0053075
-4.58828e-06
0.00530936
-4.84449e-06
0.00531133
-5.07778e-06
0.00531338
-5.28948e-06
0.0053155
-5.47858e-06
0.0053177
-5.64513e-06
0.00531995
-5.78938e-06
0.00532226
-5.91117e-06
0.0053246
-6.00908e-06
0.00532698
-6.08312e-06
0.00532937
-6.12957e-06
0.00533178
-6.1428e-06
0.00533417
-6.12242e-06
0.00533654
-6.05756e-06
0.00533887
-5.94991e-06
0.00534114
-5.7863e-06
0.00534333
-5.57054e-06
0.00534542
-5.3002e-06
0.00534741
-4.98958e-06
0.00534928
-4.64808e-06
0.00535104
-4.30307e-06
0.00535271
-3.97674e-06
0.0053543
-3.71615e-06
0.00535585
-3.5538e-06
0.00535743
-3.54055e-06
0.00535908
-3.68119e-06
0.00536085
-3.97878e-06
-2.12946e-06
0.00776838
0.00397374
0.00736522
0.00161432
0.00705881
0.000953393
0.00685371
0.000596095
0.00671229
0.00040691
0.00660913
0.000298623
0.00653023
0.000230446
0.00646767
0.000184282
0.00641669
0.000151228
0.00637428
0.000126493
0.00633846
0.000107343
0.00630784
9.2113e-05
0.0062814
7.97342e-05
0.00625841
6.94918e-05
0.00623829
6.08895e-05
0.00622062
5.35729e-05
0.00620503
4.72819e-05
0.00619125
4.18216e-05
0.00617905
3.70432e-05
0.00616822
3.2831e-05
0.00615863
2.9094e-05
0.00615012
2.57594e-05
0.00614259
2.27684e-05
0.00613594
2.00732e-05
0.00613009
1.76342e-05
0.00612495
1.54185e-05
0.00612047
1.33988e-05
0.00611658
1.15518e-05
0.00611325
9.85774e-06
0.00611042
8.30016e-06
0.00610805
6.86451e-06
0.00610611
5.53838e-06
0.00610456
4.31094e-06
0.00610339
3.17304e-06
0.00610255
2.11642e-06
0.00610203
1.1338e-06
0.0061018
2.16834e-07
0.00610185
-6.38968e-07
0.00610216
-1.43565e-06
0.0061027
-2.17729e-06
0.00610347
-2.86888e-06
0.00610445
-3.51353e-06
0.00610561
-4.11453e-06
0.00610696
-4.67433e-06
0.00610848
-5.19522e-06
0.00611015
-5.67913e-06
0.00611197
-6.12697e-06
0.00611392
-6.54008e-06
0.006116
-6.91945e-06
0.00611819
-7.26544e-06
0.00612048
-7.57975e-06
0.00612286
-7.86126e-06
0.00612532
-8.11e-06
0.00612786
-8.32614e-06
0.00613046
-8.50928e-06
0.00613311
-8.65738e-06
0.00613579
-8.76991e-06
0.00613851
-8.8419e-06
0.00614123
-8.86599e-06
0.00614395
-8.84105e-06
0.00614664
-8.75366e-06
0.0061493
-8.60577e-06
0.00615189
-8.38213e-06
0.00615441
-8.08859e-06
0.00615683
-7.72431e-06
0.00615915
-7.30924e-06
0.00616136
-6.85839e-06
0.00616347
-6.40925e-06
0.00616549
-5.99301e-06
0.00616744
-5.67037e-06
0.00616937
-5.48413e-06
0.00617133
-5.49719e-06
0.00617336
-5.71174e-06
0.00617551
-6.12747e-06
-3.24743e-06
0.00876053
0.0042679
0.00841816
0.00195669
0.00809688
0.00127467
0.00785897
0.000834004
0.00768847
0.000577413
0.00756264
0.000424452
0.00746628
0.000326806
0.00739005
0.000260516
0.00732813
0.000213142
0.00727681
0.000177816
0.00723358
0.00015057
0.00719672
0.00012898
0.00716496
0.000111491
0.00713739
9.7063e-05
0.0071133
8.49771e-05
0.00709215
7.47211e-05
0.00707351
6.59208e-05
0.00705704
5.82964e-05
0.00704245
5.16348e-05
0.00702951
4.57711e-05
0.00701803
4.05756e-05
0.00700784
3.5945e-05
0.00699881
3.17959e-05
0.00699083
2.80606e-05
0.00698378
2.46833e-05
0.00697758
2.16177e-05
0.00697215
1.88251e-05
0.00696743
1.62731e-05
0.00696335
1.39339e-05
0.00695987
1.17842e-05
0.00695693
9.8038e-06
0.00695449
7.97526e-06
0.00695252
6.28349e-06
0.00695098
4.71565e-06
0.00694983
3.26026e-06
0.00694906
1.90718e-06
0.00694863
6.45819e-07
0.00694852
-5.31703e-07
0.00694872
-1.6292e-06
0.00694919
-2.65081e-06
0.00694993
-3.60321e-06
0.0069509
-4.49097e-06
0.00695211
-5.31863e-06
0.00695352
-6.08968e-06
0.00695513
-6.80732e-06
0.00695693
-7.47426e-06
0.00695889
-8.09195e-06
0.00696102
-8.66228e-06
0.00696328
-9.18661e-06
0.00696568
-9.66559e-06
0.0069682
-1.01013e-05
0.00697084
-1.04924e-05
0.00697356
-1.08392e-05
0.00697638
-1.11415e-05
0.00697927
-1.13988e-05
0.00698222
-1.16083e-05
0.00698522
-1.1769e-05
0.00698825
-1.18745e-05
0.0069913
-1.19162e-05
0.00699435
-1.18919e-05
0.00699738
-1.17864e-05
0.00700038
-1.16016e-05
0.00700332
-1.13214e-05
0.00700618
-1.09534e-05
0.00700896
-1.04991e-05
0.00701163
-9.98403e-06
0.0070142
-9.42928e-06
0.00701668
-8.88126e-06
0.00701906
-8.38025e-06
0.00702139
-7.99865e-06
0.0070237
-7.78897e-06
0.00702602
-7.82305e-06
0.00702841
-8.09899e-06
0.0070309
-8.612e-06
-4.52832e-06
0.00977742
0.00444047
0.00951399
0.00222012
0.00920569
0.00158298
0.00894539
0.0010943
0.00874723
0.000775576
0.0085973
0.000574375
0.00848145
0.000442657
0.00838959
0.000352373
0.00831504
0.000287698
0.00825334
0.000239516
0.00820147
0.000202437
0.00815732
0.000173135
0.00811935
0.000149463
0.00808642
0.000129986
0.00805769
0.000113709
0.00803248
9.99273e-05
0.00801028
8.8125e-05
0.00799066
7.79179e-05
0.00797328
6.90143e-05
0.00795786
6.11884e-05
0.00794417
5.42636e-05
0.00793202
4.80989e-05
0.00792123
4.25814e-05
0.00791168
3.76191e-05
0.00790322
3.31365e-05
0.00789577
2.90709e-05
0.00788922
2.53703e-05
0.00788351
2.19908e-05
0.00787855
1.88951e-05
0.00787428
1.60518e-05
0.00787065
1.34338e-05
0.00786761
1.10177e-05
0.00786511
8.78326e-06
0.00786311
6.71331e-06
0.00786158
4.79246e-06
0.00786048
3.00721e-06
0.00785978
1.3444e-06
0.00785945
-2.07615e-07
0.00785948
-1.6555e-06
0.00785983
-3.00372e-06
0.00786049
-4.26035e-06
0.00786143
-5.43163e-06
0.00786263
-6.52363e-06
0.00786409
-7.54111e-06
0.00786577
-8.48834e-06
0.00786766
-9.36896e-06
0.00786975
-1.01851e-05
0.00787203
-1.09394e-05
0.00787448
-1.16336e-05
0.00787708
-1.22687e-05
0.00787983
-1.28472e-05
0.0078827
-1.33678e-05
0.00788569
-1.38307e-05
0.00788879
-1.42359e-05
0.00789197
-1.45822e-05
0.00789523
-1.48665e-05
0.00789855
-1.5087e-05
0.00790191
-1.52365e-05
0.0079053
-1.53045e-05
0.00790869
-1.52885e-05
0.00791208
-1.51715e-05
0.00791543
-1.49559e-05
0.00791874
-1.46245e-05
0.00792197
-1.41874e-05
0.00792512
-1.36483e-05
0.00792817
-1.30382e-05
0.00793113
-1.23836e-05
0.00793398
-1.17399e-05
0.00793676
-1.11548e-05
0.00793947
-1.07118e-05
0.00794216
-1.04709e-05
0.00794485
-1.05121e-05
0.00794757
-1.08267e-05
0.00795037
-1.14065e-05
-5.95525e-06
0.0108418
0.0045325
0.0106586
0.00240329
0.0103907
0.00185088
0.0101252
0.00135979
0.00990488
0.000995899
0.00973121
0.000748042
0.00959448
0.000579386
0.00948519
0.000461659
0.00939623
0.000376666
0.00932255
0.000313187
0.00926065
0.000264341
0.009208
0.000225789
0.00916276
0.000194702
0.00912357
0.000169174
0.00908939
0.000147885
0.00905943
0.000129893
0.00903304
0.000114513
0.00900972
0.000101234
0.00898907
8.96694e-05
0.00897074
7.95188e-05
0.00895445
7.05485e-05
0.00893998
6.25726e-05
0.00892712
5.54417e-05
0.0089157
4.90349e-05
0.00890559
4.32527e-05
0.00889664
3.80131e-05
0.00888877
3.32475e-05
0.00888186
2.88985e-05
0.00887584
2.49174e-05
0.00887063
2.12632e-05
0.00886616
1.79003e-05
0.00886238
1.47983e-05
0.00885923
1.1931e-05
0.00885667
9.27571e-06
0.00885465
6.8126e-06
0.00885313
4.52414e-06
0.00885208
2.39398e-06
0.00885147
4.06976e-07
0.00885126
-1.44781e-06
0.00885143
-3.1762e-06
0.00885196
-4.78691e-06
0.00885281
-6.28818e-06
0.00885398
-7.68785e-06
0.00885543
-8.99216e-06
0.00885715
-1.02067e-05
0.00885911
-1.13363e-05
0.00886131
-1.23838e-05
0.00886373
-1.33527e-05
0.00886634
-1.42454e-05
0.00886913
-1.50633e-05
0.0088721
-1.58093e-05
0.00887521
-1.64824e-05
0.00887846
-1.70825e-05
0.00888184
-1.76097e-05
0.00888532
-1.80627e-05
0.00888889
-1.84376e-05
0.00889253
-1.87321e-05
0.00889623
-1.8938e-05
0.00889997
-1.90436e-05
0.00890373
-1.90458e-05
0.00890748
-1.89263e-05
0.00891122
-1.86877e-05
0.0089149
-1.83127e-05
0.00891853
-1.78133e-05
0.00892208
-1.71956e-05
0.00892553
-1.64953e-05
0.00892889
-1.57446e-05
0.00893216
-1.5006e-05
0.00893534
-1.43347e-05
0.00893845
-1.38228e-05
0.00894152
-1.3538e-05
0.00894457
-1.3566e-05
0.00894764
-1.38903e-05
0.00895073
-1.45002e-05
-7.5239e-06
0.0119752
0.00457226
0.0118614
0.00251703
0.0116523
0.00206002
0.0114041
0.00160801
0.0111727
0.00122725
0.0109787
0.00094203
0.0108211
0.000736974
0.0106932
0.000589616
0.0105882
0.000481647
0.0105009
0.000400442
0.0104275
0.000337776
0.010365
0.000288286
0.0103113
0.000248398
0.0102648
0.00021568
0.0102243
0.000188432
0.0101887
0.000165439
0.0101574
0.000145814
0.0101298
0.000128895
0.0101052
0.00011418
0.0100835
0.000101282
0.0100641
8.98972e-05
0.0100469
7.97864e-05
0.0100316
7.07567e-05
0.010018
6.26517e-05
0.0100059
5.53437e-05
0.00999518
4.87271e-05
0.00998571
4.27139e-05
0.00997738
3.72304e-05
0.00997008
3.22142e-05
0.00996373
2.76126e-05
0.00995825
2.33803e-05
0.00995357
1.94784e-05
0.00994963
1.58734e-05
0.00994637
1.25365e-05
0.00994374
9.44225e-06
0.0099417
6.56837e-06
0.0099402
3.89456e-06
0.0099392
1.40251e-06
0.00993868
-9.24184e-07
0.0099386
-3.09431e-06
0.00993892
-5.11666e-06
0.00993964
-7.00159e-06
0.00994071
-8.75896e-06
0.00994211
-1.03968e-05
0.00994383
-1.19223e-05
0.00994583
-1.33415e-05
0.00994811
-1.46585e-05
0.00995063
-1.58775e-05
0.00995339
-1.70018e-05
0.00995636
-1.80333e-05
0.00995953
-1.89755e-05
0.00996287
-1.98275e-05
0.00996638
-2.05895e-05
0.00997003
-2.12613e-05
0.00997381
-2.18414e-05
0.0099777
-2.23256e-05
0.00998167
-2.27111e-05
0.00998573
-2.29886e-05
0.00998983
-2.31455e-05
0.00999396
-2.31784e-05
0.0099981
-2.30674e-05
0.0100022
-2.28163e-05
0.0100063
-2.24068e-05
0.0100104
-2.18535e-05
0.0100143
-2.11641e-05
0.0100182
-2.03793e-05
0.010022
-1.95352e-05
0.0100257
-1.87017e-05
0.0100293
-1.79393e-05
0.0100328
-1.73487e-05
0.0100363
-1.7003e-05
0.0100397
-1.69936e-05
0.0100431
-1.72942e-05
0.0100465
-1.78934e-05
-9.23134e-06
0.0131983
0.00457686
0.0131373
0.00257801
0.0129915
0.00220581
0.0127826
0.00181691
0.0125574
0.00145244
0.0123512
0.00114828
0.0121753
0.000912857
0.0120287
0.000736235
0.0119067
0.000603686
0.0118044
0.000502686
0.011718
0.000424209
0.0116442
0.000362025
0.0115808
0.000311841
0.0115258
0.00027067
0.0114778
0.0002364
0.0114358
0.000207506
0.0113987
0.00018287
0.011366
0.000161655
0.0113369
0.000143224
0.0113111
0.000127088
0.0112881
0.00011286
0.0112677
0.000100238
0.0112495
8.89769e-05
0.0112332
7.88784e-05
0.0112188
6.9781e-05
0.011206
6.15511e-05
0.0111946
5.40775e-05
0.0111846
4.72672e-05
0.0111758
4.10414e-05
0.011168
3.53338e-05
0.0111613
3.00873e-05
0.0111555
2.5253e-05
0.0111506
2.07887e-05
0.0111465
1.66581e-05
0.0111431
1.28295e-05
0.0111404
9.27475e-06
0.0111383
5.96887e-06
0.0111369
2.89006e-06
0.0111359
1.61746e-08
0.0111355
-2.66633e-06
0.0111355
-5.16701e-06
0.011136
-7.49778e-06
0.0111369
-9.67086e-06
0.0111382
-1.16964e-05
0.0111399
-1.35833e-05
0.0111419
-1.53393e-05
0.0111442
-1.69698e-05
0.0111468
-1.84802e-05
0.0111497
-1.98745e-05
0.0111528
-2.11554e-05
0.0111562
-2.23272e-05
0.0111597
-2.3389e-05
0.0111635
-2.43413e-05
0.0111674
-2.5184e-05
0.0111715
-2.59155e-05
0.0111757
-2.6531e-05
0.01118
-2.70275e-05
0.0111844
-2.73949e-05
0.0111889
-2.76197e-05
0.0111934
-2.76981e-05
0.0111979
-2.76096e-05
0.0112025
-2.73583e-05
0.011207
-2.69259e-05
0.0112115
-2.63286e-05
0.0112159
-2.55762e-05
0.0112202
-2.47128e-05
0.0112245
-2.37789e-05
0.0112286
-2.28495e-05
0.0112327
-2.19905e-05
0.0112366
-2.13089e-05
0.0112405
-2.08834e-05
0.0112443
-2.08092e-05
0.0112481
-2.10503e-05
0.0112518
-2.15946e-05
-1.10839e-05
0.0145294
0.00455582
0.0145054
0.00260198
0.0144157
0.00229555
0.0142598
0.00197282
0.0140612
0.00165105
0.0138564
0.00135304
0.0136688
0.00110045
0.0135058
0.000899213
0.0133669
0.000742613
0.0132489
0.000620723
0.0131482
0.000524839
0.0130619
0.000448325
0.0129874
0.000386336
0.0129227
0.00033538
0.0128662
0.00029293
0.0128166
0.000257137
0.0127728
0.000226629
0.0127341
0.000200373
0.0126997
0.000177581
0.0126692
0.000157643
0.012642
0.000140079
0.0126177
0.00012451
0.012596
0.000110631
0.0125767
9.81967e-05
0.0125595
8.70036e-05
0.0125442
7.68855e-05
0.0125305
6.77041e-05
0.0125185
5.93433e-05
0.0125078
5.17051e-05
0.0124984
4.47069e-05
0.0124902
3.82776e-05
0.0124831
3.23566e-05
0.012477
2.68914e-05
0.0124718
2.1837e-05
0.0124675
1.71539e-05
0.012464
1.28075e-05
0.0124612
8.76678e-06
0.0124591
5.00561e-06
0.0124576
1.49732e-06
0.0124567
-1.77868e-06
0.0124564
-4.83515e-06
0.0124566
-7.68398e-06
0.0124572
-1.03401e-05
0.0124583
-1.28162e-05
0.0124599
-1.51232e-05
0.0124618
-1.7271e-05
0.0124641
-1.92662e-05
0.0124667
-2.11157e-05
0.0124697
-2.28247e-05
0.0124729
-2.43967e-05
0.0124764
-2.58367e-05
0.0124802
-2.71443e-05
0.0124842
-2.83203e-05
0.0124884
-2.93647e-05
0.0124927
-3.02758e-05
0.0124972
-3.10486e-05
0.0125019
-3.16797e-05
0.0125067
-3.21586e-05
0.0125115
-3.2471e-05
0.0125164
-3.26133e-05
0.0125214
-3.25636e-05
0.0125263
-3.23275e-05
0.0125313
-3.18859e-05
0.0125362
-3.1257e-05
0.0125411
-3.04517e-05
0.0125459
-2.95176e-05
0.0125506
-2.84977e-05
0.0125553
-2.74723e-05
0.0125598
-2.65104e-05
0.0125642
-2.57252e-05
0.0125685
-2.51991e-05
0.0125727
-2.50313e-05
0.0125769
-2.51744e-05
0.0125809
-2.56172e-05
-1.30851e-05
0.0159844
0.00451431
0.0159863
0.00260012
0.0159396
0.0023422
0.015838
0.00207445
0.0156829
0.00180618
0.0154978
0.00153813
0.0153103
0.00128793
0.015137
0.00107255
0.0149835
0.000896033
0.0148502
0.000754095
0.0147348
0.000640183
0.014635
0.000548156
0.0145483
0.000473036
0.0144727
0.000411005
0.0144064
0.000359191
0.0143481
0.00031544
0.0142966
0.000278124
0.014251
0.000246004
0.0142104
0.000218126
0.0141743
0.000193748
0.0141421
0.000172285
0.0141134
0.000153272
0.0140877
0.000136333
0.0140647
0.000121167
0.0140442
0.000107525
0.0140259
9.52009e-05
0.0140095
8.4025e-05
0.013995
7.38542e-05
0.0139822
6.45681e-05
0.0139708
5.60647e-05
0.0139608
4.82569e-05
0.0139521
4.107e-05
0.0139446
3.44394e-05
0.0139381
2.83097e-05
0.0139326
2.26325e-05
0.0139281
1.73654e-05
0.0139244
1.24706e-05
0.0139214
7.91612e-06
0.0139193
3.67121e-06
0.0139178
-2.92529e-07
0.0139169
-3.99372e-06
0.0139167
-7.44448e-06
0.013917
-1.0662e-05
0.0139179
-1.36617e-05
0.0139192
-1.64572e-05
0.013921
-1.90603e-05
0.0139232
-2.14799e-05
0.0139258
-2.37242e-05
0.0139288
-2.57998e-05
0.0139321
-2.77114e-05
0.0139357
-2.94648e-05
0.0139396
-3.10602e-05
0.0139438
-3.24987e-05
0.0139482
-3.37807e-05
0.0139529
-3.49045e-05
0.0139577
-3.5865e-05
0.0139627
-3.66586e-05
0.0139678
-3.72746e-05
0.013973
-3.76981e-05
0.0139783
-3.79256e-05
0.0139837
-3.79349e-05
0.0139891
-3.77321e-05
0.0139945
-3.72981e-05
0.0139999
-3.66524e-05
0.0140053
-3.58069e-05
0.0140105
-3.48116e-05
0.0140158
-3.37119e-05
0.0140209
-3.2591e-05
0.0140259
-3.1521e-05
0.0140308
-3.06192e-05
0.0140356
-2.99715e-05
0.0140402
-2.96797e-05
0.0140447
-2.96849e-05
0.0140491
-2.99766e-05
-1.52452e-05
0.0175785
0.00445507
0.0175995
0.00257919
0.0175837
0.00235791
0.0175281
0.00213005
0.0174232
0.00191109
0.0172751
0.00168623
0.0171043
0.00145878
0.0169315
0.00124532
0.0167696
0.00105797
0.0166236
0.000900065
0.0164944
0.000769374
0.0163809
0.000661678
0.0162813
0.000572637
0.0161938
0.0004985
0.0161167
0.000436243
0.0160487
0.000383494
0.0159884
0.000338409
0.0159348
0.000299552
0.0158872
0.000265805
0.0158446
0.000236287
0.0158066
0.000210298
0.0157726
0.000187279
0.0157422
0.00016678
0.0157149
0.000148433
0.0156905
0.000131937
0.0156686
0.000117043
0.0156491
0.000103542
0.0156317
9.12626e-05
0.0156162
8.00565e-05
0.0156025
6.98001e-05
0.0155904
6.03871e-05
0.0155797
5.17264e-05
0.0155704
4.37396e-05
0.0155624
3.63591e-05
0.0155555
2.95258e-05
0.0155496
2.31883e-05
0.0155448
1.73006e-05
0.0155409
1.18242e-05
0.0155379
6.72276e-06
0.0155356
1.96204e-06
0.0155341
-2.48575e-06
0.0155333
-6.636e-06
0.0155331
-1.05058e-05
0.0155336
-1.41141e-05
0.0155346
-1.74775e-05
0.0155361
-2.06104e-05
0.0155382
-2.35236e-05
0.0155407
-2.62275e-05
0.0155436
-2.87303e-05
0.015547
-3.10378e-05
0.0155506
-3.31571e-05
0.0155547
-3.50891e-05
0.015559
-3.68355e-05
0.0155636
-3.8397e-05
0.0155685
-3.97722e-05
0.0155736
-4.0956e-05
0.0155789
-4.19449e-05
0.0155843
-4.2728e-05
0.0155899
-4.32903e-05
0.0155956
-4.36287e-05
0.0156014
-4.37205e-05
0.0156072
-4.3573e-05
0.0156131
-4.31666e-05
0.015619
-4.25223e-05
0.0156248
-4.16523e-05
0.0156306
-4.06083e-05
0.0156363
-3.94364e-05
0.015642
-3.8223e-05
0.0156475
-3.70407e-05
0.0156529
-3.60104e-05
0.0156581
-3.52199e-05
0.0156632
-3.47735e-05
0.0156681
-3.45995e-05
0.0156729
-3.4688e-05
-1.75681e-05
0.0193271
0.00437951
0.0193633
0.00254302
0.0193699
0.00235126
0.0193491
0.00215085
0.0192904
0.00196985
0.0191886
0.00178799
0.0190512
0.00159619
0.0188945
0.00140198
0.0187348
0.00121769
0.0185826
0.00105228
0.0184429
0.000909105
0.0183171
0.00078748
0.0182049
0.000684848
0.0181051
0.000598216
0.0180166
0.00052479
0.0179379
0.000462184
0.0178679
0.000408444
0.0178054
0.000361996
0.0177496
0.000321578
0.0176998
0.000286181
0.0176551
0.000254993
0.017615
0.000227358
0.017579
0.000202744
0.0175467
0.000180714
0.0175178
0.000160909
0.0174918
0.000143032
0.0174685
0.000126832
0.0174476
0.000112102
0.017429
9.86648e-05
0.0174125
8.63707e-05
0.0173978
7.50917e-05
0.0173848
6.47179e-05
0.0173734
5.51547e-05
0.0173634
4.63204e-05
0.0173548
3.81437e-05
0.0173474
3.05624e-05
0.0173412
2.35214e-05
0.017336
1.69738e-05
0.0173319
1.08769e-05
0.0173286
5.19133e-06
0.0173263
-1.20977e-07
0.0173247
-5.08242e-06
0.0173239
-9.71022e-06
0.0173238
-1.40259e-05
0.0173244
-1.80494e-05
0.0173256
-2.17982e-05
0.0173274
-2.52858e-05
0.0173297
-2.85246e-05
0.0173325
-3.15248e-05
0.0173357
-3.4294e-05
0.0173394
-3.68404e-05
0.0173435
-3.91659e-05
0.0173479
-4.12729e-05
0.0173527
-4.31629e-05
0.0173577
-4.48346e-05
0.0173631
-4.62833e-05
0.0173686
-4.75057e-05
0.0173744
-4.84913e-05
0.0173803
-4.92248e-05
0.0173864
-4.97041e-05
0.0173926
-4.99065e-05
0.0173989
-4.98401e-05
0.0174052
-4.94854e-05
0.0174115
-4.88643e-05
0.0174178
-4.79889e-05
0.0174242
-4.69118e-05
0.0174304
-4.56793e-05
0.0174366
-4.43786e-05
0.0174426
-4.30824e-05
0.0174485
-4.19131e-05
0.0174542
-4.096e-05
0.0174598
-4.03282e-05
0.0174651
-3.99334e-05
0.0174702
-3.97644e-05
-2.00637e-05
0.0212463
0.00428825
0.0212957
0.00249367
0.0213195
0.00232744
0.0213242
0.00214617
0.0213021
0.00199196
0.0212453
0.00184475
0.0211515
0.00169
0.021027
0.00152649
0.0208846
0.00136013
0.0207372
0.00119968
0.020594
0.0010523
0.02046
0.000921453
0.0203373
0.000807544
0.0202262
0.000709285
0.0201263
0.000624735
0.0200366
0.000551878
0.0199562
0.000488871
0.019884
0.000434123
0.0198193
0.000386304
0.0197612
0.000344313
0.0197089
0.000307245
0.0196619
0.000274358
0.0196196
0.000245039
0.0195816
0.000218784
0.0195473
0.000195173
0.0195165
0.000173856
0.0194888
0.000154539
0.0194639
0.000136976
0.0194416
0.000120956
0.0194217
0.000106301
0.0194039
9.28592e-05
0.0193881
8.0499e-05
0.0193742
6.91074e-05
0.0193619
5.85865e-05
0.0193512
4.8851e-05
0.0193419
3.98265e-05
0.019334
3.14469e-05
0.0193273
2.36562e-05
0.0193218
1.64035e-05
0.0193173
9.64314e-06
0.0193139
3.3303e-06
0.0193114
-2.56918e-06
0.0193097
-8.0774e-06
0.0193089
-1.32149e-05
0.0193089
-1.80056e-05
0.0193096
-2.24704e-05
0.0193109
-2.66259e-05
0.0193129
-3.04872e-05
0.0193154
-3.40666e-05
0.0193185
-3.73737e-05
0.0193221
-4.04182e-05
0.0193261
-4.32033e-05
0.0193306
-4.57324e-05
0.0193354
-4.80077e-05
0.0193406
-5.00285e-05
0.0193461
-5.17905e-05
0.0193519
-5.32912e-05
0.0193579
-5.45202e-05
0.0193642
-5.5463e-05
0.0193706
-5.61185e-05
0.0193771
-5.64639e-05
0.0193838
-5.65093e-05
0.0193905
-5.62344e-05
0.0193973
-5.56626e-05
0.0194042
-5.4805e-05
0.019411
-5.37146e-05
0.0194177
-5.24362e-05
0.0194244
-5.10573e-05
0.019431
-4.96486e-05
0.0194374
-4.83331e-05
0.0194436
-4.71992e-05
0.0194496
-4.63533e-05
0.0194554
-4.5696e-05
0.0194609
-4.52144e-05
-2.27326e-05
0.0233536
0.00418142
0.0234151
0.0024322
0.0234532
0.00228933
0.0234772
0.00212214
0.0234826
0.00198665
0.0234628
0.0018645
0.0234125
0.0017403
0.02333
0.00160898
0.0232201
0.00147005
0.0230924
0.00132737
0.0229574
0.00118727
0.0228234
0.00105551
0.0226954
0.000935567
0.022576
0.000828655
0.0224663
0.000734457
0.0223663
0.000651894
0.0222755
0.00057961
0.0221934
0.000516238
0.0221192
0.000460522
0.0220521
0.000411361
0.0219916
0.000367808
0.0219369
0.000329066
0.0218874
0.00029446
0.0218428
0.000263425
0.0218025
0.000235487
0.0217661
0.000210244
0.0217333
0.000187358
0.0217037
0.000166541
0.0216771
0.000147551
0.0216532
0.000130177
0.0216319
0.00011424
0.0216128
9.95859e-05
0.0215958
8.6081e-05
0.0215808
7.36094e-05
0.0215676
6.20701e-05
0.021556
5.13747e-05
0.021546
4.14449e-05
0.0215375
3.2214e-05
0.0215302
2.36217e-05
0.0215243
1.56146e-05
0.0215195
8.14226e-06
0.0215157
1.15888e-06
0.021513
-5.3681e-06
0.0215113
-1.14595e-05
0.0215104
-1.7141e-05
0.0215104
-2.24377e-05
0.0215111
-2.73694e-05
0.0215126
-3.19544e-05
0.0215147
-3.62076e-05
0.0215175
-4.01409e-05
0.0215208
-4.37659e-05
0.0215247
-4.70873e-05
0.0215291
-5.01097e-05
0.0215339
-5.28362e-05
0.0215392
-5.5267e-05
0.0215448
-5.73986e-05
0.0215507
-5.92292e-05
0.0215569
-6.07495e-05
0.0215634
-6.19456e-05
0.0215701
-6.28179e-05
0.021577
-6.33445e-05
0.021584
-6.35368e-05
0.0215912
-6.3375e-05
0.0215984
-6.28829e-05
0.0216056
-6.20709e-05
0.0216129
-6.09912e-05
0.0216202
-5.96867e-05
0.0216274
-5.82428e-05
0.0216344
-5.67276e-05
0.0216414
-5.5262e-05
0.0216481
-5.39335e-05
0.0216546
-5.2847e-05
0.0216608
-5.18887e-05
0.0216666
-5.10396e-05
-2.55802e-05
0.025668
0.00405883
0.0257411
0.00235909
0.025792
0.00223841
0.0258318
0.00208235
0.025858
0.00196046
0.0258665
0.00185601
0.0258526
0.00175414
0.0258122
0.00164945
0.0257435
0.00153871
0.0256497
0.00142115
0.0255378
0.00129914
0.0254163
0.00117709
0.0252923
0.00105955
0.0251711
0.000949846
0.0250558
0.000849723
0.0249481
0.000759626
0.0248485
0.000679192
0.0247571
0.000607648
0.0246736
0.000544065
0.0245974
0.000487505
0.0245281
0.000437091
0.0244652
0.000392034
0.024408
0.000351644
0.0243561
0.000315323
0.024309
0.000282556
0.0242664
0.000252903
0.0242277
0.000225985
0.0241928
0.000201478
0.0241612
0.000179105
0.0241328
0.000158625
0.0241072
0.000139831
0.0240842
0.000122546
0.0240637
0.000106612
0.0240454
9.18961e-05
0.0240292
7.82787e-05
0.0240149
6.56564e-05
0.0240024
5.39375e-05
0.0239916
4.30432e-05
0.0239823
3.29026e-05
0.0239745
2.34533e-05
0.023968
1.46376e-05
0.0239628
6.40312e-06
0.0239587
-1.29793e-06
0.0239557
-8.49379e-06
0.0239538
-1.5208e-05
0.0239528
-2.14697e-05
0.0239527
-2.73022e-05
0.0239535
-3.27275e-05
0.0239551
-3.77637e-05
0.0239574
-4.2425e-05
0.0239603
-4.67255e-05
0.0239639
-5.06716e-05
0.0239681
-5.42692e-05
0.0239728
-5.75231e-05
0.0239779
-6.04342e-05
0.0239835
-6.30001e-05
0.0239895
-6.52204e-05
0.0239958
-6.70869e-05
0.0240025
-6.8587e-05
0.0240094
-6.97231e-05
0.0240165
-7.04743e-05
0.0240238
-7.08544e-05
0.0240313
-7.08435e-05
0.0240389
-7.04667e-05
0.0240466
-6.97329e-05
0.0240543
-6.86932e-05
0.024062
-6.73866e-05
0.0240696
-6.58968e-05
0.0240772
-6.42859e-05
0.0240846
-6.26726e-05
0.0240918
-6.11402e-05
0.0240987
-5.97923e-05
0.0241053
-5.84981e-05
0.0241115
-5.72299e-05
-2.85983e-05
0.02821
0.00392004
0.0282946
0.00227448
0.0283577
0.00217531
0.0284114
0.00202872
0.0284545
0.00191736
0.0284846
0.00182582
0.028499
0.00173975
0.0284939
0.00165457
0.0284658
0.00156685
0.0284129
0.00147399
0.0283369
0.00137516
0.0282424
0.00127159
0.0281359
0.00116607
0.0280237
0.00106203
0.027911
0.000962457
0.0278012
0.000869359
0.0276967
0.000783741
0.0275985
0.00070584
0.0275072
0.000635404
0.0274227
0.000571917
0.0273451
0.000514754
0.0272738
0.000463267
0.0272087
0.000416832
0.0271491
0.000374877
0.0270948
0.000336886
0.0270453
0.000302404
0.0270002
0.000271029
0.0269593
0.000242411
0.0269222
0.000216246
0.0268885
0.000192267
0.0268581
0.000170242
0.0268307
0.000149969
0.026806
0.00013127
0.0267839
0.000113991
0.0267642
9.79968e-05
0.0267467
8.31665e-05
0.0267312
6.93943e-05
0.0267177
5.65884e-05
0.0267059
4.46665e-05
0.0266958
3.3556e-05
0.0266873
2.31907e-05
0.0266802
1.35116e-05
0.0266744
4.46125e-06
0.0266699
-4.00439e-06
0.0266666
-1.19131e-05
0.0266644
-1.92914e-05
0.0266633
-2.61669e-05
0.0266631
-3.25657e-05
0.0266639
-3.85094e-05
0.0266655
-4.40153e-05
0.0266679
-4.90999e-05
0.026671
-5.37719e-05
0.0266747
-5.80389e-05
0.0266791
-6.19071e-05
0.0266841
-6.53791e-05
0.0266895
-6.84536e-05
0.0266954
-7.11317e-05
0.0267017
-7.34071e-05
0.0267084
-7.5269e-05
0.0267154
-7.67221e-05
0.0267227
-7.77475e-05
0.0267302
-7.83612e-05
0.0267379
-7.85445e-05
0.0267458
-7.83233e-05
0.0267537
-7.77054e-05
0.0267618
-7.67397e-05
0.0267698
-7.54615e-05
0.0267779
-7.39501e-05
0.0267859
-7.22616e-05
0.0267937
-7.05092e-05
0.0268013
-6.87715e-05
0.0268087
-6.71481e-05
0.0268157
-6.54913e-05
0.0268222
-6.37577e-05
-3.17797e-05
0.0310025
0.00376437
0.0310986
0.00217833
0.0311738
0.00210012
0.0312404
0.00196217
0.0312982
0.00185951
0.0313461
0.00177799
0.0313824
0.00170341
0.0314049
0.00163208
0.0314106
0.00156114
0.0313966
0.00148794
0.0313612
0.00141063
0.0313045
0.00132831
0.0312292
0.00124132
0.03114
0.00115123
0.0310421
0.00106038
0.0309402
0.000971214
0.0308382
0.000885745
0.0307387
0.000805322
0.0306435
0.000730648
0.0305535
0.00066193
0.0304692
0.000599048
0.0303908
0.000541688
0.0303182
0.00048944
0.0302512
0.000441861
0.0301896
0.000398507
0.030133
0.00035896
0.0300812
0.000322832
0.0300338
0.000289771
0.0299906
0.000259464
0.0299513