/*--------------------------------*- C++ -*----------------------------------*\
  =========                 |
  \\      /  F ield         | OpenFOAM: The Open Source CFD Toolbox
   \\    /   O peration     | Website:  https://openfoam.org
    \\  /    A nd           | Version:  7
     \\/     M anipulation  |
\*---------------------------------------------------------------------------*/
FoamFile
{
    version     2.0;
    format      ascii;
    class       volVectorField;
    location    "800";
    object      U;
}
// * * * * * * * * * * * * * * * * * * * * * * * * * * * * * * * * * * * * * //

dimensions      [0 1 -1 0 0 0 0];

internalField   nonuniform List<vector> 
4500
(
(15.4058 -0.778201 0)
(13.7077 -0.0619025 0)
(13.0325 -0.00325615 0)
(12.6708 0.00046499 0)
(12.4331 0.00050143 0)
(12.2594 0.000386177 0)
(12.125 0.000303744 0)
(12.0172 0.000246405 0)
(11.9286 0.0002045 0)
(11.8542 0.000172559 0)
(11.7911 0.000147435 0)
(11.7368 0.000127187 0)
(11.6898 0.000110546 0)
(11.6488 9.66465e-05 0)
(11.6128 8.48802e-05 0)
(11.5812 7.48044e-05 0)
(11.5533 6.60903e-05 0)
(11.5286 5.84884e-05 0)
(11.5067 5.18061e-05 0)
(11.4874 4.58926e-05 0)
(11.4702 4.0628e-05 0)
(11.455 3.59156e-05 0)
(11.4416 3.1677e-05 0)
(11.4298 2.7848e-05 0)
(11.4194 2.43751e-05 0)
(11.4104 2.12138e-05 0)
(11.4025 1.83267e-05 0)
(11.3958 1.5682e-05 0)
(11.39 1.32523e-05 0)
(11.3852 1.10155e-05 0)
(11.3812 8.95129e-06 0)
(11.378 7.0424e-06 0)
(11.3755 5.27338e-06 0)
(11.3738 3.63228e-06 0)
(11.3726 2.10728e-06 0)
(11.372 6.84922e-07 0)
(11.372 -6.48603e-07 0)
(11.3725 -1.88769e-06 0)
(11.3734 -3.03498e-06 0)
(11.3748 -4.10379e-06 0)
(11.3766 -5.10248e-06 0)
(11.3788 -6.03288e-06 0)
(11.3814 -6.89997e-06 0)
(11.3842 -7.70686e-06 0)
(11.3874 -8.45743e-06 0)
(11.3909 -9.15509e-06 0)
(11.3946 -9.79827e-06 0)
(11.3986 -1.03892e-05 0)
(11.4028 -1.09299e-05 0)
(11.4072 -1.14195e-05 0)
(11.4118 -1.18669e-05 0)
(11.4166 -1.2264e-05 0)
(11.4215 -1.26089e-05 0)
(11.4265 -1.29049e-05 0)
(11.4316 -1.3155e-05 0)
(11.4369 -1.33535e-05 0)
(11.4422 -1.35123e-05 0)
(11.4475 -1.36158e-05 0)
(11.4529 -1.36395e-05 0)
(11.4583 -1.36041e-05 0)
(11.4636 -1.34566e-05 0)
(11.4689 -1.32236e-05 0)
(11.474 -1.28333e-05 0)
(11.479 -1.23036e-05 0)
(11.4837 -1.16029e-05 0)
(11.4882 -1.07741e-05 0)
(11.4923 -9.81452e-06 0)
(11.4961 -8.79554e-06 0)
(11.4994 -7.74893e-06 0)
(11.5024 -6.83158e-06 0)
(11.5051 -6.11145e-06 0)
(11.5077 -5.79798e-06 0)
(11.5102 -5.85237e-06 0)
(11.5128 -6.38799e-06 0)
(11.5158 -3.59788e-06 0)
(17.5879 0.16307 0)
(16.0152 0.0238108 0)
(15.1976 0.00458796 0)
(14.7348 0.00198899 0)
(14.4341 0.00129709 0)
(14.2183 0.000960549 0)
(14.0538 0.000751469 0)
(13.9232 0.000608021 0)
(13.8165 0.000503607 0)
(13.7275 0.000424282 0)
(13.6522 0.000362065 0)
(13.5878 0.000312044 0)
(13.532 0.000271017 0)
(13.4835 0.000236811 0)
(13.441 0.000207895 0)
(13.4037 0.000183163 0)
(13.3708 0.000161797 0)
(13.3416 0.000143174 0)
(13.3158 0.000126818 0)
(13.293 0.000112353 0)
(13.2728 9.94828e-05 0)
(13.2548 8.79693e-05 0)
(13.239 7.76186e-05 0)
(13.225 6.82721e-05 0)
(13.2127 5.97983e-05 0)
(13.202 5.20875e-05 0)
(13.1926 4.50477e-05 0)
(13.1846 3.86012e-05 0)
(13.1777 3.26808e-05 0)
(13.1718 2.72314e-05 0)
(13.167 2.22035e-05 0)
(13.1631 1.75549e-05 0)
(13.16 1.32483e-05 0)
(13.1577 9.25344e-06 0)
(13.1562 5.54163e-06 0)
(13.1553 2.08428e-06 0)
(13.1551 -1.15003e-06 0)
(13.1554 -4.16031e-06 0)
(13.1563 -6.95392e-06 0)
(13.1577 -9.55704e-06 0)
(13.1596 -1.19872e-05 0)
(13.1619 -1.4252e-05 0)
(13.1647 -1.6363e-05 0)
(13.1678 -1.8328e-05 0)
(13.1713 -2.01554e-05 0)
(13.1751 -2.18524e-05 0)
(13.1793 -2.3419e-05 0)
(13.1837 -2.486e-05 0)
(13.1884 -2.61794e-05 0)
(13.1933 -2.73767e-05 0)
(13.1984 -2.84644e-05 0)
(13.2038 -2.94317e-05 0)
(13.2093 -3.02776e-05 0)
(13.2149 -3.10063e-05 0)
(13.2207 -3.16206e-05 0)
(13.2266 -3.21114e-05 0)
(13.2326 -3.24893e-05 0)
(13.2386 -3.27279e-05 0)
(13.2447 -3.27875e-05 0)
(13.2508 -3.26834e-05 0)
(13.2568 -3.23288e-05 0)
(13.2627 -3.17485e-05 0)
(13.2685 -3.0829e-05 0)
(13.2741 -2.95938e-05 0)
(13.2795 -2.79991e-05 0)
(13.2846 -2.61248e-05 0)
(13.2893 -2.39952e-05 0)
(13.2937 -2.17686e-05 0)
(13.2977 -1.95507e-05 0)
(13.3015 -1.76529e-05 0)
(13.305 -1.62597e-05 0)
(13.3084 -1.5759e-05 0)
(13.312 -1.61579e-05 0)
(13.3157 -1.76029e-05 0)
(13.3199 -9.51391e-06 0)
(18.7449 0.0973745 0)
(17.3725 0.0156216 0)
(16.4743 0.00605636 0)
(15.9331 0.00350033 0)
(15.5795 0.00236975 0)
(15.3279 0.00174957 0)
(15.138 0.00136082 0)
(14.9886 0.00109591 0)
(14.8673 0.000904526 0)
(14.7668 0.000760049 0)
(14.6821 0.000647306 0)
(14.6098 0.000557034 0)
(14.5474 0.000483241 0)
(14.4932 0.000421882 0)
(14.4459 0.000370133 0)
(14.4043 0.000325958 0)
(14.3676 0.000287856 0)
(14.3353 0.000254694 0)
(14.3066 0.000225603 0)
(14.2812 0.000199905 0)
(14.2586 0.000177063 0)
(14.2387 0.000156645 0)
(14.221 0.000138304 0)
(14.2054 0.000121753 0)
(14.1917 0.000106756 0)
(14.1796 9.31181e-05 0)
(14.1691 8.06729e-05 0)
(14.16 6.92816e-05 0)
(14.1522 5.88247e-05 0)
(14.1456 4.92028e-05 0)
(14.14 4.03281e-05 0)
(14.1355 3.21253e-05 0)
(14.1319 2.45284e-05 0)
(14.1291 1.74826e-05 0)
(14.1271 1.09373e-05 0)
(14.1259 4.84687e-06 0)
(14.1254 -8.45303e-07 0)
(14.1255 -6.15213e-06 0)
(14.1262 -1.10831e-05 0)
(14.1275 -1.56759e-05 0)
(14.1293 -1.99614e-05 0)
(14.1315 -2.39559e-05 0)
(14.1343 -2.76795e-05 0)
(14.1374 -3.11465e-05 0)
(14.141 -3.43714e-05 0)
(14.1449 -3.73664e-05 0)
(14.1491 -4.01341e-05 0)
(14.1537 -4.2683e-05 0)
(14.1585 -4.50194e-05 0)
(14.1637 -4.7144e-05 0)
(14.169 -4.90735e-05 0)
(14.1746 -5.07943e-05 0)
(14.1804 -5.23055e-05 0)
(14.1863 -5.36115e-05 0)
(14.1924 -5.47134e-05 0)
(14.1986 -5.55959e-05 0)
(14.2049 -5.62669e-05 0)
(14.2113 -5.66855e-05 0)
(14.2177 -5.6792e-05 0)
(14.2241 -5.65966e-05 0)
(14.2304 -5.59773e-05 0)
(14.2367 -5.49628e-05 0)
(14.2429 -5.3403e-05 0)
(14.2488 -5.13395e-05 0)
(14.2545 -4.87327e-05 0)
(14.26 -4.57214e-05 0)
(14.2651 -4.23802e-05 0)
(14.27 -3.89747e-05 0)
(14.2745 -3.57036e-05 0)
(14.2789 -3.30456e-05 0)
(14.283 -3.13036e-05 0)
(14.2872 -3.10321e-05 0)
(14.2914 -3.22342e-05 0)
(14.296 -3.50365e-05 0)
(14.3009 -1.87207e-05 0)
(19.3754 0.0462247 0)
(18.326 0.0150409 0)
(17.4307 0.00910101 0)
(16.8356 0.00564414 0)
(16.435 0.00383709 0)
(16.1491 0.00281757 0)
(15.9342 0.00217867 0)
(15.7661 0.00174595 0)
(15.6305 0.00143549 0)
(15.5186 0.00120258 0)
(15.4247 0.00102181 0)
(15.3447 0.000877711 0)
(15.276 0.000760364 0)
(15.2164 0.0006631 0)
(15.1644 0.00058129 0)
(15.1188 0.000511614 0)
(15.0786 0.000451637 0)
(15.0431 0.000399526 0)
(15.0117 0.000353883 0)
(14.9839 0.000313616 0)
(14.9592 0.000277867 0)
(14.9373 0.000245946 0)
(14.9179 0.000217298 0)
(14.9007 0.00019147 0)
(14.8856 0.000168085 0)
(14.8723 0.000146834 0)
(14.8607 0.000127453 0)
(14.8505 0.000109724 0)
(14.8418 9.34584e-05 0)
(14.8343 7.84982e-05 0)
(14.8281 6.47055e-05 0)
(14.8228 5.1962e-05 0)
(14.8186 4.01642e-05 0)
(14.8154 2.92251e-05 0)
(14.8129 1.90657e-05 0)
(14.8113 9.61636e-06 0)
(14.8104 7.93105e-07 0)
(14.8102 -7.43989e-06 0)
(14.8106 -1.50987e-05 0)
(14.8117 -2.22292e-05 0)
(14.8133 -2.88799e-05 0)
(14.8154 -3.50792e-05 0)
(14.818 -4.08583e-05 0)
(14.8211 -4.62406e-05 0)
(14.8246 -5.12483e-05 0)
(14.8284 -5.59001e-05 0)
(14.8327 -6.02028e-05 0)
(14.8373 -6.41694e-05 0)
(14.8422 -6.78096e-05 0)
(14.8473 -7.11262e-05 0)
(14.8528 -7.41396e-05 0)
(14.8585 -7.68346e-05 0)
(14.8643 -7.92098e-05 0)
(14.8704 -8.12695e-05 0)
(14.8767 -8.30117e-05 0)
(14.883 -8.4414e-05 0)
(14.8895 -8.54791e-05 0)
(14.8961 -8.61502e-05 0)
(14.9027 -8.63473e-05 0)
(14.9093 -8.60722e-05 0)
(14.9159 -8.51715e-05 0)
(14.9224 -8.36756e-05 0)
(14.9288 -8.14081e-05 0)
(14.935 -7.84324e-05 0)
(14.941 -7.47253e-05 0)
(14.9467 -7.04919e-05 0)
(14.9522 -6.58727e-05 0)
(14.9575 -6.12503e-05 0)
(14.9625 -5.69308e-05 0)
(14.9673 -5.35586e-05 0)
(14.972 -5.15617e-05 0)
(14.9766 -5.1646e-05 0)
(14.9815 -5.37895e-05 0)
(14.9865 -5.80843e-05 0)
(14.9919 -3.07659e-05 0)
(19.693 0.0456702 0)
(18.9995 0.0202329 0)
(18.1918 0.0128969 0)
(17.577 0.00823931 0)
(17.1407 0.00564736 0)
(16.8239 0.00414117 0)
(16.5849 0.00318982 0)
(16.3982 0.00254609 0)
(16.2481 0.00208608 0)
(16.1247 0.00174263 0)
(16.0214 0.00147727 0)
(15.9337 0.00126663 0)
(15.8585 0.0010957 0)
(15.7934 0.000954472 0)
(15.7367 0.000836004 0)
(15.687 0.000735347 0)
(15.6433 0.00064888 0)
(15.6047 0.000573892 0)
(15.5705 0.000508315 0)
(15.5402 0.000450546 0)
(15.5133 0.000399323 0)
(15.4895 0.000353639 0)
(15.4683 0.000312682 0)
(15.4496 0.000275789 0)
(15.4331 0.000242416 0)
(15.4185 0.00021211 0)
(15.4057 0.000184492 0)
(15.3945 0.000159243 0)
(15.3848 0.000136092 0)
(15.3765 0.00011481 0)
(15.3694 9.51979e-05 0)
(15.3635 7.70856e-05 0)
(15.3587 6.0324e-05 0)
(15.3548 4.47874e-05 0)
(15.3518 3.03625e-05 0)
(15.3497 1.69495e-05 0)
(15.3484 4.43906e-06 0)
(15.3479 -7.23971e-06 0)
(15.348 -1.81183e-05 0)
(15.3487 -2.8244e-05 0)
(15.3501 -3.76852e-05 0)
(15.352 -4.64856e-05 0)
(15.3544 -5.46899e-05 0)
(15.3573 -6.23323e-05 0)
(15.3606 -6.94445e-05 0)
(15.3644 -7.60535e-05 0)
(15.3686 -8.21715e-05 0)
(15.3731 -8.78172e-05 0)
(15.3779 -9.30044e-05 0)
(15.3831 -9.77384e-05 0)
(15.3885 -0.000102044 0)
(15.3942 -0.000105904 0)
(15.4002 -0.000109318 0)
(15.4063 -0.000112289 0)
(15.4126 -0.000114811 0)
(15.419 -0.000116855 0)
(15.4256 -0.000118417 0)
(15.4323 -0.000119425 0)
(15.439 -0.000119779 0)
(15.4458 -0.000119474 0)
(15.4525 -0.000118329 0)
(15.4592 -0.000116378 0)
(15.4657 -0.000113427 0)
(15.4721 -0.000109563 0)
(15.4784 -0.000104787 0)
(15.4844 -9.93705e-05 0)
(15.4902 -9.35243e-05 0)
(15.4958 -8.77425e-05 0)
(15.5011 -8.24358e-05 0)
(15.5063 -7.83976e-05 0)
(15.5114 -7.61693e-05 0)
(15.5165 -7.65805e-05 0)
(15.5217 -7.95592e-05 0)
(15.527 -8.5157e-05 0)
(15.5327 -4.47617e-05 0)
(19.8488 0.0504549 0)
(19.4507 0.0244881 0)
(18.7997 0.016652 0)
(18.2081 0.0111579 0)
(17.7532 0.007791 0)
(17.4116 0.00573675 0)
(17.1505 0.00441439 0)
(16.9458 0.00351467 0)
(16.7812 0.00287186 0)
(16.6461 0.00239313 0)
(16.5332 0.00202448 0)
(16.4376 0.00173281 0)
(16.3557 0.00149689 0)
(16.2849 0.00130252 0)
(16.2233 0.00113989 0)
(16.1694 0.00100204 0)
(16.122 0.00088386 0)
(16.0802 0.000781559 0)
(16.0431 0.000692243 0)
(16.0103 0.000613678 0)
(15.9812 0.000544108 0)
(15.9553 0.000482135 0)
(15.9323 0.000426635 0)
(15.9119 0.000376692 0)
(15.8939 0.000331554 0)
(15.8779 0.000290597 0)
(15.8639 0.000253302 0)
(15.8516 0.000219229 0)
(15.8409 0.000188006 0)
(15.8317 0.00015932 0)
(15.8238 0.000132899 0)
(15.8171 0.000108509 0)
(15.8115 8.5948e-05 0)
(15.807 6.50432e-05 0)
(15.8035 4.56405e-05 0)
(15.8009 2.76044e-05 0)
(15.7991 1.07981e-05 0)
(15.7981 -4.89135e-06 0)
(15.7978 -1.9522e-05 0)
(15.7982 -3.3142e-05 0)
(15.7992 -4.5838e-05 0)
(15.8008 -5.76719e-05 0)
(15.803 -6.87045e-05 0)
(15.8057 -7.89831e-05 0)
(15.8088 -8.85511e-05 0)
(15.8124 -9.74452e-05 0)
(15.8164 -0.000105685 0)
(15.8208 -0.000113295 0)
(15.8256 -0.000120296 0)
(15.8307 -0.000126695 0)
(15.836 -0.000132521 0)
(15.8417 -0.000137759 0)
(15.8476 -0.000142406 0)
(15.8537 -0.000146464 0)
(15.86 -0.000149925 0)
(15.8665 -0.000152751 0)
(15.8731 -0.000154932 0)
(15.8799 -0.000156382 0)
(15.8867 -0.000156985 0)
(15.8935 -0.000156726 0)
(15.9003 -0.000155404 0)
(15.9071 -0.000153056 0)
(15.9138 -0.000149477 0)
(15.9204 -0.000144781 0)
(15.9268 -0.000138995 0)
(15.933 -0.000132456 0)
(15.9391 -0.00012544 0)
(15.9449 -0.000118548 0)
(15.9506 -0.000112285 0)
(15.9561 -0.000107575 0)
(15.9615 -0.000105057 0)
(15.9668 -0.000105664 0)
(15.9723 -0.000109246 0)
(15.9778 -0.000115821 0)
(15.9835 -6.04667e-05 0)
(19.929 0.0521809 0)
(19.7286 0.0270124 0)
(19.2674 0.0200258 0)
(18.7457 0.0142434 0)
(18.2961 0.0102331 0)
(17.9397 0.00761459 0)
(17.6607 0.00587475 0)
(17.4395 0.00467512 0)
(17.2609 0.0038141 0)
(17.114 0.00317259 0)
(16.9914 0.00267928 0)
(16.8876 0.00228985 0)
(16.7988 0.00197561 0)
(16.7221 0.00171734 0)
(16.6554 0.00150174 0)
(16.597 0.00131938 0)
(16.5458 0.00116334 0)
(16.5005 0.00102851 0)
(16.4605 0.000910981 0)
(16.4249 0.000807752 0)
(16.3934 0.000716463 0)
(16.3654 0.000635242 0)
(16.3405 0.000562585 0)
(16.3183 0.000497269 0)
(16.2987 0.000438292 0)
(16.2813 0.000384824 0)
(16.266 0.000336173 0)
(16.2525 0.000291758 0)
(16.2407 0.000251085 0)
(16.2305 0.000213739 0)
(16.2216 0.00017936 0)
(16.2141 0.000147641 0)
(16.2078 0.000118312 0)
(16.2026 9.11476e-05 0)
(16.1984 6.59437e-05 0)
(16.1952 4.25224e-05 0)
(16.1929 2.07148e-05 0)
(16.1914 3.64899e-07 0)
(16.1906 -1.86268e-05 0)
(16.1906 -3.63166e-05 0)
(16.1913 -5.28027e-05 0)
(16.1925 -6.81688e-05 0)
(16.1944 -8.24947e-05 0)
(16.1968 -9.58434e-05 0)
(16.1997 -0.000108272 0)
(16.2031 -0.00011983 0)
(16.2069 -0.000130544 0)
(16.2111 -0.000140449 0)
(16.2157 -0.00014957 0)
(16.2207 -0.00015792 0)
(16.226 -0.000165533 0)
(16.2315 -0.000172393 0)
(16.2374 -0.000178498 0)
(16.2434 -0.00018385 0)
(16.2497 -0.000188436 0)
(16.2561 -0.000192212 0)
(16.2628 -0.000195162 0)
(16.2695 -0.000197186 0)
(16.2763 -0.000198153 0)
(16.2832 -0.000198042 0)
(16.29 -0.000196633 0)
(16.2969 -0.000193971 0)
(16.3037 -0.000189841 0)
(16.3104 -0.000184385 0)
(16.317 -0.000177655 0)
(16.3234 -0.000170051 0)
(16.3296 -0.000161912 0)
(16.3357 -0.000153931 0)
(16.3416 -0.000146699 0)
(16.3473 -0.000141255 0)
(16.3529 -0.000138324 0)
(16.3585 -0.000138918 0)
(16.3641 -0.000142795 0)
(16.3697 -0.000149947 0)
(16.3754 -7.78058e-05 0)
(19.9739 0.052718 0)
(19.8889 0.0285834 0)
(19.6025 0.0227995 0)
(19.1903 0.0172661 0)
(18.776 0.0128803 0)
(18.4202 0.00975677 0)
(18.1302 0.00758162 0)
(17.8955 0.00604682 0)
(17.7042 0.0049334 0)
(17.546 0.00410026 0)
(17.4137 0.00345889 0)
(17.3016 0.00295286 0)
(17.2056 0.00254508 0)
(17.1228 0.00221049 0)
(17.0508 0.0019317 0)
(16.9878 0.00169629 0)
(16.9324 0.00149522 0)
(16.8836 0.00132175 0)
(16.8404 0.00117077 0)
(16.802 0.00103835 0)
(16.7679 0.000921396 0)
(16.7376 0.000817464 0)
(16.7106 0.000724593 0)
(16.6866 0.000641191 0)
(16.6653 0.000565954 0)
(16.6463 0.000497803 0)
(16.6296 0.000435842 0)
(16.6148 0.000379317 0)
(16.6019 0.00032759 0)
(16.5905 0.000280123 0)
(16.5807 0.000236452 0)
(16.5723 0.00019618 0)
(16.5651 0.000158962 0)
(16.5592 0.000124503 0)
(16.5543 9.2544e-05 0)
(16.5504 6.28555e-05 0)
(16.5475 3.52274e-05 0)
(16.5454 9.46625e-06 0)
(16.5442 -1.45857e-05 0)
(16.5437 -3.70089e-05 0)
(16.5439 -5.79037e-05 0)
(16.5448 -7.73786e-05 0)
(16.5463 -9.55351e-05 0)
(16.5483 -0.000112455 0)
(16.5509 -0.000128213 0)
(16.554 -0.000142872 0)
(16.5576 -0.000156469 0)
(16.5616 -0.00016905 0)
(16.566 -0.000180647 0)
(16.5708 -0.000191278 0)
(16.5759 -0.000200986 0)
(16.5813 -0.000209753 0)
(16.587 -0.000217579 0)
(16.593 -0.000224465 0)
(16.5992 -0.000230395 0)
(16.6056 -0.00023532 0)
(16.6121 -0.000239218 0)
(16.6188 -0.000241977 0)
(16.6256 -0.000243451 0)
(16.6325 -0.000243617 0)
(16.6394 -0.000242238 0)
(16.6463 -0.000239367 0)
(16.6531 -0.000234782 0)
(16.6599 -0.000228652 0)
(16.6666 -0.000221055 0)
(16.6731 -0.000212444 0)
(16.6795 -0.000203217 0)
(16.6857 -0.000194149 0)
(16.6918 -0.000185904 0)
(16.6977 -0.000179623 0)
(16.7035 -0.000176101 0)
(16.7093 -0.000176419 0)
(16.715 -0.000180227 0)
(16.7206 -0.000187504 0)
(16.7263 -9.67517e-05 0)
(20.0011 0.0528694 0)
(19.9807 0.0295175 0)
(19.8226 0.0248232 0)
(19.5371 0.019951 0)
(19.1896 0.0155661 0)
(18.8549 0.0120995 0)
(18.5647 0.00952307 0)
(18.3221 0.00763897 0)
(18.1205 0.00624631 0)
(17.9523 0.0051943 0)
(17.8107 0.00438085 0)
(17.6905 0.00373795 0)
(17.5873 0.00321978 0)
(17.4983 0.00279489 0)
(17.4207 0.00244122 0)
(17.3529 0.00214297 0)
(17.2933 0.00188857 0)
(17.2407 0.00166939 0)
(17.194 0.00147888 0)
(17.1527 0.00131199 0)
(17.1159 0.00116477 0)
(17.0831 0.00103409 0)
(17.0539 0.000917444 0)
(17.0279 0.000812792 0)
(17.0047 0.000718472 0)
(16.9842 0.000633109 0)
(16.9659 0.00055556 0)
(16.9497 0.000484867 0)
(16.9355 0.000420219 0)
(16.923 0.000360932 0)
(16.9121 0.000306418 0)
(16.9027 0.000256173 0)
(16.8946 0.000209762 0)
(16.8878 0.000166811 0)
(16.8821 0.00012699 0)
(16.8775 9.00115e-05 0)
(16.8739 5.56145e-05 0)
(16.8712 2.35686e-05 0)
(16.8694 -6.35067e-06 0)
(16.8684 -3.42688e-05 0)
(16.8681 -6.0288e-05 0)
(16.8685 -8.45386e-05 0)
(16.8696 -0.000107148 0)
(16.8713 -0.00012822 0)
(16.8735 -0.000147849 0)
(16.8763 -0.000166114 0)
(16.8796 -0.000183068 0)
(16.8833 -0.000198765 0)
(16.8875 -0.00021325 0)
(16.892 -0.000226547 0)
(16.8969 -0.000238705 0)
(16.9022 -0.00024971 0)
(16.9077 -0.000259563 0)
(16.9136 -0.000268264 0)
(16.9196 -0.000275797 0)
(16.9259 -0.000282105 0)
(16.9324 -0.000287163 0)
(16.939 -0.00029085 0)
(16.9457 -0.000293006 0)
(16.9525 -0.000293608 0)
(16.9594 -0.000292402 0)
(16.9663 -0.000289452 0)
(16.9732 -0.000284532 0)
(16.98 -0.000277834 0)
(16.9867 -0.000269457 0)
(16.9933 -0.000259905 0)
(16.9998 -0.000249623 0)
(17.0062 -0.000239459 0)
(17.0124 -0.000230138 0)
(17.0185 -0.000222887 0)
(17.0244 -0.000218563 0)
(17.0302 -0.000218305 0)
(17.036 -0.00022164 0)
(17.0416 -0.000228551 0)
(17.0472 -0.000117326 0)
(20.0187 0.0527445 0)
(20.0354 0.0299682 0)
(19.9582 0.026127 0)
(19.7862 0.0220655 0)
(19.5283 0.0180611 0)
(19.2388 0.0145161 0)
(18.9637 0.0116492 0)
(18.7216 0.00944108 0)
(18.5144 0.00775985 0)
(18.3385 0.00646875 0)
(18.189 0.00546134 0)
(18.0611 0.00466132 0)
(17.951 0.00401502 0)
(17.8557 0.00348461 0)
(17.7726 0.00304311 0)
(17.6999 0.00267097 0)
(17.6358 0.00235379 0)
(17.5792 0.00208078 0)
(17.5291 0.00184373 0)
(17.4845 0.00163628 0)
(17.4448 0.00145347 0)
(17.4094 0.00129135 0)
(17.3779 0.00114679 0)
(17.3497 0.0010172 0)
(17.3246 0.000900515 0)
(17.3023 0.000794993 0)
(17.2824 0.000699205 0)
(17.2647 0.000611947 0)
(17.2491 0.000532205 0)
(17.2353 0.000459121 0)
(17.2232 0.00039196 0)
(17.2127 0.000330091 0)
(17.2036 0.000272971 0)
(17.1959 0.000220132 0)
(17.1894 0.000171164 0)
(17.184 0.000125708 0)
(17.1796 8.34422e-05 0)
(17.1762 4.40904e-05 0)
(17.1738 7.36931e-06 0)
(17.1722 -2.69171e-05 0)
(17.1713 -5.88914e-05 0)
(17.1713 -8.86915e-05 0)
(17.1719 -0.000116475 0)
(17.1731 -0.000142373 0)
(17.1749 -0.000166501 0)
(17.1773 -0.000188961 0)
(17.1803 -0.000209819 0)
(17.1837 -0.000229146 0)
(17.1875 -0.000246996 0)
(17.1918 -0.000263405 0)
(17.1965 -0.000278428 0)
(17.2015 -0.000292056 0)
(17.2068 -0.000304291 0)
(17.2125 -0.000315137 0)
(17.2183 -0.000324573 0)
(17.2245 -0.000332542 0)
(17.2308 -0.000339012 0)
(17.2373 -0.000343855 0)
(17.2439 -0.000346903 0)
(17.2507 -0.00034813 0)
(17.2575 -0.000347273 0)
(17.2643 -0.000344405 0)
(17.2712 -0.000339294 0)
(17.278 -0.000332155 0)
(17.2848 -0.000323105 0)
(17.2914 -0.00031269 0)
(17.298 -0.000301394 0)
(17.3045 -0.000290125 0)
(17.3108 -0.000279656 0)
(17.3169 -0.000271288 0)
(17.3229 -0.00026593 0)
(17.3288 -0.000264768 0)
(17.3346 -0.0002672 0)
(17.3402 -0.00027322 0)
(17.3457 -0.000139589 0)
(20.0306 0.0523702 0)
(20.0698 0.03007 0)
(20.0406 0.0268629 0)
(19.9512 0.0235191 0)
(19.7855 0.0201272 0)
(19.5621 0.0168135 0)
(19.3211 0.0138542 0)
(19.0917 0.0114083 0)
(18.8862 0.0094621 0)
(18.7068 0.00792766 0)
(18.5516 0.00671164 0)
(18.4174 0.00573709 0)
(18.3011 0.00494558 0)
(18.1999 0.00429407 0)
(18.1114 0.00375094 0)
(18.0336 0.00329287 0)
(17.9651 0.00290244 0)
(17.9044 0.00256648 0)
(17.8506 0.00227493 0)
(17.8027 0.00201996 0)
(17.76 0.00179544 0)
(17.7219 0.00159649 0)
(17.6879 0.00141922 0)
(17.6574 0.00126045 0)
(17.6302 0.00111758 0)
(17.6059 0.000988481 0)
(17.5843 0.000871372 0)
(17.565 0.000764765 0)
(17.5479 0.000667401 0)
(17.5327 0.000578221 0)
(17.5194 0.000496313 0)
(17.5077 0.000420899 0)
(17.4975 0.000351307 0)
(17.4887 0.000286959 0)
(17.4813 0.000227349 0)
(17.475 0.000172034 0)
(17.4698 0.00012062 0)
(17.4657 7.27722e-05 0)
(17.4625 2.81596e-05 0)
(17.4603 -1.35033e-05 0)
(17.4588 -5.2392e-05 0)
(17.4581 -8.86408e-05 0)
(17.4582 -0.000122437 0)
(17.459 -0.000153943 0)
(17.4603 -0.000183302 0)
(17.4623 -0.000210638 0)
(17.4648 -0.000236039 0)
(17.4679 -0.000259591 0)
(17.4714 -0.000281364 0)
(17.4753 -0.000301403 0)
(17.4797 -0.000319774 0)
(17.4844 -0.000336473 0)
(17.4895 -0.000351506 0)
(17.4949 -0.00036488 0)
(17.5006 -0.000376574 0)
(17.5065 -0.000386526 0)
(17.5127 -0.000394706 0)
(17.519 -0.000400978 0)
(17.5255 -0.000405166 0)
(17.5321 -0.000407248 0)
(17.5388 -0.000406949 0)
(17.5456 -0.000404356 0)
(17.5524 -0.000399229 0)
(17.5592 -0.000391805 0)
(17.5659 -0.000382213 0)
(17.5726 -0.000371034 0)
(17.5792 -0.000358778 0)
(17.5857 -0.000346403 0)
(17.592 -0.000334717 0)
(17.5983 -0.000325081 0)
(17.6043 -0.000318445 0)
(17.6102 -0.000316034 0)
(17.616 -0.000317109 0)
(17.6216 -0.000321682 0)
(17.6269 -0.000163621 0)
(20.039 0.0517789 0)
(20.0926 0.0299213 0)
(20.092 0.027188 0)
(20.0552 0.0243789 0)
(19.9649 0.0216134 0)
(19.8158 0.0187666 0)
(19.6268 0.0159671 0)
(19.4257 0.0134437 0)
(19.2323 0.0113079 0)
(19.0559 0.00955549 0)
(18.899 0.0081319 0)
(18.761 0.00697327 0)
(18.6398 0.00602317 0)
(18.5336 0.00523641 0)
(18.4401 0.0045781 0)
(18.3576 0.00402166 0)
(18.2847 0.0035468 0)
(18.22 0.00313796 0)
(18.1624 0.00278311 0)
(18.1111 0.00247283 0)
(18.0653 0.00219969 0)
(18.0243 0.00195779 0)
(17.9877 0.00174234 0)
(17.9548 0.00154949 0)
(17.9254 0.00137606 0)
(17.8991 0.00121944 0)
(17.8755 0.00107746 0)
(17.8545 0.000948275 0)
(17.8358 0.000830362 0)
(17.8192 0.000722417 0)
(17.8044 0.000623326 0)
(17.7915 0.000532136 0)
(17.7801 0.000448023 0)
(17.7702 0.000370282 0)
(17.7617 0.000298292 0)
(17.7545 0.000231513 0)
(17.7484 0.000169464 0)
(17.7435 0.00011174 0)
(17.7395 5.79566e-05 0)
(17.7365 7.74669e-06 0)
(17.7344 -3.91551e-05 0)
(17.733 -8.28989e-05 0)
(17.7325 -0.000123683 0)
(17.7327 -0.000161708 0)
(17.7335 -0.000197148 0)
(17.735 -0.000230155 0)
(17.7371 -0.000260841 0)
(17.7397 -0.000289312 0)
(17.7428 -0.000315653 0)
(17.7464 -0.000339926 0)
(17.7504 -0.000362208 0)
(17.7548 -0.000382501 0)
(17.7596 -0.000400817 0)
(17.7647 -0.000417167 0)
(17.7701 -0.000431532 0)
(17.7758 -0.000443849 0)
(17.7818 -0.000454087 0)
(17.7879 -0.000462108 0)
(17.7942 -0.000467731 0)
(17.8007 -0.000470939 0)
(17.8072 -0.00047145 0)
(17.8139 -0.000469362 0)
(17.8206 -0.000464432 0)
(17.8273 -0.000456914 0)
(17.834 -0.000446942 0)
(17.8406 -0.000435123 0)
(17.8472 -0.000421985 0)
(17.8537 -0.000408522 0)
(17.8601 -0.000395562 0)
(17.8663 -0.00038451 0)
(17.8724 -0.000376348 0)
(17.8783 -0.000372333 0)
(17.884 -0.000371579 0)
(17.8895 -0.000374117 0)
(17.8948 -0.000189509 0)
(20.0449 0.0509937 0)
(20.1082 0.029581 0)
(20.1254 0.0272183 0)
(20.1206 0.0247808 0)
(20.0821 0.0225188 0)
(19.9986 0.0202042 0)
(19.8707 0.0177773 0)
(19.7131 0.0153876 0)
(19.5451 0.0132012 0)
(19.3812 0.0113027 0)
(19.2289 0.00970101 0)
(19.0909 0.00836499 0)
(18.9675 0.00725183 0)
(18.8578 0.00632036 0)
(18.7603 0.00553561 0)
(18.6738 0.00486927 0)
(18.5968 0.00429896 0)
(18.5283 0.00380701 0)
(18.4671 0.00337952 0)
(18.4124 0.00300549 0)
(18.3634 0.00267615 0)
(18.3195 0.00238445 0)
(18.2801 0.0021247 0)
(18.2448 0.00189225 0)
(18.2131 0.00168328 0)
(18.1846 0.00149464 0)
(18.1591 0.0013237 0)
(18.1362 0.00116824 0)
(18.1158 0.00102641 0)
(18.0975 0.000896623 0)
(18.0813 0.000777535 0)
(18.067 0.000667989 0)
(18.0543 0.000566985 0)
(18.0433 0.000473666 0)
(18.0336 0.000387281 0)
(18.0254 0.000307175 0)
(18.0183 0.000232768 0)
(18.0124 0.000163566 0)
(18.0076 9.91185e-05 0)
(18.0038 3.89968e-05 0)
(18.0009 -1.7182e-05 0)
(17.9989 -6.96283e-05 0)
(17.9977 -0.000118534 0)
(17.9972 -0.000164135 0)
(17.9975 -0.000206645 0)
(17.9984 -0.000246249 0)
(18 -0.000283083 0)
(18.0021 -0.00031728 0)
(18.0047 -0.000348944 0)
(18.0079 -0.000378154 0)
(18.0115 -0.000405001 0)
(18.0155 -0.000429497 0)
(18.02 -0.000451661 0)
(18.0248 -0.00047151 0)
(18.0299 -0.000489028 0)
(18.0353 -0.000504155 0)
(18.0409 -0.00051686 0)
(18.0468 -0.000527008 0)
(18.0529 -0.000534413 0)
(18.0592 -0.000539068 0)
(18.0655 -0.000540686 0)
(18.072 -0.000539379 0)
(18.0786 -0.000534899 0)
(18.0851 -0.000527516 0)
(18.0917 -0.000517364 0)
(18.0983 -0.000505066 0)
(18.1048 -0.000491156 0)
(18.1113 -0.000476648 0)
(18.1176 -0.000462376 0)
(18.1238 -0.000449776 0)
(18.1299 -0.000439847 0)
(18.1358 -0.00043387 0)
(18.1414 -0.000430803 0)
(18.1468 -0.00043069 0)
(18.152 -0.00021733 0)
(20.0492 0.0500256 0)
(20.1193 0.0290806 0)
(20.1481 0.0270286 0)
(20.1628 0.0248477 0)
(20.1569 0.0229464 0)
(20.1211 0.0210868 0)
(20.0495 0.0191112 0)
(19.9437 0.0170398 0)
(19.8141 0.0149855 0)
(19.6744 0.0130688 0)
(19.5354 0.0113618 0)
(19.4037 0.00988347 0)
(19.2821 0.00862018 0)
(19.1717 0.0075449 0)
(19.0721 0.00662841 0)
(18.9827 0.00584401 0)
(18.9025 0.00516892 0)
(18.8306 0.00458437 0)
(18.7661 0.00407509 0)
(18.7082 0.00362869 0)
(18.6562 0.00323516 0)
(18.6094 0.00288635 0)
(18.5673 0.0025756 0)
(18.5295 0.00229746 0)
(18.4954 0.00204741 0)
(18.4647 0.0018217 0)
(18.4371 0.00161719 0)
(18.4123 0.00143126 0)
(18.39 0.00126167 0)
(18.3701 0.00110653 0)
(18.3524 0.00096422 0)
(18.3365 0.000833353 0)
(18.3225 0.00071273 0)
(18.3102 0.000601317 0)
(18.2993 0.000498213 0)
(18.2899 0.000402629 0)
(18.2818 0.000313867 0)
(18.2749 0.000231336 0)
(18.2692 0.000154498 0)
(18.2645 8.28624e-05 0)
(18.2608 1.59452e-05 0)
(18.2579 -4.65784e-05 0)
(18.256 -0.000104922 0)
(18.2549 -0.00015933 0)
(18.2545 -0.000210058 0)
(18.2548 -0.000257332 0)
(18.2557 -0.000301319 0)
(18.2573 -0.000342179 0)
(18.2595 -0.000380042 0)
(18.2621 -0.000415006 0)
(18.2653 -0.00044718 0)
(18.2689 -0.000476588 0)
(18.2729 -0.000503259 0)
(18.2773 -0.000527216 0)
(18.2821 -0.00054845 0)
(18.2871 -0.000566905 0)
(18.2925 -0.000582556 0)
(18.2981 -0.00059527 0)
(18.3039 -0.000604864 0)
(18.3099 -0.000611342 0)
(18.316 -0.000614417 0)
(18.3223 -0.000614217 0)
(18.3286 -0.00061049 0)
(18.335 -0.000603517 0)
(18.3415 -0.000593428 0)
(18.3479 -0.000580854 0)
(18.3543 -0.00056632 0)
(18.3607 -0.000550847 0)
(18.367 -0.000535258 0)
(18.3731 -0.000521002 0)
(18.3791 -0.000509081 0)
(18.3849 -0.000500792 0)
(18.3905 -0.000494929 0)
(18.3958 -0.000491527 0)
(18.4008 -0.00024715 0)
(20.0522 0.0488783 0)
(20.1272 0.0284366 0)
(20.164 0.0266625 0)
(20.1912 0.0246654 0)
(20.2052 0.0230151 0)
(20.2004 0.0214911 0)
(20.1713 0.0199148 0)
(20.1139 0.0182338 0)
(20.0293 0.0164681 0)
(19.9247 0.0146947 0)
(19.8096 0.0130044 0)
(19.6925 0.0114605 0)
(19.579 0.0100893 0)
(19.4722 0.00889024 0)
(19.3736 0.00784889 0)
(19.2834 0.00694579 0)
(19.2015 0.00616125 0)
(19.1273 0.00547736 0)
(19.0602 0.00487863 0)
(18.9996 0.004352 0)
(18.9448 0.00388657 0)
(18.8953 0.00347327 0)
(18.8507 0.0031046 0)
(18.8103 0.00277431 0)
(18.7739 0.0024772 0)
(18.7409 0.00220891 0)
(18.7112 0.00196577 0)
(18.6845 0.00174469 0)
(18.6604 0.00154304 0)
(18.6387 0.00135859 0)
(18.6193 0.00118941 0)
(18.6019 0.00103386 0)
(18.5865 0.000890511 0)
(18.5727 0.00075813 0)
(18.5606 0.000635644 0)
(18.55 0.000522112 0)
(18.5407 0.000416705 0)
(18.5328 0.000318712 0)
(18.526 0.000227497 0)
(18.5204 0.000142487 0)
(18.5157 6.31312e-05 0)
(18.5121 -1.10383e-05 0)
(18.5093 -8.03274e-05 0)
(18.5074 -0.000144966 0)
(18.5063 -0.000205243 0)
(18.5059 -0.000261431 0)
(18.5062 -0.000313734 0)
(18.5072 -0.000362346 0)
(18.5088 -0.000407426 0)
(18.5109 -0.000449093 0)
(18.5135 -0.000487478 0)
(18.5166 -0.00052262 0)
(18.5202 -0.000554561 0)
(18.5242 -0.000583335 0)
(18.5285 -0.00060894 0)
(18.5332 -0.000631326 0)
(18.5382 -0.000650478 0)
(18.5434 -0.000666271 0)
(18.5489 -0.000678527 0)
(18.5546 -0.000687268 0)
(18.5604 -0.000692207 0)
(18.5664 -0.000693495 0)
(18.5725 -0.000690874 0)
(18.5787 -0.000684638 0)
(18.5849 -0.000674907 0)
(18.5912 -0.000662309 0)
(18.5974 -0.000647346 0)
(18.6037 -0.000631035 0)
(18.6098 -0.000614166 0)
(18.6158 -0.000598184 0)
(18.6217 -0.000584081 0)
(18.6274 -0.000573154 0)
(18.6329 -0.000564024 0)
(18.6381 -0.000556691 0)
(18.6429 -0.000279003 0)
(20.0542 0.0475508 0)
(20.1328 0.0276568 0)
(20.1754 0.0261432 0)
(20.2109 0.0242867 0)
(20.2375 0.0228152 0)
(20.252 0.0215276 0)
(20.2508 0.02025 0)
(20.2303 0.0189168 0)
(20.1875 0.0174951 0)
(20.1228 0.0159937 0)
(20.0406 0.0144639 0)
(19.9476 0.0129732 0)
(19.8502 0.0115763 0)
(19.7535 0.0103042 0)
(19.6605 0.00916629 0)
(19.573 0.00815829 0)
(19.4918 0.00726913 0)
(19.417 0.00648537 0)
(19.3486 0.00579358 0)
(19.2862 0.00518137 0)
(19.2294 0.00463784 0)
(19.1777 0.00415353 0)
(19.1308 0.00372041 0)
(19.0882 0.00333163 0)
(19.0496 0.0029814 0)
(19.0145 0.0026648 0)
(18.9828 0.00237765 0)
(18.954 0.0021164 0)
(18.928 0.00187802 0)
(18.9046 0.00165991 0)
(18.8835 0.00145982 0)
(18.8645 0.00127583 0)
(18.8476 0.00110627 0)
(18.8324 0.000949681 0)
(18.8189 0.000804802 0)
(18.807 0.000670522 0)
(18.7966 0.00054586 0)
(18.7874 0.000429974 0)
(18.7796 0.000322111 0)
(18.7729 0.000221603 0)
(18.7673 0.000127826 0)
(18.7627 4.02056e-05 0)
(18.7591 -4.17223e-05 0)
(18.7564 -0.000118227 0)
(18.7545 -0.000189589 0)
(18.7533 -0.000256127 0)
(18.753 -0.000318091 0)
(18.7532 -0.000375712 0)
(18.7542 -0.000429182 0)
(18.7557 -0.00047865 0)
(18.7577 -0.000524268 0)
(18.7603 -0.000566098 0)
(18.7634 -0.000604193 0)
(18.7668 -0.000638603 0)
(18.7707 -0.000669335 0)
(18.7749 -0.000696351 0)
(18.7795 -0.000719648 0)
(18.7843 -0.000739113 0)
(18.7894 -0.000754578 0)
(18.7947 -0.000766087 0)
(18.8002 -0.000773363 0)
(18.8059 -0.000776579 0)
(18.8117 -0.000775475 0)
(18.8176 -0.000770358 0)
(18.8235 -0.000761332 0)
(18.8296 -0.000749016 0)
(18.8356 -0.000733877 0)
(18.8416 -0.000716909 0)
(18.8476 -0.000698853 0)
(18.8534 -0.000681131 0)
(18.8592 -0.000664704 0)
(18.8647 -0.000650858 0)
(18.8701 -0.000638028 0)
(18.8751 -0.000626139 0)
(18.8798 -0.000312881 0)
(20.0555 0.046039 0)
(20.1367 0.0267443 0)
(20.1836 0.0254815 0)
(20.2248 0.023741 0)
(20.2598 0.0224039 0)
(20.2863 0.0212858 0)
(20.3028 0.0202192 0)
(20.3068 0.019147 0)
(20.2955 0.0180268 0)
(20.2667 0.0168313 0)
(20.2202 0.0155621 0)
(20.1584 0.0142502 0)
(20.0856 0.0129428 0)
(20.0066 0.0116859 0)
(19.9257 0.0105116 0)
(19.846 0.00943648 0)
(19.7693 0.0084647 0)
(19.697 0.00759249 0)
(19.6294 0.00681222 0)
(19.5668 0.00611472 0)
(19.5091 0.00549069 0)
(19.4562 0.00493141 0)
(19.4076 0.00442896 0)
(19.3633 0.00397637 0)
(19.3228 0.00356754 0)
(19.2858 0.00319718 0)
(19.2522 0.00286071 0)