/*--------------------------------*- C++ -*----------------------------------*\
  =========                 |
  \\      /  F ield         | OpenFOAM: The Open Source CFD Toolbox
   \\    /   O peration     | Website:  https://openfoam.org
    \\  /    A nd           | Version:  7
     \\/     M anipulation  |
\*---------------------------------------------------------------------------*/
FoamFile
{
    version     2.0;
    format      ascii;
    class       volScalarField;
    location    "0.1";
    object      p;
}
// * * * * * * * * * * * * * * * * * * * * * * * * * * * * * * * * * * * * * //

dimensions      [0 2 -2 0 0 0 0];

internalField   nonuniform List<scalar> 
900
(
-1.07723e-08
-0.000156969
6.95653e-05
0.000665847
0.00161032
0.00288717
0.00447809
0.00636141
0.0085123
0.010903
0.0135028
0.0162788
0.0191957
0.0222169
0.0253041
0.0284183
0.0315197
0.0345686
0.0375256
0.040352
0.0430103
0.0454649
0.0476822
0.0496315
0.0512852
0.0526191
0.0536131
0.0542506
0.0545072
0.0543648
0.000134584
-2.59367e-05
0.000217951
0.000822381
0.00176384
0.00303247
0.00461243
0.00648289
0.00861947
0.0109947
0.0135782
0.0163371
0.0192366
0.02224
0.0253092
0.0284055
0.0314892
0.0345208
0.0374611
0.0402714
0.0429144
0.0453547
0.0475589
0.0494963
0.0511398
0.0524656
0.0534559
0.0540992
0.05437
0.0542236
-0.000115986
-0.000297313
-4.97708e-05
0.000563998
0.00151569
0.00279656
0.00439127
0.006279
0.00843531
0.0108325
0.0134401
0.0162249
0.0191517
0.0221836
0.0252823
0.0284086
0.0315226
0.0345845
0.0375544
0.0403936
0.0430642
0.0455302
0.0477579
0.0497163
0.0513777
0.0527183
0.05372
0.054372
0.0546438
0.054473
-0.000737236
-0.000934604
-0.000683551
-5.5025e-05
0.000919188
0.00222987
0.00386132
0.00579223
0.00799762
0.0104492
0.0131158
0.0159635
0.0189566
0.0220573
0.0252266
0.0284245
0.0316105
0.0347438
0.0377838
0.0406909
0.0434262
0.0459529
0.0482361
0.0502439
0.0519476
0.0533226
0.05435
0.055018
0.0552925
0.0551027
-0.00172139
-0.00193082
-0.00167239
-0.00102153
-1.24013e-05
0.00134504
0.00303433
0.00503327
0.00731593
0.00985298
0.0126121
0.0155585
0.0186551
0.0218632
0.0251425
0.028452
0.0317499
0.0349943
0.0381433
0.0411559
0.0439918
0.0466128
0.0489824
0.0510673
0.0528372
0.0542659
0.0553335
0.056027
0.0563099
0.0561068
-0.0030809
-0.00330281
-0.00303306
-0.00235127
-0.00129392
0.000128194
0.00189749
0.0039905
0.00637985
0.00903478
0.0119215
0.0150035
0.0182424
0.0215979
0.0250282
0.0284907
0.0319421
0.0353388
0.0386373
0.0417947
0.0447689
0.0475195
0.0500081
0.0521992
0.0540605
0.0555638
0.0566874
0.0574171
0.0577138
0.0574979
-0.00483408
-0.00507061
-0.00478547
-0.00406338
-0.00294346
-0.00143758
0.000435248
0.0026498
0.00517685
0.00798368
0.0110345
0.014291
0.0177126
0.0212571
0.024881
0.0285398
0.032188
0.0357802
0.0392707
0.0426142
0.0457663
0.0486841
0.0513265
0.0536551
0.055635
0.0572353
0.0584322
0.0592096
0.0595256
0.0592952
-0.00700439
-0.00725834
-0.00695349
-0.00618088
-0.00498284
-0.00337261
-0.00137106
0.000994345
0.00369199
0.00668668
0.00994015
0.0134116
0.0170583
0.0208355
0.0246976
0.0285977
0.0324883
0.0363213
0.0400485
0.043622
0.0469944
0.0501196
0.0529531
0.0554531
0.0575812
0.0593033
0.0605923
0.0614303
0.0617713
0.061524
-0.00962132
-0.00989596
-0.00956671
-0.00873231
-0.00743909
-0.00570204
-0.0035444
-0.00099648
0.00190707
0.00512801
0.00862506
0.0123545
0.0162708
0.0203266
0.0244738
0.0286627
0.0328435
0.0369652
0.0409769
0.0448272
0.0484654
0.0518415
0.054907
0.0576158
0.0599249
0.0617961
0.0631985
0.0641113
0.0644838
0.0642167
-0.0127209
-0.0130199
-0.0126611
-0.0117523
-0.0103448
-0.008456
-0.00611213
-0.0033471
-0.000199314
0.00328924
0.00707366
0.0111068
0.01534
0.0197229
0.0242044
0.0287324
0.0332539
0.0377153
0.0420622
0.0462399
0.0501933
0.053868
0.0572106
0.0601696
0.0626967
0.064748
0.066288
0.067292
0.0677033
0.067413
-0.0163462
-0.016674
-0.0162795
-0.0152819
-0.0137387
-0.01167
-0.00910626
-0.00608583
-0.00265178
0.00114935
0.00526837
0.00965421
0.0142545
0.0190158
0.0238839
0.0288038
0.0337197
0.0385748
0.0433114
0.0478708
0.0521933
0.0562193
0.0598893
0.0631455
0.0659327
0.0681999
0.0699056
0.0710198
0.0714785
0.071161
-0.0205487
-0.0209102
-0.0204731
-0.01937
-0.017666
-0.0153855
-0.0125638
-0.00924505
-0.00547819
-0.00131521
0.00318961
0.00798069
0.0130017
0.0181958
0.0235057
0.0288734
0.0342403
0.0395467
0.0447314
0.0497313
0.054482
0.0589176
0.0629718
0.0665788
0.0696746
0.0721998
0.0741043
0.0753517
0.0758681
0.0755188
-0.0253892
-0.0257904
-0.0253023
-0.0240739
-0.02218
-0.0196503
-0.016527
-0.0128614
-0.0087097
-0.00413051
0.000815921
0.00606889
0.0115678
0.0172523
0.023062
0.0289365
0.0348144
0.0406331
0.0463282
0.0518325
0.0570762
0.0619867
0.0664894
0.0705089
0.0739706
0.0768037
0.0789472
0.0803556
0.0809425
0.0805561
-0.0309403
-0.0313883
-0.0308389
-0.0294613
-0.0273426
-0.0245199
-0.021044
-0.0169759
-0.0123806
-0.00732483
-0.00187575
0.00390021
0.00993791
0.0161736
0.0225442
0.0289871
0.0354388
0.0418344
0.0481066
0.0541844
0.0599924
0.0654508
0.0704755
0.0749796
0.0788752
0.0820767
0.0845087
0.0861128
0.0867865
0.0863564
-0.0372881
-0.0377918
-0.0371684
-0.0356121
-0.0332259
-0.0300573
-0.0261688
-0.0216335
-0.0165277
-0.0109279
-0.00490925
0.00145555
0.00809671
0.0149472
0.0219422
0.0290173
0.0361081
0.0431483
0.0500685
0.0567943
0.0632451
0.0693335
0.0749648
0.0800385
0.0844498
0.0880941
0.0908765
0.0927207
0.0935022
0.0930203
-0.0445364
-0.0451069
-0.0443929
-0.0426202
-0.0399134
-0.0363342
-0.0319609
-0.0268826
-0.0211894
-0.0149698
-0.00830799
-0.00128353
0.00602928
0.0135608
0.021245
0.0290176
0.0368143
0.044569
0.0522114
0.0596651
0.0668449
0.0736558
0.0799915
0.0857354
0.0907622
0.0949424
0.0981544
0.100297
0.101214
0.10067
-0.0528107
-0.0534619
-0.0526352
-0.0505971
-0.0475017
-0.0434311
-0.0384853
-0.0327736
-0.026404
-0.0194789
-0.0120932
-0.00433329
0.00372239
0.0120026
0.0204417
0.0289769
0.0375464
0.0460862
0.0545275
0.0627934
0.070796
0.0784329
0.0855862
0.0921208
0.097886
0.10272
0.106465
0.108983
0.110075
0.109457
-0.0622648
-0.063015
-0.0620445
-0.0596751
-0.0561024
-0.0514378
-0.0458107
-0.0393573
-0.0322074
-0.0244801
-0.0162818
-0.00770602
0.00116591
0.0102627
0.019521
0.0288822
0.0382894
0.0476838
0.0570009
0.0661666
0.0750923
0.0836708
0.0917723
0.0992418
0.105898
0.111539
0.115955
0.118956
0.120276
0.119568
-0.0730916
-0.0739638
-0.0728048
-0.0700129
-0.0658445
-0.0604534
-0.0540092
-0.0466826
-0.0386306
-0.0299916
-0.0208841
-0.0114078
-0.00164545
0.00833404
0.0184725
0.0287185
0.0390236
0.049338
0.0596055
0.0697589
0.0797131
0.0893596
0.0985593
0.107137
0.114876
0.121521
0.126796
0.130431
0.132062
0.131243
-0.0855383
-0.0865624
-0.0851469
-0.081803
-0.0768773
-0.0705856
-0.0631522
-0.0547922
-0.0456951
-0.0360205
-0.025899
-0.0154348
-0.00470928
0.0062146
0.0172875
0.0284692
0.039724
0.0510155
0.0623013
0.0735266
0.0846164
0.0954664
0.105934
0.115825
0.124886
0.132798
0.139193
0.143683
0.145751
0.144797
-0.0999325
-0.101145
-0.0993659
-0.0952797
-0.0893719
-0.0819479
-0.0733054
-0.0637157
-0.0534054
-0.0425564
-0.0313094
-0.0197693
-0.00801179
0.0039103
0.0159614
0.0281173
0.0403601
0.0526725
0.065032
0.0774038
0.089731
0.101924
0.113845
0.125291
0.135974
0.145501
0.153382
0.159059
0.16177
0.160657
-0.116727
-0.118167
-0.115846
-0.11073
-0.103521
-0.0946524
-0.0845191
-0.0734591
-0.06174
-0.0495632
-0.0370744
-0.0243734
-0.0115239
0.00143788
0.0144956
0.0276468
0.0408967
0.0542536
0.0677221
0.0812961
0.0949487
0.108618
0.122189
0.135466
0.148137
0.159737
0.169628
0.177005
0.180706
0.179432
-0.136581
-0.138268
-0.135094
-0.128503
-0.119533
-0.108798
-0.0968123
-0.0839906
-0.0706381
-0.0569686
-0.0431225
-0.0291844
-0.0151969
-0.00117205
0.0128999
0.027044
0.0412949
0.0556922
0.0702754
0.0850773
0.100114
0.115372
0.130781
0.146184
0.161279
0.175551
0.188199
0.198081
0.203393
0.202046
-0.160526
-0.162383
-0.157788
-0.149017
-0.137619
-0.124445
-0.110149
-0.0952182
-0.079983
-0.0646513
-0.0493412
-0.0341069
-0.0189576
-0.00387126
0.0111954
0.0263008
0.0415141
0.056912
0.0725755
0.0885862
0.105018
0.121927
0.139324
0.157139
0.175142
0.192837
0.209299
0.22297
0.231042
0.230031
-0.190315
-0.191926
-0.184826
-0.172747
-0.157958
-0.141577
-0.124398
-0.106959
-0.0895779
-0.072425
-0.0555675
-0.0390071
-0.0227037
-0.00659026
0.00941787
0.0254179
0.0415168
0.057832
0.0744908
0.0916303
0.109396
0.127935
0.147381
0.167817
0.189195
0.211185
0.232911
0.252431
0.265494
0.266239
-0.229266
-0.229122
-0.217372
-0.200188
-0.180622
-0.160024
-0.139276
-0.118893
-0.0991175
-0.0800203
-0.0615765
-0.0437061
-0.0263003
-0.00923511
0.00762189
0.0244104
0.0412754
0.0583764
0.075886
0.0939988
0.112937
0.132957
0.15435
0.177427
0.202471
0.229593
0.258403
0.28701
0.309463
0.316135
-0.284227
-0.277583
-0.25697
-0.231812
-0.205473
-0.179343
-0.154239
-0.130494
-0.108138
-0.0870542
-0.067063
-0.0479669
-0.0295685
-0.0116766
0.00589328
0.0233227
0.040794
0.0585016
0.0766591
0.0955107
0.115349
0.136536
0.159533
0.184932
0.213481
0.246095
0.283687
0.325613
0.364987
0.388754
-0.370422
-0.341701
-0.304699
-0.267223
-0.231316
-0.19814
-0.168012
-0.140708
-0.115813
-0.0928922
-0.0715443
-0.0514226
-0.0322279
-0.0136992
0.0043977
0.0222813
0.0401658
0.0582684
0.0768319
0.0961349
0.116519
0.138426
0.162461
0.189483
0.22076
0.258303
0.305379
0.364771
0.430693
0.505278
-0.52933
-0.418158
-0.351332
-0.297918
-0.251228
-0.211199
-0.176878
-0.146938
-0.120322
-0.0962384
-0.0740797
-0.0533744
-0.0337469
-0.0148881
0.00346761
0.0215606
0.039622
0.0578813
0.0765895
0.0960392
0.116593
0.138733
0.163156
0.19094
0.223909
0.265504
0.322966
0.408513
0.51635
0.75091
-0.884278
-0.488431
-0.357691
-0.297671
-0.249646
-0.209071
-0.175012
-0.145541
-0.119309
-0.0955075
-0.0735618
-0.0530238
-0.0335342
-0.0147957
0.00344865
0.0214315
0.0393741
0.0575015
0.0760564
0.0953189
0.115636
0.137475
0.161528
0.188959
0.222003
0.265593
0.331738
0.448826
0.677685
1.20627
)
;

boundaryField
{
    movingWall
    {
        type            zeroGradient;
    }
    fixedWalls
    {
        type            zeroGradient;
    }
    frontAndBack
    {
        type            empty;
    }
}


// ************************************************************************* //
