/*--------------------------------*- C++ -*----------------------------------*\
  =========                 |
  \\      /  F ield         | OpenFOAM: The Open Source CFD Toolbox
   \\    /   O peration     | Website:  https://openfoam.org
    \\  /    A nd           | Version:  7
     \\/     M anipulation  |
\*---------------------------------------------------------------------------*/
FoamFile
{
    version     2.0;
    format      ascii;
    class       volVectorField;
    location    "0.1";
    object      U;
}
// * * * * * * * * * * * * * * * * * * * * * * * * * * * * * * * * * * * * * //

dimensions      [0 1 -1 0 0 0 0];

internalField   nonuniform List<vector> 
900
(
(-0.000138731 0.000133652 0)
(-0.000619807 0.000283404 0)
(-0.00134384 0.000321535 0)
(-0.00208612 0.000319213 0)
(-0.00280339 0.000306337 0)
(-0.00348504 0.000289125 0)
(-0.00412321 0.000268553 0)
(-0.00471057 0.000244936 0)
(-0.00524049 0.00021856 0)
(-0.00570704 0.000189738 0)
(-0.00610506 0.00015881 0)
(-0.00643018 0.000126128 0)
(-0.00667884 9.20481e-05 0)
(-0.0068483 5.69261e-05 0)
(-0.00693665 2.11223e-05 0)
(-0.00694277 -1.49986e-05 0)
(-0.00686639 -5.1071e-05 0)
(-0.00670807 -8.67217e-05 0)
(-0.00646923 -0.000121567 0)
(-0.00615214 -0.000155217 0)
(-0.00576 -0.000187273 0)
(-0.00529689 -0.000217333 0)
(-0.00476784 -0.000244991 0)
(-0.00417872 -0.000269874 0)
(-0.00353629 -0.000291664 0)
(-0.00284813 -0.000310041 0)
(-0.0021222 -0.000324076 0)
(-0.00136799 -0.000327869 0)
(-0.000632174 -0.000292207 0)
(-0.000139574 -0.000138972 0)
(-0.000294578 0.000621877 0)
(-0.00117538 0.00115759 0)
(-0.00239685 0.00128647 0)
(-0.00364391 0.00127714 0)
(-0.00484966 0.00122701 0)
(-0.00599727 0.00115834 0)
(-0.00707211 0.00107565 0)
(-0.00806109 0.000980567 0)
(-0.0089528 0.000874397 0)
(-0.00973725 0.00075848 0)
(-0.0104058 0.000634215 0)
(-0.0109512 0.000503028 0)
(-0.0113677 0.000366354 0)
(-0.0116506 0.000225624 0)
(-0.011797 8.22752e-05 0)
(-0.0118051 -6.22499e-05 0)
(-0.0116744 -0.0002065 0)
(-0.0114061 -0.000348998 0)
(-0.0110026 -0.000488236 0)
(-0.0104676 -0.00062267 0)
(-0.00980668 -0.000750728 0)
(-0.00902656 -0.000870806 0)
(-0.00813566 -0.000981304 0)
(-0.00714388 -0.00108068 0)
(-0.00606269 -0.00116747 0)
(-0.00490543 -0.00123992 0)
(-0.00368702 -0.00129336 0)
(-0.00242437 -0.00130543 0)
(-0.00118711 -0.00117831 0)
(-0.000294966 -0.00063167 0)
(-0.000337838 0.00136271 0)
(-0.00134234 0.00239594 0)
(-0.00272166 0.00263484 0)
(-0.00412259 0.00261526 0)
(-0.00547436 0.00251399 0)
(-0.0067604 0.00237359 0)
(-0.0079645 0.00220383 0)
(-0.00907196 0.00200843 0)
(-0.0100701 0.00179026 0)
(-0.0109477 0.0015522 0)
(-0.0116953 0.00129716 0)
(-0.0123049 0.0010281 0)
(-0.0127701 0.000747956 0)
(-0.0130859 0.000459669 0)
(-0.0132491 0.000166155 0)
(-0.0132577 -0.000129662 0)
(-0.0131114 -0.000424843 0)
(-0.0128111 -0.0007164 0)
(-0.0123597 -0.00100128 0)
(-0.0117613 -0.00127635 0)
(-0.0110218 -0.00153842 0)
(-0.0101487 -0.00178423 0)
(-0.00915142 -0.00201049 0)
(-0.00804087 -0.00221397 0)
(-0.00682987 -0.00239147 0)
(-0.00553342 -0.00253894 0)
(-0.00416821 -0.00264614 0)
(-0.00275173 -0.00266954 0)
(-0.0013576 -0.00242966 0)
(-0.000341141 -0.00138079 0)
(-0.000352467 0.00215659 0)
(-0.00140799 0.00371863 0)
(-0.00285917 0.0040702 0)
(-0.0043303 0.0040364 0)
(-0.00574768 0.00387924 0)
(-0.00709505 0.00366188 0)
(-0.00835576 0.00339918 0)
(-0.00951459 0.00309695 0)
(-0.0105584 0.00275972 0)
(-0.0114757 0.00239201 0)
(-0.0122568 0.00199835 0)
(-0.0128934 0.00158331 0)
(-0.0133792 0.00115143 0)
(-0.0137092 0.000707196 0)
(-0.0138798 0.000255046 0)
(-0.0138893 -0.000200579 0)
(-0.0137372 -0.000655219 0)
(-0.0134245 -0.00110434 0)
(-0.0129539 -0.0015433 0)
(-0.0123296 -0.00196732 0)
(-0.0115576 -0.00237149 0)
(-0.0106454 -0.0027508 0)
(-0.00960256 -0.00310016 0)
(-0.00844041 -0.00341452 0)
(-0.00717219 -0.00368878 0)
(-0.00581347 -0.00391653 0)
(-0.00438148 -0.0040821 0)
(-0.0028936 -0.00412073 0)
(-0.0014261 -0.00376633 0)
(-0.000357175 -0.0021832 0)
(-0.000366252 0.00297512 0)
(-0.00146768 0.00508939 0)
(-0.00298411 0.00555765 0)
(-0.00452059 0.00550751 0)
(-0.00599959 0.00529121 0)
(-0.0074043 0.00499325 0)
(-0.00871756 0.00463362 0)
(-0.00992368 0.00422028 0)
(-0.0110092 0.00375955 0)
(-0.0119625 0.00325764 0)
(-0.0127737 0.0027208 0)
(-0.0134347 0.00215526 0)
(-0.013939 0.00156715 0)
(-0.0142818 0.000962513 0)
(-0.0144596 0.000347288 0)
(-0.0144705 -0.000272607 0)
(-0.014314 -0.000891233 0)
(-0.0139911 -0.00150254 0)
(-0.0135042 -0.00210033 0)
(-0.0128576 -0.00267817 0)
(-0.0120568 -0.00322942 0)
(-0.0111096 -0.00374723 0)
(-0.0100253 -0.00422462 0)
(-0.00881554 -0.00465461 0)
(-0.00749381 -0.00503009 0)
(-0.00607619 -0.00534219 0)
(-0.00458052 -0.00556976 0)
(-0.00302481 -0.00562616 0)
(-0.0014891 -0.00515413 0)
(-0.000372 -0.00301331 0)
(-0.000384523 0.00383008 0)
(-0.00154291 0.00652445 0)
(-0.00313862 0.00711515 0)
(-0.00475492 0.00704694 0)
(-0.00630947 0.00676756 0)
(-0.00778449 0.00638407 0)
(-0.00916198 0.00592195 0)
(-0.0104257 0.00539156 0)
(-0.0115618 0.00480111 0)
(-0.0125585 0.00415871 0)
(-0.0134059 0.00347239 0)
(-0.0140961 0.00275012 0)
(-0.0146227 0.00199965 0)
(-0.0149808 0.00122854 0)
(-0.0151673 0.000444211 0)
(-0.0151801 -0.000346019 0)
(-0.0150187 -0.00113479 0)
(-0.014684 -0.00191462 0)
(-0.0141781 -0.00267775 0)
(-0.013505 -0.00341613 0)
(-0.01267 -0.00412135 0)
(-0.0116806 -0.00478465 0)
(-0.0105462 -0.00539704 0)
(-0.00927844 -0.0059494 0)
(-0.00789111 -0.00643241 0)
(-0.00640096 -0.00683452 0)
(-0.00482672 -0.00712866 0)
(-0.00318756 -0.00720501 0)
(-0.0015685 -0.00660969 0)
(-0.000391406 -0.00388195 0)
(-0.000408104 0.00473332 0)
(-0.00163824 0.00804159 0)
(-0.00333281 0.00876148 0)
(-0.00504834 0.00867308 0)
(-0.00669676 0.00832556 0)
(-0.00825891 0.00785013 0)
(-0.00971574 0.00727829 0)
(-0.0110503 0.00662309 0)
(-0.0122483 0.00589495 0)
(-0.0132979 0.005104 0)
(-0.0141894 0.00426024 0)
(-0.0149149 0.00337343 0)
(-0.0154683 0.00245296 0)
(-0.0158451 0.0015079 0)
(-0.0160421 0.000547039 0)
(-0.0160574 -0.000420978 0)
(-0.0158904 -0.00138749 0)
(-0.0155416 -0.00234364 0)
(-0.0150131 -0.00328024 0)
(-0.0143082 -0.00418762 0)
(-0.0134319 -0.00505557 0)
(-0.0123913 -0.00587333 0)
(-0.0111956 -0.0066297 0)
(-0.00985643 -0.00731324 0)
(-0.00838798 -0.00791208 0)
(-0.00680772 -0.00841158 0)
(-0.0051356 -0.00877819 0)
(-0.00339234 -0.00887715 0)
(-0.00166919 -0.00815167 0)
(-0.000416373 -0.00480141 0)
(-0.000437364 0.0056969 0)
(-0.00175577 0.00966019 0)
(-0.00357131 0.0105171 0)
(-0.00540788 0.0104057 0)
(-0.0071704 0.00998351 0)
(-0.00883806 0.00940794 0)
(-0.0103905 0.00871719 0)
(-0.0118099 0.00792744 0)
(-0.0130817 0.00705162 0)
(-0.0141941 0.00610219 0)
(-0.0151375 0.00509129 0)
(-0.0159044 0.00403052 0)
(-0.0164893 0.00293097 0)
(-0.0168878 0.0018031 0)
(-0.0170972 0.000657001 0)
(-0.0171157 -0.000497533 0)
(-0.0169425 -0.00165069 0)
(-0.0165778 -0.00279241 0)
(-0.0160231 -0.00391217 0)
(-0.0152812 -0.00499875 0)
(-0.0143566 -0.00604013 0)
(-0.0132556 -0.00702344 0)
(-0.011987 -0.00793509 0)
(-0.0105623 -0.00876093 0)
(-0.00899599 -0.00948618 0)
(-0.00730645 -0.0100926 0)
(-0.00551503 -0.0105393 0)
(-0.00364444 -0.0106644 0)
(-0.00179359 -0.00980073 0)
(-0.000447403 -0.00578461 0)
(-0.000472813 0.00673408 0)
(-0.00189774 0.011402 0)
(-0.00385885 0.0124051 0)
(-0.00584052 0.0122667 0)
(-0.00773921 0.0117615 0)
(-0.00953209 0.0110754 0)
(-0.0111973 0.0102542 0)
(-0.0127161 0.00931773 0)
(-0.0140737 0.00828198 0)
(-0.0152584 0.00716204 0)
(-0.0162612 0.00597238 0)
(-0.0170754 0.00472661 0)
(-0.0176959 0.00343741 0)
(-0.0181192 0.00211662 0)
(-0.0183429 0.000775374 0)
(-0.0183652 -0.000575568 0)
(-0.0181854 -0.0019255 0)
(-0.0178033 -0.00326339 0)
(-0.0172196 -0.00457757 0)
(-0.0164362 -0.00585537 0)
(-0.0154567 -0.00708299 0)
(-0.0142864 -0.00824533 0)
(-0.0129333 -0.00932615 0)
(-0.0114086 -0.0103082 0)
(-0.00972685 -0.0111733 0)
(-0.00790735 -0.0118987 0)
(-0.00597318 -0.0124353 0)
(-0.00394945 -0.0125914 0)
(-0.00194445 -0.0115802 0)
(-0.00048515 -0.00684584 0)
(-0.000515188 0.0078596 0)
(-0.00206715 0.0132913 0)
(-0.00420142 0.014451 0)
(-0.00635497 0.0142802 0)
(-0.00841403 0.0136813 0)
(-0.0103533 0.0128715 0)
(-0.0121493 0.0119054 0)
(-0.0137823 0.0108073 0)
(-0.0152375 0.00959674 0)
(-0.0165038 0.00829193 0)
(-0.017573 0.00690994 0)
(-0.0184394 0.00546645 0)
(-0.0190993 0.00397572 0)
(-0.0195499 0.00245074 0)
(-0.0197895 0.00090347 0)
(-0.0198166 -0.000654719 0)
(-0.0196303 -0.00221257 0)
(-0.0192298 -0.00375843 0)
(-0.0186151 -0.00527974 0)
(-0.0177867 -0.00676263 0)
(-0.0167465 -0.00819152 0)
(-0.0154988 -0.00954903 0)
(-0.01405 -0.0108159 0)
(-0.0124105 -0.0119715 0)
(-0.0105949 -0.0129931 0)
(-0.00862313 -0.013853 0)
(-0.0065203 -0.0144921 0)
(-0.00431446 -0.0146858 0)
(-0.00212534 -0.0135164 0)
(-0.000530512 -0.00800118 0)
(-0.000565488 0.00909017 0)
(-0.00226795 0.0153557 0)
(-0.00460678 0.0166836 0)
(-0.00696237 0.0164731 0)
(-0.00920858 0.0157668 0)
(-0.0113172 0.0148166 0)
(-0.0132628 0.0136875 0)
(-0.0150249 0.0124094 0)
(-0.0165891 0.0110062 0)
(-0.0179453 0.00949954 0)
(-0.0190868 0.00790955 0)
(-0.0200096 0.00625403 0)
(-0.0207116 0.0045487 0)
(-0.0211915 0.00280741 0)
(-0.0214483 0.00104257 0)
(-0.0214813 -0.00073431 0)
(-0.0212891 -0.00251192 0)
(-0.0208704 -0.00427846 0)
(-0.0202238 -0.00602093 0)
(-0.019348 -0.00772452 0)
(-0.0182431 -0.00937209 0)
(-0.0169108 -0.0109439 0)
(-0.0153559 -0.0124173 0)
(-0.013587 -0.0137675 0)
(-0.0116182 -0.0149667 0)
(-0.00946996 -0.0159807 0)
(-0.00716959 -0.0167387 0)
(-0.00474871 -0.0169789 0)
(-0.00234097 -0.0156394 0)
(-0.00058468 -0.00926901 0)
(-0.00062504 0.010445 0)
(-0.00250532 0.0176267 0)
(-0.00508503 0.0191356 0)
(-0.00767706 0.0188756 0)
(-0.0101403 0.0180439 0)
(-0.0124431 0.0169322 0)
(-0.0145579 0.0156177 0)
(-0.0164639 0.0141371 0)
(-0.0181475 0.0125196 0)
(-0.0196004 0.0107913 0)
(-0.0208185 0.0089755 0)
(-0.0218003 0.00709214 0)
(-0.0225459 0.0051582 0)
(-0.0230561 0.00318801 0)
(-0.0233312 0.00119383 0)
(-0.0233711 -0.00081331 0)
(-0.0231745 -0.00282274 0)
(-0.0227389 -0.00482318 0)
(-0.0220611 -0.00680181 0)
(-0.0211378 -0.00874336 0)
(-0.0199659 -0.0106294 0)
(-0.018544 -0.0124378 0)
(-0.0168738 -0.0141424 0)
(-0.0149615 -0.0157133 0)
(-0.0128194 -0.0171167 0)
(-0.0104685 -0.0183099 0)
(-0.00793816 -0.0192081 0)
(-0.00526425 -0.019507 0)
(-0.00259754 -0.0179844 0)
(-0.000649236 -0.0106708 0)
(-0.000695611 0.0119469 0)
(-0.00278612 0.0201415 0)
(-0.00564942 0.0218452 0)
(-0.00851771 0.0215217 0)
(-0.0112317 0.0205414 0)
(-0.0137555 0.0192411 0)
(-0.0160596 0.0177129 0)
(-0.0181233 0.0160022 0)
(-0.019935 0.0141448 0)
(-0.0214894 0.0121718 0)
(-0.022786 0.0101101 0)
(-0.023827 0.0079818 0)
(-0.0246158 0.00580472 0)
(-0.0251559 0.00359305 0)
(-0.0254497 0.00135818 0)
(-0.0254979 -0.000890232 0)
(-0.025299 -0.00314309 0)
(-0.0248495 -0.00539056 0)
(-0.0241439 -0.00762085 0)
(-0.0231756 -0.00981898 0)
(-0.0219375 -0.0119657 0)
(-0.0204238 -0.0140367 0)
(-0.0186316 -0.016002 0)
(-0.0165631 -0.0178258 0)
(-0.0142277 -0.0194666 0)
(-0.0116457 -0.0208713 0)
(-0.00884844 -0.0219377 0)
(-0.00587711 -0.0223124 0)
(-0.00290333 -0.0205927 0)
(-0.000726306 -0.0122321 0)
(-0.000779581 0.0136229 0)
(-0.00311952 0.0229442 0)
(-0.00631757 0.0248569 0)
(-0.00950877 0.0244509 0)
(-0.0125116 0.0232913 0)
(-0.0152854 0.0217674 0)
(-0.0177988 0.0199899 0)
(-0.0200324 0.0180151 0)
(-0.021978 0.015887 0)
(-0.0236351 0.0136427 0)
(-0.0250086 0.0113129 0)
(-0.0261058 0.00892154 0)
(-0.0269347 0.00648682 0)
(-0.0275026 0.0040219 0)
(-0.0278145 0.00153625 0)
(-0.0278724 -0.000963016 0)
(-0.0276748 -0.00346956 0)
(-0.0272166 -0.00597627 0)
(-0.0264896 -0.00847355 0)
(-0.0254827 -0.0109478 0)
(-0.0241836 -0.0133797 0)
(-0.0225803 -0.0157433 0)
(-0.0206632 -0.0180044 0)
(-0.0184281 -0.0201208 0)
(-0.0158798 -0.0220412 0)
(-0.0130362 -0.0236994 0)
(-0.00993013 -0.0249713 0)
(-0.00660872 -0.0254455 0)
(-0.00326954 -0.0235147 0)
(-0.000818785 -0.0139838 0)
(-0.000880215 0.0155065 0)
(-0.00351799 0.0260886 0)
(-0.00711318 0.0282242 0)
(-0.0106828 0.0277085 0)
(-0.0140179 0.0263287 0)
(-0.0170724 0.0245359 0)
(-0.0198141 0.0224639 0)
(-0.0222266 0.0201831 0)
(-0.0243075 0.0177477 0)
(-0.0260636 0.0152015 0)
(-0.0275072 0.0125793 0)
(-0.0286531 0.00990644 0)
(-0.0295155 0.00720046 0)
(-0.0301065 0.00447232 0)
(-0.0304346 0.00172818 0)
(-0.0305037 -0.00102888 0)
(-0.0303123 -0.00379686 0)
(-0.0298535 -0.00657295 0)
(-0.0291155 -0.00935137 0)
(-0.0280818 -0.0121213 0)
(-0.026733 -0.0148649 0)
(-0.0250486 -0.0175551 0)
(-0.0230095 -0.020154 0)
(-0.0206021 -0.0226118 0)
(-0.0178233 -0.0248656 0)
(-0.014686 -0.0268324 0)
(-0.0112231 -0.0283599 0)
(-0.00748836 -0.0289674 0)
(-0.0037116 -0.0268122 0)
(-0.000930693 -0.0159646 0)
(-0.00100209 0.0176391 0)
(-0.00399886 0.0296412 0)
(-0.00806878 0.0320119 0)
(-0.0120835 0.031348 0)
(-0.0158004 0.0296928 0)
(-0.0191677 0.0275714 0)
(-0.022154 0.0251472 0)
(-0.024749 0.0225088 0)
(-0.0269597 0.0197224 0)
(-0.0288036 0.0168398 0)
(-0.0303038 0.0138993 0)
(-0.0314847 0.0109269 0)
(-0.0323689 0.00793804 0)
(-0.032975 0.00493988 0)
(-0.0333158 0.00193342 0)
(-0.0333975 -0.00108417 0)
(-0.0332189 -0.00411721 0)
(-0.0327712 -0.00716921 0)
(-0.032038 -0.0102403 0)
(-0.0309963 -0.0133246 0)
(-0.0296174 -0.0164074 0)
(-0.0278694 -0.0194622 0)
(-0.0257202 -0.0224482 0)
(-0.0231424 -0.0253077 0)
(-0.0201198 -0.0279638 0)
(-0.0166563 -0.030312 0)
(-0.0127819 -0.0321639 0)
(-0.00855675 -0.0329535 0)
(-0.00425131 -0.0305633 0)
(-0.00106775 -0.0182233 0)
(-0.00115179 0.0200745 0)
(-0.00458676 0.0336868 0)
(-0.00922978 0.0363002 0)
(-0.0137711 0.0354324 0)
(-0.0179259 0.0334259 0)
(-0.0216376 0.0308969 0)
(-0.0248794 0.0280469 0)
(-0.0276519 0.024987 0)
(-0.0299766 0.0217983 0)
(-0.0318868 0.0185406 0)
(-0.0334203 0.0152552 0)
(-0.0346145 0.0119669 0)
(-0.0355026 0.00868721 0)
(-0.0361112 0.00541717 0)
(-0.0364588 0.00215036 0)
(-0.0365544 -0.0011243 0)
(-0.0363974 -0.00441986 0)
(-0.0359767 -0.00774864 0)
(-0.0352709 -0.0111193 0)
(-0.0342489 -0.0145337 0)
(-0.0328707 -0.017983 0)
(-0.0310894 -0.021444 0)
(-0.0288553 -0.0248746 0)
(-0.0261208 -0.0282096 0)
(-0.0228499 -0.0313564 0)
(-0.0190297 -0.0341832 0)
(-0.0146821 -0.0364546 0)
(-0.00987172 -0.0374978 0)
(-0.00492014 -0.0348687 0)
(-0.00123831 -0.0208238 0)
(-0.00133909 0.0228833 0)
(-0.00531755 0.0383353 0)
(-0.010661 0.0411899 0)
(-0.0158289 0.0400362 0)
(-0.0204843 0.0375734 0)
(-0.024569 0.0345312 0)
(-0.0280671 0.0311605 0)
(-0.0309982 0.0276008 0)
(-0.0334063 0.0239499 0)
(-0.0353469 0.0202753 0)
(-0.0368777 0.016619 0)
(-0.0380528 0.0130022 0)
(-0.0389188 0.00942946 0)
(-0.0395119 0.00589289 0)
(-0.0398573 0.00237581 0)
(-0.0399678 -0.00114387 0)
(-0.0398433 -0.00469072 0)
(-0.0394707 -0.00828881 0)
(-0.0388231 -0.0119586 0)
(-0.03786 -0.0157132 0)
(-0.0365278 -0.0195537 0)
(-0.0347611 -0.0234643 0)
(-0.0324862 -0.027405 0)
(-0.0296278 -0.0313054 0)
(-0.026119 -0.0350561 0)
(-0.021919 -0.0384922 0)
(-0.0170304 -0.0413169 0)
(-0.0115174 -0.0427203 0)
(-0.0057649 -0.0398616 0)
(-0.00145501 -0.0238522 0)
(-0.00157904 0.0261615 0)
(-0.0062451 0.0437328 0)
(-0.0124572 0.0468091 0)
(-0.0183751 0.0452471 0)
(-0.0235987 0.0421803 0)
(-0.0280757 0.0384833 0)
(-0.0318134 0.0344705 0)
(-0.0348631 0.030316 0)
(-0.0373025 0.0261345 0)
(-0.039218 0.0219992 0)
(-0.0406935 0.0179493 0)
(-0.0418041 0.013998 0)
(-0.042612 0.0101387 0)
(-0.043165 0.00635096 0)
(-0.0434956 0.00260455 0)
(-0.043621 -0.0011367 0)
(-0.0435424 -0.00491192 0)
(-0.0432447 -0.00876025 0)
(-0.0426954 -0.0127177 0)
(-0.0418442 -0.0168132 0)
(-0.0406219 -0.0210633 0)
(-0.0389408 -0.0254652 0)
(-0.0366969 -0.0299879 0)
(-0.0337761 -0.0345609 0)
(-0.0300662 -0.0390598 0)
(-0.0254796 -0.0432814 0)
(-0.0199805 -0.0468499 0)
(-0.0136194 -0.0487759 0)
(-0.00685783 -0.0457227 0)
(-0.00173784 -0.0274275 0)
(-0.00189586 0.0300445 0)
(-0.00745309 0.0500789 0)
(-0.0147599 0.0533233 0)
(-0.0215795 0.051167 0)
(-0.0274383 0.0472865 0)
(-0.0323074 0.0427442 0)
(-0.0362386 0.037935 0)
(-0.039335 0.0330721 0)
(-0.0417234 0.0282854 0)
(-0.0435324 0.0236475 0)
(-0.0448791 0.0191884 0)
(-0.0458636 0.0149069 0)
(-0.0465659 0.0107799 0)
(-0.0470462 0.0067698 0)
(-0.0473451 0.00282902 0)
(-0.0474844 -0.00109586 0)
(-0.047467 -0.00506154 0)
(-0.0472766 -0.00912562 0)
(-0.0468762 -0.0133438 0)
(-0.0462057 -0.0177661 0)
(-0.04518 -0.0224316 0)
(-0.043686 -0.0273596 0)
(-0.0415826 -0.0325382 0)
(-0.0387045 -0.0379072 0)
(-0.0348737 -0.0433352 0)
(-0.0299275 -0.0485796 0)
(-0.0237578 -0.0531658 0)
(-0.0163708 -0.0558666 0)
(-0.00831506 -0.0527049 0)
(-0.0021202 -0.0317226 0)
(-0.00233069 0.0347306 0)
(-0.00907683 0.0576535 0)
(-0.0177873 0.0609471 0)
(-0.0256905 0.0579089 0)
(-0.0322375 0.0529148 0)
(-0.0374596 0.047272 0)
(-0.0414902 0.0414738 0)
(-0.0445137 0.0357721 0)
(-0.0467275 0.0303033 0)
(-0.0483152 0.0251288 0)
(-0.0494343 0.0202582 0)
(-0.0502127 0.0156669 0)
(-0.0507492 0.0113081 0)
(-0.051116 0.00712151 0)
(-0.0513614 0.00303868 0)
(-0.0515117 -0.00101412 0)
(-0.0515723 -0.00511385 0)
(-0.051527 -0.0093395 0)
(-0.051336 -0.0137705 0)
(-0.0509321 -0.0184839 0)
(-0.0502155 -0.0235496 0)
(-0.0490477 -0.0290214 0)
(-0.0472454 -0.0349222 0)
(-0.0445787 -0.0412212 0)
(-0.0407785 -0.0477983 0)
(-0.0355644 -0.0543818 0)
(-0.0286979 -0.0603819 0)
(-0.0200783 -0.0642558 0)
(-0.0103326 -0.0611713 0)
(-0.00266164 -0.0369989 0)
(-0.00295764 0.0405247 0)
(-0.0113449 0.0668595 0)
(-0.0218836 0.0699577 0)
(-0.0310758 0.0655865 0)
(-0.0383212 0.059049 0)
(-0.043785 0.051968 0)
(-0.0477436 0.0449474 0)
(-0.0505061 0.0382658 0)
(-0.0523666 0.0320464 0)
(-0.0535772 0.0263193 0)
(-0.0543407 0.0210573 0)
(-0.0548133 0.0161995 0)
(-0.0551108 0.011667 0)
(-0.0553151 0.00737134 0)
(-0.0554803 0.00321937 0)
(-0.0556364 -0.00088499 0)
(-0.0557919 -0.00504055 0)
(-0.0559328 -0.0093496 0)
(-0.0560201 -0.0139184 0)
(-0.0559844 -0.0188566 0)
(-0.0557171 -0.0242744 0)
(-0.0550582 -0.030275 0)
(-0.0537827 -0.0369392 0)
(-0.0515866 -0.0442966 0)
(-0.0480807 -0.052276 0)
(-0.0428096 -0.0606096 0)
(-0.0353079 -0.068595 0)
(-0.0252434 -0.0742811 0)
(-0.0132594 -0.0716583 0)
(-0.00347629 -0.0436765 0)
(-0.00391921 0.0479225 0)
(-0.0146622 0.0782904 0)
(-0.0276078 0.0807033 0)
(-0.0382843 0.074284 0)
(-0.0461353 0.0655903 0)
(-0.0515997 0.0566369 0)
(-0.0551947 0.0481274 0)
(-0.0574116 0.0403311 0)
(-0.0586698 0.0333191 0)
(-0.0592998 0.0270577 0)
(-0.0595492 0.021459 0)
(-0.0595978 0.0164104 0)
(-0.059572 0.0117908 0)
(-0.0595581 0.00747835 0)
(-0.0596121 0.00335314 0)
(-0.0597659 -0.000703827 0)
(-0.0600311 -0.00481293 0)
(-0.0603989 -0.00909961 0)
(-0.060837 -0.013698 0)
(-0.061282 -0.0187541 0)
(-0.0616278 -0.0244272 0)
(-0.0617061 -0.0308867 0)
(-0.0612611 -0.0383004 0)
(-0.0599161 -0.0468055 0)
(-0.0571398 -0.056446 0)
(-0.0522325 -0.0670371 0)
(-0.0443556 -0.0778184 0)
(-0.0327078 -0.08635 0)
(-0.0177519 -0.0849761 0)
(-0.00480027 -0.0524796 0)
(-0.00550715 0.0577839 0)
(-0.0197792 0.0928361 0)
(-0.0358826 0.0935862 0)
(-0.0481276 0.0839825 0)
(-0.0562665 0.0722787 0)
(-0.0612646 0.0609234 0)
(-0.0640218 0.0506546 0)
(-0.0652785 0.0416506 0)
(-0.0656011 0.0338621 0)
(-0.0653966 0.0271431 0)
(-0.0649459 0.0213141 0)
(-0.0644383 0.0161925 0)
(-0.0639985 0.0116065 0)
(-0.0637075 0.00739749 0)
(-0.0636163 0.00341882 0)
(-0.0637555 -0.000469233 0)
(-0.0641398 -0.00440527 0)
(-0.0647691 -0.00853468 0)
(-0.0656248 -0.0130168 0)
(-0.0666626 -0.0180337 0)
(-0.0677972 -0.0237983 0)
(-0.0688773 -0.030561 0)
(-0.0696459 -0.0386092 0)
(-0.0696812 -0.0482492 0)
(-0.0683155 -0.0597461 0)
(-0.0645463 -0.0731559 0)
(-0.056966 -0.0878353 0)
(-0.0438921 -0.100879 0)
(-0.0250956 -0.10237 0)
(-0.00714996 -0.064761 0)
(-0.00834343 0.0717041 0)
(-0.0281236 0.11183 0)
(-0.0482043 0.108971 0)
(-0.061709 0.0943987 0)
(-0.0693492 0.0785517 0)
(-0.073029 0.064218 0)
(-0.0742051 0.0519869 0)
(-0.0739197 0.041789 0)
(-0.0728797 0.0333473 0)
(-0.0715403 0.0263384 0)
(-0.0701844 0.0204562 0)
(-0.0689833 0.0154325 0)
(-0.0680392 0.0110392 0)
(-0.0674126 0.00708218 0)
(-0.0671407 0.00339196 0)
(-0.0672469 -0.000186023 0)
(-0.0677484 -0.00380098 0)
(-0.0686568 -0.00761117 0)
(-0.0699759 -0.011793 0)
(-0.0716959 -0.0165571 0)
(-0.0737783 -0.0221659 0)
(-0.0761283 -0.0289555 0)
(-0.0785454 -0.0373573 0)
(-0.0806364 -0.0479127 0)
(-0.0816708 -0.0612519 0)
(-0.080359 -0.0779413 0)
(-0.0745389 -0.0978667 0)
(-0.061023 -0.118005 0)
(-0.0377497 -0.125608 0)
(-0.0116363 -0.0831062 0)
(-0.0137171 0.0927862 0)
(-0.0422794 0.137118 0)
(-0.0666028 0.126851 0)
(-0.0798986 0.104632 0)
(-0.0852789 0.083289 0)
(-0.0861274 0.0655072 0)
(-0.0845821 0.0513285 0)
(-0.0819594 0.0401699 0)
(-0.0790295 0.0313775 0)
(-0.0762165 0.0243788 0)
(-0.0737417 0.0187126 0)
(-0.071713 0.0140185 0)
(-0.070179 0.0100166 0)
(-0.0691601 0.00648526 0)
(-0.0686664 0.00324215 0)
(-0.0687072 0.000128405 0)
(-0.0692995 -0.00300459 0)
(-0.070469 -0.00631519 0)
(-0.0722478 -0.00998233 0)
(-0.0746755 -0.0142278 0)
(-0.0777888 -0.0193448 0)
(-0.0816003 -0.0257376 0)
(-0.0860515 -0.0339779 0)
(-0.0909154 -0.0448804 0)
(-0.095596 -0.0595849 0)
(-0.0987312 -0.0795436 0)
(-0.0974235 -0.105936 0)
(-0.0863163 -0.136688 0)
(-0.0594714 -0.156473 0)
(-0.0202265 -0.112415 0)
(-0.0237988 0.127273 0)
(-0.0655408 0.170184 0)
(-0.0910941 0.145382 0)
(-0.0994868 0.112053 0)
(-0.0987962 0.0841289 0)
(-0.0941366 0.0630072 0)
(-0.0881305 0.0474563 0)
(-0.0821013 0.0360018 0)
(-0.0766466 0.0274576 0)
(-0.0719901 0.02096 0)
(-0.0681811 0.0158961 0)
(-0.0651952 0.0118326 0)
(-0.062986 0.00845931 0)
(-0.061509 0.00554722 0)
(-0.0607327 0.00291889 0)
(-0.0606419 0.000426734 0)
(-0.0612486 -0.00206588 0)
(-0.0625887 -0.00469616 0)
(-0.064723 -0.0076254 0)
(-0.0677461 -0.0110596 0)
(-0.0717878 -0.0152849 0)
(-0.0770098 -0.0207241 0)
(-0.0835851 -0.0280308 0)
(-0.0916342 -0.0382484 0)
(-0.101036 -0.0530817 0)
(-0.110906 -0.0752377 0)
(-0.118211 -0.108326 0)
(-0.115572 -0.153618 0)
(-0.0913372 -0.196149 0)
(-0.0342024 -0.163722 0)
(-0.0391165 0.187965 0)
(-0.0935413 0.207401 0)
(-0.103527 0.155421 0)
(-0.0942482 0.108992 0)
(-0.0799788 0.075884 0)
(-0.0655241 0.0534963 0)
(-0.0527287 0.0384702 0)
(-0.0420933 0.0281973 0)
(-0.033518 0.0209716 0)
(-0.0267288 0.0157293 0)
(-0.0214437 0.0117967 0)
(-0.0174222 0.00873879 0)
(-0.0144784 0.00626647 0)
(-0.0124783 0.00417947 0)
(-0.0113341 0.00233122 0)
(-0.0109992 0.0006051 0)
(-0.0114674 -0.00110574 0)
(-0.0127708 -0.00289947 0)
(-0.0149898 -0.00489543 0)
(-0.0182585 -0.00725059 0)
(-0.0227846 -0.0101919 0)
(-0.0288728 -0.0140776 0)
(-0.0369535 -0.0195129 0)
(-0.0476185 -0.0275885 0)
(-0.0615832 -0.0403913 0)
(-0.0793009 -0.0619569 0)
(-0.0992803 -0.0995753 0)
(-0.115099 -0.162344 0)
(-0.113621 -0.243498 0)
(-0.0440767 -0.256317 0)
(-0.0323047 0.286631 0)
(-0.0621294 0.226186 0)
(-0.00307719 0.134746 0)
(0.047652 0.082673 0)
(0.083993 0.0524925 0)
(0.111013 0.0343783 0)
(0.131105 0.0234023 0)
(0.145984 0.0165182 0)
(0.157079 0.0119782 0)
(0.165418 0.00883782 0)
(0.171696 0.00656823 0)
(0.176389 0.00485638 0)
(0.179818 0.00350782 0)
(0.1822 0.00239549 0)
(0.183674 0.00143107 0)
(0.184318 0.000547665 0)
(0.184163 -0.000311255 0)
(0.183196 -0.00119937 0)
(0.181345 -0.00217728 0)
(0.178477 -0.00332546 0)
(0.17437 -0.00476405 0)
(0.168671 -0.00669383 0)
(0.16081 -0.00948803 0)
(0.14983 -0.0139185 0)
(0.134104 -0.0217221 0)
(0.110986 -0.0370217 0)
(0.0772966 -0.0695562 0)
(0.0310108 -0.138837 0)
(-0.0349243 -0.261711 0)
(0.00797699 -0.343807 0)
(0.303405 0.179409 0)
(0.371621 0.127646 0)
(0.51689 0.0695089 0)
(0.602874 0.0381735 0)
(0.647098 0.0218011 0)
(0.673291 0.0129526 0)
(0.690553 0.00812498 0)
(0.702378 0.00540234 0)
(0.710735 0.00376544 0)
(0.71681 0.00271113 0)
(0.721301 0.00198983 0)
(0.724634 0.00146927 0)
(0.72708 0.0010744 0)
(0.728817 0.000759846 0)
(0.729957 0.000496229 0)
(0.73057 0.000262752 0)
(0.730688 4.5219e-05 0)
(0.730316 -0.000171858 0)
(0.729422 -0.000403337 0)
(0.727938 -0.00066702 0)
(0.72574 -0.00098922 0)
(0.722617 -0.00141429 0)
(0.718195 -0.00202798 0)
(0.711763 -0.00302812 0)
(0.701818 -0.00489693 0)
(0.684922 -0.00890838 0)
(0.653163 -0.0186084 0)
(0.585526 -0.0445455 0)
(0.42654 -0.111698 0)
(0.34412 -0.178899 0)
)
;

boundaryField
{
    movingWall
    {
        type            fixedValue;
        value           uniform (1.2 0 0);
    }
    fixedWalls
    {
        type            noSlip;
    }
    frontAndBack
    {
        type            empty;
    }
}


// ************************************************************************* //
