/*--------------------------------*- C++ -*----------------------------------*\
  =========                 |
  \\      /  F ield         | OpenFOAM: The Open Source CFD Toolbox
   \\    /   O peration     | Website:  https://openfoam.org
    \\  /    A nd           | Version:  7
     \\/     M anipulation  |
\*---------------------------------------------------------------------------*/
FoamFile
{
    version     2.0;
    format      ascii;
    class       volScalarField;
    location    "850";
    object      epsilon;
}
// * * * * * * * * * * * * * * * * * * * * * * * * * * * * * * * * * * * * * //

dimensions      [0 2 -3 0 0 0 0];

internalField   nonuniform List<scalar> 
4500
(
789.607
724.717
675.056
641.444
616.337
596.999
581.733
569.399
559.236
550.727
543.512
537.331
531.994
527.355
523.302
519.746
516.618
513.86
511.426
509.275
507.376
505.702
504.228
502.934
501.803
500.821
499.973
499.247
498.635
498.126
497.712
497.386
497.141
496.972
496.873
496.839
496.865
496.947
497.082
497.265
497.495
497.767
498.079
498.428
498.813
499.229
499.675
500.148
500.647
501.169
501.711
502.272
502.849
503.44
504.042
504.653
505.271
505.891
506.51
507.125
507.732
508.329
508.914
509.485
510.046
510.602
511.16
511.732
512.33
512.966
513.648
514.38
515.155
515.952
516.746
180.467
258.6
265.807
255.427
244.809
236.24
229.47
224.046
219.618
215.941
212.845
210.208
207.941
205.978
204.268
202.77
201.455
200.297
199.274
198.371
197.573
196.869
196.248
195.702
195.223
194.804
194.442
194.129
193.863
193.64
193.455
193.306
193.19
193.105
193.048
193.018
193.012
193.028
193.065
193.123
193.199
193.292
193.402
193.527
193.665
193.817
193.981
194.157
194.342
194.537
194.74
194.951
195.169
195.393
195.621
195.853
196.088
196.325
196.562
196.798
197.033
197.265
197.493
197.718
197.94
198.161
198.383
198.607
198.838
199.076
199.322
199.576
199.832
200.083
200.321
52.4732
112.464
134.457
135.922
132.522
128.669
125.265
122.401
120.007
117.993
116.284
114.823
113.562
112.469
111.515
110.679
109.944
109.296
108.724
108.219
107.772
107.376
107.028
106.72
106.451
106.215
106.01
105.833
105.682
105.554
105.448
105.361
105.293
105.242
105.207
105.187
105.18
105.185
105.202
105.229
105.268
105.315
105.372
105.438
105.51
105.591
105.678
105.771
105.869
105.973
106.082
106.194
106.311
106.431
106.553
106.677
106.803
106.93
107.057
107.184
107.309
107.432
107.552
107.67
107.785
107.898
108.012
108.127
108.248
108.375
108.512
108.659
108.817
108.982
109.15
18.9423
52.8112
76.111
83.4465
84.1244
82.8547
81.1903
79.5846
78.1513
76.9017
75.8187
74.8793
74.0618
73.3479
72.7222
72.1719
71.6868
71.2581
70.8788
70.5429
70.2455
69.9822
69.7494
69.544
69.3633
69.205
69.067
68.9476
68.8451
68.7581
68.6854
68.6259
68.5785
68.5424
68.5167
68.5007
68.4936
68.4945
68.503
68.5188
68.5415
68.5705
68.6054
68.6459
68.6914
68.7418
68.7965
68.8553
68.9178
68.9837
69.0526
69.1243
69.1984
69.2745
69.3525
69.4317
69.512
69.5928
69.6735
69.7536
69.8325
69.9098
69.9849
70.0579
70.129
70.199
70.2694
70.3423
70.4201
70.5055
70.6009
70.7077
70.8263
70.9549
71.0883
8.1872
25.0217
43.8942
53.7537
57.1337
57.7145
57.2786
56.5262
55.7185
54.9491
54.2478
53.6201
53.0624
52.5681
52.1302
51.742
51.3976
51.0917
50.82
50.5786
50.3641
50.1737
50.005
49.8557
49.7242
49.6086
49.5076
49.4199
49.3443
49.28
49.226
49.1814
49.1457
49.118
49.0979
49.0847
49.0781
49.0773
49.0818
49.0916
49.1064
49.1257
49.1493
49.1769
49.2082
49.2429
49.2808
49.3216
49.365
49.4109
49.459
49.509
49.5607
49.6139
49.6682
49.7236
49.7795
49.8357
49.8917
49.9472
50.0017
50.0548
50.1062
50.1561
50.2048
50.2533
50.3028
50.3552
50.4129
50.4779
50.5523
50.6372
50.7322
50.8356
50.9418
4.2188
11.9892
24.7098
34.5695
39.5749
41.5705
42.1325
42.0729
41.7614
41.3618
40.9462
40.5459
40.1736
39.8334
39.5253
39.2478
38.9985
38.7751
38.575
38.3962
38.2364
38.094
37.9673
37.8548
37.7554
37.6677
37.5909
37.524
37.4662
37.4168
37.3752
37.3407
37.3128
37.2911
37.275
37.2642
37.2584
37.257
37.2597
37.2663
37.2766
37.2903
37.3074
37.3274
37.3503
37.3757
37.4036
37.4336
37.4657
37.4995
37.535
37.572
37.6101
37.6494
37.6895
37.7303
37.7714
37.8126
37.8536
37.8941
37.9337
37.9722
38.0096
38.0459
38.0817
38.1178
38.1556
38.1965
38.2426
38.2954
38.3562
38.4256
38.5026
38.5849
38.6666
2.53586
6.06763
13.4269
21.5411
27.1065
30.0891
31.4755
32.0206
32.1462
32.069
31.8979
31.6884
31.4685
31.2526
31.0476
30.8568
30.6813
30.521
30.3754
30.2438
30.1251
30.0186
29.9231
29.838
29.7624
29.6955
29.6366
29.5852
29.5407
29.5025
29.4703
29.4435
29.4217
29.4047
29.3922
29.3836
29.3789
29.3777
29.3797
29.3846
29.3924
29.4029
29.4159
29.4313
29.4488
29.4684
29.4898
29.5129
29.5375
29.5636
29.5909
29.6192
29.6486
29.6786
29.7093
29.7404
29.7718
29.8031
29.8341
29.8647
29.8945
29.9234
29.9516
29.9792
30.0067
30.0349
30.0651
30.0985
30.1365
30.1804
30.2308
30.2876
30.3493
30.4132
30.4736
1.72014
3.39495
7.19137
12.8165
17.9493
21.4137
23.4192
24.4852
25.0083
25.2292
25.2842
25.2494
25.1674
25.0624
24.9482
24.8326
24.7203
24.6137
24.514
24.4218
24.3374
24.2604
24.1908
24.1281
24.072
24.0221
23.9779
23.9393
23.9057
23.8769
23.8525
23.8323
23.8159
23.8032
23.7938
23.7877
23.7844
23.7839
23.786
23.7902
23.7967
23.8053
23.8159
23.8282
23.8423
23.858
23.8752
23.8936
23.9133
23.934
23.9556
23.9781
24.0013
24.025
24.0492
24.0735
24.098
24.1224
24.1464
24.17
24.193
24.2153
24.237
24.2585
24.2802
24.3029
24.3275
24.3552
24.3869
24.4235
24.4651
24.511
24.5596
24.6078
24.6503
1.27853
2.13151
3.97937
7.32524
11.3239
14.7132
17.0625
18.5327
19.4051
19.9031
20.1732
20.3058
20.3557
20.3562
20.3275
20.2824
20.2286
20.1713
20.1134
20.057
20.0032
19.9528
19.9061
19.8633
19.8246
19.7897
19.7587
19.7314
19.7076
19.6872
19.67
19.6558
19.6445
19.6359
19.6298
19.6261
19.6247
19.6254
19.628
19.6324
19.6384
19.6461
19.6552
19.6658
19.6777
19.6909
19.7051
19.7204
19.7366
19.7536
19.7713
19.7896
19.8084
19.8276
19.847
19.8665
19.886
19.9054
19.9243
19.9429
19.9608
19.9783
19.9953
20.0123
20.0296
20.048
20.0682
20.0912
20.1175
20.1477
20.1816
20.2182
20.2556
20.2909
20.3192
1.01869
1.48311
2.38188
4.15478
6.80161
9.62717
11.9836
13.6873
14.8322
15.5744
16.0458
16.3399
16.5189
16.623
16.6785
16.7023
16.7057
16.6961
16.6786
16.6564
16.632
16.6068
16.5819
16.558
16.5356
16.5151
16.4964
16.4799
16.4654
16.4531
16.4428
16.4345
16.4282
16.4238
16.4212
16.4203
16.421
16.4233
16.427
16.4321
16.4383
16.4457
16.4543
16.4639
16.4745
16.486
16.4984
16.5115
16.5253
16.5397
16.5546
16.57
16.5856
16.6015
16.6175
16.6334
16.6493
16.6649
16.6801
16.6949
16.7091
16.7229
16.7364
16.7498
16.7637
16.7785
16.795
16.8139
16.8355
16.8601
16.8872
16.9159
16.944
16.9689
16.9863
0.856486
1.12027
1.57153
2.45563
3.97547
5.97825
8.01089
9.72611
11.0249
11.954
12.6007
13.0453
13.349
13.5554
13.6948
13.7877
13.8485
13.8869
13.9097
13.9219
13.9266
13.9265
13.9233
13.9181
13.912
13.9055
13.8991
13.8933
13.8881
13.8839
13.8806
13.8784
13.8773
13.8773
13.8784
13.8806
13.8838
13.8881
13.8934
13.8996
13.9066
13.9144
13.923
13.9323
13.9423
13.9529
13.9642
13.976
13.9882
14.0009
14.0138
14.027
14.0404
14.0539
14.0673
14.0807
14.0938
14.1066
14.119
14.1309
14.1423
14.1533
14.164
14.1746
14.1857
14.1976
14.2109
14.226
14.2435
14.2631
14.2845
14.3064
14.3271
14.3439
14.3532
0.751138
0.901882
1.1357
1.57101
2.36209
3.58036
5.07589
6.57156
7.86573
8.89151
9.66657
10.2385
10.6564
10.9608
11.1828
11.345
11.4638
11.551
11.6151
11.6622
11.6969
11.7225
11.7413
11.7553
11.7658
11.7738
11.7801
11.7852
11.7897
11.7938
11.7979
11.802
11.8064
11.8112
11.8164
11.8221
11.8283
11.835
11.8423
11.8501
11.8583
11.867
11.8761
11.8857
11.8957
11.9061
11.9168
11.9278
11.9392
11.9507
11.9624
11.9742
11.986
11.9977
12.0094
12.0208
12.0319
12.0427
12.0529
12.0627
12.0719
12.0807
12.0892
12.0976
12.1063
12.1156
12.1261
12.1381
12.1518
12.1672
12.1836
12.2
12.2147
12.2254
12.2289
0.681084
0.763094
0.884561
1.10001
1.49244
2.15026
3.09086
4.2063
5.32813
6.32978
7.15924
7.81699
8.32691
8.71822
9.01769
9.24721
9.42379
9.56035
9.6666
9.74982
9.81548
9.86769
9.90958
9.94353
9.97136
9.99448
10.014
10.0307
10.0453
10.0584
10.0702
10.0812
10.0916
10.1016
10.1114
10.121
10.1306
10.1402
10.1499
10.1598
10.1698
10.1798
10.19
10.2003
10.2108
10.2214
10.2321
10.243
10.2539
10.2649
10.2758
10.2867
10.2975
10.3081
10.3185
10.3286
10.3383
10.3475
10.3562
10.3643
10.3719
10.379
10.3858
10.3923
10.3991
10.4063
10.4144
10.4236
10.4341
10.4458
10.458
10.4699
10.4798
10.4859
10.4855
0.63403
0.671598
0.730768
0.83575
1.02644
1.35691
1.87632
2.58645
3.41896
4.27087
5.05819
5.73808
6.30134
6.75721
7.12188
7.41233
7.64372
7.8286
7.97704
8.09693
8.19441
8.27426
8.34018
8.39508
8.44121
8.48035
8.5139
8.54298
8.56847
8.59108
8.61137
8.62981
8.64676
8.66253
8.67735
8.69142
8.70489
8.7179
8.73054
8.74289
8.75502
8.76694
8.77864
8.79017
8.80159
8.8129
8.82411
8.83523
8.84623
8.85709
8.86778
8.87827
8.88852
8.89848
8.90808
8.91727
8.92598
8.93416
8.94174
8.94872
8.95508
8.9609
8.96628
8.97142
8.97656
8.982
8.98803
8.99488
9.00264
9.01115
9.01995
9.02813
9.03439
9.03701
9.03388
0.602484
0.610007
0.63217
0.67868
0.768007
0.927183
1.19007
1.58499
2.11209
2.73181
3.38151
4.0041
4.56404
5.04728
5.45396
5.79146
6.06965
6.29853
6.48706
6.64286
6.7722
6.88017
6.97088
7.04758
7.11291
7.16898
7.21746
7.25973
7.29688
7.32982
7.35927
7.38582
7.40997
7.43212
7.45259
7.47166
7.48956
7.50647
7.52254
7.53789
7.55264
7.56686
7.58054
7.59376
7.60658
7.61903
7.63116
7.64297
7.65447
7.66566
7.67651
7.68702
7.69713
7.70683
7.71606
7.72477
7.73291
7.74043
7.7473
7.75348
7.75899
7.76388
7.76825
7.77227
7.77614
7.78011
7.78443
7.78928
7.79473
7.80064
7.80659
7.81181
7.81519
7.81529
7.81041
0.581598
0.568258
0.567053
0.580682
0.61734
0.689625
0.815044
1.01459
1.30566
1.69024
2.14768
2.64103
3.13178
3.59126
4.00373
4.36394
4.67321
4.93622
5.15888
5.34716
5.50658
5.64194
5.75733
5.85616
5.94124
6.01492
6.07909
6.13533
6.18494
6.22897
6.26832
6.3037
6.33574
6.36492
6.39167
6.41634
6.43923
6.46059
6.48061
6.49947
6.51733
6.53429
6.55043
6.56579
6.58045
6.59449
6.60795
6.62088
6.63329
6.6452
6.65661
6.6675
6.67787
6.68768
6.6969
6.7055
6.71343
6.72065
6.72712
6.73285
6.73782
6.7421
6.74576
6.74895
6.75185
6.75466
6.7576
6.76081
6.76435
6.76812
6.77175
6.77462
6.77577
6.77403
6.76806
0.568079
0.540126
0.523431
0.51743
0.525304
0.552668
0.607669
0.701329
0.846657
1.05501
1.32993
1.66241
2.03209
2.41414
2.7866
3.13432
3.44925
3.72875
3.97363
4.1866
4.37111
4.53081
4.66914
4.78922
4.89377
4.98516
5.06536
5.13607
5.19872
5.25449
5.30439
5.34928
5.38985
5.42671
5.46037
5.49125
5.51971
5.54608
5.57059
5.59349
5.61495
5.63513
5.65416
5.67213
5.68908
5.70514
5.72036
5.7348
5.74852
5.76154
5.77388
5.78553
5.79651
5.80678
5.81634
5.82516
5.83319
5.84043
5.84683
5.85239
5.85713
5.86107
5.8643
5.86694
5.86913
5.87107
5.87293
5.87484
5.87686
5.8789
5.88068
5.88168
5.88114
5.87808
5.87147
0.559602
0.521507
0.494215
0.475854
0.467123
0.470264
0.488837
0.527918
0.594281
0.695973
0.840597
1.03225
1.26844
1.53938
1.83035
2.12588
2.41303
2.68294
2.93066
3.15433
3.35412
3.53139
3.68811
3.82648
3.94865
4.05666
4.15237
4.23741
4.31321
4.38101
4.44188
4.49674
4.54637
4.59146
4.63258
4.67023
4.70483
4.73674
4.76628
4.79372
4.81928
4.84316
4.86553
4.88654
4.90624
4.92473
4.94213
4.9585
4.97392
4.98842
5.00205
5.01482
5.02675
5.03782
5.04804
5.05739
5.06584
5.07339
5.08
5.08568
5.09043
5.0943
5.09736
5.0997
5.10146
5.10279
5.10386
5.10478
5.10561
5.1063
5.10663
5.1062
5.10438
5.1004
5.09347
0.5545
0.509542
0.474918
0.448452
0.429644
0.419073
0.418104
0.428877
0.454437
0.498844
0.567017
0.66401
0.793577
0.956396
1.14891
1.36364
1.59092
1.82102
2.04586
2.25963
2.45884
2.64182
2.80825
2.95863
3.09399
3.21558
3.32473
3.42275
3.5109
3.59032
3.66202
3.72691
3.78582
3.83944
3.8884
3.93322
3.97439
4.01231
4.04734
4.07978
4.10991
4.13794
4.1641
4.18854
4.21141
4.23277
4.25274
4.27144
4.28893
4.30529
4.32057
4.3348
4.34801
4.36021
4.3714
4.38158
4.39074
4.39887
4.40596
4.41201
4.41704
4.42108
4.4242
4.42648
4.42805
4.42903
4.42958
4.4298
4.42976
4.42944
4.42868
4.42717
4.42443
4.41984
4.41284
0.551578
0.502159
0.462517
0.430613
0.405436
0.386738
0.374813
0.370408
0.374735
0.389544
0.417193
0.460615
0.52306
0.607482
0.715642
0.847209
0.999339
1.16703
1.34408
1.52425
1.70217
1.87373
2.03619
2.18798
2.32843
2.4575
2.57558
2.68332
2.78147
2.87084
2.95226
3.02649
3.09425
3.15622
3.21299
3.26511
3.31305
3.35724
3.39807
3.43585
3.4709
3.50347
3.53378
3.56204
3.58841
3.61303
3.63596
3.65735
3.67728
3.69585
3.71312
3.72914
3.74395
3.75757
3.77003
3.78132
3.79146
3.80043
3.80825
3.81492
3.82046
3.82491
3.82831
3.83077
3.83237
3.83325
3.83353
3.83332
3.83271
3.83169
3.83016
3.8279
3.82453
3.8196
3.81271
0.549997
0.497833
0.454862
0.419311
0.390008
0.366314
0.347991
0.335115
0.328033
0.327378
0.334101
0.349515
0.375307
0.413461
0.46604
0.534794
0.620652
0.723263
0.840805
0.970169
1.10746
1.24861
1.38992
1.52835
1.66166
1.78835
1.90755
2.01888
2.12232
2.21806
2.30649
2.38803
2.46319
2.53246
2.59634
2.65528
2.70973
2.76008
2.8067
2.84993
2.89006
2.92736
2.96207
2.99441
3.02456
3.05268
3.07889
3.10328
3.12597
3.14705
3.16661
3.18472
3.20142
3.21675
3.23074
3.24341
3.25477
3.26484
3.27362
3.28113
3.2874
3.29246
3.29637
3.29921
3.30107
3.30206
3.30232
3.30195
3.30104
3.2996
3.2976
3.29488
3.29117
3.28613
3.2795
0.549196
0.49545
0.450382
0.412443
0.380459
0.353629
0.331457
0.313683
0.300245
0.291252
0.28699
0.287933
0.294771
0.308424
0.330031
0.360892
0.402324
0.455437
0.520857
0.598475
0.687317
0.785601
0.890966
1.00079
1.11252
1.22388
1.33303
1.43859
1.5396
1.63547
1.72589
1.81079
1.89022
1.96437
2.03347
2.09782
2.15771
2.21344
2.26531
2.3136
2.35859
2.40051
2.4396
2.47606
2.51008
2.54183
2.57145
2.59905
2.6247
2.64852
2.67061
2.69103
2.70985
2.72712
2.74287
2.75714
2.76995
2.78131
2.79126
2.79982
2.80701
2.81288
2.81749
2.82091
2.82323
2.82457
2.82504
2.82475
2.8238
2.82223
2.82004
2.81715
2.81335
2.80842
2.80222
0.54882
0.494229
0.447927
0.408498
0.374812
0.346017
0.321496
0.300829
0.283749
0.270116
0.259909
0.253214
0.250232
0.251294
0.256863
0.267551
0.2841
0.307348
0.338153
0.377272
0.42521
0.482078
0.54749
0.620553
0.699939
0.784044
0.871158
0.959635
1.04801
1.13506
1.21984
1.30164
1.38
1.45464
1.5254
1.59226
1.65527
1.71453
1.77019
1.82241
1.87136
1.91724
1.9602
2.00043
2.03807
2.07329
2.10621
2.13697
2.16562
2.19225
2.21695
2.23981
2.26088
2.28022
2.29788
2.3139
2.3283
2.34113
2.35241
2.36217
2.37045
2.3773
2.38278
2.38697
2.38996
2.39185
2.39276
2.3928
2.39207
2.39065
2.38856
2.38577
2.38216
2.37757
2.37198
0.548657
0.493654
0.446683
0.406388
0.371673
0.341678
0.31574
0.293358
0.274166
0.257902
0.244398
0.233559
0.225367
0.219876
0.217213
0.217587
0.221296
0.228722
0.240335
0.25667
0.278288
0.305721
0.339393
0.379536
0.426116
0.478796
0.536941
0.599667
0.665925
0.734602
0.804607
0.87494
0.944741
1.0133
1.08007
1.14463
1.20671
1.26611
1.32274
1.37656
1.42758
1.47584
1.52141
1.56438
1.60483
1.64287
1.67858
1.71206
1.74339
1.77261
1.79978
1.82496
1.84823
1.86963
1.8892
1.907
1.92306
1.93742
1.95011
1.96118
1.97067
1.97864
1.98515
1.99028
1.99412
1.99678
1.99837
1.999
1.99878
1.99781
1.99613
1.99375
1.99062
1.98665
1.98188
0.548592
0.493406
0.446107
0.405351
0.370059
0.339371
0.312608
0.289233
0.268829
0.251075
0.235728
0.222608
0.211595
0.202617
0.19565
0.190716
0.187888
0.187286
0.189086
0.193519
0.200869
0.211469
0.225679
0.243868
0.26637
0.293444
0.325224
0.361686
0.402619
0.447634
0.496183
0.547606
0.601178
0.656168
0.711876
0.767668
0.822995
0.877399
0.930512
0.98205
1.0318
1.07961
1.12539
1.16906
1.21061
1.25003
1.28733
1.32253
1.35567
1.38678
1.41586
1.44293
1.46802
1.49119
1.51247
1.5319
1.5495
1.56533
1.57941
1.59181
1.60256
1.61174
1.61941
1.62564
1.63054
1.6342
1.63673
1.63825
1.63887
1.63869
1.63778
1.63618
1.63388
1.63086
1.62719
0.548569
0.49331
0.445866
0.40489
0.369304
0.338249
0.311036
0.287114
0.266042
0.247465
0.231105
0.216739
0.204196
0.193345
0.184094
0.176382
0.17018
0.165488
0.162338
0.160793
0.160948
0.162932
0.16691
0.173077
0.181656
0.192888
0.207014
0.224254
0.244789
0.268724
0.296075
0.326749
0.360542
0.397143
0.436158
0.47713
0.519575
0.563004
0.606949
0.650978
0.694708
0.737809
0.780004
0.821063
0.860803
0.899081
0.935784
0.970829
1.00416
1.03573
1.06552
1.09347
1.11957
1.14382
1.16624
1.18683
1.20564
1.22267
1.23799
1.25162
1.26362
1.27405
1.28298
1.29049
1.29667
1.3016
1.3054
1.30817
1.31002
1.31105
1.31135
1.31097
1.30995
1.30828
1.30608
0.548561
0.493276
0.445775
0.404707
0.368989
0.337759
0.310324
0.286125
0.264707
0.245702
0.22881
0.213787
0.200435
0.188595
0.17814
0.168972
0.161016
0.154218
0.148548
0.143992
0.140556
0.138266
0.137167
0.137327
0.138831
0.141788
0.146325
0.152588
0.160732
0.170915
0.183288
0.197983
0.215094
0.234666
0.256683
0.281062
0.307653
0.336239
0.366552
0.398287
0.431113
0.464695
0.4987
0.532817
0.566756
0.600258
0.633093
0.665063
0.696
0.725765
0.754246
0.781358
0.806991
0.83109
0.853619
0.874557
0.893898
0.911651
0.927834
0.942477
0.95562
0.96731
0.977606
0.986572
0.994283
1.00082
1.00627
1.01072
1.01428
1.01702
1.01904
1.0204
1.02114
1.0213
1.02097
0.548559
0.493266
0.445745
0.404642
0.368873
0.337571
0.31004
0.285716
0.264139
0.24493
0.227779
0.212432
0.198676
0.186338
0.175272
0.165362
0.156511
0.148642
0.141694
0.13562
0.13039
0.125983
0.122391
0.11962
0.117686
0.116617
0.116455
0.117254
0.11908
0.122013
0.126141
0.131563
0.138379
0.14669
0.156589
0.168154
0.181436
0.196459
0.213205
0.231616
0.251591
0.272988
0.295629
0.319307
0.343797
0.368862
0.394264
0.41977
0.445161
0.470233
0.494806
0.518725
0.541853
0.564053
0.585229
0.605303
0.624221
0.641946
0.658457
0.673747
0.687822
0.7007
0.712405
0.722975
0.732453
0.740889
0.748343
0.754878
0.760562
0.765465
0.769652
0.773185
0.776111
0.778472
0.780341
0.548558
0.493263
0.445735
0.404622
0.368836
0.337509
0.309944
0.285572
0.26393
0.244636
0.227375
0.211885
0.197946
0.185378
0.174026
0.163764
0.154484
0.146098
0.138532
0.131724
0.125625
0.120197
0.11541
0.111242
0.10768
0.10472
0.102362
0.100617
0.0995
0.0990368
0.0992589
0.100206
0.101924
0.104467
0.107894
0.112267
0.11765
0.124106
0.13169
0.140449
0.150413
0.161594
0.173981
0.187535
0.202194
0.217867
0.234441
0.251783
0.269746
0.288172
0.306901
0.325775
0.344647
0.363369
0.381801
0.399818
0.417311
0.434188
0.450371
0.465798
0.480421
0.494204
0.507124
0.519168
0.530337
0.540638
0.55009
0.558719
0.566559
0.573651
0.580037
0.58576
0.590862
0.59538
0.599359
0.548558
0.493263
0.445733
0.404617
0.368827
0.337493
0.309918
0.285532
0.26387
0.244548
0.227249
0.211707
0.197701
0.185045
0.173583
0.163183
0.153733
0.145139
0.137321
0.130213
0.123758
0.11791
0.112631
0.10789
0.103663
0.099932
0.0966848
0.0939146
0.0916196
0.0898032
0.0884736
0.0876441
0.0873327
0.0875625
0.0883618
0.0897634
0.0918048
0.0945275
0.0979764
0.102198
0.107239
0.113145
0.119956
0.127704
0.136411
0.146085
0.156716
0.168279
0.180724
0.193984
0.207975
0.222593
0.237725
0.253251
0.269038
0.284949
0.300852
0.316619
0.332132
0.347284
0.36198
0.376139
0.389694
0.402592
0.414791
0.426265
0.436999
0.446989
0.456242
0.464775
0.472611
0.479778
0.486307
0.492229
0.497572
0.548558
0.493263
0.445733
0.404617
0.368827
0.337493
0.309918
0.285532
0.26387
0.244548
0.227249
0.211707
0.197701
0.185045
0.173583
0.163183
0.153733
0.145138
0.137321
0.130212
0.123758
0.11791
0.112631
0.10789
0.103663
0.0999317
0.0966844
0.0939141
0.0916191
0.0898026
0.0884729
0.0876433
0.0873318
0.0875615
0.0883607
0.0897621
0.0918033
0.0945259
0.0979745
0.102196
0.107237
0.113143
0.119953
0.127701
0.136408
0.146081
0.156713
0.168275
0.18072
0.19398
0.207971
0.222589
0.237721
0.253247
0.269034
0.284945
0.300848
0.316615
0.332128
0.34728
0.361976
0.376135
0.38969
0.402587
0.414787
0.426261
0.436996
0.446988
0.456244
0.46478
0.472621
0.479793
0.486329
0.492256
0.497603
0.548558
0.493263
0.445735
0.404622
0.368836
0.337509
0.309944
0.285572
0.26393
0.244636
0.227375
0.211884
0.197946
0.185377
0.174026
0.163763
0.154484
0.146097
0.138531
0.131722
0.125623
0.120195
0.115407
0.111239
0.107677
0.104716
0.102357
0.100611
0.0994937
0.0990294
0.0992503
0.100196
0.101912
0.104454
0.107878
0.112249
0.11763
0.124083
0.131665
0.14042
0.150381
0.161559
0.173942
0.187492
0.202147
0.217817
0.234388
0.251727
0.269686
0.28811
0.306836
0.325708
0.344578
0.363299
0.381729
0.399745
0.417237
0.434113
0.450296
0.465723
0.480345
0.494128
0.507048
0.519094
0.530264
0.540567
0.550023
0.558659
0.566509
0.573612
0.580013
0.585753
0.590872
0.595403
0.59939
0.548559
0.493266
0.445745
0.404642
0.368873
0.337571
0.31004
0.285716
0.264138
0.244929
0.227779
0.212431
0.198675
0.186336
0.175271
0.16536
0.156509
0.148639
0.14169
0.135616
0.130384
0.125976
0.122383
0.119611
0.117674
0.116603
0.116439
0.117235
0.119058
0.121987
0.126111
0.131527
0.138338
0.146643
0.156536
0.168092
0.181367
0.196381
0.213119
0.231521
0.251487
0.272876
0.295508
0.319178
0.343661
0.368719
0.394114
0.419615
0.445
0.470068
0.494637
0.518553
0.541678
0.563877
0.58505
0.605123
0.62404
0.641765
0.658275
0.673565
0.68764
0.700518
0.712225
0.722796
0.732277
0.740718
0.748181
0.754728
0.760428
0.765352
0.769564
0.773123
0.776074
0.778454
0.780328
0.548561
0.493276
0.445775
0.404707
0.368988
0.337758
0.310324
0.286124
0.264706
0.245701
0.228808
0.213785
0.200432
0.188591
0.178136
0.168967
0.161009
0.15421
0.148538
0.143979
0.14054
0.138247
0.137145
0.1373
0.138799
0.14175
0.146281
0.152535
0.16067
0.170842
0.183205
0.197887
0.214983
0.23454
0.256542
0.280906
0.307481
0.336052
0.366351
0.398072
0.430886
0.464455
0.498451
0.532558
0.566489
0.599984
0.632813
0.664778
0.695711
0.725473
0.753951
0.781061
0.806692
0.83079
0.853318
0.874255
0.893597
0.91135
0.927533
0.942176
0.955318
0.967009
0.977306
0.986275
0.993991
1.00053
1.006
1.01047
1.01405
1.01682
1.01887
1.02027
1.02104
1.02122
1.0209
0.548569
0.49331
0.445866
0.404889
0.369303
0.338248
0.311035
0.287112
0.266039
0.247462
0.2311
0.216733
0.204189
0.193336
0.184083
0.176368
0.170163
0.165467
0.162313
0.160762
0.16091
0.162886
0.166854
0.173011
0.181577
0.192794
0.206902
0.224124
0.244637
0.268549
0.295877
0.326527
0.360295
0.396872
0.435863
0.476815
0.519241
0.562652
0.606581
0.650597
0.694316
0.737409
0.779595
0.820648
0.860384
0.898658
0.935358
0.970401
1.00373
1.0353
1.06509
1.09304
1.11914
1.14339
1.16581
1.18641
1.20521
1.22225
1.23756
1.25119
1.26319
1.27363
1.28256
1.29007
1.29625
1.3012
1.30501
1.30781
1.30969
1.31076
1.31111
1.31078
1.3098
1.30816
1.30596
0.548592
0.493406
0.446106
0.40535
0.370057
0.339369
0.312604
0.289228
0.268823
0.251067
0.235717
0.222595
0.211579
0.202597
0.195624
0.190685
0.187849
0.187238
0.189027
0.193447
0.200782
0.211362
0.225551
0.243714
0.266187
0.293228
0.324974
0.361399
0.402296
0.447274
0.495789
0.547179
0.600722
0.655686
0.711372
0.767145
0.822457
0.876849
0.929952
0.981483
1.03123
1.07904
1.12481
1.16848
1.21003
1.24945
1.28675
1.32196
1.3551
1.38621
1.41529
1.44235
1.46746
1.49063
1.51191
1.53133
1.54894
1.56477
1.57885
1.59125
1.60201
1.61118
1.61885
1.62509
1.63
1.63367
1.63623
1.63778
1.63844
1.63831
1.63747
1.63593
1.6337
1.63071
1.62705
0.548657
0.493653
0.446681
0.406385
0.371669
0.341672
0.315732
0.293348
0.274153
0.257886
0.244376
0.233532
0.225333
0.219833
0.217159
0.21752
0.221212
0.228618
0.240206
0.256511
0.278094
0.305486
0.339112
0.379205
0.425732
0.478359
0.536452
0.599128
0.665342
0.733979
0.80395
0.874255
0.944034
1.01258
1.07933
1.14388
1.20595
1.26535
1.32198
1.3758
1.42682
1.47508
1.52066
1.56363
1.60409
1.64213
1.67784
1.71132
1.74266
1.77188
1.79905
1.82424
1.84751
1.86891
1.88849
1.9063
1.92236
1.93672
1.94941
1.96048
1.96997
1.97794
1.98445
1.98958
1.99344
1.99612
1.99773
1.99841
1.99826
1.99736
1.99576
1.99347
1.99042
1.98651
1.98174
0.54882
0.494228
0.447924
0.408492
0.374804
0.346005
0.321481
0.300809
0.283722
0.270083
0.259867
0.253159
0.250163
0.251206
0.256753
0.267411
0.283923
0.307126
0.337878
0.376935
0.424804
0.481598
0.546934
0.619922
0.699239
0.783281
0.870341
0.958773
1.04711
1.13413
1.21889
1.30068
1.37904
1.45366
1.52442
1.59128
1.65429
1.71356
1.76922
1.82145
1.87041
1.91629
1.95927
1.9995
2.03715
2.07237
2.1053
2.13606
2.16472
2.19136
2.21607
2.23892
2.26
2.27934
2.29701
2.31303
2.32744
2.34027
2.35154
2.3613
2.36959
2.37644
2.38192
2.38612
2.38912
2.39103
2.39198
2.39208
2.39144
2.39012
2.38814
2.38547
2.38196
2.37745
2.37187
0.549195
0.495446
0.450375
0.412431
0.380442
0.353607
0.331427
0.313645
0.300196
0.291189
0.286908
0.287827
0.294635
0.308247
0.329804
0.360602
0.401957
0.454981
0.520302
0.597814
0.68655
0.784734
0.890008
0.999757
1.11142
1.22273
1.33185
1.43738
1.53838
1.63424
1.72466
1.80955
1.88899
1.96314
2.03226
2.09661
2.15651
2.21225
2.26414
2.31244
2.35744
2.39937
2.43847
2.47493
2.50896
2.54072
2.57035
2.59795
2.62362
2.64745
2.66954
2.68996
2.70879
2.72606
2.74181
2.75609
2.7689
2.78027
2.79022
2.79877
2.80596
2.81183
2.81644
2.81987
2.82221
2.82358
2.82411
2.8239
2.82305
2.82161
2.81958
2.81683
2.81318
2.80834
2.80215
0.549994
0.497825
0.454848
0.419289
0.389977
0.366273
0.347938
0.335046
0.327943
0.32726
0.333945
0.34931
0.375036
0.413106
0.46558
0.534211
0.61993
0.722395
0.839792
0.969022
1.1062
1.24725
1.38849
1.52687
1.66014
1.78681
1.906
2.01733
2.12077
2.21653
2.30497
2.38653
2.4617
2.53099
2.59488
2.65384
2.7083
2.75866
2.8053
2.84854
2.88868
2.926
2.96072
2.99307
3.02323
3.05136
3.07758
3.10198
3.12467
3.14576
3.16533
3.18344
3.20014
3.21548
3.22947
3.24214
3.25351
3.26358
3.27236
3.27987
3.28613
3.29119
3.2951
3.29795
3.29983
3.30088
3.30121
3.30094
3.30016
3.29889
3.29709
3.29457
3.29103
3.28611
3.27949
0.551572
0.502144
0.462491
0.430575
0.405384
0.386669
0.374721
0.370286
0.374571
0.389323
0.416894
0.460212
0.522523
0.606781
0.714752
0.846117
0.99805
1.16556
1.34246
1.52252
1.70035
1.87185
2.03428
2.18606
2.3265
2.45559
2.57369
2.68144
2.77961
2.86901
2.95045
3.0247
3.09249
3.15448
3.21127
3.26341
3.31137
3.35558
3.39642
3.43422
3.46928
3.50186
3.53219
3.56046
3.58683
3.61146
3.63441
3.6558
3.67574
3.69431
3.71159
3.72761
3.74242
3.75605
3.76851
3.77981
3.78994
3.79892
3.80674
3.8134
3.81894
3.82338
3.82679
3.82926
3.83089
3.83182
3.83219
3.83212
3.83168
3.83087
3.82959
3.82758
3.82443
3.81965
3.81276
0.55449
0.509515
0.474874
0.448389
0.429558
0.418956
0.417945
0.428659
0.454136
0.498425
0.566438
0.663225
0.792544
0.95509
1.14733
1.36182
1.58889
1.81885
2.04358
2.25729
2.45647
2.63945
2.80589
2.95629
3.09168
3.2133
3.32248
3.42054
3.50873
3.58817
3.6599
3.72483
3.78376
3.83741
3.88638
3.93123
3.97242
4.01036
4.0454
4.07786
4.108
4.13605
4.16222
4.18667
4.20954
4.23091
4.2509
4.2696
4.2871
4.30347
4.31875
4.33299
4.3462
4.3584
4.36959
4.37977
4.38893
4.39706
4.40414
4.41019
4.41521
4.41925
4.42237
4.42467
4.42628
4.42733
4.42799
4.42837
4.42855
4.4285
4.42804
4.42684
4.42437
4.41996
4.41297
0.559583
0.521462
0.494144
0.475753
0.466982
0.470068
0.48856
0.527523
0.593716
0.69517
0.839487
1.03078
1.2666
1.53718
1.82787
2.12319
2.41021
2.68004
2.92774
3.15142
3.35124
3.52854
3.68531
3.82373
3.94595
4.05401
4.14977
4.23485
4.31069
4.37852
4.43942
4.49431
4.54398
4.58909
4.63024
4.6679
4.70252
4.73445
4.76401
4.79146
4.81703
4.84093
4.86331
4.88433
4.90404
4.92254
4.93994
4.95632
4.97174
4.98625
4.99989
5.01266
5.02459
5.03567
5.04589
5.05524
5.06369
5.07123
5.07784
5.08351
5.08825
5.09212
5.09517
5.09753
5.09934
5.10076
5.10196
5.10308
5.10418
5.1052
5.1059
5.10585
5.10437
5.1006
5.09368
0.568046
0.540055
0.523319
0.517269
0.525073
0.552333
0.607175
0.700596
0.845582
1.05349
1.3279
1.65988
2.02915
2.41088
2.78314
3.13077
3.44567
3.72519
3.97012
4.18314
4.36773
4.52749
4.66589
4.78604
4.89065
4.98209
5.06235
5.13311
5.19579
5.25161
5.30154
5.34646
5.38706
5.42394
5.45762
5.48853
5.51701
5.54339
5.56793
5.59083
5.6123
5.6325
5.65154
5.66951
5.68648
5.70254
5.71777
5.73222
5.74594
5.75897
5.7713
5.78296
5.79394
5.80422
5.81378
5.82259
5.83063
5.83785
5.84425
5.8498
5.85452
5.85845
5.86169
5.86434
5.8666
5.86864
5.87065
5.87281
5.87515
5.87759
5.87982
5.8813
5.88116
5.87837
5.87177
0.581544
0.568148
0.56688
0.580426
0.616956
0.689037
0.814135
1.0132
1.30366
1.68754
2.14433
2.63718
3.1276
3.58692
3.99935
4.35958
4.66893
4.93203
5.15478
5.34317
5.50268
5.63813
5.7536
5.8525
5.93765
6.01139
6.07561
6.1319
6.18155
6.22562
6.265
6.30042
6.33248
6.36168
6.38846
6.41315
6.43606
6.45743
6.47746
6.49634
6.51421
6.53118
6.54733
6.5627
6.57737
6.59141
6.60488
6.61781
6.63023
6.64214
6.65355
6.66444
6.67481
6.68462
6.69384
6.70244
6.71036
6.71757
6.72404
6.72975
6.73471
6.73897
6.74264
6.74585
6.7488
6.75173
6.75486
6.75836
6.7623
6.76654
6.77073
6.77416
6.77583
6.77442
6.76847
0.6024
0.609839
0.631903
0.678265
0.767348
0.926113
1.18836
1.58242
2.10857
2.72746
3.37659
3.99885
4.55868
5.04194
5.44872
5.78634
6.06468
6.2937
6.48236
6.63827
6.76772
6.8758
6.96659
7.04337
7.10877
7.16489
7.21342
7.25574
7.29294
7.32591
7.35539
7.38198
7.40615
7.42832
7.44881
7.4679
7.48582
7.50274
7.51882
7.53419
7.54895
7.56317
7.57687
7.59009
7.60291
7.61537
7.6275
7.63932
7.65082
7.66201
7.67287
7.68337
7.69349
7.70318
7.71241
7.72112
7.72925
7.73677
7.74361
7.74978
7.75527
7.76014
7.76451
7.76854
7.77248
7.77658
7.78113
7.78631
7.79222
7.7987
7.80532
7.81124
7.81524
7.81577
7.81096
0.633903
0.671346
0.73035
0.835057
1.02526
1.35491
1.87316
2.582
3.41343
4.26465
5.05167
5.73151
6.29488
6.75093
7.1158
7.40645
7.63802
7.82307
7.97166
8.09167
8.18926
8.26921
8.33522
8.3902
8.43639
8.47559
8.5092
8.53832
8.56385
8.58649
8.60681
8.62528
8.64226
8.65804
8.67288
8.68697
8.70045
8.71347
8.72613
8.73849
8.75063
8.76255
8.77426
8.7858
8.79722
8.80853
8.81975
8.83087
8.84187
8.85273
8.86342
8.87392
8.88416
8.89411
8.90371
8.9129
8.9216
8.92977
8.93734
8.94429
8.95062
8.95641
8.96178
8.96694
8.97215
8.97773
8.98401
8.99124
8.99953
9.00873
9.01832
9.02735
9.03439
9.03757
9.03461
0.680892
0.762711
0.883889
1.0988
1.49025
2.14654
3.08538
4.19938
5.32037
6.32173
7.15124
7.80921
8.3194
8.711
9.01073
9.24048
9.41726
9.554
9.6604
9.74375
9.80952
9.86183
9.9038
9.93782
9.96572
9.9889
10.0084
10.0252
10.0399
10.053
10.0648
10.0759
10.0863
10.0963
10.1061
10.1157
10.1253
10.135
10.1447
10.1545
10.1645
10.1746
10.1848
10.1951