/*--------------------------------*- C++ -*----------------------------------*\
  =========                 |
  \\      /  F ield         | OpenFOAM: The Open Source CFD Toolbox
   \\    /   O peration     | Website:  https://openfoam.org
    \\  /    A nd           | Version:  7
     \\/     M anipulation  |
\*---------------------------------------------------------------------------*/
FoamFile
{
    version     2.0;
    format      ascii;
    class       volScalarField;
    location    "850";
    object      k;
}
// * * * * * * * * * * * * * * * * * * * * * * * * * * * * * * * * * * * * * //

dimensions      [0 2 -2 0 0 0 0];

internalField   nonuniform List<scalar> 
4500
(
2.10711
1.99003
1.89804
1.8345
1.78632
1.74875
1.71881
1.69443
1.67421
1.65718
1.64268
1.6302
1.61939
1.60996
1.6017
1.59444
1.58803
1.58238
1.57737
1.57295
1.56904
1.56558
1.56254
1.55986
1.55753
1.55549
1.55374
1.55223
1.55096
1.54991
1.54905
1.54837
1.54786
1.54751
1.54731
1.54724
1.54729
1.54746
1.54774
1.54812
1.5486
1.54916
1.54981
1.55053
1.55133
1.55219
1.55312
1.5541
1.55513
1.55621
1.55734
1.5585
1.55969
1.56091
1.56216
1.56342
1.56469
1.56597
1.56725
1.56852
1.56977
1.571
1.5722
1.57337
1.57452
1.57565
1.57678
1.57793
1.57914
1.58043
1.58182
1.58333
1.58494
1.58663
1.58835
1.10354
1.6732
1.8379
1.85191
1.83283
1.80901
1.78664
1.7669
1.74973
1.73484
1.72188
1.71057
1.70066
1.69195
1.68428
1.6775
1.67151
1.6662
1.66151
1.65736
1.6537
1.65047
1.64764
1.64516
1.64301
1.64115
1.63956
1.63823
1.63712
1.63622
1.63551
1.63499
1.63463
1.63443
1.63437
1.63445
1.63464
1.63495
1.63536
1.63588
1.63649
1.63718
1.63797
1.63882
1.63975
1.64074
1.6418
1.64291
1.64407
1.64527
1.64652
1.6478
1.64911
1.65044
1.6518
1.65317
1.65455
1.65593
1.65729
1.65864
1.65996
1.66123
1.66245
1.66361
1.66472
1.66578
1.66683
1.6679
1.66905
1.67036
1.67187
1.67367
1.67577
1.6782
1.68089
0.644943
1.23225
1.53537
1.63719
1.66542
1.66864
1.66318
1.65482
1.64581
1.63702
1.62881
1.62129
1.61447
1.60833
1.60283
1.5979
1.59351
1.5896
1.58613
1.58307
1.58037
1.578
1.57594
1.57416
1.57264
1.57135
1.57029
1.56943
1.56875
1.56825
1.56791
1.56772
1.56767
1.56775
1.56795
1.56826
1.56868
1.56918
1.56978
1.57046
1.57122
1.57206
1.57297
1.57394
1.57497
1.57606
1.57719
1.57837
1.57959
1.58085
1.58214
1.58345
1.58479
1.58614
1.58751
1.58888
1.59025
1.59161
1.59295
1.59426
1.59551
1.5967
1.59781
1.59883
1.59976
1.60063
1.60147
1.60236
1.60339
1.60465
1.60629
1.60839
1.61105
1.61429
1.61806
0.463615
0.893401
1.25805
1.43575
1.5127
1.54555
1.55894
1.56332
1.56337
1.56132
1.55829
1.55487
1.55137
1.54798
1.54477
1.54181
1.5391
1.53665
1.53446
1.53253
1.53083
1.52936
1.52811
1.52705
1.52619
1.5255
1.52498
1.52462
1.5244
1.52432
1.52436
1.52453
1.52481
1.52519
1.52567
1.52625
1.52691
1.52765
1.52845
1.52933
1.53027
1.53127
1.53233
1.53345
1.53461
1.53582
1.53706
1.53834
1.53965
1.54099
1.54235
1.54373
1.54512
1.54652
1.54793
1.54933
1.55072
1.55209
1.55343
1.55472
1.55594
1.55707
1.5581
1.55901
1.55981
1.56054
1.56124
1.56201
1.56297
1.56428
1.56609
1.56855
1.57177
1.57579
1.58053
0.39407
0.646738
0.998479
1.23088
1.35547
1.4206
1.45545
1.47456
1.48513
1.49089
1.49385
1.49516
1.49547
1.49521
1.49462
1.49387
1.49306
1.49226
1.49151
1.49084
1.49026
1.48979
1.48943
1.48919
1.48906
1.48904
1.48912
1.48932
1.48961
1.49
1.49048
1.49104
1.49169
1.49242
1.49323
1.4941
1.49504
1.49604
1.49708
1.49818
1.49934
1.50053
1.50178
1.50306
1.50438
1.50573
1.50711
1.50851
1.50994
1.51138
1.51284
1.5143
1.51577
1.51724
1.5187
1.52015
1.52158
1.52298
1.52433
1.52562
1.52682
1.52792
1.52888
1.52972
1.53043
1.53105
1.53166
1.53237
1.53333
1.53472
1.53674
1.53954
1.54326
1.54795
1.55346
0.370615
0.488905
0.769299
1.02349
1.18836
1.28645
1.34497
1.38088
1.40366
1.41854
1.4285
1.43532
1.44007
1.44345
1.44589
1.4477
1.44908
1.45017
1.45107
1.45184
1.45255
1.45323
1.45389
1.45457
1.45527
1.45601
1.45679
1.45761
1.45848
1.45941
1.46038
1.4614
1.46248
1.4636
1.46477
1.46598
1.46724
1.46853
1.46986
1.47122
1.47261
1.47404
1.47549
1.47697
1.47847
1.47999
1.48153
1.48309
1.48465
1.48622
1.48779
1.48936
1.49092
1.49247
1.49401
1.49552
1.49701
1.49845
1.49983
1.50113
1.50233
1.5034
1.50433
1.50512
1.50576
1.50632
1.50688
1.50757
1.50857
1.51006
1.51228
1.51539
1.51952
1.52471
1.53079
0.364546
0.403111
0.587007
0.823641
1.01304
1.14094
1.22398
1.27842
1.31506
1.34046
1.35856
1.3718
1.38173
1.38935
1.39533
1.40011
1.40404
1.40732
1.41012
1.41258
1.41476
1.41675
1.4186
1.42033
1.42199
1.4236
1.42517
1.42672
1.42826
1.42979
1.43133
1.43287
1.43443
1.436
1.43759
1.43919
1.44081
1.44245
1.44409
1.44575
1.44742
1.44911
1.4508
1.45251
1.45422
1.45595
1.45767
1.4594
1.46112
1.46284
1.46455
1.46624
1.46792
1.46957
1.4712
1.4728
1.47435
1.47584
1.47726
1.47859
1.4798
1.48087
1.48179
1.48254
1.48315
1.48368
1.48422
1.48492
1.48596
1.48757
1.48995
1.49331
1.49775
1.50328
1.5097
0.364603
0.363346
0.460994
0.64658
0.836783
0.985712
1.09154
1.16521
1.21704
1.25428
1.28169
1.30236
1.31829
1.33084
1.34093
1.34918
1.35605
1.36188
1.3669
1.37129
1.37519
1.3787
1.38191
1.38487
1.38763
1.39024
1.39272
1.3951
1.3974
1.39963
1.40182
1.40396
1.40607
1.40816
1.41023
1.41228
1.41431
1.41634
1.41835
1.42035
1.42234
1.42433
1.4263
1.42827
1.43023
1.43218
1.43412
1.43605
1.43796
1.43985
1.44172
1.44356
1.44537
1.44715
1.44889
1.45058
1.45221
1.45378
1.45525
1.45662
1.45786
1.45895
1.45986
1.4606
1.4612
1.46172
1.46227
1.463
1.4641
1.46579
1.46831
1.47184
1.47647
1.4822
1.48878
0.366685
0.347483
0.386684
0.507132
0.671669
0.826391
0.949252
1.04089
1.10836
1.15845
1.19625
1.22534
1.24815
1.26638
1.28121
1.29348
1.30378
1.31256
1.32014
1.32678
1.33266
1.33794
1.34271
1.34708
1.35112
1.35488
1.35841
1.36175
1.36493
1.36797
1.3709
1.37373
1.37647
1.37915
1.38177
1.38433
1.38685
1.38932
1.39175
1.39415
1.3965
1.39883
1.40113
1.4034
1.40564
1.40786
1.41004
1.4122
1.41433
1.41642
1.41847
1.42048
1.42245
1.42437
1.42624
1.42805
1.42978
1.43143
1.43298
1.43441
1.43569
1.4368
1.43774
1.43849
1.4391
1.43963
1.4402
1.44096
1.44211
1.44388
1.44648
1.45009
1.45481
1.4606
1.46718
0.369317
0.342581
0.348917
0.412157
0.531963
0.672822
0.801903
0.907129
0.989078
1.05222
1.10113
1.13949
1.17002
1.1947
1.21496
1.23184
1.24608
1.25827
1.26882
1.27805
1.28623
1.29353
1.30012
1.30612
1.31163
1.31672
1.32146
1.3259
1.33009
1.33406
1.33784
1.34146
1.34494
1.3483
1.35154
1.35469
1.35776
1.36074
1.36366
1.3665
1.36928
1.372
1.37467
1.37729
1.37985
1.38237
1.38484
1.38727
1.38964
1.39197
1.39423
1.39645
1.3986
1.40069
1.40271
1.40465
1.40651
1.40826
1.4099
1.4114
1.41274
1.4139
1.41488
1.41566
1.4163
1.41686
1.41745
1.41824
1.41943
1.42124
1.42387
1.42751
1.43222
1.43795
1.4444
0.371958
0.342445
0.332102
0.356566
0.42837
0.537786
0.658014
0.768348
0.860997
0.935939
0.995905
1.044
1.08291
1.11474
1.1411
1.16319
1.18194
1.19802
1.21198
1.2242
1.23501
1.24466
1.25334
1.26122
1.26842
1.27504
1.28118
1.28689
1.29224
1.29728
1.30205
1.30658
1.3109
1.31503
1.319
1.32283
1.32652
1.33009
1.33356
1.33692
1.34018
1.34336
1.34645
1.34946
1.3524
1.35527
1.35807
1.3608
1.36346
1.36605
1.36857
1.37101
1.37338
1.37566
1.37786
1.37996
1.38196
1.38385
1.3856
1.38719
1.38861
1.38984
1.39087
1.39171
1.39238
1.39298
1.39361
1.39443
1.39564
1.39745
1.40008
1.40366
1.40828
1.41385
1.42007
0.374409
0.344309
0.325896
0.328085
0.362098
0.432748
0.529167
0.632415
0.728536
0.811707
0.881286
0.938793
0.986292
1.02573
1.05874
1.08663
1.11042
1.13091
1.14873
1.16436
1.17819
1.19052
1.20161
1.21164
1.22079
1.22918
1.23691
1.24409
1.25078
1.25705
1.26294
1.26851
1.2738
1.27883
1.28363
1.28823
1.29265
1.29689
1.30099
1.30494
1.30876
1.31246
1.31604
1.31951
1.32288
1.32615
1.32933
1.33241
1.3354
1.3383
1.3411
1.34381
1.34643
1.34894
1.35134
1.35364
1.35581
1.35784
1.35972
1.36144
1.36296
1.36428
1.36538
1.36628
1.36702
1.36766
1.36833
1.36918
1.37039
1.37218
1.37474
1.37822
1.38267
1.38801
1.39391
0.376595
0.346935
0.32478
0.315189
0.325142
0.361913
0.426574
0.510145
0.599357
0.684171
0.759763
0.824969
0.880429
0.92743
0.967348
1.00143
1.03072
1.05608
1.07822
1.09769
1.11493
1.13032
1.14415
1.15665
1.16802
1.17843
1.188
1.19685
1.20508
1.21276
1.21995
1.22672
1.23312
1.23917
1.24493
1.25042
1.25566
1.26068
1.2655
1.27014
1.2746
1.27889
1.28303
1.28702
1.29089
1.29462
1.29823
1.30172
1.30509
1.30834
1.31148
1.3145
1.3174
1.32017
1.32282
1.32533
1.32771
1.32992
1.33196
1.33382
1.33547
1.3369
1.3381
1.33909
1.3399
1.3406
1.34131
1.34218
1.34338
1.34512
1.34758
1.3509
1.35512
1.36015
1.3657
0.378494
0.349749
0.326042
0.310425
0.306798
0.320311
0.355502
0.412199
0.483847
0.561114
0.636428
0.705553
0.766924
0.820518
0.867011
0.907312
0.942336
0.972909
0.999742
1.02343
1.04448
1.06329
1.08019
1.09548
1.10938
1.12209
1.13376
1.14452
1.1545
1.1638
1.17248
1.18062
1.18828
1.19552
1.20237
1.20888
1.21507
1.22098
1.22663
1.23205
1.23724
1.24222
1.247
1.2516
1.25602
1.26029
1.2644
1.26835
1.27216
1.27583
1.27935
1.28272
1.28595
1.28903
1.29196
1.29474
1.29734
1.29977
1.302
1.30403
1.30583
1.3074
1.30872
1.30982
1.31072
1.3115
1.31225
1.31314
1.31432
1.31599
1.31832
1.32143
1.32537
1.33006
1.33519
0.380104
0.352469
0.328352
0.309741
0.298825
0.298554
0.31258
0.343818
0.391993
0.452699
0.519406
0.586268
0.64949
0.707223
0.758929
0.804788
0.845312
0.881119
0.912829
0.94101
0.96616
0.988712
1.00903
1.02742
1.04416
1.05945
1.07348
1.08642
1.09839
1.10952
1.11989
1.1296
1.13872
1.1473
1.15541
1.16308
1.17036
1.17729
1.18389
1.19019
1.19621
1.20198
1.2075
1.2128
1.21787
1.22275
1.22743
1.23192
1.23623
1.24037
1.24433
1.24812
1.25173
1.25517
1.25842
1.2615
1.26438
1.26706
1.26952
1.27175
1.27374
1.27547
1.27694
1.27817
1.27918
1.28004
1.28086
1.28177
1.28292
1.2845
1.28667
1.28955
1.29317
1.29748
1.30218
0.381432
0.354953
0.331036
0.311052
0.296302
0.288389
0.289475
0.302115
0.328313
0.36807
0.418684
0.475701
0.534633
0.59211
0.646117
0.695722
0.740693
0.781189
0.817558
0.850219
0.879597
0.906091
0.930062
0.951828
0.971665
0.989815
1.00648
1.02185
1.03606
1.04926
1.06155
1.07303
1.08379
1.0939
1.10343
1.11244
1.12096
1.12905
1.13673
1.14405
1.15103
1.1577
1.16407
1.17015
1.17598
1.18155
1.18689
1.192
1.19689
1.20157
1.20604
1.2103
1.21435
1.2182
1.22184
1.22526
1.22846
1.23144
1.23417
1.23664
1.23885
1.24078
1.24243
1.24381
1.24495
1.24592
1.24681
1.24775
1.24887
1.25036
1.25235
1.25498
1.25827
1.26216
1.26642
0.382496
0.357126
0.333732
0.313269
0.296566
0.284515
0.278275
0.279385
0.28963
0.310488
0.342261
0.383516
0.431393
0.482568
0.53415
0.584096
0.631194
0.674873
0.714976
0.751595
0.784951
0.815323
0.843002
0.868273
0.8914
0.912621
0.932149
0.950173
0.966858
0.982351
0.996777
1.01025
1.02286
1.0347
1.04584
1.05634
1.06627
1.07568
1.0846
1.09308
1.10115
1.10884
1.11617
1.12316
1.12984
1.13622
1.14231
1.14813
1.15368
1.15898
1.16403
1.16884
1.17341
1.17773
1.1818
1.18563
1.18921
1.19252
1.19557
1.19833
1.20079
1.20296
1.20482
1.20639
1.20769
1.20879
1.20977
1.21075
1.21185
1.21324
1.21506
1.21742
1.22036
1.22384
1.22765
0.383317
0.358954
0.336237
0.315805
0.298201
0.28395
0.27367
0.268176
0.268537
0.276002
0.291697
0.316126
0.348733
0.387879
0.431278
0.47661
0.521952
0.565944
0.607754
0.646952
0.683386
0.71708
0.748158
0.776798
0.803195
0.827551
0.850059
0.870898
0.890233
0.908214
0.924972
0.940628
0.955288
0.969045
0.981982
0.994173
1.00568
1.01657
1.02689
1.03667
1.04598
1.05482
1.06325
1.07128
1.07893
1.08622
1.09317
1.0998
1.10611
1.11213
1.11785
1.12328
1.12843
1.13329
1.13788
1.14218
1.14618
1.1499
1.15331
1.1564
1.15917
1.16161
1.16372
1.16551
1.16701
1.16827
1.16936
1.1704
1.1715
1.17281
1.17446
1.17656
1.17916
1.18222
1.18558
0.383926
0.360429
0.338437
0.318319
0.300425
0.285071
0.272597
0.26342
0.258096
0.257353
0.262057
0.273062
0.290942
0.315686
0.346543
0.382133
0.420773
0.460828
0.500941
0.540122
0.577726
0.61338
0.646914
0.678293
0.707566
0.734832
0.760217
0.783859
0.805894
0.826457
0.845674
0.863661
0.880526
0.896366
0.91127
0.925315
0.938573
0.951109
0.962978
0.974231
0.984913
0.995065
1.00472
1.01391
1.02266
1.03099
1.03892
1.04646
1.05364
1.06047
1.06695
1.0731
1.07892
1.08441
1.08958
1.09441
1.09892
1.10309
1.10692
1.11041
1.11353
1.1163
1.1187
1.12075
1.12248
1.12393
1.12517
1.1263
1.12742
1.12867
1.13017
1.13203
1.1343
1.13697
1.1399
0.384356
0.361567
0.340271
0.320613
0.302785
0.286971
0.273357
0.262155
0.253642
0.248183
0.246262
0.248465
0.255422
0.267671
0.285474
0.308658
0.336564
0.368157
0.40222
0.437572
0.473202
0.508334
0.542423
0.575121
0.606232
0.63567
0.663425
0.689534
0.714068
0.73711
0.758756
0.779099
0.798235
0.816251
0.833234
0.84926
0.864403
0.878727
0.892294
0.905156
0.917363
0.928958
0.939982
0.950467
0.960444
0.969938
0.978964
0.987547
0.995704
1.00345
1.0108
1.01776
1.02434
1.03054
1.03636
1.04182
1.0469
1.0516
1.05592
1.05985
1.06338
1.06652
1.06927
1.07163
1.07363
1.07532
1.07674
1.07799
1.07917
1.08039
1.08178
1.08343
1.08541
1.08771
1.09025
0.384645
0.3624
0.341721
0.322574
0.305012
0.28912
0.274988
0.262719
0.252442
0.244331
0.238618
0.235613
0.235703
0.239328
0.246928
0.258848
0.275219
0.295877
0.320342
0.347879
0.377621
0.408696
0.440324
0.471868
0.502846
0.532919
0.561867
0.589563
0.615944
0.641
0.664751
0.687239
0.708519
0.728653
0.747706
0.765743
0.782828
0.799021
0.81438
0.828957
0.842802
0.855959
0.86847
0.880371
0.891695
0.902469
0.912715
0.922451
0.931698
0.940472
0.94879
0.956661
0.964094
0.971097
0.977673
0.983824
0.989551
0.994853
0.999728
1.00417
1.00818
1.01176
1.0149
1.01763
1.01995
1.02191
1.02357
1.02499
1.02628
1.02752
1.02884
1.03034
1.03206
1.03405
1.03624
0.384827
0.362976
0.342805
0.324148
0.306947
0.291198
0.276922
0.264155
0.252946
0.243368
0.235524
0.229553
0.225648
0.224051
0.225056
0.228985
0.236149
0.246788
0.260999
0.278687
0.299546
0.323088
0.348708
0.375765
0.403652
0.431835
0.459883
0.487464
0.514338
0.540342
0.565373
0.589375
0.612327
0.634233
0.655112
0.674995
0.693921
0.711932
0.729071
0.745382
0.760907
0.775686
0.789758
0.803157
0.815916
0.828064
0.839624
0.850616
0.861054
0.870957
0.880341
0.889219
0.897601
0.905495
0.912905
0.919837
0.926292
0.932271
0.937775
0.942801
0.947352
0.951426
0.955031
0.958176
0.960883
0.963184
0.965129
0.966783
0.968229
0.969563
0.970884
0.972284
0.973831
0.975565
0.977469
0.384935
0.363349
0.343566
0.325333
0.308509
0.293015
0.278815
0.265893
0.254251
0.243905
0.234889
0.227257
0.221089
0.216497
0.213627
0.212662
0.213817
0.217326
0.223417
0.232273
0.243994
0.258559
0.275806
0.295441
0.317067
0.340231
0.364466
0.389336
0.414459
0.439515
0.464253
0.488484
0.51207
0.534916
0.556964
0.578181
0.598555
0.618086
0.636787
0.654677
0.671778
0.688118
0.703722
0.718618
0.732831
0.746386
0.759304
0.771607
0.783304
0.794408
0.804935
0.814897
0.824305
0.833167
0.84149
0.849278
0.856536
0.863266
0.86947
0.87515
0.88031
0.884952
0.889084
0.892718
0.895874
0.898583
0.900888
0.902849
0.904537
0.906038
0.907444
0.908842
0.910303
0.911879
0.913583
0.384994
0.363574
0.344062
0.326166
0.309682
0.294477
0.280464
0.267588
0.255813
0.24512
0.235503
0.226971
0.219547
0.21327
0.208201
0.204423
0.202042
0.201191
0.202024
0.20471
0.209419
0.216301
0.22546
0.236932
0.250663
0.266508
0.284234
0.303546
0.32411
0.345586
0.367651
0.390012
0.41242
0.434669
0.456596
0.478075
0.499014
0.519345
0.539026
0.558028
0.576336
0.593946
0.610859
0.627083
0.642627
0.657503
0.671723
0.6853
0.698245
0.71056
0.722252
0.73333
0.743805
0.753683
0.76297
0.771672
0.779792
0.787335
0.794306
0.800708
0.806547
0.811829
0.816564
0.820765
0.824452
0.827654
0.830409
0.832771
0.834802
0.836579
0.838184
0.839699
0.841197
0.842736
0.844359
0.385025
0.363699
0.344363
0.326707
0.310498
0.295561
0.281772
0.269042
0.257306
0.246517
0.236644
0.227667
0.219578
0.21238
0.206088
0.20073
0.196348
0.193
0.190761
0.189721
0.18999
0.191688
0.19494
0.199869
0.206575
0.215125
0.225537
0.237769
0.251715
0.267211
0.284048
0.301987
0.320778
0.340173
0.359944
0.379887
0.399824
0.419607
0.439118
0.45826
0.476958
0.495157
0.512815
0.529902
0.546397
0.562286
0.577559
0.592213
0.606244
0.619652
0.632425
0.644564
0.656071
0.66695
0.677203
0.686833
0.695844
0.704241
0.712028
0.719212
0.7258
0.7318
0.737223
0.742085
0.746404
0.750208
0.753531
0.756418
0.758927
0.761123
0.763079
0.764871
0.766568
0.768236
0.769936
0.385039
0.363763
0.344529
0.327031
0.311019
0.296298
0.282719
0.270166
0.25855
0.247804
0.237875
0.228725
0.220326
0.21266
0.205716
0.199495
0.194005
0.189262
0.185294
0.182139
0.179847
0.178479
0.178108
0.178817
0.180697
0.18384
0.188336
0.194259
0.201662
0.210564
0.220946
0.232746
0.24586
0.260148
0.275447
0.291573
0.308341
0.325569
0.343085
0.360736
0.378386
0.395917
0.413229
0.43024
0.446883
0.463102
0.478851
0.494096
0.508808
0.522964
0.536546
0.549528
0.561898
0.57365
0.584778
0.59528
0.605156
0.614406
0.623035
0.631048
0.638451
0.645254
0.651468
0.657107
0.66219
0.666741
0.670789
0.674373
0.677541
0.680348
0.682858
0.685137
0.68725
0.689264
0.691249
0.385045
0.363793
0.344613
0.327207
0.311323
0.296756
0.283344
0.270952
0.259476
0.248832
0.238951
0.229781
0.221278
0.213411
0.206155
0.199492
0.193412
0.187912
0.182994
0.178668
0.17495
0.171863
0.169439
0.167716
0.166741
0.16657
0.167264
0.16889
0.171516
0.175209
0.180029
0.18602
0.19321
0.2016
0.211164
0.221846
0.233564
0.24621
0.259659
0.273776
0.288419
0.303449
0.318733
0.334145
0.349573
0.364916
0.380084
0.395002
0.409604
0.423832
0.437641
0.450992
0.463839
0.476158
0.487927
0.49913
0.509757
0.519801
0.529257
0.538126
0.546409
0.554111
0.561241
0.567808
0.573827
0.579315
0.584295
0.588797
0.592858
0.596523
0.599841
0.60287
0.605667
0.608293
0.610819
0.385047
0.363805
0.344651
0.327293
0.311482
0.297013
0.283715
0.271447
0.260093
0.249557
0.239761
0.230639
0.22214
0.21422
0.206844
0.199984
0.193619
0.187734
0.182318
0.177365
0.172874
0.16885
0.165302
0.162241
0.159688
0.157665
0.156202
0.155334
0.155098
0.155542
0.156711
0.158657
0.16143
0.165076
0.169635
0.175137
0.181598
0.189016
0.19737
0.206617
0.216698
0.227534
0.239034
0.251096
0.263613
0.276476
0.289579
0.30282
0.316102
0.329338
0.342449
0.355368
0.368031
0.380379
0.392363
0.403946
0.415096
0.425786
0.435996
0.445709
0.454916
0.463608
0.471782
0.479436
0.486574
0.493204
0.499337
0.50499
0.510189
0.514963
0.519349
0.52339
0.527135
0.530635
0.53395
0.385048
0.36381
0.344666
0.32733
0.311556
0.29714
0.28391
0.271721
0.260452
0.250001
0.240283
0.231225
0.222767
0.214859
0.207459
0.200533
0.194052
0.187994
0.18234
0.177077
0.172195
0.167688
0.163555
0.159795
0.156413
0.153417
0.150818
0.148631
0.146872
0.145563
0.144731
0.144402
0.14461
0.145388
0.146775
0.148806
0.15152
0.154949
0.159124
0.164065
0.169784
0.176281
0.183544
0.191544
0.200241
0.20958
0.219498
0.229918
0.240763
0.251947
0.263386
0.274996
0.286698
0.298412
0.310063
0.321582
0.332906
0.343981
0.354757
0.365193
0.375252
0.384904
0.394123
0.402892
0.411197
0.419027
0.426381
0.433262
0.439677
0.445645
0.451188
0.456336
0.461126
0.4656
0.469804
0.385048
0.363811
0.344671
0.327343
0.311584
0.297191
0.283992
0.271841
0.260616
0.250212
0.24054
0.231524
0.2231
0.215215
0.207823
0.200885
0.19437
0.18825
0.182505
0.177117
0.172072
0.16736
0.162973
0.158908
0.155163
0.151739
0.148639
0.14587
0.14344
0.14136
0.139644
0.138308
0.137371
0.136854
0.136782
0.137182
0.138083
0.139516
0.141514
0.144108
0.147331
0.15121
0.155769
0.161027
0.166992
0.173664
0.181028
0.189061
0.197724
0.206965
0.216725
0.226931
0.237507
0.24837
0.259435
0.270614
0.281822
0.292978
0.304009
0.314846
0.32543
0.335707
0.345632
0.355169
0.364286
0.372961
0.381178
0.388928
0.396209
0.403028
0.409396
0.415337
0.420879
0.426058
0.430908
0.385048
0.363811
0.344671
0.327343
0.311584
0.297191
0.283992
0.271841
0.260616
0.250212
0.24054
0.231524
0.2231
0.215215
0.207823
0.200885
0.19437
0.18825
0.182505
0.177117
0.172072
0.16736
0.162973
0.158908
0.155163
0.151739
0.148639
0.14587
0.14344
0.14136
0.139644
0.138307
0.13737
0.136853
0.136781
0.137181
0.138082
0.139515
0.141513
0.144107
0.14733
0.151209
0.155768
0.161026
0.166991
0.173662
0.181027
0.18906
0.197722
0.206964
0.216723
0.226929
0.237505
0.248369
0.259433
0.270612
0.28182
0.292977
0.304008
0.314845
0.325428
0.335705
0.345631
0.355167
0.364284
0.372958
0.381175
0.388924
0.396204
0.403023
0.409393
0.415337
0.420884
0.426072
0.430935
0.385048
0.36381
0.344666
0.32733
0.311556
0.29714
0.28391
0.271721
0.260452
0.250001
0.240283
0.231225
0.222767
0.214859
0.207459
0.200533
0.194052
0.187994
0.18234
0.177077
0.172194
0.167688
0.163554
0.159794
0.156412
0.153416
0.150817
0.148628
0.146869
0.14556
0.144727
0.144397
0.144604
0.145382
0.146767
0.148798
0.15151
0.154938
0.159111
0.16405
0.169768
0.176264
0.183525
0.191523
0.200219
0.209557
0.219472
0.229892
0.240735
0.251919
0.263357
0.274966
0.286667
0.298381
0.310032
0.321551
0.332875
0.34395
0.354727
0.365163
0.375222
0.384873
0.394093
0.402861
0.411165
0.418994
0.426346
0.433225
0.439641
0.44561
0.451158
0.456317
0.461126
0.465628
0.469869
0.385047
0.363805
0.344651
0.327293
0.311482
0.297013
0.283715
0.271447
0.260093
0.249557
0.239761
0.23064
0.222141
0.21422
0.206844
0.199984
0.193619
0.187734
0.182317
0.177364
0.172873
0.168849
0.165299
0.162238
0.159684
0.15766
0.156196
0.155326
0.155089
0.155531
0.156698
0.158642
0.161412
0.165055
0.169611
0.17511
0.181568
0.188982
0.197332
0.206575
0.216652
0.227485
0.238982
0.251041
0.263556
0.276417
0.289518
0.302756
0.316037
0.329271
0.342382
0.3553
0.367963
0.38031
0.392295
0.403878
0.415028
0.425718
0.435928
0.445643
0.45485
0.463542
0.471715
0.479368
0.486505
0.493133
0.499264
0.504916
0.510115
0.514893
0.51929
0.523352
0.527129
0.530676
0.534053
0.385045
0.363793
0.344613
0.327207
0.311323
0.296757
0.283344
0.270953
0.259477
0.248833
0.238952
0.229782
0.221279
0.213412
0.206155
0.199492
0.193412
0.187911
0.182993
0.178666
0.174946
0.171858
0.169432
0.167707
0.166731
0.166557
0.167248
0.16887
0.171492
0.175181
0.179996
0.185982
0.193167
0.201551
0.211109
0.221786
0.233498
0.246138
0.259583
0.273695
0.288334
0.303361
0.318641
0.33405
0.349476
0.364817
0.379985
0.394902
0.409502
0.42373
0.437539
0.450889
0.463737
0.476056
0.487825
0.499029
0.509657
0.519701
0.529158
0.538028
0.546311
0.554014
0.561143
0.567709
0.573725
0.57921
0.584188
0.588689
0.592752
0.596425
0.599761
0.60282
0.605664
0.608356
0.610968
0.385039
0.363763
0.344529
0.327031
0.311019
0.296299
0.28272
0.270167
0.258551
0.247805
0.237876
0.228726
0.220327
0.21266
0.205716
0.199494
0.194003
0.189258
0.185289
0.182132
0.179838
0.178466
0.178092
0.178796
0.180671
0.183809
0.188298
0.194215
0.20161
0.210504
0.220878
0.23267
0.245775
0.260057
0.275348
0.291468
0.30823
0.325453
0.342966
0.360614
0.378261
0.39579
0.4131
0.430111
0.446753
0.462971
0.478721
0.493966
0.508678
0.522834
0.536417
0.5494
0.561771
0.573524
0.584653
0.595156
0.605033
0.614284
0.622914
0.630927
0.638331
0.645133
0.651346
0.656983
0.662063
0.66661
0.670655
0.674238
0.67741
0.680229
0.682764
0.685085
0.687262
0.689363
0.69146
0.385025
0.363699
0.344363
0.326708
0.310499
0.295562
0.281774
0.269044
0.257308
0.246519
0.236645
0.227668
0.219578
0.212379
0.206086
0.200726
0.196342
0.192991
0.190748
0.189704
0.189968
0.191659
0.194904
0.199824
0.20652
0.215061
0.225462
0.237683
0.251618
0.267104
0.283932
0.301862
0.320645
0.340034
0.3598
0.379738
0.399672
0.419453
0.438962
0.458103
0.476801
0.495
0.512659
0.529746
0.546242
0.562131
0.577406
0.592061
0.606094
0.619503
0.632278
0.644418
0.655927
0.666807
0.677061
0.686692
0.695705
0.704103
0.711892
0.719077
0.725665
0.731664
0.737085
0.741944
0.746258
0.750057
0.753376
0.756263
0.758778
0.760991
0.762981
0.764828
0.766608
0.768386
0.770226
0.384994
0.363574
0.344063
0.326167
0.309684
0.294479
0.280466
0.267591
0.255816
0.245122
0.235505
0.226971
0.219545
0.213266
0.208194
0.204412
0.202027
0.20117
0.201995
0.204673
0.209371
0.216241
0.225387
0.236845
0.250562
0.266393
0.284106
0.303406
0.323959
0.345427
0.367484
0.38984
0.412243
0.43449
0.456415
0.477893
0.498831
0.519163
0.538844
0.557847
0.576157
0.593769
0.610684
0.62691
0.642456
0.657334
0.671556
0.685135
0.698082
0.710399
0.722093
0.733174
0.74365
0.75353
0.762819
0.771522
0.779644
0.787188
0.79416
0.800563
0.806402
0.811683
0.816415
0.820612
0.824293
0.827489
0.830239
0.8326
0.83464
0.83644
0.838089
0.839675
0.841275
0.84295
0.844743
0.384935
0.36335
0.343567
0.325335
0.308511
0.293018
0.278818
0.265896
0.254254
0.243907
0.234889
0.227254
0.221083
0.216486
0.21361
0.212637
0.213783
0.21728
0.223357
0.232198
0.243902
0.258448
0.275678
0.295296
0.316907
0.340058
0.364282
0.389144
0.41426
0.439311
0.464047
0.488276
0.511861
0.534709
0.556758
0.577977
0.598352
0.617886
0.63659
0.654482
0.671587
0.687929
0.703536
0.718435
0.732651
0.746208
0.75913
0.771435
0.783134
0.794241
0.80477
0.814734
0.824145
0.833009
0.841334
0.849124
0.856383
0.863115
0.86932
0.875001
0.88016
0.8848
0.888928
0.892556
0.895705
0.898406
0.900706
0.902667
0.904367
0.905898
0.907358
0.908843
0.910429
0.912169
0.914074
0.384827
0.362977
0.342807
0.324151
0.30695
0.291202
0.276926
0.264158
0.252948
0.243368
0.235519
0.229544
0.225631
0.224025
0.225019
0.228933
0.23608
0.246699
0.260888
0.278554
0.299392
0.322913
0.348516
0.37556
0.403435
0.431611
0.459654
0.487232
0.514105
0.540109
0.565141
0.589146
0.612101
0.63401
0.654892
0.674779
0.693709
0.711723
0.728866
0.745181
0.760709
0.775492
0.789568
0.80297
0.815732
0.827883
0.839447
0.850441
0.860882
0.870788
0.880174
0.889055
0.897439
0.905335
0.912748
0.919681
0.926138
0.932119
0.937623
0.942651
0.9472
0.951272
0.954871
0.958009
0.960706
0.962998
0.964936
0.966592
0.968053
0.969423
0.970811
0.972315
0.974012
0.975941
0.978078
0.384645
0.362402
0.341724
0.322578
0.305017
0.289125
0.274992
0.262721
0.252441
0.244324
0.238605
0.23559
0.235666
0.239274
0.246854
0.258749
0.275094
0.295725
0.320163
0.347677
0.3774
0.408461
0.440078
0.471615
0.502589
0.532661
0.56161
0.589308
0.615692
0.640752
0.664508
0.687
0.708285
0.728424
0.747482
0.765524
0.782613
0.798811
0.814174
0.828755
0.842604
0.855766
0.86828
0.880185
0.891512
0.90229
0.912539
0.922278
0.931527
0.940305
0.948624
0.956498
0.963934
0.970938
0.977516
0.98367
0.989399
0.994702
0.999578
1.00402
1.00803
1.0116
1.01474
1.01746
1.01977
1.02172
1.02337
1.02479
1.02609
1.02739
1.02879
1.0304
1.0323
1.03451
1.03697
0.384357
0.361569
0.340275
0.320619
0.302791
0.286976
0.273359
0.262154
0.253634
0.248166
0.246231
0.248416
0.255349
0.267569
0.28534
0.30849
0.336365
0.36793
0.401972
0.437308
0.472928
0.508054
0.542141
0.574839
0.605953
0.635395
0.663155
0.68927
0.71381
0.736859
0.75851
0.77886
0.798001
0.816024
0.833012
0.849044
0.864191
0.878521
0.892092
0.904958
0.917169
0.928769
0.939796
0.950285
0.960266
0.969762
0.978792
0.987377
0.995537
1.00329
1.01064
1.0176
1.02418
1.03038
1.03621
1.04167
1.04675
1.05145
1.05577
1.0597
1.06323
1.06637
1.06911
1.07146
1.07345
1.07512
1.07653
1.07778
1.07898
1.08026
1.08174
1.08353
1.08571
1.08827
1.09111
0.383927
0.360433
0.338442
0.318325
0.300431
0.285075
0.272596
0.263411
0.258075
0.257314
0.261993
0.272966
0.290808
0.315512
0.34633
0.381887
0.420501
0.460537
0.50064
0.539816
0.577419
0.613076
0.646615
0.678001
0.707281
0.734554
0.759947
0.783596
0.805639
0.826209
0.845433
0.863427
0.880299
0.896145
0.911054
0.925105
0.938368
0.950909
0.962782
0.97404
0.984726
0.994882
1.00454
1.01374
1.02249
1.03082
1.03875
1.0463
1.05348
1.06031
1.0668
1.07295
1.07877
1.08426
1.08943
1.09427
1.09878
1.10295
1.10678
1.11026
1.11339
1.11615
1.11854
1.12058
1.12229
1.12373
1.12495
1.12608
1.12723
1.12854
1.13014
1.13217
1.13466
1.13762
1.14089
0.383319
0.358958
0.336244
0.315811
0.298206
0.283951
0.273661
0.268152
0.26849
0.275923
0.291577
0.315958
0.348517
0.38762
0.430987
0.476297
0.521626
0.565614
0.607424
0.646626
0.683068
0.71677
0.747858
0.776507
0.802914
0.82728
0.849796
0.870644
0.889987
0.907975
0.924741
0.940404
0.95507
0.968833
0.981776
0.993972
1.00549
1.01638
1.0267
1.03649
1.0458
1.05465
1.06308
1.07111
1.07876
1.08606
1.09301
1.09964
1.10596
1.11197
1.1177
1.12313
1.12828
1.13315
1.13774
1.14204
1.14605
1.14976
1.15317
1.15626
1.15903
1.16146
1.16356
1.16534
1.16682
1.16806
1.16914
1.17017
1.1713
1.17268
1.17445
1.17673
1.17958
1.18296
1.1867
0.382499
0.357132
0.333739
0.313276
0.296568
0.284508
0.27825
0.279332
0.289537
0.310342
0.342057
0.383258
0.431091
0.482235
0.533801
0.583741
0.630842
0.674526
0.714639
0.751269
0.784637
0.81502
0.842711
0.867994
0.89113
0.912361
0.931899
0.949931
0.966625
0.982125
0.996558
1.01003
1.02265
1.0345
1.04564
1.05615
1.06609
1.0755
1.08442
1.09291
1.10098
1.10867
1.11601
1.123
1.12968
1.13606
1.14216
1.14798
1.15353
1.15884
1.16389
1.1687
1.17327
1.17759
1.18167
1.1855
1.18908
1.19239
1.19544
1.1982
1.20066
1.20281
1.20466
1.20621
1.20749
1.20857
1.20954
1.21051
1.21165
1.21311
1.21506
1.21762
1.22084
1.22467
1.22888
0.381436
0.354959
0.331044
0.311056
0.296297
0.288366
0.28942
0.30201
0.328145
0.367832
0.418385
0.475358
0.534265
0.591732
0.64574
0.695353
0.740336
0.780846
0.817229
0.849905
0.879296
0.905804
0.929787
0.951564
0.971412
0.989572
1.00625
1.02162
1.03584
1.04905
1.06134
1.07283
1.0836
1.09372
1.10325
1.11226
1.12079
1.12888
1.13657
1.14389
1.15087
1.15754
1.16391
1.17
1.17583
1.18141
1.18675
1.19186
1.19675
1.20143
1.2059
1.21017
1.21422
1.21807
1.22171
1.22514
1.22834
1.23131
1.23404
1.23652
1.23872
1.24064
1.24227
1.24363
1.24475
1.2457
1.24657
1.2475
1.24866
1.25022
1.25235
1.25519
1.25878
1.26306
1.26776
0.380108
0.352477
0.328359
0.309741
0.298807
0.2985
0.312469
0.343631
0.391724
0.452364
0.519027
0.585869
0.649089
0.70683
0.75855
0.804426
0.844967
0.880792
0.912518
0.940714
0.965879
0.988444
1.00877
1.02718
1.04392
1.05922
1.07326
1.08621
1.09819
1.10932
1.11971
1.12942
1.13854
1.14713
1.15524
1.16291
1.1702
1.17713
1.18373
1.19004
1.19607
1.20184
1.20736
1.21266
1.21774
1.22261
1.22729
1.23179
1.2361
1.24024
1.2442
1.24799
1.25161
1.25505
1.25831
1.26138
1.26426
1.26694
1.26941
1.27164
1.27362
1.27534
1.27679
1.27799
1.27898
1.27981
1.28061
1.28151
1.28269
1.28435
1.28667
1.28978
1.29372
1.29843
1.30361
0.378499
0.349757
0.326046
0.310415
0.306752
0.320203
0.355304
0.411906
0.483479
0.560703
0.636003
0.705133
0.766519
0.820133
0.866647
0.90697
0.942013