/*--------------------------------*- C++ -*----------------------------------*\
  =========                 |
  \\      /  F ield         | OpenFOAM: The Open Source CFD Toolbox
   \\    /   O peration     | Website:  https://openfoam.org
    \\  /    A nd           | Version:  7
     \\/     M anipulation  |
\*---------------------------------------------------------------------------*/
FoamFile
{
    version     2.0;
    format      ascii;
    class       volScalarField;
    location    "850";
    object      nut;
}
// * * * * * * * * * * * * * * * * * * * * * * * * * * * * * * * * * * * * * //

dimensions      [0 2 -1 0 0 0 0];

internalField   nonuniform List<scalar> 
4500
(
0.000506064
0.000491803
0.000480303
0.000472195
0.000465952
0.000461027
0.000457063
0.00045381
0.000451094
0.000448794
0.000446826
0.000445126
0.000443647
0.000442353
0.000441217
0.000440216
0.000439331
0.000438548
0.000437854
0.000437239
0.000436695
0.000436214
0.00043579
0.000435417
0.000435091
0.000434806
0.000434561
0.000434351
0.000434173
0.000434025
0.000433905
0.00043381
0.000433739
0.00043369
0.000433661
0.000433651
0.000433659
0.000433683
0.000433722
0.000433775
0.000433842
0.000433921
0.000434011
0.000434113
0.000434224
0.000434345
0.000434475
0.000434612
0.000434756
0.000434907
0.000435064
0.000435226
0.000435393
0.000435563
0.000435737
0.000435913
0.000436091
0.00043627
0.000436448
0.000436625
0.000436799
0.000436969
0.000437134
0.000437294
0.000437449
0.0004376
0.000437749
0.000437901
0.000438059
0.00043823
0.00043842
0.000438631
0.000438867
0.000439124
0.000439399
0.000607327
0.000974335
0.00114372
0.00120841
0.00123497
0.00124672
0.00125197
0.00125409
0.00125464
0.00125437
0.00125368
0.00125278
0.00125181
0.00125083
0.00124989
0.001249
0.00124819
0.00124745
0.0012468
0.00124623
0.00124574
0.00124532
0.00124497
0.0012447
0.00124449
0.00124434
0.00124426
0.00124423
0.00124425
0.00124432
0.00124443
0.0012446
0.0012448
0.00124504
0.00124531
0.00124562
0.00124596
0.00124633
0.00124671
0.00124713
0.00124757
0.00124803
0.00124851
0.00124901
0.00124953
0.00125006
0.00125061
0.00125117
0.00125174
0.00125232
0.00125291
0.0012535
0.00125409
0.00125469
0.00125529
0.00125588
0.00125646
0.00125704
0.0012576
0.00125813
0.00125863
0.00125908
0.00125947
0.0012598
0.00126006
0.00126026
0.00126043
0.00126063
0.00126091
0.00126137
0.0012621
0.00126321
0.00126476
0.00126683
0.00126939
0.000713424
0.00121515
0.00157793
0.00177481
0.00188365
0.00194758
0.00198742
0.00201353
0.0020314
0.00204407
0.00205335
0.00206032
0.00206571
0.00206996
0.0020734
0.00207624
0.00207864
0.00208072
0.00208255
0.0020842
0.00208571
0.00208712
0.00208846
0.00208974
0.00209099
0.00209221
0.00209341
0.00209461
0.0020958
0.002097
0.0020982
0.00209941
0.00210063
0.00210186
0.0021031
0.00210435
0.00210561
0.00210687
0.00210813
0.00210941
0.00211069
0.00211198
0.00211327
0.00211458
0.00211588
0.00211719
0.0021185
0.00211981
0.00212111
0.00212241
0.00212369
0.00212496
0.00212622
0.00212746
0.00212868
0.00212987
0.00213103
0.00213214
0.0021332
0.00213418
0.00213505
0.00213578
0.00213635
0.00213674
0.00213695
0.00213702
0.00213703
0.00213712
0.00213747
0.00213834
0.00213999
0.00214268
0.00214665
0.00215204
0.00215878
0.00102124
0.00136022
0.0018715
0.00222328
0.00244808
0.00259473
0.00269401
0.00276382
0.00281468
0.00285291
0.00288244
0.00290581
0.00292469
0.00294025
0.00295329
0.00296439
0.00297397
0.00298236
0.00298979
0.00299644
0.00300247
0.00300798
0.00301307
0.0030178
0.00302224
0.00302642
0.0030304
0.0030342
0.00303785
0.00304136
0.00304477
0.00304807
0.0030513
0.00305444
0.00305753
0.00306055
0.00306352
0.00306643
0.00306929
0.0030721
0.00307486
0.00307759
0.00308029
0.00308295
0.00308557
0.00308816
0.00309071
0.00309322
0.00309569
0.00309811
0.00310049
0.00310281
0.00310508
0.00310729
0.00310944
0.00311151
0.0031135
0.00311539
0.00311715
0.00311874
0.00312011
0.00312119
0.00312195
0.00312236
0.00312241
0.00312219
0.00312187
0.00312172
0.00312212
0.00312355
0.00312655
0.00313164
0.00313923
0.00314961
0.00316263
0.00170708
0.00150447
0.00204415
0.00253669
0.00289421
0.00314704
0.00332847
0.0034619
0.00356263
0.0036406
0.00370233
0.00375222
0.00379326
0.00382758
0.0038567
0.00388174
0.00390351
0.00392266
0.00393966
0.00395491
0.00396869
0.00398124
0.00399275
0.00400339
0.00401327
0.00402251
0.00403119
0.00403938
0.00404715
0.00405454
0.00406161
0.00406838
0.0040749
0.00408118
0.00408725
0.00409313
0.00409884
0.00410437
0.00410974
0.00411496
0.00412005
0.00412501
0.00412986
0.00413459
0.00413921
0.00414373
0.00414814
0.00415245
0.00415664
0.00416072
0.00416469
0.00416854
0.00417227
0.00417587
0.00417934
0.00418266
0.00418583
0.0041888
0.00419153
0.00419396
0.00419599
0.00419756
0.00419856
0.00419896
0.00419877
0.00419814
0.00419735
0.00419687
0.00419733
0.00419953
0.00420436
0.00421266
0.00422512
0.00424216
0.00426355
0.00293021
0.00179432
0.00215557
0.00272719
0.0032116
0.00358299
0.00386409
0.004079
0.0042461
0.00437848
0.00448527
0.00457289
0.00464589
0.00470757
0.00476034
0.00480601
0.00484595
0.0048812
0.0049126
0.00494078
0.00496625
0.00498944
0.00501069
0.00503026
0.00504838
0.00506526
0.00508103
0.00509585
0.00510982
0.00512304
0.00513559
0.00514754
0.00515896
0.00516989
0.00518038
0.00519047
0.0052002
0.00520957
0.00521861
0.00522735
0.0052358
0.00524399
0.00525193
0.00525964
0.00526712
0.00527438
0.00528143
0.00528826
0.00529488
0.00530129
0.00530748
0.00531346
0.00531921
0.00532473
0.00533002
0.00533507
0.00533983
0.00534428
0.00534833
0.0053519
0.00535486
0.00535708
0.00535844
0.00535888
0.00535845
0.00535735
0.00535603
0.00535519
0.0053558
0.00535904
0.00536622
0.0053786
0.00539718
0.00542253
0.00545427
0.00471652
0.00241031
0.00230969
0.00283433
0.00340742
0.00389369
0.00428366
0.0045937
0.00484179
0.00504269
0.00520757
0.00534471
0.00546027
0.00555879
0.00564371
0.00571766
0.00578263
0.00584021
0.00589162
0.00593786
0.00597972
0.00601784
0.00605276
0.0060849
0.00611463
0.00614226
0.00616804
0.00619219
0.00621489
0.00623631
0.00625657
0.00627579
0.00629408
0.00631152
0.00632819
0.00634415
0.00635947
0.00637418
0.00638831
0.00640192
0.00641502
0.00642766
0.00643987
0.00645165
0.00646305
0.00647406
0.0064847
0.00649498
0.0065049
0.00651446
0.00652366
0.0065325
0.00654098
0.0065491
0.00655683
0.00656418
0.00657109
0.0065775
0.00658333
0.00658844
0.00659265
0.0065958
0.00659773
0.00659835
0.00659775
0.00659623
0.00659443
0.00659332
0.00659426
0.00659891
0.00660904
0.00662638
0.00665229
0.00668748
0.00673137
0.00695534
0.00349985
0.00265963
0.00293574
0.00351092
0.00408367
0.00457876
0.00499055
0.00533047
0.0056121
0.00584735
0.00604576
0.00621481
0.00636025
0.00648655
0.00659718
0.00669488
0.0067818
0.00685966
0.00692986
0.00699353
0.00705158
0.00710479
0.00715379
0.0071991
0.00724119
0.00728043
0.00731714
0.0073516
0.00738404
0.00741468
0.00744369
0.00747122
0.00749741
0.00752239
0.00754624
0.00756906
0.00759092
0.00761187
0.00763198
0.0076513
0.00766988
0.00768777
0.00770499
0.00772159
0.00773759
0.007753
0.00776784
0.00778212
0.00779584
0.00780902
0.00782164
0.00783371
0.00784523
0.00785619
0.00786656
0.00787629
0.0078853
0.00789347
0.00790062
0.00790654
0.007911
0.0079138
0.00791486
0.0079143
0.00791255
0.00791044
0.00790928
0.00791087
0.00791736
0.00793108
0.00795425
0.00798857
0.00803493
0.00809242
0.00946494
0.00509827
0.00338174
0.00315982
0.00358556
0.0041774
0.00475296
0.00526158
0.00569759
0.00606845
0.00638432
0.00665477
0.00688795
0.00709051
0.00726779
0.00742409
0.00756284
0.00768683
0.0077983
0.00789909
0.00799071
0.00807441
0.00815122
0.00822202
0.00828754
0.0083484
0.00840513
0.00845819
0.00850797
0.00855481
0.00859899
0.00864076
0.00868037
0.00871799
0.00875379
0.00878793
0.00882054
0.00885173
0.00888156
0.00891015
0.00893757
0.00896389
0.00898917
0.00901346
0.00903683
0.00905929
0.00908089
0.00910165
0.00912158
0.0091407
0.00915902
0.00917654
0.00919326
0.00920919
0.00922431
0.00923859
0.00925196
0.00926434
0.00927556
0.00928541
0.00929362
0.00929991
0.00930405
0.00930596
0.0093058
0.00930413
0.00930205
0.00930121
0.00930386
0.00931269
0.00933062
0.00936035
0.00940397
0.00946248
0.0095346
0.0120503
0.00712193
0.0046001
0.00367976
0.00374451
0.00423199
0.00482945
0.00541081
0.00593604
0.00639799
0.00680078
0.00715173
0.00745842
0.00772772
0.00796548
0.00817659
0.00836512
0.00853441
0.00868723
0.00882588
0.00895227
0.00906798
0.00917438
0.00927259
0.00936358
0.00944817
0.00952706
0.00960086
0.00967009
0.00973522
0.00979663
0.00985468
0.00990967
0.00996186
0.0100115
0.0100588
0.0101039
0.0101469
0.0101881
0.0102275
0.0102653
0.0103015
0.0103362
0.0103695
0.0104015
0.0104322
0.0104617
0.01049
0.0105172
0.0105432
0.010568
0.0105918
0.0106145
0.010636
0.0106564
0.0106757
0.0106937
0.0107104
0.0107256
0.0107389
0.0107502
0.010759
0.0107651
0.0107684
0.0107692
0.0107681
0.0107666
0.0107665
0.0107707
0.0107824
0.0108051
0.0108419
0.0108954
0.0109667
0.0110539
0.0145382
0.00942111
0.00631631
0.00465971
0.00415424
0.00435399
0.00486444
0.00546284
0.00605162
0.00659513
0.00708406
0.00751953
0.00790638
0.0082504
0.0085572
0.00883188
0.00907883
0.00930184
0.0095041
0.00968833
0.00985683
0.0100115
0.0101541
0.010286
0.0104083
0.0105222
0.0106285
0.010728
0.0108215
0.0109094
0.0109923
0.0110706
0.0111449
0.0112153
0.0112822
0.0113459
0.0114067
0.0114647
0.0115201
0.0115731
0.0116238
0.0116724
0.011719
0.0117637
0.0118065
0.0118476
0.011887
0.0119248
0.011961
0.0119956
0.0120288
0.0120604
0.0120905
0.0121191
0.0121462
0.0121718
0.0121957
0.0122179
0.012238
0.0122559
0.0122711
0.0122833
0.0122922
0.0122977
0.0123002
0.0123004
0.0122999
0.0123013
0.0123076
0.0123226
0.0123504
0.0123948
0.0124584
0.0125424
0.0126448
0.0167964
0.0118301
0.00841662
0.00616647
0.00499572
0.00470745
0.00496497
0.00547746
0.00607302
0.00666908
0.00723109
0.00774722
0.00821571
0.00863906
0.00902134
0.00936699
0.00968026
0.00996504
0.0102248
0.0104624
0.0106807
0.0108817
0.0110675
0.0112398
0.0113999
0.0115493
0.0116889
0.0118197
0.0119427
0.0120584
0.0121676
0.0122709
0.0123688
0.0124616
0.0125499
0.0126339
0.0127139
0.0127904
0.0128634
0.0129332
0.013
0.0130639
0.0131252
0.0131839
0.0132402
0.0132941
0.0133458
0.0133954
0.0134429
0.0134883
0.0135316
0.013573
0.0136124
0.0136498
0.0136853
0.0137187
0.01375
0.013779
0.0138055
0.0138291
0.0138494
0.0138661
0.0138789
0.0138875
0.0138925
0.0138949
0.0138964
0.0138998
0.0139088
0.0139276
0.0139608
0.0140127
0.0140863
0.0141828
0.0142997
0.0187409
0.0141959
0.0107323
0.00812806
0.00637517
0.00548226
0.0052985
0.00556839
0.00606791
0.00665555
0.00725658
0.00783569
0.00837814
0.00887927
0.00933926
0.00976046
0.0101461
0.0104994
0.0108239
0.0111225
0.011398
0.0116528
0.0118892
0.0121089
0.0123137
0.0125051
0.0126843
0.0128526
0.0130109
0.0131602
0.0133011
0.0134345
0.0135609
0.0136809
0.013795
0.0139037
0.0140073
0.0141061
0.0142006
0.0142909
0.0143773
0.01446
0.0145392
0.0146151
0.0146879
0.0147576
0.0148245
0.0148885
0.0149497
0.0150084
0.0150643
0.0151177
0.0151686
0.0152168
0.0152626
0.0153057
0.0153461
0.0153836
0.015418
0.0154488
0.0154757
0.0154982
0.015516
0.0155291
0.0155378
0.0155434
0.0155478
0.015554
0.0155663
0.0155893
0.0156281
0.0156873
0.0157704
0.0158787
0.016009
0.0203353
0.0163925
0.0130921
0.0103772
0.00825299
0.00680513
0.00606205
0.00591225
0.00616261
0.00663481
0.00720686
0.00780792
0.00840069
0.00896709
0.00949942
0.00999542
0.0104556
0.0108818
0.0112765
0.0116424
0.0119818
0.0122974
0.0125913
0.0128656
0.013122
0.0133623
0.0135879
0.0138001
0.0140001
0.0141889
0.0143674
0.0145366
0.014697
0.0148495
0.0149946
0.0151328
0.0152646
0.0153904
0.0155107
0.0156258
0.0157358
0.0158412
0.0159422
0.0160389
0.0161316
0.0162205
0.0163056
0.0163872
0.0164653
0.01654
0.0166113
0.0166793
0.0167441
0.0168056
0.0168639
0.0169189
0.0169705
0.0170185
0.0170626
0.0171024
0.0171376
0.0171675
0.017192
0.0172109
0.0172247
0.0172347
0.017243
0.0172532
0.0172694
0.0172969
0.0173412
0.0174074
0.0174992
0.0176181
0.0177606
0.0215825
0.0183294
0.0153493
0.0127226
0.0104644
0.0086521
0.0073891
0.00671235
0.00654767
0.00675168
0.00718034
0.00772556
0.00831836
0.00891864
0.00950458
0.0100651
0.0105953
0.0110936
0.0115604
0.0119971
0.0124054
0.0127874
0.0131451
0.0134804
0.0137951
0.014091
0.0143697
0.0146324
0.0148806
0.0151154
0.0153378
0.0155488
0.0157492
0.0159399
0.0161214
0.0162946
0.0164598
0.0166177
0.0167687
0.0169132
0.0170515
0.0171839
0.0173109
0.0174326
0.0175492
0.017661
0.0177682
0.0178709
0.0179692
0.0180632
0.0181531
0.0182388
0.0183204
0.018398
0.0184715
0.0185409
0.0186061
0.0186668
0.0187228
0.0187738
0.0188191
0.0188584
0.0188913
0.0189177
0.0189383
0.0189542
0.0189679
0.0189829
0.0190038
0.0190362
0.019086
0.0191587
0.0192583
0.0193864
0.0195394
0.0225141
0.0199544
0.0173928
0.0149958
0.0127993
0.010854
0.00925304
0.00809649
0.00743
0.00721364
0.00734589
0.00771147
0.00821417
0.00878619
0.00938426
0.00998242
0.0105658
0.0111265
0.0116607
0.0121669
0.0126453
0.0130966
0.0135221
0.0139234
0.0143021
0.0146596
0.0149974
0.0153171
0.0156199
0.0159071
0.0161797
0.0164388
0.0166854
0.0169203
0.0171444
0.0173582
0.0175626
0.017758
0.017945
0.0181241
0.0182957
0.0184602
0.0186178
0.018769
0.018914
0.0190531
0.0191865
0.0193143
0.0194367
0.0195538
0.0196658
0.0197726
0.0198744
0.0199712
0.020063
0.0201497
0.0202313
0.0203075
0.020378
0.0204424
0.0205003
0.0205511
0.0205946
0.0206306
0.0206598
0.0206834
0.020704
0.0207251
0.0207517
0.0207895
0.0208447
0.0209233
0.0210295
0.0211654
0.0213272
0.0231786
0.0212515
0.0191504
0.0170697
0.0150687
0.0131822
0.011469
0.0100167
0.00891707
0.0082239
0.00792738
0.00796293
0.00824224
0.00868153
0.00921499
0.00979641
0.0103955
0.0109932
0.0115781
0.0121436
0.0126863
0.0132046
0.0136982
0.0141674
0.0146131
0.0150364
0.0154384
0.0158204
0.0161835
0.0165289
0.0168579
0.0171713
0.0174702
0.0177555
0.0180281
0.0182887
0.018538
0.0187768
0.0190055
0.0192248
0.0194351
0.0196369
0.0198305
0.0200163
0.0201946
0.0203657
0.0205298
0.0206872
0.0208381
0.0209825
0.0211206
0.0212525
0.0213783
0.0214979
0.0216114
0.0217188
0.0218199
0.0219145
0.0220024
0.0220831
0.0221562
0.0222211
0.0222776
0.0223256
0.0223656
0.022399
0.0224283
0.0224571
0.0224904
0.0225342
0.0225951
0.022679
0.0227908
0.0229329
0.0231017
0.0236309
0.0222362
0.0205882
0.0188628
0.0171328
0.0154307
0.0137891
0.0122607
0.0109209
0.00985089
0.00911003
0.00871324
0.00862895
0.00879609
0.00914584
0.0096168
0.0101611
0.0107443
0.0113431
0.011942
0.0125313
0.0131048
0.0136592
0.0141925
0.014704
0.0151937
0.0156619
0.0161093
0.0165367
0.0169451
0.0173354
0.0177085
0.0180653
0.0184068
0.0187338
0.0190471
0.0193474
0.0196353
0.0199117
0.0201769
0.0204317
0.0206763
0.0209114
0.0211371
0.021354
0.0215622
0.0217622
0.0219541
0.0221382
0.0223145
0.0224832
0.0226445
0.0227984
0.0229448
0.023084
0.0232157
0.0233399
0.0234565
0.023565
0.0236652
0.0237565
0.0238385
0.0239109
0.0239735
0.0240269
0.0240725
0.0241126
0.0241509
0.0241924
0.0242433
0.02431
0.0243991
0.0245156
0.0246625
0.0248366
0.0239241
0.0229458
0.0217059
0.0203354
0.0189062
0.0174526
0.0159956
0.0145615
0.0131926
0.0119492
0.0109003
0.0101063
0.0095999
0.00937813
0.00940743
0.00963764
0.0100159
0.0104955
0.0110393
0.0116196
0.0122168
0.0128173
0.0134122
0.0139954
0.0145632
0.0151133
0.0156445
0.0161563
0.0166487
0.0171218
0.0175763
0.0180127
0.0184318
0.0188341
0.0192205
0.0195917
0.0199484
0.0202912
0.0206208
0.0209377
0.0212425
0.0215358
0.0218179
0.0220892
0.0223501
0.022601
0.0228421
0.0230737
0.023296
0.0235092
0.0237134
0.0239087
0.0240952
0.024273
0.024442
0.0246022
0.0247535
0.0248958
0.0250287
0.0251519
0.0252649
0.0253672
0.0254586
0.025539
0.0256088
0.0256693
0.0257228
0.0257729
0.0258245
0.0258837
0.0259571
0.0260514
0.0261722
0.0263228
0.0265008
0.0241048
0.0234303
0.0225301
0.0214842
0.0203512
0.0191647
0.0179427
0.0166986
0.0154511
0.0142309
0.0130828
0.0120624
0.0112256
0.0106148
0.010249
0.0101206
0.0102015
0.0104527
0.0108329
0.0113054
0.0118395
0.0124118
0.0130047
0.0136056
0.0142055
0.0147983
0.0153798
0.0159471
0.0164986
0.0170333
0.0175506
0.0180505
0.0185331
0.0189987
0.0194476
0.0198805
0.0202977
0.0206999
0.0210876
0.0214612
0.0218214
0.0221685
0.022503
0.0228254
0.0231358
0.0234347
0.0237223
0.0239989
0.0242648
0.02452
0.0247647
0.0249991
0.0252231
0.0254368
0.0256403
0.0258335
0.0260162
0.0261884
0.0263497
0.0264998
0.0266383
0.0267647
0.0268788
0.0269804
0.02707
0.0271487
0.0272187
0.0272833
0.0273474
0.0274168
0.0274983
0.0275986
0.0277236
0.0278773
0.0280582
0.0242104
0.023743
0.0231051
0.0223339
0.0214686
0.0205374
0.0195569
0.0185366
0.0174843
0.0164115
0.0153381
0.0142947
0.0133225
0.0124679
0.011775
0.0112758
0.0109838
0.0108936
0.0109844
0.0112267
0.0115885
0.0120397
0.0125545
0.0131118
0.0136953
0.0142927
0.0148948
0.015495
0.0160885
0.0166719
0.0172429
0.0177999
0.018342
0.0188687
0.0193795
0.0198746
0.020354
0.0208179
0.0212667
0.0217007
0.0221201
0.0225254
0.0229169
0.023295
0.0236599
0.0240119
0.0243511
0.0246779
0.0249924
0.0252948
0.0255851
0.0258635
0.02613
0.0263846
0.0266274
0.0268581
0.0270769
0.0272834
0.0274775
0.0276589
0.0278271
0.0279818
0.0281226
0.0282495
0.0283627
0.0284634
0.0285534
0.0286361
0.0287157
0.0287981
0.0288897
0.0289975
0.0291276
0.0292846
0.0294681
0.0242687
0.0239331
0.0234832
0.022928
0.0222874
0.0215809
0.0208224
0.0200202
0.0191788
0.0183021
0.0173958
0.0164709
0.015546
0.0146483
0.0138124
0.0130761
0.012475
0.0120354
0.0117707
0.0116797
0.0117493
0.0119586
0.012283
0.0126979
0.013181
0.0137132
0.014279
0.0148659
0.0154643
0.0160671
0.0166686
0.0172647
0.0178524
0.0184297
0.0189948
0.0195468
0.0200849
0.0206088
0.0211181
0.0216128
0.0220929
0.0225585
0.0230097
0.0234467
0.0238697
0.0242786
0.0246737
0.0250551
0.0254228
0.025777
0.0261176
0.0264449
0.0267586
0.0270589
0.0273457
0.0276189
0.0278784
0.028124
0.0283556
0.0285728
0.0287754
0.0289629
0.029135
0.0292917
0.0294331
0.0295603
0.0296748
0.0297797
0.029879
0.029978
0.030083
0.0302008
0.030338
0.0304996
0.0306865
0.0242989
0.0240415
0.0237167
0.023319
0.0228541
0.0223318
0.0217619
0.0211513
0.0205038
0.0198214
0.019105
0.0183565
0.0175807
0.0167867
0.0159902
0.015213
0.0144829
0.0138304
0.013285
0.0128702
0.0126008
0.0124808
0.0125047
0.0126592
0.0129266
0.0132877
0.0137233
0.0142163
0.0147516
0.0153169
0.015902
0.0164988
0.0171009
0.0177035
0.0183026
0.0188954
0.0194797
0.0200537
0.0206163
0.0211666
0.0217038
0.0222276
0.0227376
0.0232335
0.0237154
0.0241829
0.0246361
0.0250748
0.0254989
0.0259083
0.0263031
0.0266832
0.0270484
0.0273987
0.0277341
0.0280543
0.0283592
0.0286488
0.0289227
0.0291808
0.0294227
0.0296482
0.0298568
0.0300486
0.0302236
0.0303826
0.0305271
0.0306596
0.0307837
0.0309043
0.0310274
0.0311595
0.0313072
0.0314762
0.0316686
0.0243137
0.0240994
0.0238516
0.0235602
0.0232227
0.0228417
0.0224217
0.0219673
0.021482
0.0209674
0.020424
0.0198512
0.0192489
0.0186176
0.0179607
0.017285
0.0166018
0.0159277
0.0152838
0.0146943
0.0141835
0.0137732
0.0134797
0.0133118
0.0132708
0.0133509
0.0135415
0.0138287
0.0141972
0.014632
0.0151192
0.0156466
0.0162035
0.0167812
0.0173722
0.0179709
0.0185723
0.0191727
0.0197691
0.0203591
0.0209409
0.0215128
0.0220738
0.022623
0.0231596
0.0236829
0.0241925
0.024688
0.0251689
0.0256349
0.0260856
0.0265209
0.0269405
0.0273442
0.0277319
0.0281032
0.0284581
0.0287964
0.0291178
0.029422
0.0297089
0.0299782
0.0302294
0.0304626
0.0306776
0.0308752
0.0310565
0.0312234
0.0313793
0.0315284
0.0316761
0.0318287
0.0319926
0.0321738
0.0323758
0.0243203
0.0241281
0.0239241
0.023699
0.0234471
0.0231665
0.022858
0.0225234
0.0221648
0.0217837
0.0213807
0.0209556
0.0205075
0.0200352
0.0195375
0.0190143
0.0184671
0.0179
0.0173205
0.0167398
0.016173
0.0156382
0.0151549
0.0147427
0.0144182
0.0141938
0.0140765
0.0140677
0.0141634
0.0143559
0.0146348
0.0149883
0.0154045
0.0158718
0.0163798
0.0169191
0.0174816
0.0180606
0.0186502
0.0192456
0.019843
0.0204391
0.0210312
0.021617
0.0221949
0.0227633
0.0233209
0.0238666
0.0243996
0.0249189
0.0254238
0.0259138
0.0263883
0.0268469
0.0272893
0.027715
0.0281238
0.0285155
0.0288896
0.029246
0.0295843
0.0299042
0.0302054
0.0304877
0.030751
0.0309957
0.0312225
0.0314331
0.0316299
0.0318168
0.0319983
0.0321802
0.0323686
0.0325698
0.0327879
0.0243232
0.0241413
0.0239602
0.0237729
0.0235739
0.0233596
0.0231282
0.0228796
0.0226142
0.0223328
0.0220359
0.0217237
0.0213958
0.0210513
0.020689
0.0203073
0.0199048
0.0194805
0.0190346
0.0185687
0.018087
0.0175959
0.0171052
0.0166273
0.0161768
0.0157695
0.0154209
0.0151448
0.014952
0.0148493
0.0148393
0.0149208
0.015089
0.0153369
0.0156558
0.0160361
0.0164686
0.016944
0.017454
0.0179911
0.0185486
0.0191208
0.0197028
0.0202903
0.0208798
0.0214682
0.022053
0.022632
0.0232032
0.0237651
0.0243161
0.0248551
0.0253809
0.0258927
0.0263899
0.0268717
0.0273376
0.0277871
0.0282197
0.0286349
0.0290323
0.0294115
0.029772
0.0301134
0.0304355
0.0307382
0.0310221
0.0312881
0.0315381
0.031775
0.0320026
0.0322258
0.0324503
0.0326822
0.0329262
0.0243243
0.0241468
0.0239767
0.0238093
0.0236402
0.0234659
0.0232838
0.0230926
0.0228914
0.0226801
0.0224587
0.0222274
0.021986
0.0217344
0.0214717
0.0211972
0.0209094
0.020607
0.0202885
0.0199526
0.0195985
0.0192262
0.0188373
0.0184347
0.0180237
0.0176116
0.0172079
0.016824
0.0164722
0.0161651
0.0159144
0.0157302
0.0156198
0.0155875
0.0156346
0.0157596
0.0159585
0.0162258
0.0165544
0.016937
0.017366
0.0178339
0.0183339
0.0188596
0.0194053
0.0199659
0.0205369
0.0211144
0.0216951
0.0222758
0.0228541
0.0234277
0.0239943
0.0245525
0.0251008
0.0256379
0.0261626
0.026674
0.027171
0.0276528
0.0281185
0.0285674
0.0289986
0.0294115
0.0298054
0.0301798
0.0305347
0.0308704
0.031188
0.0314896
0.0317779
0.0320569
0.0323315
0.0326073
0.0328891
0.0243246
0.024149
0.0239836
0.0238256
0.0236718
0.0235195
0.0233663
0.0232101
0.0230498
0.0228845
0.0227135
0.0225367
0.0223538
0.0221647
0.0219692
0.0217669
0.0215573
0.0213397
0.021113
0.0208762
0.0206281
0.0203674
0.020093
0.0198044
0.0195013
0.0191846
0.0188565
0.0185202
0.018181
0.0178456
0.0175221
0.0172198
0.0169488
0.0167189
0.0165391
0.016417
0.0163585
0.016367
0.0164439
0.0165884
0.0167979
0.0170683
0.0173946
0.017771
0.0181917
0.0186507
0.0191422
0.0196607
0.0202013
0.0207593
0.0213305
0.021911
0.0224973
0.0230863
0.0236752
0.0242615
0.0248428
0.0254171
0.0259824
0.0265369
0.0270788
0.0276066
0.0281188
0.0286141
0.0290911
0.0295489
0.0299867
0.0304041
0.0308014
0.0311795
0.0315403
0.0318868
0.0322227
0.032553
0.0328821
0.0243248
0.0241497
0.0239862
0.0238322
0.0236855
0.023544
0.0234057
0.0232688
0.0231318
0.0229936
0.0228531
0.0227097
0.0225629
0.0224126
0.0222584
0.0221002
0.0219379
0.0217713
0.0216001
0.021424
0.0212425
0.0210549
0.0208606
0.0206585
0.0204481
0.0202285
0.0199992
0.0197601
0.0195117
0.0192553
0.018993
0.0187282
0.0184655
0.0182106
0.01797
0.0177515
0.0175626
0.0174112
0.0173045
0.0172486
0.0172484
0.0173073
0.0174269
0.0176075
0.0178476
0.0181448
0.0184956
0.0188957
0.0193405
0.0198248
0.0203437
0.0208919
0.0214643
0.022056
0.0226624
0.0232789
0.0239016
0.0245264
0.0251498
0.0257686
0.0263795
0.0269799
0.0275672
0.0281393
0.0286939
0.0292294
0.0297444
0.0302378
0.030709
0.0311583
0.0315865
0.0319957
0.0323888
0.0327699
0.0331428
0.0243248
0.0241499
0.023987
0.0238344
0.0236903
0.0235531
0.0234211
0.0232926
0.0231662
0.0230406
0.0229147
0.0227876
0.0226587
0.0225274
0.0223935
0.0222568
0.0221174
0.0219751
0.0218302
0.0216826
0.0215323
0.0213794
0.0212236
0.0210647
0.0209024
0.0207364
0.0205661
0.0203912
0.0202114
0.0200265
0.0198369
0.0196433
0.019447
0.0192503
0.0190561
0.0188685
0.0186921
0.0185325
0.0183958
0.0182885
0.0182169
0.0181872
0.0182048
0.0182742
0.0183987
0.0185805
0.0188201
0.0191169
0.019469
0.0198734
0.0203259
0.0208218
0.0213559
0.0219225
0.0225157
0.0231299
0.0237595
0.0243992
0.0250441
0.0256895
0.0263313
0.0269658
0.0275897
0.0281999
0.0287938
0.0293691
0.029924
0.0304569
0.0309668
0.0314535
0.0319174
0.0323597
0.0327828
0.0331903
0.0335858
0.0243248
0.0241499
0.023987
0.0238344
0.0236903
0.0235531
0.0234211
0.0232926
0.0231662
0.0230406
0.0229147
0.0227876
0.0226587
0.0225274
0.0223935
0.0222568
0.0221174
0.0219751
0.0218302
0.0216826
0.0215323
0.0213794
0.0212236
0.0210647
0.0209025
0.0207364
0.0205662
0.0203913
0.0202114
0.0200266
0.019837
0.0196433
0.0194471
0.0192504
0.0190562
0.0188686
0.0186922
0.0185326
0.0183959
0.0182886
0.018217
0.0181873
0.0182049
0.0182743
0.0183989
0.0185806
0.0188202
0.019117
0.0194691
0.0198734
0.0203259
0.0208219
0.021356
0.0219226
0.0225158
0.02313
0.0237596
0.0243993
0.0250441
0.0256896
0.0263314
0.0269659
0.0275897
0.0281999
0.0287937
0.0293689
0.0299235
0.0304562
0.0309659
0.0314524
0.0319161
0.0323586
0.0327822
0.0331908
0.033588
0.0243248
0.0241497
0.0239862
0.0238322
0.0236855
0.023544
0.0234057
0.0232688
0.0231318
0.0229936
0.0228531
0.0227097
0.022563
0.0224127
0.0222585
0.0221003
0.021938
0.0217714
0.0216003
0.0214242
0.0212427
0.0210552
0.0208608
0.0206588
0.0204484
0.0202289
0.0199996
0.0197606
0.0195122
0.0192558
0.0189936
0.0187289
0.0184662
0.0182112
0.0179708
0.0177522
0.0175633
0.0174119
0.0173051
0.0172491
0.0172489
0.0173076
0.0174272
0.0176077
0.0178477
0.0181449
0.0184956
0.0188956
0.0193403
0.0198246
0.0203435
0.0208916
0.0214641
0.0220558
0.0226621
0.0232787
0.0239013
0.0245262
0.0251497
0.0257684
0.0263794
0.0269798
0.0275671
0.028139
0.0286934
0.0292286
0.0297431
0.0302359
0.0307066
0.0311555
0.0315837
0.0319935
0.0323883
0.0327724
0.0331503
0.0243246
0.024149
0.0239836
0.0238256
0.0236719
0.0235196
0.0233663
0.0232102
0.0230499
0.0228846
0.0227136
0.0225368
0.022354
0.0221649
0.0219695
0.0217672
0.0215577
0.0213401
0.0211135
0.0208768
0.0206287
0.0203681
0.0200938
0.0198052
0.0195022
0.0191857
0.0188576
0.0185214
0.0181822
0.0178468
0.0175233
0.0172211
0.0169501
0.01672
0.0165401
0.0164179
0.0163592
0.0163675
0.0164442
0.0165886
0.0167978
0.0170681
0.0173942
0.0177705
0.018191
0.0186499
0.0191413
0.0196598
0.0202003
0.0207582
0.0213294
0.0219099
0.0224962
0.0230852
0.0236741
0.0242604
0.0248418
0.0254162
0.0259815
0.0265361
0.027078
0.0276058
0.028118
0.0286131
0.0290899
0.0295472
0.0299844
0.0304012
0.0307979
0.0311757
0.0315369
0.0318847
0.0322235
0.0325588
0.0328954
0.0243243
0.0241468
0.0239767
0.0238093
0.0236402
0.0234659
0.0232839
0.0230927
0.0228916
0.0226803
0.022459
0.0222278
0.0219865
0.0217349
0.0214724
0.0211979
0.0209102
0.020608
0.0202896
0.0199538
0.0195998
0.0192277
0.0188389
0.0184364
0.0180255
0.0176135
0.0172098
0.0168258
0.016474
0.0161667
0.0159159
0.0157315
0.0156208
0.0155882
0.015635
0.0157597
0.0159584
0.0162254
0.0165537
0.0169361
0.0173649
0.0178327
0.0183326
0.0188582
0.0194038
0.0199643
0.0205352
0.0211127
0.0216933
0.0222741
0.0228524
0.023426
0.0239927
0.0245509
0.0250992
0.0256364
0.0261612
0.0266726
0.0271697
0.0276516
0.0281174
0.0285662
0.0289974
0.02941
0.0298035
0.0301774
0.0305317
0.0308668
0.0311839
0.0314854
0.0317745
0.0320556
0.0323342
0.0326165
0.0329076
0.0243232
0.0241413
0.0239602
0.023773
0.023574
0.0233598
0.0231285
0.02288
0.0226147
0.0223334
0.0220366
0.0217245
0.0213967
0.0210524
0.0206903
0.0203087
0.0199064
0.0194823
0.0190365
0.0185709
0.0180893
0.0175983
0.0171077
0.0166298
0.0161793
0.0157719
0.0154231
0.0151467
0.0149536
0.0148505
0.0148401
0.0149212
0.0150891
0.0153366
0.0156551
0.0160352
0.0164674
0.0169426
0.0174524
0.0179894
0.0185468
0.0191189
0.0197008
0.0202883
0.0208778
0.0214662
0.022051
0.02263
0.0232013
0.0237632
0.0243143
0.0248533
0.0253791
0.0258911
0.0263883
0.0268702
0.0273362
0.0277857
0.0282184
0.0286337
0.0290311
0.0294103
0.0297707
0.0301118
0.0304335
0.0307357
0.0310189
0.0312842
0.0315338
0.0317708
0.0319996
0.0322257
0.0324551
0.0326947
0.0329494
0.0243204
0.0241281
0.0239242
0.0236991
0.0234473
0.0231669
0.0228585
0.0225241
0.0221657
0.0217847
0.0213819
0.0209571
0.0205092
0.020037
0.0195396
0.0190166
0.0184697
0.0179029
0.0173235
0.016743
0.0161762
0.0156413
0.0151579
0.0147454
0.0144205
0.0141957
0.014078
0.0140686
0.0141639
0.0143559
0.0146344
0.0149875
0.0154034
0.0158705
0.0163783
0.0169174
0.0174798
0.0180586
0.0186482
0.0192436
0.019841
0.020437
0.0210291
0.021615
0.022193
0.0227614
0.023319
0.0238648
0.0243979
0.0249173
0.0254223
0.0259123
0.0263869
0.0268456
0.0272881
0.0277139
0.0281228
0.0285145
0.0288888
0.0292452
0.0295835
0.0299034
0.0302044
0.0304864
0.0307492
0.0309932
0.0312193
0.0314292
0.0316258
0.031813
0.0319961
0.0321814
0.0323756
0.0325854
0.0328154
0.0243137
0.0240994
0.0238518
0.0235606
0.0232232
0.0228424
0.0224226
0.0219685
0.0214835
0.0209692
0.020426
0.0198536
0.0192515
0.0186206
0.017964
0.0172885
0.0166055
0.0159315
0.0152876
0.0146979
0.0141868
0.0137762
0.0134821
0.0133136
0.013272
0.0133516
0.0135417
0.0138283
0.0141964
0.0146309
0.0151179
0.015645
0.0162018
0.0167793
0.0173703
0.0179689
0.0185703
0.0191707
0.0197672
0.0203572
0.020939
0.021511
0.0220721
0.0226214
0.023158
0.0236814
0.0241912
0.0246867
0.0251677
0.0256338
0.0260846
0.02652
0.0269397
0.0273435
0.0277313
0.0281027
0.0284577
0.0287961
0.0291176
0.0294219
0.0297089
0.029978
0.030229
0.0304618
0.0306763
0.0308731
0.0310536
0.0312199
0.0313755
0.0315251
0.0316748
0.0318313
0.0320017
0.0321926
0.0324074
0.024299
0.0240417
0.0237171
0.0233196
0.022855
0.0223331
0.0217635
0.0211532
0.0205061
0.0198241
0.0191081
0.01836
0.0175845
0.0167909
0.0159945
0.0152174
0.0144873
0.0138346
0.0132887
0.0128734
0.0126033
0.0124826
0.0125058
0.0126596
0.0129265
0.0132871
0.0137223
0.014215
0.0147501
0.0153152
0.0159002
0.0164969
0.0170991
0.0177016
0.0183008
0.0188937
0.019478
0.0200521
0.0206148
0.0211651
0.0217025
0.0222263
0.0227364
0.0232325
0.0237145
0.0241821
0.0246354
0.0250742
0.0254984
0.025908
0.0263029
0.0266831
0.0270484
0.0273988
0.0277343
0.0280546
0.0283596
0.0286493
0.0289233
0.0291815
0.0294234
0.0296488
0.0298572
0.0300485
0.0302228
0.030381
0.0305246
0.0306564
0.0307803
0.0309016
0.031027
0.0311635
0.0313184
0.0314979
0.0317041
0.0242687
0.0239334
0.0234838
0.022929
0.0222889
0.0215829
0.0208248
0.0200231
0.0191822
0.018306
0.0174001
0.0164756
0.015551
0.0146534
0.0138173
0.0130808
0.0124791
0.0120388
0.0117733
0.0116814
0.0117503
0.0119589
0.0122827