/*--------------------------------*- C++ -*----------------------------------*\
  =========                 |
  \\      /  F ield         | OpenFOAM: The Open Source CFD Toolbox
   \\    /   O peration     | Website:  https://openfoam.org
    \\  /    A nd           | Version:  7
     \\/     M anipulation  |
\*---------------------------------------------------------------------------*/
FoamFile
{
    version     2.0;
    format      ascii;
    class       volScalarField;
    location    "850";
    object      p;
}
// * * * * * * * * * * * * * * * * * * * * * * * * * * * * * * * * * * * * * //

dimensions      [0 2 -2 0 0 0 0];

internalField   nonuniform List<scalar> 
4500
(
65.8062
62.7944
61.6346
60.5004
59.3724
58.2875
57.2364
56.2095
55.2033
54.215
53.2423
52.2834
51.3367
50.401
49.4753
48.5588
47.6507
46.7504
45.8573
44.9709
44.0908
43.2165
42.3478
41.4843
40.6256
39.7716
38.922
38.0766
37.2351
36.3973
35.5632
34.7324
33.9049
33.0805
32.259
31.4403
30.6243
29.8108
28.9997
28.191
27.3844
26.5799
25.7773
24.9766
24.1775
23.3801
22.5842
21.7896
20.9962
20.204
19.4127
18.6223
17.8327
17.0436
16.2551
15.4668
14.6788
13.891
13.1031
12.3151
11.5269
10.7384
9.94967
9.16052
8.37093
7.58084
6.79015
5.99868
5.20625
4.41251
3.6171
2.81948
2.01907
1.21543
0.409359
65.4194
62.7662
61.6335
60.5009
59.3728
58.2878
57.2366
56.2097
55.2034
54.2152
53.2424
52.2835
51.3367
50.401
49.4754
48.5589
47.6508
46.7505
45.8574
44.971
44.0908
43.2166
42.3478
41.4843
40.6256
39.7716
38.922
38.0766
37.2351
36.3973
35.5632
34.7324
33.9049
33.0805
32.259
31.4403
30.6243
29.8108
28.9997
28.191
27.3844
26.5799
25.7773
24.9766
24.1775
23.3801
22.5841
21.7896
20.9962
20.204
19.4127
18.6223
17.8327
17.0436
16.255
15.4668
14.6788
13.8909
13.1031
12.3151
11.5269
10.7384
9.94966
9.16051
8.37093
7.58083
6.79014
5.99867
5.20624
4.4125
3.61709
2.81947
2.01907
1.21543
0.409356
65.3319
62.7731
61.6356
60.5019
59.3735
58.2883
57.237
56.21
55.2037
54.2154
53.2426
52.2836
51.3369
50.4012
49.4755
48.559
47.6509
46.7505
45.8574
44.971
44.0909
43.2166
42.3479
41.4843
40.6257
39.7717
38.9221
38.0766
37.2351
36.3974
35.5632
34.7324
33.9049
33.0805
32.259
31.4403
30.6243
29.8108
28.9997
28.191
27.3844
26.5799
25.7773
24.9766
24.1775
23.3801
22.5841
21.7895
20.9962
20.2039
19.4127
18.6223
17.8326
17.0436
16.255
15.4668
14.6788
13.8909
13.103
12.315
11.5269
10.7384
9.94965
9.1605
8.37091
7.58082
6.79013
5.99866
5.20623
4.41248
3.61708
2.81946
2.01906
1.21542
0.409352
65.3316
62.7813
61.6374
60.503
59.3743
58.2889
57.2375
56.2104
55.204
54.2156
53.2428
52.2838
51.337
50.4013
49.4756
48.5591
47.651
46.7506
45.8575
44.9711
44.0909
43.2167
42.3479
41.4844
40.6257
39.7717
38.9221
38.0766
37.2351
36.3974
35.5632
34.7324
33.9049
33.0805
32.259
31.4403
30.6243
29.8108
28.9997
28.191
27.3844
26.5799
25.7773
24.9766
24.1775
23.3801
22.5841
21.7895
20.9962
20.2039
19.4127
18.6223
17.8326
17.0436
16.255
15.4668
14.6788
13.8909
13.103
12.315
11.5268
10.7384
9.94963
9.16048
8.3709
7.5808
6.79011
5.99864
5.20621
4.41247
3.61706
2.81945
2.01905
1.21542
0.409349
65.3277
62.7845
61.6386
60.5042
59.3751
58.2895
57.238
56.2108
55.2043
54.2159
53.2431
52.284
51.3372
50.4015
49.4757
48.5592
47.6511
46.7507
45.8576
44.9712
44.091
43.2167
42.348
41.4844
40.6258
39.7717
38.9221
38.0767
37.2352
36.3974
35.5632
34.7325
33.9049
33.0805
32.259
31.4403
30.6243
29.8108
28.9997
28.191
27.3844
26.5799
25.7773
24.9765
24.1775
23.3801
22.5841
21.7895
20.9962
20.2039
19.4127
18.6223
17.8326
17.0436
16.255
15.4668
14.6788
13.8909
13.103
12.315
11.5268
10.7384
9.94962
9.16046
8.37088
7.58078
6.7901
5.99863
5.2062
4.41246
3.61705
2.81944
2.01905
1.21542
0.409347
65.3175
62.7868
61.6396
60.5052
59.376
58.2903
57.2386
56.2113
55.2047
54.2163
53.2434
52.2843
51.3374
50.4017
49.4759
48.5593
47.6512
46.7508
45.8577
44.9713
44.0911
43.2168
42.348
41.4845
40.6258
39.7718
38.9222
38.0767
37.2352
36.3974
35.5633
34.7325
33.905
33.0805
32.259
31.4403
30.6243
29.8108
28.9997
28.191
27.3844
26.5799
25.7773
24.9765
24.1775
23.3801
22.5841
21.7895
20.9962
20.2039
19.4127
18.6223
17.8326
17.0436
16.255
15.4668
14.6788
13.8909
13.103
12.315
11.5268
10.7384
9.9496
9.16044
8.37086
7.58076
6.79008
5.99861
5.20618
4.41244
3.61704
2.81943
2.01904
1.21542
0.409345
65.3078
62.7897
61.6405
60.5062
59.3769
58.291
57.2392
56.2118
55.2052
54.2166
53.2437
52.2846
51.3377
50.4019
49.4761
48.5595
47.6514
46.751
45.8578
44.9714
44.0912
43.2169
42.3481
41.4846
40.6259
39.7719
38.9222
38.0768
37.2352
36.3975
35.5633
34.7325
33.905
33.0805
32.259
31.4403
30.6243
29.8108
28.9998
28.191
27.3844
26.5799
25.7773
24.9765
24.1775
23.3801
22.5841
21.7895
20.9961
20.2039
19.4126
18.6223
17.8326
17.0435
16.255
15.4668
14.6788
13.8909
13.103
12.315
11.5268
10.7383
9.94958
9.16042
8.37084
7.58074
6.79006
5.99859
5.20616
4.41243
3.61703
2.81943
2.01904
1.21543
0.409342
65.2991
62.7929
61.6412
60.507
59.3778
58.2918
57.2399
56.2124
55.2057
54.2171
53.2441
52.2849
51.338
50.4021
49.4764
48.5597
47.6516
46.7512
45.858
44.9715
44.0913
43.217
42.3482
41.4846
40.626
39.7719
38.9223
38.0768
37.2353
36.3975
35.5633
34.7326
33.905
33.0806
32.2591
31.4404
30.6243
29.8108
28.9998
28.191
27.3844
26.5799
25.7773
24.9765
24.1775
23.3801
22.5841
21.7895
20.9961
20.2039
19.4126
18.6222
17.8326
17.0435
16.255
15.4667
14.6787
13.8908
13.103
12.315
11.5268
10.7383
9.94956
9.1604
8.37082
7.58072
6.79003
5.99857
5.20614
4.41241
3.61702
2.81942
2.01905
1.21544
0.409339
65.2902
62.7961
61.6419
60.5076
59.3785
58.2926
57.2406
56.213
55.2063
54.2176
53.2445
52.2853
51.3383
50.4024
49.4766
48.56
47.6518
46.7513
45.8581
44.9717
44.0915
43.2171
42.3483
41.4848
40.6261
39.772
38.9224
38.0769
37.2354
36.3976
35.5634
34.7326
33.9051
33.0806
32.2591
31.4404
30.6244
29.8109
28.9998
28.191
27.3844
26.5799
25.7773
24.9766
24.1775
23.3801
22.5841
21.7895
20.9961
20.2039
19.4126
18.6222
17.8326
17.0435
16.2549
15.4667
14.6787
13.8908
13.1029
12.3149
11.5268
10.7383
9.94953
9.16038
8.37079
7.58069
6.79001
5.99854
5.20612
4.4124
3.61701
2.81942
2.01905
1.21544
0.409334
65.2807
62.7994
61.6424
60.5082
59.3791
58.2932
57.2413
56.2137
55.2068
54.2181
53.245
52.2857
51.3387
50.4028
49.4769
48.5602
47.652
46.7516
45.8583
44.9718
44.0916
43.2173
42.3485
41.4849
40.6262
39.7721
38.9225
38.077
37.2354
36.3977
35.5635
34.7327
33.9051
33.0807
32.2591
31.4404
30.6244
29.8109
28.9998
28.191
27.3844
26.5799
25.7773
24.9766
24.1775
23.3801
22.5841
21.7895
20.9961
20.2039
19.4126
18.6222
17.8326
17.0435
16.2549
15.4667
14.6787
13.8908
13.1029
12.3149
11.5267
10.7383
9.94951
9.16035
8.37077
7.58067
6.78999
5.99852
5.2061
4.41238
3.617
2.81941
2.01905
1.21546
0.409325
65.2704
62.803
61.6427
60.5086
59.3796
58.2938
57.2419
56.2143
55.2074
54.2186
53.2455
52.2861
51.3391
50.4031
49.4773
48.5606
47.6523
46.7518
45.8586
44.9721
44.0918
43.2175
42.3487
41.485
40.6263
39.7723
38.9226
38.0771
37.2355
36.3978
35.5635
34.7327
33.9052
33.0807
32.2592
31.4405
30.6244
29.8109
28.9999
28.1911
27.3845
26.5799
25.7773
24.9766
24.1775
23.3801
22.5841
21.7895
20.9961
20.2039
19.4126
18.6222
17.8326
17.0435
16.2549
15.4667
14.6787
13.8908
13.1029
12.3149
11.5267
10.7383
9.94949
9.16033
8.37074
7.58065
6.78996
5.9985
5.20608
4.41237
3.61699
2.81941
2.01906
1.21547
0.409313
65.2594
62.8068
61.643
60.509
59.38
58.2942
57.2424
56.2148
55.208
54.2192
53.246
52.2866
51.3395
50.4035
49.4776
48.5609
47.6526
46.7521
45.8588
44.9723
44.092
43.2177
42.3488
41.4852
40.6265
39.7724
38.9227
38.0772
37.2357
36.3979
35.5636
34.7328
33.9053
33.0808
32.2593
31.4405
30.6245
29.811
28.9999
28.1911
27.3845
26.58
25.7774
24.9766
24.1776
23.3801
22.5841
21.7895
20.9962
20.2039
19.4126
18.6222
17.8326
17.0435
16.2549
15.4667
14.6787
13.8908
13.1029
12.3149
11.5267
10.7382
9.94947
9.16031
8.37072
7.58062
6.78994
5.99848
5.20606
4.41235
3.61698
2.81941
2.01906
1.21548
0.409295
65.2478
62.811
61.6431
60.5092
59.3802
58.2945
57.2428
56.2153
55.2085
54.2197
53.2465
52.2871
51.34
50.404
49.478
48.5613
47.6529
46.7524
45.8591
44.9726
44.0923
43.2179
42.3491
41.4854
40.6267
39.7726
38.9229
38.0774
37.2358
36.398
35.5638
34.7329
33.9054
33.0809
32.2594
31.4406
30.6246
29.8111
29
28.1912
27.3846
26.58
25.7774
24.9766
24.1776
23.3801
22.5842
21.7895
20.9962
20.2039
19.4126
18.6222
17.8326
17.0435
16.2549
15.4667
14.6787
13.8908
13.1029
12.3149
11.5267
10.7382
9.94945
9.16029
8.3707
7.5806
6.78992
5.99846
5.20605
4.41234
3.61697
2.81941
2.01907
1.2155
0.40927
65.2354
62.8155
61.6433
60.5094
59.3804
58.2948
57.2431
56.2157
55.2089
54.2202
53.247
52.2876
51.3405
50.4044
49.4784
48.5617
47.6533
46.7528
45.8595
44.9729
44.0926
43.2182
42.3493
41.4856
40.6269
39.7728
38.9231
38.0775
37.236
36.3981
35.5639
34.7331
33.9055
33.081
32.2595
31.4407
30.6247
29.8111
29
28.1912
27.3846
26.5801
25.7775
24.9767
24.1776
23.3802
22.5842
21.7896
20.9962
20.2039
19.4127
18.6223
17.8326
17.0435
16.2549
15.4667
14.6787
13.8908
13.1029
12.3149
11.5267
10.7382
9.94943
9.16027
8.37068
7.58058
6.78989
5.99844
5.20603
4.41233
3.61697
2.81941
2.01908
1.21551
0.409235
65.2222
62.8205
61.6434
60.5096
59.3805
58.2949
57.2433
56.2159
55.2092
54.2205
53.2474
52.288
51.3409
50.4049
49.4789
48.5621
47.6537
46.7531
45.8598
44.9732
44.0929
43.2185
42.3496
41.4859
40.6271
39.773
38.9233
38.0777
37.2361
36.3983
35.5641
34.7332
33.9056
33.0811
32.2596
31.4408
30.6248
29.8112
29.0001
28.1913
27.3847
26.5802
25.7775
24.9768
24.1777
23.3802
22.5842
21.7896
20.9962
20.204
19.4127
18.6223
17.8326
17.0435
16.2549
15.4667
14.6787
13.8908
13.1029
12.3149
11.5267
10.7382
9.94942
9.16025
8.37066
7.58056
6.78988
5.99842
5.20601
4.41231
3.61696
2.81941
2.01909
1.21553
0.409189
65.2083
62.8259
61.6436
60.5098
59.3806
58.2949
57.2434
56.216
55.2094
54.2208
53.2477
52.2884
51.3413
50.4053
49.4793
48.5625
47.6541
46.7535
45.8602
44.9736
44.0932
43.2188
42.3499
41.4862
40.6274
39.7733
38.9235
38.078
37.2364
36.3985
35.5643
34.7334
33.9058
33.0813
32.2597
31.441
30.6249
29.8114
29.0002
28.1914
27.3848
26.5802
25.7776
24.9768
24.1778
23.3803
22.5843
21.7897
20.9963
20.204
19.4127
18.6223
17.8326
17.0436
16.255
15.4667
14.6787
13.8908
13.1029
12.3149
11.5267
10.7382
9.94941
9.16024
8.37065
7.58054
6.78986
5.9984
5.206
4.41231
3.61696
2.81942
2.0191
1.21555
0.409127
65.1936
62.8318
61.6437
60.51
59.3807
58.295
57.2434
56.2161
55.2095
54.221
53.248
52.2887
51.3416
50.4057
49.4797
48.5629
47.6545
46.7539
45.8606
44.9739
44.0936
43.2191
42.3502
41.4865
40.6277
39.7735
38.9238
38.0782
37.2366
36.3987
35.5645
34.7336
33.906
33.0815
32.2599
31.4411
30.625
29.8115
29.0004
28.1916
27.3849
26.5804
25.7777
24.9769
24.1779
23.3804
22.5844
21.7897
20.9964
20.2041
19.4128
18.6224
17.8327
17.0436
16.255
15.4668
14.6787
13.8908
13.1029
12.3149
11.5267
10.7382
9.94941
9.16024
8.37064
7.58053
6.78985
5.99839
5.20599
4.4123
3.61696
2.81942
2.01911
1.21557
0.409046
65.178
62.8381
61.6439
60.5103
59.3808
58.295
57.2434
56.2161
55.2095
54.221
53.2481
52.2888
51.3419
50.4059
49.48
48.5632
47.6549
46.7543
45.8609
44.9743
44.094
43.2195
42.3506
41.4868
40.628
39.7739
38.9241
38.0785
37.2369
36.399
35.5647
34.7338
33.9062
33.0817
32.2601
31.4413
30.6252
29.8117
29.0005
28.1917
27.3851
26.5805
25.7779
24.9771
24.178
23.3805
22.5845
21.7898
20.9964
20.2042
19.4129
18.6224
17.8327
17.0437
16.2551
15.4668
14.6788
13.8909
13.1029
12.3149
11.5267
10.7382
9.94942
9.16024
8.37064
7.58053
6.78985
5.99839
5.20599
4.4123
3.61697
2.81943
2.01913
1.21559
0.408944
65.1617
62.8448
61.644
60.5107
59.381
58.2951
57.2434
56.2161
55.2095
54.221
53.2481
52.2889
51.342
50.4061
49.4802
48.5635
47.6552
46.7546
45.8613
44.9747
44.0943
43.2198
42.3509
41.4872
40.6284
39.7742
38.9244
38.0788
37.2372
36.3993
35.565
34.7341
33.9065
33.0819
32.2603
31.4415
30.6254
29.8119
29.0007
28.1919
27.3852
26.5807
25.778
24.9772
24.1781
23.3806
22.5846
21.79
20.9965
20.2043
19.413
18.6225
17.8328
17.0437
16.2551
15.4669
14.6788
13.8909
13.103
12.3149
11.5267
10.7382
9.94944
9.16026
8.37065
7.58054
6.78985
5.99839
5.20599
4.41231
3.61697
2.81945
2.01914
1.21561
0.408814
65.1447
62.852
61.6441
60.5111
59.3813
58.2952
57.2434
56.216
55.2095
54.221
53.248
52.2889
51.342
50.4062
49.4803
48.5637
47.6554
46.7549
45.8616
44.975
44.0947
43.2202
42.3513
41.4875
40.6287
39.7745
38.9247
38.0791
37.2375
36.3996
35.5653
34.7344
33.9067
33.0822
32.2606
31.4418
30.6257
29.8121
29.001
28.1921
27.3854
26.5808
25.7782
24.9774
24.1783
23.3808
22.5848
21.7901
20.9967
20.2044
19.4131
18.6226
17.8329
17.0438
16.2552
15.4669
14.6789
13.891
13.103
12.315
11.5268
10.7383
9.94948
9.16029
8.37067
7.58055
6.78986
5.9984
5.206
4.41232
3.61699
2.81946
2.01916
1.21563
0.408654
65.127
62.8596
61.6443
60.5116
59.3816
58.2953
57.2435
56.2161
55.2095
54.2209
53.248
52.2888
51.342
50.4061
49.4804
48.5637
47.6555
46.755
45.8618
44.9752
44.0949
43.2205
42.3516
41.4878
40.629
39.7749
38.9251
38.0795
37.2378
36.3999
35.5656
34.7347
33.907
33.0825
32.2609
31.4421
30.6259
29.8124
29.0012
28.1923
27.3857
26.5811
25.7784
24.9776
24.1785
23.381
22.5849
21.7903
20.9968
20.2045
19.4132
18.6228
17.833
17.0439
16.2553
15.467
14.679
13.8911
13.1031
12.3151
11.5268
10.7383
9.94953
9.16033
8.37071
7.58058
6.78989
5.99842
5.20602
4.41233
3.61701
2.81949
2.01919
1.21566
0.408456
65.1088
62.8675
61.6443
60.5122
59.3819
58.2955
57.2436
56.2161
55.2095
54.2209
53.2479
52.2888
51.3419
50.4061
49.4803
48.5637
47.6555
46.7551
45.8619
44.9754
44.0951
43.2207
42.3518
41.4881
40.6293
39.7752
38.9254
38.0798
37.2381
36.4002
35.5659
34.735
33.9074
33.0828
32.2612
31.4424
30.6262
29.8126
29.0015
28.1926
27.3859
26.5813
25.7786
24.9778
24.1787
23.3812
22.5851
21.7905
20.997
20.2047
19.4134
18.6229
17.8332
17.0441
16.2555
15.4672
14.6791
13.8912
13.1032
12.3152
11.5269
10.7384
9.94959
9.16039
8.37076
7.58063
6.78993
5.99846
5.20605
4.41236
3.61704
2.81952
2.01922
1.2157
0.408218
65.0902
62.8756
61.6443
60.5128
59.3823
58.2957
57.2438
56.2162
55.2095
54.2209
53.2479
52.2887
51.3418
50.406
49.4802
48.5636
47.6554
46.755
45.8618
44.9754
44.0951
43.2208
42.352
41.4883
40.6295
39.7754
38.9257
38.0801
37.2384
36.4005
35.5662
34.7353
33.9077
33.0831
32.2615
31.4427
30.6265
29.8129
29.0018
28.1929
27.3862
26.5816
25.7789
24.9781
24.1789
23.3814
22.5854
21.7907
20.9972
20.2049
19.4136
18.6231
17.8334
17.0443
16.2556
15.4673
14.6793
13.8913
13.1033
12.3153
11.527
10.7385
9.94968
9.16047
8.37083
7.58069
6.78998
5.99851
5.2061
4.4124
3.61707
2.81955
2.01926
1.21574
0.407934
65.0717
62.8838
61.6442
60.5135
59.3827
58.296
57.244
56.2164
55.2096
54.221
53.2479
52.2887
51.3418
50.4059
49.4801
48.5635
47.6553
46.7549
45.8618
44.9753
44.0951
43.2208
42.352
41.4884
40.6296
39.7755
38.9258
38.0803
37.2387
36.4008
35.5665
34.7356
33.908
33.0834
32.2618
31.443
30.6268
29.8132
29.0021
28.1932
27.3865
26.5819
25.7792
24.9783
24.1792
23.3817
22.5856
21.7909
20.9975
20.2051
19.4138
18.6233
17.8336
17.0445
16.2558
15.4675
14.6794
13.8915
13.1035
12.3154
11.5272
10.7386
9.94979
9.16057
8.37092
7.58077
6.79006
5.99857
5.20616
4.41246
3.61713
2.8196
2.01931
1.21579
0.407603
65.0534
62.892
61.644
60.5141
59.3832
58.2963
57.2442
56.2165
55.2098
54.221
53.248
52.2887
51.3418
50.4059
49.4801
48.5635
47.6553
46.7549
45.8617
44.9752
44.095
43.2207
42.3519
41.4883
40.6296
39.7756
38.9259
38.0804
37.2388
36.401
35.5667
34.7358
33.9082
33.0837
32.2621
31.4433
30.6271
29.8135
29.0024
28.1935
27.3868
26.5822
25.7795
24.9786
24.1795
23.382
22.5859
21.7912
20.9977
20.2054
19.414
18.6236
17.8338
17.0447
16.256
15.4677
14.6796
13.8916
13.1037
12.3156
11.5273
10.7388
9.94993
9.16069
8.37103
7.58088
6.79015
5.99866
5.20623
4.41253
3.61719
2.81967
2.01937
1.21585
0.407226
65.036
62.9
61.6438
60.5147
59.3836
58.2965
57.2444
56.2167
55.2099
54.2212
53.2481
52.2888
51.3418
50.4059
49.4801
48.5634
47.6552
46.7548
45.8616
44.9751
44.0949
43.2206
42.3518
41.4882
40.6295
39.7755
38.9258
38.0803
37.2388
36.401
35.5668
34.736
33.9084
33.0838
32.2623
31.4435
30.6274
29.8138
29.0026
28.1938
27.3871
26.5825
25.7798
24.9789
24.1798
23.3822
22.5862
21.7915
20.998
20.2057
19.4143
18.6238
17.8341
17.0449
16.2563
15.4679
14.6798
13.8918
13.1039
12.3158
11.5275
10.7389
9.95008
9.16084
8.37117
7.581
6.79027
5.99876
5.20633
4.41262
3.61727
2.81974
2.01944
1.21591
0.406812
65.0199
62.9074
61.6435
60.5153
59.384
58.2968
57.2446
56.2169
55.21
54.2213
53.2482
52.2889
51.3419
50.406
49.4801
48.5634
47.6552
46.7548
45.8615
44.9751
44.0948
43.2205
42.3517
41.4881
40.6294
39.7754
38.9257
38.0803
37.2387
36.4009
35.5667
34.7359
33.9084
33.0839
32.2623
31.4436
30.6275
29.814
29.0028
28.194
27.3873
26.5827
25.78
24.9792
24.1801
23.3825
22.5865
21.7918
20.9983
20.206
19.4146
18.6241
17.8343
17.0452
16.2565
15.4682
14.6801
13.8921
13.1041
12.316
11.5277
10.7391
9.95026
9.16101
8.37133
7.58115
6.7904
5.99889
5.20645
4.41273
3.61738
2.81984
2.01953
1.21599
0.40638
65.006
62.9138
61.6431
60.5158
59.3844
58.297
57.2448
56.2171
55.2102
54.2214
53.2483
52.2889
51.3419
50.406
49.4801
48.5635
47.6552
46.7548
45.8615
44.975
44.0948
43.2205
42.3517
41.488
40.6294
39.7753
38.9256
38.0802
37.2386
36.4008
35.5667
34.7359
33.9083
33.0838
32.2623
31.4436
30.6275
29.814
29.0029
28.1941
27.3874
26.5829
25.7802
24.9794
24.1803
23.3827
22.5867
21.792
20.9985
20.2062
19.4148
18.6244
17.8346
17.0454
16.2568
15.4684
14.6803
13.8923
13.1043
12.3162
11.5279
10.7393
9.95046
9.16119
8.37151
7.58132
6.79056
5.99903
5.20658
4.41285
3.61749
2.81995
2.01963
1.21608
0.405963
64.9954
62.9189
61.6428
60.5162
59.3847
58.2972
57.245
56.2172
55.2103
54.2215
53.2483
52.289
51.342
50.4061
49.4802
48.5635
47.6552
46.7548
45.8615
44.975
44.0948
43.2204
42.3516
41.488
40.6293
39.7752
38.9256
38.0801
37.2385
36.4008
35.5666
34.7358
33.9082
33.0838
32.2622
31.4435
30.6275
29.814
29.0029
28.1941
27.3875
26.5829
25.7803
24.9795
24.1804
23.3829
22.5868
21.7922
20.9987
20.2064
19.415
18.6246
17.8348
17.0457
16.257
15.4686
14.6805
13.8925
13.1045
12.3164
11.5281
10.7395
9.95064
9.16137
8.37168
7.58148
6.79071
5.99918
5.20672
4.41298
3.61761
2.82006
2.01973
1.21617
0.405615
64.9893
62.9218
61.6426
60.5164
59.3849
58.2973
57.2451
56.2173
55.2103
54.2215
53.2484
52.289
51.342
50.4061
49.4802
48.5635
47.6553
46.7548
45.8615
44.975
44.0948
43.2204
42.3516
41.488
40.6293
39.7752
38.9255
38.08
37.2385
36.4007
35.5665
34.7357
33.9082
33.0837
32.2622
31.4434
30.6274
29.8139
29.0028
28.194
27.3874
26.5829
25.7802
24.9795
24.1804
23.3829
22.5869
21.7922
20.9988
20.2065
19.4151
18.6247
17.8349
17.0458
16.2571
15.4688
14.6807
13.8927
13.1047
12.3165
11.5282
10.7397
9.95077
9.16149
8.3718
7.58159
6.79082
5.99928
5.20682
4.41307
3.6177
2.82013
2.01981
1.21623
0.405405
64.9893
62.9218
61.6426
60.5164
59.3849
58.2973
57.2451
56.2173
55.2103
54.2215
53.2484
52.289
51.342
50.4061
49.4802
48.5635
47.6553
46.7548
45.8615
44.975
44.0948
43.2204
42.3516
41.488
40.6293
39.7752
38.9255
38.08
37.2385
36.4007
35.5665
34.7357
33.9082
33.0837
32.2622
31.4434
30.6274
29.8139
29.0028
28.194
27.3874
26.5829
25.7802
24.9795
24.1804
23.3829
22.5869
21.7922
20.9988
20.2065
19.4151
18.6247
17.8349
17.0458
16.2571
15.4688
14.6807
13.8927
13.1047
12.3165
11.5282
10.7397
9.95077
9.16149
8.3718
7.58159
6.79082
5.99928
5.20682
4.41307
3.6177
2.82014
2.01981
1.21623
0.405401
64.9954
62.9189
61.6428
60.5162
59.3847
58.2972
57.245
56.2172
55.2103
54.2215
53.2483
52.289
51.342
50.4061
49.4802
48.5635
47.6552
46.7548
45.8615
44.975
44.0948
43.2204
42.3516
41.488
40.6293
39.7752
38.9256
38.0801
37.2385
36.4008
35.5666
34.7358
33.9082
33.0838
32.2622
31.4435
30.6275
29.814
29.0029
28.1941
27.3875
26.5829
25.7803
24.9795
24.1804
23.3829
22.5868
21.7922
20.9987
20.2064
19.415
18.6246
17.8348
17.0457
16.257
15.4686
14.6805
13.8925
13.1045
12.3164
11.5281
10.7395
9.95064
9.16137
8.37168
7.58148
6.79072
5.99918
5.20672
4.41298
3.61762
2.82006
2.01974
1.21617
0.405605
65.006
62.9138
61.6431
60.5158
59.3844
58.297
57.2448
56.2171
55.2102
54.2214
53.2483
52.2889
51.3419
50.406
49.4801
48.5635
47.6552
46.7548
45.8615
44.975
44.0948
43.2205
42.3517
41.488
40.6294
39.7753
38.9256
38.0802
37.2386
36.4008
35.5667
34.7359
33.9083
33.0838
32.2623
31.4436
30.6275
29.814
29.0029
28.1941
27.3874
26.5829
25.7802
24.9794
24.1803
23.3827
22.5867
21.792
20.9985
20.2062
19.4149
18.6244
17.8346
17.0454
16.2568
15.4684
14.6803
13.8923
13.1043
12.3162
11.5279
10.7393
9.95046
9.16119
8.37151
7.58132
6.79056
5.99904
5.20659
4.41285
3.6175
2.81995
2.01964
1.21608
0.405946
65.0199
62.9074
61.6435
60.5153
59.384
58.2968
57.2446
56.2169
55.21
54.2213
53.2482
52.2889
51.3419
50.406
49.4801
48.5634
47.6552
46.7548
45.8615
44.9751
44.0948
43.2205
42.3517
41.4881
40.6294
39.7754
38.9257
38.0803
37.2387
36.4009
35.5667
34.7359
33.9084
33.0839
32.2623
31.4436
30.6275
29.814
29.0028
28.194
27.3873
26.5827
25.78
24.9792
24.1801
23.3825
22.5865
21.7918
20.9983
20.206
19.4146
18.6241
17.8343
17.0452
16.2565
15.4682
14.6801
13.8921
13.1041
12.316
11.5277
10.7391
9.95026
9.16101
8.37133
7.58115
6.79041
5.99889
5.20646
4.41273
3.61739
2.81984
2.01954
1.21599
0.406358
65.0359
62.9
61.6438
60.5147
59.3836
58.2965
57.2444
56.2167
55.2099
54.2212
53.2481
52.2888
51.3418
50.4059
49.4801
48.5634
47.6552
46.7548
45.8616
44.9751
44.0949
43.2206
42.3518
41.4882
40.6295
39.7755
38.9258
38.0803
37.2388
36.401
35.5668
34.736
33.9084
33.0838
32.2623
31.4435
30.6274
29.8138
29.0026
28.1938
27.3871
26.5825
25.7798
24.9789
24.1798
23.3822
22.5862
21.7915
20.998
20.2057
19.4143
18.6238
17.8341
17.0449
16.2563
15.4679
14.6798
13.8918
13.1039
12.3158
11.5275
10.7389
9.95008
9.16084
8.37117
7.58101
6.79027
5.99877
5.20634
4.41262
3.61729
2.81975
2.01946
1.21591
0.406786
65.0534
62.8921
61.644
60.5141
59.3832
58.2963
57.2442
56.2165
55.2098
54.221
53.248
52.2887
51.3418
50.4059
49.4801
48.5635
47.6553
46.7549
45.8617
44.9752
44.095
43.2207
42.3519
41.4883
40.6296
39.7756
38.9259
38.0804
37.2388
36.401
35.5667
34.7358
33.9082
33.0837
32.2621
31.4433
30.6271
29.8135
29.0024
28.1935
27.3868
26.5822
25.7795
24.9786
24.1795
23.382
22.5859
21.7912
20.9977
20.2054
19.414
18.6236
17.8338
17.0447
16.256
15.4677
14.6796
13.8916
13.1037
12.3156
11.5273
10.7388
9.94993
9.16069
8.37104
7.58088
6.79016
5.99866
5.20624
4.41253
3.61721
2.81967
2.01938
1.21584
0.407196
65.0716
62.8839
61.6442
60.5135
59.3827
58.296
57.244
56.2164
55.2096
54.221
53.2479
52.2887
51.3418
50.4059
49.4801
48.5635
47.6553
46.7549
45.8618
44.9753
44.0951
43.2208
42.352
41.4884
40.6296
39.7755
38.9258
38.0803
37.2387
36.4008
35.5665
34.7356
33.908
33.0834
32.2618
31.443
30.6268
29.8132
29.0021
28.1932
27.3865
26.5819
25.7792
24.9783
24.1792
23.3817
22.5856
21.7909
20.9975
20.2051
19.4138
18.6233
17.8336
17.0445
16.2558
15.4675
14.6794
13.8915
13.1035
12.3154
11.5272
10.7386
9.94979
9.16057
8.37092
7.58078
6.79006
5.99857
5.20617
4.41246
3.61714
2.81961
2.01932
1.21578
0.407569
65.0902
62.8756
61.6443
60.5128
59.3823
58.2957
57.2438
56.2162
55.2095
54.2209
53.2479
52.2887
51.3418
50.406
49.4802
48.5636
47.6554
46.755
45.8618
44.9754
44.0951
43.2208
42.352
41.4883
40.6295
39.7754
38.9257
38.0801
37.2384
36.4005
35.5662
34.7353
33.9077
33.0831
32.2615
31.4427
30.6265
29.8129
29.0018
28.1929
27.3862
26.5816
25.7789
24.9781
24.1789
23.3814
22.5854
21.7907
20.9972
20.2049
19.4136
18.6231
17.8334
17.0443
16.2556
15.4673
14.6793
13.8913
13.1033
12.3153
11.527
10.7385
9.94968
9.16047
8.37083
7.58069
6.78999
5.99851
5.20611
4.41241
3.61709
2.81956
2.01927
1.21573
0.407898
65.1087
62.8675
61.6443
60.5122
59.3819
58.2955
57.2436
56.2161
55.2095
54.2209
53.2479
52.2888
51.3419
50.4061
49.4803
48.5637
47.6555
46.7551
45.8619
44.9754
44.0951
43.2207
42.3518
41.4881
40.6293
39.7752
38.9254
38.0798
37.2381
36.4002
35.5659
34.735
33.9074
33.0828
32.2612
31.4424
30.6262
29.8126
29.0015
28.1926
27.3859
26.5813
25.7786
24.9778
24.1787
23.3812
22.5851
21.7905
20.997
20.2047
19.4134
18.6229
17.8332
17.0441
16.2555
15.4672
14.6791
13.8912
13.1032
12.3152
11.5269
10.7384
9.9496
9.16039
8.37076
7.58063
6.78994
5.99846
5.20607
4.41237
3.61705
2.81952
2.01923
1.21569
0.408179
65.1269
62.8596
61.6443
60.5116
59.3816
58.2953
57.2435
56.2161
55.2095
54.2209
53.248
52.2888
51.342
50.4061
49.4804
48.5637
47.6555
46.755
45.8618
44.9752
44.0949
43.2205
42.3516
41.4878
40.629
39.7749
38.9251
38.0795
37.2378
36.3999
35.5656
34.7347
33.907
33.0825
32.2609
31.4421
30.6259
29.8124
29.0012
28.1923
27.3857
26.5811
25.7784
24.9776
24.1785
23.381
22.5849
21.7903
20.9968
20.2045
19.4132
18.6228
17.833
17.0439
16.2553
15.467
14.679
13.8911
13.1031
12.3151
11.5268
10.7383
9.94953
9.16033
8.37071
7.58059
6.7899
5.99843
5.20604
4.41234
3.61702
2.81948
2.0192
1.21565
0.408415
65.1446
62.8521
61.6442
60.5111
59.3813
58.2952
57.2434
56.216
55.2095
54.221
53.248
52.2889
51.342
50.4062
49.4803
48.5637
47.6554
46.7549
45.8616
44.975
44.0947
43.2202
42.3513
41.4875
40.6287
39.7745
38.9247
38.0791
37.2375
36.3996
35.5653
34.7344
33.9067
33.0822
32.2606
31.4418
30.6257
29.8121
29.001
28.1921
27.3854
26.5808
25.7782
24.9774
24.1783
23.3808
22.5848
21.7901
20.9967
20.2044
19.4131
18.6226
17.8329
17.0438
16.2552
15.4669
14.6789
13.891
13.103
12.315
11.5268
10.7383
9.94948
9.16029
8.37068
7.58056
6.78987
5.9984
5.20602
4.41232
3.617
2.81946
2.01917
1.21562
0.40861
65.1616
62.8449
61.644
60.5107
59.381
58.2951
57.2434
56.2161
55.2095
54.221
53.2481
52.2889
51.342
50.4061
49.4802
48.5635
47.6552
46.7546
45.8613
44.9747
44.0943
43.2198
42.3509
41.4872
40.6284
39.7742
38.9244
38.0788
37.2372
36.3993
35.565
34.7341
33.9065
33.0819
32.2603
31.4415
30.6254
29.8119
29.0007
28.1919
27.3852
26.5807
25.778
24.9772
24.1781
23.3806
22.5846
21.79
20.9965
20.2043
19.413
18.6225
17.8328
17.0437
16.2551
15.4669
14.6788
13.8909
13.103
12.3149
11.5267
10.7382
9.94945
9.16026
8.37065
7.58054
6.78986
5.99839
5.20601
4.41231
3.61699
2.81944
2.01915
1.21559
0.408769
65.178
62.8381
61.6439
60.5103
59.3808
58.295
57.2434
56.2161
55.2095
54.221
53.2481
52.2888
51.3419
50.4059
49.48
48.5632
47.6549
46.7543
45.8609
44.9743
44.094
43.2195
42.3506
41.4868
40.628
39.7739
38.9241
38.0785
37.2369
36.399
35.5647
34.7338
33.9062
33.0817
32.2601
31.4413
30.6252
29.8117
29.0005
28.1917
27.3851
26.5805
25.7779
24.9771
24.178
23.3805
22.5845
21.7898
20.9964
20.2042
19.4129
18.6224
17.8327
17.0437
16.2551
15.4668
14.6788
13.8909
13.1029
12.3149
11.5267
10.7382
9.94943
9.16025
8.37064
7.58053
6.78986
5.99839
5.206
4.4123
3.61698
2.81942
2.01913
1.21556
0.408896
65.1935
62.8318
61.6437
60.51
59.3807
58.295
57.2434
56.2161
55.2095
54.221
53.248
52.2887
51.3416
50.4057
49.4797
48.5629
47.6545
46.7539
45.8606
44.9739
44.0936
43.2191
42.3502
41.4865
40.6277
39.7735
38.9238
38.0782
37.2366
36.3987
35.5645
34.7336
33.906
33.0815
32.2599
31.4411
30.625
29.8115
29.0004
28.1916
27.3849
26.5804
25.7777
24.9769
24.1779
23.3804
22.5844
21.7897
20.9964
20.2041
19.4128
18.6224
17.8327
17.0436
16.255
15.4668
14.6787
13.8908
13.1029
12.3149
11.5267
10.7382
9.94942
9.16024
8.37064
7.58054
6.78986
5.9984
5.20601
4.4123
3.61697
2.81941
2.01911
1.21553
0.408997
65.2082
62.8259
61.6436
60.5098
59.3806
58.2949
57.2434
56.216
55.2094
54.2208
53.2477
52.2884
51.3413
50.4053
49.4793
48.5625
47.6541
46.7535
45.8602
44.9736
44.0932
43.2188
42.3499
41.4862
40.6274
39.7733
38.9235
38.078
37.2364
36.3985
35.5643
34.7334
33.9058
33.0813
32.2597
31.441
30.6249
29.8114
29.0003
28.1914
27.3848
26.5802
25.7776
24.9768
24.1778
23.3803
22.5843
21.7897
20.9963
20.204
19.4127
18.6223
17.8326
17.0436
16.255
15.4667
14.6787
13.8908
13.1029
12.3149
11.5267
10.7382
9.94942
9.16024
8.37065
7.58055
6.78987
5.99841
5.20602
4.41231
3.61697
2.8194
2.01909
1.21551
0.409075
65.2222
62.8205
61.6434
60.5096
59.3805
58.2949
57.2433
56.2159
55.2092
54.2205
53.2474
52.288
51.3409
50.4049
49.4789
48.5621
47.6537
46.7531
45.8598
44.9732
44.0929
43.2185
42.3496
41.4859
40.6271
39.773
38.9233
38.0777
37.2361
36.3983
35.5641
34.7332
33.9056
33.0811
32.2596
31.4408
30.6248
29.8112
29.0001
28.1913
27.3847
26.5802
25.7775
24.9768
24.1777
23.3802
22.5842
21.7896
20.9962
20.204
19.4127
18.6223
17.8326
17.0435
16.2549
15.4667
14.6787
13.8908
13.1029
12.3149
11.5267
10.7382
9.94942
9.16025
8.37066
7.58056
6.78989
5.99842
5.20603
4.41231
3.61697
2.8194
2.01908
1.21549
0.409135
65.2353
62.8155
61.6433
60.5094
59.3804
58.2948
57.2431
56.2157
55.2089
54.2202
53.247
52.2876
51.3405
50.4044
49.4784
48.5617
47.6533
46.7528
45.8595
44.9729
44.0926
43.2182
42.3493
41.4856
40.6269
39.7728
38.9231
38.0775
37.236
36.3981
35.5639
34.7331
33.9055
33.081
32.2595
31.4407
30.6247
29.8111
29
28.1912
27.3846
26.5801
25.7775
24.9767
24.1776
23.3802
22.5842
21.7896
20.9962
20.2039
19.4127
18.6223
17.8326
17.0435
16.2549
15.4667
14.6787
13.8908
13.1029
12.3149
11.5267
10.7382
9.94944
9.16027
8.37068
7.58058
6.78991
5.99844
5.20604
4.41232
3.61698
2.81939
2.01907
1.21547
0.40918
65.2477
62.811
61.6431
60.5092
59.3802
58.2945
57.2428
56.2153
55.2085
54.2197
53.2465
52.2871
51.34
50.404
49.478
48.5613
47.6529
46.7524
45.8591
44.9726
44.0923
43.2179
42.3491
41.4854
40.6267
39.7726
38.9229
38.0774
37.2358
36.398
35.5638
34.7329
33.9054
33.0809
32.2594
31.4406
30.6246
29.8111
29
28.1912
27.3846
26.58
25.7774
24.9766
24.1776
23.3801
22.5842
21.7895
20.9962
20.2039
19.4126
18.6222
17.8326
17.0435
16.2549
15.4667
14.6787
13.8908
13.1029
12.3149
11.5267
10.7382
9.94945
9.16029
8.3707
7.5806
6.78993
5.99846
5.20606
4.41233
3.61698
2.81939
2.01906
1.21545
0.409213
65.2594
62.8068
61.643
60.509
59.38
58.2942
57.2424
56.2148
55.208
54.2192
53.246
52.2866
51.3395
50.4035
49.4776
48.5609
47.6526
46.7521
45.8588
44.9723
44.0921
43.2177
42.3488
41.4852
40.6265
39.7724
38.9227
38.0772
37.2357
36.3979
35.5636
34.7328
33.9053
33.0808
32.2593
31.4405
30.6245
29.811
28.9999
28.1911
27.3845
26.58
25.7774
24.9766
24.1776
23.3801
22.5841
21.7895
20.9962
20.2039
19.4126
18.6222
17.8326
17.0435
16.2549
15.4667
14.6787
13.8908
13.1029
12.3149
11.5267
10.7382
9.94947
9.16031
8.37073
7.58063
6.78995
5.99848
5.20608
4.41235
3.61699
2.81939
2.01905
1.21543
0.409236
65.2703
62.803
61.6427
60.5086
59.3796
58.2938
57.2419
56.2143
55.2074
54.2186
53.2455
52.2861
51.3391
50.4031
49.4773
48.5606
47.6523
46.7518
45.8586
44.9721
44.0918
43.2175
42.3487
41.485
40.6263
39.7723
38.9226
38.0771
37.2355
36.3978
35.5635
34.7327
33.9052
33.0807
32.2592
31.4405