/*--------------------------------*- C++ -*----------------------------------*\
  =========                 |
  \\      /  F ield         | OpenFOAM: The Open Source CFD Toolbox
   \\    /   O peration     | Website:  https://openfoam.org
    \\  /    A nd           | Version:  7
     \\/     M anipulation  |
\*---------------------------------------------------------------------------*/
FoamFile
{
    version     2.0;
    format      ascii;
    class       surfaceScalarField;
    location    "850";
    object      phi;
}
// * * * * * * * * * * * * * * * * * * * * * * * * * * * * * * * * * * * * * //

dimensions      [0 3 -1 0 0 0 0];

internalField   nonuniform List<scalar> 
8865
(
0.00452285
0.00168694
0.00415016
0.00037269
0.0039903
0.000159866
0.00389729
9.30109e-05
0.00383339
6.38985e-05
0.00378555
4.78348e-05
0.00374796
3.75907e-05
0.00371747
3.04976e-05
0.00369216
2.53061e-05
0.00367081
2.13471e-05
0.00365258
1.82337e-05
0.00363685
1.57255e-05
0.00362319
1.36651e-05
0.00361124
1.1945e-05
0.00360075
1.04895e-05
0.00359151
9.24361e-06
0.00358334
8.16645e-06
0.00357612
7.22705e-06
0.00356971
6.40152e-06
0.00356404
5.67114e-06
0.00355902
5.02103e-06
0.00355458
4.43924e-06
0.00355067
3.91605e-06
0.00354722
3.44347e-06
0.00354421
3.01491e-06
0.00354158
2.62486e-06
0.00353931
2.26868e-06
0.00353737
1.94245e-06
0.00353573
1.64287e-06
0.00353436
1.36702e-06
0.00353325
1.11247e-06
0.00353237
8.77093e-07
0.00353171
6.59064e-07
0.00353126
4.56764e-07
0.00353099
2.68775e-07
0.0035309
9.35977e-08
0.00353097
-7.01382e-08
0.00353119
-2.22473e-07
0.00353155
-3.63915e-07
0.00353205
-4.95738e-07
0.00353267
-6.1873e-07
0.0035334
-7.33431e-07
0.00353424
-8.40366e-07
0.00353518
-9.39908e-07
0.00353621
-1.03248e-06
0.00353733
-1.11824e-06
0.00353853
-1.19747e-06
0.0035398
-1.27037e-06
0.00354114
-1.33709e-06
0.00354254
-1.39768e-06
0.00354399
-1.4521e-06
0.00354549
-1.50041e-06
0.00354703
-1.54252e-06
0.00354861
-1.57821e-06
0.00355022
-1.60714e-06
0.00355185
-1.6289e-06
0.00355349
-1.64277e-06
0.00355514
-1.64815e-06
0.00355678
-1.64534e-06
0.00355842
-1.63333e-06
0.00356003
-1.61439e-06
0.00356162
-1.58813e-06
0.00356319
-1.56058e-06
0.00356472
-1.53434e-06
0.00356624
-1.51709e-06
0.00356775
-1.51232e-06
0.00356928
-1.5285e-06
0.00357085
-1.56665e-06
0.00357248
-1.63204e-06
0.00357419
-1.71213e-06
0.00357599
-1.80127e-06
0.00357786
-1.87208e-06
0.00357977
-1.90933e-06
0.00358164
-1.88001e-06
-9.5468e-07
0.00573448
0.00277626
0.00532416
0.000783017
0.00510631
0.00037771
0.00497607
0.000223255
0.00488795
0.000152018
0.00482307
0.000112709
0.00477273
8.79388e-05
0.00473224
7.0979e-05
0.00469887
5.86788e-05
0.00467085
4.93648e-05
0.00464701
4.20794e-05
0.0046265
3.62353e-05
0.00460871
3.14508e-05
0.00459319
2.74677e-05
0.00457958
2.4105e-05
0.00456759
2.12321e-05
0.004557
1.87524e-05
0.00454763
1.65929e-05
0.00453934
1.46975e-05
0.00453199
1.30223e-05
0.00452548
1.15327e-05
0.00451971
1.02007e-05
0.00451463
9.00381e-06
0.00451015
7.92342e-06
0.00450622
6.94425e-06
0.00450279
6.05355e-06
0.00449982
5.2406e-06
0.00449726
4.49635e-06
0.00449509
3.81313e-06
0.00449328
3.18428e-06
0.00449178
2.60418e-06
0.00449059
2.06794e-06
0.00448968
1.57133e-06
0.00448903
1.11064e-06
0.00448861
6.82642e-07
0.00448842
2.8427e-07
0.00448844
-8.79584e-08
0.00448865
-4.34884e-07
0.00448905
-7.57194e-07
0.00448961
-1.05746e-06
0.00449033
-1.33753e-06
0.00449119
-1.59872e-06
0.00449219
-1.84222e-06
0.00449332
-2.06894e-06
0.00449457
-2.27981e-06
0.00449593
-2.4753e-06
0.00449739
-2.65603e-06
0.00449894
-2.82246e-06
0.00450058
-2.9749e-06
0.00450229
-3.11353e-06
0.00450408
-3.23828e-06
0.00450593
-3.34922e-06
0.00450783
-3.44612e-06
0.00450978
-3.52855e-06
0.00451177
-3.5958e-06
0.00451379
-3.647e-06
0.00451583
-3.68093e-06
0.00451788
-3.69655e-06
0.00451993
-3.6945e-06
0.00452197
-3.67363e-06
0.00452399
-3.63841e-06
0.00452599
-3.58947e-06
0.00452797
-3.53817e-06
0.00452993
-3.49043e-06
0.00453187
-3.46046e-06
0.00453382
-3.45522e-06
0.00453578
-3.48877e-06
0.00453777
-3.56076e-06
0.00453982
-3.67625e-06
0.00454191
-3.80896e-06
0.00454405
-3.94165e-06
0.0045462
-4.01947e-06
0.00454829
-4.00425e-06
0.00455025
-3.84691e-06
-1.91483e-06
0.00677261
0.00350217
0.00634446
0.00121116
0.00607519
0.000646986
0.00590745
0.000390987
0.00579398
0.000265489
0.00571123
0.000195464
0.00564762
0.00015155
0.00559688
0.000121718
0.00555531
0.000100246
0.00552058
8.40915e-05
0.00549114
7.15231e-05
0.00546589
6.14851e-05
0.00544404
5.32969e-05
0.00542501
4.65007e-05
0.00540834
4.07775e-05
0.00539367
3.58985e-05
0.00538073
3.1695e-05
0.00536928
2.80402e-05
0.00535914
2.48369e-05
0.00535016
2.20093e-05
0.00534219
1.94976e-05
0.00533514
1.72539e-05
0.0053289
1.52395e-05
0.0053234
1.34226e-05
0.00531857
1.17771e-05
0.00531434
1.02813e-05
0.00531067
8.91677e-06
0.00530749
7.66824e-06
0.00530478
6.52261e-06
0.0053025
5.46863e-06
0.00530061
4.49672e-06
0.00529908
3.5986e-06
0.00529788
2.76711e-06
0.005297
1.99598e-06
0.0052964
1.27972e-06
0.00529607
6.13436e-07
0.00529599
-8.79664e-09
0.00529615
-5.8932e-07
0.00529652
-1.12909e-06
0.00529709
-1.63174e-06
0.00529785
-2.10045e-06
0.00529879
-2.53753e-06
0.0052999
-2.94502e-06
0.00530115
-3.32451e-06
0.00530255
-3.67753e-06
0.00530408
-4.00501e-06
0.00530573
-4.30797e-06
0.0053075
-4.5872e-06
0.00530936
-4.84323e-06
0.00531133
-5.07635e-06
0.00531338
-5.28655e-06
0.0053155
-5.47387e-06
0.00531769
-5.63796e-06
0.00531994
-5.77813e-06
0.00532224
-5.89333e-06
0.00532458
-5.9823e-06
0.00532694
-6.04342e-06
0.00532932
-6.07544e-06
0.0053317
-6.07941e-06
0.00533408
-6.05465e-06
0.00533645
-6.00766e-06
0.00533881
-5.94097e-06
0.00534114
-5.87036e-06
0.00534345
-5.80538e-06
0.00534576
-5.76524e-06
0.00534806
-5.75967e-06
0.00535038
-5.80512e-06
0.00535272
-5.89885e-06
0.00535508
-6.0412e-06
0.00535747
-6.19176e-06
0.00535984
-6.31797e-06
0.00536216
-6.33999e-06
0.00536435
-6.19349e-06
0.00536633
-5.82722e-06
-2.85757e-06
0.00776838
0.00397374
0.00736522
0.00161432
0.00705881
0.000953393
0.00685371
0.000596095
0.00671229
0.00040691
0.00660913
0.000298623
0.00653023
0.000230446
0.00646767
0.000184282
0.00641669
0.000151228
0.00637428
0.000126493
0.00633846
0.000107343
0.00630784
9.2113e-05
0.0062814
7.97342e-05
0.00625841
6.94918e-05
0.00623829
6.08896e-05
0.00622062
5.35729e-05
0.00620503
4.72819e-05
0.00619125
4.18216e-05
0.00617905
3.70432e-05
0.00616822
3.2831e-05
0.00615863
2.9094e-05
0.00615012
2.57594e-05
0.00614259
2.27684e-05
0.00613594
2.00732e-05
0.00613009
1.76341e-05
0.00612495
1.54185e-05
0.00612047
1.33987e-05
0.00611658
1.15517e-05
0.00611325
9.85789e-06
0.00611042
8.30031e-06
0.00610805
6.86465e-06
0.00610611
5.53853e-06
0.00610456
4.3112e-06
0.00610339
3.17333e-06
0.00610255
2.11672e-06
0.00610203
1.13414e-06
0.0061018
2.17433e-07
0.00610185
-6.38331e-07
0.00610216
-1.43504e-06
0.0061027
-2.1767e-06
0.00610347
-2.86809e-06
0.00610445
-3.51277e-06
0.00610561
-4.11382e-06
0.00610696
-4.67368e-06
0.00610848
-5.1946e-06
0.00611015
-5.67811e-06
0.00611197
-6.12572e-06
0.00611392
-6.53863e-06
0.006116
-6.91763e-06
0.00611818
-7.26322e-06
0.00612047
-7.57543e-06
0.00612285
-7.85431e-06
0.00612532
-8.09938e-06
0.00612785
-8.30974e-06
0.00613044
-8.48399e-06
0.00613308
-8.62058e-06
0.00613575
-8.71756e-06
0.00613845
-8.77363e-06
0.00614116
-8.79044e-06
0.00614387
-8.7679e-06
0.00614658
-8.71478e-06
0.00614928
-8.63534e-06
0.00615196
-8.54968e-06
0.00615462
-8.47017e-06
0.00615728
-8.4202e-06
0.00615993
-8.41072e-06
0.00616258
-8.4593e-06
0.00616524
-8.55817e-06
0.0061679
-8.70188e-06
0.00617055
-8.83444e-06
0.00617314
-8.90845e-06
0.00617561
-8.81934e-06
0.0061779
-8.47901e-06
0.00617991
-7.84312e-06
-3.80425e-06
0.00876053
0.0042679
0.00841816
0.00195669
0.00809688
0.00127467
0.00785897
0.000834004
0.00768847
0.000577413
0.00756264
0.000424452
0.00746628
0.000326806
0.00739005
0.000260516
0.00732813
0.000213142
0.00727681
0.000177816
0.00723358
0.00015057
0.00719672
0.00012898
0.00716496
0.000111491
0.00713739
9.7063e-05
0.0071133
8.49771e-05
0.00709215
7.47211e-05
0.00707351
6.59208e-05
0.00705704
5.82964e-05
0.00704245
5.16348e-05
0.00702951
4.57712e-05
0.00701803
4.05756e-05
0.00700784
3.5945e-05
0.00699881
3.17959e-05
0.00699083
2.80606e-05
0.00698378
2.46833e-05
0.00697758
2.16177e-05
0.00697215
1.88251e-05
0.00696743
1.62731e-05
0.00696335
1.39341e-05
0.00695987
1.17844e-05
0.00695693
9.80396e-06
0.00695449
7.97543e-06
0.00695252
6.28379e-06
0.00695098
4.71599e-06
0.00694983
3.26061e-06
0.00694906
1.90758e-06
0.00694863
6.46497e-07
0.00694852
-5.30984e-07
0.00694872
-1.62851e-06
0.00694919
-2.65015e-06
0.00694993
-3.60234e-06
0.0069509
-4.49012e-06
0.00695211
-5.31782e-06
0.00695352
-6.08892e-06
0.00695513
-6.80659e-06
0.00695693
-7.47304e-06
0.00695889
-8.09043e-06
0.00696102
-8.66043e-06
0.00696328
-9.18421e-06
0.00696568
-9.6625e-06
0.0069682
-1.00954e-05
0.00697083
-1.04831e-05
0.00697356
-1.08249e-05
0.00697637
-1.11198e-05
0.00697925
-1.13661e-05
0.00698219
-1.15619e-05
0.00698518
-1.1705e-05
0.0069882
-1.17944e-05
0.00699124
-1.18321e-05
0.00699429
-1.18191e-05
0.00699734
-1.1766e-05
0.00700039
-1.1679e-05
0.00700342
-1.15818e-05
0.00700644
-1.14894e-05
0.00700945
-1.14281e-05
0.00701245
-1.14093e-05
0.00701544
-1.14499e-05
0.00701842
-1.15369e-05
0.00702137
-1.16572e-05
0.00702428
-1.17402e-05
0.00702709
-1.17231e-05
0.00702975
-1.14804e-05
0.00703217
-1.09005e-05
0.00703428
-9.95495e-06
-4.78886e-06
0.00977742
0.00444047
0.00951399
0.00222012
0.00920569
0.00158298
0.00894539
0.0010943
0.00874723
0.000775576
0.0085973
0.000574375
0.00848145
0.000442657
0.00838959
0.000352373
0.00831504
0.000287698
0.00825334
0.000239516
0.00820147
0.000202437
0.00815732
0.000173135
0.00811935
0.000149463
0.00808642
0.000129986
0.00805769
0.000113709
0.00803248
9.99273e-05
0.00801028
8.8125e-05
0.00799066
7.79179e-05
0.00797328
6.90143e-05
0.00795786
6.11885e-05
0.00794417
5.42636e-05
0.00793202
4.80989e-05
0.00792123
4.25814e-05
0.00791168
3.76191e-05
0.00790322
3.31364e-05
0.00789577
2.90709e-05
0.00788922
2.53703e-05
0.00788351
2.19908e-05
0.00787855
1.88953e-05
0.00787428
1.6052e-05
0.00787065
1.34339e-05
0.00786761
1.10178e-05
0.00786511
8.78359e-06
0.00786311
6.71369e-06
0.00786158
4.79286e-06
0.00786048
3.00765e-06
0.00785978
1.34516e-06
0.00785945
-2.06818e-07
0.00785948
-1.65475e-06
0.00785983
-3.00299e-06
0.00786049
-4.25938e-06
0.00786143
-5.4307e-06
0.00786263
-6.52274e-06
0.00786409
-7.54025e-06
0.00786577
-8.48748e-06
0.00786766
-9.36754e-06
0.00786975
-1.01833e-05
0.00787203
-1.09371e-05
0.00787448
-1.16306e-05
0.00787708
-1.22647e-05
0.00787982
-1.28398e-05
0.0078827
-1.3356e-05
0.00788569
-1.38128e-05
0.00788877
-1.42089e-05
0.00789195
-1.45423e-05
0.0078952
-1.48109e-05
0.00789851
-1.50126e-05
0.00790186
-1.51462e-05
0.00790524
-1.52145e-05
0.00790864
-1.52192e-05
0.00791205
-1.51731e-05
0.00791546
-1.50839e-05
0.00791885
-1.49787e-05
0.00792224
-1.48741e-05
0.00792561
-1.4799e-05
0.00792896
-1.47644e-05
0.0079323
-1.4786e-05
0.00793561
-1.48443e-05
0.00793887
-1.49194e-05
0.00794206
-1.49261e-05
0.00794512
-1.47885e-05
0.007948
-1.43612e-05
0.00795061
-1.35122e-05
0.00795289
-1.22339e-05
-5.8542e-06
0.0108418
0.0045325
0.0106586
0.00240329
0.0103907
0.00185088
0.0101252
0.00135979
0.00990488
0.000995899
0.00973121
0.000748042
0.00959448
0.000579386
0.00948519
0.000461659
0.00939623
0.000376666
0.00932255
0.000313187
0.00926065
0.000264341
0.009208
0.000225789
0.00916276
0.000194702
0.00912357
0.000169174
0.00908939
0.000147885
0.00905943
0.000129893
0.00903304
0.000114513
0.00900972
0.000101234
0.00898907
8.96694e-05
0.00897074
7.95188e-05
0.00895445
7.05485e-05
0.00893998
6.25725e-05
0.00892712
5.54417e-05
0.0089157
4.90349e-05
0.00890559
4.32527e-05
0.00889664
3.80131e-05
0.00888877
3.32475e-05
0.00888186
2.88985e-05
0.00887584
2.49176e-05
0.00887063
2.12634e-05
0.00886616
1.79005e-05
0.00886238
1.47985e-05
0.00885923
1.19313e-05
0.00885667
9.27612e-06
0.00885465
6.81304e-06
0.00885313
4.52462e-06
0.00885208
2.3948e-06
0.00885147
4.07841e-07
0.00885126
-1.44698e-06
0.00885143
-3.17542e-06
0.00885196
-4.78587e-06
0.00885281
-6.28717e-06
0.00885398
-7.68686e-06
0.00885543
-8.9912e-06
0.00885715
-1.02057e-05
0.00885911
-1.13346e-05
0.00886131
-1.23817e-05
0.00886373
-1.33501e-05
0.00886634
-1.42418e-05
0.00886913
-1.50584e-05
0.00887209
-1.58004e-05
0.0088752
-1.64682e-05
0.00887845
-1.7061e-05
0.00888182
-1.75777e-05
0.0088853
-1.80159e-05
0.00888886
-1.83736e-05
0.00889249
-1.86483e-05
0.00889619
-1.88389e-05
0.00889992
-1.89493e-05
0.00890368
-1.89816e-05
0.00890746
-1.89505e-05
0.00891124
-1.88652e-05
0.00891502
-1.87554e-05
0.00891879
-1.86396e-05
0.00892254
-1.8548e-05
0.00892626
-1.84912e-05
0.00892996
-1.84826e-05
0.00893361
-1.84975e-05
0.0089372
-1.85083e-05
0.00894069
-1.84175e-05
0.00894404
-1.81367e-05
0.00894718
-1.75046e-05
0.00895004
-1.63691e-05
0.00895255
-1.47484e-05
-7.03549e-06
0.0119752
0.00457226
0.0118614
0.00251703
0.0116523
0.00206002
0.0114041
0.00160801
0.0111727
0.00122725
0.0109787
0.00094203
0.0108211
0.000736974
0.0106932
0.000589616
0.0105882
0.000481647
0.0105009
0.000400442
0.0104275
0.000337776
0.010365
0.000288286
0.0103113
0.000248398
0.0102648
0.00021568
0.0102243
0.000188432
0.0101887
0.000165439
0.0101574
0.000145814
0.0101298
0.000128895
0.0101052
0.00011418
0.0100835
0.000101282
0.0100641
8.98972e-05
0.0100469
7.97864e-05
0.0100316
7.07567e-05
0.010018
6.26517e-05
0.0100059
5.53437e-05
0.00999518
4.87271e-05
0.00998571
4.27139e-05
0.00997738
3.72304e-05
0.00997008
3.22144e-05
0.00996373
2.76128e-05
0.00995825
2.33805e-05
0.00995357
1.94787e-05
0.00994963
1.58738e-05
0.00994637
1.2537e-05
0.00994374
9.44272e-06
0.0099417
6.56889e-06
0.0099402
3.89544e-06
0.0099392
1.40344e-06
0.00993868
-9.23296e-07
0.0099386
-3.09347e-06
0.00993892
-5.11555e-06
0.00993964
-7.0005e-06
0.00994071
-8.75789e-06
0.00994211
-1.03957e-05
0.00994383
-1.19212e-05
0.00994583
-1.33397e-05
0.00994811
-1.46561e-05
0.00995063
-1.58744e-05
0.00995339
-1.69976e-05
0.00995636
-1.80275e-05
0.00995952
-1.89651e-05
0.00996287
-1.9811e-05
0.00996637
-2.05646e-05
0.00997002
-2.12244e-05
0.00997379
-2.17883e-05
0.00997767
-2.22539e-05
0.00998164
-2.26187e-05
0.00998568
-2.28819e-05
0.00998978
-2.30478e-05
0.00999392
-2.31192e-05
0.00999808
-2.31127e-05
0.0100023
-2.30384e-05
0.0100064
-2.29285e-05
0.0100106
-2.28026e-05
0.0100147
-2.26923e-05
0.0100189
-2.2607e-05
0.0100229
-2.25586e-05
0.0100269
-2.25164e-05
0.0100309
-2.24473e-05
0.0100347
-2.22417e-05
0.0100384
-2.18024e-05
0.0100418
-2.09528e-05
0.010045
-1.95241e-05
0.0100478
-1.75612e-05
-8.36976e-06
0.0131983
0.00457686
0.0131373
0.00257801
0.0129915
0.00220581
0.0127826
0.00181691
0.0125574
0.00145244
0.0123512
0.00114828
0.0121753
0.000912857
0.0120287
0.000736235
0.0119067
0.000603686
0.0118044
0.000502686
0.011718
0.000424209
0.0116442
0.000362025
0.0115808
0.000311841
0.0115258
0.00027067
0.0114778
0.0002364
0.0114358
0.000207506
0.0113987
0.00018287
0.011366
0.000161655
0.0113369
0.000143224
0.0113111
0.000127088
0.0112881
0.00011286
0.0112677
0.000100238
0.0112495
8.89769e-05
0.0112332
7.88784e-05
0.0112188
6.9781e-05
0.011206
6.15511e-05
0.0111946
5.40775e-05
0.0111846
4.72672e-05
0.0111758
4.10416e-05
0.011168
3.5334e-05
0.0111613
3.00875e-05
0.0111555
2.52533e-05
0.0111506
2.07891e-05
0.0111465
1.66586e-05
0.0111431
1.283e-05
0.0111404
9.27531e-06
0.0111383
5.9698e-06
0.0111369
2.89105e-06
0.0111359
1.71218e-08
0.0111355
-2.66542e-06
0.0111355
-5.16582e-06
0.011136
-7.49663e-06
0.0111369
-9.66971e-06
0.0111382
-1.16952e-05
0.0111399
-1.35821e-05
0.0111419
-1.53374e-05
0.0111442
-1.69672e-05
0.0111468
-1.84768e-05
0.0111497
-1.98698e-05
0.0111528
-2.11488e-05
0.0111562
-2.23154e-05
0.0111597
-2.33703e-05
0.0111635
-2.43132e-05
0.0111674
-2.51428e-05
0.0111715
-2.58566e-05
0.0111757
-2.64524e-05
0.01118
-2.69275e-05
0.0111844
-2.72814e-05
0.0111888
-2.75188e-05
0.0111934
-2.76434e-05
0.0111979
-2.76727e-05
0.0112025
-2.76182e-05
0.0112071
-2.75139e-05
0.0112117
-2.73802e-05
0.0112162
-2.72496e-05
0.0112207
-2.71307e-05
0.0112252
-2.70334e-05
0.0112296
-2.69226e-05
0.0112339
-2.67599e-05
0.0112381
-2.64269e-05
0.0112421
-2.5818e-05
0.0112459
-2.4746e-05
0.0112494
-2.30247e-05
0.0112526
-2.07287e-05
-9.88449e-06
0.0145294
0.00455582
0.0145054
0.00260198
0.0144157
0.00229555
0.0142598
0.00197282
0.0140612
0.00165105
0.0138564
0.00135304
0.0136688
0.00110045
0.0135058
0.000899213
0.0133669
0.000742613
0.0132489
0.000620723
0.0131482
0.000524839
0.0130619
0.000448325
0.0129874
0.000386336
0.0129227
0.00033538
0.0128662
0.00029293
0.0128166
0.000257137
0.0127728
0.000226629
0.0127341
0.000200373
0.0126997
0.000177581
0.0126692
0.000157643
0.012642
0.000140079
0.0126177
0.00012451
0.012596
0.000110632
0.0125767
9.81967e-05
0.0125595
8.70035e-05
0.0125442
7.68855e-05
0.0125305
6.77041e-05
0.0125185
5.93433e-05
0.0125078
5.17054e-05
0.0124984
4.47071e-05
0.0124902
3.82779e-05
0.0124831
3.23569e-05
0.012477
2.68919e-05
0.0124718
2.18376e-05
0.0124675
1.71544e-05
0.012464
1.28081e-05
0.0124612
8.76777e-06
0.0124591
5.00666e-06
0.0124576
1.49832e-06
0.0124567
-1.77772e-06
0.0124564
-4.8339e-06
0.0124566
-7.68275e-06
0.0124572
-1.03389e-05
0.0124583
-1.28149e-05
0.0124599
-1.5122e-05
0.0124618
-1.72688e-05
0.0124641
-1.92634e-05
0.0124667
-2.1112e-05
0.0124697
-2.28195e-05
0.0124729
-2.43894e-05
0.0124764
-2.58237e-05
0.0124802
-2.71237e-05
0.0124842
-2.82894e-05
0.0124884
-2.93196e-05
0.0124927
-3.02119e-05
0.0124972
-3.09639e-05
0.0125019
-3.15732e-05
0.0125066
-3.20392e-05
0.0125115
-3.23673e-05
0.0125164
-3.25615e-05
0.0125214
-3.26406e-05
0.0125264
-3.26165e-05
0.0125314
-3.25251e-05
0.0125364
-3.23871e-05
0.0125414
-3.2236e-05
0.0125463
-3.2079e-05
0.0125512
-3.19253e-05
0.012556
-3.17357e-05
0.0125607
-3.14686e-05
0.0125653
-3.09982e-05
0.0125697
-3.02143e-05
0.0125739
-2.89198e-05
0.0125778
-2.69146e-05
0.0125813
-2.43011e-05
-1.16102e-05
0.0159844
0.00451431
0.0159863
0.00260012
0.0159396
0.0023422
0.015838
0.00207445
0.0156829
0.00180618
0.0154978
0.00153813
0.0153103
0.00128793
0.015137
0.00107255
0.0149835
0.000896033
0.0148502
0.000754095
0.0147348
0.000640183
0.014635
0.000548156
0.0145483
0.000473036
0.0144727
0.000411005
0.0144064
0.000359191
0.0143481
0.00031544
0.0142966
0.000278124
0.014251
0.000246004
0.0142104
0.000218126
0.0141743
0.000193748
0.0141421
0.000172285
0.0141134
0.000153272
0.0140877
0.000136334
0.0140647
0.000121167
0.0140442
0.000107525
0.0140259
9.52009e-05
0.0140095
8.40249e-05
0.013995
7.38542e-05
0.0139822
6.45683e-05
0.0139708
5.6065e-05
0.0139608
4.82572e-05
0.0139521
4.10703e-05
0.0139446
3.44398e-05
0.0139381
2.83103e-05
0.0139326
2.26331e-05
0.0139281
1.7366e-05
0.0139244
1.24716e-05
0.0139214
7.91721e-06
0.0139193
3.67227e-06
0.0139178
-2.91522e-07
0.0139169
-3.9924e-06
0.0139167
-7.44318e-06
0.013917
-1.06607e-05
0.0139179
-1.36603e-05
0.0139192
-1.64558e-05
0.013921
-1.90581e-05
0.0139232
-2.1477e-05
0.0139258
-2.37203e-05
0.0139288
-2.57943e-05
0.0139321
-2.77035e-05
0.0139357
-2.94507e-05
0.0139396
-3.10379e-05
0.0139438
-3.24654e-05
0.0139482
-3.37323e-05
0.0139529
-3.48364e-05
0.0139577
-3.57753e-05
0.0139626
-3.65468e-05
0.0139678
-3.71502e-05
0.013973
-3.75916e-05
0.0139783
-3.78752e-05
0.0139837
-3.80206e-05
0.0139891
-3.80403e-05
0.0139945
-3.79712e-05
0.014
-3.78343e-05
0.0140054
-3.76636e-05
0.0140108
-3.7466e-05
0.0140161
-3.72494e-05
0.0140214
-3.69726e-05
0.0140265
-3.65921e-05
0.0140315
-3.59777e-05
0.0140363
-3.50164e-05
0.0140409
-3.35056e-05
0.0140452
-3.12305e-05
0.0140492
-2.83224e-05
-1.35672e-05
0.0175785
0.00445507
0.0175995
0.00257919
0.0175837
0.00235791
0.0175281
0.00213005
0.0174232
0.00191109
0.0172751
0.00168623
0.0171043
0.00145878
0.0169315
0.00124532
0.0167696
0.00105797
0.0166236
0.000900065
0.0164944
0.000769374
0.0163809
0.000661678
0.0162813
0.000572637
0.0161938
0.0004985
0.0161167
0.000436243
0.0160487
0.000383494
0.0159884
0.000338409
0.0159348
0.000299552
0.0158872
0.000265805
0.0158446
0.000236287
0.0158066
0.000210298
0.0157726
0.000187279
0.0157422
0.00016678
0.0157149
0.000148433
0.0156905
0.000131937
0.0156686
0.000117043
0.0156491
0.000103542
0.0156317
9.12625e-05
0.0156162
8.00568e-05
0.0156025
6.98004e-05
0.0155904
6.03873e-05
0.0155797
5.17267e-05
0.0155704
4.37401e-05
0.0155624
3.63596e-05
0.0155555
2.95264e-05
0.0155496
2.31889e-05
0.0155448
1.73017e-05
0.0155409
1.18253e-05
0.0155379
6.72387e-06
0.0155356
1.9631e-06
0.0155341
-2.48436e-06
0.0155333
-6.63462e-06
0.0155331
-1.05044e-05
0.0155336
-1.41128e-05
0.0155346
-1.74761e-05
0.0155361
-2.0608e-05
0.0155382
-2.35205e-05
0.0155407
-2.62234e-05
0.0155436
-2.87243e-05
0.0155469
-3.10293e-05
0.0155506
-3.31421e-05
0.0155547
-3.50655e-05
0.015559
-3.68003e-05
0.0155636
-3.83461e-05
0.0155685
-3.97009e-05
0.0155736
-4.08627e-05
0.0155789
-4.18291e-05
0.0155843
-4.25998e-05
0.0155899
-4.31812e-05
0.0155956
-4.35776e-05
0.0156014
-4.38095e-05
0.0156072
-4.38891e-05
0.0156131
-4.38543e-05
0.015619
-4.37261e-05
0.0156249
-4.3539e-05
0.0156307
-4.32993e-05
0.0156365
-4.30154e-05
0.0156422
-4.26445e-05
0.0156477
-4.2144e-05
0.0156531
-4.13813e-05
0.0156583
-4.02446e-05
0.0156634
-3.85274e-05
0.0156681
-3.60034e-05
0.0156726
-3.28292e-05
-1.57797e-05
0.0193271
0.00437951
0.0193633
0.00254302
0.0193699
0.00235126
0.0193491
0.00215085
0.0192904
0.00196985
0.0191886
0.00178799
0.0190512
0.00159619
0.0188945
0.00140198
0.0187348
0.00121769
0.0185826
0.00105228
0.0184429
0.000909105
0.0183171
0.00078748
0.0182049
0.000684848
0.0181051
0.000598216
0.0180166
0.00052479
0.0179379
0.000462184
0.0178679
0.000408444
0.0178054
0.000361996
0.0177496
0.000321578
0.0176998
0.000286181
0.0176551
0.000254993
0.017615
0.000227358
0.017579
0.000202744
0.0175467
0.000180714
0.0175178
0.000160909
0.0174918
0.000143032
0.0174685
0.000126832
0.0174476
0.000112102
0.017429
9.86651e-05
0.0174125
8.6371e-05
0.0173978
7.50919e-05
0.0173848
6.47182e-05
0.0173734
5.51552e-05
0.0173634
4.6321e-05
0.0173548
3.81444e-05
0.0173474
3.05631e-05
0.0173412
2.35225e-05
0.017336
1.6975e-05
0.0173319
1.08781e-05
0.0173286
5.19244e-06
0.0173263
-1.19518e-07
0.0173247
-5.08097e-06
0.0173239
-9.70875e-06
0.0173238
-1.40245e-05
0.0173244
-1.80479e-05
0.0173256
-2.17958e-05
0.0173274
-2.52826e-05
0.0173297
-2.85203e-05
0.0173325
-3.15187e-05
0.0173357
-3.42852e-05
0.0173394
-3.68248e-05
0.0173435
-3.91413e-05
0.0173479
-4.12364e-05
0.0173527
-4.31103e-05
0.0173577
-4.47614e-05
0.0173631
-4.61879e-05
0.0173686
-4.73877e-05
0.0173744
-4.83608e-05
0.0173803
-4.91136e-05
0.0173864
-4.96508e-05
0.0173926
-4.9993e-05
0.0173988
-5.01523e-05
0.0174051
-5.0167e-05
0.0174115
-5.00579e-05
0.0174178
-4.98599e-05
0.0174241
-4.95792e-05
0.0174303
-4.92251e-05
0.0174364
-4.87554e-05
0.0174424
-4.813e-05
0.0174482
-4.72176e-05
0.0174539
-4.59099e-05
0.0174594
-4.40012e-05
0.0174646
-4.12536e-05
0.0174696
-3.78476e-05
-1.82585e-05
0.0212463
0.00428825
0.0212957
0.00249367
0.0213195
0.00232744
0.0213242
0.00214617
0.0213021
0.00199196
0.0212453
0.00184475
0.0211515
0.00169
0.021027
0.00152649
0.0208846
0.00136013
0.0207372
0.00119968
0.020594
0.0010523
0.02046
0.000921453
0.0203373
0.000807544
0.0202262
0.000709285
0.0201263
0.000624735
0.0200366
0.000551878
0.0199562
0.000488871
0.019884
0.000434123
0.0198193
0.000386304
0.0197612
0.000344313
0.0197089
0.000307245
0.0196619
0.000274358
0.0196196
0.000245039
0.0195816
0.000218784
0.0195473
0.000195173
0.0195165
0.000173856
0.0194888
0.000154539
0.0194639
0.000136976
0.0194416
0.000120956
0.0194217
0.000106301
0.0194039
9.28595e-05
0.0193881
8.04994e-05
0.0193742
6.91079e-05
0.0193619
5.85871e-05
0.0193512
4.88517e-05
0.0193419
3.98272e-05
0.019334
3.14481e-05
0.0193273
2.36574e-05
0.0193218
1.64047e-05
0.0193173
9.6443e-06
0.0193139
3.33183e-06
0.0193114
-2.56766e-06
0.0193097
-8.07585e-06
0.0193089
-1.32134e-05
0.0193089
-1.8004e-05
0.0193096
-2.2468e-05
0.0193109
-2.66227e-05
0.0193129
-3.04828e-05
0.0193154
-3.40603e-05
0.0193185
-3.73646e-05
0.0193221
-4.04022e-05
0.0193261
-4.31782e-05
0.0193306
-4.56953e-05
0.0193354
-4.79544e-05
0.0193406
-4.99547e-05
0.0193461
-5.16947e-05
0.0193519
-5.31728e-05
0.0193579
-5.43891e-05
0.0193642
-5.53504e-05
0.0193706
-5.60611e-05
0.0193771
-5.65423e-05
0.0193838
-5.68052e-05
0.0193905
-5.68886e-05
0.0193972
-5.68123e-05
0.019404
-5.66119e-05
0.0194107
-5.62938e-05
0.0194174
-5.58695e-05
0.0194239
-5.52982e-05
0.0194303
-5.45456e-05
0.0194366
-5.34839e-05
0.0194427
-5.20133e-05
0.0194486
-4.99306e-05
0.0194543
-4.69901e-05
0.0194599
-4.33905e-05
-2.10158e-05
0.0233536
0.00418142
0.0234151
0.0024322
0.0234532
0.00228933
0.0234772
0.00212214
0.0234826
0.00198665
0.0234628
0.0018645
0.0234125
0.0017403
0.02333
0.00160898
0.0232201
0.00147005
0.0230924
0.00132737
0.0229574
0.00118727
0.0228234
0.00105551
0.0226954
0.000935567
0.022576
0.000828655
0.0224663
0.000734457
0.0223663
0.000651894
0.0222755
0.00057961
0.0221934
0.000516238
0.0221192
0.000460522
0.0220521
0.000411361
0.0219916
0.000367808
0.0219369
0.000329066
0.0218874
0.00029446
0.0218428
0.000263425
0.0218025
0.000235487
0.0217661
0.000210244
0.0217333
0.000187358
0.0217037
0.000166541
0.0216771
0.000147551
0.0216532
0.000130177
0.0216319
0.00011424
0.0216128
9.95863e-05
0.0215958
8.60815e-05
0.0215808
7.361e-05
0.0215676
6.20708e-05
0.021556
5.13754e-05
0.021546
4.14461e-05
0.0215375
3.22152e-05
0.0215302
2.3623e-05
0.0215243
1.56158e-05
0.0215195
8.14385e-06
0.0215157
1.16047e-06
0.021513
-5.36647e-06
0.0215113
-1.14579e-05
0.0215104
-1.71394e-05
0.0215104
-2.24352e-05
0.0215111
-2.73661e-05
0.0215126
-3.195e-05
0.0215147
-3.62013e-05
0.0215175
-4.01318e-05
0.0215208
-4.37499e-05
0.0215247
-4.70621e-05
0.0215291
-5.00726e-05
0.0215339
-5.27833e-05
0.0215392
-5.51941e-05
0.0215448
-5.73042e-05
0.0215507
-5.91126e-05
0.0215569
-6.06197e-05
0.0215634
-6.18327e-05
0.0215701
-6.27556e-05
0.021577
-6.34095e-05
0.021584
-6.38051e-05
0.0215911
-6.39805e-05
0.0215982
-6.39551e-05
0.0216054
-6.37647e-05
0.0216125
-6.34165e-05
0.0216196
-6.29244e-05
0.0216265
-6.22519e-05
0.0216333
-6.13717e-05
0.02164
-6.01639e-05
0.0216465
-5.85395e-05
0.0216529
-5.63035e-05
0.0216591
-5.32032e-05
0.0216652
-4.94512e-05
-2.40448e-05
0.025668
0.00405883
0.0257411
0.00235909
0.025792
0.00223841
0.0258318
0.00208235
0.025858
0.00196046
0.0258665
0.00185601
0.0258526
0.00175414
0.0258122
0.00164945
0.0257435
0.00153871
0.0256497
0.00142115
0.0255378
0.00129914
0.0254163
0.00117709
0.0252923
0.00105955
0.0251711
0.000949846
0.0250558
0.000849723
0.0249481
0.000759626
0.0248485
0.000679192
0.0247571
0.000607648
0.0246736
0.000544065
0.0245974
0.000487505
0.0245281
0.000437091
0.0244652
0.000392034
0.024408
0.000351644
0.0243561
0.000315323
0.024309
0.000282556
0.0242664
0.000252903
0.0242277
0.000225985
0.0241928
0.000201478
0.0241612
0.000179105
0.0241328
0.000158625
0.0241072
0.000139832
0.0240842
0.000122546
0.0240637
0.000106613
0.0240454
9.18968e-05
0.0240292
7.82794e-05
0.0240149
6.56571e-05
0.0240024
5.39387e-05
0.0239916
4.30444e-05
0.0239823
3.29039e-05
0.0239745
2.34546e-05
0.023968
1.46393e-05
0.0239628
6.40477e-06
0.0239587
-1.29622e-06
0.0239557
-8.49213e-06
0.0239538
-1.52064e-05
0.0239528
-2.14672e-05
0.0239527
-2.7299e-05
0.0239535
-3.27232e-05
0.0239551
-3.77574e-05
0.0239574
-4.24161e-05
0.0239603
-4.67097e-05
0.0239639
-5.06468e-05
0.0239681
-5.4233e-05
0.0239728
-5.74717e-05
0.0239779
-6.03637e-05
0.0239835
-6.29093e-05
0.0239895
-6.51081e-05
0.0239959
-6.6961e-05
0.0240025
-6.84755e-05
0.0240094
-6.96556e-05
0.0240165
-7.0522e-05
0.0240238
-7.10845e-05
0.0240312
-7.13809e-05
0.0240387
-7.14292e-05
0.0240462
-7.12657e-05
0.0240537
-7.08985e-05
0.0240611
-7.03457e-05
0.0240684
-6.95749e-05
0.0240756
-6.85699e-05
0.0240827
-6.72205e-05
0.0240896
-6.54541e-05
0.0240964
-6.30857e-05
0.024103
-5.98611e-05
0.0241096
-5.59982e-05
-2.73355e-05
0.02821
0.00392004
0.0282946
0.00227448
0.0283577
0.00217531
0.0284114
0.00202872
0.0284545
0.00191736
0.0284846
0.00182582
0.028499
0.00173975
0.0284939
0.00165457
0.0284658
0.00156685
0.0284129
0.00147399
0.0283369
0.00137516
0.0282424
0.00127159
0.0281359
0.00116607
0.0280237
0.00106203
0.027911
0.000962457
0.0278012
0.000869359
0.0276967
0.000783741
0.0275985
0.00070584
0.0275072
0.000635404
0.0274227
0.000571917
0.0273451
0.000514754
0.0272738
0.000463267
0.0272087
0.000416832
0.0271491
0.000374877
0.0270948
0.000336886
0.0270453
0.000302404
0.0270002
0.000271029
0.0269593
0.000242411
0.0269222
0.000216246
0.0268885
0.000192267
0.0268581
0.000170242
0.0268307
0.000149969
0.026806
0.000131271
0.0267839
0.000113992
0.0267642
9.79975e-05
0.0267467
8.31672e-05
0.0267312
6.93955e-05
0.0267177
5.65897e-05
0.0267059
4.46678e-05
0.0266958
3.35573e-05
0.0266873
2.31924e-05
0.0266802
1.35134e-05
0.0266744
4.46303e-06
0.0266699
-4.00266e-06
0.0266666
-1.19114e-05
0.0266644
-1.9289e-05
0.0266633
-2.61637e-05
0.0266631
-3.25615e-05
0.0266639
-3.85034e-05
0.0266655
-4.40067e-05
0.0266679
-4.90847e-05
0.026671
-5.3748e-05
0.0266747
-5.80042e-05
0.0266791
-6.18583e-05
0.0266841
-6.53126e-05
0.0266895
-6.83684e-05
0.0266954
-7.10263e-05
0.0267018
-7.32879e-05
0.0267085
-7.51612e-05
0.0267154
-7.66503e-05
0.0267227
-7.77755e-05
0.0267302
-7.85455e-05
0.0267378
-7.89973e-05
0.0267455
-7.91479e-05
0.0267533
-7.90336e-05
0.026761
-7.86639e-05
0.0267688
-7.80611e-05
0.0267764
-7.71996e-05
0.0267839
-7.60749e-05
0.0267912
-7.4591e-05
0.0267985
-7.26941e-05
0.0268056
-7.02154e-05
0.0268127
-6.69006e-05
0.0268196
-6.29664e-05
-3.08497e-05
0.0310025
0.00376437
0.0310986
0.00217833
0.0311738
0.00210012
0.0312404
0.00196217
0.0312982
0.00185951
0.0313461
0.00177799
0.0313824
0.00170341
0.0314049
0.00163208
0.0314106
0.00156114
0.0313966
0.00148794
0.0313612
0.00141063
0.0313045
0.00132831
0.0312292
0.00124132
0.03114
0.00115123
0.0310421
0.00106038
0.0309402
0.000971214
0.0308382
0.000885745
0.0307387
0.000805322
0.0306435
0.000730648
0.0305535
0.00066193
0.0304692
0.000599048
0.0303908
0.000541688
0.0303182
0.00048944
0.0302512
0.000441861
0.0301896
0.000398507
0.030133
0.00035896
0.0300812
0.000322832
0.0300338
0.000289771
0.0299906
0.000259464