/*--------------------------------*- C++ -*----------------------------------*\
  =========                 |
  \\      /  F ield         | OpenFOAM: The Open Source CFD Toolbox
   \\    /   O peration     | Website:  https://openfoam.org
    \\  /    A nd           | Version:  7
     \\/     M anipulation  |
\*---------------------------------------------------------------------------*/
FoamFile
{
    version     2.0;
    format      ascii;
    class       volVectorField;
    location    "850";
    object      U;
}
// * * * * * * * * * * * * * * * * * * * * * * * * * * * * * * * * * * * * * //

dimensions      [0 1 -1 0 0 0 0];

internalField   nonuniform List<vector> 
4500
(
(15.4058 -0.778201 0)
(13.7077 -0.0619025 0)
(13.0325 -0.00325615 0)
(12.6708 0.00046499 0)
(12.4331 0.00050143 0)
(12.2594 0.000386177 0)
(12.125 0.000303744 0)
(12.0172 0.000246405 0)
(11.9286 0.0002045 0)
(11.8542 0.000172559 0)
(11.7911 0.000147435 0)
(11.7368 0.000127187 0)
(11.6898 0.000110546 0)
(11.6488 9.66465e-05 0)
(11.6128 8.48803e-05 0)
(11.5812 7.48045e-05 0)
(11.5533 6.60903e-05 0)
(11.5286 5.84884e-05 0)
(11.5067 5.18062e-05 0)
(11.4874 4.58927e-05 0)
(11.4702 4.0628e-05 0)
(11.455 3.59156e-05 0)
(11.4416 3.16771e-05 0)
(11.4298 2.7848e-05 0)
(11.4194 2.43751e-05 0)
(11.4104 2.12138e-05 0)
(11.4025 1.83266e-05 0)
(11.3958 1.5682e-05 0)
(11.39 1.32531e-05 0)
(11.3852 1.10163e-05 0)
(11.3812 8.95207e-06 0)
(11.378 7.04316e-06 0)
(11.3755 5.27476e-06 0)
(11.3738 3.63383e-06 0)
(11.3726 2.10879e-06 0)
(11.372 6.86557e-07 0)
(11.372 -6.45617e-07 0)
(11.3725 -1.88434e-06 0)
(11.3734 -3.03181e-06 0)
(11.3748 -4.1007e-06 0)
(11.3766 -5.09803e-06 0)
(11.3788 -6.0282e-06 0)
(11.3814 -6.89567e-06 0)
(11.3842 -7.70332e-06 0)
(11.3874 -8.45448e-06 0)
(11.3909 -9.15004e-06 0)
(11.3946 -9.7928e-06 0)
(11.3986 -1.03846e-05 0)
(11.4028 -1.09261e-05 0)
(11.4072 -1.14184e-05 0)
(11.4118 -1.18592e-05 0)
(11.4166 -1.22504e-05 0)
(11.4215 -1.25927e-05 0)
(11.4265 -1.28836e-05 0)
(11.4316 -1.31188e-05 0)
(11.4369 -1.32958e-05 0)
(11.4421 -1.34039e-05 0)
(11.4474 -1.34394e-05 0)
(11.4528 -1.34088e-05 0)
(11.458 -1.32935e-05 0)
(11.4633 -1.31207e-05 0)
(11.4684 -1.28767e-05 0)
(11.4735 -1.26258e-05 0)
(11.4785 -1.23884e-05 0)
(11.4834 -1.22393e-05 0)
(11.4883 -1.22109e-05 0)
(11.4932 -1.23876e-05 0)
(11.4981 -1.27901e-05 0)
(11.5033 -1.3466e-05 0)
(11.5086 -1.43209e-05 0)
(11.5143 -1.52959e-05 0)
(11.5202 -1.61739e-05 0)
(11.5264 -1.67688e-05 0)
(11.5325 -1.67863e-05 0)
(11.5385 -9.00513e-06 0)
(17.5879 0.16307 0)
(16.0152 0.0238108 0)
(15.1976 0.00458796 0)
(14.7348 0.00198899 0)
(14.4341 0.00129709 0)
(14.2183 0.000960549 0)
(14.0538 0.000751469 0)
(13.9232 0.000608021 0)
(13.8165 0.000503607 0)
(13.7275 0.000424282 0)
(13.6522 0.000362065 0)
(13.5878 0.000312044 0)
(13.532 0.000271017 0)
(13.4835 0.000236811 0)
(13.441 0.000207895 0)
(13.4037 0.000183163 0)
(13.3708 0.000161797 0)
(13.3416 0.000143174 0)
(13.3158 0.000126818 0)
(13.293 0.000112353 0)
(13.2728 9.94828e-05 0)
(13.2548 8.79693e-05 0)
(13.239 7.76187e-05 0)
(13.225 6.82721e-05 0)
(13.2127 5.97982e-05 0)
(13.202 5.20874e-05 0)
(13.1926 4.50477e-05 0)
(13.1846 3.86011e-05 0)
(13.1777 3.26819e-05 0)
(13.1718 2.72325e-05 0)
(13.167 2.22045e-05 0)
(13.1631 1.75559e-05 0)
(13.16 1.32502e-05 0)
(13.1577 9.25552e-06 0)
(13.1562 5.5437e-06 0)
(13.1553 2.08658e-06 0)
(13.1551 -1.1458e-06 0)
(13.1554 -4.1557e-06 0)
(13.1563 -6.94956e-06 0)
(13.1577 -9.55284e-06 0)
(13.1596 -1.19812e-05 0)
(13.1619 -1.4246e-05 0)
(13.1647 -1.63576e-05 0)
(13.1678 -1.83237e-05 0)
(13.1713 -2.01518e-05 0)
(13.1751 -2.18458e-05 0)
(13.1793 -2.34117e-05 0)
(13.1837 -2.48535e-05 0)
(13.1884 -2.61733e-05 0)
(13.1933 -2.73732e-05 0)
(13.1984 -2.84503e-05 0)
(13.2037 -2.94073e-05 0)
(13.2093 -3.02438e-05 0)
(13.2149 -3.09544e-05 0)
(13.2207 -3.15313e-05 0)
(13.2266 -3.19679e-05 0)
(13.2325 -3.22467e-05 0)
(13.2385 -3.23607e-05 0)
(13.2445 -3.23186e-05 0)
(13.2505 -3.20977e-05 0)
(13.2565 -3.17465e-05 0)
(13.2624 -3.12603e-05 0)
(13.2682 -3.0755e-05 0)
(13.274 -3.02859e-05 0)
(13.2797 -2.99932e-05 0)
(13.2854 -2.99526e-05 0)
(13.2911 -3.03074e-05 0)
(13.2969 -3.10833e-05 0)
(13.3028 -3.23244e-05 0)
(13.3089 -3.38285e-05 0)
(13.3151 -3.54159e-05 0)
(13.3214 -3.66297e-05 0)
(13.3277 -3.70236e-05 0)
(13.3337 -3.61476e-05 0)
(13.3392 -1.83399e-05 0)
(18.7449 0.0973745 0)
(17.3725 0.0156216 0)
(16.4743 0.00605636 0)
(15.9331 0.00350033 0)
(15.5795 0.00236975 0)
(15.3279 0.00174957 0)
(15.138 0.00136082 0)
(14.9886 0.00109591 0)
(14.8673 0.000904526 0)
(14.7668 0.000760049 0)
(14.6821 0.000647306 0)
(14.6098 0.000557034 0)
(14.5474 0.000483241 0)
(14.4932 0.000421882 0)
(14.4459 0.000370133 0)
(14.4043 0.000325958 0)
(14.3676 0.000287856 0)
(14.3353 0.000254694 0)
(14.3066 0.000225603 0)
(14.2812 0.000199905 0)
(14.2586 0.000177063 0)
(14.2387 0.000156645 0)
(14.221 0.000138304 0)
(14.2054 0.000121753 0)
(14.1917 0.000106756 0)
(14.1796 9.3118e-05 0)
(14.1691 8.06728e-05 0)
(14.16 6.92815e-05 0)
(14.1522 5.88261e-05 0)
(14.1456 4.92043e-05 0)
(14.14 4.03295e-05 0)
(14.1355 3.21267e-05 0)
(14.1319 2.45309e-05 0)
(14.1291 1.74853e-05 0)
(14.1271 1.09401e-05 0)
(14.1259 4.85001e-06 0)
(14.1254 -8.39657e-07 0)
(14.1255 -6.14602e-06 0)
(14.1262 -1.10773e-05 0)
(14.1275 -1.56703e-05 0)
(14.1293 -1.99536e-05 0)
(14.1315 -2.39482e-05 0)
(14.1343 -2.76725e-05 0)
(14.1374 -3.11407e-05 0)
(14.141 -3.43662e-05 0)
(14.1449 -3.73572e-05 0)
(14.1491 -4.01236e-05 0)
(14.1537 -4.26725e-05 0)
(14.1585 -4.50082e-05 0)
(14.1637 -4.71339e-05 0)
(14.169 -4.90465e-05 0)
(14.1746 -5.07491e-05 0)
(14.1804 -5.22398e-05 0)
(14.1863 -5.35104e-05 0)
(14.1924 -5.45492e-05 0)
(14.1985 -5.53456e-05 0)
(14.2048 -5.58767e-05 0)
(14.2111 -5.61339e-05 0)
(14.2175 -5.61313e-05 0)
(14.2239 -5.58477e-05 0)
(14.2302 -5.53577e-05 0)
(14.2365 -5.46714e-05 0)
(14.2428 -5.39594e-05 0)
(14.2489 -5.33123e-05 0)
(14.2551 -5.29291e-05 0)
(14.2612 -5.29132e-05 0)
(14.2674 -5.3441e-05 0)
(14.2736 -5.45098e-05 0)
(14.2799 -5.61195e-05 0)
(14.2862 -5.79137e-05 0)
(14.2926 -5.95512e-05 0)
(14.2989 -6.03042e-05 0)
(14.305 -5.94457e-05 0)
(14.3106 -5.64762e-05 0)
(14.3155 -2.79958e-05 0)
(19.3754 0.0462247 0)
(18.326 0.0150409 0)
(17.4307 0.00910101 0)
(16.8356 0.00564414 0)
(16.435 0.00383709 0)
(16.1491 0.00281757 0)
(15.9342 0.00217867 0)
(15.7661 0.00174595 0)
(15.6305 0.00143549 0)
(15.5186 0.00120258 0)
(15.4247 0.00102181 0)
(15.3447 0.000877711 0)
(15.276 0.000760364 0)
(15.2164 0.000663101 0)
(15.1644 0.00058129 0)
(15.1188 0.000511614 0)
(15.0786 0.000451637 0)
(15.0431 0.000399526 0)
(15.0117 0.000353883 0)
(14.9839 0.000313616 0)
(14.9592 0.000277866 0)
(14.9373 0.000245946 0)
(14.9179 0.000217299 0)
(14.9007 0.00019147 0)
(14.8856 0.000168085 0)
(14.8723 0.000146833 0)
(14.8607 0.000127453 0)
(14.8505 0.000109724 0)
(14.8418 9.34601e-05 0)
(14.8343 7.84999e-05 0)
(14.8281 6.47072e-05 0)
(14.8228 5.19637e-05 0)
(14.8186 4.01672e-05 0)
(14.8154 2.92284e-05 0)
(14.8129 1.90692e-05 0)
(14.8113 9.62024e-06 0)
(14.8104 7.99952e-07 0)
(14.8102 -7.43251e-06 0)
(14.8106 -1.50917e-05 0)
(14.8117 -2.22225e-05 0)
(14.8133 -2.88706e-05 0)
(14.8154 -3.50701e-05 0)
(14.818 -4.085e-05 0)
(14.8211 -4.62335e-05 0)
(14.8246 -5.12416e-05 0)
(14.8284 -5.58882e-05 0)
(14.8327 -6.01889e-05 0)
(14.8373 -6.41546e-05 0)
(14.8422 -6.77923e-05 0)
(14.8473 -7.11074e-05 0)
(14.8528 -7.40967e-05 0)
(14.8585 -7.67636e-05 0)
(14.8643 -7.91047e-05 0)
(14.8704 -8.11091e-05 0)
(14.8766 -8.27607e-05 0)
(14.883 -8.40454e-05 0)
(14.8894 -8.49356e-05 0)
(14.896 -8.54225e-05 0)
(14.9025 -8.55278e-05 0)
(14.9091 -8.52352e-05 0)
(14.9157 -8.46477e-05 0)
(14.9223 -8.37951e-05 0)
(14.9288 -8.29013e-05 0)
(14.9353 -8.20926e-05 0)
(14.9417 -8.16192e-05 0)
(14.9482 -8.16037e-05 0)
(14.9546 -8.22359e-05 0)
(14.961 -8.34639e-05 0)
(14.9675 -8.52126e-05 0)
(14.974 -8.69511e-05 0)
(14.9803 -8.81492e-05 0)
(14.9865 -8.78002e-05 0)
(14.9924 -8.487e-05 0)
(14.9976 -7.89248e-05 0)
(15.0022 -3.85342e-05 0)
(19.693 0.0456702 0)
(18.9995 0.0202329 0)
(18.1918 0.0128969 0)
(17.577 0.00823931 0)
(17.1407 0.00564736 0)
(16.8239 0.00414117 0)
(16.5849 0.00318982 0)
(16.3982 0.00254609 0)
(16.2481 0.00208608 0)
(16.1247 0.00174263 0)
(16.0214 0.00147727 0)
(15.9337 0.00126663 0)
(15.8585 0.0010957 0)
(15.7934 0.000954472 0)
(15.7367 0.000836004 0)
(15.687 0.000735347 0)
(15.6433 0.00064888 0)
(15.6047 0.000573892 0)
(15.5705 0.000508315 0)
(15.5402 0.000450546 0)
(15.5133 0.000399323 0)
(15.4895 0.000353639 0)
(15.4683 0.000312682 0)
(15.4496 0.000275789 0)
(15.4331 0.000242416 0)
(15.4185 0.00021211 0)
(15.4057 0.000184492 0)
(15.3945 0.000159243 0)
(15.3848 0.000136094 0)
(15.3765 0.000114812 0)
(15.3694 9.51998e-05 0)
(15.3635 7.70875e-05 0)
(15.3587 6.03275e-05 0)
(15.3548 4.47913e-05 0)
(15.3518 3.03665e-05 0)
(15.3497 1.69541e-05 0)
(15.3484 4.44694e-06 0)
(15.3479 -7.23125e-06 0)
(15.348 -1.81103e-05 0)
(15.3487 -2.82364e-05 0)
(15.3501 -3.76748e-05 0)
(15.352 -4.64753e-05 0)
(15.3544 -5.46804e-05 0)
(15.3573 -6.23239e-05 0)
(15.3606 -6.94364e-05 0)
(15.3644 -7.60391e-05 0)
(15.3686 -8.21542e-05 0)
(15.3731 -8.77977e-05 0)
(15.3779 -9.29803e-05 0)
(15.3831 -9.77098e-05 0)
(15.3885 -0.000101984 0)
(15.3942 -0.000105805 0)
(15.4001 -0.000109171 0)
(15.4063 -0.000112066 0)
(15.4126 -0.000114472 0)
(15.419 -0.000116371 0)
(15.4255 -0.000117732 0)
(15.4322 -0.000118547 0)
(15.4389 -0.000118846 0)
(15.4456 -0.000118621 0)
(15.4524 -0.000118001 0)
(15.4591 -0.000117037 0)
(15.4658 -0.000116 0)
(15.4725 -0.000115047 0)
(15.4792 -0.000114467 0)
(15.4858 -0.000114391 0)
(15.4924 -0.000115004 0)
(15.499 -0.000116192 0)
(15.5056 -0.000117791 0)
(15.5121 -0.000119094 0)
(15.5184 -0.000119384 0)
(15.5245 -0.0001174 0)
(15.5302 -0.000111815 0)
(15.5352 -0.000102362 0)
(15.5395 -4.94478e-05 0)
(19.8488 0.0504549 0)
(19.4507 0.0244881 0)
(18.7997 0.016652 0)
(18.2081 0.0111579 0)
(17.7532 0.007791 0)
(17.4116 0.00573675 0)
(17.1505 0.00441439 0)
(16.9458 0.00351467 0)
(16.7812 0.00287186 0)
(16.6461 0.00239313 0)
(16.5332 0.00202448 0)
(16.4376 0.00173281 0)
(16.3557 0.00149689 0)
(16.2849 0.00130252 0)
(16.2233 0.00113989 0)
(16.1694 0.00100204 0)
(16.122 0.00088386 0)
(16.0802 0.000781559 0)
(16.0431 0.000692243 0)
(16.0103 0.000613679 0)
(15.9812 0.000544108 0)
(15.9553 0.000482135 0)
(15.9323 0.000426635 0)
(15.9119 0.000376692 0)
(15.8939 0.000331554 0)
(15.8779 0.000290597 0)
(15.8639 0.000253302 0)
(15.8516 0.000219229 0)
(15.8409 0.000188008 0)
(15.8317 0.000159322 0)
(15.8238 0.000132901 0)
(15.8171 0.000108511 0)
(15.8115 8.59519e-05 0)
(15.807 6.50476e-05 0)
(15.8035 4.56451e-05 0)
(15.8009 2.76095e-05 0)
(15.7991 1.08069e-05 0)
(15.7981 -4.88192e-06 0)
(15.7978 -1.95132e-05 0)
(15.7982 -3.31335e-05 0)
(15.7992 -4.58265e-05 0)
(15.8008 -5.76605e-05 0)
(15.803 -6.86938e-05 0)
(15.8057 -7.89735e-05 0)
(15.8088 -8.85415e-05 0)
(15.8124 -9.74283e-05 0)
(15.8164 -0.000105664 0)
(15.8208 -0.000113271 0)
(15.8256 -0.000120265 0)
(15.8307 -0.000126656 0)
(15.836 -0.000132443 0)
(15.8417 -0.000137631 0)
(15.8476 -0.000142215 0)
(15.8537 -0.000146179 0)
(15.86 -0.0001495 0)
(15.8665 -0.000152158 0)
(15.8731 -0.000154119 0)
(15.8798 -0.000155378 0)
(15.8865 -0.000155974 0)
(15.8934 -0.000155906 0)
(15.9002 -0.000155329 0)
(15.9071 -0.000154313 0)
(15.9139 -0.00015317 0)
(15.9207 -0.000152083 0)
(15.9275 -0.000151368 0)
(15.9343 -0.000151155 0)
(15.941 -0.000151614 0)
(15.9477 -0.000152561 0)
(15.9543 -0.000153737 0)
(15.9608 -0.000154269 0)
(15.9671 -0.000153268 0)
(15.9731 -0.000149243 0)
(15.9787 -0.000140602 0)
(15.9836 -0.000127319 0)
(15.9879 -6.106e-05 0)
(19.929 0.0521809 0)
(19.7286 0.0270124 0)
(19.2674 0.0200258 0)
(18.7457 0.0142434 0)
(18.2961 0.0102331 0)
(17.9397 0.00761459 0)
(17.6607 0.00587475 0)
(17.4395 0.00467512 0)
(17.2609 0.0038141 0)
(17.114 0.00317259 0)
(16.9914 0.00267928 0)
(16.8876 0.00228985 0)
(16.7988 0.00197561 0)
(16.7221 0.00171734 0)
(16.6554 0.00150174 0)
(16.597 0.00131938 0)
(16.5458 0.00116334 0)
(16.5005 0.00102851 0)
(16.4605 0.000910981 0)
(16.4249 0.000807752 0)
(16.3934 0.000716463 0)
(16.3654 0.000635242 0)
(16.3405 0.000562585 0)
(16.3183 0.000497269 0)
(16.2987 0.000438292 0)
(16.2813 0.000384824 0)
(16.266 0.000336173 0)
(16.2525 0.000291758 0)
(16.2407 0.000251088 0)
(16.2305 0.000213742 0)
(16.2216 0.000179363 0)
(16.2141 0.000147643 0)
(16.2078 0.000118317 0)
(16.2026 9.11525e-05 0)
(16.1984 6.59488e-05 0)
(16.1952 4.25281e-05 0)
(16.1929 2.07244e-05 0)
(16.1914 3.75226e-07 0)
(16.1906 -1.8617e-05 0)
(16.1906 -3.63073e-05 0)
(16.1913 -5.27902e-05 0)
(16.1925 -6.81565e-05 0)
(16.1944 -8.24829e-05 0)
(16.1968 -9.58326e-05 0)
(16.1997 -0.000108261 0)
(16.2031 -0.00011981 0)
(16.2069 -0.00013052 0)
(16.2111 -0.00014042 0)
(16.2157 -0.000149532 0)
(16.2207 -0.00015787 0)
(16.226 -0.000165437 0)
(16.2315 -0.000172236 0)
(16.2373 -0.000178265 0)
(16.2434 -0.000183504 0)
(16.2497 -0.000187929 0)
(16.2561 -0.000191517 0)
(16.2627 -0.000194234 0)
(16.2694 -0.000196075 0)
(16.2762 -0.000197088 0)
(16.2831 -0.00019728 0)
(16.29 -0.000196832 0)
(16.2969 -0.000195829 0)
(16.3038 -0.00019462 0)
(16.3107 -0.000193404 0)
(16.3176 -0.000192522 0)
(16.3244 -0.000192094 0)
(16.3312 -0.000192268 0)
(16.3379 -0.000192788 0)
(16.3446 -0.000193306 0)
(16.3511 -0.000192793 0)
(16.3574 -0.000190206 0)
(16.3633 -0.000183858 0)
(16.3689 -0.000171911 0)
(16.3738 -0.000154632 0)
(16.3781 -7.38327e-05 0)
(19.9739 0.052718 0)
(19.8889 0.0285834 0)
(19.6025 0.0227995 0)
(19.1903 0.0172661 0)
(18.776 0.0128803 0)
(18.4202 0.00975677 0)
(18.1302 0.00758162 0)
(17.8955 0.00604682 0)
(17.7042 0.0049334 0)
(17.546 0.00410026 0)
(17.4137 0.00345889 0)
(17.3016 0.00295286 0)
(17.2056 0.00254508 0)
(17.1228 0.00221049 0)
(17.0508 0.0019317 0)
(16.9878 0.00169629 0)
(16.9324 0.00149522 0)
(16.8836 0.00132175 0)
(16.8404 0.00117077 0)
(16.802 0.00103835 0)
(16.7679 0.000921395 0)
(16.7376 0.000817464 0)
(16.7106 0.000724594 0)
(16.6866 0.000641191 0)
(16.6653 0.000565954 0)
(16.6463 0.000497803 0)
(16.6296 0.000435842 0)
(16.6148 0.000379317 0)
(16.6019 0.000327592 0)
(16.5905 0.000280125 0)
(16.5807 0.000236455 0)
(16.5723 0.000196182 0)
(16.5651 0.000158966 0)
(16.5592 0.000124509 0)
(16.5543 9.25496e-05 0)
(16.5504 6.28617e-05 0)
(16.5475 3.52379e-05 0)
(16.5454 9.4774e-06 0)
(16.5442 -1.45751e-05 0)
(16.5437 -3.6999e-05 0)
(16.5439 -5.78902e-05 0)
(16.5448 -7.73652e-05 0)
(16.5463 -9.55223e-05 0)
(16.5483 -0.000112444 0)
(16.5509 -0.000128201 0)
(16.554 -0.00014285 0)
(16.5576 -0.000156442 0)
(16.5616 -0.000169016 0)
(16.566 -0.000180602 0)
(16.5708 -0.000191219 0)
(16.5759 -0.000200872 0)
(16.5813 -0.000209568 0)
(16.587 -0.000217304 0)
(16.593 -0.000224061 0)
(16.5992 -0.000229812 0)
(16.6055 -0.000234532 0)
(16.6121 -0.000238186 0)
(16.6188 -0.000240771 0)
(16.6255 -0.000242345 0)
(16.6324 -0.000242922 0)
(16.6393 -0.000242702 0)
(16.6463 -0.000241787 0)
(16.6532 -0.000240555 0)
(16.6602 -0.000239221 0)
(16.6671 -0.00023814 0)
(16.674 -0.000237422 0)
(16.6808 -0.000237189 0)
(16.6875 -0.000237119 0)
(16.6942 -0.000236779 0)
(16.7006 -0.000235005 0)
(16.7069 -0.000230622 0)
(16.7128 -0.000221772 0)
(16.7184 -0.000206394 0)
(16.7233 -0.000185083 0)
(16.7277 -8.81931e-05 0)
(20.0011 0.0528694 0)
(19.9807 0.0295175 0)
(19.8226 0.0248232 0)
(19.5371 0.019951 0)
(19.1896 0.0155661 0)
(18.8549 0.0120995 0)
(18.5647 0.00952307 0)
(18.3221 0.00763897 0)
(18.1205 0.00624631 0)
(17.9523 0.0051943 0)
(17.8107 0.00438085 0)
(17.6905 0.00373795 0)
(17.5873 0.00321978 0)
(17.4983 0.00279489 0)
(17.4207 0.00244122 0)
(17.3529 0.00214297 0)
(17.2933 0.00188857 0)
(17.2407 0.00166939 0)
(17.194 0.00147888 0)
(17.1527 0.00131199 0)
(17.1159 0.00116477 0)
(17.0831 0.00103409 0)
(17.0539 0.000917445 0)
(17.0279 0.000812793 0)
(17.0047 0.000718472 0)
(16.9842 0.000633109 0)
(16.9659 0.00055556 0)
(16.9497 0.000484867 0)
(16.9355 0.000420221 0)
(16.923 0.000360934 0)
(16.9121 0.000306421 0)
(16.9027 0.000256176 0)
(16.8946 0.000209767 0)
(16.8878 0.000166816 0)
(16.8821 0.000126996 0)
(16.8775 9.00182e-05 0)
(16.8739 5.56257e-05 0)
(16.8712 2.35805e-05 0)
(16.8694 -6.3394e-06 0)
(16.8684 -3.42581e-05 0)
(16.8681 -6.02737e-05 0)
(16.8685 -8.45243e-05 0)
(16.8696 -0.000107134 0)
(16.8713 -0.000128207 0)
(16.8735 -0.000147835 0)
(16.8763 -0.00016609 0)
(16.8796 -0.000183037 0)
(16.8833 -0.000198728 0)
(16.8875 -0.000213198 0)
(16.892 -0.000226478 0)
(16.8969 -0.000238574 0)
(16.9022 -0.000249499 0)
(16.9077 -0.00025925 0)
(16.9135 -0.000267807 0)
(16.9196 -0.000275143 0)
(16.9259 -0.000281232 0)
(16.9323 -0.000286038 0)
(16.9389 -0.000289561 0)
(16.9456 -0.000291865 0)
(16.9525 -0.000292972 0)
(16.9593 -0.000293102 0)
(16.9663 -0.000292365 0)
(16.9732 -0.000291166 0)
(16.9802 -0.000289732 0)
(16.9871 -0.000288429 0)
(16.994 -0.000287352 0)
(17.0008 -0.000286603 0)
(17.0075 -0.000285797 0)
(17.0142 -0.000284434 0)
(17.0206 -0.000281231 0)
(17.0268 -0.000274908 0)
(17.0328 -0.000263465 0)
(17.0383 -0.000244636 0)
(17.0434 -0.000219361 0)
(17.0479 -0.000104514 0)
(20.0187 0.0527445 0)
(20.0354 0.0299682 0)
(19.9582 0.026127 0)
(19.7862 0.0220655 0)
(19.5283 0.0180611 0)
(19.2388 0.0145161 0)
(18.9637 0.0116492 0)
(18.7216 0.00944108 0)
(18.5144 0.00775985 0)
(18.3385 0.00646875 0)
(18.189 0.00546134 0)
(18.0611 0.00466132 0)
(17.951 0.00401502 0)
(17.8557 0.00348461 0)
(17.7726 0.00304311 0)
(17.6999 0.00267097 0)
(17.6358 0.00235379 0)
(17.5792 0.00208078 0)
(17.5291 0.00184373 0)
(17.4845 0.00163628 0)
(17.4448 0.00145347 0)
(17.4094 0.00129135 0)
(17.3779 0.00114679 0)
(17.3497 0.0010172 0)
(17.3246 0.000900514 0)
(17.3023 0.000794993 0)
(17.2824 0.000699205 0)
(17.2647 0.000611947 0)
(17.2491 0.000532207 0)
(17.2353 0.000459124 0)
(17.2232 0.000391963 0)
(17.2127 0.000330094 0)
(17.2036 0.000272976 0)
(17.1959 0.000220138 0)
(17.1894 0.000171171 0)
(17.184 0.000125716 0)
(17.1796 8.3454e-05 0)
(17.1762 4.41031e-05 0)
(17.1738 7.38129e-06 0)
(17.1722 -2.69058e-05 0)
(17.1713 -5.88763e-05 0)
(17.1713 -8.86762e-05 0)
(17.1719 -0.00011646 0)
(17.1731 -0.000142359 0)
(17.1749 -0.000166487 0)
(17.1773 -0.000188935 0)
(17.1803 -0.000209786 0)
(17.1837 -0.000229104 0)
(17.1875 -0.000246939 0)
(17.1918 -0.000263327 0)
(17.1965 -0.000278282 0)
(17.2015 -0.000291821 0)
(17.2068 -0.000303943 0)
(17.2124 -0.000314631 0)
(17.2183 -0.000323856 0)
(17.2244 -0.000331594 0)
(17.2308 -0.000337805 0)
(17.2373 -0.000342493 0)
(17.2439 -0.00034573 0)
(17.2506 -0.000347542 0)
(17.2574 -0.000348164 0)
(17.2643 -0.000347716 0)
(17.2712 -0.000346625 0)
(17.2781 -0.000345122 0)
(17.285 -0.000343583 0)
(17.2919 -0.000342093 0)
(17.2987 -0.000340731 0)
(17.3054 -0.000339065 0)
(17.3119 -0.000336541 0)
(17.3184 -0.000331782 0)
(17.3246 -0.000323432 0)
(17.3305 -0.000309379 0)
(17.3361 -0.000287165 0)
(17.3412 -0.00025808 0)
(17.3459 -0.000123126 0)
(20.0306 0.0523702 0)
(20.0698 0.03007 0)
(20.0406 0.0268629 0)
(19.9512 0.0235191 0)
(19.7855 0.0201272 0)
(19.5621 0.0168135 0)
(19.3211 0.0138542 0)
(19.0917 0.0114083 0)
(18.8862 0.0094621 0)
(18.7068 0.00792766 0)
(18.5516 0.00671164 0)
(18.4174 0.00573709 0)
(18.3011 0.00494558 0)
(18.1999 0.00429407 0)
(18.1114 0.00375094 0)
(18.0336 0.00329287 0)
(17.9651 0.00290244 0)
(17.9044 0.00256648 0)
(17.8506 0.00227493 0)
(17.8027 0.00201996 0)
(17.76 0.00179544 0)
(17.7219 0.00159649 0)
(17.6879 0.00141922 0)
(17.6574 0.00126045 0)
(17.6302 0.00111758 0)
(17.6059 0.000988481 0)
(17.5843 0.000871372 0)
(17.565 0.000764765 0)
(17.5479 0.000667404 0)
(17.5327 0.000578224 0)
(17.5194 0.000496316 0)
(17.5077 0.000420902 0)
(17.4975 0.000351312 0)
(17.4887 0.000286965 0)
(17.4813 0.000227356 0)
(17.475 0.000172042 0)
(17.4698 0.000120632 0)
(17.4657 7.27855e-05 0)
(17.4625 2.81722e-05 0)
(17.4603 -1.34914e-05 0)
(17.4588 -5.2376e-05 0)
(17.4581 -8.86246e-05 0)
(17.4582 -0.000122421 0)
(17.459 -0.000153928 0)
(17.4603 -0.000183287 0)
(17.4623 -0.000210611 0)
(17.4648 -0.000236004 0)
(17.4679 -0.000259546 0)
(17.4714 -0.000281302 0)
(17.4753 -0.000301317 0)
(17.4797 -0.000319614 0)
(17.4844 -0.000336216 0)
(17.4895 -0.000351128 0)
(17.4949 -0.000364333 0)
(17.5006 -0.000375803 0)
(17.5065 -0.000385515 0)
(17.5126 -0.000393429 0)
(17.519 -0.000399553 0)
(17.5255 -0.000403962 0)
(17.5321 -0.000406688 0)
(17.5388 -0.000407977 0)
(17.5456 -0.000407955 0)
(17.5524 -0.000407066 0)
(17.5592 -0.000405543 0)
(17.5661 -0.000403772 0)
(17.5729 -0.000401825 0)
(17.5796 -0.00039977 0)
(17.5862 -0.000397137 0)
(17.5927 -0.000393341 0)
(17.5991 -0.000386937 0)
(17.6052 -0.000376522 0)
(17.6111 -0.000359902 0)
(17.6167 -0.000334445 0)
(17.622 -0.000301785 0)
(17.6268 -0.000144325 0)
(20.039 0.0517789 0)
(20.0926 0.0299213 0)
(20.092 0.027188 0)
(20.0552 0.0243789 0)
(19.9649 0.0216134 0)
(19.8158 0.0187666 0)
(19.6268 0.0159671 0)
(19.4257 0.0134437 0)
(19.2323 0.0113079 0)
(19.0559 0.00955549 0)
(18.899 0.0081319 0)
(18.761 0.00697327 0)
(18.6398 0.00602317 0)
(18.5336 0.00523641 0)
(18.4401 0.0045781 0)
(18.3576 0.00402166 0)
(18.2847 0.0035468 0)
(18.22 0.00313796 0)
(18.1624 0.00278311 0)
(18.1111 0.00247283 0)
(18.0653 0.00219969 0)
(18.0243 0.00195779 0)
(17.9877 0.00174234 0)
(17.9548 0.00154949 0)
(17.9254 0.00137606 0)
(17.8991 0.00121944 0)
(17.8755 0.00107746 0)
(17.8545 0.000948274 0)
(17.8358 0.000830365 0)
(17.8192 0.00072242 0)
(17.8044 0.000623329 0)
(17.7915 0.00053214 0)
(17.7801 0.000448029 0)
(17.7702 0.000370289 0)
(17.7617 0.000298299 0)
(17.7545 0.000231521 0)
(17.7484 0.000169477 0)
(17.7435 0.000111754 0)
(17.7395 5.79699e-05 0)
(17.7365 7.75931e-06 0)
(17.7344 -3.91383e-05 0)
(17.733 -8.28818e-05 0)
(17.7325 -0.000123666 0)
(17.7327 -0.000161692 0)
(17.7335 -0.000197131 0)
(17.735 -0.000230127 0)
(17.7371 -0.000260804 0)
(17.7397 -0.000289264 0)
(17.7428 -0.000315587 0)
(17.7464 -0.000339834 0)
(17.7504 -0.000362037 0)
(17.7548 -0.000382226 0)
(17.7596 -0.000400413 0)
(17.7647 -0.000416586 0)
(17.7701 -0.000430718 0)
(17.7758 -0.000442787 0)
(17.7817 -0.000452756 0)
(17.7879 -0.000460632 0)
(17.7942 -0.000466498 0)
(17.8006 -0.000470386 0)
(17.8072 -0.000472552 0)
(17.8139 -0.000473125 0)
(17.8206 -0.000472559 0)
(17.8273 -0.00047109 0)
(17.834 -0.000469109 0)
(17.8407 -0.00046668 0)
(17.8473 -0.000463868 0)
(17.8539 -0.000460181 0)
(17.8603 -0.000455025 0)
(17.8665 -0.000446917 0)
(17.8726 -0.000434444 0)
(17.8785 -0.000415359 0)
(17.8841 -0.000386873 0)
(17.8894 -0.000350946 0)
(17.8944 -0.000168368 0)
(20.0449 0.0509937 0)
(20.1082 0.029581 0)
(20.1254 0.0272183 0)
(20.1206 0.0247808 0)
(20.0821 0.0225188 0)
(19.9986 0.0202042 0)
(19.8707 0.0177773 0)
(19.7131 0.0153876 0)
(19.5451 0.0132012 0)
(19.3812 0.0113027 0)
(19.2289 0.00970101 0)
(19.0909 0.00836499 0)
(18.9675 0.00725183 0)
(18.8578 0.00632036 0)
(18.7603 0.00553561 0)
(18.6738 0.00486927 0)
(18.5968 0.00429896 0)
(18.5283 0.00380701 0)
(18.4671 0.00337952 0)
(18.4124 0.00300549 0)
(18.3634 0.00267615 0)
(18.3195 0.00238445 0)
(18.2801 0.0021247 0)
(18.2448 0.00189225 0)
(18.2131 0.00168328 0)
(18.1846 0.00149464 0)
(18.1591 0.0013237 0)
(18.1362 0.00116824 0)
(18.1158 0.00102641 0)
(18.0975 0.000896626 0)
(18.0813 0.000777539 0)
(18.067 0.000667992 0)
(18.0543 0.000566991 0)
(18.0433 0.000473673 0)
(18.0336 0.000387289 0)
(18.0254 0.000307184 0)
(18.0183 0.000232781 0)
(18.0124 0.000163581 0)
(18.0076 9.91325e-05 0)
(18.0038 3.90101e-05 0)
(18.0009 -1.71645e-05 0)
(17.9989 -6.96102e-05 0)
(17.9977 -0.000118516 0)
(17.9972 -0.000164118 0)
(17.9975 -0.000206628 0)
(17.9984 -0.000246219 0)
(18 -0.000283044 0)
(18.0021 -0.00031723 0)
(18.0047 -0.000348874 0)
(18.0079 -0.000378056 0)
(18.0115 -0.00040482 0)
(18.0155 -0.000429208 0)
(18.02 -0.000451238 0)
(18.0248 -0.000470905 0)
(18.0299 -0.000488185 0)
(18.0353 -0.00050306 0)
(18.0409 -0.000515493 0)
(18.0468 -0.000525495 0)
(18.0529 -0.000533152 0)
(18.0591 -0.000538498 0)
(18.0655 -0.000541794 0)
(18.072 -0.000543167 0)
(18.0785 -0.000543081 0)
(18.0851 -0.000541767 0)
(18.0917 -0.000539623 0)
(18.0982 -0.000536709 0)
(18.1047 -0.000533098 0)
(18.1112 -0.00052829 0)
(18.1174 -0.00052171 0)
(18.1236 -0.000511872 0)
(18.1296 -0.000497385 0)
(18.1354 -0.000475989 0)
(18.1409 -0.000444753 0)
(18.1463 -0.000405934 0)
(18.1514 -0.000195462 0)
(20.0492 0.0500256 0)
(20.1193 0.0290806 0)
(20.1481 0.0270286 0)
(20.1628 0.0248477 0)
(20.1569 0.0229464 0)
(20.1211 0.0210868 0)
(20.0495 0.0191112 0)
(19.9437 0.0170398 0)
(19.8141 0.0149855 0)
(19.6744 0.0130688 0)
(19.5354 0.0113618 0)
(19.4037 0.00988347 0)
(19.2821 0.00862018 0)
(19.1717 0.0075449 0)
(19.0721 0.00662841 0)
(18.9827 0.00584401 0)
(18.9025 0.00516892 0)
(18.8306 0.00458437 0)
(18.7661 0.00407509 0)
(18.7082 0.00362869 0)
(18.6562 0.00323516 0)
(18.6094 0.00288635 0)
(18.5673 0.0025756 0)
(18.5295 0.00229746 0)
(18.4954 0.00204741 0)
(18.4647 0.0018217 0)
(18.4371 0.00161719 0)
(18.4123 0.00143126 0)
(18.39 0.00126167 0)
(18.3701 0.00110653 0)
(18.3524 0.000964223 0)
(18.3365 0.000833357 0)
(18.3225 0.000712736 0)
(18.3102 0.000601325 0)
(18.2993 0.000498221 0)
(18.2899 0.000402637 0)
(18.2818 0.000313881 0)
(18.2749 0.000231351 0)
(18.2692 0.000154513 0)
(18.2645 8.28763e-05 0)
(18.2608 1.59635e-05 0)
(18.2579 -4.65593e-05 0)
(18.256 -0.000104903 0)
(18.2549 -0.000159312 0)
(18.2545 -0.000210041 0)
(18.2548 -0.000257301 0)
(18.2557 -0.000301279 0)
(18.2573 -0.000342127 0)
(18.2595 -0.00037997 0)
(18.2621 -0.000414905 0)
(18.2653 -0.000446994 0)
(18.2689 -0.00047629 0)
(18.2729 -0.000502824 0)
(18.2773 -0.000526597 0)
(18.2821 -0.000547593 0)
(18.2871 -0.000565795 0)
(18.2925 -0.000581174 0)
(18.2981 -0.000593739 0)
(18.3039 -0.000603582 0)
(18.3099 -0.000610734 0)
(18.316 -0.000615462 0)
(18.3222 -0.000617887 0)
(18.3286 -0.000618475 0)
(18.335 -0.000617455 0)
(18.3414 -0.000615227 0)
(18.3477 -0.000611853 0)
(18.354 -0.000607424 0)
(18.3603 -0.000601454 0)
(18.3664 -0.000593412 0)
(18.3724 -0.000581843 0)
(18.3783 -0.000565423 0)
(18.384 -0.000541914 0)
(18.3895 -0.000508266 0)
(18.3948 -0.000466987 0)
(18.4 -0.000225745 0)
(20.0522 0.0488783 0)
(20.1272 0.0284366 0)
(20.164 0.0266625 0)
(20.1912 0.0246654 0)
(20.2052 0.0230151 0)
(20.2004 0.0214911 0)
(20.1713 0.0199148 0)
(20.1139 0.0182338 0)
(20.0293 0.0164681 0)
(19.9247 0.0146947 0)
(19.8096 0.0130044 0)
(19.6925 0.0114605 0)
(19.579 0.0100893 0)
(19.4722 0.00889024 0)
(19.3736 0.00784889 0)
(19.2834 0.00694579 0)
(19.2015 0.00616125 0)
(19.1273 0.00547736 0)
(19.0602 0.00487863 0)
(18.9996 0.004352 0)
(18.9448 0.00388656 0)
(18.8953 0.00347327 0)
(18.8507 0.0031046 0)
(18.8103 0.00277431 0)
(18.7739 0.0024772 0)
(18.7409 0.00220891 0)
(18.7112 0.00196577 0)
(18.6845 0.00174469 0)
(18.6604 0.00154305 0)
(18.6387 0.00135859 0)
(18.6193 0.00118942 0)
(18.6019 0.00103387 0)
(18.5865 0.000890517 0)
(18.5727 0.000758138 0)
(18.5606 0.000635652 0)
(18.55 0.000522121 0)
(18.5407 0.000416719 0)
(18.5328 0.000318728 0)
(18.526 0.000227512 0)
(18.5204 0.000142502 0)
(18.5157 6.31502e-05 0)
(18.5121 -1.10183e-05 0)
(18.5093 -8.03074e-05 0)
(18.5074 -0.000144947 0)
(18.5063 -0.000205225 0)
(18.5059 -0.0002614 0)
(18.5062 -0.000313694 0)
(18.5072 -0.000362294 0)
(18.5088 -0.000407353 0)
(18.5109 -0.000448991 0)
(18.5135 -0.00048729 0)
(18.5166 -0.000522319 0)
(18.5202 -0.000554123 0)
(18.5242 -0.000582714 0)
(18.5285 -0.000608084 0)
(18.5332 -0.000630223 0)
(18.5382 -0.000649105 0)
(18.5434 -0.000664743 0)
(18.5489 -0.000677233 0)
(18.5546 -0.000686604 0)
(18.5604 -0.000693124 0)
(18.5664 -0.000696903 0)
(18.5725 -0.00069841 0)
(18.5786 -0.000697864 0)
(18.5847 -0.00069567 0)
(18.5909 -0.000691898 0)
(18.597 -0.000686665 0)
(18.603 -0.000679518 0)
(18.609 -0.000670003 0)
(18.6148 -0.000656729 0)
(18.6205 -0.000638487 0)
(18.626 -0.000613097 0)
(18.6314 -0.00057742 0)
(18.6367 -0.000534156 0)
(18.6419 -0.000259257 0)
(20.0542 0.0475508 0)
(20.1328 0.0276568 0)
(20.1754 0.0261432 0)
(20.2109 0.0242867 0)
(20.2375 0.0228152 0)
(20.252 0.0215276 0)
(20.2508 0.02025 0)
(20.2303 0.0189168 0)
(20.1875 0.0174951 0)
(20.1228 0.0159937 0)
(20.0406 0.0144639 0)
(19.9476 0.0129732 0)
(19.8502 0.0115763 0)
(19.7535 0.0103042 0)
(19.6605 0.00916629 0)
(19.573 0.00815829 0)
(19.4918 0.00726913 0)
(19.417 0.00648537 0)
(19.3486 0.00579358 0)
(19.2862 0.00518137 0)
(19.2294 0.00463784 0)
(19.1777 0.00415353 0)
(19.1308 0.00372041 0)
(19.0882 0.00333163 0)
(19.0496 0.0029814 0)
(19.0145 0.0026648 0)
(18.9828 0.00237765 0)
(18.954 0.0021164 0)
(18.928 0.00187802 0)
(18.9046 0.00165991 0)
(18.8835 0.00145982 0)
(18.8645 0.00127584 0)
(18.8476 0.00110628 0)
(18.8324 0.000949689 0)
(18.8189 0.00080481 0)
(18.807 0.000670531 0)
(18.7966 0.000545874 0)
(18.7875 0.00042999 0)
(18.7796 0.000322127 0)
(18.7729 0.000221618 0)
(18.7673 0.000127846 0)
(18.7627 4.02265e-05 0)
(18.7591 -4.17013e-05 0)
(18.7564 -0.000118208 0)
(18.7545 -0.00018957 0)
(18.7533 -0.000256096 0)
(18.753 -0.00031805 0)
(18.7532 -0.00037566 0)
(18.7542 -0.000429109 0)
(18.7557 -0.000478548 0)
(18.7577 -0.000524082 0)
(18.7603 -0.000565799 0)
(18.7634 -0.00060376 0)
(18.7668 -0.000637993 0)
(18.7707 -0.000668499 0)
(18.7749 -0.000695278 0)
(18.7795 -0.00071831 0)
(18.7843 -0.000737613 0)
(18.7894 -0.000753287 0)
(18.7947 -0.000765359 0)
(18.8002 -0.000774093 0)
(18.8058 -0.000779592 0)
(18.8116 -0.000782317 0)
(18.8174 -0.000782479 0)
(18.8233 -0.000780487 0)
(18.8292 -0.000776421 0)
(18.835 -0.000770437 0)
(18.8408 -0.000762135 0)
(18.8465 -0.000751162 0)
(18.8521 -0.000736235 0)
(18.8575 -0.0007163 0)
(18.8629 -0.000689283 0)
(18.8682 -0.00065199 0)
(18.8733 -0.000607237 0)
(18.8784 -0.000295904 0)
(20.0555 0.046039 0)
(20.1367 0.0267443 0)
(20.1836 0.0254815 0)
(20.2248 0.023741 0)
(20.2598 0.0224039 0)
(20.2863 0.0212858 0)
(20.3028 0.0202192 0)
(20.3068 0.019147 0)
(20.2955 0.0180268 0)
(20.2667 0.0168313 0)
(20.2202 0.0155621 0)
(20.1584 0.0142502 0)
(20.0856 0.0129428 0)
(20.0066 0.0116859 0)
(19.9257 0.0105116 0)
(19.846 0.00943648 0)
(19.7693 0.0084647 0)
(19.697 0.00759249 0)
(19.6294 0.00681222 0)
(19.5668 0.00611472 0)
(19.5091 0.00549069 0)
(19.4562 0.00493141 0)
(19.4076 0.00442896 0)
(19.3633 0.00397637 0)
(19.3228 0.00356754 0)
(19.2858 0.00319718 0)