/*--------------------------------*- C++ -*----------------------------------*\
  =========                 |
  \\      /  F ield         | OpenFOAM: The Open Source CFD Toolbox
   \\    /   O peration     | Website:  https://openfoam.org
    \\  /    A nd           | Version:  7
     \\/     M anipulation  |
\*---------------------------------------------------------------------------*/
FoamFile
{
    version     2.0;
    format      ascii;
    class       volScalarField;
    location    "850";
    object      epsilon;
}
// * * * * * * * * * * * * * * * * * * * * * * * * * * * * * * * * * * * * * //

dimensions      [0 2 -3 0 0 0 0];

internalField   nonuniform List<scalar> 
16900
(
0.855881
1.60573
2.50974
3.34044
4.09198
4.76597
5.36762
5.90216
6.3731
6.782
7.12881
7.41306
7.63583
7.80319
7.93028
34.0043
34.7808
34.5833
34.8164
38.652
42.8132
47.2578
51.9814
56.9859
62.2746
67.8531
73.7267
79.9005
86.3789
93.1657
100.263
107.674
115.397
123.432
131.777
140.428
149.381
158.63
168.166
177.982
188.066
198.406
208.99
219.802
230.827
242.046
253.441
264.992
276.676
288.469
300.349
312.288
324.261
336.239
348.193
360.097
371.921
383.638
395.222
406.652
417.91
428.985
439.88
450.614
461.231
471.73
481.897
491.724
501.201
510.317
519.059
527.416
535.378
542.935
550.079
556.802
563.097
568.96
574.384
579.368
583.909
588.005
591.657
594.865
597.632
599.96
601.852
603.313
604.347
604.961
605.161
604.954
604.346
603.347
601.963
600.204
598.078
595.596
592.764
589.593
586.091
582.27
578.138
573.704
568.976
563.966
558.683
553.136
547.332
541.283
534.998
528.483
521.748
514.808
507.666
500.327
492.816
485.133
477.278
469.291
461.167
452.88
444.514
436.16
427.957
420.499
415.084
410.2
405.304
400.318
395.228
390.037
384.75
379.374
373.92
368.397
362.817
357.191
351.532
345.852
340.163
334.478
328.807
323.163
317.558
312.003
306.507
301.083
295.739
290.486
285.332
280.288
275.361
270.559
265.892
261.366
256.991
252.773
248.722
244.846
241.153
237.653
234.357
231.277
228.424
225.815
223.464
221.393
219.623
218.18
217.095
216.403
216.144
216.369
217.132
218.5
220.548
223.367
227.058
231.734
237.52
244.543
252.913
262.704
273.917
286.437
300.006
314.198
328.447
342.094
354.469
364.976
373.164
378.767
381.716
382.125
380.289
376.719
372.426
369.981
1.77664
1.71876
2.32577
3.00859
3.66982
4.29291
4.88399
5.45679
6.02902
6.62352
7.27312
8.03069
8.99085
10.3392
12.4655
16.2288
17.9332
19.6517
21.4522
23.5517
25.7635
28.0827
30.5205
33.0804
35.7643
38.5741
41.5111
44.5763
47.7702
51.0927
54.5436
58.1217
61.8256
65.6533
69.6024
73.6697
77.8519
82.1446
86.5434
91.0432
95.6383
100.323
105.089
109.932
114.843
119.813
124.836
129.902
135.003
140.128
145.27
150.417
155.562
160.693
165.802
170.879
175.916
180.906
185.84
190.715
195.525
200.271
204.955
209.582
214.164
218.719
223.154
227.458
231.624
235.647
239.521
243.244
246.808
250.212
253.45
256.52
259.418
262.143
264.691
267.061
269.251
271.262
273.092
274.74
276.208
277.496
278.605
279.536
280.289
280.868
281.274
281.508
281.575
281.475
281.213
280.79
280.209
279.474
278.588
277.554
276.374
275.053
273.593
271.999
270.272
268.416
266.435
264.332
262.109
259.771
257.32
254.76
252.092
249.322
246.453
243.485
240.425
237.275
234.036
230.712
227.316
223.822
220.254
216.695
213.173
209.795
206.756
203.854
200.967
198.065
195.138
192.187
189.213
186.22
183.212
180.195
177.173
174.151
171.135
168.13
165.142
162.174
159.234
156.324
153.451
150.619
147.832
145.094
142.41
139.784
137.218
134.717
132.283
129.921
127.633
125.421
123.29
121.242
119.279
117.406
115.624
113.938
112.351
110.867
109.491
108.228
107.084
106.066
105.182
104.443
103.86
103.448
103.222
103.203
103.415
103.885
104.647
105.737
107.199
109.077
111.419
114.27
117.663
121.612
126.102
131.07
136.401
141.92
147.408
152.612
157.281
161.192
164.173
166.116
166.982
166.786
165.588
163.465
160.597
157.24
2.51142
2.06359
2.51712
3.12522
3.75987
4.39112
5.021
5.66463
6.34299
7.08129
7.90947
8.8634
9.98571
11.3242
12.9179
14.7292
16.3852
18.102
19.8772
21.7094
23.6175
25.6155
27.7113
29.9073
32.205
34.6051
37.1085
39.7157
42.4269
45.2419
48.1603
51.1814
54.3038
57.5261
60.8463
64.262
67.7706
71.3688
75.0531
78.8196
82.664
86.5816
90.5673
94.6159
98.7216
102.879
107.081
111.321
115.594
119.892
124.209
128.537
132.869
137.2
141.52
145.825
150.107
154.36
158.579
162.758
166.893
170.981
175.019
179.008
182.948
186.815
190.583
194.245
197.794
201.226
204.535
207.718
210.77
213.688
216.469
219.108
221.604
223.953
226.155
228.206
230.106
231.854
233.449
234.891
236.179
237.314
238.297
239.129
239.81
240.342
240.726
240.965
241.06
241.014
240.829
240.506
240.049
239.461
238.744
237.9
236.933
235.845
234.64
233.32
231.887
230.345
228.697
226.946
225.093
223.142
221.097
218.959
216.73
214.414
212.014
209.531
206.966
204.329
201.61
198.812
195.97
193.068
190.119
187.155
184.2
181.296
178.492
175.743
173.007
170.269
167.523
164.771
162.013
159.253
156.495
153.743
151
148.27
145.559
142.869
140.206
137.572
134.973
132.411
129.889
127.413
124.984
122.605
120.28
118.012
115.802
113.653
111.568
109.548
107.595
105.712
103.899
102.16
100.496
98.9075
97.3977
95.9682
94.6213
93.3593
92.1852
91.1021
90.114
89.2255
88.4422
87.771
87.22
86.7994
86.5212
86.4004
86.4543
86.7039
87.1731
87.8891
88.8818
90.1819
91.8192
93.8183
96.1939
98.9437
102.041
105.428
109.012
112.662
116.222
119.523
122.396
124.7
126.327
127.213
127.337
126.713
125.376
123.375
120.839
118.087
3.0867
2.39173
2.74802
3.30544
3.92435
4.56798
5.23333
5.93226
6.6827
7.50462
8.41809
9.44154
10.59
11.8731
13.2911
14.8128
16.3794
18.0125
19.7123
21.4786
23.3212
25.2496
27.2701
29.3858
31.5986
33.9099
36.3207
38.8318
41.4438
44.1571
46.9717
49.8873
52.9033
56.0187
59.2323
62.5423
65.9467
69.443
73.0283
76.6995
80.4528
84.2843
88.1895
92.1638
96.2021
100.299
104.45
108.647
112.887
117.161
121.465
125.791
130.133
134.485
138.839
143.188
147.527
151.847
156.143
160.407
164.634
168.817
172.953
177.035
181.048
184.975
188.803
192.524
196.131
199.62
202.985
206.221
209.325
212.292
215.117
217.799
220.333
222.717
224.949
227.027
228.948
230.713
232.32
233.768
235.059
236.192
237.168
237.987
238.652
239.163
239.522
239.732
239.794
239.712
239.487
239.123
238.621
237.986
237.22
236.328
235.31
234.171
232.914
231.543
230.06
228.469
226.772
224.975
223.078
221.086
219
216.826
214.565
212.217
209.791
207.286
204.693
202.046
199.334
196.559
193.738
190.871
187.967
185.041
182.112
179.203
176.329
173.479
170.636
167.795
164.955
162.115
159.279
156.451
153.633
150.829
148.043
145.279
142.542
139.833
137.158
134.519
131.921
129.366
126.857
124.398
121.991
119.638
117.343
115.106
112.931
110.819
108.772
106.792
104.879
103.036
101.263
99.5622
97.9341
96.3802
94.9015
93.4993
92.1752
90.9306
89.7675
88.6882
87.6954
86.7927
85.9843
85.2757
84.6735
84.186
83.8235
83.5986
83.5263
83.6244
83.9133
84.4158
85.1561
86.1582
87.4435
89.0275
90.9148
93.0948
95.5352
98.1781
100.938
103.702
106.34
108.715
110.698
112.179
113.083
113.366
113.022
112.067
110.537
108.485
106.05
103.621
3.55814
2.67274
2.95913
3.47839
4.08323
4.73335
5.42149
6.15528
6.9482
7.8148
8.7682
9.81833
10.9707
12.226
13.5809
15.0234
16.5405
18.1336
19.8044
21.5544
23.3878
25.31
27.3258
29.4383
31.6499
33.9626
36.3781
38.8979
41.5232
44.255
47.0942
50.0411
53.0959
56.2586
59.5283
62.9043
66.3852
69.969
73.6536
77.4362
81.3137
85.2825
89.3386
93.4776
97.6947
101.985
106.342
110.762
115.237
119.762
124.331
128.935
133.569
138.226
142.897
147.576
152.253
156.922
161.573
166.198
170.788
175.336
179.832
184.265
188.613
192.863
197.005
201.031
204.935
208.709
212.349
215.848
219.202
222.405
225.453
228.343
231.07
233.632
236.026
238.249
240.301
242.179
243.883
245.413
246.768
247.949
248.957
249.794
250.46
250.957
251.289
251.456
251.463
251.312
251.007
250.549
249.944
249.195
248.306
247.28
246.122
244.834
243.422
241.89
240.241
238.478
236.606
234.63
232.553
230.376
228.104
225.745
223.297
220.756
218.148
215.468
212.715
209.904
207.035
204.113
201.146
198.14
195.1
192.039
188.969
185.904
182.852
179.809
176.772
173.739
170.71
167.688
164.676
161.678
158.696
155.736
152.801
149.894
147.02
144.182
141.383
138.627
135.916
133.255
130.646
128.091
125.594
123.155
120.778
118.465
116.217
114.035
111.921
109.877
107.903
106.001
104.171
102.414
100.731
99.1223
97.5887
96.1308
94.7496
93.4459
92.2209
91.076
90.0133
89.0353
88.1453
87.3476
86.6478
86.0529
85.572
85.216
84.9985
84.9352
85.0445
85.3465
85.8619
86.6107
87.6097
88.8689
90.3878
92.1509
94.1236
96.2486
98.4449
100.611
102.631
104.387
105.77
106.692
107.094
106.946
106.251
105.029
103.321
101.186
98.7768
96.5095
3.94808
2.90388
3.134
3.62142
4.21101
4.86003
5.55798
6.30875
7.12182
8.00765
8.97519
10.0306
11.177
12.4142
13.7406
15.1527
16.6476
18.2262
19.8904
21.6424
23.4851
25.4222
27.4576
29.5947
31.8364
34.1855
36.6444
39.2154
41.9007
44.7023
47.6217
50.6603
53.8193
57.0994
60.5007
64.0232
67.6663
71.4287
75.3088
79.3045
83.413
87.631
91.9547
96.38
100.902
105.515
110.215
114.994
119.847
124.767
129.747
134.779
139.856
144.97
150.112
155.273
160.444
165.614
170.773
175.91
181.014
186.073
191.078
195.999
200.822
205.534
210.126
214.588
218.913
223.093
227.122
230.992
234.698
238.233
241.594
244.775
247.772
250.582
253.202
255.629
257.862
259.897
261.736
263.377
264.822
266.07
267.123
267.982
268.65
269.129
269.421
269.531
269.46
269.215
268.798
268.212
267.463
266.556
265.495
264.286
262.932
261.438
259.809
258.052
256.171
254.169
252.049
249.822
247.491
245.053
242.517
239.898
237.193
234.405
231.546
228.618
225.625
222.576
219.473
216.323
213.131
209.904
206.648
203.37
200.082
196.793
193.509
190.229
186.954
183.685
180.425
177.176
173.942
170.727
167.535
164.37
161.235
158.136
155.074
152.054
149.08
146.154
143.279
140.459
137.696
134.992
132.351
129.773
127.262
124.819
122.445
120.141
117.909
115.75
113.664
111.653
109.716
107.855
106.068
104.357
102.722
101.163
99.6798
98.2729
96.9427
95.6901
94.5162
93.4225
92.4116
91.4866
90.6521
89.914
89.28
88.7599
88.3658
88.112
88.015
88.0931
88.365
88.8482
89.5568
90.4983
91.6698
93.0546
94.618
96.305
98.0395
99.7276
101.264
102.543
103.468
103.964
103.983
103.506
102.537
101.103
99.2482
97.0361
94.6265
92.4462
4.26928
3.08825
3.2689
3.72713
4.29933
4.94045
5.63766
6.39194
7.20981
8.09898
9.06615
10.1161
11.2515
12.4735
13.7823
15.1782
16.6619
18.2351
19.9004
21.6605
23.5183
25.4773
27.5413
29.7141
31.9994
34.4007
36.9214
39.5648
42.3342
45.2325
48.2624
51.4265
54.7268
58.1651
61.7426
65.46
69.3176
73.3148
77.4508
81.7237
86.1312
90.6705
95.3377
100.129
105.038
110.061
115.192
120.423
125.748
131.16
136.65
142.211
147.833
153.507
159.224
164.972
170.74
176.516
182.286
188.038
193.757
199.428
205.033
210.535
215.923
221.186
226.312
231.292
236.116
240.776
245.262
249.568
253.687
257.611
261.335
264.854
268.163
271.258
274.137
276.795
279.231
281.442
283.43
285.192
286.731
288.047
289.142
290.017
290.676
291.121
291.357
291.386
291.214
290.846
290.286
289.539
288.611
287.507
286.235
284.799
283.206
281.46
279.567
277.537
275.375
273.083
270.662
268.134
265.501
262.762
259.927
257.005
254
250.916
247.762
244.542
241.262
237.928
234.546
231.121
227.659
224.165
220.646
217.109
213.562
210.013
206.466
202.923
199.386
195.859
192.343
188.844
185.364
181.909
178.482
175.087
171.729
168.41
165.135
161.907
158.73
155.606
152.539
149.532
146.586
143.705
140.891
138.145
135.47
132.866
130.336
127.88
125.5
123.195
120.967
118.816
116.742
114.745
112.824
110.98
109.213
107.521
105.905
104.364
102.897
101.506
100.189
98.9485
97.7849
96.7008
95.6996
94.7859
93.9662
93.249
92.6449
92.167
91.8303
91.6516
91.6483
91.8368
92.2302
92.8357
93.6508
94.6599
95.8309
97.1129
98.4352
99.7103
100.841
101.728
102.286
102.446
102.167
101.433
100.254
98.658
96.6907
94.4201
92.0063
89.8781
4.53091
3.23072
3.36548
3.79524
4.34772
4.9755
5.66399
6.41211
7.22434
8.10668
9.06465
10.1026
11.2237
12.4302
13.7241
15.1074
16.5825
18.1524
19.8202
21.5895
23.4635
25.4463
27.5422
29.7556
32.091
34.553
37.1461
39.8749
42.7436
45.7564
48.9175
52.2304
55.6984
59.3243
63.1106
67.0589
71.1702
75.4449
79.8826
84.4821
89.2414
94.1577
99.2273
104.446
109.808
115.309
120.94
126.696
132.567
138.546
144.624
150.791
157.037
163.351
169.722
176.137
182.582
189.042
195.503
201.946
208.355
214.714
220.974
227.119
233.135
239.007
244.723
250.273
255.645
260.829
265.815
270.595
275.159
279.502
283.615
287.495
291.134
294.53
297.678
300.575
303.218
305.607
307.74
309.618
311.242
312.614
313.735
314.609
315.239
315.627
315.781
315.703
315.4
314.877
314.142
313.2
312.056
310.718
309.195
307.494
305.622
303.583
301.381
299.038
296.556
293.939
291.193
288.332
285.363
282.29
279.12
275.863
272.525
269.111
265.63
262.086
258.487
254.839
251.146
247.417
243.655
239.867
236.058
232.235
228.406
224.575
220.748
216.927
213.116
209.318
205.537
201.776
198.04
194.333
190.66
187.024
183.429
179.879
176.378
172.929
169.535
166.2
162.926
159.716
156.573
153.498
150.494
147.563
144.707
141.925
139.221
136.594
134.046
131.577
129.186
126.875
124.642
122.488
120.412
118.413
116.491
114.644
112.871
111.172
109.545
107.99
106.505
105.092
103.749
102.479
101.284
100.166
99.1321
98.1879
97.3431
96.6094
96.0004
95.532
95.2208
95.0831
95.1326
95.3778
95.8189
96.444
97.2261
98.1196
99.0602
99.9664
100.746
101.307
101.567
101.461
100.95
100.022
98.6875
96.9747
94.9304
92.6234
90.2116
88.1207
4.74048
3.33656
3.42772
3.82888
4.35948
4.96974
5.64369
6.37881
7.17823
8.04689
8.9898
10.0113
11.1152
12.3047
13.5831
14.9536
16.4199
17.9859
19.6557
21.4335
23.3236
25.3309
27.4603
29.7174
32.1078
34.6371
37.3112
40.1358
43.1168
46.2597
49.5697
53.0521
56.7113
60.5514
64.5759
68.7875
73.1882
77.7791
82.5604
87.5313
92.69
98.0339
103.559
109.261
115.134
121.172
127.366
133.71
140.192
146.805
153.537
160.376
167.313
174.333
181.423
188.569
195.754
202.962
210.172
217.366
224.52
231.605
238.568
245.397
252.077
258.593
264.933
271.081
277.027
282.759
288.264
293.532
298.555
303.324
307.833
312.074
316.044
319.736
323.148
326.274
329.113
331.663
333.924
335.898
337.586
338.991
340.113
340.958
341.529
341.831
341.87
341.652
341.183
340.471
339.524
338.349
336.954
335.342
333.529
331.526
329.339
326.975
324.442
321.755
318.922
315.95
312.847
309.625
306.292
302.855
299.323
295.705
292.007
288.238
284.405
280.515
276.574
272.589
268.566
264.512
260.432
256.332
252.217
248.094
243.968
239.845
235.73
231.625
227.535
223.462
219.411
215.385
211.39
207.429
203.506
199.626
195.791
192.007
188.275
184.601
180.986
177.434
173.947
170.529
167.18
163.905
160.704
157.578
154.531
151.562
148.673
145.864
143.136
140.489
137.923
135.438
133.033
130.707
128.459
126.289
124.195
122.175
120.228
118.352
116.546
114.807
113.135
111.528
109.986
108.508
107.096
105.751
104.478
103.282
102.171
101.154
100.246
99.4594
98.8121
98.3204
98
97.8624
97.9123
98.1438
98.5369
99.0533
99.6357
100.208
100.684
100.972
100.991
100.679
99.9963
98.9293
97.4876
95.6998
93.6117
91.2911
88.8919
86.8341
4.90448
3.411
3.46045
3.83264
4.33957
4.92917
5.5844
6.30173
7.08338
7.93368
8.85746
9.85931
10.9435
12.1143
13.3758
14.7325
16.1891
17.7504
19.4214
21.2076
23.1143
25.1474
27.3131
29.618
32.0691
34.6735
37.4384
40.3711
43.4789
46.7689
50.2479
53.9225
57.7985
61.8814
66.1758
70.6856
75.4136
80.3617
85.5303
90.9192
96.5265
102.349
108.384
114.625
121.067
127.7
134.518
141.51
148.665
155.972
163.419
170.991
178.677
186.46
194.325
202.256
210.232
218.235
226.242
234.229
242.168
249.991
257.679
265.211
272.573
279.748
286.721
293.476
300
306.28
312.302
318.053
323.526
328.71
333.599
338.186
342.466
346.434
350.086
353.415
356.421
359.103
361.462
363.499
365.217
366.619
367.707
368.485
368.959
369.136
369.023
368.625
367.951
367.01
365.813
364.368
362.684
360.769
358.638
356.301
353.767
351.048
348.153
345.094
341.883
338.529
335.041
331.432
327.711
323.887
319.97
315.968
311.891
307.747
303.544
299.29
294.991
290.655
286.289
281.898
277.488
273.066
268.637
264.205
259.778
255.359
250.953
246.563
242.194
237.848
233.53
229.243
224.991
220.779
216.61
212.489
208.418
204.401
200.442
196.544
192.71
188.942
185.243
181.616
178.062
174.584
171.183
167.861
164.62
161.459
158.38
155.383
152.469
149.637
146.888
144.22
141.633
139.125
136.695
134.342
132.064
129.859
127.724
125.658
123.657
121.72
119.845
118.028
116.269
114.567
112.921
111.331
109.802
108.335
106.938
105.62
104.391
103.266
102.261
101.394
100.684
100.147
99.7923
99.6233
99.6281
99.778
100.023
100.294
100.505
100.568
100.401
99.9365
99.1342
97.9773
96.4731
94.6482
92.5469
90.2345
87.8605
85.8366
5.02876
3.45894
3.46861
3.8116
4.29349
4.86019
5.49378
6.19003
6.95055
7.77937
8.68128
9.6612
10.7241
11.8748
13.1187
14.461
15.9075
17.4643
19.1374
20.9335
22.8593
24.922
27.1293
29.4892
32.0102
34.7011
37.5707
40.6282
43.8823
47.3419
51.0154
54.9108
59.0356
63.3965
67.9994
72.8491
77.9492
83.3023
88.909
94.7689
100.88
107.24
113.843
120.683
127.754
135.046
142.549
150.252
158.141
166.202
174.421
182.782
191.269
199.865
208.552
217.31
226.117
234.95
243.783
252.589
261.305
269.878
278.292
286.527
294.566
302.391
309.985
317.331
324.416
331.224
337.738
343.946
349.838
355.405
360.639
365.535
370.086
374.289
378.141
381.631
384.76
387.529
389.939
391.993
393.695
395.049
396.055
396.721
397.053
397.06
396.75
396.131
395.212
394.006
392.522
390.771
388.765
386.514
384.031
381.33
378.421
375.317
372.031
368.574
364.959
361.198
357.303
353.285
349.155
344.924
340.603
336.202
331.73
327.197
322.611
317.981
313.314
308.618
303.9
299.166
294.422
289.674
284.927
280.186
275.457
270.744
266.051
261.381
256.739
252.126
247.548
243.007
238.507
234.052
229.645
225.291
220.992
216.751
212.573
208.458
204.411
200.433
196.528
192.697
188.942
185.265
181.667
178.15
174.715
171.363
168.094
164.908
161.806
158.787
155.85
152.995
150.22
147.524
144.906
142.363
139.893
137.493
135.161
132.895
130.69
128.544
126.454
124.417
122.43
120.492
118.6
116.754
114.956
113.207
111.512
109.879
108.317
106.841
105.466
104.212
103.101
102.153
101.387
100.815
100.435
100.229
100.157
100.155
100.141
100.024
99.7172
99.1504
98.2766
97.0746
95.5479
93.7202
91.6332
89.3493
87.0132
85.0269
5.11863
3.48485
3.45688
3.7707
4.22666
4.76897
5.37903
6.05209
6.78942
7.59487
8.47338
9.43027
10.4711
11.6017
12.8281
14.1569
15.5949
17.1494
18.8279
20.6385
22.5895
24.6897
26.9485
29.3757
31.9815
34.7766
37.7719
40.9782
44.4065
48.0671
51.9701
56.1252
60.5412
65.2262
70.1872
75.4299
80.9588
86.7763
92.8833
99.2785
105.96
112.923
120.162
127.67
135.438
143.456
151.711
160.189
168.875
177.75
186.797
195.997
205.334
214.785
224.33
233.946
243.609
253.291
262.963
272.579
282.048
291.353
300.472
309.386
318.073
326.515
334.694
342.592
350.195
357.488
364.445
371.058
377.316
383.211
388.735
393.881
398.646
403.025
407.018
410.608
413.8
416.596
418.999
421.012
422.639
423.886
424.757
425.259
425.4
425.19
424.639
423.755
422.551
421.038
419.229
417.135
414.771
412.149
409.283
406.186
402.873
399.357
395.653
391.774
387.733
383.545
379.221
374.776
370.222
365.569
360.831
356.019
351.141
346.21
341.234
336.222
331.182
326.123
321.051
315.972
310.894
305.822
300.76
295.714
290.689
285.689
280.716
275.776
270.87
266.002
261.174
256.391
251.655
246.97
242.338
237.764
233.249
228.796
224.409
220.09
215.84
211.664
207.561
203.535
199.587
195.719
191.931
188.226
184.603
181.063
177.608
174.235
170.946
167.74
164.616
161.573
158.61
155.724
152.913
150.176
147.51
144.911
142.377
139.905
137.49
135.128
132.818
130.553
128.332
126.151
124.008
121.9
119.827
117.791
115.794
113.841
111.943
110.112
108.363
106.719
105.203
103.842
102.664
101.69
100.931
100.383
100.014
99.7682
99.5638
99.3076
98.9067
98.2829
97.3816
96.1751
94.6618
92.8616
90.8135
88.5764
86.2905
84.3467
5.17895
3.49271
3.42949
3.71454
4.14416
4.66128
5.24679
5.89561
6.60879
7.39021
8.24502
9.17907
10.1986
11.3104
12.5216
13.84
15.2737
16.8315
18.5227
20.3568
22.3443
24.4958
26.8229
29.3373
32.0515
34.9781
38.1304
41.5214
45.1639
49.0704
53.2523
57.7208
62.4861
67.5573
72.9425
78.6481
84.6787
91.037
97.7225
104.733
112.064
119.711
127.666
135.921
144.463
153.281
162.359
171.682
181.229
190.976
200.903
210.99
221.213
231.55
241.977
252.466
262.99
273.52
284.021
294.381
304.569
314.562
324.339
333.878
343.158
352.157
360.856
369.238
377.29
385
392.326
399.267
405.815
411.96
417.695
423.014
427.911
432.385
436.433
440.047
443.23
445.983
448.311
450.216
451.705
452.784
453.46
453.741
453.636
453.156
452.311
451.115
449.579
447.716
445.54
443.065
440.306
437.279
433.997
430.476
426.731
422.778
418.633
414.311
409.825
405.192
400.426
395.541
390.55
385.466
380.303
375.072
369.784
364.451
359.083
353.688
348.276
342.855
337.432
332.015
326.608
321.218
315.85
310.508
305.197
299.921
294.682
289.484
284.329
279.219
274.159
269.149
264.193
259.294
254.454
249.675
244.96
240.312
235.732
231.222
226.786
222.423
218.137
213.929
209.8
205.752
201.784
197.899
194.097
190.378
186.742
183.189
179.719
176.331
173.023
169.795
166.644
163.569
160.567
157.636
154.773
151.974
149.236
146.555
143.928
141.349
138.815
136.322
133.865
131.44
129.043
126.673
124.327
122.004
119.707
117.439
115.209
113.026
110.91
108.88
106.965
105.197
103.612
102.243
101.116
100.239
99.5936
99.13
98.769
98.4124
97.9588
97.3199
96.4312
95.2569
93.7892
92.0435
90.0559
87.8819
85.6575
83.7613
5.21419
3.48604
3.39019
3.64723
4.05065
4.54245
5.10323
5.72774
6.41697
7.17495
8.00724
8.9203
9.92129
11.018
12.219
13.5334
14.971
16.5425
18.259
20.1324
22.1753
24.4009
26.8231
29.456
32.3145
35.414
38.77
42.398
46.3133
50.53
55.0608
59.9178
65.1124
70.6547
76.5528
82.8136
89.4416
96.4391
103.803
111.527
119.607
128.035
136.8
145.891
155.294
164.993
174.971
185.209
195.681
206.354
217.206
228.213
239.348
250.586
261.896
273.25
284.615
295.959
307.189
318.24
329.078
339.686
350.042
360.124
369.908
379.373
388.499
397.267
405.662
413.669
421.263
428.433
435.171
441.468
447.317
452.712
457.649
462.126
466.14
469.691
472.778
475.404
477.575
479.294
480.57
481.41
481.822
481.816
481.402
480.592
479.4
477.837
475.92
473.661
471.076
468.181
464.991
461.524
457.796
453.824
449.623
445.212
440.606
435.823
430.879
425.79
420.571
415.237
409.804
404.285
398.694
393.044
387.348
381.615
375.858
370.086
364.309
358.534
352.77
347.023
341.299
335.604
329.943
324.319
318.738
313.201
307.712
302.274
296.888
291.557
286.282
281.065
275.909
270.815
265.786
260.822
255.927
251.102
246.348
241.667
237.06
232.53
228.077
223.702
219.407
215.192
211.059
207.007
203.037
199.149
195.343
191.619
187.976
184.412
180.927
177.519
174.186
170.927
167.737
164.615
161.558
158.561
155.621
152.734
149.896
147.101
144.347
141.626
138.935
136.27
133.625
130.997
128.383
125.782
123.193
120.62
118.068
115.548
113.077
110.676
108.376
106.214
104.235
102.484
101.001
99.8105
98.908
98.2524
97.7659
97.3445
96.8764
96.2608
95.4211
94.3119
92.9182
91.2507
89.3425
87.2459
85.0931
83.2495
5.22847
3.4679
3.34224
3.57248
3.95036
4.41743
4.95421
5.55542
6.2222
6.95891
7.77169
8.66786
9.65572
10.7445
11.9442
13.2659
14.7215
16.324
18.0869
20.0249
22.1534
24.4888
27.0477
29.8473
32.9051
36.2393
39.8683
43.8103
48.083
52.7029
57.6818
63.0328
68.7676
74.8964
81.427
88.3652
95.715
103.479
111.647
120.208
129.155
138.478
148.161
158.191
168.548
179.211
190.162
201.385
212.839
224.479
236.284
248.227
260.277
272.401
284.569
296.747
308.895
320.914
332.751
344.377
355.759
366.874
377.697
388.204
398.374
408.183
417.611
426.641
435.255
443.439
451.175
458.45
465.255
471.582
477.425
482.779
487.641
492.01
495.886
499.267
502.157
504.559
506.479
507.923
508.9
509.42
509.492
509.126
508.335
507.133
505.532
503.549
501.199
498.498
495.461
492.106
488.452
484.515
480.313
475.864
471.187
466.3
461.22
455.965
450.553
445.001
439.325
433.542
427.667
421.716
415.702
409.64
403.541
397.419
391.284
385.147
379.017
372.903
366.812
360.752
354.728
348.746
342.81
336.924
331.092
325.316
319.599
313.942
308.348
302.816
297.35
291.949
286.616
281.351
276.155
271.03
265.977
260.996
256.09
251.258
246.503
241.824
237.223
232.701
228.257
223.893
219.61
215.406
211.283
207.24
203.277
199.393
195.587
191.859
188.206
184.628
181.121
177.683
174.313
171.007
167.761
164.571
161.435
158.347
155.303
152.298
149.328
146.386
143.469
140.57
137.684
134.809
131.938
129.071
126.205
123.343
120.488
117.65
114.845
112.095
109.431
106.897
104.543
102.426
100.604
99.1171
97.977
97.1531
96.5696
96.1162
95.6685
95.1108
94.353
93.3382
92.0437
90.4752
88.6628
86.6559
84.5837
82.7975
5.22559
3.44094
3.28849
3.49358
3.84726
4.29106
4.80562
5.3859
6.0334
6.75306
7.55191
8.43849
9.42259
10.5152
11.7286
13.0762
14.5728
16.2343
18.0772
20.1199
22.3814
24.882
27.6425
30.6825
34.0228
37.685
41.6903
46.0595
50.8132
55.971
61.5395
67.5322
73.9606
80.8333
88.1559
95.9316
104.162
112.853
121.984
131.529
141.482
151.828
162.549
173.623
185.027
196.734
208.719
220.954
233.401
246.018
258.773
271.632
284.559
297.515
310.47
323.381
336.134
348.68
361.001
373.067
384.85
396.322
407.46
418.239
428.636
438.631
448.204
457.337
466.015
474.223
481.947
489.175
495.899
502.111
507.807
512.982
517.636
521.768
525.38
528.473
531.051
533.12
534.685
535.755
536.341
536.452
536.1
535.298
534.059
532.397
530.328
527.869
525.035
521.845
518.316
514.465
510.314
505.879
501.181
496.237
491.068
485.693
480.13
474.399
468.517
462.503
456.374
450.147
443.839
437.465
431.04
424.578
418.094
411.598
405.103
398.62
392.158
385.725
379.33
372.979
366.678
360.432
354.245
348.122
342.065
336.075
330.155
324.307
318.53
312.825
307.193
301.635
296.151
290.74
285.404
280.143
274.957
269.847
264.813
259.854
254.973
250.169
245.442
240.792
236.221
231.727
227.312
222.975
218.716
214.534
210.428
206.399
202.445
198.565
194.756
191.018
187.348
183.743
180.202
176.72
173.294
169.921
166.596
163.316
160.075
156.868
153.691
150.538
147.404
144.282
141.169
138.059
134.947
131.831
128.707
125.577
122.442
119.312
116.201
113.129
110.131
107.252
104.548
102.09
99.9478
98.1826
96.8239
95.8537
95.199
94.7428
94.3467
93.8783
93.2314
92.3371
91.164
89.7124
88.01
86.1035
84.1199
82.3954
5.20912
3.4075
3.23154
3.41372
3.74537
4.16844
4.66401
5.22757
5.8613
6.57112
7.36543
8.25448
9.25024
10.3663
11.6176
13.0211
14.5955
16.3608
18.3376
20.5485
23.0178
25.771
28.8348
32.23
35.9811
40.1133
44.6505
49.6153
55.0303
60.9235
67.2827
74.1234
81.4556
89.2837
97.6083
106.427
115.735
125.524
135.774
146.461
157.566
169.066
180.936
193.149
205.675
218.481
231.534
244.8
258.237
271.803
285.457
299.163
312.875
326.55
340.156
353.553
366.711
379.612
392.237
404.558
416.55
428.185
439.44
450.292
460.721
470.705
480.228
489.273
497.825
505.872
513.402
520.406
526.875
532.804
538.19
543.03
547.326
551.077
554.288
556.961
559.102
560.718
561.816
562.408
562.503
562.114
561.253
559.936
558.175
555.987
553.39
550.399
547.034
543.312
539.253
534.876
530.2
525.246
520.034
514.583
508.913
503.046
496.999
490.794
484.448
477.98
471.41
464.753
458.028
451.25
444.434
437.596
430.748
423.904
417.075
410.272
403.505
396.782
390.11
383.498
376.95
370.47
364.064
357.733
351.481
345.308
339.217
333.206
327.278
321.43
315.664
309.978
304.372
298.846
293.398
288.03
282.739
277.526
272.391
267.332
262.35
257.445
252.616
247.864
243.187
238.586
234.06
229.609
225.233
220.93
216.7
212.543
208.456
204.439
200.49
196.606
192.786
189.027
185.326
181.681
178.087
174.541
171.04
167.578
164.151
160.754
157.382
154.03
150.693
147.364
144.038
140.711
137.376
134.031
130.672
127.298
123.912
120.52
117.134
113.776
110.478
107.287
104.266
101.493
99.0545
97.0311
95.4726
94.3757
93.6727
93.2394
92.9226
92.5709
92.061
91.3101
90.2776
88.9587
87.3785
85.5817
83.6935
82.0346
5.18247
3.36969
3.17387
3.33621
3.64919
4.05567
4.53759
5.09136
5.72039
6.43224
7.23738
8.1487
9.1813
10.3527
11.6816
13.1899
14.9025
16.8457
19.044
21.5271
24.3256
27.4718
31.0033
34.9362
39.2997
44.1226
49.4297
55.243
61.5817
68.4619
75.8817
83.8457
92.3549
101.406
110.99
121.096
131.708
142.809
154.371
166.365
178.762
191.531
204.641
218.055
231.737
245.649
259.751
274.004
288.36
302.777
317.204
331.608
345.932
360.118
374.024
387.65
400.982
414.001
426.688
439.021
450.975
462.527
473.655
484.338
494.558
504.296
513.537
522.267
530.473
538.145
545.274
551.851
557.871
563.33
568.227
572.561
576.333
579.548
582.209
584.323
585.895
586.934
587.45
587.454
586.958
585.976
584.522
582.611
580.259
577.482
574.299
570.728
566.788
562.498
557.879
552.949
547.73
542.242
536.506
530.543
524.373
518.017
511.495
504.827
498.032
491.129
484.138
477.075
469.958
462.803
455.626
448.441
441.263
434.103
426.974
419.887
412.85
405.872
398.962
392.124
385.365
378.689
372.098
365.597
359.185
352.866
346.637
340.501
334.455
328.499
322.631
316.851
311.157
305.547
300.021
294.576
289.211
283.926
278.719
273.588
268.534
263.555
258.651
253.82
249.063
244.378
239.764
235.222
230.75
226.347
222.013
217.746
213.545
209.409
205.335
201.322
197.368
193.47
189.625
185.831
182.083
178.379
174.714
171.084
167.486
163.913
160.362
156.826
153.301
149.782
146.262
142.737
139.201
135.65
132.081
128.492
124.885
121.264
117.64
114.033
110.474
107.011
103.709
100.654
97.9465
95.6868
93.9467
92.7409
92.0088
91.6206
91.4066
91.1956
90.8451
90.2575
89.3826
88.21
86.7627
85.0838
83.2971
81.7076
5.14891
3.32963
3.11827
3.26511
3.56461
3.96113
4.43801
4.99334
5.63262
6.36613
7.20771
8.17435
9.28606
10.567
12.0408
13.7373
15.6911
17.9395
20.5096
23.4417
26.7749
30.5479
34.7987
39.5545
44.8445
50.6953
57.1282
64.1591
71.7982
80.0493
88.9053
98.3576
108.394
118.996
130.143
141.81
153.969
166.59
179.637
193.073
206.859
220.957
235.327
249.928
264.717
279.653
294.687
309.779
324.875
339.934
354.89
369.726
384.299
398.534
412.431
425.983
439.179
452.007
464.45
476.488
488.102
499.272
509.979
520.206
529.936
539.155
547.849
556.008
563.62
570.678
577.175
583.106
588.466
593.254
597.47
601.116
604.194
606.71
608.669
610.08
610.949
611.288
611.106
610.416
609.233
607.569
605.441
602.865
599.857
596.435
592.618
588.425
583.875
578.989
573.787
568.289
562.516
556.49
550.232
543.762
537.102
530.272
523.292
516.183
508.964
501.655
494.273
486.837
479.364
471.87
464.37
456.88
449.412
441.979
434.593
427.264
420.001
412.813