/*--------------------------------*- C++ -*----------------------------------*\
  =========                 |
  \\      /  F ield         | OpenFOAM: The Open Source CFD Toolbox
   \\    /   O peration     | Website:  https://openfoam.org
    \\  /    A nd           | Version:  7
     \\/     M anipulation  |
\*---------------------------------------------------------------------------*/
FoamFile
{
    version     2.0;
    format      ascii;
    class       volScalarField;
    location    "850";
    object      k;
}
// * * * * * * * * * * * * * * * * * * * * * * * * * * * * * * * * * * * * * //

dimensions      [0 2 -2 0 0 0 0];

internalField   nonuniform List<scalar> 
16900
(
0.0115454
0.0266954
0.0417269
0.0555408
0.0680382
0.0792469
0.0892525
0.0981442
0.105982
0.112795
0.118577
0.123288
0.126823
0.128929
0.128974
0.125464
0.128695
0.131926
0.135726
0.145683
0.155956
0.166569
0.177491
0.188708
0.200212
0.211997
0.224062
0.236403
0.249017
0.261896
0.275035
0.288427
0.30206
0.315925
0.330011
0.344303
0.358787
0.373449
0.388272
0.403239
0.418331
0.43353
0.448815
0.464166
0.479562
0.494981
0.510398
0.525792
0.541138
0.556411
0.571586
0.586637
0.601539
0.616264
0.630788
0.645086
0.659132
0.672905
0.686385
0.699557
0.71241
0.724943
0.737167
0.74911
0.760831
0.772334
0.78339
0.794003
0.804171
0.813891
0.823157
0.831966
0.840315
0.848201
0.855621
0.862574
0.869059
0.875076
0.880624
0.885706
0.890322
0.894475
0.898169
0.901407
0.904195
0.906536
0.908436
0.9099
0.910935
0.911548
0.911745
0.911534
0.910922
0.909917
0.908525
0.906755
0.904615
0.902114
0.899258
0.896055
0.892512
0.888639
0.884442
0.879929
0.875105
0.869978
0.864559
0.85885
0.852857
0.846589
0.840054
0.833253
0.826193
0.818888
0.811337
0.80354
0.795522
0.787278
0.778803
0.770138
0.761276
0.75218
0.742933
0.733643
0.724446
0.715972
0.709794
0.704256
0.698693
0.693003
0.687169
0.681191
0.675072
0.668818
0.662439
0.655946
0.649348
0.642659
0.635892
0.629058
0.622173
0.615249
0.6083
0.601341
0.594384
0.587445
0.580537
0.573672
0.566865
0.56013
0.553478
0.546923
0.540478
0.534155
0.527968
0.521929
0.51605
0.510347
0.504831
0.499518
0.494422
0.48956
0.484949
0.480607
0.476556
0.472819
0.469421
0.466394
0.46377
0.461588
0.459891
0.458732
0.458167
0.458263
0.459096
0.460753
0.463334
0.466951
0.471729
0.477805
0.485324
0.494428
0.505233
0.517805
0.532116
0.547998
0.56511
0.582923
0.600751
0.617811
0.633325
0.646604
0.657134
0.664607
0.668939
0.670248
0.668858
0.665349
0.660914
0.658633
0.0239792
0.0425262
0.0583579
0.0731092
0.0866519
0.098979
0.110208
0.120492
0.129977
0.13879
0.147059
0.154931
0.162604
0.170362
0.178631
0.188151
0.201102
0.216794
0.235965
0.254091
0.271769
0.290029
0.30893
0.328433
0.348514
0.369164
0.390378
0.412154
0.434489
0.457378
0.480814
0.504787
0.529286
0.554298
0.579806
0.605792
0.632237
0.659116
0.686407
0.714083
0.742116
0.770477
0.799133
0.828054
0.857204
0.886549
0.916052
0.945675
0.975378
1.00512
1.03486
1.06456
1.09417
1.12364
1.15293
1.18199
1.21078
1.23924
1.26734
1.29503
1.32227
1.34903
1.37527
1.40098
1.42614
1.45044
1.47402
1.49691
1.51909
1.54056
1.56129
1.58128
1.60052
1.61899
1.63668
1.65359
1.66971
1.68502
1.69954
1.71324
1.72613
1.73822
1.74949
1.75995
1.76961
1.77847
1.78652
1.79379
1.80027
1.80597
1.8109
1.81507
1.81848
1.82116
1.82309
1.82431
1.8248
1.8246
1.8237
1.82212
1.81987
1.81694
1.81337
1.80915
1.80429
1.79879
1.79268
1.78596
1.77863
1.7707
1.76218
1.75307
1.74337
1.73311
1.72228
1.71089
1.69894
1.68645
1.6734
1.65982
1.64575
1.6311
1.61589
1.60039
1.58463
1.56864
1.5527
1.53662
1.52028
1.50368
1.48684
1.46979
1.45254
1.43513
1.41757
1.3999
1.38215
1.36434
1.3465
1.32867
1.31087
1.29314
1.27551
1.25799
1.24063
1.22345
1.20649
1.18975
1.17328
1.1571
1.14123
1.1257
1.11052
1.09573
1.08133
1.06737
1.05384
1.04079
1.02822
1.01616
1.00463
0.993665
0.983279
0.973504
0.964374
0.955925
0.948198
0.941244
0.935119
0.929891
0.925642
0.922467
0.92048
0.919815
0.920633
0.923119
0.927485
0.933972
0.942841
0.954361
0.968788
0.986329
1.00709
1.031
1.05777
1.08677
1.11708
1.14744
1.17641
1.20247
1.22422
1.24054
1.2507
1.25437
1.2516
1.24277
1.22849
1.20955
1.18758
1.16514
0.0338988
0.0551571
0.071978
0.087482
0.101979
0.115527
0.128262
0.140395
0.152162
0.163815
0.175625
0.187901
0.200983
0.215223
0.230928
0.248338
0.267622
0.288532
0.310771
0.333391
0.356369
0.379969
0.40428
0.429311
0.455059
0.481521
0.508697
0.536582
0.565174
0.594467
0.62445
0.655114
0.686443
0.71842
0.751026
0.784236
0.818025
0.852365
0.887225
0.92257
0.958365
0.994572
1.03115
1.06806
1.10525
1.14269
1.18032
1.2181
1.25598
1.29391
1.33184
1.36971
1.40747
1.44506
1.48243
1.51953
1.55628
1.59265
1.62856
1.66396
1.69881
1.73304
1.76663
1.79954
1.83157
1.86267
1.89288
1.92219
1.95059
1.97807
2.00461
2.03018
2.05478
2.07839
2.101
2.12259
2.14315
2.16268
2.18117
2.19861
2.215
2.23033
2.24462
2.25786
2.27005
2.28121
2.29133
2.30042
2.3085
2.31557
2.32165
2.32674
2.33087
2.33403
2.33625
2.33754
2.33792
2.33739
2.33598
2.3337
2.33055
2.32656
2.32173
2.31609
2.30964
2.30239
2.29437
2.28557
2.276
2.26568
2.25463
2.24283
2.23031
2.21707
2.20312
2.18847
2.1731
2.15708
2.14035
2.1229
2.10493
2.08636
2.06721
2.0476
2.0276
2.00727
1.98671
1.96585
1.94465
1.92314
1.90134
1.87928
1.857
1.83453
1.81191
1.78917
1.76635
1.74348
1.72062
1.69778
1.67501
1.65235
1.62982
1.60748
1.58536
1.56348
1.54188
1.5206
1.49966
1.47909
1.45894
1.43921
1.41994
1.40116
1.38288
1.36514
1.34796
1.33135
1.31535
1.29998
1.28526
1.27122
1.25789
1.24529
1.23348
1.22248
1.21235
1.20314
1.19492
1.18778
1.18181
1.17714
1.1739
1.17227
1.17246
1.17469
1.17925
1.18643
1.19656
1.20996
1.22691
1.24761
1.27213
1.30028
1.33159
1.36521
1.39992
1.43418
1.46625
1.49438
1.51703
1.53296
1.54144
1.54218
1.53534
1.5214
1.50111
1.47547
1.44657
1.41911
0.0416657
0.0653883
0.0832356
0.0994016
0.1147
0.129345
0.143512
0.157441
0.171409
0.185706
0.200628
0.21647
0.233505
0.251953
0.271938
0.293472
0.316439
0.340664
0.365952
0.391991
0.418683
0.446098
0.474298
0.503307
0.533136
0.563789
0.595268
0.627574
0.660702
0.694648
0.729404
0.764957
0.801292
0.838391
0.876232
0.91479
0.954034
0.993933
1.03445
1.07555
1.11719
1.15932
1.2019
1.24488
1.28821
1.33184
1.37571
1.41976
1.46395
1.5082
1.55247
1.5967
1.64081
1.68475
1.72846
1.77186
1.81489
1.85749
1.89957
1.94109
1.98197
2.02214
2.06156
2.10015
2.13769
2.17417
2.20961
2.24399
2.2773
2.3095
2.34059
2.37053
2.3993
2.42689
2.45329
2.47847
2.50243
2.52515
2.54662
2.56685
2.58582
2.60354
2.62001
2.63522
2.64918
2.66191
2.67341
2.68369
2.69276
2.70064
2.70733
2.71286
2.71725
2.7205
2.72264
2.72369
2.72366
2.72258
2.72046
2.71732
2.71318
2.70806
2.70198
2.69495
2.68699
2.67812
2.66835
2.6577
2.64618
2.63379
2.62057
2.60651
2.59163
2.57592
2.55943
2.54213
2.52399
2.50518
2.48565
2.4654
2.44451
2.423
2.40089
2.37824
2.35513
2.33162
2.30774
2.28348
2.25883
2.23383
2.2085
2.18289
2.15704
2.13099
2.10478
2.07845
2.05205
2.02562
1.99919
1.97281
1.94653
1.92038
1.89441
1.86865
1.84315
1.81794
1.79307
1.76855
1.74444
1.72076
1.69754
1.67482
1.65262
1.63096
1.60988
1.5894
1.56955
1.55034
1.5318
1.51396
1.49684
1.48047
1.46487
1.45007
1.43612
1.42306
1.41093
1.3998
1.38975
1.38085
1.37322
1.367
1.36234
1.35946
1.35857
1.35996
1.36394
1.37085
1.38106
1.39493
1.41275
1.43472
1.46084
1.49086
1.52417
1.55974
1.59617
1.63172
1.6645
1.69262
1.71446
1.7288
1.73492
1.73262
1.72213
1.70406
1.67928
1.64899
1.61577
1.58585
0.0480303
0.0736974
0.0925418
0.10935
0.125353
0.140946
0.156364
0.171861
0.187716
0.204209
0.221605
0.240138
0.259996
0.281296
0.304075
0.328286
0.353805
0.3805
0.408246
0.436899
0.466385
0.496717
0.527928
0.560043
0.593077
0.627038
0.661933
0.697766
0.734535
0.772239
0.81087
0.850418
0.890869
0.932205
0.974403
1.01744
1.06128
1.10589
1.15123
1.19726
1.24394
1.29121
1.33902
1.38731
1.43604
1.48513
1.53453
1.58417
1.634
1.68393
1.73392
1.78388
1.83376
1.88347
1.93295
1.98212
2.0309
2.07922
2.12699
2.17413
2.22057
2.26622
2.31101
2.3548
2.3974
2.43882
2.47905
2.51807
2.55584
2.59235
2.62757
2.66146
2.69401
2.72519
2.75499
2.78338
2.81036
2.83591
2.86002
2.88268
2.9039
2.92367
2.94198
2.95885
2.97429
2.9883
3.00089
3.01208
3.02188
3.03031
3.03739
3.04313
3.04756
3.05071
3.05259
3.05323
3.05265
3.05087
3.04794
3.04385
3.03865
3.03234
3.02497
3.01655
3.00709
2.99663
2.98517
2.97275
2.95938
2.94506
2.92982
2.91369
2.89666
2.87869
2.85994
2.84037
2.81996
2.79881
2.77691
2.75429
2.73099
2.70703
2.68245
2.6573
2.63163
2.6055
2.57893
2.55193
2.52451
2.49669
2.46853
2.44006
2.41134
2.38241
2.35331
2.32409
2.29479
2.26547
2.23617
2.20692
2.17779
2.14881
2.12003
2.09149
2.06323
2.03529
2.00772
1.98055
1.95381
1.92754
1.90178
1.87655
1.85188
1.82781
1.80435
1.78153
1.75938
1.73792
1.71716
1.69714
1.67788
1.6594
1.64172
1.62488
1.60892
1.59386
1.57977
1.5667
1.55473
1.54395
1.53448
1.52645
1.52006
1.5155
1.51305
1.51299
1.51569
1.52152
1.53088
1.54416
1.56168
1.58365
1.61005
1.64056
1.67447
1.71064
1.74753
1.78325
1.81575
1.84308
1.86356
1.87597
1.87965
1.87445
1.86072
1.83916
1.81076
1.77693
1.74066
1.70919
0.0532947
0.0804105
0.100144
0.117556
0.134175
0.150559
0.167005
0.183777
0.20114
0.219345
0.238615
0.259127
0.281005
0.304314
0.329055
0.355175
0.382579
0.41117
0.440859
0.471565
0.503238
0.535875
0.569497
0.604122
0.639769
0.676449
0.714175
0.752951
0.792784
0.833672
0.875614
0.918601
0.962621
1.00766
1.05369
1.10069
1.14863
1.19747
1.24717
1.29769
1.34897
1.40096
1.4536
1.50683
1.56058
1.61479
1.66939
1.72431
1.77947
1.8348
1.89022
1.94566
2.00105
2.05629
2.11131
2.16602
2.22034
2.27417
2.32742
2.37999
2.43179
2.48273
2.53272
2.58146
2.62892
2.67507
2.71988
2.76332
2.80536
2.84597
2.88511
2.92275
2.95887
2.99343
3.02642
3.05782
3.08761
3.11578
3.14232
3.16721
3.19047
3.21208
3.23204
3.25037
3.26708
3.28217
3.29566
3.30758
3.31792
3.32672
3.33401
3.33979
3.34412
3.347
3.34848
3.34857
3.34731
3.34473
3.34086
3.33574
3.32938
3.32183
3.3131
3.30324
3.29227
3.28021
3.26707
3.25291
3.23774
3.22154
3.20436
3.18628
3.16728
3.14736
3.12659
3.10499
3.08256
3.05936
3.0354
3.0107
2.9853
2.95924
2.93253
2.90523
2.87738
2.84903
2.8202
2.79089
2.76114
2.73098
2.70044
2.66959
2.63846
2.60711
2.57558
2.54393
2.51219
2.48043
2.44869
2.41701
2.38545
2.35405
2.32286
2.29192
2.26128
2.23099
2.20107
2.17157
2.14253
2.11398
2.08596
2.0585
2.03162
2.00536
1.97973
1.95477
1.9305
1.90693
1.88409
1.862
1.84067
1.82014
1.80042
1.78153
1.76352
1.74641
1.73026
1.71512
1.70106
1.68818
1.67659
1.66644
1.65792
1.65125
1.64671
1.64461
1.64535
1.64932
1.65699
1.66876
1.68501
1.70596
1.73161
1.76161
1.79522
1.8312
1.86789
1.90326
1.93515
1.96151
1.9806
1.99121
1.99269
1.985
1.96854
1.94411
1.91284
1.87633
1.83784
1.80528
0.0576307
0.0857695
0.106237
0.124177
0.141315
0.158332
0.175583
0.193341
0.211853
0.231342
0.251991
0.273935
0.297262
0.322007
0.348161
0.375681
0.404499
0.434543
0.465753
0.498077
0.531482
0.565964
0.601538
0.638222
0.676034
0.714993
0.755112
0.796403
0.838877
0.882537
0.927384
0.973416
1.02062
1.06899
1.1185
1.16913
1.22084
1.27359
1.32735
1.38207
1.43768
1.49413
1.55136
1.6093
1.66787
1.72699
1.7866
1.84661
1.90694
1.9675
2.02821
2.08899
2.14974
2.21038
2.27081
2.33093
2.39066
2.44988
2.50849
2.56637
2.62341
2.6795
2.73448
2.78805
2.84022
2.89093
2.94017
2.98788
3.03403
3.07857
3.12147
3.16269
3.20221
3.23998
3.276
3.31023
3.34266
3.37327
3.40206
3.42901
3.45412
3.47739
3.49883
3.51844
3.53624
3.55224
3.56647
3.57893
3.58965
3.59866
3.60599
3.61167
3.61573
3.61821
3.61913
3.61855
3.61648
3.61298
3.60808
3.60182
3.59423
3.58535
3.57521
3.56386
3.55134
3.53766
3.52281
3.50693
3.49
3.47204
3.45309
3.43319
3.41237
3.39064
3.36805
3.34462
3.32037
3.29534
3.26954
3.24302
3.21579
3.18789
3.15934
3.13018
3.10045
3.0702
3.03944
3.00819
2.97647
2.94433
2.9118
2.87892
2.84576
2.81237
2.77878
2.74505
2.71124
2.67739
2.64355
2.60978
2.57612
2.54261
2.50932
2.47628
2.44354
2.41115
2.37914
2.34755
2.31644
2.28582
2.25573
2.22621
2.19729
2.16898
2.14132
2.11433
2.08802
2.06242
2.03755
2.01342
1.99005
1.96745
1.94565
1.92466
1.90452
1.88525
1.8669
1.84951
1.83316
1.81794
1.80395
1.79136
1.78033
1.77111
1.76398
1.75929
1.75743
1.75885
1.76405
1.7735
1.78763
1.8067
1.83078
1.85954
1.89221
1.92753
1.96371
1.99861
2.02992
2.05548
2.07347
2.08265
2.08241
2.07273
2.05413
2.02749
1.99404
1.95553
1.91545
1.88212
0.0611626
0.0899706
0.110997
0.129366
0.146915
0.164415
0.182264
0.200747
0.220097
0.24051
0.26214
0.285095
0.30944
0.3352
0.362365
0.390903
0.420768
0.451911
0.484292
0.517877
0.55265
0.588609
0.625768
0.664147
0.703769
0.744655
0.786825
0.830296
0.875083
0.921197
0.968644
1.01742
1.06753
1.11896
1.17168
1.22568
1.28093
1.33738
1.39499
1.4537
1.51346
1.57421
1.63586
1.69835
1.7616
1.82551
1.89
1.95499
2.02037
2.08605
2.15194
2.21794
2.28395
2.34987
2.41559
2.48102
2.54604
2.61053
2.67437
2.73743
2.79957
2.86069
2.92041
2.97865
3.03534
3.09046
3.14394
3.19574
3.24581
3.29411
3.34059
3.38521
3.42794
3.46873
3.50758
3.54445
3.57932
3.61219
3.64304
3.67185
3.69863
3.72338
3.7461
3.76681
3.78551
3.80224
3.81702
3.82985
3.84078
3.84983
3.85704
3.86245
3.8661
3.86803
3.86827
3.86687
3.86388
3.85934
3.8533
3.8458
3.8369
3.82662
3.81499
3.80211
3.78801
3.77271
3.75625
3.7387
3.72009
3.70045
3.67981
3.65822
3.63571
3.61231
3.58804
3.56295
3.53706
3.51039
3.48297
3.45483
3.426
3.3965
3.36636
3.33561
3.30428
3.27242
3.24003
3.20714
3.17378
3.13998
3.10577
3.07122
3.03636
3.00124
2.96592
2.93044
2.89487
2.85924
2.8236
2.78802
2.75254
2.7172
2.68206
2.64717
2.61257
2.5783
2.54441
2.51094
2.47793
2.44541
2.41342
2.38198
2.35113
2.32089
2.29128
2.26233
2.23405
2.20646
2.17958
2.15341
2.12798
2.10329
2.07935
2.05619
2.03382
2.01228
1.99158
1.97179
1.95295
1.93516
1.91853
1.90318
1.88932
1.87716
1.86701
1.85922
1.85421
1.85247
1.85454
1.86095
1.87222
1.88871
1.91055
1.9375
1.96883
2.00323
2.03885
2.07339
2.10439
2.12954
2.14691
2.1552
2.15381
2.14276
2.12264
2.09441
2.05941
2.01951
1.97834
1.94448
0.0639915
0.0931807
0.114596
0.133278
0.151127
0.168966
0.187231
0.206213
0.226136
0.247177
0.269468
0.293102
0.318131
0.344577
0.372435
0.401686
0.4323
0.464249
0.497508
0.532061
0.5679
0.605034
0.643479
0.683259
0.7244
0.766931
0.810877
0.856262
0.903108
0.951429
1.00124
1.05254
1.10534
1.15962
1.21537
1.27256
1.33117
1.39116
1.45247
1.51504
1.57882
1.64374
1.7097
1.77664
1.84445
1.91305
1.98233
2.05219
2.12253
2.19323
2.26419
2.33531
2.40646
2.47754
2.54844
2.61903
2.68919
2.75879
2.8277
2.89576
2.96281
3.02866
3.09293
3.1556
3.2166
3.27588
3.33338
3.38904
3.44281
3.49464
3.54446
3.59225
3.63795
3.68153
3.72297
3.76225
3.79934
3.83424
3.86692
3.89738
3.9256
3.9516
3.97539
3.99698
4.01639
4.03366
4.04879
4.06181
4.07275
4.08167
4.08859
4.09358
4.09666
4.09788
4.09729
4.09496
4.09092
4.08522
4.07793
4.06912
4.05882
4.0471
4.03399
4.01958
4.00391
3.98703
3.96897
3.94981
3.92958
3.90833
3.88609
3.86291
3.83883
3.81387
3.78808
3.76148
3.7341
3.70598
3.67713
3.64758
3.61736
3.58649
3.55499
3.5229
3.49023
3.45703
3.4233
3.38907
3.35435
3.31919
3.28362
3.24769
3.21143
3.1749
3.13815
3.10122
3.06417
3.02704
2.98989
2.95277
2.91572
2.87881
2.84207
2.80555
2.7693
2.73336
2.69779
2.66261
2.62786
2.59359
2.55983
2.5266
2.49393
2.46184
2.43037
2.39952
2.36932
2.33977
2.31089
2.28269
2.25518
2.22836
2.20225
2.17685
2.15218
2.12825
2.10509
2.08275
2.06127
2.04073
2.02123
2.00289
1.98591
1.97051
1.95698
1.94568
1.93707
1.93166
1.93004
1.93283
1.94063
1.95394
1.97303
1.99776
2.02747
2.06086
2.09601
2.13047
2.1616
2.18687
2.20421
2.21225
2.21035
2.19857
2.17754
2.14833
2.11235
2.07158
2.02975
1.99558
0.0662054
0.0955456
0.117193
0.136073
0.154108
0.172156
0.190674
0.209962
0.230236
0.25166
0.274355
0.298401
0.323847
0.350715
0.379009
0.408722
0.43984
0.47235
0.506243
0.541517
0.578176
0.616238
0.655724
0.696666
0.739096
0.783048
0.828556
0.875651
0.92436
0.974705
1.0267
1.08037
1.1357
1.19269
1.25133
1.3116
1.37346
1.43688
1.50179
1.56813
1.63584
1.70484
1.77504
1.84634
1.91864
1.99184
2.06582
2.14047
2.21566
2.29128
2.3672
2.44331
2.51946
2.59555
2.67145
2.74702
2.82213
2.89663
2.97037
3.04319
3.11491
3.18509
3.25362
3.32042
3.38543
3.44858
3.50979
3.56902
3.62619
3.68124
3.73412
3.78477
3.83315
3.87923
3.92298
3.96438
4.00341
4.04005
4.07431
4.10614
4.13555
4.16255
4.18716
4.20939
4.22928
4.24686
4.26213
4.27513
4.2859
4.29449
4.30095
4.30533
4.30768
4.30805
4.3065
4.3031
4.29791
4.29098
4.28238
4.2722
4.26048
4.24729
4.23269
4.21675
4.19952
4.18108
4.16146
4.14074
4.11896
4.09617
4.07241
4.04774
4.02219
3.99581
3.96862
3.94066
3.91197
3.88256
3.85246
3.8217
3.7903
3.75827
3.72565
3.69245
3.6587
3.62441
3.5896
3.5543
3.51852
3.48229
3.44564
3.40862
3.37125
3.3336
3.2957
3.25761
3.21936
3.18101
3.14261
3.10421
3.06585
3.02759
2.98948
2.95155
2.91387
2.87646
2.83938
2.80266
2.76635
2.73047
2.69506
2.66015
2.62577
2.59194
2.55867
2.526
2.49392
2.46245
2.4316
2.40137
2.37178
2.34282
2.31449
2.28681
2.25977
2.23339
2.20769
2.1827
2.15846
2.13503
2.11251
2.09102
2.07072
2.05184
2.03467
2.01957
2.00701
1.99753
1.99179
1.99049
1.99435
2.00402
2.01993
2.04212
2.07005
2.10246
2.13736
2.17213
2.20391
2.22992
2.24792
2.25638
2.25463
2.24274
2.22142
2.19178
2.15535
2.11417
2.07203
2.03775
0.0678831
0.0971944
0.118936
0.137902
0.156018
0.174154
0.192784
0.212213
0.232654
0.254262
0.277148
0.301391
0.327036
0.354112
0.382632
0.4126
0.444017
0.476886
0.511212
0.547007
0.584288
0.623081
0.663418
0.705338
0.748881
0.794089
0.841003
0.889663
0.940102
0.99235
1.04643
1.10235
1.16013
1.21975
1.28121
1.34449
1.40954
1.47633
1.54479
1.61486
1.68645
1.75948
1.83385
1.90945
1.98617
2.0639
2.1425
2.22184
2.30179
2.3822
2.46294
2.54387
2.62485
2.70574
2.78641
2.86671
2.9465
3.02561
3.10388
3.18113
3.25699
3.33118
3.40359
3.47416
3.54279
3.60942
3.67397
3.73638
3.79657
3.85449
3.91005
3.9632
4.0139
4.06212
4.10783
4.151
4.19163
4.22971
4.26522
4.29812
4.32841
4.35613
4.38128
4.40389
4.42399
4.44164
4.45682
4.46957
4.47995
4.48802
4.49383
4.49744
4.49891
4.4983
4.49569
4.49113
4.48471
4.47648
4.46654
4.45494
4.44177
4.4271
4.41099
4.39352
4.37476
4.35478
4.33365
4.31141
4.28814
4.26388
4.2387
4.21264
4.18574
4.15805
4.1296
4.10043
4.07057
4.04005
4.00888
3.9771
3.94472
3.91176
3.87824
3.84416
3.80956
3.77444
3.73882
3.70272
3.66614
3.62912
3.59167
3.55384
3.51565
3.47716
3.4384
3.39941
3.36024
3.32094
3.28155
3.24212
3.20269
3.16333
3.12406
3.08495
3.04603
3.00734
2.96894
2.93085
2.89313
2.85579
2.81888
2.78241
2.74643
2.71094
2.67597
2.64153
2.60764
2.5743
2.54151
2.50929
2.47763
2.44653
2.41598
2.386
2.35657
2.32771
2.29942
2.27172
2.24465
2.21827
2.19264
2.16788
2.14415
2.12165
2.10068
2.08159
2.06485
2.05105
2.04088
2.03515
2.0347
2.04037
2.05278
2.07221
2.09827
2.12979
2.16471
2.20026
2.23327
2.26071
2.28005
2.28963
2.2887
2.27733
2.25627
2.22673
2.19031
2.14911
2.10698
2.07274
0.0690962
0.0982416
0.119961
0.138912
0.157009
0.175126
0.193747
0.213178
0.233632
0.255259
0.278166
0.302429
0.328098
0.355208
0.383781
0.413836
0.445388
0.478453
0.513054
0.549214
0.586965
0.626345
0.667397
0.710167
0.754707
0.801066
0.849296
0.899442
0.951545
1.00564
1.06176
1.11991
1.1801
1.24234
1.30661
1.37289
1.44113
1.5113
1.58331
1.65709
1.73255
1.80958
1.88809
1.96795
2.04904
2.13121
2.21434
2.29827
2.38285
2.4679
2.55327
2.63881
2.72438
2.80981
2.89496
2.97966
3.06377
3.14711
3.2295
3.31067
3.39017
3.46788
3.54371
3.61757
3.68936
3.75901
3.82642
3.89155
3.95431
4.01465
4.07245
4.12766
4.18024
4.23018
4.27743
4.32198
4.36382
4.40294
4.43936
4.47297
4.50381
4.5319
4.55729
4.57998
4.60002
4.61744
4.63227
4.64456
4.65436
4.66173
4.66673
4.66944
4.6699
4.66821
4.66442
4.65862
4.65089
4.64131
4.62996
4.61692
4.60228
4.58611
4.5685
4.54952
4.52925
4.50778
4.48516
4.46147
4.43678
4.41115
4.38463
4.35728
4.32914
4.30027
4.2707
4.24047
4.20961
4.17814
4.14609
4.11348
4.08033
4.04664
4.01243
3.97772
3.94251
3.90681
3.87063
3.83398
3.79687
3.75932
3.72135
3.68299
3.64426
3.6052
3.56585
3.52624
3.48641
3.44642
3.40629
3.36608
3.32584
3.2856
3.24541
3.20532
3.16537
3.1256
3.08606
3.04678
3.00781
2.96916
2.93088
2.893
2.85553
2.81849
2.78191
2.7458
2.71016
2.67501
2.64035
2.60617
2.57248
2.53927
2.50653
2.47426
2.44245
2.41111
2.38022
2.34982
2.31991
2.29055
2.2618
2.23375
2.20654
2.18039
2.15554
2.13238
2.11136
2.09309
2.07831
2.06793
2.06293
2.06434
2.07303
2.08952
2.11367
2.14442
2.17968
2.21648
2.25135
2.2809
2.30231
2.31371
2.31424
2.30398
2.28371
2.25473
2.21873
2.17785
2.136
2.10196
0.0699104
0.0987888
0.120389
0.139237
0.157226
0.175229
0.193736
0.213055
0.233396
0.254907
0.277695
0.301837
0.327389
0.354393
0.382886
0.412896
0.444456
0.477597
0.512357
0.548776
0.5869
0.626779
0.668468
0.712026
0.757512
0.804988
0.854512
0.90614
0.959919
1.01589
1.07407
1.1345
1.19716
1.26207
1.32921
1.39855
1.47005
1.54365
1.61926
1.69678
1.77613
1.85718
1.93981
2.02389
2.10927
2.19581
2.28336
2.37174
2.46078
2.55026
2.64003
2.72992
2.81976
2.90938
2.99861
3.0873
3.17526
3.26233
3.34831
3.43268
3.51526
3.59595
3.67464
3.75122
3.8256
3.8977
3.96742
4.03471
4.0995
4.16176
4.22126
4.27801
4.33199
4.38315
4.43147
4.47694
4.51954
4.55926
4.59611
4.63003
4.66106
4.68921
4.71451
4.73699
4.75669
4.77365
4.78791
4.79952
4.80854
4.81503
4.81906
4.82071
4.82004
4.81714
4.81209
4.80496
4.79586
4.78487
4.77208
4.75757
4.74144
4.72378
4.70467
4.68421
4.66247
4.63955
4.61552
4.59045
4.56442
4.5375
4.50975
4.48122
4.45198
4.42206
4.39151
4.36038
4.32868
4.29644
4.26369
4.23045
4.19672
4.16252
4.12785
4.09272
4.05714
4.0211
3.98462
3.94768
3.91031
3.8725
3.83427
3.79565
3.75664
3.71728
3.67761
3.63764
3.59743
3.557
3.51639
3.47566
3.43483
3.39395
3.35306
3.31222
3.27145
3.2308
3.19031
3.15002
3.10996
3.07017
3.03067
2.9915
2.95267
2.91421
2.87613
2.83845
2.80116
2.76429
2.72782
2.69176
2.6561
2.62083
2.58595
2.55144
2.51729
2.48351
2.45007
2.417
2.38429
2.35199
2.32015
2.28885
2.25822
2.22844
2.19976
2.17254
2.14724
2.12448
2.10505
2.08992
2.08023
2.07721
2.08201
2.09544
2.11765
2.14776
2.18368
2.22222
2.25957
2.29192
2.3161
2.33
2.33261
2.32401
2.30503
2.27704
2.24181
2.20156
2.16022
2.12652
0.070386
0.0989259
0.120328
0.138998
0.156802
0.174612
0.192916
0.212027
0.232152
0.253439
0.275998
0.299908
0.325234
0.352029
0.38034
0.410213
0.441697
0.474839
0.509695
0.54632
0.584777
0.625132
0.667453
0.71181
0.758274
0.806914
0.8578
0.910994
0.966552
1.02451
1.0849
1.14773
1.21301
1.28074
1.35088
1.42342
1.49829
1.57544
1.65475
1.7361
1.81938
1.90446
1.9912
2.07945
2.16906
2.25985
2.35166
2.44432
2.53759
2.63124
2.72508
2.81894
2.91264
3.00598
3.0988
3.19091
3.28213
3.37227
3.46099
3.54794
3.63295
3.71595
3.79682
3.87546
3.95178
4.02567
4.09706
4.16587
4.23202
4.29547
4.35607
4.4138
4.46861
4.52048
4.56937
4.61527
4.65816
4.69805
4.73493
4.76878
4.79962
4.82746
4.85235
4.8743
4.89337
4.90961
4.92305
4.93375
4.94178
4.94721
4.9501
4.95055
4.94862
4.94441
4.93799
4.92948
4.91894
4.9065
4.89224
4.87625
4.85863
4.83949
4.81892
4.79702
4.77387
4.74956
4.72419
4.69783
4.67056
4.64246
4.61359
4.58402
4.5538
4.52298
4.49161
4.45973
4.42736
4.39454
4.36128
4.3276
4.29351
4.25901
4.2241
4.18879
4.15307
4.11694
4.08039
4.04343
4.00605
3.96824
3.93002
3.8914
3.85238
3.813
3.77327
3.73321
3.69287
3.65226
3.61143
3.57041
3.52924
3.48796
3.4466
3.40522
3.36384
3.32252
3.28128
3.24016
3.1992
3.15842
3.11787
3.07756
3.03752
2.99776
2.95831
2.91916
2.88034
2.84184
2.80367
2.76581
2.72827
2.69103
2.65409
2.61742
2.58101
2.54486
2.50896
2.47329
2.43788
2.40274
2.36791
2.33346
2.29951
2.26622
2.23382
2.20265
2.17317
2.14601
2.12199
2.10214
2.08773
2.08021
2.081
2.09129
2.11155
2.14113
2.17799
2.21873
2.25916
2.29498
2.32263
2.33966
2.34496
2.33854
2.32128
2.29465
2.26052
2.22115
2.18053
2.14728
0.0705786
0.0987326
0.119877
0.138304
0.155859
0.173406
0.191437
0.210261
0.23009
0.25107
0.273315
0.296913
0.321936
0.348451
0.376521
0.406208
0.437579
0.470701
0.505647
0.542492
0.581317
0.622206
0.665243
0.710506
0.758076
0.808033
0.860456
0.915414
0.972968
1.03316
1.096
1.16148
1.22962
1.30039
1.37378
1.44972
1.52816
1.60905
1.69221
1.77749
1.86477
1.95389
2.04472
2.13707
2.23076
2.32563
2.42147
2.51815
2.61536
2.71279
2.81026
2.9076
3.00461
3.10108
3.19682
3.29164
3.38533
3.47753
3.56805
3.65673
3.7434
3.82794
3.91024
3.9902
4.06771
4.14268
4.21502
4.28466
4.35151
4.41551
4.47658
4.53466
4.58972
4.64172
4.69063
4.73644
4.77913
4.81871
4.85518
4.88853
4.91877
4.94594
4.97006
4.99116
5.00931
5.02454
5.03691
5.04648
5.05331
5.05749
5.05909
5.05819
5.05488
5.04926
5.0414
5.03143
5.01942
5.0055
4.98975
4.97229
4.95321
4.93263
4.91065
4.88736
4.86286
4.83726
4.81064
4.78309
4.7547
4.72554
4.69569
4.66522
4.63417
4.60262
4.57059
4.53814
4.50529
4.47208
4.4385
4.40459
4.37034
4.33576
4.30084
4.26557
4.22996
4.19398
4.15762
4.12088
4.08375
4.0462
4.00825
3.9699
3.93114
3.89199
3.85247
3.81259
3.77237
3.73185
3.69104
3.64999
3.60872
3.56727
3.52568
3.48398
3.44222
3.40042
3.35863
3.31687
3.27519
3.23362
3.19218
3.15089
3.10979
3.06888
3.02819
2.98772
2.94749
2.90749
2.86772
2.82819
2.78888
2.74977
2.71087
2.67215
2.6336
2.5952
2.55693
2.51881
2.48081
2.44296
2.40529
2.36785
2.33075
2.29412
2.25819
2.22328
2.18982
2.15844
2.12998
2.10553
2.08648
2.07446
2.07122
2.07829
2.09656
2.1257
2.16373
2.2071
2.25116
2.2911
2.32286
2.34366
2.3522
2.34844
2.33333
2.3084
2.27563
2.23738
2.19766
2.16497
0.0705395
0.098279
0.119119
0.137253
0.154505
0.171735
0.189434
0.207913
0.227384
0.247997
0.269872
0.293106
0.317785
0.343991
0.371805
0.401308
0.43259
0.465739
0.500847
0.538011
0.577335
0.618922
0.662875
0.709276
0.758213
0.809778
0.864054
0.921115
0.981029
1.04385
1.10952
1.17804
1.2494
1.32357
1.40051
1.48015
1.56242
1.64727
1.73448
1.82379
1.91511
2.00827
2.1031
2.1994
2.29698
2.39563
2.49514
2.5953
2.69584
2.79646
2.89696
2.99711
3.0967
3.1955
3.29332
3.38994
3.48499
3.57832
3.66984
3.7594
3.84686
3.9321
4.01499
4.09543
4.17332
4.24857
4.32108
4.39077
4.45759
4.52145
4.5823
4.64007
4.69473
4.74625
4.79459
4.83975
4.88172
4.9205
4.95608
4.98849
5.01773
5.04383
5.06682
5.08674
5.10366
5.11761
5.12865
5.13686
5.14231
5.14506
5.1452
5.14283
5.13804
5.13092
5.12156
5.11008
5.09658
5.08117
5.06396
5.04505
5.02455
5.00258
4.97925
4.95466
4.92892
4.90213
4.87438
4.84577
4.81639
4.78633
4.75565
4.72443
4.69273
4.66061
4.62812
4.59529
4.56215
4.52874
4.49506
4.46112
4.42694
4.3925
4.3578
4.32282
4.28755
4.25196
4.21605
4.17978
4.14315
4.10613
4.06871
4.03088
3.99264
3.95399
3.91494
3.87549
3.83567
3.79548
3.75496
3.71412
3.673
3.63162
3.59003
3.54824
3.50631
3.46425
3.42212
3.37993
3.33773
3.29554
3.25338
3.2113
3.1693
3.1274
3.08563
3.04399
3.00248
2.96112
2.9199
2.87882
2.83787
2.79704
2.75631
2.71567
2.67511
2.6346
2.59413
2.55369
2.51328
2.4729
2.43257
2.39235
2.35231
2.31259
2.27338
2.23497
2.19781
2.16248
2.12983
2.101
2.07747
2.06104
2.05376
2.05757
2.07381
2.10253
2.14193
2.18826
2.23645
2.28111
2.3176
2.34276
2.35507
2.35443
2.34183
2.31892
2.28778
2.25084
2.21218
2.18014
0.070317
0.0976276
0.11813
0.13593
0.152837
0.169707
0.187032
0.205123
0.224195
0.244406
0.265884
0.288739
0.313075
0.338993
0.366593
0.395983
0.427279
0.460597
0.496045
0.533746
0.573829
0.616425
0.661666
0.709613
0.760362
0.814014
0.870653
0.93035
0.993171
1.05923
1.12829
1.20037
1.27546
1.3535
1.4344
1.51809
1.60443
1.69333
1.78457
1.87793
1.97324
2.0703
2.16893
2.26889
2.36999
2.47197
2.57462
2.67769
2.7809
2.88399
2.98669
3.08878
3.19
3.29012
3.38894
3.48607
3.58141
3.67491
3.76648
3.85597
3.94327
4.02826
4.11081
4.19082
4.2682
4.34285
4.41469
4.48363
4.54962
4.6126
4.67249
4.72925
4.78284
4.83324
4.88041
4.92434
4.96504
5.0025
5.03673
5.06774
5.09556
5.1202
5.14171
5.16012
5.17551
5.18791
5.19739
5.20403
5.20789
5.20906
5.20762
5.20367
5.19731
5.18863
5.17773
5.16473
5.14973
5.13285
5.1142
5.09389
5.07205
5.04878
5.0242
4.99842
4.97155
4.9437
4.91497
4.88545
4.85525
4.82444
4.79311
4.76133
4.72917
4.69668
4.66391
4.6309
4.59769
4.56429
4.53073
4.497
4.46311
4.42905
4.3948
4.36034
4.32566
4.29072
4.25549
4.21996
4.18409
4.14785
4.11122
4.07418
4.03672
3.99884
3.96052
3.92177
3.88259
3.843
3.80301
3.76263
3.72191
3.68085
3.63948
3.59784
3.55596
3.51388
3.47161
3.4292
3.38667
3.34406
3.30138
3.25868
3.21596
3.17325
3.13056
3.08791
3.0453
3.00274
2.96022
2.91775
2.87531
2.8329
2.7905
2.74811
2.70569
2.66324
2.62074
2.57817
2.53554
2.49283
2.45007
2.4073
2.36459
2.32204
2.27984
2.23827
2.19772
2.15877
2.12227
2.08936
2.06159
2.04092
2.02966
2.03019
2.04433
2.0726
2.11345
2.16302
2.21577
2.26568
2.30748
2.33756
2.35414
2.35705
2.34732
2.32671
2.29742
2.26198
2.22452
2.19321
0.0699568
0.096834
0.116975
0.134412
0.150941
0.167419
0.18434
0.202019
0.220675
0.240478
0.261568
0.284076
0.308125
0.333846
0.361358
0.390802
0.422333
0.456103
0.492226
0.530861
0.572165
0.616299
0.663463
0.713624
0.766898
0.82339
0.883172
0.946293
1.01278
1.08265
1.15576
1.23205
1.31145
1.39386
1.47916
1.56721
1.65786
1.75096
1.84627
1.94358
2.04268
2.14335
2.24537
2.3485
2.45251
2.55715
2.66216
2.7673
2.87227
2.9768
3.08062
3.18348
3.2851
3.38525
3.48355
3.58
3.67455
3.76714
3.85767
3.94605
4.03214
4.11585
4.19705
4.27566
4.35157
4.4247
4.49497
4.56231
4.62666
4.68795
4.74613
4.80116
4.853
4.90162
4.947
4.98914
5.02802
5.06365
5.09605
5.12523
5.15121
5.17402
5.1937
5.2103
5.22388
5.23449
5.24219
5.24706
5.24919
5.24864
5.24551
5.2399
5.2319
5.22162
5.20917
5.19465
5.17819
5.15989
5.13987
5.11825
5.09516
5.0707
5.045
5.01817
4.99032
4.96158
4.93203
4.90179
4.87094
4.83959
4.8078
4.77567
4.74325
4.7106
4.67778
4.64482
4.61175
4.5786
4.54538
4.5121
4.47874
4.44529
4.41174
4.37805
4.34421
4.31016
4.27589
4.24134
4.20649
4.17129
4.13571
4.09973
4.06331
4.02645
3.98913
3.95133
3.91306
3.87432
3.83512
3.79547
3.75538
3.71488
3.67399
3.63273
3.59114
3.54924
3.50706
3.46464
3.42199
3.37916
3.33617
3.29304
3.2498
3.20646
3.16304
3.11955
3.07601
3.03242
2.98877
2.94508
2.90133
2.85752
2.81363
2.76965
2.72557
2.68137
2.63704
2.59255
2.54791
2.50311
2.45817
2.41311
2.368
2.32294
2.27808
2.23369
2.19012
2.14795
2.10798
2.07135
2.03966
2.01498
1.99987
1.99711
2.00906
2.03679
2.07908
2.13205
2.1897
2.24532
2.29297
2.3285
2.34983
2.3567
2.35018
2.33214
2.30492
2.27114
2.23501
2.20451
0.0695035
0.0959488
0.115711
0.132761
0.14889
0.164957
0.181462
0.198725
0.216977