/*--------------------------------*- C++ -*----------------------------------*\
  =========                 |
  \\      /  F ield         | OpenFOAM: The Open Source CFD Toolbox
   \\    /   O peration     | Website:  https://openfoam.org
    \\  /    A nd           | Version:  7
     \\/     M anipulation  |
\*---------------------------------------------------------------------------*/
FoamFile
{
    version     2.0;
    format      ascii;
    class       volScalarField;
    location    "850";
    object      nut;
}
// * * * * * * * * * * * * * * * * * * * * * * * * * * * * * * * * * * * * * //

dimensions      [0 2 -1 0 0 0 0];

internalField   nonuniform List<scalar> 
16900
(
1.40167e-05
3.99434e-05
6.24375e-05
8.31121e-05
0.000101816
0.000118592
0.000133568
0.000146879
0.00015862
0.000168834
0.00017751
0.000184537
0.000189577
0.000191721
0.000188782
4.16629e-05
4.28574e-05
4.52939e-05
4.76197e-05
4.94181e-05
5.1129e-05
5.28391e-05
5.45442e-05
5.62416e-05
5.79308e-05
5.96119e-05
6.12852e-05
6.29507e-05
6.46087e-05
6.6259e-05
6.79012e-05
6.95351e-05
7.116e-05
7.27754e-05
7.43805e-05
7.59746e-05
7.75568e-05
7.91261e-05
8.06817e-05
8.22226e-05
8.37477e-05
8.5256e-05
8.67465e-05
8.82182e-05
8.96698e-05
9.11005e-05
9.2509e-05
9.38942e-05
9.52551e-05
9.65906e-05
9.78994e-05
9.91805e-05
0.000100433
0.000101655
0.000102846
0.000104006
0.000105132
0.000106226
0.000107285
0.000108309
0.0001093
0.000110257
0.000111183
0.00011208
0.000112954
0.000113804
0.000114616
0.000115389
0.000116126
0.000116825
0.000117487
0.000118114
0.000118704
0.000119259
0.000119779
0.000120264
0.000120714
0.00012113
0.000121513
0.000121862
0.000122178
0.000122461
0.000122712
0.000122932
0.000123121
0.000123279
0.000123407
0.000123506
0.000123575
0.000123616
0.000123628
0.000123614
0.000123572
0.000123503
0.000123409
0.000123289
0.000123144
0.000122974
0.00012278
0.000122563
0.000122322
0.000122059
0.000121773
0.000121465
0.000121135
0.000120783
0.000120411
0.000120018
0.000119604
0.000119169
0.000118715
0.00011824
0.000117746
0.000117232
0.000116699
0.000116146
0.000115574
0.000114984
0.000114374
0.000113746
0.000113101
0.000112435
0.000111752
0.000111062
0.000110371
0.000109716
0.000109237
0.00010882
0.000108401
0.000107971
0.000107528
0.000107072
0.000106602
0.000106118
0.000105623
0.000105114
0.000104595
0.000104065
0.000103525
0.000102975
0.000102418
0.000101854
0.000101283
0.000100707
0.000100128
9.95449e-05
9.89603e-05
9.83749e-05
9.77899e-05
9.72063e-05
9.66255e-05
9.60484e-05
9.54764e-05
9.49106e-05
9.43522e-05
9.38026e-05
9.32629e-05
9.27346e-05
9.2219e-05
9.17176e-05
9.12318e-05
9.07634e-05
9.03141e-05
8.98857e-05
8.94804e-05
8.91004e-05
8.87483e-05
8.84269e-05
8.81393e-05
8.78892e-05
8.76806e-05
8.75181e-05
8.74068e-05
8.73528e-05
8.73626e-05
8.74438e-05
8.76047e-05
8.78548e-05
8.82046e-05
8.86654e-05
8.92495e-05
8.99691e-05
9.08354e-05
9.18562e-05
9.30328e-05
9.43562e-05
9.58029e-05
9.73333e-05
9.8893e-05
0.000100417
0.00010184
0.000103099
0.000104148
0.000104954
0.000105505
0.000105805
0.000105876
0.000105761
0.000105558
0.000105524
2.91281e-05
9.46979e-05
0.000131788
0.000159891
0.000184143
0.000205389
0.000223817
0.000239454
0.000252189
0.000261739
0.00026761
0.000269007
0.000264669
0.000252639
0.00023038
0.000196322
0.000202963
0.000215246
0.000233596
0.000246717
0.00025801
0.000269579
0.000281431
0.000293472
0.000305657
0.000317969
0.000330407
0.000342972
0.000355667
0.000368497
0.000381463
0.000394567
0.000407808
0.000421184
0.000434694
0.000448333
0.000462097
0.000475979
0.000489973
0.000504072
0.000518268
0.000532553
0.000546918
0.000561353
0.000575849
0.000590395
0.000604982
0.000619598
0.000634229
0.000648865
0.000663489
0.000678086
0.00069264
0.000707131
0.000721539
0.00073584
0.000750009
0.00076402
0.000777842
0.000791442
0.000804785
0.000817832
0.000830537
0.00084285
0.000854706
0.000865673
0.000876285
0.000886611
0.00089666
0.000906436
0.000915939
0.000925168
0.000934124
0.000942806
0.000951215
0.00095935
0.000967212
0.000974802
0.000982119
0.000989165
0.000995941
0.00100245
0.00100869
0.00101466
0.00102038
0.00102583
0.00103103
0.00103597
0.00104066
0.00104511
0.00104931
0.00105326
0.00105698
0.00106046
0.00106371
0.00106674
0.00106953
0.0010721
0.00107446
0.00107659
0.00107851
0.00108021
0.0010817
0.00108299
0.00108406
0.00108492
0.00108557
0.00108602
0.00108625
0.00108628
0.00108609
0.0010857
0.00108509
0.00108426
0.00108322
0.00108196
0.00108048
0.00107879
0.00107687
0.00107471
0.00107236
0.00106979
0.00106694
0.00106376
0.00106014
0.00105558
0.00104945
0.00104246
0.00103506
0.00102742
0.0010196
0.00101165
0.00100357
0.0009954
0.000987139
0.000978803
0.000970408
0.000961967
0.000953492
0.000944999
0.0009365
0.00092801
0.000919543
0.000911112
0.000902731
0.000894414
0.000886174
0.000878024
0.000869976
0.000862044
0.000854239
0.000846573
0.000839057
0.000831702
0.00082452
0.00081752
0.000810713
0.000804108
0.000797716
0.000791548
0.000785614
0.000779925
0.000774493
0.000769333
0.000764459
0.000759888
0.000755642
0.000751745
0.000748226
0.00074512
0.00074247
0.000740327
0.000738753
0.000737822
0.00073762
0.00073825
0.000739826
0.000742475
0.000746327
0.000751509
0.000758123
0.000766223
0.000775782
0.000786655
0.000798546
0.000810991
0.00082337
0.000834951
0.000844968
0.000852708
0.000857597
0.000859258
0.000857533
0.000852475
0.000844313
0.000833415
0.000820262
0.000805502
0.000790369
0.000777019
4.11804e-05
0.000132685
0.000185242
0.000220394
0.000248939
0.000273547
0.000294881
0.000313164
0.000328519
0.000341064
0.000350969
0.000358508
0.000364067
0.000368137
0.000371538
0.000376835
0.000393401
0.000413909
0.000437288
0.000460788
0.000483958
0.000507267
0.000530824
0.000554637
0.000578702
0.000603023
0.000627606
0.000652459
0.000677589
0.000703002
0.0007287
0.000754682
0.000780946
0.000807485
0.000834292
0.000861354
0.000888659
0.000916191
0.000943933
0.000971867
0.000999972
0.00102823
0.00105661
0.0010851
0.00111367
0.00114229
0.00117094
0.00119959
0.00122822
0.00125679
0.00128527
0.00131362
0.00134182
0.00136981
0.00139757
0.00142504
0.00145217
0.00147892
0.00150523
0.00153104
0.0015563
0.00158094
0.0016049
0.00162814
0.00165031
0.0016715
0.00169201
0.00171192
0.00173126
0.00175001
0.0017682
0.00178582
0.00180287
0.00181935
0.00183527
0.00185061
0.0018654
0.00187962
0.00189328
0.00190638
0.00191893
0.00193093
0.00194239
0.00195331
0.00196369
0.00197355
0.00198288
0.00199171
0.00200003
0.00200785
0.00201517
0.00202202
0.00202839
0.00203429
0.00203974
0.00204473
0.00204928
0.00205339
0.00205707
0.00206033
0.00206316
0.00206558
0.00206759
0.0020692
0.0020704
0.0020712
0.00207161
0.00207161
0.00207122
0.00207042
0.00206923
0.00206764
0.00206563
0.00206323
0.00206041
0.00205718
0.00205354
0.00204949
0.00204503
0.00204015
0.00203484
0.00202913
0.00202295
0.00201619
0.00200872
0.00200017
0.00199018
0.00197909
0.00196726
0.00195492
0.00194216
0.00192905
0.00191564
0.00190196
0.00188804
0.00187391
0.0018596
0.00184512
0.00183051
0.00181579
0.00180098
0.00178613
0.00177124
0.00175636
0.00174149
0.00172668
0.00171194
0.00169731
0.0016828
0.00166844
0.00165425
0.00164025
0.00162647
0.00161292
0.00159964
0.00158663
0.00157391
0.00156152
0.00154945
0.00153775
0.00152642
0.0015155
0.001505
0.00149496
0.0014854
0.00147638
0.00146793
0.00146011
0.00145299
0.00144666
0.0014412
0.00143675
0.00143345
0.00143148
0.00143103
0.00143236
0.00143572
0.00144143
0.00144977
0.00146104
0.00147548
0.00149319
0.00151411
0.00153791
0.0015639
0.00159105
0.00161799
0.00164312
0.00166482
0.00168158
0.00169223
0.00169605
0.00169278
0.00168261
0.00166608
0.00164402
0.00161753
0.0015881
0.00155853
0.00153488
5.06181e-05
0.00016089
0.000226903
0.00026903
0.00030172
0.000329622
0.000354194
0.000376063
0.000395693
0.000413586
0.000430341
0.000446678
0.000463382
0.000481192
0.000500751
0.000523285
0.000550205
0.00057986
0.00061144
0.000643855
0.00067649
0.000709331
0.000742436
0.000775839
0.000809563
0.000843625
0.00087804
0.000912818
0.000947968
0.000983493
0.00101939
0.00105567
0.0010923
0.00112928
0.0011666
0.00120423
0.00124216
0.00128035
0.00131878
0.00135741
0.00139622
0.00143517
0.00147423
0.00151335
0.00155251
0.00159165
0.00163075
0.00166976
0.00170864
0.00174734
0.00178583
0.00182405
0.00186196
0.00189951
0.00193664
0.0019733
0.00200943
0.00204497
0.00207986
0.00211403
0.00214741
0.00217996
0.00221159
0.00224226
0.00227162
0.00229994
0.00232737
0.00235398
0.00237978
0.00240479
0.002429
0.00245244
0.00247509
0.00249696
0.00251805
0.00253837
0.00255791
0.00257669
0.00259471
0.00261196
0.00262847
0.00264423
0.00265926
0.00267356
0.00268714
0.00270001
0.00271218
0.00272367
0.00273447
0.00274461
0.0027541
0.00276295
0.00277116
0.00277876
0.00278575
0.00279214
0.00279795
0.00280318
0.00280785
0.00281196
0.00281553
0.00281855
0.00282105
0.00282301
0.00282445
0.00282537
0.00282578
0.00282566
0.00282503
0.00282388
0.0028222
0.00282
0.00281727
0.00281402
0.00281022
0.00280588
0.00280101
0.00279558
0.0027896
0.00278306
0.00277595
0.00276828
0.00275998
0.00275097
0.00274115
0.00273031
0.00271827
0.00270515
0.00269116
0.00267646
0.00266116
0.00264534
0.00262905
0.00261232
0.00259521
0.00257774
0.00255994
0.00254186
0.00252353
0.00250498
0.00248625
0.00246736
0.00244837
0.0024293
0.00241018
0.00239106
0.00237197
0.00235293
0.00233399
0.00231518
0.00229652
0.00227804
0.00225979
0.00224177
0.00222403
0.00220659
0.00218947
0.00217271
0.00215633
0.00214035
0.00212481
0.00210975
0.0020952
0.0020812
0.0020678
0.00205506
0.00204305
0.00203186
0.00202159
0.00201237
0.00200436
0.00199774
0.00199274
0.00198964
0.00198877
0.0019905
0.00199527
0.00200355
0.00201583
0.00203259
0.00205421
0.0020809
0.00211259
0.00214878
0.00218848
0.00223013
0.00227168
0.00231073
0.00234483
0.00237176
0.00238979
0.00239784
0.00239556
0.00238322
0.00236164
0.00233205
0.00229604
0.00225585
0.00221558
0.00218435
5.83513e-05
0.00018289
0.000260468
0.000309386
0.000346343
0.000377729
0.000405881
0.000431867
0.000456429
0.000480258
0.00050407
0.0005286
0.00055455
0.000582484
0.000612741
0.000645621
0.00068112
0.000718567
0.000757399
0.000797021
0.000837032
0.000877338
0.00091795
0.000958898
0.00100021
0.00104191
0.001084
0.00112651
0.00116944
0.00121278
0.00125654
0.00130071
0.00134527
0.0013902
0.00143548
0.00148108
0.00152697
0.00157311
0.00161947
0.00166601
0.00171268
0.00175944
0.00180624
0.00185303
0.00189977
0.00194641
0.0019929
0.00203918
0.00208522
0.00213094
0.00217632
0.00222129
0.00226579
0.00230979
0.00235321
0.002396
0.00243811
0.00247947
0.00252002
0.0025597
0.00259844
0.00263618
0.00267288
0.00270837
0.00274254
0.00277558
0.00280761
0.00283867
0.00286877
0.00289794
0.00292617
0.00295348
0.00297987
0.00300533
0.00302988
0.00305352
0.00307626
0.00309809
0.00311904
0.0031391
0.00315828
0.00317659
0.00319404
0.00321065
0.00322642
0.00324136
0.0032555
0.00326884
0.0032814
0.00329319
0.00330422
0.00331452
0.0033241
0.00333297
0.00334114
0.00334864
0.00335547
0.00336165
0.00336719
0.0033721
0.0033764
0.00338009
0.00338318
0.00338567
0.00338758
0.00338891
0.00338966
0.00338982
0.0033894
0.0033884
0.00338681
0.00338462
0.00338184
0.00337847
0.00337446
0.00336983
0.00336458
0.00335868
0.00335215
0.00334496
0.0033371
0.00332856
0.00331931
0.00330927
0.00329838
0.00328652
0.00327359
0.00325963
0.00324475
0.00322905
0.00321262
0.00319552
0.00317782
0.00315954
0.00314074
0.00312146
0.00310173
0.00308159
0.00306108
0.00304024
0.00301911
0.00299773
0.00297615
0.0029544
0.00293252
0.00291056
0.00288856
0.00286655
0.00284458
0.00282268
0.00280089
0.00277924
0.00275777
0.00273651
0.00271549
0.00269476
0.00267433
0.00265424
0.00263453
0.00261522
0.00259636
0.00257799
0.00256014
0.00254288
0.00252627
0.00251038
0.0024953
0.00248115
0.00246804
0.00245617
0.00244571
0.00243693
0.00243014
0.00242568
0.00242402
0.00242565
0.00243117
0.00244123
0.00245653
0.00247773
0.0025054
0.00253988
0.00258114
0.0026286
0.002681
0.00273632
0.00279189
0.00284459
0.00289118
0.00292876
0.00295506
0.00296868
0.00296914
0.00295682
0.00293275
0.0028985
0.00285611
0.00280844
0.00276069
0.0027243
6.47476e-05
0.000200396
0.000288003
0.000343442
0.000384768
0.000419776
0.00045163
0.000481814
0.000511265
0.000540747
0.000570945
0.000602474
0.00063584
0.00067138
0.000709208
0.000749268
0.000791287
0.000834813
0.000879425
0.000924742
0.000970504
0.00101662
0.00106307
0.00110989
0.00115708
0.00120468
0.00125269
0.00130113
0.00134999
0.00139928
0.00144898
0.00149909
0.00154958
0.00160043
0.00165161
0.00170309
0.00175482
0.00180676
0.00185888
0.00191111
0.00196342
0.00201574
0.00206803
0.00212023
0.00217228
0.00222413
0.00227572
0.002327
0.00237791
0.00242839
0.0024784
0.00252787
0.00257677
0.00262502
0.00267258
0.00271939
0.0027654
0.00281055
0.00285478
0.00289803
0.00294025
0.00298138
0.00302139
0.00305999
0.00309732
0.00313349
0.00316857
0.00320258
0.00323556
0.00326751
0.00329844
0.00332835
0.00335726
0.00338515
0.00341205
0.00343795
0.00346286
0.00348678
0.00350974
0.00353172
0.00355275
0.00357283
0.00359197
0.00361019
0.0036275
0.00364392
0.00365946
0.00367414
0.00368797
0.00370097
0.00371316
0.00372455
0.00373517
0.00374503
0.00375415
0.00376255
0.00377024
0.00377724
0.00378357
0.00378924
0.00379426
0.00379864
0.0038024
0.00380554
0.00380806
0.00380998
0.00381131
0.00381202
0.00381212
0.00381163
0.00381052
0.00380877
0.00380639
0.00380337
0.00379969
0.00379535
0.00379034
0.00378465
0.00377826
0.00377116
0.00376333
0.00375476
0.0037454
0.00373522
0.00372416
0.00371215
0.00369914
0.00368512
0.00367015
0.0036543
0.00363761
0.00362015
0.00360197
0.0035831
0.00356359
0.00354348
0.0035228
0.0035016
0.00347993
0.00345781
0.0034353
0.00341244
0.00338927
0.00336585
0.0033422
0.00331839
0.00329445
0.00327043
0.00324636
0.0032223
0.00319827
0.00317433
0.0031505
0.00312683
0.00310335
0.00308009
0.0030571
0.0030344
0.00301203
0.00299004
0.00296846
0.00294733
0.00292672
0.00290667
0.00288727
0.00286859
0.00285074
0.00283385
0.00281808
0.00280363
0.00279073
0.00277969
0.00277087
0.00276472
0.00276179
0.0027627
0.00276821
0.00277915
0.0027964
0.00282087
0.00285332
0.00289429
0.00294385
0.00300141
0.00306552
0.00313376
0.00320289
0.00326906
0.00332827
0.00337691
0.00341218
0.00343235
0.00343684
0.00342608
0.00340134
0.0033645
0.00331802
0.00326532
0.00321251
0.00317279
7.00156e-05
0.000214386
0.000310734
0.00037235
0.000418039
0.000456683
0.000492162
0.000526327
0.00056026
0.000594734
0.000630361
0.000667614
0.000706822
0.000748143
0.000791554
0.000836874
0.0008838
0.000931969
0.000981053
0.00103078
0.00108097
0.00113153
0.00118245
0.00123374
0.0012854
0.00133745
0.00138991
0.00144278
0.00149606
0.00154974
0.00160381
0.00165826
0.00171306
0.00176819
0.0018236
0.00187927
0.00193514
0.00199118
0.00204733
0.00210354
0.00215976
0.00221592
0.00227198
0.00232786
0.00238351
0.00243888
0.00249389
0.0025485
0.00260264
0.00265627
0.00270932
0.00276174
0.00281347
0.00286448
0.00291471
0.0029641
0.00301261
0.0030602
0.00310679
0.00315235
0.00319681
0.00324013
0.00328222
0.00332292
0.00336237
0.00340065
0.00343779
0.00347382
0.00350877
0.00354265
0.00357544
0.00360718
0.00363784
0.00366745
0.003696
0.0037235
0.00374996
0.00377539
0.00379978
0.00382316
0.00384552
0.00386688
0.00388726
0.00390666
0.00392511
0.00394262
0.00395921
0.00397489
0.00398968
0.0040036
0.00401667
0.00402893
0.00404038
0.00405104
0.00406093
0.00407008
0.00407851
0.00408625
0.00409329
0.00409965
0.00410537
0.00411045
0.00411491
0.00411874
0.00412196
0.00412458
0.00412663
0.00412804
0.00412885
0.00412905
0.00412864
0.0041276
0.00412593
0.00412362
0.00412065
0.00411702
0.0041127
0.00410768
0.00410194
0.00409546
0.00408821
0.00408019
0.00407134
0.00406165
0.00405106
0.00403952
0.00402701
0.00401349
0.003999
0.00398357
0.00396723
0.00395003
0.00393201
0.0039132
0.00389364
0.00387338
0.00385244
0.00383087
0.00380872
0.00378602
0.00376282
0.00373917
0.00371511
0.0036907
0.00366596
0.00364097
0.00361575
0.00359036
0.00356485
0.00353925
0.00351361
0.00348797
0.00346237
0.00343685
0.00341144
0.00338619
0.00336114
0.00333631
0.00331174
0.00328749
0.00326359
0.00324008
0.00321703
0.00319449
0.00317255
0.0031513
0.00313084
0.00311133
0.00309294
0.00307588
0.00306043
0.00304693
0.0030358
0.00302754
0.0030228
0.00302232
0.00302699
0.00303782
0.00305592
0.00308241
0.00311833
0.00316447
0.00322109
0.00328766
0.00336262
0.00344325
0.00352571
0.00360543
0.00367761
0.00373789
0.00378287
0.00381047
0.00382
0.00381197
0.00378789
0.00374997
0.00370106
0.00364508
0.00358894
0.00354716
7.43067e-05
0.000225499
0.000329473
0.000396863
0.000446799
0.000488974
0.000527866
0.000565641
0.000603495
0.000642196
0.000682273
0.000724083
0.000767819
0.000813524
0.000861094
0.000910315
0.000960899
0.00101255
0.00106499
0.00111803
0.00117152
0.00122538
0.00127959
0.00133414
0.00138906
0.00144433
0.00149998
0.001556
0.00161239
0.00166915
0.00172626
0.00178371
0.00184146
0.00189949
0.00195777
0.00201625
0.00207489
0.00213364
0.00219245
0.00225127
0.00231004
0.0023687
0.0024272
0.00248546
0.00254343
0.00260105
0.00265826
0.00271499
0.00277119
0.00282681
0.00288178
0.00293606
0.00298959
0.00304233
0.00309423
0.00314525
0.00319534
0.00324445
0.00329255
0.00333958
0.0033855
0.00343025
0.00347367
0.00351581
0.00355673
0.00359648
0.00363509
0.00367258
0.00370896
0.00374423
0.00377841
0.00381149
0.00384347
0.00387436
0.00390416
0.00393287
0.00396051
0.00398708
0.00401257
0.00403702
0.00406041
0.00408276
0.00410409
0.00412442
0.00414376
0.00416212
0.00417953
0.004196
0.00421155
0.00422621
0.00424
0.00425295
0.00426509
0.00427641
0.00428696
0.00429675
0.00430583
0.00431422
0.00432191
0.00432892
0.00433529
0.00434105
0.00434622
0.00435076
0.0043547
0.00435806
0.00436085
0.00436305
0.00436468
0.00436572
0.00436619
0.00436605
0.00436531
0.00436395
0.00436196
0.00435931
0.004356
0.00435198
0.00434725
0.00434177
0.00433552
0.00432848
0.0043206
0.00431185
0.00430219
0.00429159
0.00428001
0.00426742
0.00425383
0.00423925
0.0042237
0.00420721
0.00418982
0.00417155
0.00415243
0.0041325
0.0041118
0.00409036
0.00406823
0.00404545
0.00402206
0.00399811
0.00397365
0.00394873
0.00392339
0.00389768
0.00387166
0.00384536
0.00381885
0.00379215
0.00376532
0.00373839
0.00371142
0.00368444
0.00365749
0.0036306
0.00360382
0.00357718
0.00355073
0.00352449
0.00349853
0.00347287
0.00344759
0.00342275
0.00339842
0.00337471
0.00335172
0.00332962
0.00330857
0.00328883
0.00327067
0.00325447
0.00324069
0.00322989
0.00322278
0.00322021
0.0032232
0.00323294
0.00325074
0.00327801
0.00331609
0.00336609
0.00342854
0.0035031
0.00358821
0.00368087
0.0037767
0.00387033
0.00395609
0.00402876
0.00408429
0.00412022
0.0041357
0.00413136
0.00410896
0.00407105
0.0040209
0.0039629
0.00390464
0.00386165
7.77436e-05
0.000234204
0.000344808
0.000417531
0.000471509
0.000517021
0.000559032
0.000599979
0.000641158
0.000683328
0.000726955
0.000772303
0.000819476
0.000868444
0.000919063
0.000971114
0.00102434
0.00107848
0.00113333
0.0011887
0.00124449
0.00130063
0.00135708
0.00141384
0.00147092
0.00152832
0.00158604
0.00164408
0.00170245
0.00176114
0.00182012
0.0018794
0.00193893
0.0019987
0.00205867
0.00211881
0.00217907
0.0022394
0.00229976
0.00236009
0.00242034
0.00248045
0.00254036
0.00260001
0.00265933
0.00271827
0.00277676
0.00283475
0.00289217
0.00294897
0.00300509
0.00306048
0.00311509
0.00316888
0.0032218
0.00327381
0.00332487
0.00337495
0.00342399
0.00347196
0.00351881
0.00356448
0.00360888
0.00365206
0.00369407
0.00373493
0.00377466
0.00381327
0.00385076
0.00388715
0.00392242
0.00395657
0.00398962
0.00402154
0.00405236
0.00408207
0.00411067
0.00413817
0.00416458
0.00418991
0.00421415
0.00423733
0.00425945
0.00428054
0.00430061
0.00431969
0.00433779
0.00435492
0.00437111
0.00438639
0.00440078
0.00441433
0.00442705
0.00443895
0.00445006
0.00446042
0.00447006
0.00447905
0.00448733
0.00449495
0.00450194
0.00450833
0.00451414
0.00451937
0.00452404
0.00452817
0.00453176
0.00453481
0.00453733
0.00453931
0.00454076
0.00454166
0.00454199
0.00454175
0.00454092
0.00453947
0.00453737
0.00453461
0.00453115
0.00452696
0.00452201
0.00451626
0.00450968
0.00450222
0.00449385
0.00448453
0.00447423
0.0044629
0.00445054
0.00443715
0.00442274
0.00440732
0.00439092
0.00437354
0.00435523
0.00433602
0.00431592
0.00429499
0.00427326
0.00425077
0.00422757
0.00420369
0.0041792
0.00415413
0.00412854
0.00410247
0.00407598
0.00404912
0.00402192
0.00399444
0.00396672
0.00393881
0.00391075
0.00388258
0.00385434
0.00382606
0.00379779
0.00376957
0.00374142
0.0037134
0.00368554
0.0036579
0.00363052
0.00360348
0.00357685
0.00355073
0.00352524
0.00350053
0.00347678
0.00345424
0.00343321
0.00341408
0.00339733
0.00338357
0.00337356
0.00336824
0.00336875
0.00337643
0.00339284
0.00341967
0.00345862
0.00351117
0.00357826
0.00365986
0.00375449
0.00385897
0.00396839
0.00407653
0.0041767
0.00426272
0.00432978
0.00437494
0.00439724
0.00439741
0.00437749
0.00434042
0.00428989
0.00423077
0.00417123
0.00412755
8.04334e-05
0.00024087
0.000357203
0.000434795
0.000492546
0.000541142
0.000585936
0.000629599
0.000673517
0.00071845
0.000764819
0.000812823
0.000862509
0.000913802
0.000966543
0.00102052
0.0010755
0.00113126
0.00118762
0.00124444
0.00130162
0.00135908
0.00141682
0.00147481
0.00153305
0.00159156
0.00165033
0.00170936
0.00176867
0.00182823
0.00188806
0.00194812
0.00200841
0.0020689
0.00212956
0.00219036
0.00225127
0.00231224
0.00237323
0.00243418
0.00249506
0.00255579
0.00261632
0.0026766
0.00273656
0.00279613
0.00285526
0.00291389
0.00297194
0.00302937
0.00308612
0.00314213
0.00319735
0.00325175
0.00330527
0.00335788
0.00340954
0.00346021
0.00350986
0.00355845
0.00360592
0.00365224
0.00369741
0.00374143
0.00378432
0.00382609
0.00386676
0.00390631
0.00394476
0.0039821
0.00401832
0.00405341
0.00408738
0.00412021
0.00415192
0.0041825
0.00421196
0.00424029
0.00426752
0.00429362
0.00431862
0.00434252
0.00436535
0.00438711
0.00440784
0.00442755
0.00444625
0.00446397
0.00448072
0.00449654
0.00451147
0.00452554
0.00453878
0.00455119
0.00456281
0.00457367
0.00458383
0.00459331
0.00460212
0.0046103
0.00461787
0.00462487
0.00463133
0.00463724
0.00464264
0.00464755
0.00465196
0.0046559
0.00465936
0.00466234
0.00466484
0.00466686
0.00466837
0.00466936
0.00466981
0.0046697
0.004669
0.00466766
0.00466567
0.00466298
0.00465955
0.00465534
0.00465031
0.00464441
0.0046376
0.00462984
0.00462108
0.00461128
0.00460043
0.00458851
0.00457552
0.00456145
0.00454632
0.00453015
0.00451294
0.00449474
0.00447556
0.00445543
0.0044344
0.0044125
0.00438977
0.00436626
0.00434202
0.00431708
0.00429151
0.00426535
0.00423865
0.00421146
0.00418383
0.00415581
0.00412743
0.00409875
0.00406981
0.00404065
0.00401131
0.00398183
0.00395224
0.00392258
0.0038929
0.00386322
0.00383359
0.00380407
0.00377469
0.00374553
0.00371665
0.00368816
0.00366018
0.00363284
0.00360633
0.00358091
0.00355686
0.00353459
0.0035146
0.00349752
0.00348414
0.00347549
0.0034728
0.00347757
0.00349157
0.0035168
0.00355535
0.00360919
0.00367974
0.00376741
0.00387098
0.00398717
0.00411052
0.00423391
0.00434951
0.00445
0.00452966
0.00458503
0.00461497
0.00462037
0.00460358
0.00456798
0.00451771
0.0044581
0.00439785
0.00435382
8.24716e-05
0.0002458
0.000367043
0.000449033
0.000510248
0.000561635
0.000608856
0.00065478
0.000700881
0.000747928
0.000796313
0.000846195
0.000897584
0.000950381
0.00100442
0.0010595
0.00111542
0.00117198
0.00122903
0.00128643
0.00134411
0.001402
0.00146009
0.00151836
0.00157681
0.00163545
0.00169429
0.00175334
0.00181261
0.00187209
0.00193179
0.0019917
0.00205182
0.00211212
0.0021726
0.00223322
0.00229396
0.00235479
0.00241567
0.00247654
0.00253737
0.0025981
0.00265866
0.00271902
0.00277909
0.00283882
0.00289814
0.00295699
0.0030153
0.00307302
0.00313007
0.0031864
0.00324195
0.00329669
0.00335057
0.00340355
0.00345558
0.00350665
0.00355671
0.00360571
0.00365367
0.00370058
0.00374643
0.00379119
0.00383488
0.00387748
0.00391899
0.00395942
0.00399874
0.00403696
0.00407406
0.00411003
0.00414485
0.00417854
0.00421108
0.00424248
0.00427273
0.00430185
0.00432984
0.00435668
0.00438238
0.00440696
0.00443044
0.00445283
0.00447416
0.00449446
0.00451374
0.00453199
0.00454926
0.00456558
0.00458099
0.00459552
0.00460921
0.00462208
0.00463416
0.00464549
0.00465611
0.00466607
0.00467539
0.0046841
0.00469223
0.00469983
0.00470691
0.0047135
0.00471963
0.00472531
0.00473057
0.0047354
0.00473982
0.00474384
0.00474744
0.00475062
0.00475337
0.00475567
0.0047575
0.00475883
0.00475962
0.00475985
0.00475946
0.00475843
0.00475669
0.0047542
0.00475092
0.00474678
0.00474174
0.00473575
0.00472876
0.00472072
0.00471161
0.00470138
0.00469004
0.00467756
0.00466395
0.00464922
0.00463337
0.00461642
0.0045984
0.00457933
0.00455924
0.00453817
0.00451616
0.00449325
0.00446949
0.00444492
0.00441959
0.00439355
0.00436686
0.00433955
0.00431168
0.00428329
0.00425444
0.00422516
0.00419551
0.00416551
0.00413522
0.00410467
0.00407389
0.00404293
0.00401182
0.00398059
0.0039493
0.00391797
0.00388667
0.00385545
0.00382439
0.00379357
0.0037631
0.00373313
0.00370385
0.00367548
0.00364832
0.00362277
0.00359934
0.00357866
0.00356156
0.0035491
0.0035426
0.0035437
0.00355439
0.00357696
0.00361393
0.00366781
0.00374064
0.00383341
0.00394531
0.00407307
0.00421076
0.00435026
0.00448243
0.00459861
0.00469204
0.00475861
0.00479701
0.00480828
0.00479517
0.00476152
0.00471196
0.00465231
0.00459173
0.00454754
8.39454e-05
0.000249259
0.000374661
0.000460577
0.000524923
0.000578785
0.000628068
0.000675808
0.000723561
0.000772117
0.000821851
0.000872899
0.000925247
0.000978785
0.00103335
0.00108876
0.00114482
0.00120136
0.00125824
0.00131537
0.00137265
0.00143006
0.00148757
0.00154517
0.00160288
0.0016607
0.00171867
0.00177679
0.00183508
0.00189357
0.00195226
0.00201116
0.00207028
0.00212962
0.00218916
0.00224889
0.0023088
0.00236887
0.00242905
0.00248931
0.0025496
0.00260987
0.00267006
0.00273012
0.00278998
0.00284957
0.00290881
0.00296765
0.00302601
0.00308381
0.003141
0.0031975
0.00325325
0.00330821
0.00336233
0.00341556
0.00346787
0.00351922
0.00356959
0.00361895
0.00366742
0.00371494
0.00376145
0.00380694
0.0038514
0.0038948
0.00393714
0.00397841
0.0040186
0.00405768
0.00409564
0.00413245
0.00416812
0.00420263
0.00423599
0.00426818
0.00429921
0.00432908
0.00435782
0.00438537
0.00441176
0.00443699
0.0044611
0.00448409
0.004506
0.00452684
0.00454664
0.0045654
0.00458316
0.00459995
0.00461582
0.0046308
0.00464493
0.00465823
0.00467075
0.00468253
0.00469361
0.00470403
0.00471383
0.00472305
0.00473173
0.0047399
0.0047476
0.00475486
0.00476171
0.00476817
0.00477425
0.00477999
0.00478538
0.00479044
0.00479516
0.00479954
0.00480357
0.00480722
0.00481048
0.00481332
0.00481569
0.00481756
0.00481889
0.00481962
0.0048197
0.00481907
0.00481768
0.00481546
0.00481236
0.00480832
0.00480328
0.00479718
0.00478998
0.00478165
0.00477215
0.00476146
0.00474958
0.0047365
0.00472221
0.00470674
0.00469008
0.00467228
0.00465335
0.00463332
0.00461223
0.00459012
0.00456704
0.00454302
0.00451812
0.00449239
0.00446587
0.00443861
0.00441066
0.00438207
0.00435289
0.00432317
0.00429294
0.00426224
0.00423112
0.00419962
0.00416777
0.00413561
0.00410318
0.0040705
0.00403762
0.00400458
0.00397144
0.00393823
0.00390504
0.00387194
0.00383904
0.00380647
0.00377442
0.00374309
0.00371279
0.0036839
0.0036569
0.00363244
0.00361137
0.00359476
0.00358399
0.00358082
0.00358743
0.0036064
0.0036407
0.00369342
0.00376734
0.00386418
0.00398372
0.00412288
0.00427529
0.00443178
0.00458171
0.00471489
0.0048233
0.00490209
0.00494974
0.00496747
0.00495849
0.00492716
0.00487866
0.00481927
0.00475862
0.00471438
8.49345e-05
0.000251475
0.00038035
0.000469728
0.000536853
0.000592858
0.000643828
0.000692943
0.000741833
0.000791314
0.000841756
0.000893281
0.000945864
0.000999392
0.00105371
0.00110863
0.001164
0.00121967
0.00127551
0.00133144
0.00138741
0.00144337
0.00149933
0.0015553
0.00161129
0.00166734
0.00172349
0.00177976
0.0018362
0.00189284
0.00194972
0.00200686
0.00206427
0.00212197
0.00217997
0.00223827
0.00229685
0.0023557
0.00241479
0.00247408
0.00253353
0.00259308
0.00265267
0.00271225
0.00277173
0.00283104
0.00289011
0.00294885
0.00300718
0.00306503
0.0031223
0.00317893
0.00323485
0.00329
0.00334433
0.00339779
0.00345034
0.00350195
0.00355258
0.00360246
0.00365152
0.00369968
0.00374689
0.00379314
0.00383838
0.0038826
0.00392578
0.0039679
0.00400894
0.0040489
0.00408771
0.00412537
0.00416187
0.0041972
0.00423136
0.00426433
0.00429613
0.00432674
0.00435617
0.00438442
0.00441147
0.00443735
0.00446208
0.00448567
0.00450814
0.00452952
0.00454984
0.0045691
0.00458735
0.00460461
0.00462094
0.00463636
0.00465091
0.00466465
0.0046776
0.00468981
0.00470133
0.00471221
0.00472249
0.00473222
0.00474143
0.00475016
0.00475847
0.00476638
0.00477394
0.00478116
0.00478807
0.00479471
0.00480107
0.00480717
0.00481301
0.0048186
0.00482392
0.00482895
0.00483367
0.00483805
0.00484204
0.00484562
0.00484872
0.0048513
0.00485328
0.00485461
0.00485523
0.00485505
0.00485402
0.00485206
0.00484911
0.0048451
0.00483998
0.0048337
0.00482621
0.00481749
0.00480751
0.00479625
0.00478371
0.00476989
0.00475479
0.00473844
0.00472085
0.00470204
0.00468206
0.00466093
0.00463869
0.0046154
0.0045911
0.00456582
0.00453963
0.00451258
0.0044847
0.00445605
0.00442668
0.00439663
0.00436595
0.00433467
0.00430285
0.00427051
0.0042377
0.00420444
0.00417078
0.00413675
0.00410238
0.00406772
0.00403282
0.00399771
0.00396247
0.00392717
0.00389191
0.00385681
0.00382204
0.00378781
0.00375439
0.00372216
0.00369157
0.00366328
0.0036381
0.00361712
0.00360178
0.0035939
0.00359581
0.00361039
0.00364104
0.00369147
0.00376527
0.00386508
0.00399146
0.00414169
0.00430912
0.00448344
0.00465236
0.00480388
0.00492851
0.00502055
0.00507821
0.00510297
0.0050985
0.00506979
0.00502258
0.00496367
0.00490311
0.00485888
8.55122e-05
0.000252656
0.000384375
0.000476753
0.00054629
0.000604085
0.000656349
0.000706383
0.000755885
0.000805697
0.000856191
0.000907485
0.000959547
0.00101227
0.00106549
0.00111907
0.00117284
0.00122669
0.00128052
0.00133426
0.00138788
0.00144138
0.00149478
0.0015481
0.00160139
0.00165471
0.00170812
0.00176168
0.00181546
0.00186952
0.0019239
0.00197865
0.00203381
0.0020894
0.00214544
0.00220194
0.0022589
0.00231629