/*--------------------------------*- C++ -*----------------------------------*\
  =========                 |
  \\      /  F ield         | OpenFOAM: The Open Source CFD Toolbox
   \\    /   O peration     | Website:  https://openfoam.org
    \\  /    A nd           | Version:  7
     \\/     M anipulation  |
\*---------------------------------------------------------------------------*/
FoamFile
{
    version     2.0;
    format      ascii;
    class       volScalarField;
    location    "850";
    object      p;
}
// * * * * * * * * * * * * * * * * * * * * * * * * * * * * * * * * * * * * * //

dimensions      [0 2 -2 0 0 0 0];

internalField   nonuniform List<scalar> 
16900
(
-22.4453
-22.4487
-22.455
-22.4639
-22.4752
-22.4887
-22.5045
-22.5226
-22.5432
-22.5661
-22.5915
-22.6195
-22.6507
-22.6856
-22.7236
-22.7625
-22.8047
-22.847
-22.8797
-22.913
-22.9536
-22.9959
-23.0392
-23.0829
-23.1269
-23.1709
-23.2148
-23.2583
-23.3014
-23.3437
-23.3852
-23.4255
-23.4645
-23.5018
-23.5373
-23.5705
-23.6013
-23.6293
-23.6542
-23.6757
-23.6934
-23.707
-23.7161
-23.7203
-23.7194
-23.7129
-23.7005
-23.6819
-23.6565
-23.6242
-23.5846
-23.5373
-23.482
-23.4185
-23.3464
-23.2656
-23.1757
-23.0767
-22.9685
-22.8508
-22.7237
-22.5871
-22.441
-22.2856
-22.1208
-21.9468
-21.7636
-21.5716
-21.3709
-21.1619
-20.9447
-20.7198
-20.4872
-20.2475
-20.0007
-19.7474
-19.4877
-19.2221
-18.9509
-18.6744
-18.393
-18.1071
-17.817
-17.5231
-17.2257
-16.9254
-16.6223
-16.3169
-16.0096
-15.7008
-15.3908
-15.0799
-14.7686
-14.4571
-14.146
-13.8354
-13.5257
-13.2173
-12.9106
-12.6057
-12.3031
-12.003
-11.7057
-11.4116
-11.1208
-10.8338
-10.5506
-10.2716
-9.99704
-9.72709
-9.46197
-9.2019
-8.94706
-8.69761
-8.45372
-8.21553
-7.98315
-7.75672
-7.53634
-7.32203
-7.11397
-6.91211
-6.71629
-6.52685
-6.34425
-6.16728
-5.9955
-5.83015
-5.67147
-5.51916
-5.37298
-5.23274
-5.09826
-4.96933
-4.84579
-4.72744
-4.61408
-4.50551
-4.40151
-4.30187
-4.20636
-4.11476
-4.02683
-3.94233
-3.86104
-3.78272
-3.70712
-3.63401
-3.56316
-3.49434
-3.42732
-3.36188
-3.29779
-3.23485
-3.17284
-3.11156
-3.05082
-2.99043
-2.9302
-2.86996
-2.80954
-2.74877
-2.68752
-2.62562
-2.56294
-2.49936
-2.43474
-2.36898
-2.30198
-2.23361
-2.16379
-2.09242
-2.01939
-1.94458
-1.86785
-1.78902
-1.70786
-1.62408
-1.53731
-1.44711
-1.35294
-1.25428
-1.15064
-1.0417
-0.927498
-0.808552
-0.686033
-0.561813
-0.438434
-0.318894
-0.20638
-0.103875
-0.0138788
0.0618529
0.122307
0.167083
0.195838
0.207429
0.196281
0.166892
-22.4415
-22.4456
-22.4504
-22.4572
-22.4667
-22.4789
-22.4934
-22.5104
-22.5298
-22.5515
-22.5755
-22.6016
-22.6299
-22.6596
-22.6901
-22.7241
-22.759
-22.7938
-22.8398
-22.8898
-22.9339
-22.9769
-23.0201
-23.0634
-23.1069
-23.1504
-23.1937
-23.2367
-23.2793
-23.3212
-23.3622
-23.4021
-23.4408
-23.4778
-23.513
-23.5461
-23.5768
-23.6048
-23.6297
-23.6513
-23.6692
-23.6831
-23.6926
-23.6973
-23.697
-23.6912
-23.6795
-23.6618
-23.6374
-23.6063
-23.5679
-23.5219
-23.4681
-23.4061
-23.3357
-23.2567
-23.1687
-23.0717
-22.9655
-22.8499
-22.725
-22.5907
-22.447
-22.294
-22.1315
-21.9597
-21.7788
-21.5891
-21.3908
-21.1841
-20.9692
-20.7466
-20.5163
-20.2788
-20.0343
-19.7832
-19.5257
-19.2623
-18.9931
-18.7187
-18.4394
-18.1554
-17.8672
-17.5752
-17.2797
-16.981
-16.6797
-16.3759
-16.0702
-15.7628
-15.4541
-15.1446
-14.8345
-14.5243
-14.2142
-13.9046
-13.5959
-13.2883
-12.9823
-12.6781
-12.376
-12.0764
-11.7795
-11.4856
-11.1951
-10.9081
-10.625
-10.3459
-10.0711
-9.80085
-9.53534
-9.27477
-9.01934
-8.76919
-8.52449
-8.28543
-8.05205
-7.82454
-7.60301
-7.38736
-7.17794
-6.97463
-6.77695
-6.58545
-6.40073
-6.22217
-6.04958
-5.8835
-5.72389
-5.57052
-5.42319
-5.28173
-5.14596
-5.0157
-4.89076
-4.77098
-4.65616
-4.5461
-4.44059
-4.33943
-4.24239
-4.14926
-4.0598
-3.9738
-3.89102
-3.81122
-3.73418
-3.65967
-3.58745
-3.51729
-3.44898
-3.3823
-3.31702
-3.25294
-3.18986
-3.12756
-3.06587
-3.00459
-2.94354
-2.88256
-2.82146
-2.76011
-2.69834
-2.63602
-2.57301
-2.50919
-2.44444
-2.37865
-2.31171
-2.24353
-2.17401
-2.10305
-2.03055
-1.95639
-1.88043
-1.80249
-1.72234
-1.63971
-1.55422
-1.46546
-1.37295
-1.27621
-1.17482
-1.06854
-0.957451
-0.8421
-0.723608
-0.603727
-0.484788
-0.369526
-0.260827
-0.161413
-0.0735624
0.00107875
0.061531
0.107339
0.138112
0.153034
0.14732
0.142295
-22.4359
-22.443
-22.4494
-22.4562
-22.4654
-22.4773
-22.4917
-22.5085
-22.5279
-22.5498
-22.5742
-22.601
-22.6301
-22.6609
-22.6928
-22.7261
-22.7605
-22.7955
-22.835
-22.8779
-22.92
-22.9621
-23.0044
-23.0469
-23.0896
-23.1322
-23.1748
-23.217
-23.2589
-23.3001
-23.3405
-23.3798
-23.4179
-23.4545
-23.4893
-23.5221
-23.5525
-23.5803
-23.6051
-23.6267
-23.6446
-23.6587
-23.6684
-23.6735
-23.6736
-23.6684
-23.6575
-23.6406
-23.6173
-23.5872
-23.55
-23.5054
-23.4531
-23.3927
-23.3241
-23.2469
-23.1609
-23.066
-22.9619
-22.8487
-22.7261
-22.5942
-22.453
-22.3025
-22.1424
-21.9731
-21.7947
-21.6075
-21.4117
-21.2075
-20.9952
-20.7751
-20.5474
-20.3124
-20.0704
-19.8218
-19.5668
-19.3058
-19.0391
-18.767
-18.49
-18.2083
-17.9224
-17.6326
-17.3392
-17.0426
-16.7433
-16.4415
-16.1377
-15.8321
-15.5253
-15.2174
-14.909
-14.6003
-14.2916
-13.9835
-13.676
-13.3697
-13.0649
-12.7617
-12.4607
-12.162
-11.8659
-11.5728
-11.2829
-10.9965
-10.7138
-10.4351
-10.1606
-9.89059
-9.62518
-9.36464
-9.10918
-8.85888
-8.61395
-8.37465
-8.14083
-7.91284
-7.69083
-7.47432
-7.26383
-7.05958
-6.86112
-6.66878
-6.48295
-6.30293
-6.12842
-5.96008
-5.79802
-5.64213
-5.49229
-5.34831
-5.21004
-5.07731
-4.94994
-4.82774
-4.71054
-4.59813
-4.49032
-4.38689
-4.28764
-4.19234
-4.10077
-4.0127
-3.92792
-3.84618
-3.76727
-3.69095
-3.61699
-3.54518
-3.47528
-3.40709
-3.34039
-3.27497
-3.21063
-3.14717
-3.0844
-3.02213
-2.96019
-2.89841
-2.83663
-2.77468
-2.71243
-2.64973
-2.58646
-2.52249
-2.45772
-2.39202
-2.32531
-2.25749
-2.18847
-2.11815
-2.04643
-1.9732
-1.89832
-1.82162
-1.74289
-1.66186
-1.57819
-1.49151
-1.40137
-1.30735
-1.20908
-1.10636
-0.999289
-0.888354
-0.774576
-0.659523
-0.545283
-0.434302
-0.329175
-0.232359
-0.145946
-0.0714709
-0.00987904
0.0384025
0.0731293
0.0943458
0.0985315
0.126885
-22.4316
-22.4421
-22.451
-22.4587
-22.4683
-22.4802
-22.4945
-22.5113
-22.5305
-22.5521
-22.576
-22.6022
-22.6305
-22.6606
-22.692
-22.7248
-22.7591
-22.7947
-22.8328
-22.8728
-22.9134
-22.9545
-22.996
-23.0377
-23.0796
-23.1215
-23.1634
-23.2051
-23.2464
-23.2871
-23.327
-23.366
-23.4038
-23.4401
-23.4746
-23.5072
-23.5375
-23.5653
-23.5901
-23.6118
-23.6299
-23.6442
-23.6543
-23.6598
-23.6604
-23.6558
-23.6456
-23.6295
-23.607
-23.5779
-23.5418
-23.4984
-23.4473
-23.3883
-23.3211
-23.2454
-23.161
-23.0677
-22.9654
-22.8539
-22.7331
-22.603
-22.4637
-22.3149
-22.1565
-21.9889
-21.8123
-21.6269
-21.4329
-21.2306
-21.0201
-20.8018
-20.5759
-20.3427
-20.1026
-19.8557
-19.6025
-19.3432
-19.0782
-18.8078
-18.5325
-18.2524
-17.9681
-17.6798
-17.3879
-17.0928
-16.7949
-16.4945
-16.1919
-15.8877
-15.582
-15.2754
-14.968
-14.6603
-14.3527
-14.0455
-13.7389
-13.4334
-13.1293
-12.8268
-12.5263
-12.2282
-11.9326
-11.6399
-11.3503
-11.0642
-10.7817
-10.5031
-10.2287
-9.95865
-9.69314
-9.43246
-9.17685
-8.92621
-8.68089
-8.44129
-8.20681
-7.97787
-7.75499
-7.53771
-7.32634
-7.12106
-6.92161
-6.72821
-6.5411
-6.35982
-6.18416
-6.01453
-5.85104
-5.69362
-5.54219
-5.39659
-5.25669
-5.12232
-4.99332
-4.86949
-4.75067
-4.63667
-4.52727
-4.42228
-4.3215
-4.22469
-4.13166
-4.04216
-3.95599
-3.87291
-3.7927
-3.71513
-3.63999
-3.56704
-3.49606
-3.42685
-3.3592
-3.29289
-3.22772
-3.16351
-3.10005
-3.03717
-2.9747
-2.91246
-2.85029
-2.78805
-2.72558
-2.66275
-2.59943
-2.53551
-2.47087
-2.4054
-2.33902
-2.27162
-2.20312
-2.13344
-2.06247
-1.9901
-1.91622
-1.84067
-1.76324
-1.68371
-1.60176
-1.51704
-1.42914
-1.33765
-1.2422
-1.14255
-1.03874
-0.931182
-0.820779
-0.708995
-0.597791
-0.489493
-0.386549
-0.291289
-0.20566
-0.131087
-0.0683731
-0.0177535
0.020951
0.0489678
0.0644272
0.119245
-22.4305
-22.4436
-22.4546
-22.4634
-22.4736
-22.4858
-22.5003
-22.5171
-22.5362
-22.5576
-22.5812
-22.607
-22.6347
-22.6642
-22.6952
-22.7277
-22.7616
-22.7971
-22.8343
-22.873
-22.9126
-22.9528
-22.9935
-23.0345
-23.0758
-23.1172
-23.1586
-23.1998
-23.2407
-23.2811
-23.3207
-23.3595
-23.397
-23.4332
-23.4677
-23.5003
-23.5306
-23.5584
-23.5834
-23.6052
-23.6236
-23.6382
-23.6486
-23.6546
-23.6557
-23.6517
-23.6421
-23.6266
-23.6049
-23.5766
-23.5414
-23.4989
-23.4489
-23.3909
-23.3248
-23.2502
-23.167
-23.0749
-22.9738
-22.8634
-22.7439
-22.6151
-22.4769
-22.3291
-22.1718
-22.0053
-21.8299
-21.6456
-21.4528
-21.2516
-21.0423
-20.8252
-20.6005
-20.3685
-20.1295
-19.8838
-19.6317
-19.3736
-19.1097
-18.8405
-18.5662
-18.2872
-18.0039
-17.7166
-17.4257
-17.1316
-16.8346
-16.5351
-16.2334
-15.93
-15.6252
-15.3193
-15.0126
-14.7056
-14.3986
-14.092
-13.786
-13.481
-13.1773
-12.8752
-12.5751
-12.2772
-11.9819
-11.6893
-11.3999
-11.1139
-10.8315
-10.5528
-10.2784
-10.0083
-9.74248
-9.48156
-9.22579
-8.97465
-8.72857
-8.48823
-8.25317
-8.02361
-7.79993
-7.58192
-7.36978
-7.16362
-6.96334
-6.76907
-6.58096
-6.39877
-6.22238
-6.052
-5.88766
-5.72932
-5.57691
-5.4303
-5.28935
-5.15392
-5.02385
-4.89896
-4.77907
-4.66401
-4.55357
-4.44755
-4.34575
-4.24796
-4.15396
-4.06353
-3.97645
-3.8925
-3.81145
-3.73308
-3.65718
-3.58352
-3.51188
-3.44205
-3.37382
-3.30698
-3.24135
-3.17671
-3.11289
-3.04971
-2.98698
-2.92455
-2.86225
-2.79993
-2.73744
-2.67466
-2.61145
-2.5477
-2.48329
-2.41812
-2.3521
-2.28512
-2.21712
-2.14799
-2.07766
-2.00602
-1.93296
-1.85833
-1.78198
-1.70368
-1.62317
-1.5401
-1.45409
-1.36472
-1.27159
-1.17437
-1.073
-0.967786
-0.859543
-0.749675
-0.640127
-0.533219
-0.431388
-0.336914
-0.25166
-0.176917
-0.113295
-0.060743
-0.018573
0.0154809
0.0406635
0.112724
-22.433
-22.4479
-22.4604
-22.4703
-22.4811
-22.4937
-22.5084
-22.5253
-22.5444
-22.5658
-22.5892
-22.6147
-22.6421
-22.6712
-22.7018
-22.734
-22.7676
-22.8026
-22.8391
-22.8769
-22.9156
-22.955
-22.995
-23.0355
-23.0763
-23.1172
-23.1582
-23.1991
-23.2398
-23.2799
-23.3194
-23.358
-23.3955
-23.4317
-23.4662
-23.4988
-23.5293
-23.5572
-23.5824
-23.6045
-23.6231
-23.6381
-23.6489
-23.6553
-23.6569
-23.6533
-23.6443
-23.6295
-23.6084
-23.5808
-23.5463
-23.5046
-23.4554
-23.3982
-23.333
-23.2592
-23.1769
-23.0856
-22.9853
-22.8758
-22.7571
-22.6292
-22.4916
-22.3442
-22.1876
-22.0218
-21.847
-21.6635
-21.4714
-21.271
-21.0624
-20.8461
-20.6221
-20.3909
-20.1526
-19.9077
-19.6564
-19.399
-19.1359
-18.8674
-18.5938
-18.3156
-18.033
-17.7464
-17.4562
-17.1628
-16.8664
-16.5675
-16.2665
-15.9636
-15.6593
-15.354
-15.0478
-14.7413
-14.4347
-14.1285
-13.8229
-13.5182
-13.2148
-12.913
-12.6132
-12.3155
-12.0203
-11.7279
-11.4385
-11.1527
-10.8702
-10.5913
-10.3169
-10.0468
-9.78063
-9.51922
-9.26293
-9.01144
-8.76503
-8.52413
-8.28857
-8.05853
-7.83425
-7.61565
-7.40289
-7.19605
-6.99512
-6.80018
-6.61133
-6.42843
-6.25143
-6.08042
-5.91541
-5.75636
-5.6032
-5.45581
-5.31407
-5.17784
-5.04696
-4.92127
-4.80059
-4.68474
-4.57353
-4.46676
-4.36423
-4.26573
-4.17105
-4.07996
-3.99226
-3.90771
-3.8261
-3.74721
-3.67081
-3.59669
-3.52464
-3.45444
-3.38588
-3.31876
-3.25287
-3.18804
-3.12406
-3.06077
-2.99797
-2.93552
-2.87324
-2.81099
-2.74863
-2.686
-2.623
-2.55949
-2.49537
-2.43053
-2.36488
-2.29831
-2.23076
-2.16212
-2.09232
-2.02127
-1.94886
-1.87497
-1.79947
-1.72216
-1.64279
-1.56108
-1.47663
-1.38901
-1.29775
-1.20245
-1.10292
-0.999323
-0.892406
-0.783552
-0.674746
-0.568388
-0.466972
-0.372804
-0.287675
-0.212762
-0.148447
-0.0943908
-0.049407
-0.0105461
0.0221396
0.104059
-22.4388
-22.4548
-22.4682
-22.479
-22.4904
-22.5034
-22.5184
-22.5354
-22.5546
-22.5758
-22.5991
-22.6244
-22.6514
-22.6802
-22.7106
-22.7424
-22.7756
-22.8101
-22.846
-22.8831
-22.9211
-22.9599
-22.9994
-23.0394
-23.0797
-23.1204
-23.1611
-23.2018
-23.2423
-23.2823
-23.3218
-23.3604
-23.3979
-23.4341
-23.4687
-23.5015
-23.5321
-23.5603
-23.5857
-23.6081
-23.627
-23.6423
-23.6535
-23.6603
-23.6623
-23.6592
-23.6507
-23.6364
-23.6159
-23.5889
-23.555
-23.5139
-23.4653
-23.4088
-23.3441
-23.2711
-23.1893
-23.0986
-22.9989
-22.8899
-22.7718
-22.6442
-22.5068
-22.3596
-22.2032
-22.0378
-21.8634
-21.6803
-21.4887
-21.2887
-21.0806
-20.8647
-20.6412
-20.4104
-20.1727
-19.9282
-19.6774
-19.4205
-19.1579
-18.8898
-18.6168
-18.339
-18.0569
-17.7708
-17.4811
-17.1881
-16.8922
-16.5938
-16.2931
-15.9907
-15.6868
-15.3818
-15.0761
-14.7699
-14.4636
-14.1577
-13.8524
-13.548
-13.2447
-12.9431
-12.6434
-12.346
-12.0509
-11.7584
-11.4692
-11.1834
-10.9008
-10.6217
-10.347
-10.0766
-9.81029
-9.54867
-9.292
-9.0402
-8.7935
-8.55217
-8.3162
-8.08574
-7.86097
-7.64188
-7.42862
-7.22125
-7.01979
-6.82431
-6.63487
-6.45141
-6.27389
-6.10235
-5.93679
-5.77717
-5.62341
-5.47541
-5.33305
-5.1962
-5.06471
-4.93841
-4.81714
-4.70071
-4.58894
-4.48163
-4.37857
-4.27957
-4.18441
-4.09288
-4.00476
-3.91982
-3.83785
-3.75864
-3.68195
-3.60758
-3.5353
-3.46491
-3.3962
-3.32897
-3.26301
-3.19814
-3.13416
-3.0709
-3.00818
-2.94583
-2.8837
-2.82162
-2.75946
-2.69708
-2.63435
-2.57114
-2.50734
-2.44284
-2.37755
-2.31136
-2.2442
-2.17598
-2.10661
-2.03601
-1.96409
-1.89075
-1.81586
-1.73927
-1.66078
-1.58009
-1.49685
-1.41059
-1.32081
-1.22698
-1.12876
-1.02622
-0.919998
-0.811498
-0.70279
-0.596408
-0.494964
-0.400818
-0.315723
-0.240733
-0.176008
-0.120939
-0.0738909
-0.0315854
0.00655631
0.0924109
-22.4474
-22.464
-22.4779
-22.4892
-22.5011
-22.5144
-22.5296
-22.5468
-22.5659
-22.5871
-22.6102
-22.6352
-22.662
-22.6904
-22.7204
-22.7519
-22.7847
-22.8188
-22.8542
-22.8907
-22.9282
-22.9665
-23.0055
-23.0452
-23.0853
-23.1257
-23.1663
-23.2068
-23.2473
-23.2873
-23.3268
-23.3654
-23.4031
-23.4394
-23.4742
-23.5072
-23.538
-23.5664
-23.5921
-23.6147
-23.634
-23.6496
-23.6611
-23.6683
-23.6708
-23.6681
-23.66
-23.6462
-23.6261
-23.5996
-23.5662
-23.5256
-23.4774
-23.4214
-23.3572
-23.2845
-23.2032
-23.1128
-23.0134
-22.9048
-22.787
-22.6592
-22.5215
-22.3745
-22.2182
-22.0529
-21.8787
-21.6957
-21.5043
-21.3045
-21.0966
-20.8809
-20.6577
-20.4272
-20.1897
-19.9456
-19.695
-19.4385
-19.1761
-18.9084
-18.6357
-18.3582
-18.0764
-17.7907
-17.5013
-17.2087
-16.9131
-16.6149
-16.3146
-16.0125
-15.7089
-15.4043
-15.0987
-14.7927
-14.4867
-14.181
-13.876
-13.5718
-13.2686
-12.9671
-12.6676
-12.3704
-12.0753
-11.7826
-11.4933
-11.2073
-10.9247
-10.6456
-10.3707
-10.1
-9.83353
-9.57172
-9.31474
-9.06267
-8.81567
-8.57399
-8.33766
-8.10683
-7.88165
-7.66216
-7.44847
-7.24066
-7.03876
-6.84284
-6.65293
-6.46902
-6.29106
-6.1191
-5.9531
-5.79303
-5.63881
-5.49034
-5.34752
-5.21021
-5.07826
-4.95152
-4.82981
-4.71297
-4.6008
-4.49311
-4.38971
-4.29038
-4.19492
-4.10311
-4.01474
-3.92958
-3.84743
-3.76805
-3.69124
-3.61676
-3.54442
-3.474
-3.40528
-3.33808
-3.27218
-3.2074
-3.14354
-3.08043
-3.01789
-2.95575
-2.89385
-2.83203
-2.77015
-2.70807
-2.64565
-2.58277
-2.51932
-2.45517
-2.39022
-2.32439
-2.25757
-2.18968
-2.12064
-2.05037
-1.97878
-1.90579
-1.8313
-1.75518
-1.67725
-1.59727
-1.51488
-1.42962
-1.3409
-1.24811
-1.15078
-1.04881
-0.942799
-0.834156
-0.72508
-0.61828
-0.516519
-0.422249
-0.337188
-0.262291
-0.197482
-0.141937
-0.0935959
-0.0492053
-0.00725717
0.0776607
-22.4582
-22.4749
-22.4889
-22.5007
-22.5128
-22.5264
-22.5416
-22.5588
-22.5779
-22.599
-22.6219
-22.6466
-22.673
-22.7011
-22.7307
-22.7618
-22.7943
-22.828
-22.8629
-22.899
-22.9361
-22.9741
-23.0128
-23.0522
-23.0921
-23.1324
-23.1729
-23.2135
-23.2539
-23.294
-23.3336
-23.3724
-23.4102
-23.4467
-23.4817
-23.5149
-23.546
-23.5747
-23.6006
-23.6235
-23.6431
-23.659
-23.6708
-23.6783
-23.6811
-23.6788
-23.6711
-23.6576
-23.6379
-23.6118
-23.5787
-23.5385
-23.4907
-23.4349
-23.371
-23.2986
-23.2174
-23.1273
-23.028
-22.9195
-22.8015
-22.6734
-22.5353
-22.3881
-22.2318
-22.0665
-21.8922
-21.7093
-21.5178
-21.3181
-21.1103
-20.8947
-20.6716
-20.4412
-20.2038
-19.9598
-19.7095
-19.4531
-19.191
-18.9235
-18.6509
-18.3737
-18.0921
-17.8066
-17.5175
-17.2251
-16.9297
-16.6318
-16.3317
-16.0298
-15.7265
-15.4221
-15.1168
-14.8109
-14.5051
-14.1996
-13.8948
-13.5908
-13.2876
-12.9861
-12.6866
-12.3893
-12.0942
-11.8017
-11.5123
-11.2262
-10.9434
-10.6643
-10.3892
-10.1183
-9.8517
-9.58968
-9.33245
-9.08011
-8.83285
-8.59086
-8.35422
-8.12306
-7.89753
-7.6777
-7.46365
-7.25548
-7.05322
-6.85693
-6.66665
-6.48237
-6.30407
-6.13177
-5.96543
-5.80501
-5.65044
-5.50163
-5.35847
-5.22082
-5.08855
-4.96149
-4.83949
-4.72238
-4.60995
-4.50203
-4.39841
-4.2989
-4.20328
-4.11133
-4.02285
-3.93761
-3.8554
-3.776
-3.69919
-3.62475
-3.55246
-3.48213
-3.41353
-3.34646
-3.28074
-3.21615
-3.15251
-3.08964
-3.02737
-2.96551
-2.90391
-2.84242
-2.78087
-2.71913
-2.65707
-2.59454
-2.53143
-2.46763
-2.40301
-2.33749
-2.27096
-2.20333
-2.13452
-2.06445
-1.99304
-1.92021
-1.8459
-1.76997
-1.69231
-1.61269
-1.53078
-1.44611
-1.35806
-1.26591
-1.16906
-1.06727
-0.961071
-0.851911
-0.742131
-0.63465
-0.532411
-0.437974
-0.353036
-0.27845
-0.213922
-0.158451
-0.109567
-0.0643677
-0.0198844
0.0599766
-22.4706
-22.4871
-22.5009
-22.5128
-22.5251
-22.5387
-22.554
-22.5711
-22.5901
-22.6109
-22.6335
-22.658
-22.6841
-22.7118
-22.741
-22.7717
-22.8038
-22.8372
-22.8718
-22.9076
-22.9443
-22.9821
-23.0206
-23.0599
-23.0997
-23.14
-23.1805
-23.2211
-23.2617
-23.3019
-23.3416
-23.3806
-23.4186
-23.4553
-23.4905
-23.5239
-23.5553
-23.5842
-23.6104
-23.6335
-23.6534
-23.6695
-23.6816
-23.6894
-23.6924
-23.6904
-23.6829
-23.6697
-23.6503
-23.6244
-23.5916
-23.5515
-23.5039
-23.4484
-23.3846
-23.3123
-23.2311
-23.141
-23.0417
-22.9332
-22.8145
-22.6856
-22.5474
-22.4
-22.2434
-22.0779
-21.9035
-21.7205
-21.529
-21.3292
-21.1213
-20.9057
-20.6826
-20.4522
-20.2149
-19.971
-19.7208
-19.4645
-19.2025
-18.935
-18.6626
-18.3856
-18.1042
-17.8189
-17.53
-17.2378
-16.9426
-16.6448
-16.345
-16.0433
-15.7402
-15.4361
-15.1309
-14.8252
-14.5194
-14.214
-13.9093
-13.6053
-13.3024
-13.001
-12.7015
-12.4041
-12.109
-11.8166
-11.5271
-11.2409
-10.958
-10.6788
-10.4036
-10.1325
-9.86576
-9.60355
-9.34609
-9.09352
-8.84602
-8.60375
-8.36684
-8.13541
-7.90958
-7.68945
-7.47511
-7.26664
-7.06408
-6.8675
-6.67692
-6.49235
-6.31378
-6.14121
-5.97461
-5.81394
-5.65911
-5.51006
-5.36665
-5.22877
-5.09628
-4.96903
-4.84685
-4.72957
-4.617
-4.50897
-4.40525
-4.30567
-4.21
-4.11804
-4.02956
-3.94436
-3.86221
-3.78289
-3.70618
-3.63188
-3.55976
-3.48961
-3.42122
-3.35439
-3.28892
-3.22461
-3.16127
-3.09872
-3.03678
-2.97527
-2.91403
-2.85291
-2.79174
-2.73037
-2.66868
-2.60652
-2.54377
-2.4803
-2.416
-2.35075
-2.28446
-2.21703
-2.14837
-2.07838
-2.00701
-1.93418
-1.85982
-1.78385
-1.70616
-1.62656
-1.54476
-1.46029
-1.3725
-1.2806
-1.18385
-1.08191
-0.975205
-0.865245
-0.754527
-0.6462
-0.543399
-0.448819
-0.364129
-0.290103
-0.226222
-0.17137
-0.122639
-0.0778162
-0.0316977
0.0396274
-22.484
-22.5001
-22.5135
-22.5254
-22.5377
-22.5512
-22.5663
-22.5832
-22.6019
-22.6225
-22.6448
-22.6689
-22.6946
-22.722
-22.7509
-22.7812
-22.813
-22.8461
-22.8804
-22.9159
-22.9525
-22.9901
-23.0286
-23.0678
-23.1076
-23.1479
-23.1885
-23.2292
-23.2699
-23.3103
-23.3502
-23.3894
-23.4276
-23.4645
-23.5
-23.5336
-23.5651
-23.5942
-23.6206
-23.644
-23.6639
-23.6803
-23.6925
-23.7005
-23.7037
-23.7018
-23.6945
-23.6815
-23.6622
-23.6364
-23.6037
-23.5638
-23.5162
-23.4607
-23.3969
-23.3246
-23.2434
-23.1531
-23.0537
-22.9445
-22.8249
-22.6955
-22.5569
-22.4092
-22.2524
-22.0867
-21.9121
-21.7289
-21.5372
-21.3373
-21.1293
-20.9136
-20.6904
-20.4601
-20.2228
-19.9789
-19.7287
-19.4725
-19.2106
-18.9432
-18.6709
-18.394
-18.1128
-17.8276
-17.539
-17.2471
-16.952
-16.6544
-16.3547
-16.0532
-15.7503
-15.4463
-15.1413
-14.8358
-14.5303
-14.225
-13.9203
-13.6164
-13.3136
-13.0123
-12.7128
-12.4154
-12.1204
-11.8279
-11.5384
-11.2521
-10.9692
-10.6899
-10.4145
-10.1433
-9.8764
-9.61401
-9.35635
-9.10358
-8.85586
-8.61337
-8.37622
-8.14455
-7.91848
-7.6981
-7.48351
-7.27479
-7.072
-6.87518
-6.68437
-6.49958
-6.32081
-6.14804
-5.98125
-5.8204
-5.6654
-5.51618
-5.37263
-5.23461
-5.102
-4.97465
-4.85238
-4.73504
-4.62243
-4.51438
-4.41067
-4.31112
-4.2155
-4.12362
-4.03525
-3.95018
-3.86818
-3.78904
-3.71254
-3.63846
-3.56659
-3.49671
-3.42861
-3.36209
-3.29695
-3.23299
-3.17001
-3.10784
-3.04628
-2.98517
-2.92434
-2.86361
-2.80285
-2.74188
-2.68058
-2.61879
-2.55639
-2.49324
-2.42923
-2.36423
-2.29813
-2.23082
-2.16222
-2.09222
-2.02076
-1.94775
-1.87315
-1.79688
-1.71887
-1.63894
-1.55687
-1.47218
-1.38424
-1.29218
-1.19518
-1.09275
-0.985279
-0.874298
-0.762478
-0.653209
-0.549842
-0.455199
-0.370937
-0.297748
-0.234892
-0.181189
-0.133249
-0.0898773
-0.042744
0.0170073
-22.4981
-22.5135
-22.5263
-22.538
-22.5501
-22.5634
-22.5783
-22.5949
-22.6132
-22.6334
-22.6554
-22.679
-22.7044
-22.7314
-22.7599
-22.79
-22.8215
-22.8543
-22.8884
-22.9238
-22.9603
-22.9978
-23.0363
-23.0755
-23.1154
-23.1558
-23.1965
-23.2374
-23.2783
-23.3189
-23.3589
-23.3983
-23.4367
-23.4738
-23.5094
-23.5432
-23.5748
-23.6041
-23.6306
-23.654
-23.6741
-23.6905
-23.7028
-23.7108
-23.7141
-23.7123
-23.7051
-23.692
-23.6728
-23.647
-23.6143
-23.5743
-23.5267
-23.4711
-23.4072
-23.3347
-23.2533
-23.1628
-23.0629
-22.9526
-22.8321
-22.7023
-22.5634
-22.4154
-22.2583
-22.0922
-21.9174
-21.734
-21.5422
-21.342
-21.1339
-20.9181
-20.6949
-20.4644
-20.2271
-19.9833
-19.7332
-19.4772
-19.2153
-18.948
-18.6758
-18.3991
-18.118
-17.833
-17.5446
-17.2528
-16.958
-16.6607
-16.3612
-16.0599
-15.7571
-15.4532
-15.1485
-14.8432
-14.5378
-14.2327
-13.9281
-13.6243
-13.3216
-13.0204
-12.721
-12.4237
-12.1286
-11.8362
-11.5467
-11.2603
-10.9773
-10.698
-10.4225
-10.1512
-9.88413
-9.6216
-9.36377
-9.11082
-8.86292
-8.62023
-8.38288
-8.15101
-7.92473
-7.70416
-7.48937
-7.28046
-7.07747
-6.88048
-6.68949
-6.50454
-6.32562
-6.15272
-5.98581
-5.82485
-5.66975
-5.52044
-5.37681
-5.23874
-5.10609
-4.97872
-4.85646
-4.73914
-4.62658
-4.51859
-4.41498
-4.31554
-4.22007
-4.12835
-4.04017
-3.95531
-3.87355
-3.79467
-3.71845
-3.64467
-3.57312
-3.50358
-3.43585
-3.3697
-3.30495
-3.24139
-3.17883
-3.11707
-3.05595
-2.99527
-2.93488
-2.87458
-2.81425
-2.7537
-2.6928
-2.63138
-2.56933
-2.50649
-2.44275
-2.37796
-2.31202
-2.24478
-2.17618
-2.10607
-2.0344
-1.96108
-1.88606
-1.80926
-1.73065
-1.65008
-1.56735
-1.48204
-1.39351
-1.3009
-1.20328
-1.10007
-0.991586
-0.879405
-0.766369
-0.656115
-0.552204
-0.457611
-0.373958
-0.301885
-0.240416
-0.188372
-0.141793
-0.100869
-0.0530931
-0.00753929
-22.5123
-22.5269
-22.539
-22.5503
-22.5621
-22.575
-22.5895
-22.6057
-22.6237
-22.6434
-22.6649
-22.6882
-22.7132
-22.7398
-22.768
-22.7978
-22.829
-22.8617
-22.8957
-22.931
-22.9675
-23.005
-23.0435
-23.0828
-23.1228
-23.1634
-23.2042
-23.2453
-23.2863
-23.3271
-23.3673
-23.4068
-23.4453
-23.4825
-23.5182
-23.5521
-23.5838
-23.613
-23.6395
-23.663
-23.683
-23.6993
-23.7117
-23.7196
-23.7228
-23.7209
-23.7136
-23.7004
-23.6811
-23.6552
-23.6224
-23.5823
-23.5345
-23.4787
-23.4145
-23.3417
-23.2601
-23.1692
-23.0681
-22.9565
-22.8355
-22.7054
-22.5662
-22.4178
-22.2603
-22.094
-21.919
-21.7354
-21.5434
-21.3432
-21.1349
-20.919
-20.6957
-20.4653
-20.228
-19.9842
-19.7341
-19.4781
-19.2165
-18.9494
-18.6774
-18.4008
-18.1199
-17.8351
-17.5468
-17.2552
-16.9607
-16.6636
-16.3644
-16.0633
-15.7608
-15.4571
-15.1526
-14.8476
-14.5424
-14.2375
-13.933
-13.6294
-13.3269
-13.0258
-12.7265
-12.4292
-12.1342
-11.8418
-11.5523
-11.2659
-10.9829
-10.7035
-10.428
-10.1565
-9.88937
-9.62671
-9.36875
-9.11566
-8.8676
-8.62475
-8.38723
-8.15519
-7.92875
-7.70801
-7.49307
-7.28401
-7.08088
-6.88376
-6.69266
-6.5076
-6.32859
-6.15561
-5.98864
-5.82763
-5.6725
-5.52317
-5.37954
-5.24149
-5.10888
-4.98156
-4.85938
-4.74216
-4.62973
-4.52189
-4.41845
-4.31921
-4.22395
-4.13248
-4.04456
-3.95998
-3.87853
-3.79998
-3.72411
-3.6507
-3.57953
-3.51039
-3.44307
-3.37735
-3.31304
-3.24993
-3.18783
-3.12654
-3.06588
-3.00566
-2.94573
-2.88588
-2.82599
-2.76586
-2.70536
-2.64432
-2.58261
-2.52006
-2.45656
-2.39195
-2.32612
-2.2589
-2.19022
-2.11992
-2.04795
-1.97418
-1.89857
-1.82104
-1.74157
-1.66002
-1.57626
-1.48989
-1.40035
-1.30673
-1.20811
-1.10381
-0.994081
-0.880545
-0.766206
-0.654956
-0.550573
-0.45617
-0.373345
-0.302678
-0.242959
-0.19306
-0.148354
-0.110781
-0.0625736
-0.0335687
-22.5264
-22.5401
-22.5514
-22.5622
-22.5735
-22.586
-22.5999
-22.6156
-22.633
-22.6523
-22.6733
-22.6962
-22.7208
-22.747
-22.775
-22.8045
-22.8356
-22.8681
-22.9021
-22.9373
-22.9738
-23.0114
-23.05
-23.0895
-23.1296
-23.1703
-23.2113
-23.2525
-23.2936
-23.3345
-23.3748
-23.4144
-23.4529
-23.4901
-23.5258
-23.5596
-23.5912
-23.6204
-23.6467
-23.67
-23.6899
-23.706
-23.7181
-23.7258
-23.7288
-23.7268
-23.7192
-23.7059
-23.6863
-23.6602
-23.6271
-23.5867
-23.5386
-23.4825
-23.4181
-23.3449
-23.2629
-23.1709
-23.0684
-22.9563
-22.835
-22.7045
-22.5649
-22.4161
-22.2584
-22.0918
-21.9166
-21.7327
-21.5406
-21.3403
-21.132
-20.9161
-20.6928
-20.4624
-20.2251
-19.9813
-19.7313
-19.4754
-19.2139
-18.9471
-18.6753
-18.3989
-18.1183
-17.8338
-17.5457
-17.2544
-16.9602
-16.6634
-16.3645
-16.0637
-15.7615
-15.4581
-15.1538
-14.8491
-14.5442
-14.2395
-13.9353
-13.6318
-13.3295
-13.0286
-12.7294
-12.4323
-12.1374
-11.845
-11.5556
-11.2692
-10.9862
-10.7068
-10.4312
-10.1597
-9.89247
-9.62972
-9.37165
-9.11843
-8.87026
-8.62727
-8.38963
-8.15746
-7.93089
-7.71002
-7.49496
-7.28579
-7.08257
-6.88536
-6.69418
-6.50907
-6.33002
-6.15702
-5.99004
-5.82903
-5.67393
-5.52465
-5.38108
-5.24311
-5.1106
-4.98341
-4.86137
-4.74432
-4.63208
-4.52446
-4.42126
-4.32228
-4.22731
-4.13614
-4.04855
-3.96433
-3.88324
-3.80508
-3.72961
-3.65663
-3.5859
-3.51721
-3.45035
-3.38511
-3.32128
-3.25865
-3.19704
-3.13624
-3.07607
-3.01634
-2.95688
-2.89751
-2.83806
-2.77836
-2.71826
-2.65759
-2.59621
-2.53394
-2.47066
-2.4062
-2.34044
-2.27321
-2.2044
-2.13385
-2.06149
-1.98716
-1.91083
-1.83239
-1.75182
-1.66902
-1.58387
-1.49604
-1.40503
-1.30999
-1.20996
-1.10425
-0.993039
-0.877999
-0.762293
-0.650053
-0.545261
-0.451191
-0.369387
-0.300402
-0.242769
-0.195476
-0.153102
-0.119733
-0.0711695
-0.0607668
-22.5401
-22.553
-22.5633
-22.5735
-22.5841
-22.5959
-22.6093
-22.6243
-22.6412
-22.6599
-22.6804
-22.7028
-22.727
-22.753
-22.7807
-22.81
-22.841
-22.8735
-22.9074
-22.9427
-22.9793
-23.0169
-23.0556
-23.0952
-23.1355
-23.1762
-23.2174
-23.2586
-23.2998
-23.3407
-23.3809
-23.4204
-23.4588
-23.4959
-23.5314
-23.565
-23.5964
-23.6252
-23.6513
-23.6742
-23.6938
-23.7096
-23.7213
-23.7287
-23.7314
-23.729
-23.7211
-23.7075
-23.6876
-23.6611
-23.6278
-23.587
-23.5386
-23.4821
-23.4173
-23.3438
-23.2605
-23.167
-23.0639
-22.9514
-22.8298
-22.699
-22.559
-22.41
-22.252
-22.0852
-21.9098
-21.7258
-21.5335
-21.3332
-21.1249
-20.9089
-20.6856
-20.4553
-20.2181
-19.9745
-19.7247
-19.469
-19.2077
-18.9411
-18.6696
-18.3935
-18.1132
-17.829
-17.5413
-17.2503
-16.9565
-16.6601
-16.3616
-16.0612
-15.7593
-15.4562
-15.1524
-14.8479
-14.5434
-14.239
-13.935
-13.6319
-13.3298
-13.0291
-12.7301
-12.4331
-12.1384
-11.8462
-11.5568
-11.2705
-10.9875
-10.7081
-10.4325
-10.161
-9.89369
-9.63088
-9.37274
-9.11944
-8.87117
-8.62809
-8.39035
-8.15808
-7.93141
-7.71046
-7.49532
-7.28608
-7.0828
-6.88554
-6.69434
-6.50921
-6.33017
-6.15719
-5.99025
-5.82931
-5.67428
-5.5251
-5.38165
-5.24382
-5.11148
-4.98447
-4.86264
-4.74583
-4.63384
-4.5265
-4.4236
-4.32494
-4.23032
-4.13951
-4.05231
-3.96849
-3.88783
-3.81011
-3.7351
-3.66258
-3.59233
-3.52414
-3.45778
-3.39305
-3.32973
-3.26762
-3.20653
-3.14624
-3.08659
-3.02735
-2.96839
-2.90948
-2.85048
-2.7912
-2.7315
-2.67118
-2.61011
-2.5481
-2.48502
-2.42068
-2.35496
-2.28766
-2.21867
-2.1478
-2.07497
-1.99999
-1.92281
-1.84329
-1.76143
-1.6771
-1.59023
-1.50053
-1.4076
-1.31066
-1.2088
-1.10131
-0.988363
-0.87166
-0.754513
-0.641292
-0.536185
-0.442601
-0.362037
-0.295015
-0.239797
-0.195553
-0.155917
-0.127538
-0.0786223
-0.0886845
-22.5534
-22.5653
-22.5747
-22.584
-22.5939
-22.6049
-22.6174
-22.6318
-22.648
-22.6661
-22.6862
-22.7081
-22.732
-22.7576
-22.7851
-22.8143
-22.8452
-22.8777
-22.9116
-22.947
-22.9836
-23.0214
-23.0601
-23.0997
-23.14
-23.1808
-23.222
-23.2632
-23.3042
-23.3449
-23.385
-23.4242
-23.4623
-23.4991
-23.5342
-23.5674
-23.5983
-23.6268
-23.6524
-23.6749
-23.6939
-23.7093
-23.7206
-23.7275
-23.7297
-23.7268
-23.7186
-23.7045
-23.6843
-23.6575
-23.6237
-23.5826
-23.5337
-23.4769
-23.4117
-23.3369
-23.252
-23.1577
-23.0541
-22.9414
-22.8195
-22.6884
-22.5482
-22.3989
-22.2408
-22.0738
-21.8982
-21.7142
-21.5219
-21.3215
-21.1132
-20.8974
-20.6742
-20.444
-20.2071
-19.9636
-19.7141
-19.4586
-19.1976
-18.9314
-18.6603
-18.3846
-18.1047
-17.8209
-17.5336
-17.2431
-16.9497
-16.6538
-16.3557
-16.0558
-15.7544
-15.4517
-15.1483
-14.8443
-14.5401
-14.2361
-13.9325
-13.6297
-13.3279
-13.0275
-12.7287
-12.432
-12.1374
-11.8454
-11.5561
-11.2699
-10.987
-10.7077
-10.4322
-10.1606
-9.89334
-9.6305
-9.37232
-9.11897
-8.87064
-8.62749
-8.38968
-8.15735
-7.93062
-7.70961
-7.49442
-7.28514
-7.08184
-6.88457
-6.69337
-6.50827
-6.32927
-6.15636
-5.9895
-5.82866
-5.67376
-5.52473
-5.38145
-5.24381
-5.11168
-4.98491
-4.86334
-4.74681
-4.63513
-4.52812
-4.42557
-4.32729
-4.23307
-4.14268
-4.05591
-3.97254
-3.89235
-3.81511
-3.7406
-3.66859
-3.59887
-3.5312
-3.46538
-3.40118
-3.33841
-3.27684
-3.21628
-3.15653
-3.09739
-3.03867
-2.9802
-2.92176
-2.86322
-2.80436
-2.74504
-2.68506
-2.62429
-2.56251
-2.49961
-2.43536
-2.36965
-2.30225
-2.23305
-2.16181
-2.08845
-2.01275
-1.93463
-1.85392
-1.7706
-1.68451
-1.59563
-1.5037
-1.40842
-1.30911
-1.20498
-1.09533
-0.980364
-0.861819
-0.743154
-0.628952
-0.523582
-0.430612
-0.351462
-0.286655
-0.234156
-0.193376
-0.156859
-0.134228
-0.0849167
-0.117065
-22.5661
-22.5772
-22.5854
-22.5938
-22.6026
-22.6127
-22.6244
-22.6379
-22.6534
-22.6709
-22.6904
-22.712
-22.7355
-22.7609
-22.7882
-22.8173
-22.8482
-22.8806
-22.9146
-22.9499
-22.9866
-23.0244
-23.0631
-23.1027
-23.1429
-23.1836
-23.2245
-23.2654
-23.3062
-23.3466
-23.3862
-23.425
-23.4626
-23.4988
-23.5333
-23.5659
-23.5963
-23.6241
-23.6491
-23.671
-23.6895
-23.7042
-23.715
-23.7213
-23.723
-23.7196
-23.7109
-23.6963
-23.6756
-23.6483
-23.6141
-23.5726
-23.5233
-23.466
-23.3994
-23.323
-23.2374
-23.1427
-23.0389
-22.9259
-22.8037
-22.6724
-22.532
-22.3827
-22.2244
-22.0574
-21.8818