/*--------------------------------*- C++ -*----------------------------------*\
  =========                 |
  \\      /  F ield         | OpenFOAM: The Open Source CFD Toolbox
   \\    /   O peration     | Website:  https://openfoam.org
    \\  /    A nd           | Version:  7
     \\/     M anipulation  |
\*---------------------------------------------------------------------------*/
FoamFile
{
    version     2.0;
    format      ascii;
    class       surfaceScalarField;
    location    "850";
    object      phi;
}
// * * * * * * * * * * * * * * * * * * * * * * * * * * * * * * * * * * * * * //

dimensions      [0 3 -1 0 0 0 0];

internalField   nonuniform List<scalar> 
33502
(
3.54993e-09
-3.54912e-09
-3.07564e-08
3.43022e-08
-8.242e-08
5.16656e-08
-1.40384e-07
5.79572e-08
-2.00853e-07
6.04707e-08
-2.62581e-07
6.17189e-08
-3.25075e-07
6.24946e-08
-3.88149e-07
6.30683e-08
-4.51712e-07
6.35633e-08
-5.15765e-07
6.40549e-08
-5.80377e-07
6.46141e-08
-6.45654e-07
6.52808e-08
-7.11639e-07
6.59888e-08
-7.78177e-07
6.65345e-08
-8.45145e-07
6.69678e-08
-9.12825e-07
6.76738e-08
-9.83283e-07
7.04575e-08
-1.05984e-06
7.65489e-08
-1.12861e-06
6.87681e-08
-1.18747e-06
5.8855e-08
-1.24894e-06
6.1471e-08
-1.31115e-06
6.22036e-08
-1.37328e-06
6.21255e-08
-1.43504e-06
6.17562e-08
-1.49633e-06
6.12892e-08
-1.55713e-06
6.07928e-08
-1.61742e-06
6.02873e-08
-1.67719e-06
5.97737e-08
-1.73644e-06
5.92468e-08
-1.79514e-06
5.86989e-08
-1.85326e-06
5.81222e-08
-1.91077e-06
5.75089e-08
-1.96762e-06
5.68521e-08
-2.02377e-06
5.61456e-08
-2.07915e-06
5.5384e-08
-2.13372e-06
5.45625e-08
-2.18739e-06
5.3677e-08
-2.24012e-06
5.2724e-08
-2.29182e-06
5.17004e-08
-2.34242e-06
5.06036e-08
-2.39186e-06
4.94314e-08
-2.44004e-06
4.81817e-08
-2.48689e-06
4.68529e-08
-2.53233e-06
4.54433e-08
-2.57629e-06
4.39517e-08
-2.61866e-06
4.23772e-08
-2.65938e-06
4.07191e-08
-2.69836e-06
3.8977e-08
-2.73551e-06
3.71513e-08
-2.77076e-06
3.52427e-08
-2.80401e-06
3.32525e-08
-2.83519e-06
3.11829e-08
-2.86423e-06
2.9037e-08
-2.89105e-06
2.68185e-08
-2.91558e-06
2.45323e-08
-2.93776e-06
2.21842e-08
-2.95754e-06
1.9781e-08
-2.97487e-06
1.73302e-08
-2.98972e-06
1.48402e-08
-3.00203e-06
1.23196e-08
-3.01181e-06
9.77727e-09
-3.01903e-06
7.22138e-09
-3.02369e-06
4.65832e-09
-3.02578e-06
2.09243e-09
-3.02531e-06
-4.70939e-10
-3.02232e-06
-2.99471e-09
-3.01686e-06
-5.45671e-09
-3.00899e-06
-7.87353e-09
-2.99874e-06
-1.02504e-08
-2.98615e-06
-1.25896e-08
-2.97126e-06
-1.48912e-08
-2.9541e-06
-1.71554e-08
-2.93472e-06
-1.93815e-08
-2.91315e-06
-2.15691e-08
-2.88943e-06
-2.37173e-08
-2.8636e-06
-2.58257e-08
-2.83571e-06
-2.78933e-08
-2.80579e-06
-2.99197e-08
-2.77389e-06
-3.19036e-08
-2.74004e-06
-3.38442e-08
-2.7043e-06
-3.57403e-08
-2.66671e-06
-3.75911e-08
-2.62731e-06
-3.93961e-08
-2.58616e-06
-4.1155e-08
-2.54329e-06
-4.28673e-08
-2.49875e-06
-4.45328e-08
-2.4526e-06
-4.61505e-08
-2.40488e-06
-4.77195e-08
-2.35564e-06
-4.92389e-08
-2.30493e-06
-5.07086e-08
-2.2528e-06
-5.21283e-08
-2.1993e-06
-5.34984e-08
-2.14448e-06
-5.48182e-08
-2.0884e-06
-5.60866e-08
-2.03109e-06
-5.73021e-08
-1.97263e-06
-5.84647e-08
-1.91305e-06
-5.95747e-08
-1.85242e-06
-6.06329e-08
-1.79078e-06
-6.16376e-08
-1.72819e-06
-6.25861e-08
-1.66472e-06
-6.34778e-08
-1.6004e-06
-6.4314e-08
-1.53531e-06
-6.50963e-08
-1.46948e-06
-6.58211e-08
-1.403e-06
-6.64841e-08
-1.33591e-06
-6.70876e-08
-1.26828e-06
-6.76373e-08
-1.20015e-06
-6.81275e-08
-1.1316e-06
-6.85493e-08
-1.06269e-06
-6.89124e-08
-9.93468e-07
-6.9221e-08
-9.24011e-07
-6.94578e-08
-8.54389e-07
-6.96231e-08
-7.84647e-07
-6.97435e-08
-7.14854e-07
-6.97948e-08
-6.45101e-07
-6.97552e-08
-5.75414e-07
-6.9688e-08
-5.0587e-07
-6.95473e-08
-4.36571e-07
-6.93004e-08
-3.6751e-07
-6.90641e-08
-2.98787e-07
-6.87256e-08
-2.30566e-07
-6.82246e-08
-1.62782e-07
-6.7786e-08
-9.54149e-08
-6.73706e-08
-2.85128e-08
-6.69048e-08
3.75876e-08
-6.61034e-08
1.02418e-07
-6.48336e-08
1.65868e-07
-6.34525e-08
2.27972e-07
-6.21061e-08
2.88757e-07
-6.07878e-08
3.48229e-07
-5.94746e-08
4.06376e-07
-5.81486e-08
4.63172e-07
-5.67988e-08
5.18588e-07
-5.54182e-08
5.72589e-07
-5.40039e-08
6.25142e-07
-5.2555e-08
6.76212e-07
-5.10726e-08
7.25769e-07
-4.95584e-08
7.73782e-07
-4.80153e-08
8.20226e-07
-4.64462e-08
8.65078e-07
-4.48549e-08
9.08322e-07
-4.32453e-08
9.49941e-07
-4.16214e-08
9.89926e-07
-3.99876e-08
1.02827e-06
-3.83483e-08
1.06498e-06
-3.67081e-08
1.10005e-06
-3.50717e-08
1.13349e-06
-3.34441e-08
1.16532e-06
-3.18298e-08
1.19555e-06
-3.02344e-08
1.22421e-06
-2.86625e-08
1.25133e-06
-2.71201e-08
1.27694e-06
-2.56119e-08
1.30109e-06
-2.41445e-08
1.32381e-06
-2.2723e-08
1.34516e-06
-2.13546e-08
1.36521e-06
-2.00449e-08
1.38401e-06
-1.8802e-08
1.40164e-06
-1.7632e-08
1.41819e-06
-1.65444e-08
1.43373e-06
-1.55461e-08
1.44838e-06
-1.46478e-08
1.46224e-06
-1.38577e-08
1.47543e-06
-1.31879e-08
1.48808e-06
-1.26476e-08
1.50033e-06
-1.225e-08
1.51234e-06
-1.20051e-08
1.52426e-06
-1.19264e-08
1.53629e-06
-1.20229e-08
1.5486e-06
-1.23065e-08
1.56138e-06
-1.27826e-08
1.57484e-06
-1.34573e-08
1.58917e-06
-1.43284e-08
1.60456e-06
-1.53919e-08
1.6212e-06
-1.66344e-08
1.63924e-06
-1.8041e-08
1.65883e-06
-1.95922e-08
1.68011e-06
-2.12759e-08
1.7032e-06
-2.30932e-08
1.72827e-06
-2.50759e-08
1.75557e-06
-2.72991e-08
1.78546e-06
-2.98927e-08
1.8185e-06
-3.30393e-08
1.85544e-06
-3.69491e-08
1.89725e-06
-4.18118e-08
1.94497e-06
-4.77235e-08
1.99959e-06
-5.46229e-08
2.06183e-06
-6.22455e-08
2.13197e-06
-7.01466e-08
2.20973e-06
-7.77605e-08
2.29424e-06
-8.4518e-08
2.38418e-06
-8.99367e-08
2.47789e-06
-9.37183e-08
2.57366e-06
-9.57728e-08
2.66992e-06
-9.62628e-08
2.76555e-06
-9.56242e-08
2.86028e-06
-9.47273e-08
2.95565e-06
-9.53542e-08
3.05822e-06
-1.02536e-07
-1.25011e-07
-3.09645e-08
2.74135e-08
-7.08191e-08
7.41554e-08
-1.18442e-07
9.92872e-08
-1.71919e-07
1.11433e-07
-2.28941e-07
1.1749e-07
-2.88104e-07
1.2088e-07
-3.48674e-07
1.23062e-07
-4.10285e-07
1.24679e-07
-4.7276e-07
1.26038e-07
-5.36003e-07
1.273e-07
-5.99929e-07
1.2854e-07
-6.6439e-07
1.29744e-07
-7.29205e-07
1.30802e-07
-7.94312e-07
1.31642e-07
-8.59613e-07
1.32266e-07
-9.24621e-07
1.32678e-07
-9.87574e-07
1.33412e-07
-1.04494e-06
1.33913e-07
-1.10581e-06
1.29633e-07
-1.17086e-06
1.23904e-07
-1.2316e-06
1.22208e-07
-1.2905e-06
1.21101e-07
-1.34838e-06
1.20003e-07
-1.40552e-06
1.189e-07
-1.46205e-06
1.1781e-07
-1.51799e-06
1.16737e-07
-1.57338e-06
1.15673e-07
-1.62821e-06
1.14605e-07
-1.68248e-06
1.13514e-07
-1.73616e-06
1.12385e-07
-1.78924e-06
1.11201e-07
-1.84168e-06
1.09947e-07
-1.89344e-06
1.08609e-07
-1.94447e-06
1.07177e-07
-1.99473e-06
1.05638e-07
-2.04415e-06
1.03985e-07
-2.09268e-06
1.0221e-07
-2.14026e-06
1.00306e-07
-2.18683e-06
9.82661e-08
-2.23231e-06
9.60867e-08
-2.27664e-06
9.37629e-08
-2.31975e-06
9.12908e-08
-2.36157e-06
8.86668e-08
-2.40201e-06
8.5888e-08
-2.44101e-06
8.29517e-08
-2.47849e-06
7.98558e-08
-2.51437e-06
7.65986e-08
-2.54857e-06
7.31796e-08
-2.58102e-06
6.95986e-08
-2.61164e-06
6.5857e-08
-2.64034e-06
6.19571e-08
-2.66706e-06
5.79029e-08
-2.69172e-06
5.36998e-08
-2.71426e-06
4.93553e-08
-2.73461e-06
4.48783e-08
-2.7527e-06
4.02802e-08
-2.7685e-06
3.55737e-08
-2.78194e-06
3.07738e-08
-2.793e-06
2.58964e-08
-2.80163e-06
2.09584e-08
-2.80783e-06
1.5977e-08
-2.81158e-06
1.09682e-08
-2.81287e-06
5.94359e-09
-2.81168e-06
9.09119e-10
-2.80807e-06
-4.0859e-09
-2.80208e-06
-8.98354e-09
-2.79375e-06
-1.37841e-08
-2.78312e-06
-1.85024e-08
-2.77023e-06
-2.31452e-08
-2.7551e-06
-2.77152e-08
-2.73778e-06
-3.22129e-08
-2.7183e-06
-3.66377e-08
-2.69669e-06
-4.09886e-08
-2.67299e-06
-4.52643e-08
-2.64725e-06
-4.94637e-08
-2.61949e-06
-5.35854e-08
-2.58975e-06
-5.7628e-08
-2.55808e-06
-6.15899e-08
-2.52452e-06
-6.54695e-08
-2.4891e-06
-6.92643e-08
-2.45186e-06
-7.29723e-08
-2.41286e-06
-7.65917e-08
-2.37214e-06
-8.01214e-08
-2.32973e-06
-8.35606e-08
-2.28569e-06
-8.69088e-08
-2.24006e-06
-9.01649e-08
-2.19288e-06
-9.33277e-08
-2.1442e-06
-9.63946e-08
-2.09408e-06
-9.9364e-08
-2.04255e-06
-1.02235e-07
-1.98967e-06
-1.05007e-07
-1.93549e-06
-1.07681e-07
-1.88005e-06
-1.10256e-07
-1.82341e-06
-1.12729e-07
-1.76561e-06
-1.15098e-07
-1.70671e-06
-1.1736e-07
-1.64677e-06
-1.19518e-07
-1.58583e-06
-1.21573e-07
-1.52395e-06
-1.23521e-07
-1.46117e-06
-1.25358e-07
-1.39757e-06
-1.2708e-07
-1.33319e-06
-1.28691e-07
-1.2681e-06
-1.30194e-07
-1.20234e-06
-1.31582e-07
-1.13597e-06
-1.32847e-07
-1.06907e-06
-1.33991e-07
-1.00168e-06
-1.35026e-07
-9.33868e-07
-1.35942e-07
-8.65696e-07
-1.36722e-07
-7.97227e-07
-1.37382e-07
-7.28516e-07
-1.37932e-07
-6.59634e-07
-1.38341e-07
-5.9065e-07
-1.38607e-07
-5.21619e-07
-1.38776e-07
-4.52602e-07
-1.38813e-07
-3.83682e-07
-1.38677e-07
-3.14909e-07
-1.38462e-07
-2.46338e-07
-1.38119e-07
-1.78058e-07
-1.37582e-07
-1.10139e-07
-1.36984e-07
-4.25637e-08
-1.36302e-07
2.45921e-08
-1.35382e-07
9.09923e-08
-1.34187e-07
1.56458e-07
-1.32838e-07
2.21019e-07
-1.31467e-07
2.84631e-07
-1.29717e-07
3.47213e-07
-1.27417e-07
4.08687e-07
-1.24927e-07
4.68984e-07
-1.22404e-07
5.28052e-07
-1.19857e-07
5.85853e-07
-1.17277e-07
6.42352e-07
-1.14649e-07
6.97514e-07
-1.11962e-07
7.51306e-07
-1.09211e-07
8.03694e-07
-1.06393e-07
8.54648e-07
-1.03509e-07
9.04138e-07
-1.00563e-07
9.52137e-07
-9.7559e-08
9.98624e-07
-9.45031e-08
1.04358e-06
-9.14022e-08
1.08699e-06
-8.8264e-08
1.12884e-06
-8.50964e-08
1.16912e-06
-8.1908e-08
1.20784e-06
-7.87076e-08
1.245e-06
-7.55044e-08
1.2806e-06
-7.23076e-08
1.31465e-06
-6.91269e-08
1.34718e-06
-6.5972e-08
1.37821e-06
-6.28532e-08
1.40775e-06
-5.97804e-08
1.43585e-06
-5.67646e-08
1.46255e-06
-5.38162e-08
1.48789e-06
-5.09469e-08
1.51191e-06
-4.81679e-08
1.53468e-06
-4.54917e-08
1.55626e-06
-4.29307e-08
1.57671e-06
-4.04986e-08
1.59612e-06
-3.82093e-08
1.61457e-06
-3.60782e-08
1.63215e-06
-3.41208e-08
1.64896e-06
-3.23548e-08
1.66511e-06
-3.07979e-08
1.68072e-06
-2.94701e-08
1.69593e-06
-2.83917e-08
1.71087e-06
-2.75849e-08
1.72569e-06
-2.70719e-08
1.74056e-06
-2.68763e-08
1.75566e-06
-2.70208e-08
1.77116e-06
-2.75274e-08
1.78728e-06
-2.84154e-08
1.80419e-06
-2.97004e-08
1.82213e-06
-3.13919e-08
1.84129e-06
-3.34917e-08
1.8619e-06
-3.59922e-08
1.88414e-06
-3.88767e-08
1.90822e-06
-4.21214e-08
1.93433e-06
-4.57015e-08
1.96265e-06
-4.96038e-08
1.9934e-06
-5.38436e-08
2.02681e-06
-5.84888e-08
2.06319e-06
-6.36802e-08
2.10293e-06
-6.96448e-08
2.14657e-06
-7.66807e-08
2.19472e-06
-8.51072e-08
2.24808e-06
-9.51712e-08
2.30728e-06
-1.06932e-07
2.37281e-06
-1.20157e-07
2.44483e-06
-1.3428e-07
2.52313e-06
-1.48453e-07
2.60704e-06
-1.61676e-07
2.6955e-06
-1.72984e-07
2.78716e-06
-1.81609e-07
2.88054e-06
-1.87105e-07
2.97416e-06
-1.89401e-07
3.06673e-06
-1.8883e-07
3.15727e-06
-1.86171e-07
3.24537e-06
-1.82829e-07
3.33139e-06
-1.81369e-07
3.41646e-06
-1.87587e-07
-2.06165e-07
-4.53962e-08
7.28076e-08
-9.02425e-08
1.19e-07
-1.37435e-07
1.46479e-07
-1.88117e-07
1.62113e-07
-2.41686e-07
1.71059e-07
-2.97306e-07
1.76497e-07
-3.54352e-07
1.80109e-07
-4.12424e-07
1.8275e-07
-4.71245e-07
1.8486e-07
-5.30599e-07
1.86655e-07
-5.9028e-07
1.88223e-07
-6.50076e-07
1.8954e-07
-7.09786e-07
1.90511e-07
-7.69183e-07
1.91038e-07
-8.27913e-07
1.90994e-07
-8.85541e-07
1.90308e-07
-9.41279e-07
1.89149e-07
-9.94579e-07
1.87215e-07
-1.04846e-06
1.83512e-07
-1.10388e-06
1.79325e-07
-1.15812e-06
1.76448e-07
-1.21125e-06
1.74231e-07
-1.26356e-06
1.72308e-07
-1.31521e-06
1.70547e-07
-1.36628e-06
1.68884e-07
-1.41683e-06
1.67282e-07
-1.46686e-06
1.65706e-07
-1.51639e-06
1.64128e-07
-1.56539e-06
1.62519e-07
-1.61386e-06
1.60852e-07
-1.66176e-06
1.59104e-07
-1.70907e-06
1.57254e-07
-1.75574e-06
1.55281e-07
-1.80173e-06
1.53169e-07
-1.847e-06
1.50904e-07
-1.89149e-06
1.48474e-07
-1.93514e-06
1.45866e-07
-1.97791e-06
1.43071e-07
-2.01973e-06
1.40083e-07
-2.06053e-06
1.36892e-07
-2.10026e-06
1.33493e-07
-2.13885e-06
1.29881e-07
-2.17624e-06
1.26049e-07
-2.21234e-06
1.21994e-07
-2.2471e-06
1.17712e-07
-2.28044e-06
1.13198e-07
-2.3123e-06
1.08451e-07
-2.34259e-06
1.03469e-07
-2.37124e-06
9.82512e-08
-2.39818e-06
9.27991e-08
-2.42334e-06
8.71157e-08
-2.44664e-06
8.12061e-08
-2.46802e-06
7.50779e-08
-2.48741e-06
6.87412e-08
-2.50474e-06
6.22088e-08
-2.51996e-06
5.54966e-08
-2.533e-06
4.86233e-08
-2.54384e-06
4.16101e-08
-2.55242e-06
3.44803e-08
-2.55873e-06
2.72587e-08
-2.56272e-06
1.99708e-08
-2.56439e-06
1.26397e-08
-2.56373e-06
5.28516e-09
-2.56076e-06
-2.06403e-09
-2.55551e-06
-9.3305e-09
-2.54804e-06
-1.64597e-08
-2.53836e-06
-2.34615e-08
-2.52652e-06
-3.0348e-08
-2.51253e-06
-3.71264e-08
-2.49645e-06
-4.37999e-08
-2.47829e-06
-5.03687e-08
-2.4581e-06
-5.68319e-08
-2.4359e-06
-6.31876e-08
-2.41173e-06
-6.94341e-08
-2.38562e-06
-7.55694e-08
-2.35762e-06
-8.15915e-08
-2.32775e-06
-8.74986e-08
-2.29605e-06
-9.32884e-08
-2.26256e-06
-9.89583e-08
-2.22732e-06
-1.04505e-07
-2.19037e-06
-1.09925e-07
-2.15174e-06
-1.15215e-07
-2.11149e-06
-1.20374e-07
-2.06965e-06
-1.254e-07
-2.02627e-06
-1.30293e-07
-1.98138e-06
-1.35052e-07
-1.93503e-06
-1.39674e-07
-1.88727e-06
-1.44156e-07
-1.83814e-06
-1.48494e-07
-1.78769e-06
-1.52687e-07
-1.73596e-06
-1.56734e-07
-1.68301e-06
-1.60638e-07
-1.62887e-06
-1.64395e-07
-1.57359e-06
-1.68003e-07
-1.51723e-06
-1.71456e-07
-1.45984e-06
-1.74751e-07
-1.40147e-06
-1.77891e-07
-1.34216e-06
-1.80878e-07
-1.28198e-06
-1.8371e-07
-1.22096e-06
-1.86374e-07
-1.15917e-06
-1.88867e-07
-1.09667e-06
-1.91194e-07
-1.0335e-06
-1.93362e-07
-9.69722e-07
-1.9536e-07
-9.05397e-07
-1.97172e-07
-8.40585e-07
-1.98802e-07
-7.75339e-07
-2.00272e-07
-7.09716e-07
-2.01566e-07
-6.43784e-07
-2.02653e-07
-5.77607e-07
-2.0356e-07
-5.11235e-07
-2.04303e-07
-4.44735e-07
-2.04841e-07
-3.7818e-07
-2.05162e-07
-3.11625e-07
-2.05331e-07
-2.45123e-07
-2.05315e-07
-1.78753e-07
-2.05047e-07
-1.12587e-07
-2.04628e-07
-4.66487e-08
-2.04058e-07
1.90022e-08
-2.03233e-07
8.41356e-08
-2.02117e-07
1.48604e-07
-2.00771e-07
2.12407e-07
-1.99184e-07
2.75486e-07
-1.97267e-07
3.3775e-07
-1.95103e-07
3.99068e-07
-1.92785e-07
4.59436e-07
-1.90085e-07
5.18908e-07
-1.8689e-07
5.77406e-07
-1.83426e-07
6.34826e-07
-1.79825e-07
6.91093e-07
-1.76124e-07
7.46147e-07
-1.72332e-07
7.99943e-07
-1.68445e-07
8.52441e-07
-1.6446e-07
9.03604e-07
-1.60375e-07
9.53402e-07
-1.56192e-07
1.00181e-06
-1.51915e-07
1.04879e-06
-1.47551e-07
1.09434e-06
-1.43107e-07
1.13843e-06
-1.38595e-07
1.18105e-06
-1.34024e-07
1.22219e-06
-1.29406e-07
1.26185e-06
-1.24755e-07
1.30002e-06
-1.20082e-07
1.33672e-06
-1.15401e-07
1.37194e-06
-1.10726e-07
1.4057e-06
-1.06072e-07
1.43803e-06
-1.01452e-07
1.46893e-06
-9.68821e-08
1.49846e-06
-9.23765e-08
1.52663e-06
-8.79512e-08
1.55348e-06
-8.36217e-08
1.57907e-06
-7.94048e-08
1.60344e-06
-7.53169e-08
1.62665e-06
-7.13759e-08
1.64875e-06
-6.75996e-08
1.66983e-06
-6.40075e-08
1.68995e-06
-6.06191e-08
1.70919e-06
-5.74561e-08
1.72766e-06
-5.45403e-08
1.74543e-06
-5.1896e-08
1.76262e-06
-4.95481e-08
1.77935e-06
-4.75242e-08
1.79573e-06
-4.58524e-08
1.8119e-06
-4.45639e-08
1.82801e-06
-4.369e-08
1.8442e-06
-4.32646e-08
1.86064e-06
-4.33211e-08
1.87752e-06
-4.3894e-08
1.89501e-06
-4.50148e-08
1.9133e-06
-4.67137e-08
1.93262e-06
-4.90135e-08
1.95316e-06
-5.19315e-08
1.97514e-06
-5.54729e-08
1.99878e-06
-5.96333e-08
2.0243e-06
-6.43946e-08
2.05191e-06
-6.97327e-08
2.08184e-06
-7.56225e-08
2.11429e-06
-8.20568e-08
2.14951e-06
-8.9066e-08
2.18778e-06
-9.67489e-08
2.22939e-06
-1.05294e-07
2.27474e-06
-1.14991e-07
2.32426e-06
-1.262e-07
2.37844e-06
-1.39278e-07
2.43772e-06
-1.54454e-07
2.50247e-06
-1.71678e-07
2.57282e-06
-1.90507e-07
2.64862e-06
-2.10073e-07
2.72934e-06
-2.29174e-07
2.81414e-06
-2.46468e-07
2.90186e-06
-2.60708e-07
2.99121e-06
-2.7095e-07
3.0808e-06
-2.76699e-07
3.16935e-06
-2.77944e-07
3.25571e-06
-2.7519e-07
3.33899e-06
-2.69455e-07
3.41859e-06
-2.62425e-07
3.49405e-06
-2.56822e-07
3.56403e-06
-2.57547e-07
-2.66555e-07
-4.99946e-08
1.22799e-07
-9.76547e-08
1.66658e-07
-1.44985e-07
1.93809e-07
-1.93773e-07
2.109e-07
-2.44331e-07
2.21617e-07
-2.96362e-07
2.28529e-07
-3.49476e-07
2.33223e-07
-4.03328e-07
2.36603e-07
-4.57624e-07
2.39156e-07
-5.12095e-07
2.41126e-07
-5.66479e-07
2.42607e-07
-6.2053e-07
2.4359e-07
-6.74027e-07
2.44008e-07
-7.26768e-07
2.43778e-07
-7.78582e-07
2.42809e-07
-8.29318e-07
2.41044e-07
-8.78816e-07
2.3865e-07
-9.27245e-07
2.35644e-07
-9.75582e-07
2.31851e-07
-1.02419e-06
2.27931e-07
-1.07235e-06
2.24612e-07
-1.11991e-06
2.21785e-07
-1.16689e-06
2.19286e-07
-1.21334e-06
2.17004e-07
-1.25932e-06
2.14861e-07
-1.30484e-06
2.12801e-07
-1.34991e-06
2.10776e-07
-1.39453e-06
2.08745e-07
-1.43868e-06
2.06669e-07
-1.48234e-06
2.04514e-07
-1.52548e-06
2.0225e-07
-1.56808e-06
1.99849e-07
-1.61009e-06
1.97289e-07
-1.65147e-06
1.94547e-07
-1.69217e-06
1.91606e-07
-1.73214e-06
1.8845e-07
-1.77134e-06
1.85065e-07
-1.80971e-06
1.8144e-07
-1.84719e-06
1.77565e-07
-1.88373e-06
1.7343e-07
-1.91927e-06
1.69028e-07
-1.95374e-06
1.64351e-07
-1.98708e-06
1.59394e-07
-2.01924e-06
1.54149e-07
-2.05014e-06
1.48612e-07
-2.07972e-06
1.42777e-07
-2.10791e-06
1.36642e-07
-2.13464e-06
1.30202e-07
-2.15985e-06
1.23457e-07
-2.18346e-06
1.16409e-07
-2.2054e-06
1.09059e-07
-2.22561e-06
1.01415e-07
-2.24401e-06
9.34845e-08
-2.26055e-06
8.52806e-08
-2.27516e-06
7.68192e-08
-2.28779e-06
6.81204e-08
-2.29837e-06
5.92081e-08
-2.30687e-06
5.01096e-08
-2.31325e-06
4.08555e-08
-2.31747e-06
3.14786e-08
-2.31951e-06
2.20127e-08
-2.31936e-06
1.24886e-08
-2.31701e-06
2.93222e-09
-2.31249e-06
-6.58419e-09
-2.30585e-06
-1.59676e-08
-2.29712e-06
-2.51884e-08
-2.28633e-06
-3.42542e-08
-2.2735e-06
-4.31754e-08
-2.25867e-06
-5.1959e-08
-2.24186e-06
-6.06082e-08
-2.2231e-06
-6.91229e-08
-2.20244e-06
-7.75011e-08
-2.17988e-06
-8.57405e-08
-2.15548e-06
-9.38385e-08
-2.12925e-06
-1.01792e-07
-2.10125e-06
-1.096e-07
-2.07149e-06
-1.17258e-07
-2.04001e-06
-1.24765e-07
-2.00685e-06
-1.32117e-07
-1.97205e-06
-1.39309e-07
-1.93563e-06
-1.46337e-07
-1.89765e-06
-1.53197e-07
-1.85814e-06
-1.59885e-07
-1.81714e-06
-1.66401e-07
-1.77469e-06
-1.72745e-07
-1.73082e-06
-1.78914e-07
-1.68559e-06
-1.84906e-07
-1.63903e-06
-1.90715e-07
-1.59119e-06
-1.96337e-07
-1.54211e-06
-2.01769e-07
-1.49183e-06
-2.07011e-07
-1.4404e-06
-2.12065e-07
-1.38787e-06
-2.1693e-07
-1.33427e-06
-2.21599e-07
-1.27966e-06
-2.26065e-07
-1.22409e-06
-2.30324e-07
-1.1676e-06
-2.34377e-07
-1.11025e-06
-2.38233e-07
-1.05207e-06
-2.41884e-07
-9.93129e-07
-2.45316e-07
-9.33475e-07
-2.48521e-07
-8.73163e-07
-2.51506e-07
-8.12241e-07
-2.54284e-07
-7.50761e-07
-2.5684e-07
-6.88785e-07
-2.59148e-07
-6.26374e-07
-2.61214e-07
-5.63578e-07
-2.63068e-07
-5.00448e-07
-2.64695e-07
-4.37055e-07
-2.66047e-07
-3.7346e-07
-2.67155e-07
-3.09715e-07
-2.68048e-07
-2.45877e-07
-2.6868e-07
-1.82018e-07
-2.69021e-07
-1.18208e-07
-2.69142e-07
-5.44863e-08
-2.69037e-07
9.11225e-09
-2.68646e-07
7.24124e-08
-2.67928e-07
1.35268e-07
-2.66914e-07
1.97658e-07
-2.65624e-07
2.5952e-07
-2.6398e-07
3.20766e-07
-2.62018e-07
3.81326e-07
-2.59745e-07
4.41164e-07
-2.57105e-07
5.00209e-07
-2.54148e-07
5.58347e-07
-2.50924e-07
6.15568e-07
-2.47306e-07
6.71909e-07
-2.43232e-07
7.27316e-07
-2.38833e-07
7.81701e-07
-2.34211e-07
8.3499e-07
-2.29413e-07
8.87118e-07
-2.24461e-07
9.38038e-07
-2.19365e-07
9.87707e-07
-2.14129e-07
1.03609e-06
-2.08759e-07
1.08316e-06
-2.0326e-07
1.12888e-06
-1.97642e-07
1.17325e-06
-1.91916e-07
1.21624e-06
-1.86094e-07
1.25783e-06
-1.8019e-07
1.29802e-06
-1.74219e-07
1.33682e-06
-1.68197e-07
1.3742e-06
-1.62142e-07
1.41019e-06
-1.5607e-07
1.44479e-06
-1.49999e-07
1.47801e-06
-1.43949e-07
1.50988e-06
-1.37938e-07
1.54041e-06
-1.31985e-07
1.56964e-06
-1.26111e-07
1.5976e-06
-1.20335e-07
1.62432e-06
-1.14678e-07
1.64986e-06
-1.0916e-07
1.67426e-06
-1.03805e-07
1.69758e-06
-9.86331e-08
1.71987e-06
-9.36686e-08
1.74121e-06
-8.89353e-08
1.76166e-06
-8.44581e-08
1.78131e-06
-8.02636e-08
1.80023e-06
-7.63793e-08
1.81852e-06
-7.28347e-08
1.83629e-06
-6.96609e-08
1.85363e-06
-6.68911e-08
1.87067e-06
-6.45604e-08
1.88753e-06
-6.27063e-08
1.90433e-06
-6.13683e-08
1.92123e-06
-6.05881e-08
1.93838e-06
-6.04089e-08
1.95593e-06
-6.08748e-08
1.97407e-06
-6.20301e-08
1.99297e-06
-6.39173e-08
2.01283e-06
-6.65754e-08
2.03386e-06
-7.00376e-08
2.05626e-06
-7.43282e-08
2.08024e-06
-7.94601e-08
2.10604e-06
-8.54333e-08
2.13388e-06
-9.22346e-08
2.16399e-06
-9.98427e-08
2.1966e-06
-1.08237e-07
2.23196e-06
-1.17418e-07
2.27032e-06
-1.27428e-07
2.31196e-06
-1.38387e-07
2.35717e-06
-1.5051e-07
2.4063e-06
-1.64117e-07
2.45968e-06
-1.79586e-07
2.51766e-06
-1.97261e-07
2.5805e-06
-2.17302e-07
2.64833e-06
-2.39513e-07
2.72104e-06
-2.63223e-07
2.79824e-06
-2.87278e-07
2.87922e-06
-3.10166e-07
2.96302e-06
-3.30271e-07
3.04845e-06
-3.46146e-07
3.13425e-06
-3.56754e-07
3.21915e-06
-3.61602e-07
3.30198e-06
-3.60781e-07
3.38174e-06
-3.54948e-07
3.45758e-06
-3.45296e-07
3.52878e-06
-3.33632e-07
3.59449e-06
-3.22536e-07
3.65292e-06
-3.15966e-07
-3.1507e-07
-5.0638e-08
1.73436e-07
-9.87708e-08
2.14791e-07
-1.45451e-07
2.40489e-07
-1.92272e-07
2.57722e-07
-2.39864e-07
2.6921e-07
-2.88252e-07
2.76918e-07
-3.37235e-07
2.82207e-07
-3.86557e-07
2.85925e-07
-4.35955e-07
2.88554e-07
-4.85177e-07
2.90347e-07
-5.33984e-07
2.91414e-07
-5.82171e-07
2.91776e-07
-6.29578e-07
2.91414e-07
-6.76101e-07
2.90301e-07
-7.21707e-07
2.88414e-07
-7.66442e-07
2.85781e-07
-8.10365e-07
2.82574e-07
-8.53661e-07
2.78943e-07
-8.96759e-07
2.7495e-07
-9.39802e-07
2.70974e-07
-9.82561e-07
2.67371e-07
-1.02493e-06
2.64151e-07
-1.06688e-06
2.61237e-07
-1.10842e-06
2.58548e-07
-1.14957e-06
2.56011e-07
-1.19033e-06
2.53562e-07
-1.2307e-06
2.51144e-07
-1.27067e-06
2.48709e-07
-1.31021e-06
2.46211e-07
-1.34931e-06
2.4361e-07
-1.38793e-06
2.4087e-07
-1.42604e-06
2.37959e-07
-1.46359e-06
2.34849e-07
-1.50056e-06
2.31516e-07
-1.5369e-06
2.27939e-07
-1.57255e-06
2.241e-07
-1.60746e-06
2.19983e-07
-1.6416e-06
2.15575e-07
-1.6749e-06
2.10864e-07
-1.70731e-06
2.05841e-07
-1.73878e-06
2.00495e-07
-1.76925e-06
1.9482e-07
-1.79866e-06
1.88806e-07
-1.82696e-06
1.82446e-07
-1.85408e-06
1.75734e-07
-1.87997e-06
1.68664e-07
-1.90456e-06
1.6123e-07
-1.92778e-06
1.53428e-07
-1.94958e-06
1.45256e-07
-1.96989e-06
1.36714e-07
-1.98863e-06
1.27807e-07
-2.00576e-06
1.18539e-07
-2.02119e-06
1.0892e-07
-2.03488e-06
9.89661e-08
-2.04675e-06
8.86946e-08
-2.05676e-06
7.81297e-08
-2.06485e-06
6.73001e-08
-2.07098e-06
5.62393e-08
-2.07511e-06
4.49849e-08
-2.07721e-06
3.35775e-08
-2.07726e-06
2.20595e-08
-2.07524e-06
1.04711e-08
-2.07116e-06
-1.14762e-09
-2.06507e-06
-1.26799e-08
-2.057e-06
-2.40296e-08
-2.047e-06
-3.51965e-08
-2.03507e-06
-4.6185e-08
-2.02124e-06
-5.70036e-08
-2.00554e-06
-6.76584e-08
-1.98799e-06
-7.81518e-08
-1.96863e-06
-8.84829e-08
-1.94749e-06
-9.86489e-08
-1.92458e-06
-1.08646e-07
-1.89995e-06
-1.18472e-07
-1.87362e-06
-1.28122e-07
-1.84562e-06
-1.37595e-07
-1.81599e-06
-1.46886e-07
-1.78477e-06
-1.55994e-07
-1.75197e-06
-1.64914e-07
-1.71764e-06
-1.73641e-07
-1.68181e-06
-1.82167e-07
-1.64451e-06
-1.90488e-07
-1.6058e-06
-1.98601e-07
-1.5657e-06
-2.06504e-07
-1.52424e-06
-2.14196e-07
-1.48148e-06
-2.21678e-07
-1.43744e-06
-2.28944e-07
-1.39217e-06
-2.35988e-07
-1.3457e-06
-2.42803e-07
-1.29808e-06
-2.49386e-07
-1.24936e-06
-2.55737e-07
-1.19957e-06
-2.61857e-07
-1.14875e-06
-2.67748e-07
-1.09694e-06
-2.73402e-07
-1.0442e-06
-2.78806e-07
-9.90573e-07
-2.83954e-07
-9.36101e-07
-2.88849e-07
-8.80829e-07
-2.93504e-07
-8.24802e-07
-2.97912e-07
-7.6807e-07
-3.02048e-07
-7.10687e-07
-3.05904e-07
-6.52707e-07
-3.09486e-07
-5.94174e-07
-3.12817e-07
-5.35135e-07
-3.15879e-07
-4.7565e-07
-3.18633e-07
-4.1578e-07
-3.21083e-07
-3.55574e-07
-3.23274e-07
-2.9508e-07
-3.25189e-07
-2.3436e-07
-3.26767e-07
-1.7348e-07
-3.28035e-07
-1.125e-07
-3.29028e-07
-5.14607e-08
-3.29719e-07
9.60037e-09
-3.30082e-07
7.0538e-08
-3.30079e-07
1.31232e-07
-3.2973e-07
1.91653e-07
-3.29066e-07
2.51739e-07
-3.28014e-07
3.11411e-07
-3.26585e-07
3.70593e-07
-3.24805e-07
4.29235e-07
-3.22622e-07
4.87269e-07
-3.20052e-07
5.44626e-07
-3.17102e-07
6.01265e-07
-3.13743e-07
6.57125e-07
-3.10007e-07
7.12121e-07
-3.0592e-07
7.66231e-07
-3.01416e-07
8.19463e-07
-2.96464e-07
8.71776e-07
-2.91147e-07
9.23103e-07
-2.85538e-07
9.73378e-07
-2.79688e-07
1.02254e-06
-2.73626e-07
1.07055e-06
-2.67372e-07
1.11736e-06
-2.60937e-07
1.16293e-06
-2.54335e-07
1.20725e-06
-2.47577e-07
1.25028e-06
-2.40678e-07
1.29202e-06
-2.33653e-07
1.33244e-06
-2.26518e-07
1.37155e-06
-2.19294e-07
1.40932e-06
-2.11998e-07
1.44578e-06
-2.04651e-07
1.48091e-06
-1.97276e-07
1.51473e-06
-1.89893e-07
1.54726e-06
-1.82525e-07
1.5785e-06
-1.75197e-07
1.6085e-06
-1.6793e-07
1.63726e-06
-1.60751e-07
1.66483e-06
-1.53682e-07
1.69124e-06
-1.46749e-07
1.71654e-06
-1.39977e-07
1.74077e-06
-1.33393e-07
1.76399e-06
-1.27023e-07
1.78625e-06
-1.20896e-07
1.80762e-06
-1.15038e-07
1.82816e-06
-1.09481e-07
1.84796e-06
-1.04254e-07
1.86708e-06
-9.93897e-08
1.88563e-06
-9.49227e-08
1.90368e-06
-9.08883e-08
1.92134e-06
-8.73246e-08
1.93872e-06
-8.42718e-08
1.95593e-06
-8.17728e-08
1.9731e-06
-7.98727e-08
1.99035e-06
-7.86198e-08
2.00782e-06
-7.80641e-08
2.02567e-06
-7.82586e-08
2.04406e-06
-7.92564e-08
2.06314e-06
-8.11123e-08
2.0831e-06
-8.3878e-08
2.10413e-06
-8.76034e-08
2.12642e-06
-9.23309e-08
2.15019e-06
-9.8095e-08
2.17564e-06
-1.04917e-07
2.20302e-06
-1.12806e-07
2.23254e-06
-1.21755e-07
2.26445e-06
-1.31752e-07
2.299e-06
-1.42781e-07
2.33643e-06
-1.5485e-07
2.37702e-06
-1.68011e-07
2.42102e-06
-1.8239e-07
2.46873e-06
-1.98211e-07
2.5204e-06
-2.15792e-07
2.57632e-06
-2.35494e-07
2.63667e-06
-2.57611e-07
2.70157e-06
-2.82198e-07
2.77095e-06
-3.08892e-07
2.84453e-06
-3.36793e-07
2.92173e-06
-3.64475e-07
3.00172e-06
-3.90159e-07
3.08346e-06
-4.12005e-07
3.16575e-06
-4.28433e-07
3.24737e-06
-4.38366e-07
3.32714e-06
-4.41369e-07
3.40401e-06
-4.37647e-07
3.47708e-06
-4.28013e-07
3.54557e-06
-4.13786e-07
3.60876e-06
-3.96818e-07
3.66569e-06
-3.79471e-07
3.71486e-06
-3.6512e-07
-3.55101e-07
-4.93005e-08
2.22736e-07
-9.63134e-08
2.61804e-07
-1.41448e-07
2.85625e-07
-1.85928e-07
3.02203e-07
-2.3041e-07
3.13693e-07
-2.75071e-07
3.21581e-07
-3.19841e-07
3.26978e-07
-3.64548e-07
3.30632e-07
-4.0899e-07
3.32996e-07
-4.5297e-07
3.34328e-07
-4.96317e-07
3.3476e-07
-5.38897e-07
3.34356e-07
-5.80633e-07
3.33149e-07
-6.21506e-07
3.31174e-07
-6.61568e-07
3.28476e-07
-7.00933e-07
3.25147e-07
-7.39719e-07
3.21362e-07
-7.78073e-07
3.17298e-07
-8.16214e-07
3.13092e-07
-8.54218e-07
3.08978e-07
-8.92002e-07
3.05155e-07
-9.29502e-07
3.01651e-07
-9.6669e-07
2.98426e-07
-1.00356e-06
2.95415e-07
-1.04009e-06
2.9255e-07
-1.0763e-06
2.89766e-07
-1.11215e-06
2.87001e-07
-1.14765e-06
2.84201e-07
-1.18275e-06
2.81315e-07
-1.21744e-06
2.78297e-07
-1.25168e-06
2.75109e-07
-1.28543e-06
2.71714e-07
-1.31866e-06
2.68081e-07
-1.35133e-06
2.64183e-07
-1.38339e-06
2.59999e-07
-1.4148e-06
2.55507e-07
-1.44551e-06
2.5069e-07
-1.47547e-06
2.45535e-07
-1.50463e-06
2.40028e-07
-1.53295e-06
2.34159e-07
-1.56037e-06
2.27918e-07
-1.58685e-06
2.21295e-07
-1.61232e-06
2.14283e-07
-1.63675e-06
2.06872e-07
-1.66007e-06
1.99054e-07
-1.68223e-06
1.90822e-07
-1.70317e-06
1.82168e-07
-1.72283e-06
1.73089e-07
-1.74115e-06
1.6358e-07
-1.75808e-06
1.53641e-07
-1.77354e-06
1.43274e-07
-1.78749e-06
1.32486e-07
-1.79986e-06
1.21287e-07
-1.81058e-06
1.09693e-07
-1.81961e-06
9.77244e-08
-1.82689e-06
8.54091e-08
-1.83237e-06
7.27803e-08
-1.83601e-06
5.9877e-08
-1.83777e-06
4.67441e-08
-1.83762e-06
3.34299e-08
-1.83555e-06
1.9984e-08
-1.83153e-06
6.45312e-09
-1.82561e-06
-7.06701e-09
-1.81785e-06
-2.04414e-08
-1.80827e-06
-3.36112e-08
-1.79689e-06
-4.65769e-08
-1.78373e-06
-5.93432e-08
-1.76882e-06
-7.19172e-08
-1.75217e-06
-8.43038e-08
-1.73382e-06
-9.65049e-08
-1.71378e-06
-1.08518e-07
-1.69209e-06
-1.20339e-07
-1.66878e-06
-1.31963e-07
-1.64386e-06
-1.43387e-07
-1.61738e-06
-1.54606e-07
-1.58935e-06
-1.65617e-07
-1.55982e-06
-1.76417e-07
-1.52881e-06
-1.87004e-07
-1.49636e-06
-1.97372e-07
-1.46248e-06
-2.07515e-07
-1.42722e-06
-2.17425e-07
-1.39062e-06
-2.27094e-07
-1.3527e-06
-2.3652e-07
-1.3135e-06
-2.457e-07
-1.27307e-06
-2.54634e-07
-1.23142e-06
-2.63322e-07
-1.1886e-06
-2.71762e-07
-1.14465e-06
-2.79943e-07
-1.0996e-06
-2.87854e-07
-1.05349e-06
-2.95494e-07
-1.00636e-06
-3.02861e-07
-9.58263e-07
-3.09958e-07
-9.09221e-07
-3.16791e-07
-8.59276e-07
-3.23347e-07
-8.08473e-07
-3.29608e-07
-7.56857e-07
-3.3557e-07
-7.04476e-07
-3.41231e-07
-6.51368e-07
-3.46612e-07
-5.97572e-07
-3.51707e-07
-5.43137e-07
-3.56482e-07
-4.88114e-07
-3.60927e-07
-4.32555e-07
-3.65046e-07
-3.76501e-07
-3.68871e-07
-3.19999e-07
-3.72381e-07
-2.631e-07
-3.75532e-07
-2.0586e-07
-3.78323e-07
-1.48337e-07
-3.80797e-07
-9.05824e-08
-3.82944e-07
-3.26244e-08
-3.84725e-07
2.54717e-08
-3.86131e-07
8.35813e-08
-3.87137e-07
1.41631e-07
-3.87769e-07
1.99583e-07
-3.88033e-07
2.57375e-07
-3.87871e-07
3.14936e-07
-3.87291e-07
3.72192e-07
-3.86322e-07
4.2909e-07
-3.84913e-07
4.85569e-07
-3.83064e-07
5.41555e-07
-3.80792e-07
5.96997e-07
-3.78065e-07
6.51837e-07
-3.74892e-07
7.06012e-07
-3.71277e-07
7.59479e-07
-3.6721e-07
8.12181e-07
-3.6271e-07
8.64056e-07
-3.57795e-07
9.15072e-07
-3.52433e-07
9.65221e-07
-3.46613e-07
1.01447e-06
-3.40392e-07
1.06275e-06
-3.33827e-07
1.11003e-06
-3.26965e-07
1.15624e-06
-3.19841e-07
1.20135e-06
-3.12479e-07
1.24531e-06
-3.04901e-07
1.2881e-06
-2.97124e-07
1.32969e-06
-2.89167e-07
1.37006e-06
-2.8105e-07
1.4092e-06
-2.72792e-07
1.4471e-06
-2.64416e-07
1.48375e-06
-2.55945e-07
1.51916e-06
-2.47401e-07
1.55332e-06
-2.38812e-07
1.58624e-06
-2.30201e-07
1.61795e-06
-2.21597e-07
1.64845e-06
-2.13026e-07
1.67777e-06
-2.04516e-07
1.70593e-06
-1.96094e-07
1.73297e-06
-1.87791e-07
1.75892e-06
-1.79635e-07
1.78383e-06
-1.71655e-07
1.80774e-06
-1.63882e-07
1.83069e-06
-1.56347e-07
1.85275e-06
-1.49082e-07
1.87397e-06
-1.42118e-07
1.89442e-06
-1.35489e-07
1.91417e-06
-1.29231e-07
1.9333e-06
-1.23379e-07
1.95188e-06
-1.1797e-07
1.97e-06
-1.13045e-07
1.98776e-06
-1.08645e-07
2.00525e-06
-1.04815e-07
2.02258e-06
-1.01601e-07
2.03986e-06
-9.90521e-08
2.05721e-06
-9.72217e-08
2.07476e-06
-9.61652e-08
2.09263e-06
-9.59408e-08
2.11099e-06
-9.66097e-08
2.12996e-06
-9.82342e-08
2.14973e-06
-1.00878e-07
2.17046e-06
-1.04603e-07
2.19232e-06
-1.09469e-07
2.21552e-06
-1.1553e-07
2.24026e-06