/*--------------------------------*- C++ -*----------------------------------*\
  =========                 |
  \\      /  F ield         | OpenFOAM: The Open Source CFD Toolbox
   \\    /   O peration     | Website:  https://openfoam.org
    \\  /    A nd           | Version:  7
     \\/     M anipulation  |
\*---------------------------------------------------------------------------*/
FoamFile
{
    version     2.0;
    format      ascii;
    class       volVectorField;
    location    "850";
    object      U;
}
// * * * * * * * * * * * * * * * * * * * * * * * * * * * * * * * * * * * * * //

dimensions      [0 1 -1 0 0 0 0];

internalField   nonuniform List<vector> 
16900
(
(0.00659872 -0.00788443 0)
(-0.00756963 0.0200856 0)
(-0.0477148 0.033145 0)
(-0.0960621 0.0367568 0)
(-0.147608 0.0375975 0)
(-0.200617 0.0377954 0)
(-0.254435 0.0378768 0)
(-0.308799 0.037964 0)
(-0.363598 0.038094 0)
(-0.418803 0.0382983 0)
(-0.474449 0.0386302 0)
(-0.530684 0.0391819 0)
(-0.587881 0.0401589 0)
(-0.646529 0.0421529 0)
(-0.70619 0.0466326 0)
(-0.765133 0.055833 0)
(-0.82391 0.0711818 0)
(-0.884079 0.0892418 0)
(-0.945773 0.0659386 0)
(-1.00328 0.032119 0)
(-1.05552 0.0325085 0)
(-1.10953 0.0327101 0)
(-1.16355 0.0325211 0)
(-1.21729 0.0321824 0)
(-1.27064 0.0317969 0)
(-1.32355 0.0314016 0)
(-1.37603 0.0310079 0)
(-1.42807 0.0306159 0)
(-1.47966 0.0302228 0)
(-1.53079 0.0298241 0)
(-1.58142 0.0294156 0)
(-1.63155 0.0289931 0)
(-1.68112 0.0285531 0)
(-1.73011 0.0280922 0)
(-1.77846 0.0276078 0)
(-1.82612 0.0270976 0)
(-1.87305 0.0265597 0)
(-1.91918 0.0259923 0)
(-1.96445 0.0253941 0)
(-2.0088 0.024764 0)
(-2.05218 0.024101 0)
(-2.0945 0.0234043 0)
(-2.1357 0.0226734 0)
(-2.17572 0.0219075 0)
(-2.21448 0.0211065 0)
(-2.25191 0.0202699 0)
(-2.28794 0.0193978 0)
(-2.3225 0.0184902 0)
(-2.35551 0.0175476 0)
(-2.3869 0.0165704 0)
(-2.4166 0.0155596 0)
(-2.44454 0.0145165 0)
(-2.47066 0.0134428 0)
(-2.49488 0.0123403 0)
(-2.51714 0.0112115 0)
(-2.5374 0.0100594 0)
(-2.55559 0.00888694 0)
(-2.57168 0.00769774 0)
(-2.58563 0.00649549 0)
(-2.59741 0.0052839 0)
(-2.60698 0.00406671 0)
(-2.61435 0.00284729 0)
(-2.6195 0.00162787 0)
(-2.62243 0.000408874 0)
(-2.62312 -0.000802813 0)
(-2.6216 -0.00198681 0)
(-2.61793 -0.0031379 0)
(-2.61214 -0.00426667 0)
(-2.60428 -0.00537562 0)
(-2.59437 -0.00646579 0)
(-2.58245 -0.00753755 0)
(-2.56856 -0.00859108 0)
(-2.55272 -0.00962634 0)
(-2.53496 -0.0106434 0)
(-2.51533 -0.0116421 0)
(-2.49385 -0.0126225 0)
(-2.47056 -0.0135844 0)
(-2.4455 -0.0145279 0)
(-2.4187 -0.0154527 0)
(-2.3902 -0.0163586 0)
(-2.36004 -0.0172456 0)
(-2.32825 -0.0181136 0)
(-2.29488 -0.0189627 0)
(-2.25996 -0.0197931 0)
(-2.22354 -0.0206049 0)
(-2.18565 -0.0213983 0)
(-2.14634 -0.0221732 0)
(-2.10565 -0.0229297 0)
(-2.06362 -0.0236676 0)
(-2.02029 -0.0243875 0)
(-1.97571 -0.0250896 0)
(-1.92992 -0.0257743 0)
(-1.88297 -0.0264418 0)
(-1.83489 -0.027092 0)
(-1.78573 -0.0277248 0)
(-1.73554 -0.0283406 0)
(-1.68436 -0.0289402 0)
(-1.63225 -0.0295241 0)
(-1.57923 -0.0300919 0)
(-1.52537 -0.0306431 0)
(-1.47071 -0.0311781 0)
(-1.4153 -0.0316982 0)
(-1.35919 -0.0322041 0)
(-1.30241 -0.0326947 0)
(-1.24504 -0.033169 0)
(-1.18711 -0.033629 0)
(-1.12869 -0.0340776 0)
(-1.0698 -0.034512 0)
(-1.01052 -0.0349295 0)
(-0.950901 -0.0353359 0)
(-0.890983 -0.0357327 0)
(-0.830825 -0.0361119 0)
(-0.770495 -0.036477 0)
(-0.710032 -0.0368402 0)
(-0.649492 -0.0371871 0)
(-0.588951 -0.0375141 0)
(-0.528443 -0.0378525 0)
(-0.468031 -0.038172 0)
(-0.407784 -0.0384752 0)
(-0.347719 -0.0388179 0)
(-0.287966 -0.0391346 0)
(-0.228519 -0.0394323 0)
(-0.169387 -0.0397899 0)
(-0.110736 -0.0401797 0)
(-0.0529661 -0.0405673 0)
(0.00532078 -0.0402381 0)
(0.0621406 -0.0388793 0)
(0.117492 -0.0373095 0)
(0.171855 -0.0358378 0)
(0.225076 -0.0344602 0)
(0.277159 -0.0331557 0)
(0.328098 -0.0319079 0)
(0.377877 -0.0307049 0)
(0.426472 -0.0295378 0)
(0.473854 -0.0284007 0)
(0.519995 -0.0272894 0)
(0.564864 -0.026201 0)
(0.608433 -0.0251335 0)
(0.650677 -0.0240856 0)
(0.69157 -0.0230565 0)
(0.731092 -0.0220458 0)
(0.769227 -0.0210532 0)
(0.805959 -0.0200788 0)
(0.841279 -0.0191228 0)
(0.87518 -0.0181857 0)
(0.907659 -0.0172679 0)
(0.938718 -0.01637 0)
(0.968362 -0.0154928 0)
(0.996601 -0.0146369 0)
(1.02345 -0.0138034 0)
(1.04892 -0.012993 0)
(1.07305 -0.012207 0)
(1.09585 -0.0114461 0)
(1.11736 -0.0107119 0)
(1.13762 -0.0100052 0)
(1.15667 -0.00932806 0)
(1.17457 -0.00868139 0)
(1.19135 -0.00806741 0)
(1.20709 -0.00748746 0)
(1.22185 -0.00694414 0)
(1.2357 -0.00643914 0)
(1.24873 -0.00597553 0)
(1.26103 -0.00555542 0)
(1.2727 -0.00518241 0)
(1.28384 -0.00485903 0)
(1.29458 -0.00458935 0)
(1.30503 -0.00437618 0)
(1.31535 -0.00422372 0)
(1.32567 -0.00413463 0)
(1.33615 -0.00411249 0)
(1.34696 -0.0041588 0)
(1.35827 -0.00427515 0)
(1.37025 -0.00446021 0)
(1.38306 -0.00471168 0)
(1.39687 -0.00502373 0)
(1.41182 -0.00538914 0)
(1.42804 -0.00579829 0)
(1.44565 -0.00624273 0)
(1.46477 -0.0067174 0)
(1.48552 -0.0072268 0)
(1.50807 -0.00779069 0)
(1.53271 -0.00845005 0)
(1.55984 -0.00926954 0)
(1.59007 -0.0103319 0)
(1.62417 -0.011724 0)
(1.66305 -0.0135099 0)
(1.70763 -0.0157046 0)
(1.75866 -0.0182488 0)
(1.81656 -0.0210078 0)
(1.88129 -0.0237863 0)
(1.95227 -0.0263689 0)
(2.0285 -0.0285571 0)
(2.10862 -0.0302113 0)
(2.19114 -0.0312668 0)
(2.27459 -0.0317525 0)
(2.35779 -0.0317989 0)
(2.44005 -0.0316884 0)
(2.52191 -0.0319943 0)
(2.60363 -0.0344688 0)
(2.72735 -0.0426248 0)
(-0.0192837 0.00948069 0)
(-0.0430921 0.0506324 0)
(-0.0821779 0.0715939 0)
(-0.128019 0.0804172 0)
(-0.17744 0.0841111 0)
(-0.229171 0.0857938 0)
(-0.282396 0.0866233 0)
(-0.336671 0.0870354 0)
(-0.391795 0.0871985 0)
(-0.447685 0.0871705 0)
(-0.504309 0.0869509 0)
(-0.561634 0.0864901 0)
(-0.619534 0.0857213 0)
(-0.677466 0.084748 0)
(-0.734488 0.0841454 0)
(-0.79115 0.0843848 0)
(-0.847215 0.0848172 0)
(-0.90094 0.0852221 0)
(-0.95575 0.0851859 0)
(-1.01185 0.084124 0)
(-1.06696 0.083917 0)
(-1.11987 0.0833747 0)
(-1.1716 0.0825593 0)
(-1.22262 0.0816393 0)
(-1.27306 0.0806924 0)
(-1.32298 0.0797462 0)
(-1.3724 0.078805 0)
(-1.42132 0.0778628 0)
(-1.46975 0.07691 0)
(-1.51768 0.0759358 0)
(-1.56507 0.0749298 0)
(-1.61192 0.0738825 0)
(-1.65818 0.0727853 0)
(-1.70382 0.0716309 0)
(-1.74879 0.070413 0)
(-1.79305 0.0691262 0)
(-1.83654 0.0677662 0)
(-1.87922 0.0663294 0)
(-1.92102 0.0648125 0)
(-1.9619 0.0632133 0)
(-2.00178 0.0615297 0)
(-2.04061 0.0597601 0)
(-2.07832 0.0579031 0)
(-2.11485 0.0559578 0)
(-2.15013 0.0539234 0)
(-2.18409 0.0517997 0)
(-2.21667 0.0495865 0)
(-2.24779 0.0472846 0)
(-2.27739 0.0448949 0)
(-2.3054 0.0424192 0)
(-2.33175 0.0398601 0)
(-2.35636 0.037221 0)
(-2.37918 0.0345062 0)
(-2.40015 0.0317212 0)
(-2.41919 0.0288724 0)
(-2.43627 0.0259675 0)
(-2.45132 0.0230151 0)
(-2.4643 0.0200247 0)
(-2.47518 0.0170068 0)
(-2.48393 0.0139718 0)
(-2.49052 0.0109303 0)
(-2.49493 0.00789199 0)
(-2.49717 0.00486281 0)
(-2.49722 0.00184467 0)
(-2.49505 -0.00114151 0)
(-2.49078 -0.00405467 0)
(-2.48442 -0.00688528 0)
(-2.476 -0.00964725 0)
(-2.46555 -0.0123464 0)
(-2.4531 -0.0149852 0)
(-2.43869 -0.0175646 0)
(-2.42235 -0.020085 0)
(-2.4041 -0.0225462 0)
(-2.38398 -0.0249483 0)
(-2.36203 -0.0272909 0)
(-2.33827 -0.029574 0)
(-2.31274 -0.0317973 0)
(-2.28548 -0.0339605 0)
(-2.25651 -0.0360631 0)
(-2.22588 -0.0381045 0)
(-2.19362 -0.0400842 0)
(-2.15978 -0.0420018 0)
(-2.12438 -0.0438573 0)
(-2.08747 -0.0456511 0)
(-2.04909 -0.0473833 0)
(-2.00927 -0.0490541 0)
(-1.96807 -0.0506634 0)
(-1.92551 -0.0522105 0)
(-1.88164 -0.0536954 0)
(-1.83651 -0.0551182 0)
(-1.79016 -0.0564796 0)
(-1.74262 -0.0577805 0)
(-1.69395 -0.0590211 0)
(-1.64419 -0.0602006 0)
(-1.59337 -0.0613182 0)
(-1.54156 -0.0623744 0)
(-1.4888 -0.0633705 0)
(-1.43512 -0.0643079 0)
(-1.38059 -0.0651857 0)
(-1.32524 -0.0660015 0)
(-1.26912 -0.0667555 0)
(-1.2123 -0.06745 0)
(-1.1548 -0.0680872 0)
(-1.0967 -0.0686641 0)
(-1.03803 -0.0691773 0)
(-0.97885 -0.0696298 0)
(-0.919218 -0.070028 0)
(-0.859177 -0.0703672 0)
(-0.798789 -0.0706393 0)
(-0.738112 -0.0708546 0)
(-0.677193 -0.071018 0)
(-0.616089 -0.0711136 0)
(-0.554867 -0.0711435 0)
(-0.493575 -0.0711322 0)
(-0.432268 -0.0710576 0)
(-0.371016 -0.0709062 0)
(-0.309858 -0.0707305 0)
(-0.248879 -0.0704945 0)
(-0.188103 -0.0701795 0)
(-0.127578 -0.0698554 0)
(-0.0675079 -0.0694794 0)
(-0.0076315 -0.0689907 0)
(0.0518287 -0.0684042 0)
(0.110307 -0.0677608 0)
(0.167977 -0.067135 0)
(0.224954 -0.0661482 0)
(0.280987 -0.0646117 0)
(0.336051 -0.0629298 0)
(0.390112 -0.06127 0)
(0.443102 -0.0596368 0)
(0.494982 -0.0580229 0)
(0.54572 -0.0564166 0)
(0.595285 -0.054809 0)
(0.643647 -0.0531943 0)
(0.690776 -0.0515693 0)
(0.736644 -0.0499331 0)
(0.781223 -0.048286 0)
(0.824489 -0.0466294 0)
(0.866421 -0.0449654 0)
(0.907 -0.0432964 0)
(0.946211 -0.0416256 0)
(0.984042 -0.039956 0)
(1.02049 -0.038291 0)
(1.05554 -0.0366343 0)
(1.0892 -0.0349894 0)
(1.12147 -0.0333601 0)
(1.15237 -0.0317502 0)
(1.1819 -0.0301636 0)
(1.21009 -0.0286043 0)
(1.23695 -0.0270762 0)
(1.26251 -0.0255835 0)
(1.28681 -0.0241304 0)
(1.30988 -0.022721 0)
(1.33176 -0.0213598 0)
(1.3525 -0.0200514 0)
(1.37215 -0.0188006 0)
(1.39077 -0.0176123 0)
(1.40843 -0.0164917 0)
(1.4252 -0.0154445 0)
(1.44115 -0.0144765 0)
(1.45638 -0.0135941 0)
(1.47097 -0.012804 0)
(1.48503 -0.0121132 0)
(1.49867 -0.0115296 0)
(1.512 -0.0110608 0)
(1.52517 -0.0107155 0)
(1.5383 -0.0105015 0)
(1.55155 -0.0104276 0)
(1.56508 -0.0105008 0)
(1.57906 -0.0107282 0)
(1.59367 -0.0111139 0)
(1.60908 -0.0116605 0)
(1.62549 -0.0123659 0)
(1.64309 -0.0132251 0)
(1.66204 -0.0142276 0)
(1.68254 -0.0153604 0)
(1.70475 -0.0166089 0)
(1.72884 -0.0179633 0)
(1.75498 -0.019425 0)
(1.78337 -0.021018 0)
(1.81424 -0.0227984 0)
(1.84791 -0.0248615 0)
(1.88481 -0.0273381 0)
(1.92544 -0.0303747 0)
(1.97043 -0.0340958 0)
(2.0204 -0.0385525 0)
(2.07587 -0.0436764 0)
(2.13714 -0.0492551 0)
(2.20419 -0.0549492 0)
(2.2766 -0.060345 0)
(2.35357 -0.0650326 0)
(2.43399 -0.0686778 0)
(2.51655 -0.071079 0)
(2.5999 -0.0721912 0)
(2.68279 -0.0721425 0)
(2.76418 -0.0712516 0)
(2.84341 -0.0701158 0)
(2.92058 -0.0698646 0)
(2.9944 -0.0734895 0)
(3.08833 -0.0828262 0)
(-0.0309102 0.047622 0)
(-0.061477 0.0914618 0)
(-0.102109 0.116707 0)
(-0.147246 0.129938 0)
(-0.194922 0.136823 0)
(-0.24471 0.140626 0)
(-0.296039 0.142927 0)
(-0.348464 0.144483 0)
(-0.401706 0.145671 0)
(-0.455569 0.146698 0)
(-0.509878 0.147678 0)
(-0.564442 0.148653 0)
(-0.619009 0.149585 0)
(-0.673119 0.150369 0)
(-0.726196 0.150688 0)
(-0.778403 0.149954 0)
(-0.829779 0.148536 0)
(-0.879623 0.14632 0)
(-0.929026 0.142089 0)
(-0.979086 0.137763 0)
(-1.02884 0.135074 0)
(-1.0775 0.132988 0)
(-1.12535 0.131115 0)
(-1.17256 0.129354 0)
(-1.21925 0.127667 0)
(-1.26544 0.12603 0)
(-1.31116 0.124421 0)
(-1.35642 0.122821 0)
(-1.40122 0.121207 0)
(-1.44554 0.119562 0)
(-1.48935 0.117868 0)
(-1.53265 0.11611 0)
(-1.57538 0.114274 0)
(-1.61752 0.112349 0)
(-1.65902 0.110325 0)
(-1.69983 0.108193 0)
(-1.73992 0.105948 0)
(-1.77922 0.103583 0)
(-1.81769 0.101093 0)
(-1.85526 0.098475 0)
(-1.89189 0.0957259 0)
(-1.92751 0.0928429 0)
(-1.96206 0.0898239 0)
(-1.99549 0.0866674 0)
(-2.02772 0.0833721 0)
(-2.05869 0.0799373 0)
(-2.08835 0.0763629 0)
(-2.11662 0.0726496 0)
(-2.14343 0.068799 0)
(-2.16872 0.0648138 0)
(-2.19242 0.0606977 0)
(-2.21446 0.056456 0)
(-2.23479 0.0520956 0)
(-2.25333 0.0476248 0)
(-2.27004 0.043054 0)
(-2.28485 0.0383951 0)
(-2.29771 0.0336618 0)
(-2.30857 0.0288694 0)
(-2.31741 0.024034 0)
(-2.32418 0.0191727 0)
(-2.32886 0.0143024 0)
(-2.33143 0.00943874 0)
(-2.3319 0.0045927 0)
(-2.33023 -0.000223156 0)
(-2.32648 -0.0049578 0)
(-2.32069 -0.00956777 0)
(-2.31288 -0.0140593 0)
(-2.30309 -0.0184435 0)
(-2.29134 -0.0227268 0)
(-2.27766 -0.0269123 0)
(-2.26209 -0.0310013 0)
(-2.24465 -0.034994 0)
(-2.22537 -0.0388903 0)
(-2.20428 -0.0426898 0)
(-2.18141 -0.0463922 0)
(-2.1568 -0.0499973 0)
(-2.13048 -0.0535046 0)
(-2.10249 -0.0569136 0)
(-2.07284 -0.0602236 0)
(-2.04159 -0.0634334 0)
(-2.00876 -0.066542 0)
(-1.97439 -0.0695486 0)
(-1.93852 -0.0724531 0)
(-1.90119 -0.0752559 0)
(-1.86244 -0.0779573 0)
(-1.8223 -0.0805577 0)
(-1.78081 -0.0830565 0)
(-1.73802 -0.0854526 0)
(-1.69396 -0.0877454 0)
(-1.64868 -0.0899349 0)
(-1.60221 -0.0920222 0)
(-1.55461 -0.0940084 0)
(-1.50591 -0.0958941 0)
(-1.45615 -0.0976776 0)
(-1.40539 -0.0993571 0)
(-1.35366 -0.100933 0)
(-1.30102 -0.102407 0)
(-1.24751 -0.103781 0)
(-1.19317 -0.105055 0)
(-1.13805 -0.106224 0)
(-1.08221 -0.107286 0)
(-1.02568 -0.108247 0)
(-0.968534 -0.109109 0)
(-0.910803 -0.109867 0)
(-0.852545 -0.110516 0)
(-0.793818 -0.111059 0)
(-0.734673 -0.111507 0)
(-0.675156 -0.111854 0)
(-0.615327 -0.112083 0)
(-0.555249 -0.112211 0)
(-0.494967 -0.112248 0)
(-0.434539 -0.112169 0)
(-0.37403 -0.111974 0)
(-0.313488 -0.111701 0)
(-0.252982 -0.111324 0)
(-0.192561 -0.110817 0)
(-0.132252 -0.110241 0)
(-0.0722238 -0.10958 0)
(-0.0123732 -0.108782 0)
(0.0472168 -0.107869 0)
(0.106083 -0.10686 0)
(0.164417 -0.105704 0)
(0.222148 -0.104349 0)
(0.279148 -0.102871 0)
(0.335333 -0.101344 0)
(0.390662 -0.0996012 0)
(0.445154 -0.0975686 0)
(0.498806 -0.0954083 0)
(0.551522 -0.0932057 0)
(0.603219 -0.0909781 0)
(0.653837 -0.0887257 0)
(0.70333 -0.086444 0)
(0.751658 -0.0841289 0)
(0.798787 -0.0817783 0)
(0.844688 -0.0793924 0)
(0.889334 -0.0769729 0)
(0.9327 -0.0745231 0)
(0.974765 -0.0720472 0)
(1.01551 -0.0695504 0)
(1.05493 -0.0670379 0)
(1.093 -0.0645159 0)
(1.12972 -0.0619903 0)
(1.1651 -0.0594678 0)
(1.19912 -0.0569547 0)
(1.2318 -0.0544578 0)
(1.26315 -0.0519837 0)
(1.29318 -0.0495394 0)
(1.32191 -0.0471317 0)
(1.34937 -0.0447675 0)
(1.37557 -0.0424538 0)
(1.40057 -0.0401977 0)
(1.42439 -0.0380065 0)
(1.44708 -0.0358876 0)
(1.46868 -0.0338484 0)
(1.48926 -0.0318968 0)
(1.50886 -0.0300409 0)
(1.52756 -0.028289 0)
(1.54543 -0.02665 0)
(1.56254 -0.0251332 0)
(1.57898 -0.0237484 0)
(1.59485 -0.0225059 0)
(1.61023 -0.021417 0)
(1.62524 -0.020493 0)
(1.64 -0.0197466 0)
(1.65464 -0.0191903 0)
(1.66928 -0.0188376 0)
(1.68407 -0.0187016 0)
(1.69917 -0.0187956 0)
(1.71474 -0.0191315 0)
(1.73096 -0.01972 0)
(1.74801 -0.0205685 0)
(1.76607 -0.0216813 0)
(1.78535 -0.0230571 0)
(1.80603 -0.0246895 0)
(1.82832 -0.026566 0)
(1.85242 -0.0286708 0)
(1.87851 -0.0309875 0)
(1.9068 -0.0335079 0)
(1.9375 -0.0362416 0)
(1.97082 -0.0392301 0)
(2.00704 -0.0425578 0)
(2.04648 -0.0463577 0)
(2.08951 -0.0507998 0)
(2.13657 -0.0560576 0)
(2.1881 -0.062252 0)
(2.24451 -0.0693837 0)
(2.30603 -0.0772787 0)
(2.37266 -0.0855709 0)
(2.4441 -0.0937413 0)
(2.5197 -0.101201 0)
(2.59853 -0.107398 0)
(2.67942 -0.111911 0)
(2.76113 -0.114512 0)
(2.84242 -0.115193 0)
(2.92217 -0.114171 0)
(2.99944 -0.111903 0)
(3.07354 -0.109165 0)
(3.14419 -0.10726 0)
(3.20903 -0.108756 0)
(3.28432 -0.114848 0)
(-0.0347379 0.0934137 0)
(-0.0695286 0.136351 0)
(-0.112051 0.162293 0)
(-0.157234 0.177635 0)
(-0.203656 0.186566 0)
(-0.251524 0.191888 0)
(-0.300581 0.195218 0)
(-0.350487 0.197434 0)
(-0.400955 0.198998 0)
(-0.451735 0.200147 0)
(-0.502575 0.200981 0)
(-0.553217 0.201504 0)
(-0.603382 0.201647 0)
(-0.652754 0.201294 0)
(-0.701071 0.200242 0)
(-0.74843 0.19822 0)
(-0.795004 0.195521 0)
(-0.840733 0.192334 0)
(-0.886042 0.188276 0)
(-0.931391 0.184142 0)
(-0.976485 0.180752 0)
(-1.02101 0.177848 0)
(-1.06498 0.175233 0)
(-1.10846 0.172805 0)
(-1.15148 0.170503 0)
(-1.19408 0.168281 0)
(-1.23626 0.166103 0)
(-1.27802 0.163936 0)
(-1.31935 0.161749 0)
(-1.36025 0.159518 0)
(-1.40067 0.157218 0)
(-1.4406 0.15483 0)
(-1.48 0.152335 0)
(-1.51884 0.149718 0)
(-1.55707 0.146967 0)
(-1.59465 0.144071 0)
(-1.63152 0.141021 0)
(-1.66765 0.13781 0)
(-1.70298 0.134431 0)
(-1.73746 0.13088 0)
(-1.77103 0.127153 0)
(-1.80364 0.123246 0)
(-1.83523 0.119156 0)
(-1.86574 0.114882 0)
(-1.89512 0.11042 0)
(-1.92329 0.10577 0)
(-1.9502 0.100932 0)
(-1.97579 0.0959057 0)
(-1.99999 0.0906927 0)
(-2.02273 0.0852963 0)
(-2.04396 0.0797211 0)
(-2.0636 0.0739738 0)
(-2.08159 0.0680631 0)
(-2.09788 0.062 0)
(-2.11239 0.0557978 0)
(-2.12509 0.0494727 0)
(-2.1359 0.043043 0)
(-2.1448 0.0365292 0)
(-2.15173 0.0299536 0)
(-2.15666 0.0233395 0)
(-2.15958 0.0167107 0)
(-2.16046 0.0100884 0)
(-2.15931 0.00348896 0)
(-2.15607 -0.00304904 0)
(-2.15087 -0.00945827 0)
(-2.14371 -0.0157072 0)
(-2.13461 -0.021804 0)
(-2.12361 -0.0277586 0)
(-2.11072 -0.0335778 0)
(-2.09598 -0.0392651 0)
(-2.07941 -0.044822 0)
(-2.06105 -0.0502486 0)
(-2.04092 -0.0555444 0)
(-2.01904 -0.0607089 0)
(-1.99546 -0.0657417 0)
(-1.9702 -0.0706423 0)
(-1.9433 -0.0754104 0)
(-1.91478 -0.0800451 0)
(-1.88467 -0.0845457 0)
(-1.85302 -0.0889103 0)
(-1.81985 -0.0931372 0)
(-1.7852 -0.0972253 0)
(-1.74911 -0.101174 0)
(-1.71161 -0.104985 0)
(-1.67274 -0.108657 0)
(-1.63255 -0.112192 0)
(-1.59105 -0.115589 0)
(-1.5483 -0.118846 0)
(-1.50433 -0.121962 0)
(-1.45919 -0.124936 0)
(-1.41292 -0.12777 0)
(-1.36555 -0.130466 0)
(-1.31713 -0.133024 0)
(-1.26771 -0.135443 0)
(-1.21731 -0.137719 0)
(-1.16599 -0.139851 0)
(-1.1138 -0.141842 0)
(-1.06078 -0.143698 0)
(-1.00698 -0.145416 0)
(-0.95243 -0.146988 0)
(-0.897194 -0.148412 0)
(-0.841321 -0.149694 0)
(-0.784857 -0.150842 0)
(-0.727847 -0.151847 0)
(-0.670345 -0.152699 0)
(-0.612412 -0.153402 0)
(-0.554096 -0.153974 0)
(-0.495444 -0.154406 0)
(-0.436514 -0.154674 0)
(-0.377367 -0.154799 0)
(-0.318054 -0.1548 0)
(-0.258633 -0.154644 0)
(-0.199162 -0.154324 0)
(-0.139673 -0.153887 0)
(-0.0802985 -0.153319 0)
(-0.0210232 -0.152582 0)
(0.0381921 -0.15169 0)
(0.0968946 -0.15066 0)
(0.155227 -0.149466 0)
(0.213126 -0.14807 0)
(0.270453 -0.146509 0)
(0.327183 -0.144782 0)
(0.383264 -0.142846 0)
(0.438642 -0.140747 0)
(0.493216 -0.138524 0)
(0.546926 -0.136078 0)
(0.599809 -0.133366 0)
(0.65186 -0.130491 0)
(0.702999 -0.127521 0)
(0.753148 -0.124483 0)
(0.802244 -0.121388 0)
(0.850233 -0.11824 0)
(0.897075 -0.115039 0)
(0.942734 -0.111787 0)
(0.98718 -0.108487 0)
(1.03039 -0.105143 0)
(1.07234 -0.101762 0)
(1.11301 -0.0983498 0)
(1.15239 -0.0949139 0)
(1.19046 -0.0914624 0)
(1.22724 -0.0880038 0)
(1.2627 -0.0845469 0)
(1.29685 -0.0811007 0)
(1.32971 -0.0776744 0)
(1.36128 -0.0742773 0)
(1.39157 -0.0709189 0)
(1.42061 -0.0676086 0)
(1.44842 -0.0643561 0)
(1.47503 -0.0611709 0)
(1.50048 -0.0580629 0)
(1.5248 -0.0550418 0)
(1.54803 -0.0521177 0)
(1.57023 -0.0493008 0)
(1.59144 -0.0466016 0)
(1.61173 -0.0440308 0)
(1.63116 -0.0415996 0)
(1.64981 -0.0393195 0)
(1.66774 -0.0372028 0)
(1.68504 -0.0352622 0)
(1.7018 -0.0335111 0)
(1.71811 -0.0319638 0)
(1.73409 -0.0306354 0)
(1.74983 -0.0295417 0)
(1.76547 -0.0286997 0)
(1.78112 -0.0281265 0)
(1.79693 -0.0278404 0)
(1.81304 -0.0278594 0)
(1.82962 -0.0282013 0)
(1.84682 -0.0288828 0)
(1.86482 -0.0299185 0)
(1.8838 -0.0313195 0)
(1.90397 -0.0330926 0)
(1.92551 -0.0352383 0)
(1.94864 -0.0377508 0)
(1.97355 -0.0406173 0)
(2.00047 -0.0438215 0)
(2.02962 -0.0473471 0)
(2.0612 -0.0511886 0)
(2.09545 -0.0553625 0)
(2.13262 -0.0599231 0)
(2.17298 -0.0649739 0)
(2.21682 -0.0706706 0)
(2.26447 -0.0772014 0)
(2.31626 -0.0847425 0)
(2.3725 -0.0933867 0)
(2.43339 -0.103064 0)
(2.49896 -0.113483 0)
(2.56897 -0.124127 0)
(2.64291 -0.134311 0)
(2.71997 -0.143296 0)
(2.79914 -0.150423 0)
(2.87922 -0.155212 0)
(2.95903 -0.157439 0)
(3.0374 -0.157145 0)
(3.11331 -0.154638 0)
(3.18592 -0.150481 0)
(3.25448 -0.145544 0)
(3.31854 -0.141121 0)
(3.37537 -0.139302 0)
(3.43814 -0.140671 0)
(-0.0355372 0.142082 0)
(-0.0723429 0.182623 0)
(-0.115895 0.207417 0)
(-0.160809 0.223257 0)
(-0.205916 0.233199 0)
(-0.251741 0.239434 0)
(-0.298254 0.243404 0)
(-0.345224 0.245972 0)
(-0.392402 0.247618 0)
(-0.43954 0.248592 0)
(-0.486396 0.249001 0)
(-0.532734 0.248858 0)
(-0.578342 0.248119 0)
(-0.623044 0.246712 0)
(-0.666761 0.244542 0)
(-0.709617 0.241548 0)
(-0.751812 0.237941 0)
(-0.793448 0.233959 0)
(-0.834759 0.229636 0)
(-0.875953 0.225367 0)
(-0.916922 0.221519 0)
(-0.957514 0.21805 0)
(-0.997708 0.214872 0)
(-1.03751 0.211905 0)
(-1.07694 0.209086 0)
(-1.116 0.206361 0)
(-1.15469 0.203683 0)
(-1.193 0.201012 0)
(-1.23092 0.198311 0)
(-1.26843 0.195548 0)
(-1.3055 0.192696 0)
(-1.3421 0.189728 0)
(-1.37819 0.186625 0)
(-1.41374 0.183367 0)
(-1.44871 0.179941 0)
(-1.48305 0.176333 0)
(-1.51671 0.172533 0)
(-1.54965 0.168531 0)
(-1.58182 0.164323 0)
(-1.61317 0.1599 0)
(-1.64365 0.155259 0)
(-1.6732 0.150396 0)
(-1.70177 0.145306 0)
(-1.7293 0.139988 0)
(-1.75574 0.134438 0)
(-1.78104 0.128654 0)
(-1.80512 0.122636 0)
(-1.82794 0.116383 0)
(-1.84942 0.109897 0)
(-1.86951 0.103181 0)
(-1.88815 0.0962403 0)
(-1.90527 0.0890826 0)
(-1.92081 0.0817179 0)
(-1.93471 0.0741594 0)
(-1.94691 0.0664234 0)
(-1.95736 0.0585295 0)
(-1.966 0.0505005 0)
(-1.97279 0.042362 0)
(-1.97769 0.0341423 0)
(-1.98067 0.0258713 0)
(-1.98169 0.0175796 0)
(-1.98076 0.00929432 0)
(-1.97784 0.00103904 0)
(-1.97296 -0.00711206 0)
(-1.96621 -0.0150836 0)
(-1.95758 -0.0228666 0)
(-1.94711 -0.0304674 0)
(-1.93482 -0.0378946 0)
(-1.92073 -0.045155 0)
(-1.90487 -0.0522522 0)
(-1.88727 -0.0591873 0)
(-1.86794 -0.06596 0)
(-1.84692 -0.0725697 0)
(-1.82425 -0.0790155 0)
(-1.79993 -0.0852969 0)
(-1.77402 -0.0914132 0)
(-1.74653 -0.0973639 0)
(-1.7175 -0.103149 0)
(-1.68696 -0.108766 0)
(-1.65494 -0.114214 0)
(-1.62147 -0.119489 0)
(-1.58659 -0.124591 0)
(-1.55034 -0.129519 0)
(-1.51274 -0.134273 0)
(-1.47384 -0.138855 0)
(-1.43367 -0.143265 0)
(-1.39227 -0.147502 0)
(-1.34966 -0.151565 0)
(-1.3059 -0.155449 0)
(-1.26103 -0.159156 0)
(-1.21507 -0.162687 0)
(-1.16808 -0.166044 0)
(-1.12009 -0.16923 0)
(-1.07114 -0.172241 0)
(-1.02127 -0.175071 0)
(-0.970533 -0.17772 0)
(-0.918969 -0.18019 0)
(-0.866622 -0.18249 0)
(-0.813532 -0.184618 0)
(-0.759744 -0.186561 0)
(-0.70531 -0.188316 0)
(-0.650282 -0.18989 0)
(-0.594705 -0.191296 0)
(-0.53862 -0.192525 0)
(-0.482081 -0.193556 0)
(-0.425149 -0.194395 0)
(-0.367867 -0.195071 0)
(-0.310292 -0.195573 0)
(-0.252474 -0.195865 0)
(-0.194463 -0.195973 0)
(-0.136323 -0.195921 0)
(-0.0781341 -0.195683 0)
(-0.0199082 -0.195242 0)
(0.0383725 -0.194611 0)
(0.0963537 -0.193797 0)
(0.15412 -0.192793 0)
(0.211633 -0.191562 0)
(0.268751 -0.190121 0)
(0.325447 -0.188486 0)
(0.381659 -0.186619 0)
(0.437316 -0.18454 0)
(0.492358 -0.182254 0)
(0.546736 -0.179738 0)
(0.600405 -0.177019 0)
(0.653283 -0.174122 0)
(0.705314 -0.17099 0)
(0.756508 -0.1676 0)
(0.806856 -0.164018 0)
(0.856296 -0.160299 0)
(0.904761 -0.156475 0)
(0.952193 -0.152563 0)
(0.998541 -0.148572 0)
(1.04376 -0.14451 0)
(1.08782 -0.140383 0)
(1.13069 -0.136196 0)
(1.17235 -0.131958 0)
(1.21278 -0.127677 0)
(1.25196 -0.123362 0)
(1.28988 -0.119024 0)
(1.32654 -0.114673 0)
(1.36193 -0.11032 0)
(1.39606 -0.105976 0)
(1.42894 -0.101654 0)
(1.46057 -0.0973642 0)
(1.49097 -0.0931196 0)
(1.52016 -0.088932 0)
(1.54817 -0.0848134 0)
(1.57502 -0.080776 0)
(1.60074 -0.0768321 0)
(1.62539 -0.0729942 0)
(1.64899 -0.0692746 0)
(1.6716 -0.0656861 0)
(1.69326 -0.0622416 0)
(1.71405 -0.0589543 0)
(1.73401 -0.0558378 0)
(1.75322 -0.0529061 0)
(1.77176 -0.0501737 0)
(1.78969 -0.0476561 0)
(1.80712 -0.0453691 0)
(1.82412 -0.0433296 0)
(1.8408 -0.0415554 0)
(1.85726 -0.0400652 0)
(1.87362 -0.0388789 0)
(1.89 -0.0380174 0)
(1.90652 -0.0375023 0)
(1.92332 -0.0373561 0)
(1.94056 -0.0376013 0)
(1.95838 -0.0382605 0)
(1.97695 -0.0393546 0)
(1.99645 -0.0409027 0)
(2.01706 -0.0429197 0)
(2.03897 -0.0454163 0)
(2.06239 -0.0483956 0)
(2.08753 -0.0518545 0)
(2.1146 -0.055782 0)
(2.14383 -0.0601631 0)
(2.17546 -0.0649836 0)
(2.20972 -0.0702404 0)
(2.24685 -0.0759542 0)
(2.28712 -0.0821858 0)
(2.33078 -0.0890464 0)
(2.37811 -0.0966974 0)
(2.42936 -0.105325 0)
(2.48477 -0.115088 0)
(2.54452 -0.126031 0)
(2.60864 -0.138001 0)
(2.67697 -0.150591 0)
(2.74911 -0.163141 0)
(2.82437 -0.174824 0)
(2.90184 -0.184784 0)
(2.98041 -0.192283 0)
(3.05891 -0.196817 0)
(3.13617 -0.198187 0)
(3.21111 -0.196495 0)
(3.28281 -0.192131 0)
(3.35047 -0.185736 0)
(3.41339 -0.178221 0)
(3.47102 -0.170789 0)
(3.52074 -0.165172 0)
(3.57397 -0.16186 0)
(-0.0349214 0.190476 0)
(-0.0722275 0.228497 0)
(-0.115815 0.251451 0)
(-0.159855 0.266816 0)
(-0.203343 0.276936 0)
(-0.246905 0.283469 0)
(-0.29064 0.287618 0)
(-0.334411 0.290164 0)
(-0.378029 0.291568 0)
(-0.421293 0.292083 0)
(-0.46401 0.291834 0)
(-0.506015 0.290868 0)
(-0.547185 0.289191 0)
(-0.587455 0.286794 0)
(-0.626846 0.283677 0)
(-0.665502 0.279887 0)
(-0.703604 0.275612 0)
(-0.741283 0.271069 0)
(-0.778692 0.266403 0)
(-0.815946 0.26186 0)
(-0.853003 0.257637 0)
(-0.889785 0.25374 0)
(-0.926264 0.250121 0)
(-0.962431 0.246714 0)
(-0.998281 0.24346 0)
(-1.03381 0.240299 0)
(-1.06901 0.237182 0)
(-1.10386 0.23406 0)
(-1.13834 0.230894 0)
(-1.17244 0.227646 0)
(-1.20611 0.224283 0)
(-1.23933 0.220779 0)
(-1.27206 0.217108 0)
(-1.30425 0.213252 0)
(-1.33588 0.209193 0)
(-1.36689 0.204917 0)
(-1.39724 0.200412 0)
(-1.42688 0.195669 0)
(-1.45577 0.190681 0)
(-1.48385 0.185441 0)
(-1.51109 0.179944 0)
(-1.53743 0.174185 0)
(-1.56281 0.168161 0)
(-1.5872 0.161867 0)
(-1.61053 0.155301 0)
(-1.63276 0.148461 0)
(-1.65382 0.141343 0)
(-1.67366 0.133948 0)
(-1.69223 0.126277 0)
(-1.70946 0.118332 0)
(-1.72529 0.11012 0)
(-1.73967 0.101649 0)
(-1.75254 0.0929285 0)
(-1.76383 0.083975 0)
(-1.77349 0.0748068 0)
(-1.78147 0.0654469 0)
(-1.78771 0.0559221 0)
(-1.79217 0.0462632 0)
(-1.79481 0.0365041 0)
(-1.7956 0.0266813 0)
(-1.79452 0.0168316 0)
(-1.79155 0.00698728 0)
(-1.78666 -0.00280071 0)
(-1.77997 -0.0124316 0)
(-1.7715 -0.021845 0)
(-1.76125 -0.0310437 0)
(-1.74926 -0.0400333 0)
(-1.73554 -0.0488215 0)
(-1.72012 -0.0574144 0)
(-1.70302 -0.0658154 0)
(-1.68427 -0.074025 0)
(-1.66388 -0.0820422 0)
(-1.64189 -0.089866 0)
(-1.61832 -0.0974953 0)
(-1.59321 -0.104929 0)
(-1.56658 -0.112167 0)
(-1.53846 -0.119208 0)
(-1.50889 -0.126053 0)
(-1.47788 -0.1327 0)
(-1.44547 -0.139145 0)
(-1.4117 -0.145386 0)
(-1.37659 -0.151421 0)
(-1.34018 -0.157248 0)
(-1.30251 -0.162868 0)
(-1.26361 -0.168283 0)
(-1.22351 -0.173495 0)
(-1.18225 -0.178503 0)
(-1.13986 -0.183303 0)
(-1.09637 -0.187891 0)
(-1.05184 -0.192266 0)
(-1.00629 -0.196432 0)
(-0.959774 -0.20039 0)
(-0.912317 -0.204146 0)
(-0.863958 -0.207695 0)
(-0.814739 -0.211026 0)
(-0.764704 -0.214141 0)
(-0.713899 -0.21704 0)
(-0.662364 -0.219738 0)
(-0.610138 -0.222232 0)
(-0.557262 -0.224504 0)
(-0.503787 -0.226549 0)
(-0.449764 -0.228375 0)
(-0.395234 -0.230003 0)
(-0.340246 -0.23142 0)
(-0.284844 -0.2326 0)
(-0.229088 -0.233547 0)
(-0.173001 -0.234295 0)
(-0.11669 -0.234837 0)
(-0.0601787 -0.23514 0)
(-0.00345812 -0.235213 0)
(0.0533467 -0.23506 0)
(0.110076 -0.234685 0)
(0.166744 -0.234083 0)
(0.223313 -0.233223 0)
(0.279664 -0.232119 0)
(0.335759 -0.230792 0)
(0.391537 -0.229204 0)
(0.446928 -0.227364 0)
(0.501875 -0.225284 0)
(0.556316 -0.222944 0)
(0.610196 -0.220354 0)
(0.663455 -0.217518 0)
(0.716043 -0.214429 0)
(0.767915 -0.211104 0)
(0.819005 -0.207559 0)
(0.869262 -0.203767 0)
(0.918679 -0.199719 0)
(0.967237 -0.195459 0)
(1.01489 -0.19103 0)
(1.06157 -0.186463 0)
(1.10725 -0.181779 0)
(1.15186 -0.176994 0)
(1.19537 -0.172119 0)
(1.23774 -0.167165 0)
(1.27896 -0.162141 0)
(1.31899 -0.157059 0)
(1.35782 -0.151929 0)
(1.39545 -0.146766 0)
(1.43186 -0.14158 0)
(1.46705 -0.136385 0)
(1.50102 -0.131196 0)
(1.53377 -0.126026 0)
(1.56533 -0.120889 0)
(1.5957 -0.1158 0)
(1.62491 -0.110773 0)
(1.65297 -0.105823 0)
(1.67992 -0.100965 0)
(1.70579 -0.0962124 0)
(1.73062 -0.091581 0)
(1.75444 -0.0870856 0)
(1.77731 -0.082741 0)
(1.79927 -0.0785625 0)
(1.82039 -0.0745655 0)
(1.84072 -0.0707659 0)
(1.86034 -0.0671797 0)
(1.8793 -0.0638238 0)
(1.89769 -0.0607155 0)
(1.91559 -0.0578728 0)
(1.93309 -0.0553146 0)
(1.95028 -0.0530609 0)
(1.96725 -0.0511326 0)
(1.98412 -0.049552 0)
(2.001 -0.0483421 0)
(2.01801 -0.0475278 0)
(2.03528 -0.0471344 0)
(2.05293 -0.0471885 0)
(2.07112 -0.0477167 0)
(2.09 -0.048746 0)
(2.10974 -0.0503015 0)
(2.13049 -0.0524071 0)
(2.15245 -0.055082 0)
(2.17581 -0.0583412 0)
(2.20077 -0.0621921 0)
(2.22755 -0.0666356 0)
(2.25636 -0.0716643 0)
(2.28746 -0.0772665 0)
(2.32107 -0.0834306 0)
(2.35746 -0.0901559 0)
(2.39688 -0.0974643 0)
(2.43958 -0.105416 0)
(2.48583 -0.11412 0)
(2.53585 -0.123729 0)
(2.58984 -0.134411 0)
(2.64796 -0.146287 0)
(2.71025 -0.159345 0)
(2.77661 -0.173343 0)
(2.84672 -0.187756 0)
(2.92004 -0.201796 0)
(2.99575 -0.214513 0)
(3.07284 -0.224957 0)
(3.15015 -0.232341 0)
(3.22649 -0.236164 0)
(3.30074 -0.236268 0)
(3.3719 -0.232827 0)
(3.43912 -0.226309 0)
(3.50169 -0.217418 0)
(3.55896 -0.207082 0)
(3.6104 -0.196401 0)
(3.65369 -0.186927 0)
(3.69892 -0.179377 0)
(-0.0335409 0.236963 0)
(-0.0703248 0.272741 0)
(-0.113106 0.293647 0)
(-0.155685 0.307967 0)
(-0.197202 0.317646 0)
(-0.238263 0.323948 0)
(-0.279034 0.327848 0)
(-0.319454 0.330022 0)
(-0.359399 0.330898 0)
(-0.398732 0.330735 0)
(-0.437332 0.329679 0)
(-0.475108 0.327817 0)
(-0.512018 0.325208 0)
(-0.548073 0.321904 0)
(-0.583351 0.317972 0)
(-0.617997 0.313516 0)
(-0.652171 0.308711 0)
(-0.686 0.303748 0)
(-0.719594 0.298776 0)
(-0.753028 0.293965 0)
(-0.786288 0.289435 0)
(-0.819331 0.2852 0)
(-0.852133 0.281225 0)
(-0.884675 0.277453 0)
(-0.916943 0.273827 0)
(-0.948924 0.270286 0)
(-0.980599 0.266776 0)
(-1.01195 0.263246 0)
(-1.04294 0.259651 0)
(-1.07355 0.255951 0)
(-1.10375 0.252111 0)
(-1.1335 0.248101 0)
(-1.16275 0.243894 0)
(-1.19148 0.239469 0)
(-1.21963 0.234808 0)
(-1.24717 0.229897 0)
(-1.27405 0.224722 0)
(-1.30023 0.219275 0)
(-1.32566 0.213547 0)
(-1.3503 0.207533 0)
(-1.37411 0.201226 0)
(-1.39702 0.194623 0)
(-1.41901 0.187719 0)
(-1.44003 0.18051 0)
(-1.46002 0.172992 0)
(-1.47893 0.165162 0)
(-1.49673 0.157017 0)
(-1.51334 0.148557 0)
(-1.52873 0.139781 0)
(-1.54284 0.130692 0)
(-1.55561 0.121295 0)
(-1.56698 0.1116 0)
(-1.5769 0.101618 0)
(-1.58531 0.0913646 0)
(-1.59216 0.0808617 0)
(-1.5974 0.0701348 0)
(-1.60097 0.0592147 0)
(-1.60284 0.0481371 0)
(-1.60296 0.0369418 0)
(-1.60131 0.025672 0)
(-1.59787 0.01437 0)
(-1.59263 0.00307258 0)
(-1.58556 -0.00811762 0)
(-1.57685 -0.0190886 0)
(-1.56646 -0.0298203 0)
(-1.55441 -0.0403141 0)
(-1.54072 -0.0505751 0)
(-1.52542 -0.0606099 0)
(-1.50852 -0.0704238 0)
(-1.49003 -0.0800198 0)
(-1.47 -0.0893973 0)
(-1.44843 -0.0985545 0)
(-1.42536 -0.10749 0)
(-1.40082 -0.116202 0)