/*--------------------------------*- C++ -*----------------------------------*\
  =========                 |
  \\      /  F ield         | OpenFOAM: The Open Source CFD Toolbox
   \\    /   O peration     | Website:  https://openfoam.org
    \\  /    A nd           | Version:  7
     \\/     M anipulation  |
\*---------------------------------------------------------------------------*/
FoamFile
{
    version     2.0;
    format      ascii;
    class       volScalarField;
    location    "1.9";
    object      p;
}
// * * * * * * * * * * * * * * * * * * * * * * * * * * * * * * * * * * * * * //

dimensions      [0 2 -2 0 0 0 0];

internalField   nonuniform List<scalar> 
900
(
1.32033e-08
-0.000232094
-0.000533536
-0.000797943
-0.000965809
-0.00100078
-0.000887666
-0.00062334
-0.000210542
0.0003451
0.00103621
0.00185366
0.00278588
0.00381784
0.00492993
0.00609715
0.00728872
0.00846822
0.00959486
0.0106255
0.0115176
0.0122332
0.0127433
0.0130319
0.0131003
0.0129704
0.0126877
0.0123233
0.0119645
0.0117456
0.000229438
-6.22455e-06
-0.000225156
-0.000397954
-0.000489619
-0.000472784
-0.000333774
-6.74614e-05
0.000326512
0.000845426
0.00148416
0.00223523
0.00308828
0.00402945
0.00504057
0.00609863
0.00717582
0.00823964
0.00925424
0.0101823
0.0109879
0.0116397
0.0121148
0.0124022
0.0125057
0.0124457
0.0122603
0.0120049
0.0117421
0.0115257
0.000538161
0.000206063
-1.90386e-05
-0.00016673
-0.000230597
-0.000192205
-4.21774e-05
0.000222997
0.000603929
0.00109903
0.00170462
0.00241472
0.0032205
0.00410957
0.0050653
0.00606634
0.0070868
0.00809586
0.0090597
0.00994303
0.0107117
0.0113363
0.0117952
0.0120783
0.0121895
0.0121472
0.0119848
0.0117493
0.0114785
0.0111733
0.000820316
0.000370353
0.000104526
-4.98631e-05
-0.0001103
-6.6598e-05
8.54351e-05
0.000346344
0.000715837
0.00119273
0.00177451
0.00245672
0.00323226
0.00409049
0.00501648
0.00599036
0.00698726
0.00797719
0.0089265
0.00979953
0.0105613
0.0111812
0.0116362
0.0119149
0.0120198
0.0119673
0.0117885
0.0115266
0.011203
0.0107856
0.0010087
0.00044097
0.000124828
-4.91119e-05
-0.000117799
-7.77746e-05
7.03857e-05
0.000324258
0.000682493
0.0011442
0.00170798
0.00237104
0.00312818
0.0039707
0.00488539
0.00585375
0.00685157
0.00784888
0.00881096
0.00970015
0.0104787
0.0111124
0.0115753
0.0118528
0.0119453
0.0118679
0.0116512
0.0113388
0.0109434
0.0104098
0.00105147
0.000373809
4.70605e-06
-0.00019574
-0.000280092
-0.000250091
-0.000110259
0.000134452
0.000481836
0.000931391
0.00148298
0.0021356
0.00288614
0.00372799
0.0046498
0.00563439
0.00665792
0.00768972
0.00869296
0.00962641
0.0104475
0.0111168
0.0116025
0.0118857
0.0119638
0.011851
0.0115797
0.0111979
0.0107168
0.0100662
0.000912745
0.000134225
-0.000287412
-0.000517779
-0.000622194
-0.000606402
-0.00047806
-0.00024409
9.28006e-05
0.000532756
0.00107711
0.00172691
0.00248139
0.00333634
0.0042825
0.00530411
0.00637766
0.00747139
0.0085454
0.00955353
0.0104465
0.0111769
0.0117052
0.0120056
0.0120715
0.0119163
0.0115764
0.0111078
0.010526
0.0097524
0.000565785
-0.000306308
-0.000779039
-0.00104072
-0.00116767
-0.00116885
-0.00105441
-0.000832751
-0.000506681
-7.5092e-05
0.00046514
0.00111745
0.00188383
0.0027629
0.00374802
0.0048253
0.00597184
0.00715477
0.00833062
0.00944701
0.010446
0.0112694
0.0118667
0.0122024
0.0122636
0.0120626
0.0116411
0.0110671
0.010365
0.00945055
-1.1751e-05
-0.000973045
-0.00149584
-0.00178965
-0.00194091
-0.0019614
-0.0018634
-0.00165641
-0.00134302
-0.000920832
-0.000384588
0.000271979
0.00105416
0.00196413
0.00299867
0.00414667
0.0053867
0.00668541
0.00799571
0.00925817
0.0104041
0.0113615
0.0120646
0.0124637
0.0125359
0.0122904
0.0117751
0.0110737
0.0102233
0.00913406
-0.000840363
-0.00188949
-0.0024624
-0.00278942
-0.00296697
-0.00300957
-0.00293152
-0.00274326
-0.00244697
-0.00203873
-0.00151079
-0.000853567
-5.77774e-05
0.000883263
0.001971
0.0031986
0.00454761
0.005986
0.00746383
0.00891464
0.0102573
0.0114023
0.012263
0.0127691
0.0128811
0.0126009
0.0119818
0.0111269
0.0100894
0.00877122
-0.00194017
-0.0030785
-0.00370283
-0.00406489
-0.00427145
-0.00434004
-0.00428716
-0.00412428
-0.00385318
-0.0034683
-0.00295915
-0.0023124
-0.00151399
-0.000551583
0.000582622
0.00188807
0.0033515
0.0049473
0.00662325
0.00830762
0.00990631
0.0113089
0.0124006
0.0130809
0.0132833
0.0129937
0.0122673
0.01123
0.00995422
0.0083285
-0.00333176
-0.00456307
-0.0052414
-0.00564119
-0.00588048
-0.00598036
-0.00596004
-0.00583243
-0.00559919
-0.00525323
-0.00478131
-0.00416603
-0.00338793
-0.00242779
-0.00126951
9.51972e-05
0.00166039
0.00341955
0.00531514
0.00727634
0.0091983
0.010947
0.012372
0.0133287
0.0137073
0.013462
0.0126409
0.0113938
0.0098157
0.00777442
-0.00503665
-0.00636697
-0.00710304
-0.00754399
-0.00782052
-0.0079583
-0.00798013
-0.00790112
-0.00772343
-0.00743897
-0.00703205
-0.00648133
-0.00576159
-0.0048457
-0.00370723
-0.00232329
-0.000678443
0.00120907
0.00332227
0.00559136
0.00790505
0.0101065
0.012002
0.0133863
0.014081
0.0139821
0.0131111
0.0116382
0.0096836
0.00708481
-0.00707753
-0.0085153
-0.00931377
-0.00979954
-0.010118
-0.0103009
-0.0103759
-0.0103616
-0.0102619
-0.0100685
-0.00976425
-0.00932459
-0.00871894
-0.00791195
-0.0068653
-0.00554014
-0.0039022
-0.00193478
0.00036216
0.00294209
0.00570306
0.00847365
0.0110139
0.0130387
0.0142675
0.0144947
0.0136788
0.0119947
0.00958647
0.00625067
-0.00947865
-0.0110352
-0.0119013
-0.0124348
-0.0127987
-0.0130327
-0.0131717
-0.0132396
-0.0132431
-0.0131759
-0.0130207
-0.0127515
-0.0123338
-0.0117248
-0.0108739
-0.00972334
-0.00821211
-0.00628495
-0.00389863
-0.00105826
0.00216778
0.0056136
0.00899994
0.0119471
0.01403
0.0148785
0.0143235
0.0125058
0.00958079
0.00529007
-0.0122665
-0.0139574
-0.0148963
-0.015478
-0.015887
-0.0161744
-0.0163849
-0.0165499
-0.0166818
-0.0167777
-0.0168232
-0.0167932
-0.0166522
-0.0163528
-0.0158334
-0.0150166
-0.0138085
-0.0121034
-0.00980447
-0.00683559
-0.00319807
0.000983947
0.0054173
0.00962627
0.0129994
0.0149188
0.014985
0.0132253
0.00976493
0.00426763
-0.0154716
-0.0173181
-0.0183342
-0.0189591
-0.0194054
-0.01974
-0.0200212
-0.0202911
-0.0205704
-0.0208625
-0.0211587
-0.0214387
-0.0216703
-0.0218058
-0.021777
-0.0214889
-0.0208136
-0.0195893
-0.0176322
-0.014767
-0.010877
-0.00598862
-0.000357714
0.0054701
0.010672
0.0142897
0.015549
0.0142211
0.0103017
0.00332708
-0.0191314
-0.021164
-0.0222583
-0.0229115
-0.0233739
-0.0237345
-0.0240705
-0.0244388
-0.0248708
-0.0253795
-0.025965
-0.0266163
-0.0273095
-0.028003
-0.0286283
-0.0290781
-0.0291928
-0.0287498
-0.0274645
-0.0250368
-0.021176
-0.0157435
-0.00887926
-0.00113246
0.00647901
0.0125821
0.0158546
0.0155904
0.0114564
0.00274578
-0.0232963
-0.0255587
-0.0267261
-0.0273747
-0.0278093
-0.0281509
-0.0285021
-0.0289387
-0.0295059
-0.0302286
-0.0311187
-0.0321784
-0.0333976
-0.0347471
-0.0361659
-0.0375421
-0.0386911
-0.0393337
-0.0390869
-0.037472
-0.0340182
-0.028344
-0.0203768
-0.0105606
-2.74035e-05
0.0094223
0.0157581
0.0175049
0.013658
0.00302282
-0.0280413
-0.0305959
-0.0318173
-0.0323983
-0.0327254
-0.0329666
-0.0332588
-0.0337008
-0.0343533
-0.0352542
-0.0364293
-0.0378961
-0.0396623
-0.0417166
-0.0440118
-0.0464397
-0.0487987
-0.0507601
-0.0518406
-0.0514
-0.0487566
-0.0432325
-0.034456
-0.0226346
-0.00886554
0.0047144
0.0152903
0.02031
0.0175955
0.00501418
-0.0334856
-0.0364197
-0.0376475
-0.0380459
-0.0381306
-0.0381386
-0.0382513
-0.0385936
-0.0392416
-0.0402452
-0.0416427
-0.0434677
-0.0457463
-0.048487
-0.0516598
-0.0551644
-0.0587893
-0.0621652
-0.0647221
-0.0656697
-0.0641322
-0.0591123
-0.0498889
-0.0363173
-0.0192715
-0.00101804
0.0149259
0.024705
0.0243602
0.0101307
-0.0398333
-0.0432598
-0.0443868
-0.0443994
-0.0440234
-0.0435951
-0.0433501
-0.0434397
-0.0439512
-0.0449414
-0.0464573
-0.0485447
-0.0512451
-0.0545838
-0.0585453
-0.0630363
-0.0678362
-0.072541
-0.0765171
-0.0788812
-0.0784534
-0.0740775
-0.0646576
-0.0496285
-0.029474
-0.00631029
0.0159129
0.0320053
0.0356417
0.0206164
-0.0474529
-0.0514902
-0.0522844
-0.051558
-0.0503791
-0.0492198
-0.0483734
-0.0480096
-0.0482162
-0.0490467
-0.050548
-0.0527696
-0.0557609
-0.0595555
-0.0641434
-0.069429
-0.0751762
-0.0809451
-0.0860365
-0.0894595
-0.0899252
-0.0860116
-0.0763337
-0.0599273
-0.0368021
-0.00866258
0.0205123
0.0444227
0.053991
0.0399369
-0.0570485
-0.0617266
-0.0616943
-0.0596231
-0.0571217
-0.0548246
-0.0530663
-0.0520115
-0.0517262
-0.0522427
-0.0535925
-0.0558164
-0.0589581
-0.063046
-0.0680608
-0.0738893
-0.0802652
-0.0867031
-0.0924396
-0.0963932
-0.0971622
-0.0931346
-0.0826951
-0.0645444
-0.0382281
-0.00487867
0.0319187
0.0652225
0.0831553
0.0733106
-0.0700429
-0.0749838
-0.0730747
-0.0686412
-0.0640594
-0.0600941
-0.0570605
-0.0550663
-0.0541163
-0.0541921
-0.0552876
-0.0574155
-0.0605968
-0.0648365
-0.0700878
-0.0762012
-0.0828629
-0.0895265
-0.0953495
-0.0991546
-0.0994359
-0.0944278
-0.0823276
-0.0615546
-0.0312408
0.00809474
0.0536593
0.0985228
0.128342
0.128189
-0.0894752
-0.0929286
-0.0868937
-0.0784466
-0.0707399
-0.0644679
-0.0597841
-0.0566442
-0.0549262
-0.0545161
-0.0553373
-0.0573499
-0.0605303
-0.064841
-0.0701881
-0.0763676
-0.0830009
-0.089466
-0.0948333
-0.0978279
-0.096828
-0.0898963
-0.0750492
-0.0504241
-0.0147522
0.0320528
0.088467
0.148397
0.195798
0.214023
-0.122047
-0.118218
-0.103469
-0.0884677
-0.0762805
-0.0670099
-0.06038
-0.0560278
-0.0535966
-0.0528096
-0.0534768
-0.0554759
-0.0587183
-0.0631072
-0.0684884
-0.074592
-0.0809659
-0.0869073
-0.0913991
-0.0930714
-0.0901747
-0.0806082
-0.0621328
-0.032521
0.010071
0.066636
0.136865
0.216948
0.291007
0.343173
-0.182992
-0.153512
-0.122369
-0.097333
-0.0790669
-0.0662604
-0.0577119
-0.0524187
-0.049623
-0.0488021
-0.0496146
-0.0518383
-0.055312
-0.0598779
-0.065323
-0.071316
-0.0773393
-0.0826198
-0.0860665
-0.0862277
-0.0812489
-0.0689543
-0.0467332
-0.011856
0.0384215
0.106629
0.194842
0.302194
0.417115
0.543112
-0.315127
-0.193906
-0.134354
-0.0967638
-0.0726046
-0.0575215
-0.0485805
-0.0437183
-0.0416465
-0.0416159
-0.0431855
-0.0460809
-0.0501085
-0.0550854
-0.0607742
-0.0668175
-0.0726715
-0.0775392
-0.0803023
-0.079472
-0.0731047
-0.0590998
-0.0345625
0.00374339
0.0596827
0.13817
0.245872
0.391011
0.579801
0.869647
-0.641377
-0.229466
-0.102365
-0.0612925
-0.0404954
-0.0295909
-0.0251792
-0.0244165
-0.0256713
-0.0282457
-0.0318443
-0.0363176
-0.0415659
-0.0474785
-0.0538746
-0.060444
-0.0666863
-0.0718519
-0.0748883
-0.0744184
-0.0687291
-0.0552788
-0.031499
0.00593502
0.0614565
0.141861
0.259854
0.443612
0.749906
1.34402
)
;

boundaryField
{
    movingWall
    {
        type            zeroGradient;
    }
    fixedWalls
    {
        type            zeroGradient;
    }
    frontAndBack
    {
        type            empty;
    }
}


// ************************************************************************* //
