/*--------------------------------*- C++ -*----------------------------------*\
  =========                 |
  \\      /  F ield         | OpenFOAM: The Open Source CFD Toolbox
   \\    /   O peration     | Website:  https://openfoam.org
    \\  /    A nd           | Version:  7
     \\/     M anipulation  |
\*---------------------------------------------------------------------------*/
FoamFile
{
    version     2.0;
    format      ascii;
    class       surfaceScalarField;
    location    "1.9";
    object      phi;
}
// * * * * * * * * * * * * * * * * * * * * * * * * * * * * * * * * * * * * * //

dimensions      [0 3 -1 0 0 0 0];

internalField   nonuniform List<scalar> 
1740
(
3.25247e-07
-3.25261e-07
-2.57883e-07
5.83136e-07
-1.86632e-06
1.60843e-06
-4.30561e-06
2.4393e-06
-7.31605e-06
3.01044e-06
-1.06607e-05
3.34466e-06
-1.41476e-05
3.48686e-06
-1.76277e-05
3.48009e-06
-2.09846e-05
3.35693e-06
-2.4123e-05
3.13841e-06
-2.69588e-05
2.83578e-06
-2.94121e-05
2.45332e-06
-3.14036e-05
1.99146e-06
-3.28536e-05
1.45001e-06
-3.36848e-05
8.31252e-07
-3.38276e-05
1.42764e-07
-3.32271e-05
-6.00491e-07
-3.18534e-05
-1.37375e-06
-2.9711e-05
-2.14235e-06
-2.68488e-05
-2.86215e-06
-2.33671e-05
-3.48171e-06
-1.94209e-05
-3.94624e-06
-1.52182e-05
-4.20274e-06
-1.10122e-05
-4.20601e-06
-7.08769e-06
-3.92448e-06
-3.74149e-06
-3.3462e-06
-1.25351e-06
-2.48799e-06
1.63785e-07
-1.41729e-06
4.75264e-07
-3.11481e-07
4.75261e-07
-5.74412e-07
2.49156e-07
-3.17532e-06
3.18404e-06
-7.88803e-06
6.32116e-06
-1.43372e-05
8.88844e-06
-2.20434e-05
1.07167e-05
-3.0526e-05
1.18272e-05
-3.93557e-05
1.23166e-05
-4.81702e-05
1.22946e-05
-5.66674e-05
1.18542e-05
-6.45909e-05
1.10618e-05
-7.17134e-05
9.95828e-06
-7.78247e-05
8.56464e-06
-8.27242e-05
6.89104e-06
-8.62203e-05
4.94607e-06
-8.81353e-05
2.74625e-06
-8.83177e-05
3.2519e-07
-8.66574e-05
-2.2608e-06
-8.31065e-05
-4.92469e-06
-7.76998e-05
-7.549e-06
-7.0574e-05
-9.98792e-06
-6.19813e-05
-1.20745e-05
-5.22942e-05
-1.36333e-05
-4.1999e-05
-1.44979e-05
-3.16745e-05
-1.45305e-05
-2.19555e-05
-1.36435e-05
-1.348e-05
-1.18217e-05
-6.81597e-06
-9.15202e-06
-2.36653e-06
-5.86674e-06
-2.61484e-07
-2.41653e-06
2.13777e-07
-1.65431e-06
1.90347e-06
-6.51359e-06
8.04333e-06
-1.42201e-05
1.40276e-05
-2.42243e-05
1.88926e-05
-3.58864e-05
2.23788e-05
-4.85705e-05
2.45113e-05
-6.16956e-05
2.54417e-05
-7.47549e-05
2.53539e-05
-8.73132e-05
2.44125e-05
-9.89928e-05
2.27414e-05
-0.000109457
2.04222e-05
-0.000118395
1.75029e-05
-0.000125516
1.40121e-05
-0.000130547
9.97671e-06
-0.000133239
5.43894e-06
-0.000133389
4.74445e-07
-0.00013085
-4.79998e-06
-0.000125569
-1.02057e-05
-0.000117608
-1.55096e-05
-0.000107171
-2.04243e-05
-9.46221e-05
-2.46238e-05
-8.04872e-05
-2.77683e-05
-6.54468e-05
-2.95383e-05
-5.03029e-05
-2.96744e-05
-3.59256e-05
-2.80207e-05
-2.31792e-05
-2.45681e-05
-1.28278e-05
-1.95035e-05
-5.42839e-06
-1.32662e-05
-1.21272e-06
-6.6322e-06
-9.98945e-07
-2.64508e-06
4.54856e-06
-9.62733e-06
1.50256e-05
-2.01328e-05
2.45331e-05
-3.33513e-05
3.21111e-05
-4.84759e-05
3.75034e-05
-6.47437e-05
4.07791e-05
-8.14648e-05
4.21627e-05
-9.80331e-05
4.19223e-05
-0.000113922
4.0301e-05
-0.000128667
3.74871e-05
-0.000141854
3.36091e-05
-0.000153098
2.87472e-05
-0.00016204
2.29541e-05
-0.000168344
1.62805e-05
-0.000171707
8.80166e-06
-0.000171877
6.44668e-07
-0.000168679
-7.99818e-06
-0.000162046
-1.68388e-05
-0.000152052
-2.55034e-05
-0.000138944
-3.35329e-05
-0.00012316
-4.04075e-05
-0.000105342
-4.55867e-05
-8.63164e-05
-4.85634e-05
-6.70613e-05
-4.89296e-05
-4.86362e-05
-4.64458e-05
-3.20961e-05
-4.11082e-05
-1.83855e-05
-3.3214e-05
-8.23233e-06
-2.34193e-05
-2.06232e-06
-1.28022e-05
-3.06126e-06
-3.49035e-06
8.03891e-06
-1.23854e-05
2.39206e-05
-2.54424e-05
3.75901e-05
-4.15724e-05
4.82412e-05
-5.97898e-05
5.57208e-05
-7.92105e-05
6.01998e-05
-9.90556e-05
6.20078e-05
-0.000118647
6.15138e-05
-0.000137395
5.90489e-05
-0.000154779
5.48709e-05
-0.000170328
4.9158e-05
-0.000183605
4.20242e-05
-0.000194197
3.35464e-05
-0.000201716
2.37994e-05
-0.000205807
1.28924e-05
-0.000206168
1.00642e-06
-0.000202583
-1.15835e-05
-0.000194952
-2.44693e-05
-0.000183338
-3.71178e-05
-0.000167999
-4.88719e-05
-0.000149422
-5.89847e-05
-0.000128333
-6.66752e-05
-0.000105688
-7.12082e-05
-8.2628e-05
-7.19902e-05
-6.04025e-05
-6.86712e-05
-4.02702e-05
-6.12405e-05
-2.33793e-05
-5.01049e-05
-1.06579e-05
-3.61408e-05
-2.74192e-06
-2.07182e-05
-5.80319e-06
-4.20695e-06
1.22459e-05
-1.48027e-05
3.45164e-05
-3.01714e-05
5.29588e-05
-4.89548e-05
6.70246e-05
-6.99863e-05
7.67522e-05
-9.22629e-05
8.24765e-05
-0.000114927
8.46718e-05
-0.000137245
8.38316e-05
-0.000158584
8.0388e-05
-0.000178387
7.46737e-05
-0.000196146
6.69179e-05
-0.000211388
5.72657e-05
-0.000223655
4.58137e-05
-0.00023251
3.2654e-05
-0.000237541
1.79232e-05
-0.000238385
1.8504e-06
-0.00023476
-1.52084e-05
-0.000226508
-3.27216e-05
-0.000213643
-4.99827e-05
-0.000196402
-6.61122e-05
-0.000175289
-8.00976e-05
-0.000151096
-9.08684e-05
-0.0001249
-9.74042e-05
-9.80198e-05
-9.88704e-05
-7.19298e-05
-9.47613e-05
-4.81378e-05
-8.50325e-05
-2.80449e-05
-7.01978e-05
-1.2815e-05
-5.13707e-05
-3.29088e-06
-3.02423e-05
-9.09408e-06
-4.82919e-06
1.70751e-05
-1.69524e-05
4.66396e-05
-3.44353e-05
7.04417e-05
-5.5671e-05
8.82603e-05
-7.93177e-05
0.000100399
-0.000104258
0.000107416
-0.000129562
0.000109976
-0.000154452
0.000108722
-0.00017827
0.000104206
-0.000200437
9.68405e-05
-0.000220425
8.69062e-05
-0.000237733
7.45736e-05
-0.000251868
5.99483e-05
-0.00026234
4.31266e-05
-0.000268673
2.42563e-05
-0.000270423
3.59942e-06
-0.000267212
-1.84193e-05
-0.000258784
-4.11498e-05
-0.000245061
-6.37052e-05
-0.000226214
-8.49588e-05
-0.000202724
-0.000103588
-0.000175425
-0.000118168
-0.000145516
-0.000127313
-0.000114525
-0.000129862
-8.4206e-05
-0.00012508
-5.63927e-05
-0.000112846
-3.28155e-05
-9.37751e-05
-1.49278e-05
-6.92584e-05
-3.78451e-06
-4.13856e-05
-1.28786e-05
-5.39142e-06
2.24665e-05
-1.89223e-05
6.01705e-05
-3.83804e-05
8.98998e-05
-6.19311e-05
0.000111811
-8.80673e-05
0.000126535
-0.000115563
0.000134912
-0.000143424
0.000137837
-0.000170842
0.000136141
-0.000197144
0.000130507
-0.000221744
0.000121441
-0.000244111
0.000109272
-0.000263725
9.41877e-05
-0.000280063
7.62864e-05
-0.000292584
5.56476e-05
-0.000300732
3.2405e-05
-0.000303959
6.82599e-06
-0.000301758
-2.06205e-05
-0.000293723
-4.91843e-05
-0.000279629
-7.77994e-05
-0.000259517
-0.000105071
-0.00023379
-0.000129315
-0.000203288
-0.00014867
-0.000169329
-0.000161271
-0.000133683
-0.000165508
-9.84606e-05
-0.000160302
-6.59283e-05
-0.000145378
-3.82592e-05
-0.000121444
-1.72858e-05
-9.02318e-05
-4.31097e-06
-5.43604e-05
-1.71896e-05
-5.92252e-06
2.8389e-05
-2.07947e-05
7.50426e-05
-4.21503e-05
0.000111255
-6.79418e-05
0.000137602
-9.6506e-05
0.000155099
-0.000126516
0.000164922
-0.000156924
0.000168245
-0.0001869
0.000166117
-0.000215772
0.000159379
-0.000242966
0.000148635
-0.000267957
0.000134263
-0.000290224
0.000116455
-0.000309222
9.52841e-05
-0.000324357
7.07826e-05
-0.000334986
4.3034e-05
-0.00034043
1.22698e-05
-0.000340012
-2.10379e-05
-0.000333122
-5.6075e-05
-0.000319309
-9.16125e-05
-0.000298404
-0.000125976
-0.000270651
-0.000157068
-0.000236836
-0.000182485
-0.000198369
-0.000199738
-0.000157292
-0.000206585
-0.000116166
-0.000201429
-7.78303e-05
-0.000183714
-4.50671e-05
-0.000154207
-2.02331e-05
-0.000115066
-4.96826e-06
-6.96252e-05
-2.21578e-05
-6.44531e-06
3.48343e-05
-2.26394e-05
9.12367e-05
-4.58701e-05
0.000134486
-7.38838e-05
0.000165616
-0.000104867
0.000186083
-0.0001374
0.000197455
-0.00017039
0.000201235
-0.000203001
0.000198728
-0.000234577
0.000190955
-0.000264574
0.000178632
-0.000292494
0.000162184
-0.000317834
0.000141795
-0.000340036
0.000117487
-0.000358464
8.92101e-05
-0.00037238
5.69502e-05
-0.000380956
2.08457e-05
-0.000383304
-1.86895e-05
-0.00037854
-6.08394e-05
-0.000365902
-0.00010425
-0.000344903
-0.000146975
-0.000315512
-0.000186459
-0.000278358
-0.000219639
-0.000234884
-0.000243212
-0.000187413
-0.000254056
-0.000139052
-0.00024979
-9.3397e-05
-0.000229368
-5.40705e-05
-0.000193534
-2.41805e-05
-0.000144956
-5.86967e-06
-8.7936e-05
-2.80275e-05
-6.97735e-06
4.18116e-05
-2.45129e-05
0.000108772
-4.96429e-05
0.000159616
-7.99043e-05
0.000195878
-0.000113335
0.000219513
-0.000148426
0.000232546
-0.000184053
0.000236862
-0.000219387
0.000234062
-0.00025381
0.000225378
-0.000286828
0.00021165
-0.000317996
0.000193352
-0.000346849
0.000170648
-0.000372845
0.000143482
-0.000395315
0.00011168
-0.000413436
7.5071e-05
-0.000426216
3.36253e-05
-0.000432526
-1.23794e-05
-0.000431131
-6.22337e-05
-0.000420865
-0.000114516
-0.000400786
-0.000167055
-0.000370436
-0.000216808
-0.000330133
-0.000259942
-0.000281235
-0.00029211
-0.000226311
-0.00030898
-0.000169095
-0.000307006
-0.000114154
-0.000284309
-6.6264e-05
-0.000241424
-2.96231e-05
-0.000181597
-7.15132e-06
-0.000110408
-3.51788e-05
-7.53243e-06
4.93441e-05
-2.64609e-05
0.000127701
-5.35511e-05
0.000186706
-8.61174e-05
0.000228444
-0.000122042
0.000255438
-0.000159732
0.000270236
-0.00019804
0.000275169
-0.00023616
0.000272183
-0.000273535
0.000262753
-0.000309748
0.000247863
-0.000344435
0.000228038
-0.000377201
0.000203415
-0.00040755
0.000173831
-0.000434813
0.000138943
-0.000458096
9.8354e-05
-0.000476243
5.17727e-05
-0.000487883
-7.39309e-07
-0.000491345
-5.87722e-05
-0.000484973
-0.000120889
-0.000467218
-0.00018481
-0.000437003
-0.000247023
-0.00039412
-0.000302825
-0.000339651
-0.000346579
-0.000276291
-0.00037234
-0.000208431
-0.000374866
-0.000141829
-0.000350911
-8.28134e-05
-0.00030044
-3.71546e-05
-0.000227255
-8.97887e-06
-0.000138584
-4.41577e-05
-8.12252e-06
5.74666e-05
-2.85231e-05
0.000148101
-5.76644e-05
0.000215848
-9.26118e-05
0.000263391
-0.000131079
0.000293905
-0.000171388
0.000310545
-0.000212374
0.000316155
-0.000253277
0.000313086
-0.00029362
0.000303096
-0.000333092
0.000287335
-0.000371444
0.00026639
-0.000408392
0.000240362
-0.000443523
0.000208962
-0.00047621
0.00017163
-0.00050553
0.000127674
-0.000530204
7.64471e-05
-0.000548524
1.75806e-05
-0.000558508
-4.87888e-05
-0.000557831
-0.000121565
-0.000544211
-0.00019843
-0.00051574
-0.000275494
-0.000471417
-0.000347148
-0.000411755
-0.000406241
-0.000339339
-0.000444755
-0.000259131
-0.000455074
-0.000178248
-0.000431795
-0.000105028
-0.00037366
-4.74701e-05
-0.000284813
-1.15523e-05
-0.000174501
-5.571e-05
-8.76046e-06
6.6227e-05
-3.07409e-05
0.000170082
-6.20508e-05
0.000247158
-9.94658e-05
0.000300806
-0.000140508
0.000334948
-0.000183405
0.000353442
-0.000226988
0.000359738
-0.000270554
0.000356652
-0.00031373
0.000346272
-0.000356341
0.000329946
-0.000398287
0.000308337
-0.000439434
0.000281509
-0.000479501
0.00024903
-0.000517957
0.000210086
-0.000553903
0.00016362
-0.000585977
0.000108521
-0.000612267
4.38708e-05
-0.000630344
-3.07123e-05
-0.000637274
-0.000114635
-0.000629922
-0.000205782
-0.000605354
-0.000300062
-0.000561477
-0.000391025
-0.000497849
-0.000469869
-0.000416543
-0.000526062
-0.000322803
-0.000548814
-0.000225118
-0.000529479
-0.000134283
-0.000464495
-6.13553e-05
-0.000357741
-1.51093e-05
-0.000220747
-7.08192e-05
-9.46371e-06
7.56908e-05
-3.31679e-05
0.000193786
-6.67941e-05
0.000280784
-0.000106768
0.00034078
-0.000150383
0.000378563
-0.000195764
0.000398823
-0.000241739
0.000405712
-0.000287679
0.000402592
-0.000333337
0.00039193
-0.000378696
0.000375305
-0.000423837
0.000353477
-0.000468812
0.000326484
-0.000513525
0.000293742
-0.000557596
0.000254157
-0.000600229
0.000206253
-0.000640066
0.000148358
-0.000675066
7.887e-05
-0.000702459
-3.31887e-06
-0.000718732
-9.83618e-05
-0.000719894
-0.000204619
-0.000701861
-0.000318095
-0.000661172
-0.000431715
-0.000595982
-0.000535058
-0.000507266
-0.000614778
-0.000399976
-0.000656105
-0.000283667
-0.000645788
-0.000171868
-0.000576294
-7.9656e-05
-0.000449953
-1.9929e-05
-0.000280474
-9.07482e-05
-1.02597e-05
8.59505e-05
-3.58848e-05
0.000219411
-7.20167e-05
0.000316916
-0.000114643
0.000383406
-0.000160781
0.000424702
-0.000208436
0.000446478
-0.000256435
0.000453712
-0.000304237
0.000450394
-0.000351736
0.000439429
-0.000399092
0.000422661
-0.000446587
0.000400972
-0.00049449
0.000374387
-0.000542927
0.000342179
-0.000591734
0.000302965
-0.000640299
0.000254819
-0.000687386
0.000195444
-0.000730966
0.00012245
-0.000768075
3.37909e-05
-0.000794833
-7.16038e-05
-0.000806489
-0.000192963
-0.000797837
-0.000326748
-0.000763885
-0.000465667
-0.00070095
-0.000597993
-0.00060817
-0.000707558
-0.000489275
-0.000775
-0.000354092
-0.000780971
-0.000218735
-0.000711651
-0.000103219
-0.000565469
-2.63361e-05
-0.000357358
-0.000117084
-1.11936e-05
9.7144e-05
-3.90201e-05
0.000247237
-7.79103e-05
0.000355806
-0.000123289
0.000428785
-0.000171837
0.000473249
-0.000221417
0.000496057
-0.000270864
0.000503159
-0.000319735
0.000499266
-0.000368078
0.000487772
-0.00041624
0.000470822
-0.000464708
0.000449441
-0.000513982
0.000423661
-0.000564435
0.000392632
-0.00061617
0.000354699
-0.000668842
0.000307491
-0.000721469
0.000248072
-0.000772223
0.000173204
-0.000818238
7.98057e-05
-0.000855492
-3.43499e-05
-0.000878833
-0.000169622
-0.000882159
-0.000323422
-0.000858988
-0.000488838
-0.000803505
-0.000653476
-0.000712243
-0.000798819
-0.000586461
-0.000900782
-0.000434819
-0.000932612
-0.000275104
-0.000871366
-0.000132784
-0.000707789
-3.47029e-05
-0.000455439
-0.000151787
-1.23404e-05
0.000109484
-4.27801e-05
0.000277677
-8.47768e-05
0.000397803
-0.00013302
0.000477027
-0.000183774
0.000524003
-0.000234751
0.000547035
-0.000284809
0.000553216
-0.000333621
0.000548078
-0.000381398
0.00053555
-0.000428672
0.000518096
-0.000476133
0.000496901
-0.000524499
0.000472027
-0.000574396
0.00044253
-0.00062622
0.000406523
-0.00067997
0.000361241
-0.000735054
0.000303155
-0.000790061
0.000228211
-0.000842541
0.000132286
-0.000888732
1.18402e-05
-0.000923593
-0.00013476
-0.000940589
-0.000306427
-0.000932103
-0.000497323
-0.000890193
-0.000695386
-0.000808201
-0.000880811
-0.000683534
-0.00102545
-0.000521611
-0.00109454
-0.000339878
-0.0010531
-0.000168784
-0.000878883
-4.54418e-05
-0.000578781
-0.000197229
-1.38252e-05
0.00012331
-4.7494e-05
0.000311346
-9.30838e-05
0.000443392
-0.000144309
0.000528252
-0.00019694
0.000576634
-0.000248547
0.000598642
-0.00029805
0.000602719
-0.000345277
0.000595305
-0.000390618
0.000580891
-0.000434787
0.000562265
-0.000478653
0.000540767
-0.000523132
0.000516507
-0.000569084
0.000488481
-0.000617199
0.000454638
-0.000667867
0.000411909
-0.000720998
0.000356286
-0.000775812
0.000283026
-0.000830584
0.000187058
-0.000882396
6.36526e-05
-0.000926733
-9.04239e-05
-0.000957466
-0.000275694
-0.00096651
-0.00048828
-0.000944247
-0.000717649
-0.000880702
-0.000944357
-0.000768282
-0.00113787
-0.000606731
-0.00125609
-0.000409901
-0.00124993
-0.000211027
-0.00107776
-5.89818e-05
-0.000730826
-0.000256211
-1.58576e-05
0.000139167
-5.36847e-05
0.000349173
-0.000103538
0.000493246
-0.000157842
0.000582555
-0.000211812
0.000630605
-0.000262941
0.000649772
-0.0003103
0.000650078
-0.000353941
0.000638946
-0.000394474
0.000621424
-0.000432795
0.000600586
-0.000469938
0.00057791
-0.00050698
0.000553548
-0.000544977
0.000526478
-0.000584896
0.000494557
-0.000627525
0.000454538
-0.000673349
0.000402109
-0.000722371
0.000332048
-0.000773886
0.000238573
-0.00082618
0.000115947
-0.000875976
-4.06286e-05
-0.000918361
-0.000233308
-0.000945733
-0.000460908
-0.000947781
-0.0007156
-0.0009118
-0.000980338
-0.000824768
-0.0012249
-0.000678554
-0.0014023
-0.000479222
-0.00144926
-0.000258263
-0.00129872
-7.57317e-05
-0.000913358
-0.000331943
-1.87971e-05
0.000157964
-6.21807e-05
0.000392557
-0.000117184
0.000548249
-0.000174547
0.000639919
-0.000228948
0.000685005
-0.000277966
0.00069879
-0.000321003
0.000693115
-0.000358465
0.000676408
-0.000391255
0.000654213
-0.000420484
0.000629815
-0.00044734
0.000604767
-0.000473033
0.000579242
-0.000498776
0.000552221
-0.00052577
0.000521551
-0.000555173
0.000483942
-0.000588046
0.000434982
-0.000625239
0.000369241
-0.000667211
0.000280545
-0.000713767
0.000162504
-0.000763338
8.94203e-06
-0.000813016
-0.00018363
-0.000856757
-0.000417167
-0.000884976
-0.000687381
-0.000883659
-0.000981654
-0.000835086
-0.00127347
-0.000722085
-0.0015153
-0.000538658
-0.00163269
-0.000307677
-0.0015297
-9.60366e-05
-0.001125
-0.000427979
-2.3276e-05
0.00018124
-7.42964e-05
0.000443577
-0.000135509
0.000609462
-0.00019556
0.00069997
-0.000248784
0.000738229
-0.000293206
0.000743213
-0.00032887
0.000728779
-0.000356758
0.000704296
-0.000378194
0.000675649
-0.00039457
0.000646191
-0.000407249
0.000617446
-0.000417562
0.000589555
-0.00042684
0.000561499
-0.000436463
0.000531173
-0.000447895
0.000495374
-0.000462705
0.000449791
-0.000482531
0.000389067
-0.000508977
0.000306992
-0.000543352
0.000196878
-0.000586496
5.20862e-05
-0.000637281
-0.000132845
-0.000692646
-0.000361802
-0.000745233
-0.000634794
-0.000781826
-0.000945062
-0.00078211
-0.00127319
-0.000720533
-0.00157688
-0.000575977
-0.00177724
-0.000354415
-0.00175126
-0.000120115
-0.0013593
-0.000548094
-3.04353e-05
0.000211676
-9.21023e-05
0.000505244
-0.000160506
0.000677865
-0.000221966
0.00076143
-0.000271073
0.000787335
-0.000306969
0.000779109
-0.000330851
0.000752661
-0.000344606
0.00071805
-0.000350176
0.00068122
-0.00034934
0.000645355
-0.00034368
0.000611786
-0.00033465
0.000580525
-0.000323669
0.000550518
-0.00031223
0.000519734
-0.000302006
0.00048515
-0.000294941
0.000442726
-0.000293301
0.000387427
-0.000299654
0.000313344
-0.000316734
0.000213958
-0.000347173
8.25255e-05
-0.000392625
-8.73937e-05
-0.000453037
-0.00030139
-0.000524707
-0.000563124
-0.000597629
-0.00087214
-0.000652202
-0.00121862
-0.000657438
-0.00157164
-0.000576664
-0.00185802
-0.000391166
-0.00193676
-0.000147875
-0.00160259
-0.000695969
-4.23648e-05
0.00025404
-0.000118753
0.000581633
-0.000194441
0.000753553
-0.000253915
0.000820904
-0.00029342
0.00082684
-0.000314387
0.000800076
-0.000319925
0.000758199
-0.000313267
0.000711392
-0.000297216
0.000665168
-0.000274049
0.000622188
-0.000245615
0.000583352
-0.00021348
0.00054839
-0.000179102
0.00051614
-0.000143999
0.00048463
-0.000109919
0.00045107
-7.90017e-05
0.000411809
-5.39001e-05
0.000362326
-3.7846e-05
0.00029729
-3.46025e-05
0.000210715
-4.82776e-05
9.62007e-05
-8.28894e-05
-5.27819e-05
-0.000141538
-0.000242741
-0.000224879
-0.000479783
-0.000328152
-0.000768867
-0.000436328
-0.00111044
-0.000518139
-0.00148983
-0.000524643
-0.00185151
-0.000407562
-0.00205384
-0.000178292
-0.00183186
-0.000874262
-6.28657e-05
0.000316906
-0.000158581
0.000677348
-0.000238485
0.000833457
-0.000287877
0.000870296
-0.000307544
0.000846508
-0.000303048
0.00079558
-0.00028041
0.000735561
-0.000244684
0.000675667
-0.000199716
0.0006202
-0.000148318
0.00057079
-9.25494e-05
0.000527584
-3.40023e-05
0.000489843
2.59471e-05
0.000456191
8.59012e-05
0.000424676
0.000144217
0.000392754
0.000198797
0.000357229
0.000246902
0.00031422
0.000285013
0.00025918
0.000308759
0.000186968
0.000312972
9.19884e-05
0.0002919
-3.17106e-05
0.000239868
-0.000190708
0.000152027
-0.000391942
2.69267e-05
-0.000643767
-0.000128417
-0.000955098
-0.000289216
-0.00132903
-0.000401644
-0.00173908
-0.000388586
-0.0020669
-0.000207666
-0.00201278
-0.00108193
-9.83999e-05
0.000415306
-0.000215461
0.000794408
-0.000287439
0.000905436
-0.000308719
0.000891576
-0.000289912
0.0008277
-0.000243171
0.00074884
-0.000178352
0.000670741
-0.000102489
0.000599804
-2.02897e-05
0.000538001
6.52031e-05
0.000485297
0.000152032
0.000440755
0.000238881
0.000402994
0.000324723
0.000370349
0.000408528
0.000340871
0.000489002
0.00031228
0.000564343
0.000281888
0.000632019
0.000246544
0.000688578
0.000202621
0.000729507
0.000146039
0.00074915
7.23456e-05
0.00074069
-2.32506e-05
0.000696739
-0.000146758
0.000609073
-0.000304276
0.00047042
-0.000505113
0.000278304
-0.000762982
4.52828e-05
-0.00109601
-0.000183425
-0.00151038
-0.000310701
-0.00193962
-0.000226462
-0.00209702
-0.00130839
-0.000157561
0.000572867
-0.000282567
0.000919415
-0.000311487
0.000934355
-0.0002678
0.00084789
-0.000179615
0.000739514
-6.72874e-05
0.000636513
5.60703e-05
0.000547383
0.000182644
0.00047323
0.000308085
0.00041256
0.000430163
0.000363219
0.000547852
0.000323065
0.000660737
0.00029011
0.000768609
0.000262476
0.000871164
0.000238316
0.000967741
0.000215703
0.00105709
0.000192538
0.00113715
0.000166484
0.00120484
0.000134928
0.00125589
9.49885e-05
0.00128464
4.35999e-05
0.00128399
-2.2599e-05
0.00124557
-0.00010834
0.00115919
-0.000217894
0.00101336
-0.000359283
0.000796667
-0.000546291
0.000504819
-0.000804162
0.000163707
-0.00116927
-0.000133231
-0.00164268
-0.00021496
-0.00201529
-0.00152335
-0.000238931
0.000811797
-0.00029522
0.000975705
-0.000198592
0.000837727
-2.86712e-05
0.000677969
0.000166523
0.00054432
0.000363977
0.000439058
0.000553083
0.000358277
0.000729531
0.000296783
0.000892294
0.000249796
0.00104192
0.000213594
0.00117958
0.000185405
0.00130657
0.000163118
0.00142402
0.000145032
0.00153265
0.000129682
0.00163265
0.0001157
0.00172348
0.000101716
0.00180367
8.62905e-05
0.00187072
6.78778e-05
0.00192086
4.48448e-05
0.00194892
1.55437e-05
0.00194849
-2.21663e-05
0.00191072
-7.05707e-05
0.00182516
-0.000132332
0.00167837
-0.000212493
0.00145306
-0.000320986
0.00112902
-0.00048012
0.000697715
-0.000737963
0.000220294
-0.00116526
-9.67554e-05
-0.00169824
-0.0016201
-0.000187862
0.000999659
3.34577e-05
0.000754385
0.000392624
0.000478561
0.000733421
0.000337172
0.0010332
0.000244538
0.00129187
0.000180393
0.00151361
0.000136535
0.00170394
0.000106451
0.00186837
8.53688e-05
0.00201172
7.024e-05
0.00213798
5.9145e-05
0.0022503
5.08048e-05
0.00235102
4.43063e-05
0.00244176
3.89456e-05
0.00252333
3.41283e-05
0.00259574
2.93046e-05
0.0026581
2.39316e-05
0.00270852
1.74585e-05
0.00274399
9.36896e-06
0.00276016
-6.1995e-07
0.0027525
-1.45121e-05
0.00271289
-3.09585e-05
0.00263268
-5.21159e-05
0.00249959
-7.94056e-05
0.00229535
-0.000116742
0.00199019
-0.000174966
0.0015386
-0.000286369
0.000917268
-0.00054393
0.000259343
-0.00104032
-0.00136076
0.000999659
0.00175404
0.00223261
0.00256978
0.00281432
0.00299471
0.00313124
0.00323769
0.00332306
0.0033933
0.00345245
0.00350325
0.00354756
0.0035865
0.00362063
0.00364994
0.00367387
0.00369133
0.0037007
0.00370008
0.00368556
0.00365461
0.00360249
0.00352308
0.00340634
0.00323138
0.00294501
0.00240108
0.00136076
)
;

boundaryField
{
    movingWall
    {
        type            calculated;
        value           uniform 0;
    }
    fixedWalls
    {
        type            calculated;
        value           uniform 0;
    }
    frontAndBack
    {
        type            empty;
        value           nonuniform 0();
    }
}


// ************************************************************************* //
