/*--------------------------------*- C++ -*----------------------------------*\
  =========                 |
  \\      /  F ield         | OpenFOAM: The Open Source CFD Toolbox
   \\    /   O peration     | Website:  https://openfoam.org
    \\  /    A nd           | Version:  7
     \\/     M anipulation  |
\*---------------------------------------------------------------------------*/
FoamFile
{
    version     2.0;
    format      ascii;
    class       volScalarField;
    location    "7.3";
    object      p;
}
// * * * * * * * * * * * * * * * * * * * * * * * * * * * * * * * * * * * * * //

dimensions      [0 2 -2 0 0 0 0];

internalField   nonuniform List<scalar> 
900
(
7.05032e-07
-0.00033978
-0.000894637
-0.00148746
-0.00201302
-0.00240837
-0.00264124
-0.00269623
-0.00256442
-0.00223887
-0.00171419
-0.00098881
-6.87127e-05
0.00102842
0.00226966
0.00360481
0.00496667
0.00627423
0.00743912
0.00837483
0.00900791
0.00928933
0.00920431
0.00877821
0.00807793
0.00720633
0.00629051
0.00548802
0.00495304
0.00481288
0.000339639
-1.37537e-05
-0.000437315
-0.000871994
-0.00125489
-0.0015408
-0.00170434
-0.00173085
-0.00161011
-0.00133405
-0.000896738
-0.000296113
0.000463237
0.00136692
0.00238783
0.00348445
0.00460306
0.00567647
0.0066325
0.00740086
0.00792242
0.00815886
0.00810054
0.00777088
0.0072263
0.00655138
0.00584877
0.00522134
0.00479861
0.00467046
0.000916793
0.000395721
-4.23922e-05
-0.000431911
-0.000759458
-0.000997967
-0.00113275
-0.00115486
-0.0010561
-0.000828185
-0.000463612
4.23993e-05
0.00068905
0.00146678
0.00235443
0.0033179
0.00430866
0.00526684
0.00612597
0.00682013
0.00729305
0.00750765
0.00745374
0.00715219
0.00665417
0.00603535
0.00538599
0.00479881
0.00436563
0.00415233
0.00155721
0.000810547
0.000294967
-0.000105674
-0.000424106
-0.000650985
-0.00078387
-0.000821545
-0.000758986
-0.000587768
-0.000297831
0.000119932
0.000670326
0.00135015
0.00214474
0.00302553
0.00394858
0.00485653
0.00568305
0.00636
0.00682718
0.00704252
0.00699086
0.00668869
0.00618346
0.00554703
0.00486561
0.00422848
0.00370708
0.00333647
0.00212255
0.00113337
0.000517779
8.05704e-05
-0.000254218
-0.000493513
-0.00064667
-0.000720006
-0.000711356
-0.000611494
-0.00040678
-8.24515e-05
0.000373354
0.000965115
0.0016855
0.00251177
0.00340421
0.00430588
0.00514754
0.00585478
0.00635845
0.00660633
0.00657356
0.00626903
0.00573557
0.00504325
0.00427946
0.00353731
0.00287858
0.00229888
0.00249516
0.00126609
0.000541925
5.25538e-05
-0.000318104
-0.00059159
-0.000787767
-0.000919359
-0.000986049
-0.000976765
-0.000873112
-0.000653308
-0.000296934
0.000209709
0.00086802
0.00166213
0.00255681
0.00349481
0.00440215
0.00519467
0.00578938
0.00611799
0.00613982
0.00585108
0.00528707
0.00451655
0.00363242
0.00273928
0.00189697
0.0010694
0.00257272
0.00111858
0.000286135
-0.000264421
-0.000686247
-0.00101405
-0.00127674
-0.00149202
-0.00166015
-0.00176703
-0.00178822
-0.00169347
-0.00145207
-0.00103908
-0.000442244
0.000331475
0.00125391
0.00226769
0.00329365
0.00423533
0.00499104
0.0054694
0.0056058
0.00537588
0.00480185
0.00394939
0.00292014
0.00183799
0.000769579
-0.00034797
0.00226494
0.000608114
-0.000326719
-0.000943316
-0.00142908
-0.00183079
-0.00218505
-0.00251319
-0.00281488
-0.00307186
-0.00325244
-0.00331635
-0.00322059
-0.00292636
-0.00240734
-0.00165812
-0.000694339
0.000427664
0.0016253
0.00278875
0.00379304
0.00451569
0.00485739
0.00476171
0.00422806
0.00331388
0.00213072
0.000829529
-0.000507489
-0.00196768
0.00149154
-0.000340152
-0.00136836
-0.00205412
-0.0026161
-0.00311228
-0.00358592
-0.00406096
-0.00453562
-0.00498667
-0.00537416
-0.00564635
-0.00574568
-0.0056163
-0.00521257
-0.0045085
-0.00351279
-0.00226386
-0.000846
0.000618027
0.00197657
0.00306736
0.00374293
0.00389853
0.00349528
0.00257169
0.00124705
-0.000293594
-0.00194351
-0.00381401
0.000183289
-0.00179079
-0.00290156
-0.00365932
-0.0043105
-0.00492359
-0.00554781
-0.00620915
-0.00690405
-0.007604
-0.00826027
-0.00880842
-0.00917409
-0.00928065
-0.00905841
-0.00845583
-0.00745703
-0.00608271
-0.00440905
-0.00256654
-0.000734129
0.000878376
0.00205984
0.0026357
0.00250543
0.00166962
0.000246819
-0.00153869
-0.00354636
-0.005912
-0.00171524
-0.00379502
-0.00497632
-0.00580905
-0.00656328
-0.00731742
-0.00812632
-0.00901798
-0.00998737
-0.0110011
-0.0120017
-0.0129115
-0.0136373
-0.0140781
-0.0141344
-0.0137216
-0.0127864
-0.0113215
-0.00938246
-0.00709763
-0.00466877
-0.00235756
-0.000454137
0.000771031
0.00112315
0.000533888
-0.000897993
-0.00290898
-0.00531548
-0.00827841
-0.00424198
-0.00638735
-0.0076261
-0.00853656
-0.0094076
-0.0103271
-0.0113556
-0.0125236
-0.0138256
-0.0152246
-0.0166553
-0.0180267
-0.019226
-0.0201246
-0.0205879
-0.0204887
-0.0197259
-0.0182498
-0.0160775
-0.0133192
-0.0101877
-0.00699379
-0.0041176
-0.00195313
-0.000831105
-0.000935141
-0.00222176
-0.00439901
-0.00723365
-0.0109115
-0.0074139
-0.00958271
-0.0108647
-0.0118541
-0.0128534
-0.0139596
-0.0152393
-0.0167268
-0.0184179
-0.0202737
-0.0222228
-0.0241624
-0.0259599
-0.0274572
-0.0284804
-0.0288517
-0.0284095
-0.027055
-0.024737
-0.0215278
-0.0176306
-0.0133911
-0.00928032
-0.00583865
-0.00357946
-0.00286457
-0.00376427
-0.00598863
-0.0092565
-0.0137784
-0.0112243
-0.0133745
-0.0146841
-0.0157502
-0.0168834
-0.0181897
-0.0197432
-0.0215834
-0.0237098
-0.0260842
-0.0286318
-0.03124
-0.0337576
-0.0359976
-0.0377439
-0.0387664
-0.0388429
-0.0377733
-0.0354552
-0.0318883
-0.0272341
-0.021845
-0.0162669
-0.0111949
-0.00736789
-0.00540128
-0.00556539
-0.00763371
-0.0112984
-0.0167977
-0.015642
-0.0177347
-0.0190544
-0.0201885
-0.0214505
-0.0229564
-0.0247892
-0.0269965
-0.0295839
-0.0325172
-0.0357213
-0.0390764
-0.0424158
-0.0455249
-0.0481468
-0.0499952
-0.0507749
-0.0502085
-0.0480942
-0.0443391
-0.0390298
-0.0324843
-0.0252861
-0.0182686
-0.0124205
-0.00868699
-0.00765057
-0.00925154
-0.0132134
-0.0198169
-0.0206125
-0.0226164
-0.0239266
-0.0251097
-0.0264789
-0.028162
-0.0302541
-0.032814
-0.035857
-0.039356
-0.0432384
-0.0473809
-0.051604
-0.0556694
-0.0592828
-0.0621046
-0.0637684
-0.0639093
-0.0622291
-0.0585161
-0.0527484
-0.0451609
-0.0363174
-0.0271415
-0.0188616
-0.0128081
-0.010001
-0.0106977
-0.0147686
-0.0225818
-0.026063
-0.0279592
-0.0292375
-0.0304363
-0.0318677
-0.0336755
-0.0359721
-0.0388322
-0.0422847
-0.0463124
-0.0508484
-0.0557682
-0.0608828
-0.0659339
-0.0705949
-0.0744789
-0.0771553
-0.0781756
-0.0771472
-0.0737296
-0.0677675
-0.0593672
-0.0490045
-0.0376152
-0.0266105
-0.0177171
-0.0125029
-0.0117308
-0.0156096
-0.0246976
-0.0319095
-0.0336988
-0.0349192
-0.0360801
-0.037497
-0.0393381
-0.0417418
-0.0448048
-0.0485742
-0.0530455
-0.0581589
-0.0637905
-0.0697436
-0.0757435
-0.081436
-0.0863945
-0.0901376
-0.0921566
-0.0919228
-0.0890194
-0.083139
-0.0742244
-0.0625997
-0.0491181
-0.0352725
-0.0231323
-0.0148741
-0.0119616
-0.0152153
-0.0255789
-0.038069
-0.0397802
-0.0409109
-0.0419518
-0.0432364
-0.0449722
-0.0473362
-0.0504569
-0.0544039
-0.0591877
-0.0647553
-0.0709829
-0.0776663
-0.0845157
-0.0911532
-0.0971196
-0.101889
-0.104891
-0.105536
-0.103289
-0.0977083
-0.0885681
-0.0759978
-0.0606805
-0.0440631
-0.0284392
-0.0165727
-0.010785
-0.0128406
-0.0243874
-0.0444757
-0.0461761
-0.0471737
-0.0479719
-0.048953
-0.0503886
-0.0525141
-0.0555012
-0.0594468
-0.0643761
-0.070241
-0.076914
-0.0841812
-0.0917359
-0.0991782
-0.10602
-0.111698
-0.115596
-0.117068
-0.115489
-0.110303
-0.101123
-0.0878724
-0.071007
-0.0518067
-0.0326274
-0.0167073
-0.00729622
-0.00744392
-0.0199484
-0.0511067
-0.0529131
-0.0537092
-0.0540802
-0.0545167
-0.0553937
-0.0570308
-0.0596553
-0.0633944
-0.0682847
-0.074277
-0.0812335
-0.088924
-0.097021
-0.1051
-0.112645
-0.119059
-0.123684
-0.125828
-0.124791
-0.119928
-0.110713
-0.0968813
-0.0786434
-0.0570313
-0.0342987
-0.0139743
-0.000199631
0.00240254
-0.0106307
-0.0580263
-0.0601103
-0.0605807
-0.0602428
-0.0598017
-0.0597921
-0.0606467
-0.0626579
-0.0659805
-0.0706533
-0.0766158
-0.0837078
-0.0916738
-0.100158
-0.108705
-0.116773
-0.123724
-0.128855
-0.131431
-0.130692
-0.125911
-0.116449
-0.101879
-0.0821935
-0.0581461
-0.0317625
-0.00665483
0.0122706
0.0186238
0.00583654
-0.0654725
-0.0680425
-0.0679403
-0.0664552
-0.0646836
-0.063388
-0.0631368
-0.064286
-0.0670034
-0.0713123
-0.0771268
-0.0842438
-0.0923741
-0.101123
-0.109997
-0.11841
-0.125687
-0.131084
-0.133807
-0.133033
-0.12795
-0.117821
-0.102079
-0.0805323
-0.0536627
-0.0232173
0.00730131
0.0323893
0.0437896
0.0326675
-0.0740442
-0.0772468
-0.0760625
-0.0727419
-0.0690342
-0.0659888
-0.0643048
-0.0643754
-0.0663502
-0.0702084
-0.0758048
-0.0828891
-0.0911161
-0.100043
-0.109129
-0.117741
-0.125157
-0.130577
-0.13314
-0.131947
-0.126088
-0.114714
-0.0971313
-0.0729796
-0.0424475
-0.0070446
0.0300477
0.0628977
0.0813309
0.074508
-0.0851246
-0.0887087
-0.0853786
-0.0791477
-0.0727173
-0.0674135
-0.0640007
-0.0628417
-0.0640109
-0.0673996
-0.0727786
-0.0798234
-0.0881221
-0.0971736
-0.106385
-0.115069
-0.122449
-0.127661
-0.129765
-0.127769
-0.120635
-0.107387
-0.087159
-0.0593854
-0.0240683
0.017739
0.0633439
0.106764
0.135715
0.137941
-0.101871
-0.104198
-0.0964813
-0.0856964
-0.0755633
-0.0674815
-0.0621127
-0.059668
-0.0600605
-0.0630403
-0.0682608
-0.0753034
-0.0836795
-0.0928243
-0.102089
-0.110732
-0.117919
-0.122716
-0.124104
-0.120983
-0.112151
-0.0964774
-0.0728701
-0.0404785
0.00104585
0.0511416
0.107804
0.16639
0.211989
0.231423
-0.131426
-0.126787
-0.110161
-0.092382
-0.0773449
-0.065978
-0.0585295
-0.0548643
-0.0546186
-0.0573335
-0.0625119
-0.0696263
-0.0781075
-0.0873285
-0.0965876
-0.105095
-0.111964
-0.116199
-0.116702
-0.112269
-0.101543
-0.0831721
-0.0557734
-0.0180741
0.0308776
0.0914105
0.162913
0.241799
0.314028
0.3666
-0.189896
-0.160009
-0.126914
-0.0987842
-0.0773943
-0.0623565
-0.0529494
-0.0483615
-0.0477905
-0.0505032
-0.055832
-0.0631414
-0.0717919
-0.0811078
-0.0903506
-0.0986969
-0.105222
-0.108884
-0.10852
-0.102827
-0.0904312
-0.0696521
-0.038773
0.00404838
0.0607497
0.13326
0.223405
0.330494
0.443981
0.570271
-0.321092
-0.199813
-0.138467
-0.097357
-0.0698551
-0.0523873
-0.0424618
-0.038187
-0.0382183
-0.0415908
-0.0475377
-0.0553778
-0.0644514
-0.0740757
-0.0835104
-0.0919315
-0.0984129
-0.101906
-0.101225
-0.0949148
-0.0817261
-0.059773
-0.0270471
0.018857
0.0810649
0.163944
0.273965
0.419642
0.607979
0.897502
-0.648442
-0.23628
-0.107036
-0.0623886
-0.0380024
-0.0243802
-0.0186132
-0.0180607
-0.0210685
-0.0267491
-0.0344991
-0.0437744
-0.0540197
-0.0646321
-0.0749338
-0.0841492
-0.0913893
-0.0956413
-0.0957809
-0.0906465
-0.0783967
-0.0574833
-0.0258915
0.0189906
0.0808687
0.165971
0.286738
0.4715
0.777644
1.3715
)
;

boundaryField
{
    movingWall
    {
        type            zeroGradient;
    }
    fixedWalls
    {
        type            zeroGradient;
    }
    frontAndBack
    {
        type            empty;
    }
}


// ************************************************************************* //
