/*--------------------------------*- C++ -*----------------------------------*\
  =========                 |
  \\      /  F ield         | OpenFOAM: The Open Source CFD Toolbox
   \\    /   O peration     | Website:  https://openfoam.org
    \\  /    A nd           | Version:  7
     \\/     M anipulation  |
\*---------------------------------------------------------------------------*/
FoamFile
{
    version     2.0;
    format      ascii;
    class       surfaceScalarField;
    location    "7.3";
    object      phi;
}
// * * * * * * * * * * * * * * * * * * * * * * * * * * * * * * * * * * * * * //

dimensions      [0 3 -1 0 0 0 0];

internalField   nonuniform List<scalar> 
1740
(
8.03126e-07
-8.03671e-07
4.52576e-07
3.50562e-07
-1.46686e-06
1.91944e-06
-4.78927e-06
3.32241e-06
-9.16939e-06
4.38011e-06
-1.42612e-05
5.09184e-06
-1.97737e-05
5.51245e-06
-2.547e-05
5.69636e-06
-3.11466e-05
5.67654e-06
-3.66087e-05
5.46213e-06
-4.16531e-05
5.0444e-06
-4.60592e-05
4.40614e-06
-4.95914e-05
3.5322e-06
-5.20111e-05
2.41972e-06
-5.30982e-05
1.08703e-06
-5.26775e-05
-4.20696e-07
-5.06495e-05
-2.02793e-06
-4.70197e-05
-3.62986e-06
-4.19199e-05
-5.09979e-06
-3.56182e-05
-6.30168e-06
-2.85117e-05
-7.10647e-06
-2.11003e-05
-7.41139e-06
-1.39421e-05
-7.15821e-06
-7.59474e-06
-6.34735e-06
-2.54931e-06
-5.04544e-06
8.41037e-07
-3.39034e-06
2.43377e-06
-1.59273e-06
2.34623e-06
8.75409e-08
1.12336e-06
1.22289e-06
1.12337e-06
-3.33874e-07
-4.69788e-07
-3.50273e-06
3.51941e-06
-1.00668e-05
8.4835e-06
-1.96462e-05
1.29019e-05
-3.15968e-05
1.63307e-05
-4.52155e-05
1.87105e-05
-5.98378e-05
2.01347e-05
-7.48623e-05
2.07209e-05
-8.97324e-05
2.05467e-05
-0.000103906
1.96357e-05
-0.000116831
1.79692e-05
-0.000127936
1.55118e-05
-0.000136645
1.22412e-05
-0.000142404
8.17837e-06
-0.000144729
3.41203e-06
-0.000143271
-1.87882e-06
-0.000137857
-7.44164e-06
-0.000128568
-1.29189e-05
-0.000115762
-1.79054e-05
-0.000100093
-2.19716e-05
-8.24828e-05
-2.47162e-05
-6.40711e-05
-2.58231e-05
-4.61124e-05
-2.51168e-05
-2.98532e-05
-2.26066e-05
-1.63863e-05
-1.85123e-05
-6.50542e-06
-1.32712e-05
-5.6283e-07
-7.53531e-06
1.71491e-06
-2.1902e-06
1.27923e-06
1.65857e-06
2.4026e-06
-2.07974e-06
1.60995e-06
-9.07165e-06
1.05113e-05
-2.08238e-05
2.02357e-05
-3.66707e-05
2.87487e-05
-5.57133e-05
3.53733e-05
-7.69972e-05
3.99944e-05
-9.95996e-05
4.27372e-05
-0.000122652
4.37731e-05
-0.000145323
4.32181e-05
-0.000166794
4.1106e-05
-0.000186233
3.74085e-05
-0.0002028
3.20792e-05
-0.000215667
2.51074e-05
-0.000224059
1.65706e-05
-0.000227325
6.67814e-06
-0.000225002
-4.20197e-06
-0.000216897
-1.55468e-05
-0.000203151
-2.66648e-05
-0.000184284
-3.67723e-05
-0.000161208
-4.50475e-05
-0.0001352
-5.07243e-05
-0.000107826
-5.31969e-05
-8.08198e-05
-5.2123e-05
-5.59164e-05
-4.751e-05
-3.46601e-05
-3.97685e-05
-1.82029e-05
-2.97285e-05
-7.11256e-06
-1.86257e-05
-1.22975e-06
-8.073e-06
4.97341e-07
-6.85114e-08
2.89994e-06
-3.9521e-06
5.56205e-06
-1.50122e-05
2.15714e-05
-3.21764e-05
3.73999e-05
-5.42938e-05
5.08661e-05
-8.01577e-05
6.12372e-05
-0.000108585
6.84218e-05
-0.000138453
7.26052e-05
-0.000168696
7.40159e-05
-0.00019828
7.28023e-05
-0.000226177
6.90027e-05
-0.000251346
6.25778e-05
-0.000272743
5.34764e-05
-0.00028935
4.17138e-05
-0.000300227
2.74479e-05
-0.000304589
1.10404e-05
-0.000301882
-6.90897e-06
-0.000291869
-2.55596e-05
-0.000274705
-4.38296e-05
-0.000250985
-6.0492e-05
-0.000221772
-7.42604e-05
-0.000188571
-8.39257e-05
-0.000153253
-8.85142e-05
-0.000117927
-8.7449e-05
-8.47462e-05
-8.06913e-05
-5.56799e-05
-6.88348e-05
-3.22712e-05
-5.31372e-05
-1.54063e-05
-3.54906e-05
-5.13797e-06
-1.83413e-05
-6.1385e-07
-4.59263e-06
2.28609e-06
-5.76558e-06
1.13276e-05
-2.08722e-05
3.66781e-05
-4.34158e-05
5.99435e-05
-7.16792e-05
7.91295e-05
-0.000104105
9.36627e-05
-0.000139281
0.000103598
-0.000175916
0.00010924
-0.000212797
0.000110897
-0.000248747
0.000108752
-0.000282588
0.000102844
-0.000313128
9.31185e-05
-0.000339172
7.95205e-05
-0.000359554
6.20953e-05
-0.000373195
4.10887e-05
-0.000379179
1.70251e-05
-0.000376841
-9.24741e-06
-0.000365846
-3.6555e-05
-0.000346282
-6.33927e-05
-0.000318728
-8.80463e-05
-0.000284288
-0.0001087
-0.000244596
-0.000123618
-0.000201753
-0.000131357
-0.0001582
-0.000131002
-0.000116515
-0.000122377
-7.91477e-05
-0.000106202
-4.81273e-05
-8.41576e-05
-2.47825e-05
-5.88353e-05
-9.53248e-06
-3.35914e-05
-1.7929e-06
-1.23322e-05
4.93192e-07
-7.45998e-06
1.87876e-05
-2.64334e-05
5.56515e-05
-5.41449e-05
8.7655e-05
-8.82988e-05
0.000113283
-0.000126973
0.000132337
-0.000168533
0.000145158
-0.000211542
0.000152249
-0.000254679
0.000154034
-0.000296671
0.000150743
-0.000336242
0.000142415
-0.000372101
0.000128977
-0.000402939
0.000110359
-0.000427471
8.66273e-05
-0.000444486
5.81037e-05
-0.000452922
2.5461e-05
-0.000451954
-1.02155e-05
-0.000441077
-4.74314e-05
-0.000420222
-8.42483e-05
-0.000389833
-0.000118435
-0.000350948
-0.000147585
-0.000305233
-0.000169333
-0.000254957
-0.000181633
-0.000202883
-0.000183076
-0.000152059
-0.0001732
-0.000105522
-0.00015274
-6.59322e-05
-0.000123747
-3.5223e-05
-8.95445e-05
-1.4321e-05
-5.44934e-05
-3.01742e-06
-2.36358e-05
-2.52423e-06
-9.01138e-06
2.7799e-05
-3.15706e-05
7.82107e-05
-6.41045e-05
0.000120189
-0.00010377
0.000152949
-0.000148298
0.000176865
-0.000195845
0.000192706
-0.000244857
0.000201261
-0.000293938
0.000203115
-0.00034176
0.000198565
-0.000386999
0.000187654
-0.000428301
0.000170279
-0.000464283
0.000146341
-0.000493557
0.000115902
-0.00051478
7.93269e-05
-0.000526718
3.73984e-05
-0.000528335
-8.59797e-06
-0.000518873
-5.68938e-05
-0.000497997
-0.000105124
-0.000465901
-0.000150532
-0.000423428
-0.000190058
-0.000372166
-0.000220595
-0.000314476
-0.000239323
-0.000253427
-0.000244126
-0.000192594
-0.000234032
-0.000135731
-0.000209603
-8.63188e-05
-0.00017316
-4.70986e-05
-0.000128765
-1.96809e-05
-8.1911e-05
-4.33935e-06
-3.89774e-05
-6.86358e-06
-1.03984e-05
3.81974e-05
-3.61831e-05
0.000103995
-7.30796e-05
0.000157085
-0.000117758
0.000197627
-0.000167638
0.000226745
-0.0002207
0.000245768
-0.000275295
0.000255856
-0.000329991
0.00025781
-0.000383442
0.000252017
-0.000434315
0.000238527
-0.000481234
0.000217197
-0.000522771
0.000187878
-0.000557459
0.000150589
-0.000583821
0.000105689
-0.000600426
5.40041e-05
-0.000605992
-3.03253e-06
-0.000599416
-6.34693e-05
-0.000580007
-0.000124533
-0.000547573
-0.000182965
-0.000502623
-0.000235008
-0.000446523
-0.000276694
-0.000381613
-0.000304233
-0.00031121
-0.000314529
-0.000239452
-0.000305791
-0.000170936
-0.000278118
-0.000110184
-0.000233911
-6.10044e-05
-0.000177945
-2.59256e-05
-0.00011699
-5.8575e-06
-5.90455e-05
-1.27211e-05
-1.15919e-05
4.97893e-05
-4.01637e-05
0.000132567
-8.08536e-05
0.000197775
-0.000129923
0.000246696
-0.000184532
0.000281355
-0.000242519
0.000303754
-0.000302174
0.000315511
-0.000362055
0.000317692
-0.00042084
0.000310802
-0.00047722
0.000294907
-0.000529838
0.000269815
-0.000577256
0.000235296
-0.000617951
0.000191284
-0.000650328
0.000138066
-0.000672764
7.64396e-05
-0.000683654
7.85757e-06
-0.000681571
-6.55524e-05
-0.000665331
-0.000140773
-0.000634243
-0.000214053
-0.000588321
-0.000280931
-0.000528532
-0.000336483
-0.000457021
-0.000375744
-0.000377225
-0.000394324
-0.000293807
-0.000389209
-0.00021231
-0.000359615
-0.000138523
-0.000307698
-7.76421e-05
-0.000238826
-3.3436e-05
-0.000161196
-7.69168e-06
-8.47898e-05
-2.04128e-05
-1.25559e-05
6.23451e-05
-4.33948e-05
0.000163406
-8.71986e-05
0.000241579
-0.000139909
0.000299407
-0.000198485
0.00033993
-0.000260657
0.000365926
-0.000324686
0.000379541
-0.000389152
0.000382157
-0.000452782
0.000374432
-0.000514332
0.000356457
-0.0005725
0.000327984
-0.000625879
0.000288675
-0.000672927
0.000238332
-0.000711963
0.000177102
-0.000741188
0.000105664
-0.000758717
2.53865e-05
-0.00076272
-6.15486e-05
-0.000751505
-0.000151989
-0.000723766
-0.000241791
-0.000678863
-0.000325834
-0.000617149
-0.000398197
-0.000540328
-0.000452565
-0.000451729
-0.000482924
-0.000356394
-0.000484544
-0.000260824
-0.000455185
-0.000172287
-0.000396235
-9.77372e-05
-0.000313376
-4.26212e-05
-0.000216312
-9.97126e-06
-0.00011744
-3.0384e-05
-1.32517e-05
7.55968e-05
-4.57566e-05
0.000195911
-9.18864e-05
0.000287709
-0.000147358
0.000354879
-0.000208985
0.000401558
-0.000274429
0.000431369
-0.000341943
0.000447055
-0.000410151
0.000450365
-0.00047786
0.000442141
-0.000543921
0.000422518
-0.00060713
0.000391192
-0.000666153
0.000347698
-0.000719482
0.000291661
-0.000765408
0.000223028
-0.00080201
0.000142266
-0.000827181
5.05576e-05
-0.00083871
-5.00203e-05
-0.000834392
-0.000156306
-0.000812253
-0.000263931
-0.000770852
-0.000367235
-0.000709702
-0.000459347
-0.00062975
-0.000532517
-0.000533869
-0.000578804
-0.000427183
-0.00059123
-0.000317015
-0.000565354
-0.000212237
-0.000501013
-0.000121968
-0.000403645
-5.38929e-05
-0.000284387
-1.28309e-05
-0.000158502
-4.32149e-05
-1.36445e-05
8.92413e-05
-4.71433e-05
0.00022941
-9.4714e-05
0.00033528
-0.000151944
0.000412109
-0.000215554
0.000465168
-0.000283164
0.000498979
-0.000353039
0.00051693
-0.000423864
0.00052119
-0.000494543
0.000512821
-0.000564053
0.000492028
-0.000631323
0.000458463
-0.000695149
0.000411523
-0.000754121
0.000350634
-0.00080658
0.000275487
-0.000850581
0.000186267
-0.000883885
8.38624e-05
-0.000903991
-2.99146e-05
-0.000908261
-0.000152037
-0.000894043
-0.000278148
-0.000859017
-0.000402261
-0.000801637
-0.000516727
-0.00072175
-0.000612404
-0.000621309
-0.000679245
-0.000505032
-0.000707506
-0.000380711
-0.000689675
-0.000258781
-0.000622944
-0.000150886
-0.000511539
-6.7642e-05
-0.000367631
-1.64084e-05
-0.000209736
-5.96233e-05
-1.3711e-05
0.000102952
-4.74833e-05
0.000263182
-9.55381e-05
0.000383334
-0.000153421
0.000469992
-0.000217807
0.000529554
-0.000286292
0.000567464
-0.000357163
0.000587801
-0.000429172
0.000593198
-0.000501337
0.000584985
-0.000572782
0.000563473
-0.000642608
0.000528289
-0.000709791
0.000478706
-0.000773098
0.000413941
-0.000831018
0.000333407
-0.000881703
0.000236952
-0.000922935
0.000125095
-0.000952043
-8.07244e-07
-0.000966143
-0.000137936
-0.000961971
-0.000282321
-0.000936333
-0.000427899
-0.000886489
-0.000566571
-0.000810852
-0.000688042
-0.000709921
-0.000780176
-0.000587341
-0.000830086
-0.000450735
-0.000826281
-0.000311766
-0.000761912
-0.000184821
-0.000638484
-8.42084e-05
-0.000468244
-2.08422e-05
-0.000273102
-8.04655e-05
-1.34468e-05
0.000116399
-4.67624e-05
0.000296498
-9.43159e-05
0.000430888
-0.000151685
0.000527361
-0.000215531
0.000593399
-0.000283438
0.000635371
-0.000353716
0.000658079
-0.000425186
0.000664669
-0.000496987
0.000656787
-0.000568409
0.000634895
-0.000638758
0.000598638
-0.000707243
0.000547192
-0.000772884
0.000479582
-0.000834425
0.000394948
-0.000890254
0.000292781
-0.00093832
0.000173161
-0.00097613
3.70026e-05
-0.00100053
-0.000113537
-0.00100798
-0.000274868
-0.00099452
-0.000441361
-0.00095619
-0.000604901
-0.000889732
-0.0007545
-0.000793676
-0.000876232
-0.00066979
-0.000953973
-0.000524595
-0.000971475
-0.000370245
-0.000916262
-0.00022375
-0.00078498
-0.00010384
-0.000588154
-2.6267e-05
-0.000350674
-0.000106732
-1.28753e-05
0.000129274
-4.50482e-05
0.000328671
-9.11476e-05
0.000476987
-0.000146833
0.000583046
-0.000208766
0.000655333
-0.000274527
0.000701131
-0.000342445
0.000725997
-0.000411411
0.000733635
-0.000480689
0.000726065
-0.000549751
0.000703957
-0.000618136
0.000667022
-0.000685334
0.00061439
-0.000750691
0.000544939
-0.000813308
0.000457564
-0.000871949
0.000351422
-0.000924936
0.000226149
-0.000970043
8.21088e-05
-0.00100432
-7.9264e-05
-0.0010241
-0.000255084
-0.00102493
-0.000440531
-0.00100179
-0.000628038
-0.000949707
-0.000806585
-0.000864841
-0.000961098
-0.000746279
-0.00107253
-0.000598266
-0.00111949
-0.000432227
-0.0010823
-0.000267139
-0.000950067
-0.000126634
-0.000728659
-3.28051e-05
-0.000444503
-0.000139538
-1.20547e-05
0.000141329
-4.25144e-05
0.00035913
-8.63203e-05
0.000520793
-0.000139222
0.000635948
-0.000197885
0.000713997
-0.000259881
0.000763127
-0.000323562
0.000789678
-0.000387894
0.000797967
-0.000452276
0.000790447
-0.000516377
0.000768058
-0.000579996
0.000730641
-0.000642945
0.00067734
-0.000704952
0.000606946
-0.000765561
0.000518173
-0.000824028
0.000409889
-0.000879201
0.000281322
-0.000929361
0.000132268
-0.000971971
-3.66534e-05
-0.00100365
-0.000223408
-0.00101977
-0.00042441
-0.00101461
-0.000633198
-0.000981657
-0.000839536
-0.000914599
-0.00102816
-0.000809191
-0.00117794
-0.000666145
-0.00126253
-0.000494489
-0.00125396
-0.000313787
-0.00113077
-0.000152475
-0.000889971
-4.05576e-05
-0.000556421
-0.000180095
-1.10872e-05
0.000152416
-3.94665e-05
0.00038751
-8.03503e-05
0.000561677
-0.000129532
0.000685129
-0.000183659
0.000768124
-0.000240295
0.000819763
-0.000297832
0.000847214
-0.00035533
0.000855465
-0.000412347
0.000847464
-0.000468772
0.000824484
-0.000524691
0.00078656
-0.000580269
0.000732918
-0.000635657
0.000662333
-0.000690895
0.000573411
-0.000745812
0.000464806
-0.000799888
0.000335398
-0.00085209
0.00018447
-0.000900524
1.17808e-05
-0.000942407
-0.000181525
-0.00097339
-0.000393427
-0.000987539
-0.000619049
-0.000977287
-0.000849789
-0.00093407
-0.00107137
-0.000850043
-0.00126197
-0.000721296
-0.00139128
-0.000552522
-0.00142273
-0.000361682
-0.00132161
-0.000180965
-0.00107069
-4.95965e-05
-0.000687789
-0.000229692
-1.01289e-05
0.000162545
-3.63711e-05
0.000413752
-7.40286e-05
0.000599334
-0.000118812
0.000729913
-0.000167307
0.000816619
-0.000217083
0.000869538
-0.000266611
0.000896741
-0.000315097
0.000903951
-0.000362302
0.00089467
-0.000408375
0.000870557
-0.000453717
0.000831902
-0.000498873
0.000778073
-0.000544435
0.000707896
-0.000590965
0.000619941
-0.000638886
0.000512727
-0.000688362
0.000384874
-0.000739097
0.000235205
-0.000790179
6.28636e-05
-0.00083941
-0.000132294
-0.00088331
-0.000349527
-0.000916294
-0.000586065
-0.000930432
-0.000835651
-0.00091556
-0.00108625
-0.000860475
-0.00131705
-0.000756022
-0.00149573
-0.000600681
-0.00157807
-0.000407927
-0.00151436
-0.000211369
-0.00126725
-5.99693e-05
-0.000839189
-0.000289661
-9.40803e-06
0.000171953
-3.39001e-05
0.000438244
-6.84765e-05
0.000633911
-0.000108533
0.00076997
-0.00015053
0.000858616
-0.000192083
0.000911091
-0.000231828
0.000936486
-0.000269209
0.000941332
-0.000304269
0.000929729
-0.000337474
0.000903762
-0.000369581
0.000864008
-0.000401528
0.00081002
-0.000434357
0.000740726
-0.000469134
0.000654717
-0.00050686
0.000550454
-0.000548361
0.000426375
-0.00059412
0.000280963
-0.000644052
0.000112795
-0.000697038
-7.93072e-05
-0.00075059
-0.000295976
-0.000800072
-0.000536583
-0.000838028
-0.000797695
-0.000853686
-0.00107059
-0.00083333
-0.00133741
-0.00076266
-0.0015664
-0.000632551
-0.00170818
-0.00044878
-0.00169813
-0.000242598
-0.00147343
-7.17254e-05
-0.00101006
-0.000361386
-9.26074e-06
0.000181214
-3.30042e-05
0.000461987
-6.52255e-05
0.000666132
-0.000100641
0.000805386
-0.000135519
0.000893494
-0.000167618
0.00094319
-0.000195892
0.000964761
-0.000220173
0.000965613
-0.000240904
0.00095046
-0.00025895
0.000921809
-0.000275467
0.000880524
-0.000291802
0.000826355
-0.000309426
0.00075835
-0.000329868
0.000675159
-0.000354645
0.00057523
-0.000385169
0.0004569
-0.000422611
0.000318405
-0.000467696
0.000157881
-0.00052037
-2.66331e-05
-0.000579351
-0.000236994
-0.000641393
-0.000474541
-0.000700324
-0.000738764
-0.000745966
-0.00102495
-0.000763476
-0.0013199
-0.000734373
-0.00159551
-0.000641435
-0.00180112
-0.000479765
-0.0018598
-0.000273194
-0.00168
-8.49781e-05
-0.00119828
-0.000446365
-1.02038e-05
0.000191418
-3.50436e-05
0.000486827
-6.63374e-05
0.000697426
-9.76136e-05
0.000836662
-0.000124926
0.000920806
-0.000146379
0.000964643
-0.000161496
0.000979878
-0.000170716
0.000974833
-0.000175045
0.000954789
-0.000175847
0.00092261
-0.000174721
0.000879398
-0.000173424
0.000825058
-0.000173821
0.000758746
-0.000177836
0.000679175
-0.000187407
0.000584801
-0.000204421
0.000473914
-0.000230608
0.000344592
-0.000267387
0.00019466
-0.000315661
2.16408e-05
-0.000375386
-0.00017727
-0.000444963
-0.000404964
-0.000520153
-0.000663574
-0.000592576
-0.000952523
-0.000648002
-0.00126447
-0.000665586
-0.00157792
-0.000620736
-0.00184597
-0.000495775
-0.00198477
-0.000301299
-0.00187447
-9.99959e-05
-0.00139958
-0.000546361
-1.30779e-05
0.000204496
-4.2008e-05
0.000515757
-7.45634e-05
0.000729981
-0.000102478
0.000864577
-0.000121727
0.000940055
-0.000131145
0.00097406
-0.000131214
0.000979947
-0.000123278
0.000966898
-0.000109103
0.000940613
-9.06526e-05
0.00090416
-7.00155e-05
0.000858761
-4.9335e-05
0.000804378
-3.08184e-05
0.00074023
-1.67072e-05
0.000665064
-9.24517e-06
0.000577339
-1.0623e-05
0.000475292
-2.29763e-05
0.000356945
-4.83085e-05
0.000219992
-8.83073e-05
6.16396e-05
-0.00014409
-0.000121487
-0.000215726
-0.000333329
-0.00030129
-0.000578009
-0.000395179
-0.000858635
-0.000485596
-0.00117406
-0.000551819
-0.0015117
-0.000563961
-0.00183383
-0.000490968
-0.00205776
-0.000324458
-0.00204098
-0.000117278
-0.00160676
-0.000663639
-1.93178e-05
0.000223814
-5.68457e-05
0.000553285
-9.34723e-05
0.000766608
-0.000118637
0.000889741
-0.000128748
0.000950166
-0.000124061
0.000969374
-0.00010658
0.000962466
-7.89269e-05
0.000939245
-4.38359e-05
0.000905522
-3.97314e-06
0.000864297
3.81182e-05
0.00081667
7.9925e-05
0.000762571
0.00011899
0.000701164
0.000152871
0.000631183
0.000179126
0.000551084
0.000195314
0.000459105
0.000199016
0.000353242
0.000187865
0.000231144
0.000159561
8.99434e-05
0.000111998
-7.39238e-05
4.35677e-05
-0.000264899
-4.61683e-05
-0.000488273
-0.000154996
-0.000749807
-0.000275147
-0.0010539
-0.000388762
-0.00139809
-0.000464125
-0.00175846
-0.000458212
-0.00206367
-0.000339061
-0.00216014
-0.000137464
-0.00180836
-0.000801103
-3.14282e-05
0.000255242
-8.38258e-05
0.000605683
-0.000127234
0.000810016
-0.000148977
0.000911485
-0.000147196
0.000948385
-0.000124726
0.000946903
-8.58435e-05
0.000923584
-3.48654e-05
0.000888267
2.43294e-05
0.000846328
8.83542e-05
0.000800272
0.000154192
0.000750832
0.000219097
0.000697666
0.000280461
0.0006398
0.000335747
0.000575897
0.000382435
0.000504396
0.000417986
0.000423553
0.000439819
0.00033141
0.00044527
0.000225692
0.000431562
0.000103652
0.000395779
-3.81412e-05
0.000335023
-0.000204143
0.000246671
-0.00039992
0.000129538
-0.000632674
-1.35045e-05
-0.000910863
-0.000170627
-0.00124096
-0.000312424
-0.00161667
-0.000387797
-0.0019883
-0.000339044
-0.00220889
-0.000160717
-0.00198668
-0.00096182
-5.37207e-05
0.000308963
-0.000128501
0.000680463
-0.000179017
0.000860531
-0.000192804
0.000925272
-0.00017249
0.000928072
-0.000125252
0.000899665
-5.85485e-05
0.00085688
2.12532e-05
0.000808465
0.00010907
0.00075851
0.000200863
0.00070848
0.000293325
0.000658371
0.000383607
0.000607384
0.000469116
0.000554292
0.000547366
0.000497647
0.00061589
0.000435873
0.000672157
0.000367286
0.000713514
0.000290053
0.000737108
0.000202099
0.000739791
0.000100969
0.000717985
-1.6335e-05
0.000667822
-0.000153981
0.000584882
-0.00031698
0.000464913
-0.000512705
0.00030558
-0.00075153
0.000111563
-0.00104695
-9.57368e-05
-0.00140937
-0.000264952
-0.00181908
-0.000313159
-0.00216068
-0.000184898
-0.00211495
-0.00114672
-9.30336e-05
0.000401996
-0.000195501
0.00078293
-0.000244813
0.000909843
-0.000236672
0.000917131
-0.000183283
0.000874682
-9.8451e-05
0.000814834
6.4512e-06
0.000751978
0.00012302
0.000691896
0.000245266
0.000636264
0.000368889
0.000584857
0.00049065
0.000536609
0.000607928
0.000490106
0.000718405
0.000443815
0.000819869
0.000396182
0.000910077
0.000345664
0.000986654
0.000290709
0.001047
0.000229707
0.00108819
0.000160906
0.00110686
8.23041e-05
0.00109889
-8.36762e-06
0.00105985
-0.000114941
0.000983962
-0.000241093
0.000864703
-0.000393446
0.000695339
-0.000582165
0.000472168
-0.000823775
0.000204606
-0.00114181
-6.39333e-05
-0.00155054
-0.000239874
-0.00198474
-0.000202408
-0.00215241
-0.00134913
-0.000157514
0.00055951
-0.000276906
0.000902322
-0.000293111
0.000926048
-0.000229716
0.000853736
-0.000115895
0.000760862
2.65179e-05
0.000672421
0.000183033
0.000595463
0.000344534
0.000530395
0.000505413
0.000475385
0.000662159
0.000428112
0.00081241
0.000386358
0.000954369
0.000348147
0.00108644
0.000311739
0.00120703
0.000275596
0.00131437
0.000238326
0.00140645
0.000198632
0.00148091
0.000155247
0.00153496
0.000106856
0.00156521
5.20508e-05
0.00156744
-1.06006e-05
0.00153681
-8.43061e-05
0.00146688
-0.000171166
0.00134977
-0.000276332
0.00117566
-0.000408055
0.000933618
-0.000581734
0.000617792
-0.00082598
0.000249724
-0.00118248
-7.79175e-05
-0.0016571
-0.000193704
-0.00203662
-0.00154283
-0.000243694
0.000803204
-0.000303169
0.000961797
-0.000204633
0.000827512
-2.58871e-05
0.00067499
0.000184334
0.000550641
0.000402195
0.00045456
0.000615994
0.000381664
0.000820224
0.000326165
0.00101259
0.000283018
0.0011923
0.000248403
0.00135911
0.000219544
0.00151287
0.000194389
0.00165324
0.000171369
0.0017796
0.000149242
0.00189093
0.000126989
0.00198584
0.000103729
0.00206242
7.86629e-05
0.00211826
5.10204e-05
0.00215026
2.00422e-05
0.00215496
-1.52938e-05
0.00212702
-5.63661e-05
0.00206043
-0.000104583
0.00194701
-0.000162909
0.00177553
-0.00023657
0.0015302
-0.000336407
0.00119072
-0.000486502
0.000746112
-0.000737868
0.000253515
-0.0011645
-8.11492e-05
-0.00170196
-0.00162398
-0.000194089
0.000997293
1.87063e-05
0.000749002
0.000373481
0.000472737
0.000714347
0.000334124
0.00101986
0.000245125
0.00128981
0.000184611
0.00152762
0.000143859
0.0017377
0.000116077
0.00192433
9.63897e-05
0.00209099
8.17449e-05
0.00224027
7.02607e-05
0.00237394
6.07191e-05
0.00249302
5.22893e-05
0.00259789
4.4379e-05
0.00268833
3.65444e-05
0.00276363
2.8434e-05
0.00282254
1.9751e-05
0.00286329
1.02672e-05
0.0028832
1.29821e-07
0.00288051
-1.25996e-05
0.00285017
-2.6028e-05
0.00278764
-4.205e-05
0.00268605
-6.13173e-05
0.00253518
-8.57026e-05
0.00231831
-0.000119539
0.00200611
-0.000174303
0.00155147
-0.000283223
0.000927279
-0.000540314
0.000263774
-0.00103846
-0.00136021
0.000997293
0.0017463
0.00221903
0.00255316
0.00279828
0.00298289
0.00312675
0.00324283
0.00333922
0.00342096
0.00349122
0.00355194
0.00360423
0.00364861
0.00368516
0.00371359
0.00373334
0.00374361
0.00374374
0.00373114
0.00370511
0.00366306
0.00360174
0.00351604
0.0033965
0.0032222
0.00293898
0.00239866
0.00136021
)
;

boundaryField
{
    movingWall
    {
        type            calculated;
        value           uniform 0;
    }
    fixedWalls
    {
        type            calculated;
        value           uniform 0;
    }
    frontAndBack
    {
        type            empty;
        value           nonuniform 0();
    }
}


// ************************************************************************* //
