/*--------------------------------*- C++ -*----------------------------------*\
  =========                 |
  \\      /  F ield         | OpenFOAM: The Open Source CFD Toolbox
   \\    /   O peration     | Website:  https://openfoam.org
    \\  /    A nd           | Version:  7
     \\/     M anipulation  |
\*---------------------------------------------------------------------------*/
FoamFile
{
    version     2.0;
    format      ascii;
    class       volVectorField;
    location    "7.3";
    object      U;
}
// * * * * * * * * * * * * * * * * * * * * * * * * * * * * * * * * * * * * * //

dimensions      [0 1 -1 0 0 0 0];

internalField   nonuniform List<vector> 
900
(
(0.000156829 -0.000155823 0)
(0.000272875 -6.37508e-05 0)
(-5.07296e-05 9.99208e-05 0)
(-0.000818592 0.000243552 0)
(-0.00193934 0.000347038 0)
(-0.00331147 0.000413245 0)
(-0.00484316 0.000451292 0)
(-0.00645918 0.000469129 0)
(-0.00809755 0.000471256 0)
(-0.00970237 0.000458827 0)
(-0.0112174 0.000430566 0)
(-0.0125822 0.000383924 0)
(-0.0137311 0.000316272 0)
(-0.0145953 0.000226047 0)
(-0.0151078 0.000113781 0)
(-0.0152106 -1.71705e-05 0)
(-0.0148626 -0.000160597 0)
(-0.0140492 -0.000306426 0)
(-0.0127891 -0.000442186 0)
(-0.0111395 -0.000554072 0)
(-0.00919663 -0.000628682 0)
(-0.00709059 -0.00065511 0)
(-0.00497556 -0.000626932 0)
(-0.00301441 -0.000543659 0)
(-0.00136006 -0.0004115 0)
(-0.000135951 -0.00024407 0)
(0.000577222 -6.24175e-05 0)
(0.000767171 0.000108569 0)
(0.000534524 0.000213524 0)
(0.000166803 0.000165652 0)
(7.17986e-05 -0.000279998 0)
(-0.000308879 0.000306591 0)
(-0.00171675 0.0011206 0)
(-0.00406242 0.00185035 0)
(-0.00718354 0.00240972 0)
(-0.0108828 0.0027926 0)
(-0.014961 0.00302152 0)
(-0.0192365 0.00312127 0)
(-0.0235455 0.00310754 0)
(-0.0277328 0.00298493 0)
(-0.031643 0.00274951 0)
(-0.0351155 0.00239338 0)
(-0.0379847 0.0019101 0)
(-0.0400865 0.00129985 0)
(-0.0412691 0.000573855 0)
(-0.0414097 -0.000242524 0)
(-0.04043 -0.00110802 0)
(-0.038314 -0.00196685 0)
(-0.0351228 -0.00275238 0)
(-0.0310014 -0.00339347 0)
(-0.0261776 -0.00382305 0)
(-0.0209512 -0.00398804 0)
(-0.0156711 -0.0038587 0)
(-0.0107034 -0.00343599 0)
(-0.00639202 -0.00275568 0)
(-0.00301522 -0.00189005 0)
(-0.000744241 -0.000948122 0)
(0.000388298 -7.37046e-05 0)
(0.00055901 0.000524464 0)
(0.00022137 0.000531843 0)
(-0.00010703 4.82194e-05 0)
(-0.00122245 0.00173565 0)
(-0.00394661 0.00372497 0)
(-0.00795854 0.0054958 0)
(-0.0130079 0.00687852 0)
(-0.0188346 0.00784446 0)
(-0.0251676 0.00842365 0)
(-0.03175 0.00865708 0)
(-0.0383404 0.00857266 0)
(-0.0447047 0.00817884 0)
(-0.0506079 0.00746895 0)
(-0.0558104 0.0064308 0)
(-0.0600712 0.0050585 0)
(-0.0631576 0.00336392 0)
(-0.0648611 0.00138631 0)
(-0.0650176 -0.000801357 0)
(-0.0635287 -0.00308973 0)
(-0.0603832 -0.00533788 0)
(-0.0556741 -0.00738166 0)
(-0.0496064 -0.00904884 0)
(-0.0424962 -0.010179 0)
(-0.0347564 -0.0106461 0)
(-0.0268676 -0.0103799 0)
(-0.0193374 -0.00938454 0)
(-0.0126477 -0.00774814 0)
(-0.00719711 -0.00564664 0)
(-0.00324417 -0.00334209 0)
(-0.000858107 -0.00118128 0)
(0.000131512 0.00040278 0)
(0.000157627 0.000816015 0)
(-0.000295457 0.000911666 0)
(-0.00220207 0.00431166 0)
(-0.00632731 0.00786282 0)
(-0.012045 0.0109434 0)
(-0.0189841 0.0133371 0)
(-0.0268213 0.0150067 0)
(-0.0352278 0.0159928 0)
(-0.0438904 0.0163513 0)
(-0.0525109 0.0161201 0)
(-0.0607964 0.0153097 0)
(-0.0684515 0.0139105 0)
(-0.075177 0.0119084 0)
(-0.0806749 0.00930322 0)
(-0.0846613 0.00612732 0)
(-0.0868844 0.00246026 0)
(-0.0871473 -0.00156172 0)
(-0.0853317 -0.00574406 0)
(-0.0814218 -0.00983956 0)
(-0.0755225 -0.0135641 0)
(-0.0678711 -0.0166214 0)
(-0.0588374 -0.0187347 0)
(-0.0489106 -0.0196844 0)
(-0.0386699 -0.0193449 0)
(-0.0287379 -0.0177159 0)
(-0.0197198 -0.0149427 0)
(-0.0121347 -0.0113223 0)
(-0.00634448 -0.00729757 0)
(-0.00248971 -0.00344343 0)
(-0.000461064 -0.000451704 0)
(6.29449e-05 0.000816343 0)
(-0.000472563 0.00230548 0)
(-0.0031598 0.00805687 0)
(-0.00868535 0.0135449 0)
(-0.0160907 0.0181552 0)
(-0.0248658 0.0216853 0)
(-0.0346185 0.0241202 0)
(-0.0449678 0.0255249 0)
(-0.0555566 0.0259735 0)
(-0.0660459 0.0255128 0)
(-0.0761011 0.0241541 0)
(-0.085384 0.0218841 0)
(-0.0935516 0.0186879 0)
(-0.100263 0.0145743 0)
(-0.105193 0.00960095 0)
(-0.108051 0.00389402 0)
(-0.108605 -0.00233964 0)
(-0.106707 -0.00881062 0)
(-0.102317 -0.0151541 0)
(-0.0955262 -0.0209519 0)
(-0.086574 -0.0257655 0)
(-0.0758537 -0.0291805 0)
(-0.0639047 -0.0308598 0)
(-0.0513867 -0.0305989 0)
(-0.0390321 -0.0283751 0)
(-0.0275784 -0.0243812 0)
(-0.0176868 -0.0190386 0)
(-0.0098548 -0.0129849 0)
(-0.00433335 -0.00704343 0)
(-0.00111183 -0.00217998 0)
(-3.00248e-05 0.000479934 0)
(-0.000633985 0.00420231 0)
(-0.00406067 0.012941 0)
(-0.0109312 0.0207438 0)
(-0.0199585 0.0270942 0)
(-0.0304886 0.031867 0)
(-0.0420589 0.0351086 0)
(-0.0542403 0.0369285 0)
(-0.0666412 0.0374278 0)
(-0.0788947 0.0366646 0)
(-0.0906393 0.03465 0)
(-0.101509 0.0313662 0)
(-0.111129 0.0267962 0)
(-0.119128 0.0209571 0)
(-0.125142 0.0139313 0)
(-0.128843 0.00589134 0)
(-0.129954 -0.00288528 0)
(-0.12828 -0.0120126 0)
(-0.123732 -0.021003 0)
(-0.116358 -0.0292938 0)
(-0.106367 -0.0362862 0)
(-0.0941446 -0.0414023 0)
(-0.0802565 -0.0441543 0)
(-0.0654316 -0.0442227 0)
(-0.0505168 -0.0415287 0)
(-0.0364042 -0.0362899 0)
(-0.0239344 -0.0290439 0)
(-0.0137865 -0.0206334 0)
(-0.00636689 -0.0121532 0)
(-0.00180096 -0.00487017 0)
(-0.000116343 -0.000199466 0)
(-0.00077963 0.00656459 0)
(-0.004888 0.0188958 0)
(-0.0130107 0.0293784 0)
(-0.0235543 0.0376709 0)
(-0.0357277 0.043785 0)
(-0.0490011 0.0478694 0)
(-0.0629027 0.0501023 0)
(-0.0770153 0.0506245 0)
(-0.0909552 0.0495096 0)
(-0.104347 0.0467691 0)
(-0.116809 0.0423785 0)
(-0.127948 0.0363153 0)
(-0.137367 0.0286 0)
(-0.144671 0.0193335 0)
(-0.149486 0.00872666 0)
(-0.151483 -0.00287988 0)
(-0.150398 -0.0150096 0)
(-0.146066 -0.0270537 0)
(-0.138461 -0.0382982 0)
(-0.127723 -0.0479663 0)
(-0.114196 -0.0552852 0)
(-0.0984426 -0.059573 0)
(-0.0812476 -0.0603425 0)
(-0.0635773 -0.0574071 0)
(-0.0465053 -0.0509672 0)
(-0.0310996 -0.0416566 0)
(-0.0182792 -0.0305297 0)
(-0.00866315 -0.0189842 0)
(-0.00255597 -0.00863429 0)
(-0.000201333 -0.00123797 0)
(-0.0009089 0.00934838 0)
(-0.00562807 0.0258286 0)
(-0.0148799 0.0393323 0)
(-0.0267989 0.0497589 0)
(-0.0404709 0.0573109 0)
(-0.0553063 0.062279 0)
(-0.0707985 0.0649358 0)
(-0.0865132 0.0654753 0)
(-0.102061 0.0639936 0)
(-0.117063 0.0605035 0)
(-0.131135 0.0549709 0)
(-0.143875 0.047362 0)
(-0.154868 0.0376918 0)
(-0.163691 0.0260673 0)
(-0.169923 0.0127231 0)
(-0.173171 -0.0019531 0)
(-0.173086 -0.0174046 0)
(-0.169402 -0.032914 0)
(-0.161983 -0.0476144 0)
(-0.150862 -0.0605351 0)
(-0.136298 -0.0706736 0)
(-0.118815 -0.0771005 0)
(-0.0992251 -0.0790919 0)
(-0.0786091 -0.0762777 0)
(-0.0582455 -0.0687751 0)
(-0.039481 -0.0572749 0)
(-0.023547 -0.0430426 0)
(-0.0113483 -0.0278189 0)
(-0.00342871 -0.0136344 0)
(-0.000295052 -0.00267567 0)
(-0.00101959 0.0125028 0)
(-0.00626463 0.0336255 0)
(-0.0164944 0.0504582 0)
(-0.0296133 0.0631981 0)
(-0.0446031 0.0722852 0)
(-0.0608251 0.078188 0)
(-0.0777465 0.0812977 0)
(-0.0949249 0.0818771 0)
(-0.111974 0.0800519 0)
(-0.128524 0.075838 0)
(-0.144196 0.0691886 0)
(-0.158594 0.0600513 0)
(-0.171292 0.0484231 0)
(-0.181843 0.0344009 0)
(-0.189784 0.0182226 0)
(-0.194648 0.000300498 0)
(-0.195994 -0.0187538 0)
(-0.193438 -0.0381286 0)
(-0.186698 -0.0568118 0)
(-0.175661 -0.0736294 0)
(-0.160452 -0.0873175 0)
(-0.141502 -0.0966397 0)
(-0.119607 -0.100551 0)
(-0.0959335 -0.0983944 0)
(-0.071973 -0.0901068 0)
(-0.049399 -0.0763655 0)
(-0.0298377 -0.0586303 0)
(-0.0145756 -0.0390292 0)
(-0.00448278 -0.0201024 0)
(-0.000409407 -0.0045848 0)
(-0.00110823 0.0159676 0)
(-0.00677859 0.0421496 0)
(-0.0178065 0.0625781 0)
(-0.0319149 0.0777931 0)
(-0.0480033 0.0885111 0)
(-0.0653952 0.0954086 0)
(-0.0835403 0.0990187 0)
(-0.101996 0.0996875 0)
(-0.120389 0.0975787 0)
(-0.138365 0.092714 0)
(-0.155567 0.0850314 0)
(-0.171609 0.0744513 0)
(-0.18607 0.0609393 0)
(-0.19849 0.0445629 0)
(-0.208369 0.0255391 0)
(-0.215174 0.00427622 0)
(-0.218369 -0.0185933 0)
(-0.217438 -0.0421864 0)
(-0.211936 -0.0653658 0)
(-0.201566 -0.0867577 0)
(-0.186264 -0.104815 0)
(-0.166301 -0.117938 0)
(-0.142382 -0.124663 0)
(-0.115705 -0.123923 0)
(-0.087949 -0.115329 0)
(-0.0611451 -0.0994296 0)
(-0.0374019 -0.0778295 0)
(-0.0185089 -0.0530813 0)
(-0.00578754 -0.0283492 0)
(-0.000557163 -0.00707377 0)
(-0.00117082 0.0196715 0)
(-0.00714999 0.0512405 0)
(-0.0187685 0.0754818 0)
(-0.0336216 0.0933111 0)
(-0.050549 0.105749 0)
(-0.0688473 0.113706 0)
(-0.0879567 0.117877 0)
(-0.107441 0.118704 0)
(-0.126945 0.1164 0)
(-0.146143 0.110996 0)
(-0.164703 0.102413 0)
(-0.182269 0.0905372 0)
(-0.198434 0.07529 0)
(-0.212742 0.056689 0)
(-0.224671 0.0349045 0)
(-0.233644 0.010308 0)
(-0.239035 -0.0164806 0)
(-0.240204 -0.0445473 0)
(-0.236536 -0.0726653 0)
(-0.22752 -0.0992834 0)
(-0.212852 -0.122569 0)
(-0.192565 -0.140517 0)
(-0.167174 -0.151154 0)
(-0.137809 -0.152847 0)
(-0.106266 -0.144699 0)
(-0.0749283 -0.126947 0)
(-0.0464643 -0.101227 0)
(-0.0233112 -0.0705279 0)
(-0.0074154 -0.0387668 0)
(-0.000751963 -0.0102891 0)
(-0.00120364 0.0235326 0)
(-0.00736109 0.0607153 0)
(-0.0193383 0.0889293 0)
(-0.0346595 0.109482 0)
(-0.0521273 0.123717 0)
(-0.0710202 0.132793 0)
(-0.0907744 0.137585 0)
(-0.110965 0.138648 0)
(-0.131259 0.136252 0)
(-0.151365 0.130443 0)
(-0.17099 0.121127 0)
(-0.189815 0.108151 0)
(-0.207469 0.0913824 0)
(-0.223516 0.0707718 0)
(-0.237442 0.0464177 0)
(-0.248648 0.0186231 0)
(-0.256451 -0.0120444 0)
(-0.260108 -0.0446889 0)
(-0.25885 -0.0780463 0)
(-0.251939 -0.110436 0)
(-0.238792 -0.139767 0)
(-0.219121 -0.163621 0)
(-0.193136 -0.179439 0)
(-0.161753 -0.184867 0)
(-0.126756 -0.178263 0)
(-0.0908119 -0.159291 0)
(-0.0571897 -0.129409 0)
(-0.0291322 -0.0919875 0)
(-0.00944011 -0.051825 0)
(-0.00100877 -0.0144166 0)
(-0.00120417 0.0274601 0)
(-0.00740009 0.0703733 0)
(-0.0194871 0.102656 0)
(-0.0349758 0.126003 0)
(-0.0526513 0.142086 0)
(-0.0717808 0.152326 0)
(-0.0917997 0.157789 0)
(-0.112295 0.159155 0)
(-0.132963 0.156765 0)
(-0.153547 0.150688 0)
(-0.173802 0.140821 0)
(-0.19346 0.126971 0)
(-0.212203 0.108945 0)
(-0.229643 0.0866154 0)
(-0.245302 0.0599913 0)
(-0.258599 0.0292794 0)
(-0.268835 -0.00504606 0)
(-0.275212 -0.0421729 0)
(-0.276838 -0.080854 0)
(-0.272771 -0.119356 0)
(-0.262126 -0.155402 0)
(-0.244234 -0.186195 0)
(-0.218874 -0.20856 0)
(-0.186571 -0.219287 0)
(-0.148895 -0.215729 0)
(-0.108638 -0.196613 0)
(-0.0696409 -0.162881 0)
(-0.0360934 -0.118106 0)
(-0.0119347 -0.0680612 0)
(-0.00134441 -0.0196821 0)
(-0.00117194 0.0313589 0)
(-0.00726531 0.0800044 0)
(-0.019209 0.11638 0)
(-0.0345521 0.142547 0)
(-0.052079 0.160496 0)
(-0.0710492 0.171912 0)
(-0.0908979 0.178064 0)
(-0.111226 0.179773 0)
(-0.131754 0.177461 0)
(-0.152271 0.171236 0)
(-0.172584 0.160989 0)
(-0.192487 0.146496 0)
(-0.211734 0.127505 0)
(-0.230009 0.103807 0)
(-0.246906 0.0753091 0)
(-0.261907 0.0421005 0)
(-0.274364 0.00452553 0)
(-0.283469 -0.0367329 0)
(-0.288262 -0.0805318 0)
(-0.287656 -0.125185 0)
(-0.280487 -0.168339 0)
(-0.265669 -0.206915 0)
(-0.242446 -0.237164 0)
(-0.210761 -0.25494 0)
(-0.171708 -0.256333 0)
(-0.127943 -0.238703 0)
(-0.0837248 -0.201956 0)
(-0.0442658 -0.149497 0)
(-0.014968 -0.0880607 0)
(-0.00177811 -0.0263512 0)
(-0.00110948 0.035136 0)
(-0.00696938 0.0894024 0)
(-0.0185296 0.12982 0)
(-0.0334198 0.158776 0)
(-0.050434 0.178557 0)
(-0.0688248 0.191115 0)
(-0.0880269 0.197928 0)
(-0.107653 0.199971 0)
(-0.127453 0.197765 0)
(-0.147259 0.191467 0)
(-0.166937 0.18098 0)
(-0.186356 0.166058 0)
(-0.205357 0.146398 0)
(-0.223722 0.121717 0)
(-0.241151 0.091818 0)
(-0.257235 0.0566619 0)
(-0.271422 0.0164382 0)
(-0.282977 -0.0283388 0)
(-0.290959 -0.07672 0)
(-0.294203 -0.12718 0)
(-0.291332 -0.177436 0)
(-0.280867 -0.224292 0)
(-0.26146 -0.263549 0)
(-0.232305 -0.290151 0)
(-0.19373 -0.298741 0)
(-0.147883 -0.284837 0)
(-0.0991298 -0.246612 0)
(-0.0536415 -0.186653 0)
(-0.0185992 -0.112426 0)
(-0.00233186 -0.034727 0)
(-0.00102306 0.0387097 0)
(-0.00654347 0.0983831 0)
(-0.0175165 0.142716 0)
(-0.0316747 0.174359 0)
(-0.047825 0.195875 0)
(-0.0652109 0.209475 0)
(-0.0832668 0.216855 0)
(-0.101619 0.21916 0)
(-0.120046 0.217022 0)
(-0.138428 0.210669 0)
(-0.156698 0.20003 0)
(-0.174807 0.184854 0)
(-0.192695 0.164804 0)
(-0.210264 0.139532 0)
(-0.227348 0.108753 0)
(-0.243685 0.0723002 0)
(-0.258875 0.0301992 0)
(-0.272319 -0.0172492 0)
(-0.283186 -0.0693498 0)
(-0.290337 -0.124852 0)
(-0.292285 -0.181713 0)
(-0.287245 -0.236835 0)
(-0.2733 -0.285805 0)
(-0.248794 -0.322812 0)
(-0.213023 -0.341002 0)
(-0.167188 -0.333642 0)
(-0.115265 -0.296333 0)
(-0.0640989 -0.229828 0)
(-0.0228706 -0.14173 0)
(-0.00303093 -0.0451457 0)
(-0.000923561 0.0420206 0)
(-0.00604172 0.106806 0)
(-0.0162885 0.15485 0)
(-0.029492 0.189001 0)
(-0.0444637 0.212071 0)
(-0.0604354 0.226528 0)
(-0.0768436 0.234301 0)
(-0.0933331 0.236714 0)
(-0.10972 0.234534 0)
(-0.125936 0.228073 0)
(-0.141988 0.217308 0)
(-0.157918 0.202002 0)
(-0.173777 0.181801 0)
(-0.189598 0.156316 0)
(-0.205368 0.125189 0)
(-0.220998 0.0881425 0)
(-0.236277 0.0450429 0)
(-0.250803 -0.00403429 0)
(-0.263931 -0.0587092 0)
(-0.274656 -0.118084 0)
(-0.281521 -0.180526 0)
(-0.28258 -0.243282 0)
(-0.275462 -0.302039 0)
(-0.257679 -0.350547 0)
(-0.227312 -0.380619 0)
(-0.184179 -0.383029 0)
(-0.131217 -0.349944 0)
(-0.0753669 -0.278896 0)
(-0.0278007 -0.176452 0)
(-0.00390504 -0.0579686 0)
(-0.000827723 0.0450455 0)
(-0.00554683 0.114604 0)
(-0.0150268 0.166081 0)
(-0.0271399 0.202463 0)
(-0.0406798 0.226801 0)
(-0.0548642 0.24183 0)
(-0.069141 0.249722 0)
(-0.0831875 0.252003 0)
(-0.0968697 0.249591 0)
(-0.110186 0.2429 0)
(-0.123225 0.231973 0)
(-0.136128 0.216606 0)
(-0.149062 0.196449 0)
(-0.162198 0.171093 0)
(-0.175682 0.140131 0)
(-0.189606 0.103197 0)
(-0.203966 0.0600138 0)
(-0.218606 0.0104406 0)
(-0.233108 -0.0454542 0)
(-0.24669 -0.107205 0)
(-0.258084 -0.173717 0)
(-0.265371 -0.242818 0)
(-0.265933 -0.310656 0)
(-0.256596 -0.371 0)
(-0.234208 -0.414741 0)
(-0.196865 -0.430229 0)
(-0.145748 -0.405498 0)
(-0.0869972 -0.333189 0)
(-0.0333809 -0.216895 0)
(-0.00499162 -0.073574 0)
(-0.000760517 0.0478146 0)
(-0.00517901 0.121814 0)
(-0.0139906 0.176378 0)
(-0.0249962 0.214596 0)
(-0.036933 0.239781 0)
(-0.0490072 0.254967 0)
(-0.0606986 0.262596 0)
(-0.0717442 0.264415 0)
(-0.082085 0.261506 0)
(-0.091806 0.254402 0)
(-0.101091 0.243226 0)
(-0.110187 0.227819 0)
(-0.119384 0.207859 0)
(-0.128985 0.182934 0)
(-0.139292 0.152609 0)
(-0.150572 0.116456 0)
(-0.163026 0.0740824 0)
(-0.176729 0.0251568 0)
(-0.191535 -0.0305324 0)
(-0.206965 -0.092977 0)
(-0.222044 -0.161686 0)
(-0.235084 -0.235251 0)
(-0.243492 -0.310633 0)
(-0.243701 -0.382166 0)
(-0.231497 -0.440476 0)
(-0.20312 -0.471967 0)
(-0.15734 -0.460242 0)
(-0.0983481 -0.391345 0)
(-0.0395801 -0.263095 0)
(-0.00634378 -0.0923528 0)
(-0.000760632 0.0504365 0)
(-0.00511278 0.128623 0)
(-0.0135402 0.185857 0)
(-0.0235687 0.225361 0)
(-0.0338234 0.2508 0)
(-0.0435138 0.265572 0)
(-0.052193 0.272432 0)
(-0.0597029 0.273366 0)
(-0.0660991 0.269633 0)
(-0.0715811 0.261891 0)
(-0.076446 0.250345 0)
(-0.0810569 0.234896 0)
(-0.0858204 0.215254 0)
(-0.0911683 0.191023 0)
(-0.0975397 0.161757 0)
(-0.105359 0.126991 0)
(-0.115006 0.0862473 0)
(-0.126766 0.0390456 0)
(-0.140761 -0.0150776 0)
(-0.156835 -0.0765107 0)
(-0.174392 -0.145365 0)
(-0.192151 -0.221085 0)
(-0.207835 -0.301715 0)
(-0.217875 -0.382701 0)
(-0.217381 -0.455253 0)
(-0.200872 -0.504746 0)
(-0.164273 -0.510689 0)
(-0.108582 -0.451178 0)
(-0.0463586 -0.314704 0)
(-0.0080466 -0.114717 0)
(-0.000892733 0.0531369 0)
(-0.00560927 0.135422 0)
(-0.0141769 0.194818 0)
(-0.0235227 0.234845 0)
(-0.0320953 0.259713 0)
(-0.0391528 0.273308 0)
(-0.0443934 0.278755 0)
(-0.0478346 0.278299 0)
(-0.0497015 0.273371 0)
(-0.0503457 0.264743 0)
(-0.0501979 0.252704 0)
(-0.0497423 0.237205 0)
(-0.0494988 0.217992 0)
(-0.0500108 0.194689 0)
(-0.0518325 0.166853 0)
(-0.0555147 0.133998 0)
(-0.0615814 0.0955904 0)
(-0.0704938 0.0510417 0)
(-0.0826012 -0.000299243 0)
(-0.0980573 -0.0591333 0)
(-0.116677 -0.126095 0)
(-0.137703 -0.201454 0)
(-0.159435 -0.284467 0)
(-0.178732 -0.372135 0)
(-0.190584 -0.457159 0)
(-0.188244 -0.525201 0)
(-0.164704 -0.552805 0)
(-0.116655 -0.50959 0)
(-0.0536835 -0.370862 0)
(-0.0102457 -0.141132 0)
(-0.00127367 0.0563279 0)
(-0.00707642 0.142885 0)
(-0.0166026 0.203778 0)
(-0.0257092 0.243246 0)
(-0.0326214 0.266408 0)
(-0.0367509 0.27783 0)
(-0.0380625 0.281077 0)
(-0.0368496 0.278651 0)
(-0.033578 0.272135 0)
(-0.0287926 0.262388 0)
(-0.023078 0.249752 0)
(-0.0170405 0.234216 0)
(-0.0113017 0.215552 0)
(-0.00649551 0.1934 0)
(-0.00326173 0.16732 0)
(-0.0022441 0.136812 0)
(-0.00407388 0.101316 0)
(-0.00934084 0.0601809 0)
(-0.0185742 0.0126349 0)
(-0.0321956 -0.0422336 0)
(-0.050415 -0.105445 0)
(-0.0730423 -0.177953 0)
(-0.0991279 -0.260176 0)
(-0.126361 -0.350912 0)
(-0.150253 -0.44516 0)
(-0.163538 -0.530423 0)
(-0.15666 -0.58224 0)
(-0.12125 -0.562528 0)
(-0.0615117 -0.430013 0)
(-0.0131855 -0.17218 0)
(-0.00212557 0.0607347 0)
(-0.010173 0.152068 0)
(-0.0217958 0.213474 0)
(-0.0311612 0.250809 0)
(-0.0363074 0.270711 0)
(-0.0370191 0.278691 0)
(-0.0337192 0.278807 0)
(-0.0271105 0.27379 0)
(-0.0179803 0.265309 0)
(-0.00710598 0.254251 0)
(0.00476099 0.240966 0)
(0.0168986 0.225449 0)
(0.0286044 0.207476 0)
(0.0391784 0.186691 0)
(0.0479241 0.162656 0)
(0.0541441 0.134864 0)
(0.0571435 0.102743 0)
(0.0562384 0.0656189 0)
(0.05076 0.0226669 0)
(0.0400699 -0.0271291 0)
(0.0236158 -0.0850101 0)
(0.00104549 -0.152389 0)
(-0.0275102 -0.230625 0)
(-0.0608512 -0.320274 0)
(-0.0956328 -0.419163 0)
(-0.125044 -0.518184 0)
(-0.137883 -0.594561 0)
(-0.120602 -0.604941 0)
(-0.0696646 -0.489622 0)
(-0.017234 -0.208635 0)
(-0.00387702 0.0676343 0)
(-0.0159676 0.164523 0)
(-0.0310481 0.224775 0)
(-0.0409354 0.257635 0)
(-0.0437497 0.272182 0)
(-0.0400634 0.275158 0)
(-0.0310389 0.271108 0)
(-0.0179495 0.262884 0)
(-0.00198236 0.252128 0)
(0.0158232 0.239658 0)
(0.0345572 0.225759 0)
(0.0534033 0.210384 0)
(0.0716032 0.193286 0)
(0.0884264 0.174097 0)
(0.103154 0.152373 0)
(0.115067 0.127613 0)
(0.123436 0.0992468 0)
(0.127516 0.0666051 0)
(0.126534 0.0288729 0)
(0.119678 -0.0149703 0)
(0.106114 -0.0662258 0)
(0.0850261 -0.126512 0)
(0.0557722 -0.197782 0)
(0.0183314 -0.282023 0)
(-0.0255686 -0.379933 0)
(-0.0706445 -0.487082 0)
(-0.105485 -0.585448 0)
(-0.112105 -0.630712 0)
(-0.0774466 -0.545658 0)
(-0.022808 -0.251388 0)
(-0.00733674 0.079285 0)
(-0.0261208 0.182345 0)
(-0.0457538 0.238349 0)
(-0.0554334 0.263224 0)
(-0.0541779 0.269679 0)
(-0.0440603 0.265851 0)
(-0.0273556 0.256606 0)
(-0.00606828 0.244689 0)
(0.0181668 0.23152 0)
(0.04406 0.217707 0)
(0.0705783 0.203381 0)
(0.0968569 0.188394 0)
(0.12213 0.172439 0)
(0.145679 0.155122 0)
(0.166803 0.135995 0)
(0.184795 0.114564 0)
(0.198919 0.0902846 0)
(0.208395 0.0625273 0)
(0.212377 0.0305384 0)
(0.209909 -0.00662353 0)
(0.199943 -0.0501858 0)
(0.181293 -0.101736 0)
(0.152678 -0.163438 0)
(0.112988 -0.238153 0)
(0.062083 -0.329002 0)
(0.00273582 -0.436731 0)
(-0.055326 -0.550992 0)
(-0.0915345 -0.632555 0)
(-0.0827833 -0.591773 0)
(-0.0299953 -0.301109 0)
(-0.0139033 0.0996122 0)
(-0.0428257 0.207808 0)
(-0.0662258 0.253727 0)
(-0.0721419 0.265499 0)
(-0.0625034 0.260548 0)
(-0.0419451 0.248149 0)
(-0.0142211 0.232991 0)
(0.0178719 0.217295 0)
(0.0523176 0.201966 0)
(0.0876845 0.187227 0)
(0.122927 0.172944 0)
(0.157232 0.158812 0)
(0.18991 0.144438 0)
(0.220325 0.129393 0)
(0.247849 0.113227 0)
(0.271831 0.0954729 0)
(0.291565 0.0756335 0)
(0.306275 0.0531549 0)
(0.315071 0.027391 0)
(0.316893 -0.00245683 0)
(0.310552 -0.0374163 0)
(0.2946 -0.0788846 0)
(0.267293 -0.128886 0)
(0.226671 -0.190507 0)
(0.17091 -0.268379 0)
(0.0997602 -0.367859 0)
(0.0190092 -0.488261 0)
(-0.0516099 -0.60213 0)
(-0.0807051 -0.61845 0)
(-0.0375659 -0.358117 0)
(-0.025403 0.135185 0)
(-0.0671787 0.241094 0)
(-0.0869612 0.2664 0)
(-0.0789225 0.258391 0)
(-0.0519453 0.238978 0)
(-0.0141731 0.217231 0)
(0.0292684 0.196578 0)
(0.0751644 0.178044 0)
(0.121513 0.161659 0)
(0.167079 0.147075 0)
(0.211068 0.13382 0)
(0.252918 0.121401 0)
(0.292162 0.109338 0)
(0.328357 0.0971806 0)
(0.361031 0.0844996 0)
(0.389651 0.0708798 0)
(0.4136 0.0559029 0)
(0.432154 0.0391234 0)
(0.444439 0.020039 0)
(0.449376 -0.00196534 0)
(0.445716 -0.0275971 0)
(0.431857 -0.0579659 0)
(0.405807 -0.0947113 0)
(0.365074 -0.140552 0)
(0.306587 -0.200355 0)
(0.227176 -0.282337 0)
(0.127376 -0.395497 0)
(0.0203716 -0.530921 0)
(-0.0611439 -0.612435 0)
(-0.0408931 -0.421691 0)
(-0.0412778 0.197352 0)
(-0.0901826 0.272782 0)
(-0.0798462 0.25929 0)
(-0.0363404 0.226282 0)
(0.021388 0.193323 0)
(0.0836353 0.16521 0)
(0.145839 0.142441 0)
(0.205809 0.124191 0)
(0.262571 0.109403 0)
(0.315761 0.097145 0)
(0.365276 0.0866592 0)
(0.411082 0.0773356 0)
(0.453122 0.068676 0)
(0.491266 0.0602647 0)
(0.525287 0.0517444 0)
(0.554843 0.0427956 0)
(0.579466 0.0331181 0)
(0.598552 0.0224113 0)
(0.611311 0.0103485 0)
(0.616813 -0.00348247 0)
(0.613859 -0.0194629 0)
(0.600832 -0.0383049 0)
(0.575757 -0.0610977 0)
(0.535977 -0.0897606 0)
(0.477769 -0.128148 0)
(0.395836 -0.184429 0)
(0.284878 -0.273867 0)
(0.145814 -0.410569 0)
(-0.0034793 -0.553995 0)
(-0.0254097 -0.477485 0)
(-0.0341099 0.293781 0)
(-0.0478422 0.272668 0)
(0.0538295 0.19958 0)
(0.156896 0.149684 0)
(0.249774 0.114833 0)
(0.331927 0.0899259 0)
(0.404287 0.0722753 0)
(0.468051 0.0596537 0)
(0.524502 0.0503537 0)
(0.574782 0.0432237 0)
(0.619773 0.0375065 0)
(0.660096 0.0326853 0)
(0.696145 0.028391 0)
(0.728116 0.0243485 0)
(0.75603 0.0203438 0)
(0.779754 0.0162014 0)
(0.799003 0.0117677 0)
(0.813358 0.00690245 0)
(0.822172 0.00145882 0)
(0.824827 -0.00461808 0)
(0.820355 -0.0116683 0)
(0.807438 -0.0199592 0)
(0.78445 -0.0299506 0)
(0.749073 -0.04257 0)
(0.697705 -0.0598606 0)
(0.624249 -0.0869009 0)
(0.518447 -0.137207 0)
(0.365103 -0.2403 0)
(0.144103 -0.406982 0)
(0.0588575 -0.458305 0)
(0.303225 0.180911 0)
(0.382469 0.144257 0)
(0.560701 0.0911026 0)
(0.686478 0.0589605 0)
(0.76918 0.0393348 0)
(0.828823 0.026853 0)
(0.874765 0.018954 0)
(0.911373 0.0139614 0)
(0.941363 0.0107282 0)
(0.966552 0.00853972 0)
(0.988095 0.00697028 0)
(1.0067 0.005763 0)
(1.02277 0.00475745 0)
(1.03655 0.00384958 0)
(1.0481 0.00296871 0)
(1.05739 0.00206385 0)
(1.0643 0.00109403 0)
(1.06864 2.8521e-05 0)
(1.07016 -0.00117536 0)
(1.06848 -0.00241246 0)
(1.06306 -0.00388852 0)
(1.05344 -0.00563994 0)
(1.03882 -0.00773969 0)
(1.01802 -0.0103938 0)
(0.988976 -0.0141003 0)
(0.947574 -0.0202016 0)
(0.884015 -0.0325889 0)
(0.77637 -0.0637623 0)
(0.544826 -0.13947 0)
(0.382491 -0.201739 0)
)
;

boundaryField
{
    movingWall
    {
        type            fixedValue;
        value           uniform (1.2 0 0);
    }
    fixedWalls
    {
        type            noSlip;
    }
    frontAndBack
    {
        type            empty;
    }
}


// ************************************************************************* //
