/*--------------------------------*- C++ -*----------------------------------*\
  =========                 |
  \\      /  F ield         | OpenFOAM: The Open Source CFD Toolbox
   \\    /   O peration     | Website:  https://openfoam.org
    \\  /    A nd           | Version:  7
     \\/     M anipulation  |
\*---------------------------------------------------------------------------*/
FoamFile
{
    version     2.0;
    format      ascii;
    class       volScalarField;
    location    "9.4";
    object      p;
}
// * * * * * * * * * * * * * * * * * * * * * * * * * * * * * * * * * * * * * //

dimensions      [0 2 -2 0 0 0 0];

internalField   nonuniform List<scalar> 
900
(
2.40862e-08
-0.000352525
-0.00093275
-0.00156045
-0.00212411
-0.0025585
-0.00282974
-0.00292111
-0.00282243
-0.00252528
-0.00202275
-0.00131198
-0.000398137
0.000701082
0.00195177
0.00330172
0.00468065
0.0060039
0.00717917
0.00811638
0.00873942
0.00899815
0.00887847
0.00840835
0.00765879
0.00673738
0.005779
0.00494248
0.00439239
0.00425408
0.000349328
-1.66777e-05
-0.000461584
-0.00092423
-0.00133881
-0.00165843
-0.00185658
-0.00191749
-0.00182976
-0.00158392
-0.00117258
-0.000592358
0.000153088
0.00104966
0.00206972
0.00317035
0.00429562
0.00537538
0.00633432
0.00709917
0.00760864
0.00782347
0.00773458
0.00736753
0.00678212
0.00606725
0.00533084
0.00467529
0.00423921
0.00411335
0.000952319
0.000412659
-4.75629e-05
-0.000463013
-0.000819724
-0.00108987
-0.00125819
-0.00131503
-0.00125111
-0.00105673
-0.000722773
-0.000242916
0.000383289
0.00114696
0.00202687
0.00298796
0.00397977
0.00493983
0.00579871
0.0064876
0.00694804
0.00714188
0.00705933
0.00672315
0.00618756
0.00553202
0.00485073
0.0042388
0.00379131
0.00357921
0.00162993
0.000853575
0.000312274
-0.000114776
-0.00046216
-0.000720767
-0.000888262
-0.000963088
-0.000939242
-0.000806747
-0.000553647
-0.000168877
0.000354085
0.00101321
0.00179421
0.00266793
0.00358869
0.00449665
0.00532238
0.00599465
0.0064507
0.00664706
0.00656862
0.00623352
0.00569209
0.00501975
0.00430632
0.00364407
0.00310761
0.00273243
0.00223425
0.00120313
0.000557075
9.1682e-05
-0.000273433
-0.000546423
-0.000737377
-0.000852577
-0.000888868
-0.000835219
-0.00067567
-0.000392947
2.71287e-05
0.000590805
0.00129165
0.00210668
0.00299469
0.00389622
0.00473871
0.00544422
0.00594049
0.00617327
0.00611721
0.00578238
0.0052142
0.00448618
0.00368926
0.00291957
0.00224127
0.00165069
0.00264083
0.00135758
0.000597794
7.75319e-05
-0.000326306
-0.000637428
-0.000876954
-0.00105774
-0.00117832
-0.00122544
-0.00117779
-0.0010104
-0.000699817
-0.000229865
0.00040237
0.00118127
0.00207029
0.00300969
0.00392185
0.00471851
0.00531281
0.0056335
0.0056385
0.00532441
0.00472861
0.00392309
0.00300438
0.00208047
0.00121324
0.000366397
0.00274033
0.001221
0.000347963
-0.000236846
-0.000696081
-0.00106748
-0.00138157
-0.00165621
-0.0018902
-0.00206668
-0.00215763
-0.00212879
-0.00194554
-0.00157964
-0.00101652
-0.000262227
0.000653682
0.00167185
0.00270908
0.00366418
0.00443056
0.00491266
0.00504308
0.00479663
0.00419667
0.00331169
0.00224708
0.00113078
3.15774e-05
-0.00111474
0.00243601
0.000705201
-0.000274567
-0.000929233
-0.00145792
-0.00191116
-0.00232741
-0.00272801
-0.00311068
-0.00345375
-0.00372111
-0.00386753
-0.00384512
-0.00361077
-0.00313486
-0.00241003
-0.00145411
-0.000323768
0.000893931
0.00208367
0.00311446
0.00385801
0.00421037
0.00411241
0.00356325
0.00262227
0.00140486
6.68254e-05
-0.00130692
-0.00280591
0.00164223
-0.000269282
-0.00134585
-0.00207383
-0.00268543
-0.00324298
-0.00379167
-0.00435514
-0.00492907
-0.00548604
-0.00598075
-0.00635546
-0.00654659
-0.00649284
-0.00614454
-0.00547411
-0.00448593
-0.00322382
-0.00177527
-0.000268718
0.00113698
0.00227191
0.00298162
0.00315613
0.00275398
0.00181422
0.000459682
-0.00111875
-0.00281071
-0.00473018
0.000285895
-0.00177034
-0.00293179
-0.00373615
-0.00444471
-0.00513073
-0.00584529
-0.00661363
-0.00742899
-0.00825782
-0.00904501
-0.009719
-0.0101982
-0.0103993
-0.010247
-0.00968583
-0.00869929
-0.00730817
-0.00559246
-0.00368884
-0.00178448
-9.87397e-05
0.00114755
0.00177139
0.00166655
0.000831759
-0.000611757
-0.00243306
-0.00448669
-0.0069112
-0.00169035
-0.00385078
-0.00508381
-0.00596763
-0.00678782
-0.00762781
-0.00854409
-0.00956339
-0.0106767
-0.0118448
-0.0130027
-0.0140644
-0.0149282
-0.0154852
-0.0156288
-0.0152693
-0.0143513
-0.0128671
-0.0108752
-0.0085099
-0.00598191
-0.00356403
-0.00155878
-0.000248691
0.000161674
-0.00040139
-0.00183839
-0.00387882
-0.00633282
-0.00936365
-0.00432414
-0.00654466
-0.00783482
-0.0088007
-0.0097467
-0.0107657
-0.0119196
-0.0132371
-0.0147079
-0.016288
-0.0179037
-0.0194546
-0.0208179
-0.0218557
-0.0224251
-0.0223929
-0.0216547
-0.0201582
-0.0179238
-0.0150671
-0.0118097
-0.00847435
-0.0054557
-0.00316335
-0.00194233
-0.00198644
-0.00325487
-0.00544951
-0.00832966
-0.0120828
-0.00762971
-0.00986425
-0.0111958
-0.0122445
-0.0133276
-0.0145469
-0.0159701
-0.0176288
-0.0195132
-0.0215766
-0.0237382
-0.0258842
-0.0278709
-0.0295299
-0.0306775
-0.0311296
-0.0307221
-0.0293449
-0.0269578
-0.0236358
-0.0195896
-0.015177
-0.0108842
-0.00726983
-0.00486583
-0.00404985
-0.0049
-0.00712284
-0.0104295
-0.0150311
-0.0115954
-0.0137983
-0.0151539
-0.0162821
-0.0175068
-0.0189389
-0.0206525
-0.0226841
-0.0250264
-0.0276327
-0.0304174
-0.0332558
-0.0359845
-0.0384047
-0.0402903
-0.0414025
-0.0415113
-0.0404262
-0.0380359
-0.0343462
-0.0295268
-0.0239407
-0.0181484
-0.0128634
-0.0088463
-0.00673366
-0.00681023
-0.00885102
-0.0125421
-0.0181214
-0.0161828
-0.0183121
-0.0196725
-0.0208699
-0.0222294
-0.0238711
-0.025878
-0.0282933
-0.0311155
-0.0343005
-0.0377612
-0.0413647
-0.0449304
-0.0482314
-0.0510003
-0.0529428
-0.0537585
-0.0531702
-0.0509774
-0.0470928
-0.0416098
-0.034855
-0.0274235
-0.020165
-0.0140902
-0.0101685
-0.00900393
-0.0105456
-0.0145152
-0.0211935
-0.0213294
-0.023351
-0.0246946
-0.02594
-0.0274096
-0.029235
-0.0315106
-0.0342904
-0.0375815
-0.0413457
-0.0454972
-0.0498983
-0.0543545
-0.058614
-0.0623718
-0.0652819
-0.0669733
-0.0670782
-0.0653128
-0.0614655
-0.0555223
-0.0477252
-0.038646
-0.0292201
-0.0206939
-0.0144219
-0.0114503
-0.0120536
-0.0161082
-0.0239843
-0.0269529
-0.0288464
-0.0301487
-0.0314058
-0.0329365
-0.0348881
-0.0373721
-0.0404577
-0.0441647
-0.048464
-0.0532737
-0.0584535
-0.0637983
-0.0690353
-0.0738272
-0.0777814
-0.0804615
-0.0814051
-0.0802966
-0.0767404
-0.0706031
-0.0620013
-0.0514161
-0.0397889
-0.0285418
-0.0194201
-0.0140179
-0.0131222
-0.0169576
-0.0260891
-0.0329604
-0.0347255
-0.0359586
-0.0371701
-0.0386804
-0.040661
-0.0432493
-0.0465366
-0.05056
-0.0553019
-0.0606862
-0.0665713
-0.0727432
-0.078912
-0.0847124
-0.0897125
-0.0934362
-0.0953966
-0.0950138
-0.0919468
-0.085886
-0.0767791
-0.064954
-0.0512642
-0.0372039
-0.0248515
-0.016403
-0.0133484
-0.0165327
-0.0269134
-0.0392604
-0.0409259
-0.0420559
-0.043136
-0.0445024
-0.0463667
-0.0489058
-0.0522428
-0.0564371
-0.0614844
-0.0673143
-0.0737833
-0.0806684
-0.0876636
-0.09438
-0.100353
-0.105061
-0.107948
-0.10843
-0.105997
-0.100224
-0.0908952
-0.0781462
-0.0626578
-0.0458705
-0.0300749
-0.0180415
-0.012112
-0.0140791
-0.0256116
-0.0457797
-0.0474139
-0.0483958
-0.0492176
-0.0502628
-0.0518093
-0.0540939
-0.0572835
-0.0614648
-0.0666471
-0.0727628
-0.0796632
-0.0871134
-0.0947898
-0.102281
-0.109094
-0.11467
-0.118409
-0.119681
-0.117882
-0.11248
-0.103104
-0.0896866
-0.0726823
-0.053361
-0.0340655
-0.0180251
-0.00849552
-0.00854855
-0.0210058
-0.0524893
-0.054211
-0.054975
-0.0553497
-0.0558266
-0.0567904
-0.058565
-0.0613744
-0.0653354
-0.0704674
-0.0766998
-0.0838715
-0.091729
-0.0999262
-0.108031
-0.115513
-0.121788
-0.126217
-0.128117
-0.126824
-0.121713
-0.112281
-0.0982776
-0.0799175
-0.0582237
-0.035431
-0.0150456
-0.00119653
0.00148943
-0.0114675
-0.0594478
-0.061432
-0.0618531
-0.0614946
-0.0610645
-0.0611121
-0.0620787
-0.0642557
-0.0677869
-0.072693
-0.0788886
-0.0861888
-0.0943111
-0.102878
-0.111447
-0.119418
-0.126196
-0.131113
-0.133403
-0.132368
-0.127302
-0.117591
-0.10283
-0.083019
-0.0589095
-0.0325079
-0.00739654
0.0115474
0.0179562
0.00526499
-0.0668878
-0.0693477
-0.0691782
-0.067644
-0.0658489
-0.0645774
-0.0644117
-0.0657089
-0.0686258
-0.0731655
-0.0792115
-0.0865386
-0.0948266
-0.103658
-0.112531
-0.120844
-0.127935
-0.133078
-0.135493
-0.13439
-0.128988
-0.118574
-0.10261
-0.0809205
-0.0539779
-0.0235356
0.00694389
0.0319947
0.0434102
0.0323891
-0.0754018
-0.0784904
-0.0772204
-0.0738179
-0.0700487
-0.0669936
-0.0653712
-0.0655774
-0.0677488
-0.0718411
-0.077679
-0.0849818
-0.0933742
-0.102389
-0.111473
-0.119984
-0.127207
-0.132356
-0.134593
-0.133047
-0.126838
-0.115148
-0.0973112
-0.0729993
-0.0423311
-0.00694306
0.0300874
0.0628576
0.0812622
0.074528
-0.0863665
-0.0898407
-0.0864052
-0.0800563
-0.0735262
-0.0681828
-0.0648148
-0.0637875
-0.0651596
-0.0687951
-0.0744315
-0.0817105
-0.0901891
-0.0993415
-0.108559
-0.117148
-0.124336
-0.129273
-0.131041
-0.128675
-0.121172
-0.107581
-0.0870663
-0.0590841
-0.023637
0.0181891
0.0637426
0.107067
0.135953
0.138238
-0.102938
-0.105166
-0.0973236
-0.0863843
-0.0761181
-0.0679764
-0.0626471
-0.0603408
-0.0609513
-0.0641971
-0.0696956
-0.0769921
-0.0855662
-0.094828
-0.104112
-0.112671
-0.119674
-0.124202
-0.125253
-0.121756
-0.112547
-0.096516
-0.0726011
-0.0399746
0.00169828
0.0518462
0.10847
0.166983
0.212495
0.231949
-0.132276
-0.127556
-0.110784
-0.0928195
-0.0776268
-0.0661927
-0.0587897
-0.0552779
-0.0552692
-0.0582703
-0.0637461
-0.0711325
-0.0798287
-0.0891826
-0.0984767
-0.106915
-0.113614
-0.117592
-0.117771
-0.112968
-0.101863
-0.0831332
-0.0554205
-0.017475
0.0316409
0.0922502
0.163748
0.24257
0.314723
0.367294
-0.19054
-0.160595
-0.127343
-0.0990043
-0.0774473
-0.0623443
-0.0529924
-0.0485709
-0.0482503
-0.0512615
-0.0568991
-0.0644915
-0.0733685
-0.0828302
-0.0921227
-0.100416
-0.106789
-0.110212
-0.109544
-0.103505
-0.0907372
-0.069606
-0.0384181
0.00464951
0.0615208
0.134121
0.224285
0.331339
0.44477
0.571061
-0.321627
-0.200313
-0.138817
-0.0974678
-0.0697869
-0.0522494
-0.0423768
-0.0382667
-0.0385472
-0.0422181
-0.0484757
-0.0566038
-0.0659125
-0.0756952
-0.085196
-0.0935843
-0.0999353
-0.10321
-0.102234
-0.0956082
-0.0820697
-0.0597774
-0.0267499
0.0193985
0.0817802
0.164758
0.274814
0.420482
0.608793
0.898305
-0.649038
-0.236824
-0.1074
-0.0625037
-0.0379163
-0.0241975
-0.0184569
-0.0180462
-0.021287
-0.0272584
-0.0353204
-0.0448935
-0.0553907
-0.0661842
-0.0765787
-0.0857901
-0.0929306
-0.0969981
-0.0968859
-0.0914163
-0.0788269
-0.0575824
-0.025687
0.0194494
0.0815165
0.166736
0.287556
0.472322
0.778451
1.3723
)
;

boundaryField
{
    movingWall
    {
        type            zeroGradient;
    }
    fixedWalls
    {
        type            zeroGradient;
    }
    frontAndBack
    {
        type            empty;
    }
}


// ************************************************************************* //
