/*--------------------------------*- C++ -*----------------------------------*\
  =========                 |
  \\      /  F ield         | OpenFOAM: The Open Source CFD Toolbox
   \\    /   O peration     | Website:  https://openfoam.org
    \\  /    A nd           | Version:  7
     \\/     M anipulation  |
\*---------------------------------------------------------------------------*/
FoamFile
{
    version     2.0;
    format      ascii;
    class       volScalarField;
    location    "950";
    object      epsilon;
}
// * * * * * * * * * * * * * * * * * * * * * * * * * * * * * * * * * * * * * //

dimensions      [0 2 -3 0 0 0 0];

internalField   nonuniform List<scalar> 
4500
(
789.607
724.717
675.056
641.444
616.337
596.999
581.733
569.399
559.236
550.727
543.512
537.331
531.994
527.355
523.302
519.746
516.618
513.86
511.426
509.275
507.376
505.702
504.228
502.934
501.803
500.821
499.973
499.247
498.635
498.126
497.712
497.386
497.141
496.972
496.873
496.839
496.865
496.947
497.082
497.265
497.495
497.767
498.079
498.429
498.813
499.229
499.675
500.148
500.646
501.168
501.71
502.272
502.849
503.44
504.042
504.653
505.271
505.893
506.516
507.139
507.757
508.367
508.964
509.541
510.09
510.604
511.077
511.507
511.903
512.283
512.683
513.156
513.772
514.611
515.74
180.467
258.6
265.807
255.427
244.809
236.24
229.47
224.046
219.618
215.941
212.845
210.208
207.941
205.978
204.268
202.77
201.455
200.297
199.274
198.371
197.573
196.869
196.248
195.702
195.223
194.804
194.442
194.129
193.863
193.64
193.455
193.306
193.19
193.105
193.048
193.018
193.012
193.028
193.065
193.123
193.199
193.292
193.402
193.527
193.665
193.817
193.981
194.156
194.342
194.537
194.74
194.951
195.169
195.393
195.621
195.853
196.089
196.326
196.564
196.803
197.04
197.275
197.505
197.729
197.944
198.148
198.34
198.518
198.685
198.847
199.015
199.204
199.434
199.728
200.11
52.4732
112.464
134.457
135.922
132.522
128.669
125.265
122.401
120.007
117.993
116.284
114.823
113.562
112.469
111.515
110.679
109.944
109.296
108.724
108.219
107.772
107.376
107.028
106.72
106.451
106.215
106.01
105.833
105.682
105.554
105.448
105.361
105.293
105.242
105.207
105.187
105.18
105.185
105.202
105.229
105.268
105.316
105.372
105.438
105.511
105.591
105.678
105.771
105.869
105.973
106.082
106.194
106.311
106.43
106.553
106.677
106.803
106.93
107.058
107.186
107.313
107.44
107.563
107.684
107.799
107.907
108.007
108.098
108.181
108.258
108.335
108.422
108.532
108.683
108.895
18.9423
52.8112
76.111
83.4465
84.1244
82.8547
81.1903
79.5846
78.1513
76.9017
75.8187
74.8793
74.0618
73.3479
72.7222
72.1719
71.6868
71.2581
70.8788
70.5429
70.2455
69.9822
69.7494
69.544
69.3633
69.205
69.067
68.9476
68.8451
68.7581
68.6854
68.6259
68.5785
68.5424
68.5167
68.5007
68.4936
68.4945
68.503
68.5189
68.5415
68.5705
68.6054
68.6459
68.6915
68.7418
68.7965
68.8552
68.9177
68.9835
69.0525
69.1241
69.1982
69.2744
69.3523
69.4315
69.5118
69.5928
69.6742
69.7557
69.8369
69.9171
69.9958
70.0717
70.1438
70.2105
70.2705
70.3231
70.3685
70.409
70.4496
70.4987
70.5684
70.6736
70.8339
8.1872
25.0217
43.8942
53.7537
57.1337
57.7145
57.2786
56.5262
55.7185
54.9491
54.2478
53.6201
53.0624
52.5681
52.1302
51.742
51.3976
51.0917
50.82
50.5786
50.3641
50.1737
50.005
49.8557
49.7242
49.6086
49.5076
49.4199
49.3443
49.28
49.226
49.1814
49.1457
49.118
49.0979
49.0847
49.0781
49.0773
49.0818
49.0917
49.1064
49.1257
49.1493
49.1769
49.2082
49.2429
49.2807
49.3215
49.3649
49.4108
49.4588
49.5089
49.5606
49.6138
49.6681
49.7234
49.7795
49.836
49.8927
49.9495
50.006
50.0617
50.116
50.1681
50.2168
50.261
50.2994
50.3316
50.358
50.3809
50.4052
50.4387
50.4928
50.5812
50.7205
4.2188
11.9892
24.7098
34.5695
39.5749
41.5705
42.1325
42.0729
41.7614
41.3618
40.9462
40.5459
40.1736
39.8334
39.5253
39.2478
38.9985
38.7751
38.575
38.3962
38.2364
38.094
37.9673
37.8548
37.7554
37.6677
37.5909
37.524
37.4662
37.4168
37.3752
37.3407
37.3128
37.2911
37.275
37.2642
37.2584
37.257
37.2597
37.2663
37.2766
37.2904
37.3074
37.3275
37.3503
37.3757
37.4035
37.4336
37.4656
37.4994
37.5349
37.5719
37.6101
37.6494
37.6895
37.7303
37.7715
37.8131
37.8548
37.8964
37.9378
37.9784
38.0178
38.0552
38.0896
38.12
38.1457
38.1662
38.1822
38.1963
38.213
38.2399
38.287
38.3666
38.4921
2.53586
6.06763
13.4269
21.5411
27.1065
30.0891
31.4755
32.0206
32.1462
32.069
31.8979
31.6884
31.4685
31.2526
31.0476
30.8568
30.6813
30.521
30.3754
30.2438
30.1251
30.0186
29.9231
29.838
29.7624
29.6955
29.6366
29.5852
29.5407
29.5025
29.4703
29.4435
29.4217
29.4047
29.3921
29.3836
29.3789
29.3777
29.3797
29.3846
29.3924
29.4029
29.4159
29.4313
29.4488
29.4684
29.4897
29.5128
29.5375
29.5635
29.5908
29.6192
29.6485
29.6786
29.7094
29.7405
29.772
29.8037
29.8354
29.867
29.8982
29.9287
29.9581
29.9856
30.0106
30.0322
30.0497
30.0632
30.0735
30.083
30.0962
30.1197
30.1623
30.2345
30.3468
1.72014
3.39495
7.19137
12.8165
17.9493
21.4137
23.4192
24.4852
25.0083
25.2292
25.2842
25.2494
25.1674
25.0624
24.9482
24.8326
24.7203
24.6137
24.514
24.4218
24.3374
24.2604
24.1908
24.1281
24.072
24.0221
23.9779
23.9393
23.9057
23.8769
23.8525
23.8323
23.8159
23.8032
23.7938
23.7877
23.7844
23.7839
23.786
23.7902
23.7967
23.8053
23.8159
23.8283
23.8424
23.858
23.8751
23.8936
23.9132
23.9339
23.9556
23.9781
24.0013
24.0251
24.0492
24.0737
24.0984
24.1231
24.1477
24.1722
24.1962
24.2196
24.2419
24.2625
24.2809
24.2965
24.3088
24.3179
24.3248
24.3319
24.343
24.3641
24.4026
24.467
24.5652
1.27853
2.13151
3.97937
7.32524
11.3239
14.7132
17.0625
18.5327
19.4051
19.9031
20.1732
20.3058
20.3557
20.3562
20.3275
20.2824
20.2286
20.1713
20.1134
20.057
20.0032
19.9528
19.9061
19.8633
19.8246
19.7897
19.7587
19.7314
19.7076
19.6872
19.67
19.6558
19.6445
19.6359
19.6298
19.6261
19.6247
19.6254
19.6281
19.6324
19.6385
19.6461
19.6553
19.6658
19.6777
19.6908
19.7051
19.7203
19.7365
19.7535
19.7712
19.7896
19.8084
19.8276
19.8471
19.8668
19.8864
19.9061
19.9256
19.9448
19.9636
19.9817
19.9988
20.0145
20.0281
20.0394
20.0481
20.0544
20.0592
20.0646
20.0743
20.093
20.127
20.1831
20.267
1.01869
1.48311
2.38188
4.15478
6.80161
9.62717
11.9836
13.6873
14.8322
15.5744
16.0458
16.3399
16.5189
16.623
16.6785
16.7023
16.7057
16.6961
16.6786
16.6564
16.632
16.6068
16.5819
16.558
16.5356
16.5151
16.4964
16.4799
16.4654
16.4531
16.4428
16.4345
16.4282
16.4238
16.4212
16.4203
16.421
16.4233
16.427
16.4321
16.4383
16.4457
16.4543
16.4639
16.4745
16.486
16.4984
16.5115
16.5253
16.5397
16.5546
16.57
16.5857
16.6016
16.6176
16.6337
16.6497
16.6656
16.6813
16.6966
16.7114
16.7256
16.7388
16.7506
16.7608
16.769
16.7751
16.7793
16.7826
16.7869
16.7951
16.8113
16.8405
16.8881
16.9583
0.856486
1.12027
1.57153
2.45563
3.97547
5.97825
8.01089
9.72611
11.0249
11.954
12.6007
13.0453
13.349
13.5554
13.6948
13.7877
13.8485
13.8869
13.9097
13.9219
13.9266
13.9265
13.9233
13.9181
13.912
13.9055
13.8991
13.8933
13.8881
13.8839
13.8806
13.8784
13.8773
13.8773
13.8784
13.8806
13.8838
13.8881
13.8934
13.8996
13.9066
13.9144
13.923
13.9323
13.9423
13.9529
13.9642
13.9759
13.9882
14.0008
14.0138
14.027
14.0405
14.054
14.0675
14.0809
14.0942
14.1073
14.1201
14.1324
14.1442
14.1554
14.1656
14.1746
14.1822
14.188
14.1921
14.1948
14.1969
14.2001
14.2067
14.2203
14.2448
14.2842
14.3417
0.751138
0.901882
1.1357
1.57101
2.36209
3.58036
5.07589
6.57156
7.86573
8.89151
9.66657
10.2385
10.6564
10.9608
11.1828
11.345
11.4638
11.551
11.6151
11.6622
11.6969
11.7225
11.7413
11.7553
11.7658
11.7738
11.7801
11.7852
11.7897
11.7938
11.7979
11.802
11.8064
11.8112
11.8164
11.8221
11.8283
11.835
11.8423
11.8501
11.8583
11.867
11.8761
11.8857
11.8957
11.906
11.9168
11.9278
11.9391
11.9507
11.9624
11.9742
11.986
11.9978
12.0095
12.0211
12.0323
12.0433
12.0539
12.064
12.0735
12.0823
12.0902
12.0971
12.1026
12.1066
12.1092
12.1107
12.1118
12.1138
12.1189
12.1298
12.1497
12.1816
12.2277
0.681084
0.763094
0.884561
1.10001
1.49244
2.15026
3.09086
4.2063
5.32813
6.32978
7.15924
7.81699
8.32691
8.71822
9.01769
9.24721
9.42379
9.56035
9.6666
9.74982
9.81548
9.86769
9.90958
9.94353
9.97136
9.99448
10.014
10.0307
10.0453
10.0584
10.0702
10.0812
10.0916
10.1016
10.1114
10.121
10.1306
10.1402
10.1499
10.1598
10.1698
10.1798
10.19
10.2003
10.2108
10.2214
10.2321
10.2429
10.2539
10.2648
10.2758
10.2867
10.2976
10.3082
10.3187
10.3288
10.3386
10.348
10.357
10.3654
10.3732
10.3803
10.3864
10.3916
10.3955
10.3982
10.3996
10.4
10.4002
10.4012
10.4048
10.4131
10.4286
10.4538
10.4902
0.63403
0.671598
0.730768
0.83575
1.02644
1.35691
1.87632
2.58645
3.41896
4.27087
5.05819
5.73808
6.30134
6.75721
7.12188
7.41233
7.64372
7.8286
7.97704
8.09693
8.19441
8.27426
8.34018
8.39508
8.44121
8.48035
8.5139
8.54298
8.56847
8.59108
8.61137
8.62981
8.64676
8.66253
8.67735
8.69141
8.70489
8.7179
8.73054
8.7429
8.75503
8.76695
8.77864
8.79018
8.80159
8.81289
8.8241
8.83521
8.84621
8.85707
8.86778
8.87829
8.88856
8.89855
8.9082
8.91746
8.92629
8.93463
8.94242
8.94961
8.95613
8.96187
8.96673
8.97059
8.97333
8.97489
8.97534
8.97496
8.9743
8.97431
8.97638
8.98227
8.99392
9.01321
9.04133
0.602484
0.610007
0.63217
0.67868
0.768007
0.927183
1.19007
1.58499
2.11209
2.73181
3.38151
4.0041
4.56404
5.04728
5.45396
5.79146
6.06965
6.29853
6.48706
6.64286
6.7722
6.88017
6.97088
7.04758
7.11291
7.16898
7.21746
7.25973
7.29688
7.32982
7.35927
7.38582
7.40997
7.43212
7.45259
7.47166
7.48956
7.50647
7.52254
7.5379
7.55265
7.56686
7.58055
7.59377
7.60658
7.61903
7.63115
7.64296
7.65446
7.66565
7.67651
7.68703
7.69717
7.70689
7.71616
7.72494
7.73317
7.74083
7.74787
7.75422
7.75984
7.76465
7.76855
7.77147
7.77332
7.77406
7.77378
7.77271
7.77133
7.77043
7.77113
7.77483
7.78308
7.79734
7.81853
0.581598
0.568258
0.567053
0.580682
0.61734
0.689625
0.815044
1.01459
1.30566
1.69024
2.14768
2.64103
3.13178
3.59126
4.00373
4.36394
4.67321
4.93622
5.15888
5.34716
5.50658
5.64194
5.75733
5.85616
5.94125
6.01492
6.07909
6.13533
6.18494
6.22897
6.26832
6.3037
6.33573
6.36492
6.39167
6.41634
6.43923
6.46059
6.48061
6.49948
6.51733
6.53429
6.55043
6.56579
6.58045
6.59448
6.60794
6.62087
6.63328
6.64519
6.65661
6.66751
6.67789
6.68773
6.69699
6.70564
6.71365
6.72098
6.7276
6.73346
6.73852
6.74271
6.74598
6.74825
6.74946
6.74962
6.74879
6.74718
6.74521
6.74351
6.743
6.7448
6.75012
6.76014
6.77561
0.568079
0.540126
0.523431
0.51743
0.525304
0.552668
0.607669
0.701329
0.846657
1.05501
1.32993
1.66241
2.03209
2.41414
2.7866
3.13432
3.44925
3.72875
3.97363
4.1866
4.37111
4.53081
4.66914
4.78922
4.89377
4.98516
5.06536
5.13607
5.19872
5.25449
5.30439
5.34928
5.38985
5.42671
5.46036
5.49125
5.51971
5.54608
5.5706
5.59349
5.61495
5.63513
5.65417
5.67213
5.68908
5.70513
5.72035
5.7348
5.74851
5.76153
5.77387
5.78554
5.79653
5.80682
5.81641
5.82527
5.83338
5.8407
5.84722
5.85289
5.85769
5.86156
5.86446
5.86635
5.86718
5.86695
5.86576
5.86377
5.86132
5.85896
5.85742
5.8576
5.86047
5.86697
5.87775
0.559602
0.521507
0.494215
0.475854
0.467123
0.470264
0.488837
0.527918
0.594281
0.695973
0.840597
1.03225
1.26844
1.53938
1.83035
2.12588
2.41303
2.68294
2.93066
3.15433
3.35412
3.53139
3.68811
3.82648
3.94865
4.05666
4.15237
4.23741
4.31321
4.38101
4.44188
4.49674
4.54637
4.59146
4.63258
4.67023
4.70483
4.73674
4.76628
4.79372
4.81928
4.84316
4.86554
4.88654
4.90624
4.92473
4.94212
4.95849
4.97391
4.98842
5.00205
5.01483
5.02676
5.03786
5.0481
5.05748
5.06599
5.07361
5.08031
5.08608
5.09089
5.09471
5.09749
5.09923
5.09989
5.09948
5.09809
5.09587
5.09311
5.09024
5.08786
5.08671
5.08757
5.09119
5.09818
0.5545
0.509542
0.474918
0.448452
0.429644
0.419073
0.418104
0.428877
0.454437
0.498844
0.567017
0.66401
0.793577
0.956396
1.14891
1.36364
1.59092
1.82102
2.04586
2.25963
2.45884
2.64182
2.80825
2.95863
3.09399
3.21558
3.32473
3.42275
3.51091
3.59032
3.66202
3.72691
3.78582
3.83944
3.88839
3.93322
3.97439
4.01231
4.04734
4.07978
4.10991
4.13795
4.1641
4.18854
4.21141
4.23277
4.25274
4.27143
4.28893
4.30529
4.32057
4.33481
4.34802
4.36024
4.37144
4.38165
4.39086
4.39904
4.40621
4.41233
4.41741
4.42141
4.42432
4.42613
4.42682
4.42643
4.42501
4.42271
4.41978
4.41657
4.41357
4.41137
4.41062
4.41195
4.41591
0.551578
0.502159
0.462517
0.430613
0.405436
0.386738
0.374813
0.370408
0.374735
0.389544
0.417193
0.460615
0.52306
0.607482
0.715642
0.847209
0.999339
1.16703
1.34408
1.52425
1.70217
1.87373
2.03619
2.18798
2.32843
2.4575
2.57558
2.68332
2.78147
2.87084
2.95226
3.02649
3.09425
3.15622
3.21299
3.26511
3.31305
3.35724
3.39807
3.43586
3.47091
3.50347
3.53379
3.56204
3.58841
3.61302
3.63596
3.65734
3.67728
3.69585
3.71312
3.72914
3.74396
3.75759
3.77006
3.78138
3.79155
3.80057
3.80845
3.81518
3.82076
3.82518
3.82843
3.83051
3.83144
3.83123
3.82996
3.82775
3.82481
3.82143
3.81802
3.81506
3.81308
3.81262
3.81422
0.549997
0.497833
0.454862
0.419311
0.390008
0.366314
0.347991
0.335115
0.328033
0.327378
0.334101
0.349515
0.375307
0.413461
0.46604
0.534794
0.620652
0.723263
0.840805
0.970169
1.10746
1.24861
1.38992
1.52835
1.66166
1.78835
1.90755
2.01888
2.12232
2.21806
2.30649
2.38803
2.46319
2.53246
2.59634
2.65528
2.70972
2.76008
2.8067
2.84993
2.89006
2.92736
2.96207
2.99441
3.02456
3.05268
3.07889
3.10328
3.12596
3.14705
3.16661
3.18472
3.20142
3.21676
3.23076
3.24345
3.25484
3.26495
3.27378
3.28134
3.28764
3.29268
3.29648
3.29904
3.30039
3.30054
3.29959
3.29763
3.29484
3.29148
3.28788
3.28444
3.2816
3.27982
3.27962
0.549196
0.49545
0.450382
0.412443
0.380459
0.353629
0.331457
0.313683
0.300245
0.291252
0.28699
0.287933
0.294771
0.308424
0.330031
0.360892
0.402324
0.455437
0.520857
0.598475
0.687317
0.785601
0.890966
1.00079
1.11252
1.22388
1.33303
1.43859
1.5396
1.63547
1.72589
1.81079
1.89022
1.96437
2.03347
2.09782
2.15771
2.21344
2.26531
2.3136
2.35859
2.40051
2.4396
2.47606
2.51008
2.54182
2.57145
2.59904
2.6247
2.64852
2.67061
2.69103
2.70985
2.72713
2.74289
2.75717
2.77
2.78139
2.79138
2.79998
2.8072
2.81307
2.8176
2.82082
2.82276
2.82346
2.82299
2.82146
2.81902
2.81587
2.81231
2.80867
2.80531
2.80264
2.80116
0.54882
0.494229
0.447927
0.408498
0.374812
0.346017
0.321496
0.300829
0.283749
0.270116
0.259909
0.253214
0.250232
0.251294
0.256863
0.267551
0.2841
0.307348
0.338153
0.377272
0.42521
0.482078
0.54749
0.620553
0.699939
0.784044
0.871158
0.959635
1.04801
1.13506
1.21984
1.30164
1.38001
1.45464
1.5254
1.59226
1.65527
1.71453
1.77019
1.82241
1.87136
1.91724
1.9602
2.00043
2.03807
2.07329
2.10621
2.13696
2.16562
2.19225
2.21695
2.2398
2.26088
2.28022
2.29789
2.31392
2.32834
2.34119
2.35249
2.36229
2.37059
2.37745
2.38289
2.38694
2.38965
2.39107
2.39127
2.39036
2.38845
2.38575
2.38248
2.37892
2.3754
2.37227
2.36999
0.548657
0.493654
0.446683
0.406388
0.371673
0.341678
0.31574
0.293358
0.274166
0.257902
0.244398
0.233559
0.225367
0.219876
0.217213
0.217587
0.221296
0.228722
0.240335
0.25667
0.278288
0.305721
0.339393
0.379536
0.426116
0.478796
0.536941
0.599667
0.665925
0.734602
0.804607
0.87494
0.944741
1.0133
1.08007
1.14463
1.20671
1.26611
1.32274
1.37656
1.42758
1.47584
1.52141
1.56438
1.60483
1.64287
1.67858
1.71205
1.74339
1.77261
1.79977
1.82496
1.84823
1.86963
1.88921
1.90702
1.92309
1.93746
1.95017
1.96127
1.97078
1.97876
1.98525
1.99029
1.99394
1.99627
1.99734
1.99725
1.99612
1.99411
1.99143
1.9883
1.98499
1.98183
1.97924
0.548592
0.493406
0.446107
0.405351
0.370059
0.339371
0.312608
0.289233
0.268829
0.251075
0.235728
0.222608
0.211595
0.202617
0.19565
0.190716
0.187888
0.187286
0.189086
0.193519
0.200869
0.211469
0.225679
0.243868
0.26637
0.293444
0.325224
0.361686
0.402619
0.447634
0.496183
0.547606
0.601178
0.656168
0.711876
0.767668
0.822995
0.877399
0.930512
0.98205
1.0318
1.07961
1.12539
1.16906
1.21061
1.25003
1.28733
1.32253
1.35567
1.38678
1.41586
1.44292
1.46802
1.4912
1.51248
1.5319
1.54952
1.56535
1.57945
1.59187
1.60265
1.61184
1.6195
1.62568
1.63046
1.63389
1.63607
1.63706
1.63699
1.636
1.63425
1.63194
1.62929
1.62659
1.62421
0.548569
0.49331
0.445866
0.40489
0.369304
0.338249
0.311036
0.287114
0.266042
0.247465
0.231105
0.216739
0.204196
0.193345
0.184094
0.176382
0.17018
0.165488
0.162338
0.160793
0.160948
0.162932
0.16691
0.173077
0.181656
0.192888
0.207014
0.224254
0.244789
0.268724
0.296075
0.326749
0.360542
0.397143
0.436158
0.47713
0.519575
0.563004
0.606949
0.650977
0.694708
0.737809
0.780004
0.821063
0.860804
0.899081
0.935783
0.970828
1.00416
1.03573
1.06552
1.09347
1.11957
1.14382
1.16624
1.18684
1.20565
1.22269
1.23801
1.25166
1.26368
1.27412
1.28306
1.29055
1.29665
1.30145
1.30501
1.30742
1.30878
1.3092
1.30883
1.30782
1.30635
1.30466
1.30308
0.548561
0.493276
0.445775
0.404707
0.368989
0.337759
0.310324
0.286125
0.264707
0.245702
0.22881
0.213787
0.200435
0.188595
0.17814
0.168972
0.161016
0.154218
0.148548
0.143992
0.140556
0.138266
0.137167
0.137327
0.138831
0.141788
0.146325
0.152588
0.160732
0.170915
0.183289
0.197983
0.215094
0.234666
0.256683
0.281062
0.307653
0.336239
0.366552
0.398287
0.431113
0.464695
0.4987
0.532817
0.566757
0.600258
0.633093
0.665063
0.696
0.725764
0.754245
0.781357
0.80699
0.831089
0.853619
0.874558
0.893903
0.91166
0.92785
0.942502
0.955657
0.967359
0.977663
0.986624
0.994304
1.00077
1.00607
1.0103
1.01353
1.01585
1.01737
1.0182
1.0185
1.01844
1.01827
0.548559
0.493266
0.445745
0.404642
0.368873
0.337571
0.31004
0.285716
0.264139
0.24493
0.227779
0.212432
0.198676
0.186338
0.175272
0.165362
0.156511
0.148642
0.141694
0.13562
0.13039
0.125983
0.122391
0.11962
0.117686
0.116617
0.116455
0.117254
0.11908
0.122013
0.126141
0.131563
0.138379
0.14669
0.156589
0.168154
0.181436
0.196459
0.213205
0.231616
0.251591
0.272988
0.295629
0.319307
0.343797
0.368862
0.394264
0.41977
0.44516
0.470233
0.494805
0.518724
0.541852
0.564052
0.585228
0.605303
0.624222
0.64195
0.658464
0.67376
0.687843
0.70073
0.712444
0.723017
0.732485
0.740889
0.748272
0.754682
0.760173
0.764808
0.768657
0.771804
0.774351
0.776419
0.778189
0.548558
0.493263
0.445735
0.404622
0.368836
0.337509
0.309944
0.285572
0.26393
0.244636
0.227375
0.211885
0.197946
0.185378
0.174026
0.163764
0.154484
0.146098
0.138532
0.131724
0.125625
0.120197
0.11541
0.111242
0.10768
0.10472
0.102362
0.100617
0.0995
0.0990368
0.0992589
0.100206
0.101924
0.104467
0.107894
0.112267
0.11765
0.124106
0.13169
0.140449
0.150413
0.161594
0.173981
0.187535
0.202194
0.217867
0.234441
0.251783
0.269746
0.288172
0.306901
0.325774
0.344646
0.363369
0.3818
0.399817
0.417311
0.434189
0.450374
0.465804
0.480431
0.494219
0.507146
0.519196
0.530365
0.540656
0.550078
0.558648
0.566389
0.57333
0.579511
0.584981
0.589802
0.594052
0.597837
0.548558
0.493263
0.445733
0.404617
0.368827
0.337493
0.309918
0.285532
0.26387
0.244548
0.227249
0.211707
0.197701
0.185045
0.173583
0.163183
0.153733
0.145139
0.137321
0.130213
0.123758
0.11791
0.112631
0.10789
0.103663
0.099932
0.0966848
0.0939146
0.0916196
0.0898032
0.0884736
0.0876441
0.0873327
0.0875625
0.0883618
0.0897634
0.0918048
0.0945275
0.0979764
0.102198
0.107239
0.113145
0.119956
0.127704
0.136411
0.146085
0.156716
0.168279
0.180724
0.193984
0.207975
0.222593
0.237725
0.253251
0.269037
0.284949
0.300852
0.316619
0.332133
0.347286
0.361985
0.376147
0.389707
0.402609
0.414811
0.426283
0.437006
0.446967
0.456167
0.464613
0.472322
0.479319
0.485644
0.491347
0.496489
0.548558
0.493263
0.445733
0.404617
0.368827
0.337493
0.309918
0.285532
0.26387
0.244548
0.227249
0.211707
0.197701
0.185045
0.173583
0.163183
0.153733
0.145138
0.137321
0.130212
0.123758
0.11791
0.112631
0.10789
0.103663
0.0999317
0.0966844
0.0939141
0.0916191
0.0898026
0.0884729
0.0876433
0.0873318
0.0875615
0.0883607
0.0897621
0.0918033
0.0945259
0.0979745
0.102196
0.107237
0.113143
0.119953
0.127701
0.136408
0.146081
0.156713
0.168275
0.18072
0.19398
0.207971
0.222589
0.237721
0.253247
0.269033
0.284945
0.300848
0.316615
0.332129
0.347282
0.361981
0.376144
0.389703
0.402605
0.414807
0.426279
0.437001
0.446962
0.456161
0.464607
0.472315
0.479315
0.485643
0.491352
0.496505
0.548558
0.493263
0.445735
0.404622
0.368836
0.337509
0.309944
0.285572
0.26393
0.244636
0.227375
0.211884
0.197946
0.185377
0.174026
0.163763
0.154484
0.146097
0.138531
0.131722
0.125623
0.120195
0.115407
0.111239
0.107677
0.104716
0.102357
0.100611
0.0994937
0.0990294
0.0992503
0.100196
0.101912
0.104454
0.107878
0.112249
0.11763
0.124083
0.131665
0.14042
0.150381
0.161559
0.173942
0.187492
0.202147
0.217817
0.234388
0.251727
0.269686
0.288109
0.306836
0.325707
0.344577
0.363298
0.381728
0.399744
0.417237
0.434115
0.450299
0.46573
0.480357
0.494145
0.507072
0.519122
0.530291
0.540582
0.550003
0.558572
0.566312
0.573253
0.579437
0.584915
0.58975
0.594023
0.597842
0.548559
0.493266
0.445745
0.404642
0.368873
0.337571
0.31004
0.285716
0.264138
0.244929
0.227779
0.212431
0.198675
0.186336
0.175271
0.16536
0.156509
0.148639
0.14169
0.135616
0.130384
0.125976
0.122383
0.119611
0.117674
0.116603
0.116439
0.117235
0.119058
0.121987
0.126111
0.131527
0.138338
0.146643
0.156536
0.168092
0.181367
0.196381
0.213119
0.231521
0.251487
0.272876
0.295508
0.319178
0.343661
0.368719
0.394114
0.419615
0.445
0.470068
0.494636
0.518552
0.541677
0.563876
0.58505
0.605123
0.624042
0.641769
0.658284
0.67358
0.687663
0.70055
0.712265
0.722838
0.732306
0.740709
0.748091
0.7545
0.759991
0.764627
0.768483
0.771646
0.77422
0.776333
0.778166
0.548561
0.493276
0.445775
0.404707
0.368988
0.337758
0.310324
0.286124
0.264706
0.245701
0.228808
0.213785
0.200432
0.188591
0.178136
0.168967
0.161009
0.15421
0.148538
0.143979
0.14054
0.138247
0.137145
0.1373
0.138799
0.14175
0.146281
0.152535
0.16067
0.170842
0.183205
0.197887
0.214983
0.23454
0.256542
0.280906
0.307481
0.336052
0.366351
0.398072
0.430886
0.464455
0.498451
0.532558
0.56649
0.599984
0.632813
0.664778
0.695711
0.725472
0.753949
0.78106
0.806691
0.830789
0.853318
0.874258
0.893602
0.91136
0.92755
0.942203
0.955358
0.967061
0.977365
0.986327
0.994006
1.00047
1.00577
1.01
1.01323
1.01555
1.01708
1.01794
1.01828
1.01828
1.01822
0.548569
0.49331
0.445866
0.404889
0.369303
0.338248
0.311035
0.287112
0.266039
0.247462
0.2311
0.216733
0.204189
0.193336
0.184083
0.176368
0.170163
0.165467
0.162313
0.160762
0.16091
0.162886
0.166854
0.173011
0.181577
0.192794
0.206902
0.224124
0.244637
0.268549
0.295877
0.326527
0.360295
0.396872
0.435863
0.476815
0.51924
0.562652
0.606581
0.650597
0.694316
0.737409
0.779596
0.820649
0.860384
0.898658
0.935357
0.9704
1.00373
1.0353
1.06509
1.09304
1.11914
1.14339
1.16581
1.18641
1.20522
1.22227
1.23759
1.25124
1.26325
1.2737
1.28264
1.29013
1.29623
1.30102
1.30458
1.30699
1.30835
1.30877
1.30841
1.30744
1.30603
1.30444
1.303
0.548592
0.493406
0.446106
0.40535
0.370057
0.339369
0.312604
0.289228
0.268823
0.251067
0.235717
0.222595
0.211579
0.202597
0.195624
0.190685
0.187849
0.187238
0.189027
0.193447
0.200782
0.211362
0.225551
0.243714
0.266187
0.293228
0.324974
0.361399
0.402296
0.447274
0.495789
0.547179
0.600722
0.655686
0.711372
0.767145
0.822457
0.876849
0.929952
0.981483
1.03123
1.07904
1.12481
1.16848
1.21003
1.24945
1.28675
1.32195
1.35509
1.38621
1.41528
1.44235
1.46746
1.49063
1.51191
1.53134
1.54896
1.56479
1.5789
1.59132
1.60209
1.61128
1.61894
1.62513
1.62991
1.63334
1.6355
1.63649
1.63642
1.63543
1.63369
1.63143
1.62887
1.6263
1.62413
0.548657
0.493653
0.446681
0.406385
0.371669
0.341672
0.315732
0.293348
0.274153
0.257886
0.244376
0.233532
0.225333
0.219833
0.217159
0.21752
0.221212
0.228618
0.240206
0.256511
0.278094
0.305486
0.339112
0.379205
0.425732
0.478359
0.536452
0.599128
0.665342
0.733979
0.80395
0.874255
0.944034
1.01258
1.07933
1.14388
1.20595
1.26535
1.32198
1.3758
1.42682
1.47508
1.52066
1.56363
1.60409
1.64212
1.67784
1.71132
1.74265
1.77188
1.79905
1.82424
1.84751
1.86892
1.8885
1.90631
1.92239
1.93676
1.94948
1.96057
1.97009
1.97807
1.98455
1.9896
1.99325
1.99556
1.99662
1.99652
1.99538
1.99337
1.99071
1.98764
1.98446
1.98149
1.97918
0.54882
0.494228
0.447924
0.408492
0.374804
0.346005
0.321481
0.300809
0.283722
0.270083
0.259867
0.253159
0.250163
0.251206
0.256753
0.267411
0.283923
0.307126
0.337878
0.376935
0.424804
0.481598
0.546934
0.619922
0.699239
0.783281
0.870341
0.958773
1.04711
1.13413
1.21889
1.30068
1.37904
1.45366
1.52442
1.59128
1.65429
1.71356
1.76922
1.82145
1.87041
1.91629
1.95927
1.9995
2.03715
2.07237
2.1053
2.13606
2.16472
2.19135
2.21606
2.23892
2.26
2.27935
2.29702
2.31305
2.32748
2.34033
2.35164
2.36143
2.36974
2.3766
2.38203
2.38608
2.38879
2.39019
2.39038
2.38944
2.38752
2.38482
2.38158
2.37811
2.37475
2.37187
2.36997
0.549195
0.495446
0.450375
0.412431
0.380442
0.353607
0.331427
0.313645
0.300196
0.291189
0.286908
0.287827
0.294635
0.308247
0.329804
0.360602
0.401957
0.454981
0.520302
0.597814
0.68655
0.784734
0.890008
0.999757
1.11142
1.22273
1.33185
1.43738
1.53838
1.63424
1.72466
1.80955
1.88899
1.96314
2.03226
2.09661
2.15651
2.21225
2.26414
2.31244
2.35744
2.39937
2.43847
2.47494
2.50896
2.54072
2.57035
2.59795
2.62361
2.64744
2.66953
2.68996
2.70879
2.72607
2.74183
2.75612
2.76895
2.78035
2.79034
2.79894
2.80616
2.81203
2.81656
2.81978
2.8217
2.82239
2.8219
2.82034
2.81787
2.81472
2.8112
2.80766
2.80451
2.80219
2.80122
0.549994
0.497825
0.454848
0.419289
0.389977
0.366273
0.347938
0.335046
0.327943
0.32726
0.333945
0.34931
0.375036
0.413106
0.46558
0.534211
0.61993
0.722395
0.839792
0.969022
1.1062
1.24725
1.38849
1.52687
1.66014
1.78681
1.906
2.01733
2.12077
2.21653
2.30497
2.38653
2.4617
2.53099
2.59488
2.65384
2.7083
2.75866
2.8053
2.84854
2.88868
2.926
2.96072
2.99307
3.02323
3.05136
3.07758
3.10197
3.12467
3.14576
3.16533
3.18344
3.20015
3.21549
3.2295
3.24219
3.25358
3.26369
3.27252
3.28009
3.28639
3.29143
3.29523
3.29778
3.29911
3.29924
3.29825
3.29625
3.29343
3.29006
3.28651
3.2832
3.28064
3.27931
3.27978
0.551572
0.502144
0.462491
0.430575
0.405384
0.386669
0.374721
0.370286
0.374571
0.389323
0.416894
0.460212
0.522523
0.606781
0.714752
0.846117
0.99805
1.16556
1.34246
1.52252
1.70035
1.87185
2.03428
2.18606
2.3265
2.45559
2.57369
2.68144
2.77961
2.86901
2.95045
3.0247
3.09249
3.15448
3.21127
3.26341
3.31137
3.35558
3.39642
3.43422
3.46928
3.50187
3.53219
3.56046
3.58683
3.61146
3.6344
3.65579
3.67573
3.69431
3.71158
3.72761
3.74243
3.75607
3.76855
3.77987
3.79004
3.79907
3.80695
3.81368
3.81926
3.82368
3.82693
3.829
3.8299
3.82966
3.82834
3.82607
3.82308
3.81968
3.81632
3.81354
3.81191
3.81205
3.81451
0.55449
0.509515
0.474874
0.448389
0.429558
0.418956
0.417945
0.428659
0.454136
0.498425
0.566438
0.663225
0.792544
0.95509
1.14733
1.36182
1.58889
1.81885
2.04358
2.25729
2.45647
2.63945
2.80589
2.95629
3.09168
3.2133
3.32248
3.42055
3.50873
3.58817
3.6599
3.72483
3.78376
3.83741
3.88638
3.93123
3.97242
4.01036
4.0454
4.07786
4.108
4.13605
4.16222
4.18667
4.20954
4.23091
4.25089
4.26959
4.28709
4.30346
4.31875
4.33299
4.34621
4.35843
4.36964
4.37985
4.38906
4.39725
4.40441
4.41054
4.41561
4.41961
4.42252
4.42431
4.42498
4.42453
4.42305
4.42068
4.41767
4.41442
4.41148
4.40949
4.40919
4.41127
4.41636
0.559583
0.521462
0.494144
0.475753
0.466982
0.470068
0.48856
0.527523
0.593716
0.69517
0.839487
1.03078
1.2666
1.53718
1.82787
2.12319
2.41021
2.68004
2.92774
3.15142
3.35124
3.52854
3.68531
3.82373
3.94595
4.05401
4.14977
4.23485
4.31069
4.37852
4.43942
4.49431
4.54398
4.58909
4.63024
4.6679
4.70252
4.73445
4.76401
4.79146
4.81703
4.84093
4.86332
4.88433
4.90404
4.92254
4.93993
4.95631
4.97173
4.98625
4.99989
5.01267
5.02461
5.03571
5.04595
5.05534
5.06385
5.07147
5.07817
5.08394
5.08875
5.09256
5.09534
5.09706
5.09768
5.09721
5.09573
5.0934
5.09053
5.08761
5.08528
5.08438
5.08579
5.09037
5.09879
0.568046
0.540055
0.523319
0.517269
0.525073
0.552333
0.607175
0.700596
0.845582
1.05349
1.3279
1.65988
2.02915
2.41088
2.78314
3.13077
3.44567
3.72519
3.97012
4.18314
4.36773
4.52749
4.66589
4.78604
4.89065
4.98209
5.06235
5.13311
5.19579
5.25161
5.30154
5.34646
5.38706
5.42394
5.45762
5.48853
5.51701
5.54339
5.56793
5.59083
5.61231
5.6325
5.65154
5.66952
5.68648
5.70253
5.71776
5.73221
5.74593
5.75896
5.7713
5.78297
5.79396
5.80426
5.81385
5.82272
5.83082
5.83815
5.84466
5.85034
5.85513
5.859
5.86189
5.86375
5.86453
5.86423
5.86291
5.86077
5.85819
5.85573
5.85423
5.85469
5.85824
5.86593
5.8785
0.581544
0.568148
0.56688
0.580426
0.616956
0.689037
0.814135
1.0132
1.30366
1.68754
2.14433
2.63718
3.1276
3.58692
3.99935
4.35958
4.66893
4.93203
5.15478
5.34317
5.50268
5.63813
5.7536
5.8525
5.93765
6.01139
6.07561
6.1319
6.18155
6.22562
6.265
6.30042
6.33248
6.36168
6.38846
6.41315
6.43606
6.45743
6.47747
6.49634
6.51421
6.53118
6.54733
6.5627
6.57736
6.5914
6.60487
6.6178
6.63021
6.64213
6.65354
6.66445
6.67484
6.68468
6.69394
6.70259
6.7106
6.71793
6.72455
6.73041
6.73547
6.73966
6.74291
6.74515
6.7463
6.74635
6.74536
6.74356
6.74138
6.73954
6.73904
6.74116
6.74729
6.75877
6.77648
0.6024
0.609839
0.631903
0.678265
0.767348
0.926113
1.18836
1.58242
2.10857
2.72746
3.37659
3.99885
4.55868
5.04194
5.44872
5.78634
6.06468
6.2937
6.48236
6.63827
6.76772
6.8758
6.96659
7.04337
7.10877
7.16489
7.21342
7.25574
7.29294
7.32591
7.35539
7.38198
7.40615
7.42832
7.44881
7.4679
7.48582
7.50274
7.51882
7.53419
7.54895
7.56317
7.57687
7.59009
7.60291
7.61537
7.62749
7.6393
7.65081
7.662
7.67286
7.68338
7.69352
7.70325
7.71252
7.72129
7.72953
7.73719
7.74422
7.75058
7.7562
7.761
7.76489
7.76777
7.76953
7.77013
7.76965
7.76831
7.76665
7.76553
7.7662
7.77024
7.77944
7.79548
7.81944
0.633903
0.671346
0.73035
0.835057
1.02526
1.35491
1.87316
2.582
3.41343
4.26465
5.05167
5.73151
6.29488
6.75093
7.1158
7.40645
7.63802
7.82307
7.97166
8.09167
8.18926
8.26921
8.33522
8.3902
8.43639
8.47559
8.5092
8.53832
8.56385
8.58649
8.60681
8.62528
8.64226
8.65804
8.67288
8.68696
8.70045
8.71347
8.72613
8.7385
8.75064
8.76256
8.77426
8.7858
8.79722
8.80852
8.81973
8.83085
8.84184
8.85271
8.86342
8.87393
8.88421
8.89419
8.90384
8.91311
8.92193
8.93026
8.93806
8.94525
8.95177
8.95751
8.96235
8.96616
8.96879
8.97018
8.97036
8.96963
8.96858
8.96826
8.97022
8.97644
8.98918
9.01061
9.04214
0.680892
0.762711
0.883889
1.0988
1.49025
2.14654
3.08538
4.19938
5.32037
6.32173
7.15124
7.80921
8.3194
8.711
9.01073
9.24048
9.41726
9.554
9.6604
9.74375
9.80952
9.86183
9.9038
9.93782
9.96572
9.9889
10.0085
10.0252
10.0399
10.053
10.0648
10.0759
10.0863
10.0963
10.1061
10.1157
10.1253
10.135
10.1447
10.1545
10.1645
10.1746