/*--------------------------------*- C++ -*----------------------------------*\
  =========                 |
  \\      /  F ield         | OpenFOAM: The Open Source CFD Toolbox
   \\    /   O peration     | Website:  https://openfoam.org
    \\  /    A nd           | Version:  7
     \\/     M anipulation  |
\*---------------------------------------------------------------------------*/
FoamFile
{
    version     2.0;
    format      ascii;
    class       volScalarField;
    location    "950";
    object      k;
}
// * * * * * * * * * * * * * * * * * * * * * * * * * * * * * * * * * * * * * //

dimensions      [0 2 -2 0 0 0 0];

internalField   nonuniform List<scalar> 
4500
(
2.10711
1.99003
1.89804
1.8345
1.78632
1.74875
1.71881
1.69443
1.67421
1.65718
1.64268
1.6302
1.61939
1.60996
1.6017
1.59444
1.58803
1.58238
1.57737
1.57295
1.56904
1.56558
1.56254
1.55986
1.55753
1.55549
1.55374
1.55223
1.55096
1.54991
1.54905
1.54837
1.54786
1.54751
1.54731
1.54724
1.54729
1.54746
1.54774
1.54812
1.5486
1.54916
1.54981
1.55054
1.55133
1.55219
1.55312
1.5541
1.55513
1.55621
1.55733
1.55849
1.55969
1.56091
1.56216
1.56342
1.56469
1.56598
1.56726
1.56855
1.56982
1.57108
1.57231
1.5735
1.57463
1.57569
1.57667
1.57755
1.57836
1.57912
1.57991
1.58084
1.58205
1.58371
1.58596
1.10354
1.6732
1.8379
1.85191
1.83283
1.80901
1.78664
1.7669
1.74973
1.73484
1.72188
1.71057
1.70066
1.69195
1.68428
1.6775
1.67151
1.6662
1.66151
1.65736
1.6537
1.65047
1.64764
1.64516
1.64301
1.64115
1.63956
1.63823
1.63712
1.63622
1.63551
1.63499
1.63463
1.63443
1.63437
1.63445
1.63464
1.63495
1.63536
1.63588
1.63649
1.63719
1.63797
1.63882
1.63975
1.64074
1.6418
1.64291
1.64407
1.64527
1.64651
1.6478
1.64911
1.65044
1.6518
1.65316
1.65454
1.65592
1.6573
1.65867
1.66002
1.66136
1.66266
1.6639
1.66508
1.66615
1.6671
1.66791
1.66858
1.66915
1.66971
1.6704
1.67143
1.67307
1.67564
0.644943
1.23225
1.53537
1.63719
1.66542
1.66864
1.66318
1.65482
1.64581
1.63702
1.62881
1.62129
1.61447
1.60833
1.60283
1.5979
1.59351
1.5896
1.58613
1.58307
1.58037
1.578
1.57594
1.57416
1.57264
1.57135
1.57029
1.56943
1.56875
1.56825
1.56791
1.56772
1.56767
1.56775
1.56795
1.56826
1.56868
1.56918
1.56978
1.57046
1.57123
1.57206
1.57297
1.57394
1.57497
1.57606
1.57719
1.57837
1.57959
1.58085
1.58213
1.58345
1.58479
1.58614
1.5875
1.58887
1.59024
1.5916
1.59295
1.59429
1.59561
1.5969
1.59814
1.59932
1.6004
1.60134
1.60211
1.60267
1.60301
1.60319
1.60332
1.6036
1.60437
1.60604
1.60912
0.463615
0.893401
1.25805
1.43575
1.5127
1.54555
1.55894
1.56332
1.56337
1.56132
1.55829
1.55487
1.55137
1.54798
1.54477
1.54181
1.5391
1.53665
1.53446
1.53253
1.53083
1.52936
1.52811
1.52705
1.52619
1.5255
1.52498
1.52462
1.5244
1.52432
1.52436
1.52453
1.52481
1.52519
1.52567
1.52625
1.52691
1.52765
1.52845
1.52933
1.53027
1.53128
1.53234
1.53345
1.53461
1.53582
1.53706
1.53834
1.53965
1.54099
1.54235
1.54372
1.54512
1.54651
1.54792
1.54931
1.5507
1.55207
1.55343
1.55477
1.55607
1.55734
1.55855
1.55968
1.56068
1.5615
1.5621
1.56243
1.56247
1.5623
1.56207
1.56206
1.5627
1.56457
1.56835
0.39407
0.646738
0.998479
1.23088
1.35547
1.4206
1.45545
1.47456
1.48513
1.49089
1.49385
1.49516
1.49547
1.49521
1.49462
1.49387
1.49306
1.49226
1.49151
1.49084
1.49026
1.48979
1.48943
1.48919
1.48906
1.48904
1.48912
1.48932
1.48961
1.49
1.49048
1.49104
1.49169
1.49242
1.49323
1.4941
1.49504
1.49604
1.49708
1.49819
1.49934
1.50054
1.50178
1.50306
1.50438
1.50573
1.50711
1.50851
1.50993
1.51138
1.51283
1.51429
1.51576
1.51723
1.51869
1.52013
1.52156
1.52296
1.52434
1.52569
1.527
1.52826
1.52945
1.53053
1.53146
1.53218
1.53261
1.53273
1.53251
1.53205
1.53153
1.53132
1.53196
1.53416
1.53874
0.370615
0.488905
0.769299
1.02349
1.18836
1.28645
1.34497
1.38088
1.40366
1.41854
1.4285
1.43532
1.44007
1.44345
1.44589
1.4477
1.44908
1.45017
1.45107
1.45184
1.45255
1.45323
1.45389
1.45457
1.45527
1.45601
1.45679
1.45761
1.45848
1.45941
1.46038
1.4614
1.46248
1.4636
1.46477
1.46598
1.46724
1.46853
1.46986
1.47122
1.47261
1.47404
1.47549
1.47697
1.47847
1.47999
1.48153
1.48308
1.48464
1.48621
1.48778
1.48935
1.49091
1.49246
1.494
1.4955
1.49699
1.49843
1.49984
1.50122
1.50254
1.5038
1.50498
1.50603
1.5069
1.50752
1.50781
1.50774
1.50731
1.5066
1.50588
1.50555
1.50627
1.50885
1.51423
0.364546
0.403111
0.587007
0.823641
1.01304
1.14094
1.22398
1.27842
1.31506
1.34046
1.35856
1.3718
1.38173
1.38935
1.39533
1.40011
1.40404
1.40732
1.41012
1.41258
1.41476
1.41675
1.4186
1.42033
1.42199
1.4236
1.42517
1.42672
1.42826
1.42979
1.43133
1.43287
1.43443
1.436
1.43759
1.43919
1.44081
1.44245
1.44409
1.44575
1.44742
1.44911
1.45081
1.45251
1.45423
1.45595
1.45767
1.45939
1.46111
1.46283
1.46454
1.46623
1.46791
1.46956
1.47119
1.47278
1.47433
1.47583
1.47729
1.4787
1.48005
1.48132
1.48249
1.48351
1.48433
1.48487
1.48505
1.48482
1.48421
1.48333
1.48246
1.48208
1.48291
1.48588
1.49196
0.364603
0.363346
0.460994
0.64658
0.836783
0.985712
1.09154
1.16521
1.21704
1.25428
1.28169
1.30236
1.31829
1.33084
1.34093
1.34918
1.35605
1.36188
1.3669
1.37129
1.37519
1.3787
1.38191
1.38487
1.38763
1.39024
1.39272
1.3951
1.3974
1.39963
1.40182
1.40396
1.40607
1.40816
1.41023
1.41228
1.41431
1.41634
1.41835
1.42035
1.42235
1.42433
1.42631
1.42828
1.43023
1.43218
1.43412
1.43605
1.43795
1.43984
1.44171
1.44355
1.44536
1.44714
1.44887
1.45056
1.4522
1.45377
1.45529
1.45675
1.45813
1.45942
1.4606
1.46161
1.46238
1.46285
1.46294
1.4626
1.46186
1.46085
1.45989
1.45951
1.46046
1.46375
1.4704
0.366685
0.347483
0.386684
0.507132
0.671669
0.826391
0.949252
1.04089
1.10836
1.15845
1.19625
1.22534
1.24815
1.26638
1.28121
1.29348
1.30378
1.31256
1.32014
1.32678
1.33266
1.33794
1.34271
1.34708
1.35112
1.35488
1.35841
1.36175
1.36493
1.36797
1.3709
1.37373
1.37647
1.37915
1.38177
1.38433
1.38685
1.38932
1.39175
1.39415
1.3965
1.39883
1.40113
1.4034
1.40564
1.40786
1.41004
1.4122
1.41432
1.41641
1.41846
1.42048
1.42244
1.42436
1.42623
1.42803
1.42977
1.43144
1.43303
1.43455
1.43598
1.4373
1.43849
1.43949
1.44025
1.44067
1.44069
1.44028
1.43944
1.43836
1.43735
1.43698
1.43804
1.44157
1.44861
0.369317
0.342581
0.348917
0.412157
0.531963
0.672822
0.801903
0.907129
0.989078
1.05222
1.10113
1.13949
1.17002
1.1947
1.21496
1.23184
1.24608
1.25827
1.26882
1.27805
1.28623
1.29353
1.30012
1.30612
1.31163
1.31672
1.32146
1.3259
1.33009
1.33406
1.33784
1.34146
1.34494
1.3483
1.35154
1.35469
1.35776
1.36074
1.36366
1.3665
1.36928
1.372
1.37467
1.37729
1.37985
1.38237
1.38484
1.38726
1.38963
1.39196
1.39422
1.39644
1.39859
1.40068
1.4027
1.40464
1.4065
1.40827
1.40996
1.41155
1.41304
1.41441
1.41562
1.41664
1.41738
1.41778
1.41777
1.41731
1.41643
1.41531
1.41428
1.41393
1.41507
1.41873
1.42597
0.371958
0.342445
0.332102
0.356566
0.42837
0.537786
0.658014
0.768348
0.860997
0.935939
0.995905
1.044
1.08291
1.11474
1.1411
1.16319
1.18194
1.19802
1.21198
1.2242
1.23501
1.24466
1.25334
1.26122
1.26842
1.27504
1.28118
1.28689
1.29224
1.29728
1.30205
1.30658
1.3109
1.31503
1.319
1.32283
1.32652
1.33009
1.33356
1.33692
1.34018
1.34336
1.34645
1.34947
1.3524
1.35527
1.35807
1.3608
1.36345
1.36604
1.36856
1.37101
1.37337
1.37566
1.37785
1.37995
1.38196
1.38386
1.38566
1.38734
1.38891
1.39034
1.3916
1.39263
1.39339
1.39379
1.39377
1.39329
1.39241
1.39128
1.39026
1.38993
1.3911
1.39478
1.40203
0.374409
0.344309
0.325896
0.328085
0.362098
0.432748
0.529167
0.632415
0.728536
0.811707
0.881286
0.938793
0.986292
1.02573
1.05874
1.08663
1.11042
1.13091
1.14873
1.16436
1.17819
1.19052
1.20161
1.21164
1.22079
1.22918
1.23691
1.24409
1.25078
1.25705
1.26294
1.26851
1.2738
1.27883
1.28363
1.28823
1.29265
1.29689
1.30099
1.30495
1.30877
1.31246
1.31604
1.31951
1.32288
1.32615
1.32932
1.3324
1.33539
1.33829
1.34109
1.34381
1.34642
1.34893
1.35134
1.35363
1.3558
1.35786
1.35979
1.36159
1.36325
1.36476
1.36607
1.36716
1.36795
1.36837
1.36836
1.3679
1.36704
1.36594
1.36494
1.36462
1.36576
1.36936
1.37643
0.376595
0.346935
0.32478
0.315189
0.325142
0.361913
0.426574
0.510145
0.599357
0.684171
0.759763
0.824969
0.880429
0.92743
0.967348
1.00143
1.03072
1.05608
1.07822
1.09769
1.11493
1.13032
1.14415
1.15665
1.16802
1.17843
1.188
1.19685
1.20508
1.21276
1.21995
1.22672
1.23312
1.23917
1.24493
1.25042
1.25566
1.26068
1.2655
1.27014
1.2746
1.27889
1.28303
1.28703
1.29089
1.29462
1.29823
1.30171
1.30508
1.30833
1.31147
1.31449
1.31739
1.32017
1.32281
1.32533
1.32771
1.32994
1.33203
1.33397
1.33575
1.33735
1.33875
1.3399
1.34074
1.34121
1.34125
1.34083
1.34002
1.33896
1.33801
1.33768
1.33875
1.34216
1.34889
0.378494
0.349749
0.326042
0.310425
0.306798
0.320311
0.355502
0.412199
0.483847
0.561114
0.636428
0.705553
0.766924
0.820518
0.867011
0.907312
0.942336
0.972909
0.999742
1.02343
1.04448
1.06329
1.08019
1.09548
1.10938
1.12209
1.13376
1.14452
1.15451
1.1638
1.17248
1.18062
1.18828
1.19552
1.20237
1.20888
1.21507
1.22098
1.22663
1.23205
1.23724
1.24222
1.247
1.2516
1.25603
1.26029
1.26439
1.26835
1.27216
1.27582
1.27934
1.28271
1.28594
1.28903
1.29196
1.29473
1.29734
1.29979
1.30207
1.30418
1.3061
1.30782
1.30932
1.31056
1.31148
1.31201
1.31212
1.31178
1.31104
1.31006
1.30915
1.30881
1.30976
1.3129
1.31914
0.380104
0.352469
0.328352
0.309741
0.298825
0.298554
0.31258
0.343818
0.391993
0.452699
0.519406
0.586268
0.64949
0.707223
0.758929
0.804788
0.845312
0.881119
0.912829
0.94101
0.96616
0.988712
1.00903
1.02742
1.04416
1.05945
1.07348
1.08642
1.09839
1.10952
1.11989
1.1296
1.13872
1.1473
1.15541
1.16308
1.17036
1.17729
1.18389
1.19019
1.19622
1.20198
1.20751
1.2128
1.21788
1.22275
1.22743
1.23192
1.23623
1.24036
1.24432
1.24811
1.25172
1.25516
1.25842
1.2615
1.26438
1.26708
1.26958
1.27189
1.27398
1.27586
1.27749
1.27884
1.27985
1.28049
1.2807
1.28045
1.27981
1.27892
1.27806
1.2777
1.2785
1.2813
1.28696
0.381432
0.354953
0.331036
0.311052
0.296302
0.288389
0.289475
0.302115
0.328313
0.36807
0.418684
0.475701
0.534633
0.59211
0.646117
0.695722
0.740693
0.781189
0.817558
0.850219
0.879597
0.906091
0.930062
0.951828
0.971665
0.989815
1.00648
1.02185
1.03606
1.04926
1.06155
1.07303
1.08379
1.0939
1.10343
1.11244
1.12096
1.12905
1.13673
1.14405
1.15103
1.1577
1.16407
1.17016
1.17598
1.18155
1.18689
1.192
1.19689
1.20156
1.20603
1.21029
1.21435
1.2182
1.22183
1.22526
1.22847
1.23146
1.23422
1.23676
1.23907
1.24113
1.24292
1.24441
1.24555
1.24631
1.24664
1.24652
1.246
1.24521
1.24442
1.24404
1.24467
1.24708
1.25208
0.382496
0.357126
0.333732
0.313269
0.296566
0.284515
0.278275
0.279385
0.28963
0.310488
0.342261
0.383516
0.431393
0.482568
0.53415
0.584096
0.631194
0.674873
0.714976
0.751595
0.784951
0.815323
0.843002
0.868273
0.8914
0.912621
0.932149
0.950173
0.966859
0.982351
0.996777
1.01025
1.02286
1.0347
1.04584
1.05634
1.06627
1.07568
1.0846
1.09308
1.10115
1.10884
1.11617
1.12317
1.12984
1.13622
1.14231
1.14812
1.15368
1.15898
1.16403
1.16883
1.1734
1.17772
1.1818
1.18563
1.18921
1.19254
1.19562
1.19844
1.20099
1.20327
1.20525
1.20691
1.20822
1.20913
1.20961
1.20964
1.20927
1.20861
1.20789
1.20749
1.20794
1.20995
1.21424
0.383317
0.358954
0.336237
0.315805
0.298201
0.28395
0.27367
0.268176
0.268537
0.276002
0.291697
0.316126
0.348733
0.387879
0.431278
0.47661
0.521952
0.565944
0.607754
0.646952
0.683386
0.71708
0.748158
0.776798
0.803195
0.827551
0.850059
0.870898
0.890233
0.908214
0.924972
0.940628
0.955288
0.969045
0.981982
0.994173
1.00568
1.01657
1.02689
1.03667
1.04598
1.05483
1.06325
1.07128
1.07893
1.08622
1.09317
1.09979
1.10611
1.11212
1.11784
1.12327
1.12842
1.13329
1.13787
1.14217
1.14619
1.14992
1.15335
1.15649
1.15934
1.16188
1.1641
1.16597
1.16748
1.16857
1.16923
1.16944
1.16924
1.16872
1.16809
1.16769
1.16798
1.16957
1.17315
0.383926
0.360429
0.338437
0.318319
0.300425
0.285071
0.272597
0.26342
0.258096
0.257353
0.262057
0.273062
0.290942
0.315686
0.346543
0.382133
0.420773
0.460828
0.500941
0.540122
0.577726
0.61338
0.646914
0.678293
0.707566
0.734832
0.760218
0.783859
0.805894
0.826457
0.845674
0.863661
0.880526
0.896366
0.911269
0.925315
0.938573
0.951109
0.962978
0.974231
0.984914
0.995066
1.00472
1.01391
1.02266
1.03099
1.03892
1.04646
1.05364
1.06047
1.06695
1.0731
1.07892
1.08441
1.08957
1.09441
1.09892
1.10311
1.10696
1.11049
1.11368
1.11652
1.11902
1.12115
1.12289
1.1242
1.12508
1.12549
1.12549
1.12514
1.12464
1.12425
1.12439
1.1256
1.12849
0.384356
0.361567
0.340271
0.320613
0.302785
0.286971
0.273357
0.262155
0.253642
0.248183
0.246262
0.248465
0.255422
0.267671
0.285474
0.308658
0.336564
0.368157
0.40222
0.437572
0.473202
0.508334
0.542423
0.575121
0.606232
0.63567
0.663425
0.689534
0.714068
0.737111
0.758756
0.779099
0.798235
0.816251
0.833234
0.84926
0.864403
0.878727
0.892294
0.905156
0.917363
0.928959
0.939982
0.950468
0.960446
0.969938
0.978964
0.987545
0.995701
1.00345
1.01079
1.01775
1.02433
1.03053
1.03636
1.04182
1.0469
1.05161
1.05595
1.05991
1.0635
1.06671
1.06954
1.07197
1.07399
1.07556
1.07669
1.07735
1.07757
1.07743
1.07707
1.07674
1.07677
1.07765
1.0799
0.384645
0.3624
0.341721
0.322574
0.305012
0.28912
0.274988
0.262719
0.252442
0.244331
0.238618
0.235613
0.235703
0.239328
0.246928
0.258848
0.275219
0.295877
0.320342
0.347879
0.377621
0.408696
0.440324
0.471868
0.502846
0.532919
0.561867
0.589563
0.615944
0.641
0.664751
0.687239
0.708519
0.728653
0.747706
0.765743
0.782828
0.799021
0.814379
0.828957
0.842802
0.85596
0.868471
0.880372
0.891696
0.90247
0.912715
0.92245
0.931696
0.940469
0.948786
0.956656
0.96409
0.971093
0.977669
0.983822
0.989553
0.994863
0.999753
1.00422
1.00828
1.01191
1.01513
1.01791
1.02025
1.02214
1.02356
1.0245
1.025
1.0251
1.02493
1.02469
1.02468
1.02528
1.02699
0.384827
0.362976
0.342805
0.324148
0.306947
0.291198
0.276922
0.264155
0.252946
0.243368
0.235524
0.229553
0.225648
0.224051
0.225056
0.228985
0.236149
0.246788
0.260999
0.278687
0.299546
0.323088
0.348708
0.375765
0.403652
0.431835
0.459883
0.487464
0.514338
0.540342
0.565373
0.589375
0.612327
0.634233
0.655112
0.674995
0.693921
0.711932
0.729071
0.745382
0.760907
0.775686
0.789758
0.803158
0.815917
0.828064
0.839625
0.850615
0.861052
0.870954
0.880338
0.889215
0.897597
0.905491
0.912902
0.919835
0.926293
0.932278
0.937794
0.942843
0.947428
0.951551
0.955213
0.95841
0.961138
0.963387
0.965152
0.966431
0.967244
0.967639
0.967716
0.967637
0.967644
0.968074
0.969339
0.384935
0.363349
0.343566
0.325333
0.308509
0.293015
0.278815
0.265893
0.254251
0.243905
0.234889
0.227257
0.221089
0.216497
0.213627
0.212662
0.213817
0.217326
0.223417
0.232273
0.243994
0.258559
0.275806
0.295441
0.317067
0.340231
0.364466
0.389336
0.414459
0.439515
0.464253
0.488484
0.51207
0.534916
0.556964
0.578181
0.598555
0.618086
0.636787
0.654677
0.671778
0.688118
0.703723
0.718618
0.732831
0.746386
0.759305
0.771607
0.783303
0.794406
0.804932
0.814894
0.824302
0.833164
0.841487
0.849276
0.856536
0.86327
0.869484
0.875181
0.880368
0.885049
0.889228
0.892907
0.896088
0.898766
0.900942
0.902619
0.903814
0.904567
0.904958
0.905119
0.905244
0.905611
0.906576
0.384994
0.363574
0.344062
0.326166
0.309682
0.294477
0.280464
0.267588
0.255813
0.24512
0.235503
0.226971
0.219547
0.21327
0.208201
0.204423
0.202042
0.201191
0.202024
0.20471
0.209419
0.216301
0.22546
0.236932
0.250663
0.266508
0.284234
0.303546
0.32411
0.345586
0.367651
0.390012
0.41242
0.434669
0.456596
0.478075
0.499014
0.519345
0.539026
0.558027
0.576336
0.593946
0.610859
0.627083
0.642627
0.657503
0.671724
0.6853
0.698245
0.710558
0.722249
0.733328
0.743802
0.75368
0.762967
0.771669
0.779791
0.787337
0.794315
0.80073
0.806589
0.811902
0.816674
0.820915
0.824627
0.827817
0.830486
0.832643
0.834304
0.835504
0.836305
0.836811
0.837178
0.837628
0.838464
0.385025
0.363699
0.344363
0.326707
0.310498
0.295561
0.281772
0.269042
0.257306
0.246517
0.236644
0.227667
0.219578
0.21238
0.206088
0.20073
0.196348
0.193
0.190761
0.189721
0.18999
0.191688
0.19494
0.199869
0.206575
0.215125
0.225537
0.237769
0.251715
0.267211
0.284049
0.301987
0.320778
0.340173
0.359944
0.379887
0.399824
0.419607
0.439118
0.45826
0.476958
0.495157
0.512816
0.529903
0.546397
0.562286
0.577559
0.592213
0.606243
0.619651
0.632424
0.644562
0.656069
0.666947
0.6772
0.68683
0.695842
0.704241
0.712034
0.719227
0.725829
0.731852
0.737305
0.742199
0.746544
0.750348
0.75362
0.756371
0.758616
0.760384
0.761726
0.762721
0.76349
0.764208
0.765124
0.385039
0.363763
0.344529
0.327031
0.311019
0.296298
0.282719
0.270166
0.25855
0.247804
0.237875
0.228725
0.220326
0.21266
0.205716
0.199495
0.194005
0.189262
0.185294
0.182139
0.179847
0.178479
0.178108
0.178817
0.180697
0.18384
0.188336
0.194259
0.201662
0.210564
0.220946
0.232746
0.24586
0.260149
0.275447
0.291573
0.308341
0.325569
0.343085
0.360736
0.378386
0.395917
0.413229
0.430241
0.446883
0.463102
0.478852
0.494096
0.508808
0.522963
0.536545
0.549526
0.561896
0.573648
0.584776
0.595278
0.605154
0.614406
0.623038
0.631056
0.63847
0.645289
0.651526
0.657191
0.662298
0.666858
0.670882
0.674382
0.677375
0.679883
0.681945
0.683622
0.685002
0.68622
0.687473
0.385045
0.363793
0.344613
0.327207
0.311323
0.296756
0.283344
0.270952
0.259476
0.248832
0.238951
0.229781
0.221278
0.213411
0.206155
0.199492
0.193412
0.187912
0.182994
0.178668
0.17495
0.171863
0.169439
0.167716
0.166741
0.16657
0.167264
0.16889
0.171516
0.175209
0.180029
0.18602
0.19321
0.2016
0.211164
0.221846
0.233564
0.24621
0.259659
0.273776
0.288419
0.303449
0.318733
0.334145
0.349573
0.364916
0.380085
0.395003
0.409604
0.423832
0.43764
0.450991
0.463838
0.476156
0.487925
0.499128
0.509755
0.519799
0.529257
0.53813
0.54642
0.554133
0.561279
0.567866
0.573905
0.579407
0.584382
0.58884
0.592796
0.596268
0.599282
0.601881
0.604128
0.606121
0.608006
0.385047
0.363805
0.344651
0.327293
0.311482
0.297013
0.283715
0.271447
0.260093
0.249557
0.239761
0.230639
0.22214
0.21422
0.206844
0.199984
0.193619
0.187734
0.182318
0.177365
0.172874
0.16885
0.165302
0.162241
0.159688
0.157665
0.156202
0.155334
0.155098
0.155542
0.156711
0.158657
0.16143
0.165076
0.169635
0.175137
0.181599
0.189016
0.19737
0.206617
0.216698
0.227534
0.239034
0.251096
0.263613
0.276477
0.28958
0.30282
0.316102
0.329338
0.342449
0.355367
0.36803
0.380377
0.392362
0.403945
0.415094
0.425784
0.435995
0.445711
0.454921
0.46362
0.471804
0.479472
0.486627
0.493271
0.49941
0.505048
0.510193
0.514856
0.519053
0.522811
0.52617
0.529196
0.531987
0.385048
0.36381
0.344666
0.32733
0.311556
0.29714
0.28391
0.271721
0.260452
0.250001
0.240283
0.231225
0.222767
0.214859
0.207459
0.200533
0.194052
0.187994
0.18234
0.177077
0.172195
0.167688
0.163555
0.159795
0.156413
0.153417
0.150818
0.148631
0.146872
0.145563
0.144731
0.144402
0.14461
0.145388
0.146775
0.148806
0.15152
0.154949
0.159124
0.164065
0.169784
0.176281
0.183544
0.191544
0.200241
0.20958
0.219498
0.229919
0.240763
0.251947
0.263386
0.274996
0.286697
0.298411
0.310062
0.32158
0.332905
0.343979
0.354756
0.365192
0.375253
0.384909
0.394135
0.402913
0.411229
0.419073
0.426437
0.433319
0.439715
0.445628
0.451065
0.456039
0.460574
0.46471
0.468506
0.385048
0.363811
0.344671
0.327343
0.311584
0.297191
0.283992
0.271841
0.260616
0.250212
0.24054
0.231524
0.2231
0.215215
0.207823
0.200885
0.19437
0.18825
0.182505
0.177117
0.172072
0.16736
0.162973
0.158908
0.155163
0.151739
0.148639
0.14587
0.14344
0.14136
0.139644
0.138308
0.137371
0.136854
0.136782
0.137182
0.138083
0.139516
0.141514
0.144108
0.147331
0.15121
0.155769
0.161027
0.166992
0.173664
0.181029
0.189061
0.197724
0.206965
0.216725
0.226931
0.237506
0.24837
0.259434
0.270613
0.28182
0.292977
0.304008
0.314845
0.325429
0.335708
0.345638
0.35518
0.364307
0.372994
0.381222
0.38898
0.396258
0.40305
0.409357
0.415184
0.420545
0.425466
0.429981
0.385048
0.363811
0.344671
0.327343
0.311584
0.297191
0.283992
0.271841
0.260616
0.250212
0.24054
0.231524
0.2231
0.215215
0.207823
0.200885
0.19437
0.18825
0.182505
0.177117
0.172072
0.16736
0.162973
0.158908
0.155163
0.151739
0.148639
0.14587
0.14344
0.14136
0.139644
0.138307
0.13737
0.136853
0.136781
0.137181
0.138082
0.139515
0.141513
0.144107
0.14733
0.151209
0.155768
0.161026
0.166991
0.173662
0.181027
0.18906
0.197722
0.206964
0.216723
0.226929
0.237505
0.248368
0.259433
0.270611
0.281819
0.292975
0.304006
0.314844
0.325428
0.335707
0.345637
0.355179
0.364306
0.372992
0.381221
0.388978
0.396254
0.403044
0.409348
0.415171
0.420528
0.425444
0.429958
0.385048
0.36381
0.344666
0.32733
0.311556
0.29714
0.28391
0.271721
0.260452
0.250001
0.240283
0.231225
0.222767
0.214859
0.207459
0.200533
0.194052
0.187994
0.18234
0.177077
0.172194
0.167688
0.163554
0.159794
0.156412
0.153416
0.150817
0.148628
0.146869
0.14556
0.144727
0.144397
0.144604
0.145382
0.146767
0.148798
0.15151
0.154938
0.159111
0.16405
0.169768
0.176264
0.183525
0.191523
0.200219
0.209557
0.219473
0.229892
0.240736
0.251919
0.263357
0.274966
0.286667
0.29838
0.310031
0.321549
0.332874
0.343948
0.354725
0.365162
0.375223
0.384879
0.394106
0.402885
0.411201
0.419045
0.426409
0.433288
0.43968
0.445587
0.451015
0.455978
0.460502
0.464629
0.468422
0.385047
0.363805
0.344651
0.327293
0.311482
0.297013
0.283715
0.271447
0.260093
0.249557
0.239761
0.23064
0.222141
0.21422
0.206844
0.199984
0.193619
0.187734
0.182317
0.177364
0.172873
0.168849
0.165299
0.162238
0.159684
0.15766
0.156196
0.155326
0.155089
0.155531
0.156698
0.158642
0.161412
0.165055
0.169611
0.17511
0.181568
0.188982
0.197332
0.206575
0.216652
0.227485
0.238982
0.251041
0.263556
0.276417
0.289518
0.302756
0.316037
0.329271
0.342382
0.355299
0.367962
0.380309
0.392293
0.403876
0.415026
0.425716
0.435927
0.445644
0.454856
0.463555
0.47174
0.479409
0.486564
0.493209
0.499346
0.50498
0.510119
0.514771
0.518953
0.522693
0.526035
0.52905
0.531844
0.385045
0.363793
0.344613
0.327207
0.311323
0.296757
0.283344
0.270953
0.259477
0.248833
0.238952
0.229782
0.221279
0.213412
0.206155
0.199492
0.193412
0.187911
0.182993
0.178666
0.174946
0.171858
0.169432
0.167707
0.166731
0.166557
0.167248
0.16887
0.171492
0.175181
0.179996
0.185982
0.193167
0.201551
0.211109
0.221786
0.233498
0.246138
0.259583
0.273695
0.288334
0.303361
0.318641
0.33405
0.349476
0.364818
0.379985
0.394902
0.409502
0.42373
0.437538
0.450888
0.463736
0.476054
0.487823
0.499027
0.509655
0.5197
0.529159
0.538032
0.546323
0.554038
0.561185
0.567773
0.573813
0.579314
0.584286
0.588738
0.592683
0.596138
0.599131
0.601705
0.60393
0.605912
0.607809
0.385039
0.363763
0.344529
0.327031
0.311019
0.296299
0.28272
0.270167
0.258551
0.247805
0.237876
0.228726
0.220327
0.21266
0.205716
0.199494
0.194003
0.189258
0.185289
0.182132
0.179838
0.178466
0.178092
0.178796
0.180671
0.183809
0.188298
0.194215
0.20161
0.210504
0.220878
0.23267
0.245776
0.260057
0.275348
0.291468
0.308231
0.325453
0.342966
0.360614
0.378261
0.39579
0.4131
0.430111
0.446753
0.462971
0.478721
0.493966
0.508677
0.522833
0.536416
0.549398
0.561769
0.573521
0.58465
0.595153
0.605031
0.614284
0.622917
0.630937
0.638352
0.645173
0.65141
0.657077
0.662184
0.666742
0.670761
0.674252
0.677228
0.679712
0.681745
0.683388
0.684741
0.68595
0.687232
0.385025
0.363699
0.344363
0.326708
0.310499
0.295562
0.281774
0.269044
0.257308
0.246519
0.236645
0.227668
0.219578
0.212379
0.206086
0.200726
0.196342
0.192991
0.190748
0.189704
0.189968
0.191659
0.194904
0.199824
0.20652
0.215061
0.225462
0.237683
0.251618
0.267104
0.283932
0.301862
0.320645
0.340034
0.3598
0.379738
0.399672
0.419453
0.438962
0.458103
0.476801
0.495
0.512659
0.529747
0.546242
0.562132
0.577407
0.592061
0.606093
0.619502
0.632276
0.644416
0.655924
0.666804
0.677058
0.68669
0.695704
0.704104
0.711898
0.719093
0.725697
0.731721
0.737176
0.742071
0.746416
0.750217
0.753481
0.756217
0.758439
0.760175
0.761477
0.76243
0.763166
0.763879
0.764845
0.384994
0.363574
0.344063
0.326167
0.309684
0.294479
0.280466
0.267591
0.255816
0.245122
0.235505
0.226971
0.219545
0.213266
0.208194
0.204412
0.202027
0.20117
0.201995
0.204673
0.209371
0.216241
0.225387
0.236845
0.250562
0.266393
0.284106
0.303406
0.323959
0.345427
0.367484
0.38984
0.412244
0.43449
0.456415
0.477893
0.498831
0.519163
0.538844
0.557847
0.576157
0.593769
0.610684
0.62691
0.642456
0.657334
0.671557
0.685135
0.698082
0.710397
0.72209
0.73317
0.743647
0.753527
0.762816
0.771519
0.779643
0.787191
0.79417
0.800587
0.806448
0.811762
0.816537
0.820778
0.82449
0.827674
0.830333
0.83247
0.8341
0.835256
0.836005
0.836459
0.836788
0.837241
0.838153
0.384935
0.36335
0.343567
0.325335
0.308511
0.293018
0.278818
0.265896
0.254254
0.243907
0.234889
0.227254
0.221083
0.216486
0.21361
0.212637
0.213783
0.21728
0.223357
0.232198
0.243902
0.258448
0.275678
0.295296
0.316907
0.340058
0.364282
0.389144
0.41426
0.439311
0.464047
0.488276
0.511862
0.534709
0.556758
0.577977
0.598352
0.617886
0.636589
0.654482
0.671587
0.687929
0.703537
0.718436
0.732651
0.746209
0.75913
0.771434
0.783133
0.794239
0.804767
0.814731
0.824141
0.833005
0.84133
0.849122
0.856383
0.86312
0.869335
0.875034
0.880223
0.884906
0.889087
0.892767
0.895946
0.898618
0.900779
0.902429
0.903582
0.90428
0.904605
0.904702
0.904785
0.905164
0.90624
0.384827
0.362977
0.342807
0.324151
0.30695
0.291202
0.276926
0.264158
0.252948
0.243368
0.235519
0.229544
0.225631
0.224025
0.225019
0.228933
0.23608
0.246699
0.260888
0.278554
0.299392
0.322913
0.348516
0.37556
0.403435
0.431611
0.459654
0.487232
0.514105
0.540109
0.565141
0.589146
0.612101
0.63401
0.654892
0.674779
0.693709
0.711723
0.728866
0.745181
0.760709
0.775493
0.789568
0.802971
0.815733
0.827884
0.839447
0.850441
0.86088
0.870785
0.88017
0.88905
0.897435
0.905331
0.912744
0.91968
0.926139
0.932127
0.937644
0.942695
0.947282
0.951408
0.955071
0.95827
0.960994
0.963235
0.964979
0.966224
0.966984
0.967309
0.967305
0.967149
0.967111
0.967566
0.968983
0.384645
0.362402
0.341724
0.322578
0.305017
0.289125
0.274992
0.262721
0.252441
0.244324
0.238605
0.23559
0.235666
0.239274
0.246854
0.258749
0.275094
0.295725
0.320163
0.347677
0.3774
0.408461
0.440078
0.471615
0.502589
0.532661
0.56161
0.589308
0.615693
0.640752
0.664508
0.687001
0.708285
0.728424
0.747482
0.765524
0.782613
0.798811
0.814174
0.828755
0.842605
0.855766
0.868281
0.880186
0.891513
0.90229
0.912539
0.922277
0.931525
0.940301
0.94862
0.956493
0.963929
0.970934
0.977513
0.983668
0.989401
0.994713
0.999605
1.00408
1.00814
1.01177
1.01499
1.01777
1.02011
1.02198
1.02338
1.02428
1.02471
1.02472
1.02446
1.02413
1.02406
1.02471
1.02662
0.384357
0.361569
0.340275
0.320619
0.302791
0.286976
0.273359
0.262154
0.253634
0.248166
0.246231
0.248416
0.255349
0.267569
0.28534
0.30849
0.336365
0.36793
0.401972
0.437308
0.472928
0.508054
0.542141
0.574839
0.605953
0.635395
0.663155
0.68927
0.71381
0.736859
0.75851
0.77886
0.798001
0.816024
0.833012
0.849044
0.864191
0.878521
0.892091
0.904958
0.91717
0.928769
0.939797
0.950286
0.960267
0.969763
0.978792
0.987376
0.995534
1.00328
1.01063
1.01759
1.02417
1.03038
1.03621
1.04167
1.04675
1.05146
1.0558
1.05977
1.06336
1.06658
1.06941
1.07184
1.07385
1.07541
1.0765
1.07711
1.07725
1.07701
1.07653
1.07609
1.07607
1.07701
1.07952
0.383927
0.360433
0.338442
0.318325
0.300431
0.285075
0.272596
0.263411
0.258075
0.257314
0.261993
0.272966
0.290808
0.315512
0.34633
0.381887
0.420501
0.460537
0.50064
0.539816
0.577419
0.613076
0.646615
0.678001
0.707281
0.734554
0.759947
0.783596
0.805639
0.826209
0.845433
0.863427
0.880299
0.896145
0.911054
0.925105
0.938368
0.950908
0.962782
0.97404
0.984727
0.994883
1.00454
1.01374
1.02249
1.03082
1.03875
1.0463
1.05348
1.06031
1.06679
1.07294
1.07876
1.08426
1.08942
1.09427
1.09878
1.10297
1.10682
1.11035
1.11354
1.11639
1.11889
1.12102
1.12275
1.12405
1.12488
1.12524
1.12513
1.12467
1.12402
1.12351
1.1236
1.12489
1.12809
0.383319
0.358958
0.336244
0.315811
0.298206
0.283951
0.273661
0.268152
0.26849
0.275923
0.291577
0.315958
0.348517
0.38762
0.430987
0.476297
0.521626
0.565614
0.607424
0.646626
0.683068
0.71677
0.747858
0.776507
0.802914
0.82728
0.849796
0.870644
0.889987
0.907975
0.924741
0.940404
0.95507
0.968833
0.981776
0.993972
1.00549
1.01638
1.0267
1.03649
1.0458
1.05465
1.06308
1.07111
1.07876
1.08606
1.09301
1.09964
1.10595
1.11197
1.11769
1.12312
1.12828
1.13315
1.13773
1.14204
1.14605
1.14978
1.15322
1.15636
1.15921
1.16175
1.16398
1.16585
1.16735
1.16842
1.16903
1.16916
1.16885
1.16819
1.1674
1.16686
1.16709
1.16879
1.17274
0.382499
0.357132
0.333739
0.313276
0.296568
0.284508
0.27825
0.279332
0.289537
0.310342
0.342057
0.383258
0.431091
0.482235
0.533801
0.583741
0.630842
0.674526
0.714639
0.751269
0.784637
0.81502
0.842711
0.867994
0.89113
0.912361
0.931899
0.949931
0.966625
0.982125
0.996558
1.01004
1.02265
1.0345
1.04564
1.05615
1.06609
1.0755
1.08442
1.09291
1.10098
1.10867
1.11601
1.12301
1.12969
1.13606
1.14215
1.14797
1.15353
1.15883
1.16388
1.16869
1.17326
1.17759
1.18167
1.1855
1.18908
1.19241
1.19549
1.19831
1.20087
1.20315
1.20514
1.2068
1.2081
1.20898
1.20941
1.20935
1.20885
1.20802
1.20712
1.20656
1.20695
1.20908
1.2138
0.381436
0.354959
0.331044
0.311056
0.296297
0.288366
0.28942
0.30201
0.328145
0.367832
0.418385
0.475358
0.534265
0.591732
0.64574
0.695353
0.740336
0.780846
0.817229
0.849905
0.879296
0.905804
0.929787
0.951564
0.971412
0.989572
1.00625
1.02162
1.03584
1.04905
1.06134
1.07283
1.0836
1.09372
1.10325
1.11226
1.12079
1.12888
1.13657
1.14389
1.15088
1.15754
1.16392
1.17001
1.17583
1.18141
1.18674
1.19185
1.19675
1.20142
1.20589
1.21016
1.21422
1.21807
1.22171
1.22514
1.22835
1.23134
1.2341
1.23665
1.23895
1.24102
1.24281
1.2443
1.24544
1.24616
1.24643
1.24621
1.24555
1.24457
1.24357
1.24301
1.24358
1.24613
1.25161
0.380108
0.352477
0.328359
0.309741
0.298807
0.2985
0.312469
0.343631
0.391724
0.452364
0.519027
0.585869
0.649089
0.70683
0.75855
0.804426
0.844967
0.880792
0.912518
0.940714
0.965879
0.988444
1.00877
1.02718
1.04392
1.05922
1.07326
1.08621
1.09819
1.10932
1.11971
1.12942
1.13854
1.14713
1.15524
1.16291
1.1702
1.17713
1.18373
1.19004
1.19607
1.20184
1.20736
1.21266
1.21774
1.22261
1.22729
1.23179
1.2361
1.24023
1.24419
1.24798
1.2516
1.25504
1.2583
1.26138
1.26427
1.26697
1.26947
1.27178
1.27388
1.27576
1.27739
1.27874
1.27975
1.28035
1.28048
1.28013
1.27932
1.27822
1.27713
1.27658
1.27731
1.28026
1.28646
0.378499
0.349757
0.326046
0.310415
0.306752
0.320203
0.355304
0.411906
0.483479
0.560703
0.636003
0.705133
0.766519
0.820133