/*--------------------------------*- C++ -*----------------------------------*\
  =========                 |
  \\      /  F ield         | OpenFOAM: The Open Source CFD Toolbox
   \\    /   O peration     | Website:  https://openfoam.org
    \\  /    A nd           | Version:  7
     \\/     M anipulation  |
\*---------------------------------------------------------------------------*/
FoamFile
{
    version     2.0;
    format      ascii;
    class       volScalarField;
    location    "950";
    object      nut;
}
// * * * * * * * * * * * * * * * * * * * * * * * * * * * * * * * * * * * * * //

dimensions      [0 2 -1 0 0 0 0];

internalField   nonuniform List<scalar> 
4500
(
0.000506064
0.000491803
0.000480303
0.000472195
0.000465952
0.000461027
0.000457063
0.00045381
0.000451094
0.000448794
0.000446826
0.000445126
0.000443647
0.000442353
0.000441217
0.000440216
0.000439331
0.000438548
0.000437854
0.000437239
0.000436695
0.000436214
0.00043579
0.000435417
0.000435091
0.000434806
0.000434561
0.000434351
0.000434173
0.000434025
0.000433905
0.00043381
0.000433739
0.00043369
0.000433661
0.000433651
0.000433659
0.000433683
0.000433722
0.000433775
0.000433842
0.000433921
0.000434012
0.000434113
0.000434224
0.000434345
0.000434474
0.000434612
0.000434756
0.000434907
0.000435064
0.000435226
0.000435392
0.000435563
0.000435737
0.000435913
0.000436091
0.000436269
0.000436449
0.000436627
0.000436805
0.00043698
0.000437152
0.000437318
0.000437477
0.000437625
0.000437761
0.000437882
0.000437991
0.00043809
0.000438188
0.0004383
0.000438445
0.000438648
0.000438934
0.000607327
0.000974335
0.00114372
0.00120841
0.00123497
0.00124672
0.00125197
0.00125409
0.00125464
0.00125437
0.00125368
0.00125278
0.00125181
0.00125083
0.00124989
0.001249
0.00124819
0.00124745
0.0012468
0.00124623
0.00124574
0.00124532
0.00124497
0.0012447
0.00124449
0.00124434
0.00124426
0.00124423
0.00124425
0.00124432
0.00124443
0.0012446
0.0012448
0.00124504
0.00124531
0.00124562
0.00124596
0.00124632
0.00124671
0.00124713
0.00124757
0.00124803
0.00124851
0.00124901
0.00124953
0.00125006
0.00125061
0.00125117
0.00125174
0.00125232
0.00125291
0.0012535
0.00125409
0.00125468
0.00125528
0.00125587
0.00125645
0.00125702
0.00125759
0.00125814
0.00125868
0.00125921
0.00125971
0.00126017
0.00126057
0.0012609
0.00126112
0.00126121
0.00126117
0.001261
0.00126078
0.00126061
0.00126071
0.00126135
0.00126281
0.000713424
0.00121515
0.00157793
0.00177481
0.00188365
0.00194758
0.00198742
0.00201353
0.0020314
0.00204407
0.00205335
0.00206032
0.00206571
0.00206996
0.0020734
0.00207624
0.00207864
0.00208072
0.00208255
0.0020842
0.00208571
0.00208712
0.00208846
0.00208974
0.00209099
0.00209221
0.00209341
0.00209461
0.0020958
0.002097
0.0020982
0.00209941
0.00210063
0.00210186
0.0021031
0.00210435
0.00210561
0.00210687
0.00210813
0.00210941
0.00211069
0.00211198
0.00211328
0.00211458
0.00211589
0.00211719
0.0021185
0.00211981
0.0021211
0.0021224
0.00212368
0.00212495
0.00212621
0.00212745
0.00212866
0.00212984
0.00213099
0.0021321
0.00213318
0.00213422
0.00213521
0.00213615
0.00213702
0.00213778
0.00213838
0.00213875
0.00213882
0.00213851
0.0021378
0.00213676
0.00213558
0.00213462
0.00213448
0.00213597
0.00213997
0.00102124
0.00136022
0.0018715
0.00222328
0.00244808
0.00259473
0.00269401
0.00276382
0.00281468
0.00285291
0.00288244
0.00290581
0.00292469
0.00294025
0.00295329
0.00296439
0.00297397
0.00298236
0.00298979
0.00299644
0.00300247
0.00300798
0.00301307
0.0030178
0.00302224
0.00302642
0.0030304
0.0030342
0.00303785
0.00304136
0.00304477
0.00304807
0.0030513
0.00305444
0.00305753
0.00306055
0.00306352
0.00306643
0.00306928
0.0030721
0.00307487
0.0030776
0.00308029
0.00308295
0.00308558
0.00308816
0.00309071
0.00309321
0.00309568
0.0030981
0.00310047
0.00310279
0.00310506
0.00310726
0.0031094
0.00311145
0.00311343
0.00311532
0.00311712
0.00311883
0.00312045
0.00312195
0.0031233
0.00312442
0.00312522
0.00312555
0.00312526
0.00312423
0.00312241
0.00311994
0.0031172
0.00311497
0.00311445
0.00311729
0.00312526
0.00170708
0.00150447
0.00204415
0.00253669
0.00289421
0.00314704
0.00332847
0.0034619
0.00356263
0.0036406
0.00370233
0.00375222
0.00379326
0.00382758
0.0038567
0.00388174
0.00390351
0.00392266
0.00393966
0.00395491
0.00396869
0.00398124
0.00399275
0.00400339
0.00401327
0.00402251
0.00403119
0.00403938
0.00404715
0.00405455
0.00406161
0.00406839
0.0040749
0.00408118
0.00408725
0.00409313
0.00409884
0.00410437
0.00410974
0.00411496
0.00412005
0.00412502
0.00412987
0.0041346
0.00413922
0.00414374
0.00414814
0.00415243
0.00415662
0.00416069
0.00416466
0.00416851
0.00417223
0.00417582
0.00417927
0.00418257
0.00418571
0.00418868
0.00419149
0.00419413
0.00419659
0.00419884
0.00420083
0.00420242
0.00420344
0.00420368
0.00420286
0.0042008
0.00419743
0.00419297
0.00418812
0.00418417
0.00418317
0.0041879
0.00420134
0.00293021
0.00179432
0.00215557
0.00272719
0.0032116
0.00358299
0.00386409
0.004079
0.0042461
0.00437848
0.00448527
0.00457289
0.00464589
0.00470757
0.00476034
0.00480601
0.00484595
0.0048812
0.0049126
0.00494078
0.00496625
0.00498944
0.00501069
0.00503026
0.00504838
0.00506526
0.00508103
0.00509585
0.00510982
0.00512304
0.00513559
0.00514754
0.00515896
0.00516989
0.00518038
0.00519047
0.00520019
0.00520957
0.00521861
0.00522735
0.0052358
0.005244
0.00525194
0.00525965
0.00526713
0.00527438
0.00528142
0.00528824
0.00529485
0.00530124
0.00530743
0.0053134
0.00531915
0.00532466
0.00532993
0.00533493
0.00533965
0.00534411
0.00534828
0.00535218
0.00535578
0.00535905
0.00536188
0.00536409
0.00536542
0.00536553
0.00536404
0.00536066
0.00535531
0.00534835
0.00534085
0.00533479
0.00533328
0.00534052
0.00536107
0.00471652
0.00241031
0.00230969
0.00283433
0.00340742
0.00389369
0.00428366
0.0045937
0.00484179
0.00504269
0.00520757
0.00534471
0.00546027
0.00555879
0.00564371
0.00571766
0.00578263
0.00584021
0.00589162
0.00593786
0.00597972
0.00601784
0.00605276
0.0060849
0.00611463
0.00614226
0.00616804
0.00619219
0.00621489
0.00623631
0.00625657
0.00627579
0.00629408
0.00631152
0.00632819
0.00634415
0.00635947
0.00637418
0.00638831
0.00640192
0.00641503
0.00642767
0.00643988
0.00645167
0.00646307
0.00647407
0.00648469
0.00649495
0.00650485
0.0065144
0.00652359
0.00653243
0.0065409
0.006549
0.0065567
0.00656399
0.00657085
0.00657728
0.00658329
0.00658887
0.006594
0.00659861
0.00660257
0.00660561
0.00660738
0.00660739
0.00660513
0.00660019
0.00659249
0.00658257
0.00657198
0.00656353
0.0065616
0.00657212
0.00660154
0.00695534
0.00349985
0.00265963
0.00293574
0.00351092
0.00408367
0.00457876
0.00499055
0.00533047
0.0056121
0.00584735
0.00604576
0.00621481
0.00636025
0.00648655
0.00659718
0.00669488
0.0067818
0.00685966
0.00692986
0.00699353
0.00705158
0.00710479
0.00715379
0.0071991
0.00724119
0.00728043
0.00731714
0.0073516
0.00738404
0.00741468
0.00744369
0.00747122
0.00749741
0.00752238
0.00754623
0.00756905
0.00759092
0.00761187
0.00763198
0.00765131
0.0076699
0.00768779
0.00770502
0.00772161
0.0077376
0.00775299
0.0077678
0.00778206
0.00779576
0.00780893
0.00782155
0.00783361
0.00784511
0.00785602
0.00786631
0.00787599
0.00788503
0.00789345
0.00790125
0.00790838
0.00791477
0.00792023
0.00792441
0.00792682
0.00792684
0.00792379
0.00791715
0.00790685
0.00789367
0.00787969
0.00786873
0.00786662
0.00788127
0.00792127
0.00946494
0.00509827
0.00338174
0.00315982
0.00358556
0.0041774
0.00475296
0.00526158
0.00569759
0.00606845
0.00638432
0.00665477
0.00688795
0.00709051
0.00726779
0.00742409
0.00756284
0.00768683
0.0077983
0.00789909
0.00799071
0.00807441
0.00815122
0.00822202
0.00828754
0.0083484
0.00840513
0.0084582
0.00850797
0.00855481
0.00859899
0.00864077
0.00868037
0.00871799
0.00875379
0.00878793
0.00882054
0.00885172
0.00888156
0.00891015
0.00893758
0.00896391
0.0089892
0.0090135
0.00903685
0.0090593
0.00908087
0.0091016
0.0091215
0.0091406
0.0091589
0.00917642
0.00919314
0.00920903
0.00922409
0.00923829
0.00925161
0.00926404
0.0092756
0.00928627
0.00929602
0.00930474
0.00931217
0.00931788
0.00932126
0.00932151
0.00931779
0.00930947
0.0092965
0.00927995
0.00926251
0.0092491
0.00924716
0.00926672
0.00931875
0.0120503
0.00712193
0.0046001
0.00367976
0.00374451
0.00423199
0.00482945
0.00541081
0.00593604
0.00639799
0.00680078
0.00715173
0.00745842
0.00772772
0.00796548
0.00817659
0.00836512
0.00853441
0.00868723
0.00882588
0.00895226
0.00906798
0.00917438
0.00927259
0.00936358
0.00944817
0.00952706
0.00960086
0.00967009
0.00973522
0.00979664
0.00985468
0.00990967
0.00996186
0.0100115
0.0100588
0.0101038
0.0101469
0.0101881
0.0102275
0.0102653
0.0103015
0.0103362
0.0103696
0.0104015
0.0104322
0.0104617
0.01049
0.0105171
0.010543
0.0105679
0.0105917
0.0106143
0.0106358
0.0106562
0.0106753
0.0106933
0.0107101
0.0107257
0.0107401
0.0107532
0.0107649
0.0107749
0.0107827
0.0107875
0.0107883
0.0107842
0.0107745
0.010759
0.0107392
0.0107185
0.0107028
0.0107014
0.0107265
0.0107915
0.0145382
0.00942111
0.00631631
0.00465971
0.00415424
0.00435399
0.00486444
0.00546284
0.00605162
0.00659513
0.00708406
0.00751953
0.00790638
0.0082504
0.0085572
0.00883188
0.00907883
0.00930184
0.0095041
0.00968833
0.00985683
0.0100115
0.0101541
0.010286
0.0104083
0.0105222
0.0106285
0.010728
0.0108215
0.0109094
0.0109923
0.0110706
0.0111449
0.0112153
0.0112822
0.0113459
0.0114067
0.0114647
0.0115201
0.0115731
0.0116238
0.0116725
0.011719
0.0117637
0.0118065
0.0118476
0.011887
0.0119247
0.0119609
0.0119955
0.0120286
0.0120602
0.0120903
0.0121189
0.0121459
0.0121714
0.0121953
0.0122175
0.0122382
0.0122573
0.0122747
0.0122903
0.0123036
0.0123142
0.012321
0.0123231
0.0123191
0.0123083
0.0122908
0.0122682
0.0122445
0.012227
0.0122265
0.0122573
0.0123354
0.0167964
0.0118301
0.00841662
0.00616647
0.00499572
0.00470745
0.00496497
0.00547746
0.00607302
0.00666908
0.00723109
0.00774722
0.00821571
0.00863906
0.00902134
0.00936699
0.00968026
0.00996504
0.0102248
0.0104624
0.0106807
0.0108817
0.0110675
0.0112398
0.0113999
0.0115493
0.0116889
0.0118197
0.0119427
0.0120584
0.0121677
0.0122709
0.0123688
0.0124616
0.0125499
0.0126339
0.0127139
0.0127904
0.0128634
0.0129332
0.013
0.0130639
0.0131252
0.0131839
0.0132402
0.0132941
0.0133458
0.0133953
0.0134427
0.0134881
0.0135314
0.0135728
0.0136122
0.0136496
0.0136849
0.0137183
0.0137495
0.0137787
0.0138057
0.0138307
0.0138536
0.013874
0.0138917
0.0139059
0.0139156
0.0139196
0.0139165
0.0139055
0.0138866
0.0138619
0.0138359
0.013817
0.0138174
0.0138539
0.0139445
0.0187409
0.0141959
0.0107323
0.00812806
0.00637517
0.00548226
0.0052985
0.00556839
0.00606791
0.00665555
0.00725658
0.00783569
0.00837814
0.00887927
0.00933926
0.00976046
0.0101461
0.0104994
0.0108239
0.0111225
0.011398
0.0116528
0.0118892
0.0121089
0.0123137
0.0125051
0.0126843
0.0128526
0.0130109
0.0131602
0.0133011
0.0134345
0.0135609
0.0136809
0.013795
0.0139037
0.0140072
0.0141061
0.0142006
0.0142909
0.0143773
0.01446
0.0145393
0.0146152
0.0146879
0.0147577
0.0148244
0.0148884
0.0149496
0.0150082
0.0150641
0.0151175
0.0151683
0.0152166
0.0152622
0.0153052
0.0153456
0.0153833
0.0154183
0.0154507
0.0154803
0.0155069
0.0155301
0.015549
0.0155627
0.0155696
0.0155684
0.0155582
0.015539
0.015513
0.0154855
0.0154657
0.0154673
0.0155088
0.0156103
0.0203353
0.0163925
0.0130921
0.0103772
0.00825299
0.00680513
0.00606205
0.00591225
0.00616261
0.00663481
0.00720686
0.00780792
0.00840069
0.00896709
0.00949942
0.00999542
0.0104556
0.0108818
0.0112765
0.0116424
0.0119818
0.0122974
0.0125913
0.0128656
0.013122
0.0133623
0.0135879
0.0138001
0.0140001
0.0141889
0.0143674
0.0145366
0.014697
0.0148495
0.0149946
0.0151328
0.0152646
0.0153904
0.0155107
0.0156258
0.0157359
0.0158412
0.0159422
0.016039
0.0161317
0.0162205
0.0163056
0.0163871
0.0164651
0.0165398
0.0166111
0.0166791
0.0167439
0.0168054
0.0168636
0.0169184
0.01697
0.0170182
0.017063
0.0171045
0.0171425
0.0171768
0.0172069
0.0172319
0.0172508
0.017262
0.017264
0.0172558
0.0172376
0.0172117
0.0171837
0.0171636
0.0171663
0.0172117
0.0173219
0.0215825
0.0183294
0.0153493
0.0127226
0.0104644
0.0086521
0.0073891
0.00671235
0.00654767
0.00675168
0.00718034
0.00772556
0.00831836
0.00891864
0.00950458
0.0100651
0.0105953
0.0110936
0.0115604
0.0119971
0.0124054
0.0127874
0.0131451
0.0134804
0.0137951
0.014091
0.0143697
0.0146324
0.0148806
0.0151154
0.0153378
0.0155488
0.0157492
0.0159399
0.0161214
0.0162946
0.0164598
0.0166177
0.0167687
0.0169132
0.0170515
0.017184
0.0173109
0.0174326
0.0175493
0.0176611
0.0177682
0.0178708
0.017969
0.018063
0.0181528
0.0182385
0.0183201
0.0183977
0.0184711
0.0185404
0.0186055
0.0186665
0.0187233
0.0187759
0.0188242
0.018868
0.0189067
0.0189395
0.0189652
0.0189822
0.018989
0.0189845
0.0189688
0.0189444
0.0189173
0.0188977
0.0189014
0.0189494
0.0190654
0.0225141
0.0199544
0.0173928
0.0149958
0.0127993
0.010854
0.00925304
0.00809649
0.00743
0.00721364
0.00734589
0.00771147
0.00821417
0.00878619
0.00938426
0.00998242
0.0105658
0.0111265
0.0116607
0.0121669
0.0126453
0.0130966
0.0135221
0.0139234
0.0143021
0.0146596
0.0149974
0.0153171
0.0156199
0.0159071
0.0161797
0.0164388
0.0166854
0.0169203
0.0171444
0.0173582
0.0175626
0.017758
0.017945
0.0181241
0.0182957
0.0184602
0.0186179
0.0187691
0.0189141
0.0190532
0.0191865
0.0193142
0.0194366
0.0195536
0.0196655
0.0197724
0.0198742
0.0199709
0.0200626
0.0201493
0.0202308
0.0203072
0.0203784
0.0204446
0.0205054
0.0205608
0.0206101
0.0206526
0.020687
0.0207117
0.0207252
0.0207263
0.020715
0.020694
0.0206691
0.0206509
0.0206556
0.020705
0.0208236
0.0231786
0.0212515
0.0191504
0.0170697
0.0150687
0.0131822
0.011469
0.0100167
0.00891707
0.0082239
0.00792738
0.00796293
0.00824224
0.00868153
0.00921499
0.00979641
0.0103955
0.0109932
0.0115781
0.0121436
0.0126863
0.0132046
0.0136982
0.0141674
0.0146131
0.0150364
0.0154384
0.0158204
0.0161835
0.0165289
0.0168579
0.0171713
0.0174702
0.0177555
0.0180281
0.0182887
0.018538
0.0187768
0.0190055
0.0192248
0.0194352
0.0196369
0.0198306
0.0200163
0.0201946
0.0203657
0.0205298
0.0206872
0.0208379
0.0209823
0.0211204
0.0212522
0.021378
0.0214976
0.021611
0.0217183
0.0218194
0.0219142
0.0220028
0.0220852
0.0221612
0.0222306
0.022293
0.0223474
0.0223927
0.0224273
0.0224497
0.0224586
0.022454
0.0224384
0.0224175
0.022402
0.0224079
0.0224574
0.0225755
0.0236309
0.0222362
0.0205882
0.0188628
0.0171328
0.0154307
0.0137891
0.0122607
0.0109209
0.00985089
0.00911003
0.00871324
0.00862895
0.00879609
0.00914584
0.0096168
0.0101611
0.0107443
0.0113431
0.011942
0.0125313
0.0131048
0.0136592
0.0141925
0.014704
0.0151937
0.0156619
0.0161093
0.0165367
0.0169451
0.0173354
0.0177085
0.0180653
0.0184068
0.0187338
0.0190471
0.0193473
0.0196353
0.0199117
0.0201769
0.0204317
0.0206764
0.0209114
0.0211372
0.021354
0.0215623
0.0217622
0.0219541
0.022138
0.0223143
0.022483
0.0226442
0.0227981
0.0229445
0.0230836
0.0232152
0.0233394
0.0234562
0.0235654
0.0236672
0.0237613
0.0238476
0.0239257
0.0239947
0.0240535
0.0241005
0.0241343
0.0241535
0.0241582
0.0241505
0.0241358
0.0241245
0.0241323
0.0241811
0.024296
0.0239241
0.0229458
0.0217059
0.0203354
0.0189062
0.0174526
0.0159956
0.0145615
0.0131926
0.0119492
0.0109003
0.0101063
0.0095999
0.00937813
0.00940743
0.00963764
0.0100159
0.0104955
0.0110393
0.0116196
0.0122168
0.0128173
0.0134122
0.0139954
0.0145632
0.0151133
0.0156445
0.0161563
0.0166487
0.0171218
0.0175763
0.0180127
0.0184318
0.0188341
0.0192205
0.0195917
0.0199484
0.0202912
0.0206208
0.0209377
0.0212426
0.0215358
0.0218179
0.0220893
0.0223502
0.022601
0.0228421
0.0230736
0.0232959
0.023509
0.0237131
0.0239084
0.0240949
0.0242726
0.0244416
0.0246017
0.024753
0.0248955
0.025029
0.0251536
0.0252693
0.0253757
0.0254726
0.0255592
0.0256344
0.0256968
0.0257449
0.0257775
0.0257943
0.0257973
0.0257915
0.0257866
0.0257975
0.0258454
0.0259549
0.0241048
0.0234303
0.0225301
0.0214842
0.0203512
0.0191647
0.0179427
0.0166986
0.0154511
0.0142309
0.0130828
0.0120624
0.0112256
0.0106148
0.010249
0.0101206
0.0102015
0.0104527
0.0108329
0.0113054
0.0118395
0.0124118
0.0130047
0.0136056
0.0142055
0.0147983
0.0153798
0.0159471
0.0164986
0.0170333
0.0175506
0.0180505
0.0185331
0.0189987
0.0194476
0.0198805
0.0202977
0.0206999
0.0210876
0.0214612
0.0218214
0.0221685
0.0225031
0.0228254
0.0231359
0.0234347
0.0237223
0.0239989
0.0242647
0.0245198
0.0247645
0.0249988
0.0252228
0.0254365
0.0256399
0.025833
0.0260157
0.026188
0.0263499
0.0265013
0.0266422
0.0267724
0.0268917
0.0269993
0.0270943
0.0271754
0.0272412
0.0272904
0.0273228
0.0273399
0.0273461
0.0273502
0.0273662
0.027414
0.0275174
0.0242104
0.023743
0.0231051
0.0223339
0.0214686
0.0205374
0.0195569
0.0185366
0.0174843
0.0164115
0.0153381
0.0142947
0.0133225
0.0124679
0.011775
0.0112758
0.0109838
0.0108936
0.0109844
0.0112267
0.0115885
0.0120397
0.0125545
0.0131118
0.0136953
0.0142927
0.0148948
0.015495
0.0160885
0.0166719
0.0172429
0.0177999
0.018342
0.0188687
0.0193795
0.0198746
0.020354
0.0208179
0.0212667
0.0217006
0.0221201
0.0225254
0.022917
0.0232951
0.02366
0.0240119
0.0243511
0.0246779
0.0249923
0.0252946
0.0255849
0.0258633
0.0261297
0.0263843
0.026627
0.0268577
0.0270764
0.027283
0.0274776
0.0276601
0.0278304
0.0279885
0.0281341
0.0282666
0.0283853
0.028489
0.0285763
0.0286461
0.028698
0.0287331
0.0287551
0.0287719
0.0287959
0.0288457
0.0289435
0.0242687
0.0239331
0.0234832
0.022928
0.0222874
0.0215809
0.0208224
0.0200202
0.0191788
0.0183021
0.0173958
0.0164709
0.015546
0.0146483
0.0138124
0.0130761
0.012475
0.0120354
0.0117707
0.0116797
0.0117493
0.0119586
0.012283
0.0126979
0.013181
0.0137132
0.014279
0.0148659
0.0154643
0.0160671
0.0166686
0.0172647
0.0178525
0.0184297
0.0189948
0.0195468
0.0200849
0.0206088
0.0211181
0.0216128
0.0220929
0.0225585
0.0230098
0.0234468
0.0238697
0.0242787
0.0246738
0.0250551
0.0254227
0.0257768
0.0261175
0.0264446
0.0267584
0.0270586
0.0273453
0.0276184
0.0278779
0.0281236
0.0283555
0.0285737
0.0287781
0.0289686
0.029145
0.0293069
0.0294537
0.0295844
0.0296978
0.0297928
0.0298688
0.0299265
0.0299692
0.0300032
0.0300396
0.0300949
0.0301895
0.0242989
0.0240415
0.0237167
0.023319
0.0228541
0.0223318
0.0217619
0.0211513
0.0205038
0.0198214
0.019105
0.0183565
0.0175807
0.0167867
0.0159902
0.015213
0.0144829
0.0138304
0.013285
0.0128702
0.0126008
0.0124808
0.0125047
0.0126592
0.0129266
0.0132877
0.0137233
0.0142163
0.0147516
0.0153169
0.015902
0.0164988
0.0171009
0.0177035
0.0183026
0.0188954
0.0194797
0.0200537
0.0206163
0.0211666
0.0217038
0.0222276
0.0227376
0.0232336
0.0237154
0.024183
0.0246361
0.0250748
0.0254988
0.0259082
0.026303
0.026683
0.0270482
0.0273984
0.0277337
0.0280538
0.0283587
0.0286483
0.0289226
0.0291814
0.0294248
0.0296528
0.0298652
0.0300617
0.0302419
0.0304049
0.0305497
0.0306753
0.0307811
0.0308674
0.0309365
0.0309937
0.0310482
0.0311145
0.0312107
0.0243137
0.0240994
0.0238516
0.0235602
0.0232227
0.0228417
0.0224217
0.0219673
0.021482
0.0209674
0.020424
0.0198512
0.0192489
0.0186176
0.0179607
0.017285
0.0166018
0.0159277
0.0152838
0.0146943
0.0141835
0.0137732
0.0134797
0.0133118
0.0132708
0.0133509
0.0135415
0.0138287
0.0141972
0.014632
0.0151192
0.0156466
0.0162035
0.0167812
0.0173722
0.0179709
0.0185723
0.0191727
0.0197691
0.0203591
0.0209409
0.0215128
0.0220739
0.022623
0.0231596
0.0236829
0.0241926
0.024688
0.0251689
0.0256348
0.0260855
0.0265207
0.0269403
0.0273439
0.0277315
0.0281028
0.0284577
0.0287959
0.0291175
0.0294223
0.0297104
0.0299817
0.0302361
0.0304735
0.0306934
0.0308952
0.0310782
0.0312412
0.0313837
0.0315057
0.0316088
0.0316969
0.0317774
0.0318624
0.0319677
0.0243203
0.0241281
0.0239241
0.023699
0.0234471
0.0231665
0.022858
0.0225234
0.0221648
0.0217837
0.0213807
0.0209556
0.0205075
0.0200352
0.0195375
0.0190143
0.0184671
0.0179
0.0173205
0.0167398
0.016173
0.0156382
0.0151549
0.0147427
0.0144182
0.0141938
0.0140765
0.0140677
0.0141634
0.0143559
0.0146348
0.0149883
0.0154045
0.0158718
0.0163798
0.0169191
0.0174816
0.0180606
0.0186502
0.0192456
0.019843
0.0204391
0.0210312
0.0216171
0.0221949
0.0227633
0.0233209
0.0238667
0.0243996
0.0249189
0.0254238
0.0259137
0.0263881
0.0268467
0.027289
0.0277147
0.0281234
0.028515
0.0288893
0.029246
0.0295852
0.0299067
0.0302105
0.0304964
0.030764
0.031013
0.0312426
0.0314519
0.0316402
0.0318072
0.0319538
0.0320827
0.0321995
0.0323139
0.0324388
0.0243232
0.0241413
0.0239602
0.0237729
0.0235739
0.0233596
0.0231282
0.0228796
0.0226142
0.0223328
0.0220359
0.0217237
0.0213958
0.0210513
0.020689
0.0203073
0.0199048
0.0194805
0.0190346
0.0185687
0.018087
0.0175959
0.0171052
0.0166273
0.0161768
0.0157695
0.0154209
0.0151448
0.014952
0.0148493
0.0148393
0.0149208
0.015089
0.0153369
0.0156558
0.0160362
0.0164686
0.016944
0.017454
0.0179911
0.0185486
0.0191208
0.0197028
0.0202903
0.0208798
0.0214683
0.0220531
0.022632
0.0232032
0.0237651
0.0243161
0.024855
0.0253807
0.0258925
0.0263896
0.0268714
0.0273372
0.0277867
0.0282193
0.0286347
0.0290327
0.029413
0.0297755
0.0301198
0.0304457
0.0307526
0.03104
0.0313068
0.0315525
0.0317763
0.0319785
0.0321608
0.032327
0.0324842
0.0326425
0.0243243
0.0241468
0.0239767
0.0238093
0.0236402
0.0234659
0.0232838
0.0230926
0.0228914
0.0226801
0.0224587
0.0222274
0.021986
0.0217344
0.0214717
0.0211972
0.0209094
0.020607
0.0202885
0.0199526
0.0195985
0.0192262
0.0188373
0.0184347
0.0180237
0.0176116
0.0172079
0.016824
0.0164722
0.0161651
0.0159144
0.0157302
0.0156198
0.0155875
0.0156346
0.0157596
0.0159586
0.0162258
0.0165544
0.016937
0.017366
0.0178339
0.0183339
0.0188596
0.0194053
0.0199659
0.0205369
0.0211145
0.0216951
0.0222758
0.0228541
0.0234276
0.0239942
0.0245524
0.0251006
0.0256376
0.0261623
0.0266736
0.0271706
0.0276525
0.0281186
0.0285682
0.0290009
0.0294159
0.0298129
0.030191
0.0305496
0.0308877
0.0312044
0.0314989
0.0317707
0.0320206
0.0322507
0.0324659
0.0326734
0.0243246
0.024149
0.0239836
0.0238256
0.0236718
0.0235195
0.0233663
0.0232101
0.0230498
0.0228845
0.0227135
0.0225367
0.0223538
0.0221647
0.0219692
0.0217669
0.0215573
0.0213397
0.021113
0.0208762
0.0206281
0.0203674
0.020093
0.0198044
0.0195013
0.0191846
0.0188565
0.0185202
0.018181
0.0178456
0.0175221
0.0172198
0.0169488
0.0167189
0.0165391
0.016417
0.0163585
0.016367
0.0164439
0.0165884
0.0167979
0.0170683
0.0173946
0.017771
0.0181917
0.0186507
0.0191422
0.0196607
0.0202013
0.0207593
0.0213305
0.021911
0.0224973
0.0230862
0.023675
0.0242613
0.0248425
0.0254168
0.025982
0.0265365
0.0270785
0.0276068
0.02812
0.0286168
0.0290962
0.0295571
0.0299984
0.0304189
0.0308176
0.0311933
0.0315452
0.0318731
0.0321779
0.0324623
0.032731
0.0243248
0.0241497
0.0239862
0.0238322
0.0236855
0.023544
0.0234057
0.0232688
0.0231318
0.0229936
0.0228531
0.0227097
0.0225629
0.0224126
0.0222584
0.0221002
0.0219379
0.0217713
0.0216001
0.021424
0.0212425
0.0210549
0.0208606
0.0206585
0.0204481
0.0202285
0.0199992
0.0197601
0.0195117
0.0192553
0.018993
0.0187282
0.0184655
0.0182106
0.01797
0.0177515
0.0175626
0.0174112
0.0173045
0.0172486
0.0172484
0.0173073
0.0174269
0.0176075
0.0178476
0.0181448
0.0184956
0.0188957
0.0193405
0.0198248
0.0203437
0.0208919
0.0214643
0.0220559
0.0226622
0.0232788
0.0239014
0.0245261
0.0251495
0.0257681
0.0263791
0.0269797
0.0275676
0.0281406
0.0286969
0.0292349
0.0297529
0.0302495
0.0307234
0.0311733
0.031598
0.0319967
0.0323695
0.0327177
0.0330437
0.0243248
0.0241499
0.023987
0.0238344
0.0236903
0.0235531
0.0234211
0.0232926
0.0231662
0.0230406
0.0229147
0.0227876
0.0226587
0.0225274
0.0223935
0.0222568
0.0221174
0.0219751
0.0218302
0.0216826
0.0215323
0.0213794
0.0212236
0.0210647
0.0209024
0.0207364
0.0205661
0.0203912
0.0202114
0.0200265
0.0198369
0.0196433
0.019447
0.0192503
0.0190561
0.0188685
0.0186921
0.0185325
0.0183958
0.0182885
0.0182169
0.0181872
0.0182048
0.0182742
0.0183987
0.0185805
0.0188201
0.0191169
0.0194691
0.0198734
0.0203259
0.0208218
0.0213559
0.0219225
0.0225157
0.0231298
0.0237594
0.024399
0.0250437
0.0256891
0.0263309
0.0269655
0.0275897
0.0282005
0.0287957
0.0293729
0.0299304
0.0304664
0.0309794
0.031468
0.0319308
0.0323668
0.0327755
0.0331576
0.0335145
0.0243248
0.0241499
0.023987
0.0238344
0.0236903
0.0235531
0.0234211
0.0232926
0.0231662
0.0230406
0.0229147
0.0227876
0.0226587
0.0225274
0.0223935
0.0222568
0.0221174
0.0219751
0.0218302
0.0216826
0.0215323
0.0213794
0.0212236
0.0210647
0.0209025
0.0207364
0.0205662
0.0203913
0.0202114
0.0200266
0.019837
0.0196433
0.0194471
0.0192504
0.0190562
0.0188686
0.0186922
0.0185326
0.0183959
0.0182886
0.0182171
0.0181873
0.0182049
0.0182743
0.0183989
0.0185806
0.0188202
0.019117
0.0194692
0.0198735
0.020326
0.0208219
0.021356
0.0219225
0.0225157
0.0231299
0.0237594
0.024399
0.0250438
0.0256892
0.026331
0.0269656
0.0275898
0.0282006
0.0287958
0.029373
0.0299305
0.0304664
0.0309793
0.0314675
0.0319298
0.0323651
0.0327729
0.0331539
0.0335098
0.0243248
0.0241497
0.0239862
0.0238322
0.0236855
0.023544
0.0234057
0.0232688
0.0231318
0.0229936
0.0228531
0.0227097
0.022563
0.0224127
0.0222585
0.0221003
0.021938
0.0217714
0.0216003
0.0214242
0.0212427
0.0210552
0.0208608
0.0206588
0.0204484
0.0202289
0.0199996
0.0197606
0.0195122
0.0192558
0.0189936
0.0187289
0.0184662
0.0182112
0.0179708
0.0177522
0.0175633
0.0174119
0.0173051
0.0172491
0.0172489
0.0173076
0.0174272
0.0176077
0.0178477
0.0181449
0.0184956
0.0188957
0.0193403
0.0198247
0.0203435
0.0208916
0.021464
0.0220557
0.022662
0.0232785
0.0239011
0.0245259
0.0251493
0.025768
0.026379
0.0269797
0.0275676
0.0281407
0.028697
0.029235
0.0297529
0.0302493
0.0307228
0.0311717
0.031595
0.0319918
0.0323622
0.0327078
0.0330317
0.0243246
0.024149
0.0239836
0.0238256
0.0236719
0.0235196
0.0233663
0.0232102
0.0230499
0.0228846
0.0227136
0.0225368
0.022354
0.0221649
0.0219695
0.0217672
0.0215577
0.0213401
0.0211135
0.0208768
0.0206287
0.0203681
0.0200938
0.0198052
0.0195022
0.0191857
0.0188576
0.0185214
0.0181822
0.0178468
0.0175233
0.0172211
0.0169501
0.01672
0.0165401
0.0164179
0.0163592
0.0163675
0.0164442
0.0165886
0.0167978
0.0170681
0.0173942
0.0177705
0.018191
0.0186499
0.0191413
0.0196598
0.0202003
0.0207582
0.0213294
0.0219099
0.0224961
0.0230851
0.023674
0.0242602
0.0248415
0.0254158
0.0259811
0.0265356
0.0270778
0.0276062
0.0281194
0.0286163
0.0290958
0.0295567
0.0299979
0.0304181
0.030816
0.0311903
0.0315402
0.0318653
0.0321668
0.032448
0.0327144
0.0243243
0.0241468
0.0239767
0.0238093
0.0236402
0.0234659
0.0232839
0.0230927
0.0228916
0.0226803
0.022459
0.0222278
0.0219865
0.0217349
0.0214724
0.0211979
0.0209102
0.020608
0.0202896
0.0199538
0.0195998
0.0192277
0.0188389
0.0184364
0.0180255
0.0176135
0.0172098
0.0168258
0.016474
0.0161667
0.0159159
0.0157315
0.0156208
0.0155882
0.015635
0.0157597
0.0159584
0.0162254
0.0165538
0.0169361
0.0173649
0.0178327
0.0183326
0.0188582
0.0194038
0.0199643
0.0205353
0.0211127
0.0216933
0.0222741
0.0228524
0.0234259
0.0239925
0.0245507
0.025099
0.0256361
0.0261608
0.0266722
0.0271693
0.0276513
0.0281174
0.0285672
0.029
0.0294152
0.0298122
0.0301904
0.0305487
0.0308863
0.0312019
0.0314945
0.0317637
0.0320102
0.0322366
0.0324483
0.0326541
0.0243232
0.0241413
0.0239602
0.023773
0.023574
0.0233598
0.0231285
0.02288
0.0226147
0.0223334
0.0220366
0.0217245
0.0213967
0.0210524
0.0206903
0.0203087
0.0199064
0.0194823
0.0190365
0.0185709
0.0180893
0.0175983
0.0171077
0.0166298
0.0161793
0.0157719
0.0154231
0.0151467
0.0149536
0.0148505
0.0148401
0.0149212
0.0150891
0.0153366
0.0156551
0.0160352
0.0164674
0.0169426
0.0174524
0.0179894
0.0185468
0.0191189
0.0197008
0.0202883
0.0208778
0.0214663
0.0220511
0.02263
0.0232013
0.0237632
0.0243142
0.0248531
0.025379
0.0258908
0.026388
0.0268698
0.0273358
0.0277853
0.028218
0.0286335
0.0290317
0.0294121
0.0297747
0.0301192
0.0304451
0.030752
0.031039
0.0313051
0.0315493
0.0317708
0.0319699
0.0321483
0.0323103
0.0324641
0.0326215
0.0243204
0.0241281
0.0239242
0.0236991
0.0234473
0.0231669
0.0228585
0.0225241
0.0221657
0.0217847
0.0213819
0.0209571
0.0205092
0.020037
0.0195396
0.0190166
0.0184697
0.0179029
0.0173235
0.016743
0.0161762
0.0156413
0.0151579
0.0147454
0.0144205
0.0141957
0.014078
0.0140686
0.0141639
0.0143559
0.0146344
0.0149875
0.0154034
0.0158705
0.0163783
0.0169174
0.0174798
0.0180586
0.0186482
0.0192436
0.019841
0.020437
0.0210291
0.0216151
0.022193
0.0227614
0.0233191
0.0238649
0.0243979
0.0249172
0.0254222
0.0259122
0.0263867
0.0268453
0.0272877
0.0277135
0.0281224
0.0285141
0.0288884
0.0292453
0.0295846
0.0299062
0.0302101
0.0304962
0.0307639
0.0310128
0.0312419
0.0314502
0.0316366
0.0318009
0.0319437
0.0320682
0.0321805
0.0322917
0.0324168
0.0243137
0.0240994
0.0238518
0.0235606
0.0232232
0.0228424
0.0224226
0.0219685
0.0214835
0.0209692
0.020426
0.0198536
0.0192515
0.0186206
0.017964
0.0172885
0.0166055
0.0159315
0.0152876
0.0146979
0.0141868
0.0137762
0.0134821
0.0133136
0.013272
0.0133516
0.0135417
0.0138283
0.0141964
0.0146309
0.0151179
0.015645
0.0162018
0.0167793
0.0173703
0.0179689
0.0185703
0.0191707
0.0197672
0.0203572
0.020939
0.021511
0.0220721
0.0226214
0.023158
0.0236815
0.0241912
0.0246868
0.0251677
0.0256337
0.0260845
0.0265198
0.0269394
0.0273432
0.0277309
0.0281023
0.0284573
0.0287957
0.0291173
0.0294223
0.0297105
0.0299819
0.0302365
0.030474
0.0306939
0.0308956
0.0310779
0.0312397
0.03138
0.0314988
0.0315975
0.0316806
0.0317564
0.0318385
0.0319451
0.024299
0.0240417
0.0237171
0.0233196
0.022855
0.0223331
0.0217635
0.0211532
0.0205061
0.0198241
0.0191081
0.01836
0.0175845
0.0167909
0.0159945
0.0152174
0.0144873
0.0138346
0.0132887
0.0128734
0.0126033
0.0124826
0.0125058
0.0126596
0.0129265
0.0132871
0.0137223
0.014215
0.0147501
0.0153152
0.0159002
0.0164969
0.0170991
0.0177016
0.0183008
0.0188937
0.019478
0.0200521
0.0206148
0.0211651
0.0217025
0.0222263
0.0227365
0.0232326
0.0237145
0.0241822
0.0246354
0.0250742
0.0254984
0.0259079
0.0263027
0.0266828
0.0270481
0.0273985
0.0277339
0.0280541
0.0283592
0.0286489
0.0289232
0.0291822
0.0294257
0.0296538
0.0298664
0.0300631
0.0302433
0.030406
0.03055
0.0306741
0.0307773
0.0308598
0.030924
0.0309757
0.0310253
0.031089
0.0311878
0.0242687
0.0239334
0.0234838
0.022929
0.0222889
0.0215829
0.0208248
0.0200231
0.0191822
0.018306
0.0174001
0.0164756
0.015551
0.0146534
0.0138173
0.0130808
0.0124791
0.0120388
0.0117733
0.0116814
0.0117503
0.0119589
0.0122827
0.0126972
0.0131799