/*--------------------------------*- C++ -*----------------------------------*\
  =========                 |
  \\      /  F ield         | OpenFOAM: The Open Source CFD Toolbox
   \\    /   O peration     | Website:  https://openfoam.org
    \\  /    A nd           | Version:  7
     \\/     M anipulation  |
\*---------------------------------------------------------------------------*/
FoamFile
{
    version     2.0;
    format      ascii;
    class       volScalarField;
    location    "950";
    object      p;
}
// * * * * * * * * * * * * * * * * * * * * * * * * * * * * * * * * * * * * * //

dimensions      [0 2 -2 0 0 0 0];

internalField   nonuniform List<scalar> 
4500
(
65.7672
62.7554
61.5956
60.4614
59.3334
58.2485
57.1974
56.1705
55.1643
54.176
53.2033
52.2443
51.2976
50.3619
49.4363
48.5198
47.6117
46.7114
45.8183
44.9319
44.0518
43.1775
42.3088
41.4452
40.5866
39.7326
38.883
38.0375
37.196
36.3583
35.5241
34.6934
33.8659
33.0414
32.2199
31.4012
30.5852
29.7718
28.9607
28.152
27.3454
26.5409
25.7383
24.9376
24.1386
23.3411
22.5452
21.7506
20.9573
20.165
19.3738
18.5834
17.7938
17.0048
16.2162
15.428
14.6401
13.8522
13.0643
12.2762
11.4879
10.6993
9.91019
9.1206
8.33049
7.53988
6.74881
5.95738
5.1657
4.37384
3.58181
2.78944
1.99616
1.20158
0.405104
65.3804
62.7271
61.5944
60.4619
59.3338
58.2488
57.1976
56.1707
55.1644
54.1761
53.2034
52.2444
51.2977
50.362
49.4363
48.5198
47.6117
46.7114
45.8183
44.9319
44.0518
43.1775
42.3088
41.4453
40.5866
39.7326
38.883
38.0375
37.196
36.3583
35.5241
34.6934
33.8659
33.0414
32.2199
31.4013
30.5852
29.7718
28.9607
28.152
27.3454
26.5409
25.7383
24.9376
24.1385
23.3411
22.5452
21.7506
20.9573
20.165
19.3738
18.5834
17.7938
17.0048
16.2162
15.428
14.64
13.8522
13.0643
12.2762
11.4879
10.6993
9.91018
9.12059
8.33049
7.53987
6.7488
5.95737
5.16569
4.37383
3.5818
2.78943
1.99615
1.20157
0.405097
65.2929
62.7341
61.5965
60.4629
59.3344
58.2492
57.198
56.171
55.1647
54.1763
53.2036
52.2446
51.2978
50.3621
49.4364
48.5199
47.6118
46.7115
45.8184
44.932
44.0518
43.1776
42.3088
41.4453
40.5866
39.7326
38.883
38.0376
37.1961
36.3583
35.5242
34.6934
33.8659
33.0414
32.2199
31.4013
30.5852
29.7718
28.9607
28.152
27.3454
26.5409
25.7383
24.9376
24.1385
23.3411
22.5452
21.7506
20.9572
20.165
19.3738
18.5834
17.7938
17.0048
16.2162
15.428
14.64
13.8522
13.0643
12.2762
11.4879
10.6993
9.91016
9.12058
8.33047
7.53986
6.74879
5.95736
5.16568
4.37382
3.58179
2.78941
1.99613
1.20156
0.405086
65.2925
62.7423
61.5984
60.464
59.3352
58.2498
57.1984
56.1713
55.165
54.1766
53.2038
52.2448
51.298
50.3623
49.4366
48.52
47.6119
46.7116
45.8185
44.932
44.0519
43.1776
42.3089
41.4453
40.5867
39.7327
38.883
38.0376
37.1961
36.3583
35.5242
34.6934
33.8659
33.0414
32.2199
31.4013
30.5852
29.7718
28.9607
28.152
27.3454
26.5409
25.7383
24.9376
24.1385
23.3411
22.5452
21.7506
20.9572
20.165
19.3738
18.5834
17.7938
17.0047
16.2162
15.428
14.64
13.8521
13.0642
12.2762
11.4879
10.6992
9.91015
9.12057
8.33046
7.53984
6.74878
5.95734
5.16566
4.3738
3.58177
2.7894
1.99612
1.20154
0.405076
65.2887
62.7454
61.5996
60.4651
59.3361
58.2505
57.199
56.1717
55.1653
54.1769
53.204
52.245
51.2982
50.3624
49.4367
48.5202
47.612
46.7117
45.8185
44.9321
44.052
43.1777
42.3089
41.4454
40.5867
39.7327
38.8831
38.0376
37.1961
36.3584
35.5242
34.6934
33.8659
33.0415
32.22
31.4013
30.5852
29.7718
28.9607
28.152
27.3454
26.5409
25.7383
24.9376
24.1385
23.3411
22.5452
21.7506
20.9572
20.165
19.3738
18.5834
17.7938
17.0047
16.2162
15.428
14.64
13.8521
13.0642
12.2762
11.4879
10.6992
9.91013
9.12055
8.33044
7.53983
6.74876
5.95732
5.16564
4.37378
3.58175
2.78938
1.9961
1.20153
0.405066
65.2784
62.7477
61.6006
60.4662
59.337
58.2512
57.1996
56.1722
55.1657
54.1772
53.2043
52.2452
51.2984
50.3626
49.4369
48.5203
47.6122
46.7118
45.8187
44.9322
44.0521
43.1778
42.309
41.4454
40.5868
39.7328
38.8831
38.0377
37.1962
36.3584
35.5242
34.6934
33.8659
33.0415
32.22
31.4013
30.5853
29.7718
28.9607
28.152
27.3454
26.5409
25.7383
24.9376
24.1385
23.3411
22.5451
21.7506
20.9572
20.165
19.3737
18.5834
17.7937
17.0047
16.2162
15.428
14.64
13.8521
13.0642
12.2762
11.4879
10.6992
9.91012
9.12053
8.33042
7.53981
6.74874
5.9573
5.16562
4.37376
3.58173
2.78936
1.99608
1.20152
0.405055
65.2688
62.7506
61.6014
60.4671
59.3379
58.252
57.2002
56.1728
55.1662
54.1776
53.2047
52.2455
51.2986
50.3628
49.4371
48.5205
47.6123
46.7119
45.8188
44.9323
44.0522
43.1779
42.3091
41.4455
40.5869
39.7328
38.8832
38.0377
37.1962
36.3584
35.5243
34.6935
33.8659
33.0415
32.22
31.4013
30.5853
29.7718
28.9607
28.152
27.3454
26.5409
25.7383
24.9375
24.1385
23.3411
22.5451
21.7506
20.9572
20.165
19.3737
18.5834
17.7937
17.0047
16.2162
15.428
14.64
13.8521
13.0642
12.2761
11.4878
10.6992
9.9101
9.12051
8.3304
7.53979
6.74872
5.95728
5.1656
4.37373
3.5817
2.78934
1.99607
1.20151
0.405043
65.2601
62.7538
61.6022
60.4679
59.3387
58.2528
57.2009
56.1734
55.1667
54.1781
53.2051
52.2459
51.2989
50.3631
49.4373
48.5207
47.6125
46.7121
45.8189
44.9325
44.0523
43.178
42.3092
41.4456
40.5869
39.7329
38.8833
38.0378
37.1963
36.3585
35.5243
34.6935
33.866
33.0415
32.22
31.4013
30.5853
29.7718
28.9607
28.152
27.3454
26.5409
25.7383
24.9376
24.1385
23.3411
22.5451
21.7505
20.9572
20.165
19.3737
18.5834
17.7937
17.0047
16.2161
15.4279
14.64
13.8521
13.0642
12.2761
11.4878
10.6992
9.91008
9.12049
8.33038
7.53977
6.74869
5.95726
5.16557
4.37371
3.58168
2.78931
1.99605
1.20151
0.405029
65.2512
62.7571
61.6028
60.4686
59.3395
58.2535
57.2016
56.174
55.1672
54.1785
53.2055
52.2462
51.2993
50.3634
49.4376
48.5209
47.6127
46.7123
45.8191
44.9326
44.0524
43.1781
42.3093
41.4457
40.587
39.733
38.8833
38.0379
37.1963
36.3586
35.5244
34.6936
33.866
33.0416
32.2201
31.4014
30.5853
29.7718
28.9608
28.152
27.3454
26.5409
25.7383
24.9376
24.1385
23.3411
22.5451
21.7505
20.9572
20.165
19.3737
18.5833
17.7937
17.0047
16.2161
15.4279
14.6399
13.8521
13.0642
12.2761
11.4878
10.6991
9.91006
9.12047
8.33036
7.53974
6.74867
5.95723
5.16554
4.37368
3.58165
2.78929
1.99604
1.20151
0.405014
65.2416
62.7604
61.6033
60.4692
59.3401
58.2542
57.2023
56.1746
55.1678
54.1791
53.206
52.2466
51.2996
50.3637
49.4379
48.5212
47.613
46.7125
45.8193
44.9328
44.0526
43.1783
42.3095
41.4458
40.5872
39.7331
38.8834
38.0379
37.1964
36.3586
35.5244
34.6936
33.8661
33.0416
32.2201
31.4014
30.5854
29.7719
28.9608
28.152
27.3454
26.5409
25.7383
24.9376
24.1385
23.3411
22.5451
21.7505
20.9572
20.165
19.3737
18.5833
17.7937
17.0047
16.2161
15.4279
14.6399
13.852
13.0641
12.2761
11.4878
10.6991
9.91004
9.12045
8.33034
7.53972
6.74864
5.9572
5.16551
4.37364
3.58162
2.78926
1.99602
1.20151
0.404996
65.2314
62.7639
61.6037
60.4696
59.3406
58.2547
57.2029
56.1752
55.1684
54.1796
53.2064
52.2471
51.3001
50.3641
49.4382
48.5215
47.6133
46.7128
45.8195
44.933
44.0528
43.1784
42.3096
41.446
40.5873
39.7332
38.8836
38.038
37.1965
36.3587
35.5245
34.6937
33.8662
33.0417
32.2202
31.4014
30.5854
29.7719
28.9608
28.1521
27.3455
26.5409
25.7383
24.9376
24.1386
23.3411
22.5452
21.7506
20.9572
20.165
19.3737
18.5833
17.7937
17.0047
16.2161
15.4279
14.6399
13.852
13.0641
12.2761
11.4878
10.6991
9.91002
9.12043
8.33031
7.53969
6.74861
5.95717
5.16547
4.37361
3.58159
2.78924
1.99601
1.20152
0.404973
65.2204
62.7678
61.6039
60.4699
59.3409
58.2552
57.2034
56.1758
55.1689
54.1801
53.207
52.2476
51.3005
50.3645
49.4386
48.5219
47.6136
46.7131
45.8198
44.9333
44.053
43.1786
42.3098
41.4462
40.5874
39.7334
38.8837
38.0382
37.1966
36.3588
35.5246
34.6938
33.8662
33.0418
32.2202
31.4015
30.5855
29.772
28.9609
28.1521
27.3455
26.541
25.7384
24.9376
24.1386
23.3411
22.5452
21.7506
20.9572
20.165
19.3737
18.5833
17.7937
17.0047
16.2161
15.4279
14.6399
13.852
13.0641
12.2761
11.4878
10.6991
9.91
9.1204
8.33029
7.53966
6.74858
5.95713
5.16544
4.37357
3.58156
2.78922
1.996
1.20153
0.404945
65.2087
62.7719
61.6041
60.4702
59.3412
58.2555
57.2038
56.1763
55.1695
54.1807
53.2075
52.2481
51.301
50.3649
49.439
48.5222
47.6139
46.7134
45.8201
44.9335
44.0533
43.1789
42.31
41.4464
40.5876
39.7335
38.8838
38.0383
37.1968
36.359
35.5247
34.6939
33.8663
33.0419
32.2203
31.4016
30.5855
29.772
28.9609
28.1522
27.3456
26.541
25.7384
24.9377
24.1386
23.3412
22.5452
21.7506
20.9572
20.165
19.3737
18.5833
17.7937
17.0047
16.2161
15.4279
14.6399
13.852
13.0641
12.276
11.4877
10.6991
9.90998
9.12038
8.33027
7.53964
6.74855
5.9571
5.1654
4.37354
3.58152
2.78919
1.99599
1.20154
0.404909
65.1964
62.7765
61.6042
60.4704
59.3414
58.2557
57.2041
56.1766
55.1699
54.1811
53.2079
52.2485
51.3014
50.3654
49.4394
48.5226
47.6143
46.7137
45.8204
44.9338
44.0535
43.1791
42.3103
41.4466
40.5878
39.7337
38.884
38.0385
37.1969
36.3591
35.5249
34.694
33.8665
33.042
32.2204
31.4017
30.5856
29.7721
28.961
28.1522
27.3456
26.5411
25.7385
24.9377
24.1387
23.3412
22.5452
21.7506
20.9573
20.165
19.3738
18.5834
17.7937
17.0047
16.2161
15.4279
14.6399
13.852
13.0641
12.276
11.4877
10.6991
9.90996
9.12037
8.33024
7.53961
6.74852
5.95707
5.16537
4.3735
3.58149
2.78917
1.99598
1.20155
0.404864
65.1832
62.7814
61.6044
60.4705
59.3415
58.2558
57.2042
56.1769
55.1702
54.1815
53.2084
52.249
51.3019
50.3658
49.4398
48.523
47.6147
46.7141
45.8208
44.9342
44.0539
43.1794
42.3105
41.4469
40.5881
39.734
38.8842
38.0387
37.1971
36.3593
35.525
34.6942
33.8666
33.0421
32.2205
31.4018
30.5857
29.7722
28.9611
28.1523
27.3457
26.5411
25.7385
24.9378
24.1387
23.3413
22.5453
21.7507
20.9573
20.165
19.3738
18.5834
17.7937
17.0047
16.2161
15.4279
14.6399
13.852
13.0641
12.276
11.4877
10.6991
9.90995
9.12035
8.33023
7.53959
6.7485
5.95704
5.16534
4.37347
3.58146
2.78914
1.99597
1.20157
0.404805
65.1693
62.7868
61.6045
60.4707
59.3416
58.2559
57.2043
56.177
55.1704
54.1818
53.2087
52.2494
51.3023
50.3662
49.4403
48.5234
47.6151
46.7145
45.8211
44.9345
44.0542
43.1798
42.3108
41.4471
40.5884
39.7342
38.8845
38.0389
37.1973
36.3595
35.5252
34.6944
33.8668
33.0423
32.2207
31.4019
30.5859
29.7723
28.9612
28.1524
27.3458
26.5412
25.7386
24.9378
24.1388
23.3413
22.5453
21.7507
20.9573
20.1651
19.3738
18.5834
17.7938
17.0047
16.2161
15.4279
14.6399
13.852
13.0641
12.276
11.4877
10.6991
9.90995
9.12034
8.33021
7.53957
6.74847
5.95701
5.16531
4.37344
3.58143
2.78912
1.99597
1.20158
0.404731
65.1545
62.7927
61.6047
60.471
59.3417
58.2559
57.2043
56.177
55.1705
54.1819
53.2089
52.2496
51.3026
50.3666
49.4406
48.5238
47.6155
46.7149
45.8215
44.9349
44.0545
43.1801
42.3112
41.4475
40.5887
39.7345
38.8848
38.0392
37.1976
36.3597
35.5254
34.6946
33.867
33.0424
32.2209
31.4021
30.586
29.7725
28.9614
28.1526
27.3459
26.5414
25.7387
24.9379
24.1389
23.3414
22.5454
21.7508
20.9574
20.1652
19.3739
18.5835
17.7938
17.0048
16.2162
15.428
14.64
13.852
13.0641
12.2761
11.4877
10.6991
9.90995
9.12034
8.33021
7.53956
6.74846
5.95699
5.16528
4.37341
3.58141
2.7891
1.99596
1.20159
0.404638
65.139
62.799
61.6048
60.4713
59.3418
58.256
57.2043
56.177
55.1705
54.182
53.209
52.2498
51.3028
50.3669
49.441
48.5242
47.6158
46.7153
45.8219
44.9353
44.0549
43.1805
42.3115
41.4478
40.589
39.7348
38.885
38.0395
37.1978
36.36
35.5257
34.6948
33.8672
33.0427
32.2211
31.4023
30.5862
29.7727
28.9615
28.1527
27.3461
26.5415
25.7389
24.9381
24.139
23.3415
22.5455
21.7509
20.9575
20.1652
19.374
18.5835
17.7939
17.0048
16.2162
15.428
14.64
13.8521
13.0642
12.2761
11.4878
10.6991
9.90996
9.12034
8.33021
7.53955
6.74844
5.95697
5.16526
4.37339
3.58138
2.78909
1.99595
1.20161
0.404521
65.1227
62.8058
61.605
60.4717
59.342
58.256
57.2043
56.177
55.1705
54.182
53.209
52.2499
51.303
50.3671
49.4412
48.5245
47.6162
46.7156
45.8223
44.9356
44.0553
43.1808
42.3119
41.4481
40.5893
39.7351
38.8854
38.0398
37.1981
36.3602
35.526
34.6951
33.8674
33.0429
32.2213
31.4025
30.5864
29.7728
28.9617
28.1529
27.3462
26.5416
25.739
24.9382
24.1391
23.3416
22.5456
21.751
20.9576
20.1653
19.374
18.5836
17.794
17.0049
16.2163
15.4281
14.64
13.8521
13.0642
12.2761
11.4878
10.6991
9.90998
9.12036
8.33021
7.53956
6.74844
5.95696
5.16525
4.37337
3.58137
2.78907
1.99595
1.20162
0.404377
65.1056
62.813
61.6051
60.4721
59.3422
58.2561
57.2044
56.177
55.1704
54.1819
53.209
52.2498
51.303
50.3671
49.4413
48.5246
47.6164
46.7159
45.8226
44.936
44.0556
43.1812
42.3122
41.4485
40.5897
39.7355
38.8857
38.0401
37.1984
36.3606
35.5262
34.6954
33.8677
33.0432
32.2216
31.4028
30.5866
29.7731
28.9619
28.1531
27.3464
26.5418
25.7392
24.9384
24.1393
23.3418
22.5458
21.7511
20.9577
20.1655
19.3742
18.5837
17.7941
17.005
16.2164
15.4281
14.6401
13.8522
13.0643
12.2762
11.4878
10.6991
9.91001
9.12039
8.33024
7.53957
6.74845
5.95696
5.16524
4.37336
3.58135
2.78906
1.99595
1.20163
0.404202
65.0879
62.8206
61.6052
60.4726
59.3425
58.2563
57.2045
56.177
55.1704
54.1819
53.2089
52.2498
51.3029
50.3671
49.4413
48.5247
47.6165
46.716
45.8228
44.9362
44.0559
43.1815
42.3125
41.4488
40.59
39.7358
38.886
38.0404
37.1988
36.3609
35.5266
34.6957
33.868
33.0434
32.2218
31.403
30.5869
29.7733
28.9622
28.1533
27.3467
26.5421
25.7394
24.9386
24.1395
23.342
22.546
21.7513
20.9579
20.1656
19.3743
18.5839
17.7942
17.0051
16.2165
15.4282
14.6402
13.8523
13.0643
12.2762
11.4879
10.6992
9.91006
9.12043
8.33027
7.5396
6.74847
5.95698
5.16525
4.37336
3.58135
2.78906
1.99595
1.20164
0.40399
65.0697
62.8284
61.6053
60.4732
59.3429
58.2565
57.2046
56.1771
55.1704
54.1818
53.2089
52.2497
51.3028
50.367
49.4413
48.5247
47.6165
46.716
45.8228
44.9363
44.0561
43.1817
42.3128
41.4491
40.5903
39.7361
38.8864
38.0407
37.1991
36.3612
35.5269
34.696
33.8683
33.0438
32.2221
31.4033
30.5872
29.7736
28.9624
28.1536
27.3469
26.5423
25.7396
24.9388
24.1397
23.3422
22.5462
21.7515
20.9581
20.1658
19.3745
18.584
17.7943
17.0052
16.2166
15.4284
14.6403
13.8524
13.0644
12.2763
11.488
10.6993
9.91013
9.12049
8.33032
7.53964
6.74851
5.95701
5.16527
4.37338
3.58136
2.78907
1.99595
1.20164
0.403737
65.0512
62.8366
61.6053
60.4738
59.3433
58.2567
57.2047
56.1772
55.1705
54.1819
53.2089
52.2497
51.3028
50.367
49.4412
48.5246
47.6164
46.716
45.8228
44.9363
44.0561
43.1818
42.3129
41.4493
40.5905
39.7364
38.8866
38.041
37.1994
36.3615
35.5272
34.6963
33.8686
33.0441
32.2224
31.4036
30.5875
29.7739
28.9627
28.1539
27.3472
26.5426
25.7399
24.9391
24.1399
23.3424
22.5464
21.7517
20.9583
20.166
19.3747
18.5842
17.7945
17.0054
16.2168
15.4285
14.6405
13.8525
13.0646
12.2764
11.4881
10.6994
9.91022
9.12057
8.3304
7.53971
6.74856
5.95705
5.1653
4.3734
3.58138
2.78908
1.99597
1.20166
0.40344
65.0326
62.8448
61.6052
60.4744
59.3437
58.257
57.2049
56.1773
55.1706
54.1819
53.2089
52.2497
51.3027
50.3669
49.4411
48.5245
47.6163
46.7159
45.8227
44.9363
44.0561
43.1817
42.3129
41.4493
40.5906
39.7365
38.8868
38.0412
37.1996
36.3618
35.5275
34.6966
33.8689
33.0444
32.2228
31.4039
30.5878
29.7742
28.963
28.1542
27.3475
26.5429
25.7402
24.9393
24.1402
23.3427
22.5466
21.752
20.9585
20.1662
19.3749
18.5844
17.7947
17.0056
16.217
15.4287
14.6406
13.8527
13.0647
12.2766
11.4882
10.6995
9.91033
9.12067
8.33049
7.53979
6.74864
5.95712
5.16536
4.37345
3.58142
2.78911
1.99599
1.20167
0.403098
65.0144
62.853
61.605
60.4751
59.3441
58.2572
57.2052
56.1775
55.1707
54.182
53.209
52.2497
51.3027
50.3669
49.4411
48.5244
47.6162
46.7158
45.8226
44.9362
44.056
43.1817
42.3129
41.4493
40.5906
39.7365
38.8869
38.0413
37.1998
36.3619
35.5277
34.6968
33.8692
33.0446
32.223
31.4042
30.5881
29.7745
28.9633
28.1545
27.3478
26.5432
25.7405
24.9396
24.1405
23.343
22.5469
21.7522
20.9588
20.1665
19.3751
18.5847
17.7949
17.0058
16.2172
15.4289
14.6408
13.8529
13.0649
12.2768
11.4884
10.6996
9.91047
9.1208
8.3306
7.5399
6.74873
5.9572
5.16544
4.37352
3.58147
2.78916
1.99603
1.20169
0.402713
64.9969
62.8609
61.6047
60.4757
59.3446
58.2575
57.2054
56.1777
55.1709
54.1821
53.209
52.2498
51.3028
50.3669
49.441
48.5244
47.6162
46.7158
45.8225
44.9361
44.0559
43.1816
42.3128
41.4492
40.5905
39.7365
38.8868
38.0413
37.1998
36.362
35.5277
34.6969
33.8693
33.0448
32.2232
31.4045
30.5883
29.7748
28.9636
28.1548
27.3481
26.5435
25.7408
24.9399
24.1408
23.3433
22.5472
21.7525
20.9591
20.1667
19.3754
18.5849
17.7952
17.0061
16.2174
15.4291
14.6411
13.8531
13.0651
12.2769
11.4886
10.6998
9.91062
9.12095
8.33074
7.54002
6.74885
5.95731
5.16553
4.3736
3.58155
2.78922
1.99608
1.20173
0.402292
64.9809
62.8683
61.6044
60.4763
59.345
58.2578
57.2056
56.1779
55.171
54.1822
53.2091
52.2498
51.3028
50.3669
49.4411
48.5244
47.6162
46.7157
45.8225
44.936
44.0558
43.1815
42.3127
41.4491
40.5904
39.7364
38.8867
38.0412
37.1997
36.3619
35.5277
34.6969
33.8693
33.0449
32.2233
31.4046
30.5885
29.7749
28.9638
28.155
27.3483
26.5437
25.741
24.9402
24.1411
23.3435
22.5475
21.7528
20.9594
20.167
19.3757
18.5852
17.7955
17.0063
16.2177
15.4294
14.6413
13.8533
13.0653
12.2772
11.4887
10.7
9.9108
9.12112
8.3309
7.54018
6.74899
5.95744
5.16566
4.37371
3.58165
2.78931
1.99615
1.20178
0.401855
64.967
62.8748
61.6041
60.4767
59.3454
58.258
57.2058
56.178
55.1711
54.1823
53.2092
52.2499
51.3029
50.367
49.4411
48.5244
47.6162
46.7157
45.8225
44.936
44.0558
43.1814
42.3126
41.449
40.5903
39.7363
38.8866
38.0411
37.1996
36.3618
35.5276
34.6968
33.8693
33.0448
32.2233
31.4046
30.5885
29.775
28.9639
28.1551
27.3484
26.5438
25.7412
24.9404
24.1413
23.3438
22.5477
21.7531
20.9596
20.1673
19.3759
18.5855
17.7957
17.0066
16.2179
15.4296
14.6415
13.8535
13.0655
12.2774
11.489
10.7002
9.911
9.1213
8.33108
7.54034
6.74915
5.95759
5.1658
4.37384
3.58177
2.78941
1.99624
1.20184
0.401436
64.9564
62.8798
61.6038
60.4771
59.3457
58.2582
57.2059
56.1782
55.1712
54.1824
53.2093
52.25
51.3029
50.367
49.4411
48.5244
47.6162
46.7157
45.8225
44.936
44.0558
43.1814
42.3126
41.449
40.5903
39.7362
38.8865
38.041
37.1995
36.3617
35.5275
34.6967
33.8692
33.0447
32.2232
31.4045
30.5884
29.7749
28.9639
28.1551
27.3484
26.5439
25.7413
24.9405
24.1414
23.3439
22.5479
21.7532
20.9598
20.1675
19.3761
18.5857
17.7959
17.0068
16.2181
15.4298
14.6417
13.8538
13.0657
12.2776
11.4892
10.7004
9.91119
9.12148
8.33125
7.54051
6.74931
5.95774
5.16594
4.37397
3.58189
2.78952
1.99634
1.20192
0.401088
64.9503
62.8828
61.6036
60.4773
59.3459
58.2583
57.206
56.1782
55.1713
54.1825
53.2093
52.25
51.303
50.367
49.4412
48.5245
47.6162
46.7157
45.8225
44.936
44.0558
43.1814
42.3126
41.449
40.5902
39.7362
38.8865
38.041
37.1995
36.3617
35.5275
34.6967
33.8691
33.0447
32.2231
31.4044
30.5884
29.7749
28.9638
28.155
27.3484
26.5439
25.7412
24.9405
24.1414
23.3439
22.5479
21.7533
20.9599
20.1676
19.3762
18.5858
17.7961
17.0069
16.2183
15.43
14.6419
13.8539
13.0659
12.2777
11.4893
10.7005
9.91131
9.1216
8.33137
7.54062
6.74942
5.95784
5.16603
4.37407
3.58198
2.7896
1.99641
1.20198
0.400878
64.9503
62.8828
61.6036
60.4773
59.3459
58.2583
57.206
56.1782
55.1713
54.1825
53.2093
52.25
51.303
50.367
49.4412
48.5245
47.6162
46.7157
45.8225
44.936
44.0558
43.1814
42.3126
41.449
40.5902
39.7362
38.8865
38.041
37.1995
36.3617
35.5275
34.6967
33.8691
33.0447
32.2231
31.4044
30.5884
29.7749
28.9638
28.155
27.3484
26.5439
25.7412
24.9405
24.1414
23.3439
22.5479
21.7533
20.9599
20.1676
19.3762
18.5858
17.7961
17.0069
16.2183
15.43
14.6419
13.8539
13.0659
12.2777
11.4893
10.7005
9.91131
9.1216
8.33137
7.54062
6.74942
5.95784
5.16603
4.37406
3.58198
2.7896
1.99641
1.20198
0.400874
64.9564
62.8798
61.6038
60.4771
59.3457
58.2582
57.2059
56.1782
55.1712
54.1824
53.2093
52.25
51.3029
50.367
49.4411
48.5244
47.6162
46.7157
45.8225
44.936
44.0558
43.1814
42.3126
41.449
40.5903
39.7362
38.8865
38.041
37.1995
36.3617
35.5275
34.6967
33.8692
33.0447
32.2232
31.4045
30.5884
29.7749
28.9639
28.1551
27.3484
26.5439
25.7413
24.9405
24.1414
23.3439
22.5479
21.7532
20.9598
20.1675
19.3761
18.5857
17.7959
17.0068
16.2181
15.4298
14.6417
13.8538
13.0657
12.2776
11.4892
10.7004
9.91119
9.12148
8.33125
7.54051
6.74931
5.95774
5.16594
4.37397
3.58189
2.78952
1.99635
1.20193
0.401078
64.967
62.8748
61.6041
60.4767
59.3454
58.258
57.2058
56.178
55.1711
54.1823
53.2092
52.2499
51.3029
50.367
49.4411
48.5244
47.6162
46.7157
45.8225
44.936
44.0558
43.1814
42.3126
41.449
40.5903
39.7363
38.8866
38.0411
37.1996
36.3618
35.5276
34.6968
33.8693
33.0448
32.2233
31.4046
30.5885
29.775
28.9639
28.1551
27.3484
26.5438
25.7412
24.9404
24.1413
23.3438
22.5477
21.7531
20.9596
20.1673
19.3759
18.5855
17.7957
17.0066
16.2179
15.4296
14.6415
13.8535
13.0655
12.2774
11.489
10.7002
9.911
9.1213
8.33108
7.54034
6.74915
5.95759
5.16579
4.37384
3.58177
2.78942
1.99626
1.20186
0.401421
64.9808
62.8683
61.6044
60.4763
59.345
58.2578
57.2056
56.1779
55.171
54.1822
53.2091
52.2498
51.3028
50.3669
49.4411
48.5244
47.6162
46.7157
45.8225
44.936
44.0558
43.1815
42.3127
41.4491
40.5904
39.7364
38.8867
38.0412
37.1997
36.3619
35.5277
34.6969
33.8693
33.0449
32.2233
31.4046
30.5885
29.7749
28.9638
28.155
27.3483
26.5437
25.741
24.9402
24.1411
23.3435
22.5475
21.7528
20.9594
20.167
19.3757
18.5852
17.7955
17.0063
16.2177
15.4294
14.6413
13.8533
13.0653
12.2772
11.4887
10.7
9.9108
9.12112
8.3309
7.54017
6.74899
5.95744
5.16565
4.37371
3.58166
2.78931
1.99617
1.2018
0.401835
64.9969
62.861
61.6048
60.4757
59.3446
58.2575
57.2054
56.1777
55.1709
54.1821
53.209
52.2498
51.3028
50.3669
49.441
48.5244
47.6162
46.7158
45.8225
44.9361
44.0559
43.1816
42.3128
41.4492
40.5905
39.7365
38.8868
38.0413
37.1998
36.362
35.5277
34.6969
33.8693
33.0448
32.2232
31.4045
30.5883
29.7748
28.9636
28.1548
27.3481
26.5435
25.7408
24.9399
24.1408
23.3433
22.5472
21.7525
20.9591
20.1667
19.3754
18.5849
17.7952
17.0061
16.2174
15.4291
14.6411
13.8531
13.0651
12.2769
11.4886
10.6998
9.91062
9.12095
8.33074
7.54002
6.74885
5.95731
5.16553
4.3736
3.58156
2.78923
1.99611
1.20175
0.402269
65.0144
62.853
61.605
60.4751
59.3441
58.2572
57.2052
56.1775
55.1707
54.182
53.209
52.2497
51.3027
50.3669
49.4411
48.5244
47.6162
46.7158
45.8226
44.9362
44.056
43.1817
42.3129
41.4493
40.5906
39.7365
38.8869
38.0413
37.1998
36.3619
35.5277
34.6968
33.8692
33.0446
32.223
31.4042
30.5881
29.7745
28.9633
28.1545
27.3478
26.5432
25.7405
24.9396
24.1405
23.343
22.5469
21.7522
20.9588
20.1665
19.3751
18.5847
17.7949
17.0058
16.2172
15.4289
14.6408
13.8529
13.0649
12.2768
11.4884
10.6996
9.91047
9.1208
8.3306
7.53989
6.74873
5.9572
5.16544
4.37351
3.58149
2.78916
1.99606
1.20172
0.402687
65.0326
62.8448
61.6052
60.4744
59.3437
58.257
57.2049
56.1773
55.1706
54.1819
53.2089
52.2497
51.3027
50.3669
49.4411
48.5245
47.6163
46.7159
45.8227
44.9363
44.0561
43.1817
42.3129
41.4493
40.5906
39.7365
38.8868
38.0412
37.1996
36.3618
35.5275
34.6966
33.8689
33.0444
32.2228
31.4039
30.5878
29.7742
28.963
28.1542
27.3475
26.5429
25.7402
24.9393
24.1402
23.3427
22.5466
21.752
20.9585
20.1662
19.3749
18.5844
17.7947
17.0056
16.217
15.4287
14.6406
13.8527
13.0647
12.2766
11.4882
10.6995
9.91033
9.12067
8.33049
7.53979
6.74863
5.95711
5.16536
4.37345
3.58143
2.78912
1.99603
1.2017
0.403071
65.0512
62.8366
61.6053
60.4738
59.3433
58.2567
57.2047
56.1772
55.1705
54.1819
53.2089
52.2497
51.3028
50.367
49.4412
48.5246
47.6164
46.716
45.8228
44.9363
44.0561
43.1818
42.3129
41.4493
40.5905
39.7364
38.8866
38.041
37.1994
36.3615
35.5272
34.6963
33.8686
33.0441
32.2225
31.4036
30.5875
29.7739
28.9627
28.1539
27.3472
26.5426
25.7399
24.9391
24.1399
23.3424
22.5464
21.7517
20.9583
20.166
19.3747
18.5842
17.7945
17.0054
16.2168
15.4285
14.6405
13.8525
13.0646
12.2765
11.4881
10.6994
9.91022
9.12057
8.33039
7.5397
6.74856
5.95705
5.1653
4.3734
3.5814
2.78909
1.99601
1.20169
0.403411
65.0697
62.8285
61.6053
60.4732
59.3429
58.2565
57.2046
56.1771
55.1704
54.1818
53.2089
52.2497
51.3028
50.367
49.4413
48.5247
47.6165
46.716
45.8228
44.9363
44.0561
43.1817
42.3128
41.4491
40.5903
39.7361
38.8864
38.0407
37.1991
36.3612
35.5269
34.696
33.8683
33.0438
32.2221
31.4033
30.5872
29.7736
28.9624
28.1536
27.3469
26.5423
25.7396
24.9388
24.1397
23.3422
22.5462
21.7515
20.9581
20.1658
19.3745
18.584
17.7943
17.0052
16.2166
15.4284
14.6403
13.8524
13.0644
12.2763
11.488
10.6993
9.91013
9.12049
8.33032
7.53964
6.7485
5.957
5.16527
4.37338
3.58138
2.78908
1.996
1.20168
0.403707
65.0879
62.8206
61.6052
60.4726
59.3425
58.2563
57.2045
56.177
55.1704
54.1819
53.2089
52.2498
51.3029
50.3671
49.4413
48.5247
47.6165
46.716
45.8228
44.9362
44.0559
43.1815
42.3125
41.4488
40.59
39.7358
38.886
38.0404
37.1988
36.3609
35.5266
34.6957
33.868
33.0434
32.2218
31.403
30.5869
29.7733
28.9622
28.1533
27.3467
26.5421
25.7394
24.9386
24.1395
23.342
22.546
21.7513
20.9579
20.1656
19.3743
18.5839
17.7942
17.0051
16.2165
15.4282
14.6402
13.8523
13.0643
12.2762
11.4879
10.6992
9.91006
9.12043
8.33027
7.5396
6.74847
5.95697
5.16525
4.37336
3.58137
2.78907
1.99599
1.20167
0.40396
65.1056
62.813
61.6051
60.4721
59.3422
58.2561
57.2044
56.177
55.1704
54.1819
53.209
52.2498
51.303
50.3671
49.4413
48.5246
47.6164
46.7159
45.8226
44.936
44.0556
43.1812
42.3122
41.4485
40.5897
39.7355
38.8857
38.0401
37.1984
36.3606
35.5262
34.6954
33.8677
33.0432
32.2216
31.4028
30.5866
29.7731
28.9619
28.1531
27.3464
26.5418
25.7392
24.9384
24.1393
23.3418
22.5458
21.7511
20.9577
20.1655
19.3742
18.5837
17.7941
17.005
16.2164
15.4281
14.6401
13.8522
13.0643
12.2762
11.4878
10.6991
9.91001
9.12039
8.33023
7.53957
6.74845
5.95696
5.16524
4.37336
3.58137
2.78908
1.99599
1.20166
0.404171
65.1226
62.8058
61.605
60.4717
59.342
58.256
57.2043
56.177
55.1705
54.182
53.209
52.2499
51.303
50.3671
49.4412
48.5245
47.6162
46.7156
45.8223
44.9356
44.0553
43.1808
42.3119
41.4481
40.5893
39.7351
38.8854
38.0398
37.1981
36.3602
35.526
34.6951
33.8674
33.0429
32.2213
31.4025
30.5864
29.7728
28.9617
28.1529
27.3462
26.5416
25.739
24.9382
24.1391
23.3416
22.5456
21.751
20.9576
20.1653
19.374
18.5836
17.794
17.0049
16.2163
15.4281
14.64
13.8521
13.0642
12.2761
11.4878
10.6991
9.90998
9.12036
8.33021
7.53955
6.74844
5.95696
5.16525
4.37337
3.58139
2.78909
1.99599
1.20165
0.404347
65.1389
62.7991
61.6048
60.4713
59.3418
58.256
57.2043
56.177
55.1705
54.182
53.209
52.2498
51.3028
50.3669
49.441
48.5242
47.6158
46.7153
45.8219
44.9353
44.0549
43.1805
42.3115
41.4478
40.589
39.7348
38.8851
38.0395
37.1978
36.36
35.5257
34.6948
33.8672
33.0427
32.2211
31.4023
30.5862
29.7727
28.9615
28.1527
27.3461
26.5415
25.7389
24.9381
24.139
23.3415
22.5455
21.7509
20.9575
20.1652
19.374
18.5835
17.7939
17.0048
16.2162
15.428
14.64
13.8521
13.0642
12.2761
11.4878
10.6991
9.90996
9.12034
8.3302
7.53955
6.74844
5.95697
5.16527
4.37339
3.58141
2.7891
1.996
1.20164
0.404491
65.1545
62.7927
61.6047
60.471
59.3417
58.2559
57.2043
56.177
55.1705
54.1819
53.2089
52.2496
51.3026
50.3666
49.4406
48.5238
47.6155
46.7149
45.8215
44.9349
44.0546
43.1801
42.3112
41.4475
40.5887
39.7345
38.8848
38.0392
37.1976
36.3597
35.5254
34.6946
33.867
33.0424
32.2209
31.4021
30.586
29.7725
28.9614
28.1526
27.3459
26.5414
25.7387
24.9379
24.1389
23.3414
22.5454
21.7508
20.9574
20.1652
19.3739
18.5835
17.7938
17.0048
16.2162
15.428
14.64
13.852
13.0641
12.2761
11.4877
10.6991
9.90995
9.12034
8.3302
7.53956
6.74846
5.95699
5.16529
4.37342
3.58143
2.78912
1.99601
1.20162
0.404607
65.1692
62.7869
61.6045
60.4707
59.3416
58.2559
57.2043
56.177
55.1704
54.1818
53.2087
52.2494
51.3023
50.3662
49.4403
48.5234
47.6151
46.7145
45.8211
44.9345
44.0542
43.1798
42.3108
41.4471
40.5884
39.7342
38.8845
38.0389
37.1973
36.3595
35.5252
34.6944
33.8668
33.0423
32.2207
31.4019
30.5859
29.7723
28.9612
28.1524
27.3458
26.5412
25.7386
24.9378
24.1388
23.3413
22.5453
21.7507
20.9573
20.1651
19.3738
18.5834
17.7938
17.0047
16.2161
15.4279
14.6399
13.852
13.0641
12.276
11.4877
10.6991
9.90995
9.12034
8.33021
7.53957
6.74847
5.95701
5.16532
4.37345
3.58146
2.78914
1.99601
1.2016
0.4047
65.1831
62.7815
61.6044
60.4705
59.3415
58.2558
57.2042
56.1769
55.1702
54.1815
53.2084
52.249
51.3019
50.3658
49.4398
48.523
47.6147
46.7141
45.8208
44.9342
44.0539
43.1794
42.3105
41.4469
40.5881
39.734
38.8842
38.0387
37.1971
36.3593
35.525
34.6942
33.8666
33.0421
32.2206
31.4018
30.5857
29.7722
28.9611
28.1523
27.3457
26.5411
25.7385
24.9378
24.1387
23.3413
22.5453
21.7507
20.9573
20.165
19.3738
18.5834
17.7937
17.0047
16.2161
15.4279
14.6399
13.852
13.0641
12.276
11.4877
10.6991
9.90995
9.12035
8.33023
7.53959
6.7485
5.95704
5.16535
4.37348
3.58149
2.78916
1.99602
1.20159
0.404774
65.1963
62.7765
61.6042
60.4704
59.3414
58.2557
57.2041
56.1766
55.1699
54.1811
53.2079
52.2485
51.3014
50.3654
49.4394
48.5226
47.6143
46.7137
45.8204
44.9338
44.0535
43.1791
42.3103
41.4466
40.5879
39.7337
38.884
38.0385
37.1969
36.3591
35.5249
34.694
33.8665
33.042
32.2204
31.4017
30.5856
29.7721
28.961
28.1522
27.3456
26.5411
25.7385
24.9377
24.1387
23.3412
22.5452
21.7506
20.9573
20.165
19.3738
18.5834
17.7937
17.0047
16.2161
15.4279
14.6399
13.852
13.0641
12.276
11.4877
10.6991
9.90996
9.12037
8.33024
7.53961
6.74853
5.95707
5.16538
4.37352
3.58152
2.78919
1.99603
1.20157
0.404832
65.2087
62.7719
61.6041
60.4702
59.3412
58.2555
57.2038
56.1763
55.1695
54.1807
53.2075
52.2481
51.301
50.3649
49.439
48.5222
47.6139
46.7134
45.8201
44.9335
44.0533
43.1789
42.31
41.4464
40.5876
39.7335
38.8838
38.0383
37.1968
36.359
35.5247
34.6939
33.8663
33.0419
32.2203
31.4016
30.5855
29.772
28.9609
28.1522
27.3456
26.541
25.7384
24.9377
24.1386
23.3412
22.5452
21.7506
20.9572
20.165
19.3737
18.5833
17.7937
17.0047
16.2161
15.4279
14.6399
13.852
13.0641
12.276
11.4877
10.6991
9.90998
9.12038
8.33027
7.53964
6.74855
5.95711
5.16542
4.37355
3.58156
2.78921
1.99603
1.20155
0.404878
65.2204
62.7678
61.6039
60.4699
59.3409
58.2552
57.2034
56.1758
55.169
54.1801
53.207
52.2476
51.3005
50.3645
49.4386
48.5219
47.6136
46.7131
45.8198
44.9333
44.053
43.1786
42.3098
41.4462
40.5875
39.7334
38.8837
38.0382
37.1966
36.3588
35.5246
34.6938
33.8662
33.0418
32.2202
31.4015
30.5855
29.772
28.9609
28.1521
27.3455
26.541
25.7384
24.9376
24.1386
23.3411
22.5452
21.7506
20.9572
20.165
19.3737
18.5833
17.7937
17.0047
16.2161
15.4279
14.6399
13.852
13.0641
12.2761
11.4878
10.6991
9.91
9.1204
8.33029
7.53966
6.74859
5.95714
5.16546
4.37359
3.58159
2.78924
1.99604
1.20154
0.404913
65.2313
62.764
61.6037
60.4696
59.3406
58.2547
57.2029
56.1752
55.1684
54.1796
53.2064
52.2471
51.3001
50.3641
49.4382
48.5215
47.6133
46.7128
45.8195
44.933
44.0528
43.1784
42.3096
41.446
40.5873
39.7332
38.8836
38.038
37.1965
36.3587
35.5245
34.6937
33.8662
33.0417
32.2202
31.4014
30.5854
29.7719
28.9608
28.1521