/*--------------------------------*- C++ -*----------------------------------*\
  =========                 |
  \\      /  F ield         | OpenFOAM: The Open Source CFD Toolbox
   \\    /   O peration     | Website:  https://openfoam.org
    \\  /    A nd           | Version:  7
     \\/     M anipulation  |
\*---------------------------------------------------------------------------*/
FoamFile
{
    version     2.0;
    format      ascii;
    class       surfaceScalarField;
    location    "950";
    object      phi;
}
// * * * * * * * * * * * * * * * * * * * * * * * * * * * * * * * * * * * * * //

dimensions      [0 3 -1 0 0 0 0];

internalField   nonuniform List<scalar> 
8865
(
0.00452285
0.00168694
0.00415016
0.00037269
0.0039903
0.000159866
0.00389729
9.30109e-05
0.00383339
6.38985e-05
0.00378555
4.78348e-05
0.00374796
3.75907e-05
0.00371747
3.04976e-05
0.00369216
2.53061e-05
0.00367081
2.13471e-05
0.00365258
1.82337e-05
0.00363685
1.57255e-05
0.00362319
1.36651e-05
0.00361124
1.1945e-05
0.00360075
1.04895e-05
0.00359151
9.24361e-06
0.00358334
8.16645e-06
0.00357612
7.22705e-06
0.00356971
6.40152e-06
0.00356404
5.67114e-06
0.00355902
5.02103e-06
0.00355458
4.43924e-06
0.00355067
3.91604e-06
0.00354722
3.44347e-06
0.00354421
3.0149e-06
0.00354158
2.62485e-06
0.00353931
2.26867e-06
0.00353737
1.94245e-06
0.00353573
1.64285e-06
0.00353436
1.367e-06
0.00353325
1.11246e-06
0.00353237
8.77087e-07
0.00353171
6.59049e-07
0.00353126
4.56747e-07
0.00353099
2.6876e-07
0.0035309
9.35674e-08
0.00353097
-7.02175e-08
0.00353119
-2.226e-07
0.00353155
-3.64086e-07
0.00353205
-4.95955e-07
0.00353267
-6.18974e-07
0.0035334
-7.33635e-07
0.00353424
-8.40456e-07
0.00353518
-9.39832e-07
0.00353621
-1.03221e-06
0.00353733
-1.11787e-06
0.00353853
-1.19709e-06
0.0035398
-1.27012e-06
0.00354114
-1.33707e-06
0.00354253
-1.39793e-06
0.00354399
-1.4527e-06
0.00354549
-1.50117e-06
0.00354703
-1.5432e-06
0.00354861
-1.57872e-06
0.00355022
-1.60772e-06
0.00355185
-1.63017e-06
0.00355349
-1.64624e-06
0.00355515
-1.65563e-06
0.00355681
-1.65809e-06
0.00355846
-1.65279e-06
0.0035601
-1.6382e-06
0.00356171
-1.6121e-06
0.00356329
-1.57205e-06
0.0035648
-1.51569e-06
0.00356625
-1.44236e-06
0.0035676
-1.35429e-06
0.00356886
-1.25956e-06
0.00357004
-1.17188e-06
0.00357115
-1.11686e-06
0.00357228
-1.12227e-06
0.0035735
-1.22888e-06
0.00357497
-1.46488e-06
0.00357683
-1.86463e-06
0.00357922
-2.393e-06
-1.37449e-06
0.00573448
0.00277626
0.00532416
0.000783017
0.00510631
0.00037771
0.00497607
0.000223255
0.00488795
0.000152018
0.00482307
0.000112709
0.00477273
8.79388e-05
0.00473224
7.0979e-05
0.00469887
5.86788e-05
0.00467085
4.93648e-05
0.00464701
4.20794e-05
0.0046265
3.62353e-05
0.00460871
3.14508e-05
0.00459319
2.74677e-05
0.00457958
2.4105e-05
0.00456759
2.12321e-05
0.004557
1.87524e-05
0.00454763
1.65929e-05
0.00453934
1.46975e-05
0.00453199
1.30223e-05
0.00452548
1.15327e-05
0.00451971
1.02007e-05
0.00451463
9.0038e-06
0.00451015
7.92341e-06
0.00450622
6.94424e-06
0.00450279
6.05354e-06
0.00449982
5.24059e-06
0.00449726
4.49635e-06
0.00449509
3.81311e-06
0.00449328
3.18427e-06
0.00449178
2.60417e-06
0.00449059
2.06793e-06
0.00448968
1.57131e-06
0.00448903
1.11063e-06
0.00448861
6.82622e-07
0.00448842
2.84219e-07
0.00448844
-8.80998e-08
0.00448865
-4.35118e-07
0.00448905
-7.57513e-07
0.00448961
-1.05786e-06
0.00449033
-1.33796e-06
0.00449119
-1.59904e-06
0.00449219
-1.8423e-06
0.00449332
-2.06869e-06
0.00449457
-2.27919e-06
0.00449593
-2.47451e-06
0.00449739
-2.65526e-06
0.00449894
-2.82199e-06
0.00450058
-2.97495e-06
0.00450229
-3.11415e-06
0.00450408
-3.23955e-06
0.00450593
-3.3508e-06
0.00450783
-3.4476e-06
0.00450978
-3.52984e-06
0.00451177
-3.59747e-06
0.00451379
-3.65042e-06
0.00451584
-3.68891e-06
0.00451789
-3.71235e-06
0.00451996
-3.72004e-06
0.00452201
-3.71015e-06
0.00452405
-3.67957e-06
0.00452607
-3.62388e-06
0.00452803
-3.53847e-06
0.00452994
-3.41932e-06
0.00453176
-3.26615e-06
0.00453349
-3.08523e-06
0.00453513
-2.89468e-06
0.00453668
-2.7243e-06
0.00453819
-2.62599e-06
0.00453973
-2.65706e-06
0.00454139
-2.89568e-06
0.00454332
-3.39524e-06
0.00454567
-4.20906e-06
0.00454854
-5.26386e-06
-2.96999e-06
0.00677261
0.00350217
0.00634446
0.00121116
0.00607519
0.000646986
0.00590745
0.000390987
0.00579398
0.000265489
0.00571123
0.000195464
0.00564762
0.00015155
0.00559688
0.000121718
0.00555531
0.000100246
0.00552058
8.40915e-05
0.00549114
7.15231e-05
0.00546589
6.14851e-05
0.00544404
5.32969e-05
0.00542501
4.65006e-05
0.00540834
4.07775e-05
0.00539367
3.58985e-05
0.00538073
3.1695e-05
0.00536928
2.80402e-05
0.00535914
2.48369e-05
0.00535016
2.20093e-05
0.00534219
1.94976e-05
0.00533514
1.72539e-05
0.0053289
1.52395e-05
0.0053234
1.34226e-05
0.00531857
1.17771e-05
0.00531434
1.02812e-05
0.00531067
8.91676e-06
0.00530749
7.66824e-06
0.00530478
6.52259e-06
0.0053025
5.46862e-06
0.00530061
4.49671e-06
0.00529908
3.5986e-06
0.00529788
2.76709e-06
0.005297
1.99596e-06
0.0052964
1.27969e-06
0.00529607
6.13364e-07
0.00529599
-8.99541e-09
0.00529615
-5.89652e-07
0.00529652
-1.12954e-06
0.00529709
-1.63228e-06
0.00529785
-2.101e-06
0.00529879
-2.53791e-06
0.0052999
-2.94503e-06
0.00530115
-3.32405e-06
0.00530255
-3.67657e-06
0.00530408
-4.00384e-06
0.00530573
-4.3069e-06
0.00530749
-4.58661e-06
0.00530936
-4.84344e-06
0.00531133
-5.07743e-06
0.00531338
-5.28855e-06
0.0053155
-5.47631e-06
0.00531769
-5.64032e-06
0.00531994
-5.7804e-06
0.00532224
-5.89644e-06
0.00532458
-5.98834e-06
0.00532695
-6.05624e-06
0.00532934
-6.09923e-06
0.00533173
-6.11607e-06
0.00533413
-6.10394e-06
0.0053365
-6.05818e-06
0.00533885
-5.97258e-06
0.00534116
-5.84082e-06
0.0053434
-5.65808e-06
0.00534555
-5.42553e-06
0.00534762
-5.15461e-06
0.0053496
-4.874e-06
0.00535151
-4.63017e-06
0.00535338
-4.4993e-06
0.00535529
-4.56587e-06
0.00535734
-4.93837e-06
0.00535963
-5.68922e-06
0.0053623
-6.876e-06
0.00536542
-8.3856e-06
-4.66448e-06
0.00776838
0.00397374
0.00736522
0.00161432
0.00705881
0.000953393
0.00685371
0.000596095
0.00671229
0.00040691
0.00660913
0.000298623
0.00653023
0.000230446
0.00646767
0.000184282
0.00641669
0.000151228
0.00637428
0.000126493
0.00633846
0.000107343
0.00630784
9.2113e-05
0.0062814
7.97342e-05
0.00625841
6.94918e-05
0.00623829
6.08896e-05
0.00622062
5.35729e-05
0.00620503
4.72819e-05
0.00619125
4.18216e-05
0.00617905
3.70432e-05
0.00616822
3.2831e-05
0.00615863
2.9094e-05
0.00615012
2.57594e-05
0.00614259
2.27684e-05
0.00613594
2.00732e-05
0.00613009
1.76341e-05
0.00612495
1.54185e-05
0.00612047
1.33987e-05
0.00611658
1.15518e-05
0.00611325
9.85787e-06
0.00611042
8.3003e-06
0.00610805
6.86465e-06
0.00610611
5.53853e-06
0.00610456
4.31119e-06
0.00610339
3.17331e-06
0.00610255
2.11669e-06
0.00610203
1.13405e-06
0.0061018
2.17178e-07
0.00610185
-6.38753e-07
0.00610216
-1.4356e-06
0.0061027
-2.17736e-06
0.00610347
-2.86874e-06
0.00610445
-3.51318e-06
0.00610561
-4.11375e-06
0.00610696
-4.673e-06
0.00610848
-5.19333e-06
0.00611015
-5.67663e-06
0.00611197
-6.12443e-06
0.00611392
-6.53802e-06
0.006116
-6.91809e-06
0.00611818
-7.2648e-06
0.00612047
-7.57817e-06
0.00612286
-7.8576e-06
0.00612532
-8.10266e-06
0.00612785
-8.31309e-06
0.00613044
-8.48873e-06
0.00613308
-8.62936e-06
0.00613576
-8.73504e-06
0.00613847
-8.80445e-06
0.00614119
-8.8358e-06
0.00614391
-8.82531e-06
0.00614662
-8.76705e-06
0.0061493
-8.65333e-06
0.00615194
-8.47678e-06
0.00615451
-8.23251e-06
0.00615701
-7.9239e-06
0.00615942
-7.56814e-06
0.00616175
-7.20457e-06
0.00616402
-6.89492e-06
0.00616626
-6.73714e-06
0.00616853
-6.83811e-06
0.00617092
-7.33045e-06
0.00617353
-8.2966e-06
0.00617644
-9.78919e-06
0.00617971
-1.16539e-05
-6.40335e-06
0.00876053
0.0042679
0.00841816
0.00195669
0.00809688
0.00127467
0.00785897
0.000834004
0.00768847
0.000577413
0.00756264
0.000424452
0.00746628
0.000326806
0.00739005
0.000260516
0.00732813
0.000213142
0.00727681
0.000177816
0.00723358
0.00015057
0.00719672
0.00012898
0.00716496
0.000111491
0.00713739
9.7063e-05
0.0071133
8.49771e-05
0.00709215
7.47211e-05
0.00707351
6.59208e-05
0.00705704
5.82964e-05
0.00704245
5.16348e-05
0.00702951
4.57712e-05
0.00701803
4.05756e-05
0.00700784
3.5945e-05
0.00699881
3.17959e-05
0.00699083
2.80606e-05
0.00698378
2.46832e-05
0.00697758
2.16176e-05
0.00697215
1.88251e-05
0.00696743
1.62731e-05
0.00696335
1.39341e-05
0.00695987
1.17844e-05
0.00695693
9.80397e-06
0.00695449
7.97543e-06
0.00695252
6.28377e-06
0.00695098
4.71596e-06
0.00694983
3.26056e-06
0.00694906
1.90746e-06
0.00694863
6.46189e-07
0.00694852
-5.31486e-07
0.00694872
-1.62917e-06
0.00694919
-2.65091e-06
0.00694993
-3.60306e-06
0.0069509
-4.49053e-06
0.00695211
-5.31766e-06
0.00695352
-6.08805e-06
0.00695513
-6.80505e-06
0.00695693
-7.47131e-06
0.00695889
-8.089e-06
0.00696101
-8.65987e-06
0.00696328
-9.18495e-06
0.00696568
-9.66457e-06
0.0069682
-1.00989e-05
0.00697083
-1.04872e-05
0.00697356
-1.08291e-05
0.00697637
-1.11242e-05
0.00697925
-1.13724e-05
0.0069822
-1.15733e-05
0.00698519
-1.17267e-05
0.00698822
-1.18309e-05
0.00699126
-1.18836e-05
0.00699432
-1.18802e-05
0.00699736
-1.18137e-05
0.00700039
-1.16754e-05
0.00700337
-1.14573e-05
0.00700629
-1.11551e-05
0.00700914
-1.0775e-05
0.00701191
-1.034e-05
0.00701461
-9.8994e-06
0.00701724
-9.52889e-06
0.00701985
-9.34451e-06
0.00702248
-9.47128e-06
0.00702521
-1.00588e-05
0.00702811
-1.11939e-05
0.00703123
-1.2915e-05
0.00703461
-1.50296e-05
-8.1656e-06
0.00977742
0.00444047
0.00951399
0.00222012
0.00920569
0.00158298
0.00894539
0.0010943
0.00874723
0.000775576
0.0085973
0.000574375
0.00848145
0.000442657
0.00838959
0.000352373
0.00831504
0.000287698
0.00825334
0.000239516
0.00820147
0.000202437
0.00815732
0.000173135
0.00811935
0.000149463
0.00808642
0.000129986
0.00805769
0.000113709
0.00803248
9.99273e-05
0.00801028
8.8125e-05
0.00799066
7.79179e-05
0.00797328
6.90143e-05
0.00795786
6.11885e-05
0.00794417
5.42636e-05
0.00793202
4.80989e-05
0.00792123
4.25814e-05
0.00791168
3.76191e-05
0.00790322
3.31364e-05
0.00789577
2.90709e-05
0.00788922
2.53703e-05
0.00788351
2.19908e-05
0.00787855
1.88953e-05
0.00787428
1.6052e-05
0.00787065
1.34339e-05
0.00786761
1.10179e-05
0.00786511
8.78357e-06
0.00786311
6.71365e-06
0.00786158
4.7928e-06
0.00786048
3.00751e-06
0.00785978
1.3448e-06
0.00785945
-2.07389e-07
0.00785948
-1.65548e-06
0.00785983
-3.00382e-06
0.00786049
-4.26015e-06
0.00786143
-5.43109e-06
0.00786263
-6.52248e-06
0.00786409
-7.53921e-06
0.00786577
-8.48574e-06
0.00786766
-9.36564e-06
0.00786975
-1.01818e-05
0.00787203
-1.09367e-05
0.00787448
-1.16316e-05
0.00787708
-1.22672e-05
0.00787982
-1.28438e-05
0.0078827
-1.33608e-05
0.00788569
-1.38178e-05
0.00788878
-1.42143e-05
0.00789196
-1.45501e-05
0.00789521
-1.48247e-05
0.00789852
-1.50377e-05
0.00790187
-1.5187e-05
0.00790526
-1.52697e-05
0.00790866
-1.52805e-05
0.00791206
-1.52116e-05
0.00791544
-1.50537e-05
0.00791878
-1.47986e-05
0.00792207
-1.44433e-05
0.00792529
-1.39968e-05
0.00792844
-1.3488e-05
0.00793151
-1.29752e-05
0.00793453
-1.2546e-05
0.00793752
-1.23314e-05
0.00794052
-1.24698e-05
0.00794358
-1.31229e-05
0.00794676
-1.43752e-05
0.00795009
-1.62468e-05
0.00795357
-1.85091e-05
-9.95299e-06
0.0108418
0.0045325
0.0106586
0.00240329
0.0103907
0.00185088
0.0101252
0.00135979
0.00990488
0.000995899
0.00973121
0.000748042
0.00959448
0.000579386
0.00948519
0.000461659
0.00939623
0.000376666
0.00932255
0.000313187
0.00926065
0.000264341
0.009208
0.000225789
0.00916276
0.000194702
0.00912357
0.000169174
0.00908939
0.000147885
0.00905943
0.000129893
0.00903304
0.000114513
0.00900972
0.000101234
0.00898907
8.96694e-05
0.00897074
7.95188e-05
0.00895445
7.05485e-05
0.00893998
6.25725e-05
0.00892712
5.54417e-05
0.0089157
4.90349e-05
0.00890559
4.32527e-05
0.00889664
3.8013e-05
0.00888877
3.32475e-05
0.00888186
2.88985e-05
0.00887584
2.49176e-05
0.00887063
2.12634e-05
0.00886616
1.79005e-05
0.00886238
1.47985e-05
0.00885923
1.19313e-05
0.00885667
9.27607e-06
0.00885465
6.81297e-06
0.00885313
4.52445e-06
0.00885208
2.3944e-06
0.00885147
4.07212e-07
0.00885126
-1.44778e-06
0.00885143
-3.1763e-06
0.00885196
-4.78666e-06
0.00885281
-6.28754e-06
0.00885398
-7.68653e-06
0.00885543
-8.99003e-06
0.00885715
-1.02038e-05
0.00885911
-1.13326e-05
0.00886131
-1.23802e-05
0.00886373
-1.33497e-05
0.00886634
-1.42431e-05
0.00886913
-1.50613e-05
0.00887209
-1.5805e-05
0.00887521
-1.64736e-05
0.00887845
-1.70667e-05
0.00888182
-1.7584e-05
0.0088853
-1.8025e-05
0.00888886
-1.83892e-05
0.0088925
-1.86758e-05
0.0088962
-1.88825e-05
0.00889993
-1.90058e-05
0.00890369
-1.90398e-05
0.00890746
-1.89763e-05
0.00891121
-1.88054e-05
0.00891493
-1.85195e-05
0.0089186
-1.81169e-05
0.00892222
-1.76097e-05
0.00892576
-1.70324e-05
0.00892924
-1.64512e-05
0.00893266
-1.59634e-05
0.00893604
-1.57119e-05
0.00893941
-1.58445e-05
0.00894282
-1.65296e-05
0.00894629
-1.78464e-05
0.00894983
-1.97918e-05
0.00895343
-2.21057e-05
-1.17728e-05
0.0119752
0.00457226
0.0118614
0.00251703
0.0116523
0.00206002
0.0114041
0.00160801
0.0111727
0.00122725
0.0109787
0.00094203
0.0108211
0.000736974
0.0106932
0.000589616
0.0105882
0.000481647
0.0105009
0.000400442
0.0104275
0.000337776
0.010365
0.000288286
0.0103113
0.000248398
0.0102648
0.00021568
0.0102243
0.000188432
0.0101887
0.000165439
0.0101574
0.000145814
0.0101298
0.000128895
0.0101052
0.00011418
0.0100835
0.000101282
0.0100641
8.98972e-05
0.0100469
7.97864e-05
0.0100316
7.07566e-05
0.010018
6.26517e-05
0.0100059
5.53437e-05
0.00999518
4.87271e-05
0.00998571
4.27139e-05
0.00997738
3.72304e-05
0.00997008
3.22144e-05
0.00996373
2.76128e-05
0.00995825
2.33805e-05
0.00995357
1.94787e-05
0.00994963
1.58738e-05
0.00994637
1.25369e-05
0.00994374
9.44264e-06
0.0099417
6.5687e-06
0.0099402
3.895e-06
0.0099392
1.40277e-06
0.00993868
-9.24142e-07
0.0099386
-3.09439e-06
0.00993892
-5.11636e-06
0.00993964
-7.00085e-06
0.00994071
-8.75749e-06
0.00994211
-1.03945e-05
0.00994383
-1.19192e-05
0.00994583
-1.33376e-05
0.00994811
-1.46546e-05
0.00995063
-1.58742e-05
0.00995339
-1.69991e-05
0.00995636
-1.80308e-05
0.00995952
-1.89701e-05
0.00996287
-1.98169e-05
0.00996637
-2.05707e-05
0.00997002
-2.12314e-05
0.00997379
-2.17984e-05
0.00997767
-2.22708e-05
0.00998165
-2.26479e-05
0.00998569
-2.29267e-05
0.00998979
-2.31035e-05
0.00999392
-2.31719e-05
0.00999807
-2.31234e-05
0.0100022
-2.29481e-05
0.0100063
-2.26392e-05
0.0100104
-2.21964e-05
0.0100144
-2.16351e-05
0.0100184
-2.09947e-05
0.0100223
-2.03481e-05
0.0100261
-1.98002e-05
0.0100299
-1.95028e-05
0.0100337
-1.96093e-05
0.0100374
-2.02916e-05
0.0100412
-2.1619e-05
0.010045
-2.35651e-05
0.0100487
-2.58409e-05
-1.36402e-05
0.0131983
0.00457686
0.0131373
0.00257801
0.0129915
0.00220581
0.0127826
0.00181691
0.0125574
0.00145244
0.0123512
0.00114828
0.0121753
0.000912857
0.0120287
0.000736235
0.0119067
0.000603686
0.0118044
0.000502686
0.011718
0.000424209
0.0116442
0.000362025
0.0115808
0.000311841
0.0115258
0.00027067
0.0114778
0.0002364
0.0114358
0.000207506
0.0113987
0.00018287
0.011366
0.000161655
0.0113369
0.000143224
0.0113111
0.000127088
0.0112881
0.00011286
0.0112677
0.000100238
0.0112495
8.89769e-05
0.0112332
7.88784e-05
0.0112188
6.9781e-05
0.011206
6.1551e-05
0.0111946
5.40775e-05
0.0111846
4.72672e-05
0.0111758
4.10416e-05
0.011168
3.5334e-05
0.0111613
3.00875e-05
0.0111555
2.52533e-05
0.0111506
2.07891e-05
0.0111465
1.66586e-05
0.0111431
1.28299e-05
0.0111404
9.2751e-06
0.0111383
5.96934e-06
0.0111369
2.89034e-06
0.0111359
1.62433e-08
0.0111355
-2.66637e-06
0.0111355
-5.16664e-06
0.011136
-7.49696e-06
0.0111369
-9.66927e-06
0.0111382
-1.16939e-05
0.0111399
-1.35801e-05
0.0111419
-1.53353e-05
0.0111442
-1.69658e-05
0.0111468
-1.84767e-05
0.0111497
-1.98715e-05
0.0111528
-2.11524e-05
0.0111562
-2.23207e-05
0.0111597
-2.33766e-05
0.0111635
-2.43198e-05
0.0111674
-2.51503e-05
0.0111715
-2.58674e-05
0.0111757
-2.647e-05
0.01118
-2.69574e-05
0.0111844
-2.7326e-05
0.0111888
-2.75718e-05
0.0111934
-2.76885e-05
0.0111979
-2.7667e-05
0.0112024
-2.74981e-05
0.011207
-2.71757e-05
0.0112115
-2.67014e-05
0.0112159
-2.60936e-05
0.0112203
-2.5396e-05
0.0112247
-2.46867e-05
0.011229
-2.40765e-05
0.0112332
-2.37225e-05
0.0112374
-2.3781e-05
0.0112415
-2.44233e-05
0.0112456
-2.57084e-05
0.0112496
-2.7584e-05
0.0112535
-2.97383e-05
-1.5567e-05
0.0145294
0.00455582
0.0145054
0.00260198
0.0144157
0.00229555
0.0142598
0.00197282
0.0140612
0.00165105
0.0138564
0.00135304
0.0136688
0.00110045
0.0135058
0.000899213
0.0133669
0.000742613
0.0132489
0.000620723
0.0131482
0.000524839
0.0130619
0.000448325
0.0129874
0.000386336
0.0129227
0.00033538
0.0128662
0.00029293
0.0128166
0.000257137
0.0127728
0.000226629
0.0127341
0.000200373
0.0126997
0.000177581
0.0126692
0.000157643
0.012642
0.000140079
0.0126177
0.00012451
0.012596
0.000110631
0.0125767
9.81966e-05
0.0125595
8.70035e-05
0.0125442
7.68855e-05
0.0125305
6.77041e-05
0.0125185
5.93433e-05
0.0125078
5.17053e-05
0.0124984
4.47071e-05
0.0124902
3.82779e-05
0.0124831
3.23569e-05
0.012477
2.68919e-05
0.0124718
2.18375e-05
0.0124675
1.71543e-05
0.012464
1.28078e-05
0.0124612
8.76728e-06
0.0124591
5.00592e-06
0.0124576
1.49743e-06
0.0124567
-1.77867e-06
0.0124564
-4.83471e-06
0.0124566
-7.68308e-06
0.0124572
-1.03384e-05
0.0124583
-1.28136e-05
0.0124599
-1.51199e-05
0.0124618
-1.72668e-05
0.0124641
-1.92621e-05
0.0124667
-2.1112e-05
0.0124697
-2.28214e-05
0.0124729
-2.43931e-05
0.0124764
-2.58292e-05
0.0124802
-2.71302e-05
0.0124842
-2.82963e-05
0.0124884
-2.93274e-05
0.0124927
-3.02229e-05
0.0124972
-3.09817e-05
0.0125019
-3.16027e-05
0.0125066
-3.20821e-05
0.0125115
-3.24158e-05
0.0125164
-3.25972e-05
0.0125213
-3.26177e-05
0.0125263
-3.24684e-05
0.0125313
-3.21444e-05
0.0125362
-3.16492e-05
0.0125411
-3.10039e-05
0.012546
-3.02558e-05
0.0125508
-2.94868e-05
0.0125555
-2.8811e-05
0.0125602
-2.83888e-05
0.0125648
-2.83755e-05
0.0125693
-2.89404e-05
0.0125737
-3.01295e-05
0.012578
-3.18673e-05
0.0125821
-3.38216e-05
-1.75694e-05
0.0159844
0.00451431
0.0159863
0.00260012
0.0159396
0.0023422
0.015838
0.00207445
0.0156829
0.00180618
0.0154978
0.00153813
0.0153103
0.00128793
0.015137
0.00107255
0.0149835
0.000896033
0.0148502
0.000754095
0.0147348
0.000640183
0.014635
0.000548156
0.0145483
0.000473036
0.0144727
0.000411005
0.0144064
0.000359191
0.0143481
0.00031544
0.0142966
0.000278124
0.014251
0.000246004
0.0142104
0.000218126
0.0141743
0.000193748
0.0141421
0.000172285
0.0141134
0.000153272
0.0140877
0.000136333
0.0140647
0.000121167
0.0140442
0.000107525
0.0140259
9.52009e-05
0.0140095
8.40249e-05
0.013995
7.38542e-05
0.0139822
6.45683e-05
0.0139708
5.6065e-05
0.0139608
4.82572e-05
0.0139521
4.10703e-05
0.0139446
3.44398e-05
0.0139381
2.83102e-05
0.0139326
2.2633e-05
0.0139281
1.73658e-05
0.0139244
1.24711e-05
0.0139214
7.91647e-06
0.0139193
3.67137e-06
0.0139178
-2.92468e-07
0.0139169
-3.99321e-06
0.0139167
-7.44352e-06
0.013917
-1.06602e-05
0.0139179
-1.36591e-05
0.0139192
-1.64538e-05
0.013921
-1.90562e-05
0.0139232
-2.14757e-05
0.0139258
-2.37204e-05
0.0139288
-2.57962e-05
0.0139321
-2.77072e-05
0.0139357
-2.94563e-05
0.0139396
-3.10444e-05
0.0139438
-3.24723e-05
0.0139482
-3.37402e-05
0.0139529
-3.48474e-05
0.0139577
-3.57927e-05
0.0139626
-3.65749e-05
0.0139677
-3.71901e-05
0.013973
-3.76341e-05
0.0139783
-3.79003e-05
0.0139836
-3.79806e-05
0.013989
-3.7867e-05
0.0139944
-3.75559e-05
0.0139998
-3.70527e-05
0.0140052
-3.63808e-05
0.0140106
-3.559e-05
0.0140158
-3.47648e-05
0.014021
-3.40204e-05
0.0140262
-3.35174e-05
0.0140312
-3.34081e-05
0.0140361
-3.38567e-05
0.0140409
-3.48976e-05
0.0140455
-3.64319e-05
0.0140497
-3.81133e-05
-1.96581e-05
0.0175785
0.00445507
0.0175995
0.00257919
0.0175837
0.00235791
0.0175281
0.00213005
0.0174232
0.00191109
0.0172751
0.00168623
0.0171043
0.00145878
0.0169315
0.00124532
0.0167696
0.00105797
0.0166236
0.000900065
0.0164944
0.000769374
0.0163809
0.000661678
0.0162813
0.000572637
0.0161938
0.0004985
0.0161167
0.000436243
0.0160487
0.000383494
0.0159884
0.000338409
0.0159348
0.000299552
0.0158872
0.000265805
0.0158446
0.000236287
0.0158066
0.000210298
0.0157726
0.000187279
0.0157422
0.00016678
0.0157149
0.000148433
0.0156905
0.000131937
0.0156686
0.000117043
0.0156491
0.000103542
0.0156317
9.12625e-05
0.0156162
8.00567e-05
0.0156025
6.98003e-05
0.0155904
6.03873e-05
0.0155797
5.17267e-05
0.0155704
4.374e-05
0.0155624
3.63595e-05
0.0155555
2.95263e-05
0.0155496
2.31887e-05
0.0155448
1.73012e-05
0.0155409
1.18246e-05
0.0155379
6.72298e-06
0.0155356
1.96217e-06
0.0155341
-2.48518e-06
0.0155333
-6.63498e-06
0.0155331
-1.05041e-05
0.0155336
-1.41116e-05
0.0155346
-1.74742e-05
0.0155361
-2.06062e-05
0.0155382
-2.35194e-05
0.0155407
-2.62236e-05
0.0155436
-2.87263e-05
0.0155469
-3.1033e-05
0.0155506
-3.31476e-05
0.0155547
-3.5072e-05
0.015559
-3.68072e-05
0.0155636
-3.83539e-05
0.0155685
-3.97115e-05
0.0155736
-4.0879e-05
0.0155788
-4.18549e-05
0.0155843
-4.26354e-05
0.0155899
-4.32162e-05
0.0155956
-4.35913e-05
0.0156013
-4.37531e-05
0.0156072
-4.36946e-05
0.015613
-4.34139e-05
0.0156189
-4.29181e-05
0.0156247
-4.22324e-05
0.0156306
-4.14085e-05
0.0156363
-4.05316e-05
0.015642
-3.97158e-05
0.0156476
-3.91196e-05
0.0156531
-3.88894e-05
0.0156584
-3.9184e-05
0.0156636
-4.00247e-05
0.0156684
-4.12941e-05
0.0156729
-4.26339e-05
-2.18479e-05
0.0193271
0.00437951
0.0193633
0.00254302
0.0193699
0.00235126
0.0193491
0.00215085
0.0192904
0.00196985
0.0191886
0.00178799
0.0190512
0.00159619
0.0188945
0.00140198
0.0187348
0.00121769
0.0185826
0.00105228
0.0184429
0.000909105
0.0183171
0.00078748
0.0182049
0.000684848
0.0181051
0.000598216
0.0180166
0.00052479
0.0179379
0.000462184
0.0178679
0.000408444
0.0178054
0.000361996
0.0177496
0.000321578
0.0176998
0.000286181
0.0176551
0.000254993
0.017615
0.000227358
0.017579
0.000202744
0.0175467
0.000180714
0.0175178
0.000160909
0.0174918
0.000143032
0.0174685
0.000126832
0.0174476
0.000112102
0.017429
9.8665e-05
0.0174125
8.63709e-05
0.0173978
7.50919e-05
0.0173848
6.47182e-05
0.0173734
5.51551e-05
0.0173634
4.63209e-05
0.0173548
3.81442e-05
0.0173474
3.05629e-05
0.0173412
2.3522e-05
0.017336
1.69743e-05
0.0173319
1.08772e-05
0.0173286
5.19153e-06
0.0173263
-1.20331e-07
0.0173247
-5.08137e-06
0.0173239
-9.70846e-06
0.0173238
-1.40234e-05
0.0173244
-1.80462e-05
0.0173256
-2.17941e-05
0.0173274
-2.52815e-05
0.0173297
-2.85206e-05
0.0173325
-3.15206e-05
0.0173357
-3.42887e-05
0.0173394
-3.68301e-05
0.0173435
-3.91476e-05
0.0173479
-4.12431e-05
0.0173527
-4.31178e-05
0.0173577
-4.47713e-05
0.0173631
-4.62025e-05
0.0173686
-4.74103e-05
0.0173744
-4.83907e-05
0.0173803
-4.91399e-05
0.0173864
-4.96523e-05
0.0173925
-4.99213e-05
0.0173988
-4.99414e-05
0.0174051
-4.9712e-05
0.0174114
-4.9242e-05
0.0174177
-4.85582e-05
0.017424
-4.77128e-05
0.0174303
-4.67902e-05
0.0174365
-4.59016e-05
0.0174425
-4.52004e-05
0.0174485
-4.48257e-05
0.0174542
-4.49288e-05
0.0174597
-4.55203e-05
0.0174649
-4.64656e-05
0.0174697
-4.74006e-05
-2.41463e-05
0.0212463
0.00428825
0.0212957
0.00249367
0.0213195
0.00232744
0.0213242
0.00214617
0.0213021
0.00199196
0.0212453
0.00184475
0.0211515
0.00169
0.021027
0.00152649
0.0208846
0.00136013
0.0207372
0.00119968
0.020594
0.0010523
0.02046
0.000921453
0.0203373
0.000807544
0.0202262
0.000709285
0.0201263
0.000624735
0.0200366
0.000551878
0.0199562
0.000488871
0.019884
0.000434123
0.0198193
0.000386304
0.0197612
0.000344313
0.0197089
0.000307245
0.0196619
0.000274358
0.0196196
0.000245039
0.0195816
0.000218784
0.0195473
0.000195173
0.0195165
0.000173856
0.0194888
0.000154539
0.0194639
0.000136976
0.0194416
0.000120956
0.0194217
0.000106301
0.0194039
9.28594e-05
0.0193881
8.04993e-05
0.0193742
6.91078e-05
0.0193619
5.8587e-05
0.0193512
4.88515e-05
0.0193419
3.98269e-05
0.019334
3.14476e-05
0.0193273
2.36567e-05
0.0193218
1.64039e-05
0.0193173
9.64343e-06
0.0193139
3.33102e-06
0.0193114
-2.5681e-06
0.0193097
-8.07568e-06
0.0193089
-1.32125e-05
0.0193089
-1.80025e-05
0.0193096
-2.24665e-05
0.0193109
-2.66218e-05
0.0193129
-3.04831e-05
0.0193154
-3.40621e-05
0.0193185
-3.73679e-05
0.0193221
-4.04072e-05
0.0193261
-4.31842e-05
0.0193306
-4.57017e-05
0.0193354
-4.79614e-05
0.0193406
-4.99635e-05
0.0193461
-5.17072e-05
0.0193519
-5.31913e-05
0.0193579
-5.44124e-05
0.0193641
-5.53669e-05
0.0193705
-5.60503e-05
0.0193771
-5.6457e-05
0.0193837
-5.65831e-05
0.0193904
-5.64298e-05
0.0193972
-5.60078e-05
0.019404
-5.53444e-05
0.0194108
-5.44918e-05
0.0194175
-5.3532e-05
0.0194242
-5.25709e-05
0.0194307
-5.17552e-05
0.0194371
-5.12139e-05
0.0194433
-5.10913e-05
0.0194491
-5.13866e-05
0.0194546
-5.19543e-05
0.0194596
-5.24253e-05
-2.65641e-05
0.0233536
0.00418142
0.0234151
0.0024322
0.0234532
0.00228933
0.0234772
0.00212214
0.0234826
0.00198665
0.0234628
0.0018645
0.0234125
0.0017403
0.02333
0.00160898
0.0232201
0.00147005
0.0230924
0.00132737
0.0229574
0.00118727
0.0228234
0.00105551
0.0226954
0.000935567
0.022576
0.000828655
0.0224663
0.000734457
0.0223663
0.000651894
0.0222755
0.00057961
0.0221934
0.000516238
0.0221192
0.000460522
0.0220521
0.000411361
0.0219916
0.000367808
0.0219369
0.000329066
0.0218874
0.00029446
0.0218428
0.000263425
0.0218025
0.000235487
0.0217661
0.000210244
0.0217333
0.000187358
0.0217037
0.000166541
0.0216771
0.000147551
0.0216532
0.000130177
0.0216319
0.00011424
0.0216128
9.95862e-05
0.0215958
8.60814e-05
0.0215808
7.36099e-05
0.0215676
6.20706e-05
0.021556
5.13752e-05
0.021546
4.14456e-05
0.0215375
3.22145e-05
0.0215302
2.36222e-05
0.0215243
1.5615e-05
0.0215195
8.14305e-06
0.0215157
1.15996e-06
0.021513
-5.36646e-06
0.0215113
-1.14573e-05
0.0215104
-1.71382e-05
0.0215104
-2.2434e-05
0.0215111
-2.73654e-05
0.0215126
-3.19502e-05
0.0215147
-3.62029e-05
0.0215175
-4.01347e-05
0.0215208
-4.37544e-05
0.0215247
-4.70677e-05
0.0215291
-5.00785e-05
0.0215339
-5.27895e-05
0.0215392
-5.52015e-05
0.0215448
-5.73141e-05
0.0215507
-5.91265e-05
0.0215569
-6.06356e-05
0.0215634
-6.18387e-05
0.0215701
-6.27323e-05
0.0215769
-6.33124e-05
0.0215839
-6.3577e-05
0.021591
-6.35291e-05
0.0215982
-6.31809e-05
0.0216054
-6.25602e-05
0.0216126
-6.17182e-05
0.0216198
-6.07326e-05
0.021627
-5.97027e-05
0.021634
-5.87658e-05
0.0216408
-5.80399e-05
0.0216474
-5.76604e-05
0.0216536
-5.76182e-05
0.0216594
-5.77586e-05
0.0216647
-5.77116e-05
-2.91014e-05
0.025668
0.00405883
0.0257411
0.00235909
0.025792
0.00223841
0.0258318
0.00208235
0.025858
0.00196046
0.0258665
0.00185601
0.0258526
0.00175414
0.0258122
0.00164945
0.0257435
0.00153871
0.0256497
0.00142115
0.0255378
0.00129914
0.0254163
0.00117709
0.0252923
0.00105955
0.0251711
0.000949846
0.0250558
0.000849723
0.0249481
0.000759626
0.0248485
0.000679192
0.0247571
0.000607648
0.0246736
0.000544065
0.0245974
0.000487505
0.0245281
0.000437091
0.0244652
0.000392034
0.024408
0.000351644
0.0243561
0.000315323
0.024309
0.000282556
0.0242664
0.000252903
0.0242277
0.000225985
0.0241928
0.000201478
0.0241612
0.000179105
0.0241328
0.000158625
0.0241072
0.000139832
0.0240842
0.000122546
0.0240637
0.000106613
0.0240454
9.18966e-05
0.0240292
7.82792e-05
0.0240149
6.56569e-05
0.0240024
5.39383e-05
0.0239916
4.30438e-05
0.0239823
3.29032e-05
0.0239745
2.34538e-05
0.023968
1.46385e-05
0.0239628
6.4042e-06
0.0239587
-1.29638e-06
0.0239557
-8.49177e-06
0.0239538
-1.52056e-05
0.0239528
-2.14664e-05
0.0239527
-2.72985e-05
0.0239535
-3.27234e-05
0.0239551
-3.77588e-05
0.0239574
-4.24185e-05
0.0239603
-4.67137e-05
0.0239639
-5.06518e-05
0.0239681
-5.42383e-05
0.0239728
-5.7477e-05
0.0239779
-6.03696e-05
0.0239835
-6.29162e-05
0.0239895
-6.51167e-05
0.0239958
-6.69687e-05
0.0240025
-6.84705e-05
0.0240094
-6.962e-05
0.0240165
-7.0415e-05
0.0240237
-7.08557e-05
0.0240312
-7.09472e-05
0.0240387
-7.07033e-05
0.0240463
-7.01517e-05
0.0240539
-6.93417e-05
0.0240615
-6.83461e-05
0.0240691
-6.7255e-05
0.0240765
-6.6195e-05
0.0240837
-6.52711e-05
0.0240907
-6.46102e-05
0.0240973
-6.41941e-05
0.0241034
-6.38653e-05
0.0241089
-6.32502e-05
-3.17586e-05
0.02821
0.00392004
0.0282946
0.00227448
0.0283577
0.00217531
0.0284114
0.00202872
0.0284545
0.00191736
0.0284846
0.00182582
0.028499
0.00173975
0.0284939
0.00165457
0.0284658
0.00156685
0.0284129
0.00147399
0.0283369
0.00137516
0.0282424
0.00127159
0.0281359
0.00116607
0.0280237
0.00106203
0.027911
0.000962457
0.0278012
0.000869359
0.0276967
0.000783741
0.0275985
0.00070584
0.0275072
0.000635404
0.0274227
0.000571917
0.0273451
0.000514754
0.0272738
0.000463267
0.0272087
0.000416832
0.0271491
0.000374877
0.0270948
0.000336886
0.0270453
0.000302404
0.0270002
0.000271029
0.0269593
0.000242411
0.0269222
0.000216246
0.0268885
0.000192267
0.0268581
0.000170242
0.0268307
0.000149969
0.026806
0.00013127
0.0267839
0.000113992
0.0267642
9.79973e-05
0.0267467
8.3167e-05
0.0267312
6.93951e-05
0.0267177
5.65891e-05
0.0267059
4.46672e-05
0.0266958
3.35566e-05
0.0266873
2.31916e-05
0.0266802
1.35127e-05
0.0266744
4.46268e-06
0.0266699
-4.00261e-06
0.0266666
-1.1911e-05
0.0266644
-1.92885e-05
0.0266633
-2.61635e-05
0.0266631
-3.25617e-05
0.0266639
-3.85044e-05
0.0266655
-4.40086e-05
0.0266679
-4.9088e-05
0.026671
-5.37523e-05
0.0266747
-5.80087e-05
0.0266791
-6.18627e-05
0.0266841
-6.53167e-05
0.0266895
-6.8372e-05
0.0266954
-7.10292e-05
0.0267017
-7.3287e-05
0.0267084
-7.51449e-05
0.0267154
-7.66026e-05
0.0267226
-7.76602e-05
0.0267301
-7.83203e-05
0.0267378
-7.85905e-05
0.0267455
-7.84859e-05
0.0267534
-7.80344e-05
0.0267614
-7.72827e-05
0.0267693
-7.62972e-05
0.0267772
-7.51581e-05
0.026785
-7.39793e-05
0.0267926
-7.28513e-05
0.0267999
-7.18913e-05
0.0268067
-7.1074e-05
0.0268131
-7.02404e-05
0.0268189
-6.90134e-05
-3.45197e-05
0.0310025
0.00376437
0.0310986
0.00217833
0.0311738
0.00210012
0.0312404
0.00196217
0.0312982
0.00185951
0.0313461
0.00177799
0.0313824
0.00170341
0.0314049
0.00163208
0.0314106
0.00156114
0.0313966
0.00148794
0.0313612
0.00141063
0.0313045
0.00132831
0.0312292
0.00124132
0.03114
0.00115123
0.0310421
0.00106038
0.0309402
0.000971214
0.0308382
0.000885745
0.0307387
0.000805322
0.0306435
0.000730648
0.0305535
0.00066193
0.0304692
0.000599048
0.0303908
0.000541688
0.0303182
0.00048944
0.0302512
0.000441861
0.0301896
0.000398507
0.030133
0.00035896
0.0300812
0.000322832
0.0300338
0.000289771
0.0299906
0.000259464
0.0299513
0.000231628