/*--------------------------------*- C++ -*----------------------------------*\
  =========                 |
  \\      /  F ield         | OpenFOAM: The Open Source CFD Toolbox
   \\    /   O peration     | Website:  https://openfoam.org
    \\  /    A nd           | Version:  7
     \\/     M anipulation  |
\*---------------------------------------------------------------------------*/
FoamFile
{
    version     2.0;
    format      ascii;
    class       volVectorField;
    location    "950";
    object      U;
}
// * * * * * * * * * * * * * * * * * * * * * * * * * * * * * * * * * * * * * //

dimensions      [0 1 -1 0 0 0 0];

internalField   nonuniform List<vector> 
4500
(
(15.4058 -0.778201 0)
(13.7077 -0.0619025 0)
(13.0325 -0.00325615 0)
(12.6708 0.00046499 0)
(12.4331 0.00050143 0)
(12.2594 0.000386177 0)
(12.125 0.000303744 0)
(12.0172 0.000246405 0)
(11.9286 0.0002045 0)
(11.8542 0.000172559 0)
(11.7911 0.000147435 0)
(11.7368 0.000127187 0)
(11.6898 0.000110546 0)
(11.6488 9.66465e-05 0)
(11.6128 8.48802e-05 0)
(11.5812 7.48044e-05 0)
(11.5533 6.60903e-05 0)
(11.5286 5.84884e-05 0)
(11.5067 5.18061e-05 0)
(11.4874 4.58927e-05 0)
(11.4702 4.0628e-05 0)
(11.455 3.59156e-05 0)
(11.4416 3.16771e-05 0)
(11.4298 2.7848e-05 0)
(11.4194 2.4375e-05 0)
(11.4104 2.12137e-05 0)
(11.4025 1.83266e-05 0)
(11.3958 1.5682e-05 0)
(11.39 1.32529e-05 0)
(11.3852 1.10161e-05 0)
(11.3812 8.95189e-06 0)
(11.378 7.04302e-06 0)
(11.3755 5.27447e-06 0)
(11.3738 3.63349e-06 0)
(11.3726 2.10847e-06 0)
(11.372 6.86116e-07 0)
(11.372 -6.46639e-07 0)
(11.3725 -1.88588e-06 0)
(11.3734 -3.03375e-06 0)
(11.3748 -4.103e-06 0)
(11.3766 -5.10081e-06 0)
(11.3788 -6.03069e-06 0)
(11.3814 -6.89704e-06 0)
(11.3842 -7.70293e-06 0)
(11.3874 -8.45227e-06 0)
(11.3909 -9.14733e-06 0)
(11.3946 -9.78995e-06 0)
(11.3986 -1.03824e-05 0)
(11.4028 -1.09259e-05 0)
(11.4072 -1.14198e-05 0)
(11.4118 -1.18649e-05 0)
(11.4166 -1.22585e-05 0)
(11.4215 -1.25992e-05 0)
(11.4265 -1.28867e-05 0)
(11.4316 -1.31213e-05 0)
(11.4369 -1.33024e-05 0)
(11.4421 -1.34329e-05 0)
(11.4475 -1.35092e-05 0)
(11.4528 -1.35282e-05 0)
(11.4581 -1.34847e-05 0)
(11.4635 -1.33621e-05 0)
(11.4687 -1.31432e-05 0)
(11.4738 -1.28009e-05 0)
(11.4788 -1.23148e-05 0)
(11.4836 -1.16746e-05 0)
(11.4881 -1.0901e-05 0)
(11.4923 -1.00639e-05 0)
(11.4962 -9.28432e-06 0)
(11.4999 -8.79954e-06 0)
(11.5034 -8.85721e-06 0)
(11.5071 -9.84194e-06 0)
(11.5114 -1.19902e-05 0)
(11.5166 -1.56676e-05 0)
(11.5234 -2.04823e-05 0)
(11.532 -1.21417e-05 0)
(17.5879 0.16307 0)
(16.0152 0.0238108 0)
(15.1976 0.00458796 0)
(14.7348 0.00198899 0)
(14.4341 0.00129709 0)
(14.2183 0.000960549 0)
(14.0538 0.000751469 0)
(13.9232 0.000608021 0)
(13.8165 0.000503607 0)
(13.7275 0.000424282 0)
(13.6522 0.000362065 0)
(13.5878 0.000312044 0)
(13.532 0.000271017 0)
(13.4835 0.000236811 0)
(13.441 0.000207895 0)
(13.4037 0.000183163 0)
(13.3708 0.000161797 0)
(13.3416 0.000143174 0)
(13.3158 0.000126818 0)
(13.293 0.000112353 0)
(13.2728 9.94828e-05 0)
(13.2548 8.79693e-05 0)
(13.239 7.76186e-05 0)
(13.225 6.8272e-05 0)
(13.2127 5.9798e-05 0)
(13.202 5.20873e-05 0)
(13.1926 4.50476e-05 0)
(13.1846 3.86012e-05 0)
(13.1777 3.26816e-05 0)
(13.1718 2.72323e-05 0)
(13.167 2.22044e-05 0)
(13.1631 1.75558e-05 0)
(13.16 1.32499e-05 0)
(13.1577 9.25519e-06 0)
(13.1562 5.54338e-06 0)
(13.1553 2.08601e-06 0)
(13.1551 -1.14737e-06 0)
(13.1554 -4.15821e-06 0)
(13.1563 -6.95291e-06 0)
(13.1577 -9.55687e-06 0)
(13.1596 -1.19859e-05 0)
(13.1619 -1.42498e-05 0)
(13.1647 -1.6359e-05 0)
(13.1678 -1.83216e-05 0)
(13.1713 -2.01461e-05 0)
(13.1751 -2.18387e-05 0)
(13.1793 -2.34045e-05 0)
(13.1837 -2.48483e-05 0)
(13.1884 -2.61726e-05 0)
(13.1933 -2.7377e-05 0)
(13.1984 -2.8462e-05 0)
(13.2037 -2.9423e-05 0)
(13.2093 -3.02572e-05 0)
(13.2149 -3.09637e-05 0)
(13.2207 -3.15423e-05 0)
(13.2266 -3.19923e-05 0)
(13.2325 -3.23175e-05 0)
(13.2385 -3.2512e-05 0)
(13.2446 -3.25685e-05 0)
(13.2506 -3.24733e-05 0)
(13.2567 -3.21931e-05 0)
(13.2626 -3.1689e-05 0)
(13.2684 -3.0909e-05 0)
(13.2741 -2.98121e-05 0)
(13.2796 -2.8385e-05 0)
(13.2848 -2.66798e-05 0)
(13.2898 -2.48561e-05 0)
(13.2944 -2.31889e-05 0)
(13.2989 -2.21736e-05 0)
(13.3033 -2.23619e-05 0)
(13.3079 -2.45327e-05 0)
(13.313 -2.9223e-05 0)
(13.3192 -3.70553e-05 0)
(13.3268 -4.73352e-05 0)
(13.336 -2.70044e-05 0)
(18.7449 0.0973745 0)
(17.3725 0.0156216 0)
(16.4743 0.00605636 0)
(15.9331 0.00350033 0)
(15.5795 0.00236975 0)
(15.3279 0.00174957 0)
(15.138 0.00136082 0)
(14.9886 0.00109591 0)
(14.8673 0.000904526 0)
(14.7668 0.000760049 0)
(14.6821 0.000647306 0)
(14.6098 0.000557034 0)
(14.5474 0.000483241 0)
(14.4932 0.000421882 0)
(14.4459 0.000370133 0)
(14.4043 0.000325958 0)
(14.3676 0.000287856 0)
(14.3353 0.000254694 0)
(14.3066 0.000225603 0)
(14.2812 0.000199905 0)
(14.2586 0.000177063 0)
(14.2387 0.000156645 0)
(14.221 0.000138303 0)
(14.2054 0.000121753 0)
(14.1917 0.000106756 0)
(14.1796 9.31178e-05 0)
(14.1691 8.06727e-05 0)
(14.16 6.92816e-05 0)
(14.1522 5.88258e-05 0)
(14.1456 4.9204e-05 0)
(14.14 4.03293e-05 0)
(14.1355 3.21266e-05 0)
(14.1319 2.45306e-05 0)
(14.1291 1.7485e-05 0)
(14.1271 1.09397e-05 0)
(14.1259 4.84918e-06 0)
(14.1254 -8.41899e-07 0)
(14.1255 -6.14965e-06 0)
(14.1262 -1.10821e-05 0)
(14.1275 -1.56761e-05 0)
(14.1293 -1.99599e-05 0)
(14.1315 -2.39528e-05 0)
(14.1343 -2.76733e-05 0)
(14.1374 -3.11363e-05 0)
(14.141 -3.43568e-05 0)
(14.1449 -3.7346e-05 0)
(14.1491 -4.0113e-05 0)
(14.1537 -4.2666e-05 0)
(14.1585 -4.50092e-05 0)
(14.1637 -4.71425e-05 0)
(14.169 -4.90662e-05 0)
(14.1746 -5.07743e-05 0)
(14.1804 -5.22627e-05 0)
(14.1863 -5.353e-05 0)
(14.1924 -5.45755e-05 0)
(14.1985 -5.53978e-05 0)
(14.2048 -5.60011e-05 0)
(14.2112 -5.63753e-05 0)
(14.2176 -5.65077e-05 0)
(14.224 -5.63739e-05 0)
(14.2303 -5.59234e-05 0)
(14.2366 -5.50971e-05 0)
(14.2429 -5.3823e-05 0)
(14.2489 -5.20495e-05 0)
(14.2548 -4.97763e-05 0)
(14.2605 -4.71098e-05 0)
(14.2658 -4.43239e-05 0)
(14.271 -4.18715e-05 0)
(14.276 -4.05199e-05 0)
(14.281 -4.11153e-05 0)
(14.2862 -4.47868e-05 0)
(14.2919 -5.22761e-05 0)
(14.2984 -6.43065e-05 0)
(14.3061 -7.97271e-05 0)
(14.3151 -4.46791e-05 0)
(19.3754 0.0462247 0)
(18.326 0.0150409 0)
(17.4307 0.00910101 0)
(16.8356 0.00564414 0)
(16.435 0.00383709 0)
(16.1491 0.00281757 0)
(15.9342 0.00217867 0)
(15.7661 0.00174595 0)
(15.6305 0.00143549 0)
(15.5186 0.00120258 0)
(15.4247 0.00102181 0)
(15.3447 0.000877711 0)
(15.276 0.000760364 0)
(15.2164 0.000663101 0)
(15.1644 0.00058129 0)
(15.1188 0.000511614 0)
(15.0786 0.000451637 0)
(15.0431 0.000399526 0)
(15.0117 0.000353883 0)
(14.9839 0.000313616 0)
(14.9592 0.000277866 0)
(14.9373 0.000245946 0)
(14.9179 0.000217298 0)
(14.9007 0.00019147 0)
(14.8856 0.000168085 0)
(14.8723 0.000146833 0)
(14.8607 0.000127453 0)
(14.8505 0.000109724 0)
(14.8418 9.34597e-05 0)
(14.8343 7.84997e-05 0)
(14.8281 6.47071e-05 0)
(14.8228 5.19637e-05 0)
(14.8186 4.01669e-05 0)
(14.8154 2.9228e-05 0)
(14.8129 1.90686e-05 0)
(14.8113 9.61912e-06 0)
(14.8104 7.97e-07 0)
(14.8102 -7.43727e-06 0)
(14.8106 -1.5098e-05 0)
(14.8117 -2.22298e-05 0)
(14.8133 -2.88782e-05 0)
(14.8154 -3.50751e-05 0)
(14.818 -4.085e-05 0)
(14.8211 -4.62266e-05 0)
(14.8246 -5.12284e-05 0)
(14.8284 -5.58732e-05 0)
(14.8327 -6.01754e-05 0)
(14.8373 -6.41474e-05 0)
(14.8422 -6.7796e-05 0)
(14.8473 -7.11217e-05 0)
(14.8528 -7.41253e-05 0)
(14.8585 -7.67994e-05 0)
(14.8643 -7.91388e-05 0)
(14.8704 -8.11415e-05 0)
(14.8766 -8.28061e-05 0)
(14.883 -8.41306e-05 0)
(14.8895 -8.5118e-05 0)
(14.896 -8.5754e-05 0)
(14.9026 -8.60189e-05 0)
(14.9092 -8.58774e-05 0)
(14.9158 -8.52621e-05 0)
(14.9223 -8.40959e-05 0)
(14.9288 -8.229e-05 0)
(14.9351 -7.979e-05 0)
(14.9413 -7.66179e-05 0)
(14.9473 -7.29466e-05 0)
(14.953 -6.91754e-05 0)
(14.9586 -6.59447e-05 0)
(14.964 -6.42907e-05 0)
(14.9695 -6.53436e-05 0)
(14.9751 -7.05442e-05 0)
(14.9811 -8.07848e-05 0)
(14.9877 -9.67762e-05 0)
(14.9952 -0.000116873 0)
(15.0036 -6.46329e-05 0)
(19.693 0.0456702 0)
(18.9995 0.0202329 0)
(18.1918 0.0128969 0)
(17.577 0.00823931 0)
(17.1407 0.00564736 0)
(16.8239 0.00414117 0)
(16.5849 0.00318982 0)
(16.3982 0.00254609 0)
(16.2481 0.00208608 0)
(16.1247 0.00174263 0)
(16.0214 0.00147727 0)
(15.9337 0.00126663 0)
(15.8585 0.0010957 0)
(15.7934 0.000954472 0)
(15.7367 0.000836004 0)
(15.687 0.000735347 0)
(15.6433 0.00064888 0)
(15.6047 0.000573892 0)
(15.5705 0.000508315 0)
(15.5402 0.000450546 0)
(15.5133 0.000399323 0)
(15.4895 0.000353639 0)
(15.4683 0.000312682 0)
(15.4496 0.000275789 0)
(15.4331 0.000242416 0)
(15.4185 0.00021211 0)
(15.4057 0.000184492 0)
(15.3945 0.000159243 0)
(15.3848 0.000136093 0)
(15.3765 0.000114812 0)
(15.3694 9.51997e-05 0)
(15.3635 7.70875e-05 0)
(15.3587 6.03272e-05 0)
(15.3548 4.47908e-05 0)
(15.3518 3.03659e-05 0)
(15.3497 1.69527e-05 0)
(15.3484 4.44331e-06 0)
(15.3479 -7.23703e-06 0)
(15.348 -1.81178e-05 0)
(15.3487 -2.82449e-05 0)
(15.3501 -3.76834e-05 0)
(15.352 -4.64805e-05 0)
(15.3544 -5.46793e-05 0)
(15.3573 -6.23146e-05 0)
(15.3606 -6.94199e-05 0)
(15.3644 -7.6021e-05 0)
(15.3685 -8.21388e-05 0)
(15.3731 -8.77909e-05 0)
(15.3779 -9.29872e-05 0)
(15.3831 -9.77299e-05 0)
(15.3885 -0.000102021 0)
(15.3942 -0.000105851 0)
(15.4001 -0.000109216 0)
(15.4063 -0.000112112 0)
(15.4126 -0.000114538 0)
(15.419 -0.000116489 0)
(15.4256 -0.000117968 0)
(15.4322 -0.000118954 0)
(15.4389 -0.000119423 0)
(15.4457 -0.000119328 0)
(15.4524 -0.000118588 0)
(15.4591 -0.000117111 0)
(15.4658 -0.0001148 0)
(15.4723 -0.000111605 0)
(15.4787 -0.000107575 0)
(15.4849 -0.000102954 0)
(15.4909 -9.82628e-05 0)
(15.4968 -9.43116e-05 0)
(15.5026 -9.23698e-05 0)
(15.5083 -9.38018e-05 0)
(15.5142 -0.000100285 0)
(15.5204 -0.000112784 0)
(15.527 -0.000131896 0)
(15.5342 -0.000155501 0)
(15.5419 -8.49904e-05 0)
(19.8488 0.0504549 0)
(19.4507 0.0244881 0)
(18.7997 0.016652 0)
(18.2081 0.0111579 0)
(17.7532 0.007791 0)
(17.4116 0.00573675 0)
(17.1505 0.00441439 0)
(16.9458 0.00351467 0)
(16.7812 0.00287186 0)
(16.6461 0.00239313 0)
(16.5332 0.00202448 0)
(16.4376 0.00173281 0)
(16.3557 0.00149689 0)
(16.2849 0.00130252 0)
(16.2233 0.00113989 0)
(16.1694 0.00100204 0)
(16.122 0.00088386 0)
(16.0802 0.000781559 0)
(16.0431 0.000692243 0)
(16.0103 0.000613679 0)
(15.9812 0.000544108 0)
(15.9553 0.000482135 0)
(15.9323 0.000426635 0)
(15.9119 0.000376692 0)
(15.8939 0.000331553 0)
(15.8779 0.000290597 0)
(15.8639 0.000253301 0)
(15.8516 0.000219229 0)
(15.8409 0.000188008 0)
(15.8317 0.000159322 0)
(15.8238 0.000132901 0)
(15.8171 0.000108511 0)
(15.8115 8.59515e-05 0)
(15.807 6.5047e-05 0)
(15.8035 4.56443e-05 0)
(15.8009 2.76078e-05 0)
(15.7991 1.08027e-05 0)
(15.7981 -4.8886e-06 0)
(15.7978 -1.95217e-05 0)
(15.7982 -3.3143e-05 0)
(15.7992 -4.58357e-05 0)
(15.8008 -5.76657e-05 0)
(15.803 -6.86916e-05 0)
(15.8057 -7.89621e-05 0)
(15.8088 -8.85223e-05 0)
(15.8124 -9.74079e-05 0)
(15.8164 -0.000105648 0)
(15.8208 -0.000113265 0)
(15.8256 -0.000120275 0)
(15.8307 -0.000126681 0)
(15.836 -0.000132488 0)
(15.8417 -0.000137686 0)
(15.8476 -0.00014227 0)
(15.8537 -0.000146237 0)
(15.86 -0.000149584 0)
(15.8665 -0.000152305 0)
(15.8731 -0.0001544 0)
(15.8798 -0.000155845 0)
(15.8866 -0.000156606 0)
(15.8934 -0.00015663 0)
(15.9002 -0.000155825 0)
(15.9071 -0.000154089 0)
(15.9138 -0.000151321 0)
(15.9205 -0.000147481 0)
(15.927 -0.000142654 0)
(15.9335 -0.000137152 0)
(15.9397 -0.000131605 0)
(15.9458 -0.000126973 0)
(15.9518 -0.000124719 0)
(15.9578 -0.000126386 0)
(15.9639 -0.000133816 0)
(15.9701 -0.000147976 0)
(15.9767 -0.000169275 0)
(15.9835 -0.00019515 0)
(15.9907 -0.000105519 0)
(19.929 0.0521809 0)
(19.7286 0.0270124 0)
(19.2674 0.0200258 0)
(18.7457 0.0142434 0)
(18.2961 0.0102331 0)
(17.9397 0.00761459 0)
(17.6607 0.00587475 0)
(17.4395 0.00467512 0)
(17.2609 0.0038141 0)
(17.114 0.00317259 0)
(16.9914 0.00267928 0)
(16.8876 0.00228985 0)
(16.7988 0.00197561 0)
(16.7221 0.00171734 0)
(16.6554 0.00150174 0)
(16.597 0.00131938 0)
(16.5458 0.00116334 0)
(16.5005 0.00102851 0)
(16.4605 0.000910981 0)
(16.4249 0.000807752 0)
(16.3934 0.000716463 0)
(16.3654 0.000635242 0)
(16.3405 0.000562585 0)
(16.3183 0.000497269 0)
(16.2987 0.000438291 0)
(16.2813 0.000384824 0)
(16.266 0.000336173 0)
(16.2525 0.000291758 0)
(16.2407 0.000251087 0)
(16.2305 0.000213741 0)
(16.2216 0.000179363 0)
(16.2141 0.000147643 0)
(16.2078 0.000118316 0)
(16.2026 9.11518e-05 0)
(16.1984 6.59478e-05 0)
(16.1952 4.25261e-05 0)
(16.1929 2.07196e-05 0)
(16.1914 3.67769e-07 0)
(16.1906 -1.86264e-05 0)
(16.1906 -3.63175e-05 0)
(16.1913 -5.27999e-05 0)
(16.1925 -6.81614e-05 0)
(16.1944 -8.24797e-05 0)
(16.1968 -9.58195e-05 0)
(16.1997 -0.00010824 0)
(16.2031 -0.000119789 0)
(16.2069 -0.000130503 0)
(16.2111 -0.000140416 0)
(16.2157 -0.000149545 0)
(16.2207 -0.000157901 0)
(16.226 -0.000165488 0)
(16.2315 -0.0001723 0)
(16.2373 -0.000178329 0)
(16.2434 -0.000183574 0)
(16.2497 -0.000188029 0)
(16.2561 -0.000191689 0)
(16.2627 -0.00019455 0)
(16.2694 -0.000196582 0)
(16.2762 -0.000197746 0)
(16.2831 -0.000197983 0)
(16.29 -0.000197191 0)
(16.2969 -0.000195264 0)
(16.3037 -0.000192102 0)
(16.3105 -0.000187679 0)
(16.3171 -0.000182118 0)
(16.3237 -0.000175797 0)
(16.3301 -0.000169444 0)
(16.3364 -0.000164145 0)
(16.3426 -0.000161517 0)
(16.3488 -0.000163231 0)
(16.355 -0.000171237 0)
(16.3612 -0.000186447 0)
(16.3677 -0.000209025 0)
(16.3742 -0.000236013 0)
(16.3808 -0.000126351 0)
(19.9739 0.052718 0)
(19.8889 0.0285834 0)
(19.6025 0.0227995 0)
(19.1903 0.0172661 0)
(18.776 0.0128803 0)
(18.4202 0.00975677 0)
(18.1302 0.00758162 0)
(17.8955 0.00604682 0)
(17.7042 0.0049334 0)
(17.546 0.00410026 0)
(17.4137 0.00345889 0)
(17.3016 0.00295286 0)
(17.2056 0.00254508 0)
(17.1228 0.00221049 0)
(17.0508 0.0019317 0)
(16.9878 0.00169629 0)
(16.9324 0.00149522 0)
(16.8836 0.00132175 0)
(16.8404 0.00117077 0)
(16.802 0.00103835 0)
(16.7679 0.000921395 0)
(16.7376 0.000817464 0)
(16.7106 0.000724593 0)
(16.6866 0.000641191 0)
(16.6653 0.000565953 0)
(16.6463 0.000497803 0)
(16.6296 0.000435842 0)
(16.6148 0.000379317 0)
(16.6019 0.000327592 0)
(16.5905 0.000280125 0)
(16.5807 0.000236454 0)
(16.5723 0.000196182 0)
(16.5651 0.000158966 0)
(16.5592 0.000124508 0)
(16.5543 9.25485e-05 0)
(16.5504 6.28594e-05 0)
(16.5475 3.52326e-05 0)
(16.5454 9.4693e-06 0)
(16.5442 -1.45852e-05 0)
(16.5437 -3.70097e-05 0)
(16.5439 -5.79002e-05 0)
(16.5448 -7.737e-05 0)
(16.5463 -9.55183e-05 0)
(16.5483 -0.000112429 0)
(16.5509 -0.000128178 0)
(16.554 -0.000142827 0)
(16.5576 -0.000156425 0)
(16.5616 -0.000169013 0)
(16.566 -0.000180618 0)
(16.5708 -0.000191254 0)
(16.5759 -0.000200929 0)
(16.5813 -0.000209638 0)
(16.587 -0.000217376 0)
(16.593 -0.00022414 0)
(16.5992 -0.000229926 0)
(16.6056 -0.000234722 0)
(16.6121 -0.000238526 0)
(16.6188 -0.000241302 0)
(16.6256 -0.000243005 0)
(16.6324 -0.000243571 0)
(16.6393 -0.000242891 0)
(16.6462 -0.00024086 0)
(16.6531 -0.000237383 0)
(16.6599 -0.000232453 0)
(16.6667 -0.000226229 0)
(16.6733 -0.000219149 0)
(16.6799 -0.000212029 0)
(16.6863 -0.000206054 0)
(16.6927 -0.00020296 0)
(16.6989 -0.000204503 0)
(16.7052 -0.000212688 0)
(16.7115 -0.00022833 0)
(16.7178 -0.000251324 0)
(16.724 -0.000278354 0)
(16.7302 -0.00014765 0)
(20.0011 0.0528694 0)
(19.9807 0.0295175 0)
(19.8226 0.0248232 0)
(19.5371 0.019951 0)
(19.1896 0.0155661 0)
(18.8549 0.0120995 0)
(18.5647 0.00952307 0)
(18.3221 0.00763897 0)
(18.1205 0.00624631 0)
(17.9523 0.0051943 0)
(17.8107 0.00438085 0)
(17.6905 0.00373795 0)
(17.5873 0.00321978 0)
(17.4983 0.00279489 0)
(17.4207 0.00244122 0)
(17.3529 0.00214297 0)
(17.2933 0.00188857 0)
(17.2407 0.00166939 0)
(17.194 0.00147888 0)
(17.1527 0.00131199 0)
(17.1159 0.00116477 0)
(17.0831 0.00103409 0)
(17.0539 0.000917444 0)
(17.0279 0.000812792 0)
(17.0047 0.000718471 0)
(16.9842 0.000633108 0)
(16.9659 0.00055556 0)
(16.9497 0.000484867 0)
(16.9355 0.000420221 0)
(16.923 0.000360934 0)
(16.9121 0.000306421 0)
(16.9027 0.000256176 0)
(16.8946 0.000209766 0)
(16.8878 0.000166815 0)
(16.8821 0.000126995 0)
(16.8775 9.00157e-05 0)
(16.8739 5.56199e-05 0)
(16.8712 2.35719e-05 0)
(16.8694 -6.34995e-06 0)
(16.8684 -3.42692e-05 0)
(16.8681 -6.02838e-05 0)
(16.8685 -8.45289e-05 0)
(16.8696 -0.000107129 0)
(16.8713 -0.000128192 0)
(16.8735 -0.000147812 0)
(16.8763 -0.000166067 0)
(16.8796 -0.000183021 0)
(16.8833 -0.000198726 0)
(16.8875 -0.000213218 0)
(16.892 -0.000226516 0)
(16.8969 -0.000238636 0)
(16.9022 -0.000249574 0)
(16.9077 -0.000259327 0)
(16.9135 -0.000267893 0)
(16.9196 -0.000275266 0)
(16.9259 -0.000281435 0)
(16.9323 -0.000286392 0)
(16.9389 -0.000290098 0)
(16.9456 -0.000292503 0)
(16.9525 -0.000293541 0)
(16.9593 -0.000293099 0)
(16.9662 -0.000291076 0)
(16.9731 -0.000287384 0)
(16.98 -0.000282038 0)
(16.9868 -0.000275231 0)
(16.9935 -0.000267458 0)
(17.0001 -0.000259603 0)
(17.0066 -0.000252929 0)
(17.0131 -0.000249255 0)
(17.0194 -0.000250381 0)
(17.0257 -0.000258327 0)
(17.0319 -0.000273786 0)
(17.0381 -0.000296363 0)
(17.0441 -0.000322438 0)
(17.0499 -0.000169574 0)
(20.0187 0.0527445 0)
(20.0354 0.0299682 0)
(19.9582 0.026127 0)
(19.7862 0.0220655 0)
(19.5283 0.0180611 0)
(19.2388 0.0145161 0)
(18.9637 0.0116492 0)
(18.7216 0.00944108 0)
(18.5144 0.00775985 0)
(18.3385 0.00646875 0)
(18.189 0.00546134 0)
(18.0611 0.00466132 0)
(17.951 0.00401502 0)
(17.8557 0.00348461 0)
(17.7726 0.00304311 0)
(17.6999 0.00267097 0)
(17.6358 0.00235379 0)
(17.5792 0.00208078 0)
(17.5291 0.00184373 0)
(17.4845 0.00163628 0)
(17.4448 0.00145347 0)
(17.4094 0.00129135 0)
(17.3779 0.00114679 0)
(17.3497 0.0010172 0)
(17.3246 0.000900514 0)
(17.3023 0.000794993 0)
(17.2824 0.000699205 0)
(17.2647 0.000611947 0)
(17.2491 0.000532207 0)
(17.2353 0.000459123 0)
(17.2232 0.000391962 0)
(17.2127 0.000330094 0)
(17.2036 0.000272976 0)
(17.1959 0.000220137 0)
(17.1894 0.000171169 0)
(17.184 0.000125713 0)
(17.1796 8.34479e-05 0)
(17.1762 4.40941e-05 0)
(17.1738 7.37043e-06 0)
(17.1722 -2.6917e-05 0)
(17.1713 -5.88864e-05 0)
(17.1713 -8.86807e-05 0)
(17.1719 -0.000116455 0)
(17.1731 -0.000142343 0)
(17.1749 -0.000166463 0)
(17.1773 -0.000188912 0)
(17.1803 -0.000209771 0)
(17.1837 -0.000229104 0)
(17.1875 -0.00024696 0)
(17.1918 -0.000263367 0)
(17.1965 -0.000278346 0)
(17.2015 -0.000291899 0)
(17.2068 -0.000304024 0)
(17.2124 -0.000314722 0)
(17.2183 -0.000323986 0)
(17.2244 -0.000331801 0)
(17.2308 -0.00033816 0)
(17.2373 -0.000343019 0)
(17.2439 -0.000346325 0)
(17.2506 -0.000348009 0)
(17.2574 -0.00034796 0)
(17.2643 -0.000346082 0)
(17.2711 -0.000342299 0)
(17.278 -0.000336647 0)
(17.2848 -0.000329354 0)
(17.2915 -0.00032096 0)
(17.2982 -0.000312403 0)
(17.3047 -0.000304997 0)
(17.3112 -0.000300611 0)
(17.3176 -0.000301056 0)
(17.3239 -0.000308331 0)
(17.3301 -0.000322988 0)
(17.3361 -0.000344349 0)
(17.3419 -0.000368534 0)
(17.3473 -0.00019228 0)
(20.0306 0.0523702 0)
(20.0698 0.03007 0)
(20.0406 0.0268629 0)
(19.9512 0.0235191 0)
(19.7855 0.0201272 0)
(19.5621 0.0168135 0)
(19.3211 0.0138542 0)
(19.0917 0.0114083 0)
(18.8862 0.0094621 0)
(18.7068 0.00792766 0)
(18.5516 0.00671164 0)
(18.4174 0.00573709 0)
(18.3011 0.00494558 0)
(18.1999 0.00429407 0)
(18.1114 0.00375094 0)
(18.0336 0.00329287 0)
(17.9651 0.00290244 0)
(17.9044 0.00256648 0)
(17.8506 0.00227493 0)
(17.8027 0.00201996 0)
(17.76 0.00179544 0)
(17.7219 0.00159649 0)
(17.6879 0.00141922 0)
(17.6574 0.00126045 0)
(17.6302 0.00111758 0)
(17.6059 0.00098848 0)
(17.5843 0.000871372 0)
(17.565 0.000764765 0)
(17.5479 0.000667404 0)
(17.5327 0.000578223 0)
(17.5194 0.000496316 0)
(17.5077 0.000420902 0)
(17.4975 0.000351312 0)
(17.4887 0.000286964 0)
(17.4813 0.000227354 0)
(17.475 0.000172039 0)
(17.4698 0.000120626 0)
(17.4657 7.27763e-05 0)
(17.4625 2.81612e-05 0)
(17.4603 -1.35027e-05 0)
(17.4588 -5.23862e-05 0)
(17.4581 -8.86291e-05 0)
(17.4582 -0.000122416 0)
(17.459 -0.000153913 0)
(17.4603 -0.000183263 0)
(17.4623 -0.000210589 0)
(17.4648 -0.00023599 0)
(17.4679 -0.000259548 0)
(17.4714 -0.000281324 0)
(17.4753 -0.000301358 0)
(17.4797 -0.00031968 0)
(17.4844 -0.000336296 0)
(17.4895 -0.000351211 0)
(17.4949 -0.000364426 0)
(17.5006 -0.000375934 0)
(17.5065 -0.000385721 0)
(17.5126 -0.000393775 0)
(17.519 -0.000400051 0)
(17.5255 -0.000404494 0)
(17.5321 -0.000407037 0)
(17.5388 -0.000407569 0)
(17.5455 -0.000406005 0)
(17.5523 -0.000402283 0)
(17.5591 -0.000396461 0)
(17.5659 -0.000388795 0)
(17.5726 -0.000379864 0)
(17.5792 -0.00037064 0)
(17.5858 -0.000362466 0)
(17.5923 -0.000357227 0)
(17.5987 -0.000356709 0)
(17.6049 -0.00036287 0)
(17.611 -0.000376111 0)
(17.6169 -0.000395485 0)
(17.6225 -0.000416906 0)
(17.6277 -0.000215923 0)
(20.039 0.0517789 0)
(20.0926 0.0299213 0)
(20.092 0.027188 0)
(20.0552 0.0243789 0)
(19.9649 0.0216134 0)
(19.8158 0.0187666 0)
(19.6268 0.0159671 0)
(19.4257 0.0134437 0)
(19.2323 0.0113079 0)
(19.0559 0.00955549 0)
(18.899 0.0081319 0)
(18.761 0.00697327 0)
(18.6398 0.00602317 0)
(18.5336 0.00523641 0)
(18.4401 0.0045781 0)
(18.3576 0.00402166 0)
(18.2847 0.0035468 0)
(18.22 0.00313796 0)
(18.1624 0.00278311 0)
(18.1111 0.00247283 0)
(18.0653 0.00219969 0)
(18.0243 0.00195779 0)
(17.9877 0.00174234 0)
(17.9548 0.00154949 0)
(17.9254 0.00137606 0)
(17.8991 0.00121944 0)
(17.8755 0.00107746 0)
(17.8545 0.000948275 0)
(17.8358 0.000830364 0)
(17.8192 0.00072242 0)
(17.8044 0.000623329 0)
(17.7915 0.000532139 0)
(17.7801 0.000448029 0)
(17.7702 0.000370287 0)
(17.7617 0.000298297 0)
(17.7545 0.000231517 0)
(17.7484 0.000169471 0)
(17.7435 0.000111745 0)
(17.7395 5.79589e-05 0)
(17.7365 7.74811e-06 0)
(17.7344 -3.91485e-05 0)
(17.733 -8.28865e-05 0)
(17.7325 -0.000123662 0)
(17.7327 -0.000161677 0)
(17.7335 -0.000197109 0)
(17.735 -0.000230106 0)
(17.7371 -0.000260791 0)
(17.7397 -0.000289267 0)
(17.7428 -0.00031561 0)
(17.7464 -0.000339875 0)
(17.7504 -0.000362102 0)
(17.7548 -0.000382307 0)
(17.7596 -0.000400497 0)
(17.7647 -0.000416679 0)
(17.7701 -0.000430846 0)
(17.7758 -0.000442984 0)
(17.7817 -0.00045308 0)
(17.7879 -0.000461086 0)
(17.7942 -0.000466949 0)
(17.8006 -0.000470603 0)
(17.8072 -0.000471946 0)
(17.8138 -0.000470901 0)
(17.8205 -0.000467423 0)
(17.8272 -0.000461594 0)
(17.8339 -0.000453693 0)
(17.8405 -0.000444324 0)
(17.8471 -0.000434479 0)
(17.8537 -0.000425499 0)
(17.8601 -0.00041926 0)
(17.8665 -0.000417493 0)
(17.8727 -0.000422093 0)
(17.8786 -0.000433312 0)
(17.8844 -0.000449962 0)
(17.8898 -0.000467803 0)
(17.8947 -0.000240647 0)
(20.0449 0.0509937 0)
(20.1082 0.029581 0)
(20.1254 0.0272183 0)
(20.1206 0.0247808 0)
(20.0821 0.0225188 0)
(19.9986 0.0202042 0)
(19.8707 0.0177773 0)
(19.7131 0.0153876 0)
(19.5451 0.0132012 0)
(19.3812 0.0113027 0)
(19.2289 0.00970101 0)
(19.0909 0.00836499 0)
(18.9675 0.00725183 0)
(18.8578 0.00632036 0)
(18.7603 0.00553561 0)
(18.6738 0.00486927 0)
(18.5968 0.00429896 0)
(18.5283 0.00380701 0)
(18.4671 0.00337952 0)
(18.4124 0.00300549 0)
(18.3634 0.00267615 0)
(18.3195 0.00238445 0)
(18.2801 0.0021247 0)
(18.2448 0.00189225 0)
(18.2131 0.00168328 0)
(18.1846 0.00149464 0)
(18.1591 0.0013237 0)
(18.1362 0.00116824 0)
(18.1158 0.00102641 0)
(18.0975 0.000896626 0)
(18.0813 0.000777538 0)
(18.067 0.000667992 0)
(18.0543 0.00056699 0)
(18.0433 0.000473671 0)
(18.0336 0.000387287 0)
(18.0254 0.00030718 0)
(18.0183 0.000232775 0)
(18.0124 0.000163571 0)
(18.0076 9.91217e-05 0)
(18.0038 3.8999e-05 0)
(18.0009 -1.71746e-05 0)
(17.9989 -6.96154e-05 0)
(17.9977 -0.000118512 0)
(17.9972 -0.000164105 0)
(17.9975 -0.000206607 0)
(17.9984 -0.0002462 0)
(18 -0.000283033 0)
(18.0021 -0.000317233 0)
(18.0047 -0.000348897 0)
(18.0079 -0.000378096 0)
(18.0115 -0.000404885 0)
(18.0155 -0.000429288 0)
(18.02 -0.000451321 0)
(18.0248 -0.000470995 0)
(18.0299 -0.000488306 0)
(18.0353 -0.00050324 0)
(18.0409 -0.000515784 0)
(18.0468 -0.000525891 0)
(18.0529 -0.000533508 0)
(18.0591 -0.000538576 0)
(18.0655 -0.000541001 0)
(18.0719 -0.000540722 0)
(18.0785 -0.000537711 0)
(18.085 -0.00053207 0)
(18.0916 -0.000524097 0)
(18.0982 -0.000514412 0)
(18.1047 -0.000504004 0)
(18.1112 -0.000494193 0)
(18.1176 -0.000486809 0)
(18.1238 -0.000483509 0)
(18.1299 -0.000486108 0)
(18.1357 -0.000494718 0)
(18.1413 -0.000507946 0)
(18.1465 -0.000521446 0)
(18.1512 -0.000266584 0)
(20.0492 0.0500256 0)
(20.1193 0.0290806 0)
(20.1481 0.0270286 0)
(20.1628 0.0248477 0)
(20.1569 0.0229464 0)
(20.1211 0.0210868 0)
(20.0495 0.0191112 0)
(19.9437 0.0170398 0)
(19.8141 0.0149855 0)
(19.6744 0.0130688 0)
(19.5354 0.0113618 0)
(19.4037 0.00988347 0)
(19.2821 0.00862018 0)
(19.1717 0.0075449 0)
(19.0721 0.00662841 0)
(18.9827 0.00584401 0)
(18.9025 0.00516892 0)
(18.8306 0.00458437 0)
(18.7661 0.00407509 0)
(18.7082 0.00362869 0)
(18.6562 0.00323516 0)
(18.6094 0.00288635 0)
(18.5673 0.0025756 0)
(18.5295 0.00229746 0)
(18.4954 0.00204741 0)
(18.4647 0.0018217 0)
(18.4371 0.00161719 0)
(18.4123 0.00143126 0)
(18.39 0.00126167 0)
(18.3701 0.00110653 0)
(18.3524 0.000964223 0)
(18.3365 0.000833356 0)
(18.3225 0.000712735 0)
(18.3102 0.000601323 0)
(18.2993 0.000498219 0)
(18.2899 0.000402634 0)
(18.2818 0.000313875 0)
(18.2749 0.000231342 0)
(18.2692 0.000154502 0)
(18.2645 8.28656e-05 0)
(18.2608 1.59533e-05 0)
(18.2579 -4.6565e-05 0)
(18.256 -0.000104901 0)
(18.2549 -0.000159301 0)
(18.2545 -0.000210022 0)
(18.2548 -0.000257284 0)
(18.2557 -0.000301269 0)
(18.2573 -0.000342131 0)
(18.2595 -0.000379992 0)
(18.2621 -0.000414943 0)
(18.2653 -0.000447056 0)
(18.2689 -0.000476367 0)
(18.2729 -0.000502903 0)
(18.2773 -0.000526682 0)
(18.2821 -0.000547703 0)
(18.2871 -0.000565953 0)
(18.2925 -0.000581422 0)
(18.2981 -0.000594063 0)
(18.3039 -0.000603829 0)
(18.3098 -0.000610669 0)
(18.316 -0.000614501 0)
(18.3222 -0.000615281 0)
(18.3285 -0.000613 0)
(18.3349 -0.00060778 0)
(18.3413 -0.000599933 0)
(18.3477 -0.00059008 0)
(18.3541 -0.000579191 0)
(18.3605 -0.000568537 0)
(18.3667 -0.000559882 0)
(18.3729 -0.000554779 0)
(18.3788 -0.000554957 0)
(18.3845 -0.0005604 0)
(18.3899 -0.000569554 0)
(18.3949 -0.000578011 0)
(18.3994 -0.00029384 0)
(20.0522 0.0488783 0)
(20.1272 0.0284366 0)
(20.164 0.0266625 0)
(20.1912 0.0246654 0)
(20.2052 0.0230151 0)
(20.2004 0.0214911 0)
(20.1713 0.0199148 0)
(20.1139 0.0182338 0)
(20.0293 0.0164681 0)
(19.9247 0.0146947 0)
(19.8096 0.0130044 0)
(19.6925 0.0114605 0)
(19.579 0.0100893 0)
(19.4722 0.00889024 0)
(19.3736 0.00784889 0)
(19.2834 0.00694579 0)
(19.2015 0.00616125 0)
(19.1273 0.00547736 0)
(19.0602 0.00487863 0)
(18.9996 0.004352 0)
(18.9448 0.00388656 0)
(18.8953 0.00347327 0)
(18.8507 0.0031046 0)
(18.8103 0.00277431 0)
(18.7739 0.0024772 0)
(18.7409 0.00220891 0)
(18.7112 0.00196577 0)
(18.6845 0.00174469 0)
(18.6604 0.00154305 0)
(18.6387 0.00135859 0)
(18.6193 0.00118942 0)
(18.6019 0.00103387 0)
(18.5865 0.000890516 0)
(18.5727 0.000758136 0)
(18.5606 0.00063565 0)
(18.55 0.000522118 0)
(18.5407 0.000416713 0)
(18.5328 0.000318719 0)
(18.526 0.000227502 0)
(18.5204 0.000142491 0)
(18.5157 6.31401e-05 0)
(18.5121 -1.10247e-05 0)
(18.5093 -8.03068e-05 0)
(18.5074 -0.000144938 0)
(18.5063 -0.000205209 0)
(18.5059 -0.000261386 0)
(18.5062 -0.000313686 0)
(18.5072 -0.000362298 0)
(18.5088 -0.000407372 0)
(18.5109 -0.000449024 0)
(18.5135 -0.000487346 0)
(18.5166 -0.000522392 0)
(18.5202 -0.000554198 0)
(18.5242 -0.000582792 0)
(18.5285 -0.00060818 0)
(18.5332 -0.000630352 0)
(18.5382 -0.000649301 0)
(18.5434 -0.000664985 0)
(18.5489 -0.000677363 0)
(18.5545 -0.000686395 0)
(18.5604 -0.000692016 0)
(18.5663 -0.000694201 0)
(18.5724 -0.000692962 0)
(18.5785 -0.00068844 0)
(18.5847 -0.000680953 0)
(18.591 -0.000671115 0)
(18.5972 -0.000659858 0)
(18.6034 -0.000648382 0)
(18.6095 -0.000638356 0)
(18.6154 -0.000631211 0)
(18.6212 -0.000628586 0)
(18.6267 -0.000630347 0)
(18.6319 -0.00063483 0)
(18.6367 -0.000637596 0)
(18.641 -0.000322482 0)
(20.0542 0.0475508 0)
(20.1328 0.0276568 0)
(20.1754 0.0261432 0)
(20.2109 0.0242867 0)
(20.2375 0.0228152 0)
(20.252 0.0215276 0)
(20.2508 0.02025 0)
(20.2303 0.0189168 0)
(20.1875 0.0174951 0)
(20.1228 0.0159937 0)
(20.0406 0.0144639 0)
(19.9476 0.0129732 0)
(19.8502 0.0115763 0)
(19.7535 0.0103042 0)
(19.6605 0.00916629 0)
(19.573 0.00815829 0)
(19.4918 0.00726913 0)
(19.417 0.00648537 0)
(19.3486 0.00579358 0)
(19.2862 0.00518137 0)
(19.2294 0.00463784 0)
(19.1777 0.00415353 0)
(19.1308 0.00372041 0)
(19.0882 0.00333163 0)
(19.0496 0.0029814 0)
(19.0145 0.0026648 0)
(18.9828 0.00237765 0)
(18.954 0.0021164 0)
(18.928 0.00187802 0)
(18.9046 0.00165991 0)
(18.8835 0.00145982 0)
(18.8645 0.00127584 0)
(18.8476 0.00110627 0)
(18.8324 0.000949687 0)
(18.8189 0.000804808 0)
(18.807 0.000670528 0)
(18.7966 0.000545868 0)
(18.7875 0.000429981 0)
(18.7796 0.000322118 0)
(18.7729 0.000221608 0)
(18.7673 0.000127836 0)
(18.7627 4.02192e-05 0)
(18.7591 -4.17027e-05 0)
(18.7564 -0.000118202 0)
(18.7545 -0.000189558 0)
(18.7533 -0.000256085 0)
(18.753 -0.000318044 0)
(18.7532 -0.000375663 0)
(18.7542 -0.000429126 0)
(18.7557 -0.000478577 0)
(18.7577 -0.000524132 0)
(18.7603 -0.000565865 0)
(18.7634 -0.000603829 0)
(18.7668 -0.000638062 0)
(18.7707 -0.000668577 0)
(18.7749 -0.000695372 0)
(18.7795 -0.000718447 0)
(18.7843 -0.000737763 0)
(18.7894 -0.000753291 0)
(18.7947 -0.000765007 0)
(18.8002 -0.000772862 0)
(18.8058 -0.000776857 0)
(18.8116 -0.000777026 0)
(18.8174 -0.000773528 0)
(18.8233 -0.000766681 0)
(18.8293 -0.000757083 0)
(18.8353 -0.00074561 0)
(18.8412 -0.000733373 0)
(18.8471 -0.000721923 0)
(18.8529 -0.000712549 0)
(18.8584 -0.000706792 0)
(18.8637 -0.000704418 0)
(18.8687 -0.0007037 0)
(18.8733 -0.00070018 0)
(18.8774 -0.000352517 0)
(20.0555 0.046039 0)
(20.1367 0.0267443 0)
(20.1836 0.0254815 0)
(20.2248 0.023741 0)
(20.2598 0.0224039 0)
(20.2863 0.0212858 0)
(20.3028 0.0202192 0)
(20.3068 0.019147 0)
(20.2955 0.0180268 0)
(20.2667 0.0168313 0)
(20.2202 0.0155621 0)
(20.1584 0.0142502 0)
(20.0856 0.0129428 0)
(20.0066 0.0116859 0)
(19.9257 0.0105116 0)
(19.846 0.00943648 0)
(19.7693 0.0084647 0)
(19.697 0.00759249 0)
(19.6294 0.00681222 0)
(19.5668 0.00611472 0)
(19.5091 0.00549069 0)
(19.4562 0.00493141 0)
(19.4076 0.00442896 0)
(19.3633 0.00397637 0)
(19.3228 0.00356754 0)
(19.2858 0.00319718 0)
(19.2522 0.00286071 0)