/*--------------------------------*- C++ -*----------------------------------*\
  =========                 |
  \\      /  F ield         | OpenFOAM: The Open Source CFD Toolbox
   \\    /   O peration     | Website:  https://openfoam.org
    \\  /    A nd           | Version:  7
     \\/     M anipulation  |
\*---------------------------------------------------------------------------*/
FoamFile
{
    version     2.0;
    format      ascii;
    class       volScalarField;
    location    "7.6";
    object      p;
}
// * * * * * * * * * * * * * * * * * * * * * * * * * * * * * * * * * * * * * //

dimensions      [0 2 -2 0 0 0 0];

internalField   nonuniform List<scalar> 
900
(
5.92646e-07
-0.000342326
-0.000902439
-0.00150253
-0.00203606
-0.00243958
-0.00268048
-0.00274309
-0.00261822
-0.00229862
-0.0017786
-0.0010563
-0.000137539
0.000959984
0.00220314
0.00354133
0.00490669
0.00621744
0.00738439
0.0083203
0.00895113
0.00922765
0.00913521
0.00869973
0.00798897
0.0071068
0.00618199
0.00537228
0.00483426
0.0046945
0.000341759
-1.42371e-05
-0.000442234
-0.00088275
-0.00127227
-0.00156523
-0.001736
-0.0017697
-0.00165586
-0.00138613
-0.000954265
-0.000357927
0.000398482
0.00130062
0.0023213
0.00341868
0.00453859
0.00561322
0.00656974
0.00733723
0.00785612
0.00808788
0.00802301
0.00768537
0.00713211
0.0064487
0.00573887
0.00510568
0.00468026
0.00455245
0.000924325
0.000399398
-4.33168e-05
-0.00043824
-0.000771884
-0.00101701
-0.00115879
-0.00118815
-0.00109666
-0.00087576
-0.000517596
-1.70708e-05
0.000625271
0.00140001
0.00228597
0.00324885
0.00423972
0.00519817
0.00605711
0.00675002
0.00722018
0.00743028
0.00737022
0.00706127
0.00655526
0.00592863
0.00527249
0.00468025
0.00424529
0.00403116
0.00157253
0.000819694
0.000298741
-0.000107407
-0.000431884
-0.000665389
-0.000805489
-0.0008509
-0.000796411
-0.000633277
-0.000351039
5.98151e-05
0.000604441
0.00127988
0.00207155
0.00295076
0.00387321
0.00478103
0.00560723
0.00628304
0.00674772
0.00695893
0.00690149
0.00659226
0.0060793
0.00543521
0.00474698
0.0041043
0.00357854
0.00320824
0.00214606
0.00114813
0.000526165
8.30748e-05
-0.00025804
-0.000504359
-0.000665381
-0.00074742
-0.000748124
-0.000657894
-0.000462608
-0.000146983
0.00030132
0.000887146
0.00160335
0.00242716
0.00331853
0.00422002
0.00506169
0.00576839
0.00627033
0.00651486
0.00647702
0.00616597
0.00562507
0.00492511
0.00415426
0.00340622
0.00274309
0.00216136
0.00252583
0.00128544
0.000553811
5.7989e-05
-0.000319585
-0.000600903
-0.000806085
-0.00094789
-0.00102578
-0.00102824
-0.000936273
-0.00072743
-0.000380667
0.00011823
0.000770979
0.00156177
0.00245511
0.00339324
0.0043014
0.00509459
0.00568901
0.00601575
0.00603385
0.00573959
0.00516873
0.0043907
0.00349918
0.00259949
0.00175185
0.00092023
0.00260806
0.00114028
0.00029932
-0.000258391
-0.000688009
-0.00102488
-0.00129823
-0.00152582
-0.00170764
-0.001829
-0.00186475
-0.00178378
-0.00155459
-0.00115154
-0.000561887
0.000207622
0.0011285
0.00214301
0.00317111
0.00411538
0.0048731
0.00535202
0.00548693
0.00525332
0.00467364
0.00381417
0.00277733
0.00168787
0.000612897
-0.000510741
0.00230111
0.000628779
-0.000315487
-0.000940037
-0.00143474
-0.00184714
-0.00221425
-0.00255743
-0.00287595
-0.00315085
-0.00334955
-0.00343074
-0.00335039
-0.00306881
-0.00255896
-0.00181497
-0.00085312
0.000270389
0.00147199
0.00264071
0.00365031
0.0043771
0.00472079
0.00462439
0.00408725
0.00316723
0.00197669
0.000667594
-0.000677266
-0.0021457
0.00152361
-0.000324862
-0.00136324
-0.00205782
-0.00263012
-0.00313904
-0.00362824
-0.00412164
-0.00461695
-0.00509008
-0.00549999
-0.00579368
-0.00591234
-0.00579897
-0.00540706
-0.00471033
-0.00371642
-0.00246499
-0.00104095
0.000431746
0.00179993
0.00289974
0.00358223
0.00374156
0.00333829
0.00241107
0.00107993
-0.000468835
-0.00212775
-0.00400869
0.00020546
-0.00178593
-0.00290737
-0.00367487
-0.00433798
-0.00496621
-0.00560919
-0.00629278
-0.00701277
-0.00773965
-0.00842335
-0.00899795
-0.00938759
-0.0095142
-0.00930689
-0.00871335
-0.00771741
-0.00633988
-0.00465769
-0.00280261
-0.000955317
0.000672349
0.00186722
0.00245294
0.00232778
0.00149195
6.45542e-05
-0.0017287
-0.00374623
-0.00612446
-0.00170917
-0.003806
-0.0049982
-0.00584161
-0.00660956
-0.00738154
-0.00821277
-0.00913102
-0.0101305
-0.0111765
-0.0122102
-0.013152
-0.013907
-0.0143725
-0.0144475
-0.0140462
-0.0131151
-0.0116465
-0.00969674
-0.00739526
-0.00494576
-0.00261228
-0.000687588
0.000555281
0.000919466
0.000335502
-0.00109769
-0.00311511
-0.00553185
-0.00850933
-0.0042582
-0.00641951
-0.0076691
-0.00859115
-0.0094778
-0.010418
-0.0114726
-0.0126718
-0.0140091
-0.0154462
-0.0169158
-0.0183253
-0.0195594
-0.0204877
-0.0209738
-0.0208892
-0.0201323
-0.0186523
-0.0164672
-0.0136885
-0.0105306
-0.00730697
-0.00440081
-0.00220946
-0.00106668
-0.00115825
-0.00244125
-0.0046224
-0.00746689
-0.0111609
-0.00745804
-0.00964084
-0.0109333
-0.0119351
-0.0129519
-0.0140816
-0.0153913
-0.0169146
-0.0186463
-0.0205458
-0.0225398
-0.0245233
-0.0263611
-0.0278931
-0.0289432
-0.0293324
-0.0288994
-0.0275395
-0.0252072
-0.0219744
-0.0180458
-0.0137697
-0.00962048
-0.00614227
-0.00385249
-0.00311632
-0.00400571
-0.00622997
-0.0095063
-0.0140454
-0.011301
-0.0134625
-0.0147818
-0.0158609
-0.0170132
-0.0183457
-0.0199327
-0.0218131
-0.0239849
-0.0264083
-0.0290062
-0.0316635
-0.0342264
-0.0365052
-0.0382819
-0.039324
-0.039407
-0.0383358
-0.0360031
-0.0324105
-0.0277214
-0.0222905
-0.0166669
-0.0115496
-0.00768219
-0.00568462
-0.00583027
-0.00789293
-0.0115635
-0.01708
-0.0157543
-0.017855
-0.0191833
-0.0203306
-0.021613
-0.0231473
-0.0250166
-0.0272677
-0.0299047
-0.0328913
-0.03615
-0.0395583
-0.0429464
-0.0460971
-0.0487513
-0.0506207
-0.0514087
-0.0508386
-0.0487082
-0.0449259
-0.0395798
-0.0329898
-0.0257417
-0.0186727
-0.0127762
-0.00900253
-0.00793886
-0.00952734
-0.0134911
-0.0201107
-0.020762
-0.0227698
-0.0240871
-0.0252833
-0.0266735
-0.0283864
-0.0305171
-0.0331233
-0.0362188
-0.0397742
-0.0437141
-0.0479122
-0.0521857
-0.0562935
-0.0599388
-0.0627805
-0.0644511
-0.0645859
-0.0628879
-0.0591466
-0.0533415
-0.0457092
-0.0368151
-0.0275855
-0.0192528
-0.0131524
-0.0103102
-0.010987
-0.0150545
-0.0228815
-0.0262491
-0.0281449
-0.0294283
-0.0306394
-0.0320915
-0.0339295
-0.0362656
-0.0391733
-0.0426798
-0.0467654
-0.0513601
-0.056336
-0.0615006
-0.0665926
-0.0712828
-0.075183
-0.0778619
-0.0788703
-0.0778225
-0.0743751
-0.0683755
-0.059932
-0.0495214
-0.0380807
-0.0270237
-0.0180812
-0.0128266
-0.012028
-0.0158976
-0.0249952
-0.0321298
-0.0339142
-0.0351373
-0.0363088
-0.0377452
-0.0396157
-0.0420582
-0.0451688
-0.0489921
-0.0535213
-0.058693
-0.0643795
-0.0703804
-0.0764176
-0.0821345
-0.0871034
-0.0908431
-0.0928472
-0.0925855
-0.0896482
-0.0837293
-0.0747735
-0.0631055
-0.0495789
-0.0356867
-0.0235006
-0.0152013
-0.0122582
-0.0154971
-0.0258645
-0.0383193
-0.0400209
-0.0411514
-0.0422006
-0.0435024
-0.0452652
-0.0476661
-0.0508326
-0.0548323
-0.0596726
-0.0652969
-0.0715769
-0.0783045
-0.0851863
-0.0918422
-0.0978115
-0.102569
-0.105547
-0.106158
-0.103871
-0.09825
-0.0890693
-0.0764604
-0.061106
-0.0444515
-0.0287903
-0.0168876
-0.0110691
-0.0131057
-0.0246497
-0.0447501
-0.0464366
-0.0474308
-0.048234
-0.0492285
-0.0506874
-0.0528465
-0.0558765
-0.0598722
-0.0648558
-0.0707753
-0.0774979
-0.0848052
-0.0923872
-0.0998412
-0.106678
-0.112336
-0.116201
-0.117631
-0.116005
-0.110772
-0.10155
-0.0882637
-0.0713681
-0.0521413
-0.0329366
-0.0169902
-0.00755334
-0.00768058
-0.020175
-0.0513981
-0.0531865
-0.0539758
-0.0543476
-0.0547925
-0.0556877
-0.0573538
-0.0600174
-0.0638035
-0.0687457
-0.0747911
-0.0817944
-0.0895214
-0.097641
-0.105726
-0.11326
-0.119646
-0.124229
-0.126321
-0.12523
-0.120313
-0.111052
-0.0971828
-0.0789183
-0.0572884
-0.0345424
-0.0142045
-0.000413547
0.00220681
-0.0108101
-0.0583262
-0.0603891
-0.060849
-0.0605067
-0.0600678
-0.0600701
-0.0609482
-0.0629945
-0.0663607
-0.0710816
-0.0771005
-0.084236
-0.092236
-0.100739
-0.109287
-0.117341
-0.124259
-0.12934
-0.131855
-0.131054
-0.126211
-0.116695
-0.102085
-0.0823718
-0.0583106
-0.031923
-0.00681428
0.0121154
0.0184807
0.00571414
-0.0657714
-0.068318
-0.0682015
-0.0667059
-0.0649292
-0.0636385
-0.0634052
-0.0645856
-0.0673431
-0.0716899
-0.0775831
-0.0847341
-0.0928966
-0.101665
-0.110539
-0.118932
-0.12617
-0.131512
-0.13417
-0.133325
-0.128174
-0.117983
-0.102194
-0.0806157
-0.0537307
-0.0232856
0.00722463
0.0323047
0.0437085
0.0326082
-0.074331
-0.0775093
-0.0763069
-0.0729688
-0.0692479
-0.0662002
-0.0645291
-0.0646285
-0.0666449
-0.0705514
-0.0762042
-0.0833338
-0.0915968
-0.100544
-0.10963
-0.118222
-0.125597
-0.130959
-0.133453
-0.132184
-0.126249
-0.114808
-0.0971694
-0.0729813
-0.0424245
-0.00702271
0.0300566
0.0628895
0.0813167
0.074513
-0.0853869
-0.0889477
-0.0855951
-0.0793391
-0.0728873
-0.067575
-0.0641714
-0.0630403
-0.0642527
-0.0676942
-0.0731287
-0.0802239
-0.0885619
-0.0976359
-0.106849
-0.115514
-0.122854
-0.128007
-0.130039
-0.127963
-0.12075
-0.107428
-0.0871384
-0.0593196
-0.0239754
0.0178364
0.0634304
0.10683
0.135767
0.138006
-0.102096
-0.104402
-0.0966586
-0.0858408
-0.0756793
-0.0675846
-0.0622239
-0.0598084
-0.0602472
-0.0632838
-0.0685644
-0.0756616
-0.0840807
-0.0932514
-0.102521
-0.111147
-0.118295
-0.123035
-0.12435
-0.121149
-0.112235
-0.096485
-0.0728114
-0.0403692
0.00118708
0.0512942
0.107948
0.166518
0.212099
0.231537
-0.131605
-0.126949
-0.110291
-0.0924731
-0.0774028
-0.0660213
-0.0585823
-0.0549495
-0.0547541
-0.0575302
-0.0627725
-0.0699455
-0.0784733
-0.0877234
-0.0969908
-0.105484
-0.112317
-0.116497
-0.116931
-0.112418
-0.101611
-0.0831628
-0.0556964
-0.0179441
0.031043
0.0915925
0.163094
0.241966
0.314179
0.36675
-0.190031
-0.160132
-0.127004
-0.0988291
-0.0774035
-0.0623516
-0.0529559
-0.0484033
-0.0478855
-0.0506619
-0.0560569
-0.0634272
-0.0721266
-0.0814744
-0.0907285
-0.0990641
-0.105557
-0.109168
-0.108739
-0.102972
-0.0904958
-0.0696411
-0.0386955
0.00417891
0.0609169
0.133447
0.223596
0.330677
0.444152
0.570443
-0.321204
-0.199918
-0.13854
-0.0973789
-0.0698386
-0.0523557
-0.0424411
-0.0382012
-0.0382855
-0.0417217
-0.0477351
-0.055637
-0.0647614
-0.0744202
-0.0838696
-0.0922843
-0.0987383
-0.102185
-0.101442
-0.0950631
-0.0817989
-0.0597729
-0.026982
0.0189747
0.0812201
0.16412
0.274149
0.419824
0.608156
0.897676
-0.648567
-0.236394
-0.107112
-0.0624115
-0.0379823
-0.0243392
-0.0185775
-0.0180549
-0.0211122
-0.0268548
-0.0346715
-0.0440108
-0.0543103
-0.0649619
-0.075284
-0.084499
-0.0917179
-0.0959299
-0.0960144
-0.0908112
-0.0784888
-0.0575037
-0.0258464
0.0190905
0.0810093
0.166137
0.286915
0.471678
0.777819
1.37167
)
;

boundaryField
{
    movingWall
    {
        type            zeroGradient;
    }
    fixedWalls
    {
        type            zeroGradient;
    }
    frontAndBack
    {
        type            empty;
    }
}


// ************************************************************************* //
