/*--------------------------------*- C++ -*----------------------------------*\
  =========                 |
  \\      /  F ield         | OpenFOAM: The Open Source CFD Toolbox
   \\    /   O peration     | Website:  https://openfoam.org
    \\  /    A nd           | Version:  7
     \\/     M anipulation  |
\*---------------------------------------------------------------------------*/
FoamFile
{
    version     2.0;
    format      ascii;
    class       surfaceScalarField;
    location    "8.3";
    object      phi;
}
// * * * * * * * * * * * * * * * * * * * * * * * * * * * * * * * * * * * * * //

dimensions      [0 3 -1 0 0 0 0];

internalField   nonuniform List<scalar> 
1740
(
8.33687e-07
-8.33794e-07
5.0076e-07
3.32883e-07
-1.43379e-06
1.93453e-06
-4.80474e-06
3.37097e-06
-9.2615e-06
4.45679e-06
-1.44512e-05
5.18972e-06
-2.00766e-05
5.62539e-06
-2.58957e-05
5.81913e-06
-3.16999e-05
5.80413e-06
-3.72889e-05
5.58902e-06
-4.2453e-05
5.16414e-06
-4.69644e-05
4.51136e-06
-5.05794e-05
3.61503e-06
-5.30519e-05
2.47253e-06
-5.41553e-05
1.1034e-06
-5.37102e-05
-4.45114e-07
-5.16159e-05
-2.09433e-06
-4.78801e-05
-3.73579e-06
-4.26413e-05
-5.2388e-06
-3.61777e-05
-6.46356e-06
-2.88996e-05
-7.27807e-06
-2.13217e-05
-7.57791e-06
-1.40168e-05
-7.30495e-06
-7.55516e-06
-6.46162e-06
-2.43662e-06
-5.11854e-06
9.82973e-07
-3.41959e-06
2.56356e-06
-1.58058e-06
2.42723e-06
1.36331e-07
1.15184e-06
1.2754e-06
1.15184e-06
-3.15859e-07
-5.17983e-07
-3.51345e-06
3.53049e-06
-1.01809e-05
8.60201e-06
-1.99385e-05
1.31286e-05
-3.21305e-05
1.66488e-05
-4.6039e-05
1.90982e-05
-6.09847e-05
2.05711e-05
-7.63514e-05
2.11859e-05
-9.15678e-05
2.10205e-05
-0.000106076
2.00969e-05
-0.000119305
1.83939e-05
-0.000130668
1.58742e-05
-0.000139569
1.25153e-05
-0.000145436
8.3405e-06
-0.000147776
3.44331e-06
-0.000146232
-1.98932e-06
-0.000140632
-7.69494e-06
-0.000131063
-1.3304e-05
-0.000117903
-1.83993e-05
-0.000101826
-2.25401e-05
-8.37875e-05
-2.53168e-05
-6.49567e-05
-2.64088e-05
-4.66206e-05
-2.5641e-05
-3.00531e-05
-2.30291e-05
-1.6367e-05
-1.88046e-05
-6.36558e-06
-1.34211e-05
-3.96348e-07
-7.54981e-06
1.84522e-06
-2.10524e-06
1.3332e-06
1.78743e-06
2.48505e-06
-2.10292e-06
1.58492e-06
-9.21716e-06
1.06448e-05
-2.12032e-05
2.05881e-05
-3.73865e-05
2.93118e-05
-5.68496e-05
3.61119e-05
-7.86167e-05
4.08653e-05
-0.000101743
4.36972e-05
-0.000125337
4.47798e-05
-0.000148544
4.42282e-05
-0.000170521
4.20735e-05
-0.000190411
3.82837e-05
-0.000207347
3.28105e-05
-0.000220476
2.56446e-05
-0.000229005
1.68694e-05
-0.000232268
6.70584e-06
-0.000229795
-4.46251e-06
-0.000221397
-1.60927e-05
-0.000207229
-2.74714e-05
-0.000187836
-3.77928e-05
-0.000164161
-4.62153e-05
-0.00013752
-5.1958e-05
-0.000109521
-5.44069e-05
-8.19416e-05
-5.32209e-05
-5.65523e-05
-4.84184e-05
-3.49257e-05
-4.04312e-05
-1.82274e-05
-3.01193e-05
-7.02129e-06
-1.8756e-05
-1.12833e-06
-7.99819e-06
5.46322e-07
1.12784e-07
3.03137e-06
-4.02935e-06
5.61428e-06
-1.53295e-05
2.1945e-05
-3.2882e-05
3.81407e-05
-5.55113e-05
5.19411e-05
-8.19826e-05
6.25832e-05
-0.000111084
6.99667e-05
-0.000141664
7.4277e-05
-0.000172628
7.57435e-05
-0.000202912
7.45127e-05
-0.000231457
7.06189e-05
-0.000257192
6.40186e-05
-0.000279042
5.46597e-05
-0.000295959
4.25623e-05
-0.000306986
2.78961e-05
-0.000311322
1.10421e-05
-0.00030841
-7.37498e-06
-0.000298019
-2.64836e-05
-0.000280321
-4.51695e-05
-0.00025594
-6.21734e-05
-0.000225975
-7.61801e-05
-0.000191975
-8.59584e-05
-0.000155859
-9.05225e-05
-0.000119784
-8.92962e-05
-8.59465e-05
-8.22559e-05
-5.63523e-05
-7.00255e-05
-3.25644e-05
-5.39071e-05
-1.54719e-05
-3.58485e-05
-5.10973e-06
-1.83603e-05
-5.83732e-07
-4.41321e-06
2.44764e-06
-5.90173e-06
1.1516e-05
-2.13748e-05
3.7418e-05
-4.44691e-05
6.1235e-05
-7.34236e-05
8.08955e-05
-0.00010664
9.57996e-05
-0.00014267
0.000105997
-0.000180188
0.000111795
-0.000217948
0.000113503
-0.000254736
0.000111301
-0.000289341
0.000105224
-0.000320538
9.52151e-05
-0.000347097
8.12189e-05
-0.000367826
6.32909e-05
-0.000381625
4.16954e-05
-0.000387568
1.6985e-05
-0.000384985
-9.95733e-06
-0.000373553
-3.79164e-05
-0.000353377
-6.5345e-05
-0.000325064
-9.04867e-05
-0.000289755
-0.000111488
-0.00024913
-0.000126584
-0.000205338
-0.000134314
-0.000160875
-0.00013376
-0.000118366
-0.000124764
-8.03066e-05
-0.000108085
-4.87544e-05
-8.54594e-05
-2.50495e-05
-5.95534e-05
-9.60086e-06
-3.3809e-05
-1.79054e-06
-1.22235e-05
6.57111e-07
-7.65373e-06
1.91698e-05
-2.71169e-05
5.68812e-05
-5.55359e-05
8.9654e-05
-9.05499e-05
0.00011591
-0.000130184
0.000135434
-0.000172759
0.000148572
-0.000216799
0.000155835
-0.000260945
0.000157649
-0.000303887
0.000154243
-0.000344314
0.000145651
-0.000380898
0.000131799
-0.000412299
0.000112621
-0.000437208
8.8199e-05
-0.000454393
5.88812e-05
-0.000462785
2.53767e-05
-0.000461557
-1.11854e-05
-0.000450214
-4.92594e-05
-0.000428702
-8.68567e-05
-0.000397493
-0.000121696
-0.000357659
-0.000151323
-0.000310907
-0.000173336
-0.000259557
-0.000185664
-0.000206425
-0.000186892
-0.000154616
-0.000176573
-0.000107218
-0.000155483
-6.69336e-05
-0.000125744
-3.5718e-05
-9.07689e-05
-1.44993e-05
-5.50276e-05
-3.04582e-06
-2.3677e-05
-2.3887e-06
-9.25685e-06
2.84266e-05
-3.24159e-05
8.00403e-05
-6.57957e-05
0.000123034
-0.000106468
0.000156582
-0.000152099
0.000181065
-0.000200795
0.000197268
-0.000250955
0.000205995
-0.000301146
0.00020784
-0.000350002
0.000203099
-0.000396162
0.000191811
-0.000438239
0.000173875
-0.00047482
0.000149202
-0.000504495
0.000117875
-0.000525907
8.02929e-05
-0.000537813
3.72824e-05
-0.000539177
-9.82077e-06
-0.000529251
-5.91861e-05
-0.000507712
-0.000108396
-0.000474774
-0.000154633
-0.000431311
-0.000194786
-0.000378945
-0.000225702
-0.000320084
-0.000244525
-0.000257851
-0.000249125
-0.000195883
-0.00023854
-0.000137994
-0.000213372
-8.77185e-05
-0.000176019
-4.78374e-05
-0.00013065
-1.99765e-05
-8.28885e-05
-4.39991e-06
-3.92537e-05
-6.78861e-06
-1.06857e-05
3.91123e-05
-3.71586e-05
0.000106513
-7.50105e-05
0.000160886
-0.00012081
0.000202382
-0.000171902
0.000232157
-0.000226209
0.000251574
-0.000282035
0.000261822
-0.000337907
0.000263712
-0.000392443
0.000257635
-0.000444274
0.000243642
-0.000491994
0.000221595
-0.000534151
0.000191359
-0.000569258
0.000152982
-0.000595829
0.000106863
-0.000612428
5.38814e-05
-0.000617767
-4.4816e-06
-0.000610759
-6.61936e-05
-0.000590716
-0.000128439
-0.000557462
-0.000187887
-0.000511524
-0.000240724
-0.000454299
-0.000282927
-0.000388163
-0.000310661
-0.000316485
-0.000320803
-0.000243465
-0.000311561
-0.000173771
-0.000283066
-0.000111993
-0.000237797
-6.19961e-05
-0.000180647
-2.63434e-05
-0.000118541
-5.95134e-06
-5.96457e-05
-1.27399e-05
-1.19078e-05
5.10202e-05
-4.12271e-05
0.000135832
-8.29444e-05
0.000202603
-0.000133208
0.000252646
-0.000189095
0.000288045
-0.00024838
0.000310859
-0.000309307
0.000322748
-0.000370391
0.000324796
-0.000430274
0.000317518
-0.000487617
0.000300985
-0.000541036
0.000275014
-0.000589074
0.000239396
-0.000630192
0.000194101
-0.000662792
0.000139462
-0.000685244
7.63339e-05
-0.000695957
6.2314e-06
-0.000693492
-6.86582e-05
-0.000676681
-0.00014525
-0.000644836
-0.000219732
-0.000597981
-0.000287579
-0.0005371
-0.000343808
-0.000464365
-0.000383397
-0.000383255
-0.000401913
-0.000298492
-0.000396323
-0.000215695
-0.000365863
-0.000140737
-0.000312755
-7.88892e-05
-0.000242495
-3.39788e-05
-0.000163452
-7.81997e-06
-8.58045e-05
-2.05599e-05
-1.28843e-05
6.39045e-05
-4.44952e-05
0.000167443
-8.93543e-05
0.000247462
-0.000143284
0.000306575
-0.000203154
0.000347915
-0.000266631
0.000374336
-0.000331926
0.000388042
-0.000397576
0.000390446
-0.000462277
0.00038222
-0.000524756
0.000363464
-0.000583692
0.000333949
-0.000637661
0.000293365
-0.000685114
0.000241554
-0.00072437
0.000178718
-0.000753632
0.000105596
-0.000771019
2.36191e-05
-0.00077471
-6.49678e-05
-0.00076301
-0.00015695
-0.000734618
-0.000248124
-0.000688891
-0.000333306
-0.000626185
-0.000406513
-0.000548215
-0.000461367
-0.000458335
-0.000491793
-0.000361638
-0.00049302
-0.000264699
-0.000462802
-0.000174879
-0.000402575
-9.92324e-05
-0.000318142
-4.32893e-05
-0.000219395
-1.01351e-05
-0.000118959
-3.06951e-05
-1.35745e-05
7.7479e-05
-4.68374e-05
0.000200706
-9.40019e-05
0.000294626
-0.000150665
0.000363239
-0.000213552
0.000410801
-0.000280254
0.000441039
-0.000348977
0.000456765
-0.000418305
0.000459774
-0.000487013
0.000450927
-0.000553928
0.000430379
-0.000617829
0.00039785
-0.000677375
0.000352911
-0.000731057
0.000295237
-0.000777171
0.000224832
-0.000813806
0.00014223
-0.000838864
4.86771e-05
-0.000850143
-5.36882e-05
-0.000845443
-0.00016165
-0.000822785
-0.000270782
-0.000780721
-0.00037537
-0.000718749
-0.000468486
-0.000637807
-0.000542309
-0.000540772
-0.000588828
-0.000432796
-0.000600997
-0.000321265
-0.000574333
-0.000215151
-0.000508689
-0.00012369
-0.000409603
-5.46819e-05
-0.000288402
-1.30309e-05
-0.00016061
-4.3726e-05
-1.39429e-05
9.14219e-05
-4.81456e-05
0.000234909
-9.66799e-05
0.000343161
-0.00015502
0.000421579
-0.0002198
0.000475581
-0.000288571
0.00050981
-0.00035955
0.000527744
-0.000431379
0.000531604
-0.000502938
0.000522485
-0.00057318
0.000500622
-0.000641025
0.000465695
-0.000705264
0.00041715
-0.000764496
0.000354469
-0.000817073
0.000277409
-0.000861067
0.000186224
-0.000894259
8.18693e-05
-0.000914169
-3.37781e-05
-0.000918156
-0.000157663
-0.000903573
-0.000285365
-0.000868083
-0.00041086
-0.000810115
-0.000526453
-0.000729484
-0.00062294
-0.000628117
-0.000690195
-0.000510731
-0.000718382
-0.000385157
-0.000699907
-0.000261918
-0.000631929
-0.000152792
-0.000518728
-6.85397e-05
-0.000372655
-1.66438e-05
-0.000212506
-6.03698e-05
-1.39665e-05
0.000105388
-4.83494e-05
0.000269292
-9.72476e-05
0.000392059
-0.000156107
0.000480438
-0.00022152
0.000540994
-0.000291018
0.000579308
-0.000362837
0.000599563
-0.000435691
0.000604458
-0.000508572
0.000595365
-0.000580585
0.000572635
-0.000650825
0.000535935
-0.000718271
0.000484597
-0.000781703
0.000417901
-0.000839631
0.000335336
-0.000890232
0.000236825
-0.000931312
0.000122949
-0.000960259
-4.83058e-06
-0.000974154
-0.000143769
-0.000969768
-0.000289752
-0.000943887
-0.000436741
-0.000893736
-0.000576605
-0.000817673
-0.000699003
-0.000716144
-0.000791724
-0.000592752
-0.000841774
-0.000455121
-0.000837538
-0.000314979
-0.000772071
-0.000186841
-0.000646866
-8.5191e-05
-0.000474305
-2.11098e-05
-0.000276587
-8.14796e-05
-1.36429e-05
0.000119031
-4.74397e-05
0.000303089
-9.56709e-05
0.00044029
-0.000153834
0.000538601
-0.000218515
0.000605676
-0.000287241
0.000648033
-0.000358269
0.000670592
-0.000430384
0.000676573
-0.000502699
0.000667681
-0.00057449
0.000644425
-0.000645058
0.000606504
-0.000713623
0.000553161
-0.000779222
0.0004835
-0.000840628
0.000396743
-0.000896266
0.000292463
-0.00094413
0.000170814
-0.000981726
3.27651e-05
-0.00100599
-0.000119504
-0.00101336
-0.000282378
-0.000999875
-0.00045023
-0.000961533
-0.000614947
-0.000895013
-0.000765523
-0.000798761
-0.000887975
-0.000674465
-0.00096607
-0.000528597
-0.000983407
-0.000373328
-0.00092734
-0.000225779
-0.000794415
-0.000104868
-0.000595216
-2.65597e-05
-0.000354895
-0.000108039
-1.29983e-05
0.00013203
-4.5493e-05
0.000335583
-9.20651e-05
0.000486862
-0.000148318
0.000594854
-0.000210856
0.000668213
-0.000277201
0.000714378
-0.000345636
0.000739027
-0.000415017
0.000745954
-0.000484582
0.000737246
-0.000553791
0.000713634
-0.000622182
0.000674895
-0.000689261
0.00062024
-0.000754393
0.000548633
-0.000816717
0.000459066
-0.000875038
0.000350784
-0.000927727
0.000223503
-0.000972598
7.76362e-05
-0.00100675
-8.53512e-05
-0.00102655
-0.000262578
-0.00102753
-0.000449247
-0.00100466
-0.000637824
-0.000952871
-0.000817309
-0.000868243
-0.000972603
-0.000749742
-0.00108457
-0.00060151
-0.00113164
-0.000434928
-0.00109392
-0.000269039
-0.000960304
-0.000127652
-0.000736602
-3.31114e-05
-0.000449436
-0.000141151
-1.20952e-05
0.000144125
-4.26944e-05
0.000366183
-8.67373e-05
0.000530905
-0.000139948
0.000648064
-0.00019895
0.000727216
-0.000261268
0.000776696
-0.00032521
0.000802969
-0.000389708
0.000810452
-0.000454139
0.000801677
-0.000518161
0.000777656
-0.000581576
0.00073831
-0.000644212
0.000682876
-0.000705822
0.000610243
-0.000765989
0.000519233
-0.000824016
0.000408811
-0.000878803
0.00027829
-0.000928684
0.000127517
-0.000971164
-4.28703e-05
-0.00100291
-0.00023083
-0.00101932
-0.000432844
-0.00101463
-0.000642511
-0.000982287
-0.000849651
-0.000915873
-0.00103902
-0.000811008
-0.00118944
-0.000668254
-0.00127439
-0.000496529
-0.00126565
-0.000315389
-0.00114144
-0.00015341
-0.000898582
-4.08602e-05
-0.000561986
-0.000182011
-1.10401e-05
0.000155165
-3.93624e-05
0.000394505
-8.02272e-05
0.00057177
-0.000129436
0.000697273
-0.000183615
0.000781395
-0.000240292
0.000833373
-0.000297821
0.000860498
-0.000355234
0.000867864
-0.000412066
0.000858509
-0.000468202
0.000833791
-0.000523729
0.000793838
-0.000578832
0.000737979
-0.000633688
0.0006651
-0.000688376
0.000573921
-0.00074277
0.000463205
-0.000796401
0.000331921
-0.000848303
0.000179419
-0.000896564
5.39031e-06
-0.000938558
-0.000188836
-0.000969894
-0.000401508
-0.00098465
-0.000627754
-0.000975225
-0.000859076
-0.000932972
-0.00108127
-0.000849911
-0.0012725
-0.000721957
-0.00140235
-0.000553634
-0.00143397
-0.000362805
-0.00133227
-0.000181728
-0.00107966
-4.98731e-05
-0.000693841
-0.000231884
-9.99366e-06
0.000165158
-3.59773e-05
0.000420488
-7.33503e-05
0.000609143
-0.000117867
0.00074179
-0.000166116
0.000829644
-0.000215645
0.000882902
-0.000264898
0.000909751
-0.000313055
0.000916022
-0.000359863
0.000905317
-0.000405465
0.000879393
-0.000450271
0.000838644
-0.000494842
0.000782549
-0.000539798
0.000710055
-0.00058573
0.000619853
-0.000633104
0.000510578
-0.000682125
0.000380943
-0.000732537
0.00022983
-0.000783533
5.63864e-05
-0.000832857
-0.000139512
-0.000877126
-0.000357238
-0.000910767
-0.000594114
-0.000925837
-0.000844006
-0.000912118
-0.00109499
-0.0008583
-0.00132632
-0.000755056
-0.00150559
-0.000600659
-0.00158837
-0.000408406
-0.00152452
-0.00021187
-0.0012762
-6.01933e-05
-0.000845518
-0.000292077
-9.18795e-06
0.000174346
-3.32238e-05
0.000444524
-6.72519e-05
0.000643171
-0.000106748
0.000781286
-0.000148201
0.000871097
-0.000189223
0.000923924
-0.000228434
0.000948962
-0.000265262
0.00095285
-0.000299741
0.000939796
-0.000332338
0.00091199
-0.000363817
0.000870123
-0.000395135
0.000813867
-0.000427355
0.000742274
-0.000461566
0.000654064
-0.000498801
0.000547813
-0.000539917
0.000422059
-0.000585432
0.000275345
-0.000635301
0.000106256
-0.00068842
-8.63931e-05
-0.000742343
-0.000303314
-0.00079247
-0.000543988
-0.000831357
-0.000805119
-0.000848218
-0.00107813
-0.000829271
-0.00134526
-0.000760077
-0.00157478
-0.000631305
-0.00171714
-0.000448497
-0.00170733
-0.000242754
-0.00148194
-7.18693e-05
-0.0010164
-0.000363946
-8.96217e-06
0.000183309
-3.20636e-05
0.000467626
-6.34856e-05
0.000674593
-9.80586e-05
0.000815859
-0.000132105
0.000905143
-0.0001634
0.000955219
-0.0001909
0.000976461
-0.000214429
0.000976379
-0.000234431
0.000959798
-0.000251777
0.000929336
-0.000267631
0.000885978
-0.000283357
0.000829593
-0.000300441
0.000759358
-0.000320427
0.00067405
-0.000344847
0.000572233
-0.000375129
0.000452341
-0.000412468
0.000312684
-0.00045759
0.000151378
-0.000510459
-3.35241e-05
-0.000569822
-0.000243952
-0.000632466
-0.000481343
-0.000692254
-0.000745332
-0.000739028
-0.00103135
-0.000757929
-0.00132636
-0.000730392
-0.00160232
-0.000639027
-0.0018085
-0.000478682
-0.00186768
-0.000272949
-0.00168767
-8.50169e-05
-0.00120433
-0.000448963
-9.83538e-06
0.000193144
-3.38672e-05
0.000491658
-6.41345e-05
0.00070486
-9.43085e-05
0.000846033
-0.000120523
0.000931357
-0.000140922
0.000975618
-0.000155046
0.000990585
-0.000163343
0.000984677
-0.000166829
0.000963284
-0.000166879
0.000929386
-0.000165105
0.000884204
-0.000163275
0.000827764
-0.000163262
0.000759345
-0.00016699
0.000677778
-0.000176402
0.000581645
-0.000193357
0.000469296
-0.000219666
0.000338993
-0.000256641
0.000188353
-0.000305211
1.50458e-05
-0.000365355
-0.000183808
-0.000435498
-0.0004112
-0.000511443
-0.000669387
-0.000584853
-0.000957943
-0.000641529
-0.00126969
-0.000660604
-0.00158325
-0.000617379
-0.00185173
-0.000493955
-0.0019911
-0.000300638
-0.00188099
-9.99124e-05
-0.00140506
-0.000548876
-1.26507e-05
0.000205795
-4.06358e-05
0.000519643
-7.19739e-05
0.000736198
-9.85632e-05
0.000872623
-0.000116481
0.000949275
-0.000124621
0.000983759
-0.000123506
0.000989469
-0.000114504
0.000975675
-9.9401e-05
0.000948181
-8.01823e-05
0.000910167
-5.89465e-05
0.000862968
-3.78486e-05
0.000806666
-1.91009e-05
0.000740598
-4.94894e-06
0.000663626
2.40072e-06
0.000574296
7.42821e-07
0.000470954
-1.18141e-05
0.00035155
-3.74983e-05
0.000214038
-7.79314e-05
5.54788e-05
-0.000134207
-0.000127532
-0.000206406
-0.000339001
-0.000292637
-0.000583156
-0.000387352
-0.000863228
-0.000478816
-0.00117822
-0.000546334
-0.00151573
-0.000559991
-0.00183807
-0.000488575
-0.00206252
-0.000323419
-0.00204614
-0.000117067
-0.00161141
-0.000665942
-1.88484e-05
0.000224643
-5.53366e-05
0.000556131
-9.06079e-05
0.00077147
-0.000114276
0.000896291
-0.000122867
0.000957866
-0.000116721
0.000977612
-9.78973e-05
0.000970646
-6.90639e-05
0.000946841
-3.29863e-05
0.000912103
7.6476e-06
0.000869533
5.02746e-05
0.000820341
9.23833e-05
0.000764557
0.000131526
0.000701455
0.000165285
0.000629867
0.000191241
0.000548339
0.000207014
0.000455181
0.00021014
0.000348424
0.000198388
0.000225789
0.000169472
8.43948e-05
0.000121301
-7.93611e-05
5.22666e-05
-0.000269966
-3.8098e-05
-0.000492792
-0.000147626
-0.000753699
-0.000268634
-0.00105722
-0.000383285
-0.00140108
-0.000459941
-0.00176142
-0.000455488
-0.00206697
-0.000337736
-0.0021639
-0.000137134
-0.00181201
-0.000803077
-3.09455e-05
0.000255589
-8.22732e-05
0.000607458
-0.000124265
0.000813461
-0.000144416
0.000916442
-0.000140996
0.000954447
-0.00011694
0.000953556
-7.66047e-05
0.000930311
-2.43659e-05
0.000894603
3.58544e-05
0.000851883
0.00010064
0.000804748
0.000166962
0.000754018
0.000232074
0.000699445
0.000293384
0.000640145
0.000348381
0.000574869
0.000394587
0.000502134
0.000429508
0.00042026
0.000450603
0.000327329
0.000455274
0.000221118
0.000440791
9.88778e-05
0.000404273
-4.28438e-05
0.000342832
-0.000208525
0.00025384
-0.000403799
0.000136087
-0.000635947
-7.59418e-06
-0.000913534
-0.000165585
-0.00124309
-0.000308424
-0.00161858
-0.00038503
-0.00199036
-0.000337572
-0.00221135
-0.000160295
-0.00198929
-0.000963372
-5.32768e-05
0.000308866
-0.000127054
0.000681236
-0.000176204
0.000862611
-0.000188413
0.00092865
-0.000166439
0.000932473
-0.000117575
0.000904692
-4.93726e-05
0.000862109
3.17286e-05
0.000813501
0.000120593
0.000763019
0.000213149
0.000712192
0.000306075
0.000661092
0.000396524
0.000608997
0.000481916
0.000554753
0.000559798
0.000496987
0.000627742
0.00043419
0.000683268
0.000364734
0.000723772
0.000286825
0.000746463
0.000198428
0.000748245
9.70954e-05
0.000725593
-2.01915e-05
0.000674646
-0.000157578
0.000591004
-0.000320157
0.0004704
-0.000515343
0.000310444
-0.000753577
0.000115801
-0.00104844
-9.22558e-05
-0.00141052
-0.000262431
-0.00182019
-0.00031171
-0.00216208
-0.000184431
-0.00211657
-0.0011478
-9.27104e-05
0.000401576
-0.000194376
0.000782902
-0.000242523
0.000910758
-0.000232966
0.000919093
-0.000178032
0.000877539
-9.16467e-05
0.000818306
1.47183e-05
0.000755744
0.000132578
0.000695642
0.000255884
0.000639712
0.000380298
0.000587778
0.000502561
0.000538829
0.000620045
0.000491513
0.000730443
0.000444355
0.000831567
0.000395864
0.00092121
0.000344547
0.000997042
0.000288902
0.00105651
0.000227355
0.00109676
0.000158184
0.00111445
7.94015e-05
0.00110557
-1.1308e-05
0.00106566
-0.000117667
0.000988994
-0.000243496
0.000869063
-0.000395412
0.000699115
-0.00058363
0.000475419
-0.000824747
0.000207306
-0.00114241
-6.18638e-05
-0.00155102
-0.00023862
-0.00198532
-0.000201965
-0.00215322
-0.00134977
-0.000157404
0.00055898
-0.000276342
0.00090184
-0.000291749
0.000926165
-0.000227265
0.00085461
-0.000112166
0.000762439
3.16063e-05
0.000674534
0.00018946
0.000597889
0.000352198
0.000532905
0.000514144
0.000477766
0.000671737
0.000430185
0.000822582
0.000387984
0.000964863
0.000349231
0.00109699
0.000312232
0.00121736
0.000275492
0.00132424
0.000237661
0.00141567
0.000197477
0.00148932
0.000153701
0.00154246
0.000105043
0.00157176
5.01084e-05
0.00157304
-1.25899e-05
0.0015415
-8.61299e-05
0.00147076
-0.000172757
0.00135295
-0.000277602
0.00117828
-0.000408953
0.000935787
-0.000582257
0.000619576
-0.000826197
0.000251097
-0.00118254
-7.70121e-05
-0.00165721
-0.000193345
-0.00203689
-0.00154311
-0.000243825
0.000802804
-0.00030326
0.000961276
-0.0002044
0.000827305
-2.50041e-05
0.000675214
0.000186119
0.000551317
0.000405046
0.000455607
0.000619985
0.00038295
0.000825342
0.000327548
0.00101875
0.000284362
0.00119934
0.000249592
0.00136683
0.00022049
0.00152103
0.000195029
0.0016616
0.000171671
0.00178789
0.000149202
0.00189892
0.000126627
0.00199331
0.000103088
0.00206921
7.7802e-05
0.00212424
5.00122e-05
0.00215538
1.89688e-05
0.00215916
-1.63709e-05
0.00213037
-5.7341e-05
0.00206302
-0.000105406
0.00194895
-0.000163533
0.00177696
-0.000236968
0.00153129
-0.000336581
0.00119158
-0.000486492
0.000746801
-0.000737759
0.000254005
-0.00116441
-8.091e-05
-0.00170198
-0.00162402
-0.000194351
0.000997156
1.81516e-05
0.000748773
0.000372905
0.000472552
0.000714006
0.000334113
0.00102002
0.000245299
0.00129069
0.000184939
0.00152935
0.000144289
0.00174035
0.000116549
0.00192786
9.68498e-05
0.00209531
8.21476e-05
0.00224523
7.05721e-05
0.00237934
6.09177e-05
0.00249864
5.23652e-05
0.00260351
4.43332e-05
0.00269375
3.63876e-05
0.00276865
2.81849e-05
0.00282702
1.94352e-05
0.00286712
9.91665e-06
0.00288634
-2.54844e-07
0.00288291
-1.29399e-05
0.0028519
-2.6328e-05
0.00278877
-4.22837e-05
0.00268671
-6.14711e-05
0.00253552
-8.57718e-05
0.00231846
-0.000119529
0.00200621
-0.000174233
0.00155157
-0.000283126
0.000927389
-0.00054023
0.000263829
-0.00103842
-0.00136019
0.000997156
0.00174593
0.00221848
0.00255259
0.00279789
0.00298283
0.00312712
0.00324367
0.00334052
0.00342267
0.00349324
0.00355416
0.00360652
0.00365085
0.00368724
0.00371543
0.00373486
0.00374478
0.00374452
0.00373158
0.00370526
0.00366297
0.0036015
0.00351573
0.0033962
0.00322197
0.00293884
0.00239861
0.00136019
)
;

boundaryField
{
    movingWall
    {
        type            calculated;
        value           uniform 0;
    }
    fixedWalls
    {
        type            calculated;
        value           uniform 0;
    }
    frontAndBack
    {
        type            empty;
        value           nonuniform 0();
    }
}


// ************************************************************************* //
