/*--------------------------------*- C++ -*----------------------------------*\
  =========                 |
  \\      /  F ield         | OpenFOAM: The Open Source CFD Toolbox
   \\    /   O peration     | Website:  https://openfoam.org
    \\  /    A nd           | Version:  7
     \\/     M anipulation  |
\*---------------------------------------------------------------------------*/
FoamFile
{
    version     2.0;
    format      ascii;
    class       volVectorField;
    location    "8.3";
    object      U;
}
// * * * * * * * * * * * * * * * * * * * * * * * * * * * * * * * * * * * * * //

dimensions      [0 1 -1 0 0 0 0];

internalField   nonuniform List<vector> 
900
(
(0.000161783 -0.000160704 0)
(0.000285492 -6.83914e-05 0)
(-3.72321e-05 9.86784e-05 0)
(-0.000814075 0.00024565 0)
(-0.00195315 0.000351866 0)
(-0.00335064 0.000420081 0)
(-0.00491283 0.000459579 0)
(-0.00656288 0.000478472 0)
(-0.0082374 0.000481321 0)
(-0.009879 0.000469228 0)
(-0.0114297 0.000440798 0)
(-0.0128272 0.000393347 0)
(-0.0140034 0.000324144 0)
(-0.0148874 0.000231596 0)
(-0.0154101 0.000116302 0)
(-0.0155118 -1.82066e-05 0)
(-0.0151508 -0.000165456 0)
(-0.0143124 -0.000314992 0)
(-0.0130168 -0.000453925 0)
(-0.0113235 -0.00056804 0)
(-0.00933213 -0.000643602 0)
(-0.00717692 -0.00066951 0)
(-0.00501631 -0.000639329 0)
(-0.00301719 -0.000552777 0)
(-0.00133559 -0.000416499 0)
(-9.71369e-05 -0.000244782 0)
(0.000618021 -5.90804e-05 0)
(0.000798499 0.000114682 0)
(0.000549732 0.000220412 0)
(0.000170216 0.000169072 0)
(7.67678e-05 -0.00029283 0)
(-0.000302825 0.000300332 0)
(-0.0017294 0.0011316 0)
(-0.00411574 0.00187897 0)
(-0.0072977 0.00245324 0)
(-0.0110739 0.00284751 0)
(-0.0152407 0.00308453 0)
(-0.0196124 0.00318946 0)
(-0.0240209 0.00317807 0)
(-0.0283066 0.0030547 0)
(-0.0323093 0.00281493 0)
(-0.0358634 0.00245046 0)
(-0.0387979 0.00195463 0)
(-0.0409435 0.00132782 0)
(-0.0421445 0.000581954 0)
(-0.0422751 -0.000256445 0)
(-0.041256 -0.00114446 0)
(-0.0390725 -0.00202435 0)
(-0.0357894 -0.00282743 0)
(-0.0315573 -0.00348062 0)
(-0.0266121 -0.00391536 0)
(-0.0212624 -0.00407775 0)
(-0.0158665 -0.00393811 0)
(-0.0107993 -0.00349846 0)
(-0.00641154 -0.0027966 0)
(-0.00298599 -0.00190769 0)
(-0.000693569 -0.000943824 0)
(0.0004354 -5.36926e-05 0)
(0.000585707 0.000550478 0)
(0.000228448 0.00054714 0)
(-0.000106309 3.49191e-05 0)
(-0.00123834 0.00174911 0)
(-0.00401377 0.0037822 0)
(-0.00810836 0.0055966 0)
(-0.0132673 0.00701618 0)
(-0.0192247 0.00801031 0)
(-0.0257032 0.008609 0)
(-0.0324394 0.0088536 0)
(-0.0391855 0.00877189 0)
(-0.0457006 0.00837169 0)
(-0.0517424 0.00764546 0)
(-0.0570637 0.00658039 0)
(-0.0614163 0.00517063 0)
(-0.0645609 0.00342908 0)
(-0.0662841 0.00139714 0)
(-0.0664186 -0.000848974 0)
(-0.0648657 -0.00319572 0)
(-0.0616169 -0.00549753 0)
(-0.0567703 -0.00758547 0)
(-0.0505393 -0.00928297 0)
(-0.0432503 -0.0104263 0)
(-0.0353279 -0.0108877 0)
(-0.0272653 -0.0105973 0)
(-0.0195815 -0.00956142 0)
(-0.0127679 -0.00787299 0)
(-0.00722959 -0.0057144 0)
(-0.00322636 -0.00335565 0)
(-0.000824538 -0.00115369 0)
(0.000155431 0.000449267 0)
(0.000164841 0.000847303 0)
(-0.000300189 0.000911967 0)
(-0.00224633 0.00437584 0)
(-0.00646318 0.00800802 0)
(-0.0123118 0.011165 0)
(-0.0194129 0.013622 0)
(-0.0274353 0.0153389 0)
(-0.0360419 0.0163564 0)
(-0.0449113 0.0167305 0)
(-0.0537371 0.0164987 0)
(-0.0622175 0.0156704 0)
(-0.0700483 0.0142349 0)
(-0.0769213 0.0121777 0)
(-0.08253 0.00949923 0)
(-0.0865833 0.00623438 0)
(-0.0888246 0.00246692 0)
(-0.0890542 -0.00166101 0)
(-0.0871543 -0.00594774 0)
(-0.0831125 -0.0101383 0)
(-0.0770403 -0.0139408 0)
(-0.0691843 -0.0170519 0)
(-0.0599258 -0.0191898 0)
(-0.0497676 -0.020132 0)
(-0.0393026 -0.0197531 0)
(-0.0291669 -0.0180568 0)
(-0.0199776 -0.0151957 0)
(-0.012262 -0.0114776 0)
(-0.00638552 -0.00735845 0)
(-0.0024869 -0.0034287 0)
(-0.000448093 -0.000396265 0)
(6.85607e-05 0.000859737 0)
(-0.000483238 0.00233631 0)
(-0.00323488 0.00820758 0)
(-0.00889514 0.0138243 0)
(-0.0164817 0.018549 0)
(-0.0254713 0.0221706 0)
(-0.0354616 0.024672 0)
(-0.0460616 0.0261179 0)
(-0.0569045 0.0265829 0)
(-0.0676416 0.0261131 0)
(-0.0779284 0.0247185 0)
(-0.0874166 0.0223846 0)
(-0.0957537 0.0190966 0)
(-0.10259 0.0148651 0)
(-0.107593 0.00975203 0)
(-0.110468 0.00389032 0)
(-0.110981 -0.00250446 0)
(-0.108985 -0.0091327 0)
(-0.104443 -0.0156188 0)
(-0.0974536 -0.0215339 0)
(-0.0882661 -0.0264298 0)
(-0.0772851 -0.0298851 0)
(-0.0650637 -0.0315583 0)
(-0.0522766 -0.0312451 0)
(-0.0396711 -0.0289274 0)
(-0.0279982 -0.0248081 0)
(-0.0179302 -0.019323 0)
(-0.00997057 -0.0131286 0)
(-0.00437075 -0.00706925 0)
(-0.00111376 -0.00213357 0)
(-2.68667e-05 0.000528354 0)
(-0.000650462 0.00428055 0)
(-0.0041659 0.0132146 0)
(-0.0112131 0.0212038 0)
(-0.0204696 0.0277108 0)
(-0.0312632 0.0326039 0)
(-0.0431188 0.0359291 0)
(-0.0555953 0.0377967 0)
(-0.0682904 0.0383087 0)
(-0.0808266 0.0375224 0)
(-0.0928319 0.0354475 0)
(-0.103929 0.0320654 0)
(-0.113736 0.0273598 0)
(-0.12187 0.0213514 0)
(-0.127964 0.014129 0)
(-0.131683 0.00587425 0)
(-0.13275 -0.00312379 0)
(-0.130971 -0.012466 0)
(-0.126261 -0.0216514 0)
(-0.118674 -0.0301039 0)
(-0.108428 -0.0372128 0)
(-0.0959183 -0.0423905 0)
(-0.081725 -0.0451435 0)
(-0.0665916 -0.0451511 0)
(-0.0513813 -0.0423397 0)
(-0.0370016 -0.0369384 0)
(-0.0243073 -0.0295029 0)
(-0.0139867 -0.0209 0)
(-0.00645004 -0.0122519 0)
(-0.00181965 -0.00485472 0)
(-0.000115778 -0.000154581 0)
(-0.000801318 0.00670606 0)
(-0.00502024 0.0193263 0)
(-0.0133569 0.030062 0)
(-0.024172 0.0385563 0)
(-0.0366512 0.0448188 0)
(-0.0502497 0.0490011 0)
(-0.0644825 0.0512843 0)
(-0.0789207 0.0518104 0)
(-0.0931697 0.0506529 0)
(-0.106843 0.0478222 0)
(-0.119549 0.0432933 0)
(-0.130887 0.0370458 0)
(-0.14045 0.0291056 0)
(-0.147839 0.019582 0)
(-0.152677 0.00869754 0)
(-0.154632 -0.00319326 0)
(-0.153444 -0.0155983 0)
(-0.14895 -0.0278933 0)
(-0.141128 -0.0393485 0)
(-0.130126 -0.0491731 0)
(-0.116296 -0.056582 0)
(-0.100215 -0.0608853 0)
(-0.0826796 -0.0615929 0)
(-0.0646737 -0.0585221 0)
(-0.0472888 -0.0518856 0)
(-0.0316099 -0.0423381 0)
(-0.0185699 -0.0309626 0)
(-0.00879532 -0.0191909 0)
(-0.00259239 -0.00867351 0)
(-0.000203367 -0.00120568 0)
(-0.000934829 0.00956667 0)
(-0.00578213 0.0264448 0)
(-0.0152778 0.0402754 0)
(-0.0275014 0.0509509 0)
(-0.0415116 0.0586782 0)
(-0.0567019 0.0637553 0)
(-0.072551 0.0664603 0)
(-0.0886127 0.0669904 0)
(-0.104486 0.0654418 0)
(-0.119782 0.0618269 0)
(-0.134107 0.0561122 0)
(-0.147052 0.0482676 0)
(-0.158195 0.038315 0)
(-0.167108 0.0263722 0)
(-0.173369 0.0126877 0)
(-0.176582 -0.00233514 0)
(-0.176403 -0.0181236 0)
(-0.172566 -0.0339416 0)
(-0.164937 -0.0489055 0)
(-0.153556 -0.062028 0)
(-0.138688 -0.0722927 0)
(-0.120866 -0.0787587 0)
(-0.100915 -0.0806965 0)
(-0.0799326 -0.0777373 0)
(-0.0592156 -0.0700098 0)
(-0.0401318 -0.0582269 0)
(-0.0239312 -0.0436868 0)
(-0.0115316 -0.0281707 0)
(-0.00348358 -0.0137533 0)
(-0.000299733 -0.00266536 0)
(-0.00104844 0.0128081 0)
(-0.00643348 0.0344489 0)
(-0.0169269 0.0516874 0)
(-0.0303721 0.064724 0)
(-0.0457204 0.0740114 0)
(-0.0623147 0.0800306 0)
(-0.0796066 0.0831826 0)
(-0.0971414 0.0837348 0)
(-0.114522 0.0818144 0)
(-0.131368 0.0774379 0)
(-0.147294 0.0705606 0)
(-0.161896 0.0611351 0)
(-0.174744 0.0491676 0)
(-0.185387 0.0347675 0)
(-0.193362 0.0181882 0)
(-0.198203 -0.000141074 0)
(-0.199469 -0.019591 0)
(-0.196775 -0.0393313 0)
(-0.189844 -0.0583319 0)
(-0.178565 -0.0754009 0)
(-0.163065 -0.0892582 0)
(-0.143783 -0.0986529 0)
(-0.121521 -0.10253 0)
(-0.0974638 -0.10023 0)
(-0.0731201 -0.0916983 0)
(-0.0501874 -0.0776331 0)
(-0.0303158 -0.0595301 0)
(-0.0148111 -0.039564 0)
(-0.00455676 -0.0203268 0)
(-0.000416877 -0.00460618 0)
(-0.00113838 0.016366 0)
(-0.00695374 0.0431924 0)
(-0.0182533 0.0641079 0)
(-0.0326961 0.0796672 0)
(-0.0491494 0.0906081 0)
(-0.0669169 0.0976265 0)
(-0.0854326 0.101269 0)
(-0.104242 0.101889 0)
(-0.122958 0.0996539 0)
(-0.141223 0.0945867 0)
(-0.158668 0.0866294 0)
(-0.174905 0.0757095 0)
(-0.189508 0.0618037 0)
(-0.202017 0.0449934 0)
(-0.211932 0.0255125 0)
(-0.218722 0.00378711 0)
(-0.221851 -0.0195313 0)
(-0.220806 -0.0435426 0)
(-0.215141 -0.0670911 0)
(-0.20456 -0.088785 0)
(-0.188998 -0.107059 0)
(-0.168728 -0.120296 0)
(-0.144459 -0.12702 0)
(-0.117401 -0.126151 0)
(-0.0892491 -0.117306 0)
(-0.0620598 -0.101051 0)
(-0.0379702 -0.079026 0)
(-0.0187963 -0.0538357 0)
(-0.00588115 -0.028705 0)
(-0.000567657 -0.00713691 0)
(-0.00120044 0.0201641 0)
(-0.00732196 0.0525045 0)
(-0.0192071 0.0773135 0)
(-0.0343878 0.0955331 0)
(-0.0516712 0.108215 0)
(-0.0703338 0.116294 0)
(-0.0897994 0.120484 0)
(-0.109619 0.121238 0)
(-0.129428 0.118774 0)
(-0.148892 0.113126 0)
(-0.167674 0.104222 0)
(-0.185413 0.0919567 0)
(-0.201704 0.0762645 0)
(-0.216088 0.0571793 0)
(-0.228048 0.0348888 0)
(-0.237008 0.00978346 0)
(-0.242346 -0.0174992 0)
(-0.243425 -0.0460292 0)
(-0.239628 -0.0745615 0)
(-0.230444 -0.101528 0)
(-0.215565 -0.125078 0)
(-0.195019 -0.143189 0)
(-0.169321 -0.153866 0)
(-0.139604 -0.155462 0)
(-0.107677 -0.147073 0)
(-0.0759465 -0.128948 0)
(-0.0471131 -0.102754 0)
(-0.023648 -0.0715354 0)
(-0.00752877 -0.0392795 0)
(-0.000765778 -0.0104044 0)
(-0.00123081 0.024115 0)
(-0.00751998 0.0621907 0)
(-0.0197452 0.0910498 0)
(-0.035372 0.112037 0)
(-0.0531713 0.126532 0)
(-0.0724018 0.13573 0)
(-0.0924831 0.140526 0)
(-0.112977 0.141489 0)
(-0.133543 0.138896 0)
(-0.153881 0.132802 0)
(-0.173693 0.123119 0)
(-0.192659 0.109707 0)
(-0.210408 0.0924466 0)
(-0.226508 0.0713077 0)
(-0.240448 0.0464074 0)
(-0.251635 0.0180677 0)
(-0.259393 -0.0131268 0)
(-0.262981 -0.0462668 0)
(-0.26163 -0.0800713 0)
(-0.254602 -0.112845 0)
(-0.241306 -0.142484 0)
(-0.221447 -0.166548 0)
(-0.195225 -0.182457 0)
(-0.163551 -0.187834 0)
(-0.128213 -0.18102 0)
(-0.0918953 -0.161677 0)
(-0.0579008 -0.131287 0)
(-0.0295123 -0.0932753 0)
(-0.0095725 -0.0525177 0)
(-0.00102619 -0.0145944 0)
(-0.00122702 0.0281227 0)
(-0.00753625 0.0720389 0)
(-0.0198394 0.105037 0)
(-0.0355965 0.128859 0)
(-0.0535639 0.145219 0)
(-0.0729895 0.155577 0)
(-0.0932921 0.161025 0)
(-0.114047 0.162263 0)
(-0.134939 0.15964 0)
(-0.155707 0.153236 0)
(-0.176103 0.142957 0)
(-0.195857 0.128626 0)
(-0.214655 0.110066 0)
(-0.232111 0.0871712 0)
(-0.247757 0.0599696 0)
(-0.261018 0.0286869 0)
(-0.271208 -0.00618651 0)
(-0.27753 -0.0438206 0)
(-0.279097 -0.0829627 0)
(-0.274965 -0.121869 0)
(-0.264245 -0.158251 0)
(-0.246252 -0.189295 0)
(-0.22075 -0.211804 0)
(-0.188247 -0.222539 0)
(-0.150307 -0.218821 0)
(-0.10973 -0.199362 0)
(-0.0703851 -0.165112 0)
(-0.0365054 -0.119691 0)
(-0.0120839 -0.0689526 0)
(-0.00136562 -0.0199322 0)
(-0.00118884 0.0320869 0)
(-0.00737003 0.0818282 0)
(-0.0194857 0.118982 0)
(-0.0350462 0.145659 0)
(-0.0528113 0.163898 0)
(-0.0720223 0.175427 0)
(-0.0920986 0.181546 0)
(-0.112628 0.183096 0)
(-0.133324 0.180514 0)
(-0.153968 0.173919 0)
(-0.174364 0.163217 0)
(-0.19431 0.148201 0)
(-0.21356 0.12864 0)
(-0.231807 0.104346 0)
(-0.248655 0.0752499 0)
(-0.263596 0.0414593 0)
(-0.27599 0.00333457 0)
(-0.285044 -0.0384271 0)
(-0.289806 -0.0826807 0)
(-0.289186 -0.127736 0)
(-0.282014 -0.171235 0)
(-0.267191 -0.210089 0)
(-0.243937 -0.240527 0)
(-0.21217 -0.258374 0)
(-0.172965 -0.259678 0)
(-0.128969 -0.241762 0)
(-0.0844599 -0.204516 0)
(-0.0446918 -0.151379 0)
(-0.0151298 -0.0891624 0)
(-0.00180306 -0.0266822 0)
(-0.00111913 0.0359103 0)
(-0.0070355 0.0913428 0)
(-0.0187132 0.132589 0)
(-0.0337575 0.162085 0)
(-0.0509439 0.182167 0)
(-0.0695088 0.194832 0)
(-0.0888718 0.201593 0)
(-0.108634 0.203447 0)
(-0.128536 0.200934 0)
(-0.148404 0.194225 0)
(-0.168104 0.183241 0)
(-0.187506 0.167758 0)
(-0.206455 0.147496 0)
(-0.224742 0.122196 0)
(-0.24208 0.0916875 0)
(-0.258072 0.0559519 0)
(-0.272179 0.0151939 0)
(-0.28368 -0.0300665 0)
(-0.291646 -0.0788741 0)
(-0.294915 -0.129709 0)
(-0.292106 -0.180294 0)
(-0.281726 -0.22743 0)
(-0.262404 -0.266907 0)
(-0.233299 -0.29364 0)
(-0.194708 -0.302221 0)
(-0.148753 -0.288114 0)
(-0.0998011 -0.249447 0)
(-0.0540562 -0.18881 0)
(-0.0187665 -0.113739 0)
(-0.00236013 -0.0351447 0)
(-0.00102463 0.0395078 0)
(-0.00656588 0.100391 0)
(-0.0175937 0.145588 0)
(-0.0318334 0.177796 0)
(-0.0480802 0.199622 0)
(-0.0655644 0.213324 0)
(-0.083707 0.220633 0)
(-0.102123 0.222719 0)
(-0.120582 0.220239 0)
(-0.138961 0.213436 0)
(-0.157189 0.202263 0)
(-0.175222 0.186492 0)
(-0.193006 0.165812 0)
(-0.210452 0.139906 0)
(-0.227406 0.108513 0)
(-0.243621 0.0714926 0)
(-0.258711 0.0288827 0)
(-0.272093 -0.0190099 0)
(-0.282949 -0.0714864 0)
(-0.290151 -0.127312 0)
(-0.29221 -0.184459 0)
(-0.28733 -0.239837 0)
(-0.273572 -0.289033 0)
(-0.249246 -0.326213 0)
(-0.213604 -0.344474 0)
(-0.167806 -0.337012 0)
(-0.115808 -0.299353 0)
(-0.0644695 -0.232214 0)
(-0.0230335 -0.143239 0)
(-0.00306159 -0.0456519 0)
(-0.000916717 0.042818 0)
(-0.00601765 0.108826 0)
(-0.0162513 0.157754 0)
(-0.029457 0.192486 0)
(-0.0444428 0.215875 0)
(-0.0604312 0.23043 0)
(-0.0768473 0.238116 0)
(-0.093326 0.240285 0)
(-0.109675 0.237731 0)
(-0.125824 0.230786 0)
(-0.141778 0.219454 0)
(-0.157583 0.203525 0)
(-0.173295 0.182674 0)
(-0.188958 0.156546 0)
(-0.20457 0.12481 0)
(-0.220058 0.0872157 0)
(-0.235225 0.0436452 0)
(-0.24968 -0.00582052 0)
(-0.262796 -0.0608141 0)
(-0.273586 -0.120446 0)
(-0.28059 -0.183107 0)
(-0.281858 -0.246067 0)
(-0.275004 -0.305026 0)
(-0.257507 -0.353724 0)
(-0.227403 -0.383932 0)
(-0.184458 -0.386345 0)
(-0.131566 -0.35303 0)
(-0.0756559 -0.281435 0)
(-0.0279462 -0.178125 0)
(-0.0039365 -0.0585591 0)
(-0.0008126 0.0458168 0)
(-0.00547582 0.116579 0)
(-0.0148726 0.168943 0)
(-0.0269053 0.205915 0)
(-0.0403734 0.230577 0)
(-0.0544901 0.245703 0)
(-0.0686949 0.253496 0)
(-0.0826571 0.255515 0)
(-0.0962367 0.252703 0)
(-0.109429 0.245503 0)
(-0.122324 0.233985 0)
(-0.135065 0.217974 0)
(-0.147826 0.197156 0)
(-0.160787 0.171156 0)
(-0.174103 0.139596 0)
(-0.187879 0.102139 0)
(-0.202125 0.0585258 0)
(-0.216702 0.00861922 0)
(-0.231202 -0.047527 0)
(-0.244849 -0.109458 0)
(-0.256389 -0.176108 0)
(-0.263906 -0.245339 0)
(-0.264772 -0.313326 0)
(-0.25579 -0.373845 0)
(-0.233769 -0.417758 0)
(-0.196747 -0.433341 0)
(-0.145847 -0.408511 0)
(-0.0871665 -0.335781 0)
(-0.0334942 -0.218682 0)
(-0.00502161 -0.0742377 0)
(-0.000737619 0.0485349 0)
(-0.00506272 0.123687 0)
(-0.0137218 0.17912 0)
(-0.0245645 0.217929 0)
(-0.0363435 0.243445 0)
(-0.0482657 0.258728 0)
(-0.0598069 0.266254 0)
(-0.0706989 0.267799 0)
(-0.0808786 0.264477 0)
(-0.0904297 0.256849 0)
(-0.0995369 0.245068 0)
(-0.108453 0.22901 0)
(-0.11747 0.208388 0)
(-0.1269 0.182825 0)
(-0.137053 0.151921 0)
(-0.148204 0.115274 0)
(-0.160565 0.0725087 0)
(-0.174222 0.0232971 0)
(-0.189036 -0.0325737 0)
(-0.204535 -0.0951207 0)
(-0.219758 -0.163885 0)
(-0.233024 -0.237497 0)
(-0.24174 -0.312953 0)
(-0.242329 -0.384612 0)
(-0.23055 -0.443094 0)
(-0.202589 -0.474741 0)
(-0.157153 -0.463039 0)
(-0.0983662 -0.393871 0)
(-0.0396459 -0.264926 0)
(-0.0063694 -0.0930706 0)
(-0.000730682 0.0510823 0)
(-0.00495455 0.130338 0)
(-0.013164 0.188405 0)
(-0.0229505 0.228493 0)
(-0.0329641 0.254266 0)
(-0.0424216 0.269142 0)
(-0.0508765 0.275902 0)
(-0.0581694 0.276563 0)
(-0.0643545 0.272415 0)
(-0.069632 0.264147 0)
(-0.0743014 0.251999 0)
(-0.0787294 0.235906 0)
(-0.0833271 0.215614 0)
(-0.0885307 0.190763 0)
(-0.0947837 0.160943 0)
(-0.102515 0.125713 0)
(-0.11211 0.084621 0)
(-0.123861 0.0371781 0)
(-0.137887 -0.017075 0)
(-0.15404 -0.0785473 0)
(-0.171737 -0.147383 0)
(-0.189703 -0.223069 0)
(-0.205672 -0.303692 0)
(-0.216076 -0.384734 0)
(-0.216013 -0.457419 0)
(-0.199967 -0.507089 0)
(-0.1638 -0.513149 0)
(-0.108431 -0.453517 0)
(-0.0463638 -0.316497 0)
(-0.00806457 -0.115462 0)
(-0.000856551 0.0536868 0)
(-0.00541385 0.136928 0)
(-0.0137045 0.197103 0)
(-0.0227361 0.237697 0)
(-0.0309909 0.262902 0)
(-0.0377402 0.276612 0)
(-0.0426885 0.281971 0)
(-0.0458562 0.281255 0)
(-0.0474709 0.275926 0)
(-0.0478868 0.26679 0)
(-0.0475384 0.254168 0)
(-0.0469131 0.238049 0)
(-0.046534 0.218213 0)
(-0.0469455 0.19432 0)
(-0.0487021 0.165961 0)
(-0.05235 0.132675 0)
(-0.0584262 0.0939621 0)
(-0.0673859 0.0492047 0)
(-0.0795622 -0.00222983 0)
(-0.0951187 -0.0610591 0)
(-0.113878 -0.127949 0)
(-0.135091 -0.203208 0)
(-0.157069 -0.286137 0)
(-0.176687 -0.373782 0)
(-0.188935 -0.458875 0)
(-0.187051 -0.527072 0)
(-0.163982 -0.554841 0)
(-0.116336 -0.511635 0)
(-0.0536202 -0.372529 0)
(-0.0102527 -0.14187 0)
(-0.00123222 0.0567631 0)
(-0.00685021 0.144138 0)
(-0.0160505 0.20574 0)
(-0.0247813 0.245748 0)
(-0.0313087 0.269247 0)
(-0.0350634 0.280798 0)
(-0.0360225 0.283979 0)
(-0.0344876 0.281321 0)
(-0.0309308 0.274436 0)
(-0.0259025 0.264216 0)
(-0.0199917 0.251037 0)
(-0.0138081 0.234923 0)
(-0.00797478 0.21568 0)
(-0.00312156 0.192982 0)
(0.000114239 0.166418 0)
(0.00110826 0.135517 0)
(-0.000800817 0.0997311 0)
(-0.00618985 0.0584174 0)
(-0.0155403 0.0108043 0)
(-0.0292933 -0.0440343 0)
(-0.0476628 -0.107143 0)
(-0.0704634 -0.179508 0)
(-0.0967592 -0.261589 0)
(-0.124259 -0.352228 0)
(-0.148486 -0.446473 0)
(-0.162179 -0.531833 0)
(-0.155759 -0.583816 0)
(-0.12079 -0.564201 0)
(-0.0613795 -0.431474 0)
(-0.0131787 -0.172876 0)
(-0.00208036 0.0610403 0)
(-0.00992542 0.153033 0)
(-0.0211877 0.215064 0)
(-0.0301313 0.252903 0)
(-0.03484 0.273139 0)
(-0.0351229 0.281265 0)
(-0.0314208 0.281347 0)
(-0.0244505 0.276137 0)
(-0.0150097 0.267335 0)
(-0.00388424 0.255859 0)
(0.00816979 0.242089 0)
(0.020428 0.226053 0)
(0.0321877 0.207561 0)
(0.0427542 0.186286 0)
(0.0514384 0.161816 0)
(0.057558 0.133669 0)
(0.0604137 0.10127 0)
(0.0593348 0.0639889 0)
(0.0536824 0.0209825 0)
(0.042818 -0.028777 0)
(0.0261904 -0.0865468 0)
(0.00344626 -0.153766 0)
(-0.0252948 -0.231826 0)
(-0.0588566 -0.321324 0)
(-0.093906 -0.420141 0)
(-0.123651 -0.519187 0)
(-0.136896 -0.595692 0)
(-0.120046 -0.606209 0)
(-0.0694722 -0.490814 0)
(-0.0172118 -0.209252 0)
(-0.00383113 0.0678014 0)
(-0.0157144 0.165182 0)
(-0.030421 0.225963 0)
(-0.0398631 0.259281 0)
(-0.0422082 0.274153 0)
(-0.038057 0.277292 0)
(-0.0285957 0.273244 0)
(-0.0151167 0.264881 0)
(0.00117839 0.253866 0)
(0.01924 0.241047 0)
(0.0381524 0.226737 0)
(0.0570973 0.210919 0)
(0.0753183 0.193371 0)
(0.0920912 0.173754 0)
(0.106707 0.151648 0)
(0.11846 0.126572 0)
(0.126631 0.0979626 0)
(0.13049 0.0651745 0)
(0.129284 0.0273869 0)
(0.12221 -0.0164281 0)
(0.108443 -0.0675824 0)
(0.0871671 -0.127714 0)
(0.0577349 -0.198802 0)
(0.0200995 -0.282865 0)
(-0.0240115 -0.380642 0)
(-0.0693406 -0.487751 0)
(-0.104514 -0.586188 0)
(-0.111513 -0.631584 0)
(-0.0772129 -0.546548 0)
(-0.0227708 -0.251894 0)
(-0.0072963 0.0793159 0)
(-0.0258884 0.182701 0)
(-0.045165 0.23913 0)
(-0.0544089 0.264411 0)
(-0.052683 0.271172 0)
(-0.0420914 0.267521 0)
(-0.024937 0.258317 0)
(-0.00324754 0.246318 0)
(0.0213246 0.232962 0)
(0.0474778 0.21888 0)
(0.0741722 0.204227 0)
(0.100541 0.188879 0)
(0.12582 0.172554 0)
(0.149299 0.154879 0)
(0.170286 0.135427 0)
(0.188087 0.113724 0)
(0.20198 0.0892345 0)
(0.211202 0.0613423 0)
(0.214923 0.0292948 0)
(0.212203 -0.00785297 0)
(0.202003 -0.0513337 0)
(0.183141 -0.10275 0)
(0.154335 -0.164284 0)
(0.114467 -0.238823 0)
(0.0633891 -0.329507 0)
(0.00384663 -0.437147 0)
(-0.0544652 -0.551418 0)
(-0.0909756 -0.633082 0)
(-0.082536 -0.592363 0)
(-0.0299464 -0.301485 0)
(-0.0138784 0.099529 0)
(-0.0426538 0.207898 0)
(-0.0657572 0.254139 0)
(-0.0712915 0.26625 0)
(-0.0612234 0.261577 0)
(-0.0402182 0.24936 0)
(-0.0120601 0.234276 0)
(0.020429 0.218552 0)
(0.0552131 0.203108 0)
(0.0908465 0.188181 0)
(0.126275 0.173657 0)
(0.160682 0.159251 0)
(0.193377 0.144588 0)
(0.223732 0.129259 0)
(0.251125 0.112831 0)
(0.274917 0.094853 0)
(0.294418 0.0748374 0)
(0.308864 0.0522405 0)
(0.317382 0.0264198 0)
(0.318933 -0.00342414 0)
(0.312333 -0.0383252 0)
(0.296145 -0.0796875 0)
(0.26863 -0.129547 0)
(0.227829 -0.191009 0)
(0.171913 -0.268725 0)
(0.100614 -0.368095 0)
(0.0196879 -0.488463 0)
(-0.0511458 -0.602385 0)
(-0.080479 -0.618777 0)
(-0.0375135 -0.358359 0)
(-0.0254048 0.135037 0)
(-0.067111 0.241002 0)
(-0.0867027 0.266526 0)
(-0.0783861 0.258779 0)
(-0.0510666 0.239598 0)
(-0.0129143 0.21802 0)
(0.0309159 0.197459 0)
(0.0771834 0.178938 0)
(0.123864 0.162496 0)
(0.169706 0.147796 0)
(0.213904 0.13438 0)
(0.255886 0.121768 0)
(0.295184 0.109499 0)
(0.331355 0.0971329 0)
(0.363932 0.0842566 0)
(0.392393 0.0704666 0)
(0.416131 0.0553538 0)
(0.434437 0.0384806 0)
(0.446452 0.0193488 0)
(0.451114 -0.00265437 0)
(0.447185 -0.0282467 0)
(0.433078 -0.0585379 0)
(0.40681 -0.0951754 0)
(0.365895 -0.140891 0)
(0.307264 -0.200566 0)
(0.227737 -0.282446 0)
(0.12783 -0.395558 0)
(0.020698 -0.530999 0)
(-0.0609756 -0.612569 0)
(-0.0408503 -0.421814 0)
(-0.0413078 0.197208 0)
(-0.0902326 0.272619 0)
(-0.079838 0.259252 0)
(-0.036192 0.226413 0)
(0.0217587 0.193621 0)
(0.0842894 0.16564 0)
(0.146811 0.142955 0)
(0.20711 0.124735 0)
(0.264186 0.109929 0)
(0.317654 0.0976099 0)
(0.367396 0.0870298 0)
(0.413365 0.0775889 0)
(0.455497 0.0687995 0)
(0.49366 0.0602561 0)
(0.527628 0.0516108 0)
(0.557066 0.0425524 0)
(0.581516 0.0327875 0)
(0.600386 0.0220203 0)
(0.612902 0.00992639 0)
(0.618148 -0.00390235 0)
(0.614937 -0.0198541 0)
(0.601675 -0.0386432 0)
(0.576395 -0.0613636 0)
(0.53645 -0.0899424 0)
(0.478119 -0.128244 0)
(0.396106 -0.184454 0)
(0.285096 -0.273854 0)
(0.145983 -0.41056 0)
(-0.00338564 -0.554021 0)
(-0.0253847 -0.477523 0)
(-0.0341463 0.293702 0)
(-0.0479462 0.272541 0)
(0.0536772 0.199496 0)
(0.156753 0.149682 0)
(0.249734 0.11492 0)
(0.332062 0.0900881 0)
(0.404651 0.0724881 0)
(0.468672 0.0598893 0)
(0.525384 0.0505858 0)
(0.575907 0.04343 0)
(0.621105 0.0376698 0)
(0.661585 0.0327941 0)
(0.697732 0.0284394 0)
(0.729737 0.0243359 0)
(0.757623 0.0202744 0)
(0.78126 0.0160834 0)
(0.800373 0.0116126 0)
(0.814554 0.00672403 0)
(0.823172 0.00127303 0)
(0.825621 -0.00480063 0)
(0.820944 -0.011832 0)
(0.807842 -0.0200924 0)
(0.7847 -0.0300456 0)
(0.749207 -0.0426234 0)
(0.697765 -0.0598741 0)
(0.624274 -0.0868828 0)
(0.51847 -0.137173 0)
(0.365134 -0.240272 0)
(0.144129 -0.406973 0)
(0.0588673 -0.458305 0)
(0.303206 0.180897 0)
(0.382399 0.14422 0)
(0.560571 0.0910653 0)
(0.686314 0.0589418 0)
(0.769035 0.0393398 0)
(0.82875 0.0268792 0)
(0.874802 0.0189952 0)
(0.911541 0.0140097 0)
(0.941667 0.0107763 0)
(0.966982 0.0085815 0)
(0.988629 0.0070013 0)
(1.00731 0.00578057 0)
(1.02342 0.00476048 0)
(1.0372 0.00383844 0)
(1.04873 0.00294501 0)
(1.05796 0.00203018 0)
(1.06479 0.00105376 0)
(1.06903 -1.45292e-05 0)
(1.07044 -0.00121511 0)
(1.06865 -0.00245016 0)
(1.06314 -0.0039198 0)
(1.05345 -0.00566162 0)
(1.03877 -0.00775053 0)
(1.01794 -0.0103939 0)
(0.988884 -0.0140909 0)
(0.947494 -0.0201857 0)
(0.88396 -0.0325711 0)
(0.776344 -0.0637482 0)
(0.54482 -0.139463 0)
(0.38249 -0.201736 0)
)
;

boundaryField
{
    movingWall
    {
        type            fixedValue;
        value           uniform (1.2 0 0);
    }
    fixedWalls
    {
        type            noSlip;
    }
    frontAndBack
    {
        type            empty;
    }
}


// ************************************************************************* //
