/*--------------------------------*- C++ -*----------------------------------*\
  =========                 |
  \\      /  F ield         | OpenFOAM: The Open Source CFD Toolbox
   \\    /   O peration     | Website:  https://openfoam.org
    \\  /    A nd           | Version:  7
     \\/     M anipulation  |
\*---------------------------------------------------------------------------*/
FoamFile
{
    version     2.0;
    format      ascii;
    class       volVectorField;
    location    "3.3";
    object      U;
}
// * * * * * * * * * * * * * * * * * * * * * * * * * * * * * * * * * * * * * //

dimensions      [0 1 -1 0 0 0 0];

internalField   nonuniform List<vector> 
900
(
(0.000103096 -0.000102264 0)
(0.000137566 -1.39459e-05 0)
(-0.000192324 0.000111556 0)
(-0.000857518 0.000218356 0)
(-0.00177094 0.000291751 0)
(-0.00285633 0.000335573 0)
(-0.00404233 0.000357275 0)
(-0.00527079 0.000363051 0)
(-0.0064952 0.000356771 0)
(-0.00767584 0.000340181 0)
(-0.00877568 0.000313438 0)
(-0.0097574 0.000275721 0)
(-0.010582 0.00022586 0)
(-0.0112091 0.000162966 0)
(-0.0115986 8.70408e-05 0)
(-0.0117143 -5.12139e-07 0)
(-0.0115282 -9.67382e-05 0)
(-0.0110258 -0.000196353 0)
(-0.0102114 -0.000292399 0)
(-0.00911205 -0.000376607 0)
(-0.00777958 -0.00044024 0)
(-0.00629008 -0.000475253 0)
(-0.00473961 -0.000475547 0)
(-0.00323672 -0.000438051 0)
(-0.00189222 -0.000363432 0)
(-0.000806643 -0.000256582 0)
(-5.72461e-05 -0.000127974 0)
(0.000311136 3.98881e-06 0)
(0.000321296 0.000111265 0)
(0.000122951 0.00012162 0)
(1.83722e-05 -0.00014163 0)
(-0.000370302 0.000369445 0)
(-0.00156605 0.000991436 0)
(-0.00345495 0.0015256 0)
(-0.00589204 0.00191817 0)
(-0.00872253 0.00217155 0)
(-0.0117932 0.00230593 0)
(-0.0149673 0.00234241 0)
(-0.0181257 0.00229635 0)
(-0.0211614 0.00217605 0)
(-0.0239734 0.00198387 0)
(-0.0264624 0.00171851 0)
(-0.0285286 0.00137775 0)
(-0.0300731 0.000961403 0)
(-0.0310028 0.000474145 0)
(-0.0312376 -7.2133e-05 0)
(-0.0307199 -0.000656582 0)
(-0.0294251 -0.0012489 0)
(-0.0273733 -0.00181049 0)
(-0.0246359 -0.00229723 0)
(-0.0213392 -0.00266387 0)
(-0.0176617 -0.00286985 0)
(-0.0138248 -0.00288547 0)
(-0.010075 -0.00269758 0)
(-0.0066619 -0.00231367 0)
(-0.00380963 -0.00176462 0)
(-0.00168774 -0.00110832 0)
(-0.000380147 -0.000435287 0)
(0.000153037 0.000122123 0)
(0.000120068 0.000319738 0)
(-0.00011396 0.000189264 0)
(-0.00104425 0.00157645 0)
(-0.00319845 0.00307866 0)
(-0.00628649 0.00436177 0)
(-0.0101029 0.0053264 0)
(-0.0144466 0.00596527 0)
(-0.0191123 0.00630896 0)
(-0.0239102 0.00639579 0)
(-0.0286685 0.00625654 0)
(-0.0332289 0.00590966 0)
(-0.0374403 0.00536234 0)
(-0.0411544 0.00461486 0)
(-0.0442247 0.00366667 0)
(-0.0465085 0.00252305 0)
(-0.0478739 0.00120159 0)
(-0.0482099 -0.000262495 0)
(-0.0474385 -0.00181254 0)
(-0.04553 -0.00337028 0)
(-0.0425159 -0.00483847 0)
(-0.0384985 -0.0061078 0)
(-0.0336558 -0.00706764 0)
(-0.0282376 -0.00761975 0)
(-0.0225528 -0.00769312 0)
(-0.0169459 -0.00725782 0)
(-0.0117662 -0.00633565 0)
(-0.00732917 -0.00500695 0)
(-0.00387628 -0.00341527 0)
(-0.00153199 -0.00177258 0)
(-0.000276022 -0.000371044 0)
(4.59144e-05 0.000350545 0)
(-0.000244202 0.000904359 0)
(-0.00171587 0.00359175 0)
(-0.004825 0.00623692 0)
(-0.00907532 0.00845297 0)
(-0.0141801 0.0101172 0)
(-0.0198949 0.0112219 0)
(-0.0259748 0.0118109 0)
(-0.0321919 0.0119401 0)
(-0.0383377 0.011656 0)
(-0.0442169 0.0109872 0)
(-0.0496413 0.00994645 0)
(-0.0544255 0.0085367 0)
(-0.0583866 0.00676114 0)
(-0.061347 0.00463401 0)
(-0.0631427 0.00219129 0)
(-0.063635 -0.000500568 0)
(-0.0627255 -0.00333936 0)
(-0.060373 -0.00618532 0)
(-0.0566099 -0.00886704 0)
(-0.0515544 -0.0111928 0)
(-0.0454172 -0.0129689 0)
(-0.0384989 -0.0140227 0)
(-0.0311761 -0.0142287 0)
(-0.0238745 -0.0135329 0)
(-0.0170316 -0.011972 0)
(-0.0110502 -0.00968546 0)
(-0.00624761 -0.00691998 0)
(-0.00280413 -0.00402898 0)
(-0.000749549 -0.00147331 0)
(-3.23318e-05 0.000129172 0)
(-0.000357545 0.00196504 0)
(-0.00233536 0.00638055 0)
(-0.00635928 0.0104199 0)
(-0.0117189 0.0137183 0)
(-0.0180372 0.0161691 0)
(-0.0250243 0.0177844 0)
(-0.0324004 0.0186302 0)
(-0.0399091 0.0187834 0)
(-0.0473161 0.0183062 0)
(-0.0544009 0.0172373 0)
(-0.0609491 0.0155942 0)
(-0.0667478 0.0133822 0)
(-0.071585 0.0106081 0)
(-0.0752528 0.0072961 0)
(-0.0775561 0.00350239 0)
(-0.0783262 -0.000671834 0)
(-0.0774361 -0.00507308 0)
(-0.0748211 -0.00949183 0)
(-0.070499 -0.0136712 0)
(-0.0645859 -0.0173228 0)
(-0.0573077 -0.0201525 0)
(-0.0490008 -0.0218951 0)
(-0.0401002 -0.0223533 0)
(-0.031111 -0.0214358 0)
(-0.0225651 -0.0191879 0)
(-0.0149663 -0.0158103 0)
(-0.0087278 -0.0116623 0)
(-0.00410801 -0.00725145 0)
(-0.00120894 -0.00321504 0)
(-9.72759e-05 -0.000340577 0)
(-0.000455185 0.00334212 0)
(-0.00289645 0.00989722 0)
(-0.00777849 0.0155822 0)
(-0.0141857 0.0201085 0)
(-0.0216501 0.0234242 0)
(-0.0298353 0.0255855 0)
(-0.0384297 0.0266945 0)
(-0.0471547 0.0268552 0)
(-0.055759 0.0261481 0)
(-0.0640061 0.0246216 0)
(-0.0716646 0.0222964 0)
(-0.0785015 0.0191775 0)
(-0.0842809 0.0152731 0)
(-0.0887663 0.010614 0)
(-0.0917289 0.00527467 0)
(-0.0929626 -0.000610253 0)
(-0.0922994 -0.00683341 0)
(-0.0896337 -0.013112 0)
(-0.0849488 -0.0190943 0)
(-0.0783375 -0.0243797 0)
(-0.0700212 -0.0285536 0)
(-0.060359 -0.0312333 0)
(-0.0498393 -0.0321239 0)
(-0.0390531 -0.0310736 0)
(-0.0286451 -0.0281213 0)
(-0.0192477 -0.0235246 0)
(-0.0114022 -0.0177634 0)
(-0.00547519 -0.0115164 0)
(-0.00166124 -0.005617 0)
(-0.000149515 -0.00103983 0)
(-0.000541079 0.00500381 0)
(-0.00340562 0.0140867 0)
(-0.00908521 0.0216627 0)
(-0.0164759 0.0275611 0)
(-0.0250232 0.0318194 0)
(-0.0343463 0.0345637 0)
(-0.0441053 0.0359478 0)
(-0.054005 0.0361118 0)
(-0.0637846 0.0351581 0)
(-0.0731997 0.0331449 0)
(-0.0820095 0.0300935 0)
(-0.0899678 0.0260047 0)
(-0.0968184 0.0208816 0)
(-0.102296 0.0147555 0)
(-0.106135 0.00771118 0)
(-0.10808 -8.89774e-05 0)
(-0.107906 -0.0083872 0)
(-0.105449 -0.0168272 0)
(-0.100631 -0.0249547 0)
(-0.0934954 -0.0322415 0)
(-0.0842364 -0.0381268 0)
(-0.0732182 -0.0420777 0)
(-0.0609775 -0.0436634 0)
(-0.0482001 -0.0426356 0)
(-0.0356688 -0.0389992 0)
(-0.0241834 -0.0330571 0)
(-0.0144577 -0.0254171 0)
(-0.00700742 -0.0169542 0)
(-0.00214644 -0.00873465 0)
(-0.000196841 -0.0019662 0)
(-0.000618261 0.00692319 0)
(-0.00387031 0.018896 0)
(-0.0102881 0.0285989 0)
(-0.0185982 0.0360124 0)
(-0.0281671 0.0412952 0)
(-0.0385741 0.0446673 0)
(-0.0494558 0.0463514 0)
(-0.0605063 0.046534 0)
(-0.0714623 0.0453439 0)
(-0.0820793 0.0428495 0)
(-0.0921149 0.0390695 0)
(-0.101315 0.033994 0)
(-0.109408 0.0276121 0)
(-0.1161 0.0199442 0)
(-0.121082 0.011074 0)
(-0.12404 0.00117914 0)
(-0.124678 -0.00944374 0)
(-0.122747 -0.020367 0)
(-0.11808 -0.0310296 0)
(-0.110642 -0.0407599 0)
(-0.100568 -0.0488221 0)
(-0.088204 -0.05449 0)
(-0.0741213 -0.0571451 0)
(-0.0591069 -0.0563886 0)
(-0.0441084 -0.0521463 0)
(-0.0301397 -0.0447429 0)
(-0.0181461 -0.0349194 0)
(-0.00884825 -0.0237818 0)
(-0.00272131 -0.0126855 0)
(-0.000249609 -0.0031452 0)
(-0.000688304 0.00907783 0)
(-0.00429486 0.024276 0)
(-0.0113928 0.0363298 0)
(-0.0205572 0.0454001 0)
(-0.0310847 0.0517946 0)
(-0.0425205 0.0558504 0)
(-0.0544834 0.0578764 0)
(-0.0666634 0.0581161 0)
(-0.0788017 0.0567307 0)
(-0.0906616 0.0537991 0)
(-0.102007 0.0493334 0)
(-0.112583 0.0433048 0)
(-0.122105 0.0356768 0)
(-0.130255 0.0264435 0)
(-0.136677 0.0156699 0)
(-0.14099 0.00353079 0)
(-0.142811 -0.00965485 0)
(-0.141783 -0.0233983 0)
(-0.137624 -0.037033 0)
(-0.130181 -0.0497305 0)
(-0.119493 -0.0605482 0)
(-0.105851 -0.0685158 0)
(-0.0898354 -0.0727593 0)
(-0.0723293 -0.0726533 0)
(-0.0544666 -0.0679759 0)
(-0.0375265 -0.0590294 0)
(-0.022759 -0.0466854 0)
(-0.0111667 -0.032323 0)
(-0.00345165 -0.0176653 0)
(-0.000318932 -0.0046356 0)
(-0.000751537 0.0114469 0)
(-0.00467982 0.0301786 0)
(-0.0123984 0.0447935 0)
(-0.0223479 0.0556589 0)
(-0.0337644 0.0632563 0)
(-0.046165 0.0680623 0)
(-0.0591567 0.0704887 0)
(-0.072432 0.070848 0)
(-0.0857438 0.0693395 0)
(-0.0988711 0.0660536 0)
(-0.111591 0.0609918 0)
(-0.123658 0.054097 0)
(-0.134783 0.0452927 0)
(-0.144622 0.0345283 0)
(-0.152778 0.0218273 0)
(-0.158799 0.00733765 0)
(-0.162203 -0.00862183 0)
(-0.162509 -0.0255215 0)
(-0.159288 -0.0425979 0)
(-0.152234 -0.058859 0)
(-0.141243 -0.0731267 0)
(-0.126501 -0.0841307 0)
(-0.108555 -0.0906596 0)
(-0.0883545 -0.09176 0)
(-0.0672273 -0.0869603 0)
(-0.0467656 -0.0764645 0)
(-0.0286101 -0.0612521 0)
(-0.0141488 -0.0430196 0)
(-0.00440968 -0.0239579 0)
(-0.000416479 -0.00653267 0)
(-0.000807409 0.0140091 0)
(-0.00502252 0.0365539 0)
(-0.0132976 0.0539239 0)
(-0.0239555 0.0667156 0)
(-0.0361792 0.0756079 0)
(-0.0494635 0.0812372 0)
(-0.063409 0.0841354 0)
(-0.0777165 0.0846963 0)
(-0.0921574 0.083164 0)
(-0.106534 0.0796423 0)
(-0.120647 0.0741177 0)
(-0.134267 0.0664954 0)
(-0.147108 0.0566439 0)
(-0.158816 0.0444467 0)
(-0.168953 0.0298603 0)
(-0.177001 0.0129757 0)
(-0.182379 -0.00591884 0)
(-0.184471 -0.0262802 0)
(-0.182682 -0.0472695 0)
(-0.176516 -0.0677358 0)
(-0.165676 -0.0862463 0)
(-0.15018 -0.101179 0)
(-0.13047 -0.110893 0)
(-0.107509 -0.113982 0)
(-0.0827912 -0.109579 0)
(-0.0582531 -0.097667 0)
(-0.0360181 -0.0792706 0)
(-0.0179926 -0.0564361 0)
(-0.00567386 -0.0319429 0)
(-0.000554932 -0.0089711 0)
(-0.000854855 0.0167407 0)
(-0.00531841 0.0433471 0)
(-0.0140794 0.0636468 0)
(-0.0253579 0.078485 0)
(-0.0382901 0.0887587 0)
(-0.052352 0.0952843 0)
(-0.067142 0.0987309 0)
(-0.0823737 0.0995861 0)
(-0.0978428 0.0981474 0)
(-0.113382 0.0945341 0)
(-0.128824 0.0887152 0)
(-0.143965 0.0805497 0)
(-0.158537 0.0698359 0)
(-0.172184 0.0563708 0)
(-0.184446 0.0400166 0)
(-0.194752 0.0207747 0)
(-0.202431 -0.00113437 0)
(-0.206736 -0.0251914 0)
(-0.2069 -0.0505165 0)
(-0.202213 -0.075823 0)
(-0.192137 -0.0994231 0)
(-0.176447 -0.119306 0)
(-0.15539 -0.133314 0)
(-0.12984 -0.139441 0)
(-0.101389 -0.136238 0)
(-0.0723082 -0.123269 0)
(-0.0452847 -0.101477 0)
(-0.0229031 -0.073254 0)
(-0.00732985 -0.0421001 0)
(-0.00074881 -0.0121283 0)
(-0.000892749 0.0196151 0)
(-0.00556292 0.0504978 0)
(-0.0147326 0.0738788 0)
(-0.026532 0.0908666 0)
(-0.0400537 0.102595 0)
(-0.054756 0.110079 0)
(-0.0702367 0.114143 0)
(-0.0862251 0.115383 0)
(-0.102545 0.114158 0)
(-0.119066 0.110608 0)
(-0.135659 0.104683 0)
(-0.152157 0.0961895 0)
(-0.168324 0.0848444 0)
(-0.183821 0.0703389 0)
(-0.198187 0.0524156 0)
(-0.210823 0.0309542 0)
(-0.220993 0.00606739 0)
(-0.227845 -0.0217983 0)
(-0.230453 -0.0517677 0)
(-0.227887 -0.0824646 0)
(-0.219334 -0.111976 0)
(-0.204254 -0.137896 0)
(-0.182585 -0.157485 0)
(-0.154972 -0.16799 0)
(-0.122966 -0.167147 0)
(-0.0890992 -0.153823 0)
(-0.0566599 -0.12864 0)
(-0.0290833 -0.0942543 0)
(-0.00947126 -0.0550108 0)
(-0.00101556 -0.0162291 0)
(-0.000920455 0.0226035 0)
(-0.00575416 0.057941 0)
(-0.0152518 0.0845275 0)
(-0.0274622 0.103743 0)
(-0.0414336 0.116974 0)
(-0.0566043 0.125455 0)
(-0.0725705 0.130183 0)
(-0.0890775 0.131876 0)
(-0.105979 0.130968 0)
(-0.123185 0.127624 0)
(-0.140611 0.121779 0)
(-0.158138 0.113184 0)
(-0.175575 0.101465 0)
(-0.192622 0.0861971 0)
(-0.208847 0.066982 0)
(-0.223658 0.0435495 0)
(-0.236299 0.0158662 0)
(-0.245856 -0.0157448 0)
(-0.251281 -0.050475 0)
(-0.251453 -0.0869293 0)
(-0.245274 -0.123036 0)
(-0.231834 -0.156038 0)
(-0.210645 -0.182593 0)
(-0.181948 -0.199082 0)
(-0.147042 -0.202172 0)
(-0.10854 -0.189662 0)
(-0.0702877 -0.161468 0)
(-0.0367174 -0.120277 0)
(-0.0121991 -0.0713537 0)
(-0.00137681 -0.02155 0)
(-0.000938534 0.0256767 0)
(-0.00589626 0.0656118 0)
(-0.0156449 0.0954962 0)
(-0.0281524 0.116983 0)
(-0.0424161 0.131726 0)
(-0.0578483 0.141201 0)
(-0.0740401 0.146596 0)
(-0.0907511 0.148769 0)
(-0.107865 0.14824 0)
(-0.125332 0.145208 0)
(-0.143118 0.139599 0)
(-0.161161 0.131109 0)
(-0.179329 0.119277 0)
(-0.197385 0.103553 0)
(-0.214957 0.0833882 0)
(-0.231509 0.0583447 0)
(-0.24632 0.028211 0)
(-0.258475 -0.0068596 0)
(-0.266878 -0.0462042 0)
(-0.270273 -0.0884924 0)
(-0.267309 -0.131604 0)
(-0.256689 -0.172532 0)
(-0.237406 -0.207393 0)
(-0.209103 -0.231646 0)
(-0.172556 -0.240659 0)
(-0.130161 -0.230721 0)
(-0.086125 -0.200466 0)
(-0.0459399 -0.152153 0)
(-0.0156184 -0.0918887 0)
(-0.00185958 -0.028425 0)
(-0.000949654 0.0288101 0)
(-0.0060038 0.0734539 0)
(-0.0159425 0.106692 0)
(-0.0286398 0.130447 0)
(-0.0430284 0.146659 0)
(-0.0584848 0.157063 0)
(-0.0745898 0.163063 0)
(-0.0911143 0.165676 0)
(-0.107971 0.165519 0)
(-0.12515 0.162841 0)
(-0.142671 0.157563 0)
(-0.160534 0.149339 0)
(-0.17868 0.137624 0)
(-0.196959 0.121749 0)
(-0.215093 0.10102 0)
(-0.232647 0.0748214 0)
(-0.249002 0.042747 0)
(-0.26333 0.00473968 0)
(-0.274565 -0.0387471 0)
(-0.281408 -0.0865563 0)
(-0.282343 -0.136664 0)
(-0.275725 -0.18598 0)
(-0.259985 -0.230232 0)
(-0.234011 -0.264024 0)
(-0.197749 -0.281278 0)
(-0.152963 -0.276323 0)
(-0.103835 -0.245748 0)
(-0.056788 -0.190585 0)
(-0.01983 -0.117422 0)
(-0.00249751 -0.0372474 0)
(-0.000959824 0.03199 0)
(-0.00610732 0.0814332 0)
(-0.0162098 0.118042 0)
(-0.029012 0.144002 0)
(-0.0433592 0.161561 0)
(-0.0585801 0.172746 0)
(-0.0742397 0.179202 0)
(-0.0901191 0.182123 0)
(-0.106159 0.182243 0)
(-0.122391 0.179869 0)
(-0.13889 0.174933 0)
(-0.155722 0.167058 0)
(-0.172914 0.155629 0)
(-0.19042 0.139879 0)
(-0.208089 0.118979 0)
(-0.225632 0.092149 0)
(-0.242594 0.0587849 0)
(-0.258311 0.0185977 0)
(-0.271855 -0.0282179 0)
(-0.282005 -0.0807895 0)
(-0.287207 -0.137349 0)
(-0.28557 -0.194948 0)
(-0.275011 -0.24918 0)
(-0.253585 -0.294007 0)
(-0.220135 -0.321937 0)
(-0.175312 -0.324977 0)
(-0.122665 -0.296796 0)
(-0.0691354 -0.235981 0)
(-0.0249174 -0.148745 0)
(-0.00333215 -0.0484688 0)
(-0.000980231 0.0352245 0)
(-0.006261 0.0895581 0)
(-0.0165608 0.129511 0)
(-0.029426 0.157532 0)
(-0.0435805 0.176218 0)
(-0.0582926 0.187926 0)
(-0.0731112 0.194578 0)
(-0.0878309 0.197568 0)
(-0.102424 0.19776 0)
(-0.116969 0.195534 0)
(-0.131595 0.190846 0)
(-0.146442 0.183306 0)
(-0.16163 0.172251 0)
(-0.177231 0.15684 0)
(-0.193242 0.136138 0)
(-0.20956 0.109226 0)
(-0.225941 0.0753219 0)
(-0.241956 0.0339061 0)
(-0.256912 -0.0151216 0)
(-0.269797 -0.0712612 0)
(-0.279169 -0.133145 0)
(-0.283069 -0.198214 0)
(-0.279047 -0.262273 0)
(-0.264373 -0.319021 0)
(-0.236637 -0.359824 0)
(-0.194912 -0.374248 0)
(-0.141352 -0.352206 0)
(-0.0826162 -0.288229 0)
(-0.0309317 -0.186533 0)
(-0.00441557 -0.0625926 0)
(-0.00103035 0.0385592 0)
(-0.00655384 0.0979074 0)
(-0.0171775 0.141127 0)
(-0.0301299 0.170961 0)
(-0.043967 0.190419 0)
(-0.0578904 0.202259 0)
(-0.0714417 0.208716 0)
(-0.0844434 0.211411 0)
(-0.0969128 0.211354 0)
(-0.108982 0.209008 0)
(-0.120843 0.204368 0)
(-0.132714 0.197045 0)
(-0.144813 0.186361 0)
(-0.157338 0.171425 0)
(-0.17045 0.151235 0)
(-0.184244 0.124773 0)
(-0.198722 0.0911093 0)
(-0.213735 0.0495207 0)
(-0.228909 -0.000387828 0)
(-0.243541 -0.0585311 0)
(-0.256454 -0.124059 0)
(-0.265844 -0.195035 0)
(-0.26914 -0.267849 0)
(-0.263036 -0.336462 0)
(-0.243907 -0.391644 0)
(-0.208938 -0.42079 0)
(-0.158083 -0.409503 0)
(-0.0965529 -0.34643 0)
(-0.0378766 -0.231211 0)
(-0.00581628 -0.0801631 0)
(-0.00114381 0.0421012 0)
(-0.00712763 0.106668 0)
(-0.0183359 0.153015 0)
(-0.0314863 0.184263 0)
(-0.0449116 0.20397 0)
(-0.0577546 0.215383 0)
(-0.0695787 0.221108 0)
(-0.0802653 0.223017 0)
(-0.0899021 0.222278 0)
(-0.0986931 0.219442 0)
(-0.106905 0.214553 0)
(-0.11484 0.207245 0)
(-0.122818 0.196839 0)
(-0.131165 0.182436 0)
(-0.140202 0.163003 0)
(-0.150231 0.137464 0)
(-0.161498 0.104791 0)
(-0.174152 0.0640954 0)
(-0.188174 0.014721 0)
(-0.20324 -0.0436358 0)
(-0.218573 -0.110718 0)
(-0.232737 -0.185367 0)
(-0.243347 -0.264903 0)
(-0.246881 -0.344133 0)
(-0.23878 -0.414032 0)
(-0.214308 -0.460572 0)
(-0.170564 -0.465076 0)
(-0.109909 -0.408638 0)
(-0.0457015 -0.282769 0)
(-0.0076324 -0.101758 0)
(-0.00138012 0.0460579 0)
(-0.0082077 0.116189 0)
(-0.0204423 0.165423 0)
(-0.0339978 0.197476 0)
(-0.0469276 0.216677 0)
(-0.0583579 0.226905 0)
(-0.0679353 0.231203 0)
(-0.0756564 0.231716 0)
(-0.0817221 0.229769 0)
(-0.0864369 0.226002 0)
(-0.0901591 0.220506 0)
(-0.0932817 0.212947 0)
(-0.0962263 0.202672 0)
(-0.0994422 0.188797 0)
(-0.103402 0.170294 0)
(-0.108593 0.146075 0)
(-0.115491 0.115059 0)
(-0.124526 0.0762511 0)
(-0.136016 0.0287884 0)
(-0.150048 -0.027969 0)
(-0.166328 -0.0943258 0)
(-0.183947 -0.169957 0)
(-0.20102 -0.253341 0)
(-0.214266 -0.34067 0)
(-0.218717 -0.42407 0)
(-0.20804 -0.489322 0)
(-0.176182 -0.514324 0)
(-0.121273 -0.471659 0)
(-0.0542999 -0.340545 0)
(-0.0100158 -0.127993 0)
(-0.0018487 0.0508031 0)
(-0.0101565 0.127047 0)
(-0.0240833 0.178749 0)
(-0.0383206 0.210676 0)
(-0.0506154 0.228311 0)
(-0.060184 0.23636 0)
(-0.0668692 0.238378 0)
(-0.070872 0.236789 0)
(-0.0725684 0.233054 0)
(-0.0724012 0.227882 0)
(-0.07084 0.221404 0)
(-0.0683757 0.213319 0)
(-0.0655282 0.203007 0)
(-0.0628553 0.189621 0)
(-0.0609584 0.172171 0)
(-0.0604794 0.149585 0)
(-0.0620852 0.120783 0)
(-0.0664463 0.0847177 0)
(-0.0741787 0.0403891 0)
(-0.0857488 -0.0131019 0)
(-0.101354 -0.0765055 0)
(-0.120709 -0.150258 0)
(-0.142674 -0.234049 0)
(-0.164678 -0.325822 0)
(-0.182033 -0.419771 0)
(-0.187527 -0.503072 0)
(-0.172169 -0.55199 0)
(-0.12885 -0.530957 0)
(-0.063488 -0.402963 0)
(-0.0132062 -0.159558 0)
(-0.00275753 0.0569959 0)
(-0.0135647 0.140139 0)
(-0.0300807 0.193527 0)
(-0.0452347 0.223901 0)
(-0.0565352 0.238499 0)
(-0.0635137 0.243113 0)
(-0.0663966 0.241856 0)
(-0.0657178 0.237402 0)
(-0.0621071 0.231302 0)
(-0.0561887 0.224287 0)
(-0.048562 0.216498 0)
(-0.0398159 0.207653 0)
(-0.0305567 0.197169 0)
(-0.0214276 0.184245 0)
(-0.0131242 0.167945 0)
(-0.00640133 0.147248 0)
(-0.00206126 0.121101 0)
(-0.000963065 0.088446 0)
(-0.00396724 0.048236 0)
(-0.0118506 -0.000573595 0)
(-0.0252513 -0.0590372 0)
(-0.0445172 -0.128172 0)
(-0.0693799 -0.208732 0)
(-0.0983555 -0.300488 0)
(-0.127775 -0.400376 0)
(-0.150569 -0.498655 0)
(-0.155663 -0.572614 0)
(-0.130388 -0.580697 0)
(-0.072892 -0.467199 0)
(-0.017551 -0.197251 0)
(-0.00450846 0.0657984 0)
(-0.0193948 0.156761 0)
(-0.039506 0.210315 0)
(-0.0554563 0.236935 0)
(-0.0648255 0.246502 0)
(-0.0678856 0.246147 0)
(-0.065533 0.240533 0)
(-0.0588007 0.232481 0)
(-0.0486593 0.22353 0)
(-0.035952 0.214354 0)
(-0.0214136 0.205052 0)
(-0.00571723 0.195332 0)
(0.0104709 0.18463 0)
(0.02646 0.172196 0)
(0.0415077 0.157158 0)
(0.0547949 0.138562 0)
(0.0654298 0.115415 0)
(0.0724444 0.0866927 0)
(0.0748188 0.0513655 0)
(0.0715179 0.00835182 0)
(0.0615316 -0.0435449 0)
(0.0439561 -0.105675 0)
(0.0181989 -0.179539 0)
(-0.0155291 -0.266483 0)
(-0.0551978 -0.366405 0)
(-0.0950749 -0.474059 0)
(-0.123489 -0.570979 0)
(-0.122899 -0.613837 0)
(-0.0815965 -0.528686 0)
(-0.0234276 -0.241892 0)
(-0.00786805 0.0792748 0)
(-0.0291597 0.178628 0)
(-0.0534708 0.229333 0)
(-0.0689613 0.248828 0)
(-0.074148 0.250745 0)
(-0.0707768 0.243688 0)
(-0.0608048 0.232684 0)
(-0.0459451 0.220486 0)
(-0.0275757 0.20844 0)
(-0.00676316 0.197042 0)
(0.0156495 0.18627 0)
(0.0389478 0.175771 0)
(0.0624633 0.164979 0)
(0.0855168 0.153187 0)
(0.107377 0.139587 0)
(0.127226 0.123311 0)
(0.144152 0.103453 0)
(0.157136 0.0790762 0)
(0.165062 0.0492186 0)
(0.166712 0.0128477 0)
(0.160795 -0.031221 0)
(0.145964 -0.0844144 0)
(0.12089 -0.14858 0)
(0.0845573 -0.22611 0)
(0.0370297 -0.319498 0)
(-0.0184168 -0.42864 0)
(-0.0715874 -0.542569 0)
(-0.101983 -0.622254 0)
(-0.0873213 -0.580375 0)
(-0.0308619 -0.293958 0)
(-0.0141918 0.101051 0)
(-0.0449121 0.207484 0)
(-0.0720335 0.249515 0)
(-0.0828548 0.256898 0)
(-0.0789071 0.248003 0)
(-0.0645057 0.232594 0)
(-0.04307 0.215564 0)
(-0.0170844 0.199178 0)
(0.0117097 0.184313 0)
(0.0421201 0.171112 0)
(0.0733075 0.15933 0)
(0.104625 0.148501 0)
(0.135503 0.13803 0)
(0.165365 0.12724 0)
(0.193574 0.115398 0)
(0.219395 0.101736 0)
(0.241966 0.0854651 0)
(0.260286 0.0657759 0)
(0.273206 0.0418342 0)
(0.279398 0.0127448 0)
(0.277387 -0.0225478 0)
(0.265511 -0.0653283 0)
(0.24189 -0.117414 0)
(0.20452 -0.181579 0)
(0.151661 -0.261987 0)
(0.083375 -0.363287 0)
(0.00601365 -0.484179 0)
(-0.060441 -0.597026 0)
(-0.0849436 -0.612027 0)
(-0.038529 -0.353444 0)
(-0.0253161 0.137341 0)
(-0.0677797 0.242938 0)
(-0.0897462 0.265704 0)
(-0.0850613 0.254429 0)
(-0.0623929 0.231855 0)
(-0.0296173 0.207515 0)
(0.00845336 0.185067 0)
(0.0489082 0.165621 0)
(0.090027 0.14921 0)
(0.130832 0.135441 0)
(0.170763 0.123762 0)
(0.209453 0.113563 0)
(0.246595 0.104214 0)
(0.281844 0.0950791 0)
(0.314765 0.0855184 0)
(0.344785 0.0748922 0)
(0.371173 0.0625609 0)
(0.39302 0.0478824 0)
(0.409224 0.0302053 0)
(0.418418 0.00884207 0)
(0.41907 -0.017018 0)
(0.409349 -0.0483638 0)
(0.387036 -0.0867047 0)
(0.34949 -0.134556 0)
(0.293599 -0.19647 0)
(0.216331 -0.280189 0)
(0.118586 -0.394165 0)
(0.0140648 -0.529243 0)
(-0.0643658 -0.609723 0)
(-0.0416998 -0.419254 0)
(-0.0408384 0.199294 0)
(-0.0892639 0.275249 0)
(-0.0793458 0.260409 0)
(-0.037302 0.225368 0)
(0.0178586 0.19023 0)
(0.0766194 0.160198 0)
(0.134683 0.136 0)
(0.19014 0.116905 0)
(0.242302 0.101878 0)
(0.291085 0.0899597 0)
(0.336649 0.0803382 0)
(0.379194 0.0723234 0)
(0.418857 0.0653138 0)
(0.455648 0.0587705 0)
(0.489417 0.0521968 0)
(0.519822 0.0451257 0)
(0.546323 0.037111 0)
(0.568167 0.0277187 0)
(0.584388 0.016513 0)
(0.593702 0.00302339 0)
(0.594692 -0.013122 0)
(0.585522 -0.0326209 0)
(0.563911 -0.0564874 0)
(0.526999 -0.0865015 0)
(0.470951 -0.12632 0)
(0.390493 -0.183838 0)
(0.280536 -0.273982 0)
(0.142467 -0.410599 0)
(-0.00532201 -0.553393 0)
(-0.0258953 -0.476707 0)
(-0.0336356 0.294773 0)
(-0.046387 0.274417 0)
(0.0561532 0.200935 0)
(0.159414 0.150082 0)
(0.251331 0.114101 0)
(0.331518 0.0881562 0)
(0.401107 0.0697074 0)
(0.46154 0.0565935 0)
(0.514382 0.0471191 0)
(0.561056 0.0401141 0)
(0.602711 0.0347855 0)
(0.640205 0.0305692 0)
(0.674125 0.0270395 0)
(0.70481 0.0238572 0)
(0.73236 0.0207386 0)
(0.756652 0.0174365 0)
(0.777344 0.0137293 0)
(0.793878 0.00941611 0)
(0.805461 0.00431134 0)
(0.811211 -0.00175198 0)
(0.809947 -0.00897417 0)
(0.800043 -0.017662 0)
(0.779665 -0.0282369 0)
(0.746319 -0.041545 0)
(0.696297 -0.059528 0)
(0.623499 -0.0871385 0)
(0.517816 -0.137744 0)
(0.364388 -0.240755 0)
(0.143541 -0.407113 0)
(0.0586553 -0.458289 0)
(0.303448 0.181055 0)
(0.383341 0.144719 0)
(0.562437 0.0916169 0)
(0.688842 0.0592692 0)
(0.771511 0.0393531 0)
(0.830438 0.0265889 0)
(0.875107 0.0184681 0)
(0.910062 0.0133392 0)
(0.938217 0.0100595 0)
(0.961577 0.00790623 0)
(0.981463 0.00644017 0)
(0.998719 0.00538825 0)
(1.01386 0.00457252 0)
(1.02719 0.00387067 0)
(1.0388 0.00319355 0)
(1.04864 0.00247226 0)
(1.05654 0.00165105 0)
(1.0622 0.000686558 0)
(1.06525 -0.000453765 0)
(1.06517 -0.00173813 0)
(1.06133 -0.00331604 0)
(1.05306 -0.00521705 0)
(1.03947 -0.00749867 0)
(1.0193 -0.0103434 0)
(0.99048 -0.0142229 0)
(0.948928 -0.0204508 0)
(0.884957 -0.032886 0)
(0.776822 -0.064003 0)
(0.544934 -0.139603 0)
(0.382488 -0.201796 0)
)
;

boundaryField
{
    movingWall
    {
        type            fixedValue;
        value           uniform (1.2 0 0);
    }
    fixedWalls
    {
        type            noSlip;
    }
    frontAndBack
    {
        type            empty;
    }
}


// ************************************************************************* //
