/*--------------------------------*- C++ -*----------------------------------*\
  =========                 |
  \\      /  F ield         | OpenFOAM: The Open Source CFD Toolbox
   \\    /   O peration     | Website:  https://openfoam.org
    \\  /    A nd           | Version:  7
     \\/     M anipulation  |
\*---------------------------------------------------------------------------*/
FoamFile
{
    version     2.0;
    format      ascii;
    class       volScalarField;
    location    "600";
    object      epsilon;
}
// * * * * * * * * * * * * * * * * * * * * * * * * * * * * * * * * * * * * * //

dimensions      [0 2 -3 0 0 0 0];

internalField   nonuniform List<scalar> 
16900
(
1.50051
2.39973
3.48606
4.4492
5.28085
5.98586
6.56957
7.0313
7.36127
7.54402
7.57153
7.47512
7.6855
7.81521
7.73592
35.4708
39.8564
44.5266
49.5019
54.782
60.3681
66.2657
72.4798
79.0178
85.8853
93.0885
100.632
108.519
116.753
125.335
134.264
143.539
153.156
163.111
173.396
184.004
194.924
206.144
217.649
229.425
241.452
253.713
266.185
278.846
291.67
304.632
317.702
330.853
344.053
357.27
370.472
383.626
396.696
409.65
422.453
435.072
447.476
459.632
471.513
483.095
494.355
505.277
515.854
526.085
535.986
545.593
554.945
563.877
572.414
580.574
588.374
595.831
602.963
609.79
616.332
622.611
628.649
634.47
640.096
645.553
650.865
656.055
661.146
666.162
671.123
676.051
680.966
685.887
690.832
695.816
700.853
705.956
711.134
716.394
721.739
727.17
732.683
738.264
743.898
749.561
755.217
760.819
766.312
771.622
776.659
781.321
785.48
788.992
791.696
793.409
793.957
793.107
790.719
786.422
780.3
772.85
763.951
757.81
754.443
749.81
743.259
734.703
724.201
711.879
697.905
682.481
665.821
648.15
629.688
610.651
591.238
571.632
551.996
532.473
513.187
494.239
475.713
457.678
440.185
423.273
406.971
391.295
376.257
361.858
348.098
334.969
322.464
310.57
299.279
288.582
278.485
269.028
260.231
251.949
244.103
236.65
229.565
222.83
216.435
210.372
204.631
199.208
194.096
189.29
184.785
180.579
176.668
173.049
169.723
166.687
163.942
161.487
159.324
157.451
155.87
154.579
153.575
152.858
152.42
152.257
152.361
152.721
153.326
154.162
155.216
156.472
157.915
159.528
161.299
163.215
165.267
167.453
169.784
172.3
175.139
178.4
182.03
186.318
191.812
199.876
2.6689
2.52034
3.26069
4.09852
4.90725
5.67394
6.42122
7.18865
8.02964
9.01302
10.2174
11.6866
13.336
15.4721
18.5893
22.5418
25.0282
27.5179
30.1277
32.87
35.7473
38.7615
41.9146
45.2086
48.6447
52.224
55.9469
59.8132
63.8222
67.9725
72.2623
76.6889
81.2492
85.9393
90.7547
95.6904
100.741
105.899
111.158
116.512
121.95
127.465
133.048
138.688
144.375
150.1
155.85
161.614
167.381
173.138
178.874
184.577
190.234
195.834
201.365
206.815
212.175
217.435
222.585
227.618
232.529
237.313
241.97
246.501
250.911
255.215
259.435
263.505
267.423
271.194
274.824
278.318
281.684
284.928
288.059
291.085
294.015
296.857
299.622
302.318
304.957
307.547
310.099
312.622
315.126
317.619
320.112
322.612
325.127
327.665
330.232
332.835
335.477
338.163
340.892
343.667
346.484
349.339
352.223
355.124
358.027
360.91
363.746
366.503
369.141
371.613
373.862
375.827
377.435
378.606
379.258
379.291
378.626
377.138
374.739
371.623
367.965
364.183
360.487
356.207
351.179
345.38
338.846
331.635
323.826
315.502
306.756
297.678
288.358
278.881
269.328
259.771
250.272
240.889
231.668
222.649
213.865
205.34
197.096
189.145
181.499
174.162
167.139
160.429
154.03
147.939
142.15
136.66
131.461
126.548
121.918
117.56
113.543
109.811
106.324
103.057
99.9894
97.1093
94.4062
91.872
89.5004
87.2859
85.2236
83.3095
81.5399
79.9118
78.4227
77.0704
75.8532
74.7699
73.8198
73.0022
72.317
71.764
71.343
71.0538
70.8958
70.868
70.9686
71.1951
71.5442
72.0115
72.5916
73.2781
74.0638
74.9405
75.8998
76.9327
78.0299
79.1825
80.3817
81.6195
82.8892
84.1851
85.5088
86.934
88.3771
89.8044
91.2265
92.453
3.61991
2.99364
3.55303
4.33058
5.16076
6.01271
6.90276
7.86857
8.95597
10.2074
11.6434
13.2407
14.9516
16.856
18.9796
21.1747
23.2655
25.4183
27.6695
30.0284
32.4977
35.0789
37.7734
40.5822
43.5062
46.5458
49.7012
52.9719
56.3575
59.8567
63.468
67.1896
71.019
74.9533
78.9893
83.1233
87.351
91.6679
96.0687
100.548
105.1
109.718
114.396
119.125
123.9
128.711
133.551
138.411
143.283
148.158
153.025
157.877
162.704
167.496
172.244
176.939
181.573
186.136
190.622
195.022
199.332
203.545
207.659
211.673
215.584
219.398
223.096
226.666
230.107
233.42
236.607
239.673
242.621
245.456
248.182
250.806
253.332
255.769
258.121
260.397
262.604
264.748
266.838
268.881
270.885
272.856
274.802
276.73
278.647
280.558
282.47
284.388
286.317
288.258
290.216
292.19
294.18
296.184
298.196
300.208
302.209
304.184
306.112
307.971
309.728
311.349
312.791
314.002
314.929
315.503
315.661
315.32
314.393
312.845
310.631
307.863
304.619
301.01
297.054
292.591
287.563
281.974
275.86
269.272
262.271
254.926
247.307
239.485
231.529
223.504
215.47
207.481
199.585
191.822
184.227
176.829
169.651
162.71
156.019
149.589
143.423
137.526
131.898
126.537
121.441
116.606
112.026
107.696
103.612
99.7658
96.1517
92.7807
89.6476
86.7337
84.0207
81.4926
79.136
76.9397
74.8945
72.9926
71.2275
69.5937
68.0863
66.7013
65.4351
64.285
63.2484
62.3237
61.5093
60.8044
60.2081
59.7201
59.3402
59.0682
58.9039
58.8467
58.896
59.0505
59.3081
59.6664
60.1219
60.6703
61.3065
62.0244
62.8174
63.6781
64.5985
65.5704
66.5852
67.6341
68.7082
69.7987
70.896
71.9871
73.0762
74.1432
75.1462
76.043
76.8148
77.3321
4.40689
3.47048
3.91529
4.65023
5.49226
6.39722
7.36764
8.42574
9.59776
10.9018
12.338
13.8903
15.539
17.2967
19.1638
21.1035
23.0968
25.1711
27.3401
29.6106
31.9861
34.4684
37.0594
39.7601
42.5717
45.4948
48.5299
51.6773
54.9367
58.3076
61.7893
65.3805
69.0796
72.8847
76.7934
80.8028
84.9098
89.1106
93.4012
97.7771
102.233
106.764
111.364
116.028
120.747
125.516
130.326
135.171
140.042
144.931
149.828
154.725
159.613
164.483
169.323
174.126
178.882
183.58
188.212
192.769
197.243
201.627
205.914
210.1
214.175
218.129
221.953
225.641
229.19
232.601
235.874
239.011
242.013
244.884
247.628
250.248
252.749
255.135
257.413
259.588
261.666
263.654
265.558
267.386
269.143
270.838
272.476
274.064
275.608
277.116
278.593
280.045
281.478
282.894
284.297
285.691
287.077
288.454
289.82
291.17
292.497
293.791
295.035
296.212
297.295
298.256
299.056
299.651
299.993
300.019
299.664
298.875
297.596
295.815
293.509
290.714
287.461
283.778
279.648
275.023
269.888
264.261
258.178
251.687
244.847
237.72
230.368
222.858
215.251
207.606
199.978
192.416
184.961
177.652
170.519
163.587
156.876
150.402
144.175
138.204
132.492
127.041
121.852
116.921
112.245
107.821
103.642
99.7042
96.0005
92.5253
89.2749
86.2446
83.4243
80.802
78.3653
76.1022
74.0019
72.0544
70.2514
68.5855
67.0501
65.6399
64.35
63.1765
62.116
61.1657
60.3233
59.5871
58.9557
58.4281
58.0035
57.6813
57.4609
57.3417
57.3229
57.4034
57.5816
57.8556
58.2225
58.6791
59.2211
59.8436
60.541
61.3067
62.1339
63.015
63.9418
64.9062
65.8994
66.9125
67.9366
68.9621
69.9779
70.9683
71.9163
72.7978
73.5794
74.2303
74.7527
75.0898
5.08037
3.89797
4.25798
4.95682
5.79729
6.7259
7.73331
8.82858
10.0248
11.3304
12.7443
14.2595
15.8686
17.5721
19.3696
21.2535
23.222
25.282
27.44
29.701
32.0685
34.5448
37.1321
39.8322
42.6466
45.5766
48.6233
51.7877
55.0704
58.4716
61.9914
65.6293
69.3848
73.2565
77.2431
81.3425
85.5522
89.8695
94.2908
98.8124
103.43
108.138
112.933
117.807
122.755
127.77
132.844
137.97
143.14
148.344
153.575
158.821
164.073
169.322
174.555
179.762
184.932
190.053
195.114
200.103
205.011
209.827
214.541
219.141
223.608
227.934
232.112
236.135
240.001
243.706
247.25
250.633
253.855
256.918
259.824
262.575
265.176
267.629
269.94
272.113
274.153
276.068
277.862
279.542
281.116
282.589
283.968
285.26
286.471
287.608
288.679
289.69
290.646
291.553
292.416
293.24
294.029
294.785
295.509
296.199
296.854
297.467
298.027
298.522
298.93
299.229
299.385
299.36
299.105
298.58
297.729
296.523
294.918
292.894
290.428
287.523
284.18
280.395
276.146
271.411
266.192
260.508
254.397
247.903
241.081
233.991
226.693
219.25
211.72
204.163
196.629
189.167
181.819
174.621
167.602
160.788
154.199
147.849
141.749
135.907
130.327
125.009
119.955
115.162
110.625
106.342
102.305
98.5112
94.9533
91.6255
88.5184
85.6233
82.9306
80.4303
78.1118
75.965
73.9801
72.1482
70.4611
68.9117
67.4937
66.2017
65.0309
63.9773
63.0374
62.2085
61.4882
60.8745
60.3659
59.9609
59.6585
59.4574
59.3564
59.3542
59.4491
59.6391
59.9217
60.2939
60.7518
61.2912
61.9069
62.5933
63.3438
64.1515
65.0088
65.9079
66.8404
67.7976
68.7707
69.7507
70.7282
71.6928
72.6292
73.5148
74.3309
75.0539
75.6564
76.1219
76.4774
76.7147
5.6601
4.26437
4.55187
5.21543
6.04309
6.97442
7.99214
9.09686
10.2946
11.59
12.9837
14.4741
16.0591
17.739
19.5144
21.3849
23.3518
25.4184
27.5891
29.8679
32.2582
34.7629
37.3848
40.1263
42.9896
45.977
49.0903
52.3313
55.7017
59.2026
62.8349
66.5993
70.496
74.5246
78.6846
82.9748
87.3934
91.9383
96.6066
101.395
106.3
111.316
116.439
121.663
126.982
132.388
137.874
143.432
149.054
154.73
160.449
166.202
171.976
177.761
183.544
189.311
195.05
200.747
206.387
211.957
217.444
222.832
228.109
233.245
238.229
243.052
247.704
252.179
256.471
260.575
264.489
268.21
271.739
275.074
278.216
281.168
283.93
286.506
288.899
291.114
293.155
295.028
296.738
298.292
299.697
300.957
302.081
303.075
303.945
304.7
305.346
305.891
306.343
306.707
306.991
307.201
307.345
307.428
307.454
307.426
307.347
307.216
307.028
306.775
306.446
306.02
305.474
304.785
303.913
302.834
301.505
299.896
297.972
295.704
293.064
290.035
286.6
282.737
278.42
273.635
268.382
262.68
256.561
250.068
243.251
236.165
228.871
221.428
213.896
206.331
198.787
191.311
183.946
176.729
169.691
162.858
156.25
149.884
143.771
137.918
132.332
127.013
121.963
117.178
112.657
108.394
104.385
100.625
97.1092
93.8239
90.7597
87.9078
85.2591
82.8042
80.5334
78.437
76.5061
74.7319
73.1068
71.6235
70.2759
69.0583
67.966
66.9947
66.1408
65.4012
64.7733
64.2546
63.8431
63.5369
63.334
63.2325
63.2304
63.3252
63.5144
63.7949
64.1629
64.6143
65.1443
65.7476
66.418
67.149
67.9334
68.7637
69.6317
70.5291
71.4472
72.3771
73.3098
74.2361
75.1461
76.0277
76.8549
77.6113
78.2779
78.8326
79.2543
79.5403
79.7399
79.8813
6.15658
4.56889
4.78823
5.41484
6.22124
7.14132
8.15285
9.25146
10.4394
11.72
13.0952
14.5662
16.1338
17.7996
19.5656
21.4336
23.4061
25.4861
27.6774
29.9838
32.4089
34.9564
37.6295
40.4317
43.3659
46.4355
49.6433
52.9921
56.4846
60.1231
63.9095
67.8455
71.9323
76.1706
80.5605
85.1017
89.7933
94.6336
99.6204
104.751
110.021
115.427
120.963
126.625
132.404
138.294
144.288
150.375
156.547
162.793
169.102
175.462
181.861
188.284
194.718
201.147
207.555
213.926
220.243
226.489
232.647
238.699
244.613
250.366
255.946
261.343
266.545
271.543
276.329
280.897
285.242
289.359
293.247
296.903
300.326
303.518
306.478
309.208
311.711
313.99
316.049
317.894
319.53
320.962
322.196
323.24
324.098
324.778
325.288
325.634
325.825
325.87
325.776
325.551
325.204
324.744
324.179
323.521
322.777
321.952
321.056
320.095
319.072
317.979
316.827
315.604
314.296
312.893
311.372
309.713
307.886
305.862
303.607
301.087
298.269
295.12
291.611
287.707
283.377
278.602
273.378
267.716
261.643
255.195
248.417
241.362
234.086
226.649
219.108
211.521
203.942
196.419
188.998
181.717
174.609
167.701
161.017
154.573
148.383
142.456
136.798
131.413
126.302
121.463
116.894
112.592
108.553
104.771
101.239
97.9402
94.8667
92.0103
89.362
86.9125
84.6526
82.5729
80.6645
78.9191
77.3287
75.8863
74.5854
73.4203
72.3859
71.4775
70.6912
70.0235
69.471
69.0307
68.7
68.4759
68.3557
68.3365
68.4152
68.5883
68.8519
69.2019
69.6334
70.1411
70.7192
71.3612
72.0603
72.809
73.5996
74.4239
75.2733
76.1392
77.0125
77.8843
78.7454
79.5864
80.3971
81.1538
81.8379
82.4341
82.9242
83.2886
83.5125
83.606
83.6377
83.668
6.5775
4.81528
4.96791
5.55527
6.3344
7.23418
8.22915
9.31212
10.4834
11.7456
13.1017
14.5544
16.1063
17.7604
19.5198
21.3875
23.367
25.4616
27.6755
30.0127
32.4774
35.0741
37.8068
40.6799
43.6977
46.8642
50.1838
53.6603
57.2976
61.0991
65.068
69.2071
73.5186
78.0042
82.6649
87.5013
92.5129
97.6988
103.057
108.585
114.28
120.137
126.15
132.315
138.623
145.067
151.639
158.327
165.123
172.013
178.986
186.028
193.125
200.26
207.418
214.581
221.729
228.843
235.904
242.89
249.782
256.546
263.146
269.567
275.794
281.814
287.612
293.178
298.5
303.571
308.382
312.929
317.207
321.212
324.942
328.396
331.573
334.474
337.099
339.453
341.537
343.358
344.918
346.224
347.282
348.097
348.675
349.023
349.149
349.06
348.765
348.272
347.592
346.732
345.703
344.515
343.179
341.71
340.122
338.422
336.619
334.742
332.797
330.788
328.733
326.637
324.499
322.321
320.094
317.805
315.435
312.958
310.342
307.55
304.544
301.279
297.715
293.806
289.513
284.809
279.679
274.127
268.167
261.828
255.15
248.179
240.969
233.576
226.059
218.475
210.878
203.319
195.845
188.497
181.31
174.315
167.536
160.993
154.702
148.674
142.917
137.436
132.232
127.308
122.661
118.289
114.189
110.357
106.773
103.43
100.319
97.4321
94.7603
92.2945
90.0255
87.944
86.0411
84.3083
82.7377
81.3219
80.0541
78.9282
77.9387
77.0805
76.3489
75.7397
75.2489
74.8727
74.6073
74.449
74.394
74.4381
74.5772
74.8065
75.1211
75.5155
75.9839
76.5198
77.1164
77.7665
78.4623
79.1958
79.9586
80.7422
81.5377
82.3361
83.1283
83.9053
84.658
85.3763
86.0438
86.6362
87.1412
87.5444
87.8286
87.9773
87.9818
87.8629
87.7067
87.6056
6.92979
5.00932
5.09615
5.64229
6.39002
7.26364
8.2355
9.29669
10.4465
11.6873
13.0226
14.4562
15.992
17.6341
19.3865
21.2535
23.2393
25.3482
27.5848
29.9541
32.461
35.1108
37.9088
40.8604
43.9711
47.2463
50.6916
54.3122
58.1133
62.0995
66.2754
70.6449
75.2112
79.9772
84.9448
90.115
95.4884
101.064
106.841
112.816
118.987
125.348
131.894
138.619
145.514
152.572
159.781
167.132
174.611
182.206
189.902
197.685
205.538
213.442
221.379
229.328
237.267
245.173
253.022
260.792
268.45
275.946
283.26
290.377
297.277
303.944
310.362
316.516
322.394
327.984
333.278
338.268
342.948
347.312
351.357
355.08
358.478
361.551
364.299
366.725
368.831
370.62
372.098
373.268
374.136
374.707
374.987
374.983
374.703
374.152
373.341
372.277
370.972
369.436
367.68
365.714
363.546
361.208
358.712
356.072
353.305
350.443
347.503
344.505
341.475
338.431
335.389
332.361
329.354
326.367
323.389
320.401
317.377
314.278
311.06
307.674
304.066
300.182
295.972
291.394
286.425
281.051
275.278
269.124
262.618
255.802
248.723
241.437
233.998
226.464
218.89
211.331
203.832
196.44
189.192
182.12
175.254
168.616
162.223
156.09
150.227
144.641
139.336
134.315
129.577
125.123
120.949
117.046
113.396
109.993
106.83
103.899
101.191
98.6975
96.4087
94.3152
92.4081
90.6786
89.1184
87.7198
86.4755
85.379
84.4239
83.6046
82.9156
82.3519
81.9084
81.5805
81.3633
81.2519
81.2413
81.3264
81.5016
81.7612
82.0989
82.5083
82.9824
83.5139
84.0951
84.7179
85.3742
86.0553
86.7526
87.4571
88.1598
88.8516
89.5235
90.1665
90.7714
91.3264
91.8052
92.1964
92.4881
92.6666
92.7167
92.6249
92.3879
92.0359
91.6701
91.4165
7.22013
5.15754
5.17995
5.68356
6.39716
7.24093
8.1855
9.22093
10.3459
11.5627
12.8755
14.2887
15.8074
17.4365
19.1812
21.0467
23.0383
25.1614
27.4215
29.8245
32.3766
35.0841
37.9537
40.992
44.206
47.6026
51.1887
54.971
58.9561
63.1501
67.5589
72.1875
77.0405
82.1215
87.4334
92.9779
98.7559
104.767
111.01
117.482
124.18
131.098
138.231
145.571
153.11
160.837
168.74
176.807
185.025
193.377
201.848
210.421
219.076
227.793
236.55
245.323
254.088
262.816
271.481
280.053
288.468
296.705
304.742
312.559
320.136
327.453
334.491
341.232
347.661
353.767
359.537
364.962
370.035
374.749
379.098
383.079
386.686
389.918
392.774
395.257
397.368
399.11
400.487
401.502
402.161
402.467
402.427
402.047
401.334
400.296
398.939
397.271
395.31
393.063
390.543
387.763
384.737
381.491
378.045
374.42
370.643
366.744
362.755
358.708
354.638
350.576
346.554
342.599
338.731
334.964
331.301
327.731
324.235
320.777
317.313
313.786
310.135
306.294
302.201
297.8
293.051
287.927
282.417
276.526
270.274
263.692
256.823
249.715
242.424
235.004
227.512
220.002
212.526
205.129
197.853
190.735
183.805
177.091
170.612
164.386
158.426
152.741
147.338
142.222
137.394
132.855
128.606
124.622
120.899
117.431
114.211
111.231
108.482
105.955
103.641
101.531
99.6135
97.881
96.3245
94.9356
93.7065
92.6298
91.6986
90.9063
90.2466
89.7133
89.3006
89.0025
88.8131
88.7264
88.7361
88.836
89.0193
89.2792
89.6084
89.9995
90.4446
90.9356
91.4642
92.0218
92.5997
93.1891
93.7809
94.3663
94.936
95.4812
95.9931
96.4628
96.881
97.2251
97.4798
97.6362
97.6835
97.6092
97.4
97.0458
96.5479
95.9438
95.3483
94.9227
7.45501
5.26653
5.22665
5.68717
6.36502
7.17668
8.09143
9.09863
10.1966
11.3878
12.6768
14.0688
15.5697
17.1854
18.9224
20.7868
22.7852
24.9241
27.2104
29.6512
32.254
35.0266
37.9771
41.1138
44.4452
47.9799
51.7264
55.6929
59.8875
64.3179
68.9912
73.9139
79.0915
84.5286
90.2289
96.1944
102.426
108.924
115.686
122.71
129.991
137.525
145.302
153.316
161.556
170.009
178.662
187.5
196.507
205.665
214.956
224.359
233.854
243.417
253.023
262.645
272.253
281.816
291.302
300.642
309.806
318.772
327.516
336.016
344.249
352.196
359.829
367.132
374.086
380.678
386.895
392.725
398.161
403.193
407.817
412.025
415.81
419.169
422.103
424.612
426.697
428.361
429.606
430.437
430.855
430.866
430.476
429.691
428.518
426.964
425.036
422.746
420.105
417.126
413.821
410.207
406.3
402.126
397.709
393.075
388.258
383.293
378.22
373.081
367.92
362.782
357.715
352.758
347.95
343.32
338.886
334.652
330.609
326.729
322.968
319.268
315.56
311.768
307.816
303.633
299.159
294.35
289.178
283.632
277.717
271.455
264.88
258.033
250.967
243.736
236.394
228.998
221.601
214.252
206.995
199.871
192.915
186.155
179.618
173.322
167.285
161.518
156.031
150.831
145.923
141.308
136.98
132.92
129.127
125.595
122.318
119.289
116.498
113.938
111.597
109.466
107.535
105.795
104.236
102.849
101.627
100.559
99.6402
98.8612
98.2151
97.6949
97.2934
97.0036
96.8185
96.7308
96.7333
96.8185
96.9787
97.206
97.4922
97.8292
98.2083
98.6208
99.0581
99.5111
99.9709
100.429
100.875
101.301
101.699
102.058
102.372
102.63
102.819
102.916
102.915
102.808
102.584
102.233
101.744
101.109
100.335
99.4631
98.6212
98.0068
7.64075
5.34248
5.24323
5.6609
6.30227
7.08066
7.96429
8.94203
10.0121
11.1771
12.442
13.813
15.2967
16.9003
18.6313
20.4972
22.5058
24.6653
26.9839
29.4704
32.1339
34.9839
38.0302
41.2831
44.7528
48.4496
52.3839
56.5656
61.0043
65.7091
70.6887
75.9505
81.5014
87.3467
93.4905
99.9351
106.681
113.728
121.073
128.713
136.644
144.857
153.344
162.096
171.099
180.34
189.8
199.462
209.307
219.316
229.466
239.735
250.097
260.527
270.997
281.477
291.929
302.318
312.57
322.649
332.53
342.189
351.6
360.739
369.584
378.114
386.294
394.105
401.531
408.555
415.165
421.347
427.09
432.386
437.231
441.616
445.525
448.96
451.92
454.407
456.419
457.958
459.027
459.629
459.767
459.447
458.673
457.451
455.788
453.692
451.171
448.236
444.899
441.172
437.07
432.61
427.814
422.706
417.311
411.664
405.798
399.757
393.584
387.33
381.049
374.798
368.635
362.617
356.8
351.229
345.942
340.96
336.289
331.911
327.792
323.873
320.081
316.331
312.533
308.598
304.447
300.014
295.251
290.129
284.637
278.782
272.589
266.091
259.336
252.373
245.259
238.049
230.798
223.557
216.376
209.297
202.359
195.595
189.035
182.702
176.616
170.792
165.243
159.978
155.005
150.329
145.928
141.8
137.943
134.354
131.026
127.951
125.122
122.528
120.16
118.007
116.059
114.306
112.739
111.346
110.12
109.051
108.13
107.348
106.697
106.17
105.758
105.452
105.245
105.128
105.093
105.131
105.235
105.395
105.602
105.848
106.123
106.419
106.726
107.035
107.338
107.625
107.888
108.117
108.305
108.443
108.522
108.534
108.454
108.275
107.992
107.597
107.081
106.435
105.651
104.723
103.66
102.51
101.409
100.592
7.78335
5.39107
5.23607
5.61181
6.21679
6.96173
7.81404
8.76229
9.80469
10.9442
12.1864
13.5382
15.0074
16.6024
18.3319
20.2051
22.2314
24.4207
26.783
29.3292
32.0701
35.0173
38.1826
41.5785
45.2173
49.1114
53.273
57.7136
62.4444
67.4759
72.8181
78.4796
84.4681
90.7894
97.4481
104.446
111.782
119.455
127.461
135.796
144.453
153.422
162.693
172.254
182.09
192.184
202.511
213.052
223.783
234.682
245.724
256.882
268.126
279.429
290.76
302.088
313.363
324.502
335.466
346.232
356.772
367.061
377.072
386.78
396.161
405.203
413.851
422.091
429.907
437.283
444.204
450.655
456.627
462.108
467.09
471.567
475.527
478.969
481.89
484.289
486.167
487.523
488.36
488.682
488.491
487.793
486.592
484.894
482.706
480.037
476.896
473.293
469.241
464.753
459.845
454.537
448.85
442.81
436.446
429.793
422.89
415.78
408.513
401.147
393.74
386.361
379.078
371.963
365.086
358.513
352.302
346.494
341.114
336.162
331.615
327.421
323.507
319.779
316.135
312.468
308.677
304.674
300.387
295.765
290.779
285.421
279.699
273.641
267.284
260.677
253.872
246.925
239.893
232.829
225.785
218.809
211.942
205.223
198.683
192.351
186.251
180.401
174.817
169.513
164.497
159.769
155.312
151.13
147.222
143.585
140.213
137.1
134.236
131.611
129.216
127.04
125.073
123.302
121.718
120.311
119.069
117.984
117.045
116.242
115.567
115.01
114.562
114.214
113.956
113.78
113.676
113.635
113.648
113.705
113.797
113.914
114.048
114.189
114.329
114.457
114.566
114.646
114.689
114.687
114.631
114.514
114.328
114.055
113.682
113.205
112.619
111.918
111.094
110.141
109.051
107.821
106.465
105.03
103.663
102.634
7.88847
5.41733
5.21077
5.54625
6.11573
6.828
7.64993
8.56999
9.58656
10.7031
11.9258
13.2628
14.723
16.3162
18.0529
19.944
22.0009
24.2357
26.6608
29.289
32.1337
35.2088
38.5285
42.1076
45.961
50.1035
54.5491
59.3108
64.4011
69.8318
75.614
81.757
88.269
95.1561
102.423
110.07
118.093
126.488
135.252
144.376
153.851
163.665
173.804
184.254
194.997
206.015
217.27
228.739
240.398
252.219
264.173
276.229
288.353
300.512
312.676
324.819
336.814
348.622
360.224
371.595
382.707
393.533
404.046
414.219
424.029
433.453
442.455
451.015
459.114
466.735
473.861
480.479
486.576
492.141
497.166
501.642
505.563
508.922
511.717
513.946
515.61
516.708
517.243
517.217
516.635
515.501
513.819
511.596
508.84
505.559
501.764
497.466
492.678
487.415
481.693
475.534
468.961
462
454.683
447.044
439.126
430.974
422.64
414.186
405.675
397.181
388.782
380.561
372.603
364.993
357.806
351.11
344.952
339.353
334.308
329.777
325.692
321.956
318.455
315.065
311.663
308.135
304.384
300.334
295.935
291.157
285.997
280.469
274.601
268.438
262.028
255.426
248.69
241.876
235.038
228.227
221.489
214.866
208.396
202.11
196.035
190.195
184.609
179.293
174.261
169.497
165.004
160.784
156.839
153.167
149.761
146.616
143.722
141.07
138.649
136.449
134.457
132.662
131.054
129.621
128.351
127.234
126.259
125.416
124.694
124.084
123.574
123.156
122.818
122.552
122.346
122.192
122.08
121.999
121.94
121.894
121.851
121.803
121.739
121.652
121.533
121.373
121.165
120.9
120.572
120.172
119.69
119.108
118.423
117.631
116.727
115.708
114.566
113.298
111.897
110.364
108.712
106.992
105.355
104.108
7.96138
5.42566
5.17226
5.46987
6.00569
6.6872
7.48104
8.37581
9.37029
10.4686
11.678
13.0078
14.4685
16.0717
17.8301
19.7566
21.8653
24.1707
26.6882
29.4337
32.4228
35.6722
39.1992
43.0213
47.1561
51.6211
56.4326
61.604
67.1487
73.0795
79.408
86.1437
93.2942
100.865
108.861
117.282
126.114
135.352
144.99
155.016
165.417
176.177
187.278
198.701
210.427
222.442
234.678
247.117
259.731
272.489
285.355
298.295
311.268
324.236
337.167
349.951
362.545
374.92
387.051
398.912
410.475
421.713
432.598
443.105
453.209
462.886
472.107
480.851
489.097
496.828
504.027
510.681
516.776
522.301
527.248
531.608
535.374
538.541
541.105
543.065
544.419
545.168
545.314
544.861
543.811
542.17
539.943
537.137
533.76
529.821
525.333
520.307
514.758
508.701
502.155
495.143
487.688
479.819
471.568
462.971
454.072
444.916
435.559
426.06
416.49
406.922
397.442
388.141
379.115
370.463
362.282
354.661
347.673
341.367
335.76
330.831
326.523
322.741
319.363
316.25
313.255
310.238
307.075
303.663
299.925
295.812
291.301
286.392
281.104
275.473
269.545
263.372
257.012
250.523
243.962
237.383
230.836
224.367
218.018
211.825
205.82
200.029
194.476
189.181
184.153
179.38
174.872
170.634
166.669
162.975
159.546
156.377
153.46
150.783
148.337
146.109
144.088
142.263
140.62
139.149
137.836
136.671
135.641
134.737
133.945
133.256
132.659
132.142
131.695
131.307
130.969
130.67
130.399
130.147
129.905
129.662
129.41
129.139
128.842
128.509
128.132
127.704
127.218
126.665
126.04
125.334
124.531
123.625
122.614
121.495
120.266
118.922
117.459
115.874
114.164
112.329
110.386
108.384
106.481
105.014
8.00697
5.41994
5.12491
5.38791
5.89303
6.5471
7.31689
8.19143
9.17021
10.2584
11.4645
12.7996
14.2763
15.9086
17.7116
19.7013
21.8947
24.3099
26.9661
29.8827
33.0783
36.5726
40.3863
44.54
49.0544
53.9497
59.2459
64.9538
71.0867
77.6583
84.6794
92.1584
100.101
108.511
117.391
126.747
136.538
146.765
157.416
168.474
179.922
191.738
203.897
216.375
229.145
242.177
255.422
268.846
282.415
296.089
309.832
323.601
337.35
351.033
364.532
377.831
390.895
403.698
416.212
428.41
440.266
451.754
462.847
473.521
483.752
493.515
502.788
511.549
519.776
527.455
534.568
541.101
547.042
552.38
557.106
561.212
564.692
567.538
569.749
571.321
572.255
572.549
572.208
571.233
569.629
567.4
564.554
561.097
557.038
552.389
547.161
541.369
535.028
528.156
520.772
512.9
504.568
495.803
486.64
477.116
467.274
457.162
446.835
436.354
425.787
415.211
404.714
394.39
384.343
374.684
365.526
356.979
349.141
342.09
335.873
330.493
325.911
322.041
318.759
315.912
313.334
310.857
308.326
305.61
302.603
299.232
295.453
291.25
286.63
281.62
276.26
270.601
264.698
258.612
252.4
246.121
239.829
233.574
227.402
221.353
215.463
209.764
204.282
199.041
194.042
189.287
184.788
180.553
176.584
172.882
169.443
166.259
163.323
160.624
158.152
155.894
153.839
151.974
150.287
148.764
147.393
146.162
145.059
144.071
143.186
142.394
141.682
141.039
140.454
139.916
139.415
138.94
138.482
138.029
137.573
137.104
136.613
136.093
135.534
134.929
134.271
133.552
132.765
131.904
130.963
129.93
128.795
127.555
126.212
124.761
123.203
121.534
119.752
117.854
115.839
113.711
111.484
109.209
107.047
105.361
8.02977
5.40359
5.07277
5.30554
5.78442
6.4163
7.16852
8.03095
9.00424
10.0951
11.314
12.6743
14.1914
15.8826
17.7668
19.8631
22.1929
24.7791
27.6455
30.8173
34.3146
38.1614
42.382
47.0005
52.0401
57.524
63.4791
69.9054
76.8158
84.2239
92.1382
100.563
109.5
118.948
128.902
139.352
150.274
161.651
173.464
185.69
198.303
211.276
224.576
238.172
252.028
266.107
280.362
294.751
309.231
323.757
338.29
352.778
367.145
381.29
395.197
408.842
422.2
435.244
447.948
460.286
472.235
483.77
494.867
505.503
515.657
525.307
534.432
543.012
551.028
558.464
565.305
571.538
577.15
582.132
586.475
590.17
593.212
595.595
597.315
598.369
598.758
598.482
597.542
595.943
593.689
590.785
587.238
583.056
578.25
572.831
566.814
560.213
553.046
545.332
537.093
528.355
519.146
509.497
499.443
489.023
478.28
467.264
456.028
444.634
433.149
421.649
410.221
398.961
387.975
377.381
367.302
357.866
349.195
341.395
334.543
328.676
323.779
319.782
316.566
313.97
311.81
309.89
308.028
306.057
303.843
301.286
298.318
294.904
291.037
286.734
282.028
276.965
271.6
265.994
260.206
254.297
248.325
242.345
236.406
230.553
224.826
219.262
213.89
208.736
203.796
199.087
194.622
190.411
186.458
182.763
179.323
176.132
173.182
170.464
167.965
165.674
163.579
161.666
159.922
158.334
156.89
155.575
154.378
153.286
152.285
151.365
150.514
149.719
148.97
148.255
147.564
146.887
146.212
145.532
144.836
144.116
143.363
142.569
141.728
140.83
139.871
138.843
137.74
136.557
135.286
133.914
132.44
130.865
129.187
127.407
125.522
123.533
121.438
119.236
116.927
114.517
112.02
109.485
107.074
105.177
8.03399
5.37983
5.01995
5.22844
5.68773
6.3055
7.05022
7.91327
8.89713
10.0108
11.2679
12.6851
14.2814
16.0791
18.1029
20.3755
22.9242
25.7782
28.968
32.5286
36.4776
40.8445
45.6581
50.945
56.7297
63.0346
69.8796
77.2708
85.2162
93.7224
102.792
112.421
122.604
133.331
144.586
156.351
168.598
181.299
194.427
207.949
221.832
236.038
250.531
265.268
280.209
295.307
310.515
325.783
341.063
356.299
371.457
386.406
401.085
415.478
429.565
443.328
456.742
469.784
482.433
494.665
506.46
517.795
528.651
539.007
548.845
558.146
566.892
575.064
582.648
589.627
595.989
601.721
606.811
611.251
615.031
618.145
620.586
622.349
623.431
623.828
623.541
622.57
620.916
618.585
615.58
611.908
607.576
602.593
596.972
590.723
583.864
576.411
568.382
559.801
550.69
541.077
530.992
520.47
509.545
498.26
486.659
474.791
462.711
450.479
438.161
425.832
413.577
401.488
389.672
378.248
367.343
357.098
347.652
339.136
331.659
325.293
320.056
315.902
312.724
310.361
308.613
307.263
306.095
304.912
303.546
301.866
299.78
297.232
294.199
290.685
286.715
282.33
277.583
272.533
267.242
261.774
256.188
250.544
244.895
239.291
233.776
228.391
223.17
218.133
213.286
208.651
204.246
200.081
196.16
192.487
189.058
185.868
182.91
180.173
177.646
175.318
173.176
171.206
169.394
167.729
166.195
164.78
163.47
162.253
161.115
160.046
159.032
158.062
157.124
156.208
155.304
154.4
153.488
152.557
151.601
150.609
149.574
148.49
147.348
146.144
144.87
143.52
142.091
140.576
138.966
137.255
135.444
133.535
131.528
129.424
127.221
124.922
122.526
120.033
117.445
114.768
112.018
109.239
106.595
104.495
8.02364
5.35192
4.97124
5.16386
5.61353
6.22963
6.98265
7.86643
8.88649
10.0557
11.392
12.9178
14.6568
16.6389
18.9002
21.4641
24.3684
27.6505
31.3481
35.4991
40.1323
45.2796
50.971
57.2332
64.0887
71.5553
79.6446
88.3588
97.6964
107.653
118.219
129.379
141.115
153.402
166.215
179.522
193.286
207.471
222.036
236.941
252.144
267.6
283.263
299.086
315.019
331.015
347.016
362.973
378.834
394.522
409.889
424.933
439.634
453.976
467.944
481.52
494.687
507.425
519.716
531.543
542.887
553.732
564.061
573.857
583.106
591.793
599.901
607.417
614.326
620.615
626.272
631.286
635.648
639.348
642.377
644.731
646.401
647.383
647.675
647.272
646.174
644.383
641.899
638.728
634.873
630.342
625.143
619.286
612.782
605.647
597.897
589.551
580.629
571.156
561.158
550.665
539.709
528.325
516.553
504.435
492.018
479.352
466.492
453.498
440.437
427.379
414.407
401.611
389.092
376.966
365.363
354.424
344.3