/*--------------------------------*- C++ -*----------------------------------*\
  =========                 |
  \\      /  F ield         | OpenFOAM: The Open Source CFD Toolbox
   \\    /   O peration     | Website:  https://openfoam.org
    \\  /    A nd           | Version:  7
     \\/     M anipulation  |
\*---------------------------------------------------------------------------*/
FoamFile
{
    version     2.0;
    format      ascii;
    class       volScalarField;
    location    "600";
    object      k;
}
// * * * * * * * * * * * * * * * * * * * * * * * * * * * * * * * * * * * * * //

dimensions      [0 2 -2 0 0 0 0];

internalField   nonuniform List<scalar> 
16900
(
0.0201935
0.0398145
0.0578978
0.0739332
0.0877587
0.0994278
0.109021
0.116593
0.122205
0.12608
0.128802
0.131427
0.135149
0.137238
0.136353
0.137566
0.14844
0.159835
0.171543
0.183543
0.195826
0.208388
0.221228
0.234348
0.247745
0.261418
0.275365
0.289581
0.304059
0.31879
0.333767
0.348976
0.364405
0.38004
0.395865
0.411861
0.428011
0.444294
0.460689
0.477173
0.493722
0.510313
0.526918
0.543512
0.560068
0.576556
0.59295
0.609219
0.625334
0.641267
0.656986
0.672462
0.687668
0.702573
0.717151
0.731375
0.745222
0.758668
0.771694
0.784285
0.796428
0.808117
0.819354
0.830151
0.840533
0.85055
0.860217
0.869395
0.878115
0.886402
0.894279
0.901769
0.908894
0.915678
0.922145
0.92832
0.934228
0.939895
0.945347
0.95061
0.955709
0.960669
0.965515
0.970269
0.974953
0.97959
0.9842
0.9888
0.99341
0.998046
1.00272
1.00745
1.01223
1.01709
1.02202
1.02702
1.0321
1.03723
1.04242
1.04763
1.05285
1.05802
1.0631
1.06804
1.07274
1.07713
1.0811
1.08451
1.08723
1.0891
1.08996
1.0896
1.08789
1.08453
1.07944
1.073
1.06528
1.05878
1.05585
1.05209
1.04658
1.03916
1.02984
1.01871
1.00588
0.991509
0.975769
0.958842
0.940917
0.92218
0.902812
0.882983
0.862849
0.842553
0.822222
0.801968
0.781887
0.762063
0.742565
0.72345
0.704767
0.686553
0.668837
0.651643
0.634987
0.618882
0.603336
0.588356
0.573947
0.560117
0.546886
0.534281
0.522462
0.511239
0.500506
0.490209
0.480319
0.470821
0.461709
0.45298
0.444633
0.436668
0.429087
0.42189
0.41508
0.40866
0.402635
0.397009
0.391788
0.386979
0.382587
0.378621
0.375086
0.371991
0.369339
0.367136
0.365382
0.364078
0.363219
0.362799
0.362806
0.363227
0.364044
0.365235
0.366778
0.368646
0.370814
0.373255
0.375943
0.378857
0.38198
0.385304
0.388837
0.392625
0.396796
0.401726
0.407214
0.41363
0.421722
0.433356
0.0359428
0.0582721
0.0774374
0.0947794
0.110208
0.123784
0.135691
0.146158
0.155501
0.164313
0.173729
0.185168
0.198414
0.213018
0.231113
0.249682
0.269221
0.289203
0.309765
0.330921
0.352652
0.374947
0.397804
0.421222
0.445205
0.469752
0.494863
0.520533
0.546757
0.573525
0.600827
0.628647
0.656969
0.685772
0.715033
0.744727
0.774825
0.805297
0.836109
0.867225
0.898607
0.930214
0.962004
0.993931
1.02595
1.05801
1.09006
1.12205
1.15392
1.18563
1.21711
1.2483
1.27916
1.30961
1.33961
1.3691
1.39802
1.42632
1.45396
1.48088
1.50705
1.53243
1.55701
1.58075
1.60367
1.62571
1.64666
1.66669
1.68587
1.70425
1.72186
1.73873
1.75491
1.77044
1.78535
1.7997
1.81353
1.8269
1.83986
1.85246
1.86475
1.8768
1.88866
1.90038
1.91203
1.92365
1.9353
1.94704
1.9589
1.97096
1.98324
1.9958
2.00867
2.02189
2.03549
2.04948
2.06389
2.07871
2.09393
2.10953
2.12547
2.14166
2.15803
2.17444
2.19075
2.20676
2.22224
2.23691
2.25045
2.2625
2.27267
2.28046
2.2855
2.28721
2.28495
2.27885
2.26908
2.25524
2.23831
2.21743
2.19251
2.16366
2.13111
2.09513
2.05606
2.01429
1.97024
1.92431
1.87694
1.82852
1.77944
1.73005
1.68068
1.63162
1.5831
1.53536
1.48857
1.44289
1.39843
1.3553
1.31358
1.27333
1.23458
1.19737
1.1617
1.1276
1.09506
1.06407
1.03465
1.00678
0.980507
0.95588
0.932501
0.91033
0.88934
0.869508
0.850814
0.83324
0.816767
0.801378
0.787054
0.773779
0.761538
0.750314
0.740096
0.730871
0.722628
0.715359
0.709057
0.703714
0.699325
0.695883
0.693382
0.691814
0.691168
0.69143
0.692583
0.694603
0.697462
0.701125
0.705551
0.71069
0.716489
0.722888
0.729822
0.737222
0.74502
0.753147
0.761536
0.770126
0.778863
0.787709
0.796648
0.805696
0.81484
0.823317
0.831292
0.838929
0.846468
0.852385
0.0487636
0.0740668
0.0945568
0.113169
0.130343
0.146272
0.161246
0.175666
0.190044
0.205055
0.221517
0.239993
0.260198
0.281972
0.305505
0.330027
0.355257
0.381063
0.407513
0.434658
0.462507
0.491061
0.520323
0.550295
0.58098
0.612378
0.644487
0.677302
0.710816
0.745017
0.77989
0.81542
0.851583
0.888357
0.925712
0.963619
1.00204
1.04094
1.08028
1.12001
1.16009
1.20047
1.24109
1.2819
1.32285
1.36387
1.4049
1.44588
1.48673
1.52741
1.56782
1.60791
1.6476
1.68682
1.7255
1.76357
1.80095
1.83758
1.87339
1.90832
1.94231
1.97532
2.0073
2.03823
2.06806
2.09655
2.12381
2.14989
2.17483
2.19868
2.22146
2.24322
2.264
2.28384
2.3028
2.32091
2.33824
2.35484
2.37078
2.38611
2.40092
2.41525
2.42918
2.44279
2.45614
2.46929
2.48233
2.49531
2.50832
2.52141
2.53465
2.54811
2.56185
2.57591
2.59034
2.6052
2.62051
2.63629
2.65254
2.66926
2.68641
2.70393
2.72171
2.73964
2.75753
2.77517
2.79227
2.80849
2.82346
2.83667
2.84767
2.85581
2.8605
2.8612
2.85736
2.84909
2.83631
2.81882
2.79663
2.76946
2.73729
2.70033
2.65884
2.6132
2.56383
2.51122
2.45588
2.39833
2.33909
2.27867
2.21753
2.15611
2.09482
2.034
1.97396
1.91496
1.85724
1.80097
1.74631
1.69337
1.64225
1.59302
1.54571
1.50038
1.45703
1.41566
1.37629
1.3389
1.30349
1.27007
1.23866
1.20899
1.18093
1.15446
1.12951
1.10606
1.08405
1.06345
1.04423
1.02635
1.0098
0.994527
0.980523
0.967762
0.956222
0.945888
0.936743
0.928774
0.921969
0.916316
0.911804
0.908422
0.906154
0.904986
0.904895
0.905858
0.907844
0.910815
0.914726
0.919525
0.925153
0.931542
0.938619
0.946304
0.954514
0.963163
0.972164
0.981431
0.990879
1.00043
1.01001
1.01956
1.02903
1.03838
1.04705
1.05492
1.06195
1.06815
1.07374
1.07777
0.0593561
0.0874749
0.109435
0.12928
0.148043
0.16612
0.183864
0.2017
0.220104
0.239587
0.260623
0.283464
0.30797
0.333957
0.36131
0.389725
0.418946
0.44887
0.479527
0.510963
0.543198
0.576245
0.610111
0.6448
0.680318
0.716664
0.753839
0.791837
0.830651
0.870269
0.910679
0.95186
0.99379
1.03644
1.07979
1.1238
1.16843
1.21363
1.25938
1.3056
1.35227
1.39931
1.44667
1.49429
1.5421
1.59004
1.63804
1.68602
1.73391
1.78163
1.8291
1.87624
1.92296
1.96919
2.01484
2.05982
2.10404
2.14743
2.18989
2.23136
2.27176
2.31102
2.34909
2.38591
2.42128
2.45514
2.48754
2.51852
2.54811
2.57633
2.6032
2.62878
2.65309
2.67617
2.69808
2.71886
2.73857
2.75727
2.77502
2.79189
2.80796
2.82328
2.83795
2.85204
2.86563
2.8788
2.89163
2.9042
2.91659
2.9289
2.94119
2.95356
2.96608
2.97882
2.99186
3.00526
3.01908
3.03337
3.04815
3.06345
3.07925
3.09551
3.11216
3.12908
3.14611
3.16302
3.17952
3.19524
3.20977
3.22253
3.23301
3.24049
3.24441
3.24436
3.23984
3.23064
3.21651
3.19716
3.17236
3.14194
3.10592
3.06452
3.01804
2.96688
2.91154
2.85256
2.79049
2.72595
2.65951
2.59174
2.52318
2.45432
2.38563
2.3175
2.25027
2.18425
2.1197
2.05682
1.99579
1.93674
1.87977
1.82497
1.77238
1.72204
1.67397
1.62819
1.58467
1.54343
1.50445
1.46774
1.43313
1.40044
1.36961
1.3406
1.31335
1.28781
1.26392
1.24163
1.2209
1.2017
1.18397
1.16769
1.15282
1.13934
1.12723
1.11645
1.107
1.09884
1.09198
1.08638
1.08203
1.07891
1.077
1.07627
1.0767
1.07823
1.08083
1.08444
1.08901
1.09447
1.10074
1.10774
1.11538
1.12357
1.13221
1.14121
1.15047
1.15989
1.16937
1.17882
1.18817
1.19732
1.20621
1.21445
1.22176
1.22803
1.23318
1.23724
1.24061
1.24306
0.0684152
0.0988591
0.122297
0.143351
0.163523
0.183415
0.20343
0.223963
0.245404
0.268105
0.292342
0.318233
0.345695
0.374575
0.404728
0.435979
0.46816
0.50119
0.535071
0.56983
0.605487
0.642055
0.679547
0.71797
0.75733
0.79763
0.838872
0.881054
0.924169
0.968208
1.01316
1.059
1.10572
1.15327
1.20165
1.2508
1.30069
1.35128
1.40252
1.45435
1.50672
1.55957
1.61283
1.66645
1.72034
1.77443
1.82864
1.8829
1.93712
1.99122
2.04509
2.09866
2.15183
2.2045
2.25657
2.30794
2.35851
2.40819
2.45687
2.50445
2.55084
2.59596
2.63972
2.68199
2.72255
2.76141
2.79859
2.83411
2.86797
2.90018
2.93078
2.95977
2.98721
3.01311
3.03753
3.06051
3.0821
3.10236
3.12136
3.13916
3.15584
3.17147
3.18613
3.19992
3.2129
3.22519
3.23685
3.24799
3.25869
3.26907
3.27921
3.28921
3.29919
3.30922
3.3194
3.32983
3.3406
3.35179
3.36346
3.37566
3.38843
3.40177
3.41563
3.42995
3.44457
3.45932
3.4739
3.48794
3.50106
3.51261
3.52206
3.52889
3.5325
3.53238
3.52797
3.51888
3.50469
3.485
3.45947
3.4279
3.3903
3.34685
3.29785
3.24372
3.18498
3.12219
3.05599
2.987
2.91587
2.84323
2.76966
2.69572
2.6219
2.54865
2.47636
2.40536
2.33594
2.26833
2.20272
2.13927
2.07809
2.01928
1.96288
1.90895
1.85751
1.80856
1.7621
1.71813
1.67663
1.63756
1.60065
1.56583
1.53307
1.5023
1.47347
1.44651
1.42136
1.39797
1.37628
1.35625
1.33783
1.32098
1.30567
1.29185
1.27951
1.26861
1.25913
1.25105
1.24433
1.23896
1.23491
1.23214
1.23063
1.23034
1.23121
1.2332
1.23624
1.24028
1.24523
1.25102
1.25755
1.26474
1.27247
1.28065
1.28918
1.29794
1.30683
1.31575
1.3246
1.33326
1.34166
1.34968
1.3571
1.36352
1.36883
1.37288
1.37558
1.37707
1.37802
1.37887
0.0762128
0.108457
0.133243
0.155416
0.176798
0.19816
0.219946
0.242519
0.266193
0.291214
0.317746
0.345846
0.375455
0.406457
0.438734
0.472164
0.506638
0.542095
0.578525
0.615939
0.654355
0.693786
0.734245
0.775745
0.818293
0.861896
0.906559
0.952283
0.999065
1.0469
1.09577
1.14567
1.19657
1.24845
1.30128
1.35502
1.40964
1.46508
1.5213
1.57824
1.63584
1.69403
1.75276
1.81194
1.87149
1.93134
1.9914
2.05159
2.1118
2.17194
2.23192
2.29163
2.35096
2.40981
2.46806
2.5256
2.5823
2.63806
2.69276
2.74627
2.79848
2.84929
2.89858
2.94604
2.99163
3.03532
3.07712
3.117
3.15495
3.19099
3.22511
3.25733
3.28768
3.31617
3.34285
3.36776
3.39093
3.41243
3.43232
3.45066
3.46753
3.483
3.49716
3.51009
3.52188
3.53264
3.54245
3.55141
3.55964
3.56724
3.57432
3.58101
3.58742
3.59366
3.59986
3.60614
3.61264
3.61945
3.6267
3.63448
3.64287
3.65192
3.66167
3.67209
3.68308
3.6945
3.70616
3.71765
3.72861
3.7386
3.74708
3.7535
3.75724
3.7577
3.75424
3.74628
3.73326
3.71466
3.69004
3.65912
3.62183
3.57829
3.52879
3.47371
3.41358
3.34898
3.28058
3.20905
3.13508
3.05934
2.98248
2.90509
2.82771
2.75084
2.6749
2.60026
2.52725
2.45611
2.38707
2.3203
2.25592
2.19405
2.13475
2.07808
2.02405
1.97269
1.92399
1.87795
1.83456
1.79358
1.7549
1.71848
1.68426
1.65218
1.62218
1.59419
1.56815
1.54399
1.52165
1.50109
1.48224
1.46507
1.44953
1.43558
1.4232
1.41233
1.40296
1.39504
1.38855
1.38345
1.37969
1.37724
1.37605
1.37607
1.37723
1.37947
1.38271
1.38688
1.39188
1.39762
1.404
1.41092
1.41826
1.42593
1.43379
1.44176
1.4497
1.45752
1.46511
1.47236
1.47916
1.48537
1.49058
1.49463
1.49738
1.4987
1.49853
1.49712
1.49546
1.49456
0.0828926
0.116449
0.142371
0.16552
0.187908
0.210425
0.233553
0.257634
0.282927
0.309614
0.3378
0.367511
0.398705
0.431297
0.465197
0.500319
0.53659
0.573963
0.612426
0.651983
0.69265
0.734439
0.777367
0.821448
0.866694
0.913117
0.960724
1.00952
1.05951
1.11068
1.16304
1.21656
1.27123
1.32703
1.38392
1.44188
1.50085
1.56079
1.62165
1.68337
1.74588
1.80912
1.87302
1.93748
2.00244
2.0678
2.13346
2.19934
2.26532
2.3313
2.39717
2.46283
2.52814
2.59299
2.65725
2.72079
2.78347
2.84516
2.90573
2.96503
3.02293
3.0793
3.13383
3.18637
3.23687
3.28527
3.33155
3.37567
3.41759
3.45732
3.49484
3.53015
3.56325
3.59418
3.62295
3.64959
3.67414
3.69666
3.71719
3.7358
3.75256
3.76754
3.78083
3.79251
3.80269
3.81145
3.81891
3.82515
3.83031
3.83449
3.83784
3.84047
3.84253
3.84415
3.84548
3.84667
3.84789
3.8493
3.85105
3.85328
3.85615
3.85977
3.86424
3.86963
3.87591
3.88302
3.89081
3.89907
3.90749
3.91568
3.92315
3.92934
3.93359
3.93521
3.93346
3.92761
3.91694
3.90078
3.87858
3.84993
3.81467
3.77283
3.7246
3.67036
3.61061
3.54593
3.47701
3.40455
3.32928
3.25192
3.17316
3.09364
3.01396
2.93465
2.85618
2.77895
2.70332
2.62957
2.55795
2.48865
2.42183
2.3576
2.29605
2.23723
2.18118
2.12793
2.07747
2.02981
1.98485
1.94234
1.90227
1.86458
1.82923
1.79614
1.76525
1.73649
1.70978
1.68506
1.66227
1.64135
1.62224
1.60489
1.58924
1.57526
1.56291
1.55213
1.54288
1.53513
1.52882
1.5239
1.52034
1.51806
1.517
1.51711
1.5183
1.52049
1.52359
1.52751
1.53215
1.53741
1.54318
1.54934
1.55578
1.56239
1.56905
1.57564
1.58207
1.5882
1.59395
1.59919
1.60381
1.60747
1.60995
1.61114
1.61089
1.60907
1.60567
1.60109
1.59658
1.59374
0.088558
0.123002
0.14982
0.173769
0.196962
0.22036
0.244478
0.269646
0.296088
0.323952
0.353312
0.384182
0.416533
0.450303
0.485429
0.52185
0.559516
0.598394
0.638474
0.67976
0.722264
0.766004
0.810997
0.857262
0.904815
0.953673
1.00385
1.05535
1.10819
1.16236
1.21786
1.27468
1.33281
1.39222
1.45288
1.51476
1.57781
1.64199
1.70724
1.7735
1.84069
1.90876
1.9776
2.04715
2.1173
2.18797
2.25904
2.33042
2.40198
2.47362
2.54521
2.61663
2.68774
2.75842
2.82851
2.89788
2.96636
3.03382
3.10008
3.16499
3.2284
3.29005
3.34964
3.40709
3.46234
3.51529
3.5659
3.61411
3.65987
3.70315
3.74393
3.78219
3.81792
3.85114
3.88185
3.91007
3.93584
3.9592
3.98018
3.99886
4.01529
4.02954
4.04171
4.05187
4.06013
4.06657
4.0713
4.07443
4.07609
4.0764
4.0755
4.07353
4.07065
4.06702
4.0628
4.05817
4.05334
4.04851
4.04387
4.03964
4.03602
4.03324
4.03146
4.03081
4.03143
4.03336
4.03658
4.04099
4.04638
4.05246
4.05877
4.06476
4.06976
4.073
4.07362
4.07074
4.06349
4.05104
4.03266
4.00781
3.97617
3.93766
3.89238
3.84063
3.78287
3.71968
3.65176
3.57983
3.50465
3.42699
3.34758
3.26711
3.18622
3.10549
3.02544
2.94651
2.86909
2.7935
2.72002
2.64886
2.5802
2.51417
2.45088
2.3904
2.33277
2.27803
2.2262
2.17726
2.13095
2.08721
2.04602
2.00733
1.97108
1.9372
1.90562
1.87626
1.84905
1.82392
1.8008
1.77962
1.76033
1.74286
1.72715
1.71315
1.70081
1.69007
1.68088
1.67319
1.66693
1.66204
1.65846
1.65611
1.65492
1.6548
1.65568
1.65744
1.66
1.66325
1.66707
1.67137
1.67602
1.68091
1.68592
1.69094
1.69584
1.70053
1.70487
1.70877
1.71212
1.71479
1.71659
1.71719
1.71651
1.71443
1.71079
1.7055
1.6986
1.69061
1.68305
1.67809
0.0933015
0.128275
0.155753
0.180319
0.204122
0.228167
0.252986
0.278905
0.306132
0.334795
0.364955
0.396626
0.429788
0.464403
0.500426
0.537816
0.576542
0.616583
0.657934
0.700601
0.744601
0.789952
0.836677
0.884799
0.93434
0.985322
1.03776
1.09168
1.14708
1.20397
1.26235
1.32222
1.38356
1.44634
1.51055
1.57614
1.64307
1.71129
1.78073
1.85134
1.92303
1.99574
2.06936
2.14381
2.21899
2.29478
2.37109
2.44778
2.52475
2.60185
2.67896
2.75595
2.83266
2.90895
2.98467
3.05964
3.13371
3.20669
3.27842
3.3487
3.41733
3.4839
3.54832
3.61046
3.67023
3.72753
3.78227
3.83438
3.88378
3.93044
3.9743
4.01534
4.05354
4.08889
4.12139
4.15105
4.17788
4.20192
4.2232
4.24178
4.25771
4.27106
4.28191
4.29035
4.29647
4.30035
4.30211
4.30187
4.29974
4.29586
4.29036
4.28342
4.27519
4.26585
4.25559
4.24462
4.23313
4.22144
4.20977
4.19838
4.18754
4.17756
4.16872
4.16126
4.15544
4.15143
4.14936
4.14927
4.15108
4.15458
4.15943
4.16509
4.1709
4.17602
4.17951
4.18034
4.17745
4.16983
4.15656
4.13692
4.1104
4.07675
4.03597
3.98826
3.93403
3.87382
3.80832
3.73828
3.66449
3.58774
3.50883
3.42848
3.34739
3.26619
3.18543
3.1056
3.02714
2.9504
2.87569
2.80325
2.73328
2.66595
2.60138
2.53964
2.48082
2.42495
2.37204
2.32201
2.27464
2.22992
2.18785
2.14836
2.11139
2.07688
2.04476
2.01493
1.98733
1.96188
1.93849
1.91711
1.89765
1.88005
1.86425
1.85017
1.83776
1.82695
1.81767
1.80986
1.80343
1.79832
1.79445
1.79172
1.79005
1.78934
1.7895
1.79042
1.79199
1.7941
1.79663
1.79947
1.8025
1.8056
1.80866
1.81156
1.81419
1.81644
1.8182
1.81935
1.8198
1.8194
1.81783
1.81499
1.81078
1.80509
1.79778
1.78877
1.77816
1.76658
1.75578
1.74851
0.0972117
0.132425
0.160345
0.185348
0.209584
0.234068
0.259348
0.285749
0.313472
0.342634
0.373296
0.405475
0.439166
0.474344
0.510986
0.549066
0.588569
0.629484
0.671816
0.715576
0.760785
0.807466
0.855648
0.90536
0.956631
1.00949
1.06395
1.12005
1.1778
1.2372
1.29826
1.36098
1.42535
1.49134
1.55892
1.62806
1.69871
1.77082
1.84431
1.91911
1.99516
2.07235
2.1506
2.22979
2.30983
2.39059
2.47195
2.55378
2.63595
2.71831
2.80072
2.88304
2.9651
3.04675
3.12782
3.20812
3.28748
3.36568
3.44255
3.51786
3.5912
3.6624
3.73133
3.79785
3.86185
3.92321
3.98181
4.03754
4.09034
4.14013
4.18685
4.23046
4.27092
4.30821
4.34232
4.37324
4.40097
4.42553
4.44694
4.46527
4.48055
4.49285
4.50224
4.50881
4.51262
4.51379
4.51241
4.50861
4.50251
4.49423
4.48393
4.47175
4.45791
4.44259
4.426
4.40836
4.38991
4.37096
4.35182
4.3328
4.31424
4.29653
4.28003
4.26513
4.2522
4.24156
4.2335
4.22822
4.22579
4.22615
4.22906
4.23408
4.24056
4.24765
4.25431
4.25939
4.26163
4.25982
4.25282
4.23967
4.21965
4.19232
4.15752
4.11532
4.06605
4.01023
3.94851
3.88166
3.81047
3.73581
3.65847
3.57927
3.49892
3.41812
3.33747
3.25751
3.17871
3.10146
3.0261
2.95292
2.88215
2.81397
2.74853
2.68592
2.62624
2.56954
2.51585
2.46491
2.4167
2.37123
2.32846
2.28835
2.25083
2.21582
2.18326
2.15306
2.12513
2.09939
2.07575
2.05415
2.03449
2.01671
2.00072
1.98645
1.97382
1.96275
1.95317
1.94499
1.93813
1.9325
1.92799
1.92453
1.92199
1.92029
1.91931
1.91893
1.91904
1.91954
1.92029
1.92118
1.9221
1.92293
1.92355
1.92385
1.92373
1.92307
1.92177
1.91974
1.91685
1.91285
1.90759
1.901
1.89298
1.88344
1.87224
1.85934
1.84488
1.82959
1.81541
1.80567
0.100376
0.1356
0.16377
0.189047
0.213549
0.238295
0.263836
0.290498
0.318481
0.347901
0.378821
0.411269
0.44525
0.480757
0.517781
0.556315
0.596354
0.637904
0.680976
0.725591
0.771775
0.81956
0.86898
0.920072
0.972871
1.02741
1.08373
1.14184
1.20177
1.26353
1.32714
1.39258
1.45985
1.52892
1.59978
1.67236
1.74662
1.82251
1.89993
1.97883
2.0591
2.14066
2.2234
2.3072
2.39194
2.4775
2.56373
2.6505
2.73764
2.82502
2.91247
2.99983
3.08695
3.17363
3.25971
3.34498
3.42924
3.51227
3.59386
3.67358
3.75122
3.82664
3.89968
3.9702
4.03805
4.1031
4.16519
4.22422
4.28008
4.33269
4.38197
4.42786
4.47032
4.50931
4.54479
4.57677
4.60518
4.63007
4.65145
4.66935
4.68383
4.69493
4.70272
4.70728
4.70868
4.707
4.70237
4.6949
4.68471
4.67194
4.65674
4.63927
4.61973
4.59833
4.57529
4.55085
4.52529
4.49893
4.47212
4.44523
4.41866
4.39287
4.36832
4.34551
4.32493
4.30707
4.29237
4.28119
4.27382
4.27035
4.27071
4.27459
4.2814
4.29032
4.30025
4.30991
4.31787
4.32268
4.32295
4.31745
4.30521
4.28554
4.2581
4.22281
4.1799
4.12981
4.07317
4.01074
3.94335
3.87186
3.79716
3.72007
3.64139
3.56184
3.48208
3.4027
3.32422
3.24707
3.17164
3.09824
3.02714
2.95854
2.89261
2.82949
2.76928
2.71204
2.65772
2.60613
2.55732
2.51128
2.46799
2.4274
2.38944
2.35405
2.32113
2.29059
2.26236
2.23633
2.21242
2.19054
2.1706
2.15252
2.1362
2.12157
2.10852
2.09697
2.08683
2.078
2.07038
2.06388
2.05838
2.05379
2.04998
2.04686
2.04429
2.04218
2.04039
2.0388
2.03732
2.0358
2.03415
2.03225
2.02999
2.02727
2.02397
2.01999
2.01525
2.00964
2.00299
1.99508
1.98588
1.97531
1.96329
1.94972
1.93451
1.91762
1.89924
1.88016
1.86251
1.85019
0.102877
0.137938
0.166198
0.191599
0.216221
0.241071
0.266703
0.293445
0.321496
0.350976
0.381956
0.414472
0.448545
0.484183
0.521394
0.560184
0.600564
0.642553
0.686173
0.731455
0.778434
0.827149
0.877646
0.929966
0.984156
1.04025
1.0983
1.15832
1.22035
1.28439
1.35046
1.41855
1.48867
1.56077
1.63484
1.71081
1.78864
1.86823
1.94953
2.03243
2.11685
2.20267
2.28977
2.37804
2.46734
2.55752
2.64843
2.73989
2.83176
2.92387
3.01605
3.10812
3.19991
3.29123
3.3819
3.47169
3.56038
3.64772
3.73331
3.81692
3.89838
3.97752
4.05417
4.12819
4.19941
4.2677
4.33285
4.39473
4.45324
4.50827
4.55973
4.60756
4.65168
4.69204
4.72862
4.76138
4.79023
4.81521
4.83633
4.85362
4.86712
4.87687
4.88292
4.88535
4.88423
4.87965
4.87172
4.86055
4.84625
4.82898
4.80889
4.78614
4.76094
4.73349
4.70403
4.67283
4.64019
4.60643
4.57195
4.53715
4.50249
4.46849
4.43568
4.40468
4.37608
4.35051
4.3286
4.31089
4.29785
4.28982
4.28691
4.28898
4.29559
4.30598
4.31904
4.33339
4.34744
4.35949
4.36787
4.37104
4.36772
4.35698
4.3382
4.31115
4.2759
4.23283
4.18252
4.12571
4.06325
3.99603
3.92496
3.85093
3.77479
3.69731
3.61921
3.54112
3.46361
3.38716
3.3122
3.23908
3.16809
3.09949
3.03346
2.97016
2.90972
2.85222
2.79745
2.74544
2.69622
2.64979
2.60613
2.56519
2.5269
2.49118
2.45795
2.4271
2.39855
2.3722
2.34795
2.3257
2.30536
2.28682
2.27
2.25478
2.24107
2.22877
2.21778
2.20798
2.19927
2.19154
2.18467
2.17856
2.17308
2.16811
2.16355
2.15926
2.15513
2.15105
2.1469
2.14257
2.13794
2.13292
2.12739
2.12126
2.11444
2.10681
2.09831
2.0888
2.07807
2.06607
2.05275
2.03806
2.02192
2.00424
1.98495
1.96404
1.94173
1.91886
1.89769
1.8827
0.104797
0.139566
0.167781
0.193179
0.21779
0.242609
0.268188
0.294857
0.322818
0.352197
0.383072
0.415495
0.449498
0.485107
0.522344
0.561234
0.601802
0.644082
0.688108
0.733923
0.781574
0.831109
0.882582
0.936047
0.991556
1.04916
1.10889
1.1708
1.23489
1.3012
1.36974
1.44049
1.51345
1.5886
1.66589
1.74526
1.82663
1.90993
1.99507
2.08193
2.17042
2.26041
2.35177
2.44437
2.53806
2.63268
2.72802
2.82393
2.92022
3.01672
3.11324
3.20961
3.30562
3.40108
3.4958
3.58958
3.6821
3.77295
3.86191
3.94882
4.03349
4.11575
4.19542
4.27234
4.34635
4.41736
4.48502
4.54922
4.60987
4.66684
4.72003
4.76936
4.81473
4.85608
4.89337
4.92654
4.95553
4.98035
5.00099
5.01747
5.02982
5.03806
5.04226
5.04246
5.03876
5.03123
5.01997
5.00509
4.98672
4.965
4.94008
4.91214
4.88138
4.84802
4.81229
4.77449
4.73493
4.69394
4.65194
4.60937
4.56673
4.52456
4.4835
4.4442
4.40739
4.37382
4.34426
4.31946
4.30011
4.28676
4.27978
4.27927
4.28498
4.29627
4.3121
4.33103
4.35131
4.37101
4.38815
4.40085
4.40749
4.40681
4.39791
4.38034
4.35402
4.31921
4.27643
4.22639
4.16996
4.10804
4.0416
3.97156
3.89881
3.8242
3.74849
3.67238
3.59647
3.5213
3.44734
3.37498
3.30456
3.23636
3.17059
3.10744
3.04707
2.98947
2.93452
2.8823
2.83286
2.78621
2.74231
2.70112
2.66257
2.62658
2.59304
2.56187
2.53297
2.50623
2.48154
2.45879
2.43789
2.41872
2.40117
2.38514
2.37051
2.35717
2.34501
2.33391
2.32376
2.31444
2.30584
2.29782
2.29027
2.28308
2.27611
2.26927
2.26242
2.25546
2.24828
2.24076
2.23282
2.22434
2.21523
2.2054
2.19476
2.18323
2.17071
2.15702
2.14208
2.12587
2.10834
2.08946
2.06915
2.04735
2.024
1.9991
1.97292
1.94629
1.92161
1.9039
0.106211
0.140598
0.16866
0.193943
0.218431
0.243103
0.268509
0.294979
0.32272
0.351866
0.382506
0.414704
0.44851
0.483966
0.521112
0.559988
0.600639
0.643112
0.68746
0.733738
0.782003
0.832316
0.884741
0.939341
0.996179
1.05531
1.11678
1.18062
1.24686
1.31552
1.38659
1.46009
1.53598
1.61425
1.69484
1.77768
1.86266
1.94969
2.03867
2.12947
2.22198
2.31606
2.41155
2.50832
2.60621
2.70506
2.80458
2.90459
3.00493
3.10541
3.20581
3.30595
3.40562
3.5046
3.60272
3.69981
3.79527
3.88888
3.98053
4.07003
4.15721
4.24189
4.32389
4.40303
4.47914
4.55207
4.62157
4.68749
4.7497
4.80807
4.86248
4.91282
4.95899
5.00092
5.03854
5.07178
5.1006
5.12497
5.14487
5.16031
5.1713
5.17787
5.18007
5.17795
5.17159
5.16106
5.14645
5.12789
5.10548
5.07938
5.04974
5.01675
4.98061
4.94153
4.89976
4.85561
4.80939
4.76146
4.71223
4.66216
4.61179
4.5617
4.51255
4.46506
4.42004
4.37835
4.3409
4.30861
4.28239
4.26304
4.25121
4.24727
4.25124
4.26269
4.2807
4.30385
4.33028
4.35782
4.38418
4.40711
4.4246
4.43499
4.4371
4.43018
4.41398
4.38861
4.35451
4.31237
4.26304
4.20744
4.14657
4.08141
4.01291
3.94195
3.86936
3.79589
3.7222
3.64888
3.57644
3.50532
3.4359
3.36848
3.30333
3.24065
3.18062
3.12312
3.06821
3.016
2.96651
2.91977
2.87575
2.8344
2.79563
2.75938
2.72554
2.69402
2.66469
2.63746
2.61221
2.58882
2.56717
2.54716
2.52866
2.51156
2.49574
2.48107
2.46744
2.45472
2.4428
2.43155
2.42084
2.41057
2.4006
2.39082
2.38111
2.37137
2.36146
2.3513
2.34078
2.32979
2.31824
2.30605
2.29311
2.27936
2.2647
2.24906
2.23232
2.21435
2.19514
2.17467
2.15292
2.12984
2.1054
2.07952
2.05217
2.02339
1.99342
1.96314
1.93502
1.91457
0.107191
0.141134
0.168959
0.194034
0.218303
0.242729
0.26786
0.294028
0.321446
0.350256
0.380561
0.412439
0.445957
0.481177
0.518157
0.556957
0.597639
0.640271
0.684923
0.731666
0.780569
0.831704
0.885146
0.940969
0.999244
1.06004
1.12339
1.18934
1.25789
1.32907
1.40287
1.47928
1.55828
1.63982
1.72386
1.81031
1.89901
1.98983
2.08268
2.17742
2.2739
2.37196
2.47145
2.57219
2.67403
2.77685
2.88018
2.9839
3.08782
3.19174
3.29544
3.39871
3.50133
3.60307
3.70374
3.80293
3.90041
3.99599
4.08952
4.18082
4.26973
4.35605
4.4396
4.52019
4.59767
4.67183
4.74248
4.80946
4.87259
4.93175
4.9868
5.03762
5.08409
5.12613
5.16364
5.19657
5.22484
5.24842
5.26729
5.28142
5.29084
5.29555
5.2956
5.29104
5.28193
5.26835
5.25038
5.22815
5.20177
5.17138
5.13716
5.09928
5.05795
5.01339
4.96587
4.91567
4.86313
4.80861
4.75253
4.69537
4.63766
4.58001
4.52311
4.46772
4.41469
4.36497
4.31957
4.27959
4.24611
4.2202
4.20279
4.19458
4.19591
4.20665
4.22607
4.25285
4.2851
4.32044
4.35627
4.38995
4.41901
4.44139
4.45551
4.46035
4.45538
4.44058
4.41628
4.38311
4.3419
4.29362
4.23926
4.17986
4.11641
4.04987
3.98111
3.91094
3.84008
3.76917
3.69876
3.62935
3.56134
3.49509
3.43089
3.36898
3.30949
3.25235
3.19772
3.14569
3.09632
3.04962
3.00556
2.9641
2.92516
2.88865
2.85448
2.82254
2.7927
2.76487
2.73891
2.71471
2.69214
2.67107
2.65139
2.63297
2.61568
2.5994
2.584
2.56936
2.55535
2.54185
2.52874
2.51589
2.50319
2.49052
2.47777
2.46483
2.4516
2.43798
2.42387
2.40918
2.39382
2.37772
2.36078
2.34295
2.32414
2.30428
2.28322
2.26095
2.23747
2.21277
2.18684
2.15964
2.13114
2.1013
2.07008
2.03755
2.00396
1.97016
1.93871
1.91556
0.107802
0.141264
0.168783
0.193575
0.217543
0.241642
0.266416
0.292202
0.319218
0.347618
0.377519
0.409017
0.442199
0.477147
0.513942
0.552663
0.593395
0.636227
0.681252
0.728562
0.778231
0.830341
0.884982
0.942236
1.00218
1.0649
1.13044
1.19879
1.26996
1.34396
1.42077
1.50039
1.58275
1.66781
1.75551
1.8458
1.93833
2.03304
2.1298
2.22844
2.32881
2.43072
2.53398
2.63841
2.74381
2.84998
2.95659
3.06344
3.1703
3.27697
3.3832
3.48878
3.59347
3.69702
3.79907
3.8995
3.99813
4.09479
4.18932
4.28155
4.3713
4.45839
4.54264
4.62387
4.70189
4.77652
4.84757
4.91487
4.97823
5.03752
5.09258
5.14328
5.1895
5.23112
5.26807
5.30024
5.32757
5.35001
5.36751
5.38007
5.38766
5.39031
5.38804
5.38091
5.36896
5.35227
5.33093
5.30505
5.27475
5.24019
5.20152
5.15894
5.11264
5.06287
5.00989
4.95399
4.8955
4.83481
4.77233
4.70854
4.64398
4.57926
4.51507
4.45221
4.39155
4.33409
4.28092
4.23326
4.19235
4.1595
4.13593
4.12267
4.12045
4.1295
4.14941
4.17904
4.21654
4.25941
4.30474
4.34947
4.39067
4.4258
4.45285
4.47043
4.47776
4.47459
4.46114
4.43799
4.40592
4.36589
4.31896
4.26618
4.2086
4.14722
4.08299
4.01677
3.94933
3.88136
3.81349
3.74623
3.68005
3.61533
3.55241
3.49156
3.43283
3.37629
3.32214
3.27047
3.22135
3.1748
3.13078
3.08926
3.05015
3.01337
2.97882
2.94639
2.91595
2.88739
2.86058
2.83539
2.8117
2.78937
2.76828
2.7483
2.72929
2.71113
2.6937
2.67685
2.66048
2.64445
2.62865
2.61296
2.59727
2.58146
2.56543
2.54908
2.53231
2.51504
2.49717
2.47862
2.45931
2.43918
2.41814
2.39615
2.37312
2.34897
2.32362
2.29711
2.26943
2.2406
2.21059
2.17939
2.14698
2.11332
2.07842
2.04232
2.0053
1.96817
1.93354
1.90775
0.108106
0.141066
0.168227
0.192672
0.216274
0.23998
0.264334
0.289679
0.31624
0.344187
0.373653
0.404756
0.437604
0.472305
0.508969
0.547691
0.588581
0.631758
0.677342
0.725456
0.776159
0.829551
0.885732
0.944792
1.00681
1.07187
1.14008
1.21131
1.28555
1.36282
1.44309
1.52631
1.61239
1.70127
1.79283
1.88696
1.98341
2.08203
2.18265
2.28509
2.38915
2.49464
2.60133
2.70901
2.81746
2.92645
3.03568
3.14492
3.25392
3.36244
3.47026
3.57711
3.68273
3.78681
3.88927
3.98998
4.0888
4.18556
4.28011
4.37229
4.46193
4.54885
4.63288
4.71383
4.79153
4.86579
4.93643
5.00326
5.06611
5.12481
5.17921
5.22917
5.27454
5.31522
5.35108
5.38204
5.40801
5.42893
5.44473
5.45541
5.46093
5.4613
5.45654
5.44669
5.43181
5.41196
5.38723
5.35774
5.3236
5.28496
5.242
5.19491
5.14389
5.08918
5.03106
4.96982
4.9058
4.83938
4.77098
4.70107
4.6302
4.55897
4.48807
4.4183
4.35053
4.28579
4.22522
4.1701
4.12183
4.08188
4.05175
4.03281
4.0262
4.03257
4.05194
4.08346
4.12543
4.17531
4.22993
4.28581
4.33954
4.38804
4.4288
4.46003
4.48061
4.49008
4.48851
4.47635
4.45439
4.42357
4.38494
4.33962
4.2887
4.23323
4.17422
4.11257
4.04913
3.98465
3.91979
3.85513
3.79117
3.72835
3.66703
3.60749
3.54975
3.49405
3.44056
3.38942
3.34068
3.29436
3.25045
3.20889
3.16962
3.13254
3.09755
3.06455
3.0334
3.00398
2.97617
2.94983
2.92484
2.90105
2.87833
2.85656
2.83561
2.81534
2.79562
2.77634
2.75737
2.73859
2.71988
2.70114
2.68224
2.66311
2.64362
2.6237
2.60325
2.58219
2.56045
2.53795
2.51462
2.49041
2.46525
2.43907
2.41183
2.38342
2.35389
2.32324
2.2915
2.25866
2.22474
2.18971
2.15357
2.1163
2.07792
2.03848
1.99826
1.95803
1.92041
1.89207
0.108159
0.140607
0.167368
0.191416
0.214598
0.237861
0.261753
0.286622
0.312708
0.340198
0.369247
0.399999
0.432585
0.467148
0.503839
0.542756
0.584047
0.627862
0.674356
0.723717
0.775934
0.831132
0.889424
0.950901
1.01563
1.08368
1.15508
1.22975
1.30766
1.38876
1.473
1.56027
1.65047
1.74347
1.83914
1.93728
2.0377
2.14017
2.24451
2.3505
2.45792
2.56654
2.67612
2.78643
2.89721
3.00823
3.11918
3.22983
3.33989
3.44913
3.5573
3.66407
3.76925
3.87277
3.97454
4.07445
4.17236
4.26815
4.36166
4.45274
4.54123
4.62697
4.70979
4.78952
4.86597
4.93898
5.00835
5.0739
5.13546
5.19284
5.24589
5.29446
5.33838
5.37754
5.41182
5.44109
5.46527
5.48428
5.49805
5.50655
5.50974
5.50763
5.50021
5.48753
5.46963
5.44658
5.41846
5.38539
5.34749
5.30491
5.25782
5.20642
5.15092
5.09157
5.02865
4.96245
4.89332
4.82163
4.74781
4.67234
4.59574
4.51861
4.44163
4.36558
4.29135
4.21993
4.1525
4.09036
4.035
3.98803
3.95117
3.92612
3.9144
3.91717
3.93491
3.96724
4.0127
4.06883
4.13229
4.19921
4.26564
4.32795
4.38307
4.42873
4.46346
4.4865
4.49775
4.49757
4.48664
4.46593
4.43648
4.39945
4.35596
4.30712
4.254
4.19756
4.1387
4.07823
4.01686
3.95523
3.89388
3.83329
3.77387
3.71586
3.65938
3.60473
3.5521
3.50162
3.45337
3.40737
3.3636
3.32203
3.28258
3.24517
3.20969
3.17603
3.14406
3.11367
3.08472
3.05707
3.0306
3.00516
2.98064
2.95689
2.93379
2.91121
2.88902
2.86711
2.84535
2.82364
2.80185
2.7799
2.75767
2.73507
2.71201
2.68842
2.66421
2.63931
2.61365
2.58718
2.55982
2.53154
2.50228
2.47197
2.44057
2.40805
2.37448
2.33986
2.30422
2.26758
2.22993
2.19129
2.15164
2.11101
2.06939
2.02687
1.9837
1.94062
1.90023
1.86948
0.108016
0.139945
0.166271
0.189879
0.212603
0.23539
0.2588
0.283191
0.308824
0.335906
0.364625
0.395161
0.427659
0.462315
0.499365
0.538855
0.580998
0.625983
0.673988