/*--------------------------------*- C++ -*----------------------------------*\
  =========                 |
  \\      /  F ield         | OpenFOAM: The Open Source CFD Toolbox
   \\    /   O peration     | Website:  https://openfoam.org
    \\  /    A nd           | Version:  7
     \\/     M anipulation  |
\*---------------------------------------------------------------------------*/
FoamFile
{
    version     2.0;
    format      ascii;
    class       volScalarField;
    location    "600";
    object      nut;
}
// * * * * * * * * * * * * * * * * * * * * * * * * * * * * * * * * * * * * * //

dimensions      [0 2 -1 0 0 0 0];

internalField   nonuniform List<scalar> 
16900
(
2.44584e-05
5.94514e-05
8.65428e-05
0.000110571
0.000131256
0.000148639
0.000162827
0.000174001
0.000182586
0.00018964
0.000197199
0.000207968
0.000213894
0.000216896
0.0002163
4.80166e-05
4.97565e-05
5.16378e-05
5.35015e-05
5.53454e-05
5.71708e-05
5.89794e-05
6.07725e-05
6.25516e-05
6.43179e-05
6.60721e-05
6.78149e-05
6.95465e-05
7.12669e-05
7.29762e-05
7.46739e-05
7.63597e-05
7.80329e-05
7.96927e-05
8.13385e-05
8.29692e-05
8.45838e-05
8.61815e-05
8.77609e-05
8.93211e-05
9.08608e-05
9.23788e-05
9.38739e-05
9.53448e-05
9.67903e-05
9.8209e-05
9.95997e-05
0.000100961
0.000102292
0.000103591
0.000104857
0.000106089
0.000107286
0.000108446
0.000109568
0.000110653
0.000111698
0.000112703
0.000113668
0.000114593
0.000115477
0.000116322
0.000117128
0.000117896
0.000118631
0.000119337
0.000120008
0.00012064
0.000121237
0.0001218
0.000122331
0.000122832
0.000123304
0.000123751
0.000124173
0.000124572
0.000124951
0.000125311
0.000125655
0.000125984
0.0001263
0.000126605
0.0001269
0.000127188
0.00012747
0.000127747
0.000128022
0.000128294
0.000128566
0.00012884
0.000129115
0.000129392
0.000129674
0.00012996
0.000130251
0.000130547
0.000130848
0.000131155
0.000131466
0.000131782
0.0001321
0.000132419
0.000132736
0.000133049
0.000133354
0.000133645
0.000133918
0.000134164
0.000134378
0.000134549
0.000134669
0.000134723
0.000134707
0.000134607
0.000134393
0.000134075
0.000133691
0.000133135
0.000132991
0.000132861
0.000132631
0.00013228
0.000131803
0.000131201
0.000130478
0.000129642
0.0001287
0.000127662
0.000126537
0.000125338
0.000124072
0.000122753
0.000121388
0.000119988
0.000118562
0.000117117
0.000115661
0.0001142
0.000112739
0.000111286
0.000109843
0.000108414
0.000107004
0.000105614
0.000104249
0.000102909
0.000101597
0.000100314
9.90627e-05
9.78434e-05
9.66571e-05
9.54959e-05
9.44046e-05
9.33638e-05
9.2361e-05
9.13899e-05
9.04474e-05
8.95323e-05
8.86442e-05
8.77836e-05
8.69509e-05
8.61468e-05
8.53722e-05
8.46279e-05
8.39148e-05
8.3234e-05
8.25866e-05
8.19736e-05
8.13965e-05
8.08565e-05
8.03551e-05
7.98937e-05
7.94739e-05
7.90971e-05
7.87646e-05
7.84778e-05
7.82376e-05
7.80448e-05
7.78999e-05
7.78029e-05
7.77532e-05
7.775e-05
7.77919e-05
7.78771e-05
7.80031e-05
7.81673e-05
7.83668e-05
7.85986e-05
7.88595e-05
7.91469e-05
7.94582e-05
7.97915e-05
8.01459e-05
8.05221e-05
8.09083e-05
8.14155e-05
8.19869e-05
8.26442e-05
8.34487e-05
8.45611e-05
4.35647e-05
0.000121257
0.000165514
0.000197262
0.000222758
0.000243047
0.000258065
0.00026745
0.000271026
0.000269597
0.000265855
0.00026405
0.000265683
0.000263953
0.0002586
0.000248902
0.000260634
0.000273548
0.000286643
0.00029984
0.000313106
0.000326424
0.000339793
0.000353219
0.000366713
0.000380285
0.000393945
0.000407701
0.00042156
0.000435526
0.000449603
0.000463793
0.000478094
0.000492504
0.000507021
0.000521637
0.000536347
0.000551142
0.000566012
0.000580948
0.000595937
0.000610966
0.000626021
0.000641087
0.000656147
0.000671183
0.000686179
0.000701113
0.000715965
0.000730713
0.000745336
0.000759808
0.000774107
0.000788205
0.000802077
0.000815697
0.000829038
0.000842071
0.000854771
0.00086711
0.000879061
0.0008906
0.000901698
0.000912331
0.000922471
0.000932017
0.00094063
0.000948773
0.00095652
0.000963897
0.000970922
0.000977615
0.000983992
0.000990074
0.00099588
0.00100143
0.00100676
0.00101187
0.00101681
0.00102158
0.00102623
0.00103078
0.00103526
0.0010397
0.00104411
0.00104855
0.00105302
0.00105757
0.00106222
0.00106701
0.00107195
0.00107708
0.00108242
0.00108801
0.00109386
0.0011
0.00110645
0.00111323
0.00112034
0.00112781
0.00113563
0.00114379
0.00115228
0.00116108
0.00117014
0.0011794
0.00118881
0.00119826
0.00120765
0.00121683
0.00122569
0.001234
0.00124164
0.0012484
0.00125391
0.00125768
0.00125932
0.00125692
0.00125082
0.00124234
0.00123196
0.0012199
0.00120629
0.00119125
0.0011749
0.00115741
0.0011389
0.00111956
0.00109954
0.001079
0.0010581
0.00103698
0.00101578
0.00099463
0.000973632
0.000952888
0.000932485
0.000912498
0.000892991
0.000874019
0.000855629
0.000837857
0.000820736
0.000804293
0.000788547
0.000773518
0.00075922
0.000745668
0.000732879
0.000720875
0.000709702
0.000699501
0.000689255
0.000679195
0.000669492
0.000660258
0.000651565
0.000643461
0.000635973
0.00062912
0.000622912
0.000617352
0.000612443
0.000608184
0.000604573
0.000601607
0.000599281
0.000597591
0.000596528
0.000596085
0.000596249
0.000597006
0.000598339
0.000600226
0.00060264
0.000605552
0.000608927
0.000612725
0.000616904
0.000621417
0.000626216
0.00063125
0.000636467
0.000641816
0.000647247
0.000652713
0.000658169
0.000663577
0.000668902
0.00067412
0.000679216
0.000684195
0.000689092
0.000693984
0.000698838
0.000701757
0.000703736
0.000705336
0.000706876
0.000707283
5.91202e-05
0.000164927
0.00022648
0.000266165
0.000296283
0.000320254
0.000338998
0.000352958
0.000362941
0.000370739
0.000379296
0.000391497
0.000407533
0.000424521
0.000442581
0.000462939
0.000488222
0.00051415
0.000540163
0.000566247
0.000592415
0.000618682
0.000645063
0.000671581
0.000698255
0.000725106
0.00075215
0.000779403
0.000806873
0.000834568
0.000862491
0.000890642
0.000919015
0.000947604
0.000976397
0.00100538
0.00103454
0.00106385
0.00109329
0.00112283
0.00115246
0.00118213
0.00121183
0.00124151
0.00127114
0.00130068
0.0013301
0.00135935
0.0013884
0.00141719
0.00144568
0.00147383
0.00150158
0.0015289
0.00155571
0.00158199
0.00160766
0.00163269
0.00165701
0.00168058
0.00170335
0.00172527
0.00174629
0.00176637
0.00178546
0.00180311
0.00181962
0.00183521
0.00184997
0.00186392
0.00187712
0.00188959
0.00190138
0.0019125
0.00192302
0.00193295
0.00194236
0.00195127
0.00195975
0.00196784
0.00197558
0.00198305
0.00199028
0.00199735
0.0020043
0.00201119
0.00201809
0.00202505
0.00203214
0.00203942
0.00204695
0.00205479
0.00206301
0.00207167
0.00208083
0.00209054
0.00210087
0.00211186
0.00212356
0.00213601
0.00214922
0.0021632
0.00217794
0.00219341
0.00220955
0.00222625
0.00224339
0.00226077
0.00227821
0.00229539
0.00231207
0.00232781
0.00234236
0.0023551
0.00236552
0.002373
0.0023768
0.00237572
0.00236962
0.00235923
0.00234505
0.00232737
0.00230641
0.00228242
0.00225564
0.00222638
0.00219493
0.00216164
0.00212683
0.00209083
0.00205397
0.00201654
0.00197883
0.00194109
0.00190355
0.00186642
0.00182988
0.00179408
0.00175916
0.00172524
0.0016924
0.00166073
0.00163029
0.00160113
0.0015733
0.00154683
0.00152175
0.0014981
0.00147589
0.00145518
0.00143612
0.00141784
0.00140009
0.00138296
0.00136659
0.00135107
0.00133648
0.00132289
0.00131034
0.00129885
0.00128843
0.0012791
0.00127086
0.0012637
0.00125762
0.0012526
0.00124863
0.00124569
0.00124375
0.00124279
0.00124277
0.00124365
0.00124537
0.00124788
0.00125111
0.00125499
0.00125944
0.00126439
0.00126973
0.00127538
0.00128126
0.00128727
0.00129335
0.00129939
0.00130535
0.00131115
0.00131674
0.00132207
0.00132711
0.00133183
0.00133624
0.00134035
0.00134424
0.00134804
0.00135022
0.00135086
0.00135064
0.00135036
0.00135082
0.00135187
7.19518e-05
0.000198436
0.000275289
0.00032347
0.000359144
0.000388234
0.000412959
0.000434555
0.000454286
0.000473882
0.000495479
0.000520629
0.000549333
0.000580312
0.000613086
0.000647748
0.000683921
0.000720411
0.000756953
0.000793549
0.000830231
0.000867033
0.000903986
0.000941121
0.000978466
0.00101604
0.00105388
0.00109198
0.00113036
0.00116903
0.00120798
0.00124721
0.00128671
0.00132647
0.00136646
0.00140667
0.00144706
0.00148761
0.00152827
0.00156902
0.00160981
0.00165061
0.00169136
0.00173201
0.00177253
0.00181285
0.00185293
0.00189271
0.00193213
0.00197113
0.00200966
0.00204765
0.00208504
0.00212177
0.00215777
0.00219298
0.00222733
0.00226076
0.0022932
0.00232459
0.00235487
0.00238398
0.00241187
0.00243851
0.00246355
0.00248703
0.00250912
0.00252998
0.00254966
0.00256822
0.00258571
0.00260216
0.00261762
0.00263215
0.00264577
0.00265856
0.00267056
0.00268183
0.00269243
0.00270244
0.00271191
0.00272093
0.00272957
0.00273789
0.002746
0.00275395
0.00276185
0.00276977
0.00277781
0.00278605
0.00279459
0.00280353
0.00281296
0.00282298
0.00283369
0.00284518
0.00285755
0.00287089
0.00288528
0.0029008
0.00291749
0.00293541
0.00295455
0.00297491
0.00299642
0.00301896
0.00304238
0.00306643
0.00309086
0.00311521
0.00313922
0.0031621
0.00318337
0.00320244
0.00321862
0.00323113
0.00323916
0.00324184
0.00323888
0.00323049
0.00321692
0.00319841
0.00317521
0.00314762
0.00311597
0.00308067
0.00304216
0.00300089
0.00295733
0.00291195
0.0028652
0.00281751
0.00276928
0.00272088
0.00267263
0.00262482
0.00257771
0.00253153
0.00248646
0.00244267
0.00240029
0.00235943
0.00232019
0.00228264
0.00224684
0.00221283
0.00218064
0.00215031
0.00212189
0.00209545
0.00207054
0.00204662
0.00202369
0.0020018
0.00198098
0.00196131
0.00194284
0.0019256
0.00190963
0.00189496
0.00188158
0.00186951
0.00185873
0.00184925
0.00184103
0.00183406
0.00182831
0.00182374
0.0018203
0.00181795
0.00181663
0.00181627
0.00181679
0.0018181
0.00182012
0.00182275
0.00182588
0.0018294
0.00183323
0.00183724
0.00184134
0.00184543
0.00184942
0.00185324
0.00185682
0.00186008
0.00186298
0.00186547
0.00186752
0.0018691
0.00187023
0.00187091
0.00187123
0.00187041
0.00186804
0.00186442
0.00186011
0.00185595
0.00185303
0.00185201
8.29187e-05
0.000225651
0.000316134
0.000373114
0.00041512
0.000450155
0.000481624
0.000511335
0.000540664
0.000570963
0.000603545
0.000639186
0.000677785
0.000718616
0.000761113
0.0008049
0.000849435
0.000894202
0.000939035
0.000983925
0.0010289
0.001074
0.00111926
0.00116472
0.0012104
0.00125633
0.00130253
0.00134903
0.00139581
0.00144289
0.00149027
0.00153793
0.00158586
0.00163404
0.00168243
0.00173102
0.00177976
0.00182861
0.00187754
0.0019265
0.00197543
0.00202428
0.00207301
0.00212155
0.00216985
0.00221784
0.00226547
0.00231267
0.00235937
0.00240552
0.00245104
0.00249586
0.00253992
0.00258315
0.00262547
0.00266682
0.00270713
0.00274631
0.00278432
0.00282106
0.00285649
0.00289053
0.00292314
0.00295416
0.00298336
0.00301089
0.00303686
0.00306136
0.00308445
0.00310618
0.00312659
0.00314573
0.00316364
0.00318037
0.00319598
0.00321052
0.00322405
0.00323664
0.00324836
0.00325928
0.00326948
0.00327905
0.00328808
0.00329665
0.00330486
0.00331281
0.00332061
0.00332836
0.00333617
0.00334417
0.00335247
0.0033612
0.00337048
0.00338046
0.00339125
0.00340301
0.00341588
0.00342998
0.00344544
0.0034624
0.00348095
0.00350117
0.00352312
0.00354684
0.00357227
0.00359932
0.00362784
0.00365753
0.00368822
0.00371914
0.00374986
0.00377973
0.00380807
0.00383412
0.00385704
0.00387595
0.00388997
0.00389832
0.00390052
0.00389647
0.0038862
0.00386984
0.00384763
0.00381987
0.00378697
0.00374941
0.00370772
0.00366247
0.00361424
0.00356361
0.00351114
0.00345738
0.0034028
0.00334787
0.003293
0.00323854
0.00318482
0.00313211
0.00308064
0.00303063
0.00298222
0.00293556
0.00289076
0.0028479
0.00280705
0.00276824
0.00273153
0.00269692
0.00266446
0.00263405
0.00260495
0.00257715
0.00255065
0.00252544
0.00250154
0.00247897
0.00245774
0.00243789
0.00241941
0.00240232
0.00238661
0.00237229
0.00235932
0.0023477
0.00233738
0.00232835
0.00232056
0.00231394
0.00230846
0.00230403
0.00230059
0.00229805
0.00229632
0.0022953
0.00229488
0.00229497
0.00229544
0.0022962
0.00229713
0.00229813
0.00229909
0.00229993
0.00230056
0.00230091
0.00230089
0.00230046
0.00229956
0.00229815
0.00229618
0.00229365
0.00229052
0.0022868
0.0022822
0.00227611
0.00226867
0.00226013
0.00225096
0.00224204
0.00223472
0.00223055
9.2358e-05
0.000248257
0.000351026
0.000416816
0.000465521
0.000506716
0.000544767
0.000581894
0.000619479
0.000658544
0.000699849
0.000743731
0.000790015
0.00083819
0.000887748
0.000938254
0.000989278
0.00104051
0.00109181
0.00114318
0.00119462
0.00124617
0.00129787
0.00134974
0.00140183
0.00145416
0.00150674
0.0015596
0.00161273
0.00166614
0.00171981
0.00177374
0.00182791
0.00188229
0.00193685
0.00199155
0.00204635
0.00210121
0.00215608
0.0022109
0.00226564
0.00232021
0.00237458
0.00242867
0.00248243
0.00253579
0.00258868
0.00264104
0.0026928
0.00274389
0.00279424
0.00284378
0.00289245
0.00294016
0.00298685
0.00303245
0.00307688
0.00312007
0.00316194
0.00320243
0.00324147
0.00327898
0.0033149
0.00334893
0.00338113
0.00341156
0.00344031
0.00346742
0.00349294
0.00351691
0.00353936
0.00356034
0.00357989
0.00359805
0.00361488
0.00363043
0.00364476
0.00365795
0.00367006
0.00368116
0.00369136
0.00370072
0.00370936
0.00371737
0.00372486
0.00373195
0.00373874
0.00374537
0.00375197
0.00375867
0.00376563
0.003773
0.00378093
0.00378959
0.00379917
0.00380983
0.00382177
0.00383517
0.00385022
0.0038671
0.00388598
0.00390699
0.00393027
0.00395593
0.00398392
0.00401424
0.00404683
0.00408118
0.00411706
0.00415391
0.00419116
0.00422809
0.00426389
0.00429764
0.00432836
0.00435504
0.00437667
0.00439238
0.00440153
0.00440376
0.00439891
0.004387
0.0043682
0.00434282
0.0043113
0.00427418
0.00423208
0.00418565
0.00413559
0.00408257
0.00402726
0.00397028
0.00391221
0.00385359
0.00379489
0.00373653
0.00367889
0.00362229
0.003567
0.00351324
0.0034612
0.00341104
0.00336288
0.0033168
0.00327287
0.00323113
0.0031916
0.00315429
0.00311923
0.00308583
0.0030539
0.00302345
0.00299446
0.00296692
0.0029408
0.0029161
0.00289282
0.00287094
0.00285046
0.00283138
0.00281367
0.00279732
0.00278231
0.0027686
0.00275615
0.00274493
0.00273487
0.00272593
0.00271802
0.00271108
0.00270502
0.00269975
0.00269518
0.0026912
0.00268772
0.00268461
0.00268178
0.00267911
0.00267652
0.00267388
0.00267112
0.00266813
0.00266485
0.0026612
0.00265711
0.00265251
0.00264737
0.00264162
0.00263524
0.00262818
0.0026204
0.00261182
0.00260184
0.0025905
0.00257792
0.0025643
0.00255007
0.00253612
0.00252414
0.00251665
0.000100446
0.000267118
0.00038099
0.000455363
0.000510807
0.000558029
0.000602149
0.000645711
0.000690102
0.000736131
0.000784239
0.000834524
0.000886767
0.000940555
0.000995459
0.00105109
0.00110713
0.00116334
0.00121962
0.00127594
0.00133231
0.00138876
0.00144533
0.00150204
0.00155893
0.00161601
0.00167332
0.00173086
0.00178863
0.00184664
0.00190487
0.00196332
0.00202195
0.00208074
0.00213966
0.00219867
0.00225772
0.00231678
0.00237578
0.00243468
0.00249342
0.00255195
0.00261019
0.00266809
0.00272559
0.00278262
0.00283912
0.00289501
0.00295023
0.00300471
0.00305839
0.00311119
0.00316304
0.00321388
0.00326362
0.00331221
0.00335956
0.00340559
0.00345024
0.00349344
0.0035351
0.00357515
0.00361339
0.00364973
0.0036842
0.00371684
0.00374769
0.00377678
0.00380414
0.00382978
0.00385375
0.00387606
0.00389675
0.00391587
0.00393344
0.00394954
0.0039642
0.00397751
0.00398952
0.00400031
0.00400998
0.0040186
0.00402629
0.00403314
0.00403928
0.00404482
0.0040499
0.00405465
0.00405922
0.00406377
0.00406846
0.00407349
0.00407903
0.00408529
0.00409248
0.00410083
0.00411058
0.00412196
0.00413521
0.00415061
0.0041684
0.00418877
0.00421194
0.0042382
0.00426744
0.00429971
0.00433494
0.00437289
0.00441324
0.00445551
0.00449906
0.00454314
0.0045868
0.00462899
0.00466857
0.00470434
0.00473513
0.00475989
0.00477775
0.00478812
0.00479065
0.00478522
0.00477192
0.00475104
0.00472304
0.0046885
0.00464812
0.00460265
0.00455286
0.00449955
0.00444345
0.00438529
0.00432574
0.0042654
0.00420481
0.00414445
0.00408474
0.00402604
0.00396865
0.00391283
0.00385878
0.00380666
0.00375659
0.00370868
0.00366297
0.00361949
0.00357825
0.00353924
0.00350227
0.00346684
0.00343299
0.0034007
0.00336996
0.00334072
0.00331294
0.0032866
0.00326167
0.00323812
0.00321593
0.00319508
0.00317554
0.00315729
0.00314029
0.0031245
0.00310988
0.00309637
0.00308393
0.00307247
0.00306194
0.00305225
0.00304332
0.00303505
0.00302736
0.00302013
0.00301328
0.00300669
0.00300027
0.00299391
0.00298752
0.002981
0.00297426
0.00296722
0.0029598
0.00295194
0.00294356
0.00293461
0.00292503
0.00291478
0.00290379
0.00289202
0.00287943
0.00286561
0.00285045
0.00283401
0.00281638
0.00279772
0.00277845
0.00275953
0.00274296
0.00273224
0.000107309
0.000282776
0.000406641
0.000489197
0.000551189
0.000604116
0.000653685
0.000702717
0.000752633
0.000804133
0.000857493
0.000912692
0.000969491
0.00102754
0.00108647
0.00114597
0.00120577
0.0012657
0.00132566
0.00138563
0.00144562
0.00150563
0.00156571
0.00162588
0.00168618
0.00174663
0.00180724
0.00186803
0.001929
0.00199016
0.00205149
0.00211297
0.0021746
0.00223634
0.00229815
0.00236001
0.00242186
0.00248367
0.00254538
0.00260694
0.0026683
0.0027294
0.00279018
0.00285058
0.00291054
0.00296999
0.00302887
0.00308712
0.00314467
0.00320145
0.00325739
0.00331244
0.00336651
0.00341953
0.00347145
0.00352218
0.00357165
0.00361979
0.00366651
0.00371174
0.0037554
0.00379736
0.00383744
0.00387565
0.00391197
0.00394642
0.00397901
0.00400973
0.00403859
0.00406561
0.0040908
0.00411417
0.00413574
0.00415554
0.00417362
0.00419
0.00420473
0.00421789
0.00422952
0.0042397
0.00424852
0.00425606
0.00426243
0.00426773
0.00427208
0.00427561
0.00427846
0.00428078
0.00428272
0.00428446
0.00428619
0.00428811
0.00429043
0.00429339
0.00429724
0.00430226
0.00430873
0.00431692
0.00432717
0.0043398
0.00435523
0.00437361
0.00439529
0.00442056
0.00444956
0.0044824
0.00451913
0.00455962
0.00460362
0.0046507
0.00470025
0.00475146
0.00480331
0.00485461
0.00490403
0.00495017
0.00499162
0.00502707
0.00505541
0.00507578
0.0050876
0.00509058
0.00508472
0.00507026
0.00504765
0.00501753
0.00498065
0.00493785
0.00489001
0.00483801
0.0047827
0.00472488
0.00466531
0.00460468
0.00454357
0.00448254
0.00442204
0.00436248
0.00430418
0.00424742
0.00419242
0.00413935
0.00408835
0.00403949
0.00399282
0.00394837
0.00390611
0.00386602
0.00382759
0.00379079
0.00375561
0.00372202
0.00368998
0.00365944
0.00363034
0.00360264
0.0035763
0.00355127
0.00352753
0.00350503
0.00348375
0.00346364
0.00344468
0.0034268
0.00340998
0.00339414
0.00337923
0.00336519
0.00335193
0.00333938
0.00332746
0.00331608
0.00330514
0.00329455
0.00328421
0.00327402
0.0032639
0.00325373
0.00324344
0.00323293
0.00322212
0.00321092
0.00319928
0.00318711
0.00317436
0.00316096
0.00314685
0.00313199
0.00311632
0.00309977
0.00308215
0.00306324
0.00304308
0.0030217
0.00299917
0.0029756
0.00295143
0.00292769
0.00290672
0.00289294
0.000113058
0.00029563
0.000428423
0.000518643
0.000586843
0.000645049
0.00069943
0.000753053
0.000807404
0.000863151
0.0009205
0.00097938
0.00103956
0.00110073
0.00116258
0.00122484
0.00128731
0.00134983
0.00141233
0.00147478
0.00153719
0.00159957
0.00166195
0.00172436
0.00178684
0.0018494
0.00191206
0.00197485
0.00203776
0.00210081
0.00216397
0.00222725
0.00229063
0.00235407
0.00241756
0.00248105
0.00254451
0.0026079
0.00267117
0.00273428
0.00279716
0.00285977
0.00292206
0.00298396
0.00304541
0.00310636
0.00316674
0.00322649
0.00328554
0.00334384
0.00340131
0.00345788
0.0035135
0.00356809
0.00362158
0.0036739
0.00372498
0.00377472
0.00382307
0.00386992
0.00391518
0.00395869
0.00400039
0.00404023
0.00407819
0.00411425
0.00414838
0.00418057
0.00421081
0.00423907
0.00426536
0.00428968
0.00431204
0.00433244
0.00435092
0.00436749
0.0043822
0.0043951
0.00440623
0.00441568
0.00442351
0.00442981
0.00443467
0.00443821
0.00444054
0.00444179
0.00444211
0.00444165
0.00444058
0.00443909
0.00443737
0.00443565
0.00443416
0.00443317
0.00443295
0.00443382
0.00443615
0.00444023
0.00444645
0.00445521
0.00446694
0.004482
0.0045008
0.00452373
0.00455111
0.00458319
0.00462015
0.00466203
0.0047087
0.00475983
0.00481487
0.00487301
0.00493318
0.00499407
0.00505416
0.00511181
0.00516532
0.00521308
0.00525364
0.00528584
0.00530884
0.00532214
0.00532559
0.00531935
0.00530387
0.00527981
0.00524799
0.00520935
0.00516485
0.00511548
0.0050622
0.00500591
0.00494745
0.00488759
0.00482698
0.00476624
0.00470586
0.00464629
0.00458789
0.00453095
0.00447572
0.00442237
0.00437103
0.00432179
0.00427468
0.00422971
0.00418684
0.00414586
0.00410648
0.00406873
0.00403258
0.00399801
0.00396495
0.00393334
0.00390311
0.0038742
0.00384657
0.00382016
0.00379492
0.00377083
0.00374783
0.00372589
0.00370496
0.00368499
0.00366594
0.00364773
0.00363033
0.00361364
0.00359761
0.00358215
0.00356719
0.00355263
0.0035384
0.00352438
0.00351051
0.00349667
0.00348279
0.00346877
0.00345452
0.00343997
0.00342503
0.00340963
0.00339371
0.00337718
0.00336
0.0033421
0.00332343
0.00330393
0.00328352
0.00326213
0.00323951
0.0032157
0.00319072
0.00316458
0.0031373
0.00310901
0.00308012
0.00305177
0.0030266
0.00300992
0.000117797
0.000306014
0.000446709
0.000544001
0.000617974
0.000680977
0.000739545
0.000796964
0.000854817
0.000913784
0.00097406
0.00103557
0.0010981
0.00116137
0.00122514
0.00128916
0.00135327
0.00141735
0.00148133
0.00154519
0.00160892
0.00167256
0.00173612
0.00179964
0.00186316
0.0019267
0.00199028
0.00205393
0.00211765
0.00218146
0.00224536
0.00230933
0.00237337
0.00243746
0.00250158
0.0025657
0.00262978
0.0026938
0.00275771
0.00282146
0.00288501
0.00294831
0.00301131
0.00307395
0.00313617
0.00319793
0.00325916
0.00331979
0.00337977
0.00343902
0.0034975
0.00355512
0.00361183
0.00366756
0.00372223
0.00377577
0.00382811
0.00387916
0.00392883
0.00397704
0.00402368
0.00406864
0.00411185
0.00415324
0.00419275
0.00423035
0.00426598
0.0042996
0.00433117
0.00436068
0.00438808
0.00441336
0.00443652
0.00445755
0.00447646
0.00449325
0.00450797
0.00452063
0.0045313
0.00454002
0.00454686
0.00455191
0.00455525
0.00455698
0.00455723
0.00455612
0.0045538
0.00455042
0.00454616
0.00454122
0.00453579
0.00453013
0.00452447
0.00451912
0.00451436
0.00451055
0.00450805
0.00450726
0.0045086
0.00451254
0.00451956
0.00453017
0.00454489
0.00456422
0.00458865
0.00461862
0.00465448
0.00469646
0.00474463
0.0047988
0.00485856
0.00492314
0.00499148
0.00506216
0.0051335
0.00520358
0.0052704
0.00533195
0.00538642
0.00543226
0.00546829
0.00549376
0.00550833
0.00551206
0.00550535
0.00548889
0.00546356
0.00543039
0.00539046
0.00534486
0.00529466
0.00524087
0.00518442
0.00512616
0.00506682
0.00500708
0.00494749
0.00488853
0.00483059
0.004774
0.00471901
0.00466581
0.00461452
0.00456524
0.00451799
0.00447275
0.00442948
0.00438782
0.00434776
0.0043093
0.00427241
0.00423703
0.00420309
0.00417052
0.00413925
0.0041092
0.00408032
0.00405255
0.00402584
0.00400015
0.00397543
0.00395164
0.00392872
0.00390663
0.00388531
0.00386471
0.00384476
0.0038254
0.00380655
0.00378815
0.0037701
0.00375233
0.00373476
0.00371728
0.00369983
0.00368231
0.00366463
0.00364671
0.00362848
0.00360985
0.00359075
0.00357111
0.00355087
0.00352996
0.00350832
0.0034859
0.00346264
0.00343848
0.00341334
0.00338708
0.00335967
0.00333115
0.00330153
0.0032708
0.00323896
0.00320613
0.00317275
0.00314002
0.00311084
0.00309137
0.000121633
0.000314223
0.000461839
0.000565569
0.000644821
0.000712111
0.000774255
0.000834745
0.000895271
0.000956562
0.00101883
0.00108203
0.00114596
0.00121041
0.00127514
0.00133997
0.00140475
0.00146938
0.00153381
0.00159803
0.00166204
0.00172586
0.00178954
0.0018531
0.00191659
0.00198003
0.00204347
0.00210694
0.00217044
0.002234
0.00229763
0.00236132
0.00242509
0.00248892
0.00255279
0.00261669
0.00268059
0.00274446
0.00280826
0.00287196
0.00293551
0.00299887
0.00306199
0.00312481
0.00318729
0.00324936
0.00331097
0.00337206
0.00343256
0.0034924
0.00355153
0.00360988
0.00366738
0.00372397
0.00377956
0.00383408
0.00388746
0.00393962
0.00399045
0.00403991
0.00408788
0.00413427
0.00417897
0.00422189
0.00426296
0.00430211
0.00433926
0.00437436
0.00440733
0.00443813
0.00446672
0.00449306
0.00451712
0.00453888
0.00455833
0.00457547
0.00459031
0.00460287
0.00461318
0.00462129
0.00462727
0.00463117
0.00463309
0.00463312
0.00463136
0.00462796
0.00462305
0.00461679
0.00460935
0.00460094
0.00459177
0.00458207
0.00457212
0.00456221
0.00455267
0.00454385
0.00453615
0.00453001
0.00452589
0.00452433
0.00452588
0.00453114
0.00454075
0.00455535
0.00457561
0.00460214
0.00463553
0.00467622
0.00472452
0.00478047
0.00484384
0.00491402
0.00498999
0.00507031
0.00515313
0.00523629
0.00531741
0.00539408
0.00546401
0.0055252
0.00557607
0.00561552
0.00564298
0.00565837
0.00566202
0.00565463
0.00563714
0.00561067
0.00557641
0.00553559
0.00548938
0.00543892
0.00538523
0.00532925
0.00527181
0.00521363
0.00515533
0.00509743
0.00504036
0.00498448
0.00493004
0.00487726
0.00482627
0.00477715
0.00472992
0.00468456
0.00464092
0.00459879
0.00455822
0.00451919
0.00448166
0.00444555
0.00441079
0.00437729
0.00434499
0.0043138
0.00428367
0.00425452
0.00422631
0.00419899
0.00417251
0.00414681
0.00412186
0.0040976
0.00407397
0.00405092
0.00402839
0.0040063
0.00398459
0.00396319
0.00394201
0.00392099
0.00390002
0.00387905
0.00385798
0.00383672
0.00381521
0.00379337
0.00377111
0.00374838
0.00372509
0.00370119
0.00367661
0.00365131
0.00362521
0.00359827
0.00357043
0.00354163
0.00351178
0.00348082
0.00344881
0.00341577
0.00338169
0.00334655
0.00331036
0.00327322
0.00323557
0.00319868
0.0031657
0.00314354
0.000124664
0.00032053
0.000474126
0.000583639
0.000667639
0.000738684
0.000803806
0.000866681
0.000929114
0.000991902
0.0010553
0.0011193
0.00118374
0.00124844
0.0013132
0.00137787
0.00144234
0.00150652
0.00157038
0.00163392
0.00169716
0.00176012
0.00182285
0.00188541
0.00194783
0.00201016
0.00207246
0.00213476
0.00219709
0.00225948
0.00232196
0.00238453
0.00244722
0.00251001
0.00257291
0.0026359
0.00269897
0.00276209
0.00282523
0.00288836
0.00295143
0.0030144
0.00307723
0.00313986
0.00320223
0.0032643
0.003326
0.00338726
0.00344802
0.00350822
0.00356779
0.00362666
0.00368477
0.00374203
0.00379838
0.00385374
0.00390804
0.00396116
0.00401314
0.00406386
0.0041132
0.00416104
0.00420725
0.00425175
0.00429442
0.00433518
0.00437393
0.00441057
0.00444503
0.00447724
0.00450714
0.00453466
0.00455976
0.00458241
0.00460257
0.00462023
0.00463536
0.00464799
0.00465814
0.00466584
0.00467115
0.00467411
0.00467481
0.00467333
0.00466978
0.00466429
0.00465698
0.00464802
0.00463758
0.00462586
0.00461307
0.00459945
0.00458528
0.00457085
0.0045565
0.00454261
0.00452958
0.00451787
0.00450801
0.00450055
0.00449612
0.00449539
0.00449911
0.00450806
0.00452306
0.00454493
0.00457447
0.00461241
0.00465931
0.00471553
0.0047811
0.00485564
0.00493829
0.00502764
0.00512176
0.00521824
0.00531435
0.0054072
0.00549396
0.00557209
0.00563952
0.00569472
0.0057368
0.0057655
0.00578105
0.00578415
0.00577578
0.00575717
0.00572963
0.00569451
0.00565312
0.00560672
0.00555645
0.00550334
0.0054483
0.00539214
0.00533553
0.00527904
0.00522315
0.00516823
0.00511457
0.00506239
0.00501183
0.00496299
0.00491586
0.00487043
0.00482647
0.00478398
0.00474298
0.00470344
0.0046653
0.00462848
0.0045929
0.00455847
0.00452511
0.00449274
0.0044613
0.00443073
0.00440096
0.00437194
0.00434364
0.00431598
0.00428893
0.00426243
0.00423643
0.00421087
0.00418568
0.00416081
0.00413617
0.00411171
0.00408735
0.00406301
0.00403861
0.00401408
0.00398935
0.00396433
0.00393895
0.00391314
0.00388684
0.00385998
0.0038325
0.00380433
0.00377543
0.00374574
0.00371521
0.00368379
0.00365142
0.00361804
0.00358359
0.00354815
0.00351174
0.00347437
0.00343603
0.00339669
0.00335636
0.00331514
0.00327348
0.00323267
0.00319607
0.0031713
0.000126991
0.000325182
0.000483865
0.00059849
0.000686676
0.00076092
0.000828413
0.000892993
0.000956586
0.00102007
0.00108375
0.00114766
0.00121169
0.00127569
0.00133952
0.00140304
0.00146617
0.00152886
0.00159109
0.00165289
0.00171428
0.00177532
0.00183606
0.00189657
0.00195692
0.00201716
0.00207737
0.0021376
0.0021979
0.00225831
0.00231887
0.00237961
0.00244055
0.0025017
0.00256306
0.00262464
0.00268642
0.00274837
0.00281047
0.00287269
0.00293498
0.00299729
0.00305959
0.00312181
0.0031839
0.00324579
0.00330742
0.00336872
0.00342962
0.00349005
0.00354994
0.00360922
0.00366783
0.00372568
0.00378269
0.0038388
0.00389391
0.0039481
0.00400128
0.00405331
0.00410405
0.00415338
0.00420116
0.00424728
0.00429161
0.00433406
0.00437448
0.00441277
0.00444882
0.00448255
0.00451388
0.00454273
0.00456903
0.00459273
0.00461378
0.00463215
0.0046478
0.00466074
0.00467097
0.00467852
0.00468341
0.0046857
0.00468546
0.00468276
0.00467771
0.00467041
0.00466101
0.00464965
0.00463649
0.00462174
0.0046056
0.00458832
0.00457017
0.00455144
0.00453248
0.00451365
0.00449539
0.00447817
0.00446252
0.00444904
0.00443839
0.00443132
0.00442864
0.00443126
0.00444013
0.00445627
0.0044807
0.00451442
0.00455833
0.00461313
0.0046792
0.00475649
0.00484441
0.00494171
0.00504644
0.00515605
0.00526744
0.0053772
0.00548192
0.00557841
0.00566398
0.00573661
0.005795
0.00583862
0.00586759
0.00588255
0.00588456
0.00587492
0.00585508
0.00582654
0.00579075
0.00574909
0.00570282
0.0056531
0.00560093
0.00554718
0.00549259
0.0054378
0.00538331
0.00532955
0.00527682
0.00522536
0.00517533
0.00512681
0.00507982
0.00503429
0.0049901
0.00494731
0.00490591
0.00486586
0.00482711
0.00478955
0.00475311
0.00471769
0.00468322
0.00464961
0.0046168
0.00458472
0.00455331
0.00452253
0.00449232
0.00446262
0.00443339
0.00440458
0.00437612
0.00434797
0.00432005
0.00429232
0.00426469
0.0042371
0.00420949
0.00418178
0.0041539
0.00412577
0.00409733
0.00406852
0.00403925
0.00400947
0.00397912
0.00394814
0.00391648
0.00388407
0.00385088
0.00381686
0.00378195
0.00374611
0.00370929
0.00367145
0.00363264
0.00359293
0.00355232
0.00351084
0.00346845
0.00342515
0.00338091
0.00333587
0.00329044
0.00324596
0.00320592
0.00317863
0.000128703
0.000328408
0.000491323
0.000610369
0.00070214
0.000778985
0.000848206
0.000913783
0.000977757
0.00104109
0.00110415
0.00116704
0.00122968
0.00129197
0.00135381
0.0014151
0.0014758
0.00153589
0.00159538
0.00165432
0.00171277
0.00177079
0.00182849
0.00188594
0.00194324
0.00200048
0.00205774
0.0021151
0.00217263
0.00223039
0.00228843
0.0023468
0.00240551
0.0024646
0.00252407
0.00258393
0.00264415
0.00270473
0.00276561
0.00282678
0.00288817
0.00294975