/*--------------------------------*- C++ -*----------------------------------*\
  =========                 |
  \\      /  F ield         | OpenFOAM: The Open Source CFD Toolbox
   \\    /   O peration     | Website:  https://openfoam.org
    \\  /    A nd           | Version:  7
     \\/     M anipulation  |
\*---------------------------------------------------------------------------*/
FoamFile
{
    version     2.0;
    format      ascii;
    class       volScalarField;
    location    "600";
    object      p;
}
// * * * * * * * * * * * * * * * * * * * * * * * * * * * * * * * * * * * * * //

dimensions      [0 2 -2 0 0 0 0];

internalField   nonuniform List<scalar> 
16900
(
-21.833
-21.8377
-21.8462
-21.8576
-21.8716
-21.8882
-21.9074
-21.9292
-21.954
-21.9819
-22.0121
-22.043
-22.0784
-22.1196
-22.1579
-22.1926
-22.231
-22.2728
-22.3155
-22.3588
-22.4025
-22.4462
-22.4899
-22.5333
-22.5763
-22.6188
-22.6605
-22.7013
-22.7409
-22.7791
-22.8157
-22.8504
-22.883
-22.9131
-22.9404
-22.9646
-22.9855
-23.0026
-23.0156
-23.0242
-23.0281
-23.0268
-23.0201
-23.0076
-22.989
-22.964
-22.9322
-22.8935
-22.8474
-22.7938
-22.7325
-22.6633
-22.586
-22.5005
-22.4067
-22.3046
-22.1941
-22.0753
-21.9482
-21.8128
-21.6694
-21.518
-21.3589
-21.1921
-21.0179
-20.8365
-20.648
-20.4528
-20.2509
-20.0428
-19.8284
-19.608
-19.3815
-19.1492
-18.9109
-18.6668
-18.4168
-18.1609
-17.8989
-17.6308
-17.3564
-17.0756
-16.7882
-16.494
-16.1928
-15.8844
-15.5685
-15.2451
-14.9139
-14.5747
-14.2273
-13.8718
-13.5079
-13.1357
-12.7552
-12.3664
-11.9695
-11.5647
-11.1523
-10.7327
-10.3064
-9.87398
-9.43605
-8.99346
-8.54713
-8.09813
-7.64766
-7.19709
-6.74791
-6.30179
-5.8606
-5.42638
-5.00126
-4.58748
-4.1871
-3.80395
-3.43901
-3.089
-2.75771
-2.45143
-2.17111
-1.91727
-1.69016
-1.48974
-1.31564
-1.16711
-1.04312
-0.942334
-0.863204
-0.804015
-0.762944
-0.738117
-0.727659
-0.729734
-0.742576
-0.76452
-0.794013
-0.829629
-0.870072
-0.914178
-0.960909
-1.00935
-1.05871
-1.10829
-1.1575
-1.20584
-1.25289
-1.2983
-1.3418
-1.38316
-1.42221
-1.45879
-1.49276
-1.52405
-1.55262
-1.57843
-1.60147
-1.62172
-1.63919
-1.65388
-1.66583
-1.67504
-1.68155
-1.68539
-1.68659
-1.68518
-1.68118
-1.67462
-1.66551
-1.65387
-1.63969
-1.62298
-1.60371
-1.58187
-1.5574
-1.53027
-1.50041
-1.46774
-1.43218
-1.39363
-1.35198
-1.30711
-1.25891
-1.20726
-1.15203
-1.09312
-1.03042
-0.963881
-0.893436
-0.819086
-0.740865
-0.65889
-0.573348
-0.484535
-0.392882
-0.299173
-0.204974
-0.112698
-0.0296779
0.0471746
-21.828
-21.8334
-21.8397
-21.8481
-21.8597
-21.8741
-21.8911
-21.9104
-21.9318
-21.955
-21.9802
-22.0104
-22.0448
-22.0782
-22.1164
-22.1627
-22.2087
-22.2517
-22.2944
-22.3374
-22.3805
-22.4236
-22.4667
-22.5095
-22.552
-22.5939
-22.6352
-22.6755
-22.7147
-22.7525
-22.7888
-22.8233
-22.8556
-22.8856
-22.9129
-22.9371
-22.9581
-22.9754
-22.9887
-22.9977
-23.002
-23.0013
-22.9952
-22.9835
-22.9657
-22.9416
-22.9108
-22.8732
-22.8283
-22.776
-22.7161
-22.6483
-22.5725
-22.4886
-22.3964
-22.2959
-22.1871
-22.07
-21.9446
-21.811
-21.6693
-21.5196
-21.3621
-21.1971
-21.0246
-20.8447
-20.6578
-20.464
-20.2637
-20.057
-19.8442
-19.6253
-19.4004
-19.1696
-18.933
-18.6906
-18.4424
-18.1883
-17.9282
-17.6621
-17.3899
-17.1113
-16.8263
-16.5346
-16.236
-15.9304
-15.6176
-15.2973
-14.9693
-14.6336
-14.2899
-13.9382
-13.5783
-13.2102
-12.834
-12.4497
-12.0574
-11.6573
-11.2498
-10.8353
-10.414
-9.98675
-9.55403
-9.11666
-8.67553
-8.23166
-7.7862
-7.34044
-6.89581
-6.45396
-6.01667
-5.58598
-5.16378
-4.75215
-4.35129
-3.9648
-3.59689
-3.24723
-2.91809
-2.61245
-2.33142
-2.07567
-1.84557
-1.64119
-1.46227
-1.30819
-1.17803
-1.07059
-0.984459
-0.918028
-0.869587
-0.837363
-0.819564
-0.814427
-0.820249
-0.835409
-0.85839
-0.887792
-0.922334
-0.96086
-1.00234
-1.04584
-1.09058
-1.13583
-1.18101
-1.2256
-1.26915
-1.31131
-1.35178
-1.39031
-1.4267
-1.46077
-1.49242
-1.52158
-1.54817
-1.57215
-1.59347
-1.61212
-1.6281
-1.6414
-1.65204
-1.66004
-1.66543
-1.66822
-1.66846
-1.66616
-1.66135
-1.65406
-1.6443
-1.63209
-1.61743
-1.60033
-1.58077
-1.55873
-1.53419
-1.50709
-1.47738
-1.445
-1.40985
-1.37185
-1.3309
-1.28687
-1.23965
-1.18911
-1.13514
-1.07763
-1.01646
-0.951578
-0.882917
-0.810476
-0.734309
-0.65455
-0.571395
-0.485099
-0.39618
-0.305588
-0.215069
-0.126714
-0.0490033
0.0371895
-21.8209
-21.8302
-21.8382
-21.8465
-21.8575
-21.8714
-21.8881
-21.9073
-21.9291
-21.9534
-21.9802
-22.0106
-22.0442
-22.0785
-22.1145
-22.1543
-22.1955
-22.2365
-22.278
-22.3199
-22.362
-22.4042
-22.4463
-22.4883
-22.5299
-22.571
-22.6114
-22.651
-22.6896
-22.7269
-22.7626
-22.7966
-22.8286
-22.8583
-22.8853
-22.9095
-22.9304
-22.9477
-22.9611
-22.9704
-22.975
-22.9748
-22.9692
-22.9581
-22.9411
-22.9179
-22.8881
-22.8515
-22.8079
-22.7569
-22.6983
-22.632
-22.5577
-22.4754
-22.3849
-22.2861
-22.1791
-22.0638
-21.9403
-21.8085
-21.6687
-21.521
-21.3654
-21.2023
-21.0315
-20.8534
-20.6683
-20.4763
-20.2778
-20.0729
-19.8619
-19.6448
-19.4218
-19.1929
-18.9583
-18.7179
-18.4718
-18.2199
-17.9622
-17.6986
-17.4289
-17.153
-16.8708
-16.5821
-16.2867
-15.9844
-15.675
-15.3584
-15.0343
-14.7026
-14.3631
-14.0158
-13.6605
-13.2972
-12.926
-12.547
-12.1601
-11.7657
-11.3641
-10.9556
-10.5407
-10.1198
-9.69381
-9.26328
-8.82916
-8.39243
-7.95423
-7.51587
-7.07872
-6.64451
-6.21475
-5.7914
-5.37523
-4.96842
-4.57283
-4.19069
-3.82431
-3.47333
-3.14082
-2.83017
-2.54292
-2.27999
-2.04195
-1.82897
-1.64093
-1.47732
-1.33735
-1.21993
-1.12376
-1.04735
-0.989058
-0.947209
-0.920073
-0.905942
-0.90315
-0.910107
-0.925314
-0.947378
-0.975021
-1.00708
-1.04251
-1.08038
-1.11987
-1.16025
-1.20091
-1.2413
-1.28096
-1.31953
-1.35667
-1.39211
-1.42561
-1.45703
-1.48626
-1.51319
-1.53771
-1.55978
-1.57934
-1.59637
-1.61086
-1.62281
-1.63222
-1.63911
-1.6435
-1.64541
-1.64486
-1.64189
-1.63652
-1.62876
-1.61865
-1.60618
-1.59138
-1.57424
-1.55476
-1.53292
-1.50868
-1.48201
-1.45286
-1.42116
-1.38684
-1.34979
-1.30991
-1.2671
-1.22123
-1.17218
-1.11983
-1.06406
-1.00477
-0.941874
-0.875327
-0.805137
-0.731374
-0.65416
-0.57363
-0.490093
-0.404199
-0.316838
-0.229732
-0.143955
-0.0691427
0.0362469
-21.8153
-21.8287
-21.8395
-21.8488
-21.86
-21.8737
-21.89
-21.9089
-21.9303
-21.9544
-21.981
-22.0106
-22.0431
-22.0773
-22.113
-22.1509
-22.1899
-22.2297
-22.27
-22.3109
-22.352
-22.3932
-22.4345
-22.4757
-22.5166
-22.557
-22.5969
-22.6359
-22.674
-22.7109
-22.7463
-22.78
-22.8118
-22.8413
-22.8683
-22.8924
-22.9134
-22.9309
-22.9445
-22.9541
-22.9591
-22.9593
-22.9543
-22.9438
-22.9275
-22.905
-22.8761
-22.8404
-22.7977
-22.7477
-22.6902
-22.625
-22.5519
-22.4708
-22.3816
-22.2841
-22.1784
-22.0644
-21.9422
-21.8118
-21.6734
-21.527
-21.3728
-21.211
-21.0414
-20.8646
-20.6807
-20.4901
-20.293
-20.0895
-19.8799
-19.6644
-19.4429
-19.2157
-18.9828
-18.7442
-18.5
-18.2501
-17.9944
-17.7329
-17.4655
-17.192
-16.9123
-16.6263
-16.3336
-16.0342
-15.7278
-15.4143
-15.0934
-14.7651
-14.4292
-14.0854
-13.7339
-13.3745
-13.0073
-12.6323
-12.2496
-11.8596
-11.4624
-11.0584
-10.6481
-10.232
-9.81076
-9.38505
-8.95587
-8.52409
-8.09093
-7.65772
-7.22559
-6.79628
-6.37017
-5.94918
-5.53558
-5.13073
-4.73644
-4.35485
-3.98789
-3.636
-3.30185
-2.98832
-2.69715
-2.42949
-2.18603
-1.96711
-1.77268
-1.60235
-1.45541
-1.33086
-1.22748
-1.14383
-1.07837
-1.02945
-0.995417
-0.974584
-0.965323
-0.96607
-0.975343
-0.991763
-1.01406
-1.04106
-1.07173
-1.10514
-1.14044
-1.17691
-1.21392
-1.25091
-1.28742
-1.32306
-1.35747
-1.39034
-1.42147
-1.45074
-1.47799
-1.50311
-1.526
-1.54657
-1.56479
-1.58061
-1.59403
-1.60504
-1.61364
-1.61984
-1.62365
-1.62511
-1.62423
-1.62103
-1.61554
-1.60778
-1.59777
-1.58552
-1.57104
-1.55433
-1.53537
-1.51416
-1.49065
-1.4648
-1.43657
-1.40587
-1.37263
-1.33674
-1.29811
-1.2566
-1.2121
-1.16448
-1.11362
-1.05939
-1.00169
-0.940427
-0.875568
-0.807133
-0.735185
-0.659743
-0.580897
-0.499059
-0.414898
-0.329066
-0.243065
-0.156427
-0.0793445
0.0450022
-21.8133
-21.8298
-21.843
-21.8535
-21.8653
-21.8793
-21.8956
-21.9144
-21.9357
-21.9596
-21.986
-22.0152
-22.0468
-22.0804
-22.1156
-22.1524
-22.1904
-22.2291
-22.2685
-22.3084
-22.3487
-22.3892
-22.4297
-22.4702
-22.5106
-22.5505
-22.5899
-22.6286
-22.6664
-22.703
-22.7382
-22.7718
-22.8035
-22.833
-22.86
-22.8843
-22.9054
-22.9231
-22.9371
-22.9469
-22.9523
-22.953
-22.9485
-22.9385
-22.9228
-22.9009
-22.8727
-22.8377
-22.7957
-22.7465
-22.6898
-22.6253
-22.5531
-22.4728
-22.3844
-22.2877
-22.1829
-22.0697
-21.9483
-21.8188
-21.6812
-21.5357
-21.3823
-21.2211
-21.0522
-20.8762
-20.6933
-20.5036
-20.3074
-20.105
-19.8966
-19.6822
-19.462
-19.2361
-19.0047
-18.7676
-18.525
-18.2768
-18.023
-17.7634
-17.498
-17.2266
-16.9492
-16.6654
-16.3751
-16.0782
-15.7744
-15.4635
-15.1454
-14.8199
-14.4869
-14.1461
-13.7976
-13.4412
-13.0771
-12.7053
-12.3259
-11.9391
-11.5452
-11.1446
-10.7376
-10.3248
-9.90707
-9.48471
-9.05897
-8.63064
-8.20083
-7.77099
-7.3411
-6.91303
-6.48853
-6.06873
-5.65568
-5.2509
-4.85617
-4.47364
-4.10522
-3.75208
-3.41647
-3.10074
-2.80665
-2.53546
-2.288
-2.0647
-1.8656
-1.69039
-1.53841
-1.40874
-1.30019
-1.21138
-1.14079
-1.08683
-1.04785
-1.02219
-1.00826
-1.0045
-1.00945
-1.02174
-1.0401
-1.06337
-1.09051
-1.12059
-1.15277
-1.18633
-1.2206
-1.25506
-1.28923
-1.3227
-1.35506
-1.38602
-1.41545
-1.44318
-1.46905
-1.49293
-1.51471
-1.53432
-1.5517
-1.56682
-1.57965
-1.59019
-1.59843
-1.60438
-1.60806
-1.60948
-1.60866
-1.60563
-1.6004
-1.593
-1.58343
-1.57171
-1.55784
-1.54182
-1.52363
-1.50324
-1.48063
-1.45574
-1.4285
-1.39886
-1.3667
-1.33194
-1.29445
-1.25411
-1.2108
-1.16437
-1.11471
-1.06169
-1.00519
-0.945134
-0.881504
-0.814316
-0.743543
-0.669085
-0.591134
-0.510151
-0.426657
-0.34103
-0.25453
-0.165138
-0.0842102
0.0569046
-21.8153
-21.834
-21.849
-21.8607
-21.8732
-21.8877
-21.9043
-21.9233
-21.9446
-21.9685
-21.9948
-22.0236
-22.0546
-22.0875
-22.122
-22.1579
-22.1949
-22.2328
-22.2713
-22.3104
-22.35
-22.3898
-22.4297
-22.4697
-22.5096
-22.5492
-22.5883
-22.6267
-22.6643
-22.7008
-22.7359
-22.7695
-22.8012
-22.8308
-22.858
-22.8824
-22.9038
-22.9218
-22.936
-22.9462
-22.952
-22.9531
-22.949
-22.9395
-22.9243
-22.9029
-22.8752
-22.8407
-22.7993
-22.7506
-22.6944
-22.6305
-22.5588
-22.479
-22.3911
-22.295
-22.1906
-22.0779
-21.957
-21.8279
-21.6908
-21.5457
-21.3926
-21.2316
-21.0632
-20.8877
-20.7053
-20.5163
-20.3209
-20.1194
-19.9118
-19.6984
-19.4793
-19.2547
-19.0245
-18.7888
-18.5477
-18.301
-18.0489
-17.7911
-17.5276
-17.2582
-16.9828
-16.7011
-16.4131
-16.1184
-15.817
-15.5085
-15.1929
-14.8699
-14.5393
-14.2011
-13.8551
-13.5013
-13.1398
-12.7706
-12.3938
-12.0095
-11.6182
-11.2202
-10.8157
-10.4054
-9.99036
-9.57044
-9.14727
-8.72146
-8.2932
-7.86449
-7.43613
-7.00923
-6.58547
-6.16613
-5.75301
-5.34774
-4.95209
-4.56816
-4.19785
-3.84279
-3.50507
-3.18679
-2.8897
-2.61512
-2.36398
-2.1368
-1.93368
-1.75438
-1.59829
-1.46451
-1.35189
-1.25907
-1.18456
-1.12675
-1.08402
-1.05473
-1.03729
-1.03016
-1.03186
-1.04105
-1.05646
-1.07693
-1.10143
-1.12903
-1.15888
-1.19026
-1.22251
-1.25511
-1.28758
-1.31945
-1.3503
-1.37992
-1.40817
-1.43486
-1.45983
-1.48293
-1.50406
-1.52314
-1.5401
-1.55491
-1.56754
-1.57797
-1.58621
-1.59225
-1.59611
-1.59781
-1.59735
-1.59475
-1.59003
-1.58321
-1.5743
-1.56329
-1.5502
-1.535
-1.51768
-1.49821
-1.47655
-1.45263
-1.42639
-1.39776
-1.36662
-1.33288
-1.29641
-1.25708
-1.21477
-1.16933
-1.12064
-1.06856
-1.01298
-0.953838
-0.89113
-0.824793
-0.754652
-0.680665
-0.603151
-0.522463
-0.438957
-0.352734
-0.264869
-0.17192
-0.0871669
0.0692352
-21.8211
-21.8413
-21.8574
-21.8701
-21.8834
-21.8983
-21.9153
-21.9345
-21.956
-21.9798
-22.006
-22.0344
-22.0649
-22.0971
-22.1309
-22.166
-22.2022
-22.2392
-22.277
-22.3155
-22.3544
-22.3937
-22.4332
-22.4728
-22.5123
-22.5516
-22.5905
-22.6288
-22.6663
-22.7028
-22.738
-22.7716
-22.8035
-22.8332
-22.8606
-22.8853
-22.9069
-22.9252
-22.9398
-22.9503
-22.9565
-22.9579
-22.9542
-22.9451
-22.9303
-22.9093
-22.882
-22.8479
-22.8068
-22.7585
-22.7027
-22.6391
-22.5676
-22.4881
-22.4005
-22.3045
-22.2003
-22.0878
-21.9671
-21.8382
-21.7013
-21.5562
-21.4029
-21.2419
-21.0738
-20.8986
-20.7166
-20.5281
-20.3333
-20.1324
-19.9256
-19.7131
-19.495
-19.2714
-19.0424
-18.808
-18.5683
-18.3232
-18.0726
-17.8165
-17.5548
-17.2873
-17.0139
-16.7343
-16.4484
-16.1559
-15.8566
-15.5503
-15.2369
-14.9162
-14.5879
-14.2519
-13.9081
-13.5565
-13.1972
-12.8302
-12.4554
-12.073
-11.6837
-11.2878
-10.885
-10.4766
-10.0636
-9.64537
-9.22303
-8.79834
-8.37139
-7.94354
-7.51585
-7.08943
-6.66578
-6.24629
-5.83261
-5.42641
-5.02948
-4.64383
-4.2714
-3.91403
-3.57379
-3.25271
-2.95252
-2.67462
-2.42001
-2.18928
-1.9826
-1.79978
-1.64025
-1.50312
-1.38724
-1.29127
-1.2137
-1.15296
-1.1074
-1.07539
-1.05533
-1.04569
-1.045
-1.0519
-1.06513
-1.08356
-1.10613
-1.13191
-1.16008
-1.18989
-1.22071
-1.25202
-1.2833
-1.31401
-1.34381
-1.37257
-1.40008
-1.42616
-1.45062
-1.47333
-1.49418
-1.51307
-1.52995
-1.54477
-1.55749
-1.56812
-1.57663
-1.58302
-1.58731
-1.5895
-1.5896
-1.58763
-1.5836
-1.57752
-1.56939
-1.55922
-1.54699
-1.53269
-1.5163
-1.49777
-1.47706
-1.45411
-1.42884
-1.40115
-1.37096
-1.33815
-1.30258
-1.26414
-1.22268
-1.17806
-1.13015
-1.07881
-1.02394
-0.965508
-0.903463
-0.83758
-0.767656
-0.693823
-0.616416
-0.535597
-0.451593
-0.364228
-0.274473
-0.177566
-0.0893046
0.0812699
-21.8302
-21.8511
-21.8679
-21.8814
-21.8952
-21.9105
-21.9278
-21.9472
-21.9688
-21.9926
-22.0185
-22.0466
-22.0765
-22.1081
-22.1412
-22.1756
-22.211
-22.2474
-22.2846
-22.3225
-22.3609
-22.3998
-22.439
-22.4783
-22.5176
-22.5567
-22.5956
-22.6338
-22.6714
-22.7079
-22.7432
-22.777
-22.8091
-22.839
-22.8667
-22.8916
-22.9135
-22.9321
-22.947
-22.9579
-22.9644
-22.9661
-22.9628
-22.954
-22.9395
-22.9188
-22.8917
-22.8579
-22.817
-22.7689
-22.7132
-22.6498
-22.5784
-22.4989
-22.4113
-22.3153
-22.2111
-22.0985
-21.9777
-21.8487
-21.7116
-21.566
-21.4124
-21.2515
-21.0834
-20.9083
-20.7266
-20.5385
-20.3441
-20.1438
-19.9377
-19.7259
-19.5088
-19.2862
-19.0584
-18.8253
-18.5869
-18.3433
-18.0944
-17.84
-17.5801
-17.3144
-17.0429
-16.7653
-16.4814
-16.191
-15.8938
-15.5896
-15.2783
-14.9597
-14.6334
-14.2994
-13.9575
-13.6078
-13.2503
-12.8851
-12.5118
-12.1309
-11.7432
-11.3489
-10.9475
-10.5398
-10.1276
-9.71037
-9.2889
-8.86461
-8.43807
-8.01039
-7.58265
-7.15603
-6.73191
-6.31169
-5.89699
-5.48945
-5.09088
-4.70325
-4.32851
-3.96863
-3.62569
-3.30169
-2.99841
-2.71731
-2.45945
-2.22549
-2.01567
-1.82983
-1.66741
-1.52754
-1.40908
-1.31067
-1.2308
-1.16786
-1.12023
-1.08624
-1.0643
-1.05286
-1.05047
-1.05576
-1.06747
-1.08446
-1.1057
-1.13024
-1.15726
-1.18603
-1.21593
-1.24643
-1.27692
-1.30686
-1.33604
-1.36433
-1.39149
-1.4173
-1.4416
-1.46424
-1.4851
-1.5041
-1.52117
-1.53625
-1.54933
-1.56037
-1.56936
-1.57631
-1.5812
-1.58405
-1.58488
-1.58367
-1.58044
-1.5752
-1.56795
-1.55867
-1.54737
-1.534
-1.51855
-1.50097
-1.4812
-1.45918
-1.43483
-1.40804
-1.37872
-1.34675
-1.31199
-1.27431
-1.23358
-1.18965
-1.14237
-1.0916
-1.03731
-0.979413
-0.917743
-0.851935
-0.781974
-0.708107
-0.630522
-0.54924
-0.464379
-0.375497
-0.283545
-0.182502
-0.091122
0.0925708
-21.842
-21.8631
-21.8801
-21.894
-21.9082
-21.9238
-21.9413
-21.9607
-21.9823
-22.0059
-22.0316
-22.0592
-22.0887
-22.1197
-22.1521
-22.1859
-22.2208
-22.2566
-22.2933
-22.3308
-22.3688
-22.4074
-22.4463
-22.4854
-22.5246
-22.5638
-22.6026
-22.6409
-22.6785
-22.7152
-22.7507
-22.7847
-22.817
-22.8472
-22.8751
-22.9003
-22.9226
-22.9414
-22.9566
-22.9678
-22.9746
-22.9766
-22.9735
-22.965
-22.9507
-22.9302
-22.9033
-22.8695
-22.8287
-22.7806
-22.7249
-22.6614
-22.5899
-22.5103
-22.4225
-22.3263
-22.2218
-22.109
-21.9879
-21.8586
-21.7207
-21.5744
-21.4206
-21.2596
-21.0914
-20.9165
-20.7349
-20.547
-20.3531
-20.1532
-19.9478
-19.7368
-19.5206
-19.2991
-19.0724
-18.8405
-18.6036
-18.3615
-18.1141
-17.8614
-17.6033
-17.3395
-17.07
-16.7944
-16.5124
-16.224
-15.9288
-15.6267
-15.3174
-15.0007
-14.6764
-14.3441
-14.0039
-13.6558
-13.2999
-12.9364
-12.5645
-12.1846
-11.7978
-11.4043
-11.0038
-10.5969
-10.1849
-9.76782
-9.34649
-8.92198
-8.49509
-8.0669
-7.63847
-7.21102
-6.78586
-6.36442
-5.94825
-5.53903
-5.13852
-4.74867
-4.37148
-4.00896
-3.66322
-3.33627
-3.02995
-2.74577
-2.48487
-2.24798
-2.03538
-1.84694
-1.68213
-1.54006
-1.41959
-1.31934
-1.23777
-1.17328
-1.1242
-1.08886
-1.06566
-1.05304
-1.04954
-1.05379
-1.06453
-1.08063
-1.10104
-1.12483
-1.15118
-1.17936
-1.20879
-1.23885
-1.26886
-1.29839
-1.32735
-1.35551
-1.38262
-1.40848
-1.4329
-1.45573
-1.47687
-1.49622
-1.5137
-1.52927
-1.54289
-1.55453
-1.56418
-1.57182
-1.57746
-1.58111
-1.58275
-1.5824
-1.58006
-1.57573
-1.5694
-1.56107
-1.5507
-1.53828
-1.52378
-1.50713
-1.48828
-1.46715
-1.44367
-1.41773
-1.38921
-1.358
-1.32397
-1.28696
-1.24686
-1.20349
-1.15672
-1.10643
-1.0526
-0.995049
-0.933417
-0.867454
-0.797352
-0.723276
-0.645282
-0.563284
-0.477303
-0.386648
-0.292324
-0.187105
-0.0929913
0.102837
-21.8557
-21.8765
-21.8933
-21.9075
-21.9219
-21.9376
-21.9551
-21.9745
-21.9959
-22.0193
-22.0447
-22.0718
-22.1008
-22.1312
-22.1632
-22.1964
-22.2307
-22.2661
-22.3024
-22.3396
-22.3774
-22.4157
-22.4545
-22.4936
-22.5328
-22.5719
-22.6108
-22.6493
-22.6871
-22.724
-22.7597
-22.7939
-22.8265
-22.857
-22.8851
-22.9106
-22.9331
-22.9523
-22.9677
-22.9791
-22.9861
-22.9884
-22.9855
-22.9771
-22.9628
-22.9424
-22.9155
-22.8818
-22.8409
-22.7926
-22.7368
-22.673
-22.6013
-22.5214
-22.4332
-22.3366
-22.2317
-22.1184
-21.9968
-21.8665
-21.7277
-21.581
-21.4269
-21.2656
-21.0974
-20.9224
-20.741
-20.5533
-20.3597
-20.1604
-19.9556
-19.7455
-19.5301
-19.3096
-19.0842
-18.8536
-18.6181
-18.3775
-18.1318
-17.8808
-17.6245
-17.3627
-17.0951
-16.8215
-16.5415
-16.255
-15.9618
-15.6616
-15.3542
-15.0395
-14.7172
-14.3867
-14.048
-13.7014
-13.3468
-12.9844
-12.6138
-12.2351
-11.849
-11.4557
-11.0556
-10.6489
-10.2365
-9.81906
-9.39717
-8.97183
-8.54395
-8.11458
-7.68483
-7.25593
-6.82918
-6.40602
-5.98798
-5.57671
-5.174
-4.78175
-4.40197
-4.03673
-3.68814
-3.35827
-3.04899
-2.76188
-2.49816
-2.25861
-2.04357
-1.85292
-1.68615
-1.54236
-1.42038
-1.31881
-1.2361
-1.1706
-1.12062
-1.08448
-1.06055
-1.04728
-1.04318
-1.04688
-1.05714
-1.0728
-1.09283
-1.11629
-1.14237
-1.17037
-1.19971
-1.22962
-1.25942
-1.28891
-1.31795
-1.34628
-1.37363
-1.39978
-1.42457
-1.44783
-1.46946
-1.48935
-1.50744
-1.52366
-1.53797
-1.55036
-1.56078
-1.56925
-1.57574
-1.58026
-1.58281
-1.58338
-1.58198
-1.5786
-1.57322
-1.56584
-1.55643
-1.54495
-1.53138
-1.51564
-1.49768
-1.47741
-1.45475
-1.42959
-1.40182
-1.3713
-1.33792
-1.30152
-1.26195
-1.21905
-1.1727
-1.12282
-1.06933
-1.01185
-0.950005
-0.883796
-0.813473
-0.739028
-0.660445
-0.577539
-0.490257
-0.397668
-0.300908
-0.191578
-0.0950902
0.111867
-21.8707
-21.8909
-21.9072
-21.9214
-21.9358
-21.9514
-21.9688
-21.988
-22.0091
-22.0322
-22.0572
-22.0839
-22.1123
-22.1423
-22.1738
-22.2065
-22.2405
-22.2755
-22.3115
-22.3484
-22.3861
-22.4244
-22.4631
-22.5022
-22.5415
-22.5807
-22.6198
-22.6584
-22.6964
-22.7335
-22.7695
-22.804
-22.8368
-22.8675
-22.8959
-22.9217
-22.9444
-22.9637
-22.9794
-22.9909
-22.9981
-23.0004
-22.9976
-22.9892
-22.975
-22.9545
-22.9275
-22.8936
-22.8525
-22.804
-22.7478
-22.6837
-22.6115
-22.5311
-22.4424
-22.3453
-22.2398
-22.1259
-22.0032
-21.8717
-21.7322
-21.5851
-21.4307
-21.2691
-21.1008
-20.9258
-20.7444
-20.557
-20.3638
-20.165
-19.9608
-19.7515
-19.5371
-19.3177
-19.0935
-18.8643
-18.6302
-18.3911
-18.1471
-17.898
-17.6435
-17.3836
-17.1181
-16.8466
-16.5686
-16.2841
-15.993
-15.6948
-15.3894
-15.0765
-14.7559
-14.4272
-14.0903
-13.7452
-13.3919
-13.0304
-12.6607
-12.2827
-11.897
-11.5039
-11.1035
-10.6965
-10.2835
-9.86506
-9.44201
-9.01526
-8.58576
-8.15459
-7.72289
-7.29192
-6.86301
-6.4376
-6.01724
-5.60357
-5.19836
-4.80351
-4.42104
-4.05301
-3.70159
-3.36885
-3.05672
-2.76686
-2.50055
-2.25863
-2.04148
-1.849
-1.68067
-1.5356
-1.41258
-1.31019
-1.22682
-1.16081
-1.11043
-1.07399
-1.04983
-1.03637
-1.03213
-1.03574
-1.04594
-1.06158
-1.08163
-1.10515
-1.13133
-1.15953
-1.18906
-1.21904
-1.24894
-1.27871
-1.30812
-1.33686
-1.36468
-1.39136
-1.41671
-1.4406
-1.4629
-1.4835
-1.50234
-1.51935
-1.53449
-1.54772
-1.55903
-1.5684
-1.57582
-1.58129
-1.58479
-1.58633
-1.5859
-1.58348
-1.57908
-1.57265
-1.56419
-1.55365
-1.54098
-1.52612
-1.50902
-1.48957
-1.4677
-1.44327
-1.41619
-1.38631
-1.35352
-1.31764
-1.27853
-1.23602
-1.19005
-1.1405
-1.08716
-1.02948
-0.967322
-0.900864
-0.830217
-0.755272
-0.675959
-0.592005
-0.503292
-0.408674
-0.309466
-0.196137
-0.097572
0.119542
-21.8864
-21.9058
-21.9214
-21.9354
-21.9495
-21.9649
-21.9819
-22.0008
-22.0216
-22.0443
-22.0688
-22.0951
-22.123
-22.1526
-22.1836
-22.216
-22.2496
-22.2844
-22.3203
-22.357
-22.3946
-22.4329
-22.4717
-22.5109
-22.5503
-22.5897
-22.629
-22.6678
-22.706
-22.7434
-22.7795
-22.8143
-22.8473
-22.8782
-22.9068
-22.9327
-22.9556
-22.9751
-22.9908
-23.0024
-23.0096
-23.0119
-23.0091
-23.0006
-22.9862
-22.9656
-22.9383
-22.9041
-22.8626
-22.8137
-22.757
-22.6924
-22.6197
-22.5386
-22.4493
-22.3515
-22.2453
-22.1301
-22.006
-21.8737
-21.7336
-21.5861
-21.4313
-21.2695
-21.101
-20.926
-20.7447
-20.5576
-20.3648
-20.1665
-19.9631
-19.7546
-19.5412
-19.323
-19.1001
-18.8724
-18.6398
-18.4024
-18.1602
-17.9129
-17.6604
-17.4025
-17.139
-16.8695
-16.5938
-16.3115
-16.0225
-15.7264
-15.423
-15.112
-14.7932
-14.4662
-14.1308
-13.7871
-13.435
-13.0744
-12.7053
-12.3279
-11.9424
-11.5491
-11.1483
-10.7406
-10.3265
-9.90667
-9.48196
-9.05326
-8.62155
-8.18797
-7.75368
-7.32001
-6.88832
-6.4601
-6.03691
-5.62041
-5.21239
-4.81473
-4.42943
-4.05858
-3.70433
-3.36882
-3.054
-2.76159
-2.49294
-2.24895
-2.03002
-1.83608
-1.66661
-1.52068
-1.39708
-1.29431
-1.21076
-1.14471
-1.0944
-1.05811
-1.03415
-1.02095
-1.017
-1.02092
-1.03145
-1.04745
-1.06787
-1.09178
-1.11843
-1.14715
-1.17707
-1.20732
-1.23765
-1.26797
-1.29798
-1.32736
-1.35585
-1.38324
-1.40935
-1.43402
-1.45713
-1.47858
-1.49829
-1.51621
-1.53227
-1.54644
-1.55871
-1.56905
-1.57745
-1.5839
-1.5884
-1.59093
-1.59148
-1.59005
-1.58661
-1.58114
-1.57362
-1.56399
-1.55221
-1.5382
-1.52192
-1.50325
-1.48212
-1.45838
-1.43194
-1.40265
-1.37039
-1.33496
-1.29625
-1.25408
-1.20844
-1.15911
-1.10564
-1.04762
-0.985163
-0.918407
-0.847339
-0.771784
-0.691632
-0.606526
-0.516302
-0.419611
-0.317999
-0.200839
-0.100442
0.125793
-21.9024
-21.9207
-21.9355
-21.949
-21.9628
-21.9777
-21.9943
-22.0127
-22.033
-22.0552
-22.0792
-22.1051
-22.1326
-22.1617
-22.1924
-22.2245
-22.2579
-22.2926
-22.3283
-22.365
-22.4027
-22.441
-22.4799
-22.5192
-22.5588
-22.5984
-22.6379
-22.6769
-22.7153
-22.7529
-22.7892
-22.8241
-22.8573
-22.8884
-22.9171
-22.943
-22.9659
-22.9854
-23.0011
-23.0127
-23.0198
-23.022
-23.0189
-23.0103
-22.9956
-22.9746
-22.947
-22.9123
-22.8704
-22.8209
-22.7636
-22.6984
-22.6249
-22.5432
-22.4531
-22.3545
-22.2469
-22.1301
-22.005
-21.8721
-21.7315
-21.5835
-21.4283
-21.2663
-21.0978
-20.9228
-20.7417
-20.5548
-20.3624
-20.1648
-19.9621
-19.7546
-19.5422
-19.3253
-19.1037
-18.8775
-18.6466
-18.4111
-18.1707
-17.9254
-17.675
-17.4192
-17.1578
-16.8906
-16.6171
-16.337
-16.0501
-15.7562
-15.4548
-15.1457
-14.8287
-14.5033
-14.1695
-13.8271
-13.4761
-13.1163
-12.7479
-12.3707
-11.9852
-11.5916
-11.1902
-10.7815
-10.366
-9.94448
-9.5177
-9.08659
-8.65217
-8.21559
-7.77812
-7.3411
-6.90599
-6.47433
-6.04775
-5.62795
-5.21672
-4.81596
-4.42767
-4.05393
-3.69689
-3.3587
-3.04135
-2.74662
-2.47591
-2.23015
-2.0098
-1.81478
-1.64458
-1.49823
-1.37448
-1.2718
-1.18852
-1.12287
-1.07308
-1.03738
-1.01406
-1.00153
-0.998262
-1.00288
-1.01412
-1.03083
-1.05195
-1.07659
-1.10402
-1.13352
-1.16399
-1.19477
-1.22582
-1.25692
-1.28773
-1.31795
-1.3473
-1.37557
-1.40258
-1.42817
-1.45222
-1.47464
-1.49532
-1.51422
-1.53128
-1.54647
-1.55975
-1.57111
-1.58053
-1.58799
-1.5935
-1.59704
-1.59859
-1.59814
-1.59566
-1.59114
-1.58453
-1.57579
-1.56487
-1.55169
-1.53619
-1.51827
-1.49783
-1.47474
-1.44889
-1.42014
-1.38835
-1.35332
-1.31495
-1.2731
-1.22773
-1.17841
-1.12461
-1.06622
-1.0035
-0.936381
-0.864811
-0.788561
-0.707489
-0.621159
-0.529376
-0.430604
-0.326649
-0.205839
-0.103787
0.130569
-21.9183
-21.9354
-21.9491
-21.962
-21.9752
-21.9896
-22.0056
-22.0234
-22.0432
-22.0648
-22.0883
-22.1137
-22.1408
-22.1697
-22.2
-22.2319
-22.2652
-22.2998
-22.3355
-22.3723
-22.41
-22.4484
-22.4875
-22.527
-22.5667
-22.6065
-22.6461
-22.6853
-22.7239
-22.7615
-22.798
-22.8329
-22.8661
-22.8972
-22.9259
-22.9518
-22.9746
-22.994
-23.0095
-23.0209
-23.0277
-23.0297
-23.0263
-23.0173
-23.0023
-22.9808
-22.9526
-22.9174
-22.8748
-22.8247
-22.7667
-22.7007
-22.6264
-22.5439
-22.4531
-22.353
-22.2437
-22.1258
-22
-21.8664
-21.7253
-21.5769
-21.4214
-21.2592
-21.0905
-20.9156
-20.7347
-20.5482
-20.3564
-20.1595
-19.9576
-19.7511
-19.5399
-19.3243
-19.1042
-18.8796
-18.6505
-18.4168
-18.1784
-17.9352
-17.687
-17.4334
-17.1743
-16.9093
-16.638
-16.3603
-16.0757
-15.7838
-15.4845
-15.1774
-14.8621
-14.5385
-14.2062
-13.8651
-13.5151
-13.1561
-12.7882
-12.4113
-12.0257
-11.6317
-11.2295
-10.8196
-10.4025
-9.97903
-9.54987
-9.11598
-8.67841
-8.23835
-7.79712
-7.35614
-6.91695
-6.4812
-6.0506
-5.62692
-5.21201
-4.8078
-4.41629
-4.03955
-3.67972
-3.33895
-3.01926
-2.72244
-2.44995
-2.20276
-1.98135
-1.78566
-1.61513
-1.46879
-1.34533
-1.24317
-1.1606
-1.09581
-1.04696
-1.01227
-0.99
-0.978525
-0.976321
-0.981998
-0.994284
-1.01202
-1.03416
-1.05984
-1.08836
-1.11878
-1.14997
-1.18157
-1.21359
-1.24568
-1.27748
-1.3087
-1.33906
-1.36835
-1.39639
-1.42302
-1.44812
-1.47158
-1.49332
-1.51328
-1.5314
-1.54764
-1.56198
-1.57439
-1.58485
-1.59336
-1.59989
-1.60443
-1.60697
-1.60749
-1.60597
-1.60237
-1.59666
-1.58878
-1.5787
-1.56631
-1.55156
-1.53433
-1.51455
-1.49206
-1.46677
-1.4385
-1.40713
-1.37245
-1.33439
-1.29284
-1.2476
-1.19802
-1.14383
-1.08514
-1.02211
-0.954568
-0.882424
-0.80541
-0.723357
-0.635755
-0.542393
-0.441564
-0.335354
-0.211109
-0.107533
0.133871
-21.9337
-21.9496
-21.9621
-21.9742
-21.9867
-22.0003
-22.0156
-22.0328
-22.0519
-22.0729
-22.096
-22.1209
-22.1477
-22.1762
-22.2064
-22.2381
-22.2713
-22.3058
-22.3416
-22.3785
-22.4163
-22.4549
-22.4941
-22.5337
-22.5736
-22.6135
-22.6532
-22.6925
-22.7311
-22.7687
-22.8051
-22.84
-22.8731
-22.904
-22.9325
-22.9582
-22.9807
-22.9998
-23.015
-23.0261
-23.0325
-23.034
-23.0302
-23.0208
-23.0053
-22.9833
-22.9544
-22.9186
-22.8753
-22.8244
-22.7656
-22.6987
-22.6237
-22.5403
-22.4477
-22.3459
-22.2354
-22.1169
-21.9904
-21.8562
-21.7146
-21.5657
-21.4099
-21.2475
-21.0788
-20.904
-20.7234
-20.5374
-20.3462
-20.15
-19.9492
-19.7437
-19.5339
-19.3196
-19.1011
-18.8783
-18.6511
-18.4194
-18.1832
-17.9421
-17.6961
-17.4449
-17.1881
-16.9254
-16.6566
-16.3811
-16.0988
-15.8091
-15.5119
-15.2068
-14.8933
-14.5713
-14.2405
-13.9007
-13.5517
-13.1936
-12.8261
-12.4494
-12.0637
-11.6692
-11.2661
-10.855
-10.4362
-10.0106
-9.57889
-9.14197
-8.70093
-8.25699
-7.81151
-7.36602
-6.92213
-6.48162
-6.04631
-5.61811
-5.19895
-4.79083
-4.39578
-4.01585
-3.6532
-3.30991
-2.98804
-2.68937
-2.4154
-2.16713
-1.94504
-1.74906
-1.57864
-1.43274
-1.31001
-1.20883
-1.12741
-1.0639
-1.01643
-0.983157
-0.962332
-0.952303
-0.951529
-0.958616
-0.972282
-0.991365
-1.01482
-1.04185
-1.0717
-1.10315
-1.13526
-1.16799
-1.20117
-1.23443
-1.26739
-1.29976
-1.33127
-1.36171
-1.39088
-1.41865
-1.44488
-1.46946
-1.49232
-1.51339
-1.53262
-1.54996
-1.56538
-1.57886
-1.59039
-1.59993
-1.60749
-1.61304
-1.61657
-1.61805
-1.61747
-1.61477
-1.60993
-1.60289
-1.5936
-1.58197
-1.56793
-1.55137
-1.53221
-1.51028
-1.4855
-1.45767
-1.42666
-1.39229
-1.35453
-1.3132
-1.26786
-1.21789
-1.16336
-1.10439
-1.04101
-0.972985
-0.900214
-0.822386
-0.73931
-0.650411
-0.555472
-0.452629
-0.344255
-0.216789
-0.111756
0.135678
-21.9486
-21.9632
-21.9744
-21.9855
-21.997
-22.0098
-22.0242
-22.0406
-22.059
-22.0795
-22.102
-22.1265
-22.153
-22.1812
-22.2113
-22.2429
-22.2761
-22.3107
-22.3465
-22.3835
-22.4214
-22.4601
-22.4994
-22.5391
-22.579
-22.6189
-22.6586
-22.6977
-22.7362
-22.7736
-22.8098
-22.8444
-22.8772
-22.9079
-22.936
-22.9613
-22.9835
-23.0021
-23.0169
-23.0274
-23.0334
-23.0343
-23.03
-23.0199
-23.0037
-22.9811
-22.9516
-22.915
-22.871
-22.8193
-22.7597
-22.6919
-22.6159
-22.5306
-22.436
-22.3331
-22.2219
-22.1027
-21.9756
-21.8409
-21.6988
-21.5496
-21.3936
-21.2311
-21.0624
-20.8878
-20.7076
-20.5222
-20.3317
-20.1364
-19.9366
-19.7324
-19.524
-19.3113
-19.0945
-18.8735
-18.6483
-18.4187
-18.1847
-17.9459
-17.7023
-17.4534
-17.199
-16.9388
-16.6723
-16.3992
-16.1192
-15.8318
-15.5367
-15.2335
-14.9219
-14.6016
-14.2723
-13.9337
-13.5858
-13.2284
-12.8615
-12.485
-12.0992
-11.7041
-11.3002
-10.8877
-10.4673
-10.0395
-9.60512
-9.16504
-8.72034
-8.27226
-7.82218
-7.3717
-6.92256
-6.47664
-6.03593
-5.6025
-5.17843
-4.76583
-4.3668
-3.98342
-3.61781
-3.27203
-2.94811
-2.64784
-2.37268
-2.12366
-1.90127
-1.70542
-1.53552
-1.3905
-1.26893
-1.16916
-1.08932
-1.02752
-0.981833
-0.950386
-0.93139
-0.923172
-0.924178
-0.933006
-0.948362
-0.969076
-0.994138
-1.0228
-1.05413
-1.08673
-1.12003
-1.15412
-1.18865
-1.22323
-1.2575
-1.29115
-1.32393
-1.35561
-1.38602
-1.415
-1.44243
-1.4682
-1.49223
-1.51446
-1.53482
-1.55328
-1.56981
-1.58438
-1.59697
-1.60756
-1.61614
-1.62269
-1.62719
-1.62961
-1.62994
-1.62811
-1.62412
-1.61788
-1.60936
-1.59845
-1.58509
-1.56916
-1.55057
-1.52916
-1.50484
-1.4774
-1.44671
-1.41263
-1.37514
-1.33387
-1.28822
-1.23785
-1.18305
-1.12378
-1.06
-0.991435
-0.91799
-0.839306
-0.755178
-0.664971
-0.568472
-0.463677
-0.353243
-0.222793
-0.116338
0.136041
-21.9628
-21.9761
-21.9859
-21.9958
-22.0062
-22.0179
-22.0314
-22.0469
-22.0646
-22.0844
-22.1064
-22.1305
-22.1567
-22.1847
-22.2146
-22.2462
-22.2794
-22.314
-22.3499
-22.3869
-22.4249
-22.4636
-22.5028
-22.5425
-22.5823
-22.622
-22.6615
-22.7003
-22.7384
-22.7755
-22.8113
-22.8455
-22.8777
-22.9079
-22.9355
-22.9603
-22.9818
-22.9999
-23.0141
-23.024
-23.0293
-23.0297
-23.0246
-23.0139
-22.997
-22.9736
-22.9434
-22.9059
-22.8611
-22.8086
-22.7481
-22.6792
-22.6011
-22.5139
-22.4184
-22.3147
-22.2029
-22.083
-21.9554
-21.8202
-21.6777
-21.5282
-21.3721
-21.2096
-21.0411
-20.8669
-20.6872
-20.5024
-20.3128
-20.1186