/*--------------------------------*- C++ -*----------------------------------*\
  =========                 |
  \\      /  F ield         | OpenFOAM: The Open Source CFD Toolbox
   \\    /   O peration     | Website:  https://openfoam.org
    \\  /    A nd           | Version:  7
     \\/     M anipulation  |
\*---------------------------------------------------------------------------*/
FoamFile
{
    version     2.0;
    format      ascii;
    class       surfaceScalarField;
    location    "600";
    object      phi;
}
// * * * * * * * * * * * * * * * * * * * * * * * * * * * * * * * * * * * * * //

dimensions      [0 3 -1 0 0 0 0];

internalField   nonuniform List<scalar> 
33502
(
1.28844e-09
-1.29073e-09
-3.63026e-08
3.75811e-08
-9.17154e-08
5.54136e-08
-1.53952e-07
6.22248e-08
-2.18941e-07
6.49913e-08
-2.85325e-07
6.63772e-08
-3.52717e-07
6.73963e-08
-4.21246e-07
6.85271e-08
-4.91297e-07
7.00533e-08
-5.63307e-07
7.20066e-08
-6.37106e-07
7.37998e-08
-7.09589e-07
7.24809e-08
-7.81886e-07
7.2295e-08
-8.62566e-07
8.06786e-08
-9.39686e-07
7.71205e-08
-1.00636e-06
6.6673e-08
-1.07332e-06
6.69589e-08
-1.14015e-06
6.68205e-08
-1.20636e-06
6.62233e-08
-1.27183e-06
6.54547e-08
-1.33646e-06
6.46411e-08
-1.40031e-06
6.38375e-08
-1.46338e-06
6.30716e-08
-1.52573e-06
6.23405e-08
-1.58737e-06
6.1641e-08
-1.64833e-06
6.09586e-08
-1.70861e-06
6.02837e-08
-1.76822e-06
5.96035e-08
-1.82713e-06
5.89076e-08
-1.88531e-06
5.81859e-08
-1.94274e-06
5.74296e-08
-1.99938e-06
5.66307e-08
-2.05516e-06
5.57825e-08
-2.11004e-06
5.48791e-08
-2.16396e-06
5.39157e-08
-2.21685e-06
5.28884e-08
-2.26864e-06
5.17942e-08
-2.31927e-06
5.06305e-08
-2.36867e-06
4.9396e-08
-2.41676e-06
4.80896e-08
-2.46347e-06
4.6711e-08
-2.50873e-06
4.52605e-08
-2.55247e-06
4.37392e-08
-2.59462e-06
4.21485e-08
-2.63511e-06
4.04906e-08
-2.67388e-06
3.87683e-08
-2.71086e-06
3.69851e-08
-2.74601e-06
3.51449e-08
-2.77926e-06
3.32526e-08
-2.81057e-06
3.13131e-08
-2.8399e-06
2.93325e-08
-2.86722e-06
2.73171e-08
-2.89249e-06
2.5274e-08
-2.9157e-06
2.32103e-08
-2.93684e-06
2.11342e-08
-2.95589e-06
1.90537e-08
-2.97287e-06
1.69775e-08
-2.98778e-06
1.49135e-08
-3.00065e-06
1.28705e-08
-3.0115e-06
1.08558e-08
-3.02038e-06
8.87693e-09
-3.02732e-06
6.93953e-09
-3.03237e-06
5.04899e-09
-3.03557e-06
3.20773e-09
-3.03699e-06
1.41851e-09
-3.03668e-06
-3.15988e-10
-3.03471e-06
-1.96846e-09
-3.03117e-06
-3.5318e-09
-3.02614e-06
-5.03237e-09
-3.01965e-06
-6.48587e-09
-3.01175e-06
-7.90348e-09
-3.00245e-06
-9.29605e-09
-2.99178e-06
-1.06733e-08
-2.97974e-06
-1.20459e-08
-2.96631e-06
-1.34239e-08
-2.95149e-06
-1.48182e-08
-2.93525e-06
-1.62391e-08
-2.91756e-06
-1.76977e-08
-2.89835e-06
-1.92045e-08
-2.87758e-06
-2.07708e-08
-2.85518e-06
-2.24073e-08
-2.83105e-06
-2.41246e-08
-2.80512e-06
-2.59327e-08
-2.77728e-06
-2.78411e-08
-2.74743e-06
-2.9858e-08
-2.71544e-06
-3.19909e-08
-2.68119e-06
-3.42464e-08
-2.64456e-06
-3.66304e-08
-2.60542e-06
-3.91485e-08
-2.56361e-06
-4.18049e-08
-2.51901e-06
-4.46028e-08
-2.47147e-06
-4.75432e-08
-2.42085e-06
-5.06256e-08
-2.367e-06
-5.38485e-08
-2.30979e-06
-5.72105e-08
-2.24908e-06
-6.07096e-08
-2.18474e-06
-6.43423e-08
-2.11664e-06
-6.81006e-08
-2.04467e-06
-7.19767e-08
-1.9687e-06
-7.59657e-08
-1.88864e-06
-8.00611e-08
-1.8044e-06
-8.42467e-08
-1.71588e-06
-8.85143e-08
-1.62302e-06
-9.28581e-08
-1.52576e-06
-9.72546e-08
-1.42407e-06
-1.01697e-07
-1.3179e-06
-1.0616e-07
-1.20729e-06
-1.10613e-07
-1.09222e-06
-1.1506e-07
-9.72789e-07
-1.1943e-07
-8.49007e-07
-1.23779e-07
-7.21058e-07
-1.27948e-07
-5.88926e-07
-1.32131e-07
-4.52996e-07
-1.35927e-07
-3.13289e-07
-1.39705e-07
-1.69256e-07
-1.44035e-07
-2.1768e-08
-1.47494e-07
1.27164e-07
-1.48938e-07
2.76131e-07
-1.4897e-07
4.24516e-07
-1.48384e-07
5.71795e-07
-1.47276e-07
7.17397e-07
-1.45599e-07
8.6072e-07
-1.43321e-07
1.00115e-06
-1.40431e-07
1.1381e-06
-1.36947e-07
1.27101e-06
-1.3291e-07
1.39938e-06
-1.28374e-07
1.52279e-06
-1.23406e-07
1.64087e-06
-1.18078e-07
1.75333e-06
-1.12462e-07
1.85995e-06
-1.06629e-07
1.9606e-06
-1.00647e-07
2.05517e-06
-9.45775e-08
2.14365e-06
-8.8475e-08
2.22603e-06
-8.23872e-08
2.30238e-06
-7.63547e-08
2.37279e-06
-7.04107e-08
2.43737e-06
-6.45821e-08
2.49626e-06
-5.88899e-08
2.5496e-06
-5.33496e-08
2.59757e-06
-4.79722e-08
2.64034e-06
-4.27648e-08
2.67807e-06
-3.77316e-08
2.71094e-06
-3.28734e-08
2.73913e-06
-2.81902e-08
2.76281e-06
-2.36791e-08
2.78214e-06
-1.93374e-08
2.7973e-06
-1.51605e-08
2.80845e-06
-1.11448e-08
2.81573e-06
-7.28695e-09
2.81933e-06
-3.59711e-09
2.8194e-06
-7.34714e-11
2.81607e-06
3.33832e-09
2.80939e-06
6.67942e-09
2.79945e-06
9.94379e-09
2.78632e-06
1.31244e-08
2.77011e-06
1.62172e-08
2.75089e-06
1.92199e-08
2.72876e-06
2.21316e-08
2.70381e-06
2.49512e-08
2.67613e-06
2.76783e-08
2.64582e-06
3.03106e-08
2.61297e-06
3.28465e-08
2.57769e-06
3.52813e-08
2.54008e-06
3.76109e-08
2.50026e-06
3.98276e-08
2.45834e-06
4.19243e-08
2.41445e-06
4.38891e-08
2.36874e-06
4.57117e-08
2.32136e-06
4.73763e-08
2.2725e-06
4.88689e-08
2.22233e-06
5.017e-08
2.17107e-06
5.12632e-08
2.11894e-06
5.21265e-08
2.0662e-06
5.27424e-08
2.01311e-06
5.30886e-08
1.95996e-06
5.31494e-08
1.90706e-06
5.2905e-08
1.85472e-06
5.2345e-08
1.80326e-06
5.14552e-08
1.75303e-06
5.02331e-08
1.70436e-06
4.86726e-08
1.65758e-06
4.67802e-08
1.61302e-06
4.4558e-08
1.571e-06
4.202e-08
1.53183e-06
3.91735e-08
1.4958e-06
3.60358e-08
1.46319e-06
3.26127e-08
1.43427e-06
2.8916e-08
1.40933e-06
2.4939e-08
1.38866e-06
2.06712e-08
1.37259e-06
1.60645e-08
1.36154e-06
1.10314e-08
1.35621e-06
5.31106e-09
1.35755e-06
-1.36475e-09
1.36679e-06
-9.26671e-09
1.38594e-06
-1.91933e-08
1.41923e-06
-3.33704e-08
1.47499e-06
-5.5853e-08
-9.62868e-08
-3.42707e-08
3.29778e-08
-7.69509e-08
8.02591e-08
-1.28265e-07
1.06725e-07
-1.86093e-07
1.20053e-07
-2.48037e-07
1.26933e-07
-3.12619e-07
1.30961e-07
-3.79061e-07
1.33838e-07
-4.46923e-07
1.36392e-07
-5.15842e-07
1.38972e-07
-5.85395e-07
1.41561e-07
-6.55219e-07
1.43621e-07
-7.26576e-07
1.43837e-07
-7.97656e-07
1.43373e-07
-8.61406e-07
1.44426e-07
-9.26132e-07
1.41845e-07
-9.95224e-07
1.35763e-07
-1.06074e-06
1.32472e-07
-1.12402e-06
1.30101e-07
-1.18583e-06
1.28035e-07
-1.24649e-06
1.2611e-07
-1.30616e-06
1.24318e-07
-1.36498e-06
1.22649e-07
-1.42299e-06
1.21085e-07
-1.48026e-06
1.19607e-07
-1.53681e-06
1.18189e-07
-1.59266e-06
1.16809e-07
-1.64782e-06
1.1544e-07
-1.70228e-06
1.1406e-07
-1.75602e-06
1.1265e-07
-1.80902e-06
1.11189e-07
-1.86125e-06
1.0966e-07
-1.91267e-06
1.0805e-07
-1.96324e-06
1.06344e-07
-2.01289e-06
1.04533e-07
-2.06158e-06
1.02606e-07
-2.10925e-06
1.00558e-07
-2.15584e-06
9.83807e-08
-2.20128e-06
9.60714e-08
-2.24551e-06
9.36264e-08
-2.28847e-06
9.10443e-08
-2.33008e-06
8.83243e-08
-2.37029e-06
8.54672e-08
-2.40902e-06
8.24746e-08
-2.44622e-06
7.93497e-08
-2.48183e-06
7.60963e-08
-2.51578e-06
7.27199e-08
-2.54802e-06
6.92268e-08
-2.5785e-06
6.5625e-08
-2.60717e-06
6.19228e-08
-2.63399e-06
5.81305e-08
-2.65892e-06
5.42588e-08
-2.68192e-06
5.03201e-08
-2.70297e-06
4.63273e-08
-2.72205e-06
4.22947e-08
-2.73916e-06
3.82368e-08
-2.75427e-06
3.41697e-08
-2.7674e-06
3.01087e-08
-2.77856e-06
2.60705e-08
-2.78776e-06
2.207e-08
-2.79502e-06
1.81226e-08
-2.80039e-06
1.4241e-08
-2.80389e-06
1.04373e-08
-2.80556e-06
6.72035e-09
-2.80544e-06
3.09551e-09
-2.80359e-06
-4.33624e-10
-2.80008e-06
-3.82316e-09
-2.79501e-06
-7.04465e-09
-2.78841e-06
-1.01271e-08
-2.78034e-06
-1.31018e-08
-2.77083e-06
-1.59923e-08
-2.75992e-06
-1.88202e-08
-2.74761e-06
-2.16052e-08
-2.73391e-06
-2.43676e-08
-2.71883e-06
-2.71271e-08
-2.70235e-06
-2.99048e-08
-2.68445e-06
-3.27208e-08
-2.66509e-06
-3.55963e-08
-2.64424e-06
-3.85518e-08
-2.62183e-06
-4.1609e-08
-2.59782e-06
-4.47888e-08
-2.57211e-06
-4.81126e-08
-2.54463e-06
-5.16008e-08
-2.5153e-06
-5.52731e-08
-2.48399e-06
-5.91478e-08
-2.45061e-06
-6.32409e-08
-2.41503e-06
-6.75666e-08
-2.37714e-06
-7.21375e-08
-2.33681e-06
-7.6965e-08
-2.2939e-06
-8.20593e-08
-2.24828e-06
-8.74288e-08
-2.1998e-06
-9.30794e-08
-2.14833e-06
-9.90128e-08
-2.09373e-06
-1.05227e-07
-2.03586e-06
-1.11717e-07
-1.97459e-06
-1.18481e-07
-1.90979e-06
-1.25512e-07
-1.84133e-06
-1.32803e-07
-1.7691e-06
-1.40337e-07
-1.69298e-06
-1.48094e-07
-1.61289e-06
-1.56063e-07
-1.52872e-06
-1.64229e-07
-1.44041e-06
-1.72557e-07
-1.3479e-06
-1.81022e-07
-1.25115e-06
-1.89614e-07
-1.15012e-06
-1.98281e-07
-1.04481e-06
-2.07001e-07
-9.35241e-07
-2.15732e-07
-8.21451e-07
-2.24402e-07
-7.03487e-07
-2.33024e-07
-5.81461e-07
-2.41456e-07
-4.55456e-07
-2.49785e-07
-3.25636e-07
-2.57768e-07
-1.92162e-07
-2.65606e-07
-5.47696e-08
-2.7332e-07
8.54338e-08
-2.7991e-07
2.26744e-07
-2.85347e-07
3.68853e-07
-2.89607e-07
5.11251e-07
-2.91338e-07
6.53227e-07
-2.90949e-07
7.94306e-07
-2.89463e-07
9.33894e-07
-2.86865e-07
1.07141e-06
-2.83113e-07
1.20627e-06
-2.78182e-07
1.33792e-06
-2.72083e-07
1.46584e-06
-2.64869e-07
1.58956e-06
-2.56624e-07
1.70864e-06
-2.47457e-07
1.82273e-06
-2.37495e-07
1.93152e-06
-2.26873e-07
2.03478e-06
-2.15725e-07
2.13234e-06
-2.04187e-07
2.22407e-06
-1.92382e-07
2.30992e-06
-1.80425e-07
2.38986e-06
-1.68417e-07
2.46392e-06
-1.56448e-07
2.53216e-06
-1.44593e-07
2.59466e-06
-1.32913e-07
2.65153e-06
-1.21459e-07
2.70291e-06
-1.10269e-07
2.74893e-06
-9.9372e-08
2.78975e-06
-8.87893e-08
2.82552e-06
-7.85342e-08
2.8564e-06
-6.8614e-08
2.88256e-06
-5.90318e-08
2.90415e-06
-4.97864e-08
2.92135e-06
-4.08742e-08
2.9343e-06
-3.22892e-08
2.94317e-06
-2.40244e-08
2.94809e-06
-1.60718e-08
2.94923e-06
-8.4252e-09
2.94671e-06
-1.07569e-09
2.94063e-06
6.01197e-09
2.9311e-06
1.28735e-08
2.91826e-06
1.95185e-08
2.90226e-06
2.59507e-08
2.88321e-06
3.21702e-08
2.86126e-06
3.81758e-08
2.83651e-06
4.3966e-08
2.80911e-06
4.95389e-08
2.77917e-06
5.48921e-08
2.74683e-06
6.00217e-08
2.71222e-06
6.49224e-08
2.67548e-06
6.95867e-08
2.63676e-06
7.40054e-08
2.59621e-06
7.8166e-08
2.55399e-06
8.20543e-08
2.51026e-06
8.56525e-08
2.46521e-06
8.8941e-08
2.41903e-06
9.18967e-08
2.37192e-06
9.44948e-08
2.32408e-06
9.67079e-08
2.27575e-06
9.85076e-08
2.22715e-06
9.98639e-08
2.17854e-06
1.00747e-07
2.13015e-06
1.01128e-07
2.08227e-06
1.0098e-07
2.03514e-06
1.00278e-07
1.98905e-06
9.90026e-08
1.94426e-06
9.71379e-08
1.90105e-06
9.46749e-08
1.85967e-06
9.16105e-08
1.8204e-06
8.79482e-08
1.78349e-06
8.36973e-08
1.74918e-06
7.88728e-08
1.71771e-06
7.34929e-08
1.68931e-06
6.75778e-08
1.66421e-06
6.11462e-08
1.64262e-06
5.42122e-08
1.62476e-06
4.67802e-08
1.61087e-06
3.88368e-08
1.60121e-06
3.0338e-08
1.59609e-06
2.11823e-08
1.59596e-06
1.11678e-08
1.60127e-06
-8.10948e-12
1.61255e-06
-1.26457e-08
1.63068e-06
-2.74142e-08
1.65722e-06
-4.5746e-08
1.69436e-06
-7.05403e-08
1.74439e-06
-1.05931e-07
-1.54262e-07
-4.86746e-08
8.16515e-08
-9.6934e-08
1.28518e-07
-1.47989e-07
1.57783e-07
-2.0303e-07
1.75092e-07
-2.61472e-07
1.85379e-07
-3.22411e-07
1.919e-07
-3.8507e-07
1.96501e-07
-4.48815e-07
2.00138e-07
-5.13057e-07
2.03215e-07
-5.77231e-07
2.05734e-07
-6.40895e-07
2.07285e-07
-7.04199e-07
2.07138e-07
-7.66384e-07
2.05557e-07
-8.25497e-07
2.03537e-07
-8.83618e-07
1.99965e-07
-9.42772e-07
1.94916e-07
-1.00085e-06
1.90547e-07
-1.05763e-06
1.86887e-07
-1.11328e-06
1.83682e-07
-1.16796e-06
1.80791e-07
-1.22179e-06
1.78151e-07
-1.27486e-06
1.75715e-07
-1.32722e-06
1.73442e-07
-1.37891e-06
1.71293e-07
-1.42995e-06
1.69229e-07
-1.48035e-06
1.67213e-07
-1.53012e-06
1.6521e-07
-1.57925e-06
1.63188e-07
-1.62772e-06
1.61116e-07
-1.6755e-06
1.58968e-07
-1.72256e-06
1.5672e-07
-1.76886e-06
1.54351e-07
-1.81436e-06
1.51843e-07
-1.85901e-06
1.4918e-07
-1.90275e-06
1.46351e-07
-1.94554e-06
1.43344e-07
-1.98731e-06
1.40152e-07
-2.02801e-06
1.36768e-07
-2.06757e-06
1.33188e-07
-2.10593e-06
1.2941e-07
-2.14304e-06
1.25433e-07
-2.17883e-06
1.21257e-07
-2.21324e-06
1.16887e-07
-2.24622e-06
1.12324e-07
-2.2777e-06
1.07576e-07
-2.30763e-06
1.0265e-07
-2.33596e-06
9.75545e-08
-2.36263e-06
9.23008e-08
-2.38761e-06
8.69013e-08
-2.41085e-06
8.13701e-08
-2.43231e-06
7.57229e-08
-2.45197e-06
6.99768e-08
-2.46979e-06
6.41505e-08
-2.48576e-06
5.82641e-08
-2.49987e-06
5.23387e-08
-2.51209e-06
4.63967e-08
-2.52244e-06
4.04609e-08
-2.53093e-06
3.45543e-08
-2.53756e-06
2.86994e-08
-2.54235e-06
2.29172e-08
-2.54534e-06
1.72269e-08
-2.54654e-06
1.1645e-08
-2.54601e-06
6.18473e-09
-2.54377e-06
8.53847e-10
-2.53989e-06
-4.30491e-09
-2.53448e-06
-9.24222e-09
-2.52756e-06
-1.39641e-08
-2.51918e-06
-1.85033e-08
-2.50939e-06
-2.28948e-08
-2.49821e-06
-2.71707e-08
-2.48567e-06
-3.1361e-08
-2.47178e-06
-3.54948e-08
-2.45654e-06
-3.96014e-08
-2.43996e-06
-4.37105e-08
-2.42201e-06
-4.78522e-08
-2.40268e-06
-5.20571e-08
-2.38192e-06
-5.63552e-08
-2.35969e-06
-6.07772e-08
-2.33595e-06
-6.5354e-08
-2.31062e-06
-7.01168e-08
-2.28364e-06
-7.50964e-08
-2.25492e-06
-8.0323e-08
-2.22436e-06
-8.58254e-08
-2.19188e-06
-9.16305e-08
-2.15736e-06
-9.77619e-08
-2.12069e-06
-1.0424e-07
-2.08174e-06
-1.11082e-07
-2.0404e-06
-1.18306e-07
-1.99654e-06
-1.25926e-07
-1.95001e-06
-1.33955e-07
-1.90069e-06
-1.42401e-07
-1.84844e-06
-1.51266e-07
-1.79312e-06
-1.60547e-07
-1.7346e-06
-1.70237e-07
-1.67275e-06
-1.80328e-07
-1.60745e-06
-1.90814e-07
-1.53857e-06
-2.01682e-07
-1.46601e-06
-2.12903e-07
-1.38966e-06
-2.24446e-07
-1.30943e-06
-2.36292e-07
-1.22524e-06
-2.48418e-07
-1.13703e-06
-2.60765e-07
-1.04476e-06
-2.73289e-07
-9.484e-07
-2.85976e-07
-8.4794e-07
-2.9874e-07
-7.43403e-07
-3.11537e-07
-6.34818e-07
-3.24316e-07
-5.22278e-07
-3.36941e-07
-4.05847e-07
-3.49454e-07
-2.85674e-07
-3.61628e-07
-1.6191e-07
-3.73547e-07
-3.45673e-08
-3.85111e-07
9.55459e-08
-3.95718e-07
2.27411e-07
-4.05185e-07
3.60688e-07
-4.13186e-07
4.94799e-07
-4.19457e-07
6.29048e-07
-4.23856e-07
7.63282e-07
-4.25573e-07
8.97171e-07
-4.24838e-07
1.02997e-06
-4.22261e-07
1.16103e-06
-4.17925e-07
1.28975e-06
-4.11835e-07
1.41558e-06
-4.04006e-07
1.53798e-06
-3.9449e-07
1.6565e-06
-3.83383e-07
1.77069e-06
-3.7082e-07
1.8802e-06
-3.56965e-07
1.98471e-06
-3.42004e-07
2.08397e-06
-3.26128e-07
2.17778e-06
-3.09535e-07
2.266e-06
-2.92411e-07
2.34855e-06
-2.74935e-07
2.42539e-06
-2.57268e-07
2.49653e-06
-2.39553e-07
2.56199e-06
-2.21915e-07
2.62186e-06
-2.04461e-07
2.67622e-06
-1.87276e-07
2.72519e-06
-1.70431e-07
2.76891e-06
-1.53981e-07
2.8075e-06
-1.37967e-07
2.84112e-06
-1.22417e-07
2.86994e-06
-1.0735e-07
2.8941e-06
-9.27778e-08
2.91377e-06
-7.87044e-08
2.92911e-06
-6.51291e-08
2.94028e-06
-5.20469e-08
2.94744e-06
-3.94505e-08
2.95075e-06
-2.73304e-08
2.95035e-06
-1.56752e-08
2.9464e-06
-4.4716e-09
2.93901e-06
6.31386e-09
2.9283e-06
1.67127e-08
2.91444e-06
2.67348e-08
2.89757e-06
3.63891e-08
2.87784e-06
4.56817e-08
2.85539e-06
5.46148e-08
2.83038e-06
6.31887e-08
2.80294e-06
7.14019e-08
2.77323e-06
7.92514e-08
2.74139e-06
8.67325e-08
2.70757e-06
9.38387e-08
2.67193e-06
1.0056e-07
2.63463e-06
1.06886e-07
2.59583e-06
1.12801e-07
2.55571e-06
1.18287e-07
2.51444e-06
1.23323e-07
2.47221e-06
1.27886e-07
2.4292e-06
1.31947e-07
2.38562e-06
1.35478e-07
2.34166e-06
1.38445e-07
2.29755e-06
1.40817e-07
2.2535e-06
1.42558e-07
2.20973e-06
1.43634e-07
2.16647e-06
1.4401e-07
2.12394e-06
1.43656e-07
2.08237e-06
1.42542e-07
2.042e-06
1.40647e-07
2.00305e-06
1.3795e-07
1.96575e-06
1.34441e-07
1.93031e-06
1.30114e-07
1.89694e-06
1.24974e-07
1.86586e-06
1.19029e-07
1.83726e-06
1.12297e-07
1.81133e-06
1.04798e-07
1.78826e-06
9.6559e-08
1.76823e-06
8.76019e-08
1.75143e-06
7.79504e-08
1.73802e-06
6.76147e-08
1.72821e-06
5.65947e-08
1.72218e-06
4.48578e-08
1.72019e-06
3.23315e-08
1.7225e-06
1.88606e-08
1.72947e-06
4.19513e-09
1.74135e-06
-1.18982e-08
1.75854e-06
-2.98483e-08
1.78177e-06
-5.06543e-08
1.81193e-06
-7.59168e-08
1.84982e-06
-1.08447e-07
1.89439e-06
-1.50532e-07
-1.99725e-07
-5.35684e-08
1.35223e-07
-1.04881e-07
1.79832e-07
-1.5616e-07
2.09061e-07
-2.09217e-07
2.28153e-07
-2.64377e-07
2.40539e-07
-3.21246e-07
2.48772e-07
-3.79236e-07
2.54492e-07
-4.37718e-07
2.58621e-07
-4.96081e-07
2.61578e-07
-5.53771e-07
2.63423e-07
-6.10422e-07
2.63935e-07
-6.66066e-07
2.62781e-07
-7.20641e-07
2.6013e-07
-7.73707e-07
2.56602e-07
-8.25874e-07
2.5213e-07
-8.77885e-07
2.46927e-07
-9.29276e-07
2.41939e-07
-9.79859e-07
2.3747e-07
-1.02963e-06
2.33454e-07
-1.07865e-06
2.29809e-07
-1.12697e-06
2.26475e-07
-1.17465e-06
2.23394e-07
-1.22172e-06
2.20514e-07
-1.26822e-06
2.17782e-07
-1.31414e-06
2.1515e-07
-1.3595e-06
2.12571e-07
-1.40429e-06
2.09999e-07
-1.44849e-06
2.07394e-07
-1.4921e-06
2.04718e-07
-1.53507e-06
2.01939e-07
-1.57737e-06
1.99026e-07
-1.61898e-06
1.95953e-07
-1.65983e-06
1.92697e-07
-1.69989e-06
1.89241e-07
-1.73911e-06
1.85567e-07
-1.77743e-06
1.81663e-07
-1.81479e-06
1.77518e-07
-1.85115e-06
1.73126e-07
-1.88645e-06
1.68481e-07
-1.92062e-06
1.63581e-07
-1.95361e-06
1.58423e-07
-1.98536e-06
1.5301e-07
-2.01582e-06
1.47344e-07
-2.04493e-06
1.4143e-07
-2.07263e-06
1.35277e-07
-2.09887e-06
1.28893e-07
-2.1236e-06
1.22289e-07
-2.14678e-06
1.15481e-07
-2.16836e-06
1.08482e-07
-2.18831e-06
1.01312e-07
-2.20657e-06
9.39906e-08
-2.22314e-06
8.65389e-08
-2.23797e-06
7.89809e-08
-2.25104e-06
7.13423e-08
-2.26236e-06
6.36501e-08
-2.27189e-06
5.59328e-08
-2.27965e-06
4.822e-08
-2.28564e-06
4.05412e-08
-2.28986e-06
3.29256e-08
-2.29235e-06
2.54007e-08
-2.29311e-06
1.79908e-08
-2.29218e-06
1.07167e-08
-2.28959e-06
3.59581e-09
-2.2854e-06
-3.33609e-09
-2.27969e-06
-1.00125e-08
-2.27253e-06
-1.64067e-08
-2.26395e-06
-2.25461e-08
-2.25399e-06
-2.84652e-08
-2.24268e-06
-3.42024e-08
-2.23005e-06
-3.97961e-08
-2.21613e-06
-4.5284e-08
-2.20092e-06
-5.07035e-08
-2.18443e-06
-5.60929e-08
-2.16665e-06
-6.14909e-08
-2.14756e-06
-6.69371e-08
-2.12715e-06
-7.24712e-08
-2.10537e-06
-7.81326e-08
-2.08219e-06
-8.39606e-08
-2.05755e-06
-8.99957e-08
-2.03139e-06
-9.62782e-08
-2.00363e-06
-1.02848e-07
-1.97421e-06
-1.09746e-07
-1.94303e-06
-1.17008e-07
-1.90999e-06
-1.2467e-07
-1.87499e-06
-1.32764e-07
-1.83791e-06
-1.41315e-07
-1.79865e-06
-1.50346e-07
-1.75708e-06
-1.59879e-07
-1.71307e-06
-1.69933e-07
-1.66651e-06
-1.80525e-07
-1.61724e-06
-1.91667e-07
-1.56514e-06
-2.03363e-07
-1.51008e-06
-2.15606e-07
-1.45194e-06
-2.28386e-07
-1.39057e-06
-2.41692e-07
-1.32587e-06
-2.55515e-07
-1.25771e-06
-2.69843e-07
-1.18598e-06
-2.84633e-07
-1.11059e-06
-2.99836e-07
-1.03146e-06
-3.15427e-07
-9.48498e-07
-3.3138e-07
-8.61656e-07
-3.47607e-07
-7.7091e-07
-3.64035e-07
-6.76225e-07
-3.80661e-07
-5.77613e-07
-3.97352e-07
-4.7512e-07
-4.14031e-07
-3.68783e-07
-4.30652e-07
-2.58728e-07
-4.46996e-07
-1.45062e-07
-4.6312e-07
-2.78424e-08
-4.78847e-07
9.23416e-08
-4.93732e-07
2.14762e-07
-5.07532e-07
3.39075e-07
-5.20032e-07
4.64791e-07
-5.30901e-07
5.91447e-07
-5.39843e-07
7.18572e-07
-5.46583e-07
8.45597e-07
-5.50882e-07
9.72294e-07
-5.52271e-07
1.0983e-06
-5.50847e-07
1.22297e-06
-5.4693e-07
1.34567e-06
-5.40628e-07
1.46583e-06
-5.31991e-07
1.5829e-06
-5.21081e-07
1.69641e-06
-5.07997e-07
1.80591e-06
-4.92887e-07
1.91103e-06
-4.75938e-07
2.01144e-06
-4.5737e-07
2.10686e-06
-4.37425e-07
2.19708e-06
-4.16354e-07
2.28195e-06
-3.94406e-07
2.36136e-06
-3.71822e-07
2.43525e-06
-3.48828e-07
2.50361e-06
-3.25628e-07
2.56646e-06
-3.02403e-07
2.62386e-06
-2.7931e-07
2.67588e-06
-2.56482e-07
2.72263e-06
-2.34029e-07
2.76424e-06
-2.12038e-07
2.80083e-06
-1.90578e-07
2.83256e-06
-1.69699e-07
2.85959e-06
-1.49438e-07
2.88206e-06
-1.2982e-07
2.90014e-06
-1.10857e-07
2.91399e-06
-9.25569e-08
2.92378e-06
-7.49183e-08
2.92967e-06
-5.79362e-08
2.93182e-06
-4.16022e-08
2.9304e-06
-2.59051e-08
2.92555e-06
-1.08303e-08
2.91743e-06
3.65536e-09
2.90616e-06
1.75856e-08
2.8919e-06
3.09735e-08
2.87481e-06
4.38252e-08
2.85505e-06
5.61492e-08
2.83278e-06
6.7952e-08
2.80816e-06
7.92371e-08
2.78134e-06
9.00052e-08
2.75249e-06
1.00255e-07
2.72176e-06
1.09983e-07
2.68932e-06
1.19182e-07
2.65531e-06
1.27843e-07
2.61992e-06
1.35955e-07
2.58331e-06
1.43502e-07
2.54565e-06
1.50465e-07
2.50711e-06
1.56823e-07
2.46789e-06
1.6255e-07
2.42816e-06
1.67618e-07
2.38811e-06
1.71996e-07
2.34794e-06
1.75651e-07
2.30784e-06
1.78546e-07
2.26802e-06
1.80647e-07
2.22866e-06
1.81916e-07
2.18998e-06
1.82319e-07
2.15217e-06
1.81821e-07
2.11543e-06
1.80394e-07
2.07997e-06
1.78011e-07
2.04597e-06
1.74652e-07
2.01362e-06
1.70303e-07
1.9831e-06
1.64959e-07
1.9546e-06
1.5862e-07
1.92828e-06
1.51297e-07
1.90431e-06
1.43004e-07
1.88284e-06
1.33765e-07
1.86404e-06
1.23607e-07
1.84804e-06
1.12557e-07
1.83501e-06
1.00642e-07
1.82508e-06
8.78843e-08
1.8184e-06
7.42914e-08
1.81515e-06
5.98517e-08
1.8155e-06
4.45162e-08
1.81965e-06
2.81828e-08
1.82786e-06
1.0659e-08
1.84026e-06
-8.20897e-09
1.85704e-06
-2.86795e-08
1.87858e-06
-5.13829e-08
1.90532e-06
-7.74025e-08
1.93769e-06
-1.08284e-07
1.97561e-06
-1.46378e-07
2.01714e-06
-1.92083e-07
-2.40702e-07
-5.44765e-08
1.89699e-07
-1.06363e-07
2.31719e-07
-1.56923e-07
2.59623e-07
-2.07758e-07
2.78987e-07
-2.59468e-07
2.9225e-07
-3.11978e-07
3.01282e-07
-3.64899e-07
3.07414e-07
-4.17737e-07
3.11459e-07
-4.69999e-07
3.1384e-07
-5.21286e-07
3.14709e-07
-5.71394e-07
3.14043e-07
-6.20407e-07
3.11792e-07
-6.68453e-07
3.08175e-07
-7.15508e-07
3.03655e-07
-7.61844e-07
2.98464e-07
-8.07794e-07
2.92878e-07
-8.53272e-07
2.87416e-07
-8.98162e-07
2.8236e-07
-9.4244e-07
2.77732e-07
-9.86126e-07
2.73495e-07
-1.02925e-06
2.69597e-07
-1.07183e-06
2.6598e-07
-1.11391e-06
2.62585e-07
-1.15548e-06
2.59351e-07
-1.19655e-06
2.56222e-07
-1.23712e-06
2.53142e-07
-1.27718e-06
2.50058e-07
-1.31671e-06
2.46924e-07
-1.35569e-06
2.43695e-07
-1.39408e-06
2.40332e-07
-1.43186e-06
2.368e-07
-1.46897e-06
2.33068e-07
-1.50539e-06
2.29112e-07
-1.54105e-06
2.24908e-07
-1.57593e-06
2.20438e-07
-1.60995e-06
2.15687e-07
-1.64308e-06
2.10643e-07
-1.67525e-06
2.05299e-07
-1.70641e-06
1.99647e-07
-1.73652e-06
1.93685e-07
-1.76551e-06
1.87411e-07
-1.79333e-06
1.80827e-07
-1.81992e-06
1.73937e-07
-1.84523e-06
1.66746e-07
-1.86922e-06
1.59264e-07
-1.89183e-06
1.515e-07
-1.91301e-06
1.4347e-07
-1.93272e-06
1.3519e-07
-1.95092e-06
1.26679e-07
-1.96756e-06
1.17957e-07
-1.98262e-06
1.0905e-07
-1.99606e-06
9.99818e-08
-2.00786e-06
9.07826e-08
-2.018e-06
8.14825e-08
-2.02647e-06
7.21143e-08
-2.03325e-06
6.27123e-08
-2.03834e-06
5.33126e-08
-2.04175e-06
4.39513e-08
-2.04349e-06
3.46642e-08
-2.04357e-06
2.5485e-08
-2.04203e-06
1.6444e-08
-2.03888e-06
7.56686e-09
-2.03416e-06
-1.12044e-09
-2.02796e-06
-9.53259e-09
-2.02037e-06
-1.76063e-08
-2.01141e-06
-2.53619e-08
-2.00113e-06
-3.28273e-08
-1.98956e-06
-4.00388e-08
-1.97672e-06
-4.70377e-08
-1.96265e-06
-5.38678e-08
-1.94736e-06
-6.05734e-08
-1.93087e-06
-6.71997e-08
-1.91317e-06
-7.37931e-08
-1.89426e-06
-8.04011e-08
-1.87412e-06
-8.70725e-08
-1.85274e-06
-9.38559e-08
-1.83007e-06
-1.00799e-07
-1.80608e-06
-1.0795e-07
-1.78072e-06
-1.15358e-07
-1.75392e-06
-1.23073e-07
-1.72563e-06
-1.31143e-07
-1.69576e-06
-1.39617e-07
-1.66423e-06
-1.48541e-07
-1.63094e-06
-1.5796e-07
-1.59579e-06
-1.67911e-07
-1.55868e-06
-1.78426e-07
-1.51949e-06
-1.89533e-07
-1.47811e-06
-2.01258e-07
-1.43442e-06
-2.13624e-07
-1.38829e-06
-2.26653e-07
-1.3396e-06
-2.40362e-07
-1.28821e-06
-2.54757e-07
-1.23399e-06
-2.69826e-07
-1.17682e-06
-2.85556e-07
-1.11657e-06
-3.01934e-07
-1.05314e-06
-3.18949e-07
-9.86391e-07
-3.36593e-07
-9.16218e-07
-3.54805e-07
-8.42535e-07
-3.73519e-07
-7.6526e-07
-3.92701e-07
-6.84307e-07
-4.12333e-07
-5.99621e-07
-4.32292e-07
-5.11194e-07
-4.52462e-07
-4.18989e-07
-4.72865e-07
-3.23019e-07
-4.93322e-07
-2.23357e-07
-5.13691e-07
-1.20059e-07
-5.33949e-07
-1.31775e-08
-5.53876e-07
9.68496e-08
-5.73146e-07
2.09506e-07
-5.91502e-07
3.24508e-07
-6.08733e-07
4.41468e-07
-6.2449e-07
5.59956e-07
-6.38519e-07
6.79537e-07
-6.50482e-07
7.99761e-07
-6.60066e-07
9.20174e-07
-6.66995e-07
1.04029e-06
-6.70996e-07
1.15977e-06
-6.71757e-07
1.27823e-06
-6.69298e-07
1.39507e-06
-6.63775e-07
1.50973e-06
-6.55289e-07
1.62166e-06
-6.43921e-07
1.73036e-06
-6.29776e-07
1.83537e-06
-6.13005e-07
1.93629e-06
-5.93807e-07
2.03277e-06
-5.72424e-07
2.12454e-06
-5.49134e-07
2.21135e-06
-5.24233e-07
2.29302e-06
-4.98029e-07
2.36944e-06
-4.70824e-07
2.44052e-06
-4.42907e-07
2.50624e-06
-4.14549e-07
2.56661e-06
-3.85993e-07
2.62166e-06
-3.57456e-07
2.67147e-06
-3.29123e-07
2.71614e-06
-3.01152e-07
2.75578e-06
-2.73672e-07
2.79053e-06
-2.46786e-07
2.82053e-06
-2.20574e-07
2.84592e-06
-1.95096e-07
2.86688e-06
-1.70395e-07
2.88356e-06
-1.465e-07
2.89612e-06
-1.23427e-07
2.90475e-06
-1.01183e-07
2.9096e-06
-7.97695e-08
2.91084e-06
-5.91804e-08
2.90864e-06
-3.94071e-08
2.90317e-06
-2.04366e-08
2.89458e-06
-2.24182e-09
2.88302e-06
1.5218e-08
2.86864e-06
3.19658e-08
2.85161e-06
4.80032e-08
2.83209e-06
6.33367e-08
2.81027e-06
7.79751e-08
2.78629e-06
9.19253e-08
2.76034e-06
1.05192e-07
2.73256e-06
1.17777e-07
2.70314e-06
1.29679e-07
2.67222e-06
1.40894e-07
2.63999e-06
1.51415e-07
2.6066e-06
1.61232e-07
2.57222e-06
1.7033e-07
2.53703e-06
1.78693e-07
2.50119e-06
1.86299e-07
2.46489e-06
1.93126e-07
2.42829e-06
1.99145e-07
2.39158e-06
2.04327e-07
2.35493e-06
2.08639e-07
2.31854e-06
2.12046e-07
2.28257e-06
2.14513e-07
2.24721e-06
2.16005e-07
2.21264e-06
2.16485e-07
2.17903e-06
2.15922e-07
2.14657e-06
2.14284e-07
2.11541e-06
2.11545e-07
2.08574e-06
2.07685e-07
2.0577e-06
2.02688e-07
2.03145e-06
1.96546e-07
2.00715e-06
1.8926e-07
1.98493e-06
1.80837e-07
1.96493e-06
1.71291e-07
1.94729e-06
1.60644e-07
1.93212e-06
1.48925e-07
1.91957e-06
1.36161e-07
1.90974e-06
1.22385e-07
1.90275e-06
1.07622e-07
1.89874e-06
9.18925e-08
1.89783e-06
7.51988e-08
1.90016e-06
5.7519e-08
1.90589e-06
3.8786e-08
1.91519e-06
1.88729e-08
1.92819e-06
-2.33817e-09
1.94493e-06
-2.49568e-08
1.9656e-06
-4.93612e-08
1.99047e-06
-7.62579e-08
2.01978e-06
-1.06722e-07
2.05361e-06
-1.42119e-07
2.09147e-06
-1.84254e-07
2.13139e-06
-2.3202e-07
-2.79743e-07
-5.32633e-08
2.42961e-07
-1.03998e-07
2.82454e-07
-1.5281e-07
3.08434e-07
-2.00911e-07
3.27088e-07
-2.48919e-07
3.40258e-07
-2.9692e-07
3.49284e-07
-3.44707e-07
3.552e-07
-3.91956e-07
3.58707e-07
-4.38346e-07
3.6023e-07
-4.83647e-07
3.6001e-07
-5.27791e-07
3.58185e-07
-5.70894e-07
3.54893e-07
-6.13126e-07
3.50405e-07
-6.54586e-07
3.45113e-07
-6.95448e-07
3.39325e-07
-7.35897e-07
3.33327e-07
-7.75944e-07
3.27463e-07
-8.15534e-07
3.21951e-07
-8.54649e-07
3.16847e-07
-8.93292e-07
3.12139e-07
-9.31475e-07
3.07781e-07
-9.69211e-07
3.03717e-07
-1.00651e-06
2.99882e-07
-1.04337e-06
2.96214e-07
-1.0798e-06
2.92645e-07
-1.11577e-06
2.89116e-07
-1.15128e-06
2.85567e-07
-1.1863e-06
2.81945e-07
-1.22081e-06
2.782e-07
-1.25477e-06
2.74289e-07
-1.28814e-06
2.70174e-07
-1.32089e-06
2.65819e-07
-1.35298e-06
2.61196e-07
-1.38435e-06
2.5628e-07
-1.41496e-06
2.51051e-07
-1.44477e-06
2.45492e-07
-1.47372e-06
2.39591e-07
-1.50175e-06
2.33338e-07
-1.52883e-06
2.26726e-07
-1.5549e-06
2.19752e-07
-1.5799e-06
2.12415e-07
-1.60379e-06
2.04717e-07
-1.62652e-06
1.96661e-07
-1.64803e-06
1.88255e-07
-1.66827e-06
1.79508e-07
-1.68721e-06
1.70434e-07
-1.70478e-06
1.61048e-07
-1.72096e-06
1.51369e-07
-1.7357e-06
1.4142e-07
-1.74897e-06
1.31224e-07
-1.76073e-06
1.20809e-07
-1.77095e-06
1.10206e-07
-1.77962e-06
9.94478e-08
-1.78671e-06
8.85694e-08
-1.7922e-06
7.76092e-08
-1.7961e-06
6.66072e-08
-1.79839e-06
5.56057e-08
-1.79908e-06
4.46477e-08
-1.7982e-06
3.37755e-08
-1.79574e-06
2.30292e-08
-1.79174e-06
1.24441e-08
-1.78622e-06
2.05039e-09
-1.77928e-06
-8.06597e-09
-1.771e-06
-1.78132e-08
-1.76142e-06
-2.71824e-08
-1.75058e-06
-3.61979e-08
-1.73852e-06
-4.48903e-08
-1.72526e-06
-5.32976e-08
-1.71084e-06
-6.1464e-08
-1.69527e-06
-6.94377e-08
-1.67857e-06
-7.7269e-08
-1.66076e-06
-8.50101e-08
-1.64184e-06
-9.27151e-08
-1.6218e-06
-1.0044e-07
-1.60063e-06
-1.08242e-07
-1.57831e-06
-1.16179e-07
-1.5548e-06
-1.24306e-07
-1.53007e-06
-1.3268e-07
-1.50407e-06
-1.41358e-07
-1.47675e-06
-1.50398e-07
-1.44803e-06
-1.59857e-07
-1.41785e-06
-1.69794e-07
-1.38613e-06
-1.80262e-07
-1.35278e-06
-1.91314e-07
-1.31769e-06
-2.02998e-07
-1.28077e-06
-2.15347e-07
-1.24191e-06
-2.28393e-07
-1.201e-06
-2.42168e-07
-1.15793e-06
-2.56701e-07
-1.11256e-06
-2.72015e-07
-1.06479e-06
-2.88135e-07
-1.01448e-06
-3.0507e-07
-9.61501e-07
-3.22805e-07
-9.05738e-07
-3.4132e-07
-8.47073e-07
-3.606e-07
-7.85388e-07
-3.80635e-07
-7.20557e-07
-4.01424e-07
-6.52473e-07
-4.2289e-07
-5.81047e-07
-4.44946e-07
-5.06204e-07
-4.67545e-07
-4.27851e-07
-4.90687e-07
-3.45929e-07
-5.14215e-07
-2.60427e-07
-5.37964e-07
-1.71323e-07
-5.61969e-07
-7.86089e-08
-5.86037e-07
1.76354e-08
-6.09936e-07
1.17115e-07
-6.33429e-07
2.19538e-07
-6.563e-07
3.24677e-07
-6.78285e-07
4.32231e-07
-6.99058e-07
5.41848e-07
-7.18351e-07
6.53168e-07
-7.3581e-07
7.65776e-07
-7.51128e-07
8.79248e-07
-7.63955e-07
9.93146e-07
-7.73964e-07
1.10702e-06
-7.80867e-07
1.2204e-06
-7.84382e-07
1.33291e-06
-7.84269e-07
1.44411e-06
-7.80492e-07
1.55346e-06
-7.73128e-07
1.66043e-06
-7.62263e-07
1.76451e-06
-7.48002e-07
1.86523e-06
-7.30494e-07
1.96216e-06
-7.09938e-07
2.05494e-06
-6.86585e-07
2.14325e-06
-6.60735e-07
2.22683e-06
-6.32722e-07
2.3055e-06
-6.029e-07
2.3791e-06
-5.7163e-07
2.44754e-06
-5.39266e-07
2.51078e-06
-5.06144e-07
2.56881e-06
-4.72577e-07
2.62166e-06
-4.38844e-07
2.66939e-06
-4.05193e-07
2.71211e-06
-3.71838e-07
2.74991e-06
-3.38955e-07
2.78293e-06
-3.06693e-07
2.81131e-06
-2.75167e-07
2.83521e-06
-2.44468e-07
2.85477e-06
-2.14664e-07
2.87018e-06
-1.85802e-07
2.8816e-06
-1.57915e-07
2.88919e-06
-1.31023e-07
2.89314e-06
-1.05132e-07
2.89362e-06
-8.02452e-08
2.8908e-06
-5.63564e-08
2.88485e-06
-3.34562e-08
2.87594e-06
-1.15273e-08
2.86422e-06
9.47522e-09
2.84985e-06
2.95868e-08
2.83301e-06
4.8811e-08
2.81386e-06
6.71506e-08
2.79259e-06
8.46132e-08
2.76936e-06
1.01208e-07
2.74434e-06
1.16944e-07
2.71771e-06
1.31828e-07
2.68962e-06
1.45861e-07
2.66026e-06
1.59045e-07
2.62978e-06
1.71375e-07
2.59835e-06
1.82845e-07
2.56614e-06
1.93444e-07
2.53331e-06
2.03159e-07
2.50004e-06
2.11972e-07
2.46648e-06
2.19861e-07
2.4328e-06
2.26803e-07
2.39918e-06
2.32771e-07
2.36578e-06
2.37733e-07
2.33276e-06
2.41659e-07
2.30029e-06
2.44515e-07
2.26854e-06
2.46268e-07
2.23766e-06
2.46885e-07
2.20782e-06
2.46334e-07
2.17916e-06
2.44585e-07
2.15183e-06
2.41614e-07
2.12598e-06
2.37399e-07
2.10174e-06
2.31925e-07
2.07925e-06
2.25183e-07
2.05863e-06
2.1717e-07
2.04e-06
2.07893e-07
2.02347e-06
1.97364e-07
2.00917e-06
1.85603e-07
1.99718e-06
1.72637e-07
1.98761e-06