/*--------------------------------*- C++ -*----------------------------------*\
  =========                 |
  \\      /  F ield         | OpenFOAM: The Open Source CFD Toolbox
   \\    /   O peration     | Website:  https://openfoam.org
    \\  /    A nd           | Version:  7
     \\/     M anipulation  |
\*---------------------------------------------------------------------------*/
FoamFile
{
    version     2.0;
    format      ascii;
    class       volVectorField;
    location    "600";
    object      U;
}
// * * * * * * * * * * * * * * * * * * * * * * * * * * * * * * * * * * * * * //

dimensions      [0 1 -1 0 0 0 0];

internalField   nonuniform List<vector> 
16900
(
(0.00533648 -0.00643423 0)
(-0.0115686 0.0227755 0)
(-0.054053 0.0362554 0)
(-0.106171 0.04045 0)
(-0.161747 0.0417796 0)
(-0.218757 0.0425944 0)
(-0.276414 0.0436858 0)
(-0.334592 0.0454003 0)
(-0.39387 0.0479341 0)
(-0.455383 0.0512382 0)
(-0.519504 0.0541356 0)
(-0.584809 0.0515618 0)
(-0.648399 0.0551315 0)
(-0.710501 0.0771046 0)
(-0.779525 0.0639531 0)
(-0.84621 0.0347524 0)
(-0.902675 0.0354404 0)
(-0.959721 0.035895 0)
(-1.01729 0.0356146 0)
(-1.07432 0.0350938 0)
(-1.13068 0.0345069 0)
(-1.18635 0.0339184 0)
(-1.24134 0.0333548 0)
(-1.29569 0.0328173 0)
(-1.34942 0.0323047 0)
(-1.40256 0.0318086 0)
(-1.45511 0.0313235 0)
(-1.50707 0.0308422 0)
(-1.55845 0.0303587 0)
(-1.60921 0.0298676 0)
(-1.65933 0.029364 0)
(-1.70877 0.0288436 0)
(-1.75751 0.0283029 0)
(-1.80548 0.0277391 0)
(-1.85265 0.0271496 0)
(-1.89896 0.0265325 0)
(-1.94434 0.0258866 0)
(-1.98875 0.0252106 0)
(-2.03211 0.024504 0)
(-2.07438 0.0237664 0)
(-2.11548 0.022998 0)
(-2.15535 0.022199 0)
(-2.19394 0.0213702 0)
(-2.23117 0.0205126 0)
(-2.26699 0.0196273 0)
(-2.30135 0.0187161 0)
(-2.33418 0.0177808 0)
(-2.36545 0.0168235 0)
(-2.39509 0.0158469 0)
(-2.42307 0.0148536 0)
(-2.44935 0.0138467 0)
(-2.4739 0.0128293 0)
(-2.49668 0.0118052 0)
(-2.51768 0.010778 0)
(-2.53689 0.00975152 0)
(-2.55429 0.00872976 0)
(-2.56989 0.00771683 0)
(-2.5837 0.00671653 0)
(-2.59572 0.00573276 0)
(-2.60599 0.00476881 0)
(-2.61452 0.00382787 0)
(-2.62136 0.0029123 0)
(-2.62655 0.00202417 0)
(-2.63011 0.00116436 0)
(-2.63211 0.000333762 0)
(-2.63258 -0.000462749 0)
(-2.63158 -0.00121383 0)
(-2.6292 -0.00192099 0)
(-2.6255 -0.00259637 0)
(-2.62052 -0.00324746 0)
(-2.61431 -0.00387984 0)
(-2.60688 -0.00449874 0)
(-2.59826 -0.005109 0)
(-2.58846 -0.00571579 0)
(-2.57747 -0.00632412 0)
(-2.56529 -0.00693931 0)
(-2.5519 -0.00756653 0)
(-2.53726 -0.00821123 0)
(-2.52135 -0.00887877 0)
(-2.50411 -0.00957466 0)
(-2.48549 -0.0103043 0)
(-2.46543 -0.0110729 0)
(-2.44384 -0.0118857 0)
(-2.42064 -0.0127474 0)
(-2.39575 -0.0136625 0)
(-2.36907 -0.014635 0)
(-2.34048 -0.015669 0)
(-2.30989 -0.0167681 0)
(-2.27717 -0.017936 0)
(-2.24221 -0.0191757 0)
(-2.20488 -0.0204903 0)
(-2.16506 -0.0218816 0)
(-2.12263 -0.0233518 0)
(-2.07746 -0.0249024 0)
(-2.02943 -0.0265355 0)
(-1.97841 -0.0282534 0)
(-1.9243 -0.0300578 0)
(-1.86696 -0.0319489 0)
(-1.80631 -0.0339284 0)
(-1.74222 -0.0359998 0)
(-1.67461 -0.0381653 0)
(-1.60339 -0.040425 0)
(-1.52847 -0.0427848 0)
(-1.44978 -0.0452495 0)
(-1.36727 -0.0478206 0)
(-1.28087 -0.0505086 0)
(-1.19056 -0.0533119 0)
(-1.09632 -0.056234 0)
(-0.99814 -0.0592798 0)
(-0.896042 -0.0624486 0)
(-0.79005 -0.0657729 0)
(-0.68028 -0.0692778 0)
(-0.566727 -0.0730847 0)
(-0.449702 -0.0773385 0)
(-0.328223 -0.0821248 0)
(-0.205254 -0.0871619 0)
(-0.0810596 -0.0909523 0)
(0.0540523 -0.0907489 0)
(0.181866 -0.0880487 0)
(0.310503 -0.0852839 0)
(0.438489 -0.0825366 0)
(0.56524 -0.0797598 0)
(0.690238 -0.0769116 0)
(0.812956 -0.0739673 0)
(0.932877 -0.0709186 0)
(1.04951 -0.067771 0)
(1.16241 -0.0645394 0)
(1.27118 -0.0612451 0)
(1.37548 -0.0579124 0)
(1.47505 -0.0545674 0)
(1.56966 -0.0512348 0)
(1.65917 -0.0479383 0)
(1.74347 -0.0446984 0)
(1.82251 -0.0415331 0)
(1.8963 -0.0384569 0)
(1.96485 -0.0354813 0)
(2.02823 -0.0326147 0)
(2.08653 -0.0298629 0)
(2.13985 -0.0272292 0)
(2.18833 -0.0247149 0)
(2.23209 -0.0223195 0)
(2.27127 -0.0200412 0)
(2.30604 -0.017877 0)
(2.33653 -0.0158232 0)
(2.3629 -0.0138755 0)
(2.38529 -0.0120291 0)
(2.40386 -0.0102791 0)
(2.41874 -0.00862016 0)
(2.43008 -0.00704835 0)
(2.43801 -0.0055628 0)
(2.44267 -0.00416622 0)
(2.44421 -0.00283981 0)
(2.44277 -0.00155904 0)
(2.4384 -0.000320378 0)
(2.43117 0.000877437 0)
(2.42115 0.00203607 0)
(2.40841 0.00315757 0)
(2.39303 0.00424415 0)
(2.37508 0.0052981 0)
(2.35465 0.00632144 0)
(2.33181 0.00731617 0)
(2.30666 0.0082837 0)
(2.27926 0.00922536 0)
(2.2497 0.0101416 0)
(2.21808 0.0110328 0)
(2.18449 0.0118982 0)
(2.14902 0.0127366 0)
(2.11179 0.0135458 0)
(2.07291 0.014323 0)
(2.03252 0.0150638 0)
(1.99074 0.0157638 0)
(1.94776 0.0164163 0)
(1.90372 0.0170148 0)
(1.85883 0.0175508 0)
(1.81329 0.0180161 0)
(1.76732 0.0184007 0)
(1.72117 0.0186956 0)
(1.67509 0.0188904 0)
(1.62934 0.0189767 0)
(1.58422 0.0189454 0)
(1.54001 0.0187901 0)
(1.497 0.0185044 0)
(1.45548 0.0180855 0)
(1.41574 0.0175305 0)
(1.37807 0.0168409 0)
(1.34274 0.0160172 0)
(1.31001 0.0150635 0)
(1.28013 0.0139816 0)
(1.25334 0.0127764 0)
(1.22989 0.0114505 0)
(1.21002 0.0100063 0)
(1.194 0.00842764 0)
(1.18212 0.00666771 0)
(1.17484 0.00464222 0)
(1.17296 0.00230204 0)
(1.17741 -0.000455815 0)
(1.18932 -0.00393274 0)
(1.21174 -0.00889199 0)
(1.24579 -0.0169658 0)
(1.33696 -0.0331623 0)
(-0.0215443 0.0134385 0)
(-0.0471427 0.0547631 0)
(-0.0891205 0.0766362 0)
(-0.138606 0.0862651 0)
(-0.192199 0.0904295 0)
(-0.248499 0.0923996 0)
(-0.306609 0.0935008 0)
(-0.366121 0.0942192 0)
(-0.426958 0.0946273 0)
(-0.488831 0.0946412 0)
(-0.550774 0.0943775 0)
(-0.613509 0.0938949 0)
(-0.676288 0.0935224 0)
(-0.73636 0.093875 0)
(-0.79491 0.0935224 0)
(-0.853672 0.0918502 0)
(-0.912532 0.0914478 0)
(-0.969991 0.0904235 0)
(-1.0256 0.0891318 0)
(-1.07994 0.0877162 0)
(-1.13333 0.0863008 0)
(-1.18591 0.0849331 0)
(-1.23775 0.0836288 0)
(-1.28892 0.0823816 0)
(-1.33944 0.0811808 0)
(-1.38933 0.0800099 0)
(-1.43861 0.0788533 0)
(-1.48727 0.0776959 0)
(-1.5353 0.0765238 0)
(-1.58269 0.0753245 0)
(-1.62941 0.0740871 0)
(-1.67543 0.0728017 0)
(-1.72072 0.0714604 0)
(-1.76521 0.0700564 0)
(-1.80888 0.0685843 0)
(-1.85167 0.0670399 0)
(-1.89352 0.0654199 0)
(-1.93438 0.0637223 0)
(-1.9742 0.0619459 0)
(-2.01291 0.0600902 0)
(-2.05047 0.0581558 0)
(-2.0868 0.0561437 0)
(-2.12185 0.054056 0)
(-2.15557 0.0518953 0)
(-2.18789 0.049665 0)
(-2.21878 0.0473692 0)
(-2.24816 0.0450127 0)
(-2.27601 0.0426012 0)
(-2.30227 0.0401407 0)
(-2.3269 0.0376382 0)
(-2.34987 0.0351011 0)
(-2.37114 0.0325375 0)
(-2.39069 0.029956 0)
(-2.40851 0.0273658 0)
(-2.42456 0.0247764 0)
(-2.43885 0.0221977 0)
(-2.45138 0.0196395 0)
(-2.46215 0.017112 0)
(-2.47118 0.0146244 0)
(-2.47847 0.0121857 0)
(-2.48407 0.00980381 0)
(-2.48799 0.00748556 0)
(-2.49027 0.0052359 0)
(-2.49095 0.0030571 0)
(-2.49007 0.000951132 0)
(-2.48766 -0.00106704 0)
(-2.48385 -0.00297384 0)
(-2.47867 -0.00477466 0)
(-2.47216 -0.00649408 0)
(-2.46436 -0.00814893 0)
(-2.45531 -0.00975255 0)
(-2.44501 -0.011317 0)
(-2.43349 -0.0128542 0)
(-2.42074 -0.0143758 0)
(-2.40676 -0.0158935 0)
(-2.39153 -0.0174192 0)
(-2.37503 -0.0189647 0)
(-2.35723 -0.0205415 0)
(-2.33808 -0.0221616 0)
(-2.31752 -0.0238364 0)
(-2.29551 -0.0255775 0)
(-2.27196 -0.0273958 0)
(-2.24681 -0.0293017 0)
(-2.21996 -0.0313046 0)
(-2.19131 -0.0334127 0)
(-2.16077 -0.0356331 0)
(-2.12824 -0.0379719 0)
(-2.09359 -0.0404349 0)
(-2.05671 -0.0430266 0)
(-2.01749 -0.045751 0)
(-1.97579 -0.0486104 0)
(-1.93149 -0.0516052 0)
(-1.88448 -0.0547337 0)
(-1.83461 -0.0579937 0)
(-1.78178 -0.061383 0)
(-1.72587 -0.0648994 0)
(-1.66676 -0.0685387 0)
(-1.60434 -0.0722922 0)
(-1.53851 -0.0761517 0)
(-1.46918 -0.0801135 0)
(-1.39627 -0.0841703 0)
(-1.31969 -0.0883067 0)
(-1.2394 -0.0925168 0)
(-1.15534 -0.0967947 0)
(-1.06748 -0.10112 0)
(-0.975807 -0.105491 0)
(-0.880318 -0.109884 0)
(-0.781036 -0.114276 0)
(-0.677999 -0.118662 0)
(-0.571286 -0.12301 0)
(-0.460942 -0.127357 0)
(-0.34722 -0.131673 0)
(-0.229945 -0.13604 0)
(-0.110111 -0.140391 0)
(0.0146725 -0.144495 0)
(0.139668 -0.148294 0)
(0.265262 -0.15126 0)
(0.392444 -0.151841 0)
(0.518777 -0.150638 0)
(0.644596 -0.148943 0)
(0.769349 -0.146755 0)
(0.892495 -0.144063 0)
(1.01351 -0.140852 0)
(1.1319 -0.137121 0)
(1.24717 -0.132892 0)
(1.35888 -0.128208 0)
(1.46664 -0.123122 0)
(1.5701 -0.117698 0)
(1.66898 -0.112005 0)
(1.76302 -0.10611 0)
(1.85207 -0.100079 0)
(1.93599 -0.0939747 0)
(2.0147 -0.0878523 0)
(2.08817 -0.0817608 0)
(2.15641 -0.075742 0)
(2.21946 -0.0698306 0)
(2.27738 -0.0640544 0)
(2.33025 -0.0584353 0)
(2.3782 -0.0529894 0)
(2.42133 -0.0477278 0)
(2.45978 -0.0426575 0)
(2.49369 -0.0377821 0)
(2.52319 -0.0331023 0)
(2.54844 -0.0286166 0)
(2.56956 -0.0243217 0)
(2.58671 -0.0202132 0)
(2.60004 -0.0162851 0)
(2.60966 -0.0125318 0)
(2.61573 -0.0089492 0)
(2.61838 -0.00553398 0)
(2.61773 -0.00228107 0)
(2.61388 0.000826025 0)
(2.60691 0.00381177 0)
(2.59694 0.00669426 0)
(2.5841 0.009477 0)
(2.5685 0.0121598 0)
(2.55027 0.0147422 0)
(2.52951 0.0172239 0)
(2.50633 0.0196051 0)
(2.48084 0.021886 0)
(2.45316 0.0240666 0)
(2.42341 0.026146 0)
(2.39171 0.028123 0)
(2.35818 0.0299952 0)
(2.32295 0.0317593 0)
(2.28617 0.0334105 0)
(2.24797 0.0349432 0)
(2.20852 0.0363503 0)
(2.16798 0.0376234 0)
(2.12651 0.0387529 0)
(2.08431 0.0397285 0)
(2.04156 0.0405385 0)
(1.99847 0.0411709 0)
(1.95526 0.0416133 0)
(1.91213 0.0418536 0)
(1.86932 0.0418798 0)
(1.82707 0.0416818 0)
(1.78561 0.0412504 0)
(1.74519 0.0405792 0)
(1.70604 0.0396635 0)
(1.6684 0.0385024 0)
(1.63252 0.0370969 0)
(1.59862 0.035452 0)
(1.56692 0.033574 0)
(1.53764 0.0314726 0)
(1.51099 0.0291569 0)
(1.48717 0.026637 0)
(1.46637 0.0239205 0)
(1.44879 0.0210148 0)
(1.43463 0.0179206 0)
(1.4241 0.0146241 0)
(1.41746 0.0110784 0)
(1.415 0.00720213 0)
(1.41722 0.00286309 0)
(1.42451 -0.00207984 0)
(1.43736 -0.00786664 0)
(1.45682 -0.0150826 0)
(1.48508 -0.0250629 0)
(1.52094 -0.0403006 0)
(1.58858 -0.0621821 0)
(-0.0330961 0.0543734 0)
(-0.0657952 0.0989147 0)
(-0.109815 0.125686 0)
(-0.158702 0.1403 0)
(-0.210595 0.148242 0)
(-0.265016 0.152904 0)
(-0.321276 0.156076 0)
(-0.378818 0.158669 0)
(-0.437225 0.161095 0)
(-0.495927 0.163414 0)
(-0.55413 0.165168 0)
(-0.611757 0.165116 0)
(-0.668712 0.163352 0)
(-0.724063 0.16136 0)
(-0.777606 0.157917 0)
(-0.83063 0.152679 0)
(-0.883708 0.148138 0)
(-0.936038 0.144656 0)
(-0.987179 0.141697 0)
(-1.03733 0.139014 0)
(-1.08665 0.136532 0)
(-1.13524 0.134213 0)
(-1.18316 0.132028 0)
(-1.23046 0.129949 0)
(-1.27716 0.127949 0)
(-1.32328 0.125998 0)
(-1.36882 0.124071 0)
(-1.41379 0.122142 0)
(-1.45816 0.12019 0)
(-1.50193 0.118195 0)
(-1.54505 0.116141 0)
(-1.58751 0.114011 0)
(-1.62925 0.111794 0)
(-1.67025 0.109478 0)
(-1.71044 0.107057 0)
(-1.7498 0.104523 0)
(-1.78825 0.101871 0)
(-1.82575 0.0990994 0)
(-1.86225 0.0962053 0)
(-1.8977 0.0931887 0)
(-1.93202 0.0900503 0)
(-1.96517 0.0867921 0)
(-1.9971 0.0834174 0)
(-2.02775 0.0799304 0)
(-2.05706 0.0763366 0)
(-2.08499 0.0726424 0)
(-2.11148 0.0688556 0)
(-2.13649 0.0649849 0)
(-2.15998 0.06104 0)
(-2.1819 0.0570316 0)
(-2.20223 0.0529715 0)
(-2.22092 0.0488721 0)
(-2.23796 0.044747 0)
(-2.25332 0.0406102 0)
(-2.26699 0.0364766 0)
(-2.27895 0.0323614 0)
(-2.28921 0.02828 0)
(-2.29777 0.0242476 0)
(-2.30463 0.0202789 0)
(-2.30981 0.0163874 0)
(-2.31334 0.0125851 0)
(-2.31523 0.00888225 0)
(-2.31553 0.00528622 0)
(-2.31426 0.0018013 0)
(-2.31144 -0.00155786 0)
(-2.30721 -0.00475504 0)
(-2.3016 -0.00778033 0)
(-2.29464 -0.0106599 0)
(-2.28638 -0.0134211 0)
(-2.27685 -0.0160863 0)
(-2.26607 -0.018676 0)
(-2.25406 -0.0212092 0)
(-2.24083 -0.023705 0)
(-2.22638 -0.0261821 0)
(-2.21071 -0.0286596 0)
(-2.19378 -0.0311562 0)
(-2.17558 -0.0336906 0)
(-2.15607 -0.0362811 0)
(-2.13521 -0.0389462 0)
(-2.11293 -0.0417043 0)
(-2.0892 -0.0445732 0)
(-2.06392 -0.0475701 0)
(-2.03702 -0.0507109 0)
(-2.00841 -0.0540104 0)
(-1.978 -0.0574809 0)
(-1.94569 -0.0611328 0)
(-1.91137 -0.0649751 0)
(-1.87492 -0.0690156 0)
(-1.83624 -0.0732609 0)
(-1.7952 -0.0777158 0)
(-1.75168 -0.0823832 0)
(-1.70556 -0.087262 0)
(-1.6567 -0.0923475 0)
(-1.60499 -0.0976336 0)
(-1.55032 -0.103114 0)
(-1.49255 -0.108783 0)
(-1.43158 -0.114631 0)
(-1.3673 -0.12064 0)
(-1.29962 -0.12679 0)
(-1.22844 -0.133072 0)
(-1.15369 -0.13947 0)
(-1.07531 -0.14595 0)
(-0.993241 -0.152494 0)
(-0.907449 -0.159086 0)
(-0.817928 -0.165681 0)
(-0.724671 -0.172266 0)
(-0.627707 -0.178796 0)
(-0.527088 -0.185226 0)
(-0.422868 -0.191554 0)
(-0.315223 -0.197713 0)
(-0.20409 -0.203746 0)
(-0.0900882 -0.209541 0)
(0.0277487 -0.214986 0)
(0.146746 -0.219914 0)
(0.267732 -0.223937 0)
(0.389424 -0.22701 0)
(0.511471 -0.229056 0)
(0.633852 -0.229502 0)
(0.755982 -0.228558 0)
(0.877421 -0.226643 0)
(0.997553 -0.223812 0)
(1.11581 -0.220068 0)
(1.23166 -0.215419 0)
(1.34462 -0.209894 0)
(1.45423 -0.203546 0)
(1.56008 -0.196454 0)
(1.66181 -0.188708 0)
(1.75911 -0.180413 0)
(1.85174 -0.171676 0)
(1.93948 -0.162604 0)
(2.02219 -0.1533 0)
(2.09977 -0.14386 0)
(2.17217 -0.13437 0)
(2.23937 -0.124908 0)
(2.3014 -0.115537 0)
(2.3583 -0.106313 0)
(2.41015 -0.0972798 0)
(2.45704 -0.0884729 0)
(2.4991 -0.0799186 0)
(2.53644 -0.0716357 0)
(2.5692 -0.0636368 0)
(2.59751 -0.0559293 0)
(2.62153 -0.0485161 0)
(2.64139 -0.0413967 0)
(2.65724 -0.0345682 0)
(2.66924 -0.0280249 0)
(2.67752 -0.02176 0)
(2.68222 -0.0157672 0)
(2.6835 -0.0100409 0)
(2.68147 -0.00457051 0)
(2.67629 0.000666389 0)
(2.66802 0.00568724 0)
(2.65681 0.0105037 0)
(2.64279 0.0151227 0)
(2.62611 0.0195492 0)
(2.6069 0.023786 0)
(2.58528 0.027835 0)
(2.5614 0.0316975 0)
(2.53538 0.0353738 0)
(2.50736 0.0388638 0)
(2.47747 0.0421662 0)
(2.44586 0.0452787 0)
(2.41266 0.0481978 0)
(2.37803 0.0509186 0)
(2.34211 0.0534345 0)
(2.30506 0.0557376 0)
(2.26705 0.0578186 0)
(2.22825 0.0596665 0)
(2.18884 0.0612691 0)
(2.14899 0.0626132 0)
(2.10891 0.0636847 0)
(2.06877 0.0644689 0)
(2.02879 0.0649513 0)
(1.98916 0.0651175 0)
(1.9501 0.0649546 0)
(1.91181 0.0644507 0)
(1.8745 0.0635968 0)
(1.83838 0.062386 0)
(1.80365 0.0608152 0)
(1.77051 0.0588843 0)
(1.73917 0.0565976 0)
(1.70981 0.0539619 0)
(1.68261 0.0509887 0)
(1.65776 0.0476906 0)
(1.63543 0.0440831 0)
(1.61578 0.0401803 0)
(1.59898 0.0359964 0)
(1.58519 0.0315419 0)
(1.57458 0.0268235 0)
(1.56733 0.021833 0)
(1.56361 0.0165358 0)
(1.56368 0.0108599 0)
(1.56782 0.00471034 0)
(1.57637 -0.00202647 0)
(1.58946 -0.00953257 0)
(1.6077 -0.0182329 0)
(1.63172 -0.0288766 0)
(1.66299 -0.0428729 0)
(1.69842 -0.0617282 0)
(1.7557 -0.0852776 0)
(-0.0371145 0.103663 0)
(-0.0742977 0.147249 0)
(-0.120513 0.175036 0)
(-0.169523 0.192131 0)
(-0.220091 0.2025 0)
(-0.272365 0.208972 0)
(-0.325935 0.213271 0)
(-0.380259 0.216334 0)
(-0.434826 0.218584 0)
(-0.489075 0.220067 0)
(-0.54243 0.220452 0)
(-0.594696 0.219146 0)
(-0.645984 0.21627 0)
(-0.696162 0.212696 0)
(-0.745172 0.208282 0)
(-0.793542 0.202968 0)
(-0.841606 0.197811 0)
(-0.889111 0.193305 0)
(-0.935846 0.189299 0)
(-0.981843 0.185659 0)
(-1.02716 0.182308 0)
(-1.07186 0.179189 0)
(-1.11597 0.176256 0)
(-1.15954 0.173463 0)
(-1.20256 0.170771 0)
(-1.24507 0.168141 0)
(-1.28705 0.165538 0)
(-1.32849 0.162928 0)
(-1.36938 0.160282 0)
(-1.4097 0.157575 0)
(-1.44942 0.154784 0)
(-1.4885 0.15189 0)
(-1.5269 0.148876 0)
(-1.56459 0.145728 0)
(-1.60151 0.142436 0)
(-1.63763 0.138991 0)
(-1.67288 0.135388 0)
(-1.70722 0.131622 0)
(-1.7406 0.127692 0)
(-1.77296 0.123596 0)
(-1.80424 0.119336 0)
(-1.8344 0.114914 0)
(-1.86337 0.110336 0)
(-1.89112 0.105605 0)
(-1.91758 0.100731 0)
(-1.94271 0.0957206 0)
(-1.96645 0.0905848 0)
(-1.98877 0.085335 0)
(-2.00961 0.0799842 0)
(-2.02895 0.0745466 0)
(-2.04675 0.0690378 0)
(-2.06297 0.0634744 0)
(-2.07758 0.0578744 0)
(-2.09058 0.0522567 0)
(-2.10193 0.0466409 0)
(-2.11163 0.0410474 0)
(-2.11968 0.035497 0)
(-2.12607 0.0300102 0)
(-2.13082 0.0246067 0)
(-2.13394 0.019305 0)
(-2.13544 0.0141211 0)
(-2.13535 0.00906844 0)
(-2.13371 0.00415701 0)
(-2.13052 -0.000599619 0)
(-2.12589 -0.00516046 0)
(-2.11989 -0.00949442 0)
(-2.11256 -0.013616 0)
(-2.10391 -0.0175542 0)
(-2.09401 -0.0213389 0)
(-2.08286 -0.0249983 0)
(-2.07051 -0.0285592 0)
(-2.05695 -0.0320476 0)
(-2.0422 -0.0354895 0)
(-2.02625 -0.0389106 0)
(-2.0091 -0.0423372 0)
(-1.99073 -0.0457948 0)
(-1.97111 -0.0493088 0)
(-1.9502 -0.0529043 0)
(-1.92796 -0.0566065 0)
(-1.90434 -0.0604402 0)
(-1.87927 -0.0644299 0)
(-1.85269 -0.068599 0)
(-1.82451 -0.0729696 0)
(-1.79465 -0.0775617 0)
(-1.76302 -0.0823926 0)
(-1.7295 -0.087476 0)
(-1.69401 -0.092824 0)
(-1.65642 -0.098447 0)
(-1.61662 -0.104354 0)
(-1.57449 -0.110552 0)
(-1.52992 -0.117046 0)
(-1.48277 -0.123833 0)
(-1.43292 -0.130907 0)
(-1.38025 -0.138258 0)
(-1.32464 -0.145877 0)
(-1.26598 -0.153756 0)
(-1.20414 -0.161882 0)
(-1.13903 -0.170229 0)
(-1.07054 -0.178766 0)
(-0.998607 -0.187477 0)
(-0.923132 -0.196342 0)
(-0.844062 -0.205309 0)
(-0.761361 -0.214342 0)
(-0.674986 -0.223429 0)
(-0.584953 -0.23249 0)
(-0.491258 -0.241506 0)
(-0.39396 -0.250428 0)
(-0.293147 -0.259174 0)
(-0.188822 -0.267765 0)
(-0.0814232 -0.276067 0)
(0.0296585 -0.284006 0)
(0.142595 -0.291367 0)
(0.257757 -0.297929 0)
(0.374286 -0.303538 0)
(0.492042 -0.308003 0)
(0.610361 -0.311189 0)
(0.728793 -0.312924 0)
(0.84712 -0.312902 0)
(0.964997 -0.311266 0)
(1.08191 -0.308248 0)
(1.19726 -0.303923 0)
(1.31049 -0.298324 0)
(1.42108 -0.29149 0)
(1.52855 -0.283482 0)
(1.63247 -0.274388 0)
(1.73246 -0.264321 0)
(1.82819 -0.253409 0)
(1.91939 -0.241794 0)
(2.00583 -0.229619 0)
(2.08734 -0.21703 0)
(2.1638 -0.20416 0)
(2.23514 -0.191138 0)
(2.30133 -0.178077 0)
(2.36236 -0.165077 0)
(2.41829 -0.152223 0)
(2.46916 -0.139586 0)
(2.51509 -0.127223 0)
(2.55616 -0.115181 0)
(2.5925 -0.103493 0)
(2.62425 -0.0921827 0)
(2.65154 -0.0812671 0)
(2.67451 -0.0707552 0)
(2.69333 -0.0606508 0)
(2.70814 -0.0509532 0)
(2.71909 -0.0416581 0)
(2.72634 -0.0327583 0)
(2.73003 -0.0242459 0)
(2.73032 -0.0161137 0)
(2.72735 -0.00835103 0)
(2.72127 -0.000934286 0)
(2.7122 0.00615824 0)
(2.70027 0.012939 0)
(2.68563 0.019416 0)
(2.66843 0.0255969 0)
(2.64882 0.031488 0)
(2.62694 0.0370938 0)
(2.60295 0.0424175 0)
(2.57699 0.0474609 0)
(2.54921 0.0522248 0)
(2.51976 0.0567088 0)
(2.48878 0.0609112 0)
(2.45642 0.0648288 0)
(2.42286 0.0684569 0)
(2.38823 0.0717888 0)
(2.35271 0.0748166 0)
(2.31646 0.0775305 0)
(2.27965 0.0799191 0)
(2.24246 0.0819697 0)
(2.20506 0.0836683 0)
(2.16764 0.0850002 0)
(2.13038 0.0859502 0)
(2.09346 0.0865027 0)
(2.05708 0.0866432 0)
(2.02141 0.0863576 0)
(1.98665 0.0856339 0)
(1.95298 0.0844622 0)
(1.92058 0.0828357 0)
(1.88964 0.0807504 0)
(1.86032 0.0782068 0)
(1.83279 0.0752086 0)
(1.80721 0.0717642 0)
(1.78374 0.067885 0)
(1.76254 0.0635864 0)
(1.74374 0.0588851 0)
(1.72749 0.0537993 0)
(1.71393 0.0483459 0)
(1.70319 0.0425407 0)
(1.69542 0.0363947 0)
(1.69075 0.0299099 0)
(1.68935 0.0230644 0)
(1.69138 0.0158066 0)
(1.69706 0.00805942 0)
(1.70667 -0.000255943 0)
(1.72019 -0.009254 0)
(1.73794 -0.0192047 0)
(1.76034 -0.0306162 0)
(1.78771 -0.0442574 0)
(1.821 -0.0613796 0)
(1.85616 -0.0825514 0)
(1.90927 -0.106001 0)
(-0.0381107 0.155963 0)
(-0.0775424 0.197093 0)
(-0.124919 0.22391 0)
(-0.1736 0.241702 0)
(-0.222599 0.253269 0)
(-0.272368 0.260739 0)
(-0.32272 0.265559 0)
(-0.373228 0.268576 0)
(-0.423451 0.270212 0)
(-0.472961 0.270593 0)
(-0.521406 0.269624 0)
(-0.56869 0.267124 0)
(-0.614958 0.263253 0)
(-0.660302 0.258548 0)
(-0.704804 0.253231 0)
(-0.748742 0.247484 0)
(-0.792301 0.241833 0)
(-0.835393 0.236614 0)
(-0.877914 0.231836 0)
(-0.91986 0.227446 0)
(-0.961255 0.223385 0)
(-1.00213 0.219596 0)
(-1.0425 0.216022 0)
(-1.08238 0.21261 0)
(-1.12179 0.209312 0)
(-1.16073 0.20608 0)
(-1.19919 0.202871 0)
(-1.23715 0.199646 0)
(-1.2746 0.196369 0)
(-1.3115 0.19301 0)
(-1.34783 0.189542 0)
(-1.38356 0.18594 0)
(-1.41863 0.182186 0)
(-1.45302 0.178263 0)
(-1.48667 0.174158 0)
(-1.51954 0.169863 0)
(-1.55157 0.165368 0)
(-1.58272 0.160671 0)
(-1.61294 0.155768 0)
(-1.64217 0.150659 0)
(-1.67037 0.145345 0)
(-1.69747 0.13983 0)
(-1.72343 0.134119 0)
(-1.74819 0.128218 0)
(-1.77171 0.122138 0)
(-1.79394 0.115887 0)
(-1.81483 0.10948 0)
(-1.83434 0.102929 0)
(-1.85242 0.0962508 0)
(-1.86904 0.0894632 0)
(-1.88416 0.082585 0)
(-1.89776 0.0756368 0)
(-1.9098 0.0686406 0)
(-1.92026 0.0616198 0)
(-1.92913 0.0545987 0)
(-1.9364 0.0476025 0)
(-1.94205 0.0406572 0)
(-1.9461 0.0337884 0)
(-1.94855 0.0270211 0)
(-1.94941 0.0203784 0)
(-1.9487 0.0138807 0)
(-1.94645 0.00754395 0)
(-1.94269 0.00138241 0)
(-1.93744 -0.00456186 0)
(-1.93087 -0.0102357 0)
(-1.92297 -0.0156359 0)
(-1.91379 -0.020789 0)
(-1.90336 -0.0257247 0)
(-1.89171 -0.0304756 0)
(-1.87888 -0.0350743 0)
(-1.86488 -0.0395535 0)
(-1.84973 -0.0439453 0)
(-1.83343 -0.0482823 0)
(-1.81598 -0.0525972 0)
(-1.79737 -0.0569228 0)
(-1.77759 -0.0612915 0)
(-1.7566 -0.0657352 0)
(-1.73438 -0.070285 0)
(-1.71087 -0.0749724 0)
(-1.68602 -0.0798288 0)
(-1.65979 -0.0848848 0)
(-1.63208 -0.09017 0)
(-1.60284 -0.0957124 0)
(-1.57197 -0.101537 0)
(-1.53937 -0.107667 0)
(-1.50495 -0.114118 0)
(-1.46861 -0.120906 0)
(-1.43024 -0.128043 0)
(-1.38971 -0.135541 0)
(-1.34693 -0.143408 0)
(-1.30175 -0.151652 0)
(-1.25406 -0.160272 0)
(-1.20374 -0.169256 0)
(-1.15066 -0.178592 0)
(-1.0947 -0.188267 0)
(-1.03576 -0.198274 0)
(-0.973705 -0.208597 0)
(-0.90843 -0.219199 0)
(-0.839846 -0.230037 0)
(-0.767872 -0.241091 0)
(-0.692414 -0.252339 0)
(-0.61342 -0.263705 0)
(-0.530861 -0.275135 0)
(-0.444674 -0.286625 0)
(-0.354925 -0.298065 0)
(-0.261571 -0.309414 0)
(-0.164718 -0.320639 0)
(-0.0645394 -0.331595 0)
(0.0392963 -0.342231 0)
(0.145463 -0.352319 0)
(0.254245 -0.361679 0)
(0.364976 -0.370143 0)
(0.477436 -0.377554 0)
(0.591114 -0.38371 0)
(0.705661 -0.388424 0)
(0.820574 -0.391545 0)
(0.935397 -0.392884 0)
(1.04981 -0.39225 0)
(1.16347 -0.389723 0)
(1.27586 -0.385439 0)
(1.38642 -0.37948 0)
(1.49462 -0.371905 0)
(1.59996 -0.362784 0)
(1.70197 -0.352213 0)
(1.80025 -0.340314 0)
(1.89445 -0.327237 0)
(1.98427 -0.313147 0)
(2.06944 -0.298222 0)
(2.14979 -0.282644 0)
(2.22517 -0.266589 0)
(2.29548 -0.250225 0)
(2.36068 -0.233708 0)
(2.42077 -0.217175 0)
(2.47575 -0.200748 0)
(2.5257 -0.184531 0)
(2.5707 -0.168609 0)
(2.61084 -0.153052 0)
(2.64625 -0.137914 0)
(2.67705 -0.123234 0)
(2.7034 -0.109043 0)
(2.72544 -0.0953589 0)
(2.74333 -0.0821927 0)
(2.75722 -0.0695488 0)
(2.76726 -0.0574262 0)
(2.77363 -0.0458193 0)
(2.77649 -0.0347199 0)
(2.77598 -0.0241202 0)
(2.77227 -0.0140107 0)
(2.76552 -0.00437047 0)
(2.75587 0.00483097 0)
(2.74345 0.0136081 0)
(2.72842 0.0219694 0)
(2.71095 0.0299228 0)
(2.69119 0.037477 0)
(2.6693 0.0446396 0)
(2.64545 0.0514166 0)
(2.61978 0.0578124 0)
(2.59246 0.0638299 0)
(2.56365 0.0694706 0)
(2.53349 0.0747343 0)
(2.50216 0.0796192 0)
(2.4698 0.0841219 0)
(2.43658 0.088237 0)
(2.40267 0.0919575 0)
(2.36822 0.0952746 0)
(2.33341 0.0981779 0)
(2.29841 0.100655 0)
(2.26338 0.102694 0)
(2.22851 0.10428 0)
(2.19395 0.105398 0)
(2.15989 0.106033 0)
(2.1265 0.106173 0)
(2.09394 0.105802 0)
(2.06239 0.104909 0)
(2.03201 0.103486 0)
(2.00295 0.101524 0)
(1.97539 0.0990203 0)
(1.94946 0.0959749 0)
(1.92531 0.092392 0)
(1.90308 0.0882793 0)
(1.88291 0.0836491 0)
(1.86492 0.0785166 0)
(1.84924 0.0729005 0)
(1.83598 0.0668202 0)
(1.82527 0.0602959 0)
(1.81721 0.0533459 0)
(1.81193 0.0459873 0)
(1.80955 0.0382288 0)
(1.81018 0.0300639 0)
(1.81397 0.0214577 0)
(1.82108 0.0123549 0)
(1.83172 0.00270085 0)
(1.84588 -0.0075591 0)
(1.86367 -0.0185878 0)
(1.88532 -0.0307095 0)
(1.91114 -0.0444473 0)
(1.94116 -0.0605038 0)
(1.97604 -0.0798689 0)
(2.01124 -0.102294 0)
(2.06293 -0.12521 0)
(-0.0376156 0.208125 0)
(-0.077704 0.246575 0)
(-0.12509 0.271577 0)
(-0.172699 0.288913 0)
(-0.219692 0.300638 0)
(-0.266618 0.30829 0)
(-0.313453 0.313013 0)
(-0.359919 0.315542 0)
(-0.405712 0.3163 0)
(-0.450564 0.315505 0)
(-0.494302 0.313249 0)
(-0.536925 0.309599 0)
(-0.578586 0.304779 0)
(-0.619437 0.299188 0)
(-0.659606 0.293122 0)
(-0.699276 0.286838 0)
(-0.738567 0.280681 0)
(-0.777455 0.274884 0)
(-0.815891 0.2695 0)
(-0.853866 0.264509 0)
(-0.891387 0.259865 0)
(-0.928467 0.255511 0)
(-0.965115 0.251389 0)
(-1.00134 0.24744 0)
(-1.03713 0.243609 0)
(-1.0725 0.239841 0)
(-1.10742 0.236087 0)
(-1.14187 0.232304 0)
(-1.17584 0.228449 0)
(-1.20929 0.224489 0)
(-1.24218 0.220392 0)
(-1.27449 0.216132 0)
(-1.30617 0.211686 0)
(-1.33717 0.207037 0)
(-1.36746 0.20217 0)
(-1.39698 0.197074 0)
(-1.42569 0.191742 0)
(-1.45354 0.186168 0)
(-1.48047 0.180349 0)
(-1.50644 0.174286 0)
(-1.5314 0.167979 0)
(-1.55529 0.161434 0)
(-1.57806 0.154657 0)
(-1.59968 0.147654 0)
(-1.62008 0.140437 0)
(-1.63923 0.133018 0)
(-1.65707 0.125412 0)
(-1.67356 0.117635 0)
(-1.68867 0.109705 0)
(-1.70235 0.101645 0)
(-1.71458 0.0934751 0)
(-1.72532 0.0852206 0)
(-1.73455 0.0769071 0)
(-1.74224 0.0685623 0)
(-1.74838 0.0602147 0)
(-1.75297 0.0518945 0)
(-1.75598 0.0436325 0)
(-1.75744 0.0354596 0)
(-1.75734 0.0274059 0)
(-1.75569 0.0194991 0)
(-1.75253 0.0117635 0)
(-1.74788 0.00421816 0)
(-1.74174 -0.00309962 0)
(-1.7343 -0.010119 0)
(-1.72557 -0.0168103 0)
(-1.71559 -0.0231951 0)
(-1.7044 -0.0293003 0)
(-1.69202 -0.0351568 0)
(-1.6785 -0.0407998 0)
(-1.66384 -0.046266 0)
(-1.64809 -0.0515928 0)
(-1.63124 -0.0568182 0)
(-1.6133 -0.0619808 0)
(-1.59428 -0.0671198 0)
(-1.57417 -0.0722745 0)
(-1.55294 -0.0774841 0)
(-1.53057 -0.0827862 0)
(-1.50704 -0.0882178 0)
(-1.48228 -0.0938166 0)
(-1.45627 -0.0996198 0)
(-1.42893 -0.105664 0)
(-1.40019 -0.111985 0)
(-1.37 -0.118617 0)
(-1.33825 -0.12559 0)
(-1.30486 -0.132931 0)
(-1.26973 -0.14066 0)
(-1.23276 -0.148794 0)
(-1.19384 -0.157348 0)
(-1.15287 -0.166337 0)
(-1.10971 -0.175772 0)
(-1.06427 -0.185662 0)
(-1.0164 -0.196008 0)
(-0.965995 -0.206794 0)
(-0.91292 -0.218004 0)
(-0.857066 -0.229623 0)
(-0.79832 -0.241642 0)
(-0.736556 -0.254049 0)
(-0.671658 -0.266794 0)
(-0.603539 -0.279817 0)
(-0.532119 -0.293096 0)
(-0.457286 -0.306613 0)
(-0.379008 -0.320266 0)
(-0.29725 -0.333977 0)
(-0.211885 -0.347756 0)
(-0.123119 -0.36148 0)
(-0.0307692 -0.375043 0)
(0.0650131 -0.388363 0)
(0.163634 -0.401239 0)
(0.265176 -0.413503 0)
(0.369147 -0.424988 0)
(0.475363 -0.435527 0)
(0.583405 -0.444912 0)
(0.692929 -0.452966 0)
(0.803501 -0.459481 0)
(0.91472 -0.464267 0)
(1.02612 -0.467162 0)
(1.13725 -0.467991 0)
(1.24774 -0.466613 0)
(1.35717 -0.463056 0)
(1.46505 -0.457404 0)
(1.57087 -0.449734 0)
(1.67409 -0.440126 0)
(1.77423 -0.428679 0)
(1.87087 -0.415524 0)
(1.9636 -0.400819 0)
(2.0521 -0.38475 0)
(2.13609 -0.36752 0)
(2.21536 -0.349345 0)
(2.28972 -0.33044 0)
(2.35908 -0.311014 0)
(2.42337 -0.291267 0)
(2.48256 -0.271378 0)
(2.53667 -0.25151 0)
(2.58574 -0.231804 0)
(2.62986 -0.212379 0)
(2.66913 -0.193334 0)
(2.70365 -0.174749 0)
(2.73358 -0.156686 0)
(2.75905 -0.13919 0)
(2.78021 -0.122294 0)
(2.79723 -0.10602 0)
(2.81027 -0.0903799 0)
(2.81949 -0.0753782 0)
(2.82508 -0.0610133 0)
(2.82718 -0.0472787 0)
(2.82598 -0.0341663 0)
(2.82164 -0.0216683 0)
(2.81433 -0.00976924 0)
(2.80422 0.00156608 0)
(2.79143 0.01236 0)
(2.77614 0.0226231 0)
(2.75851 0.0323625 0)
(2.73872 0.0415876 0)
(2.71694 0.0503081 0)
(2.69333 0.0585333 0)
(2.66805 0.066271 0)
(2.64129 0.073527 0)
(2.61319 0.0803057 0)
(2.58392 0.0866096 0)
(2.55364 0.0924394 0)
(2.52252 0.0977938 0)
(2.49071 0.10267 0)
(2.45838 0.107063 0)
(2.42569 0.110965 0)
(2.39281 0.114369 0)
(2.3599 0.117265 0)
(2.32713 0.119641 0)
(2.29464 0.121484 0)
(2.26262 0.122782 0)
(2.23121 0.123523 0)
(2.20058 0.123692 0)
(2.17089 0.123278 0)
(2.14227 0.12227 0)
(2.11489 0.12066 0)
(2.08888 0.118441 0)
(2.06438 0.11561 0)
(2.04152 0.112167 0)
(2.02043 0.108116 0)
(2.00122 0.103465 0)
(1.98402 0.0982262 0)
(1.96893 0.0924145 0)
(1.95605 0.0860484 0)
(1.94549 0.0791492 0)
(1.93734 0.0717378 0)
(1.93171 0.063836 0)
(1.92869 0.0554633 0)
(1.92837 0.0466364 0)
(1.93087 0.0373589 0)
(1.93629 0.0276136 0)
(1.94474 0.0173608 0)
(1.9564 0.00656584 0)
(1.97132 -0.00479056 0)
(1.98942 -0.0167772 0)
(2.01088 -0.0296079 0)
(2.03584 -0.0436178 0)
(2.0645 -0.0593089 0)
(2.09669 -0.0772771 0)
(2.13292 -0.0982462 0)
(2.16835 -0.121342 0)
(2.21987 -0.143698 0)
(-0.0362694 0.258429 0)
(-0.0758867 0.294334 0)
(-0.122308 0.317153 0)
(-0.168154 0.333297 0)
(-0.212715 0.344394 0)
(-0.25654 0.351556 0)
(-0.299712 0.355669 0)
(-0.342099 0.357368 0)
(-0.383538 0.357081 0)
(-0.423905 0.3551 0)
(-0.463153 0.351646 0)
(-0.501351 0.346926 0)
(-0.538657 0.341218 0)
(-0.575234 0.334865 0)
(-0.61122 0.328168 0)
(-0.646754 0.321382 0)
(-0.681927 0.314766 0)
(-0.716743 0.308491 0)
(-0.751186 0.302615 0)
(-0.785248 0.297133 0)
(-0.81893 0.292003 0)
(-0.852235 0.287173 0)
(-0.885162 0.28258 0)
(-0.917709 0.278162 0)
(-0.949867 0.273857 0)
(-0.981624 0.269607 0)
(-1.01296 0.265357 0)
(-1.04385 0.26106 0)
(-1.07427 0.256669 0)
(-1.10418 0.252148 0)
(-1.13354 0.247461 0)
(-1.16233 0.24258 0)
(-1.1905 0.237481 0)
(-1.218 0.232145 0)
(-1.24478 0.226555 0)
(-1.27082 0.2207 0)
(-1.29604 0.214572 0)
(-1.32042 0.208166 0)
(-1.34389 0.201478 0)
(-1.36642 0.19451 0)
(-1.38794 0.187263 0)
(-1.40843 0.179742 0)
(-1.42782 0.171954 0)
(-1.44607 0.163908 0)
(-1.46313 0.155616 0)
(-1.47896 0.147091 0)
(-1.49352 0.138351 0)
(-1.50676 0.129414 0)
(-1.51864 0.120301 0)
(-1.52914 0.111037 0)
(-1.53822 0.101647 0)
(-1.54585 0.0921577 0)
(-1.552 0.0825996 0)
(-1.55666 0.073004 0)
(-1.55981 0.063404 0)
(-1.56144 0.0538339 0)
(-1.56155 0.0443298 0)
(-1.56015 0.034928 0)
(-1.55723 0.0256635 0)
(-1.55282 0.0165684 0)
(-1.54695 0.00766981 0)
(-1.53962 -0.000996203 0)
(-1.53097 -0.00934998 0)
(-1.52111 -0.0173325 0)
(-1.51003 -0.0249524 0)
(-1.49779 -0.0322353 0)
(-1.48441 -0.0392084 0)
(-1.46992 -0.0459038 0)
(-1.45436 -0.0523588 0)
(-1.43774 -0.0586137 0)
(-1.42009 -0.0647103 0)
(-1.40143 -0.0706918 0)
(-1.38176 -0.0766024 0)
(-1.36107 -0.0824873 0)
(-1.33937 -0.0883925 0)
(-1.31664 -0.0943636 0)
(-1.29285 -0.100444 0)
(-1.26797 -0.106675 0)
(-1.24196 -0.113101 0)
(-1.21477 -0.119765 0)
(-1.18635 -0.12671 0)
(-1.15664 -0.133976 0)
(-1.12555 -0.141603 0)
(-1.09301 -0.149628 0)
(-1.05892 -0.158082 0)
(-1.0232 -0.166987 0)
(-0.985746 -0.176363 0)
(-0.946451 -0.186227 0)