/*--------------------------------*- C++ -*----------------------------------*\
  =========                 |
  \\      /  F ield         | OpenFOAM: The Open Source CFD Toolbox
   \\    /   O peration     | Website:  https://openfoam.org
    \\  /    A nd           | Version:  7
     \\/     M anipulation  |
\*---------------------------------------------------------------------------*/
FoamFile
{
    version     2.0;
    format      ascii;
    class       volScalarField;
    location    "10";
    object      p;
}
// * * * * * * * * * * * * * * * * * * * * * * * * * * * * * * * * * * * * * //

dimensions      [0 2 -2 0 0 0 0];

internalField   nonuniform List<scalar> 
900
(
-1.51453e-06
-0.000356403
-0.00094048
-0.00157329
-0.00214247
-0.0025825
-0.00285927
-0.00295591
-0.00286203
-0.00256901
-0.00206974
-0.00136113
-0.000448256
0.000651193
0.00190317
0.00325518
0.00463652
0.005962
0.00713877
0.00807624
0.00869792
0.00895353
0.00882904
0.0083528
0.00759638
0.00666805
0.00570373
0.00486248
0.00431023
0.00417216
0.000348647
-1.93654e-05
-0.000467418
-0.00093416
-0.00135335
-0.00167787
-0.00188102
-0.00194692
-0.00186398
-0.00162254
-0.00121499
-0.000637753
0.000105648
0.00100115
0.00202107
0.00312225
0.00424847
0.00532916
0.00628855
0.00705297
0.0075608
0.00777265
0.00767953
0.00730729
0.00671619
0.00599577
0.00525472
0.00459504
0.00415719
0.00403163
0.000955087
0.000412685
-5.07692e-05
-0.000469993
-0.000830943
-0.00110567
-0.00127886
-0.00134075
-0.00128189
-0.00109239
-0.000762885
-0.00028683
0.000336403
0.00109804
0.00197682
0.00293758
0.00392955
0.00488992
0.00574882
0.00643704
0.0068958
0.00708679
0.00700029
0.0066593
0.00611849
0.00545784
0.00477212
0.0041567
0.00370721
0.00349525
0.00163786
0.000857207
0.000312177
-0.000118692
-0.000470267
-0.000733476
-0.000906003
-0.000986232
-0.000968012
-0.00084114
-0.00059338
-0.000213385
0.000305616
0.000961765
0.00174082
0.00261355
0.00353403
0.00444205
0.00526774
0.00593943
0.006394
0.00658777
0.00650565
0.006166
0.00561955
0.00494222
0.00422433
0.00355856
0.00301997
0.00264413
0.00224761
0.00121048
0.000560034
9.0581e-05
-0.00027892
-0.000556797
-0.000753249
-0.000874539
-0.000917357
-0.000870407
-0.000717388
-0.000440668
-2.57315e-05
0.000533923
0.00123199
0.00204546
0.00293289
0.00383448
0.00467718
0.00538255
0.00587789
0.00610866
0.00604942
0.00571042
0.00513745
0.00440447
0.00360294
0.00282941
0.00214836
0.00155622
0.00265892
0.00136793
0.000603038
7.83349e-05
-0.000330301
-0.000646886
-0.000892714
-0.00108065
-0.00120905
-0.00126432
-0.00122475
-0.00106491
-0.000760886
-0.000296167
0.000332379
0.00110916
0.00199745
0.00293715
0.00385011
0.00464748
0.00524186
0.00556158
0.00556435
0.00524681
0.00464666
0.0038363
0.00291279
0.00198461
0.00111389
0.000264315
0.00276141
0.0012328
0.000353966
-0.000235759
-0.000700405
-0.00107813
-0.00139969
-0.00168294
-0.00192646
-0.00211299
-0.00221398
-0.00219459
-0.00201964
-0.00166044
-0.00110208
-0.000350478
0.000564607
0.00158351
0.00262249
0.00357964
0.0043477
0.0048305
0.00496025
0.00471163
0.00410817
0.00321873
0.00214924
0.0010282
-7.52879e-05
-0.00122566
0.00245743
0.000716116
-0.000270052
-0.000930176
-0.00146506
-0.00192577
-0.00235102
-0.0027621
-0.00315647
-0.00351193
-0.00379173
-0.00394996
-0.00393798
-0.00371212
-0.00324227
-0.00252085
-0.00156587
-0.000434188
0.000786517
0.00198016
0.00301488
0.00376158
0.00411564
0.00401756
0.00346639
0.00252179
0.00129969
-4.34248e-05
-0.00142227
-0.00292668
0.00166058
-0.000262238
-0.00134568
-0.00207971
-0.00269848
-0.00326491
-0.00382446
-0.00440069
-0.00498892
-0.00556108
-0.00607111
-0.00646042
-0.00666457
-0.00662148
-0.00628092
-0.00561511
-0.00462783
-0.00336368
-0.00191059
-0.000397839
0.00101472
0.00215609
0.00287083
0.00304821
0.00264642
0.00170457
0.000345992
-0.00123762
-0.00293539
-0.00486168
0.000297213
-0.00177062
-0.00293926
-0.00375029
-0.00446712
-0.00516367
-0.00589127
-0.00667501
-0.00750765
-0.0083549
-0.00916072
-0.00985256
-0.0103478
-0.0105621
-0.0104195
-0.009864
-0.00887901
-0.0074853
-0.00576343
-0.00385097
-0.00193626
-0.000240002
0.00101562
0.00164643
0.00154537
0.000710935
-0.000735302
-0.00256146
-0.00462141
-0.00705409
-0.00169027
-0.00386203
-0.00510239
-0.00599352
-0.00682319
-0.00767556
-0.00860728
-0.00964489
-0.0107788
-0.0119688
-0.013149
-0.0142321
-0.0151154
-0.0156885
-0.0158442
-0.015492
-0.0145761
-0.0130889
-0.0110892
-0.00871242
-0.00617029
-0.00373722
-0.00171748
-0.000395287
2.34549e-05
-0.000535724
-0.00197323
-0.00401761
-0.0064781
-0.00951831
-0.00433942
-0.00657045
-0.00786787
-0.00884167
-0.00979843
-0.0108318
-0.0120037
-0.0133425
-0.0148372
-0.016443
-0.0180848
-0.0196609
-0.0210472
-0.0221043
-0.0226883
-0.0226651
-0.0219299
-0.0204302
-0.0181868
-0.0153161
-0.0120408
-0.00868545
-0.00564672
-0.00333631
-0.00210127
-0.00213681
-0.00340248
-0.00559935
-0.00848567
-0.0122491
-0.00766407
-0.00990775
-0.0112463
-0.0123034
-0.0133985
-0.0146341
-0.0160777
-0.0177608
-0.0196726
-0.0217653
-0.0239567
-0.0261315
-0.0281445
-0.0298257
-0.0309903
-0.0314532
-0.0310497
-0.0296692
-0.0272722
-0.0239341
-0.0198669
-0.01543
-0.0111118
-0.00747317
-0.00504887
-0.00421863
-0.00506168
-0.00728411
-0.010596
-0.0152085
-0.0116518
-0.0138619
-0.015224
-0.0163611
-0.0175989
-0.0190489
-0.0207853
-0.022844
-0.0252169
-0.0278557
-0.0306735
-0.0335438
-0.0363016
-0.0387465
-0.0406509
-0.0417751
-0.0418882
-0.0408001
-0.0383991
-0.034692
-0.0298494
-0.0242359
-0.0184138
-0.0130992
-0.00905559
-0.00692257
-0.00698682
-0.00902359
-0.0127182
-0.0183084
-0.0162632
-0.0183975
-0.0197636
-0.02097
-0.0223433
-0.0240044
-0.0260359
-0.0284807
-0.0313359
-0.0345561
-0.0380524
-0.0416901
-0.0452869
-0.0486139
-0.0514025
-0.0533574
-0.0541778
-0.0535858
-0.0513814
-0.0474782
-0.0419709
-0.035187
-0.0277232
-0.0204315
-0.0143253
-0.0103777
-0.00919523
-0.0107285
-0.0146991
-0.0213875
-0.0214346
-0.0234585
-0.0248068
-0.026061
-0.0275449
-0.0293905
-0.031692
-0.0345027
-0.0378285
-0.0416296
-0.0458184
-0.050255
-0.0547429
-0.0590284
-0.0628055
-0.0657272
-0.067422
-0.0675205
-0.0657427
-0.0618762
-0.0559085
-0.0480825
-0.0389709
-0.0295108
-0.0209508
-0.0146488
-0.0116544
-0.0122448
-0.016297
-0.0241816
-0.0270823
-0.0289752
-0.0302809
-0.0315462
-0.033091
-0.035063
-0.0375733
-0.0406905
-0.0444331
-0.04877
-0.0536174
-0.0588327
-0.0642085
-0.0694703
-0.0742793
-0.0782424
-0.0809217
-0.08185
-0.0807327
-0.0771577
-0.0709962
-0.0623667
-0.0517511
-0.0400916
-0.0288115
-0.0196587
-0.0142307
-0.013318
-0.0171473
-0.0262845
-0.0331123
-0.0348738
-0.0361086
-0.0373273
-0.0388507
-0.040851
-0.0434653
-0.0467839
-0.0508427
-0.0556219
-0.0610434
-0.0669628
-0.0731641
-0.0793552
-0.0851692
-0.0901736
-0.093894
-0.095849
-0.0954417
-0.0923514
-0.0862656
-0.0771324
-0.0652801
-0.0515621
-0.0374727
-0.0250916
-0.0166171
-0.0135431
-0.0167179
-0.0271007
-0.0394317
-0.0410907
-0.0422205
-0.0433062
-0.0446841
-0.0465664
-0.0491301
-0.0524973
-0.0567259
-0.0618096
-0.0676753
-0.0741768
-0.0810889
-0.0881031
-0.0948288
-0.100801
-0.105499
-0.10837
-0.108829
-0.10637
-0.100571
-0.0912164
-0.0784431
-0.0629317
-0.0461215
-0.0303028
-0.0182469
-0.0122982
-0.0142532
-0.0257835
-0.0459665
-0.0475913
-0.048571
-0.0493961
-0.0504503
-0.0520123
-0.0543192
-0.0575371
-0.0617511
-0.0669682
-0.073118
-0.080049
-0.0875235
-0.0952156
-0.102712
-0.109519
-0.115081
-0.118796
-0.12004
-0.118212
-0.11278
-0.103377
-0.0899373
-0.0729143
-0.0535768
-0.0342659
-0.0182093
-0.00866387
-0.00870402
-0.0211546
-0.0526868
-0.0543966
-0.055156
-0.0555312
-0.0560139
-0.0569898
-0.0587836
-0.0616188
-0.0656105
-0.0707758
-0.0770409
-0.0842414
-0.092121
-0.100332
-0.108437
-0.115911
-0.122164
-0.126567
-0.128433
-0.127104
-0.121959
-0.112498
-0.098471
-0.0800945
-0.0583898
-0.0355893
-0.0151959
-0.0013369
0.00136039
-0.0115859
-0.0596504
-0.0616207
-0.0620348
-0.0616734
-0.0612449
-0.0613006
-0.0622829
-0.064483
-0.0680431
-0.0729812
-0.0792086
-0.0865365
-0.0946795
-0.103263
-0.111824
-0.119785
-0.12653
-0.13143
-0.133676
-0.132599
-0.127494
-0.11775
-0.102962
-0.0831349
-0.0590175
-0.0326137
-0.00750172
0.0114446
0.0178609
0.00518287
-0.0670894
-0.0695338
-0.069355
-0.067814
-0.0660156
-0.0647475
-0.0645939
-0.0659117
-0.0688562
-0.0734276
-0.0795054
-0.0868606
-0.0951691
-0.104012
-0.112882
-0.121182
-0.128246
-0.133355
-0.135726
-0.134579
-0.129133
-0.11868
-0.102686
-0.0809779
-0.0540242
-0.0235831
0.00689117
0.0319369
0.0433544
0.0323471
-0.0755952
-0.0786679
-0.077386
-0.0739721
-0.0701944
-0.067138
-0.0655244
-0.0657494
-0.0679481
-0.0720727
-0.0779436
-0.0852758
-0.0936901
-0.102717
-0.111799
-0.120296
-0.127491
-0.132603
-0.134795
-0.133201
-0.126944
-0.115211
-0.0973404
-0.0730111
-0.0423132
-0.00693222
0.030089
0.0628482
0.0812488
0.0745266
-0.0865438
-0.0900027
-0.0865526
-0.0801873
-0.0736433
-0.0682946
-0.064933
-0.0639241
-0.0653243
-0.0689938
-0.0746655
-0.0819762
-0.0904789
-0.0996444
-0.108861
-0.117437
-0.124598
-0.129497
-0.131219
-0.128803
-0.12125
-0.107612
-0.0870577
-0.0590476
-0.0235806
0.0182469
0.063793
0.107104
0.135981
0.138274
-0.103091
-0.105306
-0.0974454
-0.0864847
-0.0762002
-0.0680503
-0.0627266
-0.0604396
-0.0610804
-0.0643629
-0.0698994
-0.0772304
-0.0858312
-0.0951084
-0.104394
-0.112941
-0.119918
-0.124409
-0.125415
-0.121866
-0.112604
-0.0965252
-0.0725685
-0.03991
0.00178351
0.0519383
0.108557
0.167059
0.21256
0.232017
-0.132399
-0.127668
-0.110875
-0.0928853
-0.0776711
-0.0662278
-0.0588313
-0.0553408
-0.055365
-0.0584056
-0.0639222
-0.0713458
-0.080071
-0.0894425
-0.0987407
-0.107169
-0.113844
-0.117786
-0.117921
-0.113068
-0.101911
-0.083132
-0.0553765
-0.0173975
0.0317408
0.0923604
0.163858
0.242671
0.314813
0.367384
-0.190635
-0.160681
-0.127408
-0.0990399
-0.07746
-0.062348
-0.0530039
-0.0486056
-0.0483197
-0.0513721
-0.0570521
-0.0646832
-0.0735908
-0.0830721
-0.0923707
-0.100656
-0.107008
-0.110398
-0.109687
-0.103602
-0.0907834
-0.0696039
-0.0383739
0.00472724
0.0616217
0.134234
0.2244
0.33145
0.444873
0.571164
-0.321706
-0.200387
-0.138871
-0.0974883
-0.0697827
-0.0522357
-0.0423706
-0.0382835
-0.0385985
-0.0423106
-0.0486109
-0.0567784
-0.066119
-0.075923
-0.0854324
-0.0938155
-0.100148
-0.103392
-0.102373
-0.0957066
-0.0821208
-0.0597821
-0.0267136
0.0194681
0.0818734
0.164865
0.274925
0.420591
0.608899
0.89841
-0.649126
-0.236904
-0.107455
-0.0625248
-0.0379096
-0.0241775
-0.0184408
-0.0180499
-0.021323
-0.0273346
-0.0354395
-0.0450534
-0.0555849
-0.0664029
-0.0768097
-0.0860202
-0.0931469
-0.0971899
-0.0970447
-0.091525
-0.0788888
-0.0575996
-0.0256632
0.0195077
0.0816006
0.166836
0.287663
0.47243
0.778556
1.3724
)
;

boundaryField
{
    movingWall
    {
        type            zeroGradient;
    }
    fixedWalls
    {
        type            zeroGradient;
    }
    frontAndBack
    {
        type            empty;
    }
}


// ************************************************************************* //
