/*--------------------------------*- C++ -*----------------------------------*\
  =========                 |
  \\      /  F ield         | OpenFOAM: The Open Source CFD Toolbox
   \\    /   O peration     | Website:  https://openfoam.org
    \\  /    A nd           | Version:  7
     \\/     M anipulation  |
\*---------------------------------------------------------------------------*/
FoamFile
{
    version     2.0;
    format      ascii;
    class       surfaceScalarField;
    location    "10";
    object      phi;
}
// * * * * * * * * * * * * * * * * * * * * * * * * * * * * * * * * * * * * * //

dimensions      [0 3 -1 0 0 0 0];

internalField   nonuniform List<scalar> 
1740
(
8.62016e-07
-8.607e-07
5.44695e-07
3.17299e-07
-1.40401e-06
1.9487e-06
-4.81951e-06
3.41552e-06
-9.34627e-06
4.52675e-06
-1.46251e-05
5.27878e-06
-2.0353e-05
5.72794e-06
-2.62834e-05
5.93042e-06
-3.22031e-05
5.91964e-06
-3.79068e-05
5.70377e-06
-4.31792e-05
5.27231e-06
-4.77855e-05
4.60631e-06
-5.14752e-05
3.68968e-06
-5.39952e-05
2.52004e-06
-5.51132e-05
1.11802e-06
-5.4646e-05
-4.67262e-07
-5.24917e-05
-2.15427e-06
-4.86604e-05
-3.83128e-06
-4.32964e-05
-5.36402e-06
-3.66871e-05
-6.60933e-06
-2.92545e-05
-7.43259e-06
-2.15266e-05
-7.72793e-06
-1.40893e-05
-7.4373e-06
-7.52434e-06
-6.56493e-06
-2.33935e-06
-5.18499e-06
1.10745e-06
-3.44681e-06
2.67838e-06
-1.57093e-06
2.49979e-06
1.78596e-07
1.17741e-06
1.32239e-06
1.17742e-06
-2.99498e-07
-5.61226e-07
-3.52389e-06
3.54169e-06
-1.02865e-05
8.71127e-06
-2.0207e-05
1.33361e-05
-3.26191e-05
1.69388e-05
-4.67912e-05
1.94509e-05
-6.20304e-05
2.09671e-05
-7.77072e-05
2.16072e-05
-9.32367e-05
2.14491e-05
-0.000108046
2.05133e-05
-0.000121551
1.87767e-05
-0.000133145
1.62003e-05
-0.000142217
1.27615e-05
-0.000148182
8.48532e-06
-0.000150534
3.47012e-06
-0.000148911
-2.09014e-06
-0.000143141
-7.92412e-06
-0.000133321
-1.36515e-05
-0.000119841
-1.88442e-05
-0.000103398
-2.3052e-05
-8.49732e-05
-2.58575e-05
-6.5765e-05
-2.69361e-05
-4.70889e-05
-2.61134e-05
-3.02432e-05
-2.34106e-05
-1.63585e-05
-1.90697e-05
-6.24682e-06
-1.35585e-05
-2.52168e-07
-7.5656e-06
1.95967e-06
-2.03327e-06
1.38082e-06
1.90121e-06
2.55825e-06
-2.12439e-06
1.56317e-06
-9.35116e-06
1.07685e-05
-2.15515e-05
2.09116e-05
-3.80418e-05
2.98263e-05
-5.78878e-05
3.67848e-05
-8.00938e-05
4.16569e-05
-0.000103694
4.45677e-05
-0.000127778
4.56908e-05
-0.00015147
4.51406e-05
-0.000173902
4.29457e-05
-0.000194196
3.9071e-05
-0.000211462
3.34666e-05
-0.000224826
2.61247e-05
-0.000233475
1.71342e-05
-0.000236731
6.72639e-06
-0.00023412
-4.70104e-06
-0.000225457
-1.65873e-05
-0.000210909
-2.81994e-05
-0.000191041
-3.8712e-05
-0.000166827
-4.72662e-05
-0.000139617
-5.30675e-05
-0.000111058
-5.54952e-05
-8.29622e-05
-5.4209e-05
-5.71356e-05
-4.92372e-05
-3.51748e-05
-4.10305e-05
-1.82577e-05
-3.04756e-05
-6.94423e-06
-1.88791e-05
-1.03961e-06
-7.93788e-06
5.88847e-07
2.72742e-07
3.14709e-06
-4.10039e-06
5.66356e-06
-1.56205e-05
2.22886e-05
-3.35277e-05
3.88188e-05
-5.66234e-05
5.2922e-05
-8.36466e-05
6.3808e-05
-0.000113359
7.13692e-05
-0.000144582
7.57912e-05
-0.000176196
7.73048e-05
-0.000207111
7.6055e-05
-0.000236238
7.20727e-05
-0.000262478
6.53112e-05
-0.000284729
5.57177e-05
-0.000301921
4.33171e-05
-0.000313077
2.82896e-05
-0.000317384
1.1034e-05
-0.000314283
-7.80268e-06
-0.000303549
-2.73213e-05
-0.00028537
-4.63787e-05
-0.000260395
-6.36871e-05
-0.000229755
-7.79058e-05
-0.000195038
-8.77843e-05
-0.000158207
-9.23263e-05
-0.00012146
-9.0956e-05
-8.7034e-05
-8.36633e-05
-5.69653e-05
-7.10993e-05
-3.28358e-05
-5.46051e-05
-1.55367e-05
-3.61781e-05
-5.08868e-06
-1.83859e-05
-5.57519e-07
-4.25843e-06
2.58957e-06
-6.02654e-06
1.16901e-05
-2.18345e-05
3.80965e-05
-4.54308e-05
6.24151e-05
-7.50134e-05
8.25046e-05
-0.000108947
9.77415e-05
-0.00014575
0.000108172
-0.000184064
0.000114105
-0.000222612
0.000115853
-0.000260152
0.000113595
-0.00029544
0.00010736
-0.000327219
9.70903e-05
-0.000354232
8.27315e-05
-0.000375264
6.43484e-05
-0.000389197
4.22225e-05
-0.000395094
1.69316e-05
-0.000392287
-1.06102e-05
-0.000380457
-3.91509e-05
-0.00035973
-6.71057e-05
-0.000330736
-9.26813e-05
-0.00029465
-0.000113992
-0.00025319
-0.000129244
-0.000208551
-0.000136965
-0.000163274
-0.000136233
-0.00012003
-0.000126907
-8.13515e-05
-0.000109778
-4.93226e-05
-8.6634e-05
-2.52939e-05
-6.02068e-05
-9.66556e-06
-3.40143e-05
-1.78946e-06
-1.21345e-05
8.00108e-07
-7.83085e-06
1.95209e-05
-2.77404e-05
5.8006e-05
-5.68025e-05
9.14772e-05
-9.25966e-05
0.000118299
-0.000133099
0.000138244
-0.000176589
0.000151662
-0.000221555
0.000159071
-0.000266605
0.000160903
-0.000310394
0.000157384
-0.000351581
0.000148547
-0.000388804
0.000134314
-0.0004207
0.000114627
-0.000445933
8.95815e-05
-0.00046326
5.95495e-05
-0.000471601
2.52734e-05
-0.000470133
-1.20791e-05
-0.000458367
-5.09168e-05
-0.000436265
-8.9207e-05
-0.000404323
-0.000124624
-0.000363642
-0.000154673
-0.000315967
-0.000176919
-0.00026366
-0.000189272
-0.000209587
-0.000190307
-0.000156901
-0.000179592
-0.000108737
-0.000157943
-6.78324e-05
-0.000127539
-3.61641e-05
-9.18751e-05
-1.46613e-05
-5.55171e-05
-3.07218e-06
-2.37236e-05
-2.27208e-06
-9.48057e-06
2.90015e-05
-3.3185e-05
8.17104e-05
-6.73316e-05
0.000125624
-0.000108915
0.000159882
-0.000155541
0.00018487
-0.000205268
0.000201389
-0.000256456
0.00021026
-0.000307637
0.000212084
-0.00035741
0.000207157
-0.000404383
0.000195519
-0.000447138
0.000177069
-0.00048424
0.000151728
-0.000514259
0.0001196
-0.000535824
8.11151e-05
-0.000547689
3.71384e-05
-0.000548819
-1.09493e-05
-0.000538472
-6.12639e-05
-0.000516339
-0.00011134
-0.000482652
-0.000158311
-0.000438308
-0.000199017
-0.000384963
-0.000230264
-0.000325065
-0.00024917
-0.000261783
-0.000253589
-0.000198809
-0.000242567
-0.000140009
-0.000216742
-8.89673e-05
-0.00017858
-4.84981e-05
-0.000132344
-2.02419e-05
-8.37733e-05
-4.45468e-06
-3.95108e-05
-6.72676e-06
-1.09468e-05
3.99483e-05
-3.80433e-05
0.000108807
-7.67589e-05
0.000164339
-0.00012357
0.000206693
-0.000175751
0.000237051
-0.000231171
0.00025681
-0.000288095
0.000267184
-0.000345011
0.000268999
-0.000400504
0.000262651
-0.000453175
0.00024819
-0.000501593
0.000225487
-0.000544284
0.000194419
-0.000579747
0.000155063
-0.000606486
0.000107854
-0.000623064
5.37167e-05
-0.000628193
-5.82071e-06
-0.000620794
-6.86628e-05
-0.000600185
-0.000131949
-0.000566203
-0.000192293
-0.000519393
-0.000245827
-0.000461173
-0.000288484
-0.000393956
-0.000316387
-0.000321153
-0.000326391
-0.00024702
-0.0003167
-0.000176285
-0.000287477
-0.0001136
-0.000241266
-6.28783e-05
-0.000183066
-2.67158e-05
-0.000119936
-6.03533e-06
-6.01913e-05
-1.27621e-05
-1.21938e-05
5.21421e-05
-4.21881e-05
0.000138801
-8.48312e-05
0.000206982
-0.000136168
0.000258029
-0.000193199
0.000294082
-0.000253642
0.000317253
-0.000315696
0.000329238
-0.000377843
0.000331145
-0.00043869
0.000323498
-0.000496872
0.000306372
-0.000550983
0.000279598
-0.00059955
0.000242986
-0.000641024
0.000196538
-0.000673802
0.000140632
-0.000696255
7.61692e-05
-0.000706799
4.72347e-06
-0.000703989
-7.14721e-05
-0.000686669
-0.00014927
-0.000654156
-0.000224806
-0.000606482
-0.000293502
-0.000544643
-0.000350322
-0.000470834
-0.000390196
-0.000388571
-0.000408655
-0.000302626
-0.000402645
-0.000218686
-0.000371417
-0.000142695
-0.000317257
-7.99937e-05
-0.000245767
-3.44604e-05
-0.000165469
-7.93412e-06
-8.67176e-05
-2.06962e-05
-1.31803e-05
6.53224e-05
-4.54857e-05
0.000171107
-9.12921e-05
0.000252789
-0.000146313
0.00031305
-0.000207338
0.000355107
-0.000271973
0.000381888
-0.000338385
0.00039565
-0.000405076
0.000397836
-0.000470711
0.000389133
-0.000533995
0.000369656
-0.000593587
0.000339191
-0.000648055
0.000297454
-0.000695845
0.000244328
-0.000735275
0.000180062
-0.000764554
0.000105448
-0.000781804
2.19737e-05
-0.000785212
-6.80645e-05
-0.000773084
-0.000161398
-0.000744119
-0.00025377
-0.000697673
-0.000339947
-0.000634104
-0.000413891
-0.000555132
-0.000469168
-0.000464136
-0.000499651
-0.000366248
-0.000500532
-0.000268109
-0.000469556
-0.000177163
-0.000408202
-0.000100552
-0.000322378
-4.38799e-05
-0.000222141
-1.02804e-05
-0.000120317
-3.09766e-05
-1.38641e-05
7.91865e-05
-4.78058e-05
0.000205048
-9.5895e-05
0.000300878
-0.000153621
0.000370776
-0.000217625
0.000419111
-0.00028544
0.000449704
-0.000355226
0.000465436
-0.000425531
0.000468141
-0.000495103
0.000458706
-0.000562751
0.000437303
-0.000627239
0.000403679
-0.000687222
0.000357437
-0.000741192
0.000298298
-0.000787451
0.000226321
-0.000824097
0.000142094
-0.000849044
4.69202e-05
-0.000860098
-5.70104e-05
-0.000855061
-0.000166434
-0.000831954
-0.000276878
-0.000789317
-0.000382584
-0.000726636
-0.000476572
-0.00064484
-0.000550964
-0.000546806
-0.000597685
-0.000437709
-0.000609629
-0.000324992
-0.000582274
-0.00021771
-0.000515485
-0.000125204
-0.000414883
-5.53771e-05
-0.000291968
-1.32076e-05
-0.000162487
-4.41842e-05
-1.42089e-05
9.33954e-05
-4.90385e-05
0.000239878
-9.843e-05
0.000350269
-0.000157755
0.000430101
-0.000223568
0.000484924
-0.000293361
0.000519497
-0.000365303
0.000537378
-0.000438005
0.000540842
-0.000510318
0.000531019
-0.000581182
0.000508167
-0.000649507
0.000472004
-0.000714084
0.000422014
-0.00077352
0.000357734
-0.000826179
0.00027898
-0.000870151
0.000186066
-0.000903234
8.00029e-05
-0.000922963
-3.72814e-05
-0.000926703
-0.000162694
-0.000911807
-0.000291774
-0.000875925
-0.000418467
-0.000817459
-0.000535037
-0.000736196
-0.000632228
-0.000634038
-0.000699844
-0.000515698
-0.000727968
-0.000389039
-0.000708932
-0.000264663
-0.000639861
-0.000154463
-0.000525083
-6.93281e-05
-0.000377104
-1.68511e-05
-0.000214964
-6.10352e-05
-1.41924e-05
0.000107588
-4.91154e-05
0.000274801
-9.87592e-05
0.000399913
-0.00015848
0.000489821
-0.000224795
0.000551239
-0.000295178
0.00058988
-0.000367821
0.000610021
-0.000441402
0.000614424
-0.000514889
0.000604507
-0.000587377
0.000580655
-0.000657954
0.000542581
-0.000725605
0.000489665
-0.000789122
0.000421251
-0.000847035
0.000336893
-0.000897548
0.000236578
-0.000938489
0.000120945
-0.000967277
-8.49352e-06
-0.000980998
-0.000148973
-0.000976435
-0.000296337
-0.000950358
-0.000444543
-0.000899958
-0.000585437
-0.000823548
-0.000708638
-0.00072152
-0.000801871
-0.000597441
-0.000852047
-0.000458933
-0.00084744
-0.000317778
-0.000781016
-0.000188605
-0.000654255
-8.60511e-05
-0.000479658
-2.13446e-05
-0.00027967
-8.23798e-05
-1.3814e-05
0.000121402
-4.80325e-05
0.00030902
-9.68575e-05
0.000448738
-0.000155715
0.000548678
-0.000221126
0.000616651
-0.000290561
0.000659315
-0.000362234
0.000681694
-0.000434898
0.000687087
-0.000507642
0.00067725
-0.000579731
0.000652743
-0.000650466
0.000613316
-0.000719074
0.000558274
-0.000784613
0.00048679
-0.000845881
0.000398161
-0.000901335
0.000292032
-0.000949007
0.000168617
-0.000986426
2.89249e-05
-0.00101057
-0.00012483
-0.00101788
-0.000289024
-0.00100439
-0.00045804
-0.000966055
-0.000623768
-0.000899507
-0.000775186
-0.000803112
-0.000898265
-0.000678486
-0.000976674
-0.000532053
-0.000993873
-0.000376001
-0.000937068
-0.000227544
-0.000802713
-0.000105765
-0.000601436
-2.68158e-05
-0.00035862
-0.000109196
-1.31029e-05
0.000134505
-4.58744e-05
0.000341791
-9.28548e-05
0.000495719
-0.000149599
0.000605422
-0.000212657
0.000679709
-0.000279503
0.000726161
-0.000348378
0.000750569
-0.000418103
0.000756812
-0.000487898
0.000747045
-0.000557211
0.000722057
-0.000625585
0.00068169
-0.000692535
0.000625224
-0.000757451
0.000551706
-0.000819501
0.000460211
-0.00087753
0.000350062
-0.000929951
0.000221038
-0.000974618
7.35915e-05
-0.00100866
-9.07826e-05
-0.00102849
-0.000269201
-0.00102962
-0.000456907
-0.00100699
-0.000646397
-0.000955491
-0.000826687
-0.0008711
-0.000982656
-0.000752682
-0.00109509
-0.000604286
-0.00114227
-0.000437254
-0.0011041
-0.000270682
-0.000969285
-0.000128537
-0.000743582
-3.33783e-05
-0.000453779
-0.000142574
-1.21254e-05
0.00014663
-4.2837e-05
0.000372503
-8.70766e-05
0.000539958
-0.000140546
0.000658892
-0.000199834
0.000738997
-0.000262419
0.000788746
-0.000326574
0.000814724
-0.0003912
0.000821438
-0.000455654
0.000811499
-0.000519586
0.00078599
-0.000582803
0.000744906
-0.000645147
0.000687568
-0.000706396
0.000612955
-0.000766166
0.000519981
-0.000823802
0.000407698
-0.000878252
0.000275487
-0.000927894
0.000123234
-0.000970239
-4.84376e-05
-0.00100206
-0.000237379
-0.00101873
-0.00044024
-0.00101448
-0.00065065
-0.000982689
-0.000858474
-0.000916862
-0.00104848
-0.000812498
-0.00119946
-0.000670026
-0.00128474
-0.000498267
-0.00127586
-0.000316765
-0.00115079
-0.000154217
-0.00090613
-4.11229e-05
-0.000566873
-0.000183697
-1.0992e-05
0.000157622
-3.9251e-05
0.000400762
-8.00838e-05
0.000580791
-0.000129301
0.000708109
-0.00018351
0.000793206
-0.000240208
0.000845444
-0.000297716
0.000872231
-0.000355037
0.00087876
-0.000411693
0.000868154
-0.000467558
0.000841856
-0.00052273
0.000800078
-0.000577407
0.000742244
-0.000631791
0.00066734
-0.000685996
0.000574185
-0.000739934
0.000461636
-0.000793184
0.000328738
-0.000844869
0.000174919
-0.000892872
-4.35196e-07
-0.000935014
-0.000195237
-0.000966675
-0.000408578
-0.000981977
-0.000635348
-0.00097329
-0.000867161
-0.000931896
-0.00108988
-0.000849699
-0.00128165
-0.000722461
-0.00141198
-0.000554554
-0.00144377
-0.000363758
-0.00134158
-0.000182383
-0.00108751
-5.01119e-05
-0.000699144
-0.000233809
-9.86734e-06
0.000167489
-3.56088e-05
0.000426503
-7.27141e-05
0.000617896
-0.000116979
0.000752374
-0.000164996
0.000841223
-0.000214293
0.000894742
-0.000263291
0.000921229
-0.000311148
0.000926617
-0.000357596
0.000914603
-0.000402779
0.000887038
-0.00044711
0.000844409
-0.000491166
0.0007863
-0.00053559
0.000711764
-0.000581003
0.000619598
-0.000627902
0.000508535
-0.000676527
0.000377363
-0.000726617
0.00022501
-0.000777655
5.06026e-05
-0.000827022
-0.00014587
-0.000871613
-0.000363987
-0.00090583
-0.000601131
-0.00092172
-0.000851271
-0.000909019
-0.00110258
-0.000856318
-0.00133436
-0.000754144
-0.00151415
-0.000600589
-0.00159732
-0.000408794
-0.00153338
-0.000212293
-0.00128401
-6.03853e-05
-0.000851052
-0.000294194
-8.98702e-06
0.000176477
-3.26062e-05
0.000450122
-6.61337e-05
0.000651424
-0.000105119
0.000791359
-0.000146078
0.000882181
-0.00018662
0.000935284
-0.000225352
0.000959961
-0.000261688
0.000962953
-0.000295654
0.000948569
-0.000327716
0.0009191
-0.000358648
0.000875341
-0.00038942
0.000817072
-0.000421114
0.000743458
-0.000454843
0.000653327
-0.000491661
0.000545353
-0.000532445
0.000418148
-0.000577742
0.000270306
-0.00062759
0.000100451
-0.000680829
-9.26314e-05
-0.000735079
-0.000309737
-0.000785769
-0.000550441
-0.00082547
-0.00081157
-0.000843383
-0.00108466
-0.000825669
-0.00135207
-0.00075777
-0.00158205
-0.000630175
-0.00172492
-0.000448222
-0.00171533
-0.000242875
-0.00148935
-7.19907e-05
-0.00102194
-0.000366185
-8.69278e-06
0.000185169
-3.12148e-05
0.000472644
-6.19158e-05
0.000682125
-9.57301e-05
0.000825174
-0.00012903
0.000915481
-0.00015961
0.000965863
-0.000186422
0.000986773
-0.000209289
0.00098582
-0.000228653
0.000967933
-0.00024539
0.000935837
-0.000260673
0.000890625
-0.000275879
0.000832278
-0.000292505
0.000760084
-0.000312112
0.000672934
-0.000336244
0.000569485
-0.000366329
0.000448233
-0.000403568
0.000307545
-0.000448733
0.000145616
-0.000501784
-3.95808e-05
-0.000561484
-0.000250037
-0.000624655
-0.00048727
-0.000685188
-0.000751036
-0.000732947
-0.00103691
-0.000753059
-0.00133196
-0.000726886
-0.00160822
-0.000636894
-0.00181491
-0.000477714
-0.00187451
-0.000272722
-0.00169435
-8.50466e-05
-0.00120961
-0.000451231
-9.50552e-06
0.000194675
-3.28134e-05
0.000495952
-6.21612e-05
0.000711473
-9.13498e-05
0.000854362
-0.000116586
0.000940718
-0.00013605
0.000985327
-0.000149298
0.00100002
-0.000156786
0.000993309
-0.000159539
0.000970686
-0.000158941
0.000935239
-0.000156614
0.000888297
-0.000154334
0.000829998
-0.000153978
0.000759728
-0.000157483
0.000676439
-0.000166796
0.000578799
-0.000183761
0.000465198
-0.00021008
0.000333864
-0.00024726
0.000182796
-0.000296104
9.26244e-06
-0.000356618
-0.000189523
-0.000427256
-0.000416632
-0.000503855
-0.000674437
-0.000578121
-0.00096264
-0.00063588
-0.0012742
-0.000656246
-0.00158786
-0.000614435
-0.00185672
-0.000492352
-0.00199659
-0.000300051
-0.00188665
-9.98358e-05
-0.00140983
-0.000551067
-1.22704e-05
0.000206945
-3.94129e-05
0.000523094
-6.96655e-05
0.000741726
-9.50748e-05
0.000879771
-0.00011181
0.000957453
-0.000118822
0.000992339
-0.000116665
0.000997863
-0.000106731
0.000983375
-9.08254e-05
0.00095478
-7.09474e-05
0.000915361
-4.92031e-05
0.000866553
-2.77578e-05
0.000808552
-8.82315e-06
0.000740793
5.39659e-06
0.000662219
1.27275e-05
0.000571468
1.09279e-05
0.000466997
-2.11e-06
0.000346901
-2.81009e-05
0.000208787
-6.89138e-05
5.00753e-05
-0.000125624
-0.000132812
-0.000198314
-0.000343942
-0.000285123
-0.000587628
-0.000380555
-0.000867208
-0.000472924
-0.00118183
-0.000541559
-0.00151922
-0.000556527
-0.00184175
-0.000486481
-0.00206664
-0.000322506
-0.00205062
-0.000116879
-0.00161545
-0.000667947
-1.84321e-05
0.000225377
-5.39962e-05
0.000558658
-8.80628e-05
0.000775792
-0.000110402
0.00090211
-0.000117647
0.000964699
-0.000110213
0.000984904
-9.02107e-05
0.000977862
-6.03473e-05
0.000953512
-2.34158e-05
0.000917848
1.78793e-05
0.000874066
6.09552e-05
0.000823477
0.000103308
0.000766199
0.0001425
0.000701601
0.00017612
0.0006286
0.000201768
0.00054582
0.000217111
0.000451654
0.000219827
0.000344186
0.000207528
0.000221086
0.00017807
7.95329e-05
0.000129368
-8.41099e-05
5.98074e-05
-0.000274382
-3.10998e-05
-0.000496721
-0.000141236
-0.000757072
-0.000263007
-0.00106006
-0.000378526
-0.0014037
-0.000456297
-0.00176398
-0.000453113
-0.00206982
-0.000336578
-0.00216716
-0.000136845
-0.00181519
-0.000804791
-3.05183e-05
0.000255896
-8.08969e-05
0.000609037
-0.000121632
0.000816527
-0.000140371
0.00092085
-0.0001355
0.000959828
-0.000110046
0.000959449
-6.84351e-05
0.000936251
-1.50962e-05
0.000900173
4.60113e-05
0.000856741
0.000111446
0.000808631
0.000178173
0.000756749
0.000243445
0.000700927
0.000304683
0.000640363
0.000359403
0.00057388
0.000405156
0.000500066
0.000439505
0.000417306
0.000459964
0.000323727
0.000463953
0.000217097
0.000448792
9.46937e-05
0.000411635
-4.69527e-05
0.0003496
-0.000212347
0.000260058
-0.000407179
0.000141789
-0.000638803
-2.37648e-06
-0.000915892
-0.000161186
-0.0012449
-0.000304945
-0.00162022
-0.000382621
-0.00199215
-0.00033629
-0.00221349
-0.000159927
-0.00199155
-0.000964719
-5.2884e-05
0.00030878
-0.000125773
0.000681926
-0.000173711
0.000864465
-0.00018452
0.000931658
-0.000161077
0.000936386
-0.000110778
0.00090915
-4.12586e-05
0.000866731
4.09777e-05
0.000817937
0.00013075
0.000766969
0.00022396
0.000715422
0.000317274
0.000663435
0.000407847
0.000610354
0.000493116
0.000555094
0.000570652
0.000496344
0.000638066
0.000432652
0.000692926
0.000362445
0.000732685
0.000283969
0.000754585
0.000195196
0.000755581
9.36978e-05
0.00073219
-2.35616e-05
0.000680562
-0.000160719
0.000596312
-0.000322928
0.000475154
-0.000517646
0.00031463
-0.000755368
0.000119472
-0.00104974
-8.92357e-05
-0.00141151
-0.000260243
-0.00182114
-0.000310451
-0.00216328
-0.000184025
-0.00211797
-0.00114874
-9.24239e-05
0.000401204
-0.000193379
0.000782881
-0.000240492
0.000911578
-0.000229678
0.000920845
-0.000173376
0.000880083
-8.56169e-05
0.000821391
2.20355e-05
0.000759079
0.000141025
0.000698948
0.000265254
0.00064274
0.000390349
0.000590326
0.000513035
0.000540749
0.000630681
0.000492708
0.00074099
0.000444785
0.000841797
0.000395538
0.000930926
0.000343523
0.00100609
0.00028728
0.00106479
0.000225269
0.0011042
0.000155783
0.00112105
7.68511e-05
0.00111136
-1.38744e-05
0.00107069
-0.000120049
0.000993358
-0.000245592
0.000872839
-0.000397126
0.000702379
-0.000584908
0.000478231
-0.00082559
0.000209645
-0.00114293
-6.00692e-05
-0.00155143
-0.000237533
-0.00198582
-0.000201581
-0.00215393
-0.00135032
-0.000157305
0.000558509
-0.000275839
0.000901414
-0.000290536
0.000926275
-0.000225086
0.000855394
-0.00010885
0.000763848
3.61253e-05
0.000676415
0.000195162
0.000600043
0.000358986
0.000535124
0.000521864
0.000479862
0.000680191
0.000431999
0.000831544
0.000389396
0.000974092
0.00035016
0.00110624
0.000312637
0.00122641
0.000275371
0.00133288
0.000237049
0.00142372
0.000196439
0.00149666
0.000152328
0.001549
0.000103441
0.00157746
4.83999e-05
0.00157791
-1.43261e-05
0.00154558
-8.77218e-05
0.00147413
-0.000174144
0.00135571
-0.000278709
0.00118054
-0.000409736
0.000937662
-0.00058271
0.00062112
-0.000826384
0.000252286
-0.00118259
-7.62283e-05
-0.0016573
-0.000193034
-0.00203712
-0.00154336
-0.000243939
0.000802449
-0.000303338
0.000960813
-0.000204188
0.000827125
-2.42123e-05
0.000675418
0.000187714
0.000551922
0.000407589
0.00045654
0.000623537
0.000384094
0.000829888
0.000328773
0.0010242
0.000285547
0.00120557
0.000250636
0.00137365
0.000221313
0.00152823
0.00019558
0.00166894
0.000171923
0.00179516
0.000149152
0.00190592
0.000126295
0.00199984
0.000102513
0.00207513
7.70389e-05
0.00212945
4.91195e-05
0.00215984
1.80149e-05
0.00216282
-1.73058e-05
0.00213328
-5.81877e-05
0.00206526
-0.000106122
0.00195063
-0.000164076
0.00177821
-0.000237314
0.00153223
-0.000336731
0.00119233
-0.000486482
0.000747396
-0.000737663
0.000254429
-0.00116434
-8.07033e-05
-0.00170199
-0.00162406
-0.000194584
0.000997033
1.76594e-05
0.000748569
0.000372396
0.000472388
0.000713709
0.000334105
0.00102018
0.000245456
0.00129148
0.000185232
0.00153091
0.000144671
0.00174271
0.000116968
0.001931
9.72561e-05
0.00209914
8.25012e-05
0.00224961
7.08435e-05
0.0023841
6.10883e-05
0.00250359
5.2427e-05
0.00260846
4.4288e-05
0.00269851
3.62457e-05
0.00277306
2.79645e-05
0.00283093
1.91628e-05
0.00287043
9.62664e-06
0.0028891
-6.58318e-07
0.002885
-1.32079e-05
0.0028534
-2.65834e-05
0.00278976
-4.24848e-05
0.00268729
-6.16033e-05
0.0025358
-8.58311e-05
0.00231859
-0.00011952
0.00200628
-0.000174172
0.00155166
-0.000283041
0.000927483
-0.000540157
0.000263876
-0.00103838
-0.00136019
0.000997033
0.0017456
0.00221799
0.0025521
0.00279755
0.00298278
0.00312745
0.00324442
0.00334168
0.00342418
0.00349502
0.00355611
0.00360854
0.00365283
0.00368907
0.00371704
0.0037362
0.00374583
0.00374517
0.00373196
0.00370538
0.00366289
0.00360129
0.00351546
0.00339594
0.00322177
0.00293872
0.00239857
0.00136019
)
;

boundaryField
{
    movingWall
    {
        type            calculated;
        value           uniform 0;
    }
    fixedWalls
    {
        type            calculated;
        value           uniform 0;
    }
    frontAndBack
    {
        type            empty;
        value           nonuniform 0();
    }
}


// ************************************************************************* //
