/*--------------------------------*- C++ -*----------------------------------*\
  =========                 |
  \\      /  F ield         | OpenFOAM: The Open Source CFD Toolbox
   \\    /   O peration     | Website:  https://openfoam.org
    \\  /    A nd           | Version:  7
     \\/     M anipulation  |
\*---------------------------------------------------------------------------*/
FoamFile
{
    version     2.0;
    format      ascii;
    class       volVectorField;
    location    "10";
    object      U;
}
// * * * * * * * * * * * * * * * * * * * * * * * * * * * * * * * * * * * * * //

dimensions      [0 1 -1 0 0 0 0];

internalField   nonuniform List<vector> 
900
(
(0.000166376 -0.000165086 0)
(0.0002971 -7.25669e-05 0)
(-2.4953e-05 9.75872e-05 0)
(-0.00081011 0.000247589 0)
(-0.00196596 0.000356275 0)
(-0.00338657 0.000426301 0)
(-0.00497649 0.000467103 0)
(-0.00665743 0.000486947 0)
(-0.00836469 0.000490443 0)
(-0.0100396 0.000478649 0)
(-0.0116226 0.000450063 0)
(-0.0130495 0.000401878 0)
(-0.0142503 0.000331273 0)
(-0.0151521 0.000236624 0)
(-0.0156839 0.000118597 0)
(-0.0157847 -1.91216e-05 0)
(-0.0154119 -0.000169818 0)
(-0.014551 -0.000322694 0)
(-0.0132234 -0.000464486 0)
(-0.0114908 -0.000580612 0)
(-0.00945573 -0.000657037 0)
(-0.00725622 -0.000682485 0)
(-0.00505454 -0.000650516 0)
(-0.00302114 -0.000561029 0)
(-0.00131486 -0.000421061 0)
(-6.32289e-05 -0.000245516 0)
(0.000654061 -5.62121e-05 0)
(0.000826401 0.000120356 0)
(0.000563375 0.000226674 0)
(0.000173288 0.000172177 0)
(8.13144e-05 -0.00030439 0)
(-0.000297377 0.000294827 0)
(-0.00174125 0.00114183 0)
(-0.00416487 0.0019052 0)
(-0.0074024 0.00249295 0)
(-0.0112487 0.00289747 0)
(-0.0154961 0.00314175 0)
(-0.0199549 0.00325129 0)
(-0.0244534 0.00324194 0)
(-0.028828 0.00311779 0)
(-0.0329143 0.00287402 0)
(-0.0365417 0.00250194 0)
(-0.0395348 0.00199473 0)
(-0.0417197 0.00135296 0)
(-0.0429368 0.000589153 0)
(-0.043058 -0.000269088 0)
(-0.0420032 -0.00117736 0)
(-0.0397587 -0.00207619 0)
(-0.0363926 -0.00289503 0)
(-0.032061 -0.00355909 0)
(-0.0270064 -0.00399849 0)
(-0.0215457 -0.00415856 0)
(-0.0160456 -0.00400973 0)
(-0.0108886 -0.00355493 0)
(-0.00643189 -0.00283379 0)
(-0.00296199 -0.00192403 0)
(-0.00064928 -0.000940494 0)
(0.000477126 -3.60766e-05 0)
(0.000609233 0.00057364 0)
(0.000234673 0.000560815 0)
(-0.000105678 2.30056e-05 0)
(-0.00125304 0.00176181 0)
(-0.00407554 0.00383485 0)
(-0.00824573 0.00568883 0)
(-0.0135046 0.0071417 0)
(-0.0195808 0.00816114 0)
(-0.0261913 0.00877721 0)
(-0.0330668 0.00903161 0)
(-0.0399536 0.00895205 0)
(-0.0466045 0.00854579 0)
(-0.0527708 0.00780453 0)
(-0.0581987 0.00671492 0)
(-0.0626332 0.00527118 0)
(-0.0658293 0.00348717 0)
(-0.0675693 0.00140623 0)
(-0.0676832 -0.000892475 0)
(-0.0660721 -0.00329167 0)
(-0.0627298 -0.00564161 0)
(-0.0577593 -0.00776911 0)
(-0.0513813 -0.00949376 0)
(-0.0439316 -0.0106489 0)
(-0.0358452 -0.0111052 0)
(-0.0276264 -0.0107931 0)
(-0.0198044 -0.00972107 0)
(-0.0128793 -0.00798614 0)
(-0.00726151 -0.00577646 0)
(-0.00321221 -0.00336913 0)
(-0.00079535 -0.00113053 0)
(0.000176375 0.000489681 0)
(0.0001711 0.000874935 0)
(-0.000304571 0.000912623 0)
(-0.00228701 0.0044351 0)
(-0.00658767 0.00814114 0)
(-0.0125558 0.0113675 0)
(-0.0198043 0.0138815 0)
(-0.0279947 0.0156408 0)
(-0.0367825 0.016686 0)
(-0.0458387 0.0170736 0)
(-0.0548494 0.0168404 0)
(-0.0635049 0.0159953 0)
(-0.071493 0.0145265 0)
(-0.0784973 0.012419 0)
(-0.0842041 0.00967414 0)
(-0.0883161 0.00632895 0)
(-0.0905721 0.00247108 0)
(-0.0907703 -0.00175203 0)
(-0.0887935 -0.00613232 0)
(-0.0846324 -0.0104079 0)
(-0.0784046 -0.01428 0)
(-0.0703647 -0.0174392 0)
(-0.0609048 -0.0195989 0)
(-0.050539 -0.0205343 0)
(-0.039873 -0.0201203 0)
(-0.0295549 -0.0183639 0)
(-0.0202119 -0.0154244 0)
(-0.0123789 -0.0116189 0)
(-0.00642443 -0.00741524 0)
(-0.00248583 -0.00341779 0)
(-0.000437055 -0.000348491 0)
(7.35691e-05 0.000897896 0)
(-0.000493062 0.002365 0)
(-0.00330365 0.00834603 0)
(-0.00908687 0.0140799 0)
(-0.0168384 0.0189082 0)
(-0.0260227 0.0226121 0)
(-0.0362282 0.0251726 0)
(-0.0470545 0.0266546 0)
(-0.0581262 0.0271332 0)
(-0.0690857 0.026654 0)
(-0.0795796 0.0252257 0)
(-0.0892507 0.0228332 0)
(-0.0977378 0.0194614 0)
(-0.104684 0.0151231 0)
(-0.10975 0.00988409 0)
(-0.112638 0.00388328 0)
(-0.113112 -0.0026559 0)
(-0.111026 -0.00942474 0)
(-0.106347 -0.0160381 0)
(-0.0991793 -0.0220576 0)
(-0.0897809 -0.0270268 0)
(-0.0785667 -0.0305176 0)
(-0.0661021 -0.0321853 0)
(-0.0530746 -0.0318253 0)
(-0.0402449 -0.0294238 0)
(-0.0283762 -0.0251926 0)
(-0.0181502 -0.0195804 0)
(-0.010076 -0.0132601 0)
(-0.00440554 -0.00709515 0)
(-0.00111608 -0.00209408 0)
(-2.41258e-05 0.000570795 0)
(-0.000665568 0.00435262 0)
(-0.00426202 0.0134652 0)
(-0.0114701 0.0216238 0)
(-0.0209348 0.0282723 0)
(-0.0319671 0.0332733 0)
(-0.0440801 0.0366723 0)
(-0.0568223 0.0385813 0)
(-0.0697813 0.0391028 0)
(-0.0825702 0.0382936 0)
(-0.0948074 0.0361623 0)
(-0.106107 0.0326899 0)
(-0.116077 0.0278609 0)
(-0.12433 0.0216993 0)
(-0.13049 0.0142999 0)
(-0.134223 0.00585259 0)
(-0.135248 -0.00334335 0)
(-0.133373 -0.0128772 0)
(-0.128517 -0.022236 0)
(-0.120739 -0.0308321 0)
(-0.110265 -0.0380441 0)
(-0.0974995 -0.0432762 0)
(-0.0830346 -0.0460297 0)
(-0.0676268 -0.045983 0)
(-0.0521534 -0.0430668 0)
(-0.0375361 -0.0375207 0)
(-0.0246416 -0.0299165 0)
(-0.0141668 -0.0211418 0)
(-0.0065253 -0.0123434 0)
(-0.00183685 -0.00484349 0)
(-0.000115386 -0.000115621 0)
(-0.000821134 0.00683586 0)
(-0.00514071 0.0197197 0)
(-0.0136717 0.030685 0)
(-0.0247326 0.0393612 0)
(-0.0374879 0.0457563 0)
(-0.0513791 0.0500245 0)
(-0.065909 0.0523502 0)
(-0.0806381 0.052877 0)
(-0.095162 0.0516781 0)
(-0.109085 0.0487632 0)
(-0.122006 0.0441074 0)
(-0.133517 0.0376925 0)
(-0.143204 0.0295491 0)
(-0.150664 0.0197946 0)
(-0.155518 0.00866185 0)
(-0.157434 -0.00348227 0)
(-0.156151 -0.0161321 0)
(-0.151511 -0.0286495 0)
(-0.143495 -0.0402912 0)
(-0.132259 -0.0502539 0)
(-0.118161 -0.0577421 0)
(-0.101788 -0.0620585 0)
(-0.0839518 -0.0627107 0)
(-0.0656486 -0.0595193 0)
(-0.0479863 -0.0527079 0)
(-0.0320648 -0.0429497 0)
(-0.0188294 -0.0313528 0)
(-0.00891377 -0.0193791 0)
(-0.00262524 -0.00871151 0)
(-0.000205282 -0.00117824 0)
(-0.000958436 0.00976638 0)
(-0.00592201 0.0270069 0)
(-0.0156384 0.0411335 0)
(-0.0281371 0.0520327 0)
(-0.0424518 0.0599158 0)
(-0.0579603 0.0650877 0)
(-0.0741284 0.0678324 0)
(-0.0904986 0.0683497 0)
(-0.10666 0.0667368 0)
(-0.122215 0.0630058 0)
(-0.136762 0.0571243 0)
(-0.149884 0.0490657 0)
(-0.161155 0.0388586 0)
(-0.170142 0.0266307 0)
(-0.176424 0.0126424 0)
(-0.179605 -0.00268851 0)
(-0.179338 -0.0187753 0)
(-0.175363 -0.0348662 0)
(-0.167549 -0.0500622 0)
(-0.155938 -0.0633625 0)
(-0.140801 -0.0737379 0)
(-0.12268 -0.0802378 0)
(-0.102411 -0.0821275 0)
(-0.0811046 -0.0790394 0)
(-0.0600755 -0.0711122 0)
(-0.0407094 -0.0590782 0)
(-0.0242727 -0.0442646 0)
(-0.0116948 -0.0284882 0)
(-0.00353264 -0.0138625 0)
(-0.00030398 -0.00265768 0)
(-0.0010746 0.0130868 0)
(-0.00658623 0.0351984 0)
(-0.0173175 0.0528037 0)
(-0.0310563 0.0661063 0)
(-0.0467263 0.0755708 0)
(-0.0636532 0.0816905 0)
(-0.0812748 0.0848752 0)
(-0.0991251 0.0853974 0)
(-0.116797 0.083386 0)
(-0.133903 0.0788586 0)
(-0.150049 0.0717728 0)
(-0.164826 0.0620863 0)
(-0.177801 0.0498136 0)
(-0.188521 0.0350757 0)
(-0.196521 0.0181395 0)
(-0.201337 -0.00055062 0)
(-0.202529 -0.0203497 0)
(-0.199713 -0.0404119 0)
(-0.192613 -0.0596913 0)
(-0.181121 -0.076981 0)
(-0.165366 -0.0909865 0)
(-0.145791 -0.100444 0)
(-0.123209 -0.10429 0)
(-0.0988135 -0.101864 0)
(-0.0741329 -0.0931154 0)
(-0.0508843 -0.0787633 0)
(-0.030739 -0.0603341 0)
(-0.0150199 -0.0400435 0)
(-0.00462253 -0.0205296 0)
(-0.000423575 -0.00462678 0)
(-0.00116559 0.0167287 0)
(-0.00711154 0.0441398 0)
(-0.0186553 0.0654945 0)
(-0.0333979 0.0813617 0)
(-0.0501772 0.0924989 0)
(-0.0682791 0.0996203 0)
(-0.0871231 0.103285 0)
(-0.106243 0.103855 0)
(-0.125244 0.101499 0)
(-0.143758 0.0962443 0)
(-0.161413 0.0880362 0)
(-0.177815 0.076809 0)
(-0.192539 0.0625497 0)
(-0.20512 0.0453526 0)
(-0.215061 0.0254663 0)
(-0.221834 0.00333247 0)
(-0.224902 -0.020381 0)
(-0.223755 -0.0447593 0)
(-0.217947 -0.0686311 0)
(-0.207181 -0.0905892 0)
(-0.191393 -0.109053 0)
(-0.170855 -0.12239 0)
(-0.146283 -0.12911 0)
(-0.118891 -0.128128 0)
(-0.0903928 -0.119062 0)
(-0.0628655 -0.102493 0)
(-0.0384715 -0.0800914 0)
(-0.0190503 -0.0545091 0)
(-0.00596405 -0.0290243 0)
(-0.000577008 -0.00719459 0)
(-0.00122702 0.0206115 0)
(-0.00747614 0.0536503 0)
(-0.0195999 0.0789705 0)
(-0.0350731 0.0975383 0)
(-0.0526734 0.110433 0)
(-0.0716587 0.118615 0)
(-0.0914384 0.122814 0)
(-0.111552 0.123494 0)
(-0.131626 0.120878 0)
(-0.151319 0.115005 0)
(-0.170291 0.105808 0)
(-0.188176 0.0931917 0)
(-0.20457 0.0771012 0)
(-0.219015 0.0575854 0)
(-0.230996 0.0348476 0)
(-0.239941 0.0092942 0)
(-0.245231 -0.0184221 0)
(-0.246228 -0.0473568 0)
(-0.242319 -0.0762505 0)
(-0.23299 -0.103521 0)
(-0.217928 -0.127302 0)
(-0.19716 -0.145554 0)
(-0.171196 -0.156266 0)
(-0.141174 -0.157777 0)
(-0.108913 -0.149176 0)
(-0.07684 -0.130722 0)
(-0.0476835 -0.104109 0)
(-0.0239446 -0.0724316 0)
(-0.00762884 -0.039737 0)
(-0.000778035 -0.0105081 0)
(-0.00125502 0.0246428 0)
(-0.00766157 0.0635254 0)
(-0.0201076 0.0929644 0)
(-0.0360059 0.114337 0)
(-0.054099 0.129061 0)
(-0.0736271 0.138359 0)
(-0.0939952 0.143148 0)
(-0.114754 0.144012 0)
(-0.135554 0.141235 0)
(-0.156089 0.134877 0)
(-0.176059 0.12486 0)
(-0.195142 0.111055 0)
(-0.212967 0.0933555 0)
(-0.229107 0.0717479 0)
(-0.243054 0.0463661 0)
(-0.254221 0.0175478 0)
(-0.261936 -0.0141078 0)
(-0.265462 -0.0476785 0)
(-0.264031 -0.0818714 0)
(-0.256904 -0.11498 0)
(-0.243483 -0.144885 0)
(-0.223464 -0.169132 0)
(-0.19704 -0.18512 0)
(-0.165116 -0.190453 0)
(-0.129483 -0.183455 0)
(-0.0928424 -0.163786 0)
(-0.0585238 -0.13295 0)
(-0.029846 -0.0944173 0)
(-0.00968899 -0.0531335 0)
(-0.00104159 -0.0147532 0)
(-0.00124719 0.0287217 0)
(-0.00765663 0.0735425 0)
(-0.020151 0.107184 0)
(-0.0361452 0.131427 0)
(-0.0543698 0.148027 0)
(-0.0740549 0.158481 0)
(-0.0946047 0.163906 0)
(-0.115583 0.165017 0)
(-0.136667 0.162175 0)
(-0.157591 0.155469 0)
(-0.178103 0.144816 0)
(-0.197934 0.130053 0)
(-0.216771 0.111018 0)
(-0.234236 0.0876229 0)
(-0.249865 0.059914 0)
(-0.263091 0.0281329 0)
(-0.273237 -0.00721631 0)
(-0.279511 -0.0452918 0)
(-0.281027 -0.0848331 0)
(-0.276843 -0.124089 0)
(-0.266062 -0.160762 0)
(-0.247987 -0.192025 0)
(-0.222367 -0.214659 0)
(-0.189697 -0.225401 0)
(-0.151532 -0.221546 0)
(-0.110681 -0.201787 0)
(-0.0710346 -0.167082 0)
(-0.0368659 -0.121092 0)
(-0.0122148 -0.0697426 0)
(-0.00138432 -0.0201547 0)
(-0.00120352 0.0327434 0)
(-0.00746149 0.0834711 0)
(-0.0197279 0.121322 0)
(-0.0354789 0.148452 0)
(-0.0534523 0.166942 0)
(-0.0728729 0.178561 0)
(-0.093146 0.184638 0)
(-0.113849 0.186034 0)
(-0.134686 0.183199 0)
(-0.155434 0.176264 0)
(-0.175896 0.16515 0)
(-0.19587 0.149665 0)
(-0.215117 0.129596 0)
(-0.233333 0.104778 0)
(-0.250132 0.0751571 0)
(-0.265017 0.04086 0)
(-0.277356 0.00225943 0)
(-0.286365 -0.0399385 0)
(-0.2911 -0.0845835 0)
(-0.290472 -0.129984 0)
(-0.283304 -0.17378 0)
(-0.268482 -0.212874 0)
(-0.245209 -0.243479 0)
(-0.213379 -0.261388 0)
(-0.174048 -0.262617 0)
(-0.129857 -0.244452 0)
(-0.0850986 -0.206771 0)
(-0.0450632 -0.153038 0)
(-0.0152712 -0.0901358 0)
(-0.00182499 -0.0269755 0)
(-0.0011272 0.0366068 0)
(-0.00709184 0.093087 0)
(-0.0188708 0.135075 0)
(-0.0340485 0.165049 0)
(-0.0513838 0.185392 0)
(-0.0700985 0.198142 0)
(-0.0895989 0.204842 0)
(-0.109475 0.206514 0)
(-0.129461 0.203713 0)
(-0.149377 0.196628 0)
(-0.169088 0.185196 0)
(-0.188468 0.169211 0)
(-0.207366 0.148414 0)
(-0.225581 0.122569 0)
(-0.242834 0.0915277 0)
(-0.258743 0.0552882 0)
(-0.272779 0.014067 0)
(-0.284233 -0.03161 0)
(-0.292185 -0.0807797 0)
(-0.295481 -0.131934 0)
(-0.292731 -0.182799 0)
(-0.282433 -0.230177 0)
(-0.263191 -0.269846 0)
(-0.234139 -0.296693 0)
(-0.195542 -0.30527 0)
(-0.1495 -0.290988 0)
(-0.100381 -0.251937 0)
(-0.054416 -0.190708 0)
(-0.0189123 -0.114895 0)
(-0.0023849 -0.0355138 0)
(-0.0010254 0.040224 0)
(-0.00658281 0.102192 0)
(-0.0176555 0.148161 0)
(-0.0319633 0.180868 0)
(-0.0482914 0.202964 0)
(-0.0658582 0.216744 0)
(-0.0840724 0.223976 0)
(-0.102539 0.225854 0)
(-0.121021 0.223055 0)
(-0.13939 0.215842 0)
(-0.157577 0.204186 0)
(-0.175539 0.187883 0)
(-0.193227 0.166646 0)
(-0.210561 0.140182 0)
(-0.227399 0.108256 0)
(-0.243507 0.070742 0)
(-0.258512 0.0276919 0)
(-0.271835 -0.020584 0)
(-0.28268 -0.0733736 0)
(-0.289932 -0.129472 0)
(-0.292093 -0.18686 0)
(-0.287358 -0.242458 0)
(-0.27377 -0.291849 0)
(-0.249608 -0.329181 0)
(-0.214087 -0.347508 0)
(-0.16833 -0.33996 0)
(-0.116273 -0.301999 0)
(-0.0647892 -0.234307 0)
(-0.0231747 -0.144566 0)
(-0.00308834 -0.0460979 0)
(-0.000909966 0.0435318 0)
(-0.00599299 0.110635 0)
(-0.0162108 0.160352 0)
(-0.0294139 0.195598 0)
(-0.0444079 0.219263 0)
(-0.0604066 0.233893 0)
(-0.0768253 0.241487 0)
(-0.0932899 0.243425 0)
(-0.109602 0.240524 0)
(-0.125687 0.23314 0)
(-0.141551 0.221297 0)
(-0.157242 0.204812 0)
(-0.172824 0.183387 0)
(-0.188347 0.156695 0)
(-0.203822 0.124431 0)
(-0.219188 0.0863642 0)
(-0.234264 0.0423951 0)
(-0.248646 -0.00739088 0)
(-0.261748 -0.0626625 0)
(-0.272602 -0.122514 0)
(-0.279732 -0.18536 0)
(-0.281187 -0.248494 0)
(-0.274568 -0.307626 0)
(-0.257326 -0.35649 0)
(-0.227459 -0.386819 0)
(-0.184684 -0.38924 0)
(-0.13186 -0.355727 0)
(-0.0759029 -0.283658 0)
(-0.0280717 -0.179593 0)
(-0.00396384 -0.0590783 0)
(-0.000798517 0.0465056 0)
(-0.00540951 0.118344 0)
(-0.0147282 0.171498 0)
(-0.0266851 0.208992 0)
(-0.0400854 0.233937 0)
(-0.0541381 0.249136 0)
(-0.0682757 0.256828 0)
(-0.0821604 0.258598 0)
(-0.0956467 0.255419 0)
(-0.108728 0.247756 0)
(-0.121494 0.235706 0)
(-0.134092 0.219123 0)
(-0.146702 0.197722 0)
(-0.15951 0.171158 0)
(-0.172681 0.139081 0)
(-0.186327 0.101174 0)
(-0.200469 0.0571986 0)
(-0.215002 0.00701943 0)
(-0.229511 -0.0493465 0)
(-0.24321 -0.111429 0)
(-0.254878 -0.178193 0)
(-0.262596 -0.247533 0)
(-0.263729 -0.315646 0)
(-0.255061 -0.376316 0)
(-0.233363 -0.42038 0)
(-0.196627 -0.436051 0)
(-0.145921 -0.411138 0)
(-0.0873082 -0.338045 0)
(-0.033591 -0.220246 0)
(-0.00504755 -0.0748199 0)
(-0.000716724 0.0491768 0)
(-0.00495654 0.125357 0)
(-0.0134764 0.181566 0)
(-0.0241705 0.220898 0)
(-0.0358058 0.2467 0)
(-0.0475903 0.26206 0)
(-0.0589963 0.26948 0)
(-0.0697509 0.270769 0)
(-0.0797878 0.267066 0)
(-0.0891891 0.258963 0)
(-0.098141 0.246641 0)
(-0.106899 0.230005 0)
(-0.115761 0.208799 0)
(-0.125046 0.182681 0)
(-0.135067 0.151273 0)
(-0.146108 0.114199 0)
(-0.158386 0.0710958 0)
(-0.172008 0.0216412 0)
(-0.186835 -0.0343722 0)
(-0.202395 -0.0969972 0)
(-0.217744 -0.165801 0)
(-0.231207 -0.239447 0)
(-0.240193 -0.314966 0)
(-0.241115 -0.386733 0)
(-0.229707 -0.445364 0)
(-0.202113 -0.477151 0)
(-0.156979 -0.465474 0)
(-0.0983757 -0.396074 0)
(-0.039701 -0.266525 0)
(-0.00639142 -0.0936987 0)
(-0.000703675 0.0516565 0)
(-0.00481175 0.131865 0)
(-0.0128244 0.190675 0)
(-0.0223928 0.231279 0)
(-0.0321899 0.257344 0)
(-0.0414389 0.272302 0)
(-0.0496943 0.27896 0)
(-0.0567953 0.279366 0)
(-0.0627952 0.274838 0)
(-0.0678944 0.266096 0)
(-0.0723945 0.25341 0)
(-0.0766653 0.236746 0)
(-0.0811215 0.215882 0)
(-0.0862038 0.190492 0)
(-0.0923604 0.160191 0)
(-0.100021 0.12456 0)
(-0.109571 0.0831582 0)
(-0.121311 0.0355204 0)
(-0.135369 -0.0188324 0)
(-0.151595 -0.0803296 0)
(-0.169413 -0.149142 0)
(-0.187561 -0.224793 0)
(-0.203777 -0.305405 0)
(-0.214499 -0.386494 0)
(-0.214811 -0.459296 0)
(-0.199168 -0.509121 0)
(-0.163379 -0.515285 0)
(-0.108294 -0.455553 0)
(-0.0463661 -0.31806 0)
(-0.00807985 -0.116112 0)
(-0.000824196 0.0541748 0)
(-0.00523883 0.138268 0)
(-0.0132813 0.199137 0)
(-0.0220316 0.240232 0)
(-0.0300027 0.265732 0)
(-0.0364779 0.279534 0)
(-0.0411677 0.284805 0)
(-0.0440951 0.283847 0)
(-0.0454896 0.278152 0)
(-0.0457079 0.268558 0)
(-0.0451872 0.255416 0)
(-0.0444176 0.238747 0)
(-0.0439237 0.218364 0)
(-0.0442527 0.193959 0)
(-0.0459638 0.165151 0)
(-0.0496016 0.13149 0)
(-0.0556767 0.0924861 0)
(-0.0646646 0.0475791 0)
(-0.0769118 -0.00392486 0)
(-0.0925593 -0.0627431 0)
(-0.11144 -0.129564 0)
(-0.132815 -0.204731 0)
(-0.155008 -0.287584 0)
(-0.174904 -0.375207 0)
(-0.187495 -0.460362 0)
(-0.186007 -0.528692 0)
(-0.163347 -0.556607 0)
(-0.116055 -0.513412 0)
(-0.0535631 -0.373981 0)
(-0.0102583 -0.142514 0)
(-0.00119538 0.0571488 0)
(-0.0066487 0.145251 0)
(-0.0155583 0.207484 0)
(-0.0239542 0.247971 0)
(-0.0301393 0.271765 0)
(-0.033562 0.283424 0)
(-0.0342103 0.286538 0)
(-0.0323932 0.283663 0)
(-0.0285882 0.276441 0)
(-0.0233505 0.265796 0)
(-0.0172723 0.252132 0)
(-0.0109653 0.235506 0)
(-0.00505072 0.215754 0)
(-0.000159971 0.192578 0)
(0.00306008 0.165596 0)
(0.00398625 0.134354 0)
(0.00203299 0.0983218 0)
(-0.00342315 0.0568629 0)
(-0.0129008 0.00919898 0)
(-0.0267736 -0.0456077 0)
(-0.0452733 -0.108622 0)
(-0.0682241 -0.180859 0)
(-0.0947016 -0.262813 0)
(-0.122433 -0.353367 0)
(-0.146949 -0.447612 0)
(-0.160993 -0.533055 0)
(-0.154971 -0.585183 0)
(-0.120386 -0.565654 0)
(-0.0612627 -0.432744 0)
(-0.0131724 -0.173481 0)
(-0.00204036 0.0613109 0)
(-0.00970572 0.153891 0)
(-0.0206475 0.216477 0)
(-0.0292162 0.254764 0)
(-0.0335368 0.275293 0)
(-0.0334404 0.283543 0)
(-0.0293843 0.283586 0)
(-0.0220974 0.278198 0)
(-0.0123866 0.269103 0)
(-0.00104535 0.257249 0)
(0.0111674 0.243046 0)
(0.0235258 0.226552 0)
(0.0353278 0.207601 0)
(0.0458823 0.185893 0)
(0.0545007 0.161039 0)
(0.0605084 0.132587 0)
(0.0632454 0.0999871 0)
(0.0620324 0.0625574 0)
(0.0562193 0.0195065 0)
(0.0452002 -0.0302162 0)
(0.0284222 -0.0878856 0)
(0.00552813 -0.154963 0)
(-0.0233727 -0.232866 0)
(-0.0571318 -0.322231 0)
(-0.0924115 -0.420994 0)
(-0.122437 -0.520057 0)
(-0.136035 -0.596671 0)
(-0.11956 -0.607308 0)
(-0.0693036 -0.491849 0)
(-0.0171922 -0.209787 0)
(-0.00379061 0.0679493 0)
(-0.0154902 0.165767 0)
(-0.0298648 0.227018 0)
(-0.038912 0.260745 0)
(-0.0408413 0.275903 0)
(-0.0362794 0.279182 0)
(-0.0264336 0.27513 0)
(-0.0126136 0.266635 0)
(0.00396664 0.255385 0)
(0.0222484 0.242251 0)
(0.0413117 0.227574 0)
(0.0603373 0.211361 0)
(0.0785705 0.193417 0)
(0.0952928 0.173424 0)
(0.109802 0.150983 0)
(0.121405 0.125636 0)
(0.129402 0.0968344 0)
(0.133072 0.0639177 0)
(0.131668 0.0260849 0)
(0.124405 -0.0177015 0)
(0.110461 -0.068765 0)
(0.0890241 -0.12876 0)
(0.0594401 -0.199689 0)
(0.021622 -0.283597 0)
(-0.0226707 -0.381256 0)
(-0.0682042 -0.488328 0)
(-0.103667 -0.586827 0)
(-0.110998 -0.632339 0)
(-0.0770089 -0.54732 0)
(-0.0227382 -0.252333 0)
(-0.0072606 0.0793432 0)
(-0.0256827 0.183017 0)
(-0.0446432 0.239826 0)
(-0.0535005 0.265466 0)
(-0.051358 0.272499 0)
(-0.0403473 0.269002 0)
(-0.0227968 0.259829 0)
(-0.000754954 0.247751 0)
(0.0241107 0.234223 0)
(0.0504879 0.219899 0)
(0.0773316 0.204954 0)
(0.103773 0.189286 0)
(0.129052 0.172633 0)
(0.152462 0.154644 0)
(0.173323 0.13491 0)
(0.19095 0.112971 0)
(0.204639 0.0883063 0)
(0.21364 0.0602995 0)
(0.217133 0.0282045 0)
(0.214194 -0.00892764 0)
(0.203789 -0.0523354 0)
(0.184742 -0.103635 0)
(0.155772 -0.165024 0)
(0.115745 -0.239412 0)
(0.064516 -0.329942 0)
(0.00480984 -0.437505 0)
(-0.0537181 -0.551785 0)
(-0.0904902 -0.633536 0)
(-0.0823209 -0.592874 0)
(-0.0299039 -0.30181 0)
(-0.0138564 0.0994554 0)
(-0.0425015 0.207979 0)
(-0.0653414 0.254507 0)
(-0.0705368 0.266919 0)
(-0.0600878 0.262493 0)
(-0.0386871 0.250435 0)
(-0.0101459 0.235413 0)
(0.0226911 0.219661 0)
(0.0577706 0.204109 0)
(0.0936346 0.189012 0)
(0.129222 0.174273 0)
(0.163713 0.159622 0)
(0.196418 0.144705 0)
(0.226714 0.129126 0)
(0.253987 0.11247 0)
(0.277608 0.0942971 0)
(0.296901 0.0741319 0)
(0.311116 0.0514348 0)
(0.319392 0.0255672 0)
(0.320704 -0.00427099 0)
(0.313879 -0.0391191 0)
(0.297485 -0.0803878 0)
(0.269789 -0.130124 0)
(0.22883 -0.191448 0)
(0.172779 -0.269025 0)
(0.101353 -0.368299 0)
(0.0202759 -0.488638 0)
(-0.0507436 -0.602605 0)
(-0.0802828 -0.619059 0)
(-0.0374679 -0.358568 0)
(-0.0254064 0.134906 0)
(-0.0670507 0.24092 0)
(-0.0864725 0.266641 0)
(-0.0779088 0.259125 0)
(-0.0502852 0.240151 0)
(-0.0117958 0.218722 0)
(0.0323783 0.19824 0)
(0.078973 0.179728 0)
(0.125945 0.163232 0)
(0.172028 0.148427 0)
(0.216405 0.134865 0)
(0.258499 0.122083 0)
(0.297839 0.109629 0)
(0.333984 0.0970803 0)
(0.366472 0.0840333 0)
(0.394789 0.0700955 0)
(0.41834 0.0548663 0)
(0.436427 0.0379131 0)
(0.448204 0.0187412 0)
(0.452625 -0.00325864 0)
(0.448461 -0.0288143 0)
(0.434138 -0.0590369 0)
(0.407679 -0.0955801 0)
(0.366606 -0.141186 0)
(0.307848 -0.20075 0)
(0.228222 -0.28254 0)
(0.128222 -0.395611 0)
(0.0209805 -0.531065 0)
(-0.0608298 -0.612684 0)
(-0.0408132 -0.421921 0)
(-0.0413343 0.19708 0)
(-0.0902765 0.272475 0)
(-0.0798297 0.25922 0)
(-0.0360584 0.226531 0)
(0.0220904 0.193887 0)
(0.0848734 0.166024 0)
(0.147678 0.143411 0)
(0.208267 0.125218 0)
(0.265618 0.110393 0)
(0.319331 0.0980176 0)
(0.369269 0.0873524 0)
(0.415379 0.0778067 0)
(0.457588 0.0689022 0)
(0.495764 0.0602423 0)
(0.529681 0.0514876 0)
(0.559012 0.0423341 0)
(0.583307 0.0324941 0)
(0.601985 0.0216748 0)
(0.614289 0.00955233 0)
(0.619311 -0.00427122 0)
(0.615875 -0.020196 0)
(0.602407 -0.0389383 0)
(0.576949 -0.0615953 0)
(0.536859 -0.0901007 0)
(0.478422 -0.128328 0)
(0.396338 -0.184476 0)
(0.285283 -0.273842 0)
(0.146129 -0.410552 0)
(-0.00330474 -0.554043 0)
(-0.0253632 -0.477555 0)
(-0.0341787 0.293632 0)
(-0.0480383 0.272429 0)
(0.0535427 0.199422 0)
(0.156628 0.149682 0)
(0.2497 0.114998 0)
(0.332186 0.0902332 0)
(0.404978 0.0726776 0)
(0.469227 0.0600983 0)
(0.52617 0.0507907 0)
(0.576907 0.0436111 0)
(0.622285 0.0378122 0)
(0.662901 0.0328878 0)
(0.699131 0.0284795 0)
(0.731163 0.0243223 0)
(0.759021 0.0202111 0)
(0.782579 0.0159783 0)
(0.801571 0.0114769 0)
(0.815593 0.00657129 0)
(0.824044 0.00112199 0)
(0.826314 -0.00495333 0)
(0.821457 -0.0119724 0)
(0.808193 -0.0202076 0)
(0.784917 -0.030128 0)
(0.749322 -0.0426697 0)
(0.697815 -0.0598855 0)
(0.624295 -0.0868667 0)
(0.518488 -0.137144 0)
(0.36516 -0.240248 0)
(0.144152 -0.406965 0)
(0.0588757 -0.458304 0)
(0.303189 0.180884 0)
(0.382337 0.144188 0)
(0.560456 0.0910322 0)
(0.686168 0.0589253 0)
(0.768907 0.0393445 0)
(0.828686 0.0269028 0)
(0.874837 0.0190319 0)
(0.911693 0.0140526 0)
(0.941939 0.0108188 0)
(0.967366 0.0086182 0)
(0.989104 0.00702831 0)
(1.00785 0.00579556 0)
(1.024 0.00476259 0)
(1.03778 0.00382811 0)
(1.04927 0.00292379 0)
(1.05846 0.00200055 0)
(1.06521 0.00101949 0)
(1.06937 -4.89521e-05 0)
(1.07069 -0.00123672 0)
(1.0688 -0.00247494 0)
(1.06321 -0.00394375 0)
(1.05345 -0.00567914 0)
(1.03873 -0.00775929 0)
(1.01786 -0.0103936 0)
(0.988803 -0.0140826 0)
(0.947423 -0.0201718 0)
(0.883912 -0.0325555 0)
(0.77632 -0.0637359 0)
(0.544814 -0.139456 0)
(0.38249 -0.201733 0)
)
;

boundaryField
{
    movingWall
    {
        type            fixedValue;
        value           uniform (1.2 0 0);
    }
    fixedWalls
    {
        type            noSlip;
    }
    frontAndBack
    {
        type            empty;
    }
}


// ************************************************************************* //
