/*--------------------------------*- C++ -*----------------------------------*\
  =========                 |
  \\      /  F ield         | OpenFOAM: The Open Source CFD Toolbox
   \\    /   O peration     | Website:  https://openfoam.org
    \\  /    A nd           | Version:  7
     \\/     M anipulation  |
\*---------------------------------------------------------------------------*/
FoamFile
{
    version     2.0;
    format      ascii;
    class       surfaceScalarField;
    location    "6.3";
    object      phi;
}
// * * * * * * * * * * * * * * * * * * * * * * * * * * * * * * * * * * * * * //

dimensions      [0 3 -1 0 0 0 0];

internalField   nonuniform List<scalar> 
1740
(
7.55705e-07
-7.5627e-07
3.76899e-07
3.78814e-07
-1.51967e-06
1.89657e-06
-4.767e-06
3.24734e-06
-9.02789e-06
4.2609e-06
-1.39669e-05
4.939e-06
-1.93024e-05
5.33551e-06
-2.48059e-05
5.50349e-06
-3.02815e-05
5.47561e-06
-3.55433e-05
5.26186e-06
-4.03984e-05
4.85503e-06
-4.46377e-05
4.23938e-06
-4.80383e-05
3.4006e-06
-5.03738e-05
2.3355e-06
-5.14344e-05
1.06054e-06
-5.1052e-05
-3.82414e-07
-4.91291e-05
-1.92284e-06
-4.56674e-05
-3.46176e-06
-4.07884e-05
-4.87893e-06
-3.47441e-05
-6.04432e-06
-2.79104e-05
-6.83368e-06
-2.07636e-05
-7.14687e-06
-1.3838e-05
-6.92555e-06
-7.67116e-06
-6.16686e-06
-2.74027e-06
-4.93088e-06
6.05573e-07
-3.34584e-06
2.21999e-06
-1.61441e-06
2.21782e-06
2.1768e-09
1.0782e-06
1.13962e-06
1.07821e-06
-3.62615e-07
-3.93643e-07
-3.4879e-06
3.50411e-06
-9.89252e-06
8.30119e-06
-1.91955e-05
1.25503e-05
-3.077e-05
1.58354e-05
-4.39353e-05
1.81043e-05
-5.80503e-05
1.94505e-05
-7.25362e-05
1.99894e-05
-8.68598e-05
1.97993e-05
-0.000100504
1.89063e-05
-0.000112945
1.72957e-05
-0.000123641
1.49351e-05
-0.000132043
1.1803e-05
-0.000137625
7.9172e-06
-0.000139923
3.35837e-06
-0.000138598
-1.70693e-06
-0.000133479
-7.04202e-06
-0.000124632
-1.23087e-05
-0.00011239
-1.71211e-05
-9.73666e-05
-2.10677e-05
-8.04394e-05
-2.37609e-05
-6.26943e-05
-2.4892e-05
-4.53351e-05
-2.42847e-05
-2.95638e-05
-2.19381e-05
-1.64416e-05
-1.80531e-05
-6.74686e-06
-1.30406e-05
-8.40186e-07
-7.52108e-06
1.49951e-06
-2.33751e-06
1.19048e-06
1.44866e-06
2.2687e-06
-2.04465e-06
1.65101e-06
-8.84818e-06
1.03077e-05
-2.02379e-05
1.96909e-05
-3.55615e-05
2.78739e-05
-5.39473e-05
3.42212e-05
-7.4474e-05
3.8631e-05
-9.6253e-05
4.12295e-05
-0.000118451
4.21871e-05
-0.000140273
4.16215e-05
-0.000160938
3.95718e-05
-0.000179658
3.60157e-05
-0.000195634
3.09105e-05
-0.000208074
2.42437e-05
-0.000216241
1.60836e-05
-0.000219504
6.62179e-06
-0.000217412
-3.79874e-06
-0.000209767
-1.46871e-05
-0.000196689
-2.53872e-05
-0.000178659
-3.51511e-05
-0.000156537
-4.31891e-05
-0.000131538
-4.87598e-05
-0.00010516
-5.12704e-05
-7.90678e-05
-5.0377e-05
-5.49369e-05
-4.60691e-05
-3.42668e-05
-3.87231e-05
-1.81873e-05
-2.91201e-05
-7.27267e-06
-1.84357e-05
-1.39751e-06
-8.21266e-06
4.13884e-07
-3.62735e-07
2.68258e-06
-3.83323e-06
5.48423e-06
-1.45217e-05
2.09962e-05
-3.10825e-05
3.62517e-05
-5.24012e-05
4.91926e-05
-7.73141e-05
5.9134e-05
-0.000104682
6.59992e-05
-0.000133427
6.99744e-05
-0.000162528
7.12878e-05
-0.000190998
7.00916e-05
-0.000217858
6.64316e-05
-0.000242118
6.02758e-05
-0.000262783
5.15754e-05
-0.000278878
4.03393e-05
-0.000289502
2.67072e-05
-0.000293891
1.10108e-05
-0.000291499
-6.19056e-06
-0.00028208
-2.41063e-05
-0.00026576
-4.17069e-05
-0.000243093
-5.78184e-05
-0.000215081
-7.12013e-05
-0.000183158
-8.0683e-05
-0.000149118
-8.53097e-05
-0.000114992
-8.45038e-05
-8.2859e-05
-7.82017e-05
-5.46344e-05
-6.69477e-05
-3.18268e-05
-5.19277e-05
-1.53195e-05
-3.4943e-05
-5.19679e-06
-1.83354e-05
-6.63429e-07
-4.8961e-06
2.01915e-06
-5.55503e-06
1.10393e-05
-2.00925e-05
3.55336e-05
-4.17773e-05
5.79365e-05
-6.89592e-05
7.63745e-05
-0.000100142
9.03169e-05
-0.000133971
9.98281e-05
-0.000169207
0.000105211
-0.000204691
0.000106771
-0.000239298
0.000104699
-0.000271909
9.9042e-05
-0.000301386
8.97533e-05
-0.000326587
7.67763e-05
-0.000346391
6.01434e-05
-0.000359755
4.00713e-05
-0.000365785
1.70406e-05
-0.000363819
-8.15669e-06
-0.00035351
-3.44151e-05
-0.000334919
-6.0298e-05
-0.000308577
-8.41602e-05
-0.00027553
-0.000104249
-0.000237338
-0.000118875
-0.00019602
-0.000126627
-0.000153932
-0.000126592
-0.000113569
-0.000118564
-7.73125e-05
-0.000103205
-4.71426e-05
-8.20976e-05
-2.43707e-05
-5.77148e-05
-9.43336e-06
-3.32728e-05
-1.79948e-06
-1.253e-05
2.19673e-07
-7.15916e-06
1.81984e-05
-2.53691e-05
5.37436e-05
-5.1974e-05
8.45413e-05
-8.47768e-05
0.000109177
-0.000121937
0.000127478
-0.000161889
0.00013978
-0.000203257
0.000146579
-0.000244779
0.000148293
-0.000285239
0.000145159
-0.000323423
0.000137226
-0.000358095
0.000124425
-0.000388
0.000106682
-0.000411897
8.40399e-05
-0.000428606
5.67806e-05
-0.000437085
2.55192e-05
-0.000436511
-8.73011e-06
-0.000426368
-4.45586e-05
-0.000406557
-8.01087e-05
-0.000377483
-0.000113234
-0.000340128
-0.000141604
-0.000296088
-0.000162916
-0.000247549
-0.000175166
-0.000197186
-0.000176955
-0.000147954
-0.000167796
-0.000102806
-0.000148353
-6.43356e-05
-0.000120568
-3.44392e-05
-8.76113e-05
-1.40423e-05
-5.36696e-05
-2.97463e-06
-2.35977e-05
-2.75496e-06
-8.62875e-06
2.68272e-05
-3.02493e-05
7.53641e-05
-6.14549e-05
0.000115747
-9.9532e-05
0.000147255
-0.000142312
0.000170257
-0.000188032
0.0001855
-0.000235204
0.000193751
-0.000282497
0.000195585
-0.000328642
0.000191305
-0.000372375
0.000180959
-0.000412397
0.000164447
-0.000447375
0.00014166
-0.000475962
0.000112627
-0.000496842
7.76602e-05
-0.000508795
3.74723e-05
-0.000510795
-6.72978e-06
-0.000502063
-5.32913e-05
-0.000482246
-9.99249e-05
-0.000451506
-0.000143974
-0.000410639
-0.000182471
-0.000361171
-0.000212384
-0.000305386
-0.000230951
-0.000246262
-0.000236079
-0.000187276
-0.000226782
-0.000132079
-0.00020355
-8.40654e-05
-0.000168582
-4.59135e-05
-0.000125763
-1.92095e-05
-8.03737e-05
-4.24395e-06
-3.85632e-05
-6.99891e-06
-9.94843e-06
3.67756e-05
-3.46516e-05
0.000100067
-7.00411e-05
0.000151137
-0.000112943
0.000190156
-0.000160894
0.000218209
-0.000211964
0.00023657
-0.000264577
0.000246364
-0.000317364
0.000248372
-0.000369042
0.000242983
-0.000418333
0.00023025
-0.000463914
0.000210028
-0.000504402
0.000182147
-0.000538361
0.000146586
-0.000564338
0.000103638
-0.000580911
5.40446e-05
-0.000586824
-8.16722e-07
-0.000580924
-5.91909e-05
-0.000562532
-0.000118317
-0.00053143
-0.000175077
-0.00048809
-0.000225811
-0.000433832
-0.000266642
-0.00037093
-0.000293853
-0.000302616
-0.000304394
-0.000232921
-0.000296476
-0.00016633
-0.000270141
-0.000107251
-0.000227661
-5.94003e-05
-0.000173614
-2.52524e-05
-0.000114522
-5.70727e-06
-5.81084e-05
-1.27062e-05
-1.10946e-05
4.78702e-05
-3.8486e-05
0.000127459
-7.75476e-05
0.000190198
-0.000124716
0.000237325
-0.000177281
0.000270774
-0.000233177
0.000292465
-0.000290771
0.000303958
-0.000348687
0.000306289
-0.00040566
0.000299956
-0.000460436
0.000285025
-0.000511702
0.000261295
-0.000558059
0.000228504
-0.000598008
0.000186535
-0.000629973
0.000135602
-0.00065234
7.64125e-05
-0.000663476
1.03185e-05
-0.000661999
-6.0668e-05
-0.000646684
-0.000133631
-0.000616835
-0.000204926
-0.000572447
-0.000270199
-0.00051446
-0.000324629
-0.000444969
-0.000363343
-0.000367341
-0.000382022
-0.000286138
-0.00037768
-0.000206777
-0.000349502
-0.000134912
-0.000299526
-7.56122e-05
-0.000232914
-3.25549e-05
-0.000157579
-7.48436e-06
-8.3179e-05
-2.01906e-05
-1.20358e-05
5.9906e-05
-4.16489e-05
0.000157072
-8.37713e-05
0.00023232
-0.000134531
0.000288084
-0.000191024
0.000327267
-0.000251082
0.000352524
-0.000313046
0.000365922
-0.00037556
0.000368802
-0.000437408
0.000361804
-0.000497392
0.00034501
-0.000554251
0.000318154
-0.000606605
0.000280858
-0.000652929
0.000232859
-0.00069155
0.000174224
-0.000720668
0.00010553
-0.000738391
2.80416e-05
-0.00074289
-5.61693e-05
-0.000732463
-0.000144058
-0.000705804
-0.000231585
-0.00066227
-0.000313733
-0.000602209
-0.00038469
-0.000527304
-0.000438249
-0.000440835
-0.00046849
-0.000347761
-0.000470754
-0.000254457
-0.000442805
-0.000168035
-0.000385947
-9.529e-05
-0.000305659
-4.15304e-05
-0.000211338
-9.70469e-06
-0.000115005
-2.98953e-05
-1.27369e-05
7.26429e-05
-4.40306e-05
0.000188365
-8.8502e-05
0.000276792
-0.000142056
0.000341638
-0.000201645
0.000386856
-0.000265034
0.000415913
-0.00033056
0.000431448
-0.000396908
0.000435151
-0.000462939
0.000427835
-0.000527546
0.000409616
-0.000589554
0.000380162
-0.00064765
0.000338954
-0.000700334
0.000285543
-0.000745891
0.000219781
-0.000782392
0.000142031
-0.000807715
5.33643e-05
-0.000819637
-4.42474e-05
-0.000815947
-0.000147747
-0.000794675
-0.000252857
-0.000754393
-0.000354014
-0.000694632
-0.000444451
-0.000616351
-0.000516529
-0.000522413
-0.000562428
-0.000417889
-0.000575279
-0.000309992
-0.000550702
-0.000207433
-0.000488506
-0.000119135
-0.000393957
-5.25984e-05
-0.000277875
-1.25038e-05
-0.000155099
-4.2399e-05
-1.31647e-05
8.58076e-05
-4.55303e-05
0.000220731
-9.15455e-05
0.000322807
-0.000146976
0.000397069
-0.000208681
0.00044856
-0.000274383
0.000481615
-0.000342429
0.000499494
-0.000411566
0.000504288
-0.00048075
0.000497019
-0.000548993
0.000477859
-0.000615248
0.000446417
-0.000678318
0.000402024
-0.000736792
0.000344017
-0.000788994
0.000271983
-0.000832953
0.00018599
-0.000866407
8.68177e-05
-0.000886836
-2.38185e-05
-0.000891573
-0.00014301
-0.000877977
-0.000266453
-0.00084375
-0.000388242
-0.000787387
-0.000500814
-0.000708782
-0.000595134
-0.000609925
-0.000661285
-0.000495531
-0.000689672
-0.000373322
-0.000672912
-0.00025358
-0.000608247
-0.000147735
-0.000499802
-6.61624e-05
-0.000359448
-1.60216e-05
-0.00020524
-5.84207e-05
-1.32956e-05
9.91032e-05
-4.60756e-05
0.000253511
-9.27577e-05
0.000369489
-0.000149047
0.000453358
-0.000211745
0.000511259
-0.000278553
0.000548423
-0.000347836
0.000568777
-0.00041841
0.000574862
-0.000489339
0.000567948
-0.000559779
0.0005483
-0.000628847
0.000515485
-0.00069552
0.000468697
-0.000758548
0.000407046
-0.000816391
0.000329826
-0.000867161
0.000236761
-0.00090859
0.000128246
-0.000938009
5.60031e-06
-0.000952433
-0.000128586
-0.000948636
-0.00027025
-0.000923441
-0.000413437
-0.000874161
-0.000550094
-0.000799291
-0.000670004
-0.000699418
-0.000761158
-0.000578247
-0.000810844
-0.000443393
-0.000807766
-0.00030641
-0.00074523
-0.000181465
-0.000624747
-8.25811e-05
-0.000458332
-2.04008e-05
-0.00026742
-7.88215e-05
-1.31229e-05
0.000112226
-4.56457e-05
0.000286034
-9.20838e-05
0.000415927
-0.000148145
0.000509418
-0.000210602
0.000573717
-0.00027714
0.00061496
-0.000346146
0.000637783
-0.000416503
0.000645219
-0.000487394
0.000638839
-0.000558138
0.000619043
-0.000628048
0.000585396
-0.000696328
0.000536976
-0.000761969
0.000472687
-0.000823675
0.000391531
-0.000879778
0.000292864
-0.000928174
0.000176642
-0.000966266
4.3692e-05
-0.000990921
-0.000103931
-0.000998536
-0.000262635
-0.000985167
-0.000426806
-0.000946918
-0.000588342
-0.000880634
-0.000736288
-0.000784978
-0.000856815
-0.000661847
-0.000933974
-0.000517839
-0.000951774
-0.000365068
-0.000898002
-0.000220357
-0.000769458
-0.000102127
-0.000576562
-2.57817e-05
-0.000343766
-0.000104603
-1.26653e-05
0.000124891
-4.42957e-05
0.000317664
-8.96024e-05
0.000461234
-0.000144335
0.000564151
-0.000205252
0.000634633
-0.000270018
0.000679726
-0.00033704
0.000704805
-0.00040527
0.000713448
-0.000474013
0.000707583
-0.000542765
0.000687795
-0.000611068
0.000653699
-0.000678399
0.000604307
-0.000744066
0.000538354
-0.000807118
0.000454584
-0.000866254
0.000351999
-0.000919717
0.000230105
-0.000965192
8.91675e-05
-0.000999675
-6.94478e-05
-0.00101946
-0.000242847
-0.00102008
-0.000426186
-0.000996573
-0.000611852
-0.00094406
-0.000788801
-0.000858875
-0.000942
-0.000740292
-0.00105256
-0.00059272
-0.00109935
-0.000427647
-0.00106307
-0.00026394
-0.000933164
-0.000124928
-0.000715574
-3.22948e-05
-0.000436399
-0.000136898
-1.19755e-05
0.000136867
-4.21821e-05
0.000347871
-8.55704e-05
0.000504622
-0.000137934
0.000616515
-0.000196007
0.000692706
-0.000257435
0.000741154
-0.000320641
0.000768011
-0.000384648
0.000777455
-0.000448894
0.000771829
-0.000513067
0.000751968
-0.000576964
0.000717596
-0.000640378
0.000667721
-0.000702994
0.00060097
-0.000764298
0.000515888
-0.000823472
0.000411173
-0.000879275
0.000285908
-0.000929899
0.000139792
-0.000972726
-2.66208e-05
-0.00100431
-0.000211261
-0.00102
-0.000410494
-0.00101411
-0.00061775
-0.000980201
-0.000822705
-0.00091214
-0.00101006
-0.000805905
-0.00115879
-0.000662448
-0.0012428
-0.000490977
-0.00123455
-0.000311062
-0.00111308
-0.000150898
-0.000875738
-4.00502e-05
-0.000547247
-0.000176948
-1.11484e-05
0.000148015
-3.95896e-05
0.000376312
-8.04675e-05
0.0005455
-0.000129567
0.000665614
-0.00018357
0.00074671
-0.000240099
0.000797682
-0.000297605
0.000825517
-0.0003552
0.000835051
-0.000412476
0.000829105
-0.000469337
0.000808828
-0.000525861
0.00077412
-0.000582189
0.000724049
-0.000638429
0.00065721
-0.000694562
0.00057202
-0.00075034
0.000466951
-0.000805158
0.000340726
-0.000857881
0.000192516
-0.000906583
2.20805e-05
-0.00094832
-0.000169525
-0.000978748
-0.000380066
-0.000991924
-0.000604574
-0.000980339
-0.00083429
-0.000935569
-0.00105483
-0.000849995
-0.00124437
-0.000719993
-0.0013728
-0.000550536
-0.001404
-0.000359734
-0.00130388
-0.000179662
-0.00105581
-4.91294e-05
-0.000677779
-0.000226078
-1.0333e-05
0.000158348
-3.69635e-05
0.000402943
-7.50456e-05
0.000583582
-0.000120225
0.000710793
-0.000169084
0.00079557
-0.000219228
0.000847826
-0.000269174
0.000875462
-0.000318169
0.000884046
-0.000366
0.000876936
-0.000412824
0.000855652
-0.000459032
0.000820328
-0.000505141
0.000770158
-0.000551703
0.000703773
-0.000599223
0.00061954
-0.00064806
0.000515788
-0.000698303
0.000390969
-0.000749582
0.000243795
-0.000800873
7.33719e-05
-0.000849956
-0.000120442
-0.000893259
-0.000336762
-0.000925172
-0.000572662
-0.000937782
-0.00082168
-0.000921017
-0.0010716
-0.00086386
-0.00130152
-0.000757439
-0.00147922
-0.00060058
-0.00156086
-0.000407044
-0.00149742
-0.000210497
-0.00125236
-5.95869e-05
-0.000828689
-0.000285664
-9.75117e-06
0.000168099
-3.49547e-05
0.000428146
-7.03867e-05
0.000619014
-0.00011132
0.000751727
-0.000154172
0.000838422
-0.000196566
0.000890219
-0.000237163
0.00091606
-0.000275436
0.000922319
-0.000311441
0.000912942
-0.000345646
0.000889857
-0.000378791
0.000853473
-0.000411789
0.000803156
-0.000445644
0.000737628
-0.000481377
0.000655274
-0.000519943
0.000554353
-0.000562111
0.000433137
-0.000608308
0.000289992
-0.000658383
0.000123447
-0.000711169
-6.76559e-05
-0.000764115
-0.000283816
-0.000812534
-0.000524243
-0.000848945
-0.000785268
-0.000862606
-0.00105793
-0.000839916
-0.00132421
-0.000766808
-0.00155233
-0.000634504
-0.00169317
-0.00044917
-0.00168275
-0.000242297
-0.00145923
-7.14747e-05
-0.000999512
-0.000357139
-9.73407e-06
0.000177833
-3.44952e-05
0.000452907
-6.7985e-05
0.000652504
-0.000104743
0.000788484
-0.00014095
0.00087463
-0.000174343
0.000923612
-0.000203877
0.000945594
-0.000229391
0.000947832
-0.000251329
0.00093488
-0.000270548
0.000909076
-0.000288182
0.000871107
-0.000305555
0.000820528
-0.000324108
0.000756181
-0.000345342
0.000676508
-0.000370747
0.000579758
-0.000401707
0.000464098
-0.000439369
0.000327653
-0.000484431
0.000168509
-0.000536798
-1.52888e-05
-0.000595155
-0.000225459
-0.000656193
-0.000463205
-0.00071369
-0.000727772
-0.000757436
-0.00101419
-0.000772621
-0.00130903
-0.000740905
-0.00158405
-0.000645359
-0.00178871
-0.000481502
-0.00184661
-0.000273565
-0.00166717
-8.49019e-05
-0.00118817
-0.000442041
-1.07943e-05
0.000188628
-3.69273e-05
0.00047904
-6.98655e-05
0.000685442
-0.000102912
0.000821531
-0.000131996
0.000903714
-0.000155162
0.000946778
-0.000171909
0.00096234
-0.000182657
0.00095858
-0.000188397
0.00094062
-0.000190472
0.000911151
-0.000190457
0.000871093
-0.000190089
0.00082016
-0.000191215
0.000757307
-0.000195751
0.000681044
-0.000205632
0.000589639
-0.000222745
0.000481211
-0.000248828
0.000353736
-0.000285314
0.000204995
-0.000333114
3.25107e-05
-0.000392142
-0.000166431
-0.000460769
-0.000394578
-0.000534688
-0.000653852
-0.000605446
-0.00094343
-0.000658769
-0.00125571
-0.00067385
-0.00156897
-0.000626283
-0.00183628
-0.000498763
-0.00197413
-0.000302371
-0.00186356
-0.000100125
-0.00139042
-0.000542166
-1.37675e-05
0.000202395
-4.422e-05
0.000509493
-7.87368e-05
0.000719959
-0.000108792
0.000851586
-0.000130202
0.000925123
-0.000141705
0.000958281
-0.000143724
0.00096436
-0.000137562
0.000952418
-0.000124947
0.000928005
-0.000107816
0.00089402
-8.82195e-05
0.000851496
-6.82946e-05
0.000800235
-5.02377e-05
0.00073925
-3.62971e-05
0.000667103
-2.87418e-05
0.000582083
-2.98204e-05
0.00048229
-4.17106e-05
0.000365626
-6.64361e-05
0.00022972
-0.000105715
7.179e-05
-0.000160675
-0.000111471
-0.000231361
-0.000323892
-0.000315799
-0.000569415
-0.000408288
-0.000850941
-0.000496938
-0.00116706
-0.000560973
-0.00150493
-0.000570568
-0.00182668
-0.000494936
-0.00204976
-0.000326171
-0.00203232
-0.000117623
-0.00159897
-0.000659789
-2.00789e-05
0.000222474
-5.92883e-05
0.000548702
-9.81063e-05
0.000758777
-0.000125696
0.000879176
-0.000138278
0.000937705
-0.000135981
0.000955984
-0.000120713
0.000949092
-9.50266e-05
0.000926732
-6.15978e-05
0.000894577
-2.30499e-05
0.000855472
1.80832e-05
0.000810363
5.93232e-05
0.000758995
9.81959e-05
0.000700377
0.000132228
0.000633071
0.000158933
0.000555379
0.000175815
0.000465408
0.000180387
0.000361054
0.000170203
0.000239904
0.000142907
9.90862e-05
9.63543e-05
-6.49189e-05
2.89382e-05
-0.000256475
-5.97329e-05
-0.000480743
-0.000167375
-0.000743299
-0.000286089
-0.00104834
-0.000397935
-0.00139309
-0.000471118
-0.0017535
-0.000462753
-0.00205812
-0.000341264
-0.00215381
-0.00013801
-0.00180222
-0.000797798
-3.22121e-05
0.000254686
-8.63431e-05
0.000602833
-0.000132044
0.000804478
-0.000156371
0.000903502
-0.000157259
0.000938594
-0.000137384
0.000936108
-0.000100898
0.000912606
-5.20194e-05
0.000877854
5.44257e-06
0.000837115
6.81574e-05
0.000792757
0.000133138
0.000745383
0.000197635
0.000694498
0.000259027
0.000638985
0.000314735
0.000577363
0.00036218
0.000507934
0.000398747
0.000428841
0.000421768
0.000338034
0.000428492
0.00023318
0.000416062
0.000111516
0.000381498
-3.03558e-05
0.000321892
-0.000196869
0.000234617
-0.000393469
0.000118544
-0.000627225
-2.33742e-05
-0.000906425
-0.000179075
-0.00123738
-0.000319124
-0.00161345
-0.000392426
-0.00198482
-0.000341501
-0.00220474
-0.000161418
-0.00198231
-0.000959216
-5.4441e-05
0.000309127
-0.000130845
0.000679237
-0.000183571
0.000857205
-0.000199918
0.000919849
-0.000182304
0.00092098
-0.000137725
0.000891529
-7.34898e-05
0.00084837
4.15254e-06
0.000800211
9.02092e-05
0.000751058
0.000180692
0.000702275
0.000272328
0.000653746
0.000362274
0.000604552
0.000447915
0.000553345
0.000526722
0.000498555
0.000596163
0.000438493
0.000653629
0.000371376
0.000696374
0.000295289
0.00072145
0.000208103
0.000725624
0.000107342
0.000705213
-9.94418e-06
0.000656361
-0.000148018
0.000574596
-0.000311704
0.000455692
-0.000508321
0.00029739
-0.000748124
0.000104446
-0.00104444
-0.000101578
-0.00140743
-0.000269179
-0.00181722
-0.000315584
-0.00215833
-0.000185678
-0.00211221
-0.00114489
-9.35558e-05
0.000402683
-0.000197316
0.000782997
-0.000248509
0.000908399
-0.000242659
0.000913999
-0.000191776
0.000870096
-0.000109477
0.000809231
-6.97336e-06
0.000745866
0.000107461
0.000685777
0.000227931
0.000630588
0.000350205
0.00058
0.000471088
0.000532864
0.000587968
0.000487672
0.00069852
0.000442793
0.000800496
0.000396578
0.000891599
0.00034739
0.000969378
0.000293596
0.00103115
0.000233517
0.0010739
0.000165352
0.00109418
8.70645e-05
0.0010877
-3.46756e-06
0.00105012
-0.000110436
0.000975525
-0.000237107
0.000857386
-0.000390182
0.000688992
-0.00057973
0.000466704
-0.000822153
0.000200071
-0.0011408
-6.74054e-05
-0.00154975
-0.000241976
-0.00198376
-0.00020315
-0.00215104
-0.00134804
-0.000157688
0.000560371
-0.000277808
0.000903116
-0.000295294
0.000925885
-0.000233651
0.000852356
-0.000121897
0.000758342
1.83096e-05
0.000669024
0.000172638
0.000591539
0.000332105
0.00052631
0.000491212
0.00047148
0.000646532
0.00042468
0.000795763
0.000383633
0.000937144
0.000346291
0.00106909
0.000310845
0.00118999
0.000275682
0.00129803
0.000239344
0.00139116
0.000200472
0.00146693
0.000157746
0.00152247
0.000109814
0.00155429
5.52379e-05
0.00155812
-7.2941e-06
0.00152897
-8.12871e-05
0.00146039
-0.000168528
0.00134443
-0.000274223
0.00117127
-0.000406562
0.000929973
-0.000580862
0.000614792
-0.000825615
0.000247413
-0.00118237
-7.94388e-05
-0.00165691
-0.000194306
-0.00203617
-0.00154235
-0.00024348
0.000803851
-0.000303009
0.000962646
-0.000204986
0.000827861
-2.72781e-05
0.000674648
0.000181495
0.000549569
0.000397634
0.000452885
0.000609583
0.00037959
0.000811972
0.000323921
0.00100263
0.000280821
0.00118087
0.000246441
0.00134654
0.000217966
0.00149953
0.0001933
0.00163954
0.000170827
0.00176596
0.000149263
0.00187776
0.000127543
0.00197349
0.000104752
0.00205117
8.00566e-05
0.00210833
5.26628e-05
0.00214177
2.17948e-05
0.00214798
-1.35007e-05
0.00212143
-5.47452e-05
0.00205612
-0.000103215
0.00194377
-0.00016187
0.00177311
-0.000235906
0.00152837
-0.000336116
0.00118927
-0.000486518
0.00074495
-0.000738048
0.000252688
-0.00116465
-8.1552e-05
-0.00170193
-0.0016239
-0.000193663
0.000997515
1.96074e-05
0.000749375
0.000374429
0.00047304
0.000714928
0.000334149
0.00101965
0.000244853
0.00128844
0.000184089
0.00152486
0.000143169
0.00173347
0.000115312
0.00191865
9.5639e-05
0.00208401
8.10818e-05
0.00223224
6.97414e-05
0.00236516
6.03805e-05
0.00248384
5.21499e-05
0.00258866
4.44393e-05
0.00267941
3.67894e-05
0.00275533
2.88355e-05
0.00281511
2.02713e-05
0.00285692
1.08603e-05
0.00287802
6.95337e-07
0.00287652
-1.20027e-05
0.0028473
-2.55232e-05
0.00278574
-4.16583e-05
0.00268493
-6.10592e-05
0.00253461
-8.55858e-05
0.00231805
-0.000119554
0.00200595
-0.000174419
0.00155128
-0.000283385
0.00092709
-0.000540453
0.00026368
-0.00103852
-0.00136022
0.000997515
0.00174689
0.00221993
0.00255408
0.00279893
0.00298302
0.00312619
0.0032415
0.00333714
0.00341822
0.00348796
0.00354834
0.00360049
0.00364493
0.00368172
0.00371056
0.00373083
0.00374169
0.00374238
0.00373038
0.00370486
0.0036632
0.00360214
0.00351656
0.003397
0.00322258
0.0029392
0.00239874
0.00136022
)
;

boundaryField
{
    movingWall
    {
        type            calculated;
        value           uniform 0;
    }
    fixedWalls
    {
        type            calculated;
        value           uniform 0;
    }
    frontAndBack
    {
        type            empty;
        value           nonuniform 0();
    }
}


// ************************************************************************* //
