/*--------------------------------*- C++ -*----------------------------------*\
  =========                 |
  \\      /  F ield         | OpenFOAM: The Open Source CFD Toolbox
   \\    /   O peration     | Website:  https://openfoam.org
    \\  /    A nd           | Version:  7
     \\/     M anipulation  |
\*---------------------------------------------------------------------------*/
FoamFile
{
    version     2.0;
    format      ascii;
    class       volVectorField;
    location    "6.3";
    object      U;
}
// * * * * * * * * * * * * * * * * * * * * * * * * * * * * * * * * * * * * * //

dimensions      [0 1 -1 0 0 0 0];

internalField   nonuniform List<vector> 
900
(
(0.000149153 -0.00014819 0)
(0.000253255 -5.64697e-05 0)
(-7.19502e-05 0.000101906 0)
(-0.000826081 0.000240341 0)
(-0.00191841 0.000339553 0)
(-0.00325101 0.000402585 0)
(-0.004735 0.000438324 0)
(-0.00629761 0.000454468 0)
(-0.00787912 0.000455433 0)
(-0.00942597 0.000442455 0)
(-0.0108846 0.000414444 0)
(-0.0121978 0.000369064 0)
(-0.0133033 0.00030385 0)
(-0.014136 0.000217293 0)
(-0.0146322 0.000109819 0)
(-0.0147364 -1.549e-05 0)
(-0.0144091 -0.000152849 0)
(-0.0136352 -0.000292786 0)
(-0.0124315 -0.000423503 0)
(-0.0108515 -0.000531849 0)
(-0.00898563 -0.00060496 0)
(-0.00695777 -0.000632246 0)
(-0.00491508 -0.000607294 0)
(-0.00301406 -0.000529281 0)
(-0.00140261 -0.000403693 0)
(-0.00020055 -0.000243069 0)
(0.000510148 -6.77946e-05 0)
(0.000716429 9.98143e-05 0)
(0.000510473 0.00020296 0)
(0.000161432 0.000160351 0)
(6.40063e-05 -0.000259895 0)
(-0.00031861 0.000316644 0)
(-0.00169783 0.00110382 0)
(-0.0039806 0.00180608 0)
(-0.00700711 0.00234202 0)
(-0.0105863 0.00270686 0)
(-0.0145256 0.00292281 0)
(-0.01865 0.00301412 0)
(-0.0228022 0.00299644 0)
(-0.026834 0.00287481 0)
(-0.0305974 0.00264602 0)
(-0.0339402 0.00230289 0)
(-0.0367053 0.00183931 0)
(-0.0387364 0.00125518 0)
(-0.0398889 0.000560671 0)
(-0.0400444 -0.000220728 0)
(-0.0391265 -0.00105039 0)
(-0.0371171 -0.00187563 0)
(-0.0340718 -0.00263316 0)
(-0.0301261 -0.00325492 0)
(-0.0254956 -0.00367629 0)
(-0.0204653 -0.00384552 0)
(-0.0153693 -0.00373277 0)
(-0.0105596 -0.0033373 0)
(-0.00636874 -0.00269157 0)
(-0.00306803 -0.0018632 0)
(-0.000828697 -0.000956301 0)
(0.000311189 -0.000106068 0)
(0.000515093 0.000482759 0)
(0.000209679 0.000507335 0)
(-0.000108254 6.92836e-05 0)
(-0.00119824 0.00171554 0)
(-0.00384322 0.00363677 0)
(-0.00772685 0.0053394 0)
(-0.0126055 0.00666401 0)
(-0.0182277 0.00758513 0)
(-0.0243324 0.00813289 0)
(-0.0306724 0.00834789 0)
(-0.0370167 0.00825829 0)
(-0.0431419 0.00787366 0)
(-0.0488244 0.00718878 0)
(-0.0538367 0.00619254 0)
(-0.0579495 0.00487904 0)
(-0.0609409 0.00325864 0)
(-0.0626107 0.00136722 0)
(-0.0627998 -0.000727418 0)
(-0.0614107 -0.00292261 0)
(-0.0584285 -0.00508494 0)
(-0.0539374 -0.00705796 0)
(-0.0481296 -0.0086765 0)
(-0.0413045 -0.00978552 0)
(-0.0338557 -0.0102617 0)
(-0.0262441 -0.0100348 0)
(-0.0189585 -0.00910449 0)
(-0.0124653 -0.00755177 0)
(-0.00715311 -0.00554198 0)
(-0.00327794 -0.00332442 0)
(-0.000914447 -0.0012299 0)
(9.17661e-05 0.000324558 0)
(0.000145359 0.000764612 0)
(-0.000288255 0.000911979 0)
(-0.00213385 0.00421325 0)
(-0.00611708 0.00763817 0)
(-0.0116308 0.0105988 0)
(-0.0183169 0.0128925 0)
(-0.0258637 0.0144863 0)
(-0.0339552 0.0154213 0)
(-0.0422907 0.0157535 0)
(-0.0505854 0.0155213 0)
(-0.0585599 0.0147372 0)
(-0.0659334 0.0133936 0)
(-0.0724211 0.0114773 0)
(-0.0777387 0.00898726 0)
(-0.0816139 0.00595202 0)
(-0.0838037 0.00244455 0)
(-0.0841156 -0.00140831 0)
(-0.0824314 -0.00542355 0)
(-0.0787296 -0.00936648 0)
(-0.0731051 -0.0129657 0)
(-0.06578 -0.015936 0)
(-0.0571055 -0.0180096 0)
(-0.0475493 -0.0189714 0)
(-0.0376677 -0.0186952 0)
(-0.0280612 -0.0171746 0)
(-0.0193165 -0.0145429 0)
(-0.0119391 -0.0110797 0)
(-0.00628508 -0.0072066 0)
(-0.00249867 -0.00347363 0)
(-0.000483541 -0.000546205 0)
(5.40485e-05 0.000744608 0)
(-0.000456147 0.00225871 0)
(-0.00304357 0.00782431 0)
(-0.00835956 0.0131115 0)
(-0.015482 0.0175416 0)
(-0.0239208 0.0209263 0)
(-0.0332995 0.0232545 0)
(-0.0432525 0.0245911 0)
(-0.0534378 0.0250103 0)
(-0.0635317 0.0245604 0)
(-0.0732153 0.0232549 0)
(-0.0821666 0.021083 0)
(-0.0900583 0.01803 0)
(-0.0965641 0.0141019 0)
(-0.10137 0.00934989 0)
(-0.104194 0.00388964 0)
(-0.104809 -0.00208599 0)
(-0.103064 -0.00830431 0)
(-0.0989131 -0.014418 0)
(-0.0924382 -0.0200262 0)
(-0.0838628 -0.0247062 0)
(-0.073561 -0.0280556 0)
(-0.0620499 -0.0297442 0)
(-0.0499649 -0.0295676 0)
(-0.0380138 -0.0274951 0)
(-0.026912 -0.0237036 0)
(-0.0173031 -0.0185903 0)
(-0.00967462 -0.012763 0)
(-0.00427729 -0.00700997 0)
(-0.00111046 -0.00226012 0)
(-3.5283e-05 0.000399685 0)
(-0.000608516 0.00408211 0)
(-0.00389716 0.0125172 0)
(-0.010492 0.0200283 0)
(-0.01916 0.0261314 0)
(-0.0292754 0.0307121 0)
(-0.040395 0.0338181 0)
(-0.0521078 0.0355576 0)
(-0.064039 0.0360313 0)
(-0.0758386 0.0352989 0)
(-0.087162 0.0333743 0)
(-0.0976594 0.0302417 0)
(-0.106974 0.0258832 0)
(-0.114745 0.020311 0)
(-0.120624 0.0135977 0)
(-0.124287 0.00590126 0)
(-0.125461 -0.00251929 0)
(-0.12395 -0.0113001 0)
(-0.119658 -0.0199749 0)
(-0.112625 -0.028003 0)
(-0.103045 -0.0348057 0)
(-0.0912853 -0.0398207 0)
(-0.0778904 -0.0425703 0)
(-0.0635644 -0.0427364 0)
(-0.0491276 -0.040232 0)
(-0.0354463 -0.0352558 0)
(-0.0233388 -0.0283155 0)
(-0.0134684 -0.0202151 0)
(-0.00623618 -0.0120044 0)
(-0.0017724 -0.00490237 0)
(-0.000117566 -0.000274918 0)
(-0.00074595 0.00634603 0)
(-0.00468167 0.0182271 0)
(-0.012469 0.0283126 0)
(-0.0225856 0.0362854 0)
(-0.0342759 0.042161 0)
(-0.0470332 0.0460847 0)
(-0.0604061 0.0482308 0)
(-0.0739957 0.0487383 0)
(-0.087436 0.0476824 0)
(-0.100369 0.0450773 0)
(-0.112428 0.0408996 0)
(-0.123239 0.0351244 0)
(-0.132414 0.0277647 0)
(-0.139569 0.0189079 0)
(-0.144337 0.00874685 0)
(-0.146392 -0.00240044 0)
(-0.145467 -0.0140845 0)
(-0.141393 -0.0257207 0)
(-0.134136 -0.0366211 0)
(-0.123825 -0.0460333 0)
(-0.110788 -0.0532039 0)
(-0.0955687 -0.0574649 0)
(-0.0789275 -0.0583341 0)
(-0.061803 -0.0556177 0)
(-0.0452395 -0.0494962 0)
(-0.0302771 -0.040569 0)
(-0.0178124 -0.0298436 0)
(-0.00845191 -0.0186622 0)
(-0.00249836 -0.00857981 0)
(-0.000198347 -0.00129391 0)
(-0.000868434 0.00900982 0)
(-0.00538663 0.0248687 0)
(-0.0142548 0.037858 0)
(-0.0256925 0.0478888 0)
(-0.0388275 0.0551575 0)
(-0.0530969 0.0599446 0)
(-0.068016 0.0625142 0)
(-0.0831701 0.0630571 0)
(-0.0981872 0.06167 0)
(-0.112706 0.0583675 0)
(-0.126357 0.0531156 0)
(-0.138754 0.0458761 0)
(-0.149491 0.0366534 0)
(-0.158154 0.0255378 0)
(-0.164326 0.0127415 0)
(-0.167619 -0.00137366 0)
(-0.167681 -0.0162756 0)
(-0.164242 -0.03128 0)
(-0.15716 -0.0455483 0)
(-0.146462 -0.0581368 0)
(-0.132395 -0.0680671 0)
(-0.115467 -0.074428 0)
(-0.0964692 -0.0765055 0)
(-0.0764539 -0.0739263 0)
(-0.056668 -0.0667891 0)
(-0.0384247 -0.0557477 0)
(-0.022925 -0.042014 0)
(-0.0110526 -0.0272623 0)
(-0.00334068 -0.0134519 0)
(-0.000287727 -0.00269667 0)
(-0.000974313 0.0120276 0)
(-0.00599867 0.0323392 0)
(-0.0158116 0.0485318 0)
(-0.0284125 0.0607979 0)
(-0.0428303 0.0695594 0)
(-0.0584552 0.0752654 0)
(-0.074778 0.0782939 0)
(-0.0913765 0.0789011 0)
(-0.107882 0.0772121 0)
(-0.12394 0.0732433 0)
(-0.139187 0.0669463 0)
(-0.153237 0.0582616 0)
(-0.165676 0.0471729 0)
(-0.176062 0.0337572 0)
(-0.183934 0.0182272 0)
(-0.188824 0.000967202 0)
(-0.190293 -0.0174385 0)
(-0.187956 -0.0362125 0)
(-0.181527 -0.0543728 0)
(-0.170888 -0.0707749 0)
(-0.156157 -0.0841829 0)
(-0.137758 -0.0933839 0)
(-0.116466 -0.0973488 0)
(-0.0934269 -0.0954257 0)
(-0.070097 -0.0875363 0)
(-0.0481119 -0.0743221 0)
(-0.0290588 -0.0571846 0)
(-0.014193 -0.0381753 0)
(-0.00436308 -0.019749 0)
(-0.000397489 -0.00455481 0)
(-0.0010606 0.0153454 0)
(-0.00650108 0.0405159 0)
(-0.0170971 0.060174 0)
(-0.030672 0.0748374 0)
(-0.0461751 0.0851903 0)
(-0.0629607 0.0918802 0)
(-0.0805033 0.0954204 0)
(-0.0983807 0.0961471 0)
(-0.116236 0.0942211 0)
(-0.133731 0.0896624 0)
(-0.150519 0.0824053 0)
(-0.166226 0.0723604 0)
(-0.180436 0.059477 0)
(-0.192694 0.0437998 0)
(-0.202499 0.0255191 0)
(-0.209318 0.00501343 0)
(-0.212612 -0.017118 0)
(-0.211865 -0.0400211 0)
(-0.206631 -0.0625895 0)
(-0.196611 -0.0834805 0)
(-0.181741 -0.101178 0)
(-0.16229 -0.114109 0)
(-0.138953 -0.120837 0)
(-0.112911 -0.120305 0)
(-0.0858107 -0.112122 0)
(-0.0596437 -0.0968043 0)
(-0.0364711 -0.0758972 0)
(-0.0180392 -0.0518682 0)
(-0.00563512 -0.0277814 0)
(-0.000540249 -0.00697609 0)
(-0.00112366 0.0188998 0)
(-0.00687565 0.0492546 0)
(-0.0180677 0.0725954 0)
(-0.0323948 0.089797 0)
(-0.0487478 0.101834 0)
(-0.0664546 0.109577 0)
(-0.0849809 0.113694 0)
(-0.103911 0.114614 0)
(-0.122906 0.112543 0)
(-0.141653 0.107508 0)
(-0.159832 0.0994242 0)
(-0.177093 0.0881638 0)
(-0.193034 0.0736287 0)
(-0.207197 0.0558115 0)
(-0.219061 0.0348529 0)
(-0.228042 0.0110941 0)
(-0.233512 -0.0148767 0)
(-0.234828 -0.0421762 0)
(-0.231374 -0.0696052 0)
(-0.222641 -0.0956425 0)
(-0.208331 -0.118486 0)
(-0.18848 -0.136164 0)
(-0.163608 -0.146733 0)
(-0.134833 -0.148586 0)
(-0.103932 -0.140833 0)
(-0.0732483 -0.123694 0)
(-0.0453962 -0.0987504 0)
(-0.0227581 -0.0688986 0)
(-0.00722987 -0.0379421 0)
(-0.00072955 -0.0101064 0)
(-0.00115996 0.0226171 0)
(-0.00710548 0.0583903 0)
(-0.0186831 0.0855785 0)
(-0.0335106 0.105431 0)
(-0.0504398 0.119232 0)
(-0.0687808 0.128092 0)
(-0.0879955 0.132852 0)
(-0.107679 0.134047 0)
(-0.127515 0.131937 0)
(-0.147224 0.126562 0)
(-0.166522 0.117817 0)
(-0.185093 0.105533 0)
(-0.202569 0.089554 0)
(-0.21851 0.0698015 0)
(-0.232396 0.0463431 0)
(-0.243619 0.0194506 0)
(-0.251492 -0.0103388 0)
(-0.255264 -0.0421594 0)
(-0.25416 -0.0747693 0)
(-0.247452 -0.106513 0)
(-0.234561 -0.135331 0)
(-0.215215 -0.158833 0)
(-0.189638 -0.174499 0)
(-0.158752 -0.180012 0)
(-0.124333 -0.173757 0)
(-0.0890142 -0.155396 0)
(-0.056013 -0.12635 0)
(-0.0285051 -0.0898952 0)
(-0.00922247 -0.050704 0)
(-0.000980356 -0.0141315 0)
(-0.00116692 0.0264151 0)
(-0.00717867 0.0677407 0)
(-0.0189144 0.0988812 0)
(-0.0339659 0.121462 0)
(-0.0511635 0.137083 0)
(-0.0698053 0.147108 0)
(-0.0893519 0.152562 0)
(-0.109411 0.154103 0)
(-0.129694 0.152055 0)
(-0.149956 0.146479 0)
(-0.169958 0.137253 0)
(-0.189436 0.124168 0)
(-0.208068 0.107001 0)
(-0.22546 0.0855936 0)
(-0.241123 0.0599194 0)
(-0.254465 0.0301524 0)
(-0.264777 -0.00326224 0)
(-0.271246 -0.0395312 0)
(-0.272973 -0.0774331 0)
(-0.26902 -0.115252 0)
(-0.258515 -0.150732 0)
(-0.240807 -0.181103 0)
(-0.215703 -0.203228 0)
(-0.183749 -0.213946 0)
(-0.146527 -0.210654 0)
(-0.106814 -0.192107 0)
(-0.0684028 -0.159232 0)
(-0.0354102 -0.115521 0)
(-0.0116883 -0.0666113 0)
(-0.00130966 -0.0192779 0)
(-0.00114382 0.0302067 0)
(-0.00709228 0.0771132 0)
(-0.018753 0.112245 0)
(-0.0337384 0.137586 0)
(-0.0508716 0.155048 0)
(-0.0694408 0.166253 0)
(-0.0889064 0.172424 0)
(-0.108889 0.174353 0)
(-0.129126 0.172442 0)
(-0.149414 0.166782 0)
(-0.169566 0.157247 0)
(-0.189379 0.143588 0)
(-0.208599 0.125518 0)
(-0.226901 0.102794 0)
(-0.243867 0.0752852 0)
(-0.258959 0.043045 0)
(-0.271508 0.00639039 0)
(-0.280694 -0.0340113 0)
(-0.285548 -0.0770359 0)
(-0.284977 -0.121005 0)
(-0.277827 -0.163574 0)
(-0.263038 -0.201683 0)
(-0.239888 -0.231613 0)
(-0.208359 -0.249274 0)
(-0.169581 -0.250821 0)
(-0.126216 -0.233672 0)
(-0.0824939 -0.197752 0)
(-0.0435555 -0.146416 0)
(-0.0146997 -0.0862613 0)
(-0.00173703 -0.0258133 0)
(-0.00109265 0.0339063 0)
(-0.0068567 0.0863175 0)
(-0.0182197 0.125409 0)
(-0.0328518 0.153488 0)
(-0.049577 0.172761 0)
(-0.0676736 0.185114 0)
(-0.0866001 0.191975 0)
(-0.105989 0.194284 0)
(-0.125605 0.192536 0)
(-0.145288 0.18687 0)
(-0.16491 0.177163 0)
(-0.184339 0.163138 0)
(-0.203406 0.144455 0)
(-0.221882 0.120789 0)
(-0.23945 0.0919024 0)
(-0.255679 0.0577196 0)
(-0.269993 0.0184025 0)
(-0.281635 -0.0255546 0)
(-0.289651 -0.0732057 0)
(-0.292865 -0.123022 0)
(-0.289905 -0.172717 0)
(-0.279316 -0.219096 0)
(-0.259791 -0.257984 0)
(-0.230574 -0.284373 0)
(-0.19205 -0.292983 0)
(-0.146403 -0.279426 0)
(-0.0979966 -0.241941 0)
(-0.0529458 -0.183107 0)
(-0.0183201 -0.110274 0)
(-0.00228508 -0.034045 0)
(-0.001019 0.0374378 0)
(-0.00650001 0.0951822 0)
(-0.0173753 0.138129 0)
(-0.0313915 0.168855 0)
(-0.0473742 0.189847 0)
(-0.0645884 0.203248 0)
(-0.0824899 0.210704 0)
(-0.100724 0.213318 0)
(-0.119083 0.211697 0)
(-0.137454 0.206037 0)
(-0.155774 0.196241 0)
(-0.173991 0.18202 0)
(-0.192037 0.162993 0)
(-0.209797 0.138766 0)
(-0.227089 0.109008 0)
(-0.243625 0.0735145 0)
(-0.258977 0.0322806 0)
(-0.272525 -0.0144074 0)
(-0.283414 -0.0658562 0)
(-0.290491 -0.120795 0)
(-0.292269 -0.177164 0)
(-0.286978 -0.231848 0)
(-0.27274 -0.280436 0)
(-0.247957 -0.317156 0)
(-0.211994 -0.335234 0)
(-0.166117 -0.328054 0)
(-0.114337 -0.291338 0)
(-0.0634718 -0.225893 0)
(-0.0225972 -0.139247 0)
(-0.00297993 -0.0443159 0)
(-0.000932999 0.0407457 0)
(-0.00607277 0.103577 0)
(-0.0163307 0.1502 0)
(-0.0295198 0.183405 0)
(-0.0444574 0.205938 0)
(-0.0603907 0.220204 0)
(-0.0767742 0.228077 0)
(-0.0932695 0.23084 0)
(-0.109705 0.229226 0)
(-0.126019 0.223515 0)
(-0.142221 0.213648 0)
(-0.158347 0.199345 0)
(-0.174439 0.180202 0)
(-0.190515 0.155781 0)
(-0.206543 0.125671 0)
(-0.222409 0.0895533 0)
(-0.237876 0.0472633 0)
(-0.252522 -0.00113717 0)
(-0.265671 -0.0552581 0)
(-0.276299 -0.114181 0)
(-0.282943 -0.176238 0)
(-0.283666 -0.238639 0)
(-0.276123 -0.297052 0)
(-0.25788 -0.345243 0)
(-0.227093 -0.375094 0)
(-0.183665 -0.37751 0)
(-0.130607 -0.344821 0)
(-0.0748717 -0.274693 0)
(-0.0275544 -0.173688 0)
(-0.0038524 -0.0569968 0)
(-0.000850617 0.0438084 0)
(-0.00565394 0.111438 0)
(-0.0152586 0.161491 0)
(-0.0274913 0.19691 0)
(-0.0411372 0.220701 0)
(-0.0554221 0.235541 0)
(-0.0698068 0.243553 0)
(-0.0839824 0.246217 0)
(-0.0978246 0.244412 0)
(-0.111338 0.238515 0)
(-0.124608 0.228528 0)
(-0.137774 0.214197 0)
(-0.150991 0.19512 0)
(-0.164417 0.170833 0)
(-0.178179 0.140872 0)
(-0.192351 0.104827 0)
(-0.206905 0.0623881 0)
(-0.221659 0.0134013 0)
(-0.236175 -0.0420504 0)
(-0.249653 -0.103477 0)
(-0.260809 -0.169737 0)
(-0.267721 -0.238604 0)
(-0.267784 -0.306184 0)
(-0.257865 -0.366236 0)
(-0.234878 -0.409695 0)
(-0.197014 -0.425034 0)
(-0.145553 -0.40048 0)
(-0.0866985 -0.328885 0)
(-0.0331869 -0.213935 0)
(-0.0049411 -0.0724779 0)
(-0.000796228 0.046656 0)
(-0.00536034 0.118806 0)
(-0.0144097 0.171971 0)
(-0.0256697 0.209225 0)
(-0.037854 0.233856 0)
(-0.0501677 0.248852 0)
(-0.0620976 0.256609 0)
(-0.0733897 0.25883 0)
(-0.0839915 0.256554 0)
(-0.0939903 0.250272 0)
(-0.103567 0.240058 0)
(-0.112965 0.225703 0)
(-0.122462 0.206827 0)
(-0.132351 0.18296 0)
(-0.142919 0.153609 0)
(-0.154421 0.118298 0)
(-0.167038 0.0766035 0)
(-0.180829 0.0281794 0)
(-0.195632 -0.0271782 0)
(-0.21095 -0.0894262 0)
(-0.225792 -0.158022 0)
(-0.238459 -0.231494 0)
(-0.246355 -0.306741 0)
(-0.245932 -0.378058 0)
(-0.233028 -0.436085 0)
(-0.203963 -0.467322 0)
(-0.157622 -0.455568 0)
(-0.098301 -0.387137 0)
(-0.0394642 -0.260052 0)
(-0.00630022 -0.0911638 0)
(-0.000808136 0.0493952 0)
(-0.00536357 0.125863 0)
(-0.0141366 0.181755 0)
(-0.0245496 0.220309 0)
(-0.0351887 0.245188 0)
(-0.0452531 0.259763 0)
(-0.0542951 0.266748 0)
(-0.0621594 0.268087 0)
(-0.0689035 0.264992 0)
(-0.0747259 0.258075 0)
(-0.0799193 0.24749 0)
(-0.0848403 0.233085 0)
(-0.0898876 0.214509 0)
(-0.0954849 0.191306 0)
(-0.102063 0.162974 0)
(-0.110038 0.128999 0)
(-0.119782 0.0888696 0)
(-0.131574 0.0420924 0)
(-0.145525 -0.0117898 0)
(-0.161469 -0.0731348 0)
(-0.178796 -0.142 0)
(-0.196209 -0.217764 0)
(-0.211416 -0.298397 0)
(-0.220845 -0.379283 0)
(-0.21963 -0.451611 0)
(-0.202352 -0.500814 0)
(-0.165038 -0.50657 0)
(-0.108819 -0.44727 0)
(-0.0463435 -0.311717 0)
(-0.00801559 -0.11348 0)
(-0.00095079 0.0522486 0)
(-0.00592225 0.132995 0)
(-0.014933 0.191135 0)
(-0.0247827 0.230241 0)
(-0.0338669 0.254547 0)
(-0.0414235 0.267931 0)
(-0.0471412 0.273487 0)
(-0.0510327 0.273417 0)
(-0.0533196 0.269107 0)
(-0.054348 0.261281 0)
(-0.0545425 0.250172 0)
(-0.0543802 0.23568 0)
(-0.0543755 0.21749 0)
(-0.055068 0.195167 0)
(-0.0570104 0.168212 0)
(-0.0607527 0.136089 0)
(-0.0668197 0.0982363 0)
(-0.0756762 0.0540501 0)
(-0.0876752 0.00288302 0)
(-0.102966 -0.0559403 0)
(-0.121354 -0.123006 0)
(-0.142066 -0.19852 0)
(-0.16338 -0.281664 0)
(-0.182138 -0.369365 0)
(-0.193323 -0.454271 0)
(-0.190217 -0.522057 0)
(-0.165894 -0.549389 0)
(-0.117174 -0.506167 0)
(-0.0537833 -0.368078 0)
(-0.0102328 -0.139901 0)
(-0.00134073 0.0556239 0)
(-0.00744127 0.140864 0)
(-0.0174922 0.200615 0)
(-0.0272048 0.239206 0)
(-0.0347397 0.261808 0)
(-0.0394789 0.273 0)
(-0.0413684 0.276323 0)
(-0.0406883 0.274244 0)
(-0.037894 0.268299 0)
(-0.0335213 0.259299 0)
(-0.0281451 0.247532 0)
(-0.0223657 0.232935 0)
(-0.0168024 0.215223 0)
(-0.0120898 0.19398 0)
(-0.00887412 0.168713 0)
(-0.0078045 0.13888 0)
(-0.00951949 0.103887 0)
(-0.0146252 0.0630668 0)
(-0.0236652 0.0156514 0)
(-0.0370657 -0.0392496 0)
(-0.0550333 -0.102619 0)
(-0.0773678 -0.175354 0)
(-0.103098 -0.257808 0)
(-0.129881 -0.348699 0)
(-0.153205 -0.442954 0)
(-0.165802 -0.528051 0)
(-0.158157 -0.579591 0)
(-0.122011 -0.559721 0)
(-0.0617281 -0.427568 0)
(-0.0131957 -0.171019 0)
(-0.00219905 0.0602406 0)
(-0.010574 0.150511 0)
(-0.0227795 0.210912 0)
(-0.0328273 0.247428 0)
(-0.0386834 0.266779 0)
(-0.0400948 0.274505 0)
(-0.0374554 0.274652 0)
(-0.0314458 0.26992 0)
(-0.0228359 0.261935 0)
(-0.0123913 0.25154 0)
(-0.000849448 0.239031 0)
(0.0110727 0.224356 0)
(0.0226695 0.207239 0)
(0.0332385 0.187272 0)
(0.0420715 0.16397 0)
(0.048457 0.136789 0)
(0.0516831 0.105124 0)
(0.0510441 0.0682824 0)
(0.0458507 0.0254414 0)
(0.0354504 -0.0244 0)
(0.0192867 -0.0824551 0)
(-0.00299024 -0.150093 0)
(-0.031232 -0.228616 0)
(-0.0642028 -0.318512 0)
(-0.0985303 -0.417524 0)
(-0.127374 -0.516498 0)
(-0.13953 -0.592658 0)
(-0.121529 -0.602812 0)
(-0.0699831 -0.487623 0)
(-0.0172701 -0.207604 0)
(-0.00395175 0.0673651 0)
(-0.0163785 0.163463 0)
(-0.0320644 0.222865 0)
(-0.0426729 0.25498 0)
(-0.0462495 0.268993 0)
(-0.0433219 0.271691 0)
(-0.035015 0.267617 0)
(-0.022571 0.259599 0)
(-0.00715284 0.249242 0)
(0.0102159 0.237322 0)
(0.0286384 0.224081 0)
(0.0473037 0.209428 0)
(0.06545 0.193068 0)
(0.0823392 0.17459 0)
(0.097238 0.153509 0)
(0.109407 0.129288 0)
(0.118095 0.101329 0)
(0.122532 0.0689461 0)
(0.121919 0.0313213 0)
(0.115422 -0.0125562 0)
(0.102198 -0.0639724 0)
(0.0814263 -0.124511 0)
(0.0524744 -0.196081 0)
(0.0153536 -0.280615 0)
(-0.0281895 -0.378742 0)
(-0.0728284 -0.485959 0)
(-0.107112 -0.584203 0)
(-0.113093 -0.629246 0)
(-0.0778359 -0.544163 0)
(-0.0228695 -0.25054 0)
(-0.0074025 0.0792369 0)
(-0.0264975 0.181777 0)
(-0.0467073 0.237096 0)
(-0.0570926 0.261317 0)
(-0.0566006 0.267269 0)
(-0.0472559 0.263144 0)
(-0.031289 0.253816 0)
(-0.0106662 0.242016 0)
(0.013006 0.229133 0)
(0.0384575 0.215742 0)
(0.0646693 0.201939 0)
(0.0907817 0.187536 0)
(0.116026 0.172188 0)
(0.139675 0.155465 0)
(0.161014 0.13688 0)
(0.179312 0.115912 0)
(0.193809 0.0919892 0)
(0.203701 0.0644671 0)
(0.208113 0.0325865 0)
(0.20606 -0.00458878 0)
(0.196483 -0.0482811 0)
(0.17819 -0.100051 0)
(0.149893 -0.16203 0)
(0.110498 -0.237041 0)
(0.0598857 -0.328154 0)
(0.000870685 -0.436032 0)
(-0.0567701 -0.550274 0)
(-0.0924711 -0.63167 0)
(-0.0831967 -0.59078 0)
(-0.0300766 -0.300478 0)
(-0.0139435 0.099749 0)
(-0.0431032 0.207668 0)
(-0.0669822 0.253072 0)
(-0.0735151 0.264297 0)
(-0.0645723 0.258893 0)
(-0.0447407 0.246193 0)
(-0.017727 0.230903 0)
(0.0137138 0.215238 0)
(0.047597 0.200084 0)
(0.0825144 0.185637 0)
(0.117437 0.171738 0)
(0.151558 0.158048 0)
(0.18419 0.144146 0)
(0.21469 0.129569 0)
(0.242418 0.11384 0)
(0.266702 0.0964644 0)
(0.286817 0.0769239 0)
(0.301958 0.0546494 0)
(0.311213 0.0289866 0)
(0.313482 -0.000863072 0)
(0.307567 -0.0359124 0)
(0.292011 -0.0775526 0)
(0.26505 -0.127787 0)
(0.224726 -0.189673 0)
(0.169225 -0.2678 0)
(0.0983252 -0.367463 0)
(0.017869 -0.487919 0)
(-0.052389 -0.6017 0)
(-0.0810839 -0.617899 0)
(-0.0376536 -0.357711 0)
(-0.0253997 0.135426 0)
(-0.0672863 0.241249 0)
(-0.0873748 0.266203 0)
(-0.079783 0.257776 0)
(-0.0533577 0.237986 0)
(-0.0162009 0.21596 0)
(0.0266076 0.195152 0)
(0.0718949 0.176586 0)
(0.117694 0.160284 0)
(0.162798 0.145879 0)
(0.206435 0.13288 0)
(0.248053 0.120769 0)
(0.287196 0.109044 0)
(0.323416 0.097229 0)
(0.356236 0.0848725 0)
(0.38511 0.0715383 0)
(0.409399 0.0567908 0)
(0.428358 0.0401715 0)
(0.441088 0.0211695 0)
(0.446479 -0.000833452 0)
(0.443267 -0.026524 0)
(0.429818 -0.0570175 0)
(0.404128 -0.0939406 0)
(0.363697 -0.13999 0)
(0.305451 -0.200003 0)
(0.226232 -0.282154 0)
(0.126614 -0.395393 0)
(0.0198228 -0.530789 0)
(-0.0614266 -0.612209 0)
(-0.0409648 -0.421483 0)
(-0.0412291 0.197585 0)
(-0.0900995 0.273048 0)
(-0.0798542 0.259357 0)
(-0.0365716 0.226079 0)
(0.020801 0.192851 0)
(0.0825919 0.16452 0)
(0.14428 0.141611 0)
(0.203716 0.123306 0)
(0.259964 0.108543 0)
(0.312693 0.0963778 0)
(0.361828 0.0860404 0)
(0.407356 0.0769046 0)
(0.449233 0.0684556 0)
(0.487335 0.0602611 0)
(0.521431 0.0519479 0)
(0.551172 0.0431825 0)
(0.576074 0.0336527 0)
(0.59551 0.0230487 0)
(0.608668 0.0110384 0)
(0.614594 -0.00279005 0)
(0.612065 -0.0188151 0)
(0.599426 -0.0377434 0)
(0.574689 -0.0606557 0)
(0.535185 -0.089458 0)
(0.47718 -0.127986 0)
(0.395382 -0.184385 0)
(0.284511 -0.273888 0)
(0.14553 -0.410582 0)
(-0.00363714 -0.55395 0)
(-0.0254516 -0.477421 0)
(-0.0340511 0.293908 0)
(-0.0476729 0.272874 0)
(0.0540791 0.199718 0)
(0.157132 0.149691 0)
(0.249849 0.114696 0)
(0.331721 0.0896672 0)
(0.403714 0.0719332 0)
(0.467062 0.0592723 0)
(0.523087 0.0499752 0)
(0.572968 0.0428844 0)
(0.617615 0.0372346 0)
(0.657675 0.0325005 0)
(0.693556 0.028304 0)
(0.725462 0.0243615 0)
(0.753415 0.0204512 0)
(0.777273 0.0163906 0)
(0.796738 0.012021 0)
(0.811372 0.00719877 0)
(0.820511 0.00177717 0)
(0.823509 -0.00430802 0)
(0.819376 -0.0113939 0)
(0.806764 -0.0197368 0)
(0.784031 -0.0297917 0)
(0.748847 -0.0424804 0)
(0.697603 -0.0598377 0)
(0.624204 -0.0869306 0)
(0.518408 -0.137262 0)
(0.36505 -0.240346 0)
(0.144058 -0.406997 0)
(0.0588409 -0.458305 0)
(0.303256 0.180933 0)
(0.382582 0.144316 0)
(0.56091 0.0911631 0)
(0.686747 0.0589913 0)
(0.769419 0.0393276 0)
(0.828949 0.0268114 0)
(0.874714 0.0188879 0)
(0.911109 0.0138832 0)
(0.940878 0.0106498 0)
(0.965861 0.00847094 0)
(0.987231 0.00691847 0)
(1.00571 0.00573277 0)
(1.02172 0.00475082 0)
(1.03548 0.00386623 0)
(1.04707 0.00300632 0)
(1.05646 0.00211852 0)
(1.0635 0.001161 0)
(1.068 0.000102679 0)
(1.06969 -0.00109612 0)
(1.06817 -0.00234122 0)
(1.06292 -0.00383281 0)
(1.05343 -0.00560223 0)
(1.03891 -0.00772073 0)
(1.01816 -0.0103932 0)
(0.98913 -0.0141155 0)
(0.947708 -0.0202278 0)
(0.884107 -0.0326184 0)
(0.776414 -0.0637857 0)
(0.544837 -0.139483 0)
(0.382491 -0.201744 0)
)
;

boundaryField
{
    movingWall
    {
        type            fixedValue;
        value           uniform (1.2 0 0);
    }
    fixedWalls
    {
        type            noSlip;
    }
    frontAndBack
    {
        type            empty;
    }
}


// ************************************************************************* //
