/*--------------------------------*- C++ -*----------------------------------*\
  =========                 |
  \\      /  F ield         | OpenFOAM: The Open Source CFD Toolbox
   \\    /   O peration     | Website:  https://openfoam.org
    \\  /    A nd           | Version:  7
     \\/     M anipulation  |
\*---------------------------------------------------------------------------*/
FoamFile
{
    version     2.0;
    format      ascii;
    class       volScalarField;
    location    "1000";
    object      k;
}
// * * * * * * * * * * * * * * * * * * * * * * * * * * * * * * * * * * * * * //

dimensions      [0 2 -2 0 0 0 0];

internalField   nonuniform List<scalar> 
4500
(
2.10711
1.99003
1.89804
1.8345
1.78632
1.74875
1.71881
1.69443
1.67421
1.65718
1.64268
1.6302
1.61939
1.60996
1.6017
1.59444
1.58803
1.58238
1.57737
1.57295
1.56904
1.56558
1.56254
1.55986
1.55753
1.55549
1.55374
1.55223
1.55096
1.54991
1.54905
1.54837
1.54786
1.54751
1.54731
1.54724
1.54729
1.54746
1.54774
1.54812
1.5486
1.54916
1.54981
1.55053
1.55133
1.55219
1.55312
1.5541
1.55513
1.55621
1.55734
1.5585
1.55969
1.56091
1.56216
1.56341
1.56469
1.56597
1.56725
1.56853
1.56981
1.57106
1.57231
1.57353
1.57474
1.57593
1.57714
1.57836
1.57961
1.5809
1.58219
1.58341
1.58444
1.58508
1.58511
1.10354
1.6732
1.8379
1.85191
1.83283
1.80901
1.78664
1.7669
1.74973
1.73484
1.72188
1.71057
1.70066
1.69195
1.68428
1.6775
1.67151
1.6662
1.66151
1.65736
1.6537
1.65047
1.64764
1.64516
1.64301
1.64115
1.63956
1.63823
1.63712
1.63622
1.63551
1.63499
1.63463
1.63443
1.63437
1.63445
1.63464
1.63495
1.63536
1.63588
1.63649
1.63719
1.63797
1.63882
1.63975
1.64074
1.6418
1.64291
1.64407
1.64527
1.64652
1.6478
1.64911
1.65045
1.6518
1.65316
1.65453
1.65591
1.65728
1.65864
1.65999
1.66132
1.66262
1.66389
1.66514
1.66637
1.66761
1.6689
1.67025
1.67171
1.67326
1.67486
1.67638
1.67759
1.67809
0.644943
1.23225
1.53537
1.63719
1.66542
1.66864
1.66318
1.65482
1.64581
1.63702
1.62881
1.62129
1.61447
1.60833
1.60283
1.5979
1.59351
1.5896
1.58613
1.58307
1.58037
1.578
1.57594
1.57416
1.57264
1.57135
1.57029
1.56943
1.56875
1.56825
1.56791
1.56772
1.56767
1.56774
1.56795
1.56826
1.56868
1.56918
1.56978
1.57046
1.57122
1.57206
1.57297
1.57394
1.57497
1.57605
1.57719
1.57837
1.57959
1.58085
1.58214
1.58346
1.5848
1.58615
1.5875
1.58886
1.59022
1.59158
1.59292
1.59424
1.59555
1.59682
1.59806
1.59926
1.60044
1.6016
1.60278
1.60404
1.60544
1.60703
1.60884
1.61081
1.61277
1.61442
1.61515
0.463615
0.893401
1.25805
1.43575
1.5127
1.54555
1.55894
1.56332
1.56337
1.56132
1.55829
1.55487
1.55137
1.54798
1.54477
1.54181
1.5391
1.53665
1.53446
1.53253
1.53083
1.52936
1.52811
1.52705
1.52619
1.5255
1.52498
1.52462
1.5244
1.52432
1.52436
1.52453
1.52481
1.52519
1.52567
1.52625
1.52691
1.52765
1.52845
1.52933
1.53027
1.53127
1.53233
1.53345
1.53461
1.53581
1.53706
1.53834
1.53965
1.54099
1.54236
1.54374
1.54513
1.54653
1.54792
1.54931
1.55068
1.55204
1.55338
1.5547
1.55599
1.55724
1.55844
1.5596
1.56072
1.56184
1.563
1.56428
1.56577
1.56753
1.5696
1.57191
1.57424
1.57615
1.57687
0.39407
0.646738
0.998479
1.23088
1.35547
1.4206
1.45545
1.47456
1.48513
1.49089
1.49385
1.49516
1.49547
1.49521
1.49462
1.49387
1.49306
1.49226
1.49151
1.49084
1.49026
1.48979
1.48943
1.48919
1.48906
1.48904
1.48912
1.48932
1.48961
1.49
1.49048
1.49104
1.49169
1.49242
1.49323
1.4941
1.49504
1.49604
1.49708
1.49819
1.49934
1.50053
1.50177
1.50306
1.50437
1.50572
1.5071
1.50851
1.50994
1.51138
1.51284
1.51431
1.51578
1.51724
1.51869
1.52012
1.52153
1.52292
1.52428
1.52561
1.52689
1.52813
1.52931
1.53045
1.53154
1.53264
1.5338
1.53512
1.53669
1.53862
1.54093
1.54351
1.54608
1.54807
1.54853
0.370615
0.488905
0.769299
1.02349
1.18836
1.28645
1.34497
1.38088
1.40366
1.41854
1.4285
1.43532
1.44007
1.44345
1.44589
1.4477
1.44908
1.45017
1.45107
1.45184
1.45255
1.45323
1.45389
1.45457
1.45527
1.45601
1.45679
1.45761
1.45848
1.45941
1.46038
1.4614
1.46248
1.4636
1.46477
1.46598
1.46724
1.46853
1.46986
1.47122
1.47261
1.47404
1.47549
1.47696
1.47846
1.47999
1.48152
1.48308
1.48464
1.48622
1.4878
1.48937
1.49093
1.49248
1.494
1.4955
1.49696
1.49839
1.49978
1.50113
1.50242
1.50366
1.50484
1.50595
1.50703
1.50811
1.50928
1.51064
1.51231
1.51438
1.51687
1.51964
1.52232
1.52423
1.52425
0.364546
0.403111
0.587007
0.823641
1.01304
1.14094
1.22398
1.27842
1.31506
1.34046
1.35856
1.3718
1.38173
1.38935
1.39533
1.40011
1.40404
1.40732
1.41012
1.41258
1.41476
1.41675
1.4186
1.42033
1.42199
1.4236
1.42517
1.42672
1.42826
1.42979
1.43133
1.43287
1.43443
1.436
1.43759
1.43919
1.44081
1.44245
1.44409
1.44575
1.44742
1.44911
1.4508
1.45251
1.45422
1.45594
1.45766
1.45939
1.46112
1.46284
1.46456
1.46625
1.46793
1.46958
1.47119
1.47277
1.4743
1.47578
1.47722
1.4786
1.47992
1.48117
1.48235
1.48346
1.48452
1.48561
1.48679
1.48818
1.48992
1.4921
1.49471
1.49758
1.50026
1.50196
1.50144
0.364603
0.363346
0.460994
0.64658
0.836783
0.985712
1.09154
1.16521
1.21704
1.25428
1.28169
1.30236
1.31829
1.33084
1.34093
1.34918
1.35605
1.36188
1.3669
1.37129
1.37519
1.3787
1.38191
1.38487
1.38763
1.39024
1.39272
1.3951
1.3974
1.39963
1.40182
1.40396
1.40607
1.40816
1.41023
1.41228
1.41431
1.41634
1.41835
1.42035
1.42235
1.42433
1.4263
1.42827
1.43023
1.43218
1.43412
1.43604
1.43796
1.43985
1.44173
1.44358
1.44539
1.44716
1.44888
1.45055
1.45216
1.45372
1.45522
1.45665
1.458
1.45927
1.46046
1.46157
1.46264
1.46372
1.46491
1.46634
1.46812
1.47035
1.47302
1.47591
1.4785
1.47993
1.47884
0.366685
0.347483
0.386684
0.507132
0.671669
0.826391
0.949252
1.04089
1.10836
1.15845
1.19625
1.22534
1.24815
1.26638
1.28121
1.29348
1.30378
1.31256
1.32014
1.32678
1.33266
1.33794
1.34271
1.34708
1.35112
1.35488
1.35841
1.36175
1.36493
1.36797
1.3709
1.37373
1.37647
1.37915
1.38177
1.38433
1.38685
1.38932
1.39175
1.39415
1.3965
1.39883
1.40113
1.40339
1.40564
1.40785
1.41003
1.41219
1.41432
1.41642
1.41848
1.4205
1.42247
1.42438
1.42623
1.42802
1.42974
1.43138
1.43295
1.43444
1.43585
1.43715
1.43836
1.43949
1.44056
1.44164
1.44284
1.44427
1.44608
1.44833
1.45099
1.45382
1.45626
1.45738
1.45575
0.369317
0.342581
0.348917
0.412157
0.531963
0.672822
0.801903
0.907129
0.989078
1.05222
1.10113
1.13949
1.17002
1.1947
1.21496
1.23184
1.24608
1.25827
1.26882
1.27805
1.28623
1.29353
1.30012
1.30612
1.31163
1.31672
1.32146
1.3259
1.33009
1.33406
1.33784
1.34146
1.34494
1.3483
1.35154
1.35469
1.35776
1.36074
1.36366
1.3665
1.36928
1.372
1.37467
1.37728
1.37985
1.38237
1.38484
1.38726
1.38964
1.39197
1.39425
1.39646
1.39862
1.4007
1.4027
1.40462
1.40646
1.40822
1.40988
1.41145
1.41291
1.41427
1.41551
1.41666
1.41774
1.41883
1.42003
1.42146
1.42325
1.42547
1.42808
1.4308
1.43305
1.43385
1.43175
0.371958
0.342445
0.332102
0.356566
0.42837
0.537786
0.658014
0.768348
0.860997
0.935939
0.995905
1.044
1.08291
1.11474
1.1411
1.16319
1.18194
1.19802
1.21198
1.2242
1.23501
1.24466
1.25334
1.26122
1.26842
1.27504
1.28118
1.28689
1.29224
1.29728
1.30205
1.30658
1.3109
1.31503
1.319
1.32283
1.32652
1.33009
1.33356
1.33692
1.34018
1.34336
1.34645
1.34946
1.3524
1.35526
1.35806
1.3608
1.36346
1.36606
1.36858
1.37103
1.3734
1.37567
1.37786
1.37994
1.38193
1.38381
1.38558
1.38725
1.38879
1.39021
1.3915
1.39268
1.39379
1.39489
1.39608
1.39749
1.39924
1.4014
1.40391
1.40648
1.40851
1.40901
1.40654
0.374409
0.344309
0.325896
0.328085
0.362098
0.432748
0.529167
0.632415
0.728536
0.811707
0.881286
0.938793
0.986292
1.02573
1.05874
1.08663
1.11042
1.13091
1.14873
1.16436
1.17819
1.19052
1.20161
1.21164
1.22079
1.22918
1.23691
1.24409
1.25078
1.25704
1.26294
1.26851
1.2738
1.27883
1.28363
1.28823
1.29265
1.29689
1.30099
1.30495
1.30877
1.31246
1.31604
1.31951
1.32287
1.32614
1.32932
1.3324
1.3354
1.3383
1.34112
1.34383
1.34644
1.34895
1.35134
1.35362
1.35578
1.35781
1.35972
1.3615
1.36314
1.36464
1.36599
1.36722
1.36836
1.36947
1.37066
1.37204
1.37374
1.3758
1.37817
1.38055
1.38236
1.3826
1.37987
0.376595
0.346935
0.32478
0.315189
0.325142
0.361913
0.426574
0.510145
0.599357
0.684171
0.759763
0.824969
0.880429
0.92743
0.967348
1.00143
1.03072
1.05608
1.07822
1.09769
1.11493
1.13032
1.14415
1.15665
1.16802
1.17843
1.188
1.19685
1.20508
1.21276
1.21995
1.22672
1.23311
1.23917
1.24493
1.25042
1.25566
1.26068
1.2655
1.27014
1.2746
1.27889
1.28303
1.28702
1.29088
1.29461
1.29822
1.30171
1.30509
1.30835
1.31149
1.31452
1.31742
1.32019
1.32282
1.32532
1.32768
1.3299
1.33197
1.33388
1.33565
1.33724
1.33868
1.33998
1.34116
1.34229
1.34348
1.34482
1.34644
1.34839
1.35059
1.35277
1.35435
1.35438
1.35151
0.378494
0.349749
0.326042
0.310425
0.306798
0.320311
0.355502
0.412199
0.483847
0.561114
0.636428
0.705553
0.766924
0.820518
0.867011
0.907312
0.942336
0.972909
0.999742
1.02343
1.04448
1.06329
1.08019
1.09548
1.10938
1.12209
1.13376
1.14452
1.1545
1.1638
1.17248
1.18062
1.18828
1.19552
1.20237
1.20888
1.21507
1.22098
1.22663
1.23205
1.23724
1.24222
1.247
1.2516
1.25602
1.26028
1.26439
1.26835
1.27216
1.27583
1.27936
1.28274
1.28597
1.28905
1.29197
1.29473
1.29732
1.29975
1.30201
1.3041
1.306
1.30773
1.30927
1.31064
1.31189
1.31305
1.31424
1.31555
1.31708
1.31889
1.32092
1.32288
1.32425
1.32411
1.32121
0.380104
0.352469
0.328352
0.309741
0.298825
0.298554
0.31258
0.343818
0.391993
0.452699
0.519406
0.586268
0.64949
0.707223
0.758929
0.804788
0.845312
0.881119
0.912829
0.94101
0.96616
0.988712
1.00903
1.02742
1.04416
1.05945
1.07348
1.08642
1.09839
1.10952
1.11989
1.1296
1.13872
1.1473
1.1554
1.16308
1.17036
1.17729
1.18389
1.19019
1.19622
1.20198
1.2075
1.21279
1.21787
1.22274
1.22742
1.23192
1.23623
1.24037
1.24434
1.24813
1.25175
1.25518
1.25843
1.26149
1.26437
1.26705
1.26953
1.27182
1.2739
1.27578
1.27745
1.27893
1.28024
1.28146
1.28265
1.28393
1.28538
1.28705
1.28889
1.29064
1.2918
1.29155
1.28871
0.381432
0.354953
0.331036
0.311052
0.296302
0.288389
0.289475
0.302115
0.328313
0.36807
0.418684
0.475701
0.534633
0.59211
0.646117
0.695722
0.740693
0.781189
0.817558
0.850219
0.879597
0.906091
0.930062
0.951828
0.971665
0.989815
1.00648
1.02185
1.03606
1.04926
1.06155
1.07303
1.08379
1.0939
1.10343
1.11244
1.12096
1.12905
1.13673
1.14405
1.15103
1.1577
1.16407
1.17015
1.17597
1.18155
1.18688
1.19199
1.19689
1.20157
1.20605
1.21031
1.21437
1.21821
1.22185
1.22526
1.22846
1.23143
1.23418
1.2367
1.239
1.24106
1.24288
1.24449
1.24591
1.2472
1.24842
1.24967
1.25104
1.25257
1.25422
1.25577
1.25675
1.25643
1.25373
0.382496
0.357126
0.333732
0.313269
0.296566
0.284515
0.278275
0.279385
0.28963
0.310488
0.342261
0.383516
0.431393
0.482568
0.53415
0.584096
0.631194
0.674873
0.714976
0.751595
0.784951
0.815323
0.843002
0.868273
0.8914
0.912621
0.932149
0.950173
0.966858
0.98235
0.996776
1.01025
1.02286
1.0347
1.04584
1.05634
1.06627
1.07568
1.0846
1.09308
1.10115
1.10884
1.11617
1.12316
1.12984
1.13621
1.1423
1.14812
1.15368
1.15898
1.16404
1.16885
1.17342
1.17774
1.18181
1.18563
1.1892
1.19252
1.19558
1.19839
1.20093
1.20321
1.20523
1.207
1.20854
1.20992
1.21119
1.21243
1.21374
1.21515
1.21663
1.21798
1.21881
1.21845
1.21596
0.383317
0.358954
0.336237
0.315805
0.298201
0.28395
0.27367
0.268176
0.268537
0.276002
0.291697
0.316126
0.348733
0.387879
0.431278
0.47661
0.521952
0.565944
0.607754
0.646952
0.683386
0.71708
0.748158
0.776798
0.803195
0.827551
0.850059
0.870898
0.890233
0.908213
0.924972
0.940628
0.955287
0.969044
0.981981
0.994173
1.00568
1.01657
1.02689
1.03667
1.04598
1.05482
1.06325
1.07128
1.07893
1.08621
1.09316
1.09979
1.10611
1.11213
1.11785
1.12329
1.12844
1.13331
1.13789
1.14218
1.14618
1.1499
1.15332
1.15645
1.15929
1.16183
1.16408
1.16605
1.16776
1.16925
1.1706
1.17187
1.17313
1.17444
1.17576
1.17694
1.17765
1.17729
1.17506
0.383926
0.360429
0.338437
0.318319
0.300425
0.285071
0.272597
0.26342
0.258096
0.257353
0.262057
0.273062
0.290942
0.315686
0.346543
0.382133
0.420773
0.460828
0.500941
0.540122
0.577726
0.61338
0.646914
0.678293
0.707566
0.734832
0.760217
0.783859
0.805894
0.826457
0.845673
0.863661
0.880526
0.896366
0.911269
0.925314
0.938573
0.951109
0.962978
0.974231
0.984914
0.995065
1.00472
1.01391
1.02266
1.03099
1.03891
1.04646
1.05364
1.06047
1.06696
1.07311
1.07893
1.08442
1.08958
1.09442
1.09892
1.1031
1.10694
1.11045
1.11363
1.11648
1.11901
1.12121
1.12313
1.12478
1.12624
1.12756
1.12881
1.13005
1.13125
1.1323
1.1329
1.13258
1.13063
0.384356
0.361567
0.340271
0.320613
0.302785
0.286971
0.273357
0.262155
0.253642
0.248183
0.246262
0.248465
0.255422
0.267671
0.285474
0.308658
0.336564
0.368157
0.40222
0.437572
0.473202
0.508334
0.542423
0.575121
0.606232
0.63567
0.663425
0.689534
0.714068
0.73711
0.758756
0.779099
0.798234
0.816251
0.833234
0.84926
0.864403
0.878727
0.892294
0.905156
0.917363
0.928958
0.939981
0.950466
0.960443
0.969935
0.978961
0.987544
0.995702
1.00345
1.0108
1.01777
1.02435
1.03055
1.03637
1.04182
1.0469
1.0516
1.05593
1.05989
1.06347
1.06668
1.06953
1.07202
1.07418
1.07604
1.07765
1.07907
1.08035
1.08156
1.08269
1.08364
1.08418
1.08392
1.08229
0.384645
0.3624
0.341721
0.322574
0.305012
0.28912
0.274988
0.262719
0.252442
0.244331
0.238618
0.235613
0.235703
0.239328
0.246928
0.258848
0.275219
0.295877
0.320342
0.347879
0.377621
0.408696
0.440324
0.471868
0.502846
0.532919
0.561867
0.589563
0.615944
0.641
0.664751
0.687239
0.708519
0.728653
0.747706
0.765743
0.782827
0.799021
0.814379
0.828957
0.842802
0.855959
0.86847
0.88037
0.891693
0.902467
0.912713
0.922448
0.931696
0.940472
0.948792
0.956666
0.964102
0.971106
0.977681
0.98383
0.989555
0.994858
0.999741
1.0042
1.00825
1.01189
1.01512
1.01795
1.02041
1.02252
1.02433
1.0259
1.02727
1.02851
1.02961
1.03051
1.03104
1.03088
1.02957
0.384827
0.362976
0.342805
0.324148
0.306947
0.291198
0.276922
0.264155
0.252946
0.243368
0.235524
0.229553
0.225648
0.224051
0.225056
0.228985
0.236149
0.246788
0.260999
0.278687
0.299546
0.323088
0.348708
0.375765
0.403652
0.431835
0.459883
0.487464
0.514338
0.540341
0.565372
0.589375
0.612327
0.634233
0.655111
0.674995
0.693921
0.711931
0.729071
0.745382
0.760907
0.775686
0.789758
0.803157
0.815915
0.828062
0.839622
0.850613
0.861052
0.870956
0.880342
0.889223
0.897607
0.905502
0.912913
0.919843
0.926297
0.932277
0.937786
0.942828
0.947408
0.951531
0.955204
0.95844
0.961258
0.963685
0.965763
0.967539
0.969067
0.970394
0.971537
0.972459
0.973032
0.973017
0.972054
0.384935
0.363349
0.343566
0.325333
0.308509
0.293015
0.278815
0.265893
0.254251
0.243905
0.234889
0.227257
0.221089
0.216497
0.213627
0.212662
0.213817
0.217326
0.223417
0.232273
0.243994
0.258559
0.275806
0.295441
0.317067
0.340231
0.364466
0.389336
0.414459
0.439515
0.464253
0.488484
0.512069
0.534916
0.556964
0.578181
0.598554
0.618086
0.636787
0.654676
0.671778
0.688118
0.703722
0.718618
0.73283
0.746384
0.759303
0.771605
0.783302
0.794407
0.804935
0.8149
0.82431
0.833173
0.841497
0.849284
0.856541
0.863271
0.869479
0.875172
0.880354
0.885033
0.88922
0.892928
0.896176
0.89899
0.901407
0.903472
0.905233
0.906738
0.908012
0.909037
0.90973
0.909917
0.909334
0.384994
0.363574
0.344062
0.326166
0.309682
0.294477
0.280464
0.267588
0.255813
0.24512
0.235503
0.226971
0.219547
0.21327
0.208201
0.204423
0.202042
0.201191
0.202024
0.20471
0.209419
0.216301
0.22546
0.236932
0.250663
0.266508
0.284234
0.303546
0.32411
0.345586
0.367651
0.390012
0.41242
0.434669
0.456596
0.478075
0.499013
0.519345
0.539026
0.558027
0.576336
0.593946
0.610859
0.627083
0.642626
0.657502
0.671722
0.685299
0.698244
0.710559
0.722251
0.733332
0.743808
0.753688
0.762975
0.771677
0.779797
0.78734
0.794313
0.800724
0.80658
0.81189
0.816668
0.820927
0.824689
0.827977
0.830826
0.833278
0.835376
0.837167
0.838683
0.839923
0.840838
0.841312
0.841165
0.385025
0.363699
0.344363
0.326707
0.310498
0.295561
0.281772
0.269042
0.257306
0.246517
0.236644
0.227667
0.219578
0.21238
0.206088
0.20073
0.196348
0.193
0.190761
0.189721
0.18999
0.191688
0.19494
0.199869
0.206575
0.215125
0.225537
0.237769
0.251715
0.267211
0.284048
0.301987
0.320777
0.340173
0.359944
0.379886
0.399823
0.419607
0.439118
0.458259
0.476958
0.495157
0.512815
0.529902
0.546397
0.562285
0.577558
0.592211
0.606243
0.619651
0.632425
0.644565
0.656073
0.666953
0.677207
0.686837
0.695848
0.704245
0.712035
0.719224
0.725824
0.731844
0.7373
0.742206
0.746584
0.750458
0.753858
0.756824
0.759395
0.761616
0.763521
0.765124
0.766403
0.767288
0.767669
0.385039
0.363763
0.344529
0.327031
0.311019
0.296298
0.282719
0.270166
0.25855
0.247804
0.237875
0.228725
0.220326
0.21266
0.205716
0.199495
0.194005
0.189262
0.185294
0.182139
0.179847
0.178479
0.178108
0.178817
0.180697
0.18384
0.188336
0.194259
0.201662
0.210564
0.220946
0.232746
0.24586
0.260148
0.275447
0.291573
0.308341
0.325568
0.343085
0.360736
0.378386
0.395917
0.413229
0.43024
0.446883
0.463101
0.478851
0.494095
0.508807
0.522962
0.536545
0.549528
0.561899
0.573652
0.584781
0.595284
0.605159
0.61441
0.62304
0.631056
0.638467
0.645284
0.651521
0.657194
0.662322
0.666927
0.671039
0.674689
0.677915
0.680756
0.683247
0.685411
0.687246
0.688717
0.689767
0.385045
0.363793
0.344613
0.327207
0.311323
0.296756
0.283344
0.270952
0.259476
0.248832
0.238951
0.229781
0.221278
0.213411
0.206155
0.199492
0.193412
0.187912
0.182994
0.178668
0.17495
0.171863
0.169439
0.167716
0.166741
0.16657
0.167264
0.16889
0.171516
0.175209
0.180029
0.18602
0.19321
0.2016
0.211164
0.221846
0.233564
0.24621
0.259659
0.273776
0.288419
0.303449
0.318732
0.334145
0.349573
0.364915
0.380084
0.395002
0.409603
0.423831
0.43764
0.450991
0.463839
0.476159
0.487928
0.499133
0.50976
0.519804
0.529261
0.538131
0.546419
0.554131
0.561276
0.567866
0.573917
0.579447
0.584477
0.589034
0.593148
0.596852
0.600178
0.603152
0.605783
0.608063
0.60997
0.385047
0.363805
0.344651
0.327293
0.311482
0.297013
0.283715
0.271447
0.260093
0.249557
0.239761
0.230639
0.22214
0.21422
0.206844
0.199984
0.193619
0.187734
0.182318
0.177365
0.172874
0.16885
0.165302
0.162241
0.159688
0.157665
0.156202
0.155334
0.155098
0.155542
0.156711
0.158657
0.16143
0.165076
0.169635
0.175137
0.181598
0.189016
0.197369
0.206617
0.216697
0.227534
0.239034
0.251096
0.263613
0.276476
0.289579
0.302819
0.316101
0.329337
0.342449
0.355367
0.368031
0.380379
0.392364
0.403948
0.415098
0.425788
0.435998
0.445713
0.454922
0.46362
0.471802
0.479472
0.486632
0.493291
0.499462
0.505159
0.510403
0.515219
0.51963
0.52366
0.527326
0.530632
0.533575
0.385048
0.36381
0.344666
0.32733
0.311556
0.29714
0.28391
0.271721
0.260452
0.250001
0.240283
0.231225
0.222767
0.214859
0.207459
0.200533
0.194052
0.187994
0.18234
0.177077
0.172195
0.167688
0.163555
0.159795
0.156413
0.153417
0.150818
0.148631
0.146872
0.145563
0.144731
0.144402
0.14461
0.145388
0.146775
0.148806
0.15152
0.154949
0.159124
0.164064
0.169784
0.176281
0.183544
0.191544
0.200241
0.20958
0.219497
0.229918
0.240763
0.251947
0.263385
0.274995
0.286697
0.298412
0.310063
0.321582
0.332907
0.343982
0.354759
0.365195
0.375255
0.38491
0.394135
0.402913
0.411231
0.419082
0.426462
0.433376
0.43983
0.445837
0.451414
0.456579
0.461348
0.465733
0.469736
0.385048
0.363811
0.344671
0.327343
0.311584
0.297191
0.283992
0.271841
0.260616
0.250212
0.24054
0.231524
0.2231
0.215215
0.207823
0.200885
0.19437
0.18825
0.182505
0.177117
0.172072
0.16736
0.162973
0.158908
0.155163
0.151739
0.148639
0.14587
0.14344
0.14136
0.139644
0.138308
0.13737
0.136854
0.136782
0.137182
0.138083
0.139516
0.141514
0.144108
0.147331
0.15121
0.155769
0.161027
0.166992
0.173664
0.181028
0.189061
0.197723
0.206965
0.216724
0.226931
0.237506
0.24837
0.259435
0.270614
0.281822
0.292979
0.30401
0.314848
0.325432
0.33571
0.345639
0.355181
0.364308
0.372997
0.381234
0.389011
0.396325
0.403181
0.409587
0.415558
0.421108
0.426251
0.430991
0.385048
0.363811
0.344671
0.327343
0.311584
0.297191
0.283992
0.271841
0.260616
0.250212
0.24054
0.231524
0.2231
0.215215
0.207823
0.200885
0.19437
0.18825
0.182505
0.177117
0.172072
0.16736
0.162973
0.158908
0.155163
0.151739
0.148639
0.14587
0.14344
0.14136
0.139644
0.138307
0.13737
0.136853
0.136781
0.137181
0.138082
0.139515
0.141513
0.144107
0.14733
0.151209
0.155768
0.161026
0.166991
0.173662
0.181027
0.189059
0.197722
0.206963
0.216723
0.226929
0.237505
0.248368
0.259433
0.270612
0.28182
0.292977
0.304009
0.314846
0.32543
0.335709
0.345637
0.355179
0.364306
0.372995
0.381233
0.38901
0.396325
0.403182
0.409591
0.415566
0.421122
0.426273
0.431022
0.385048
0.36381
0.344666
0.32733
0.311556
0.29714
0.28391
0.271721
0.260452
0.250001
0.240283
0.231225
0.222767
0.214859
0.207459
0.200533
0.194052
0.187994
0.18234
0.177077
0.172194
0.167688
0.163554
0.159794
0.156412
0.153416
0.150817
0.148628
0.146869
0.14556
0.144727
0.144397
0.144604
0.145382
0.146767
0.148798
0.15151
0.154938
0.159111
0.16405
0.169768
0.176264
0.183525
0.191523
0.200219
0.209557
0.219472
0.229892
0.240735
0.251918
0.263356
0.274965
0.286667
0.298381
0.310032
0.321551
0.332876
0.343951
0.354728
0.365165
0.375225
0.384879
0.394105
0.402883
0.411201
0.419052
0.426434
0.433349
0.439806
0.445819
0.451405
0.456583
0.461371
0.46578
0.469808
0.385047
0.363805
0.344651
0.327293
0.311482
0.297013
0.283715
0.271447
0.260093
0.249557
0.239761
0.23064
0.222141
0.21422
0.206844
0.199984
0.193619
0.187734
0.182317
0.177364
0.172873
0.168849
0.165299
0.162238
0.159684
0.15766
0.156196
0.155326
0.155089
0.155531
0.156698
0.158642
0.161412
0.165055
0.169611
0.17511
0.181568
0.188982
0.197331
0.206575
0.216652
0.227485
0.238982
0.251041
0.263556
0.276417
0.289518
0.302756
0.316036
0.329271
0.342381
0.3553
0.367963
0.38031
0.392296
0.403879
0.41503
0.42572
0.435931
0.445646
0.454855
0.463553
0.471736
0.479406
0.486567
0.493227
0.499399
0.5051
0.51035
0.515175
0.519602
0.523657
0.527355
0.5307
0.533682
0.385045
0.363793
0.344613
0.327207
0.311323
0.296757
0.283344
0.270953
0.259477
0.248833
0.238952
0.229782
0.221279
0.213412
0.206155
0.199492
0.193412
0.187911
0.182993
0.178666
0.174946
0.171858
0.169432
0.167707
0.166731
0.166557
0.167248
0.16887
0.171492
0.175181
0.179996
0.185982
0.193167
0.201551
0.211109
0.221786
0.233498
0.246138
0.259582
0.273695
0.288334
0.30336
0.318641
0.33405
0.349476
0.364817
0.379984
0.394901
0.409501
0.423729
0.437538
0.450889
0.463738
0.476057
0.487827
0.499032
0.50966
0.519704
0.529162
0.538032
0.546321
0.554033
0.561179
0.56777
0.573822
0.579352
0.584385
0.588947
0.59307
0.596789
0.600141
0.603151
0.605829
0.608164
0.610121
0.385039
0.363763
0.344529
0.327031
0.311019
0.296299
0.28272
0.270167
0.258551
0.247805
0.237876
0.228726
0.220327
0.21266
0.205716
0.199494
0.194003
0.189258
0.185289
0.182132
0.179838
0.178466
0.178092
0.178796
0.180671
0.183809
0.188298
0.194215
0.20161
0.210504
0.220878
0.23267
0.245775
0.260057
0.275348
0.291468
0.30823
0.325453
0.342966
0.360614
0.378261
0.39579
0.4131
0.430111
0.446753
0.462971
0.47872
0.493965
0.508676
0.522833
0.536416
0.5494
0.561772
0.573526
0.584656
0.59516
0.605036
0.614288
0.622918
0.630935
0.638346
0.645164
0.651401
0.657074
0.662203
0.66681
0.670925
0.674582
0.677821
0.680685
0.683212
0.685427
0.687326
0.688869
0.68998
0.385025
0.363699
0.344363
0.326708
0.310499
0.295562
0.281774
0.269044
0.257308
0.246519
0.236645
0.227668
0.219578
0.212379
0.206086
0.200726
0.196342
0.192991
0.190748
0.189704
0.189968
0.191659
0.194904
0.199824
0.20652
0.215061
0.225462
0.237683
0.251618
0.267104
0.283932
0.301862
0.320645
0.340034
0.3598
0.379738
0.399672
0.419453
0.438962
0.458103
0.476801
0.495
0.512659
0.529746
0.546242
0.562131
0.577405
0.59206
0.606092
0.619502
0.632278
0.644419
0.655929
0.666811
0.677066
0.686697
0.695709
0.704107
0.711897
0.719087
0.725687
0.731708
0.737164
0.742071
0.74645
0.750325
0.753731
0.756705
0.759295
0.761547
0.763501
0.765174
0.766538
0.767514
0.767965
0.384994
0.363574
0.344063
0.326167
0.309684
0.294479
0.280466
0.267591
0.255816
0.245122
0.235505
0.226971
0.219545
0.213266
0.208194
0.204412
0.202027
0.20117
0.201995
0.204673
0.209371
0.216241
0.225387
0.236845
0.250562
0.266393
0.284106
0.303406
0.323959
0.345427
0.367484
0.38984
0.412243
0.434489
0.456414
0.477893
0.498831
0.519163
0.538844
0.557847
0.576157
0.593769
0.610684
0.62691
0.642455
0.657333
0.671555
0.685134
0.698081
0.710398
0.722093
0.733175
0.743654
0.753535
0.762825
0.771527
0.779648
0.787192
0.794166
0.800577
0.806433
0.811744
0.816522
0.820783
0.824545
0.827835
0.83069
0.833154
0.835277
0.837111
0.838692
0.840023
0.841048
0.841633
0.841565
0.384935
0.36335
0.343567
0.325335
0.308511
0.293018
0.278818
0.265896
0.254254
0.243907
0.234889
0.227254
0.221083
0.216486
0.21361
0.212637
0.213783
0.21728
0.223357
0.232198
0.243902
0.258448
0.275678
0.295296
0.316907
0.340058
0.364282
0.389144
0.41426
0.439311
0.464047
0.488276
0.511861
0.534708
0.556758
0.577977
0.598352
0.617886
0.636589
0.654482
0.671587
0.687929
0.703536
0.718435
0.73265
0.746207
0.759128
0.771433
0.783132
0.79424
0.804771
0.814738
0.82415
0.833016
0.841341
0.84913
0.856387
0.863118
0.869327
0.875019
0.880201
0.884882
0.889069
0.892777
0.896026
0.898843
0.901267
0.903348
0.905142
0.906702
0.908061
0.909203
0.910032
0.910353
0.909857
0.384827
0.362977
0.342807
0.324151
0.30695
0.291202
0.276926
0.264158
0.252948
0.243368
0.235519
0.229544
0.225631
0.224025
0.225019
0.228933
0.23608
0.246699
0.260888
0.278554
0.299392
0.322913
0.348516
0.37556
0.403435
0.431611
0.459654
0.487232
0.514105
0.540109
0.565141
0.589145
0.612101
0.634009
0.654892
0.674778
0.693708
0.711723
0.728866
0.745181
0.760709
0.775493
0.789568
0.80297
0.815732
0.827882
0.839445
0.850439
0.86088
0.870787
0.880176
0.889059
0.897446
0.905343
0.912756
0.919687
0.926142
0.932121
0.937631
0.942673
0.947254
0.951377
0.95505
0.958287
0.961105
0.963536
0.965622
0.967419
0.968989
0.970387
0.971638
0.972704
0.973445
0.973589
0.972718
0.384645
0.362402
0.341724
0.322578
0.305017
0.289125
0.274992
0.262721
0.252441
0.244324
0.238605
0.23559
0.235666
0.239274
0.246854
0.258749
0.275094
0.295725
0.320163
0.347677
0.3774
0.408461
0.440078
0.471615
0.502589
0.532661
0.56161
0.589308
0.615692
0.640752
0.664508
0.687
0.708285
0.728424
0.747481
0.765523
0.782613
0.798811
0.814174
0.828756
0.842605
0.855766
0.868281
0.880185
0.891511
0.902288
0.912536
0.922275
0.931525
0.940304
0.948627
0.956504
0.963943
0.970949
0.977525
0.983675
0.989401
0.994703
0.999586
1.00405
1.0081
1.01173
1.01496
1.0178
1.02026
1.02237
1.02419
1.02579
1.02721
1.02854
1.02977
1.03085
1.03158
1.03161
1.03039
0.384357
0.361569
0.340275
0.320619
0.302791
0.286976
0.273359
0.262154
0.253634
0.248166
0.246231
0.248416
0.255349
0.267569
0.28534
0.30849
0.336365
0.36793
0.401972
0.437308
0.472928
0.508054
0.54214
0.574839
0.605953
0.635395
0.663155
0.68927
0.71381
0.736859
0.75851
0.77886
0.798001
0.816023
0.833011
0.849043
0.864191
0.878521
0.892092
0.904958
0.91717
0.928769
0.939796
0.950284
0.960264
0.969759
0.978788
0.987374
0.995535
1.00329
1.01064
1.01761
1.02419
1.03039
1.03622
1.04167
1.04675
1.05145
1.05578
1.05973
1.06332
1.06653
1.06938
1.07187
1.07403
1.07589
1.07751
1.07896
1.08032
1.08163
1.08292
1.08408
1.08486
1.08482
1.08328
0.383927
0.360433
0.338442
0.318325
0.300431
0.285075
0.272596
0.263411
0.258075
0.257314
0.261993
0.272966
0.290808
0.315512
0.34633
0.381887
0.420501
0.460537
0.50064
0.539816
0.577419
0.613076
0.646615
0.678001
0.707281
0.734554
0.759947
0.783596
0.805639
0.826209
0.845433
0.863427
0.880298
0.896144
0.911053
0.925104
0.938368
0.950908
0.962782
0.97404
0.984727
0.994882
1.00454
1.01373
1.02249
1.03082
1.03875
1.0463
1.05348
1.06031
1.0668
1.07296
1.07878
1.08427
1.08944
1.09427
1.09877
1.10295
1.10679
1.1103
1.11348
1.11634
1.11886
1.12106
1.12298
1.12464
1.12611
1.12747
1.1288
1.13016
1.13156
1.13285
1.13374
1.13366
1.13181
0.383319
0.358958
0.336244
0.315811
0.298206
0.283951
0.273661
0.268152
0.26849
0.275923
0.291577
0.315958
0.348517
0.38762
0.430987
0.476297
0.521626
0.565614
0.607424
0.646626
0.683068
0.71677
0.747858
0.776507
0.802914
0.82728
0.849796
0.870644
0.889987
0.907975
0.924741
0.940404
0.955069
0.968832
0.981775
0.993972
1.00549
1.01638
1.0267
1.03649
1.0458
1.05465
1.06308
1.07111
1.07876
1.08605
1.093
1.09963
1.10595
1.11198
1.1177
1.12314
1.1283
1.13316
1.13774
1.14204
1.14604
1.14975
1.15318
1.15631
1.15914
1.16168
1.16393
1.1659
1.16761
1.16911
1.17047
1.17179
1.17314
1.1746
1.17615
1.17762
1.17864
1.17856
1.17643
0.382499
0.357132
0.333739
0.313276
0.296568
0.284508
0.27825
0.279332
0.289537
0.310342
0.342057
0.383258
0.431091
0.482235
0.533801
0.583741
0.630842
0.674526
0.714639
0.751269
0.784637
0.81502
0.842711
0.867994
0.89113
0.912361
0.931899
0.949931
0.966625
0.982125
0.996558
1.01003
1.02265
1.0345
1.04564
1.05615
1.06609
1.0755
1.08442
1.09291
1.10098
1.10867
1.11601
1.123
1.12968
1.13606
1.14215
1.14797
1.15353
1.15884
1.1639
1.16871
1.17328
1.1776
1.18168
1.1855
1.18907
1.19238
1.19544
1.19824
1.20079
1.20307
1.20508
1.20685
1.2084
1.20978
1.21107
1.21237
1.21378
1.21536
1.21709
1.21877
1.21996
1.21991
1.21754
0.381436
0.354959
0.331044
0.311056
0.296297
0.288366
0.28942
0.30201
0.328145
0.367832
0.418385
0.475358
0.534265
0.591732
0.64574
0.695353
0.740336
0.780846
0.817229
0.849905
0.879296
0.905804
0.929787
0.951564
0.971412
0.989572
1.00625
1.02162
1.03584
1.04905
1.06134
1.07283
1.0836
1.09372
1.10325
1.11226
1.12079
1.12888
1.13657
1.14389
1.15088
1.15754
1.16391
1.17
1.17583
1.1814
1.18674
1.19185
1.19675
1.20144
1.20591
1.21018
1.21424
1.21809
1.22172
1.22513
1.22832
1.2313
1.23405
1.23657
1.23886
1.24092
1.24275
1.24435
1.24577
1.24706
1.2483
1.24961
1.2511
1.25283
1.25477
1.25668
1.25807
1.25809
1.25551
0.380108
0.352477
0.328359
0.309741
0.298807
0.2985
0.312469
0.343631
0.391724
0.452364
0.519027
0.585869
0.649089
0.70683
0.75855
0.804426
0.844967
0.880792
0.912518
0.940714
0.965879
0.988444
1.00877
1.02718
1.04392
1.05922
1.07326
1.08621
1.09819
1.10932
1.1197
1.12942
1.13854
1.14713
1.15524
1.16291
1.1702
1.17713
1.18373
1.19004
1.19607
1.20184
1.20736
1.21265
1.21773
1.22261
1.22729
1.23178
1.2361
1.24025
1.24422
1.24801
1.25163
1.25506
1.25831
1.26137
1.26424
1.26692
1.2694
1.27169
1.27377
1.27565
1.27732
1.27879
1.28011
1.28133
1.28254
1.28388
1.28546
1.28735
1.2895
1.29166
1.29327
1.2934
1.2907
0.378499
0.349757
0.326046
0.310415
0.306752
0.320203
0.355304
0.411906
0.483479
0.560703
0.636003
0.705133
0.766519
0.820133
0.866647