/*--------------------------------*- C++ -*----------------------------------*\
  =========                 |
  \\      /  F ield         | OpenFOAM: The Open Source CFD Toolbox
   \\    /   O peration     | Website:  https://openfoam.org
    \\  /    A nd           | Version:  7
     \\/     M anipulation  |
\*---------------------------------------------------------------------------*/
FoamFile
{
    version     2.0;
    format      ascii;
    class       volScalarField;
    location    "1000";
    object      p;
}
// * * * * * * * * * * * * * * * * * * * * * * * * * * * * * * * * * * * * * //

dimensions      [0 2 -2 0 0 0 0];

internalField   nonuniform List<scalar> 
4500
(
65.816
62.8042
61.6444
60.5102
59.3822
58.2973
57.2462
56.2193
55.2131
54.2248
53.2521
52.2931
51.3464
50.4107
49.4851
48.5686
47.6605
46.7602
45.8671
44.9807
44.1006
43.2263
42.3576
41.494
40.6354
39.7814
38.9318
38.0863
37.2448
36.4071
35.5729
34.7422
33.9147
33.0902
32.2687
31.45
30.634
29.8206
29.0095
28.2008
27.3942
26.5897
25.7871
24.9864
24.1873
23.3899
22.594
21.7994
21.0061
20.2138
19.4226
18.6322
17.8425
17.0535
16.265
15.4767
14.6888
13.9009
13.113
12.325
11.5367
10.7481
9.95908
9.1695
8.37929
7.58832
6.79645
6.00347
5.20915
4.41319
3.61533
2.81536
2.0133
1.20938
0.406213
65.4292
62.7759
61.6432
60.5107
59.3826
58.2976
57.2464
56.2195
55.2132
54.2249
53.2522
52.2932
51.3465
50.4108
49.4851
48.5686
47.6605
46.7602
45.8671
44.9807
44.1006
43.2263
42.3576
41.494
40.6354
39.7814
38.9318
38.0863
37.2448
36.4071
35.5729
34.7422
33.9147
33.0902
32.2687
31.45
30.634
29.8206
29.0095
28.2008
27.3942
26.5897
25.7871
24.9864
24.1873
23.3899
22.594
21.7994
21.006
20.2138
19.4226
18.6322
17.8425
17.0535
16.2649
15.4767
14.6888
13.9009
13.113
12.325
11.5367
10.7481
9.95907
9.16949
8.37928
7.58831
6.79644
6.00346
5.20914
4.41318
3.61532
2.81535
2.01329
1.20938
0.406214
65.3417
62.7829
61.6453
60.5117
59.3832
58.298
57.2468
56.2198
55.2135
54.2251
53.2524
52.2934
51.3466
50.4109
49.4852
48.5687
47.6606
46.7603
45.8672
44.9808
44.1006
43.2264
42.3576
41.4941
40.6354
39.7814
38.9318
38.0864
37.2449
36.4071
35.573
34.7422
33.9147
33.0902
32.2687
31.4501
30.634
29.8206
29.0095
28.2008
27.3942
26.5897
25.7871
24.9864
24.1873
23.3899
22.594
21.7994
21.006
20.2138
19.4226
18.6322
17.8425
17.0535
16.2649
15.4767
14.6888
13.9009
13.113
12.325
11.5367
10.7481
9.95906
9.16948
8.37927
7.5883
6.79643
6.00345
5.20913
4.41317
3.61531
2.81535
2.01329
1.20938
0.406215
65.3413
62.7911
61.6472
60.5128
59.384
58.2986
57.2472
56.2201
55.2138
54.2254
53.2526
52.2936
51.3468
50.4111
49.4854
48.5688
47.6607
46.7604
45.8673
44.9808
44.1007
43.2264
42.3577
41.4941
40.6355
39.7815
38.9318
38.0864
37.2449
36.4071
35.573
34.7422
33.9147
33.0902
32.2687
31.4501
30.634
29.8206
29.0095
28.2008
27.3942
26.5897
25.7871
24.9864
24.1873
23.3899
22.594
21.7994
21.006
20.2138
19.4225
18.6322
17.8425
17.0535
16.2649
15.4767
14.6887
13.9009
13.113
12.325
11.5367
10.7481
9.95905
9.16946
8.37925
7.58828
6.79642
6.00344
5.20911
4.41316
3.6153
2.81534
2.01329
1.20938
0.406215
65.3375
62.7942
61.6484
60.5139
59.3849
58.2993
57.2478
56.2205
55.2141
54.2257
53.2528
52.2938
51.347
50.4112
49.4855
48.569
47.6608
46.7605
45.8673
44.9809
44.1008
43.2265
42.3577
41.4942
40.6355
39.7815
38.9319
38.0864
37.2449
36.4072
35.573
34.7422
33.9147
33.0903
32.2688
31.4501
30.634
29.8206
29.0095
28.2008
27.3942
26.5897
25.7871
24.9863
24.1873
23.3899
22.5939
21.7994
21.006
20.2138
19.4225
18.6321
17.8425
17.0535
16.2649
15.4767
14.6887
13.9008
13.113
12.3249
11.5367
10.7481
9.95903
9.16945
8.37923
7.58827
6.7964
6.00342
5.2091
4.41315
3.61529
2.81533
2.01328
1.20937
0.406214
65.3272
62.7965
61.6494
60.515
59.3858
58.3
57.2484
56.221
55.2145
54.226
53.2531
52.294
51.3472
50.4114
49.4857
48.5691
47.661
46.7606
45.8675
44.981
44.1009
43.2266
42.3578
41.4942
40.6356
39.7816
38.9319
38.0865
37.245
36.4072
35.573
34.7422
33.9147
33.0903
32.2688
31.4501
30.6341
29.8206
29.0095
28.2008
27.3942
26.5897
25.7871
24.9863
24.1873
23.3899
22.5939
21.7994
21.006
20.2138
19.4225
18.6321
17.8425
17.0534
16.2649
15.4767
14.6887
13.9008
13.1129
12.3249
11.5367
10.7481
9.95901
9.16943
8.37922
7.58825
6.79638
6.00341
5.20909
4.41314
3.61528
2.81533
2.01328
1.20937
0.406211
65.3176
62.7994
61.6502
60.5159
59.3867
58.3008
57.249
56.2216
55.215
54.2264
53.2535
52.2943
51.3474
50.4116
49.4859
48.5693
47.6611
46.7607
45.8676
44.9811
44.101
43.2267
42.3579
41.4943
40.6356
39.7816
38.932
38.0865
37.245
36.4072
35.5731
34.7423
33.9147
33.0903
32.2688
31.4501
30.6341
29.8206
29.0095
28.2008
27.3942
26.5897
25.7871
24.9863
24.1873
23.3899
22.5939
21.7993
21.006
20.2138
19.4225
18.6321
17.8425
17.0534
16.2649
15.4767
14.6887
13.9008
13.1129
12.3249
11.5366
10.748
9.95899
9.16941
8.3792
7.58823
6.79637
6.00339
5.20907
4.41313
3.61527
2.81532
2.01327
1.20936
0.406205
65.3089
62.8026
61.651
60.5167
59.3875
58.3016
57.2497
56.2222
55.2155
54.2269
53.2539
52.2947
51.3477
50.4119
49.4861
48.5695
47.6613
46.7609
45.8677
44.9813
44.1011
43.2268
42.358
41.4944
40.6357
39.7817
38.9321
38.0866
37.2451
36.4073
35.5731
34.7423
33.9148
33.0903
32.2688
31.4501
30.6341
29.8206
29.0095
28.2008
27.3942
26.5897
25.7871
24.9863
24.1873
23.3899
22.5939
21.7993
21.006
20.2138
19.4225
18.6321
17.8425
17.0534
16.2649
15.4767
14.6887
13.9008
13.1129
12.3249
11.5366
10.748
9.95897
9.16939
8.37918
7.58821
6.79635
6.00337
5.20906
4.41312
3.61527
2.81531
2.01326
1.20935
0.406196
65.3
62.8059
61.6516
60.5174
59.3883
58.3023
57.2504
56.2228
55.216
54.2273
53.2543
52.295
51.3481
50.4122
49.4864
48.5697
47.6615
46.7611
45.8679
44.9814
44.1012
43.2269
42.3581
41.4945
40.6358
39.7818
38.9321
38.0866
37.2451
36.4073
35.5732
34.7424
33.9148
33.0904
32.2689
31.4502
30.6341
29.8206
29.0096
28.2008
27.3942
26.5897
25.7871
24.9864
24.1873
23.3899
22.5939
21.7993
21.006
20.2137
19.4225
18.6321
17.8425
17.0534
16.2648
15.4766
14.6887
13.9008
13.1129
12.3249
11.5366
10.748
9.95895
9.16937
8.37916
7.58819
6.79633
6.00336
5.20904
4.4131
3.61526
2.81531
2.01325
1.20933
0.406183
65.2904
62.8092
61.6521
60.518
59.3889
58.303
57.2511
56.2234
55.2166
54.2279
53.2547
52.2954
51.3484
50.4125
49.4867
48.57
47.6618
46.7613
45.8681
44.9816
44.1014
43.2271
42.3583
41.4946
40.6359
39.7819
38.9322
38.0867
37.2452
36.4074
35.5732
34.7424
33.9149
33.0904
32.2689
31.4502
30.6342
29.8207
29.0096
28.2008
27.3942
26.5897
25.7871
24.9864
24.1873
23.3899
22.5939
21.7993
21.006
20.2137
19.4225
18.6321
17.8424
17.0534
16.2648
15.4766
14.6886
13.9008
13.1129
12.3249
11.5366
10.748
9.95893
9.16935
8.37914
7.58817
6.79631
6.00334
5.20903
4.41309
3.61525
2.8153
2.01324
1.20931
0.406165
65.2802
62.8127
61.6525
60.5184
59.3894
58.3035
57.2517
56.224
55.2172
54.2284
53.2552
52.2959
51.3489
50.4129
49.487
48.5703
47.6621
46.7616
45.8683
44.9818
44.1016
43.2272
42.3584
41.4948
40.6361
39.782
38.9323
38.0868
37.2453
36.4075
35.5733
34.7425
33.9149
33.0905
32.269
31.4502
30.6342
29.8207
29.0096
28.2009
27.3943
26.5897
25.7871
24.9864
24.1873
23.3899
22.5939
21.7994
21.006
20.2137
19.4225
18.6321
17.8424
17.0534
16.2648
15.4766
14.6886
13.9008
13.1129
12.3248
11.5366
10.748
9.95891
9.16933
8.37912
7.58815
6.79629
6.00332
5.20901
4.41308
3.61524
2.81529
2.01323
1.20929
0.406142
65.2692
62.8166
61.6527
60.5187
59.3897
58.304
57.2522
56.2246
55.2177
54.2289
53.2558
52.2964
51.3493
50.4133
49.4874
48.5707
47.6624
46.7619
45.8686
44.9821
44.1018
43.2274
42.3586
41.495
40.6362
39.7822
38.9325
38.087
37.2454
36.4076
35.5734
34.7426
33.915
33.0906
32.269
31.4503
30.6343
29.8208
29.0097
28.2009
27.3943
26.5898
25.7872
24.9864
24.1874
23.3899
22.594
21.7994
21.006
20.2138
19.4225
18.6321
17.8424
17.0534
16.2648
15.4766
14.6886
13.9007
13.1128
12.3248
11.5366
10.7479
9.95889
9.16931
8.37909
7.58813
6.79627
6.0033
5.209
4.41307
3.61523
2.81528
2.01321
1.20926
0.40611
65.2575
62.8207
61.6529
60.519
59.39
58.3043
57.2526
56.2251
55.2183
54.2295
53.2563
52.2969
51.3498
50.4137
49.4878
48.571
47.6627
46.7622
45.8689
44.9823
44.1021
43.2277
42.3588
41.4952
40.6364
39.7823
38.9326
38.0871
37.2456
36.4078
35.5735
34.7427
33.9151
33.0907
32.2691
31.4504
30.6343
29.8208
29.0097
28.201
27.3943
26.5898
25.7872
24.9864
24.1874
23.39
22.594
21.7994
21.006
20.2138
19.4225
18.6321
17.8424
17.0534
16.2648
15.4766
14.6886
13.9007
13.1128
12.3248
11.5365
10.7479
9.95888
9.16929
8.37908
7.58811
6.79625
6.00329
5.20899
4.41306
3.61522
2.81527
2.01319
1.20923
0.40607
65.2452
62.8253
61.653
60.5192
59.3902
58.3045
57.2529
56.2254
55.2187
54.2299
53.2567
52.2973
51.3502
50.4142
49.4882
48.5714
47.6631
46.7625
45.8692
44.9826
44.1023
43.2279
42.3591
41.4954
40.6366
39.7825
38.9328
38.0873
37.2457
36.4079
35.5737
34.7428
33.9153
33.0908
32.2692
31.4505
30.6344
29.8209
29.0098
28.201
27.3944
26.5899
25.7873
24.9865
24.1874
23.39
22.594
21.7994
21.006
20.2138
19.4225
18.6321
17.8425
17.0534
16.2648
15.4766
14.6886
13.9007
13.1128
12.3248
11.5365
10.7479
9.95886
9.16927
8.37906
7.58809
6.79624
6.00327
5.20897
4.41305
3.61521
2.81525
2.01317
1.2092
0.40602
65.232
62.8302
61.6532
60.5193
59.3903
58.3046
57.253
56.2257
55.219
54.2303
53.2572
52.2978
51.3507
50.4146
49.4886
48.5718
47.6635
46.7629
45.8696
44.983
44.1027
43.2282
42.3593
41.4957
40.6369
39.7828
38.933
38.0875
37.2459
36.4081
35.5738
34.743
33.9154
33.0909
32.2693
31.4506
30.6345
29.821
29.0099
28.2011
27.3945
26.5899
25.7873
24.9866
24.1875
23.39
22.5941
21.7995
21.0061
20.2138
19.4226
18.6321
17.8425
17.0534
16.2648
15.4766
14.6886
13.9007
13.1128
12.3248
11.5365
10.7479
9.95885
9.16926
8.37904
7.58808
6.79622
6.00326
5.20896
4.41304
3.6152
2.81524
2.01315
1.20916
0.405957
65.2181
62.8356
61.6533
60.5195
59.3904
58.3047
57.2531
56.2258
55.2192
54.2306
53.2575
52.2982
51.3511
50.415
49.4891
48.5722
47.6639
46.7633
45.8699
44.9833
44.103
43.2286
42.3596
41.4959
40.6372
39.783
38.9333
38.0877
37.2461
36.4083
35.574
34.7432
33.9156
33.0911
32.2695
31.4507
30.6347
29.8211
29.01
28.2012
27.3946
26.59
25.7874
24.9866
24.1876
23.3901
22.5941
21.7995
21.0061
20.2139
19.4226
18.6322
17.8425
17.0534
16.2649
15.4766
14.6886
13.9007
13.1128
12.3248
11.5365
10.7479
9.95885
9.16925
8.37904
7.58807
6.79621
6.00325
5.20895
4.41303
3.61519
2.81523
2.01313
1.20913
0.405879
65.2033
62.8415
61.6535
60.5198
59.3905
58.3047
57.2531
56.2258
55.2193
54.2307
53.2577
52.2984
51.3514
50.4154
49.4894
48.5726
47.6643
46.7637
45.8703
44.9837
44.1033
43.2289
42.36
41.4963
40.6375
39.7833
38.9336
38.088
37.2464
36.4085
35.5742
34.7434
33.9158
33.0912
32.2697
31.4509
30.6348
29.8213
29.0102
28.2013
27.3947
26.5901
25.7875
24.9867
24.1877
23.3902
22.5942
21.7996
21.0062
20.2139
19.4227
18.6322
17.8426
17.0535
16.2649
15.4767
14.6887
13.9008
13.1129
12.3248
11.5365
10.7479
9.95885
9.16925
8.37903
7.58806
6.7962
6.00324
5.20894
4.41302
3.61518
2.81522
2.01311
1.20909
0.405783
65.1878
62.8478
61.6536
60.5201
59.3906
58.3048
57.2531
56.2258
55.2193
54.2308
53.2578
52.2986
51.3516
50.4157
49.4898
48.573
47.6646
46.7641
45.8707
44.9841
44.1037
43.2292
42.3603
41.4966
40.6378
39.7836
38.9338
38.0883
37.2466
36.4088
35.5745
34.7436
33.916
33.0914
32.2699
31.4511
30.635
29.8214
29.0103
28.2015
27.3949
26.5903
25.7877
24.9869
24.1878
23.3903
22.5943
21.7997
21.0063
20.214
19.4227
18.6323
17.8426
17.0535
16.265
15.4767
14.6887
13.9008
13.1129
12.3248
11.5366
10.7479
9.95886
9.16926
8.37903
7.58806
6.7962
6.00324
5.20894
4.41302
3.61518
2.81522
2.0131
1.20906
0.405666
65.1715
62.8546
61.6538
60.5205
59.3908
58.3048
57.2531
56.2258
55.2193
54.2308
53.2578
52.2987
51.3518
50.4159
49.49
48.5733
47.665
46.7644
45.8711
44.9844
44.1041
43.2296
42.3607
41.4969
40.6381
39.7839
38.9342
38.0886
37.2469
36.409
35.5747
34.7439
33.9162
33.0917
32.2701
31.4513
30.6352
29.8216
29.0105
28.2017
27.395
26.5904
25.7878
24.987
24.1879
23.3904
22.5944
21.7998
21.0064
20.2141
19.4228
18.6324
17.8427
17.0536
16.265
15.4768
14.6888
13.9009
13.1129
12.3249
11.5366
10.748
9.95888
9.16928
8.37905
7.58807
6.79621
6.00324
5.20895
4.41302
3.61518
2.81521
2.01309
1.20904
0.405522
65.1544
62.8618
61.6539
60.5209
59.391
58.3049
57.2532
56.2258
55.2192
54.2307
53.2578
52.2986
51.3518
50.4159
49.4901
48.5734
47.6652
46.7647
45.8714
44.9848
44.1044
43.23
42.361
41.4973
40.6385
39.7843
38.9345
38.0889
37.2472
36.4093
35.575
34.7442
33.9165
33.092
32.2704
31.4516
30.6354
29.8219
29.0107
28.2019
27.3952
26.5906
25.788
24.9872
24.1881
23.3906
22.5946
21.7999
21.0065
20.2142
19.4229
18.6325
17.8428
17.0537
16.2651
15.4769
14.6888
13.9009
13.113
12.3249
11.5366
10.748
9.95892
9.16931
8.37907
7.58809
6.79622
6.00326
5.20896
4.41303
3.61519
2.81522
2.01308
1.20903
0.405349
65.1367
62.8694
61.654
60.5214
59.3913
58.3051
57.2533
56.2258
55.2192
54.2307
53.2577
52.2986
51.3517
50.4159
49.4901
48.5735
47.6653
46.7648
45.8716
44.985
44.1047
43.2303
42.3613
41.4976
40.6388
39.7846
38.9348
38.0892
37.2476
36.4097
35.5754
34.7445
33.9168
33.0922
32.2706
31.4518
30.6357
29.8221
29.011
28.2021
27.3954
26.5908
25.7882
24.9874
24.1883
23.3908
22.5948
21.8001
21.0067
20.2144
19.4231
18.6326
17.8429
17.0538
16.2652
15.477
14.6889
13.901
13.1131
12.325
11.5367
10.7481
9.95897
9.16935
8.37911
7.58812
6.79625
6.00328
5.20898
4.41305
3.61521
2.81523
2.01309
1.20902
0.40514
65.1185
62.8772
61.6541
60.522
59.3917
58.3053
57.2534
56.2259
55.2192
54.2306
53.2577
52.2985
51.3516
50.4158
49.4901
48.5735
47.6653
46.7648
45.8716
44.9851
44.1049
43.2305
42.3616
41.4979
40.6391
39.7849
38.9352
38.0895
37.2479
36.41
35.5757
34.7448
33.9171
33.0926
32.2709
31.4521
30.636
29.8224
29.0112
28.2024
27.3957
26.5911
25.7884
24.9876
24.1885
23.391
22.595
21.8003
21.0069
20.2146
19.4232
18.6328
17.8431
17.054
16.2653
15.4771
14.689
13.9011
13.1132
12.3251
11.5368
10.7481
9.95904
9.16941
8.37916
7.58817
6.79629
6.00331
5.20901
4.41308
3.61523
2.81525
2.0131
1.20903
0.404891
65.1
62.8854
61.6541
60.5226
59.3921
58.3055
57.2535
56.226
55.2193
54.2307
53.2577
52.2985
51.3516
50.4158
49.49
48.5734
47.6652
46.7648
45.8716
44.9851
44.1049
43.2306
42.3617
41.4981
40.6393
39.7852
38.9354
38.0898
37.2482
36.4103
35.576
34.7451
33.9174
33.0929
32.2712
31.4524
30.6363
29.8227
29.0115
28.2027
27.396
26.5914
25.7887
24.9879
24.1887
23.3912
22.5952
21.8005
21.0071
20.2148
19.4234
18.633
17.8433
17.0541
16.2655
15.4772
14.6892
13.9012
13.1133
12.3252
11.5369
10.7482
9.95912
9.16949
8.37924
7.58823
6.79635
6.00337
5.20906
4.41312
3.61527
2.81529
2.01313
1.20905
0.404597
65.0814
62.8936
61.654
60.5232
59.3925
58.3058
57.2537
56.2261
55.2194
54.2307
53.2577
52.2985
51.3515
50.4157
49.4899
48.5733
47.6651
46.7647
45.8715
44.9851
44.1049
43.2305
42.3617
41.4981
40.6394
39.7853
38.9356
38.09
37.2484
36.4106
35.5763
34.7454
33.9177
33.0932
32.2716
31.4527
30.6366
29.823
29.0118
28.203
27.3963
26.5917
25.789
24.9881
24.189
23.3915
22.5954
21.8008
21.0073
20.215
19.4237
18.6332
17.8435
17.0543
16.2657
15.4774
14.6894
13.9014
13.1134
12.3254
11.537
10.7483
9.95924
9.16959
8.37933
7.58832
6.79643
6.00343
5.20912
4.41318
3.61532
2.81534
2.01317
1.20909
0.404256
65.0632
62.9018
61.6538
60.5239
59.3929
58.306
57.254
56.2263
55.2195
54.2308
53.2578
52.2985
51.3515
50.4157
49.4899
48.5732
47.665
46.7646
45.8714
44.985
44.1048
43.2305
42.3617
41.4981
40.6394
39.7853
38.9356
38.0901
37.2486
36.4107
35.5765
34.7456
33.918
33.0934
32.2718
31.453
30.6369
29.8233
29.0121
28.2033
27.3966
26.592
25.7893
24.9884
24.1893
23.3918
22.5957
21.801
21.0076
20.2153
19.4239
18.6334
17.8437
17.0546
16.2659
15.4776
14.6896
13.9016
13.1136
12.3255
11.5372
10.7485
9.95937
9.16972
8.37944
7.58842
6.79652
6.00352
5.2092
4.41325
3.61539
2.8154
2.01323
1.20915
0.403868
65.0457
62.9097
61.6535
60.5245
59.3934
58.3063
57.2542
56.2265
55.2197
54.2309
53.2578
52.2986
51.3516
50.4157
49.4898
48.5732
47.665
46.7646
45.8713
44.9849
44.1047
43.2304
42.3616
41.498
40.6393
39.7853
38.9356
38.0901
37.2486
36.4108
35.5765
34.7457
33.9181
33.0936
32.272
31.4533
30.6371
29.8236
29.0124
28.2036
27.3969
26.5922
25.7896
24.9887
24.1896
23.3921
22.596
21.8013
21.0079
20.2155
19.4242
18.6337
17.8439
17.0548
16.2661
15.4778
14.6898
13.9018
13.1138
12.3257
11.5373
10.7487
9.95953
9.16987
8.37958
7.58855
6.79664
6.00363
5.2093
4.41334
3.61548
2.81549
2.01331
1.20923
0.403443
65.0297
62.9171
61.6532
60.5251
59.3938
58.3066
57.2544
56.2267
55.2198
54.231
53.2579
52.2986
51.3516
50.4157
49.4899
48.5732
47.665
46.7645
45.8713
44.9848
44.1046
43.2303
42.3615
41.4979
40.6392
39.7852
38.9355
38.09
37.2485
36.4107
35.5765
34.7457
33.9181
33.0937
32.2721
31.4534
30.6373
29.8237
29.0126
28.2038
27.3971
26.5925
25.7898
24.989
24.1899
23.3923
22.5963
21.8016
21.0082
20.2158
19.4245
18.634
17.8442
17.0551
16.2664
15.4781
14.69
13.902
13.114
12.3259
11.5375
10.7488
9.95971
9.17003
8.37974
7.5887
6.79678
6.00376
5.20942
4.41346
3.61558
2.81559
2.01341
1.20932
0.402999
65.0158
62.9236
61.6529
60.5255
59.3942
58.3068
57.2546
56.2268
55.2199
54.2311
53.258
52.2987
51.3517
50.4158
49.4899
48.5732
47.665
46.7645
45.8713
44.9848
44.1046
43.2302
42.3614
41.4978
40.6391
39.7851
38.9354
38.0899
37.2484
36.4106
35.5764
34.7456
33.9181
33.0936
32.2721
31.4534
30.6373
29.8238
29.0127
28.2039
27.3972
26.5926
25.79
24.9892
24.1901
23.3926
22.5965
21.8018
21.0084
20.2161
19.4247
18.6342
17.8445
17.0553
16.2667
15.4783
14.6902
13.9023
13.1143
12.3261
11.5378
10.749
9.9599
9.17022
8.37991
7.58886
6.79694
6.00391
5.20956
4.41359
3.61571
2.8157
2.01352
1.20943
0.402572
65.0052
62.9286
61.6526
60.5259
59.3945
58.307
57.2547
56.227
55.22
54.2312
53.2581
52.2988
51.3517
50.4158
49.4899
48.5732
47.665
46.7645
45.8713
44.9848
44.1046
43.2302
42.3614
41.4978
40.6391
39.785
38.9353
38.0898
37.2483
36.4105
35.5763
34.7455
33.918
33.0935
32.272
31.4533
30.6372
29.8237
29.0126
28.2039
27.3972
26.5927
25.7901
24.9893
24.1902
23.3927
22.5967
21.802
21.0086
20.2163
19.4249
18.6344
17.8447
17.0555
16.2669
15.4786
14.6905
13.9025
13.1145
12.3263
11.538
10.7492
9.96009
9.1704
8.38009
7.58903
6.79709
6.00405
5.20969
4.41372
3.61583
2.81582
2.01363
1.20954
0.402216
64.9991
62.9316
61.6524
60.5261
59.3947
58.3071
57.2548
56.227
55.2201
54.2313
53.2581
52.2988
51.3518
50.4158
49.49
48.5733
47.665
46.7645
45.8713
44.9848
44.1046
43.2302
42.3614
41.4978
40.639
39.785
38.9353
38.0898
37.2483
36.4105
35.5763
34.7455
33.9179
33.0935
32.2719
31.4532
30.6372
29.8237
29.0126
28.2038
27.3972
26.5926
25.79
24.9893
24.1902
23.3927
22.5967
21.8021
21.0086
20.2163
19.425
18.6345
17.8448
17.0557
16.267
15.4787
14.6906
13.9026
13.1146
12.3265
11.5381
10.7494
9.96021
9.17052
8.3802
7.58914
6.7972
6.00415
5.20979
4.41381
3.61592
2.81591
2.01371
1.20961
0.402002
64.9991
62.9316
61.6524
60.5261
59.3947
58.3071
57.2548
56.227
55.2201
54.2313
53.2581
52.2988
51.3518
50.4158
49.49
48.5733
47.665
46.7645
45.8713
44.9848
44.1046
43.2302
42.3614
41.4978
40.639
39.785
38.9353
38.0898
37.2483
36.4105
35.5763
34.7455
33.9179
33.0935
32.2719
31.4532
30.6372
29.8237
29.0126
28.2038
27.3972
26.5926
25.79
24.9893
24.1902
23.3927
22.5967
21.8021
21.0086
20.2163
19.425
18.6345
17.8448
17.0557
16.267
15.4787
14.6906
13.9026
13.1146
12.3265
11.5381
10.7494
9.96021
9.17052
8.3802
7.58914
6.7972
6.00416
5.20979
4.41381
3.61592
2.81591
2.0137
1.20961
0.402002
65.0052
62.9286
61.6526
60.5259
59.3945
58.307
57.2547
56.227
55.22
54.2312
53.2581
52.2988
51.3517
50.4158
49.4899
48.5732
47.665
46.7645
45.8713
44.9848
44.1046
43.2302
42.3614
41.4978
40.6391
39.785
38.9353
38.0898
37.2483
36.4105
35.5763
34.7455
33.918
33.0935
32.272
31.4533
30.6372
29.8237
29.0126
28.2039
27.3972
26.5927
25.7901
24.9893
24.1902
23.3927
22.5967
21.802
21.0086
20.2163
19.4249
18.6344
17.8447
17.0555
16.2669
15.4786
14.6905
13.9025
13.1145
12.3263
11.538
10.7492
9.96009
9.1704
8.38009
7.58903
6.79709
6.00405
5.2097
4.41372
3.61583
2.81583
2.01362
1.20953
0.402216
65.0158
62.9236
61.6529
60.5255
59.3942
58.3068
57.2546
56.2268
55.2199
54.2311
53.258
52.2987
51.3517
50.4158
49.4899
48.5732
47.665
46.7645
45.8713
44.9848
44.1046
43.2302
42.3614
41.4978
40.6391
39.7851
38.9354
38.0899
37.2484
36.4106
35.5764
34.7456
33.9181
33.0936
32.2721
31.4534
30.6373
29.8238
29.0127
28.2039
27.3972
26.5926
25.79
24.9892
24.1901
23.3926
22.5965
21.8018
21.0084
20.2161
19.4247
18.6342
17.8445
17.0553
16.2667
15.4783
14.6902
13.9023
13.1143
12.3261
11.5378
10.749
9.9599
9.17022
8.37992
7.58887
6.79694
6.00391
5.20956
4.41359
3.61571
2.81571
2.01351
1.20942
0.402571
65.0296
62.9171
61.6532
60.5251
59.3938
58.3066
57.2544
56.2267
55.2198
54.231
53.2579
52.2986
51.3516
50.4157
49.4899
48.5732
47.665
46.7645
45.8713
44.9848
44.1046
43.2303
42.3615
41.4979
40.6392
39.7852
38.9355
38.09
37.2485
36.4107
35.5765
34.7457
33.9181
33.0937
32.2721
31.4534
30.6373
29.8237
29.0126
28.2038
27.3971
26.5925
25.7898
24.989
24.1899
23.3923
22.5963
21.8016
21.0082
20.2158
19.4245
18.634
17.8442
17.0551
16.2664
15.4781
14.69
13.902
13.114
12.3259
11.5375
10.7488
9.95971
9.17004
8.37974
7.5887
6.79678
6.00376
5.20943
4.41346
3.61559
2.81559
2.01339
1.20931
0.402997
65.0457
62.9098
61.6536
60.5245
59.3934
58.3063
57.2542
56.2265
55.2197
54.2309
53.2578
52.2986
51.3516
50.4157
49.4898
48.5732
47.665
46.7646
45.8713
44.9849
44.1047
43.2304
42.3616
41.498
40.6393
39.7853
38.9356
38.0901
37.2486
36.4108
35.5765
34.7457
33.9181
33.0936
32.272
31.4533
30.6371
29.8236
29.0124
28.2036
27.3969
26.5922
25.7896
24.9887
24.1896
23.3921
22.596
21.8013
21.0079
20.2155
19.4242
18.6337
17.8439
17.0548
16.2661
15.4778
14.6898
13.9018
13.1138
12.3257
11.5374
10.7487
9.95953
9.16987
8.37958
7.58855
6.79665
6.00363
5.20931
4.41335
3.61548
2.81549
2.01329
1.20922
0.40344
65.0632
62.9018
61.6538
60.5239
59.3929
58.306
57.254
56.2263
55.2195
54.2308
53.2578
52.2985
51.3515
50.4157
49.4899
48.5732
47.665
46.7646
45.8714
44.985
44.1048
43.2305
42.3617
41.4981
40.6394
39.7853
38.9356
38.0901
37.2486
36.4107
35.5765
34.7456
33.918
33.0934
32.2718
31.453
30.6369
29.8233
29.0121
28.2033
27.3966
26.592
25.7893
24.9884
24.1893
23.3918
22.5957
21.801
21.0076
20.2153
19.4239
18.6334
17.8437
17.0546
16.2659
15.4776
14.6896
13.9016
13.1136
12.3255
11.5372
10.7485
9.95937
9.16972
8.37945
7.58842
6.79653
6.00353
5.20921
4.41326
3.6154
2.81541
2.01321
1.20914
0.403864
65.0814
62.8936
61.654
60.5232
59.3925
58.3058
57.2537
56.2261
55.2194
54.2307
53.2577
52.2985
51.3515
50.4157
49.4899
48.5733
47.6651
46.7647
45.8715
44.9851
44.1049
43.2305
42.3617
41.4981
40.6394
39.7853
38.9356
38.09
37.2484
36.4106
35.5763
34.7454
33.9177
33.0932
32.2716
31.4527
30.6366
29.823
29.0118
28.203
27.3963
26.5917
25.789
24.9881
24.189
23.3915
22.5954
21.8008
21.0073
20.215
19.4237
18.6332
17.8435
17.0543
16.2657
15.4774
14.6894
13.9014
13.1134
12.3254
11.537
10.7483
9.95924
9.16959
8.37933
7.58832
6.79643
6.00344
5.20913
4.41318
3.61533
2.81534
2.01315
1.20908
0.40425
65.1
62.8854
61.6541
60.5226
59.3921
58.3055
57.2535
56.226
55.2193
54.2307
53.2577
52.2985
51.3516
50.4158
49.49
48.5734
47.6652
46.7648
45.8716
44.9851
44.1049
43.2306
42.3617
41.4981
40.6393
39.7852
38.9354
38.0898
37.2482
36.4103
35.576
34.7451
33.9174
33.0929
32.2712
31.4524
30.6363
29.8227
29.0115
28.2027
27.396
26.5914
25.7887
24.9879
24.1887
23.3912
22.5952
21.8005
21.0071
20.2148
19.4234
18.633
17.8433
17.0541
16.2655
15.4772
14.6892
13.9012
13.1133
12.3252
11.5369
10.7482
9.95913
9.16949
8.37924
7.58823
6.79636
6.00337
5.20907
4.41313
3.61527
2.81529
2.0131
1.20903
0.404589
65.1185
62.8773
61.6541
60.522
59.3917
58.3053
57.2534
56.2259
55.2192
54.2306
53.2577
52.2985
51.3516
50.4158
49.4901
48.5735
47.6653
46.7648
45.8716
44.9851
44.1049
43.2305
42.3616
41.4979
40.6391
39.7849
38.9352
38.0895
37.2479
36.41
35.5757
34.7448
33.9171
33.0926
32.2709
31.4521
30.636
29.8224
29.0112
28.2024
27.3957
26.5911
25.7884
24.9876
24.1885
23.391
22.595
21.8003
21.0069
20.2146
19.4232
18.6328
17.8431
17.054
16.2653
15.4771
14.689
13.9011
13.1132
12.3251
11.5368
10.7481
9.95904
9.16941
8.37917
7.58817
6.7963
6.00332
5.20902
4.41309
3.61523
2.81525
2.01306
1.20901
0.404881
65.1367
62.8694
61.654
60.5214
59.3913
58.3051
57.2533
56.2258
55.2192
54.2307
53.2577
52.2986
51.3517
50.4159
49.4901
48.5735
47.6653
46.7648
45.8716
44.985
44.1047
43.2303
42.3613
41.4976
40.6388
39.7846
38.9348
38.0892
37.2476
36.4097
35.5754
34.7445
33.9168
33.0922
32.2706
31.4518
30.6357
29.8221
29.011
28.2021
27.3954
26.5908
25.7882
24.9874
24.1883
23.3908
22.5948
21.8001
21.0067
20.2144
19.4231
18.6326
17.8429
17.0538
16.2652
15.477
14.6889
13.901
13.1131
12.325
11.5367
10.7481
9.95897
9.16935
8.37911
7.58812
6.79626
6.00328
5.20899
4.41306
3.61521
2.81523
2.01305
1.209
0.405127
65.1544
62.8618
61.6539
60.5209
59.391
58.3049
57.2532
56.2258
55.2192
54.2307
53.2578
52.2986
51.3518
50.4159
49.4901
48.5734
47.6652
46.7647
45.8714
44.9848
44.1044
43.23
42.361
41.4973
40.6385
39.7843
38.9345
38.0889
37.2472
36.4094
35.575
34.7442
33.9165
33.092
32.2704
31.4516
30.6354
29.8219
29.0107
28.2019
27.3952
26.5906
25.788
24.9872
24.1881
23.3906
22.5946
21.7999
21.0065
20.2142
19.4229
18.6325
17.8428
17.0537
16.2651
15.4769
14.6888
13.9009
13.113
12.3249
11.5366
10.748
9.95892
9.16931
8.37907
7.58809
6.79623
6.00326
5.20897
4.41304
3.61519
2.81521
2.01304
1.209
0.405334
65.1714
62.8546
61.6538
60.5205
59.3908
58.3048
57.2531
56.2258
55.2193
54.2308
53.2578
52.2987
51.3518
50.4159
49.49
48.5733
47.665
46.7644
45.8711
44.9844
44.1041
43.2296
42.3607
41.4969
40.6381
39.7839
38.9342
38.0886
37.2469
36.409
35.5748
34.7439
33.9162
33.0917
32.2701
31.4513
30.6352
29.8216
29.0105
28.2017
27.395
26.5904
25.7878
24.987
24.1879
23.3904
22.5944
21.7998
21.0064
20.2141
19.4228
18.6324
17.8427
17.0536
16.265
15.4768
14.6888
13.9009
13.1129
12.3249
11.5366
10.748
9.95888
9.16928
8.37905
7.58807
6.79622
6.00324
5.20896
4.41302
3.61518
2.81521
2.01304
1.20901
0.405505
65.1877
62.8479
61.6536
60.5201
59.3906
58.3048
57.2531
56.2258
55.2193
54.2308
53.2578
52.2986
51.3516
50.4157
49.4898
48.573
47.6646
46.7641
45.8707
44.9841
44.1037
43.2293
42.3603
41.4966
40.6378
39.7836
38.9338
38.0883
37.2466
36.4088
35.5745
34.7436
33.916
33.0915
32.2699
31.4511
30.635
29.8214
29.0103
28.2015
27.3949
26.5903
25.7877
24.9869
24.1878
23.3903
22.5943
21.7997
21.0063
20.214
19.4227
18.6323
17.8426
17.0535
16.265
15.4767
14.6887
13.9008
13.1129
12.3248
11.5366
10.7479
9.95886
9.16926
8.37904
7.58806
6.79621
6.00324
5.20895
4.41302
3.61517
2.81521
2.01304
1.20903
0.405645
65.2033
62.8415
61.6535
60.5198
59.3905
58.3047
57.2531
56.2258
55.2193
54.2307
53.2577
52.2984
51.3514
50.4154
49.4895
48.5726
47.6643
46.7637
45.8703
44.9837
44.1033
43.2289
42.36
41.4963
40.6375
39.7833
38.9336
38.088
37.2464
36.4085
35.5742
34.7434
33.9158
33.0912
32.2697
31.4509
30.6348
29.8213
29.0102
28.2013
27.3947
26.5901
25.7875
24.9867
24.1877
23.3902
22.5942
21.7996
21.0062
20.2139
19.4227
18.6322
17.8426
17.0535
16.2649
15.4767
14.6887
13.9008
13.1129
12.3248
11.5365
10.7479
9.95885
9.16925
8.37903
7.58806
6.79621
6.00324
5.20895
4.41302
3.61517
2.81521
2.01305
1.20906
0.40576
65.218
62.8357
61.6533
60.5195
59.3904
58.3047
57.2531
56.2258
55.2192
54.2306
53.2575
52.2982
51.3511
50.415
49.4891
48.5722
47.6639
46.7633
45.8699
44.9833
44.103
43.2286
42.3596
41.4959
40.6372
39.783
38.9333
38.0877
37.2461
36.4083
35.574
34.7432
33.9156
33.0911
32.2695
31.4507
30.6347
29.8211
29.01
28.2012
27.3946
26.59
25.7874
24.9866
24.1876
23.3901
22.5941
21.7995
21.0061
20.2139
19.4226
18.6322
17.8425
17.0534
16.2649
15.4766
14.6886
13.9007
13.1128
12.3248
11.5365
10.7479
9.95885
9.16926
8.37904
7.58807
6.79622
6.00325
5.20896
4.41302
3.61518
2.81521
2.01307
1.20909
0.405853
65.2319
62.8303
61.6532
60.5193
59.3903
58.3046
57.253
56.2257
55.219
54.2303
53.2572
52.2978
51.3507
50.4146
49.4886
48.5718
47.6635
46.7629
45.8696
44.983
44.1027
43.2282
42.3593
41.4957
40.6369
39.7828
38.933
38.0875
37.2459
36.4081
35.5738
34.743
33.9154
33.0909
32.2693
31.4506
30.6345
29.821
29.0099
28.2011
27.3945
26.5899
25.7873
24.9866
24.1875
23.39
22.5941
21.7995
21.0061
20.2138
19.4226
18.6321
17.8425
17.0534
16.2648
15.4766
14.6886
13.9007
13.1128
12.3248
11.5365
10.7479
9.95885
9.16926
8.37905
7.58808
6.79623
6.00326
5.20897
4.41303
3.61518
2.81522
2.01309
1.20913
0.405929
65.2451
62.8253
61.653
60.5192
59.3902
58.3045
57.2529
56.2254
55.2187
54.2299
53.2567
52.2973
51.3502
50.4142
49.4882
48.5714
47.6631
46.7625
45.8692
44.9826
44.1023
43.2279
42.3591
41.4954
40.6366
39.7825
38.9328
38.0873
37.2457
36.4079
35.5737
34.7428
33.9153
33.0908
32.2692
31.4505
30.6344
29.8209
29.0098
28.201
27.3944
26.5899
25.7873
24.9865
24.1874
23.39
22.594
21.7994
21.006
20.2138
19.4225
18.6321
17.8425
17.0534
16.2648
15.4766
14.6886
13.9007
13.1128
12.3248
11.5365
10.7479
9.95886
9.16928
8.37906
7.58809
6.79624
6.00327
5.20898
4.41303
3.61519
2.81523
2.0131
1.20916
0.405989
65.2575
62.8207
61.6529
60.519
59.39
58.3043
57.2526
56.2251
55.2183
54.2295
53.2563
52.2969
51.3498
50.4137
49.4878
48.571
47.6627
46.7622
45.8689
44.9823
44.1021
43.2277
42.3588
41.4952
40.6364
39.7823
38.9326
38.0871
37.2456
36.4078
35.5735
34.7427
33.9151
33.0907
32.2691
31.4504
30.6343
29.8208
29.0097
28.201
27.3943
26.5898
25.7872
24.9864
24.1874
23.39
22.594
21.7994
21.006
20.2138
19.4225
18.6321
17.8424
17.0534
16.2648
15.4766
14.6886
13.9007
13.1128
12.3248
11.5365
10.7479
9.95888
9.16929
8.37908
7.58811
6.79626
6.00328
5.20899
4.41304
3.6152
2.81524
2.01312
1.20919
0.406037
65.2692
62.8166
61.6527
60.5187
59.3897
58.304
57.2522
56.2246
55.2178
54.2289
53.2558
52.2964
51.3493
50.4133
49.4874
48.5707
47.6624
46.7619
45.8686
44.9821
44.1018
43.2274
42.3586
41.495
40.6362
39.7822
38.9325
38.087
37.2454
36.4076
35.5734
34.7426
33.915
33.0906
32.269
31.4503
30.6343
29.8208
29.0097
28.2009
27.3943
26.5898
25.7872
24.9864
24.1874
23.3899
22.594
21.7994
21.006
20.2138
19.4225
18.6321
17.8424
17.0534
16.2648
15.4766
14.6886
13.9007
13.1128
12.3248
11.5366
10.7479
9.95889
9.16931
8.3791
7.58813
6.79628
6.0033
5.209
4.41305
3.6152
2.81525
2.01313
1.20922
0.406074
65.2801
62.8128
61.6525
60.5184
59.3894
58.3035
57.2517
56.224
55.2172
54.2284
53.2552
52.2959
51.3489
50.4129
49.487
48.5703
47.6621
46.7616
45.8683
44.9818
44.1016
43.2272
42.3584
41.4948
40.6361
39.782
38.9324
38.0868
37.2453
36.4075
35.5733
34.7425
33.9149
33.0905
32.269
31.4502