/*--------------------------------*- C++ -*----------------------------------*\
  =========                 |
  \\      /  F ield         | OpenFOAM: The Open Source CFD Toolbox
   \\    /   O peration     | Website:  https://openfoam.org
    \\  /    A nd           | Version:  7
     \\/     M anipulation  |
\*---------------------------------------------------------------------------*/
FoamFile
{
    version     2.0;
    format      ascii;
    class       surfaceScalarField;
    location    "1000";
    object      phi;
}
// * * * * * * * * * * * * * * * * * * * * * * * * * * * * * * * * * * * * * //

dimensions      [0 3 -1 0 0 0 0];

internalField   nonuniform List<scalar> 
8865
(
0.00452285
0.00168694
0.00415016
0.00037269
0.0039903
0.000159866
0.00389729
9.30109e-05
0.00383339
6.38985e-05
0.00378555
4.78348e-05
0.00374796
3.75907e-05
0.00371747
3.04976e-05
0.00369216
2.53061e-05
0.00367081
2.13471e-05
0.00365258
1.82337e-05
0.00363685
1.57255e-05
0.00362319
1.36651e-05
0.00361124
1.1945e-05
0.00360075
1.04895e-05
0.00359151
9.24361e-06
0.00358334
8.16645e-06
0.00357612
7.22705e-06
0.00356971
6.40152e-06
0.00356404
5.67116e-06
0.00355902
5.02101e-06
0.00355458
4.43924e-06
0.00355067
3.91604e-06
0.00354722
3.44349e-06
0.00354421
3.01489e-06
0.00354158
2.62486e-06
0.00353931
2.26869e-06
0.00353737
1.9425e-06
0.00353573
1.64284e-06
0.00353436
1.36701e-06
0.00353325
1.11245e-06
0.00353237
8.7706e-07
0.00353171
6.58996e-07
0.00353126
4.56674e-07
0.00353099
2.68677e-07
0.0035309
9.34853e-08
0.00353097
-7.02995e-08
0.00353119
-2.22645e-07
0.00353155
-3.64069e-07
0.00353205
-4.95857e-07
0.00353267
-6.188e-07
0.0035334
-7.33396e-07
0.00353424
-8.40223e-07
0.00353518
-9.39726e-07
0.00353621
-1.03237e-06
0.00353733
-1.11845e-06
0.00353853
-1.19814e-06
0.0035398
-1.27155e-06
0.00354114
-1.33864e-06
0.00354254
-1.39928e-06
0.00354399
-1.45342e-06
0.00354549
-1.50094e-06
0.00354703
-1.54191e-06
0.00354861
-1.57651e-06
0.00355022
-1.60494e-06
0.00355184
-1.62726e-06
0.00355349
-1.64348e-06
0.00355514
-1.65321e-06
0.0035568
-1.65606e-06
0.00355845
-1.65169e-06
0.00356009
-1.64041e-06
0.00356171
-1.6229e-06
0.00356331
-1.60217e-06
0.0035649
-1.58155e-06
0.00356646
-1.56686e-06
0.00356802
-1.56166e-06
0.00356959
-1.56976e-06
0.00357118
-1.58757e-06
0.00357278
-1.60466e-06
0.00357437
-1.59423e-06
0.00357589
-1.51593e-06
0.00357721
-1.32232e-06
0.00357814
-9.32959e-07
0.00357848
-3.37407e-07
-9.47682e-09
0.00573448
0.00277626
0.00532416
0.000783017
0.00510631
0.00037771
0.00497607
0.000223255
0.00488795
0.000152018
0.00482307
0.000112709
0.00477273
8.79388e-05
0.00473224
7.0979e-05
0.00469887
5.86788e-05
0.00467085
4.93648e-05
0.00464701
4.20794e-05
0.0046265
3.62353e-05
0.00460871
3.14508e-05
0.00459319
2.74677e-05
0.00457958
2.4105e-05
0.00456759
2.12321e-05
0.004557
1.87524e-05
0.00454763
1.65929e-05
0.00453934
1.46975e-05
0.00453199
1.30223e-05
0.00452548
1.15327e-05
0.00451971
1.02007e-05
0.00451463
9.0038e-06
0.00451015
7.92343e-06
0.00450622
6.94424e-06
0.00450279
6.05356e-06
0.00449982
5.24063e-06
0.00449726
4.49641e-06
0.00449509
3.81313e-06
0.00449328
3.18428e-06
0.00449178
2.60416e-06
0.00449059
2.06788e-06
0.00448968
1.5712e-06
0.00448903
1.11048e-06
0.00448861
6.82465e-07
0.00448842
2.84068e-07
0.00448844
-8.82364e-08
0.00448865
-4.35174e-07
0.00448905
-7.57441e-07
0.00448961
-1.05762e-06
0.00449033
-1.33757e-06
0.00449119
-1.59854e-06
0.00449219
-1.84186e-06
0.00449332
-2.06856e-06
0.00449457
-2.27965e-06
0.00449593
-2.47583e-06
0.00449739
-2.6575e-06
0.00449894
-2.82491e-06
0.00450058
-2.97802e-06
0.0045023
-3.11661e-06
0.00450408
-3.24061e-06
0.00450593
-3.34989e-06
0.00450784
-3.44463e-06
0.00450978
-3.52518e-06
0.00451177
-3.59193e-06
0.00451379
-3.64491e-06
0.00451583
-3.68399e-06
0.00451788
-3.70834e-06
0.00451995
-3.71713e-06
0.004522
-3.70978e-06
0.00452405
-3.68706e-06
0.00452608
-3.65086e-06
0.00452808
-3.60733e-06
0.00453007
-3.56357e-06
0.00453203
-3.53068e-06
0.00453398
-3.51537e-06
0.00453594
-3.52286e-06
0.00453789
-3.543e-06
0.00453983
-3.55023e-06
0.00454173
-3.48695e-06
0.00454348
-3.26852e-06
0.00454495
-2.7955e-06
0.00454593
-1.91309e-06
0.00454621
-6.14888e-07
4.32575e-08
0.00677261
0.00350217
0.00634446
0.00121116
0.00607519
0.000646986
0.00590745
0.000390987
0.00579398
0.000265489
0.00571123
0.000195464
0.00564762
0.00015155
0.00559688
0.000121718
0.00555531
0.000100246
0.00552058
8.40915e-05
0.00549114
7.15231e-05
0.00546589
6.14851e-05
0.00544404
5.32969e-05
0.00542501
4.65006e-05
0.00540834
4.07775e-05
0.00539367
3.58985e-05
0.00538073
3.1695e-05
0.00536928
2.80402e-05
0.00535914
2.48369e-05
0.00535016
2.20093e-05
0.00534219
1.94975e-05
0.00533514
1.72539e-05
0.0053289
1.52395e-05
0.0053234
1.34226e-05
0.00531857
1.17771e-05
0.00531434
1.02813e-05
0.00531067
8.91682e-06
0.00530749
7.66834e-06
0.00530478
6.5226e-06
0.0053025
5.46863e-06
0.00530061
4.49668e-06
0.00529908
3.59851e-06
0.00529788
2.76693e-06
0.005297
1.99575e-06
0.0052964
1.27947e-06
0.00529607
6.13155e-07
0.00529599
-9.17007e-09
0.00529615
-5.89701e-07
0.00529652
-1.1294e-06
0.00529709
-1.63191e-06
0.00529785
-2.10041e-06
0.00529879
-2.53719e-06
0.0052999
-2.94445e-06
0.00530115
-3.32397e-06
0.00530255
-3.67742e-06
0.00530408
-4.00597e-06
0.00530573
-4.31033e-06
0.0053075
-4.59094e-06
0.00530937
-4.84782e-06
0.00531133
-5.08074e-06
0.00531338
-5.28966e-06
0.00531551
-5.4745e-06
0.0053177
-5.63558e-06
0.00531994
-5.77343e-06
0.00532224
-5.88853e-06
0.00532458
-5.98082e-06
0.00532694
-6.04996e-06
0.00532933
-6.09461e-06
0.00533173
-6.11355e-06
0.00533412
-6.10602e-06
0.00533651
-6.0734e-06
0.00533888
-6.01897e-06
0.00534122
-5.95187e-06
0.00534354
-5.88288e-06
0.00534584
-5.82745e-06
0.00534812
-5.79452e-06
0.00535038
-5.78857e-06
0.00535263
-5.79128e-06
0.00535484
-5.75966e-06
0.00535696
-5.60508e-06
0.00535889
-5.20044e-06
0.00536049
-4.39735e-06
0.00536155
-2.97789e-06
0.00536189
-9.53625e-07
6.70214e-08
0.00776838
0.00397374
0.00736522
0.00161432
0.00705881
0.000953393
0.00685371
0.000596095
0.00671229
0.00040691
0.00660913
0.000298623
0.00653023
0.000230446
0.00646767
0.000184282
0.00641669
0.000151228
0.00637428
0.000126493
0.00633846
0.000107343
0.00630784
9.2113e-05
0.0062814
7.97342e-05
0.00625841
6.94918e-05
0.00623829
6.08895e-05
0.00622062
5.35729e-05
0.00620503
4.72819e-05
0.00619125
4.18216e-05
0.00617905
3.70432e-05
0.00616822
3.2831e-05
0.00615863
2.9094e-05
0.00615012
2.57594e-05
0.00614259
2.27684e-05
0.00613594
2.00732e-05
0.00613009
1.76341e-05
0.00612495
1.54185e-05
0.00612047
1.33988e-05
0.00611658
1.15519e-05
0.00611325
9.8579e-06
0.00611042
8.30031e-06
0.00610805
6.8646e-06
0.00610611
5.5384e-06
0.00610456
4.31097e-06
0.00610339
3.17304e-06
0.00610255
2.11641e-06
0.00610203
1.13379e-06
0.0061018
2.16975e-07
0.00610185
-6.38789e-07
0.00610216
-1.4354e-06
0.0061027
-2.17686e-06
0.00610347
-2.86798e-06
0.00610445
-3.51229e-06
0.00610561
-4.11309e-06
0.00610696
-4.67306e-06
0.00610848
-5.19464e-06
0.00611015
-5.67957e-06
0.00611197
-6.12899e-06
0.00611393
-6.5436e-06
0.006116
-6.92355e-06
0.00611819
-7.2687e-06
0.00612048
-7.57911e-06
0.00612286
-7.85481e-06
0.00612532
-8.09625e-06
0.00612785
-8.30411e-06
0.00613044
-8.47894e-06
0.00613308
-8.6205e-06
0.00613576
-8.72816e-06
0.00613846
-8.80012e-06
0.00614119
-8.83474e-06
0.00614391
-8.83123e-06
0.00614663
-8.79157e-06
0.00614933
-8.72047e-06
0.00615201
-8.62985e-06
0.00615466
-8.53359e-06
0.00615728
-8.45069e-06
0.00615988
-8.39104e-06
0.00616245
-8.35719e-06
0.00616498
-8.3214e-06
0.00616744
-8.22337e-06
0.00616978
-7.94513e-06
0.0061719
-7.32143e-06
0.00617366
-6.16307e-06
0.00617489
-4.19932e-06
0.00617541
-1.47492e-06
-1.09392e-08
0.00876053
0.0042679
0.00841816
0.00195669
0.00809688
0.00127467
0.00785897
0.000834004
0.00768847
0.000577413
0.00756264
0.000424452
0.00746628
0.000326806
0.00739005
0.000260516
0.00732813
0.000213142
0.00727681
0.000177816
0.00723358
0.00015057
0.00719672
0.00012898
0.00716496
0.000111491
0.00713739
9.7063e-05
0.0071133
8.49771e-05
0.00709215
7.47211e-05
0.00707351
6.59208e-05
0.00705704
5.82964e-05
0.00704245
5.16348e-05
0.00702951
4.57712e-05
0.00701803
4.05756e-05
0.00700784
3.5945e-05
0.00699881
3.17959e-05
0.00699083
2.80606e-05
0.00698378
2.46832e-05
0.00697758
2.16177e-05
0.00697215
1.88252e-05
0.00696743
1.62733e-05
0.00696335
1.39341e-05
0.00695987
1.17844e-05
0.00695693
9.8039e-06
0.00695449
7.97527e-06
0.00695252
6.28352e-06
0.00695098
4.71565e-06
0.00694983
3.26023e-06
0.00694906
1.90716e-06
0.00694863
6.45967e-07
0.00694852
-5.31504e-07
0.00694872
-1.6289e-06
0.00694919
-2.65029e-06
0.00694993
-3.60215e-06
0.0069509
-4.48951e-06
0.00695211
-5.31697e-06
0.00695352
-6.08829e-06
0.00695513
-6.80682e-06
0.00695693
-7.47502e-06
0.00695889
-8.09456e-06
0.00696102
-8.66651e-06
0.00696329
-9.19127e-06
0.00696569
-9.66887e-06
0.00696821
-1.00995e-05
0.00697083
-1.04834e-05
0.00697356
-1.08212e-05
0.00697637
-1.11136e-05
0.00697925
-1.13612e-05
0.00698219
-1.15636e-05
0.00698519
-1.17198e-05
0.00698821
-1.18275e-05
0.00699126
-1.18849e-05
0.00699432
-1.18909e-05
0.00699738
-1.18484e-05
0.00700042
-1.17632e-05
0.00700344
-1.16498e-05
0.00700643
-1.15247e-05
0.00700939
-1.14093e-05
0.00701232
-1.13138e-05
0.0070152
-1.12375e-05
0.00701802
-1.11436e-05
0.00702075
-1.0955e-05
0.00702333
-1.05278e-05
0.00702567
-9.6647e-06
0.00702765
-8.14347e-06
0.00702911
-5.65304e-06
0.00702991
-2.28054e-06
-2.50514e-07
0.00977742
0.00444047
0.00951399
0.00222012
0.00920569
0.00158298
0.00894539
0.0010943
0.00874723
0.000775576
0.0085973
0.000574375
0.00848145
0.000442657
0.00838959
0.000352373
0.00831504
0.000287698
0.00825334
0.000239516
0.00820147
0.000202437
0.00815732
0.000173135
0.00811935
0.000149463
0.00808642
0.000129986
0.00805769
0.000113709
0.00803248
9.99273e-05
0.00801028
8.8125e-05
0.00799066
7.79179e-05
0.00797328
6.90143e-05
0.00795786
6.11885e-05
0.00794417
5.42635e-05
0.00793202
4.80989e-05
0.00792123
4.25814e-05
0.00791168
3.76192e-05
0.00790322
3.31364e-05
0.00789577
2.9071e-05
0.00788922
2.53704e-05
0.00788351
2.1991e-05
0.00787855
1.88953e-05
0.00787428
1.6052e-05
0.00787065
1.34339e-05
0.00786761
1.10177e-05
0.00786511
8.78327e-06
0.00786311
6.7133e-06
0.00786158
4.79243e-06
0.00786048
3.00718e-06
0.00785978
1.34456e-06
0.00785945
-2.07391e-07
0.00785948
-1.65516e-06
0.00785983
-3.00312e-06
0.00786049
-4.25913e-06
0.00786143
-5.43e-06
0.00786263
-6.52182e-06
0.00786409
-7.53966e-06
0.00786577
-8.48795e-06
0.00786766
-9.37004e-06
0.00786976
-1.01883e-05
0.00787203
-1.09442e-05
0.00787448
-1.16386e-05
0.00787708
-1.22718e-05
0.00787983
-1.28442e-05
0.0078827
-1.33562e-05
0.00788569
-1.38086e-05
0.00788878
-1.42024e-05
0.00789195
-1.4538e-05
0.00789521
-1.48147e-05
0.00789852
-1.50313e-05
0.00790187
-1.5185e-05
0.00790526
-1.52737e-05
0.00790867
-1.52964e-05
0.00791208
-1.52566e-05
0.00791547
-1.51612e-05
0.00791885
-1.50268e-05
0.0079222
-1.48717e-05
0.00792551
-1.47194e-05
0.00792877
-1.45793e-05
0.00793198
-1.44474e-05
0.00793512
-1.42777e-05
0.00793814
-1.39789e-05
0.007941
-1.33846e-05
0.0079436
-1.22716e-05
0.00794585
-1.03938e-05
0.00794761
-7.40859e-06
0.00794878
-3.45542e-06
-6.95911e-07
0.0108418
0.0045325
0.0106586
0.00240329
0.0103907
0.00185088
0.0101252
0.00135979
0.00990488
0.000995899
0.00973121
0.000748042
0.00959448
0.000579386
0.00948519
0.000461659
0.00939623
0.000376666
0.00932255
0.000313187
0.00926065
0.000264341
0.009208
0.000225789
0.00916276
0.000194702
0.00912357
0.000169174
0.00908939
0.000147885
0.00905943
0.000129893
0.00903304
0.000114513
0.00900972
0.000101234
0.00898907
8.96694e-05
0.00897074
7.95189e-05
0.00895445
7.05484e-05
0.00893998
6.25725e-05
0.00892712
5.54417e-05
0.0089157
4.9035e-05
0.00890559
4.32527e-05
0.00889664
3.80131e-05
0.00888877
3.32476e-05
0.00888186
2.88987e-05
0.00887584
2.49176e-05
0.00887063
2.12634e-05
0.00886616
1.79003e-05
0.00886238
1.47983e-05
0.00885923
1.1931e-05
0.00885667
9.27568e-06
0.00885465
6.81256e-06
0.00885313
4.5241e-06
0.00885208
2.39415e-06
0.00885147
4.07224e-07
0.00885126
-1.44742e-06
0.00885143
-3.17553e-06
0.00885196
-4.78557e-06
0.00885281
-6.28641e-06
0.00885398
-7.68592e-06
0.00885543
-8.99069e-06
0.00885715
-1.02065e-05
0.00885912
-1.13376e-05
0.00886131
-1.23874e-05
0.00886373
-1.33579e-05
0.00886634
-1.42506e-05
0.00886913
-1.5066e-05
0.0088721
-1.5805e-05
0.00887521
-1.64682e-05
0.00887846
-1.70566e-05
0.00888182
-1.75712e-05
0.0088853
-1.80123e-05
0.00888886
-1.83792e-05
0.0088925
-1.86703e-05
0.0088962
-1.88823e-05
0.00889994
-1.90129e-05
0.0089037
-1.90613e-05
0.00890748
-1.90313e-05
0.00891125
-1.8931e-05
0.008915
-1.87783e-05
0.00891872
-1.85934e-05
0.0089224
-1.84006e-05
0.00892603
-1.82083e-05
0.00892959
-1.8009e-05
0.00893306
-1.77488e-05
0.00893641
-1.73238e-05
0.00893957
-1.655e-05
0.00894249
-1.51848e-05
0.00894506
-1.29656e-05
0.00894718
-9.5283e-06
0.00894879
-5.0691e-06
-1.38595e-06
0.0119752
0.00457226
0.0118614
0.00251703
0.0116523
0.00206002
0.0114041
0.00160801
0.0111727
0.00122725
0.0109787
0.00094203
0.0108211
0.000736974
0.0106932
0.000589616
0.0105882
0.000481647
0.0105009
0.000400442
0.0104275
0.000337776
0.010365
0.000288286
0.0103113
0.000248398
0.0102648
0.00021568
0.0102243
0.000188432
0.0101887
0.000165439
0.0101574
0.000145814
0.0101298
0.000128895
0.0101052
0.00011418
0.0100835
0.000101282
0.0100641
8.98972e-05
0.0100469
7.97864e-05
0.0100316
7.07567e-05
0.010018
6.26518e-05
0.0100059
5.53437e-05
0.00999518
4.87272e-05
0.00998571
4.2714e-05
0.00997738
3.72306e-05
0.00997008
3.22144e-05
0.00996373
2.76128e-05
0.00995825
2.33804e-05
0.00995357
1.94784e-05
0.00994963
1.58734e-05
0.00994637
1.25365e-05
0.00994374
9.4422e-06
0.0099417
6.56833e-06
0.0099402
3.89475e-06
0.0099392
1.40279e-06
0.00993868
-9.23753e-07
0.0099386
-3.09357e-06
0.00993892
-5.11523e-06
0.00993964
-6.99972e-06
0.00994071
-8.75696e-06
0.00994211
-1.03953e-05
0.00994383
-1.19222e-05
0.00994583
-1.33431e-05
0.00994811
-1.46623e-05
0.00995063
-1.5883e-05
0.00995339
-1.7007e-05
0.00995636
-1.80355e-05
0.00995953
-1.89699e-05
0.00996287
-1.9811e-05
0.00996637
-2.056e-05
0.00997002
-2.1218e-05
0.00997379
-2.17855e-05
0.00997767
-2.22612e-05
0.00998165
-2.26433e-05
0.00998569
-2.29284e-05
0.00998979
-2.31139e-05
0.00999393
-2.31989e-05
0.00999809
-2.31878e-05
0.0100022
-2.30894e-05
0.0100064
-2.2923e-05
0.0100105
-2.27094e-05
0.0100146
-2.24739e-05
0.0100186
-2.2223e-05
0.0100225
-2.19465e-05
0.0100264
-2.15832e-05
0.0100301
-2.10202e-05
0.0100336
-2.00599e-05
0.0100368
-1.84466e-05
0.0100398
-1.59092e-05
0.0100423
-1.20681e-05
0.0100444
-7.18277e-06
-2.3499e-06
0.0131983
0.00457686
0.0131373
0.00257801
0.0129915
0.00220581
0.0127826
0.00181691
0.0125574
0.00145244
0.0123512
0.00114828
0.0121753
0.000912857
0.0120287
0.000736235
0.0119067
0.000603686
0.0118044
0.000502686
0.011718
0.000424209
0.0116442
0.000362025
0.0115808
0.000311841
0.0115258
0.00027067
0.0114778
0.0002364
0.0114358
0.000207506
0.0113987
0.00018287
0.011366
0.000161655
0.0113369
0.000143224
0.0113111
0.000127088
0.0112881
0.00011286
0.0112677
0.000100238
0.0112495
8.89769e-05
0.0112332
7.88785e-05
0.0112188
6.97809e-05
0.011206
6.15511e-05
0.0111946
5.40776e-05
0.0111846
4.72674e-05
0.0111758
4.10416e-05
0.011168
3.5334e-05
0.0111613
3.00874e-05
0.0111555
2.5253e-05
0.0111506
2.07887e-05
0.0111465
1.66581e-05
0.0111431
1.28294e-05
0.0111404
9.27471e-06
0.0111383
5.96907e-06
0.0111369
2.89036e-06
0.0111359
1.66415e-08
0.0111355
-2.66554e-06
0.0111355
-5.16551e-06
0.011136
-7.49585e-06
0.0111369
-9.66884e-06
0.0111382
-1.16949e-05
0.0111399
-1.35833e-05
0.0111419
-1.53411e-05
0.0111442
-1.69739e-05
0.0111468
-1.84858e-05
0.0111497
-1.98796e-05
0.0111528
-2.11572e-05
0.0111562
-2.23203e-05
0.0111597
-2.33703e-05
0.0111635
-2.43087e-05
0.0111674
-2.51367e-05
0.0111715
-2.58545e-05
0.0111757
-2.6461e-05
0.01118
-2.69539e-05
0.0111844
-2.73297e-05
0.0111888
-2.75855e-05
0.0111934
-2.77206e-05
0.0111979
-2.77398e-05
0.0112025
-2.76523e-05
0.011207
-2.74782e-05
0.0112116
-2.7239e-05
0.011216
-2.69598e-05
0.0112205
-2.66459e-05
0.0112248
-2.6284e-05
0.011229
-2.58082e-05
0.0112331
-2.50986e-05
0.011237
-2.39494e-05
0.0112407
-2.20977e-05
0.011244
-1.92709e-05
0.011247
-1.50806e-05
0.0112497
-9.85139e-06
-3.61846e-06
0.0145294
0.00455582
0.0145054
0.00260198
0.0144157
0.00229555
0.0142598
0.00197282
0.0140612
0.00165105
0.0138564
0.00135304
0.0136688
0.00110045
0.0135058
0.000899213
0.0133669
0.000742613
0.0132489
0.000620723
0.0131482
0.000524839
0.0130619
0.000448325
0.0129874
0.000386336
0.0129227
0.00033538
0.0128662
0.00029293
0.0128166
0.000257137
0.0127728
0.000226629
0.0127341
0.000200373
0.0126997
0.000177581
0.0126692
0.000157643
0.012642
0.000140079
0.0126177
0.00012451
0.012596
0.000110631
0.0125767
9.81967e-05
0.0125595
8.70035e-05
0.0125442
7.68856e-05
0.0125305
6.77042e-05
0.0125185
5.93435e-05
0.0125078
5.17053e-05
0.0124984
4.47071e-05
0.0124902
3.82777e-05
0.0124831
3.23566e-05
0.012477
2.68915e-05
0.0124718
2.1837e-05
0.0124675
1.71539e-05
0.012464
1.28074e-05
0.0124612
8.767e-06
0.0124591
5.00594e-06
0.0124576
1.49782e-06
0.0124567
-1.77786e-06
0.0124564
-4.83361e-06
0.0124566
-7.68202e-06
0.0124572
-1.03381e-05
0.0124583
-1.28148e-05
0.0124599
-1.51233e-05
0.0124618
-1.72729e-05
0.0124641
-1.92704e-05
0.0124667
-2.11213e-05
0.0124697
-2.28296e-05
0.0124729
-2.43979e-05
0.0124764
-2.58287e-05
0.0124802
-2.71239e-05
0.0124842
-2.82852e-05
0.0124884
-2.93139e-05
0.0124927
-3.02104e-05
0.0124972
-3.09734e-05
0.0125019
-3.16004e-05
0.0125066
-3.20877e-05
0.0125115
-3.24325e-05
0.0125164
-3.26341e-05
0.0125213
-3.26975e-05
0.0125263
-3.26322e-05
0.0125313
-3.24589e-05
0.0125363
-3.21989e-05
0.0125412
-3.18772e-05
0.012546
-3.14975e-05
0.0125508
-3.10447e-05
0.0125554
-3.04493e-05
0.0125599
-2.95886e-05
0.0125642
-2.82524e-05
0.0125683
-2.61774e-05
0.0125721
-2.30959e-05
0.0125757
-1.86146e-05
0.0125789
-1.31263e-05
-5.21504e-06
0.0159844
0.00451431
0.0159863
0.00260012
0.0159396
0.0023422
0.015838
0.00207445
0.0156829
0.00180618
0.0154978
0.00153813
0.0153103
0.00128793
0.015137
0.00107255
0.0149835
0.000896033
0.0148502
0.000754095
0.0147348
0.000640183
0.014635
0.000548156
0.0145483
0.000473036
0.0144727
0.000411005
0.0144064
0.000359191
0.0143481
0.00031544
0.0142966
0.000278124
0.014251
0.000246004
0.0142104
0.000218126
0.0141743
0.000193749
0.0141421
0.000172285
0.0141134
0.000153272
0.0140877
0.000136333
0.0140647
0.000121167
0.0140442
0.000107525
0.0140259
9.5201e-05
0.0140095
8.40251e-05
0.013995
7.38544e-05
0.0139822
6.45682e-05
0.0139708
5.6065e-05
0.0139608
4.8257e-05
0.0139521
4.107e-05
0.0139446
3.44394e-05
0.0139381
2.83097e-05
0.0139326
2.26325e-05
0.0139281
1.73654e-05
0.0139244
1.24708e-05
0.0139214
7.91647e-06
0.0139193
3.67173e-06
0.0139178
-2.91696e-07
0.0139169
-3.99216e-06
0.0139167
-7.44253e-06
0.013917
-1.066e-05
0.0139179
-1.36603e-05
0.0139192
-1.64573e-05
0.013921
-1.90623e-05
0.0139232
-2.1484e-05
0.0139258
-2.37297e-05
0.0139288
-2.58044e-05
0.0139321
-2.77121e-05
0.0139357
-2.94559e-05
0.0139396
-3.10383e-05
0.0139438
-3.24615e-05
0.0139482
-3.37271e-05
0.0139529
-3.48355e-05
0.0139577
-3.57851e-05
0.0139626
-3.65737e-05
0.0139678
-3.71974e-05
0.013973
-3.76535e-05
0.0139783
-3.79412e-05
0.0139836
-3.80659e-05
0.0139891
-3.8037e-05
0.0139945
-3.78752e-05
0.0139999
-3.76017e-05
0.0140052
-3.7241e-05
0.0140105
-3.67953e-05
0.0140157
-3.62484e-05
0.0140208
-3.55297e-05
0.0140257
-3.45165e-05
0.0140305
-3.29999e-05
0.014035
-3.07215e-05
0.0140394
-2.74242e-05
0.0140435
-2.27148e-05
0.0140474
-1.70526e-05
-7.16543e-06
0.0175785
0.00445507
0.0175995
0.00257919
0.0175837
0.00235791
0.0175281
0.00213005
0.0174232
0.00191109
0.0172751
0.00168623
0.0171043
0.00145878
0.0169315
0.00124532
0.0167696
0.00105797
0.0166236
0.000900065
0.0164944
0.000769374
0.0163809
0.000661678
0.0162813
0.000572637
0.0161938
0.0004985
0.0161167
0.000436243
0.0160487
0.000383494
0.0159884
0.000338409
0.0159348
0.000299552
0.0158872
0.000265805
0.0158446
0.000236287
0.0158066
0.000210298
0.0157726
0.000187279
0.0157422
0.00016678
0.0157149
0.000148433
0.0156905
0.000131937
0.0156686
0.000117043
0.0156491
0.000103542
0.0156317
9.12628e-05
0.0156162
8.00567e-05
0.0156025
6.98003e-05
0.0155904
6.03872e-05
0.0155797
5.17264e-05
0.0155704
4.37396e-05
0.0155624
3.63591e-05
0.0155555
2.95258e-05
0.0155496
2.31883e-05
0.0155448
1.73009e-05
0.0155409
1.18245e-05
0.0155379
6.7233e-06
0.0155356
1.96287e-06
0.0155341
-2.48421e-06
0.0155333
-6.63409e-06
0.0155331
-1.05039e-05
0.0155336
-1.41129e-05
0.0155346
-1.74777e-05
0.0155361
-2.06122e-05
0.0155382
-2.35276e-05
0.0155407
-2.62327e-05
0.0155436
-2.87345e-05
0.0155469
-3.1038e-05
0.0155506
-3.31475e-05
0.0155547
-3.50663e-05
0.015559
-3.6797e-05
0.0155636
-3.83415e-05
0.0155685
-3.97004e-05
0.0155736
-4.08722e-05
0.0155789
-4.18548e-05
0.0155843
-4.26442e-05
0.0155899
-4.32379e-05
0.0155956
-4.36353e-05
0.0156014
-4.38418e-05
0.0156072
-4.38666e-05
0.015613
-4.37305e-05
0.0156189
-4.34536e-05
0.0156247
-4.30601e-05
0.0156305
-4.25509e-05
0.0156361
-4.191e-05
0.0156417
-4.10675e-05
0.0156471
-3.99047e-05
0.0156523
-3.82183e-05
0.0156573
-3.57607e-05
0.0156622
-3.22916e-05
0.0156669
-2.74188e-05
0.0156715
-2.16684e-05
-9.48523e-06
0.0193271
0.00437951
0.0193633
0.00254302
0.0193699
0.00235126
0.0193491
0.00215085
0.0192904
0.00196985
0.0191886
0.00178799
0.0190512
0.00159619
0.0188945
0.00140198
0.0187348
0.00121769
0.0185826
0.00105228
0.0184429
0.000909105
0.0183171
0.00078748
0.0182049
0.000684848
0.0181051
0.000598216
0.0180166
0.00052479
0.0179379
0.000462184
0.0178679
0.000408444
0.0178054
0.000361996
0.0177496
0.000321578
0.0176998
0.000286181
0.0176551
0.000254992
0.017615
0.000227358
0.017579
0.000202744
0.0175467
0.000180714
0.0175178
0.000160909
0.0174918
0.000143032
0.0174685
0.000126832
0.0174476
0.000112102
0.017429
9.86649e-05
0.0174125
8.63709e-05
0.0173978
7.50918e-05
0.0173848
6.47179e-05
0.0173734
5.51548e-05
0.0173634
4.63204e-05
0.0173548
3.81437e-05
0.0173474
3.05624e-05
0.0173412
2.35217e-05
0.017336
1.69742e-05
0.0173319
1.08775e-05
0.0173286
5.19214e-06
0.0173263
-1.19472e-07
0.0173247
-5.08058e-06
0.0173239
-9.70838e-06
0.0173238
-1.40247e-05
0.0173244
-1.80496e-05
0.0173256
-2.18e-05
0.0173274
-2.52895e-05
0.0173297
-2.85294e-05
0.0173325
-3.15286e-05
0.0173357
-3.42937e-05
0.0173394
-3.68304e-05
0.0173435
-3.91427e-05
0.0173479
-4.12339e-05
0.0173527
-4.31065e-05
0.0173577
-4.47611e-05
0.0173631
-4.61967e-05
0.0173686
-4.7411e-05
0.0173744
-4.84007e-05
0.0173803
-4.91632e-05
0.0173864
-4.96983e-05
0.0173925
-5.00113e-05
0.0173988
-5.01112e-05
0.0174051
-5.00182e-05
0.0174114
-4.97516e-05
0.0174176
-4.93349e-05
0.0174239
-4.87682e-05
0.01743
-4.80366e-05
0.017436
-4.70735e-05
0.0174418
-4.57675e-05
0.0174476
-4.39258e-05
0.0174531
-4.13173e-05
0.0174585
-3.77227e-05
0.0174639
-3.27543e-05
0.0174692
-2.6999e-05
-1.21903e-05
0.0212463
0.00428825
0.0212957
0.00249367
0.0213195
0.00232744
0.0213242
0.00214617
0.0213021
0.00199196
0.0212453
0.00184475
0.0211515
0.00169
0.021027
0.00152649
0.0208846
0.00136013
0.0207372
0.00119968
0.020594
0.0010523
0.02046
0.000921453
0.0203373
0.000807544
0.0202262
0.000709285
0.0201263
0.000624735
0.0200366
0.000551878
0.0199562
0.000488871
0.019884
0.000434123
0.0198193
0.000386304
0.0197612
0.000344313
0.0197089
0.000307245
0.0196619
0.000274358
0.0196196
0.000245039
0.0195816
0.000218784
0.0195473
0.000195173
0.0195165
0.000173856
0.0194888
0.000154539
0.0194639
0.000136976
0.0194416
0.000120956
0.0194217
0.000106301
0.0194039
9.28593e-05
0.0193881
8.04991e-05
0.0193742
6.91075e-05
0.0193619
5.85865e-05
0.0193512
4.8851e-05
0.0193419
3.98265e-05
0.019334
3.14472e-05
0.0193273
2.36566e-05
0.0193218
1.64041e-05
0.0193173
9.64393e-06
0.0193139
3.33174e-06
0.0193114
-2.56744e-06
0.0193097
-8.07567e-06
0.0193089
-1.32138e-05
0.0193089
-1.80057e-05
0.0193096
-2.2472e-05
0.0193109
-2.66292e-05
0.0193129
-3.04915e-05
0.0193154
-3.40698e-05
0.0193185
-3.7373e-05
0.0193221
-4.04081e-05
0.0193261
-4.31803e-05
0.0193306
-4.56938e-05
0.0193354
-4.79515e-05
0.0193406
-4.99546e-05
0.0193461
-5.17023e-05
0.0193519
-5.31928e-05
0.0193579
-5.44231e-05
0.0193641
-5.53911e-05
0.0193705
-5.60969e-05
0.0193771
-5.65458e-05
0.0193837
-5.67465e-05
0.0193904
-5.67184e-05
0.0193971
-5.64797e-05
0.0194038
-5.60532e-05
0.0194105
-5.54388e-05
0.0194171
-5.4624e-05
0.0194236
-5.35475e-05
0.0194299
-5.21088e-05
0.0194361
-5.01303e-05
0.0194422
-4.74019e-05
0.0194482
-4.3731e-05
0.0194542
-3.87337e-05
0.0194603
-3.30547e-05
-1.52812e-05
0.0233536
0.00418142
0.0234151
0.0024322
0.0234532
0.00228933
0.0234772
0.00212214
0.0234826
0.00198665
0.0234628
0.0018645
0.0234125
0.0017403
0.02333
0.00160898
0.0232201
0.00147005
0.0230924
0.00132737
0.0229574
0.00118727
0.0228234
0.00105551
0.0226954
0.000935567
0.022576
0.000828655
0.0224663
0.000734457
0.0223663
0.000651894
0.0222755
0.00057961
0.0221934
0.000516238
0.0221192
0.000460522
0.0220521
0.000411361
0.0219916
0.000367808
0.0219369
0.000329066
0.0218874
0.00029446
0.0218428
0.000263425
0.0218025
0.000235486
0.0217661
0.000210244
0.0217333
0.000187358
0.0217037
0.000166542
0.0216771
0.000147551
0.0216532
0.000130177
0.0216319
0.00011424
0.0216128
9.9586e-05
0.0215958
8.60811e-05
0.0215808
7.36095e-05
0.0215676
6.20702e-05
0.021556
5.13747e-05
0.021546
4.14453e-05
0.0215375
3.22144e-05
0.0215302
2.36223e-05
0.0215243
1.56154e-05
0.0215195
8.14361e-06
0.0215157
1.16047e-06
0.021513
-5.36651e-06
0.0215113
-1.14585e-05
0.0215104
-1.71411e-05
0.0215104
-2.24389e-05
0.0215111
-2.73721e-05
0.0215126
-3.1958e-05
0.0215147
-3.62102e-05
0.0215175
-4.01399e-05
0.0215208
-4.3756e-05
0.0215247
-4.7065e-05
0.0215291
-5.00722e-05
0.0215339
-5.27814e-05
0.0215392
-5.51941e-05
0.0215448
-5.73102e-05
0.0215507
-5.91285e-05
0.0215569
-6.06465e-05
0.0215634
-6.18629e-05
0.0215701
-6.27782e-05
0.0215769
-6.33978e-05
0.0215839
-6.37299e-05
0.021591
-6.3793e-05
0.0215981
-6.36045e-05
0.0216052
-6.31862e-05
0.0216123
-6.25384e-05
0.0216194
-6.16521e-05
0.0216263
-6.04734e-05
0.0216331
-5.89162e-05
0.0216398
-5.6822e-05
0.0216464
-5.40072e-05
0.021653
-5.03091e-05
0.0216596
-4.53503e-05
0.0216664
-3.98226e-05
-1.87546e-05
0.025668
0.00405883
0.0257411
0.00235909
0.025792
0.00223841
0.0258318
0.00208235
0.025858
0.00196046
0.0258665
0.00185601
0.0258526
0.00175414
0.0258122
0.00164945
0.0257435
0.00153871
0.0256497
0.00142115
0.0255378
0.00129914
0.0254163
0.00117709
0.0252923
0.00105955
0.0251711
0.000949846
0.0250558
0.000849723
0.0249481
0.000759626
0.0248485
0.000679192
0.0247571
0.000607648
0.0246736
0.000544065
0.0245974
0.000487505
0.0245281
0.00043709
0.0244652
0.000392034
0.024408
0.000351644
0.0243561
0.000315323
0.024309
0.000282556
0.0242664
0.000252903
0.0242277
0.000225985
0.0241928
0.000201478
0.0241612
0.000179105
0.0241328
0.000158625
0.0241072
0.000139831
0.0240842
0.000122546
0.0240637
0.000106613
0.0240454
9.18963e-05
0.0240292
7.82788e-05
0.0240149
6.56565e-05
0.0240024
5.39379e-05
0.0239916
4.30436e-05
0.0239823
3.29032e-05
0.0239745
2.3454e-05
0.023968
1.46389e-05
0.0239628
6.40455e-06
0.0239587
-1.2965e-06
0.0239557
-8.49287e-06
0.0239538
-1.52081e-05
0.0239528
-2.14706e-05
0.0239527
-2.73043e-05
0.0239535
-3.27303e-05
0.0239551
-3.77655e-05
0.0239574
-4.24237e-05
0.0239603
-4.67159e-05
0.0239639
-5.06504e-05
0.0239681
-5.42338e-05
0.0239728
-5.74708e-05
0.0239779
-6.03638e-05
0.0239835
-6.29134e-05
0.0239895
-6.51191e-05
0.0239959
-6.69794e-05
0.0240025
-6.8494e-05
0.0240094
-6.96638e-05
0.0240165
-7.04946e-05
0.0240237
-7.09942e-05
0.0240311
-7.11804e-05
0.0240386
-7.10693e-05
0.0240461
-7.06823e-05
0.0240536
-7.00203e-05
0.024061
-6.9079e-05
0.0240683
-6.78139e-05
0.0240756
-6.61562e-05
0.0240827
-6.39703e-05
0.0240898
-6.11032e-05
0.0240969
-5.7427e-05
0.0241041
-5.25692e-05
0.0241116
-4.72627e-05
-2.25844e-05
0.02821
0.00392004
0.0282946
0.00227448
0.0283577
0.00217531
0.0284114
0.00202872
0.0284545
0.00191736
0.0284846
0.00182582
0.028499
0.00173975
0.0284939
0.00165457
0.0284658
0.00156685
0.0284129
0.00147399
0.0283369
0.00137516
0.0282424
0.00127159
0.0281359
0.00116607
0.0280237
0.00106203
0.027911
0.000962457
0.0278012
0.000869359
0.0276967
0.000783741
0.0275985
0.00070584
0.0275072
0.000635404
0.0274227
0.000571917
0.0273451
0.000514754
0.0272738
0.000463267
0.0272087
0.000416832
0.0271491
0.000374877
0.0270948
0.000336886
0.0270453
0.000302404
0.0270002
0.000271029
0.0269593
0.000242412
0.0269222
0.000216246
0.0268885
0.000192267
0.0268581
0.000170242
0.0268307
0.000149969
0.026806
0.00013127
0.0267839
0.000113992
0.0267642
9.7997e-05
0.0267467
8.31666e-05
0.0267312
6.93947e-05
0.0267177
5.65889e-05
0.0267059
4.46671e-05
0.0266958
3.35567e-05
0.0266873
2.31918e-05
0.0266802
1.35129e-05
0.0266744
4.46248e-06
0.0266699
-4.00358e-06
0.0266666
-1.1913e-05
0.0266644
-1.92919e-05
0.0266633
-2.61683e-05
0.0266631
-3.25676e-05
0.0266639
-3.85104e-05
0.0266655
-4.40137e-05
0.0266679
-4.90909e-05
0.026671
-5.37524e-05
0.0266747
-5.80064e-05
0.0266791
-6.18588e-05
0.0266841
-6.53129e-05
0.0266895
-6.83704e-05
0.0266954
-7.1032e-05
0.0267018
-7.32972e-05
0.0267084
-7.51669e-05
0.0267154
-7.6643e-05
0.0267226
-7.77319e-05
0.0267301
-7.84411e-05
0.0267377
-7.87879e-05
0.0267454
-7.8787e-05
0.0267532
-7.84598e-05
0.026761
-7.78082e-05
0.0267687
-7.68335e-05
0.0267764
-7.55022e-05
0.026784
-7.37651e-05
0.0267916
-7.15132e-05
0.0267991
-6.8628e-05
0.0268067
-6.50191e-05
0.0268144
-6.03222e-05
0.0268225
-5.52968e-05
-2.67346e-05
0.0310025
0.00376437
0.0310986
0.00217833
0.0311738
0.00210012
0.0312404
0.00196217
0.0312982
0.00185951
0.0313461
0.00177799
0.0313824
0.00170341
0.0314049
0.00163208
0.0314106
0.00156114
0.0313966
0.00148794
0.0313612
0.00141063
0.0313045
0.00132831
0.0312292
0.00124132
0.03114
0.00115123
0.0310421
0.00106038
0.0309402
0.000971214
0.0308382
0.000885745
0.0307387
0.000805322
0.0306435
0.000730648
0.0305535
0.00066193
0.0304692
0.000599048
0.0303908
0.000541688
0.0303182
0.00048944
0.0302512
0.000441861
0.0301896
0.000398507
0.030133
0.00035896
0.0300812
0.000322832
0.0300338
0.000289771
0.0299906
0.000259464
0.0299513
0.000231628
0.0299155