/*--------------------------------*- C++ -*----------------------------------*\
  =========                 |
  \\      /  F ield         | OpenFOAM: The Open Source CFD Toolbox
   \\    /   O peration     | Website:  https://openfoam.org
    \\  /    A nd           | Version:  7
     \\/     M anipulation  |
\*---------------------------------------------------------------------------*/
FoamFile
{
    version     2.0;
    format      ascii;
    class       volVectorField;
    location    "1000";
    object      U;
}
// * * * * * * * * * * * * * * * * * * * * * * * * * * * * * * * * * * * * * //

dimensions      [0 1 -1 0 0 0 0];

internalField   nonuniform List<vector> 
4500
(
(15.4058 -0.778201 0)
(13.7077 -0.0619025 0)
(13.0325 -0.00325615 0)
(12.6708 0.00046499 0)
(12.4331 0.00050143 0)
(12.2594 0.000386177 0)
(12.125 0.000303744 0)
(12.0172 0.000246405 0)
(11.9286 0.0002045 0)
(11.8542 0.000172559 0)
(11.7911 0.000147435 0)
(11.7368 0.000127187 0)
(11.6898 0.000110546 0)
(11.6488 9.66465e-05 0)
(11.6128 8.48802e-05 0)
(11.5812 7.48045e-05 0)
(11.5533 6.60903e-05 0)
(11.5286 5.84884e-05 0)
(11.5067 5.18062e-05 0)
(11.4874 4.58928e-05 0)
(11.4702 4.06279e-05 0)
(11.455 3.59156e-05 0)
(11.4416 3.16771e-05 0)
(11.4298 2.78481e-05 0)
(11.4194 2.4375e-05 0)
(11.4104 2.12138e-05 0)
(11.4025 1.83268e-05 0)
(11.3958 1.56823e-05 0)
(11.39 1.32529e-05 0)
(11.3852 1.10162e-05 0)
(11.3812 8.95184e-06 0)
(11.378 7.04276e-06 0)
(11.3755 5.27398e-06 0)
(11.3738 3.63281e-06 0)
(11.3726 2.10771e-06 0)
(11.372 6.85335e-07 0)
(11.372 -6.47389e-07 0)
(11.3725 -1.88633e-06 0)
(11.3734 -3.03363e-06 0)
(11.3748 -4.10219e-06 0)
(11.3766 -5.09921e-06 0)
(11.3788 -6.02847e-06 0)
(11.3814 -6.89479e-06 0)
(11.3842 -7.70178e-06 0)
(11.3874 -8.4534e-06 0)
(11.3909 -9.15211e-06 0)
(11.3946 -9.79918e-06 0)
(11.3986 -1.03954e-05 0)
(11.4028 -1.09405e-05 0)
(11.4072 -1.14329e-05 0)
(11.4118 -1.18722e-05 0)
(11.4166 -1.2257e-05 0)
(11.4215 -1.25879e-05 0)
(11.4265 -1.28667e-05 0)
(11.4316 -1.30956e-05 0)
(11.4368 -1.32753e-05 0)
(11.4421 -1.34062e-05 0)
(11.4474 -1.34848e-05 0)
(11.4528 -1.35076e-05 0)
(11.4581 -1.34707e-05 0)
(11.4634 -1.33764e-05 0)
(11.4687 -1.32298e-05 0)
(11.4739 -1.30578e-05 0)
(11.479 -1.28911e-05 0)
(11.4841 -1.27834e-05 0)
(11.4891 -1.27722e-05 0)
(11.4941 -1.28964e-05 0)
(11.4992 -1.31352e-05 0)
(11.5043 -1.33965e-05 0)
(11.5095 -1.34556e-05 0)
(11.5146 -1.29436e-05 0)
(11.5193 -1.14269e-05 0)
(11.5231 -8.15482e-06 0)
(11.5253 -2.99699e-06 0)
(11.5253 -3.39991e-07 0)
(17.5879 0.16307 0)
(16.0152 0.0238108 0)
(15.1976 0.00458796 0)
(14.7348 0.00198899 0)
(14.4341 0.00129709 0)
(14.2183 0.000960549 0)
(14.0538 0.000751469 0)
(13.9232 0.000608021 0)
(13.8165 0.000503607 0)
(13.7275 0.000424282 0)
(13.6522 0.000362065 0)
(13.5878 0.000312044 0)
(13.532 0.000271017 0)
(13.4835 0.000236811 0)
(13.441 0.000207895 0)
(13.4037 0.000183163 0)
(13.3708 0.000161797 0)
(13.3416 0.000143174 0)
(13.3158 0.000126818 0)
(13.293 0.000112353 0)
(13.2728 9.94827e-05 0)
(13.2548 8.79693e-05 0)
(13.239 7.76187e-05 0)
(13.225 6.82721e-05 0)
(13.2127 5.97981e-05 0)
(13.202 5.20875e-05 0)
(13.1926 4.5048e-05 0)
(13.1846 3.86017e-05 0)
(13.1777 3.26819e-05 0)
(13.1718 2.72325e-05 0)
(13.167 2.22043e-05 0)
(13.1631 1.75553e-05 0)
(13.16 1.3249e-05 0)
(13.1577 9.25387e-06 0)
(13.1562 5.5419e-06 0)
(13.1553 2.08454e-06 0)
(13.1551 -1.14867e-06 0)
(13.1554 -4.15879e-06 0)
(13.1563 -6.95226e-06 0)
(13.1577 -9.55468e-06 0)
(13.1596 -1.1982e-05 0)
(13.1619 -1.42448e-05 0)
(13.1647 -1.63543e-05 0)
(13.1678 -1.83196e-05 0)
(13.1713 -2.01496e-05 0)
(13.1751 -2.18503e-05 0)
(13.1793 -2.34252e-05 0)
(13.1837 -2.48763e-05 0)
(13.1884 -2.62028e-05 0)
(13.1933 -2.74023e-05 0)
(13.1984 -2.84738e-05 0)
(13.2038 -2.94156e-05 0)
(13.2093 -3.02294e-05 0)
(13.2149 -3.09187e-05 0)
(13.2207 -3.14876e-05 0)
(13.2266 -3.19369e-05 0)
(13.2325 -3.22659e-05 0)
(13.2385 -3.24673e-05 0)
(13.2446 -3.2533e-05 0)
(13.2506 -3.24567e-05 0)
(13.2566 -3.2244e-05 0)
(13.2626 -3.19122e-05 0)
(13.2685 -3.15172e-05 0)
(13.2744 -3.11287e-05 0)
(13.2801 -3.0853e-05 0)
(13.2859 -3.07659e-05 0)
(13.2916 -3.09253e-05 0)
(13.2973 -3.12585e-05 0)
(13.303 -3.15299e-05 0)
(13.3087 -3.12255e-05 0)
(13.3141 -2.95412e-05 0)
(13.319 -2.55087e-05 0)
(13.3227 -1.7645e-05 0)
(13.3247 -5.74191e-06 0)
(13.3244 1.65325e-07 0)
(18.7449 0.0973745 0)
(17.3725 0.0156216 0)
(16.4743 0.00605636 0)
(15.9331 0.00350033 0)
(15.5795 0.00236975 0)
(15.3279 0.00174957 0)
(15.138 0.00136082 0)
(14.9886 0.00109591 0)
(14.8673 0.000904526 0)
(14.7668 0.000760049 0)
(14.6821 0.000647306 0)
(14.6098 0.000557034 0)
(14.5474 0.000483241 0)
(14.4932 0.000421882 0)
(14.4459 0.000370133 0)
(14.4043 0.000325958 0)
(14.3676 0.000287856 0)
(14.3353 0.000254694 0)
(14.3066 0.000225603 0)
(14.2812 0.000199905 0)
(14.2586 0.000177063 0)
(14.2387 0.000156645 0)
(14.221 0.000138304 0)
(14.2054 0.000121753 0)
(14.1917 0.000106756 0)
(14.1796 9.31182e-05 0)
(14.1691 8.06733e-05 0)
(14.16 6.92823e-05 0)
(14.1522 5.88261e-05 0)
(14.1456 4.92042e-05 0)
(14.14 4.0329e-05 0)
(14.1355 3.21257e-05 0)
(14.1319 2.4529e-05 0)
(14.1291 1.74829e-05 0)
(14.1271 1.09374e-05 0)
(14.1259 4.84705e-06 0)
(14.1254 -8.43671e-07 0)
(14.1255 -6.15022e-06 0)
(14.1262 -1.10808e-05 0)
(14.1275 -1.56724e-05 0)
(14.1293 -1.99538e-05 0)
(14.1315 -2.39453e-05 0)
(14.1343 -2.7667e-05 0)
(14.1374 -3.11349e-05 0)
(14.141 -3.43646e-05 0)
(14.1449 -3.73664e-05 0)
(14.1491 -4.0147e-05 0)
(14.1537 -4.27096e-05 0)
(14.1586 -4.5054e-05 0)
(14.1637 -4.71774e-05 0)
(14.169 -4.90789e-05 0)
(14.1746 -5.07572e-05 0)
(14.1804 -5.22156e-05 0)
(14.1863 -5.34595e-05 0)
(14.1924 -5.44943e-05 0)
(14.1985 -5.53201e-05 0)
(14.2048 -5.59335e-05 0)
(14.2112 -5.63224e-05 0)
(14.2175 -5.6474e-05 0)
(14.2239 -5.63802e-05 0)
(14.2303 -5.60529e-05 0)
(14.2367 -5.55249e-05 0)
(14.243 -5.48851e-05 0)
(14.2492 -5.42435e-05 0)
(14.2553 -5.37556e-05 0)
(14.2614 -5.35231e-05 0)
(14.2675 -5.35983e-05 0)
(14.2735 -5.38216e-05 0)
(14.2795 -5.37667e-05 0)
(14.2853 -5.25837e-05 0)
(14.2908 -4.89959e-05 0)
(14.2956 -4.14996e-05 0)
(14.2993 -2.79079e-05 0)
(14.3013 -8.14374e-06 0)
(14.3011 1.07301e-06 0)
(19.3754 0.0462247 0)
(18.326 0.0150409 0)
(17.4307 0.00910101 0)
(16.8356 0.00564414 0)
(16.435 0.00383709 0)
(16.1491 0.00281757 0)
(15.9342 0.00217867 0)
(15.7661 0.00174595 0)
(15.6305 0.00143549 0)
(15.5186 0.00120258 0)
(15.4247 0.00102181 0)
(15.3447 0.000877711 0)
(15.276 0.000760364 0)
(15.2164 0.000663101 0)
(15.1644 0.00058129 0)
(15.1188 0.000511614 0)
(15.0786 0.000451637 0)
(15.0431 0.000399527 0)
(15.0117 0.000353883 0)
(14.9839 0.000313616 0)
(14.9592 0.000277866 0)
(14.9373 0.000245946 0)
(14.9179 0.000217298 0)
(14.9007 0.00019147 0)
(14.8856 0.000168085 0)
(14.8723 0.000146834 0)
(14.8607 0.000127454 0)
(14.8505 0.000109725 0)
(14.8418 9.34602e-05 0)
(14.8343 7.84999e-05 0)
(14.8281 6.47066e-05 0)
(14.8228 5.19623e-05 0)
(14.8186 4.01647e-05 0)
(14.8154 2.92253e-05 0)
(14.8129 1.90657e-05 0)
(14.8113 9.61639e-06 0)
(14.8104 7.94885e-07 0)
(14.8102 -7.43768e-06 0)
(14.8106 -1.50958e-05 0)
(14.8117 -2.22245e-05 0)
(14.8133 -2.88699e-05 0)
(14.8154 -3.50654e-05 0)
(14.818 -4.08424e-05 0)
(14.8211 -4.62266e-05 0)
(14.8246 -5.12414e-05 0)
(14.8284 -5.59034e-05 0)
(14.8327 -6.02232e-05 0)
(14.8373 -6.42066e-05 0)
(14.8422 -6.78545e-05 0)
(14.8473 -7.11644e-05 0)
(14.8528 -7.41364e-05 0)
(14.8585 -7.67702e-05 0)
(14.8643 -7.90708e-05 0)
(14.8704 -8.10457e-05 0)
(14.8766 -8.27008e-05 0)
(14.883 -8.40348e-05 0)
(14.8894 -8.5041e-05 0)
(14.896 -8.57014e-05 0)
(14.9026 -8.59986e-05 0)
(14.9092 -8.59235e-05 0)
(14.9158 -8.54958e-05 0)
(14.9224 -8.47654e-05 0)
(14.9289 -8.38551e-05 0)
(14.9354 -8.29149e-05 0)
(14.9418 -8.21443e-05 0)
(14.9481 -8.16617e-05 0)
(14.9544 -8.14974e-05 0)
(14.9606 -8.13835e-05 0)
(14.9667 -8.06801e-05 0)
(14.9725 -7.81823e-05 0)
(14.978 -7.21383e-05 0)
(14.9828 -6.05231e-05 0)
(14.9866 -4.05014e-05 0)
(14.9888 -1.22957e-05 0)
(14.9891 1.21879e-06 0)
(19.693 0.0456702 0)
(18.9995 0.0202329 0)
(18.1918 0.0128969 0)
(17.577 0.00823931 0)
(17.1407 0.00564736 0)
(16.8239 0.00414117 0)
(16.5849 0.00318982 0)
(16.3982 0.00254609 0)
(16.2481 0.00208608 0)
(16.1247 0.00174263 0)
(16.0214 0.00147727 0)
(15.9337 0.00126663 0)
(15.8585 0.0010957 0)
(15.7934 0.000954472 0)
(15.7367 0.000836004 0)
(15.687 0.000735347 0)
(15.6433 0.00064888 0)
(15.6047 0.000573892 0)
(15.5705 0.000508315 0)
(15.5402 0.000450546 0)
(15.5133 0.000399323 0)
(15.4895 0.000353639 0)
(15.4683 0.000312682 0)
(15.4496 0.000275789 0)
(15.4331 0.000242416 0)
(15.4185 0.00021211 0)
(15.4057 0.000184493 0)
(15.3945 0.000159244 0)
(15.3848 0.000136094 0)
(15.3765 0.000114812 0)
(15.3694 9.5199e-05 0)
(15.3635 7.70858e-05 0)
(15.3587 6.03244e-05 0)
(15.3548 4.47874e-05 0)
(15.3518 3.03623e-05 0)
(15.3497 1.69494e-05 0)
(15.3484 4.44096e-06 0)
(15.3479 -7.23723e-06 0)
(15.348 -1.81148e-05 0)
(15.3487 -2.82381e-05 0)
(15.3501 -3.76731e-05 0)
(15.352 -4.64691e-05 0)
(15.3544 -5.46712e-05 0)
(15.3573 -6.23166e-05 0)
(15.3606 -6.94384e-05 0)
(15.3644 -7.60607e-05 0)
(15.3686 -8.21992e-05 0)
(15.3731 -8.78636e-05 0)
(15.3779 -9.30568e-05 0)
(15.3831 -9.77779e-05 0)
(15.3885 -0.000102029 0)
(15.3942 -0.00010581 0)
(15.4001 -0.000109129 0)
(15.4063 -0.000111995 0)
(15.4126 -0.000114414 0)
(15.419 -0.000116382 0)
(15.4256 -0.000117888 0)
(15.4322 -0.00011891 0)
(15.4389 -0.000119426 0)
(15.4457 -0.000119426 0)
(15.4524 -0.000118938 0)
(15.4592 -0.000118028 0)
(15.4659 -0.000116849 0)
(15.4725 -0.000115585 0)
(15.4791 -0.000114469 0)
(15.4856 -0.000113626 0)
(15.492 -0.00011305 0)
(15.4983 -0.000112362 0)
(15.5045 -0.000110716 0)
(15.5104 -0.000106583 0)
(15.5159 -9.77996e-05 0)
(15.5207 -8.19101e-05 0)
(15.5246 -5.55595e-05 0)
(15.5272 -1.94099e-05 0)
(15.5282 -3.06993e-07 0)
(19.8488 0.0504549 0)
(19.4507 0.0244881 0)
(18.7997 0.016652 0)
(18.2081 0.0111579 0)
(17.7532 0.007791 0)
(17.4116 0.00573675 0)
(17.1505 0.00441439 0)
(16.9458 0.00351467 0)
(16.7812 0.00287186 0)
(16.6461 0.00239313 0)
(16.5332 0.00202448 0)
(16.4376 0.00173281 0)
(16.3557 0.00149689 0)
(16.2849 0.00130252 0)
(16.2233 0.00113989 0)
(16.1694 0.00100204 0)
(16.122 0.00088386 0)
(16.0802 0.000781559 0)
(16.0431 0.000692243 0)
(16.0103 0.000613679 0)
(15.9812 0.000544108 0)
(15.9553 0.000482135 0)
(15.9323 0.000426635 0)
(15.9119 0.000376692 0)
(15.8939 0.000331554 0)
(15.8779 0.000290598 0)
(15.8639 0.000253303 0)
(15.8516 0.00021923 0)
(15.8409 0.000188008 0)
(15.8317 0.000159322 0)
(15.8238 0.0001329 0)
(15.8171 0.000108509 0)
(15.8115 8.59483e-05 0)
(15.807 6.50431e-05 0)
(15.8035 4.56402e-05 0)
(15.8009 2.76041e-05 0)
(15.7991 1.08002e-05 0)
(15.7981 -4.88857e-06 0)
(15.7978 -1.9518e-05 0)
(15.7982 -3.3135e-05 0)
(15.7992 -4.5824e-05 0)
(15.8008 -5.7653e-05 0)
(15.803 -6.86836e-05 0)
(15.8057 -7.89665e-05 0)
(15.8088 -8.85463e-05 0)
(15.8124 -9.74563e-05 0)
(15.8164 -0.000105719 0)
(15.8208 -0.000113349 0)
(15.8256 -0.000120353 0)
(15.8307 -0.000126733 0)
(15.836 -0.000132492 0)
(15.8417 -0.000137634 0)
(15.8476 -0.000142167 0)
(15.8537 -0.000146103 0)
(15.86 -0.000149447 0)
(15.8665 -0.000152192 0)
(15.8731 -0.000154325 0)
(15.8798 -0.000155816 0)
(15.8866 -0.00015664 0)
(15.8934 -0.000156788 0)
(15.9003 -0.000156296 0)
(15.9071 -0.000155243 0)
(15.9139 -0.00015381 0)
(15.9207 -0.000152207 0)
(15.9274 -0.00015069 0)
(15.934 -0.000149378 0)
(15.9405 -0.000148228 0)
(15.9469 -0.000146749 0)
(15.9531 -0.00014391 0)
(15.9591 -0.000137903 0)
(15.9646 -0.000126227 0)
(15.9695 -0.000106101 0)
(15.9736 -7.37758e-05 0)
(15.9766 -3.04618e-05 0)
(15.9784 -4.06031e-06 0)
(19.929 0.0521809 0)
(19.7286 0.0270124 0)
(19.2674 0.0200258 0)
(18.7457 0.0142434 0)
(18.2961 0.0102331 0)
(17.9397 0.00761459 0)
(17.6607 0.00587475 0)
(17.4395 0.00467512 0)
(17.2609 0.0038141 0)
(17.114 0.00317259 0)
(16.9914 0.00267928 0)
(16.8876 0.00228985 0)
(16.7988 0.00197561 0)
(16.7221 0.00171734 0)
(16.6554 0.00150174 0)
(16.597 0.00131938 0)
(16.5458 0.00116334 0)
(16.5005 0.00102851 0)
(16.4605 0.000910981 0)
(16.4249 0.000807752 0)
(16.3934 0.000716463 0)
(16.3654 0.000635242 0)
(16.3405 0.000562585 0)
(16.3183 0.000497269 0)
(16.2987 0.000438292 0)
(16.2813 0.000384825 0)
(16.266 0.000336174 0)
(16.2525 0.00029176 0)
(16.2407 0.000251088 0)
(16.2305 0.000213741 0)
(16.2216 0.000179361 0)
(16.2141 0.00014764 0)
(16.2078 0.000118312 0)
(16.2026 9.11474e-05 0)
(16.1984 6.59433e-05 0)
(16.1952 4.25221e-05 0)
(16.1929 2.0717e-05 0)
(16.1914 3.67994e-07 0)
(16.1906 -1.86222e-05 0)
(16.1906 -3.63087e-05 0)
(16.1913 -5.27871e-05 0)
(16.1925 -6.81481e-05 0)
(16.1944 -8.24723e-05 0)
(16.1968 -9.58264e-05 0)
(16.1997 -0.000108269 0)
(16.2031 -0.000119844 0)
(16.2069 -0.000130584 0)
(16.2111 -0.000140509 0)
(16.2157 -0.00014963 0)
(16.2207 -0.000157954 0)
(16.226 -0.000165488 0)
(16.2315 -0.000172237 0)
(16.2373 -0.000178213 0)
(16.2434 -0.000183427 0)
(16.2497 -0.000187884 0)
(16.2561 -0.000191576 0)
(16.2627 -0.000194483 0)
(16.2694 -0.000196572 0)
(16.2762 -0.000197816 0)
(16.2831 -0.000198205 0)
(16.29 -0.000197782 0)
(16.2969 -0.00019664 0)
(16.3038 -0.000194978 0)
(16.3106 -0.000193028 0)
(16.3174 -0.000191062 0)
(16.3241 -0.000189187 0)
(16.3307 -0.000187316 0)
(16.3371 -0.000184858 0)
(16.3434 -0.000180622 0)
(16.3494 -0.00017257 0)
(16.355 -0.000157941 0)
(16.36 -0.000133726 0)
(16.3644 -9.58883e-05 0)
(16.3678 -4.62731e-05 0)
(16.3703 -1.04714e-05 0)
(19.9739 0.052718 0)
(19.8889 0.0285834 0)
(19.6025 0.0227995 0)
(19.1903 0.0172661 0)
(18.776 0.0128803 0)
(18.4202 0.00975677 0)
(18.1302 0.00758162 0)
(17.8955 0.00604682 0)
(17.7042 0.0049334 0)
(17.546 0.00410026 0)
(17.4137 0.00345889 0)
(17.3016 0.00295286 0)
(17.2056 0.00254508 0)
(17.1228 0.00221049 0)
(17.0508 0.0019317 0)
(16.9878 0.00169629 0)
(16.9324 0.00149522 0)
(16.8836 0.00132175 0)
(16.8404 0.00117077 0)
(16.802 0.00103835 0)
(16.7679 0.000921395 0)
(16.7376 0.000817464 0)
(16.7106 0.000724593 0)
(16.6866 0.000641192 0)
(16.6653 0.000565954 0)
(16.6463 0.000497804 0)
(16.6296 0.000435843 0)
(16.6148 0.000379319 0)
(16.6019 0.000327592 0)
(16.5905 0.000280125 0)
(16.5807 0.000236453 0)
(16.5723 0.00019618 0)
(16.5651 0.000158962 0)
(16.5592 0.000124503 0)
(16.5543 9.25436e-05 0)
(16.5504 6.28552e-05 0)
(16.5475 3.52298e-05 0)
(16.5454 9.46967e-06 0)
(16.5442 -1.45805e-05 0)
(16.5437 -3.70002e-05 0)
(16.5439 -5.78868e-05 0)
(16.5448 -7.73565e-05 0)
(16.5463 -9.55117e-05 0)
(16.5483 -0.000112439 0)
(16.5509 -0.000128212 0)
(16.554 -0.000142889 0)
(16.5576 -0.000156513 0)
(16.5616 -0.000169113 0)
(16.566 -0.000180708 0)
(16.5708 -0.000191308 0)
(16.5759 -0.000200924 0)
(16.5813 -0.000209568 0)
(16.587 -0.00021725 0)
(16.593 -0.000223985 0)
(16.5992 -0.000229776 0)
(16.6056 -0.000234612 0)
(16.6121 -0.000238471 0)
(16.6188 -0.000241314 0)
(16.6256 -0.000243113 0)
(16.6324 -0.000243858 0)
(16.6393 -0.000243597 0)
(16.6463 -0.000242434 0)
(16.6532 -0.000240586 0)
(16.6601 -0.000238296 0)
(16.6669 -0.000235845 0)
(16.6736 -0.000233324 0)
(16.6803 -0.000230606 0)
(16.6867 -0.000227012 0)
(16.693 -0.00022122 0)
(16.699 -0.000211016 0)
(16.7047 -0.000193452 0)
(16.7099 -0.000165382 0)
(16.7145 -0.000122574 0)
(16.7184 -6.7572e-05 0)
(16.7215 -1.99144e-05 0)
(20.0011 0.0528694 0)
(19.9807 0.0295175 0)
(19.8226 0.0248232 0)
(19.5371 0.019951 0)
(19.1896 0.0155661 0)
(18.8549 0.0120995 0)
(18.5647 0.00952307 0)
(18.3221 0.00763897 0)
(18.1205 0.00624631 0)
(17.9523 0.0051943 0)
(17.8107 0.00438085 0)
(17.6905 0.00373795 0)
(17.5873 0.00321978 0)
(17.4983 0.00279489 0)
(17.4207 0.00244122 0)
(17.3529 0.00214297 0)
(17.2933 0.00188857 0)
(17.2407 0.00166939 0)
(17.194 0.00147888 0)
(17.1527 0.00131199 0)
(17.1159 0.00116477 0)
(17.0831 0.00103409 0)
(17.0539 0.000917445 0)
(17.0279 0.000812793 0)
(17.0047 0.000718472 0)
(16.9842 0.000633109 0)
(16.9659 0.000555561 0)
(16.9497 0.000484869 0)
(16.9355 0.000420221 0)
(16.923 0.000360934 0)
(16.9121 0.000306419 0)
(16.9027 0.000256173 0)
(16.8946 0.000209762 0)
(16.8878 0.00016681 0)
(16.8821 0.000126989 0)
(16.8775 9.00112e-05 0)
(16.8739 5.56171e-05 0)
(16.8712 2.35723e-05 0)
(16.8694 -6.34506e-06 0)
(16.8684 -3.42594e-05 0)
(16.8681 -6.02701e-05 0)
(16.8685 -8.45155e-05 0)
(16.8696 -0.000107124 0)
(16.8713 -0.000128204 0)
(16.8735 -0.000147849 0)
(16.8763 -0.000166134 0)
(16.8796 -0.000183115 0)
(16.8833 -0.000198831 0)
(16.8875 -0.00021331 0)
(16.892 -0.000226571 0)
(16.8969 -0.000238629 0)
(16.9022 -0.000249498 0)
(16.9077 -0.000259196 0)
(16.9135 -0.000267734 0)
(16.9196 -0.000275117 0)
(16.9259 -0.00028133 0)
(16.9323 -0.000286349 0)
(16.9389 -0.000290133 0)
(16.9457 -0.00029265 0)
(16.9525 -0.000293891 0)
(16.9594 -0.000293911 0)
(16.9663 -0.000292819 0)
(16.9732 -0.000290844 0)
(16.9801 -0.000288236 0)
(16.9869 -0.000285282 0)
(16.9937 -0.000282052 0)
(17.0003 -0.000278382 0)
(17.0068 -0.000273524 0)
(17.0131 -0.000266061 0)
(17.0192 -0.000253654 0)
(17.0249 -0.000233243 0)
(17.0302 -0.000201628 0)
(17.0351 -0.000154458 0)
(17.0393 -9.50204e-05 0)
(17.0432 -3.27291e-05 0)
(20.0187 0.0527445 0)
(20.0354 0.0299682 0)
(19.9582 0.026127 0)
(19.7862 0.0220655 0)
(19.5283 0.0180611 0)
(19.2388 0.0145161 0)
(18.9637 0.0116492 0)
(18.7216 0.00944108 0)
(18.5144 0.00775985 0)
(18.3385 0.00646875 0)
(18.189 0.00546134 0)
(18.0611 0.00466132 0)
(17.951 0.00401502 0)
(17.8557 0.00348461 0)
(17.7726 0.00304311 0)
(17.6999 0.00267097 0)
(17.6358 0.00235379 0)
(17.5792 0.00208078 0)
(17.5291 0.00184373 0)
(17.4845 0.00163628 0)
(17.4448 0.00145347 0)
(17.4094 0.00129135 0)
(17.3779 0.00114679 0)
(17.3497 0.0010172 0)
(17.3246 0.000900514 0)
(17.3023 0.000794994 0)
(17.2824 0.000699206 0)
(17.2647 0.000611949 0)
(17.2491 0.000532207 0)
(17.2353 0.000459123 0)
(17.2232 0.000391961 0)
(17.2127 0.000330091 0)
(17.2036 0.000272971 0)
(17.1959 0.000220132 0)
(17.1894 0.000171164 0)
(17.184 0.000125708 0)
(17.1796 8.3445e-05 0)
(17.1762 4.40945e-05 0)
(17.1738 7.37533e-06 0)
(17.1722 -2.69072e-05 0)
(17.1713 -5.88729e-05 0)
(17.1713 -8.86678e-05 0)
(17.1719 -0.000116451 0)
(17.1731 -0.000142357 0)
(17.1749 -0.000166503 0)
(17.1773 -0.000188983 0)
(17.1803 -0.000209867 0)
(17.1837 -0.000229212 0)
(17.1875 -0.000247055 0)
(17.1918 -0.000263422 0)
(17.1965 -0.000278338 0)
(17.2015 -0.000291821 0)
(17.2068 -0.000303891 0)
(17.2124 -0.000314562 0)
(17.2183 -0.000323839 0)
(17.2245 -0.000331704 0)
(17.2308 -0.000338131 0)
(17.2373 -0.000343077 0)
(17.2439 -0.000346509 0)
(17.2506 -0.000348418 0)
(17.2574 -0.000348863 0)
(17.2643 -0.000347959 0)
(17.2712 -0.000345939 0)
(17.278 -0.000343059 0)
(17.2848 -0.000339602 0)
(17.2916 -0.000335619 0)
(17.2982 -0.000330918 0)
(17.3047 -0.000324701 0)
(17.311 -0.000315493 0)
(17.3171 -0.000300886 0)
(17.3229 -0.000277778 0)
(17.3283 -0.000242995 0)
(17.3334 -0.000192125 0)
(17.3381 -0.00012923 0)
(17.3425 -4.92265e-05 0)
(20.0306 0.0523702 0)
(20.0698 0.03007 0)
(20.0406 0.0268629 0)
(19.9512 0.0235191 0)
(19.7855 0.0201272 0)
(19.5621 0.0168135 0)
(19.3211 0.0138542 0)
(19.0917 0.0114083 0)
(18.8862 0.0094621 0)
(18.7068 0.00792766 0)
(18.5516 0.00671164 0)
(18.4174 0.00573709 0)
(18.3011 0.00494558 0)
(18.1999 0.00429407 0)
(18.1114 0.00375094 0)
(18.0336 0.00329287 0)
(17.9651 0.00290244 0)
(17.9044 0.00256648 0)
(17.8506 0.00227493 0)
(17.8027 0.00201996 0)
(17.76 0.00179543 0)
(17.7219 0.00159649 0)
(17.6879 0.00141922 0)
(17.6574 0.00126045 0)
(17.6302 0.00111758 0)
(17.6059 0.000988481 0)
(17.5843 0.000871374 0)
(17.565 0.000764767 0)
(17.5479 0.000667404 0)
(17.5327 0.000578223 0)
(17.5194 0.000496314 0)
(17.5077 0.000420899 0)
(17.4975 0.000351307 0)
(17.4887 0.000286959 0)
(17.4813 0.000227348 0)
(17.475 0.000172034 0)
(17.4698 0.000120623 0)
(17.4657 7.27766e-05 0)
(17.4625 2.81659e-05 0)
(17.4603 -1.34932e-05 0)
(17.4588 -5.23731e-05 0)
(17.4581 -8.86169e-05 0)
(17.4582 -0.000122413 0)
(17.459 -0.000153928 0)
(17.4603 -0.000183305 0)
(17.4623 -0.000210661 0)
(17.4648 -0.000236088 0)
(17.4679 -0.000259657 0)
(17.4714 -0.000281419 0)
(17.4753 -0.000301413 0)
(17.4797 -0.000319672 0)
(17.4844 -0.000336219 0)
(17.4895 -0.000351079 0)
(17.4949 -0.000364269 0)
(17.5006 -0.000375792 0)
(17.5065 -0.000385632 0)
(17.5126 -0.00039376 0)
(17.519 -0.000400131 0)
(17.5255 -0.000404713 0)
(17.5321 -0.000407498 0)
(17.5388 -0.000408546 0)
(17.5455 -0.000407975 0)
(17.5523 -0.000406022 0)
(17.5591 -0.000402938 0)
(17.5659 -0.000399003 0)
(17.5726 -0.00039425 0)
(17.5792 -0.000388467 0)
(17.5856 -0.000380829 0)
(17.5919 -0.000369844 0)
(17.598 -0.000353091 0)
(17.6038 -0.000327495 0)
(17.6094 -0.00028998 0)
(17.6147 -0.00023612 0)
(17.6197 -0.000170761 0)
(17.6246 -6.96902e-05 0)
(20.039 0.0517789 0)
(20.0926 0.0299213 0)
(20.092 0.027188 0)
(20.0552 0.0243789 0)
(19.9649 0.0216134 0)
(19.8158 0.0187666 0)
(19.6268 0.0159671 0)
(19.4257 0.0134437 0)
(19.2323 0.0113079 0)
(19.0559 0.00955549 0)
(18.899 0.0081319 0)
(18.761 0.00697327 0)
(18.6398 0.00602317 0)
(18.5336 0.00523641 0)
(18.4401 0.0045781 0)
(18.3576 0.00402166 0)
(18.2847 0.0035468 0)
(18.22 0.00313796 0)
(18.1624 0.00278311 0)
(18.1111 0.00247283 0)
(18.0653 0.00219969 0)
(18.0243 0.00195779 0)
(17.9877 0.00174234 0)
(17.9548 0.00154949 0)
(17.9254 0.00137606 0)
(17.8991 0.00121944 0)
(17.8755 0.00107746 0)
(17.8545 0.000948276 0)
(17.8358 0.000830364 0)
(17.8192 0.000722419 0)
(17.8044 0.000623327 0)
(17.7915 0.000532136 0)
(17.7801 0.000448024 0)
(17.7702 0.000370282 0)
(17.7617 0.000298291 0)
(17.7545 0.000231513 0)
(17.7484 0.000169467 0)
(17.7435 0.000111745 0)
(17.7395 5.79632e-05 0)
(17.7365 7.75694e-06 0)
(17.7344 -3.91362e-05 0)
(17.733 -8.28753e-05 0)
(17.7325 -0.000123659 0)
(17.7327 -0.000161693 0)
(17.7335 -0.000197151 0)
(17.735 -0.000230178 0)
(17.7371 -0.000260889 0)
(17.7397 -0.000289375 0)
(17.7428 -0.000315705 0)
(17.7464 -0.000339931 0)
(17.7504 -0.000362096 0)
(17.7548 -0.000382233 0)
(17.7596 -0.000400371 0)
(17.7647 -0.000416529 0)
(17.7701 -0.000430713 0)
(17.7758 -0.000442905 0)
(17.7817 -0.000453078 0)
(17.7879 -0.000461186 0)
(17.7942 -0.000467197 0)
(17.8006 -0.000471107 0)
(17.8072 -0.000472976 0)
(17.8138 -0.000472919 0)
(17.8205 -0.000471175 0)
(17.8272 -0.000467988 0)
(17.8338 -0.000463629 0)
(17.8405 -0.000458117 0)
(17.847 -0.000451235 0)
(17.8534 -0.000442154 0)
(17.8596 -0.000429404 0)
(17.8657 -0.000410609 0)
(17.8715 -0.000382788 0)
(17.8772 -0.00034303 0)
(17.8827 -0.000286927 0)
(17.8879 -0.000220098 0)
(17.8932 -9.43621e-05 0)
(20.0449 0.0509937 0)
(20.1082 0.029581 0)
(20.1254 0.0272183 0)
(20.1206 0.0247808 0)
(20.0821 0.0225188 0)
(19.9986 0.0202042 0)
(19.8707 0.0177773 0)
(19.7131 0.0153876 0)
(19.5451 0.0132012 0)
(19.3812 0.0113027 0)
(19.2289 0.00970101 0)
(19.0909 0.00836499 0)
(18.9675 0.00725183 0)
(18.8578 0.00632036 0)
(18.7603 0.00553561 0)
(18.6738 0.00486927 0)
(18.5968 0.00429896 0)
(18.5283 0.00380701 0)
(18.4671 0.00337952 0)
(18.4124 0.00300549 0)
(18.3634 0.00267615 0)
(18.3195 0.00238445 0)
(18.2801 0.0021247 0)
(18.2448 0.00189225 0)
(18.2131 0.00168328 0)
(18.1846 0.00149464 0)
(18.1591 0.0013237 0)
(18.1362 0.00116824 0)
(18.1158 0.00102641 0)
(18.0975 0.000896626 0)
(18.0813 0.000777537 0)
(18.067 0.000667989 0)
(18.0543 0.000566985 0)
(18.0433 0.000473666 0)
(18.0336 0.000387281 0)
(18.0254 0.000307175 0)
(18.0183 0.000232771 0)
(18.0124 0.000163571 0)
(18.0076 9.91254e-05 0)
(18.0038 3.90069e-05 0)
(18.0009 -1.71635e-05 0)
(17.9989 -6.96054e-05 0)
(17.9977 -0.000118511 0)
(17.9972 -0.000164122 0)
(17.9975 -0.000206649 0)
(17.9984 -0.00024627 0)
(18 -0.000283128 0)
(18.0021 -0.000317338 0)
(18.0047 -0.000348991 0)
(18.0079 -0.000378153 0)
(18.0115 -0.000404883 0)
(18.0155 -0.000429221 0)
(18.02 -0.000451204 0)
(18.0248 -0.000470856 0)
(18.0299 -0.000488183 0)
(18.0353 -0.000503172 0)
(18.0409 -0.000515793 0)
(18.0468 -0.000526006 0)
(18.0529 -0.000533779 0)
(18.0591 -0.00053911 0)
(18.0655 -0.00054206 0)
(18.0719 -0.000542741 0)
(18.0785 -0.000541386 0)
(18.085 -0.000538232 0)
(18.0916 -0.000533539 0)
(18.0981 -0.000527318 0)
(18.1045 -0.000519356 0)
(18.1108 -0.000508849 0)
(18.1169 -0.000494392 0)
(18.123 -0.000473707 0)
(18.1288 -0.000443973 0)
(18.1345 -0.000402502 0)
(18.1401 -0.00034493 0)
(18.1456 -0.000277615 0)
(18.1512 -0.000123425 0)
(20.0492 0.0500256 0)
(20.1193 0.0290806 0)
(20.1481 0.0270286 0)
(20.1628 0.0248477 0)
(20.1569 0.0229464 0)
(20.1211 0.0210868 0)
(20.0495 0.0191112 0)
(19.9437 0.0170398 0)
(19.8141 0.0149855 0)
(19.6744 0.0130688 0)
(19.5354 0.0113618 0)
(19.4037 0.00988347 0)
(19.2821 0.00862018 0)
(19.1717 0.0075449 0)
(19.0721 0.00662841 0)
(18.9827 0.00584401 0)
(18.9025 0.00516892 0)
(18.8306 0.00458437 0)
(18.7661 0.00407509 0)
(18.7082 0.00362869 0)
(18.6562 0.00323516 0)
(18.6094 0.00288635 0)
(18.5673 0.0025756 0)
(18.5295 0.00229746 0)
(18.4954 0.00204741 0)
(18.4647 0.0018217 0)
(18.4371 0.00161719 0)
(18.4123 0.00143126 0)
(18.39 0.00126167 0)
(18.3701 0.00110653 0)
(18.3524 0.000964221 0)
(18.3365 0.000833353 0)
(18.3225 0.000712731 0)
(18.3102 0.000601318 0)
(18.2993 0.000498213 0)
(18.2899 0.000402629 0)
(18.2818 0.000313871 0)
(18.2749 0.000231341 0)
(18.2692 0.000154505 0)
(18.2645 8.28723e-05 0)
(18.2608 1.59631e-05 0)
(18.2579 -4.65564e-05 0)
(18.256 -0.000104901 0)
(18.2549 -0.000159317 0)
(18.2545 -0.000210062 0)
(18.2548 -0.000257351 0)
(18.2557 -0.000301359 0)
(18.2573 -0.000342232 0)
(18.2595 -0.000380083 0)
(18.2621 -0.000415001 0)
(18.2653 -0.000447059 0)
(18.2689 -0.00047631 0)
(18.2729 -0.0005028 0)
(18.2773 -0.000526557 0)
(18.2821 -0.000547593 0)
(18.2871 -0.000565895 0)
(18.2925 -0.00058144 0)
(18.2981 -0.000594189 0)
(18.3039 -0.000604116 0)
(18.3098 -0.000611219 0)
(18.316 -0.000615561 0)
(18.3222 -0.00061725 0)
(18.3285 -0.000616511 0)
(18.3349 -0.000613569 0)
(18.3412 -0.000608676 0)
(18.3476 -0.000601835 0)
(18.3538 -0.000592856 0)
(18.36 -0.000580985 0)
(18.3661 -0.000564924 0)
(18.372 -0.000542546 0)
(18.3778 -0.000511251 0)
(18.3835 -0.00046863 0)
(18.3892 -0.000410374 0)
(18.3948 -0.000343526 0)
(18.4006 -0.00015698 0)
(20.0522 0.0488783 0)
(20.1272 0.0284366 0)
(20.164 0.0266625 0)
(20.1912 0.0246654 0)
(20.2052 0.0230151 0)
(20.2004 0.0214911 0)
(20.1713 0.0199148 0)
(20.1139 0.0182338 0)
(20.0293 0.0164681 0)
(19.9247 0.0146947 0)
(19.8096 0.0130044 0)
(19.6925 0.0114605 0)
(19.579 0.0100893 0)
(19.4722 0.00889024 0)
(19.3736 0.00784889 0)
(19.2834 0.00694579 0)
(19.2015 0.00616125 0)
(19.1273 0.00547736 0)
(19.0602 0.00487863 0)
(18.9996 0.004352 0)
(18.9448 0.00388656 0)
(18.8953 0.00347327 0)
(18.8507 0.0031046 0)
(18.8103 0.00277431 0)
(18.7739 0.0024772 0)
(18.7409 0.00220891 0)
(18.7112 0.00196577 0)
(18.6845 0.00174469 0)
(18.6604 0.00154305 0)
(18.6387 0.00135859 0)
(18.6193 0.00118941 0)
(18.6019 0.00103386 0)
(18.5865 0.000890512 0)
(18.5727 0.000758131 0)
(18.5606 0.000635644 0)
(18.55 0.000522113 0)
(18.5407 0.000416709 0)
(18.5328 0.000318718 0)
(18.526 0.000227504 0)
(18.5204 0.000142497 0)
(18.5157 6.31482e-05 0)
(18.5121 -1.10176e-05 0)
(18.5093 -8.03073e-05 0)
(18.5074 -0.000144954 0)
(18.5063 -0.000205246 0)
(18.5059 -0.000261447 0)
(18.5062 -0.000313769 0)
(18.5072 -0.000362393 0)
(18.5088 -0.00040746 0)
(18.5109 -0.000449084 0)
(18.5135 -0.000487357 0)
(18.5166 -0.000522348 0)
(18.5202 -0.000554111 0)
(18.5242 -0.000582685 0)
(18.5285 -0.000608085 0)
(18.5332 -0.000630305 0)
(18.5382 -0.000649326 0)
(18.5434 -0.000665116 0)
(18.5489 -0.000677655 0)
(18.5545 -0.000686945 0)
(18.5604 -0.00069305 0)
(18.5663 -0.000696071 0)
(18.5724 -0.000696225 0)
(18.5785 -0.000693723 0)
(18.5846 -0.000688811 0)
(18.5908 -0.000681491 0)
(18.5969 -0.000671606 0)
(18.6029 -0.000658481 0)
(18.6088 -0.000640963 0)
(18.6146 -0.000617129 0)
(18.6203 -0.000584654 0)
(18.6259 -0.000541461 0)
(18.6316 -0.000483304 0)
(18.6373 -0.000417826 0)
(18.6433 -0.000195012 0)
(20.0542 0.0475508 0)
(20.1328 0.0276568 0)
(20.1754 0.0261432 0)
(20.2109 0.0242867 0)
(20.2375 0.0228152 0)
(20.252 0.0215276 0)
(20.2508 0.02025 0)
(20.2303 0.0189168 0)
(20.1875 0.0174951 0)
(20.1228 0.0159937 0)
(20.0406 0.0144639 0)
(19.9476 0.0129732 0)
(19.8502 0.0115763 0)
(19.7535 0.0103042 0)
(19.6605 0.00916629 0)
(19.573 0.00815829 0)
(19.4918 0.00726913 0)
(19.417 0.00648537 0)
(19.3486 0.00579358 0)
(19.2862 0.00518137 0)
(19.2294 0.00463783 0)
(19.1777 0.00415353 0)
(19.1308 0.00372041 0)
(19.0882 0.00333164 0)
(19.0496 0.0029814 0)
(19.0145 0.0026648 0)
(18.9828 0.00237765 0)
(18.954 0.0021164 0)
(18.928 0.00187802 0)
(18.9046 0.00165991 0)
(18.8835 0.00145982 0)
(18.8645 0.00127583 0)
(18.8476 0.00110627 0)
(18.8324 0.000949683 0)
(18.8189 0.000804803 0)
(18.807 0.000670523 0)
(18.7966 0.000545864 0)
(18.7874 0.00042998 0)
(18.7796 0.000322118 0)
(18.7729 0.000221612 0)
(18.7673 0.000127842 0)
(18.7627 4.02246e-05 0)
(18.7591 -4.17038e-05 0)
(18.7564 -0.000118216 0)
(18.7545 -0.00018959 0)
(18.7533 -0.000256139 0)
(18.753 -0.000318119 0)
(18.7532 -0.00037575 0)
(18.7542 -0.000429208 0)
(18.7557 -0.000478637 0)
(18.7577 -0.000524151 0)
(18.7603 -0.000565837 0)
(18.7634 -0.000603762 0)
(18.7668 -0.000637976 0)
(18.7707 -0.0006685 0)
(18.7749 -0.000695338 0)
(18.7795 -0.000718477 0)
(18.7843 -0.000737895 0)
(18.7894 -0.00075358 0)
(18.7947 -0.000765541 0)
(18.8002 -0.000773842 0)
(18.8058 -0.00077858 0)
(18.8115 -0.000779964 0)
(18.8174 -0.000778189 0)
(18.8232 -0.000773494 0)
(18.8291 -0.000765887 0)
(18.8349 -0.000755262 0)
(18.8407 -0.000741042 0)
(18.8464 -0.000722257 0)
(18.8521 -0.000697236 0)
(18.8576 -0.000663983 0)
(18.8632 -0.000620795 0)
(18.8688 -0.000563493 0)
(18.8745 -0.000500223 0)
(18.8804 -0.000237362 0)
(20.0555 0.046039 0)
(20.1367 0.0267443 0)
(20.1836 0.0254815 0)
(20.2248 0.023741 0)
(20.2598 0.0224039 0)
(20.2863 0.0212858 0)
(20.3028 0.0202192 0)
(20.3068 0.019147 0)
(20.2955 0.0180268 0)
(20.2667 0.0168313 0)
(20.2202 0.0155621 0)
(20.1584 0.0142502 0)
(20.0856 0.0129428 0)
(20.0066 0.0116859 0)
(19.9257 0.0105116 0)
(19.846 0.00943648 0)
(19.7693 0.0084647 0)
(19.697 0.00759249 0)
(19.6294 0.00681222 0)
(19.5668 0.00611472 0)
(19.5091 0.00549069 0)
(19.4562 0.00493141 0)
(19.4076 0.00442896 0)
(19.3633 0.00397637 0)
(19.3228 0.00356754 0)
(19.2858 0.00319718 0)