/*--------------------------------*- C++ -*----------------------------------*\
  =========                 |
  \\      /  F ield         | OpenFOAM: The Open Source CFD Toolbox
   \\    /   O peration     | Website:  https://openfoam.org
    \\  /    A nd           | Version:  7
     \\/     M anipulation  |
\*---------------------------------------------------------------------------*/
FoamFile
{
    version     2.0;
    format      ascii;
    class       volScalarField;
    location    "100";
    object      epsilon;
}
// * * * * * * * * * * * * * * * * * * * * * * * * * * * * * * * * * * * * * //

dimensions      [0 2 -3 0 0 0 0];

internalField   nonuniform List<scalar> 
4500
(
790.122
724.908
700.305
967.146
1657.16
2287.54
2681.54
2923.39
3086.71
3199.61
3275.43
3323.74
3352.74
3369.53
3378.78
3383.97
3386.76
3388.16
3388.91
3389.24
3389.5
3389.83
3389.94
3390.08
3390.15
3390.15
3390.06
3390.04
3390.08
3389.97
3389.94
3389.59
3389.16
3388.33
3387.61
3386.45
3385.32
3383.65
3382.28
3380.21
3378.44
3376.75
3374.91
3372.59
3370.2
3368.63
3367.74
3366.99
3366.08
3364.5
3364.38
3365.41
3365.84
3365.22
3363.58
3360.98
3359.74
3360.49
3359.31
3360.18
3358.28
3358.61
3358.47
3359.49
3357.74
3357.21
3355.7
3355.67
3354.9
3355.99
3358.73
3363.63
3368.76
3372.62
3376.55
180.597
258.835
273.967
328.303
551.134
793.579
949.716
1044.13
1106.31
1148.27
1175.95
1193.32
1203.66
1209.61
1212.89
1214.73
1215.72
1216.22
1216.49
1216.61
1216.72
1216.84
1216.88
1216.93
1216.96
1216.96
1216.93
1216.92
1216.93
1216.89
1216.88
1216.73
1216.57
1216.23
1215.95
1215.48
1215.04
1214.37
1213.82
1213
1212.29
1211.61
1210.87
1209.93
1208.96
1208.33
1207.98
1207.7
1207.33
1206.69
1206.62
1207
1207.18
1206.95
1206.29
1205.24
1204.72
1204.99
1204.53
1204.86
1204.1
1204.21
1204.16
1204.59
1203.91
1203.71
1203.07
1203
1202.67
1203.09
1204.15
1206.07
1208.09
1209.62
1211.17
52.5071
112.526
136.785
178.864
344.718
512.914
619.189
682.162
722.882
749.911
767.557
778.537
785.055
788.793
790.864
792.023
792.659
792.976
793.151
793.225
793.299
793.379
793.407
793.445
793.468
793.463
793.443
793.432
793.444
793.411
793.402
793.301
793.182
792.943
792.74
792.411
792.097
791.622
791.236
790.652
790.159
789.673
789.147
788.475
787.791
787.349
787.109
786.915
786.655
786.19
786.135
786.405
786.53
786.36
785.889
785.139
784.768
784.957
784.63
784.862
784.314
784.392
784.357
784.67
784.189
784.054
783.573
783.503
783.253
783.548
784.286
785.638
787.042
788.118
789.195
18.9491
52.7621
76.109
122.935
268.126
404.737
489.277
538.564
570.067
590.77
604.223
612.566
617.521
620.363
621.944
622.832
623.322
623.565
623.701
623.757
623.818
623.882
623.906
623.936
623.956
623.951
623.934
623.925
623.934
623.906
623.898
623.812
623.714
623.513
623.344
623.069
622.81
622.414
622.095
621.608
621.202
620.797
620.359
619.797
619.231
618.869
618.676
618.518
618.299
617.908
617.864
618.086
618.187
618.041
617.644
617.016
616.711
616.869
616.595
616.786
616.324
616.392
616.366
616.63
616.225
616.113
615.696
615.628
615.413
615.657
616.262
617.379
618.532
619.419
620.301
8.18663
24.9209
43.1597
95.3453
228.66
347.48
419.745
461.332
487.721
504.973
516.184
523.138
527.284
529.665
530.998
531.748
532.165
532.371
532.488
532.535
532.589
532.645
532.666
532.693
532.71
532.706
532.69
532.683
532.691
532.665
532.657
532.58
532.493
532.313
532.162
531.916
531.687
531.334
531.051
530.617
530.258
529.897
529.506
529.004
528.501
528.185
528.017
527.878
527.681
527.331
527.292
527.489
527.576
527.441
527.083
526.522
526.252
526.395
526.15
526.318
525.902
525.965
525.944
526.182
525.817
525.715
525.331
525.264
525.068
525.284
525.815
526.801
527.817
528.6
529.374
4.21684
11.8928
24.1617
79.0582
204.214
311.708
376.215
412.963
436.193
451.36
461.257
467.419
471.115
473.246
474.448
475.126
475.505
475.692
475.798
475.841
475.892
475.943
475.962
475.987
476.003
475.998
475.984
475.977
475.985
475.96
475.953
475.881
475.8
475.634
475.495
475.267
475.056
474.731
474.469
474.068
473.738
473.405
473.043
472.576
472.114
471.825
471.673
471.546
471.362
471.035
470.999
471.18
471.259
471.132
470.797
470.277
470.029
470.16
469.935
470.088
469.7
469.759
469.742
469.964
469.624
469.528
469.162
469.094
468.91
469.107
469.59
470.492
471.42
472.139
472.844
2.53407
6.00162
13.4481
68.0969
187.058
286.885
346.237
379.797
400.991
414.861
423.981
429.697
433.154
435.158
436.297
436.94
437.302
437.482
437.583
437.625
437.673
437.721
437.74
437.763
437.778
437.774
437.761
437.754
437.762
437.738
437.731
437.663
437.587
437.429
437.298
437.082
436.883
436.577
436.331
435.951
435.64
435.326
434.983
434.54
434.103
433.833
433.693
433.572
433.396
433.085
433.049
433.22
433.294
433.171
432.852
432.36
432.123
432.247
432.035
432.177
431.808
431.865
431.851
432.061
431.74
431.647
431.291
431.221
431.045
431.228
431.676
432.519
433.385
434.06
434.718
1.71878
3.3572
7.69908
59.8974
173.777
268.251
324.135
355.578
375.467
388.547
397.239
402.734
406.091
408.049
409.171
409.807
410.166
410.345
410.446
410.488
410.535
410.582
410.6
410.622
410.637
410.633
410.621
410.614
410.621
410.598
410.592
410.526
410.454
410.303
410.178
409.971
409.78
409.488
409.252
408.888
408.59
408.289
407.96
407.533
407.113
406.856
406.723
406.608
406.437
406.136
406.098
406.261
406.333
406.215
405.906
405.433
405.203
405.32
405.119
405.252
404.897
404.95
404.939
405.141
404.834
404.743
404.392
404.319
404.15
404.322
404.743
405.539
406.36
407.003
407.628
1.27755
2.11158
4.69959
53.1923
162.598
253.282
306.877
336.963
356.053
368.7
377.207
382.64
385.996
387.967
389.106
389.753
390.12
390.304
390.407
390.451
390.498
390.544
390.562
390.584
390.599
390.595
390.583
390.576
390.584
390.562
390.556
390.492
390.423
390.277
390.156
389.956
389.772
389.49
389.263
388.91
388.622
388.33
388.011
387.596
387.188
386.94
386.813
386.701
386.532
386.239
386.198
386.354
386.426
386.311
386.011
385.552
385.326
385.436
385.244
385.368
385.026
385.074
385.065
385.261
384.967
384.876
384.529
384.451
384.288
384.451
384.849
385.606
386.392
387.011
387.609
1.01802
1.47301
3.10599
47.2965
152.482
240.458
292.636
321.931
340.6
353.072
361.571
367.061
370.49
372.519
373.7
374.373
374.757
374.951
375.059
375.105
375.153
375.199
375.217
375.24
375.254
375.25
375.239
375.232
375.24
375.218
375.213
375.152
375.084
374.944
374.827
374.632
374.453
374.18
373.959
373.616
373.334
373.051
372.739
372.332
371.934
371.692
371.568
371.459
371.291
371.004
370.959
371.108
371.181
371.071
370.778
370.33
370.104
370.207
370.025
370.141
369.809
369.852
369.845
370.035
369.754
369.663
369.318
369.235
369.077
369.231
369.609
370.333
371.088
371.689
372.266
0.85603
1.11544
2.2088
41.8274
142.767
228.772
280.196
309.143
327.677
340.17
348.794
354.428
357.986
360.11
361.354
362.066
362.472
362.68
362.796
362.846
362.895
362.941
362.96
362.982
362.997
362.993
362.982
362.976
362.983
362.963
362.958
362.898
362.833
362.697
362.584
362.394
362.219
361.954
361.739
361.404
361.127
360.85
360.545
360.146
359.754
359.516
359.396
359.288
359.122
358.839
358.788
358.932
359.006
358.902
358.615
358.177
357.95
358.044
357.871
357.979
357.658
357.695
357.689
357.874
357.607
357.515
357.172
357.083
356.931
357.076
357.435
358.128
358.857
359.442
360
0.750838
0.899876
1.66388
36.5809
133.003
217.499
268.676
297.631
316.255
328.918
337.765
343.611
347.342
349.586
350.911
351.671
352.106
352.331
352.456
352.512
352.562
352.609
352.629
352.652
352.666
352.662
352.653
352.646
352.654
352.634
352.63
352.572
352.509
352.377
352.268
352.083
351.911
351.654
351.444
351.118
350.846
350.574
350.275
349.884
349.497
349.263
349.144
349.037
348.872
348.594
348.537
348.674
348.75
348.652
348.372
347.944
347.715
347.799
347.636
347.735
347.425
347.455
347.45
347.629
347.377
347.285
346.946
346.85
346.703
346.84
347.18
347.843
348.546
349.118
349.659
0.680894
0.762587
1.30773
31.47
122.889
206.091
257.399
286.654
305.549
318.493
327.635
333.741
337.676
340.063
341.481
342.298
342.768
343.013
343.149
343.21
343.263
343.31
343.331
343.355
343.369
343.366
343.357
343.35
343.358
343.339
343.336
343.28
343.219
343.093
342.986
342.807
342.639
342.39
342.185
341.868
341.599
341.334
341.041
340.657
340.277
340.044
339.927
339.821
339.657
339.384
339.321
339.45
339.528
339.436
339.165
338.748
338.516
338.588
338.435
338.525
338.228
338.25
338.247
338.419
338.183
338.091
337.756
337.654
337.513
337.64
337.963
338.595
339.273
339.831
340.356
0.633916
0.671847
1.06094
26.4913
112.239
194.123
245.827
275.621
294.929
308.24
317.725
324.122
328.284
330.829
332.351
333.231
333.739
334.007
334.156
334.225
334.279
334.328
334.35
334.374
334.389
334.386
334.378
334.371
334.379
334.361
334.358
334.305
334.247
334.125
334.022
333.849
333.685
333.445
333.245
332.938
332.674
332.414
332.129
331.754
331.38
331.149
331.032
330.928
330.765
330.499
330.428
330.548
330.628
330.544
330.283
329.878
329.644
329.704
329.561
329.641
329.359
329.372
329.369
329.533
329.315
329.225
328.897
328.788
328.652
328.77
329.075
329.674
330.326
330.87
331.378
0.602418
0.610584
0.883189
21.702
100.974
181.281
233.524
264.047
283.885
297.624
307.481
314.189
318.588
321.301
322.934
323.884
324.434
324.727
324.89
324.967
325.024
325.074
325.098
325.122
325.137
325.135
325.127
325.121
325.128
325.111
325.109
325.06
325.004
324.888
324.789
324.623
324.463
324.232
324.039
323.743
323.485
323.231
322.953
322.589
322.224
321.994
321.878
321.775
321.614
321.356
321.278
321.388
321.469
321.394
321.144
320.755
320.518
320.564
320.432
320.502
320.236
320.24
320.237
320.393
320.194
320.105
319.787
319.672
319.543
319.651
319.936
320.501
321.125
321.653
322.143
0.581563
0.56892
0.752618
17.2017
89.1243
167.349
220.146
251.542
272.003
286.213
296.455
303.478
308.12
311.006
312.755
313.778
314.372
314.693
314.871
314.957
315.018
315.069
315.094
315.119
315.134
315.133
315.126
315.12
315.127
315.111
315.11
315.064
315.01
314.901
314.807
314.648
314.494
314.274
314.086
313.803
313.552
313.306
313.038
312.686
312.331
312.104
311.988
311.886
311.729
311.479
311.396
311.494
311.575
311.509
311.273
310.901
310.664
310.695
310.574
310.633
310.385
310.38
310.377
310.523
310.345
310.258
309.953
309.833
309.71
309.807
310.073
310.602
311.195
311.705
312.175
0.568062
0.540739
0.656382
13.1109
76.8289
152.226
205.446
237.8
258.956
273.668
284.293
291.628
296.509
299.569
301.436
302.535
303.176
303.526
303.721
303.818
303.883
303.934
303.961
303.987
304.002
304.002
303.996
303.99
303.997
303.982
303.981
303.939
303.889
303.787
303.697
303.548
303.399
303.191
303.011
302.743
302.501
302.263
302.005
301.669
301.326
301.102
300.986
300.886
300.733
300.495
300.406
300.492
300.571
300.515
300.295
299.944
299.709
299.724
299.613
299.662
299.433
299.419
299.415
299.55
299.394
299.311
299.022
298.897
298.781
298.868
299.112
299.603
300.162
300.652
301.1
0.559595
0.52201
0.586147
9.54937
64.3389
135.935
189.272
222.604
244.508
259.737
270.738
278.371
283.484
286.717
288.703
289.881
290.571
290.953
291.166
291.274
291.343
291.396
291.425
291.451
291.467
291.467
291.462
291.457
291.463
291.451
291.449
291.411
291.364
291.271
291.186
291.047
290.906
290.711
290.54
290.288
290.056
289.829
289.582
289.264
288.936
288.717
288.601
288.503
288.356
288.131
288.037
288.109
288.186
288.14
287.938
287.61
287.38
287.379
287.278
287.316
287.109
287.086
287.081
287.204
287.07
286.992
286.722
286.595
286.486
286.561
286.783
287.233
287.755
288.222
288.646
0.554497
0.509919
0.535961
6.61049
52.0059
118.639
171.591
205.832
228.507
244.265
255.626
263.543
268.878
272.282
274.391
275.65
276.393
276.809
277.042
277.162
277.237
277.291
277.322
277.348
277.364
277.366
277.362
277.357
277.362
277.352
277.351
277.317
277.274
277.189
277.11
276.982
276.849
276.668
276.507
276.274
276.054
275.838
275.606
275.307
274.998
274.785
274.669
274.573
274.434
274.224
274.127
274.184
274.257
274.221
274.038
273.737
273.514
273.497
273.406
273.434
273.249
273.219
273.213
273.322
273.211
273.138
272.89
272.763
272.661
272.724
272.924
273.331
273.813
274.254
274.651
0.551576
0.502421
0.501223
4.3392
40.2584
100.654
152.498
187.463
210.898
227.184
238.893
247.082
252.634
256.212
258.448
259.795
260.595
261.047
261.302
261.436
261.517
261.574
261.607
261.633
261.649
261.652
261.649
261.645
261.65
261.641
261.64
261.61
261.571
261.495
261.423
261.307
261.183
261.018
260.867
260.654
260.448
260.246
260.029
259.753
259.464
259.259
259.145
259.052
258.92
258.727
258.628
258.671
258.738
258.711
258.55
258.278
258.065
258.034
257.952
257.97
257.807
257.772
257.764
257.859
257.77
257.703
257.48
257.355
257.26
257.312
257.488
257.852
258.29
258.701
259.07
0.549995
0.498002
0.478182
2.71661
29.559
82.4546
132.238
167.595
191.723
208.528
220.576
229.033
234.808
238.571
240.946
242.39
243.254
243.748
244.028
244.178
244.267
244.326
244.361
244.387
244.404
244.408
244.407
244.403
244.407
244.399
244.399
244.374
244.339
244.272
244.207
244.103
243.99
243.841
243.703
243.51
243.321
243.133
242.933
242.681
242.415
242.221
242.108
242.019
241.896
241.72
241.623
241.651
241.71
241.692
241.553
241.312
241.113
241.07
240.996
241.004
240.864
240.825
240.815
240.895
240.826
240.768
240.57
240.45
240.362
240.403
240.556
240.876
241.269
241.647
241.984
0.549195
0.495554
0.463699
1.65904
20.3427
64.6577
111.219
146.451
171.127
188.421
200.809
209.551
215.574
219.548
222.084
223.643
224.582
225.125
225.435
225.603
225.701
225.764
225.801
225.828
225.845
225.85
225.85
225.847
225.851
225.844
225.844
225.823
225.793
225.735
225.677
225.586
225.485
225.353
225.227
225.056
224.884
224.713
224.531
224.304
224.063
223.882
223.773
223.687
223.574
223.417
223.322
223.337
223.388
223.377
223.26
223.05
222.869
222.816
222.749
222.748
222.63
222.589
222.578
222.644
222.593
222.542
222.371
222.259
222.179
222.21
222.339
222.614
222.96
223.303
223.608
0.548819
0.494292
0.455168
1.03557
12.9392
47.9888
90.0218
124.401
149.369
167.092
179.832
188.903
195.228
199.461
202.196
203.896
204.927
205.529
205.875
206.065
206.174
206.242
206.282
206.309
206.327
206.333
206.334
206.333
206.335
206.33
206.33
206.313
206.287
206.239
206.188
206.11
206.021
205.906
205.794
205.645
205.491
205.337
205.174
204.974
204.759
204.592
204.488
204.407
204.304
204.165
204.075
204.079
204.12
204.115
204.019
203.842
203.679
203.62
203.559
203.552
203.454
203.413
203.401
203.453
203.417
203.375
203.231
203.128
203.056
203.077
203.185
203.416
203.716
204.02
204.292
0.548657
0.493693
0.450503
0.702008
7.49587
33.2074
69.3938
101.971
126.827
144.87
157.992
167.474
174.192
178.762
181.75
183.628
184.774
185.45
185.839
186.056
186.179
186.253
186.297
186.325
186.343
186.351
186.353
186.352
186.354
186.351
186.35
186.337
186.316
186.276
186.233
186.167
186.09
185.992
185.894
185.766
185.632
185.496
185.352
185.178
184.991
184.84
184.742
184.665
184.573
184.452
184.369
184.363
184.394
184.393
184.317
184.171
184.03
183.968
183.913
183.9
183.819
183.78
183.768
183.808
183.785
183.75
183.632
183.54
183.476
183.489
183.576
183.767
184.02
184.286
184.525
0.548593
0.493434
0.448154
0.537374
3.92397
20.9959
50.2151
79.8536
104.015
122.206
135.758
145.784
153.029
158.038
161.353
163.455
164.745
165.511
165.954
166.202
166.343
166.424
166.472
166.502
166.52
166.529
166.533
166.533
166.534
166.532
166.531
166.521
166.504
166.472
166.437
166.382
166.317
166.235
166.151
166.043
165.928
165.811
165.686
165.537
165.376
165.243
165.152
165.08
164.999
164.896
164.82
164.807
164.829
164.829
164.772
164.655
164.535
164.474
164.424
164.407
164.343
164.307
164.294
164.323
164.309
164.282
164.187
164.108
164.053
164.059
164.127
164.281
164.49
164.718
164.924
0.548571
0.493334
0.447069
0.461343
1.89929
11.8137
33.4213
58.9015
81.6065
99.7036
113.763
124.511
132.452
138.024
141.745
144.12
145.583
146.456
146.962
147.248
147.408
147.499
147.552
147.584
147.603
147.613
147.617
147.618
147.619
147.618
147.618
147.61
147.597
147.572
147.543
147.499
147.445
147.377
147.307
147.218
147.121
147.02
146.914
146.788
146.653
146.538
146.455
146.389
146.317
146.229
146.162
146.144
146.158
146.159
146.117
146.026
145.927
145.869
145.825
145.805
145.754
145.722
145.711
145.731
145.723
145.701
145.627
145.561
145.515
145.516
145.567
145.688
145.858
146.049
146.225
0.548564
0.493299
0.446608
0.428637
0.940156
5.74477
19.8665
40.0978
60.473
78.197
92.8694
104.545
113.351
119.598
123.792
126.479
128.138
129.129
129.705
130.032
130.214
130.317
130.375
130.409
130.428
130.439
130.444
130.446
130.447
130.447
130.447
130.441
130.431
130.412
130.389
130.354
130.31
130.255
130.196
130.123
130.042
129.958
129.868
129.763
129.652
129.552
129.478
129.417
129.354
129.28
129.222
129.2
129.208
129.209
129.178
129.11
129.03
128.978
128.939
128.917
128.878
128.851
128.84
128.852
128.848
128.831
128.774
128.72
128.682
128.68
128.717
128.81
128.946
129.105
129.254
0.548562
0.493289
0.446425
0.415783
0.562306
2.39955
10.1243
24.4871
41.7583
58.8816
74.2803
87.0384
96.8092
103.779
108.469
111.478
113.337
114.448
115.095
115.461
115.666
115.78
115.843
115.879
115.9
115.912
115.918
115.92
115.921
115.921
115.921
115.918
115.91
115.896
115.877
115.849
115.813
115.769
115.72
115.659
115.592
115.52
115.444
115.358
115.266
115.181
115.114
115.058
115.002
114.94
114.889
114.867
114.869
114.869
114.847
114.796
114.733
114.687
114.653
114.631
114.601
114.578
114.569
114.575
114.573
114.557
114.513
114.469
114.438
114.435
114.463
114.534
114.643
114.774
114.901
0.548562
0.493287
0.446353
0.411272
0.434097
0.970299
4.2643
13.1006
27.0341
43.4998
59.6371
73.4402
84.1054
91.7266
96.8548
100.145
102.178
103.393
104.101
104.502
104.726
104.849
104.917
104.956
104.977
104.99
104.996
104.998
105
105
105.001
104.998
104.992
104.981
104.966
104.942
104.913
104.875
104.834
104.782
104.725
104.663
104.598
104.524
104.447
104.374
104.314
104.26
104.209
104.155
104.112
104.09
104.089
104.087
104.071
104.031
103.982
103.941
103.912
103.89
103.867
103.847
103.84
103.841
103.838
103.821
103.786
103.75
103.727
103.723
103.744
103.8
103.89
104.002
104.112
0.548562
0.493288
0.446325
0.409966
0.397604
0.535057
1.73547
6.93589
18.4328
34.3974
51.0187
65.5033
76.743
84.7781
90.1833
93.6506
95.7925
97.0734
97.8188
98.2416
98.4772
98.6069
98.6784
98.718
98.7402
98.7525
98.759
98.762
98.7638
98.7645
98.7651
98.7628
98.7581
98.7484
98.7349
98.7136
98.6874
98.6538
98.6163
98.569
98.5174
98.46
98.4013
98.3353
98.2683
98.2023
98.147
98.0933
98.0444
97.9947
97.9579
97.9373
97.935
97.9297
97.9156
97.8811
97.8414
97.8049
97.7799
97.7581
97.7396
97.7228
97.7177
97.7139
97.7089
97.6867
97.6555
97.6247
97.6077
97.6046
97.624
97.6715
97.7505
97.8521
97.9546
0.548562
0.493287
0.446328
0.410104
0.398959
0.540383
1.75575
6.95766
18.4042
34.3081
50.8862
65.3528
76.5892
84.6257
90.0337
93.503
95.6464
96.9276
97.6733
98.0962
98.332
98.4619
98.5335
98.5731
98.5952
98.6073
98.6139
98.617
98.6191
98.6201
98.6209
98.6184
98.6139
98.6039
98.5904
98.5679
98.5419
98.5078
98.4704
98.4214
98.3702
98.3116
98.2541
98.1883
98.1258
98.0613
98.0071
97.9487
97.8986
97.8484
97.817
97.7979
97.7969
97.7868
97.7715
97.7353
97.7003
97.665
97.6439
97.6198
97.6052
97.5892
97.5873
97.5774
97.5689
97.5357
97.5039
97.4745
97.4645
97.4632
97.4851
97.5316
97.6119
97.7143
97.8187
0.548561
0.493286
0.446364
0.41192
0.441199
1.00613
4.36636
13.1811
26.9497
43.2359
59.2572
73.0117
83.6675
91.2917
96.4273
99.7226
101.759
102.976
103.684
104.085
104.309
104.433
104.502
104.54
104.562
104.574
104.58
104.583
104.586
104.587
104.588
104.584
104.579
104.567
104.552
104.524
104.496
104.457
104.416
104.359
104.303
104.237
104.176
104.103
104.039
103.97
103.914
103.845
103.791
103.735
103.709
103.692
103.694
103.677
103.657
103.612
103.578
103.541
103.523
103.494
103.482
103.465
103.468
103.45
103.437
103.386
103.35
103.319
103.317
103.318
103.347
103.4
103.493
103.608
103.724
0.548561
0.493287
0.446457
0.417871
0.588181
2.53005
10.3685
24.6222
41.6105
58.4675
73.7037
86.391
96.1459
103.117
107.816
110.831
112.695
113.807
114.454
114.821
115.027
115.142
115.206
115.242
115.262
115.273
115.28
115.282
115.286
115.287
115.288
115.283
115.277
115.261
115.242
115.207
115.174
115.126
115.079
115.008
114.945
114.865
114.797
114.71
114.643
114.564
114.504
114.418
114.358
114.292
114.273
114.257
114.266
114.237
114.212
114.15
114.116
114.073
114.061
114.022
114.014
113.994
114.005
113.974
113.957
113.879
113.838
113.804
113.814
113.816
113.857
113.921
114.036
114.173
114.31
0.548562
0.493297
0.446695
0.43457
1.02159
6.0693
20.2887
40.2636
60.2509
77.6626
92.1544
103.747
112.53
118.773
122.976
125.668
127.333
128.323
128.9
129.226
129.411
129.515
129.575
129.608
129.627
129.637
129.643
129.645
129.649
129.651
129.653
129.644
129.637
129.616
129.593
129.546
129.508
129.448
129.392
129.302
129.23
129.132
129.054
128.947
128.875
128.782
128.718
128.609
128.541
128.46
128.452
128.438
128.456
128.409
128.378
128.292
128.259
128.208
128.203
128.15
128.148
128.121
128.145
128.096
128.077
127.963
127.916
127.878
127.903
127.906
127.963
128.044
128.19
128.356
128.52
0.548569
0.493331
0.447289
0.476684
2.11309
12.4288
34.0203
59.0687
81.3095
99.0838
112.968
123.63
131.544
137.107
140.835
143.212
144.682
145.55
146.058
146.343
146.507
146.601
146.656
146.686
146.705
146.714
146.72
146.721
146.727
146.727
146.73
146.718
146.71
146.682
146.654
146.593
146.548
146.473
146.408
146.293
146.211
146.09
146.003
145.869
145.792
145.681
145.614
145.474
145.401
145.3
145.308
145.295
145.326
145.255
145.217
145.1
145.071
145.009
145.015
144.94
144.947
144.912
144.953
144.881
144.862
144.7
144.651
144.607
144.654
144.655
144.733
144.834
145.02
145.221
145.418
0.548591
0.493434
0.448673
0.574223
4.38262
21.9641
50.9623
80.0003
103.656
121.539
134.938
144.882
152.101
157.095
160.416
162.518
163.815
164.574
165.019
165.267
165.413
165.498
165.549
165.577
165.595
165.603
165.608
165.608
165.615
165.616
165.62
165.602
165.593
165.557
165.525
165.445
165.395
165.303
165.228
165.084
164.993
164.844
164.747
164.581
164.501
164.369
164.301
164.124
164.047
163.922
163.952
163.939
163.987
163.884
163.841
163.684
163.665
163.589
163.61
163.507
163.526
163.48
163.546
163.441
163.429
163.207
163.159
163.11
163.185
163.181
163.284
163.407
163.64
163.881
164.115
0.548654
0.493698
0.451638
0.785095
8.32259
34.547
70.2495
102.089
126.431
144.198
157.195
166.605
173.302
177.852
180.848
182.724
183.878
184.545
184.938
185.154
185.285
185.362
185.41
185.435
185.454
185.46
185.465
185.464
185.473
185.473
185.479
185.454
185.445
185.399
185.362
185.262
185.208
185.095
185.012
184.833
184.735
184.556
184.451
184.248
184.168
184.012
183.946
183.725
183.647
183.494
183.553
183.539
183.608
183.464
183.419
183.216
183.211
183.118
183.16
183.022
183.059
182.998
183.096
182.951
182.95
182.656
182.616
182.562
182.669
182.656
182.79
182.938
183.223
183.505
183.779
0.548817
0.494307
0.457463
1.20973
14.2409
49.6797
90.9487
124.494
148.968
166.453
179.101
188.11
194.421
198.633
201.379
203.076
204.118
204.709
205.059
205.248
205.368
205.439
205.485
205.508
205.527
205.531
205.536
205.534
205.546
205.545
205.552
205.52
205.511
205.454
205.414
205.29
205.234
205.099
205.009
204.791
204.69
204.476
204.367
204.121
204.046
203.862
203.803
203.532
203.458
203.272
203.367
203.351
203.443
203.252
203.207
202.952
202.969
202.856
202.924
202.744
202.804
202.725
202.862
202.667
202.685
202.307
202.284
202.223
202.37
202.343
202.513
202.685
203.028
203.35
203.667
0.549192
0.495587
0.46802
1.99187
22.191
66.6552
112.189
146.534
170.752
187.85
200.176
208.868
214.887
218.839
221.391
222.947
223.901
224.429
224.745
224.913
225.023
225.09
225.135
225.157
225.176
225.178
225.182
225.179
225.194
225.192
225.202
225.161
225.153
225.084
225.041
224.891
224.835
224.676
224.581
224.322
224.221
223.97
223.859
223.568
223.502
223.289
223.241
222.914
222.849
222.627
222.766
222.743
222.864
222.617
222.578
222.263
222.311
222.175
222.274
222.044
222.133
222.032
222.217
221.964
222.008
221.536
221.537
221.469
221.661
221.615
221.825
222.022
222.425
222.787
223.146
0.549992
0.498064
0.485811
3.29141
31.9828
84.7033
133.236
167.686
191.402
208.051
220.067
228.483
234.264
238.004
240.402
241.844
242.726
243.202
243.492
243.641
243.745
243.809
243.853
243.872
243.893
243.892
243.897
243.891
243.91
243.907
243.919
243.868
243.862
243.781
243.736
243.559
243.506
243.322
243.224
242.921
242.824
242.535
242.426
242.086
242.034
241.79
241.758
241.371
241.321
241.059
241.248
241.216
241.368
241.06
241.031
240.652
240.737
240.576
240.71
240.425
240.549
240.423
240.66
240.344
240.421
239.846
239.881
239.803
240.044
239.975
240.231
240.45
240.915
241.313
241.714
0.551571
0.502524
0.513966
5.24182
43.2469
103.1
153.517
187.584
210.655
226.821
238.524
246.677
252.246
255.801
258.067
259.411
260.234
260.665
260.932
261.065
261.164
261.226
261.27
261.287
261.308
261.305
261.31
261.303
261.325
261.32
261.335
261.274
261.271
261.177
261.131
260.927
260.878
260.669
260.571
260.223
260.134
259.806
259.702
259.312
259.277
259.002
258.99
258.54
258.509
258.205
258.449
258.407
258.592
258.217
258.202
257.757
257.886
257.697
257.87
257.525
257.688
257.536
257.831
257.444
257.562
256.877
256.954
256.865
257.159
257.063
257.367
257.607
258.133
258.564
259.007
0.554491
0.510078
0.556266
7.91587
55.5186
121.233
172.631
205.998
228.357
244.024
255.4
263.286
268.647
272.027
274.174
275.43
276.2
276.59
276.839
276.957
277.053
277.112
277.156
277.171
277.193
277.188
277.193
277.184
277.21
277.203
277.221
277.15
277.15
277.043
276.997
276.766
276.723
276.489
276.392
276
275.921
275.555
275.459
275.018
275.006
274.698
274.71
274.196
274.188
273.842
274.144
274.089
274.308
273.865
273.868
273.355
273.532
273.314
273.529
273.121
273.327
273.147
273.502
273.041
273.205
272.408
272.532
272.432
272.781
272.654
273.009
273.268
273.855
274.315
274.796
0.559584
0.522239
0.617245
11.3117
68.3169
138.641
190.337
222.827
244.457
259.62
270.652
278.255
283.402
286.608
288.639
289.812
290.535
290.887
291.119
291.224
291.317
291.375
291.418
291.431
291.454
291.446
291.452
291.442
291.471
291.462
291.482
291.401
291.405
291.286
291.24
290.982
290.948
290.689
290.596
290.16
290.095
289.692
289.605
289.115
289.126
288.789
288.826
288.248
288.267
287.878
288.24
288.17
288.425
287.911
287.936
287.356
287.584
287.336
287.594
287.123
287.374
287.165
287.582
287.046
287.26
286.349
286.527
286.414
286.817
286.659
287.066
287.341
287.986
288.47
288.989
0.568043
0.541047
0.702412
15.3587
81.2057
155.016
206.54
238.084
259.002
273.665
284.335
291.637
296.558
299.588
301.505
302.598
303.275
303.591
303.808
303.901
303.992
304.048
304.091
304.102
304.126
304.116
304.122
304.11
304.142
304.132
304.155
304.064
304.072
303.94
303.896
303.613
303.588
303.306
303.217
302.739
302.691
302.251
302.177
301.638
301.675
301.309
301.373
300.733
300.781
300.35
300.772
300.688
300.976
300.394
300.443
299.796
300.078
299.801
300.101
299.568
299.864
299.626
300.105
299.495
299.761
298.739
298.972
298.846
299.303
299.114
299.572
299.862
300.562
301.067
301.62
0.581529
0.569309
0.818707
19.9378
93.8343
170.203
221.273
251.886
272.135
286.309
296.604
303.59
308.277
311.127
312.931
313.945
314.579
314.86
315.063
315.145
315.234
315.289
315.331
315.34
315.365
315.353
315.359
315.346
315.381
315.369
315.395
315.294
315.306
315.163
315.122
314.814
314.799
314.496
314.412
313.895
313.863
313.39
313.329
312.745
312.809
312.415
312.507
311.808
311.885
311.414
311.895
311.796
312.118
311.469
311.542
310.833
311.168
310.862
311.205
310.611
310.952
310.687
311.226
310.543
310.862
309.733
310.023
309.884
310.393
310.173
310.683
310.984
311.736
312.258
312.843
0.60236
0.611047
0.975451
24.9072
105.959
184.188
234.682
264.443
284.086
297.795
307.71
314.374
318.821
321.492
323.183
324.121
324.713
324.963
325.153
325.224
325.312
325.365
325.407
325.414
325.439
325.425
325.432
325.417
325.455
325.442
325.47
325.361
325.376
325.223
325.184
324.855
324.849
324.526
324.448
323.895
323.88
323.377
323.328
322.702
322.792
322.375
322.493
321.74
321.846
321.338
321.875
321.761
322.114
321.403
321.501
320.733
321.119
320.787
321.169
320.519
320.903
320.613
321.208
320.457
320.827
319.598
319.944
319.794
320.352
320.103
320.661
320.974
321.772
322.309
322.923
0.633817
0.672354
1.1864
30.1295
117.449
197.078
247.013
276.055
295.178
308.459
318.004
324.348
328.556
331.052
332.635
333.501
334.053
334.272
334.451
334.512
334.599
334.65
334.692
334.697
334.722
334.707
334.714
334.698
334.739
334.724
334.754
334.637
334.656
334.494
334.457
334.108
334.111
333.771
333.698
333.113
333.115
332.584
332.548
331.883
331.998
331.559
331.704
330.899
331.035
330.492
331.082
330.955
331.336
330.567
330.688
329.867
330.302
329.946
330.364
329.662
330.087
329.773
330.422
329.607
330.027
328.705
329.104
328.943
329.547
329.271
329.877
330.2
331.041
331.59
332.231
0.680733
0.763074
1.47419
35.4947
128.288
209.09
258.608
287.11
305.82
318.731
327.93
333.971
337.951
340.281
341.761
342.559
343.074
343.266
343.434
343.487
343.572
343.622
343.663
343.667
343.693
343.676
343.683
343.667
343.709
343.694
343.725
343.601
343.623
343.453
343.418
343.051
343.063
342.706
342.64
342.025
342.043
341.487
341.462
340.762
340.9
340.442
340.611
339.761
339.923
339.35
339.988
339.849
340.256
339.435
339.578
338.707
339.188
338.81
339.262
338.512
338.974
338.64
339.338
338.464
338.931
337.524
337.974
337.803
338.45
338.151
338.801
339.134
340.014
340.574
341.24
0.750579
0.900216
1.8797
40.9401
138.567
220.545
269.899
298.087
316.52
329.14
338.039
343.808
347.58
349.759
351.145
351.882
352.364
352.531
352.689
352.734
352.819
352.867
352.908
352.91
352.937
352.918
352.926
352.909
352.953
352.936
352.97
352.839
352.864
352.686
352.654
352.27
352.29
351.919
351.857
351.215
351.248
350.67
350.655
349.923
350.082
349.607
349.799
348.907
349.093
348.492
349.175
349.026
349.457
348.587
348.75
347.834
348.357
347.96
348.443
347.649
348.145
347.794
348.536
347.61
348.12
346.635
347.13
346.951
347.638
347.32
348.011
348.354
349.271
349.842
350.531
0.855616
1.11537
2.48208
46.4682
148.486
231.871
281.425
309.577
327.905
340.343
349.009
354.553
358.147
360.195
361.499
362.184
362.637
362.783
362.933
362.971