/*--------------------------------*- C++ -*----------------------------------*\
  =========                 |
  \\      /  F ield         | OpenFOAM: The Open Source CFD Toolbox
   \\    /   O peration     | Website:  https://openfoam.org
    \\  /    A nd           | Version:  7
     \\/     M anipulation  |
\*---------------------------------------------------------------------------*/
FoamFile
{
    version     2.0;
    format      ascii;
    class       volScalarField;
    location    "100";
    object      k;
}
// * * * * * * * * * * * * * * * * * * * * * * * * * * * * * * * * * * * * * //

dimensions      [0 2 -2 0 0 0 0];

internalField   nonuniform List<scalar> 
4500
(
2.10798
1.99028
1.93918
2.37892
3.40478
4.2412
4.72827
5.01598
5.20625
5.33639
5.42345
5.47887
5.51218
5.53149
5.54216
5.54814
5.55136
5.55298
5.55385
5.55422
5.55453
5.55489
5.55502
5.55517
5.55525
5.55525
5.55515
5.55514
5.55517
5.55505
5.55503
5.55465
5.55418
5.55329
5.55251
5.55126
5.55003
5.54823
5.54673
5.54449
5.54256
5.54072
5.53871
5.53619
5.53358
5.53186
5.53088
5.53006
5.52907
5.52734
5.52719
5.5283
5.52878
5.52812
5.52635
5.52352
5.52214
5.52294
5.52168
5.5226
5.52056
5.52089
5.52074
5.52184
5.51997
5.51938
5.51774
5.51768
5.51687
5.51804
5.52099
5.52628
5.53186
5.53606
5.54034
1.10405
1.67506
1.87861
2.70273
5.0565
6.99712
8.12432
8.76761
9.1769
9.44526
9.62038
9.72925
9.79435
9.83174
9.85262
9.86427
9.87072
9.87396
9.87576
9.87652
9.87723
9.87798
9.87825
9.87862
9.87883
9.87878
9.87861
9.87852
9.87862
9.87831
9.8783
9.87741
9.87637
9.87425
9.87254
9.86962
9.86681
9.86257
9.85926
9.85402
9.84959
9.84526
9.8406
9.83448
9.82816
9.82412
9.82208
9.82045
9.81806
9.81372
9.813
9.8154
9.81678
9.81549
9.81125
9.80442
9.80082
9.80246
9.79953
9.80179
9.79662
9.79727
9.79687
9.79997
9.79574
9.79496
9.79036
9.78961
9.7874
9.7902
9.79672
9.80868
9.82106
9.83058
9.84011
0.645124
1.23317
1.55991
2.95041
6.27103
8.78976
10.2243
11.0374
11.554
11.8924
12.1137
12.2514
12.334
12.3815
12.4082
12.423
12.4313
12.4354
12.4377
12.4387
12.4396
12.4406
12.4409
12.4414
12.4417
12.4416
12.4414
12.4413
12.4414
12.441
12.441
12.4398
12.4385
12.4357
12.4335
12.4297
12.4261
12.4206
12.4164
12.4096
12.4039
12.3983
12.3923
12.3843
12.3762
12.371
12.3684
12.3663
12.3632
12.3575
12.3567
12.3598
12.3616
12.3598
12.3543
12.3454
12.3408
12.343
12.3392
12.3421
12.3353
12.3362
12.3357
12.3398
12.3343
12.3333
12.3272
12.3262
12.3233
12.327
12.3354
12.3508
12.3667
12.379
12.3912
0.463609
0.893016
1.27113
3.20172
7.20978
10.1307
11.7808
12.7141
13.308
13.6976
13.9534
14.113
14.2091
14.2645
14.2957
14.313
14.3227
14.3276
14.3303
14.3314
14.3325
14.3336
14.334
14.3346
14.3349
14.3348
14.3346
14.3344
14.3346
14.3341
14.3341
14.3327
14.3312
14.328
14.3254
14.321
14.3168
14.3104
14.3055
14.2976
14.291
14.2845
14.2774
14.2681
14.2587
14.2527
14.2497
14.2473
14.2436
14.237
14.236
14.2397
14.2418
14.2397
14.2332
14.2228
14.2175
14.2201
14.2156
14.219
14.2111
14.2122
14.2116
14.2164
14.2099
14.2087
14.2015
14.2004
14.197
14.2013
14.211
14.229
14.2474
14.2616
14.2757
0.393987
0.645261
1.00958
3.42632
7.98409
11.2388
13.0714
14.1076
14.7687
15.2039
15.491
15.671
15.7798
15.8427
15.8782
15.898
15.909
15.9146
15.9177
15.919
15.9202
15.9215
15.922
15.9226
15.923
15.9229
15.9226
15.9224
15.9226
15.9221
15.922
15.9205
15.9188
15.9152
15.9123
15.9074
15.9027
15.8956
15.89
15.8812
15.8738
15.8665
15.8587
15.8483
15.8377
15.8311
15.8278
15.8251
15.8209
15.8135
15.8124
15.8165
15.8188
15.8165
15.8092
15.7976
15.7916
15.7945
15.7895
15.7933
15.7844
15.7857
15.7851
15.7904
15.7831
15.7818
15.7736
15.7723
15.7686
15.7734
15.7842
15.8041
15.8246
15.8405
15.8562
0.370518
0.4871
0.790578
3.61112
8.638
12.1955
14.1982
15.3318
16.0576
16.5376
16.8564
17.0573
17.1794
17.2503
17.2904
17.3128
17.3253
17.3316
17.3351
17.3366
17.338
17.3394
17.3399
17.3406
17.341
17.3409
17.3406
17.3404
17.3407
17.34
17.34
17.3383
17.3365
17.3325
17.3294
17.324
17.3189
17.3111
17.3051
17.2953
17.2873
17.2794
17.2707
17.2593
17.2477
17.2405
17.237
17.234
17.2294
17.2212
17.22
17.2245
17.227
17.2245
17.2164
17.2037
17.1972
17.2003
17.1949
17.199
17.1893
17.1907
17.19
17.1958
17.1879
17.1864
17.1774
17.1759
17.1718
17.177
17.1888
17.2105
17.2328
17.2501
17.2672
0.364461
0.401701
0.628174
3.74907
9.18865
13.0352
15.2057
16.4371
17.2288
17.7557
18.1081
18.3318
18.4686
18.5483
18.5936
18.619
18.6332
18.6403
18.6443
18.646
18.6475
18.6491
18.6497
18.6504
18.6509
18.6507
18.6504
18.6502
18.6505
18.6498
18.6498
18.648
18.646
18.6417
18.6384
18.6325
18.6271
18.6186
18.6121
18.6017
18.593
18.5844
18.575
18.5627
18.5502
18.5424
18.5386
18.5353
18.5303
18.5215
18.5201
18.525
18.5278
18.525
18.5163
18.5026
18.4955
18.4988
18.493
18.4974
18.4868
18.4884
18.4877
18.494
18.4854
18.4838
18.4739
18.4722
18.4679
18.4735
18.486
18.5093
18.5332
18.5519
18.5702
0.364536
0.362542
0.52311
3.83495
9.64082
13.7716
16.1137
17.4468
18.3082
18.8853
19.2747
19.5237
19.6771
19.7669
19.8183
19.8471
19.8632
19.8713
19.8758
19.8778
19.8795
19.8812
19.8818
19.8826
19.8831
19.883
19.8826
19.8824
19.8827
19.882
19.882
19.8801
19.878
19.8735
19.8699
19.8636
19.8578
19.8488
19.8419
19.8307
19.8214
19.8122
19.8023
19.789
19.7756
19.7674
19.7633
19.7597
19.7543
19.7448
19.7433
19.7485
19.7515
19.7485
19.7392
19.7246
19.7169
19.7204
19.7143
19.7189
19.7076
19.7092
19.7085
19.7152
19.7062
19.7044
19.6937
19.6918
19.6872
19.6931
19.7063
19.7309
19.7563
19.7763
19.7958
0.366637
0.347167
0.462521
3.86428
9.99255
14.4074
16.9287
18.3702
19.3063
19.9383
20.3688
20.6464
20.8188
20.9203
20.9787
21.0114
21.0297
21.0391
21.0442
21.0465
21.0484
21.0502
21.0509
21.0518
21.0524
21.0522
21.0519
21.0516
21.052
21.0512
21.0512
21.0492
21.047
21.0422
21.0385
21.0318
21.0257
21.0162
21.0088
20.997
20.9872
20.9774
20.9668
20.9527
20.9385
20.9297
20.9254
20.9216
20.9158
20.9057
20.9039
20.9094
20.9126
20.9095
20.8997
20.8842
20.876
20.8795
20.8732
20.8778
20.8661
20.8676
20.8669
20.8739
20.8646
20.8626
20.8512
20.849
20.8442
20.8504
20.8642
20.8899
20.9167
20.9378
20.9584
0.369286
0.342586
0.429559
3.83334
10.2378
14.9384
17.6491
19.2074
20.2249
20.9173
21.3935
21.7034
21.8975
22.0126
22.079
22.1164
22.1373
22.1481
22.154
22.1566
22.1588
22.1607
22.1615
22.1625
22.1631
22.1629
22.1625
22.1623
22.1627
22.1619
22.1619
22.1598
22.1575
22.1525
22.1486
22.1416
22.1351
22.1252
22.1175
22.1051
22.0947
22.0844
22.0732
22.0584
22.0434
22.0341
22.0295
22.0255
22.0193
22.0086
22.0066
22.0122
22.0157
22.0126
22.0023
21.986
21.9771
21.9807
21.9742
21.9789
21.9666
21.9681
21.9675
21.9748
21.9651
21.963
21.9509
21.9484
21.9435
21.9498
21.9641
21.9908
22.0187
22.041
22.0625
0.371942
0.342645
0.411182
3.73969
10.368
15.3554
18.2674
19.9527
21.0589
21.8178
22.3449
22.6914
22.9102
23.0408
23.1166
23.1595
23.1835
23.1959
23.2027
23.2058
23.2082
23.2103
23.2112
23.2122
23.2128
23.2127
23.2123
23.2121
23.2124
23.2116
23.2117
23.2095
23.2071
23.2019
23.1979
23.1906
23.1839
23.1736
23.1655
23.1525
23.1416
23.1309
23.1192
23.1036
23.0878
23.078
23.0732
23.069
23.0624
23.0512
23.0489
23.0546
23.0584
23.0553
23.0445
23.0276
23.0181
23.0215
23.0149
23.0197
23.007
23.0084
23.0077
23.0153
23.0055
23.0032
22.9905
22.9876
22.9826
22.9891
23.0038
23.0313
23.0602
23.0835
23.1059
0.374402
0.344622
0.399639
3.58282
10.3734
15.6455
18.7717
20.5955
21.7986
22.6306
23.2141
23.6016
23.8485
23.997
24.0837
24.1328
24.1604
24.1748
24.1827
24.1863
24.1889
24.1912
24.1923
24.1934
24.194
24.1939
24.1935
24.1933
24.1937
24.1928
24.1929
24.1906
24.1882
24.1829
24.1787
24.1713
24.1642
24.1536
24.1452
24.1318
24.1204
24.1092
24.097
24.0809
24.0644
24.0541
24.049
24.0445
24.0376
24.026
24.0233
24.0291
24.0332
24.0301
24.019
24.0015
23.9914
23.9946
23.988
23.9927
23.9798
23.9809
23.9803
23.988
23.9783
23.9758
23.9625
23.9593
23.9542
23.9608
23.9757
24.0037
24.0335
24.0577
24.0809
0.376596
0.347303
0.390984
3.36484
10.2441
15.7934
19.1466
21.1214
22.4303
23.3423
23.9881
24.4214
24.7
24.8689
24.9682
25.0246
25.0564
25.0731
25.0821
25.0864
25.0894
25.0919
25.093
25.0942
25.0949
25.0948
25.0945
25.0942
25.0946
25.0938
25.0938
25.0916
25.0891
25.0837
25.0794
25.0718
25.0645
25.0536
25.045
25.0312
25.0194
25.0078
24.9952
24.9785
24.9614
24.9506
24.9453
24.9406
24.9333
24.9213
24.9183
24.924
24.9283
24.9253
24.9141
24.8961
24.8854
24.8883
24.8817
24.8863
24.8733
24.8741
24.8735
24.8814
24.8717
24.8692
24.8554
24.8518
24.8467
24.8533
24.8683
24.8967
24.9271
24.9522
24.9759
0.378499
0.35013
0.383471
3.09108
9.97153
15.7823
19.3742
21.5131
22.9372
23.9366
24.6508
25.135
25.4492
25.6412
25.7548
25.8197
25.8564
25.8758
25.8863
25.8913
25.8947
25.8974
25.8987
25.9
25.9007
25.9006
25.9003
25.9
25.9004
25.8996
25.8997
25.8974
25.8949
25.8895
25.8851
25.8774
25.8699
25.8589
25.85
25.836
25.8238
25.8118
25.7989
25.7817
25.7641
25.7529
25.7472
25.7424
25.7348
25.7225
25.719
25.7247
25.7292
25.7264
25.715
25.6967
25.6855
25.688
25.6815
25.6858
25.6728
25.6734
25.6728
25.6807
25.6713
25.6686
25.6546
25.6505
25.6454
25.6519
25.667
25.6954
25.7263
25.7521
25.7763
0.380111
0.352834
0.376498
2.77058
9.55006
15.595
19.4345
21.7512
23.3004
24.3949
25.1836
25.724
26.078
26.2963
26.4263
26.5009
26.5432
26.5657
26.578
26.5839
26.5877
26.5907
26.5921
26.5935
26.5943
26.5943
26.5939
26.5936
26.5941
26.5933
26.5934
26.5911
26.5886
26.5832
26.5788
26.571
26.5633
26.5523
26.5432
26.529
26.5165
26.5043
26.4911
26.4736
26.4556
26.4439
26.438
26.4329
26.4252
26.4127
26.4087
26.4141
26.4189
26.4163
26.4049
26.3866
26.3748
26.3767
26.3704
26.3744
26.3617
26.3618
26.3612
26.369
26.3601
26.3573
26.3431
26.3386
26.3335
26.3399
26.3548
26.3832
26.4143
26.4406
26.4652
0.381439
0.355281
0.370002
2.41628
8.97859
15.2154
19.3067
21.8146
23.4993
24.6968
25.5667
26.169
26.5673
26.8151
26.9638
27.0496
27.0984
27.1246
27.1388
27.1459
27.1502
27.1534
27.1551
27.1565
27.1574
27.1574
27.1571
27.1568
27.1572
27.1565
27.1565
27.1544
27.1519
27.1465
27.1421
27.1343
27.1266
27.1155
27.1063
27.0922
27.0794
27.067
27.0536
27.036
27.0177
27.0056
26.9994
26.9942
26.9862
26.9736
26.9692
26.9742
26.9791
26.9769
26.9657
26.9474
26.9351
26.9365
26.9303
26.934
26.9216
26.9213
26.9207
26.9284
26.92
26.9172
26.903
26.898
26.893
26.8992
26.9138
26.9417
26.9728
26.9995
27.0243
0.382501
0.357404
0.364122
2.04482
8.26259
14.6301
18.9707
21.6818
23.5128
24.8216
25.7794
26.4497
26.8972
27.1784
27.3483
27.447
27.5033
27.5338
27.5503
27.5587
27.5636
27.5672
27.569
27.5706
27.5715
27.5715
27.5713
27.571
27.5714
27.5707
27.5708
27.5687
27.5662
27.561
27.5566
27.549
27.5412
27.5302
27.5209
27.5069
27.4941
27.4815
27.468
27.4504
27.432
27.4196
27.4131
27.4076
27.3995
27.387
27.3821
27.3867
27.3917
27.3897
27.3789
27.3609
27.3483
27.3489
27.343
27.3462
27.3343
27.3336
27.333
27.3403
27.3327
27.3298
27.3158
27.3104
27.3055
27.3114
27.3257
27.3529
27.3836
27.4106
27.4353
0.383321
0.359177
0.359026
1.67568
7.41599
13.8309
18.4075
21.3317
23.3198
24.7485
25.8017
26.5464
27.0488
27.3675
27.5616
27.6751
27.7401
27.7756
27.7949
27.8047
27.8104
27.8143
27.8164
27.8181
27.8191
27.8192
27.819
27.8187
27.8191
27.8184
27.8185
27.8166
27.8141
27.8091
27.8048
27.7973
27.7896
27.7788
27.7696
27.7558
27.743
27.7304
27.7169
27.6994
27.681
27.6684
27.6616
27.656
27.6478
27.6354
27.6301
27.6342
27.6391
27.6376
27.6272
27.6097
27.5969
27.5966
27.5911
27.5938
27.5825
27.5813
27.5807
27.5877
27.5809
27.578
27.5644
27.5586
27.5539
27.5594
27.5731
27.5993
27.6295
27.6564
27.681
0.383928
0.3606
0.354823
1.32956
6.46292
12.817
17.6021
20.7448
22.9002
24.4581
25.6145
26.4413
27.0047
27.3659
27.5877
27.7182
27.7933
27.8347
27.8573
27.8689
27.8755
27.8798
27.8822
27.884
27.8851
27.8853
27.8851
27.8849
27.8852
27.8846
27.8847
27.8829
27.8805
27.8758
27.8715
27.8643
27.8567
27.8463
27.8371
27.8238
27.811
27.7985
27.7851
27.768
27.7498
27.737
27.7299
27.7241
27.716
27.7039
27.6982
27.7016
27.7064
27.7053
27.6956
27.6788
27.6659
27.6648
27.6595
27.6617
27.6512
27.6496
27.6489
27.6554
27.6495
27.6467
27.6337
27.6276
27.623
27.628
27.641
27.6661
27.6954
27.7221
27.7462
0.384357
0.36169
0.351541
1.02593
5.43879
11.5981
16.5449
19.9045
22.236
23.9327
25.2015
26.1189
26.7508
27.1604
27.414
27.5644
27.6514
27.6996
27.7261
27.7398
27.7475
27.7523
27.755
27.7569
27.7581
27.7584
27.7583
27.7581
27.7584
27.7578
27.7579
27.7562
27.754
27.7496
27.7454
27.7386
27.7312
27.7212
27.7122
27.6994
27.6868
27.6745
27.6614
27.6447
27.627
27.6141
27.6067
27.6009
27.5929
27.5811
27.5751
27.5778
27.5824
27.5817
27.5728
27.5569
27.5441
27.5421
27.5371
27.5387
27.5291
27.5271
27.5264
27.5324
27.5274
27.5247
27.5125
27.5062
27.5017
27.5063
27.5185
27.5421
27.5701
27.5964
27.6199
0.384645
0.362485
0.349125
0.779768
4.39019
10.1976
15.2349
18.7989
21.3127
23.158
24.5497
25.5681
26.2777
26.7428
27.0333
27.207
27.3079
27.3643
27.3953
27.4116
27.4206
27.426
27.429
27.4311
27.4324
27.4328
27.4327
27.4326
27.4328
27.4324
27.4324
27.4309
27.4289
27.4247
27.4208
27.4144
27.4073
27.3978
27.3891
27.3769
27.3648
27.3527
27.34
27.324
27.3068
27.294
27.2864
27.2805
27.2726
27.2614
27.2551
27.257
27.2613
27.261
27.253
27.2383
27.2257
27.223
27.2182
27.2193
27.2106
27.2083
27.2075
27.2128
27.2089
27.2063
27.195
27.1886
27.1843
27.1883
27.1996
27.2215
27.2481
27.2736
27.2963
0.384827
0.363032
0.347458
0.598134
3.37282
8.65598
13.6831
17.4233
20.1203
22.124
23.6511
24.7834
25.5821
26.1117
26.4454
26.6465
26.7639
26.83
26.8665
26.8859
26.8964
26.9026
26.906
26.9083
26.9097
26.9102
26.9102
26.9101
26.9103
26.9099
26.91
26.9087
26.9068
26.903
26.8993
26.8934
26.8867
26.8778
26.8694
26.858
26.8464
26.8348
26.8225
26.8073
26.791
26.7783
26.7706
26.7646
26.7569
26.7463
26.74
26.7411
26.7449
26.745
26.7379
26.7245
26.7125
26.709
26.7045
26.705
26.6973
26.6948
26.6939
26.6986
26.6955
26.6932
26.683
26.6766
26.6725
26.6759
26.6862
26.7063
26.7311
26.7556
26.7773
0.384935
0.363386
0.346385
0.47771
2.44657
7.03303
11.9167
15.7828
18.6556
20.8266
22.5043
23.7671
24.6695
25.2746
25.6594
25.8929
26.03
26.1077
26.1508
26.1738
26.1862
26.1933
26.1973
26.1998
26.2013
26.2019
26.202
26.2019
26.2021
26.2018
26.2018
26.2007
26.199
26.1957
26.1922
26.1869
26.1806
26.1724
26.1644
26.1539
26.1429
26.1319
26.1202
26.1059
26.0906
26.0783
26.0705
26.0645
26.0571
26.0472
26.0408
26.0411
26.0445
26.0448
26.0388
26.0269
26.0156
26.0115
26.0072
26.0071
26.0004
25.9978
25.9969
26.0008
25.9986
25.9966
25.9875
25.9813
25.9774
25.9803
25.9894
26.0075
26.0304
26.0536
26.0742
0.384994
0.363598
0.345742
0.405938
1.66738
5.40872
9.98363
13.897
16.9251
19.2708
21.1178
22.5322
23.5566
24.2512
24.6964
24.9685
25.1289
25.2204
25.2712
25.2986
25.3134
25.3216
25.3261
25.3289
25.3305
25.3312
25.3314
25.3314
25.3316
25.3313
25.3313
25.3304
25.3289
25.326
25.3229
25.318
25.3123
25.3048
25.2974
25.2878
25.2776
25.2672
25.2562
25.243
25.2288
25.217
25.2092
25.2032
25.1961
25.187
25.1807
25.1803
25.1831
25.1837
25.1787
25.1683
25.1579
25.1534
25.1493
25.1487
25.143
25.1403
25.1394
25.1426
25.1412
25.1394
25.1315
25.1257
25.1221
25.1244
25.1324
25.1484
25.1692
25.1909
25.2101
0.385025
0.363717
0.345383
0.366751
1.07613
3.88033
7.95761
11.8048
14.9497
17.4742
19.5142
21.1071
22.276
23.0761
23.5926
23.9099
24.0979
24.2055
24.2655
24.298
24.3155
24.325
24.3303
24.3333
24.3351
24.3359
24.3362
24.3363
24.3364
24.3363
24.3363
24.3355
24.3342
24.3317
24.3289
24.3246
24.3194
24.3127
24.3059
24.2972
24.2879
24.2782
24.268
24.256
24.2429
24.2319
24.2242
24.2182
24.2114
24.2031
24.197
24.1961
24.1982
24.1989
24.195
24.1861
24.1768
24.172
24.1682
24.1672
24.1623
24.1597
24.1588
24.1614
24.1605
24.159
24.1523
24.1469
24.1436
24.1454
24.1523
24.1663
24.1849
24.2049
24.2228
0.38504
0.363777
0.345196
0.34673
0.685983
2.55343
5.9415
9.57172
12.7717
15.4763
17.7386
19.5425
20.8812
21.8041
22.4025
22.7719
22.9913
23.1174
23.1879
23.2262
23.2467
23.2579
23.2639
23.2673
23.2692
23.2702
23.2706
23.2707
23.2708
23.2707
23.2707
23.2701
23.269
23.2669
23.2645
23.2607
23.2561
23.2502
23.244
23.2362
23.2277
23.2188
23.2095
23.1986
23.1868
23.1765
23.1691
23.1631
23.1567
23.1492
23.1434
23.142
23.1436
23.1443
23.1412
23.1339
23.1257
23.1209
23.1173
23.1159
23.1119
23.1095
23.1087
23.1106
23.1101
23.1088
23.1032
23.0984
23.0955
23.0968
23.1027
23.1147
23.1311
23.1493
23.1658
0.385046
0.363806
0.345101
0.337122
0.471812
1.52359
4.06689
7.29887
10.4689
13.3536
15.8729
17.9219
19.4538
20.5136
21.2025
21.6287
21.8824
22.0285
22.1104
22.155
22.179
22.1918
22.1987
22.2024
22.2046
22.2057
22.2062
22.2063
22.2064
22.2064
22.2064
22.2059
22.205
22.2033
22.2011
22.1979
22.1938
22.1886
22.183
22.1761
22.1684
22.1603
22.1518
22.142
22.1315
22.122
22.1149
22.1089
22.1029
22.0961
22.0908
22.089
22.0901
22.0907
22.0884
22.0824
22.0754
22.0708
22.0674
22.0658
22.0625
22.0603
22.0596
22.0609
22.0608
22.0595
22.0548
22.0506
22.0481
22.0492
22.0541
22.0643
22.0787
22.0952
22.1103
0.385049
0.363818
0.345054
0.332842
0.375443
0.846229
2.48548
5.13625
8.18159
11.2491
14.057
16.3739
18.11
19.311
20.0917
20.5751
20.8633
21.0294
21.1227
21.1736
21.2009
21.2154
21.2232
21.2273
21.2296
21.2308
21.2314
21.2316
21.2318
21.2317
21.2318
21.2314
21.2307
21.2292
21.2273
21.2245
21.2209
21.2163
21.2112
21.205
21.1981
21.1907
21.183
21.1741
21.1648
21.1561
21.1493
21.1434
21.1377
21.1315
21.1266
21.1247
21.1254
21.1258
21.1241
21.1192
21.1133
21.109
21.1059
21.1041
21.1015
21.0995
21.0989
21.0998
21.0997
21.0983
21.0944
21.0908
21.0888
21.0896
21.0938
21.1024
21.1151
21.13
21.144
0.38505
0.363822
0.345029
0.331108
0.338395
0.500015
1.34769
3.31011
6.16806
9.41742
12.5124
15.0825
17.0044
18.3308
19.1921
19.7253
20.0433
20.2269
20.33
20.3864
20.4166
20.4326
20.441
20.4456
20.448
20.4493
20.4499
20.4502
20.4503
20.4503
20.4504
20.4501
20.4494
20.4482
20.4465
20.444
20.4407
20.4366
20.432
20.4263
20.42
20.4131
20.4059
20.3979
20.3895
20.3816
20.3751
20.3692
20.3637
20.3579
20.3536
20.3516
20.352
20.3522
20.3508
20.3468
20.3418
20.3378
20.335
20.3331
20.331
20.3293
20.3289
20.3292
20.3291
20.3274
20.324
20.3209
20.3194
20.3201
20.3237
20.3313
20.3426
20.3563
20.3695
0.38505
0.363824
0.345017
0.330528
0.326514
0.377634
0.763948
2.1763
4.87336
8.25391
11.5475
14.2858
16.3281
17.7347
18.6472
19.2121
19.549
19.7435
19.8529
19.9127
19.9447
19.9617
19.9706
19.9753
19.9779
19.9792
19.9799
19.9801
19.9803
19.9804
19.9804
19.9801
19.9796
19.9784
19.9769
19.9744
19.9714
19.9675
19.9631
19.9576
19.9517
19.945
19.9383
19.9307
19.9231
19.9157
19.9095
19.9034
19.898
19.8924
19.8886
19.8867
19.8871
19.8869
19.8856
19.8819
19.8777
19.8739
19.8716
19.8695
19.8678
19.8663
19.8662
19.866
19.8657
19.8633
19.8602
19.8573
19.8564
19.8571
19.8606
19.8674
19.878
19.8911
19.9038
0.38505
0.363824
0.345019
0.33059
0.327016
0.379699
0.770519
2.18177
4.86727
8.23698
11.5248
14.2616
16.3044
17.7117
18.6249
19.1903
19.5275
19.7221
19.8315
19.8913
19.9234
19.9404
19.9493
19.954
19.9565
19.9578
19.9585
19.9588
19.9589
19.959
19.9591
19.9588
19.9582
19.9571
19.9555
19.9529
19.9499
19.9459
19.9416
19.9359
19.93
19.9233
19.9167
19.9091
19.902
19.8947
19.8886
19.882
19.8765
19.8709
19.8678
19.8661
19.8666
19.8658
19.8644
19.8605
19.8568
19.8531
19.8512
19.8488
19.8476
19.8462
19.8465
19.8456
19.845
19.8415
19.8383
19.8356
19.8354
19.8362
19.8399
19.8466
19.8572
19.8704
19.8833
0.385049
0.363822
0.345036
0.331367
0.340727
0.511068
1.37325
3.32589
6.14981
9.36903
12.4486
15.0145
16.9374
18.2657
19.1289
19.6633
19.982
20.1658
20.269
20.3254
20.3557
20.3717
20.3802
20.3847
20.387
20.3883
20.3889
20.3892
20.3894
20.3895
20.3896
20.3892
20.3886
20.3873
20.3856
20.3826
20.3795
20.3751
20.3706
20.3643
20.3582
20.3509
20.3443
20.3361
20.3292
20.3217
20.3157
20.3083
20.3026
20.2966
20.2942
20.2927
20.2936
20.292
20.2903
20.2856
20.2822
20.2785
20.2771
20.2742
20.2734
20.2718
20.2727
20.271
20.2701
20.2648
20.2614
20.2587
20.2595
20.2605
20.2648
20.2718
20.2833
20.2972
20.3109
0.385048
0.363817
0.345072
0.333565
0.38284
0.878487
2.53418
5.15681
8.15051
11.1757
13.962
16.2723
18.0091
19.2123
19.9955
20.4803
20.7694
20.9358
21.0292
21.0801
21.1075
21.122
21.1298
21.1339
21.1361
21.1372
21.1378
21.138
21.1383
21.1384
21.1386
21.138
21.1374
21.1357
21.1339
21.1302
21.1269
21.122
21.1172
21.1099
21.1035
21.0953
21.0883
21.0793
21.0724
21.0644
21.0584
21.0497
21.0438
21.0372
21.0357
21.0345
21.0359
21.0332
21.0312
21.0251
21.0221
21.0181
21.0173
21.0136
21.0133
21.0115
21.0132
21.0103
21.0093
21.0017
20.9981
20.9953
20.9972
20.9983
21.0035
21.0113
21.0243
21.0396
21.0544
0.385045
0.363804
0.345143
0.338929
0.492139
1.58922
4.13654
7.31783
10.4243
13.2614
15.7563
17.7968
19.3286
20.3903
21.0815
21.5091
21.7639
21.9101
21.992
22.0366
22.0607
22.0735
22.0805
22.0841
22.0862
22.0872
22.0877
22.0878
22.0882
22.0883
22.0885
22.0876
22.087
22.085
22.0829
22.0785
22.0749
22.0692
22.064
22.0554
22.0487
22.0393
22.032
22.0217
22.0149
22.0062
22.0002
21.9899
21.9839
21.9763
21.976
21.975
21.9772
21.9731
21.9707
21.9628
21.9603
21.9558
21.9558
21.951
21.9512
21.9491
21.9519
21.9475
21.9464
21.936
21.9323
21.9295
21.9329
21.9339
21.9403
21.949
21.9641
21.9811
21.9974
0.385039
0.363775
0.345288
0.35092
0.732182
2.658
6.02564
9.58412
12.7142
15.3709
17.6087
19.4031
20.7408
21.6646
22.2652
22.6356
22.856
22.9819
23.0524
23.0906
23.1114
23.1226
23.1287
23.1319
23.1338
23.1346
23.1351
23.1352
23.1356
23.1357
23.1359
23.1348
23.1341
23.1317
23.1294
23.124
23.1202
23.1136
23.108
23.0979
23.0908
23.0801
23.0726
23.0607
23.054
23.0443
23.0386
23.0263
23.0203
23.0116
23.0127
23.0119
23.0151
23.0091
23.0064
22.9964
22.9946
22.9894
22.9905
22.9841
22.9852
22.9825
22.9867
22.9805
22.9797
22.9658
22.9624
22.9594
22.9645
22.9654
22.9731
22.983
23.0005
23.0193
23.0374
0.385024
0.363715
0.345577
0.375892
1.16142
4.02226
8.04866
11.8079
14.8813
17.3604
19.3775
20.9607
22.1279
22.9281
23.4461
23.7642
23.953
24.0601
24.1202
24.1525
24.1702
24.1799
24.1853
24.188
24.1898
24.1904
24.1909
24.1909
24.1915
24.1915
24.1918
24.1903
24.1897
24.1867
24.1842
24.1777
24.1738
24.1662
24.1603
24.1484
24.1412
24.129
24.1213
24.1075
24.1013
24.0904
24.085
24.0706
24.0647
24.0547
24.0577
24.0569
24.0613
24.053
24.0502
24.0378
24.037
24.031
24.0333
24.0251
24.0273
24.0238
24.0298
24.0213
24.0211
24.0033
24.0005
23.9973
24.0045
24.0049
24.0143
24.0254
24.0455
24.0663
24.0861
0.384993
0.363597
0.346125
0.424738
1.80066
5.58156
10.0751
13.8901
16.8485
19.1527
20.9794
22.3843
23.4066
24.1004
24.547
24.8193
24.9805
25.0712
25.1221
25.1492
25.1644
25.1727
25.1774
25.1798
25.1814
25.1819
25.1823
25.1822
25.183
25.1829
25.1834
25.1815
25.1808
25.1774
25.1747
25.1671
25.1631
25.1545
25.1483
25.1346
25.1274
25.1136
25.1058
25.0902
25.0844
25.0724
25.0676
25.0507
25.0453
25.0338
25.0389
25.038
25.0438
25.0329
25.0302
25.015
25.0156
25.0087
25.0125
25.002
25.0056
25.0012
25.0093
24.9981
24.999
24.9768
24.975
24.9717
24.9811
24.9807
24.992
25.0043
25.0272
25.0497
25.0713
0.384933
0.363385
0.347093
0.513508
2.63112
7.22817
12.0039
15.7668
18.5738
20.7079
22.368
23.6217
24.522
25.1258
25.5116
25.7451
25.8829
25.9595
26.0027
26.0254
26.0383
26.0455
26.0498
26.0518
26.0533
26.0537
26.054
26.0538
26.0547
26.0546
26.0552
26.0528
26.0523
26.0482
26.0455
26.0366
26.0328
26.0231
26.0169
26.0012
25.9943
25.9788
25.9712
25.9535
25.9485
25.9352
25.9313
25.9117
25.9071
25.8939
25.9015
25.9004
25.9076
25.8938
25.8915
25.8734
25.8757
25.8678
25.8733
25.8603
25.8655
25.86
25.8705
25.8564
25.8586
25.8317
25.8315
25.8279
25.8397
25.8384
25.8516
25.865
25.8906
25.9148
25.9381
0.384825
0.363033
0.34869
0.659777
3.60666
8.86477
13.7634
17.3997
20.0363
22.0075
23.5196
24.6435
25.4403
25.9679
26.3027
26.5034
26.6215
26.6863
26.723
26.742
26.7532
26.7594
26.7632
26.765
26.7665
26.7666
26.7669
26.7667
26.7677
26.7675
26.7682
26.7654
26.765
26.7604
26.7576
26.7475
26.744
26.7332
26.727
26.7094
26.7029
26.6859
26.6786
26.6587
26.6548
26.6402
26.6373
26.6151
26.6115
26.5966
26.6068
26.6053
26.614
26.5972
26.5955
26.5744
26.5787
26.5696
26.5771
26.5614
26.5684
26.5617
26.5748
26.5575
26.5615
26.5297
26.5313
26.5275
26.5418
26.5392
26.5546
26.5688
26.5972
26.6227
26.6475
0.384643
0.362489
0.351146
0.875175
4.66734
10.4125
15.3071
18.7699
21.229
23.0461
24.4252
25.4357
26.1436
26.6064
26.8979
27.071
27.1727
27.2275
27.2588
27.2747
27.2844
27.2899
27.2934
27.2949
27.2963
27.2963
27.2966
27.2963
27.2975
27.2972
27.298
27.2947
27.2945
27.2893
27.2866
27.2753
27.2722
27.2603
27.2543
27.2348
27.2291
27.2104
27.2037
27.1817
27.179
27.1632
27.1615
27.1365
27.1342
27.1175
27.1305
27.1285
27.1387
27.1188
27.118
27.0939
27.1005
27.0902
27.0996
27.0811
27.0902
27.0821
27.098
27.0773
27.0834
27.0466
27.0505
27.0463
27.0631
27.0591
27.0767
27.0917
27.1226
27.149
27.1752
0.384355
0.361698
0.354687
1.16027
5.75097
11.8131
16.6091
19.8722
22.1547
23.8268
25.0852
25.9951
26.6256
27.0326
27.2873
27.437
27.5248
27.5713
27.5981
27.6114
27.6199
27.6248
27.628
27.6292
27.6306
27.6305
27.6308
27.6303
27.6317
27.6313
27.6323
27.6285
27.6285
27.6228
27.6202
27.6078
27.6051
27.5923
27.5866
27.5653
27.5604
27.5403
27.5342
27.5103
27.5089
27.4919
27.4915
27.464
27.463
27.4446
27.4604
27.4577
27.4696
27.4466
27.4468
27.4198
27.4288
27.4172
27.4286
27.4073
27.4185
27.4091
27.4277
27.4037
27.4121
27.3704
27.3769
27.3723
27.3914
27.386
27.4057
27.4212
27.4544
27.4815
27.5089
0.383926
0.360613
0.359497
1.50472
6.80103
13.028
17.659
20.7109
22.8227
24.3592
25.507
26.3267
26.889
27.2473
27.4703
27.6
27.6761
27.7154
27.7385
27.7496
27.7572
27.7616
27.7644
27.7655
27.7669
27.7666
27.7669
27.7664
27.7679
27.7674
27.7685
27.7643
27.7645
27.7583
27.7559
27.7425
27.7403
27.7266
27.7213
27.6985
27.6945
27.673
27.6678
27.642
27.642
27.624
27.625
27.595
27.5955
27.5755
27.594
27.5907
27.604
27.5781
27.5794
27.5497
27.5612
27.5484
27.5617
27.5378
27.551
27.5403
27.5616
27.5343
27.5451
27.4988
27.5079
27.5028
27.5243
27.5174
27.5391
27.5549
27.5901
27.6176
27.6459
0.383319
0.359198
0.365689
1.89047
7.77123
14.0351
18.4582
21.2977
23.2471
24.6572
25.7031
26.4411
26.9426
27.2582
27.4536
27.566
27.6321
27.6654
27.6853
27.6947
27.7014
27.7053
27.708
27.7089
27.7102
27.7098
27.7101
27.7095
27.7112
27.7106
27.7118
27.7073
27.7077
27.7011
27.6988
27.6846
27.6829
27.6685
27.6636
27.6395
27.6364
27.6138
27.6094
27.5821
27.5835
27.5645
27.5669
27.5348
27.5369
27.5154
27.5364
27.5323
27.547
27.5184
27.5209
27.4888
27.5027
27.4888
27.5039
27.4775
27.4927
27.4808
27.5045
27.4743
27.4874
27.437
27.4488
27.4432
27.4667
27.4583
27.4819
27.4979
27.5348
27.5623
27.5913
0.382499
0.357432
0.373272
2.29563
8.62707
14.8259
19.0162
21.6488
23.4454
24.7378
25.6896
26.3532
26.8001
27.0779
27.2493
27.3468
27.4042
27.4323
27.4497
27.4574
27.4635
27.467
27.4695
27.4703
27.4715
27.471
27.4713
27.4707
27.4724
27.4718
27.4731
27.4683
27.4688
27.4619
27.4599
27.4449
27.4438
27.4289
27.4244
27.3991
27.3971
27.3736
27.37
27.3414
27.3441
27.3244
27.3282
27.2942
27.2978
27.275
27.2983
27.2935
27.3094
27.2784
27.2821
27.248
27.2641
27.2491
27.2659
27.2373
27.2544
27.2413
27.2673
27.2344
27.2497
27.1957
27.21
27.2039
27.2292
27.2195
27.2448
27.2608
27.2989
27.3263
27.3558
0.381437
0.355315
0.382133
2.69778
9.34567
15.402
19.3481
21.7832
23.4372
24.6203
25.4851
26.0808
26.4786
26.7229
26.8731
26.9576
27.0076
27.0313
27.0463
27.0527
27.0583
27.0615
27.0638
27.0644
27.0656
27.065
27.0654
27.0647
27.0665
27.0658
27.0672
27.0621
27.0629
27.0557
27.0538
27.0383
27.0378
27.0224
27.0185
26.9923
26.9913
26.9671
26.9643
26.9347
26.9387
26.9185
26.9234
26.888
26.8929
26.8691
26.8944
26.889
26.9059
26.8729
26.8777
26.8419
26.86
26.8442
26.8623
26.832
26.8506
26.8366
26.8645
26.8294
26.8467
26.7897
26.8063
26.7998
26.8266
26.8157
26.8424
26.8583
26.8973
26.9243
26.954
0.380108
0.352873
0.392048
3.07641
9.91435
15.7722
19.4725
21.7219
23.2434
24.325
25.1094
25.6433
25.9969
26.2114
26.343
26.4161
26.4597
26.4796
26.4927
26.498
26.5031
26.506
26.5082
26.5086
26.5098
26.5092
26.5095
26.5088
26.5106
26.5099
26.5114
26.5061
26.507
26.4996
26.498
26.4821
26.4821
26.4664
26.463
26.4363
26.4361
26.4115
26.4096
26.3792
26.3843
26.3638
26.3698
26.3333
26.3395
26.3149
26.3419
26.3359
26.3535
26.319
26.3249
26.2877
26.3076
26.2911
26.3104
26.2786
26.2985
26.2839
26.3132
26.2763
26.2954
26.2361
26.2548
26.2479
26.2758
26.2639
26.2918
26.3074
26.3469
26.3733
26.403
0.378497
0.350171
0.402754
3.41447
10.3289
15.9502
19.4095
21.486
22.885
23.8727
24.5831
25.0607
25.3746
25.5626
25.6779
25.7412
25.7792
25.7958
25.8073
25.8117
25.8163
25.819
25.821
25.8213
25.8225
25.8218
25.8221
25.8214
25.8233
25.8225
25.824
25.8186
25.8197
25.8122
25.8108
25.7947
25.7952
25.7794
25.7764
25.7494
25.7501
25.7253
25.724
25.6933
25.6994
25.6787
25.6857
25.6485
25.6558
25.6307
25.6588
25.6524
25.6706
25.635
25.6417
25.6038
25.625
25.6081
25.6282
25.5954
25.6164
25.6012
25.6316
25.5935
25.614
25.5532
25.5735
25.5664
25.5951
25.5824
25.6111
25.6264
25.666
25.6917
25.7211
0.376592
0.347342
0.414124
3.69906
10.5913
15.9522
19.1797
21.0962
22.3822
23.2835
23.926
24.3527
24.631
24.7957
24.8966
24.9514
24.9845
24.9984
25.0085
25.0121
25.0163
25.0187
25.0206
25.0209
25.022
25.0213
25.0216
25.0209
25.0227
25.022
25.0235
25.018
25.0192
25.0117
25.0105
24.9944
24.9952
24.9795
24.9769
24.9499
24.9513
24.9266
24.9259
24.8952
24.902
24.8815
24.8891
24.8518
24.8599
24.8347
24.8635
24.8568
24.8752
24.8391
24.8465
24.8082
24.8304
24.8133
24.8339
24.8006
24.8222
24.8068
24.8378
24.799
24.8206
24.759
24.7806
24.7732
24.8024
24.7892
24.8184
24.8332
24.8726
24.8974
24.9265
0.374397
0.344651
0.426506
3.92146
10.7082
15.7955
18.8026
20.5721
21.7542
22.5762
23.1566
23.5376
23.7841
23.9283
24.0166
24.064
24.0929
24.1045
24.1134
24.1163
24.1202
24.1224
24.1242
24.1243
24.1255
24.1247
24.125
24.1243
24.1261
24.1254
24.1269
24.1214
24.1227
24.1153
24.1142
24.0983
24.0994
24.0839
24.0817
24.055
24.0569
24.0325
24.0324
24.0019
24.0093
23.989
23.9972
23.9601
23.9689
23.9437
23.9729
23.9661
23.9845
23.9482
23.9561
23.918
23.9408
23.9237
23.9445
23.9111
23.933
23.9175
23.9488
23.9097
23.9321
23.8704
23.8928
23.8855
23.9147
23.9012
23.9305
23.9449
23.9837
24.0076
24.036
0.371932
0.342656
0.441313
4.07689
10.6887
15.4969
18.2964
19.9308
21.0175
21.767
22.2912
22.6312
22.8495
22.9759
23.0532
23.0943
23.1196
23.1292
23.137