/*--------------------------------*- C++ -*----------------------------------*\
  =========                 |
  \\      /  F ield         | OpenFOAM: The Open Source CFD Toolbox
   \\    /   O peration     | Website:  https://openfoam.org
    \\  /    A nd           | Version:  7
     \\/     M anipulation  |
\*---------------------------------------------------------------------------*/
FoamFile
{
    version     2.0;
    format      ascii;
    class       volScalarField;
    location    "100";
    object      p;
}
// * * * * * * * * * * * * * * * * * * * * * * * * * * * * * * * * * * * * * //

dimensions      [0 2 -2 0 0 0 0];

internalField   nonuniform List<scalar> 
4500
(
1204.97
1201.8
1201.23
1198.82
1185.62
1163.75
1142.74
1124.42
1108.42
1093.57
1079.04
1064
1048.47
1032.38
1016.03
999.398
982.694
965.875
949.05
932.159
915.264
898.353
881.48
864.568
847.641
830.723
813.856
796.988
780.15
763.278
746.399
729.513
712.637
695.751
678.878
662.004
645.155
628.29
611.45
594.608
577.804
560.974
544.179
527.38
510.619
493.838
477.068
460.296
443.552
426.796
410.073
393.284
376.519
359.744
343.017
326.28
309.594
292.838
276.119
259.38
242.668
225.948
209.217
192.475
175.769
159.044
142.399
125.663
108.998
92.2434
75.5712
58.769
42.0434
25.2072
8.42985
1204.58
1201.77
1201.23
1198.82
1185.63
1163.76
1142.75
1124.42
1108.42
1093.57
1079.04
1064
1048.47
1032.38
1016.03
999.398
982.694
965.875
949.05
932.159
915.264
898.353
881.48
864.568
847.641
830.723
813.856
796.988
780.15
763.278
746.399
729.513
712.637
695.751
678.878
662.004
645.155
628.29
611.45
594.608
577.804
560.974
544.179
527.38
510.619
493.838
477.068
460.296
443.552
426.796
410.073
393.284
376.519
359.744
343.017
326.28
309.594
292.838
276.119
259.38
242.668
225.948
209.217
192.475
175.769
159.044
142.399
125.663
108.998
92.2434
75.5712
58.7691
42.0434
25.2072
8.42986
1204.5
1201.77
1201.24
1198.83
1185.65
1163.78
1142.76
1124.42
1108.42
1093.57
1079.04
1064
1048.47
1032.38
1016.03
999.398
982.694
965.875
949.05
932.159
915.264
898.353
881.48
864.568
847.641
830.723
813.856
796.988
780.15
763.278
746.399
729.513
712.637
695.751
678.878
662.004
645.155
628.29
611.45
594.608
577.804
560.974
544.179
527.38
510.619
493.838
477.068
460.296
443.552
426.796
410.073
393.284
376.519
359.744
343.017
326.28
309.594
292.838
276.119
259.38
242.668
225.948
209.217
192.475
175.769
159.044
142.399
125.663
108.998
92.2435
75.5713
58.7692
42.0435
25.2073
8.4299
1204.5
1201.78
1201.24
1198.84
1185.68
1163.8
1142.77
1124.43
1108.42
1093.57
1079.04
1064
1048.47
1032.38
1016.03
999.398
982.694
965.875
949.05
932.159
915.264
898.353
881.48
864.568
847.641
830.723
813.856
796.988
780.15
763.278
746.399
729.513
712.637
695.751
678.878
662.004
645.155
628.29
611.45
594.608
577.804
560.974
544.179
527.38
510.619
493.838
477.068
460.296
443.552
426.796
410.073
393.284
376.519
359.744
343.017
326.28
309.594
292.838
276.119
259.38
242.668
225.948
209.217
192.475
175.769
159.043
142.399
125.663
108.998
92.2436
75.5714
58.7694
42.0437
25.2074
8.42993
1204.49
1201.79
1201.24
1198.86
1185.71
1163.82
1142.78
1124.43
1108.42
1093.57
1079.04
1064
1048.47
1032.38
1016.03
999.398
982.694
965.875
949.05
932.159
915.264
898.353
881.48
864.568
847.641
830.723
813.856
796.988
780.15
763.278
746.399
729.513
712.637
695.751
678.878
662.004
645.155
628.29
611.45
594.608
577.804
560.974
544.179
527.38
510.619
493.838
477.068
460.296
443.552
426.796
410.073
393.284
376.519
359.744
343.017
326.28
309.594
292.838
276.119
259.38
242.668
225.948
209.217
192.475
175.769
159.043
142.399
125.663
108.998
92.2436
75.5715
58.7695
42.0438
25.2076
8.42999
1204.48
1201.79
1201.25
1198.89
1185.74
1163.84
1142.79
1124.43
1108.42
1093.57
1079.04
1064
1048.47
1032.38
1016.03
999.398
982.694
965.875
949.05
932.159
915.264
898.353
881.48
864.568
847.641
830.723
813.856
796.988
780.149
763.278
746.399
729.513
712.637
695.751
678.877
662.004
645.155
628.29
611.45
594.608
577.804
560.974
544.179
527.379
510.618
493.838
477.068
460.296
443.552
426.796
410.073
393.284
376.519
359.744
343.017
326.279
309.594
292.838
276.119
259.38
242.668
225.948
209.217
192.475
175.769
159.043
142.399
125.662
108.998
92.2437
75.5717
58.7697
42.044
25.2077
8.43001
1204.47
1201.79
1201.25
1198.91
1185.78
1163.87
1142.8
1124.44
1108.42
1093.56
1079.04
1064
1048.47
1032.38
1016.03
999.398
982.694
965.875
949.05
932.159
915.264
898.353
881.48
864.568
847.641
830.723
813.856
796.988
780.149
763.278
746.399
729.513
712.637
695.751
678.877
662.004
645.155
628.29
611.45
594.608
577.804
560.974
544.178
527.379
510.618
493.838
477.068
460.296
443.552
426.796
410.073
393.284
376.519
359.744
343.017
326.279
309.594
292.838
276.119
259.379
242.668
225.948
209.217
192.475
175.769
159.043
142.399
125.662
108.998
92.2438
75.5718
58.7698
42.0441
25.2078
8.43007
1204.46
1201.8
1201.26
1198.94
1185.81
1163.89
1142.81
1124.44
1108.42
1093.56
1079.04
1064
1048.47
1032.38
1016.03
999.398
982.694
965.875
949.05
932.159
915.264
898.353
881.48
864.568
847.641
830.723
813.856
796.988
780.149
763.278
746.399
729.513
712.637
695.751
678.877
662.004
645.155
628.29
611.45
594.608
577.804
560.974
544.178
527.379
510.618
493.838
477.068
460.296
443.551
426.796
410.073
393.284
376.519
359.744
343.016
326.279
309.594
292.838
276.119
259.379
242.668
225.948
209.217
192.475
175.769
159.043
142.399
125.662
108.998
92.2439
75.572
58.77
42.0443
25.208
8.43009
1204.46
1201.8
1201.26
1198.96
1185.84
1163.91
1142.82
1124.45
1108.43
1093.57
1079.04
1064
1048.47
1032.38
1016.03
999.398
982.694
965.875
949.05
932.159
915.264
898.353
881.48
864.568
847.641
830.723
813.856
796.988
780.149
763.278
746.399
729.513
712.637
695.751
678.877
662.004
645.155
628.29
611.45
594.608
577.804
560.974
544.178
527.379
510.618
493.838
477.068
460.296
443.551
426.795
410.073
393.284
376.519
359.744
343.016
326.279
309.594
292.838
276.119
259.379
242.668
225.948
209.217
192.475
175.769
159.043
142.398
125.662
108.998
92.244
75.5721
58.7702
42.0445
25.2082
8.43015
1204.45
1201.8
1201.26
1198.98
1185.88
1163.93
1142.83
1124.45
1108.43
1093.57
1079.04
1064
1048.47
1032.38
1016.03
999.398
982.694
965.875
949.05
932.159
915.264
898.353
881.48
864.568
847.641
830.723
813.856
796.988
780.149
763.278
746.399
729.513
712.637
695.751
678.877
662.004
645.155
628.289
611.45
594.607
577.804
560.974
544.178
527.379
510.618
493.838
477.068
460.296
443.551
426.795
410.072
393.284
376.519
359.744
343.016
326.279
309.594
292.838
276.119
259.379
242.668
225.948
209.217
192.475
175.769
159.043
142.398
125.662
108.998
92.2441
75.5723
58.7704
42.0447
25.2083
8.43015
1204.44
1201.81
1201.27
1198.99
1185.9
1163.96
1142.85
1124.46
1108.43
1093.57
1079.04
1064
1048.47
1032.38
1016.03
999.398
982.694
965.875
949.05
932.159
915.264
898.353
881.48
864.568
847.641
830.723
813.856
796.988
780.149
763.278
746.399
729.513
712.637
695.751
678.877
662.004
645.155
628.289
611.45
594.607
577.804
560.973
544.178
527.379
510.618
493.838
477.068
460.296
443.551
426.795
410.072
393.284
376.519
359.744
343.016
326.279
309.594
292.838
276.119
259.379
242.668
225.948
209.217
192.476
175.769
159.043
142.398
125.662
108.998
92.2441
75.5724
58.7706
42.0448
25.2085
8.43022
1204.42
1201.81
1201.27
1199
1185.93
1163.98
1142.86
1124.46
1108.43
1093.57
1079.04
1064
1048.47
1032.38
1016.03
999.398
982.694
965.875
949.05
932.159
915.264
898.353
881.48
864.568
847.641
830.723
813.856
796.988
780.149
763.278
746.399
729.513
712.637
695.751
678.877
662.004
645.154
628.289
611.45
594.607
577.803
560.973
544.178
527.378
510.618
493.838
477.068
460.296
443.551
426.795
410.072
393.285
376.519
359.744
343.016
326.279
309.594
292.838
276.119
259.379
242.668
225.948
209.217
192.476
175.769
159.043
142.398
125.662
108.998
92.2442
75.5726
58.7707
42.045
25.2086
8.4302
1204.41
1201.81
1201.27
1199
1185.95
1164
1142.87
1124.47
1108.43
1093.57
1079.04
1064
1048.47
1032.38
1016.03
999.398
982.694
965.875
949.05
932.159
915.264
898.353
881.48
864.568
847.641
830.723
813.856
796.988
780.149
763.278
746.399
729.513
712.637
695.751
678.877
662.004
645.154
628.289
611.45
594.607
577.803
560.973
544.178
527.378
510.618
493.838
477.068
460.296
443.551
426.795
410.072
393.285
376.52
359.744
343.016
326.278
309.594
292.838
276.119
259.379
242.667
225.948
209.217
192.476
175.769
159.043
142.398
125.662
108.998
92.2443
75.5727
58.7709
42.0452
25.2088
8.43027
1204.4
1201.82
1201.27
1199
1185.96
1164.02
1142.89
1124.48
1108.44
1093.57
1079.04
1064
1048.47
1032.38
1016.03
999.398
982.694
965.875
949.05
932.159
915.264
898.353
881.48
864.568
847.641
830.723
813.856
796.988
780.149
763.278
746.399
729.513
712.637
695.751
678.877
662.004
645.154
628.289
611.45
594.607
577.803
560.973
544.178
527.378
510.617
493.838
477.068
460.296
443.551
426.795
410.072
393.285
376.52
359.744
343.016
326.278
309.593
292.838
276.119
259.379
242.667
225.948
209.217
192.476
175.769
159.043
142.398
125.662
108.998
92.2444
75.5728
58.7711
42.0453
25.209
8.43023
1204.39
1201.82
1201.27
1198.99
1185.97
1164.04
1142.9
1124.49
1108.44
1093.57
1079.04
1064
1048.47
1032.38
1016.03
999.398
982.695
965.875
949.05
932.159
915.264
898.353
881.48
864.568
847.641
830.723
813.856
796.988
780.149
763.278
746.399
729.513
712.637
695.751
678.877
662.004
645.154
628.289
611.45
594.607
577.803
560.973
544.178
527.378
510.617
493.838
477.068
460.296
443.551
426.795
410.072
393.285
376.52
359.744
343.016
326.278
309.593
292.838
276.119
259.379
242.667
225.948
209.217
192.476
175.769
159.043
142.398
125.662
108.998
92.2445
75.573
58.7712
42.0455
25.2091
8.4303
1204.37
1201.83
1201.26
1198.98
1185.97
1164.07
1142.92
1124.5
1108.45
1093.57
1079.04
1064
1048.48
1032.38
1016.03
999.399
982.695
965.875
949.05
932.159
915.265
898.353
881.48
864.568
847.641
830.723
813.856
796.988
780.149
763.278
746.399
729.513
712.637
695.751
678.877
662.004
645.154
628.289
611.449
594.607
577.803
560.973
544.178
527.378
510.617
493.838
477.068
460.296
443.551
426.795
410.072
393.285
376.52
359.744
343.016
326.278
309.593
292.838
276.119
259.379
242.667
225.947
209.217
192.476
175.769
159.043
142.398
125.662
108.998
92.2445
75.5731
58.7713
42.0456
25.2092
8.43025
1204.36
1201.84
1201.25
1198.96
1185.97
1164.09
1142.94
1124.51
1108.45
1093.58
1079.05
1064
1048.48
1032.39
1016.03
999.399
982.695
965.876
949.05
932.159
915.265
898.353
881.48
864.568
847.641
830.723
813.856
796.989
780.148
763.278
746.399
729.513
712.637
695.751
678.877
662.004
645.154
628.289
611.449
594.607
577.803
560.973
544.177
527.378
510.617
493.838
477.068
460.296
443.551
426.795
410.072
393.285
376.52
359.744
343.016
326.278
309.593
292.838
276.119
259.379
242.667
225.947
209.217
192.476
175.769
159.043
142.398
125.662
108.998
92.2446
75.5732
58.7714
42.0458
25.2094
8.43032
1204.34
1201.84
1201.24
1198.94
1185.96
1164.11
1142.97
1124.53
1108.46
1093.58
1079.05
1064
1048.48
1032.39
1016.03
999.399
982.695
965.876
949.05
932.159
915.265
898.353
881.48
864.568
847.641
830.723
813.856
796.989
780.148
763.278
746.399
729.513
712.637
695.751
678.877
662.004
645.154
628.289
611.449
594.607
577.803
560.973
544.177
527.378
510.617
493.838
477.068
460.296
443.551
426.795
410.072
393.285
376.52
359.744
343.016
326.278
309.593
292.838
276.119
259.379
242.667
225.947
209.217
192.476
175.769
159.043
142.398
125.661
108.998
92.2446
75.5732
58.7715
42.0459
25.2095
8.43026
1204.33
1201.85
1201.23
1198.91
1185.95
1164.14
1143
1124.55
1108.48
1093.59
1079.06
1064.01
1048.48
1032.39
1016.04
999.4
982.695
965.876
949.051
932.159
915.265
898.353
881.48
864.567
847.641
830.723
813.856
796.989
780.148
763.278
746.399
729.513
712.637
695.751
678.877
662.004
645.154
628.289
611.449
594.607
577.803
560.973
544.177
527.378
510.617
493.838
477.068
460.296
443.551
426.795
410.072
393.284
376.52
359.744
343.016
326.278
309.593
292.838
276.119
259.379
242.667
225.947
209.217
192.476
175.769
159.043
142.398
125.661
108.998
92.2446
75.5733
58.7715
42.046
25.2096
8.43033
1204.31
1201.86
1201.21
1198.87
1185.93
1164.17
1143.03
1124.57
1108.49
1093.6
1079.06
1064.01
1048.48
1032.39
1016.04
999.401
982.696
965.876
949.051
932.158
915.265
898.353
881.48
864.567
847.641
830.723
813.856
796.989
780.148
763.278
746.399
729.513
712.637
695.751
678.877
662.004
645.154
628.289
611.449
594.607
577.803
560.973
544.177
527.378
510.617
493.838
477.068
460.296
443.551
426.795
410.072
393.284
376.52
359.744
343.016
326.278
309.593
292.838
276.119
259.379
242.667
225.947
209.217
192.476
175.769
159.043
142.398
125.661
108.998
92.2445
75.5733
58.7716
42.0461
25.2096
8.43027
1204.29
1201.87
1201.19
1198.83
1185.91
1164.19
1143.06
1124.6
1108.51
1093.61
1079.07
1064.02
1048.49
1032.39
1016.04
999.402
982.696
965.876
949.051
932.158
915.265
898.353
881.48
864.567
847.642
830.723
813.856
796.989
780.148
763.278
746.399
729.513
712.637
695.751
678.877
662.004
645.154
628.289
611.449
594.607
577.803
560.973
544.177
527.378
510.617
493.837
477.068
460.296
443.551
426.795
410.072
393.284
376.52
359.744
343.016
326.278
309.593
292.837
276.119
259.379
242.667
225.947
209.217
192.476
175.769
159.043
142.398
125.661
108.998
92.2445
75.5733
58.7715
42.0462
25.2097
8.43035
1204.27
1201.87
1201.17
1198.78
1185.89
1164.22
1143.1
1124.63
1108.53
1093.63
1079.08
1064.03
1048.49
1032.4
1016.04
999.403
982.697
965.877
949.051
932.158
915.265
898.353
881.48
864.567
847.642
830.723
813.856
796.989
780.148
763.278
746.399
729.513
712.637
695.751
678.877
662.004
645.154
628.289
611.449
594.607
577.803
560.973
544.178
527.378
510.617
493.837
477.068
460.296
443.551
426.795
410.072
393.284
376.52
359.744
343.016
326.278
309.593
292.837
276.119
259.379
242.668
225.947
209.217
192.476
175.769
159.043
142.398
125.661
108.998
92.2444
75.5733
58.7715
42.0462
25.2098
8.4303
1204.25
1201.88
1201.15
1198.72
1185.86
1164.26
1143.15
1124.67
1108.56
1093.65
1079.1
1064.04
1048.5
1032.4
1016.04
999.405
982.698
965.877
949.051
932.159
915.265
898.354
881.48
864.567
847.642
830.723
813.856
796.989
780.148
763.278
746.399
729.513
712.637
695.751
678.877
662.004
645.154
628.289
611.449
594.607
577.803
560.973
544.178
527.378
510.617
493.837
477.068
460.296
443.551
426.795
410.071
393.284
376.52
359.744
343.016
326.278
309.593
292.837
276.119
259.379
242.668
225.947
209.217
192.476
175.769
159.044
142.398
125.661
108.998
92.2443
75.5733
58.7715
42.0463
25.2098
8.43038
1204.24
1201.89
1201.13
1198.66
1185.84
1164.29
1143.2
1124.71
1108.59
1093.68
1079.12
1064.05
1048.51
1032.41
1016.05
999.407
982.699
965.878
949.052
932.159
915.266
898.354
881.48
864.567
847.642
830.723
813.856
796.989
780.147
763.278
746.399
729.513
712.637
695.751
678.877
662.004
645.154
628.289
611.449
594.607
577.803
560.973
544.178
527.378
510.617
493.837
477.068
460.296
443.552
426.795
410.071
393.284
376.52
359.745
343.016
326.279
309.592
292.837
276.119
259.379
242.668
225.947
209.217
192.476
175.769
159.044
142.399
125.661
108.997
92.2441
75.5732
58.7714
42.0463
25.2098
8.43034
1204.22
1201.9
1201.11
1198.59
1185.81
1164.33
1143.25
1124.76
1108.63
1093.71
1079.14
1064.07
1048.52
1032.41
1016.05
999.409
982.701
965.879
949.052
932.159
915.266
898.354
881.48
864.567
847.642
830.723
813.856
796.99
780.147
763.278
746.399
729.513
712.637
695.751
678.877
662.004
645.154
628.289
611.45
594.608
577.803
560.973
544.178
527.379
510.617
493.837
477.068
460.296
443.552
426.795
410.071
393.283
376.52
359.745
343.017
326.279
309.592
292.837
276.119
259.379
242.668
225.946
209.216
192.476
175.769
159.044
142.399
125.661
108.997
92.2439
75.5732
58.7713
42.0464
25.2098
8.43043
1204.2
1201.91
1201.09
1198.53
1185.78
1164.37
1143.3
1124.81
1108.68
1093.75
1079.17
1064.09
1048.54
1032.42
1016.06
999.413
982.703
965.88
949.053
932.159
915.266
898.354
881.48
864.567
847.642
830.723
813.856
796.99
780.147
763.278
746.399
729.513
712.637
695.751
678.877
662.004
645.154
628.289
611.45
594.608
577.803
560.973
544.178
527.379
510.617
493.836
477.067
460.296
443.552
426.795
410.071
393.283
376.519
359.745
343.017
326.279
309.592
292.837
276.119
259.38
242.668
225.946
209.216
192.476
175.77
159.044
142.4
125.661
108.997
92.2437
75.5731
58.7711
42.0464
25.2098
8.43041
1204.18
1201.92
1201.07
1198.47
1185.74
1164.4
1143.36
1124.87
1108.73
1093.8
1079.21
1064.12
1048.55
1032.43
1016.06
999.416
982.704
965.881
949.053
932.159
915.266
898.354
881.48
864.567
847.642
830.723
813.856
796.99
780.147
763.277
746.399
729.513
712.637
695.751
678.877
662.005
645.154
628.289
611.45
594.608
577.803
560.973
544.178
527.379
510.617
493.836
477.067
460.296
443.553
426.796
410.071
393.283
376.519
359.745
343.018
326.279
309.592
292.837
276.119
259.38
242.669
225.946
209.216
192.476
175.77
159.045
142.4
125.661
108.997
92.2434
75.573
58.771
42.0465
25.2098
8.43048
1204.17
1201.92
1201.06
1198.42
1185.7
1164.43
1143.42
1124.93
1108.79
1093.84
1079.25
1064.14
1048.57
1032.44
1016.07
999.42
982.706
965.882
949.054
932.159
915.266
898.354
881.48
864.567
847.642
830.723
813.856
796.99
780.147
763.277
746.399
729.513
712.637
695.751
678.877
662.005
645.154
628.289
611.45
594.608
577.803
560.973
544.178
527.379
510.617
493.836
477.067
460.297
443.553
426.796
410.071
393.282
376.519
359.746
343.018
326.28
309.592
292.836
276.118
259.38
242.669
225.946
209.215
192.476
175.77
159.045
142.401
125.661
108.996
92.2431
75.573
58.7709
42.0465
25.2098
8.43049
1204.16
1201.93
1201.05
1198.38
1185.66
1164.45
1143.46
1124.98
1108.84
1093.89
1079.28
1064.17
1048.59
1032.45
1016.08
999.423
982.708
965.883
949.054
932.159
915.267
898.354
881.48
864.567
847.642
830.723
813.856
796.99
780.147
763.277
746.399
729.514
712.637
695.751
678.877
662.005
645.154
628.289
611.45
594.608
577.803
560.974
544.179
527.38
510.617
493.835
477.067
460.297
443.553
426.796
410.07
393.282
376.519
359.746
343.019
326.28
309.592
292.836
276.118
259.38
242.669
225.945
209.215
192.475
175.769
159.046
142.402
125.661
108.996
92.2428
75.5729
58.7707
42.0467
25.2097
8.43052
1204.15
1201.93
1201.05
1198.36
1185.63
1164.45
1143.49
1125.02
1108.88
1093.92
1079.31
1064.19
1048.6
1032.46
1016.08
999.424
982.709
965.883
949.054
932.16
915.267
898.354
881.48
864.566
847.643
830.723
813.856
796.99
780.147
763.277
746.399
729.514
712.637
695.751
678.877
662.005
645.154
628.289
611.449
594.608
577.803
560.974
544.179
527.38
510.617
493.835
477.066
460.297
443.554
426.797
410.07
393.281
376.519
359.746
343.019
326.28
309.592
292.836
276.118
259.38
242.67
225.945
209.214
192.475
175.769
159.046
142.403
125.661
108.996
92.2423
75.573
58.7707
42.0469
25.2096
8.43052
1204.15
1201.93
1201.05
1198.36
1185.62
1164.44
1143.49
1125.02
1108.88
1093.92
1079.31
1064.19
1048.6
1032.46
1016.08
999.424
982.709
965.883
949.054
932.16
915.267
898.354
881.48
864.566
847.643
830.723
813.856
796.99
780.147
763.277
746.399
729.514
712.637
695.751
678.877
662.005
645.155
628.289
611.449
594.609
577.803
560.974
544.179
527.38
510.617
493.835
477.066
460.297
443.555
426.797
410.07
393.281
376.518
359.746
343.019
326.281
309.592
292.836
276.118
259.381
242.67
225.945
209.213
192.475
175.769
159.046
142.405
125.66
108.995
92.2419
75.5732
58.7706
42.0473
25.2095
8.43049
1204.16
1201.93
1201.07
1198.38
1185.63
1164.43
1143.46
1124.99
1108.84
1093.89
1079.29
1064.17
1048.59
1032.45
1016.08
999.423
982.708
965.883
949.054
932.159
915.267
898.354
881.48
864.566
847.643
830.723
813.856
796.99
780.147
763.277
746.399
729.514
712.637
695.751
678.877
662.005
645.155
628.289
611.449
594.609
577.803
560.973
544.179
527.381
510.617
493.834
477.065
460.297
443.555
426.797
410.07
393.28
376.518
359.746
343.02
326.281
309.592
292.835
276.118
259.381
242.671
225.944
209.213
192.475
175.769
159.047
142.406
125.66
108.995
92.2414
75.5735
58.7706
42.0477
25.2094
8.43048
1204.17
1201.93
1201.09
1198.42
1185.65
1164.4
1143.42
1124.94
1108.79
1093.85
1079.25
1064.15
1048.57
1032.45
1016.07
999.42
982.707
965.882
949.054
932.159
915.267
898.354
881.48
864.566
847.643
830.723
813.856
796.99
780.147
763.277
746.399
729.514
712.637
695.751
678.877
662.005
645.155
628.289
611.449
594.609
577.803
560.973
544.179
527.381
510.617
493.834
477.065
460.297
443.556
426.798
410.07
393.279
376.517
359.746
343.02
326.281
309.592
292.835
276.117
259.381
242.671
225.944
209.212
192.474
175.769
159.047
142.407
125.66
108.995
92.241
75.5739
58.7706
42.0481
25.2094
8.4304
1204.19
1201.92
1201.11
1198.48
1185.67
1164.37
1143.36
1124.88
1108.74
1093.8
1079.21
1064.12
1048.56
1032.44
1016.06
999.416
982.705
965.881
949.054
932.159
915.266
898.354
881.48
864.567
847.643
830.723
813.856
796.99
780.147
763.277
746.399
729.514
712.637
695.75
678.877
662.005
645.155
628.288
611.449
594.609
577.803
560.973
544.179
527.381
510.617
493.833
477.064
460.297
443.556
426.798
410.07
393.279
376.517
359.746
343.02
326.281
309.592
292.835
276.117
259.381
242.671
225.944
209.212
192.474
175.768
159.047
142.408
125.66
108.995
92.2407
75.5742
58.7706
42.0485
25.2093
8.43036
1204.2
1201.91
1201.14
1198.54
1185.7
1164.32
1143.31
1124.83
1108.69
1093.76
1079.18
1064.09
1048.54
1032.43
1016.06
999.413
982.703
965.88
949.053
932.159
915.266
898.354
881.48
864.567
847.642
830.723
813.856
796.99
780.147
763.277
746.399
729.514
712.637
695.75
678.877
662.005
645.155
628.288
611.449
594.609
577.803
560.973
544.179
527.381
510.617
493.833
477.064
460.297
443.556
426.798
410.071
393.279
376.517
359.746
343.021
326.281
309.592
292.835
276.117
259.381
242.672
225.944
209.211
192.474
175.768
159.047
142.409
125.66
108.994
92.2404
75.5746
58.7707
42.0489
25.2092
8.43026
1204.22
1201.9
1201.17
1198.6
1185.71
1164.27
1143.25
1124.78
1108.65
1093.72
1079.15
1064.07
1048.53
1032.42
1016.05
999.41
982.701
965.879
949.053
932.159
915.266
898.354
881.48
864.567
847.642
830.723
813.856
796.99
780.147
763.277
746.399
729.513
712.637
695.75
678.876
662.005
645.155
628.288
611.449
594.609
577.803
560.973
544.179
527.381
510.617
493.833
477.064
460.297
443.557
426.798
410.071
393.278
376.516
359.746
343.021
326.282
309.592
292.834
276.117
259.381
242.672
225.944
209.211
192.473
175.768
159.047
142.41
125.66
108.994
92.2401
75.5749
58.7707
42.0492
25.2091
8.43023
1204.24
1201.9
1201.2
1198.67
1185.73
1164.23
1143.2
1124.73
1108.61
1093.69
1079.12
1064.05
1048.51
1032.41
1016.05
999.407
982.7
965.878
949.052
932.159
915.266
898.354
881.48
864.567
847.642
830.723
813.856
796.99
780.147
763.277
746.399
729.513
712.637
695.75
678.876
662.005
645.155
628.288
611.449
594.609
577.803
560.973
544.179
527.381
510.617
493.832
477.064
460.297
443.557
426.798
410.071
393.278
376.516
359.746
343.021
326.282
309.593
292.834
276.117
259.381
242.672
225.943
209.211
192.473
175.768
159.047
142.411
125.66
108.994
92.2399
75.5752
58.7707
42.0495
25.209
8.43013
1204.26
1201.89
1201.23
1198.73
1185.75
1164.19
1143.15
1124.69
1108.58
1093.66
1079.1
1064.04
1048.5
1032.4
1016.05
999.405
982.699
965.877
949.052
932.158
915.266
898.353
881.48
864.567
847.642
830.723
813.856
796.989
780.148
763.277
746.399
729.513
712.637
695.75
678.876
662.005
645.155
628.288
611.448
594.608
577.803
560.973
544.179
527.381
510.617
493.832
477.063
460.297
443.557
426.799
410.071
393.278
376.516
359.746
343.021
326.282
309.593
292.834
276.117
259.381
242.672
225.943
209.21
192.473
175.767
159.047
142.411
125.66
108.994
92.2397
75.5755
58.7707
42.0497
25.2089
8.4301
1204.28
1201.88
1201.25
1198.79
1185.76
1164.15
1143.11
1124.65
1108.55
1093.64
1079.09
1064.03
1048.5
1032.4
1016.04
999.403
982.698
965.877
949.052
932.158
915.266
898.353
881.48
864.567
847.642
830.723
813.856
796.989
780.148
763.277
746.399
729.513
712.637
695.75
678.876
662.005
645.155
628.288
611.448
594.608
577.803
560.973
544.179
527.381
510.617
493.832
477.063
460.297
443.557
426.799
410.071
393.278
376.516
359.746
343.021
326.282
309.593
292.834
276.116
259.381
242.673
225.943
209.21
192.473
175.767
159.047
142.412
125.66
108.994
92.2395
75.5757
58.7707
42.0499
25.2087
8.43001
1204.3
1201.87
1201.28
1198.84
1185.78
1164.12
1143.07
1124.62
1108.53
1093.62
1079.08
1064.02
1048.49
1032.39
1016.04
999.402
982.697
965.876
949.052
932.158
915.265
898.353
881.48
864.567
847.642
830.723
813.856
796.989
780.148
763.277
746.399
729.513
712.637
695.75
678.876
662.005
645.155
628.288
611.448
594.608
577.803
560.973
544.179
527.381
510.617
493.832
477.063
460.297
443.557
426.799
410.071
393.277
376.516
359.746
343.021
326.282
309.593
292.834
276.116
259.381
242.673
225.943
209.21
192.473
175.767
159.047
142.412
125.659
108.994
92.2393
75.5759
58.7707
42.05
25.2086
8.42999
1204.31
1201.87
1201.3
1198.88
1185.79
1164.09
1143.04
1124.59
1108.51
1093.61
1079.07
1064.02
1048.49
1032.39
1016.04
999.401
982.697
965.876
949.051
932.158
915.265
898.353
881.48
864.567
847.642
830.723
813.856
796.989
780.148
763.277
746.399
729.513
712.637
695.75
678.876
662.005
645.155
628.288
611.448
594.608
577.803
560.973
544.179
527.381
510.617
493.832
477.063
460.297
443.557
426.799
410.071
393.277
376.516
359.746
343.021
326.282
309.593
292.834
276.116
259.381
242.673
225.943
209.21
192.473
175.767
159.047
142.412
125.659
108.994
92.2391
75.576
58.7706
42.0501
25.2085
8.42992
1204.33
1201.86
1201.32
1198.92
1185.8
1164.06
1143.01
1124.57
1108.49
1093.6
1079.06
1064.01
1048.48
1032.39
1016.04
999.4
982.696
965.876
949.051
932.159
915.265
898.353
881.48
864.567
847.642
830.723
813.856
796.989
780.148
763.277
746.399
729.513
712.637
695.75
678.876
662.005
645.155
628.288
611.448
594.608
577.803
560.973
544.179
527.381
510.617
493.832
477.063
460.297
443.558
426.799
410.071
393.277
376.516
359.746
343.021
326.282
309.593
292.834
276.116
259.381
242.673
225.943
209.21
192.473
175.767
159.047
142.413
125.659
108.994
92.239
75.5761
58.7706
42.0501
25.2083
8.4299
1204.35
1201.85
1201.34
1198.95
1185.81
1164.03
1142.98
1124.55
1108.48
1093.59
1079.06
1064.01
1048.48
1032.39
1016.04
999.4
982.696
965.876
949.051
932.159
915.265
898.353
881.48
864.567
847.642
830.723
813.856
796.989
780.149
763.277
746.399
729.513
712.637
695.75
678.876
662.005
645.155
628.288
611.448
594.608
577.803
560.973
544.179
527.381
510.617
493.832
477.063
460.297
443.558
426.799
410.071
393.277
376.516
359.746
343.021
326.282
309.593
292.834
276.116
259.381
242.673
225.943
209.21
192.473
175.767
159.047
142.413
125.659
108.994
92.2389
75.5762
58.7705
42.0501
25.2082
8.42983
1204.36
1201.85
1201.36
1198.98
1185.81
1164
1142.96
1124.54
1108.47
1093.59
1079.05
1064.01
1048.48
1032.39
1016.04
999.399
982.696
965.876
949.051
932.159
915.265
898.353
881.48
864.567
847.642
830.723
813.856
796.988
780.149
763.277
746.399
729.513
712.637
695.75
678.876
662.005
645.155
628.288
611.448
594.608
577.803
560.973
544.18
527.381
510.617
493.832
477.063
460.297
443.558
426.799
410.071
393.277
376.516
359.746
343.021
326.282
309.593
292.834
276.116
259.381
242.673
225.943
209.21
192.473
175.767
159.047
142.413
125.659
108.994
92.2388
75.5762
58.7703
42.05
25.208
8.4298
1204.38
1201.84
1201.37
1198.99
1185.81
1163.98
1142.94
1124.53
1108.47
1093.59
1079.05
1064
1048.48
1032.39
1016.04
999.399
982.696
965.875
949.051
932.159
915.265
898.353
881.48
864.567
847.642
830.723
813.857
796.988
780.149
763.277
746.399
729.513
712.637
695.75
678.876
662.005
645.155
628.288
611.448
594.608
577.803
560.973
544.18
527.381
510.617
493.832
477.063
460.297
443.558
426.799
410.071
393.277
376.516
359.746
343.021
326.282
309.593
292.833
276.116
259.381
242.673
225.943
209.21
192.473
175.768
159.047
142.413
125.659
108.994
92.2387
75.5763
58.7702
42.05
25.2078
8.42973
1204.39
1201.83
1201.37
1199.01
1185.81
1163.96
1142.92
1124.52
1108.46
1093.58
1079.05
1064
1048.48
1032.39
1016.04
999.399
982.695
965.875
949.051
932.159
915.265
898.353
881.48
864.567
847.642
830.723
813.857
796.988
780.149
763.277
746.399
729.513
712.637
695.75
678.876
662.005
645.155
628.288
611.449
594.608
577.804
560.973
544.18
527.381
510.617
493.832
477.063
460.297
443.558
426.799
410.071
393.277
376.516
359.746
343.022
326.282
309.593
292.833
276.116
259.381
242.673
225.943
209.21
192.473
175.768
159.047
142.413
125.659
108.994
92.2386
75.5762
58.77
42.0498
25.2076
8.42969
1204.41
1201.83
1201.38
1199.01
1185.8
1163.93
1142.9
1124.51
1108.46
1093.58
1079.05
1064
1048.48
1032.39
1016.04
999.399
982.695
965.875
949.051
932.159
915.265
898.353
881.48
864.567
847.642
830.723
813.857
796.988
780.149
763.277
746.399
729.513
712.637
695.75
678.876
662.005
645.155
628.288
611.449
594.608
577.804
560.973
544.18
527.381
510.617
493.832
477.064
460.297
443.558
426.799
410.071
393.277
376.516
359.746
343.022
326.282
309.593
292.833
276.117
259.381
242.673
225.943
209.21
192.473
175.768
159.047
142.413
125.659
108.994
92.2385
75.5762
58.7699
42.0497
25.2074
8.42961
1204.42
1201.82
1201.38
1199.01
1185.78
1163.91
1142.89
1124.5
1108.46
1093.58
1079.05
1064
1048.48
1032.39
1016.04
999.398
982.695
965.875
949.051
932.159
915.265
898.353
881.48
864.568
847.642
830.723
813.857
796.988
780.149
763.277
746.399
729.513
712.637
695.75
678.877
662.005
645.155
628.288
611.449
594.608
577.804
560.973
544.18
527.381
510.618
493.832
477.064
460.297
443.558
426.798
410.071
393.277
376.516
359.746
343.022
326.282
309.593
292.833
276.117
259.381
242.673
225.943
209.21
192.473
175.768
159.048
142.413
125.659
108.994
92.2385
75.5761
58.7697
42.0495
25.2072
8.42956
1204.43
1201.82
1201.38
1199.01
1185.76
1163.89
1142.88
1124.5
1108.45
1093.58
1079.05
1064
1048.48
1032.39
1016.04
999.398
982.695
965.875
949.051
932.159
915.264
898.353
881.48
864.568
847.642
830.723
813.857
796.988
780.15
763.277
746.399
729.513
712.638
695.75
678.877
662.005
645.156
628.288
611.449
594.609
577.804
560.973
544.18
527.381
510.618
493.832
477.064
460.297
443.558
426.798
410.071
393.277
376.516
359.746
343.022
326.282
309.593
292.833
276.117
259.381
242.673
225.943
209.211
192.473
175.768
159.048
142.413
125.659
108.994
92.2384
75.576
58.7695
42.0493
25.207
8.42947
1204.44
1201.81
1201.38
1199
1185.74
1163.87
1142.87
1124.49
1108.45
1093.58
1079.05
1064
1048.48
1032.39
1016.04
999.398
982.695
965.875
949.051
932.159
915.264
898.353
881.48
864.568
847.642
830.723
813.857
796.987
780.15
763.277
746.399
729.513
712.638
695.75
678.877
662.005
645.156
628.288
611.449
594.609
577.804