/*--------------------------------*- C++ -*----------------------------------*\
  =========                 |
  \\      /  F ield         | OpenFOAM: The Open Source CFD Toolbox
   \\    /   O peration     | Website:  https://openfoam.org
    \\  /    A nd           | Version:  7
     \\/     M anipulation  |
\*---------------------------------------------------------------------------*/
FoamFile
{
    version     2.0;
    format      ascii;
    class       surfaceScalarField;
    location    "100";
    object      phi;
}
// * * * * * * * * * * * * * * * * * * * * * * * * * * * * * * * * * * * * * //

dimensions      [0 3 -1 0 0 0 0];

internalField   nonuniform List<scalar> 
8865
(
0.00452356
0.00168692
0.00416949
0.000354671
0.00421587
-4.567e-05
0.00430653
-9.01901e-05
0.00413033
0.000176147
0.00391537
0.000214872
0.00379777
0.000117376
0.00375106
4.63475e-05
0.00373813
1.32974e-05
0.00373937
-7.12134e-07
0.00374446
-5.00422e-06
0.00374928
-5.10112e-06
0.00375256
-3.76601e-06
0.00375441
-2.79232e-06
0.0037554
-9.9556e-07
0.00375578
-3.51926e-07
0.00375589
-4.28663e-07
0.00375588
-5.37528e-07
0.00375591
-6.05004e-07
0.00375602
-5.25477e-07
0.00375585
-1.30727e-08
0.00375576
9.07305e-08
0.0037557
3.87982e-08
0.00375573
1.83108e-08
0.00375564
6.86619e-08
0.00375562
2.52265e-08
0.00375564
2.48984e-08
0.00375548
-1.95408e-07
0.00375567
5.09235e-07
0.00375572
2.7181e-07
0.00375577
1.89314e-07
0.00375589
-9.77759e-08
0.00375614
5.00878e-07
0.00375637
1.60016e-07
0.00375662
1.44372e-07
0.003757
-4.43952e-07
0.00375753
4.61414e-07
0.00375799
1.63653e-08
0.0037585
-3.0991e-08
0.00375917
-8.02332e-07
0.00375984
3.40024e-07
0.00376047
-1.02743e-07
0.00376138
-6.09666e-07
0.00376255
-1.42888e-06
0.00376353
-8.21212e-07
0.00376387
2.54992e-07
0.00376381
2.54659e-07
0.00376395
-3.10749e-07
0.00376467
-1.02626e-06
0.00376547
-1.53721e-06
0.00376576
3.70571e-07
0.0037654
1.26828e-06
0.00376507
8.41172e-07
0.00376534
-1.60279e-07
0.00376633
-1.07593e-06
0.00376748
-1.74694e-06
0.00376807
-2.35027e-07
0.00376825
4.97249e-07
0.00376823
-7.53226e-08
0.00376858
9.98853e-08
0.00376924
-9.47967e-07
0.00376936
6.22768e-07
0.00376889
8.16972e-07
0.00376854
5.643e-07
0.00376846
-3.08069e-07
0.00376889
-8.02326e-07
0.00377014
-1.73501e-06
0.00377084
-1.13832e-06
0.00377096
-1.10982e-06
0.00377039
-4.1043e-07
0.00376956
-3.94352e-07
0.00376832
4.79277e-07
0.00376724
-1.60195e-07
0.00376621
-1.73149e-07
-7.51937e-07
0.00573518
0.00277605
0.00534983
0.00074043
0.00530801
-3.40337e-06
0.0051996
1.84435e-05
0.00483568
0.000540042
0.00455301
0.000497509
0.00441313
0.000257164
0.00435938
9.99459e-05
0.00434444
2.83848e-05
0.00434542
-1.49327e-06
0.00435038
-9.92478e-06
0.0043551
-9.93767e-06
0.00435815
-7.00522e-06
0.00435986
-4.86418e-06
0.00436066
-1.80659e-06
0.00436095
-6.27587e-07
0.00436096
-5.62413e-07
0.00436091
-6.97144e-07
0.00436086
-7.86431e-07
0.00436087
-8.54391e-07
0.00436076
1.74307e-07
0.0043607
1.41558e-07
0.00436062
1.18717e-07
0.00436057
1.01565e-08
0.00436055
1.75652e-07
0.00436057
1.66088e-08
0.00436059
6.68427e-09
0.00436055
-1.16114e-07
0.00436064
5.16174e-07
0.00436067
3.65143e-07
0.00436072
2.30616e-07
0.00436087
-2.41325e-07
0.00436117
4.94691e-07
0.00436145
2.68881e-08
0.00436176
-1.49715e-08
0.00436224
-9.48508e-07
0.00436289
2.01486e-07
0.00436346
-3.70737e-07
0.00436408
-4.73497e-07
0.00436492
-1.69161e-06
0.00436571
-6.71547e-08
0.00436651
-6.88282e-07
0.0043676
-1.59766e-06
0.00436905
-2.97288e-06
0.00437022
-1.92893e-06
0.00437061
8.90059e-08
0.00437053
4.04968e-07
0.00437073
-5.76553e-07
0.00437162
-2.02932e-06
0.00437259
-2.79226e-06
0.00437287
3.47254e-07
0.00437242
2.06264e-06
0.00437203
1.42402e-06
0.00437242
-4.99721e-07
0.00437364
-2.32983e-06
0.00437504
-3.38593e-06
0.00437569
-7.43457e-07
0.00437591
5.37962e-07
0.00437587
-6.99694e-08
0.00437632
-1.7904e-07
0.00437712
-1.85699e-06
0.00437723
7.94884e-07
0.00437663
1.545e-06
0.00437625
1.03104e-06
0.00437617
-3.78812e-07
0.00437675
-1.52582e-06
0.00437821
-3.38261e-06
0.00437906
-2.1495e-06
0.00437913
-1.56152e-06
0.00437845
-1.05073e-07
0.00437734
2.39067e-07
0.00437584
1.69651e-06
0.00437447
7.16436e-07
0.00437324
5.96396e-07
-7.91562e-07
0.00677343
0.00350155
0.00637335
0.00114085
0.00621327
0.000157035
0.00591548
0.000316348
0.00542433
0.00103119
0.005099
0.000822822
0.00494481
0.000411311
0.00488687
0.000157815
0.00487118
4.41449e-05
0.00487255
-2.75451e-06
0.00487786
-1.52149e-05
0.0048828
-1.49384e-05
0.00488588
-1.01819e-05
0.00488757
-6.74356e-06
0.00488832
-2.55396e-06
0.00488856
-8.63467e-07
0.00488852
-5.83911e-07
0.00488843
-7.21535e-07
0.00488837
-8.35504e-07
0.00488834
-8.05523e-07
0.00488824
1.38469e-07
0.00488817
2.17878e-07
0.00488808
1.95641e-07
0.00488801
1.43989e-07
0.00488799
1.28367e-07
0.00488802
-1.59998e-08
0.00488806
-1.53438e-08
0.00488803
-2.69507e-07
0.00488811
6.88577e-07
0.00488814
3.9682e-07
0.0048882
2.26554e-07
0.00488837
-4.14697e-07
0.00488871
3.14102e-07
0.00488903
-2.17519e-07
0.00488938
-2.89907e-07
0.00488993
-1.50882e-06
0.00489066
-3.25844e-07
0.00489131
-9.22738e-07
0.00489202
-1.08772e-06
0.00489298
-2.67292e-06
0.00489387
-7.55287e-07
0.00489477
-1.47947e-06
0.00489602
-2.78622e-06
0.00489766
-4.66716e-06
0.00489897
-3.20711e-06
0.0048994
-2.19499e-07
0.00489931
5.37416e-07
0.00489955
-8.51127e-07
0.00490056
-3.10105e-06
0.00490165
-4.0369e-06
0.00490193
2.01252e-07
0.00490142
2.7624e-06
0.00490099
1.95778e-06
0.00490145
-9.36618e-07
0.00490285
-3.74277e-06
0.00490444
-5.10305e-06
0.00490514
-1.36861e-06
0.00490538
4.3492e-07
0.00490533
-3.52686e-08
0.00490585
-6.11779e-07
0.00490676
-2.81748e-06
0.00490686
8.36783e-07
0.00490618
2.30001e-06
0.00490576
1.4938e-06
0.00490569
-3.82988e-07
0.00490636
-2.28209e-06
0.00490801
-5.12391e-06
0.00490895
-3.17804e-06
0.004909
-1.81505e-06
0.00490822
4.73301e-07
0.00490693
1.28321e-06
0.00490521
3.2499e-06
0.00490365
2.03317e-06
0.00490227
1.73673e-06
-3.38665e-07
0.00776939
0.00397244
0.00739479
0.00151581
0.00711219
0.00044
0.0066298
0.000798841
0.00603479
0.00162619
0.00567196
0.00118563
0.00550432
0.000578905
0.00544244
0.00021963
0.00542628
6.03715e-05
0.00542831
-4.69204e-06
0.00543427
-2.11519e-05
0.00543965
-2.03719e-05
0.00544292
-1.35496e-05
0.00544469
-8.69014e-06
0.00544544
-3.30923e-06
0.00544567
-1.08279e-06
0.0054456
-5.71524e-07
0.00544549
-7.19818e-07
0.00544541
-8.62797e-07
0.00544538
-9.65801e-07
0.00544526
3.28466e-07
0.00544518
2.88501e-07
0.00544509
2.99824e-07
0.005445
1.84957e-07
0.00544499
1.99338e-07
0.00544502
-4.48293e-08
0.00544506
-4.63053e-08
0.00544503
-1.8855e-07
0.00544512
6.12599e-07
0.00544515
4.17617e-07
0.00544521
2.07855e-07
0.00544541
-6.08816e-07
0.00544578
8.11082e-08
0.00544614
-5.03136e-07
0.00544654
-6.1323e-07
0.00544715
-2.13277e-06
0.00544796
-9.51811e-07
0.00544868
-1.55337e-06
0.00544947
-1.79241e-06
0.00545053
-3.76112e-06
0.00545152
-1.55799e-06
0.00545252
-2.3801e-06
0.00545391
-4.12428e-06
0.00545574
-6.54115e-06
0.00545719
-4.62349e-06
0.00545765
-5.74751e-07
0.00545754
6.78459e-07
0.00545781
-1.15451e-06
0.00545894
-4.28802e-06
0.00546015
-5.38391e-06
0.00546045
3.04412e-08
0.00545987
3.50993e-06
0.00545939
2.52097e-06
0.00545992
-1.44121e-06
0.00546148
-5.32105e-06
0.00546325
-6.98265e-06
0.00546401
-2.05799e-06
0.00546427
2.96683e-07
0.00546421
9.47077e-09
0.0054648
-1.12019e-06
0.0054658
-3.87457e-06
0.00546591
8.64357e-07
0.00546514
3.1316e-06
0.00546468
1.99054e-06
0.00546461
-3.76046e-07
0.00546537
-3.11487e-06
0.00546719
-7.03279e-06
0.00546822
-4.28498e-06
0.00546826
-2.03368e-06
0.00546738
1.17299e-06
0.00546593
2.50456e-06
0.00546402
5.01846e-06
0.00546229
3.53052e-06
0.00546076
3.04423e-06
2.47845e-08
0.00876161
0.00426573
0.00844468
0.00183305
0.00805156
0.000833453
0.00739116
0.00145932
0.00670142
0.00231591
0.00630131
0.00158574
0.00611956
0.000760622
0.00605349
0.000285653
0.00603698
7.69351e-05
0.00603995
-7.5934e-06
0.00604684
-2.80243e-05
0.00605289
-2.64606e-05
0.00605652
-1.72493e-05
0.00605847
-1.07712e-05
0.00605929
-4.12641e-06
0.00605953
-1.32081e-06
0.00605944
-5.29936e-07
0.00605932
-6.76913e-07
0.00605923
-8.52198e-07
0.00605919
-8.71499e-07
0.00605907
3.22236e-07
0.00605898
3.829e-07
0.00605887
3.99601e-07
0.00605877
3.40545e-07
0.00605876
1.49027e-07
0.0060588
-8.73964e-08
0.00605884
-7.66398e-08
0.00605881
-3.25518e-07
0.0060589
7.35487e-07
0.00605895
4.20853e-07
0.00605901
1.75854e-07
0.00605923
-8.26237e-07
0.00605964
-2.19485e-07
0.00606003
-8.40711e-07
0.00606047
-9.91538e-07
0.00606114
-2.81401e-06
0.00606203
-1.70012e-06
0.00606282
-2.2737e-06
0.00606369
-2.59323e-06
0.00606486
-4.94751e-06
0.00606594
-2.49574e-06
0.00606704
-3.40153e-06
0.00606856
-5.61217e-06
0.00607057
-8.58631e-06
0.00607216
-6.18229e-06
0.00607266
-9.88714e-07
0.00607253
8.30028e-07
0.00607283
-1.48125e-06
0.00607408
-5.5778e-06
0.00607541
-6.81779e-06
0.00607572
-1.8389e-07
0.00607507
4.28417e-06
0.00607456
3.10887e-06
0.00607515
-2.01213e-06
0.00607687
-7.05567e-06
0.00607881
-9.01101e-06
0.00607963
-2.82439e-06
0.00607991
1.08742e-07
0.00607984
6.81073e-08
0.0060805
-1.71206e-06
0.0060816
-5.0193e-06
0.00608171
8.58989e-07
0.00608087
4.03233e-06
0.00608036
2.5224e-06
0.00608028
-3.44367e-07
0.00608112
-4.01403e-06
0.00608312
-9.10177e-06
0.00608424
-5.46779e-06
0.00608427
-2.20249e-06
0.00608329
2.00519e-06
0.00608168
3.93719e-06
0.00607959
7.00061e-06
0.00607769
5.26518e-06
0.00607602
4.54071e-06
6.69945e-07
0.00977819
0.00443771
0.00953233
0.00207921
0.00905049
0.00131564
0.00822338
0.00228652
0.00744233
0.00309695
0.00700334
0.00202471
0.00680623
0.000957695
0.00673554
0.000356289
0.00671877
9.37561e-05
0.00672301
-1.17486e-05
0.00673118
-3.6181e-05
0.00673817
-3.34996e-05
0.00674235
-2.15071e-05
0.0067446
-1.3161e-05
0.00674555
-5.0794e-06
0.00674584
-1.60928e-06
0.00674576
-4.99488e-07
0.00674564
-6.39016e-07
0.00674554
-8.44914e-07
0.00674549
-1.00785e-06
0.00674536
5.40595e-07
0.00674526
4.70833e-07
0.00674515
5.24195e-07
0.00674504
3.9918e-07
0.00674503
2.21032e-07
0.00674507
-1.24123e-07
0.00674511
-1.14944e-07
0.00674509
-2.30546e-07
0.00674518
6.21808e-07
0.00674523
4.21925e-07
0.0067453
1.36866e-07
0.00674554
-1.06212e-06
0.00674599
-5.51019e-07
0.00674642
-1.20688e-06
0.00674689
-1.40421e-06
0.00674762
-3.55763e-06
0.00674859
-2.5186e-06
0.00674945
-3.05701e-06
0.00675039
-3.46677e-06
0.00675166
-6.23968e-06
0.00675284
-3.52022e-06
0.00675404
-4.51567e-06
0.0067557
-7.23908e-06
0.0067579
-1.08167e-05
0.00675962
-7.87914e-06
0.00676016
-1.43567e-06
0.00676001
9.99005e-07
0.00676034
-1.83513e-06
0.0067617
-6.98845e-06
0.00676315
-8.37804e-06
0.00676348
-4.17318e-07
0.00676278
5.12824e-06
0.00676221
3.74791e-06
0.00676286
-2.63637e-06
0.00676474
-8.9513e-06
0.00676685
-1.1219e-05
0.00676774
-3.65858e-06
0.00676805
-9.96277e-08
0.00676797
1.34433e-07
0.00676869
-2.36397e-06
0.0067699
-6.27111e-06
0.00677002
8.52872e-07
0.00676909
5.0192e-06
0.00676853
3.10614e-06
0.00676843
-2.96689e-07
0.00676934
-4.98846e-06
0.00677153
-1.13578e-05
0.00677274
-6.74918e-06
0.00677276
-2.37058e-06
0.00677169
2.92934e-06
0.00676994
5.50312e-06
0.00676766
9.16902e-06
0.00676559
7.13662e-06
0.00676378
6.16591e-06
1.18687e-06
0.0108418
0.00452983
0.0106637
0.00225757
0.0101193
0.00186029
0.0091438
0.00326209
0.00827257
0.00396818
0.00779221
0.00250507
0.00757809
0.00117178
0.00750221
0.000432127
0.0074853
0.000110712
0.00749119
-1.75701e-05
0.00750107
-4.60501e-05
0.00750936
-4.18227e-05
0.00751432
-2.65353e-05
0.00751701
-1.59674e-05
0.00751818
-6.24734e-06
0.00751857
-1.9985e-06
0.00751852
-4.88836e-07
0.0075184
-5.91608e-07
0.0075183
-8.19584e-07
0.00751825
-8.81172e-07
0.00751811
5.33624e-07
0.00751801
5.80359e-07
0.00751788
6.43611e-07
0.00751776
5.83799e-07
0.00751775
1.60362e-07
0.0075178
-1.73643e-07
0.00751784
-1.52372e-07
0.00751782
-3.84474e-07
0.00751792
7.43535e-07
0.00751797
4.14466e-07
0.00751805
9.0334e-08
0.00751831
-1.31945e-06
0.00751879
-9.32984e-07
0.00751925
-1.61497e-06
0.00751976
-1.86004e-06
0.00752055
-4.35712e-06
0.0075216
-3.43755e-06
0.00752253
-3.91786e-06
0.00752355
-4.42134e-06
0.00752492
-7.62844e-06
0.00752619
-4.65885e-06
0.00752748
-5.73807e-06
0.00752929
-9.00739e-06
0.00753166
-1.32233e-05
0.00753353
-9.72109e-06
0.0075341
-1.93275e-06
0.00753394
1.18674e-06
0.00753429
-2.20849e-06
0.00753577
-8.50531e-06
0.00753734
-1.00463e-05
0.0075377
-6.94796e-07
0.00753694
6.01448e-06
0.00753632
4.43227e-06
0.00753701
-3.3114e-06
0.00753904
-1.09975e-05
0.00754134
-1.35907e-05
0.0075423
-4.57807e-06
0.00754264
-3.49001e-07
0.00754255
2.13611e-07
0.00754333
-3.0866e-06
0.00754465
-7.61999e-06
0.00754477
8.20729e-07
0.00754376
6.08349e-06
0.00754315
3.74386e-06
0.00754301
-2.12748e-07
0.00754399
-6.02451e-06
0.00754637
-1.37902e-05
0.00754769
-8.12732e-06
0.0075477
-2.51631e-06
0.00754653
3.9621e-06
0.00754463
7.24668e-06
0.00754217
1.15259e-05
0.00753994
9.2127e-06
0.007538
7.94943e-06
1.97615e-06
0.0119743
0.00457057
0.0118514
0.00238069
0.0112684
0.00244352
0.0101683
0.00436234
0.00920726
0.00492916
0.00868246
0.00302986
0.00844937
0.00140483
0.00836761
0.000513838
0.00835069
0.000127687
0.00835871
-2.55188e-05
0.00837084
-5.81668e-05
0.00838085
-5.18713e-05
0.00838689
-3.2656e-05
0.0083902
-1.94136e-05
0.0083917
-7.7426e-06
0.00839224
-2.54229e-06
0.00839225
-5.44306e-07
0.00839216
-5.76091e-07
0.00839206
-8.13182e-07
0.00839202
-1.02108e-06
0.00839187
7.75338e-07
0.00839176
6.81401e-07
0.00839162
7.87572e-07
0.00839149
6.56952e-07
0.00839148
2.37774e-07
0.00839153
-2.16279e-07
0.00839158
-1.97458e-07
0.00839155
-2.77354e-07
0.00839167
6.00042e-07
0.00839172
4.03886e-07
0.0083918
3.92875e-08
0.00839208
-1.59272e-06
0.0083926
-1.34225e-06
0.00839309
-2.0478e-06
0.00839363
-2.34436e-06
0.00839448
-5.2148e-06
0.00839561
-4.42171e-06
0.0083966
-4.83692e-06
0.00839768
-5.44003e-06
0.00839915
-9.11626e-06
0.00840052
-5.88045e-06
0.00840191
-7.04914e-06
0.00840385
-1.09085e-05
0.0084064
-1.58127e-05
0.00840841
-1.17056e-05
0.00840903
-2.46616e-06
0.00840884
1.3976e-06
0.00840921
-2.60037e-06
0.00841079
-1.01377e-05
0.00841249
-1.18479e-05
0.00841289
-1.00648e-06
0.00841207
6.96659e-06
0.00841139
5.18073e-06
0.00841213
-4.02275e-06
0.0084143
-1.31924e-05
0.00841677
-1.61439e-05
0.00841783
-5.58205e-06
0.0084182
-6.24332e-07
0.0084181
3.01733e-07
0.00841894
-3.86363e-06
0.00842036
-9.0789e-06
0.0084205
7.78867e-07
0.00841941
7.23472e-06
0.00841873
4.45071e-06
0.00841855
-8.92755e-08
0.00841958
-7.1196e-06
0.00842215
-1.64146e-05
0.00842357
-9.61794e-06
0.00842359
-2.6713e-06
0.00842232
5.07908e-06
0.00842029
9.10889e-06
0.00841765
1.40538e-05
0.00841527
1.14093e-05
0.00841319
9.8505e-06
2.60592e-06
0.0131966
0.00457698
0.0131151
0.00246231
0.0125126
0.00304619
0.0113129
0.00556218
0.0102627
0.0059793
0.00969005
0.00360253
0.0094357
0.00165914
0.00934721
0.000602281
0.00933042
0.000144526
0.00934117
-3.61947e-05
0.00935619
-7.31831e-05
0.00936846
-6.41669e-05
0.00937595
-4.02158e-05
0.00938012
-2.36948e-05
0.00938207
-9.69451e-06
0.00938285
-3.31982e-06
0.00938295
-6.90549e-07
0.0093829
-5.88279e-07
0.00938282
-8.07122e-07
0.00938278
-8.88414e-07
0.00938263
7.64982e-07
0.00938251
8.01253e-07
0.00938237
9.25659e-07
0.00938223
8.66131e-07
0.00938222
1.72246e-07
0.00938227
-2.71157e-07
0.00938232
-2.41515e-07
0.00938229
-4.43333e-07
0.00938241
7.16324e-07
0.00938247
3.88244e-07
0.00938256
-1.61123e-08
0.00938286
-1.88429e-06
0.00938341
-1.79363e-06
0.00938393
-2.51585e-06
0.00938449
-2.86236e-06
0.00938539
-6.12181e-06
0.0093866
-5.49509e-06
0.00938765
-5.82446e-06
0.0093888
-6.5256e-06
0.00939035
-1.06901e-05
0.00939181
-7.2057e-06
0.0093933
-8.45905e-06
0.00939536
-1.29388e-05
0.00939809
-1.85715e-05
0.00940024
-1.38366e-05
0.0094009
-3.05048e-06
0.00940069
1.63451e-06
0.00940107
-3.00046e-06
0.00940275
-1.18677e-05
0.00940458
-1.37653e-05
0.00940504
-1.37785e-06
0.00940416
7.95749e-06
0.00940342
5.99067e-06
0.00940418
-4.76195e-06
0.00940649
-1.55188e-05
0.00940913
-1.88603e-05
0.00941028
-6.68843e-06
0.00941069
-9.44594e-07
0.00941058
4.03692e-07
0.00941147
-4.70128e-06
0.009413
-1.06367e-05
0.00941317
7.02727e-07
0.00941199
8.46367e-06
0.00941124
5.23194e-06
0.009411
9.78139e-08
0.00941207
-8.25569e-06
0.00941482
-1.92179e-05
0.00941637
-1.12216e-05
0.00941638
-2.81934e-06
0.00941503
6.2894e-06
0.00941286
1.11249e-05
0.00941007
1.67437e-05
0.00940754
1.37864e-05
0.00940534
1.18883e-05
3.50646e-06
0.0145269
0.00455849
0.0144762
0.00251317
0.0138701
0.0036525
0.0125948
0.00683761
0.011457
0.00711708
0.0108328
0.00422672
0.0105546
0.00193732
0.0104584
0.000698441
0.0104419
0.000161087
0.010456
-5.02728e-05
0.0104747
-9.18964e-05
0.0104899
-7.93733e-05
0.0104993
-4.96962e-05
0.0105046
-2.91337e-05
0.0105072
-1.2279e-05
0.0105083
-4.42115e-06
0.0105086
-9.92643e-07
0.0105086
-6.7648e-07
0.0105085
-8.43461e-07
0.0105085
-1.06023e-06
0.0105083
1.02278e-06
0.0105082
9.09156e-07
0.0105081
1.08741e-06
0.0105079
9.49614e-07
0.0105079
2.59835e-07
0.010508
-3.17806e-07
0.010508
-2.92652e-07
0.010508
-3.21125e-07
0.0105081
5.39462e-07
0.0105082
3.68084e-07
0.0105083
-7.31269e-08
0.0105086
-2.18722e-06
0.0105092
-2.26692e-06
0.0105097
-3.00217e-06
0.0105103
-3.39893e-06
0.0105112
-7.07685e-06
0.0105125
-6.62445e-06
0.0105136
-6.86045e-06
0.0105148
-7.65916e-06
0.0105165
-1.23463e-05
0.010518
-8.60504e-06
0.0105196
-9.94705e-06
0.0105218
-1.5085e-05
0.0105247
-2.14974e-05
0.010527
-1.61085e-05
0.0105277
-3.67491e-06
0.0105274
1.90187e-06
0.0105278
-3.40342e-06
0.0105296
-1.36971e-05
0.0105315
-1.58165e-05
0.010532
-1.8057e-06
0.0105311
9.00173e-06
0.0105303
6.87906e-06
0.0105311
-5.50905e-06
0.0105335
-1.79655e-05
0.0105363
-2.17479e-05
0.0105376
-7.8994e-06
0.010538
-1.29988e-06
0.0105379
5.161e-07
0.0105388
-5.58259e-06
0.0105405
-1.23019e-05
0.0105407
6.02408e-07
0.0105394
9.77531e-06
0.0105386
6.10372e-06
0.0105383
3.59997e-07
0.0105394
-9.42033e-06
0.0105423
-2.22069e-05
0.010544
-1.29512e-05
0.010544
-2.98828e-06
0.0105425
7.57014e-06
0.0105403
1.32347e-05
0.0105373
1.9574e-05
0.0105347
1.62559e-05
0.0105324
1.40219e-05
4.21555e-06
0.0159814
0.00452009
0.0159547
0.00253998
0.0153599
0.00424739
0.0140325
0.00816514
0.0128102
0.00833937
0.0121309
0.00490603
0.0118258
0.00224231
0.0117207
0.000803549
0.0117046
0.000177217
0.011723
-6.85756e-05
0.0117464
-0.000115254
0.0117652
-9.82726e-05
0.0117771
-6.16368e-05
0.0117839
-3.6053e-05
0.0117873
-1.57019e-05
0.0117889
-5.97038e-06
0.0117893
-1.50022e-06
0.0117894
-8.51472e-07
0.0117894
-9.07404e-07
0.0117894
-9.29494e-07
0.0117893
9.73281e-07
0.0117892
1.03066e-06
0.011789
1.24145e-06
0.0117888
1.19075e-06
0.0117888
1.81397e-07
0.0117889
-3.76041e-07
0.0117889
-3.42746e-07
0.0117889
-5.22159e-07
0.0117891
6.70696e-07
0.0117891
3.46956e-07
0.0117892
-1.31039e-07
0.0117895
-2.50315e-06
0.0117901
-2.77191e-06
0.0117907
-3.514e-06
0.0117913
-3.95497e-06
0.0117923
-8.06715e-06
0.0117936
-7.82665e-06
0.0117948
-7.94968e-06
0.011796
-8.8364e-06
0.0117977
-1.40652e-05
0.0117994
-1.00909e-05
0.011801
-1.15162e-05
0.0118033
-1.73351e-05
0.0118063
-2.45686e-05
0.0118088
-1.85194e-05
0.0118095
-4.35091e-06
0.0118092
2.20431e-06
0.0118096
-3.79482e-06
0.0118115
-1.56022e-05
0.0118135
-1.7982e-05
0.0118141
-2.31658e-06
0.0118132
1.00704e-05
0.0118123
7.84525e-06
0.0118131
-6.24791e-06
0.0118156
-2.05048e-05
0.0118185
-2.47817e-05
0.0118199
-9.23216e-06
0.0118204
-1.70814e-06
0.0118203
6.4347e-07
0.0118213
-6.50849e-06
0.011823
-1.40601e-05
0.0118232
4.53536e-07
0.0118219
1.11585e-05
0.011821
7.07394e-06
0.0118205
7.26552e-07
0.0118216
-1.0588e-05
0.0118247
-2.53619e-05
0.0118265
-1.48078e-05
0.0118266
-3.16713e-06
0.0118251
8.92208e-06
0.0118227
1.54624e-05
0.0118196
2.25206e-05
0.0118169
1.88678e-05
0.0118145
1.62579e-05
5.20648e-06
0.0175751
0.00446442
0.0175685
0.00254666
0.0170006
0.00481548
0.0156457
0.0095201
0.0143447
0.00964042
0.013607
0.00564371
0.0132719
0.00257732
0.0131564
0.00091903
0.0131408
0.000192822
0.0131643
-9.20025e-05
0.0131935
-0.000144376
0.013217
-0.000121822
0.013232
-7.67385e-05
0.0132407
-4.49186e-05
0.0132452
-2.02309e-05
0.0132474
-8.11064e-06
0.0132481
-2.30836e-06
0.0132484
-1.1748e-06
0.0132484
-1.05264e-06
0.0132485
-1.16718e-06
0.0132483
1.22568e-06
0.0132482
1.13455e-06
0.0132481
1.4164e-06
0.0132479
1.28089e-06
0.0132479
2.81279e-07
0.0132479
-4.23813e-07
0.013248
-3.98603e-07
0.013248
-3.87705e-07
0.0132481
4.60351e-07
0.0132482
3.18328e-07
0.0132483
-1.86583e-07
0.0132486
-2.82255e-06
0.0132492
-3.29012e-06
0.0132498
-4.03304e-06
0.0132504
-4.51343e-06
0.0132514
-9.08614e-06
0.0132528
-9.06728e-06
0.013254
-9.06884e-06
0.0132553
-1.0034e-05
0.013257
-1.58342e-05
0.0132587
-1.16316e-05
0.0132604
-1.31413e-05
0.0132628
-1.96676e-05
0.013266
-2.77711e-05
0.0132685
-2.1057e-05
0.0132693
-5.06834e-06
0.013269
2.54697e-06
0.0132694
-4.16424e-06
0.0132713
-1.75752e-05
0.0132735
-2.02711e-05
0.0132742
-2.91236e-06
0.0132732
1.11691e-05
0.0132722
8.90415e-06
0.0132729
-6.9516e-06
0.0132755
-2.31125e-05
0.0132786
-2.79566e-05
0.0132801
-1.06893e-05
0.0132807
-2.16331e-06
0.0132805
7.82428e-07
0.0132815
-7.45977e-06
0.0132834
-1.59141e-05
0.0132837
2.61967e-07
0.0132823
1.26129e-05
0.0132812
8.15981e-06
0.0132807
1.21706e-06
0.0132817
-1.1734e-05
0.013285
-2.86786e-05
0.0132869
-1.67999e-05
0.013287
-3.38224e-06
0.0132854
1.03208e-05
0.013283
1.77415e-05
0.0132798
2.55531e-05
0.013277
2.15214e-05
0.0132745
1.85493e-05
5.95303e-06
0.0193233
0.00439274
0.0193349
0.00253516
0.0188103
0.00534023
0.0174557
0.0108748
0.0160853
0.0110108
0.0152867
0.00644227
0.0149182
0.00294581
0.0147905
0.00104664
0.0147756
0.000207867
0.0148052
-0.000121575
0.0148414
-0.000180544
0.0148706
-0.000151121
0.0148896
-9.5786e-05
0.0149008
-5.62188e-05
0.0149067
-2.61753e-05
0.0149097
-1.10282e-05
0.0149108
-3.50172e-06
0.0149112
-1.67775e-06
0.0149114
-1.27e-06
0.0149114
-1.08461e-06
0.0149113
1.11394e-06
0.0149112
1.2434e-06
0.014911
1.57972e-06
0.0149109
1.5466e-06
0.0149109
1.94299e-07
0.0149109
-4.81866e-07
0.014911
-4.53084e-07
0.0149109
-6.21862e-07
0.0149111
6.00632e-07
0.0149112
2.91749e-07
0.0149113
-2.38685e-07
0.0149116
-3.14622e-06
0.0149123
-3.82622e-06
0.0149128
-4.56301e-06
0.0149135
-5.07029e-06
0.0149145
-1.01156e-05
0.0149159
-1.03552e-05
0.0149171
-1.0216e-05
0.0149184
-1.12391e-05
0.0149202
-1.76247e-05
0.0149219
-1.32295e-05
0.0149237
-1.48167e-05
0.0149261
-2.20593e-05
0.0149294
-3.10707e-05
0.0149321
-2.371e-05
0.0149329
-5.83439e-06
0.0149325
2.93678e-06
0.0149328
-4.49193e-06
0.0149348
-1.95836e-05
0.0149371
-2.2659e-05
0.0149379
-3.6202e-06
0.0149369
1.22646e-05
0.0149358
1.00554e-05
0.0149365
-7.59547e-06
0.0149391
-2.57472e-05
0.0149423
-3.12364e-05
0.014944
-1.22847e-05
0.0149446
-2.6827e-06
0.0149444
9.37137e-07
0.0149454
-8.43191e-06
0.0149473
-1.78438e-05
0.0149477
3.55849e-09
0.0149463
1.41243e-05
0.0149451
9.3707e-06
0.0149444
1.86694e-06
0.0149454
-1.28224e-05
0.0149488
-3.21267e-05
0.0149508
-1.89265e-05
0.0149509
-3.62694e-06
0.0149493
1.17584e-05
0.0149468
2.00834e-05
0.0149436
2.86297e-05
0.0149407
2.42536e-05
0.0149382
2.08882e-05
6.98043e-06
0.0212423
0.00430558
0.0212711
0.00250651
0.0208071
0.00580439
0.0194846
0.0121974
0.0180595
0.0124359
0.017199
0.00730273
0.0167934
0.00335131
0.0166516
0.00118838
0.0166371
0.00022247
0.0166739
-0.000158337
0.0167186
-0.000225197
0.0167549
-0.000187451
0.0167787
-0.000119738
0.016793
-7.05961e-05
0.0168007
-3.39169e-05
0.0168046
-1.49341e-05
0.0168063
-5.21615e-06
0.016807
-2.44239e-06
0.0168072
-1.62948e-06
0.0168074
-1.44598e-06
0.0168073
1.33105e-06
0.0168072
1.32491e-06
0.016807
1.75851e-06
0.0168069
1.63385e-06
0.0168068
3.10828e-07
0.0168069
-5.26446e-07
0.0168069
-5.11376e-07
0.0168069
-4.73415e-07
0.0168071
3.5072e-07
0.0168072
2.55135e-07
0.0168072
-2.83157e-07
0.0168076
-3.46172e-06
0.0168082
-4.36066e-06
0.0168088
-5.08223e-06
0.0168094
-5.60455e-06
0.0168104
-1.11424e-05
0.0168119
-1.16501e-05
0.0168131
-1.13612e-05
0.0168144
-1.24207e-05
0.0168161
-1.94129e-05
0.0168179
-1.48448e-05
0.0168197
-1.65081e-05
0.0168221
-2.44774e-05
0.0168255
-3.44378e-05
0.0168282
-2.64556e-05
0.0168291
-6.63522e-06
0.0168287
3.38062e-06
0.016829
-4.76115e-06
0.0168309
-2.16094e-05
0.0168333
-2.51454e-05
0.0168342
-4.44399e-06
0.0168333
1.33554e-05
0.0168321
1.13112e-05
0.0168327
-8.14416e-06
0.0168353
-2.83692e-05
0.0168385
-3.45999e-05
0.0168403
-1.40171e-05
0.016841
-3.26117e-06
0.0168408
1.10358e-06
0.0168419
-9.40109e-06
0.0168438
-1.98453e-05
0.0168443
-3.16515e-07
0.0168428
1.56875e-05
0.0168414
1.07243e-05
0.0168406
2.70275e-06
0.0168415
-1.3815e-05
0.016845
-3.56881e-05
0.0168472
-2.11899e-05
0.0168473
-3.92883e-06
0.0168457
1.32049e-05
0.0168432
2.24089e-05
0.01684
3.1705e-05
0.0168371
2.69435e-05
0.0168346
2.32135e-05
7.69872e-06
0.0233496
0.00420289
0.023395
0.00246114
0.0230093
0.00619022
0.0217558
0.013451
0.0202971
0.0138947
0.019376
0.00822383
0.01893
0.00379724
0.0187717
0.00134664
0.0187573
0.000236937
0.0188024
-0.000203359
0.0188571
-0.000279881
0.0189018
-0.000232211
0.0189316
-0.000149628
0.0189496
-8.87146e-05
0.0189596
-4.38795e-05
0.0189647
-2.00858e-05
0.018967
-7.57806e-06
0.018968
-3.52506e-06
0.0189684
-2.12811e-06
0.0189687
-1.46508e-06
0.0189686
1.10188e-06
0.0189685
1.39626e-06
0.0189684
1.91944e-06
0.0189682
1.92117e-06
0.0189682
2.10231e-07
0.0189682
-5.79866e-07
0.0189683
-5.68815e-07
0.0189682
-7.5714e-07
0.0189685
5.11104e-07
0.0189686
2.2642e-07
0.0189686
-3.18885e-07
0.0189689
-3.76887e-06
0.0189696
-4.89234e-06
0.0189702
-5.59001e-06
0.0189707
-6.10648e-06
0.0189717
-1.21414e-05
0.0189732
-1.29512e-05
0.0189744
-1.24937e-05
0.0189756
-1.35557e-05
0.0189773
-2.11583e-05
0.0189791
-1.64672e-05
0.0189809
-1.81977e-05
0.0189833
-2.68846e-05
0.0189867
-3.7822e-05
0.0189895
-2.92687e-05
0.0189904
-7.47066e-06
0.0189899
3.88854e-06
0.0189901
-4.94539e-06
0.018992
-2.36091e-05
0.0189945
-2.76965e-05
0.0189956
-5.40953e-06
0.0189947
1.44036e-05
0.0189934
1.26693e-05
0.0189938
-8.56418e-06
0.0189963
-3.09204e-05
0.0189996
-3.79941e-05
0.0190016
-1.58928e-05
0.0190023
-3.91404e-06
0.0190021
1.28548e-06
0.0190032
-1.03568e-05
0.0190052
-2.18913e-05
0.0190057
-7.20371e-07
0.0190042
1.7285e-05
0.0190027
1.22301e-05
0.0190016
3.76553e-06
0.0190023
-1.46633e-05
0.0190059
-3.93178e-05
0.0190082
-2.35831e-05
0.0190084
-4.28488e-06
0.0190068
1.46429e-05
0.0190043
2.47143e-05
0.0190012
3.47157e-05
0.0189983
2.96103e-05
0.0189959
2.54997e-05
8.69182e-06
0.025664
0.00408436
0.0257259
0.00239935
0.0254355
0.00648079
0.024293
0.0145937
0.0228304
0.0153573
0.0218535
0.00920069
0.0213643
0.00428638
0.0211868
0.00152405
0.0211719
0.000251871
0.0212263
-0.000257584
0.0212926
-0.000346189
0.0213472
-0.000286907
0.0213841
-0.000186617
0.0214066
-0.000111365
0.0214193
-5.65472e-05
0.021426
-2.67585e-05
0.0214291
-1.0764e-05
0.0214305
-5.02869e-06
0.0214311
-2.85684e-06
0.0214315
-2.02826e-06
0.0214314
1.23196e-06
0.0214314
1.42664e-06
0.0214312
2.08587e-06
0.0214311
1.9938e-06
0.0214311
3.43647e-07
0.0214311
-6.1589e-07
0.0214312
-6.26199e-07
0.0214311
-5.98613e-07
0.0214314
2.20243e-07
0.0214315
1.82808e-07
0.0214315
-3.40306e-07
0.0214318
-4.05193e-06
0.0214324
-5.40118e-06
0.021433
-6.06108e-06
0.0214335
-6.55021e-06
0.0214344
-1.30909e-05
0.0214359
-1.42107e-05
0.021437
-1.35749e-05
0.0214382
-1.46034e-05
0.0214398
-2.28231e-05
0.0214415
-1.80457e-05
0.0214433
-1.984e-05
0.0214457
-2.92328e-05
0.021449
-4.11745e-05
0.0214519
-3.211e-05
0.0214528
-8.32024e-06
0.0214522
4.4714e-06
0.0214523
-5.02129e-06
0.0214542
-2.55514e-05
0.0214567
-3.02992e-05
0.0214579
-6.51949e-06
0.021457
1.53991e-05
0.0214557
1.41373e-05
0.0214559
-8.81328e-06
0.0214583
-3.33426e-05
0.0214616
-4.13769e-05
0.0214637
-1.79003e-05
0.0214645
-4.63583e-06
0.0214643
1.47902e-06
0.0214653
-1.12714e-05
0.0214673
-2.39687e-05
0.0214679
-1.20177e-06
0.0214664
1.89068e-05
0.0214647
1.3904e-05
0.0214634
5.08826e-06
0.0214639
-1.53138e-05
0.0214675
-4.29795e-05
0.02147
-2.60979e-05
0.0214702
-4.72202e-06
0.0214686
1.60367e-05
0.0214662
2.69057e-05
0.0214632
3.75985e-05
0.0214605
3.21066e-05
0.0214581
2.76671e-05
9.29083e-06
0.0282064
0.00394933
0.0282845
0.00232128
0.0281045
0.00666094
0.0271199
0.0155785
0.0256934
0.0167838
0.024671
0.0102231
0.0241369
0.00482038
0.0239375
0.00172341
0.0239212
0.000268223
0.0239855
-0.000321754
0.0240649
-0.000425614
0.024131
-0.000353005
0.0241761
-0.000231832
0.0242039
-0.000139292
0.0242197
-7.24064e-05
0.0242282
-3.52539e-05
0.0242323
-1.49298e-05
0.0242343
-7.02922e-06
0.0242351
-3.81526e-06
0.0242356
-2.2374e-06
0.0242357
8.23629e-07
0.0242357
1.42631e-06
0.0242355
2.22398e-06
0.0242354
2.28891e-06
0.0242353
2.27577e-07
0.0242354
-6.59061e-07
0.0242354
-6.82587e-07
0.0242354
-9.37163e-07
0.0242356
4.00305e-07
0.0242357
1.52176e-07
0.0242358
-3.4664e-07
0.024236
-4.30976e-06
0.0242367
-5.88016e-06
0.0242372
-6.48961e-06
0.0242376
-6.91969e-06
0.0242384
-1.39574e-05
0.0242398
-1.54168e-05
0.0242409
-1.45831e-05
0.0242419
-1.55286e-05
0.0242434
-2.4352e-05
0.0242451
-1.95536e-05
0.0242468
-2.14013e-05
0.024249
-3.14677e-05
0.0242522
-4.44238e-05
0.0242551
-3.49359e-05
0.0242561
-9.1717e-06
0.0242554
5.14428e-06
0.0242553
-4.95412e-06
0.0242571
-2.738e-05
0.0242596
-3.29063e-05
0.024261
-7.79495e-06
0.0242602
1.62998e-05
0.0242587
1.57077e-05
0.0242588
-8.85044e-06
0.024261
-3.55597e-05
0.0242642
-4.4673e-05
0.0242664
-2.00322e-05
0.0242673
-5.43682e-06
0.0242671
1.68802e-06
0.024268
-1.21282e-05
0.02427
-2.60408e-05
0.0242707
-1.77787e-06
0.0242692
2.0532e-05
0.0242674
1.57532e-05
0.0242657
6.71566e-06
0.024266
-1.57037e-05
0.0242695
-4.66099e-05
0.0242721
-2.87155e-05
0.0242724
-5.23865e-06
0.0242709
1.73604e-05
0.0242687
2.89626e-05
0.0242658
4.02656e-05
0.0242633
3.44286e-05
0.0242611
2.96691e-05
1.01483e-05
0.0309993
0.00379702
0.0310935
0.0022272
0.0310354
0.00671916
0.0302594
0.0163546
0.0289215
0.0181216
0.0278712
0.0112734
0.027293
0.00539852
0.027069
0.00194738
0.0270499
0.000287378
0.0271244
-0.00039617
0.0272182
-0.000519367
0.0272969
-0.000431803
0.0273513
-0.000286327
0.0273851
-0.000173237
0.0274046
-9.19254e-05
0.0274152
-4.5846e-05
0.0274205
-2.026e-05
0.027423
-9.63519e-06