/*--------------------------------*- C++ -*----------------------------------*\
  =========                 |
  \\      /  F ield         | OpenFOAM: The Open Source CFD Toolbox
   \\    /   O peration     | Website:  https://openfoam.org
    \\  /    A nd           | Version:  7
     \\/     M anipulation  |
\*---------------------------------------------------------------------------*/
FoamFile
{
    version     2.0;
    format      ascii;
    class       volVectorField;
    location    "100";
    object      U;
}
// * * * * * * * * * * * * * * * * * * * * * * * * * * * * * * * * * * * * * //

dimensions      [0 1 -1 0 0 0 0];

internalField   nonuniform List<vector> 
4500
(
(15.409 -0.77827 0)
(13.706 -0.0619836 0)
(13.1658 -0.00498976 0)
(14.0191 -0.00113389 0)
(13.7194 0.00202389 0)
(12.8774 0.00277352 0)
(12.3435 0.00159435 0)
(12.1216 0.000681989 0)
(12.0433 0.000236962 0)
(12.0383 3.7225e-05 0)
(12.0516 -3.56956e-05 0)
(12.0704 -4.92161e-05 0)
(12.0827 -3.97519e-05 0)
(12.0911 -3.06574e-05 0)
(12.0949 -1.14437e-05 0)
(12.0972 -4.15598e-06 0)
(12.0975 -4.91325e-06 0)
(12.0978 -6.13338e-06 0)
(12.0976 -6.48225e-06 0)
(12.0976 -8.23618e-06 0)
(12.0974 2.36031e-06 0)
(12.0973 1.03086e-06 0)
(12.0972 8.29983e-07 0)
(12.097 1.90984e-07 0)
(12.0968 1.53978e-06 0)
(12.097 7.70079e-07 0)
(12.0969 1.57972e-07 0)
(12.0971 4.27484e-07 0)
(12.097 2.90457e-06 0)
(12.0973 3.14585e-06 0)
(12.0971 1.92697e-06 0)
(12.0975 -1.35703e-06 0)
(12.0979 5.16688e-06 0)
(12.099 1.52958e-06 0)
(12.0994 1.29163e-06 0)
(12.1006 -5.20839e-06 0)
(12.1019 4.55819e-06 0)
(12.104 -2.64547e-07 0)
(12.1049 -8.07031e-07 0)
(12.1072 -9.44639e-06 0)
(12.1093 3.17843e-06 0)
(12.1114 -1.59813e-06 0)
(12.1135 -7.30238e-06 0)
(12.1171 -1.67651e-05 0)
(12.1212 -1.01695e-05 0)
(12.1234 2.18986e-06 0)
(12.1234 2.57391e-06 0)
(12.123 -3.65723e-06 0)
(12.1243 -1.18139e-05 0)
(12.1275 -1.79066e-05 0)
(12.1296 3.63466e-06 0)
(12.1292 1.42578e-05 0)
(12.1274 9.69669e-06 0)
(12.127 -1.80788e-06 0)
(12.1293 -1.25681e-05 0)
(12.1333 -2.06073e-05 0)
(12.1368 -3.50817e-06 0)
(12.1369 5.13763e-06 0)
(12.1381 -1.04113e-06 0)
(12.1366 8.98717e-07 0)
(12.1405 -1.09964e-05 0)
(12.1409 6.22041e-06 0)
(12.1412 8.90792e-06 0)
(12.1377 6.17876e-06 0)
(12.139 -3.64436e-06 0)
(12.1371 -9.30791e-06 0)
(12.1421 -1.97982e-05 0)
(12.1448 -1.35754e-05 0)
(12.1469 -1.27011e-05 0)
(12.1453 -4.29573e-06 0)
(12.1436 -3.1697e-06 0)
(12.1396 6.83124e-06 0)
(12.1359 1.62142e-08 0)
(12.1324 -6.52934e-07 0)
(12.1295 -8.25284e-06 0)
(17.5918 0.163086 0)
(16.0136 0.0234753 0)
(15.3536 0.000773944 0)
(15.7719 -0.00133651 0)
(14.7054 0.00421101 0)
(13.6378 0.00453929 0)
(13.0513 0.0024374 0)
(12.8184 0.000964539 0)
(12.7365 0.000276418 0)
(12.7307 -1.54763e-05 0)
(12.7423 -0.000101897 0)
(12.7596 -0.000103011 0)
(12.7701 -7.41469e-05 0)
(12.7773 -5.19435e-05 0)
(12.7801 -2.04421e-05 0)
(12.7819 -7.82386e-06 0)
(12.7819 -6.89293e-06 0)
(12.7819 -7.93463e-06 0)
(12.7816 -8.24066e-06 0)
(12.7816 -1.04437e-05 0)
(12.7813 3.29095e-06 0)
(12.7812 1.36297e-06 0)
(12.7811 1.29589e-06 0)
(12.7808 6.42879e-07 0)
(12.7806 1.81747e-06 0)
(12.7808 8.0592e-07 0)
(12.7808 1.32322e-07 0)
(12.781 4.91567e-07 0)
(12.7809 3.63422e-06 0)
(12.7812 3.94168e-06 0)
(12.781 2.30033e-06 0)
(12.7815 -2.39918e-06 0)
(12.7819 5.57843e-06 0)
(12.7832 8.36346e-07 0)
(12.7836 5.04883e-07 0)
(12.785 -8.67776e-06 0)
(12.7864 3.44106e-06 0)
(12.7887 -2.55833e-06 0)
(12.7898 -3.39056e-06 0)
(12.7924 -1.55267e-05 0)
(12.7947 1.15314e-06 0)
(12.797 -5.24331e-06 0)
(12.7994 -1.39203e-05 0)
(12.8034 -2.76141e-05 0)
(12.8079 -1.75959e-05 0)
(12.8103 1.73786e-06 0)
(12.8102 4.08739e-06 0)
(12.8098 -5.44316e-06 0)
(12.8114 -1.90292e-05 0)
(12.8149 -2.72169e-05 0)
(12.8171 3.71329e-06 0)
(12.8165 2.0301e-05 0)
(12.8145 1.41587e-05 0)
(12.8142 -4.0602e-06 0)
(12.8168 -2.13396e-05 0)
(12.8213 -3.24068e-05 0)
(12.8251 -6.9049e-06 0)
(12.825 5.82889e-06 0)
(12.8265 -1.04668e-06 0)
(12.8247 -8.40114e-07 0)
(12.8291 -1.77304e-05 0)
(12.8294 7.92701e-06 0)
(12.8298 1.43532e-05 0)
(12.8259 9.83956e-06 0)
(12.8276 -4.01644e-06 0)
(12.8254 -1.45321e-05 0)
(12.831 -3.21532e-05 0)
(12.8339 -2.10752e-05 0)
(12.8361 -1.64605e-05 0)
(12.8342 -2.90964e-06 0)
(12.8322 -2.03326e-07 0)
(12.8276 1.39203e-05 0)
(12.8235 4.47038e-06 0)
(12.8195 3.27696e-06 0)
(12.8163 -9.59188e-06 0)
(18.7492 0.0973857 0)
(17.3709 0.0149662 0)
(16.6334 0.000747824 0)
(16.5166 0.00104877 0)
(15.0375 0.00895041 0)
(13.8964 0.00769385 0)
(13.3037 0.00392133 0)
(13.0742 0.00151915 0)
(12.9947 0.000428387 0)
(12.9905 -2.57612e-05 0)
(13.002 -0.000150837 0)
(13.0187 -0.000149501 0)
(13.0284 -0.000103734 0)
(13.0351 -6.9822e-05 0)
(13.0375 -2.70694e-05 0)
(13.039 -9.67508e-06 0)
(13.0388 -7.20065e-06 0)
(13.0388 -8.57539e-06 0)
(13.0384 -9.26256e-06 0)
(13.0383 -1.1949e-05 0)
(13.0381 4.37619e-06 0)
(13.0379 2.09809e-06 0)
(13.0378 2.13711e-06 0)
(13.0375 1.32937e-06 0)
(13.0373 2.14356e-06 0)
(13.0375 6.55214e-07 0)
(13.0375 1.55858e-08 0)
(13.0377 4.67603e-07 0)
(13.0375 4.16074e-06 0)
(13.0379 4.43511e-06 0)
(13.0377 2.37311e-06 0)
(13.0382 -4.10217e-06 0)
(13.0386 4.41353e-06 0)
(13.04 -1.2338e-06 0)
(13.0404 -1.87077e-06 0)
(13.0419 -1.41919e-05 0)
(13.0433 -8.63017e-07 0)
(13.0457 -7.52982e-06 0)
(13.0468 -8.98667e-06 0)
(13.0495 -2.51738e-05 0)
(13.0519 -4.68492e-06 0)
(13.0543 -1.24653e-05 0)
(13.0567 -2.52242e-05 0)
(13.0609 -4.42464e-05 0)
(13.0655 -2.98156e-05 0)
(13.0679 -7.20078e-07 0)
(13.0678 5.50179e-06 0)
(13.0674 -8.27406e-06 0)
(13.0691 -2.97042e-05 0)
(13.0728 -3.98554e-05 0)
(13.0749 2.91124e-06 0)
(13.0742 2.78899e-05 0)
(13.0722 1.97022e-05 0)
(13.0719 -8.25715e-06 0)
(13.0747 -3.51695e-05 0)
(13.0793 -4.95406e-05 0)
(13.0832 -1.25992e-05 0)
(13.083 5.45698e-06 0)
(13.0845 -8.23816e-07 0)
(13.0827 -4.64186e-06 0)
(13.0873 -2.72899e-05 0)
(13.0875 9.03389e-06 0)
(13.0879 2.19645e-05 0)
(13.0839 1.44588e-05 0)
(13.0857 -4.5081e-06 0)
(13.0835 -2.22173e-05 0)
(13.0893 -4.94904e-05 0)
(13.0922 -3.13432e-05 0)
(13.0944 -1.97853e-05 0)
(13.0924 1.92477e-06 0)
(13.0903 8.81878e-06 0)
(13.0855 2.84146e-05 0)
(13.0812 1.61303e-05 0)
(13.0771 1.33925e-05 0)
(13.0738 -6.93874e-06 0)
(19.3801 0.0462126 0)
(18.3246 0.0140295 0)
(17.5791 0.00296228 0)
(16.9504 0.00562332 0)
(15.2324 0.015175 0)
(14.0618 0.0115803 0)
(13.4722 0.00572705 0)
(13.2482 0.00218869 0)
(13.1719 0.000607631 0)
(13.1697 -4.25802e-05 0)
(13.1818 -0.000211839 0)
(13.1986 -0.000206057 0)
(13.208 -0.000138841 0)
(13.2144 -9.01886e-05 0)
(13.2166 -3.48028e-05 0)
(13.218 -1.18106e-05 0)
(13.2177 -7.02764e-06 0)
(13.2176 -8.625e-06 0)
(13.2172 -9.71883e-06 0)
(13.2172 -1.30583e-05 0)
(13.2169 5.75952e-06 0)
(13.2168 3.00354e-06 0)
(13.2166 3.21791e-06 0)
(13.2163 2.31469e-06 0)
(13.2161 2.38043e-06 0)
(13.2163 3.96967e-07 0)
(13.2163 -1.93572e-07 0)
(13.2165 6.17449e-07 0)
(13.2163 4.18452e-06 0)
(13.2167 4.66452e-06 0)
(13.2165 2.18677e-06 0)
(13.217 -6.23849e-06 0)
(13.2175 2.05032e-06 0)
(13.2188 -4.25355e-06 0)
(13.2192 -5.29096e-06 0)
(13.2207 -2.0929e-05 0)
(13.2222 -7.41654e-06 0)
(13.2246 -1.42407e-05 0)
(13.2257 -1.64881e-05 0)
(13.2285 -3.69214e-05 0)
(13.2308 -1.31266e-05 0)
(13.2333 -2.20511e-05 0)
(13.2357 -3.95537e-05 0)
(13.24 -6.44667e-05 0)
(13.2446 -4.50365e-05 0)
(13.247 -4.42827e-06 0)
(13.2469 7.04413e-06 0)
(13.2465 -1.15936e-05 0)
(13.2482 -4.25345e-05 0)
(13.2519 -5.45065e-05 0)
(13.2541 1.21139e-06 0)
(13.2533 3.61371e-05 0)
(13.2513 2.58714e-05 0)
(13.251 -1.36745e-05 0)
(13.2539 -5.21778e-05 0)
(13.2586 -6.99153e-05 0)
(13.2625 -1.99482e-05 0)
(13.2622 4.13467e-06 0)
(13.2638 -3.80766e-07 0)
(13.2619 -9.99254e-06 0)
(13.2666 -3.87188e-05 0)
(13.2668 9.50118e-06 0)
(13.2671 3.09677e-05 0)
(13.2631 1.98253e-05 0)
(13.2649 -4.59989e-06 0)
(13.2627 -3.12984e-05 0)
(13.2687 -7.01738e-05 0)
(13.2715 -4.33782e-05 0)
(13.2737 -2.24225e-05 0)
(13.2716 9.20025e-06 0)
(13.2694 2.16913e-05 0)
(13.2646 4.72677e-05 0)
(13.2602 3.21131e-05 0)
(13.2561 2.72993e-05 0)
(13.2528 -2.50334e-06 0)
(19.6978 0.0456453 0)
(18.9977 0.0188742 0)
(18.3143 0.0069639 0)
(17.2575 0.0123329 0)
(15.393 0.0226238 0)
(14.2103 0.0159873 0)
(13.6264 0.00774125 0)
(13.4076 0.00292512 0)
(13.3346 0.000796858 0)
(13.3346 -6.97151e-05 0)
(13.3478 -0.000284521 0)
(13.365 -0.000271353 0)
(13.3745 -0.000178658 0)
(13.381 -0.00011274 0)
(13.3832 -4.34904e-05 0)
(13.3846 -1.42288e-05 0)
(13.3842 -6.57922e-06 0)
(13.3842 -8.30334e-06 0)
(13.3837 -9.81665e-06 0)
(13.3837 -1.38027e-05 0)
(13.3834 7.24513e-06 0)
(13.3833 4.03109e-06 0)
(13.3831 4.45454e-06 0)
(13.3828 3.4816e-06 0)
(13.3826 2.56307e-06 0)
(13.3828 5.57084e-08 0)
(13.3828 -4.64112e-07 0)
(13.383 7.60756e-07 0)
(13.3828 4.00284e-06 0)
(13.3832 4.72416e-06 0)
(13.383 1.8339e-06 0)
(13.3835 -8.67158e-06 0)
(13.384 -1.09865e-06 0)
(13.3853 -7.8993e-06 0)
(13.3857 -9.39915e-06 0)
(13.3872 -2.85038e-05 0)
(13.3887 -1.54507e-05 0)
(13.3912 -2.21029e-05 0)
(13.3922 -2.52536e-05 0)
(13.395 -5.01028e-05 0)
(13.3973 -2.32655e-05 0)
(13.3997 -3.3218e-05 0)
(13.4022 -5.59473e-05 0)
(13.4065 -8.71618e-05 0)
(13.4111 -6.226e-05 0)
(13.4135 -8.89101e-06 0)
(13.4133 8.72523e-06 0)
(13.4129 -1.52633e-05 0)
(13.4147 -5.68856e-05 0)
(13.4184 -7.05663e-05 0)
(13.4205 -1.01335e-06 0)
(13.4198 4.49225e-05 0)
(13.4177 3.24882e-05 0)
(13.4175 -1.99606e-05 0)
(13.4203 -7.14016e-05 0)
(13.4251 -9.25313e-05 0)
(13.4289 -2.83579e-05 0)
(13.4287 2.22163e-06 0)
(13.4302 2.16068e-07 0)
(13.4283 -1.64105e-05 0)
(13.4331 -5.146e-05 0)
(13.4332 9.61267e-06 0)
(13.4336 4.09824e-05 0)
(13.4295 2.5725e-05 0)
(13.4314 -4.41793e-06 0)
(13.4291 -4.13649e-05 0)
(13.4351 -9.32004e-05 0)
(13.4379 -5.65987e-05 0)
(13.4401 -2.45884e-05 0)
(13.438 1.81447e-05 0)
(13.4358 3.71672e-05 0)
(13.4309 6.90446e-05 0)
(13.4266 5.09577e-05 0)
(13.4224 4.36518e-05 0)
(13.4192 3.43178e-06 0)
(19.8536 0.0504208 0)
(19.4473 0.0228487 0)
(18.8805 0.0120859 0)
(17.5062 0.0210538 0)
(15.552 0.0311457 0)
(14.3661 0.0208366 0)
(13.7882 0.00992783 0)
(13.5738 0.00371352 0)
(13.504 0.000989773 0)
(13.5064 -0.000109802 0)
(13.5211 -0.000370365 0)
(13.5392 -0.000346281 0)
(13.5492 -0.000223908 0)
(13.5559 -0.000138067 0)
(13.5583 -5.34351e-05 0)
(13.5597 -1.71111e-05 0)
(13.5595 -6.07144e-06 0)
(13.5594 -7.80264e-06 0)
(13.559 -9.73176e-06 0)
(13.559 -1.443e-05 0)
(13.5587 8.89456e-06 0)
(13.5585 5.15159e-06 0)
(13.5584 5.81247e-06 0)
(13.558 4.79264e-06 0)
(13.5579 2.70824e-06 0)
(13.5581 -3.42214e-07 0)
(13.5581 -7.86435e-07 0)
(13.5582 9.76318e-07 0)
(13.5581 3.61463e-06 0)
(13.5585 4.68471e-06 0)
(13.5582 1.37533e-06 0)
(13.5588 -1.13415e-05 0)
(13.5592 -4.79513e-06 0)
(13.5606 -1.19988e-05 0)
(13.5609 -1.40108e-05 0)
(13.5625 -3.67706e-05 0)
(13.5639 -2.4568e-05 0)
(13.5663 -3.08339e-05 0)
(13.5673 -3.49799e-05 0)
(13.5701 -6.44653e-05 0)
(13.5725 -3.46592e-05 0)
(13.5748 -4.56041e-05 0)
(13.5773 -7.40024e-05 0)
(13.5815 -0.000111924 0)
(13.5861 -8.11059e-05 0)
(13.5885 -1.38739e-05 0)
(13.5883 1.05704e-05 0)
(13.5879 -1.92243e-05 0)
(13.5896 -7.25352e-05 0)
(13.5933 -8.78837e-05 0)
(13.5954 -3.59674e-06 0)
(13.5947 5.4281e-05 0)
(13.5926 3.95576e-05 0)
(13.5924 -2.69265e-05 0)
(13.5952 -9.24568e-05 0)
(13.5999 -0.000117062 0)
(13.6037 -3.76098e-05 0)
(13.6035 -8.82874e-08 0)
(13.605 9.31269e-07 0)
(13.6031 -2.3647e-05 0)
(13.6079 -6.53382e-05 0)
(13.608 9.53446e-06 0)
(13.6084 5.18955e-05 0)
(13.6043 3.21357e-05 0)
(13.6061 -3.99979e-06 0)
(13.6038 -5.22497e-05 0)
(13.6098 -0.000118244 0)
(13.6126 -7.0845e-05 0)
(13.6147 -2.64886e-05 0)
(13.6126 2.83625e-05 0)
(13.6105 5.45984e-05 0)
(13.6056 9.31136e-05 0)
(13.6013 7.19171e-05 0)
(13.5972 6.18105e-05 0)
(13.5941 1.01219e-05 0)
(19.9337 0.052144 0)
(19.7225 0.0252328 0)
(19.2956 0.0180739 0)
(17.7272 0.031592 0)
(15.7237 0.0407048 0)
(14.5396 0.0261433 0)
(13.9672 0.0122989 0)
(13.7565 0.00455784 0)
(13.6897 0.00118489 0)
(13.6946 -0.000166575 0)
(13.7113 -0.000473339 0)
(13.7307 -0.000433993 0)
(13.7416 -0.000276771 0)
(13.7488 -0.000167556 0)
(13.7514 -6.53971e-05 0)
(13.7531 -2.08643e-05 0)
(13.7529 -5.74567e-06 0)
(13.7529 -7.27313e-06 0)
(13.7525 -9.56669e-06 0)
(13.7525 -1.49511e-05 0)
(13.7522 1.06208e-05 0)
(13.752 6.35702e-06 0)
(13.7519 7.28337e-06 0)
(13.7516 6.21322e-06 0)
(13.7514 2.8467e-06 0)
(13.7516 -7.9189e-07 0)
(13.7516 -1.15283e-06 0)
(13.7517 1.17955e-06 0)
(13.7516 3.13488e-06 0)
(13.752 4.57739e-06 0)
(13.7518 8.40385e-07 0)
(13.7523 -1.42335e-05 0)
(13.7527 -8.9587e-06 0)
(13.7541 -1.64999e-05 0)
(13.7544 -1.90634e-05 0)
(13.7559 -4.57094e-05 0)
(13.7573 -3.46574e-05 0)
(13.7597 -4.03654e-05 0)
(13.7607 -4.55813e-05 0)
(13.7634 -7.99804e-05 0)
(13.7657 -4.71959e-05 0)
(13.7681 -5.9135e-05 0)
(13.7705 -9.36554e-05 0)
(13.7747 -0.000138746 0)
(13.7792 -0.000101565 0)
(13.7815 -1.93297e-05 0)
(13.7813 1.26222e-05 0)
(13.7809 -2.34514e-05 0)
(13.7826 -8.94793e-05 0)
(13.7863 -0.000106539 0)
(13.7883 -6.54044e-06 0)
(13.7876 6.42779e-05 0)
(13.7856 4.71765e-05 0)
(13.7853 -3.4486e-05 0)
(13.7881 -0.000115288 0)
(13.7927 -0.000143551 0)
(13.7965 -4.7735e-05 0)
(13.7963 -2.74887e-06 0)
(13.7978 1.76305e-06 0)
(13.7959 -3.16314e-05 0)
(13.8006 -8.03796e-05 0)
(13.8007 9.30088e-06 0)
(13.8011 6.37402e-05 0)
(13.797 3.91484e-05 0)
(13.7989 -3.28439e-06 0)
(13.7965 -6.39163e-05 0)
(13.8024 -0.000145358 0)
(13.8052 -8.62048e-05 0)
(13.8073 -2.82579e-05 0)
(13.8052 3.97219e-05 0)
(13.803 7.38037e-05 0)
(13.7982 0.000119318 0)
(13.7941 9.48209e-05 0)
(13.7901 8.15987e-05 0)
(13.787 1.76843e-05 0)
(19.9784 0.0526882 0)
(19.8802 0.026846 0)
(19.5812 0.0247078 0)
(17.9363 0.043695 0)
(15.9153 0.0512979 0)
(14.7367 0.0319436 0)
(14.169 0.014877 0)
(13.9608 0.00546598 0)
(13.8968 0.00138102 0)
(13.9045 -0.000245025 0)
(13.9236 -0.000598966 0)
(13.9448 -0.000538928 0)
(13.9569 -0.000340293 0)
(13.9649 -0.000203093 0)
(13.968 -8.04543e-05 0)
(13.9698 -2.60718e-05 0)
(13.9698 -5.90893e-06 0)
(13.9698 -6.87134e-06 0)
(13.9695 -9.40823e-06 0)
(13.9695 -1.54608e-05 0)
(13.9693 1.24478e-05 0)
(13.9691 7.63901e-06 0)
(13.9689 8.86707e-06 0)
(13.9686 7.75759e-06 0)
(13.9685 2.97182e-06 0)
(13.9686 -1.28591e-06 0)
(13.9686 -1.56062e-06 0)
(13.9688 1.41502e-06 0)
(13.9686 2.52102e-06 0)
(13.9691 4.4072e-06 0)
(13.9688 2.41843e-07 0)
(13.9693 -1.73377e-05 0)
(13.9697 -1.35645e-05 0)
(13.9711 -2.13814e-05 0)
(13.9714 -2.45255e-05 0)
(13.9728 -5.53064e-05 0)
(13.9742 -4.56929e-05 0)
(13.9766 -5.06755e-05 0)
(13.9775 -5.70161e-05 0)
(13.9802 -9.66268e-05 0)
(13.9824 -6.08591e-05 0)
(13.9847 -7.37965e-05 0)
(13.9871 -0.000114889 0)
(13.9912 -0.000167644 0)
(13.9956 -0.000123683 0)
(13.9979 -2.52771e-05 0)
(13.9976 1.49162e-05 0)
(13.9972 -2.79005e-05 0)
(13.9989 -0.000107708 0)
(14.0025 -0.000126594 0)
(14.0045 -9.92712e-06 0)
(14.0038 7.49091e-05 0)
(14.0018 5.54302e-05 0)
(14.0015 -4.25487e-05 0)
(14.0043 -0.00013985 0)
(14.0088 -0.000172039 0)
(14.0125 -5.88355e-05 0)
(14.0123 -5.78768e-06 0)
(14.0137 2.71876e-06 0)
(14.0119 -4.03343e-05 0)
(14.0165 -9.66194e-05 0)
(14.0167 8.8693e-06 0)
(14.017 7.65365e-05 0)
(14.013 4.68706e-05 0)
(14.0148 -2.13994e-06 0)
(14.0124 -7.62864e-05 0)
(14.0182 -0.000174605 0)
(14.0209 -0.000102775 0)
(14.023 -2.99621e-05 0)
(14.0209 5.21836e-05 0)
(14.0188 9.4706e-05 0)
(14.0141 0.000147591 0)
(14.0101 0.000119587 0)
(14.0062 0.000102967 0)
(14.0032 2.58669e-05 0)
(20.0055 0.052857 0)
(19.9699 0.0279818 0)
(19.7692 0.031695 0)
(18.1425 0.0570829 0)
(16.1308 0.0629226 0)
(14.9606 0.0382767 0)
(14.3968 0.0176873 0)
(14.1902 0.0064469 0)
(14.1287 0.00157662 0)
(14.1393 -0.000351282 0)
(14.1613 -0.000754087 0)
(14.1848 -0.000666618 0)
(14.1985 -0.000418305 0)
(14.2074 -0.000247066 0)
(14.2111 -9.99879e-05 0)
(14.2133 -3.34921e-05 0)
(14.2135 -6.9623e-06 0)
(14.2136 -6.80241e-06 0)
(14.2133 -9.36233e-06 0)
(14.2134 -1.59941e-05 0)
(14.2131 1.43198e-05 0)
(14.213 8.98514e-06 0)
(14.2128 1.0561e-05 0)
(14.2125 9.42375e-06 0)
(14.2124 3.08779e-06 0)
(14.2125 -1.81934e-06 0)
(14.2125 -2.00564e-06 0)
(14.2127 1.64796e-06 0)
(14.2126 1.80835e-06 0)
(14.213 4.1824e-06 0)
(14.2127 -4.04088e-07 0)
(14.2132 -2.06367e-05 0)
(14.2136 -1.85755e-05 0)
(14.2149 -2.66102e-05 0)
(14.2152 -3.03487e-05 0)
(14.2166 -6.55257e-05 0)
(14.2179 -5.76236e-05 0)
(14.2202 -6.17199e-05 0)
(14.2211 -6.92111e-05 0)
(14.2237 -0.000114347 0)
(14.2259 -7.56033e-05 0)
(14.2281 -8.95447e-05 0)
(14.2304 -0.000137641 0)
(14.2343 -0.000198582 0)
(14.2386 -0.000147474 0)
(14.2409 -3.17291e-05 0)
(14.2406 1.74936e-05 0)
(14.2402 -3.25069e-05 0)
(14.2418 -0.000127172 0)
(14.2453 -0.000148093 0)
(14.2473 -1.38541e-05 0)
(14.2467 8.61489e-05 0)
(14.2447 6.44096e-05 0)
(14.2444 -5.09865e-05 0)
(14.247 -0.000166038 0)
(14.2514 -0.000202525 0)
(14.255 -7.10161e-05 0)
(14.2549 -9.23528e-06 0)
(14.2563 3.80619e-06 0)
(14.2545 -4.97046e-05 0)
(14.259 -0.000114069 0)
(14.2591 8.18467e-06 0)
(14.2595 9.02869e-05 0)
(14.2556 5.54204e-05 0)
(14.2572 -4.04307e-07 0)
(14.2549 -8.92417e-05 0)
(14.2605 -0.000206001 0)
(14.2632 -0.000120651 0)
(14.2652 -3.16802e-05 0)
(14.2632 6.56726e-05 0)
(14.2611 0.000117186 0)
(14.2566 0.000177796 0)
(14.2527 0.000146095 0)
(14.2489 0.00012581 0)
(14.2461 3.46584e-05 0)
(20.0231 0.0527586 0)
(20.0233 0.0287354 0)
(19.8929 0.0387903 0)
(18.3509 0.0714775 0)
(16.3727 0.0755683 0)
(15.2136 0.0451834 0)
(14.6528 0.020758 0)
(14.4468 0.00751115 0)
(14.3876 0.00176993 0)
(14.4012 -0.000492708 0)
(14.4266 -0.000947037 0)
(14.4528 -0.000823871 0)
(14.4685 -0.000515554 0)
(14.4787 -0.000302438 0)
(14.4831 -0.000125743 0)
(14.4858 -4.40934e-05 0)
(14.4862 -9.41662e-06 0)
(14.4864 -7.31928e-06 0)
(14.4862 -9.55622e-06 0)
(14.4863 -1.66363e-05 0)
(14.4861 1.62189e-05 0)
(14.4859 1.03783e-05 0)
(14.4858 1.23598e-05 0)
(14.4855 1.12049e-05 0)
(14.4853 3.20244e-06 0)
(14.4855 -2.38675e-06 0)
(14.4855 -2.48326e-06 0)
(14.4856 1.89658e-06 0)
(14.4855 9.71448e-07 0)
(14.4859 3.90137e-06 0)
(14.4857 -1.08215e-06 0)
(14.4862 -2.41058e-05 0)
(14.4865 -2.39591e-05 0)
(14.4877 -3.21493e-05 0)
(14.488 -3.64757e-05 0)
(14.4894 -7.63093e-05 0)
(14.4907 -7.03967e-05 0)
(14.4929 -7.34427e-05 0)
(14.4937 -8.20734e-05 0)
(14.4962 -0.000133044 0)
(14.4983 -9.13773e-05 0)
(14.5004 -0.000106319 0)
(14.5026 -0.000161816 0)
(14.5064 -0.000231473 0)
(14.5106 -0.000172931 0)
(14.5127 -3.87071e-05 0)
(14.5125 2.03965e-05 0)
(14.5121 -3.71806e-05 0)
(14.5136 -0.000147782 0)
(14.517 -0.000171039 0)
(14.519 -1.84495e-05 0)
(14.5184 9.79256e-05 0)
(14.5165 7.41979e-05 0)
(14.5161 -5.96357e-05 0)
(14.5186 -0.000193689 0)
(14.5228 -0.000234951 0)
(14.5263 -8.4393e-05 0)
(14.5263 -1.31435e-05 0)
(14.5276 5.03437e-06 0)
(14.5259 -5.96804e-05 0)
(14.5302 -0.000132713 0)
(14.5304 7.16365e-06 0)
(14.5307 0.000104967 0)
(14.5269 6.49215e-05 0)
(14.5284 2.12766e-06 0)
(14.526 -0.000102608 0)
(14.5315 -0.00023951 0)
(14.5341 -0.00013991 0)
(14.5361 -3.34795e-05 0)
(14.5342 8.01084e-05 0)
(14.5322 0.000141102 0)
(14.5278 0.000209752 0)
(14.5241 0.000174191 0)
(14.5205 0.000150002 0)
(14.5178 4.394e-05 0)
(20.035 0.0524182 0)
(20.0569 0.029181 0)
(19.977 0.0458128 0)
(18.5642 0.0866096 0)
(16.6419 0.0892098 0)
(15.4972 0.0527061 0)
(14.9386 0.024121 0)
(14.7321 0.0086714 0)
(14.6749 0.00195916 0)
(14.6918 -0.000677959 0)
(14.721 -0.00118787 0)
(14.7503 -0.001019 0)
(14.7683 -0.000637907 0)
(14.78 -0.000372917 0)
(14.7854 -0.00015991 0)
(14.7886 -5.91007e-05 0)
(14.7893 -1.39313e-05 0)
(14.7898 -8.75984e-06 0)
(14.7896 -1.01623e-05 0)
(14.7897 -1.74717e-05 0)
(14.7895 1.80815e-05 0)
(14.7894 1.1792e-05 0)
(14.7893 1.42548e-05 0)
(14.789 1.30794e-05 0)
(14.7888 3.33591e-06 0)
(14.789 -2.97979e-06 0)
(14.789 -2.98951e-06 0)
(14.7891 2.13931e-06 0)
(14.789 2.78782e-08 0)
(14.7894 3.57208e-06 0)
(14.7892 -1.77036e-06 0)
(14.7896 -2.77123e-05 0)
(14.79 -2.96569e-05 0)
(14.7911 -3.79419e-05 0)
(14.7914 -4.28244e-05 0)
(14.7927 -8.75771e-05 0)
(14.7939 -8.39168e-05 0)
(14.796 -8.57557e-05 0)
(14.7968 -9.54696e-05 0)
(14.7991 -0.000152586 0)
(14.8011 -0.000108083 0)
(14.8032 -0.000124017 0)
(14.8052 -0.000187267 0)
(14.8089 -0.000266178 0)
(14.8129 -0.000200009 0)
(14.815 -4.62153e-05 0)
(14.8148 2.36767e-05 0)
(14.8143 -4.18087e-05 0)
(14.8157 -0.00016941 0)
(14.8189 -0.000195424 0)
(14.8209 -2.38478e-05 0)
(14.8204 0.000110158 0)
(14.8186 8.48898e-05 0)
(14.8181 -6.82886e-05 0)
(14.8205 -0.00022258 0)
(14.8245 -0.00026922 0)
(14.8279 -9.90789e-05 0)
(14.8279 -1.75587e-05 0)
(14.8292 6.40961e-06 0)
(14.8275 -7.01693e-05 0)
(14.8316 -0.00015252 0)
(14.8319 5.7246e-06 0)
(14.8322 0.000120542 0)
(14.8286 7.55133e-05 0)
(14.8299 5.69117e-06 0)
(14.8275 -0.000116165 0)
(14.8327 -0.000275061 0)
(14.8353 -0.000160634 0)
(14.8372 -3.54574e-05 0)
(14.8353 9.5364e-05 0)
(14.8335 0.000166243 0)
(14.8293 0.000243199 0)
(14.8258 0.000203643 0)
(14.8224 0.000175347 0)
(14.8198 5.36736e-05 0)
(20.0434 0.0518667 0)
(20.0793 0.029373 0)
(20.0373 0.0526004 0)
(18.7829 0.102205 0)
(16.9384 0.103798 0)
(15.8121 0.060885 0)
(15.2553 0.0278121 0)
(15.0473 0.00994293 0)
(14.9916 0.00214283 0)
(15.0118 -0.00091702 0)
(15.0453 -0.00148852 0)
(15.0782 -0.00126203 0)
(15.099 -0.000792499 0)
(15.1125 -0.000463029 0)
(15.119 -0.000205206 0)
(15.1228 -8.00493e-05 0)
(15.1239 -2.13312e-05 0)
(15.1245 -1.15369e-05 0)
(15.1244 -1.13857e-05 0)
(15.1246 -1.86053e-05 0)
(15.1244 1.98455e-05 0)
(15.1243 1.31941e-05 0)
(15.1242 1.6231e-05 0)
(15.1239 1.5043e-05 0)
(15.1238 3.48534e-06 0)
(15.124 -3.59257e-06 0)
(15.1239 -3.51752e-06 0)
(15.1241 2.37852e-06 0)
(15.124 -1.03839e-06 0)
(15.1244 3.18934e-06 0)
(15.1241 -2.4483e-06 0)
(15.1245 -3.14133e-05 0)
(15.1249 -3.56196e-05 0)
(15.126 -4.39269e-05 0)
(15.1262 -4.93033e-05 0)
(15.1274 -9.92173e-05 0)
(15.1285 -9.80874e-05 0)
(15.1305 -9.85551e-05 0)
(15.1313 -0.000109242 0)
(15.1334 -0.000172787 0)
(15.1353 -0.000125612 0)
(15.1372 -0.000142514 0)
(15.1392 -0.000213803 0)
(15.1426 -0.000302491 0)
(15.1464 -0.000228631 0)
(15.1485 -5.42642e-05 0)
(15.1483 2.73902e-05 0)
(15.1477 -4.62473e-05 0)
(15.1491 -0.000191874 0)
(15.1521 -0.000221189 0)
(15.1541 -3.0216e-05 0)
(15.1537 0.000122707 0)
(15.1519 9.6567e-05 0)
(15.1514 -7.66973e-05 0)
(15.1536 -0.000252413 0)
(15.1573 -0.000305158 0)
(15.1606 -0.00011519 0)
(15.1607 -2.25522e-05 0)
(15.1619 7.93975e-06 0)
(15.1604 -8.1068e-05 0)
(15.1642 -0.000173419 0)
(15.1645 3.75625e-06 0)
(15.1649 0.000136945 0)
(15.1614 8.734e-05 0)
(15.1625 1.057e-05 0)
(15.1601 -0.000129626 0)
(15.165 -0.000312514 0)
(15.1675 -0.000182879 0)
(15.1694 -3.76987e-05 0)
(15.1676 0.000111305 0)
(15.1659 0.000192375 0)
(15.162 0.000277823 0)
(15.1587 0.000234181 0)
(15.1555 0.000201617 0)
(15.1531 6.37046e-05 0)
(20.0494 0.0511259 0)
(20.0949 0.0293436 0)
(20.0825 0.058981 0)
(19.0061 0.117965 0)
(17.2614 0.119247 0)
(16.1586 0.0697541 0)
(15.6036 0.0318698 0)
(15.3931 0.011344 0)
(15.3384 0.00232006 0)
(15.3619 -0.00122105 0)
(15.4001 -0.00186289 0)
(15.437 -0.00156484 0)
(15.4609 -0.000987907 0)
(15.4764 -0.000578285 0)
(15.4841 -0.000264956 0)
(15.4887 -0.000108832 0)
(15.4902 -3.26538e-05 0)
(15.491 -1.61867e-05 0)
(15.4911 -1.35004e-05 0)
(15.4913 -2.01842e-05 0)
(15.4912 2.14267e-05 0)
(15.4911 1.45385e-05 0)
(15.491 1.82679e-05 0)
(15.4908 1.70866e-05 0)
(15.4906 3.6507e-06 0)
(15.4908 -4.21326e-06 0)
(15.4908 -4.06195e-06 0)
(15.4909 2.60853e-06 0)
(15.4908 -2.23165e-06 0)
(15.4912 2.75804e-06 0)
(15.4909 -3.08823e-06 0)
(15.4913 -3.51559e-05 0)
(15.4916 -4.17657e-05 0)
(15.4926 -5.00175e-05 0)
(15.4929 -5.57894e-05 0)
(15.4939 -0.000111089 0)
(15.495 -0.000112756 0)
(15.4969 -0.000111693 0)
(15.4975 -0.000123181 0)
(15.4995 -0.000193411 0)
(15.5012 -0.000143794 0)
(15.5031 -0.000161632 0)
(15.5049 -0.000241168 0)
(15.5081 -0.000340136 0)
(15.5117 -0.000258661 0)
(15.5137 -6.28359e-05 0)
(15.5135 3.16061e-05 0)
(15.5129 -5.0324e-05 0)
(15.5141 -0.000214946 0)
(15.517 -0.000248247 0)
(15.5189 -3.77205e-05 0)
(15.5186 0.000135418 0)
(15.5169 0.000109316 0)
(15.5164 -8.45635e-05 0)
(15.5183 -0.00028281 0)
(15.5218 -0.000342531 0)
(15.525 -0.000132824 0)
(15.5252 -2.81874e-05 0)
(15.5263 9.62813e-06 0)
(15.5248 -9.2238e-05 0)
(15.5284 -0.000195314 0)
(15.5288 1.15608e-06 0)
(15.5291 0.000154092 0)
(15.5258 0.000100557 0)
(15.5267 1.70812e-05 0)
(15.5243 -0.000142639 0)
(15.5288 -0.000351673 0)
(15.5313 -0.000206688 0)
(15.5331 -4.03205e-05 0)
(15.5315 0.000127744 0)
(15.5298 0.00021917 0)
(15.5262 0.000313209 0)
(15.5232 0.000265417 0)
(15.5202 0.000228495 0)
(15.518 7.38135e-05 0)
(20.0537 0.0502053 0)
(20.1062 0.0291096 0)
(20.1175 0.0647684 0)
(19.2311 0.133548 0)
(17.6089 0.135421 0)
(16.5363 0.0793351 0)
(15.9836 0.0363351 0)
(15.7697 0.0128964 0)
(15.7155 0.0024912 0)
(15.7422 -0.00160212 0)
(15.7853 -0.00232676 0)
(15.8266 -0.00194122 0)
(15.8539 -0.00123421 0)
(15.8716 -0.000725206 0)
(15.8808 -0.000343146 0)
(15.8862 -0.000147744 0)
(15.8882 -4.91634e-05 0)
(15.8893 -2.33573e-05 0)
(15.8895 -1.68368e-05 0)
(15.8898 -2.23553e-05 0)
(15.8897 2.27012e-05 0)
(15.8897 1.57702e-05 0)
(15.8896 2.03344e-05 0)
(15.8894 1.91826e-05 0)
(15.8892 3.83859e-06 0)
(15.8894 -4.83355e-06 0)
(15.8894 -4.61209e-06 0)
(15.8895 2.80744e-06 0)
(15.8894 -3.54581e-06 0)
(15.8897 2.273e-06 0)
(15.8895 -3.66188e-06 0)
(15.8899 -3.88751e-05 0)
(15.8902 -4.80119e-05 0)
(15.8911 -5.61138e-05 0)
(15.8913 -6.21403e-05 0)
(15.8922 -0.00012301 0)
(15.8932 -0.00012775 0)
(15.8949 -0.00012499 0)
(15.8956 -0.000137036 0)
(15.8973 -0.000214155 0)
(15.8989 -0.000162419 0)
(15.9006 -0.000181142 0)
(15.9023 -0.000269038 0)
(15.9053 -0.000378745 0)
(15.9086 -0.000289904 0)
(15.9105 -7.18969e-05 0)
(15.9103 3.64034e-05 0)
(15.9097 -5.38271e-05 0)
(15.9108 -0.000238331 0)
(15.9134 -0.00027645 0)
(15.9153 -4.65453e-05 0)
(15.9151 0.000148085 0)
(15.9135 0.000123203 0)
(15.9129 -9.1541e-05 0)
(15.9146 -0.000313301 0)
(15.9178 -0.000381005 0)
(15.9208 -0.000152056 0)
(15.9211 -3.45392e-05 0)
(15.9221 1.14776e-05 0)
(15.9208 -0.000103519 0)
(15.9241 -0.000218065 0)
(15.9245 -2.19248e-06 0)
(15.9249 0.000171871 0)
(15.9217 0.000115319 0)
(15.9224 2.55858e-05 0)
(15.92 -0.000154778 0)
(15.9241 -0.000392258 0)
(15.9266 -0.00023207 0)
(15.9283 -4.34384e-05 0)
(15.9268 0.000144465 0)
(15.9253 0.000246251 0)
(15.922 0.000348852 0)
(15.9193 0.000296894 0)
(15.9165 0.000255592 0)
(15.9146 8.38747e-05 0)
(20.0568 0.0491071 0)
(20.1145 0.0286793 0)
(20.1451 0.0697673 0)
(19.4544 0.148557 0)
(17.9782 0.152117 0)
(16.9444 0.0896285 0)
(16.3953 0.0412486 0)
(16.1773 0.0146254 0)
(16.1229 0.00265854 0)
(16.1525 -0.00207262 0)
(16.2006 -0.00289754 0)
(16.2465 -0.00240676 0)
(16.2775 -0.00154297 0)
(16.2977 -0.000911383 0)
(16.3085 -0.000444446 0)
(16.3148 -0.000199491 0)
(16.3174 -7.23828e-05 0)
(16.3188 -3.38513e-05 0)
(16.3192 -2.18157e-05 0)
(16.3195 -2.53562e-05 0)
(16.3194 2.35523e-05 0)
(16.3195 1.6815e-05 0)
(16.3194 2.23913e-05 0)
(16.3192 2.12968e-05 0)
(16.319 4.05919e-06 0)
(16.3192 -5.43686e-06 0)
(16.3192 -5.16044e-06 0)
(16.3193 2.98185e-06 0)
(16.3192 -4.99796e-06 0)
(16.3195 1.74136e-06 0)
(16.3193 -4.13343e-06 0)
(16.3196 -4.24947e-05 0)
(16.3199 -5.42362e-05 0)
(16.3207 -6.20832e-05 0)
(16.3209 -6.8176e-05 0)
(16.3217 -0.000134761 0)
(16.3226 -0.000142822 0)
(16.3242 -0.000138208 0)
(16.3247 -0.000150494 0)
(16.3262 -0.000234649 0)
(16.3277 -0.000181194 0)
(16.3293 -0.000200744 0)
(16.3308 -0.000297009 0)
(16.3335 -0.00041786 0)
(16.3365 -0.000322085 0)
(16.3383 -8.1365e-05 0)
(16.3381 4.18793e-05 0)
(16.3375 -5.65091e-05 0)
(16.3384 -0.000261677 0)
(16.3408 -0.000305609 0)
(16.3427 -5.68599e-05 0)
(16.3426 0.000160486 0)
(16.3411 0.000138291 0)
(16.3404 -9.72305e-05 0)
(16.3419 -0.000343325 0)
(16.3447 -0.000420157 0)
(16.3476 -0.000172917 0)
(16.348 -4.16642e-05 0)
(16.3489 1.34846e-05 0)
(16.3477 -0.00011471 0)
(16.3507 -0.000241495 0)
(16.3512 -6.38245e-06 0)
(16.3515 0.000190151 0)
(16.3485 0.000131787 0)
(16.349 3.64741e-05 0)
(16.3466 -0.000165541 0)
(16.3504 -0.000433908 0)
(16.3527 -0.000259003 0)
(16.3544 -4.72006e-05 0)
(16.353 0.00016119 0)
(16.3517 0.000273125 0)
(16.3487 0.000384128 0)
(16.3463 0.000327997 0)
(16.3438 0.000282401 0)
(16.3421 9.35787e-05 0)
(20.0589 0.0478286 0)
(20.1207 0.0280569 0)
(20.1669 0.0737824 0)
(19.6713 0.162535 0)
(18.3653 0.169043 0)
(17.3812 0.100601 0)
(16.838 0.0466473 0)
(16.6155 0.0165602 0)
(16.5601 0.00282713 0)
(16.5922 -0.00264447 0)
(16.6453 -0.00359359 0)
(16.6959 -0.0029784 0)
(16.7308 -0.00192699 0)
(16.7536 -0.00114527 0)
(16.7661 -0.000574134 0)
(16.7734 -0.000267173 0)
(16.7766 -0.000104062 0)
(16.7783 -4.85877e-05 0)
(16.7788 -2.89141e-05 0)
(16.7792 -2.93914e-05 0)
(16.7792 2.37891e-05 0)
(16.7793 1.75882e-05 0)
(16.7792 2.43869e-05 0)
(16.779 2.33873e-05 0)
(16.7789 4.31323e-06 0)
(16.7791 -6.01503e-06 0)
(16.779 -5.69194e-06 0)
(16.7792 3.0933e-06 0)
(16.7791 -6.56881e-06 0)
(16.7794 1.15497e-06 0)
(16.7792 -4.46808e-06 0)
(16.7795 -4.59247e-05 0)
(16.7797 -6.0319e-05 0)
(16.7804 -6.77804e-05 0)
(16.7805 -7.36938e-05 0)
(16.7812 -0.000146071 0)
(16.782 -0.000157702 0)
(16.7834 -0.000151066 0)
(16.7839 -0.000163187 0)
(16.7852 -0.000254442 0)
(16.7865 -0.000199771 0)
(16.7879 -0.000220077 0)
(16.7892 -0.000324592 0)
(16.7916 -0.000456905 0)
(16.7944 -0.000354835 0)
(16.7961 -9.11271e-05 0)
(16.7959 4.8153e-05 0)
(16.7952 -5.80804e-05 0)
(16.796 -0.00028455 0)
(16.7981 -0.000335447 0)
(16.7999 -6.88355e-05 0)
(16.8 0.000172335 0)
(16.7986 0.000154607 0)
(16.7978 -0.000101194 0)
(16.7991 -0.000372207 0)
(16.8016 -0.000459434 0)
(16.8042 -0.000195384 0)
(16.8048 -4.96255e-05 0)
(16.8056 1.56507e-05 0)
(16.8044 -0.000125594 0)
(16.8071 -0.000265365 0)
(16.8076 -1.15146e-05 0)
(16.808 0.000208772 0)
(16.8052 0.000150105 0)
(16.8055 5.01779e-05 0)
(16.803 -0.000174341 0)
(16.8064 -0.000476151 0)
(16.8086 -0.000287398 0)
(16.8102 -5.1739e-05 0)
(16.809 0.000177616 0)
(16.8078 0.000299247 0)
(16.8052 0.000418303 0)
(16.8031 0.000358023 0)
(16.8009 0.000308327 0)
(16.7995 0.000102754 0)
(20.0603 0.046364 0)
(20.1254 0.0272451 0)
(20.1839 0.07663 0)
(19.8764 0.174965 0)
(18.7647 0.185798 0)
(17.8443 0.112169 0)
(17.3106 0.0525584 0)
(17.0837 0.0187326 0)
(17.0265 0.00300579 0)
(17.0605 -0.00332775 0)
(17.1182 -0.00443312 0)
(17.1735 -0.00367364 0)
(17.2123 -0.0023997 0)