/*--------------------------------*- C++ -*----------------------------------*\
  =========                 |
  \\      /  F ield         | OpenFOAM: The Open Source CFD Toolbox
   \\    /   O peration     | Website:  https://openfoam.org
    \\  /    A nd           | Version:  7
     \\/     M anipulation  |
\*---------------------------------------------------------------------------*/
FoamFile
{
    version     2.0;
    format      ascii;
    class       volScalarField;
    location    "700";
    object      epsilon;
}
// * * * * * * * * * * * * * * * * * * * * * * * * * * * * * * * * * * * * * //

dimensions      [0 2 -3 0 0 0 0];

internalField   nonuniform List<scalar> 
16900
(
1.07059
1.88506
2.86265
3.74876
4.53711
5.23083
5.8369
6.36194
6.8112
7.18774
7.49202
7.71987
7.85786
7.8847
7.78297
7.89113
7.84429
35.992
40.1498
44.5779
49.2998
54.3148
59.6245
65.234
71.1484
77.3744
83.9174
90.7824
97.9735
105.494
113.346
121.53
130.047
138.893
148.066
157.563
167.375
177.497
187.92
198.632
209.622
220.876
232.38
244.115
256.065
268.208
280.522
292.985
305.571
318.252
331.002
343.789
356.584
369.354
382.069
394.698
407.21
419.582
431.793
443.833
455.707
467.445
479.115
490.537
501.579
512.222
522.443
532.218
541.522
550.331
558.624
566.379
573.577
580.201
586.234
591.663
596.478
600.669
604.231
607.161
609.459
611.129
612.177
612.612
612.446
611.695
610.377
608.513
606.127
603.245
599.895
596.107
591.912
587.343
582.435
577.223
571.743
566.03
560.117
554.041
547.836
541.536
535.175
528.783
522.388
516.019
509.703
503.468
497.339
491.335
485.477
479.783
474.274
468.971
463.889
459.04
454.438
450.101
446.053
442.305
438.863
435.747
432.988
430.605
428.599
426.99
425.837
425.151
424.915
425.149
425.935
427.275
429.166
431.766
435.425
442.417
451.423
461.381
472.046
483.265
494.866
506.637
518.323
529.628
540.225
549.772
557.928
564.381
568.868
571.195
571.251
569.009
564.527
557.932
549.415
539.199
527.538
514.69
500.909
486.436
471.493
456.275
440.954
425.676
410.562
395.71
381.199
367.089
353.427
340.244
327.562
315.394
303.744
292.614
281.997
271.887
262.273
253.142
244.486
236.296
228.586
221.36
214.555
208.125
202.039
196.274
190.813
185.64
180.742
176.109
171.729
167.593
163.691
160.015
156.556
153.303
150.243
147.355
144.611
141.862
2.08771
1.99741
2.65457
3.39569
4.11191
4.78639
5.42886
6.05884
6.70161
7.38903
8.1621
9.07461
10.197
11.6142
13.4014
15.5667
18.5847
22.3491
24.6903
27.0388
29.5035
32.0959
34.8179
37.6712
40.6576
43.7785
47.0351
50.4278
53.9567
57.6216
61.4214
65.3546
69.4192
73.6127
77.9318
82.3728
86.9315
91.603
96.3818
101.262
106.237
111.301
116.445
121.661
126.941
132.277
137.659
143.078
148.523
153.984
159.452
164.915
170.364
175.789
181.179
186.527
191.824
197.064
202.244
207.363
212.423
217.433
222.414
227.318
232.08
236.684
241.12
245.379
249.451
253.326
256.996
260.451
263.685
266.689
269.457
271.984
274.265
276.296
278.073
279.596
280.864
281.877
282.638
283.148
283.414
283.439
283.23
282.796
282.144
281.285
280.229
278.987
277.572
275.996
274.273
272.416
270.44
268.358
266.185
263.934
261.62
259.256
256.856
254.434
252
249.568
247.15
244.756
242.397
240.084
237.825
235.63
233.507
231.466
229.515
227.661
225.912
224.275
222.76
221.376
220.129
219.027
218.083
217.306
216.705
216.291
216.081
216.081
216.299
216.749
217.462
218.433
219.664
221.211
223.157
225.81
229.02
232.562
236.333
240.251
244.23
248.171
251.965
255.489
258.615
261.217
263.174
264.38
264.751
264.233
262.799
260.456
257.239
253.209
248.445
243.04
237.095
230.713
223.995
217.035
209.919
202.725
195.52
188.362
181.299
174.37
167.606
161.033
154.669
148.526
142.615
136.939
131.503
126.305
121.343
116.615
112.116
107.841
103.785
99.9412
96.3024
92.8961
89.6988
86.6906
83.8563
81.1838
78.6633
76.2869
74.0473
71.9385
69.9549
68.0917
66.3443
64.7091
63.1829
61.7643
60.4543
59.2605
58.2115
57.3708
2.90548
2.38729
2.87773
3.54613
4.2497
4.95647
5.67158
6.41579
7.21711
8.10764
9.12156
10.2919
11.6451
13.1901
14.9061
16.7535
18.7648
20.828
22.7953
24.8248
26.9495
29.1776
31.5114
33.9522
36.5009
39.1584
41.9252
44.8014
47.7869
50.8811
54.0832
57.3918
60.8052
64.3212
67.9373
71.6504
75.4571
79.3537
83.3358
87.3989
91.538
95.7478
100.023
104.356
108.743
113.176
117.649
122.155
126.686
131.237
135.799
140.366
144.93
149.484
154.021
158.535
163.02
167.47
171.881
176.248
180.571
184.846
189.069
193.202
197.224
201.124
204.892
208.52
212.001
215.327
218.49
221.483
224.3
226.934
229.38
231.632
233.687
235.54
237.19
238.633
239.87
240.899
241.723
242.342
242.76
242.98
243.007
242.846
242.504
241.989
241.308
240.471
239.485
238.362
237.112
235.745
234.272
232.705
231.054
229.331
227.547
225.712
223.839
221.936
220.015
218.085
216.155
214.234
212.33
210.454
208.611
206.809
205.054
203.354
201.716
200.147
198.652
197.235
195.905
194.67
193.536
192.508
191.593
190.803
190.144
189.625
189.255
189.049
189.011
189.149
189.465
189.975
190.682
191.612
192.801
194.316
196.11
198.096
200.209
202.386
204.561
206.659
208.599
210.295
211.659
212.605
213.055
212.942
212.217
210.848
208.827
206.167
202.899
199.072
194.747
189.995
184.89
179.507
173.919
168.194
162.393
156.572
150.777
145.048
139.419
133.917
128.562
123.371
118.356
113.525
108.882
104.432
100.173
96.1066
92.229
88.5373
85.0277
81.6956
78.5361
75.5427
72.7186
70.0631
67.5662
65.2183
63.0102
60.9339
58.982
57.1482
55.4266
53.8117
52.2989
50.8837
49.562
48.3305
47.1861
46.127
45.1529
44.2675
43.4874
42.86
3.5599
2.76808
3.15326
3.77247
4.46937
5.20358
5.97316
6.7932
7.6852
8.67156
9.77193
10.9998
12.359
13.8408
15.4278
17.1002
18.8613
20.687
22.5654
24.5223
26.5703
28.7154
30.9607
33.3079
35.7584
38.3132
40.9732
43.7386
46.6099
49.5868
52.6689
55.8554
59.1451
62.5365
66.0275
69.6159
73.2989
77.0732
80.9355
84.8816
88.9075
93.0083
97.1794
101.415
105.711
110.06
114.458
118.898
123.373
127.879
132.407
136.952
141.508
146.066
150.621
155.166
159.693
164.196
168.669
173.106
177.5
181.845
186.119
190.301
194.378
198.339
202.176
205.88
209.443
212.857
216.116
219.21
222.135
224.882
227.447
229.825
232.009
233.998
235.786
237.373
238.756
239.935
240.91
241.683
242.256
242.631
242.813
242.807
242.618
242.253
241.719
241.026
240.18
239.192
238.07
236.825
235.468
234.009
232.459
230.828
229.126
227.364
225.553
223.702
221.822
219.922
218.009
216.092
214.18
212.282
210.404
208.552
206.732
204.95
203.215
201.532
199.906
198.339
196.839
195.415
194.071
192.811
191.639
190.57
189.611
188.766
188.04
187.445
186.989
186.678
186.518
186.517
186.683
187.031
187.578
188.338
189.281
190.361
191.531
192.74
193.932
195.045
196.011
196.759
197.218
197.317
196.994
196.197
194.887
193.042
190.657
187.745
184.336
180.473
176.21
171.607
166.729
161.64
156.403
151.075
145.708
140.349
135.037
129.806
124.682
119.688
114.84
110.152
105.631
101.285
97.1159
93.1257
89.3138
85.6788
82.2177
78.9273
75.8034
72.8415
70.0363
67.3845
64.8852
62.5325
60.3198
58.2403
56.2871
54.4539
52.7343
51.1229
49.6142
48.2033
46.8856
45.657
44.5136
43.4518
42.4687
41.562
40.7303
39.9751
39.3078
38.7738
4.10629
3.10146
3.41058
3.99207
4.67978
5.42825
6.22932
7.09134
8.02848
9.05489
10.1813
11.4133
12.7503
14.1862
15.7129
17.3234
19.0185
20.7947
22.6522
24.5974
26.6365
28.7739
31.0128
33.3556
35.804
38.3597
41.0241
43.7982
46.6829
49.6788
52.7861
56.0047
59.3342
62.7738
66.322
69.9773
73.7376
77.6001
81.562
85.6198
89.7696
94.0073
98.3284
102.728
107.201
111.742
116.345
121.004
125.714
130.468
135.26
140.083
144.929
149.793
154.665
159.538
164.404
169.254
174.08
178.873
183.626
188.318
192.931
197.447
201.856
206.146
210.309
214.335
218.217
221.944
225.509
228.905
232.123
235.157
238.001
240.648
243.094
245.334
247.363
249.181
250.783
252.17
253.34
254.296
255.039
255.571
255.896
256.019
255.945
255.68
255.232
254.609
253.82
252.873
251.777
250.543
249.182
247.705
246.121
244.443
242.679
240.84
238.938
236.983
234.985
232.953
230.895
228.819
226.735
224.651
222.574
220.509
218.463
216.439
214.448
212.495
210.584
208.716
206.893
205.134
203.44
201.811
200.253
198.774
197.381
196.081
194.879
193.784
192.804
191.948
191.223
190.637
190.197
189.916
189.805
189.861
190.067
190.389
190.793
191.238
191.676
192.053
192.31
192.384
192.213
191.734
190.892
189.639
187.941
185.776
183.14
180.043
176.511
172.584
168.308
163.74
158.938
153.96
148.862
143.699
138.516
133.357
128.256
123.245
118.348
113.584
108.967
104.51
100.22
96.1013
92.1568
88.3869
84.7909
81.3666
78.1111
75.0207
72.0912
69.3179
66.6958
64.2223
61.892
59.6995
57.639
55.7046
53.8904
52.1906
50.5996
49.1121
47.7232
46.428
45.2221
44.1015
43.0622
42.1008
41.2142
40.3997
39.6556
38.9819
38.3885
37.9197
4.56669
3.38162
3.62845
4.17711
4.85118
5.60139
6.41487
7.29458
8.24927
9.28798
10.4174
11.6408
12.9582
14.3677
15.8666
17.4534
19.1295
20.8958
22.7542
24.708
26.7611
28.9173
31.18
33.552
36.0358
38.6339
41.3483
44.181
47.1337
50.2079
53.4048
56.725
60.169
63.7367
67.4278
71.2411
75.1752
79.2281
83.3973
87.6799
92.0722
96.5704
101.17
105.866
110.654
115.528
120.482
125.511
130.607
135.764
140.975
146.234
151.531
156.859
162.208
167.57
172.934
178.289
183.626
188.931
194.195
199.385
204.487
209.486
214.369
219.127
223.749
228.224
232.544
236.698
240.679
244.476
248.082
251.49
254.692
257.681
260.453
263.002
265.324
267.415
269.273
270.896
272.284
273.438
274.359
275.049
275.512
275.753
275.775
275.587
275.196
274.609
273.835
272.883
271.763
270.485
269.061
267.501
265.817
264.02
262.12
260.128
258.055
255.913
253.713
251.463
249.172
246.846
244.498
242.136
239.767
237.397
235.029
232.664
230.324
228.007
225.716
223.454
221.223
219.035
216.891
214.795
212.752
210.767
208.847
206.998
205.228
203.545
201.956
200.472
199.103
197.857
196.743
195.773
194.957
194.293
193.769
193.363
193.05
192.796
192.563
192.303
191.964
191.489
190.82
189.898
188.671
187.091
185.122
182.742
179.94
176.725
173.116
169.148
164.864
160.314
155.553
150.634
145.61
140.533
135.446
130.389
125.397
120.499
115.717
111.07
106.573
102.235
98.064
94.0644
90.2383
86.586
83.1065
79.7976
76.6562
73.6784
70.8601
68.1964
65.6826
63.3138
61.0846
58.9896
57.0233
55.1802
53.4546
51.841
50.3342
48.929
47.6205
46.404
45.2752
44.23
43.2646
42.3754
41.5592
40.8131
40.1351
39.5247
38.9907
38.5748
4.95326
3.61022
3.80102
4.31818
4.97419
5.71633
6.52842
7.40967
8.36528
9.40149
10.5233
11.7339
13.0346
14.4262
15.909
17.4843
19.1541
20.9209
22.7874
24.7564
26.8315
29.0167
31.3154
33.7314
36.2679
38.9282
41.7154
44.6325
47.6823
50.8672
54.1895
57.6508
61.2527
64.9961
68.8812
72.9079
77.0755
81.3825
85.827
90.4062
95.117
99.9555
104.917
109.998
115.191
120.492
125.893
131.389
136.973
142.636
148.372
154.171
160.026
165.926
171.86
177.818
183.787
189.754
195.705
201.627
207.497
213.282
218.968
224.54
229.987
235.296
240.456
245.456
250.285
254.932
259.388
263.642
267.687
271.515
275.116
278.485
281.615
284.501
287.136
289.519
291.646
293.515
295.126
296.479
297.576
298.418
299.009
299.353
299.456
299.324
298.965
298.388
297.6
296.611
295.432
294.072
292.544
290.86
289.03
287.068
284.983
282.785
280.488
278.105
275.646
273.12
270.537
267.9
265.223
262.521
259.798
257.057
254.305
251.545
248.787
246.037
243.296
240.568
237.855
235.166
232.501
229.866
227.265
224.703
222.185
219.718
217.31
214.969
212.704
210.527
208.448
206.478
204.629
202.916
201.348
199.929
198.653
197.511
196.485
195.551
194.677
193.824
192.946
191.99
190.901
189.623
188.1
186.283
184.132
181.619
178.729
175.461
171.831
167.867
163.606
159.094
154.38
149.518
144.556
139.543
134.523
129.535
124.611
119.781
115.067
110.487
106.057
101.786
97.6822
93.7495
89.9902
86.4051
82.993
79.7518
76.6786
73.7697
71.0207
68.4264
65.9811
63.6797
61.517
59.4877
57.5861
55.8069
54.1445
52.5936
51.1489
49.8054
48.5581
47.4025
46.3341
45.3489
44.443
43.6128
42.8548
42.1662
41.5445
40.989
40.5074
40.1376
5.27468
3.79154
3.9293
4.41462
5.04878
5.77572
6.5769
7.44908
8.39526
9.42017
10.5283
11.7231
13.0073
14.3832
15.8532
17.4198
19.0862
20.8558
22.7317
24.7176
26.8174
29.0353
31.3758
33.8431
36.4417
39.1758
42.0497
45.0677
48.2335
51.551
55.0235
58.6539
62.4448
66.3982
70.5152
74.7968
79.2426
83.8521
88.6236
93.5548
98.6427
103.883
109.272
114.804
120.474
126.274
132.198
138.239
144.389
150.638
156.979
163.402
169.895
176.449
183.05
189.685
196.34
202.997
209.642
216.257
222.796
229.239
235.571
241.777
247.843
253.755
259.501
265.069
270.446
275.621
280.583
285.322
289.829
294.094
298.11
301.87
305.365
308.591
311.542
314.214
316.605
318.712
320.536
322.076
323.334
324.31
325.01
325.437
325.598
325.499
325.147
324.552
323.721
322.666
321.397
319.923
318.257
316.413
314.403
312.239
309.931
307.488
304.924
302.258
299.499
296.656
293.738
290.752
287.709
284.621
281.494
278.334
275.147
271.937
268.712
265.476
262.232
258.985
255.737
252.493
249.256
246.03
242.819
239.627
236.461
233.326
230.231
227.184
224.195
221.276
218.439
215.699
213.07
210.568
208.208
205.999
203.947
202.048
200.297
198.679
197.172
195.744
194.356
192.96
191.502
189.926
188.173
186.191
183.931
181.358
178.448
175.194
171.602
167.692
163.497
159.058
154.421
149.633
144.745
139.802
134.847
129.919
125.053
120.275
115.611
111.078
106.692
102.464
98.4016
94.5099
90.7916
87.2476
83.8774
80.6791
77.65
74.7865
72.0842
69.5363
67.1378
64.8838
62.769
60.788
58.9353
57.2053
55.5927
54.092
52.6979
51.4053
50.2094
49.1055
48.0891
47.1561
46.3024
45.5244
44.8184
44.1814
43.6108
43.1055
42.6723
42.3438
5.53818
3.93086
4.01738
4.47
5.0793
5.78597
6.56977
7.42584
8.35583
9.36373
10.4539
11.6303
12.8966
14.2565
15.7135
17.2714
18.9342
20.7061
22.5913
24.5943
26.7197
28.9727
31.3584
33.8824
36.5501
39.3672
42.3392
45.4716
48.7696
52.2385
55.8828
59.7068
63.7143
67.9083
72.2912
76.8645
81.629
86.5844
91.7296
97.0624
102.58
108.278
114.152
120.196
126.404
132.769
139.282
145.935
152.718
159.623
166.638
173.752
180.953
188.228
195.563
202.941
210.344
217.754
225.15
232.502
239.758
246.903
253.92
260.795
267.51
274.053
280.409
286.565
292.506
298.22
303.695
308.921
313.888
318.587
323.01
327.15
330.998
334.549
337.796
340.737
343.368
345.69
347.7
349.401
350.791
351.874
352.653
353.133
353.321
353.224
352.848
352.204
351.3
350.147
348.756
347.136
345.3
343.265
341.042
338.644
336.082
333.367
330.512
327.534
324.442
321.247
317.959
314.587
311.14
307.63
304.063
300.447
296.786
293.087
289.355
285.596
281.812
278.007
274.186
270.351
266.505
262.653
258.798
254.944
251.098
247.265
243.453
239.67
235.928
232.239
228.617
225.077
221.639
218.32
215.141
212.118
209.263
206.588
204.095
201.782
199.636
197.637
195.752
193.938
192.144
190.312
188.381
186.29
183.983
181.414
178.55
175.372
171.876
168.076
163.997
159.674
155.148
150.465
145.674
140.818
135.941
131.083
126.277
121.552
116.934
112.443
108.094
103.899
99.8676
96.0054
92.3159
88.8007
85.4597
82.2918
79.2945
76.4648
73.7955
71.2816
68.9184
66.7011
64.6242
62.6825
60.8702
59.1818
57.6119
56.1549
54.8054
53.5584
52.4088
51.3518
50.383
49.498
48.6926
47.963
47.3054
46.7164
46.1932
45.7347
45.3462
45.0552
5.75021
4.03366
4.07061
4.48974
5.07189
5.75477
6.5168
7.35206
8.2614
9.24841
10.3175
11.4733
12.7202
14.0629
15.506
17.0543
18.7128
20.4868
22.3814
24.4021
26.5548
28.8457
31.2811
33.8679
36.6128
39.5231
42.6056
45.8674
49.3153
52.9558
56.7952
60.839
65.0924
69.5595
74.2439
79.1479
84.273
89.6193
95.186
100.971
106.971
113.183
119.599
126.215
133.023
140.014
147.179
154.508
161.989
169.612
177.363
185.23
193.198
201.253
209.376
217.55
225.753
233.964
242.157
250.265
258.263
266.131
273.853
281.41
288.786
295.966
302.933
309.673
316.171
322.413
328.387
334.081
339.486
344.593
349.394
353.883
358.051
361.891
365.397
368.568
371.4
373.895
376.052
377.873
379.354
380.501
381.319
381.812
381.989
381.854
381.416
380.685
379.673
378.388
376.843
375.047
373.015
370.76
368.297
365.637
362.793
359.777
356.602
353.282
349.829
346.254
342.568
338.781
334.902
330.941
326.905
322.803
318.641
314.424
310.158
305.848
301.498
297.111
292.692
288.243
283.768
279.27
274.753
270.221
265.68
261.135
256.594
252.066
247.562
243.094
238.678
234.33
230.072
225.926
221.916
218.065
214.396
210.929
207.679
204.657
201.863
199.287
196.906
194.684
192.573
190.514
188.442
186.288
183.987
181.48
178.72
175.678
172.338
168.703
164.79
160.628
156.255
151.713
147.049
142.306
137.528
132.754
128.021
123.358
118.793
114.346
110.035
105.873
101.871
98.0357
94.3713
90.8805
87.5641
84.4216
81.4513
78.6482
76.0057
73.5201
71.1869
69.0012
66.9577
65.0509
63.2752
61.625
60.0945
58.6782
57.3706
56.1664
55.0606
54.0483
53.1246
52.2852
51.5256
50.8417
50.2295
49.6853
49.2062
48.7908
48.4433
48.186
5.91675
4.10531
4.09463
4.47982
5.03323
5.68994
6.42732
7.23872
8.1245
9.08809
10.1341
11.2677
12.4942
13.819
15.2477
16.7864
18.441
20.2178
22.1235
24.1647
26.3487
28.6829
31.1753
33.8341
36.6679
39.6853
42.895
46.3058
49.9261
53.764
57.8273
62.1231
66.6577
71.4368
76.4647
81.7447
87.2789
93.0675
99.1098
105.404
111.945
118.73
125.751
133.002
140.473
148.155
156.037
164.105
172.346
180.748
189.294
197.969
206.758
215.641
224.599
233.611
242.651
251.694
260.689
269.569
278.316
286.911
295.335
303.568
311.593
319.392
326.95
334.251
341.278
348.015
354.449
360.57
366.369
371.837
376.968
381.755
386.192
390.266
393.976
397.32
400.298
402.909
405.156
407.041
408.56
409.718
410.523
410.98
411.096
410.879
410.337
409.481
408.321
406.868
405.133
403.129
400.868
398.364
395.63
392.68
389.525
386.181
382.659
378.972
375.133
371.154
367.046
362.82
358.485
354.051
349.526
344.917
340.233
335.479
330.662
325.784
320.852
315.869
310.839
305.766
300.652
295.502
290.318
285.106
279.87
274.616
269.351
264.084
258.826
253.589
248.389
243.244
238.177
233.211
228.376
223.701
219.216
214.953
210.939
207.197
203.743
200.58
197.696
195.066
192.646
190.378
188.193
186.014
183.763
181.368
178.768
175.917
172.788
169.373
165.678
161.725
157.548
153.186
148.682
144.081
139.426
134.759
130.116
125.53
121.029
116.636
112.37
108.247
104.278
100.471
96.8336
93.3682
90.0769
86.9599
84.0156
81.2363
78.6192
76.1605
73.8559
71.7005
69.6892
67.8163
66.0761
64.4629
62.9709
61.5943
60.3276
59.1653
58.1021
57.1329
56.2528
55.4571
54.741
54.1003
53.5305
53.0277
52.5886
52.212
51.9006
51.6729
6.0434
4.15081
4.09484
4.44609
4.96984
5.59894
6.30992
7.09566
7.95625
8.89511
9.91718
11.0281
12.234
13.5414
14.9568
16.4874
18.1404
19.9237
21.845
23.9128
26.1359
28.5234
31.0849
33.8306
36.7707
39.916
43.277
46.8642
50.688
54.7582
59.0839
63.6737
68.5356
73.676
79.1006
84.8131
90.816
97.1095
103.692
110.561
117.712
125.139
132.835
140.79
148.995
157.436
166.102
174.975
184.039
193.278
202.674
212.209
221.863
231.615
241.442
251.32
261.22
271.107
280.886
290.528
300.01
309.312
318.413
327.292
335.93
344.309
352.413
360.228
367.732
374.907
381.742
388.227
394.355
400.116
405.506
410.52
415.156
419.391
423.231
426.677
429.727
432.384
434.651
436.528
438.019
439.127
439.86
440.224
440.227
439.876
439.182
438.154
436.803
435.14
433.177
430.926
428.401
425.613
422.578
419.307
415.815
412.115
408.22
404.143
399.897
395.493
390.944
386.259
381.451
376.527
371.497
366.369
361.15
355.848
350.468
345.015
339.494
333.911
328.268
322.569
316.819
311.02
305.177
299.294
293.376
287.428
281.458
275.473
269.484
263.504
257.548
251.634
245.785
240.027
234.392
228.913
223.629
218.579
213.803
209.339
205.218
201.457
198.062
195.018
192.288
189.82
187.539
185.361
183.196
180.957
178.566
175.96
173.096
169.952
166.526
162.83
158.893
154.75
150.443
146.016
141.513
136.976
132.445
127.953
123.531
119.204
114.995
110.919
106.991
103.22
99.6151
96.1799
92.9177
89.8298
86.9113
84.158
81.5679
79.1375
76.8629
74.7391
72.7609
70.9228
69.2189
67.6433
66.19
64.8533
63.6273
62.5063
61.4849
60.5578
59.7197
58.9656
58.2906
57.6899
57.1587
56.6929
56.2888
55.9452
55.6641
55.4612
6.13538
4.17467
4.07618
4.39401
4.8878
5.48865
6.17249
6.93189
7.76683
8.68088
9.67936
10.7686
11.9556
13.2477
14.653
16.1798
17.837
19.6337
21.5798
23.6854
25.9612
28.4185
31.0688
33.9244
36.9977
40.3016
43.8489
47.6522
51.7236
56.0744
60.7154
65.6566
70.907
76.4743
82.3645
88.5823
95.1298
102.006
109.209
116.734
124.576
132.727
141.177
149.916
158.93
168.206
177.726
187.472
197.421
207.554
217.849
228.285
238.84
249.489
260.205
270.96
281.722
292.405
302.946
313.316
323.494
333.457
343.184
352.652
361.842
370.735
379.314
387.572
395.477
403.008
410.16
416.924
423.292
429.258
434.816
439.963
444.695
449.002
452.886
456.348
459.388
462.01
464.217
466.013
467.402
468.39
468.982
469.188
469.014
468.472
467.569
466.316
464.724
462.804
460.568
458.03
455.202
452.096
448.726
445.105
441.248
437.167
432.876
428.387
423.714
418.867
413.861
408.704
403.409
397.985
392.44
386.784
381.025
375.17
369.225
363.196
357.088
350.906
344.656
338.34
331.963
325.53
319.044
312.509
305.931
299.316
292.669
285.999
279.316
272.632
265.961
259.321
252.735
246.229
239.836
233.593
227.543
221.734
216.216
211.039
206.25
201.887
197.97
194.502
191.457
188.788
186.42
184.264
182.215
180.169
178.03
175.716
173.168
170.347
167.238
163.847
160.193
156.31
152.236
148.016
143.694
139.315
134.917
130.54
126.216
121.971
117.832
113.816
109.939
106.213
102.649
99.251
96.0244
92.9697
90.081
87.3579
84.7987
82.4002
80.1586
78.0692
76.1267
74.3254
72.6594
71.1227
69.7091
68.4127
67.2275
66.1474
65.1669
64.2803
63.4821
62.767
62.1297
61.5649
61.0676
60.633
60.2575
59.94
59.6822
59.4981
6.19757
4.18095
4.04304
4.32847
4.79265
5.36542
6.02233
6.75583
7.56595
8.45654
9.43347
10.5039
11.6757
12.9578
14.3595
15.8907
17.5622
19.385
21.3712
23.5331
25.8839
28.4371
31.2067
34.2075
37.4542
40.9624
44.7471
48.8235
53.2054
57.9053
62.9352
68.3064
74.0286
80.1101
86.5574
93.375
100.565
108.124
116.046
124.326
132.956
141.926
151.223
160.834
170.742
180.93
191.38
202.067
212.959
224.033
235.268
246.636
258.111
269.665
281.266
292.883
304.443
315.869
327.117
338.151
348.954
359.502
369.773
379.745
389.395
398.705
407.659
416.241
424.431
432.212
439.574
446.511
453.013
459.077
464.698
469.874
474.601
478.879
482.705
486.084
489.018
491.511
493.569
495.196
496.4
497.185
497.56
497.533
497.115
496.313
495.14
493.604
491.716
489.489
486.935
484.066
480.895
477.434
473.697
469.697
465.447
460.962
456.253
451.333
446.216
440.913
435.437
429.799
424.009
418.078
412.015
405.829
399.529
393.122
386.616
380.016
373.329
366.56
359.714
352.796
345.811
338.764
331.658
324.499
317.292
310.042
302.757
295.444
288.111
280.772
273.438
266.128
258.863
251.669
244.577
237.627
230.864
224.34
218.115
212.251
206.809
201.846
197.403
193.501
190.132
187.256
184.805
182.682
180.77
178.948
177.1
175.122
172.935
170.484
167.741
164.7
161.373
157.79
153.987
150.007
145.897
141.702
137.464
133.223
129.015
124.871
120.817
116.874
113.062
109.393
105.879
102.528
99.3455
96.3283
93.476
90.7891
88.2661
85.9043
83.7001
81.6488
79.745
77.9832
76.3573
74.861
73.4882
72.2325
71.0877
70.0478
69.1066
68.2584
67.4973
66.8175
66.2134
65.6793
65.2097
64.7995
64.4447
64.1449
63.9018
63.7301
6.2345
4.17316
3.99929
4.25389
4.68951
5.23524
5.8665
6.57582
7.36347
8.23378
9.1934
10.2505
11.4143
12.6953
14.1044
15.654
17.3567
19.2263
21.2772
23.5249
25.9852
28.675
31.6107
34.8097
38.2901
42.0697
46.1667
50.5985
55.3814
60.5272
66.049
71.9586
78.2661
84.9793
92.1041
99.6446
107.603
115.97
124.735
133.89
143.423
153.322
163.571
174.15
185.039
196.218
207.671
219.362
231.243
243.294
255.488
267.796
280.186
292.624
305.075
317.476
329.717
341.778
353.623
365.219
376.541
387.564
398.264
408.62
418.608
428.212
437.412
446.195
454.544
462.446
469.89
476.869
483.378
489.412
494.971
500.053
504.658
508.787
512.441
515.625
518.344
520.604
522.411
523.773
524.698
525.193
525.266
524.929
524.19
523.06
521.55
519.669
517.43
514.844
511.923
508.68
505.127
501.276
497.14
492.732
488.065
483.153
478.007
472.642
467.068
461.299
455.346
449.22
442.932
436.494
429.914
423.202
416.366
409.416
402.357
395.199
387.946
380.606
373.183
365.685
358.115
350.48
342.784
335.034
327.233
319.39
311.51
303.6
295.671
287.732
279.797
271.881
264.005
256.192
248.474
240.889
233.481
226.307
219.429
212.921
206.857
201.311
196.347
192.006
188.303
185.213
182.675
180.589
178.829
177.256
175.731
174.128
172.345
170.31
167.977
165.329
162.372
159.128
155.633
151.928
148.06
144.077
140.024
135.943
131.873
127.847
123.896
120.042
116.308
112.708
109.257
105.963
102.832
99.8604
97.0524
94.4086
91.9282
89.6088
87.4468
85.4377
83.5763
81.8567
80.2728
78.8184
77.4869
76.2718
75.1668
74.1653
73.2612
72.4482
71.7202
71.071
70.4945
69.9846
69.5353
69.1412
68.798
68.5062
68.2683
68.1014
6.25038
4.15441
3.94834
4.17429
4.58324
5.10402
5.71225
6.40074
7.17031
8.02603
8.97565
10.0287
11.1964
12.4909
13.9258
15.5159
17.2771
19.226
21.3805
23.7596
26.3832
29.272
32.4449
35.9228
39.7266
43.8776
48.3964
53.3034
58.618
64.3474
70.5052
77.1031
84.1502
91.6524
99.6131
108.034
116.922
126.255
136.01
146.18
156.75
167.7
179.01
190.656
202.61
214.848
227.34
240.051
252.937
265.968
279.11
292.327
305.583
318.839
332.035
345.045
357.85
370.425
382.736
394.753
406.448
417.796
428.773
439.356
449.526
459.263
468.553
477.38
485.733
493.598
500.969
507.838
514.203
520.062
525.416
530.265
534.612
538.461
541.815
544.682
547.067
548.98
550.429
551.422
551.97
552.082
551.766
551.035
549.899
548.368
546.455
544.169
541.522
538.525
535.191
531.531
527.558
523.283
518.72
513.879
508.774
503.417
497.822
491.999
485.96
479.719
473.286
466.673
459.891
452.949
445.859
438.63
431.271
423.79
416.195
408.495
400.697
392.807
384.833
376.78
368.656
360.465
352.214
343.909
335.557
327.164
318.737
310.283
301.813
293.336
284.864
276.412
267.998
259.646
251.382
243.244
235.274
227.528
220.072
212.983
206.346
200.251
194.783
190.008
185.966
182.654
180.022
177.973
176.374
175.067
173.891
172.696
171.356
169.777
167.896
165.685
163.137
160.272
157.12
153.724
150.13
146.388
142.545
138.648
134.737
130.85
127.019
123.271
119.63
116.113
112.737
109.512
106.44
103.523
100.768
98.1752
95.7441
93.4729
91.3582
89.3956
87.5797
85.9049
84.3649
82.9531
81.6629
80.4877
79.4207
78.4553
77.5849
76.8029
76.1028
75.4782
74.9225
74.4291
73.9915
73.604
73.2623
72.9678
72.7244
72.5539
6.24914
4.12746
3.89331
4.09358
4.47882
4.97817
5.56777
6.24109
6.99983
7.85031
8.80187
9.8661
11.0565
12.3881
13.8778
15.5441
17.407
19.4868
21.8059
24.3881
27.2588
30.444
33.9642
37.8439
42.1078
46.7799
51.8829
57.4393
63.4771
69.9856
76.981
84.4735
92.4685
100.967
109.968
119.467
129.456
139.916
150.823
162.158
173.899
186.02
198.492
211.286
224.369
237.706
251.264
265
278.873
292.841
306.867
320.91
334.926
348.845
362.542
376.001
389.199
402.11
414.704
426.952
438.827
450.304
461.361
471.976
482.13
491.807
500.993
509.676
517.845
525.491
532.609
539.194
545.245
550.764
555.752
560.214
564.155
567.581
570.499
572.917
574.845
576.292
577.27
577.789
577.86
577.494
576.702
575.496
573.886
571.885
569.504
566.753
563.645
560.19
556.4
552.286
547.86
543.133
538.118
532.824
527.265
521.452
515.397
509.111
502.606
495.893
488.984
481.89
474.622
467.189
459.602
451.871
444.005
436.014
427.905
419.688
411.37
402.959
394.463
385.889
377.243
368.534
359.767
350.95
342.091
333.196
324.273
315.33
306.377
297.424
288.483
279.566
270.692
261.881
253.159
244.557
236.117
227.892
219.945
212.355
205.214
198.623
192.686
187.496
183.119
179.579
176.845
174.829
173.392
172.363
171.557
170.797
169.933
168.847
167.458
165.721
163.623
161.173
158.4
155.345
152.056
148.584
144.979
141.289
137.56
133.833
130.141
126.516
122.983
119.564
116.276
113.129
110.126
107.276
104.582
102.047
99.6725
97.4554
95.3928
93.4805
91.7133
90.0852
88.59
87.221
85.9714
84.8342
83.8027
82.8698
82.0286
81.2723
80.5941
79.987
79.4441
78.9583
78.5228
78.1316
77.7803
77.4715
77.2113
77.0283
6.23452
4.09483
3.8373
4.01596
4.38201
4.86549
5.44351
6.11072
6.87033
7.73059
8.70332
9.80302
11.0469
12.4537
14.045
15.845
17.88
20.1741
22.7563
25.6571
28.9081
32.5462
36.5874
41.0612
45.9962
51.4177
57.3484
63.8081
70.8139
78.3652
86.468
95.1248
104.333
114.086
124.373
135.18
146.489
158.274
170.506
183.156
196.193
209.584
223.292
237.28
251.51
265.94
280.529
295.23
310.001
324.79
339.559
354.262
368.794
383.053
397.029
410.706
424.06
437.067
449.7
461.933
473.742
485.103
495.996
506.402
516.304
525.689
534.545
542.862
550.632
557.851
564.513
570.619
576.169
581.166
585.617
589.527
592.905
595.759
598.099
599.934
601.278
602.14
602.536
602.476
601.973
601.039
599.686
597.927
595.773
593.237
590.33
587.063
583.447
579.492
575.21
570.611
565.707
560.507
555.023
549.264
543.242
536.968
530.452
523.705
516.739
509.563
502.189
494.628
486.889
478.983
470.92
462.71
454.363
445.887
437.293
428.589
419.784
410.886
401.904
392.845
383.719
374.533
365.294
356.011
346.693
337.347
327.982
318.607
309.232
299.867
290.523
281.215
271.957
262.77
253.675
244.702
235.889
227.282
218.943
210.948
203.389
196.374
190.023
184.451
179.755
175.988
173.146
171.155
169.879
169.133
168.711
168.409
168.048
167.488
166.625
165.4
163.787
161.788
159.429
156.748
153.795
150.62
147.279
143.822
140.298
136.75
133.217
129.732
126.325
123.018
119.832
116.772
113.85
111.074
108.451
105.983
103.671
101.513
99.5072
97.6486
95.9322
94.3521
92.9019
91.575
90.3642
89.2625
88.2628
87.3578
86.5404
85.8035
85.1399
84.5422
84.0033
83.5156
83.0718
82.6658
82.2933
81.9583
81.6697
81.4649
6.21011
4.05908
3.78385
3.94665
4.30041
4.77674
5.35442
6.03012
6.80953
7.70408
8.7296
9.90491
11.2534
12.7991
14.5704
16.6006
18.9274
21.5766
24.5879
28.0001
31.8513
36.1793
41.0115
46.3777
52.3055
58.8179
65.9324
73.6613
82.0103
90.9745
100.547
110.719
121.473
132.79
144.646
157.015
169.866
183.164
196.872
210.951
225.36
240.06
255.007
270.156
285.465
300.885
316.372
331.871
347.342
362.719
377.974
392.943
407.579
421.877
435.826
449.408
462.606
475.399
487.762
499.674
511.114
522.062
532.5
542.414
551.789
560.614
568.881
576.583
583.715
590.275
596.262
601.678
606.527
610.814
614.547
617.736
620.39
622.521
624.141
625.262
625.897
626.061
625.768
625.031
623.864
622.279
620.291
617.912
615.154
612.028
608.548
604.722
600.561
596.076
591.277
586.174
580.775
575.091
569.131
562.905
556.421
549.691
542.722
535.527
528.113
520.491
512.672
504.665
496.48
488.128
479.618
470.959
462.163
453.238
444.194
435.041