/*--------------------------------*- C++ -*----------------------------------*\
  =========                 |
  \\      /  F ield         | OpenFOAM: The Open Source CFD Toolbox
   \\    /   O peration     | Website:  https://openfoam.org
    \\  /    A nd           | Version:  7
     \\/     M anipulation  |
\*---------------------------------------------------------------------------*/
FoamFile
{
    version     2.0;
    format      ascii;
    class       volScalarField;
    location    "700";
    object      k;
}
// * * * * * * * * * * * * * * * * * * * * * * * * * * * * * * * * * * * * * //

dimensions      [0 2 -2 0 0 0 0];

internalField   nonuniform List<scalar> 
16900
(
0.0144271
0.0313168
0.0475792
0.0623292
0.075463
0.0870356
0.0971689
0.105983
0.113576
0.120008
0.125306
0.129477
0.132544
0.134656
0.13623
0.137994
0.137453
0.139014
0.149306
0.160101
0.171223
0.182651
0.194373
0.206384
0.218681
0.231262
0.244126
0.257268
0.270684
0.284369
0.298313
0.312509
0.326947
0.341614
0.356499
0.371587
0.386863
0.402311
0.417913
0.433652
0.449508
0.46546
0.481489
0.49757
0.513683
0.529801
0.545902
0.561958
0.577944
0.593832
0.609594
0.625202
0.640627
0.65584
0.670815
0.685526
0.699948
0.714065
0.727864
0.741344
0.754521
0.767435
0.780169
0.792538
0.804408
0.815769
0.826608
0.836911
0.846661
0.855846
0.86445
0.872461
0.879868
0.88666
0.892828
0.898365
0.903265
0.907525
0.911142
0.914118
0.916456
0.91816
0.91924
0.919704
0.919564
0.918836
0.917537
0.915686
0.913305
0.910418
0.907051
0.903229
0.898983
0.894343
0.889339
0.884006
0.878377
0.872483
0.866359
0.860038
0.853555
0.846942
0.840235
0.833462
0.826655
0.819842
0.813054
0.80632
0.799667
0.793118
0.786696
0.780423
0.774324
0.768423
0.76274
0.757288
0.752087
0.74716
0.742535
0.738226
0.734243
0.73061
0.727365
0.724531
0.722111
0.720129
0.718651
0.717694
0.717242
0.717314
0.718005
0.719324
0.721253
0.723952
0.727719
0.734963
0.744671
0.755436
0.766946
0.779025
0.79149
0.804122
0.816662
0.828812
0.840249
0.85063
0.85962
0.866904
0.872216
0.875348
0.876171
0.874634
0.870764
0.864657
0.85647
0.846396
0.834662
0.821504
0.807163
0.791871
0.775848
0.759292
0.742386
0.725286
0.70813
0.691035
0.674099
0.657402
0.641012
0.62498
0.609348
0.594147
0.579402
0.565129
0.55134
0.538039
0.525233
0.51292
0.501102
0.489784
0.478981
0.468756
0.459032
0.449756
0.440891
0.432413
0.424303
0.41655
0.409142
0.402069
0.395325
0.388902
0.382792
0.376989
0.371484
0.366266
0.361321
0.35662
0.35212
0.347592
0.0281495
0.0481784
0.0653066
0.0810971
0.0954421
0.108366
0.120027
0.130631
0.140386
0.149496
0.158185
0.166743
0.175654
0.185721
0.197904
0.212013
0.229178
0.246623
0.264903
0.283642
0.30299
0.322953
0.34351
0.364645
0.386354
0.408635
0.431488
0.454909
0.478894
0.503439
0.528534
0.554169
0.580331
0.607005
0.634174
0.661818
0.689915
0.718442
0.747373
0.776682
0.806339
0.836314
0.866575
0.897088
0.927819
0.958731
0.989785
1.02094
1.05216
1.08339
1.1146
1.14573
1.17673
1.20756
1.23816
1.26849
1.29848
1.32809
1.35728
1.38599
1.4142
1.44187
1.46887
1.495
1.52037
1.54495
1.56872
1.59164
1.61368
1.6348
1.65496
1.67414
1.6923
1.70941
1.72544
1.74037
1.75417
1.76683
1.77832
1.78864
1.79778
1.80573
1.8125
1.81809
1.82251
1.82578
1.82792
1.82894
1.8289
1.8278
1.82571
1.82266
1.81869
1.81385
1.80821
1.80182
1.79473
1.78701
1.77871
1.76991
1.76066
1.75103
1.74109
1.73089
1.72051
1.70999
1.6994
1.6888
1.67825
1.66781
1.65752
1.64744
1.63763
1.62813
1.619
1.61029
1.60204
1.59431
1.58716
1.58064
1.57481
1.56972
1.56543
1.56203
1.55958
1.55813
1.5578
1.55863
1.56071
1.5641
1.56893
1.57518
1.58288
1.59214
1.60293
1.61548
1.62967
1.6451
1.66149
1.67851
1.69575
1.71271
1.72883
1.74348
1.756
1.76574
1.7721
1.77452
1.77259
1.76603
1.75472
1.7387
1.71815
1.69339
1.66483
1.63295
1.59828
1.56133
1.52263
1.48266
1.44187
1.40066
1.35938
1.31834
1.27778
1.23793
1.19894
1.16096
1.12409
1.0884
1.05395
1.02079
0.988931
0.958384
0.92915
0.901222
0.874588
0.849233
0.825143
0.802316
0.780769
0.76034
0.74097
0.722621
0.705258
0.68885
0.673367
0.658782
0.645069
0.632202
0.620156
0.608906
0.598428
0.588698
0.579692
0.571384
0.563743
0.556728
0.550305
0.544539
0.0391749
0.0619996
0.0802225
0.0969272
0.112473
0.126963
0.140592
0.153645
0.166448
0.179356
0.192738
0.206987
0.222521
0.239748
0.258849
0.2795
0.301653
0.324659
0.348325
0.372577
0.397498
0.423133
0.449491
0.476571
0.504372
0.532893
0.562135
0.592092
0.622761
0.654132
0.686196
0.718937
0.75234
0.786384
0.821047
0.856302
0.892123
0.928478
0.965334
1.00266
1.04041
1.07855
1.11703
1.15583
1.19488
1.23415
1.27359
1.31315
1.35277
1.39242
1.43202
1.47154
1.5109
1.55005
1.58893
1.62748
1.66563
1.70332
1.74049
1.77708
1.81305
1.84834
1.88267
1.91608
1.94854
1.98004
2.01052
2.03996
2.0683
2.09551
2.12153
2.14632
2.16985
2.19208
2.21296
2.23247
2.25058
2.26726
2.28248
2.29624
2.30852
2.3193
2.3286
2.33641
2.34275
2.34762
2.35106
2.35308
2.35373
2.35305
2.35108
2.34786
2.34346
2.33794
2.33135
2.32377
2.31527
2.30592
2.29579
2.28497
2.27352
2.26152
2.24907
2.23622
2.22306
2.20966
2.19609
2.18243
2.16874
2.15511
2.14159
2.12824
2.11512
2.10231
2.08988
2.07788
2.06636
2.05539
2.04505
2.03541
2.02653
2.01849
2.01136
2.00525
2.00023
1.99641
1.99388
1.99277
1.99316
1.99514
1.99875
2.00411
2.01127
2.02031
2.03125
2.0441
2.05869
2.07474
2.09193
2.10987
2.12805
2.14588
2.16265
2.17761
2.18998
2.19896
2.20382
2.20394
2.19881
2.18813
2.17177
2.14979
2.12244
2.09012
2.05335
2.0127
1.96882
1.92235
1.8739
1.82408
1.77341
1.72238
1.67139
1.62082
1.57095
1.52203
1.47427
1.42781
1.38278
1.33926
1.29733
1.257
1.21832
1.18128
1.14589
1.11213
1.07999
1.04945
1.02049
0.993111
0.967201
0.942663
0.919454
0.89753
0.876846
0.857361
0.839034
0.821826
0.805699
0.790616
0.776542
0.763443
0.751285
0.740036
0.729666
0.720139
0.711422
0.703475
0.696314
0.690256
0.0479961
0.0734135
0.0928178
0.110377
0.126988
0.142925
0.15843
0.173814
0.189433
0.20565
0.222806
0.2412
0.261067
0.28255
0.305629
0.3301
0.355796
0.382468
0.409918
0.438077
0.466987
0.496693
0.527216
0.558567
0.590749
0.623766
0.657617
0.6923
0.72781
0.764138
0.801274
0.839201
0.877901
0.917352
0.957528
0.9984
1.03994
1.0821
1.12485
1.16815
1.21196
1.25622
1.30089
1.34593
1.39128
1.43688
1.48269
1.52864
1.57469
1.62076
1.66682
1.71278
1.75859
1.80418
1.84948
1.89442
1.93893
1.98294
2.02637
2.06915
2.11122
2.15248
2.19268
2.23184
2.26993
2.30692
2.34276
2.37739
2.41078
2.44286
2.47359
2.50292
2.5308
2.5572
2.58205
2.60534
2.62702
2.64706
2.66543
2.68211
2.69708
2.71034
2.72188
2.7317
2.7398
2.74621
2.75095
2.75403
2.7555
2.7554
2.75378
2.75069
2.74618
2.74034
2.73321
2.72488
2.71543
2.70493
2.69347
2.68113
2.668
2.65415
2.63969
2.62469
2.60925
2.59344
2.57733
2.56102
2.54458
2.52809
2.51163
2.49526
2.47905
2.46307
2.44741
2.43212
2.41728
2.40295
2.38918
2.37611
2.3638
2.35231
2.34171
2.33216
2.32378
2.31663
2.31082
2.30649
2.30376
2.30275
2.30355
2.30628
2.31103
2.31789
2.32692
2.33807
2.35117
2.36598
2.38217
2.39932
2.41689
2.43422
2.45053
2.46499
2.47671
2.48479
2.48843
2.4869
2.47965
2.46632
2.44677
2.42107
2.3895
2.35249
2.31063
2.26457
2.21502
2.16269
2.10827
2.05241
1.99571
1.93869
1.88181
1.82546
1.76997
1.71561
1.66259
1.61108
1.5612
1.51306
1.46671
1.4222
1.37955
1.33877
1.29984
1.26275
1.2275
1.19404
1.16238
1.13243
1.10407
1.07725
1.05193
1.02806
1.00558
0.984444
0.964607
0.94602
0.928635
0.912409
0.897299
0.883264
0.870265
0.858264
0.847224
0.837108
0.827879
0.819507
0.812056
0.806004
0.0553602
0.0828678
0.103446
0.12185
0.139416
0.156612
0.173735
0.191101
0.209041
0.227871
0.247864
0.26922
0.29206
0.316418
0.34223
0.369358
0.397667
0.427015
0.457271
0.488378
0.520347
0.553209
0.586984
0.621685
0.657323
0.693902
0.731426
0.769893
0.809301
0.849643
0.890908
0.933082
0.976145
1.02007
1.06484
1.11042
1.15677
1.20385
1.25163
1.30005
1.34906
1.39862
1.44866
1.49914
1.55
1.60117
1.6526
1.70423
1.75598
1.8078
1.85962
1.91138
1.963
2.0144
2.06552
2.11627
2.16657
2.21634
2.2655
2.31396
2.36164
2.40832
2.45388
2.49831
2.54156
2.58359
2.62434
2.66376
2.7018
2.73839
2.77349
2.80703
2.83898
2.86927
2.89787
2.92472
2.94979
2.97304
2.99444
3.01396
3.03158
3.04729
3.06107
3.07293
3.08287
3.09089
3.09703
3.10131
3.10375
3.10441
3.10332
3.10055
3.09616
3.09021
3.08277
3.07392
3.06374
3.05232
3.03974
3.0261
3.01148
2.99597
2.97967
2.96267
2.94507
2.92694
2.90838
2.88947
2.87029
2.85094
2.8315
2.81203
2.7926
2.77328
2.75418
2.73536
2.7169
2.69884
2.68123
2.66427
2.648
2.63249
2.61783
2.60413
2.59154
2.58015
2.57008
2.5615
2.55453
2.54934
2.54607
2.54485
2.54582
2.54911
2.55481
2.56287
2.57319
2.58554
2.59964
2.61506
2.63124
2.64749
2.66299
2.67683
2.68802
2.69558
2.69859
2.69624
2.6879
2.67314
2.65179
2.62389
2.58974
2.54979
2.50467
2.45507
2.40176
2.34551
2.28705
2.22709
2.16627
2.10515
2.04423
1.98392
1.92458
1.86649
1.80988
1.75492
1.70176
1.65049
1.60118
1.55387
1.50858
1.46533
1.42409
1.38486
1.34761
1.31232
1.27894
1.24733
1.21744
1.18921
1.16259
1.13753
1.11398
1.09188
1.07116
1.05179
1.0337
1.01684
1.00117
0.986646
0.973217
0.960843
0.949484
0.939101
0.929658
0.921134
0.913632
0.907719
0.0615651
0.0906623
0.112305
0.131506
0.149908
0.168151
0.186587
0.205527
0.225267
0.24607
0.268142
0.291619
0.316565
0.342973
0.37078
0.399886
0.430191
0.461603
0.494038
0.527452
0.561845
0.597234
0.633637
0.67107
0.709545
0.749072
0.789655
0.831299
0.874003
0.917764
0.962572
1.00841
1.05527
1.10313
1.15195
1.2017
1.25236
1.30386
1.35618
1.40925
1.46302
1.51744
1.57245
1.62798
1.68396
1.74033
1.79703
1.85398
1.91112
1.96837
2.02566
2.08291
2.14005
2.197
2.25367
2.30997
2.36582
2.42111
2.47574
2.52963
2.58267
2.63455
2.68524
2.73471
2.78289
2.82974
2.87519
2.91919
2.96168
3.0026
3.04189
3.0795
3.11535
3.14942
3.18163
3.21195
3.24033
3.26672
3.2911
3.31343
3.33368
3.35183
3.36788
3.38181
3.39363
3.40335
3.41097
3.41653
3.42005
3.42158
3.42115
3.41883
3.41468
3.40875
3.40112
3.39187
3.38109
3.36886
3.35528
3.34043
3.3244
3.3073
3.28921
3.27024
3.2505
3.23006
3.20902
3.18745
3.16546
3.14314
3.12059
3.09786
3.07502
3.05211
3.02932
3.00669
2.98428
2.96216
2.94038
2.91909
2.89836
2.87827
2.85892
2.84042
2.82291
2.80652
2.79139
2.77768
2.76556
2.75522
2.74685
2.74062
2.73671
2.73531
2.73654
2.74044
2.74696
2.75595
2.76715
2.7802
2.79453
2.80946
2.82411
2.83751
2.84858
2.85625
2.85945
2.85726
2.84894
2.83398
2.81212
2.78339
2.74806
2.7066
2.65965
2.60795
2.5523
2.49352
2.4324
2.36968
2.30605
2.2421
2.17836
2.11528
2.05322
1.99249
1.93334
1.87595
1.82048
1.76701
1.71563
1.66638
1.61928
1.57433
1.53153
1.49087
1.45231
1.41582
1.38128
1.34859
1.31771
1.2886
1.26118
1.23541
1.21123
1.18856
1.16735
1.14755
1.12909
1.11192
1.09599
1.08124
1.06763
1.05512
1.04367
1.03322
1.02375
1.01525
1.00784
1.00214
0.0667754
0.0970187
0.119554
0.139456
0.158565
0.177644
0.1971
0.217239
0.238325
0.260577
0.284154
0.309151
0.335606
0.363502
0.392785
0.423383
0.455225
0.488247
0.522394
0.557637
0.593971
0.631409
0.669967
0.709663
0.750511
0.792526
0.835718
0.880095
0.925659
0.972411
1.02035
1.06945
1.11972
1.17112
1.22362
1.27721
1.33182
1.38743
1.44398
1.50142
1.55968
1.6187
1.67841
1.73875
1.79964
1.861
1.92277
1.98486
2.04719
2.10969
2.17227
2.23486
2.29736
2.35969
2.42175
2.48345
2.54467
2.60532
2.66529
2.72444
2.78261
2.83952
2.89516
2.94947
3.0024
3.05388
3.10386
3.15226
3.19904
3.24411
3.28743
3.32893
3.36855
3.40624
3.44194
3.47561
3.50719
3.53663
3.5639
3.58896
3.61179
3.63235
3.65063
3.66663
3.68034
3.69175
3.70089
3.70776
3.7124
3.71485
3.71515
3.71334
3.70949
3.70366
3.69593
3.68636
3.67504
3.66206
3.64753
3.63152
3.61413
3.59546
3.57559
3.55466
3.53277
3.50999
3.48642
3.46212
3.43721
3.41183
3.38604
3.35991
3.33351
3.30691
3.28023
3.25354
3.2269
3.2004
3.1741
3.14811
3.12251
3.0974
3.07288
3.04907
3.02611
3.00413
2.9833
2.9638
2.94581
2.92956
2.91528
2.90319
2.89352
2.88652
2.88239
2.88125
2.88313
2.888
2.89568
2.90585
2.91802
2.9315
2.94541
2.95869
2.97019
2.97869
2.98299
2.98202
2.97488
2.96094
2.93986
2.9116
2.87639
2.8347
2.78718
2.73461
2.67782
2.61767
2.555
2.49059
2.42517
2.35936
2.29374
2.22877
2.16485
2.10229
2.04138
1.98229
1.9252
1.8702
1.81738
1.76679
1.71845
1.67237
1.62853
1.58693
1.54752
1.51023
1.47492
1.44156
1.41008
1.38044
1.35257
1.32641
1.30188
1.27894
1.2575
1.23751
1.21891
1.20164
1.18564
1.17086
1.15725
1.14477
1.13336
1.12298
1.11361
1.10523
1.09801
1.09255
0.0711082
0.10212
0.125353
0.14583
0.165506
0.185227
0.205442
0.226458
0.248515
0.2718
0.296441
0.322511
0.350034
0.378997
0.40936
0.44107
0.474079
0.508343
0.543829
0.580516
0.618405
0.657506
0.697839
0.739423
0.782277
0.826419
0.871865
0.918628
0.966716
1.01613
1.06688
1.11895
1.17233
1.22699
1.28292
1.34008
1.39843
1.45791
1.51849
1.58008
1.64264
1.70609
1.77035
1.83534
1.90099
1.9672
2.0339
2.101
2.1684
2.23602
2.30377
2.37155
2.43928
2.50686
2.57417
2.64112
2.70758
2.77343
2.83856
2.90283
2.96587
3.02761
3.08799
3.14693
3.20439
3.26029
3.31457
3.36717
3.41801
3.46703
3.51417
3.55935
3.60254
3.64365
3.68265
3.71948
3.75409
3.78643
3.81644
3.8441
3.86937
3.89224
3.91267
3.93065
3.94617
3.95924
3.96984
3.97801
3.98376
3.98713
3.98816
3.98688
3.98336
3.97766
3.96984
3.95998
3.94816
3.93448
3.91903
3.90189
3.88317
3.86294
3.84129
3.8184
3.79435
3.76922
3.7431
3.71607
3.68825
3.65975
3.63065
3.60102
3.57094
3.54049
3.50976
3.47884
3.44779
3.41668
3.38561
3.35467
3.32393
3.2935
3.26349
3.23402
3.20523
3.17726
3.1503
3.12453
3.10018
3.07748
3.05669
3.03811
3.02201
3.00871
2.9985
2.99159
2.98816
2.98826
2.99186
2.99873
3.00846
3.02041
3.0337
3.04722
3.05971
3.06981
3.07615
3.07745
3.07266
3.06097
3.04192
3.01538
2.98153
2.94081
2.89388
2.84155
2.78467
2.72416
2.6609
2.59571
2.52935
2.46251
2.39577
2.32964
2.26453
2.2008
2.13873
2.07852
2.02035
1.96435
1.91058
1.85911
1.80997
1.76316
1.71868
1.6765
1.63659
1.59877
1.56302
1.52927
1.49748
1.46757
1.43949
1.41317
1.38853
1.36551
1.34403
1.32404
1.30546
1.28825
1.27232
1.25764
1.24415
1.2318
1.22053
1.21031
1.2011
1.19291
1.18591
1.1807
0.0746607
0.106129
0.129865
0.150779
0.170879
0.191064
0.211813
0.233436
0.256159
0.280144
0.305503
0.332297
0.360548
0.390247
0.42137
0.453881
0.48775
0.52295
0.559462
0.597278
0.636404
0.676853
0.718649
0.761814
0.806373
0.852351
0.899769
0.948645
0.998994
1.05083
1.10414
1.15894
1.21522
1.27295
1.3321
1.39265
1.45456
1.51776
1.58221
1.64783
1.71455
1.7823
1.85099
1.92053
1.99082
2.06178
2.13331
2.2053
2.27766
2.35029
2.42308
2.49594
2.56876
2.64143
2.71384
2.78587
2.85739
2.92826
2.99833
3.0674
3.13511
3.20143
3.26627
3.32959
3.3913
3.45135
3.50966
3.56617
3.6208
3.67348
3.72415
3.77274
3.8192
3.86348
3.90552
3.94526
3.98265
4.01764
4.05018
4.08023
4.10775
4.13274
4.15515
4.17497
4.19218
4.20677
4.21875
4.22812
4.23492
4.23916
4.24087
4.24009
4.23688
4.2313
4.22341
4.21327
4.20095
4.18657
4.17023
4.15199
4.13197
4.11023
4.0869
4.06209
4.0359
4.00843
3.97977
3.95001
3.91926
3.88761
3.85516
3.82198
3.78817
3.75379
3.71893
3.68368
3.64811
3.6123
3.57633
3.54029
3.50426
3.46836
3.4327
3.39738
3.36256
3.32839
3.29506
3.26276
3.23174
3.20225
3.1746
3.1491
3.12611
3.10601
3.08917
3.07593
3.0666
3.06139
3.0604
3.06356
3.07057
3.08088
3.09364
3.1077
3.12172
3.13415
3.14343
3.14806
3.14675
3.13851
3.12271
3.0991
3.06777
3.02916
2.98391
2.93283
2.87684
2.81688
2.75388
2.68871
2.62217
2.55499
2.48779
2.42111
2.3554
2.29103
2.22831
2.16746
2.10867
2.05207
1.99776
1.94579
1.8962
1.84899
1.80418
1.76173
1.7215
1.68343
1.64747
1.61358
1.58168
1.55172
1.52362
1.49732
1.47273
1.44978
1.42841
1.40855
1.39012
1.37306
1.35732
1.34282
1.32953
1.31737
1.30629
1.29627
1.28725
1.27926
1.27248
1.2675
0.0775198
0.109193
0.133252
0.154462
0.174849
0.195338
0.216428
0.238433
0.26157
0.285989
0.31179
0.33903
0.367733
0.3979
0.429519
0.462573
0.497044
0.532922
0.5702
0.608882
0.648982
0.69052
0.733524
0.778022
0.824047
0.87163
0.920798
0.971576
1.02399
1.07804
1.13375
1.19111
1.25013
1.31077
1.37302
1.43684
1.50218
1.569
1.63722
1.70677
1.77757
1.84953
1.92256
1.99656
2.07142
2.14703
2.2233
2.30009
2.3773
2.45482
2.53252
2.6103
2.68805
2.76564
2.84295
2.91984
2.99618
3.07182
3.1466
3.22008
3.29214
3.3627
3.43169
3.49903
3.56466
3.62851
3.69049
3.75056
3.80862
3.8646
3.91844
3.97009
4.01948
4.06656
4.11129
4.15362
4.19348
4.23082
4.26558
4.29773
4.32724
4.35409
4.37825
4.39971
4.41841
4.43436
4.44755
4.45799
4.4657
4.47071
4.47302
4.47267
4.46973
4.46423
4.45624
4.44583
4.43305
4.41802
4.40082
4.38152
4.36024
4.33704
4.31205
4.28536
4.25709
4.22731
4.19615
4.16368
4.13001
4.09524
4.05945
4.02274
3.98518
3.94687
3.90788
3.86829
3.82819
3.78765
3.74677
3.70562
3.6643
3.6229
3.58155
3.54037
3.49949
3.45907
3.41931
3.38041
3.34262
3.30621
3.27152
3.23891
3.20877
3.18155
3.15772
3.13773
3.12205
3.11105
3.10501
3.10404
3.10802
3.11651
3.12874
3.14357
3.15954
3.17496
3.18803
3.19698
3.20025
3.19661
3.18523
3.1657
3.13803
3.1026
3.06003
3.01118
2.95697
2.89839
2.83642
2.77199
2.70594
2.63904
2.57196
2.50528
2.43947
2.37494
2.312
2.25092
2.19189
2.13506
2.08053
2.02837
1.97862
1.9313
1.88641
1.84386
1.80355
1.76544
1.72949
1.69563
1.66381
1.63395
1.60599
1.57984
1.55543
1.53268
1.51152
1.49187
1.47368
1.45686
1.44136
1.4271
1.41404
1.4021
1.39124
1.38141
1.37257
1.36476
1.35815
1.35336
0.079766
0.111444
0.135668
0.157042
0.177587
0.198237
0.219503
0.241702
0.265046
0.28968
0.315699
0.34316
0.372091
0.402506
0.434404
0.467783
0.502641
0.538982
0.576812
0.616147
0.657009
0.699428
0.743439
0.789079
0.836387
0.885401
0.936157
0.988687
1.04302
1.09917
1.15715
1.21697
1.27863
1.3421
1.40736
1.47438
1.5431
1.61347
1.6854
1.75882
1.83364
1.90976
1.98707
2.06546
2.14481
2.22501
2.30591
2.3874
2.46934
2.5516
2.63406
2.71658
2.79905
2.88133
2.96328
3.04477
3.12563
3.20572
3.28471
3.36226
3.43828
3.51269
3.58541
3.65637
3.72549
3.7927
3.85793
3.92112
3.98218
4.04103
4.09761
4.15187
4.20376
4.25323
4.30023
4.34474
4.38669
4.42599
4.46261
4.49651
4.52768
4.55608
4.5817
4.60453
4.62446
4.64153
4.65572
4.66705
4.67553
4.68116
4.68396
4.68397
4.68123
4.67578
4.66768
4.65699
4.64376
4.62809
4.61005
4.58974
4.56723
4.54263
4.51602
4.48751
4.4572
4.42518
4.39157
4.35645
4.31992
4.28208
4.24302
4.20283
4.1616
4.11941
4.07636
4.03251
3.98795
3.94277
3.89704
3.85087
3.80434
3.75755
3.71062
3.66366
3.61683
3.57027
3.52419
3.47878
3.4343
3.39105
3.34935
3.30961
3.27225
3.2378
3.20679
3.17981
3.15745
3.14027
3.12877
3.12326
3.12383
3.13025
3.14185
3.15754
3.17579
3.19474
3.21234
3.22652
3.23541
3.23746
3.23161
3.21726
3.19433
3.16309
3.12418
3.07845
3.02685
2.97043
2.91022
2.84718
2.78224
2.71619
2.64975
2.58354
2.51808
2.4538
2.39104
2.33008
2.27115
2.21439
2.15994
2.10786
2.0582
2.011
1.96623
1.92376
1.88355
1.84558
1.80979
1.77613
1.74453
1.71491
1.6872
1.66131
1.63718
1.61471
1.59384
1.57448
1.55657
1.54004
1.52481
1.51081
1.49799
1.48627
1.4756
1.46593
1.45722
1.44952
1.44302
1.43836
0.0814742
0.113004
0.137258
0.158678
0.179262
0.199945
0.221245
0.243481
0.266864
0.291536
0.317589
0.345086
0.374063
0.404544
0.436542
0.470069
0.505139
0.541769
0.579981
0.619801
0.661265
0.704412
0.749285
0.795932
0.844399
0.894733
0.94698
1.00118
1.05736
1.11554
1.17575
1.23799
1.30225
1.36852
1.43678
1.50698
1.57907
1.65297
1.72861
1.80588
1.8847
1.96494
2.04648
2.12921
2.21299
2.29767
2.38312
2.46918
2.5557
2.64254
2.72954
2.81657
2.9035
2.99017
3.07645
3.16217
3.24718
3.33127
3.41395
3.4951
3.5746
3.65237
3.72833
3.8024
3.8745
3.94457
4.01253
4.07834
4.1419
4.2031
4.2619
4.31827
4.37216
4.42352
4.47231
4.51853
4.56213
4.60295
4.64099
4.67625
4.70868
4.73827
4.76498
4.78881
4.80969
4.82763
4.84261
4.85462
4.86369
4.8698
4.87298
4.87324
4.87062
4.86516
4.8569
4.8459
4.83221
4.8159
4.79706
4.77575
4.75206
4.72609
4.69793
4.66766
4.63539
4.60122
4.56524
4.52756
4.48827
4.44746
4.40524
4.36168
4.3169
4.27096
4.22396
4.17598
4.12711
4.07744
4.02704
3.97602
3.92446
3.87248
3.82017
3.76766
3.7151
3.66264
3.61047
3.55879
3.50786
3.45798
3.40949
3.36279
3.31836
3.27674
3.23856
3.20449
3.17527
3.15165
3.13432
3.12386
3.12063
3.12462
3.13537
3.15187
3.17257
3.19546
3.21822
3.23844
3.25388
3.26265
3.26339
3.25529
3.2381
3.21204
3.1777
3.13593
3.08774
3.03421
2.97641
2.91539
2.85211
2.78742
2.72211
2.65682
2.59211
2.52845
2.46621
2.4057
2.34715
2.29075
2.23663
2.18487
2.13553
2.08865
2.04413
2.00191
1.96198
1.9243
1.88883
1.85549
1.82422
1.79494
1.76757
1.74204
1.71825
1.69613
1.67559
1.65656
1.63896
1.62273
1.60777
1.59402
1.58142
1.56988
1.55935
1.54976
1.5411
1.53341
1.52692
1.52231
0.0827149
0.113983
0.138155
0.159515
0.180033
0.200639
0.221853
0.243996
0.267278
0.291841
0.317781
0.345165
0.37404
0.404441
0.436396
0.469933
0.50508
0.54187
0.580339
0.62053
0.662489
0.706268
0.75192
0.799503
0.849073
0.900687
0.954397
1.01025
1.06828
1.12852
1.19097
1.25566
1.32257
1.39169
1.46298
1.53641
1.61191
1.68939
1.76876
1.84991
1.93272
2.01706
2.10281
2.18982
2.27794
2.36702
2.45689
2.54737
2.63829
2.72946
2.82075
2.912
3.00304
3.09373
3.1839
3.27341
3.36206
3.44947
3.53534
3.61953
3.70195
3.7825
3.86112
3.93771
4.0122
4.08452
4.15462
4.22248
4.28795
4.35091
4.41136
4.46926
4.52458
4.57728
4.62733
4.67469
4.71933
4.76118
4.80019
4.83636
4.86965
4.90003
4.92749
4.952
4.97353
4.99205
5.00755
5.02003
5.02947
5.03589
5.03929
5.03968
5.03709
5.03153
5.02305
5.0117
4.99753
4.98059
4.96094
4.93867
4.91386
4.88658
4.85692
4.82498
4.79085
4.75462
4.71639
4.67627
4.63434
4.59071
4.54546
4.4987
4.45052
4.40101
4.35025
4.29834
4.24537
4.19141
4.13658
4.08095
4.02462
3.96771
3.91031
3.85256
3.79459
3.73656
3.67865
3.62106
3.56405
3.5079
3.45297
3.39965
3.34843
3.2999
3.25472
3.21366
3.17756
3.14734
3.12393
3.10817
3.10071
3.10185
3.11139
3.1285
3.15167
3.17875
3.20715
3.2341
3.25694
3.27338
3.28171
3.28086
3.27039
3.25043
3.22153
3.18454
3.14049
3.09053
3.03578
2.97735
2.91625
2.85342
2.78966
2.72569
2.66211
2.59941
2.53801
2.47823
2.42035
2.36455
2.31098
2.25975
2.21092
2.16451
2.12039
2.07859
2.03908
2.00183
1.96678
1.93387
1.90303
1.87418
1.84723
1.8221
1.7987
1.77696
1.75678
1.73809
1.7208
1.70485
1.69014
1.6766
1.66416
1.65274
1.64226
1.63266
1.62393
1.61614
1.60953
1.60488
0.0835536
0.114479
0.138479
0.159689
0.18005
0.200483
0.221509
0.24345
0.266518
0.290855
0.316564
0.343719
0.372377
0.402588
0.434395
0.467843
0.502976
0.539844
0.578501
0.619003
0.661413
0.705796
0.752216
0.800741
0.851438
0.904373
0.959607
1.01719
1.07717
1.13956
1.20438
1.27163
1.34131
1.41339
1.48784
1.56461
1.64363
1.72479
1.80796
1.89302
1.97985
2.0683
2.15821
2.24944
2.34179
2.43512
2.52925
2.62396
2.71901
2.81423
2.90946
3.00452
3.09924
3.19345
3.28698
3.37967
3.4712
3.56129
3.64972
3.73629
3.82095
3.90363
3.98422
4.06266
4.13886
4.21276
4.28431
4.35345
4.42009
4.48416
4.54562
4.60444
4.66059
4.71404
4.76477
4.81274
4.85793
4.90028
4.93978
4.97639
5.01009
5.04086
5.06867
5.09351
5.11534
5.13414
5.14988
5.16256
5.17217
5.1787
5.18215
5.18252
5.17983
5.17408
5.16532
5.15358
5.13889
5.12131
5.10089
5.0777
5.0518
5.02328
4.99222
4.95871
4.92282
4.88466
4.84433
4.80191
4.75751
4.71122
4.66314
4.61337
4.56199
4.50912
4.45483
4.39923
4.3424
4.28444
4.22544
4.16551
4.10473
4.04322
3.98109
3.91846
3.85548
3.79229
3.72906
3.66601
3.60338
3.54144
3.48052
3.42105
3.3635
3.30846
3.25663
3.20883
3.166
3.1292
3.09956
3.07821
3.06612
3.06394
3.07182
3.08919
3.11465
3.14599
3.18036
3.21461
3.24558
3.27055
3.28739
3.29472
3.2919
3.27893
3.2563
3.22485
3.18567
3.13993
3.08882
3.03352
2.97511
2.91457
2.85279
2.79052
2.7284
2.66698
2.6067
2.54793
2.49095
2.43598
2.38318
2.33267
2.28453
2.23868
2.19513
2.15388
2.11492
2.0782
2.04368
2.01129
1.98095
1.95258
1.92609
1.9014
1.87842
1.85707
1.83725
1.81888
1.80188
1.78617
1.77165
1.75826
1.7459
1.73449
1.72396
1.71424
1.70531
1.69727
1.6904
1.68559
0.0840513
0.11458
0.138336
0.159321
0.179446
0.199626
0.220381
0.242033
0.264796
0.288817
0.314204
0.341043
0.369404
0.399352
0.430947
0.464253
0.499333
0.536255
0.57509
0.615915
0.658809
0.703852
0.751119
0.800686
0.852633
0.907034
0.963957
1.02346
1.0856
1.15036
1.21775
1.28779
1.36045
1.43571
1.51351
1.59381
1.67652
1.7615
1.84857
1.93762
2.02849
2.12102
2.21504
2.31037
2.40681
2.50418
2.60233
2.701
2.79982
2.89867
2.99737
3.09571
3.19353
3.29063
3.38683
3.48187
3.57538
3.66729
3.75741
3.84559
3.93174
4.01576
4.09758
4.17711
4.25428
4.32902
4.40128
4.47101
4.53815
4.60263
4.66443
4.72351
4.77985
4.83343
4.88423
4.93223
4.97742
5.01975
5.05921
5.09578
5.12943
5.16015
5.18791
5.2127
5.23448
5.25322
5.26892
5.28154
5.29107
5.2975
5.30082
5.30102
5.29811
5.29208
5.28297
5.27078
5.25556
5.23734
5.21617
5.1921
5.1652
5.13553
5.10316
5.06819
5.03069
4.99075
4.94846
4.90393
4.85724
4.8085
4.7578
4.70524
4.65091
4.59493
4.53738
4.47837
4.41798
4.35632
4.29349
4.22958
4.16471
4.09899
4.03252
3.96544
3.89787
3.82998
3.76194
3.69393
3.6262
3.55901
3.49268
3.42762
3.36429
3.30328
3.24528
3.19116
3.14191
3.09871
3.06286
3.03574
3.01866
3.01269
3.01838
3.03552
3.06293
3.09841
3.1389
3.18084
3.22056
3.25482
3.28101
3.29741
3.30312
3.29797
3.28241
3.25726
3.22362
3.18272
3.13583
3.08418
3.02892
2.97111
2.91169
2.85147
2.79114
2.73129
2.67241
2.61489
2.55904
2.50509
2.45325
2.40363
2.35628
2.31115
2.2683
2.22773
2.18942
2.15333
2.11942
2.08761
2.05782
2.02997
2.00397
1.97974
1.95718
1.9362
1.91671
1.89863
1.88187
1.86633
1.85194
1.83859
1.82621
1.81471
1.80399
1.794
1.78472
1.77627
1.76899
1.76392
0.0842651
0.114363
0.137819
0.158517
0.178343
0.198204
0.21862
0.239915
0.262304
0.285943
0.310948
0.337419
0.36544
0.395094
0.426462
0.459629
0.494681
0.531702
0.570788
0.612036
0.655546
0.701418
0.749727
0.800562
0.854011
0.910157
0.969074
1.03083
1.09547
1.16296
1.23328
1.30645
1.38242
1.46115
1.54258
1.62664
1.71327
1.80227
1.89336
1.98644
2.08136
2.17791
2.27592
2.37516
2.47543
2.57652
2.6782
2.78021
2.88227
2.98417
3.08568
3.18662
3.28677
3.38593
3.48385
3.58018
3.67485
3.76775
3.85874
3.94768
4.03446
4.11899
4.20119
4.28098
4.3583
4.43308
4.50527
4.57484
4.64172
4.70589
4.76731
4.82596
4.88182
4.93488
4.98513
5.03257
5.07718
5.11895
5.15785
5.19387
5.227
5.25722
5.28452
5.30886
5.33024
5.34861
5.36396
5.37625
5.38547
5.3916
5.39461
5.39449
5.39124
5.38485
5.37531
5.36266
5.3469
5.32806
5.30617
5.28128
5.25345
5.22273
5.18918
5.15289
5.11393
5.07238
5.02834
4.98189
4.93313
4.88217
4.82909
4.774
4.71701
4.6582
4.59769
4.53557
4.47195
4.40693
4.34063
4.27313
4.20456
4.13503
4.06465
3.99356
3.9219
3.84981
3.77746
3.70504
3.63278
3.56094
3.48982
3.41979
3.35132
3.28497
3.22142
3.16153
3.10634
3.05707
3.01518
2.98226
2.95995
2.94974
2.95266
2.96897
2.99781
3.03713
3.08369
3.13355
3.1825
3.22668
3.263
3.28928
3.30433
3.30782
3.30009
3.28195
3.25452
3.21907
3.17695
3.12944
3.07779
3.02312
2.96643
2.90859
2.85035
2.79236
2.73512
2.67907
2.62455
2.57183
2.52111
2.47253
2.42608
2.38181
2.33977
2.29998
2.26241
2.22703
2.19378
2.16259
2.13339
2.10608
2.08058
2.05679
2.03462
2.01399
1.99479
1.97694
1.96033
1.94489
1.93052
1.91712
1.9046
1.89286
1.88182
1.87141
1.86161
1.85259
1.84474
1.83927
0.0842478
0.113896
0.137011
0.157373
0.176846
0.196336
0.216362
0.23725
0.259221
0.282439
0.307035
0.333122
0.360807
0.390191
0.42138
0.454485
0.48962
0.526887
0.566404
0.608298
0.652693
0.699719
0.749433
0.801932
0.857316
0.915668
0.977062
1.04157
1.10929
1.18002
1.25378
1.33054
1.41027
1.49288
1.57828
1.66636
1.75701
1.85001
1.94515
2.04224
2.14109
2.24149
2.34322
2.44605
2.54973
2.65403
2.7587
2.86346
2.96805
3.0722
3.17569
3.27829
3.37978
3.4799
3.57832
3.67501
3.76988
3.86283
3.95373
4.04247
4.12894
4.21305
4.29471
4.37387
4.45046
4.52442
4.59571
4.6643
4.73016
4.79324
4.85354
4.91104
4.96574
5.01762
5.0667
5.11297
5.15643
5.19707
5.23489
5.26987
5.30202
5.33131
5.35773
5.38127
5.40189
5.41957
5.43428
5.446
5.45468
5.46031
5.46286
5.46229
5.4586
5.45176
5.44177
5.42862
5.41233
5.3929
5.37036
5.34474
5.31608
5.28443
5.24985
5.21241
5.17217
5.12921
5.08362
5.03549
4.98492
4.93199
4.87681
4.81948
4.76011
4.6988
4.63565
4.57077
4.50428
4.43628
4.36688
4.29619
4.22434
4.15144
4.07761
4.00299
3.92771
3.85194
3.77583
3.69957
3.62338
3.5475
3.47222
3.39791
3.32499
3.25399
3.18558
3.12059
3.06004
3.0052
2.9576
2.91902
2.89137
2.87655
2.87614
2.89092
2.92055
2.96319
3.01557
3.07339
3.13187
3.18651
3.23361
3.2705
3.29567
3.30857
3.30941
3.29897
3.2784
3.249
3.21218
3.16931
3.12171
3.07056
3.01695
2.96182
2.90597
2.85008
2.79472
2.74036
2.68737
2.63604
2.5866
2.53915
2.49373
2.45044
2.40932
2.37039
2.33363
2.29901
2.26647
2.23593
2.20732
2.18055
2.15553
2.13216
2.11036
2.09001
2.07103
2.05333
2.0368
2.02135
2.00689
1.99331
1.98052
1.96841
1.95689
1.9459
1.93542
1.92566
1.91707
1.91109
0.08405
0.113241
0.135982
0.155968
0.175048
0.194128
0.213728
0.234181
0.255715
0.278508
0.302707
0.328448
0.355863
0.385075
0.41622
0.449447
0.484908
0.522709
0.563004
0.605947
0.651697
0.700447
0.752168
0.806978
0.864984
0.926262
0.990866
1.05883
1.13018
1.20478
1.28258
1.36352
1.4475
1.53441
1.62411
1.71646
1.81129
1.90838
2.0075
2.10844
2.21097
2.31486
2.41986
2.52571
2.63217
2.73895
2.84581
2.95244
3.05858
3.16393
3.26827
3.37133
3.47282
3.57249
3.67033
3.76628
3.86027
3.9522
4.04197
4.12946
4.21458
4.29726
4.37741
4.45498
4.5299
4.60215
4.67167
4.73845
4.80246
4.86369
4.92213
4.97776
5.0306
5.08065
5.12793
5.17243
5.21418
5.25317
5.2894
5.32288
5.35359
5.38154
5.40671
5.42908
5.44864
5.46534
5.47916
5.49006
5.49802
5.50298
5.50493
5.50381
5.4996
5.49227
5.4818
5.46817
5.45138
5.43142
5.40831
5.38207
5.35271
5.32029
5.28485
5.24644
5.20514
5.161
5.11412
5.06457
5.01245
4.95785
4.90087
4.84162
4.7802
4.71672
4.6513
4.58403
4.51505
4.44446
4.37238
4.29892
4.22423
4.14841
4.0716
3.99394
3.91556
3.83663
3.75731
3.67778
3.59826
3.51897
3.4402
3.36228
3.28562
3.21071
3.13817
3.0688
3.00359
2.9438
2.89099
2.84703
2.81409
2.79444
2.79016
2.80272
2.83234
2.8776
2.93534
3.00095
3.06909
3.13456
3.19299
3.24117
3.27717
3.3002
3.31032
3.30828
3.29519
3.27242
3.24144
3.20368
3.16055
3.11333
3.06315
3.01103
2.95783
2.9043
2.85105
2.79858
2.74729
2.69751
2.64948
2.60326
2.55899
2.51677
2.47665
2.43865
2.40276
2.36894
2.33712
2.30725
2.27923
2.25298
2.22841
2.20542
2.18391
2.16378
2.14495
2.1273
2.11074
2.09517
2.0805
2.06661
2.0534
2.04077
2.02863
2.01689
2.00558
1.9949
1.98543
1.9788
0.0837201
0.112451
0.134793
0.154372
0.173029
0.191673
0.210832
0.230846
0.251958