/*--------------------------------*- C++ -*----------------------------------*\
  =========                 |
  \\      /  F ield         | OpenFOAM: The Open Source CFD Toolbox
   \\    /   O peration     | Website:  https://openfoam.org
    \\  /    A nd           | Version:  7
     \\/     M anipulation  |
\*---------------------------------------------------------------------------*/
FoamFile
{
    version     2.0;
    format      ascii;
    class       volScalarField;
    location    "700";
    object      nut;
}
// * * * * * * * * * * * * * * * * * * * * * * * * * * * * * * * * * * * * * //

dimensions      [0 2 -1 0 0 0 0];

internalField   nonuniform List<scalar> 
16900
(
1.74976e-05
4.68242e-05
7.1172e-05
9.3269e-05
0.000112962
0.000130337
0.000145584
0.000158902
0.000170449
0.00018033
0.00018862
0.000195442
0.000201215
0.000206971
0.000214607
0.00021718
0.000216768
4.8323e-05
4.99707e-05
5.17497e-05
5.35208e-05
5.52802e-05
5.70282e-05
5.87652e-05
6.04921e-05
6.22092e-05
6.39173e-05
6.56165e-05
6.7307e-05
6.89886e-05
7.06612e-05
7.23242e-05
7.39772e-05
7.56197e-05
7.72508e-05
7.88698e-05
8.04758e-05
8.2068e-05
8.36455e-05
8.52072e-05
8.67521e-05
8.82793e-05
8.97876e-05
9.12759e-05
9.27433e-05
9.41884e-05
9.56102e-05
9.70075e-05
9.83791e-05
9.97237e-05
0.00010104
0.000102327
0.000103584
0.000104808
0.000106
0.000107158
0.000108282
0.000109371
0.000110425
0.000111446
0.000112435
0.000113395
0.000114335
0.000115242
0.000116106
0.000116928
0.000117707
0.000118443
0.000119137
0.000119787
0.000120393
0.000120956
0.000121475
0.000121949
0.000122379
0.000122765
0.000123106
0.000123403
0.000123655
0.000123864
0.000124028
0.00012415
0.000124229
0.000124266
0.000124262
0.000124218
0.000124134
0.000124013
0.000123854
0.00012366
0.000123433
0.000123173
0.000122882
0.000122563
0.000122217
0.000121845
0.000121452
0.000121037
0.000120603
0.000120153
0.000119689
0.000119213
0.000118727
0.000118233
0.000117733
0.00011723
0.000116725
0.000116221
0.00011572
0.000115223
0.000114733
0.00011425
0.000113778
0.000113318
0.000112871
0.000112438
0.000112022
0.000111625
0.000111247
0.000110892
0.000110559
0.00011025
0.000109969
0.000109718
0.000109496
0.000109306
0.000109153
0.000109038
0.000108961
0.000108923
0.000108932
0.000108989
0.000109092
0.000109248
0.00010946
0.000109886
0.000110558
0.000111321
0.000112147
0.000113021
0.000113932
0.000114866
0.000115805
0.00011673
0.000117621
0.000118452
0.0001192
0.000119843
0.000120359
0.000120731
0.000120946
0.000120997
0.000120881
0.000120601
0.000120162
0.000119575
0.000118853
0.000118009
0.000117059
0.000116018
0.0001149
0.000113719
0.000112489
0.00011122
0.000109924
0.000108609
0.000107285
0.000105958
0.000104634
0.00010332
0.000102019
0.000100734
9.94707e-05
9.82298e-05
9.70143e-05
9.58257e-05
9.46658e-05
9.35356e-05
9.24363e-05
9.13684e-05
9.03297e-05
8.9338e-05
8.83875e-05
8.74727e-05
8.65904e-05
8.57385e-05
8.49156e-05
8.41212e-05
8.33547e-05
8.26159e-05
8.19047e-05
8.12209e-05
8.05644e-05
7.99351e-05
7.93326e-05
7.87563e-05
7.82051e-05
7.76762e-05
7.71658e-05
7.66503e-05
3.41596e-05
0.000104588
0.000144598
0.000174311
0.000199379
0.00022081
0.000238832
0.000253482
0.000264672
0.000272217
0.000275911
0.000275747
0.000272325
0.000267285
0.000263028
0.00025988
0.000254351
0.000244934
0.000255794
0.000267791
0.000280042
0.000292464
0.000305013
0.000317668
0.000330425
0.000343284
0.000356252
0.000369336
0.000382539
0.000395868
0.000409325
0.000422913
0.000436631
0.00045048
0.000464456
0.000478559
0.000492784
0.000507127
0.000521582
0.000536144
0.000550808
0.000565565
0.000580411
0.000595335
0.000610331
0.000625389
0.0006405
0.000655651
0.00067083
0.000686023
0.000701213
0.000716382
0.000731509
0.000746569
0.000761535
0.000776378
0.000791062
0.000805548
0.000819793
0.000833747
0.00084735
0.000860533
0.000873061
0.000884896
0.000896402
0.000907617
0.000918541
0.000929167
0.000939486
0.000949488
0.000959163
0.0009685
0.000977489
0.00098612
0.000994381
0.00100226
0.00100976
0.00101685
0.00102354
0.00102981
0.00103567
0.00104109
0.00104609
0.00105065
0.00105478
0.00105848
0.00106173
0.00106456
0.00106696
0.00106895
0.00107052
0.00107169
0.00107246
0.00107286
0.00107289
0.00107258
0.00107193
0.00107097
0.00106972
0.00106819
0.00106641
0.00106439
0.00106217
0.00105976
0.00105719
0.00105448
0.00105166
0.00104874
0.00104575
0.00104273
0.00103969
0.00103665
0.00103364
0.0010307
0.00102784
0.00102509
0.00102247
0.00102002
0.00101776
0.00101573
0.00101396
0.00101248
0.00101132
0.00101053
0.00101015
0.00101021
0.00101076
0.00101184
0.00101352
0.00101582
0.00101875
0.00102231
0.00102654
0.00103134
0.00103625
0.00104016
0.00104368
0.00104734
0.00105127
0.00105542
0.00105967
0.0010638
0.0010676
0.00107079
0.00107309
0.00107423
0.00107393
0.00107195
0.00106812
0.00106231
0.00105447
0.00104462
0.00103283
0.00101924
0.00100404
0.000987444
0.000969668
0.00095095
0.000931515
0.000911578
0.000891335
0.000870963
0.000850617
0.000830431
0.000810519
0.000790976
0.000771878
0.000753288
0.000735255
0.000717819
0.000701006
0.000684838
0.000669329
0.000654488
0.000640321
0.00062683
0.000614016
0.00060188
0.000590429
0.000579681
0.000569706
0.000560093
0.000550881
0.000542116
0.00053383
0.000526044
0.000518768
0.000512008
0.000505762
0.000500027
0.000494796
0.000490059
0.000485805
0.000482017
0.000478672
0.000475731
0.000473126
0.000470722
0.00046821
0.000465168
4.75379e-05
0.000144915
0.000201273
0.00023844
0.000267906
0.000292701
0.000313662
0.000331152
0.000345492
0.000357091
0.000366529
0.000374654
0.000382685
0.000392197
0.000404549
0.000419665
0.00043643
0.000455459
0.000479034
0.000503257
0.000527669
0.000552265
0.000577055
0.000602046
0.000627249
0.000652676
0.000678341
0.000704255
0.000730426
0.000756862
0.000783567
0.00081054
0.00083778
0.000865282
0.000893038
0.00092104
0.000949275
0.00097773
0.00100639
0.00103524
0.00106426
0.00109343
0.00112273
0.00115215
0.00118165
0.00121122
0.00124083
0.00127045
0.00130006
0.00132961
0.00135908
0.00138843
0.00141761
0.00144657
0.00147527
0.00150365
0.00153164
0.00155918
0.0015862
0.00161262
0.00163838
0.0016634
0.00168722
0.00171023
0.00173261
0.00175439
0.00177557
0.00179613
0.00181607
0.00183536
0.00185399
0.00187193
0.00188918
0.0019057
0.00192148
0.00193649
0.00195073
0.00196417
0.0019768
0.0019886
0.00199955
0.00200966
0.0020189
0.00202727
0.00203477
0.0020414
0.00204716
0.00205204
0.00205607
0.00205925
0.0020616
0.00206312
0.00206386
0.00206381
0.00206303
0.00206152
0.00205933
0.00205648
0.00205303
0.00204899
0.00204441
0.00203934
0.00203382
0.00202788
0.00202158
0.00201497
0.00200807
0.00200095
0.00199364
0.00198621
0.00197869
0.00197112
0.00196357
0.00195607
0.00194869
0.00194148
0.00193448
0.00192774
0.00192134
0.00191534
0.0019098
0.00190479
0.00190038
0.00189667
0.00189374
0.00189168
0.00189057
0.00189052
0.00189165
0.00189403
0.00189772
0.00190279
0.0019093
0.00191715
0.00192601
0.00193524
0.00194502
0.00195566
0.00196723
0.00197958
0.00199244
0.00200538
0.00201791
0.00202943
0.00203932
0.00204693
0.00205166
0.00205296
0.00205041
0.00204371
0.00203274
0.00201751
0.00199818
0.00197505
0.00194848
0.00191893
0.00188686
0.00185278
0.00181714
0.00178041
0.00174298
0.00170524
0.0016675
0.00163004
0.0015931
0.00155688
0.00152154
0.0014872
0.00145398
0.00142195
0.00139118
0.0013617
0.00133356
0.00130676
0.00128133
0.00125727
0.00123459
0.00121329
0.00119341
0.00117502
0.00115779
0.00114147
0.00112609
0.00111166
0.00109819
0.0010857
0.00107419
0.00106365
0.00105407
0.00104544
0.00103772
0.0010309
0.00102495
0.00101983
0.00101549
0.00101186
0.00100881
0.00100613
0.00100344
0.00100049
5.82393e-05
0.000175233
0.000245893
0.000290655
0.000324729
0.000353312
0.000378192
0.000400257
0.000420243
0.000438937
0.00045721
0.000476006
0.000496323
0.000519125
0.000544915
0.000573498
0.000604049
0.000636406
0.000670183
0.000704338
0.000738679
0.000773221
0.000807998
0.000843035
0.000878355
0.000913979
0.000949924
0.000986202
0.00102282
0.00105979
0.00109711
0.00113477
0.00117277
0.0012111
0.00124974
0.00128867
0.00132788
0.00136733
0.001407
0.00144686
0.00148689
0.00152705
0.0015673
0.00160762
0.00164797
0.00168831
0.0017286
0.0017688
0.00180888
0.00184878
0.00188846
0.00192786
0.00196694
0.00200563
0.00204388
0.00208161
0.00211875
0.00215524
0.002191
0.00222595
0.00226001
0.00229308
0.00232489
0.00235574
0.00238573
0.00241491
0.00244325
0.00247076
0.00249742
0.00252319
0.00254807
0.00257203
0.00259503
0.00261707
0.0026381
0.00265812
0.00267709
0.00269499
0.0027118
0.00272749
0.00274206
0.00275548
0.00276774
0.00277882
0.00278874
0.00279746
0.00280501
0.00281138
0.00281657
0.00282061
0.00282351
0.00282528
0.00282595
0.00282556
0.00282412
0.00282169
0.00281829
0.00281398
0.0028088
0.00280279
0.00279601
0.00278851
0.00278035
0.00277159
0.00276228
0.00275249
0.00274227
0.00273168
0.00272079
0.00270967
0.00269837
0.00268696
0.00267551
0.00266409
0.00265276
0.00264161
0.00263071
0.00262012
0.00260994
0.00260027
0.00259121
0.00258285
0.00257528
0.00256866
0.00256312
0.00255878
0.00255578
0.00255429
0.00255447
0.00255648
0.00256045
0.00256653
0.00257483
0.00258534
0.00259792
0.00261229
0.00262848
0.00264659
0.00266655
0.00268812
0.00271087
0.00273418
0.00275729
0.00277932
0.00279928
0.00281617
0.00282904
0.00283704
0.00283948
0.00283588
0.00282601
0.00280988
0.00278769
0.00275986
0.00272693
0.00268955
0.00264842
0.00260424
0.0025577
0.00250945
0.0024601
0.00241017
0.00236015
0.00231043
0.00226136
0.00221324
0.00216629
0.00212072
0.00207668
0.00203428
0.00199362
0.00195478
0.00191779
0.00188269
0.0018495
0.00181825
0.00178894
0.00176159
0.00173626
0.00171281
0.0016908
0.00167022
0.00165104
0.00163325
0.00161683
0.00160175
0.001588
0.00157553
0.00156433
0.00155434
0.00154553
0.00153786
0.00153128
0.00152572
0.00152114
0.00151743
0.00151446
0.00151202
0.00150986
0.00150792
6.71719e-05
0.000199272
0.000282386
0.000334733
0.000373801
0.000406659
0.000436092
0.00046349
0.000489859
0.000516106
0.000543081
0.000571539
0.000602099
0.000635185
0.000670847
0.000708768
0.000748349
0.000789177
0.000830769
0.0008727
0.000914855
0.000957242
0.000999892
0.00104283
0.0010861
0.0011297
0.00117366
0.001218
0.00126272
0.00130781
0.00135328
0.00139913
0.00144533
0.00149186
0.00153871
0.00158584
0.00163323
0.00168084
0.00172864
0.00177658
0.00182463
0.00187274
0.00192087
0.00196898
0.00201701
0.00206493
0.00211268
0.00216021
0.00220749
0.00225444
0.00230104
0.00234721
0.0023929
0.00243806
0.00248261
0.0025265
0.00256966
0.00261202
0.00265351
0.00269406
0.00273362
0.0027719
0.00280898
0.00284501
0.00288007
0.00291417
0.00294731
0.00297947
0.00301065
0.00304082
0.00306994
0.00309801
0.00312499
0.00315085
0.00317556
0.00319911
0.00322145
0.00324256
0.00326241
0.00328098
0.00329825
0.00331418
0.00332878
0.00334201
0.00335386
0.00336434
0.00337342
0.00338112
0.00338743
0.00339237
0.00339595
0.00339818
0.0033991
0.00339873
0.0033971
0.00339425
0.00339022
0.00338507
0.00337883
0.00337157
0.00336333
0.00335419
0.0033442
0.00333343
0.00332194
0.0033098
0.00329709
0.00328387
0.00327021
0.0032562
0.00324192
0.00322742
0.0032128
0.00319812
0.0031835
0.00316901
0.00315475
0.00314081
0.00312728
0.00311431
0.00310201
0.00309052
0.00307996
0.00307051
0.00306233
0.0030556
0.00305051
0.00304728
0.00304613
0.0030473
0.003051
0.00305745
0.00306686
0.00307934
0.00309493
0.00311358
0.00313531
0.00316013
0.00318791
0.00321833
0.00325084
0.00328466
0.0033188
0.00335207
0.00338317
0.00341073
0.00343344
0.00345011
0.00345977
0.00346176
0.00345571
0.00344159
0.00341965
0.00339042
0.00335458
0.00331296
0.00326645
0.00321595
0.00316234
0.00310646
0.00304907
0.00299085
0.0029324
0.00287423
0.00281679
0.00276044
0.00270547
0.00265215
0.00260066
0.00255116
0.00250377
0.00245858
0.00241564
0.00237501
0.00233671
0.00230076
0.00226719
0.00223601
0.00220722
0.00218032
0.00215526
0.002132
0.00211047
0.00209065
0.00207247
0.00205588
0.00204083
0.00202726
0.00201511
0.00200433
0.00199485
0.00198661
0.00197955
0.00197359
0.00196866
0.00196467
0.00196148
0.00195896
0.00195697
0.00195561
7.46983e-05
0.000218762
0.000312841
0.000372612
0.000416915
0.000454301
0.000488446
0.000521171
0.000553634
0.000586729
0.000621174
0.000657497
0.00069602
0.000736845
0.000779816
0.000824583
0.000870687
0.000917742
0.000965388
0.00101338
0.00106163
0.00111013
0.0011589
0.00120798
0.00125739
0.00130714
0.00135725
0.00140774
0.0014586
0.00150984
0.00156145
0.00161342
0.00166571
0.00171832
0.00177121
0.00182435
0.00187769
0.0019312
0.00198483
0.00203853
0.00209226
0.00214597
0.0021996
0.0022531
0.00230642
0.0023595
0.0024123
0.00246476
0.00251682
0.00256845
0.00261958
0.00267016
0.00272013
0.00276946
0.00281806
0.0028659
0.0029129
0.002959
0.00300415
0.00304827
0.00309132
0.00313302
0.00317355
0.003213
0.00325141
0.0032888
0.00332518
0.00336052
0.00339481
0.00342802
0.00346014
0.00349113
0.00352097
0.00354963
0.00357707
0.00360327
0.00362819
0.00365181
0.00367408
0.00369498
0.00371447
0.00373254
0.00374915
0.00376429
0.00377793
0.00379005
0.00380065
0.00380973
0.00381727
0.00382328
0.00382777
0.00383075
0.00383224
0.00383227
0.00383087
0.00382806
0.0038239
0.00381842
0.00381169
0.00380374
0.00379464
0.00378445
0.00377323
0.00376106
0.00374801
0.00373415
0.00371954
0.00370427
0.00368842
0.00367208
0.00365532
0.00363824
0.00362091
0.00360341
0.00358587
0.0035684
0.00355108
0.00353404
0.00351739
0.00350127
0.00348582
0.00347121
0.00345758
0.00344514
0.00343407
0.00342462
0.00341701
0.00341152
0.00340842
0.00340802
0.00341063
0.00341656
0.00342611
0.00343954
0.00345705
0.00347877
0.0035048
0.00353517
0.00356977
0.00360823
0.00364996
0.00369404
0.00373927
0.00378419
0.00382717
0.00386645
0.00390033
0.00392726
0.00394594
0.00395547
0.00395533
0.00394543
0.00392607
0.00389784
0.00386157
0.00381827
0.00376901
0.00371489
0.00365695
0.00359621
0.00353357
0.00346985
0.00340576
0.0033419
0.00327881
0.00321691
0.00315656
0.00309804
0.0030416
0.00298741
0.00293561
0.0028863
0.00283955
0.00279541
0.00275391
0.00271507
0.0026789
0.00264545
0.00261428
0.00258525
0.0025583
0.00253338
0.00251042
0.00248934
0.00247007
0.00245252
0.0024366
0.00242225
0.00240938
0.00239791
0.00238777
0.00237886
0.00237113
0.00236448
0.00235885
0.00235412
0.00235021
0.00234702
0.00234459
0.00234313
8.10186e-05
0.00023465
0.000338434
0.000405338
0.00045492
0.000496852
0.000535557
0.000573215
0.000611085
0.000650006
0.000690552
0.000733068
0.000777685
0.000824336
0.000872788
0.000922704
0.000973718
0.00102551
0.00107782
0.00113047
0.00118339
0.00123656
0.00129
0.00134373
0.00139777
0.00145213
0.00150684
0.00156189
0.00161729
0.00167303
0.00172911
0.0017855
0.00184219
0.00189913
0.00195631
0.00201368
0.00207119
0.0021288
0.00218646
0.00224412
0.00230172
0.00235921
0.00241653
0.00247362
0.00253043
0.0025869
0.00264298
0.00269862
0.00275375
0.00280834
0.00286233
0.00291567
0.00296831
0.00302021
0.00307133
0.0031216
0.00317097
0.0032194
0.00326684
0.00331321
0.00335841
0.00340235
0.00344515
0.00348688
0.00352757
0.00356723
0.00360586
0.00364346
0.00367999
0.00371544
0.00374979
0.00378301
0.00381506
0.00384592
0.00387556
0.00390393
0.00393101
0.00395675
0.00398112
0.00400408
0.0040256
0.00404564
0.00406416
0.00408115
0.00409656
0.00411038
0.00412259
0.00413316
0.00414209
0.00414938
0.00415503
0.00415903
0.0041614
0.00416216
0.00416133
0.00415894
0.00415504
0.00414965
0.00414282
0.00413462
0.00412508
0.00411428
0.00410228
0.00408914
0.00407494
0.00405976
0.00404367
0.00402674
0.00400906
0.00399072
0.00397183
0.00395246
0.0039327
0.00391266
0.00389245
0.00387217
0.00385195
0.0038319
0.00381216
0.00379287
0.0037742
0.00375631
0.0037394
0.00372366
0.00370935
0.0036967
0.00368601
0.00367759
0.00367177
0.00366894
0.00366949
0.00367383
0.00368237
0.00369552
0.00371365
0.00373705
0.00376596
0.00380054
0.00384074
0.00388625
0.00393646
0.00399039
0.00404667
0.00410358
0.00415914
0.00421117
0.00425754
0.00429625
0.00432564
0.0043445
0.00435213
0.00434836
0.00433348
0.00430817
0.00427342
0.00423039
0.00418035
0.00412457
0.00406431
0.00400072
0.00393485
0.00386765
0.00379992
0.00373239
0.00366562
0.00360012
0.0035363
0.00347447
0.00341489
0.00335776
0.00330324
0.00325142
0.0032024
0.0031562
0.00311287
0.0030724
0.00303482
0.00299989
0.00296729
0.002937
0.00290894
0.00288303
0.00285919
0.00283731
0.00281729
0.00279903
0.00278242
0.00276736
0.00275375
0.00274151
0.00273054
0.00272074
0.00271205
0.00270436
0.0026976
0.00269168
0.00268654
0.00268215
0.00267868
0.00267655
8.6275e-05
0.000247543
0.000359914
0.000433556
0.000488295
0.00053462
0.000577562
0.000619603
0.000662087
0.000705802
0.00075121
0.000798527
0.000847769
0.000898792
0.000951342
0.00100511
0.0010598
0.00111514
0.00117094
0.00122706
0.00128343
0.00134003
0.00139688
0.00145398
0.00151135
0.00156901
0.00162696
0.00168522
0.00174378
0.00180264
0.00186177
0.00192118
0.00198082
0.00204067
0.00210069
0.00216084
0.00222108
0.00228135
0.00234161
0.0024018
0.00246186
0.00252174
0.00258137
0.00264069
0.00269966
0.00275821
0.00281629
0.00287384
0.00293081
0.00298715
0.00304283
0.00309779
0.00315199
0.0032054
0.00325797
0.00330967
0.00336045
0.00341026
0.00345907
0.00350683
0.00355337
0.00359877
0.0036431
0.0036864
0.0037287
0.00377
0.0038103
0.00384959
0.00388784
0.00392505
0.00396119
0.00399622
0.00403011
0.00406285
0.00409437
0.00412466
0.00415367
0.00418136
0.00420768
0.00423259
0.00425605
0.00427801
0.00429844
0.00431731
0.00433455
0.00435015
0.00436407
0.00437629
0.00438679
0.00439556
0.00440257
0.00440783
0.00441134
0.0044131
0.00441314
0.00441147
0.00440813
0.00440314
0.00439654
0.0043884
0.00437876
0.00436766
0.00435518
0.00434138
0.00432634
0.00431014
0.00429285
0.00427454
0.00425531
0.00423525
0.00421445
0.00419301
0.00417103
0.0041486
0.00412583
0.00410285
0.00407978
0.00405675
0.00403389
0.00401136
0.00398933
0.00396798
0.00394753
0.00392818
0.00391021
0.0038939
0.00387955
0.00386754
0.00385824
0.0038521
0.0038496
0.00385124
0.00385757
0.00386912
0.00388645
0.00391004
0.00394033
0.00397764
0.00402208
0.00407348
0.00413131
0.00419456
0.00426176
0.00433095
0.00439977
0.00446562
0.00452583
0.00457791
0.00461972
0.0046497
0.00466689
0.00467099
0.00466229
0.00464156
0.00460993
0.00456874
0.00451946
0.00446356
0.00440247
0.00433753
0.00426993
0.00420073
0.00413085
0.00406109
0.0039921
0.00392443
0.00385852
0.00379472
0.00373332
0.00367452
0.00361849
0.00356534
0.00351513
0.0034679
0.00342367
0.00338243
0.00334411
0.0033083
0.00327494
0.00324395
0.00321527
0.00318878
0.00316437
0.00314192
0.0031213
0.0031024
0.0030851
0.00306928
0.00305483
0.00304165
0.00302964
0.0030187
0.00300875
0.00299969
0.00299145
0.00298396
0.00297718
0.00297116
0.00296619
0.00296299
9.05857e-05
0.000257885
0.00037782
0.000457735
0.000517387
0.00056784
0.000614609
0.00066044
0.000706757
0.000754323
0.000803522
0.00085449
0.000907177
0.000961411
0.00101694
0.0010735
0.00113081
0.00118868
0.00124693
0.00130545
0.00136419
0.00142312
0.00148225
0.00154158
0.00160113
0.00166091
0.00172092
0.00178119
0.0018417
0.00190245
0.00196343
0.00202462
0.002086
0.00214753
0.00220919
0.00227093
0.0023327
0.00239447
0.00245618
0.00251777
0.00257918
0.00264036
0.00270126
0.0027618
0.00282193
0.00288159
0.00294073
0.0029993
0.00305725
0.00311452
0.00317107
0.00322688
0.00328189
0.00333609
0.00338943
0.00344188
0.00349342
0.00354401
0.0035936
0.00364214
0.00368957
0.00373597
0.00378138
0.00382583
0.00386933
0.00391188
0.00395349
0.00399414
0.00403382
0.0040725
0.00411016
0.00414676
0.00418228
0.00421669
0.00424994
0.004282
0.00431282
0.00434236
0.00437055
0.00439736
0.00442274
0.00444663
0.004469
0.00448979
0.00450894
0.00452641
0.00454217
0.00455617
0.00456838
0.0045788
0.00458737
0.00459409
0.00459894
0.00460193
0.00460306
0.00460235
0.00459982
0.00459548
0.00458937
0.00458155
0.00457205
0.00456092
0.00454822
0.00453403
0.00451842
0.00450145
0.0044832
0.00446375
0.00444318
0.0044216
0.00439909
0.00437575
0.00435168
0.00432698
0.00430177
0.00427617
0.00425029
0.00422428
0.00419828
0.00417245
0.00414697
0.00412202
0.00409782
0.00407461
0.00405266
0.00403227
0.00401379
0.00399761
0.00398415
0.00397392
0.00396746
0.00396537
0.00396832
0.00397699
0.00399212
0.00401439
0.00404449
0.00408295
0.00413015
0.00418613
0.00425052
0.00432239
0.00440022
0.00448186
0.00456459
0.00464531
0.00472076
0.00478784
0.00484384
0.00488674
0.00491526
0.00492894
0.00492803
0.00491338
0.00488627
0.00484824
0.00480098
0.00474618
0.00468545
0.00462031
0.0045521
0.00448201
0.00441108
0.00434018
0.00427002
0.0042012
0.00413422
0.00406943
0.00400715
0.00394759
0.00389091
0.00383722
0.00378658
0.00373901
0.00369452
0.00365307
0.00361432
0.00357812
0.00354441
0.00351309
0.00348407
0.0034572
0.00343237
0.00340943
0.00338825
0.0033687
0.00335063
0.00333394
0.0033185
0.0033042
0.00329095
0.00327864
0.00326718
0.00325649
0.00324649
0.00323714
0.00322842
0.00322045
0.00321368
0.00320917
9.40556e-05
0.000266029
0.000392579
0.000478258
0.000542499
0.000596746
0.000646899
0.000695932
0.000745355
0.000795927
0.000847991
0.000901634
0.00095678
0.00101325
0.0010708
0.00112919
0.00118821
0.00124766
0.00130741
0.00136736
0.00142746
0.0014877
0.00154806
0.00160857
0.00166922
0.00173004
0.00179104
0.00185222
0.00191359
0.00197515
0.00203688
0.00209878
0.00216083
0.002223
0.00228526
0.00234757
0.00240991
0.00247221
0.00253444
0.00259653
0.00265844
0.0027201
0.00278146
0.00284245
0.00290303
0.00296312
0.00302268
0.00308164
0.00313996
0.0031976
0.00325451
0.00331065
0.00336599
0.00342051
0.00347418
0.00352697
0.00357886
0.00362983
0.00367983
0.00372885
0.00377691
0.00382404
0.00387026
0.0039156
0.00396007
0.00400366
0.00404636
0.00408818
0.00412909
0.00416906
0.00420808
0.00424611
0.00428312
0.00431908
0.00435395
0.00438769
0.00442025
0.00445157
0.0044816
0.00451028
0.00453756
0.00456339
0.00458771
0.00461048
0.00463159
0.00465101
0.00466869
0.00468458
0.00469864
0.00471083
0.00472112
0.00472945
0.00473582
0.00474022
0.00474264
0.00474309
0.00474157
0.0047381
0.00473272
0.00472544
0.00471632
0.00470541
0.00469274
0.00467839
0.00466242
0.0046449
0.00462591
0.00460552
0.00458382
0.0045609
0.00453686
0.00451178
0.00448577
0.00445894
0.0044314
0.00440327
0.00437467
0.00434574
0.00431664
0.00428751
0.00425854
0.00422992
0.00420188
0.00417465
0.00414852
0.00412379
0.00410083
0.00408006
0.00406193
0.00404698
0.00403582
0.00402913
0.00402768
0.0040323
0.00404389
0.00406339
0.00409172
0.00412972
0.00417806
0.00423712
0.00430679
0.00438634
0.00447429
0.00456835
0.00466549
0.00476205
0.00485412
0.00493784
0.00500985
0.00506751
0.00510916
0.0051341
0.00514252
0.00513535
0.00511404
0.00508035
0.00503619
0.00498348
0.00492406
0.00485963
0.00479169
0.00472157
0.00465041
0.00457916
0.00450862
0.00443942
0.00437208
0.00430702
0.00424452
0.00418484
0.0041281
0.00407443
0.00402385
0.00397639
0.00393202
0.00389056
0.00385171
0.00381542
0.0037816
0.00375014
0.00372091
0.00369376
0.00366854
0.00364511
0.00362332
0.00360303
0.00358409
0.0035664
0.00354982
0.00353424
0.00351956
0.00350569
0.00349254
0.00348003
0.00346809
0.00345667
0.00344581
0.0034357
0.00342693
0.00342097
9.67819e-05
0.000272274
0.000404557
0.000495469
0.000563922
0.000621589
0.000674671
0.000726341
0.000778196
0.000831014
0.000885121
0.000940586
0.000997318
0.00105514
0.00111385
0.00117321
0.00123303
0.00129317
0.0013535
0.00141393
0.00147444
0.00153499
0.00159559
0.00165626
0.001717
0.00177784
0.00183879
0.00189987
0.00196109
0.00202246
0.00208397
0.00214562
0.0022074
0.00226929
0.00233128
0.00239332
0.0024554
0.00251747
0.00257948
0.00264138
0.00270312
0.00276465
0.0028259
0.00288681
0.00294732
0.00300738
0.00306692
0.00312588
0.00318421
0.00324187
0.00329881
0.00335498
0.00341037
0.00346495
0.00351868
0.00357156
0.00362357
0.00367469
0.00372491
0.00377429
0.00382284
0.00387057
0.00391747
0.00396357
0.00400886
0.00405336
0.00409704
0.0041399
0.00418192
0.00422308
0.00426334
0.00430269
0.00434109
0.00437851
0.00441491
0.00445026
0.00448449
0.00451755
0.00454936
0.00457988
0.00460905
0.0046368
0.00466308
0.00468785
0.00471096
0.00473238
0.00475204
0.00476989
0.00478587
0.00479994
0.00481204
0.00482212
0.00483016
0.00483613
0.00484002
0.00484181
0.00484151
0.00483911
0.00483465
0.00482814
0.00481962
0.00480912
0.00479669
0.0047824
0.00476629
0.00474843
0.00472891
0.00470778
0.00468515
0.00466108
0.00463569
0.00460905
0.00458128
0.00455248
0.00452275
0.00449224
0.00446104
0.00442932
0.00439721
0.00436487
0.00433248
0.00430024
0.00426836
0.00423709
0.00420671
0.00417754
0.00414994
0.00412433
0.0041012
0.00408112
0.00406473
0.00405277
0.00404611
0.00404569
0.0040526
0.00406797
0.00409301
0.0041289
0.0041767
0.00423716
0.00431058
0.00439657
0.00449381
0.0046
0.00471179
0.004825
0.00493495
0.00503694
0.00512676
0.00520105
0.00525764
0.00529551
0.00531479
0.00531646
0.00530215
0.00527385
0.00523374
0.00518399
0.00512668
0.00506369
0.00499672
0.00492723
0.00485647
0.00478549
0.00471513
0.00464611
0.00457895
0.0045141
0.00445187
0.00439248
0.00433609
0.00428278
0.00423259
0.0041855
0.00414145
0.00410009
0.00406134
0.00402513
0.00399132
0.00395978
0.00393037
0.00390293
0.0038773
0.00385332
0.00383083
0.0038097
0.00378979
0.00377096
0.0037531
0.0037361
0.00371987
0.00370431
0.00368933
0.00367486
0.00366084
0.00364724
0.00363413
0.00362176
0.00361088
0.0036034
9.88556e-05
0.000276882
0.000414076
0.00050968
0.000581938
0.000642626
0.000698177
0.000751936
0.000805592
0.000859952
0.000915348
0.000971842
0.00102935
0.00108771
0.00114672
0.00120619
0.00126595
0.00132587
0.00138585
0.00144583
0.00150576
0.00156565
0.0016255
0.00168533
0.00174516
0.00180502
0.00186495
0.00192496
0.00198509
0.00204534
0.00210573
0.00216628
0.00222697
0.00228781
0.00234879
0.00240987
0.00247105
0.00253228
0.00259352
0.00265472
0.00271584
0.0027768
0.00283757
0.00289806
0.00295821
0.00301795
0.00307723
0.00313598
0.00319413
0.00325163
0.00330844
0.00336451
0.00341981
0.00347431
0.003528
0.00358085
0.00363285
0.003684
0.00373446
0.0037842
0.00383321
0.00388147
0.003929
0.00397579
0.00402185
0.00406717
0.00411175
0.00415559
0.00419865
0.0042409
0.00428233
0.00432291
0.00436261
0.0044014
0.00443925
0.00447612
0.00451197
0.00454669
0.00458022
0.00461252
0.00464353
0.00467317
0.00470138
0.00472809
0.00475319
0.00477661
0.00479829
0.00481815
0.00483612
0.00485215
0.00486616
0.00487811
0.00488794
0.00489563
0.00490113
0.00490443
0.00490551
0.00490437
0.00490101
0.00489546
0.00488773
0.00487785
0.00486587
0.00485183
0.00483579
0.0048178
0.00479795
0.0047763
0.00475293
0.00472793
0.00470139
0.00467339
0.00464406
0.00461348
0.00458178
0.00454906
0.00451547
0.00448112
0.00444618
0.0044108
0.00437514
0.00433942
0.00430383
0.00426863
0.00423408
0.00420051
0.00416827
0.00413779
0.00410955
0.00408414
0.00406221
0.00404457
0.00403212
0.00402593
0.0040272
0.00403729
0.00405767
0.00408987
0.00413536
0.00419542
0.00427083
0.00436169
0.00446702
0.00458463
0.00471099
0.00484138
0.00497031
0.0050921
0.00520149
0.00529428
0.00536762
0.00542012
0.00545177
0.0054636
0.00545743
0.00543552
0.00540032
0.0053543
0.00529977
0.00523885
0.00517342
0.00510509
0.00503523
0.00496497
0.00489524
0.00482679
0.00476019
0.0046959
0.00463424
0.00457544
0.00451964
0.00446692
0.00441728
0.00437071
0.00432696
0.00428585
0.00424731
0.00421122
0.00417744
0.00414583
0.00411622
0.00408843
0.00406231
0.00403769
0.00401441
0.00399233
0.00397132
0.00395124
0.003932
0.00391348
0.00389558
0.00387823
0.00386134
0.00384483
0.00382866
0.00381281
0.00379737
0.00378268
0.00376964
0.00376063
0.000100362
0.000280091
0.000421428
0.000521179
0.00059681
0.000660099
0.00071765
0.000772957
0.000827797
0.000883019
0.000938969
0.00099572
0.0010532
0.00111125
0.00116971
0.0012284
0.00128719
0.00134595
0.00140462
0.00146315
0.00152151
0.00157972
0.0016378
0.00169578
0.00175371
0.00181162
0.00186957
0.0019276
0.00198575
0.00204406
0.00210255
0.00216126
0.00222018
0.00227934
0.00233873
0.00239834
0.00245814
0.00251812
0.00257823
0.00263842
0.00269864
0.00275882
0.0028189
0.00287881
0.00293847
0.00299781
0.00305676
0.00311523
0.00317316
0.00323048
0.00328714
0.00334308
0.00339827
0.00345268
0.00350629
0.00355908
0.00361103
0.00366236
0.00371312
0.00376326
0.00381273
0.00386155
0.00390969
0.00395715
0.00400394
0.00405006
0.00409549
0.00414024
0.00418427
0.00422755
0.00427006
0.00431179
0.0043527
0.00439278
0.00443197
0.00447025
0.00450757
0.00454384
0.004579
0.004613
0.00464577
0.00467723
0.00470731
0.00473594
0.004763
0.00478842
0.00481212
0.00483401
0.00485402
0.00487206
0.00488806
0.00490195
0.00491368
0.00492318
0.00493042
0.00493536
0.00493797
0.00493824
0.00493617
0.00493174
0.00492498
0.00491592
0.00490458
0.00489099
0.00487523
0.00485733
0.00483736
0.0048154
0.00479152
0.0047658
0.00473833
0.00470922
0.00467854
0.00464642
0.00461297
0.0045783
0.00454253
0.00450581
0.00446827
0.00443008
0.0043914
0.00435242
0.00431335
0.00427443
0.00423593
0.00419814
0.00416143
0.00412619
0.00409293
0.0040622
0.00403469
0.00401118
0.00399265
0.00398021
0.00397517
0.00397907
0.00399361
0.00402067
0.00406217
0.00411993
0.00419537
0.0042892
0.00440101
0.0045289
0.0046693
0.00481705
0.00496579
0.0051087
0.00523937
0.00535248
0.00544439
0.00551321
0.00555872
0.00558202
0.00558511
0.00557054
0.00554107
0.00549948
0.00544835
0.00539004
0.00532663
0.00525989
0.00519132
0.00512214
0.00505337
0.00498578
0.00492002
0.00485652
0.00479564
0.0047376
0.00468254
0.00463051
0.00458151
0.00453543
0.00449202
0.00445121
0.00441289
0.00437692
0.00434315
0.00431141
0.00428152
0.0042533
0.0042266
0.00420123
0.00417705
0.00415392
0.00413171
0.0041103
0.00408958
0.00406945
0.00404982
0.00403061
0.00401175
0.00399315
0.00397478
0.00395664
0.00393884
0.0039218
0.00390659
0.00389604
0.00010138
0.000282112
0.000426876
0.000530225
0.000608769
0.000674208
0.000733265
0.00078956
0.000844951
0.000900334
0.00095608
0.00101228
0.00106887
0.00112573
0.0011827
0.00123965
0.00129646
0.00135305
0.00140936
0.00146538
0.00152111
0.00157658
0.00163185
0.00168696
0.001742
0.00179702
0.0018521
0.00190731
0.00196271
0.00201836
0.00207431
0.0021306
0.00218725
0.00224429
0.00230172
0.00235953
0.00241771
0.00247624
0.00253506
0.00259413
0.00265337
0.00271273
0.00277213
0.00283147