/*--------------------------------*- C++ -*----------------------------------*\
  =========                 |
  \\      /  F ield         | OpenFOAM: The Open Source CFD Toolbox
   \\    /   O peration     | Website:  https://openfoam.org
    \\  /    A nd           | Version:  7
     \\/     M anipulation  |
\*---------------------------------------------------------------------------*/
FoamFile
{
    version     2.0;
    format      ascii;
    class       volScalarField;
    location    "700";
    object      p;
}
// * * * * * * * * * * * * * * * * * * * * * * * * * * * * * * * * * * * * * //

dimensions      [0 2 -2 0 0 0 0];

internalField   nonuniform List<scalar> 
16900
(
-22.174
-22.1779
-22.1848
-22.1945
-22.2065
-22.2209
-22.2378
-22.2572
-22.2793
-22.3041
-22.3321
-22.3637
-22.3984
-22.4338
-22.4692
-22.5085
-22.5465
-22.5807
-22.6185
-22.6599
-22.7024
-22.7455
-22.789
-22.8326
-22.8762
-22.9196
-22.9626
-23.0051
-23.0468
-23.0876
-23.1272
-23.1653
-23.2018
-23.2364
-23.2687
-23.2984
-23.3253
-23.349
-23.3691
-23.3853
-23.3972
-23.4045
-23.4067
-23.4035
-23.3944
-23.3791
-23.3571
-23.328
-23.2915
-23.2472
-23.1947
-23.1337
-23.0638
-22.9847
-22.8962
-22.798
-22.69
-22.572
-22.444
-22.3058
-22.1576
-21.9993
-21.831
-21.6527
-21.4647
-21.2674
-21.061
-20.8459
-20.6224
-20.3911
-20.1522
-19.9063
-19.6538
-19.3952
-19.1312
-18.8622
-18.5887
-18.3113
-18.0307
-17.7473
-17.4618
-17.1746
-16.8863
-16.5975
-16.3087
-16.0202
-15.7326
-15.4464
-15.1618
-14.8792
-14.599
-14.3214
-14.0466
-13.7749
-13.5064
-13.2412
-12.9794
-12.721
-12.466
-12.2144
-11.9661
-11.721
-11.479
-11.2399
-11.0036
-10.7698
-10.5383
-10.309
-10.0814
-9.85544
-9.63079
-9.40718
-9.18435
-8.96202
-8.7399
-8.51775
-8.29531
-8.07233
-7.84856
-7.62377
-7.39779
-7.17043
-6.9415
-6.71082
-6.47834
-6.244
-6.00758
-5.76903
-5.52855
-5.28611
-5.0413
-4.79424
-4.54553
-4.29556
-4.04324
-3.78798
-3.53127
-3.27403
-3.0164
-2.75874
-2.50166
-2.24603
-1.99301
-1.74405
-1.5009
-1.26558
-1.04029
-0.827318
-0.628884
-0.447012
-0.283386
-0.139224
-0.0152194
0.0885012
0.172345
0.23721
0.284386
0.315472
0.332256
0.336636
0.330517
0.315764
0.294129
0.267231
0.236519
0.203278
0.168607
0.133447
0.0985699
0.0646077
0.0320552
0.00129635
-0.0273915
-0.0538123
-0.077848
-0.0994362
-0.118569
-0.135275
-0.149618
-0.161681
-0.171533
-0.179247
-0.184943
-0.188757
-0.190819
-0.191248
-0.190157
-0.187651
-0.183831
-0.17879
-0.172614
-0.165377
-0.157135
-0.147912
-0.137676
-0.126284
-0.113366
-0.0981459
-0.0783513
-0.0555046
-22.1698
-22.1743
-22.1796
-22.1869
-22.197
-22.2098
-22.2253
-22.2433
-22.2639
-22.2869
-22.3121
-22.3388
-22.3662
-22.3953
-22.4292
-22.4644
-22.5037
-22.5508
-22.5971
-22.64
-22.6825
-22.7253
-22.7683
-22.8114
-22.8544
-22.8972
-22.9397
-22.9817
-23.0229
-23.0633
-23.1025
-23.1403
-23.1765
-23.2108
-23.243
-23.2726
-23.2995
-23.3232
-23.3435
-23.36
-23.3723
-23.38
-23.3827
-23.3802
-23.3719
-23.3575
-23.3365
-23.3087
-23.2735
-23.2307
-23.1798
-23.1204
-23.0524
-22.9753
-22.8889
-22.7929
-22.6872
-22.5716
-22.4461
-22.3105
-22.1649
-22.0093
-21.8436
-21.6679
-21.4826
-21.2878
-21.084
-20.8715
-20.6506
-20.4217
-20.1852
-19.9416
-19.6914
-19.435
-19.1731
-18.906
-18.6343
-18.3587
-18.0796
-17.7976
-17.5133
-17.2272
-16.9399
-16.6518
-16.3636
-16.0756
-15.7883
-15.5022
-15.2176
-14.9349
-14.6544
-14.3764
-14.1011
-13.8288
-13.5596
-13.2937
-13.031
-12.7718
-12.5159
-12.2634
-12.0142
-11.7682
-11.5253
-11.2854
-11.0482
-10.8137
-10.5815
-10.3515
-10.1234
-9.89704
-9.67205
-9.44821
-9.22527
-9.00294
-8.78095
-8.55904
-8.33698
-8.11452
-7.8914
-7.66739
-7.44231
-7.21599
-6.98824
-6.75886
-6.52777
-6.29501
-6.06025
-5.82336
-5.58473
-5.34436
-5.10139
-4.85592
-4.60886
-4.36045
-4.11033
-3.85837
-3.60542
-3.35194
-3.09813
-2.8444
-2.59133
-2.33974
-2.09071
-1.84562
-1.6061
-1.37403
-1.15147
-0.940578
-0.743452
-0.562025
-0.397917
-0.252336
-0.125996
-0.0190909
0.0686958
0.138141
0.19041
0.226961
0.249458
0.259671
0.259406
0.25043
0.234424
0.212944
0.187402
0.159046
0.128963
0.0980809
0.067173
0.0368743
0.00769221
-0.019979
-0.0458441
-0.0696926
-0.0913864
-0.110848
-0.128049
-0.143005
-0.155758
-0.166351
-0.174844
-0.181338
-0.185952
-0.188796
-0.189979
-0.189608
-0.187786
-0.18461
-0.180177
-0.174574
-0.167885
-0.160179
-0.151513
-0.141913
-0.131349
-0.119696
-0.106615
-0.0914686
-0.0721489
-0.05448
-22.1637
-22.1716
-22.1785
-22.1857
-22.1955
-22.2081
-22.2233
-22.2413
-22.2618
-22.285
-22.3104
-22.3378
-22.3663
-22.3965
-22.43
-22.4653
-22.5024
-22.5429
-22.5843
-22.6254
-22.6669
-22.7087
-22.7508
-22.7929
-22.8351
-22.8771
-22.9188
-22.96
-23.0005
-23.0402
-23.0788
-23.1161
-23.1518
-23.1857
-23.2175
-23.2469
-23.2736
-23.2973
-23.3176
-23.3342
-23.3467
-23.3547
-23.3579
-23.356
-23.3484
-23.3349
-23.315
-23.2883
-23.2544
-23.213
-23.1637
-23.1062
-23.04
-22.965
-22.8807
-22.7871
-22.6838
-22.5708
-22.4479
-22.315
-22.1723
-22.0195
-21.8565
-21.6836
-21.5011
-21.3091
-21.1081
-20.8984
-20.6802
-20.454
-20.2202
-19.9792
-19.7315
-19.4775
-19.2178
-18.9529
-18.6834
-18.4097
-18.1324
-17.852
-17.5692
-17.2845
-16.9983
-16.7113
-16.4239
-16.1366
-15.8498
-15.5641
-15.2797
-14.9971
-14.7166
-14.4384
-14.1628
-13.8901
-13.6205
-13.3539
-13.0907
-12.8307
-12.5741
-12.3209
-12.0709
-11.8242
-11.5806
-11.34
-11.1022
-10.8671
-10.6344
-10.404
-10.1756
-9.94895
-9.72385
-9.50003
-9.27723
-9.05518
-8.83361
-8.61228
-8.39094
-8.16939
-7.94733
-7.72453
-7.50085
-7.27619
-7.05024
-6.82276
-6.59384
-6.36366
-6.13157
-5.89731
-5.66159
-5.4244
-5.18513
-4.94375
-4.70091
-4.45688
-4.21105
-3.96306
-3.71385
-3.46398
-3.21382
-2.96378
-2.71443
-2.46651
-2.22101
-1.97916
-1.74245
-1.51262
-1.29159
-1.08136
-0.883958
-0.701238
-0.53481
-0.385906
-0.255309
-0.143313
-0.0497322
0.0260701
0.085106
0.128691
0.158346
0.175723
0.182518
0.180412
0.171017
0.15584
0.136255
0.113489
0.0886199
0.0625734
0.0361302
0.00993773
-0.0154815
-0.0397137
-0.0624439
-0.0834397
-0.102542
-0.119651
-0.134723
-0.14775
-0.158741
-0.167717
-0.174757
-0.179964
-0.183421
-0.185217
-0.185447
-0.184208
-0.181595
-0.177702
-0.172618
-0.166428
-0.159212
-0.151043
-0.141977
-0.132053
-0.121262
-0.10953
-0.0966119
-0.0821789
-0.0643885
-0.0546871
-22.1589
-22.1704
-22.18
-22.1882
-22.1983
-22.2109
-22.226
-22.2437
-22.2639
-22.2864
-22.3112
-22.3379
-22.3662
-22.3963
-22.429
-22.4639
-22.5006
-22.539
-22.5784
-22.6184
-22.6588
-22.6997
-22.7409
-22.7823
-22.8237
-22.865
-22.9061
-22.9467
-22.9867
-23.0259
-23.0641
-23.101
-23.1364
-23.1701
-23.2018
-23.2311
-23.2578
-23.2815
-23.3019
-23.3187
-23.3316
-23.34
-23.3438
-23.3424
-23.3356
-23.3229
-23.3039
-23.2783
-23.2456
-23.2055
-23.1576
-23.1015
-23.037
-22.9636
-22.8811
-22.7893
-22.688
-22.5769
-22.456
-22.3252
-22.1846
-22.0336
-21.8725
-21.7016
-21.521
-21.331
-21.1319
-20.924
-20.7077
-20.4833
-20.2513
-20.012
-19.7659
-19.5134
-19.2552
-18.9917
-18.7234
-18.4508
-18.1746
-17.8952
-17.6133
-17.3293
-17.0438
-16.7573
-16.4703
-16.1833
-15.8967
-15.6111
-15.3268
-15.0441
-14.7634
-14.4851
-14.2093
-13.9362
-13.6662
-13.3993
-13.1357
-12.8753
-12.6183
-12.3647
-12.1143
-11.8672
-11.6233
-11.3824
-11.1444
-10.9091
-10.6763
-10.4458
-10.2175
-9.99092
-9.76602
-9.54248
-9.32008
-9.09849
-8.87746
-8.65678
-8.43623
-8.21561
-7.99451
-7.7727
-7.55022
-7.32699
-7.10254
-6.8765
-6.64914
-6.42061
-6.1904
-5.95828
-5.72467
-5.48959
-5.25266
-5.01389
-4.77369
-4.5323
-4.28934
-4.04458
-3.79864
-3.55199
-3.30503
-3.05817
-2.81194
-2.56702
-2.3243
-2.08491
-1.85025
-1.62195
-1.40183
-1.19186
-0.994
-0.810101
-0.64178
-0.490299
-0.356492
-0.240719
-0.14287
-0.0624
0.00161636
0.0503981
0.0853817
0.108132
0.120275
0.123426
0.119144
0.108893
0.0940172
0.0757198
0.0550651
0.0329702
0.0102168
-0.012547
-0.0347891
-0.0560889
-0.076117
-0.0946302
-0.111454
-0.12648
-0.13965
-0.15093
-0.160292
-0.167778
-0.173483
-0.177484
-0.17985
-0.180659
-0.179995
-0.177947
-0.174604
-0.170054
-0.164382
-0.15767
-0.149998
-0.141442
-0.132065
-0.121923
-0.111044
-0.0994229
-0.086946
-0.0736595
-0.0579998
-0.0560142
-22.1574
-22.1717
-22.1835
-22.1929
-22.2036
-22.2164
-22.2316
-22.2493
-22.2692
-22.2915
-22.3159
-22.3422
-22.3703
-22.4003
-22.4324
-22.4666
-22.5025
-22.5399
-22.5782
-22.6173
-22.6569
-22.697
-22.7375
-22.7782
-22.819
-22.8597
-22.9003
-22.9405
-22.9801
-23.019
-23.057
-23.0937
-23.129
-23.1626
-23.1943
-23.2236
-23.2504
-23.2743
-23.295
-23.3121
-23.3253
-23.3342
-23.3385
-23.3378
-23.3316
-23.3197
-23.3016
-23.2769
-23.2452
-23.2061
-23.1594
-23.1045
-23.0412
-22.9691
-22.8879
-22.7975
-22.6975
-22.5878
-22.4683
-22.339
-22.1995
-22.0497
-21.8898
-21.72
-21.5406
-21.3518
-21.1538
-20.947
-20.7318
-20.5084
-20.2773
-20.0389
-19.7937
-19.5421
-19.2846
-19.0218
-18.7541
-18.4821
-18.2063
-17.9273
-17.6457
-17.362
-17.0767
-16.7903
-16.5034
-16.2165
-15.9299
-15.6442
-15.3598
-15.077
-14.7962
-14.5176
-14.2416
-13.9684
-13.6982
-13.4312
-13.1673
-12.9068
-12.6497
-12.3959
-12.1455
-11.8984
-11.6545
-11.4137
-11.1758
-10.9406
-10.7081
-10.478
-10.2499
-10.0238
-9.79935
-9.57637
-9.35461
-9.13366
-8.91327
-8.69333
-8.47362
-8.25402
-8.03388
-7.81295
-7.59148
-7.36926
-7.14595
-6.92122
-6.69517
-6.46784
-6.23895
-6.00832
-5.77618
-5.54252
-5.30716
-5.07013
-4.83169
-4.59205
-4.35106
-4.10866
-3.86524
-3.62114
-3.37672
-3.13236
-2.88853
-2.64585
-2.40513
-2.1674
-1.93398
-1.70643
-1.48656
-1.27629
-1.07761
-0.892396
-0.722307
-0.568648
-0.432295
-0.313654
-0.212659
-0.128806
-0.0612174
-0.00871859
0.0300801
0.0566982
0.072717
0.0797116
0.0792066
0.0726335
0.0613107
0.0464223
0.0290171
0.0100019
-0.00984772
-0.029886
-0.0495808
-0.0685082
-0.0863336
-0.102807
-0.117751
-0.131051
-0.142632
-0.152421
-0.160403
-0.166652
-0.171245
-0.174242
-0.175701
-0.175696
-0.174302
-0.171605
-0.167684
-0.162625
-0.156509
-0.149417
-0.141429
-0.132624
-0.123078
-0.112865
-0.102055
-0.0907194
-0.0788765
-0.0669336
-0.0534645
-0.0576975
-22.1597
-22.1759
-22.1893
-22.1998
-22.2111
-22.2244
-22.2398
-22.2575
-22.2775
-22.2996
-22.3238
-22.35
-22.3779
-22.4078
-22.4395
-22.473
-22.508
-22.5445
-22.5819
-22.6202
-22.6591
-22.6985
-22.7383
-22.7785
-22.8188
-22.8592
-22.8994
-22.9393
-22.9787
-23.0174
-23.0552
-23.0919
-23.1272
-23.1609
-23.1926
-23.2221
-23.2491
-23.2732
-23.2942
-23.3116
-23.3253
-23.3347
-23.3395
-23.3393
-23.3338
-23.3226
-23.3052
-23.2813
-23.2505
-23.2124
-23.1665
-23.1126
-23.0503
-22.9792
-22.8991
-22.8096
-22.7106
-22.6019
-22.4834
-22.3549
-22.2161
-22.0668
-21.9075
-21.7384
-21.5597
-21.3715
-21.1741
-20.9679
-20.7532
-20.5303
-20.2997
-20.0617
-19.8169
-19.5656
-19.3084
-19.0458
-18.7783
-18.5064
-18.2307
-17.9518
-17.6702
-17.3865
-17.1011
-16.8147
-16.5277
-16.2406
-15.9539
-15.6681
-15.3835
-15.1006
-14.8196
-14.5409
-14.2648
-13.9916
-13.7213
-13.4542
-13.1904
-12.93
-12.6729
-12.4193
-12.1691
-11.9223
-11.6787
-11.4382
-11.2006
-10.966
-10.734
-10.5044
-10.2769
-10.0514
-9.82762
-9.60538
-9.38448
-9.16436
-8.94472
-8.72563
-8.50682
-8.28807
-8.06892
-7.8491
-7.62868
-7.40745
-7.18514
-6.96153
-6.73659
-6.5103
-6.28246
-6.05297
-5.82195
-5.58938
-5.35519
-5.11944
-4.8823
-4.64396
-4.4044
-4.16365
-3.92202
-3.67978
-3.43724
-3.19472
-2.95264
-2.71155
-2.47216
-2.23542
-2.00258
-1.77516
-1.55492
-1.34383
-1.1439
-0.957096
-0.785123
-0.629352
-0.490709
-0.369636
-0.26609
-0.179589
-0.109268
-0.0539699
-0.0123197
0.0171806
0.0360945
0.0459726
0.0483209
0.0445476
0.0359555
0.0237095
0.00884801
-0.00773568
-0.025271
-0.0431207
-0.0607527
-0.0777462
-0.0937627
-0.108555
-0.121946
-0.133815
-0.144047
-0.152565
-0.159402
-0.164637
-0.168315
-0.170489
-0.171213
-0.170555
-0.168586
-0.165385
-0.161028
-0.155597
-0.149168
-0.141824
-0.133643
-0.12471
-0.11511
-0.104938
-0.0943033
-0.0833489
-0.0722067
-0.0615748
-0.0500155
-0.0588689
-22.1654
-22.1828
-22.1972
-22.2086
-22.2206
-22.2343
-22.25
-22.2678
-22.2878
-22.3098
-22.3339
-22.3599
-22.3877
-22.4173
-22.4486
-22.4815
-22.5158
-22.5515
-22.5882
-22.6257
-22.664
-22.7029
-22.7422
-22.782
-22.8219
-22.862
-22.902
-22.9417
-22.981
-23.0197
-23.0575
-23.0942
-23.1296
-23.1633
-23.1952
-23.2249
-23.2522
-23.2766
-23.2979
-23.3158
-23.3298
-23.3397
-23.3451
-23.3455
-23.3406
-23.33
-23.3133
-23.2901
-23.2601
-23.2227
-23.1776
-23.1245
-23.0629
-22.9926
-22.9132
-22.8244
-22.7261
-22.618
-22.5001
-22.372
-22.2334
-22.0843
-21.9253
-21.7564
-21.5779
-21.39
-21.1928
-20.9868
-20.7723
-20.5495
-20.3189
-20.081
-19.8362
-19.5849
-19.3276
-19.0649
-18.7973
-18.5253
-18.2494
-17.9703
-17.6885
-17.4046
-17.119
-16.8323
-16.5451
-16.2578
-15.9709
-15.6849
-15.4002
-15.1172
-14.8361
-14.5574
-14.2813
-14.0081
-13.7379
-13.471
-13.2074
-12.9471
-12.6904
-12.4371
-12.1874
-11.941
-11.6979
-11.4579
-11.221
-10.987
-10.7557
-10.527
-10.3002
-10.0754
-9.85252
-9.63116
-9.41112
-9.19195
-8.97336
-8.75531
-8.5375
-8.31969
-8.10154
-7.88279
-7.66337
-7.44309
-7.22172
-6.99905
-6.77503
-6.54959
-6.32258
-6.09394
-5.86372
-5.63192
-5.39852
-5.1636
-4.92731
-4.68981
-4.45116
-4.21147
-3.97099
-3.72997
-3.48868
-3.24741
-3.00652
-2.76647
-2.52789
-2.29166
-2.05893
-1.83117
-1.61015
-1.39787
-1.19642
-1.00783
-0.833902
-0.676084
-0.535351
-0.41218
-0.30654
-0.217951
-0.14554
-0.0881452
-0.0443856
-0.0127632
0.00828315
0.0202959
0.024772
0.0231068
0.0165911
0.00637653
-0.00650953
-0.0211848
-0.0368871
-0.0529871
-0.0689573
-0.0843799
-0.0989192
-0.112336
-0.124455
-0.135128
-0.144203
-0.151664
-0.157576
-0.161985
-0.164921
-0.166434
-0.166575
-0.165408
-0.162999
-0.159424
-0.154754
-0.149068
-0.142439
-0.134948
-0.126675
-0.117707
-0.108139
-0.0980856
-0.0876867
-0.0771444
-0.066679
-0.057199
-0.0471519
-0.0591433
-22.174
-22.1921
-22.2071
-22.2192
-22.2317
-22.2457
-22.2615
-22.2794
-22.2994
-22.3214
-22.3453
-22.3711
-22.3987
-22.4279
-22.4588
-22.4912
-22.525
-22.56
-22.596
-22.633
-22.6708
-22.7092
-22.7482
-22.7876
-22.8274
-22.8672
-22.9071
-22.9467
-22.986
-23.0247
-23.0626
-23.0994
-23.135
-23.1689
-23.2011
-23.231
-23.2586
-23.2834
-23.305
-23.3233
-23.3378
-23.3481
-23.3539
-23.3549
-23.3506
-23.3405
-23.3245
-23.3019
-23.2724
-23.2357
-23.1912
-23.1387
-23.0777
-23.008
-22.9291
-22.8408
-22.7429
-22.6352
-22.5176
-22.3894
-22.2505
-22.1014
-21.9424
-21.7735
-21.5949
-21.4069
-21.2097
-21.0036
-20.7888
-20.5659
-20.3352
-20.097
-19.8519
-19.6003
-19.3428
-19.0797
-18.8118
-18.5394
-18.2632
-17.9838
-17.7016
-17.4173
-17.1314
-16.8445
-16.557
-16.2694
-15.9823
-15.6961
-15.4113
-15.1282
-14.8471
-14.5684
-14.2924
-14.0193
-13.7494
-13.4828
-13.2194
-12.9595
-12.7033
-12.4505
-12.2014
-11.9558
-11.7133
-11.4739
-11.2378
-11.0047
-10.7743
-10.5464
-10.3206
-10.0969
-9.87506
-9.65475
-9.43573
-9.21763
-9.00018
-8.78321
-8.56647
-8.34968
-8.13254
-7.9148
-7.69634
-7.47696
-7.25643
-7.03458
-6.81132
-6.58655
-6.36017
-6.13211
-5.90241
-5.67106
-5.43809
-5.20358
-4.96768
-4.73055
-4.49231
-4.2531
-4.01318
-3.77279
-3.53217
-3.29159
-3.05136
-2.81187
-2.57368
-2.33755
-2.10457
-1.87616
-1.65409
-1.44038
-1.23722
-1.04674
-0.870848
-0.711069
-0.568439
-0.443466
-0.33612
-0.245912
-0.171945
-0.113035
-0.0677772
-0.03466
-0.0121088
0.00141911
0.00742348
0.00729047
0.00230684
-0.00638921
-0.0177768
-0.0309874
-0.0452651
-0.0599923
-0.0746441
-0.0888111
-0.102165
-0.114481
-0.125564
-0.135217
-0.143327
-0.14995
-0.155122
-0.15887
-0.161219
-0.162216
-0.161908
-0.160359
-0.157629
-0.153793
-0.148915
-0.143073
-0.136336
-0.128785
-0.120497
-0.111566
-0.102091
-0.0922003
-0.0820627
-0.0719176
-0.0620546
-0.0535011
-0.0445835
-0.0583615
-22.185
-22.2033
-22.2184
-22.2309
-22.2437
-22.2579
-22.2739
-22.2918
-22.3117
-22.3336
-22.3573
-22.3829
-22.4101
-22.439
-22.4695
-22.5014
-22.5347
-22.5692
-22.6047
-22.6413
-22.6787
-22.7168
-22.7555
-22.7947
-22.8343
-22.8741
-22.9139
-22.9536
-22.9929
-23.0317
-23.0698
-23.1068
-23.1425
-23.1767
-23.2091
-23.2394
-23.2673
-23.2924
-23.3144
-23.3331
-23.348
-23.3587
-23.365
-23.3664
-23.3626
-23.3531
-23.3375
-23.3154
-23.2865
-23.2503
-23.2063
-23.1542
-23.0937
-23.0243
-22.9457
-22.8577
-22.7599
-22.6524
-22.5347
-22.406
-22.2667
-22.1174
-21.9581
-21.789
-21.6101
-21.4218
-21.2243
-21.0178
-20.8028
-20.5794
-20.3483
-20.1097
-19.8641
-19.6121
-19.3541
-19.0906
-18.8221
-18.5493
-18.2726
-17.9927
-17.7101
-17.4254
-17.1392
-16.8519
-16.564
-16.2762
-15.9889
-15.7026
-15.4177
-15.1346
-14.8535
-14.5749
-14.299
-14.0262
-13.7567
-13.4905
-13.2276
-12.9682
-12.7125
-12.4605
-12.212
-11.9671
-11.7255
-11.4872
-11.252
-11.0199
-10.7906
-10.5637
-10.3392
-10.1167
-9.89598
-9.67685
-9.45899
-9.24207
-9.02581
-8.81
-8.59436
-8.37862
-8.16251
-7.94578
-7.72824
-7.5097
-7.28995
-7.06881
-6.84618
-6.62194
-6.39601
-6.16831
-5.93887
-5.70769
-5.47482
-5.24034
-5.00442
-4.76721
-4.52887
-4.28961
-4.04967
-3.8093
-3.56876
-3.3283
-3.08821
-2.84882
-2.6106
-2.37423
-2.14071
-1.91141
-1.68807
-1.47279
-1.26782
-1.07541
-0.897567
-0.735933
-0.591596
-0.465092
-0.356386
-0.264969
-0.189905
-0.129977
-0.0837416
-0.0496615
-0.0261391
-0.0116208
-0.00459903
-0.00368925
-0.00760716
-0.0152232
-0.025524
-0.0376522
-0.0508611
-0.0645425
-0.0781772
-0.0913671
-0.1038
-0.115254
-0.12548
-0.134277
-0.14163
-0.147604
-0.1522
-0.155438
-0.157338
-0.157949
-0.157313
-0.155494
-0.152549
-0.148547
-0.143552
-0.137638
-0.13087
-0.123329
-0.115089
-0.106247
-0.0969054
-0.0872025
-0.0773257
-0.067535
-0.0581701
-0.0502945
-0.0421627
-0.0564957
-22.1977
-22.2158
-22.2307
-22.2434
-22.2564
-22.2707
-22.2867
-22.3045
-22.3243
-22.3459
-22.3694
-22.3946
-22.4215
-22.4501
-22.4801
-22.5116
-22.5444
-22.5785
-22.6137
-22.6499
-22.687
-22.7249
-22.7635
-22.8026
-22.8421
-22.8819
-22.9218
-22.9616
-23.0011
-23.04
-23.0783
-23.1155
-23.1515
-23.186
-23.2186
-23.2492
-23.2774
-23.3028
-23.3252
-23.3442
-23.3594
-23.3706
-23.3772
-23.3791
-23.3756
-23.3665
-23.3514
-23.3297
-23.3012
-23.2653
-23.2217
-23.1699
-23.1096
-23.0404
-22.962
-22.874
-22.7764
-22.6688
-22.5503
-22.4209
-22.2812
-22.1315
-21.9718
-21.8023
-21.623
-21.4342
-21.2363
-21.0293
-20.8137
-20.5898
-20.3581
-20.119
-19.8729
-19.6202
-19.3616
-19.0976
-18.8285
-18.5551
-18.2779
-17.9974
-17.7144
-17.4293
-17.1427
-16.855
-16.5668
-16.2787
-15.9913
-15.7049
-15.4201
-15.1371
-14.856
-14.5775
-14.3019
-14.0294
-13.7603
-13.4946
-13.2323
-12.9736
-12.7187
-12.4675
-12.2199
-11.976
-11.7354
-11.4982
-11.2642
-11.0333
-10.8052
-10.5796
-10.3563
-10.1351
-9.91577
-9.69793
-9.48134
-9.26569
-9.05068
-8.83607
-8.62159
-8.40695
-8.19189
-7.97614
-7.75951
-7.54178
-7.32275
-7.10225
-6.88014
-6.65632
-6.43068
-6.20318
-5.9738
-5.74255
-5.5095
-5.27474
-5.03842
-4.80072
-4.56183
-4.32198
-4.08145
-3.84052
-3.59946
-3.35854
-3.11804
-2.87825
-2.63958
-2.40264
-2.16832
-1.93793
-1.7132
-1.49624
-1.2894
-1.09505
-0.915323
-0.751951
-0.606089
-0.478303
-0.368545
-0.276277
-0.200514
-0.139997
-0.0932306
-0.0586457
-0.0346098
-0.0195546
-0.0119552
-0.0104277
-0.0136836
-0.0206035
-0.0301768
-0.0415608
-0.0540139
-0.0669403
-0.0798258
-0.0922953
-0.104049
-0.114833
-0.124338
-0.132462
-0.139259
-0.144749
-0.148913
-0.151775
-0.153349
-0.153688
-0.15283
-0.150839
-0.147767
-0.143684
-0.138646
-0.132728
-0.12599
-0.118512
-0.110366
-0.101648
-0.0924638
-0.0829542
-0.0733207
-0.0638224
-0.0548442
-0.0473906
-0.0397821
-0.0535656
-22.2116
-22.2292
-22.2437
-22.2564
-22.2694
-22.2836
-22.2994
-22.3171
-22.3365
-22.3579
-22.381
-22.4059
-22.4324
-22.4606
-22.4903
-22.5214
-22.5539
-22.5876
-22.6225
-22.6585
-22.6954
-22.7332
-22.7717
-22.8108
-22.8504
-22.8903
-22.9303
-22.9702
-23.0099
-23.049
-23.0875
-23.1249
-23.1612
-23.1959
-23.2289
-23.2597
-23.2881
-23.3139
-23.3365
-23.3558
-23.3713
-23.3828
-23.3897
-23.3918
-23.3887
-23.3799
-23.365
-23.3437
-23.3154
-23.2798
-23.2364
-23.1848
-23.1246
-23.0555
-22.977
-22.889
-22.7912
-22.683
-22.5636
-22.4335
-22.2933
-22.1431
-21.9829
-21.8128
-21.633
-21.4437
-21.2451
-21.0375
-20.8213
-20.5968
-20.3644
-20.1246
-19.8779
-19.6246
-19.3654
-19.1007
-18.831
-18.5569
-18.2791
-17.9982
-17.7146
-17.4291
-17.1423
-16.8543
-16.5657
-16.2774
-15.9898
-15.7033
-15.4185
-15.1355
-14.8547
-14.5765
-14.3013
-14.0293
-13.7607
-13.4956
-13.2341
-12.9763
-12.7223
-12.4721
-12.2256
-11.9828
-11.7435
-11.5075
-11.2749
-11.0453
-10.8185
-10.5943
-10.3725
-10.1527
-9.93476
-9.71832
-9.5031
-9.28879
-9.0751
-8.86175
-8.64846
-8.43495
-8.22094
-8.00618
-7.79043
-7.57349
-7.35515
-7.13522
-6.91357
-6.69006
-6.46461
-6.23715
-6.00766
-5.77616
-5.5427
-5.30737
-5.07032
-4.83176
-4.59188
-4.35096
-4.10929
-3.8672
-3.62501
-3.38301
-3.1415
-2.90078
-2.66122
-2.42334
-2.18796
-1.9563
-1.73006
-1.51137
-1.30266
-1.10641
-0.924879
-0.759913
-0.612725
-0.483908
-0.373396
-0.280617
-0.204528
-0.143816
-0.096929
-0.0622549
-0.0381212
-0.0229373
-0.0151583
-0.0133952
-0.0163546
-0.0229232
-0.032095
-0.0430393
-0.0550208
-0.0674539
-0.0798384
-0.091827
-0.103109
-0.113353
-0.122289
-0.129948
-0.136357
-0.141505
-0.14537
-0.147974
-0.149335
-0.149504
-0.148517
-0.146439
-0.143317
-0.139222
-0.134206
-0.12834
-0.121682
-0.11431
-0.106291
-0.0977225
-0.0887082
-0.0793874
-0.0699686
-0.0606934
-0.0519876
-0.0447117
-0.0374206
-0.0496575
-22.2261
-22.243
-22.2569
-22.2694
-22.2822
-22.2962
-22.3118
-22.3291
-22.3482
-22.3692
-22.3919
-22.4164
-22.4426
-22.4703
-22.4997
-22.5305
-22.5627
-22.5962
-22.6309
-22.6667
-22.7035
-22.7413
-22.7798
-22.819
-22.8587
-22.8987
-22.9388
-22.9789
-23.0188
-23.0582
-23.0969
-23.1345
-23.171
-23.206
-23.2391
-23.2702
-23.2988
-23.3247
-23.3476
-23.367
-23.3827
-23.3944
-23.4015
-23.4038
-23.4009
-23.3923
-23.3776
-23.3564
-23.3283
-23.2927
-23.2494
-23.1979
-23.1377
-23.0684
-22.9898
-22.9016
-22.8034
-22.6941
-22.5736
-22.443
-22.3023
-22.1514
-21.9906
-21.8199
-21.6395
-21.4496
-21.2504
-21.0422
-20.8252
-20.6
-20.3669
-20.1264
-19.879
-19.6251
-19.3652
-19.1
-18.8297
-18.555
-18.2766
-17.9951
-17.7111
-17.4251
-17.1378
-16.8495
-16.5607
-16.2723
-15.9846
-15.6981
-15.4133
-15.1305
-14.85
-14.5723
-14.2976
-14.0262
-13.7583
-13.494
-13.2334
-12.9766
-12.7237
-12.4746
-12.2294
-11.9878
-11.7499
-11.5154
-11.2842
-11.0561
-10.8308
-10.6082
-10.3878
-10.1696
-9.95315
-9.73819
-9.52442
-9.31153
-9.0992
-8.88716
-8.6751
-8.46275
-8.24981
-8.03603
-7.82117
-7.605
-7.38731
-7.16791
-6.94665
-6.7234
-6.49805
-6.27053
-6.04081
-5.8089
-5.57484
-5.33873
-5.10071
-4.86096
-4.61973
-4.37729
-4.13398
-3.89017
-3.64622
-3.4025
-3.15936
-2.91712
-2.67615
-2.43692
-2.20017
-1.96706
-1.7392
-1.51875
-1.30818
-1.1101
-0.926877
-0.760472
-0.612157
-0.482554
-0.371571
-0.278598
-0.202526
-0.141982
-0.0953476
-0.0609645
-0.0371104
-0.0221715
-0.0145742
-0.0129259
-0.0159213
-0.0224565
-0.0315251
-0.0423113
-0.0540806
-0.0662649
-0.0783845
-0.0901151
-0.101077
-0.110896
-0.119451
-0.126834
-0.133
-0.137937
-0.141619
-0.144075
-0.145319
-0.145407
-0.144371
-0.14228
-0.139173
-0.135125
-0.13018
-0.124411
-0.11787
-0.110635
-0.102767
-0.0943618
-0.08552
-0.0763742
-0.0671369
-0.0580114
-0.0494768
-0.0421477
-0.03505
-0.0448627
-22.2409
-22.2569
-22.27
-22.2822
-22.2946
-22.3082
-22.3234
-22.3403
-22.359
-22.3795
-22.4018
-22.4259
-22.4516
-22.4791
-22.5081
-22.5386
-22.5706
-22.6039
-22.6385
-22.6743
-22.7111
-22.7489
-22.7875
-22.8268
-22.8666
-22.9068
-22.9471
-22.9874
-23.0275
-23.067
-23.1059
-23.1437
-23.1804
-23.2155
-23.2487
-23.2799
-23.3086
-23.3346
-23.3576
-23.3771
-23.3929
-23.4046
-23.4118
-23.4141
-23.4113
-23.4027
-23.3881
-23.3669
-23.3388
-23.3032
-23.2599
-23.2082
-23.1478
-23.0784
-22.9996
-22.9111
-22.8118
-22.7011
-22.5799
-22.4487
-22.3073
-22.1559
-21.9945
-21.8231
-21.6421
-21.4515
-21.2517
-21.0429
-20.8252
-20.5993
-20.3656
-20.1244
-19.8762
-19.6216
-19.361
-19.0951
-18.8243
-18.549
-18.27
-17.988
-17.7035
-17.4171
-17.1294
-16.8408
-16.552
-16.2635
-15.9758
-15.6894
-15.4048
-15.1223
-14.8423
-14.5651
-14.2911
-14.0204
-13.7533
-13.49
-13.2305
-12.9748
-12.7231
-12.4754
-12.2315
-11.9914
-11.755
-11.522
-11.2924
-11.0659
-10.8423
-10.6213
-10.4026
-10.186
-9.9711
-9.7577
-9.54544
-9.33402
-9.1231
-8.9124
-8.70161
-8.49042
-8.27857
-8.06577
-7.85178
-7.63636
-7.4193
-7.20039
-6.97948
-6.75643
-6.53111
-6.30345
-6.07341
-5.84098
-5.60619
-5.36912
-5.1299
-4.88872
-4.64582
-4.40148
-4.15607
-3.91
-3.66369
-3.4176
-3.17215
-2.92774
-2.68477
-2.44371
-2.20524
-1.97044
-1.74085
-1.51861
-1.30622
-1.1064
-0.921623
-0.753959
-0.60474
-0.47461
-0.36345
-0.270605
-0.194891
-0.134873
-0.0888561
-0.0551314
-0.0319221
-0.0175848
-0.0105162
-0.00931433
-0.0126632
-0.0194642
-0.0287128
-0.0396032
-0.0514049
-0.063573
-0.0756574
-0.0873126
-0.0980523
-0.107601
-0.115985
-0.123241
-0.129296
-0.134138
-0.137744
-0.140149
-0.141364
-0.14145
-0.140436
-0.138393
-0.135358
-0.131404
-0.126574
-0.120939
-0.114546
-0.10747
-0.0997712
-0.0915379
-0.0828667
-0.0738794
-0.0647875
-0.0557419
-0.0472842
-0.0396933
-0.0327055
-0.0393131
-22.2555
-22.2706
-22.2828
-22.2944
-22.3064
-22.3195
-22.3341
-22.3505
-22.3686
-22.3886
-22.4105
-22.4341
-22.4595
-22.4866
-22.5154
-22.5457
-22.5775
-22.6107
-22.6453
-22.681
-22.7179
-22.7558
-22.7945
-22.8339
-22.8739
-22.9143
-22.9548
-22.9952
-23.0354
-23.0751
-23.114
-23.152
-23.1886
-23.2238
-23.257
-23.2882
-23.3169
-23.3428
-23.3657
-23.3851
-23.4008
-23.4124
-23.4196
-23.4219
-23.4189
-23.4103
-23.3956
-23.3743
-23.346
-23.3103
-23.2668
-23.2149
-23.1543
-23.0845
-23.0054
-22.9159
-22.8152
-22.7037
-22.582
-22.4502
-22.3082
-22.1562
-21.9941
-21.8221
-21.6404
-21.4492
-21.2487
-21.0392
-20.821
-20.5944
-20.36
-20.1181
-19.8692
-19.6139
-19.3527
-19.0861
-18.8146
-18.5388
-18.2594
-17.9769
-17.692
-17.4053
-17.1173
-16.8285
-16.5396
-16.2512
-15.9636
-15.6775
-15.3932
-15.1111
-14.8317
-14.5552
-14.2819
-14.0122
-13.7461
-13.4838
-13.2255
-12.9712
-12.7209
-12.4746
-12.2322
-11.9937
-11.7589
-11.5276
-11.2997
-11.0749
-10.853
-10.6337
-10.4168
-10.2018
-9.98864
-9.77686
-9.56618
-9.35626
-9.1468
-8.93746
-8.72795
-8.51796
-8.30719
-8.09537
-7.88224
-7.66756
-7.4511
-7.23266
-7.01207
-6.78917
-6.56385
-6.336
-6.10557
-5.87254
-5.63693
-5.39879
-5.15824
-4.91545
-4.67064
-4.4241
-4.17622
-3.92742
-3.67822
-3.42912
-3.18067
-2.93338
-2.68775
-2.44429
-2.20366
-1.96687
-1.73539
-1.5113
-1.29713
-1.09565
-0.909471
-0.740733
-0.590828
-0.460426
-0.349371
-0.256963
-0.181933
-0.122782
-0.0777288
-0.045013
-0.0227936
-0.00939903
-0.00318684
-0.002749
-0.00675113
-0.0141051
-0.0238009
-0.0350463
-0.0471129
-0.0594974
-0.0717579
-0.0834607
-0.0940843
-0.103567
-0.111954
-0.119219
-0.125279
-0.130135
-0.133761
-0.136201
-0.137464
-0.137616
-0.136684
-0.134742
-0.131823
-0.128005
-0.123322
-0.117848
-0.111625
-0.104726
-0.0972053
-0.0891469
-0.08064
-0.071791
-0.0628114
-0.0537785
-0.0453239
-0.0372825
-0.0303861
-0.0331266
-22.2698
-22.2839
-22.2951
-22.306
-22.3173
-22.3297
-22.3437
-22.3594
-22.377
-22.3965
-22.4178
-22.441
-22.466
-22.4928
-22.5214
-22.5515
-22.5832
-22.6164
-22.651
-22.6868
-22.7238
-22.7618
-22.8006
-22.8402
-22.8803
-22.9207
-22.9613
-23.0019
-23.0421
-23.0818
-23.1207
-23.1585
-23.1951
-23.2301
-23.2632
-23.2942
-23.3227
-23.3484
-23.371
-23.3902
-23.4057
-23.4171
-23.424
-23.426
-23.4229
-23.4141
-23.3992
-23.3777
-23.3492
-23.3133
-23.2695
-23.2173
-23.1564
-23.0863
-23.0063
-22.9153
-22.8134
-22.7014
-22.5792
-22.4469
-22.3044
-22.1518
-21.9891
-21.8165
-21.6342
-21.4423
-21.2411
-21.031
-20.8121
-20.5849
-20.3498
-20.1073
-19.8578
-19.6019
-19.3401
-19.0729
-18.8009
-18.5246
-18.2448
-17.9619
-17.6767
-17.3897
-17.1016
-16.8128
-16.5239
-16.2356
-15.9483
-15.6625
-15.3787
-15.0972
-14.8185
-14.5428
-14.2705
-14.0017
-13.7368
-13.4758
-13.2188
-12.9659
-12.7171
-12.4724
-12.2317
-11.9949
-11.7618
-11.5323
-11.3062
-11.0832
-10.8631
-10.6456
-10.4305
-10.2173
-10.0058
-9.79573
-9.58666
-9.37829
-9.17029
-8.96234
-8.75412
-8.54531
-8.33563
-8.12477
-7.91249
-7.69852
-7.48265
-7.26464
-7.04434
-6.82156
-6.59619
-6.3681
-6.13725
-5.90357
-5.66707
-5.42779
-5.18582
-4.94128
-4.6944
-4.44544
-4.19479
-3.94288
-3.69028
-3.43758
-3.18546
-2.93457
-2.68555
-2.43902
-2.19569
-1.95652
-1.72292
-1.4969
-1.28097
-1.07795
-0.890513
-0.720903
-0.570553
-0.440152
-0.329501
-0.237851
-0.163843
-0.105908
-0.062173
-0.0308199
-0.00993982
0.00217281
0.00720033
0.00656242
0.00160949
-0.00657567
-0.0169796
-0.0288185
-0.041382
-0.0542094
-0.0668166
-0.078643
-0.0893147
-0.0989398
-0.107472
-0.114866
-0.121042
-0.126008
-0.129742
-0.132293
-0.133672
-0.13395
-0.133152
-0.131357
-0.128594
-0.124943
-0.120436
-0.115147
-0.109111
-0.102403
-0.0950676
-0.0871853
-0.0788356
-0.0701066
-0.061207
-0.0521284
-0.0436103
-0.0349541
-0.0281478
-0.0264511
-22.2837
-22.2967
-22.3068
-22.3169
-22.3273
-22.3389
-22.3521
-22.3671
-22.384
-22.4029
-22.4237
-22.4465
-22.4712
-22.4977
-22.5261
-22.5561
-22.5878
-22.621
-22.6556
-22.6915
-22.7285
-22.7666
-22.8055
-22.8451
-22.8853
-22.9257
-22.9663
-23.0068
-23.0469
-23.0864
-23.1251
-23.1627
-23.199
-23.2337
-23.2664
-23.2971
-23.3252
-23.3505
-23.3728
-23.3916
-23.4067
-23.4176
-23.4242
-23.4259
-23.4224
-23.4133
-23.3982
-23.3764
-23.3477
-23.3115
-23.2673
-23.2148
-23.1535
-23.0827
-23.0011
-22.9087
-22.8063
-22.6938
-22.5711
-22.4383
-22.2952
-22.1421
-21.9789
-21.8057
-21.6228
-21.4304
-21.2286
-21.0179
-20.7984
-20.5707
-20.335
-20.092
-19.8419
-19.5855
-19.3232
-19.0555
-18.783
-18.5064
-18.2262
-17.9432
-17.6577
-17.3707
-17.0825
-16.7937
-16.5051
-16.217
-15.9301
-15.6448
-15.3615
-15.0808
-14.8028
-14.5281
-14.2568
-13.9893
-13.7256
-13.466
-13.2105
-12.9591
-12.712
-12.4689
-12.23
-11.995
-11.7638
-11.5361
-11.3119
-11.0908
-10.8726
-10.657
-10.4437
-10.2324
-10.0227
-9.81425
-9.60682
-9.40002
-9.1935
-8.98694
-8.78001
-8.57238
-8.36377
-8.15387
-7.94241
-7.72914
-7.51382
-7.29622
-7.07618
-6.85349
-6.62805
-6.39971
-6.1684
-5.93404
-5.69664
-5.45618
-5.21274
-4.96641
-4.71738
-4.46587
-4.21226
-3.95697
-3.7006
-3.44381
-3.1874
-2.93218
-2.679
-2.42865
-2.18196
-1.93992
-1.70388
-1.47577
-1.25805
-1.05356
-0.865002
-0.694707
-0.544138
-0.413997
-0.304035
-0.213452
-0.14079
-0.0844084
-0.0423337
-0.0126886
0.00651389
0.0170114
0.0205368
0.0185161
0.0123249
0.00303453
-0.00832707
-0.0209968
-0.03429
-0.0477736
-0.0608275
-0.0728884
-0.083827
-0.0937607
-0.102566
-0.110203
-0.116592
-0.121758
-0.125676
-0.128408
-0.129962
-0.130418