/*--------------------------------*- C++ -*----------------------------------*\
  =========                 |
  \\      /  F ield         | OpenFOAM: The Open Source CFD Toolbox
   \\    /   O peration     | Website:  https://openfoam.org
    \\  /    A nd           | Version:  7
     \\/     M anipulation  |
\*---------------------------------------------------------------------------*/
FoamFile
{
    version     2.0;
    format      ascii;
    class       surfaceScalarField;
    location    "700";
    object      phi;
}
// * * * * * * * * * * * * * * * * * * * * * * * * * * * * * * * * * * * * * //

dimensions      [0 3 -1 0 0 0 0];

internalField   nonuniform List<scalar> 
33502
(
2.84565e-09
-2.84513e-09
-3.24898e-08
3.53352e-08
-8.54041e-08
5.29135e-08
-1.44851e-07
5.94476e-08
-2.06937e-07
6.20845e-08
-2.70315e-07
6.33813e-08
-3.34475e-07
6.41578e-08
-3.9917e-07
6.47e-08
-4.64303e-07
6.51332e-08
-5.2989e-07
6.55892e-08
-5.96157e-07
6.62672e-08
-6.63617e-07
6.74606e-08
-7.33067e-07
6.94495e-08
-8.04867e-07
7.17992e-08
-8.76464e-07
7.15965e-08
-9.52827e-07
7.63647e-08
-1.0256e-06
7.27693e-08
-1.08819e-06
6.25978e-08
-1.15177e-06
6.35778e-08
-1.21572e-06
6.39472e-08
-1.27944e-06
6.37256e-08
-1.3427e-06
6.32614e-08
-1.4054e-06
6.27044e-08
-1.46753e-06
6.21233e-08
-1.52907e-06
6.15482e-08
-1.59005e-06
6.09814e-08
-1.65047e-06
6.04191e-08
-1.71033e-06
5.98526e-08
-1.7696e-06
5.92726e-08
-1.82827e-06
5.86695e-08
-1.8863e-06
5.80344e-08
-1.94366e-06
5.7359e-08
-2.0003e-06
5.6636e-08
-2.05616e-06
5.58585e-08
-2.11118e-06
5.50207e-08
-2.1653e-06
5.41171e-08
-2.21844e-06
5.31429e-08
-2.27054e-06
5.2094e-08
-2.3215e-06
5.09663e-08
-2.37126e-06
4.97563e-08
-2.41972e-06
4.84608e-08
-2.4668e-06
4.70768e-08
-2.5124e-06
4.56016e-08
-2.55644e-06
4.40328e-08
-2.5988e-06
4.23686e-08
-2.63941e-06
4.06072e-08
-2.67816e-06
3.87479e-08
-2.71495e-06
3.67903e-08
-2.74969e-06
3.47348e-08
-2.78227e-06
3.2583e-08
-2.81261e-06
3.03371e-08
-2.84061e-06
2.80005e-08
-2.86619e-06
2.55781e-08
-2.88926e-06
2.30754e-08
-2.90976e-06
2.04996e-08
-2.92762e-06
1.78587e-08
-2.94278e-06
1.51617e-08
-2.9552e-06
1.24182e-08
-2.96484e-06
9.63851e-09
-2.97167e-06
6.83249e-09
-2.97568e-06
4.00774e-09
-2.97685e-06
1.16848e-09
-2.97518e-06
-1.66242e-09
-2.97074e-06
-4.44583e-09
-2.96356e-06
-7.17146e-09
-2.95371e-06
-9.847e-09
-2.94124e-06
-1.24718e-08
-2.9262e-06
-1.50426e-08
-2.90864e-06
-1.75546e-08
-2.88864e-06
-2.00025e-08
-2.86626e-06
-2.23804e-08
-2.84157e-06
-2.46828e-08
-2.81466e-06
-2.69035e-08
-2.78563e-06
-2.90369e-08
-2.75455e-06
-3.10772e-08
-2.72152e-06
-3.30188e-08
-2.68667e-06
-3.48562e-08
-2.65008e-06
-3.65842e-08
-2.61188e-06
-3.81978e-08
-2.57218e-06
-3.96931e-08
-2.53111e-06
-4.10665e-08
-2.4888e-06
-4.23156e-08
-2.44536e-06
-4.34382e-08
-2.40092e-06
-4.44334e-08
-2.35562e-06
-4.52996e-08
-2.30958e-06
-4.6037e-08
-2.26293e-06
-4.66461e-08
-2.2158e-06
-4.71293e-08
-2.16831e-06
-4.74896e-08
-2.12057e-06
-4.77314e-08
-2.07271e-06
-4.78588e-08
-2.02484e-06
-4.78769e-08
-1.97704e-06
-4.77908e-08
-1.92944e-06
-4.7608e-08
-1.8821e-06
-4.73364e-08
-1.83511e-06
-4.69859e-08
-1.78855e-06
-4.65657e-08
-1.74246e-06
-4.60849e-08
-1.69691e-06
-4.55515e-08
-1.65194e-06
-4.49768e-08
-1.60757e-06
-4.4372e-08
-1.56382e-06
-4.37507e-08
-1.5207e-06
-4.31256e-08
-1.47819e-06
-4.25072e-08
-1.43629e-06
-4.19037e-08
-1.39497e-06
-4.13269e-08
-1.35419e-06
-4.079e-08
-1.31388e-06
-4.03082e-08
-1.27399e-06
-3.98952e-08
-1.23444e-06
-3.9558e-08
-1.19515e-06
-3.93016e-08
-1.15602e-06
-3.91368e-08
-1.11695e-06
-3.90776e-08
-1.07781e-06
-3.9143e-08
-1.03848e-06
-3.93391e-08
-9.9883e-07
-3.96592e-08
-9.5873e-07
-4.01081e-08
-9.1804e-07
-4.06985e-08
-8.76585e-07
-4.14637e-08
-8.34197e-07
-4.23966e-08
-7.90739e-07
-4.34665e-08
-7.46071e-07
-4.46767e-08
-6.99999e-07
-4.608e-08
-6.52325e-07
-4.76824e-08
-6.02915e-07
-4.94168e-08
-5.51675e-07
-5.12475e-08
-4.98367e-07
-5.3313e-08
-4.4276e-07
-5.56106e-08
-3.8478e-07
-5.79825e-08
-3.24455e-07
-6.03258e-08
-2.61516e-07
-6.29365e-08
-1.95701e-07
-6.5809e-08
-1.26938e-07
-6.87536e-08
-5.49918e-08
-7.19337e-08
1.99715e-08
-7.49494e-08
9.75691e-08
-7.75821e-08
1.77856e-07
-8.02711e-08
2.61125e-07
-8.32505e-08
3.47648e-07
-8.65046e-08
4.37677e-07
-9.00102e-08
5.31444e-07
-9.37478e-08
6.29149e-07
-9.76875e-08
7.30946e-07
-1.0178e-07
8.36906e-07
-1.05945e-07
9.4699e-07
-1.10069e-07
1.06101e-06
-1.14008e-07
1.17861e-06
-1.17593e-07
1.29927e-06
-1.20648e-07
1.42228e-06
-1.23003e-07
1.54681e-06
-1.24517e-07
1.6719e-06
-1.25088e-07
1.79656e-06
-1.24661e-07
1.9198e-06
-1.23232e-07
2.04064e-06
-1.20843e-07
2.15822e-06
-1.17572e-07
2.27174e-06
-1.13526e-07
2.38057e-06
-1.08829e-07
2.48417e-06
-1.03609e-07
2.58216e-06
-9.79948e-08
2.67426e-06
-9.2108e-08
2.76031e-06
-8.60589e-08
2.84025e-06
-7.99435e-08
2.91409e-06
-7.38452e-08
2.98191e-06
-6.7831e-08
3.04386e-06
-6.19575e-08
3.10012e-06
-5.62658e-08
3.15091e-06
-5.07899e-08
3.19645e-06
-4.55507e-08
3.23701e-06
-4.05655e-08
3.27285e-06
-3.58404e-08
3.30423e-06
-3.13812e-08
3.33142e-06
-2.71844e-08
3.35466e-06
-2.32482e-08
3.37423e-06
-1.95633e-08
3.39035e-06
-1.61233e-08
3.40327e-06
-1.29158e-08
3.4132e-06
-9.93245e-09
3.42037e-06
-7.16031e-09
3.42496e-06
-4.59361e-09
3.4272e-06
-2.2351e-09
3.4273e-06
-9.38769e-11
3.42542e-06
1.88275e-09
3.42167e-06
3.74888e-09
3.41616e-06
5.51367e-09
3.40898e-06
7.17809e-09
3.40024e-06
8.74715e-09
3.39002e-06
1.02231e-08
3.37841e-06
1.16118e-08
3.3655e-06
1.29163e-08
3.35136e-06
1.41428e-08
3.33606e-06
1.5296e-08
3.31968e-06
1.63847e-08
3.30225e-06
1.74202e-08
3.28383e-06
1.84257e-08
3.26438e-06
1.94427e-08
3.24381e-06
2.056e-08
3.22184e-06
2.19577e-08
3.19777e-06
2.40588e-08
3.16965e-06
2.81044e-08
3.70306e-08
-3.19091e-08
2.9065e-08
-7.25121e-08
7.59382e-08
-1.21216e-07
1.01617e-07
-1.76031e-07
1.14263e-07
-2.3461e-07
1.20664e-07
-2.9551e-07
1.24282e-07
-3.57985e-07
1.26634e-07
-4.21674e-07
1.28389e-07
-4.8641e-07
1.29871e-07
-5.52086e-07
1.31266e-07
-6.18542e-07
1.32724e-07
-6.85467e-07
1.34384e-07
-7.52273e-07
1.36257e-07
-8.18277e-07
1.37802e-07
-8.84494e-07
1.37815e-07
-9.45695e-07
1.37565e-07
-1.00767e-06
1.34742e-07
-1.07416e-06
1.2909e-07
-1.13708e-06
1.26493e-07
-1.19792e-06
1.24791e-07
-1.25752e-06
1.23323e-07
-1.31618e-06
1.21929e-07
-1.37408e-06
1.20606e-07
-1.43131e-06
1.19348e-07
-1.4879e-06
1.18141e-07
-1.54389e-06
1.16968e-07
-1.59928e-06
1.1581e-07
-1.65407e-06
1.14646e-07
-1.70825e-06
1.13456e-07
-1.76181e-06
1.12222e-07
-1.8147e-06
1.10925e-07
-1.86689e-06
1.09552e-07
-1.91834e-06
1.08086e-07
-1.969e-06
1.06516e-07
-2.01881e-06
1.0483e-07
-2.06771e-06
1.03019e-07
-2.11564e-06
1.01072e-07
-2.16253e-06
9.89814e-08
-2.2083e-06
9.67401e-08
-2.25289e-06
9.43411e-08
-2.2962e-06
9.17779e-08
-2.33817e-06
8.90447e-08
-2.37871e-06
8.61362e-08
-2.41772e-06
8.30476e-08
-2.45513e-06
7.97749e-08
-2.49084e-06
7.6315e-08
-2.52476e-06
7.26657e-08
-2.55679e-06
6.88262e-08
-2.58686e-06
6.47974e-08
-2.61485e-06
6.05818e-08
-2.6407e-06
5.61838e-08
-2.66431e-06
5.161e-08
-2.6856e-06
4.68695e-08
-2.7045e-06
4.19733e-08
-2.72094e-06
3.69352e-08
-2.73485e-06
3.17709e-08
-2.74618e-06
2.64979e-08
-2.7549e-06
2.11353e-08
-2.76097e-06
1.57028e-08
-2.76435e-06
1.02192e-08
-2.76504e-06
4.70022e-09
-2.76304e-06
-8.38798e-10
-2.75837e-06
-6.33125e-09
-2.75109e-06
-1.17205e-08
-2.74125e-06
-1.70121e-08
-2.72889e-06
-2.22082e-08
-2.71406e-06
-2.73047e-08
-2.6968e-06
-3.2294e-08
-2.67719e-06
-3.71668e-08
-2.65528e-06
-4.19124e-08
-2.63114e-06
-4.65199e-08
-2.60484e-06
-5.09776e-08
-2.57647e-06
-5.52744e-08
-2.54611e-06
-5.93989e-08
-2.51384e-06
-6.33406e-08
-2.47977e-06
-6.70885e-08
-2.44399e-06
-7.06324e-08
-2.40661e-06
-7.39621e-08
-2.36774e-06
-7.70688e-08
-2.32749e-06
-7.99442e-08
-2.28597e-06
-8.25826e-08
-2.24331e-06
-8.4979e-08
-2.19961e-06
-8.71308e-08
-2.15501e-06
-8.90353e-08
-2.10962e-06
-9.06917e-08
-2.06355e-06
-9.20992e-08
-2.01694e-06
-9.32605e-08
-1.96989e-06
-9.41796e-08
-1.92251e-06
-9.4864e-08
-1.87492e-06
-9.5322e-08
-1.82721e-06
-9.55635e-08
-1.77949e-06
-9.55976e-08
-1.73185e-06
-9.54359e-08
-1.68436e-06
-9.50917e-08
-1.63712e-06
-9.45824e-08
-1.59018e-06
-9.39262e-08
-1.5436e-06
-9.31433e-08
-1.49743e-06
-9.22504e-08
-1.45172e-06
-9.12647e-08
-1.40649e-06
-9.0206e-08
-1.36176e-06
-8.90978e-08
-1.31755e-06
-8.79652e-08
-1.27384e-06
-8.68348e-08
-1.23062e-06
-8.57261e-08
-1.18787e-06
-8.4656e-08
-1.14556e-06
-8.36458e-08
-1.10363e-06
-8.27211e-08
-1.06203e-06
-8.191e-08
-1.02068e-06
-8.12406e-08
-9.79516e-07
-8.0727e-08
-9.38441e-07
-8.03793e-08
-8.97364e-07
-8.02165e-08
-8.5618e-07
-8.02639e-08
-8.14767e-07
-8.05581e-08
-7.72996e-07
-8.11133e-08
-7.30738e-07
-8.19202e-08
-6.87863e-07
-8.29857e-08
-6.44233e-07
-8.43316e-08
-5.99684e-07
-8.60158e-08
-5.54049e-07
-8.8035e-08
-5.07179e-07
-9.03396e-08
-4.58926e-07
-9.29335e-08
-4.09114e-07
-9.58944e-08
-3.57559e-07
-9.92415e-08
-3.04093e-07
-1.02885e-07
-2.48562e-07
-1.06782e-07
-1.90806e-07
-1.11071e-07
-1.30671e-07
-1.15748e-07
-6.79586e-08
-1.20696e-07
-2.338e-09
-1.25948e-07
6.60759e-08
-1.31351e-07
1.37139e-07
-1.36873e-07
2.111e-07
-1.42713e-07
2.88071e-07
-1.48905e-07
3.68201e-07
-1.55078e-07
4.51523e-07
-1.60904e-07
5.3801e-07
-1.66757e-07
6.27702e-07
-1.72941e-07
7.20669e-07
-1.79469e-07
8.16989e-07
-1.86328e-07
9.16721e-07
-1.93477e-07
1.01989e-06
-2.00853e-07
1.12646e-06
-2.08349e-07
1.23633e-06
-2.15812e-07
1.34929e-06
-2.2303e-07
1.46503e-06
-2.29743e-07
1.5831e-06
-2.35659e-07
1.70292e-06
-2.40474e-07
1.82383e-06
-2.43908e-07
1.94504e-06
-2.45728e-07
2.06573e-06
-2.45776e-07
2.18504e-06
-2.43976e-07
2.30215e-06
-2.4034e-07
2.41626e-06
-2.34958e-07
2.52667e-06
-2.27985e-07
2.63277e-06
-2.19623e-07
2.73403e-06
-2.10099e-07
2.83007e-06
-1.99652e-07
2.92059e-06
-1.88517e-07
3.00539e-06
-1.76916e-07
3.08438e-06
-1.6505e-07
3.15753e-06
-1.53094e-07
3.22487e-06
-1.41199e-07
3.28653e-06
-1.2949e-07
3.34263e-06
-1.18065e-07
3.39337e-06
-1.07004e-07
3.43894e-06
-9.63625e-08
3.47957e-06
-8.61835e-08
3.51549e-06
-7.64926e-08
3.54695e-06
-6.73048e-08
3.5742e-06
-5.86247e-08
3.59746e-06
-5.04496e-08
3.61699e-06
-4.277e-08
3.633e-06
-3.55723e-08
3.64571e-06
-2.8839e-08
3.65535e-06
-2.25506e-08
3.66211e-06
-1.66858e-08
3.66617e-06
-1.12244e-08
3.66773e-06
-6.1497e-09
3.66696e-06
-1.45654e-09
3.66397e-06
2.89707e-09
3.65889e-06
6.96968e-09
3.65185e-06
1.07893e-08
3.64299e-06
1.43761e-08
3.63243e-06
1.77449e-08
3.62027e-06
2.09081e-08
3.60663e-06
2.38765e-08
3.59158e-06
2.66602e-08
3.57523e-06
2.92683e-08
3.55767e-06
3.17097e-08
3.53898e-06
3.3994e-08
3.51923e-06
3.61338e-08
3.4985e-06
3.81492e-08
3.47685e-06
4.00768e-08
3.45431e-06
4.19887e-08
3.43083e-06
4.40316e-08
3.40627e-06
4.65058e-08
3.38025e-06
5.00703e-08
3.35199e-06
5.63514e-08
6.71081e-08
-4.62764e-08
7.53417e-08
-9.2054e-08
1.21717e-07
-1.40349e-07
1.49912e-07
-1.92321e-07
1.66237e-07
-2.47385e-07
1.75728e-07
-3.04684e-07
1.81582e-07
-3.63575e-07
1.85525e-07
-4.23629e-07
1.88444e-07
-4.84536e-07
1.90778e-07
-5.46007e-07
1.92738e-07
-6.07695e-07
1.94411e-07
-6.69119e-07
1.9581e-07
-7.29674e-07
1.96813e-07
-7.88908e-07
1.97037e-07
-8.4703e-07
1.95936e-07
-9.03197e-07
1.93732e-07
-9.58794e-07
1.90338e-07
-1.01559e-06
1.85885e-07
-1.07141e-06
1.82317e-07
-1.12611e-06
1.79484e-07
-1.17984e-06
1.77061e-07
-1.2328e-06
1.74886e-07
-1.28508e-06
1.72888e-07
-1.33675e-06
1.71019e-07
-1.38785e-06
1.69241e-07
-1.4384e-06
1.67518e-07
-1.48841e-06
1.65816e-07
-1.53786e-06
1.64103e-07
-1.58676e-06
1.6235e-07
-1.63507e-06
1.60531e-07
-1.68276e-06
1.5862e-07
-1.72981e-06
1.56595e-07
-1.77616e-06
1.54437e-07
-1.82177e-06
1.52127e-07
-1.86659e-06
1.49648e-07
-1.91056e-06
1.46988e-07
-1.95362e-06
1.44133e-07
-1.99571e-06
1.4107e-07
-2.03676e-06
1.37791e-07
-2.0767e-06
1.34283e-07
-2.11546e-06
1.30539e-07
-2.15297e-06
1.2655e-07
-2.18914e-06
1.22308e-07
-2.2239e-06
1.17805e-07
-2.25716e-06
1.13036e-07
-2.28884e-06
1.07995e-07
-2.31885e-06
1.02678e-07
-2.34711e-06
9.70855e-08
-2.37353e-06
9.12165e-08
-2.39802e-06
8.50745e-08
-2.4205e-06
7.86657e-08
-2.44089e-06
7.19993e-08
-2.45911e-06
6.50879e-08
-2.47509e-06
5.79475e-08
-2.48875e-06
5.05979e-08
-2.50004e-06
4.30619e-08
-2.50891e-06
3.53652e-08
-2.51531e-06
2.75359e-08
-2.51921e-06
1.96033e-08
-2.52058e-06
1.15943e-08
-2.51942e-06
3.5339e-09
-2.51573e-06
-4.52339e-09
-2.50957e-06
-1.24914e-08
-2.50097e-06
-2.03247e-08
-2.48996e-06
-2.80218e-08
-2.47659e-06
-3.55801e-08
-2.4609e-06
-4.29924e-08
-2.44294e-06
-5.02472e-08
-2.42278e-06
-5.73307e-08
-2.40046e-06
-6.42272e-08
-2.37606e-06
-7.09202e-08
-2.34965e-06
-7.73932e-08
-2.32129e-06
-8.36296e-08
-2.29107e-06
-8.96134e-08
-2.25909e-06
-9.53289e-08
-2.22541e-06
-1.00761e-07
-2.19015e-06
-1.05894e-07
-2.1534e-06
-1.10715e-07
-2.11525e-06
-1.1521e-07
-2.07583e-06
-1.19368e-07
-2.03523e-06
-1.23179e-07
-1.99357e-06
-1.26639e-07
-1.95096e-06
-1.29743e-07
-1.9075e-06
-1.3249e-07
-1.86332e-06
-1.34876e-07
-1.81851e-06
-1.36904e-07
-1.7732e-06
-1.38575e-07
-1.72748e-06
-1.39897e-07
-1.68146e-06
-1.40881e-07
-1.63524e-06
-1.41541e-07
-1.58891e-06
-1.41892e-07
-1.54256e-06
-1.41947e-07
-1.49628e-06
-1.41724e-07
-1.45012e-06
-1.41243e-07
-1.40418e-06
-1.40528e-07
-1.3585e-06
-1.39607e-07
-1.31313e-06
-1.38512e-07
-1.26812e-06
-1.37266e-07
-1.22349e-06
-1.35894e-07
-1.17927e-06
-1.34426e-07
-1.13547e-06
-1.32894e-07
-1.0921e-06
-1.31336e-07
-1.04915e-06
-1.29792e-07
-1.00658e-06
-1.2829e-07
-9.64387e-07
-1.26854e-07
-9.2252e-07
-1.25515e-07
-8.80935e-07
-1.24308e-07
-8.39572e-07
-1.23274e-07
-7.98358e-07
-1.22456e-07
-7.57213e-07
-1.21874e-07
-7.16052e-07
-1.21543e-07
-6.74782e-07
-1.21488e-07
-6.33303e-07
-1.21745e-07
-5.91496e-07
-1.22367e-07
-5.49235e-07
-1.23376e-07
-5.06395e-07
-1.24762e-07
-4.62847e-07
-1.26536e-07
-4.18457e-07
-1.28723e-07
-3.73072e-07
-1.31403e-07
-3.26533e-07
-1.34576e-07
-2.78685e-07
-1.38189e-07
-2.29371e-07
-1.42249e-07
-1.78435e-07
-1.46833e-07
-1.25716e-07
-1.51961e-07
-7.10303e-08
-1.57573e-07
-1.41248e-08
-1.63688e-07
4.50694e-08
-1.70265e-07
1.06565e-07
-1.77243e-07
1.70553e-07
-1.84684e-07
2.37188e-07
-1.92582e-07
3.06587e-07
-2.00748e-07
3.78855e-07
-2.09137e-07
4.54047e-07
-2.17902e-07
5.32175e-07
-2.2703e-07
6.1334e-07
-2.3624e-07
6.97737e-07
-2.45296e-07
7.854e-07
-2.54416e-07
8.76272e-07
-2.63809e-07
9.70321e-07
-2.73514e-07
1.06751e-06
-2.83515e-07
1.1678e-06
-2.93755e-07
1.27108e-06
-3.0413e-07
1.37722e-06
-3.14486e-07
1.48601e-06
-3.24596e-07
1.59715e-06
-3.34169e-07
1.71027e-06
-3.4285e-07
1.82486e-06
-3.50248e-07
1.94035e-06
-3.55964e-07
2.05609e-06
-3.59638e-07
2.17134e-06
-3.60976e-07
2.28535e-06
-3.59789e-07
2.39738e-06
-3.56e-07
2.50669e-06
-3.4965e-07
2.61262e-06
-3.40885e-07
2.71457e-06
-3.29935e-07
2.81204e-06
-3.1709e-07
2.90461e-06
-3.02675e-07
2.99199e-06
-2.87025e-07
3.07394e-06
-2.70469e-07
3.15033e-06
-2.53316e-07
3.22113e-06
-2.35845e-07
3.28633e-06
-2.18298e-07
3.34601e-06
-2.00885e-07
3.40029e-06
-1.83774e-07
3.44933e-06
-1.67105e-07
3.4933e-06
-1.50982e-07
3.53242e-06
-1.35486e-07
3.56691e-06
-1.20669e-07
3.59698e-06
-1.06569e-07
3.62288e-06
-9.32022e-08
3.64482e-06
-8.05744e-08
3.66305e-06
-6.86788e-08
3.67778e-06
-5.75017e-08
3.68923e-06
-4.70211e-08
3.6976e-06
-3.72121e-08
3.70309e-06
-2.80446e-08
3.7059e-06
-1.94895e-08
3.70619e-06
-1.1516e-08
3.70414e-06
-4.10194e-09
3.69988e-06
2.79878e-09
3.69354e-06
9.24246e-09
3.68524e-06
1.52678e-08
3.67512e-06
2.09054e-08
3.66332e-06
2.61837e-08
3.64993e-06
3.11247e-08
3.63509e-06
3.57488e-08
3.6189e-06
4.00719e-08
3.60145e-06
4.41093e-08
3.58284e-06
4.78729e-08
3.56318e-06
5.13748e-08
3.54254e-06
5.4626e-08
3.52103e-06
5.76416e-08
3.49874e-06
6.04443e-08
3.47573e-06
6.30771e-08
3.45209e-06
6.56243e-08
3.42786e-06
6.8257e-08
3.40305e-06
7.13149e-08
3.37761e-06
7.55023e-08
3.35173e-06
8.2226e-08
9.20749e-08
-5.09801e-08
1.26324e-07
-9.96646e-08
1.70402e-07
-1.48137e-07
1.98385e-07
-1.98199e-07
2.16299e-07
-2.50178e-07
2.27707e-07
-3.03764e-07
2.35167e-07
-3.58525e-07
2.40286e-07
-4.14058e-07
2.43978e-07
-4.69997e-07
2.46718e-07
-5.2598e-07
2.48721e-07
-5.81625e-07
2.50057e-07
-6.36531e-07
2.50716e-07
-6.90316e-07
2.50599e-07
-7.42784e-07
2.49505e-07
-7.94126e-07
2.47278e-07
-8.44501e-07
2.44106e-07
-8.94365e-07
2.40201e-07
-9.44293e-07
2.35812e-07
-9.93754e-07
2.31777e-07
-1.04256e-06
2.28289e-07
-1.09071e-06
2.25211e-07
-1.13826e-06
2.22435e-07
-1.18525e-06
2.19886e-07
-1.23173e-06
2.17502e-07
-1.27772e-06
2.15231e-07
-1.32323e-06
2.13025e-07
-1.36825e-06
2.1084e-07
-1.41279e-06
2.08635e-07
-1.45681e-06
2.06373e-07
-1.5003e-06
2.0402e-07
-1.54322e-06
2.01545e-07
-1.58555e-06
1.9892e-07
-1.62723e-06
1.9612e-07
-1.66823e-06
1.93122e-07
-1.70849e-06
1.89908e-07
-1.74796e-06
1.86458e-07
-1.78658e-06
1.82757e-07
-1.8243e-06
1.78791e-07
-1.86106e-06
1.74545e-07
-1.89678e-06
1.70007e-07
-1.93141e-06
1.65165e-07
-1.96487e-06
1.60008e-07
-1.99708e-06
1.54526e-07
-2.02799e-06
1.48709e-07
-2.0575e-06
1.42549e-07
-2.08555e-06
1.36038e-07
-2.11204e-06
1.29171e-07
-2.1369e-06
1.21945e-07
-2.16004e-06
1.14361e-07
-2.18139e-06
1.06422e-07
-2.20086e-06
9.81347e-08
-2.21837e-06
8.95107e-08
-2.23385e-06
8.05657e-08
-2.24722e-06
7.13202e-08
-2.25842e-06
6.17995e-08
-2.26739e-06
5.20331e-08
-2.27408e-06
4.20547e-08
-2.27845e-06
3.19016e-08
-2.28046e-06
2.16132e-08
-2.28009e-06
1.12268e-08
-2.27733e-06
7.73665e-10
-2.27221e-06
-9.64476e-09
-2.26478e-06
-1.99244e-08
-2.25506e-06
-3.00435e-08
-2.24309e-06
-3.99928e-08
-2.2289e-06
-4.97643e-08
-2.21255e-06
-5.93466e-08
-2.19407e-06
-6.87244e-08
-2.17352e-06
-7.78792e-08
-2.15096e-06
-8.67904e-08
-2.12644e-06
-9.54365e-08
-2.10004e-06
-1.03796e-07
-2.07182e-06
-1.11847e-07
-2.04186e-06
-1.19568e-07
-2.01025e-06
-1.26941e-07
-1.97707e-06
-1.33946e-07
-1.9424e-06
-1.40563e-07
-1.90634e-06
-1.46774e-07
-1.86898e-06
-1.52562e-07
-1.83044e-06
-1.57912e-07
-1.7908e-06
-1.62815e-07
-1.75018e-06
-1.67262e-07
-1.70867e-06
-1.71249e-07
-1.66639e-06
-1.74774e-07
-1.62343e-06
-1.77837e-07
-1.57989e-06
-1.80437e-07
-1.53589e-06
-1.82578e-07
-1.49152e-06
-1.84271e-07
-1.44687e-06
-1.85531e-07
-1.40203e-06
-1.86376e-07
-1.35709e-06
-1.86828e-07
-1.31214e-06
-1.86905e-07
-1.26723e-06
-1.86628e-07
-1.22245e-06
-1.86024e-07
-1.17785e-06
-1.85126e-07
-1.13349e-06
-1.83971e-07
-1.0894e-06
-1.82599e-07
-1.04562e-06
-1.81044e-07
-1.00218e-06
-1.79336e-07
-9.59091e-07
-1.77513e-07
-9.16367e-07
-1.75618e-07
-8.74005e-07
-1.73699e-07
-8.31988e-07
-1.71808e-07
-7.90293e-07
-1.69985e-07
-7.48889e-07
-1.68258e-07
-7.07738e-07
-1.66667e-07
-6.66791e-07
-1.65255e-07
-6.2599e-07
-1.64076e-07
-5.85261e-07
-1.63185e-07
-5.44525e-07
-1.62611e-07
-5.03699e-07
-1.6237e-07
-4.6269e-07
-1.62498e-07
-4.21404e-07
-1.63033e-07
-3.79726e-07
-1.64046e-07
-3.37536e-07
-1.65567e-07
-2.94714e-07
-1.67585e-07
-2.51129e-07
-1.70123e-07
-2.06647e-07
-1.73206e-07
-1.61134e-07
-1.76917e-07
-1.14449e-07
-1.81263e-07
-6.64298e-08
-1.86209e-07
-1.68791e-08
-1.91801e-07
3.43264e-08
-1.98039e-07
8.72644e-08
-2.049e-07
1.42101e-07
-2.12411e-07
1.99013e-07
-2.20601e-07
2.58135e-07
-2.29389e-07
3.19603e-07
-2.38712e-07
3.8354e-07
-2.48621e-07
4.50044e-07
-2.59087e-07
5.19255e-07
-2.69959e-07
5.91305e-07
-2.81188e-07
6.66237e-07
-2.92834e-07
7.44068e-07
-3.04861e-07
8.24885e-07
-3.17057e-07
9.08844e-07
-3.29256e-07
9.95979e-07
-3.41552e-07
1.08623e-06
-3.54055e-07
1.1795e-06
-3.66787e-07
1.27569e-06
-3.79712e-07
1.37468e-06
-3.92744e-07
1.4763e-06
-4.05744e-07
1.58031e-06
-4.18502e-07
1.68645e-06
-4.30734e-07
1.79436e-06
-4.42074e-07
1.9036e-06
-4.52092e-07
2.01366e-06
-4.60316e-07
2.12398e-06
-4.66278e-07
2.23389e-06
-4.69554e-07
2.34273e-06
-4.69814e-07
2.44979e-06
-4.66855e-07
2.55441e-06
-4.60614e-07
2.65593e-06
-4.51171e-07
2.75377e-06
-4.38733e-07
2.84744e-06
-4.23605e-07
2.93651e-06
-4.06164e-07
3.02066e-06
-3.86824e-07
3.09964e-06
-3.6601e-07
3.17331e-06
-3.44136e-07
3.24157e-06
-3.21585e-07
3.30443e-06
-2.98706e-07
3.36193e-06
-2.758e-07
3.41417e-06
-2.53123e-07
3.46128e-06
-2.30886e-07
3.50342e-06
-2.09256e-07
3.5408e-06
-1.88363e-07
3.57362e-06
-1.68302e-07
3.60208e-06
-1.49138e-07
3.62643e-06
-1.30912e-07
3.64687e-06
-1.13643e-07
3.66363e-06
-9.73361e-08
3.67693e-06
-8.19799e-08
3.68698e-06
-6.75544e-08
3.69399e-06
-5.40308e-08
3.69816e-06
-4.13752e-08
3.69967e-06
-2.95498e-08
3.69869e-06
-1.85154e-08
3.69541e-06
-8.23503e-09
3.68997e-06
1.3413e-09
3.6825e-06
1.02778e-08
3.67312e-06
1.86236e-08
3.66197e-06
2.64142e-08
3.6492e-06
3.36863e-08
3.63491e-06
4.04737e-08
3.61923e-06
4.68056e-08
3.60228e-06
5.27076e-08
3.58415e-06
5.82011e-08
3.56496e-06
6.33047e-08
3.5448e-06
6.80333e-08
3.52378e-06
7.24003e-08
3.50199e-06
7.64175e-08
3.47953e-06
8.00992e-08
3.45651e-06
8.34673e-08
3.43303e-06
8.65632e-08
3.40918e-06
8.94694e-08
3.38509e-06
9.23521e-08
3.36087e-06
9.55345e-08
3.33672e-06
9.96469e-08
3.31321e-06
1.05727e-07
1.13656e-07
-5.17466e-08
1.78071e-07
-1.00971e-07
2.19626e-07
-1.48806e-07
2.4622e-07
-1.96854e-07
2.64346e-07
-2.45749e-07
2.76602e-07
-2.95496e-07
2.84913e-07
-3.45846e-07
2.90636e-07
-3.96478e-07
2.9461e-07
-4.47058e-07
2.97298e-07
-4.97265e-07
2.98928e-07
-5.46799e-07
2.99592e-07
-5.95401e-07
2.99319e-07
-6.42896e-07
2.98095e-07
-6.89277e-07
2.95887e-07
-7.3474e-07
2.9274e-07
-7.79509e-07
2.88875e-07
-8.23843e-07
2.84534e-07
-8.67998e-07
2.79966e-07
-9.11837e-07
2.75616e-07
-9.55229e-07
2.71682e-07
-9.98145e-07
2.68128e-07
-1.0406e-06
2.64888e-07
-1.0826e-06
2.61892e-07
-1.12418e-06
2.59078e-07
-1.16533e-06
2.56386e-07
-1.20607e-06
2.53759e-07
-1.24637e-06
2.51145e-07
-1.28624e-06
2.48498e-07
-1.32564e-06
2.45773e-07
-1.36455e-06
2.4293e-07
-1.40293e-06
2.39932e-07
-1.44076e-06
2.36749e-07
-1.47799e-06
2.3335e-07
-1.51458e-06
2.2971e-07
-1.55048e-06
2.25805e-07
-1.58564e-06
2.21616e-07
-1.62e-06
2.17123e-07
-1.65352e-06
2.12309e-07
-1.68613e-06
2.07158e-07
-1.71778e-06
2.01656e-07
-1.74841e-06
1.95788e-07
-1.77794e-06
1.89542e-07
-1.80632e-06
1.82904e-07
-1.83347e-06
1.75862e-07
-1.85933e-06
1.68405e-07
-1.88382e-06
1.60525e-07
-1.90686e-06
1.52213e-07
-1.92838e-06
1.43465e-07
-1.9483e-06
1.34281e-07
-1.96654e-06
1.24664e-07
-1.98303e-06
1.14621e-07
-1.99768e-06
1.04165e-07
-2.01043e-06
9.33152e-08
-2.02121e-06
8.20951e-08
-2.02994e-06
7.05355e-08
-2.03658e-06
5.86724e-08
-2.04107e-06
4.65473e-08
-2.04338e-06
3.42063e-08
-2.04346e-06
2.16973e-08
-2.0413e-06
9.06775e-09
-2.03691e-06
-3.61504e-09
-2.03034e-06
-1.62237e-08
-2.0216e-06
-2.86645e-08
-2.01072e-06
-4.09174e-08
-1.99774e-06
-5.29693e-08
-1.9827e-06
-6.48079e-08
-1.96563e-06
-7.64178e-08
-1.94657e-06
-8.77796e-08
-1.92558e-06
-9.88703e-08
-1.90271e-06
-1.09664e-07
-1.87801e-06
-1.20135e-07
-1.85155e-06
-1.30255e-07
-1.8234e-06
-1.39999e-07
-1.79362e-06
-1.49342e-07
-1.76231e-06
-1.58259e-07
-1.72952e-06
-1.66728e-07
-1.69536e-06
-1.74726e-07
-1.6599e-06
-1.8223e-07
-1.62324e-06
-1.89219e-07
-1.58548e-06
-1.95676e-07
-1.54671e-06
-2.01588e-07
-1.50702e-06
-2.06947e-07
-1.46652e-06
-2.11748e-07
-1.42531e-06
-2.15991e-07
-1.38347e-06
-2.19675e-07
-1.34111e-06
-2.22798e-07
-1.29831e-06
-2.25368e-07
-1.25519e-06
-2.27397e-07
-1.21181e-06
-2.28904e-07
-1.16828e-06
-2.29914e-07
-1.12465e-06
-2.30454e-07
-1.08101e-06
-2.30545e-07
-1.03742e-06
-2.30215e-07
-9.93953e-07
-2.29496e-07
-9.50652e-07
-2.28427e-07
-9.07569e-07
-2.27055e-07
-8.64737e-07
-2.25431e-07
-8.22184e-07
-2.23598e-07
-7.79932e-07
-2.21589e-07
-7.37994e-07
-2.19452e-07
-6.96376e-07
-2.17237e-07
-6.55072e-07
-2.15004e-07
-6.14064e-07
-2.12818e-07
-5.73324e-07
-2.10726e-07
-5.32821e-07
-2.08762e-07
-4.92515e-07
-2.06974e-07
-4.52356e-07
-2.05415e-07
-4.12286e-07
-2.04147e-07
-3.72235e-07
-2.03237e-07
-3.32127e-07
-2.0272e-07
-2.91879e-07
-2.02619e-07
-2.51398e-07
-2.0298e-07
-2.10589e-07
-2.03844e-07
-1.6935e-07
-2.05286e-07
-1.27576e-07
-2.07343e-07
-8.51468e-08
-2.10015e-07
-4.19267e-08
-2.13344e-07
2.24557e-09
-2.1738e-07
4.74531e-08
-2.22126e-07
9.37829e-08
-2.27593e-07
1.41409e-07
-2.33837e-07
1.90486e-07
-2.40878e-07
2.41148e-07
-2.48702e-07
2.93532e-07
-2.57285e-07
3.47777e-07
-2.66656e-07
4.0401e-07
-2.76834e-07
4.62371e-07
-2.8775e-07
5.23008e-07
-2.99348e-07
5.86034e-07
-3.11646e-07
6.5155e-07
-3.24601e-07
7.19689e-07
-3.38097e-07
7.90577e-07
-3.52073e-07
8.64273e-07
-3.66528e-07
9.40814e-07
-3.81399e-07
1.02028e-06
-3.96516e-07
1.10276e-06
-4.11738e-07
1.18829e-06
-4.27076e-07
1.27679e-06
-4.42555e-07
1.36816e-06
-4.58153e-07
1.46225e-06
-4.73798e-07
1.55888e-06
-4.89367e-07
1.65781e-06
-5.04674e-07
1.75877e-06
-5.1946e-07
1.86143e-06
-5.33385e-07
1.96538e-06
-5.46019e-07
2.07016e-06
-5.56868e-07
2.17524e-06
-5.65397e-07
2.28004e-06
-5.71078e-07
2.38394e-06
-5.7345e-07
2.48629e-06
-5.72158e-07
2.58644e-06
-5.66999e-07
2.68376e-06
-5.57937e-07
2.77769e-06
-5.45099e-07
2.86772e-06
-5.28758e-07
2.95341e-06
-5.09298e-07
3.03443e-06
-4.87179e-07
3.11051e-06
-4.62903e-07
3.18147e-06
-4.36975e-07
3.24722e-06
-4.09886e-07
3.30773e-06
-3.82091e-07
3.36301e-06
-3.53995e-07
3.41316e-06
-3.25951e-07
3.4583e-06
-2.98257e-07
3.49856e-06
-2.71155e-07
3.53414e-06
-2.4484e-07
3.56524e-06
-2.19456e-07
3.59205e-06
-1.95114e-07
3.61479e-06
-1.71884e-07
3.63369e-06
-1.49811e-07
3.64896e-06
-1.28915e-07
3.66082e-06
-1.09197e-07
3.66947e-06
-9.06402e-08
3.67514e-06
-7.32196e-08
3.678e-06
-5.6898e-08
3.67826e-06
-4.1634e-08
3.67609e-06
-2.73808e-08
3.67166e-06
-1.40918e-08
3.66514e-06
-1.71258e-09
3.65665e-06
9.82918e-09
3.64633e-06
2.05985e-08
3.63432e-06
3.06354e-08
3.62075e-06
3.99829e-08
3.60575e-06
4.86827e-08
3.58945e-06
5.67748e-08
3.57196e-06
6.42937e-08
3.55339e-06
7.12706e-08
3.53386e-06
7.77308e-08
3.51347e-06
8.36966e-08
3.49231e-06
8.91848e-08
3.4705e-06
9.42099e-08
3.44814e-06
9.87828e-08
3.42532e-06
1.02916e-07
3.40216e-06
1.06626e-07
3.37877e-06
1.09948e-07
3.35528e-06
1.1295e-07
3.33186e-06
1.15774e-07
3.30869e-06
1.18694e-07
3.28613e-06
1.22211e-07
3.26481e-06
1.27036e-07
1.32731e-07
-5.0499e-08
2.28571e-07
-9.86364e-08
2.67764e-07
-1.44902e-07
2.92485e-07
-1.90522e-07
3.09966e-07
-2.3615e-07
3.22229e-07
-2.81941e-07
3.30704e-07
-3.27782e-07
3.36477e-07
-3.73449e-07
3.40276e-07
-4.18692e-07
3.42542e-07
-4.63282e-07
3.43518e-07
-5.07031e-07
3.43342e-07
-5.49814e-07
3.42103e-07
-5.91593e-07
3.39875e-07
-6.32447e-07
3.36742e-07
-6.72555e-07
3.32848e-07
-7.12104e-07
3.28423e-07
-7.5127e-07
3.23698e-07
-7.902e-07
3.18896e-07
-8.28872e-07
3.14288e-07
-8.67216e-07
3.10025e-07
-9.05201e-07
3.06113e-07
-9.4282e-07
3.02508e-07
-9.80077e-07
2.9915e-07
-1.01697e-06
2.95974e-07
-1.0535e-06
2.92918e-07
-1.08966e-06
2.89919e-07
-1.12544e-06
2.8692e-07
-1.16081e-06
2.83869e-07
-1.19575e-06
2.80714e-07
-1.23024e-06
2.77413e-07
-1.26423e-06
2.73924e-07
-1.29769e-06
2.70213e-07
-1.33059e-06
2.66246e-07
-1.36287e-06
2.61995e-07
-1.3945e-06
2.57435e-07
-1.42543e-06
2.52543e-07
-1.45561e-06
2.47298e-07
-1.48498e-06
2.41681e-07
-1.5135e-06
2.35675e-07
-1.54111e-06
2.29264e-07
-1.56775e-06
2.22431e-07
-1.59337e-06
2.15161e-07
-1.6179e-06
2.07439e-07
-1.64129e-06
1.9925e-07
-1.66347e-06
1.90582e-07
-1.68436e-06
1.81422e-07
-1.70391e-06
1.71761e-07
-1.72204e-06
1.61593e-07
-1.73867e-06
1.50915e-07
-1.75374e-06
1.3973e-07
-1.76717e-06
1.28047e-07
-1.77888e-06
1.15878e-07
-1.78881e-06
1.03244e-07
-1.79689e-06
9.01744e-08
-1.80306e-06
7.67029e-08
-1.80725e-06
6.28723e-08
-1.80944e-06
4.87318e-08
-1.80957e-06
3.43365e-08
-1.80762e-06
1.97433e-08
-1.80356e-06
5.00748e-09
-1.79742e-06
-9.74884e-09
-1.78927e-06
-2.43792e-08
-1.77911e-06
-3.88221e-08
-1.76697e-06
-5.3054e-08
-1.75288e-06
-6.70578e-08
-1.73687e-06
-8.08169e-08
-1.71898e-06
-9.43114e-08
-1.69924e-06
-1.07518e-07
-1.6777e-06
-1.20409e-07
-1.65441e-06
-1.32954e-07
-1.62943e-06
-1.4512e-07
-1.6028e-06
-1.56876e-07
-1.57461e-06
-1.68193e-07
-1.54491e-06
-1.79039e-07
-1.51378e-06
-1.89389e-07
-1.4813e-06
-1.99214e-07
-1.44753e-06
-2.0849e-07
-1.41257e-06
-2.1719e-07
-1.3765e-06
-2.25288e-07
-1.33941e-06
-2.32764e-07
-1.3014e-06
-2.39604e-07
-1.26254e-06
-2.45799e-07
-1.22295e-06
-2.51344e-07
-1.1827e-06
-2.56241e-07
-1.14188e-06
-2.60489e-07
-1.10059e-06
-2.64086e-07
-1.05892e-06
-2.6704e-07
-1.01695e-06
-2.69366e-07
-9.74769e-07
-2.71088e-07
-9.32447e-07
-2.72236e-07
-8.90057e-07
-2.72843e-07
-8.47665e-07
-2.72937e-07
-8.05333e-07
-2.72546e-07
-7.63119e-07
-2.7171e-07
-7.21071e-07
-2.70475e-07
-6.7923e-07
-2.68895e-07
-6.37627e-07
-2.67034e-07
-5.96283e-07
-2.64941e-07
-5.55217e-07
-2.62655e-07
-5.14437e-07
-2.60231e-07
-4.73944e-07
-2.5773e-07
-4.33732e-07
-2.55216e-07
-3.93779e-07
-2.5277e-07
-3.54059e-07
-2.50446e-07
-3.14538e-07
-2.48283e-07
-2.75172e-07
-2.4634e-07
-2.3591e-07
-2.44678e-07
-1.96695e-07
-2.43362e-07
-1.57465e-07
-2.42467e-07
-1.18151e-07
-2.42035e-07
-7.86673e-08
-2.42103e-07
-3.89183e-08
-2.42729e-07
1.21084e-09
-2.43973e-07
4.17877e-08
-2.45863e-07
8.28813e-08
-2.48437e-07
1.24621e-07
-2.51756e-07
1.67136e-07
-2.55859e-07
2.10544e-07
-2.60789e-07
2.54961e-07
-2.66544e-07
3.00507e-07
-2.7314e-07
3.47306e-07
-2.80637e-07
3.95484e-07
-2.89058e-07
4.45171e-07
-2.9839e-07
4.96504e-07
-3.08618e-07
5.49609e-07
-3.19762e-07
6.04603e-07
-3.31829e-07
6.61617e-07
-3.44765e-07
7.20793e-07
-3.58525e-07
7.82244e-07
-3.73098e-07
8.46078e-07
-3.88436e-07
9.12422e-07
-4.04442e-07
9.81395e-07
-4.21046e-07
1.05307e-06
-4.38205e-07
1.12751e-06
-4.55835e-07
1.20477e-06
-4.73781e-07
1.28494e-06
-4.91904e-07
1.36801e-06
-5.10149e-07
1.45392e-06
-5.28469e-07
1.54255e-06
-5.46785e-07
1.63373e-06
-5.64976e-07
1.72723e-06
-5.8287e-07
1.82279e-06
-6.00231e-07
1.92008e-06
-6.16748e-07
2.01872e-06
-6.32025e-07
2.11827e-06
-6.45577e-07
2.21826e-06
-6.56853e-07
2.31813e-06
-6.65268e-07
2.4173e-06
-6.7025e-07
2.51515e-06
-6.71308e-07
2.61107e-06
-6.68079e-07
2.70445e-06
-6.60372e-07
2.7947e-06
-6.48188e-07
2.88131e-06
-6.31711e-07
2.96383e-06
-6.11283e-07
3.0419e-06
-5.87369e-07
3.11523e-06
-5.60516e-07
3.18363e-06
-5.31304e-07
3.24698e-06
-5.00321e-07
3.30521e-06
-4.68126e-07
3.35836e-06
-4.35236e-07
3.40647e-06
-4.0211e-07
3.44966e-06
-3.69144e-07
3.48807e-06
-3.36669e-07
3.52187e-06
-3.04957e-07
3.55125e-06
-2.7422e-07
3.57641e-06
-2.44619e-07
3.59756e-06
-2.1627e-07
3.61493e-06
-1.89251e-07
3.62873e-06
-1.63606e-07
3.63916e-06
-1.39353e-07
3.64646e-06
-1.16489e-07
3.65081e-06
-9.4993e-08
3.65242e-06
-7.48315e-08
3.65149e-06
-5.59606e-08