/*--------------------------------*- C++ -*----------------------------------*\
  =========                 |
  \\      /  F ield         | OpenFOAM: The Open Source CFD Toolbox
   \\    /   O peration     | Website:  https://openfoam.org
    \\  /    A nd           | Version:  7
     \\/     M anipulation  |
\*---------------------------------------------------------------------------*/
FoamFile
{
    version     2.0;
    format      ascii;
    class       volVectorField;
    location    "700";
    object      U;
}
// * * * * * * * * * * * * * * * * * * * * * * * * * * * * * * * * * * * * * //

dimensions      [0 1 -1 0 0 0 0];

internalField   nonuniform List<vector> 
16900
(
(0.00614578 -0.00739313 0)
(-0.00894174 0.0210052 0)
(-0.0497856 0.0342182 0)
(-0.0993714 0.0380117 0)
(-0.152293 0.0389357 0)
(-0.206753 0.0391707 0)
(-0.262091 0.0392994 0)
(-0.318009 0.0395075 0)
(-0.374305 0.039958 0)
(-0.430855 0.0409433 0)
(-0.487825 0.043002 0)
(-0.545858 0.0469849 0)
(-0.605627 0.053717 0)
(-0.666901 0.0620972 0)
(-0.729065 0.0653858 0)
(-0.790477 0.0775679 0)
(-0.855514 0.0625075 0)
(-0.918374 0.0320522 0)
(-0.971936 0.0330123 0)
(-1.02638 0.0337703 0)
(-1.08165 0.0337233 0)
(-1.13666 0.033395 0)
(-1.19124 0.0329716 0)
(-1.24533 0.0325251 0)
(-1.29892 0.0320835 0)
(-1.35202 0.031651 0)
(-1.40464 0.0312269 0)
(-1.45677 0.0308064 0)
(-1.50841 0.0303845 0)
(-1.55953 0.0299558 0)
(-1.61012 0.0295157 0)
(-1.66015 0.0290598 0)
(-1.70957 0.028584 0)
(-1.75834 0.0280851 0)
(-1.80641 0.0275599 0)
(-1.85373 0.027006 0)
(-1.90023 0.026421 0)
(-1.94586 0.0258028 0)
(-1.99055 0.0251498 0)
(-2.03423 0.0244603 0)
(-2.07682 0.0237329 0)
(-2.11824 0.0229664 0)
(-2.15843 0.0221596 0)
(-2.19731 0.0213118 0)
(-2.23478 0.0204221 0)
(-2.27076 0.01949 0)
(-2.30518 0.0185155 0)
(-2.33794 0.0174985 0)
(-2.36896 0.0164397 0)
(-2.39816 0.0153398 0)
(-2.42545 0.0142003 0)
(-2.45075 0.0130229 0)
(-2.47399 0.01181 0)
(-2.49509 0.0105644 0)
(-2.51399 0.00928944 0)
(-2.53062 0.00798881 0)
(-2.54494 0.00666654 0)
(-2.5569 0.00532685 0)
(-2.56646 0.00397409 0)
(-2.5736 0.00261237 0)
(-2.57829 0.00124407 0)
(-2.58053 -0.000128816 0)
(-2.58029 -0.00148919 0)
(-2.57762 -0.0028187 0)
(-2.57256 -0.00411857 0)
(-2.56516 -0.00539387 0)
(-2.55546 -0.00664429 0)
(-2.54351 -0.0078683 0)
(-2.52935 -0.0090638 0)
(-2.51304 -0.0102284 0)
(-2.49464 -0.0113596 0)
(-2.4742 -0.0124547 0)
(-2.45181 -0.0135111 0)
(-2.42752 -0.0145261 0)
(-2.40143 -0.015497 0)
(-2.3736 -0.0164214 0)
(-2.34414 -0.0172965 0)
(-2.31313 -0.01812 0)
(-2.28067 -0.0188895 0)
(-2.24687 -0.0196031 0)
(-2.21182 -0.0202592 0)
(-2.17564 -0.0208563 0)
(-2.13843 -0.0213934 0)
(-2.1003 -0.0218697 0)
(-2.06137 -0.0222845 0)
(-2.02175 -0.0226375 0)
(-1.98155 -0.0229291 0)
(-1.94088 -0.0231599 0)
(-1.89984 -0.0233314 0)
(-1.85855 -0.0234452 0)
(-1.81711 -0.0235032 0)
(-1.7756 -0.0235073 0)
(-1.73414 -0.0234602 0)
(-1.69279 -0.0233651 0)
(-1.65165 -0.0232259 0)
(-1.61079 -0.023047 0)
(-1.57026 -0.0228326 0)
(-1.53014 -0.0225869 0)
(-1.49046 -0.0223141 0)
(-1.45126 -0.0220197 0)
(-1.41259 -0.0217093 0)
(-1.37446 -0.0213895 0)
(-1.33687 -0.0210664 0)
(-1.29983 -0.020745 0)
(-1.26332 -0.0204298 0)
(-1.22734 -0.0201274 0)
(-1.19184 -0.0198446 0)
(-1.15679 -0.0195892 0)
(-1.12213 -0.0193676 0)
(-1.08781 -0.0191836 0)
(-1.05375 -0.0190406 0)
(-1.01987 -0.0189457 0)
(-0.986101 -0.0189066 0)
(-0.952331 -0.0189329 0)
(-0.918449 -0.0190267 0)
(-0.884346 -0.0191873 0)
(-0.849914 -0.0194189 0)
(-0.815038 -0.0197317 0)
(-0.779575 -0.0201413 0)
(-0.743371 -0.0206447 0)
(-0.706298 -0.0212294 0)
(-0.668248 -0.0219032 0)
(-0.629067 -0.0226979 0)
(-0.588564 -0.0236172 0)
(-0.546609 -0.0246211 0)
(-0.50315 -0.0257067 0)
(-0.457974 -0.0269722 0)
(-0.410874 -0.0284045 0)
(-0.361799 -0.0299018 0)
(-0.310787 -0.0315273 0)
(-0.257319 -0.033394 0)
(-0.201635 -0.0354822 0)
(-0.143377 -0.0377808 0)
(-0.0830884 -0.0402722 0)
(-0.0194145 -0.0422205 0)
(0.0478375 -0.0429708 0)
(0.116267 -0.0432906 0)
(0.187471 -0.0437481 0)
(0.261424 -0.0443562 0)
(0.338344 -0.0451041 0)
(0.418446 -0.0459819 0)
(0.501921 -0.0469768 0)
(0.588922 -0.0480683 0)
(0.679539 -0.0492225 0)
(0.773771 -0.0503915 0)
(0.871502 -0.051512 0)
(0.972473 -0.0525114 0)
(1.07628 -0.0533119 0)
(1.18235 -0.0538414 0)
(1.29002 -0.054038 0)
(1.3985 -0.0538597 0)
(1.50693 -0.0532842 0)
(1.61445 -0.052313 0)
(1.72024 -0.050966 0)
(1.82349 -0.049281 0)
(1.92352 -0.0473055 0)
(2.01971 -0.0450946 0)
(2.11157 -0.0427045 0)
(2.19872 -0.040191 0)
(2.28088 -0.0376045 0)
(2.35787 -0.0349912 0)
(2.42959 -0.0323893 0)
(2.49604 -0.0298318 0)
(2.55725 -0.0273438 0)
(2.61332 -0.0249457 0)
(2.6644 -0.0226514 0)
(2.71066 -0.0204715 0)
(2.75228 -0.0184115 0)
(2.78949 -0.0164748 0)
(2.82251 -0.0146615 0)
(2.85155 -0.0129702 0)
(2.87686 -0.0113977 0)
(2.89865 -0.00994 0)
(2.91714 -0.00859184 0)
(2.93256 -0.0073481 0)
(2.9451 -0.00620266 0)
(2.95496 -0.00514979 0)
(2.96234 -0.00418357 0)
(2.9674 -0.0033018 0)
(2.97032 -0.00250664 0)
(2.97129 -0.00178973 0)
(2.9705 -0.00113176 0)
(2.96805 -0.000522069 0)
(2.96403 4.4713e-05 0)
(2.95852 0.000571973 0)
(2.95161 0.0010629 0)
(2.94337 0.00152011 0)
(2.9339 0.00194636 0)
(2.92326 0.00234407 0)
(2.91152 0.00271588 0)
(2.89876 0.00306445 0)
(2.88502 0.00339311 0)
(2.87037 0.00370639 0)
(2.85484 0.00401166 0)
(2.83844 0.00432222 0)
(2.82114 0.0046643 0)
(2.80279 0.00509164 0)
(2.78296 0.00572813 0)
(2.76152 0.0069566 0)
(2.725 0.0100144 0)
(-0.0199962 0.0106322 0)
(-0.0442674 0.0518202 0)
(-0.0841689 0.0731665 0)
(-0.1311 0.0823305 0)
(-0.181817 0.0862186 0)
(-0.235019 0.0880057 0)
(-0.289875 0.0889092 0)
(-0.345924 0.0894037 0)
(-0.402936 0.0896785 0)
(-0.460821 0.0897971 0)
(-0.519562 0.0897533 0)
(-0.578928 0.0895597 0)
(-0.638112 0.0893834 0)
(-0.696428 0.0893496 0)
(-0.755198 0.0887729 0)
(-0.812796 0.0878944 0)
(-0.868711 0.0873432 0)
(-0.924857 0.0862796 0)
(-0.981399 0.0865254 0)
(-1.03664 0.0860486 0)
(-1.09018 0.0852141 0)
(-1.14265 0.0841951 0)
(-1.19438 0.0831261 0)
(-1.24547 0.0820617 0)
(-1.29598 0.0810205 0)
(-1.34595 0.0800001 0)
(-1.39539 0.0789915 0)
(-1.4443 0.0779828 0)
(-1.49268 0.0769616 0)
(-1.54051 0.0759159 0)
(-1.58777 0.0748344 0)
(-1.63443 0.0737071 0)
(-1.68044 0.072525 0)
(-1.72578 0.0712801 0)
(-1.77039 0.0699657 0)
(-1.81422 0.0685757 0)
(-1.85722 0.0671048 0)
(-1.89933 0.0655485 0)
(-1.94048 0.0639028 0)
(-1.9806 0.0621641 0)
(-2.01964 0.0603293 0)
(-2.05752 0.0583957 0)
(-2.09416 0.0563609 0)
(-2.12949 0.054223 0)
(-2.16343 0.0519804 0)
(-2.19591 0.0496325 0)
(-2.22684 0.0471789 0)
(-2.25613 0.0446205 0)
(-2.28372 0.0419586 0)
(-2.30951 0.0391962 0)
(-2.33343 0.036337 0)
(-2.3554 0.0333862 0)
(-2.37535 0.0303503 0)
(-2.3932 0.0272372 0)
(-2.4089 0.024056 0)
(-2.42238 0.0208171 0)
(-2.43359 0.0175319 0)
(-2.4425 0.0142124 0)
(-2.44906 0.0108709 0)
(-2.45326 0.00751898 0)
(-2.45507 0.00416394 0)
(-2.45448 0.000811422 0)
(-2.45148 -0.00250166 0)
(-2.44617 -0.00573362 0)
(-2.43856 -0.00888332 0)
(-2.42868 -0.0119562 0)
(-2.41659 -0.0149514 0)
(-2.40233 -0.0178657 0)
(-2.38594 -0.0206942 0)
(-2.36748 -0.0234317 0)
(-2.34702 -0.0260725 0)
(-2.3246 -0.028611 0)
(-2.30031 -0.0310413 0)
(-2.2742 -0.033358 0)
(-2.24637 -0.0355558 0)
(-2.2169 -0.0376296 0)
(-2.18586 -0.0395743 0)
(-2.15335 -0.0413853 0)
(-2.11947 -0.0430584 0)
(-2.08431 -0.0445904 0)
(-2.04798 -0.0459788 0)
(-2.01058 -0.0472221 0)
(-1.97221 -0.0483195 0)
(-1.93299 -0.049271 0)
(-1.89301 -0.0500766 0)
(-1.85238 -0.0507374 0)
(-1.81122 -0.0512555 0)
(-1.76961 -0.0516346 0)
(-1.72768 -0.0518793 0)
(-1.6855 -0.0519953 0)
(-1.64318 -0.0519886 0)
(-1.60081 -0.0518651 0)
(-1.55847 -0.0516318 0)
(-1.51623 -0.051297 0)
(-1.47418 -0.0508706 0)
(-1.43237 -0.0503631 0)
(-1.39086 -0.0497856 0)
(-1.3497 -0.0491477 0)
(-1.30893 -0.048459 0)
(-1.26858 -0.0477307 0)
(-1.22867 -0.0469755 0)
(-1.18921 -0.0462071 0)
(-1.15022 -0.0454394 0)
(-1.11166 -0.0446827 0)
(-1.07354 -0.0439459 0)
(-1.03581 -0.0432405 0)
(-0.998459 -0.0425798 0)
(-0.961428 -0.0419783 0)
(-0.92466 -0.0414499 0)
(-0.888087 -0.0410015 0)
(-0.851634 -0.0406377 0)
(-0.815223 -0.0403682 0)
(-0.778768 -0.0402063 0)
(-0.742167 -0.0401694 0)
(-0.705306 -0.0402636 0)
(-0.668069 -0.040483 0)
(-0.630342 -0.0408305 0)
(-0.592011 -0.0413174 0)
(-0.552938 -0.0419738 0)
(-0.512972 -0.0427951 0)
(-0.47197 -0.043753 0)
(-0.429813 -0.0448476 0)
(-0.386349 -0.0461268 0)
(-0.341413 -0.0476003 0)
(-0.294843 -0.0492069 0)
(-0.246548 -0.050923 0)
(-0.196281 -0.0528515 0)
(-0.143992 -0.0549892 0)
(-0.0895327 -0.0572353 0)
(-0.0328072 -0.0596088 0)
(0.0270438 -0.0621205 0)
(0.0888122 -0.0647259 0)
(0.153227 -0.0674969 0)
(0.220164 -0.0704966 0)
(0.289905 -0.0733477 0)
(0.362601 -0.0756864 0)
(0.43801 -0.0778874 0)
(0.516267 -0.0802574 0)
(0.597413 -0.0828125 0)
(0.68152 -0.0855518 0)
(0.768657 -0.0884596 0)
(0.858863 -0.0915073 0)
(0.952141 -0.0946472 0)
(1.04843 -0.0978071 0)
(1.14759 -0.100887 0)
(1.24938 -0.103762 0)
(1.35347 -0.106291 0)
(1.45938 -0.108328 0)
(1.56654 -0.109737 0)
(1.6743 -0.110408 0)
(1.78194 -0.110264 0)
(1.88869 -0.109272 0)
(1.99381 -0.107439 0)
(2.09657 -0.104812 0)
(2.1963 -0.101467 0)
(2.29244 -0.0975009 0)
(2.38448 -0.093025 0)
(2.47202 -0.0881528 0)
(2.55476 -0.0829959 0)
(2.6325 -0.077658 0)
(2.70511 -0.0722324 0)
(2.77253 -0.0667997 0)
(2.83479 -0.0614279 0)
(2.89194 -0.0561721 0)
(2.94411 -0.0510759 0)
(2.99143 -0.0461721 0)
(3.03408 -0.0414844 0)
(3.07225 -0.0370286 0)
(3.10615 -0.0328141 0)
(3.13598 -0.0288444 0)
(3.16197 -0.0251193 0)
(3.18432 -0.0216347 0)
(3.20325 -0.0183845 0)
(3.21897 -0.01536 0)
(3.23167 -0.0125518 0)
(3.24155 -0.00994885 0)
(3.24879 -0.00754022 0)
(3.25355 -0.00531599 0)
(3.25601 -0.00327033 0)
(3.25632 -0.00139878 0)
(3.25465 0.000312964 0)
(3.25103 0.00189236 0)
(3.24563 0.003363 0)
(3.23855 0.00473631 0)
(3.22991 0.00601898 0)
(3.21981 0.00721635 0)
(3.20833 0.00833299 0)
(3.19558 0.00937339 0)
(3.18163 0.0103418 0)
(3.16656 0.0112426 0)
(3.15045 0.0120805 0)
(3.13338 0.0128616 0)
(3.1154 0.0135951 0)
(3.09659 0.0142968 0)
(3.07697 0.0149968 0)
(3.05656 0.0157556 0)
(3.0353 0.0166977 0)
(3.01291 0.0181 0)
(2.98969 0.0207623 0)
(2.95579 0.025634 0)
(-0.0315591 0.0495213 0)
(-0.0626737 0.093584 0)
(-0.104263 0.119453 0)
(-0.150483 0.133263 0)
(-0.199419 0.140586 0)
(-0.25064 0.144724 0)
(-0.303551 0.14732 0)
(-0.357678 0.14917 0)
(-0.412698 0.150667 0)
(-0.468384 0.15201 0)
(-0.524517 0.153302 0)
(-0.580665 0.154581 0)
(-0.636071 0.155721 0)
(-0.690288 0.156136 0)
(-0.743791 0.154919 0)
(-0.796223 0.152589 0)
(-0.847192 0.149281 0)
(-0.897901 0.144558 0)
(-0.948865 0.140695 0)
(-0.999216 0.137918 0)
(-1.04853 0.135616 0)
(-1.09703 0.133527 0)
(-1.14487 0.131575 0)
(-1.19212 0.129723 0)
(-1.23884 0.127945 0)
(-1.28505 0.126217 0)
(-1.33076 0.124514 0)
(-1.37599 0.122814 0)
(-1.4207 0.121097 0)
(-1.4649 0.119341 0)
(-1.50856 0.117529 0)
(-1.55164 0.115646 0)
(-1.59411 0.113677 0)
(-1.63593 0.11161 0)
(-1.67705 0.109434 0)
(-1.71743 0.10714 0)
(-1.75701 0.10472 0)
(-1.79574 0.102166 0)
(-1.83355 0.0994731 0)
(-1.87039 0.0966349 0)
(-1.90619 0.0936465 0)
(-1.94088 0.0905036 0)
(-1.97439 0.0872026 0)
(-2.00666 0.0837401 0)
(-2.0376 0.0801138 0)
(-2.06714 0.0763223 0)
(-2.09521 0.0723651 0)
(-2.12172 0.0682434 0)
(-2.1466 0.0639595 0)
(-2.16976 0.0595179 0)
(-2.19114 0.0549245 0)
(-2.21064 0.0501877 0)
(-2.22821 0.0453179 0)
(-2.24377 0.0403277 0)
(-2.25726 0.0352319 0)
(-2.26861 0.0300471 0)
(-2.27778 0.0247915 0)
(-2.28473 0.0194846 0)
(-2.28942 0.0141465 0)
(-2.29182 0.00879535 0)
(-2.29192 0.00344601 0)
(-2.28968 -0.00187399 0)
(-2.2852 -0.00710301 0)
(-2.27847 -0.0122029 0)
(-2.26954 -0.017177 0)
(-2.25844 -0.022026 0)
(-2.24521 -0.0267469 0)
(-2.2299 -0.0313336 0)
(-2.21255 -0.0357785 0)
(-2.19322 -0.040073 0)
(-2.17196 -0.0442082 0)
(-2.14883 -0.048175 0)
(-2.1239 -0.0519646 0)
(-2.09725 -0.0555684 0)
(-2.06894 -0.0589784 0)
(-2.03907 -0.0621868 0)
(-2.0077 -0.0651862 0)
(-1.97493 -0.0679697 0)
(-1.94085 -0.0705311 0)
(-1.90555 -0.0728658 0)
(-1.86914 -0.0749706 0)
(-1.83172 -0.0768439 0)
(-1.79337 -0.0784853 0)
(-1.75422 -0.0798956 0)
(-1.71434 -0.081076 0)
(-1.67386 -0.0820287 0)
(-1.63286 -0.082758 0)
(-1.59145 -0.0832703 0)
(-1.54973 -0.0835742 0)
(-1.50777 -0.0836796 0)
(-1.46568 -0.0835969 0)
(-1.42353 -0.0833366 0)
(-1.3814 -0.0829099 0)
(-1.33937 -0.0823306 0)
(-1.29749 -0.0816147 0)
(-1.25583 -0.0807797 0)
(-1.21444 -0.0798438 0)
(-1.17335 -0.0788228 0)
(-1.1326 -0.0777317 0)
(-1.09222 -0.0765879 0)
(-1.05221 -0.0754115 0)
(-1.0126 -0.0742238 0)
(-0.973374 -0.073047 0)
(-0.934516 -0.0718978 0)
(-0.896006 -0.0707893 0)
(-0.857815 -0.0697388 0)
(-0.819905 -0.068766 0)
(-0.782228 -0.0678927 0)
(-0.744723 -0.0671413 0)
(-0.707318 -0.0665224 0)
(-0.669938 -0.0660424 0)
(-0.632504 -0.0657149 0)
(-0.594928 -0.0655577 0)
(-0.55711 -0.065598 0)
(-0.518939 -0.0658465 0)
(-0.480298 -0.0662942 0)
(-0.44107 -0.0669438 0)
(-0.401144 -0.0678079 0)
(-0.360378 -0.0689298 0)
(-0.318641 -0.0703075 0)
(-0.275778 -0.0719022 0)
(-0.231665 -0.0737121 0)
(-0.186127 -0.0757873 0)
(-0.139049 -0.0781414 0)
(-0.0902672 -0.0807224 0)
(-0.0396548 -0.0835212 0)
(0.013206 -0.0865691 0)
(0.0680246 -0.0898343 0)
(0.125031 -0.093308 0)
(0.184344 -0.0969851 0)
(0.246238 -0.100742 0)
(0.31061 -0.104571 0)
(0.377665 -0.108587 0)
(0.447342 -0.11279 0)
(0.519726 -0.116987 0)
(0.595025 -0.12104 0)
(0.673291 -0.125113 0)
(0.7545 -0.129336 0)
(0.838618 -0.133734 0)
(0.925621 -0.1383 0)
(1.01547 -0.143008 0)
(1.10812 -0.147809 0)
(1.20345 -0.152625 0)
(1.30131 -0.157346 0)
(1.40148 -0.161824 0)
(1.50364 -0.165881 0)
(1.60738 -0.169319 0)
(1.71223 -0.171939 0)
(1.8176 -0.173559 0)
(1.92285 -0.174034 0)
(2.0273 -0.173272 0)
(2.13026 -0.171237 0)
(2.23105 -0.167956 0)
(2.32903 -0.163504 0)
(2.42363 -0.158001 0)
(2.51435 -0.151594 0)
(2.60077 -0.144448 0)
(2.68258 -0.136731 0)
(2.75953 -0.128607 0)
(2.83147 -0.120229 0)
(2.89832 -0.111733 0)
(2.96008 -0.103238 0)
(3.01678 -0.0948453 0)
(3.0685 -0.0866348 0)
(3.11539 -0.0786715 0)
(3.15759 -0.0710041 0)
(3.19529 -0.0636682 0)
(3.22867 -0.0566872 0)
(3.25795 -0.0500752 0)
(3.28332 -0.0438381 0)
(3.305 -0.0379753 0)
(3.32321 -0.0324812 0)
(3.33813 -0.0273462 0)
(3.34998 -0.0225579 0)
(3.35894 -0.0181015 0)
(3.3652 -0.0139607 0)
(3.36893 -0.0101197 0)
(3.3703 -0.00656448 0)
(3.36946 -0.00328192 0)
(3.36658 -0.000250296 0)
(3.36173 0.00255822 0)
(3.35504 0.00516747 0)
(3.34664 0.00759402 0)
(3.33665 0.00985193 0)
(3.32518 0.0119527 0)
(3.31232 0.0139064 0)
(3.29819 0.0157215 0)
(3.28287 0.0174061 0)
(3.26646 0.0189667 0)
(3.24904 0.0204101 0)
(3.2307 0.0217427 0)
(3.21153 0.0229728 0)
(3.1916 0.0241122 0)
(3.17099 0.0251823 0)
(3.14977 0.0262235 0)
(3.12801 0.0273168 0)
(3.10573 0.028624 0)
(3.08284 0.0304874 0)
(3.06013 0.0336661 0)
(3.02997 0.038608 0)
(-0.0354432 0.0963024 0)
(-0.0708684 0.139441 0)
(-0.114456 0.166133 0)
(-0.160751 0.182207 0)
(-0.208416 0.191742 0)
(-0.257653 0.197542 0)
(-0.308179 0.201259 0)
(-0.3596 0.203787 0)
(-0.411564 0.205573 0)
(-0.463751 0.206819 0)
(-0.515841 0.207601 0)
(-0.567429 0.207925 0)
(-0.618035 0.207662 0)
(-0.667423 0.206459 0)
(-0.715817 0.204049 0)
(-0.763342 0.200792 0)
(-0.81002 0.196911 0)
(-0.856327 0.192353 0)
(-0.902519 0.188068 0)
(-0.948297 0.184445 0)
(-0.993448 0.181272 0)
(-1.03801 0.178395 0)
(-1.08203 0.175729 0)
(-1.12555 0.173217 0)
(-1.16861 0.170812 0)
(-1.21121 0.168476 0)
(-1.25337 0.166174 0)
(-1.29507 0.163873 0)
(-1.33631 0.161545 0)
(-1.37706 0.159162 0)
(-1.41731 0.156702 0)
(-1.45701 0.154143 0)
(-1.49614 0.151468 0)
(-1.53464 0.148659 0)
(-1.57249 0.145704 0)
(-1.60963 0.142589 0)
(-1.646 0.139304 0)
(-1.68157 0.13584 0)
(-1.71626 0.132189 0)
(-1.75002 0.128342 0)
(-1.78279 0.124294 0)
(-1.81451 0.120038 0)
(-1.84511 0.11557 0)
(-1.87452 0.110884 0)
(-1.90267 0.105976 0)
(-1.92949 0.100845 0)
(-1.9549 0.0954899 0)
(-1.97883 0.0899106 0)
(-2.0012 0.0841105 0)
(-2.02193 0.0780948 0)
(-2.04096 0.0718714 0)
(-2.05819 0.065451 0)
(-2.07357 0.0588475 0)
(-2.08702 0.0520776 0)
(-2.09847 0.0451612 0)
(-2.10788 0.038121 0)
(-2.11518 0.0309821 0)
(-2.12033 0.0237714 0)
(-2.1233 0.0165171 0)
(-2.12407 0.00924392 0)
(-2.12262 0.00197274 0)
(-2.11891 -0.00523407 0)
(-2.11306 -0.0123008 0)
(-2.10506 -0.0192044 0)
(-2.09495 -0.0259416 0)
(-2.08276 -0.03251 0)
(-2.06852 -0.0389037 0)
(-2.05229 -0.0451144 0)
(-2.0341 -0.0511315 0)
(-2.01401 -0.0569429 0)
(-1.99206 -0.0625364 0)
(-1.96833 -0.0678997 0)
(-1.94288 -0.0730206 0)
(-1.91577 -0.0778879 0)
(-1.88708 -0.0824906 0)
(-1.85688 -0.0868184 0)
(-1.82526 -0.0908617 0)
(-1.7923 -0.0946109 0)
(-1.75809 -0.0980579 0)
(-1.72272 -0.101196 0)
(-1.68629 -0.104023 0)
(-1.64889 -0.106534 0)
(-1.61062 -0.108732 0)
(-1.57158 -0.110617 0)
(-1.53186 -0.112192 0)
(-1.49156 -0.11346 0)
(-1.45078 -0.114426 0)
(-1.4096 -0.115101 0)
(-1.36813 -0.115496 0)
(-1.32644 -0.115625 0)
(-1.28463 -0.115504 0)
(-1.24275 -0.115146 0)
(-1.2009 -0.114568 0)
(-1.15913 -0.113788 0)
(-1.1175 -0.112828 0)
(-1.07608 -0.111713 0)
(-1.03489 -0.110468 0)
(-0.993976 -0.109115 0)
(-0.953368 -0.107674 0)
(-0.913083 -0.106169 0)
(-0.873136 -0.104626 0)
(-0.83353 -0.103074 0)
(-0.794257 -0.101546 0)
(-0.755297 -0.100062 0)
(-0.716624 -0.0986415 0)
(-0.678207 -0.0973061 0)
(-0.640005 -0.096082 0)
(-0.60197 -0.0949987 0)
(-0.564039 -0.0940875 0)
(-0.52614 -0.0933633 0)
(-0.488196 -0.0928336 0)
(-0.450128 -0.0925167 0)
(-0.411849 -0.092434 0)
(-0.373256 -0.0926232 0)
(-0.334249 -0.0931009 0)
(-0.294708 -0.093856 0)
(-0.254517 -0.0948936 0)
(-0.213564 -0.0962275 0)
(-0.171687 -0.0979069 0)
(-0.128812 -0.0999346 0)
(-0.0847616 -0.102277 0)
(-0.039408 -0.104946 0)
(0.00751051 -0.107966 0)
(0.055966 -0.111328 0)
(0.106099 -0.115021 0)
(0.158077 -0.11906 0)
(0.212094 -0.123388 0)
(0.268209 -0.127971 0)
(0.326576 -0.132851 0)
(0.387274 -0.137999 0)
(0.450455 -0.143313 0)
(0.516211 -0.148769 0)
(0.584657 -0.154422 0)
(0.655775 -0.160256 0)
(0.729614 -0.16612 0)
(0.806342 -0.171914 0)
(0.886041 -0.177734 0)
(0.968676 -0.18366 0)
(1.05417 -0.189712 0)
(1.14246 -0.195876 0)
(1.23341 -0.20211 0)
(1.32691 -0.208345 0)
(1.42277 -0.214472 0)
(1.52076 -0.220343 0)
(1.62058 -0.225768 0)
(1.72188 -0.230519 0)
(1.82419 -0.234353 0)
(1.92702 -0.237025 0)
(2.02978 -0.238318 0)
(2.13185 -0.238066 0)
(2.23258 -0.236171 0)
(2.33132 -0.232606 0)
(2.42745 -0.227423 0)
(2.5204 -0.220736 0)
(2.60966 -0.212711 0)
(2.6948 -0.203548 0)
(2.77548 -0.193465 0)
(2.85144 -0.182684 0)
(2.92249 -0.171419 0)
(2.98854 -0.159869 0)
(3.04954 -0.148209 0)
(3.10552 -0.136592 0)
(3.15655 -0.125146 0)
(3.20273 -0.113975 0)
(3.24422 -0.10316 0)
(3.28117 -0.0927621 0)
(3.31378 -0.0828254 0)
(3.34224 -0.0733785 0)
(3.36676 -0.0644375 0)
(3.38755 -0.0560083 0)
(3.4048 -0.0480884 0)
(3.41874 -0.0406689 0)
(3.42956 -0.033736 0)
(3.43746 -0.0272717 0)
(3.44261 -0.0212558 0)
(3.44521 -0.0156663 0)
(3.44542 -0.0104828 0)
(3.44339 -0.00568504 0)
(3.43931 -0.00124627 0)
(3.43327 0.00286703 0)
(3.42539 0.00668273 0)
(3.4158 0.0102225 0)
(3.40463 0.0135062 0)
(3.392 0.0165522 0)
(3.37803 0.0193759 0)
(3.36281 0.0219911 0)
(3.34645 0.0244097 0)
(3.32905 0.0266418 0)
(3.31071 0.0286965 0)
(3.29151 0.0305817 0)
(3.27156 0.032305 0)
(3.25093 0.0338754 0)
(3.22974 0.035306 0)
(3.20806 0.0366193 0)
(3.18601 0.0378588 0)
(3.16366 0.0391097 0)
(3.14115 0.040538 0)
(3.11852 0.0424721 0)
(3.09682 0.0455016 0)
(3.0696 0.0496676 0)
(-0.0363172 0.146022 0)
(-0.0738563 0.186742 0)
(-0.118542 0.212364 0)
(-0.164579 0.229026 0)
(-0.21088 0.23967 0)
(-0.257959 0.246459 0)
(-0.305755 0.25084 0)
(-0.353979 0.253673 0)
(-0.402313 0.255415 0)
(-0.450445 0.256278 0)
(-0.498083 0.256347 0)
(-0.544937 0.255641 0)
(-0.590761 0.254113 0)
(-0.635493 0.251644 0)
(-0.679304 0.248223 0)
(-0.722375 0.244117 0)
(-0.764844 0.239584 0)
(-0.806974 0.234781 0)
(-0.848902 0.230157 0)
(-0.890503 0.225967 0)
(-0.931664 0.222167 0)
(-0.972376 0.218677 0)
(-1.01265 0.215428 0)
(-1.05251 0.212357 0)
(-1.09197 0.209413 0)
(-1.13102 0.206545 0)
(-1.16967 0.203712 0)
(-1.20791 0.200873 0)
(-1.24571 0.197993 0)
(-1.28306 0.195041 0)
(-1.31993 0.191987 0)
(-1.35629 0.188807 0)
(-1.3921 0.185479 0)
(-1.42731 0.181984 0)
(-1.46189 0.178305 0)
(-1.49579 0.174428 0)
(-1.52895 0.170339 0)
(-1.56134 0.166029 0)
(-1.59289 0.161485 0)
(-1.62355 0.156701 0)
(-1.65326 0.151667 0)
(-1.68197 0.146376 0)
(-1.7096 0.140822 0)
(-1.7361 0.134997 0)
(-1.76139 0.128897 0)
(-1.78542 0.12252 0)
(-1.8081 0.115861 0)
(-1.82937 0.108923 0)
(-1.84915 0.101707 0)
(-1.86737 0.0942203 0)
(-1.88395 0.0864712 0)
(-1.89882 0.0784728 0)
(-1.9119 0.0702418 0)
(-1.92313 0.0617989 0)
(-1.93245 0.0531688 0)
(-1.93979 0.0443799 0)
(-1.94511 0.0354638 0)
(-1.94836 0.0264552 0)
(-1.9495 0.0173897 0)
(-1.94852 0.00829977 0)
(-1.94538 -0.000777031 0)
(-1.94013 -0.00974912 0)
(-1.93282 -0.0185387 0)
(-1.92346 -0.0271321 0)
(-1.91207 -0.0355224 0)
(-1.89869 -0.0437036 0)
(-1.88337 -0.0516673 0)
(-1.86612 -0.0594022 0)
(-1.84701 -0.0668949 0)
(-1.82607 -0.0741299 0)
(-1.80337 -0.0810916 0)
(-1.77895 -0.0877644 0)
(-1.75288 -0.0941333 0)
(-1.72524 -0.100184 0)
(-1.69608 -0.105903 0)
(-1.66549 -0.111278 0)
(-1.63354 -0.116297 0)
(-1.60031 -0.120949 0)
(-1.56589 -0.125222 0)
(-1.53037 -0.129109 0)
(-1.49385 -0.132606 0)
(-1.45641 -0.13571 0)
(-1.41814 -0.138423 0)
(-1.37915 -0.140747 0)
(-1.33951 -0.142685 0)
(-1.29933 -0.144242 0)
(-1.2587 -0.145424 0)
(-1.21771 -0.146244 0)
(-1.17644 -0.146718 0)
(-1.13497 -0.146864 0)
(-1.09339 -0.146703 0)
(-1.05176 -0.146252 0)
(-1.01015 -0.145531 0)
(-0.968621 -0.144562 0)
(-0.927233 -0.143375 0)
(-0.886033 -0.142 0)
(-0.845059 -0.14047 0)
(-0.804341 -0.138814 0)
(-0.763901 -0.137054 0)
(-0.723757 -0.135221 0)
(-0.683918 -0.133348 0)
(-0.644384 -0.13147 0)
(-0.605145 -0.12963 0)
(-0.566177 -0.127854 0)
(-0.527452 -0.126164 0)
(-0.488936 -0.124587 0)
(-0.450586 -0.123155 0)
(-0.412352 -0.121904 0)
(-0.374172 -0.120874 0)
(-0.335976 -0.120085 0)
(-0.297687 -0.119544 0)
(-0.259222 -0.119276 0)
(-0.220496 -0.119305 0)
(-0.181392 -0.119674 0)
(-0.141848 -0.120404 0)
(-0.101734 -0.121488 0)
(-0.0609309 -0.12294 0)
(-0.0193243 -0.124781 0)
(0.0233244 -0.127039 0)
(0.0669056 -0.129709 0)
(0.111671 -0.132798 0)
(0.157741 -0.136324 0)
(0.205277 -0.140271 0)
(0.254381 -0.144618 0)
(0.305195 -0.149387 0)
(0.357843 -0.154587 0)
(0.41246 -0.160161 0)
(0.469177 -0.166069 0)
(0.528127 -0.172331 0)
(0.589398 -0.178918 0)
(0.653112 -0.185746 0)
(0.719396 -0.192781 0)
(0.788346 -0.200036 0)
(0.859983 -0.207476 0)
(0.934357 -0.214981 0)
(1.01159 -0.222467 0)
(1.09174 -0.229972 0)
(1.17477 -0.23753 0)
(1.2606 -0.245143 0)
(1.34911 -0.252779 0)
(1.44014 -0.26038 0)
(1.53349 -0.267851 0)
(1.62894 -0.275055 0)
(1.72617 -0.281812 0)
(1.82486 -0.287892 0)
(1.92457 -0.293032 0)
(2.02485 -0.296947 0)
(2.12514 -0.299359 0)
(2.22487 -0.300027 0)
(2.32343 -0.298773 0)
(2.42018 -0.295497 0)
(2.51451 -0.290192 0)
(2.60585 -0.282936 0)
(2.69368 -0.273885 0)
(2.77756 -0.263252 0)
(2.85711 -0.251287 0)
(2.93204 -0.23826 0)
(3.00216 -0.224442 0)
(3.06734 -0.210094 0)
(3.12751 -0.195452 0)
(3.18268 -0.180731 0)
(3.2329 -0.16611 0)
(3.27827 -0.151742 0)
(3.31893 -0.137749 0)
(3.35503 -0.124227 0)
(3.38675 -0.111245 0)
(3.41429 -0.0988558 0)
(3.43785 -0.0870896 0)
(3.45764 -0.0759641 0)
(3.47387 -0.0654838 0)
(3.48675 -0.055644 0)
(3.49647 -0.0464317 0)
(3.50325 -0.0378287 0)
(3.50727 -0.0298116 0)
(3.50871 -0.0223546 0)
(3.50775 -0.0154314 0)
(3.50456 -0.00901632 0)
(3.49931 -0.00307797 0)
(3.49212 0.00242419 0)
(3.48312 0.00752407 0)
(3.47243 0.0122481 0)
(3.4602 0.0166205 0)
(3.44655 0.0206649 0)
(3.4316 0.024403 0)
(3.41545 0.0278542 0)
(3.39824 0.0310356 0)
(3.38004 0.0339617 0)
(3.36098 0.0366453 0)
(3.34114 0.039097 0)
(3.32063 0.0413258 0)
(3.29954 0.0433399 0)
(3.27797 0.0451481 0)
(3.25602 0.0467625 0)
(3.23379 0.0482039 0)
(3.21141 0.0495125 0)
(3.18901 0.050766 0)
(3.16675 0.0521131 0)
(3.14479 0.0538291 0)
(3.12431 0.0563283 0)
(3.09948 0.0594172 0)
(-0.0357617 0.195547 0)
(-0.0738875 0.233694 0)
(-0.118636 0.257501 0)
(-0.163774 0.273718 0)
(-0.208368 0.284567 0)
(-0.253028 0.291658 0)
(-0.297825 0.296177 0)
(-0.342573 0.298888 0)
(-0.387031 0.300234 0)
(-0.430956 0.300448 0)
(-0.474141 0.299647 0)
(-0.516422 0.297899 0)
(-0.557711 0.295245 0)
(-0.598046 0.29172 0)
(-0.637584 0.28744 0)
(-0.676489 0.28264 0)
(-0.714907 0.277553 0)
(-0.753014 0.272375 0)
(-0.7909 0.267383 0)
(-0.828515 0.262741 0)
(-0.865795 0.258454 0)
(-0.902723 0.254475 0)
(-0.939296 0.250745 0)
(-0.975515 0.247203 0)
(-1.01138 0.243791 0)
(-1.04689 0.240457 0)
(-1.08203 0.23715 0)
(-1.11678 0.233827 0)
(-1.15113 0.230445 0)
(-1.18505 0.22697 0)
(-1.2185 0.223368 0)
(-1.25146 0.219613 0)
(-1.28388 0.215678 0)
(-1.31573 0.211543 0)
(-1.34696 0.207189 0)
(-1.37752 0.202599 0)
(-1.40738 0.197759 0)
(-1.43648 0.192658 0)
(-1.46477 0.187282 0)
(-1.49219 0.181624 0)
(-1.5187 0.175672 0)
(-1.54424 0.169418 0)
(-1.56875 0.162854 0)
(-1.59218 0.155972 0)
(-1.61445 0.148766 0)
(-1.6355 0.141231 0)
(-1.65527 0.133363 0)
(-1.67369 0.125163 0)
(-1.69069 0.116632 0)
(-1.70619 0.107778 0)
(-1.72012 0.098609 0)
(-1.73242 0.0891407 0)
(-1.743 0.0793921 0)
(-1.75181 0.0693873 0)
(-1.75878 0.0591555 0)
(-1.76386 0.0487307 0)
(-1.76698 0.0381512 0)
(-1.76812 0.0274588 0)
(-1.76723 0.0166962 0)
(-1.76431 0.00590172 0)
(-1.75929 -0.00484922 0)
(-1.75231 -0.0154471 0)
(-1.74335 -0.0258334 0)
(-1.73246 -0.0359925 0)
(-1.71964 -0.0459151 0)
(-1.70492 -0.0555919 0)
(-1.68835 -0.0650119 0)
(-1.66996 -0.0741611 0)
(-1.64978 -0.0830227 0)
(-1.62787 -0.091578 0)
(-1.60427 -0.0998079 0)
(-1.57905 -0.107694 0)
(-1.55225 -0.115217 0)
(-1.52396 -0.122362 0)
(-1.49422 -0.129112 0)
(-1.46313 -0.135453 0)
(-1.43075 -0.141372 0)
(-1.39716 -0.146853 0)
(-1.36244 -0.151884 0)
(-1.32668 -0.156456 0)
(-1.28997 -0.160565 0)
(-1.2524 -0.164207 0)
(-1.21406 -0.167385 0)
(-1.17504 -0.170103 0)
(-1.13542 -0.172366 0)
(-1.0953 -0.174177 0)
(-1.05475 -0.175547 0)
(-1.01388 -0.176488 0)
(-0.972759 -0.177021 0)
(-0.931467 -0.17717 0)
(-0.890077 -0.176959 0)
(-0.848653 -0.17641 0)
(-0.80726 -0.175545 0)
(-0.765956 -0.174393 0)
(-0.724793 -0.172986 0)
(-0.683815 -0.171362 0)
(-0.643058 -0.169564 0)
(-0.602546 -0.167624 0)
(-0.562297 -0.165568 0)
(-0.522327 -0.163433 0)
(-0.482639 -0.161258 0)
(-0.443231 -0.159084 0)
(-0.404089 -0.156962 0)
(-0.365192 -0.154927 0)
(-0.326507 -0.152999 0)
(-0.287998 -0.151215 0)
(-0.249617 -0.14961 0)
(-0.211309 -0.148224 0)
(-0.173018 -0.147104 0)
(-0.134688 -0.146274 0)
(-0.0962313 -0.145747 0)
(-0.0575663 -0.145555 0)
(-0.0186038 -0.145729 0)
(0.0208255 -0.146297 0)
(0.0606605 -0.14728 0)
(0.101078 -0.148695 0)
(0.142194 -0.150564 0)
(0.184117 -0.15291 0)
(0.226992 -0.155727 0)
(0.270886 -0.159019 0)
(0.315954 -0.162819 0)
(0.362306 -0.167138 0)
(0.41007 -0.171958 0)
(0.459374 -0.177261 0)
(0.510353 -0.183059 0)
(0.563118 -0.189355 0)
(0.617791 -0.196103 0)
(0.674511 -0.203267 0)
(0.733403 -0.210845 0)
(0.794568 -0.218802 0)
(0.858123 -0.227071 0)
(0.924196 -0.235609 0)
(0.992885 -0.244396 0)
(1.06424 -0.253385 0)
(1.13832 -0.262475 0)
(1.21521 -0.271583 0)
(1.29496 -0.280701 0)
(1.37754 -0.289819 0)
(1.46284 -0.298908 0)
(1.55073 -0.307914 0)
(1.64102 -0.316752 0)
(1.73346 -0.325301 0)
(1.82777 -0.333397 0)
(1.9236 -0.340827 0)
(2.02056 -0.347332 0)
(2.1182 -0.352615 0)
(2.216 -0.356361 0)
(2.31341 -0.358268 0)
(2.40984 -0.358077 0)
(2.50468 -0.355603 0)
(2.5973 -0.350758 0)
(2.68714 -0.343555 0)
(2.77364 -0.334105 0)
(2.85635 -0.322607 0)
(2.93485 -0.30932 0)
(3.00883 -0.294544 0)
(3.07807 -0.2786 0)
(3.14241 -0.261803 0)
(3.20176 -0.244455 0)
(3.25612 -0.22683 0)
(3.30552 -0.209172 0)
(3.35006 -0.191688 0)
(3.38984 -0.174548 0)
(3.42504 -0.157891 0)
(3.45583 -0.141823 0)
(3.4824 -0.126423 0)
(3.50495 -0.111744 0)
(3.52369 -0.097821 0)
(3.53885 -0.0846704 0)
(3.55062 -0.0722949 0)
(3.55922 -0.0606866 0)
(3.56485 -0.0498287 0)
(3.56771 -0.0396977 0)
(3.568 -0.0302653 0)
(3.56588 -0.021501 0)
(3.56154 -0.0133743 0)
(3.55514 -0.00585081 0)
(3.54685 0.00111627 0)
(3.53677 0.00756822 0)
(3.52505 0.0135385 0)
(3.51182 0.0190551 0)
(3.49723 0.0241462 0)
(3.4814 0.028839 0)
(3.46444 0.0331588 0)
(3.44647 0.0371284 0)
(3.42761 0.040768 0)
(3.40796 0.044095 0)
(3.38761 0.0471243 0)
(3.36668 0.0498678 0)
(3.34526 0.0523356 0)
(3.32344 0.0545357 0)
(3.30133 0.0564758 0)
(3.27905 0.0581658 0)
(3.25669 0.0596219 0)
(3.23439 0.0608764 0)
(3.21232 0.0619918 0)
(3.19068 0.0630877 0)
(3.16967 0.0643732 0)
(3.15052 0.0661267 0)
(3.1278 0.0680708 0)
(-0.0344197 0.243227 0)
(-0.0720816 0.279026 0)
(-0.11601 0.300756 0)
(-0.159628 0.315901 0)
(-0.202133 0.326275 0)
(-0.24412 0.333082 0)
(-0.28573 0.337263 0)
(-0.326872 0.339476 0)
(-0.367394 0.340141 0)
(-0.407144 0.339513 0)
(-0.446009 0.337755 0)
(-0.48393 0.334991 0)
(-0.520915 0.331336 0)
(-0.557058 0.326915 0)
(-0.592506 0.321903 0)
(-0.627408 0.31652 0)
(-0.661893 0.310971 0)
(-0.696091 0.305439 0)
(-0.730067 0.300111 0)
(-0.763809 0.295101 0)
(-0.797282 0.290423 0)
(-0.830467 0.286045 0)
(-0.863354 0.281913 0)
(-0.895935 0.277967 0)
(-0.9282 0.274149 0)
(-0.960138 0.270399 0)
(-0.99173 0.266665 0)
(-1.02295 0.262898 0)
(-1.05379 0.259053 0)
(-1.08419 0.255091 0)
(-1.11415 0.250976 0)
(-1.14361 0.246678 0)
(-1.17253 0.242171 0)
(-1.20089 0.237431 0)
(-1.22864 0.232438 0)
(-1.25573 0.227175 0)
(-1.28212 0.221626 0)
(-1.30776 0.215779 0)
(-1.33261 0.20962 0)
(-1.35661 0.20314 0)
(-1.37972 0.196328 0)
(-1.40189 0.189173 0)
(-1.42307 0.181666 0)
(-1.44319 0.173799 0)
(-1.46221 0.165563 0)
(-1.48005 0.156952 0)
(-1.49667 0.147961 0)
(-1.51199 0.138588 0)
(-1.52596 0.128836 0)
(-1.53849 0.11871 0)
(-1.54952 0.108222 0)
(-1.55898 0.0973858 0)
(-1.56682 0.0862238 0)
(-1.57295 0.0747633 0)
(-1.57731 0.0630377 0)
(-1.57987 0.0510862 0)
(-1.58055 0.0389536 0)
(-1.57933 0.0266891 0)
(-1.57617 0.0143419 0)
(-1.57104 0.00196094 0)
(-1.56395 -0.0103329 0)
(-1.55502 -0.022421 0)
(-1.54423 -0.0342736 0)
(-1.53162 -0.0458732 0)
(-1.51718 -0.0572067 0)
(-1.50097 -0.0682619 0)
(-1.48299 -0.0790246 0)
(-1.46329 -0.0894781 0)
(-1.44191 -0.0996025 0)
(-1.41888 -0.109375 0)
(-1.39427 -0.118774 0)
(-1.36811 -0.127777 0)
(-1.34047 -0.136363 0)
(-1.31142 -0.144513 0)