/*--------------------------------*- C++ -*----------------------------------*\
  =========                 |
  \\      /  F ield         | OpenFOAM: The Open Source CFD Toolbox
   \\    /   O peration     | Website:  https://openfoam.org
    \\  /    A nd           | Version:  7
     \\/     M anipulation  |
\*---------------------------------------------------------------------------*/
FoamFile
{
    version     2.0;
    format      ascii;
    class       volScalarField;
    location    "250";
    object      epsilon;
}
// * * * * * * * * * * * * * * * * * * * * * * * * * * * * * * * * * * * * * //

dimensions      [0 2 -3 0 0 0 0];

internalField   nonuniform List<scalar> 
16900
(
7.73678
7.39496
7.40107
33.8845
49.6166
68.0041
88.2589
109.981
132.905
156.782
181.4
206.55
232.045
257.709
283.379
308.911
334.165
359.036
383.401
407.194
430.312
452.719
474.34
495.162
515.139
534.275
552.552
569.975
586.551
602.295
617.229
631.379
644.772
657.439
669.414
680.732
691.427
701.537
711.095
720.138
728.698
736.809
744.499
751.797
758.727
765.311
771.567
777.511
783.152
788.499
793.555
798.32
802.792
806.965
810.831
814.381
817.606
820.497
823.044
825.243
827.094
828.604
829.79
830.68
831.315
831.759
832.1
831.699
830.472
828.377
825.373
821.419
816.475
810.505
803.474
795.354
786.12
775.753
764.241
751.583
737.782
722.854
706.826
689.735
671.63
652.574
632.639
611.911
590.485
568.464
545.96
523.09
499.973
476.729
453.464
430.282
407.26
384.505
362.07
340.152
319.033
299.397
281.457
267.256
257.748
249.197
241.197
233.631
226.447
219.614
213.112
206.924
201.037
195.439
190.118
185.061
180.258
175.696
171.362
167.247
163.337
159.621
156.089
152.729
149.532
146.487
143.586
140.819
138.178
135.656
133.244
130.937
128.727
126.61
124.579
122.629
120.757
118.957
117.226
115.561
113.957
112.413
110.925
109.492
108.11
106.778
105.494
104.257
103.064
101.915
100.808
99.7421
98.7161
97.7289
96.7797
95.8676
94.9918
94.1513
93.3456
92.5738
91.8354
91.1295
90.4555
89.8129
89.201
88.6191
88.0667
87.5431
87.0477
86.5799
86.1392
85.7247
85.336
84.9722
84.6329
84.3171
84.0243
83.7535
83.5042
83.2753
83.0661
82.8757
82.7033
82.5478
82.4084
82.284
82.1737
82.0764
81.9911
81.9168
81.8525
81.7971
81.7497
81.7091
81.6746
81.6451
81.62
81.5987
81.5807
81.5757
10.09
15.4416
24.1917
36.656
49.0573
61.9773
75.0474
88.1054
101.075
113.915
126.591
139.079
151.364
163.419
175.235
186.78
198.042
208.995
219.619
229.9
239.817
249.36
258.515
267.277
275.637
283.594
291.145
298.293
305.041
311.393
317.358
322.942
328.156
333.009
337.512
341.675
345.511
349.03
352.245
355.167
357.807
360.177
362.287
364.148
365.77
367.163
368.337
369.299
370.06
370.628
371.01
371.217
371.256
371.137
370.87
370.464
369.933
369.289
368.546
367.722
366.837
365.914
364.979
364.067
363.22
362.489
361.946
361.375
360.651
359.757
358.683
357.417
355.945
354.254
352.328
350.151
347.706
344.975
341.941
338.586
334.895
330.851
326.442
321.657
316.489
310.934
304.993
298.672
291.981
284.938
277.561
269.879
261.919
253.716
245.296
236.684
227.887
218.918
209.762
200.441
190.951
181.081
172.161
163.924
156.875
150.285
144.029
138.073
132.403
127.012
121.892
117.035
112.431
108.073
103.948
100.049
96.3641
92.8832
89.5958
86.4919
83.5613
80.7943
78.1815
75.7138
73.3826
71.1795
69.0969
67.1274
65.2639
63.5
61.8294
60.2465
58.7459
57.3225
55.9716
54.6888
53.4701
52.3116
51.2098
50.1614
49.1633
48.2127
47.3068
46.4432
45.6196
44.8338
44.0838
43.3678
42.6839
42.0306
41.4063
40.8095
40.2391
39.6936
39.172
38.6731
38.1959
37.7395
37.3029
36.8854
36.4861
36.1042
35.7392
35.3903
35.057
34.7386
34.4346
34.1445
33.8679
33.6043
33.3532
33.1143
32.8871
32.6713
32.4666
32.2726
32.0889
31.9152
31.7512
31.5965
31.4508
31.3138
31.1851
31.0643
30.9511
30.8451
30.7459
30.6531
30.5663
30.4851
30.4091
30.3379
30.2709
30.2078
30.1481
30.0912
30.0365
29.9829
29.9282
29.8722
11.2064
24.2784
32.6937
43.2276
54.7798
66.5814
78.2418
89.6557
100.824
111.763
122.502
133.06
143.451
153.68
163.747
173.642
183.353
192.861
202.151
211.202
219.998
228.522
236.76
244.698
252.327
259.638
266.624
273.283
279.612
285.61
291.279
296.62
301.637
306.334
310.715
314.787
318.553
322.022
325.197
328.087
330.697
333.035
335.107
336.92
338.483
339.802
340.888
341.747
342.391
342.83
343.074
343.136
343.028
342.765
342.361
341.832
341.196
340.47
339.673
338.824
337.944
337.053
336.173
335.324
334.529
333.804
333.13
332.405
331.607
330.731
329.771
328.719
327.562
326.289
324.882
323.323
321.59
319.662
317.513
315.118
312.451
309.486
306.2
302.569
298.573
294.198
289.432
284.27
278.71
272.761
266.43
259.737
252.697
245.336
237.666
229.707
221.453
212.898
204.015
194.567
184.959
175.63
167.022
159.021
151.599
144.564
137.851
131.448
125.35
119.555
114.058
108.852
103.928
99.2766
94.8858
90.7441
86.8394
83.1593
79.6919
76.4251
73.3474
70.4476
67.7149
65.1389
62.7101
60.4191
58.2572
56.2163
54.2886
52.467
50.7446
49.1153
47.5731
46.1126
44.7287
43.4166
42.1719
40.9905
39.8686
38.8026
37.7892
36.8253
35.908
35.0347
34.2028
33.4101
32.6543
31.9334
31.2456
30.589
29.9621
29.3632
28.7909
28.2438
27.7207
27.2203
26.7416
26.2835
25.8449
25.4251
25.023
24.6379
24.269
23.9156
23.5769
23.2525
22.9416
22.6437
22.3583
22.0849
21.8229
21.572
21.3317
21.1017
20.8815
20.6708
20.4693
20.2765
20.0922
19.916
19.7476
19.5868
19.4331
19.2863
19.1461
19.0121
18.884
18.7616
18.6445
18.5324
18.4249
18.3218
18.2227
18.1273
18.0353
17.9463
17.8599
17.7753
17.6917
17.6108
53.3301
33.172
39.1006
48.7179
59.6413
70.8642
81.9669
92.8498
103.527
114.041
124.435
134.742
144.983
155.166
165.288
175.338
185.299
195.147
204.859
214.407
223.768
232.917
241.832
250.492
258.882
266.986
274.791
282.289
289.471
296.333
302.87
309.08
314.962
320.517
325.745
330.649
335.229
339.49
343.434
347.064
350.384
353.4
356.114
358.533
360.662
362.509
364.08
365.384
366.431
367.231
367.795
368.137
368.271
368.211
367.975
367.579
367.042
366.382
365.619
364.771
363.858
362.898
361.911
360.913
359.921
358.946
357.931
356.845
355.684
354.446
353.128
351.722
350.218
348.599
346.85
344.947
342.867
340.582
338.065
335.284
332.209
328.809
325.055
320.922
316.385
311.425
306.031
300.195
293.915
287.201
280.057
272.506
264.557
256.236
247.542
238.5
229.07
219.222
208.941
198.754
188.891
179.469
170.611
162.264
154.359
146.826
139.64
132.795
126.29
120.121
114.282
108.764
103.557
98.6467
94.0207
89.6647
85.5645
81.7058
78.0749
74.6581
71.4425
68.4155
65.5653
62.8805
60.3506
57.9654
55.7157
53.5926
51.5879
49.6938
47.9033
46.2097
44.6067
43.0886
41.6501
40.2861
38.9921
37.7637
36.5969
35.488
34.4335
33.4303
32.4754
31.5659
30.6992
29.873
29.085
28.3331
27.6152
26.9296
26.2745
25.6484
25.0496
24.4769
23.9288
23.4041
22.9016
22.4203
21.9591
21.517
21.0931
20.6866
20.2967
19.9226
19.5635
19.2189
18.8881
18.5704
18.2654
17.9725
17.6912
17.421
17.1615
16.9123
16.673
16.4431
16.2223
16.0103
15.8068
15.6113
15.4235
15.2432
15.0701
14.9038
14.744
14.5904
14.4427
14.3007
14.1641
14.0325
13.9057
13.7834
13.6653
13.5511
13.4406
13.3335
13.2295
13.1281
13.0289
12.9351
67.751
39.6692
44.074
52.9303
63.2632
74.0324
84.8088
95.4793
106.055
116.582
127.106
137.661
148.269
158.933
169.646
180.39
191.141
201.867
212.534
223.109
233.556
243.843
253.938
263.814
273.445
282.808
291.886
300.661
309.121
317.255
325.055
332.513
339.625
346.387
352.798
358.855
364.558
369.907
374.902
379.545
383.836
387.779
391.375
394.629
397.543
400.124
402.378
404.312
405.934
407.255
408.285
409.037
409.526
409.765
409.772
409.563
409.156
408.57
407.822
406.931
405.914
404.79
403.575
402.286
400.935
399.525
397.994
396.345
394.583
392.71
390.722
388.613
386.373
383.985
381.433
378.691
375.733
372.527
369.044
365.252
361.117
356.604
351.682
346.33
340.52
334.232
327.462
320.203
312.456
304.235
295.547
286.417
276.854
266.893
256.498
245.76
234.436
223.234
212.194
201.5
191.268
181.543
172.353
163.66
155.411
147.564
140.103
133.02
126.31
119.966
113.978
108.333
103.018
98.0176
93.3149
88.8938
84.7382
80.8322
77.1604
73.708
70.4608
67.4056
64.5296
61.8209
59.2685
56.8619
54.5913
52.4478
50.4229
48.5088
46.6983
44.9845
43.3613
41.8229
40.3639
38.9792
37.6644
36.4151
35.2274
34.0975
33.022
31.9978
31.0219
30.0915
29.2041
28.3572
27.5487
26.7764
26.0383
25.3328
24.658
24.0123
23.3942
22.8024
22.2355
21.6923
21.1715
20.6722
20.1932
19.7335
19.2924
18.8689
18.4621
18.0714
17.6961
17.3353
16.9886
16.6553
16.3348
16.0266
15.7302
15.4452
15.171
14.9072
14.6535
14.4095
14.1747
13.9488
13.7315
13.5225
13.3213
13.1278
12.9416
12.7623
12.5898
12.4237
12.2637
12.1095
11.961
11.8177
11.6795
11.546
11.4171
11.2924
11.1718
11.0549
10.9415
10.8313
10.7243
10.6243
81.0165
44.8311
47.8169
55.9434
65.7232
76.0926
86.6229
97.1899
107.796
118.484
129.298
140.271
151.418
162.742
174.228
185.853
197.582
209.377
221.196
232.993
244.724
256.348
267.824
279.113
290.183
301.004
311.548
321.793
331.718
341.309
350.55
359.43
367.941
376.075
383.826
391.189
398.162
404.74
410.922
416.707
422.094
427.082
431.673
435.867
439.667
443.077
446.1
448.742
451.012
452.916
454.466
455.674
456.551
457.113
457.374
457.352
457.062
456.521
455.748
454.758
453.568
452.193
450.649
448.953
447.112
445.109
442.901
440.51
437.946
435.213
432.311
429.235
425.974
422.512
418.832
414.909
410.713
406.212
401.371
396.161
390.549
384.496
377.969
370.953
363.424
355.36
346.764
337.635
327.98
317.816
307.164
296.046
284.465
272.53
259.974
247.546
235.175
223.129
211.494
200.346
189.74
179.7
170.226
161.286
152.838
144.847
137.292
130.161
123.438
117.11
111.161
105.574
100.331
95.4119
90.798
86.4703
82.4106
78.6011
75.0249
71.6662
68.5098
65.5417
62.7486
60.1185
57.6398
55.3021
53.0956
51.0112
49.0407
47.1763
45.4109
43.738
42.1516
40.646
39.2162
37.8573
36.565
35.3352
34.1642
33.0484
31.9848
30.9701
30.0018
29.0772
28.1939
27.3496
26.5423
25.7699
25.0308
24.3231
23.6452
22.9957
22.3731
21.7761
21.2034
20.6539
20.1265
19.62
19.1336
18.6663
18.2173
17.7856
17.3706
16.9714
16.5875
16.2181
15.8627
15.5206
15.1913
14.8744
14.5692
14.2754
13.9925
13.7201
13.4578
13.2052
12.962
12.7278
12.5023
12.2852
12.0761
11.8748
11.681
11.4943
11.3146
11.1414
10.9746
10.8138
10.6589
10.5095
10.3654
10.2264
10.0921
9.96242
9.83704
9.71573
9.59826
9.4844
9.37421
9.27217
92.141
48.8071
50.4439
57.8743
67.1402
77.1435
87.4582
97.9528
108.622
119.504
130.64
142.06
153.778
165.791
178.08
190.615
203.357
216.257
229.265
242.327
255.39
268.402
281.312
294.075
306.646
318.988
331.066
342.85
354.312
365.43
376.185
386.559
396.539
406.113
415.272
424.007
432.311
440.179
447.605
454.586
461.119
467.201
472.829
478.004
482.726
486.994
490.813
494.185
497.117
499.615
501.689
503.348
504.605
505.472
505.965
506.099
505.889
505.35
504.5
503.353
501.923
500.222
498.267
496.073
493.644
490.921
487.913
484.645
481.134
477.385
473.401
469.175
464.699
459.958
454.933
449.602
443.933
437.888
431.432
424.536
417.173
409.299
400.879
391.903
382.357
372.22
361.496
350.194
338.353
325.939
313.06
299.702
285.795
271.963
258.125
244.587
231.418
218.729
206.591
195.048
184.129
173.844
164.181
155.113
146.6
138.608
131.11
124.081
117.498
111.339
105.582
100.201
95.1746
90.4785
86.0903
81.9881
78.1514
74.5605
71.1971
68.0439
65.0853
62.3064
59.6936
57.2346
54.9177
52.7326
50.6695
48.7195
46.8747
45.1275
43.4713
41.8997
40.4072
38.9884
37.6387
36.3536
35.1292
33.9616
32.8476
31.7839
30.7678
29.7964
28.8673
27.9783
27.1271
26.3119
25.5307
24.7818
24.0636
23.3746
22.7133
22.0784
21.4687
20.883
20.3202
19.7791
19.2589
18.7586
18.2773
17.8142
17.3685
16.9393
16.5262
16.1283
15.745
15.3757
15.02
14.6772
14.3468
14.0285
13.7216
13.4259
13.1409
12.8662
12.6015
12.3464
12.1007
11.8639
11.6357
11.416
11.2043
11.0005
10.8041
10.6151
10.4331
10.2577
10.0889
9.92633
9.7697
9.6188
9.47337
9.33317
9.19794
9.06745
8.94147
8.81974
8.70205
8.5882
8.4783
8.37714
100.881
51.7088
52.1011
58.869
67.6535
77.3104
87.4144
97.8302
108.547
119.599
131.025
142.852
155.095
167.746
180.784
194.175
207.873
221.823
235.969
250.247
264.596
278.955
293.266
307.471
321.52
335.365
348.963
362.276
375.27
387.914
400.184
412.056
423.511
434.533
445.108
455.222
464.867
474.032
482.71
490.893
498.576
505.753
512.42
518.573
524.211
529.331
533.935
538.023
541.599
544.67
547.241
549.323
550.926
552.063
552.747
552.994
552.818
552.233
551.256
549.899
548.175
546.093
543.668
540.912
537.817
534.303
530.418
526.195
521.65
516.795
511.63
506.151
500.349
494.209
487.712
480.837
473.552
465.815
457.586
448.835
439.543
429.668
419.17
408.037
396.265
383.868
370.813
357.112
342.941
328.026
312.78
297.431
282.044
266.892
252.06
237.688
223.86
210.649
198.103
186.255
175.117
164.688
154.949
145.871
137.413
129.539
122.212
115.399
109.067
103.185
97.7231
92.6514
87.9409
83.5641
79.4948
75.7083
72.1816
68.8932
65.8236
62.9543
60.2688
57.7519
55.3895
53.1691
51.0792
49.1092
47.2498
45.4922
43.8286
42.2521
40.7562
39.335
37.9834
36.6964
35.4698
34.2995
33.1821
32.1141
31.0927
30.1151
29.1787
28.2813
27.4207
26.595
25.8024
25.0412
24.3099
23.607
22.9311
22.2811
21.6557
21.0538
20.4744
19.9164
19.379
18.8613
18.3625
17.8817
17.4182
16.9714
16.5405
16.1249
15.724
15.3373
14.9641
14.6041
14.2567
13.9214
13.5979
13.2857
12.9845
12.6939
12.4135
12.143
11.8821
11.6305
11.388
11.1542
10.9289
10.7118
10.5027
10.3013
10.1073
9.92066
9.74097
9.56803
9.40159
9.24142
9.08726
8.93888
8.79601
8.65842
8.52586
8.39808
8.27483
8.15588
8.04099
7.92997
7.82294
7.72482
107.241
53.6693
52.9473
59.0886
67.4124
76.7291
86.6111
96.9205
107.643
118.809
130.456
142.613
155.291
168.483
182.167
196.304
210.846
225.735
240.905
256.288
271.817
287.421
303.034
318.591
334.032
349.302
364.348
379.125
393.591
407.709
421.446
434.772
447.664
460.098
472.056
483.52
494.476
504.911
514.814
524.173
532.98
541.227
548.906
556.011
562.537
568.48
573.838
578.61
582.797
586.404
589.436
591.9
593.809
595.173
596.006
596.322
596.137
595.465
594.32
592.714
590.658
588.16
585.234
581.884
578.073
573.741
568.951
563.739
558.129
552.131
545.747
538.974
531.799
524.207
516.176
507.688
498.711
489.202
479.112
468.406
457.068
445.075
432.388
418.967
404.809
390.045
374.543
358.243
341.759
324.892
307.985
291.184
274.629
258.475
242.832
227.798
213.448
199.838
187.003
174.963
163.721
153.263
143.564
134.588
126.292
118.631
111.564
105.046
99.0381
93.5013
88.3982
83.6935
79.3536
75.3472
71.6449
68.2197
65.0466
62.1026
59.3669
56.8204
54.446
52.228
50.1522
48.206
46.3778
44.6573
43.0352
41.5031
40.0536
38.6798
37.3757
36.1358
34.9553
33.8297
32.755
31.7278
30.7448
29.8031
28.9002
28.0336
27.2012
26.4012
25.6317
24.8911
24.1781
23.4911
22.8291
22.1908
21.5751
20.9812
20.4081
19.8548
19.3207
18.8049
18.3067
17.8255
17.3606
16.9113
16.4771
16.0575
15.652
15.2599
14.8809
14.5145
14.1603
13.8178
13.4868
13.1668
12.8575
12.5586
12.2698
11.9907
11.7212
11.461
11.2098
10.9673
10.7334
10.5079
10.2905
10.0809
9.87912
9.68478
9.49771
9.3177
9.14454
8.97798
8.81782
8.66381
8.51572
8.37329
8.23629
8.10445
7.97753
7.85527
7.73741
7.62371
7.51393
7.40788
7.30566
7.21213
111.359
54.8234
53.1396
58.6893
66.5653
75.5381
85.1765
95.3402
106.012
117.22
129.002
141.386
154.386
167.994
182.188
196.931
212.17
227.845
243.888
260.225
276.783
293.486
310.26
327.034
343.739
360.312
376.694
392.83
408.67
424.17
439.29
453.995
468.251
482.032
495.311
508.068
520.283
531.938
543.018
553.508
563.396
572.67
581.321
589.337
596.713
603.44
609.513
614.931
619.691
623.795
627.249
630.058
632.234
633.787
634.731
635.082
634.855
634.065
632.726
630.849
628.442
625.516
622.081
618.13
613.59
608.443
602.753
596.56
589.889
582.754
575.154
567.085
558.535
549.482
539.9
529.77
519.062
507.737
495.743
483.028
469.551
455.352
440.418
424.631
407.925
390.788
373.077
354.923
336.631
318.269
300.05
282.119
264.62
247.677
231.397
215.863
201.141
187.274
174.287
162.188
150.968
140.603
131.058
122.289
114.249
106.884
100.144
93.9807
88.3449
83.1921
78.4795
74.1672
70.218
66.5976
63.2744
60.2197
57.4072
54.813
52.4156
50.1958
48.1359
46.2203
44.4349
42.767
41.2055
39.74
38.3617
37.0623
35.8346
34.6723
33.5695
32.5211
31.5225
30.5696
29.6588
28.7869
27.951
27.1485
26.3772
25.6349
24.92
24.2306
23.5655
22.9233
22.3029
21.7031
21.123
20.5618
20.0186
19.4927
18.9834
18.4901
18.0122
17.5492
17.1006
16.6658
16.2444
15.836
15.4401
15.0564
14.6845
14.3241
13.9747
13.6361
13.308
12.9901
12.6821
12.3838
12.0949
11.8153
11.5446
11.2828
11.0295
10.7847
10.5482
10.3197
10.0991
9.88634
9.68116
9.48342
9.29295
9.10958
8.93315
8.76345
8.6003
8.4435
8.29281
8.14802
8.00889
7.87517
7.74662
7.62296
7.50395
7.38931
7.27878
7.17212
7.06908
6.96946
6.87336
6.78543
113.448
55.3023
52.8201
57.8176
65.254
73.8737
83.2417
93.2152
103.774
114.946
126.767
139.268
152.462
166.347
180.902
196.088
211.857
228.145
244.883
261.996
279.406
297.033
314.799
332.624
350.436
368.162
385.736
403.097
420.186
436.952
453.347
469.328
484.855
499.896
514.417
528.393
541.797
554.607
566.803
578.367
589.283
599.534
609.108
617.991
626.173
633.643
640.394
646.42
651.717
656.286
660.129
663.252
665.664
667.379
668.409
668.772
668.483
667.558
666.013
663.859
661.101
657.751
653.819
649.278
644.018
638.081
631.522
624.378
616.676
608.43
599.64
590.298
580.39
569.892
558.765
546.975
534.505
521.335
507.412
492.664
476.928
460.464
443.287
425.327
406.678
387.589
368.125
348.445
328.743
309.169
289.896
271.07
252.829
235.289
218.55
202.687
187.755
173.787
160.797
148.779
137.712
127.561
118.282
109.821
102.12
95.1221
88.7683
83.0025
77.7715
73.0249
68.7161
64.8017
61.2423
58.0016
55.0468
52.3483
49.8795
47.6162
45.5371
43.6229
41.8563
40.2221
38.7065
37.2973
35.9836
34.7556
33.6047
32.5231
31.504
30.5413
29.6294
28.7637
27.9396
27.1535
26.402
25.682
24.991
24.3266
23.6868
23.0697
22.4737
21.8976
21.3399
20.7996
20.2759
19.7678
19.2746
18.7955
18.3302
17.8779
17.4382
17.0107
16.595
16.1907
15.7975
15.415
15.043
14.6812
14.3293
13.987
13.6543
13.3308
13.0163
12.7107
12.4138
12.1253
11.8452
11.5733
11.3095
11.0535
10.8053
10.5649
10.332
10.1065
9.88845
9.67765
9.47404
9.27749
9.08792
8.90521
8.72924
8.55988
8.39697
8.24037
8.08988
7.94533
7.8065
7.67316
7.54509
7.42202
7.30371
7.18989
7.08029
6.97464
6.87268
6.77415
6.67882
6.58647
6.4972
6.41541
113.758
55.2273
52.116
56.6044
63.6098
71.8667
80.9377
90.6773
101.062
112.118
123.883
136.387
149.649
163.668
178.426
193.889
210.011
226.729
243.974
261.672
279.742
298.103
316.672
335.367
354.108
372.818
391.424
409.857
428.052
445.949
463.492
480.633
497.324
513.523
529.193
544.3
558.814
572.705
585.949
598.524
610.408
621.582
632.028
641.732
650.677
658.851
666.243
672.845
678.649
683.655
687.863
691.277
693.908
695.767
696.869
697.233
696.875
695.813
694.064
691.636
688.538
684.783
680.375
675.244
669.305
662.619
655.234
647.18
638.48
629.157
619.207
608.617
597.372
585.441
572.78
559.3
545.018
529.977
514.111
497.382
479.736
461.339
442.235
422.475
402.18
381.516
360.626
339.676
318.839
298.284
278.174
258.657
239.866
221.916
204.897
188.878
173.903
159.994
147.15
135.353
124.568
114.749
105.838
97.7735
90.4891
83.9187
77.9979
72.6648
67.8613
63.5335
59.6319
56.1112
52.9304
50.0528
47.4453
45.0781
42.925
40.9626
39.1698
37.5283
36.0216
34.6351
33.3557
32.1721
31.0739
30.0521
29.0985
28.206
27.3682
26.5793
25.8342
25.1286
24.4583
23.8198
23.21
22.6262
22.0658
21.5266
21.0069
20.505
20.0193
19.5487
19.0921
18.6485
18.217
17.797
17.3879
16.9891
16.6002
16.2207
15.8504
15.4888
15.1358
14.791
14.4542
14.1254
13.8043
13.4908
13.1848
12.8862
12.5949
12.3109
12.0339
11.7639
11.5008
11.2445
10.9949
10.7521
10.5159
10.2863
10.0633
9.84675
9.63673
9.43318
9.23606
9.04536
8.86102
8.68301
8.51127
8.34574
8.18634
8.03295
7.88547
7.74374
7.60761
7.47689
7.35138
7.23084
7.11505
7.00375
6.89666
6.79354
6.6941
6.59809
6.50524
6.41529
6.32802
6.24323
6.16099
6.08545
112.551
54.7081
51.1375
55.1658
61.7536
69.6419
78.3944
87.8619
98.018
108.887
120.505
132.907
146.113
160.127
174.937
190.513
206.813
223.78
241.344
259.432
277.967
296.867
316.046
335.421
354.908
374.424
393.891
413.233
432.378
451.261
469.817
487.99
505.725
522.973
539.69
555.834
571.369
586.261
600.479
613.995
626.785
638.824
650.091
660.567
670.233
679.074
687.074
694.222
700.509
705.93
710.485
714.177
717.015
719.011
720.181
720.544
720.119
718.926
716.981
714.293
710.87
706.732
701.864
696.154
689.575
682.18
674.009
665.085
655.404
645.028
633.937
622.114
609.538
596.181
582.009
566.969
551.079
534.338
516.73
498.262
478.956
458.906
438.192
416.921
395.226
373.26
351.189
329.188
307.432
286.094
265.341
245.321
226.167
207.987
190.866
174.862
160.008
146.31
133.756
122.311
111.927
102.544
94.0927
86.5015
79.6957
73.6024
68.1509
63.2752
58.9135
55.0097
51.5124
48.3757
45.5583
43.0236
40.7389
38.6756
36.8082
35.1143
33.5742
32.1705
30.8879
29.7129
28.6336
27.6393
26.7208
25.8699
25.0791
24.3419
23.6526
23.006
22.3976
21.8231
21.279
20.762
20.2693
19.7984
19.3469
18.9128
18.4945
18.0904
17.6991
17.3195
16.9505
16.5914
16.2412
15.8995
15.5656
15.2391
14.9195
14.6066
14.2999
13.9993
13.7045
13.4152
13.1314
12.8532
12.5806
12.3137
12.0523
11.7964
11.5461
11.3012
11.0617
10.8276
10.5986
10.375
10.1566
9.94353
9.73578
9.53338
9.33637
9.14478
8.95864
8.778
8.60288
8.43331
8.2693
8.11087
7.95799
7.81064
7.66875
7.53226
7.40105
7.27499
7.15394
7.03769
6.92605
6.81879
6.71567
6.61642
6.52079
6.4285
6.3393
6.25292
6.16912
6.08765
6.00829
5.93087
5.85545
5.78588
110.087
53.8447
49.9816
53.6064
59.7971
67.3193
75.7424
84.9101
94.7932
105.414
116.809
129.015
142.055
155.939
170.661
186.197
202.513
219.562
237.264
255.558
274.37
293.618
313.219
333.086
353.134
373.277
393.432
413.517
433.455
453.172
472.599
491.67
510.323
528.503
546.157
563.237
579.7
595.505
610.617
625.002
638.63
651.473
663.505
674.704
685.046
694.514
703.088
710.754
717.5
723.319
728.207
732.166
735.204
737.333
738.571
738.936
738.451
737.134
735.002
732.064
728.333
723.825
718.493
712.221
705.028
696.953
688.028
678.276
667.709
656.352
644.195
631.223
617.414
602.746
587.2
570.756
553.419
535.185
516.067
496.101
475.343
453.876
431.8
409.244
386.353
363.291
340.234
317.367
294.873
272.933
251.716
231.373
212.032
193.798
176.745
160.92
146.34
132.999
120.865
109.889
100.009
91.1499
83.2329
76.1754
69.8953
64.3135
59.3548
54.9497
51.0347
47.552
44.4502
41.6834
39.2111
36.9974
35.0112
33.2249
31.6147
30.1595
28.8411
27.6436
26.553
25.557
24.6449
23.8073
23.036
22.3235
21.6634
21.0501
20.4784
19.9438
19.4422
18.9701
18.5243
18.102
17.7005
17.3176
16.9512
16.5996
16.2612
15.9346
15.6185
15.3119
15.0137
14.7232
14.4397
14.1626
13.8912
13.6253
13.3642
13.1076
12.855
12.6062
12.3614
12.1208
11.8843
11.6518
11.4233
11.1987
10.9779
10.7611
10.5483
10.3394
10.1344
9.93356
9.73688
9.54434
9.35593
9.17152
8.99127
8.81528
8.64362
8.4764
8.3137
8.15561
8.00221
7.85357
7.70974
7.57077
7.43666
7.3074
7.18296
7.06327
6.94823
6.83771
6.73156
6.62958
6.53155
6.43726
6.34645
6.25887
6.17426
6.09234
6.01288
5.93562
5.86032
5.78678
5.71479
5.64418
5.57504
5.51096
106.622
52.7346
48.7405
52.0249
57.8491
65.0181
73.1191
81.9743
91.5557
101.884
112.997
124.932
137.716
151.364
165.877
181.24
197.423
214.382
232.057
250.386
269.299
288.719
308.562
328.744
349.177
369.773
390.446
411.11
431.683
452.083
472.236
492.067
511.51
530.499
548.976
566.885
584.176
600.802
616.722
631.896
646.29
659.87
672.608
684.475
695.446
705.499
714.611
722.766
729.947
736.144
741.351
745.568
748.802
751.066
752.375
752.751
752.215
750.789
748.487
745.32
741.305
736.448
730.659
723.877
716.124
707.427
697.817
687.314
675.933
663.685
650.562
636.551
621.636
605.801
589.039
571.345
552.727
533.189
512.759
491.494
469.467
446.767
423.511
399.843
375.923
351.927
328.046
304.474
281.407
259.033
237.522
217.027
197.671
179.551
162.729
147.236
133.074
120.218
108.62
98.2149
88.9235
80.6594
73.332
66.8503
61.1257
56.0742
51.6175
47.6844
44.2103
41.1377
38.4159
36.0001
33.8511
31.9351
30.2223
28.6872
27.3075
26.064
24.9401
23.9214
22.9954
22.1511
21.3792
20.6713
20.0203
19.4198
18.8643
18.3488
17.869
17.4211
17.0016
16.6074
16.236
15.8847
15.5515
15.2344
14.9316
14.6415
14.3628
14.0943
13.8347
13.5831
13.3387
13.1007
12.8684
12.6412
12.4186
12.2
11.9847
11.7722
11.563
11.3571
11.1544
10.9546
10.7576
10.5635
10.3722
10.1836
9.99771
9.8146
9.63429
9.45683
9.28228
9.11072
8.94225
8.77695
8.61493
8.45638
8.30128
8.14955
8.00129
7.85666
7.71577
7.57876
7.44572
7.31676
7.19195
7.07134
6.95497
6.84284
6.7349
6.6311
6.53133
6.43544
6.34328
6.25465
6.16933
6.08709
6.00767
5.93082
5.85629
5.78382
5.71318
5.64414
5.57648
5.51001
5.44456
5.38
5.3164
5.25713
102.575
51.5146
47.5214
50.5313
56.0273
62.8612
70.622
79.1466
88.3994
98.3972
109.176
120.774
133.225
146.548
160.751
175.827
191.753
208.495
226.003
244.222
263.085
282.519
302.446
322.781
343.438
364.328
385.361
406.449
427.504
448.44
469.176
489.632
509.733
529.408
548.591
567.218
585.234
602.584
619.222
635.102
650.185
664.433
677.812
690.291
701.842
712.437
722.052
730.665
738.258
744.817
750.334
754.806
758.238
760.641
762.033
762.434
761.867
760.354
757.908
754.542
750.276
745.092
738.887
731.655
723.404
714.159
703.943
692.774
680.668
667.628
653.647
638.717
622.825
605.962
588.129
569.33
549.577
528.887
507.302
484.888
461.731
437.937
413.639
388.993
364.177
339.384
314.82
290.692
267.207
244.559
222.92
202.441
183.238
165.393
148.956
133.939
120.325
108.07
97.107
87.354
78.7176
71.0991
64.3981
58.5163
53.3601
48.8425
44.8836
41.4119
38.3634
35.6819
33.3183
31.2298
29.3795
27.7356
26.2706
24.9609
23.7864
22.7297
21.7758
20.912
20.1273
19.412
18.758
18.1582
17.6063
17.0971
16.6257
16.188
15.7805
15.3999
15.0434
14.7085
14.3929
14.0945
13.8117
13.5427
13.2861
13.0407
12.8051
12.5784
12.3596
12.1478
11.9424
11.7425
11.5475
11.3569
11.1701
10.9858
10.8046
10.6265
10.4513
10.2787
10.1085
9.94065
9.77494
9.61132
9.44974
9.29017
9.13261
8.97708
8.82361
8.67226
8.52309
8.3762
8.23166
8.0896
7.95012
7.81338
7.67948
7.54864
7.42091
7.29623
7.1747
7.05647
6.94166
6.83036
6.72267
6.61865
6.51832
6.42166
6.32865
6.2392
6.1532
6.07049
5.9909
5.91422
5.84022
5.76866
5.6993
5.63189
5.56619
5.50195
5.43895
5.377
5.3159
5.25549
5.19563
5.13619
5.07728
5.02208
98.6645
50.3989
46.4091
49.173
54.3648
60.8772
68.3081
76.5002
85.413
95.0589
105.473
116.695
128.761
141.699
155.522
170.232
185.815
202.244
219.482
237.477
256.171
275.495
295.375
315.728
336.471
357.512
378.763
400.132
421.527
442.859
464.04
484.986
505.615
525.849
545.616
564.845
583.475
601.446
618.704
635.198
650.885
665.722
679.672
692.7
704.773
715.861
725.937
734.975
742.954
749.856
755.671
760.392
764.022
766.573
768.06
768.505
767.931
766.357
763.799
760.271
755.792
750.303
743.745
736.125
727.448
717.73
706.989
695.242
682.501
668.765
654.031
638.291
621.536
603.764
584.978
565.189
544.415
522.686
500.054
476.596
452.413
427.627
402.388
376.871
351.273
325.806
300.691
276.151
252.401
229.639
208.039
187.742
168.854
151.442
135.535
121.126
108.177
96.621
86.3742
77.3372
69.403
62.4621
56.4062
51.1316
46.5417
42.5481
39.0713
36.0406
33.3942
31.0782
29.0459
27.2574
25.6783
24.2794
23.0357
21.9259
20.9319
20.0382
19.2318
18.5014
17.8373
17.2315
16.6767
16.1671
15.6974
15.2629
14.8599
14.4849
14.135
13.8074
13.4999
13.2104
12.9372
12.6786
12.4331
12.1995
11.9765
11.7632
11.5585
11.3615
11.1715
10.9878
10.8097
10.6366
10.468
10.303
10.1407
9.98177
9.82599
9.67303
9.52259
9.37446
9.22844
9.08436
8.94211
8.8016
8.66276
8.52556
8.38997
8.25601
8.12371
7.9931
7.86424
7.73722
7.61213
7.48907
7.36815
7.24952
7.1333
7.01965
6.90871
6.80067
6.69559
6.59342
6.49425
6.39819
6.3053
6.21565
6.12923
6.04602
5.96596
5.88896
5.81488
5.74355
5.67478
5.60835
5.54402
5.48157
5.42073
5.36127
5.30297
5.2456
5.18896
5.13287
5.07718
5.02175
4.96644
4.9112
4.85612
4.80424
94.7097
49.3325
45.4056
47.9708
52.8956
59.1166
66.2428
74.1199
82.7038
92.0032
102.052
112.891
124.56
137.092
150.509
164.818
180.015
196.082
212.989
230.692
249.138
268.266
288.003
308.272
328.989
350.066
371.412
392.935
414.54
436.136
457.629
478.931
499.955
520.617
540.84
560.547
579.671
598.146
615.913
632.918
649.11
664.445
678.881
692.379
704.905
716.424
726.907
736.325
744.653
751.871
757.962
762.921
766.746
769.446
771.039
771.543
770.983
769.375
766.735
763.084
758.42
752.663
745.815
737.871
728.833
718.712
707.522
695.275
681.978
667.632
652.231
635.768
618.239
599.643
579.986
559.286
537.568
514.872
491.263
466.83
441.69
415.986
389.888
363.592
337.317
311.294
285.761
260.955
237.097
214.386
192.991
173.043
154.631
137.801
122.561
108.88
96.695
85.9203
76.4521
68.1757
60.9722
54.7231
49.3144
44.6395
40.6007
37.1102
34.0903
31.4729
29.1992
27.2183
25.4872
23.9688
22.6319
21.4502
20.4011
19.4659
18.6285
17.8754
17.1953
16.5785
16.0167
15.503
15.0314
14.5969
14.1951
13.8223
13.4751
13.1509
12.8472
12.562
12.2932
12.0394
11.799
11.5708
11.3536
11.1464
10.9482
10.7583
10.5759
10.4002
10.2307
10.0667
9.90777
9.7533
9.60262
9.45485
9.31071
9.16983
9.03187
8.89655
8.76361
8.63284
8.50405
8.37709
8.25183
8.12818
8.00607
7.88544
7.76628
7.64857
7.53233
7.4176
7.30442
7.19286
7.08301
6.97495
6.8688
6.76468
6.66272
6.56305
6.46581
6.37116
6.27921
6.19015
6.10394
6.02053
5.93999
5.86233
5.78754
5.71559
5.64636
5.57976
5.51561
5.45373
5.39391
5.33593
5.27954
5.22451
5.1706
5.11758
5.06523
5.01336
4.96178
4.91036
4.85894
4.80743
4.75572
4.70376
4.65169
4.60242
90.6411
48.2714
44.5058
46.9399
51.6568
57.6392
64.5107
72.1197
80.4191
89.4149
99.1391
109.634
120.943
133.102
146.139
160.069
174.895
190.605
207.175
224.569
242.739
261.628
281.169
301.287
321.901
342.923
364.265
385.832
407.53
429.263
450.938
472.462
493.743
514.694
535.233
555.279
574.76
593.606
611.754
629.144
645.724
661.445
676.261
690.133
703.021
714.891
725.708
735.443
744.067
751.555
757.89
763.059
767.062
769.905
771.602
772.173
771.639
770.016
767.322
763.574
758.736
752.765
745.676
737.459
728.114
717.647
706.066
693.378
679.586
664.688
648.679
631.551
613.301
593.93
573.449
551.879
529.254
505.628
481.078
455.711
429.663
403.099
376.213
349.226
322.378
295.922
270.113
245.195
221.394
198.905
177.888
158.455
140.675
124.571
110.121
97.2716
85.935
76.0042
67.3578
59.8679
53.4055
47.8461
43.0724
38.9772
35.4637
32.4468
29.8518
27.6146
25.68
24.0014