/*--------------------------------*- C++ -*----------------------------------*\
  =========                 |
  \\      /  F ield         | OpenFOAM: The Open Source CFD Toolbox
   \\    /   O peration     | Website:  https://openfoam.org
    \\  /    A nd           | Version:  7
     \\/     M anipulation  |
\*---------------------------------------------------------------------------*/
FoamFile
{
    version     2.0;
    format      ascii;
    class       volScalarField;
    location    "250";
    object      k;
}
// * * * * * * * * * * * * * * * * * * * * * * * * * * * * * * * * * * * * * //

dimensions      [0 2 -2 0 0 0 0];

internalField   nonuniform List<scalar> 
16900
(
0.103324
0.12103
0.129606
0.132553
0.170258
0.210174
0.250239
0.289906
0.32907
0.367523
0.405217
0.441998
0.477817
0.512581
0.546236
0.578727
0.61002
0.640064
0.668875
0.696397
0.722685
0.747691
0.771484
0.794037
0.815417
0.835632
0.854725
0.872739
0.889718
0.905707
0.920754
0.934906
0.948211
0.960718
0.972475
0.983528
0.993923
1.0037
1.01292
1.0216
1.02979
1.03752
1.04483
1.05175
1.05831
1.06453
1.07042
1.07601
1.08131
1.08632
1.09106
1.09553
1.09971
1.10363
1.10725
1.11059
1.11362
1.11635
1.11876
1.12086
1.12264
1.1241
1.12526
1.12615
1.1268
1.12726
1.12763
1.12747
1.12657
1.1249
1.12241
1.11906
1.11482
1.10964
1.10349
1.09633
1.08813
1.07886
1.06849
1.057
1.04438
1.03061
1.01569
0.999645
0.982474
0.964209
0.944886
0.924551
0.903263
0.881087
0.858099
0.834385
0.810031
0.785133
0.759777
0.734052
0.708024
0.681786
0.655387
0.629059
0.602913
0.577577
0.554756
0.533862
0.520398
0.508667
0.497648
0.487127
0.477036
0.46734
0.458021
0.449061
0.440454
0.432187
0.424253
0.416642
0.409346
0.402353
0.395653
0.389236
0.38309
0.377202
0.371562
0.366158
0.360977
0.356009
0.351243
0.346668
0.342273
0.33805
0.333987
0.330078
0.326313
0.322685
0.319187
0.315811
0.312553
0.309405
0.306363
0.303421
0.300577
0.297824
0.295161
0.292583
0.290088
0.287673
0.285335
0.283073
0.280884
0.278766
0.276718
0.274739
0.272827
0.270981
0.269199
0.267481
0.265825
0.264231
0.262698
0.261225
0.25981
0.258454
0.257155
0.255912
0.254725
0.253592
0.252514
0.251489
0.250516
0.249595
0.248724
0.247902
0.24713
0.246404
0.245725
0.245092
0.244502
0.243955
0.24345
0.242985
0.242558
0.242168
0.241814
0.241494
0.241206
0.240948
0.240719
0.240516
0.240338
0.240182
0.240048
0.239932
0.239833
0.239749
0.239678
0.239618
0.239568
0.239527
0.239494
0.239487
0.135135
0.182775
0.235702
0.292798
0.360467
0.430594
0.500641
0.569994
0.638469
0.705921
0.772216
0.837201
0.900748
0.962683
1.02289
1.08121
1.13753
1.19172
1.24369
1.29337
1.34069
1.38562
1.42813
1.46822
1.5059
1.5412
1.57414
1.60479
1.6332
1.65944
1.68357
1.70569
1.72586
1.74418
1.76073
1.7756
1.78888
1.80065
1.81101
1.82004
1.82783
1.83448
1.84007
1.84468
1.8484
1.85132
1.85351
1.85505
1.85603
1.85652
1.85659
1.8563
1.85573
1.85494
1.85397
1.8529
1.85177
1.85061
1.84949
1.84842
1.84746
1.84662
1.84593
1.84542
1.84512
1.84502
1.84505
1.84475
1.84421
1.84339
1.84223
1.84065
1.83858
1.83593
1.83258
1.82844
1.82341
1.81735
1.81017
1.80173
1.79194
1.78068
1.76784
1.75335
1.73712
1.71909
1.69923
1.6775
1.65392
1.62851
1.60132
1.57241
1.54187
1.50981
1.47632
1.44147
1.40529
1.36781
1.32896
1.28877
1.24724
1.20329
1.16186
1.12112
1.08346
1.04712
1.01196
0.977989
0.945244
0.913739
0.883472
0.854434
0.826606
0.799965
0.774481
0.750123
0.726854
0.704638
0.683434
0.663204
0.643906
0.6255
0.607946
0.591205
0.575238
0.560009
0.545483
0.531624
0.5184
0.505779
0.493732
0.48223
0.471247
0.460756
0.450734
0.441157
0.432004
0.423254
0.414888
0.406888
0.399235
0.391914
0.384908
0.378204
0.371786
0.365642
0.359759
0.354124
0.348727
0.343556
0.338601
0.333853
0.329302
0.324938
0.320754
0.316742
0.312894
0.309202
0.305661
0.302263
0.299002
0.295873
0.29287
0.289988
0.287222
0.284567
0.282019
0.279574
0.277228
0.274978
0.272819
0.270749
0.268765
0.266863
0.265041
0.263296
0.261625
0.260026
0.258495
0.257031
0.255632
0.254293
0.253014
0.25179
0.250621
0.249502
0.248431
0.247405
0.246422
0.245478
0.24457
0.243695
0.242851
0.242033
0.241239
0.240465
0.239707
0.23896
0.238215
0.237489
0.172033
0.263526
0.343335
0.423671
0.510885
0.600512
0.690075
0.778793
0.866449
0.952894
1.03804
1.12175
1.20389
1.2843
1.36282
1.43928
1.51349
1.5853
1.65456
1.72115
1.78495
1.84588
1.90389
1.95892
2.01097
2.06004
2.10614
2.14932
2.18962
2.2271
2.26183
2.29389
2.32337
2.35035
2.37493
2.3972
2.41725
2.43519
2.45109
2.46507
2.47722
2.48762
2.49638
2.50358
2.50933
2.5137
2.51679
2.5187
2.5195
2.51928
2.51814
2.51615
2.5134
2.50997
2.50594
2.50139
2.49639
2.49101
2.48532
2.47939
2.47326
2.46701
2.46067
2.4543
2.44792
2.44158
2.43485
2.42779
2.42039
2.41263
2.40446
2.39582
2.38663
2.3768
2.36622
2.35477
2.34234
2.32879
2.31397
2.29777
2.28003
2.26062
2.23942
2.21633
2.19124
2.16408
2.1348
2.10338
2.06982
2.03416
1.99644
1.95674
1.91516
1.87178
1.82669
1.77995
1.73154
1.68143
1.62951
1.57465
1.51876
1.46394
1.41213
1.36265
1.31543
1.26983
1.22572
1.18312
1.14209
1.10264
1.06479
1.02852
0.993807
0.960614
0.9289
0.898616
0.869712
0.842132
0.815822
0.790728
0.766793
0.743964
0.722188
0.701412
0.681588
0.662667
0.644604
0.627355
0.610878
0.595134
0.580086
0.565697
0.551936
0.538769
0.526168
0.514104
0.502551
0.491483
0.480878
0.470713
0.460968
0.451622
0.442656
0.434054
0.425798
0.417873
0.410263
0.402955
0.395935
0.389191
0.382709
0.376479
0.37049
0.364731
0.359192
0.353864
0.348739
0.343806
0.33906
0.334491
0.330093
0.325858
0.321781
0.317855
0.314074
0.310434
0.306928
0.303551
0.3003
0.29717
0.294156
0.291255
0.288464
0.285777
0.283193
0.280707
0.278317
0.276019
0.27381
0.271687
0.269647
0.267687
0.265804
0.263994
0.262254
0.260581
0.258971
0.25742
0.255924
0.25448
0.253084
0.251731
0.250419
0.249141
0.247896
0.246678
0.245482
0.244303
0.243134
0.242014
0.170564
0.333798
0.434787
0.530466
0.630412
0.732721
0.835311
0.937321
1.03845
1.13858
1.23761
1.33544
1.43192
1.52687
1.6201
1.71138
1.80049
1.8872
1.97131
2.05262
2.13098
2.20622
2.27825
2.34697
2.41232
2.47428
2.53282
2.58797
2.63974
2.68819
2.73336
2.77533
2.81418
2.84998
2.88282
2.91281
2.94002
2.96455
2.9865
3.00596
3.02302
3.03778
3.05034
3.06077
3.06918
3.07566
3.08029
3.08317
3.0844
3.08405
3.08224
3.07904
3.07455
3.06886
3.06206
3.05425
3.04551
3.03592
3.02559
3.01457
3.00295
2.9908
2.97819
2.96518
2.95181
2.93813
2.92372
2.9087
2.89312
2.87697
2.86022
2.84281
2.82469
2.80576
2.78593
2.76508
2.74309
2.71981
2.69511
2.66884
2.64088
2.61107
2.5793
2.54547
2.50948
2.47128
2.43082
2.38811
2.34317
2.29605
2.24682
2.19557
2.14238
2.08736
2.0305
1.97191
1.91137
1.84873
1.78391
1.7196
1.65701
1.59674
1.53938
1.48459
1.43203
1.38137
1.33254
1.28554
1.24042
1.19716
1.15577
1.1162
1.07841
1.04234
1.00794
0.975141
0.943868
0.914056
0.885637
0.858542
0.832705
0.808063
0.784554
0.762118
0.740698
0.720242
0.700697
0.682015
0.66415
0.64706
0.630703
0.615042
0.60004
0.585664
0.571882
0.558664
0.545982
0.53381
0.522124
0.510899
0.500115
0.48975
0.479786
0.470204
0.460987
0.452119
0.443584
0.435367
0.427456
0.419836
0.412496
0.405423
0.398607
0.392037
0.385702
0.379594
0.373703
0.36802
0.362538
0.357249
0.352144
0.347218
0.342464
0.337876
0.333447
0.329172
0.325046
0.321064
0.317221
0.313514
0.309937
0.306487
0.303161
0.299954
0.296864
0.293886
0.291019
0.288257
0.285599
0.283042
0.28058
0.278213
0.275935
0.273743
0.271634
0.269603
0.267646
0.265759
0.263938
0.262178
0.260473
0.258821
0.257214
0.25565
0.254122
0.252627
0.251158
0.24971
0.248281
0.246927
0.196985
0.393142
0.510416
0.617075
0.725726
0.836628
0.948322
1.05998
1.17128
1.28209
1.3923
1.5018
1.61043
1.71798
1.8242
1.9288
2.0315
2.13199
2.23
2.32525
2.41751
2.50657
2.59224
2.67438
2.75288
2.82765
2.89866
2.96586
3.02927
3.0889
3.14479
3.19699
3.24555
3.29057
3.3321
3.37025
3.40509
3.43671
3.4652
3.49066
3.51317
3.53283
3.54971
3.56392
3.57554
3.58467
3.59138
3.59578
3.59795
3.59799
3.59599
3.59205
3.58627
3.57873
3.56955
3.55881
3.54661
3.53305
3.51821
3.50219
3.48506
3.4669
3.44779
3.4278
3.40698
3.38531
3.36246
3.33863
3.31387
3.28822
3.26167
3.23418
3.20569
3.17614
3.14544
3.11349
3.08014
3.04528
3.00877
2.97048
2.93029
2.88806
2.84368
2.79708
2.7482
2.69698
2.64345
2.58762
2.52954
2.46932
2.40703
2.3428
2.27668
2.20885
2.13908
2.06785
1.99383
1.92073
1.84877
1.77895
1.71189
1.64786
1.58698
1.52898
1.47354
1.4204
1.36948
1.32074
1.27416
1.22969
1.18729
1.1469
1.10845
1.07185
1.03701
1.00386
0.972307
0.942267
0.913659
0.886404
0.860426
0.835654
0.812018
0.789454
0.767902
0.747303
0.727605
0.708755
0.690709
0.67342
0.656848
0.640955
0.625704
0.611063
0.596999
0.583483
0.570489
0.55799
0.545964
0.534386
0.523238
0.512499
0.50215
0.492175
0.482556
0.47328
0.46433
0.455695
0.447359
0.439312
0.431542
0.424037
0.416787
0.409782
0.403014
0.396471
0.390148
0.384034
0.378123
0.372407
0.36688
0.361534
0.356365
0.351366
0.346531
0.341856
0.337336
0.332966
0.328742
0.324661
0.320718
0.31691
0.313234
0.309687
0.306265
0.302965
0.299786
0.296723
0.293774
0.290935
0.288203
0.285575
0.283048
0.280616
0.278277
0.276025
0.273857
0.271766
0.269748
0.267798
0.26591
0.264079
0.262298
0.260563
0.258868
0.257207
0.255575
0.253967
0.252383
0.250893
0.221399
0.440736
0.570689
0.685579
0.800487
0.917406
1.03561
1.15446
1.27363
1.39301
1.51248
1.63191
1.75112
1.86984
1.98777
2.10457
2.21986
2.33327
2.44443
2.553
2.65866
2.76111
2.86011
2.95544
3.04694
3.13446
3.21792
3.29724
3.37239
3.44336
3.51015
3.5728
3.63135
3.68586
3.73639
3.78302
3.82583
3.86489
3.90028
3.93211
3.96044
3.98537
4.00697
4.02534
4.04056
4.05271
4.06188
4.06816
4.07165
4.07243
4.0706
4.06625
4.05948
4.0504
4.0391
4.02568
4.01023
3.99286
3.97364
3.95268
3.93005
3.90582
3.88008
3.8529
3.82431
3.79419
3.76237
3.7291
3.69448
3.65856
3.62133
3.5828
3.54292
3.50164
3.45888
3.41456
3.36855
3.32073
3.27097
3.21918
3.16524
3.10904
3.05047
2.98953
2.92619
2.86039
2.79223
2.72177
2.64909
2.57432
2.49763
2.41911
2.33878
2.25722
2.17293
2.08993
2.00778
1.92792
1.85082
1.7769
1.70648
1.63967
1.57643
1.51653
1.45968
1.40563
1.35425
1.30542
1.25905
1.21506
1.17334
1.13379
1.0963
1.06075
1.02705
0.995071
0.964715
0.93588
0.908471
0.882395
0.857568
0.83391
0.811345
0.789806
0.769226
0.749546
0.730711
0.71267
0.695374
0.678781
0.662849
0.647541
0.632823
0.618663
0.605031
0.5919
0.579244
0.567041
0.555269
0.543907
0.532937
0.522341
0.512102
0.502207
0.492639
0.483387
0.474437
0.465777
0.457396
0.449284
0.44143
0.433825
0.426459
0.419325
0.412414
0.405719
0.399231
0.392944
0.386852
0.380948
0.375227
0.369682
0.36431
0.359104
0.35406
0.349174
0.344443
0.339861
0.335427
0.331137
0.326988
0.322977
0.319102
0.31536
0.311749
0.308267
0.304911
0.301678
0.298567
0.295573
0.292695
0.289928
0.28727
0.284715
0.282259
0.279898
0.277626
0.275438
0.273327
0.271288
0.269315
0.2674
0.265538
0.263722
0.261946
0.260204
0.25849
0.256799
0.255133
0.253575
0.241142
0.476886
0.616581
0.737744
0.857252
0.978452
1.10135
1.22556
1.35085
1.47712
1.60426
1.73212
1.86049
1.98906
2.11748
2.24533
2.37217
2.49754
2.621
2.74211
2.86047
2.97572
3.08753
3.19563
3.29976
3.39975
3.49544
3.58672
3.67351
3.75575
3.83344
3.90657
3.97516
4.03925
4.09889
4.15414
4.20506
4.25173
4.29422
4.3326
4.36695
4.39736
4.4239
4.44664
4.46568
4.48108
4.49293
4.50133
4.50635
4.50808
4.50662
4.50207
4.49452
4.48408
4.47083
4.45489
4.43635
4.4153
4.39183
4.36602
4.33794
4.30767
4.27528
4.24085
4.20442
4.16559
4.12456
4.08156
4.03674
3.99015
3.94181
3.89174
3.83991
3.78628
3.73079
3.67338
3.61393
3.55233
3.48844
3.42221
3.35357
3.28242
3.20864
3.13229
3.0534
2.97197
2.88807
2.80185
2.71358
2.62308
2.53103
2.43731
2.34148
2.24699
2.15331
2.06207
1.97362
1.88858
1.80733
1.73011
1.65706
1.5882
1.52343
1.46252
1.4052
1.35122
1.30037
1.25246
1.20735
1.16487
1.12487
1.08721
1.05172
1.01827
0.986704
0.956896
0.928717
0.902046
0.876772
0.852792
0.830009
0.808334
0.787688
0.767994
0.749185
0.731199
0.713978
0.69747
0.681627
0.666407
0.65177
0.63768
0.624104
0.611013
0.598379
0.586177
0.574384
0.56298
0.551947
0.541265
0.53092
0.520897
0.511181
0.501761
0.492625
0.483761
0.47516
0.466812
0.458709
0.450841
0.4432
0.43578
0.428574
0.421573
0.414773
0.408167
0.401749
0.395514
0.389457
0.383573
0.377858
0.372307
0.366917
0.361683
0.356603
0.351673
0.346891
0.342255
0.337761
0.333408
0.329195
0.325118
0.321178
0.317372
0.313699
0.310157
0.306745
0.303461
0.300303
0.297267
0.294353
0.291555
0.288871
0.286295
0.283823
0.28145
0.27917
0.276976
0.274861
0.272819
0.270842
0.268923
0.267055
0.26523
0.263442
0.261684
0.259951
0.258237
0.256546
0.254966
0.256165
0.502804
0.649667
0.775458
0.898289
1.02248
1.14867
1.2768
1.40675
1.53845
1.67182
1.80669
1.94284
2.07991
2.21751
2.35516
2.49234
2.62854
2.76322
2.89587
3.02603
3.15323
3.2771
3.39726
3.51343
3.62535
3.73281
3.83565
3.93373
4.02698
4.11534
4.19876
4.27726
4.35084
4.41952
4.48335
4.54238
4.59667
4.64627
4.69126
4.7317
4.76767
4.79922
4.82644
4.8494
4.86816
4.88282
4.89344
4.90012
4.90293
4.90198
4.89735
4.88915
4.87747
4.86242
4.8441
4.8226
4.79802
4.77043
4.73992
4.70654
4.67037
4.63146
4.58988
4.5456
4.49814
4.44794
4.39524
4.34021
4.28292
4.22341
4.16171
4.09779
4.03162
3.96317
3.89239
3.8192
3.74347
3.66506
3.58394
3.50009
3.41346
3.32394
3.23156
3.13645
3.0388
2.9385
2.8357
2.73144
2.62423
2.51634
2.40909
2.30271
2.1987
2.09748
1.99981
1.90615
1.81686
1.73221
1.65235
1.57732
1.50706
1.44144
1.38022
1.3231
1.26982
1.22011
1.17373
1.13046
1.09007
1.05237
1.01716
0.98423
0.953413
0.924535
0.897434
0.871962
0.847981
0.825363
0.803993
0.783763
0.764577
0.746347
0.728993
0.712442
0.696629
0.681496
0.666989
0.653059
0.639664
0.626765
0.614327
0.602319
0.590713
0.579483
0.568606
0.558063
0.547835
0.537906
0.52826
0.518886
0.50977
0.500902
0.492272
0.483871
0.475691
0.467724
0.459964
0.452403
0.445036
0.437858
0.430863
0.424046
0.417403
0.410929
0.404621
0.398473
0.392484
0.38665
0.380966
0.375432
0.370043
0.364798
0.359695
0.354731
0.349905
0.345216
0.340663
0.336244
0.33196
0.327809
0.323791
0.319906
0.316153
0.312532
0.309043
0.305685
0.302456
0.299356
0.296381
0.29353
0.290798
0.288183
0.285679
0.28328
0.280981
0.278775
0.276655
0.274612
0.272639
0.270727
0.268869
0.267056
0.26528
0.263534
0.261812
0.260106
0.258413
0.256735
0.255167
0.266866
0.51996
0.671723
0.800712
0.925764
1.05188
1.18023
1.31105
1.44437
1.58017
1.71839
1.85889
2.0014
2.14557
2.29094
2.437
2.58317
2.72887
2.87351
3.0165
3.1573
3.29539
3.4303
3.56163
3.68899
3.81207
3.93062
4.0444
4.15325
4.25703
4.35564
4.44901
4.53711
4.61992
4.69744
4.76968
4.83669
4.89849
4.95513
5.00668
5.05317
5.09468
5.13126
5.16298
5.18989
5.21207
5.22959
5.24251
5.25092
5.25491
5.25455
5.24996
5.24122
5.22844
5.21172
5.19117
5.16687
5.13893
5.10742
5.07242
5.03397
4.99213
4.94695
4.89847
4.84648
4.7907
4.73159
4.66946
4.60447
4.53672
4.46627
4.39313
4.3173
4.23874
4.15742
4.07332
3.98639
3.89652
3.80355
3.70742
3.60815
3.50585
3.40042
3.29174
3.17995
3.06594
2.94903
2.82889
2.70912
2.58861
2.46916
2.35159
2.23665
2.12516
2.01773
1.91486
1.81696
1.72429
1.63705
1.55528
1.47898
1.40801
1.3422
1.28126
1.2249
1.1728
1.12465
1.08015
1.03903
1.00102
0.965861
0.933311
0.903144
0.875148
0.849125
0.824893
0.802284
0.781145
0.761337
0.742731
0.725213
0.708679
0.693035
0.678196
0.664086
0.650637
0.637788
0.625483
0.613675
0.60232
0.591379
0.580816
0.570603
0.560711
0.551116
0.541798
0.532738
0.523918
0.515326
0.506948
0.498773
0.490792
0.482995
0.475376
0.467927
0.460644
0.45352
0.446552
0.439735
0.433066
0.42654
0.420157
0.413911
0.407802
0.401827
0.395984
0.39027
0.384685
0.379227
0.373894
0.368686
0.363601
0.358639
0.353799
0.349081
0.344485
0.340012
0.335662
0.331435
0.327332
0.323355
0.319504
0.31578
0.312185
0.308718
0.305381
0.302173
0.299095
0.296145
0.293321
0.290621
0.288042
0.285578
0.283225
0.280976
0.278824
0.276762
0.274782
0.272873
0.271027
0.269235
0.267488
0.265776
0.264092
0.262428
0.260776
0.25913
0.257487
0.25585
0.254315
0.273708
0.529765
0.68453
0.815448
0.941748
1.06886
1.19839
1.33083
1.46633
1.60498
1.74674
1.89147
2.03892
2.18871
2.34037
2.49333
2.64701
2.80074
2.9539
3.10584
3.25595
3.40366
3.54843
3.6898
3.82732
3.96062
4.08938
4.21333
4.33223
4.44591
4.55422
4.65705
4.75433
4.846
4.93203
5.01242
5.08717
5.1563
5.21983
5.27781
5.33027
5.37726
5.41883
5.45503
5.48591
5.51153
5.53195
5.54723
5.55746
5.5627
5.56305
5.5586
5.54946
5.53572
5.5175
5.4949
5.46801
5.43694
5.40176
5.36253
5.31931
5.27212
5.22102
5.16598
5.10661
5.04289
4.97532
4.90416
4.82962
4.75183
4.67082
4.58664
4.49927
4.40867
4.31477
4.21757
4.11707
4.01323
3.90589
3.79487
3.68008
3.56206
3.44086
3.31591
3.18693
3.05695
2.92519
2.7924
2.6603
2.52927
2.40049
2.27474
2.15281
2.03538
1.92299
1.81609
1.71501
1.61995
1.53103
1.44822
1.37145
1.30053
1.23522
1.17519
1.12012
1.06964
1.0234
0.981065
0.942294
0.906782
0.874233
0.844375
0.81695
0.791725
0.768482
0.747023
0.727168
0.708753
0.691631
0.675666
0.66074
0.646743
0.633579
0.62116
0.609408
0.598253
0.587632
0.57749
0.567778
0.55845
0.549469
0.540798
0.532409
0.524273
0.516367
0.508671
0.501167
0.493839
0.486674
0.47966
0.472788
0.466049
0.459437
0.452945
0.446568
0.440303
0.434146
0.428095
0.422147
0.4163
0.410553
0.404906
0.399356
0.393904
0.388549
0.38329
0.378129
0.373064
0.368097
0.363226
0.358455
0.353782
0.349209
0.344737
0.340368
0.336103
0.331944
0.327894
0.323954
0.320127
0.316415
0.312821
0.309347
0.305995
0.302768
0.299666
0.296692
0.293844
0.291122
0.288525
0.28605
0.283693
0.281449
0.279312
0.277275
0.275328
0.273465
0.271673
0.269945
0.268268
0.266634
0.265032
0.263453
0.261888
0.260329
0.25877
0.257203
0.255626
0.254043
0.252552
0.277181
0.533513
0.689733
0.821513
0.948199
1.0755
1.20534
1.33841
1.47503
1.61533
1.75935
1.90694
2.05789
2.21179
2.36818
2.52649
2.68607
2.84626
3.00638
3.16574
3.32369
3.4796
3.6329
3.78304
3.92954
4.07197
4.20994
4.34313
4.47126
4.59408
4.71142
4.82312
4.92904
5.02911
5.12326
5.21145
5.29366
5.36987
5.44009
5.50434
5.56265
5.61503
5.66153
5.70218
5.73703
5.76611
5.78948
5.8072
5.81933
5.82594
5.82713
5.82297
5.81359
5.79907
5.77955
5.75511
5.72588
5.69195
5.65339
5.61027
5.5626
5.51044
5.45383
5.39263
5.32626
5.25511
5.17956
5.09989
5.01629
4.92892
4.83785
4.74308
4.64462
4.5424
4.43633
4.32629
4.21242
4.09484
3.97339
3.84781
3.71724
3.58358
3.44706
3.30741
3.16526
3.02213
2.87842
2.73507
2.5932
2.45363
2.31733
2.18509
2.05766
1.93567
1.81962
1.70991
1.6068
1.51044
1.42086
1.33799
1.26166
1.19162
1.12756
1.06911
1.0159
0.967508
0.923545
0.883625
0.847378
0.814458
0.784541
0.757329
0.732547
0.709944
0.689291
0.670382
0.653031
0.63707
0.62235
0.608734
0.596103
0.584348
0.573371
0.563088
0.553419
0.544296
0.535656
0.527445
0.519612
0.512115
0.504914
0.497974
0.491265
0.48476
0.478435
0.472269
0.466245
0.460348
0.454563
0.448881
0.44329
0.437785
0.432357
0.427003
0.421718
0.416498
0.411342
0.406247
0.401213
0.396239
0.391326
0.386472
0.381678
0.376946
0.372276
0.36767
0.363128
0.358653
0.354246
0.349909
0.345645
0.341456
0.337344
0.333312
0.329363
0.325501
0.321728
0.318048
0.314465
0.310983
0.307606
0.304338
0.301182
0.298141
0.29522
0.292419
0.289741
0.287186
0.284754
0.282442
0.280248
0.278168
0.276194
0.274321
0.272539
0.270838
0.269209
0.26764
0.26612
0.264638
0.263183
0.261745
0.260313
0.258879
0.257436
0.255977
0.254496
0.25299
0.251465
0.250019
0.277753
0.532349
0.688835
0.820604
0.946941
1.07372
1.2031
1.33594
1.47267
1.61352
1.75855
1.90768
2.06068
2.21719
2.37673
2.53875
2.70261
2.86761
3.03305
3.19822
3.36244
3.52505
3.68543
3.84298
3.99717
4.14753
4.2936
4.43501
4.57143
4.70257
4.82818
4.94806
5.06204
5.16998
5.27179
5.36738
5.4567
5.53971
5.61639
5.68673
5.75073
5.80841
5.85977
5.90484
5.94364
5.97622
6.0026
6.02284
6.03698
6.0451
6.04727
6.04359
6.03415
6.01908
5.99848
5.97248
5.94118
5.90468
5.86306
5.81637
5.76464
5.70791
5.64618
5.5791
5.50628
5.4282
5.34521
5.25754
5.16536
5.0689
4.96822
4.86331
4.75418
4.64077
4.52294
4.40025
4.27308
4.142
4.00677
3.86734
3.72362
3.57676
3.42719
3.27532
3.12195
2.96812
2.81467
2.66259
2.51288
2.36645
2.22423
2.08701
1.95551
1.83033
1.71193
1.60066
1.49673
1.40021
1.31106
1.22913
1.15418
1.08588
1.02385
0.967677
0.916906
0.871089
0.829785
0.792569
0.759039
0.72882
0.701567
0.676963
0.654722
0.634585
0.616319
0.599716
0.58459
0.570777
0.558128
0.546514
0.535818
0.525936
0.516775
0.508254
0.500299
0.492845
0.485832
0.479207
0.472925
0.466942
0.46122
0.455727
0.450432
0.445309
0.440334
0.435487
0.430749
0.426105
0.421541
0.417046
0.41261
0.408224
0.403883
0.399581
0.395314
0.391078
0.386872
0.382694
0.378543
0.374419
0.370323
0.366254
0.362214
0.358204
0.354226
0.350282
0.346376
0.34251
0.338688
0.334912
0.331186
0.327514
0.323899
0.320345
0.316856
0.313437
0.310091
0.306826
0.303644
0.300552
0.297555
0.294657
0.291864
0.289181
0.28661
0.284155
0.281817
0.279598
0.277496
0.275509
0.273634
0.271864
0.270193
0.268611
0.267109
0.265676
0.264299
0.262967
0.261667
0.260387
0.259117
0.257844
0.25656
0.255257
0.253926
0.252563
0.251163
0.249723
0.248251
0.246847
0.275851
0.527286
0.683169
0.814263
0.939666
1.06535
1.1936
1.32544
1.46139
1.60175
1.74663
1.89598
2.04963
2.20725
2.36839
2.5325
2.69898
2.86713
3.03622
3.20555
3.37443
3.54218
3.70813
3.87166
4.0322
4.18921
4.34221
4.49076
4.63447
4.773
4.90606
5.03339
5.15476
5.27
5.37896
5.48152
5.57757
5.66706
5.74993
5.82614
5.89567
5.95851
6.01465
6.0641
6.10686
6.14296
6.17242
6.19527
6.21155
6.22132
6.22465
6.22163
6.21237
6.19697
6.17555
6.14824
6.11516
6.0764
6.03204
5.98212
5.92667
5.86573
5.79922
5.72659
5.64779
5.56328
5.47335
5.37819
5.27776
5.17261
5.0627
4.94803
4.82858
4.70432
4.57522
4.44113
4.30239
4.15928
4.01188
3.86044
3.70527
3.54714
3.38667
3.22459
3.06176
2.89916
2.73776
2.57859
2.42263
2.27086
2.12418
1.98339
1.84919
1.72214
1.60269
1.49111
1.38755
1.29201
1.20437
1.12439
1.05174
0.986019
0.926775
0.873519
0.82575
0.78297
0.744693
0.710461
0.679842
0.652442
0.627898
0.605885
0.586111
0.568314
0.552264
0.537757
0.524612
0.512671
0.501796
0.491862
0.482763
0.474402
0.466696
0.459569
0.452955
0.446795
0.441035
0.435629
0.430532
0.425707
0.421119
0.416738
0.412534
0.408484
0.404564
0.400754
0.397037
0.393396
0.38982
0.386294
0.382809
0.379357
0.37593
0.372523
0.369129
0.365747
0.362372
0.359004
0.35564
0.35228
0.348924
0.345571
0.342223
0.338879
0.335545
0.332224
0.328922
0.325641
0.322385
0.319158
0.315965
0.312808
0.309694
0.306624
0.303604
0.300639
0.297735
0.294899
0.292136
0.289453
0.286857
0.284352
0.281945
0.279641
0.277445
0.275358
0.273384
0.271523
0.269772
0.26813
0.26659
0.265146
0.263788
0.262507
0.261292
0.260128
0.259003
0.257905
0.256819
0.255734
0.254638
0.25352
0.252372
0.251186
0.249955
0.248675
0.247343
0.245958
0.244527
0.243153
0.271882
0.519216
0.673928
0.803898
0.927935
1.05206
1.17869
1.30887
1.44324
1.58215
1.72578
1.87414
2.0271
2.18437
2.34557
2.51019
2.67765
2.84734
3.01843
3.19028
3.3622
3.5335
3.7035
3.87156
4.03706
4.19943
4.35813
4.51269
4.66265
4.80762
4.94726
5.08124
5.20931
5.33121
5.44677
5.5558
5.65818
5.75379
5.84255
5.92438
5.99924
6.0671
6.12791
6.18168
6.22838
6.26801
6.3006
6.32614
6.34467
6.35624
6.36091
6.35875
6.34986
6.33437
6.31238
6.28403
6.24943
6.2087
6.16188
6.10903
6.05015
5.98531
5.91423
5.83637
5.752
5.66146
5.56503
5.46288
5.35514
5.24208
5.12375
5.00016
4.87133
4.7373
4.59812
4.45386
4.30481
4.1512
3.99332
3.83159
3.66653
3.49883
3.32924
3.15861
2.9879
2.8181
2.65026
2.48544
2.32467
2.16894
2.01916
1.87613
1.74055
1.61294
1.49368
1.38301
1.28097
1.1875
1.10238
1.02528
0.955774
0.893389
0.837592
0.78783
0.743544
0.704191
0.669248
0.638226
0.610674
0.586182
0.56438
0.544939
0.527565
0.512004
0.498031
0.485448
0.474087
0.463799
0.454455
0.445944
0.438168
0.431042
0.424491
0.418451
0.412863
0.407676
0.402845
0.398329
0.39409
0.390097
0.386319
0.382729
0.379302
0.376016
0.372851
0.369788
0.36681
0.363904
0.361055
0.358252
0.355484
0.352742
0.350019
0.347308
0.344604
0.341901
0.339196
0.336487
0.333769
0.331042
0.3283
0.325544
0.322781
0.320016
0.317251
0.314488
0.311729
0.308978
0.306237
0.303513
0.300807
0.298127
0.295476
0.29286
0.290287
0.287762
0.285289
0.282873
0.280522
0.278244
0.276045
0.273933
0.271913
0.269991
0.268172
0.266457
0.26485
0.263348
0.26195
0.260651
0.259445
0.258322
0.257272
0.256282
0.255341
0.254433
0.253544
0.252661
0.25177
0.250858
0.249915
0.24893
0.247896
0.246806
0.245654
0.244439
0.243156
0.241808
0.240403
0.239047
0.266214
0.508953
0.662209
0.790811
0.913218
1.03547
1.16015
1.28814
1.42022
1.55682
1.69819
1.84442
1.99542
2.15099
2.31079
2.47438
2.64123
2.81073
2.98219
3.15496
3.32834
3.50166
3.67423
3.84537
4.01446
4.18088
4.34406
4.50347
4.65862
4.80905
4.95436
5.09419
5.2282
5.35611
5.47766
5.59266
5.7009
5.80224
5.89655
5.98373
6.0637
6.13639
6.20176
6.25975
6.31035
6.35353
6.38928
6.41759
6.43849
6.452
6.45817
6.45707
6.44879
6.43345
6.41116
6.38206
6.34625
6.30385
6.25492
6.19947
6.13756
6.06917
5.99383
5.91133
5.82197
5.72603
5.62377
5.51538
5.40101
5.28085
5.15496
5.0234
4.88625
4.74358
4.59554
4.44234
4.28424
4.12155
3.95468
3.78416
3.61062
3.43481
3.25756
3.07981
2.90258
2.72693
2.55397
2.38481
2.22053
2.06213
1.91054
1.76657
1.63087
1.50393
1.38608
1.27745
1.17803
1.08764
1.00596
0.932567
0.866952
0.808546
0.756744
0.710929
0.670493
0.63485
0.603448
0.575777
0.551373
0.529817
0.51074
0.493815
0.478757
0.465319
0.453288
0.442478
0.432733
0.423916
0.415912
0.408621
0.401957
0.395847
0.390227
0.385041
0.380241
0.375784
0.371634
0.367755
0.36412
0.3607
0.357471
0.354411
0.3515
0.348719
0.346051
0.343481
0.340993
0.338574
0.336213
0.333899
0.331621
0.329371
0.327142
0.324925
0.322716
0.320509
0.318298
0.316079
0.313843
0.311589
0.309324
0.307051
0.304769
0.302479
0.300182
0.29788
0.295575
0.29327
0.290969
0.288676
0.286394
0.28413
0.281889
0.279676
0.277499
0.275363
0.273277
0.271248
0.269283
0.267385
0.265563
0.263824
0.262173
0.260617
0.259159
0.257801
0.256545
0.255388
0.254326
0.253354
0.252461
0.251638
0.250873
0.25015
0.249456
0.248776
0.248094
0.247396
0.246669
0.2459
0.24508
0.244199
0.24325
0.242229
0.241132
0.239957
0.238704
0.237373
0.235977
0.234626
0.259445
0.497387
0.649124
0.776311
0.896956
1.01706
1.13914
1.26434
1.39343
1.5269
1.66506
1.80807
1.95593
2.10852
2.26556
2.42671
2.59149
2.75936
2.9297
3.1019
3.27527
3.44915
3.62286
3.79572
3.96708
4.13629
4.30275
4.46589
4.62517
4.78008
4.93017
5.07501
5.21421
5.34745
5.4744
5.59481
5.70845
5.81511
5.91463
6.00687
6.09171
6.16906
6.23884
6.30098
6.35543
6.40216
6.44112
6.4723
6.4957
6.51131
6.51919
6.51937
6.51195
6.49704
6.47475
6.4452
6.40853
6.36483
6.31414
6.2565
6.19195
6.12036
6.04123
5.95469
5.86096
5.7603
5.65293
5.53904
5.4188
5.29236
5.15981
5.02125
4.8768
4.7266
4.57086
4.40985
4.2439
4.07337
3.89878
3.72074
3.53997
3.35728
3.17359
2.98992
2.80737
2.62707
2.4502
2.27792
2.11135
1.95153
1.79939
1.65571
1.52112
1.39605
1.28074
1.17524
1.07944
0.993033
0.915612
0.846647
0.785532
0.731614
0.684218
0.642672
0.606321
0.574549
0.546781
0.522497
0.501226
0.482555
0.466118
0.451602
0.438732
0.427276
0.417035
0.40784
0.399549
0.392039
0.385209
0.378972
0.373254
0.367992
0.363134
0.358633
0.354451
0.350552
0.346908
0.343491
0.340279
0.33725
0.334387
0.33167
0.329086
0.326619
0.324256
0.321983
0.319791
0.317667
0.315601
0.313585
0.311609
0.309665
0.307747
0.305848
0.30396
0.302079
0.300196
0.2983
0.296398
0.294493
0.292582
0.290664
0.288739
0.286806
0.284866
0.28292
0.28097
0.279019
0.27707
0.275126
0.273192
0.271273
0.269374
0.267502
0.265663
0.263864
0.262113
0.260418
0.258785
0.257225
0.255742
0.254341
0.253028
0.251806
0.25068
0.24965
0.248716
0.247874
0.247119
0.246441
0.24583
0.245273
0.244756
0.244264
0.24378
0.243289
0.242776
0.242225
0.241624
0.240963
0.24023
0.23942
0.238527
0.237547
0.236478
0.23532
0.234073
0.232742
0.231337
0.229976
0.252834
0.484993
0.635145
0.760836
0.87956
0.997247
1.11643
1.23836
1.36385
1.49346
1.62757
1.76642
1.9101
2.05858
2.21169
2.36915
2.53059
2.69552
2.86342
3.03369
3.20572
3.37883
3.55237
3.72567
3.89805
4.06885
4.23745
4.40323
4.56561
4.72403
4.87799
5.02701
5.17065
5.30851
5.44023
5.5655
5.68403
5.79558
5.89993
5.9969
6.08635
6.16815
6.24218
6.30837
6.36662
6.41688
6.45909
6.49322
6.51923
6.53711
6.54688
6.54858
6.54229
6.52809
6.50611
6.47647
6.43928
6.39464
6.34259
6.28316
6.2164
6.14196
6.05964
5.96967
5.87221
5.7675
5.65572
5.53708
5.41173
5.27983
5.14149
4.99685
4.84606
4.68932
4.5269
4.35911
4.18634
4.00905
3.8278
3.6433
3.45634
3.26783
3.07876
2.89024
2.70346
2.51963
2.33999
2.16576
1.9981
1.83807
1.68659
1.54443
1.41213
1.29007
1.17838
1.07702
0.985735
0.904128
0.831664
0.767711
0.711571
0.662512
0.619796
0.5827
0.550539
0.522672
0.498517
0.47755
0.459308
0.443387
0.429438
0.417163
0.406307
0.396656
0.38803
0.380276
0.373269
0.366903
0.36109
0.355756
0.350839
0.346288
0.342059
0.338115
0.334426
0.330963
0.327705
0.324631
0.321724
0.318968
0.316349
0.313855
0.311474
0.309195
0.307009
0.304905
0.302876
0.300913
0.299007
0.297152
0.29534
0.293565
0.29182
0.290099
0.288396
0.286703
0.285007
0.28332
0.281639
0.279962
0.278285
0.276607
0.274926
0.273242
0.271555
0.269865
0.268175
0.266487
0.264803
0.263126
0.261462
0.259814
0.258188
0.256591
0.255029
0.253508
0.252037
0.250624
0.249275
0.248
0.246804
0.245695
0.244676
0.243749
0.242915
0.242174
0.241523
0.240956
0.240466
0.240042
0.23967
0.239336
0.239025
0.238719
0.238402
0.238057
0.237669
0.237224
0.23671
0.236117
0.235437
0.234665
0.233796
0.232828
0.231762
0.230598
0.229338
0.227988
0.226561
0.225177
0.246075
0.472066
0.620638
0.744834
0.861545
0.976635
1.09265
1.21093
1.33233
1.45748
1.58685
1.72075
1.8594
2.00285
2.15104
2.3038
2.46082
2.62172
2.78603
2.95323
3.12273
3.2939
3.4661
3.63867
3.81093
3.98221
4.15186
4.31923
4.48371
4.6447
4.80164
4.954
5.10129
5.24306
5.37889
5.50841
5.6313
5.74725
5.85601
5.95736
6.05111
6.13709
6.21518
6.28525
6.3472
6.40095
6.44641
6.48352
6.51224
6.53253
6.54437
6.54781
6.54288
6.52968
6.50832
6.47891
6.44156
6.39635
6.34333
6.28253
6.21391
6.13707
6.05217
5.95936
5.8588
5.75067
5.63517
5.51248
5.38275
5.24615
5.10282
4.95291
4.79663
4.63422
4.46598
4.29229
4.11359
3.93041
3.74341
3.55334
3.3611
3.16768
2.97418
2.7818
2.59181
2.40551
2.22422
2.0492
1.88164
1.72261
1.57301