/*--------------------------------*- C++ -*----------------------------------*\
  =========                 |
  \\      /  F ield         | OpenFOAM: The Open Source CFD Toolbox
   \\    /   O peration     | Website:  https://openfoam.org
    \\  /    A nd           | Version:  7
     \\/     M anipulation  |
\*---------------------------------------------------------------------------*/
FoamFile
{
    version     2.0;
    format      ascii;
    class       volScalarField;
    location    "250";
    object      nut;
}
// * * * * * * * * * * * * * * * * * * * * * * * * * * * * * * * * * * * * * //

dimensions      [0 2 -1 0 0 0 0];

internalField   nonuniform List<scalar> 
16900
(
0.000124189
0.000178276
0.000204266
4.66681e-05
5.25815e-05
5.84609e-05
6.38547e-05
6.87763e-05
7.33293e-05
7.7538e-05
8.14666e-05
8.51254e-05
8.8551e-05
9.17566e-05
9.47621e-05
9.7579e-05
0.000100223
0.000102695
0.000105022
0.00010719
0.000109234
0.000111137
0.000112929
0.000114598
0.000116166
0.000117627
0.000118993
0.000120269
0.000121462
0.000122577
0.000123618
0.000124591
0.000125501
0.000126351
0.000127146
0.000127891
0.000128588
0.000129242
0.000129856
0.000130433
0.000130975
0.000131487
0.000131969
0.000132425
0.000132857
0.000133265
0.000133652
0.00013402
0.000134368
0.000134697
0.000135009
0.000135304
0.000135581
0.000135841
0.000136083
0.000136307
0.000136513
0.000136699
0.000136866
0.000137014
0.000137141
0.000137248
0.000137336
0.000137405
0.000137458
0.000137498
0.000137532
0.000137559
0.000137542
0.00013748
0.00013737
0.00013721
0.000136996
0.000136726
0.000136398
0.000136009
0.000135556
0.000135036
0.000134447
0.000133787
0.000133054
0.000132245
0.000131358
0.000130392
0.000129346
0.00012822
0.000127012
0.000125723
0.000124355
0.000122907
0.000121383
0.000119784
0.000118113
0.000116374
0.00011457
0.000112705
0.000110781
0.000108802
0.000106769
0.000104702
0.000102545
0.00010028
9.8409e-05
9.59782e-05
9.45622e-05
9.34472e-05
9.24092e-05
9.14107e-05
9.04439e-05
8.95053e-05
8.85942e-05
8.77088e-05
8.68494e-05
8.6015e-05
8.52059e-05
8.44214e-05
8.3662e-05
8.29269e-05
8.22161e-05
8.15288e-05
8.08649e-05
8.02234e-05
7.96038e-05
7.90054e-05
7.84275e-05
7.78692e-05
7.73298e-05
7.68084e-05
7.63044e-05
7.58168e-05
7.53451e-05
7.48884e-05
7.44461e-05
7.40175e-05
7.36019e-05
7.31989e-05
7.28077e-05
7.2428e-05
7.20592e-05
7.1701e-05
7.13528e-05
7.10144e-05
7.06854e-05
7.03656e-05
7.00546e-05
6.97523e-05
6.94583e-05
6.91726e-05
6.8895e-05
6.86253e-05
6.83634e-05
6.81091e-05
6.78624e-05
6.76233e-05
6.73915e-05
6.7167e-05
6.69498e-05
6.67398e-05
6.65369e-05
6.63411e-05
6.61523e-05
6.59704e-05
6.57954e-05
6.56273e-05
6.54659e-05
6.53113e-05
6.51633e-05
6.50218e-05
6.48869e-05
6.47585e-05
6.46364e-05
6.45206e-05
6.4411e-05
6.43075e-05
6.421e-05
6.41185e-05
6.40328e-05
6.39528e-05
6.38783e-05
6.38093e-05
6.37455e-05
6.36869e-05
6.36332e-05
6.35843e-05
6.35399e-05
6.35e-05
6.34643e-05
6.34325e-05
6.34045e-05
6.33799e-05
6.33586e-05
6.33404e-05
6.33249e-05
6.33119e-05
6.33012e-05
6.32925e-05
6.32856e-05
6.32804e-05
6.32767e-05
6.32771e-05
0.000162888
0.000194708
0.000206683
0.000210492
0.00023838
0.000269244
0.00030058
0.000331879
0.000362974
0.000393707
0.000423954
0.000453565
0.00048242
0.000510394
0.000537381
0.000563289
0.000588044
0.00061158
0.000633867
0.000654858
0.00067456
0.00069295
0.000710055
0.000725876
0.000740453
0.000753809
0.000765985
0.000777027
0.00078698
0.000795893
0.000803818
0.000810807
0.000816912
0.000822188
0.000826687
0.000830463
0.00083357
0.00083606
0.000837987
0.000839404
0.000840364
0.000840918
0.000841119
0.000841021
0.000840673
0.000840127
0.000839435
0.000838644
0.000837804
0.00083696
0.000836156
0.000835434
0.000834832
0.000834384
0.000834121
0.000834067
0.000834242
0.000834658
0.000835321
0.000836229
0.000837369
0.00083872
0.000840243
0.000841884
0.000843568
0.000845185
0.00084648
0.000847534
0.000848739
0.000850092
0.000851566
0.000853124
0.000854724
0.000856323
0.00085787
0.000859311
0.000860592
0.000861655
0.00086244
0.000862888
0.000862942
0.000862542
0.000861636
0.000860175
0.000858111
0.000855407
0.000852032
0.00084796
0.000843177
0.000837676
0.000831456
0.000824528
0.000816905
0.000808612
0.00079967
0.000790106
0.000779928
0.000769157
0.000757776
0.000745772
0.000733196
0.000719629
0.000705694
0.000690085
0.000673464
0.000656627
0.000639906
0.000623451
0.000607341
0.000591618
0.000576305
0.000561415
0.000546955
0.000532928
0.000519333
0.000506167
0.000493426
0.000481102
0.00046919
0.000457679
0.000446562
0.000435829
0.000425469
0.000415473
0.000405831
0.000396532
0.000387566
0.000378924
0.000370594
0.000362569
0.000354838
0.000347392
0.000340222
0.000333319
0.000326675
0.000320281
0.000314129
0.00030821
0.000302518
0.000297045
0.000291782
0.000286723
0.00028186
0.000277186
0.000272695
0.000268379
0.000264232
0.000260247
0.000256418
0.000252739
0.000249203
0.000245805
0.000242539
0.0002394
0.000236381
0.000233478
0.000230685
0.000227999
0.000225413
0.000222925
0.000220528
0.00021822
0.000215997
0.000213854
0.000211789
0.000209797
0.000207876
0.000206023
0.000204235
0.000202509
0.000200842
0.000199234
0.00019768
0.000196179
0.00019473
0.000193329
0.000191976
0.000190668
0.000189403
0.000188181
0.000186999
0.000185856
0.00018475
0.000183679
0.000182642
0.000181637
0.000180662
0.000179716
0.000178796
0.000177901
0.000177029
0.000176178
0.000175346
0.000174531
0.000173731
0.000172944
0.000172169
0.000171404
0.000170648
0.000169926
0.000237683
0.000257436
0.0003245
0.000373713
0.000428813
0.000487454
0.000547768
0.000608847
0.000670139
0.000731195
0.000791637
0.000851113
0.000909313
0.000965961
0.00102082
0.00107368
0.00112438
0.00117279
0.0012188
0.00126235
0.00130339
0.00134191
0.0013779
0.00141139
0.00144242
0.00147105
0.00149733
0.00152136
0.0015432
0.00156296
0.00158071
0.00159657
0.00161063
0.00162298
0.00163374
0.00164299
0.00165084
0.00165738
0.0016627
0.00166691
0.00167009
0.00167233
0.00167371
0.00167433
0.00167425
0.00167357
0.00167235
0.00167066
0.00166858
0.00166616
0.00166347
0.00166054
0.00165744
0.00165419
0.00165083
0.00164738
0.00164386
0.00164027
0.00163662
0.00163289
0.00162907
0.00162512
0.00162102
0.00161671
0.00161215
0.00160729
0.00160168
0.00159586
0.00158997
0.00158397
0.00157785
0.00157155
0.00156502
0.00155821
0.00155105
0.00154349
0.00153546
0.0015269
0.00151774
0.00150793
0.00149741
0.00148613
0.00147404
0.00146112
0.00144734
0.00143267
0.00141713
0.00140071
0.00138342
0.00136531
0.00134639
0.00132671
0.00130632
0.00128526
0.00126358
0.00124132
0.00121851
0.00119517
0.00117137
0.00114694
0.0011224
0.00109823
0.00107453
0.00105089
0.00102727
0.00100387
0.000980879
0.000958408
0.000936524
0.000915262
0.000894635
0.000874646
0.000855289
0.000836553
0.000818425
0.000800889
0.000783928
0.000767524
0.000751657
0.00073631
0.000721463
0.0007071
0.000693201
0.000679749
0.000666729
0.000654123
0.000641917
0.000630097
0.000618647
0.000607556
0.000596811
0.0005864
0.000576312
0.000566537
0.000557064
0.000547884
0.000538988
0.000530367
0.000522013
0.000513919
0.000506076
0.000498478
0.000491116
0.000483985
0.000477077
0.000470385
0.000463904
0.000457626
0.000451546
0.000445658
0.000439955
0.000434432
0.000429082
0.000423901
0.000418883
0.000414022
0.000409313
0.000404751
0.000400331
0.000396049
0.0003919
0.000387879
0.000383983
0.000380207
0.000376548
0.000373002
0.000369565
0.000366234
0.000363007
0.00035988
0.000356851
0.000353916
0.000351073
0.000348321
0.000345656
0.000343076
0.000340579
0.000338163
0.000335825
0.000333564
0.000331375
0.000329258
0.000327209
0.000325224
0.000323302
0.000321439
0.000319631
0.000317874
0.000316165
0.000314499
0.000312871
0.000311278
0.000309715
0.000308177
0.00030666
0.000305159
0.000303671
0.000302191
0.000300721
0.000299326
4.90958e-05
0.0003023
0.000435123
0.00051984
0.000599713
0.000681857
0.000766127
0.000851606
0.000937481
0.00102308
0.00110782
0.00119121
0.00127281
0.00135224
0.00142917
0.00150334
0.00157452
0.00164254
0.00170725
0.00176857
0.00182642
0.00188079
0.00193166
0.00197908
0.00202308
0.00206373
0.00210111
0.00213534
0.0021665
0.00219473
0.00222014
0.00224285
0.00226301
0.00228073
0.00229615
0.0023094
0.0023206
0.00232987
0.00233735
0.00234314
0.00234736
0.00235012
0.00235152
0.00235166
0.00235064
0.00234855
0.00234547
0.00234147
0.00233664
0.00233103
0.00232471
0.00231773
0.00231013
0.00230196
0.00229325
0.00228402
0.00227429
0.00226407
0.00225337
0.00224219
0.00223053
0.00221837
0.0022057
0.00219251
0.00217878
0.00216449
0.00214939
0.00213384
0.00211793
0.00210166
0.00208501
0.00206794
0.00205043
0.00203244
0.00201392
0.00199483
0.00197513
0.00195477
0.00193372
0.00191195
0.00188942
0.00186611
0.001842
0.0018171
0.00179141
0.00176495
0.00173774
0.00170982
0.00168123
0.00165204
0.0016223
0.00159207
0.00156141
0.00153037
0.00149899
0.00146734
0.00143538
0.00140316
0.00137076
0.00133901
0.00130822
0.00127856
0.00125005
0.00122247
0.00119568
0.00116966
0.00114443
0.00112004
0.0010965
0.00107382
0.00105198
0.00103095
0.00101072
0.000991248
0.000972504
0.000954456
0.00093707
0.000920313
0.000904154
0.000888563
0.000873512
0.000858972
0.000844918
0.000831325
0.000818171
0.000805434
0.000793094
0.000781133
0.000769533
0.000758279
0.000747355
0.000736748
0.000726445
0.000716435
0.000706706
0.000697249
0.000688054
0.000679113
0.000670417
0.00066196
0.000653733
0.000645731
0.000637946
0.000630373
0.000623007
0.000615841
0.00060887
0.000602089
0.000595493
0.000589077
0.000582836
0.000576766
0.000570862
0.000565119
0.000559534
0.000554102
0.00054882
0.000543682
0.000538687
0.000533829
0.000529107
0.000524515
0.000520053
0.000515716
0.000511503
0.00050741
0.000503436
0.000499578
0.000495836
0.000492206
0.000488689
0.000485282
0.000481984
0.000478795
0.000475712
0.000472735
0.000469862
0.000467092
0.000464423
0.000461854
0.000459381
0.000457003
0.000454715
0.000452515
0.000450397
0.000448357
0.00044639
0.000444489
0.000442647
0.000440858
0.000439114
0.000437406
0.000435727
0.000434068
0.000432422
0.00043078
0.000429134
0.000427479
0.000425815
0.00042424
5.15457e-05
0.000350661
0.000531998
0.000647462
0.000749266
0.000850913
0.000954362
0.00105909
0.00116422
0.00126896
0.00137259
0.00147454
0.00157427
0.00167135
0.0017654
0.00185611
0.00194322
0.00202651
0.00210583
0.00218105
0.00225211
0.00231895
0.00238157
0.00244
0.00249429
0.0025445
0.00259074
0.0026331
0.00267172
0.00270671
0.00273822
0.0027664
0.00279139
0.00281334
0.0028324
0.0028487
0.00286241
0.00287366
0.00288258
0.00288931
0.00289398
0.00289669
0.00289758
0.00289675
0.00289429
0.00289031
0.0028849
0.00287814
0.0028701
0.00286086
0.00285047
0.00283899
0.00282648
0.00281298
0.00279851
0.00278312
0.00276682
0.00274964
0.00273159
0.00271269
0.00269295
0.00267236
0.00265094
0.00262868
0.0026056
0.00258164
0.00255671
0.00253107
0.00250482
0.00247796
0.0024505
0.00242244
0.00239376
0.00236444
0.00233447
0.00230384
0.00227251
0.00224047
0.00220771
0.00217422
0.00214001
0.00210508
0.00206944
0.00203312
0.00199617
0.00195861
0.00192053
0.00188199
0.00184305
0.0018038
0.00176433
0.0017247
0.00168498
0.00164526
0.0016055
0.00156592
0.00152613
0.00148736
0.00144969
0.00141349
0.00137897
0.00134619
0.00131512
0.00128559
0.00125743
0.00123051
0.00120479
0.00118022
0.00115678
0.00113443
0.00111311
0.00109279
0.00107339
0.00105488
0.00103719
0.00102028
0.00100408
0.000988567
0.00097368
0.000959382
0.000945632
0.000932394
0.000919634
0.000907321
0.000895427
0.000883925
0.00087279
0.000862001
0.000851538
0.000841383
0.000831518
0.000821929
0.000812603
0.000803526
0.000794688
0.000786078
0.000777688
0.00076951
0.000761535
0.000753757
0.000746169
0.000738767
0.000731545
0.000724498
0.000717621
0.00071091
0.000704362
0.000697973
0.000691738
0.000685656
0.000679721
0.000673932
0.000668286
0.000662778
0.000657407
0.000652171
0.000647066
0.00064209
0.000637242
0.000632519
0.000627919
0.000623442
0.000619085
0.000614849
0.000610731
0.000606731
0.00060285
0.000599087
0.000595442
0.000591916
0.00058851
0.000585223
0.000582058
0.000579015
0.000576095
0.000573299
0.000570626
0.000568077
0.000565652
0.00056335
0.000561168
0.000559104
0.000557154
0.000555315
0.000553578
0.000551939
0.000550388
0.000548916
0.000547512
0.000546166
0.000544865
0.000543597
0.000542348
0.000541105
0.000539855
0.000538585
0.000537283
0.00053594
0.000534556
0.000533238
5.44531e-05
0.00038996
0.000613
0.000756152
0.00087747
0.00099546
0.0011143
0.00123418
0.00135434
0.00147397
0.00159231
0.00170871
0.00182262
0.00193354
0.00204107
0.00214486
0.00224463
0.00234014
0.00243121
0.00251769
0.0025995
0.00267657
0.00274889
0.00281648
0.00287937
0.00293763
0.00299136
0.00304067
0.00308567
0.00312651
0.00316333
0.00319629
0.00322553
0.00325122
0.00327351
0.00329256
0.00330852
0.00332154
0.00333178
0.00333936
0.00334442
0.00334709
0.0033475
0.00334575
0.00334196
0.00333622
0.00332863
0.00331927
0.00330823
0.00329558
0.00328138
0.0032657
0.00324859
0.00323009
0.00321026
0.00318911
0.0031667
0.00314303
0.00311814
0.00309204
0.00306475
0.00303629
0.00300666
0.00297589
0.00294397
0.00291082
0.00287647
0.00284116
0.00280498
0.00276796
0.00273013
0.00269149
0.00265206
0.00261184
0.00257084
0.00252906
0.00248651
0.00244319
0.00239911
0.00235429
0.00230877
0.00226258
0.00221575
0.00216836
0.00212047
0.00207217
0.00202353
0.00197468
0.0019257
0.00187669
0.00182779
0.00177907
0.00173058
0.00168258
0.00163458
0.001588
0.00154271
0.00149922
0.00145771
0.00141837
0.00138129
0.0013465
0.00131391
0.00128336
0.00125466
0.00122766
0.00120224
0.00117832
0.0011558
0.0011346
0.00111464
0.00109584
0.00107811
0.00106138
0.00104556
0.00103058
0.00101638
0.00100289
0.000990053
0.00097781
0.000966111
0.000954911
0.000944169
0.000933845
0.000923906
0.000914319
0.000905057
0.000896094
0.000887408
0.000878978
0.000870786
0.000862816
0.000855054
0.000847486
0.000840103
0.000832894
0.00082585
0.000818964
0.000812229
0.00080564
0.000799191
0.000792879
0.000786698
0.000780647
0.000774722
0.000768921
0.00076324
0.000757679
0.000752234
0.000746905
0.00074169
0.000736588
0.000731597
0.000726717
0.000721945
0.000717282
0.000712727
0.00070828
0.00070394
0.000699706
0.000695581
0.000691563
0.000687654
0.000683854
0.000680166
0.000676591
0.000673131
0.000669788
0.000666566
0.000663468
0.000660496
0.000657655
0.000654948
0.000652379
0.000649951
0.000647667
0.00064553
0.000643542
0.000641704
0.000640016
0.000638477
0.000637084
0.000635832
0.000634715
0.000633726
0.000632853
0.000632085
0.000631409
0.000630807
0.000630264
0.000629761
0.00062928
0.0006288
0.000628303
0.00062777
0.000627182
0.000626522
0.000625777
0.000624946
0.000624128
5.67981e-05
0.000419361
0.000678287
0.000846385
0.000985093
0.00111692
0.00124822
0.00138004
0.00151195
0.00164319
0.00177302
0.00190076
0.00202583
0.00214773
0.00226604
0.00238037
0.00249043
0.00259595
0.00269673
0.0027926
0.00288345
0.00296921
0.00304984
0.00312534
0.00319573
0.00326109
0.00332148
0.00337702
0.00342782
0.00347402
0.00351576
0.00355319
0.00358646
0.00361574
0.00364119
0.00366296
0.00368122
0.00369611
0.00370779
0.00371641
0.00372209
0.00372497
0.00372519
0.00372285
0.00371806
0.00371094
0.00370158
0.00369006
0.00367648
0.00366092
0.00364343
0.00362409
0.00360295
0.00358007
0.00355548
0.00352924
0.00350138
0.00347192
0.00344089
0.00340832
0.00337422
0.0033386
0.00330149
0.0032629
0.00322285
0.00318115
0.00313801
0.00309366
0.00304816
0.00300159
0.00295397
0.00290533
0.00285571
0.00280511
0.00275357
0.00270113
0.0026478
0.00259362
0.0025386
0.0024828
0.00242629
0.00236913
0.00231139
0.00225314
0.00219453
0.00213566
0.00207661
0.00201754
0.00195866
0.0018999
0.00184166
0.00178391
0.00172652
0.00167085
0.00161669
0.00156464
0.00151486
0.0014676
0.00142301
0.00138117
0.00134213
0.00130584
0.00127222
0.00124108
0.00121224
0.00118551
0.00116075
0.0011378
0.00111655
0.00109685
0.0010786
0.00106168
0.00104598
0.00103139
0.0010178
0.00100513
0.000993281
0.00098218
0.000971749
0.00096192
0.000952632
0.000943827
0.000935455
0.00092747
0.000919832
0.000912504
0.000905452
0.000898649
0.000892068
0.000885687
0.000879487
0.000873448
0.000867558
0.000861802
0.00085617
0.000850652
0.000845239
0.000839925
0.000834705
0.000829573
0.000824527
0.000819562
0.000814677
0.000809869
0.000805138
0.000800483
0.000795903
0.000791397
0.000786966
0.00078261
0.000778328
0.000774123
0.000769994
0.000765941
0.000761967
0.000758072
0.000754258
0.000750526
0.000746877
0.000743315
0.000739841
0.000736459
0.000733171
0.000729981
0.000726893
0.000723911
0.000721041
0.000718288
0.000715658
0.000713156
0.000710791
0.000708567
0.000706494
0.000704576
0.000702822
0.000701236
0.000699824
0.00069859
0.000697537
0.000696665
0.000695974
0.000695461
0.000695118
0.000694938
0.000694909
0.000695015
0.000695241
0.000695565
0.000695966
0.000696419
0.000696899
0.00069738
0.000697834
0.000698236
0.000698561
0.000698783
0.000698883
0.000698841
0.000698656
0.000698412
5.85429e-05
0.000440023
0.000729083
0.000919333
0.00107346
0.00121706
0.00135848
0.00149974
0.0016408
0.00178107
0.00191985
0.00205647
0.00219037
0.00232103
0.00244801
0.00257092
0.00268942
0.00280326
0.00291218
0.00301601
0.00311461
0.00320789
0.00329579
0.00337829
0.0034554
0.00352716
0.00359364
0.00365494
0.00371115
0.00376241
0.00380885
0.00385061
0.00388785
0.00392071
0.00394937
0.00397397
0.00399467
0.00401163
0.004025
0.00403492
0.00404154
0.00404498
0.00404537
0.00404284
0.0040375
0.00402945
0.00401879
0.00400563
0.00399004
0.0039721
0.0039519
0.0039295
0.00390495
0.00387832
0.00384965
0.00381899
0.00378637
0.00375183
0.00371539
0.00367706
0.00363687
0.00359483
0.00355095
0.00350524
0.00345772
0.00340816
0.00335692
0.00330417
0.00325001
0.00319451
0.00313772
0.00307968
0.00302043
0.00296
0.00289845
0.00283582
0.00277217
0.00270755
0.002642
0.00257559
0.00250842
0.00244061
0.00237224
0.00230339
0.00223425
0.00216503
0.00209574
0.00202655
0.00195798
0.00188946
0.00182198
0.00175615
0.00169202
0.00163019
0.00157085
0.00151431
0.00146076
0.00141035
0.00136318
0.00131928
0.00127865
0.00124121
0.00120684
0.00117536
0.00114657
0.00112028
0.00109629
0.00107443
0.00105453
0.00103643
0.00101997
0.001005
0.00099139
0.000979005
0.000967722
0.000957424
0.000948007
0.000939373
0.000931432
0.000924105
0.000917316
0.000911001
0.000905099
0.000899558
0.000894329
0.000889371
0.000884646
0.000880122
0.000875769
0.000871562
0.000867479
0.000863501
0.000859613
0.0008558
0.00085205
0.000848355
0.000844705
0.000841096
0.000837522
0.000833978
0.000830463
0.000826974
0.000823511
0.000820073
0.000816661
0.000813274
0.000809914
0.000806583
0.000803282
0.000800013
0.000796778
0.00079358
0.000790421
0.000787304
0.000784231
0.000781206
0.000778233
0.000775315
0.000772456
0.00076966
0.000766932
0.000764278
0.000761703
0.000759213
0.000756815
0.000754517
0.000752327
0.000750254
0.000748307
0.000746496
0.000744831
0.000743323
0.000741982
0.000740819
0.000739843
0.000739065
0.00073849
0.000738126
0.000737977
0.000738044
0.000738325
0.000738815
0.000739506
0.000740384
0.000741434
0.000742634
0.000743959
0.000745383
0.000746875
0.000748402
0.00074993
0.000751424
0.00075285
0.000754175
0.000755367
0.000756398
0.000757241
0.000757876
0.000758302
0.000758584
5.97676e-05
0.000453375
0.000766973
0.000976543
0.0011442
0.00129781
0.00144746
0.00159613
0.00174427
0.00189147
0.00203715
0.00218067
0.00232148
0.00245907
0.00259299
0.00272284
0.00284828
0.002969
0.00308477
0.00319536
0.00330063
0.00340046
0.00349476
0.00358349
0.00366665
0.00374425
0.00381634
0.00388301
0.00394433
0.00400041
0.00405139
0.0040974
0.00413857
0.00417505
0.00420699
0.00423455
0.00425788
0.00427712
0.00429243
0.00430395
0.00431181
0.00431615
0.00431711
0.00431479
0.00430931
0.00430079
0.00428931
0.00427499
0.00425791
0.00423814
0.00421578
0.00419088
0.00416351
0.00413374
0.00410161
0.00406716
0.00403044
0.00399146
0.00395026
0.00390686
0.00386125
0.00381345
0.00376347
0.0037113
0.0036569
0.00360017
0.00354146
0.00348095
0.00341875
0.00335494
0.00328958
0.00322272
0.00315442
0.00308471
0.00301365
0.00294132
0.00286783
0.00279323
0.00271759
0.00264097
0.00256349
0.00248539
0.00240677
0.00232763
0.00224818
0.00216898
0.00208978
0.00201047
0.00193277
0.00185625
0.0017816
0.00170922
0.00163942
0.00157256
0.0015089
0.00144866
0.001392
0.00133902
0.00128978
0.00124427
0.00120243
0.00116418
0.00112935
0.00109777
0.00106922
0.00104349
0.00102036
0.000999616
0.000981069
0.000964521
0.000949792
0.000936707
0.000925102
0.000914825
0.000905732
0.000897692
0.000890583
0.000884294
0.000878723
0.000873778
0.000869377
0.000865444
0.000861912
0.000858721
0.000855817
0.000853154
0.000850689
0.000848385
0.000846211
0.000844137
0.00084214
0.000840199
0.000838296
0.000836416
0.000834547
0.000832679
0.000830802
0.000828912
0.000827002
0.00082507
0.000823114
0.000821133
0.000819125
0.000817093
0.000815037
0.00081296
0.000810863
0.00080875
0.000806623
0.000804487
0.000802344
0.0008002
0.000798058
0.000795922
0.000793798
0.000791691
0.000789605
0.000787547
0.000785523
0.00078354
0.000781604
0.000779724
0.000777907
0.000776164
0.000774504
0.000772938
0.000771477
0.000770134
0.000768922
0.000767855
0.000766947
0.000766212
0.000765666
0.000765321
0.000765192
0.00076529
0.000765626
0.000766207
0.000767037
0.000768119
0.000769447
0.000771015
0.000772809
0.000774811
0.000776996
0.000779337
0.0007818
0.000784348
0.00078694
0.000789535
0.000792089
0.00079456
0.000796905
0.000799084
0.000801062
0.000802806
0.000804288
0.000805487
0.000806403
0.00080709
6.05469e-05
0.000460728
0.000793615
0.00101971
0.00119912
0.00136119
0.00151748
0.0016719
0.00182538
0.00197779
0.00212864
0.00227737
0.00242346
0.00256641
0.00270576
0.00284112
0.00297213
0.00309849
0.00321991
0.00333619
0.00344714
0.00355261
0.0036525
0.00374675
0.00383533
0.00391823
0.00399548
0.00406714
0.00413327
0.00419396
0.00424932
0.00429947
0.00434453
0.00438464
0.00441994
0.00445057
0.00447667
0.00449839
0.00451587
0.00452925
0.00453866
0.00454423
0.00454609
0.00454436
0.00453915
0.00453057
0.00451872
0.00450369
0.00448559
0.00446449
0.00444047
0.0044136
0.00438395
0.00435159
0.00431655
0.00427889
0.00423864
0.00419583
0.00415047
0.00410258
0.00405216
0.00399921
0.00394373
0.00388569
0.00382499
0.00376169
0.00369611
0.00362842
0.00355876
0.00348721
0.00341386
0.00333875
0.00326194
0.00318349
0.00310345
0.00302189
0.002939
0.00285491
0.00276965
0.00268328
0.00259582
0.00250783
0.00241942
0.00233044
0.00224082
0.00215217
0.00206421
0.00197726
0.00189212
0.001809
0.00172841
0.00165072
0.00157628
0.00150538
0.00143827
0.00137512
0.00131606
0.00126116
0.00121043
0.00116384
0.00112129
0.00108266
0.00104777
0.00101642
0.000988374
0.000963401
0.000941262
0.000921721
0.000904553
0.000889541
0.000876478
0.000865169
0.000855432
0.000847097
0.000840005
0.000834011
0.000828984
0.000824801
0.000821353
0.00081854
0.000816272
0.000814468
0.000813055
0.00081197
0.000811154
0.000810557
0.000810133
0.000809841
0.000809648
0.000809523
0.000809438
0.000809372
0.000809306
0.000809222
0.000809107
0.00080895
0.000808742
0.000808476
0.000808148
0.000807752
0.000807288
0.000806754
0.000806151
0.00080548
0.000804743
0.000803942
0.00080308
0.000802162
0.000801192
0.000800173
0.000799112
0.000798014
0.000796883
0.000795727
0.000794551
0.000793363
0.000792169
0.000790977
0.000789795
0.000788633
0.0007875
0.000786407
0.000785364
0.000784384
0.000783479
0.000782665
0.000781955
0.000781367
0.000780918
0.000780624
0.000780505
0.00078058
0.000780865
0.000781381
0.000782142
0.000783163
0.000784457
0.000786032
0.000787891
0.000790034
0.000792453
0.000795137
0.000798065
0.000801211
0.000804543
0.000808021
0.000811602
0.000815239
0.00081888
0.000822473
0.000825967
0.000829309
0.000832453
0.000835354
0.000837973
0.000840275
0.000842233
0.000843827
0.000845063
0.000845994
6.095e-05
0.000463221
0.000810598
0.00105054
0.00124004
0.0014092
0.00157079
0.00172955
0.00188692
0.00204303
0.00219755
0.00235
0.0024999
0.00264677
0.00279017
0.00292971
0.00306503
0.00319581
0.00332178
0.00344268
0.00355833
0.00366857
0.00377326
0.00387231
0.00396568
0.00405333
0.00413527
0.00421152
0.00428213
0.00434717
0.00440673
0.00446089
0.00450978
0.00455351
0.00459219
0.00462597
0.00465498
0.00467934
0.00469919
0.00471466
0.00472587
0.00473296
0.00473605
0.00473525
0.00473066
0.00472241
0.00471058
0.00469528
0.00467659
0.00465459
0.00462938
0.00460102
0.00456957
0.00453511
0.00449767
0.00445731
0.00441405
0.00436793
0.00431895
0.00426711
0.00421241
0.00415484
0.00409438
0.004031
0.00396451
0.0038952
0.00382331
0.003749
0.0036724
0.00359365
0.00351282
0.00342998
0.0033452
0.00325853
0.00317001
0.00307968
0.00298781
0.00289467
0.0028003
0.0027047
0.00260754
0.00251004
0.00241244
0.00231471
0.00221723
0.00212078
0.00202561
0.00193218
0.00184101
0.00175252
0.00166715
0.00158526
0.00150718
0.00143319
0.0013635
0.00129827
0.00123759
0.0011815
0.00112998
0.00108295
0.00104029
0.00100184
0.000967388
0.000936713
0.000909559
0.000885666
0.000864771
0.000846617
0.000830952
0.000817539
0.00080615
0.000796573
0.00078861
0.000782079
0.000776811
0.000772652
0.000769464
0.000767118
0.000765502
0.000764511
0.000764054
0.000764047
0.000764417
0.000765098
0.00076603
0.000767163
0.000768448
0.000769846
0.000771321
0.000772841
0.000774379
0.000775911
0.000777417
0.000778878
0.000780281
0.000781614
0.000782866
0.00078403
0.0007851
0.000786072
0.000786944
0.000787713
0.000788381
0.000788948
0.000789416
0.000789787
0.000790066
0.000790256
0.000790363
0.00079039
0.000790345
0.000790232
0.000790058
0.000789832
0.000789559
0.000789249
0.00078891
0.000788552
0.000788185
0.000787821
0.000787471
0.000787147
0.000786865
0.000786638
0.000786482
0.000786416
0.000786458
0.000786629
0.000786948
0.000787439
0.000788123
0.000789024
0.000790163
0.000791562
0.00079324
0.000795213
0.000797493
0.000800089
0.000803001
0.000806227
0.000809753
0.000813559
0.000817616
0.00082189
0.000826335
0.000830902
0.000835535
0.000840175
0.00084476
0.00084923
0.000853523
0.000857583
0.000861358
0.000864801
0.000867872
0.000870539
0.000872777
0.000874571
0.000875932
0.000876931
6.10347e-05
0.00046183
0.000819411
0.00107068
0.00126872
0.00144378
0.0016095
0.00177139
0.00193137
0.00208986
0.00224668
0.00240148
0.00255381
0.00270323
0.00284935
0.00299178
0.00313017
0.00326419
0.00339357
0.00351805
0.00363743
0.00375153
0.00386019
0.00396331
0.00406081
0.00415263
0.00423875
0.00431917
0.00439391
0.00446301
0.00452654
0.00458457
0.00463718
0.00468447
0.00472655
0.00476353
0.00479553
0.00482266
0.00484504
0.0048628
0.00487606
0.00488493
0.00488952
0.00488995
0.00488633
0.00487875
0.00486731
0.0048521
0.00483322
0.00481074
0.00478475
0.00475532
0.00472252
0.0046864
0.00464702
0.00460441
0.00455861
0.00450964
0.00445751
0.00440219
0.00434369
0.00428196
0.00421699
0.00414868
0.00407694
0.00400211
0.00392442
0.003844
0.00376094
0.00367546
0.00358763
0.00349754
0.00340526
0.00331085
0.00321437
0.00311568
0.00301518
0.00291344
0.00281044
0.00270631
0.00260118
0.00249575
0.00239037
0.00228533
0.00218109
0.00207822
0.00197716
0.0018784
0.00178243
0.0016897
0.00160061
0.00151554
0.00143481
0.00135866
0.0012873
0.00122084
0.00115936
0.00110287
0.0010513
0.00100455
0.000962458
0.000924823
0.000891408
0.000861951
0.000836172
0.000813783
0.000794495
0.000778024
0.000764097
0.000752455
0.000742852
0.000735061
0.000728872
0.000724091
0.000720544
0.000718072
0.000716531
0.000715794
0.000715746
0.000716286
0.000717321
0.000718773
0.000720569
0.000722645
0.000724947
0.000727425
0.000730034
0.000732736
0.000735496
0.000738286
0.000741077
0.000743848
0.000746578
0.000749251
0.00075185
0.000754365
0.000756784
0.0007591
0.000761306
0.000763397
0.00076537
0.000767222
0.000768954
0.000770565
0.000772057
0.000773432
0.000774694
0.000775846
0.000776892
0.000777838
0.000778689
0.000779451
0.000780132
0.00078074
0.000781282
0.00078177
0.000782213
0.000782623
0.000783011
0.00078339
0.000783774
0.000784176
0.000784614
0.000785106
0.000785669
0.000786326
0.000787099
0.000788011
0.000789088
0.000790355
0.00079184
0.000793567
0.000795564
0.000797853
0.000800456
0.000803389
0.000806665
0.000810288
0.000814256
0.000818559
0.000823177
0.000828079
0.000833227
0.000838571
0.000844057
0.000849621
0.000855194
0.000860707
0.000866088
0.000871268
0.000876181
0.000880766
0.00088497
0.000888748
0.000892062
0.000894883
0.000897193
0.000898983
0.000900272
0.000901166
6.08473e-05
0.000457386
0.00082141
0.00108169
0.00128685
0.00146674
0.0016356
0.00179954
0.00196097
0.00212059
0.00227844
0.00243424
0.00258765
0.0027383
0.00288581
0.00302983
0.00317003
0.00330609
0.00343774
0.00356472
0.00368681
0.00380384
0.00391562
0.00402204
0.00412297
0.00421835
0.00430812
0.00439225
0.00447073
0.00454358
0.00461084
0.00467253
0.00472874
0.00477953
0.00482498
0.00486518
0.00490023
0.00493024
0.00495531
0.00497554
0.00499104
0.00500192
0.00500829
0.00501024
0.00500787
0.00500128
0.00499057
0.00497582
0.00495711
0.00493452
0.00490814
0.00487804
0.00484427
0.0048069
0.00476598
0.00472154
0.00467362
0.00462222
0.00456734
0.00450896
0.00444706
0.00438159
0.0043125
0.00423964
0.00416311
0.00408324
0.00400022
0.00391415
0.00382501
0.00373322
0.00363883
0.0035419
0.00344255
0.00334086
0.00323695
0.0031309
0.00302307
0.00291381
0.00280334
0.00269189
0.00257981
0.00246761
0.00235572
0.00224459
0.00213471
0.00202663
0.00192085
0.00181787
0.00171818
0.00162224
0.00153046
0.00144319
0.00136074
0.00128335
0.00121119
0.00114437
0.00108293
0.00102684
0.000976001
0.000930272
0.000889454
0.000853305
0.000821552
0.000793896
0.000770025
0.00074962
0.000732362
0.000717942
0.000706063
0.000696445
0.000688825
0.000682961
0.000678632
0.000675636
0.000673793
0.000672941
0.000672937
0.000673653
0.000674979
0.000676817
0.00067908
0.000681696
0.000684597
0.000687728
0.00069104
0.000694488
0.000698036
0.000701649
0.0007053
0.000708961
0.000712611
0.00071623
0.0007198
0.000723306
0.000726735
0.000730076
0.000733319
0.000736456
0.00073948
0.000742386
0.000745171
0.000747832
0.000750367
0.000752775
0.000755058
0.000757217
0.000759254
0.000761172
0.000762974
0.000764664
0.000766249
0.000767733
0.000769126
0.000770436
0.000771673
0.000772848
0.000773971
0.000775054
0.000776109
0.000777149