/*--------------------------------*- C++ -*----------------------------------*\
  =========                 |
  \\      /  F ield         | OpenFOAM: The Open Source CFD Toolbox
   \\    /   O peration     | Website:  https://openfoam.org
    \\  /    A nd           | Version:  7
     \\/     M anipulation  |
\*---------------------------------------------------------------------------*/
FoamFile
{
    version     2.0;
    format      ascii;
    class       volScalarField;
    location    "250";
    object      p;
}
// * * * * * * * * * * * * * * * * * * * * * * * * * * * * * * * * * * * * * //

dimensions      [0 2 -2 0 0 0 0];

internalField   nonuniform List<scalar> 
16900
(
-23.8585
-23.8832
-23.9131
-23.9505
-24.0196
-24.1226
-24.2493
-24.3969
-24.5621
-24.7414
-24.9316
-25.1295
-25.3325
-25.5382
-25.7448
-25.9507
-26.1548
-26.3561
-26.554
-26.7481
-26.9384
-27.1247
-27.3072
-27.486
-27.6612
-27.8332
-28.0021
-28.1683
-28.3321
-28.4938
-28.6537
-28.8119
-28.9687
-29.1243
-29.2787
-29.4321
-29.5844
-29.7357
-29.8858
-30.0345
-30.1816
-30.3267
-30.4695
-30.6093
-30.7457
-30.8778
-31.0048
-31.1258
-31.2397
-31.3452
-31.4409
-31.5254
-31.5969
-31.6538
-31.6939
-31.7151
-31.7154
-31.6923
-31.6435
-31.5661
-31.4575
-31.315
-31.1362
-30.9187
-30.6598
-30.3558
-30.0034
-29.5999
-29.1434
-28.6322
-28.0649
-27.4405
-26.7583
-26.0185
-25.2214
-24.3684
-23.4613
-22.503
-21.4969
-20.4473
-19.3594
-18.2391
-17.093
-15.9284
-14.753
-13.5749
-12.4026
-11.2444
-10.1086
-9.00316
-7.93546
-6.91238
-5.93999
-5.02341
-4.16664
-3.37243
-2.64243
-1.97748
-1.37818
-0.844731
-0.376737
0.0277489
0.377871
0.686431
0.951042
1.16501
1.33265
1.45924
1.54979
1.6089
1.64078
1.64932
1.63805
1.61023
1.56876
1.51631
1.45523
1.3876
1.31527
1.23985
1.16272
1.08507
1.0079
0.932065
0.858247
0.787014
0.718806
0.65397
0.592749
0.535319
0.481777
0.432171
0.386488
0.344683
0.306664
0.272322
0.241513
0.214085
0.189862
0.168667
0.150307
0.134595
0.121332
0.110331
0.101397
0.0943488
0.0890024
0.0851872
0.082734
0.0814869
0.0812927
0.0820123
0.0835094
0.0856618
0.0883508
0.0914706
0.094919
0.0986062
0.102445
0.106362
0.110282
0.114145
0.11789
0.121468
0.124829
0.127935
0.130747
0.133235
0.135368
0.137125
0.138484
0.139429
0.139947
0.140029
0.139668
0.13886
0.137604
0.135903
0.133761
0.131185
0.128185
0.124772
0.120958
0.11676
0.112191
0.10727
0.102014
0.0964415
0.090571
0.0844221
0.0780121
0.0713598
0.0644804
0.0573887
0.0500928
0.0425947
0.0348767
0.0268932
0.0184657
0.00998144
-23.8267
-23.8548
-23.8702
-23.9035
-23.9715
-24.0689
-24.1904
-24.3338
-24.4954
-24.6717
-24.8593
-25.0551
-25.2563
-25.4605
-25.6659
-25.8708
-26.074
-26.2745
-26.4718
-26.6654
-26.8552
-27.0411
-27.2232
-27.4016
-27.5766
-27.7482
-27.9169
-28.0829
-28.2465
-28.4081
-28.5678
-28.726
-28.8829
-29.0385
-29.1932
-29.3468
-29.4996
-29.6514
-29.8021
-29.9516
-30.0997
-30.246
-30.3901
-30.5315
-30.6697
-30.8038
-30.9331
-31.0566
-31.1732
-31.2818
-31.381
-31.4692
-31.5449
-31.6062
-31.6511
-31.6777
-31.6836
-31.6666
-31.6242
-31.5538
-31.4525
-31.3179
-31.1475
-30.9392
-30.69
-30.3957
-30.0531
-29.6598
-29.214
-28.7138
-28.158
-27.5455
-26.8755
-26.1481
-25.3636
-24.5233
-23.6289
-22.6831
-21.6892
-20.6515
-19.5749
-18.4654
-17.3292
-16.1735
-15.006
-13.8346
-12.6677
-11.5136
-10.3804
-9.27622
-8.20841
-7.18378
-6.20833
-5.28712
-4.42429
-3.62309
-2.88606
-2.21464
-1.6093
-1.06795
-0.586302
-0.161011
0.208328
0.524392
0.790905
1.00919
1.18297
1.31677
1.41509
1.48217
1.52204
1.53843
1.53479
1.5143
1.47985
1.43406
1.37927
1.31758
1.25081
1.18059
1.10831
1.03517
0.962199
0.890242
0.820015
0.752096
0.686947
0.624923
0.566291
0.511237
0.459878
0.41227
0.368418
0.328285
0.291798
0.25885
0.229316
0.203047
0.179881
0.159645
0.142158
0.127235
0.114691
0.104337
0.0959905
0.0894702
0.0846015
0.0812146
0.0791478
0.0782457
0.078362
0.0793574
0.0811021
0.0834732
0.0863577
0.0896492
0.0932504
0.0970708
0.101028
0.105046
0.109056
0.112995
0.116807
0.120441
0.123851
0.126997
0.129843
0.132357
0.134514
0.136288
0.137661
0.138616
0.139142
0.139229
0.13887
0.138063
0.136808
0.135106
0.132963
0.130385
0.127384
0.123969
0.120155
0.115956
0.111388
0.106468
0.101215
0.0956457
0.0897804
0.0836369
0.0772347
0.0705906
0.0637221
0.0566428
0.0493644
0.0418905
0.0342148
0.0263172
0.0180888
0.0104266
-23.7845
-23.8383
-23.8647
-23.8995
-23.9649
-24.0584
-24.1758
-24.3143
-24.4708
-24.6417
-24.8241
-25.0147
-25.2111
-25.4108
-25.612
-25.8131
-26.013
-26.2105
-26.4052
-26.5965
-26.7843
-26.9684
-27.149
-27.3261
-27.4999
-27.6707
-27.8387
-28.0041
-28.1674
-28.3286
-28.4882
-28.6464
-28.8034
-28.9593
-29.1143
-29.2686
-29.422
-29.5747
-29.7265
-29.8772
-30.0267
-30.1746
-30.3206
-30.4641
-30.6046
-30.7413
-30.8735
-31.0002
-31.1204
-31.2329
-31.3363
-31.4292
-31.5099
-31.5766
-31.6274
-31.6603
-31.6729
-31.6631
-31.6284
-31.566
-31.4732
-31.3474
-31.1864
-30.988
-30.7488
-30.4645
-30.1319
-29.749
-29.3138
-28.8245
-28.2797
-27.6783
-27.0195
-26.3031
-25.5296
-24.6999
-23.8158
-22.8799
-21.8954
-20.8665
-19.7979
-18.6955
-17.5657
-16.4154
-15.2523
-14.0843
-12.9198
-11.7671
-10.6345
-9.52984
-8.46074
-7.43393
-6.45559
-5.53093
-4.66462
-3.86039
-3.1213
-2.44789
-1.83955
-1.29092
-0.79944
-0.366002
0.0132247
0.341308
0.619557
0.849431
1.03447
1.17896
1.28729
1.3637
1.41225
1.43669
1.44054
1.42701
1.39903
1.35925
1.31005
1.25356
1.19162
1.12589
1.05779
0.988522
0.919142
0.850524
0.783394
0.718349
0.655862
0.596309
0.539966
0.487033
0.437637
0.391847
0.349677
0.311101
0.276052
0.244436
0.216129
0.190994
0.168873
0.1496
0.133
0.118893
0.107097
0.0974308
0.0897134
0.0837692
0.0794261
0.0765191
0.0748885
0.0743834
0.074859
0.0761802
0.0782183
0.0808544
0.0839762
0.0874808
0.0912719
0.0952616
0.0993684
0.103519
0.107645
0.111686
0.115586
0.119296
0.122771
0.125972
0.128864
0.131417
0.133604
0.135402
0.136794
0.137762
0.138296
0.138387
0.13803
0.13722
0.13596
0.134251
0.132099
0.129511
0.126498
0.123072
0.119246
0.115035
0.110456
0.105525
0.100262
0.0946837
0.0888107
0.082661
0.0762541
0.0696076
0.0627396
0.0556652
0.048399
0.0409516
0.0333313
0.0255574
0.0175998
0.0108621
-23.7533
-23.8261
-23.8744
-23.9202
-23.9888
-24.0821
-24.1975
-24.3327
-24.4847
-24.6506
-24.8275
-25.0126
-25.2034
-25.3978
-25.594
-25.7905
-25.986
-26.1796
-26.3706
-26.5587
-26.7436
-26.9253
-27.1036
-27.2788
-27.4509
-27.6203
-27.7871
-27.9517
-28.1142
-28.275
-28.4343
-28.5924
-28.7494
-28.9056
-29.061
-29.2159
-29.3701
-29.5238
-29.6768
-29.829
-29.9801
-30.1299
-30.278
-30.4239
-30.5671
-30.7068
-30.8423
-30.9726
-31.0968
-31.2136
-31.3218
-31.4198
-31.506
-31.5787
-31.6359
-31.6756
-31.6954
-31.6932
-31.6665
-31.6125
-31.5284
-31.4116
-31.2601
-31.0714
-30.8417
-30.5666
-30.2432
-29.8696
-29.4439
-28.9641
-28.4288
-27.8366
-27.1869
-26.4792
-25.714
-24.892
-24.015
-23.0854
-22.1064
-21.0821
-20.0172
-18.9174
-17.7892
-16.6396
-15.4761
-14.307
-13.1404
-11.9848
-10.8487
-9.73977
-8.66595
-7.63404
-6.65081
-5.72185
-4.85223
-4.045
-3.30222
-2.62111
-2.00076
-1.44193
-0.942579
-0.501569
-0.115419
0.218715
0.502425
0.737866
0.928551
1.07861
1.19235
1.27396
1.32746
1.35664
1.365
1.35578
1.33191
1.29605
1.2506
1.19767
1.13914
1.07664
1.01162
0.945278
0.878679
0.812696
0.748066
0.685385
0.625138
0.567699
0.513354
0.462305
0.414687
0.37057
0.329976
0.29288
0.259221
0.228908
0.201824
0.177832
0.15678
0.138505
0.122835
0.109593
0.0986008
0.0896791
0.0826518
0.0773442
0.073589
0.0712218
0.0700877
0.0700363
0.0709276
0.0726266
0.0750093
0.0779567
0.0813611
0.0851194
0.0891393
0.0933329
0.0976225
0.101934
0.106204
0.11037
0.114381
0.118186
0.121744
0.125015
0.127967
0.130569
0.132796
0.134626
0.136043
0.137029
0.137576
0.137673
0.137318
0.136506
0.13524
0.133521
0.131358
0.128757
0.125729
0.122286
0.118443
0.114214
0.109618
0.10467
0.0993902
0.0937962
0.0879092
0.0817459
0.0753284
0.0686725
0.0617995
0.054724
0.0474663
0.0400421
0.0324761
0.0248204
0.017097
0.0110441
-23.7364
-23.8239
-23.8939
-23.9525
-24.0274
-24.1234
-24.2392
-24.3728
-24.5219
-24.6839
-24.8561
-25.0361
-25.2218
-25.411
-25.6021
-25.7937
-25.9846
-26.1739
-26.3611
-26.5456
-26.7274
-26.9061
-27.082
-27.255
-27.4253
-27.5932
-27.7588
-27.9223
-28.0842
-28.2445
-28.4036
-28.5617
-28.719
-28.8756
-29.0317
-29.1875
-29.3428
-29.4978
-29.6523
-29.8063
-29.9594
-30.1114
-30.262
-30.4106
-30.5568
-30.6998
-30.8389
-30.9732
-31.1016
-31.223
-31.3361
-31.4394
-31.5314
-31.6101
-31.6738
-31.7202
-31.7472
-31.7525
-31.7335
-31.6875
-31.6117
-31.5035
-31.3608
-31.181
-30.9596
-30.6925
-30.3773
-30.012
-29.5946
-29.1231
-28.5959
-28.0117
-27.3695
-26.669
-25.9103
-25.0943
-24.2225
-23.2973
-22.3219
-21.3001
-20.2367
-19.1376
-18.0091
-16.8581
-15.6924
-14.5203
-13.3498
-12.1897
-11.0486
-9.93423
-8.85505
-7.81806
-6.83062
-5.89793
-5.02419
-4.21017
-3.45597
-2.76399
-2.13513
-1.56869
-1.06273
-0.615603
-0.224354
0.113791
0.401062
0.640184
0.83473
0.988755
1.10646
1.192
1.24937
1.28231
1.29434
1.28868
1.26827
1.23577
1.19355
1.14375
1.08824
1.02865
0.96642
0.902764
0.838732
0.775207
0.712924
0.652483
0.594369
0.538961
0.486546
0.437331
0.391451
0.348982
0.309947
0.274325
0.242059
0.21306
0.187214
0.164386
0.144428
0.127179
0.11247
0.100126
0.0899716
0.0818303
0.0755278
0.0708928
0.0677594
0.0659665
0.0653611
0.0657958
0.0671321
0.0692383
0.0719918
0.0752765
0.0789863
0.0830207
0.0872889
0.0917053
0.0961937
0.100682
0.105108
0.109413
0.113544
0.117453
0.121102
0.12445
0.127466
0.130122
0.132393
0.134258
0.1357
0.136705
0.137263
0.137365
0.137009
0.136192
0.134916
0.133183
0.131003
0.128381
0.125332
0.121864
0.117996
0.11374
0.109117
0.104142
0.0988353
0.0932148
0.0873023
0.0811146
0.0746742
0.0679976
0.0611071
0.0540189
0.0467567
0.0393417
0.0318098
0.0242353
0.0166538
0.0109802
-23.7395
-23.8403
-23.9259
-23.9951
-24.0763
-24.1754
-24.2921
-24.4249
-24.5717
-24.7302
-24.8982
-25.0736
-25.2542
-25.4383
-25.6243
-25.811
-25.9972
-26.1822
-26.3653
-26.5462
-26.7246
-26.9004
-27.0736
-27.2444
-27.4128
-27.5791
-27.7435
-27.9061
-28.0673
-28.2273
-28.3864
-28.5446
-28.7023
-28.8596
-29.0166
-29.1735
-29.3302
-29.4868
-29.6432
-29.7992
-29.9546
-30.1092
-30.2626
-30.4143
-30.5638
-30.7105
-30.8535
-30.992
-31.125
-31.2513
-31.3697
-31.4786
-31.5764
-31.6615
-31.7317
-31.7851
-31.8194
-31.8322
-31.821
-31.7831
-31.7155
-31.6157
-31.4818
-31.3106
-31.097
-30.8373
-30.5298
-30.1724
-29.7629
-29.2992
-28.7796
-28.2027
-27.5674
-26.8734
-26.1206
-25.3097
-24.4422
-23.5205
-22.5477
-21.5275
-20.4647
-19.3652
-18.2354
-17.082
-15.9131
-14.7371
-13.5618
-12.3964
-11.2501
-10.1303
-9.04647
-8.00504
-7.01297
-6.07392
-5.18944
-4.36467
-3.60219
-2.90292
-2.26719
-1.6943
-1.18255
-0.730054
-0.334165
0.00785034
0.298641
0.541284
0.739445
0.897156
1.01858
1.10782
1.16884
1.20539
1.22097
1.21878
1.20177
1.17259
1.13361
1.08696
1.0345
0.977874
0.918497
0.857597
0.796219
0.735243
0.675406
0.617307
0.561434
0.508166
0.457793
0.410523
0.366495
0.325786
0.288423
0.254386
0.223622
0.196042
0.171538
0.149975
0.131209
0.11508
0.101422
0.0900618
0.0808282
0.0735446
0.0680414
0.0641474
0.0617015
0.0605432
0.0605236
0.0614961
0.0633267
0.065884
0.0690501
0.072709
0.0767591
0.0811
0.0856452
0.0903091
0.0950196
0.099705
0.104306
0.108763
0.11303
0.117056
0.120805
0.124239
0.127329
0.130044
0.132365
0.134268
0.13574
0.136765
0.137337
0.137445
0.137088
0.136264
0.134977
0.133227
0.131027
0.128381
0.125304
0.121807
0.117908
0.113619
0.108962
0.103952
0.0986111
0.0929552
0.0870088
0.0807867
0.0743142
0.0676061
0.0606879
0.0535748
0.0462954
0.0388723
0.0313493
0.0238092
0.01627
0.010707
-23.7684
-23.8752
-23.9692
-24.0458
-24.1316
-24.2331
-24.3503
-24.482
-24.6265
-24.7818
-24.9459
-25.1166
-25.2925
-25.4716
-25.6528
-25.8346
-26.0163
-26.197
-26.3761
-26.5533
-26.7284
-26.9013
-27.0719
-27.2405
-27.4071
-27.5719
-27.7352
-27.897
-28.0578
-28.2176
-28.3767
-28.5353
-28.6937
-28.8519
-29.01
-29.1683
-29.3267
-29.4851
-29.6436
-29.802
-29.96
-30.1175
-30.274
-30.4291
-30.5823
-30.7329
-30.8801
-31.0232
-31.161
-31.2925
-31.4163
-31.531
-31.635
-31.7265
-31.8036
-31.8641
-31.9057
-31.9262
-31.9228
-31.8929
-31.8334
-31.7422
-31.6169
-31.4539
-31.2476
-30.9951
-30.6952
-30.3454
-29.9435
-29.4874
-28.9751
-28.4051
-27.7764
-27.0884
-26.341
-25.5348
-24.6711
-23.7524
-22.7817
-21.7628
-20.7
-19.5995
-18.468
-17.3118
-16.139
-14.9589
-13.7787
-12.6082
-11.4577
-10.333
-9.2444
-8.19676
-7.19434
-6.2452
-5.35279
-4.52059
-3.75102
-3.04516
-2.40321
-1.8245
-1.3075
-0.850195
-0.450053
-0.104299
0.189983
0.436101
0.637808
0.79914
0.924233
1.01717
1.0819
1.12215
1.14139
1.14283
1.1294
1.10373
1.0682
1.02492
0.975747
0.922309
0.866027
0.80812
0.74963
0.691435
0.634271
0.578738
0.525322
0.474405
0.426278
0.381151
0.339164
0.300398
0.264882
0.232599
0.203497
0.177491
0.154474
0.134315
0.116872
0.101987
0.0894968
0.079231
0.0710201
0.0646907
0.0600754
0.057006
0.0553237
0.0548711
0.0555019
0.0570724
0.0594512
0.0625101
0.0661332
0.0702079
0.0746346
0.079316
0.0841675
0.0891061
0.0940619
0.0989655
0.10376
0.108387
0.112802
0.116958
0.120819
0.124348
0.127518
0.130301
0.132676
0.134622
0.136127
0.137175
0.137762
0.137876
0.137519
0.136687
0.135387
0.133619
0.131396
0.128722
0.125615
0.122084
0.118148
0.113821
0.109124
0.104072
0.0986892
0.0929905
0.0870013
0.0807364
0.074222
0.0674729
0.0605159
0.0533667
0.0460558
0.0386072
0.0310658
0.0235148
0.0159329
0.010277
-23.8173
-23.9234
-24.0198
-24.1006
-24.1891
-24.2916
-24.4085
-24.5387
-24.6808
-24.8328
-24.9928
-25.1593
-25.3305
-25.5049
-25.6814
-25.8587
-26.036
-26.2125
-26.3878
-26.5616
-26.7336
-26.9037
-27.0721
-27.2387
-27.4037
-27.5672
-27.7295
-27.8908
-28.0513
-28.2111
-28.3706
-28.5298
-28.6891
-28.8484
-29.008
-29.168
-29.3282
-29.4889
-29.6498
-29.8108
-29.9717
-30.1324
-30.2923
-30.451
-30.6081
-30.7629
-30.9146
-31.0624
-31.2053
-31.3422
-31.4716
-31.5923
-31.7026
-31.8007
-31.8846
-31.9522
-32.0013
-32.0293
-32.0338
-32.0118
-31.9605
-31.8776
-31.7607
-31.6054
-31.4061
-31.1607
-30.868
-30.5257
-30.1312
-29.6822
-29.1769
-28.6136
-27.9912
-27.3089
-26.5667
-25.7648
-24.9047
-23.9886
-23.0198
-22.0019
-20.9388
-19.837
-18.7037
-17.5446
-16.368
-15.1844
-14.0002
-12.8252
-11.6709
-10.5402
-9.44184
-8.38582
-7.3763
-6.41975
-5.52033
-4.68148
-3.90552
-3.19367
-2.54614
-1.96227
-1.44057
-0.978993
-0.574986
-0.225695
0.0719945
0.321554
0.52681
0.69181
0.820675
0.917466
0.9861
1.03028
1.05347
1.05884
1.04931
1.0275
0.995763
0.956202
0.910663
0.860766
0.807921
0.753341
0.698065
0.642967
0.58878
0.536104
0.485427
0.43713
0.391507
0.348767
0.309057
0.272457
0.239
0.208671
0.181422
0.157169
0.135811
0.117215
0.101246
0.0877451
0.0765555
0.0675064
0.0604337
0.0551641
0.0515358
0.0493811
0.0485467
0.0488759
0.050228
0.0524598
0.055446
0.0590585
0.0631875
0.0677203
0.0725633
0.0776192
0.0828087
0.0880491
0.0932753
0.0984181
0.103425
0.108239
0.112817
0.117114
0.121099
0.124732
0.127991
0.130846
0.133282
0.135275
0.136817
0.137891
0.138494
0.138616
0.138259
0.137419
0.136106
0.134317
0.132069
0.129364
0.126223
0.122653
0.118677
0.114304
0.109562
0.104462
0.0990302
0.0932803
0.0872408
0.0809237
0.0743588
0.0675584
0.0605529
0.0533554
0.0460002
0.0385083
0.0309243
0.0233233
0.0156349
0.00974968
-23.8781
-23.9788
-24.073
-24.1553
-24.2445
-24.3468
-24.4624
-24.5906
-24.7298
-24.8784
-25.0346
-25.1968
-25.3636
-25.5336
-25.7056
-25.8786
-26.0519
-26.2246
-26.3965
-26.5671
-26.7363
-26.9041
-27.0704
-27.2353
-27.399
-27.5615
-27.7232
-27.8842
-28.0447
-28.2049
-28.365
-28.5251
-28.6855
-28.8463
-29.0076
-29.1695
-29.332
-29.4951
-29.6587
-29.8226
-29.9867
-30.1507
-30.3143
-30.477
-30.6382
-30.7974
-30.9538
-31.1065
-31.2546
-31.3969
-31.5322
-31.6589
-31.7755
-31.8802
-31.971
-32.0458
-32.1021
-32.1378
-32.1499
-32.1357
-32.0923
-32.0176
-31.9089
-31.7606
-31.5677
-31.3291
-31.0436
-30.7084
-30.3209
-29.8789
-29.3803
-28.8233
-28.2068
-27.5299
-26.7926
-25.9948
-25.1378
-24.2241
-23.257
-22.2399
-21.1763
-20.0731
-18.9385
-17.7771
-16.5973
-15.4112
-14.2242
-13.0432
-11.8811
-10.7445
-9.64014
-8.5772
-7.5613
-6.59836
-5.69282
-4.84815
-4.0667
-3.34973
-2.69744
-2.10918
-1.58346
-1.11816
-0.710699
-0.358108
-0.0571251
0.195845
0.404687
0.573459
0.706264
0.807136
0.87996
0.928407
0.955904
0.965605
0.960392
0.942865
0.915361
0.879954
0.838479
0.792543
0.743545
0.69269
0.64101
0.589377
0.538521
0.48904
0.441423
0.396052
0.353223
0.313148
0.275977
0.24179
0.210626
0.182472
0.157284
0.13498
0.115463
0.0986033
0.084268
0.0723024
0.0625521
0.0548499
0.0490344
0.044936
0.042396
0.04125
0.0413484
0.042538
0.0446817
0.04764
0.0512911
0.0555107
0.0601921
0.0652262
0.0705227
0.0759876
0.0815445
0.0871135
0.0926328
0.0980357
0.103273
0.108288
0.113044
0.117494
0.12161
0.125356
0.128711
0.131645
0.134146
0.13619
0.137771
0.138873
0.139494
0.139623
0.139267
0.138418
0.137089
0.135278
0.133001
0.130263
0.127083
0.12347
0.119447
0.115025
0.11023
0.105075
0.0995866
0.0937783
0.0876796
0.0813022
0.0746771
0.0678163
0.0607516
0.0534953
0.0460828
0.0385326
0.0308852
0.0232053
0.0153699
0.00917821
-23.9436
-24.0357
-24.1247
-24.206
-24.2944
-24.3951
-24.5087
-24.6342
-24.7702
-24.9152
-25.0675
-25.2256
-25.3882
-25.5541
-25.722
-25.8912
-26.0608
-26.2302
-26.399
-26.5669
-26.7338
-26.8995
-27.0642
-27.2278
-27.3905
-27.5525
-27.7139
-27.8749
-28.0357
-28.1965
-28.3575
-28.5189
-28.6808
-28.8433
-29.0066
-29.1707
-29.3357
-29.5015
-29.668
-29.8351
-30.0027
-30.1703
-30.3377
-30.5045
-30.6701
-30.8338
-30.995
-31.1528
-31.3062
-31.4541
-31.5952
-31.728
-31.8509
-31.9622
-32.0598
-32.1415
-32.2051
-32.2481
-32.2677
-32.261
-32.2252
-32.1585
-32.0575
-31.9153
-31.7283
-31.4965
-31.2179
-30.8895
-30.5086
-30.0731
-29.5807
-29.0297
-28.4186
-27.7468
-27.014
-26.2197
-25.3654
-24.4537
-23.4881
-22.4719
-21.4078
-20.3037
-19.1688
-18.007
-16.8243
-15.6334
-14.4423
-13.2577
-12.0901
-10.9478
-9.83821
-8.76959
-7.74828
-6.78008
-5.86955
-5.0202
-4.23438
-3.51334
-2.85729
-2.26553
-1.73653
-1.26813
-0.857667
-0.502068
-0.197949
0.0583768
0.270839
0.443497
0.580432
0.685643
0.762973
0.81605
0.848261
0.86272
0.862274
0.849491
0.826679
0.795888
0.758933
0.717403
0.672686
0.625974
0.578296
0.530513
0.483358
0.437425
0.393205
0.351078
0.311347
0.274223
0.23986
0.208342
0.179713
0.15396
0.131047
0.110892
0.0934031
0.0784543
0.0659172
0.055638
0.0474693
0.0412438
0.0368073
0.0339904
0.0326416
0.032597
0.0337144
0.0358412
0.0388479
0.0425957
0.0469703
0.0518481
0.0571293
0.0627053
0.0684935
0.0743995
0.0803538
0.0862762
0.0921119
0.0977936
0.103278
0.10851
0.113455
0.118069
0.122327
0.126193
0.12965
0.132668
0.135238
0.137336
0.138959
0.140089
0.14073
0.140866
0.14051
0.139651
0.138305
0.136468
0.13416
0.131383
0.128162
0.1245
0.120426
0.115947
0.111094
0.105875
0.100323
0.0944473
0.0882818
0.0818345
0.075141
0.0682097
0.0610769
0.0537509
0.0462705
0.0386483
0.0309222
0.0231431
0.0151392
0.00861077
-24.008
-24.0897
-24.171
-24.2495
-24.3356
-24.4339
-24.5446
-24.667
-24.7995
-24.9408
-25.0892
-25.2434
-25.4021
-25.5642
-25.7285
-25.8942
-26.0607
-26.2272
-26.3934
-26.5591
-26.7241
-26.8883
-27.0517
-27.2145
-27.3766
-27.5384
-27.6998
-27.8612
-28.0227
-28.1845
-28.3467
-28.5096
-28.6732
-28.8378
-29.0033
-29.1699
-29.3376
-29.5064
-29.6761
-29.8467
-30.0178
-30.1893
-30.3608
-30.5318
-30.7018
-30.8703
-31.0364
-31.1993
-31.3581
-31.5116
-31.6585
-31.7973
-31.9265
-32.0442
-32.1484
-32.2369
-32.3075
-32.3576
-32.3844
-32.3848
-32.3564
-32.2973
-32.203
-32.0663
-31.8851
-31.6597
-31.3874
-31.0653
-30.6906
-30.2609
-29.7742
-29.2285
-28.6223
-27.9549
-27.2261
-26.4349
-25.5829
-24.673
-23.7092
-22.6953
-21.6327
-20.5278
-19.391
-18.228
-17.0442
-15.8502
-14.655
-13.4666
-12.2947
-11.1477
-10.0339
-8.96087
-7.93542
-6.9633
-6.04912
-5.1964
-4.40747
-3.68356
-3.02484
-2.43054
-1.8991
-1.42827
-1.01531
-0.657053
-0.35001
-0.0904274
0.125653
0.302283
0.443514
0.553299
0.63543
0.693483
0.730792
0.750423
0.755178
0.747583
0.729913
0.704187
0.672197
0.635509
0.595496
0.553339
0.510056
0.466505
0.423414
0.381376
0.340882
0.302315
0.265979
0.232088
0.200801
0.172204
0.146346
0.123219
0.102789
0.0849796
0.0697032
0.0568369
0.046257
0.0378132
0.0313624
0.0267411
0.0237995
0.0223719
0.0223115
0.0234583
0.0256752
0.0288135
0.0327492
0.0373471
0.0424984
0.0480834
0.0540067
0.0601634
0.0664766
0.0728544
0.0792317
0.0855311
0.0917024
0.0976811
0.103428
0.108888
0.114034
0.11882
0.123228
0.127219
0.130783
0.133889
0.136531
0.138685
0.140352
0.141511
0.14217
0.142314
0.141955
0.141084
0.139718
0.137852
0.13551
0.13269
0.129421
0.125705
0.121572
0.11703
0.112111
0.106822
0.101198
0.0952472
0.0890057
0.0824806
0.0757095
0.0686997
0.0614893
0.054085
0.0465268
0.0388231
0.0310069
0.0231183
0.0149409
0.00808199
-24.0669
-24.1369
-24.2092
-24.2833
-24.3661
-24.4611
-24.5684
-24.6872
-24.816
-24.9535
-25.0982
-25.2487
-25.4039
-25.5625
-25.7236
-25.8864
-26.0501
-26.2143
-26.3785
-26.5424
-26.706
-26.8691
-27.0318
-27.1942
-27.3562
-27.5181
-27.68
-27.8421
-28.0046
-28.1676
-28.3314
-28.496
-28.6617
-28.8285
-28.9966
-29.166
-29.3366
-29.5086
-29.6817
-29.8558
-30.0308
-30.2063
-30.382
-30.5574
-30.732
-30.9053
-31.0764
-31.2445
-31.4086
-31.5676
-31.7202
-31.865
-32.0003
-32.1243
-32.2349
-32.3301
-32.4073
-32.4641
-32.4976
-32.5048
-32.4835
-32.4314
-32.3426
-32.2108
-32.0351
-31.8155
-31.5491
-31.2327
-30.8633
-30.4389
-29.9571
-29.416
-28.8141
-28.1508
-27.4262
-26.6393
-25.7903
-24.8826
-23.9203
-22.9074
-21.8466
-20.7426
-19.6046
-18.4395
-17.2539
-16.0574
-14.859
-13.6674
-12.4922
-11.3419
-10.2249
-9.14899
-8.12082
-7.14624
-6.22986
-5.37518
-4.58449
-3.85896
-3.1987
-2.60287
-2.06984
-1.59727
-1.18234
-0.821795
-0.512068
-0.249354
-0.0296844
0.150975
0.296636
0.411194
0.498382
0.561711
0.604454
0.629618
0.639953
0.637937
0.625805
0.60554
0.578906
0.547444
0.512512
0.475274
0.43674
0.39776
0.35906
0.321229
0.284762
0.250038
0.217369
0.186968
0.159001
0.133556
0.110689
0.090392
0.0726405
0.0573584
0.044466
0.0338407
0.0253676
0.0188965
0.014293
0.0113933
0.0100568
0.0101177
0.0114384
0.0138592
0.0172526
0.0214704
0.0263984
0.0319015
0.0378807
0.0442171
0.050823
0.0575945
0.0644655
0.0713424
0.0781684
0.0848656
0.0913922
0.0976828
0.103706
0.109406
0.114762
0.119728
0.124292
0.128415
0.132091
0.135287
0.138004
0.140215
0.141926
0.143114
0.143792
0.143941
0.143579
0.142692
0.141304
0.139405
0.137024
0.134156
0.130834
0.127056
0.12286
0.118247
0.113255
0.107887
0.102184
0.0961491
0.0898246
0.0832128
0.076357
0.0692598
0.0619651
0.054474
0.0468311
0.0390377
0.0311254
0.0231225
0.0147775
0.0076173
-24.1167
-24.1746
-24.2372
-24.3058
-24.3845
-24.4755
-24.5789
-24.6938
-24.8188
-24.9526
-25.0937
-25.2408
-25.3927
-25.5483
-25.7068
-25.8671
-26.0287
-26.1911
-26.3538
-26.5165
-26.6792
-26.8417
-27.0041
-27.1664
-27.3287
-27.4911
-27.6538
-27.817
-27.9807
-28.1453
-28.3109
-28.4776
-28.6455
-28.8148
-28.9856
-29.158
-29.3318
-29.5071
-29.6838
-29.8617
-30.0407
-30.2203
-30.4003
-30.5802
-30.7596
-30.9376
-31.1137
-31.287
-31.4564
-31.6209
-31.7792
-31.9298
-32.071
-32.201
-32.3178
-32.4192
-32.5027
-32.5659
-32.6056
-32.6191
-32.6044
-32.5586
-32.4741
-32.3464
-32.176
-31.9617
-31.7006
-31.3898
-31.0259
-30.6065
-30.1296
-29.5931
-28.9954
-28.3359
-27.6148
-26.8318
-25.9864
-25.0815
-24.1207
-23.1081
-22.0474
-20.9437
-19.8048
-18.6379
-17.4507
-16.2522
-15.0515
-13.8578
-12.6804
-11.5281
-10.4094
-9.33192
-8.30254
-7.32701
-6.40993
-5.55474
-4.76365
-4.03777
-3.37711
-2.78076
-2.24697
-1.77335
-1.35698
-0.994521
-0.682362
-0.416664
-0.193458
-0.00874335
0.14144
0.260924
0.353369
0.422213
0.470659
0.501648
0.517869
0.521749
0.515476
0.500993
0.480034
0.454114
0.424571
0.392552
0.359059
0.324933
0.290896
0.257535
0.225345
0.194708
0.165936
0.139247
0.114811
0.0927187
0.073032
0.0557461
0.0408424
0.0282483
0.0178895
0.00964715
0.00341171
-0.000963311
-0.00360688
-0.00467898
-0.00431468
-0.00267576
0.000106127
0.00387555
0.00851146
0.0138696
0.0198428
0.0262996
0.0331487
0.0402767
0.0475991
0.0550179
0.0624744
0.0698762
0.0771719
0.0842859
0.0911821
0.0977974
0.104106
0.110054
0.115626
0.120778
0.125503
0.12976
0.13355
0.136839
0.139632
0.1419
0.143655
0.144872
0.145566
0.145718
0.145349
0.144444
0.143029
0.141093
0.138667
0.135746
0.132365
0.12852
0.124252
0.119561
0.114488
0.109035
0.103244
0.0971192
0.0907037
0.0839988
0.0770509
0.0698605
0.0624745
0.0548913
0.0471576
0.0392703
0.0312587
0.023144
0.0146454
0.00722981
-24.1555
-24.2014
-24.2538
-24.3161
-24.3899
-24.4765
-24.5757
-24.6865
-24.8077
-24.9378
-25.0755
-25.2196
-25.3687
-25.5219
-25.6781
-25.8366
-25.9966
-26.1577
-26.3194
-26.4814
-26.6436
-26.8059
-26.9684
-27.131
-27.2939
-27.4572
-27.6209
-27.7854
-27.9508
-28.1171
-28.2847
-28.4536
-28.624
-28.7961
-28.9698
-29.1453
-29.3224
-29.5013
-29.6817
-29.8636
-30.0466
-30.2305
-30.4149
-30.5995
-30.7835
-30.9665
-31.1476
-31.326
-31.5007
-31.6707
-31.8345
-31.9907
-32.1377
-32.2735
-32.3963
-32.5036
-32.5932
-32.6623
-32.708
-32.7275
-32.7191
-32.6785
-32.5978
-32.4742
-32.3089
-32.0996
-31.8435
-31.5377
-31.1791
-30.7646
-30.2924
-29.7602
-29.1667
-28.5108
-27.7925
-27.0117
-26.1687
-25.2657
-24.306
-23.2936
-22.2327
-21.1287
-19.989
-18.821
-17.6325
-16.4327
-15.2307
-14.0359
-12.8575
-11.7045
-10.5854
-9.50797
-8.4789
-7.50395
-6.58766
-5.73339
-4.94325
-4.21825
-3.55829
-2.96235
-2.42861
-1.95457
-1.53724
-1.17323
-0.858871
-0.590327
-0.363642
-0.174861
-0.0200866
0.104435
0.202287
0.276824
0.331173
0.3682
0.390532
0.400536
0.400353
0.391884
0.37683
0.356677
0.332745
0.306161
0.277922
0.248854
0.219682
0.190984
0.163262
0.136892
0.112195
0.0893864
0.0686459
0.0500628
0.0337081
0.0195761
0.0076584
-0.00211892
-0.00981968
-0.0155643
-0.0194516
-0.0216296
-0.0222164
-0.0213738
-0.0192253
-0.0159343
-0.0116206
-0.00644098
-0.000504466
0.00604299
0.0131076
0.0205578
0.0283186
0.0362779
0.0443678
0.0524754
0.0605398
0.0684764
0.07625
0.0837849
0.0910565
0.0979999
0.104601
0.110804
0.116604
0.121951
0.126842
0.131236
0.135141
0.138523
0.141393
0.143718
0.145517
0.14676
0.14747
0.147622
0.147244
0.146317
0.144872
0.142893
0.140418
0.137437
0.133991
0.130072
0.125727
0.12095
0.115791
0.110244
0.10436
0.0981371
0.0916255
0.0848205
0.0777759
0.0704861
0.063005
0.0553243
0.047497
0.0395122
0.0314018
0.0231792
0.0145448
0.00692348
-24.182
-24.2162
-24.2584
-24.3138
-24.3823
-24.4642
-24.559
-24.6658
-24.7831
-24.9098
-25.0444
-25.1857
-25.3324
-25.4835
-25.6379
-25.795
-25.9539
-26.1141
-26.2752
-26.4368
-26.599
-26.7615
-26.9244
-27.0877
-27.2514
-27.4158
-27.5808
-27.7469
-27.914
-28.0823
-28.2521
-28.4235
-28.5966
-28.7715
-28.9483
-29.1271
-29.3078
-29.4903
-29.6747
-29.8606
-30.0479
-30.2362
-30.4253
-30.6145
-30.8034
-30.9913
-31.1775
-31.3612
-31.5412
-31.7166
-31.8859
-32.0478
-32.2005
-32.3421
-32.4707
-32.5838
-32.6792
-32.7541
-32.8054
-32.8309
-32.8284
-32.7919
-32.7145
-32.5954
-32.435
-32.2306
-31.979
-31.6775
-31.3231
-30.9127
-30.4442
-29.9156
-29.3253
-28.6722
-27.956
-27.1768
-26.3351
-25.4332
-24.4741
-23.4617
-22.4005
-21.2962
-20.1558
-18.987
-17.7978
-16.5974
-15.395
-14.2
-13.0219
-11.8696
-10.7516
-9.67563
-8.64838
-7.67551
-6.76147
-5.9095
-5.12161
-4.39865
-3.74041
-3.14578
-2.61281
-2.13893
-1.72109
-1.35584
-1.03951
-0.76825
-0.538147
-0.345306
-0.185904
-0.0562719
0.0470848
0.127431
0.187812
0.231015
0.259601
0.275874
0.281928
0.279617
0.270612
0.256367
0.238184
0.217174
0.194321
0.170446
0.146267
0.122362
0.0992311
0.077253
0.0567513
0.0379431
0.0210127
0.00605191
-0.00686281
-0.0177345
-0.0265657
-0.0334279
-0.0383789
-0.0415364
-0.0429931
-0.0428944
-0.041352
-0.0385248
-0.0345296
-0.0295267
-0.0236291
-0.0169909
-0.00971352
-0.00193693
0.00626478
0.014774
0.0235034
0.0323224
0.0411769
0.0499655
0.0586427
0.0671265
0.0753893
0.0833574
0.0910131
0.0982933
0.10519
0.11165
0.117672
0.123211
0.12827
0.132809
0.136838
0.140316
0.143262
0.145644
0.147483
0.148751
0.149473
0.149623
0.149232
0.148278
0.146798
0.144771
0.142242
0.139196
0.135679
0.13168
0.12725
0.122383
0.11713
0.111484
0.105502
0.0991757
0.0925624
0.0856538
0.0785078
0.0711158
0.0635357
0.0557555
0.047832
0.0397501
0.0315424
0.0232203
0.0144692
0.00669514
-24.1961
-24.2192
-24.2514
-24.2996
-24.3623
-24.4392
-24.5296
-24.6322
-24.7459
-24.8692
-25.001
-25.1397
-25.2843
-25.4337
-25.5867
-25.7427
-25.9009
-26.0606
-26.2214
-26.3831
-26.5454
-26.7084
-26.872
-27.0362
-27.201
-27.3666
-27.5332
-27.701
-27.87
-28.0405
-28.2127
-28.3866
-28.5625
-28.7405
-28.9206
-29.1028
-29.2872
-29.4737
-29.6621
-29.8523
-30.044
-30.237
-30.4307
-30.6248
-30.8187
-31.0117
-31.2032
-31.3921
-31.5776
-31.7585
-31.9334
-32.1008
-32.2592
-32.4066
-32.5408
-32.6597
-32.7607
-32.841
-32.8978
-32.9291
-32.9317
-32.8981
-32.8236
-32.7089
-32.553
-32.3527
-32.1052
-31.8074
-31.4563
-31.0491
-30.5836
-30.0576
-29.4695
-28.8183
-28.1035
-27.3253
-26.4844
-25.5829
-24.6238
-23.6111
-22.5494
-21.4447
-20.3039
-19.1346
-17.9454
-16.7451
-15.5433
-14.3493
-13.1727
-12.0224
-10.9069
-9.8338
-8.80983
-7.84048
-6.93009
-6.08173
-5.29728
-4.57743
-3.92186
-3.32932
-2.79777
-2.32456
-1.90659
-1.54038
-1.22225
-0.948383
-0.714918
-0.518032
-0.353986
-0.219209
-0.110298
-0.0240859
0.0423889
0.0918317
0.126735
0.149339
0.161689
0.165595
0.162694
0.154413
0.142035
0.126652
0.109243
0.090614
0.0714876
0.0524324
0.0339558
0.01643
0.000188054
-0.0145571
-0.0276111
-0.0388857
-0.0482934
-0.0558413
-0.0615204
-0.065406
-0.0675441
-0.0680567
-0.0670238
-0.0645953
-0.0608697
-0.0560103
-0.0501205
-0.0433652
-0.0358448
-0.0277155
-0.0190533
-0.00998296
-0.000585333
0.00898768
0.0186721
0.028349
0.0379805
0.0474643
0.0567712
0.0658146
0.07458
0.0829896
0.0910395
0.0986623
0.105863
0.112582
0.118832
0.124561
0.129787
0.134462
0.138608
0.142184
0.145213
0.147653
0.149534
0.150823
0.151556
0.151699
0.151292
0.150307
0.148787
0.146708
0.14412
0.141002
0.137409
0.133324
0.128807
0.123842
0.118492
0.112742
0.106657
0.100224
0.0935066
0.0864902
0.0792413
0.0717438
0.064064
0.0561818
0.0481623
0.0399824
0.0316813
0.0232661
0.0144172
0.00653423
-24.1983
-24.2108
-24.2334
-24.2741
-24.3307
-24.4024
-24.4881
-24.5866
-24.6967
-24.8169
-24.946
-25.0827
-25.2255
-25.3735
-25.5256
-25.6809
-25.8386
-25.9982
-26.1591
-26.321
-26.4839
-26.6475
-26.812
-26.9772