/*--------------------------------*- C++ -*----------------------------------*\
  =========                 |
  \\      /  F ield         | OpenFOAM: The Open Source CFD Toolbox
   \\    /   O peration     | Website:  https://openfoam.org
    \\  /    A nd           | Version:  7
     \\/     M anipulation  |
\*---------------------------------------------------------------------------*/
FoamFile
{
    version     2.0;
    format      ascii;
    class       surfaceScalarField;
    location    "250";
    object      phi;
}
// * * * * * * * * * * * * * * * * * * * * * * * * * * * * * * * * * * * * * //

dimensions      [0 3 -1 0 0 0 0];

internalField   nonuniform List<scalar> 
33502
(
3.90796e-08
-3.92041e-08
-2.72943e-08
6.66383e-08
-1.69736e-07
1.42167e-07
-3.49505e-07
1.80024e-07
-5.40623e-07
1.90917e-07
-7.33201e-07
1.92811e-07
-9.24578e-07
1.91245e-07
-1.11204e-06
1.87676e-07
-1.29475e-06
1.82594e-07
-1.47125e-06
1.76691e-07
-1.6415e-06
1.70188e-07
-1.80493e-06
1.63483e-07
-1.96172e-06
1.56766e-07
-2.11189e-06
1.50157e-07
-2.25578e-06
1.43854e-07
-2.39366e-06
1.3785e-07
-2.52609e-06
1.32251e-07
-2.65314e-06
1.27082e-07
-2.77564e-06
1.22271e-07
-2.89348e-06
1.17958e-07
-3.00762e-06
1.1397e-07
-3.11793e-06
1.10449e-07
-3.22527e-06
1.07222e-07
-3.32961e-06
1.04403e-07
-3.43153e-06
1.01862e-07
-3.53123e-06
9.96326e-08
-3.62895e-06
9.76743e-08
-3.72493e-06
9.59584e-08
-3.8194e-06
9.44551e-08
-3.91255e-06
9.31409e-08
-4.00455e-06
9.19905e-08
-4.09554e-06
9.09824e-08
-4.18563e-06
9.00934e-08
-4.27494e-06
8.93033e-08
-4.36353e-06
8.85908e-08
-4.45146e-06
8.7937e-08
-4.53878e-06
8.73222e-08
-4.62551e-06
8.67282e-08
-4.71164e-06
8.61365e-08
-4.79716e-06
8.55293e-08
-4.88205e-06
8.4889e-08
-4.96623e-06
8.41975e-08
-5.04966e-06
8.34376e-08
-5.13224e-06
8.25905e-08
-5.21387e-06
8.16391e-08
-5.29442e-06
8.05634e-08
-5.37375e-06
7.93461e-08
-5.45171e-06
7.79659e-08
-5.5281e-06
7.64051e-08
-5.60272e-06
7.46407e-08
-5.67536e-06
7.26548e-08
-5.74577e-06
7.04232e-08
-5.81368e-06
6.79284e-08
-5.87881e-06
6.51461e-08
-5.94085e-06
6.20593e-08
-5.99948e-06
5.86429e-08
-6.05434e-06
5.48806e-08
-6.10508e-06
5.07496e-08
-6.1513e-06
4.62384e-08
-6.19262e-06
4.13279e-08
-6.22861e-06
3.60075e-08
-6.25885e-06
3.02541e-08
-6.2829e-06
2.40548e-08
-6.30029e-06
1.73933e-08
-6.31055e-06
1.027e-08
-6.31319e-06
2.63983e-09
-6.30772e-06
-5.46876e-09
-6.29372e-06
-1.39975e-08
-6.27077e-06
-2.29475e-08
-6.23846e-06
-3.23218e-08
-6.19636e-06
-4.21089e-08
-6.14407e-06
-5.22967e-08
-6.08123e-06
-6.28602e-08
-6.00747e-06
-7.37706e-08
-5.92251e-06
-8.4987e-08
-5.82607e-06
-9.64614e-08
-5.71795e-06
-1.08135e-07
-5.59804e-06
-1.19941e-07
-5.46626e-06
-1.31806e-07
-5.32263e-06
-1.43646e-07
-5.16728e-06
-1.55372e-07
-5.00042e-06
-1.66885e-07
-4.82235e-06
-1.78088e-07
-4.63349e-06
-1.88877e-07
-4.43435e-06
-1.9915e-07
-4.22556e-06
-2.08801e-07
-4.00782e-06
-2.17741e-07
-3.78195e-06
-2.25873e-07
-3.54882e-06
-2.3312e-07
-3.30939e-06
-2.39419e-07
-3.06466e-06
-2.44707e-07
-2.81568e-06
-2.48961e-07
-2.56352e-06
-2.52148e-07
-2.30922e-06
-2.54281e-07
-2.05381e-06
-2.55388e-07
-1.79824e-06
-2.55547e-07
-1.54337e-06
-2.54821e-07
-1.28986e-06
-2.53438e-07
-1.03853e-06
-2.5124e-07
-7.89423e-07
-2.4908e-07
-5.43084e-07
-2.46334e-07
-2.97067e-07
-2.45949e-07
-4.9672e-08
-2.47259e-07
1.91859e-07
-2.4152e-07
4.2313e-07
-2.31408e-07
6.43065e-07
-2.20154e-07
8.52074e-07
-2.09205e-07
1.05059e-06
-1.98651e-07
1.23898e-06
-1.88457e-07
1.41752e-06
-1.78561e-07
1.58647e-06
-1.68944e-07
1.74608e-06
-1.59585e-07
1.89661e-06
-1.50497e-07
2.03833e-06
-1.41677e-07
2.17152e-06
-1.33147e-07
2.29647e-06
-1.24907e-07
2.4135e-06
-1.16977e-07
2.5229e-06
-1.09354e-07
2.625e-06
-1.02052e-07
2.72011e-06
-9.50659e-08
2.80856e-06
-8.84021e-08
2.89065e-06
-8.20532e-08
2.96671e-06
-7.60209e-08
3.03704e-06
-7.02958e-08
3.10195e-06
-6.48759e-08
3.16173e-06
-5.97508e-08
3.21667e-06
-5.49159e-08
3.26705e-06
-5.03604e-08
3.31315e-06
-4.60779e-08
3.35522e-06
-4.20577e-08
3.39353e-06
-3.82922e-08
3.42831e-06
-3.47711e-08
3.45981e-06
-3.1486e-08
3.48825e-06
-2.84268e-08
3.51384e-06
-2.55849e-08
3.5368e-06
-2.29506e-08
3.55732e-06
-2.05148e-08
3.57559e-06
-1.82686e-08
3.5918e-06
-1.62025e-08
3.60611e-06
-1.43081e-08
3.61868e-06
-1.2576e-08
3.62968e-06
-1.09981e-08
3.63925e-06
-9.5652e-09
3.64752e-06
-8.26955e-09
3.65462e-06
-7.10237e-09
3.66067e-06
-6.05625e-09
3.66579e-06
-5.12283e-09
3.67008e-06
-4.2952e-09
3.67365e-06
-3.56551e-09
3.67657e-06
-2.92739e-09
3.67894e-06
-2.37354e-09
3.68084e-06
-1.89816e-09
3.68233e-06
-1.49459e-09
3.68348e-06
-1.15758e-09
3.68436e-06
-8.81108e-10
3.68502e-06
-6.60491e-10
3.68551e-06
-4.9036e-10
3.68587e-06
-3.66553e-10
3.68615e-06
-2.84327e-10
3.68639e-06
-2.40023e-10
3.68662e-06
-2.29486e-10
3.68686e-06
-2.49504e-10
3.68716e-06
-2.96445e-10
3.68752e-06
-3.67494e-10
3.68798e-06
-4.5948e-10
3.68855e-06
-5.69908e-10
3.68924e-06
-6.95975e-10
3.69007e-06
-8.35429e-10
3.69106e-06
-9.85752e-10
3.6922e-06
-1.14488e-09
3.69351e-06
-1.31052e-09
3.69499e-06
-1.48076e-09
3.69664e-06
-1.6535e-09
3.69847e-06
-1.82697e-09
3.70047e-06
-1.99923e-09
3.70263e-06
-2.1687e-09
3.70497e-06
-2.33366e-09
3.70746e-06
-2.49272e-09
3.7101e-06
-2.64441e-09
3.71289e-06
-2.7876e-09
3.71581e-06
-2.92113e-09
3.71885e-06
-3.04412e-09
3.72201e-06
-3.15574e-09
3.72526e-06
-3.25541e-09
3.7286e-06
-3.34262e-09
3.73202e-06
-3.41705e-09
3.7355e-06
-3.47849e-09
3.73903e-06
-3.5269e-09
3.74259e-06
-3.56237e-09
3.74617e-06
-3.58516e-09
3.74977e-06
-3.59576e-09
3.75336e-06
-3.59492e-09
3.75695e-06
-3.58401e-09
3.76051e-06
-3.56521e-09
3.76406e-06
-3.54281e-09
3.76759e-06
-3.52524e-09
3.77112e-06
-3.53126e-09
3.77473e-06
-3.60692e-09
3.7786e-06
-3.8759e-09
-4.80696e-09
-5.75054e-08
1.84996e-08
-1.69672e-07
1.78934e-07
-3.14679e-07
2.87214e-07
-4.7489e-07
3.40289e-07
-6.43819e-07
3.59935e-07
-8.16042e-07
3.65061e-07
-9.88028e-07
3.6333e-07
-1.15738e-06
3.57048e-07
-1.32257e-06
3.47868e-07
-1.48265e-06
3.36795e-07
-1.63712e-06
3.24664e-07
-1.78563e-06
3.12035e-07
-1.92825e-06
2.99317e-07
-2.06491e-06
2.86886e-07
-2.19602e-06
2.74886e-07
-2.32169e-06
2.63545e-07
-2.44241e-06
2.52887e-07
-2.5584e-06
2.43024e-07
-2.6701e-06
2.33934e-07
-2.77781e-06
2.2564e-07
-2.88195e-06
2.18106e-07
-2.98282e-06
2.11316e-07
-3.08081e-06
2.05217e-07
-3.17618e-06
1.99779e-07
-3.26928e-06
1.94947e-07
-3.36035e-06
1.9068e-07
-3.44961e-06
1.86929e-07
-3.53731e-06
1.83641e-07
-3.62362e-06
1.80766e-07
-3.70874e-06
1.78255e-07
-3.79282e-06
1.76065e-07
-3.87599e-06
1.7415e-07
-3.95837e-06
1.7247e-07
-4.04005e-06
1.70981e-07
-4.12111e-06
1.69646e-07
-4.20159e-06
1.68427e-07
-4.28156e-06
1.67285e-07
-4.36101e-06
1.66184e-07
-4.43996e-06
1.65088e-07
-4.51839e-06
1.63962e-07
-4.59626e-06
1.62769e-07
-4.67353e-06
1.61475e-07
-4.75013e-06
1.60042e-07
-4.82597e-06
1.58435e-07
-4.90094e-06
1.56615e-07
-4.97491e-06
1.54547e-07
-5.04774e-06
1.52189e-07
-5.11927e-06
1.49503e-07
-5.1893e-06
1.46447e-07
-5.25763e-06
1.42982e-07
-5.32403e-06
1.39063e-07
-5.38824e-06
1.34651e-07
-5.45e-06
1.29699e-07
-5.50901e-06
1.24169e-07
-5.56495e-06
1.18016e-07
-5.6175e-06
1.11202e-07
-5.66629e-06
1.03684e-07
-5.71095e-06
9.54274e-08
-5.7511e-06
8.63961e-08
-5.78632e-06
7.65643e-08
-5.8162e-06
6.58984e-08
-5.84031e-06
5.43703e-08
-5.85819e-06
4.19418e-08
-5.86938e-06
2.85915e-08
-5.87342e-06
1.43112e-08
-5.86987e-06
-9.07493e-10
-5.85834e-06
-1.69933e-08
-5.83847e-06
-3.38697e-08
-5.80985e-06
-5.15666e-08
-5.77209e-06
-7.00811e-08
-5.72481e-06
-8.94004e-08
-5.66762e-06
-1.09492e-07
-5.60018e-06
-1.30314e-07
-5.52216e-06
-1.51803e-07
-5.43328e-06
-1.73883e-07
-5.3333e-06
-1.96459e-07
-5.22204e-06
-2.19415e-07
-5.09938e-06
-2.4262e-07
-4.96527e-06
-2.65931e-07
-4.81975e-06
-2.89189e-07
-4.66292e-06
-3.12213e-07
-4.49501e-06
-3.34817e-07
-4.31631e-06
-3.56806e-07
-4.12721e-06
-3.77986e-07
-3.92823e-06
-3.98146e-07
-3.71994e-06
-4.17094e-07
-3.50304e-06
-4.34649e-07
-3.27829e-06
-4.50626e-07
-3.04653e-06
-4.64873e-07
-2.80866e-06
-4.77279e-07
-2.56564e-06
-4.8772e-07
-2.31843e-06
-4.96167e-07
-2.06801e-06
-5.02562e-07
-1.81533e-06
-5.06951e-07
-1.56133e-06
-5.09391e-07
-1.30684e-06
-5.10022e-07
-1.05263e-06
-5.09013e-07
-7.99183e-07
-5.06846e-07
-5.46892e-07
-5.03506e-07
-2.95481e-07
-5.00486e-07
-4.36306e-08
-4.98188e-07
2.02874e-07
-4.92443e-07
4.37968e-07
-4.82325e-07
6.63396e-07
-4.66957e-07
8.79886e-07
-4.47947e-07
1.08795e-06
-4.28306e-07
1.2874e-06
-4.0872e-07
1.47808e-06
-3.89384e-07
1.65994e-06
-3.70343e-07
1.833e-06
-3.51632e-07
1.99734e-06
-3.33276e-07
2.15309e-06
-3.15321e-07
2.30042e-06
-2.97801e-07
2.43953e-06
-2.80764e-07
2.57066e-06
-2.64242e-07
2.69406e-06
-2.48272e-07
2.80999e-06
-2.32873e-07
2.91874e-06
-2.1807e-07
3.02059e-06
-2.03872e-07
3.11584e-06
-1.90288e-07
3.20478e-06
-1.77317e-07
3.28772e-06
-1.64961e-07
3.36493e-06
-1.53211e-07
3.43672e-06
-1.4206e-07
3.50336e-06
-1.31495e-07
3.56513e-06
-1.21504e-07
3.6223e-06
-1.12071e-07
3.67514e-06
-1.03182e-07
3.72389e-06
-9.48181e-08
3.7688e-06
-8.69634e-08
3.81012e-06
-7.95996e-08
3.84806e-06
-7.27091e-08
3.88285e-06
-6.62733e-08
3.9147e-06
-6.02744e-08
3.94381e-06
-5.46942e-08
3.97038e-06
-4.95146e-08
3.99458e-06
-4.47177e-08
4.01659e-06
-4.02858e-08
4.03659e-06
-3.62013e-08
4.05473e-06
-3.24469e-08
4.07115e-06
-2.90057e-08
4.08601e-06
-2.58608e-08
4.09944e-06
-2.29959e-08
4.11156e-06
-2.03948e-08
4.12249e-06
-1.80419e-08
4.13235e-06
-1.59219e-08
4.14124e-06
-1.40201e-08
4.14926e-06
-1.23222e-08
4.15651e-06
-1.08145e-08
4.16306e-06
-9.48374e-09
4.16899e-06
-8.31727e-09
4.17439e-06
-7.30301e-09
4.17932e-06
-6.42949e-09
4.18385e-06
-5.68579e-09
4.18802e-06
-5.06158e-09
4.1919e-06
-4.54708e-09
4.19554e-06
-4.13306e-09
4.19898e-06
-3.81088e-09
4.20226e-06
-3.57235e-09
4.20543e-06
-3.40985e-09
4.20851e-06
-3.31618e-09
4.21154e-06
-3.28465e-09
4.21455e-06
-3.30891e-09
4.21756e-06
-3.38308e-09
4.2206e-06
-3.50154e-09
4.22369e-06
-3.65907e-09
4.22684e-06
-3.8506e-09
4.23008e-06
-4.07142e-09
4.2334e-06
-4.31687e-09
4.23684e-06
-4.58265e-09
4.24039e-06
-4.86439e-09
4.24407e-06
-5.15809e-09
4.24787e-06
-5.45967e-09
4.25181e-06
-5.76536e-09
4.25588e-06
-6.07141e-09
4.26008e-06
-6.37434e-09
4.26442e-06
-6.67075e-09
4.26888e-06
-6.95759e-09
4.27347e-06
-7.23187e-09
4.27817e-06
-7.49105e-09
4.28299e-06
-7.73269e-09
4.2879e-06
-7.95482e-09
4.2929e-06
-8.15558e-09
4.29797e-06
-8.33362e-09
4.30312e-06
-8.48769e-09
4.30832e-06
-8.61703e-09
4.31356e-06
-8.72096e-09
4.31883e-06
-8.79935e-09
4.32412e-06
-8.85207e-09
4.32942e-06
-8.87966e-09
4.3347e-06
-8.88273e-09
4.33997e-06
-8.86282e-09
4.34521e-06
-8.822e-09
4.35041e-06
-8.76431e-09
4.35557e-06
-8.69642e-09
4.36068e-06
-8.6319e-09
4.36575e-06
-8.59765e-09
4.3708e-06
-8.65498e-09
4.37588e-06
-8.95395e-09
-9.84798e-09
-1.16502e-07
1.35251e-07
-2.52707e-07
3.15202e-07
-3.89211e-07
4.23785e-07
-5.31195e-07
4.82342e-07
-6.79467e-07
5.08215e-07
-8.30475e-07
5.16183e-07
-9.81252e-07
5.1412e-07
-1.12978e-06
5.05677e-07
-1.27493e-06
4.93025e-07
-1.41581e-06
4.77738e-07
-1.55202e-06
4.60874e-07
-1.68328e-06
4.43293e-07
-1.80952e-06
4.25575e-07
-1.93082e-06
4.08169e-07
-2.04731e-06
3.91388e-07
-2.15923e-06
3.7544e-07
-2.26683e-06
3.6047e-07
-2.37039e-06
3.46549e-07
-2.4702e-06
3.33718e-07
-2.56654e-06
3.21978e-07
-2.65974e-06
3.113e-07
-2.75008e-06
3.01654e-07
-2.83784e-06
2.92982e-07
-2.92328e-06
2.85231e-07
-3.00667e-06
2.78336e-07
-3.08822e-06
2.72232e-07
-3.16815e-06
2.66854e-07
-3.24664e-06
2.62133e-07
-3.32388e-06
2.57999e-07
-3.40001e-06
2.54388e-07
-3.47519e-06
2.51235e-07
-3.54952e-06
2.48478e-07
-3.62311e-06
2.46059e-07
-3.69605e-06
2.4392e-07
-3.76841e-06
2.42004e-07
-3.84024e-06
2.40258e-07
-3.91158e-06
2.38628e-07
-3.98246e-06
2.37062e-07
-4.05287e-06
2.35507e-07
-4.12282e-06
2.33913e-07
-4.19228e-06
2.32227e-07
-4.2612e-06
2.30397e-07
-4.32952e-06
2.28369e-07
-4.39717e-06
2.26091e-07
-4.46406e-06
2.23507e-07
-4.53006e-06
2.20561e-07
-4.59506e-06
2.17194e-07
-4.6589e-06
2.13348e-07
-4.72141e-06
2.08962e-07
-4.78239e-06
2.03972e-07
-4.84164e-06
1.98316e-07
-4.89891e-06
1.9193e-07
-4.95395e-06
1.84749e-07
-5.00648e-06
1.7671e-07
-5.05621e-06
1.67749e-07
-5.1028e-06
1.57803e-07
-5.14592e-06
1.46814e-07
-5.18521e-06
1.34723e-07
-5.22029e-06
1.21481e-07
-5.25076e-06
1.07039e-07
-5.2762e-06
9.13567e-08
-5.29622e-06
7.43872e-08
-5.31036e-06
5.60873e-08
-5.31819e-06
3.64206e-08
-5.31926e-06
1.53861e-08
-5.31319e-06
-6.97934e-09
-5.2996e-06
-3.05773e-08
-5.27811e-06
-5.53601e-08
-5.24833e-06
-8.13505e-08
-5.20987e-06
-1.0855e-07
-5.16234e-06
-1.36936e-07
-5.10537e-06
-1.66465e-07
-5.03863e-06
-1.97072e-07
-4.96178e-06
-2.28666e-07
-4.87454e-06
-2.61134e-07
-4.77668e-06
-2.94336e-07
-4.66801e-06
-3.28102e-07
-4.5484e-06
-3.6224e-07
-4.41781e-06
-3.96536e-07
-4.27626e-06
-4.30759e-07
-4.12384e-06
-4.64647e-07
-3.96075e-06
-4.97919e-07
-3.78728e-06
-5.30291e-07
-3.60379e-06
-5.6148e-07
-3.41077e-06
-5.91177e-07
-3.20878e-06
-6.1909e-07
-2.99846e-06
-6.44968e-07
-2.78056e-06
-6.68533e-07
-2.55587e-06
-6.8955e-07
-2.32525e-06
-7.07891e-07
-2.0896e-06
-7.23355e-07
-1.84984e-06
-7.35921e-07
-1.60687e-06
-7.45521e-07
-1.36161e-06
-7.52194e-07
-1.11488e-06
-7.56105e-07
-8.67491e-07
-7.57398e-07
-6.20039e-07
-7.56439e-07
-3.7305e-07
-7.53802e-07
-1.25927e-07
-7.50595e-07
1.18199e-07
-7.44599e-07
3.54323e-07
-7.34309e-07
5.82043e-07
-7.20148e-07
8.01321e-07
-7.01575e-07
1.01298e-06
-6.786e-07
1.2176e-06
-6.52581e-07
1.41468e-06
-6.25429e-07
1.60382e-06
-5.97914e-07
1.78477e-06
-5.70382e-07
1.95742e-06
-5.43024e-07
2.12174e-06
-5.15971e-07
2.27779e-06
-4.89334e-07
2.42568e-06
-4.63209e-07
2.56556e-06
-4.37686e-07
2.69765e-06
-4.12837e-07
2.82214e-06
-3.88731e-07
2.93931e-06
-3.65417e-07
3.04939e-06
-3.42939e-07
3.15266e-06
-3.21326e-07
3.24941e-06
-3.00598e-07
3.3399e-06
-2.80766e-07
3.42444e-06
-2.61834e-07
3.50329e-06
-2.43799e-07
3.57675e-06
-2.26652e-07
3.64509e-06
-2.10379e-07
3.70858e-06
-1.94965e-07
3.76748e-06
-1.80389e-07
3.82205e-06
-1.6663e-07
3.87254e-06
-1.53664e-07
3.9192e-06
-1.41466e-07
3.96226e-06
-1.30011e-07
4.00195e-06
-1.19273e-07
4.03847e-06
-1.09224e-07
4.07204e-06
-9.98385e-08
4.10287e-06
-9.10892e-08
4.13113e-06
-8.29496e-08
4.15701e-06
-7.53927e-08
4.18069e-06
-6.83926e-08
4.20233e-06
-6.19228e-08
4.22209e-06
-5.59578e-08
4.24012e-06
-5.0472e-08
4.25656e-06
-4.54405e-08
4.27154e-06
-4.08388e-08
4.28519e-06
-3.66429e-08
4.29762e-06
-3.28294e-08
4.30896e-06
-2.93754e-08
4.3193e-06
-2.62587e-08
4.32873e-06
-2.3458e-08
4.33737e-06
-2.09525e-08
4.34527e-06
-1.87223e-08
4.35254e-06
-1.67485e-08
4.35923e-06
-1.50126e-08
4.36543e-06
-1.34975e-08
4.37118e-06
-1.21865e-08
4.37656e-06
-1.1064e-08
4.38161e-06
-1.01152e-08
4.38639e-06
-9.32604e-09
4.39094e-06
-8.68335e-09
4.3953e-06
-8.1748e-09
4.39952e-06
-7.78862e-09
4.40362e-06
-7.51399e-09
4.40765e-06
-7.34055e-09
4.41162e-06
-7.25877e-09
4.41557e-06
-7.25951e-09
4.41952e-06
-7.33436e-09
4.42349e-06
-7.47522e-09
4.42751e-06
-7.67456e-09
4.43158e-06
-7.92507e-09
4.43573e-06
-8.21986e-09
4.43996e-06
-8.55221e-09
4.4443e-06
-8.91569e-09
4.44873e-06
-9.30403e-09
4.45329e-06
-9.71116e-09
4.45796e-06
-1.01312e-08
4.46275e-06
-1.05583e-08
4.46767e-06
-1.09871e-08
4.4727e-06
-1.14121e-08
4.47786e-06
-1.18284e-08
4.48313e-06
-1.22313e-08
4.48852e-06
-1.26162e-08
4.494e-06
-1.29792e-08
4.49959e-06
-1.33168e-08
4.50526e-06
-1.36256e-08
4.51101e-06
-1.39029e-08
4.51682e-06
-1.41466e-08
4.52268e-06
-1.43548e-08
4.52859e-06
-1.45261e-08
4.53453e-06
-1.46597e-08
4.54049e-06
-1.47551e-08
4.54645e-06
-1.48124e-08
4.5524e-06
-1.4832e-08
4.55833e-06
-1.48152e-08
4.56423e-06
-1.47638e-08
4.57009e-06
-1.46809e-08
4.5759e-06
-1.45714e-08
4.58165e-06
-1.44438e-08
4.58733e-06
-1.43127e-08
4.59294e-06
-1.42061e-08
4.59846e-06
-1.41799e-08
4.60386e-06
-1.43514e-08
-1.49081e-08
-1.46467e-07
2.81838e-07
-2.83927e-07
4.52742e-07
-4.13883e-07
5.53732e-07
-5.43383e-07
6.11876e-07
-6.74902e-07
6.39769e-07
-8.0739e-07
6.48702e-07
-9.39082e-07
6.45861e-07
-1.0687e-06
6.35321e-07
-1.19534e-06
6.19707e-07
-1.31843e-06
6.0084e-07
-1.43759e-06
5.80059e-07
-1.55264e-06
5.58342e-07
-1.6635e-06
5.36441e-07
-1.77021e-06
5.14885e-07
-1.87288e-06
4.94057e-07
-1.97167e-06
4.74228e-07
-2.06679e-06
4.55566e-07
-2.15844e-06
4.38187e-07
-2.24687e-06
4.22126e-07
-2.3323e-06
4.07401e-07
-2.41498e-06
3.93987e-07
-2.49517e-06
3.81842e-07
-2.57309e-06
3.70906e-07
-2.64896e-06
3.61111e-07
-2.723e-06
3.5238e-07
-2.7954e-06
3.44636e-07
-2.86634e-06
3.37798e-07
-2.93599e-06
3.31782e-07
-3.0045e-06
3.26506e-07
-3.072e-06
3.21888e-07
-3.13862e-06
3.17851e-07
-3.20446e-06
3.14317e-07
-3.26962e-06
3.11214e-07
-3.33417e-06
3.08469e-07
-3.39818e-06
3.06013e-07
-3.46169e-06
3.03776e-07
-3.52476e-06
3.01693e-07
-3.58739e-06
2.99697e-07
-3.64961e-06
2.97722e-07
-3.71139e-06
2.95703e-07
-3.77274e-06
2.93572e-07
-3.8336e-06
2.91264e-07
-3.89394e-06
2.8871e-07
-3.95369e-06
2.85841e-07
-4.01276e-06
2.82584e-07
-4.07106e-06
2.78866e-07
-4.12847e-06
2.74611e-07
-4.18486e-06
2.69742e-07
-4.24007e-06
2.64177e-07
-4.29392e-06
2.57834e-07
-4.34623e-06
2.50629e-07
-4.39677e-06
2.42477e-07
-4.4453e-06
2.33291e-07
-4.49157e-06
2.22986e-07
-4.53529e-06
2.11476e-07
-4.57616e-06
1.98678e-07
-4.61385e-06
1.84511e-07
-4.64802e-06
1.68899e-07
-4.6783e-06
1.51771e-07
-4.70431e-06
1.33064e-07
-4.72567e-06
1.1272e-07
-4.74196e-06
9.06832e-08
-4.75277e-06
6.68978e-08
-4.75767e-06
4.13231e-08
-4.75622e-06
1.39438e-08
-4.74805e-06
-1.51402e-08
-4.73283e-06
-4.57953e-08
-4.71017e-06
-7.80186e-08
-4.67969e-06
-1.11837e-07
-4.64099e-06
-1.47249e-07
-4.59371e-06
-1.84227e-07
-4.53746e-06
-2.22715e-07
-4.47192e-06
-2.62626e-07
-4.39675e-06
-3.03843e-07
-4.31167e-06
-3.4622e-07
-4.21645e-06
-3.89573e-07
-4.11088e-06
-4.33678e-07
-3.99485e-06
-4.78282e-07
-3.86829e-06
-5.23107e-07
-3.73121e-06
-5.67853e-07
-3.58369e-06
-6.12178e-07
-3.42591e-06
-6.55705e-07
-3.25815e-06
-6.98065e-07
-3.08074e-06
-7.38897e-07
-2.89414e-06
-7.77787e-07
-2.69889e-06
-8.1434e-07
-2.49561e-06
-8.48256e-07
-2.28498e-06
-8.79157e-07
-2.06782e-06
-9.06711e-07
-1.84488e-06
-9.30823e-07
-1.61705e-06
-9.51177e-07
-1.38521e-06
-9.6776e-07
-1.15018e-06
-9.80542e-07
-9.12904e-07
-9.89464e-07
-6.74065e-07
-9.94939e-07
-4.34453e-07
-9.97e-07
-1.9422e-07
-9.96655e-07
4.51423e-08
-9.93139e-07
2.79531e-07
-9.84966e-07
5.07124e-07
-9.72189e-07
7.27665e-07
-9.54853e-07
9.40841e-07
-9.33315e-07
1.14675e-06
-9.07467e-07
1.3458e-06
-8.77641e-07
1.53814e-06
-8.4494e-07
1.72335e-06
-8.10683e-07
1.90107e-06
-7.75668e-07
2.07104e-06
-7.40378e-07
2.23312e-06
-7.05127e-07
2.3873e-06
-6.70153e-07
2.53361e-06
-6.35643e-07
2.67216e-06
-6.01756e-07
2.80311e-06
-5.68624e-07
2.92664e-06
-5.3636e-07
3.04298e-06
-5.05054e-07
3.15236e-06
-4.74781e-07
3.25504e-06
-4.45596e-07
3.35127e-06
-4.17539e-07
3.44133e-06
-3.90638e-07
3.52549e-06
-3.64907e-07
3.60402e-06
-3.40349e-07
3.6772e-06
-3.16962e-07
3.74529e-06
-2.94731e-07
3.80857e-06
-2.73642e-07
3.86729e-06
-2.5367e-07
3.9217e-06
-2.34791e-07
3.97205e-06
-2.16974e-07
4.01859e-06
-2.0019e-07
4.06153e-06
-1.84405e-07
4.10111e-06
-1.69586e-07
4.13754e-06
-1.55697e-07
4.17102e-06
-1.42705e-07
4.20176e-06
-1.30575e-07
4.22994e-06
-1.1927e-07
4.25575e-06
-1.08755e-07
4.27935e-06
-9.89969e-08
4.30091e-06
-8.99598e-08
4.3206e-06
-8.16097e-08
4.33855e-06
-7.39129e-08
4.35491e-06
-6.68362e-08
4.36981e-06
-6.03469e-08
4.38338e-06
-5.4413e-08
4.39574e-06
-4.90032e-08
4.40699e-06
-4.40869e-08
4.41724e-06
-3.96345e-08
4.4266e-06
-3.56171e-08
4.43514e-06
-3.20069e-08
4.44296e-06
-2.8777e-08
4.45013e-06
-2.59018e-08
4.45674e-06
-2.33565e-08
4.46284e-06
-2.11175e-08
4.4685e-06
-1.91627e-08
4.47378e-06
-1.74705e-08
4.47873e-06
-1.6021e-08
4.4834e-06
-1.4795e-08
4.48785e-06
-1.37747e-08
4.4921e-06
-1.2943e-08
4.49621e-06
-1.22842e-08
4.5002e-06
-1.17832e-08
4.50411e-06
-1.14261e-08
4.50796e-06
-1.11998e-08
4.51179e-06
-1.10919e-08
4.51562e-06
-1.10908e-08
4.51947e-06
-1.11856e-08
4.52336e-06
-1.13661e-08
4.5273e-06
-1.16224e-08
4.53132e-06
-1.19451e-08
4.53542e-06
-1.23254e-08
4.53962e-06
-1.27545e-08
4.54393e-06
-1.3224e-08
4.54835e-06
-1.37257e-08
4.55289e-06
-1.42517e-08
4.55755e-06
-1.47942e-08
4.56234e-06
-1.53456e-08
4.56725e-06
-1.58986e-08
4.57228e-06
-1.64462e-08
4.57743e-06
-1.69817e-08
4.5827e-06
-1.74987e-08
4.58807e-06
-1.79914e-08
4.59355e-06
-1.84545e-08
4.59912e-06
-1.88831e-08
4.60476e-06
-1.9273e-08
4.61048e-06
-1.96206e-08
4.61626e-06
-1.9923e-08
4.62208e-06
-2.01777e-08
4.62794e-06
-2.03831e-08
4.63381e-06
-2.0538e-08
4.6397e-06
-2.06421e-08
4.64558e-06
-2.06954e-08
4.65145e-06
-2.06988e-08
4.65729e-06
-2.0654e-08
4.66309e-06
-2.05635e-08
4.66884e-06
-2.0431e-08
4.67453e-06
-2.02623e-08
4.68016e-06
-2.00661e-08
4.6857e-06
-1.98568e-08
4.69116e-06
-1.96578e-08
4.69649e-06
-1.95108e-08
4.70163e-06
-1.94855e-08
-1.96428e-08
-1.51919e-07
4.33729e-07
-2.8555e-07
5.8635e-07
-4.08115e-07
6.76328e-07
-5.26373e-07
7.30109e-07
-6.43437e-07
7.56851e-07
-7.59656e-07
7.64941e-07
-8.74356e-07
7.6058e-07
-9.86857e-07
7.47838e-07
-1.09662e-06
7.29488e-07
-1.20328e-06
7.07514e-07
-1.30659e-06
6.83377e-07
-1.40643e-06
6.5819e-07
-1.50274e-06
6.32763e-07
-1.59557e-06
6.07713e-07
-1.68499e-06
5.83478e-07
-1.77114e-06
5.60364e-07
-1.85416e-06
5.38582e-07
-1.93423e-06
5.18246e-07
-2.01155e-06
4.99431e-07
-2.0863e-06
4.82145e-07
-2.15868e-06
4.66371e-07
-2.2289e-06
4.52064e-07
-2.29716e-06
4.3916e-07
-2.36362e-06
4.27582e-07
-2.42848e-06
4.17244e-07
-2.49189e-06
4.08057e-07
-2.55402e-06
3.99927e-07
-2.61499e-06
3.92761e-07
-2.67495e-06
3.86464e-07
-2.73401e-06
3.80943e-07
-2.79227e-06
3.76107e-07
-2.84982e-06
3.71869e-07
-2.90675e-06
3.68141e-07
-2.96312e-06
3.64841e-07
-3.019e-06
3.61887e-07
-3.07442e-06
3.59199e-07
-3.12943e-06
3.56698e-07
-3.18404e-06
3.54306e-07
-3.23826e-06
3.51946e-07
-3.29209e-06
3.49539e-07
-3.34553e-06
3.47007e-07
-3.39853e-06
3.4427e-07
-3.45107e-06
3.41245e-07
-3.50307e-06
3.3785e-07
-3.55448e-06
3.33997e-07
-3.60521e-06
3.29597e-07
-3.65515e-06
3.24557e-07
-3.70419e-06
3.18783e-07
-3.75218e-06
3.12174e-07
-3.79898e-06
3.04629e-07
-3.84439e-06
2.96044e-07
-3.88822e-06
2.86312e-07
-3.93025e-06
2.75327e-07
-3.97023e-06
2.6298e-07
-4.00792e-06
2.49165e-07
-4.04301e-06
2.33778e-07
-4.07521e-06
2.16717e-07
-4.10419e-06
1.97885e-07
-4.12961e-06
1.77192e-07
-4.1511e-06
1.54558e-07
-4.16828e-06
1.29909e-07
-4.18077e-06
1.03177e-07
-4.18817e-06
7.42975e-08
-4.19007e-06
4.32266e-08
-4.18605e-06
9.92686e-09
-4.17576e-06
-2.54309e-08
-4.15888e-06
-6.26733e-08
-4.13504e-06
-1.01866e-07
-4.10384e-06
-1.43036e-07
-4.06491e-06
-1.86182e-07
-4.01788e-06
-2.31267e-07
-3.96237e-06
-2.78225e-07
-3.89806e-06
-3.26951e-07
-3.82461e-06
-3.77302e-07
-3.74174e-06
-4.291e-07
-3.6492e-06
-4.8212e-07
-3.5468e-06
-5.36086e-07
-3.43441e-06
-5.90685e-07
-3.31196e-06
-6.45574e-07
-3.17943e-06
-7.00393e-07
-3.03689e-06
-7.54727e-07
-2.88451e-06
-8.08095e-07
-2.72255e-06
-8.60037e-07
-2.55131e-06
-9.10138e-07
-2.37122e-06
-9.57879e-07
-2.18283e-06
-1.00273e-06
-1.98669e-06
-1.04439e-06
-1.78346e-06
-1.08239e-06
-1.57394e-06
-1.11622e-06
-1.35884e-06
-1.14592e-06
-1.13898e-06
-1.17103e-06
-9.15267e-07
-1.19146e-06
-6.8841e-07
-1.20739e-06
-4.59363e-07
-1.2185e-06
-2.28609e-07
-1.22568e-06
3.00974e-09
-1.2286e-06
2.3216e-07
-1.22578e-06
4.5644e-07
-1.21739e-06
6.75324e-07
-1.20383e-06
8.88248e-07
-1.1851e-06
1.0948e-06
-1.1614e-06
1.29462e-06
-1.13313e-06
1.4877e-06
-1.10053e-06
1.67417e-06
-1.0641e-06
1.85401e-06
-1.02479e-06
2.02696e-06
-9.8365e-07
2.19271e-06
-9.41456e-07
2.35108e-06
-8.98773e-07
2.50195e-06
-8.56021e-07
2.6453e-06
-8.13523e-07
2.78118e-06
-7.7154e-07
2.90971e-06
-7.30289e-07
3.03103e-06
-6.89946e-07
3.14532e-06
-6.50657e-07
3.25281e-06
-6.1254e-07
3.35373e-06
-5.75687e-07
3.44831e-06
-5.40169e-07
3.53682e-06
-5.06035e-07
3.61951e-06
-4.73316e-07
3.69665e-06
-4.42031e-07
3.76849e-06
-4.12183e-07
3.83531e-06
-3.83767e-07
3.89736e-06
-3.56767e-07
3.95489e-06
-3.31161e-07
4.00816e-06
-3.06921e-07
4.05739e-06
-2.84015e-07
4.10284e-06
-2.62408e-07
4.14472e-06
-2.4206e-07
4.18325e-06
-2.22931e-07
4.21866e-06
-2.0498e-07
4.25114e-06
-1.88165e-07
4.28088e-06
-1.72441e-07
4.30808e-06
-1.57767e-07
4.33292e-06
-1.44099e-07
4.35556e-06
-1.31394e-07
4.37618e-06
-1.19608e-07
4.39492e-06
-1.08699e-07
4.41195e-06
-9.8626e-08
4.42739e-06
-8.93468e-08
4.44137e-06
-8.08206e-08
4.45404e-06
-7.30075e-08
4.4655e-06
-6.58681e-08
4.47586e-06
-5.93642e-08
4.48524e-06
-5.34583e-08
4.49372e-06
-4.81141e-08
4.5014e-06
-4.32963e-08
4.50837e-06
-3.89711e-08
4.5147e-06
-3.51056e-08
4.52046e-06
-3.16685e-08
4.52574e-06
-2.86297e-08
4.53058e-06
-2.59608e-08
4.53506e-06
-2.36345e-08
4.53921e-06
-2.16251e-08
4.5431e-06
-1.9908e-08
4.54676e-06
-1.84604e-08
4.55025e-06
-1.72605e-08
4.5536e-06
-1.62879e-08
4.55683e-06
-1.55233e-08
4.56e-06
-1.49489e-08
4.56312e-06
-1.45476e-08
4.56623e-06
-1.43038e-08
4.56934e-06
-1.42024e-08
4.57248e-06
-1.42296e-08
4.57566e-06
-1.43721e-08
4.57891e-06
-1.46176e-08
4.58224e-06
-1.4954e-08
4.58567e-06
-1.53702e-08
4.5892e-06
-1.58552e-08
4.59284e-06
-1.63983e-08
4.59661e-06
-1.69893e-08
4.6005e-06
-1.76182e-08
4.60452e-06
-1.82752e-08
4.60868e-06
-1.89506e-08
4.61297e-06
-1.96351e-08
4.61739e-06
-2.03198e-08
4.62194e-06
-2.09957e-08
4.62661e-06
-2.16548e-08
4.6314e-06
-2.22891e-08
4.6363e-06
-2.28914e-08
4.6413e-06
-2.34551e-08
4.64639e-06
-2.39743e-08
4.65156e-06
-2.44438e-08
4.6568e-06
-2.48592e-08
4.66209e-06
-2.52171e-08
4.66743e-06
-2.55146e-08
4.6728e-06
-2.57499e-08
4.67818e-06
-2.59219e-08
4.68357e-06
-2.60302e-08
4.68895e-06
-2.60756e-08
4.69431e-06
-2.60593e-08
4.69964e-06
-2.59836e-08
4.70492e-06
-2.58518e-08
4.71016e-06
-2.56686e-08
4.71534e-06
-2.544e-08
4.72045e-06
-2.51752e-08
4.72548e-06
-2.48864e-08
4.73041e-06
-2.45917e-08
4.73522e-06
-2.43162e-08
4.73982e-06
-2.40863e-08
-2.38831e-08
-1.44531e-07
5.78301e-07
-2.70601e-07
7.12427e-07
-3.84163e-07
7.89849e-07
-4.91033e-07
8.36991e-07
-5.94582e-07
8.60397e-07
-6.9589e-07
8.6625e-07
-7.95019e-07
8.59716e-07
-8.91766e-07
8.44589e-07
-9.85897e-07
8.23624e-07
-1.07723e-06
7.98852e-07
-1.16565e-06
7.71804e-07
-1.25109e-06
7.43632e-07
-1.33354e-06
7.15224e-07
-1.41306e-06
6.87228e-07
-1.4897e-06
6.60124e-07
-1.56359e-06
6.3425e-07
-1.63486e-06
6.0983e-07
-1.70364e-06
5.87015e-07
-1.77008e-06
5.65867e-07
-1.83436e-06
5.46414e-07
-1.89662e-06
5.28638e-07
-1.95705e-06
5.12492e-07
-2.0158e-06
4.97909e-07
-2.07302e-06
4.84805e-07
-2.12886e-06
4.73087e-07
-2.18345e-06
4.62656e-07
-2.23693e-06
4.53411e-07
-2.28942e-06
4.45246e-07
-2.34101e-06
4.38058e-07
-2.39182e-06
4.31746e-07
-2.44192e-06
4.26207e-07
-2.4914e-06
4.21343e-07
-2.54032e-06
4.17059e-07
-2.58874e-06
4.13262e-07
-2.63671e-06
4.09859e-07
-2.68427e-06
4.06761e-07
-2.73146e-06
4.0388e-07
-2.77828e-06
4.01128e-07
-2.82475e-06
3.98416e-07
-2.87087e-06
3.95657e-07
-2.91662e-06
3.92761e-07
-2.96198e-06
3.89637e-07
-3.00693e-06
3.86191e-07
-3.0514e-06
3.82326e-07
-3.09534e-06
3.77942e-07
-3.13868e-06
3.72935e-07
-3.18132e-06
3.67199e-07
-3.22315e-06
3.6062e-07
-3.26406e-06
3.53084e-07
-3.30389e-06
3.44469e-07
-3.3425e-06
3.34653e-07
-3.37969e-06
3.2351e-07
-3.41527e-06
3.10911e-07
-3.44901e-06
2.96728e-07
-3.48067e-06
2.80834e-07
-3.50999e-06
2.63102e-07
-3.53667e-06
2.43411e-07
-3.56043e-06
2.21645e-07
-3.58092e-06
1.97693e-07
-3.59781e-06
1.71458e-07
-3.61075e-06
1.4285e-07
-3.61935e-06
1.11783e-07
-3.62323e-06
7.81798e-08
-3.62199e-06
4.19952e-08
-3.61529e-06
3.2357e-09
-3.60281e-06
-3.79081e-08
-3.58419e-06
-8.12937e-08
-3.55906e-06
-1.26993e-07
-3.52705e-06
-1.75044e-07
-3.48779e-06
-2.25444e-07
-3.4409e-06
-2.78154e-07
-3.38604e-06
-3.33094e-07
-3.32285e-06
-3.90144e-07
-3.25102e-06
-4.49138e-07
-3.17026e-06
-5.09868e-07
-3.08031e-06
-5.72074e-07
-2.98098e-06
-6.35425e-07
-2.87213e-06
-6.99545e-07
-2.75368e-06
-7.64032e-07
-2.62561e-06
-8.28473e-07
-2.48796e-06
-8.92388e-07
-2.34088e-06
-9.55182e-07
-2.18463e-06
-1.01629e-06
-2.01949e-06
-1.07528e-06
-1.84583e-06
-1.13154e-06
-1.66421e-06
-1.18436e-06
-1.47517e-06
-1.23344e-06
-1.27927e-06
-1.27829e-06
-1.07735e-06
-1.31813e-06
-8.70086e-07
-1.35318e-06
-6.58191e-07
-1.38292e-06
-4.42653e-07
-1.40699e-06
-2.24004e-07
-1.42603e-06
-3.02769e-09
-1.43947e-06
2.17412e-07
-1.44611e-06
4.34961e-07
-1.44614e-06
6.49035e-07
-1.43984e-06
8.58842e-07
-1.42719e-06
1.06358e-06
-1.40855e-06
1.2627e-06
-1.38422e-06
1.4558e-06
-1.3545e-06
1.64255e-06
-1.31988e-06
1.82284e-06
-1.28081e-06
1.99666e-06
-1.23792e-06
2.16393e-06
-1.19207e-06
2.32447e-06
-1.1442e-06
2.47807e-06
-1.09507e-06
2.62459e-06
-1.04531e-06
2.76397e-06
-9.95413e-07
2.89621e-06
-9.45767e-07
3.02137e-06
-8.967e-07
3.13957e-06
-8.48479e-07
3.25095e-06
-8.01321e-07
3.35571e-06
-7.55404e-07
3.45405e-06
-7.10868e-07
3.5462e-06
-6.67823e-07
3.6324e-06
-6.26351e-07
3.71289e-06
-5.8651e-07
3.78792e-06
-5.48335e-07
3.85775e-06
-5.11846e-07
3.92263e-06
-4.77047e-07
3.9828e-06
-4.43929e-07
4.03852e-06
-4.12474e-07
4.09002e-06
-3.82654e-07
4.13755e-06
-3.54436e-07
4.18132e-06
-3.27782e-07
4.22157e-06
-3.02649e-07
4.2585e-06
-2.78991e-07
4.29233e-06
-2.5676e-07
4.32327e-06
-2.35909e-07
4.35149e-06
-2.16386e-07
4.37719e-06
-1.98141e-07
4.40054e-06
-1.81124e-07
4.42173e-06
-1.65282e-07
4.44089e-06
-1.50565e-07
4.45821e-06
-1.36924e-07
4.47381e-06
-1.24306e-07
4.48785e-06
-1.12665e-07
4.50044e-06
-1.01949e-07
4.51173e-06
-9.21127e-08
4.52183e-06
-8.31073e-08
4.53084e-06
-7.48871e-08
4.53888e-06
-6.74069e-08
4.54603e-06
-6.06228e-08
4.55241e-06
-5.4492e-08
4.55808e-06
-4.89732e-08
4.56313e-06
-4.40265e-08
4.56763e-06
-3.96135e-08
4.57165e-06
-3.56974e-08
4.57526e-06
-3.22433e-08
4.57851e-06
-2.92176e-08
4.58146e-06
-2.65887e-08
4.58416e-06
-2.43264e-08
4.58664e-06
-2.24023e-08
4.58897e-06
-2.07896e-08
4.59117e-06
-1.94632e-08
4.59327e-06
-1.83991e-08
4.59532e-06
-1.75751e-08
4.59734e-06
-1.69703e-08
4.59935e-06
-1.65652e-08
4.60139e-06
-1.63412e-08
4.60346e-06
-1.62812e-08
4.6056e-06
-1.63689e-08
4.60781e-06
-1.65891e-08
4.61012e-06
-1.69271e-08
4.61253e-06
-1.73693e-08
4.61506e-06
-1.79023e-08
4.61772e-06
-1.85133e-08
4.62051e-06
-1.919e-08
4.62344e-06
-1.99203e-08
4.62651e-06
-2.06923e-08
4.62973e-06
-2.14944e-08
4.63309e-06
-2.23153e-08
4.6366e-06
-2.3144e-08
4.64025e-06
-2.39697e-08
4.64403e-06
-2.47821e-08
4.64795e-06
-2.55713e-08