/*--------------------------------*- C++ -*----------------------------------*\
  =========                 |
  \\      /  F ield         | OpenFOAM: The Open Source CFD Toolbox
   \\    /   O peration     | Website:  https://openfoam.org
    \\  /    A nd           | Version:  7
     \\/     M anipulation  |
\*---------------------------------------------------------------------------*/
FoamFile
{
    version     2.0;
    format      ascii;
    class       volVectorField;
    location    "250";
    object      U;
}
// * * * * * * * * * * * * * * * * * * * * * * * * * * * * * * * * * * * * * //

dimensions      [0 1 -1 0 0 0 0];

internalField   nonuniform List<vector> 
16900
(
(0.0297613 -0.0377283 0)
(0.0324019 0.0360065 0)
(-0.0569162 0.0916916 0)
(-0.229805 0.119165 0)
(-0.388668 0.122745 0)
(-0.549814 0.120492 0)
(-0.716466 0.116611 0)
(-0.880961 0.112093 0)
(-1.04167 0.107205 0)
(-1.19755 0.102206 0)
(-1.348 0.0972102 0)
(-1.49271 0.0923526 0)
(-1.63156 0.0876975 0)
(-1.76462 0.0832914 0)
(-1.89207 0.0791808 0)
(-2.01418 0.0753649 0)
(-2.13125 0.0718622 0)
(-2.24364 0.0686621 0)
(-2.35171 0.0657507 0)
(-2.45582 0.0631225 0)
(-2.55632 0.06075 0)
(-2.65357 0.0586258 0)
(-2.74789 0.0567211 0)
(-2.83961 0.0550252 0)
(-2.92899 0.0535142 0)
(-3.01633 0.0521672 0)
(-3.10186 0.0509728 0)
(-3.1858 0.0499105 0)
(-3.26834 0.0489654 0)
(-3.34967 0.0481225 0)
(-3.42993 0.0473673 0)
(-3.50926 0.0466861 0)
(-3.58777 0.0460662 0)
(-3.66556 0.0454959 0)
(-3.7427 0.0449643 0)
(-3.81926 0.0444608 0)
(-3.89528 0.0439761 0)
(-3.97078 0.0435009 0)
(-4.04577 0.0430267 0)
(-4.12025 0.042545 0)
(-4.1942 0.0420482 0)
(-4.26758 0.0415283 0)
(-4.34034 0.0409781 0)
(-4.41242 0.0403898 0)
(-4.48372 0.0397565 0)
(-4.55416 0.0390704 0)
(-4.62361 0.0383244 0)
(-4.69194 0.0375106 0)
(-4.75902 0.0366217 0)
(-4.82466 0.0356491 0)
(-4.88869 0.0345855 0)
(-4.95091 0.0334225 0)
(-5.01109 0.0321525 0)
(-5.06899 0.0307667 0)
(-5.12436 0.0292572 0)
(-5.17692 0.027615 0)
(-5.22638 0.0258334 0)
(-5.27243 0.0239047 0)
(-5.31476 0.0218231 0)
(-5.35301 0.0195811 0)
(-5.38681 0.0171737 0)
(-5.41579 0.0145941 0)
(-5.43961 0.0118323 0)
(-5.45792 0.00886865 0)
(-5.47032 0.0056845 0)
(-5.47631 0.00227691 0)
(-5.47534 -0.00131441 0)
(-5.46719 -0.00507215 0)
(-5.45145 -0.00901564 0)
(-5.42775 -0.0131492 0)
(-5.39574 -0.0174716 0)
(-5.35504 -0.0219796 0)
(-5.30532 -0.0266662 0)
(-5.24626 -0.0315219 0)
(-5.17755 -0.036533 0)
(-5.09896 -0.0416824 0)
(-5.01028 -0.0469491 0)
(-4.91135 -0.0523091 0)
(-4.80208 -0.057735 0)
(-4.68245 -0.0631962 0)
(-4.55252 -0.0686588 0)
(-4.41241 -0.0740871 0)
(-4.26236 -0.0794445 0)
(-4.10266 -0.0846926 0)
(-3.93373 -0.0897927 0)
(-3.75604 -0.0947077 0)
(-3.5702 -0.0994014 0)
(-3.37685 -0.10384 0)
(-3.17674 -0.107999 0)
(-2.97066 -0.111863 0)
(-2.75946 -0.115431 0)
(-2.54405 -0.118712 0)
(-2.32535 -0.121708 0)
(-2.10431 -0.124412 0)
(-1.88185 -0.126784 0)
(-1.6588 -0.128819 0)
(-1.43585 -0.130622 0)
(-1.21351 -0.132627 0)
(-0.99227 -0.135554 0)
(-0.772415 -0.140458 0)
(-0.555177 -0.147592 0)
(-0.341392 -0.155475 0)
(-0.136781 -0.15923 0)
(0.0928896 -0.150174 0)
(0.289504 -0.137059 0)
(0.480402 -0.125219 0)
(0.663093 -0.114829 0)
(0.837307 -0.105644 0)
(1.00309 -0.0974314 0)
(1.16056 -0.0900012 0)
(1.30986 -0.0832162 0)
(1.45115 -0.0769731 0)
(1.58461 -0.0711987 0)
(1.71044 -0.065836 0)
(1.82887 -0.0608437 0)
(1.94012 -0.0561873 0)
(2.04445 -0.0518408 0)
(2.1421 -0.0477805 0)
(2.23334 -0.0439879 0)
(2.31844 -0.0404448 0)
(2.39767 -0.0371369 0)
(2.47129 -0.034049 0)
(2.53959 -0.0311692 0)
(2.60282 -0.0284845 0)
(2.66125 -0.0259847 0)
(2.71512 -0.0236582 0)
(2.76471 -0.021496 0)
(2.81024 -0.0194881 0)
(2.85195 -0.0176263 0)
(2.89008 -0.0159017 0)
(2.92485 -0.0143069 0)
(2.95647 -0.012834 0)
(2.98514 -0.0114765 0)
(3.01108 -0.010227 0)
(3.03446 -0.0090797 0)
(3.05548 -0.00802799 0)
(3.07431 -0.00706656 0)
(3.0911 -0.00618939 0)
(3.10604 -0.00539163 0)
(3.11926 -0.00466777 0)
(3.13091 -0.0040134 0)
(3.14113 -0.00342346 0)
(3.15004 -0.00289392 0)
(3.15778 -0.00242016 0)
(3.16444 -0.00199849 0)
(3.17015 -0.00162471 0)
(3.17501 -0.00129549 0)
(3.1791 -0.001007 0)
(3.18251 -0.000756261 0)
(3.18533 -0.000539827 0)
(3.18764 -0.000355061 0)
(3.1895 -0.000198868 0)
(3.19098 -6.89462e-05 0)
(3.19214 3.74578e-05 0)
(3.19303 0.000122331 0)
(3.1937 0.000188104 0)
(3.19421 0.000236468 0)
(3.19459 0.000269556 0)
(3.19488 0.00028879 0)
(3.19512 0.000296027 0)
(3.19533 0.000292444 0)
(3.19554 0.000279656 0)
(3.19578 0.000258623 0)
(3.19608 0.000230748 0)
(3.19644 0.000196805 0)
(3.19689 0.000158023 0)
(3.19745 0.000115026 0)
(3.19812 6.88978e-05 0)
(3.19891 2.01411e-05 0)
(3.19984 -3.02742e-05 0)
(3.20091 -8.19394e-05 0)
(3.20212 -0.000133981 0)
(3.20348 -0.000186071 0)
(3.20499 -0.000237418 0)
(3.20665 -0.00028777 0)
(3.20846 -0.000336419 0)
(3.21041 -0.00038319 0)
(3.21251 -0.000427462 0)
(3.21473 -0.000469145 0)
(3.21709 -0.000507711 0)
(3.21956 -0.000543164 0)
(3.22215 -0.00057507 0)
(3.22483 -0.000603524 0)
(3.22761 -0.000628188 0)
(3.23047 -0.000649243 0)
(3.23339 -0.000666437 0)
(3.23638 -0.000680029 0)
(3.23942 -0.000689842 0)
(3.24249 -0.000696215 0)
(3.24558 -0.000699049 0)
(3.24869 -0.000698781 0)
(3.25181 -0.000695445 0)
(3.25491 -0.000689706 0)
(3.25801 -0.000681989 0)
(3.26109 -0.000673785 0)
(3.26415 -0.000667302 0)
(3.26719 -0.000668197 0)
(3.27027 -0.000690017 0)
(3.27338 -0.000767673 0)
(3.27815 -0.00106546 0)
(-0.0370218 -0.0296818 0)
(-0.0833957 0.102703 0)
(-0.205609 0.199291 0)
(-0.349189 0.247226 0)
(-0.495271 0.263829 0)
(-0.646324 0.26662 0)
(-0.799784 0.264424 0)
(-0.951681 0.259014 0)
(-1.10043 0.251541 0)
(-1.24498 0.242786 0)
(-1.3847 0.233304 0)
(-1.51925 0.223524 0)
(-1.64849 0.213747 0)
(-1.77245 0.204201 0)
(-1.89129 0.19504 0)
(-2.00522 0.186372 0)
(-2.11452 0.17826 0)
(-2.2195 0.170738 0)
(-2.32049 0.163812 0)
(-2.41781 0.157479 0)
(-2.51179 0.151716 0)
(-2.60274 0.146504 0)
(-2.69097 0.141803 0)
(-2.77677 0.137586 0)
(-2.86039 0.133811 0)
(-2.94209 0.13044 0)
(-3.0221 0.127436 0)
(-3.10062 0.124762 0)
(-3.17784 0.122383 0)
(-3.25393 0.120265 0)
(-3.32903 0.118374 0)
(-3.40327 0.11668 0)
(-3.47676 0.11515 0)
(-3.54959 0.113757 0)
(-3.62184 0.112473 0)
(-3.69358 0.111272 0)
(-3.76483 0.110128 0)
(-3.83563 0.109017 0)
(-3.90599 0.107916 0)
(-3.97591 0.106802 0)
(-4.04535 0.105653 0)
(-4.11429 0.104447 0)
(-4.18267 0.103161 0)
(-4.25043 0.101775 0)
(-4.31747 0.100265 0)
(-4.38369 0.0986108 0)
(-4.44898 0.0967896 0)
(-4.51319 0.0947795 0)
(-4.57617 0.0925576 0)
(-4.63774 0.0901012 0)
(-4.6977 0.0873874 0)
(-4.75586 0.0843938 0)
(-4.81196 0.0810983 0)
(-4.86577 0.0774792 0)
(-4.917 0.0735143 0)
(-4.96538 0.0691826 0)
(-5.01058 0.0644647 0)
(-5.0523 0.059344 0)
(-5.09021 0.0538052 0)
(-5.12392 0.0478346 0)
(-5.15306 0.0414208 0)
(-5.17725 0.0345549 0)
(-5.19613 0.0272223 0)
(-5.20935 0.0193957 0)
(-5.21648 0.0110498 0)
(-5.21696 0.002194 0)
(-5.21047 -0.00710247 0)
(-5.19676 -0.0167916 0)
(-5.17545 -0.0268848 0)
(-5.1462 -0.0373787 0)
(-5.10864 -0.0482612 0)
(-5.06243 -0.059512 0)
(-5.00725 -0.0711031 0)
(-4.94279 -0.0829977 0)
(-4.86877 -0.0951507 0)
(-4.78496 -0.107506 0)
(-4.69117 -0.12 0)
(-4.58725 -0.132559 0)
(-4.47313 -0.145105 0)
(-4.34879 -0.157549 0)
(-4.2143 -0.169797 0)
(-4.0698 -0.181748 0)
(-3.91552 -0.193303 0)
(-3.75175 -0.204359 0)
(-3.57891 -0.214811 0)
(-3.39748 -0.224561 0)
(-3.20803 -0.233517 0)
(-3.01121 -0.24159 0)
(-2.80775 -0.248711 0)
(-2.59843 -0.254828 0)
(-2.38409 -0.259902 0)
(-2.16558 -0.263931 0)
(-1.9438 -0.266894 0)
(-1.71958 -0.268806 0)
(-1.49378 -0.269648 0)
(-1.26717 -0.269492 0)
(-1.04055 -0.268484 0)
(-0.814471 -0.267133 0)
(-0.589841 -0.265991 0)
(-0.365677 -0.265754 0)
(-0.143837 -0.266327 0)
(0.0824975 -0.266671 0)
(0.292776 -0.263625 0)
(0.497996 -0.253611 0)
(0.693281 -0.240134 0)
(0.881069 -0.226887 0)
(1.06137 -0.214221 0)
(1.23399 -0.202171 0)
(1.39883 -0.190674 0)
(1.55588 -0.179667 0)
(1.70516 -0.169103 0)
(1.84679 -0.158954 0)
(1.98089 -0.149203 0)
(2.10763 -0.139844 0)
(2.2272 -0.130874 0)
(2.33982 -0.122291 0)
(2.44573 -0.114094 0)
(2.54516 -0.106279 0)
(2.63836 -0.098843 0)
(2.7256 -0.0917803 0)
(2.80713 -0.0850842 0)
(2.88322 -0.0787465 0)
(2.95412 -0.0727583 0)
(3.02009 -0.0671093 0)
(3.08139 -0.0617892 0)
(3.13826 -0.0567865 0)
(3.19093 -0.0520901 0)
(3.23966 -0.0476882 0)
(3.28466 -0.0435692 0)
(3.32616 -0.0397213 0)
(3.36436 -0.0361331 0)
(3.39949 -0.0327929 0)
(3.43172 -0.0296896 0)
(3.46126 -0.0268118 0)
(3.48828 -0.0241489 0)
(3.51296 -0.0216898 0)
(3.53547 -0.0194245 0)
(3.55596 -0.0173424 0)
(3.57459 -0.0154338 0)
(3.5915 -0.0136887 0)
(3.60683 -0.012098 0)
(3.62071 -0.0106523 0)
(3.63326 -0.00934276 0)
(3.64459 -0.00816062 0)
(3.65483 -0.00709774 0)
(3.66405 -0.00614588 0)
(3.67238 -0.00529752 0)
(3.67989 -0.00454506 0)
(3.68667 -0.0038816 0)
(3.69279 -0.00330023 0)
(3.69834 -0.00279471 0)
(3.70337 -0.00235878 0)
(3.70796 -0.00198687 0)
(3.71216 -0.00167338 0)
(3.71603 -0.00141339 0)
(3.71961 -0.00120191 0)
(3.72295 -0.00103465 0)
(3.7261 -0.000907237 0)
(3.72909 -0.000815919 0)
(3.73196 -0.000756882 0)
(3.73473 -0.000726904 0)
(3.73745 -0.000722658 0)
(3.74014 -0.000741381 0)
(3.74282 -0.000780174 0)
(3.74551 -0.000836666 0)
(3.74823 -0.000908307 0)
(3.751 -0.000993041 0)
(3.75384 -0.0010886 0)
(3.75676 -0.00119318 0)
(3.75976 -0.00130473 0)
(3.76287 -0.00142164 0)
(3.76608 -0.00154205 0)
(3.7694 -0.00166451 0)
(3.77284 -0.00178732 0)
(3.7764 -0.00190921 0)
(3.78007 -0.00202866 0)
(3.78386 -0.00214457 0)
(3.78777 -0.00225562 0)
(3.79179 -0.00236093 0)
(3.79591 -0.0024594 0)
(3.80014 -0.00255039 0)
(3.80445 -0.00263303 0)
(3.80885 -0.00270695 0)
(3.81332 -0.00277152 0)
(3.81786 -0.00282661 0)
(3.82245 -0.00287181 0)
(3.82709 -0.00290721 0)
(3.83175 -0.00293265 0)
(3.83644 -0.00294842 0)
(3.84114 -0.00295459 0)
(3.84583 -0.00295172 0)
(3.85052 -0.00294024 0)
(3.85518 -0.0029213 0)
(3.85981 -0.00289626 0)
(3.86441 -0.00286816 0)
(3.86896 -0.00284232 0)
(3.87347 -0.00283058 0)
(3.87796 -0.00285985 0)
(3.88236 -0.0030024 0)
(3.8881 -0.00344427 0)
(-0.0803138 0.0563829 0)
(-0.160741 0.234836 0)
(-0.287625 0.33954 0)
(-0.416524 0.3925 0)
(-0.549003 0.413858 0)
(-0.685395 0.419109 0)
(-0.823073 0.416064 0)
(-0.959463 0.407802 0)
(-1.09319 0.396183 0)
(-1.22337 0.382476 0)
(-1.34942 0.367599 0)
(-1.47106 0.352234 0)
(-1.58814 0.336866 0)
(-1.70067 0.321859 0)
(-1.80875 0.307452 0)
(-1.91254 0.293817 0)
(-2.01228 0.281049 0)
(-2.1082 0.269202 0)
(-2.20059 0.258293 0)
(-2.2897 0.24831 0)
(-2.37581 0.239227 0)
(-2.45921 0.231002 0)
(-2.54013 0.223588 0)
(-2.61883 0.21693 0)
(-2.69555 0.210971 0)
(-2.77049 0.205651 0)
(-2.84387 0.20091 0)
(-2.91586 0.196693 0)
(-2.98663 0.192943 0)
(-3.05634 0.189608 0)
(-3.12511 0.186634 0)
(-3.19307 0.183974 0)
(-3.26031 0.181577 0)
(-3.32693 0.1794 0)
(-3.39299 0.177398 0)
(-3.45856 0.17553 0)
(-3.52367 0.173755 0)
(-3.58835 0.172034 0)
(-3.65262 0.17033 0)
(-3.71647 0.168604 0)
(-3.77989 0.166821 0)
(-3.84285 0.164945 0)
(-3.9053 0.162937 0)
(-3.96719 0.160764 0)
(-4.02843 0.158387 0)
(-4.08893 0.15577 0)
(-4.14858 0.152876 0)
(-4.20726 0.149667 0)
(-4.26481 0.146105 0)
(-4.32108 0.142152 0)
(-4.37587 0.137768 0)
(-4.42898 0.132916 0)
(-4.4802 0.127558 0)
(-4.52927 0.121656 0)
(-4.57593 0.115176 0)
(-4.6199 0.108081 0)
(-4.66088 0.100338 0)
(-4.69855 0.0919198 0)
(-4.73257 0.0827992 0)
(-4.7626 0.0729535 0)
(-4.78823 0.0623627 0)
(-4.80909 0.0510095 0)
(-4.82483 0.0388716 0)
(-4.83511 0.0259212 0)
(-4.83948 0.0121504 0)
(-4.83738 -0.00238361 0)
(-4.82864 -0.0175932 0)
(-4.81289 -0.0334505 0)
(-4.78978 -0.0499658 0)
(-4.75894 -0.0671311 0)
(-4.72002 -0.0849246 0)
(-4.67266 -0.103311 0)
(-4.61655 -0.122241 0)
(-4.55137 -0.141652 0)
(-4.47684 -0.161467 0)
(-4.39272 -0.181593 0)
(-4.29881 -0.20192 0)
(-4.19498 -0.222326 0)
(-4.08112 -0.242678 0)
(-3.95723 -0.262832 0)
(-3.82336 -0.282628 0)
(-3.67964 -0.301897 0)
(-3.52628 -0.320475 0)
(-3.36359 -0.338191 0)
(-3.19194 -0.354867 0)
(-3.01183 -0.370344 0)
(-2.8238 -0.384477 0)
(-2.62849 -0.397114 0)
(-2.42661 -0.408146 0)
(-2.21892 -0.417485 0)
(-2.00625 -0.425039 0)
(-1.78939 -0.430795 0)
(-1.56923 -0.434694 0)
(-1.34653 -0.436803 0)
(-1.12217 -0.437202 0)
(-0.896815 -0.436168 0)
(-0.671449 -0.434021 0)
(-0.446121 -0.431256 0)
(-0.222763 -0.428124 0)
(0.00363046 -0.423883 0)
(0.221262 -0.417905 0)
(0.432347 -0.409524 0)
(0.634858 -0.39824 0)
(0.830754 -0.38395 0)
(1.01986 -0.367839 0)
(1.20225 -0.351204 0)
(1.37757 -0.334531 0)
(1.54553 -0.318012 0)
(1.70598 -0.301734 0)
(1.85886 -0.285756 0)
(2.00419 -0.270123 0)
(2.14205 -0.254877 0)
(2.27257 -0.240059 0)
(2.39591 -0.225704 0)
(2.51227 -0.21184 0)
(2.62186 -0.198491 0)
(2.72492 -0.185675 0)
(2.82167 -0.173403 0)
(2.91238 -0.161681 0)
(2.9973 -0.150511 0)
(3.07668 -0.139889 0)
(3.15079 -0.129809 0)
(3.21988 -0.120263 0)
(3.28419 -0.111239 0)
(3.34399 -0.102723 0)
(3.39951 -0.0947014 0)
(3.45099 -0.0871581 0)
(3.49866 -0.0800768 0)
(3.54275 -0.0734405 0)
(3.58346 -0.0672321 0)
(3.62101 -0.0614342 0)
(3.6556 -0.0560295 0)
(3.68741 -0.0510008 0)
(3.71664 -0.0463308 0)
(3.74346 -0.0420029 0)
(3.76804 -0.0380002 0)
(3.79055 -0.0343065 0)
(3.81113 -0.0309058 0)
(3.82993 -0.0277823 0)
(3.84709 -0.0249207 0)
(3.86274 -0.0223062 0)
(3.87701 -0.0199241 0)
(3.89002 -0.0177604 0)
(3.90187 -0.0158013 0)
(3.91267 -0.0140336 0)
(3.92252 -0.0124446 0)
(3.9315 -0.011022 0)
(3.93972 -0.00975406 0)
(3.94723 -0.00862958 0)
(3.95413 -0.0076378 0)
(3.96048 -0.00676864 0)
(3.96634 -0.00601237 0)
(3.97177 -0.00535998 0)
(3.97683 -0.00480277 0)
(3.98158 -0.00433276 0)
(3.98605 -0.00394226 0)
(3.99029 -0.00362426 0)
(3.99435 -0.003372 0)
(3.99825 -0.00317938 0)
(4.00204 -0.00304049 0)
(4.00573 -0.00295005 0)
(4.00937 -0.00290291 0)
(4.01298 -0.0028945 0)
(4.01657 -0.00292033 0)
(4.02017 -0.00297643 0)
(4.02381 -0.00305884 0)
(4.02749 -0.00316407 0)
(4.03123 -0.00328858 0)
(4.03504 -0.00342925 0)
(4.03894 -0.00358285 0)
(4.04293 -0.00374656 0)
(4.04702 -0.00391742 0)
(4.05121 -0.00409287 0)
(4.05552 -0.00427018 0)
(4.05993 -0.00444703 0)
(4.06446 -0.00462098 0)
(4.06909 -0.00479 0)
(4.07384 -0.00495195 0)
(4.07868 -0.00510514 0)
(4.08363 -0.0052478 0)
(4.08866 -0.00537865 0)
(4.09378 -0.00549629 0)
(4.09897 -0.00559987 0)
(4.10422 -0.00568839 0)
(4.10953 -0.00576143 0)
(4.11489 -0.00581839 0)
(4.12027 -0.00585922 0)
(4.12568 -0.00588371 0)
(4.1311 -0.00589221 0)
(4.13651 -0.00588489 0)
(4.14191 -0.00586256 0)
(4.14729 -0.00582596 0)
(4.15264 -0.00577674 0)
(4.15794 -0.00571697 0)
(4.16319 -0.00565074 0)
(4.16839 -0.00558494 0)
(4.17352 -0.00553354 0)
(4.17858 -0.00552543 0)
(4.18347 -0.00562677 0)
(4.18954 -0.00596207 0)
(-0.106495 0.205174 0)
(-0.199438 0.369712 0)
(-0.322607 0.468541 0)
(-0.444694 0.523284 0)
(-0.566436 0.547544 0)
(-0.689585 0.553887 0)
(-0.812885 0.5497 0)
(-0.934777 0.538825 0)
(-1.05425 0.523632 0)
(-1.17064 0.505757 0)
(-1.2835 0.486369 0)
(-1.39259 0.466336 0)
(-1.49779 0.446289 0)
(-1.59909 0.426683 0)
(-1.69656 0.407837 0)
(-1.79033 0.389965 0)
(-1.88057 0.373199 0)
(-1.96747 0.357613 0)
(-2.05125 0.343232 0)
(-2.13215 0.330047 0)
(-2.21038 0.318027 0)
(-2.28617 0.307122 0)
(-2.35974 0.297274 0)
(-2.43132 0.288413 0)
(-2.50108 0.280468 0)
(-2.56923 0.273361 0)
(-2.63594 0.267019 0)
(-2.70137 0.261367 0)
(-2.76568 0.256334 0)
(-2.82898 0.251851 0)
(-2.89142 0.24785 0)
(-2.95308 0.244267 0)
(-3.01407 0.241038 0)
(-3.07446 0.238104 0)
(-3.13432 0.235408 0)
(-3.19371 0.232895 0)
(-3.25266 0.230511 0)
(-3.3112 0.228206 0)
(-3.36936 0.225927 0)
(-3.42713 0.223626 0)
(-3.48449 0.221253 0)
(-3.54144 0.218759 0)
(-3.59792 0.216094 0)
(-3.65389 0.21321 0)
(-3.70928 0.210056 0)
(-3.764 0.206581 0)
(-3.81795 0.202735 0)
(-3.87103 0.198464 0)
(-3.92309 0.193717 0)
(-3.97397 0.188438 0)
(-4.02352 0.182575 0)
(-4.07153 0.176073 0)
(-4.1178 0.16888 0)
(-4.16209 0.160941 0)
(-4.20414 0.152208 0)
(-4.24369 0.142629 0)
(-4.28044 0.132159 0)
(-4.31408 0.120755 0)
(-4.34428 0.10838 0)
(-4.3707 0.0950004 0)
(-4.39295 0.08059 0)
(-4.41065 0.0651239 0)
(-4.42347 0.0485714 0)
(-4.43107 0.0308991 0)
(-4.43299 0.0121094 0)
(-4.42862 -0.00770045 0)
(-4.41793 -0.0284246 0)
(-4.40048 -0.0500556 0)
(-4.37592 -0.0726007 0)
(-4.34389 -0.0960493 0)
(-4.30402 -0.120372 0)
(-4.25596 -0.145522 0)
(-4.19938 -0.171433 0)
(-4.13397 -0.198018 0)
(-4.05943 -0.225175 0)
(-3.97552 -0.252775 0)
(-3.88203 -0.280668 0)
(-3.77881 -0.308686 0)
(-3.66577 -0.336647 0)
(-3.54288 -0.364356 0)
(-3.41016 -0.391592 0)
(-3.26776 -0.41812 0)
(-3.11588 -0.443714 0)
(-2.95479 -0.468147 0)
(-2.78487 -0.491166 0)
(-2.6066 -0.512549 0)
(-2.42051 -0.532112 0)
(-2.22722 -0.549631 0)
(-2.02743 -0.564944 0)
(-1.82186 -0.577949 0)
(-1.61135 -0.588482 0)
(-1.39662 -0.596568 0)
(-1.1786 -0.602157 0)
(-0.957981 -0.605424 0)
(-0.735771 -0.606602 0)
(-0.512437 -0.605999 0)
(-0.289184 -0.603999 0)
(-0.0647231 -0.600182 0)
(0.156694 -0.594298 0)
(0.371931 -0.585729 0)
(0.580379 -0.574119 0)
(0.782242 -0.55989 0)
(0.977115 -0.542864 0)
(1.16556 -0.52324 0)
(1.34773 -0.501932 0)
(1.5234 -0.479844 0)
(1.69222 -0.457486 0)
(1.8539 -0.435148 0)
(2.00827 -0.413007 0)
(2.15528 -0.391191 0)
(2.29493 -0.3698 0)
(2.42731 -0.348915 0)
(2.55253 -0.328606 0)
(2.67077 -0.30893 0)
(2.78221 -0.289932 0)
(2.88708 -0.271647 0)
(2.98559 -0.2541 0)
(3.07799 -0.237307 0)
(3.16454 -0.221276 0)
(3.24547 -0.206008 0)
(3.32105 -0.191499 0)
(3.39153 -0.177739 0)
(3.45717 -0.164715 0)
(3.5182 -0.15241 0)
(3.57488 -0.140805 0)
(3.62745 -0.12988 0)
(3.67613 -0.119612 0)
(3.72115 -0.109977 0)
(3.76274 -0.100953 0)
(3.80109 -0.0925147 0)
(3.83641 -0.084638 0)
(3.86891 -0.0772986 0)
(3.89876 -0.0704726 0)
(3.92615 -0.064136 0)
(3.95125 -0.0582654 0)
(3.97422 -0.0528376 0)
(3.99522 -0.0478301 0)
(4.0144 -0.0432206 0)
(4.0319 -0.0389876 0)
(4.04786 -0.0351097 0)
(4.0624 -0.0315667 0)
(4.07564 -0.0283383 0)
(4.0877 -0.0254054 0)
(4.09868 -0.0227491 0)
(4.10869 -0.0203513 0)
(4.11781 -0.0181948 0)
(4.12614 -0.0162628 0)
(4.13375 -0.0145393 0)
(4.14073 -0.0130092 0)
(4.14714 -0.011658 0)
(4.15306 -0.0104719 0)
(4.15853 -0.00943801 0)
(4.16362 -0.00854405 0)
(4.16839 -0.00777838 0)
(4.17287 -0.00713028 0)
(4.17712 -0.00658948 0)
(4.18117 -0.00614656 0)
(4.18507 -0.00579249 0)
(4.18884 -0.00551911 0)
(4.19252 -0.00531854 0)
(4.19613 -0.0051837 0)
(4.19971 -0.00510774 0)
(4.20328 -0.00508451 0)
(4.20686 -0.00510802 0)
(4.21046 -0.00517293 0)
(4.21411 -0.00527393 0)
(4.21782 -0.0054063 0)
(4.22161 -0.00556525 0)
(4.22547 -0.00574655 0)
(4.22944 -0.00594581 0)
(4.2335 -0.00615915 0)
(4.23768 -0.00638253 0)
(4.24196 -0.00661238 0)
(4.24636 -0.00684497 0)
(4.25088 -0.00707705 0)
(4.25551 -0.00730524 0)
(4.26026 -0.00752668 0)
(4.26511 -0.0077384 0)
(4.27006 -0.007938 0)
(4.27512 -0.00812302 0)
(4.28026 -0.00829161 0)
(4.28548 -0.00844186 0)
(4.29077 -0.00857248 0)
(4.29613 -0.00868216 0)
(4.30153 -0.00877022 0)
(4.30697 -0.0088359 0)
(4.31243 -0.00887908 0)
(4.31791 -0.00889955 0)
(4.32339 -0.00889777 0)
(4.32886 -0.00887406 0)
(4.33431 -0.00882952 0)
(4.33973 -0.00876521 0)
(4.34511 -0.00868321 0)
(4.35044 -0.00858608 0)
(4.3557 -0.0084784 0)
(4.3609 -0.00836726 0)
(4.36602 -0.00826564 0)
(4.37106 -0.00819723 0)
(4.37586 -0.00820715 0)
(4.38173 -0.00835215 0)
(-0.113873 0.350247 0)
(-0.211925 0.499539 0)
(-0.329544 0.589221 0)
(-0.445354 0.641183 0)
(-0.557613 0.665404 0)
(-0.668895 0.671413 0)
(-0.779145 0.665771 0)
(-0.887615 0.652514 0)
(-0.993705 0.63429 0)
(-1.09698 0.612949 0)
(-1.19716 0.589837 0)
(-1.29406 0.565951 0)
(-1.38761 0.542024 0)
(-1.4778 0.518588 0)
(-1.5647 0.496022 0)
(-1.64839 0.474581 0)
(-1.72902 0.454429 0)
(-1.80675 0.435657 0)
(-1.88175 0.418302 0)
(-1.95422 0.40236 0)
(-2.02434 0.387799 0)
(-2.09231 0.374566 0)
(-2.15831 0.362592 0)
(-2.22252 0.351801 0)
(-2.28511 0.342106 0)
(-2.34626 0.333421 0)
(-2.4061 0.325658 0)
(-2.46478 0.318729 0)
(-2.52243 0.312551 0)
(-2.57916 0.307039 0)
(-2.63509 0.302114 0)
(-2.69031 0.297699 0)
(-2.74489 0.293718 0)
(-2.79892 0.290101 0)
(-2.85245 0.286778 0)
(-2.90553 0.283683 0)
(-2.9582 0.280751 0)
(-3.01049 0.27792 0)
(-3.0624 0.275128 0)
(-3.11396 0.272314 0)
(-3.16514 0.269417 0)
(-3.21594 0.266377 0)
(-3.2663 0.263132 0)
(-3.3162 0.259621 0)
(-3.36558 0.255782 0)
(-3.41435 0.25155 0)
(-3.46242 0.246862 0)
(-3.5097 0.24165 0)
(-3.55606 0.235847 0)
(-3.60135 0.229385 0)
(-3.64542 0.222194 0)
(-3.68809 0.214205 0)
(-3.72916 0.20535 0)
(-3.76841 0.195559 0)
(-3.80559 0.184767 0)
(-3.84045 0.172909 0)
(-3.87269 0.159925 0)
(-3.90204 0.145758 0)
(-3.92817 0.130359 0)
(-3.95072 0.113684 0)
(-3.96934 0.0956981 0)
(-3.98366 0.07637 0)
(-3.99335 0.0556596 0)
(-3.99807 0.0335317 0)
(-3.99733 0.0100063 0)
(-3.99059 -0.0147844 0)
(-3.97783 -0.0407219 0)
(-3.9586 -0.0678187 0)
(-3.93253 -0.0960831 0)
(-3.89926 -0.125501 0)
(-3.85843 -0.156037 0)
(-3.80968 -0.18763 0)
(-3.75268 -0.220198 0)
(-3.68709 -0.253633 0)
(-3.61263 -0.287804 0)
(-3.52903 -0.322551 0)
(-3.43609 -0.357682 0)
(-3.33363 -0.392982 0)
(-3.22157 -0.428222 0)
(-3.09985 -0.463162 0)
(-2.9685 -0.497521 0)
(-2.82763 -0.530991 0)
(-2.67745 -0.563292 0)
(-2.5182 -0.594151 0)
(-2.35026 -0.623233 0)
(-2.17411 -0.650245 0)
(-1.99022 -0.674986 0)
(-1.79923 -0.697143 0)
(-1.60183 -0.716483 0)
(-1.39866 -0.732951 0)
(-1.19066 -0.746307 0)
(-0.978383 -0.756675 0)
(-0.763011 -0.764089 0)
(-0.544969 -0.768696 0)
(-0.325398 -0.770868 0)
(-0.104546 -0.770289 0)
(0.116965 -0.766829 0)
(0.333031 -0.760129 0)
(0.544516 -0.749977 0)
(0.750575 -0.736612 0)
(0.950584 -0.720051 0)
(1.1443 -0.700592 0)
(1.33152 -0.678348 0)
(1.51241 -0.653672 0)
(1.68702 -0.627315 0)
(1.85515 -0.600007 0)
(2.01653 -0.572265 0)
(2.17092 -0.544441 0)
(2.31819 -0.516785 0)
(2.45828 -0.489482 0)
(2.59121 -0.462681 0)
(2.71707 -0.4365 0)
(2.83598 -0.411035 0)
(2.94811 -0.386364 0)
(3.05365 -0.362548 0)
(3.15282 -0.339631 0)
(3.24584 -0.317647 0)
(3.33296 -0.296614 0)
(3.41442 -0.276543 0)
(3.49046 -0.257435 0)
(3.56135 -0.239282 0)
(3.62733 -0.222074 0)
(3.68865 -0.205791 0)
(3.74555 -0.190413 0)
(3.79827 -0.175915 0)
(3.84705 -0.162271 0)
(3.89211 -0.149452 0)
(3.93367 -0.137429 0)
(3.97194 -0.126172 0)
(4.00713 -0.115649 0)
(4.03944 -0.10583 0)
(4.06906 -0.0966852 0)
(4.09616 -0.088183 0)
(4.12094 -0.0802935 0)
(4.14354 -0.0729873 0)
(4.16414 -0.066235 0)
(4.18288 -0.0600081 0)
(4.19991 -0.0542787 0)
(4.21537 -0.0490194 0)
(4.22938 -0.0442035 0)
(4.24207 -0.0398053 0)
(4.25356 -0.0357995 0)
(4.26396 -0.0321618 0)
(4.27336 -0.0288687 0)
(4.28187 -0.0258974 0)
(4.28957 -0.0232262 0)
(4.29655 -0.0208341 0)
(4.30288 -0.0187012 0)
(4.30865 -0.0168085 0)
(4.31391 -0.0151378 0)
(4.31874 -0.0136721 0)
(4.32318 -0.0123952 0)
(4.32729 -0.0112918 0)
(4.33113 -0.0103475 0)
(4.33473 -0.00954896 0)
(4.33814 -0.00888344 0)
(4.3414 -0.00833926 0)
(4.34454 -0.00790525 0)
(4.3476 -0.00757127 0)
(4.3506 -0.00732758 0)
(4.35357 -0.00716541 0)
(4.35653 -0.00707627 0)
(4.35951 -0.00705255 0)
(4.36253 -0.00708683 0)
(4.3656 -0.00717246 0)
(4.36875 -0.00730286 0)
(4.37197 -0.00747211 0)
(4.37529 -0.00767427 0)
(4.37871 -0.00790398 0)
(4.38225 -0.00815579 0)
(4.3859 -0.00842476 0)
(4.38968 -0.00870582 0)
(4.39358 -0.00899441 0)
(4.39761 -0.00928582 0)
(4.40176 -0.0095759 0)
(4.40604 -0.00986035 0)
(4.41044 -0.0101355 0)
(4.41496 -0.0103976 0)
(4.41958 -0.0106435 0)
(4.4243 -0.0108702 0)
(4.42912 -0.0110753 0)
(4.43401 -0.0112563 0)
(4.43897 -0.0114116 0)
(4.444 -0.0115397 0)
(4.44907 -0.0116397 0)
(4.45417 -0.0117108 0)
(4.4593 -0.0117528 0)
(4.46444 -0.0117656 0)
(4.46957 -0.01175 0)
(4.47469 -0.0117064 0)
(4.47979 -0.0116364 0)
(4.48486 -0.0115414 0)
(4.48987 -0.011424 0)
(4.49484 -0.0112869 0)
(4.49975 -0.0111351 0)
(4.50458 -0.010975 0)
(4.50933 -0.010817 0)
(4.51399 -0.0106773 0)
(4.5184 -0.0105784 0)
(4.52379 -0.0105313 0)
(-0.110173 0.490188 0)
(-0.207488 0.624411 0)
(-0.319366 0.702337 0)
(-0.427733 0.74837 0)
(-0.530431 0.769949 0)
(-0.630375 0.774099 0)
(-0.728279 0.766372 0)
(-0.823986 0.750636 0)
(-0.917254 0.729595 0)
(-1.00787 0.705196 0)
(-1.09568 0.678879 0)
(-1.18061 0.651718 0)
(-1.26262 0.624512 0)
(-1.34172 0.597848 0)
(-1.41798 0.572144 0)
(-1.49148 0.54769 0)
(-1.56234 0.524671 0)
(-1.63069 0.503196 0)
(-1.69669 0.483311 0)
(-1.76049 0.465016 0)
(-1.82226 0.448281 0)
(-1.88215 0.433048 0)
(-1.94033 0.419243 0)
(-1.99694 0.406782 0)
(-2.05213 0.395572 0)
(-2.10605 0.385513 0)
(-2.15881 0.376509 0)
(-2.21054 0.368461 0)
(-2.26136 0.361274 0)
(-2.31135 0.354854 0)
(-2.36062 0.34911 0)
(-2.40925 0.343955 0)
(-2.4573 0.339303 0)
(-2.50484 0.335074 0)
(-2.55192 0.331188 0)
(-2.59858 0.32757 0)
(-2.64486 0.324146 0)
(-2.69079 0.320843 0)
(-2.73637 0.317591 0)
(-2.78161 0.314318 0)
(-2.82651 0.310954 0)
(-2.87104 0.307429 0)
(-2.91519 0.303671 0)
(-2.9589 0.299608 0)
(-3.00213 0.295165 0)
(-3.04482 0.290268 0)
(-3.08687 0.284838 0)
(-3.12819 0.278798 0)
(-3.16868 0.272064 0)
(-3.2082 0.264556 0)
(-3.24661 0.256189 0)
(-3.28373 0.246879 0)
(-3.31938 0.236541 0)
(-3.35336 0.225092 0)
(-3.38544 0.21245 0)
(-3.41536 0.198537 0)
(-3.44286 0.183278 0)
(-3.46766 0.166604 0)
(-3.48944 0.148449 0)
(-3.50788 0.128762 0)
(-3.52262 0.107498 0)
(-3.53329 0.0846168 0)
(-3.53961 0.0600656 0)
(-3.5412 0.0338088 0)
(-3.53746 0.00590391 0)
(-3.52826 -0.02349 0)
(-3.51324 -0.0542692 0)
(-3.49206 -0.0864571 0)
(-3.46433 -0.120064 0)
(-3.4297 -0.155073 0)
(-3.38779 -0.191441 0)
(-3.33825 -0.229097 0)
(-3.28072 -0.267943 0)
(-3.2149 -0.307849 0)
(-3.14047 -0.348661 0)
(-3.05715 -0.390187 0)
(-2.96472 -0.432194 0)
(-2.86303 -0.47442 0)
(-2.75196 -0.516592 0)
(-2.63146 -0.558428 0)
(-2.5015 -0.599595 0)
(-2.36222 -0.639705 0)
(-2.21382 -0.678415 0)
(-2.05651 -0.715433 0)
(-1.89064 -0.750329 0)
(-1.71672 -0.782709 0)
(-1.53517 -0.812393 0)
(-1.34661 -0.838989 0)
(-1.1518 -0.862162 0)
(-0.951149 -0.882016 0)
(-0.746026 -0.898236 0)
(-0.53643 -0.910944 0)
(-0.324097 -0.920333 0)
(-0.109028 -0.926009 0)
(0.108462 -0.927933 0)
(0.322247 -0.925787 0)
(0.533546 -0.919424 0)
(0.740783 -0.90904 0)
(0.943386 -0.894808 0)
(1.14075 -0.876986 0)
(1.33235 -0.855759 0)
(1.51783 -0.831444 0)
(1.69701 -0.804329 0)
(1.86986 -0.774849 0)
(2.03636 -0.743653 0)
(2.19636 -0.711381 0)
(2.34965 -0.678552 0)
(2.49607 -0.645563 0)
(2.63553 -0.612718 0)
(2.76799 -0.580255 0)
(2.8935 -0.548367 0)
(3.01214 -0.517205 0)
(3.12405 -0.486892 0)
(3.2294 -0.457527 0)
(3.32838 -0.429185 0)
(3.42122 -0.40192 0)
(3.50813 -0.375773 0)
(3.58936 -0.350765 0)
(3.66514 -0.326909 0)
(3.73573 -0.304206 0)
(3.80137 -0.282646 0)
(3.86231 -0.262214 0)
(3.91879 -0.242889 0)
(3.97104 -0.224645 0)
(4.01929 -0.207451 0)
(4.06379 -0.191276 0)
(4.10473 -0.176086 0)
(4.14235 -0.161844 0)
(4.17684 -0.148516 0)
(4.20841 -0.136063 0)
(4.23724 -0.124449 0)
(4.26352 -0.113637 0)
(4.28744 -0.10359 0)
(4.30915 -0.0942733 0)
(4.32882 -0.0856502 0)
(4.3466 -0.0776859 0)
(4.36265 -0.0703462 0)
(4.3771 -0.0635976 0)
(4.39009 -0.0574074 0)
(4.40173 -0.0517437 0)
(4.41216 -0.0465755 0)
(4.42148 -0.0418726 0)
(4.42979 -0.0376059 0)
(4.4372 -0.0337473 0)
(4.4438 -0.0302697 0)
(4.44968 -0.0271469 0)
(4.45491 -0.0243541 0)
(4.45957 -0.0218674 0)
(4.46373 -0.0196643 0)
(4.46745 -0.017723 0)
(4.4708 -0.0160235 0)
(4.47383 -0.0145463 0)
(4.47658 -0.0132735 0)
(4.47912 -0.012188 0)
(4.48147 -0.0112739 0)
(4.48368 -0.0105162 0)
(4.48578 -0.00990103 0)
(4.48781 -0.00941526 0)
(4.4898 -0.00904689 0)
(4.49177 -0.00878445 0)
(4.49374 -0.00861756 0)
(4.49575 -0.00853622 0)
(4.49781 -0.00853143 0)
(4.49994 -0.00859444 0)
(4.50215 -0.00871738 0)
(4.50446 -0.00889245 0)
(4.50687 -0.00911264 0)
(4.50941 -0.00937089 0)
(4.51207 -0.0096608 0)
(4.51486 -0.00997586 0)
(4.5178 -0.0103102 0)
(4.52087 -0.0106576 0)
(4.52409 -0.0110127 0)
(4.52745 -0.0113698 0)
(4.53094 -0.0117239 0)
(4.53458 -0.0120698 0)
(4.53834 -0.0124031 0)
(4.54223 -0.0127192 0)
(4.54623 -0.0130144 0)
(4.55034 -0.0132851 0)
(4.55454 -0.0135283 0)
(4.55883 -0.0137413 0)
(4.56319 -0.0139222 0)
(4.56761 -0.0140692 0)
(4.57208 -0.0141814 0)
(4.57659 -0.0142579 0)
(4.58111 -0.0142988 0)
(4.58565 -0.0143042 0)
(4.59019 -0.0142751 0)
(4.59471 -0.0142125 0)
(4.59921 -0.0141182 0)
(4.60368 -0.0139942 0)
(4.60811 -0.0138435 0)
(4.61249 -0.0136693 0)
(4.61681 -0.0134763 0)
(4.62107 -0.0132701 0)
(4.62526 -0.0130584 0)
(4.62936 -0.0128499 0)
(4.63322 -0.0126489 0)
(4.63798 -0.0124407 0)
(-0.101456 0.622824 0)
(-0.194417 0.740727 0)
(-0.298669 0.806037 0)
(-0.397981 0.84459 0)
(-0.490494 0.861906 0)
(-0.579075 0.863109 0)
(-0.664867 0.852774 0)
(-0.748119 0.834429 0)
(-0.828858 0.810698 0)
(-0.907057 0.783535 0)
(-0.982689 0.754411 0)
(-1.05575 0.724435 0)
(-1.12625 0.694445 0)
(-1.19424 0.665056 0)
(-1.25978 0.636717 0)
(-1.32297 0.609735 0)
(-1.3839 0.584315 0)
(-1.44271 0.560575 0)
(-1.49952 0.538568 0)
(-1.55447 0.518299 0)
(-1.60768 0.499735 0)
(-1.65931 0.482818 0)
(-1.70947 0.46747 0)
(-1.7583 0.453597 0)
(-1.80592 0.441101 0)
(-1.85244 0.429875 0)
(-1.89798 0.419813 0)
(-1.94263 0.410808 0)
(-1.98649 0.402756 0)
(-2.02964 0.395553 0)
(-2.07215 0.389102 0)
(-2.1141 0.383304 0)
(-2.15554 0.378067 0)
(-2.19653 0.373302 0)
(-2.23711 0.368922 0)
(-2.27732 0.364842 0)
(-2.31717 0.360983 0)
(-2.3567 0.357261 0)
(-2.39592 0.3536 0)
(-2.43482 0.34992 0)
(-2.47341 0.346142 0)
(-2.51166 0.342188 0)
(-2.54954 0.337976 0)
(-2.58704 0.333424 0)
(-2.62409 0.328449 0)
(-2.66064 0.322965 0)
(-2.69661 0.316883 0)
(-2.73192 0.310111 0)
(-2.76647 0.302557 0)
(-2.80013 0.294123 0)
(-2.83278 0.284714 0)
(-2.86425 0.274229 0)
(-2.89438 0.262569 0)
(-2.92297 0.249637 0)
(-2.9498 0.235336 0)
(-2.97464 0.219573 0)
(-2.99724 0.202258 0)
(-3.01732 0.183309 0)
(-3.03459 0.162649 0)
(-3.04873 0.140213 0)
(-3.05938 0.115949 0)
(-3.06623 0.0898057 0)
(-3.06898 0.0617145 0)
(-3.06724 0.03164 0)
(-3.06034 -0.000304556 0)
(-3.04842 -0.0339358 0)
(-3.03096 -0.0691948 0)
(-3.00764 -0.106112 0)
(-2.97808 -0.144698 0)
(-2.9419 -0.184934 0)
(-2.89874 -0.226767 0)
(-2.84824 -0.270119 0)
(-2.79005 -0.314874 0)
(-2.72383 -0.360884 0)
(-2.64929 -0.407974 0)
(-2.56612 -0.455926 0)
(-2.47409 -0.504461 0)
(-2.37302 -0.55327 0)
(-2.26284 -0.602034 0)
(-2.14346 -0.650444 0)
(-2.01481 -0.698122 0)
(-1.87703 -0.744578 0)
(-1.73036 -0.789402 0)
(-1.57494 -0.832307 0)
(-1.41109 -0.872772 0)