/*--------------------------------*- C++ -*----------------------------------*\
  =========                 |
  \\      /  F ield         | OpenFOAM: The Open Source CFD Toolbox
   \\    /   O peration     | Website:  https://openfoam.org
    \\  /    A nd           | Version:  7
     \\/     M anipulation  |
\*---------------------------------------------------------------------------*/
FoamFile
{
    version     2.0;
    format      ascii;
    class       volScalarField;
    location    "1000";
    object      epsilon;
}
// * * * * * * * * * * * * * * * * * * * * * * * * * * * * * * * * * * * * * //

dimensions      [0 2 -3 0 0 0 0];

internalField   nonuniform List<scalar> 
16900
(
0.769047
1.48191
2.35017
3.15258
3.8841
4.54644
5.14462
5.68365
6.16607
6.5917
6.9578
7.26106
7.50107
7.68613
7.83948
8.00125
35.0959
35.9558
35.9404
36.7079
40.6123
44.8441
49.3559
54.1447
59.213
64.5643
70.2038
76.1365
82.3671
88.8995
95.7366
102.88
110.332
118.091
126.155
134.522
143.189
152.148
161.394
170.919
180.712
190.764
201.06
211.589
222.334
233.278
244.405
255.694
267.124
278.673
290.317
302.032
313.791
325.568
337.335
349.063
360.725
372.294
383.744
395.054
406.206
417.19
428.008
438.679
449.249
459.704
469.834
479.629
489.078
498.166
506.879
515.203
523.126
530.635
537.719
544.369
550.575
556.33
561.627
566.46
570.826
574.72
578.143
581.094
583.573
585.583
587.128
588.212
588.84
589.019
588.759
588.067
586.954
585.431
583.509
581.201
578.52
575.48
572.097
568.385
564.358
560.032
555.426
550.555
545.435
540.081
534.512
528.746
522.797
516.68
510.412
504.013
497.496
490.871
484.156
477.372
470.526
463.624
456.695
449.75
442.779
435.809
428.871
421.943
415.019
408.147
401.385
394.739
388.457
383.374
379.77
376.468
373.248
370.075
366.941
363.843
360.783
357.759
354.774
351.827
348.921
346.055
343.231
340.449
337.709
335.01
332.353
329.736
327.157
324.616
322.111
319.639
317.197
314.782
312.393
310.024
307.672
305.333
303.003
300.678
298.353
296.024
293.687
291.336
288.968
286.579
284.164
281.72
279.243
276.73
274.178
271.586
268.951
266.273
263.55
260.782
257.969
255.112
252.213
249.274
246.295
243.282
240.236
237.161
234.061
230.94
227.804
224.657
221.503
218.35
215.203
212.068
208.953
205.867
202.82
199.829
196.918
194.137
191.604
189.793
1.64626
1.60006
2.1834
2.84052
3.47934
4.08403
4.66006
5.21938
5.77691
6.35022
6.96298
7.64919
8.46334
9.49974
10.9363
13.1387
16.9399
18.6936
20.4893
22.3395
24.4571
26.6902
29.0299
31.4868
34.0644
36.7648
39.5895
42.5398
45.6162
48.819
52.1479
55.6023
59.1808
62.8818
66.7029
70.6415
74.6943
78.8576
83.1269
87.4976
91.9643
96.5212
101.162
105.88
110.669
115.519
120.425
125.377
130.366
135.384
140.422
145.47
150.519
155.56
160.583
165.58
170.541
175.46
180.329
185.144
189.901
194.598
199.239
203.829
208.38
212.904
217.312
221.59
225.731
229.731
233.582
237.278
240.815
244.188
247.391
250.42
253.272
255.943
258.429
260.728
262.839
264.758
266.486
268.022
269.364
270.515
271.474
272.243
272.822
273.216
273.425
273.454
273.305
272.982
272.489
271.832
271.014
270.04
268.917
267.649
266.243
264.704
263.038
261.252
259.352
257.345
255.236
253.033
250.742
248.369
245.921
243.404
240.824
238.188
235.501
232.77
230
227.196
224.363
221.509
218.636
215.744
212.848
209.95
207.034
204.114
201.246
198.423
195.711
193.23
191.056
188.997
186.992
185.022
183.079
181.162
179.27
177.402
175.559
173.741
171.948
170.179
168.436
166.719
165.026
163.357
161.713
160.093
158.496
156.92
155.366
153.832
152.317
150.819
149.336
147.869
146.413
144.969
143.533
142.105
140.682
139.262
137.844
136.425
135.004
133.579
132.149
130.711
129.265
127.809
126.343
124.865
123.374
121.871
120.356
118.827
117.286
115.733
114.168
112.593
111.008
109.415
107.815
106.21
104.601
102.991
101.381
99.7734
98.17
96.5731
94.985
93.4078
91.8439
90.2955
88.7649
87.2542
85.7651
84.2998
82.8732
81.5918
2.35197
1.9316
2.3688
2.95301
3.56293
4.16996
4.77558
5.39323
6.04119
6.74113
7.51758
8.39899
9.41642
10.6029
11.9911
13.6051
15.4119
17.0816
18.8196
20.6101
22.4542
24.3754
26.387
28.4957
30.7037
33.0119
35.4214
37.9325
40.5457
43.2609
46.0779
48.996
52.0142
55.131
58.3449
61.6536
65.0546
68.5449
72.1213
75.7801
79.5172
83.328
87.208
91.1518
95.1542
99.2094
103.311
107.454
111.632
115.837
120.063
124.304
128.553
132.803
137.048
141.28
145.494
149.683
153.842
157.967
162.052
166.095
170.093
174.046
177.954
181.792
185.536
189.175
192.703
196.115
199.406
202.57
205.603
208.501
211.259
213.873
216.34
218.657
220.821
222.829
224.68
226.372
227.903
229.273
230.481
231.528
232.415
233.141
233.708
234.117
234.372
234.473
234.424
234.228
233.888
233.408
232.791
232.041
231.164
230.163
229.044
227.811
226.469
225.023
223.48
221.843
220.118
218.311
216.428
214.473
212.451
210.368
208.23
206.042
203.807
201.53
199.22
196.876
194.502
192.109
189.698
187.257
184.815
182.377
179.935
177.495
175.08
172.695
170.368
168.14
166.032
163.995
162.003
160.044
158.113
156.208
154.329
152.474
150.645
148.841
147.061
145.307
143.578
141.874
140.194
138.539
136.907
135.299
133.714
132.151
130.609
129.088
127.585
126.101
124.633
123.182
121.744
120.32
118.906
117.504
116.109
114.722
113.341
111.964
110.59
109.217
107.846
106.474
105.1
103.725
102.346
100.964
99.5782
98.1882
96.794
95.3958
93.9939
92.5886
91.1805
89.7704
88.3591
86.9476
85.537
84.1286
82.7236
81.3233
79.9293
78.543
77.1658
75.7993
74.4451
73.1044
71.7789
70.4696
69.1777
67.9037
66.6477
65.4107
64.2099
63.1666
2.90132
2.2446
2.58922
3.124
3.71654
4.33192
4.96695
5.63235
6.34435
7.121
7.98048
8.93936
10.0106
11.2017
12.5146
13.9471
15.4733
17.049
18.6943
20.4055
22.1829
24.0376
25.9786
28.0113
30.1386
32.3619
34.6826
37.1016
39.6195
42.2368
44.9536
47.7698
50.685
53.6983
56.8087
60.0146
63.3142
66.7052
70.1849
73.7503
77.398
81.1241
84.9246
88.7949
92.7302
96.7256
100.776
104.875
109.018
113.198
117.41
121.647
125.903
130.172
134.447
138.722
142.989
147.243
151.477
155.685
159.86
163.997
168.091
172.136
176.118
180.018
183.823
187.524
191.114
194.589
197.943
201.169
204.264
207.222
210.039
212.711
215.234
217.604
219.82
221.877
223.775
225.51
227.083
228.491
229.735
230.815
231.731
232.484
233.075
233.506
233.778
233.895
233.859
233.673
233.341
232.865
232.251
231.502
230.623
229.619
228.494
227.254
225.903
224.446
222.891
221.241
219.501
217.678
215.777
213.804
211.763
209.66
207.5
205.291
203.032
200.731
198.396
196.029
193.62
191.201
188.769
186.32
183.865
181.411
178.957
176.509
174.077
171.669
169.3
166.988
164.743
162.547
160.39
158.266
156.17
154.103
152.063
150.051
148.066
146.109
144.179
142.277
140.402
138.555
136.736
134.943
133.176
131.435
129.72
128.03
126.363
124.719
123.097
121.496
119.915
118.353
116.808
115.279
113.765
112.265
110.777
109.3
107.832
106.374
104.922
103.477
102.037
100.602
99.1697
97.7405
96.3135
94.8882
93.4645
92.0421
90.6209
89.2012
87.7832
86.3673
84.9541
83.5441
82.1381
80.7371
79.3421
77.9539
76.5738
75.203
73.8426
72.4938
71.158
69.8363
68.53
67.2402
65.9679
64.714
63.4792
62.2638
61.0681
59.8955
58.7704
57.8302
3.35003
2.51134
2.78943
3.28703
3.8646
4.484
5.13822
5.83431
6.58478
7.40328
8.30236
9.2919
10.3778
11.5613
12.8402
14.2114
15.6658
17.1952
18.8018
20.4859
22.2493
24.0965
26.0328
28.0624
30.1883
32.4127
34.7374
37.1641
39.694
42.3284
45.068
47.9136
50.8654
53.9233
57.0871
60.3558
63.7283
67.2031
70.7779
74.4505
78.2177
82.0764
86.0226
90.0522
94.1607
98.3432
102.595
106.909
111.282
115.706
120.176
124.685
129.227
133.794
138.38
142.978
147.579
152.176
156.761
161.325
165.86
170.358
174.811
179.207
183.524
187.748
191.87
195.88
199.773
203.54
207.176
210.675
214.031
217.239
220.293
223.19
225.924
228.492
230.892
233.119
235.172
237.049
238.748
240.268
241.609
242.772
243.756
244.563
245.194
245.651
245.936
246.051
246.001
245.789
245.419
244.894
244.219
243.398
242.437
241.341
240.115
238.765
237.296
235.713
234.025
232.236
230.35
228.374
226.317
224.183
221.976
219.7
217.366
214.981
212.542
210.053
207.536
204.989
202.411
199.815
197.205
194.583
191.955
189.327
186.7
184.081
181.475
178.889
176.334
173.82
171.351
168.922
166.527
164.165
161.834
159.533
157.262
155.022
152.813
150.634
148.487
146.371
144.287
142.233
140.211
138.219
136.257
134.326
132.423
130.549
128.702
126.883
125.089
123.32
121.575
119.853
118.152
116.471
114.81
113.166
111.538
109.927
108.329
106.744
105.17
103.608
102.055
100.511
98.9756
97.4473
95.9259
94.411
92.9022
91.3995
89.9027
88.4121
86.9277
85.4501
83.9796
82.5169
81.0627
79.6177
78.1828
76.759
75.3472
73.9485
72.564
71.1947
69.8416
68.506
67.1887
65.8908
64.613
63.356
62.1205
60.9066
59.7154
58.5525
57.4489
56.5517
3.71988
2.72975
2.95438
3.42116
3.98321
4.60028
5.26252
5.97367
6.7428
7.57997
8.49408
9.49171
10.5765
11.7491
13.0086
14.354
15.7829
17.2942
18.8893
20.5701
22.3386
24.198
26.152
28.2042
30.3581
32.6163
34.9816
37.4563
40.0426
42.7427
45.5583
48.4909
51.5418
54.7117
58.0012
61.4103
64.9386
68.5851
72.3484
76.2266
80.2172
84.3172
88.523
92.8307
97.2357
101.733
106.318
110.984
115.725
120.535
125.408
130.336
135.313
140.329
145.379
150.451
155.539
160.631
165.718
170.79
175.835
180.842
185.802
190.686
195.478
200.167
204.741
209.192
213.512
217.692
221.726
225.607
229.327
232.881
236.264
239.469
242.493
245.331
247.979
250.435
252.696
254.759
256.623
258.288
259.752
261.017
262.084
262.953
263.626
264.105
264.393
264.494
264.411
264.148
263.71
263.101
262.327
261.392
260.302
259.065
257.685
256.168
254.521
252.75
250.863
248.867
246.766
244.565
242.276
239.905
237.456
234.925
232.34
229.701
227.009
224.271
221.498
218.693
215.861
213.009
210.142
207.265
204.381
201.497
198.617
195.744
192.885
190.044
187.229
184.449
181.704
178.995
176.32
173.677
171.068
168.491
165.948
163.439
160.965
158.526
156.122
153.754
151.422
149.125
146.863
144.637
142.446
140.29
138.167
136.077
134.02
131.994
129.999
128.034
126.097
124.188
122.305
120.447
118.613
116.801
115.011
113.241
111.49
109.756
108.039
106.338
104.651
102.978
101.317
99.6691
98.0324
96.4069
94.7922
93.188
91.5944
90.0113
88.439
86.8777
85.3278
83.7899
82.2646
80.7525
79.2544
77.7712
76.3038
74.853
73.4198
72.0051
70.61
69.2353
67.8819
66.5506
65.2421
63.9569
62.6955
61.4583
60.247
59.0694
57.961
57.0763
4.0233
2.90309
3.08087
3.51955
4.06446
4.67329
5.33413
6.04817
6.82184
7.66276
8.57772
9.57178
10.6482
11.8084
13.0532
14.3834
15.7996
17.3032
18.8963
20.5817
22.3619
24.24
26.2196
28.3044
30.4984
32.8051
35.228
37.7705
40.4359
43.2273
46.1475
49.1992
52.3846
55.7056
59.1637
62.7597
66.4942
70.3669
74.3772
78.5234
82.8037
87.2153
91.7548
96.4182
101.201
106.098
111.104
116.211
121.415
126.708
132.081
137.528
143.041
148.609
154.224
159.876
165.554
171.246
176.939
182.62
188.277
193.893
199.452
204.917
210.277
215.518
220.631
225.605
230.43
235.097
239.599
243.926
248.072
252.029
255.791
259.352
262.707
265.853
268.783
271.496
273.989
276.258
278.303
280.123
281.717
283.088
284.235
285.161
285.867
286.357
286.633
286.7
286.562
286.224
285.692
284.97
284.064
282.98
281.726
280.308
278.733
277.009
275.14
273.134
271.003
268.753
266.389
263.909
261.34
258.684
255.946
253.129
250.248
247.308
244.316
241.276
238.198
235.087
231.949
228.79
225.616
222.431
219.242
216.052
212.867
209.691
206.529
203.385
200.267
197.179
194.125
191.104
188.118
185.166
182.25
179.37
176.527
173.723
170.957
168.231
165.545
162.899
160.294
157.73
155.207
152.723
150.281
147.877
145.513
143.188
140.9
138.65
136.435
134.256
132.11
129.998
127.917
125.867
123.845
121.852
119.886
117.945
116.028
114.134
112.262
110.41
108.578
106.765
104.97
103.192
101.43
99.684
97.9536
96.2385
94.5384
92.8533
91.1834
89.5287
87.8897
86.2666
84.6601
83.0707
81.4991
79.9459
78.4121
76.8982
75.4053
73.9341
72.4854
71.0601
69.6588
68.2822
66.931
65.6055
64.3061
63.0336
61.79
60.585
59.4575
58.5678
4.26919
3.03617
3.1706
3.58207
4.10786
4.70355
5.35572
6.06367
6.83201
7.66677
8.5736
9.55707
10.6205
11.7665
12.997
14.3144
15.7208
17.2191
18.8124
20.5039
22.297
24.1955
26.2034
28.325
30.5649
32.9277
35.4179
38.0402
40.7988
43.6983
46.7426
49.9355
53.2806
56.7808
60.4388
64.2564
68.2351
72.3754
76.6771
81.1396
85.761
90.5388
95.4699
100.55
105.775
111.138
116.634
122.255
127.995
133.844
139.796
145.84
151.966
158.166
164.427
170.738
177.085
183.456
189.834
196.203
202.546
208.847
215.065
221.174
227.162
233.016
238.723
244.272
249.651
254.851
259.862
264.674
269.278
273.668
277.836
281.775
285.481
288.948
292.173
295.151
297.879
300.355
302.579
304.549
306.266
307.731
308.946
309.913
310.634
311.114
311.355
311.364
311.145
310.704
310.047
309.181
308.112
306.847
305.393
303.76
301.956
299.987
297.859
295.58
293.169
290.629
287.967
285.188
282.309
279.335
276.275
273.134
269.923
266.65
263.321
259.944
256.526
253.074
249.595
246.094
242.578
239.053
235.523
231.994
228.471
224.959
221.462
217.984
214.533
211.111
207.723
204.369
201.051
197.771
194.529
191.327
188.166
185.048
181.973
178.943
175.958
173.019
170.126
167.278
164.477
161.723
159.014
156.351
153.732
151.158
148.628
146.141
143.696
141.292
138.928
136.603
134.315
132.064
129.848
127.665
125.516
123.397
121.308
119.248
117.216
115.209
113.228
111.27
109.336
107.424
105.534
103.664
101.815
99.9855
98.1759
96.3858
94.6151
92.864
91.1326
89.4212
87.7301
86.0599
84.4111
82.7843
81.18
79.5991
78.0421
76.5098
75.0029
73.5221
72.0679
70.6409
69.2415
67.8701
66.5271
65.2132
63.9313
62.692
61.5372
60.6321
4.46492
3.13416
3.2275
3.61171
4.11648
4.69522
5.33328
6.02868
6.78475
7.60654
8.49917
9.46707
10.5141
11.6435
12.8585
14.1624
15.5588
17.0514
18.6442
20.3415
22.1474
24.0666
26.1041
28.265
30.555
32.9797
35.5451
38.2569
41.1209
44.1428
47.3281
50.682
54.2092
57.9141
61.8004
65.871
70.1284
74.5739
79.2081
84.0305
89.0398
94.2337
99.6088
105.161
110.884
116.774
122.821
129.02
135.36
141.833
148.428
155.135
161.944
168.841
175.814
182.849
189.931
197.043
204.166
211.282
218.369
225.4
232.32
239.115
245.77
252.272
258.606
264.759
270.719
276.474
282.013
287.325
292.401
297.231
301.81
306.129
310.184
313.969
317.481
320.714
323.666
326.334
328.718
330.818
332.636
334.173
335.431
336.412
337.121
337.561
337.738
337.657
337.326
336.749
335.935
334.892
333.627
332.146
330.457
328.575
326.509
324.265
321.852
319.279
316.56
313.704
310.718
307.611
304.394
301.077
297.668
294.175
290.609
286.976
283.286
279.545
275.763
271.945
268.1
264.233
260.352
256.462
252.569
248.678
244.796
240.925
237.072
233.241
229.438
225.665
221.927
218.226
214.564
210.943
207.363
203.828
200.339
196.897
193.503
190.159
186.866
183.624
180.433
177.294
174.208
171.173
168.191
165.26
162.381
159.552
156.773
154.044
151.362
148.729
146.141
143.599
141.101
138.645
136.231
133.857
131.522
129.224
126.962
124.735
122.541
120.379
118.247
116.146
114.073
112.028
110.009
108.017
106.049
104.107
102.189
100.294
98.4242
96.5776
94.7548
92.9559
91.1811
89.4308
87.7052
86.005
84.3305
82.6824
81.0611
79.4673
77.9015
76.3642
74.856
73.3771
71.928
70.5089
69.1202
67.7627
66.4397
65.1627
63.9758
63.0488
4.61683
3.20212
3.25621
3.61291
4.09502
4.6539
5.27391
5.95214
6.69108
7.4952
8.36934
9.31814
10.3459
11.4566
12.6544
13.9437
15.329
16.815
18.4067
20.1094
21.9284
23.8695
25.9386
28.1424
30.4877
32.9814
35.631
38.4436
41.4267
44.5873
47.9326
51.4692
55.2033
59.1404
63.2857
67.6433
72.2163
77.0071
82.0166
87.2448
92.6906
98.3514
104.224
110.303
116.583
123.057
129.717
136.553
143.555
150.713
158.014
165.445
172.995
180.647
188.389
196.203
204.071
211.975
219.892
227.799
235.672
243.446
251.093
258.595
265.936
273.1
280.072
286.838
293.383
299.695
305.76
311.566
317.103
322.362
327.336
332.018
336.401
340.482
344.256
347.718
350.864
353.693
356.205
358.403
360.286
361.86
363.125
364.084
364.742
365.105
365.18
364.973
364.49
363.74
362.733
361.477
359.982
358.255
356.305
354.148
351.791
349.246
346.521
343.627
340.577
337.379
334.045
330.585
327.009
323.326
319.548
315.682
311.74
307.729
303.658
299.536
295.371
291.171
286.943
282.695
278.433
274.164
269.894
265.628
261.372
257.132
252.911
248.715
244.549
240.417
236.322
232.267
228.254
224.286
220.365
216.492
212.67
208.9
205.183
201.522
197.917
194.368
190.878
187.445
184.07
180.754
177.496
174.296
171.153
168.068
165.04
162.067
159.149
156.285
153.474
150.715
148.007
145.348
142.737
140.173
137.653
135.178
132.745
130.353
128
125.685
123.407
121.165
118.957
116.782
114.639
112.528
110.446
108.394
106.372
104.378
102.412
100.474
98.5631
96.6804
94.8255
92.9984
91.1994
89.4289
87.687
85.9743
84.2912
82.638
81.0151
79.423
77.862
76.3324
74.8343
73.368
71.9338
70.5326
69.1679
67.852
66.6304
65.6776
4.73065
3.2448
3.2615
3.59049
4.04868
4.58559
5.18476
5.84263
6.56113
7.34437
8.19717
9.12439
10.1308
11.2214
12.4009
13.6748
15.0485
16.5279
18.1191
19.8285
21.6628
23.6291
25.7348
27.988
30.397
32.9704
35.7172
38.6464
41.767
45.0879
48.6177
52.3647
56.3365
60.5402
64.982
69.6672
74.5999
79.783
85.2179
90.9045
96.8416
103.026
109.455
116.121
123.019
130.14
137.474
145.011
152.738
160.641
168.706
176.918
185.263
193.723
202.281
210.919
219.614
228.346
237.089
245.814
254.475
263.002
271.379
279.588
287.611
295.43
303.029
310.392
317.505
324.353
330.92
337.193
343.161
348.816
354.15
359.155
363.828
368.163
372.157
375.804
379.098
382.042
384.637
386.884
388.786
390.349
391.574
392.463
393.025
393.266
393.195
392.819
392.145
391.185
389.949
388.447
386.688
384.683
382.443
379.98
377.306
374.432
371.369
368.129
364.724
361.164
357.461
353.627
349.672
345.607
341.443
337.189
332.855
328.452
323.988
319.473
314.915
310.323
305.703
301.065
296.414
291.759
287.105
282.458
277.824
273.208
268.616
264.052
259.521
255.027
250.574
246.164
241.801
237.488
233.225
229.016
224.863
220.767
216.73
212.754
208.839
204.987
201.199
197.475
193.815
190.219
186.689
183.223
179.821
176.483
173.208
169.995
166.844
163.754
160.724
157.753
154.839
151.98
149.177
146.427
143.729
141.081
138.482
135.931
133.425
130.963
128.545
126.167
123.83
121.532
119.271
117.046
114.857
112.702
110.581
108.493
106.438
104.414
102.422
100.461
98.5318
96.6334
94.7662
92.9303
91.1258
89.353
87.6121
85.9034
84.2272
82.5836
80.9729
79.3952
77.8507
76.3393
74.8613
73.4177
72.0121
70.6574
69.4002
68.4193
4.81156
3.26652
3.24787
3.5492
3.98262
4.49612
5.07263
5.70808
6.40403
7.16445
7.99422
8.89857
9.88286
10.9527
12.114
13.373
14.7363
16.211
17.8046
19.5249
21.38
23.3788
25.5303
27.8444
30.3311
33.0009
35.8649
38.9338
42.2186
45.73
49.4784
53.4734
57.7244
62.2397
67.0268
72.0919
77.4399
83.0742
88.9961
95.205
101.699
108.475
115.527
122.849
130.433
138.269
146.345
154.648
163.163
171.873
180.76
189.807
198.996
208.307
217.721
227.215
236.765
246.347
255.931
265.48
274.898
284.162
293.25
302.143
310.82
319.263
327.454
335.376
343.014
350.354
357.377
364.066
370.412
376.407
382.043
387.315
392.216
396.744
400.9
404.67
408.051
411.049
413.664
415.901
417.763
419.255
420.381
421.148
421.563
421.634
421.37
420.781
419.875
418.665
417.16
415.373
413.315
410.998
408.435
405.637
402.617
399.388
395.962
392.353
388.571
384.629
380.54
376.315
371.967
367.506
362.943
358.29
353.557
348.753
343.89
338.975
334.019
329.03
324.017
318.986
313.946
308.904
303.866
298.839
293.829
288.84
283.879
278.95
274.058
269.207
264.402
259.644
254.937
250.284
245.688
241.15
236.673
232.259
227.909
223.626
219.41
215.263
211.185
207.177
203.24
199.373
195.578
191.853
188.2
184.616
181.103
177.658
174.282
170.974
167.732
164.555
161.443
158.394
155.406
152.478
149.609
146.797
144.04
141.337
138.686
136.086
133.535
131.031
128.573
126.159
123.788
121.459
119.17
116.921
114.709
112.535
110.398
108.296
106.23
104.199
102.202
100.239
98.3099
96.4149
94.5539
92.7268
90.9337
89.1748
87.45
85.7595
84.1033
82.4815
80.8939
79.3406
77.8216
76.3381
74.8935
73.501
72.2085
71.1984
4.86433
3.27112
3.21938
3.49339
3.90166
4.39097
4.94379
5.55572
6.22812
6.96491
7.7712
8.65262
9.61524
10.6655
11.8103
13.0571
14.4138
15.889
17.4915
19.231
21.1176
23.1618
25.375
27.7688
30.3556
33.148
36.1592
39.4022
42.8901
46.6356
50.6506
54.9463
59.5334
64.4215
69.619
75.1329
80.9686
87.1297
93.6167
100.428
107.559
115.007
122.763
130.821
139.169
147.795
156.685
165.825
175.195
184.772
194.536
204.465
214.54
224.736
235.031
245.4
255.814
266.246
276.663
286.975
297.12
307.081
316.834
326.36
335.638
344.646
353.366
361.78
369.873
377.638
385.043
392.072
398.718
404.975
410.836
416.294
421.344
425.985
430.214
434.026
437.42
440.399
442.965
445.123
446.878
448.237
449.205
449.79
450
449.845
449.336
448.482
447.296
445.79
443.974
441.863
439.468
436.804
433.883
430.72
427.326
423.716
419.904
415.904
411.726
407.386
402.896
398.268
393.515
388.649
383.681
378.623
373.486
368.28
363.015
357.702
352.349
346.966
341.562
336.144
330.72
325.297
319.883
314.484
309.105
303.752
298.432
293.148
287.905
282.709
277.562
272.467
267.429
262.45
257.532
252.678
247.891
243.172
238.522
233.945
229.441
225.011
220.656
216.377
212.175
208.05
204.002
200.032
196.138
192.321
188.581
184.916
181.326
177.81
174.368
170.998
167.698
164.469
161.307
158.212
155.183
152.216
149.312
146.468
143.683
140.954
138.28
135.66
133.091
130.571
128.101
125.676
123.298
120.963
118.671
116.42
114.21
112.039
109.907
107.814
105.757
103.738
101.755
99.8084
97.8979
96.0233
94.1845
92.3814
90.6139
88.8819
87.1853
85.524
83.8978
82.3064
80.7501
79.2296
77.7486
76.3204
74.9935
73.9539
4.8933
3.26198
3.17961
3.42702
3.8102
4.27515
4.80403
5.39229
6.04119
6.75478
7.53848
8.39855
9.34183
10.3758
11.5086
12.7491
14.1067
15.5918
17.2152
18.9886
20.9244
23.0356
25.3359
27.8394
30.5609
33.5157
36.7192
40.1872
43.935
47.9773
52.3275
56.9979
62.0001
67.3447
73.0406
79.0951
85.5136
92.2993
99.4518
106.965
114.833
123.049
131.606
140.491
149.69
159.19
168.972
179.019
189.313
199.814
210.501
221.351
232.339
243.439
254.623
265.861
277.123
288.376
299.542
310.557
321.363
331.947
342.289
352.367
362.158
371.642
380.798
389.609
398.057
406.131
413.809
421.077
427.925
434.346
440.333
445.881
450.986
455.645
459.859
463.625
466.944
469.818
472.252
474.251
475.822
476.973
477.711
478.046
477.987
477.544
476.731
475.558
474.039
472.188
470.016
467.538
464.768
461.72
458.41
454.851
451.057
447.043
442.824
438.414
433.826
429.074
424.172
419.133
413.969
408.694
403.318
397.855
392.315
386.71
381.049
375.343
369.601
363.833
358.048
352.253
346.456
340.666
334.889
329.131
323.398
317.697
312.033
306.41
300.834
295.308
289.837
284.424
279.072
273.785
268.564
263.412
258.332
253.326
248.395
243.542
238.767
234.072
229.458
224.926
220.476
216.109
211.825
207.625
203.507
199.473
195.521
191.651
187.862
184.154
180.525
176.975
173.502
170.106
166.784
163.535
160.358
157.251
154.212
151.239
148.331
145.486
142.702
139.976
137.308
134.695
132.135
129.627
127.169
124.759
122.397
120.08
117.807
115.577
113.389
111.242
109.136
107.069
105.04
103.05
101.098
99.1835
97.306
95.4655
93.6616
91.8941
90.1628
88.4673
86.8073
85.1825
83.5928
82.0391
80.5248
79.0633
77.7037
76.6351
4.90248
3.24204
3.13168
3.35356
3.71225
4.15332
4.65885
5.22428
5.85095
6.5432
7.30698
8.14932
9.07815
10.1022
11.2313
12.4758
13.8474
15.3587
17.0228
18.8541
20.8677
23.0798
25.5071
28.1667
31.0759
34.2529
37.7162
41.4841
45.5746
50.0047
54.7882
59.9375
65.4648
71.3809
77.6943
84.4115
91.537
99.0737
107.02
115.359
124.083
133.185
142.652
152.468
162.615
173.075
183.826
194.849
206.131
217.6
229.243
241.033
252.94
264.935
276.985
289.057
301.114
313.077
324.865
336.459
347.818
358.919
369.739
380.253
390.44
400.279
409.749
418.831
427.511
435.773
443.603
450.985
457.912
464.375
470.369
475.889
480.933
485.5
489.59
493.205
496.346
499.016
501.223
502.972
504.271
505.131
505.56
505.569
505.17
504.373
503.193
501.643
499.737
497.49
494.916
492.029
488.845
485.38
481.649
477.667
473.449
469.011
464.367
459.533
454.523
449.351
444.031
438.577
433.002
427.319
421.54
415.678
409.743
403.747
397.7
391.614
385.496
379.358
373.208
367.053
360.902
354.763
348.642
342.545
336.48
330.452
324.465
318.526
312.638
306.806
301.035
295.326
289.684
284.111
278.61
273.184
267.835
262.565
257.375
252.268
247.245
242.308
237.456
232.692
228.016
223.428
218.929
214.518
210.197
205.964
201.819
197.762
193.793
189.91
186.112
182.4
178.77
175.223
171.757
168.369
165.06
161.827
158.667
155.58
152.564
149.616
146.734
143.917
141.162
138.468
135.831
133.252
130.726
128.254
125.832
123.46
121.135
118.856
116.623
114.433
112.286
110.18
108.115
106.09
104.105
102.158
100.249
98.3786
96.5452
94.7487
92.9887
91.2647
89.5762
87.9228
86.3042
84.7212
83.1772
81.6853
80.2952
79.1986
4.89556
3.21384
3.07829
3.27616
3.61152
4.02998
4.51375
5.05842
5.66567
6.34035
7.08923
7.92048
8.84343
9.8686
11.0077
12.2736
13.6807
15.2444
16.9811
18.9083
21.045
23.4112
26.0276
28.9147
32.0926
35.5828
39.4068
43.5857
48.1401
53.0901
58.4479
64.2232
70.4285
77.0733
84.1643
91.7052
99.6979
108.145
117.048
126.361
136.084
146.204
156.702
167.559
178.751
190.253
202.04
214.084
226.356
238.808
251.407
264.122
276.916
289.756
302.607
315.426
328.13
340.633
352.919
364.962
376.733
388.203
399.349
410.147
420.574
430.611
440.237
449.435
458.19
466.488
474.316
481.663
488.519
494.879
500.738
506.092
510.942
515.287
519.129
522.472
525.319
527.675
529.549
530.947
531.88
532.358
532.393
531.997
531.182
529.962
528.351
526.364
524.017
521.325
518.303
514.967
511.333
507.419
503.24
498.811
494.15
489.271
484.191
478.924
473.486
467.891
462.153
456.287
450.306
444.223
438.05
431.8
425.484
419.113
412.698
406.25
399.778
393.29
386.797
380.306
373.825
367.362
360.923
354.515
348.144
341.815
335.535
329.306
323.135
317.026
310.981
305.005
299.101
293.272
287.519
281.847
276.256
270.75
265.329
259.995
254.751
249.597
244.534
239.564
234.686
229.901
225.211
220.614
216.112
211.703
207.388
203.166
199.037
194.999
191.053
187.197
183.43
179.751
176.158
172.65
169.225
165.882
162.619
159.434
156.324
153.288
150.324
147.43
144.602
141.84
139.141
136.502
133.922
131.399
128.93
126.514
124.149
121.832
119.564
117.341
115.163
113.029
110.937
108.886
106.876
104.905
102.973
101.08
99.2241
97.4053
95.623
93.8764
92.1649
90.488
88.8453
87.2373
85.6673
84.1483
82.7302
81.607
4.87601
3.1796
3.02189
3.19776
3.51175
3.90986
4.37474
4.90242
5.49521
6.15887
6.90142
7.73266
8.66396
9.70829
10.8801
12.1956
13.6728
15.3315
17.1918
19.2759
21.6075
24.2117
27.1151
30.3417
33.9135
37.8561
42.1939
46.95
52.1469
57.8102
63.9452
70.553
77.6471
85.2335
93.3139
101.887
110.947
120.489
130.5
140.95
151.82
163.092
174.739
186.735
199.052
211.657
224.518
237.602
250.872
264.283
277.794
291.368
304.962
318.541
332.063
345.419
358.54
371.411
384.014
396.325
408.316
419.962
431.238
442.122
452.593
462.632
472.22
481.341
489.982
498.131
505.777
512.911
519.524
525.613
531.174
536.207
540.711
544.689
548.146
551.084
553.512
555.434
556.86
557.801
558.267
558.27
557.823
556.941
555.635
553.922
551.817
549.335
546.494
543.31
539.799
535.978
531.863
527.473
522.823
517.931
512.812
507.483
501.96
496.258
490.393
484.379
478.231
471.963
465.588
459.119
452.57
445.951
439.275
432.552
425.793
419.008
412.207
405.399
398.593
391.795
385.015
378.259
371.535
364.847
358.203
351.607
345.065
338.582
332.161
325.807
319.523
313.314
307.181
301.128
295.157
289.27
283.471
277.759
272.139
266.61
261.175
255.835
250.59
245.442
240.392
235.439
230.585
225.829
221.171
216.612
212.152
207.789
203.524
199.356
195.283
191.306
187.422
183.632
179.933
176.323
172.802
169.368
166.019
162.752
159.566
156.459
153.428
150.472
147.587
144.771
142.023
139.339
136.718
134.157
131.653
129.205
126.811
124.469
122.176
119.931
117.733
115.58
113.47
111.402
109.376
107.39
105.443
103.535
101.664
99.8297
98.0314
96.2683
94.5396
92.8445
91.1826
89.5541
87.9622
86.4197
84.9765
83.8285
4.84712
3.14134
2.9648
3.12146
3.41708
3.79856
4.24933
4.7663
5.35288
6.01636
6.76672
7.61627
8.57931
9.67255
10.9144
12.3255
13.9299
15.7539
17.8221
20.1628
22.8064
25.7848
29.1333
32.8795
37.0434
41.656
46.7434
52.3284
58.4308
65.0677
72.2443
79.9609
88.2198
97.0187
106.35
116.204
126.565
137.417
148.737
160.493
172.659
185.203
198.094
211.298
224.78
238.501
252.424
266.508
280.712
294.989
309.293
323.583
337.805
351.93
365.807
379.405
392.712
405.714
418.394
430.729
442.696
454.271
465.432
476.16
486.434
496.239
505.557
514.376
522.683
530.468
537.724
544.443
550.619
556.249
561.334
565.872
569.867
573.322
576.244
578.638
580.513
581.877
582.74
583.113
583.01
582.444
581.429
579.979
578.11
575.838
573.179
570.151
566.769
563.052
559.017
554.681
550.061
545.176
540.041
534.674
529.093
523.312
517.348
511.217
504.934
498.513
491.97
485.317
478.569
471.738
464.836
457.876
450.868
443.823
436.752
429.664
422.569
415.475
408.39
401.323
394.281
387.27
380.297
373.369
366.49
359.666
352.902
346.202
339.57
333.01
326.526
320.121
313.797
307.558
301.405
295.342
289.369
283.49
277.705
272.016
266.424
260.931
255.538
250.245
245.053
239.963
234.976
230.09
225.307
220.627
216.048
211.572
207.197
202.923
198.749
194.674
190.697
186.818
183.034
179.345
175.748
172.243
168.826
165.497
162.253
159.092
156.011
153.008
150.081
147.228
144.445
141.73
139.081
136.495
133.97
131.503
129.092
126.735
124.429
122.173
119.965
117.803
115.685
113.61
111.577
109.584
107.63
105.714
103.835
101.993
100.185
98.4118
96.6716
94.9637
93.2876
91.6433
90.0338
88.4714
87.0063
85.8355
4.81211
3.10102
2.90959
3.05095
3.33287
3.7037
4.14818
4.66476
5.25881
5.94016
6.72197
7.62061
8.65486
9.84764
11.2232
12.809
14.6379
16.7491
19.1701
21.9386
25.0941
28.6757
32.7217
37.2648
42.3314
47.9496
54.1422
60.9263
68.3134
76.3091
84.9096
94.1057
103.885
114.232
125.126
136.542
148.453
160.831
173.641
186.847
200.41
214.294
228.458
242.863
257.466
272.227
287.1
302.042
317.007
331.945
346.808
361.555
376.098
390.3
404.173
417.707
430.892
443.716
456.162
468.215
479.853
491.058
501.81
512.093
521.89
531.186
539.969
548.228
555.952
563.135
569.771
575.854
581.381
586.353
590.768
594.63
597.944
600.714
602.949
604.656
605.844
606.524
606.708
606.408
605.638
604.412
602.747
600.657
598.159
595.27
592.006
588.385
584.425
580.144
575.558
570.687
565.548
560.157
554.533
548.693
542.652
536.427
530.035
523.49
516.808
510.003
503.089
496.079
488.987
481.825
474.605
467.338
460.035
452.707
445.363
438.012
430.663
423.325