/*--------------------------------*- C++ -*----------------------------------*\
  =========                 |
  \\      /  F ield         | OpenFOAM: The Open Source CFD Toolbox
   \\    /   O peration     | Website:  https://openfoam.org
    \\  /    A nd           | Version:  7
     \\/     M anipulation  |
\*---------------------------------------------------------------------------*/
FoamFile
{
    version     2.0;
    format      ascii;
    class       volScalarField;
    location    "1000";
    object      k;
}
// * * * * * * * * * * * * * * * * * * * * * * * * * * * * * * * * * * * * * //

dimensions      [0 2 -2 0 0 0 0];

internalField   nonuniform List<scalar> 
16900
(
0.0103775
0.0246538
0.0390994
0.0524539
0.064635
0.0756629
0.0856178
0.0945769
0.102583
0.109654
0.11578
0.120974
0.125262
0.128673
0.13109
0.131905
0.129361
0.132946
0.13655
0.140643
0.150607
0.160888
0.171503
0.182424
0.193637
0.205135
0.216913
0.228968
0.241296
0.253891
0.266748
0.279858
0.293214
0.306804
0.320618
0.334643
0.348866
0.363272
0.377845
0.392568
0.407425
0.422396
0.437463
0.452605
0.467801
0.483031
0.498271
0.513499
0.52869
0.543822
0.558868
0.573804
0.588603
0.60324
0.61769
0.631926
0.645924
0.659663
0.673121
0.686284
0.69914
0.711688
0.723939
0.735923
0.747698
0.759255
0.77037
0.781042
0.791268
0.801042
0.810357
0.819207
0.827586
0.835489
0.842911
0.849849
0.856298
0.862258
0.867725
0.872699
0.87718
0.881169
0.884667
0.887678
0.890204
0.892251
0.893823
0.894926
0.895567
0.895752
0.895492
0.894794
0.893668
0.892125
0.890174
0.887828
0.885099
0.881999
0.878541
0.874738
0.870603
0.866151
0.861396
0.856353
0.851036
0.845458
0.839635
0.833584
0.827319
0.82085
0.814195
0.807372
0.800393
0.793267
0.786011
0.778645
0.771176
0.763609
0.755973
0.748282
0.74052
0.732719
0.724911
0.717072
0.709194
0.701334
0.693554
0.685866
0.678567
0.672651
0.668424
0.664531
0.660723
0.656957
0.653227
0.649531
0.645867
0.642238
0.638644
0.635087
0.631569
0.628091
0.624654
0.621259
0.617907
0.614598
0.611331
0.608106
0.604922
0.601777
0.598669
0.595595
0.592554
0.589541
0.586552
0.583585
0.580633
0.577693
0.574758
0.571825
0.568886
0.565937
0.562972
0.559984
0.556969
0.553919
0.55083
0.547696
0.544512
0.541274
0.537977
0.534618
0.531193
0.5277
0.524136
0.520501
0.516794
0.513014
0.509163
0.505241
0.501251
0.497195
0.493077
0.4889
0.484669
0.48039
0.476066
0.471706
0.467315
0.4629
0.45847
0.454033
0.449601
0.445185
0.440802
0.436474
0.43224
0.428174
0.424454
0.421791
0.0222263
0.0400867
0.0553092
0.0695692
0.0827393
0.0948068
0.105881
0.1161
0.125587
0.134439
0.142759
0.150686
0.158449
0.166381
0.174866
0.18414
0.194399
0.207728
0.223763
0.24292
0.260896
0.278533
0.296774
0.315653
0.335129
0.355181
0.3758
0.396981
0.418721
0.441015
0.463857
0.487239
0.51115
0.535577
0.560506
0.585919
0.611798
0.638121
0.664865
0.692005
0.719515
0.747365
0.775528
0.80397
0.83266
0.861563
0.890645
0.919869
0.949196
0.978588
1.008
1.0374
1.06674
1.09597
1.12505
1.15393
1.18257
1.21091
1.23893
1.26656
1.29377
1.32052
1.34679
1.37256
1.39779
1.42219
1.4459
1.46892
1.49124
1.51285
1.53373
1.55386
1.57322
1.59181
1.60959
1.62656
1.64272
1.65803
1.6725
1.68612
1.69887
1.71075
1.72177
1.73191
1.74117
1.74957
1.75709
1.76374
1.76953
1.77447
1.77855
1.7818
1.78423
1.78584
1.78666
1.78669
1.78596
1.78448
1.78227
1.77935
1.77575
1.77148
1.76656
1.76103
1.7549
1.74819
1.74094
1.73317
1.72491
1.71618
1.707
1.6974
1.68742
1.67707
1.66637
1.65536
1.64407
1.6325
1.62069
1.60868
1.59646
1.58405
1.57151
1.55885
1.54604
1.53308
1.52018
1.5073
1.49455
1.48199
1.46981
1.45774
1.44574
1.43383
1.422
1.41027
1.39863
1.3871
1.37567
1.36435
1.35314
1.34205
1.33108
1.32022
1.30948
1.29886
1.28836
1.27797
1.26768
1.25751
1.24743
1.23745
1.22756
1.21774
1.208
1.19831
1.18868
1.17909
1.16952
1.15998
1.15044
1.1409
1.13134
1.12175
1.11213
1.10245
1.09271
1.0829
1.07301
1.06304
1.05297
1.04281
1.03254
1.02216
1.01169
1.0011
0.990412
0.979622
0.968736
0.957759
0.946699
0.935565
0.924366
0.913113
0.901817
0.890492
0.879151
0.867809
0.856479
0.845178
0.833921
0.822725
0.811609
0.800589
0.789687
0.778926
0.768339
0.75799
0.748107
0.739645
0.0317517
0.0522983
0.0684889
0.0834593
0.0975111
0.110694
0.123134
0.135023
0.146565
0.157972
0.169468
0.181328
0.19388
0.207488
0.222442
0.238826
0.256624
0.276106
0.297126
0.319327
0.341853
0.364769
0.388326
0.412597
0.437588
0.463294
0.489713
0.516842
0.544677
0.573212
0.60244
0.632351
0.662931
0.694164
0.726031
0.758511
0.791579
0.825208
0.859369
0.894029
0.929153
0.964706
1.00065
1.03694
1.07354
1.11041
1.14749
1.18475
1.22214
1.2596
1.29709
1.33456
1.37195
1.40921
1.44629
1.48312
1.51966
1.55584
1.59162
1.62692
1.66171
1.69592
1.72953
1.76248
1.79461
1.82583
1.85618
1.88566
1.91425
1.94193
1.96867
1.99446
2.01927
2.04307
2.06586
2.08761
2.1083
2.12793
2.14647
2.16392
2.18027
2.19551
2.20963
2.22263
2.23451
2.24527
2.25491
2.26345
2.27087
2.27721
2.28245
2.28663
2.28974
2.29182
2.29288
2.29293
2.292
2.2901
2.28728
2.28355
2.27893
2.27346
2.26716
2.26007
2.25221
2.24362
2.23432
2.22436
2.21375
2.20255
2.19076
2.17844
2.16561
2.15231
2.13857
2.12441
2.10989
2.09501
2.0798
2.06432
2.0486
2.03258
2.01639
2.00011
1.98369
1.96715
1.95058
1.93403
1.91755
1.9012
1.88503
1.86897
1.853
1.83711
1.82132
1.80565
1.79009
1.77466
1.75936
1.74421
1.7292
1.71434
1.69963
1.68507
1.67067
1.65642
1.64232
1.62837
1.61456
1.6009
1.58736
1.57395
1.56065
1.54747
1.53437
1.52136
1.50843
1.49555
1.48272
1.46992
1.45714
1.44436
1.43157
1.41875
1.4059
1.393
1.38003
1.36699
1.35386
1.34064
1.32732
1.31389
1.30035
1.28669
1.27293
1.25904
1.24505
1.23096
1.21676
1.20247
1.1881
1.17366
1.15916
1.14462
1.13005
1.11546
1.10088
1.08632
1.07179
1.05732
1.04293
1.02863
1.01445
1.0004
0.986506
0.972792
0.959294
0.946108
0.933596
0.923322
0.0391693
0.0621559
0.0793393
0.0949243
0.109704
0.12388
0.137615
0.15113
0.164671
0.178491
0.192849
0.208007
0.224236
0.241774
0.260769
0.28122
0.303024
0.326115
0.350386
0.37564
0.401604
0.428229
0.45559
0.483742
0.512705
0.542488
0.573093
0.604523
0.636774
0.669843
0.703722
0.7384
0.773864
0.810098
0.847079
0.884786
0.923189
0.962258
1.00196
1.04226
1.08311
1.12448
1.16631
1.20857
1.25119
1.29414
1.33736
1.38079
1.42438
1.46808
1.51182
1.55556
1.59922
1.64275
1.68608
1.72916
1.77191
1.81427
1.85618
1.89755
1.93834
1.97847
2.01789
2.05654
2.09417
2.1308
2.16642
2.20101
2.23455
2.26702
2.29838
2.32862
2.35769
2.38559
2.41228
2.43775
2.46197
2.48493
2.50662
2.52701
2.5461
2.56389
2.58036
2.5955
2.60933
2.62185
2.63304
2.64294
2.65153
2.65883
2.66486
2.66962
2.67315
2.67545
2.67655
2.67648
2.67525
2.67289
2.66944
2.66492
2.65937
2.65282
2.64529
2.63683
2.62748
2.61726
2.60622
2.59438
2.58181
2.56852
2.55456
2.53996
2.52477
2.50903
2.49275
2.47599
2.4588
2.44121
2.42316
2.40485
2.38628
2.36744
2.34839
2.3292
2.30986
2.29042
2.27091
2.25139
2.23192
2.21254
2.19327
2.17409
2.15499
2.13598
2.11708
2.0983
2.07965
2.06115
2.04281
2.02463
2.00661
1.98878
1.97112
1.95364
1.93635
1.91924
1.90231
1.88556
1.86898
1.85257
1.83632
1.82022
1.80426
1.78844
1.77274
1.75715
1.74165
1.72623
1.71088
1.69557
1.6803
1.66504
1.64979
1.63453
1.61923
1.60389
1.5885
1.57303
1.55749
1.54185
1.52612
1.51029
1.49434
1.47829
1.46212
1.44585
1.42946
1.41298
1.39641
1.37975
1.36302
1.34623
1.32939
1.31253
1.29565
1.27878
1.26192
1.24512
1.22837
1.2117
1.19514
1.1787
1.16241
1.14627
1.13032
1.11458
1.0991
1.08401
1.06982
1.05854
0.0452275
0.0701337
0.0882758
0.104453
0.119867
0.134898
0.149765
0.164704
0.179971
0.19582
0.212487
0.230191
0.249119
0.269409
0.291127
0.314245
0.338665
0.364282
0.391008
0.418733
0.447333
0.476764
0.507046
0.538214
0.570288
0.603283
0.637205
0.672061
0.70785
0.744572
0.782221
0.820788
0.860262
0.900625
0.941857
0.983934
1.02683
1.0705
1.11492
1.16005
1.20583
1.25223
1.2992
1.34667
1.39459
1.44291
1.49157
1.54049
1.58964
1.63893
1.6883
1.7377
1.78704
1.83627
1.88531
1.93409
1.98254
2.03057
2.07811
2.12508
2.17139
2.21698
2.26177
2.30562
2.34833
2.38992
2.43037
2.46964
2.50772
2.54456
2.58014
2.61443
2.64739
2.679
2.70923
2.73806
2.76547
2.79144
2.81595
2.83898
2.86053
2.88058
2.89914
2.91619
2.93174
2.94578
2.95833
2.9694
2.97898
2.9871
2.99377
2.99901
3.00284
3.00529
3.00637
3.00612
3.00455
3.00171
2.99764
2.99235
2.9859
2.9783
2.96961
2.95986
2.9491
2.93737
2.92469
2.91113
2.89672
2.88151
2.86554
2.84882
2.83146
2.81347
2.79487
2.77569
2.75607
2.73601
2.71552
2.69469
2.67356
2.65216
2.63052
2.6087
2.58673
2.56464
2.54247
2.52026
2.49807
2.47594
2.4539
2.43192
2.41001
2.3882
2.3665
2.34493
2.3235
2.30224
2.28114
2.26023
2.23952
2.219
2.19868
2.17858
2.15868
2.13899
2.11952
2.10025
2.08118
2.06231
2.04364
2.02514
2.00682
1.98865
1.97064
1.95276
1.935
1.91734
1.89977
1.88228
1.86483
1.84743
1.83005
1.81267
1.79527
1.77785
1.76038
1.74286
1.72527
1.7076
1.68984
1.67199
1.65404
1.63598
1.61783
1.59958
1.58123
1.56279
1.54427
1.52567
1.50702
1.48833
1.4696
1.45086
1.43212
1.41341
1.39474
1.37614
1.35762
1.3392
1.32092
1.30277
1.2848
1.26702
1.24944
1.2321
1.21506
1.1985
1.18305
1.17104
0.0502218
0.0765545
0.0955476
0.112281
0.12825
0.143993
0.15979
0.175891
0.192545
0.209986
0.22842
0.248015
0.268898
0.291151
0.314798
0.339807
0.366103
0.3936
0.422227
0.451913
0.482591
0.51423
0.546836
0.580429
0.615031
0.650658
0.68732
0.725028
0.763787
0.803599
0.844462
0.886371
0.929316
0.973281
1.01825
1.06419
1.11108
1.15889
1.20757
1.25708
1.30738
1.3584
1.4101
1.46241
1.51528
1.56863
1.62239
1.67651
1.73091
1.78551
1.84025
1.89504
1.94982
2.00451
2.05903
2.1133
2.16722
2.22072
2.2737
2.32607
2.37773
2.42859
2.47858
2.52739
2.57498
2.62132
2.66639
2.71014
2.75255
2.79357
2.83317
2.87131
2.90796
2.94309
2.97667
3.00868
3.03908
3.06787
3.09503
3.12053
3.14436
3.16652
3.18701
3.2058
3.22292
3.23836
3.25214
3.26425
3.27472
3.28355
3.29077
3.29639
3.30045
3.30296
3.30396
3.30348
3.30155
3.2982
3.29347
3.2874
3.28004
3.27142
3.26157
3.25056
3.23843
3.22522
3.21097
3.19572
3.17954
3.16249
3.14458
3.12582
3.10637
3.08626
3.06549
3.04413
3.02224
2.99988
2.97707
2.95388
2.93035
2.90653
2.88244
2.85815
2.83368
2.80908
2.78439
2.75963
2.73488
2.71016
2.6855
2.66089
2.63636
2.61192
2.58759
2.5634
2.53936
2.5155
2.49182
2.46835
2.44509
2.42205
2.39923
2.37666
2.35432
2.33222
2.31035
2.28873
2.26734
2.24618
2.22524
2.20451
2.18399
2.16366
2.14351
2.12352
2.10369
2.08398
2.0644
2.04491
2.0255
2.00616
1.98686
1.96758
1.94832
1.92904
1.90974
1.8904
1.87102
1.85156
1.83204
1.81243
1.79274
1.77297
1.7531
1.73315
1.71312
1.69301
1.67283
1.65259
1.63232
1.61201
1.59168
1.57136
1.55107
1.53081
1.51062
1.49051
1.47051
1.45063
1.4309
1.41133
1.39196
1.3728
1.35386
1.33519
1.31686
1.29909
1.28261
1.27
0.0543191
0.0816569
0.101349
0.118569
0.135005
0.151317
0.167843
0.184844
0.202559
0.221197
0.240934
0.261902
0.284192
0.307851
0.332887
0.359273
0.386954
0.41587
0.445966
0.477196
0.509521
0.54292
0.577397
0.61297
0.649659
0.687481
0.726455
0.766593
0.807905
0.8504
0.894079
0.938941
0.98498
1.03218
1.08053
1.13001
1.18058
1.2322
1.28485
1.33847
1.39301
1.44841
1.5046
1.56154
1.61913
1.67732
1.73601
1.79515
1.85463
1.91439
1.97435
2.03441
2.09449
2.15452
2.21439
2.27401
2.3333
2.39215
2.45045
2.50809
2.56498
2.62098
2.67596
2.72962
2.78194
2.83288
2.88241
2.93049
2.97706
3.0221
3.06556
3.10739
3.14757
3.18606
3.22282
3.25784
3.29108
3.32253
3.35217
3.37998
3.40594
3.43006
3.45232
3.47272
3.49127
3.50798
3.52284
3.53589
3.54711
3.55655
3.56421
3.57013
3.57432
3.57683
3.57768
3.57691
3.57455
3.57064
3.56523
3.55835
3.55006
3.5404
3.5294
3.51712
3.50363
3.48896
3.47317
3.45625
3.43835
3.4195
3.39975
3.37912
3.35771
3.33557
3.31275
3.28929
3.26526
3.24071
3.21568
3.19024
3.16442
3.13827
3.11185
3.08519
3.05834
3.03134
3.00422
2.97703
2.94982
2.92263
2.89547
2.86837
2.84133
2.81439
2.78756
2.76088
2.73436
2.70802
2.68189
2.65598
2.6303
2.60486
2.57967
2.55475
2.53009
2.5057
2.48157
2.45772
2.43413
2.41081
2.38774
2.36492
2.34233
2.31998
2.29784
2.27589
2.25413
2.23254
2.2111
2.18978
2.16858
2.14747
2.12643
2.10545
2.0845
2.06357
2.04263
2.02168
2.0007
1.97968
1.9586
1.93747
1.91626
1.89499
1.87364
1.85222
1.83074
1.80919
1.78759
1.76595
1.74428
1.72259
1.70091
1.67925
1.65762
1.63605
1.61456
1.59318
1.57191
1.55079
1.52983
1.50906
1.48849
1.46815
1.44806
1.42826
1.40882
1.39002
1.37266
1.35952
0.0576408
0.0856347
0.105857
0.123469
0.140273
0.157017
0.174084
0.191747
0.210234
0.229733
0.250397
0.272332
0.295608
0.320256
0.34628
0.373659
0.402358
0.432334
0.463551
0.49598
0.5296
0.564401
0.60039
0.637585
0.676008
0.715682
0.756628
0.798866
0.842411
0.887276
0.933468
0.980992
1.02984
1.08002
1.13149
1.18425
1.23827
1.2935
1.34991
1.40744
1.46604
1.52565
1.58619
1.6476
1.70979
1.77268
1.83619
1.90023
1.9647
2.02952
2.09458
2.15981
2.2251
2.29035
2.35547
2.42035
2.48488
2.54896
2.61247
2.67527
2.73724
2.79826
2.85801
2.91634
2.97321
3.02858
3.0824
3.13461
3.18518
3.23405
3.28118
3.32652
3.37003
3.41168
3.45144
3.48927
3.52516
3.55909
3.59102
3.62096
3.64887
3.67477
3.69863
3.72047
3.74029
3.7581
3.77391
3.78774
3.7996
3.8095
3.81749
3.82359
3.82782
3.83023
3.83084
3.8297
3.82685
3.82233
3.81618
3.80845
3.79921
3.78848
3.77631
3.76276
3.74791
3.73181
3.71452
3.69605
3.67651
3.65596
3.63445
3.61202
3.58874
3.56469
3.5399
3.51443
3.48836
3.46172
3.43457
3.40697
3.37896
3.35061
3.32195
3.29303
3.26389
3.23459
3.20516
3.17564
3.14609
3.11653
3.087
3.05752
3.0281
2.99878
2.96958
2.94053
2.91165
2.88297
2.8545
2.82627
2.79829
2.77057
2.74313
2.71598
2.68912
2.66256
2.6363
2.61034
2.58468
2.55932
2.53425
2.50946
2.48495
2.46071
2.43671
2.41295
2.38941
2.36608
2.34293
2.31995
2.29712
2.27441
2.2518
2.22928
2.20683
2.18442
2.16204
2.13967
2.11729
2.09489
2.07247
2.05
2.02748
2.00492
1.9823
1.95962
1.93689
1.91412
1.89131
1.86848
1.84563
1.82277
1.79994
1.77713
1.75438
1.7317
1.70912
1.68665
1.66431
1.64213
1.62013
1.59832
1.57674
1.55539
1.5343
1.51352
1.49313
1.47343
1.45531
1.44167
0.0602852
0.0886517
0.109239
0.127135
0.144204
0.161247
0.178686
0.196802
0.215814
0.235896
0.257181
0.279762
0.303695
0.329007
0.355703
0.383771
0.413189
0.443934
0.475984
0.509326
0.54395
0.57986
0.617067
0.655594
0.695468
0.736715
0.779364
0.823439
0.868965
0.915957
0.964432
1.0144
1.06585
1.1188
1.17321
1.22908
1.28638
1.34506
1.40509
1.4664
1.52894
1.59264
1.65742
1.7232
1.78989
1.8574
1.92563
1.99448
2.06385
2.13364
2.20373
2.27401
2.3444
2.41477
2.48501
2.55502
2.62466
2.69383
2.76237
2.83016
2.89703
2.96281
3.02711
3.08988
3.15108
3.21064
3.26851
3.32463
3.37895
3.43142
3.48198
3.53058
3.57719
3.62177
3.66427
3.70469
3.74299
3.77915
3.81316
3.84499
3.87464
3.90209
3.92735
3.95042
3.97131
3.99004
4.00663
4.02107
4.03339
4.04361
4.05178
4.05793
4.06208
4.06428
4.06455
4.06296
4.05953
4.05433
4.04737
4.03876
4.02852
4.01673
4.00341
3.98863
3.97248
3.955
3.93626
3.9163
3.8952
3.87303
3.84983
3.82568
3.80063
3.77475
3.7481
3.72073
3.6927
3.66408
3.63492
3.60527
3.5752
3.54474
3.51396
3.48289
3.4516
3.42012
3.38849
3.35677
3.32499
3.2932
3.26142
3.22969
3.19803
3.16646
3.13502
3.10374
3.07263
3.04173
3.01106
2.98065
2.9505
2.92064
2.89108
2.86184
2.83291
2.80431
2.77604
2.74811
2.72051
2.69325
2.66631
2.6397
2.6134
2.58741
2.5617
2.53628
2.51111
2.48619
2.4615
2.43701
2.4127
2.38856
2.36456
2.34068
2.3169
2.29319
2.26955
2.24594
2.22236
2.19878
2.1752
2.1516
2.12797
2.10431
2.08062
2.05688
2.03312
2.00932
1.9855
1.96167
1.93783
1.91401
1.89021
1.86645
1.84276
1.81916
1.79565
1.77227
1.74903
1.72596
1.70308
1.6804
1.65794
1.63573
1.61379
1.59216
1.57095
1.55047
1.53166
1.51756
0.0623385
0.0908514
0.111652
0.129722
0.146951
0.164172
0.181831
0.200219
0.219548
0.239982
0.261641
0.284609
0.308937
0.334652
0.361765
0.390272
0.420166
0.451438
0.484082
0.518096
0.553486
0.590264
0.628452
0.668078
0.709174
0.751775
0.795916
0.84163
0.888944
0.937885
0.988472
1.04072
1.09463
1.15021
1.20744
1.2663
1.32677
1.3888
1.45236
1.51737
1.58377
1.65148
1.72042
1.7905
1.86162
1.93367
2.00655
2.08014
2.15432
2.22898
2.30398
2.37922
2.45457
2.52991
2.60512
2.68008
2.75465
2.82869
2.90206
2.97459
3.04613
3.11626
3.18483
3.25175
3.31697
3.38042
3.44204
3.50176
3.55953
3.61529
3.66898
3.72054
3.76994
3.81713
3.86208
3.90478
3.9452
3.98331
4.01912
4.05258
4.08368
4.11243
4.13883
4.16289
4.18463
4.20406
4.2212
4.23605
4.24865
4.25902
4.26721
4.27325
4.27718
4.27903
4.27885
4.27671
4.27263
4.26669
4.25891
4.24939
4.23816
4.2253
4.21086
4.19489
4.17747
4.15867
4.13854
4.11715
4.09456
4.07084
4.04605
4.02026
3.99353
3.96593
3.93752
3.90835
3.8785
3.84802
3.81696
3.7854
3.75338
3.72095
3.68818
3.65511
3.62179
3.58826
3.55458
3.52079
3.48694
3.45306
3.41919
3.38536
3.3516
3.31794
3.28441
3.25104
3.21786
3.18489
3.15218
3.11973
3.08757
3.05571
3.02418
2.99298
2.96214
2.93165
2.90152
2.87177
2.84238
2.81336
2.78471
2.75642
2.72849
2.7009
2.67364
2.6467
2.62007
2.59372
2.56764
2.54181
2.51621
2.4908
2.46558
2.44052
2.41559
2.39078
2.36605
2.3414
2.3168
2.29223
2.26769
2.24315
2.2186
2.19404
2.16947
2.14488
2.12027
2.09564
2.071
2.04636
2.02172
1.99711
1.97253
1.94801
1.92355
1.89919
1.87493
1.8508
1.82682
1.80301
1.77939
1.75598
1.73279
1.70985
1.68717
1.66482
1.64289
1.62173
1.60231
1.58776
0.0638772
0.0923602
0.113241
0.131379
0.148667
0.165954
0.183702
0.202207
0.221679
0.242274
0.264105
0.287251
0.311762
0.337669
0.364989
0.393731
0.423899
0.4555
0.48854
0.523033
0.558995
0.596452
0.635434
0.675979
0.718126
0.761919
0.807401
0.854611
0.903586
0.954357
1.00695
1.06138
1.11767
1.1758
1.23577
1.29757
1.36116
1.4265
1.49354
1.5622
1.63242
1.7041
1.77716
1.85149
1.92698
2.00351
2.08097
2.15921
2.23811
2.31752
2.39732
2.47736
2.5575
2.63763
2.7176
2.79727
2.8765
2.95514
3.03303
3.10999
3.18572
3.25986
3.33231
3.40301
3.47187
3.53882
3.60379
3.66672
3.72756
3.78623
3.84267
3.89681
3.94862
3.99806
4.0451
4.08972
4.1319
4.17162
4.20889
4.24366
4.27591
4.30565
4.3329
4.35767
4.37997
4.39985
4.41732
4.43235
4.44501
4.45532
4.46335
4.46912
4.47268
4.47407
4.47335
4.47058
4.46579
4.45906
4.45044
4.43998
4.42777
4.41385
4.39829
4.38116
4.36251
4.34243
4.32098
4.29821
4.27421
4.24903
4.22275
4.19542
4.16712
4.13791
4.10786
4.07703
4.04548
4.01327
3.98046
3.94713
3.91331
3.87907
3.84446
3.80953
3.77434
3.73894
3.70337
3.66768
3.63191
3.59611
3.56031
3.52455
3.48887
3.45328
3.41783
3.38255
3.34747
3.31262
3.27802
3.24371
3.2097
3.17602
3.14268
3.1097
3.0771
3.04489
3.01307
2.98165
2.95064
2.92003
2.88983
2.86003
2.83062
2.8016
2.77296
2.74468
2.71675
2.68915
2.66186
2.63486
2.60813
2.58164
2.55538
2.52932
2.50342
2.47768
2.45207
2.42656
2.40113
2.37576
2.35045
2.32516
2.29989
2.27463
2.24937
2.2241
2.19884
2.17356
2.14829
2.12302
2.09777
2.07255
2.04737
2.02225
1.99719
1.97223
1.94738
1.92266
1.89808
1.87368
1.84946
1.82544
1.80165
1.77809
1.7548
1.73182
1.70928
1.68751
1.66753
1.65256
0.0649718
0.0932903
0.114139
0.132248
0.149502
0.166754
0.184476
0.202968
0.222438
0.243038
0.264875
0.288029
0.312551
0.338479
0.365838
0.394648
0.424929
0.456699
0.489981
0.5248
0.561189
0.599185
0.638829
0.680168
0.723254
0.768138
0.814871
0.863502
0.914075
0.966627
1.02119
1.07778
1.13641
1.19709
1.25981
1.32454
1.39126
1.45991
1.53044
1.60276
1.67679
1.75244
1.82959
1.90813
1.98795
2.0689
2.15084
2.23365
2.31715
2.40119
2.4856
2.57025
2.65497
2.73963
2.82407
2.90814
2.99169
3.07456
3.15657
3.23751
3.31687
3.39455
3.47042
3.54442
3.61644
3.68642
3.75428
3.81995
3.88338
3.94451
4.00325
4.05952
4.1133
4.16454
4.21324
4.25936
4.30289
4.34382
4.38218
4.41789
4.45092
4.4813
4.50907
4.53423
4.55681
4.57684
4.59433
4.60932
4.62182
4.6319
4.6396
4.64495
4.64801
4.64884
4.64748
4.64398
4.63842
4.63085
4.62134
4.60994
4.59672
4.58174
4.56509
4.54682
4.52699
4.50569
4.48297
4.45891
4.43358
4.40704
4.37936
4.35061
4.32087
4.29018
4.25862
4.22626
4.19316
4.15938
4.12499
4.09004
4.05459
4.01871
3.98244
3.94584
3.90896
3.87186
3.83458
3.79717
3.75968
3.72215
3.68462
3.64712
3.6097
3.57239
3.53521
3.49821
3.46142
3.42487
3.38858
3.35259
3.31693
3.28161
3.24665
3.21208
3.17791
3.14415
3.11082
3.07792
3.04546
3.01344
2.98187
2.95073
2.92003
2.88976
2.85991
2.83047
2.80141
2.77274
2.74441
2.71643
2.68876
2.66137
2.63425
2.60737
2.58071
2.55423
2.52791
2.50173
2.47566
2.44969
2.42379
2.39795
2.37214
2.34637
2.32061
2.29486
2.26912
2.24339
2.21766
2.19195
2.16626
2.1406
2.11498
2.08942
2.06393
2.03853
2.01323
1.98806
1.96303
1.93816
1.91347
1.88897
1.86468
1.84063
1.81682
1.79332
1.77024
1.74794
1.72746
1.71209
0.0656858
0.093741
0.114463
0.13246
0.149596
0.166724
0.184322
0.202691
0.22204
0.242515
0.264226
0.287251
0.311647
0.33746
0.364725
0.393476
0.423745
0.455566
0.488977
0.52402
0.56074
0.599189
0.639421
0.681496
0.725474
0.771417
0.819385
0.869436
0.921621
0.975984
1.03256
1.09136
1.1524
1.21569
1.28122
1.34895
1.41887
1.4909
1.56498
1.64101
1.71888
1.7985
1.87974
1.96248
2.04657
2.13186
2.2182
2.30544
2.3934
2.48188
2.57069
2.65968
2.74869
2.83754
2.92608
3.01414
3.10156
3.18816
3.27378
3.35797
3.44045
3.5211
3.59983
3.67655
3.75118
3.82362
3.8938
3.96165
4.02712
4.09019
4.1507
4.20857
4.26379
4.31634
4.3662
4.41334
4.45776
4.49945
4.5384
4.5746
4.60803
4.63871
4.66665
4.69189
4.71445
4.73435
4.75164
4.76634
4.77848
4.78812
4.7953
4.80007
4.8025
4.80263
4.80051
4.79622
4.78981
4.78135
4.77089
4.75852
4.74429
4.72827
4.71054
4.69116
4.67021
4.64774
4.62384
4.59857
4.57201
4.54421
4.51526
4.48522
4.45416
4.42214
4.38923
4.35551
4.32102
4.28585
4.25004
4.21366
4.17677
4.13943
4.1017
4.06363
4.02527
3.98667
3.94789
3.90897
3.86996
3.83091
3.79186
3.75284
3.7139
3.67506
3.63638
3.59787
3.55958
3.52153
3.48377
3.44632
3.4092
3.37245
3.33608
3.30011
3.26457
3.22947
3.19482
3.16064
3.12692
3.09369
3.06093
3.02865
2.99685
2.96551
2.93464
2.90422
2.87423
2.84466
2.8155
2.78671
2.75829
2.73019
2.7024
2.67489
2.64764
2.62061
2.59378
2.56712
2.5406
2.51421
2.48792
2.46171
2.43555
2.40945
2.38338
2.35733
2.3313
2.30528
2.27928
2.25329
2.22733
2.2014
2.1755
2.14966
2.12388
2.09819
2.07259
2.04711
2.02175
1.99655
1.97151
1.94664
1.92198
1.89752
1.87329
1.84936
1.82583
1.80306
1.78213
1.76638
0.0660784
0.0938002
0.114322
0.132134
0.149079
0.166007
0.183397
0.201553
0.220682
0.240931
0.26241
0.285199
0.309364
0.334959
0.362033
0.390633
0.420807
0.452606
0.486085
0.5213
0.558315
0.597197
0.638014
0.680839
0.725741
0.772794
0.822068
0.873628
0.927533
0.98383
1.04255
1.1037
1.16731
1.23336
1.30185
1.37273
1.44598
1.52152
1.59926
1.67909
1.76088
1.84451
1.92984
2.01674
2.10503
2.19457
2.28517
2.37668
2.4689
2.56156
2.65447
2.74745
2.84034
2.93295
3.0251
3.11661
3.20731
3.29701
3.38539
3.47221
3.55713
3.64009
3.72101
3.7998
3.87636
3.9506
4.02246
4.09184
4.1587
4.22298
4.2846
4.34347
4.39958
4.45289
4.50339
4.55106
4.59588
4.63786
4.677
4.71327
4.7467
4.77728
4.80505
4.83003
4.85224
4.87174
4.88855
4.9027
4.91425
4.92323
4.92971
4.93374
4.93538
4.93469
4.93171
4.92653
4.91919
4.90978
4.89836
4.88499
4.86975
4.85271
4.83393
4.81349
4.79146
4.7679
4.7429
4.71652
4.68884
4.65991
4.62982
4.59862
4.5664
4.53321
4.49913
4.46421
4.42853
4.39215
4.35513
4.31752
4.2794
4.24082
4.20184
4.16251
4.12288
4.08302
4.04296
4.00276
3.96247
3.92213
3.88179
3.84148
3.80124
3.76112
3.72115
3.68137
3.64181
3.6025
3.56349
3.52479
3.48645
3.44848
3.41092
3.37378
3.33708
3.30085
3.2651
3.22984
3.19508
3.16083
3.12709
3.09387
3.06116
3.02896
2.99726
2.96606
2.93533
2.90507
2.87525
2.84586
2.81686
2.78825
2.75998
2.73203
2.70438
2.67699
2.64983
2.62288
2.5961
2.56948
2.54298
2.51658
2.49026
2.46401
2.4378
2.41163
2.38549
2.35936
2.33325
2.30716
2.28108
2.25503
2.22902
2.20305
2.17713
2.15128
2.12552
2.09985
2.0743
2.04888
2.0236
1.99848
1.97353
1.94877
1.92422
1.89993
1.87602
1.85285
1.83151
1.81541
0.0662033
0.0935453
0.113808
0.131375
0.148068
0.164731
0.181846
0.199716
0.218549
0.238492
0.259657
0.282132
0.305992
0.331302
0.358126
0.386527
0.416571
0.448327
0.481869
0.517271
0.554617
0.59399
0.635477
0.67916
0.72512
0.773439
0.824196
0.877467
0.933314
0.991789
1.05291
1.11668
1.1831
1.25217
1.32385
1.39811
1.47489
1.55413
1.63573
1.71948
1.80525
1.89293
1.98235
2.07335
2.16575
2.25937
2.35401
2.44952
2.54576
2.64223
2.7388
2.83531
2.93155
3.02732
3.12244
3.21671
3.30993
3.40179
3.49203
3.58053
3.66709
3.7516
3.83395
3.91406
3.99181
4.06713
4.13994
4.21015
4.27772
4.34258
4.40467
4.46392
4.5203
4.57379
4.62437
4.67201
4.71672
4.7585
4.79734
4.83326
4.86625
4.89634
4.92355
4.94791
4.96946
4.98824
5.00428
5.01764
5.02835
5.03648
5.04207
5.04518
5.04588
5.04423
5.0403
5.03413
5.02581
5.01541
5.00299
4.98862
4.97238
4.95433
4.93455
4.9131
4.89007
4.86552
4.83952
4.81214
4.78346
4.75354
4.72246
4.69028
4.65706
4.62288
4.58781
4.5519
4.51522
4.47784
4.43982
4.40121
4.36209
4.3225
4.2825
4.24215
4.2015
4.16061
4.11952
4.07829
4.03696
3.99558
3.95419
3.91284
3.87156
3.8304
3.7894
3.74858
3.708
3.66768
3.62765
3.58796
3.54863
3.50968
3.47116
3.43308
3.39546
3.35832
3.32169
3.28557
3.24999
3.21494
3.18043
3.14648
3.11307
3.08021
3.04789
3.0161
2.98484
2.95408
2.9238
2.89399
2.86463
2.83568
2.80712
2.77892
2.75106
2.72349
2.6962
2.66914
2.64229
2.61561
2.58909
2.56268
2.53638
2.51015
2.48399
2.45786
2.43177
2.4057
2.37965
2.35361
2.32758
2.30157
2.27558
2.24962
2.2237
2.19784
2.17203
2.14631
2.12068
2.09515
2.06975
2.04447
2.01934
1.99436
1.96957
1.945
1.92078
1.89727
1.87557
1.85914
0.0661107
0.0930451
0.113004
0.130279
0.146669
0.163016
0.179801
0.197329
0.215808
0.235387
0.256185
0.278298
0.301812
0.326808
0.353367
0.381571
0.411507
0.443268
0.476944
0.512633
0.550439
0.590466
0.632822
0.677599
0.72488
0.77476
0.827324
0.882652
0.940811
1.00186
1.06579
1.13257
1.20219
1.27464
1.34986
1.42781
1.5084
1.59157
1.67725
1.76504
1.85487
1.9466
2.04005
2.13503
2.23134
2.32878
2.42714
2.52621
2.62577
2.72548
2.82514
2.92451
3.02339
3.12156
3.21882
3.31495
3.40964
3.50265
3.59389
3.68327
3.77062
3.85582
3.93876
4.01934
4.09747
4.17306
4.24603
4.31631
4.38384
4.44856
4.51042
4.56938
4.62538
4.67842
4.72847
4.77552
4.81956
4.86062
4.89868
4.93377
4.96589
4.99507
5.02134
5.04473
5.06527
5.08303
5.09803
5.11033
5.11998
5.12703
5.13154
5.13358
5.13321
5.1305
5.1255
5.11829
5.10893
5.0975
5.08407
5.06871
5.05149
5.03248
5.01175
4.98938
4.96544
4.93999
4.91312
4.88488
4.85535
4.82459
4.79269
4.75969
4.72568
4.69071
4.65484
4.61816
4.58071
4.54256
4.50377
4.4644
4.42451
4.38415
4.34339
4.30228
4.26086
4.2192
4.17735
4.13534
4.09324
4.05108
4.00892
3.96679
3.92474
3.88281
3.84103
3.79945
3.7581
3.71701
3.67624
3.6358
3.59573
3.55606
3.51682
3.47803
3.43973
3.40193
3.36465
3.32791
3.29172
3.2561
3.22105
3.18658
3.15269
3.11938
3.08665
3.05448
3.02288
2.99182
2.96128
2.93126
2.90171
2.87263
2.84397
2.81571
2.78782
2.76027
2.73301
2.70603
2.67928
2.65273
2.62636
2.60013
2.57401
2.54798
2.52202
2.49611
2.47024
2.44438
2.41854
2.39271
2.36687
2.34105
2.31522
2.28942
2.26363
2.23787
2.21216
2.18649
2.16089
2.13537
2.10993
2.0846
2.05937
2.03427
2.00931
1.98454
1.96008
1.93629
1.91427
1.89752
0.0658472
0.0923602
0.111985
0.128928
0.144976
0.160967
0.177383
0.194529
0.212614
0.231797
0.252201
0.273937
0.297106
0.321809
0.348144
0.376219
0.406148
0.438052
0.472039
0.508231
0.546756
0.587746
0.631336
0.677622
0.726676
0.778603
0.833493
0.891421
0.952453
1.01668
1.08402
1.15435
1.2277
1.30402
1.38322
1.46523
1.54992
1.6372
1.72691
1.81877
1.91263
2.0083
2.10558
2.20427
2.30415
2.40498
2.50654
2.60859
2.71089
2.81313
2.91505
3.01643
3.11701
3.21659
3.31493
3.41169
3.50668
3.59987
3.69117
3.78048
3.86766
3.9526
4.03519
4.11533
4.19293
4.26791
4.3402
4.40972
4.47641
4.54024
4.60114
4.65908
4.71402
4.76595
4.81485
4.86071
4.90353
4.94333
4.98012
5.01391
5.04472
5.07258
5.09752
5.11957
5.13879
5.15522
5.16891
5.17991
5.18827
5.19406
5.19733
5.19815
5.19659
5.19271
5.18658
5.17827
5.16784
5.15538
5.14095
5.12462
5.10647
5.08656
5.06497
5.04177
5.01703
4.99082
4.9632
4.93425
4.90404
4.87263
4.84009
4.80648
4.77187
4.73632
4.6999
4.66267
4.62469
4.58602
4.54671
4.50683
4.46644
4.42559
4.38433
4.34272
4.30082
4.25867
4.21632
4.17382
4.13122
4.08857
4.04591
4.00328
3.96073
3.9183
3.87603
3.83395
3.7921
3.75053
3.70927
3.66834
3.6278
3.58766
3.54796
3.50873
3.46999
3.43177
3.39409
3.35696
3.32041
3.28444
3.24907
3.21431
3.18016
3.14662
3.11368
3.08135
3.04961
3.01846
2.98786
2.95781
2.92828
2.89925
2.87068
2.84255
2.81482
2.78745
2.76042
2.73369
2.70722
2.68097
2.65492
2.62902
2.60326
2.57759
2.552
2.52647
2.50096
2.47548
2.45
2.42451
2.39902
2.37351
2.348
2.32247
2.29694
2.27141
2.2459
2.22041
2.19495
2.16953
2.14416
2.11886
2.09363
2.06848
2.04343
2.01853
1.99389
1.96986
1.94757
1.93055
0.0654574
0.0915451
0.110813
0.127398
0.143074
0.15868
0.174699
0.19144
0.209117
0.227896
0.247916
0.269305
0.292183
0.316678
0.342913
0.371021
0.401156
0.43348
0.468111
0.505199
0.544903
0.587384
0.632824
0.68131
0.732858
0.787597
0.845609
0.906949
0.971648
1.03972
1.11109
1.18566
1.26335
1.34407
1.42771
1.51413
1.60319
1.69473
1.78855
1.88443
1.98214
2.08148
2.18222
2.28415
2.38701
2.49057
2.59458
2.69878
2.8029
2.90667
3.0098
3.11204
3.21311
3.31281
3.41074
3.50682
3.60103
3.6933
3.78358
3.87175
3.95771
4.04136
4.12259
4.2013
4.27742
4.35087
4.42157
4.48946
4.55449
4.61662
4.67579
4.73199
4.78517
4.83533
4.88245
4.92652
4.96756
5.00558
5.04059
5.07262
5.10169
5.12783
5.15107
5.17146
5.18904
5.20387
5.21599
5.22547
5.23235
5.23671
5.23859
5.23808
5.23523
5.23012
5.22281
5.21337
5.20188
5.1884
5.17301
5.15577
5.13676
5.11604
5.0937
5.06979
5.04439
5.01756
4.98937
4.95989
4.92918
4.89731
4.86435
4.83035
4.79537
4.75949
4.72275
4.68522
4.64697
4.60803
4.56848
4.52837
4.48775
4.44668
4.40522
4.3634
4.32129
4.27894
4.23639
4.19369
4.15089
4.10803
4.06516
4.02233
3.97957
3.93693
3.89444
3.85215
3.81009
3.76831
3.72683
3.6857
3.64495
3.60461
3.56472
3.5253
3.48638
3.44799
3.41015
3.37288
3.3362
3.30013
3.26468
3.22985
3.19566
3.1621
3.12918
3.09689
3.06523
3.03418
3.00372
2.97384
2.94452
2.91572
2.88743
2.8596
2.83221
2.80521
2.77858
2.75227
2.72624
2.70047
2.6749
2.6495
2.62425
2.5991
2.57404
2.54903
2.52404
2.49907
2.4741
2.44911
2.42409
2.39904
2.37395
2.34883
2.32367
2.29849
2.27329
2.24808
2.22286
2.19764
2.17244
2.14726
2.1221
2.09699
2.07192
2.04695
2.0222
1.998
1.97548
1.95821
0.0649845
0.0906489
0.109545
0.125751
0.141034
0.156237