/*--------------------------------*- C++ -*----------------------------------*\
  =========                 |
  \\      /  F ield         | OpenFOAM: The Open Source CFD Toolbox
   \\    /   O peration     | Website:  https://openfoam.org
    \\  /    A nd           | Version:  7
     \\/     M anipulation  |
\*---------------------------------------------------------------------------*/
FoamFile
{
    version     2.0;
    format      ascii;
    class       volScalarField;
    location    "1000";
    object      nut;
}
// * * * * * * * * * * * * * * * * * * * * * * * * * * * * * * * * * * * * * //

dimensions      [0 2 -1 0 0 0 0];

internalField   nonuniform List<scalar> 
16900
(
1.26031e-05
3.69137e-05
5.8544e-05
7.85473e-05
9.68026e-05
0.000113328
0.000128238
0.00014164
0.000153597
0.000164169
0.000173396
0.000181397
0.000188261
0.000193869
0.000197285
0.000195708
4.29131e-05
4.42412e-05
4.66919e-05
4.84972e-05
5.0266e-05
5.19497e-05
5.36347e-05
5.53159e-05
5.69907e-05
5.86584e-05
6.03191e-05
6.19728e-05
6.36194e-05
6.52588e-05
6.68909e-05
6.85151e-05
7.01311e-05
7.17381e-05
7.33355e-05
7.49225e-05
7.64983e-05
7.80619e-05
7.96124e-05
8.11489e-05
8.26703e-05
8.41756e-05
8.56639e-05
8.7134e-05
8.85849e-05
9.00155e-05
9.14246e-05
9.28113e-05
9.41744e-05
9.55127e-05
9.68252e-05
9.81107e-05
9.9368e-05
0.000100596
0.000101794
0.000102961
0.000104095
0.000105196
0.000106264
0.000107298
0.000108299
0.000109267
0.000110203
0.000111112
0.000111997
0.00011286
0.000113683
0.000114469
0.000115216
0.000115926
0.000116598
0.000117233
0.000117832
0.000118394
0.000118919
0.000119408
0.00011986
0.000120277
0.000120659
0.000121005
0.000121316
0.000121592
0.000121834
0.000122041
0.000122216
0.000122357
0.000122465
0.000122542
0.000122586
0.0001226
0.000122582
0.000122535
0.000122459
0.000122354
0.000122221
0.00012206
0.000121873
0.00012166
0.000121422
0.000121159
0.000120873
0.000120564
0.000120233
0.00011988
0.000119508
0.000119115
0.000118704
0.000118275
0.00011783
0.000117368
0.00011689
0.000116399
0.000115894
0.000115376
0.000114846
0.000114305
0.000113754
0.000113193
0.000112624
0.000112047
0.000111463
0.000110872
0.000110277
0.000109677
0.00010907
0.000108461
0.000107855
0.000107253
0.00010668
0.000106218
0.000105883
0.000105571
0.000105265
0.000104961
0.000104659
0.000104358
0.00010406
0.000103763
0.000103469
0.000103176
0.000102886
0.000102599
0.000102314
0.000102032
0.000101753
0.000101477
0.000101204
0.000100934
0.000100666
0.000100402
0.000100141
9.98817e-05
9.96252e-05
9.9371e-05
9.91187e-05
9.8868e-05
9.86185e-05
9.837e-05
9.81219e-05
9.78739e-05
9.76254e-05
9.7376e-05
9.71251e-05
9.68723e-05
9.6617e-05
9.63586e-05
9.60967e-05
9.58307e-05
9.556e-05
9.52843e-05
9.5003e-05
9.47157e-05
9.44221e-05
9.41216e-05
9.38142e-05
9.34994e-05
9.31772e-05
9.28473e-05
9.25097e-05
9.21643e-05
9.18112e-05
9.14505e-05
9.10823e-05
9.07068e-05
9.03244e-05
8.99352e-05
8.95399e-05
8.91386e-05
8.87321e-05
8.83208e-05
8.79055e-05
8.74869e-05
8.7066e-05
8.66438e-05
8.6222e-05
8.58029e-05
8.539e-05
8.49913e-05
8.4625e-05
8.43641e-05
2.70071e-05
9.03875e-05
0.000126097
0.000153348
0.00017708
0.000198076
0.000216516
0.000232429
0.000245717
0.000256157
0.000263424
0.000267163
0.000266979
0.000262265
0.000251641
0.000232265
0.000200779
0.000207749
0.000219934
0.000237736
0.000250479
0.000261603
0.000273054
0.000284796
0.000296734
0.000308824
0.000321052
0.000333417
0.000345918
0.000358559
0.000371342
0.000384268
0.000397336
0.000410546
0.000423895
0.000437379
0.000450994
0.000464735
0.000478594
0.000492567
0.000506644
0.000520818
0.00053508
0.000549423
0.000563837
0.000578312
0.000592838
0.000607404
0.000622
0.000636612
0.000651227
0.00066583
0.000680404
0.000694932
0.000709392
0.000723762
0.000738017
0.000752128
0.000766066
0.000779797
0.000793283
0.000806484
0.000819352
0.000831834
0.000843861
0.00085502
0.000865836
0.000876373
0.000886639
0.000896636
0.000906363
0.000915816
0.000924995
0.000933896
0.000942518
0.000950858
0.000958914
0.000966685
0.000974168
0.000981362
0.000988264
0.000994875
0.00100119
0.00100722
0.00101295
0.00101839
0.00102353
0.00102839
0.00103295
0.00103722
0.00104121
0.00104491
0.00104833
0.00105147
0.00105433
0.00105692
0.00105924
0.0010613
0.00106309
0.00106463
0.00106593
0.00106697
0.00106778
0.00106835
0.0010687
0.00106882
0.00106873
0.00106844
0.00106795
0.00106726
0.00106638
0.00106533
0.00106411
0.00106273
0.00106119
0.0010595
0.00105768
0.00105572
0.00105364
0.00105145
0.00104915
0.00104674
0.00104425
0.00104169
0.00103906
0.00103633
0.00103348
0.0010305
0.00102719
0.00102297
0.00101766
0.00101192
0.00100601
0.00100004
0.000994045
0.000988053
0.000982071
0.000976108
0.000970167
0.000964254
0.00095837
0.000952518
0.0009467
0.000940917
0.00093517
0.000929458
0.000923782
0.00091814
0.000912532
0.000906955
0.000901406
0.000895885
0.000890386
0.000884907
0.000879443
0.00087399
0.000868543
0.000863096
0.000857646
0.000852185
0.000846707
0.000841208
0.000835682
0.000830121
0.000824521
0.000818876
0.000813181
0.000807432
0.000801623
0.000795751
0.000789814
0.000783807
0.000777731
0.000771582
0.000765363
0.000759072
0.000752711
0.000746283
0.000739791
0.000733238
0.000726629
0.000719969
0.000713264
0.000706522
0.000699748
0.000692951
0.00068614
0.000679322
0.000672508
0.000665706
0.000658927
0.000652183
0.000645484
0.000638845
0.000632282
0.000625819
0.000619495
0.000613399
0.000607793
0.000603452
3.85783e-05
0.000127438
0.000178219
0.000212289
0.000240184
0.000264459
0.000285743
0.000304236
0.000320024
0.000333174
0.000343828
0.000352325
0.000359272
0.000365431
0.000371379
0.000377315
0.000384576
0.000401667
0.000422194
0.000445279
0.000468408
0.000491276
0.000514334
0.00053767
0.000561284
0.000585174
0.000609342
0.000633792
0.00065853
0.000683562
0.000708889
0.000734511
0.000760427
0.000786629
0.000813111
0.000839861
0.000866868
0.000894116
0.00092159
0.000949271
0.000977139
0.00100518
0.00103336
0.00106166
0.00109007
0.00111855
0.00114708
0.00117564
0.00120419
0.00123271
0.00126117
0.00128953
0.00131776
0.00134581
0.00137366
0.00140125
0.00142854
0.00145547
0.00148198
0.00150803
0.00153355
0.00155847
0.00158274
0.0016063
0.00162882
0.00165039
0.0016713
0.00169164
0.0017114
0.00173061
0.00174925
0.00176733
0.00178484
0.00180178
0.00181815
0.00183394
0.00184915
0.00186378
0.00187782
0.00189127
0.00190414
0.00191642
0.00192811
0.0019392
0.00194971
0.00195963
0.00196897
0.00197772
0.00198589
0.00199349
0.00200051
0.00200696
0.00201286
0.0020182
0.002023
0.00202725
0.00203097
0.00203417
0.00203686
0.00203904
0.00204073
0.00204194
0.00204268
0.00204296
0.00204279
0.00204219
0.00204117
0.00203974
0.00203793
0.00203573
0.00203317
0.00203027
0.00202703
0.00202348
0.00201962
0.00201548
0.00201108
0.00200642
0.00200152
0.00199641
0.00199111
0.00198562
0.00197996
0.00197415
0.00196822
0.00196213
0.00195585
0.00194935
0.00194243
0.00193475
0.00192615
0.00191698
0.00190752
0.00189791
0.00188821
0.00187847
0.00186872
0.00185898
0.00184926
0.00183958
0.00182993
0.00182032
0.00181077
0.00180127
0.00179182
0.00178243
0.00177309
0.00176381
0.00175459
0.00174541
0.00173628
0.00172719
0.00171813
0.0017091
0.00170008
0.00169107
0.00168207
0.00167305
0.001664
0.00165492
0.0016458
0.00163661
0.00162735
0.001618
0.00160856
0.00159901
0.00158933
0.00157953
0.00156958
0.00155949
0.00154924
0.00153883
0.00152826
0.00151752
0.00150661
0.00149553
0.00148429
0.00147289
0.00146134
0.00144964
0.0014378
0.00142584
0.00141377
0.0014016
0.00138934
0.00137701
0.00136463
0.00135222
0.00133979
0.00132737
0.00131497
0.00130262
0.00129035
0.00127817
0.00126612
0.00125426
0.00124269
0.00123162
0.00122168
0.00121468
4.75926e-05
0.000154906
0.000218801
0.000259589
0.000291438
0.000318832
0.000343151
0.000364967
0.000384671
0.000402658
0.000419418
0.000435605
0.000452055
0.000469656
0.000489032
0.000510327
0.000534089
0.000561415
0.000591054
0.000622355
0.000654364
0.000686598
0.000719077
0.000751858
0.000784973
0.000818442
0.000852278
0.000886494
0.000921095
0.000956088
0.000991471
0.00102724
0.00106339
0.00109991
0.00113678
0.00117398
0.0012115
0.0012493
0.00128736
0.00132565
0.00136414
0.00140279
0.00144158
0.00148046
0.00151939
0.00155835
0.00159728
0.00163616
0.00167494
0.00171358
0.00175203
0.00179025
0.00182819
0.00186581
0.00190305
0.00193986
0.00197617
0.00201193
0.00204707
0.00208153
0.00211525
0.00214815
0.00218018
0.00221127
0.0022411
0.00226992
0.00229788
0.00232504
0.00235142
0.00237703
0.00240186
0.00242592
0.00244921
0.00247171
0.00249344
0.00251438
0.00253453
0.0025539
0.00257248
0.00259026
0.00260726
0.00262346
0.00263887
0.00265349
0.00266731
0.00268036
0.00269262
0.0027041
0.00271481
0.00272475
0.00273392
0.00274234
0.00275001
0.00275694
0.00276315
0.00276863
0.0027734
0.00277747
0.00278086
0.00278358
0.00278564
0.00278706
0.00278784
0.00278801
0.00278759
0.00278658
0.00278501
0.0027829
0.00278026
0.00277711
0.00277347
0.00276937
0.00276482
0.00275984
0.00275446
0.00274869
0.00274257
0.0027361
0.00272933
0.00272225
0.00271491
0.00270733
0.00269951
0.00269149
0.00268328
0.00267488
0.00266626
0.00265739
0.00264816
0.00263839
0.00262798
0.00261709
0.00260589
0.00259449
0.00258297
0.00257138
0.00255977
0.00254815
0.00253654
0.00252497
0.00251344
0.00250196
0.00249054
0.00247919
0.00246791
0.0024567
0.00244556
0.0024345
0.0024235
0.00241257
0.0024017
0.00239088
0.0023801
0.00236935
0.00235863
0.00234791
0.00233718
0.00232643
0.00231564
0.00230479
0.00229386
0.00228284
0.00227171
0.00226044
0.00224902
0.00223743
0.00222565
0.00221367
0.00220147
0.00218904
0.00217638
0.00216346
0.00215028
0.00213685
0.00212315
0.00210919
0.00209497
0.00208049
0.00206577
0.00205082
0.00203564
0.00202026
0.00200469
0.00198894
0.00197305
0.00195702
0.0019409
0.00192469
0.00190843
0.00189215
0.00187586
0.00185961
0.00184342
0.00182734
0.00181141
0.0017957
0.00178035
0.00176571
0.0017527
0.00174384
5.49541e-05
0.000176275
0.000251426
0.00029873
0.000334611
0.000365249
0.00039287
0.000418466
0.000442697
0.000466155
0.000489448
0.000513233
0.000538206
0.000565015
0.000594067
0.000625378
0.000658915
0.000694563
0.000731839
0.0007703
0.000809448
0.000848975
0.000888826
0.000929025
0.0009696
0.00101058
0.00105197
0.0010938
0.00113606
0.00117876
0.00122189
0.00126545
0.00130943
0.0013538
0.00139854
0.00144363
0.00148903
0.00153471
0.00158064
0.00162677
0.00167306
0.00171947
0.00176595
0.00181246
0.00185894
0.00190536
0.00195165
0.00199778
0.00204369
0.00208933
0.00213465
0.0021796
0.00222413
0.00226819
0.00231172
0.00235466
0.00239695
0.00243854
0.00247936
0.00251935
0.00255845
0.00259659
0.00263371
0.0026697
0.00270439
0.00273801
0.00277064
0.00280234
0.00283312
0.00286298
0.00289195
0.00292
0.00294715
0.00297338
0.00299871
0.00302312
0.00304663
0.00306921
0.00309089
0.00311164
0.00313148
0.0031504
0.00316841
0.0031855
0.00320168
0.00321696
0.00323133
0.00324481
0.00325739
0.00326908
0.00327989
0.00328983
0.00329891
0.00330713
0.00331451
0.00332105
0.00332678
0.00333169
0.00333582
0.00333916
0.00334173
0.00334356
0.00334466
0.00334504
0.00334472
0.00334372
0.00334207
0.00333977
0.00333686
0.00333335
0.00332927
0.00332464
0.00331948
0.00331381
0.00330766
0.00330107
0.00329404
0.0032866
0.0032788
0.00327064
0.00326216
0.00325339
0.00324434
0.00323504
0.00322552
0.00321577
0.00320579
0.00319557
0.00318504
0.00317413
0.00316278
0.00315105
0.00313904
0.00312683
0.00311449
0.00310207
0.00308962
0.00307715
0.0030647
0.00305229
0.00303992
0.00302761
0.00301538
0.00300322
0.00299115
0.00297916
0.00296727
0.00295546
0.00294374
0.00293211
0.00292054
0.00290904
0.0028976
0.0028862
0.00287482
0.00286346
0.00285208
0.00284068
0.00282922
0.0028177
0.00280607
0.00279432
0.00278243
0.00277036
0.00275809
0.00274561
0.00273289
0.0027199
0.00270662
0.00269305
0.00267915
0.00266493
0.00265037
0.00263546
0.00262021
0.0026046
0.00258864
0.00257235
0.00255572
0.00253877
0.00252151
0.00250397
0.00248616
0.00246811
0.00244983
0.00243137
0.00241274
0.00239398
0.00237511
0.00235618
0.0023372
0.00231823
0.00229929
0.00228044
0.00226172
0.00224322
0.00222513
0.00220787
0.00219264
0.00218244
6.10235e-05
0.000193224
0.000278109
0.000331654
0.000371643
0.000405639
0.000436663
0.00046611
0.000494844
0.000523549
0.000552831
0.000583247
0.000615289
0.000649345
0.000685605
0.000723993
0.000764298
0.00080622
0.000849412
0.000893543
0.000938306
0.000983507
0.00102909
0.00107505
0.00112141
0.00116819
0.00121541
0.00126307
0.00131119
0.00135975
0.00140875
0.00145819
0.00150803
0.00155826
0.00160884
0.00165975
0.00171094
0.00176237
0.00181401
0.0018658
0.00191769
0.00196963
0.00202156
0.00207344
0.00212521
0.0021768
0.00222818
0.00227927
0.00233004
0.00238041
0.00243035
0.00247979
0.00252869
0.00257699
0.00262463
0.00267157
0.00271776
0.00276312
0.00280762
0.00285118
0.00289376
0.0029353
0.00297576
0.00301487
0.00305275
0.00308953
0.00312525
0.00315996
0.00319367
0.0032264
0.00325814
0.0032889
0.00331867
0.00334746
0.00337526
0.00340208
0.00342791
0.00345275
0.00347661
0.00349948
0.00352136
0.00354225
0.00356215
0.00358107
0.00359901
0.00361597
0.00363195
0.00364697
0.00366102
0.00367412
0.00368626
0.00369747
0.00370774
0.00371708
0.00372552
0.00373304
0.00373968
0.00374545
0.00375035
0.0037544
0.00375761
0.00376001
0.00376161
0.00376243
0.00376248
0.00376178
0.00376036
0.00375825
0.00375545
0.00375198
0.00374788
0.00374319
0.00373789
0.00373202
0.00372563
0.00371873
0.00371135
0.00370353
0.00369528
0.00368664
0.00367764
0.00366831
0.00365867
0.00364874
0.00363856
0.00362813
0.00361746
0.00360655
0.00359538
0.00358391
0.00357213
0.00356005
0.00354773
0.00353524
0.00352262
0.00350992
0.00349719
0.00348444
0.00347172
0.00345903
0.0034464
0.00343384
0.00342137
0.00340899
0.00339671
0.00338454
0.00337247
0.00336052
0.00334867
0.00333692
0.00332526
0.00331369
0.00330219
0.00329075
0.00327935
0.00326796
0.00325657
0.00324515
0.00323368
0.00322213
0.00321047
0.00319867
0.0031867
0.00317453
0.00316213
0.00314947
0.00313653
0.00312327
0.00310966
0.0030957
0.00308135
0.00306661
0.00305145
0.00303588
0.00301987
0.00300343
0.00298657
0.00296928
0.00295158
0.00293348
0.002915
0.00289615
0.00287695
0.00285744
0.00283765
0.00281759
0.00279731
0.00277683
0.00275619
0.00273544
0.0027146
0.00269371
0.00267281
0.00265196
0.0026312
0.00261065
0.00259052
0.00257131
0.00255442
0.00254327
6.60032e-05
0.000206713
0.000300061
0.000359501
0.00040359
0.000440955
0.000475317
0.00050843
0.000541308
0.000574669
0.000609071
0.000644953
0.000682639
0.000722323
0.000764043
0.000807662
0.000852934
0.000899564
0.000947259
0.000995762
0.00104486
0.00109441
0.00114437
0.00119472
0.00124548
0.00129665
0.00134825
0.00140029
0.00145277
0.00150567
0.001559
0.00161273
0.00166684
0.0017213
0.00177608
0.00183115
0.00188645
0.00194195
0.0019976
0.00205333
0.00210911
0.00216486
0.00222054
0.00227608
0.00233143
0.00238652
0.0024413
0.0024957
0.00254968
0.00260317
0.00265613
0.00270849
0.00276021
0.00281123
0.00286152
0.00291102
0.00295968
0.00300745
0.00305429
0.00310014
0.00314494
0.00318866
0.0032312
0.00327241
0.00331242
0.00335131
0.00338913
0.0034259
0.00346163
0.00349633
0.00353002
0.00356268
0.00359432
0.00362493
0.00365452
0.00368309
0.00371063
0.00373714
0.00376263
0.00378709
0.00381053
0.00383293
0.00385431
0.00387467
0.003894
0.00391232
0.00392963
0.00394592
0.00396121
0.0039755
0.0039888
0.00400112
0.00401246
0.00402284
0.00403226
0.00404073
0.00404827
0.00405489
0.0040606
0.00406542
0.00406935
0.00407242
0.00407466
0.00407607
0.00407665
0.00407645
0.00407547
0.00407377
0.00407132
0.00406816
0.00406432
0.00405983
0.0040547
0.00404897
0.00404268
0.00403583
0.00402847
0.00402063
0.00401233
0.00400361
0.00399449
0.003985
0.00397518
0.00396504
0.00395462
0.00394394
0.00393301
0.00392184
0.00391043
0.00389877
0.00388687
0.00387473
0.00386239
0.0038499
0.00383729
0.00382461
0.0038119
0.00379919
0.0037865
0.00377385
0.00376128
0.00374879
0.0037364
0.00372412
0.00371196
0.00369993
0.00368803
0.00367626
0.00366462
0.0036531
0.0036417
0.00363041
0.00361921
0.00360809
0.00359703
0.003586
0.00357498
0.00356394
0.00355286
0.00354169
0.00353042
0.003519
0.00350739
0.00349557
0.00348349
0.00347113
0.00345844
0.0034454
0.00343197
0.00341813
0.00340385
0.00338911
0.0033739
0.0033582
0.003342
0.0033253
0.00330809
0.00329039
0.0032722
0.00325354
0.00323441
0.00321484
0.00319486
0.00317449
0.00315377
0.00313271
0.00311137
0.00308977
0.00306795
0.00304595
0.00302381
0.00300157
0.00297927
0.00295696
0.0029347
0.00291261
0.00289092
0.00287023
0.00285209
0.00284023
7.00417e-05
0.000217378
0.000318083
0.000383023
0.0004311
0.000471745
0.000509261
0.000545713
0.000582235
0.000619553
0.000658168
0.00069842
0.000740506
0.000784497
0.000830336
0.000877854
0.000926811
0.000976942
0.001028
0.00107978
0.00113212
0.0011849
0.00123809
0.00129166
0.00134563
0.00139998
0.00145474
0.0015099
0.00156546
0.00162142
0.00167776
0.00173446
0.0017915
0.00184885
0.00190647
0.00196433
0.00202238
0.00208058
0.00213887
0.0021972
0.00225551
0.00231375
0.00237185
0.00242976
0.00248741
0.00254474
0.00260168
0.00265819
0.00271421
0.00276967
0.00282452
0.00287871
0.00293219
0.00298492
0.00303685
0.00308793
0.00313814
0.00318741
0.00323572
0.00328301
0.00332923
0.00337435
0.00341822
0.00346086
0.00350233
0.0035427
0.003582
0.00362024
0.00365743
0.00369359
0.00372872
0.0037628
0.00379585
0.00382786
0.00385882
0.00388875
0.00391763
0.00394547
0.00397227
0.00399802
0.00402272
0.00404638
0.00406898
0.00409055
0.00411107
0.00413056
0.00414901
0.00416642
0.00418281
0.00419817
0.00421252
0.00422587
0.00423822
0.00424957
0.00425994
0.00426933
0.00427776
0.00428525
0.00429181
0.00429744
0.00430214
0.00430596
0.00430891
0.00431101
0.00431224
0.00431265
0.00431225
0.00431108
0.00430914
0.00430646
0.00430306
0.00429899
0.00429425
0.00428888
0.0042829
0.00427635
0.00426926
0.00426164
0.00425355
0.00424499
0.00423601
0.00422664
0.00421691
0.00420683
0.00419646
0.00418579
0.00417487
0.00416371
0.00415232
0.00414071
0.00412888
0.00411686
0.00410466
0.00409233
0.0040799
0.00406741
0.00405489
0.00404238
0.0040299
0.00401748
0.00400514
0.0039929
0.00398077
0.00396877
0.00395692
0.00394521
0.00393367
0.00392227
0.00391104
0.00389995
0.00388902
0.00387821
0.00386753
0.00385695
0.00384646
0.00383602
0.00382561
0.0038152
0.00380476
0.00379426
0.00378364
0.00377288
0.00376194
0.00375077
0.00373933
0.00372758
0.00371549
0.00370301
0.00369011
0.00367675
0.00366291
0.00364856
0.00363368
0.00361825
0.00360225
0.0035857
0.00356857
0.00355087
0.00353261
0.0035138
0.00349447
0.00347461
0.00345428
0.00343348
0.00341226
0.00339064
0.00336866
0.00334636
0.00332378
0.00330096
0.00327793
0.00325474
0.00323143
0.00320805
0.00318467
0.00316141
0.00313852
0.00311667
0.00309754
0.00308512
7.32572e-05
0.000225681
0.000332762
0.000402772
0.000454644
0.000498393
0.000538802
0.0005782
0.000617826
0.000658408
0.000700396
0.000744052
0.000789489
0.000836701
0.000885579
0.000935939
0.000987558
0.0010402
0.00109366
0.00114776
0.00120237
0.0012574
0.0013128
0.00136856
0.00142467
0.00148113
0.00153795
0.00159513
0.00165266
0.00171054
0.00176875
0.00182728
0.00188609
0.00194518
0.00200449
0.002064
0.00212366
0.00218343
0.00224326
0.00230309
0.00236287
0.00242255
0.00248205
0.00254133
0.00260031
0.00265894
0.00271716
0.0027749
0.00283211
0.00288873
0.0029447
0.00299998
0.00305451
0.00310825
0.00316116
0.0032132
0.00326434
0.00331453
0.00336374
0.00341193
0.00345906
0.00350506
0.00354986
0.00359352
0.00363606
0.00367753
0.00371795
0.00375732
0.00379566
0.00383296
0.00386923
0.00390447
0.00393866
0.00397181
0.00400392
0.00403498
0.00406499
0.00409396
0.00412187
0.00414873
0.00417454
0.00419928
0.00422297
0.0042456
0.00426719
0.00428773
0.00430722
0.00432567
0.00434307
0.00435943
0.00437477
0.00438909
0.00440241
0.00441472
0.00442601
0.00443631
0.00444563
0.004454
0.00446144
0.00446789
0.00447342
0.00447802
0.00448173
0.00448456
0.00448652
0.00448763
0.00448791
0.00448739
0.00448608
0.00448401
0.0044812
0.00447769
0.00447348
0.00446862
0.00446313
0.00445703
0.00445036
0.00444315
0.00443543
0.00442722
0.00441857
0.00440949
0.00440003
0.0043902
0.00438005
0.0043696
0.00435887
0.0043479
0.00433669
0.00432528
0.00431366
0.00430187
0.00428993
0.00427786
0.00426571
0.00425351
0.00424128
0.00422907
0.0042169
0.00420481
0.0041928
0.00418091
0.00416915
0.00415755
0.0041461
0.00413484
0.00412375
0.00411285
0.00410214
0.00409161
0.00408125
0.00407107
0.00406104
0.00405114
0.00404136
0.00403167
0.00402203
0.00401242
0.0040028
0.00399313
0.00398338
0.00397348
0.00396341
0.00395311
0.00394254
0.00393165
0.00392039
0.00390873
0.00389662
0.00388402
0.00387089
0.00385722
0.00384296
0.0038281
0.00381262
0.00379652
0.00377977
0.0037624
0.00374439
0.00372577
0.00370654
0.00368673
0.00366637
0.00364547
0.00362407
0.00360221
0.00357992
0.00355724
0.00353421
0.00351087
0.00348726
0.00346343
0.0034394
0.00341524
0.00339102
0.00336685
0.00334302
0.00332024
0.0033003
0.00328742
7.5755e-05
0.000231989
0.00034456
0.000419189
0.000474601
0.000521222
0.000564218
0.000606149
0.000648344
0.000691538
0.000736143
0.000782365
0.000830262
0.000879782
0.000930789
0.000983099
0.0010365
0.00109079
0.00114579
0.00120134
0.00125733
0.00131369
0.00137038
0.00142736
0.00148465
0.00154223
0.00160011
0.00165829
0.00171677
0.00177554
0.0018346
0.00189392
0.0019535
0.00201331
0.00207332
0.00213349
0.00219381
0.00225421
0.00231466
0.00237511
0.00243551
0.0024958
0.00255592
0.00261581
0.00267541
0.00273466
0.00279349
0.00285185
0.00290967
0.0029669
0.00302347
0.00307933
0.00313445
0.00318876
0.00324223
0.00329483
0.00334652
0.00339726
0.00344703
0.00349579
0.00354349
0.00359011
0.00363563
0.00368009
0.00372349
0.00376585
0.00380719
0.0038475
0.0038868
0.00392508
0.00396234
0.00399857
0.00403376
0.00406791
0.00410102
0.00413309
0.00416411
0.00419408
0.00422301
0.00425088
0.00427768
0.00430342
0.0043281
0.00435172
0.00437429
0.00439582
0.0044163
0.00443572
0.00445408
0.0044714
0.00448769
0.00450295
0.00451722
0.00453045
0.00454266
0.00455387
0.00456408
0.00457332
0.00458161
0.00458892
0.00459529
0.00460073
0.00460526
0.00460889
0.00461164
0.00461352
0.00461457
0.00461479
0.0046142
0.00461284
0.00461072
0.00460787
0.00460432
0.00460008
0.00459518
0.00458966
0.00458355
0.00457686
0.00456964
0.00456192
0.00455371
0.00454507
0.00453601
0.00452657
0.00451678
0.00450667
0.00449627
0.00448561
0.00447471
0.0044636
0.0044523
0.00444083
0.00442922
0.00441749
0.00440569
0.00439384
0.00438198
0.00437013
0.00435834
0.00434663
0.00433503
0.00432356
0.00431224
0.00430109
0.00429012
0.00427936
0.00426881
0.00425847
0.00424836
0.00423846
0.00422877
0.00421929
0.00421
0.00420088
0.00419191
0.00418307
0.00417432
0.00416563
0.00415696
0.00414826
0.0041395
0.00413062
0.00412158
0.00411232
0.00410279
0.00409294
0.00408272
0.00407208
0.00406096
0.00404934
0.00403715
0.00402438
0.00401098
0.00399693
0.00398221
0.0039668
0.0039507
0.0039339
0.0039164
0.00389822
0.00387936
0.00385985
0.00383971
0.00381897
0.00379766
0.00377581
0.00375345
0.00373064
0.0037074
0.00368379
0.00365983
0.00363557
0.00361105
0.00358633
0.00356146
0.00353659
0.00351201
0.00348847
0.00346785
0.00345456
7.76271e-05
0.000236605
0.000353862
0.000432653
0.000491313
0.000540534
0.00058579
0.000629835
0.000674086
0.000719289
0.000765831
0.000813881
0.000863461
0.000914491
0.000966826
0.00102028
0.00107467
0.0011298
0.00118552
0.00124168
0.00129821
0.00135502
0.00141209
0.00146939
0.00152691
0.00158466
0.00164265
0.00170087
0.00175933
0.00181804
0.001877
0.00193619
0.00199561
0.00205525
0.00211508
0.00217509
0.00223523
0.00229549
0.00235583
0.00241619
0.00247653
0.0025368
0.00259694
0.00265689
0.0027166
0.00277598
0.00283499
0.00289355
0.00295161
0.00300909
0.00306594
0.00312209
0.00317751
0.00323213
0.00328592
0.00333884
0.00339086
0.00344195
0.00349208
0.00354121
0.00358933
0.00363648
0.00368263
0.00372778
0.00377193
0.00381508
0.00385725
0.00389842
0.00393859
0.00397776
0.00401592
0.00405306
0.00408917
0.00412425
0.00415829
0.00419128
0.00422324
0.00425415
0.00428402
0.00431284
0.00434058
0.00436726
0.00439287
0.00441743
0.00444093
0.00446339
0.00448483
0.00450518
0.00452447
0.00454271
0.00455991
0.00457609
0.00459125
0.00460538
0.0046185
0.00463061
0.00464172
0.00465186
0.00466102
0.00466922
0.00467647
0.00468278
0.00468818
0.00469267
0.00469626
0.00469899
0.00470086
0.00470189
0.00470211
0.00470153
0.00470018
0.00469808
0.00469526
0.00469173
0.00468754
0.00468269
0.00467722
0.00467117
0.00466455
0.00465741
0.00464976
0.00464165
0.00463311
0.00462416
0.00461483
0.00460517
0.00459521
0.00458496
0.00457447
0.00456375
0.00455285
0.00454177
0.00453056
0.00451924
0.00450784
0.0044964
0.00448496
0.00447354
0.00446218
0.00445091
0.00443976
0.00442875
0.00441791
0.00440727
0.00439683
0.00438663
0.00437666
0.00436694
0.00435747
0.00434826
0.0043393
0.00433058
0.0043221
0.00431382
0.00430574
0.00429783
0.00429005
0.00428237
0.00427474
0.00426712
0.00425947
0.00425173
0.00424384
0.00423576
0.00422742
0.00421876
0.00420973
0.00420027
0.00419032
0.00417984
0.00416878
0.0041571
0.00414475
0.00413171
0.00411795
0.00410345
0.0040882
0.00407219
0.00405541
0.00403788
0.00401961
0.00400061
0.00398091
0.00396053
0.0039395
0.00391787
0.00389565
0.0038729
0.00384965
0.00382595
0.00380182
0.00377732
0.00375249
0.00372736
0.00370203
0.00367661
0.00365142
0.00362723
0.00360602
0.00359234
7.89597e-05
0.00023979
0.000361001
0.000443499
0.00050509
0.000556617
0.000603794
0.000649542
0.000695358
0.000742006
0.00078986
0.000839063
0.000889615
0.000941422
0.000994336
0.00104818
0.00110278
0.00115796
0.00121358
0.00126953
0.00132572
0.00138211
0.00143865
0.00149533
0.00155216
0.00160914
0.00166629
0.00172363
0.00178116
0.00183891
0.00189688
0.00195508
0.00201352
0.0020722
0.0021311
0.00219022
0.00224954
0.00230903
0.00236866
0.0024284
0.0024882
0.002548
0.00260775
0.00266739
0.00272686
0.00278609
0.002845
0.00290353
0.00296161
0.00301916
0.00307612
0.00313242
0.00318799
0.0032428
0.00329679
0.00334993
0.00340218
0.00345351
0.00350389
0.0035533
0.00360187
0.00364956
0.00369632
0.00374214
0.00378701
0.00383092
0.00387387
0.00391585
0.00395686
0.00399689
0.00403592
0.00407392
0.00411091
0.00414686
0.00418179
0.00421567
0.00424851
0.00428032
0.0043111
0.00434081
0.00436945
0.00439702
0.00442353
0.00444897
0.00447337
0.00449671
0.00451902
0.00454025
0.00456044
0.00457958
0.00459768
0.00461476
0.00463081
0.00464585
0.00465987
0.00467289
0.00468491
0.00469596
0.00470603
0.00471514
0.0047233
0.00473052
0.00473682
0.00474221
0.0047467
0.00475032
0.00475307
0.00475498
0.00475606
0.00475633
0.00475582
0.00475455
0.00475253
0.0047498
0.00474638
0.00474229
0.00473756
0.00473222
0.00472629
0.00471982
0.00471283
0.00470534
0.0046974
0.00468903
0.00468027
0.00467115
0.00466171
0.00465196
0.00464196
0.00463173
0.00462129
0.00461068
0.00459993
0.00458908
0.00457814
0.00456717
0.00455619
0.00454524
0.00453436
0.00452358
0.00451292
0.00450243
0.00449212
0.00448202
0.00447216
0.00446255
0.00445321
0.00444414
0.00443537
0.00442689
0.0044187
0.00441079
0.00440316
0.00439579
0.00438866
0.00438173
0.00437499
0.00436839
0.00436188
0.00435543
0.00434898
0.00434247
0.00433584
0.00432905
0.00432201
0.00431467
0.00430696
0.00429882
0.00429019
0.00428102
0.00427124
0.00426081
0.00424969
0.00423783
0.0042252
0.00421178
0.00419756
0.00418251
0.00416664
0.00414994
0.00413243
0.00411412
0.00409504
0.0040752
0.00405463
0.00403338
0.00401147
0.00398895
0.00396584
0.0039422
0.00391806
0.00389347
0.00386845
0.00384307
0.00381739
0.00379154
0.00376585
0.00374112
0.00371938
0.00370532
7.98294e-05
0.000241771
0.00036627
0.000452029
0.00051622
0.000569743
0.000618494
0.000665535
0.000712436
0.000759986
0.00080855
0.000858258
0.000909095
0.00096096
0.00101371
0.00106716
0.00112117
0.00117557
0.00123025
0.0012851
0.00134005
0.00139507
0.00145014
0.00150526
0.00156044
0.00161571
0.00167109
0.00172662
0.00178234
0.00183827
0.00189446
0.00195091
0.00200766
0.00206471
0.00212208
0.00217975
0.00223773
0.002296
0.00235453
0.00241329
0.00247223
0.00253129
0.00259043
0.00264957
0.00270864
0.00276758
0.00282629
0.00288471
0.00294275
0.00300032
0.00305734
0.00311375
0.00316947
0.00322444
0.0032786
0.00333193
0.00338437
0.00343591
0.0034865
0.00353633
0.00358541
0.00363368
0.00368107
0.00372758
0.00377318
0.00381785
0.00386158
0.00390437
0.0039462
0.00398707
0.00402694
0.0040658
0.00410363
0.00414043
0.0041762
0.00421093
0.00424462
0.00427727
0.00430888
0.00433944
0.00436892
0.00439734
0.0044247
0.00445101
0.00447625
0.00450046
0.00452361
0.00454571
0.00456677
0.00458679
0.00460577
0.00462374
0.00464068
0.00465662
0.00467154
0.00468547
0.00469842
0.00471038
0.00472138
0.00473142
0.00474052
0.00474868
0.00475591
0.00476224
0.00476767
0.00477222
0.0047759
0.00477873
0.00478073
0.00478192
0.00478231
0.00478193
0.00478079
0.00477892
0.00477634
0.00477308
0.00476916
0.00476462
0.00475947
0.00475375
0.00474749
0.00474072
0.00473346
0.00472576
0.00471765
0.00470916
0.00470032
0.00469116
0.00468173
0.00467205
0.00466216
0.00465209
0.00464187
0.00463154
0.00462113
0.00461068
0.00460022
0.0045898
0.00457944
0.00456919
0.00455908
0.00454914
0.00453941
0.0045299
0.00452064
0.00451167
0.00450299
0.00449463
0.00448658
0.00447887
0.00447149
0.00446444
0.0044577
0.00445128
0.00444514
0.00443926
0.00443361
0.00442814
0.00442283
0.00441761
0.00441243
0.00440724
0.00440197
0.00439655
0.00439091
0.004385
0.00437873
0.00437204
0.00436485
0.00435711
0.00434875
0.00433972
0.00432996
0.00431943
0.00430809
0.00429591
0.00428287
0.00426895
0.00425413
0.00423843
0.00422184
0.00420438
0.00418607
0.00416692
0.00414696
0.00412624
0.00410478
0.00408262
0.0040598
0.00403635
0.00401232
0.00398775
0.00396267
0.00393713
0.00391121
0.00388504
0.00385894
0.00383374
0.0038115
0.00379707
8.03083e-05
0.000242755
0.000369934
0.000458515
0.000524961
0.000580151
0.000630114
0.000678028
0.000725527
0.000773425
0.000822087
0.000871634
0.000922041
0.000973204
0.00102498
0.00107721
0.00112975
0.00118247
0.00123525
0.00128803
0.00134075
0.00139341
0.001446
0.00149855
0.0015511
0.0016037
0.0016564
0.00170926
0.00176235
0.00181571
0.00186941
0.00192349
0.00197798
0.00203292
0.00208832
0.0021442