/*--------------------------------*- C++ -*----------------------------------*\
  =========                 |
  \\      /  F ield         | OpenFOAM: The Open Source CFD Toolbox
   \\    /   O peration     | Website:  https://openfoam.org
    \\  /    A nd           | Version:  7
     \\/     M anipulation  |
\*---------------------------------------------------------------------------*/
FoamFile
{
    version     2.0;
    format      ascii;
    class       volScalarField;
    location    "1000";
    object      p;
}
// * * * * * * * * * * * * * * * * * * * * * * * * * * * * * * * * * * * * * //

dimensions      [0 2 -2 0 0 0 0];

internalField   nonuniform List<scalar> 
16900
(
-21.5565
-21.5597
-21.5657
-21.5742
-21.5851
-21.5982
-21.6136
-21.6314
-21.6515
-21.674
-21.6987
-21.7259
-21.7557
-21.7887
-21.8246
-21.862
-21.903
-21.9491
-21.9906
-22.0231
-22.0579
-22.099
-22.1418
-22.1853
-22.2294
-22.2735
-22.3177
-22.3616
-22.4051
-22.448
-22.4901
-22.5312
-22.571
-22.6093
-22.6458
-22.6803
-22.7124
-22.7419
-22.7684
-22.7916
-22.8112
-22.8268
-22.838
-22.8445
-22.846
-22.842
-22.8322
-22.8163
-22.7938
-22.7644
-22.7278
-22.6836
-22.6314
-22.571
-22.5021
-22.4245
-22.3378
-22.2419
-22.1367
-22.022
-21.8978
-21.764
-21.6207
-21.4679
-21.3056
-21.1338
-20.9528
-20.7629
-20.5642
-20.357
-20.1417
-19.9185
-19.6877
-19.4496
-19.2047
-18.9532
-18.6956
-18.4322
-18.1633
-17.8895
-17.6112
-17.3286
-17.0423
-16.7527
-16.4602
-16.1653
-15.8683
-15.5696
-15.2698
-14.9691
-14.668
-14.3668
-14.066
-13.7659
-13.4669
-13.1692
-12.8732
-12.5793
-12.2876
-11.9985
-11.7122
-11.429
-11.149
-10.8725
-10.5997
-10.3307
-10.0656
-9.80468
-9.54791
-9.29545
-9.04737
-8.80373
-8.56458
-8.32996
-8.0999
-7.8744
-7.65345
-7.43707
-7.2252
-7.0178
-6.8149
-6.61638
-6.42218
-6.23233
-6.04674
-5.86512
-5.68756
-5.51426
-5.34525
-5.17931
-5.01644
-4.85787
-4.70331
-4.55251
-4.40529
-4.26152
-4.12108
-3.98385
-3.84975
-3.71868
-3.59055
-3.46528
-3.34281
-3.22305
-3.10593
-2.9914
-2.8794
-2.76986
-2.66275
-2.558
-2.45559
-2.35547
-2.25761
-2.16197
-2.06855
-1.9773
-1.88822
-1.80129
-1.7165
-1.63385
-1.55334
-1.47495
-1.39869
-1.32457
-1.25259
-1.18276
-1.11507
-1.04955
-0.986181
-0.924978
-0.865941
-0.809067
-0.754352
-0.701786
-0.651358
-0.603049
-0.556837
-0.512693
-0.470584
-0.430471
-0.39231
-0.356049
-0.321634
-0.289003
-0.258092
-0.228832
-0.201152
-0.174977
-0.150235
-0.126852
-0.104761
-0.0839021
-0.0642311
-0.0457289
-0.0284223
-0.0124169
0.00201575
0.0143349
0.0228777
0.0288797
-21.5529
-21.5567
-21.5614
-21.5679
-21.5771
-21.5889
-21.6032
-21.6198
-21.6388
-21.6601
-21.6836
-21.7091
-21.7368
-21.7661
-21.7969
-21.8311
-21.8673
-21.901
-21.9381
-21.9859
-22.0352
-22.0795
-22.1228
-22.1663
-22.2099
-22.2536
-22.2972
-22.3406
-22.3836
-22.426
-22.4677
-22.5084
-22.5479
-22.5859
-22.6222
-22.6565
-22.6885
-22.7179
-22.7444
-22.7677
-22.7874
-22.8033
-22.8148
-22.8218
-22.8238
-22.8205
-22.8115
-22.7964
-22.7749
-22.7466
-22.7112
-22.6682
-22.6175
-22.5587
-22.4915
-22.4156
-22.3308
-22.2369
-22.1338
-22.0213
-21.8993
-21.7678
-21.6268
-21.4764
-21.3165
-21.147
-20.9684
-20.7808
-20.5844
-20.3796
-20.1666
-19.9457
-19.7172
-19.4815
-19.2388
-18.9895
-18.734
-18.4727
-18.206
-17.9341
-17.6577
-17.377
-17.0925
-16.8046
-16.5138
-16.2204
-15.9248
-15.6275
-15.3289
-15.0294
-14.7294
-14.4292
-14.1293
-13.83
-13.5316
-13.2345
-12.9391
-12.6455
-12.3541
-12.0652
-11.7791
-11.4959
-11.2159
-10.9392
-10.6662
-10.3969
-10.1315
-9.87006
-9.6128
-9.35977
-9.11107
-8.86675
-8.62687
-8.39147
-8.16059
-7.93422
-7.71237
-7.49506
-7.28223
-7.07383
-6.86994
-6.67038
-6.47506
-6.28414
-6.09749
-5.91459
-5.73562
-5.56097
-5.39058
-5.22383
-5.06074
-4.90183
-4.74685
-4.59559
-4.4479
-4.30364
-4.16271
-4.02499
-3.89039
-3.75882
-3.63019
-3.50443
-3.38146
-3.2612
-3.1436
-3.02859
-2.9161
-2.8061
-2.69851
-2.59331
-2.49044
-2.38986
-2.29155
-2.19548
-2.10161
-2.00993
-1.92041
-1.83305
-1.74783
-1.66475
-1.5838
-1.50497
-1.42828
-1.35372
-1.28129
-1.211
-1.14285
-1.07685
-1.01301
-0.951313
-0.891776
-0.834391
-0.779154
-0.726055
-0.675081
-0.626215
-0.579435
-0.534712
-0.492015
-0.451303
-0.412534
-0.375658
-0.340621
-0.307363
-0.275822
-0.24593
-0.217617
-0.190812
-0.165442
-0.141438
-0.118734
-0.0972741
-0.077016
-0.0579441
-0.0400873
-0.0235467
-0.00858146
0.00439976
0.0138316
0.0249043
-21.5474
-21.5543
-21.5604
-21.567
-21.5759
-21.5874
-21.6014
-21.6179
-21.6369
-21.6583
-21.6821
-21.7083
-21.7369
-21.7675
-21.7997
-21.8337
-21.8688
-21.9032
-21.9389
-21.9796
-22.0228
-22.0653
-22.1078
-22.1505
-22.1933
-22.2362
-22.279
-22.3216
-22.3639
-22.4057
-22.4467
-22.4868
-22.5257
-22.5633
-22.5991
-22.6331
-22.6648
-22.694
-22.7203
-22.7436
-22.7633
-22.7793
-22.7911
-22.7984
-22.8008
-22.7981
-22.7897
-22.7754
-22.7549
-22.7276
-22.6934
-22.6519
-22.6026
-22.5454
-22.4799
-22.4059
-22.323
-22.2312
-22.1303
-22.02
-21.9004
-21.7713
-21.6329
-21.485
-21.3275
-21.1605
-20.9844
-20.7993
-20.6056
-20.4033
-20.1929
-19.9745
-19.7486
-19.5153
-19.2752
-19.0283
-18.7753
-18.5164
-18.2519
-17.9824
-17.7082
-17.4296
-17.1472
-16.8613
-16.5724
-16.2809
-15.9871
-15.6915
-15.3945
-15.0964
-14.7978
-14.499
-14.2003
-13.9021
-13.6047
-13.3085
-13.0139
-12.7211
-12.4303
-12.142
-11.8563
-11.5734
-11.2937
-11.0173
-10.7443
-10.4751
-10.2096
-9.94814
-9.6907
-9.43745
-9.18848
-8.94383
-8.70355
-8.46774
-8.23641
-8.00953
-7.78713
-7.56934
-7.35592
-7.14683
-6.94241
-6.74226
-6.54611
-6.35438
-6.167
-5.98354
-5.80411
-5.62892
-5.4579
-5.29033
-5.12614
-4.96595
-4.80959
-4.65696
-4.50794
-4.36241
-4.22024
-4.08134
-3.9456
-3.81294
-3.68325
-3.55648
-3.43252
-3.31132
-3.1928
-3.07691
-2.96357
-2.85273
-2.74434
-2.63835
-2.53472
-2.4334
-2.33437
-2.23759
-2.14302
-2.05066
-1.96048
-1.87246
-1.78658
-1.70285
-1.62126
-1.54179
-1.46445
-1.38925
-1.31617
-1.24523
-1.17643
-1.10977
-1.04525
-0.982884
-0.92266
-0.864578
-0.808633
-0.754816
-0.703115
-0.653511
-0.605983
-0.560503
-0.517041
-0.475557
-0.436009
-0.39835
-0.362527
-0.328481
-0.296151
-0.265473
-0.236377
-0.208795
-0.182656
-0.157893
-0.134442
-0.112248
-0.0912701
-0.0714905
-0.0529303
-0.0356635
-0.0198994
-0.00578831
0.0051338
0.0231725
-21.5433
-21.5533
-21.5619
-21.5694
-21.5787
-21.5903
-21.6043
-21.6207
-21.6395
-21.6607
-21.6842
-21.7099
-21.7378
-21.7677
-21.7992
-21.8322
-21.8665
-21.9015
-21.9379
-21.9766
-22.0172
-22.0583
-22.0999
-22.1417
-22.1838
-22.226
-22.2682
-22.3102
-22.3519
-22.3932
-22.4337
-22.4734
-22.512
-22.5492
-22.5849
-22.6186
-22.6502
-22.6793
-22.7057
-22.729
-22.7489
-22.7651
-22.7772
-22.7849
-22.7878
-22.7856
-22.778
-22.7645
-22.7448
-22.7185
-22.6853
-22.6449
-22.5969
-22.5411
-22.477
-22.4045
-22.3232
-22.233
-22.1338
-22.0253
-21.9074
-21.7803
-21.6437
-21.4975
-21.3417
-21.1765
-21.0022
-20.8189
-20.627
-20.4265
-20.2179
-20.0013
-19.7772
-19.5457
-19.3072
-19.0621
-18.8108
-18.5535
-18.2906
-18.0227
-17.75
-17.4729
-17.1919
-16.9074
-16.6197
-16.3294
-16.0368
-15.7423
-15.4463
-15.1493
-14.8516
-14.5536
-14.2556
-13.9581
-13.6614
-13.3658
-13.0716
-12.7792
-12.4889
-12.2008
-11.9153
-11.6327
-11.3531
-11.0767
-10.8037
-10.5344
-10.2689
-10.0072
-9.74959
-9.4961
-9.24688
-9.00192
-8.76126
-8.52509
-8.29342
-8.06607
-7.84314
-7.62502
-7.41109
-7.20126
-6.99616
-6.79538
-6.5987
-6.40638
-6.21834
-6.0343
-5.85431
-5.67848
-5.50673
-5.33857
-5.17389
-5.01307
-4.85604
-4.7027
-4.55296
-4.40671
-4.26384
-4.12426
-3.98785
-3.85454
-3.72422
-3.59683
-3.47228
-3.3505
-3.23141
-3.11496
-3.00108
-2.88972
-2.78081
-2.67432
-2.57019
-2.46839
-2.36887
-2.27161
-2.17658
-2.08375
-1.9931
-1.90462
-1.81828
-1.73408
-1.65202
-1.57208
-1.49427
-1.41859
-1.34502
-1.27359
-1.20428
-1.13711
-1.07207
-1.00917
-0.948404
-0.889769
-0.83326
-0.778869
-0.726582
-0.676383
-0.62825
-0.582157
-0.538073
-0.49596
-0.455778
-0.417479
-0.381012
-0.346321
-0.313345
-0.282021
-0.252281
-0.224059
-0.197284
-0.17189
-0.147814
-0.124999
-0.103402
-0.082995
-0.0637813
-0.0457866
-0.0291456
-0.0136821
-0.000953106
0.0231904
-21.5422
-21.5548
-21.5655
-21.5741
-21.5839
-21.5959
-21.61
-21.6265
-21.6453
-21.6663
-21.6896
-21.7149
-21.7423
-21.7715
-21.8024
-21.8348
-21.8686
-21.9034
-21.9397
-21.9777
-22.017
-22.0571
-22.0978
-22.1389
-22.1804
-22.222
-22.2637
-22.3052
-22.3466
-22.3875
-22.4277
-22.4672
-22.5056
-22.5427
-22.5782
-22.6119
-22.6435
-22.6727
-22.6992
-22.7226
-22.7428
-22.7592
-22.7717
-22.7798
-22.7832
-22.7816
-22.7745
-22.7617
-22.7427
-22.7173
-22.685
-22.6455
-22.5985
-22.5437
-22.4807
-22.4093
-22.3293
-22.2403
-22.1422
-22.035
-21.9184
-21.7925
-21.6571
-21.5119
-21.3571
-21.1931
-21.0199
-20.8377
-20.6469
-20.4476
-20.2401
-20.0247
-19.8016
-19.5712
-19.3339
-19.0898
-18.8395
-18.5833
-18.3214
-18.0544
-17.7826
-17.5065
-17.2263
-16.9426
-16.6558
-16.3662
-16.0743
-15.7805
-15.4851
-15.1887
-14.8915
-14.594
-14.2965
-13.9994
-13.703
-13.4077
-13.1138
-12.8217
-12.5315
-12.2436
-11.9582
-11.6756
-11.3961
-11.1197
-10.8467
-10.5773
-10.3117
-10.0499
-9.79204
-9.53836
-9.289
-9.04379
-8.80277
-8.56634
-8.33447
-8.10669
-7.88321
-7.66454
-7.45016
-7.24
-7.03441
-6.83316
-6.63611
-6.44335
-6.25484
-6.0704
-5.89002
-5.71375
-5.5415
-5.37299
-5.20812
-5.04706
-4.88973
-4.73607
-4.58599
-4.43938
-4.29615
-4.15619
-4.01943
-3.88575
-3.75508
-3.62733
-3.50243
-3.38031
-3.26088
-3.14409
-3.02988
-2.91818
-2.80895
-2.70213
-2.59767
-2.49555
-2.39571
-2.29813
-2.20277
-2.10961
-2.01864
-1.92982
-1.84315
-1.75861
-1.6762
-1.59591
-1.51774
-1.44169
-1.36776
-1.29594
-1.22624
-1.15867
-1.09322
-1.0299
-0.968707
-0.909634
-0.852678
-0.797831
-0.74508
-0.694409
-0.645796
-0.599217
-0.554639
-0.512029
-0.471344
-0.432541
-0.395566
-0.360366
-0.326881
-0.295049
-0.264802
-0.236076
-0.208799
-0.182907
-0.158333
-0.135019
-0.112913
-0.0919761
-0.0721863
-0.0535143
-0.0360261
-0.0192338
-0.00491488
0.0238617
-21.5447
-21.5591
-21.5711
-21.5808
-21.5913
-21.6037
-21.6181
-21.6347
-21.6535
-21.6745
-21.6976
-21.7227
-21.7497
-21.7785
-21.8089
-21.8409
-21.8743
-21.9088
-21.9447
-21.9819
-22.0203
-22.0596
-22.0996
-22.1402
-22.1811
-22.2222
-22.2635
-22.3048
-22.3458
-22.3865
-22.4266
-22.4659
-22.5042
-22.5413
-22.5768
-22.6106
-22.6423
-22.6716
-22.6983
-22.722
-22.7424
-22.7592
-22.772
-22.7805
-22.7844
-22.7833
-22.7768
-22.7645
-22.7462
-22.7215
-22.6899
-22.6512
-22.6051
-22.5511
-22.489
-22.4184
-22.3392
-22.2511
-22.1539
-22.0475
-21.9318
-21.8067
-21.6719
-21.5272
-21.3731
-21.2097
-21.0371
-20.8557
-20.6655
-20.4669
-20.2601
-20.0454
-19.823
-19.5933
-19.3566
-19.1132
-18.8635
-18.6079
-18.3467
-18.0802
-17.809
-17.5334
-17.2538
-16.9706
-16.6842
-16.3951
-16.1036
-15.8102
-15.5152
-15.2191
-14.9223
-14.6251
-14.3279
-14.031
-13.7349
-13.4398
-13.1461
-12.8541
-12.564
-12.2762
-11.9909
-11.7084
-11.4289
-11.1525
-10.8794
-10.61
-10.3444
-10.0826
-9.82451
-9.5707
-9.32136
-9.07599
-8.83459
-8.59785
-8.36563
-8.13765
-7.91402
-7.69502
-7.48037
-7.27003
-7.06416
-6.86263
-6.66534
-6.47232
-6.28353
-6.09885
-5.91824
-5.74171
-5.56918
-5.40046
-5.23546
-5.07424
-4.91673
-4.76286
-4.61255
-4.46571
-4.32223
-4.18203
-4.045
-3.91107
-3.78015
-3.65215
-3.527
-3.40461
-3.28494
-3.1679
-3.05343
-2.94148
-2.832
-2.72492
-2.62021
-2.51783
-2.41774
-2.31989
-2.22427
-2.13085
-2.0396
-1.95051
-1.86356
-1.77873
-1.69603
-1.61545
-1.53697
-1.4606
-1.38635
-1.3142
-1.24417
-1.17626
-1.11046
-1.04678
-0.985213
-0.925766
-0.868428
-0.813193
-0.760046
-0.708975
-0.659956
-0.612968
-0.567977
-0.524951
-0.483848
-0.444626
-0.407231
-0.371613
-0.33771
-0.305463
-0.274803
-0.245667
-0.217982
-0.191683
-0.1667
-0.142973
-0.120439
-0.0990457
-0.0787461
-0.0594577
-0.0412004
-0.0232169
-0.00769298
0.0245371
-21.5505
-21.5659
-21.5789
-21.5893
-21.6005
-21.6132
-21.6279
-21.6447
-21.6636
-21.6845
-21.7075
-21.7324
-21.7591
-21.7875
-21.8176
-21.8491
-21.882
-21.9162
-21.9516
-21.9883
-22.0261
-22.0647
-22.1042
-22.1442
-22.1847
-22.2255
-22.2665
-22.3076
-22.3485
-22.389
-22.4291
-22.4683
-22.5067
-22.5438
-22.5794
-22.6133
-22.6451
-22.6747
-22.7016
-22.7256
-22.7463
-22.7634
-22.7766
-22.7855
-22.7898
-22.7891
-22.7832
-22.7715
-22.7537
-22.7296
-22.6987
-22.6606
-22.6151
-22.5617
-22.5003
-22.4304
-22.3518
-22.2643
-22.1677
-22.0618
-21.9467
-21.822
-21.6873
-21.5428
-21.389
-21.2258
-21.0537
-20.8726
-20.6828
-20.4846
-20.2781
-20.0637
-19.8417
-19.6124
-19.3761
-19.133
-18.8837
-18.6284
-18.3675
-18.1014
-17.8305
-17.5552
-17.2758
-16.9929
-16.7069
-16.418
-16.1268
-15.8336
-15.5388
-15.2429
-14.9463
-14.6493
-14.3522
-14.0555
-13.7595
-13.4646
-13.171
-12.8791
-12.5891
-12.3014
-12.0161
-11.7337
-11.4543
-11.1779
-10.9048
-10.6354
-10.3699
-10.108
-9.84975
-9.59581
-9.34624
-9.10075
-8.85938
-8.62252
-8.39013
-8.16205
-7.93836
-7.7192
-7.50441
-7.29397
-7.08796
-6.88628
-6.68886
-6.49571
-6.30677
-6.12195
-5.94122
-5.76455
-5.59186
-5.42301
-5.25792
-5.0966
-4.93897
-4.78497
-4.63451
-4.48751
-4.34386
-4.20348
-4.06627
-3.93216
-3.80104
-3.67285
-3.54751
-3.42493
-3.30506
-3.18782
-3.07315
-2.961
-2.85131
-2.74403
-2.63911
-2.53651
-2.4362
-2.33813
-2.24228
-2.14863
-2.05715
-1.96781
-1.88061
-1.79554
-1.71258
-1.63173
-1.55298
-1.47634
-1.4018
-1.32936
-1.25903
-1.19081
-1.12469
-1.0607
-0.998808
-0.939031
-0.881357
-0.825782
-0.772291
-0.720872
-0.671503
-0.624161
-0.578816
-0.535436
-0.493978
-0.454402
-0.416655
-0.380687
-0.346437
-0.313846
-0.282845
-0.25337
-0.22535
-0.198716
-0.173396
-0.149324
-0.126429
-0.104643
-0.0838974
-0.0640626
-0.0451383
-0.0261362
-0.00977449
0.0250111
-21.5589
-21.5749
-21.5884
-21.5994
-21.611
-21.6241
-21.639
-21.6559
-21.6748
-21.6957
-21.7185
-21.7431
-21.7696
-21.7977
-21.8273
-21.8585
-21.891
-21.9248
-21.9598
-21.996
-22.0332
-22.0714
-22.1104
-22.1501
-22.1903
-22.2309
-22.2717
-22.3126
-22.3535
-22.394
-22.4341
-22.4734
-22.5118
-22.5491
-22.5849
-22.6189
-22.651
-22.6808
-22.7079
-22.7322
-22.7532
-22.7707
-22.7842
-22.7935
-22.7982
-22.798
-22.7924
-22.7812
-22.764
-22.7403
-22.7099
-22.6723
-22.6273
-22.5744
-22.5134
-22.444
-22.3659
-22.2788
-22.1825
-22.077
-21.9621
-21.8373
-21.7024
-21.5579
-21.4041
-21.2411
-21.069
-20.888
-20.6984
-20.5003
-20.294
-20.0797
-19.8579
-19.6287
-19.3925
-19.1496
-18.9004
-18.6453
-18.3845
-18.1185
-17.8478
-17.5726
-17.2934
-17.0106
-16.7247
-16.4359
-16.1448
-15.8517
-15.5571
-15.2613
-14.9648
-14.6679
-14.371
-14.0743
-13.7784
-13.4836
-13.1901
-12.8984
-12.6085
-12.3207
-12.0355
-11.7532
-11.4739
-11.1975
-10.9243
-10.6549
-10.3893
-10.1274
-9.86923
-9.6153
-9.36562
-9.12011
-8.8788
-8.64193
-8.40947
-8.18138
-7.95768
-7.73846
-7.52363
-7.31317
-7.1071
-6.90537
-6.70791
-6.5147
-6.3257
-6.14084
-5.96006
-5.78333
-5.61056
-5.44165
-5.27653
-5.11516
-4.95748
-4.8034
-4.65286
-4.50575
-4.36199
-4.22149
-4.08416
-3.94991
-3.81866
-3.69033
-3.56484
-3.44211
-3.32209
-3.20469
-3.08986
-2.97754
-2.86768
-2.76022
-2.65512
-2.55234
-2.45184
-2.35358
-2.25753
-2.16367
-2.07198
-1.98243
-1.89501
-1.80971
-1.72651
-1.64542
-1.56643
-1.48953
-1.41473
-1.34203
-1.27143
-1.20293
-1.13654
-1.07225
-1.01008
-0.950003
-0.89203
-0.836153
-0.782358
-0.730633
-0.680956
-0.633308
-0.587656
-0.543971
-0.502209
-0.462333
-0.424287
-0.388026
-0.353484
-0.320607
-0.289323
-0.259571
-0.231273
-0.204364
-0.178765
-0.154406
-0.131207
-0.109086
-0.0879562
-0.0676479
-0.0481644
-0.0283142
-0.0114207
0.0252248
-21.5695
-21.5857
-21.5993
-21.6107
-21.6226
-21.6359
-21.6509
-21.6678
-21.6866
-21.7074
-21.73
-21.7544
-21.7805
-21.8083
-21.8376
-21.8684
-21.9005
-21.9339
-21.9686
-22.0044
-22.0412
-22.0791
-22.1177
-22.1572
-22.1972
-22.2376
-22.2784
-22.3193
-22.3601
-22.4007
-22.4409
-22.4803
-22.5189
-22.5563
-22.5923
-22.6266
-22.6589
-22.6889
-22.7164
-22.7409
-22.7622
-22.78
-22.7938
-22.8034
-22.8085
-22.8086
-22.8034
-22.7926
-22.7757
-22.7525
-22.7224
-22.6852
-22.6406
-22.5881
-22.5274
-22.4583
-22.3803
-22.2934
-22.1973
-22.0919
-21.977
-21.8518
-21.7165
-21.5719
-21.4179
-21.2548
-21.0826
-20.9016
-20.7119
-20.5138
-20.3074
-20.0932
-19.8713
-19.6421
-19.4059
-19.163
-18.9138
-18.6587
-18.3979
-18.132
-17.8612
-17.586
-17.3069
-17.0242
-16.7383
-16.4496
-16.1585
-15.8655
-15.5709
-15.2752
-14.9787
-14.682
-14.3851
-14.0885
-13.7926
-13.4978
-13.2045
-12.913
-12.6231
-12.3352
-12.0501
-11.7678
-11.4885
-11.2122
-10.9391
-10.6697
-10.4041
-10.1423
-9.88426
-9.63039
-9.38073
-9.13527
-8.89405
-8.65722
-8.42479
-8.19675
-7.9731
-7.75391
-7.53911
-7.32869
-7.12265
-6.92093
-6.7235
-6.53032
-6.34133
-6.15649
-5.97572
-5.79899
-5.62621
-5.45731
-5.29219
-5.13082
-4.97312
-4.81902
-4.66843
-4.52127
-4.37745
-4.23687
-4.09946
-3.96512
-3.83377
-3.70533
-3.57973
-3.45688
-3.33673
-3.2192
-3.10424
-2.99178
-2.88177
-2.77415
-2.6689
-2.56595
-2.46527
-2.36684
-2.27061
-2.17656
-2.08467
-1.99492
-1.90729
-1.82178
-1.73837
-1.65705
-1.57783
-1.5007
-1.42566
-1.35271
-1.28186
-1.21311
-1.14645
-1.08191
-1.01946
-0.959121
-0.900877
-0.844729
-0.79066
-0.738664
-0.688715
-0.640797
-0.594876
-0.550925
-0.508901
-0.468767
-0.430468
-0.393958
-0.359172
-0.326057
-0.294539
-0.264558
-0.236033
-0.208899
-0.183071
-0.158475
-0.135022
-0.112619
-0.0911649
-0.0704557
-0.0505188
-0.029979
-0.0127916
0.0251677
-21.5817
-21.5977
-21.6111
-21.6227
-21.6347
-21.6481
-21.6631
-21.6799
-21.6986
-21.7192
-21.7415
-21.7656
-21.7914
-21.8189
-21.8478
-21.8782
-21.91
-21.9431
-21.9774
-22.0129
-22.0495
-22.0871
-22.1255
-22.1648
-22.2047
-22.2451
-22.2859
-22.3268
-22.3677
-22.4085
-22.4488
-22.4884
-22.5272
-22.5648
-22.601
-22.6355
-22.668
-22.6983
-22.726
-22.7508
-22.7723
-22.7903
-22.8045
-22.8144
-22.8197
-22.8201
-22.8152
-22.8046
-22.7881
-22.7651
-22.7353
-22.6984
-22.6539
-22.6016
-22.5411
-22.4721
-22.3943
-22.3074
-22.2113
-22.1059
-21.9903
-21.8644
-21.7288
-21.5839
-21.4298
-21.2664
-21.094
-20.9128
-20.723
-20.5247
-20.3182
-20.1038
-19.8818
-19.6524
-19.4161
-19.1732
-18.9239
-18.6687
-18.4079
-18.1419
-17.871
-17.5958
-17.3166
-17.0339
-16.748
-16.4594
-16.1683
-15.8752
-15.5807
-15.285
-14.9886
-14.692
-14.3953
-14.0986
-13.8028
-13.508
-13.2148
-12.9232
-12.6334
-12.3458
-12.0607
-11.7785
-11.4992
-11.223
-10.9501
-10.6809
-10.4153
-10.1536
-9.89572
-9.64197
-9.39241
-9.14706
-8.90597
-8.66926
-8.43693
-8.209
-7.98547
-7.76637
-7.55167
-7.34135
-7.13539
-6.93377
-6.73642
-6.54332
-6.35441
-6.16963
-5.98893
-5.81225
-5.63953
-5.47066
-5.30559
-5.14426
-4.98658
-4.83248
-4.68189
-4.53471
-4.39085
-4.25024
-4.11277
-3.97837
-3.84695
-3.71843
-3.59273
-3.46979
-3.34953
-3.23189
-3.11681
-3.00422
-2.89407
-2.78632
-2.68091
-2.57781
-2.47697
-2.37837
-2.28197
-2.18774
-2.09566
-2.00572
-1.9179
-1.83218
-1.74856
-1.66703
-1.58759
-1.51024
-1.43497
-1.36179
-1.2907
-1.22171
-1.15482
-1.09003
-1.02733
-0.966745
-0.908252
-0.851856
-0.79754
-0.745298
-0.695105
-0.646946
-0.600787
-0.556605
-0.514351
-0.473995
-0.435477
-0.398756
-0.363765
-0.330451
-0.298739
-0.268569
-0.239859
-0.212541
-0.186526
-0.161737
-0.138075
-0.115438
-0.0937151
-0.0726734
-0.0523796
-0.031288
-0.0139858
0.0248552
-21.5949
-21.6104
-21.6235
-21.6351
-21.6471
-21.6603
-21.6752
-21.6919
-21.7103
-21.7306
-21.7527
-21.7765
-21.8019
-21.8289
-21.8575
-21.8876
-21.9191
-21.9518
-21.9859
-22.0212
-22.0576
-22.095
-22.1334
-22.1726
-22.2125
-22.2529
-22.2938
-22.3348
-22.3759
-22.4168
-22.4572
-22.4971
-22.536
-22.5738
-22.6103
-22.645
-22.6777
-22.7082
-22.7361
-22.761
-22.7828
-22.801
-22.8153
-22.8254
-22.8309
-22.8315
-22.8267
-22.8164
-22.8
-22.7771
-22.7475
-22.7107
-22.6664
-22.6142
-22.5537
-22.4847
-22.4068
-22.3198
-22.2236
-22.1176
-22.0012
-21.8746
-21.7387
-21.5934
-21.4389
-21.2753
-21.1027
-20.9212
-20.7311
-20.5326
-20.3258
-20.1112
-19.889
-19.6595
-19.4231
-19.18
-18.9306
-18.6753
-18.4144
-18.1482
-17.8773
-17.602
-17.3228
-17.04
-16.7542
-16.4657
-16.1746
-15.8815
-15.5869
-15.2913
-14.9949
-14.6983
-14.4016
-14.1051
-13.8094
-13.5147
-13.2215
-12.93
-12.6403
-12.3529
-12.068
-11.7859
-11.5067
-11.2307
-10.958
-10.6889
-10.4235
-10.1619
-9.90424
-9.65067
-9.40128
-9.1561
-8.9152
-8.67866
-8.4465
-8.21873
-7.99538
-7.77644
-7.56189
-7.35173
-7.14592
-6.94444
-6.74723
-6.55426
-6.36548
-6.18082
-6.00023
-5.82365
-5.65101
-5.48223
-5.31724
-5.15597
-4.99834
-4.84428
-4.69371
-4.54654
-4.40268
-4.26204
-4.12454
-3.9901
-3.85862
-3.73004
-3.60427
-3.48125
-3.3609
-3.24315
-3.12796
-3.01525
-2.90497
-2.79709
-2.69154
-2.58828
-2.48729
-2.38852
-2.29195
-2.19755
-2.10529
-2.01516
-1.92714
-1.84123
-1.7574
-1.67567
-1.59601
-1.51844
-1.44295
-1.36955
-1.29824
-1.22902
-1.16189
-1.09687
-1.03395
-0.973128
-0.914405
-0.857779
-0.803236
-0.75077
-0.700356
-0.651982
-0.605612
-0.561223
-0.51877
-0.478221
-0.439517
-0.402617
-0.367453
-0.333974
-0.302103
-0.27178
-0.242921
-0.215456
-0.189292
-0.164348
-0.140519
-0.117694
-0.095754
-0.0744441
-0.0538808
-0.032358
-0.0150656
0.0243092
-21.6087
-21.6236
-21.6361
-21.6475
-21.6593
-21.6724
-21.687
-21.7034
-21.7215
-21.7414
-21.7631
-21.7865
-21.8116
-21.8383
-21.8665
-21.8962
-21.9274
-21.96
-21.9939
-22.029
-22.0653
-22.1027
-22.141
-22.1802
-22.2202
-22.2607
-22.3017
-22.3429
-22.3841
-22.4251
-22.4658
-22.5058
-22.5449
-22.5829
-22.6195
-22.6544
-22.6873
-22.7179
-22.7459
-22.771
-22.7928
-22.8111
-22.8255
-22.8356
-22.8412
-22.8418
-22.8372
-22.8269
-22.8105
-22.7877
-22.7581
-22.7214
-22.677
-22.6247
-22.5642
-22.495
-22.417
-22.3298
-22.2332
-22.1262
-22.0087
-21.8817
-21.7454
-21.5998
-21.4449
-21.281
-21.108
-20.9262
-20.7359
-20.5371
-20.3301
-20.1152
-19.8928
-19.6631
-19.4265
-19.1832
-18.9337
-18.6784
-18.4174
-18.1512
-17.8801
-17.6048
-17.3255
-17.0427
-16.7568
-16.4683
-16.1773
-15.8842
-15.5897
-15.2941
-14.9978
-14.7012
-14.4046
-14.1083
-13.8127
-13.5182
-13.2251
-12.9337
-12.6442
-12.357
-12.0723
-11.7903
-11.5114
-11.2356
-10.9631
-10.6942
-10.429
-10.1677
-9.91028
-9.65695
-9.40779
-9.16285
-8.92219
-8.68588
-8.45395
-8.22641
-8.00328
-7.78456
-7.57023
-7.36027
-7.15467
-6.95337
-6.75636
-6.56356
-6.37495
-6.19045
-6.01001
-5.83357
-5.66105
-5.49239
-5.3275
-5.16632
-5.00878
-4.85478
-4.70425
-4.55711
-4.41326
-4.27263
-4.13511
-4.00064
-3.86913
-3.74049
-3.61466
-3.49156
-3.37112
-3.25328
-3.13798
-3.02516
-2.91476
-2.80674
-2.70105
-2.59765
-2.4965
-2.39757
-2.30082
-2.20624
-2.1138
-2.02349
-1.93528
-1.84916
-1.76514
-1.6832
-1.60333
-1.52555
-1.44985
-1.37623
-1.30469
-1.23525
-1.16791
-1.10267
-1.03952
-0.978484
-0.919544
-0.862706
-0.807952
-0.755281
-0.704665
-0.656096
-0.609535
-0.564965
-0.522334
-0.481618
-0.442753
-0.405702
-0.370392
-0.336778
-0.304777
-0.274332
-0.245354
-0.217774
-0.191494
-0.166431
-0.142471
-0.119498
-0.0973904
-0.0758708
-0.0551137
-0.0332612
-0.0160642
0.0235568
-21.6227
-21.6368
-21.6487
-21.6597
-21.6712
-21.6839
-21.6982
-21.7141
-21.7318
-21.7513
-21.7726
-21.7956
-21.8202
-21.8466
-21.8745
-21.904
-21.9349
-21.9673
-22.0011
-22.0361
-22.0724
-22.1097
-22.1481
-22.1874
-22.2275
-22.2681
-22.3092
-22.3506
-22.392
-22.4332
-22.474
-22.5141
-22.5534
-22.5915
-22.6282
-22.6631
-22.6961
-22.7267
-22.7547
-22.7798
-22.8016
-22.8198
-22.8342
-22.8443
-22.8498
-22.8504
-22.8457
-22.8353
-22.8189
-22.796
-22.7663
-22.7294
-22.6849
-22.6325
-22.5717
-22.5023
-22.424
-22.3365
-22.2389
-22.1306
-22.0125
-21.8851
-21.7484
-21.6024
-21.4472
-21.2828
-21.1096
-20.9275
-20.7369
-20.5379
-20.3307
-20.1156
-19.893
-19.6631
-19.4263
-19.1829
-18.9332
-18.6778
-18.4167
-18.1505
-17.8794
-17.604
-17.3248
-17.042
-16.756
-16.4674
-16.1765
-15.8836
-15.5892
-15.2937
-14.9975
-14.701
-14.4045
-14.1084
-13.813
-13.5187
-13.2258
-12.9346
-12.6454
-12.3584
-12.0739
-11.7922
-11.5135
-11.238
-10.9659
-10.6973
-10.4324
-10.1713
-9.91421
-9.66118
-9.41231
-9.16766
-8.9273
-8.69129
-8.45964
-8.23239
-8.00953
-7.79108
-7.57701
-7.36731
-7.16196
-6.96091
-6.76412
-6.57154
-6.38314
-6.19884
-6.01858
-5.84231
-5.66995
-5.50143
-5.33668
-5.17562
-5.01817
-4.86425
-4.71379
-4.56669
-4.42288
-4.28225
-4.14474
-4.01025
-3.87871
-3.75003
-3.62414
-3.50097
-3.38045
-3.26252
-3.14711
-3.03417
-2.92365
-2.8155
-2.70966
-2.60611
-2.5048
-2.4057
-2.30879
-2.21402
-2.1214
-2.03089
-1.94249
-1.85617
-1.77194
-1.68979
-1.60972
-1.53173
-1.45581
-1.38198
-1.31023
-1.24057
-1.17301
-1.10756
-1.0442
-0.982958
-0.923813
-0.866774
-0.811824
-0.758963
-0.708162
-0.659416
-0.612684
-0.567952
-0.525167
-0.484306
-0.445303
-0.408125
-0.372696
-0.338973
-0.306869
-0.27633
-0.247261
-0.219597
-0.193231
-0.168081
-0.144026
-0.120945
-0.0987142
-0.0770389
-0.056154
-0.0340606
-0.0170075
0.0226185
-21.6366
-21.6499
-21.6609
-21.6714
-21.6825
-21.6947
-21.7085
-21.7239
-21.7411
-21.7601
-21.7809
-21.8035
-21.8277
-21.8537
-21.8813
-21.9106
-21.9414
-21.9736
-22.0073
-22.0423
-22.0786
-22.1161
-22.1545
-22.1939
-22.2341
-22.2749
-22.3161
-22.3576
-22.3991
-22.4405
-22.4813
-22.5216
-22.5609
-22.599
-22.6356
-22.6705
-22.7034
-22.7339
-22.7618
-22.7867
-22.8083
-22.8264
-22.8405
-22.8505
-22.8558
-22.8562
-22.8513
-22.8408
-22.8241
-22.801
-22.7711
-22.734
-22.6893
-22.6366
-22.5755
-22.5058
-22.4271
-22.3387
-22.2397
-22.1307
-22.0122
-21.8844
-21.7473
-21.6009
-21.4454
-21.2807
-21.1071
-20.9248
-20.7339
-20.5347
-20.3273
-20.1121
-19.8893
-19.6592
-19.4223
-19.1788
-18.929
-18.6734
-18.4123
-18.146
-17.875
-17.5997
-17.3204
-17.0376
-16.7518
-16.4633
-16.1724
-15.8796
-15.5854
-15.2901
-14.9941
-14.6978
-14.4015
-14.1056
-13.8105
-13.5165
-13.2238
-12.9329
-12.644
-12.3573
-12.0732
-11.7919
-11.5135
-11.2383
-10.9665
-10.6983
-10.4337
-10.1731
-9.91631
-9.66364
-9.41512
-9.17083
-8.93083
-8.69516
-8.46386
-8.23694
-8.01441
-7.79628
-7.58252
-7.37313
-7.16806
-6.96729
-6.77077
-6.57846
-6.39029
-6.20623
-6.02619
-5.85012
-5.67795
-5.50959
-5.34499
-5.18407
-5.02674
-4.87292
-4.72254
-4.5755
-4.43173
-4.29113
-4.15363
-4.01913
-3.88756
-3.75885
-3.63291
-3.50967
-3.38907
-3.27104
-3.15553
-3.04248
-2.93183
-2.82353
-2.71755
-2.61384
-2.51237
-2.4131
-2.316
-2.22106
-2.12824
-2.03754
-1.94893
-1.86241
-1.77798
-1.69562
-1.61533
-1.53713
-1.461
-1.38695
-1.31499
-1.24512
-1.17735
-1.11169
-1.04813
-0.986688
-0.927346
-0.870119
-0.814983
-0.761945
-0.710973
-0.662065
-0.615178
-0.570302
-0.527379
-0.486393
-0.447272
-0.409988
-0.374461
-0.340651
-0.308467
-0.277858
-0.248724
-0.221001
-0.194577
-0.169369
-0.145251
-0.122097
-0.0997845
-0.078002
-0.0570454
-0.0347869
-0.0179031
0.0215146
-21.6501
-21.6626
-21.6727
-21.6826
-21.693
-21.7046
-21.7177
-21.7326
-21.7492
-21.7677
-21.7879
-21.81
-21.8339
-21.8596
-21.887
-21.916
-21.9467
-21.9789
-22.0125
-22.0476
-22.0839
-22.1215
-22.1601
-22.1996
-22.2398
-22.2807
-22.3221
-22.3636
-22.4052
-22.4465
-22.4874
-22.5275
-22.5667
-22.6047
-22.6411
-22.6758
-22.7085
-22.7387
-22.7663
-22.7909
-22.8122
-22.8299
-22.8437
-22.8533
-22.8583
-22.8584
-22.8532
-22.8424
-22.8255
-22.8021
-22.7719
-22.7345
-22.6894
-22.6364
-22.575
-22.5049
-22.4253
-22.3354
-22.2354
-22.1261
-22.0073
-21.8792
-21.7417
-21.595
-21.4391
-21.2742
-21.1003
-20.9177
-20.7266
-20.5272
-20.3196
-20.1042
-19.8813
-19.6512
-19.4142
-19.1706
-18.9208
-18.6652
-18.4041
-18.1379
-17.8669
-17.5916
-17.3125
-17.0299
-16.7442
-16.4558
-16.1651
-15.8726
-15.5786
-15.2835
-14.9878
-14.6918
-14.3958
-14.1002
-13.8054
-13.5117
-13.2195
-12.9289
-12.6404
-12.3541
-12.0704
-11.7895
-11.5115
-11.2367
-10.9654
-10.6975
-10.4334
-10.1732
-9.91684
-9.66459
-9.41649
-9.17262
-8.93302
-8.69775
-8.46684
-8.24031
-8.01816
-7.80039
-7.58699
-7.37794
-7.17321
-6.97276
-6.77654
-6.58452
-6.39663
-6.21282
-6.03303
-5.85719
-5.68522
-5.51706
-5.35264
-5.19186
-5.03467
-4.88096
-4.73068
-4.58371
-4.43999
-4.29943
-4.16194
-4.02744
-3.89585
-3.7671
-3.64111
-3.5178
-3.39713
-3.279
-3.16338
-3.05021
-2.93943
-2.83099
-2.72485
-2.62098
-2.51934
-2.41988
-2.3226
-2.22746
-2.13445
-2.04354
-1.95473
-1.868
-1.78335
-1.70078
-1.62028
-1.54185
-1.46551
-1.39125
-1.31907
-1.249
-1.18102
-1.11516
-1.0514
-0.98976
-0.930229
-0.872821
-0.81751
-0.764307
-0.713176
-0.66412
-0.617093
-0.572088
-0.529045
-0.487951
-0.448731
-0.411361
-0.375757
-0.341881
-0.30964
-0.278984
-0.249809
-0.222052
-0.195596
-0.170359
-0.146207
-0.123015
-0.100659
-0.0788148
-0.0578347
-0.035479
-0.018765
0.0202561
-21.6632
-21.6748
-21.6839
-21.693
-21.7027
-21.7135
-21.7259
-21.74
-21.756
-21.7738
-21.7936
-21.8153
-21.8388
-21.8642
-21.8913
-21.9202
-21.9508
-21.983
-22.0167
-22.0518
-22.0882
-22.1258
-22.1644
-22.204
-22.2444
-22.2853
-22.3266
-22.3681
-22.4095
-22.4507
-22.4913
-22.5312
-22.5701
-22.6078
-22.6439
-22.6782
-22.7104
-22.7402
-22.7674
-22.7915
-22.8123
-22.8296
-22.8429
-22.8521
-22.8566
-22.8563
-22.8507
-22.8395
-22.8223
-22.7985
-22.768
-22.7302
-22.6847
-22.6314
-22.5696
-22.4986
-22.4174
-22.3264
-22.226
-22.1163
-21.9972
-21.8688
-21.731
-21.584
-21.4279
-21.2627
-21.0887
-20.9059
-20.7146
-20.5151
-20.3074
-20.092
-19.869
-19.6389
-19.4019
-19.1583
-18.9086
-18.6531
-18.3921
-18.126
-17.8552
-17.5801
-17.3012
-17.0187
-16.7333
-16.4452
-16.1548
-15.8625
-15.5689
-15.2741
-14.9788
-14.6831
-14.3875
-14.0924
-13.798
-13.5047
-13.2129
-12.9228
-12.6347
-12.3489
-12.0657
-11.7852
-11.5078
-11.2335
-10.9626
-10.6953
-10.4316
-10.1719
-9.91602
-9.66425
-9.41663
-9.17322
-8.93408
-8.69927
-8.4688
-8.2427
-8.02097
-7.80361
-7.59061
-7.38194
-7.17758
-6.97748
-6.7816
-6.5899
-6.40232
-6.2188
-6.03927
-5.86368
-5.69194
-5.52399
-5.35976
-5.19915
-5.0421
-4.88852
-4.73834
-4.59146
-4.4478
-4.30728
-4.16981
-4.03531
-3.90371
-3.77492
-3.64888
-3.5255
-3.40474
-3.28652
-3.17079
-3.05749
-2.94657
-2.83798
-2.73169
-2.62764
-2.52582
-2.42618
-2.3287
-2.23336
-2.14014
-2.04902
-1.95999
-1.87305
-1.78818
-1.70539
-1.62466
-1.54602
-1.46946
-1.39498
-1.32259
-1.25231
-1.18412
-1.11805
-1.0541
-0.992273
-0.932559
-0.874977
-0.819498
-0.766138
-0.714857
-0.665665
-0.618508
-0.573388
-0.530238
-0.489052
-0.449748
-0.412309
-0.376643
-0.342721
-0.31044
-0.279758
-0.250562
-0.222794
-0.19633
-0.171088
-0.146931
-0.123731
-0.101367
-0.0795012
-0.058538
-0.0361461
-0.01959
0.0188544
-21.6758
-21.6865
-21.6945
-21.7027
-21.7113
-21.7212
-21.7328
-21.7461
-21.7614
-21.7786
-21.7979
-21.8191
-21.8423
-21.8674
-21.8944
-21.9232
-21.9537
-21.9858
-22.0195
-22.0547
-22.0911
-22.1287
-22.1674
-22.2069
-22.2472
-22.2879
-22.329
-22.3703
-22.4114
-22.4523
-22.4925