/*--------------------------------*- C++ -*----------------------------------*\
  =========                 |
  \\      /  F ield         | OpenFOAM: The Open Source CFD Toolbox
   \\    /   O peration     | Website:  https://openfoam.org
    \\  /    A nd           | Version:  7
     \\/     M anipulation  |
\*---------------------------------------------------------------------------*/
FoamFile
{
    version     2.0;
    format      ascii;
    class       surfaceScalarField;
    location    "1000";
    object      phi;
}
// * * * * * * * * * * * * * * * * * * * * * * * * * * * * * * * * * * * * * //

dimensions      [0 3 -1 0 0 0 0];

internalField   nonuniform List<scalar> 
33502
(
4.05976e-09
-4.06526e-09
-2.95174e-08
3.35996e-08
-8.05389e-08
5.1011e-08
-1.37818e-07
5.72878e-08
-1.97614e-07
5.97862e-08
-2.58647e-07
6.10261e-08
-3.20438e-07
6.17943e-08
-3.82813e-07
6.23655e-08
-4.45665e-07
6.28994e-08
-5.09098e-07
6.34538e-08
-5.73139e-07
6.41351e-08
-6.37984e-07
6.49065e-08
-7.03586e-07
6.56503e-08
-7.69603e-07
6.60415e-08
-8.35535e-07
6.59137e-08
-9.01171e-07
6.56163e-08
-9.67784e-07
6.65525e-08
-1.03757e-06
6.97889e-08
-1.11303e-06
7.54276e-08
-1.18072e-06
6.76996e-08
-1.23859e-06
5.7867e-08
-1.29928e-06
6.06925e-08
-1.36077e-06
6.1497e-08
-1.42223e-06
6.14624e-08
-1.48337e-06
6.11321e-08
-1.54407e-06
6.07019e-08
-1.6043e-06
6.02339e-08
-1.66405e-06
5.97481e-08
-1.7233e-06
5.92453e-08
-1.78202e-06
5.87205e-08
-1.84018e-06
5.81668e-08
-1.89776e-06
5.7577e-08
-1.95471e-06
5.69443e-08
-2.01097e-06
5.62624e-08
-2.06649e-06
5.55258e-08
-2.12123e-06
5.47296e-08
-2.1751e-06
5.38697e-08
-2.22804e-06
5.29422e-08
-2.27998e-06
5.1944e-08
-2.33086e-06
5.08723e-08
-2.38058e-06
4.97247e-08
-2.42908e-06
4.84987e-08
-2.47627e-06
4.71926e-08
-2.52208e-06
4.58045e-08
-2.56641e-06
4.43328e-08
-2.60919e-06
4.27761e-08
-2.65032e-06
4.11336e-08
-2.68973e-06
3.94043e-08
-2.72732e-06
3.75882e-08
-2.763e-06
3.56854e-08
-2.7967e-06
3.3697e-08
-2.82832e-06
3.16247e-08
-2.85779e-06
2.9471e-08
-2.88503e-06
2.72393e-08
-2.90997e-06
2.49343e-08
-2.93253e-06
2.25616e-08
-2.95266e-06
2.01277e-08
-2.9703e-06
1.76402e-08
-2.98541e-06
1.51076e-08
-2.99794e-06
1.25388e-08
-3.00789e-06
9.94289e-09
-3.01522e-06
7.32877e-09
-3.01992e-06
4.7034e-09
-3.02199e-06
2.0717e-09
-3.02143e-06
-5.60309e-10
-3.01828e-06
-3.15526e-09
-3.01259e-06
-5.69027e-09
-3.00441e-06
-8.18014e-09
-2.99378e-06
-1.0629e-08
-2.98074e-06
-1.30378e-08
-2.96533e-06
-1.54061e-08
-2.9476e-06
-1.77325e-08
-2.92759e-06
-2.00155e-08
-2.90534e-06
-2.22533e-08
-2.88089e-06
-2.4444e-08
-2.85431e-06
-2.65858e-08
-2.82563e-06
-2.86768e-08
-2.79492e-06
-3.0715e-08
-2.76222e-06
-3.26983e-08
-2.7276e-06
-3.46246e-08
-2.6911e-06
-3.64917e-08
-2.65281e-06
-3.82975e-08
-2.61277e-06
-4.00405e-08
-2.57105e-06
-4.17191e-08
-2.52772e-06
-4.33324e-08
-2.48284e-06
-4.48792e-08
-2.43648e-06
-4.63583e-08
-2.38872e-06
-4.77683e-08
-2.33961e-06
-4.9108e-08
-2.28924e-06
-5.03764e-08
-2.23766e-06
-5.15737e-08
-2.18496e-06
-5.27e-08
-2.13121e-06
-5.37557e-08
-2.07647e-06
-5.47403e-08
-2.02082e-06
-5.56532e-08
-1.96432e-06
-5.64944e-08
-1.90706e-06
-5.72651e-08
-1.84909e-06
-5.79672e-08
-1.79049e-06
-5.86025e-08
-1.73132e-06
-5.91704e-08
-1.67165e-06
-5.96708e-08
-1.61154e-06
-6.01053e-08
-1.55107e-06
-6.0478e-08
-1.49027e-06
-6.0792e-08
-1.42923e-06
-6.10463e-08
-1.36798e-06
-6.12398e-08
-1.30661e-06
-6.13767e-08
-1.24514e-06
-6.14659e-08
-1.18363e-06
-6.15073e-08
-1.12213e-06
-6.14938e-08
-1.0607e-06
-6.14295e-08
-9.99363e-07
-6.13321e-08
-9.38159e-07
-6.12002e-08
-8.77137e-07
-6.10168e-08
-8.16338e-07
-6.07937e-08
-7.55775e-07
-6.05571e-08
-6.9548e-07
-6.0289e-08
-6.35513e-07
-5.99605e-08
-5.75865e-07
-5.96401e-08
-5.16534e-07
-5.93235e-08
-4.57604e-07
-5.89214e-08
-3.99069e-07
-5.85257e-08
-3.40877e-07
-5.81834e-08
-2.8311e-07
-5.77566e-08
-2.25856e-07
-5.72451e-08
-1.69027e-07
-5.68194e-08
-1.12587e-07
-5.6431e-08
-5.65816e-08
-5.5997e-08
-9.44392e-10
-5.56306e-08
5.40464e-08
-5.49853e-08
1.081e-07
-5.40507e-08
1.61299e-07
-5.31967e-08
2.13737e-07
-5.2437e-08
2.6549e-07
-5.17531e-08
3.16612e-07
-5.11231e-08
3.67144e-07
-5.05342e-08
4.17118e-07
-4.99759e-08
4.66559e-07
-4.94435e-08
5.15488e-07
-4.89319e-08
5.63924e-07
-4.84402e-08
6.11886e-07
-4.79655e-08
6.59389e-07
-4.7508e-08
7.06451e-07
-4.70659e-08
7.53086e-07
-4.66399e-08
7.9931e-07
-4.62283e-08
8.45136e-07
-4.58318e-08
8.90581e-07
-4.5449e-08
9.35655e-07
-4.50804e-08
9.80374e-07
-4.47245e-08
1.02475e-06
-4.43815e-08
1.06879e-06
-4.405e-08
1.11252e-06
-4.37299e-08
1.15593e-06
-4.34198e-08
1.19905e-06
-4.31191e-08
1.24187e-06
-4.28264e-08
1.2844e-06
-4.25408e-08
1.32666e-06
-4.22608e-08
1.36863e-06
-4.19851e-08
1.41034e-06
-4.17122e-08
1.45178e-06
-4.14404e-08
1.49294e-06
-4.11682e-08
1.53383e-06
-4.08934e-08
1.57444e-06
-4.06147e-08
1.61476e-06
-4.03293e-08
1.65479e-06
-4.00361e-08
1.69452e-06
-3.97321e-08
1.73393e-06
-3.94162e-08
1.77301e-06
-3.90851e-08
1.81175e-06
-3.8738e-08
1.85012e-06
-3.83715e-08
1.8881e-06
-3.7985e-08
1.92567e-06
-3.75753e-08
1.96281e-06
-3.71421e-08
1.9995e-06
-3.66822e-08
2.03569e-06
-3.6196e-08
2.07137e-06
-3.56806e-08
2.10651e-06
-3.51367e-08
2.14107e-06
-3.45621e-08
2.17503e-06
-3.3958e-08
2.20836e-06
-3.33227e-08
2.24102e-06
-3.26582e-08
2.27299e-06
-3.19633e-08
2.30423e-06
-3.12406e-08
2.33473e-06
-3.04899e-08
2.36445e-06
-2.97144e-08
2.39337e-06
-2.8915e-08
2.42147e-06
-2.80958e-08
2.44873e-06
-2.72592e-08
2.47515e-06
-2.64107e-08
2.50071e-06
-2.55553e-08
2.52542e-06
-2.47016e-08
2.54929e-06
-2.38602e-08
2.57234e-06
-2.30479e-08
2.59463e-06
-2.22901e-08
2.61627e-06
-2.16308e-08
2.63743e-06
-2.11515e-08
2.65844e-06
-2.10098e-08
2.68003e-06
-2.15862e-08
2.70393e-06
-2.39077e-08
-3.03928e-08
-3.02818e-08
2.62152e-08
-6.96918e-08
7.30117e-08
-1.16774e-07
9.80911e-08
-1.69662e-07
1.10171e-07
-2.26073e-07
1.16185e-07
-2.84599e-07
1.19545e-07
-3.44523e-07
1.21695e-07
-4.05451e-07
1.23293e-07
-4.67214e-07
1.24639e-07
-5.29679e-07
1.25933e-07
-5.92777e-07
1.27224e-07
-6.56371e-07
1.28507e-07
-7.20315e-07
1.29601e-07
-7.84612e-07
1.30318e-07
-8.49304e-07
1.3058e-07
-9.1411e-07
1.30418e-07
-9.78051e-07
1.30466e-07
-1.03966e-06
1.31385e-07
-1.09605e-06
1.31805e-07
-1.15585e-06
1.27506e-07
-1.22001e-06
1.22034e-07
-1.2799e-06
1.20583e-07
-1.33802e-06
1.19627e-07
-1.39521e-06
1.18652e-07
-1.45173e-06
1.17649e-07
-1.50766e-06
1.16637e-07
-1.56305e-06
1.15622e-07
-1.6179e-06
1.14597e-07
-1.6722e-06
1.13549e-07
-1.72595e-06
1.12462e-07
-1.7791e-06
1.11321e-07
-1.83163e-06
1.10111e-07
-1.88351e-06
1.08819e-07
-1.93468e-06
1.07433e-07
-1.9851e-06
1.05943e-07
-2.03471e-06
1.04338e-07
-2.08345e-06
1.02612e-07
-2.13126e-06
1.00756e-07
-2.17809e-06
9.87655e-08
-2.22385e-06
9.66341e-08
-2.26848e-06
9.43573e-08
-2.31191e-06
9.19307e-08
-2.35407e-06
8.93505e-08
-2.39488e-06
8.6613e-08
-2.43426e-06
8.37149e-08
-2.47214e-06
8.06535e-08
-2.50843e-06
7.74263e-08
-2.54306e-06
7.4032e-08
-2.57594e-06
7.04696e-08
-2.607e-06
6.67395e-08
-2.63614e-06
6.28432e-08
-2.6633e-06
5.87838e-08
-2.6884e-06
5.45659e-08
-2.71136e-06
5.01963e-08
-2.7321e-06
4.56834e-08
-2.75058e-06
4.1038e-08
-2.76673e-06
3.62729e-08
-2.78049e-06
3.14027e-08
-2.79183e-06
2.64438e-08
-2.8007e-06
2.14135e-08
-2.80709e-06
1.63296e-08
-2.81097e-06
1.12096e-08
-2.81233e-06
6.06606e-09
-2.81117e-06
9.05824e-10
-2.8075e-06
-4.22063e-09
-2.80141e-06
-9.25343e-09
-2.79291e-06
-1.41908e-08
-2.78204e-06
-1.90449e-08
-2.76885e-06
-2.38205e-08
-2.75337e-06
-2.85183e-08
-2.73564e-06
-3.3137e-08
-2.7157e-06
-3.76737e-08
-2.69359e-06
-4.21253e-08
-2.66935e-06
-4.64881e-08
-2.64304e-06
-5.07586e-08
-2.61469e-06
-5.4933e-08
-2.58436e-06
-5.90077e-08
-2.5521e-06
-6.2979e-08
-2.51796e-06
-6.68427e-08
-2.48199e-06
-7.05946e-08
-2.44425e-06
-7.42304e-08
-2.4048e-06
-7.77459e-08
-2.3637e-06
-8.11379e-08
-2.32102e-06
-8.44038e-08
-2.27681e-06
-8.75413e-08
-2.23114e-06
-9.05487e-08
-2.18408e-06
-9.34235e-08
-2.13568e-06
-9.61631e-08
-2.08603e-06
-9.87645e-08
-2.03518e-06
-1.01226e-07
-1.9832e-06
-1.03549e-07
-1.93017e-06
-1.05732e-07
-1.87615e-06
-1.07777e-07
-1.82121e-06
-1.09683e-07
-1.76542e-06
-1.11449e-07
-1.70884e-06
-1.13074e-07
-1.65154e-06
-1.14561e-07
-1.59359e-06
-1.15914e-07
-1.53506e-06
-1.17136e-07
-1.476e-06
-1.18227e-07
-1.41649e-06
-1.19186e-07
-1.35658e-06
-1.20017e-07
-1.29633e-06
-1.20725e-07
-1.2358e-06
-1.2132e-07
-1.17505e-06
-1.21799e-07
-1.11413e-06
-1.2216e-07
-1.0531e-06
-1.22409e-07
-9.91996e-07
-1.22565e-07
-9.30874e-07
-1.22629e-07
-8.69779e-07
-1.22587e-07
-8.08762e-07
-1.22446e-07
-7.47855e-07
-1.22238e-07
-6.8709e-07
-1.21964e-07
-6.2651e-07
-1.21594e-07
-5.66156e-07
-1.21146e-07
-5.06045e-07
-1.20666e-07
-4.46201e-07
-1.20131e-07
-3.86666e-07
-1.19492e-07
-3.27458e-07
-1.18847e-07
-2.68576e-07
-1.18203e-07
-2.1005e-07
-1.17444e-07
-1.51913e-07
-1.1666e-07
-9.41776e-08
-1.15916e-07
-3.67959e-08
-1.15135e-07
2.02368e-08
-1.14275e-07
7.67128e-08
-1.13292e-07
1.32544e-07
-1.1226e-07
1.87822e-07
-1.11272e-07
2.42564e-07
-1.10371e-07
2.96773e-07
-1.09191e-07
3.50427e-07
-1.07703e-07
4.03518e-07
-1.06286e-07
4.56033e-07
-1.04951e-07
5.07983e-07
-1.03701e-07
5.59387e-07
-1.02527e-07
6.10268e-07
-1.01414e-07
6.60644e-07
-1.00352e-07
7.10534e-07
-9.93326e-08
7.59954e-07
-9.83521e-08
8.08921e-07
-9.74063e-08
8.57449e-07
-9.64933e-08
9.05552e-07
-9.5611e-08
9.53244e-07
-9.47586e-08
1.00054e-06
-9.39348e-08
1.04745e-06
-9.31389e-08
1.09399e-06
-9.23699e-08
1.14016e-06
-9.16269e-08
1.18599e-06
-9.09087e-08
1.23148e-06
-9.02144e-08
1.27664e-06
-8.95423e-08
1.32148e-06
-8.88911e-08
1.36601e-06
-8.8259e-08
1.41023e-06
-8.76443e-08
1.45416e-06
-8.70448e-08
1.49779e-06
-8.64582e-08
1.54113e-06
-8.58822e-08
1.58418e-06
-8.53141e-08
1.62695e-06
-8.4751e-08
1.66942e-06
-8.41898e-08
1.71161e-06
-8.36275e-08
1.7535e-06
-8.30604e-08
1.79509e-06
-8.24853e-08
1.83637e-06
-8.18981e-08
1.87733e-06
-8.12954e-08
1.91797e-06
-8.06729e-08
1.95826e-06
-8.0027e-08
1.9982e-06
-7.93533e-08
2.03776e-06
-7.86484e-08
2.07692e-06
-7.79079e-08
2.11568e-06
-7.71284e-08
2.154e-06
-7.6306e-08
2.19186e-06
-7.54378e-08
2.22924e-06
-7.45202e-08
2.2661e-06
-7.3551e-08
2.30243e-06
-7.25274e-08
2.3382e-06
-7.14479e-08
2.37337e-06
-7.03108e-08
2.40792e-06
-6.91153e-08
2.44182e-06
-6.7861e-08
2.47505e-06
-6.65482e-08
2.50757e-06
-6.51776e-08
2.53935e-06
-6.37507e-08
2.57038e-06
-6.22698e-08
2.60063e-06
-6.07377e-08
2.63007e-06
-5.91581e-08
2.65869e-06
-5.75358e-08
2.68647e-06
-5.58764e-08
2.7134e-06
-5.41871e-08
2.73947e-06
-5.2477e-08
2.76467e-06
-5.07575e-08
2.78901e-06
-4.9044e-08
2.81251e-06
-4.73576e-08
2.83519e-06
-4.57287e-08
2.8571e-06
-4.42042e-08
2.87833e-06
-4.286e-08
2.89901e-06
-4.1831e-08
2.91936e-06
-4.13606e-08
2.93974e-06
-4.1976e-08
2.96064e-06
-4.48097e-08
-5.1413e-08
-4.48485e-08
7.10597e-08
-8.92023e-08
1.17363e-07
-1.35886e-07
1.44764e-07
-1.86034e-07
1.60312e-07
-2.39052e-07
1.6919e-07
-2.94105e-07
1.74579e-07
-3.50567e-07
1.78146e-07
-4.08046e-07
1.80741e-07
-4.66232e-07
1.82818e-07
-5.24935e-07
1.84594e-07
-5.83907e-07
1.86193e-07
-6.42996e-07
1.87573e-07
-7.0204e-07
1.88626e-07
-7.6093e-07
1.8919e-07
-8.19466e-07
1.89106e-07
-8.77378e-07
1.88315e-07
-9.34121e-07
1.87198e-07
-9.88802e-07
1.86056e-07
-1.04116e-06
1.84151e-07
-1.09425e-06
1.80602e-07
-1.14892e-06
1.76712e-07
-1.20244e-06
1.74103e-07
-1.25491e-06
1.72102e-07
-1.30661e-06
1.7036e-07
-1.35771e-06
1.68743e-07
-1.40826e-06
1.67193e-07
-1.45831e-06
1.65672e-07
-1.50787e-06
1.64149e-07
-1.55691e-06
1.62597e-07
-1.60544e-06
1.60991e-07
-1.65343e-06
1.59305e-07
-1.70084e-06
1.57519e-07
-1.74763e-06
1.55612e-07
-1.79376e-06
1.53569e-07
-1.8392e-06
1.51374e-07
-1.88387e-06
1.49013e-07
-1.92774e-06
1.46477e-07
-1.97073e-06
1.43754e-07
-2.0128e-06
1.40835e-07
-2.05389e-06
1.37715e-07
-2.09391e-06
1.34385e-07
-2.13282e-06
1.30839e-07
-2.17054e-06
1.27072e-07
-2.20701e-06
1.23077e-07
-2.24214e-06
1.18851e-07
-2.27588e-06
1.14389e-07
-2.30814e-06
1.09687e-07
-2.33885e-06
1.04742e-07
-2.36793e-06
9.95529e-08
-2.39531e-06
9.41192e-08
-2.42091e-06
8.84428e-08
-2.44466e-06
8.25276e-08
-2.46647e-06
7.63799e-08
-2.48628e-06
7.00088e-08
-2.50403e-06
6.34262e-08
-2.51964e-06
5.66475e-08
-2.53306e-06
4.96909e-08
-2.54423e-06
4.25777e-08
-2.55312e-06
3.53315e-08
-2.55968e-06
2.79779e-08
-2.5639e-06
2.05433e-08
-2.56574e-06
1.30527e-08
-2.5652e-06
5.52818e-09
-2.56229e-06
-2.00117e-09
-2.55706e-06
-9.45636e-09
-2.54953e-06
-1.67785e-08
-2.53975e-06
-2.39739e-08
-2.52774e-06
-3.10518e-08
-2.51355e-06
-3.80166e-08
-2.4972e-06
-4.48684e-08
-2.47873e-06
-5.1605e-08
-2.45818e-06
-5.82221e-08
-2.43559e-06
-6.47148e-08
-2.411e-06
-7.10776e-08
-2.38446e-06
-7.73052e-08
-2.356e-06
-8.33922e-08
-2.32567e-06
-8.93332e-08
-2.29353e-06
-9.51228e-08
-2.25962e-06
-1.00755e-07
-2.22399e-06
-1.06224e-07
-2.1867e-06
-1.11523e-07
-2.1478e-06
-1.16646e-07
-2.10735e-06
-1.21587e-07
-2.06541e-06
-1.26344e-07
-2.02204e-06
-1.30913e-07
-1.9773e-06
-1.35291e-07
-1.93124e-06
-1.39475e-07
-1.88395e-06
-1.43462e-07
-1.83547e-06
-1.47246e-07
-1.78587e-06
-1.50825e-07
-1.73522e-06
-1.542e-07
-1.68358e-06
-1.57371e-07
-1.63101e-06
-1.6034e-07
-1.57759e-06
-1.63107e-07
-1.52337e-06
-1.65669e-07
-1.46842e-06
-1.68024e-07
-1.4128e-06
-1.70176e-07
-1.35659e-06
-1.72132e-07
-1.29982e-06
-1.73898e-07
-1.24258e-06
-1.75474e-07
-1.18491e-06
-1.76855e-07
-1.12688e-06
-1.78048e-07
-1.06854e-06
-1.79063e-07
-1.00995e-06
-1.79913e-07
-9.5115e-07
-1.80595e-07
-8.92206e-07
-1.81103e-07
-8.33167e-07
-1.81447e-07
-7.74075e-07
-1.81656e-07
-7.14969e-07
-1.81734e-07
-6.55897e-07
-1.81658e-07
-5.96908e-07
-1.81434e-07
-5.38032e-07
-1.81113e-07
-4.79296e-07
-1.80699e-07
-4.20741e-07
-1.80148e-07
-3.62405e-07
-1.79481e-07
-3.04308e-07
-1.78762e-07
-2.46466e-07
-1.77972e-07
-1.88909e-07
-1.77047e-07
-1.31672e-07
-1.76082e-07
-7.47662e-08
-1.75107e-07
-1.81513e-08
-1.74058e-07
3.8101e-08
-1.7291e-07
9.38544e-08
-1.71668e-07
1.49112e-07
-1.70391e-07
2.03904e-07
-1.69066e-07
2.58229e-07
-1.67616e-07
3.12071e-07
-1.66101e-07
3.65412e-07
-1.64611e-07
4.18198e-07
-1.63157e-07
4.70514e-07
-1.61507e-07
5.22446e-07
-1.59634e-07
5.73933e-07
-1.57773e-07
6.24952e-07
-1.55969e-07
6.7549e-07
-1.54239e-07
7.25548e-07
-1.52586e-07
7.75135e-07
-1.51001e-07
8.24262e-07
-1.49479e-07
8.72941e-07
-1.48012e-07
9.21185e-07
-1.46596e-07
9.69006e-07
-1.45228e-07
1.01642e-06
-1.43905e-07
1.06343e-06
-1.42626e-07
1.11006e-06
-1.41388e-07
1.15631e-06
-1.4019e-07
1.2022e-06
-1.39031e-07
1.24774e-06
-1.37909e-07
1.29293e-06
-1.36823e-07
1.3378e-06
-1.35771e-07
1.38233e-06
-1.34752e-07
1.42655e-06
-1.33763e-07
1.47046e-06
-1.32801e-07
1.51406e-06
-1.31864e-07
1.55736e-06
-1.30949e-07
1.60037e-06
-1.30054e-07
1.64308e-06
-1.29173e-07
1.6855e-06
-1.28304e-07
1.72763e-06
-1.27443e-07
1.76946e-06
-1.26585e-07
1.811e-06
-1.25726e-07
1.85223e-06
-1.2486e-07
1.89315e-06
-1.23984e-07
1.93375e-06
-1.23091e-07
1.97403e-06
-1.22176e-07
2.01397e-06
-1.21234e-07
2.05355e-06
-1.20259e-07
2.09277e-06
-1.19246e-07
2.1316e-06
-1.18188e-07
2.17003e-06
-1.17081e-07
2.20804e-06
-1.15919e-07
2.24561e-06
-1.14696e-07
2.28271e-06
-1.13408e-07
2.31933e-06
-1.1205e-07
2.35542e-06
-1.10619e-07
2.39098e-06
-1.0911e-07
2.42598e-06
-1.07521e-07
2.46038e-06
-1.05849e-07
2.49416e-06
-1.04093e-07
2.5273e-06
-1.02252e-07
2.55977e-06
-1.00325e-07
2.59154e-06
-9.83144e-08
2.62258e-06
-9.62211e-08
2.65288e-06
-9.40474e-08
2.68241e-06
-9.17976e-08
2.71115e-06
-8.94757e-08
2.73909e-06
-8.70882e-08
2.7662e-06
-8.46417e-08
2.79247e-06
-8.21456e-08
2.81789e-06
-7.96101e-08
2.84247e-06
-7.70491e-08
2.8662e-06
-7.4479e-08
2.88908e-06
-7.19224e-08
2.91113e-06
-6.94089e-08
2.93239e-06
-6.6981e-08
2.95289e-06
-6.47009e-08
2.9727e-06
-6.26661e-08
2.99191e-06
-6.10388e-08
3.01064e-06
-6.0088e-08
3.02901e-06
-6.0343e-08
3.04684e-06
-6.26441e-08
-6.7804e-08
-4.9483e-08
1.20529e-07
-9.66699e-08
1.6454e-07
-1.43517e-07
1.9161e-07
-1.91816e-07
2.086e-07
-2.41871e-07
2.1924e-07
-2.93391e-07
2.26094e-07
-3.45991e-07
2.3074e-07
-3.9933e-07
2.34077e-07
-4.53121e-07
2.36596e-07
-5.07091e-07
2.38561e-07
-5.60991e-07
2.40079e-07
-6.14583e-07
2.41159e-07
-6.67689e-07
2.41723e-07
-7.2017e-07
2.41657e-07
-7.71928e-07
2.4085e-07
-8.22887e-07
2.39268e-07
-8.7286e-07
2.37164e-07
-9.216e-07
2.34788e-07
-9.69329e-07
2.31876e-07
-1.01703e-06
2.28304e-07
-1.06503e-06
2.24712e-07
-1.11261e-06
2.21692e-07
-1.15962e-06
2.19122e-07
-1.2061e-06
2.1684e-07
-1.25209e-06
2.14734e-07
-1.29762e-06
2.12726e-07
-1.34272e-06
2.10763e-07
-1.38737e-06
2.088e-07
-1.43157e-06
2.06797e-07
-1.4753e-06
2.0472e-07
-1.51853e-06
2.02537e-07
-1.56123e-06
2.0022e-07
-1.60336e-06
1.97746e-07
-1.64489e-06
1.95094e-07
-1.68576e-06
1.92243e-07
-1.72593e-06
1.89179e-07
-1.76534e-06
1.85887e-07
-1.80394e-06
1.82355e-07
-1.84167e-06
1.78571e-07
-1.87849e-06
1.74528e-07
-1.91432e-06
1.70215e-07
-1.94911e-06
1.65626e-07
-1.98279e-06
1.60753e-07
-2.0153e-06
1.55588e-07
-2.04657e-06
1.50126e-07
-2.07654e-06
1.4436e-07
-2.10514e-06
1.38284e-07
-2.1323e-06
1.31896e-07
-2.15793e-06
1.25191e-07
-2.18198e-06
1.18169e-07
-2.20437e-06
1.10832e-07
-2.22503e-06
1.03184e-07
-2.24388e-06
9.52313e-08
-2.26086e-06
8.69862e-08
-2.27589e-06
7.84633e-08
-2.28893e-06
6.96817e-08
-2.2999e-06
6.06649e-08
-2.30877e-06
5.14401e-08
-2.31547e-06
4.20385e-08
-2.31999e-06
3.24937e-08
-2.32229e-06
2.2841e-08
-2.32235e-06
1.31131e-08
-2.32016e-06
3.3393e-09
-2.31575e-06
-6.40826e-09
-2.30917e-06
-1.60337e-08
-2.30045e-06
-2.55003e-08
-2.28961e-06
-3.48115e-08
-2.27669e-06
-4.39745e-08
-2.26172e-06
-5.29926e-08
-2.24472e-06
-6.18654e-08
-2.22573e-06
-7.05894e-08
-2.2048e-06
-7.91586e-08
-2.18195e-06
-8.75663e-08
-2.15722e-06
-9.58053e-08
-2.13066e-06
-1.03869e-07
-2.1023e-06
-1.11749e-07
-2.07219e-06
-1.1944e-07
-2.04038e-06
-1.26933e-07
-2.00692e-06
-1.34224e-07
-1.97184e-06
-1.41301e-07
-1.9352e-06
-1.48158e-07
-1.89706e-06
-1.54785e-07
-1.85748e-06
-1.61177e-07
-1.81649e-06
-1.67328e-07
-1.77417e-06
-1.73234e-07
-1.73057e-06
-1.78893e-07
-1.68574e-06
-1.843e-07
-1.63976e-06
-1.89451e-07
-1.59266e-06
-1.94338e-07
-1.54453e-06
-1.98959e-07
-1.49542e-06
-2.03313e-07
-1.44539e-06
-2.07402e-07
-1.3945e-06
-2.1123e-07
-1.34281e-06
-2.14796e-07
-1.29038e-06
-2.18094e-07
-1.23728e-06
-2.21125e-07
-1.18357e-06
-2.23891e-07
-1.1293e-06
-2.26401e-07
-1.07453e-06
-2.28667e-07
-1.01932e-06
-2.30687e-07
-9.63718e-07
-2.32454e-07
-9.07791e-07
-2.33975e-07
-8.5159e-07
-2.35264e-07
-7.9516e-07
-2.36342e-07
-7.3855e-07
-2.37205e-07
-6.81812e-07
-2.37841e-07
-6.24998e-07
-2.38261e-07
-5.68147e-07
-2.38507e-07
-5.11292e-07
-2.38588e-07
-4.54479e-07
-2.38471e-07
-3.97753e-07
-2.38159e-07
-3.41147e-07
-2.37719e-07
-2.84683e-07
-2.37162e-07
-2.28394e-07
-2.36435e-07
-1.72317e-07
-2.35558e-07
-1.16482e-07
-2.34596e-07
-6.09036e-08
-2.33549e-07
-5.55459e-09
-2.32395e-07
4.94748e-08
-2.31111e-07
1.04082e-07
-2.29713e-07
1.58289e-07
-2.28264e-07
2.12099e-07
-2.26719e-07
2.65494e-07
-2.25061e-07
3.18448e-07
-2.23345e-07
3.70955e-07
-2.21571e-07
4.23032e-07
-2.19693e-07
4.74679e-07
-2.17747e-07
5.25868e-07
-2.15799e-07
5.76561e-07
-2.13849e-07
6.26824e-07
-2.1177e-07
6.76731e-07
-2.09541e-07
7.26254e-07
-2.07295e-07
7.75369e-07
-2.05084e-07
8.24062e-07
-2.02932e-07
8.72327e-07
-2.0085e-07
9.20165e-07
-1.98838e-07
9.6758e-07
-1.96894e-07
1.01458e-06
-1.95013e-07
1.06118e-06
-1.93194e-07
1.10738e-06
-1.91431e-07
1.1532e-06
-1.89725e-07
1.19865e-06
-1.88072e-07
1.24373e-06
-1.8647e-07
1.28846e-06
-1.84919e-07
1.33284e-06
-1.83416e-07
1.37689e-06
-1.81959e-07
1.42062e-06
-1.80546e-07
1.46402e-06
-1.79175e-07
1.50711e-06
-1.77843e-07
1.54989e-06
-1.76547e-07
1.59238e-06
-1.75284e-07
1.63456e-06
-1.74049e-07
1.67645e-06
-1.7284e-07
1.71805e-06
-1.71651e-07
1.75935e-06
-1.70478e-07
1.80036e-06
-1.69316e-07
1.84108e-06
-1.68159e-07
1.88149e-06
-1.67002e-07
1.9216e-06
-1.65838e-07
1.9614e-06
-1.64661e-07
2.00088e-06
-1.63465e-07
2.04003e-06
-1.62242e-07
2.07884e-06
-1.60987e-07
2.1173e-06
-1.59691e-07
2.15539e-06
-1.58348e-07
2.19309e-06
-1.5695e-07
2.23039e-06
-1.5549e-07
2.26727e-06
-1.53961e-07
2.30371e-06
-1.52357e-07
2.33968e-06
-1.50671e-07
2.37517e-06
-1.48898e-07
2.41015e-06
-1.47031e-07
2.44459e-06
-1.45066e-07
2.47848e-06
-1.42999e-07
2.51179e-06
-1.40827e-07
2.54448e-06
-1.38546e-07
2.57655e-06
-1.36157e-07
2.60795e-06
-1.33657e-07
2.63867e-06
-1.31048e-07
2.66869e-06
-1.28331e-07
2.69798e-06
-1.25509e-07
2.72652e-06
-1.22586e-07
2.75428e-06
-1.19567e-07
2.78127e-06
-1.16459e-07
2.80745e-06
-1.1327e-07
2.83282e-06
-1.10009e-07
2.85736e-06
-1.06689e-07
2.88107e-06
-1.03324e-07
2.90396e-06
-9.99313e-08
2.92601e-06
-9.65332e-08
2.94725e-06
-9.31581e-08
2.96768e-06
-8.98432e-08
2.98734e-06
-8.66401e-08
3.00626e-06
-8.36224e-08
3.0245e-06
-8.0899e-08
3.0421e-06
-7.86407e-08
3.05911e-06
-7.71039e-08
3.07552e-06
-7.6748e-08
3.09096e-06
-7.80903e-08
-8.16129e-08
-5.01488e-08
1.70674e-07
-9.7832e-08
2.12224e-07
-1.44067e-07
2.37839e-07
-1.90438e-07
2.54975e-07
-2.37578e-07
2.66383e-07
-2.85515e-07
2.74036e-07
-3.34057e-07
2.7929e-07
-3.82957e-07
2.82986e-07
-4.31964e-07
2.85613e-07
-4.80833e-07
2.87434e-07
-5.2933e-07
2.88577e-07
-5.77249e-07
2.89082e-07
-6.24449e-07
2.88916e-07
-6.70846e-07
2.88044e-07
-7.16431e-07
2.86428e-07
-7.61267e-07
2.84098e-07
-8.05357e-07
2.81251e-07
-8.48675e-07
2.78101e-07
-8.91433e-07
2.74633e-07
-9.34032e-07
2.70906e-07
-9.76584e-07
2.67269e-07
-1.01887e-06
2.63989e-07
-1.0608e-06
2.61054e-07
-1.10234e-06
2.58382e-07
-1.14349e-06
2.55889e-07
-1.18427e-06
2.53502e-07
-1.22466e-06
2.51159e-07
-1.26467e-06
2.48806e-07
-1.30427e-06
2.46398e-07
-1.34344e-06
2.43892e-07
-1.38216e-06
2.41251e-07
-1.42038e-06
2.38443e-07
-1.45807e-06
2.35439e-07
-1.49519e-06
2.32215e-07
-1.5317e-06
2.28749e-07
-1.56754e-06
2.25023e-07
-1.60268e-06
2.21019e-07
-1.63705e-06
2.16725e-07
-1.6706e-06
2.12127e-07
-1.70329e-06
2.07216e-07
-1.73506e-06
2.0198e-07
-1.76584e-06
1.96412e-07
-1.79559e-06
1.90502e-07
-1.82425e-06
1.84242e-07
-1.85174e-06
1.77623e-07
-1.87802e-06
1.70638e-07
-1.90302e-06
1.6328e-07
-1.92666e-06
1.55544e-07
-1.9489e-06
1.47424e-07
-1.96965e-06
1.38919e-07
-1.98885e-06
1.30031e-07
-2.00643e-06
1.20762e-07
-2.02232e-06
1.11122e-07
-2.03645e-06
1.01123e-07
-2.04877e-06
9.07808e-08
-2.05921e-06
8.01198e-08
-2.06771e-06
6.91675e-08
-2.07423e-06
5.79574e-08
-2.07872e-06
4.65275e-08
-2.08114e-06
3.49199e-08
-2.08148e-06
2.3179e-08
-2.07972e-06
1.13471e-08
-2.07584e-06
-5.3617e-10
-2.0699e-06
-1.23502e-08
-2.06194e-06
-2.39904e-08
-2.05199e-06
-3.54514e-08
-2.04007e-06
-4.67332e-08
-2.0262e-06
-5.78397e-08
-2.01042e-06
-6.8773e-08
-1.99276e-06
-7.95314e-08
-1.97324e-06
-9.01097e-08
-1.9519e-06
-1.005e-07
-1.92877e-06
-1.10694e-07
-1.90389e-06
-1.20683e-07
-1.8773e-06
-1.30458e-07
-1.84904e-06
-1.40009e-07
-1.81915e-06
-1.4933e-07
-1.78767e-06
-1.58411e-07
-1.75465e-06
-1.67244e-07
-1.72014e-06
-1.75819e-07
-1.68417e-06
-1.84125e-07
-1.6468e-06
-1.92152e-07
-1.60809e-06
-1.9989e-07
-1.56808e-06
-2.07335e-07
-1.52684e-06
-2.14481e-07
-1.4844e-06
-2.21327e-07
-1.44084e-06
-2.27868e-07
-1.39619e-06
-2.34096e-07
-1.35053e-06
-2.40004e-07
-1.3039e-06
-2.45587e-07
-1.25637e-06
-2.50843e-07
-1.20799e-06
-2.55776e-07
-1.15883e-06
-2.60394e-07
-1.10893e-06
-2.64694e-07
-1.05836e-06
-2.68668e-07
-1.00717e-06
-2.72316e-07
-9.5542e-07
-2.7564e-07
-9.03169e-07
-2.78653e-07
-8.50465e-07
-2.81371e-07
-7.9736e-07
-2.83792e-07
-7.43908e-07
-2.85905e-07
-6.90167e-07
-2.87716e-07
-6.36185e-07
-2.89246e-07
-5.82005e-07
-2.90521e-07
-5.27671e-07
-2.91538e-07
-4.73232e-07
-2.9228e-07
-4.18736e-07
-2.92756e-07
-3.64223e-07
-2.9302e-07
-3.09722e-07
-2.93088e-07
-2.55273e-07
-2.92919e-07
-2.00912e-07
-2.92519e-07
-1.46681e-07
-2.9195e-07
-9.26089e-08
-2.91233e-07
-3.87051e-08
-2.90338e-07
1.50188e-08
-2.89281e-07
6.84719e-08
-2.88049e-07
1.21597e-07
-2.86674e-07
1.74405e-07
-2.85203e-07
2.26885e-07
-2.83589e-07
2.7901e-07
-2.81838e-07
3.30754e-07
-2.80008e-07
3.82112e-07
-2.78077e-07
4.33083e-07
-2.76032e-07
4.83649e-07
-2.73911e-07
5.33798e-07
-2.7172e-07
5.83544e-07
-2.69439e-07
6.32889e-07
-2.67091e-07
6.81812e-07
-2.64722e-07
7.30295e-07
-2.62332e-07
7.78379e-07
-2.59853e-07
8.26113e-07
-2.57274e-07
8.7349e-07
-2.54672e-07
9.20497e-07
-2.52091e-07
9.67123e-07
-2.49558e-07
1.01336e-06
-2.47087e-07
1.05921e-06
-2.44685e-07
1.10466e-06
-2.42352e-07
1.14974e-06
-2.40089e-07
1.19444e-06
-2.37893e-07
1.23877e-06
-2.35763e-07
1.28274e-06
-2.33697e-07
1.32636e-06
-2.31693e-07
1.36964e-06
-2.2975e-07
1.41259e-06
-2.27864e-07
1.45521e-06
-2.26035e-07
1.49751e-06
-2.2426e-07
1.5395e-06
-2.22536e-07
1.58118e-06
-2.20859e-07
1.62256e-06
-2.19227e-07
1.66365e-06
-2.17636e-07
1.70445e-06
-2.1608e-07
1.74495e-06
-2.14556e-07
1.78517e-06
-2.13059e-07
1.8251e-06
-2.11581e-07
1.86474e-06
-2.10119e-07
1.90409e-06
-2.08665e-07
1.94314e-06
-2.07212e-07
1.98189e-06
-2.05754e-07
2.02033e-06
-2.04282e-07
2.05846e-06
-2.02789e-07
2.09626e-06
-2.01267e-07
2.13373e-06
-1.99708e-07
2.17084e-06
-1.98103e-07
2.20759e-06
-1.96443e-07
2.24396e-06
-1.9472e-07
2.27994e-06
-1.92926e-07
2.3155e-06
-1.91052e-07
2.35063e-06
-1.89089e-07
2.3853e-06
-1.8703e-07
2.4195e-06
-1.84868e-07
2.4532e-06
-1.82596e-07
2.48637e-06
-1.80208e-07
2.51901e-06
-1.77698e-07
2.55107e-06
-1.75062e-07
2.58254e-06
-1.72298e-07
2.6134e-06
-1.69401e-07
2.64361e-06
-1.66371e-07
2.67317e-06
-1.63209e-07
2.70203e-06
-1.59915e-07
2.7302e-06
-1.56491e-07
2.75763e-06
-1.52943e-07
2.78432e-06
-1.49276e-07
2.81025e-06
-1.45496e-07
2.83541e-06
-1.41612e-07
2.85978e-06
-1.37635e-07
2.88335e-06
-1.33577e-07
2.90611e-06
-1.29453e-07
2.92807e-06
-1.25281e-07
2.94923e-06
-1.21083e-07
2.96958e-06
-1.16885e-07
2.98915e-06
-1.12722e-07
3.00794e-06
-1.08637e-07
3.02599e-06
-1.04688e-07
3.04333e-06
-1.00957e-07
3.05999e-06
-9.75564e-08
3.07601e-06
-9.46536e-08
3.09138e-06
-9.24733e-08
3.10601e-06
-9.13858e-08
3.11958e-06
-9.16571e-08
-9.36878e-08
-4.88378e-08
2.19511e-07
-9.5434e-08
2.58818e-07
-1.40159e-07
2.8257e-07
-1.84237e-07
2.99056e-07
-2.28323e-07
3.10476e-07
-2.72599e-07
3.18322e-07
-3.17002e-07
3.23706e-07
-3.61373e-07
3.27372e-07
-4.05523e-07
3.29775e-07
-4.49263e-07
3.31183e-07
-4.92416e-07
3.31741e-07
-5.34853e-07
3.31513e-07
-5.76486e-07
3.30545e-07
-6.17299e-07
3.28851e-07
-6.57346e-07
3.2647e-07
-6.96733e-07
3.23483e-07
-7.35545e-07
3.20061e-07
-7.73834e-07
3.16389e-07
-8.11753e-07
3.12549e-07
-8.49493e-07
3.08648e-07
-8.87105e-07
3.04886e-07
-9.24513e-07
3.01402e-07
-9.61656e-07
2.98202e-07
-9.98504e-07
2.95234e-07
-1.03504e-06
2.92431e-07
-1.07127e-06
2.89724e-07
-1.10716e-06
2.87049e-07
-1.1427e-06
2.84348e-07
-1.17787e-06
2.81568e-07
-1.21264e-06
2.78663e-07
-1.24698e-06
2.75593e-07
-1.28086e-06
2.72319e-07
-1.31423e-06
2.68812e-07
-1.34706e-06
2.65043e-07
-1.3793e-06
2.60989e-07
-1.41091e-06
2.56629e-07
-1.44183e-06
2.51946e-07
-1.47203e-06
2.46924e-07
-1.50146e-06
2.4155e-07
-1.53005e-06
2.35813e-07
-1.55778e-06
2.29701e-07
-1.58457e-06
2.23206e-07
-1.61038e-06
2.16316e-07
-1.63516e-06
2.09023e-07
-1.65886e-06
2.01316e-07
-1.68141e-06
1.93187e-07
-1.70275e-06
1.84627e-07
-1.72284e-06
1.75628e-07
-1.7416e-06
1.66184e-07
-1.75897e-06
1.56293e-07
-1.77489e-06
1.45954e-07
-1.7893e-06
1.35171e-07
-1.80213e-06
1.23952e-07
-1.81332e-06
1.12311e-07
-1.82281e-06
1.00267e-07
-1.83053e-06
8.78446e-08
-1.83644e-06
7.50777e-08
-1.84049e-06
6.2005e-08
-1.84264e-06
4.86716e-08
-1.84284e-06
3.51277e-08
-1.84109e-06
2.14248e-08
-1.83735e-06
7.61271e-09
-1.83168e-06
-6.21532e-09
-1.82411e-06
-1.99187e-08
-1.81467e-06
-3.34254e-08
-1.80339e-06
-4.67306e-08
-1.79029e-06
-5.98345e-08
-1.77539e-06
-7.27392e-08
-1.75872e-06
-8.5445e-08
-1.7403e-06
-9.79493e-08
-1.72017e-06
-1.10245e-07
-1.69835e-06
-1.22322e-07
-1.67487e-06
-1.34169e-07
-1.64978e-06
-1.45777e-07
-1.6231e-06
-1.57133e-07
-1.59488e-06
-1.6823e-07
-1.56516e-06
-1.79055e-07
-1.53397e-06
-1.89602e-07
-1.50135e-06
-1.99859e-07
-1.46735e-06
-2.09816e-07
-1.43202e-06
-2.19458e-07
-1.3954e-06
-2.28773e-07
-1.35754e-06
-2.37752e-07
-1.31849e-06
-2.46386e-07
-1.2783e-06
-2.54671e-07
-1.23702e-06
-2.62605e-07
-1.1947e-06
-2.70185e-07
-1.1514e-06
-2.77402e-07
-1.10716e-06
-2.84242e-07
-1.06204e-06
-2.90703e-07
-1.0161e-06
-2.96782e-07
-9.69399e-07
-3.02482e-07
-9.21978e-07
-3.07815e-07
-8.73891e-07
-3.12781e-07
-8.25193e-07
-3.17366e-07
-7.75939e-07
-3.21569e-07
-7.26186e-07
-3.25393e-07
-6.75985e-07
-3.28854e-07
-6.25383e-07
-3.31973e-07
-5.74426e-07
-3.34749e-07
-5.23167e-07
-3.37165e-07
-4.71655e-07
-3.39227e-07
-4.19941e-07
-3.4096e-07
-3.68064e-07
-3.42399e-07
-3.16063e-07
-3.43539e-07
-2.63981e-07
-3.44362e-07
-2.1186e-07
-3.44877e-07
-1.59743e-07
-3.45137e-07
-1.07669e-07
-3.45161e-07
-5.56628e-08
-3.44925e-07
-3.72107e-09
-3.44461e-07
4.8078e-08
-3.43748e-07
9.96514e-08
-3.42806e-07
1.51002e-07
-3.41689e-07
2.02117e-07
-3.40395e-07
2.52971e-07
-3.38902e-07
3.03536e-07
-3.37238e-07
3.53784e-07
-3.35451e-07
4.03706e-07
-3.33512e-07
4.53295e-07
-3.31426e-07
5.02524e-07
-3.29236e-07
5.51384e-07
-3.26936e-07
5.99875e-07
-3.24523e-07
6.47987e-07
-3.22021e-07
6.95709e-07
-3.19442e-07
7.43049e-07
-3.16779e-07
7.9001e-07
-3.14051e-07
8.36579e-07
-3.1129e-07
8.82747e-07
-3.085e-07
9.28541e-07
-3.05646e-07
9.73993e-07
-3.02725e-07
1.01911e-06
-2.99784e-07
1.06387e-06
-2.96858e-07
1.10829e-06
-2.93972e-07
1.15235e-06
-2.91144e-07
1.19604e-06
-2.88382e-07
1.23938e-06
-2.85691e-07
1.28237e-06
-2.83073e-07
1.325e-06
-2.80527e-07
1.36729e-06
-2.78053e-07
1.40924e-06
-2.75651e-07
1.45087e-06
-2.73317e-07
1.49217e-06
-2.71052e-07
1.53316e-06
-2.68851e-07
1.57383e-06
-2.66714e-07
1.61421e-06
-2.64637e-07
1.65429e-06
-2.62616e-07
1.69408e-06
-2.60648e-07
1.73358e-06
-2.58729e-07
1.7728e-06
-2.56853e-07
1.81173e-06
-2.55016e-07
1.85039e-06
-2.53211e-07
1.88876e-06
-2.51433e-07
1.92685e-06
-2.49674e-07
1.96466e-06
-2.47927e-07
2.00218e-06
-2.46185e-07
2.03941e-06
-2.44439e-07
2.07634e-06
-2.42681e-07
2.11295e-06
-2.40902e-07
2.14926e-06
-2.39092e-07
2.18523e-06
-2.37242e-07
2.22086e-06
-2.35343e-07
2.25614e-06
-2.33384e-07
2.29106e-06
-2.31356e-07
2.32558e-06
-2.29248e-07
2.35971e-06
-2.27051e-07
2.39341e-06
-2.24756e-07
2.42667e-06
-2.22353e-07
2.45948e-06
-2.19833e-07
2.49179e-06
-2.17188e-07
2.52361e-06
-2.14412e-07
2.5549e-06
-2.11497e-07