/*--------------------------------*- C++ -*----------------------------------*\
  =========                 |
  \\      /  F ield         | OpenFOAM: The Open Source CFD Toolbox
   \\    /   O peration     | Website:  https://openfoam.org
    \\  /    A nd           | Version:  7
     \\/     M anipulation  |
\*---------------------------------------------------------------------------*/
FoamFile
{
    version     2.0;
    format      ascii;
    class       volVectorField;
    location    "1000";
    object      U;
}
// * * * * * * * * * * * * * * * * * * * * * * * * * * * * * * * * * * * * * //

dimensions      [0 1 -1 0 0 0 0];

internalField   nonuniform List<vector> 
16900
(
(0.00684562 -0.00819708 0)
(-0.00657032 0.0194762 0)
(-0.0463071 0.0325819 0)
(-0.0940406 0.0361544 0)
(-0.144968 0.0369545 0)
(-0.197369 0.0371155 0)
(-0.250585 0.0371696 0)
(-0.304359 0.0372523 0)
(-0.358588 0.0374125 0)
(-0.413262 0.0376535 0)
(-0.468427 0.0379487 0)
(-0.524215 0.0382033 0)
(-0.580917 0.0383294 0)
(-0.63891 0.0384918 0)
(-0.697801 0.0397116 0)
(-0.755769 0.0442617 0)
(-0.812767 0.0546707 0)
(-0.871683 0.0710779 0)
(-0.931264 0.0898123 0)
(-0.99058 0.0671308 0)
(-1.04716 0.0318795 0)
(-1.09931 0.0320428 0)
(-1.15278 0.0321828 0)
(-1.20625 0.0319902 0)
(-1.25944 0.0316681 0)
(-1.31227 0.0313045 0)
(-1.3647 0.0309294 0)
(-1.4167 0.0305517 0)
(-1.46828 0.0301711 0)
(-1.51941 0.0297845 0)
(-1.57008 0.0293882 0)
(-1.62025 0.0289781 0)
(-1.6699 0.0285507 0)
(-1.71897 0.0281027 0)
(-1.76743 0.0276315 0)
(-1.81523 0.0271345 0)
(-1.86231 0.0266099 0)
(-1.90862 0.0260558 0)
(-1.95409 0.0254707 0)
(-1.99866 0.0248536 0)
(-2.04228 0.0242032 0)
(-2.08486 0.0235188 0)
(-2.12635 0.0227995 0)
(-2.16668 0.0220446 0)
(-2.20576 0.0212537 0)
(-2.24353 0.0204263 0)
(-2.27991 0.0195621 0)
(-2.31483 0.018661 0)
(-2.34822 0.0177233 0)
(-2.37999 0.0167492 0)
(-2.41008 0.0157395 0)
(-2.43841 0.0146952 0)
(-2.4649 0.0136177 0)
(-2.48949 0.012509 0)
(-2.51212 0.0113712 0)
(-2.53271 0.0102072 0)
(-2.55122 0.00902003 0)
(-2.5676 0.00781318 0)
(-2.5818 0.00659041 0)
(-2.59378 0.00535557 0)
(-2.60353 0.00411258 0)
(-2.61101 0.00286507 0)
(-2.61623 0.00161553 0)
(-2.61916 0.000364651 0)
(-2.61981 -0.000880317 0)
(-2.61818 -0.00209893 0)
(-2.61433 -0.00328569 0)
(-2.60831 -0.00445031 0)
(-2.60014 -0.00559477 0)
(-2.58988 -0.0067196 0)
(-2.57754 -0.00782471 0)
(-2.56316 -0.00890973 0)
(-2.54679 -0.00997414 0)
(-2.52846 -0.0110173 0)
(-2.5082 -0.0120387 0)
(-2.48607 -0.0130377 0)
(-2.46211 -0.0140135 0)
(-2.43635 -0.0149656 0)
(-2.40886 -0.0158931 0)
(-2.37966 -0.0167954 0)
(-2.34882 -0.0176717 0)
(-2.31639 -0.0185213 0)
(-2.28242 -0.0193437 0)
(-2.24697 -0.0201386 0)
(-2.21009 -0.0209057 0)
(-2.17185 -0.0216445 0)
(-2.13229 -0.0223549 0)
(-2.09147 -0.0230363 0)
(-2.04947 -0.0236884 0)
(-2.00633 -0.0243112 0)
(-1.96213 -0.0249049 0)
(-1.91692 -0.0254696 0)
(-1.87076 -0.0260058 0)
(-1.82372 -0.0265133 0)
(-1.77586 -0.026992 0)
(-1.72724 -0.0274422 0)
(-1.67792 -0.0278648 0)
(-1.62796 -0.0282608 0)
(-1.57742 -0.0286308 0)
(-1.52636 -0.0289748 0)
(-1.47484 -0.029293 0)
(-1.42292 -0.0295867 0)
(-1.37065 -0.0298576 0)
(-1.31807 -0.0301071 0)
(-1.26526 -0.0303347 0)
(-1.21225 -0.0305406 0)
(-1.1591 -0.0307273 0)
(-1.10585 -0.0308987 0)
(-1.05254 -0.0310542 0)
(-0.999228 -0.0311911 0)
(-0.94595 -0.0313127 0)
(-0.892743 -0.0314273 0)
(-0.839633 -0.0315329 0)
(-0.786662 -0.0316222 0)
(-0.733873 -0.0317033 0)
(-0.681282 -0.0317879 0)
(-0.628906 -0.0318651 0)
(-0.576799 -0.0319244 0)
(-0.524973 -0.0320035 0)
(-0.473418 -0.0320943 0)
(-0.422184 -0.0321527 0)
(-0.371292 -0.0322349 0)
(-0.320722 -0.0323642 0)
(-0.270501 -0.032469 0)
(-0.220674 -0.0325543 0)
(-0.1712 -0.0327003 0)
(-0.122175 -0.0328924 0)
(-0.0734658 -0.0330936 0)
(-0.0256128 -0.0333268 0)
(0.0233605 -0.0328597 0)
(0.0700413 -0.0317053 0)
(0.116497 -0.0306096 0)
(0.162298 -0.0296217 0)
(0.207461 -0.0287245 0)
(0.252053 -0.0278988 0)
(0.296118 -0.0271317 0)
(0.339686 -0.0264138 0)
(0.382782 -0.0257386 0)
(0.425426 -0.025101 0)
(0.467636 -0.0244975 0)
(0.509427 -0.0239247 0)
(0.550814 -0.0233807 0)
(0.591811 -0.022863 0)
(0.632433 -0.0223701 0)
(0.672691 -0.0219002 0)
(0.7126 -0.0214521 0)
(0.75217 -0.0210244 0)
(0.791416 -0.0206159 0)
(0.830348 -0.0202254 0)
(0.868977 -0.019852 0)
(0.907313 -0.0194945 0)
(0.945368 -0.0191519 0)
(0.98315 -0.0188233 0)
(1.02067 -0.0185077 0)
(1.05793 -0.0182041 0)
(1.09494 -0.0179116 0)
(1.1317 -0.0176294 0)
(1.16823 -0.0173563 0)
(1.20451 -0.0170916 0)
(1.24057 -0.0168343 0)
(1.27638 -0.0165834 0)
(1.31196 -0.016338 0)
(1.3473 -0.0160972 0)
(1.38239 -0.0158599 0)
(1.41724 -0.0156253 0)
(1.45182 -0.0153924 0)
(1.48614 -0.0151604 0)
(1.52017 -0.0149282 0)
(1.55391 -0.0146951 0)
(1.58734 -0.0144601 0)
(1.62044 -0.0142226 0)
(1.6532 -0.0139816 0)
(1.68559 -0.0137367 0)
(1.7176 -0.013487 0)
(1.74919 -0.0132323 0)
(1.78035 -0.0129718 0)
(1.81105 -0.0127054 0)
(1.84126 -0.0124327 0)
(1.87096 -0.0121537 0)
(1.90013 -0.0118682 0)
(1.92872 -0.0115764 0)
(1.95673 -0.0112783 0)
(1.98413 -0.0109744 0)
(2.01088 -0.0106649 0)
(2.03697 -0.0103506 0)
(2.06238 -0.0100319 0)
(2.08708 -0.00971004 0)
(2.11107 -0.00938574 0)
(2.13432 -0.00906062 0)
(2.15683 -0.00873625 0)
(2.17861 -0.00841512 0)
(2.19964 -0.00810039 0)
(2.21995 -0.007797 0)
(2.23958 -0.00751254 0)
(2.25859 -0.00726011 0)
(2.27708 -0.00706449 0)
(2.29527 -0.00697415 0)
(2.31361 -0.00710564 0)
(2.3323 -0.00779721 0)
(2.36225 -0.00997962 0)
(-0.0187802 0.00852991 0)
(-0.0422743 0.0497913 0)
(-0.0809241 0.0707384 0)
(-0.126245 0.0795177 0)
(-0.175114 0.0831836 0)
(-0.22628 0.0848444 0)
(-0.278935 0.0856453 0)
(-0.332639 0.0860243 0)
(-0.387184 0.0861596 0)
(-0.442475 0.0861234 0)
(-0.498457 0.0859257 0)
(-0.555075 0.0855149 0)
(-0.612211 0.0847956 0)
(-0.669473 0.0837835 0)
(-0.726124 0.0829327 0)
(-0.782588 0.0828263 0)
(-0.839122 0.0830787 0)
(-0.893682 0.0833777 0)
(-0.946211 0.0842154 0)
(-1.0007 0.0841907 0)
(-1.05615 0.0829328 0)
(-1.1103 0.0827154 0)
(-1.16239 0.0821807 0)
(-1.21347 0.0814077 0)
(-1.26391 0.0805398 0)
(-1.31382 0.0796421 0)
(-1.36324 0.0787366 0)
(-1.41217 0.0778251 0)
(-1.46062 0.0769014 0)
(-1.50859 0.0759561 0)
(-1.55604 0.0749794 0)
(-1.60296 0.0739621 0)
(-1.64932 0.0728955 0)
(-1.69507 0.0717724 0)
(-1.74017 0.0705861 0)
(-1.78458 0.0693313 0)
(-1.82825 0.0680033 0)
(-1.87113 0.0665983 0)
(-1.91315 0.0651129 0)
(-1.95426 0.0635446 0)
(-1.9944 0.061891 0)
(-2.0335 0.0601503 0)
(-2.07151 0.0583209 0)
(-2.10835 0.0564013 0)
(-2.14397 0.0543906 0)
(-2.17828 0.052288 0)
(-2.21121 0.0500931 0)
(-2.24271 0.0478059 0)
(-2.27269 0.0454269 0)
(-2.30109 0.0429575 0)
(-2.32783 0.0403997 0)
(-2.35284 0.0377564 0)
(-2.37605 0.0350315 0)
(-2.39739 0.03223 0)
(-2.4168 0.0293582 0)
(-2.43422 0.0264234 0)
(-2.4496 0.0234342 0)
(-2.46289 0.0204002 0)
(-2.47403 0.0173319 0)
(-2.48301 0.0142402 0)
(-2.48978 0.0111363 0)
(-2.49434 0.00803035 0)
(-2.49667 0.00492919 0)
(-2.49676 0.00183511 0)
(-2.49459 -0.00123002 0)
(-2.49025 -0.00422424 0)
(-2.48376 -0.00713711 0)
(-2.47515 -0.00998082 0)
(-2.46446 -0.0127599 0)
(-2.45172 -0.0154756 0)
(-2.43697 -0.0181278 0)
(-2.42024 -0.0207158 0)
(-2.40156 -0.0232381 0)
(-2.38098 -0.0256934 0)
(-2.35853 -0.0280803 0)
(-2.33425 -0.0303974 0)
(-2.30819 -0.0326431 0)
(-2.28039 -0.0348159 0)
(-2.2509 -0.0369144 0)
(-2.21976 -0.0389367 0)
(-2.18703 -0.0408812 0)
(-2.15275 -0.0427463 0)
(-2.11698 -0.0445311 0)
(-2.07978 -0.0462348 0)
(-2.04119 -0.0478569 0)
(-2.00128 -0.0493972 0)
(-1.9601 -0.0508552 0)
(-1.91771 -0.05223 0)
(-1.87417 -0.053521 0)
(-1.82954 -0.0547284 0)
(-1.78388 -0.0558527 0)
(-1.73725 -0.0568951 0)
(-1.68972 -0.0578569 0)
(-1.64133 -0.0587384 0)
(-1.59216 -0.0595395 0)
(-1.54226 -0.060261 0)
(-1.4917 -0.0609051 0)
(-1.44053 -0.0614746 0)
(-1.38881 -0.0619719 0)
(-1.3366 -0.0623975 0)
(-1.28396 -0.0627515 0)
(-1.23093 -0.0630367 0)
(-1.17758 -0.0632577 0)
(-1.12396 -0.0634184 0)
(-1.07011 -0.0635187 0)
(-1.01609 -0.063558 0)
(-0.961952 -0.0635409 0)
(-0.907732 -0.0634772 0)
(-0.853471 -0.0633675 0)
(-0.799212 -0.0632054 0)
(-0.745003 -0.0629953 0)
(-0.69088 -0.0627547 0)
(-0.636866 -0.0624834 0)
(-0.582997 -0.0621661 0)
(-0.529316 -0.0618137 0)
(-0.475844 -0.0614514 0)
(-0.422593 -0.0610643 0)
(-0.369607 -0.0606269 0)
(-0.316896 -0.0601984 0)
(-0.264481 -0.0597797 0)
(-0.21238 -0.0593031 0)
(-0.160573 -0.0588239 0)
(-0.109145 -0.0583803 0)
(-0.0581014 -0.0579132 0)
(-0.00730617 -0.0574 0)
(0.0432083 -0.056852 0)
(0.092965 -0.0562984 0)
(0.142294 -0.0557608 0)
(0.191059 -0.055302 0)
(0.239543 -0.054519 0)
(0.287342 -0.0533851 0)
(0.334731 -0.0523135 0)
(0.38161 -0.051307 0)
(0.427976 -0.0503703 0)
(0.473848 -0.0494936 0)
(0.519247 -0.0486659 0)
(0.56419 -0.0478789 0)
(0.608693 -0.0471266 0)
(0.652773 -0.046405 0)
(0.696444 -0.0457113 0)
(0.739719 -0.0450434 0)
(0.782612 -0.0443996 0)
(0.825134 -0.0437787 0)
(0.867297 -0.0431797 0)
(0.909114 -0.0426015 0)
(0.950596 -0.0420433 0)
(0.991752 -0.0415042 0)
(1.03259 -0.0409834 0)
(1.07313 -0.0404799 0)
(1.11337 -0.0399928 0)
(1.15333 -0.0395211 0)
(1.193 -0.0390638 0)
(1.2324 -0.0386199 0)
(1.27153 -0.0381881 0)
(1.3104 -0.0377674 0)
(1.34901 -0.0373564 0)
(1.38737 -0.0369538 0)
(1.42547 -0.0365583 0)
(1.46331 -0.0361683 0)
(1.5009 -0.0357825 0)
(1.53823 -0.0353992 0)
(1.57529 -0.0350168 0)
(1.61209 -0.0346337 0)
(1.6486 -0.0342481 0)
(1.68483 -0.0338585 0)
(1.72076 -0.0334631 0)
(1.75639 -0.0330603 0)
(1.79168 -0.0326482 0)
(1.82664 -0.0322255 0)
(1.86124 -0.0317904 0)
(1.89546 -0.0313417 0)
(1.92928 -0.0308778 0)
(1.96269 -0.0303978 0)
(1.99565 -0.0299003 0)
(2.02815 -0.0293848 0)
(2.06016 -0.0288503 0)
(2.09166 -0.0282965 0)
(2.12261 -0.027723 0)
(2.153 -0.02713 0)
(2.1828 -0.0265174 0)
(2.21199 -0.025886 0)
(2.24053 -0.0252361 0)
(2.26842 -0.0245691 0)
(2.29562 -0.0238859 0)
(2.32211 -0.0231884 0)
(2.34788 -0.0224782 0)
(2.37291 -0.0217578 0)
(2.39719 -0.02103 0)
(2.42071 -0.0202984 0)
(2.44346 -0.0195673 0)
(2.46544 -0.0188428 0)
(2.48667 -0.0181328 0)
(2.50715 -0.0174493 0)
(2.52692 -0.0168103 0)
(2.54605 -0.0162462 0)
(2.56461 -0.0158119 0)
(2.58275 -0.015611 0)
(2.6008 -0.0158768 0)
(2.61849 -0.0172186 0)
(2.64256 -0.0203225 0)
(-0.0305103 0.0462255 0)
(-0.0607612 0.0901228 0)
(-0.100928 0.115299 0)
(-0.145584 0.12845 0)
(-0.192761 0.135271 0)
(-0.242042 0.139015 0)
(-0.292862 0.141246 0)
(-0.344783 0.142716 0)
(-0.397518 0.143813 0)
(-0.450855 0.144769 0)
(-0.504591 0.145724 0)
(-0.558521 0.146737 0)
(-0.612432 0.147755 0)
(-0.66601 0.148618 0)
(-0.718853 0.148985 0)
(-0.771095 0.148322 0)
(-0.822864 0.147064 0)
(-0.87326 0.145785 0)
(-0.922105 0.143264 0)
(-0.971021 0.13909 0)
(-1.02052 0.135246 0)
(-1.06952 0.132847 0)
(-1.11751 0.130941 0)
(-1.16477 0.129207 0)
(-1.21146 0.127559 0)
(-1.25766 0.125962 0)
(-1.30339 0.124393 0)
(-1.34867 0.122833 0)
(-1.3935 0.121262 0)
(-1.43786 0.11966 0)
(-1.48174 0.118011 0)
(-1.52512 0.116299 0)
(-1.56795 0.11451 0)
(-1.61021 0.112633 0)
(-1.65185 0.110658 0)
(-1.69282 0.108576 0)
(-1.73309 0.10638 0)
(-1.77259 0.104064 0)
(-1.81128 0.101623 0)
(-1.84909 0.099053 0)
(-1.88598 0.0963501 0)
(-1.92188 0.0935117 0)
(-1.95673 0.090535 0)
(-1.99047 0.0874181 0)
(-2.02304 0.084159 0)
(-2.05437 0.0807564 0)
(-2.08438 0.0772096 0)
(-2.11303 0.0735184 0)
(-2.14023 0.0696835 0)
(-2.16591 0.0657068 0)
(-2.19001 0.0615914 0)
(-2.21246 0.0573416 0)
(-2.23319 0.0529637 0)
(-2.25213 0.0484655 0)
(-2.26921 0.0438568 0)
(-2.28439 0.0391492 0)
(-2.29759 0.0343564 0)
(-2.30878 0.0294936 0)
(-2.31791 0.0245775 0)
(-2.32494 0.0196256 0)
(-2.32984 0.0146557 0)
(-2.3326 0.00968465 0)
(-2.33319 0.00472495 0)
(-2.33161 -0.000210375 0)
(-2.32789 -0.00506919 0)
(-2.32209 -0.00980554 0)
(-2.31421 -0.0144236 0)
(-2.30429 -0.0189323 0)
(-2.29237 -0.0233362 0)
(-2.27847 -0.0276367 0)
(-2.26263 -0.0318332 0)
(-2.24488 -0.0359242 0)
(-2.22526 -0.0399075 0)
(-2.2038 -0.0437808 0)
(-2.18054 -0.0475417 0)
(-2.15552 -0.0511878 0)
(-2.12879 -0.0547169 0)
(-2.10037 -0.0581267 0)
(-2.07033 -0.0614146 0)
(-2.0387 -0.064578 0)
(-2.00553 -0.0676139 0)
(-1.97088 -0.0705201 0)
(-1.93479 -0.0732947 0)
(-1.89732 -0.0759367 0)
(-1.85852 -0.0784455 0)
(-1.81845 -0.0808207 0)
(-1.77715 -0.0830617 0)
(-1.7347 -0.0851673 0)
(-1.69114 -0.0871364 0)
(-1.64653 -0.088969 0)
(-1.60094 -0.0906663 0)
(-1.55442 -0.0922302 0)
(-1.50703 -0.0936632 0)
(-1.45883 -0.0949658 0)
(-1.40988 -0.0961379 0)
(-1.36023 -0.0971807 0)
(-1.30995 -0.0980974 0)
(-1.2591 -0.0988928 0)
(-1.20772 -0.0995715 0)
(-1.15587 -0.100134 0)
(-1.10362 -0.100581 0)
(-1.051 -0.100915 0)
(-0.998088 -0.101145 0)
(-0.944918 -0.101278 0)
(-0.891538 -0.101314 0)
(-0.837999 -0.10125 0)
(-0.784352 -0.101094 0)
(-0.730639 -0.100861 0)
(-0.676896 -0.100555 0)
(-0.62316 -0.100164 0)
(-0.56948 -0.0996937 0)
(-0.515891 -0.0991714 0)
(-0.462417 -0.0986 0)
(-0.409087 -0.0979547 0)
(-0.355943 -0.0972493 0)
(-0.303005 -0.0965229 0)
(-0.250295 -0.0957602 0)
(-0.197842 -0.0949237 0)
(-0.145625 -0.0940778 0)
(-0.093746 -0.093236 0)
(-0.0421838 -0.0923427 0)
(0.00920976 -0.0914094 0)
(0.0601319 -0.090459 0)
(0.110567 -0.0894959 0)
(0.160596 -0.0884996 0)
(0.210225 -0.0874199 0)
(0.259383 -0.0863017 0)
(0.308119 -0.0852155 0)
(0.356348 -0.0841678 0)
(0.404137 -0.0829967 0)
(0.451511 -0.0816864 0)
(0.498534 -0.0804027 0)
(0.545138 -0.0791698 0)
(0.591308 -0.0779935 0)
(0.637039 -0.0768703 0)
(0.682337 -0.0757938 0)
(0.727212 -0.074758 0)
(0.771674 -0.0737583 0)
(0.815734 -0.0727914 0)
(0.859405 -0.071855 0)
(0.902698 -0.0709472 0)
(0.945624 -0.0700667 0)
(0.988194 -0.0692126 0)
(1.03042 -0.0683837 0)
(1.07231 -0.0675793 0)
(1.11387 -0.0667985 0)
(1.15512 -0.0660403 0)
(1.19606 -0.0653038 0)
(1.23671 -0.0645878 0)
(1.27706 -0.0638913 0)
(1.31712 -0.063213 0)
(1.35691 -0.0625514 0)
(1.39642 -0.0619051 0)
(1.43566 -0.0612724 0)
(1.47463 -0.0606517 0)
(1.51334 -0.0600411 0)
(1.55178 -0.0594387 0)
(1.58996 -0.0588424 0)
(1.62786 -0.0582501 0)
(1.66549 -0.0576595 0)
(1.70285 -0.0570684 0)
(1.73992 -0.0564743 0)
(1.77669 -0.0558748 0)
(1.81317 -0.0552674 0)
(1.84933 -0.0546495 0)
(1.88516 -0.0540188 0)
(1.92065 -0.0533727 0)
(1.95579 -0.0527089 0)
(1.99055 -0.0520249 0)
(2.02491 -0.0513187 0)
(2.05887 -0.0505881 0)
(2.09239 -0.0498313 0)
(2.12545 -0.0490467 0)
(2.15803 -0.0482329 0)
(2.19012 -0.0473887 0)
(2.22167 -0.0465134 0)
(2.25268 -0.0456065 0)
(2.28311 -0.0446677 0)
(2.31294 -0.0436974 0)
(2.34214 -0.042696 0)
(2.3707 -0.0416645 0)
(2.3986 -0.0406043 0)
(2.4258 -0.0395172 0)
(2.45229 -0.0384052 0)
(2.47806 -0.0372712 0)
(2.50308 -0.0361184 0)
(2.52735 -0.0349506 0)
(2.55085 -0.0337724 0)
(2.57358 -0.0325897 0)
(2.59553 -0.0314095 0)
(2.61671 -0.0302413 0)
(2.63713 -0.0290976 0)
(2.65681 -0.0279963 0)
(2.67578 -0.0269642 0)
(2.69408 -0.0260438 0)
(2.7118 -0.0253081 0)
(2.729 -0.0248835 0)
(2.74591 -0.0250292 0)
(2.76189 -0.0262196 0)
(2.78209 -0.0289421 0)
(-0.0343566 0.0914708 0)
(-0.0688514 0.134539 0)
(-0.11091 0.160407 0)
(-0.15564 0.175658 0)
(-0.201601 0.184516 0)
(-0.249006 0.189776 0)
(-0.297606 0.193045 0)
(-0.347066 0.195196 0)
(-0.397102 0.196703 0)
(-0.44745 0.197826 0)
(-0.497847 0.198694 0)
(-0.548029 0.199322 0)
(-0.597754 0.199627 0)
(-0.646798 0.199448 0)
(-0.694989 0.198564 0)
(-0.742406 0.196746 0)
(-0.789179 0.194305 0)
(-0.835079 0.191695 0)
(-0.880112 0.188499 0)
(-0.924913 0.184581 0)
(-0.969754 0.18083 0)
(-1.01427 0.177755 0)
(-1.05826 0.175093 0)
(-1.10174 0.172671 0)
(-1.14476 0.170398 0)
(-1.18736 0.168218 0)
(-1.22955 0.166087 0)
(-1.27134 0.163971 0)
(-1.31271 0.161841 0)
(-1.35366 0.159668 0)
(-1.39416 0.157429 0)
(-1.43418 0.155103 0)
(-1.47369 0.152673 0)
(-1.51265 0.150123 0)
(-1.55102 0.147439 0)
(-1.58877 0.14461 0)
(-1.62583 0.141628 0)
(-1.66217 0.138484 0)
(-1.69772 0.135171 0)
(-1.73245 0.131686 0)
(-1.76628 0.128022 0)
(-1.79918 0.124176 0)
(-1.83107 0.120145 0)
(-1.86191 0.115925 0)
(-1.89162 0.111514 0)
(-1.92015 0.106909 0)
(-1.94744 0.10211 0)
(-1.97341 0.0971152 0)
(-1.99801 0.0919255 0)
(-2.02116 0.0865427 0)
(-2.0428 0.0809706 0)
(-2.06286 0.0752146 0)
(-2.08127 0.0692824 0)
(-2.09796 0.0631843 0)
(-2.11288 0.0569329 0)
(-2.12596 0.050544 0)
(-2.13715 0.0440356 0)
(-2.1464 0.0374285 0)
(-2.15365 0.0307454 0)
(-2.15888 0.0240105 0)
(-2.16206 0.0172486 0)
(-2.16316 0.0104825 0)
(-2.16218 0.00373105 0)
(-2.15907 -0.00296705 0)
(-2.15395 -0.00954293 0)
(-2.14682 -0.0159605 0)
(-2.13771 -0.0222251 0)
(-2.12663 -0.028344 0)
(-2.11363 -0.0343217 0)
(-2.09874 -0.0401594 0)
(-2.08197 -0.0458562 0)
(-2.06338 -0.0514096 0)
(-2.04298 -0.0568164 0)
(-2.02081 -0.0620735 0)
(-1.99692 -0.0671774 0)
(-1.97134 -0.072125 0)
(-1.9441 -0.0769132 0)
(-1.91526 -0.0815389 0)
(-1.88485 -0.0859988 0)
(-1.85292 -0.0902892 0)
(-1.81952 -0.094406 0)
(-1.78469 -0.0983457 0)
(-1.74848 -0.102106 0)
(-1.71095 -0.105685 0)
(-1.67215 -0.109083 0)
(-1.63212 -0.112298 0)
(-1.59094 -0.115331 0)
(-1.54864 -0.11818 0)
(-1.50528 -0.120843 0)
(-1.46093 -0.123319 0)
(-1.41563 -0.12561 0)
(-1.36945 -0.127719 0)
(-1.32245 -0.12965 0)
(-1.27467 -0.131405 0)
(-1.22618 -0.132981 0)
(-1.17703 -0.134381 0)
(-1.12728 -0.135608 0)
(-1.07698 -0.13667 0)
(-1.0262 -0.137574 0)
(-0.974976 -0.138321 0)
(-0.923366 -0.138909 0)
(-0.871425 -0.139343 0)
(-0.819204 -0.139635 0)
(-0.766751 -0.139797 0)
(-0.714106 -0.139826 0)
(-0.661317 -0.139721 0)
(-0.608436 -0.139487 0)
(-0.555503 -0.139151 0)
(-0.502552 -0.138717 0)
(-0.449615 -0.138168 0)
(-0.396745 -0.137508 0)
(-0.343966 -0.136778 0)
(-0.291315 -0.135985 0)
(-0.238811 -0.135094 0)
(-0.186488 -0.13412 0)
(-0.134361 -0.13311 0)
(-0.0824931 -0.132057 0)
(-0.0308839 -0.130933 0)
(0.0206069 -0.129755 0)
(0.0716237 -0.128543 0)
(0.122274 -0.127302 0)
(0.172586 -0.126007 0)
(0.222504 -0.124651 0)
(0.272017 -0.123272 0)
(0.32112 -0.121869 0)
(0.369816 -0.120405 0)
(0.418109 -0.118906 0)
(0.465998 -0.117423 0)
(0.513429 -0.115957 0)
(0.560424 -0.114408 0)
(0.607055 -0.112765 0)
(0.653356 -0.111127 0)
(0.699287 -0.109525 0)
(0.74483 -0.107973 0)
(0.789975 -0.106473 0)
(0.834721 -0.105025 0)
(0.87907 -0.103625 0)
(0.923031 -0.102269 0)
(0.96661 -0.100954 0)
(1.00982 -0.0996786 0)
(1.05266 -0.0984403 0)
(1.09516 -0.0972377 0)
(1.13731 -0.0960697 0)
(1.17912 -0.094935 0)
(1.22061 -0.0938324 0)
(1.26179 -0.0927607 0)
(1.30266 -0.0917184 0)
(1.34323 -0.0907042 0)
(1.3835 -0.0897166 0)
(1.42348 -0.0887538 0)
(1.46319 -0.0878139 0)
(1.50261 -0.086895 0)
(1.54176 -0.0859949 0)
(1.58063 -0.0851114 0)
(1.61924 -0.084242 0)
(1.65757 -0.0833841 0)
(1.69562 -0.082535 0)
(1.7334 -0.0816919 0)
(1.7709 -0.0808517 0)
(1.80811 -0.0800114 0)
(1.84503 -0.0791679 0)
(1.88165 -0.0783178 0)
(1.91796 -0.077458 0)
(1.95394 -0.076585 0)
(1.98959 -0.0756956 0)
(2.02488 -0.0747864 0)
(2.05981 -0.0738542 0)
(2.09436 -0.0728959 0)
(2.1285 -0.0719087 0)
(2.16222 -0.0708895 0)
(2.19551 -0.069836 0)
(2.22832 -0.0687457 0)
(2.26066 -0.0676169 0)
(2.29248 -0.0664478 0)
(2.32377 -0.0652372 0)
(2.35451 -0.0639843 0)
(2.38467 -0.0626887 0)
(2.41423 -0.0613505 0)
(2.44316 -0.0599703 0)
(2.47145 -0.058549 0)
(2.49906 -0.0570884 0)
(2.52599 -0.0555904 0)
(2.55221 -0.0540579 0)
(2.57771 -0.0524939 0)
(2.60246 -0.0509025 0)
(2.62646 -0.0492881 0)
(2.6497 -0.0476564 0)
(2.67217 -0.0460137 0)
(2.69386 -0.0443681 0)
(2.71478 -0.0427293 0)
(2.73493 -0.0411098 0)
(2.75432 -0.0395262 0)
(2.77298 -0.0380014 0)
(2.79093 -0.0365687 0)
(2.80822 -0.0352783 0)
(2.82489 -0.0342111 0)
(2.84098 -0.0334948 0)
(2.85663 -0.0333674 0)
(2.87103 -0.0341431 0)
(2.88871 -0.0361026 0)
(-0.035163 0.13965 0)
(-0.0716867 0.180369 0)
(-0.114788 0.205091 0)
(-0.159278 0.220839 0)
(-0.203961 0.230708 0)
(-0.249367 0.236889 0)
(-0.295473 0.240817 0)
(-0.342058 0.243353 0)
(-0.388878 0.244986 0)
(-0.435684 0.24598 0)
(-0.482224 0.246462 0)
(-0.528263 0.246458 0)
(-0.573606 0.245913 0)
(-0.618121 0.244733 0)
(-0.661764 0.242815 0)
(-0.704641 0.240115 0)
(-0.746901 0.236842 0)
(-0.788546 0.233294 0)
(-0.829652 0.229445 0)
(-0.870518 0.225357 0)
(-0.911279 0.221434 0)
(-0.951794 0.217908 0)
(-0.991951 0.214715 0)
(-1.03174 0.211764 0)
(-1.07116 0.208981 0)
(-1.11022 0.206305 0)
(-1.14892 0.203685 0)
(-1.18727 0.201079 0)
(-1.22523 0.198448 0)
(-1.2628 0.195759 0)
(-1.29995 0.192983 0)
(-1.33665 0.190095 0)
(-1.37286 0.187073 0)
(-1.40855 0.183899 0)
(-1.44367 0.180557 0)
(-1.47818 0.177034 0)
(-1.51204 0.173318 0)
(-1.5452 0.169402 0)
(-1.5776 0.165277 0)
(-1.60921 0.160936 0)
(-1.63995 0.156376 0)
(-1.6698 0.15159 0)
(-1.69868 0.146574 0)
(-1.72654 0.141325 0)
(-1.75333 0.13584 0)
(-1.77899 0.130115 0)
(-1.80346 0.124147 0)
(-1.82667 0.117936 0)
(-1.84856 0.111482 0)
(-1.86908 0.104786 0)
(-1.88814 0.0978519 0)
(-1.90569 0.0906863 0)
(-1.92167 0.083298 0)
(-1.936 0.0756989 0)
(-1.94863 0.0679045 0)
(-1.9595 0.0599338 0)
(-1.96854 0.0518093 0)
(-1.97571 0.0435571 0)
(-1.98097 0.0352058 0)
(-1.98427 0.0267863 0)
(-1.98559 0.0183309 0)
(-1.98491 0.00986851 0)
(-1.98222 0.00142403 0)
(-1.97751 -0.00692698 0)
(-1.97088 -0.0151047 0)
(-1.96233 -0.0230953 0)
(-1.95189 -0.0309019 0)
(-1.93959 -0.0385301 0)
(-1.92544 -0.0459838 0)
(-1.90948 -0.0532636 0)
(-1.89174 -0.060368 0)
(-1.87224 -0.0672935 0)
(-1.85102 -0.0740358 0)
(-1.82812 -0.0805906 0)
(-1.80357 -0.0869538 0)
(-1.7774 -0.0931212 0)
(-1.74966 -0.0990892 0)
(-1.72038 -0.104854 0)
(-1.68961 -0.110411 0)
(-1.65739 -0.115757 0)
(-1.62376 -0.120885 0)
(-1.58878 -0.125791 0)
(-1.55248 -0.130472 0)
(-1.51493 -0.134927 0)
(-1.47616 -0.139153 0)
(-1.43624 -0.143152 0)
(-1.39522 -0.146923 0)
(-1.35314 -0.150464 0)
(-1.31005 -0.153771 0)
(-1.26602 -0.156844 0)
(-1.22111 -0.159685 0)
(-1.17536 -0.162299 0)
(-1.12883 -0.16469 0)
(-1.08158 -0.16686 0)
(-1.03365 -0.168808 0)
(-0.985103 -0.170535 0)
(-0.935999 -0.172044 0)
(-0.88639 -0.173347 0)
(-0.836326 -0.174453 0)
(-0.785855 -0.175364 0)
(-0.735026 -0.176076 0)
(-0.683895 -0.176595 0)
(-0.632513 -0.176936 0)
(-0.580922 -0.177115 0)
(-0.529164 -0.177132 0)
(-0.47728 -0.176978 0)
(-0.425323 -0.176662 0)
(-0.373327 -0.176219 0)
(-0.321335 -0.175659 0)
(-0.269369 -0.174956 0)
(-0.217481 -0.174115 0)
(-0.165671 -0.173182 0)
(-0.114026 -0.172169 0)
(-0.0625412 -0.171048 0)
(-0.0112156 -0.16983 0)
(0.0399523 -0.168532 0)
(0.0907511 -0.167169 0)
(0.141261 -0.165751 0)
(0.191494 -0.164252 0)
(0.241373 -0.162679 0)
(0.290906 -0.161074 0)
(0.340076 -0.159416 0)
(0.388875 -0.157696 0)
(0.437297 -0.155942 0)
(0.485324 -0.15416 0)
(0.53296 -0.152328 0)
(0.580214 -0.150465 0)
(0.62708 -0.148605 0)
(0.673527 -0.146748 0)
(0.719566 -0.144837 0)
(0.765252 -0.142863 0)
(0.810611 -0.140888 0)
(0.855623 -0.13894 0)
(0.900276 -0.137036 0)
(0.944561 -0.135183 0)
(0.988473 -0.133383 0)
(1.03201 -0.131636 0)
(1.07519 -0.129939 0)
(1.118 -0.128291 0)
(1.16045 -0.126689 0)
(1.20256 -0.125132 0)
(1.24433 -0.123619 0)
(1.28577 -0.122149 0)
(1.32689 -0.120718 0)
(1.36769 -0.119327 0)
(1.40819 -0.117973 0)
(1.44838 -0.116655 0)
(1.48828 -0.115371 0)
(1.5279 -0.114118 0)
(1.56723 -0.112895 0)
(1.60627 -0.111698 0)
(1.64505 -0.110527 0)
(1.68354 -0.109376 0)
(1.72177 -0.108245 0)
(1.75971 -0.107128 0)
(1.79738 -0.106024 0)
(1.83477 -0.104928 0)
(1.87188 -0.103837 0)
(1.9087 -0.102747 0)
(1.94522 -0.101655 0)
(1.98143 -0.100555 0)
(2.01733 -0.0994453 0)
(2.0529 -0.0983203 0)
(2.08813 -0.0971763 0)
(2.12301 -0.0960093 0)
(2.15752 -0.0948151 0)
(2.19164 -0.0935901 0)
(2.22535 -0.0923303 0)
(2.25865 -0.0910324 0)
(2.2915 -0.0896931 0)
(2.32388 -0.0883094 0)
(2.35578 -0.0868787 0)
(2.38717 -0.0853989 0)
(2.41803 -0.0838683 0)
(2.44834 -0.0822856 0)
(2.47806 -0.0806502 0)
(2.50719 -0.0789618 0)
(2.5357 -0.0772209 0)
(2.56356 -0.0754287 0)
(2.59076 -0.0735865 0)
(2.61728 -0.071697 0)
(2.6431 -0.0697628 0)
(2.66819 -0.0677878 0)
(2.69256 -0.0657761 0)
(2.71617 -0.0637331 0)
(2.73903 -0.0616645 0)
(2.76113 -0.0595778 0)
(2.78245 -0.0574809 0)
(2.80301 -0.0553841 0)
(2.8228 -0.0532995 0)
(2.84183 -0.0512426 0)
(2.86012 -0.0492332 0)
(2.87768 -0.0472983 0)
(2.89455 -0.0454753 0)
(2.91075 -0.0438181 0)
(2.92632 -0.042408 0)
(2.94127 -0.0413608 0)
(2.9557 -0.0408733 0)
(2.96871 -0.0411207 0)
(2.9846 -0.0422957 0)
(-0.0345588 0.187592 0)
(-0.0715959 0.22583 0)
(-0.114755 0.248719 0)
(-0.158404 0.263999 0)
(-0.201509 0.274052 0)
(-0.244699 0.280545 0)
(-0.288082 0.284678 0)
(-0.331532 0.287229 0)
(-0.374865 0.288664 0)
(-0.417881 0.289246 0)
(-0.460385 0.289113 0)
(-0.502207 0.288317 0)
(-0.543227 0.286861 0)
(-0.583394 0.284726 0)
(-0.622736 0.281902 0)
(-0.661377 0.278436 0)
(-0.699469 0.274504 0)
(-0.737092 0.270325 0)
(-0.774336 0.265989 0)
(-0.811365 0.261611 0)
(-0.848256 0.257416 0)
(-0.884949 0.253527 0)
(-0.921377 0.249927 0)
(-0.957517 0.246557 0)
(-0.993358 0.243353 0)
(-1.02889 0.240255 0)
(-1.06411 0.237208 0)
(-1.09901 0.234166 0)
(-1.13355 0.231084 0)
(-1.16771 0.227924 0)
(-1.20148 0.224654 0)
(-1.2348 0.221246 0)
(-1.26766 0.217674 0)
(-1.3 0.213917 0)
(-1.33179 0.209959 0)
(-1.36299 0.205784 0)
(-1.39354 0.201381 0)
(-1.42341 0.19674 0)
(-1.45254 0.191852 0)
(-1.48089 0.18671 0)
(-1.50841 0.181309 0)
(-1.53504 0.175643 0)
(-1.56075 0.169708 0)
(-1.58547 0.163499 0)
(-1.60916 0.157012 0)
(-1.63176 0.150243 0)
(-1.65321 0.143189 0)
(-1.67346 0.135847 0)
(-1.69245 0.128216 0)
(-1.71011 0.120299 0)
(-1.72639 0.112099 0)
(-1.74122 0.103622 0)
(-1.75454 0.0948776 0)
(-1.76628 0.0858798 0)
(-1.77639 0.0766461 0)
(-1.78481 0.0671987 0)
(-1.79148 0.057564 0)
(-1.79635 0.0477731 0)
(-1.79938 0.0378605 0)
(-1.80054 0.027864 0)
(-1.79978 0.0178224 0)
(-1.79712 0.00777021 0)
(-1.79248 -0.00224269 0)
(-1.786 -0.012112 0)
(-1.77769 -0.0217685 0)
(-1.76757 -0.0312112 0)
(-1.75565 -0.040442 0)
(-1.74197 -0.0494651 0)
(-1.72654 -0.0582833 0)
(-1.7094 -0.0668969 0)
(-1.69056 -0.075303 0)
(-1.67005 -0.0834969 0)
(-1.64792 -0.0914733 0)
(-1.62419 -0.0992268 0)
(-1.59889 -0.106752 0)
(-1.57207 -0.114045 0)
(-1.54376 -0.1211 0)
(-1.51399 -0.127914 0)
(-1.48282 -0.134482 0)
(-1.45027 -0.140798 0)
(-1.4164 -0.146856 0)
(-1.38124 -0.152649 0)
(-1.34485 -0.158175 0)
(-1.30727 -0.16343 0)
(-1.26855 -0.168414 0)
(-1.22875 -0.173127 0)
(-1.1879 -0.177571 0)
(-1.14607 -0.181741 0)
(-1.1033 -0.185634 0)
(-1.05964 -0.189247 0)
(-1.01515 -0.192584 0)
(-0.96989 -0.19565 0)
(-0.923904 -0.198453 0)
(-0.877242 -0.200995 0)
(-0.829957 -0.203272 0)
(-0.782101 -0.205285 0)
(-0.733731 -0.20704 0)
(-0.684899 -0.208548 0)
(-0.635653 -0.209826 0)
(-0.586037 -0.210874 0)
(-0.5361 -0.211684 0)
(-0.485894 -0.212264 0)
(-0.435466 -0.21263 0)
(-0.384858 -0.212808 0)
(-0.334114 -0.212796 0)
(-0.283267 -0.212583 0)
(-0.232371 -0.212176 0)
(-0.181435 -0.211616 0)
(-0.130546 -0.210916 0)
(-0.0797054 -0.210056 0)
(-0.0289602 -0.209046 0)
(0.0217821 -0.207902 0)
(0.0722499 -0.206641 0)
(0.122519 -0.205273 0)
(0.172567 -0.203804 0)
(0.222387 -0.202219 0)
(0.27192 -0.200539 0)
(0.32116 -0.1988 0)
(0.37009 -0.196977 0)
(0.418694 -0.195072 0)
(0.46696 -0.19312 0)
(0.514869 -0.191112 0)
(0.562417 -0.189044 0)
(0.6096 -0.186937 0)
(0.656405 -0.184795 0)
(0.702833 -0.182613 0)
(0.74889 -0.180402 0)
(0.794574 -0.178187 0)
(0.839866 -0.175969 0)
(0.884773 -0.173718 0)
(0.929333 -0.171431 0)
(0.973566 -0.169144 0)
(1.01747 -0.166881 0)
(1.06102 -0.164657 0)
(1.10424 -0.162483 0)
(1.1471 -0.160363 0)
(1.18961 -0.158298 0)
(1.23177 -0.156287 0)
(1.27358 -0.154331 0)
(1.31506 -0.152428 0)
(1.3562 -0.150575 0)
(1.39702 -0.148773 0)
(1.43752 -0.147019 0)
(1.47771 -0.145312 0)
(1.5176 -0.14365 0)
(1.55719 -0.142031 0)
(1.59648 -0.140453 0)
(1.63549 -0.138913 0)
(1.67422 -0.137409 0)
(1.71267 -0.135939 0)
(1.75084 -0.134498 0)
(1.78874 -0.133084 0)
(1.82636 -0.131693 0)
(1.86371 -0.130322 0)
(1.90078 -0.128967 0)
(1.93758 -0.127623 0)
(1.97409 -0.126287 0)
(2.01031 -0.124954 0)
(2.04623 -0.123619 0)
(2.08185 -0.122278 0)
(2.11716 -0.120926 0)
(2.15214 -0.119558 0)
(2.18678 -0.11817 0)
(2.22107 -0.116756 0)
(2.25499 -0.115312 0)
(2.28853 -0.113833 0)
(2.32166 -0.112315 0)
(2.35437 -0.110754 0)
(2.38665 -0.109145 0)
(2.41846 -0.107485 0)
(2.44979 -0.105772 0)
(2.48062 -0.104001 0)
(2.51092 -0.102171 0)
(2.54067 -0.10028 0)
(2.56986 -0.0983271 0)
(2.59845 -0.0963116 0)
(2.62642 -0.094234 0)
(2.65376 -0.0920949 0)
(2.68045 -0.089896 0)
(2.70646 -0.0876396 0)
(2.73178 -0.0853289 0)
(2.75639 -0.0829675 0)
(2.78028 -0.0805604 0)
(2.80343 -0.0781127 0)
(2.82584 -0.0756312 0)
(2.84749 -0.073123 0)
(2.86839 -0.0705971 0)
(2.88852 -0.0680632 0)
(2.90789 -0.0655336 0)
(2.92651 -0.0630226 0)
(2.94439 -0.0605482 0)
(2.96154 -0.0581331 0)
(2.97798 -0.0558071 0)
(2.99374 -0.0536103 0)
(3.00884 -0.0515971 0)
(3.02332 -0.049845 0)
(3.03715 -0.0484515 0)
(3.05042 -0.0475708 0)
(3.06222 -0.0472775 0)
(3.07673 -0.0477621 0)
(-0.0331957 0.233654 0)
(-0.0697253 0.269693 0)
(-0.11211 0.290547 0)
(-0.154337 0.304795 0)
(-0.195515 0.314423 0)
(-0.236258 0.320704 0)
(-0.276736 0.324615 0)
(-0.316897 0.326832 0)
(-0.356623 0.327784 0)
(-0.395778 0.327734 0)
(-0.434238 0.326835 0)
(-0.471907 0.325177 0)
(-0.508737 0.322814 0)
(-0.544739 0.319793 0)
(-0.579983 0.316169 0)
(-0.614599 0.312037 0)
(-0.648729 0.307557 0)
(-0.68248 0.302905 0)
(-0.71594 0.298201 0)
(-0.749212 0.293554 0)
(-0.782341 0.289101 0)
(-0.815303 0.284918 0)
(-0.848056 0.280992 0)
(-0.880574 0.277279 0)
(-0.91284 0.273721 0)
(-0.944835 0.270258 0)
(-0.976543 0.266834 0)
(-1.00794 0.263398 0)
(-1.039 0.259903 0)
(-1.0697 0.256307 0)
(-1.1 0.252576 0)
(-1.12987 0.248677 0)
(-1.15926 0.244584 0)
(-1.18815 0.240275 0)
(-1.21648 0.235731 0)
(-1.24422 0.230937 0)
(-1.27132 0.22588 0)
(-1.29773 0.22055 0)
(-1.32341 0.214937 0)
(-1.34832 0.209037 0)
(-1.37242 0.202841 0)
(-1.39564 0.196346 0)
(-1.41796 0.189546 0)
(-1.43932 0.182436 0)
(-1.45967 0.175011 0)
(-1.47897 0.167266 0)
(-1.49716 0.159197 0)
(-1.51419 0.150801 0)
(-1.53001 0.142075 0)
(-1.54456 0.133022 0)
(-1.55778 0.123644 0)
(-1.56961 0.113947 0)
(-1.58 0.103942 0)
(-1.58888 0.0936429 0)
(-1.5962 0.0830694 0)
(-1.6019 0.0722463 0)
(-1.60593 0.061204 0)
(-1.60824 0.0499783 0)
(-1.60878 0.0386098 0)
(-1.60752 0.027143 0)
(-1.60445 0.0156226 0)
(-1.59954 0.00408767 0)
(-1.59276 -0.00736121 0)
(-1.58429 -0.0186067 0)
(-1.5741 -0.0296167 0)
(-1.56221 -0.0403886 0)
(-1.54865 -0.0509237 0)
(-1.53342 -0.061225 0)
(-1.51656 -0.0712941 0)
(-1.49808 -0.0811305 0)