/*--------------------------------*- C++ -*----------------------------------*\
  =========                 |
  \\      /  F ield         | OpenFOAM: The Open Source CFD Toolbox
   \\    /   O peration     | Website:  https://openfoam.org
    \\  /    A nd           | Version:  7
     \\/     M anipulation  |
\*---------------------------------------------------------------------------*/
FoamFile
{
    version     2.0;
    format      ascii;
    class       volScalarField;
    location    "350";
    object      epsilon;
}
// * * * * * * * * * * * * * * * * * * * * * * * * * * * * * * * * * * * * * //

dimensions      [0 2 -3 0 0 0 0];

internalField   nonuniform List<scalar> 
16900
(
5.35274
5.73221
7.047
7.73098
7.32997
34.3967
7.99418
42.0523
51.5928
61.8963
72.8653
84.4391
96.5685
109.207
122.316
135.856
149.795
164.096
178.738
193.68
208.907
224.382
240.086
255.984
272.053
288.259
304.569
320.95
337.364
353.77
370.124
386.379
402.486
418.39
434.036
449.367
464.322
478.843
492.869
506.34
519.2
531.395
542.875
553.597
563.522
572.621
580.872
588.263
594.793
600.468
605.309
609.345
612.615
615.169
617.063
618.364
619.141
619.472
619.434
619.109
618.578
617.921
617.213
616.527
615.929
615.479
615.228
615.219
615.486
616.054
616.937
618.142
619.664
621.491
623.604
625.975
628.572
631.355
634.282
637.306
640.378
643.448
646.465
649.377
652.136
654.695
657.01
659.044
660.77
662.169
663.241
664.007
664.52
664.884
665.268
665.238
664.574
663.254
661.257
658.566
655.167
651.049
646.206
640.637
634.343
627.331
619.611
611.199
602.115
592.38
582.02
571.066
559.553
547.512
534.982
522.007
508.622
494.873
480.805
466.454
451.871
437.09
422.143
407.089
391.916
376.702
361.409
346.063
331.637
317.976
306.055
298.731
292.329
286.176
280.15
274.217
268.366
262.596
256.906
251.302
245.788
240.368
235.046
229.828
224.714
219.709
214.814
210.03
205.358
200.799
196.35
192.013
187.786
183.668
179.657
175.751
171.949
168.248
164.648
161.145
157.739
154.426
151.207
148.078
145.038
142.086
139.22
136.439
133.741
131.125
128.59
126.134
123.757
121.458
119.235
117.088
115.015
113.02
111.105
109.263
107.492
105.787
104.147
102.57
101.054
99.5982
98.2007
96.8603
95.5756
94.3452
93.1675
92.0409
90.9637
89.9341
88.9501
88.0097
87.1109
86.2518
85.4311
84.6573
7.36165
7.17208
9.01644
11.7997
16.1397
21.7887
24.1631
31.8545
37.5696
43.252
49.0706
55.0332
61.1332
67.3634
73.7181
80.1891
86.77
93.4513
100.225
107.082
114.013
121.006
128.051
135.136
142.249
149.376
156.504
163.619
170.706
177.749
184.733
191.64
198.452
205.153
211.724
218.146
224.402
230.472
236.339
241.987
247.398
252.557
257.452
262.07
266.401
270.439
274.18
277.62
280.762
283.611
286.173
288.46
290.484
292.263
293.815
295.16
296.321
297.321
298.186
298.938
299.603
300.204
300.763
301.301
301.835
302.38
302.949
303.552
304.195
304.88
305.608
306.375
307.177
308.004
308.847
309.695
310.535
311.353
312.137
312.872
313.545
314.145
314.66
315.081
315.4
315.611
315.712
315.702
315.584
315.364
315.055
314.675
314.252
313.818
313.415
313.011
312.433
311.663
310.695
309.524
308.147
306.56
304.759
302.742
300.508
298.055
295.383
292.494
289.388
286.069
282.54
278.805
274.869
270.738
266.419
261.919
257.246
252.407
247.413
242.268
236.984
231.563
226.009
220.325
214.495
208.515
202.362
195.932
189.447
183.404
177.557
172.569
167.873
163.308
158.835
154.442
150.128
145.895
141.746
137.685
133.715
129.84
126.063
122.385
118.808
115.335
111.964
108.698
105.534
102.473
99.5134
96.654
93.8931
91.2287
88.6589
86.1813
83.7938
81.4937
79.2787
77.1463
75.0938
73.1189
71.2189
69.3915
67.6341
65.9445
64.3202
62.7592
61.2591
59.8179
58.4335
57.104
55.8274
54.602
53.4259
52.2974
51.2147
50.1777
49.1897
48.2444
47.3377
46.4679
45.6335
44.8331
44.0655
43.3297
42.6247
41.9494
41.303
40.6845
40.0931
39.5278
38.9879
38.4724
37.9803
37.5107
37.0625
36.6341
36.2236
35.8415
9.78177
9.51583
11.5447
14.6239
18.5334
22.7513
26.9417
31.9056
36.6839
41.4789
46.3483
51.3039
56.3487
61.4835
66.7073
72.0178
77.411
82.8819
88.4245
94.0324
99.6983
105.414
111.173
116.965
122.782
128.616
134.457
140.295
146.123
151.929
157.704
163.438
169.118
174.735
180.276
185.73
191.084
196.326
201.443
206.422
211.251
215.917
220.41
224.717
228.831
232.742
236.444
239.932
243.204
246.257
249.094
251.72
254.139
256.361
258.395
260.254
261.951
263.5
264.917
266.218
267.418
268.533
269.578
270.565
271.508
272.417
273.299
274.161
275.008
275.842
276.664
277.471
278.261
279.03
279.772
280.481
281.151
281.774
282.346
282.859
283.308
283.69
284
284.236
284.398
284.486
284.501
284.447
284.328
284.152
283.925
283.659
283.363
283.048
282.706
282.271
281.71
281.013
280.176
279.195
278.066
276.784
275.344
273.745
271.981
270.05
267.948
265.673
263.224
260.6
257.798
254.82
251.668
248.342
244.842
241.174
237.34
233.34
229.18
224.86
220.38
215.738
210.93
205.94
200.766
195.307
189.657
183.891
178.147
172.604
167.239
162.163
157.241
152.421
147.689
143.044
138.491
134.035
129.68
125.431
121.292
117.265
113.353
109.559
105.882
102.323
98.8827
95.56
92.3537
89.2624
86.2842
83.4169
80.6582
78.0053
75.4556
73.0061
70.6538
68.3956
66.2286
64.1494
62.1552
60.2427
58.4091
56.6513
54.9665
53.3518
51.8045
50.322
48.9016
47.541
46.2378
44.9896
43.7943
42.6497
41.5539
40.5047
39.5005
38.5395
37.6207
36.743
35.9049
35.1033
34.3365
33.6028
32.9007
32.2288
31.5858
30.9706
30.3819
29.8187
29.2799
28.7647
28.2721
27.8011
27.3508
26.9203
26.5086
26.1146
25.7375
25.3917
11.7114
12.2629
13.895
16.7317
20.2929
24.216
28.3684
32.7576
37.1889
41.6753
46.235
50.8779
55.6096
60.4332
65.3495
70.3573
75.4538
80.6347
85.8948
91.2283
96.629
102.09
107.605
113.166
118.767
124.402
130.062
135.742
141.435
147.134
152.831
158.519
164.19
169.835
175.445
181.011
186.521
191.964
197.33
202.604
207.775
212.829
217.754
222.537
227.165
231.628
235.913
240.013
243.92
247.628
251.133
254.434
257.533
260.433
263.139
265.657
267.997
270.169
272.184
274.054
275.791
277.409
278.92
280.336
281.667
282.923
284.113
285.245
286.322
287.35
288.33
289.264
290.151
290.99
291.779
292.515
293.195
293.816
294.376
294.871
295.299
295.658
295.949
296.169
296.321
296.405
296.424
296.381
296.277
296.118
295.908
295.652
295.354
295.009
294.568
294.01
293.323
292.503
291.545
290.444
289.195
287.792
286.231
284.508
282.618
280.556
278.317
275.898
273.297
270.512
267.541
264.38
261.032
257.498
253.775
249.866
245.774
241.496
237.033
232.383
227.545
222.498
217.265
211.738
206.053
200.217
194.315
188.382
182.505
176.757
171.151
165.691
160.339
155.082
149.922
144.866
139.922
135.095
130.392
125.817
121.373
117.063
112.888
108.849
104.947
101.18
97.5473
94.0473
90.6778
87.4364
84.3201
81.3259
78.4506
75.6907
73.0427
70.5029
68.0678
65.7336
63.4967
61.3535
59.3004
57.3339
55.4506
53.6472
51.9205
50.2672
48.6844
47.1693
45.7188
44.3305
43.0016
41.7297
40.5124
39.3474
38.2325
37.1656
36.1447
35.1679
34.2336
33.3402
32.4864
31.6703
30.8901
30.144
29.4304
28.7477
28.0945
27.4696
26.8715
26.2992
25.7514
25.2272
24.7255
24.2452
23.7855
23.3453
22.9238
22.5198
22.1335
21.7827
55.2396
18.6967
16.3848
18.4979
21.7176
25.4168
29.3953
33.5567
37.8195
42.1693
46.6104
51.1496
55.7927
60.5433
65.4027
70.3701
75.4428
80.6169
85.8874
91.2488
96.6951
102.22
107.818
113.483
119.209
124.991
130.823
136.701
142.619
148.572
154.555
160.563
166.588
172.624
178.662
184.695
190.713
196.703
202.654
208.553
214.386
220.138
225.793
231.336
236.751
242.022
247.135
252.074
256.829
261.386
265.737
269.875
273.798
277.506
280.998
284.278
287.351
290.222
292.901
295.396
297.719
299.88
301.891
303.763
305.509
307.137
308.658
310.081
311.413
312.659
313.825
314.915
315.931
316.875
317.748
318.549
319.279
319.936
320.52
321.03
321.466
321.827
322.113
322.324
322.46
322.523
322.514
322.433
322.282
322.062
321.776
321.425
321.008
320.488
319.829
319.028
318.08
316.981
315.726
314.31
312.726
310.969
309.032
306.91
304.601
302.099
299.397
296.49
293.377
290.06
286.532
282.791
278.839
274.679
270.306
265.722
260.927
255.925
250.702
245.263
239.616
233.66
227.589
221.334
214.998
208.6
202.198
195.827
189.537
183.369
177.333
171.419
165.614
159.918
154.337
148.883
143.564
138.387
133.357
128.478
123.754
119.184
114.77
110.512
106.407
102.453
98.6497
94.9924
91.4783
88.1036
84.8644
81.7568
78.7765
75.9192
73.1806
70.5565
68.0425
65.6344
63.3281
61.1193
59.0043
56.9792
55.0402
53.1837
51.4062
49.7045
48.0753
46.5155
45.0223
43.5927
42.2241
40.9139
39.6596
38.4589
37.3095
36.2092
35.156
34.1479
33.1831
32.2599
31.3769
30.5322
29.7242
28.9512
28.2115
27.5035
26.8259
26.1773
25.5562
24.9616
24.3921
23.8466
23.3241
22.8235
22.3438
21.884
21.4432
21.0204
20.6163
20.2516
51.6392
20.6425
18.2477
19.922
22.8445
26.336
30.1509
34.1706
38.3307
42.6099
47.006
51.5233
56.1667
60.9396
65.8432
70.8768
76.038
81.3228
86.7263
92.2433
97.8679
103.594
109.417
115.332
121.332
127.415
133.575
139.81
146.115
152.487
158.923
165.417
171.965
178.562
185.199
191.869
198.562
205.268
211.972
218.662
225.32
231.93
238.473
244.931
251.283
257.509
263.59
269.506
275.239
280.769
286.081
291.162
296.006
300.613
304.978
309.1
312.98
316.62
320.026
323.204
326.164
328.915
331.469
333.836
336.03
338.06
339.939
341.677
343.283
344.767
346.135
347.394
348.551
349.608
350.57
351.439
352.218
352.908
353.508
354.021
354.447
354.785
355.035
355.197
355.272
355.258
355.156
354.965
354.682
354.308
353.843
353.285
352.625
351.794
350.791
349.614
348.262
346.731
345.015
343.11
341.006
338.699
336.18
333.446
330.493
327.318
323.913
320.272
316.395
312.285
307.938
303.348
298.52
293.456
288.159
282.617
276.831
270.833
264.548
258.033
251.373
244.516
237.575
230.548
223.497
216.453
209.458
202.544
195.743
189.083
182.57
176.198
169.96
163.859
157.904
152.104
146.467
140.999
135.705
130.587
125.646
120.882
116.293
111.879
107.635
103.558
99.6443
95.8894
92.2885
88.8366
85.5287
82.3596
79.324
76.4168
73.6328
70.967
68.4145
65.9703
63.63
61.389
59.2429
57.1877
55.2193
53.334
51.5281
49.7982
48.1411
46.5535
45.0325
43.5753
42.1791
40.8415
39.5598
38.3318
37.1552
36.028
34.9481
33.9135
32.9226
31.9736
31.0647
30.1943
29.3607
28.5624
27.7977
27.0652
26.3634
25.6911
25.0469
24.4294
23.8377
23.2704
22.7265
22.205
21.7047
21.2248
20.7642
20.3222
19.8997
19.5198
55.4683
22.641
19.7087
21.0243
23.6967
27.0021
30.6723
34.581
38.6657
42.9016
47.2831
51.8123
56.4931
61.3284
66.3198
71.4663
76.7657
82.2142
87.807
93.5388
99.4044
105.398
111.515
117.751
124.101
130.561
137.13
143.804
150.58
157.458
164.433
171.504
178.666
185.914
193.243
200.644
208.108
215.623
223.177
230.753
238.332
245.897
253.425
260.892
268.276
275.552
282.694
289.678
296.473
303.055
309.404
315.505
321.344
326.911
332.207
337.229
341.971
346.434
350.617
354.527
358.168
361.551
364.685
367.581
370.252
372.711
374.97
377.042
378.938
380.67
382.247
383.679
384.975
386.14
387.182
388.106
388.914
389.612
390.2
390.681
391.056
391.324
391.486
391.541
391.488
391.325
391.05
390.66
390.152
389.522
388.771
387.889
386.846
385.579
384.102
382.415
380.517
378.404
376.072
373.514
370.722
367.69
364.409
360.875
357.087
353.043
348.736
344.158
339.309
334.194
328.818
323.171
317.248
311.059
304.63
297.913
290.898
283.729
276.33
268.77
261.098
253.327
245.519
237.701
229.918
222.203
214.59
207.105
199.774
192.617
185.639
178.837
172.208
165.756
159.487
153.406
147.522
141.836
136.352
131.071
125.99
121.109
116.424
111.93
107.623
103.498
99.5479
95.7677
92.1508
88.6908
85.3812
82.2156
79.1877
76.2913
73.5204
70.869
68.3317
65.903
63.5778
61.3511
59.2183
57.1749
55.2168
53.3401
51.5411
49.8161
48.162
46.5756
45.054
43.5944
42.1942
40.8509
39.5622
38.3258
37.1395
36.0015
34.9098
33.8627
32.8584
31.8953
30.9713
30.0851
29.235
28.4197
27.6378
26.8878
26.1684
25.4784
24.8165
24.1814
23.5721
22.9874
22.4263
21.8876
21.3705
20.8738
20.3968
19.9387
19.5007
19.1075
59.2354
24.1208
20.769
21.829
24.3009
27.4441
30.9856
34.7978
38.8188
43.022
47.3997
51.9527
56.684
61.5967
66.6921
71.9697
77.4274
83.0617
88.8681
94.8417
100.977
107.27
113.715
120.308
127.046
133.925
140.945
148.102
155.397
162.827
170.392
178.089
185.917
193.87
201.944
210.131
218.422
226.805
235.265
243.785
252.345
260.923
269.495
278.033
286.509
294.894
303.158
311.256
319.16
326.842
334.277
341.444
348.324
354.9
361.163
367.114
372.751
378.068
383.062
387.733
392.087
396.129
399.869
403.318
406.489
409.394
412.047
414.464
416.657
418.64
420.425
422.025
423.449
424.708
425.809
426.762
427.57
428.24
428.774
429.177
429.448
429.59
429.6
429.478
429.222
428.828
428.294
427.613
426.78
425.792
424.646
423.329
421.763
419.936
417.858
415.531
412.951
410.116
407.022
403.662
400.029
396.114
391.911
387.413
382.621
377.536
372.154
366.468
360.473
354.167
347.582
340.709
333.503
325.996
318.283
310.314
302.117
293.768
285.269
276.671
268.016
259.339
250.684
242.087
233.586
225.211
216.992
208.953
201.114
193.491
186.089
178.907
171.944
165.202
158.684
152.393
146.333
140.505
134.908
129.54
124.397
119.476
114.771
110.274
105.98
101.88
97.9678
94.2344
90.6721
87.2731
84.0293
80.933
77.9768
75.1534
72.4558
69.8773
67.4116
65.0526
62.7947
60.6326
58.5612
56.5758
54.672
52.8459
51.0935
49.4114
47.7963
46.2452
44.7551
43.3235
41.9479
40.626
39.3554
38.1344
36.9608
35.8329
34.7491
33.7077
32.7071
31.7452
30.8206
29.9321
29.0783
28.2581
27.47
26.713
25.9859
25.2874
24.6164
23.9718
23.3525
22.7576
22.1859
21.6365
21.1084
20.6009
20.1129
19.6438
19.1952
18.7924
56.0398
24.623
21.4481
22.377
24.6906
27.6919
31.1166
34.8403
38.8021
42.9751
47.3506
51.9287
56.7121
61.704
66.906
72.3183
77.9392
83.7658
89.794
96.0194
102.437
109.043
115.832
122.801
129.947
137.267
144.761
152.428
160.268
168.279
176.463
184.818
193.342
202.033
210.885
219.892
229.044
238.327
247.728
257.227
266.803
276.43
286.081
295.725
305.329
314.856
324.253
333.485
342.52
351.323
359.866
368.118
376.058
383.664
390.919
397.812
404.347
410.526
416.34
421.785
426.861
431.574
435.931
439.942
443.619
446.976
450.028
452.79
455.278
457.506
459.49
461.243
462.778
464.108
465.242
466.191
466.962
467.561
467.995
468.266
468.376
468.327
468.117
467.745
467.208
466.501
465.618
464.554
463.3
461.853
460.205
458.324
456.123
453.62
450.824
447.734
444.348
440.662
436.672
432.376
427.763
422.826
417.558
411.952
406.004
399.726
393.12
386.179
378.889
371.213
363.277
355.051
346.513
337.711
328.701
319.489
310.112
300.624
291.055
281.452
271.855
262.305
252.843
243.503
234.32
225.324
216.54
207.989
199.69
191.653
183.884
176.383
169.15
162.183
155.484
149.052
142.886
136.986
131.346
125.963
120.829
115.938
111.281
106.851
102.636
98.6291
94.8191
91.1966
87.7519
84.4753
81.3576
78.3896
75.5627
72.8686
70.2991
67.8468
65.5046
63.2659
61.1243
59.0741
57.1098
55.2266
53.4198
51.6852
50.0189
48.4174
46.8775
45.3961
43.9705
42.5982
41.277
40.0047
38.7793
37.599
36.4621
35.3672
34.3126
33.2968
32.3178
31.3744
30.4655
29.5902
28.7474
27.936
27.155
26.4034
25.68
24.984
24.3143
23.67
23.05
22.4535
21.8795
21.3272
20.7957
20.2842
19.7919
19.3183
18.865
18.4577
55.4882
25.0336
21.9115
22.7277
24.9021
27.7749
31.0914
34.7313
38.6354
42.7772
47.148
51.7475
56.579
61.6461
66.9511
72.495
78.277
84.2951
90.5458
97.0254
103.73
110.655
117.796
125.151
132.718
140.494
148.479
156.673
165.076
173.689
182.512
191.546
200.79
210.241
219.895
229.744
239.779
249.986
260.349
270.848
281.459
292.154
302.902
313.667
324.407
335.062
345.591
355.956
366.117
376.038
385.682
395.015
404.008
412.635
420.877
428.716
436.14
443.159
449.775
455.98
461.769
467.144
472.11
476.675
480.851
484.652
488.092
491.189
493.959
496.418
498.582
500.468
502.09
503.462
504.596
505.505
506.196
506.68
506.961
507.045
506.934
506.63
506.131
505.436
504.54
503.438
502.122
500.584
498.816
496.815
494.561
491.994
489.055
485.771
482.147
478.185
473.879
469.225
464.218
458.862
453.146
447.062
440.605
433.766
426.518
418.909
410.953
402.639
393.964
384.932
375.61
366.009
356.141
346.048
335.777
325.361
314.843
304.269
293.683
283.128
272.647
262.282
252.068
242.043
232.237
222.677
213.388
204.387
195.688
187.303
179.234
171.482
164.045
156.921
150.106
143.598
137.393
131.483
125.864
120.527
115.463
110.661
106.112
101.803
97.7245
93.8635
90.2088
86.7487
83.4719
80.3672
77.4239
74.6316
71.9804
69.4609
67.0641
64.7817
62.6059
60.5292
58.5448
56.6466
54.8286
53.0857
51.4129
49.8059
48.2607
46.7736
45.3415
43.9615
42.6308
41.3472
40.1084
38.9127
37.7581
36.6432
35.5665
34.5267
33.5221
32.5505
31.6114
30.7042
29.828
28.982
28.1655
27.3775
26.6172
25.884
25.1769
24.4951
23.8378
23.2042
22.5936
22.005
21.4378
20.8912
20.3644
19.8568
19.3677
18.8965
18.4452
18.0391
56.2765
25.458
22.2303
22.9215
24.9667
27.7209
30.9362
34.4958
38.3427
42.4515
46.814
51.4304
56.3047
61.4414
66.8442
72.5151
78.4547
84.6618
91.1344
97.8695
104.864
112.113
119.615
127.367
135.366
143.612
152.104
160.842
169.828
179.062
188.547
198.282
208.267
218.5
228.976
239.687
250.624
261.771
273.111
284.623
296.279
308.05
319.899
331.781
343.625
355.388
367.027
378.498
389.759
400.767
411.483
421.864
431.876
441.491
450.686
459.439
467.734
475.559
482.932
489.857
496.323
502.329
507.876
512.969
517.619
521.84
525.646
529.055
532.082
534.747
537.066
539.056
540.734
542.114
543.212
544.039
544.608
544.927
545.004
544.845
544.453
543.831
542.976
541.886
540.556
538.981
537.15
535.054
532.686
530.038
527.084
523.717
519.943
515.779
511.229
506.293
500.964
495.233
489.095
482.568
475.638
468.297
460.542
452.372
443.777
434.795
425.435
415.71
405.633
395.227
384.535
373.59
362.426
351.085
339.613
328.055
316.46
304.872
293.339
281.906
270.616
259.507
248.618
237.981
227.625
217.576
207.854
198.476
189.452
180.792
172.496
164.564
156.992
149.776
142.91
136.387
130.2
124.339
118.795
113.556
108.611
103.946
99.5495
95.4071
91.5055
87.8309
84.37
81.1096
78.0367
75.1387
72.4038
69.8203
67.3773
65.0643
62.8717
60.7901
58.8112
56.9268
55.1296
53.413
51.7706
50.1968
48.6866
47.2353
45.8388
44.4934
43.1959
41.9432
40.7329
39.5626
38.4304
37.3346
36.2734
35.2457
34.25
33.2846
32.3471
31.4379
30.5564
29.7022
28.8748
28.0736
27.298
26.5475
25.8215
25.1196
24.4409
23.7851
23.1514
22.5392
21.9479
21.377
20.8257
20.2935
19.7798
19.2841
18.8057
18.3443
17.9019
17.5029
57.2841
25.8289
22.4276
22.9883
24.9124
27.5567
30.6771
34.1603
37.9514
42.0266
46.3787
51.009
55.9228
61.1259
66.6235
72.4194
78.5158
84.913
91.6105
98.6064
105.898
113.484
121.359
129.523
137.974
146.71
155.732
165.039
174.634
184.517
194.69
205.154
215.908
226.95
238.274
249.872
261.731
273.836
286.168
298.701
311.407
324.252
337.191
350.144
363.062
375.897
388.604
401.133
413.441
425.482
437.215
448.584
459.555
470.097
480.182
489.787
498.895
507.49
515.562
523.137
530.22
536.804
542.88
548.454
553.536
558.136
562.27
565.953
569.204
572.039
574.477
576.536
578.232
579.583
580.603
581.306
581.705
581.811
581.632
581.175
580.443
579.44
578.163
576.61
574.776
572.653
570.228
567.493
564.442
561.057
557.285
553.039
548.343
543.208
537.64
531.636
525.193
518.304
510.968
503.195
494.976
486.311
477.2
467.652
457.675
447.295
436.53
425.404
413.947
402.192
390.178
377.95
365.552
353.032
340.438
327.821
315.232
302.718
290.327
278.104
266.092
254.33
242.852
231.69
220.871
210.417
200.347
190.673
181.405
172.548
164.101
156.062
148.425
141.183
134.327
127.847
121.731
115.968
110.545
105.448
100.661
96.1706
91.9604
88.0152
84.3195
80.8579
77.6154
74.5775
71.7298
69.0588
66.5514
64.195
61.9779
59.8888
57.9173
56.0536
54.2884
52.6134
51.0206
49.5029
48.0536
46.6669
45.3373
44.06
42.8307
41.6455
40.501
39.3943
38.3229
37.2844
36.277
35.2991
34.349
33.4256
32.5268
31.6497
30.7957
29.9645
29.1559
28.3695
27.6051
26.8625
26.1412
25.441
24.7617
24.1028
23.464
22.845
22.2453
21.6645
21.1023
20.5581
20.0315
19.5222
19.0297
18.5535
18.0932
17.6487
17.2218
16.8359
58.0604
26.0971
22.5185
22.9533
24.7653
27.3086
30.3414
33.7536
37.4927
41.5367
45.88
50.5255
55.4802
60.7516
66.3471
72.2725
78.532
85.1282
92.062
99.3332
106.941
114.883
123.157
131.761
140.694
149.954
159.542
169.457
179.701
190.273
201.176
212.409
223.972
235.861
248.07
260.588
273.399
286.485
299.824
313.388
327.144
341.052
355.029
369.019
382.964
396.816
410.526
424.044
437.321
450.312
462.984
475.253
487.092
498.469
509.355
519.724
529.556
538.836
547.551
555.694
563.303
570.378
576.909
582.896
588.346
593.267
597.675
601.582
605.007
607.967
610.479
612.563
614.234
615.511
616.409
616.942
617.124
616.967
616.479
615.668
614.54
613.095
611.333
609.251
606.844
604.1
601.008
597.558
593.744
589.537
584.851
579.651
573.956
567.778
561.118
553.977
546.353
538.245
529.654
520.585
511.04
501.02
490.537
479.605
468.244
456.482
444.342
431.86
419.074
406.028
392.764
379.333
365.787
352.177
338.556
324.978
311.494
298.154
285.007
272.096
259.463
247.146
235.178
223.589
212.401
201.635
191.307
181.426
171.998
163.025
154.505
146.433
138.799
131.595
124.807
118.423
112.428
106.808
101.546
96.6254
92.0292
87.7401
83.7406
80.0133
76.5413
73.3076
70.2961
67.491
64.8772
62.44
60.1657
58.0411
56.0539
54.1922
52.4451
50.8024
49.2545
47.7925
46.4082
45.0941
43.8433
42.6496
41.5072
40.4113
39.3571
38.3407
37.3587
36.4078
35.4857
34.5898
33.7184
32.8697
32.0421
31.2335
30.4402
29.6644
28.906
28.1649
27.441
26.7342
26.0443
25.3715
24.7155
24.0764
23.454
22.8484
22.2592
21.6865
21.1299
20.5894
20.0646
19.5554
19.0615
18.5826
18.1185
17.669
17.2336
16.8125
16.4074
16.04
58.4516
26.2447
22.5179
22.8394
24.5505
27.0029
29.9576
33.3073
37.0024
41.0228
45.3649
50.034
55.0388
60.3894
66.0954
72.1654
78.6062
85.4226
92.6178
100.193
108.15
116.487
125.201
134.292
143.757
153.595
163.805
174.386
185.339
196.662
208.355
220.418
232.847
245.639
258.786
272.272
286.074
300.172
314.54
329.145
343.949
358.859
373.835
388.817
403.725
418.517
433.143
447.553
461.694
475.52
488.982
502.025
514.608
526.697
538.262
549.274
559.714
569.565
578.814
587.453
595.478
602.939
609.826
616.135
621.869
627.035
631.643
635.708
639.245
642.27
644.801
646.856
648.451
649.604
650.329
650.642
650.557
650.085
649.235
648.017
646.435
644.491
642.185
639.512
636.467
633.037
629.211
624.98
620.331
615.219
609.552
603.337
596.586
589.308
581.506
573.183
564.338
554.975
545.099
534.718
523.837
512.466
500.624
488.332
475.62
462.519
449.062
435.291
421.253
406.997
392.574
378.037
363.444
348.849
334.309
319.878
305.61
291.555
277.761
264.272
251.128
238.363
226.011
214.095
202.639
191.659
181.166
171.168
161.667
152.661
144.146
136.112
128.55
121.444
114.781
108.543
102.715
97.2766
92.2103
87.4965
83.1159
79.0492
75.2771
71.7807
68.5418
65.5422
62.765
60.1934
57.8117
55.6048
53.5586
51.6594
49.8946
48.2522
46.7211
45.2907
43.9514
42.6942
41.5106
40.393
39.3343
38.3281
37.3686
36.4505
35.5691
34.7203
33.9003
33.1061
32.3348
31.5841
30.8519
30.1363
29.435
28.743
28.0632
27.3956
26.7401
26.0966
25.4651
24.8456
24.2383
23.6432
23.0606
22.4904
21.933
21.3882
20.8563
20.3373
19.8312
19.3381
18.8578
18.3903
17.9356
17.4936
17.0641
16.6472
16.2426
15.8503
15.4724
15.1286
58.4299
26.272
22.4417
22.6683
24.2923
26.6673
29.5572
32.8582
36.5234
40.5354
44.893
49.6041
54.6804
60.1338
65.9773
72.2227
78.8797
85.9562
93.4576
101.388
109.749
118.542
127.765
137.414
147.487
157.983
168.9
180.233
191.983
204.145
216.716
229.693
243.07
256.841
270.999
285.52
300.366
315.517
330.941
346.598
362.389
378.258
394.157
410.023
425.794
441.417
456.84
472.011
486.879
501.393
515.507
529.17
542.343
554.989
567.079
578.584
589.484
599.762
609.405
618.408
626.762
634.473
641.591
648.107
654.019
659.33
664.048
668.186
671.756
674.774
677.256
679.217
680.676
681.646
682.143
682.182
681.776
680.936
679.672
677.993
675.903
673.405
670.498
667.179
663.439
659.265
654.647
649.577
644.03
637.94
631.253
623.98
616.134
607.721
598.748
589.218
579.136
568.509
557.347
545.66
533.462
520.769
507.607
494.005
479.998
465.626
450.928
435.954
420.757
405.391
389.912
374.378
358.849
343.385
328.041
312.876
297.941
283.289
268.965
255.012
241.469
228.369
215.739
203.604
191.981
180.885
170.322
160.296
150.807
141.849
133.414
125.489
118.061
111.113
104.627
98.5834
92.9619
87.7417
82.9016
78.42
74.2756
70.4472
66.9142
63.6564
60.6544
57.8894
55.3436
52.9999
50.8422
48.8552
47.0246
45.3368
43.7792
42.3398
41.0076
39.7721
38.6238
37.5538
36.5537
35.6159
34.7333
33.8995
33.1087
32.3555
31.635
30.9431
30.276
29.6303
29.0031
28.392
27.7944
27.2079
26.6267
26.0529
25.4871
24.929
24.3783
23.8349
23.2989
22.7703
22.2494
21.7364
21.2315
20.735
20.2472
19.7683
19.2987
18.8385
18.3879
17.9471
17.5163
17.0955
16.6849
16.2845
15.8945
15.5147
15.1453
14.7864
14.4399
14.1235
58.0251
26.1895
22.3058
22.4606
24.0161
26.3318
29.1766
32.4504
36.1096
40.1393
44.5416
49.328
54.5139
60.1125
66.1409
72.6148
79.5475
86.95
94.8304
103.195
112.048
121.393
131.227
141.541
152.335
163.606
175.349
187.559
200.229
213.352
226.922
240.93
255.364
270.211
285.454
301.064
317.006
333.246
349.742
366.39
383.12
399.879
416.616
433.269
449.782
466.099
482.168
497.937
513.358
528.383
542.965
557.061
570.632
583.645
596.071
607.883
619.062
629.592
639.46
648.662
657.191
665.044
672.24
678.822
684.782
690.119
694.837
698.945
702.454
705.377
707.729
709.523
710.774
711.497
711.704
711.41
710.626
709.363
707.631
705.439
702.789
699.686
696.128
692.111
687.626
682.659
677.202
671.244
664.749
657.636
649.897
641.541
632.577
623.015
612.861
602.122
590.808
578.93
566.503
553.541
540.066
526.101
511.678
496.833
481.608
466.049
450.203
434.125
417.873
401.506
385.085
368.671
352.327
336.113
320.088
304.31
288.831
273.701
258.966
244.667
230.839
217.513
204.715
192.464
180.775
169.658
159.116
149.15
139.754
130.92
122.636
114.887
107.653
100.917
94.656
88.8484
83.471
78.5004
73.9128
69.6848
65.7933
62.2157
58.9299
55.9148
53.1502
50.6169
48.2964
46.1717
44.2265
42.4455
40.8146
39.3203
37.9504
36.6933
35.5382
34.4752
33.495
32.5889
31.749
30.9679
30.2388
29.5555
28.9121
28.3035
27.7249
27.172
26.6409
26.1283
25.6312
25.1467
24.672
24.2011
23.734
23.2723
22.8152
22.3622
21.9129
21.4671
21.0248
20.5861
20.1512
19.7203
19.2938
18.8721
18.4554
18.0443
17.6389
17.2398
16.8473
16.4615
16.0829
15.7118
15.3482
14.9925
14.6448
14.3053
13.9742
13.6516
13.3393
13.0533
57.2892
26.0114
22.1268
22.2379
23.7496
26.0325
28.8612
32.1411
35.8321
39.9214
44.4156
49.3312
54.6907
60.5033
66.7933
73.5811
80.8839
88.716
97.0885
106.009
115.483
125.514
136.096
147.225
158.897
171.103
183.835
197.082
210.833
225.075
239.794
254.974
270.596
286.637
303.069
319.856
336.957
354.324
371.845
389.43
407.028
424.583
442.04
459.344
476.438
493.271
509.793
525.955
541.714
557.025
571.849
586.147
599.885
613.034
625.568
637.465
648.706
659.279
669.172
678.38
686.899
694.73
701.868
708.351
714.206
719.428
724.016
727.975
731.313
734.041
736.168
737.709
738.674
739.075
738.924
738.233
737.012
735.27
733.017
730.259
727.001
723.245
718.989
714.23
708.956
703.157
696.823
689.937
682.445
674.293
665.489
656.039
645.954
635.243
623.917
611.986
599.464
586.366
572.713
558.526
543.832
528.661
513.051
497.046
480.693
464.044
447.153
430.079
412.885
395.634
378.39
361.218
344.181
327.342
310.76
294.491
278.59
263.103
248.075
233.544
219.543
206.101
193.239
180.972
169.313
158.266
147.831
138.006
128.779
120.14
112.072
104.556
97.5706
91.0936
85.1003
79.5657
74.4641
69.7696
65.4565
61.4996
57.8741
54.5562
51.5229
48.7524
46.2237
43.9174
41.8149
39.8991
38.1538
36.5642
35.1162
33.797
32.5948
31.4985
30.4978
29.5835
28.7468
27.9796
27.2744
26.6245
26.0233
25.465
24.9442
24.4558
23.9954
23.5588
23.1421
22.7421
22.3556
21.9795
21.6089
21.2393
20.8746
20.5133
20.1544
19.7971
19.4408
19.0853
18.7305
18.3763
18.0228
17.6704
17.3192
16.9698
16.6224
16.2776
15.9357
15.5972
15.2625
14.932
14.606
14.2851
13.9694
13.6594
13.3552
13.0572
12.7656
12.4808
12.2043
11.95
56.2873
25.7544
21.9222
22.025
23.5273
25.8159
28.672
32.0086
35.7907
40.0052
44.6653
49.7917
55.4087
61.5376
68.2047
75.4346
83.2484
91.6637
100.694
110.348
120.631
131.545
143.084
155.242
168.008
181.369
195.31
209.812
224.857
240.421
256.482
273.012
289.981
307.356
325.095
343.15
361.468
379.926
398.402
416.844
435.196
453.405
471.417
489.178
506.64
523.755
540.48
556.774
572.6
587.922
602.709
616.928
630.555
643.564
655.937
667.656
678.706
689.078
698.763
707.756
716.055
723.662
730.577
736.797
742.375
747.322
751.633
755.308
758.35
760.767
762.567
763.758
764.348
764.348
763.765
762.609
760.887
758.609
755.779
752.406
748.492
744.039
739.046
733.505
727.408
720.743
713.503
705.657
697.144
687.949
678.077
667.538
656.342
644.5
632.026
618.935
605.243
590.974
576.15
560.801
544.958
528.66
511.951
494.879
477.497
459.863
442.037
424.082
406.064
388.049
370.106
352.299
334.693
317.353
300.337
283.7
267.495
251.769
236.562
221.911
207.845
194.389
181.56
169.372
157.831
146.938
136.69
127.077
118.088
109.705
101.909
94.6779
87.9867
81.8095
76.1191
70.8876
66.0872
61.6897
57.6678
53.9946
50.6441
47.5915
44.8131
42.2864
39.9904
37.9053
36.0127
34.2956
32.7382
31.3259
30.0453
28.8841
27.831
26.8756
26.0086
25.221
24.5049
23.853
23.2583
22.7148
22.2164
21.758
21.3346
20.9415
20.5746
20.2301
19.9043
19.594
19.2961
19.0066
18.7184
18.4358
18.157
17.8806
17.6054
17.3306
17.0552
16.779
16.5015
16.2227
15.9426
15.6613
15.3791
15.0963
14.8133
14.5305
14.2483
13.9672
13.6877
13.4101
13.135
12.8628
12.5938
12.3284
12.067
11.81
11.5577
11.3104
11.0697
10.8474
55.0911
25.4341
21.712
21.8536
23.396
25.7491
28.6972
32.1606
36.1107
40.5449
45.4805
50.9434
56.9631
63.5691
70.7924
78.6619
87.2023
96.4336
106.37
117.021
128.389
140.473
153.264
166.749
180.909
195.723
211.164
227.205
243.812
260.951
278.584
296.67
315.166
334.021
353.179
372.575
392.072
411.508
430.829
449.979
468.903
487.55
505.871
523.821
541.359
558.447
575.053
591.147
606.702
621.696
636.106
649.912
663.096
675.644
687.543
698.781
709.351
719.244
728.457
736.985
744.829
751.988
758.467
764.265
769.384
773.882
777.754
780.996
783.606
785.588
786.944
787.681
787.802
787.314
786.22
784.528
782.241
779.366
775.908
771.87
767.256
762.066
756.298
749.944
742.994
735.441
727.271
718.438
708.904
698.671
687.744
676.132
663.847
650.905
637.321
623.113
608.305
592.923
576.996
560.559
543.651
526.314
508.6
490.561
472.257
453.749
435.102
416.383
397.662
379.006
360.485
342.167
324.116
306.397