/*--------------------------------*- C++ -*----------------------------------*\
  =========                 |
  \\      /  F ield         | OpenFOAM: The Open Source CFD Toolbox
   \\    /   O peration     | Website:  https://openfoam.org
    \\  /    A nd           | Version:  7
     \\/     M anipulation  |
\*---------------------------------------------------------------------------*/
FoamFile
{
    version     2.0;
    format      ascii;
    class       volScalarField;
    location    "350";
    object      k;
}
// * * * * * * * * * * * * * * * * * * * * * * * * * * * * * * * * * * * * * //

dimensions      [0 2 -2 0 0 0 0];

internalField   nonuniform List<scalar> 
16900
(
0.0724787
0.0954084
0.116985
0.129036
0.129068
0.132211
0.151248
0.154168
0.175849
0.198501
0.221309
0.244164
0.267026
0.289852
0.312617
0.335297
0.357874
0.380328
0.402653
0.424826
0.446847
0.468695
0.490366
0.511838
0.533102
0.554138
0.574927
0.595446
0.615671
0.635573
0.65512
0.674279
0.693013
0.711281
0.729042
0.746252
0.762868
0.778843
0.794135
0.808699
0.822494
0.835483
0.847631
0.858909
0.869293
0.878766
0.887319
0.89495
0.901666
0.907484
0.912428
0.916533
0.919843
0.922409
0.924292
0.925556
0.926274
0.926522
0.926381
0.925931
0.925254
0.924432
0.923542
0.922659
0.921852
0.921183
0.920708
0.920472
0.920512
0.920856
0.921522
0.922517
0.92384
0.925481
0.92742
0.929632
0.932084
0.934737
0.93755
0.940475
0.943464
0.946467
0.949433
0.952312
0.955054
0.957614
0.959947
0.962017
0.963792
0.965254
0.966395
0.967228
0.967796
0.968178
0.96852
0.968684
0.968237
0.967161
0.965433
0.963034
0.959947
0.956157
0.951653
0.946426
0.940472
0.933788
0.926376
0.918241
0.909392
0.89984
0.889596
0.878681
0.867114
0.854914
0.842108
0.828723
0.814784
0.800321
0.785371
0.769955
0.754105
0.737855
0.721218
0.704254
0.686944
0.669339
0.651445
0.633161
0.615292
0.598494
0.582287
0.572146
0.5639
0.556004
0.548233
0.540531
0.53288
0.525276
0.517721
0.51022
0.502779
0.495407
0.488109
0.480894
0.473767
0.466735
0.459801
0.45297
0.446245
0.439629
0.433123
0.42673
0.420449
0.414282
0.408229
0.402289
0.396462
0.390747
0.385145
0.379654
0.374273
0.369003
0.363841
0.358789
0.353844
0.349008
0.344278
0.339656
0.335141
0.330733
0.326431
0.322236
0.318148
0.314166
0.310292
0.306525
0.302865
0.299317
0.295892
0.29258
0.289375
0.286275
0.283275
0.280375
0.277573
0.274867
0.272256
0.269739
0.267315
0.264982
0.262739
0.260583
0.258513
0.256526
0.25462
0.25279
0.251036
0.249352
0.247738
0.246211
0.0995264
0.130771
0.160278
0.185965
0.212122
0.240306
0.279998
0.317879
0.358488
0.399988
0.441914
0.484107
0.526473
0.568938
0.611453
0.653963
0.696431
0.738813
0.78108
0.8232
0.865149
0.906899
0.948429
0.989712
1.03073
1.07144
1.11183
1.15186
1.19149
1.23068
1.26938
1.30753
1.34507
1.38193
1.41804
1.45332
1.48767
1.52101
1.55325
1.58429
1.61404
1.6424
1.66929
1.69462
1.71831
1.74031
1.76055
1.779
1.79563
1.81043
1.82341
1.8346
1.84404
1.8518
1.85794
1.86257
1.86579
1.86772
1.86849
1.86823
1.86707
1.86517
1.86265
1.85965
1.85632
1.85276
1.84909
1.84541
1.84181
1.83838
1.83517
1.83223
1.8296
1.82731
1.82536
1.82376
1.8225
1.82156
1.82092
1.82055
1.82042
1.82049
1.82071
1.82105
1.82147
1.82193
1.82238
1.82278
1.82311
1.82332
1.82338
1.82327
1.82296
1.82243
1.82162
1.81996
1.81774
1.81496
1.8116
1.8076
1.80294
1.79757
1.79147
1.7846
1.77692
1.76841
1.75904
1.74879
1.73764
1.72558
1.71258
1.69866
1.6838
1.668
1.65126
1.63361
1.61503
1.59554
1.57518
1.55393
1.53181
1.50884
1.485
1.4603
1.4347
1.40811
1.38058
1.35152
1.32146
1.2924
1.26255
1.23401
1.20589
1.17802
1.1504
1.12307
1.09606
1.06941
1.04316
1.01732
0.991929
0.967009
0.942582
0.918667
0.89528
0.872434
0.85014
0.828405
0.807234
0.78663
0.766594
0.747125
0.728221
0.709877
0.692088
0.674848
0.65815
0.641985
0.626346
0.611222
0.596604
0.582482
0.568846
0.555685
0.542988
0.530745
0.518945
0.507576
0.496627
0.486088
0.475947
0.466194
0.456816
0.447804
0.439146
0.430831
0.422848
0.415178
0.407793
0.400694
0.393881
0.387344
0.381075
0.375063
0.369302
0.363782
0.358494
0.353431
0.348582
0.343941
0.339499
0.335246
0.331175
0.327278
0.323545
0.319968
0.31654
0.31325
0.310094
0.307194
0.131714
0.171411
0.211114
0.249775
0.290288
0.334067
0.382674
0.433138
0.484904
0.537322
0.590157
0.643287
0.696632
0.750128
0.803716
0.857343
0.910957
0.964509
1.01795
1.07125
1.12436
1.17725
1.22988
1.28223
1.33425
1.38592
1.4372
1.48806
1.53846
1.58834
1.63767
1.68637
1.73438
1.78164
1.82806
1.87355
1.91801
1.96136
2.00347
2.04423
2.08355
2.12131
2.15739
2.1917
2.22413
2.25461
2.28305
2.30939
2.3336
2.35564
2.3755
2.39321
2.40879
2.4223
2.43382
2.44344
2.45126
2.4574
2.46201
2.46522
2.46718
2.46804
2.46795
2.46707
2.46553
2.46347
2.46102
2.4583
2.4554
2.45242
2.44942
2.44648
2.44362
2.44089
2.43831
2.43588
2.4336
2.43145
2.42943
2.42749
2.42562
2.42379
2.42194
2.42006
2.4181
2.41603
2.4138
2.41139
2.40877
2.40589
2.40274
2.39929
2.39551
2.3914
2.38643
2.38067
2.37421
2.36704
2.35913
2.35044
2.34092
2.33054
2.31927
2.30706
2.29388
2.27971
2.26451
2.24825
2.23093
2.21251
2.193
2.17236
2.15062
2.12776
2.10379
2.07871
2.05254
2.02528
1.99694
1.96752
1.93703
1.90545
1.87277
1.83888
1.80386
1.76714
1.72927
1.69063
1.65177
1.61347
1.57542
1.53801
1.50094
1.46418
1.42779
1.39185
1.35641
1.32153
1.28725
1.25361
1.22064
1.18837
1.15682
1.12601
1.09594
1.06664
1.03811
1.01034
0.983347
0.957121
0.931658
0.90695
0.882991
0.859769
0.837272
0.81549
0.794407
0.774011
0.754286
0.735219
0.716793
0.698993
0.681805
0.665212
0.6492
0.633752
0.618855
0.604492
0.59065
0.577312
0.564466
0.552097
0.540191
0.528733
0.51771
0.507109
0.496917
0.48712
0.477704
0.468647
0.459936
0.451569
0.443533
0.435817
0.428409
0.421298
0.414472
0.407921
0.401633
0.395599
0.389809
0.384251
0.378916
0.373794
0.368875
0.364148
0.359605
0.355234
0.351037
0.347231
0.154536
0.207103
0.257871
0.305847
0.355091
0.407434
0.463092
0.520871
0.579864
0.639565
0.699766
0.760359
0.821268
0.882433
0.943791
1.00528
1.06685
1.12842
1.18995
1.25139
1.31268
1.37377
1.43464
1.49522
1.5555
1.61544
1.675
1.73414
1.79282
1.85101
1.90866
1.9657
2.02208
2.07773
2.13256
2.18649
2.23942
2.29124
2.34184
2.39109
2.43888
2.48507
2.52955
2.57218
2.61284
2.65143
2.68785
2.722
2.75382
2.78325
2.81026
2.83485
2.85702
2.87683
2.89432
2.90958
2.9227
2.93379
2.94299
2.95042
2.95624
2.96059
2.96364
2.96553
2.96642
2.96645
2.96575
2.96444
2.96265
2.96046
2.95797
2.95523
2.95231
2.94925
2.94608
2.94281
2.93945
2.93599
2.93243
2.92874
2.92491
2.9209
2.91668
2.91223
2.90751
2.9025
2.89715
2.89144
2.88533
2.87881
2.87183
2.86439
2.85643
2.84786
2.83819
2.82762
2.81617
2.80385
2.79063
2.77647
2.76132
2.74515
2.72793
2.70962
2.6902
2.66963
2.64789
2.62494
2.60078
2.57541
2.54879
2.52092
2.49182
2.4615
2.42992
2.39712
2.36312
2.32789
2.29146
2.25381
2.21493
2.1747
2.13332
2.09011
2.04593
2.00087
1.9554
1.90971
1.86422
1.81928
1.77488
1.731
1.68753
1.64453
1.60207
1.56025
1.51914
1.4788
1.43928
1.40061
1.36282
1.32593
1.28996
1.25493
1.22082
1.18766
1.15543
1.12414
1.09376
1.06429
1.03573
1.00805
0.981231
0.955266
0.930132
0.905812
0.882284
0.85953
0.83753
0.816264
0.795711
0.775853
0.756669
0.738142
0.720252
0.70298
0.68631
0.670224
0.654704
0.639734
0.625298
0.61138
0.597964
0.585035
0.572579
0.560581
0.549026
0.537902
0.527194
0.516889
0.506968
0.497423
0.488241
0.479409
0.470914
0.462745
0.454889
0.447334
0.44007
0.433083
0.426365
0.419903
0.413687
0.407706
0.401949
0.396407
0.391068
0.385922
0.380983
0.376549
0.147664
0.233035
0.29819
0.353837
0.409211
0.467073
0.527716
0.590446
0.654527
0.71951
0.785178
0.851413
0.918136
0.985277
1.05277
1.12054
1.18851
1.25662
1.3248
1.39297
1.46109
1.52909
1.59692
1.66455
1.73192
1.79901
1.86578
1.9322
1.99823
2.06384
2.12898
2.19361
2.25766
2.32108
2.38378
2.44568
2.50668
2.56666
2.62551
2.6831
2.73929
2.79394
2.84689
2.89801
2.94714
2.99415
3.0389
3.08129
3.12119
3.15853
3.19323
3.22525
3.25459
3.28128
3.30534
3.32684
3.34584
3.36245
3.37678
3.38895
3.3991
3.40739
3.41396
3.41897
3.42258
3.42493
3.42618
3.42644
3.42584
3.4245
3.42251
3.41996
3.4169
3.4134
3.4095
3.40523
3.4006
3.39562
3.39028
3.38458
3.37851
3.37203
3.36513
3.35778
3.34994
3.3416
3.33272
3.32327
3.31321
3.30251
3.29117
3.27914
3.26639
3.25255
3.23748
3.22131
3.20409
3.1858
3.16643
3.14593
3.12428
3.10142
3.07734
3.052
3.0254
2.9975
2.96827
2.93769
2.90576
2.8725
2.83789
2.8019
2.76456
2.72591
2.68592
2.64459
2.60195
2.55803
2.51273
2.46611
2.41823
2.36844
2.31801
2.26653
2.21464
2.16245
2.11034
2.05848
2.00716
1.95659
1.90679
1.85768
1.80921
1.76143
1.71443
1.6683
1.62311
1.57891
1.53575
1.49366
1.45266
1.41276
1.37397
1.33628
1.2997
1.26421
1.2298
1.19645
1.16415
1.13287
1.10259
1.07328
1.04492
1.01749
0.990961
0.965303
0.940491
0.916501
0.893307
0.870885
0.84921
0.828258
0.808009
0.788438
0.769526
0.751251
0.733595
0.716538
0.700062
0.68415
0.668784
0.653948
0.639626
0.625803
0.612464
0.599594
0.58718
0.575208
0.563665
0.552538
0.541816
0.531482
0.521522
0.511924
0.502676
0.493767
0.485184
0.476915
0.468949
0.461274
0.45388
0.446755
0.439889
0.433271
0.42689
0.420736
0.414797
0.409066
0.403564
0.398661
0.14239
0.25947
0.333489
0.394404
0.454165
0.515883
0.580083
0.646361
0.714166
0.783113
0.852984
0.923651
0.995022
1.06702
1.13956
1.21256
1.28594
1.35962
1.43351
1.50752
1.58161
1.65568
1.7297
1.80361
1.87738
1.95095
2.0243
2.09741
2.17024
2.24276
2.31495
2.38675
2.45812
2.52899
2.59931
2.66898
2.7379
2.80596
2.87303
2.93899
3.00366
3.0669
3.12853
3.18838
3.24628
3.30206
3.35555
3.4066
3.45507
3.5008
3.54367
3.5836
3.62057
3.65462
3.68574
3.71395
3.73931
3.7619
3.78179
3.79911
3.81397
3.82654
3.83694
3.84534
3.8519
3.85676
3.86008
3.86201
3.86268
3.86221
3.86071
3.85827
3.855
3.85094
3.84616
3.84071
3.8346
3.82787
3.82051
3.81252
3.8039
3.79464
3.7847
3.77408
3.76273
3.75063
3.73776
3.72406
3.70952
3.6941
3.67777
3.6605
3.64222
3.62237
3.60114
3.5786
3.55479
3.52969
3.50331
3.4756
3.44653
3.41608
3.3842
3.35089
3.31614
3.27995
3.24229
3.20312
3.16246
3.12035
3.07679
3.03175
2.98525
2.93735
2.88806
2.83731
2.78513
2.73173
2.67662
2.62018
2.563
2.50475
2.44614
2.38718
2.32826
2.26957
2.2114
2.15391
2.09731
2.04175
1.98724
1.93373
1.88117
1.82961
1.77912
1.72977
1.68162
1.63471
1.58908
1.54474
1.50171
1.45997
1.41953
1.38037
1.34247
1.30581
1.27035
1.23608
1.20295
1.17093
1.14
1.11011
1.08123
1.05332
1.02635
1.00029
0.975108
0.950763
0.927227
0.904472
0.882468
0.86119
0.84061
0.820705
0.80145
0.782825
0.764809
0.747381
0.730523
0.714217
0.698446
0.683194
0.668446
0.654186
0.6404
0.627076
0.614199
0.601759
0.589742
0.578138
0.566936
0.556116
0.545667
0.535579
0.52584
0.516439
0.507365
0.498608
0.490157
0.482
0.474128
0.466529
0.459194
0.452111
0.445272
0.438664
0.432279
0.42611
0.420186
0.414931
0.148309
0.281685
0.362619
0.427894
0.491032
0.555585
0.622371
0.691235
0.761799
0.833747
0.906876
0.981051
1.05617
1.13215
1.20889
1.28631
1.3643
1.44277
1.52163
1.60078
1.68014
1.75964
1.83922
1.91882
1.9984
2.07792
2.15735
2.23667
2.31586
2.39489
2.47374
2.55238
2.63076
2.70883
2.78653
2.86378
2.94048
3.01652
3.09177
3.16607
3.23926
3.31117
3.3816
3.45036
3.51724
3.58204
3.64456
3.70461
3.76193
3.81634
3.86772
3.91595
3.96096
4.00268
4.04118
4.07646
4.10852
4.13742
4.16321
4.186
4.20588
4.22299
4.23747
4.24948
4.25917
4.2667
4.27223
4.27592
4.2779
4.27832
4.2773
4.27495
4.27137
4.26666
4.26087
4.25406
4.24629
4.23757
4.22794
4.21739
4.20593
4.19355
4.18023
4.16594
4.15067
4.13438
4.11704
4.09861
4.07904
4.05832
4.03642
4.01327
3.98864
3.96217
3.93407
3.90443
3.87327
3.8406
3.80641
3.77068
3.73339
3.6945
3.65399
3.61185
3.5681
3.52274
3.47577
3.42716
3.3769
3.32506
3.2717
3.21677
3.16024
3.1022
3.04284
2.98185
2.91914
2.85571
2.79108
2.72568
2.65983
2.59363
2.52746
2.46152
2.39609
2.33138
2.26761
2.20496
2.14356
2.08355
2.02492
1.96766
1.91172
1.85714
1.80396
1.75223
1.70198
1.65325
1.60605
1.56038
1.51623
1.47359
1.43242
1.39271
1.35441
1.31748
1.28189
1.24758
1.21452
1.18265
1.15192
1.12229
1.09372
1.06616
1.03955
1.01387
0.989071
0.965109
0.941951
0.919561
0.897905
0.876954
0.856677
0.837047
0.818039
0.79963
0.781798
0.764522
0.747783
0.731565
0.71585
0.700624
0.68587
0.671577
0.657731
0.64432
0.631333
0.618758
0.606587
0.594809
0.583408
0.572371
0.561688
0.551353
0.541354
0.531683
0.52233
0.513287
0.504542
0.496087
0.487911
0.480007
0.472362
0.46497
0.457819
0.4509
0.444205
0.437728
0.431507
0.425999
0.157299
0.299874
0.386054
0.454909
0.520726
0.587417
0.656094
0.726837
0.799423
0.873617
0.949239
1.02616
1.10428
1.1835
1.26372
1.34483
1.42673
1.50932
1.59248
1.67612
1.76014
1.84447
1.92903
2.01377
2.09864
2.18361
2.26864
2.35373
2.43884
2.52398
2.60911
2.69423
2.77929
2.86426
2.94908
3.03367
3.11794
3.20177
3.28504
3.36758
3.44922
3.52977
3.609
3.6867
3.76264
3.83658
3.90828
3.97738
4.04366
4.10693
4.16702
4.22377
4.27704
4.32676
4.37284
4.41536
4.45434
4.48977
4.52169
4.55016
4.57527
4.59713
4.61588
4.63167
4.64465
4.65498
4.66282
4.66835
4.6717
4.67304
4.6725
4.6702
4.66627
4.6608
4.65388
4.64559
4.63597
4.62508
4.61294
4.59958
4.58499
4.56919
4.55214
4.53384
4.51426
4.49336
4.47112
4.44748
4.4224
4.39587
4.36784
4.33825
4.30658
4.27288
4.2373
4.19993
4.16078
4.11987
4.07719
4.03276
3.98654
3.93852
3.88867
3.83698
3.78348
3.72822
3.67122
3.61244
3.55185
3.48948
3.42559
3.36012
3.29276
3.22375
3.15377
3.08248
3.01007
2.93704
2.86341
2.78949
2.71557
2.64186
2.56867
2.49621
2.42474
2.35446
2.28556
2.21819
2.15249
2.08852
2.02633
1.96588
1.90717
1.85018
1.79496
1.74151
1.68985
1.63999
1.59193
1.54564
1.5011
1.45827
1.41711
1.37756
1.33959
1.30312
1.26811
1.23448
1.20219
1.17116
1.14133
1.11265
1.08506
1.0585
1.03292
1.00826
0.984471
0.961511
0.939334
0.917899
0.897166
0.877101
0.857671
0.838845
0.820596
0.802898
0.785729
0.769067
0.752894
0.737192
0.721945
0.70714
0.692762
0.6788
0.665242
0.652079
0.639301
0.626898
0.614861
0.603177
0.591833
0.580825
0.570145
0.559787
0.549745
0.540009
0.530574
0.521432
0.512573
0.503991
0.495678
0.487624
0.479822
0.472263
0.46494
0.457844
0.450967
0.444306
0.437904
0.432239
0.164169
0.315217
0.404525
0.476208
0.54411
0.612396
0.682425
0.754487
0.828503
0.904317
0.98179
1.0608
1.14126
1.22305
1.30608
1.39024
1.4754
1.56147
1.64831
1.73583
1.82393
1.91251
2.00151
2.09085
2.1805
2.27042
2.36057
2.45096
2.54156
2.63237
2.72338
2.81458
2.90595
2.99746
3.08906
3.18067
3.27222
3.36358
3.45463
3.54519
3.63509
3.72411
3.81202
3.89857
3.9835
4.06652
4.14721
4.22531
4.30056
4.37272
4.44156
4.50689
4.56853
4.62634
4.68023
4.73011
4.77606
4.81812
4.85628
4.89056
4.92103
4.94778
4.97093
4.99062
5.007
5.02023
5.03047
5.0379
5.04268
5.04496
5.04491
5.04265
5.03832
5.03204
5.0239
5.01399
5.00239
4.98915
4.97431
4.95791
4.93996
4.92046
4.8994
4.87677
4.85253
4.82667
4.79914
4.76989
4.73887
4.70608
4.67145
4.6348
4.59564
4.55422
4.51067
4.46506
4.41739
4.36769
4.31597
4.26227
4.20656
4.14884
4.08909
4.02729
3.96341
3.89763
3.83001
3.76051
3.68905
3.61534
3.54038
3.46393
3.38588
3.30653
3.22628
3.14515
3.0634
2.98136
2.89923
2.81732
2.73588
2.65518
2.57548
2.497
2.41998
2.34461
2.27106
2.19946
2.12992
2.06252
1.99727
1.93417
1.8732
1.81434
1.7576
1.70298
1.65046
1.60003
1.55165
1.5053
1.46092
1.41845
1.37784
1.33902
1.30192
1.26646
1.23256
1.20015
1.16916
1.1395
1.11111
1.0839
1.05781
1.03277
1.00872
0.985581
0.963308
0.941842
0.921132
0.90113
0.88179
0.863074
0.844942
0.827361
0.810302
0.793736
0.777639
0.76199
0.746768
0.731957
0.717541
0.703507
0.689842
0.676536
0.66358
0.650965
0.638683
0.626723
0.615071
0.603723
0.592674
0.581923
0.571465
0.561295
0.55141
0.541804
0.532471
0.523407
0.514605
0.506058
0.497762
0.489709
0.481892
0.474305
0.466942
0.459796
0.45286
0.446133
0.439662
0.43393
0.169159
0.326746
0.418678
0.49252
0.561973
0.631391
0.702327
0.775244
0.850193
0.927097
1.00586
1.08638
1.16857
1.25233
1.33756
1.42415
1.51197
1.60091
1.69085
1.78167
1.87327
1.96555
2.05844
2.15187
2.24579
2.34015
2.43495
2.53017
2.62579
2.72183
2.81829
2.91515
3.01242
3.11006
3.20804
3.3063
3.40475
3.50329
3.60177
3.70003
3.79789
3.8951
3.99144
4.08661
4.18029
4.27202
4.3615
4.44842
4.53248
4.6134
4.69092
4.76476
4.83472
4.90062
4.96231
5.01967
5.07264
5.12129
5.16569
5.20582
5.24169
5.27339
5.30101
5.32467
5.34451
5.36071
5.37341
5.3828
5.38904
5.3923
5.39274
5.39052
5.38577
5.37862
5.3692
5.35759
5.34389
5.32817
5.31048
5.29086
5.26934
5.24592
5.22061
5.19339
5.16422
5.1331
5.09995
5.06475
5.02745
4.98803
4.94638
4.90218
4.85518
4.80566
4.75374
4.69949
4.64291
4.58399
4.52278
4.45937
4.39374
4.32588
4.2558
4.18345
4.10866
4.03185
3.95317
3.87257
3.79005
3.70564
3.61983
3.53271
3.44434
3.35503
3.26507
3.17467
3.08411
2.99368
2.90366
2.81434
2.72599
2.63886
2.55321
2.46927
2.38724
2.30731
2.22962
2.1543
2.08144
2.01111
1.94331
1.87805
1.8153
1.75505
1.69726
1.64191
1.58897
1.5384
1.49014
1.44415
1.40034
1.35865
1.31899
1.28129
1.24544
1.21136
1.17896
1.14815
1.11883
1.09091
1.06431
1.03894
1.01472
0.991562
0.969396
0.948148
0.927751
0.90814
0.889257
0.871045
0.853455
0.836439
0.819957
0.803969
0.788442
0.773345
0.758653
0.744342
0.73039
0.716782
0.703501
0.690535
0.677871
0.665502
0.653418
0.64161
0.630067
0.618773
0.607732
0.596943
0.586406
0.57612
0.566083
0.556295
0.546752
0.537454
0.528395
0.519574
0.510987
0.502629
0.494496
0.486584
0.478888
0.471404
0.464126
0.457051
0.450173
0.443492
0.437057
0.431348
0.172959
0.334969
0.429011
0.50445
0.575003
0.645161
0.716626
0.790003
0.865456
0.942985
1.02254
1.10404
1.18743
1.2726
1.35947
1.44791
1.53781
1.62906
1.72153
1.81509
1.90965
2.00511
2.10137
2.19838
2.29607
2.39441
2.49338
2.59296
2.69316
2.79397
2.89542
2.9975
3.10022
3.20356
3.30749
3.41196
3.51688
3.62216
3.72766
3.83322
3.93862
4.04365
4.14804
4.25143
4.35334
4.45342
4.55135
4.64678
4.73937
4.82881
4.91478
4.99694
5.07506
5.14889
5.21826
5.28302
5.34305
5.39827
5.44881
5.49471
5.53596
5.57259
5.60467
5.63232
5.65566
5.67484
5.69003
5.70141
5.70914
5.7134
5.71435
5.71216
5.70698
5.69895
5.6882
5.67483
5.65896
5.64066
5.62
5.59703
5.57179
5.54429
5.51453
5.48251
5.44819
5.41156
5.37255
5.33113
5.28726
5.24091
5.19193
5.13979
5.08466
5.02676
4.96618
4.90298
4.83718
4.76873
4.69765
4.62419
4.5483
4.46998
4.38925
4.30614
4.22062
4.133
4.04341
3.95193
3.85867
3.7638
3.66764
3.57038
3.47226
3.37354
3.27454
3.17553
3.07682
2.9787
2.88146
2.7854
2.69079
2.59788
2.50691
2.41811
2.33167
2.24775
2.16649
2.088
2.01236
1.93962
1.86979
1.80286
1.7388
1.67758
1.61915
1.56347
1.51048
1.46012
1.41233
1.36701
1.32408
1.28345
1.24501
1.20868
1.17434
1.14189
1.11122
1.08222
1.05479
1.02883
1.00424
0.980923
0.958777
0.937718
0.917658
0.898517
0.880217
0.862686
0.845858
0.829669
0.814063
0.798987
0.784394
0.770242
0.756491
0.743109
0.730066
0.717337
0.704899
0.692735
0.680828
0.669165
0.657734
0.646527
0.635532
0.624736
0.614117
0.603691
0.593458
0.583423
0.573586
0.563948
0.554511
0.545276
0.536243
0.527412
0.518783
0.510356
0.502127
0.494097
0.486263
0.478622
0.471173
0.463912
0.456837
0.449945
0.443234
0.436704
0.430406
0.424805
0.175729
0.340405
0.436006
0.512562
0.583827
0.654383
0.726048
0.799541
0.875125
0.95287
1.03277
1.1148
1.19888
1.28496
1.37293
1.4627
1.55416
1.64718
1.74165
1.83745
1.93447
2.0326
2.13176
2.23187
2.33288
2.43474
2.53743
2.64094
2.74526
2.85041
2.95641
3.06326
3.17098
3.27956
3.38898
3.49919
3.61011
3.72165
3.83367
3.94602
4.05849
4.17084
4.28276
4.39372
4.50337
4.61134
4.71726
4.82076
4.92149
5.01906
5.11315
5.20332
5.28929
5.3708
5.44762
5.51957
5.5865
5.64828
5.70486
5.75637
5.80288
5.84437
5.88086
5.91245
5.93926
5.96142
5.97911
5.99248
6.00171
6.00698
6.00846
6.00631
6.0007
5.99177
5.97967
5.96452
5.94642
5.92548
5.90177
5.87535
5.84627
5.81456
5.78021
5.74323
5.7036
5.66127
5.6162
5.56834
5.51768
5.46414
5.40743
5.34721
5.28377
5.21726
5.1478
5.07544
5.00021
4.92213
4.84126
4.75773
4.67158
4.58284
4.49157
4.39787
4.30183
4.20366
4.10354
4.00164
3.89815
3.79332
3.68742
3.58072
3.47352
3.36612
3.25883
3.15197
3.04586
2.9408
2.83709
2.73502
2.63487
2.53689
2.44129
2.3483
2.25809
2.17082
2.0866
2.00554
1.92769
1.85309
1.78174
1.71363
1.64872
1.58695
1.52828
1.47263
1.41992
1.37008
1.32301
1.27861
1.23678
1.19741
1.16038
1.12558
1.09289
1.06218
1.03335
1.00627
0.980822
0.956903
0.934397
0.913199
0.893205
0.874316
0.856439
0.839483
0.823364
0.808004
0.793327
0.779265
0.765754
0.752736
0.740158
0.727973
0.716138
0.704615
0.693372
0.682381
0.671616
0.661059
0.65069
0.640496
0.630464
0.62058
0.610827
0.601173
0.591647
0.582252
0.572991
0.563868
0.554886
0.54605
0.537363
0.528827
0.520447
0.512223
0.504159
0.496255
0.488514
0.480935
0.473519
0.466267
0.459177
0.452249
0.445482
0.438877
0.432431
0.426149
0.42008
0.414666
0.177524
0.343504
0.440142
0.517393
0.589025
0.659676
0.731248
0.804555
0.879941
0.957544
1.03741
1.11953
1.20388
1.2904
1.37901
1.46964
1.56217
1.65649
1.7525
1.85007
1.94909
2.04946
2.15109
2.25388
2.35779
2.46276
2.56877
2.6758
2.78385
2.89293
3.00306
3.11425
3.22652
3.33988
3.45432
3.56978
3.68618
3.80345
3.92145
4.04002
4.15897
4.27802
4.39672
4.51468
4.63147
4.74674
4.86009
4.97112
5.07943
5.18464
5.28642
5.38416
5.47759
5.5664
5.65034
5.72918
5.80273
5.87084
5.93342
5.99039
6.04194
6.08811
6.12889
6.16434
6.19455
6.21966
6.23981
6.25517
6.2659
6.27218
6.27419
6.27209
6.26605
6.25623
6.24277
6.22581
6.20547
6.18185
6.15505
6.12512
6.09214
6.05613
6.0171
5.97506
5.92998
5.88183
5.83057
5.77615
5.71855
5.65765
5.59303
5.52469
5.45287
5.37772
5.29935
5.21783
5.13322
5.04557
4.95496
4.86151
4.76529
4.66638
4.56489
4.46097
4.35478
4.24654
4.13645
4.02474
3.91168
3.79756
3.68266
3.56731
3.45182
3.33654
3.22179
3.1079
2.99521
2.88403
2.77465
2.66738
2.56246
2.46016
2.36067
2.26421
2.17094
2.08098
1.99445
1.91143
1.83197
1.75608
1.68376
1.61498
1.54968
1.4878
1.42926
1.37399
1.32187
1.27282
1.22672
1.18345
1.1429
1.10492
1.06941
1.03623
1.00524
0.976327
0.94935
0.924186
0.900711
0.878805
0.858349
0.839231
0.821341
0.804574
0.788829
0.774013
0.760034
0.746807
0.734253
0.722297
0.710871
0.69991
0.689358
0.679161
0.669273
0.659652
0.65026
0.641068
0.632046
0.623173
0.614427
0.605792
0.597249
0.588774
0.580325
0.57194
0.563622
0.555375
0.547204
0.539112
0.531106
0.52319
0.51537
0.50765
0.500036
0.492533
0.485144
0.477875
0.470727
0.463704
0.456809
0.450044
0.44341
0.43691
0.430545
0.424315
0.418224
0.412274
0.406515
0.40136
0.178381
0.344642
0.44185
0.519432
0.591125
0.661601
0.732822
0.805677
0.880581
0.95773
1.03722
1.11908
1.20331
1.28987
1.37873
1.46979
1.56299
1.6582
1.75534
1.85429
1.95493
2.05717
2.1609
2.26603
2.3725
2.48024
2.58923
2.69944
2.81087
2.92351
3.03739
3.15252
3.26892
3.38661
3.5056
3.62581
3.74717
3.86959
3.99295
4.11711
4.24184
4.36673
4.49154
4.61584
4.73909
4.86096
4.98105
5.09894
5.21419
5.32638
5.43508
5.53979
5.64014
5.73578
5.82641
5.91175
5.99158
6.06572
6.13404
6.19643
6.25284
6.3035
6.34841
6.38759
6.42111
6.44909
6.47165
6.48896
6.50117
6.50846
6.511
6.50897
6.50252
6.49182
6.47703
6.45828
6.4357
6.4094
6.37949
6.34605
6.30914
6.26879
6.22504
6.17789
6.12733
6.07331
6.01579
5.95475
5.89016
5.82178
5.74928
5.67286
5.59272
5.50901
5.42185
5.33132
5.2375
5.14048
5.04037
4.9373
4.83136
4.72269
4.61146
4.49784
4.38206
4.26435
4.14497
4.02419
3.90233
3.77971
3.65664
3.53348
3.41057
3.28828
3.16694
3.04691
2.92851
2.81206
2.69787
2.58621
2.47735
2.37152
2.26892
2.16974
2.07412
1.98219
1.89403
1.80971
1.72925
1.65267
1.57992
1.51098
1.44577
1.38421
1.32621
1.27166
1.22044
1.17245
1.12754
1.08559
1.04646
1.01001
0.976091
0.944574
0.915314
0.888173
0.863015
0.839706
0.818117
0.798123
0.779601
0.762433
0.746509
0.731718
0.717958
0.705131
0.693143
0.681906
0.671336
0.661356
0.651893
0.642879
0.634253
0.625959
0.617945
0.610165
0.602579
0.595152
0.587852
0.580654
0.573532
0.566464
0.559417
0.552336
0.54526
0.538198
0.531149
0.524117
0.517105
0.510119
0.503164
0.496248
0.489375
0.482553
0.475789
0.46909
0.46246
0.455907
0.449435
0.443051
0.436757
0.43056
0.424462
0.418467
0.412579
0.406801
0.401137
0.395591
0.390212
0.385378
0.178359
0.344132
0.441513
0.519113
0.590603
0.660668
0.731314
0.80349
0.87767
0.954105
1.03293
1.11424
1.19804
1.28433
1.37309
1.46426
1.55778
1.65357
1.75152
1.85154
1.95351
2.05735
2.16292
2.27012
2.37889
2.48915
2.60086
2.71399
2.82851
2.94441
3.06172
3.18043
3.30057
3.42216
3.54524
3.66972
3.79546
3.92241
4.05048
4.17949
4.3091
4.43904
4.56902
4.69863
4.82744
4.95506
5.08105
5.20499
5.3264
5.44483
5.55981
5.67084
5.77751
5.87943
5.97624
6.06763
6.15333
6.23312
6.30684
6.37436
6.43559
6.49051
6.53935
6.58209
6.61879
6.64953
6.67443
6.69364
6.7073
6.71558
6.71866
6.71669
6.70986
6.69831
6.68222
6.66171
6.63693
6.60799
6.57501
6.53807
6.49725
6.4526
6.40415
6.35191
6.29586
6.23599
6.17224
6.10461
6.03301
5.95715
5.87694
5.7926
5.70432
5.61225
5.51652
5.41724
5.31452
5.20848
5.09925
4.98699
4.87183
4.75395
4.63355
4.51088
4.38619
4.25975
4.13185
4.00281
3.87299
3.74272
3.61237
3.4823
3.35289
3.22449
3.09748
2.97219
2.84898
2.72815
2.61001
2.49482
2.38285
2.2743
2.16938
2.06825
1.97103
1.87784
1.78874
1.70378
1.62296
1.54626
1.47366
1.40508
1.34044
1.27964
1.22257
1.1691
1.1191
1.07243
1.02895
0.988504
0.950945
0.916119
0.883874
0.85406
0.826528
0.801132
0.777731
0.756187
0.736368
0.718145
0.701396
0.686
0.671846
0.658825
0.646834
0.635774
0.625551
0.616078
0.607269
0.599045
0.591334
0.584065
0.577174
0.570602
0.564295
0.558205
0.552287
0.546502
0.540816
0.535198
0.529618
0.524038
0.518388
0.512698
0.506982
0.501236
0.495459
0.489652
0.483818
0.477963
0.472091
0.46621
0.460326
0.454447
0.44858
0.442734
0.436916
0.431134
0.425394
0.419704
0.41407
0.408498
0.402993
0.397562
0.392209
0.38694
0.38176
0.376674
0.371729
0.367267
0.177551
0.342239
0.439464
0.516822
0.587886
0.657341
0.727225
0.798539
0.871806
0.947321
1.02528
1.10579
1.18895
1.27473
1.36315
1.4542
1.54782
1.64395
1.7425
1.84339
1.94651
2.05177
2.15904
2.26817
2.37909
2.49172
2.606
2.72187
2.83929
2.95825
3.07872
3.20071
3.32423
3.44928
3.57587
3.70391
3.83334
3.96408
4.09601
4.22888
4.36246
4.4965
4.63071
4.76471
4.89812
5.03052
5.16148
5.29056
5.41725
5.54109
5.66157
5.77819
5.8905
5.99804
6.10045
6.19734
6.28843
6.37344
6.45217
6.52447
6.59022
6.64934
6.70187
6.74799
6.7877
6.82108
6.84821
6.86924
6.8843
6.89355
6.89716
6.89528
6.88808
6.87573
6.85838
6.83617
6.80924
6.77773
6.74174
6.70138
6.65672
6.60783
6.55475
6.49749
6.43604
6.37039
6.30051
6.22639
6.14788
6.0647
5.97701
5.885
5.78886
5.68874
5.58479
5.47714
5.36594
5.25133
5.13347
5.01256
4.88877
4.76232
4.63346
4.50246
4.36962
4.23525
4.09967
3.96324
3.82634
3.68933
3.55261
3.41656
3.28156
3.14799
3.01621
2.8866
2.75947
2.63515
2.51393
2.39607
2.28181
2.17137
2.06491
1.96259
1.86451
1.77077
1.68141
1.59645
1.51588
1.43968
1.36776
1.30006
1.23647
1.17686
1.12111
1.06908
1.02061
0.975541
0.933716
0.894971
0.859139
0.826056
0.79556
0.767491
0.741693
0.718015
0.696312
0.676443
0.658274
0.641677
0.626528
0.612711
0.600114
0.588631
0.578163
0.568612
0.559889
0.551906
0.544582
0.537841
0.531608
0.525815
0.520398
0.515298
0.510458
0.50583
0.501365
0.497024
0.492768
0.48856
0.48436
0.480089
0.475748
0.471365
0.466928
0.462431
0.45787
0.453244
0.448555
0.443806
0.439001
0.434146
0.429249
0.424317
0.419357
0.41438
0.409393
0.404404
0.399422
0.394455
0.389511
0.384598
0.379722
0.374891
0.37011
0.365388
0.360729
0.356143
0.35167
0.347617
0.17606
0.339197
0.435991
0.512897
0.583356
0.652045
0.721024
0.791344
0.863572
0.938028
1.01496
1.09456
1.17696
1.2621
1.35006
1.44085
1.53447
1.63086
1.72994
1.83163
1.93584
2.04244
2.15131
2.26231
2.37533
2.49027
2.60704
2.72556
2.84575
2.96756
3.09096
3.21593
3.34244
3.47048
3.60003
3.73103
3.86341
3.99709
4.1319
4.26766
4.40421
4.5413
4.67868
4.816
4.95292
5.08903
5.2239
5.35707
5.48807
5.61637
5.74147
5.86284
5.97999
6.09245
6.19978
6.30158
6.3975
6.48724
6.57054
6.64723
6.71715
6.78021
6.83632
6.88559
6.92814
6.964
6.99326
7.01602
7.03243
7.04261
7.04673
7.04495
7.03743
7.02432
7.00577
6.98193
6.95295
6.91895
6.88006
6.83638
6.78799
6.73498
6.67739
6.61524
6.54853
6.47726
6.40141
6.32095
6.23567
6.1455
6.05065
5.95131
5.84768
5.73991
5.62817
5.51263
5.39345
5.27081
5.14493
5.016
4.88426
4.74996
4.61338
4.47484
4.33467
4.19321
4.05082
3.9079
3.76482
3.622
3.47984
3.33873
3.19907
3.06125
2.92564
2.79259
2.66244
2.5355
2.41206
2.29236
2.17663
2.06508
1.95785
1.85508
1.75685
1.66324
1.57428
1.48995
1.41023
1.33507
1.26437
1.19804
1.13595
1.07795
1.02391
0.973655
0.927014
0.883814
0.843876
0.807023
0.773076
0.741858
0.713198
0.686927
0.662884
0.640914
0.620866
0.602601
0.585981
0.570881
0.55718
0.544763
0.533522
0.523357
0.514172
0.505875
0.498381
0.491609
0.485481
0.479926
0.474873
0.470257
0.466018
0.462096
0.458439
0.454995
0.451718
0.448566
0.445497
0.442468
0.439409
0.436265
0.433088
0.429859
0.426565
0.423194
0.41974
0.4162
0.41257
0.408854
0.405053
0.401172
0.397218
0.393197
0.389117
0.384988
0.380816
0.376612
0.372383
0.36814
0.36389
0.359643
0.355405
0.351187
0.346994
0.342834
0.338716
0.334648
0.330668
0.327045
0.174013
0.335213
0.431353
0.507643
0.577361
0.645185
0.713162
0.782423
0.853571
0.92691
1.00277
1.08137
1.16287
1.24732
1.3348
1.42536
1.51901
1.6157
1.71538
1.81796
1.92335
2.0314
2.142
2.25497
2.37019
2.48752
2.60683
2.72799
2.8509
2.97546
3.1016
3.22926
3.35839
3.48894
3.62086
3.75411
3.88861
4.02424
4.16089
4.29847
4.43684
4.5758
4.71514
4.85456
4.99375
5.13234
5.26991
5.40602
5.54019
5.6719
5.80061
5.9258
6.04693
6.16349
6.27501
6.38104
6.48119
6.57512
6.66252
6.74317
6.81687
6.88352
6.94302
6.9953
7.04051
7.07871
7.10997
7.13438
7.15207
7.16315
7.16779
7.16613
7.15831
7.1445
7.12484
7.09948
7.06855
7.03218
6.99052
6.94366
6.8917
6.83472
6.77279
6.70594
6.63416
6.55747
6.47589
6.3893
6.29754
6.20076
6.09915
5.9929
5.88221
5.76727
5.64826
5.52537
5.3988
5.26876
5.1355
4.99925
4.86028
4.7189
4.5754
4.43015
4.2835
4.13582
3.98752
3.839
3.69067
3.54296
3.39627
3.25102
3.10762
2.96645
2.82789
2.6923
2.55999
2.43128
2.30643
2.1857
2.06928
1.95737
1.85009
1.74757
1.64987
1.55703
1.46907
1.38596
1.30764
1.23403
1.16504
1.10053
1.04036
0.984361
0.932372
0.884206
0.839676
0.798589
0.760753
0.725973
0.694059
0.664825
0.638089
0.613677
0.591421
0.571161
0.552747
0.536035
0.520892
0.507191
0.494815
0.483654
0.473604
0.464569
0.456461