/*--------------------------------*- C++ -*----------------------------------*\
  =========                 |
  \\      /  F ield         | OpenFOAM: The Open Source CFD Toolbox
   \\    /   O peration     | Website:  https://openfoam.org
    \\  /    A nd           | Version:  7
     \\/     M anipulation  |
\*---------------------------------------------------------------------------*/
FoamFile
{
    version     2.0;
    format      ascii;
    class       volScalarField;
    location    "350";
    object      nut;
}
// * * * * * * * * * * * * * * * * * * * * * * * * * * * * * * * * * * * * * //

dimensions      [0 2 -1 0 0 0 0];

internalField   nonuniform List<scalar> 
16900
(
8.83258e-05
0.00014292
0.000174782
0.000193835
0.000204541
4.57361e-05
0.000257543
5.08673e-05
5.39428e-05
5.7293e-05
6.04949e-05
6.35424e-05
6.64529e-05
6.92379e-05
7.19094e-05
7.44772e-05
7.69494e-05
7.93342e-05
8.16372e-05
8.3865e-05
8.60216e-05
8.81123e-05
9.01396e-05
9.21075e-05
9.40177e-05
9.58731e-05
9.76746e-05
9.94237e-05
0.000101121
0.000102767
0.000104361
0.000105903
0.000107393
0.000108829
0.00011021
0.000111535
0.000112803
0.000114012
0.000115159
0.000116245
0.000117266
0.000118223
0.000119112
0.000119934
0.000120688
0.000121373
0.000121989
0.000122537
0.000123018
0.000123433
0.000123783
0.000124072
0.000124303
0.000124479
0.000124604
0.000124682
0.000124719
0.000124719
0.000124689
0.000124633
0.000124558
0.000124469
0.000124372
0.000124272
0.000124175
0.000124086
0.000124008
0.000123946
0.000123903
0.000123882
0.000123883
0.000123909
0.00012396
0.000124035
0.000124133
0.000124253
0.000124393
0.000124551
0.000124724
0.000124908
0.0001251
0.000125297
0.000125495
0.000125691
0.000125881
0.000126062
0.000126231
0.000126384
0.00012652
0.000126636
0.00012673
0.000126802
0.000126853
0.000126884
0.0001269
0.000126949
0.000126959
0.000126929
0.000126858
0.000126744
0.000126586
0.000126383
0.000126133
0.000125836
0.00012549
0.000125096
0.000124652
0.000124158
0.000123613
0.000123019
0.000122374
0.00012168
0.000120935
0.000120142
0.000119299
0.000118409
0.000117471
0.000116487
0.000115458
0.000114384
0.000113264
0.000112102
0.000110896
0.000109651
0.000108366
0.000107038
0.000105682
0.000104259
0.000102741
0.000101383
9.97051e-05
9.86225e-05
9.78982e-05
9.7222e-05
9.65566e-05
9.58935e-05
9.523e-05
9.45651e-05
9.38987e-05
9.32312e-05
9.25629e-05
9.18946e-05
9.12269e-05
9.05607e-05
8.98964e-05
8.9235e-05
8.85768e-05
8.79224e-05
8.72725e-05
8.66273e-05
8.59872e-05
8.53527e-05
8.47239e-05
8.41011e-05
8.34846e-05
8.28744e-05
8.22709e-05
8.1674e-05
8.1084e-05
8.05009e-05
7.99248e-05
7.9356e-05
7.87944e-05
7.82402e-05
7.76935e-05
7.71545e-05
7.66233e-05
7.61e-05
7.55848e-05
7.50779e-05
7.45794e-05
7.40896e-05
7.36086e-05
7.31366e-05
7.26739e-05
7.22206e-05
7.1777e-05
7.13427e-05
7.09211e-05
7.0511e-05
7.01118e-05
6.97231e-05
6.93448e-05
6.89767e-05
6.86187e-05
6.82709e-05
6.79333e-05
6.76059e-05
6.72887e-05
6.69816e-05
6.66848e-05
6.63979e-05
6.61211e-05
6.58539e-05
6.55964e-05
6.53481e-05
6.51089e-05
6.48784e-05
6.46565e-05
6.44454e-05
0.0001211
0.000214594
0.000256422
0.000263776
0.000250911
0.000238529
0.000292011
0.000285494
0.000307861
0.000332913
0.000358177
0.000383267
0.000408053
0.000432463
0.000456451
0.000479992
0.000503071
0.000525686
0.000547843
0.000569555
0.000590841
0.000611721
0.000632221
0.000652363
0.000672172
0.000691671
0.000710876
0.000729805
0.000748469
0.000766872
0.000785016
0.000802893
0.000820492
0.000837793
0.000854771
0.000871394
0.000887626
0.000903422
0.000918737
0.000933518
0.000947713
0.000961264
0.000974115
0.00098621
0.000997495
0.00100792
0.00101743
0.00102599
0.00103356
0.00104012
0.00104564
0.00105013
0.00105357
0.00105598
0.00105739
0.00105782
0.00105732
0.00105595
0.00105375
0.0010508
0.00104717
0.00104294
0.0010382
0.00103302
0.00102749
0.00102171
0.00101575
0.0010097
0.00100365
0.000997662
0.000991812
0.000986163
0.000980771
0.000975685
0.000970948
0.000966593
0.000962647
0.000959128
0.00095605
0.000953418
0.000951231
0.000949484
0.000948163
0.000947253
0.000946732
0.00094657
0.000946735
0.000947187
0.000947879
0.000948756
0.000949752
0.000950782
0.000951741
0.000952503
0.000952883
0.000952371
0.000951808
0.000951248
0.000950674
0.000950064
0.000949393
0.000948638
0.000947775
0.000946781
0.000945631
0.000944303
0.000942773
0.000941022
0.000939032
0.000936784
0.000934258
0.00093144
0.000928319
0.00092488
0.000921109
0.000917002
0.000912548
0.000907735
0.000902566
0.000897028
0.000891114
0.000884828
0.000878153
0.000871097
0.000863675
0.000855816
0.00084769
0.000839046
0.000829586
0.000819647
0.000807976
0.000794177
0.000779615
0.000764782
0.00074988
0.000735002
0.000720196
0.000705496
0.000690926
0.000676505
0.000662251
0.000648178
0.000634299
0.000620628
0.000607174
0.000593948
0.000580957
0.000568209
0.000555711
0.000543468
0.000531486
0.000519768
0.000508318
0.000497138
0.000486231
0.0004756
0.000465244
0.000455165
0.000445363
0.000435838
0.00042659
0.000417617
0.000408918
0.000400492
0.000392335
0.000384447
0.000376822
0.000369459
0.000362354
0.000355501
0.000348898
0.000342538
0.000336417
0.00033053
0.00032487
0.000319431
0.000314208
0.000309172
0.000304262
0.000299516
0.000294961
0.000290592
0.000286404
0.000282393
0.000278553
0.000274877
0.00027136
0.000267994
0.000264772
0.000261687
0.000258731
0.000255898
0.000253179
0.000250568
0.000248058
0.000245641
0.000243312
0.000241067
0.000238912
0.000236964
0.000159621
0.00027789
0.00034745
0.00038395
0.00040921
0.000441472
0.000489187
0.000529211
0.000576871
0.000626447
0.000676306
0.000725942
0.000775114
0.000823672
0.000871513
0.000918569
0.000964796
0.00101017
0.00105469
0.00109837
0.00114121
0.00118326
0.00122453
0.00126507
0.00130491
0.00134408
0.0013826
0.0014205
0.00145779
0.00149448
0.00153056
0.00156601
0.00160082
0.00163495
0.00166834
0.00170094
0.00173269
0.00176351
0.0017933
0.001822
0.00184949
0.00187569
0.0019005
0.00192383
0.00194557
0.00196566
0.00198401
0.00200055
0.00201523
0.00202801
0.00203887
0.0020478
0.0020548
0.00205991
0.00206317
0.00206466
0.00206443
0.0020626
0.00205926
0.00205455
0.00204858
0.00204149
0.00203344
0.00202456
0.00201502
0.00200495
0.00199451
0.00198384
0.00197307
0.00196233
0.00195172
0.00194137
0.00193134
0.00192172
0.00191257
0.00190393
0.00189583
0.00188831
0.00188134
0.00187495
0.00186909
0.00186375
0.00185889
0.00185446
0.0018504
0.00184666
0.00184316
0.00183983
0.00183659
0.00183334
0.00183
0.00182646
0.00182262
0.00181839
0.00181304
0.00180707
0.00180086
0.00179444
0.00178778
0.00178087
0.00177365
0.0017661
0.0017582
0.0017499
0.00174119
0.00173204
0.00172243
0.00171232
0.00170172
0.0016906
0.00167895
0.00166676
0.00165402
0.00164074
0.0016269
0.0016125
0.00159756
0.00158205
0.00156601
0.00154943
0.0015323
0.00151464
0.00149648
0.00147777
0.00145867
0.00143902
0.00141905
0.00139887
0.00137835
0.00135743
0.00133567
0.00131284
0.00128944
0.00126585
0.00124229
0.00121886
0.00119564
0.00117268
0.00115
0.00112762
0.00110558
0.00108388
0.00106253
0.00104154
0.00102093
0.0010007
0.000980856
0.000961397
0.000942327
0.00092365
0.000905365
0.000887474
0.000869974
0.000852867
0.000836151
0.000819823
0.000803884
0.00078833
0.00077316
0.000758373
0.000743965
0.000729934
0.000716279
0.000702996
0.000690083
0.000677536
0.000665353
0.000653531
0.000642065
0.000630951
0.000620185
0.000609763
0.000599679
0.000589927
0.000580503
0.0005714
0.000562611
0.000554127
0.000545926
0.000537971
0.000530254
0.000522809
0.000515631
0.000508717
0.00050206
0.000495652
0.000489486
0.000483554
0.000477846
0.000472352
0.000467063
0.000461968
0.000457057
0.00045232
0.000447745
0.000443322
0.000439042
0.000434897
0.000430906
0.000427354
0.000183525
0.000314791
0.000430716
0.000503166
0.000559212
0.000616956
0.000680366
0.000745402
0.000813732
0.000883351
0.000953184
0.0010227
0.0010916
0.00115966
0.00122674
0.00129273
0.00135758
0.00142123
0.00148366
0.00154489
0.00160491
0.00166376
0.00172145
0.00177803
0.00183353
0.00188798
0.00194142
0.00199385
0.00204531
0.00209579
0.00214529
0.00219379
0.00224127
0.00228767
0.00233294
0.00237703
0.00241984
0.00246129
0.00250129
0.00253973
0.0025765
0.0026115
0.00264461
0.00267573
0.00270475
0.00273158
0.00275613
0.00277833
0.00279811
0.00281544
0.0028303
0.00284266
0.00285257
0.00286005
0.00286517
0.00286801
0.00286867
0.00286725
0.00286389
0.00285873
0.00285194
0.00284366
0.00283409
0.00282338
0.00281172
0.00279928
0.00278624
0.00277275
0.00275898
0.00274505
0.00273111
0.00271726
0.00270361
0.00269023
0.00267718
0.00266452
0.00265227
0.00264044
0.00262903
0.00261802
0.00260739
0.00259708
0.00258705
0.00257724
0.00256758
0.002558
0.00254842
0.00253876
0.00252893
0.00251885
0.00250844
0.00249761
0.00248627
0.00247427
0.00246117
0.00244749
0.00243341
0.00241893
0.00240404
0.00238872
0.00237293
0.00235666
0.00233987
0.00232255
0.00230469
0.00228626
0.00226726
0.00224767
0.00222749
0.00220672
0.00218535
0.00216338
0.00214084
0.00211771
0.00209401
0.00206974
0.00204493
0.00201957
0.00199369
0.0019673
0.00194042
0.001913
0.00188523
0.00185686
0.00182829
0.00179961
0.00177095
0.00174235
0.0017138
0.00168526
0.00165654
0.00162756
0.00159849
0.00156951
0.00154078
0.0015124
0.00148442
0.00145688
0.00142982
0.00140326
0.0013772
0.00135166
0.00132663
0.00130213
0.00127814
0.00125468
0.00123173
0.0012093
0.00118737
0.00116594
0.00114499
0.00112454
0.00110456
0.00108505
0.001066
0.0010474
0.00102924
0.00101153
0.000994243
0.000977382
0.000960939
0.000944908
0.000929284
0.00091406
0.000899233
0.000884798
0.00087075
0.000857084
0.000843796
0.000830882
0.000818337
0.000806157
0.000794337
0.000782872
0.000771758
0.000760988
0.000750557
0.000740459
0.000730685
0.000721221
0.000712037
0.00070314
0.000694531
0.000686205
0.000678158
0.000670384
0.000662875
0.000655625
0.000648624
0.000641865
0.000635336
0.000629029
0.000622933
0.000617035
0.000611326
0.000605794
0.000600427
0.00059522
0.000590204
0.000585832
3.55256e-05
0.000261408
0.000488413
0.000609154
0.000693942
0.000772485
0.000852638
0.000935028
0.00101949
0.00110489
0.00119041
0.0012755
0.00135981
0.00144309
0.00152515
0.00160586
0.00168513
0.0017629
0.00183913
0.00191382
0.00198697
0.0020586
0.00212872
0.00219737
0.00226459
0.00233041
0.00239486
0.00245797
0.00251975
0.00258022
0.00263939
0.00269722
0.00275371
0.00280881
0.00286248
0.00291465
0.00296524
0.00301418
0.00306137
0.00310671
0.00315009
0.00319139
0.00323052
0.00326736
0.0033018
0.00333375
0.00336312
0.00338983
0.00341382
0.00343503
0.00345343
0.00346902
0.00348181
0.00349186
0.00349923
0.00350398
0.00350624
0.00350609
0.00350369
0.00349918
0.00349272
0.00348448
0.00347464
0.00346337
0.00345085
0.00343728
0.00342282
0.00340763
0.00339189
0.00337572
0.00335927
0.00334264
0.00332594
0.00330925
0.00329262
0.00327611
0.00325974
0.00324352
0.00322744
0.00321149
0.00319563
0.00317982
0.00316401
0.00314814
0.00313214
0.00311595
0.0030995
0.00308271
0.00306551
0.00304784
0.00302962
0.0030108
0.00299132
0.00297084
0.00294943
0.00292738
0.0029048
0.00288169
0.00285806
0.00283389
0.00280916
0.00278386
0.00275797
0.00273149
0.00270443
0.00267677
0.00264851
0.00261966
0.00259022
0.00256021
0.00252964
0.00249851
0.00246685
0.00243467
0.00240199
0.00236882
0.00233519
0.00230113
0.0022666
0.0022317
0.00219646
0.00216064
0.00212481
0.0020889
0.00205311
0.00201754
0.00198229
0.00194743
0.00191299
0.00187897
0.00184527
0.00181187
0.00177879
0.00174614
0.00171401
0.00168246
0.00165155
0.0016213
0.00159173
0.00156284
0.00153466
0.00150716
0.00148036
0.00145423
0.00142877
0.00140396
0.0013798
0.00135627
0.00133334
0.00131102
0.00128926
0.00126807
0.00124743
0.00122731
0.0012077
0.00118859
0.00116996
0.0011518
0.00113409
0.00111683
0.00109999
0.00108357
0.00106757
0.00105196
0.00103675
0.00102192
0.00100747
0.000993397
0.000979689
0.000966342
0.000953352
0.000940714
0.000928424
0.000916476
0.000904867
0.000893591
0.000882645
0.000872024
0.000861722
0.000851734
0.000842048
0.000832647
0.000823525
0.00081468
0.000806109
0.000797807
0.000789768
0.000781986
0.000774455
0.000767165
0.00076011
0.000753279
0.000746663
0.000740253
0.000734037
0.000728004
0.000722144
0.000716452
0.000710978
0.000706304
3.53365e-05
0.00029353
0.000548526
0.000702737
0.000812619
0.000909483
0.00100444
0.00110037
0.00119755
0.00129533
0.00139307
0.00149023
0.00158646
0.00168146
0.00177503
0.00186701
0.00195729
0.00204581
0.00213251
0.00221736
0.00230038
0.00238156
0.00246093
0.00253853
0.00261438
0.00268853
0.00276101
0.00283185
0.0029011
0.00296876
0.00303486
0.00309938
0.00316233
0.00322367
0.00328337
0.00334139
0.00339766
0.00345211
0.00350466
0.00355521
0.00360366
0.00364992
0.00369388
0.00373541
0.00377443
0.00381083
0.00384452
0.00387541
0.00390344
0.00392851
0.00395057
0.0039696
0.00398562
0.0039987
0.00400887
0.0040162
0.00402078
0.0040227
0.00402209
0.00401909
0.00401386
0.00400654
0.00399733
0.00398638
0.00397387
0.00395999
0.00394489
0.00392875
0.00391171
0.00389393
0.00387552
0.00385661
0.00383729
0.00381764
0.00379772
0.00377759
0.00375726
0.00373676
0.00371607
0.0036952
0.0036741
0.00365274
0.00363108
0.00360906
0.00358664
0.00356375
0.00354034
0.00351634
0.00349171
0.00346639
0.00344034
0.00341349
0.0033858
0.00335692
0.00332716
0.0032967
0.0032656
0.00323388
0.00320155
0.00316861
0.00313505
0.00310087
0.00306608
0.00303066
0.00299465
0.00295806
0.0029209
0.00288316
0.00284488
0.00280608
0.00276679
0.00272702
0.00268678
0.00264612
0.00260509
0.00256365
0.00252184
0.00247979
0.00243731
0.00239458
0.00235192
0.00230922
0.00226676
0.0022246
0.0021829
0.00214175
0.00210125
0.00206147
0.00202247
0.00198425
0.00194677
0.00190999
0.00187393
0.00183861
0.0018041
0.00177042
0.00173762
0.00170571
0.0016747
0.00164458
0.00161534
0.00158698
0.00155948
0.00153281
0.00150696
0.0014819
0.0014576
0.00143405
0.0014112
0.00138904
0.00136754
0.00134666
0.00132639
0.0013067
0.00128756
0.00126894
0.00125084
0.00123321
0.00121605
0.00119934
0.00118305
0.00116718
0.0011517
0.00113661
0.00112189
0.00110754
0.00109353
0.00107988
0.00106656
0.00105357
0.0010409
0.00102856
0.00101653
0.00100481
0.000993403
0.000982297
0.00097149
0.00096098
0.000950763
0.000940837
0.000931201
0.000921824
0.000912707
0.000903847
0.000895242
0.000886889
0.000878784
0.000870921
0.000863295
0.000855901
0.00084873
0.000841775
0.000835029
0.000828482
0.000822126
0.000815949
0.000809944
0.000804108
0.000798508
0.000793815
3.56888e-05
0.000315408
0.000600461
0.00078378
0.000915744
0.00102883
0.00113656
0.00124353
0.00135082
0.00145827
0.00156542
0.00167183
0.00177712
0.001881
0.00198324
0.00208369
0.00218221
0.00227873
0.00237318
0.00246554
0.0025558
0.00264397
0.00273008
0.00281415
0.00289622
0.00297635
0.00305458
0.00313096
0.00320552
0.00327831
0.00334936
0.00341868
0.00348629
0.00355217
0.00361633
0.00367872
0.00373931
0.00379804
0.00385484
0.00390964
0.00396234
0.00401284
0.00406105
0.00410686
0.00415015
0.00419083
0.00422879
0.00426394
0.00429614
0.0043253
0.00435138
0.00437433
0.00439414
0.00441078
0.00442436
0.0044349
0.00444247
0.00444715
0.00444905
0.00444827
0.00444497
0.00443928
0.00443137
0.00442141
0.00440955
0.00439596
0.00438082
0.00436426
0.00434646
0.00432753
0.00430762
0.00428683
0.00426526
0.00424299
0.0042201
0.00419662
0.0041726
0.00414806
0.00412299
0.0040974
0.00407125
0.00404454
0.00401722
0.00398925
0.00396059
0.0039312
0.00390103
0.00387004
0.00383819
0.00380543
0.00377174
0.00373707
0.0037013
0.00366433
0.00362643
0.00358775
0.00354833
0.0035082
0.00346738
0.0034259
0.00338376
0.00334097
0.00329753
0.00325346
0.00320879
0.00316356
0.0031178
0.00307151
0.0030247
0.00297743
0.00292977
0.00288172
0.00283324
0.00278445
0.00273545
0.00268611
0.00263639
0.00258682
0.00253722
0.00248777
0.00243864
0.00238988
0.00234168
0.00229413
0.00224737
0.0022015
0.00215661
0.00211277
0.00207003
0.00202841
0.00198789
0.00194843
0.00191002
0.00187268
0.00183643
0.00180128
0.00176725
0.00173434
0.00170254
0.00167185
0.00164223
0.00161368
0.00158615
0.00155961
0.00153404
0.0015094
0.00148564
0.00146273
0.00144063
0.0014193
0.0013987
0.0013788
0.00135956
0.00134094
0.00132291
0.00130543
0.00128847
0.00127201
0.00125601
0.00124046
0.00122532
0.00121057
0.0011962
0.00118219
0.00116852
0.00115518
0.00114216
0.00112944
0.00111702
0.00110489
0.00109303
0.00108146
0.00107015
0.00105912
0.00104834
0.00103783
0.00102757
0.00101757
0.00100782
0.000998323
0.00098907
0.000980045
0.000971248
0.000962679
0.000954338
0.000946223
0.000938331
0.000930659
0.000923203
0.000915959
0.000908921
0.000902083
0.000895439
0.000888982
0.000882705
0.000876598
0.000870656
0.000864878
0.000859345
0.000854785
3.75936e-05
0.000335529
0.000645836
0.000853211
0.00100424
0.00113158
0.0012503
0.00136636
0.00148168
0.00159659
0.00171088
0.00182418
0.00193616
0.00204654
0.0021551
0.00226166
0.0023661
0.00246833
0.00256829
0.00266595
0.0027613
0.00285435
0.00294512
0.00303367
0.00312003
0.00320427
0.00328644
0.00336661
0.00344483
0.00352116
0.00359566
0.00366837
0.00373931
0.00380852
0.00387599
0.00394173
0.00400572
0.00406791
0.00412826
0.00418671
0.00424317
0.00429756
0.00434977
0.0043997
0.00444723
0.00449225
0.00453465
0.00457422
0.00461088
0.00464452
0.00467506
0.00470243
0.00472658
0.00474746
0.00476505
0.00477941
0.00479061
0.00479867
0.00480369
0.00480576
0.00480499
0.00480153
0.0047955
0.00478707
0.00477639
0.00476361
0.0047489
0.0047324
0.00471427
0.00469463
0.00467361
0.00465132
0.00462788
0.00460335
0.00457782
0.00455133
0.00452394
0.00449566
0.00446652
0.00443651
0.00440564
0.00437387
0.0043412
0.00430759
0.004273
0.00423742
0.00420081
0.00416313
0.00412435
0.00408446
0.00404343
0.00400124
0.00395767
0.00391291
0.00386716
0.00382053
0.00377306
0.00372479
0.00367576
0.003626
0.00357555
0.00352442
0.00347262
0.00342017
0.0033671
0.0033135
0.00325941
0.00320484
0.00314978
0.00309425
0.00303847
0.00298242
0.00292593
0.00286915
0.00281248
0.00275577
0.00269911
0.00264276
0.00258674
0.00253121
0.0024763
0.00242212
0.00236882
0.00231651
0.00226531
0.00221532
0.00216663
0.0021193
0.00207339
0.0020289
0.00198583
0.00194415
0.00190385
0.00186491
0.00182733
0.00179113
0.00175629
0.0017228
0.00169065
0.0016598
0.00163023
0.0016019
0.00157477
0.00154879
0.00152392
0.00150011
0.00147731
0.00145547
0.00143454
0.00141446
0.0013952
0.00137669
0.0013589
0.00134177
0.00132526
0.00130933
0.00129394
0.00127905
0.00126462
0.00125062
0.00123703
0.0012238
0.00121093
0.00119838
0.00118614
0.00117418
0.0011625
0.00115108
0.0011399
0.00112896
0.00111825
0.00110777
0.0010975
0.00108745
0.00107761
0.00106797
0.00105854
0.00104932
0.00104029
0.00103146
0.00102282
0.00101437
0.00100611
0.000998036
0.000990159
0.000982476
0.000974985
0.000967685
0.000960574
0.000953649
0.000946907
0.000940344
0.000933955
0.000927735
0.000921679
0.000915781
0.000910035
0.000904445
0.000899102
0.000894761
4.32841e-05
0.000363181
0.000686664
0.00091208
0.00107916
0.00121886
0.00134698
0.0014705
0.00159212
0.00171265
0.00183212
0.00195032
0.00206697
0.00218182
0.00229465
0.00240531
0.00251367
0.00261964
0.00272317
0.00282423
0.00292281
0.00301894
0.00311264
0.00320397
0.00329299
0.00337976
0.00346437
0.00354689
0.00362741
0.00370599
0.00378273
0.00385768
0.00393091
0.00400246
0.00407238
0.00414067
0.00420735
0.0042724
0.0043358
0.00439748
0.0044574
0.00451545
0.00457154
0.00462556
0.0046774
0.00472691
0.00477387
0.00481817
0.00485966
0.00489822
0.00493371
0.00496602
0.00499506
0.00502074
0.00504301
0.00506182
0.00507724
0.00508929
0.00509802
0.00510351
0.00510585
0.00510514
0.00510153
0.00509514
0.00508613
0.00507463
0.00506081
0.00504481
0.00502677
0.00500682
0.00498509
0.0049617
0.00493675
0.00491034
0.00488253
0.00485339
0.00482298
0.00479133
0.00475847
0.00472441
0.00468915
0.00465269
0.00461502
0.00457612
0.00453596
0.00449454
0.00445183
0.00440781
0.00436245
0.00431576
0.0042677
0.00421825
0.00416728
0.00411507
0.00406179
0.00400752
0.00395231
0.00389619
0.00383923
0.00378149
0.00372301
0.00366383
0.00360396
0.00354341
0.00348218
0.00342044
0.00335828
0.00329569
0.00323265
0.00316898
0.00310531
0.00304153
0.0029776
0.00291369
0.00285
0.00278657
0.00272352
0.00266102
0.00259917
0.00253811
0.00247799
0.00241893
0.00236106
0.0023045
0.00224935
0.00219572
0.00214369
0.00209331
0.00204463
0.00199767
0.00195242
0.00190886
0.00186697
0.00182673
0.00178813
0.00175115
0.00171578
0.00168198
0.00164973
0.001619
0.00158973
0.00156188
0.0015354
0.00151023
0.00148631
0.00146358
0.00144199
0.00142147
0.00140196
0.00138339
0.00136571
0.00134885
0.00133276
0.00131738
0.00130266
0.00128854
0.00127497
0.00126191
0.00124932
0.00123714
0.00122536
0.00121392
0.0012028
0.00119197
0.00118141
0.0011711
0.00116101
0.00115113
0.00114144
0.00113194
0.00112261
0.00111344
0.00110444
0.00109559
0.00108689
0.00107834
0.00106994
0.00106167
0.00105354
0.00104554
0.00103769
0.00102997
0.0010224
0.00101499
0.00100772
0.00100062
0.000993663
0.000986868
0.00098023
0.000973748
0.00096742
0.000961246
0.000955223
0.000949347
0.000943615
0.000938024
0.000932572
0.000927263
0.000922195
0.000918128
4.64123e-05
0.00038383
0.000719996
0.000960586
0.0011414
0.00129178
0.00142785
0.00155739
0.00168381
0.00180834
0.00193131
0.00205266
0.00217218
0.00228969
0.00240499
0.00251794
0.00262843
0.00273637
0.00284174
0.0029445
0.00304466
0.00314226
0.00323734
0.00332995
0.00342018
0.00350812
0.00359384
0.00367746
0.00375907
0.00383879
0.00391671
0.00399292
0.00406752
0.00414059
0.00421218
0.00428235
0.00435113
0.00441853
0.00448454
0.00454913
0.00461224
0.00467379
0.00473368
0.00479181
0.00484802
0.00490212
0.00495394
0.0050033
0.00505003
0.00509394
0.00513486
0.00517263
0.0052071
0.00523815
0.00526568
0.0052896
0.00530987
0.0053265
0.00533954
0.00534903
0.00535502
0.00535762
0.00535694
0.0053531
0.00534624
0.0053365
0.00532403
0.00530896
0.00529144
0.00527161
0.00524958
0.00522549
0.00519943
0.00517152
0.00514182
0.00511042
0.00507737
0.00504272
0.00500652
0.00496877
0.00492951
0.00488873
0.00484643
0.00480261
0.00475726
0.00471037
0.00466193
0.00461192
0.00456034
0.00450718
0.00445243
0.00439603
0.00433805
0.00427875
0.00421827
0.00415669
0.00409406
0.00403041
0.00396581
0.00390038
0.00383418
0.00376724
0.0036996
0.00363125
0.00356209
0.00349245
0.00342248
0.00335216
0.00328152
0.00321058
0.00313966
0.00306878
0.00299802
0.00292752
0.00285743
0.00278788
0.00271898
0.00265091
0.00258378
0.00251775
0.00245295
0.0023895
0.00232755
0.00226719
0.00220854
0.00215168
0.00209669
0.00204363
0.00199253
0.00194342
0.0018963
0.00185114
0.00180791
0.0017666
0.00172718
0.00168963
0.0016539
0.00161998
0.0015878
0.00155733
0.00152851
0.00150128
0.00147558
0.00145135
0.00142851
0.00140699
0.00138673
0.00136765
0.00134967
0.00133273
0.00131676
0.00130168
0.00128742
0.00127392
0.00126111
0.00124894
0.00123734
0.00122626
0.00121565
0.00120545
0.00119563
0.00118613
0.00117693
0.00116799
0.00115928
0.00115077
0.00114244
0.00113427
0.00112623
0.00111833
0.00111055
0.00110287
0.00109528
0.0010878
0.00108039
0.00107307
0.00106582
0.00105864
0.00105153
0.0010445
0.00103756
0.00103071
0.00102397
0.00101732
0.00101079
0.00100437
0.000998065
0.000991879
0.000985815
0.000979873
0.000974054
0.000968359
0.000962788
0.00095734
0.000952014
0.000946809
0.000941724
0.000936769
0.000932042
0.00092829
4.7841e-05
0.00039667
0.000745133
0.000999159
0.00119185
0.00135136
0.00149404
0.0016283
0.00175813
0.00188521
0.00201014
0.00213303
0.00225379
0.00237228
0.00248837
0.00260193
0.00271288
0.00282117
0.00292676
0.00302965
0.00312987
0.00322746
0.00332247
0.00341499
0.00350511
0.00359293
0.00367856
0.00376213
0.00384376
0.00392358
0.00400172
0.00407829
0.00415343
0.00422724
0.00429982
0.00437124
0.00444157
0.00451083
0.00457905
0.00464622
0.00471227
0.00477716
0.00484078
0.004903
0.00496367
0.00502258
0.00507954
0.00513431
0.00518667
0.00523638
0.00528322
0.00532696
0.00536741
0.0054044
0.00543776
0.00546738
0.00549315
0.00551502
0.00553298
0.00554706
0.00555729
0.00556375
0.00556655
0.00556578
0.00556158
0.00555409
0.00554343
0.00552976
0.00551322
0.00549393
0.00547204
0.00544766
0.00542091
0.0053919
0.00536071
0.00532744
0.00529215
0.0052549
0.00521574
0.0051747
0.00513182
0.0050871
0.00504056
0.00499221
0.00494204
0.00489005
0.00483624
0.00478061
0.00472316
0.00466389
0.00460279
0.0045398
0.00447518
0.00440915
0.00434182
0.00427328
0.00420359
0.00413274
0.00406079
0.003988
0.00391439
0.00384
0.0037649
0.00368912
0.00361269
0.00353582
0.00345863
0.0033812
0.00330358
0.00322589
0.00314832
0.00307097
0.00299396
0.00291745
0.00284158
0.00276649
0.00269233
0.00261925
0.0025474
0.00247692
0.00240795
0.00234062
0.00227504
0.00221133
0.00214959
0.00208991
0.00203234
0.00197695
0.00192378
0.00187283
0.0018241
0.00177759
0.00173326
0.00169108
0.00165102
0.00161304
0.00157711
0.00154317
0.00151117
0.00148106
0.00145277
0.00142623
0.00140137
0.00137811
0.00135639
0.00133611
0.0013172
0.00129957
0.00128315
0.00126786
0.0012536
0.00124031
0.0012279
0.00121631
0.00120545
0.00119526
0.00118567
0.00117661
0.00116803
0.00115986
0.00115206
0.00114458
0.00113737
0.00113039
0.00112361
0.001117
0.00111052
0.00110415
0.00109787
0.00109167
0.00108553
0.00107944
0.00107338
0.00106736
0.00106135
0.00105534
0.00104933
0.00104332
0.00103734
0.00103138
0.00102546
0.00101958
0.00101375
0.00100798
0.00100227
0.000996624
0.000991053
0.000985562
0.000980152
0.00097483
0.000969596
0.000964455
0.000959408
0.000954458
0.000949605
0.000944851
0.000940198
0.000935656
0.000931326
0.000927924
4.85171e-05
0.000403765
0.00076286
0.00102856
0.00123139
0.00139856
0.00154653
0.00168423
0.00181616
0.0019444
0.00206983
0.00219274
0.00231316
0.00243105
0.00254631
0.00265888
0.00276871
0.00287576
0.00298003
0.00308156
0.00318037
0.00327654
0.00337013
0.00346125
0.00355001
0.00363653
0.00372094
0.00380338
0.00388401
0.00396298
0.00404043
0.00411653
0.00419143
0.00426525
0.00433815
0.00441021
0.00448155
0.00455221
0.00462224
0.00469165
0.0047604
0.00482844
0.00489569
0.00496205
0.00502733
0.00509128
0.00515365
0.00521417
0.00527256
0.00532851
0.00538176
0.005432
0.00547898
0.00552247
0.00556226
0.00559817
0.00563005
0.00565781
0.00568135
0.00570066
0.00571575
0.00572667
0.00573351
0.00573637
0.00573536
0.00573063
0.0057223
0.00571051
0.00569542
0.00567714
0.00565583
0.0056316
0.00560459
0.00557491
0.00554265
0.00550792
0.0054708
0.00543134
0.00538963
0.00534569
0.00529958
0.00525131
0.00520092
0.00514841
0.00509379
0.00503708
0.00497827
0.00491738
0.00485441
0.00478937
0.00472223
0.00465309
0.00458223
0.00450983
0.00443602
0.00436089
0.00428451
0.00420693
0.00412824
0.00404862
0.00396813
0.00388685
0.00380486
0.00372224
0.00363908
0.00355553
0.00347173
0.00338779
0.00330381
0.00321995
0.00313635
0.00305316
0.00297053
0.0028886
0.00280756
0.00272753
0.0026487
0.00257119
0.00249518
0.00242079
0.00234817
0.00227744
0.00220872
0.00214212
0.00207772
0.00201562
0.00195586
0.00189851
0.00184359
0.00179111
0.00174108
0.00169347
0.00164826
0.00160542
0.00156489
0.00152664
0.00149063
0.00145678
0.00142504
0.00139535
0.00136762
0.00134179
0.00131778
0.0012955
0.00127486
0.00125579
0.00123819
0.00122197
0.00120704
0.00119333
0.00118072
0.00116916
0.00115853
0.00114877
0.00113979
0.00113152
0.00112388
0.00111679
0.0011102
0.00110403
0.00109823
0.00109274
0.00108752
0.0010825
0.00107766
0.00107295
0.00106834
0.00106381
0.00105932
0.00105486
0.00105041
0.00104595
0.00104147
0.00103695
0.00103238
0.00102771
0.00102301
0.00101825
0.00101347
0.00100866
0.00100383
0.000998992
0.000994151
0.000989317
0.000984497
0.0009797
0.000974932
0.000970201
0.000965513
0.000960874
0.000956289
0.000951763
0.0009473
0.000942905
0.000938582
0.000934335
0.000930167
0.000926091
0.000922204
0.000919184
4.88513e-05
0.000406923
0.000774263
0.00104964
0.00126086
0.00143419
0.00158612
0.00172597
0.00185867
0.00198668
0.00211115
0.00223256
0.00235109
0.00246678
0.00257963
0.00268961
0.00279674
0.00290101
0.00300247
0.00310116
0.00319716
0.00329054
0.00338142
0.00346991
0.00355613
0.00364023
0.00372236
0.00380268
0.00388136
0.00395859
0.00403453
0.00410937
0.00418329
0.00425646
0.00432904
0.00440118
0.004473
0.0045446
0.00461604
0.00468736
0.00475854
0.00482955
0.00490045
0.00497104
0.00504107
0.00511027
0.00517833
0.00524494
0.00530973
0.00537237
0.00543251
0.00548977
0.00554383
0.00559439
0.0056412
0.00568401
0.00572262
0.00575688
0.00578666
0.00581187
0.00583249
0.00584851
0.00586002
0.00586711
0.00586989
0.00586847
0.00586301
0.00585363
0.00584048
0.00582371
0.00580345
0.00577984
0.00575302
0.00572311
0.00569021
0.00565445
0.0056159
0.00557466
0.00553079
0.00548436
0.00543541
0.005384
0.00533014
0.00527388
0.00521522
0.00515418
0.00509078
0.00502503
0.00495696
0.00488656
0.00481385
0.00473906
0.00466244
0.00458417
0.00450437
0.00442314
0.00434059
0.0042568
0.00417188
0.00408596
0.00399914
0.00391154
0.00382325
0.00373437
0.00364504
0.00355541
0.00346561
0.00337579
0.00328609
0.00319666
0.00310766
0.00301927
0.00293164
0.00284494
0.00275934
0.002675
0.00259208
0.00251073
0.00243111
0.00235337
0.00227762
0.00220401
0.00213264
0.00206361
0.00199701
0.00193291
0.00187137
0.00181244
0.00175613
0.00170247
0.00165143
0.00160301
0.00155718
0.00151388
0.00147309
0.00143474
0.00139877
0.00136513
0.00133374
0.00130452
0.00127741
0.0012523
0.00122913
0.00120779
0.0011882
0.00117026
0.00115389
0.00113898
0.00112544
0.00111318
0.0011021
0.00109212
0.00108314
0.00107507
0.00106783
0.00106134
0.00105551
0.00105027
0.00104554
0.00104125
0.00103734
0.00103374
0.00103041
0.00102727
0.0010243
0.00102144
0.00101865
0.00101591
0.00101318
0.00101044
0.00100767
0.00100483
0.00100192
0.000998894
0.000995722
0.000992448
0.000989077
0.000985614
0.000982066
0.000978442
0.000974748
0.000970993
0.000967188
0.000963341
0.000959462
0.00095556
0.000951644
0.000947723
0.000943805
0.000939898
0.00093601
0.000932147
0.000928317
0.000924526
0.000920779
0.000917084
0.000913446
0.000909879
0.000906477
0.000903868
4.89942e-05
0.000407323
0.000780305
0.0010632
0.00128098
0.0014589
0.00161336
0.00175398
0.00188604
0.00201235
0.00213433
0.00225267
0.0023677
0.00247957
0.00258838
0.00269417
0.00279702
0.00289698
0.00299413
0.00308857
0.00318039
0.0032697
0.00335663
0.00344133