/*--------------------------------*- C++ -*----------------------------------*\
  =========                 |
  \\      /  F ield         | OpenFOAM: The Open Source CFD Toolbox
   \\    /   O peration     | Website:  https://openfoam.org
    \\  /    A nd           | Version:  7
     \\/     M anipulation  |
\*---------------------------------------------------------------------------*/
FoamFile
{
    version     2.0;
    format      ascii;
    class       volScalarField;
    location    "350";
    object      p;
}
// * * * * * * * * * * * * * * * * * * * * * * * * * * * * * * * * * * * * * //

dimensions      [0 2 -2 0 0 0 0];

internalField   nonuniform List<scalar> 
16900
(
-24.3043
-24.3141
-24.3316
-24.3522
-24.3753
-24.4041
-24.4364
-24.4778
-24.5299
-24.586
-24.6447
-24.7047
-24.7651
-24.8249
-24.8833
-24.9396
-24.9934
-25.0439
-25.0909
-25.134
-25.1727
-25.2068
-25.236
-25.26
-25.2784
-25.291
-25.2974
-25.2974
-25.2908
-25.2771
-25.2562
-25.2279
-25.192
-25.1483
-25.0968
-25.0373
-24.97
-24.895
-24.8124
-24.7226
-24.6258
-24.5226
-24.4135
-24.299
-24.18
-24.057
-23.9309
-23.8026
-23.6729
-23.5428
-23.413
-23.2846
-23.1583
-23.0351
-22.9155
-22.8004
-22.6904
-22.586
-22.4878
-22.3961
-22.3112
-22.2335
-22.163
-22.0999
-22.0441
-21.9955
-21.954
-21.9192
-21.8909
-21.8686
-21.8516
-21.8394
-21.8312
-21.8262
-21.8233
-21.8216
-21.8199
-21.8168
-21.8111
-21.8014
-21.7861
-21.7637
-21.7326
-21.691
-21.6374
-21.5701
-21.4874
-21.3877
-21.2693
-21.1307
-20.9708
-20.7882
-20.5818
-20.3502
-20.0921
-19.8068
-19.4941
-19.1537
-18.7857
-18.3904
-17.9681
-17.5197
-17.0459
-16.5481
-16.0276
-15.486
-14.9253
-14.3474
-13.7546
-13.1494
-12.5342
-11.9117
-11.2847
-10.6559
-10.0282
-9.4043
-8.7871
-8.17927
-7.58338
-7.00196
-6.43728
-5.89146
-5.36643
-4.86388
-4.38542
-3.93218
-3.50535
-3.10551
-2.73478
-2.39346
-2.07455
-1.77857
-1.51146
-1.27289
-1.06154
-0.876037
-0.715021
-0.5771
-0.460843
-0.364785
-0.287421
-0.227231
-0.182679
-0.15224
-0.134402
-0.127688
-0.130657
-0.141928
-0.160174
-0.18414
-0.212645
-0.244588
-0.278951
-0.314805
-0.351304
-0.387694
-0.423308
-0.457564
-0.489964
-0.520092
-0.547609
-0.572247
-0.593809
-0.612156
-0.627213
-0.638948
-0.647383
-0.652574
-0.654615
-0.653624
-0.64975
-0.643151
-0.634009
-0.622507
-0.608845
-0.593217
-0.575832
-0.556873
-0.536512
-0.514924
-0.492284
-0.468753
-0.444494
-0.419659
-0.394392
-0.368815
-0.34304
-0.317157
-0.291248
-0.265374
-0.239587
-0.213917
-0.188388
-0.163003
-0.13776
-0.112641
-0.087635
-0.0627303
-0.0379594
-0.0137197
-24.2926
-24.3027
-24.3117
-24.3211
-24.3364
-24.3582
-24.3944
-24.4423
-24.494
-24.5489
-24.6064
-24.6655
-24.7251
-24.7843
-24.8423
-24.8983
-24.9519
-25.0024
-25.0496
-25.0929
-25.132
-25.1667
-25.1965
-25.2213
-25.2406
-25.2542
-25.2619
-25.2633
-25.2581
-25.246
-25.2269
-25.2005
-25.1665
-25.1249
-25.0755
-25.0182
-24.9531
-24.8802
-24.7998
-24.712
-24.6172
-24.5157
-24.4082
-24.2951
-24.1771
-24.0549
-23.9293
-23.8012
-23.6713
-23.5405
-23.4098
-23.2801
-23.1522
-23.0269
-22.905
-22.7873
-22.6745
-22.5672
-22.4658
-22.3709
-22.2827
-22.2017
-22.1281
-22.0618
-22.0031
-21.9517
-21.9077
-21.8707
-21.8404
-21.8163
-21.798
-21.7849
-21.7761
-21.7708
-21.7682
-21.767
-21.7663
-21.7646
-21.7607
-21.7531
-21.7404
-21.721
-21.6931
-21.6552
-21.6056
-21.5427
-21.4647
-21.3699
-21.2567
-21.1238
-20.9697
-20.7935
-20.5935
-20.3681
-20.1163
-19.8375
-19.5313
-19.1976
-18.8363
-18.4476
-18.0321
-17.5903
-17.1232
-16.6318
-16.1177
-15.5823
-15.0275
-14.4554
-13.868
-13.2679
-12.6575
-12.0394
-11.4164
-10.7912
-10.1667
-9.54551
-8.93054
-8.32446
-7.72978
-7.14903
-6.5845
-6.03834
-5.51264
-5.00909
-4.52951
-4.07467
-3.64567
-3.2412
-2.86264
-2.5135
-2.1912
-1.89527
-1.6274
-1.38708
-1.17326
-0.98475
-0.820332
-0.67871
-0.558532
-0.458391
-0.37684
-0.312398
-0.263571
-0.228865
-0.206799
-0.195916
-0.194801
-0.202086
-0.216462
-0.236684
-0.261582
-0.290062
-0.321113
-0.353806
-0.3873
-0.420843
-0.453764
-0.485483
-0.515499
-0.543393
-0.568821
-0.591512
-0.611262
-0.627931
-0.641434
-0.651738
-0.658855
-0.662837
-0.663771
-0.661771
-0.656977
-0.649545
-0.639648
-0.627466
-0.613189
-0.597006
-0.579101
-0.559669
-0.538909
-0.516998
-0.494082
-0.470312
-0.445843
-0.420828
-0.395407
-0.3697
-0.343815
-0.317843
-0.291859
-0.265927
-0.240091
-0.214385
-0.188827
-0.163422
-0.138162
-0.11303
-0.0880052
-0.0630673
-0.0381993
-0.0135486
-24.2707
-24.2904
-24.3027
-24.3131
-24.3278
-24.35
-24.3818
-24.4245
-24.4727
-24.5249
-24.58
-24.6368
-24.6943
-24.7516
-24.808
-24.8626
-24.9151
-24.9647
-25.0112
-25.054
-25.0929
-25.1275
-25.1575
-25.1826
-25.2025
-25.2169
-25.2254
-25.2279
-25.224
-25.2134
-25.1959
-25.1712
-25.1391
-25.0994
-25.0519
-24.9967
-24.9337
-24.8629
-24.7844
-24.6985
-24.6054
-24.5056
-24.3994
-24.2875
-24.1704
-24.0488
-23.9234
-23.7951
-23.6648
-23.5332
-23.4013
-23.27
-23.1402
-23.0127
-22.8884
-22.7681
-22.6524
-22.5421
-22.4376
-22.3396
-22.2484
-22.1644
-22.0878
-22.0188
-21.9575
-21.9038
-21.8578
-21.8191
-21.7874
-21.7624
-21.7435
-21.7302
-21.7216
-21.717
-21.7154
-21.7157
-21.7168
-21.7174
-21.7163
-21.7118
-21.7026
-21.687
-21.6633
-21.63
-21.5853
-21.5275
-21.455
-21.366
-21.2588
-21.1321
-20.9846
-20.8151
-20.6219
-20.403
-20.1577
-19.8855
-19.5859
-19.2588
-18.9042
-18.5221
-18.1129
-17.6774
-17.2165
-16.7311
-16.2227
-15.6928
-15.1433
-14.5762
-13.9936
-13.3978
-12.7915
-12.1772
-11.5575
-10.9354
-10.3135
-9.69469
-9.0817
-8.47731
-7.88393
-7.30426
-6.74066
-6.19533
-5.67063
-5.16778
-4.6888
-4.23332
-3.80227
-3.39672
-3.01707
-2.66478
-2.33758
-2.03603
-1.76207
-1.51552
-1.29552
-1.10098
-0.930709
-0.783424
-0.657769
-0.552336
-0.465672
-0.396297
-0.342713
-0.303427
-0.276954
-0.261841
-0.256667
-0.260067
-0.270726
-0.287399
-0.308913
-0.334171
-0.362157
-0.39194
-0.422676
-0.453607
-0.484059
-0.513445
-0.541263
-0.567086
-0.590568
-0.611433
-0.629472
-0.644541
-0.656549
-0.66546
-0.671282
-0.674061
-0.673882
-0.670854
-0.665112
-0.656809
-0.646112
-0.633199
-0.618255
-0.601466
-0.583021
-0.563102
-0.541884
-0.519557
-0.496294
-0.472223
-0.447486
-0.422238
-0.396615
-0.370737
-0.344706
-0.318614
-0.292532
-0.266522
-0.240627
-0.214879
-0.189293
-0.163873
-0.138606
-0.113471
-0.0884362
-0.0634577
-0.0384496
-0.0134351
-24.2454
-24.2796
-24.2989
-24.313
-24.3299
-24.3536
-24.3853
-24.4251
-24.4706
-24.5202
-24.5728
-24.6272
-24.6825
-24.7377
-24.7922
-24.8452
-24.8963
-24.9447
-24.9903
-25.0324
-25.0708
-25.1052
-25.1351
-25.1603
-25.1805
-25.1954
-25.2046
-25.2079
-25.2049
-25.1954
-25.179
-25.1555
-25.1246
-25.0861
-25.04
-24.986
-24.9241
-24.8543
-24.7768
-24.6917
-24.5993
-24.4998
-24.3939
-24.2819
-24.1645
-24.0423
-23.9162
-23.7868
-23.6551
-23.522
-23.3883
-23.255
-23.1231
-22.9934
-22.8668
-22.7441
-22.626
-22.5133
-22.4066
-22.3064
-22.2131
-22.1272
-22.049
-21.9785
-21.9161
-21.8615
-21.8149
-21.7759
-21.7443
-21.7197
-21.7016
-21.6894
-21.6823
-21.6795
-21.68
-21.6829
-21.6868
-21.6906
-21.693
-21.6923
-21.6871
-21.6759
-21.6568
-21.6283
-21.5887
-21.5361
-21.469
-21.3854
-21.2838
-21.1628
-21.0213
-20.8577
-20.6698
-20.4561
-20.216
-19.9489
-19.6545
-19.3324
-18.9825
-18.6051
-18.2005
-17.7692
-17.3123
-16.8308
-16.3259
-15.7992
-15.2527
-14.6882
-14.108
-13.5142
-12.9096
-12.2968
-11.6783
-11.0569
-10.4357
-9.81716
-9.20418
-8.5998
-8.00615
-7.42625
-6.86255
-6.3168
-5.79166
-5.28678
-4.80412
-4.34569
-3.9118
-3.50338
-3.12094
-2.76523
-2.43499
-2.13075
-1.85375
-1.60391
-1.38053
-1.18262
-1.00903
-0.858488
-0.72965
-0.621111
-0.53142
-0.459096
-0.402644
-0.360565
-0.33138
-0.31363
-0.305899
-0.306816
-0.31507
-0.329413
-0.348672
-0.371749
-0.397627
-0.425375
-0.454146
-0.483182
-0.511808
-0.539438
-0.565566
-0.589766
-0.611692
-0.631066
-0.64768
-0.661387
-0.672099
-0.679777
-0.684429
-0.686103
-0.684879
-0.680869
-0.674204
-0.665037
-0.653534
-0.639871
-0.62423
-0.606797
-0.587756
-0.567292
-0.545579
-0.522793
-0.499109
-0.474673
-0.449614
-0.424086
-0.398218
-0.37213
-0.345921
-0.319679
-0.293474
-0.267366
-0.241395
-0.215594
-0.189973
-0.164536
-0.139265
-0.114134
-0.0890953
-0.0640873
-0.0389571
-0.0137318
-24.2295
-24.2753
-24.3023
-24.321
-24.3404
-24.3655
-24.3976
-24.4362
-24.48
-24.5277
-24.5782
-24.6305
-24.6838
-24.7371
-24.7898
-24.8412
-24.8908
-24.9381
-24.9827
-25.0241
-25.062
-25.096
-25.1259
-25.1511
-25.1716
-25.1868
-25.1966
-25.2005
-25.1982
-25.1894
-25.1738
-25.1511
-25.121
-25.0833
-25.0377
-24.9843
-24.9228
-24.8533
-24.7759
-24.6906
-24.5979
-24.4979
-24.3911
-24.2781
-24.1594
-24.0357
-23.9078
-23.7765
-23.6427
-23.5073
-23.3713
-23.2356
-23.1012
-22.9691
-22.8402
-22.7153
-22.5952
-22.4806
-22.3721
-22.2704
-22.176
-22.0891
-22.0102
-21.9395
-21.877
-21.8228
-21.7768
-21.7388
-21.7085
-21.6856
-21.6695
-21.6596
-21.6551
-21.6552
-21.659
-21.6653
-21.673
-21.6808
-21.6873
-21.6911
-21.6905
-21.6839
-21.6698
-21.6462
-21.6116
-21.5642
-21.5022
-21.4238
-21.3273
-21.2115
-21.0752
-20.9165
-20.7328
-20.5231
-20.287
-20.024
-19.7334
-19.4149
-19.0686
-18.6944
-18.2928
-17.8644
-17.41
-16.9308
-16.4279
-15.903
-15.3579
-14.7946
-14.2153
-13.6222
-13.018
-12.4054
-11.7868
-11.1651
-10.5435
-9.92433
-9.31055
-8.70571
-8.11125
-7.53045
-6.96578
-6.41739
-5.88858
-5.38093
-4.89548
-4.43399
-3.99713
-3.58577
-3.20057
-2.84204
-2.50966
-2.20373
-1.92489
-1.67302
-1.44749
-1.24737
-1.07156
-0.918803
-0.787785
-0.677103
-0.58531
-0.510926
-0.452457
-0.408406
-0.377291
-0.357656
-0.348081
-0.347198
-0.353691
-0.366315
-0.383894
-0.405328
-0.429601
-0.455781
-0.483019
-0.510557
-0.537721
-0.563923
-0.588658
-0.611501
-0.632105
-0.650195
-0.665562
-0.678062
-0.687606
-0.694159
-0.697729
-0.698365
-0.696149
-0.691193
-0.68363
-0.673613
-0.661307
-0.646889
-0.630539
-0.612445
-0.592788
-0.571753
-0.549516
-0.526252
-0.502117
-0.477268
-0.45185
-0.42601
-0.39987
-0.373549
-0.347139
-0.32073
-0.294387
-0.26817
-0.242117
-0.21626
-0.190605
-0.165156
-0.13989
-0.114777
-0.0897557
-0.064751
-0.0395533
-0.0143604
-24.2269
-24.2767
-24.3108
-24.3349
-24.357
-24.3835
-24.4159
-24.4539
-24.4964
-24.5426
-24.5913
-24.6418
-24.6932
-24.7447
-24.7958
-24.8457
-24.8941
-24.9403
-24.984
-25.0247
-25.0621
-25.0958
-25.1256
-25.1509
-25.1716
-25.1872
-25.1973
-25.2018
-25.2
-25.1918
-25.1768
-25.1546
-25.125
-25.0877
-25.0424
-24.989
-24.9274
-24.8575
-24.7795
-24.6934
-24.5996
-24.4983
-24.3899
-24.275
-24.1543
-24.0283
-23.898
-23.764
-23.6274
-23.4892
-23.3502
-23.2117
-23.0746
-22.9399
-22.8086
-22.6814
-22.5594
-22.4431
-22.3333
-22.2306
-22.1354
-22.0483
-21.9694
-21.8991
-21.8374
-21.7844
-21.74
-21.704
-21.676
-21.6557
-21.6426
-21.6359
-21.635
-21.6389
-21.6468
-21.6574
-21.6696
-21.6821
-21.6935
-21.7022
-21.7066
-21.7053
-21.6963
-21.678
-21.6486
-21.6063
-21.5494
-21.476
-21.3845
-21.2737
-21.1422
-20.9876
-20.8075
-20.6013
-20.3686
-20.1089
-19.8214
-19.5059
-19.1622
-18.7905
-18.3912
-17.9647
-17.512
-17.0342
-16.5325
-16.0085
-15.464
-14.9011
-14.322
-13.7287
-13.1241
-12.5111
-11.8918
-11.2691
-10.6468
-10.0268
-9.41179
-8.80624
-8.21027
-7.62638
-7.05874
-6.50809
-5.9767
-5.46637
-4.97834
-4.51412
-4.0746
-3.66063
-3.2729
-2.91185
-2.57738
-2.26972
-1.98914
-1.73544
-1.50803
-1.30601
-1.12829
-0.973675
-0.840827
-0.728357
-0.63482
-0.558736
-0.498607
-0.452937
-0.42024
-0.399056
-0.387966
-0.385596
-0.390631
-0.401821
-0.417989
-0.438033
-0.460936
-0.485761
-0.511664
-0.53788
-0.563739
-0.588651
-0.612111
-0.633698
-0.653063
-0.669934
-0.684104
-0.695432
-0.70383
-0.709268
-0.711753
-0.711341
-0.708113
-0.702186
-0.693692
-0.682788
-0.669638
-0.654422
-0.637318
-0.618515
-0.598194
-0.576542
-0.553734
-0.529945
-0.50531
-0.48
-0.454183
-0.427997
-0.401555
-0.374972
-0.348338
-0.321742
-0.295244
-0.268907
-0.242764
-0.216847
-0.19116
-0.165706
-0.140458
-0.115381
-0.090406
-0.0654509
-0.0402515
-0.0153448
-24.2309
-24.2843
-24.3235
-24.3525
-24.3775
-24.4055
-24.4382
-24.4757
-24.5172
-24.562
-24.6092
-24.6581
-24.7078
-24.7578
-24.8074
-24.856
-24.9032
-24.9484
-24.9913
-25.0315
-25.0685
-25.102
-25.1317
-25.1572
-25.1781
-25.1941
-25.2047
-25.2096
-25.2084
-25.2007
-25.1861
-25.1642
-25.1348
-25.0975
-25.0521
-24.9984
-24.9362
-24.8655
-24.7863
-24.6989
-24.6033
-24.5
-24.3894
-24.272
-24.1485
-24.0196
-23.8861
-23.7489
-23.609
-23.4673
-23.3251
-23.1833
-23.0432
-22.9057
-22.7719
-22.6425
-22.5186
-22.4009
-22.29
-22.1866
-22.0912
-22.0042
-21.926
-21.8567
-21.7966
-21.7455
-21.7033
-21.67
-21.6451
-21.6282
-21.6188
-21.6162
-21.6196
-21.6281
-21.6407
-21.6563
-21.6737
-21.6914
-21.7081
-21.7223
-21.7322
-21.7363
-21.7328
-21.72
-21.6959
-21.659
-21.6072
-21.5387
-21.4521
-21.3462
-21.2192
-21.068
-20.891
-20.688
-20.4585
-20.2016
-19.9169
-19.6038
-19.2624
-18.8926
-18.4949
-18.0698
-17.6183
-17.1414
-16.6403
-16.1165
-15.572
-15.009
-14.4296
-13.8356
-13.23
-12.6164
-11.9961
-11.372
-10.7489
-10.1278
-9.51049
-8.902
-8.30388
-7.71799
-7.14771
-6.59459
-6.06067
-5.54771
-5.05713
-4.59032
-4.14829
-3.73189
-3.34184
-2.97854
-2.64211
-2.33272
-2.05046
-1.79508
-1.56596
-1.36224
-1.18286
-1.02661
-0.892168
-0.778149
-0.683104
-0.605551
-0.543992
-0.496922
-0.462855
-0.440327
-0.427914
-0.424239
-0.427984
-0.437896
-0.452794
-0.471576
-0.49322
-0.516789
-0.541437
-0.566399
-0.591005
-0.614664
-0.636874
-0.657214
-0.675339
-0.690977
-0.703926
-0.714048
-0.721259
-0.725532
-0.726878
-0.725356
-0.721053
-0.714087
-0.704594
-0.692734
-0.678671
-0.662587
-0.644661
-0.625084
-0.604035
-0.581707
-0.558271
-0.533882
-0.508682
-0.482875
-0.456621
-0.430051
-0.403272
-0.376399
-0.349516
-0.322711
-0.296044
-0.269574
-0.243333
-0.217353
-0.191636
-0.166184
-0.140965
-0.115944
-0.0910422
-0.0661827
-0.0410429
-0.0166577
-24.2405
-24.302
-24.3423
-24.3736
-24.4007
-24.4298
-24.4627
-24.4997
-24.5403
-24.5839
-24.6297
-24.6771
-24.7255
-24.774
-24.8223
-24.8698
-24.916
-24.9604
-25.0027
-25.0424
-25.0792
-25.1127
-25.1425
-25.1682
-25.1895
-25.2058
-25.2169
-25.2223
-25.2215
-25.2142
-25.2
-25.1783
-25.1489
-25.1114
-25.0656
-25.0111
-24.948
-24.876
-24.7953
-24.7059
-24.6081
-24.5023
-24.3888
-24.2684
-24.1415
-24.0091
-23.8719
-23.7308
-23.587
-23.4416
-23.2957
-23.1505
-23.007
-22.8665
-22.73
-22.5985
-22.4728
-22.3538
-22.242
-22.1383
-22.043
-21.9567
-21.8796
-21.8119
-21.7538
-21.7052
-21.6661
-21.6361
-21.6149
-21.6021
-21.5971
-21.5992
-21.6075
-21.6212
-21.6392
-21.6603
-21.6832
-21.7067
-21.7292
-21.7491
-21.7649
-21.7748
-21.777
-21.7697
-21.7511
-21.7195
-21.6728
-21.6093
-21.5276
-21.4264
-21.3034
-21.1553
-20.9812
-20.7812
-20.5545
-20.3002
-20.0179
-19.7069
-19.3673
-18.999
-18.6026
-18.1785
-17.7277
-17.2513
-16.7503
-16.2263
-15.6814
-15.118
-14.538
-13.9428
-13.3362
-12.7219
-12.1007
-11.4746
-10.849
-10.226
-9.60706
-8.9962
-8.39563
-7.8075
-7.23465
-6.67897
-6.14249
-5.62695
-5.13386
-4.66458
-4.22019
-3.80155
-3.40936
-3.04407
-2.70585
-2.39485
-2.11105
-1.85414
-1.62351
-1.41829
-1.23744
-1.07975
-0.943901
-0.828513
-0.732134
-0.653277
-0.59044
-0.542115
-0.506811
-0.48306
-0.469435
-0.464552
-0.467094
-0.4758
-0.48949
-0.507056
-0.527476
-0.549812
-0.573214
-0.59692
-0.620256
-0.642637
-0.66356
-0.682606
-0.699433
-0.713775
-0.72543
-0.734268
-0.740207
-0.743227
-0.743343
-0.740621
-0.735148
-0.727051
-0.716466
-0.70356
-0.688495
-0.671459
-0.652628
-0.632198
-0.610349
-0.587276
-0.563123
-0.538046
-0.512231
-0.485891
-0.459159
-0.432166
-0.405015
-0.37782
-0.35066
-0.323627
-0.296771
-0.270157
-0.24381
-0.217765
-0.192019
-0.166576
-0.1414
-0.116457
-0.0916615
-0.066949
-0.0419271
-0.01828
-24.262
-24.3237
-24.3648
-24.3969
-24.4251
-24.4548
-24.4877
-24.5242
-24.564
-24.6065
-24.6511
-24.6972
-24.7443
-24.7917
-24.8389
-24.8854
-24.9308
-24.9747
-25.0165
-25.056
-25.0927
-25.1263
-25.1563
-25.1824
-25.2041
-25.221
-25.2326
-25.2385
-25.2382
-25.2312
-25.2172
-25.1956
-25.166
-25.1282
-25.0816
-25.0262
-24.9617
-24.8881
-24.8053
-24.7136
-24.6131
-24.5042
-24.3874
-24.2633
-24.1326
-23.9959
-23.8544
-23.709
-23.561
-23.4115
-23.2618
-23.1129
-22.966
-22.8223
-22.683
-22.5492
-22.4219
-22.3017
-22.1894
-22.0856
-21.9908
-21.9056
-21.83
-21.7645
-21.7089
-21.6634
-21.6278
-21.6017
-21.5848
-21.5767
-21.5766
-21.5839
-21.5977
-21.617
-21.6408
-21.6679
-21.6969
-21.7264
-21.755
-21.781
-21.8028
-21.8186
-21.8267
-21.8251
-21.8121
-21.7858
-21.7442
-21.6856
-21.6087
-21.5121
-21.3924
-21.2471
-21.076
-20.8788
-20.6546
-20.4027
-20.1224
-19.8133
-19.4751
-19.108
-18.7125
-18.2891
-17.8387
-17.3626
-16.8614
-16.3368
-15.7912
-15.2274
-14.6471
-14.051
-13.4427
-12.8265
-12.2038
-11.5766
-10.949
-10.3236
-9.70266
-9.08945
-8.48639
-7.89589
-7.32051
-6.76232
-6.22335
-5.70535
-5.2099
-4.73833
-4.29176
-3.87107
-3.47697
-3.1099
-2.77009
-2.45763
-2.17245
-1.91419
-1.68223
-1.47569
-1.29354
-1.13457
-0.99748
-0.880867
-0.783286
-0.703244
-0.639237
-0.589751
-0.553293
-0.528388
-0.513607
-0.507562
-0.50893
-0.51645
-0.528938
-0.545282
-0.564461
-0.585532
-0.607647
-0.630043
-0.652049
-0.673078
-0.692632
-0.710295
-0.725727
-0.738669
-0.748923
-0.756364
-0.760917
-0.762566
-0.761335
-0.757294
-0.750536
-0.741195
-0.729409
-0.715349
-0.699179
-0.681092
-0.661263
-0.639896
-0.617167
-0.593243
-0.56826
-0.542437
-0.515976
-0.489057
-0.461802
-0.434346
-0.406787
-0.379239
-0.351778
-0.324493
-0.297434
-0.270664
-0.244204
-0.218091
-0.192318
-0.166891
-0.14177
-0.116925
-0.0922639
-0.0677424
-0.042885
-0.0201621
-24.29
-24.3436
-24.3871
-24.4203
-24.4494
-24.4794
-24.5122
-24.5481
-24.587
-24.6285
-24.672
-24.717
-24.763
-24.8094
-24.8557
-24.9015
-24.9464
-24.9898
-25.0315
-25.0709
-25.1078
-25.1416
-25.172
-25.1986
-25.2208
-25.2383
-25.2505
-25.2569
-25.2571
-25.2505
-25.2366
-25.215
-25.1851
-25.1467
-25.0992
-25.0425
-24.9764
-24.9008
-24.8156
-24.721
-24.6174
-24.505
-24.3843
-24.256
-24.1207
-23.9793
-23.8329
-23.6829
-23.5305
-23.3768
-23.223
-23.0704
-22.92
-22.7732
-22.631
-22.4949
-22.3658
-22.2447
-22.132
-22.0285
-21.9346
-21.8508
-21.7772
-21.7142
-21.6618
-21.6198
-21.5882
-21.5665
-21.5545
-21.5514
-21.5568
-21.5697
-21.5894
-21.6148
-21.6447
-21.678
-21.7134
-21.7493
-21.7842
-21.8165
-21.8444
-21.8663
-21.8803
-21.8845
-21.877
-21.856
-21.8194
-21.7657
-21.6936
-21.6011
-21.4843
-21.3416
-21.1732
-20.9787
-20.7569
-20.5071
-20.2287
-19.9211
-19.5841
-19.2179
-18.823
-18.3999
-17.9498
-17.4741
-16.973
-16.448
-15.9017
-15.3369
-14.7555
-14.1587
-13.5495
-12.9314
-12.3068
-11.6779
-11.0482
-10.4206
-9.79743
-9.18187
-8.5764
-7.98354
-7.40574
-6.84518
-6.30388
-5.78363
-5.28601
-4.81238
-4.36388
-3.94139
-3.54563
-3.17703
-2.83584
-2.52213
-2.23575
-1.97632
-1.7432
-1.53553
-1.35224
-1.19215
-1.05395
-0.936234
-0.837555
-0.756418
-0.691315
-0.640726
-0.603158
-0.577128
-0.561207
-0.554002
-0.554188
-0.560498
-0.571748
-0.586823
-0.604702
-0.624439
-0.645187
-0.666184
-0.686759
-0.70633
-0.7244
-0.740557
-0.754469
-0.765879
-0.774597
-0.780505
-0.783532
-0.783675
-0.780958
-0.775465
-0.76729
-0.756577
-0.743466
-0.728135
-0.710747
-0.691504
-0.670582
-0.648186
-0.62445
-0.59954
-0.573663
-0.547067
-0.519908
-0.492358
-0.464533
-0.436572
-0.408567
-0.380636
-0.352845
-0.325289
-0.298008
-0.271071
-0.244491
-0.218308
-0.19251
-0.167108
-0.142057
-0.117331
-0.0928361
-0.0685529
-0.0439043
-0.0222717
-24.3182
-24.3665
-24.41
-24.4434
-24.4727
-24.5028
-24.5352
-24.5704
-24.6085
-24.649
-24.6915
-24.7355
-24.7806
-24.8262
-24.8718
-24.9171
-24.9616
-25.0049
-25.0465
-25.0862
-25.1233
-25.1576
-25.1886
-25.2158
-25.2387
-25.2569
-25.2697
-25.2767
-25.2774
-25.2711
-25.2573
-25.2356
-25.2053
-25.166
-25.1175
-25.0593
-24.9912
-24.9132
-24.8252
-24.7275
-24.6202
-24.5039
-24.3789
-24.2457
-24.1051
-23.9585
-23.8072
-23.6523
-23.4952
-23.337
-23.1791
-23.0226
-22.8688
-22.719
-22.5742
-22.4357
-22.3049
-22.1827
-22.07
-21.967
-21.8744
-21.7924
-21.7213
-21.6613
-21.6123
-21.5744
-21.5472
-21.5304
-21.5235
-21.526
-21.5372
-21.5562
-21.5821
-21.6138
-21.6502
-21.6901
-21.7319
-21.7743
-21.8157
-21.8544
-21.8886
-21.9166
-21.9365
-21.9464
-21.9444
-21.9286
-21.8969
-21.8479
-21.7804
-21.6914
-21.5771
-21.437
-21.2713
-21.0792
-20.8596
-20.6117
-20.335
-20.029
-19.6933
-19.328
-18.9338
-18.5112
-18.0612
-17.5852
-17.0843
-16.5592
-16.0125
-15.4466
-14.8638
-14.2657
-13.6552
-13.0354
-12.4088
-11.778
-11.1463
-10.5164
-9.89106
-9.27322
-8.66549
-8.0704
-7.49038
-6.92766
-6.38427
-5.86202
-5.36251
-4.88711
-4.43696
-4.01296
-3.61582
-3.24597
-2.90366
-2.58891
-2.30155
-2.04116
-1.80709
-1.59846
-1.41422
-1.25316
-1.11398
-0.995279
-0.895602
-0.813449
-0.74731
-0.695665
-0.657012
-0.62987
-0.612804
-0.604419
-0.603388
-0.608441
-0.618393
-0.632126
-0.648618
-0.666925
-0.686199
-0.705679
-0.724699
-0.742677
-0.759122
-0.773629
-0.785869
-0.795593
-0.802618
-0.806835
-0.808181
-0.80666
-0.802305
-0.795209
-0.785472
-0.773248
-0.758678
-0.741948
-0.723225
-0.702719
-0.680598
-0.657023
-0.632124
-0.606164
-0.579367
-0.55194
-0.524023
-0.495788
-0.467346
-0.438839
-0.410353
-0.382007
-0.353863
-0.326015
-0.298499
-0.271383
-0.244677
-0.218423
-0.192604
-0.167234
-0.142266
-0.117677
-0.0933724
-0.0693646
-0.044957
-0.0245479
-24.3478
-24.3917
-24.433
-24.4656
-24.4945
-24.5241
-24.5559
-24.5904
-24.6275
-24.6671
-24.7087
-24.7519
-24.7962
-24.8412
-24.8864
-24.9314
-24.9758
-25.0191
-25.061
-25.101
-25.1387
-25.1736
-25.2053
-25.2332
-25.2569
-25.2759
-25.2895
-25.2971
-25.2982
-25.2922
-25.2785
-25.2565
-25.2256
-25.1854
-25.1355
-25.0755
-25.0052
-24.9245
-24.8334
-24.7321
-24.6208
-24.5
-24.3699
-24.2311
-24.0851
-23.9333
-23.7768
-23.6168
-23.4547
-23.2919
-23.1296
-22.9692
-22.812
-22.6593
-22.5122
-22.3718
-22.2394
-22.1162
-22.0034
-21.9013
-21.8102
-21.7304
-21.6621
-21.6054
-21.5604
-21.5269
-21.5046
-21.493
-21.4918
-21.5002
-21.5175
-21.5428
-21.5752
-21.6136
-21.6566
-21.7032
-21.7517
-21.8007
-21.8486
-21.8937
-21.9343
-21.9683
-21.9941
-22.0097
-22.0131
-22.0023
-21.9754
-21.9312
-21.8681
-21.782
-21.6702
-21.5328
-21.3698
-21.1801
-20.9626
-20.7166
-20.4414
-20.1369
-19.8025
-19.4383
-19.0448
-18.6226
-18.1728
-17.6965
-17.195
-16.6694
-16.1219
-15.555
-14.9707
-14.3712
-13.7591
-13.1375
-12.509
-11.8763
-11.2425
-10.6105
-9.98312
-9.36319
-8.75338
-8.15627
-7.57429
-7.00968
-6.46449
-5.94055
-5.43948
-4.96263
-4.51117
-4.086
-3.6878
-3.31701
-2.97386
-2.65834
-2.37025
-2.10914
-1.87433
-1.66495
-1.47993
-1.31806
-1.17805
-1.05847
-0.957889
-0.874792
-0.80767
-0.754997
-0.715274
-0.687013
-0.668781
-0.659177
-0.656876
-0.660604
-0.669176
-0.681472
-0.696472
-0.713229
-0.730902
-0.748728
-0.766045
-0.782278
-0.79694
-0.809631
-0.820031
-0.8279
-0.833061
-0.835416
-0.834909
-0.831557
-0.825399
-0.816541
-0.805089
-0.791206
-0.775036
-0.756778
-0.736601
-0.714716
-0.691224
-0.666298
-0.640171
-0.613133
-0.585353
-0.557029
-0.528292
-0.499318
-0.47021
-0.441116
-0.412112
-0.383323
-0.354799
-0.32664
-0.298872
-0.271569
-0.24473
-0.218405
-0.192567
-0.167238
-0.142365
-0.117935
-0.0938483
-0.0701556
-0.0460223
-0.0269526
-24.3781
-24.4172
-24.4553
-24.486
-24.514
-24.5428
-24.5738
-24.6074
-24.6437
-24.6824
-24.7232
-24.7657
-24.8094
-24.854
-24.899
-24.9439
-24.9884
-25.032
-25.0743
-25.1148
-25.1532
-25.1889
-25.2214
-25.2502
-25.2748
-25.2946
-25.309
-25.3172
-25.3188
-25.313
-25.2993
-25.2769
-25.2453
-25.204
-25.1525
-25.0904
-25.0176
-24.9338
-24.8393
-24.734
-24.6183
-24.4922
-24.3563
-24.2119
-24.0605
-23.9032
-23.7412
-23.5759
-23.4087
-23.241
-23.0742
-22.9097
-22.749
-22.5934
-22.4442
-22.3022
-22.1687
-22.0447
-21.9316
-21.8304
-21.7411
-21.6639
-21.5988
-21.546
-21.5054
-21.4767
-21.4596
-21.4538
-21.4586
-21.4733
-21.4971
-21.5291
-21.5683
-21.6135
-21.6635
-21.7169
-21.7723
-21.8281
-21.8827
-21.9343
-21.9812
-22.0214
-22.053
-22.0742
-22.083
-22.0772
-22.0552
-22.0158
-21.9565
-21.873
-21.7637
-21.6292
-21.4689
-21.2815
-21.0661
-20.8219
-20.5483
-20.2448
-19.9114
-19.5478
-19.1547
-18.7328
-18.2828
-17.806
-17.3038
-16.7774
-16.229
-15.6608
-15.075
-14.474
-13.8603
-13.2369
-12.6065
-11.972
-11.3363
-10.7024
-10.0731
-9.45125
-8.83962
-8.24076
-7.65712
-7.09094
-6.5443
-6.01904
-5.51676
-5.03885
-4.58644
-4.16046
-3.76155
-3.39016
-3.04648
-2.73049
-2.44194
-2.18036
-1.94506
-1.73514
-1.54953
-1.38703
-1.24633
-1.12601
-1.02462
-0.940663
-0.872615
-0.818951
-0.778172
-0.748789
-0.729367
-0.718504
-0.714875
-0.717205
-0.724307
-0.735064
-0.748455
-0.763536
-0.779467
-0.79549
-0.810947
-0.825268
-0.837974
-0.848674
-0.857053
-0.862883
-0.865996
-0.866306
-0.863765
-0.858404
-0.85027
-0.839482
-0.826153
-0.810457
-0.792545
-0.772629
-0.750871
-0.727415
-0.702365
-0.676019
-0.648633
-0.620447
-0.591609
-0.56232
-0.532702
-0.502936
-0.473117
-0.443395
-0.413839
-0.384577
-0.355652
-0.327164
-0.299131
-0.271632
-0.244658
-0.21826
-0.192408
-0.167127
-0.142362
-0.118106
-0.0942571
-0.0709078
-0.0470709
-0.029421
-24.4077
-24.4419
-24.4758
-24.5043
-24.5309
-24.5586
-24.5886
-24.6213
-24.6566
-24.6945
-24.7346
-24.7765
-24.8198
-24.8642
-24.9091
-24.9541
-24.9989
-25.043
-25.0859
-25.1272
-25.1663
-25.2029
-25.2364
-25.2662
-25.2917
-25.3124
-25.3275
-25.3364
-25.3384
-25.3327
-25.3188
-25.2959
-25.2634
-25.2208
-25.1675
-25.1031
-25.0274
-24.9404
-24.842
-24.7324
-24.6114
-24.4794
-24.3379
-24.1879
-24.0307
-23.8675
-23.6997
-23.5287
-23.3561
-23.1833
-23.0117
-22.843
-22.6787
-22.5203
-22.3688
-22.2255
-22.0913
-21.9672
-21.8542
-21.7537
-21.6663
-21.5921
-21.5307
-21.4822
-21.4464
-21.423
-21.4118
-21.4121
-21.4233
-21.4447
-21.4754
-21.5145
-21.5608
-21.6132
-21.6704
-21.731
-21.7934
-21.8562
-21.9176
-21.9758
-22.0291
-22.0754
-22.113
-22.1399
-22.1539
-22.1531
-22.136
-22.1011
-22.045
-21.9639
-21.8572
-21.7255
-21.5677
-21.3825
-21.169
-20.9263
-20.6539
-20.3514
-20.0186
-19.6554
-19.2625
-18.8404
-18.3901
-17.9127
-17.4096
-16.8823
-16.3327
-15.7632
-15.176
-14.5733
-13.9581
-13.333
-12.7008
-12.0645
-11.427
-10.7914
-10.1604
-9.53696
-8.92379
-8.3235
-7.73853
-7.17115
-6.62344
-6.09723
-5.59415
-5.11556
-4.66262
-4.2362
-3.83697
-3.46533
-3.12146
-2.80531
-2.51659
-2.25482
-2.01928
-1.80905
-1.62307
-1.46012
-1.31888
-1.19795
-1.09587
-1.01112
-0.942203
-0.887583
-0.845764
-0.815251
-0.794615
-0.782449
-0.777432
-0.778285
-0.783826
-0.792935
-0.804597
-0.817867
-0.831911
-0.845975
-0.859407
-0.871645
-0.882217
-0.890742
-0.896915
-0.900518
-0.901395
-0.899472
-0.894712
-0.887161
-0.876874
-0.863986
-0.848615
-0.830954
-0.81116
-0.789452
-0.765912
-0.740682
-0.713995
-0.686198
-0.657478
-0.628064
-0.598093
-0.567771
-0.537213
-0.506602
-0.476024
-0.445636
-0.415494
-0.385733
-0.356382
-0.327549
-0.299238
-0.271535
-0.24442
-0.217951
-0.192088
-0.166864
-0.142218
-0.118154
-0.0945665
-0.0715919
-0.0480772
-0.0319136
-24.4355
-24.4648
-24.4942
-24.52
-24.5448
-24.5712
-24.6
-24.6316
-24.666
-24.7031
-24.7426
-24.784
-24.8271
-24.8714
-24.9164
-24.9618
-25.0071
-25.0517
-25.0954
-25.1375
-25.1776
-25.2152
-25.2497
-25.2804
-25.3069
-25.3284
-25.3442
-25.3537
-25.356
-25.3504
-25.3362
-25.3126
-25.2791
-25.235
-25.1796
-25.1127
-25.034
-24.9434
-24.8409
-24.726
-24.5989
-24.4611
-24.3138
-24.1579
-23.9945
-23.8251
-23.6512
-23.4742
-23.2958
-23.1176
-22.9413
-22.7684
-22.6006
-22.4392
-22.2858
-22.1413
-22.0068
-21.8832
-21.7711
-21.6717
-21.5863
-21.5151
-21.4578
-21.4141
-21.3836
-21.3661
-21.3611
-21.3679
-21.386
-21.4145
-21.4525
-21.4989
-21.5526
-21.6125
-21.677
-21.7449
-21.8146
-21.8844
-21.9527
-22.0176
-22.0773
-22.1299
-22.1734
-22.2058
-22.225
-22.2291
-22.2168
-22.1861
-22.1326
-22.0537
-21.9498
-21.8207
-21.6651
-21.4819
-21.27
-21.0286
-20.7572
-20.4554
-20.123
-19.7601
-19.3671
-18.9447
-18.4938
-18.0156
-17.5115
-16.9831
-16.4323
-15.8614
-15.2726
-14.6685
-14.0516
-13.4248
-12.791
-12.1531
-11.5141
-10.8769
-10.2445
-9.61976
-9.00537
-8.40399
-7.81806
-7.24986
-6.70147
-6.17473
-5.67126
-5.19242
-4.73933
-4.31289
-3.91372
-3.5422
-3.19849
-2.8825
-2.59393
-2.33225
-2.09673
-1.88644
-1.7003
-1.53709
-1.39549
-1.27409
-1.17143
-1.08599
-1.01628
-0.960755
-0.917922
-0.886289
-0.864426
-0.850926
-0.844471
-0.84378
-0.847676
-0.855039
-0.864856
-0.876188
-0.888204
-0.900157
-0.911404
-0.921388
-0.929649
-0.935817
-0.939596
-0.940784
-0.939235
-0.93489
-0.927725
-0.917799
-0.905181
-0.89002
-0.872445
-0.85267
-0.830854
-0.807154
-0.781608
-0.754509
-0.726156
-0.696829
-0.666688
-0.635964
-0.604787
-0.573367
-0.541809
-0.510304
-0.478924
-0.447832
-0.417074
-0.386788
-0.356993
-0.327798
-0.2992
-0.271287
-0.244029
-0.217489
-0.19162
-0.166461
-0.141945
-0.118087
-0.0947741
-0.0721938
-0.0490153
-0.0343665
-24.4609
-24.4853
-24.5101
-24.5329
-24.5556
-24.5803
-24.6077
-24.6382
-24.6717
-24.7081
-24.747
-24.7882
-24.8312
-24.8755
-24.9208
-24.9666
-25.0125
-25.0579
-25.1023
-25.1454
-25.1865
-25.2251
-25.2605
-25.2923
-25.3197
-25.342
-25.3585
-25.3684
-25.3709
-25.3653
-25.3506
-25.3263
-25.2915
-25.2456
-25.188
-25.1183
-25.0363
-24.9418
-24.834
-24.7131
-24.5802
-24.4365
-24.283
-24.1207
-23.9509
-23.775
-23.5947
-23.4116
-23.2274
-23.0439
-22.8627
-22.6857
-22.5144
-22.3504
-22.195
-22.0496
-21.9152
-21.7924
-21.6821
-21.5848
-21.5015
-21.4334
-21.3804
-21.3419
-21.3172
-21.3059
-21.3075
-21.3213
-21.3467
-21.3826
-21.4281
-21.4821
-21.5435
-21.611
-21.6831
-21.7585
-21.8355
-21.9125
-21.9877
-22.0593
-22.1254
-22.1841
-22.2335
-22.2713
-22.2956
-22.3046
-22.2969
-22.2696
-22.2183
-22.1418
-22.0407
-21.914
-21.7605
-21.5789
-21.3684
-21.1281
-20.8575
-20.5561
-20.2239
-19.8609
-19.4676
-19.0446
-18.593
-18.1139
-17.6087
-17.0791
-16.527
-15.9546
-15.3644
-14.7587
-14.1403
-13.512
-12.8767
-12.2374
-11.597
-10.9586
-10.325
-9.69923
-9.08397
-8.48185
-7.89534
-7.32672
-6.77806
-6.25121
-5.74776
-5.26908
-4.81628
-4.39021
-3.99148
-3.62046
-3.27725
-2.96176
-2.67364
-2.41234
-2.1771
-1.96699
-1.78092
-1.61764
-1.47585
-1.35412
-1.251
-1.16498
-1.09454
-1.03816
-0.994353
-0.961612
-0.938517
-0.923659
-0.915725
-0.913432
-0.915608
-0.921133
-0.929003
-0.938277
-0.948135
-0.957835
-0.966742
-0.974312
-0.980093
-0.983728
-0.984935
-0.983527
-0.979369
-0.972421
-0.962669
-0.950194
-0.935071
-0.917472
-0.89754
-0.875509
-0.851483
-0.825553
-0.79789
-0.7689
-0.7388
-0.707853
-0.676203
-0.644092
-0.611636
-0.579056
-0.546442
-0.513994
-0.48177
-0.44994
-0.418536
-0.387702
-0.357442
-0.327873
-0.298977