/*--------------------------------*- C++ -*----------------------------------*\
  =========                 |
  \\      /  F ield         | OpenFOAM: The Open Source CFD Toolbox
   \\    /   O peration     | Website:  https://openfoam.org
    \\  /    A nd           | Version:  7
     \\/     M anipulation  |
\*---------------------------------------------------------------------------*/
FoamFile
{
    version     2.0;
    format      ascii;
    class       surfaceScalarField;
    location    "350";
    object      phi;
}
// * * * * * * * * * * * * * * * * * * * * * * * * * * * * * * * * * * * * * //

dimensions      [0 3 -1 0 0 0 0];

internalField   nonuniform List<scalar> 
33502
(
1.5957e-08
-1.59319e-08
-1.44061e-08
3.04427e-08
-7.88162e-08
6.43944e-08
-1.68675e-07
8.99191e-08
-2.66016e-07
9.73009e-08
-3.79333e-07
1.13376e-07
-4.97184e-07
1.17817e-07
-6.07846e-07
1.10714e-07
-7.16483e-07
1.08603e-07
-8.21914e-07
1.05464e-07
-9.23642e-07
1.01703e-07
-1.02134e-06
9.77033e-08
-1.11499e-06
9.3645e-08
-1.20463e-06
8.96419e-08
-1.29041e-06
8.57693e-08
-1.37247e-06
8.20489e-08
-1.451e-06
7.85055e-08
-1.52614e-06
7.51376e-08
-1.5981e-06
7.19308e-08
-1.66698e-06
6.88863e-08
-1.73296e-06
6.5968e-08
-1.79612e-06
6.31701e-08
-1.85659e-06
6.04583e-08
-1.91441e-06
5.78196e-08
-1.96964e-06
5.52295e-08
-2.02232e-06
5.2666e-08
-2.07244e-06
5.01192e-08
-2.12001e-06
4.75696e-08
-2.16502e-06
4.50066e-08
-2.20745e-06
4.24217e-08
-2.24726e-06
3.98099e-08
-2.28443e-06
3.71694e-08
-2.31893e-06
3.4502e-08
-2.35074e-06
3.18129e-08
-2.37985e-06
2.9111e-08
-2.40626e-06
2.64079e-08
-2.42998e-06
2.37191e-08
-2.45104e-06
2.10621e-08
-2.4695e-06
1.84577e-08
-2.48542e-06
1.59282e-08
-2.49892e-06
1.34982e-08
-2.51011e-06
1.11928e-08
-2.51915e-06
9.0389e-09
-2.52621e-06
7.06262e-09
-2.5315e-06
5.29066e-09
-2.53524e-06
3.7481e-09
-2.5377e-06
2.45937e-09
-2.53914e-06
1.44618e-09
-2.53987e-06
7.28594e-10
-2.54019e-06
3.22729e-10
-2.54043e-06
2.41941e-10
-2.54092e-06
4.9402e-10
-2.542e-06
1.08277e-09
-2.544e-06
2.00527e-09
-2.54725e-06
3.25446e-09
-2.55207e-06
4.81672e-09
-2.55874e-06
6.67507e-09
-2.56754e-06
8.8065e-09
-2.57873e-06
1.11855e-08
-2.59251e-06
1.37812e-08
-2.60907e-06
1.65612e-08
-2.62856e-06
1.94885e-08
-2.65108e-06
2.25259e-08
-2.67672e-06
2.56323e-08
-2.70549e-06
2.87678e-08
-2.73738e-06
3.18897e-08
-2.77234e-06
3.49576e-08
-2.81028e-06
3.79295e-08
-2.85105e-06
4.07667e-08
-2.89449e-06
4.34299e-08
-2.94038e-06
4.5884e-08
-2.98848e-06
4.80943e-08
-3.03852e-06
5.00304e-08
-3.09019e-06
5.16634e-08
-3.14317e-06
5.29687e-08
-3.1971e-06
5.39237e-08
-3.25162e-06
5.45102e-08
-3.30634e-06
5.4712e-08
-3.36086e-06
5.4517e-08
-3.41479e-06
5.39157e-08
-3.4677e-06
5.29027e-08
-3.51918e-06
5.1475e-08
-3.56882e-06
4.96325e-08
-3.6162e-06
4.73769e-08
-3.66092e-06
4.47125e-08
-3.70257e-06
4.1647e-08
-3.74077e-06
3.81913e-08
-3.77513e-06
3.43582e-08
-3.8053e-06
3.01588e-08
-3.8309e-06
2.56009e-08
-3.85159e-06
2.0692e-08
-3.86704e-06
1.54489e-08
-3.87695e-06
9.89943e-09
-3.881e-06
4.04923e-09
-3.87895e-06
-2.0441e-09
-3.87066e-06
-8.28719e-09
-3.85599e-06
-1.46691e-08
-3.83479e-06
-2.11986e-08
-3.80693e-06
-2.78595e-08
-3.7723e-06
-3.46295e-08
-3.73081e-06
-4.1484e-08
-3.6824e-06
-4.83974e-08
-3.62706e-06
-5.5343e-08
-3.56475e-06
-6.22943e-08
-3.49552e-06
-6.92228e-08
-3.41942e-06
-7.60989e-08
-3.33652e-06
-8.28909e-08
-3.24694e-06
-8.95718e-08
-3.15082e-06
-9.61167e-08
-3.04831e-06
-1.02497e-07
-2.93962e-06
-1.0868e-07
-2.82497e-06
-1.14644e-07
-2.70459e-06
-1.20372e-07
-2.57875e-06
-1.25832e-07
-2.44775e-06
-1.30997e-07
-2.31187e-06
-1.35869e-07
-2.17144e-06
-1.40417e-07
-2.02683e-06
-1.44613e-07
-1.87833e-06
-1.4849e-07
-1.72633e-06
-1.52004e-07
-1.57119e-06
-1.55142e-07
-1.41324e-06
-1.57962e-07
-1.25289e-06
-1.60357e-07
-1.09036e-06
-1.62555e-07
-9.26021e-07
-1.64363e-07
-7.59989e-07
-1.66058e-07
-5.92554e-07
-1.67448e-07
-4.2411e-07
-1.68439e-07
-2.53313e-07
-1.70788e-07
-7.9517e-08
-1.73789e-07
9.39358e-08
-1.73446e-07
2.64479e-07
-1.70521e-07
4.31564e-07
-1.6705e-07
5.95002e-07
-1.63397e-07
7.54689e-07
-1.59648e-07
9.10499e-07
-1.5578e-07
1.06228e-06
-1.5176e-07
1.20988e-06
-1.47576e-07
1.35311e-06
-1.43223e-07
1.49182e-06
-1.38709e-07
1.62587e-06
-1.34045e-07
1.75512e-06
-1.29251e-07
1.87946e-06
-1.24343e-07
1.9988e-06
-1.19342e-07
2.11306e-06
-1.14269e-07
2.2222e-06
-1.09143e-07
2.32617e-06
-1.03985e-07
2.42498e-06
-9.88149e-08
2.51862e-06
-9.36505e-08
2.60712e-06
-8.85115e-08
2.69053e-06
-8.34145e-08
2.76889e-06
-7.83773e-08
2.8423e-06
-7.34154e-08
2.91083e-06
-6.85445e-08
2.9746e-06
-6.37786e-08
3.03373e-06
-5.91315e-08
3.08833e-06
-5.46154e-08
3.13857e-06
-5.02417e-08
3.18458e-06
-4.6021e-08
3.22654e-06
-4.19618e-08
3.2646e-06
-3.80729e-08
3.29896e-06
-3.436e-08
3.32978e-06
-3.08297e-08
3.35726e-06
-2.74851e-08
3.38159e-06
-2.43302e-08
3.40295e-06
-2.13655e-08
3.42154e-06
-1.85927e-08
3.43755e-06
-1.60096e-08
3.45117e-06
-1.36159e-08
3.46257e-06
-1.1407e-08
3.47195e-06
-9.38072e-09
3.47948e-06
-7.53066e-09
3.48534e-06
-5.85331e-09
3.48968e-06
-4.34109e-09
3.49267e-06
-2.99014e-09
3.49447e-06
-1.79451e-09
3.49523e-06
-7.63304e-10
3.49513e-06
1.01924e-10
3.4943e-06
8.34437e-10
3.49283e-06
1.46992e-09
3.49082e-06
2.01185e-09
3.48836e-06
2.46456e-09
3.48553e-06
2.8303e-09
3.48241e-06
3.11876e-09
3.47907e-06
3.33644e-09
3.47558e-06
3.49328e-09
3.47199e-06
3.59521e-09
3.46834e-06
3.65176e-09
3.46467e-06
3.66847e-09
3.46101e-06
3.65452e-09
3.45739e-06
3.61504e-09
3.45383e-06
3.55887e-09
3.45033e-06
3.49038e-09
3.44691e-06
3.41775e-09
3.44355e-06
3.34307e-09
3.44027e-06
3.27094e-09
3.43706e-06
3.19385e-09
3.43395e-06
3.09463e-09
3.43101e-06
2.91333e-09
2.53946e-09
-2.9187e-08
1.32446e-08
-8.02388e-08
8.15029e-08
-1.51102e-07
1.35254e-07
-2.34912e-07
1.73705e-07
-3.35558e-07
1.97953e-07
-4.33172e-07
2.10971e-07
-5.32369e-07
2.17027e-07
-6.34019e-07
2.12355e-07
-7.32178e-07
2.06775e-07
-8.27e-07
2.00285e-07
-9.18396e-07
1.93106e-07
-1.00628e-06
1.85592e-07
-1.09064e-06
1.78002e-07
-1.1715e-06
1.70516e-07
-1.24898e-06
1.63232e-07
-1.32315e-06
1.56227e-07
-1.39418e-06
1.4952e-07
-1.46217e-06
1.4313e-07
-1.52729e-06
1.37038e-07
-1.58963e-06
1.31225e-07
-1.64932e-06
1.25657e-07
-1.70645e-06
1.203e-07
-1.7611e-06
1.15112e-07
-1.81334e-06
1.10056e-07
-1.8632e-06
1.05092e-07
-1.91072e-06
1.00189e-07
-1.95592e-06
9.53099e-08
-1.99878e-06
9.04328e-08
-2.03931e-06
8.55351e-08
-2.07749e-06
8.06013e-08
-2.11331e-06
7.56223e-08
-2.14673e-06
7.05956e-08
-2.17776e-06
6.55248e-08
-2.20637e-06
6.04206e-08
-2.23255e-06
5.52996e-08
-2.25633e-06
5.01851e-08
-2.27772e-06
4.51057e-08
-2.29675e-06
4.00956e-08
-2.31348e-06
3.51933e-08
-2.328e-06
3.04415e-08
-2.34038e-06
2.58855e-08
-2.35076e-06
2.15736e-08
-2.35928e-06
1.75541e-08
-2.36609e-06
1.38771e-08
-2.37139e-06
1.05903e-08
-2.37538e-06
7.74111e-09
-2.37829e-06
5.37262e-09
-2.38037e-06
3.52553e-09
-2.38187e-06
2.23435e-09
-2.38308e-06
1.52932e-09
-2.38427e-06
1.43215e-09
-2.38573e-06
1.95774e-09
-2.38776e-06
3.10978e-09
-2.39063e-06
4.88347e-09
-2.39464e-06
7.26208e-09
-2.40004e-06
1.02214e-08
-2.40709e-06
1.37262e-08
-2.41602e-06
1.77354e-08
-2.42703e-06
2.21982e-08
-2.4403e-06
2.70593e-08
-2.456e-06
3.22555e-08
-2.47423e-06
3.77207e-08
-2.49509e-06
4.33825e-08
-2.51862e-06
4.91678e-08
-2.54485e-06
5.4999e-08
-2.57376e-06
6.07997e-08
-2.6053e-06
6.64915e-08
-2.63937e-06
7.19987e-08
-2.67585e-06
7.72457e-08
-2.71459e-06
8.21612e-08
-2.75538e-06
8.6676e-08
-2.79802e-06
9.07263e-08
-2.84224e-06
9.42517e-08
-2.88778e-06
9.71983e-08
-2.93434e-06
9.95167e-08
-2.98158e-06
1.01164e-07
-3.02918e-06
1.02103e-07
-3.07677e-06
1.02302e-07
-3.12399e-06
1.01736e-07
-3.17047e-06
1.00387e-07
-3.21581e-06
9.82403e-08
-3.25963e-06
9.52907e-08
-3.30154e-06
9.15358e-08
-3.34115e-06
8.69792e-08
-3.37807e-06
8.16287e-08
-3.41192e-06
7.5498e-08
-3.44234e-06
6.86061e-08
-3.46896e-06
6.09765e-08
-3.49144e-06
5.26324e-08
-3.50943e-06
4.35932e-08
-3.52262e-06
3.38765e-08
-3.53068e-06
2.35105e-08
-3.53332e-06
1.25413e-08
-3.53029e-06
1.02119e-09
-3.52144e-06
-1.09017e-08
-3.5066e-06
-2.31233e-08
-3.48561e-06
-3.566e-08
-3.45831e-06
-4.8492e-08
-3.42459e-06
-6.15814e-08
-3.38434e-06
-7.4882e-08
-3.33747e-06
-8.83453e-08
-3.28395e-06
-1.01921e-07
-3.22373e-06
-1.15556e-07
-3.15682e-06
-1.292e-07
-3.08324e-06
-1.42797e-07
-3.00305e-06
-1.56288e-07
-2.91633e-06
-1.69612e-07
-2.82318e-06
-1.82715e-07
-2.72374e-06
-1.95551e-07
-2.61817e-06
-2.08065e-07
-2.50666e-06
-2.20191e-07
-2.38941e-06
-2.31884e-07
-2.26666e-06
-2.43119e-07
-2.13866e-06
-2.53835e-07
-2.00568e-06
-2.63972e-07
-1.868e-06
-2.73541e-07
-1.72593e-06
-2.82491e-07
-1.57978e-06
-2.90754e-07
-1.42986e-06
-2.98409e-07
-1.27648e-06
-3.05386e-07
-1.11999e-06
-3.11638e-07
-9.60629e-07
-3.17327e-07
-7.9876e-07
-3.22233e-07
-6.3458e-07
-3.26746e-07
-4.68279e-07
-3.30677e-07
-3.00108e-07
-3.34242e-07
-1.29361e-07
-3.38201e-07
4.31669e-08
-3.40967e-07
2.14586e-07
-3.42204e-07
3.83552e-07
-3.42754e-07
5.50303e-07
-3.40196e-07
7.14503e-07
-3.34716e-07
8.76043e-07
-3.28581e-07
1.03468e-06
-3.22024e-07
1.19015e-06
-3.15102e-07
1.34219e-06
-3.07805e-07
1.49056e-06
-3.0012e-07
1.63504e-06
-2.9205e-07
1.77543e-06
-2.83612e-07
1.91156e-06
-2.74832e-07
2.04326e-06
-2.65745e-07
2.17039e-06
-2.56388e-07
2.29285e-06
-2.46802e-07
2.41054e-06
-2.37029e-07
2.52337e-06
-2.27109e-07
2.63131e-06
-2.17085e-07
2.73432e-06
-2.06996e-07
2.83238e-06
-1.9688e-07
2.9255e-06
-1.86777e-07
3.0137e-06
-1.76722e-07
3.09703e-06
-1.66749e-07
3.17554e-06
-1.56893e-07
3.24931e-06
-1.47184e-07
3.31841e-06
-1.37653e-07
3.38295e-06
-1.28326e-07
3.44305e-06
-1.19232e-07
3.49882e-06
-1.10393e-07
3.55041e-06
-1.01831e-07
3.59795e-06
-9.35662e-08
3.6416e-06
-8.56165e-08
3.68152e-06
-7.79967e-08
3.71788e-06
-7.07198e-08
3.75084e-06
-6.37959e-08
3.78059e-06
-5.72331e-08
3.80729e-06
-5.10368e-08
3.83114e-06
-4.52101e-08
3.8523e-06
-3.97534e-08
3.87095e-06
-3.46654e-08
3.88728e-06
-2.99419e-08
3.90145e-06
-2.55775e-08
3.91363e-06
-2.15645e-08
3.924e-06
-1.7894e-08
3.9327e-06
-1.45555e-08
3.9399e-06
-1.15379e-08
3.94574e-06
-8.82895e-09
3.95036e-06
-6.41655e-09
3.95389e-06
-4.28796e-09
3.95642e-06
-2.43147e-09
3.9581e-06
-8.42465e-10
3.95907e-06
4.99096e-10
3.95945e-06
1.63431e-09
3.95933e-06
2.5836e-09
3.95881e-06
3.35686e-09
3.95796e-06
3.97137e-09
3.95685e-06
4.44479e-09
3.95555e-06
4.79355e-09
3.95411e-06
5.03368e-09
3.95259e-06
5.18048e-09
3.95101e-06
5.24899e-09
3.94941e-06
5.25362e-09
3.94781e-06
5.20856e-09
3.94624e-06
5.12727e-09
3.94471e-06
5.02278e-09
3.94321e-06
4.90665e-09
3.94176e-06
4.78847e-09
3.94035e-06
4.67258e-09
3.93898e-06
4.55336e-09
3.93766e-06
4.40425e-09
3.93639e-06
4.15974e-09
3.80609e-09
-5.50712e-08
6.82933e-08
-1.208e-07
1.47208e-07
-1.96508e-07
2.10931e-07
-2.78705e-07
2.55888e-07
-3.65197e-07
2.84411e-07
-4.52656e-07
2.98434e-07
-5.38635e-07
3.02993e-07
-6.25524e-07
2.99258e-07
-7.10882e-07
2.92132e-07
-7.93862e-07
2.83282e-07
-8.74188e-07
2.7343e-07
-9.51688e-07
2.631e-07
-1.02631e-06
2.52624e-07
-1.09803e-06
2.42245e-07
-1.16691e-06
2.32115e-07
-1.23302e-06
2.22327e-07
-1.29643e-06
2.12931e-07
-1.35725e-06
2.0394e-07
-1.41556e-06
1.95346e-07
-1.47145e-06
1.87121e-07
-1.52502e-06
1.79225e-07
-1.57633e-06
1.7161e-07
-1.62544e-06
1.64224e-07
-1.6724e-06
1.57015e-07
-1.71724e-06
1.49932e-07
-1.75998e-06
1.42924e-07
-1.80062e-06
1.35953e-07
-1.83917e-06
1.2898e-07
-1.87561e-06
1.21977e-07
-1.90993e-06
1.14922e-07
-1.94212e-06
1.07803e-07
-1.97214e-06
1.00618e-07
-1.99999e-06
9.33732e-08
-2.02565e-06
8.60832e-08
-2.04912e-06
7.87732e-08
-2.07041e-06
7.14768e-08
-2.08954e-06
6.42354e-08
-2.10655e-06
5.7098e-08
-2.12147e-06
5.012e-08
-2.13439e-06
4.33622e-08
-2.1454e-06
3.68896e-08
-2.15459e-06
3.07701e-08
-2.16211e-06
2.50732e-08
-2.1681e-06
1.98684e-08
-2.17273e-06
1.5224e-08
-2.1762e-06
1.12052e-08
-2.1787e-06
7.87308e-09
-2.18045e-06
5.2829e-09
-2.1817e-06
3.48318e-09
-2.18269e-06
2.51402e-09
-2.18366e-06
2.40599e-09
-2.18488e-06
3.17746e-09
-2.1866e-06
4.83368e-09
-2.18908e-06
7.36487e-09
-2.19257e-06
1.07473e-08
-2.19729e-06
1.49438e-08
-2.20347e-06
1.99052e-08
-2.2113e-06
2.55705e-08
-2.22097e-06
3.1869e-08
-2.23263e-06
3.87205e-08
-2.24641e-06
4.60372e-08
-2.26242e-06
5.3724e-08
-2.28071e-06
6.16808e-08
-2.30135e-06
6.98029e-08
-2.32433e-06
7.7983e-08
-2.34965e-06
8.6112e-08
-2.37724e-06
9.40813e-08
-2.40702e-06
1.01783e-07
-2.43889e-06
1.09111e-07
-2.4727e-06
1.15964e-07
-2.50827e-06
1.22244e-07
-2.5454e-06
1.27861e-07
-2.58388e-06
1.32728e-07
-2.62345e-06
1.36766e-07
-2.66385e-06
1.39907e-07
-2.70477e-06
1.42086e-07
-2.74592e-06
1.43249e-07
-2.78697e-06
1.43349e-07
-2.82759e-06
1.4235e-07
-2.86743e-06
1.40222e-07
-2.90614e-06
1.36944e-07
-2.94335e-06
1.32505e-07
-2.97872e-06
1.269e-07
-3.01188e-06
1.20133e-07
-3.04246e-06
1.12213e-07
-3.07013e-06
1.03158e-07
-3.09452e-06
9.29938e-08
-3.11529e-06
8.17507e-08
-3.13213e-06
6.9463e-08
-3.1447e-06
5.61614e-08
-3.1527e-06
4.18751e-08
-3.15583e-06
2.66473e-08
-3.15382e-06
1.05312e-08
-3.14649e-06
-6.31382e-09
-3.13369e-06
-2.37013e-08
-3.11523e-06
-4.15834e-08
-3.09094e-06
-5.99453e-08
-3.06068e-06
-7.87471e-08
-3.02433e-06
-9.79298e-08
-2.98179e-06
-1.17425e-07
-2.93297e-06
-1.37159e-07
-2.87783e-06
-1.57059e-07
-2.81634e-06
-1.77048e-07
-2.74848e-06
-1.97051e-07
-2.67429e-06
-2.1699e-07
-2.5938e-06
-2.36774e-07
-2.50709e-06
-2.56312e-07
-2.41428e-06
-2.75526e-07
-2.31547e-06
-2.94353e-07
-2.21082e-06
-3.12713e-07
-2.1005e-06
-3.30504e-07
-1.98473e-06
-3.47658e-07
-1.86369e-06
-3.64151e-07
-1.73763e-06
-3.79893e-07
-1.60682e-06
-3.94781e-07
-1.47151e-06
-4.08847e-07
-1.33196e-06
-4.22034e-07
-1.18851e-06
-4.34205e-07
-1.0414e-06
-4.45509e-07
-8.90918e-07
-4.55872e-07
-7.37412e-07
-4.65146e-07
-5.81062e-07
-4.73679e-07
-4.22146e-07
-4.81153e-07
-2.6095e-07
-4.87948e-07
-9.71728e-08
-4.94462e-07
6.81427e-08
-4.99564e-07
2.3308e-07
-5.03141e-07
3.9715e-07
-5.05035e-07
5.59968e-07
-5.05019e-07
7.20609e-07
-5.03394e-07
8.79327e-07
-4.98913e-07
1.03641e-06
-4.91797e-07
1.19129e-06
-4.83447e-07
1.34352e-06
-4.74249e-07
1.49276e-06
-4.6433e-07
1.6387e-06
-4.53735e-07
1.78108e-06
-4.42497e-07
1.91969e-06
-4.30649e-07
2.05432e-06
-4.18235e-07
2.18479e-06
-4.05306e-07
2.31097e-06
-3.91919e-07
2.43272e-06
-3.78135e-07
2.54993e-06
-3.64016e-07
2.66253e-06
-3.49624e-07
2.77044e-06
-3.3502e-07
2.87362e-06
-3.20267e-07
2.97204e-06
-3.05423e-07
3.0657e-06
-2.90547e-07
3.15462e-06
-2.75693e-07
3.23881e-06
-2.60915e-07
3.31832e-06
-2.46264e-07
3.39321e-06
-2.31788e-07
3.46355e-06
-2.17534e-07
3.52944e-06
-2.03545e-07
3.59097e-06
-1.89863e-07
3.64826e-06
-1.76524e-07
3.70143e-06
-1.63565e-07
3.75061e-06
-1.51016e-07
3.79594e-06
-1.38907e-07
3.83759e-06
-1.27263e-07
3.87569e-06
-1.16105e-07
3.91042e-06
-1.05453e-07
3.94194e-06
-9.53197e-08
3.97042e-06
-8.57172e-08
3.99603e-06
-7.6653e-08
4.01895e-06
-6.81304e-08
4.03935e-06
-6.01505e-08
4.05739e-06
-5.27096e-08
4.07325e-06
-4.58025e-08
4.08709e-06
-3.94195e-08
4.09908e-06
-3.35501e-08
4.10936e-06
-2.81798e-08
4.1181e-06
-2.32941e-08
4.12544e-06
-1.8875e-08
4.13151e-06
-1.49054e-08
4.13646e-06
-1.1365e-08
4.14041e-06
-8.2344e-09
4.14347e-06
-5.49137e-09
4.14574e-06
-3.1162e-09
4.14733e-06
-1.09215e-09
4.14836e-06
6.04807e-10
4.14894e-06
2.01114e-09
4.14914e-06
3.15543e-09
4.14904e-06
4.06695e-09
4.14872e-06
4.77039e-09
4.14822e-06
5.29147e-09
4.1476e-06
5.6524e-09
4.1469e-06
5.87709e-09
4.14616e-06
5.98618e-09
4.14541e-06
6.00229e-09
4.14467e-06
5.94473e-09
4.14396e-06
5.83482e-09
4.14329e-06
5.69024e-09
4.14266e-06
5.53e-09
4.14208e-06
5.36735e-09
4.14153e-06
5.2131e-09
4.14101e-06
5.0637e-09
4.1405e-06
4.90118e-09
4.13997e-06
4.67663e-09
4.51725e-09
-6.72093e-08
1.35449e-07
-1.41795e-07
2.21771e-07
-2.18872e-07
2.87979e-07
-2.96392e-07
3.33381e-07
-3.73431e-07
3.61436e-07
-4.50181e-07
3.75176e-07
-5.25792e-07
3.78606e-07
-6.01076e-07
3.74545e-07
-6.75241e-07
3.66307e-07
-7.47678e-07
3.55723e-07
-8.18052e-07
3.43816e-07
-8.86187e-07
3.31235e-07
-9.51981e-07
3.18423e-07
-1.0154e-06
3.05672e-07
-1.07647e-06
2.93176e-07
-1.1352e-06
2.81059e-07
-1.19165e-06
2.69384e-07
-1.24589e-06
2.58178e-07
-1.29798e-06
2.47432e-07
-1.34798e-06
2.37117e-07
-1.39594e-06
2.2719e-07
-1.44192e-06
2.17593e-07
-1.48596e-06
2.08265e-07
-1.52809e-06
1.99144e-07
-1.56833e-06
1.90166e-07
-1.60668e-06
1.81276e-07
-1.64314e-06
1.72416e-07
-1.67771e-06
1.63547e-07
-1.71036e-06
1.54631e-07
-1.74109e-06
1.45644e-07
-1.76985e-06
1.3657e-07
-1.79664e-06
1.27408e-07
-1.82144e-06
1.18166e-07
-1.84422e-06
1.08864e-07
-1.86498e-06
9.95364e-08
-1.88373e-06
9.02253e-08
-1.90048e-06
8.09851e-08
-1.91526e-06
7.1879e-08
-1.92812e-06
6.29783e-08
-1.93912e-06
5.43612e-08
-1.94834e-06
4.61109e-08
-1.95588e-06
3.83144e-08
-1.96187e-06
3.10603e-08
-1.96643e-06
2.44372e-08
-1.96974e-06
1.85314e-08
-1.97196e-06
1.34256e-08
-1.97328e-06
9.1962e-09
-1.97391e-06
5.91255e-09
-1.97406e-06
3.63437e-09
-1.97396e-06
2.41135e-09
-1.97383e-06
2.28057e-09
-1.97392e-06
3.26428e-09
-1.97445e-06
5.36748e-09
-1.97566e-06
8.57659e-09
-1.97777e-06
1.28593e-08
-1.981e-06
1.81675e-08
-1.98553e-06
2.44367e-08
-1.99155e-06
3.15891e-08
-1.99921e-06
3.95336e-08
-2.00866e-06
4.81685e-08
-2.02e-06
5.73817e-08
-2.03333e-06
6.70534e-08
-2.04871e-06
7.70568e-08
-2.06616e-06
8.72602e-08
-2.08571e-06
9.75282e-08
-2.10732e-06
1.07724e-07
-2.13095e-06
1.17711e-07
-2.15652e-06
1.27352e-07
-2.18393e-06
1.36516e-07
-2.21304e-06
1.45073e-07
-2.24369e-06
1.52901e-07
-2.27572e-06
1.59883e-07
-2.3089e-06
1.65911e-07
-2.34302e-06
1.70885e-07
-2.37783e-06
1.74714e-07
-2.41307e-06
1.77317e-07
-2.44844e-06
1.78624e-07
-2.48367e-06
1.78573e-07
-2.51844e-06
1.77115e-07
-2.55243e-06
1.74212e-07
-2.58532e-06
1.69833e-07
-2.61678e-06
1.63961e-07
-2.64647e-06
1.56589e-07
-2.67405e-06
1.47718e-07
-2.6992e-06
1.3736e-07
-2.72158e-06
1.25534e-07
-2.74086e-06
1.12269e-07
-2.75671e-06
9.76051e-08
-2.76883e-06
8.15832e-08
-2.77692e-06
6.42437e-08
-2.78067e-06
4.56272e-08
-2.77982e-06
2.57973e-08
-2.77413e-06
4.84024e-09
-2.76344e-06
-1.70024e-08
-2.7476e-06
-3.95397e-08
-2.72643e-06
-6.27632e-08
-2.69974e-06
-8.66314e-08
-2.6674e-06
-1.11083e-07
-2.62929e-06
-1.36039e-07
-2.58531e-06
-1.61407e-07
-2.53538e-06
-1.8709e-07
-2.47944e-06
-2.12992e-07
-2.41747e-06
-2.39015e-07
-2.34946e-06
-2.65062e-07
-2.27542e-06
-2.91032e-07
-2.19538e-06
-3.16805e-07
-2.10943e-06
-3.42258e-07
-2.01767e-06
-3.67289e-07
-1.9202e-06
-3.91823e-07
-1.81715e-06
-4.15762e-07
-1.70869e-06
-4.38961e-07
-1.59502e-06
-4.61321e-07
-1.47634e-06
-4.82838e-07
-1.35283e-06
-5.03397e-07
-1.22478e-06
-5.22832e-07
-1.09242e-06
-5.41204e-07
-9.55974e-07
-5.5848e-07
-8.15759e-07
-5.74419e-07
-6.72034e-07
-5.89236e-07
-5.24991e-07
-6.02916e-07
-3.75004e-07
-6.15136e-07
-2.2229e-07
-6.26396e-07
-6.66955e-08
-6.36752e-07
9.07189e-08
-6.45368e-07
2.48488e-07
-6.52237e-07
4.06257e-07
-6.57338e-07
5.6351e-07
-6.60397e-07
7.19808e-07
-6.61333e-07
8.74809e-07
-6.60019e-07
1.02794e-06
-6.56527e-07
1.17932e-06
-6.50291e-07
1.32906e-06
-6.41536e-07
1.47671e-06
-6.31096e-07
1.62184e-06
-6.19374e-07
1.76408e-06
-6.06563e-07
1.90312e-06
-5.9277e-07
2.0387e-06
-5.78072e-07
2.1706e-06
-5.62541e-07
2.29861e-06
-5.46252e-07
2.42259e-06
-5.29281e-07
2.54238e-06
-5.1171e-07
2.65787e-06
-4.93623e-07
2.76895e-06
-4.75102e-07
2.87556e-06
-4.56231e-07
2.97763e-06
-4.37092e-07
3.07513e-06
-4.17765e-07
3.16803e-06
-3.98329e-07
3.25634e-06
-3.78857e-07
3.34007e-06
-3.59424e-07
3.41925e-06
-3.40099e-07
3.49393e-06
-3.20947e-07
3.56417e-06
-3.02034e-07
3.63006e-06
-2.83419e-07
3.69167e-06
-2.65159e-07
3.74911e-06
-2.47306e-07
3.80249e-06
-2.29911e-07
3.85194e-06
-2.13018e-07
3.89759e-06
-1.96669e-07
3.93959e-06
-1.80901e-07
3.97807e-06
-1.65746e-07
4.01319e-06
-1.51233e-07
4.04512e-06
-1.37384e-07
4.07402e-06
-1.24218e-07
4.10005e-06
-1.11748e-07
4.12338e-06
-9.99849e-08
4.14418e-06
-8.89316e-08
4.16262e-06
-7.8588e-08
4.17886e-06
-6.89497e-08
4.19307e-06
-6.00081e-08
4.2054e-06
-5.17508e-08
4.21601e-06
-4.41624e-08
4.22505e-06
-3.72245e-08
4.23268e-06
-3.09162e-08
4.23902e-06
-2.5215e-08
4.24421e-06
-2.00964e-08
4.24838e-06
-1.55347e-08
4.25165e-06
-1.15026e-08
4.25413e-06
-7.97177e-09
4.25593e-06
-4.91311e-09
4.25714e-06
-2.29879e-09
4.25785e-06
-1.10583e-10
4.25818e-06
1.6869e-09
4.25819e-06
3.14424e-09
4.25796e-06
4.29988e-09
4.25754e-06
5.18718e-09
4.257e-06
5.83819e-09
4.25637e-06
6.28322e-09
4.2557e-06
6.55191e-09
4.25501e-06
6.67249e-09
4.25434e-06
6.67291e-09
4.25371e-06
6.57974e-09
4.25312e-06
6.41926e-09
4.25259e-06
6.21616e-09
4.25213e-06
5.9941e-09
4.25172e-06
5.77335e-09
4.25135e-06
5.56955e-09
4.25102e-06
5.38811e-09
4.25069e-06
5.2245e-09
4.25029e-06
5.05859e-09
5.15829e-09
-7.8775e-08
2.1419e-07
-1.53653e-07
2.96624e-07
-2.27408e-07
3.61715e-07
-2.98469e-07
4.04426e-07
-3.67261e-07
4.3022e-07
-4.34704e-07
4.42616e-07
-5.01041e-07
4.44944e-07
-5.66614e-07
4.40123e-07
-6.31133e-07
4.3083e-07
-6.94239e-07
4.18838e-07
-7.5569e-07
4.05269e-07
-8.15321e-07
3.90874e-07
-8.73046e-07
3.76151e-07
-9.28819e-07
3.61446e-07
-9.8263e-07
3.46989e-07
-1.03449e-06
3.32922e-07
-1.08444e-06
3.19328e-07
-1.1325e-06
3.06238e-07
-1.17872e-06
2.93652e-07
-1.22314e-06
2.81537e-07
-1.2658e-06
2.69845e-07
-1.30672e-06
2.58515e-07
-1.34593e-06
2.47477e-07
-1.38345e-06
2.3666e-07
-1.41927e-06
2.25993e-07
-1.4534e-06
2.15406e-07
-1.48583e-06
2.04843e-07
-1.51653e-06
1.94249e-07
-1.54549e-06
1.83585e-07
-1.57267e-06
1.72822e-07
-1.59804e-06
1.61943e-07
-1.62158e-06
1.50947e-07
-1.64326e-06
1.39846e-07
-1.66306e-06
1.28666e-07
-1.68097e-06
1.17447e-07
-1.69699e-06
1.06243e-07
-1.71112e-06
9.512e-08
-1.7234e-06
8.41555e-08
-1.73386e-06
7.34365e-08
-1.74255e-06
6.30582e-08
-1.74956e-06
5.31218e-08
-1.75498e-06
4.37326e-08
-1.75892e-06
3.4998e-08
-1.76151e-06
2.70247e-08
-1.76289e-06
1.9917e-08
-1.76324e-06
1.37737e-08
-1.76273e-06
8.68623e-09
-1.76155e-06
4.73694e-09
-1.75991e-06
1.99609e-09
-1.75802e-06
5.21112e-10
-1.7561e-06
3.54738e-10
-1.75435e-06
1.52112e-09
-1.75301e-06
4.02521e-09
-1.75228e-06
7.84893e-09
-1.75238e-06
1.29522e-08
-1.75348e-06
1.92756e-08
-1.75579e-06
2.67407e-08
-1.75945e-06
3.52524e-08
-1.76462e-06
4.47008e-08
-1.77141e-06
5.49628e-08
-1.77993e-06
6.59045e-08
-1.79026e-06
7.73822e-08
-1.80245e-06
8.92448e-08
-1.81653e-06
1.01335e-07
-1.83249e-06
1.13493e-07
-1.85033e-06
1.25556e-07
-1.86998e-06
1.37361e-07
-1.89137e-06
1.48748e-07
-1.91442e-06
1.59559e-07
-1.93899e-06
1.69641e-07
-1.96494e-06
1.78849e-07
-1.9921e-06
1.87044e-07
-2.02029e-06
1.94097e-07
-2.04929e-06
1.99887e-07
-2.07889e-06
2.04307e-07
-2.10883e-06
2.07258e-07
-2.13886e-06
2.08653e-07
-2.16871e-06
2.0842e-07
-2.1981e-06
2.06497e-07
-2.22672e-06
2.02834e-07
-2.25429e-06
1.97395e-07
-2.28048e-06
1.90156e-07
-2.305e-06
1.81105e-07
-2.32753e-06
1.70241e-07
-2.34774e-06
1.57576e-07
-2.36534e-06
1.43131e-07
-2.38002e-06
1.2694e-07
-2.39146e-06
1.09045e-07
-2.39937e-06
8.94978e-08
-2.40347e-06
6.8344e-08
-2.40348e-06
4.56351e-08
-2.39913e-06
2.14461e-08
-2.39026e-06
-4.0304e-09
-2.37674e-06
-3.05282e-08
-2.35835e-06
-5.79247e-08
-2.33493e-06
-8.61846e-08
-2.30631e-06
-1.1525e-07
-2.27235e-06
-1.45043e-07
-2.23292e-06
-1.75462e-07
-2.18794e-06
-2.06392e-07
-2.13731e-06
-2.37712e-07
-2.081e-06
-2.69306e-07
-2.01896e-06
-3.01052e-07
-1.95118e-06
-3.32834e-07
-1.87768e-06
-3.64538e-07
-1.79847e-06
-3.96008e-07
-1.71364e-06
-4.27088e-07
-1.62327e-06
-4.57651e-07
-1.52748e-06
-4.87616e-07
-1.42636e-06
-5.16877e-07
-1.32008e-06
-5.4524e-07
-1.20883e-06
-5.72563e-07
-1.09279e-06
-5.98875e-07
-9.7213e-07
-6.24056e-07
-8.47106e-07
-6.47852e-07
-7.17968e-07
-6.70339e-07
-5.84892e-07
-6.91554e-07
-4.48147e-07
-7.11161e-07
-3.08047e-07
-7.29334e-07
-1.64747e-07
-7.46216e-07
-1.83291e-08
-7.61554e-07
1.30199e-07
-7.74926e-07
2.798e-07
-7.86354e-07
4.30198e-07
-7.95769e-07
5.80873e-07
-8.02916e-07
7.31335e-07
-8.07804e-07
8.81185e-07
-8.10247e-07
1.03004e-06
-8.10183e-07
1.17757e-06
-8.07553e-07
1.32341e-06
-8.02366e-07
1.46752e-06
-7.944e-07
1.60987e-06
-7.83876e-07
1.7501e-06
-7.71329e-07
1.88786e-06
-7.57125e-07
2.0228e-06
-7.4149e-07
2.15461e-06
-7.24578e-07
2.28305e-06
-7.06509e-07
2.40791e-06
-6.87391e-07
2.52899e-06
-6.67329e-07
2.64614e-06
-6.46427e-07
2.75922e-06
-6.2479e-07
2.86813e-06
-6.02525e-07
2.97276e-06
-5.79736e-07
3.07306e-06
-5.56527e-07
3.16897e-06
-5.32999e-07
3.26045e-06
-5.09251e-07
3.3475e-06
-4.85379e-07
3.43011e-06
-4.61475e-07
3.50832e-06
-4.37628e-07
3.58214e-06
-4.13924e-07
3.65163e-06
-3.90444e-07
3.71686e-06
-3.67267e-07
3.7779e-06
-3.44465e-07
3.83485e-06
-3.22109e-07
3.8878e-06
-3.00262e-07
3.93687e-06
-2.78987e-07
3.98219e-06
-2.58337e-07
4.02388e-06
-2.38363e-07
4.06208e-06
-2.1911e-07
4.09695e-06
-2.00617e-07
4.12863e-06
-1.82919e-07
4.15729e-06
-1.66042e-07
4.18308e-06
-1.5001e-07
4.20617e-06
-1.34837e-07
4.22671e-06
-1.20535e-07
4.24489e-06
-1.07108e-07
4.26085e-06
-9.45538e-08
4.27477e-06
-8.28666e-08
4.28679e-06
-7.20352e-08
4.29708e-06
-6.2043e-08
4.30579e-06
-5.28706e-08
4.31306e-06
-4.4494e-08
4.31903e-06
-3.68879e-08
4.32384e-06
-3.00227e-08
4.32761e-06
-2.38688e-08
4.33047e-06
-1.83933e-08
4.33253e-06
-1.35634e-08
4.3339e-06
-9.34329e-09
4.33469e-06
-5.69878e-09
4.33498e-06
-2.59571e-09
4.33488e-06
-9.78774e-12
4.33446e-06
2.10593e-09
4.3338e-06
3.81097e-09
4.33294e-06
5.15222e-09
4.33196e-06
6.16902e-09
4.3309e-06
6.9013e-09
4.3298e-06
7.38495e-09
4.32869e-06
7.65706e-09
4.32761e-06
7.7511e-09
4.32658e-06
7.70211e-09
4.32561e-06
7.54157e-09
4.32473e-06
7.30264e-09
4.32392e-06
7.01475e-09
4.32321e-06
6.70852e-09
4.32256e-06
6.4094e-09
4.32199e-06
6.14134e-09
4.32145e-06
5.91826e-09
4.32091e-06
5.75428e-09
4.3203e-06
5.65507e-09
6.0173e-09
-8.08107e-08
2.94969e-07
-1.56737e-07
3.72536e-07
-2.25689e-07
4.30653e-07
-2.89991e-07
4.68719e-07
-3.51286e-07
4.91509e-07
-4.10654e-07
5.01982e-07
-4.68691e-07
5.02983e-07
-5.25722e-07
4.97156e-07
-5.81684e-07
4.86797e-07
-6.36409e-07
4.73567e-07
-6.8974e-07
4.58609e-07
-7.4157e-07
4.42705e-07
-7.91823e-07
4.26407e-07
-8.40463e-07
4.10088e-07
-8.87474e-07
3.94001e-07
-9.3286e-07
3.78308e-07
-9.76635e-07
3.63101e-07
-1.01882e-06
3.48422e-07
-1.05944e-06
3.34268e-07
-1.09851e-06
3.2061e-07
-1.13606e-06
3.07394e-07
-1.1721e-06
2.94555e-07
-1.20664e-06
2.82017e-07
-1.23967e-06
2.69699e-07
-1.2712e-06
2.57521e-07
-1.30121e-06
2.45413e-07
-1.32967e-06
2.33301e-07
-1.35655e-06
2.21132e-07
-1.38183e-06
2.08859e-07
-1.40546e-06
1.96451e-07
-1.42741e-06
1.8389e-07
-1.44763e-06
1.71175e-07
-1.46611e-06
1.58322e-07
-1.48281e-06
1.45363e-07
-1.49771e-06
1.32347e-07
-1.5108e-06
1.19336e-07
-1.52209e-06
1.06411e-07
-1.5316e-06
9.36621e-08
-1.53935e-06
8.1193e-08
-1.54541e-06
6.91159e-08
-1.54984e-06
5.75499e-08
-1.55273e-06
4.66191e-08
-1.55418e-06
3.64492e-08
-1.55432e-06
2.71656e-08
-1.55329e-06
1.88899e-08
-1.55125e-06
1.17374e-08
-1.54838e-06
5.81406e-09
-1.54486e-06
1.21603e-09
-1.54089e-06
-1.97565e-09
-1.53667e-06
-3.6969e-09
-1.53241e-06
-3.90317e-09
-1.52832e-06
-2.57193e-09
-1.52459e-06
2.99642e-10
-1.52143e-06
4.69047e-09
-1.51903e-06
1.05542e-08
-1.51758e-06
1.78215e-08
-1.51723e-06
2.63997e-08
-1.51816e-06
3.61769e-08
-1.52048e-06
4.70243e-08
-1.52432e-06
5.87985e-08
-1.52975e-06
7.13437e-08
-1.53687e-06
8.44939e-08
-1.5457e-06
9.80746e-08
-1.55627e-06
1.11906e-07
-1.56857e-06
1.25803e-07
-1.5826e-06
1.3958e-07
-1.59829e-06
1.53051e-07
-1.61557e-06
1.66033e-07
-1.63436e-06
1.78345e-07
-1.65453e-06
1.89814e-07
-1.67596e-06
2.00272e-07
-1.69848e-06
2.09561e-07
-1.72191e-06
2.17533e-07
-1.74608e-06
2.2405e-07
-1.77076e-06
2.28986e-07
-1.79573e-06
2.32229e-07
-1.82076e-06
2.33678e-07
-1.84558e-06
2.33246e-07
-1.86995e-06
2.30862e-07
-1.89358e-06
2.26466e-07
-1.9162e-06
2.20014e-07
-1.93752e-06
2.11477e-07
-1.95726e-06
2.00836e-07
-1.97511e-06
1.88091e-07
-1.99078e-06
1.7325e-07
-2.00399e-06
1.56337e-07
-2.01444e-06
1.37388e-07
-2.02185e-06
1.16451e-07
-2.02593e-06
9.35828e-08
-2.02642e-06
6.88349e-08
-2.02306e-06
4.22756e-08
-2.01561e-06
1.39938e-08
-2.00393e-06
-1.57116e-08
-1.9879e-06
-4.65623e-08
-1.96731e-06
-7.85167e-08
-1.94198e-06
-1.11514e-07
-1.91175e-06
-1.45477e-07
-1.87648e-06
-1.8031e-07
-1.83605e-06
-2.15894e-07
-1.79036e-06
-2.52085e-07
-1.73933e-06
-2.88741e-07
-1.68291e-06
-3.25724e-07
-1.62107e-06
-3.62892e-07
-1.55379e-06
-4.0011e-07
-1.48107e-06
-4.37258e-07
-1.40293e-06
-4.74143e-07
-1.31945e-06
-5.10572e-07
-1.2307e-06
-5.46393e-07
-1.1368e-06
-5.8152e-07
-1.03782e-06
-6.15856e-07
-9.33906e-07
-6.49151e-07
-8.2526e-07
-6.81208e-07
-7.12042e-07
-7.12093e-07
-5.94402e-07
-7.41695e-07
-4.72553e-07
-7.697e-07
-3.46769e-07
-7.96122e-07
-2.17257e-07
-8.21065e-07
-8.4032e-08
-8.44386e-07
5.2382e-08
-8.65749e-07
1.91116e-07
-8.84952e-07
3.31682e-07
-9.02123e-07
4.7371e-07
-9.16957e-07
6.16706e-07
-9.29353e-07
7.60195e-07
-9.39262e-07
9.03784e-07
-9.46509e-07
1.04704e-06
-9.51063e-07
1.1896e-06
-9.52811e-07
1.33113e-06
-9.51711e-07
1.47132e-06
-9.47747e-07
1.60989e-06
-9.40932e-07
1.74671e-06
-9.31219e-07
1.88165e-06
-9.1882e-07
2.01445e-06
-9.0412e-07
2.14477e-06
-8.87444e-07
2.27231e-06
-8.69033e-07
2.39681e-06
-8.49072e-07
2.51802e-06
-8.27716e-07
2.63574e-06
-8.05105e-07
2.74978e-06
-7.81374e-07
2.86001e-06
-7.56653e-07
2.96629e-06
-7.31072e-07
3.06852e-06
-7.04757e-07
3.16662e-06
-6.77835e-07
3.26052e-06
-6.50428e-07
3.35018e-06
-6.22658e-07
3.43556e-06
-5.9464e-07
3.51667e-06
-5.66487e-07
3.5935e-06
-5.38309e-07
3.66608e-06
-5.10211e-07
3.73445e-06
-4.82292e-07
3.79865e-06
-4.5465e-07
3.85876e-06
-4.27375e-07
3.91485e-06
-4.00555e-07
3.96701e-06
-3.74271e-07
4.01535e-06
-3.48599e-07
4.05997e-06
-3.23611e-07
4.101e-06
-2.99371e-07
4.13858e-06
-2.75939e-07
4.17283e-06
-2.53366e-07
4.20392e-06
-2.317e-07
4.23197e-06
-2.10978e-07
4.25717e-06
-1.91234e-07
4.27965e-06
-1.72492e-07
4.29958e-06
-1.54771e-07
4.31713e-06
-1.38082e-07
4.33245e-06
-1.22429e-07
4.34571e-06
-1.0781e-07
4.35706e-06
-9.42163e-08
4.36666e-06
-8.16326e-08
4.37465e-06
-7.00392e-08
4.38119e-06
-5.94117e-08
4.38642e-06
-4.97213e-08
4.39047e-06
-4.09365e-08
4.39347e-06
-3.30226e-08
4.39555e-06
-2.59434e-08
4.39682e-06
-1.96604e-08
4.39739e-06
-1.41343e-08
4.39737e-06
-9.32441e-09
4.39687e-06
-5.19169e-09
4.39597e-06
-1.70242e-09
4.39478e-06
1.19019e-09
4.39333e-06
3.55196e-09
4.3917e-06