/*--------------------------------*- C++ -*----------------------------------*\
  =========                 |
  \\      /  F ield         | OpenFOAM: The Open Source CFD Toolbox
   \\    /   O peration     | Website:  https://openfoam.org
    \\  /    A nd           | Version:  7
     \\/     M anipulation  |
\*---------------------------------------------------------------------------*/
FoamFile
{
    version     2.0;
    format      ascii;
    class       volVectorField;
    location    "350";
    object      U;
}
// * * * * * * * * * * * * * * * * * * * * * * * * * * * * * * * * * * * * * //

dimensions      [0 1 -1 0 0 0 0];

internalField   nonuniform List<vector> 
16900
(
(0.0140317 -0.0154664 0)
(0.00862707 0.017405 0)
(-0.0337494 0.0460429 0)
(-0.0933749 0.0706879 0)
(-0.190559 0.0616449 0)
(-0.28577 0.0903795 0)
(-0.374181 0.0913008 0)
(-0.481026 0.0699279 0)
(-0.574264 0.0666079 0)
(-0.667288 0.0635946 0)
(-0.75717 0.060483 0)
(-0.843637 0.0574128 0)
(-0.926587 0.0544554 0)
(-1.00603 0.0516491 0)
(-1.08206 0.049013 0)
(-1.1548 0.0465423 0)
(-1.2244 0.044235 0)
(-1.291 0.0420782 0)
(-1.35476 0.0400522 0)
(-1.41581 0.0381522 0)
(-1.47426 0.0363485 0)
(-1.53024 0.0346349 0)
(-1.58382 0.0329859 0)
(-1.63509 0.0313938 0)
(-1.68409 0.0298395 0)
(-1.73085 0.0283119 0)
(-1.7754 0.0268022 0)
(-1.81774 0.0252989 0)
(-1.85785 0.0237954 0)
(-1.89573 0.0222866 0)
(-1.93134 0.0207696 0)
(-1.96467 0.0192432 0)
(-1.99569 0.0177084 0)
(-2.02438 0.0161681 0)
(-2.05072 0.0146271 0)
(-2.0747 0.0130921 0)
(-2.09633 0.0115715 0)
(-2.11564 0.0100752 0)
(-2.13265 0.00861446 0)
(-2.14742 0.00720172 0)
(-2.16003 0.0058505 0)
(-2.17058 0.00457477 0)
(-2.17919 0.00338922 0)
(-2.186 0.0023084 0)
(-2.19117 0.00134697 0)
(-2.19491 0.000518824 0)
(-2.19742 -0.000162635 0)
(-2.19893 -0.000685516 0)
(-2.1997 -0.00103912 0)
(-2.19998 -0.00121512 0)
(-2.20007 -0.00120721 0)
(-2.20023 -0.00101239 0)
(-2.20078 -0.000630295 0)
(-2.202 -6.43221e-05 0)
(-2.20417 0.000679451 0)
(-2.20758 0.00159132 0)
(-2.21249 0.00265934 0)
(-2.21915 0.00386834 0)
(-2.22778 0.00520152 0)
(-2.23858 0.00663934 0)
(-2.25174 0.00816141 0)
(-2.26739 0.00974531 0)
(-2.28564 0.0113686 0)
(-2.30658 0.0130076 0)
(-2.33024 0.0146395 0)
(-2.35664 0.0162412 0)
(-2.38573 0.0177911 0)
(-2.41747 0.0192681 0)
(-2.45174 0.0206531 0)
(-2.48841 0.0219283 0)
(-2.52732 0.023078 0)
(-2.56827 0.0240879 0)
(-2.61103 0.0249466 0)
(-2.65536 0.0256436 0)
(-2.70097 0.0261712 0)
(-2.74758 0.0265229 0)
(-2.79487 0.0266941 0)
(-2.84251 0.0266817 0)
(-2.89016 0.0264846 0)
(-2.93747 0.0261027 0)
(-2.98409 0.0255373 0)
(-3.02965 0.0247905 0)
(-3.07379 0.0238651 0)
(-3.11615 0.0227652 0)
(-3.15638 0.0214958 0)
(-3.19413 0.0200624 0)
(-3.22905 0.0184712 0)
(-3.2608 0.0167292 0)
(-3.28904 0.0148438 0)
(-3.31346 0.0128196 0)
(-3.33378 0.0106538 0)
(-3.34973 0.00833905 0)
(-3.36102 0.0058791 0)
(-3.36732 0.0033038 0)
(-3.36834 0.000660291 0)
(-3.364 -0.00202453 0)
(-3.35418 -0.0047605 0)
(-3.33874 -0.00755835 0)
(-3.31757 -0.0104128 0)
(-3.29054 -0.0133165 0)
(-3.25759 -0.0162617 0)
(-3.21863 -0.0192402 0)
(-3.17364 -0.0222437 0)
(-3.12259 -0.0252642 0)
(-3.06549 -0.0282928 0)
(-3.00236 -0.0313197 0)
(-2.93328 -0.0343355 0)
(-2.85833 -0.0373334 0)
(-2.7776 -0.0403063 0)
(-2.69122 -0.0432452 0)
(-2.59937 -0.0461414 0)
(-2.50221 -0.0489921 0)
(-2.39994 -0.0517927 0)
(-2.29278 -0.0545344 0)
(-2.18097 -0.0572164 0)
(-2.06477 -0.0598434 0)
(-1.94444 -0.0624088 0)
(-1.82028 -0.0649198 0)
(-1.69258 -0.0673906 0)
(-1.56164 -0.0698097 0)
(-1.42777 -0.0721875 0)
(-1.29125 -0.0745207 0)
(-1.15241 -0.0768182 0)
(-1.01147 -0.0791869 0)
(-0.868796 -0.0817129 0)
(-0.724354 -0.0846877 0)
(-0.578626 -0.0884293 0)
(-0.430435 -0.0929864 0)
(-0.282572 -0.0982113 0)
(-0.137893 -0.102525 0)
(0.021176 -0.101089 0)
(0.168437 -0.0953862 0)
(0.313058 -0.0899157 0)
(0.455057 -0.0850114 0)
(0.59407 -0.0805694 0)
(0.729932 -0.0764858 0)
(0.862482 -0.072677 0)
(0.991557 -0.0690826 0)
(1.11699 -0.0656581 0)
(1.23864 -0.0623735 0)
(1.35635 -0.0592065 0)
(1.46999 -0.0561432 0)
(1.57947 -0.0531725 0)
(1.68468 -0.0502884 0)
(1.78556 -0.0474858 0)
(1.88204 -0.0447626 0)
(1.97408 -0.0421169 0)
(2.06168 -0.0395486 0)
(2.14482 -0.0370574 0)
(2.22351 -0.0346443 0)
(2.29779 -0.0323097 0)
(2.3677 -0.0300551 0)
(2.43329 -0.0278813 0)
(2.49464 -0.0257896 0)
(2.55183 -0.0237811 0)
(2.60495 -0.0218569 0)
(2.65412 -0.0200179 0)
(2.69945 -0.0182646 0)
(2.74106 -0.0165978 0)
(2.7791 -0.0150174 0)
(2.81371 -0.0135236 0)
(2.84503 -0.0121159 0)
(2.87322 -0.0107939 0)
(2.89844 -0.00955642 0)
(2.92086 -0.00840252 0)
(2.94062 -0.00733027 0)
(2.95791 -0.00633822 0)
(2.97288 -0.00542383 0)
(2.9857 -0.00458513 0)
(2.99653 -0.00381904 0)
(3.00553 -0.00312319 0)
(3.01285 -0.00249415 0)
(3.01864 -0.0019293 0)
(3.02306 -0.00142508 0)
(3.02623 -0.000979172 0)
(3.02831 -0.000589692 0)
(3.02941 -0.00025939 0)
(3.02969 1.48712e-05 0)
(3.02929 0.000244758 0)
(3.02831 0.000440875 0)
(3.02681 0.000606849 0)
(3.02488 0.00074464 0)
(3.02259 0.000855432 0)
(3.02002 0.000942214 0)
(3.01723 0.00100729 0)
(3.01428 0.00105374 0)
(3.01121 0.00108366 0)
(3.00808 0.00109993 0)
(3.00491 0.00110448 0)
(3.00174 0.00110002 0)
(2.9986 0.00108829 0)
(2.99549 0.00107177 0)
(2.99244 0.00105193 0)
(2.98945 0.00103096 0)
(2.98652 0.00100963 0)
(2.98365 0.000989003 0)
(2.98085 0.000967067 0)
(2.97811 0.000938205 0)
(2.9755 0.000882 0)
(2.97258 0.000789224 0)
(-0.0158301 -0.00703544 0)
(-0.0424837 0.0493589 0)
(-0.0970649 0.0916038 0)
(-0.166785 0.120027 0)
(-0.254154 0.139072 0)
(-0.340467 0.148622 0)
(-0.428167 0.15775 0)
(-0.518519 0.154914 0)
(-0.606998 0.150645 0)
(-0.692783 0.145563 0)
(-0.77546 0.139909 0)
(-0.855049 0.134028 0)
(-0.931511 0.128123 0)
(-1.00485 0.122331 0)
(-1.07512 0.116729 0)
(-1.14242 0.111364 0)
(-1.20686 0.106252 0)
(-1.26856 0.1014 0)
(-1.32764 0.0967904 0)
(-1.38421 0.092412 0)
(-1.43837 0.088231 0)
(-1.49022 0.0842267 0)
(-1.53983 0.0803629 0)
(-1.58727 0.0766154 0)
(-1.63259 0.0729533 0)
(-1.67582 0.0693531 0)
(-1.71697 0.0657913 0)
(-1.75605 0.0622493 0)
(-1.79307 0.0587116 0)
(-1.828 0.0551672 0)
(-1.86083 0.0516097 0)
(-1.89155 0.0480372 0)
(-1.92014 0.0444519 0)
(-1.94658 0.0408608 0)
(-1.97087 0.037275 0)
(-1.993 0.0337098 0)
(-2.013 0.030184 0)
(-2.03088 0.0267199 0)
(-2.04669 0.0233425 0)
(-2.06049 0.0200795 0)
(-2.07235 0.0169601 0)
(-2.08236 0.0140149 0)
(-2.09065 0.0112751 0)
(-2.09736 0.00877168 0)
(-2.10262 0.006535 0)
(-2.10664 0.00459417 0)
(-2.10959 0.00297591 0)
(-2.11169 0.00170468 0)
(-2.11316 0.000801172 0)
(-2.11425 0.000282411 0)
(-2.1152 0.000160037 0)
(-2.11627 0.000440413 0)
(-2.11772 0.00112313 0)
(-2.11981 0.0022017 0)
(-2.12278 0.00366272 0)
(-2.12688 0.00548728 0)
(-2.13235 0.00765039 0)
(-2.13939 0.0101225 0)
(-2.1482 0.0128691 0)
(-2.15895 0.0158523 0)
(-2.1718 0.0190302 0)
(-2.18685 0.0223588 0)
(-2.20421 0.0257918 0)
(-2.22394 0.0292819 0)
(-2.24607 0.0327806 0)
(-2.2706 0.03624 0)
(-2.29749 0.0396128 0)
(-2.32669 0.042853 0)
(-2.3581 0.0459165 0)
(-2.3916 0.0487619 0)
(-2.42702 0.0513503 0)
(-2.46419 0.0536464 0)
(-2.50289 0.0556182 0)
(-2.5429 0.0572373 0)
(-2.58395 0.0584793 0)
(-2.62577 0.0593236 0)
(-2.66806 0.0597534 0)
(-2.71052 0.0597556 0)
(-2.75282 0.059321 0)
(-2.79463 0.0584442 0)
(-2.83561 0.0571235 0)
(-2.87542 0.05536 0)
(-2.9137 0.0531577 0)
(-2.95011 0.0505234 0)
(-2.9843 0.047467 0)
(-3.01595 0.0440008 0)
(-3.04471 0.0401388 0)
(-3.07025 0.0358988 0)
(-3.09224 0.0313018 0)
(-3.11039 0.0263672 0)
(-3.12442 0.0211012 0)
(-3.13408 0.0154992 0)
(-3.13907 0.00957407 0)
(-3.13904 0.00338579 0)
(-3.13385 -0.00296717 0)
(-3.12345 -0.00942931 0)
(-3.10764 -0.0160081 0)
(-3.08629 -0.022698 0)
(-3.05926 -0.0294794 0)
(-3.02646 -0.0363283 0)
(-2.98781 -0.0432192 0)
(-2.94325 -0.0501257 0)
(-2.89274 -0.0570214 0)
(-2.83626 -0.0638807 0)
(-2.77382 -0.0706766 0)
(-2.70547 -0.0773788 0)
(-2.63125 -0.083958 0)
(-2.55126 -0.0903904 0)
(-2.4656 -0.0966552 0)
(-2.3744 -0.102724 0)
(-2.27781 -0.108568 0)
(-2.17602 -0.114172 0)
(-2.06922 -0.119524 0)
(-1.95762 -0.124592 0)
(-1.84146 -0.129362 0)
(-1.72099 -0.133841 0)
(-1.59646 -0.137998 0)
(-1.46817 -0.141821 0)
(-1.33637 -0.145343 0)
(-1.20136 -0.148521 0)
(-1.06342 -0.151376 0)
(-0.9228 -0.153925 0)
(-0.77982 -0.15615 0)
(-0.634594 -0.158238 0)
(-0.487722 -0.160193 0)
(-0.33858 -0.162223 0)
(-0.188871 -0.164482 0)
(-0.0348973 -0.166569 0)
(0.11866 -0.168623 0)
(0.268665 -0.170355 0)
(0.418642 -0.168717 0)
(0.565413 -0.164203 0)
(0.709907 -0.159543 0)
(0.851956 -0.15489 0)
(0.991302 -0.150268 0)
(1.1277 -0.145647 0)
(1.26094 -0.140995 0)
(1.39081 -0.136291 0)
(1.51714 -0.131525 0)
(1.63974 -0.126697 0)
(1.75848 -0.121813 0)
(1.87323 -0.116883 0)
(1.98387 -0.111919 0)
(2.09031 -0.106935 0)
(2.19248 -0.101946 0)
(2.29033 -0.0969673 0)
(2.38381 -0.092013 0)
(2.47291 -0.0870985 0)
(2.55763 -0.0822376 0)
(2.63798 -0.0774443 0)
(2.71399 -0.0727315 0)
(2.78571 -0.0681117 0)
(2.85318 -0.0635966 0)
(2.91648 -0.059197 0)
(2.9757 -0.0549229 0)
(3.03093 -0.0507837 0)
(3.08227 -0.0467876 0)
(3.12984 -0.042942 0)
(3.17376 -0.0392533 0)
(3.21417 -0.0357269 0)
(3.2512 -0.0323674 0)
(3.285 -0.029178 0)
(3.31572 -0.0261611 0)
(3.34351 -0.023318 0)
(3.36853 -0.0206492 0)
(3.39093 -0.0181538 0)
(3.41087 -0.0158303 0)
(3.42851 -0.0136761 0)
(3.44401 -0.0116879 0)
(3.45753 -0.00986132 0)
(3.4692 -0.00819195 0)
(3.4792 -0.00667414 0)
(3.48764 -0.0053024 0)
(3.49469 -0.00407038 0)
(3.50047 -0.0029723 0)
(3.5051 -0.00200241 0)
(3.50872 -0.00115901 0)
(3.51141 -0.000437736 0)
(3.51326 0.000172636 0)
(3.51442 0.000688252 0)
(3.51502 0.00112298 0)
(3.51514 0.0014841 0)
(3.51485 0.00177584 0)
(3.51424 0.00200512 0)
(3.51337 0.00217854 0)
(3.5123 0.00230314 0)
(3.51109 0.00238502 0)
(3.50978 0.00243072 0)
(3.5084 0.00244592 0)
(3.50699 0.00243674 0)
(3.50558 0.00240837 0)
(3.50418 0.00236646 0)
(3.5028 0.00231559 0)
(3.50146 0.00226059 0)
(3.50016 0.00220449 0)
(3.4989 0.00214915 0)
(3.49767 0.00209117 0)
(3.49647 0.00201831 0)
(3.49534 0.0018987 0)
(3.49399 0.00167967 0)
(-0.0356078 0.0399926 0)
(-0.0758148 0.108903 0)
(-0.140999 0.164996 0)
(-0.214371 0.204802 0)
(-0.293216 0.230652 0)
(-0.372001 0.242734 0)
(-0.450472 0.246069 0)
(-0.529524 0.241753 0)
(-0.608027 0.234942 0)
(-0.684664 0.226901 0)
(-0.758943 0.218132 0)
(-0.830713 0.209045 0)
(-0.899879 0.199916 0)
(-0.966411 0.19094 0)
(-1.03033 0.182234 0)
(-1.09169 0.173873 0)
(-1.15056 0.165886 0)
(-1.20702 0.158284 0)
(-1.26117 0.15105 0)
(-1.31309 0.144161 0)
(-1.36284 0.137577 0)
(-1.41052 0.131261 0)
(-1.45616 0.125167 0)
(-1.49983 0.119252 0)
(-1.54156 0.113475 0)
(-1.58138 0.107797 0)
(-1.61928 0.102186 0)
(-1.65529 0.096612 0)
(-1.68938 0.0910529 0)
(-1.72154 0.0854928 0)
(-1.75177 0.0799225 0)
(-1.78004 0.0743398 0)
(-1.80634 0.0687492 0)
(-1.83065 0.0631623 0)
(-1.85297 0.057597 0)
(-1.8733 0.0520775 0)
(-1.89164 0.0466334 0)
(-1.90803 0.0412995 0)
(-1.9225 0.0361146 0)
(-1.9351 0.031121 0)
(-1.94592 0.0263634 0)
(-1.95504 0.0218881 0)
(-1.96257 0.0177419 0)
(-1.96863 0.0139713 0)
(-1.97338 0.0106209 0)
(-1.97698 0.00773317 0)
(-1.9796 0.00534689 0)
(-1.98144 0.00349665 0)
(-1.98272 0.00221148 0)
(-1.98364 0.00151449 0)
(-1.98444 0.00142101 0)
(-1.98535 0.00193813 0)
(-1.98661 0.00306316 0)
(-1.98844 0.00478404 0)
(-1.99108 0.00707875 0)
(-1.99475 0.00991689 0)
(-1.99965 0.0132596 0)
(-2.00597 0.017061 0)
(-2.01389 0.0212685 0)
(-2.02356 0.0258244 0)
(-2.0351 0.0306656 0)
(-2.04863 0.0357258 0)
(-2.06423 0.0409353 0)
(-2.08194 0.0462229 0)
(-2.10179 0.0515161 0)
(-2.12378 0.0567425 0)
(-2.14788 0.0618306 0)
(-2.17402 0.0667108 0)
(-2.20212 0.0713157 0)
(-2.23205 0.0755818 0)
(-2.26368 0.079449 0)
(-2.29684 0.0828623 0)
(-2.33133 0.0857712 0)
(-2.36693 0.0881309 0)
(-2.40342 0.0899019 0)
(-2.44053 0.0910508 0)
(-2.47799 0.0915498 0)
(-2.51552 0.0913768 0)
(-2.55281 0.0905156 0)
(-2.58955 0.0889559 0)
(-2.62544 0.0866931 0)
(-2.66013 0.0837276 0)
(-2.69331 0.0800647 0)
(-2.72464 0.0757142 0)
(-2.7538 0.0706908 0)
(-2.78047 0.0650128 0)
(-2.80432 0.0587021 0)
(-2.82503 0.0517853 0)
(-2.84228 0.0442935 0)
(-2.85579 0.036255 0)
(-2.8653 0.0276839 0)
(-2.87057 0.0185898 0)
(-2.87127 0.0090185 0)
(-2.86707 -0.000913687 0)
(-2.85802 -0.0110876 0)
(-2.8439 -0.0214695 0)
(-2.82455 -0.0320532 0)
(-2.79982 -0.0428149 0)
(-2.76959 -0.0537191 0)
(-2.73376 -0.0647246 0)
(-2.69224 -0.0757886 0)
(-2.64498 -0.0868674 0)
(-2.59194 -0.0979172 0)
(-2.5331 -0.108895 0)
(-2.46847 -0.119756 0)
(-2.39807 -0.130451 0)
(-2.32197 -0.14093 0)
(-2.24024 -0.151151 0)
(-2.153 -0.161082 0)
(-2.06034 -0.170677 0)
(-1.96244 -0.179884 0)
(-1.85947 -0.188675 0)
(-1.7516 -0.197037 0)
(-1.63904 -0.204916 0)
(-1.52204 -0.212275 0)
(-1.4008 -0.219134 0)
(-1.27558 -0.225442 0)
(-1.14667 -0.231154 0)
(-1.01429 -0.236342 0)
(-0.878743 -0.240938 0)
(-0.740255 -0.244975 0)
(-0.599069 -0.248545 0)
(-0.455606 -0.251587 0)
(-0.309525 -0.254358 0)
(-0.16227 -0.256836 0)
(-0.0114006 -0.25879 0)
(0.138709 -0.260281 0)
(0.288603 -0.260756 0)
(0.437419 -0.260221 0)
(0.584296 -0.258919 0)
(0.729752 -0.255883 0)
(0.873459 -0.251323 0)
(1.01535 -0.246165 0)
(1.15501 -0.240642 0)
(1.29208 -0.234818 0)
(1.42626 -0.228711 0)
(1.55732 -0.222331 0)
(1.68502 -0.215692 0)
(1.80919 -0.208815 0)
(1.92964 -0.201725 0)
(2.04625 -0.19445 0)
(2.15888 -0.187023 0)
(2.26743 -0.179474 0)
(2.37182 -0.171836 0)
(2.47196 -0.16414 0)
(2.56783 -0.156417 0)
(2.65938 -0.148695 0)
(2.74661 -0.141004 0)
(2.82951 -0.13337 0)
(2.90811 -0.125818 0)
(2.98243 -0.118372 0)
(3.05253 -0.111056 0)
(3.11846 -0.10389 0)
(3.18031 -0.0968934 0)
(3.23815 -0.090085 0)
(3.29208 -0.0834809 0)
(3.34222 -0.077096 0)
(3.38868 -0.0709433 0)
(3.43158 -0.0650344 0)
(3.47106 -0.059379 0)
(3.50726 -0.0539851 0)
(3.54031 -0.0488588 0)
(3.57038 -0.0440047 0)
(3.59761 -0.0394255 0)
(3.62216 -0.0351222 0)
(3.64419 -0.0310942 0)
(3.66384 -0.0273392 0)
(3.68128 -0.0238535 0)
(3.69667 -0.0206321 0)
(3.71014 -0.0176685 0)
(3.72186 -0.0149553 0)
(3.73196 -0.0124842 0)
(3.74059 -0.0102462 0)
(3.74788 -0.00823139 0)
(3.75397 -0.00642988 0)
(3.75897 -0.00483086 0)
(3.763 -0.00342311 0)
(3.76617 -0.00219598 0)
(3.7686 -0.00114297 0)
(3.77034 -0.000253581 0)
(3.77152 0.000490415 0)
(3.77224 0.00110585 0)
(3.77259 0.00160439 0)
(3.77263 0.00199875 0)
(3.77244 0.00230071 0)
(3.77206 0.00252198 0)
(3.77155 0.0026731 0)
(3.77096 0.00276472 0)
(3.7703 0.00280645 0)
(3.76963 0.00280811 0)
(3.76895 0.00277849 0)
(3.7683 0.00272657 0)
(3.76767 0.00266019 0)
(3.76709 0.00258703 0)
(3.76654 0.0025127 0)
(3.76603 0.0024407 0)
(3.76555 0.00236828 0)
(3.76509 0.00228327 0)
(3.76464 0.00215605 0)
(3.76399 0.00200801 0)
(-0.0481884 0.104511 0)
(-0.0951939 0.176585 0)
(-0.166845 0.238273 0)
(-0.239727 0.28131 0)
(-0.312411 0.307825 0)
(-0.383908 0.320371 0)
(-0.454536 0.322773 0)
(-0.524892 0.318006 0)
(-0.594633 0.309671 0)
(-0.662991 0.299459 0)
(-0.729537 0.288226 0)
(-0.794058 0.276529 0)
(-0.856432 0.264739 0)
(-0.916605 0.253103 0)
(-0.974567 0.241782 0)
(-1.03034 0.23087 0)
(-1.08397 0.220416 0)
(-1.13551 0.210433 0)
(-1.18501 0.200909 0)
(-1.23253 0.191813 0)
(-1.27814 0.183103 0)
(-1.32188 0.174729 0)
(-1.36379 0.166636 0)
(-1.40391 0.15877 0)
(-1.44226 0.151079 0)
(-1.47885 0.143513 0)
(-1.51369 0.136029 0)
(-1.54676 0.128591 0)
(-1.57806 0.121171 0)
(-1.60757 0.113749 0)
(-1.63527 0.106312 0)
(-1.66114 0.0988589 0)
(-1.68515 0.0913966 0)
(-1.70729 0.0839411 0)
(-1.72755 0.0765168 0)
(-1.74593 0.0691567 0)
(-1.76243 0.061901 0)
(-1.77708 0.0547962 0)
(-1.78991 0.0478946 0)
(-1.80098 0.0412528 0)
(-1.81034 0.0349306 0)
(-1.8181 0.0289894 0)
(-1.82434 0.0234915 0)
(-1.82918 0.0184981 0)
(-1.83278 0.0140683 0)
(-1.83528 0.0102573 0)
(-1.83685 0.00711565 0)
(-1.83768 0.00468777 0)
(-1.83796 0.00301091 0)
(-1.8379 0.00211404 0)
(-1.83772 0.00201624 0)
(-1.83762 0.0027253 0)
(-1.83784 0.00423651 0)
(-1.83858 0.00653218 0)
(-1.84006 0.00958195 0)
(-1.84249 0.013344 0)
(-1.84605 0.0177658 0)
(-1.85091 0.0227858 0)
(-1.85725 0.0283336 0)
(-1.86519 0.0343324 0)
(-1.87485 0.0406988 0)
(-1.88632 0.047345 0)
(-1.89969 0.0541796 0)
(-1.91498 0.0611087 0)
(-1.93223 0.0680372 0)
(-1.95142 0.0748703 0)
(-1.97252 0.0815141 0)
(-1.99548 0.0878773 0)
(-2.0202 0.0938715 0)
(-2.04658 0.0994129 0)
(-2.07449 0.104423 0)
(-2.10376 0.108828 0)
(-2.13421 0.112561 0)
(-2.16566 0.115563 0)
(-2.19786 0.11778 0)
(-2.2306 0.119168 0)
(-2.2636 0.119689 0)
(-2.29661 0.119312 0)
(-2.32934 0.118014 0)
(-2.3615 0.11578 0)
(-2.39279 0.112603 0)
(-2.4229 0.10848 0)
(-2.45153 0.103419 0)
(-2.47836 0.0974304 0)
(-2.50307 0.0905326 0)
(-2.52536 0.0827485 0)
(-2.54491 0.0741063 0)
(-2.56142 0.0646413 0)
(-2.57458 0.0543939 0)
(-2.58412 0.0433975 0)
(-2.58979 0.0316702 0)
(-2.59134 0.0192397 0)
(-2.58841 0.00619804 0)
(-2.58083 -0.00729317 0)
(-2.56858 -0.0211188 0)
(-2.55143 -0.0352582 0)
(-2.52922 -0.0496872 0)
(-2.5018 -0.064367 0)
(-2.46904 -0.0792467 0)
(-2.43086 -0.0942689 0)
(-2.38715 -0.109375 0)
(-2.33786 -0.124504 0)
(-2.28295 -0.139598 0)
(-2.2224 -0.154598 0)
(-2.15622 -0.169445 0)
(-2.08441 -0.184068 0)
(-2.00705 -0.198399 0)
(-1.92421 -0.21238 0)
(-1.83599 -0.225971 0)
(-1.74249 -0.239112 0)
(-1.64386 -0.251725 0)
(-1.54029 -0.263767 0)
(-1.43192 -0.275237 0)
(-1.31896 -0.286055 0)
(-1.20164 -0.296152 0)
(-1.08017 -0.305579 0)
(-0.954782 -0.314272 0)
(-0.825769 -0.322143 0)
(-0.693264 -0.329335 0)
(-0.557706 -0.335783 0)
(-0.419201 -0.341481 0)
(-0.277864 -0.346633 0)
(-0.13468 -0.351111 0)
(0.0122802 -0.354884 0)
(0.158908 -0.357911 0)
(0.306191 -0.359863 0)
(0.452975 -0.360673 0)
(0.59919 -0.360273 0)
(0.744268 -0.358617 0)
(0.887736 -0.355736 0)
(1.02964 -0.351213 0)
(1.16998 -0.345275 0)
(1.30855 -0.338469 0)
(1.44494 -0.33104 0)
(1.57878 -0.323098 0)
(1.70977 -0.314699 0)
(1.83764 -0.305884 0)
(1.96216 -0.296691 0)
(2.08316 -0.287159 0)
(2.20045 -0.277331 0)
(2.3139 -0.267252 0)
(2.4234 -0.256967 0)
(2.52883 -0.246522 0)
(2.63012 -0.235962 0)
(2.72721 -0.22533 0)
(2.82005 -0.214668 0)
(2.90862 -0.204018 0)
(2.99291 -0.193417 0)
(3.07293 -0.182904 0)
(3.1487 -0.172511 0)
(3.22026 -0.162273 0)
(3.28765 -0.15222 0)
(3.35096 -0.142381 0)
(3.41024 -0.132782 0)
(3.4656 -0.123447 0)
(3.51713 -0.114399 0)
(3.56494 -0.105658 0)
(3.60915 -0.0972401 0)
(3.6499 -0.0891618 0)
(3.68731 -0.0814354 0)
(3.72153 -0.0740713 0)
(3.75269 -0.0670775 0)
(3.78097 -0.0604595 0)
(3.8065 -0.0542205 0)
(3.82944 -0.0483612 0)
(3.84995 -0.0428803 0)
(3.86818 -0.0377741 0)
(3.88429 -0.0330369 0)
(3.89844 -0.0286614 0)
(3.91077 -0.0246383 0)
(3.92142 -0.0209571 0)
(3.93055 -0.0176059 0)
(3.93829 -0.014572 0)
(3.94478 -0.0118418 0)
(3.95013 -0.00940129 0)
(3.95447 -0.00723559 0)
(3.95792 -0.00532971 0)
(3.96059 -0.00366783 0)
(3.96257 -0.00223448 0)
(3.96397 -0.00101636 0)
(3.96485 -6.20789e-07 0)
(3.96532 0.000832983 0)
(3.96548 0.0015059 0)
(3.96537 0.00203713 0)
(3.96507 0.0024431 0)
(3.96461 0.00273976 0)
(3.96407 0.00294158 0)
(3.96346 0.00306298 0)
(3.96282 0.00311706 0)
(3.96219 0.00311706 0)
(3.96159 0.00307502 0)
(3.96102 0.00300308 0)
(3.96051 0.00291208 0)
(3.96005 0.00281258 0)
(3.95965 0.00271289 0)
(3.95929 0.00261919 0)
(3.95898 0.00253158 0)
(3.95867 0.00244358 0)
(3.95837 0.0023379 0)
(3.95779 0.00230556 0)
(-0.0740222 0.167087 0)
(-0.109262 0.245106 0)
(-0.181267 0.309215 0)
(-0.250917 0.351506 0)
(-0.317993 0.376553 0)
(-0.382867 0.388058 0)
(-0.446468 0.389519 0)
(-0.509366 0.384052 0)
(-0.571485 0.374514 0)
(-0.632417 0.362647 0)
(-0.691862 0.349492 0)
(-0.749633 0.33572 0)
(-0.805616 0.321779 0)
(-0.85975 0.307967 0)
(-0.912012 0.294481 0)
(-0.962408 0.281438 0)
(-1.01096 0.268902 0)
(-1.05769 0.256894 0)
(-1.10265 0.245406 0)
(-1.14588 0.234405 0)
(-1.1874 0.223844 0)
(-1.22725 0.213667 0)
(-1.26547 0.203811 0)
(-1.30206 0.194213 0)
(-1.33703 0.184812 0)
(-1.3704 0.175551 0)
(-1.40214 0.166377 0)
(-1.43225 0.15725 0)
(-1.4607 0.148134 0)
(-1.48748 0.139007 0)
(-1.51254 0.129855 0)
(-1.53586 0.120677 0)
(-1.55743 0.111483 0)
(-1.5772 0.102294 0)
(-1.59517 0.0931395 0)
(-1.61134 0.0840623 0)
(-1.6257 0.0751127 0)
(-1.63827 0.0663491 0)
(-1.64908 0.0578367 0)
(-1.65817 0.0496459 0)
(-1.66562 0.0418511 0)
(-1.6715 0.0345286 0)
(-1.67591 0.0277553 0)
(-1.67896 0.0216067 0)
(-1.68079 0.0161553 0)
(-1.68154 0.011469 0)
(-1.6814 0.00760905 0)
(-1.68052 0.00462912 0)
(-1.6791 0.00257379 0)
(-1.67734 0.00147736 0)
(-1.67544 0.00136194 0)
(-1.67362 0.00223572 0)
(-1.67208 0.0040918 0)
(-1.67103 0.00690716 0)
(-1.67067 0.0106431 0)
(-1.67119 0.0152471 0)
(-1.67276 0.0206536 0)
(-1.67557 0.0267856 0)
(-1.67975 0.0335564 0)
(-1.68542 0.0408709 0)
(-1.69271 0.048627 0)
(-1.70169 0.056717 0)
(-1.71242 0.0650292 0)
(-1.72496 0.0734491 0)
(-1.7393 0.0818611 0)
(-1.75544 0.0901497 0)
(-1.77335 0.0982011 0)
(-1.79297 0.105904 0)
(-1.81421 0.113151 0)
(-1.83698 0.119841 0)
(-1.86113 0.125876 0)
(-1.88654 0.131168 0)
(-1.91302 0.135635 0)
(-1.94039 0.139202 0)
(-1.96843 0.141806 0)
(-1.99693 0.143389 0)
(-2.02564 0.143904 0)
(-2.05432 0.143312 0)
(-2.08269 0.141585 0)
(-2.11048 0.138701 0)
(-2.13741 0.134649 0)
(-2.16319 0.129426 0)
(-2.18752 0.123037 0)
(-2.21009 0.115497 0)
(-2.23062 0.106824 0)
(-2.2488 0.0970448 0)
(-2.26433 0.0861939 0)
(-2.27692 0.0743147 0)
(-2.28627 0.0614552 0)
(-2.29213 0.0476521 0)
(-2.29426 0.0329276 0)
(-2.29238 0.0173347 0)
(-2.28609 0.00102802 0)
(-2.27551 -0.0158073 0)
(-2.26038 -0.0330876 0)
(-2.24053 -0.0507839 0)
(-2.21578 -0.068857 0)
(-2.186 -0.0872542 0)
(-2.15105 -0.10591 0)
(-2.11083 -0.124748 0)
(-2.06526 -0.143696 0)
(-2.01427 -0.162677 0)
(-1.95782 -0.181616 0)
(-1.8959 -0.200442 0)
(-1.82849 -0.219083 0)
(-1.75561 -0.237448 0)
(-1.67731 -0.255446 0)
(-1.59368 -0.273003 0)
(-1.50481 -0.290079 0)
(-1.41078 -0.306603 0)
(-1.31174 -0.32246 0)
(-1.20788 -0.337592 0)
(-1.09933 -0.352022 0)
(-0.986265 -0.365649 0)
(-0.868957 -0.378351 0)
(-0.747542 -0.390227 0)
(-0.622267 -0.401231 0)
(-0.493493 -0.411212 0)
(-0.361089 -0.420369 0)
(-0.225875 -0.428699 0)
(-0.0877697 -0.436037 0)
(0.0538724 -0.442474 0)
(0.195876 -0.447868 0)
(0.339362 -0.452015 0)
(0.483073 -0.454886 0)
(0.626904 -0.456454 0)
(0.770262 -0.456605 0)
(0.912877 -0.455301 0)
(1.05434 -0.452521 0)
(1.1943 -0.448245 0)
(1.33265 -0.442314 0)
(1.46936 -0.434934 0)
(1.60422 -0.426473 0)
(1.73686 -0.417166 0)
(1.86695 -0.407151 0)
(1.99419 -0.396517 0)
(2.11831 -0.385331 0)
(2.2391 -0.373654 0)
(2.35636 -0.361546 0)
(2.46994 -0.349067 0)
(2.5797 -0.336274 0)
(2.68551 -0.323229 0)
(2.78729 -0.309989 0)
(2.88496 -0.296611 0)
(2.97846 -0.283151 0)
(3.06775 -0.269662 0)
(3.15282 -0.256195 0)
(3.23365 -0.242799 0)
(3.31027 -0.22952 0)
(3.38269 -0.216401 0)
(3.45096 -0.203484 0)
(3.51513 -0.190808 0)
(3.57527 -0.178407 0)
(3.63147 -0.166316 0)
(3.6838 -0.154565 0)
(3.73239 -0.14318 0)
(3.77733 -0.132188 0)
(3.81876 -0.121609 0)
(3.8568 -0.111463 0)
(3.89159 -0.101765 0)
(3.92327 -0.092528 0)
(3.95199 -0.0837612 0)
(3.97791 -0.0754713 0)
(4.00117 -0.0676618 0)
(4.02194 -0.0603333 0)
(4.04036 -0.0534832 0)
(4.05661 -0.0471068 0)
(4.07082 -0.0411961 0)
(4.08316 -0.0357415 0)
(4.09378 -0.0307307 0)
(4.10281 -0.0261501 0)
(4.11041 -0.0219842 0)
(4.1167 -0.0182169 0)
(4.12182 -0.0148303 0)
(4.12589 -0.0118065 0)
(4.12904 -0.00912663 0)
(4.13137 -0.00677145 0)
(4.13299 -0.004721 0)
(4.13401 -0.0029557 0)
(4.13451 -0.00145678 0)
(4.1346 -0.000210329 0)
(4.13434 0.000806466 0)
(4.13382 0.00162288 0)
(4.13309 0.00226326 0)
(4.13221 0.00274818 0)
(4.13123 0.00309753 0)
(4.13019 0.00332946 0)
(4.12914 0.00346195 0)
(4.1281 0.00351144 0)
(4.12709 0.00349445 0)
(4.12614 0.00342613 0)
(4.12526 0.00332167 0)
(4.12446 0.00319483 0)
(4.12374 0.00305911 0)
(4.12309 0.00292579 0)
(4.12252 0.00280432 0)
(4.12199 0.0026991 0)
(4.12149 0.00261177 0)
(4.12099 0.00253913 0)
(4.12013 0.00263729 0)
(-0.0785273 0.230288 0)
(-0.11764 0.319473 0)
(-0.186991 0.378317 0)
(-0.251832 0.416049 0)
(-0.313592 0.438137 0)
(-0.372525 0.447764 0)
(-0.429759 0.447937 0)
(-0.48593 0.441463 0)
(-0.541152 0.430758 0)
(-0.595256 0.417486 0)
(-0.648067 0.402745 0)
(-0.699454 0.387269 0)
(-0.749329 0.371557 0)
(-0.79764 0.355945 0)
(-0.844363 0.340656 0)
(-0.889495 0.325829 0)
(-0.933044 0.311538 0)
(-0.97503 0.297814 0)
(-1.01547 0.284648 0)
(-1.0544 0.272008 0)
(-1.09182 0.259845 0)
(-1.12776 0.248095 0)
(-1.16224 0.236691 0)
(-1.19525 0.225562 0)
(-1.22679 0.214638 0)
(-1.25685 0.203856 0)
(-1.28541 0.193158 0)
(-1.31245 0.182495 0)
(-1.33793 0.171829 0)
(-1.36182 0.161135 0)
(-1.38409 0.150399 0)
(-1.40469 0.13962 0)
(-1.4236 0.128811 0)
(-1.44077 0.117997 0)
(-1.4562 0.107217 0)
(-1.46986 0.0965211 0)
(-1.48175 0.08597 0)
(-1.49189 0.0756341 0)
(-1.50029 0.0655917 0)
(-1.507 0.0559272 0)
(-1.51208 0.0467291 0)
(-1.51561 0.0380885 0)
(-1.51768 0.0300969 0)
(-1.5184 0.0228438 0)
(-1.5179 0.0164152 0)
(-1.51634 0.0108908 0)
(-1.51387 0.00634265 0)
(-1.51067 0.00283329 0)
(-1.50694 0.000414105 0)
(-1.50286 -0.000876269 0)
(-1.49865 -0.0010141 0)
(-1.49451 7.89285e-06 0)
(-1.49062 0.00218024 0)
(-1.4872 0.00547481 0)
(-1.48443 0.0098452 0)
(-1.48249 0.0152286 0)
(-1.48157 0.0215466 0)
(-1.48182 0.0287077 0)
(-1.48337 0.036609 0)
(-1.48635 0.0451382 0)
(-1.49086 0.0541752 0)
(-1.49698 0.0635936 0)
(-1.50477 0.073263 0)
(-1.51425 0.0830497 0)
(-1.52544 0.0928192 0)
(-1.53832 0.102437 0)
(-1.55287 0.111772 0)
(-1.56901 0.120694 0)
(-1.58668 0.129079 0)
(-1.60576 0.136808 0)
(-1.62614 0.14377 0)
(-1.64767 0.149861 0)
(-1.6702 0.154985 0)
(-1.69353 0.159056 0)
(-1.71748 0.161997 0)
(-1.74183 0.163742 0)
(-1.76635 0.164234 0)
(-1.79081 0.163427 0)
(-1.81495 0.161286 0)
(-1.83852 0.157784 0)
(-1.86123 0.152907 0)
(-1.88282 0.146649 0)
(-1.903 0.139016 0)
(-1.92149 0.13002 0)
(-1.93799 0.119683 0)
(-1.95224 0.108035 0)
(-1.96393 0.0951144 0)
(-1.97277 0.0809727 0)
(-1.9785 0.0656634 0)
(-1.98086 0.0492233 0)
(-1.97964 0.0316835 0)
(-1.97451 0.0131377 0)
(-1.96515 -0.00620379 0)
(-1.95173 -0.0261562 0)
(-1.93393 -0.046669 0)
(-1.91158 -0.0676994 0)
(-1.88452 -0.0891938 0)
(-1.85259 -0.111087 0)
(-1.81567 -0.133297 0)
(-1.77364 -0.155733 0)
(-1.72642 -0.178303 0)
(-1.67395 -0.200917 0)
(-1.61619 -0.223485 0)
(-1.55311 -0.245923 0)
(-1.48471 -0.268154 0)
(-1.41098 -0.290061 0)
(-1.33197 -0.311529 0)
(-1.24778 -0.332467 0)
(-1.1585 -0.352841 0)
(-1.06417 -0.372573 0)
(-0.964936 -0.391508 0)
(-0.861025 -0.409561 0)
(-0.752499 -0.426794 0)
(-0.63955 -0.443099 0)
(-0.52249 -0.458298 0)
(-0.401316 -0.472509 0)
(-0.276359 -0.48575 0)
(-0.148175 -0.497849 0)
(-0.0158647 -0.508852 0)
(0.118767 -0.518696 0)
(0.255251 -0.527241 0)
(0.39366 -0.534357 0)
(0.533017 -0.540061 0)
(0.673186 -0.544271 0)
(0.813577 -0.546914 0)
(0.953856 -0.547976 0)
(1.0936 -0.54739 0)
(1.23251 -0.545138 0)
(1.37022 -0.541225 0)
(1.50645 -0.535644 0)
(1.64103 -0.528362 0)
(1.77385 -0.519555 0)
(1.90471 -0.509492 0)
(2.03329 -0.498387 0)
(2.15928 -0.486393 0)
(2.28242 -0.473622 0)
(2.40244 -0.460168 0)
(2.51914 -0.446112 0)
(2.63232 -0.431534 0)
(2.74184 -0.416509 0)
(2.84755 -0.401111 0)
(2.94935 -0.385415 0)
(3.04715 -0.36949 0)
(3.14087 -0.353407 0)
(3.23046 -0.337233 0)
(3.31589 -0.32103 0)
(3.39714 -0.304862 0)
(3.47421 -0.288785 0)
(3.54712 -0.272855 0)
(3.61589 -0.257125 0)
(3.68057 -0.241644 0)
(3.74121 -0.226457 0)
(3.79789 -0.211608 0)
(3.85069 -0.197137 0)
(3.89971 -0.183079 0)
(3.94505 -0.169467 0)
(3.98682 -0.156331 0)
(4.02515 -0.143698 0)
(4.06018 -0.131588 0)
(4.09203 -0.120021 0)
(4.12086 -0.109011 0)
(4.14682 -0.0985694 0)
(4.17006 -0.0887038 0)
(4.19073 -0.0794176 0)
(4.20899 -0.0707111 0)
(4.22501 -0.0625807 0)
(4.23893 -0.0550201 0)
(4.25091 -0.0480193 0)
(4.26111 -0.041566 0)
(4.26968 -0.035645 0)
(4.27675 -0.0302394 0)
(4.28248 -0.0253302 0)
(4.28698 -0.0208973 0)
(4.29041 -0.0169193 0)
(4.29287 -0.0133742 0)
(4.29449 -0.010239 0)
(4.29537 -0.00749063 0)
(4.29563 -0.00510525 0)
(4.29536 -0.00306025 0)
(4.29466 -0.00133531 0)
(4.29364 9.12071e-05 0)
(4.29234 0.00125087 0)
(4.29083 0.00217576 0)
(4.28917 0.00289355 0)
(4.28742 0.00342837 0)
(4.28561 0.0038038 0)
(4.2838 0.00404139 0)
(4.28201 0.00416253 0)
(4.28027 0.00418684 0)
(4.27861 0.00413401 0)
(4.27704 0.00402211 0)
(4.27557 0.00386932 0)
(4.27421 0.0036922 0)
(4.27296 0.00350721 0)
(4.27182 0.00332865 0)
(4.27077 0.00316969 0)
(4.26979 0.00303959 0)
(4.26884 0.00294888 0)
(4.26792 0.00290628 0)
(4.26651 0.00312631 0)
(-0.0585889 0.312332 0)
(-0.114332 0.394471 0)
(-0.183923 0.443838 0)
(-0.244991 0.475198 0)
(-0.301867 0.493315 0)
(-0.355303 0.500457 0)
(-0.406611 0.498995 0)
(-0.456529 0.491287 0)
(-0.505327 0.479396 0)
(-0.553012 0.464858 0)
(-0.599521 0.448757 0)
(-0.644787 0.43185 0)
(-0.688755 0.414661 0)
(-0.731392 0.39755 0)
(-0.772681 0.38076 0)
(-0.812617 0.36444 0)
(-0.851205 0.348677 0)
(-0.888453 0.333502 0)
(-0.924371 0.318911 0)
(-0.958969 0.304869 0)
(-0.992256 0.291325 0)
(-1.02423 0.278209 0)
(-1.0549 0.265449 0)
(-1.08425 0.252968 0)
(-1.11227 0.240688 0)
(-1.13893 0.22854 0)
(-1.16419 0.216461 0)
(-1.18804 0.204396 0)
(-1.21041 0.192305 0)
(-1.23127 0.18016 0)
(-1.25056 0.167946 0)
(-1.26825 0.155664 0)
(-1.28429 0.143331 0)
(-1.29864 0.130977 0)
(-1.31126 0.118649 0)
(-1.32214 0.106404 0)
(-1.33126 0.0943159 0)
(-1.33864 0.0824664 0)
(-1.34428 0.0709473 0)
(-1.34823 0.0598571 0)
(-1.35054 0.0492993 0)
(-1.35128 0.0393797 0)
(-1.35056 0.0302046 0)
(-1.34847 0.021878 0)
(-1.34516 0.0144993 0)
(-1.34076 0.00816066 0)
(-1.33545 0.00294519 0)
(-1.32941 -0.0010752 0)
(-1.32282 -0.00384156 0)
(-1.3159 -0.00531183 0)
(-1.30887 -0.00546472 0)
(-1.30192 -0.00429705 0)
(-1.29523 -0.00182306 0)
(-1.28898 0.00192522 0)
(-1.28335 0.00689618 0)
(-1.27854 0.0130175 0)
(-1.27469 0.0201983 0)
(-1.27199 0.0283327 0)
(-1.27055 0.0373018 0)
(-1.27049 0.0469763 0)
(-1.27191 0.0572185 0)
(-1.27489 0.0678842 0)
(-1.27947 0.0788247 0)
(-1.28567 0.0898887 0)
(-1.29352 0.100924 0)
(-1.30299 0.111779 0)
(-1.31403 0.122304 0)
(-1.3266 0.132355 0)
(-1.34062 0.141791 0)
(-1.35597 0.150478 0)
(-1.37255 0.158292 0)
(-1.39021 0.165115 0)
(-1.4088 0.170839 0)
(-1.42814 0.175367 0)
(-1.44805 0.178611 0)
(-1.46832 0.180496 0)
(-1.48874 0.180957 0)
(-1.50908 0.179941 0)
(-1.5291 0.177406 0)
(-1.54855 0.173322 0)
(-1.56718 0.16767 0)
(-1.58471 0.160442 0)