/*--------------------------------*- C++ -*----------------------------------*\
  =========                 |
  \\      /  F ield         | OpenFOAM: The Open Source CFD Toolbox
   \\    /   O peration     | Website:  https://openfoam.org
    \\  /    A nd           | Version:  7
     \\/     M anipulation  |
\*---------------------------------------------------------------------------*/
FoamFile
{
    version     2.0;
    format      ascii;
    class       volScalarField;
    location    "3.1";
    object      p;
}
// * * * * * * * * * * * * * * * * * * * * * * * * * * * * * * * * * * * * * //

dimensions      [0 2 -2 0 0 0 0];

internalField   nonuniform List<scalar> 
900
(
-1.12186e-08
-0.000261155
-0.000639602
-0.000990626
-0.00125213
-0.00137861
-0.00134922
-0.00115723
-0.000802302
-0.000287024
0.000384014
0.00120367
0.00216075
0.00323808
0.00441065
0.00564439
0.00689587
0.00811342
0.00923998
0.0102176
0.0109935
0.0115265
0.0117938
0.0117963
0.0115612
0.0111437
0.0106236
0.0100921
0.00968324
0.00950735
0.000257961
-8.62459e-06
-0.000284081
-0.000525511
-0.000690804
-0.000747169
-0.000677427
-0.000473941
-0.000134079
0.000341677
0.000950271
0.00168566
0.00253777
0.0034911
0.00452334
0.00560446
0.00669777
0.00775876
0.00873957
0.00959219
0.0102735
0.0107508
0.0110073
0.0110461
0.0108919
0.0105909
0.0102067
0.00981483
0.00949852
0.00933053
0.000647982
0.000258066
-2.56587e-05
-0.000235926
-0.000364538
-0.000390332
-0.000302431
-9.61936e-05
0.000230359
0.000677339
0.00124292
0.00192269
0.00270856
0.0035874
0.00453973
0.00553901
0.00655137
0.00753637
0.00844959
0.00924609
0.00988524
0.0103361
0.0105827
0.0106277
0.0104939
0.0102227
0.00987042
0.00950252
0.00917866
0.00892964
0.00102401
0.000487658
0.000153132
-6.45762e-05
-0.000186922
-0.000203603
-0.000111019
9.09564e-05
0.000402469
0.000823647
0.0013539
0.00199087
0.00272911
0.00355844
0.00446243
0.00541729
0.00639147
0.00734592
0.00823662
0.00901785
0.00964719
0.0100914
0.0103318
0.0103689
0.0102233
0.00993423
0.00955539
0.00914927
0.00876062
0.00838772
0.00131092
0.000621093
0.00022194
-1.96626e-05
-0.000151015
-0.000171166
-8.33881e-05
0.00010792
0.000400991
0.000795993
0.00129377
0.00189444
0.00259563
0.0033906
0.00426619
0.00520116
0.00616631
0.0071223
0.00802366
0.00882137
0.00946822
0.00992536
0.0101689
0.0101949
0.0100214
0.00968681
0.00924579
0.00876328
0.0082763
0.00775838
0.00143722
0.000599005
0.000130441
-0.000144419
-0.000295168
-0.000328656
-0.000254133
-7.99581e-05
0.000190535
0.000557847
0.0010246
0.00159376
0.00226656
0.00304018
0.00390511
0.0048427
0.00582698
0.00681645
0.00776296
0.00861202
0.00930865
0.00980507
0.0100686
0.0100886
0.00987928
0.00947885
0.00894624
0.00835434
0.00773988
0.00705789
0.00134807
0.000371116
-0.000166839
-0.000479821
-0.000656896
-0.000711494
-0.000657915
-0.000507761
-0.000265408
7.0407e-05
0.000504507
0.00104322
0.00169199
0.0024526
0.00332031
0.00428095
0.00530737
0.00636068
0.00738814
0.00832761
0.00911341
0.00968487
0.00999633
0.0100262
0.00978274
0.00930377
0.0086551
0.00792307
0.00715071
0.00627871
0.000998695
-0.000106521
-0.000711451
-0.0010647
-0.00127291
-0.00135528
-0.00133042
-0.00121253
-0.0010065
-0.00070987
-0.000315148
0.000187928
0.000809773
0.00155786
0.00243337
0.00342755
0.00451592
0.00566091
0.00680587
0.00787996
0.00880384
0.00949934
0.00990194
0.00997341
0.00971106
0.00915071
0.00836673
0.00746436
0.00649857
0.0053969
0.000349625
-0.000873763
-0.00154251
-0.00193721
-0.00218082
-0.00229792
-0.00231093
-0.00223619
-0.00207877
-0.00183469
-0.00149339
-0.00104012
-0.000458529
0.000265983
0.00114241
0.00216954
0.00332986
0.00458841
0.00588657
0.00714493
0.00826793
0.00915454
0.00971353
0.00988103
0.00963542
0.00900547
0.00807424
0.00697127
0.00576873
0.00437934
-0.000635045
-0.00196696
-0.00269643
-0.0031339
-0.00341784
-0.00357803
-0.0036406
-0.00362388
-0.00353305
-0.00336252
-0.00309856
-0.0027214
-0.00220781
-0.00153429
-0.000681267
0.000361372
0.00158715
0.00296935
0.00445119
0.0059468
0.00734321
0.00851081
0.00932159
0.00967285
0.00951065
0.00884665
0.00776939
0.00643776
0.00494663
0.00319002
-0.00198795
-0.00341889
-0.00420635
-0.00468866
-0.0050191
-0.00523292
-0.00536011
-0.00542123
-0.0054219
-0.00535532
-0.00520476
-0.00494537
-0.00454618
-0.0039729
-0.00319205
-0.0021771
-0.000917083
0.00057809
0.00226041
0.00404348
0.0057985
0.00736263
0.00855912
0.00922824
0.00926271
0.00863874
0.00744105
0.00586109
0.00402258
0.00179576
-0.0037379
-0.0052583
-0.00610147
-0.00663151
-0.00701606
-0.00729628
-0.00750658
-0.00767052
-0.00779499
-0.00787292
-0.00788545
-0.00780308
-0.00758678
-0.00718979
-0.00656111
-0.0056514
-0.00442255
-0.00286001
-0.000987442
0.00111866
0.00332026
0.00541999
0.00718036
0.00836147
0.00877198
0.00832189
0.00707181
0.00524388
0.00299699
0.000172489
-0.00590888
-0.0075092
-0.00840612
-0.00898732
-0.00943437
-0.00979514
-0.0101096
-0.0104054
-0.0106923
-0.0109646
-0.011203
-0.0113746
-0.0114329
-0.0113178
-0.0109573
-0.0102726
-0.00918805
-0.00765032
-0.00564117
-0.00320905
-0.000486601
0.00230023
0.0048449
0.00680174
0.00785418
0.0077983
0.00663248
0.00459619
0.00188718
-0.00168652
-0.00851875
-0.0101901
-0.0111389
-0.0117743
-0.0122915
-0.0127464
-0.0131859
-0.013644
-0.0141351
-0.0146576
-0.0151942
-0.0157112
-0.0161562
-0.016456
-0.0165154
-0.0162207
-0.0154483
-0.0140844
-0.0120535
-0.00934763
-0.00606909
-0.00245497
0.0011207
0.0041843
0.00624537
0.00691877
0.00607608
0.00393863
0.000737148
-0.00375833
-0.0115783
-0.0133137
-0.0143125
-0.0150031
-0.0155947
-0.016153
-0.0167344
-0.0173812
-0.018116
-0.0189439
-0.0198534
-0.0208134
-0.0217688
-0.022635
-0.0232934
-0.0235909
-0.0233461
-0.0223676
-0.0205045
-0.0176535
-0.0138532
-0.00931948
-0.00447503
6.99589e-05
0.00360412
0.00547683
0.00533462
0.00330845
-0.000367619
-0.0059712
-0.015091
-0.0168876
-0.0179336
-0.0186759
-0.0193387
-0.0200003
-0.0207296
-0.021581
-0.022588
-0.0237667
-0.0251151
-0.026609
-0.028195
-0.0297809
-0.0312261
-0.0323368
-0.0328699
-0.0325512
-0.0310988
-0.0283143
-0.024122
-0.0186672
-0.0123789
-0.00598607
-0.000450196
0.00322415
0.00432635
0.00277233
-0.00127733
-0.00817539
-0.019054
-0.0209167
-0.0220056
-0.0227874
-0.023505
-0.0242532
-0.0251179
-0.0261694
-0.0274565
-0.0290094
-0.0308401
-0.0329357
-0.0352493
-0.0376854
-0.0400856
-0.0422177
-0.0437737
-0.0443828
-0.0436443
-0.0412145
-0.036863
-0.0306094
-0.0228242
-0.0143016
-0.00624292
-7.43277e-05
0.00298561
0.0024513
-0.001744
-0.0101002
-0.0234619
-0.0254078
-0.0265319
-0.0273272
-0.0280619
-0.0288544
-0.0298138
-0.0310311
-0.032574
-0.034491
-0.0368108
-0.039536
-0.0426297
-0.0459981
-0.0494701
-0.0527796
-0.0555583
-0.0573408
-0.0575958
-0.0558364
-0.0516331
-0.0448272
-0.0356531
-0.0248811
-0.0138862
-0.00452904
0.00132975
0.00256644
-0.00137251
-0.0112937
-0.0283132
-0.0303787
-0.0315238
-0.0322836
-0.0329661
-0.0337243
-0.034699
-0.0360082
-0.0377421
-0.0399696
-0.0427384
-0.046068
-0.0499343
-0.0542479
-0.0588293
-0.063385
-0.0674933
-0.0706084
-0.0720892
-0.0712492
-0.0675038
-0.0604668
-0.0501618
-0.0372248
-0.0230826
-0.00995922
-0.000424561
0.00351492
0.000447333
-0.0110406
-0.0336238
-0.0358725
-0.0370107
-0.0376499
-0.0381653
-0.038762
-0.0396249
-0.0409054
-0.0427195
-0.045157
-0.0482841
-0.0521366
-0.0567021
-0.0618962
-0.0675327
-0.0732957
-0.0787194
-0.0831875
-0.0859576
-0.0861985
-0.0831418
-0.0761745
-0.0650656
-0.0502173
-0.0329538
-0.0157044
-0.00170062
0.00598409
0.00463246
-0.00825241
-0.0394501
-0.0419814
-0.0430571
-0.0434323
-0.0436006
-0.043847
-0.0444154
-0.045498
-0.0472372
-0.0497418
-0.0530932
-0.0573385
-0.0624732
-0.0684141
-0.074967
-0.081795
-0.0883949
-0.0940916
-0.0980567
-0.0993519
-0.0970394
-0.0903014
-0.0786459
-0.0621814
-0.0419878
-0.0204864
-0.00139224
0.0110993
0.0125248
-0.00131708
-0.0459335
-0.0488856
-0.0497839
-0.0496575
-0.0492084
-0.0488401
-0.0488732
-0.0495443
-0.0510195
-0.0534204
-0.0568354
-0.0613153
-0.0668549
-0.0733646
-0.0806364
-0.0883098
-0.0958463
-0.10252
-0.107433
-0.109555
-0.107816
-0.101227
-0.0890602
-0.0711255
-0.0481721
-0.0224067
0.0022471
0.0205774
0.0260374
0.0121115
-0.0533879
-0.0569174
-0.0573988
-0.0563792
-0.0549171
-0.0535831
-0.0527853
-0.0528005
-0.0538078
-0.0559286
-0.059246
-0.0638017
-0.0695777
-0.076467
-0.0842379
-0.0924994
-0.100675
-0.10799
-0.113483
-0.116042
-0.114484
-0.107682
-0.0947141
-0.0751241
-0.0493164
-0.0191379
0.0115759
0.0368326
0.047836
0.0354309
-0.0624828
-0.0666678
-0.0662314
-0.063676
-0.060638
-0.0578934
-0.0559275
-0.0550349
-0.0553831
-0.0570716
-0.0601586
-0.0646596
-0.0705296
-0.0776302
-0.0856943
-0.0942909
-0.102796
-0.110379
-0.116011
-0.118504
-0.116574
-0.10896
-0.0945708
-0.0727234
-0.0435085
-0.00832006
0.0293108
0.0629562
0.0815771
0.0735719
-0.0746488
-0.0791616
-0.0767539
-0.0716226
-0.0662329
-0.0615435
-0.0580568
-0.0560302
-0.0555749
-0.056734
-0.0595146
-0.063885
-0.0697543
-0.0769383
-0.0851227
-0.0938252
-0.102366
-0.109853
-0.115185
-0.117084
-0.114154
-0.104989
-0.0883261
-0.0632645
-0.0296096
0.0118376
0.0579303
0.102428
0.132081
0.133475
-0.093013
-0.0961453
-0.0895291
-0.0801793
-0.0714165
-0.0641828
-0.0588501
-0.0555358
-0.0542225
-0.0548468
-0.0573294
-0.0615668
-0.067404
-0.0745975
-0.0827748
-0.0913955
-0.0997196
-0.106788
-0.111422
-0.112249
-0.107738
-0.0963173
-0.0765087
-0.0471186
-0.00755682
0.0417584
0.09877
0.158258
0.20486
0.223958
-0.124496
-0.120485
-0.105108
-0.0890455
-0.0756133
-0.0652133
-0.0578072
-0.0531966
-0.0511228
-0.0513453
-0.0536554
-0.0578515
-0.0636998
-0.0708888
-0.0789846
-0.0873889
-0.0953042
-0.101711
-0.105361
-0.104796
-0.0983233
-0.0841993
-0.0606584
-0.0260902
0.0206951
0.0801349
0.151571
0.23122
0.304362
0.356886
-0.184675
-0.155181
-0.123413
-0.0972035
-0.0775568
-0.0635191
-0.0541194
-0.048517
-0.0460414
-0.0461946
-0.0486035
-0.0529563
-0.0589398
-0.0661815
-0.074197
-0.0823432
-0.0897803
-0.0954442
-0.0980407
-0.0960608
-0.0876647
-0.0709724
-0.043855
-0.00413806
0.0503367
0.121588
0.211377
0.31883
0.432999
0.559241
-0.31666
-0.195553
-0.135461
-0.0965348
-0.0708972
-0.0544976
-0.0446298
-0.0393871
-0.0375621
-0.0384237
-0.0414936
-0.0464048
-0.0528128
-0.0603269
-0.0684518
-0.0765382
-0.0837438
-0.088999
-0.0909796
-0.0880775
-0.0787184
-0.0606695
-0.0315639
0.0113021
0.0712676
0.152788
0.262264
0.407975
0.596594
0.886245
-0.643392
-0.23154
-0.103785
-0.0613816
-0.0390369
-0.0267083
-0.0212387
-0.0199466
-0.0212905
-0.0245979
-0.0295428
-0.0358902
-0.0433989
-0.0517618
-0.0605538
-0.0691874
-0.0768782
-0.0826212
-0.085186
-0.08312
-0.0745254
-0.0573866
-0.0293772
0.012404
0.0718921
0.155434
0.275443
0.460062
0.766374
1.36034
)
;

boundaryField
{
    movingWall
    {
        type            zeroGradient;
    }
    fixedWalls
    {
        type            zeroGradient;
    }
    frontAndBack
    {
        type            empty;
    }
}


// ************************************************************************* //
