/*--------------------------------*- C++ -*----------------------------------*\
  =========                 |
  \\      /  F ield         | OpenFOAM: The Open Source CFD Toolbox
   \\    /   O peration     | Website:  https://openfoam.org
    \\  /    A nd           | Version:  7
     \\/     M anipulation  |
\*---------------------------------------------------------------------------*/
FoamFile
{
    version     2.0;
    format      ascii;
    class       volVectorField;
    location    "3.1";
    object      U;
}
// * * * * * * * * * * * * * * * * * * * * * * * * * * * * * * * * * * * * * //

dimensions      [0 1 -1 0 0 0 0];

internalField   nonuniform List<vector> 
900
(
(9.96281e-05 -9.88191e-05 0)
(0.000127963 -1.13124e-05 0)
(-0.000200894 0.000112123 0)
(-0.000855287 0.000215901 0)
(-0.00175114 0.000286902 0)
(-0.00281299 0.000329056 0)
(-0.00397103 0.000349604 0)
(-0.00516854 0.000354574 0)
(-0.00636018 0.000347781 0)
(-0.00750751 0.000331006 0)
(-0.00857494 0.000304513 0)
(-0.00952697 0.000267618 0)
(-0.0103267 0.000219281 0)
(-0.0109361 0.000158687 0)
(-0.0113174 8.58248e-05 0)
(-0.0114363 1.95655e-06 0)
(-0.0112662 -9.02432e-05 0)
(-0.0107927 -0.000185886 0)
(-0.0100189 -0.000278518 0)
(-0.00896917 -0.000360398 0)
(-0.00769138 -0.000423252 0)
(-0.00625651 -0.000459341 0)
(-0.00475503 -0.000462619 0)
(-0.00329024 -0.000429766 0)
(-0.00196899 -0.000360865 0)
(-0.000889789 -0.000259844 0)
(-0.000129016 -0.000135994 0)
(0.000262651 -7.73706e-06 0)
(0.000299696 0.00010078 0)
(0.00011907 0.000117746 0)
(1.55478e-05 -0.000131694 0)
(-0.000371745 0.000371108 0)
(-0.0015484 0.000978818 0)
(-0.00339828 0.00149763 0)
(-0.00577928 0.0018774 0)
(-0.00853971 0.00212109 0)
(-0.0115298 0.00224857 0)
(-0.0146162 0.00228058 0)
(-0.0176832 0.00223242 0)
(-0.0206275 0.00211267 0)
(-0.0233522 0.00192422 0)
(-0.0257628 0.00166634 0)
(-0.0277649 0.00133726 0)
(-0.0292653 0.000936917 0)
(-0.0301759 0.000469605 0)
(-0.0304209 -5.37878e-05 0)
(-0.0299449 -0.000614101 0)
(-0.0287233 -0.00118328 0)
(-0.0267731 -0.00172535 0)
(-0.024159 -0.00219883 0)
(-0.020998 -0.00256072 0)
(-0.0174574 -0.00277183 0)
(-0.0137459 -0.0028026 0)
(-0.0100986 -0.0026385 0)
(-0.00675588 -0.00228405 0)
(-0.00393696 -0.00176573 0)
(-0.00181162 -0.00113598 0)
(-0.000472078 -0.0004809 0)
(0.000106965 7.73163e-05 0)
(0.000109257 0.000298692 0)
(-0.000114267 0.000197912 0)
(-0.00102823 0.00155824 0)
(-0.00313451 0.00302199 0)
(-0.00614714 0.00426737 0)
(-0.00986443 0.00520008 0)
(-0.0140895 0.0058142 0)
(-0.0186222 0.00614016 0)
(-0.0232773 0.00621598 0)
(-0.0278883 0.00607269 0)
(-0.0323027 0.00572952 0)
(-0.0363756 0.00519492 0)
(-0.0399664 0.00447042 0)
(-0.0429361 0.0035563 0)
(-0.0451504 0.00245777 0)
(-0.0464845 0.00119106 0)
(-0.0468331 -0.000211428 0)
(-0.0461216 -0.00169744 0)
(-0.0443195 -0.00319437 0)
(-0.0414538 -0.00461139 0)
(-0.0376182 -0.00584552 0)
(-0.0329777 -0.00679143 0)
(-0.0277666 -0.00735408 0)
(-0.0222764 -0.00746273 0)
(-0.0168358 -0.00708413 0)
(-0.0117804 -0.00623317 0)
(-0.00741818 -0.00497995 0)
(-0.00398967 -0.0034555 0)
(-0.00162719 -0.00185807 0)
(-0.00032746 -0.000463776 0)
(3.29868e-05 0.000300755 0)
(-0.000239954 0.000898866 0)
(-0.0016764 0.00352701 0)
(-0.00470398 0.0061008 0)
(-0.00883728 0.00824983 0)
(-0.013796 0.00985774 0)
(-0.0193414 0.0109187 0)
(-0.0252344 0.0114765 0)
(-0.0312534 0.0115871 0)
(-0.0371964 0.0112975 0)
(-0.0428751 0.010638 0)
(-0.0481097 0.00962362 0)
(-0.0527244 0.00825927 0)
(-0.0565462 0.00654934 0)
(-0.0594076 0.00450762 0)
(-0.0611538 0.00216739 0)
(-0.0616534 -0.000410149 0)
(-0.060812 -0.00313067 0)
(-0.0585885 -0.00586428 0)
(-0.0550101 -0.00845067 0)
(-0.0501851 -0.0107091 0)
(-0.0443092 -0.012455 0)
(-0.0376644 -0.0135214 0)
(-0.0306063 -0.0137836 0)
(-0.0235406 -0.0131823 0)
(-0.016887 -0.0117429 0)
(-0.0110367 -0.00958781 0)
(-0.00630352 -0.0069425 0)
(-0.00287349 -0.00413686 0)
(-0.000793534 -0.00160739 0)
(-4.45783e-05 5.02993e-05 0)
(-0.000348468 0.00193303 0)
(-0.00227045 0.00623992 0)
(-0.00617612 0.010165 0)
(-0.011374 0.0133608 0)
(-0.0174969 0.0157267 0)
(-0.024262 0.0172765 0)
(-0.0313963 0.0180759 0)
(-0.0386505 0.0182018 0)
(-0.0457977 0.0177181 0)
(-0.0526258 0.0166662 0)
(-0.0589301 0.0150667 0)
(-0.0645089 0.0129279 0)
(-0.069162 0.0102584 0)
(-0.0726936 0.00708142 0)
(-0.07492 0.00344892 0)
(-0.0756814 -0.000545871 0)
(-0.0748567 -0.0047612 0)
(-0.0723821 -0.00900221 0)
(-0.0682713 -0.0130285 0)
(-0.0626302 -0.016568 0)
(-0.0556686 -0.0193406 0)
(-0.0477022 -0.0210901 0)
(-0.0391418 -0.0216214 0)
(-0.030468 -0.0208364 0)
(-0.02219 -0.0187649 0)
(-0.0147949 -0.0155832 0)
(-0.00868778 -0.01162 0)
(-0.00412946 -0.00734863 0)
(-0.0012371 -0.00337141 0)
(-0.000107559 -0.000442281 0)
(-0.000441363 0.00326965 0)
(-0.00280588 0.0096496 0)
(-0.00753209 0.015167 0)
(-0.0137322 0.0195488 0)
(-0.0209511 0.0227472 0)
(-0.0288611 0.0248185 0)
(-0.0371583 0.025864 0)
(-0.0455715 0.0259879 0)
(-0.0538575 0.025273 0)
(-0.0617889 0.0237717 0)
(-0.069145 0.0215094 0)
(-0.0757055 0.0184956 0)
(-0.0812482 0.0147405 0)
(-0.0855506 0.0102738 0)
(-0.0883975 0.00516412 0)
(-0.0895943 -0.000464529 0)
(-0.0889812 -0.00642007 0)
(-0.0864558 -0.0124402 0)
(-0.0819989 -0.0181954 0)
(-0.0756942 -0.0233079 0)
(-0.0677472 -0.0273828 0)
(-0.0584944 -0.0300514 0)
(-0.0483973 -0.0310232 0)
(-0.0380174 -0.0301399 0)
(-0.0279709 -0.0274208 0)
(-0.0188669 -0.0230922 0)
(-0.0112318 -0.0175931 0)
(-0.00542994 -0.011556 0)
(-0.00166682 -0.00576676 0)
(-0.000156879 -0.00115415 0)
(-0.000522716 0.00487707 0)
(-0.00329035 0.0137012 0)
(-0.00877778 0.0210462 0)
(-0.0159173 0.0267518 0)
(-0.0241708 0.0308564 0)
(-0.033167 0.0334834 0)
(-0.0425742 0.0347845 0)
(-0.0521051 0.0349002 0)
(-0.0615068 0.0339359 0)
(-0.0705448 0.0319556 0)
(-0.0789898 0.028987 0)
(-0.0866092 0.0250369 0)
(-0.0931624 0.0201117 0)
(-0.0984008 0.0142414 0)
(-0.102074 0.00750419 0)
(-0.10394 4.90035e-05 0)
(-0.103788 -0.00788618 0)
(-0.101459 -0.0159704 0)
(-0.0968754 -0.0237783 0)
(-0.0900733 -0.0308116 0)
(-0.0812319 -0.0365368 0)
(-0.0706925 -0.040441 0)
(-0.058962 -0.0421028 0)
(-0.046692 -0.0412687 0)
(-0.0346299 -0.0379217 0)
(-0.0235438 -0.0323265 0)
(-0.0141245 -0.0250395 0)
(-0.00687802 -0.0168759 0)
(-0.00212342 -0.00884005 0)
(-0.00020054 -0.00208008 0)
(-0.000595741 0.00672926 0)
(-0.00373256 0.0183437 0)
(-0.00992528 0.0277422 0)
(-0.0179441 0.034909 0)
(-0.0271748 0.0399976 0)
(-0.037207 0.0432218 0)
(-0.0476856 0.0448005 0)
(-0.0583125 0.0449201 0)
(-0.0688323 0.0437139 0)
(-0.0790104 0.0412576 0)
(-0.0886165 0.0375788 0)
(-0.0974117 0.0326755 0)
(-0.105141 0.0265419 0)
(-0.111529 0.0191978 0)
(-0.116285 0.0107193 0)
(-0.119113 0.00126868 0)
(-0.119733 -0.00888168 0)
(-0.117905 -0.0193343 0)
(-0.113467 -0.0295644 0)
(-0.106378 -0.0389382 0)
(-0.0967627 -0.0467558 0)
(-0.084942 -0.0523195 0)
(-0.0714574 -0.0550272 0)
(-0.0570567 -0.0544786 0)
(-0.0426451 -0.0505777 0)
(-0.0291953 -0.0436051 0)
(-0.0176191 -0.0342396 0)
(-0.00861786 -0.0235122 0)
(-0.0026638 -0.0127002 0)
(-0.000248889 -0.00324256 0)
(-0.000662252 0.0088053 0)
(-0.00413829 0.0235315 0)
(-0.0109838 0.0351991 0)
(-0.0198235 0.0439631 0)
(-0.0299752 0.0501189 0)
(-0.040995 0.0539926 0)
(-0.0525098 0.0558869 0)
(-0.0642169 0.0560451 0)
(-0.0758651 0.0546338 0)
(-0.0872277 0.0517416 0)
(-0.0980805 0.0473923 0)
(-0.108185 0.0415677 0)
(-0.117276 0.0342385 0)
(-0.125054 0.0253992 0)
(-0.131186 0.0151074 0)
(-0.135312 0.00352042 0)
(-0.137066 -0.00906985 0)
(-0.136106 -0.0222111 0)
(-0.132157 -0.0352798 0)
(-0.125066 -0.0474942 0)
(-0.114863 -0.0579574 0)
(-0.101817 -0.0657379 0)
(-0.0864787 -0.0699873 0)
(-0.0696888 -0.070086 0)
(-0.0525328 -0.0657927 0)
(-0.0362386 -0.0573627 0)
(-0.0220104 -0.0455947 0)
(-0.0108195 -0.0317767 0)
(-0.00335383 -0.0175346 0)
(-0.000312953 -0.00469733 0)
(-0.000722875 0.0110868 0)
(-0.00450972 0.0292221 0)
(-0.0119564 0.0433623 0)
(-0.0215573 0.0538571 0)
(-0.0325706 0.0611674 0)
(-0.0445241 0.0657532 0)
(-0.0570326 0.0680174 0)
(-0.0697952 0.0682718 0)
(-0.0825721 0.0667226 0)
(-0.0951521 0.0634727 0)
(-0.107326 0.0585382 0)
(-0.118862 0.051876 0)
(-0.129494 0.0434195 0)
(-0.138899 0.0331204 0)
(-0.146704 0.0209949 0)
(-0.152479 0.0071721 0)
(-0.155765 -0.00805938 0)
(-0.156096 -0.0242116 0)
(-0.153055 -0.0405711 0)
(-0.146339 -0.0562014 0)
(-0.135839 -0.0699801 0)
(-0.121723 -0.0806873 0)
(-0.104511 -0.0871486 0)
(-0.0851123 -0.0884272 0)
(-0.0648007 -0.084039 0)
(-0.045109 -0.0741414 0)
(-0.0276185 -0.0596327 0)
(-0.0136711 -0.0421016 0)
(-0.00426599 -0.0236199 0)
(-0.000404308 -0.00653668 0)
(-0.000777382 0.0135556 0)
(-0.0048459 0.0353731 0)
(-0.0128401 0.0521756 0)
(-0.0231379 0.0645291 0)
(-0.0349443 0.0730825 0)
(-0.0477642 0.0784497 0)
(-0.0612055 0.0811509 0)
(-0.074975 0.0815787 0)
(-0.0888511 0.079986 0)
(-0.102646 0.0764917 0)
(-0.116173 0.0711009 0)
(-0.12922 0.0637364 0)
(-0.141523 0.0542796 0)
(-0.152749 0.0426182 0)
(-0.162487 0.0287021 0)
(-0.170242 0.0126023 0)
(-0.175455 -0.00542658 0)
(-0.177529 -0.0248874 0)
(-0.175879 -0.044998 0)
(-0.170018 -0.0646709 0)
(-0.159647 -0.0825384 0)
(-0.144773 -0.0970398 0)
(-0.125819 -0.106585 0)
(-0.103708 -0.109797 0)
(-0.0798867 -0.10581 0)
(-0.0562245 -0.0945646 0)
(-0.0347729 -0.0770021 0)
(-0.0173747 -0.0550452 0)
(-0.00547948 -0.0313296 0)
(-0.000535546 -0.00889247 0)
(-0.000825032 0.0161923 0)
(-0.0051439 0.0419393 0)
(-0.0136278 0.0615778 0)
(-0.02455 0.0759085 0)
(-0.0370675 0.0857891 0)
(-0.0506655 0.0920076 0)
(-0.0649487 0.0952185 0)
(-0.0796367 0.0959084 0)
(-0.0945321 0.0943853 0)
(-0.109478 0.090787 0)
(-0.124319 0.0851049 0)
(-0.13887 0.0772195 0)
(-0.152884 0.066945 0)
(-0.166029 0.0540847 0)
(-0.177869 0.0384942 0)
(-0.187856 0.0201536 0)
(-0.195339 -0.000753389 0)
(-0.199587 -0.0237581 0)
(-0.199846 -0.0480427 0)
(-0.195413 -0.0723895 0)
(-0.185752 -0.0951831 0)
(-0.170636 -0.114483 0)
(-0.150301 -0.128195 0)
(-0.125598 -0.134358 0)
(-0.0980735 -0.131542 0)
(-0.0699364 -0.119285 0)
(-0.0437918 -0.098448 0)
(-0.0221416 -0.0712892 0)
(-0.00708119 -0.04114 0)
(-0.0007211 -0.0119398 0)
(-0.000864978 0.0189753 0)
(-0.0054006 0.0488717 0)
(-0.0143117 0.0715003 0)
(-0.0257763 0.0879118 0)
(-0.0389055 0.0991916 0)
(-0.0531652 0.106322 0)
(-0.0681594 0.11011 0)
(-0.0836231 0.111149 0)
(-0.0993874 0.109814 0)
(-0.115332 0.106265 0)
(-0.131341 0.100478 0)
(-0.147268 0.0922863 0)
(-0.162895 0.0814238 0)
(-0.177907 0.0675899 0)
(-0.191863 0.0505199 0)
(-0.204186 0.0300697 0)
(-0.214154 0.00631171 0)
(-0.220928 -0.0203624 0)
(-0.223587 -0.0491431 0)
(-0.221209 -0.0787263 0)
(-0.212986 -0.107274 0)
(-0.198381 -0.132456 0)
(-0.177337 -0.151604 0)
(-0.150492 -0.162027 0)
(-0.119373 -0.161501 0)
(-0.0864567 -0.148893 0)
(-0.0549487 -0.124761 0)
(-0.0281846 -0.0916236 0)
(-0.00916687 -0.0536334 0)
(-0.000978364 -0.0159014 0)
(-0.000896781 0.0218815 0)
(-0.00561508 0.0561182 0)
(-0.0148888 0.0818681 0)
(-0.0268055 0.100442 0)
(-0.0404281 0.11317 0)
(-0.0552013 0.12125 0)
(-0.0707269 0.125661 0)
(-0.0867566 0.12712 0)
(-0.103152 0.126076 0)
(-0.119834 0.12272 0)
(-0.136732 0.117017 0)
(-0.153747 0.108746 0)
(-0.170705 0.0975533 0)
(-0.187328 0.083021 0)
(-0.203199 0.0647423 0)
(-0.217742 0.0424191 0)
(-0.23021 0.015973 0)
(-0.23969 -0.0143319 0)
(-0.245135 -0.0477544 0)
(-0.245423 -0.0829714 0)
(-0.239462 -0.117984 0)
(-0.226352 -0.150106 0)
(-0.205625 -0.176073 0)
(-0.177534 -0.192337 0)
(-0.143383 -0.195631 0)
(-0.105755 -0.183788 0)
(-0.0684198 -0.156692 0)
(-0.0357017 -0.11691 0)
(-0.011841 -0.0694949 0)
(-0.00132903 -0.0210538 0)
(-0.000921068 0.0248881 0)
(-0.0057918 0.0636275 0)
(-0.0153677 0.0926026 0)
(-0.0276427 0.113388 0)
(-0.0416241 0.127578 0)
(-0.0567288 0.136608 0)
(-0.0725535 0.141646 0)
(-0.0888648 0.143554 0)
(-0.105555 0.142868 0)
(-0.122588 0.139816 0)
(-0.139943 0.134357 0)
(-0.157575 0.126219 0)
(-0.17537 0.114958 0)
(-0.193108 0.100031 0)
(-0.210427 0.0808773 0)
(-0.226798 0.0570243 0)
(-0.2415 0.0282101 0)
(-0.25361 -0.00547509 0)
(-0.262019 -0.0434369 0)
(-0.265464 -0.0844124 0)
(-0.262593 -0.126346 0)
(-0.252126 -0.166292 0)
(-0.233082 -0.200433 0)
(-0.205145 -0.22431 0)
(-0.169125 -0.233373 0)
(-0.127424 -0.22399 0)
(-0.0842027 -0.194812 0)
(-0.0448472 -0.148016 0)
(-0.0152142 -0.0894994 0)
(-0.00180052 -0.0277322 0)
(-0.000940422 0.0279764 0)
(-0.00594484 0.0713571 0)
(-0.0157781 0.10363 0)
(-0.0283237 0.126633 0)
(-0.0425183 0.142247 0)
(-0.0577417 0.152165 0)
(-0.07358 0.157776 0)
(-0.0898121 0.160098 0)
(-0.106361 0.159771 0)
(-0.12323 0.157073 0)
(-0.140453 0.151962 0)
(-0.158045 0.144121 0)
(-0.175964 0.133024 0)
(-0.194068 0.118005 0)
(-0.212086 0.0983506 0)
(-0.229581 0.073404 0)
(-0.245922 0.0427001 0)
(-0.260261 0.00611442 0)
(-0.271512 -0.035968 0)
(-0.278353 -0.0824503 0)
(-0.279265 -0.13136 0)
(-0.27261 -0.17965 0)
(-0.256856 -0.223097 0)
(-0.230949 -0.256374 0)
(-0.1949 -0.273502 0)
(-0.150527 -0.268924 0)
(-0.102006 -0.239319 0)
(-0.055683 -0.185701 0)
(-0.0193951 -0.114479 0)
(-0.00242731 -0.0363349 0)
(-0.000960594 0.0311384 0)
(-0.00610337 0.0792855 0)
(-0.0161816 0.114893 0)
(-0.0289303 0.140063 0)
(-0.0431917 0.156987 0)
(-0.0582957 0.167653 0)
(-0.073813 0.173694 0)
(-0.0895332 0.176309 0)
(-0.105408 0.176255 0)
(-0.121483 0.173871 0)
(-0.137845 0.169126 0)
(-0.154575 0.161671 0)
(-0.171709 0.150909 0)
(-0.189207 0.136068 0)
(-0.206916 0.116293 0)
(-0.224537 0.0907534 0)
(-0.241597 0.0587782 0)
(-0.257399 0.0200047 0)
(-0.270985 -0.0254407 0)
(-0.281105 -0.0767374 0)
(-0.286188 -0.132153 0)
(-0.284344 -0.188757 0)
(-0.273523 -0.242164 0)
(-0.251845 -0.286383 0)
(-0.218245 -0.314013 0)
(-0.173468 -0.317208 0)
(-0.12112 -0.289797 0)
(-0.0681108 -0.230448 0)
(-0.0244781 -0.145265 0)
(-0.0032525 -0.0473234 0)
(-0.000992348 0.034387 0)
(-0.00631921 0.0874315 0)
(-0.0166865 0.126371 0)
(-0.0296097 0.15358 0)
(-0.0438018 0.171603 0)
(-0.0585305 0.18277 0)
(-0.0733497 0.18899 0)
(-0.0880627 0.191667 0)
(-0.102653 0.191691 0)
(-0.117212 0.189474 0)
(-0.131878 0.185007 0)
(-0.146801 0.177927 0)
(-0.162106 0.167585 0)
(-0.177865 0.153127 0)
(-0.194069 0.133583 0)
(-0.210595 0.107977 0)
(-0.227177 0.0754488 0)
(-0.24335 0.0354009 0)
(-0.258381 -0.0123366 0)
(-0.271225 -0.0673157 0)
(-0.280414 -0.12818 0)
(-0.283978 -0.192364 0)
(-0.279488 -0.255659 0)
(-0.264276 -0.311775 0)
(-0.236031 -0.352147 0)
(-0.19395 -0.366492 0)
(-0.140302 -0.344944 0)
(-0.0817882 -0.282232 0)
(-0.0305255 -0.182586 0)
(-0.00433035 -0.0612164 0)
(-0.00105458 0.0377708 0)
(-0.00667804 0.0958807 0)
(-0.0174666 0.138102 0)
(-0.030596 0.167117 0)
(-0.0446033 0.1859 0)
(-0.0586871 0.197184 0)
(-0.0723928 0.203202 0)
(-0.0855509 0.205588 0)
(-0.0981882 0.205376 0)
(-0.110446 0.203063 0)
(-0.122523 0.198676 0)
(-0.134641 0.191851 0)
(-0.147017 0.181914 0)
(-0.159845 0.16796 0)
(-0.17327 0.148942 0)
(-0.18737 0.123774 0)
(-0.202118 0.0914455 0)
(-0.217332 0.0511459 0)
(-0.232605 0.0024093 0)
(-0.247194 -0.0547233 0)
(-0.259886 -0.119405 0)
(-0.268862 -0.189669 0)
(-0.271558 -0.261858 0)
(-0.264707 -0.329902 0)
(-0.244773 -0.384595 0)
(-0.209075 -0.413463 0)
(-0.157723 -0.40236 0)
(-0.0960478 -0.340244 0)
(-0.0375512 -0.226929 0)
(-0.00573216 -0.07858 0)
(-0.00118017 0.0413982 0)
(-0.00731734 0.104823 0)
(-0.0187872 0.150214 0)
(-0.0322337 0.180656 0)
(-0.0459628 0.199686 0)
(-0.0591118 0.210541 0)
(-0.0712458 0.21583 0)
(-0.0822516 0.21744 0)
(-0.0922232 0.216564 0)
(-0.101369 0.213786 0)
(-0.109957 0.209176 0)
(-0.118286 0.20239 0)
(-0.126668 0.192749 0)
(-0.135418 0.179333 0)
(-0.144843 0.161059 0)
(-0.155221 0.136778 0)
(-0.166777 0.105373 0)
(-0.179631 0.0658664 0)
(-0.193736 0.0175284 0)
(-0.208738 -0.0399811 0)
(-0.22383 -0.106409 0)
(-0.237552 -0.180555 0)
(-0.247508 -0.259663 0)
(-0.250192 -0.338466 0)
(-0.241105 -0.407912 0)
(-0.215625 -0.454055 0)
(-0.171023 -0.458458 0)
(-0.109838 -0.4026 0)
(-0.045509 -0.278348 0)
(-0.00755886 -0.100018 0)
(-0.00142765 0.0454752 0)
(-0.00845694 0.114602 0)
(-0.021041 0.162951 0)
(-0.0350023 0.194229 0)
(-0.0483611 0.212767 0)
(-0.0602347 0.222445 0)
(-0.0702685 0.226317 0)
(-0.0784604 0.226546 0)
(-0.0850122 0.22448 0)
(-0.0902264 0.220787 0)
(-0.0944553 0.215583 0)
(-0.0980816 0.20855 0)
(-0.101513 0.199031 0)
(-0.105183 0.186117 0)
(-0.109547 0.168729 0)
(-0.115072 0.145703 0)
(-0.122218 0.11587 0)
(-0.131397 0.078141 0)
(-0.14291 0.031583 0)
(-0.156828 -0.0244859 0)
(-0.17284 -0.0903721 0)
(-0.190016 -0.165704 0)
(-0.206448 -0.248875 0)
(-0.218845 -0.335972 0)
(-0.222261 -0.419045 0)
(-0.210439 -0.483889 0)
(-0.177472 -0.508586 0)
(-0.121701 -0.466124 0)
(-0.0542869 -0.336228 0)
(-0.00996453 -0.126175 0)
(-0.00190505 0.0503709 0)
(-0.0104522 0.125786 0)
(-0.0247979 0.176697 0)
(-0.0395306 0.207899 0)
(-0.0523594 0.224898 0)
(-0.0624891 0.232417 0)
(-0.0697565 0.234027 0)
(-0.0743587 0.232168 0)
(-0.0766657 0.228325 0)
(-0.0771109 0.223231 0)
(-0.0761508 0.217037 0)
(-0.0742592 0.209454 0)
(-0.0719358 0.199856 0)
(-0.0697187 0.187372 0)
(-0.0681911 0.170958 0)
(-0.0679807 0.149474 0)
(-0.0697464 0.121749 0)
(-0.0741495 0.0866449 0)
(-0.0818017 0.0430973 0)
(-0.0931748 -0.00983491 0)
(-0.108467 -0.072914 0)
(-0.12738 -0.146535 0)
(-0.14875 -0.230306 0)
(-0.169982 -0.322051 0)
(-0.186374 -0.415854 0)
(-0.190732 -0.498839 0)
(-0.174169 -0.54737 0)
(-0.129768 -0.526236 0)
(-0.063683 -0.399011 0)
(-0.0131893 -0.157761 0)
(-0.00281828 0.0567353 0)
(-0.0138845 0.139248 0)
(-0.0308592 0.19196 0)
(-0.0465654 0.221677 0)
(-0.0584721 0.235682 0)
(-0.0660964 0.239795 0)
(-0.0696539 0.238151 0)
(-0.0696678 0.233441 0)
(-0.066755 0.227235 0)
(-0.0615235 0.220285 0)
(-0.0545527 0.212749 0)
(-0.0464092 0.204353 0)
(-0.0376738 0.194508 0)
(-0.0289672 0.182389 0)
(-0.020968 0.167013 0)
(-0.0144207 0.147294 0)
(-0.0101323 0.122101 0)
(-0.00895547 0.0902955 0)
(-0.0117526 0.0507618 0)
(-0.0193342 0.00240892 0)
(-0.0323584 -0.0558309 0)
(-0.0511701 -0.124946 0)
(-0.0754873 -0.205622 0)
(-0.103798 -0.297521 0)
(-0.132397 -0.397454 0)
(-0.154187 -0.495583 0)
(-0.158128 -0.569192 0)
(-0.131699 -0.576991 0)
(-0.0732931 -0.463847 0)
(-0.0175784 -0.19559 0)
(-0.00456615 0.0657152 0)
(-0.0197047 0.156256 0)
(-0.0402721 0.209261 0)
(-0.0567852 0.235308 0)
(-0.0667858 0.244337 0)
(-0.0705293 0.243522 0)
(-0.0688961 0.237547 0)
(-0.0629025 0.22925 0)
(-0.0535005 0.220185 0)
(-0.0415114 0.211046 0)
(-0.0276458 0.201944 0)
(-0.0125518 0.192595 0)
(0.00313486 0.182429 0)
(0.0187471 0.170676 0)
(0.0335568 0.156422 0)
(0.0467553 0.138659 0)
(0.0574466 0.116327 0)
(0.0646544 0.0883388 0)
(0.06734 0.0535937 0)
(0.0644341 0.0109605 0)
(0.0548951 -0.0407694 0)
(0.0378022 -0.102933 0)
(0.0125625 -0.176982 0)
(-0.0205964 -0.264177 0)
(-0.0596121 -0.364297 0)
(-0.0986767 -0.471985 0)
(-0.126101 -0.568676 0)
(-0.124433 -0.611203 0)
(-0.0821633 -0.526094 0)
(-0.0235036 -0.240474 0)
(-0.00791168 0.0793519 0)
(-0.0294132 0.178479 0)
(-0.0541251 0.228769 0)
(-0.0701302 0.247786 0)
(-0.0759134 0.249237 0)
(-0.0732024 0.241768 0)
(-0.0639348 0.230434 0)
(-0.0498032 0.218001 0)
(-0.0321635 0.20583 0)
(-0.0120579 0.194432 0)
(0.00969714 0.183795 0)
(0.0324146 0.173575 0)
(0.0554559 0.163202 0)
(0.0781671 0.151949 0)
(0.0998331 0.13898 0)
(0.119647 0.123382 0)
(0.136692 0.104193 0)
(0.149937 0.0804227 0)
(0.15824 0.0510501 0)
(0.160348 0.015 0)
(0.154932 -0.0289304 0)
(0.140614 -0.0821672 0)
(0.116051 -0.146528 0)
(0.0802251 -0.224349 0)
(0.0332082 -0.318025 0)
(-0.0216251 -0.427327 0)
(-0.0740203 -0.541192 0)
(-0.103526 -0.620609 0)
(-0.0879753 -0.578599 0)
(-0.0309805 -0.292866 0)
(-0.0142083 0.101241 0)
(-0.045057 0.207609 0)
(-0.0724664 0.249355 0)
(-0.0836903 0.256365 0)
(-0.0802376 0.247087 0)
(-0.0664065 0.231329 0)
(-0.0455965 0.214007 0)
(-0.0202707 0.197403 0)
(0.00785179 0.182406 0)
(0.0376035 0.169171 0)
(0.0681716 0.157463 0)
(0.0989381 0.146822 0)
(0.129362 0.13665 0)
(0.158893 0.126259 0)
(0.186917 0.114892 0)
(0.212706 0.101749 0)
(0.235401 0.0859966 0)
(0.253989 0.0667821 0)
(0.267295 0.0432259 0)
(0.273961 0.014396 0)
(0.272469 -0.0207794 0)
(0.261119 -0.0635939 0)
(0.238006 -0.115851 0)
(0.201106 -0.180288 0)
(0.148681 -0.261003 0)
(0.080841 -0.362524 0)
(0.00401621 -0.483479 0)
(-0.0617858 -0.59618 0)
(-0.0855773 -0.611001 0)
(-0.0386687 -0.352715 0)
(-0.0252967 0.137566 0)
(-0.0677792 0.243207 0)
(-0.0898782 0.265805 0)
(-0.0854325 0.25427 0)
(-0.0631027 0.231409 0)
(-0.0307528 0.206793 0)
(0.00682223 0.184107 0)
(0.0467303 0.164473 0)
(0.0872721 0.147937 0)
(0.127494 0.134116 0)
(0.166859 0.122465 0)
(0.205032 0.112378 0)
(0.241734 0.103225 0)
(0.276649 0.0943601 0)
(0.309362 0.0851284 0)
(0.339319 0.0748665 0)
(0.365791 0.0629048 0)
(0.387863 0.0485684 0)
(0.404413 0.0311719 0)
(0.414052 0.00999751 0)
(0.415201 -0.0157748 0)
(0.405992 -0.0471459 0)
(0.38417 -0.0856187 0)
(0.347067 -0.133687 0)
(0.291555 -0.195861 0)
(0.214616 -0.279809 0)
(0.1172 -0.393903 0)
(0.0130778 -0.528936 0)
(-0.0648635 -0.609272 0)
(-0.0418219 -0.418864 0)
(-0.0407919 0.199472 0)
(-0.089139 0.275519 0)
(-0.0791988 0.260608 0)
(-0.0372183 0.225419 0)
(0.0177785 0.190094 0)
(0.07628 0.159874 0)
(0.134001 0.135505 0)
(0.189047 0.116274 0)
(0.240747 0.101151 0)
(0.289042 0.0891853 0)
(0.334114 0.0795687 0)
(0.376193 0.0716132 0)
(0.415445 0.0647165 0)
(0.45191 0.0583342 0)
(0.485459 0.0519595 0)
(0.51577 0.0451105 0)
(0.54231 0.0373225 0)
(0.564325 0.0281411 0)
(0.580828 0.0171109 0)
(0.590532 0.00374722 0)
(0.591966 -0.01236 0)
(0.583258 -0.0318903 0)
(0.562089 -0.0558524 0)
(0.525568 -0.0860162 0)
(0.469835 -0.126015 0)
(0.389605 -0.183704 0)
(0.279818 -0.273958 0)
(0.141922 -0.410572 0)
(-0.00561742 -0.55328 0)
(-0.0259721 -0.476577 0)
(-0.0335945 0.294852 0)
(-0.0462463 0.274583 0)
(0.0564081 0.201094 0)
(0.159741 0.150177 0)
(0.251636 0.114105 0)
(0.33171 0.0880628 0)
(0.4011 0.0695262 0)
(0.461261 0.0563417 0)
(0.513772 0.0468187 0)
(0.560079 0.0397896 0)
(0.601354 0.0344631 0)
(0.638481 0.030275 0)
(0.672073 0.0267984 0)
(0.702494 0.023691 0)
(0.729865 0.0206637 0)
(0.754081 0.0174621 0)
(0.774805 0.0138556 0)
(0.79148 0.00963344 0)
(0.803304 0.00460048 0)
(0.809359 -0.00141607 0)
(0.808435 -0.00863212 0)
(0.798902 -0.0173498 0)
(0.778869 -0.0279844 0)
(0.74581 -0.0413744 0)
(0.695994 -0.0594493 0)
(0.623314 -0.0871433 0)
(0.517672 -0.137801 0)
(0.364252 -0.24081 0)
(0.143444 -0.407127 0)
(0.0586216 -0.458285 0)
(0.303463 0.181061 0)
(0.383409 0.144756 0)
(0.562593 0.0916661 0)
(0.689081 0.0593066 0)
(0.771783 0.0393684 0)
(0.830686 0.0265794 0)
(0.875273 0.0184357 0)
(0.910101 0.0132889 0)
(0.938094 0.00999754 0)
(0.961274 0.00783955 0)
(0.980975 0.00637562 0)
(0.998056 0.00533234 0)
(1.01305 0.00453108 0)
(1.02627 0.00384844 0)
(1.03781 0.00319369 0)
(1.04765 0.00249594 0)
(1.0556 0.0016971 0)
(1.06138 0.000751026 0)
(1.06457 -0.000377742 0)
(1.06467 -0.00166619 0)
(1.06102 -0.00324336 0)
(1.05293 -0.00515459 0)
(1.03949 -0.00745572 0)
(1.01942 -0.0103247 0)
(0.990653 -0.0142288 0)
(0.949098 -0.0204769 0)
(0.885084 -0.0329225 0)
(0.776886 -0.0640348 0)
(0.54495 -0.139622 0)
(0.382488 -0.201805 0)
)
;

boundaryField
{
    movingWall
    {
        type            fixedValue;
        value           uniform (1.2 0 0);
    }
    fixedWalls
    {
        type            noSlip;
    }
    frontAndBack
    {
        type            empty;
    }
}


// ************************************************************************* //
