/*--------------------------------*- C++ -*----------------------------------*\
  =========                 |
  \\      /  F ield         | OpenFOAM: The Open Source CFD Toolbox
   \\    /   O peration     | Website:  https://openfoam.org
    \\  /    A nd           | Version:  7
     \\/     M anipulation  |
\*---------------------------------------------------------------------------*/
FoamFile
{
    version     2.0;
    format      ascii;
    class       volScalarField;
    location    "5.9";
    object      p;
}
// * * * * * * * * * * * * * * * * * * * * * * * * * * * * * * * * * * * * * //

dimensions      [0 2 -2 0 0 0 0];

internalField   nonuniform List<scalar> 
900
(
7.76565e-07
-0.000323876
-0.000843664
-0.00138711
-0.00185853
-0.00219828
-0.00237643
-0.00237945
-0.00220033
-0.00183422
-0.00127787
-0.00053155
0.000397621
0.00149196
0.00272
0.00403455
0.00537279
0.00665908
0.00781078
0.0087466
0.00939686
0.0097142
0.00968271
0.00932383
0.00869838
0.00790225
0.0070495
0.00629801
0.00578495
0.00564138
0.000323852
-1.22393e-05
-0.000405979
-0.000801162
-0.00113917
-0.00137722
-0.00149164
-0.00146927
-0.00130164
-0.000982645
-0.00050836
0.000121431
0.000900845
0.00181509
0.00283786
0.00392974
0.00504013
0.00610612
0.00706011
0.00783603
0.00837786
0.0086486
0.00863768
0.0083653
0.00788281
0.00726847
0.00661741
0.00603023
0.00562758
0.0054958
0.000863746
0.000368547
-3.84728e-05
-0.000391311
-0.00067758
-0.000871333
-0.000958685
-0.000931711
-0.000783717
-0.000508381
-0.000100374
0.000442935
0.00111902
0.00191737
0.00281699
0.00378512
0.00477604
0.00573359
0.00659553
0.00730004
0.00779399
0.00804175
0.00803248
0.0077842
0.00734347
0.00678033
0.00617928
0.00562865
0.00521424
0.00500082
0.00145047
0.000745676
0.00026648
-9.671e-05
-0.000374184
-0.000556319
-0.000640495
-0.000625933
-0.000508944
-0.000283184
5.88479e-05
0.000523565
0.00111338
0.00182343
0.00263854
0.00353101
0.00445933
0.00536969
0.00620011
0.0068869
0.00737344
0.00761964
0.00761014
0.00735897
0.00690927
0.00632753
0.00569465
0.00509577
0.00459892
0.00423194
0.00195935
0.00102969
0.000457441
6.03057e-05
-0.000231631
-0.000423598
-0.00052385
-0.000538632
-0.00046707
-0.000302323
-3.38791e-05
0.000349583
0.000856683
0.00148939
0.00223906
0.00308326
0.00398445
0.00488912
0.00573276
0.00644599
0.00696404
0.00723756
0.0072423
0.00698537
0.00650566
0.00586812
0.00515483
0.00445447
0.00382548
0.00326081
0.0022822
0.00113047
0.000457243
1.18768e-05
-0.000311997
-0.000532848
-0.000668636
-0.000731704
-0.000723164
-0.000634825
-0.000452185
-0.000157858
0.000264301
0.000824476
0.00152182
0.00233995
0.0032456
0.00418482
0.00508884
0.00587932
0.00647881
0.00682317
0.0068737
0.0066259
0.00611194
0.00539575
0.00456478
0.0037186
0.00291393
0.00211469
0.00232659
0.00096608
0.000191941
-0.000309779
-0.000678975
-0.000946043
-0.00113735
-0.00127011
-0.00134637
-0.0013556
-0.00127824
-0.00108957
-0.000764383
-0.000282447
0.000364894
0.00116862
0.00210434
0.00311572
0.00412956
0.00505628
0.00580118
0.0062789
0.00642879
0.00622762
0.00569577
0.00489475
0.0039205
0.00289095
0.00186946
0.00079495
0.00201141
0.000461568
-0.000408434
-0.000970747
-0.00139626
-0.00172631
-0.00199453
-0.00222191
-0.00241042
-0.00254625
-0.00260375
-0.00254953
-0.00234751
-0.0019652
-0.00138192
-0.000598216
0.00038507
0.00150026
0.00267362
0.00380384
0.0047747
0.00547212
0.00580352
0.00571633
0.00521033
0.00433994
0.003211
0.00196715
0.000686585
-0.000714841
0.00126426
-0.000451174
-0.0014093
-0.00203487
-0.00252727
-0.00293811
-0.00330744
-0.00365915
-0.00399449
-0.00429571
-0.00453019
-0.00465453
-0.00461985
-0.00437836
-0.00388981
-0.0031284
-0.00212036
-0.000886037
0.00049238
0.00189971
0.00319473
0.00422636
0.0048574
0.00499077
0.00459127
0.00369657
0.00242056
0.00093956
-0.000645129
-0.0024407
2.17585e-05
-0.0018317
-0.00286871
-0.00356003
-0.00413075
-0.00464223
-0.00514046
-0.00565183
-0.00617663
-0.00669302
-0.00716096
-0.00752604
-0.00772441
-0.00768951
-0.0073599
-0.00668953
-0.00566717
-0.00431123
-0.00269315
-0.00093459
0.00079761
0.00230774
0.00339911
0.00390969
0.00374744
0.0029156
0.0015286
-0.000199339
-0.00213499
-0.00440978
-0.00176822
-0.00372851
-0.0048342
-0.0055941
-0.0062557
-0.0068898
-0.00754815
-0.00825973
-0.00902432
-0.00981638
-0.0105887
-0.0112752
-0.0117953
-0.0120601
-0.0119808
-0.0114808
-0.0105122
-0.00906809
-0.00720021
-0.00502809
-0.00274042
-0.000582211
0.0011751
0.00227927
0.00255017
0.00192749
0.000508703
-0.00145334
-0.00378456
-0.0066419
-0.00414342
-0.00617627
-0.00733958
-0.00817097
-0.00893645
-0.00971603
-0.0105675
-0.011523
-0.0125829
-0.0137193
-0.0148785
-0.0159833
-0.0169353
-0.01762
-0.0179158
-0.0177063
-0.0168981
-0.0154418
-0.0133533
-0.0107348
-0.00778574
-0.00479858
-0.00213133
-0.000154075
0.000824386
0.000635759
-0.000672623
-0.00281847
-0.00557988
-0.00913989
-0.00712401
-0.0091931
-0.0104021
-0.0113068
-0.0121877
-0.0131338
-0.0142095
-0.0154517
-0.0168628
-0.0184144
-0.0200485
-0.0216778
-0.0231859
-0.0244316
-0.0252556
-0.0254936
-0.0249955
-0.0236537
-0.0214276
-0.0183804
-0.014702
-0.0107197
-0.00688076
-0.00369713
-0.00165322
-0.0010867
-0.00205615
-0.0042775
-0.00748152
-0.0118774
-0.0107098
-0.0127787
-0.0140202
-0.0149974
-0.0160004
-0.0171278
-0.0184518
-0.0200156
-0.0218262
-0.0238574
-0.0260495
-0.0283071
-0.0304977
-0.0324526
-0.0339728
-0.0348407
-0.0348407
-0.0337884
-0.0315696
-0.0281804
-0.023772
-0.01868
-0.0134271
-0.00867878
-0.00513992
-0.00339295
-0.00368624
-0.00579158
-0.00941091
-0.0147824
-0.0148793
-0.0169141
-0.0181733
-0.0192164
-0.0203391
-0.0216503
-0.023232
-0.0251361
-0.0273771
-0.0299342
-0.0327489
-0.0357212
-0.0387045
-0.041505
-0.0438837
-0.0455678
-0.04627
-0.0457186
-0.0437093
-0.040142
-0.0350937
-0.0288683
-0.0220296
-0.015384
-0.00988578
-0.00644071
-0.00559857
-0.00728657
-0.0112315
-0.0177141
-0.0195899
-0.0215633
-0.0228236
-0.023917
-0.025142
-0.0266198
-0.0284452
-0.0306821
-0.033356
-0.0364546
-0.0399242
-0.043663
-0.0475142
-0.0512613
-0.054629
-0.057291
-0.0588875
-0.0590545
-0.0574915
-0.0539754
-0.048474
-0.0412109
-0.0327355
-0.0239514
-0.0160576
-0.010345
-0.00779249
-0.00863093
-0.0127225
-0.0204326
-0.024782
-0.0266782
-0.0279203
-0.029035
-0.030323
-0.031922
-0.0339446
-0.0364711
-0.0395418
-0.0431562
-0.0472681
-0.0517769
-0.0565186
-0.0612584
-0.0656887
-0.0694352
-0.0720731
-0.0731557
-0.0722599
-0.0690514
-0.0633573
-0.0552717
-0.0452609
-0.0342496
-0.0236309
-0.0150995
-0.0101814
-0.00960108
-0.0135441
-0.0225586
-0.0303853
-0.0322069
-0.033408
-0.0344954
-0.035777
-0.0374148
-0.0395468
-0.0422762
-0.0456622
-0.0497187
-0.0544088
-0.0596351
-0.0652285
-0.0709392
-0.0764327
-0.0812936
-0.0850412
-0.0871557
-0.0871038
-0.0844376
-0.0788328
-0.0702194
-0.0589143
-0.0457683
-0.0322695
-0.0204715
-0.0125178
-0.00983003
-0.0131906
-0.023522
-0.0363296
-0.0381059
-0.0392371
-0.0402211
-0.041387
-0.0429347
-0.0450401
-0.0478377
-0.05141
-0.0557873
-0.0609424
-0.0667805
-0.0731276
-0.0797207
-0.0862024
-0.0921233
-0.0969556
-0.100116
-0.100993
-0.0990229
-0.0937393
-0.0848951
-0.0726112
-0.0575724
-0.0412336
-0.0258916
-0.0142969
-0.00873712
-0.010932
-0.0224967
-0.0425609
-0.044358
-0.0453787
-0.046143
-0.0470309
-0.0483042
-0.0501947
-0.0528784
-0.0564659
-0.0610039
-0.0664724
-0.0727765
-0.0797349
-0.0870701
-0.0944032
-0.101256
-0.107061
-0.111184
-0.11295
-0.111704
-0.106852
-0.0979806
-0.0849981
-0.0683598
-0.0493605
-0.0303761
-0.0146564
-0.00543948
-0.00573866
-0.018314
-0.0490666
-0.0509986
-0.0518423
-0.0522089
-0.0525872
-0.0533378
-0.0547722
-0.05712
-0.060522
-0.0650383
-0.0706505
-0.0772572
-0.0846636
-0.092574
-0.100586
-0.108193
-0.114793
-0.119709
-0.122217
-0.121573
-0.117095
-0.108222
-0.0946639
-0.076625
-0.0551501
-0.032522
-0.0123032
0.00134591
0.00381196
-0.00933996
-0.0559206
-0.0581542
-0.0586982
-0.0583921
-0.057937
-0.0578455
-0.0585358
-0.0602999
-0.0633062
-0.0676194
-0.0732123
-0.079967
-0.0876653
-0.0959861
-0.104499
-0.112665
-0.119847
-0.125325
-0.128325
-0.128044
-0.123707
-0.114637
-0.100373
-0.0808892
-0.0569462
-0.0305977
-0.00550125
0.0133887
0.0196495
0.00671061
-0.0633706
-0.0661064
-0.066105
-0.0646947
-0.0629614
-0.0616343
-0.0612594
-0.062189
-0.0646058
-0.0685623
-0.074005
-0.0807885
-0.0886532
-0.0972465
-0.1061
-0.114638
-0.122181
-0.127965
-0.131159
-0.130896
-0.126314
-0.116637
-0.101248
-0.0799342
-0.0531768
-0.0227329
0.00784563
0.0329887
0.0443613
0.033078
-0.072026
-0.0754004
-0.0743453
-0.0711493
-0.0675376
-0.0645124
-0.0627417
-0.0626126
-0.0642913
-0.0677915
-0.073009
-0.0797445
-0.0876966
-0.0964624
-0.105529
-0.114274
-0.121972
-0.127802
-0.130868
-0.130228
-0.124918
-0.114048
-0.0968722
-0.072997
-0.0426284
-0.00722617
0.0299592
0.0629338
0.0814096
0.0744442
-0.0832799
-0.08703
-0.0838592
-0.0778079
-0.071532
-0.0662944
-0.0628211
-0.0614691
-0.0623339
-0.0653456
-0.0703238
-0.0769962
-0.0849997
-0.0938739
-0.103054
-0.111866
-0.119529
-0.125158
-0.12778
-0.126366
-0.119811
-0.107107
-0.0873367
-0.0598976
-0.0247763
0.0169955
0.0626804
0.106252
0.135306
0.137435
-0.100291
-0.102767
-0.0952412
-0.0846918
-0.0747643
-0.0667804
-0.0613605
-0.0587128
-0.0587787
-0.0613527
-0.0661422
-0.0727834
-0.0808383
-0.0897831
-0.0989968
-0.107752
-0.11521
-0.120419
-0.122328
-0.119817
-0.111562
-0.0964511
-0.0733327
-0.0413143
-2.43649e-05
0.0499873
0.106708
0.165414
0.211149
0.230549
-0.130175
-0.125659
-0.109252
-0.0917567
-0.0769602
-0.065703
-0.0581953
-0.0543055
-0.0537046
-0.0559836
-0.0607022
-0.0673887
-0.0755244
-0.0845225
-0.093709
-0.102307
-0.109426
-0.114052
-0.115053
-0.111183
-0.101075
-0.0832752
-0.0563723
-0.0190637
0.0296272
0.0900378
0.161546
0.240535
0.312884
0.365456
-0.188955
-0.159155
-0.126297
-0.0984853
-0.0773544
-0.0624246
-0.0529441
-0.0481128
-0.047167
-0.0494258
-0.0542786
-0.0611448
-0.0694338
-0.0785089
-0.0876579
-0.0960698
-0.102817
-0.106841
-0.106949
-0.1018
-0.0899972
-0.0697711
-0.0393777
0.00305366
0.0594846
0.131851
0.221966
0.329109
0.442686
0.568974
-0.320313
-0.199085
-0.137967
-0.09722
-0.0699951
-0.0526427
-0.0426477
-0.0381327
-0.0377919
-0.040712
-0.0461813
-0.0535725
-0.0622734
-0.0716394
-0.0809566
-0.089414
-0.0960838
-0.0999009
-0.0996497
-0.0938609
-0.0812298
-0.0598113
-0.027561
0.0179559
0.0798875
0.162607
0.272573
0.418264
0.606641
0.89618
-0.64757
-0.235483
-0.106512
-0.0622416
-0.0381661
-0.0246995
-0.0189036
-0.0181462
-0.0208077
-0.0260492
-0.0333218
-0.0421356
-0.0519842
-0.0623052
-0.0724499
-0.0816592
-0.0890471
-0.0935909
-0.0941412
-0.0894721
-0.0777515
-0.0573675
-0.0262583
0.0182206
0.0797982
0.164712
0.285395
0.470149
0.776319
1.37019
)
;

boundaryField
{
    movingWall
    {
        type            zeroGradient;
    }
    fixedWalls
    {
        type            zeroGradient;
    }
    frontAndBack
    {
        type            empty;
    }
}


// ************************************************************************* //
