/*--------------------------------*- C++ -*----------------------------------*\
  =========                 |
  \\      /  F ield         | OpenFOAM: The Open Source CFD Toolbox
   \\    /   O peration     | Website:  https://openfoam.org
    \\  /    A nd           | Version:  7
     \\/     M anipulation  |
\*---------------------------------------------------------------------------*/
FoamFile
{
    version     2.0;
    format      ascii;
    class       surfaceScalarField;
    location    "5.9";
    object      phi;
}
// * * * * * * * * * * * * * * * * * * * * * * * * * * * * * * * * * * * * * //

dimensions      [0 3 -1 0 0 0 0];

internalField   nonuniform List<scalar> 
1740
(
7.30448e-07
-7.31101e-07
3.36385e-07
3.94055e-07
-1.54825e-06
1.88463e-06
-4.75594e-06
3.20769e-06
-8.95363e-06
4.1977e-06
-1.38114e-05
4.85773e-06
-1.90525e-05
5.24114e-06
-2.44529e-05
5.40035e-06
-2.98207e-05
5.3679e-06
-3.4975e-05
5.15425e-06
-3.9728e-05
4.75302e-06
-4.38773e-05
4.14933e-06
-4.72067e-05
3.32934e-06
-4.94964e-05
2.2897e-06
-5.05423e-05
1.0459e-06
-5.01803e-05
-3.61982e-07
-4.83142e-05
-1.86614e-06
-4.49434e-05
-3.37081e-06
-4.01841e-05
-4.75925e-06
-3.42793e-05
-5.90477e-06
-2.75936e-05
-6.68575e-06
-2.059e-05
-7.00355e-06
-1.37903e-05
-6.79975e-06
-7.72058e-06
-6.06972e-06
-2.85059e-06
-4.86999e-06
4.73203e-07
-3.32379e-06
2.10464e-06
-1.63144e-06
2.1424e-06
-3.7758e-08
1.05251e-06
1.08989e-06
1.05251e-06
-3.78176e-07
-3.5294e-07
-3.48081e-06
3.49669e-06
-9.80153e-06
8.20537e-06
-1.89583e-05
1.23645e-05
-3.03331e-05
1.55726e-05
-4.32571e-05
1.77817e-05
-5.71012e-05
1.90852e-05
-7.12986e-05
1.95978e-05
-8.53288e-05
1.9398e-05
-9.86881e-05
1.85136e-05
-0.000110867
1.6932e-05
-0.00012134
1.46226e-05
-0.000129575
1.15644e-05
-0.000135059
7.77371e-06
-0.00013734
3.32699e-06
-0.000136086
-1.61602e-06
-0.000131125
-6.82724e-06
-0.000122517
-1.19791e-05
-0.00011058
-1.66964e-05
-9.59071e-05
-2.05776e-05
-7.93502e-05
-2.32427e-05
-6.19665e-05
-2.43872e-05
-4.49321e-05
-2.38342e-05
-2.94243e-05
-2.15775e-05
-1.64869e-05
-1.78073e-05
-6.89027e-06
-1.29204e-05
-1.00221e-06
-7.5195e-06
1.38106e-06
-2.42102e-06
1.14174e-06
1.32921e-06
2.19425e-06
-2.02644e-06
1.67351e-06
-8.731e-06
1.02013e-05
-1.99293e-05
1.94037e-05
-3.49755e-05
2.74107e-05
-5.30121e-05
3.36091e-05
-7.31347e-05
3.79044e-05
-9.44731e-05
4.04235e-05
-0.000116212
4.13365e-05
-0.000137576
4.07625e-05
-0.000157806
3.87435e-05
-0.000176135
3.52608e-05
-0.000191787
3.02741e-05
-0.000203992
2.37703e-05
-0.000212031
1.58128e-05
-0.000215289
6.5841e-06
-0.000213318
-3.58669e-06
-0.000205919
-1.42261e-05
-0.0001932
-2.46977e-05
-0.000175624
-3.42731e-05
-0.000154021
-4.21808e-05
-0.00012957
-4.7693e-05
-0.000103733
-5.02243e-05
-7.81373e-05
-4.943e-05
-5.4425e-05
-4.52898e-05
-3.40712e-05
-3.81611e-05
-1.81938e-05
-2.87979e-05
-7.37102e-06
-1.83423e-05
-1.49446e-06
-8.29758e-06
3.67619e-07
-5.32875e-07
2.56187e-06
-3.77081e-06
5.44432e-06
-1.42632e-05
2.06937e-05
-3.05044e-05
3.56449e-05
-5.13987e-05
4.8305e-05
-7.58045e-05
5.80149e-05
-0.000102606
6.47059e-05
-0.000130748
6.85652e-05
-0.000159233
6.98214e-05
-0.000187099
6.86292e-05
-0.000213395
6.50388e-05
-0.000237157
5.9023e-05
-0.000257418
5.05348e-05
-0.000273228
3.95803e-05
-0.000283705
2.62899e-05
-0.0002881
1.09791e-05
-0.000285872
-5.81462e-06
-0.00027677
-2.33282e-05
-0.000260906
-4.05614e-05
-0.00023881
-5.63694e-05
-0.000211451
-6.95395e-05
-0.000180225
-7.89192e-05
-0.000146883
-8.35662e-05
-0.00011341
-8.29026e-05
-8.18492e-05
-7.68511e-05
-5.40818e-05
-6.59285e-05
-3.15989e-05
-5.12807e-05
-1.52825e-05
-3.46587e-05
-5.23375e-06
-1.83463e-05
-6.93066e-07
-5.07356e-06
1.8688e-06
-5.44404e-06
1.08884e-05
-1.96802e-05
3.49298e-05
-4.09088e-05
5.68736e-05
-6.75144e-05
7.49105e-05
-9.80326e-05
8.85331e-05
-0.000131138
9.78112e-05
-0.00016562
0.000103047
-0.000200346
0.000104548
-0.000234222
0.000102506
-0.000266158
9.69745e-05
-0.000295048
8.79131e-05
-0.000319779
7.52653e-05
-0.000339255
5.90568e-05
-0.000352455
3.94897e-05
-0.000358497
1.70209e-05
-0.000356723
-7.58844e-06
-0.000346781
-3.32705e-05
-0.000328715
-5.86269e-05
-0.000303033
-8.20513e-05
-0.000270747
-0.000101826
-0.000233376
-0.00011629
-0.000192894
-0.000124048
-0.00015161
-0.000124187
-0.000111972
-0.000116489
-7.63225e-05
-0.000101578
-4.66162e-05
-8.09871e-05
-2.41546e-05
-5.71203e-05
-9.38433e-06
-3.31166e-05
-1.80517e-06
-1.26527e-05
6.36197e-08
-7.00002e-06
1.78884e-05
-2.48046e-05
5.27344e-05
-5.08197e-05
8.28887e-05
-8.29e-05
0.000106991
-0.000119248
0.000124881
-0.000158332
0.000136896
-0.000198811
0.000143525
-0.000239452
0.000145189
-0.000279072
0.000142126
-0.000316489
0.000134392
-0.000350499
0.000121923
-0.000379878
0.000104644
-0.000403409
8.25876e-05
-0.000419932
5.60134e-05
-0.000428417
2.55059e-05
-0.000428046
-7.95959e-06
-0.000418294
-4.30229e-05
-0.000399049
-7.78714e-05
-0.000370694
-0.000110406
-0.000334179
-0.000138341
-0.000291061
-0.000159409
-0.00024348
-0.000171628
-0.000194061
-0.000173607
-0.000145707
-0.000164843
-0.000101323
-0.000145962
-6.34679e-05
-0.000118842
-3.40161e-05
-8.65721e-05
-1.38939e-05
-5.32389e-05
-2.95284e-06
-2.35937e-05
-2.88922e-06
-8.42555e-06
2.63139e-05
-2.95457e-05
7.38545e-05
-6.00409e-05
0.000113384
-9.72653e-05
0.000144215
-0.000139103
0.000166718
-0.000183832
0.000181626
-0.000230002
0.000189695
-0.000276313
0.000191499
-0.000321531
0.000187344
-0.000364424
0.000177285
-0.000403726
0.000161225
-0.000438131
0.00013905
-0.000466317
0.000110773
-0.000486985
7.66811e-05
-0.000498926
3.74468e-05
-0.00050112
-5.76508e-06
-0.000492777
-5.13662e-05
-0.000473537
-9.71111e-05
-0.000443542
-0.000140402
-0.000403562
-0.000178321
-0.000355087
-0.000207883
-0.00030036
-0.000226356
-0.000242304
-0.000231662
-0.000184343
-0.000222804
-0.000130069
-0.000200236
-8.28281e-05
-0.000166083
-4.52654e-05
-0.000124135
-1.89532e-05
-7.9551e-05
-4.19278e-06
-3.83542e-05
-7.082e-06
-9.70844e-06
3.60224e-05
-3.38327e-05
9.79788e-05
-6.8413e-05
0.000147964
-0.000110357
0.000186159
-0.000157263
0.000213624
-0.000207247
0.000231609
-0.000258772
0.00024122
-0.000310505
0.000243232
-0.000361195
0.000238034
-0.000409597
0.000225686
-0.000454416
0.000206045
-0.000494297
0.000178931
-0.000527826
0.000144302
-0.000553564
0.000102419
-0.000570094
5.39763e-05
-0.000576181
3.22381e-07
-0.000570642
-5.69056e-05
-0.000552806
-0.000114947
-0.000522439
-0.000170768
-0.000479995
-0.000220765
-0.000426765
-0.000261113
-0.000364985
-0.000288136
-0.000297837
-0.00029881
-0.000229295
-0.000291347
-0.000163777
-0.000265754
-0.000105628
-0.000224231
-5.85153e-05
-0.000171248
-2.48824e-05
-0.000113184
-5.62527e-06
-5.76113e-05
-1.27073e-05
-1.08281e-05
4.68504e-05
-3.75847e-05
0.000124735
-7.57677e-05
0.000186147
-0.000121906
0.000232297
-0.000173358
0.000265076
-0.000228107
0.000286359
-0.000284563
0.000297677
-0.000341385
0.000300054
-0.000397341
0.00029399
-0.000451205
0.00027955
-0.000501694
0.000256534
-0.000547431
0.000224667
-0.000586934
0.000183806
-0.000618639
0.000134124
-0.000640944
7.62808e-05
-0.000652194
1.15724e-05
-0.00065104
-5.80591e-05
-0.000636235
-0.000129753
-0.000607075
-0.000199928
-0.000563548
-0.000264293
-0.000506573
-0.000318087
-0.00043822
-0.000356489
-0.000361812
-0.000375218
-0.000281854
-0.000371306
-0.000203691
-0.000343916
-0.000132902
-0.000295021
-7.44847e-05
-0.000229665
-3.20669e-05
-0.000155602
-7.37008e-06
-8.23082e-05
-2.00773e-05
-1.17555e-05
5.86059e-05
-4.07059e-05
0.000153686
-8.19163e-05
0.000227358
-0.000131613
0.000281994
-0.000186965
0.000320427
-0.000245858
0.000345251
-0.000306674
0.000358493
-0.000368093
0.000361473
-0.00042893
0.000354827
-0.000488016
0.000338637
-0.000544113
0.000312631
-0.000595859
0.000276413
-0.000641744
0.00022969
-0.000680101
0.000172481
-0.000709132
0.000105311
-0.000726941
2.93821e-05
-0.000731704
-5.32968e-05
-0.000721713
-0.000139744
-0.000695661
-0.00022598
-0.000652902
-0.000307051
-0.000593781
-0.000377209
-0.000519964
-0.000430306
-0.000434704
-0.000460478
-0.00034291
-0.0004631
-0.000250886
-0.00043594
-0.000165656
-0.000380251
-9.3923e-05
-0.000301398
-4.09227e-05
-0.000208602
-9.55674e-06
-0.000113674
-2.96341e-05
-1.24575e-05
7.10634e-05
-4.30925e-05
0.000184321
-8.66592e-05
0.000270924
-0.000139162
0.000334497
-0.000197628
0.000378893
-0.000259877
0.000407501
-0.000324289
0.000422904
-0.000389584
0.000426769
-0.000454654
0.000419897
-0.000518417
0.000402399
-0.000579717
0.000373931
-0.000637255
0.000333952
-0.000689539
0.000281974
-0.000734855
0.000217797
-0.000771269
0.000141726
-0.000796655
5.47684e-05
-0.000808786
-4.11664e-05
-0.000805447
-0.000143083
-0.000784667
-0.000246759
-0.000745029
-0.00034669
-0.000686067
-0.00043617
-0.000608749
-0.000507625
-0.000515925
-0.000553301
-0.000412635
-0.00056639
-0.000306031
-0.000542545
-0.00020473
-0.000481552
-0.000117545
-0.000388582
-5.18735e-05
-0.000274274
-1.23212e-05
-0.000153226
-4.19553e-05
-1.29022e-05
8.39657e-05
-4.46471e-05
0.000216066
-8.98083e-05
0.000316085
-0.000144247
0.000388935
-0.000204894
0.000439541
-0.00026953
0.000472136
-0.000336543
0.000489918
-0.000404716
0.000494942
-0.000473034
0.000488214
-0.00054053
0.000469896
-0.000606175
0.000439575
-0.000668779
0.000396556
-0.000726932
0.000340127
-0.000778953
0.000269818
-0.00082286
0.000185633
-0.000856377
8.82852e-05
-0.000876974
-2.05695e-05
-0.000881974
-0.000138082
-0.000868739
-0.000259994
-0.000834982
-0.000380448
-0.000779217
-0.000491934
-0.000701365
-0.000585477
-0.000603431
-0.000651235
-0.000490127
-0.000679694
-0.00036913
-0.000663541
-0.000250638
-0.000600044
-0.000145957
-0.000493263
-6.53298e-05
-0.000354901
-1.58048e-05
-0.000202751
-5.77602e-05
-1.3066e-05
9.70316e-05
-4.52978e-05
0.000248298
-9.12202e-05
0.000362008
-0.000146623
0.000444339
-0.000208379
0.000501296
-0.000274241
0.000537998
-0.000342619
0.000558296
-0.000412363
0.000564686
-0.000482566
0.000558417
-0.000552402
0.000539732
-0.000621001
0.000508174
-0.000687342
0.000462897
-0.000750172
0.000402957
-0.000807935
0.000327581
-0.000858725
0.000236423
-0.000900249
0.000129809
-0.000929822
9.00352e-06
-0.000944436
-0.000123468
-0.000940864
-0.000263565
-0.000915941
-0.000405371
-0.000867012
-0.000540864
-0.000792611
-0.000659878
-0.000693373
-0.000750473
-0.000573034
-0.000800034
-0.000439201
-0.000797374
-0.000303363
-0.000735882
-0.000179561
-0.000617064
-8.16611e-05
-0.000452802
-2.01522e-05
-0.00026426
-7.79124e-05
-1.29412e-05
0.000109973
-4.50209e-05
0.000280377
-9.08352e-05
0.000407822
-0.000146162
0.000499666
-0.000207837
0.000562971
-0.000273595
0.000603755
-0.000341867
0.000626568
-0.00041157
0.00063439
-0.000481915
0.000628762
-0.000552236
0.000610053
-0.000621856
0.000577795
-0.000689976
0.000531017
-0.000755576
0.000468557
-0.000817339
0.000389344
-0.000873569
0.000292653
-0.000922129
0.000178369
-0.000960385
4.72593e-05
-0.000985183
-9.867e-05
-0.000992905
-0.000255844
-0.000979612
-0.000418664
-0.000941441
-0.000579034
-0.000875295
-0.000726024
-0.000779908
-0.00084586
-0.000657247
-0.000922695
-0.000513948
-0.000940673
-0.000362101
-0.000887729
-0.000218422
-0.000760743
-0.000101154
-0.00057007
-2.55071e-05
-0.000339907
-0.000103419
-1.25444e-05
0.000122517
-4.38653e-05
0.000311698
-8.87215e-05
0.000452678
-0.000142913
0.000553857
-0.000203247
0.000623306
-0.000267439
0.000667947
-0.000333935
0.000693064
-0.000401721
0.000702176
-0.000470128
0.000697169
-0.000538666
0.00067859
-0.000606882
0.000646011
-0.000674247
0.000598381
-0.000740052
0.000534363
-0.00080332
0.000452612
-0.000862711
0.000352044
-0.000916427
0.000232086
-0.00096211
9.29423e-05
-0.000996716
-6.4064e-05
-0.00101652
-0.00023604
-0.00101705
-0.000418139
-0.000993356
-0.000602723
-0.00094064
-0.00077874
-0.000855317
-0.000931183
-0.000736767
-0.00104124
-0.000589487
-0.00108795
-0.000424998
-0.00105222
-0.000262102
-0.00092364
-0.000123953
-0.000708219
-3.20045e-05
-0.000431855
-0.000135424
-1.19251e-05
0.000134442
-4.19786e-05
0.000341752
-8.512e-05
0.00049582
-0.000137168
0.000605905
-0.000194894
0.000681031
-0.000255983
0.000729036
-0.000318898
0.000755979
-0.000382693
0.000765972
-0.00044683
0.000761305
-0.000511008
0.000742769
-0.000575028
0.00071003
-0.000638671
0.000662025
-0.000701603
0.000597294
-0.000763276
0.000514285
-0.000822832
0.0004116
-0.000878984
0.000288237
-0.000929872
0.000143831
-0.000972825
-2.11108e-05
-0.00100437
-0.000204491
-0.00101985
-0.000402668
-0.00101356
-0.000609012
-0.000979144
-0.000813152
-0.000910552
-0.000999775
-0.00080389
-0.00114791
-0.000660244
-0.0012316
-0.000488917
-0.00122354
-0.00030948
-0.00110308
-0.00014999
-0.000867709
-3.97599e-05
-0.000542085
-0.000175184
-1.11746e-05
0.000145617
-3.9635e-05
0.000370212
-8.04916e-05
0.000536676
-0.000129526
0.000654939
-0.00018344
0.000734946
-0.000239888
0.000785483
-0.000297353
0.000813445
-0.000354978
0.000823597
-0.000412374
0.000818701
-0.000469453
0.000799848
-0.000526293
0.00076687
-0.000583022
0.000718754
-0.000639726
0.000653998
-0.000696351
0.00057091
-0.000752609
0.000467858
-0.000807846
0.000343474
-0.000860872
0.000196857
-0.00090973
2.77469e-05
-0.000951398
-0.000162822
-0.00098153
-0.000372537
-0.000994174
-0.000596368
-0.000981857
-0.000825469
-0.000936235
-0.0010454
-0.000849816
-0.00123433
-0.000719138
-0.00136228
-0.000549331
-0.00139335
-0.000358585
-0.00129382
-0.000178904
-0.00104739
-4.88602e-05
-0.000672129
-0.000224044
-1.04381e-05
0.000156055
-3.72678e-05
0.000397042
-7.55664e-05
0.000574975
-0.000120945
0.000700318
-0.000169988
0.000783989
-0.000220318
0.000835813
-0.000270479
0.000863605
-0.000319741
0.000872859
-0.000367906
0.000866866
-0.000415138
0.000847079
-0.000461821
0.000813554
-0.000508458
0.000765392
-0.00055558
0.000701119
-0.000603659
0.000618989
-0.000653018
0.000517217
-0.000703701
0.000394158
-0.000755297
0.000248452
-0.000806725
7.91752e-05
-0.000855734
-0.000113814
-0.00089871
-0.00032956
-0.000930027
-0.000565051
-0.000941785
-0.000813712
-0.000923962
-0.00106322
-0.000865648
-0.00129264
-0.000758136
-0.00146979
-0.000600444
-0.00155104
-0.000406494
-0.00148777
-0.000209979
-0.00124391
-5.93642e-05
-0.000822744
-0.000283408
-9.93394e-06
0.000165989
-3.55165e-05
0.000422625
-7.14047e-05
0.000610863
-0.000112807
0.00074172
-0.000156117
0.0008273
-0.000198964
0.00087866
-0.000240026
0.000904667
-0.000278788
0.000911621
-0.000315317
0.000903396
-0.000350081
0.000881843
-0.000383812
0.000847284
-0.000417407
0.000798987
-0.000451849
0.000735562
-0.000488135
0.000655275
-0.000527189
0.000556271
-0.00056975
0.000436719
-0.000616211
0.000294914
-0.000666384
0.000129348
-0.000719067
-6.11318e-05
-0.000771678
-0.000276949
-0.000819499
-0.00051723
-0.000855037
-0.000778174
-0.000867567
-0.00105069
-0.000843559
-0.00131665
-0.000769078
-0.00154427
-0.000635545
-0.00168458
-0.000449345
-0.00167397
-0.000242103
-0.00145115
-7.13259e-05
-0.000993521
-0.000354734
-9.99025e-06
0.000175979
-3.5302e-05
0.000447936
-6.94791e-05
0.00064504
-0.000106966
0.000779207
-0.0001439
0.000864234
-0.000178004
0.000912764
-0.000208236
0.000934899
-0.000234439
0.000937824
-0.000257059
0.000926016
-0.000276946
0.00090173
-0.000295223
0.000865561
-0.000313197
0.000816962
-0.000332295
0.000754659
-0.000353999
0.000676979
-0.000379781
0.000582053
-0.000411011
0.000467949
-0.000448817
0.00033272
-0.000493885
0.000174416
-0.000546083
-8.93372e-06
-0.000604094
-0.000218938
-0.000664563
-0.000456761
-0.000721242
-0.000721495
-0.000763905
-0.00100803
-0.000777764
-0.00130279
-0.000744562
-0.00157747
-0.000647539
-0.0017816
-0.000482451
-0.00183906
-0.000273754
-0.00165984
-8.4852e-05
-0.00118242
-0.000439586
-1.1117e-05
0.000187096
-3.79562e-05
0.000474775
-7.1793e-05
0.000678877
-0.00010581
0.000813223
-0.00013587
0.000894294
-0.000159986
0.00093688
-0.000177643
0.000952556
-0.000189254
0.000949435
-0.000195799
0.000932561
-0.000198608
0.000904539
-0.000199244
0.000866196
-0.000199427
0.000817145
-0.000200994
0.000756226
-0.000205853
0.000681837
-0.000215936
0.000592136
-0.00023313
0.000485144
-0.000259178
0.000358767
-0.000295511
0.00021075
-0.000343058
3.86127e-05
-0.000401692
-0.000160304
-0.000469775
-0.000388678
-0.000542965
-0.000648306
-0.000612765
-0.000938225
-0.000664879
-0.00125068
-0.000678526
-0.00156382
-0.000629409
-0.00183072
-0.000500436
-0.00196803
-0.000302964
-0.00185732
-0.000100192
-0.0013852
-0.000539778
-1.41468e-05
0.000201243
-4.54352e-05
0.000506064
-8.10295e-05
0.000714471
-0.000112264
0.000844458
-0.000134868
0.000916899
-0.000147533
0.000949544
-0.000150648
0.000955671
-0.000145492
0.00094428
-0.000133774
0.000920842
-0.000117409
0.000888174
-9.84298e-05
0.000847217
-7.89684e-05
0.000797684
-6.12085e-05
0.000738466
-4.74029e-05
0.000668032
-3.98327e-05
0.000584566
-4.07675e-05
0.000486079
-5.24084e-05
0.000370408
-7.67993e-05
0.000235141
-0.000115678
7.74914e-05
-0.00017017
-0.000105812
-0.000240312
-0.000318536
-0.000324101
-0.000564517
-0.000415781
-0.000846544
-0.000503411
-0.00116305
-0.000566186
-0.00150105
-0.000574321
-0.00182258
-0.000497182
-0.00204517
-0.000327136
-0.00202736
-0.000117814
-0.00159452
-0.000657593
-2.0499e-05
0.000221742
-6.06345e-05
0.000546199
-0.00010066
0.000754496
-0.000129588
0.000873386
-0.00014354
0.000930851
-0.000142576
0.00094858
-0.000128553
0.000941649
-0.000103986
0.000919712
-7.1516e-05
0.000888373
-3.37423e-05
0.000850401
6.8135e-06
0.000806661
4.77007e-05
0.000756797
8.64278e-05
0.000699739
0.000120511
0.000633948
0.000147441
0.000557636
0.00016469
0.00046883
0.000169734
0.000365364
0.000160086
0.000244788
0.000133356
0.000104222
8.73746e-05
-5.98303e-05
2.05366e-05
-0.000251698
-6.75167e-05
-0.000476464
-0.000174472
-0.000739589
-0.000292357
-0.00104516
-0.00040318
-0.00139023
-0.000475107
-0.00175066
-0.000465338
-0.00205494
-0.000342513
-0.00215019
-0.000138317
-0.00179871
-0.00079591
-3.26451e-05
0.000254387
-8.77314e-05
0.000601286
-0.000134697
0.000801462
-0.00016045
0.000899139
-0.000162819
0.000933219
-0.000144391
0.000930152
-0.000109253
0.00090651
-6.1567e-05
0.000872026
-5.0993e-06
0.000831905
5.68458e-05
0.000788456
0.000121306
0.000742201
0.000185532
0.000692572
0.000246899
0.000638371
0.000302811
0.000578037
0.000350653
0.000509793
0.000387771
0.000431712
0.000411448
0.000341687
0.000418884
0.000237353
0.000407173
0.000115932
0.0003733
-2.59566e-05
0.000314352
-0.00019275
0.000227697
-0.000389809
0.000112237
-0.00062413
-2.90217e-05
-0.000903903
-0.000183911
-0.00123534
-0.000322956
-0.00161161
-0.000395069
-0.00198283
-0.000342901
-0.00220236
-0.000161816
-0.0019798
-0.000957726
-5.48378e-05
0.000309225
-0.000132135
0.000678582
-0.000186078
0.000855406
-0.000203837
0.000916898
-0.000187718
0.0009171
-0.000144619
0.000887054
-8.1768e-05
0.000843659
-5.34712e-06
0.000795605
7.96958e-05
0.000746862
0.000169412
0.000698739
0.000260548
0.000651065
0.000350265
0.000602854
0.000435942
0.000552695
0.000515029
0.00049895
0.00058496
0.000439862
0.000643081
0.00037359
0.000686597
0.000298171
0.000712508
0.000211442
0.000717525
0.000110915
0.000697885
-6.31623e-06
0.000649783
-0.000144648
0.000568693
-0.000308719
0.0004504
-0.000505837
0.000292689
-0.000746191
0.000100367
-0.00104301
-0.000104923
-0.00140632
-0.000271598
-0.00181615
-0.00031697
-0.00215698
-0.000186123
-0.00211064
-0.00114385
-9.38415e-05
0.000403066
-0.000198309
0.00078305
-0.000250534
0.000907631
-0.000245944
0.000912307
-0.000196443
0.0008676
-0.00011555
0.000806161
-1.43864e-05
0.000742495
9.88424e-05
0.000682377
0.0002183
0.000627405
0.000339792
0.000577247
0.000460147
0.000530709
0.000576769
0.000486233
0.000687327
0.000442137
0.00078956
0.000396717
0.00088114
0.000348283
0.000959577
0.000295153
0.00102214
0.000235607
0.00106577
0.000167812
0.00108699
8.96936e-05
0.00108127
-5.93799e-07
0.00104455
-0.000107927
0.000970692
-0.000234861
0.000853193
-0.000388338
0.000685354
-0.000578352
0.000463572
-0.000821233
0.000197473
-0.00114022
-6.93928e-05
-0.00154929
-0.000243179
-0.0019832
-0.000203575
-0.00215025
-0.00134742
-0.000157781
0.000560848
-0.000278294
0.000903563
-0.000296478
0.000925814
-0.000235792
0.000851621
-0.000125172
0.00075698
1.3816e-05
0.000667172
0.000166929
0.000589383
0.000325256
0.000524049
0.00048336
0.000469301
0.000637862
0.000422746
0.000786496
0.000382075
0.000927522
0.000345207
0.00105937
0.000310291
0.00118041
0.000275676
0.00128883
0.000239865
0.00138252
0.000201461
0.00145901
0.000159115
0.00151537
0.000111451
0.00154804
5.70207e-05
0.00155286
-5.4097e-06
0.00152452
-7.95857e-05
0.0014567
-0.000167039
0.00134139
-0.00027303
0.00116875
-0.000405716
0.000927887
-0.000580367
0.000613072
-0.000825406
0.000246089
-0.0011823
-8.03106e-05
-0.0016568
-0.000194651
-0.00203591
-0.00154207
-0.000243359
0.000804207
-0.000302912
0.000963116
-0.000205161
0.000828063
-2.80149e-05
0.000674475
0.000179969
0.000548996
0.000395166
0.000451976
0.000606093
0.000378456
0.000807458
0.000322684
0.000997159
0.0002796
0.00117456
0.00024534
0.00133957
0.000217069
0.00149211
0.000192668
0.0016319
0.000170497
0.00175833
0.000149246
0.00187037
0.000127827
0.00196653
0.000105302
0.00204482
8.08213e-05
0.0021027
5.35738e-05
0.00213695
2.27733e-05
0.00214402
-1.24826e-05
0.00211826
-5.38286e-05
0.00205367
-0.000102442
0.00194192
-0.000161282
0.00177173
-0.000235529
0.00152732
-0.00033595
0.00118844
-0.000486526
0.000744282
-0.000738149
0.000252213
-0.00116473
-8.17832e-05
-0.00170191
-0.00162386
-0.000193429
0.000997635
2.01066e-05
0.000749581
0.000374961
0.000473209
0.000715268
0.000334168
0.00101956
0.000244709
0.00128773
0.000183806
0.00152339
0.000142792
0.00173118
0.000114892
0.00191556
9.52223e-05
0.00208019
8.07101e-05
0.00222781
6.94462e-05
0.0023603
6.01836e-05
0.00247873
5.20626e-05
0.00258351
4.44635e-05
0.00267442
3.6918e-05
0.00275067
2.90536e-05
0.00281093
2.05591e-05
0.00285331
1.11937e-05
0.00287508
1.00246e-06
0.00287426
-1.16582e-05
0.00284567
-2.52363e-05
0.00278466
-4.14363e-05
0.00268429
-6.09124e-05
0.00253428
-8.55189e-05
0.00231789
-0.000119562
0.00200585
-0.000174484
0.00155118
-0.000283477
0.00092698
-0.000540532
0.000263625
-0.00103856
-0.00136023
0.000997635
0.00174722
0.00222042
0.00255459
0.0027993
0.00298311
0.0031259
0.00324079
0.00333601
0.00341672
0.00348617
0.00354635
0.00359842
0.00364288
0.0036798
0.00370885
0.00372941
0.0037406
0.00374161
0.00372995
0.00370471
0.00366328
0.00360236
0.00351685
0.00339728
0.0032228
0.00293932
0.00239879
0.00136023
)
;

boundaryField
{
    movingWall
    {
        type            calculated;
        value           uniform 0;
    }
    fixedWalls
    {
        type            calculated;
        value           uniform 0;
    }
    frontAndBack
    {
        type            empty;
        value           nonuniform 0();
    }
}


// ************************************************************************* //
