/*--------------------------------*- C++ -*----------------------------------*\
  =========                 |
  \\      /  F ield         | OpenFOAM: The Open Source CFD Toolbox
   \\    /   O peration     | Website:  https://openfoam.org
    \\  /    A nd           | Version:  7
     \\/     M anipulation  |
\*---------------------------------------------------------------------------*/
FoamFile
{
    version     2.0;
    format      ascii;
    class       volVectorField;
    location    "5.9";
    object      U;
}
// * * * * * * * * * * * * * * * * * * * * * * * * * * * * * * * * * * * * * //

dimensions      [0 1 -1 0 0 0 0];

internalField   nonuniform List<vector> 
900
(
(0.00014508 -0.000144145 0)
(0.000242835 -5.25833e-05 0)
(-8.32906e-05 0.00010297 0)
(-0.000830246 0.000238652 0)
(-0.00190754 0.000335592 0)
(-0.00321916 0.000396922 0)
(-0.00467774 0.000431414 0)
(-0.00621183 0.000446639 0)
(-0.00776291 0.000446968 0)
(-0.00927864 0.000433681 0)
(-0.010707 0.000405791 0)
(-0.0119923 0.000361079 0)
(-0.0130743 0.00029717 0)
(-0.0138899 0.000212586 0)
(-0.0143773 0.000107698 0)
(-0.0144822 -1.45602e-05 0)
(-0.014166 -0.000148632 0)
(-0.0134134 -0.000285376 0)
(-0.0122403 -0.000413358 0)
(-0.0106979 -0.000519786 0)
(-0.00887384 -0.000592091 0)
(-0.00688836 -0.000619858 0)
(-0.00488484 -0.000596685 0)
(-0.00301629 -0.000521568 0)
(-0.00142783 -0.00039961 0)
(-0.000237022 -0.000242857 0)
(0.000473381 -7.17629e-05 0)
(0.000688191 9.27733e-05 0)
(0.000496487 0.000196292 0)
(0.000158369 0.00015724 0)
(5.98541e-05 -0.000249242 0)
(-0.000323895 0.000322081 0)
(-0.0016881 0.00109504 0)
(-0.00393769 0.0017827 0)
(-0.00691408 0.00230614 0)
(-0.0104294 0.00266126 0)
(-0.0142946 0.00287016 0)
(-0.0183383 0.00295683 0)
(-0.0224065 0.00293689 0)
(-0.0263545 0.00281563 0)
(-0.0300388 0.00259026 0)
(-0.0333112 0.00225401 0)
(-0.0360196 0.00180095 0)
(-0.038012 0.00123085 0)
(-0.0391476 0.000553339 0)
(-0.0393106 -0.000209118 0)
(-0.0384256 -0.00101932 0)
(-0.0364737 -0.0018263 0)
(-0.0335073 -0.00256857 0)
(-0.0296569 -0.00317979 0)
(-0.0251311 -0.00359671 0)
(-0.0202072 -0.0037683 0)
(-0.015211 -0.00366467 0)
(-0.0104868 -0.00328417 0)
(-0.00636084 -0.00265743 0)
(-0.00310073 -0.00184963 0)
(-0.000877922 -0.000962591 0)
(0.000267579 -0.000126571 0)
(0.000491064 0.000458538 0)
(0.000203347 0.000493572 0)
(-0.000108939 8.05435e-05 0)
(-0.00118563 0.00170518 0)
(-0.00378891 0.00359036 0)
(-0.00760466 0.00525668 0)
(-0.0123927 0.00655017 0)
(-0.017906 0.00744707 0)
(-0.0238887 0.00797764 0)
(-0.0300988 0.0081823 0)
(-0.0363107 0.00808943 0)
(-0.0423066 0.00770924 0)
(-0.0478694 0.00703732 0)
(-0.052778 0.00606323 0)
(-0.0568097 0.00478114 0)
(-0.0597482 0.00320063 0)
(-0.0613983 0.00135577 0)
(-0.0616038 -0.000688389 0)
(-0.0602677 -0.00283287 0)
(-0.0573732 -0.00494836 0)
(-0.0530001 -0.0068827 0)
(-0.0473332 -0.0084746 0)
(-0.040663 -0.00957203 0)
(-0.0333724 -0.0100533 0)
(-0.0259115 -0.0098478 0)
(-0.0187586 -0.00895331 0)
(-0.0123717 -0.00744652 0)
(-0.00713402 -0.00548701 0)
(-0.00330017 -0.00331696 0)
(-0.000947468 -0.00125806 0)
(6.93424e-05 0.000280729 0)
(0.000138585 0.00073615 0)
(-0.000284509 0.000912432 0)
(-0.00209799 0.00416167 0)
(-0.00600616 0.00751962 0)
(-0.0114118 0.0104162 0)
(-0.0179631 0.0126562 0)
(-0.0253549 0.0142088 0)
(-0.0332775 0.0151157 0)
(-0.0414371 0.0154327 0)
(-0.0495557 0.0151989 0)
(-0.0573614 0.0144278 0)
(-0.0645812 0.0131131 0)
(-0.0709381 0.0112422 0)
(-0.0761555 0.00881363 0)
(-0.0799679 0.00585413 0)
(-0.082137 0.00243307 0)
(-0.0824733 -0.0013278 0)
(-0.0808585 -0.0052518 0)
(-0.0772686 -0.00911118 0)
(-0.0717928 -0.0126415 0)
(-0.0646452 -0.0155641 0)
(-0.0561665 -0.0176157 0)
(-0.0468125 -0.018584 0)
(-0.0371268 -0.0183426 0)
(-0.027698 -0.0168816 0)
(-0.0191019 -0.0143275 0)
(-0.011837 -0.0109507 0)
(-0.00625627 -0.00716052 0)
(-0.00250571 -0.00349323 0)
(-0.000496833 -0.000600041 0)
(4.88307e-05 0.000704536 0)
(-0.000447537 0.0022344 0)
(-0.00298224 0.00770187 0)
(-0.00818715 0.0128822 0)
(-0.0151591 0.017216 0)
(-0.0234183 0.0205221 0)
(-0.0325967 0.0227919 0)
(-0.0423365 0.0240904 0)
(-0.0523037 0.0244921 0)
(-0.0621827 0.024046 0)
(-0.0716632 0.0227672 0)
(-0.080432 0.0206463 0)
(-0.0881707 0.017669 0)
(-0.0945608 0.0138402 0)
(-0.0992955 0.00920762 0)
(-0.102098 0.0038813 0)
(-0.102741 -0.00195353 0)
(-0.101077 -0.00803338 0)
(-0.0970552 -0.0140206 0)
(-0.0907517 -0.0195243 0)
(-0.0823819 -0.0241303 0)
(-0.072309 -0.0274433 0)
(-0.061038 -0.0291367 0)
(-0.0491905 -0.0290063 0)
(-0.0374607 -0.027017 0)
(-0.0265515 -0.0233369 0)
(-0.017097 -0.0183498 0)
(-0.0095792 -0.0126466 0)
(-0.00424867 -0.00699641 0)
(-0.00111069 -0.00230774 0)
(-3.84351e-05 0.000354219 0)
(-0.000595097 0.00401903 0)
(-0.00381058 0.0122934 0)
(-0.0102588 0.019649 0)
(-0.0187351 0.0256195 0)
(-0.0286283 0.0300959 0)
(-0.0395055 0.0331271 0)
(-0.0509648 0.0348208 0)
(-0.0626408 0.0352777 0)
(-0.0741922 0.0345587 0)
(-0.0852836 0.0326794 0)
(-0.0955748 0.0296255 0)
(-0.104717 0.0253791 0)
(-0.11236 0.0199501 0)
(-0.118159 0.0134058 0)
(-0.121795 0.00589643 0)
(-0.123 -0.00232907 0)
(-0.121574 -0.0109191 0)
(-0.117421 -0.0194196 0)
(-0.110573 -0.0273021 0)
(-0.101218 -0.0339992 0)
(-0.0897133 -0.0389577 0)
(-0.0765903 -0.0417053 0)
(-0.0625394 -0.0419249 0)
(-0.0483664 -0.0395251 0)
(-0.0349227 -0.0346936 0)
(-0.0230143 -0.0279217 0)
(-0.0132962 -0.0199918 0)
(-0.00616616 -0.0119286 0)
(-0.00175758 -0.00492463 0)
(-0.000118447 -0.000318299 0)
(-0.000728126 0.00623083 0)
(-0.004572 0.017873 0)
(-0.0121804 0.0277464 0)
(-0.0220683 0.0355469 0)
(-0.0334987 0.0412923 0)
(-0.045977 0.0451265 0)
(-0.0590625 0.0472218 0)
(-0.0723662 0.0477168 0)
(-0.0855314 0.0466881 0)
(-0.0982092 0.0441514 0)
(-0.110044 0.0400848 0)
(-0.120667 0.0344627 0)
(-0.129702 0.027294 0)
(-0.136769 0.0186596 0)
(-0.141504 0.00874217 0)
(-0.143585 -0.00215238 0)
(-0.142745 -0.0135902 0)
(-0.13881 -0.0249999 0)
(-0.131743 -0.0357087 0)
(-0.121668 -0.0449777 0)
(-0.108902 -0.052065 0)
(-0.0939789 -0.0563102 0)
(-0.0776451 -0.0572338 0)
(-0.0608235 -0.0546384 0)
(-0.0445419 -0.0486928 0)
(-0.0298249 -0.0399772 0)
(-0.0175566 -0.0294732 0)
(-0.00833679 -0.0184917 0)
(-0.00246732 -0.0085551 0)
(-0.00019688 -0.00132701 0)
(-0.000846917 0.00883077 0)
(-0.00525776 0.0243592 0)
(-0.0139204 0.0370729 0)
(-0.0250991 0.0468896 0)
(-0.037944 0.0540028 0)
(-0.0519058 0.0586876 0)
(-0.0665116 0.0612045 0)
(-0.0813572 0.0617428 0)
(-0.0960801 0.0604001 0)
(-0.110328 0.0571929 0)
(-0.123741 0.0520879 0)
(-0.135941 0.045045 0)
(-0.146529 0.0360636 0)
(-0.155095 0.025225 0)
(-0.161227 0.0127294 0)
(-0.164539 -0.00107591 0)
(-0.164678 -0.0156725 0)
(-0.16137 -0.0303951 0)
(-0.154474 -0.0444216 0)
(-0.144012 -0.0568236 0)
(-0.130222 -0.0666363 0)
(-0.113604 -0.0729592 0)
(-0.0949362 -0.0750835 0)
(-0.0752564 -0.0726343 0)
(-0.0557928 -0.0656995 0)
(-0.0378398 -0.0549122 0)
(-0.0225815 -0.0414541 0)
(-0.0108898 -0.0269627 0)
(-0.00329253 -0.013357 0)
(-0.000283829 -0.00271083 0)
(-0.000950108 0.0117755 0)
(-0.00585601 0.0316546 0)
(-0.0154445 0.0475034 0)
(-0.0277654 0.0595123 0)
(-0.0418726 0.0680937 0)
(-0.0571713 0.0736871 0)
(-0.073165 0.0766638 0)
(-0.089442 0.0772775 0)
(-0.105643 0.0756535 0)
(-0.121423 0.0718094 0)
(-0.136427 0.0656971 0)
(-0.150276 0.057254 0)
(-0.162562 0.0464571 0)
(-0.172847 0.0333728 0)
(-0.180673 0.0182003 0)
(-0.18557 0.00130754 0)
(-0.187102 -0.016736 0)
(-0.184885 -0.0351731 0)
(-0.178628 -0.0530392 0)
(-0.168211 -0.069207 0)
(-0.15375 -0.0824564 0)
(-0.13566 -0.0915881 0)
(-0.114709 -0.095582 0)
(-0.0920258 -0.0937881 0)
(-0.06905 -0.08612 0)
(-0.0473948 -0.0731987 0)
(-0.0286258 -0.0563927 0)
(-0.0139808 -0.0377106 0)
(-0.004297 -0.0195597 0)
(-0.000391009 -0.004541 0)
(-0.00103498 0.0150144 0)
(-0.00635138 0.0396439 0)
(-0.0167137 0.0588872 0)
(-0.0299987 0.0732499 0)
(-0.0451822 0.0833995 0)
(-0.0616347 0.0899688 0)
(-0.0788438 0.093461 0)
(-0.0963982 0.0942081 0)
(-0.11395 0.0923702 0)
(-0.13117 0.0879678 0)
(-0.14772 0.0809342 0)
(-0.16323 0.0711757 0)
(-0.17729 0.0586334 0)
(-0.189447 0.0433398 0)
(-0.199202 0.0254705 0)
(-0.206021 0.00538727 0)
(-0.209366 -0.0163303 0)
(-0.208719 -0.0388445 0)
(-0.203635 -0.0610673 0)
(-0.193813 -0.0816745 0)
(-0.179189 -0.0991669 0)
(-0.160029 -0.11199 0)
(-0.137023 -0.118718 0)
(-0.111339 -0.118302 0)
(-0.0846105 -0.110347 0)
(-0.0588026 -0.0953543 0)
(-0.0359508 -0.074833 0)
(-0.0177774 -0.051203 0)
(-0.00555043 -0.0274729 0)
(-0.00053095 -0.00692483 0)
(-0.0010981 0.0184879 0)
(-0.00672668 0.0481917 0)
(-0.0176866 0.0710462 0)
(-0.0317264 0.0879045 0)
(-0.0477638 0.0997168 0)
(-0.0651437 0.107333 0)
(-0.0833449 0.111408 0)
(-0.101963 0.112366 0)
(-0.120668 0.110408 0)
(-0.139155 0.105562 0)
(-0.157112 0.0977406 0)
(-0.17419 0.0868105 0)
(-0.189994 0.0726633 0)
(-0.204066 0.0552777 0)
(-0.215884 0.0347785 0)
(-0.224862 0.0114891 0)
(-0.230372 -0.0140208 0)
(-0.231768 -0.0408853 0)
(-0.228435 -0.0679227 0)
(-0.219864 -0.0936293 0)
(-0.205759 -0.116221 0)
(-0.186161 -0.133745 0)
(-0.161586 -0.144274 0)
(-0.13315 -0.146216 0)
(-0.102615 -0.138685 0)
(-0.0723021 -0.12189 0)
(-0.0447961 -0.0973796 0)
(-0.0224481 -0.0679999 0)
(-0.00712625 -0.0374898 0)
(-0.000717141 -0.0100079 0)
(-0.00113607 0.0221268 0)
(-0.0069656 0.0571425 0)
(-0.0183242 0.0837752 0)
(-0.0328803 0.103244 0)
(-0.0495117 0.1168 0)
(-0.0675456 0.12553 0)
(-0.0864572 0.130256 0)
(-0.105853 0.131507 0)
(-0.125426 0.129538 0)
(-0.144903 0.124386 0)
(-0.164006 0.115942 0)
(-0.182423 0.104031 0)
(-0.199786 0.0884832 0)
(-0.215656 0.0692055 0)
(-0.22951 0.0462475 0)
(-0.240736 0.0198628 0)
(-0.248643 -0.00942917 0)
(-0.252478 -0.0407797 0)
(-0.251463 -0.0729622 0)
(-0.244872 -0.104337 0)
(-0.232133 -0.13286 0)
(-0.212979 -0.156162 0)
(-0.18764 -0.171741 0)
(-0.157043 -0.177301 0)
(-0.122956 -0.171243 0)
(-0.0879961 -0.153227 0)
(-0.0553485 -0.124649 0)
(-0.028152 -0.0887354 0)
(-0.00910035 -0.0500852 0)
(-0.000964541 -0.0139757 0)
(-0.0011463 0.0258536 0)
(-0.00705628 0.0663236 0)
(-0.0185979 0.0968445 0)
(-0.0334073 0.119003 0)
(-0.0503388 0.134362 0)
(-0.0687069 0.144255 0)
(-0.087986 0.149687 0)
(-0.107795 0.151304 0)
(-0.127853 0.149426 0)
(-0.147924 0.144107 0)
(-0.167773 0.135222 0)
(-0.187136 0.12255 0)
(-0.205693 0.105854 0)
(-0.223046 0.0849581 0)
(-0.238703 0.0598172 0)
(-0.252063 0.0305857 0)
(-0.262412 -0.00230853 0)
(-0.268932 -0.0380868 0)
(-0.270718 -0.0755411 0)
(-0.266835 -0.112967 0)
(-0.256417 -0.148121 0)
(-0.238824 -0.17825 0)
(-0.213874 -0.200239 0)
(-0.182128 -0.210951 0)
(-0.145172 -0.207811 0)
(-0.105774 -0.189588 0)
(-0.0676997 -0.157196 0)
(-0.0350236 -0.114082 0)
(-0.0115494 -0.0658069 0)
(-0.00129022 -0.0190552 0)
(-0.00112796 0.0295856 0)
(-0.00699527 0.0755525 0)
(-0.0184979 0.110008 0)
(-0.0332832 0.134893 0)
(-0.0501951 0.152078 0)
(-0.0685374 0.163151 0)
(-0.0877836 0.169312 0)
(-0.107566 0.17134 0)
(-0.127629 0.169628 0)
(-0.147777 0.164262 0)
(-0.167828 0.155106 0)
(-0.187576 0.141898 0)
(-0.206769 0.124335 0)
(-0.225076 0.102154 0)
(-0.24207 0.0752021 0)
(-0.257207 0.0435135 0)
(-0.269805 0.00738754 0)
(-0.279037 -0.032521 0)
(-0.283927 -0.0750974 0)
(-0.283381 -0.118669 0)
(-0.276251 -0.1609 0)
(-0.261488 -0.198739 0)
(-0.238391 -0.228489 0)
(-0.206964 -0.246086 0)
(-0.168352 -0.247722 0)
(-0.125224 -0.230847 0)
(-0.0817905 -0.195397 0)
(-0.0431514 -0.144694 0)
(-0.0145477 -0.0852585 0)
(-0.00171394 -0.0255151 0)
(-0.00108279 0.0332413 0)
(-0.00679185 0.0846475 0)
(-0.0180426 0.123017 0)
(-0.0325282 0.15061 0)
(-0.0490889 0.169593 0)
(-0.0670166 0.181816 0)
(-0.0857827 0.188681 0)
(-0.105031 0.191112 0)
(-0.124533 0.189595 0)
(-0.144137 0.184257 0)
(-0.163716 0.174966 0)
(-0.183138 0.161429 0)
(-0.202231 0.143285 0)
(-0.22076 0.120186 0)
(-0.238399 0.0918726 0)
(-0.254704 0.0582462 0)
(-0.269087 0.0194515 0)
(-0.28078 -0.0240286 0)
(-0.288816 -0.0712526 0)
(-0.292019 -0.120692 0)
(-0.289017 -0.17006 0)
(-0.278369 -0.216163 0)
(-0.258788 -0.254838 0)
(-0.229549 -0.281107 0)
(-0.191067 -0.289732 0)
(-0.145544 -0.276376 0)
(-0.097344 -0.239314 0)
(-0.0525475 -0.181118 0)
(-0.0181612 -0.10907 0)
(-0.00225866 -0.0336651 0)
(-0.00101602 0.0367478 0)
(-0.00647254 0.0934448 0)
(-0.0172895 0.135635 0)
(-0.0312222 0.165852 0)
(-0.0471068 0.186544 0)
(-0.0642197 0.199818 0)
(-0.0820283 0.207292 0)
(-0.100188 0.210052 0)
(-0.118499 0.208691 0)
(-0.136855 0.203394 0)
(-0.155194 0.194049 0)
(-0.173462 0.180349 0)
(-0.191587 0.161888 0)
(-0.209449 0.138248 0)
(-0.226851 0.10907 0)
(-0.243496 0.0741263 0)
(-0.25894 0.0333956 0)
(-0.272547 -0.0128466 0)
(-0.283451 -0.0639103 0)
(-0.290492 -0.118516 0)
(-0.29218 -0.174594 0)
(-0.286756 -0.229021 0)
(-0.272362 -0.277389 0)
(-0.247433 -0.313947 0)
(-0.211373 -0.331965 0)
(-0.165484 -0.324893 0)
(-0.113796 -0.288518 0)
(-0.0631099 -0.223676 0)
(-0.0224406 -0.137852 0)
(-0.00295098 -0.0438516 0)
(-0.000937385 0.0400519 0)
(-0.00608597 0.101819 0)
(-0.0163451 0.147667 0)
(-0.0295208 0.180347 0)
(-0.0444339 0.202571 0)
(-0.06034 0.216712 0)
(-0.0767034 0.224616 0)
(-0.093195 0.227547 0)
(-0.10965 0.226222 0)
(-0.126012 0.220905 0)
(-0.14229 0.21152 0)
(-0.15852 0.197765 0)
(-0.174738 0.17921 0)
(-0.190954 0.155387 0)
(-0.207124 0.125857 0)
(-0.223123 0.0902752 0)
(-0.238698 0.0484583 0)
(-0.253414 0.000458695 0)
(-0.266578 -0.0533319 0)
(-0.277154 -0.111983 0)
(-0.283679 -0.173808 0)
(-0.284217 -0.235999 0)
(-0.276441 -0.294212 0)
(-0.257945 -0.342223 0)
(-0.22693 -0.371952 0)
(-0.183346 -0.374376 0)
(-0.130243 -0.341919 0)
(-0.0745824 -0.272318 0)
(-0.0274122 -0.172131 0)
(-0.00382235 -0.056451 0)
(-0.000862449 0.0431333 0)
(-0.00570914 0.109712 0)
(-0.0153776 0.158984 0)
(-0.027671 0.193871 0)
(-0.0413703 0.217347 0)
(-0.0557057 0.232064 0)
(-0.0701454 0.240117 0)
(-0.0843879 0.242967 0)
(-0.0983149 0.241473 0)
(-0.111933 0.235996 0)
(-0.125331 0.226515 0)
(-0.138641 0.212753 0)
(-0.152016 0.194278 0)
(-0.165604 0.170593 0)
(-0.179525 0.141204 0)
(-0.193838 0.105674 0)
(-0.208504 0.0636724 0)
(-0.223327 0.0150356 0)
(-0.237855 -0.0401478 0)
(-0.251278 -0.101375 0)
(-0.262302 -0.167477 0)
(-0.269004 -0.236202 0)
(-0.268788 -0.30363 0)
(-0.258544 -0.363514 0)
(-0.235224 -0.406814 0)
(-0.197072 -0.422073 0)
(-0.145424 -0.397628 0)
(-0.0865193 -0.326444 0)
(-0.0330735 -0.212261 0)
(-0.00491205 -0.0718602 0)
(-0.000815251 0.0460221 0)
(-0.00545693 0.117162 0)
(-0.014633 0.16956 0)
(-0.0260288 0.206281 0)
(-0.0383454 0.230594 0)
(-0.050788 0.245466 0)
(-0.0628473 0.253271 0)
(-0.0742741 0.255689 0)
(-0.0850198 0.25374 0)
(-0.0951731 0.247893 0)
(-0.104914 0.238199 0)
(-0.114482 0.224424 0)
(-0.12415 0.206152 0)
(-0.134205 0.182883 0)
(-0.144925 0.154089 0)
(-0.156556 0.119269 0)
(-0.16927 0.0779739 0)
(-0.183117 0.0298512 0)
(-0.197921 -0.025301 0)
(-0.213178 -0.0874215 0)
(-0.227888 -0.15594 0)
(-0.240344 -0.229349 0)
(-0.24795 -0.304513 0)
(-0.247171 -0.375705 0)
(-0.23387 -0.433571 0)
(-0.204419 -0.464667 0)
(-0.157765 -0.452903 0)
(-0.0982645 -0.384743 0)
(-0.0393948 -0.258326 0)
(-0.00627495 -0.0904915 0)
(-0.00083386 0.0488243 0)
(-0.00549927 0.124353 0)
(-0.0144594 0.179508 0)
(-0.0250808 0.217537 0)
(-0.0359293 0.242096 0)
(-0.0461987 0.256545 0)
(-0.0554409 0.263577 0)
(-0.0635025 0.265116 0)
(-0.070442 0.262352 0)
(-0.0764573 0.255873 0)
(-0.0818386 0.245811 0)
(-0.0869388 0.23198 0)
(-0.0921517 0.214 0)
(-0.0978958 0.19138 0)
(-0.104597 0.163583 0)
(-0.112667 0.130068 0)
(-0.122472 0.0903028 0)
(-0.134288 0.043783 0)
(-0.148217 -0.00994567 0)
(-0.16409 -0.071227 0)
(-0.181288 -0.140087 0)
(-0.198503 -0.215867 0)
(-0.213437 -0.296495 0)
(-0.222518 -0.377322 0)
(-0.220893 -0.449522 0)
(-0.203177 -0.49856 0)
(-0.16546 -0.504216 0)
(-0.108945 -0.445042 0)
(-0.0463312 -0.310018 0)
(-0.00799733 -0.112778 0)
(-0.000982571 0.051761 0)
(-0.00609323 0.131666 0)
(-0.015346 0.189117 0)
(-0.0254712 0.227713 0)
(-0.0348364 0.2517 0)
(-0.0426687 0.264952 0)
(-0.048652 0.270547 0)
(-0.0527966 0.270669 0)
(-0.0553218 0.266681 0)
(-0.0565707 0.259282 0)
(-0.0569636 0.24868 0)
(-0.0569741 0.234743 0)
(-0.0571125 0.217125 0)
(-0.0579154 0.195357 0)
(-0.0599339 0.168907 0)
(-0.0637178 0.137213 0)
(-0.069792 0.0996894 0)
(-0.0786225 0.0557239 0)
(-0.0905642 0.00467014 0)
(-0.105764 -0.0541353 0)
(-0.124019 -0.121251 0)
(-0.144551 -0.196845 0)
(-0.165625 -0.280058 0)
(-0.184073 -0.367775 0)
(-0.194875 -0.452612 0)
(-0.191332 -0.520252 0)
(-0.166563 -0.547432 0)
(-0.117463 -0.50421 0)
(-0.053837 -0.36649 0)
(-0.0102249 -0.139202 0)
(-0.0013777 0.0552375 0)
(-0.00764182 0.139757 0)
(-0.0179808 0.198882 0)
(-0.0280265 0.236987 0)
(-0.0359049 0.259273 0)
(-0.0409826 0.270324 0)
(-0.0431952 0.273672 0)
(-0.0428159 0.271765 0)
(-0.0402941 0.266118 0)
(-0.0361596 0.257516 0)
(-0.0309819 0.246222 0)
(-0.0253579 0.232145 0)
(-0.0199043 0.214966 0)
(-0.0152545 0.194237 0)
(-0.0120571 0.169438 0)
(-0.0109654 0.139997 0)
(-0.0126233 0.105302 0)
(-0.0176436 0.0646743 0)
(-0.0265774 0.0173451 0)
(-0.039854 -0.0375634 0)
(-0.0576778 -0.101015 0)
(-0.0798437 -0.173872 0)
(-0.105368 -0.256453 0)
(-0.131892 -0.347429 0)
(-0.154889 -0.441687 0)
(-0.167091 -0.526688 0)
(-0.159006 -0.578071 0)
(-0.12244 -0.558114 0)
(-0.0618489 -0.426172 0)
(-0.0132009 -0.170357 0)
(-0.00223973 0.0599699 0)
(-0.0107951 0.149659 0)
(-0.0233214 0.20951 0)
(-0.0337453 0.245574 0)
(-0.0399941 0.264615 0)
(-0.0417944 0.272189 0)
(-0.0395251 0.272338 0)
(-0.0338545 0.267747 0)
(-0.0255426 0.260021 0)
(-0.0153467 0.249979 0)
(-0.00399612 0.237893 0)
(0.00779299 0.223684 0)
(0.0193162 0.207045 0)
(0.0298717 0.187541 0)
(0.0387451 0.16466 0)
(0.0452165 0.137833 0)
(0.0485641 0.106436 0)
(0.048071 0.069767 0)
(0.0430366 0.0269997 0)
(0.0327996 -0.022858 0)
(0.0168019 -0.0810058 0)
(-0.00530611 -0.148786 0)
(-0.0333667 -0.22747 0)
(-0.066124 -0.317503 0)
(-0.100189 -0.416585 0)
(-0.128704 -0.51553 0)
(-0.140469 -0.591566 0)
(-0.122055 -0.601592 0)
(-0.0701631 -0.48648 0)
(-0.0172902 -0.207015 0)
(-0.00399314 0.0672187 0)
(-0.0166053 0.162886 0)
(-0.0326247 0.221822 0)
(-0.0436309 0.253527 0)
(-0.0476292 0.267241 0)
(-0.0451235 0.269776 0)
(-0.0372184 0.265676 0)
(-0.0251392 0.257758 0)
(-0.0100356 0.247608 0)
(0.00707996 0.235981 0)
(0.0253181 0.223099 0)
(0.0438701 0.208842 0)
(0.061974 0.192895 0)
(0.0788896 0.174819 0)
(0.0938757 0.154106 0)
(0.106183 0.130197 0)
(0.115045 0.102478 0)
(0.119679 0.0702513 0)
(0.119274 0.0326969 0)
(0.112979 -0.0111909 0)
(0.099948 -0.0626947 0)
(0.0793591 -0.123375 0)
(0.0505815 -0.195113 0)
(0.0136437 -0.279812 0)
(-0.0296931 -0.378061 0)
(-0.074078 -0.485314 0)
(-0.108041 -0.583489 0)
(-0.113657 -0.628404 0)
(-0.0780573 -0.543307 0)
(-0.0229042 -0.250054 0)
(-0.00743879 0.0792126 0)
(-0.026705 0.181471 0)
(-0.047232 0.236415 0)
(-0.0580059 0.260277 0)
(-0.0579357 0.265948 0)
(-0.04902 0.261652 0)
(-0.0334652 0.252269 0)
(-0.0132175 0.240522 0)
(0.0101333 0.227786 0)
(0.0353296 0.21462 0)
(0.0613598 0.2011 0)
(0.0873676 0.187017 0)
(0.112584 0.172009 0)
(0.13628 0.155619 0)
(0.15773 0.137345 0)
(0.176193 0.116643 0)
(0.190897 0.0929288 0)
(0.201021 0.0655474 0)
(0.205678 0.0337364 0)
(0.203856 -0.0034362 0)
(0.194497 -0.0472018 0)
(0.176409 -0.0990961 0)
(0.148296 -0.161232 0)
(0.10907 -0.236409 0)
(0.0586249 -0.32767 0)
(-0.00019819 -0.435631 0)
(-0.0575969 -0.549862 0)
(-0.0930066 -0.631161 0)
(-0.0834326 -0.590211 0)
(-0.0301228 -0.300117 0)
(-0.0139655 0.0998261 0)
(-0.043255 0.207597 0)
(-0.0673964 0.252719 0)
(-0.0742678 0.263645 0)
(-0.065708 0.257989 0)
(-0.0462783 0.245118 0)
(-0.01966 0.229749 0)
(0.0114144 0.214092 0)
(0.0449785 0.199026 0)
(0.0796376 0.184734 0)
(0.114371 0.171041 0)
(0.14838 0.157594 0)
(0.180975 0.143953 0)
(0.211513 0.12964 0)
(0.239347 0.114158 0)
(0.263796 0.0970002 0)
(0.28412 0.0776329 0)
(0.299503 0.0554781 0)
(0.309023 0.0298742 0)
(0.311534 2.00638e-05 0)
(0.305856 -0.0350706 0)
(0.290526 -0.0768014 0)
(0.263765 -0.127165 0)
(0.223611 -0.1892 0)
(0.168259 -0.267471 0)
(0.0975027 -0.367237 0)
(0.0172154 -0.487723 0)
(-0.0528353 -0.601453 0)
(-0.0813004 -0.617582 0)
(-0.0377037 -0.357478 0)
(-0.0253975 0.13556 0)
(-0.0673437 0.241338 0)
(-0.0875985 0.266102 0)
(-0.0802503 0.257446 0)
(-0.0541273 0.237448 0)
(-0.0173091 0.215266 0)
(0.0251489 0.194367 0)
(0.0700966 0.175778 0)
(0.115587 0.159515 0)
(0.160428 0.145204 0)
(0.20386 0.132341 0)
(0.245341 0.120398 0)
(0.284417 0.10886 0)
(0.320643 0.0972366 0)
(0.353537 0.0850635 0)
(0.382546 0.0718925 0)
(0.407022 0.0572771 0)
(0.426203 0.0407509 0)
(0.439179 0.0217962 0)
(0.444827 -0.00021022 0)
(0.441881 -0.0259259 0)
(0.42866 -0.056484 0)
(0.403171 -0.0935053 0)
(0.362911 -0.139672 0)
(0.304801 -0.199803 0)
(0.225692 -0.282049 0)
(0.126176 -0.395333 0)
(0.0195081 -0.530712 0)
(-0.0615885 -0.612079 0)
(-0.0410058 -0.421363 0)
(-0.0412021 0.197713 0)
(-0.0900522 0.273196 0)
(-0.0798545 0.259399 0)
(-0.036692 0.225973 0)
(0.0204874 0.192597 0)
(0.0820291 0.164146 0)
(0.143433 0.141157 0)
(0.202574 0.122818 0)
(0.258535 0.108064 0)
(0.311004 0.0959467 0)
(0.359923 0.0856882 0)
(0.405289 0.0766544 0)
(0.447067 0.0683213 0)
(0.485138 0.0602476 0)
(0.51927 0.0520512 0)
(0.549109 0.0433901 0)
(0.574161 0.0339454 0)
(0.593789 0.0234017 0)
(0.607169 0.011424 0)
(0.613334 -0.00239579 0)
(0.611049 -0.0184474 0)
(0.598628 -0.0374254 0)
(0.574081 -0.0604053 0)
(0.534733 -0.0892863 0)
(0.476843 -0.127894 0)
(0.395121 -0.18436 0)
(0.2843 -0.2739 0)
(0.145367 -0.410589 0)
(-0.00372781 -0.553924 0)
(-0.0254757 -0.477384 0)
(-0.0340189 0.293978 0)
(-0.0475792 0.272988 0)
(0.0542186 0.199796 0)
(0.157266 0.149698 0)
(0.249898 0.114624 0)
(0.331618 0.0895277 0)
(0.40341 0.0717466 0)
(0.466529 0.0590626 0)
(0.522319 0.0497653 0)
(0.571976 0.0426943 0)
(0.61643 0.0370804 0)
(0.656339 0.0323934 0)
(0.692121 0.0282507 0)
(0.723985 0.0243639 0)
(0.751954 0.0205067 0)
(0.775881 0.0164928 0)
(0.795464 0.0121606 0)
(0.810251 0.00736417 0)
(0.819571 0.00195745 0)
(0.822762 -0.00413098 0)
(0.818822 -0.0112381 0)
(0.806381 -0.019611 0)
(0.783792 -0.0297016 0)
(0.748718 -0.0424294 0)
(0.697544 -0.0598244 0)
(0.624177 -0.0869473 0)
(0.518384 -0.137294 0)
(0.365019 -0.240371 0)
(0.144032 -0.407005 0)
(0.0588313 -0.458305 0)
(0.303273 0.180945 0)
(0.382643 0.144348 0)
(0.561026 0.0911965 0)
(0.686895 0.0590087 0)
(0.769553 0.0393242 0)
(0.829022 0.0267891 0)
(0.874692 0.018852 0)
(0.910971 0.0138402 0)
(0.940617 0.0106063 0)
(0.965485 0.00843239 0)
(0.986758 0.00688898 0)
(1.00516 0.00571501 0)
(1.02113 0.00474607 0)
(1.03488 0.00387449 0)
(1.0465 0.00302645 0)
(1.05593 0.00214848 0)
(1.06305 0.00119831 0)
(1.06764 0.000144644 0)
(1.06942 -0.00104964 0)
(1.068 -0.00229981 0)
(1.06284 -0.00380091 0)
(1.05342 -0.00558077 0)
(1.03895 -0.00770986 0)
(1.01824 -0.0103926 0)
(0.989216 -0.0141239 0)
(0.947784 -0.0202425 0)
(0.884159 -0.0326351 0)
(0.776438 -0.0637989 0)
(0.544843 -0.13949 0)
(0.38249 -0.201747 0)
)
;

boundaryField
{
    movingWall
    {
        type            fixedValue;
        value           uniform (1.2 0 0);
    }
    fixedWalls
    {
        type            noSlip;
    }
    frontAndBack
    {
        type            empty;
    }
}


// ************************************************************************* //
