/*--------------------------------*- C++ -*----------------------------------*\
  =========                 |
  \\      /  F ield         | OpenFOAM: The Open Source CFD Toolbox
   \\    /   O peration     | Website:  https://openfoam.org
    \\  /    A nd           | Version:  7
     \\/     M anipulation  |
\*---------------------------------------------------------------------------*/
FoamFile
{
    version     2.0;
    format      ascii;
    class       surfaceScalarField;
    location    "5.2";
    object      phi;
}
// * * * * * * * * * * * * * * * * * * * * * * * * * * * * * * * * * * * * * //

dimensions      [0 3 -1 0 0 0 0];

internalField   nonuniform List<scalar> 
1740
(
6.76066e-07
-6.7684e-07
2.48845e-07
4.27216e-07
-1.61015e-06
1.859e-06
-4.73276e-06
3.12261e-06
-8.79463e-06
4.06186e-06
-1.34773e-05
4.68267e-06
-1.85147e-05
5.03742e-06
-2.36919e-05
5.17715e-06
-2.8826e-05
5.13418e-06
-3.37461e-05
4.92009e-06
-3.82765e-05
4.53038e-06
-4.22286e-05
3.95211e-06
-4.54013e-05
3.17263e-06
-4.75896e-05
2.18838e-06
-4.86024e-05
1.01279e-06
-4.82845e-05
-3.17954e-07
-4.65425e-05
-1.74199e-06
-4.33717e-05
-3.17073e-06
-3.88764e-05
-4.49539e-06
-3.32796e-05
-5.59677e-06
-2.69203e-05
-6.35924e-06
-2.02328e-05
-6.68749e-06
-1.37098e-05
-6.523e-06
-7.85284e-06
-5.85699e-06
-3.11536e-06
-4.73748e-06
1.61407e-07
-3.27677e-06
1.83828e-06
-1.67687e-06
1.97203e-06
-1.33753e-07
9.95248e-07
9.76781e-07
9.95244e-07
-4.12014e-07
-2.64829e-07
-3.46621e-06
3.48141e-06
-9.60754e-06
8.00033e-06
-1.84505e-05
1.19656e-05
-2.93959e-05
1.50072e-05
-4.17994e-05
1.70862e-05
-5.50576e-05
1.82956e-05
-6.86294e-05
1.8749e-05
-8.20208e-05
1.85255e-05
-9.47575e-05
1.76568e-05
-0.000106362
1.61352e-05
-0.000116345
1.39349e-05
-0.000124209
1.10363e-05
-0.000129473
7.45265e-06
-0.000131712
3.2516e-06
-0.000130608
-1.42195e-06
-0.000125991
-6.3589e-06
-0.000117906
-1.12555e-05
-0.00010664
-1.57611e-05
-9.27409e-05
-1.94963e-05
-7.70014e-05
-2.20987e-05
-6.04156e-05
-2.32733e-05
-4.40963e-05
-2.28423e-05
-2.91662e-05
-2.0787e-05
-1.66299e-05
-1.72738e-05
-7.23898e-06
-1.26677e-05
-1.38335e-06
-7.5325e-06
1.10615e-06
-2.62326e-06
1.03076e-06
1.05217e-06
2.026e-06
-1.98771e-06
1.72288e-06
-8.48095e-06
9.97465e-06
-1.9269e-05
1.87884e-05
-3.3719e-05
2.64156e-05
-5.10028e-05
3.2291e-05
-7.02522e-05
3.63355e-05
-9.06347e-05
3.86782e-05
-0.000111374
3.94887e-05
-0.000131739
3.88896e-05
-0.000151012
3.69303e-05
-0.000168477
3.36005e-05
-0.000183409
2.88663e-05
-0.000195087
2.27143e-05
-0.000202833
1.51987e-05
-0.000206063
6.48164e-06
-0.000204347
-3.13755e-06
-0.000197482
-1.32239e-05
-0.000185552
-2.31856e-05
-0.000168974
-3.23394e-05
-0.000148516
-3.99546e-05
-0.000125279
-4.53351e-05
-0.00010064
-4.79124e-05
-7.61419e-05
-4.73405e-05
-5.33524e-05
-4.35765e-05
-3.36912e-05
-3.6935e-05
-1.82499e-05
-2.8109e-05
-7.61751e-06
-1.81649e-05
-1.72622e-06
-8.51456e-06
2.5914e-07
-9.3319e-07
2.28514e-06
-3.63765e-06
5.36054e-06
-1.37102e-05
2.00472e-05
-2.92651e-05
3.43432e-05
-4.92451e-05
4.63956e-05
-7.25549e-05
5.56008e-05
-9.81273e-05
6.19079e-05
-0.000124956
6.55065e-05
-0.000152094
6.66267e-05
-0.000178634
6.54297e-05
-0.00020368
6.19771e-05
-0.000226333
5.62533e-05
-0.000245685
4.82179e-05
-0.000260843
3.78723e-05
-0.000270972
2.53282e-05
-0.000275357
1.08663e-05
-0.00027347
-5.02421e-06
-0.000265054
-2.16405e-05
-0.000250189
-3.805e-05
-0.000229353
-5.31753e-05
-0.000203443
-6.58646e-05
-0.000173766
-7.50126e-05
-0.000141975
-7.97034e-05
-0.000109957
-7.93586e-05
-7.96633e-05
-7.387e-05
-5.2906e-05
-6.36922e-05
-3.11352e-05
-4.98799e-05
-1.52305e-05
-3.40695e-05
-5.33257e-06
-1.84125e-05
-7.64636e-07
-5.50112e-06
1.5205e-06
-5.20671e-06
1.05673e-05
-1.87961e-05
3.36366e-05
-3.90425e-05
5.45896e-05
-6.44027e-05
7.17557e-05
-9.34791e-05
8.46773e-05
-0.000125008
9.3437e-05
-0.000157839
9.8337e-05
-0.000190898
9.96862e-05
-0.000223155
9.76866e-05
-0.000253585
9.24075e-05
-0.000281153
8.38211e-05
-0.000304812
7.18761e-05
-0.000323527
5.65875e-05
-0.000336325
3.81264e-05
-0.000342357
1.68985e-05
-0.000340978
-6.40302e-06
-0.000331826
-3.07924e-05
-0.000314914
-5.49621e-05
-0.000290694
-7.73958e-05
-0.000260102
-9.64565e-05
-0.000224566
-0.000110549
-0.000185956
-0.000118314
-0.000146469
-0.000118845
-0.000108451
-0.000111888
-7.41563e-05
-9.79874e-05
-4.54788e-05
-7.85574e-05
-2.37002e-05
-5.58481e-05
-9.29118e-06
-3.28215e-05
-1.82354e-06
-1.29688e-05
-3.0303e-07
-6.65871e-06
1.7226e-05
-2.35904e-05
5.05683e-05
-4.83313e-05
7.93306e-05
-7.88446e-05
0.000102269
-0.000113422
0.000119254
-0.000150607
0.000130623
-0.000189127
0.000136856
-0.000227815
0.000138375
-0.000265559
0.000135431
-0.000301248
0.000128097
-0.000333751
0.000116324
-0.000361913
0.000100038
-0.000384578
7.92529e-05
-0.000400637
5.41846e-05
-0.000409087
2.53485e-05
-0.000409123
-6.36633e-06
-0.000400213
-3.97027e-05
-0.000382215
-7.296e-05
-0.00035546
-0.000104151
-0.000320826
-0.00013109
-0.000279781
-0.000151594
-0.000234359
-0.000163735
-0.000187067
-0.000166138
-0.000140691
-0.000158264
-9.80268e-05
-0.000140651
-6.15501e-05
-0.000115034
-3.30903e-05
-8.43079e-05
-1.35751e-05
-5.23366e-05
-2.90913e-06
-2.36348e-05
-3.21216e-06
-7.9881e-06
2.52141e-05
-2.8027e-05
7.06072e-05
-5.69812e-05
0.000108285
-9.2348e-05
0.000137636
-0.000132122
0.000159028
-0.00017467
0.000173171
-0.000218616
0.000180803
-0.000262735
0.000182493
-0.000305863
0.000178559
-0.000346843
0.000169077
-0.000384483
0.000153963
-0.000417545
0.0001331
-0.000444766
0.000106474
-0.000464894
7.43124e-05
-0.000476748
3.72026e-05
-0.000479316
-3.79831e-06
-0.000471811
-4.72076e-05
-0.000453847
-9.09242e-05
-0.000425521
-0.000132477
-0.000387542
-0.000169069
-0.000341319
-0.000197817
-0.000288991
-0.000216063
-0.000233364
-0.000221765
-0.000177728
-0.0002139
-0.000125547
-0.000192832
-8.00557e-05
-0.000160526
-4.38207e-05
-0.000120543
-1.83868e-05
-7.77705e-05
-4.08181e-06
-3.79398e-05
-7.29397e-06
-9.18945e-06
3.44035e-05
-3.20572e-05
9.34749e-05
-6.4874e-05
0.000141102
-0.000104721
0.000177482
-0.000149325
0.000203633
-0.000196903
0.000220749
-0.000245999
0.000229899
-0.000295356
0.000231849
-0.000343796
0.000226999
-0.000390148
0.000215428
-0.000433189
0.000197005
-0.000471629
0.00017154
-0.000504107
0.000138953
-0.000529228
9.94335e-05
-0.00054561
5.35843e-05
-0.000551978
2.56946e-06
-0.000547232
-5.19534e-05
-0.000530634
-0.000107522
-0.000501928
-0.000161183
-0.000461522
-0.000209475
-0.000410641
-0.000248698
-0.000351429
-0.000275275
-0.000286953
-0.000286241
-0.000221048
-0.000279805
-0.000157981
-0.000255898
-0.000101955
-0.000216552
-5.65192e-05
-0.000165979
-2.40521e-05
-0.000110238
-5.44301e-06
-5.65489e-05
-1.2737e-05
-1.02485e-05
4.4652e-05
-3.56203e-05
0.000118847
-7.18789e-05
0.00017736
-0.00011575
0.000221353
-0.000164735
0.000252618
-0.000216926
0.00027294
-0.000270821
0.000283794
-0.000325155
0.000286183
-0.000378768
0.000280613
-0.000430508
0.000267168
-0.000479156
0.000245653
-0.000523394
0.000215778
-0.000561789
0.000177348
-0.000592811
0.000130455
-0.00061487
7.56437e-05
-0.000626371
1.40705e-05
-0.000625889
-5.24355e-05
-0.000612215
-0.000121196
-0.000584623
-0.000188775
-0.000543071
-0.000251028
-0.000488434
-0.000303335
-0.00042271
-0.000340998
-0.000349122
-0.000359829
-0.000272036
-0.000356891
-0.000196634
-0.000331301
-0.000128315
-0.000284871
-7.19193e-05
-0.000222375
-3.09607e-05
-0.000151196
-7.11264e-06
-8.03969e-05
-1.98496e-05
-1.11421e-05
5.57942e-05
-3.86383e-05
0.000146343
-7.78398e-05
0.000216562
-0.000125183
0.000268697
-0.000177991
0.000305425
-0.000234263
0.000329213
-0.000292473
0.000342004
-0.000351377
0.000345087
-0.000409863
0.000339099
-0.000466828
0.000324133
-0.000521094
0.000299919
-0.000571351
0.000266034
-0.000616124
0.000222122
-0.000653774
0.000168105
-0.000682516
0.000104385
-0.000700469
3.2024e-05
-0.00070579
-4.71148e-05
-0.000696777
-0.00013021
-0.000672119
-0.000213433
-0.000631163
-0.000291984
-0.000574235
-0.000360263
-0.000502962
-0.000412271
-0.000420526
-0.000442265
-0.000331713
-0.000445704
-0.00024266
-0.000420354
-0.000160187
-0.000367344
-9.07904e-05
-0.000291771
-3.95344e-05
-0.000202452
-9.22044e-06
-0.000110711
-2.90701e-05
-1.18418e-05
6.7636e-05
-4.10216e-05
0.000175523
-8.25825e-05
0.000258122
-0.000132743
0.000318857
-0.000188687
0.00036137
-0.000248353
0.000388879
-0.000310213
0.000403864
-0.000373067
0.000407941
-0.000435873
0.000401905
-0.000497613
0.000385873
-0.000557184
0.00035949
-0.000613326
0.000322176
-0.000664573
0.000273369
-0.000709226
0.000212757
-0.000745351
0.000140511
-0.000770818
5.74906e-05
-0.000783387
-3.45456e-05
-0.00078084
-0.000132756
-0.000761211
-0.000233062
-0.000723089
-0.000330105
-0.000666026
-0.000417326
-0.000590989
-0.000487308
-0.000500802
-0.000532453
-0.00040042
-0.000546085
-0.000296845
-0.000523929
-0.000198477
-0.000465712
-0.000113878
-0.000376371
-5.02068e-05
-0.000266123
-1.19035e-05
-0.000149014
-4.09735e-05
-1.23187e-05
7.99547e-05
-4.26818e-05
0.000205886
-8.59357e-05
0.000301376
-0.000138147
0.000371068
-0.000196403
0.000419625
-0.000258601
0.000451077
-0.000323225
0.000468488
-0.000389136
0.000473852
-0.000455385
0.000468154
-0.000521064
0.000451551
-0.000585183
0.00042361
-0.000646587
0.00038358
-0.000703876
0.000330658
-0.000755365
0.000264247
-0.000799059
0.000184205
-0.000832655
9.10873e-05
-0.000853602
-1.35993e-05
-0.000859205
-0.000127153
-0.000846828
-0.000245439
-0.000814206
-0.000362727
-0.000759898
-0.000471634
-0.00068387
-0.000563335
-0.000588161
-0.000628162
-0.000477458
-0.000656787
-0.000359337
-0.00064205
-0.000243789
-0.000581261
-0.000141832
-0.000478328
-6.34044e-05
-0.00034455
-1.53057e-05
-0.000197113
-5.62792e-05
-1.255e-05
9.25046e-05
-4.355e-05
0.000236886
-8.77613e-05
0.000345588
-0.00014116
0.000424467
-0.000200764
0.000479229
-0.000264444
0.000514757
-0.000330706
0.00053475
-0.000398477
0.000541623
-0.000466914
0.000536592
-0.000535244
0.000519881
-0.000602633
0.000490998
-0.000668075
0.000449022
-0.000730315
0.000392898
-0.000787779
0.00032171
-0.000838521
0.000234947
-0.000880203
0.000132769
-0.000910095
1.62925e-05
-0.000925149
-0.000112099
-0.000922132
-0.000248456
-0.000897903
-0.000386955
-0.000849869
-0.000519668
-0.000776659
-0.000636546
-0.000679003
-0.000725818
-0.000560698
-0.000775092
-0.000429326
-0.000773422
-0.000296215
-0.000714371
-0.000175115
-0.000599428
-7.95208e-05
-0.000440145
-1.95766e-05
-0.000257057
-7.58559e-05
-1.25265e-05
0.000105031
-4.3598e-05
0.000267957
-8.79925e-05
0.000389982
-0.000141641
0.000478115
-0.000201511
0.0005391
-0.00026545
0.000578696
-0.000331981
0.000601282
-0.000400102
0.000609744
-0.000469085
0.000605574
-0.00053831
0.000589106
-0.000607128
0.000559816
-0.000674745
0.000516639
-0.000740125
0.000458278
-0.00080191
0.000383495
-0.000858346
0.000291383
-0.000907225
0.000181648
-0.000945837
5.49044e-05
-0.00097097
-8.69662e-05
-0.000978974
-0.000240453
-0.000965924
-0.000400005
-0.000928029
-0.000557564
-0.000862314
-0.000702262
-0.000767673
-0.000820459
-0.000646227
-0.000896537
-0.00050469
-0.000914959
-0.000355085
-0.000863977
-0.000213869
-0.000740644
-9.88752e-05
-0.000555138
-2.48677e-05
-0.000331065
-0.000100724
-1.22609e-05
0.000117292
-4.28635e-05
0.00029856
-8.66771e-05
0.000433796
-0.000139612
0.00053105
-0.000198585
0.000598073
-0.000261413
0.000641524
-0.000326636
0.000666505
-0.000393316
0.000676424
-0.000460844
0.000673102
-0.000528769
0.000657032
-0.00059666
0.000627706
-0.00066398
0.000583959
-0.000729991
0.00052429
-0.00079366
0.000447164
-0.000853569
0.000351292
-0.000907826
0.000235906
-0.000953973
0.000101052
-0.00098887
-5.20698e-05
-0.00100875
-0.000220573
-0.00100912
-0.000399635
-0.000985102
-0.000581581
-0.000932021
-0.000755343
-0.000846501
-0.000905979
-0.000728156
-0.00101488
-0.000581684
-0.00106143
-0.000418666
-0.00102699
-0.00025774
-0.00090157
-0.000121653
-0.000691225
-3.13244e-05
-0.000421393
-0.000132048
-1.17963e-05
0.000129088
-4.14758e-05
0.000328239
-8.40242e-05
0.000476344
-0.000135317
0.000582343
-0.000192206
0.000654962
-0.000252466
0.000701784
-0.000314644
0.000728683
-0.000377869
0.000739649
-0.000441658
0.00073689
-0.000505745
0.000721119
-0.000569941
0.000691902
-0.000634012
0.00064803
-0.000697582
0.00058786
-0.000760038
0.00050962
-0.000820429
0.000411683
-0.000877359
0.000292836
-0.00092886
0.000152553
-0.000972103
-8.82714e-06
-0.00100361
-0.000189065
-0.00101862
-0.000384622
-0.0010115
-0.000588703
-0.000976002
-0.000790842
-0.000906283
-0.000975699
-0.000798744
-0.00112242
-0.000654779
-0.0012054
-0.000483906
-0.00119787
-0.000305682
-0.00107979
-0.000147829
-0.000849078
-3.90748e-05
-0.000530147
-0.000171123
-1.12162e-05
0.000140305
-3.9686e-05
0.000356709
-8.04531e-05
0.000517111
-0.000129295
0.000631185
-0.000182958
0.000708625
-0.000239164
0.00075799
-0.000296473
0.000785993
-0.000354094
0.00079727
-0.000411686
0.000794482
-0.000469188
0.000778621
-0.00052668
0.000749394
-0.000584267
0.000705617
-0.000641985
0.000645578
-0.000699709
0.000567343
-0.000757055
0.000469029
-0.000813256
0.000349037
-0.000866988
0.000206285
-0.000916243
4.04278e-05
-0.000957783
-0.000147525
-0.000987267
-0.000355138
-0.000998729
-0.000577242
-0.000984773
-0.000804797
-0.000937246
-0.00102323
-0.000848951
-0.00121072
-0.000716802
-0.00133755
-0.000546286
-0.00136838
-0.00035577
-0.00127031
-0.000177078
-0.00102777
-4.82191e-05
-0.000659007
-0.000219342
-1.06575e-05
0.000150962
-3.79017e-05
0.000383954
-7.66467e-05
0.000555856
-0.000122433
0.000676971
-0.000171846
0.000758038
-0.000222552
0.000808696
-0.000273154
0.000836594
-0.000322976
0.000847092
-0.000371858
0.000843365
-0.000419979
0.000826742
-0.000467718
0.000797132
-0.000515546
0.000753445
-0.000563943
0.000693975
-0.000613311
0.000616712
-0.000663886
0.000519604
-0.000715611
0.000400762
-0.000767966
0.00025864
-0.000819754
9.22159e-05
-0.000868618
-9.86603e-05
-0.000910866
-0.00031289
-0.000940828
-0.000547279
-0.000950635
-0.000794991
-0.000930389
-0.00104347
-0.000869434
-0.00127167
-0.000759446
-0.00144753
-0.000599893
-0.00152794
-0.000405067
-0.00146514
-0.000208703
-0.00122413
-5.88273e-05
-0.000808883
-0.000278169
-1.03304e-05
0.000161292
-3.67357e-05
0.000410359
-7.36149e-05
0.000592736
-0.000116037
0.000719392
-0.00016035
0.000802351
-0.000204194
0.00085254
-0.000246283
0.000878684
-0.00028614
0.000886949
-0.000323854
0.000881078
-0.000359894
0.000862782
-0.000394974
0.000832213
-0.000429959
0.00078843
-0.000465782
0.000729798
-0.000503378
0.000654308
-0.000543603
0.000559828
-0.000587119
0.000444278
-0.000634237
0.000305758
-0.000684679
0.000142658
-0.000737152
-4.61873e-05
-0.000789004
-0.000261039
-0.000835443
-0.00050084
-0.000868955
-0.000761479
-0.000878859
-0.00103357
-0.000851788
-0.00129874
-0.000774131
-0.00152519
-0.000637776
-0.00166429
-0.000449618
-0.00165329
-0.00024158
-0.00143217
-7.09585e-05
-0.000979504
-0.000349128
-1.05558e-05
0.000171848
-3.70831e-05
0.000436886
-7.27797e-05
0.000628432
-0.000111883
0.000758496
-0.000150438
0.000840905
-0.000186139
0.000888242
-0.000217954
0.000910499
-0.000245737
0.000914732
-0.000269935
0.000905276
-0.000291385
0.000884231
-0.000311182
0.00085201
-0.000330597
0.000807844
-0.000351012
0.000750213
-0.000373866
0.000677163
-0.000400589
0.000586551
-0.000432506
0.000476195
-0.000470704
0.000343956
-0.000515825
0.000187779
-0.000567671
5.65856e-06
-0.00062488
-0.000203829
-0.000684017
-0.000441703
-0.000738777
-0.000706718
-0.000778896
-0.00099345
-0.000789639
-0.001288
-0.000752959
-0.00156187
-0.000652494
-0.00176476
-0.000484561
-0.00182123
-0.000274134
-0.0016426
-8.47156e-05
-0.00116892
-0.000433843
-1.18371e-05
0.000183685
-4.02496e-05
0.000465299
-7.60907e-05
0.000664273
-0.000112279
0.000794684
-0.000144535
0.000873162
-0.000170808
0.000914514
-0.000190552
0.000930243
-0.000204163
0.000928343
-0.000212598
0.000913711
-0.000217157
0.00088879
-0.000219363
0.000854216
-0.000220902
0.000809383
-0.000223576
0.000752887
-0.00022927
0.000682857
-0.000239905
0.000597185
-0.000257363
0.000493654
-0.00028339
0.000369983
-0.000319418
0.000223807
-0.000366389
5.26293e-05
-0.000424107
-0.000146111
-0.000490902
-0.000374909
-0.000562372
-0.000635248
-0.000629906
-0.000925916
-0.000679157
-0.00123875
-0.000689417
-0.00155161
-0.000636652
-0.00181752
-0.000504282
-0.0019536
-0.000304302
-0.00184258
-0.000100332
-0.00137289
-0.000534176
-1.49985e-05
0.000198684
-4.81591e-05
0.000498459
-8.61684e-05
0.000702283
-0.000120054
0.00082857
-0.000145362
0.00089847
-0.000160674
0.000929827
-0.000166314
0.000935883
-0.000163507
0.000925535
-0.00015391
0.000904114
-0.000139392
0.000874272
-0.000121943
0.000836767
-0.000103649
0.000791089
-8.66857e-05
0.000735924
-7.33003e-05
0.000669472
-6.57938e-05
0.000589679
-6.64752e-05
0.000494336
-7.75953e-05
0.000381103
-0.000101247
0.000247459
-0.000139209
9.05913e-05
-0.000192604
-9.27166e-05
-0.000261398
-0.000306114
-0.000343699
-0.000552947
-0.000433456
-0.00083616
-0.000518649
-0.00115355
-0.000578427
-0.00149183
-0.000583103
-0.00181284
-0.000502415
-0.00203429
-0.000329366
-0.00201563
-0.00011825
-0.00158401
-0.000652426
-2.14447e-05
0.000220129
-6.36591e-05
0.000540674
-0.000106395
0.000745019
-0.000138339
0.000860514
-0.000155397
0.000915527
-0.000157477
0.000931907
-0.00014633
0.000924736
-0.000124378
0.000903583
-9.41876e-05
0.000873924
-5.82892e-05
0.000838374
-1.91548e-05
0.000797633
2.07733e-05
0.000751161
5.90394e-05
0.000697658
9.31289e-05
0.000635382
0.000120484
0.000562324
0.000138506
0.000476313
0.000144587
0.000375023
0.000136147
0.000255898
0.000110712
0.000116026
6.60312e-05
-4.80358e-05
4.07536e-07
-0.000240491
-8.60174e-05
-0.000466522
-0.000191286
-0.000730891
-0.000307184
-0.00103766
-0.000415555
-0.00138346
-0.000484498
-0.0017439
-0.000471404
-0.00204738
-0.000345433
-0.0021416
-0.000139031
-0.00179041
-0.000791457
-3.36188e-05
0.000253747
-9.08481e-05
0.000597903
-0.000140651
0.000794822
-0.000169618
0.00088948
-0.000175337
0.000921246
-0.000160214
0.000916784
-0.000128183
0.000892705
-8.32854e-05
0.000858685
-2.91843e-05
0.000819823
3.08858e-05
0.000778304
9.40197e-05
0.000734499
0.0001575
0.00068768
0.000218689
0.000636469
0.000274956
0.000579115
0.000323624
0.000513657
0.000361944
0.000437992
0.000387091
0.000349876
0.00039615
0.00024684
0.000386111
0.000126065
0.000353856
-1.57812e-05
0.000296527
-0.000183161
0.000211285
-0.00038128
9.72871e-05
-0.000616893
-4.23852e-05
-0.000897984
-0.000195348
-0.0012305
-0.000332006
-0.00160724
-0.000401299
-0.00197809
-0.000346192
-0.00219671
-0.000162748
-0.00197385
-0.000954205
-5.57256e-05
0.000309473
-0.000135018
0.000677196
-0.000191685
0.000851489
-0.000212614
0.000910409
-0.000199869
0.000908502
-0.000160139
0.000877053
-0.000100469
0.000833036
-2.68956e-05
0.000785111
5.57478e-05
0.00073718
0.000143602
0.000690449
0.000233468
0.000644633
0.000322535
0.000598614
0.000408173
0.000550831
0.000487796
0.000499492
0.000558766
0.000442687
0.00061833
0.000378428
0.000663578
0.000304628
0.000691383
0.000219035
0.000698358
0.00011909
0.000680577
1.99994e-06
0.000634247
-0.000136831
0.000554726
-0.000301759
0.000437867
-0.000500034
0.000281548
-0.000741666
9.07082e-05
-0.00103966
-0.000112835
-0.0014037
-0.000277314
-0.00181361
-0.000320239
-0.00215378
-0.00018717
-0.00210692
-0.00114137
-9.44729e-05
0.000403946
-0.00020051
0.000783233
-0.000255029
0.000906008
-0.00025325
0.00090863
-0.000206855
0.000862107
-0.000129141
0.000799339
-3.10415e-05
0.000734937
7.94e-05
0.00067467
0.000196475
0.000620105
0.000316084
0.00057084
0.000435125
0.000525591
0.000551038
0.000482701
0.000661498
0.00044037
0.000764218
0.000396773
0.000856809
0.000350096
0.000936695
0.000298541
0.00100104
0.000240288
0.00104664
0.00017343
0.00106983
9.58984e-05
0.00106635
5.48369e-06
0.00103145
-0.000101933
0.000959297
-0.000229606
0.000843286
-0.000384023
0.000676744
-0.000575124
0.000456157
-0.000819072
0.000191321
-0.00113886
-7.40923e-05
-0.0015482
-0.000246023
-0.00198185
-0.000204575
-0.00214837
-0.00134595
-0.000157976
0.000561922
-0.000279344
0.000904601
-0.00029906
0.000925723
-0.000240492
0.000850062
-0.000132401
0.000754016
3.84919e-06
0.000663089
0.00015421
0.000584576
0.000309926
0.000518954
0.000465698
0.000464333
0.000618262
0.000418276
0.000765442
0.000378411
0.00090556
0.000342583
0.00103707
0.000308858
0.00115835
0.000275494
0.00126754
0.000240902
0.00136248
0.000203603
0.0014406
0.000162166
0.00149889
0.000115149
0.00153377
6.10167e-05
0.00154021
-9.55117e-07
0.00151399
-7.5711e-05
0.00144796
-0.00016358
0.00133419
-0.000270251
0.00116281
-0.000403744
0.000922945
-0.000579209
0.000608998
-0.000824916
0.000242949
-0.00118215
-8.23753e-05
-0.00165653
-0.000195466
-0.00203528
-0.00154142
-0.000243078
0.000804999
-0.000302657
0.00096418
-0.000205485
0.000828552
-2.95619e-05
0.000674139
0.000176687
0.000547767
0.000389787
0.000449988
0.000598422
0.000375941
0.000797466
0.000319911
0.000984968
0.000276831
0.00116043
0.000242809
0.00132387
0.000214973
0.0014753
0.000191152
0.00161451
0.000169655
0.00174089
0.000149116
0.0018534
0.000128392
0.00195051
0.000106493
0.00203015
8.25221e-05
0.00208967
5.56315e-05
0.00212566
2.50209e-05
0.00213485
-1.0139e-05
0.00211085
-5.17169e-05
0.00204792
-0.000100646
0.00193758
-0.00015991
0.00176848
-0.000234648
0.00152483
-0.00033556
0.00118646
-0.000486542
0.000742694
-0.000738383
0.000251084
-0.00116492
-8.2332e-05
-0.00170186
-0.00162375
-0.000192901
0.0009979
2.12366e-05
0.000750043
0.00037619
0.000473599
0.000716101
0.000334228
0.00101946
0.000244407
0.00128626
0.000183193
0.00152024
0.000141961
0.00172619
0.000113952
0.00190874
9.42802e-05
0.0020717
7.98578e-05
0.00221791
6.87571e-05
0.00234935
5.97098e-05
0.00246717
5.18343e-05
0.0025718
4.44891e-05
0.00266301
3.71849e-05
0.00273997
2.9531e-05
0.00280129
2.12021e-05
0.00284498
1.19454e-05
0.00286827
1.73216e-06
0.002869
-1.08732e-05
0.00284186
-2.45745e-05
0.00278213
-4.09171e-05
0.00268279
-6.05667e-05
0.0025335
-8.53597e-05
0.00231751
-0.000119578
0.00200561
-0.000174634
0.00155091
-0.00028369
0.000926714
-0.000540716
0.000263494
-0.00103864
-0.00136025
0.0009979
0.00174794
0.00222154
0.00255577
0.00280018
0.00298337
0.00312533
0.00323928
0.00333356
0.00341342
0.00348218
0.00354189
0.00359372
0.00363821
0.0036754
0.00370493
0.00372613
0.00373807
0.00373981
0.00372893
0.00370436
0.00366344
0.00360288
0.00351752
0.00339794
0.0032233
0.00293961
0.0023989
0.00136025
)
;

boundaryField
{
    movingWall
    {
        type            calculated;
        value           uniform 0;
    }
    fixedWalls
    {
        type            calculated;
        value           uniform 0;
    }
    frontAndBack
    {
        type            empty;
        value           nonuniform 0();
    }
}


// ************************************************************************* //
