/*--------------------------------*- C++ -*----------------------------------*\
  =========                 |
  \\      /  F ield         | OpenFOAM: The Open Source CFD Toolbox
   \\    /   O peration     | Website:  https://openfoam.org
    \\  /    A nd           | Version:  7
     \\/     M anipulation  |
\*---------------------------------------------------------------------------*/
FoamFile
{
    version     2.0;
    format      ascii;
    class       volScalarField;
    location    "450";
    object      epsilon;
}
// * * * * * * * * * * * * * * * * * * * * * * * * * * * * * * * * * * * * * //

dimensions      [0 2 -3 0 0 0 0];

internalField   nonuniform List<scalar> 
16900
(
3.26157
4.11139
5.41738
6.48148
7.27091
7.79807
34.3869
35.3995
36.2986
35.5005
35.5561
41.1457
47.2561
53.7298
60.5514
67.7158
75.2208
83.0685
91.2612
99.8053
108.705
117.968
127.599
137.608
147.998
158.778
169.952
181.526
193.503
205.886
218.68
231.884
245.501
259.53
273.969
288.816
304.067
319.715
335.754
352.175
368.964
386.109
403.593
421.395
439.494
457.863
476.476
495.302
514.311
533.477
552.779
572.213
591.803
611.624
631.848
652.189
672.24
691.905
711.077
729.636
747.453
764.393
780.313
795.07
808.516
820.507
830.902
839.568
846.385
851.247
854.065
854.774
853.333
849.728
843.973
836.112
826.216
814.386
800.745
785.442
768.643
750.529
731.291
711.128
690.238
668.819
647.064
625.156
603.262
581.542
560.144
539.188
518.788
499.05
480.05
461.855
444.533
428.141
412.721
398.331
385.799
375.064
365.333
356.623
348.947
342.295
336.653
331.992
328.281
325.472
323.515
322.349
321.905
322.111
322.89
324.164
325.854
327.882
330.173
332.654
335.257
337.917
340.575
343.175
345.668
348.008
350.153
352.068
353.719
355.085
356.17
357.04
357.92
358.631
358.959
358.908
358.474
357.662
356.474
354.921
353.002
350.712
348.056
345.056
341.728
338.06
334.042
329.724
325.137
320.243
314.972
309.402
303.74
298.056
292.351
288.403
286.674
285.221
283.767
282.253
280.663
278.989
277.226
275.374
273.432
271.403
269.286
267.085
264.8
262.435
259.99
257.468
254.871
252.199
249.456
246.641
243.759
240.81
237.799
234.727
231.598
228.417
225.188
221.917
218.609
215.271
211.91
208.532
205.146
201.759
198.38
195.017
191.677
188.37
185.104
181.888
178.736
175.664
172.71
170.13
4.85842
4.48112
5.50136
6.79989
8.35833
10.7224
15.6228
17.6813
19.6491
21.902
24.5622
27.7581
31.0694
34.5033
38.0723
41.7809
45.6325
49.6303
53.7774
58.0769
62.5311
67.1424
71.9123
76.8423
81.933
87.1851
92.5981
98.1715
103.904
109.794
115.839
122.037
128.384
134.877
141.511
148.281
155.182
162.208
169.353
176.61
183.971
191.427
198.972
206.594
214.286
222.038
229.84
237.684
245.562
253.47
261.404
269.368
277.371
285.432
293.581
301.809
309.914
317.845
325.558
333.009
340.152
346.936
353.31
359.221
364.613
369.434
373.631
377.154
379.956
381.997
383.241
383.662
383.241
381.97
379.851
376.898
373.133
368.592
363.318
357.366
350.796
343.677
336.081
328.084
319.764
311.198
302.464
293.636
284.784
275.975
267.271
258.728
250.395
242.322
234.544
227.103
220.034
213.361
207.137
201.426
196.389
192.138
188.341
184.964
181.996
179.435
177.271
175.494
174.089
173.035
172.309
171.886
171.736
171.828
172.13
172.611
173.239
173.982
174.812
175.701
176.624
177.557
178.481
179.376
180.226
181.019
181.742
182.385
182.944
183.418
183.814
184.152
184.461
184.801
185.023
185.114
185.073
184.899
184.594
184.159
183.595
182.901
182.077
181.125
180.05
178.849
177.519
176.064
174.485
172.78
170.925
168.87
166.755
164.605
162.457
160.487
158.91
157.395
155.86
154.28
152.648
150.961
149.219
147.423
145.576
143.681
141.74
139.757
137.735
135.678
133.588
131.469
129.325
127.159
124.973
122.771
120.556
118.332
116.1
113.865
111.63
109.397
107.17
104.952
102.746
100.555
98.3816
96.2295
94.101
91.9988
89.9253
87.8829
85.8735
83.899
81.9608
80.0596
78.1947
76.362
74.5574
72.8263
6.4239
5.46445
6.33444
7.68968
9.34782
11.3836
13.882
16.1135
18.4406
20.9663
23.6468
26.4148
29.2571
32.1964
35.2455
38.4098
41.6924
45.0959
48.6226
52.274
56.0514
59.9556
63.987
68.1454
72.4305
76.8413
81.3763
86.0339
90.8117
95.707
100.717
105.837
111.065
116.396
121.825
127.347
132.958
138.653
144.425
150.27
156.183
162.158
168.189
174.272
180.401
186.573
192.782
199.025
205.3
211.603
217.934
224.293
230.68
237.098
243.552
249.98
256.321
262.54
268.608
274.492
280.159
285.573
290.693
295.481
299.893
303.887
307.421
310.454
312.945
314.859
316.165
316.837
316.855
316.209
314.894
312.916
310.289
307.038
303.192
298.793
293.886
288.525
282.765
276.668
270.296
263.712
256.978
250.156
243.303
236.477
229.73
223.105
216.652
210.411
204.405
198.688
193.289
188.233
183.556
179.305
175.551
172.262
169.336
166.743
164.472
162.523
160.887
159.551
158.501
157.721
157.19
156.887
156.79
156.875
157.116
157.49
157.973
158.543
159.179
159.86
160.568
161.287
162.003
162.703
163.375
164.011
164.603
165.145
165.635
166.074
166.464
166.808
167.117
167.365
167.518
167.571
167.521
167.366
167.106
166.742
166.275
165.703
165.024
164.238
163.345
162.344
161.234
159.997
158.639
157.181
155.599
153.869
152.061
150.196
148.307
146.447
144.659
142.868
141.043
139.171
137.251
135.282
133.266
131.206
129.106
126.968
124.797
122.596
120.37
118.122
115.856
113.576
111.285
108.987
106.686
104.384
102.086
99.7934
97.5102
95.2391
92.9831
90.7451
88.5277
86.3337
84.1656
82.0259
79.9167
77.8404
75.7987
73.7936
71.8264
69.8987
68.0114
66.1654
64.3612
62.5986
60.8764
59.1912
57.545
56.0145
7.85515
6.4925
7.24737
8.58666
10.2421
12.159
14.2938
16.5076
18.8361
21.2894
23.8433
26.4728
29.1833
31.9894
34.9015
37.9252
41.0639
44.32
47.6953
51.1907
54.8071
58.5446
62.4031
66.382
70.4804
74.6968
79.0296
83.4764
88.0348
92.7016
97.4735
102.347
107.317
112.38
117.532
122.767
128.08
133.468
138.925
144.447
150.03
155.669
161.36
167.101
172.888
178.718
184.59
190.502
196.451
202.437
208.458
214.513
220.6
226.715
232.843
238.939
244.969
250.909
256.732
262.413
267.92
273.221
278.281
283.061
287.521
291.621
295.317
298.569
301.335
303.578
305.263
306.361
306.849
306.71
305.935
304.524
302.487
299.842
296.616
292.842
288.564
283.83
278.693
273.211
267.445
261.454
255.301
249.047
242.745
236.455
230.233
224.109
218.151
212.399
206.882
201.632
196.683
192.061
187.799
183.933
180.489
177.417
174.677
172.248
170.124
168.296
166.757
165.493
164.498
163.749
163.229
162.918
162.795
162.837
163.022
163.329
163.736
164.224
164.772
165.364
165.984
166.616
167.247
167.867
168.464
169.032
169.562
170.05
170.494
170.891
171.241
171.527
171.738
171.863
171.891
171.818
171.641
171.359
170.97
170.475
169.873
169.164
168.345
167.412
166.357
165.197
163.924
162.524
161.005
159.381
157.646
155.797
153.86
151.858
149.817
147.756
145.681
143.571
141.417
139.217
136.971
134.683
132.357
129.996
127.606
125.189
122.75
120.294
117.825
115.348
112.865
110.381
107.899
105.424
102.957
100.503
98.0647
95.6442
93.2446
90.8684
88.5181
86.1959
83.9042
81.6451
79.4206
77.2325
75.0828
72.9729
70.9044
68.8784
66.8961
64.9585
63.0661
61.2194
59.4186
57.6633
55.9524
54.2843
52.666
51.1949
9.149
7.44368
8.09063
9.38437
11.0087
12.8634
14.8934
17.0488
19.3198
21.7004
24.1799
26.7507
29.4162
32.1849
35.0641
38.0588
41.1723
44.4069
47.7642
51.245
54.8498
58.5788
62.4317
66.4078
70.506
74.7251
79.0632
83.5181
88.0871
92.7673
97.5551
102.447
107.438
112.524
117.702
122.965
128.309
133.73
139.223
144.784
150.409
156.095
161.838
167.637
173.488
179.391
185.344
191.345
197.394
203.49
209.631
215.815
222.039
228.298
234.564
240.806
247.002
253.13
259.168
265.09
270.867
276.469
281.861
287.004
291.858
296.381
300.529
304.257
307.521
310.28
312.494
314.128
315.154
315.549
315.3
314.402
312.858
310.682
307.898
304.537
300.641
296.255
291.433
286.233
280.718
274.945
268.982
262.896
256.73
250.562
244.453
238.443
232.58
226.908
221.461
216.273
211.376
206.799
202.572
198.728
195.261
192.137
189.334
186.841
184.65
182.753
181.141
179.802
178.723
177.887
177.276
176.872
176.656
176.602
176.691
176.9
177.21
177.601
178.054
178.551
179.076
179.616
180.155
180.684
181.191
181.668
182.107
182.503
182.852
183.149
183.381
183.516
183.552
183.486
183.311
183.026
182.626
182.111
181.477
180.722
179.85
178.862
177.751
176.516
175.152
173.67
172.07
170.347
168.507
166.56
164.509
162.359
160.124
157.823
155.475
153.09
150.665
148.196
145.682
143.125
140.531
137.905
135.25
132.574
129.88
127.173
124.459
121.742
119.025
116.315
113.613
110.925
108.253
105.6
102.971
100.366
97.7888
95.2415
92.7262
90.2446
87.7986
85.3898
83.0197
80.6899
78.4016
76.1561
73.9546
71.7981
69.6875
67.6237
65.6073
63.6388
61.7185
59.8468
58.0235
56.2483
54.5204
52.8394
51.2159
49.7583
10.2863
8.28182
8.81339
10.0376
11.6063
13.4013
15.3654
17.4645
19.6833
22.0142
24.4523
26.9955
29.6465
32.4108
35.2939
38.3002
41.4328
44.694
48.0853
51.6077
55.2619
59.048
62.966
67.0154
71.1955
75.5051
79.9427
84.5062
89.1934
94.0012
98.9263
103.965
109.113
114.366
119.72
125.169
130.708
136.334
142.041
147.826
153.684
159.612
165.608
171.669
177.793
183.978
190.225
196.53
202.895
209.317
215.795
222.326
228.908
235.529
242.159
248.777
255.362
261.897
268.361
274.728
280.973
287.065
292.968
298.645
304.053
309.15
313.889
318.222
322.101
325.479
328.313
330.561
332.189
333.168
333.479
333.111
332.062
330.343
327.972
324.978
321.4
317.287
312.688
307.665
302.285
296.599
290.688
284.63
278.478
272.295
266.141
260.067
254.122
248.348
242.787
237.474
232.443
227.724
223.348
219.343
215.691
212.371
209.373
206.687
204.309
202.229
200.439
198.926
197.677
196.674
195.9
195.334
194.957
194.747
194.682
194.742
194.905
195.154
195.466
195.824
196.211
196.612
197.013
197.4
197.763
198.091
198.376
198.613
198.794
198.912
198.919
198.81
198.585
198.241
197.774
197.182
196.461
195.608
194.622
193.501
192.248
190.862
189.344
187.693
185.91
184.001
181.97
179.821
177.558
175.191
172.728
170.176
167.547
164.855
162.118
159.34
156.522
153.662
150.764
147.834
144.878
141.903
138.914
135.919
132.921
129.927
126.942
123.97
121.016
118.083
115.176
112.298
109.452
106.64
103.866
101.13
98.4343
95.7809
93.1708
90.6049
88.0842
85.6095
83.1814
80.8004
78.4672
76.1822
73.9457
71.7583
69.62
67.5313
65.4923
63.503
61.5635
59.6737
57.8334
56.0424
54.3002
52.6073
50.976
49.5199
11.2363
9.04428
9.42577
10.5542
12.0506
13.7816
15.6869
17.7348
19.9095
22.2038
24.6149
27.143
29.7909
32.5632
35.4644
38.4986
41.6689
44.9777
48.4268
52.0175
55.7508
59.6273
63.6474
67.811
72.118
76.5676
81.1587
85.8899
90.7592
95.7638
100.901
106.167
111.557
117.068
122.693
128.43
134.272
140.214
146.252
152.38
158.596
164.895
171.274
177.731
184.263
190.869
197.547
204.296
211.115
218.002
224.955
231.972
239.049
246.163
253.29
260.411
267.51
274.569
281.57
288.489
295.3
301.974
308.475
314.766
320.805
326.546
331.942
336.941
341.493
345.545
349.05
351.959
354.233
355.838
356.745
356.938
356.411
355.167
353.223
350.603
347.344
343.497
339.104
334.234
328.967
323.36
317.487
311.421
305.224
298.962
292.694
286.478
280.364
274.4
268.63
263.094
257.827
252.862
248.23
243.957
240.023
236.418
233.136
230.174
227.525
225.183
223.138
221.377
219.886
218.648
217.644
216.855
216.259
215.834
215.559
215.413
215.372
215.417
215.527
215.683
215.868
216.064
216.256
216.432
216.576
216.679
216.731
216.724
216.648
216.473
216.16
215.713
215.132
214.413
213.554
212.553
211.407
210.114
208.673
207.085
205.352
203.476
201.458
199.303
197.014
194.597
192.06
189.408
186.651
183.796
180.856
177.838
174.754
171.617
168.441
165.232
161.991
158.72
155.426
152.115
148.793
145.469
142.149
138.84
135.548
132.277
129.035
125.824
122.649
119.514
116.423
113.378
110.382
107.436
104.542
101.703
98.9169
96.1862
93.5105
90.8901
88.3246
85.8139
83.3575
80.9551
78.6062
76.3103
74.067
71.8758
69.7362
67.6479
65.6103
63.6232
61.6861
59.7986
57.9603
56.171
54.4306
52.7399
51.1123
49.6616
11.9441
10.0794
10.0125
10.9688
12.3713
14.0324
15.8797
17.8789
20.0135
22.2765
24.6661
27.1837
29.8326
32.6171
35.5417
38.6104
41.8267
45.1933
48.7126
52.3862
56.2159
60.2029
64.3482
68.6526
73.1164
77.7398
82.5224
87.4632
92.5607
97.8128
103.217
108.769
114.466
120.303
126.275
132.377
138.603
144.948
151.406
157.973
164.643
171.411
178.276
185.232
192.277
199.409
206.625
213.923
221.301
228.757
236.287
243.887
251.555
259.252
266.96
274.664
282.348
289.996
297.591
305.112
312.532
319.824
326.953
333.882
340.57
346.972
353.038
358.716
363.951
368.69
372.879
376.465
379.401
381.649
383.173
383.95
383.967
383.223
381.729
379.504
376.584
373.026
368.879
364.207
359.08
353.566
347.735
341.659
335.407
329.047
322.642
316.252
309.933
303.737
297.712
291.9
286.341
281.069
276.116
271.51
267.233
263.281
259.656
256.355
253.375
250.708
248.346
246.276
244.483
242.949
241.655
240.581
239.706
239.005
238.458
238.041
237.732
237.508
237.348
237.232
237.141
237.057
236.964
236.845
236.686
236.476
236.204
235.858
235.422
234.838
234.104
233.221
232.185
230.994
229.647
228.142
226.477
224.651
222.666
220.524
218.229
215.784
213.193
210.463
207.602
204.616
201.514
198.307
195.004
191.616
188.154
184.63
181.054
177.439
173.797
170.135
166.458
162.77
159.076
155.384
151.701
148.037
144.396
140.788
137.216
133.687
130.207
126.778
123.406
120.093
116.843
113.657
110.538
107.487
104.504
101.591
98.7456
95.9689
93.2597
90.6169
88.0392
85.5252
83.0735
80.6824
78.3505
76.0762
73.858
71.6945
69.5845
67.5267
65.52
63.5633
61.6559
59.7969
57.9857
56.2219
54.5055
52.8377
51.2319
49.7987
52.2574
13.8037
10.7759
11.3219
12.5965
14.1805
15.9685
17.9196
20.0154
22.2489
24.6187
27.1272
29.7781
32.5761
35.5261
38.6326
41.8994
45.3299
48.9273
52.6941
56.6327
60.7454
65.0339
69.5002
74.1454
78.9705
83.9761
89.1619
94.5272
100.07
105.789
111.68
117.74
123.964
130.346
136.882
143.564
150.388
157.345
164.431
171.64
178.965
186.403
193.948
201.596
209.345
217.189
225.126
233.152
241.262
249.452
257.717
266.044
274.389
282.736
291.07
299.38
307.648
315.859
323.993
332.027
339.931
347.675
355.222
362.535
369.568
376.273
382.597
388.483
393.879
398.727
402.967
406.55
409.433
411.569
412.931
413.501
413.269
412.246
410.453
407.923
404.704
400.845
396.407
391.456
386.062
380.296
374.23
367.938
361.488
354.948
348.383
341.852
335.412
329.113
323.003
317.123
311.512
306.203
301.224
296.563
292.225
288.214
284.53
281.171
278.132
275.403
272.971
270.821
268.936
267.296
265.879
264.664
263.626
262.742
261.989
261.342
260.778
260.275
259.812
259.367
258.922
258.458
257.958
257.406
256.791
256.1
255.317
254.4
253.314
252.064
250.65
249.067
247.315
245.392
243.298
241.031
238.595
235.99
233.224
230.299
227.223
224.001
220.645
217.161
213.562
209.856
206.057
202.176
198.225
194.216
190.163
186.075
181.967
177.85
173.731
169.617
165.513
161.426
157.363
153.333
149.343
145.4
141.511
137.681
133.917
130.222
126.6
123.056
119.592
116.21
112.912
109.699
106.572
103.53
100.572
97.6985
94.9067
92.195
89.5613
87.0031
84.5178
82.1026
79.755
77.4721
75.2513
73.0901
70.9859
68.9367
66.9401
64.9944
63.0979
61.2489
59.4464
57.6892
55.9769
54.3094
52.6878
51.1248
49.7253
12.0271
12.2998
11.0746
11.5686
12.7404
14.2472
15.9752
17.8781
19.9356
22.1401
24.4908
26.9906
29.6441
32.4566
35.4337
38.5805
41.9018
45.402
49.085
52.9546
57.0144
61.2675
65.717
70.3659
75.2165
80.271
85.5309
90.9969
96.669
102.546
108.627
114.908
121.385
128.054
134.91
141.945
149.154
156.528
164.061
171.746
179.573
187.537
195.631
203.849
212.185
220.634
229.19
237.848
246.601
255.442
264.366
273.363
282.404
291.442
300.465
309.459
318.41
327.305
336.127
344.858
353.477
361.956
370.266
378.374
386.246
393.841
401.113
408.007
414.471
420.451
425.895
430.729
434.905
438.38
441.096
443.021
444.135
444.427
443.901
442.572
440.466
437.622
434.089
429.922
425.185
419.947
414.279
408.256
401.95
395.435
388.781
382.057
375.326
368.647
362.077
355.666
349.458
343.496
337.815
332.443
327.376
322.626
318.2
314.101
310.329
306.879
303.741
300.903
298.35
296.064
294.025
292.21
290.597
289.161
287.877
286.721
285.668
284.692
283.772
282.883
282.004
281.115
280.195
279.226
278.194
277.083
275.878
274.556
273.058
271.383
269.531
267.501
265.29
262.897
260.322
257.566
254.631
251.519
248.236
244.789
241.184
237.431
233.538
229.518
225.381
221.139
216.806
212.395
207.919
203.392
198.827
194.238
189.636
185.035
180.445
175.876
171.335
166.829
162.364
157.949
153.59
149.296
145.073
140.928
136.865
132.891
129.008
125.221
121.533
117.945
114.459
111.077
107.799
104.623
101.549
98.5765
95.702
92.9235
90.2377
87.6416
85.1314
82.7033
80.3536
78.0782
75.8733
73.735
71.6597
69.6438
67.6842
65.7776
63.9213
62.1129
60.3501
58.6311
56.9544
55.3192
53.7251
52.1732
50.6751
49.327
52.3128
15.1952
11.5745
11.7617
12.819
14.2495
15.9183
17.7736
19.7934
21.9699
24.3026
26.795
29.4526
32.2818
35.289
38.4804
41.862
45.4394
49.2179
53.2025
57.3981
61.8094
66.4407
71.2964
76.3801
81.6953
87.2446
93.0299
99.0519
105.31
111.804
118.529
125.483
132.66
140.055
147.66
155.467
163.468
171.653
180.015
188.543
197.228
206.061
215.034
224.14
233.37
242.717
252.173
261.727
271.37
281.093
290.886
300.677
310.441
320.162
329.825
339.417
348.923
358.328
367.615
376.766
385.753
394.549
403.126
411.455
419.504
427.235
434.583
441.506
447.958
453.894
459.222
463.902
467.884
471.12
473.572
475.212
476.021
475.995
475.141
473.476
471.034
467.855
463.992
459.505
454.46
448.929
442.984
436.701
430.155
423.419
416.564
409.658
402.763
395.938
389.238
382.71
376.4
370.345
364.574
359.093
353.918
349.06
344.526
340.315
336.424
332.844
329.564
326.567
323.836
321.35
319.086
317.021
315.129
313.385
311.762
310.235
308.779
307.368
305.979
304.588
303.175
301.717
300.197
298.599
296.907
295.102
293.138
290.982
288.64
286.111
283.393
280.484
277.385
274.097
270.623
266.965
263.129
259.124
254.957
250.638
246.179
241.59
236.885
232.078
227.182
222.213
217.185
212.113
207.011
201.894
196.776
191.67
186.588
181.541
176.54
171.592
166.705
161.886
157.143
152.482
147.911
143.436
139.062
134.795
130.639
126.597
122.673
118.868
115.185
111.623
108.184
104.866
101.668
98.5889
95.6258
92.7756
90.0348
87.3993
84.8649
82.4267
80.08
77.8196
75.6405
73.5377
71.5062
69.5412
67.6381
65.7926
64.0006
62.2585
60.5628
58.9105
57.2993
55.727
54.1922
52.6945
51.2342
49.8217
48.5431
53.9812
16.2552
11.893
11.8819
12.8412
14.2011
15.8136
17.6235
19.6077
21.7584
24.0757
26.5639
29.2296
32.0802
35.1235
38.3671
41.8186
45.485
49.3732
53.49
57.8419
62.435
67.2753
72.3687
77.7204
83.3352
89.217
95.3688
101.792
108.488
115.454
122.687
130.185
137.94
145.947
154.198
162.682
171.39
180.311
189.435
198.747
208.237
217.893
227.705
237.662
247.753
257.968
268.294
278.719
289.229
299.809
310.433
321.009
331.518
341.943
352.27
362.483
372.566
382.504
392.283
401.889
411.291
420.463
429.386
438.038
446.396
454.441
462.09
469.317
476.083
482.341
488.027
493.094
497.491
501.168
504.081
506.197
507.487
507.938
507.548
506.325
504.294
501.489
497.956
493.75
488.934
483.577
477.751
471.532
464.995
458.216
451.268
444.22
437.14
430.088
423.123
416.295
409.651
403.232
397.069
391.176
385.574
380.278
375.296
370.631
366.278
362.231
358.479
355.005
351.791
348.816
346.058
343.491
341.09
338.829
336.68
334.618
332.615
330.646
328.687
326.713
324.701
322.632
320.485
318.245
315.894
313.405
310.721
307.842
304.769
301.501
298.037
294.376
290.52
286.473
282.237
277.82
273.229
268.473
263.563
258.512
253.332
248.038
242.643
237.165
231.617
226.018
220.382
214.725
209.063
203.411
197.784
192.194
186.654
181.176
175.77
170.444
165.206
160.062
155.022
150.089
145.273
140.576
136.006
131.565
127.258
123.087
119.055
115.163
111.411
107.799
104.328
100.995
97.7991
94.7368
91.8052
89.0003
86.3175
83.752
81.2985
78.9511
76.7042
74.5516
72.4871
70.5048
68.5985
66.7625
64.9911
63.2789
61.6209
60.0124
58.4493
56.9276
55.4441
53.9962
52.5819
51.2
49.8506
48.5421
47.3494
52.3171
16.5693
12.0687
11.9413
12.8188
14.1151
15.676
17.4445
19.3974
21.527
23.8341
26.3243
29.0054
31.8863
34.9764
38.2852
41.8218
45.5955
49.6151
53.8893
58.4264
63.2344
68.3211
73.6939
79.3598
85.3249
91.5946
98.173
105.063
112.264
119.775
127.594
135.714
144.131
152.835
161.818
171.068
180.573
190.32
200.296
210.484
220.867
231.432
242.166
253.054
264.083
275.238
286.502
297.858
309.29
320.778
332.247
343.62
354.874
365.992
376.957
387.75
398.354
408.754
418.936
428.896
438.596
448.008
457.126
465.936
474.421
482.562
490.317
497.66
504.56
510.976
516.86
522.166
526.844
530.844
534.119
536.626
538.332
539.213
539.254
538.456
536.832
534.409
531.223
527.323
522.768
517.622
511.956
505.844
499.361
492.583
485.584
478.437
471.21
463.968
456.77
449.67
442.718
435.955
429.416
423.123
417.101
411.369
405.936
400.807
395.98
391.449
387.201
383.223
379.495
375.997
372.704
369.593
366.638
363.81
361.083
358.429
355.822
353.234
350.642
348.021
345.347
342.6
339.761
336.814
333.737
330.485
327.031
323.377
319.523
315.469
311.215
306.763
302.116
297.278
292.256
287.058
281.694
276.176
270.516
264.729
258.83
252.835
246.76
240.622
234.439
228.227
222.004
215.787
209.591
203.432
197.325
191.283
185.318
179.443
173.667
167.998
162.444
157.013
151.71
146.542
141.515
136.632
131.898
127.317
122.891
118.622
114.51
110.558
106.764
103.128
99.6489
96.3236
93.1498
90.1239
87.2419
84.4992
81.8903
79.4096
77.051
74.8079
72.6736
70.6411
68.7035
66.8537
65.0848
63.39
61.7628
60.1968
58.686
57.2249
55.8084
54.4318
53.091
51.7826
50.504
49.2534
48.0301
46.8409
45.7483
52.7045
16.4648
12.12
11.9481
12.7623
14.0039
15.5201
17.254
19.1824
21.2988
23.605
26.1078
28.8168
31.7428
34.8973
38.2917
41.9376
45.8465
50.0296
54.498
59.2623
64.3323
69.7175
75.4272
81.47
87.8535
94.5843
101.668
109.107
116.902
125.051
133.548
142.389
151.565
161.068
170.884
181
191.403
202.075
213.004
224.161
235.529
247.09
258.827
270.723
282.76
294.918
307.176
319.512
331.904
344.317
356.624
368.782
380.755
392.528
404.078
415.386
426.431
437.195
447.662
457.823
467.654
477.139
486.272
495.049
503.462
511.502
519.153
526.399
533.221
539.592
545.478
550.837
555.627
559.798
563.301
566.088
568.118
569.354
569.775
569.367
568.132
566.086
563.256
559.682
555.416
550.517
545.051
539.09
532.707
525.977
518.976
511.776
504.448
497.058
489.667
482.332
475.104
468.027
461.137
454.463
448.036
441.877
435.998
430.406
425.099
420.073
415.316
410.813
406.548
402.498
398.64
394.949
391.399
387.963
384.613
381.321
378.059
374.803
371.525
368.203
364.812
361.333
357.749
354.04
350.179
346.117
341.851
337.383
332.713
327.842
322.772
317.505
312.047
306.404
300.585
294.601
288.463
282.185
275.782
269.271
262.667
255.989
249.255
242.483
235.692
228.898
222.121
215.378
208.684
202.056
195.508
189.053
182.704
176.472
170.367
164.397
158.569
152.89
147.366
142.001
136.801
131.769
126.907
122.219
117.707
113.37
109.209
105.224
101.414
97.7775
94.3117
91.0139
87.8805
84.9074
82.0898
79.4223
76.899
74.5134
72.2588
70.128
68.1136
66.2079
64.4033
62.692
61.0662
59.5185
58.0415
56.628
55.2712
53.9648
52.7028
51.4797
50.2906
49.1314
47.9987
46.89
45.8036
44.7446
43.7631
11.7635
14.382
12.0019
11.9123
12.6833
13.8808
15.3618
17.0708
18.9858
21.1014
23.4212
25.9536
28.7105
31.705
34.9512
38.4629
42.2545
46.3403
50.7345
55.4511
60.5033
65.9026
71.66
77.7868
84.293
91.1874
98.4777
106.17
114.267
122.772
131.674
140.969
150.65
160.707
171.126
181.894
192.993
204.404
216.109
228.098
240.325
252.767
265.406
278.221
291.191
304.292
317.5
330.788
344.129
357.494
370.776
383.868
396.743
409.369
421.719
433.768
445.489
456.858
467.856
478.466
488.675
498.471
507.845
516.797
525.33
533.452
541.167
548.48
555.39
561.896
567.989
573.648
578.846
583.546
587.705
591.274
594.2
596.435
597.935
598.662
598.594
597.716
596.033
593.56
590.327
586.374
581.755
576.53
570.764
564.53
557.9
550.948
543.747
536.369
528.879
521.343
513.816
506.352
498.996
491.786
484.76
477.95
471.381
465.069
459.02
453.236
447.712
442.438
437.4
432.58
427.958
423.511
419.214
415.04
410.962
406.953
402.984
399.03
395.064
391.06
386.994
382.845
378.593
374.222
369.71
365.017
360.118
355.016
349.712
344.206
338.502
332.603
326.513
320.24
313.792
307.181
300.419
293.52
286.499
279.374
272.162
264.882
257.553
250.193
242.823
235.461
228.126
220.837
213.611
206.464
199.411
192.468
185.647
178.961
172.42
166.032
159.807
153.75
147.867
142.164
136.644
131.311
126.167
121.215
116.456
111.889
107.515
103.334
99.3435
95.5419
91.9267
88.4947
85.2423
82.1652
79.2586
76.517
73.9345
71.5046
69.2204
67.0747
65.0596
63.1674
61.3898
59.7188
58.1459
56.6631
55.262
53.9349
52.6738
51.4714
50.3205
49.2145
48.1471
47.1127
46.1065
45.124
44.1623
43.2186
42.2963
41.4334
11.6157
13.8408
11.9364
11.8591
12.5948
13.7605
15.2193
16.9177
18.8357
20.9697
23.3254
25.9136
28.7488
31.8476
35.2273
38.9043
42.8963
47.2214
51.897
56.9405
62.3691
68.1946
74.4291
81.0858
88.1759
95.7089
103.692
112.131
121.031
130.398
140.202
150.443
161.112
172.194
183.673
195.529
207.739
220.281
233.129
246.259
259.636
273.229
287.012
300.959
315.043
329.234
343.504
357.821
372.148
386.428
400.48
414.273
427.773
440.945
453.755
466.172
478.165
489.707
500.776
511.354
521.431
530.998
540.054
548.605
556.668
564.261
571.407
578.128
584.446
590.378
595.936
601.118
605.914
610.3
614.24
617.688
620.591
622.895
624.545
625.492
625.698
625.137
623.794
621.673
618.789
615.173
610.866
605.922
600.4
594.365
587.889
581.043
573.898
566.524
558.991
551.36
543.691
536.038
528.446
520.956
513.611
506.448
499.495
492.768
486.277
480.024
474.007
468.216
462.639
457.257
452.052
447.001
442.078
437.259
432.516
427.823
423.152
418.476
413.771
409.01
404.172
399.235
394.183
388.997
383.652
378.106
372.358
366.408
360.26
353.914
347.376
340.65
333.744
326.667
319.429
312.044
304.526
296.892
289.158
281.343
273.467
265.549
257.609
249.668
241.745
233.86
226.033
218.281
210.623
203.073
195.649
188.363
181.228
174.256
167.455
160.836
154.404
148.166
142.126
136.288
130.656
125.231
120.015
115.009
110.213
105.625
101.245
97.0712
93.1006
89.3306
85.7578
82.3781
79.1872
76.1801
73.3513
70.6949
68.2044
65.8729
63.6931
61.6574
59.7577
57.9857
56.3333
54.7917
53.3524
52.007
50.7468
49.5635
48.4489
47.3952
46.3947
45.44
44.5245
43.6419
42.7864
41.9531
41.1381
40.3377
39.5536
38.8125
11.587
13.717
11.8894
11.7979
12.5106
13.6607
15.1155
16.8242
18.7696
20.9507
23.3763
26.0601
29.0202
32.2777
35.8547
39.7697
44.0449
48.7025
53.7639
59.2504
65.1856
71.5786
78.4408
85.7879
93.6314
101.98
110.838
120.21
130.096
140.492
151.378
162.743
174.572
186.845
199.539
212.628
226.084
239.875
253.971
268.338
282.94
297.741
312.708
327.808
343.009
358.274
373.573
388.866
404.107
419.107
433.8
448.152
462.124
475.677
488.773
501.374
513.448
524.964
535.897
546.232
555.957
565.07
573.576
581.489
588.835
595.648
601.967
607.833
613.291
618.381
623.137
627.581
631.722
635.554
639.052
642.179
644.882
647.103
648.778
649.847
650.255
649.96
648.931
647.153
644.627
641.369
637.409
632.789
627.56
621.781
615.518
608.837
601.81
594.503
586.985
579.319
571.564
563.774
555.996
548.272
540.65
533.17
525.863
518.748
511.837
505.134
498.636
492.337
486.224
480.281
474.49
468.828
463.272
457.796
452.376
446.984
441.594
436.18
430.718
425.185
419.557
413.818
407.95
401.934
395.739
389.341
382.744
375.951
368.965
361.789
354.43
346.895
339.193
331.335
323.335
315.208
306.969
298.637
290.231
281.77
273.276
264.768
256.268
247.797
239.376
231.023
222.758
214.601
206.566
198.672
190.931
183.358
175.964
168.76
161.755
154.955
148.368
141.997
135.847
129.921
124.219
118.744
113.495
108.471
103.672
99.0952
94.7383
90.5985
86.6723
82.9558
79.4447
76.1343
73.0193
70.0941
67.3528
64.7888
62.3952
60.1648
58.0901
56.163
54.3754
52.7189
51.1851
49.7653
48.4509
47.2331
46.1035
45.0534
44.0745
43.1586
42.2979
41.4846
40.7116
39.972
39.2595
38.5687
37.8946
37.2331
36.5837
35.9633
11.5903
13.656
11.8313
11.7372
12.4477
13.6049
15.0819
16.8319
18.8412
21.1129
23.6609
26.5013
29.6576
33.157
37.0314
41.2958
45.9807
51.1131
56.7183
62.8203
69.4412
76.5953
84.2959
92.5556
101.383
110.784
120.758
131.304
142.414
154.077
166.271
178.976
192.167
205.818
219.897
234.369
249.199
264.348
279.777
295.446
311.313
327.336
343.475
359.693
375.95
392.205
408.425
424.558
440.435
455.952
471.077
485.767
499.982
513.678
526.814
539.349
551.249
562.481
573.02
582.851
591.965
600.364
608.058
615.071
621.44
627.21
632.438
637.186
641.518
645.499
649.189
652.635
655.87
658.908
661.741
664.342
666.664
668.645
670.217
671.305
671.84
671.759
671.015
669.573
667.415
664.541
660.965
656.716
651.836
646.373
640.387
633.94
627.098
619.926
612.491
604.854
597.076
589.209
581.3
573.395
565.544
557.791
550.17
542.701
535.399
528.269
521.312
514.52
507.885
501.39
495.018
488.75
482.561
476.429
470.328
464.233
458.12
451.964
445.741
439.43
433.01
426.465
419.781
412.935
405.893
398.656
391.226
383.607
375.803
367.821
359.667
351.352
342.888
334.286
325.564
316.736
307.822
298.841
289.813
280.759
271.702
262.661
253.659
244.718
235.857
227.097
218.456
209.952
201.603
193.423
185.426
177.624
170.029
162.649
155.493
148.566
141.874
135.421
129.207
123.237
117.508
112.022
106.777
101.771
97.0018
92.4658
88.1597
84.0793
80.2201
76.5774
73.1458
69.9199
66.8937
64.0609
61.4151
58.9493
56.6561
54.5282
52.5575
50.7362
49.0559
47.5082
46.0847
44.7767
43.5758
42.4734
41.4609
40.53
39.6723
38.8796
38.1439
37.4575
36.8128
36.2029
35.621
35.061
34.5174
33.9852
33.4625
32.9574
11.5539
13.4469
11.7368
11.689
12.4295
13.6273
15.1656
17.0036
19.1332
21.5626
24.3161
27.4094
30.8746
34.7459
39.0586
43.8416
49.1284
54.9505
61.3364
68.3116
75.8972
84.1081
92.9555
102.447
112.584
123.363
134.777
146.813
159.454
172.675
186.447
200.739
215.515
230.736
246.362
262.348
278.651
295.222
312.017
328.987
346.084
363.262
380.474
397.681
414.831
431.885
448.802
465.399
481.579
497.312
512.556
527.268
541.402
554.914
567.76
579.9
591.297
601.92
611.745
620.758
628.954
636.339
642.931
648.762
653.878
658.338
662.214
665.586
668.539
671.163
673.542
675.75
677.845
679.866
681.824
683.706
685.475
687.069
688.414
689.424
690.014
690.103
689.621
688.513
686.739
684.28
681.133
677.311
672.841
667.764
662.128
655.989
649.407
642.445
635.167
627.632
619.9
612.022
604.048
596.021
587.996
580.022
572.132
564.351
556.695
549.171
541.782
534.524
527.387
520.358
513.422
506.56
499.75
492.971