/*--------------------------------*- C++ -*----------------------------------*\
  =========                 |
  \\      /  F ield         | OpenFOAM: The Open Source CFD Toolbox
   \\    /   O peration     | Website:  https://openfoam.org
    \\  /    A nd           | Version:  7
     \\/     M anipulation  |
\*---------------------------------------------------------------------------*/
FoamFile
{
    version     2.0;
    format      ascii;
    class       volScalarField;
    location    "450";
    object      k;
}
// * * * * * * * * * * * * * * * * * * * * * * * * * * * * * * * * * * * * * //

dimensions      [0 2 -2 0 0 0 0];

internalField   nonuniform List<scalar> 
16900
(
0.0439333
0.0683765
0.0900463
0.107384
0.119124
0.123689
0.117429
0.122457
0.128228
0.132645
0.137032
0.151297
0.165922
0.180753
0.195756
0.210919
0.226244
0.241732
0.257392
0.273232
0.289261
0.305486
0.321915
0.338555
0.355411
0.372486
0.389783
0.407305
0.42505
0.443018
0.461206
0.479611
0.498228
0.517053
0.536078
0.555295
0.574695
0.594268
0.614002
0.633883
0.653896
0.674024
0.694248
0.714546
0.734894
0.755268
0.77564
0.795982
0.816269
0.836475
0.856586
0.8766
0.896542
0.916484
0.936582
0.956702
0.976349
0.995452
1.01393
1.03169
1.04863
1.06464
1.07963
1.09348
1.10607
1.1173
1.12706
1.13525
1.14177
1.14653
1.14947
1.15052
1.14965
1.14683
1.14206
1.13537
1.1268
1.1164
1.10426
1.09049
1.0752
1.05853
1.04061
1.02162
1.0017
0.981015
0.959739
0.938029
0.916041
0.893928
0.871836
0.849893
0.82823
0.806966
0.786197
0.766024
0.746545
0.727825
0.709956
0.693005
0.677253
0.664253
0.652294
0.641432
0.631713
0.623167
0.615803
0.609616
0.604586
0.600678
0.597841
0.596012
0.595115
0.595064
0.595765
0.597122
0.599033
0.6014
0.604124
0.607113
0.610279
0.613539
0.616818
0.620047
0.623161
0.626105
0.628829
0.631288
0.633441
0.635258
0.636729
0.637887
0.638862
0.639946
0.640554
0.640706
0.640404
0.639649
0.638445
0.636801
0.634714
0.632177
0.629193
0.625778
0.621954
0.617708
0.613019
0.607926
0.602472
0.596629
0.590285
0.583496
0.57653
0.569432
0.562325
0.556447
0.554027
0.552198
0.550396
0.548522
0.54655
0.544465
0.542261
0.539936
0.537488
0.534917
0.532225
0.529413
0.526482
0.523434
0.520269
0.51699
0.513598
0.510093
0.506476
0.502749
0.498913
0.49497
0.490921
0.486769
0.482519
0.478173
0.473737
0.469217
0.464619
0.459952
0.455224
0.450443
0.445621
0.440767
0.435893
0.431011
0.426133
0.421272
0.416441
0.411656
0.406937
0.402313
0.397846
0.393951
0.065423
0.0931885
0.117526
0.138509
0.15576
0.169415
0.180976
0.196836
0.215696
0.238128
0.265915
0.29294
0.31926
0.3459
0.372937
0.40034
0.428091
0.456185
0.484629
0.513429
0.542599
0.572148
0.602088
0.632429
0.663182
0.694353
0.725951
0.757979
0.790442
0.823342
0.85668
0.890457
0.924672
0.959323
0.994408
1.02993
1.06587
1.10224
1.13904
1.17625
1.21386
1.25188
1.29028
1.32906
1.3682
1.40768
1.44748
1.48756
1.52789
1.56843
1.60915
1.64999
1.69091
1.73183
1.77271
1.81295
1.85272
1.89193
1.93044
1.9681
2.00471
2.04009
2.07401
2.10626
2.1366
2.16479
2.1906
2.21378
2.23411
2.25137
2.26536
2.27592
2.2829
2.2862
2.28575
2.28153
2.27357
2.26193
2.24673
2.22811
2.20628
2.18146
2.1539
2.1239
2.09174
2.05775
2.02223
1.98552
1.94791
1.90972
1.87125
1.83276
1.79453
1.75681
1.71981
1.68376
1.64886
1.61528
1.58326
1.55302
1.52491
1.49811
1.47298
1.44978
1.42858
1.40943
1.39235
1.37733
1.36433
1.3533
1.34415
1.33678
1.33108
1.32692
1.32415
1.32262
1.32219
1.3227
1.32401
1.32597
1.32846
1.33135
1.33452
1.33787
1.3413
1.34472
1.34806
1.35124
1.35421
1.35692
1.35931
1.36134
1.36296
1.36349
1.36342
1.36282
1.36169
1.36003
1.35783
1.35509
1.35182
1.348
1.34361
1.33865
1.33314
1.32707
1.3204
1.31312
1.30524
1.29681
1.2877
1.27759
1.26701
1.25605
1.24469
1.23262
1.22081
1.2087
1.19625
1.18343
1.17026
1.15675
1.14291
1.12876
1.11432
1.09959
1.08461
1.06939
1.05394
1.0383
1.02247
1.00649
0.99036
0.974109
0.957753
0.941311
0.924802
0.908244
0.891657
0.875061
0.858476
0.841923
0.825423
0.808998
0.79267
0.776461
0.760393
0.744487
0.728765
0.713247
0.697952
0.6829
0.668106
0.653586
0.639354
0.625419
0.611788
0.598455
0.585459
0.573374
0.0864009
0.118266
0.14585
0.171022
0.194493
0.217069
0.240256
0.266045
0.29437
0.325228
0.358251
0.391811
0.425553
0.459679
0.494257
0.529292
0.564782
0.600727
0.637133
0.674007
0.711355
0.749188
0.787511
0.826332
0.865656
0.905487
0.945826
0.986673
1.02802
1.06988
1.11223
1.15506
1.19837
1.24216
1.2864
1.33109
1.37622
1.42177
1.46774
1.51412
1.56089
1.60804
1.65556
1.70344
1.75166
1.80021
1.84905
1.89818
1.94754
1.99712
2.04687
2.09675
2.14669
2.19665
2.2463
2.29549
2.34419
2.3923
2.43966
2.48607
2.53134
2.57523
2.6175
2.65786
2.69605
2.73177
2.76472
2.7946
2.82111
2.84398
2.86295
2.87778
2.88829
2.89432
2.89577
2.89259
2.8848
2.87246
2.85568
2.83466
2.80961
2.78083
2.74861
2.71332
2.67531
2.63499
2.59275
2.54899
2.5041
2.45848
2.41251
2.36652
2.32086
2.27587
2.23175
2.18889
2.14753
2.10788
2.07016
2.03463
2.00146
1.97016
1.94096
1.91401
1.88937
1.86711
1.84723
1.82969
1.81443
1.80136
1.79038
1.78136
1.77415
1.76859
1.76453
1.76179
1.76019
1.75956
1.75975
1.7606
1.76195
1.76367
1.76563
1.7677
1.7698
1.77181
1.77366
1.77527
1.77658
1.77754
1.77808
1.77817
1.7772
1.7754
1.7729
1.76976
1.76595
1.76148
1.75634
1.75051
1.74401
1.73684
1.72896
1.72036
1.71104
1.70103
1.6903
1.6787
1.6663
1.65327
1.63944
1.62465
1.60924
1.59329
1.57685
1.55987
1.54256
1.52481
1.50661
1.48799
1.46897
1.44959
1.42987
1.40983
1.38951
1.36892
1.34809
1.32706
1.30584
1.28447
1.26296
1.24135
1.21965
1.1979
1.1761
1.15429
1.13249
1.11072
1.08899
1.06734
1.04578
1.02434
1.00303
0.981886
0.960925
0.940169
0.919643
0.899367
0.879362
0.85965
0.840249
0.821177
0.802451
0.784085
0.76609
0.748475
0.731242
0.714387
0.698008
0.683196
0.1056
0.141663
0.172662
0.20156
0.229821
0.258396
0.28826
0.320197
0.354231
0.39019
0.427666
0.465993
0.504853
0.544229
0.584147
0.624614
0.665634
0.707209
0.749341
0.792034
0.835291
0.879115
0.92351
0.968477
1.01402
1.06012
1.1068
1.15404
1.20182
1.25015
1.299
1.34836
1.39821
1.44854
1.49933
1.55055
1.60219
1.65423
1.70665
1.75945
1.81259
1.86608
1.91989
1.97402
2.02844
2.08316
2.13814
2.19338
2.24885
2.30452
2.36035
2.41631
2.47235
2.52841
2.58413
2.63948
2.69439
2.74873
2.80235
2.85505
2.90661
2.95681
3.00536
3.05197
3.09633
3.13812
3.177
3.21261
3.24461
3.27269
3.29651
3.3158
3.33032
3.33987
3.3443
3.34354
3.33756
3.32641
3.31022
3.28916
3.26349
3.23349
3.19952
3.16197
3.12125
3.0778
3.03209
2.98458
2.9357
2.88591
2.83568
2.7853
2.73531
2.68608
2.63787
2.59102
2.54579
2.50244
2.46123
2.4224
2.38602
2.35182
2.31997
2.29056
2.26366
2.23928
2.2174
2.19796
2.18093
2.16619
2.1536
2.14303
2.1343
2.12726
2.1217
2.11745
2.11433
2.11215
2.11074
2.10994
2.10959
2.10953
2.10964
2.1098
2.10989
2.10981
2.10947
2.10881
2.10776
2.10625
2.10423
2.1013
2.09735
2.09253
2.08692
2.08055
2.07341
2.06549
2.05676
2.04722
2.0369
2.02578
2.01385
2.00106
1.98735
1.97289
1.95762
1.94143
1.92439
1.9066
1.88803
1.86863
1.84855
1.82789
1.80675
1.78512
1.763
1.74039
1.71732
1.69383
1.66998
1.64581
1.62136
1.59665
1.57173
1.54663
1.52138
1.496
1.47054
1.44502
1.41947
1.3939
1.36836
1.34287
1.31743
1.29209
1.26685
1.24173
1.21677
1.19197
1.16735
1.14293
1.11874
1.09479
1.07109
1.04768
1.02456
1.00176
0.97929
0.957172
0.935421
0.914052
0.893078
0.872512
0.852363
0.832637
0.813336
0.794467
0.77619
0.759965
0.122987
0.162717
0.196967
0.229073
0.260957
0.293646
0.327831
0.363896
0.401828
0.441429
0.482387
0.524326
0.567011
0.61037
0.654393
0.699078
0.744422
0.790425
0.837085
0.884399
0.932367
0.980986
1.03026
1.08017
1.13073
1.18193
1.23375
1.28618
1.33922
1.39284
1.44701
1.50173
1.55695
1.61266
1.66883
1.72543
1.78243
1.83981
1.89755
1.95561
2.014
2.07268
2.13164
2.19088
2.25038
2.31012
2.37011
2.43033
2.49076
2.55138
2.61217
2.67309
2.73409
2.79511
2.85585
2.91628
2.97633
3.03589
3.0948
3.15288
3.20991
3.26566
3.31985
3.37218
3.42231
3.4699
3.51457
3.55594
3.59363
3.62726
3.65646
3.68091
3.70029
3.71437
3.72295
3.72591
3.72318
3.71479
3.70083
3.68148
3.65697
3.62763
3.59379
3.5559
3.51439
3.46973
3.42244
3.37304
3.32193
3.26974
3.21697
3.16403
3.11134
3.05932
3.0083
2.95862
2.91059
2.86447
2.82056
2.77911
2.74003
2.70331
2.66906
2.63736
2.60826
2.58176
2.55782
2.53639
2.51738
2.50067
2.48613
2.47361
2.46294
2.45394
2.4464
2.44013
2.43495
2.43067
2.4271
2.42407
2.42141
2.41898
2.41664
2.41426
2.41171
2.4089
2.40574
2.40215
2.39807
2.3934
2.38799
2.38139
2.37378
2.36523
2.35579
2.34547
2.33426
2.32216
2.30913
2.29514
2.28026
2.26449
2.24781
2.23019
2.2116
2.19216
2.17185
2.15064
2.12859
2.10577
2.08221
2.05793
2.033
2.00754
1.98164
1.9553
1.9285
1.90125
1.87359
1.8456
1.81733
1.78882
1.76014
1.73132
1.70241
1.67344
1.64444
1.61546
1.58652
1.55765
1.52889
1.50026
1.47178
1.44348
1.41536
1.38746
1.35979
1.33236
1.30519
1.27828
1.25166
1.22533
1.19931
1.1736
1.14823
1.1232
1.09852
1.07421
1.05028
1.02674
1.00361
0.980888
0.95859
0.936724
0.915297
0.894315
0.873779
0.853709
0.834316
0.817285
0.1383
0.180996
0.218174
0.253024
0.287716
0.323361
0.360551
0.399531
0.440265
0.482577
0.526226
0.570963
0.616612
0.663093
0.710374
0.758442
0.807288
0.856903
0.907282
0.958416
1.0103
1.06293
1.11629
1.17039
1.22521
1.28074
1.33697
1.39388
1.45146
1.50966
1.56848
1.62787
1.68781
1.74826
1.80918
1.87054
1.93229
1.99441
2.05687
2.11963
2.18267
2.24598
2.30952
2.3733
2.4373
2.50151
2.56592
2.63054
2.69534
2.76032
2.82545
2.89072
2.95609
3.02144
3.08657
3.15145
3.21603
3.2802
3.34383
3.40676
3.46878
3.52966
3.58914
3.64691
3.70263
3.75594
3.80645
3.85375
3.89742
3.93703
3.97218
4.00248
4.02756
4.04712
4.06091
4.06875
4.07052
4.06622
4.05588
4.03968
4.01782
3.99061
3.95841
3.92165
3.88083
3.83637
3.78888
3.73899
3.68715
3.63393
3.57985
3.52538
3.47096
3.41703
3.36396
3.31211
3.26182
3.21339
3.1671
3.12322
3.08164
3.04246
3.00578
2.97169
2.94021
2.91135
2.88506
2.86128
2.83992
2.82085
2.80392
2.78898
2.77584
2.76432
2.75423
2.74535
2.7375
2.73049
2.72414
2.71825
2.71266
2.7072
2.70175
2.69615
2.6903
2.68408
2.6774
2.67018
2.66235
2.65381
2.64406
2.63314
2.62114
2.6081
2.59408
2.57907
2.56306
2.54603
2.52798
2.50888
2.48879
2.46772
2.44566
2.42263
2.39863
2.37373
2.34796
2.32134
2.29393
2.2658
2.237
2.20759
2.17763
2.14722
2.11646
2.08535
2.05389
2.0221
1.99002
1.95772
1.92528
1.89274
1.86017
1.82762
1.79512
1.76272
1.73046
1.69838
1.66651
1.63487
1.6035
1.57242
1.54165
1.51121
1.48111
1.45136
1.42198
1.39298
1.36435
1.33611
1.30825
1.28079
1.25372
1.22704
1.20077
1.1749
1.14944
1.12439
1.09975
1.07553
1.05174
1.02838
1.00545
0.982959
0.960913
0.939313
0.918166
0.897498
0.877551
0.860127
0.150965
0.196106
0.236025
0.273284
0.310232
0.348094
0.387464
0.428557
0.471348
0.515693
0.56141
0.608319
0.656287
0.705236
0.755128
0.805938
0.857651
0.910253
0.963732
1.01808
1.07328
1.12933
1.18621
1.24393
1.30246
1.36179
1.42191
1.48279
1.54442
1.60675
1.66975
1.7334
1.79763
1.86242
1.92771
1.99345
2.05961
2.12613
2.19297
2.2601
2.32749
2.3951
2.46291
2.53092
2.59909
2.66744
2.73594
2.8046
2.87341
2.94236
3.01144
3.08065
3.14998
3.21918
3.28821
3.35706
3.42566
3.49395
3.56182
3.62912
3.69568
3.76128
3.82569
3.8886
3.94969
4.00859
4.06491
4.11821
4.16804
4.21395
4.25548
4.29218
4.32362
4.34946
4.36935
4.38305
4.3904
4.39132
4.3858
4.37396
4.356
4.3322
4.30288
4.2685
4.22963
4.18675
4.14042
4.09123
4.03974
3.98648
3.932
3.8768
3.82137
3.76616
3.71158
3.65803
3.60585
3.55536
3.50688
3.46065
3.41662
3.37494
3.33572
3.29905
3.26497
3.23347
3.2045
3.17801
3.15389
3.132
3.11222
3.09436
3.07824
3.06368
3.05047
3.03841
3.02731
3.01696
3.00718
2.99778
2.98858
2.97943
2.97018
2.96069
2.95082
2.94048
2.92956
2.91799
2.90565
2.89228
2.87755
2.86162
2.84453
2.82631
2.80699
2.78658
2.76506
2.74243
2.71871
2.69389
2.66801
2.64109
2.61316
2.58426
2.55442
2.52369
2.49213
2.45981
2.42678
2.39311
2.3589
2.3242
2.28908
2.25365
2.21797
2.1821
2.14602
2.10978
2.07341
2.037
2.0006
1.96428
1.92811
1.89213
1.85639
1.82093
1.78581
1.75104
1.71667
1.68273
1.64923
1.6162
1.58366
1.55162
1.52009
1.48907
1.45856
1.42858
1.3991
1.37013
1.34167
1.3137
1.28622
1.25921
1.23268
1.20661
1.18099
1.15583
1.13111
1.10682
1.08298
1.05957
1.03659
1.01405
0.991937
0.97026
0.949024
0.928263
0.908231
0.890757
0.158942
0.207423
0.25051
0.290019
0.328831
0.368393
0.409372
0.452005
0.4963
0.542155
0.589436
0.638012
0.687779
0.73867
0.790642
0.843668
0.897727
0.952801
1.00888
1.06594
1.12397
1.18297
1.24291
1.3038
1.36562
1.42834
1.49196
1.55644
1.62176
1.68788
1.75476
1.82235
1.89061
1.95947
2.02889
2.0988
2.16914
2.23986
2.31091
2.38223
2.45378
2.52552
2.59743
2.66947
2.74163
2.81391
2.88628
2.95875
3.03131
3.10396
3.17669
3.24949
3.32237
3.39506
3.46757
3.53991
3.61205
3.68395
3.75552
3.82667
3.89725
3.96708
4.03594
4.10356
4.16965
4.23385
4.29576
4.35494
4.41093
4.46324
4.51138
4.55482
4.5931
4.62579
4.65247
4.67283
4.68662
4.6937
4.694
4.68757
4.67457
4.65529
4.63009
4.59937
4.56366
4.52347
4.47934
4.43186
4.38161
4.32915
4.27503
4.21981
4.16398
4.10802
4.05239
3.9975
3.94373
3.89141
3.84087
3.79237
3.7459
3.70167
3.6598
3.6204
3.58349
3.54909
3.51714
3.48759
3.46033
3.43522
3.41213
3.39089
3.3713
3.35318
3.33632
3.32052
3.30559
3.29131
3.27749
3.26396
3.25052
3.23703
3.22332
3.20925
3.1947
3.17954
3.16368
3.14703
3.12944
3.11043
3.09008
3.06847
3.04564
3.02159
2.99635
2.96993
2.94233
2.91356
2.88364
2.8526
2.82048
2.78731
2.75314
2.71804
2.68204
2.64523
2.60768
2.56946
2.53066
2.49135
2.45163
2.41158
2.37127
2.3308
2.29026
2.24967
2.20908
2.16851
2.12802
2.08768
2.04755
2.0077
1.96819
1.92908
1.89041
1.85223
1.81458
1.7775
1.74101
1.70515
1.66994
1.63538
1.60151
1.56831
1.5358
1.50397
1.47282
1.44234
1.41252
1.38333
1.35477
1.32682
1.29944
1.27264
1.24637
1.22063
1.1954
1.17065
1.14637
1.12255
1.09918
1.07623
1.05371
1.0316
1.00991
0.988627
0.967761
0.947347
0.927638
0.910418
0.15095
0.213938
0.261918
0.303603
0.34394
0.384794
0.426944
0.470676
0.516041
0.562983
0.61141
0.661228
0.712359
0.764747
0.818354
0.873149
0.929112
0.986222
1.04446
1.10382
1.16428
1.22583
1.28846
1.35216
1.41692
1.48271
1.54951
1.6173
1.68605
1.75571
1.82624
1.89758
1.96967
2.04245
2.11584
2.18978
2.26419
2.33901
2.41415
2.48957
2.56519
2.64097
2.71687
2.79286
2.8689
2.94497
3.02107
3.09718
3.1733
3.24941
3.32553
3.40164
3.4777
3.55348
3.62903
3.70438
3.77953
3.85447
3.92916
4.00354
4.07751
4.15094
4.22363
4.29538
4.3659
4.4349
4.50198
4.5667
4.6286
4.68717
4.7419
4.7922
4.83754
4.87744
4.91138
4.93896
4.95987
4.97386
4.98081
4.98073
4.97375
4.96009
4.94006
4.91405
4.88252
4.84598
4.80497
4.76007
4.71187
4.66095
4.6079
4.55326
4.49759
4.44139
4.38513
4.32926
4.27417
4.22024
4.1678
4.11712
4.06826
4.02146
3.97688
3.93461
3.89471
3.85719
3.82201
3.7891
3.75837
3.72969
3.7029
3.67785
3.65434
3.63219
3.61119
3.59114
3.57184
3.55307
3.53466
3.51641
3.49815
3.4797
3.46091
3.44164
3.42175
3.40114
3.37969
3.3573
3.33363
3.30847
3.28195
3.25411
3.22497
3.19456
3.1629
3.12999
3.09586
3.06053
3.02403
2.98642
2.94774
2.90805
2.86741
2.8259
2.7836
2.74057
2.69693
2.65275
2.60813
2.56316
2.51795
2.47258
2.42714
2.38172
2.3364
2.29124
2.24628
2.20156
2.15714
2.11309
2.06946
2.02633
1.98376
1.9418
1.9005
1.85991
1.82006
1.78098
1.74272
1.70529
1.6687
1.63298
1.59813
1.56415
1.53104
1.49879
1.46738
1.43681
1.40704
1.37804
1.3498
1.32228
1.29545
1.26927
1.24371
1.21874
1.19433
1.17044
1.14706
1.12414
1.10167
1.07963
1.058
1.03676
1.01591
0.995429
0.975335
0.955655
0.93663
0.919946
0.161259
0.22113
0.271325
0.314511
0.355991
0.397786
0.440751
0.485225
0.531306
0.578981
0.628198
0.678896
0.731019
0.784524
0.83938
0.895561
0.953045
1.01182
1.07186
1.13315
1.19569
1.25947
1.32447
1.39068
1.4581
1.52669
1.59645
1.66733
1.73931
1.81233
1.88635
1.9613
2.0371
2.11369
2.19097
2.26887
2.34729
2.42615
2.50536
2.58483
2.6645
2.74429
2.82414
2.90401
2.98386
3.06365
3.14336
3.22298
3.30249
3.38187
3.46114
3.54027
3.61915
3.69762
3.77575
3.85359
3.93118
4.00853
4.08567
4.16257
4.2392
4.31545
4.3912
4.46629
4.5405
4.61358
4.68518
4.75486
4.82216
4.88662
4.9477
5.0047
5.05707
5.10432
5.14577
5.18091
5.2094
5.23093
5.24529
5.25242
5.25234
5.2452
5.23126
5.21084
5.18437
5.15234
5.11527
5.07374
5.02833
4.97966
4.9283
4.87485
4.81987
4.7639
4.70743
4.65094
4.59485
4.53955
4.4854
4.43266
4.3815
4.33217
4.28484
4.23965
4.19665
4.15586
4.11725
4.08075
4.04628
4.01372
3.98291
3.95369
3.92588
3.89928
3.87371
3.84895
3.82481
3.80107
3.77756
3.75407
3.73044
3.7065
3.68208
3.65704
3.63126
3.60463
3.57703
3.54827
3.51798
3.48622
3.45306
3.41854
3.38268
3.34551
3.30704
3.2673
3.22633
3.18416
3.14085
3.09645
3.05105
3.00469
2.95748
2.9095
2.86084
2.81159
2.76187
2.71177
2.6614
2.61086
2.56026
2.5097
2.45926
2.40904
2.35914
2.3096
2.26048
2.21183
2.16372
2.1162
2.06934
2.0232
1.97784
1.93331
1.88967
1.84695
1.80519
1.76443
1.72468
1.68598
1.64833
1.61174
1.57622
1.54176
1.50836
1.476
1.44465
1.41429
1.38489
1.35641
1.32882
1.30206
1.2761
1.25089
1.22639
1.20254
1.1793
1.15664
1.1345
1.11285
1.09166
1.07088
1.05051
1.0305
1.01084
0.991525
0.972549
0.95394
0.935915
0.920022
0.153944
0.224495
0.278165
0.322913
0.365324
0.407786
0.451277
0.496199
0.542699
0.590808
0.640511
0.691775
0.744568
0.798863
0.854636
0.911869
0.970546
1.03065
1.09218
1.15511
1.21945
1.28517
1.35229
1.42077
1.49062
1.56182
1.63434
1.70816
1.78322
1.85949
1.9369
2.01536
2.09482
2.17516
2.2563
2.33814
2.42056
2.50346
2.58673
2.67027
2.75399
2.83778
2.92158
3.00531
3.08892
3.17237
3.25561
3.33862
3.42137
3.50383
3.58601
3.6679
3.74919
3.82992
3.91014
3.98992
4.06933
4.14842
4.22726
4.30589
4.38433
4.46253
4.54041
4.6179
4.69486
4.7711
4.84638
4.92019
4.99216
5.06184
5.1288
5.1921
5.25123
5.30559
5.35453
5.39747
5.43394
5.46351
5.48588
5.50087
5.50841
5.50855
5.50147
5.48743
5.46681
5.44005
5.40768
5.37024
5.32832
5.28255
5.23351
5.18182
5.12806
5.07279
5.01654
4.9598
4.90304
4.84665
4.791
4.7364
4.68306
4.63128
4.58127
4.53314
4.48699
4.44283
4.40066
4.36041
4.322
4.28532
4.25022
4.21654
4.18411
4.15274
4.12222
4.09237
4.06299
4.03386
4.00481
3.97565
3.9462
3.9163
3.88579
3.85452
3.82239
3.78927
3.75504
3.71937
3.68213
3.64342
3.6033
3.56178
3.51891
3.4747
3.42919
3.38241
3.33443
3.28528
3.23505
3.1838
3.13162
3.0786
3.02483
2.97042
2.91548
2.86011
2.80443
2.74856
2.6926
2.63666
2.58087
2.52531
2.4701
2.41533
2.36107
2.3074
2.25439
2.20208
2.15055
2.09984
2.05002
2.00115
1.95328
1.90648
1.86077
1.81621
1.77282
1.73064
1.68968
1.64997
1.61151
1.57432
1.53838
1.5037
1.47025
1.43801
1.40696
1.37706
1.34827
1.32054
1.29384
1.26809
1.24325
1.21926
1.19607
1.1736
1.15181
1.13064
1.11003
1.08993
1.0703
1.05108
1.03225
1.01377
0.995606
0.977744
0.960177
0.942921
0.926169
0.911295
0.153478
0.227064
0.283114
0.329134
0.372258
0.415158
0.458936
0.504061
0.550732
0.59902
0.648947
0.700508
0.753696
0.808497
0.864904
0.922906
0.982497
1.04367
1.10642
1.17074
1.23664
1.30409
1.37312
1.44369
1.51582
1.58947
1.66463
1.74127
1.81934
1.89879
1.97953
2.06149
2.14457
2.22867
2.31368
2.39946
2.48591
2.57288
2.66025
2.74789
2.83568
2.9235
3.01124
3.09883
3.18618
3.27322
3.35991
3.44618
3.53201
3.61735
3.70219
3.78645
3.86982
3.95236
4.03416
4.11529
4.19586
4.27596
4.35571
4.43519
4.51452
4.59368
4.67266
4.75146
4.83005
4.90836
4.98629
5.06322
5.13888
5.21287
5.28469
5.35362
5.41903
5.48026
5.5366
5.58738
5.632
5.66992
5.70072
5.72407
5.73979
5.74784
5.74827
5.74131
5.72724
5.70647
5.67948
5.64682
5.60906
5.56681
5.52069
5.47132
5.41931
5.36523
5.30965
5.25307
5.19597
5.1388
5.08194
5.02569
4.97037
4.91628
4.86366
4.81265
4.76335
4.7158
4.67
4.6259
4.58342
4.54246
4.50288
4.46452
4.42723
4.3908
4.35507
4.31982
4.28487
4.25002
4.21509
4.1799
4.14427
4.10805
4.07107
4.03322
3.99437
3.95441
3.91315
3.87028
3.82587
3.77999
3.73269
3.68399
3.63393
3.58255
3.5299
3.47602
3.42098
3.36484
3.3077
3.24965
3.19077
3.13119
3.07099
3.01032
2.94927
2.88798
2.82656
2.76514
2.70384
2.64277
2.58205
2.52179
2.46209
2.40304
2.34474
2.28725
2.23065
2.17499
2.12033
2.06673
2.01426
1.96296
1.91288
1.86408
1.81659
1.77046
1.72571
1.68236
1.64044
1.59996
1.56092
1.52334
1.48719
1.45248
1.41917
1.38724
1.35666
1.32739
1.29938
1.27257
1.24691
1.22234
1.19879
1.17619
1.15447
1.13357
1.1134
1.09391
1.07502
1.05668
1.03881
1.02137
1.00431
0.987576
0.971134
0.954956
0.939029
0.923356
0.908097
0.894438
0.152854
0.229147
0.286738
0.333526
0.377097
0.420226
0.464089
0.509213
0.555844
0.604098
0.654027
0.705658
0.759005
0.814078
0.870881
0.929419
0.989696
1.05172
1.11548
1.181
1.24828
1.31732
1.38811
1.46065
1.53495
1.61098
1.68872
1.76813
1.84918
1.93179
2.01588
2.10134
2.18808
2.27597
2.36488
2.45466
2.54518
2.63627
2.72779
2.81959
2.91149
3.00335
3.09504
3.18646
3.27749
3.36806
3.45808
3.54748
3.63619
3.72418
3.8114
3.89762
3.98264
4.06651
4.14933
4.2312
4.31225
4.39259
4.47239
4.5518
4.63104
4.71012
4.78906
4.868
4.94701
5.02608
5.10513
5.18387
5.26203
5.33925
5.41504
5.48879
5.55983
5.62744
5.69085
5.74929
5.80204
5.84843
5.88789
5.91995
5.94431
5.96077
5.9693
5.97002
5.96314
5.94902
5.92808
5.90084
5.86787
5.82977
5.78716
5.74068
5.69094
5.63855
5.58409
5.52809
5.47106
5.41345
5.35566
5.29805
5.24097
5.18476
5.12968
5.07589
5.02352
4.97261
4.92318
4.87519
4.82857
4.78323
4.73905
4.69587
4.65354
4.61188
4.57071
4.52985
4.4891
4.44828
4.40722
4.36574
4.32367
4.28086
4.23716
4.19247
4.14666
4.09961
4.05104
4.00086
3.94916
3.89601
3.84145
3.78551
3.72824
3.66968
3.6099
3.54896
3.48693
3.42392
3.36001
3.2953
3.22992
3.16398
3.0976
3.0309
2.96402
2.89708
2.83023
2.76357
2.69725
2.63137
2.56607
2.50144
2.43759
2.37463
2.31263
2.25167
2.19183
2.13315
2.07571
2.01956
1.96474
1.91132
1.85934
1.80884
1.75985
1.71241
1.66655
1.62229
1.57963
1.53859
1.49918
1.46139
1.4252
1.39061
1.35759
1.32611
1.29612
1.26759
1.24046
1.21466
1.19015
1.16684
1.14466
1.12354
1.10339
1.08413
1.06569
1.04799
1.03093
1.01446
0.998495
0.982966
0.967813
0.95298
0.938419
0.92409
0.909969
0.896049
0.882456
0.87017
0.153389
0.230442
0.289022
0.336301
0.380105
0.423281
0.467056
0.512007
0.558425
0.606464
0.656212
0.707726
0.761045
0.8162
0.873215
0.932109
0.992902
1.05561
1.12025
1.18685
1.2554
1.32592
1.39842
1.47288
1.54931
1.6277
1.70802
1.79024
1.8743
1.96013
2.04762
2.13665
2.22711
2.31886
2.41175
2.50561
2.60026
2.69554
2.79125
2.88725
2.98329
3.07919
3.1748
3.26999
3.36463
3.4586
3.55179
3.6441
3.73546
3.82579
3.91498
4.00271
4.08891
4.17358
4.25683
4.33878
4.41958
4.49937
4.57834
4.6567
4.73467
4.8124
4.89005
4.96783
5.04589
5.12435
5.20323
5.28243
5.36176
5.44097
5.51963
5.59717
5.67296
5.74623
5.81616
5.88188
5.94255
5.99736
6.04556
6.08656
6.11988
6.14518
6.16231
6.17126
6.17217
6.1653
6.15104
6.12986
6.1023
6.06895
6.03045
5.98742
5.9405
5.89031
5.83745
5.78248
5.72592
5.66825
5.60989
5.55122
5.49265
5.43456
5.37721
5.32081
5.26548
5.2113
5.1583
5.10644
5.05569
5.00594
4.9571
4.90903
4.86157
4.81457
4.76784
4.72123
4.67454
4.6276
4.58025
4.53231
4.48364
4.43408
4.38352
4.33184
4.27894
4.22463
4.16869
4.1112
4.05222
3.99181
3.93002
3.86689
3.80248
3.73685
3.67008
3.60223
3.53342
3.46373
3.39328
3.32219
3.25058
3.17858
3.10632
3.03394
2.96157
2.88936
2.81743
2.74592
2.67495
2.60466
2.53516
2.46656
2.39897
2.33248
2.26717
2.20313
2.14042
2.07911
2.01924
1.96087
1.90406
1.84885
1.79527
1.74336
1.69316
1.64469
1.59797
1.55302
1.50984
1.46845
1.42884
1.391
1.35492
1.32058
1.28795
1.257
1.22768
1.19995
1.17375
1.14901
1.12567
1.10364
1.08286
1.06323
1.04466
1.02708
1.01038
0.994485
0.9793
0.964738
0.950717
0.937157
0.923984
0.91113
0.898537
0.886154
0.873944
0.861887
0.850073
0.839279
0.158435
0.233003
0.290538
0.337719
0.381522
0.424581
0.468121
0.512756
0.558819
0.606503
0.655928
0.707183
0.760333
0.815435
0.872535
0.931669
0.992874
1.05619
1.12164
1.18925
1.25906
1.33107
1.40528
1.4817
1.56032
1.64114
1.72412
1.80923
1.89641
1.98559
2.0766
2.16932
2.26362
2.35934
2.45629
2.5543
2.65316
2.75266
2.8526
2.95283
3.05299
3.15288
3.25232
3.35116
3.44923
3.54639
3.6425
3.73743
3.83108
3.92333
4.01388
4.10252
4.18923
4.27405
4.35705
4.43836
4.51812
4.5965
4.67372
4.75001
4.82566
4.90092
4.97605
5.05136
5.12711
5.20356
5.28085
5.35907
5.43816
5.51797
5.59819
5.67834
5.7578
5.83581
5.91151
5.98395
6.05215
6.11515
6.17207
6.2221
6.26461
6.2991
6.32525
6.34294
6.35218
6.35315
6.34618
6.33167
6.31015
6.28217
6.24837
6.20937
6.16583
6.11837
6.06761
6.01414
5.95849
5.90117
5.84262
5.78324
5.7235
5.66379
5.60442
5.54561
5.48751
5.4302
5.37373
5.3181
5.26327
5.20916
5.15568
5.10271
5.05011
4.99773
4.94542
4.89299
4.8403
4.78718
4.73347
4.67902
4.62369
4.56733
4.50986
4.45116
4.39112
4.32953
4.26632
4.20161
4.13545
4.0679
3.99902
3.92887
3.85751
3.78502
3.71148
3.637
3.56167
3.48562
3.40895
3.33182
3.25434
3.17665
3.09891
3.02124
2.9438
2.86672
2.79015
2.71422
2.63905
2.56478
2.49153
2.41939
2.34848
2.27889
2.2107
2.14399
2.07882
2.01526
1.95335
1.89314
1.83468
1.77801
1.72316
1.67015
1.61902
1.56979
1.52246
1.47705
1.43356
1.392
1.35235
1.31461
1.27876
1.24477
1.21261
1.18226
1.15365
1.12675
1.10148
1.07779
1.0556
1.03483
1.01539
0.997208
0.980179
0.964211
0.949208
0.935074
0.921712
0.909026
0.896923
0.885314
0.874114
0.863245
0.852636
0.842225
0.831965
0.821818
0.811842
0.802613
0.159675
0.233647
0.29082
0.33789
0.381552
0.424358
0.46754
0.511747
0.557349
0.604574
0.65358
0.704483
0.757381
0.81236
0.869492
0.928827
0.990424
1.05434
1.12062
1.18931
1.26047
1.33407
1.41012
1.48863
1.56961
1.65302
1.73884
1.82703
1.91752
2.01028
2.10498
2.20155
2.29983
2.39963
2.50076
2.60299
2.70609
2.80982
2.91393
3.01819
3.12229
3.22598
3.32905
3.43128
3.53249
3.63248
3.7311
3.82819
3.92361
4.01713
4.10836
4.19728
4.28386
4.36813
4.45015
4.53004
4.60793
4.68402
4.75855
4.83179
4.90407
4.97574
5.04715
5.1187
5.1908
5.26383
5.33809
5.41383
5.49117
5.57011
5.65045
5.73185
5.81375
5.89542
5.97597
6.05438
6.12956
6.20041
6.26586
6.32492
6.37676
6.42071
6.45627
6.48315
6.50125
6.51064
6.51155
6.50433
6.48946
6.46748
6.43899
6.40462
6.36503
6.32085
6.27273
6.22125
6.16699
6.11047
6.05214
5.99244
5.93187
5.87087
5.80977
5.7488
5.68814
5.6279
5.56814
5.50888
5.4501
5.39173
5.3337
5.27591
5.21822
5.16052
5.10264
5.04445
4.98579
4.92651
4.86647
4.80553
4.74357
4.68047
4.61614
4.55049
4.48337
4.41463
4.34434
4.2726
4.19946
4.125
4.04927
3.97235
3.89432
3.81527
3.7353
3.65452
3.57304
3.49099
3.40852
3.32574
3.24282
3.1599
3.07712
2.99463
2.91258
2.83111
2.75037
2.67049
2.5916
2.51382
2.43728
2.36207
2.28831
2.21607
2.14544
2.0765
2.00929
1.94389
1.88033
1.81866
1.75892
1.70114
1.64533
1.59154
1.53977
1.49004
1.44235
1.3967
1.35311
1.31155
1.27203
1.23452
1.19901
1.16546
1.13384
1.10412
1.07625
1.05017
1.02582
1.00313
0.982029
0.962438
0.94427
0.927433
0.911833
0.897372
0.883951
0.871466
0.859817
0.848902
0.838619
0.828873
0.819569
0.810618
0.801941
0.793463
0.785124
0.776872
0.768733
0.761093
0.159772
0.233167
0.290083
0.336977
0.380378
0.422821
0.465551
0.509249
0.55432
0.60103
0.649577
0.700099
0.752732
0.807596
0.864805
0.924404
0.986481
1.05111
1.11838
1.18833
1.26105
1.33651
1.41466
1.49555
1.57917
1.66548
1.75444
1.84597
1.94001
2.03642
2.13499
2.23557
2.33795
2.44193
2.54727
2.65373
2.76102
2.86887
2.977
3.08513
3.19294
3.30014
3.40647
3.51168
3.61555
3.71785
3.81839
3.91699
4.01344
4.10731
4.1985
4.28695
4.37263
4.45556
4.53578
4.6134
4.68856
4.76146
4.83236
4.90156
4.96945
5.03644
5.10297
5.16955
5.2367
5.30493
5.37473
5.44651
5.52058
5.5971
5.67608
5.75727
5.84026
5.92435
6.00868
6.09217
6.17365
6.25185
6.32554
6.39354
6.45478
6.50839
6.55368
6.59019
6.61765
6.63602
6.64542
6.64613
6.63855
6.6232
6.60065
6.57153
6.53649
6.49618
6.45124
6.4023
6.34993
6.29467
6.23702
6.17742
6.11643
6.0545
5.99199
5.92917
5.86623
5.80331
5.74048
5.67779
5.61524
5.55278
5.49035
5.42787
5.36523
5.30232
5.239
5.17515
5.11063
5.04531
4.97906
4.91176
4.8433
4.77359
4.70256
4.6301
4.55607
4.48046
4.40336
4.32487
4.24504
4.16397
4.08172
3.99838
3.91404
3.82881
3.7428
3.65613
3.56893
3.48135
3.39351
3.30558
3.2177
3.13002
3.0427
2.95589
2.86974
2.78439
2.69999
2.61666
2.53455
2.45377
2.37444
2.29665
2.22051
2.14609
2.07349
2.00275
1.93394
1.86712
1.80231
1.73956
1.6789
1.62035
1.56393
1.50966
1.45753
1.40757
1.35976
1.31411
1.27061
1.22924
1.18999
1.15284
1.11777
1.08474
1.05372
1.02467
0.997535
0.97226
0.948785
0.927041
0.906953
0.888442
0.871422
0.855802
0.841487
0.828379
0.816377
0.805378
0.795276
0.785967
0.777346
0.769309
0.761757
0.754593
0.747727
0.741076
0.734566
0.728133
0.721771
0.715695
0.159616
0.232036
0.288552
0.335141
0.37817
0.420162
0.462377
0.505525
0.550046
0.596244
0.644367
0.694563
0.74701
0.801877
0.859352
0.919414
0.982212
1.04785
1.11641
1.18796
1.26256
1.3402
1.42086
1.50454
1.5912
1.68081
1.77328
1.86853
1.96642
2.0668
2.16946
2.2742
2.38079
2.48899
2.59852
2.7091
2.82042
2.93217
3.04402
3.15566
3.26674
3.37694
3.48596
3.59352
3.69933
3.80316
3.90478
4.00396
4.1003
4.19364
4.28389
4.37098
4.45486
4.53554
4.61306
4.68749
4.75899
4.82776
4.89407
4.95827
5.02076
5.08202
5.14258
5.20303
5.26401
5.32617
5.39015
5.45655
5.52586
5.59846
5.67454
5.75404
5.83668
5.92188
6.0088
6.09638
6.18334
6.26831
6.34986
6.42659
6.49723
6.56066
6.61598
6.66253
6.69986
6.72777
6.74627
6.75554
6.75592
6.74786
6.73192
6.7087
6.67885
6.64301
6.60186
6.55601
6.50607
6.45261
6.39612
6.33709
6.2761
6.21365
6.15011
6.08578
6.02088
5.95558
5.88997
5.82411
5.75803
5.6917
5.6251
5.55814
5.49074
5.42282
5.35425
5.28493
5.21473
5.14356
5.0713
4.99785
4.92311
4.84702
4.76952
4.6905
4.60987
4.52772
4.44416
4.35927
4.27313
4.18582
4.09745
4.0081
3.91789
3.82692
3.73534
3.64326
3.55083
3.4582
3.36552
3.27294
3.18063
3.08873
2.9974
2.9068
2.81708
2.72838
2.64085
2.55461
2.4698
2.38653
2.30491
2.22503
2.147
2.07088
1.99676
1.92468
1.8547
1.78687
1.72122
1.65777
1.59655
1.53758
1.48086
1.4264
1.37421
1.32428
1.2766
1.23115
1.18794
1.14693
1.10812
1.07146
1.03693
1.00451
0.974137
0.945781
0.919387
0.8949
0.872256
0.851388
0.832223
0.814679
0.798675
0.78412
0.770923
0.758986
0.748211
0.738494
0.729733
0.72182
0.714651
0.708119
0.702121
0.696554
0.691321
0.686331
0.6815
0.67675
0.672047
0.66746
0.159242
0.230523
0.286371
0.332515
0.375081
0.416567
0.458248
0.50086
0.54488
0.590644
0.6385
0.688545
0.741024
0.796148
0.854101
0.914977
0.978915
1.04603
1.11642
1.19014
1.26723
1.34769
1.43148
1.51857