/*--------------------------------*- C++ -*----------------------------------*\
  =========                 |
  \\      /  F ield         | OpenFOAM: The Open Source CFD Toolbox
   \\    /   O peration     | Website:  https://openfoam.org
    \\  /    A nd           | Version:  7
     \\/     M anipulation  |
\*---------------------------------------------------------------------------*/
FoamFile
{
    version     2.0;
    format      ascii;
    class       volScalarField;
    location    "450";
    object      nut;
}
// * * * * * * * * * * * * * * * * * * * * * * * * * * * * * * * * * * * * * //

dimensions      [0 2 -1 0 0 0 0];

internalField   nonuniform List<scalar> 
16900
(
5.32602e-05
0.000102345
0.000134705
0.00016012
0.000175651
0.000176569
3.60911e-05
3.8125e-05
4.07676e-05
4.46057e-05
4.75309e-05
5.00702e-05
5.24318e-05
5.47268e-05
5.69571e-05
5.91269e-05
6.12431e-05
6.33101e-05
6.53353e-05
6.73212e-05
6.92747e-05
7.11968e-05
7.30933e-05
7.49646e-05
7.68151e-05
7.86449e-05
8.04566e-05
8.22513e-05
8.40302e-05
8.5794e-05
8.75434e-05
8.92789e-05
9.10009e-05
9.27096e-05
9.44052e-05
9.60877e-05
9.7757e-05
9.9413e-05
0.000101055
0.000102684
0.000104298
0.000105897
0.00010748
0.000109047
0.000110596
0.000112127
0.000113637
0.000115128
0.000116596
0.000118041
0.000119463
0.000120861
0.000122238
0.000123597
0.000124946
0.000126306
0.000127623
0.000128895
0.000130119
0.00013129
0.000132404
0.000133455
0.000134439
0.00013535
0.000136182
0.000136931
0.000137591
0.000138156
0.000138621
0.000138982
0.000139233
0.000139373
0.000139397
0.000139303
0.000139089
0.000138757
0.000138306
0.000137737
0.000137054
0.000136261
0.000135362
0.000134362
0.00013327
0.00013209
0.000130832
0.000129504
0.000128115
0.000126674
0.000125189
0.000123671
0.000122127
0.000120568
0.000119002
0.000117438
0.000115883
0.000114346
0.000112837
0.000111355
0.000109913
0.00010851
0.000107
0.000105878
0.000104819
0.000103833
0.000102926
0.000102106
0.000101378
0.000100746
0.000100211
9.97727e-05
9.94302e-05
9.91804e-05
9.90185e-05
9.89383e-05
9.89324e-05
9.89928e-05
9.91108e-05
9.92775e-05
9.94839e-05
9.97215e-05
9.99819e-05
0.000100258
0.000100541
0.000100827
0.000101108
0.000101379
0.000101637
0.000101876
0.000102093
0.000102285
0.000102446
0.000102568
0.000102629
0.000102773
0.000102875
0.000102939
0.000102966
0.000102956
0.000102911
0.00010283
0.000102712
0.000102558
0.000102367
0.000102139
0.000101878
0.000101582
0.000101248
0.000100877
0.000100473
0.000100039
9.95623e-05
9.90366e-05
9.84882e-05
9.79104e-05
9.73447e-05
9.6625e-05
9.63644e-05
9.62166e-05
9.60796e-05
9.59383e-05
9.57891e-05
9.56303e-05
9.54609e-05
9.52805e-05
9.50889e-05
9.4886e-05
9.46716e-05
9.44458e-05
9.42087e-05
9.39603e-05
9.37005e-05
9.34294e-05
9.3147e-05
9.28532e-05
9.25481e-05
9.22315e-05
9.19035e-05
9.15639e-05
9.12129e-05
9.08504e-05
9.04766e-05
9.00916e-05
8.96957e-05
8.92894e-05
8.88729e-05
8.84469e-05
8.8012e-05
8.75689e-05
8.71185e-05
8.66617e-05
8.61995e-05
8.5733e-05
8.52636e-05
8.47923e-05
8.43209e-05
8.38509e-05
8.33846e-05
8.29255e-05
8.24811e-05
8.21005e-05
7.92883e-05
0.000174414
0.000225963
0.000253919
0.000261237
0.000240909
0.00018868
0.000197213
0.000213101
0.000233012
0.000259096
0.000278234
0.000295256
0.000312092
0.000328779
0.000345242
0.000361444
0.00037738
0.000393062
0.000408508
0.000423745
0.000438796
0.00045369
0.000468453
0.000483113
0.000497693
0.000512218
0.00052671
0.00054119
0.000555679
0.000570196
0.000584759
0.000599385
0.000614094
0.000628902
0.000643828
0.000658888
0.000674102
0.000689485
0.000705055
0.000720829
0.000736822
0.000753046
0.000769514
0.000786232
0.000803204
0.000820429
0.000837896
0.000855587
0.000873472
0.000891506
0.000909622
0.000927729
0.000945699
0.000963365
0.000980129
0.000996827
0.00101353
0.00103022
0.00104684
0.00106335
0.00107967
0.00109574
0.00111149
0.00112683
0.00114166
0.00115591
0.00116948
0.00118227
0.0011942
0.00120516
0.00121509
0.00122389
0.00123151
0.0012379
0.001243
0.0012468
0.00124927
0.00125042
0.00125027
0.00124885
0.00124619
0.00124237
0.00123744
0.00123149
0.00122459
0.00121683
0.00120831
0.00119912
0.00118936
0.0011791
0.00116845
0.00115749
0.0011463
0.00113495
0.00112351
0.00111205
0.00110059
0.00108915
0.00107766
0.00106564
0.00105127
0.0010368
0.00102273
0.00100923
0.000996379
0.000984245
0.000972872
0.000962304
0.00095257
0.000943688
0.000935671
0.00092852
0.000922225
0.000916762
0.000912101
0.000908202
0.000905022
0.000902509
0.00090061
0.000899272
0.000898438
0.000898053
0.000898061
0.000898408
0.000899044
0.00089992
0.000900989
0.000902193
0.000903458
0.000904687
0.000905726
0.00090637
0.000905401
0.00090422
0.00090298
0.000901689
0.000900337
0.00089891
0.000897407
0.000895823
0.000894143
0.000892347
0.000890422
0.000888377
0.000886218
0.000883913
0.000881417
0.000878757
0.000875998
0.000873097
0.000869906
0.000866409
0.000862609
0.000858272
0.000852034
0.000844083
0.000835394
0.000826321
0.000816989
0.000807451
0.000797735
0.000787856
0.000777828
0.000767662
0.000757369
0.000746958
0.00073644
0.000725824
0.000715119
0.000704336
0.000693482
0.000682568
0.000671602
0.000660593
0.00064955
0.000638483
0.000627402
0.000616317
0.000605239
0.00059418
0.000583151
0.000572166
0.000561238
0.000550381
0.000539609
0.000528938
0.000518381
0.000507953
0.000497669
0.000487542
0.000477587
0.000467815
0.000458238
0.000448868
0.000439716
0.000430792
0.000422112
0.000413757
0.000406284
0.000104588
0.000230366
0.000302238
0.000342324
0.000364199
0.000372528
0.000374232
0.000395333
0.000422917
0.000454042
0.000488478
0.000523055
0.000557081
0.000590668
0.000623798
0.000656435
0.000688569
0.000720212
0.00075139
0.000782142
0.000812512
0.000842547
0.000872297
0.00090181
0.000931133
0.000960312
0.000989388
0.0010184
0.00104739
0.00107638
0.00110542
0.00113452
0.00116372
0.00119305
0.00122253
0.00125218
0.00128204
0.00131212
0.00134245
0.00137305
0.00140395
0.00143515
0.00146668
0.00149855
0.00153075
0.00156329
0.00159616
0.00162932
0.00166276
0.00169641
0.00173021
0.00176408
0.00179793
0.00183162
0.00186461
0.00189709
0.0019295
0.00196191
0.00199426
0.00202647
0.00205844
0.00209006
0.00212119
0.00215169
0.00218139
0.00221014
0.00223775
0.00226404
0.00228884
0.00231196
0.00233322
0.00235246
0.00236953
0.0023843
0.00239666
0.00240652
0.00241383
0.00241856
0.00242072
0.00242032
0.00241744
0.00241217
0.0024046
0.00239488
0.00238315
0.00236958
0.00235433
0.00233759
0.00231952
0.00230032
0.00228016
0.00225919
0.00223758
0.00221548
0.00219302
0.00217029
0.00214741
0.00212441
0.00210128
0.00207788
0.00205369
0.00202795
0.00200229
0.00197735
0.00195337
0.00193049
0.00190882
0.00188841
0.00186934
0.00185164
0.0018353
0.00182035
0.00180677
0.00179451
0.00178353
0.00177376
0.00176513
0.00175754
0.0017509
0.00174512
0.00174009
0.00173571
0.00173187
0.00172849
0.00172546
0.00172268
0.00172007
0.00171754
0.00171498
0.00171229
0.00170933
0.00170597
0.00170097
0.001695
0.00168869
0.00168217
0.00167546
0.00166853
0.00166137
0.00165396
0.00164633
0.00163844
0.00163029
0.00162184
0.00161309
0.00160409
0.00159482
0.00158518
0.00157522
0.00156505
0.00155463
0.00154387
0.00153273
0.00152114
0.00150889
0.00149533
0.00148041
0.00146466
0.00144841
0.00143183
0.00141499
0.00139796
0.00138075
0.0013634
0.00134592
0.00132832
0.00131062
0.00129284
0.00127499
0.00125707
0.0012391
0.00122108
0.00120303
0.00118496
0.00116688
0.00114879
0.0011307
0.00111262
0.00109457
0.00107655
0.00105857
0.00104065
0.0010228
0.00100504
0.000987385
0.000969848
0.000952452
0.000935214
0.000918156
0.000901296
0.000884656
0.000868256
0.000852115
0.000836253
0.000820688
0.000805439
0.000790526
0.000775983
0.000762001
0.00074995
0.000127766
0.000278193
0.000370217
0.000425819
0.000464121
0.000494213
0.000523194
0.000558977
0.000599549
0.00064362
0.000690377
0.000738247
0.000786028
0.000833297
0.000879917
0.000925844
0.000971076
0.00101564
0.00105956
0.00110291
0.00114573
0.00118808
0.00123004
0.00127166
0.001313
0.00135411
0.00139506
0.00143588
0.00147662
0.00151732
0.00155802
0.00159875
0.00163954
0.00168041
0.0017214
0.00176252
0.00180379
0.00184525
0.00188691
0.00192879
0.0019709
0.00201326
0.00205589
0.00209877
0.00214193
0.00218534
0.00222899
0.00227286
0.00231691
0.00236109
0.00240535
0.0024496
0.00249378
0.0025378
0.00258112
0.00262418
0.00266718
0.00271014
0.002753
0.00279566
0.002838
0.00287988
0.00292113
0.00296157
0.00300101
0.00303923
0.00307601
0.0031111
0.00314427
0.00317527
0.00320388
0.00322988
0.00325305
0.00327321
0.00329022
0.00330395
0.0033143
0.00332125
0.00332477
0.00332491
0.00332173
0.00331534
0.00330587
0.00329351
0.00327842
0.00326084
0.00324097
0.00321906
0.00319532
0.00317
0.00314333
0.0031155
0.00308673
0.00305721
0.00302711
0.00299656
0.00296566
0.00293449
0.00290305
0.00287129
0.00283884
0.00280579
0.00277314
0.0027414
0.00271082
0.00268155
0.00265367
0.00262724
0.00260236
0.00257903
0.00255727
0.00253704
0.00251834
0.00250108
0.00248521
0.00247062
0.00245721
0.00244487
0.00243349
0.00242293
0.00241308
0.0024038
0.00239498
0.0023865
0.00237823
0.00237007
0.00236191
0.00235365
0.00234517
0.00233637
0.00232714
0.0023168
0.00230524
0.00229299
0.00228035
0.00226742
0.0022542
0.00224068
0.00222684
0.00221265
0.00219814
0.00218332
0.00216818
0.00215267
0.00213673
0.00212054
0.00210405
0.00208722
0.00207008
0.0020527
0.00203506
0.00201712
0.00199885
0.00198019
0.00196101
0.00194102
0.00192019
0.00189875
0.0018769
0.00185478
0.00183248
0.00181005
0.00178753
0.00176495
0.00174233
0.00171969
0.00169705
0.00167441
0.0016518
0.00162923
0.0016067
0.00158422
0.00156181
0.00153947
0.0015172
0.00149501
0.00147292
0.00145091
0.00142901
0.00140721
0.00138552
0.00136395
0.00134251
0.00132121
0.00130006
0.00127908
0.00125828
0.00123768
0.00121729
0.00119712
0.00117721
0.00115757
0.00113822
0.00111917
0.00110045
0.00108207
0.00106405
0.00104645
0.00102955
0.00101532
0.000148795
0.000320127
0.000431568
0.000503251
0.000556732
0.000603301
0.000649455
0.000699041
0.000752176
0.000808159
0.000866121
0.000924933
0.000983645
0.00104178
0.00109915
0.00115568
0.00121137
0.00126623
0.00132032
0.00137369
0.0014264
0.00147852
0.00153013
0.00158129
0.00163206
0.00168251
0.00173269
0.00178266
0.00183246
0.00188212
0.00193169
0.00198119
0.00203065
0.00208009
0.00212954
0.002179
0.00222849
0.00227804
0.00232764
0.00237733
0.00242709
0.00247695
0.00252691
0.00257697
0.00262714
0.00267739
0.00272774
0.00277815
0.0028286
0.00287905
0.00292947
0.0029798
0.00302998
0.00307992
0.00312934
0.00317858
0.00322779
0.00327695
0.00332603
0.00337492
0.00342352
0.00347167
0.00351921
0.00356595
0.00361168
0.00365616
0.00369913
0.00374033
0.00377949
0.00381633
0.00385055
0.00388191
0.00391014
0.00393502
0.00395634
0.00397394
0.0039877
0.00399755
0.00400344
0.0040054
0.00400349
0.00399781
0.00398851
0.00397577
0.00395981
0.00394085
0.00391914
0.00389496
0.00386855
0.00384019
0.00381015
0.00377867
0.00374598
0.00371229
0.0036778
0.00364267
0.00360702
0.00357095
0.00353453
0.00349781
0.00346048
0.00342312
0.00338633
0.0033505
0.00331586
0.00328254
0.00325063
0.00322018
0.00319124
0.00316383
0.00313791
0.00311346
0.00309046
0.00306884
0.00304848
0.0030293
0.00301117
0.00299398
0.0029776
0.00296189
0.00294674
0.002932
0.00291756
0.00290328
0.00288905
0.00287477
0.00286032
0.0028456
0.00283051
0.00281494
0.00279868
0.0027812
0.00276289
0.00274401
0.00272474
0.00270514
0.00268521
0.00266496
0.00264435
0.00262332
0.00260195
0.00258028
0.00255829
0.00253596
0.00251329
0.00249035
0.00246715
0.00244368
0.00241997
0.00239605
0.00237193
0.00234761
0.00232307
0.00229828
0.00227317
0.00224762
0.00222161
0.00219524
0.00216864
0.00214191
0.00211512
0.00208833
0.00206158
0.00203489
0.0020083
0.00198182
0.00195548
0.00192928
0.00190324
0.00187737
0.00185169
0.0018262
0.0018009
0.00177581
0.00175092
0.00172623
0.00170176
0.00167749
0.00165343
0.00162957
0.00160593
0.00158249
0.00155927
0.00153626
0.00151347
0.0014909
0.00146857
0.00144647
0.00142462
0.00140304
0.00138172
0.00136069
0.00133996
0.00131955
0.00129946
0.00127972
0.00126034
0.00124138
0.0012232
0.00120816
0.00016735
0.000356003
0.000486077
0.000574032
0.000641915
0.000702216
0.000761435
0.000822597
0.000886287
0.000952078
0.00101922
0.00108684
0.00115423
0.00122096
0.00128682
0.00135172
0.00141565
0.00147862
0.00154069
0.0016019
0.00166233
0.00172205
0.00178112
0.00183963
0.00189763
0.0019552
0.00201238
0.00206922
0.00212578
0.00218207
0.00223815
0.00229402
0.00234971
0.00240523
0.0024606
0.00251582
0.0025709
0.00262584
0.00268065
0.00273534
0.00278992
0.00284437
0.00289872
0.00295296
0.00300709
0.00306112
0.00311504
0.00316885
0.00322254
0.00327609
0.00332949
0.00338271
0.00343572
0.0034884
0.00354072
0.00359297
0.00364524
0.00369754
0.00374984
0.00380209
0.00385417
0.00390598
0.00395734
0.00400809
0.00405801
0.00410686
0.00415438
0.00420029
0.00424429
0.00428605
0.00432528
0.00436163
0.00439483
0.00442457
0.00445062
0.00447275
0.00449079
0.00450462
0.00451417
0.00451941
0.00452039
0.00451719
0.00450996
0.00449886
0.0044841
0.00446595
0.00444464
0.00442048
0.00439374
0.00436473
0.00433372
0.00430099
0.00426679
0.00423134
0.00419486
0.00415754
0.00411952
0.00408093
0.00404187
0.00400244
0.00396254
0.00392279
0.00388362
0.00384535
0.00380814
0.00377214
0.00373741
0.00370401
0.00367197
0.00364128
0.00361193
0.00358388
0.00355707
0.00353142
0.00350683
0.0034832
0.00346041
0.00343834
0.00341688
0.00339589
0.00337526
0.00335485
0.00333455
0.00331424
0.00329382
0.00327317
0.00325221
0.00323085
0.00320899
0.00318656
0.00316307
0.00313871
0.0031137
0.00308816
0.00306225
0.003036
0.00300942
0.00298251
0.00295526
0.00292766
0.00289973
0.00287153
0.00284304
0.00281429
0.00278527
0.00275603
0.00272661
0.002697
0.00266725
0.00263739
0.00260743
0.00257739
0.00254726
0.00251706
0.00248675
0.00245627
0.00242563
0.00239486
0.00236406
0.0023333
0.00230264
0.00227214
0.00224182
0.00221174
0.0021819
0.00215233
0.00212306
0.00209409
0.00206545
0.00203714
0.00200917
0.00198155
0.00195429
0.00192738
0.00190083
0.00187463
0.00184878
0.00182327
0.0017981
0.00177326
0.00174874
0.00172454
0.00170065
0.00167706
0.00165377
0.00163076
0.00160805
0.00158563
0.00156349
0.00154164
0.00152009
0.00149883
0.00147788
0.00145724
0.00143692
0.00141692
0.00139728
0.00137805
0.00135963
0.00134459
0.000182547
0.000382692
0.000531913
0.000636866
0.000718799
0.000791289
0.000861327
0.000932036
0.0010043
0.00107795
0.00115241
0.00122701
0.00130121
0.00137463
0.00144707
0.00151845
0.00158873
0.00165794
0.00172611
0.0017933
0.00185959
0.00192503
0.0019897
0.00205368
0.00211703
0.00217981
0.00224208
0.00230389
0.00236527
0.00242625
0.00248687
0.00254712
0.00260704
0.00266661
0.00272585
0.00278476
0.00284332
0.00290155
0.00295943
0.00301696
0.00307415
0.003131
0.0031875
0.00324366
0.0032995
0.00335503
0.00341024
0.00346516
0.00351979
0.00357415
0.00362824
0.00368208
0.00373568
0.00378886
0.00384188
0.00389494
0.00394814
0.00400152
0.00405508
0.0041088
0.00416262
0.00421644
0.00427013
0.00432355
0.0043765
0.00442875
0.00448004
0.00453007
0.00457852
0.00462505
0.00466931
0.00471091
0.00474951
0.00478477
0.00481635
0.00484399
0.00486744
0.00488651
0.00490108
0.00491108
0.00491651
0.00491741
0.00491392
0.00490617
0.00489436
0.00487876
0.00485964
0.0048373
0.00481204
0.00478416
0.00475395
0.00472171
0.0046877
0.00465218
0.00461536
0.00457747
0.00453866
0.0044991
0.00445892
0.0044182
0.00437706
0.00433604
0.00429548
0.00425565
0.00421669
0.00417873
0.00414182
0.00410602
0.00407134
0.00403777
0.0040053
0.00397387
0.00394343
0.00391389
0.00388516
0.00385714
0.00382972
0.00380279
0.00377624
0.00374994
0.00372379
0.00369767
0.00367146
0.00364508
0.00361842
0.0035914
0.00356392
0.00353592
0.00350732
0.00347792
0.00344758
0.00341655
0.00338499
0.00335298
0.0033206
0.00328788
0.00325485
0.00322152
0.00318788
0.00315394
0.00311974
0.0030853
0.00305064
0.00301579
0.00298077
0.00294562
0.00291037
0.00287505
0.0028397
0.00280435
0.00276903
0.00273377
0.00269859
0.0026635
0.0026285
0.00259357
0.00255871
0.00252396
0.00248937
0.00245501
0.00242092
0.00238716
0.00235376
0.00232075
0.00228817
0.00225603
0.00222436
0.00219318
0.00216249
0.00213231
0.00210265
0.00207351
0.00204489
0.0020168
0.00198923
0.00196218
0.00193563
0.00190957
0.001884
0.00185889
0.00183423
0.00181
0.00178619
0.00176277
0.00173974
0.00171708
0.00169477
0.0016728
0.00165116
0.00162984
0.00160884
0.00158813
0.00156774
0.00154764
0.00152785
0.00150836
0.0014892
0.00147043
0.00145248
0.00143794
0.000190356
0.000384171
0.000564092
0.000690134
0.000786634
0.000870433
0.000949813
0.00102846
0.00110766
0.00118753
0.0012677
0.0013477
0.00142708
0.00150556
0.00158294
0.00165913
0.00173411
0.00180789
0.00188051
0.00195203
0.00202252
0.00209204
0.00216067
0.00222848
0.00229554
0.00236191
0.00242763
0.00249276
0.00255733
0.00262137
0.00268488
0.00274789
0.00281039
0.00287239
0.00293387
0.00299482
0.00305524
0.0031151
0.00317441
0.00323315
0.00329132
0.00334891
0.00340594
0.0034624
0.00351832
0.0035737
0.00362859
0.003683
0.00373697
0.00379053
0.00384373
0.00389659
0.00394917
0.00400142
0.00405365
0.00410607
0.00415878
0.00421189
0.00426542
0.00431941
0.00437384
0.00442867
0.0044838
0.00453912
0.00459447
0.00464964
0.00470436
0.00475836
0.00481128
0.00486276
0.00491239
0.00495976
0.00500444
0.00504603
0.00508411
0.00511832
0.00514836
0.00517394
0.00519485
0.00521101
0.00522232
0.00522875
0.00523041
0.00522747
0.00522009
0.00520853
0.00519305
0.00517396
0.00515154
0.00512613
0.00509802
0.00506752
0.00503491
0.00500046
0.00496443
0.00492703
0.00488846
0.0048489
0.00480849
0.00476735
0.0047257
0.00468401
0.00464259
0.00460165
0.00456134
0.00452176
0.00448296
0.00444499
0.00440787
0.00437158
0.00433609
0.00430137
0.00426736
0.00423397
0.00420112
0.00416873
0.00413668
0.00410489
0.00407325
0.00404164
0.00400998
0.00397816
0.0039461
0.00391369
0.00388086
0.00384754
0.00381365
0.00377914
0.00374392
0.00370778
0.0036709
0.00363346
0.00359555
0.00355724
0.00351858
0.00347961
0.00344034
0.00340081
0.00336102
0.00332099
0.00328077
0.00324037
0.00319983
0.00315919
0.00311848
0.00307774
0.00303701
0.00299633
0.00295574
0.00291529
0.00287501
0.00283494
0.00279511
0.00275554
0.00271625
0.00267724
0.00263851
0.00260011
0.00256206
0.00252443
0.00248726
0.00245059
0.00241446
0.0023789
0.00234395
0.00230963
0.00227595
0.00224294
0.00221061
0.00217897
0.00214804
0.0021178
0.00208827
0.00205944
0.00203131
0.00200386
0.00197708
0.00195096
0.00192547
0.00190058
0.00187629
0.00185255
0.00182934
0.00180664
0.00178441
0.00176264
0.00174128
0.00172032
0.00169974
0.0016795
0.0016596
0.00164001
0.00162073
0.00160173
0.00158302
0.0015646
0.00154646
0.00152868
0.00151168
0.00149798
3.92429e-05
0.000298416
0.000572955
0.000732719
0.000845195
0.000939743
0.00102736
0.00111265
0.00119742
0.00128211
0.0013666
0.00145058
0.00153371
0.00161577
0.00169659
0.00177609
0.00185426
0.00193111
0.00200668
0.00208103
0.00215422
0.00222634
0.00229745
0.00236763
0.00243695
0.00250546
0.00257322
0.00264026
0.00270662
0.00277233
0.00283738
0.00290179
0.00296556
0.00302866
0.00309109
0.00315282
0.00321383
0.00327411
0.00333363
0.00339238
0.00345035
0.00350753
0.00356393
0.00361956
0.00367443
0.00372858
0.00378204
0.00383485
0.00388708
0.00393879
0.00399003
0.00404088
0.0040914
0.00414174
0.00419222
0.00424303
0.00429434
0.00434628
0.00439894
0.0044524
0.00450671
0.00456188
0.00461787
0.0046746
0.00473196
0.00478978
0.00484781
0.00490576
0.00496327
0.00501998
0.00507542
0.00512911
0.00518056
0.00522931
0.00527481
0.00531661
0.00535435
0.00538763
0.00541609
0.00543958
0.00545798
0.00547123
0.00547938
0.00548253
0.00548084
0.00547454
0.00546389
0.00544917
0.00543068
0.00540876
0.00538372
0.00535588
0.00532554
0.005293
0.0052585
0.00522231
0.00518464
0.00514568
0.0051056
0.00506453
0.00502276
0.00498072
0.0049387
0.00489687
0.00485537
0.00481431
0.00477373
0.00473368
0.00469417
0.0046552
0.00461673
0.00457873
0.00454115
0.00450392
0.00446697
0.00443021
0.00439356
0.00435692
0.00432021
0.00428335
0.00424623
0.00420879
0.00417095
0.00413262
0.00409374
0.00405425
0.0040141
0.00397323
0.00393152
0.003889
0.00384587
0.00380224
0.00375819
0.00371377
0.00366904
0.00362402
0.00357875
0.00353325
0.00348755
0.00344169
0.0033957
0.00334961
0.00330348
0.00325734
0.00321123
0.00316521
0.00311932
0.0030736
0.00302811
0.00298289
0.002938
0.00289346
0.00284932
0.00280562
0.00276237
0.0027196
0.00267732
0.00263555
0.00259434
0.00255372
0.00251375
0.00247446
0.00243589
0.00239807
0.00236105
0.00232483
0.00228944
0.0022549
0.00222123
0.00218844
0.00215653
0.00212551
0.00209537
0.00206612
0.00203774
0.00201023
0.00198355
0.00195769
0.00193262
0.00190831
0.00188473
0.00186184
0.00183961
0.00181799
0.00179695
0.00177645
0.00175644
0.00173689
0.00171776
0.00169902
0.00168063
0.00166257
0.00164481
0.00162732
0.00161011
0.00159314
0.00157643
0.00156004
0.00154435
0.00153175
0.000194594
0.000357798
0.000598266
0.000769541
0.000895236
0.000999567
0.00109442
0.00118524
0.00127439
0.00136268
0.00145022
0.00153687
0.00162241
0.00170668
0.00178955
0.00187096
0.00195091
0.00202941
0.00210652
0.0021823
0.00225683
0.00233018
0.00240242
0.00247364
0.00254391
0.00261328
0.00268181
0.00274954
0.00281649
0.0028827
0.00294816
0.00301287
0.00307683
0.00314001
0.00320239
0.00326393
0.00332462
0.00338442
0.0034433
0.00350124
0.00355821
0.00361422
0.00366925
0.00372332
0.00377644
0.00382867
0.00388003
0.00393059
0.00398043
0.00402962
0.00407826
0.00412645
0.0041743
0.00422215
0.00427026
0.00431887
0.00436818
0.00441836
0.00446957
0.00452195
0.00457561
0.00463062
0.00468701
0.00474477
0.00480382
0.00486405
0.00492525
0.00498712
0.00504932
0.00511145
0.00517305
0.00523352
0.00529232
0.00534894
0.00540269
0.00545294
0.00549926
0.00554115
0.00557822
0.00561019
0.00563684
0.00565807
0.00567383
0.00568419
0.00568928
0.00568927
0.00568442
0.00567501
0.00566134
0.00564374
0.00562253
0.00559806
0.00557065
0.0055406
0.0055082
0.00547371
0.00543738
0.00539942
0.00536001
0.0053193
0.00527765
0.00523544
0.00519293
0.00515031
0.00510771
0.00506521
0.00502289
0.00498077
0.00493889
0.00489723
0.00485578
0.00481451
0.00477337
0.00473231
0.00469126
0.00465016
0.00460893
0.0045675
0.0045258
0.00448375
0.00444127
0.00439832
0.0043548
0.00431068
0.0042659
0.00422041
0.00417416
0.0041271
0.00407919
0.00403059
0.00398145
0.00393187
0.0038819
0.00383161
0.00378102
0.0037302
0.00367916
0.00362795
0.00357661
0.00352517
0.00347369
0.00342221
0.00337077
0.00331942
0.00326822
0.00321723
0.00316648
0.00311605
0.00306598
0.00301632
0.00296712
0.00291844
0.00287032
0.0028228
0.0027759
0.00272966
0.00268409
0.00263923
0.0025951
0.00255176
0.00250924
0.00246758
0.00242682
0.00238699
0.00234812
0.00231025
0.00227338
0.00223755
0.00220276
0.00216903
0.00213637
0.00210478
0.00207426
0.0020448
0.00201639
0.00198902
0.00196266
0.00193729
0.00191287
0.00188936
0.00186674
0.00184494
0.00182393
0.00180365
0.00178405
0.00176509
0.0017467
0.00172883
0.00171145
0.00169449
0.00167791
0.00166168
0.00164574
0.00163008
0.00161466
0.00159946
0.00158449
0.00156977
0.00155568
0.00154438
4.07717e-05
0.000298505
0.000601655
0.00079789
0.000937014
0.00105029
0.00115142
0.00124675
0.00133918
0.00142991
0.0015193
0.00160738
0.00169405
0.00177922
0.0018628
0.00194477
0.00202514
0.00210395
0.00218126
0.00225715
0.00233169
0.00240498
0.00247711
0.00254815
0.00261817
0.00268725
0.00275543
0.00282277
0.00288929
0.00295501
0.00301994
0.00308407
0.00314738
0.00320985
0.00327144
0.00333212
0.00339185
0.00345057
0.00350826
0.00356488
0.00362039
0.00367479
0.00372805
0.00378019
0.00383122
0.00388119
0.00393013
0.00397813
0.00402525
0.00407161
0.00411732
0.0041625
0.00420744
0.00425249
0.00429792
0.00434398
0.00439091
0.00443894
0.00448829
0.00453916
0.00459174
0.00464617
0.00470254
0.00476092
0.00482131
0.00488364
0.00494778
0.00501341
0.00508021
0.00514781
0.00521578
0.00528331
0.00534981
0.00541466
0.00547713
0.00553653
0.00559222
0.00564364
0.00569027
0.0057317
0.00576762
0.00579783
0.00582221
0.00584076
0.00585355
0.00586075
0.00586255
0.00585925
0.00585113
0.00583853
0.0058218
0.00580129
0.00577733
0.00575025
0.00572036
0.00568796
0.00565331
0.00561663
0.00557814
0.00553801
0.00549662
0.00545435
0.00541144
0.00536808
0.0053244
0.0052805
0.00523644
0.00519227
0.00514801
0.00510368
0.00505926
0.00501472
0.00497005
0.00492519
0.00488009
0.0048347
0.00478897
0.00474283
0.00469622
0.00464909
0.00460138
0.00455304
0.00450402
0.00445427
0.00440375
0.00435244
0.00430029
0.00424727
0.00419348
0.00413908
0.00408421
0.00402892
0.00397328
0.00391735
0.00386118
0.0038048
0.00374827
0.00369163
0.00363493
0.00357822
0.00352154
0.00346496
0.00340852
0.00335229
0.00329631
0.00324066
0.00318539
0.00313056
0.00307622
0.00302244
0.00296927
0.00291676
0.00286496
0.00281392
0.00276366
0.00271423
0.00266565
0.00261795
0.00257117
0.00252534
0.0024805
0.00243669
0.00239396
0.00235233
0.00231183
0.00227249
0.00223433
0.00219738
0.00216165
0.00212715
0.0020939
0.00206189
0.00203113
0.0020016
0.00197331
0.00194622
0.00192031
0.00189555
0.00187192
0.00184935
0.00182782
0.00180725
0.00178761
0.00176882
0.00175082
0.00173356
0.00171697
0.00170097
0.00168551
0.00167053
0.00165597
0.00164177
0.00162788
0.00161425
0.00160085
0.00158765
0.00157463
0.00156183
0.00154955
0.00153969
3.92728e-05
0.00028546
0.000606561
0.000820545
0.000971232
0.00109231
0.00119871
0.00129753
0.00139218
0.00148422
0.00157428
0.00166256
0.00174909
0.00183385
0.00191682
0.00199801
0.00207747
0.00215526
0.00223147
0.00230618
0.00237949
0.0024515
0.00252232
0.00259204
0.00266073
0.00272847
0.00279533
0.00286134
0.00292656
0.00299099
0.00305463
0.00311749
0.00317953
0.00324073
0.00330104
0.00336041
0.00341879
0.00347612
0.00353235
0.00358742
0.0036413
0.00369394
0.00374533
0.00379546
0.00384434
0.003892
0.0039385
0.00398389
0.00402828
0.00407176
0.00411449
0.00415661
0.00419863
0.00424082
0.00428345
0.00432681
0.00437117
0.0044168
0.004464
0.00451302
0.00456414
0.00461758
0.0046735
0.00473204
0.0047933
0.0048573
0.00492402
0.00499308
0.00506422
0.00513705
0.00521107
0.00528558
0.00535989
0.00543325
0.00550485
0.00557389
0.00563961
0.00570127
0.00575825
0.00580999
0.00585606
0.00589613
0.00593002
0.00595762
0.00597896
0.00599415
0.00600337
0.00600688
0.00600498
0.005998
0.0059863
0.00597025
0.0059502
0.00592651
0.00589951
0.00586951
0.00583681
0.00580166
0.00576429
0.0057249
0.00568391
0.00564167
0.00559844
0.0055544
0.00550968
0.00546441
0.00541864
0.00537245
0.00532585
0.00527887
0.0052315
0.00518375
0.00513559
0.005087
0.00503792
0.00498834
0.0049382
0.00488746
0.00483608
0.00478401
0.00473122
0.00467766
0.00462331
0.00456812
0.00451209
0.00445517
0.00439734
0.00433866
0.00427931
0.00421941
0.00415907
0.00409835
0.00403733
0.00397605
0.00391457
0.00385294
0.00379122
0.00372946
0.00366771
0.00360603
0.00354449
0.00348313
0.00342202
0.00336123
0.00330082
0.00324085
0.00318138
0.00312249
0.00306422
0.00300665
0.00294982
0.0028938
0.00283863
0.00278437
0.00273105
0.00267871
0.00262739
0.0025771
0.0025279
0.00247982
0.00243289
0.00238715
0.00234264
0.0022994
0.00225744
0.00221681
0.00217752
0.0021396
0.00210306
0.00206792
0.00203418
0.00200186
0.00197095
0.00194145
0.00191333
0.0018866
0.00186121
0.00183713
0.00181434
0.00179277
0.00177238
0.00175311
0.00173489
0.00171766
0.00170134
0.00168586
0.00167114
0.00165711
0.00164368
0.00163079
0.00161836
0.00160633
0.00159461
0.00158317
0.00157194
0.00156089
0.00154999
0.00153925
0.00152893
0.00152065
4.01934e-05
0.000285212
0.00061313
0.000838397
0.000998393
0.00112597
0.00123655
0.00133777
0.00143353
0.00152572
0.00161523
0.00170245
0.00178753
0.00187055
0.00195157
0.00203065
0.00210786
0.00218332
0.00225712
0.0023294
0.00240026
0.00246984
0.00253824
0.00260558
0.00267195
0.00273744
0.00280211
0.00286603
0.00292923
0.00299172
0.00305353
0.00311463
0.00317499
0.00323458
0.00329334
0.0033512
0.00340809
0.00346395
0.00351869
0.00357225
0.00362455
0.00367556
0.00372522
0.00377352
0.00382044
0.003866
0.00391025
0.00395325
0.00399509
0.00403588
0.00407576
0.0041151
0.00415438
0.00419385
0.00423377
0.00427444
0.00431617
0.00435928
0.00440412
0.00445103
0.00450037
0.00455241
0.00460741
0.00466561
0.00472718
0.00479222
0.00486076
0.00493258
0.00500744
0.00508499
0.00516471
0.00524594
0.00532791
0.00540981
0.00549072
0.00556972
0.00564589
0.00571835
0.0057863
0.00584905
0.00590601
0.00595673
0.0060009
0.00603834
0.00606898
0.00609289
0.00611023
0.00612121
0.00612614
0.00612534
0.00611919
0.00610807
0.00609236
0.00607244
0.00604866
0.00602137
0.00599089
0.00595749
0.00592144
0.00588297
0.0058425
0.00580041
0.00575694
0.00571229
0.00566661
0.00562003
0.00557261
0.00552444
0.00547556
0.005426
0.00537577
0.00532488
0.00527333
0.00522109
0.00516815
0.0051145
0.00506009
0.0050049
0.00494891
0.00489208
0.00483439
0.00477582
0.00471635
0.00465595
0.00459462
0.00453234
0.00446912
0.00440514
0.00434054
0.00427545
0.00420994
0.0041441
0.00407799
0.00401167
0.0039452
0.00387865
0.00381207
0.00374552
0.00367906
0.00361277
0.0035467
0.00348093
0.00341551
0.00335051
0.00328601
0.00322208
0.00315877
0.00309615
0.0030343
0.00297327
0.00291312
0.00285391
0.00279569
0.00273852
0.00268243
0.00262747
0.00257366
0.00252106
0.00246968
0.00241958
0.00237077
0.00232331
0.00227723
0.00223255
0.00218931
0.00214754
0.00210725
0.00206849
0.00203125
0.00199556
0.00196143
0.00192886
0.00189785
0.00186841
0.00184051
0.00181415
0.00178929
0.0017659
0.00174394
0.00172336
0.00170411
0.00168612
0.00166931
0.00165363
0.00163898
0.00162528
0.00161245
0.0016004
0.00158903
0.00157826
0.00156801
0.00155819
0.00154872
0.00153954
0.00153056
0.00152176
0.00151307
0.0015045
0.00149625
0.00148962
4.01773e-05
0.000290277
0.000620302
0.00085192
0.00101887
0.00115146
0.00126498
0.00136743
0.00146308
0.00155417
0.00164183
0.00172664
0.00180891
0.00188882
0.00196649
0.00204207
0.00211568
0.00218748
0.00225761
0.00232623
0.00239348
0.00245952
0.00252449
0.00258851
0.00265169
0.00271414
0.00277594
0.00283714
0.0028978
0.00295793
0.00301754
0.00307661
0.0031351
0.00319296
0.00325012
0.00330649
0.003362
0.00341653
0.00346999
0.00352228
0.00357332
0.00362302
0.00367131
0.00371815
0.0037635