/*--------------------------------*- C++ -*----------------------------------*\
  =========                 |
  \\      /  F ield         | OpenFOAM: The Open Source CFD Toolbox
   \\    /   O peration     | Website:  https://openfoam.org
    \\  /    A nd           | Version:  7
     \\/     M anipulation  |
\*---------------------------------------------------------------------------*/
FoamFile
{
    version     2.0;
    format      ascii;
    class       volScalarField;
    location    "450";
    object      p;
}
// * * * * * * * * * * * * * * * * * * * * * * * * * * * * * * * * * * * * * //

dimensions      [0 2 -2 0 0 0 0];

internalField   nonuniform List<scalar> 
16900
(
-22.0613
-22.0683
-22.0803
-22.0959
-22.1155
-22.139
-22.1657
-22.1961
-22.2317
-22.2671
-22.2998
-22.3379
-22.3825
-22.4287
-22.4758
-22.5233
-22.571
-22.6185
-22.6656
-22.7123
-22.7582
-22.8034
-22.8476
-22.8907
-22.9326
-22.973
-23.0119
-23.0489
-23.0838
-23.1165
-23.1465
-23.1736
-23.1973
-23.2174
-23.2334
-23.2449
-23.2512
-23.2519
-23.2464
-23.2341
-23.2142
-23.1862
-23.1491
-23.1023
-23.0448
-22.976
-22.8948
-22.8005
-22.6921
-22.5687
-22.4296
-22.274
-22.1013
-21.9107
-21.7012
-21.4723
-21.2237
-20.9553
-20.6673
-20.3598
-20.0333
-19.6886
-19.3265
-18.9484
-18.5556
-18.1498
-17.733
-17.3074
-16.8752
-16.439
-16.0014
-15.565
-15.1325
-14.7066
-14.2897
-13.8844
-13.4927
-13.1168
-12.7584
-12.4188
-12.0993
-11.8006
-11.5234
-11.2678
-11.0339
-10.8214
-10.6296
-10.4581
-10.3058
-10.1717
-10.0548
-9.9538
-9.86751
-9.79464
-9.7339
-9.68404
-9.6438
-9.612
-9.5875
-9.56921
-9.55607
-9.54721
-9.54188
-9.53943
-9.53928
-9.54092
-9.54389
-9.54774
-9.55204
-9.55636
-9.5602
-9.56307
-9.5644
-9.56357
-9.55992
-9.55274
-9.54127
-9.52474
-9.50232
-9.4732
-9.43658
-9.39165
-9.33766
-9.27391
-9.1997
-9.11442
-9.01753
-8.90862
-8.78739
-8.65358
-8.50696
-8.34735
-8.17474
-7.98933
-7.79143
-7.58143
-7.35979
-7.12703
-6.88378
-6.63066
-6.36842
-6.09792
-5.8201
-5.53583
-5.24602
-4.95183
-4.65441
-4.3546
-4.05357
-3.75286
-3.45331
-3.15545
-2.86105
-2.57233
-2.28949
-2.01119
-1.73936
-1.47703
-1.22484
-0.983366
-0.753246
-0.535085
-0.329443
-0.136816
0.0423705
0.207778
0.359151
0.496327
0.619233
0.727892
0.822418
0.903019
0.969993
1.02373
1.0647
1.09347
1.11066
1.11698
1.11321
1.10015
1.07868
1.04969
1.01408
0.972776
0.926667
0.876628
0.823487
0.768015
0.710917
0.652812
0.594231
0.535602
0.477243
0.419353
0.361998
0.305094
0.248336
0.191097
0.131726
0.0716654
-22.0536
-22.0614
-22.0695
-22.0801
-22.0943
-22.1117
-22.1321
-22.1571
-22.185
-22.2175
-22.2609
-22.309
-22.3551
-22.4011
-22.4477
-22.4946
-22.5415
-22.5883
-22.6348
-22.6807
-22.726
-22.7705
-22.8141
-22.8567
-22.898
-22.9379
-22.9763
-23.0129
-23.0476
-23.08
-23.1098
-23.1369
-23.1607
-23.181
-23.1973
-23.2092
-23.2161
-23.2177
-23.2132
-23.2021
-23.1837
-23.1574
-23.1223
-23.0777
-23.0229
-22.9569
-22.879
-22.7883
-22.6838
-22.5649
-22.4305
-22.2801
-22.1131
-21.9283
-21.725
-21.5026
-21.2608
-20.9995
-20.7188
-20.4189
-20.1001
-19.7633
-19.4091
-19.0388
-18.6537
-18.2554
-17.8458
-17.4269
-17.001
-16.5703
-16.1376
-15.7053
-15.276
-14.8523
-14.4368
-14.0318
-13.6395
-13.2619
-12.9008
-12.5577
-12.2338
-11.9299
-11.6468
-11.3847
-11.1437
-10.9237
-10.7241
-10.5445
-10.384
-10.2416
-10.1164
-10.0073
-9.91293
-9.83221
-9.76389
-9.7067
-9.65944
-9.62099
-9.59024
-9.56608
-9.54743
-9.53343
-9.52333
-9.5165
-9.5124
-9.51051
-9.5104
-9.51163
-9.51379
-9.51643
-9.51909
-9.52123
-9.52229
-9.52162
-9.51855
-9.51234
-9.50221
-9.48735
-9.46692
-9.44007
-9.40597
-9.3638
-9.31279
-9.25219
-9.18131
-9.09949
-9.00619
-8.90102
-8.78367
-8.65381
-8.5111
-8.35528
-8.1864
-8.00473
-7.81057
-7.60427
-7.38626
-7.15707
-6.91732
-6.66762
-6.40869
-6.14136
-5.86662
-5.58533
-5.2983
-5.00671
-4.71188
-4.41442
-4.1154
-3.8167
-3.51904
-3.22226
-2.92821
-2.63944
-2.3566
-2.0796
-1.80988
-1.54923
-1.29839
-1.05799
-0.828685
-0.611081
-0.405747
-0.213189
-0.0338339
0.131968
0.283954
0.421952
0.54588
0.655749
0.751662
0.833816
0.902496
0.958081
1.00103
1.03189
1.05127
1.05988
1.05846
1.04782
1.0288
1.0023
0.969187
0.930376
0.886746
0.839154
0.788417
0.735293
0.680474
0.624571
0.568105
0.511497
0.455061
0.398993
0.343364
0.288105
0.232963
0.177471
0.120439
0.0670637
-22.0427
-22.0561
-22.0664
-22.0768
-22.0907
-22.1078
-22.1282
-22.1525
-22.1804
-22.2118
-22.2497
-22.2925
-22.3362
-22.3807
-22.4259
-22.4713
-22.5169
-22.5624
-22.6076
-22.6524
-22.6966
-22.7401
-22.7827
-22.8243
-22.8648
-22.904
-22.9417
-22.9777
-23.0118
-23.0437
-23.0733
-23.1001
-23.1239
-23.1442
-23.1608
-23.1731
-23.1806
-23.183
-23.1795
-23.1697
-23.1528
-23.1283
-23.0953
-23.0532
-23.0012
-22.9383
-22.8639
-22.7771
-22.677
-22.5627
-22.4336
-22.2888
-22.1278
-21.9495
-21.7528
-21.5374
-21.3029
-21.0493
-20.7765
-20.4848
-20.1744
-19.846
-19.5003
-19.1385
-18.7617
-18.3716
-17.9698
-17.5583
-17.1392
-16.7148
-16.2876
-15.86
-15.4346
-15.0139
-14.6003
-14.1962
-13.8037
-13.4249
-13.0616
-12.7152
-12.387
-12.078
-11.7888
-11.5199
-11.2715
-11.0433
-10.8352
-10.6465
-10.4766
-10.3246
-10.1896
-10.0706
-9.96632
-9.87576
-9.79778
-9.73119
-9.67487
-9.62782
-9.58905
-9.55742
-9.53186
-9.51154
-9.49578
-9.48398
-9.47562
-9.47022
-9.46731
-9.46647
-9.46721
-9.46908
-9.47155
-9.47406
-9.47597
-9.47659
-9.4752
-9.47104
-9.46327
-9.45107
-9.43355
-9.40984
-9.37908
-9.34043
-9.2931
-9.23632
-9.16936
-9.09156
-9.00238
-8.90146
-8.78847
-8.66297
-8.52447
-8.37276
-8.20799
-8.03039
-7.84024
-7.6379
-7.42379
-7.19842
-6.96244
-6.71644
-6.46108
-6.19723
-5.92596
-5.64812
-5.3643
-5.07583
-4.78437
-4.49008
-4.19369
-3.89753
-3.60253
-3.3087
-3.01749
-2.73108
-2.44987
-2.17369
-1.90416
-1.64317
-1.39168
-1.15044
-0.920131
-0.701386
-0.49478
-0.300823
-0.119948
0.0474928
0.20123
0.341086
0.466972
0.578892
0.676943
0.761313
0.832281
0.890215
0.935568
0.968876
0.99075
1.00187
1.00299
0.994892
0.978426
0.954459
0.923877
0.887568
0.846409
0.80125
0.752897
0.702104
0.649555
0.595856
0.541523
0.486974
0.432521
0.378365
0.324587
0.271157
0.217908
0.164608
0.110547
0.0644109
-22.0327
-22.0519
-22.0657
-22.0774
-22.0914
-22.1085
-22.1289
-22.153
-22.181
-22.2126
-22.2486
-22.2882
-22.3297
-22.3724
-22.4159
-22.4599
-22.5041
-22.5483
-22.5923
-22.6359
-22.6791
-22.7216
-22.7633
-22.8041
-22.8439
-22.8824
-22.9196
-22.9551
-22.9889
-23.0207
-23.0501
-23.0769
-23.1008
-23.1215
-23.1385
-23.1514
-23.1597
-23.1631
-23.1608
-23.1524
-23.1373
-23.1147
-23.0839
-23.0443
-22.995
-22.9353
-22.8642
-22.7811
-22.685
-22.575
-22.4504
-22.3106
-22.1547
-21.9816
-21.7902
-21.5803
-21.3516
-21.1039
-20.837
-20.5513
-20.2468
-19.9243
-19.5844
-19.228
-18.8565
-18.4713
-18.074
-17.6664
-17.2508
-16.8293
-16.4043
-15.9783
-15.5537
-15.133
-14.7187
-14.3132
-13.9186
-13.5369
-13.1701
-12.8195
-12.4865
-12.1722
-11.8773
-11.6023
-11.3474
-11.1125
-10.8973
-10.7016
-10.5245
-10.3653
-10.2232
-10.0971
-9.98606
-9.88893
-9.80478
-9.73243
-9.6708
-9.61897
-9.57595
-9.54056
-9.51171
-9.48859
-9.47051
-9.45688
-9.44715
-9.44084
-9.43749
-9.43664
-9.43777
-9.4404
-9.44399
-9.4479
-9.45147
-9.45396
-9.45463
-9.45268
-9.44729
-9.43759
-9.42269
-9.40169
-9.37372
-9.33794
-9.29353
-9.23971
-9.17574
-9.10093
-9.01482
-8.91705
-8.80719
-8.6846
-8.54876
-8.39972
-8.23768
-8.06275
-7.87519
-7.67538
-7.46374
-7.24078
-7.00719
-6.76344
-6.51018
-6.24839
-5.97926
-5.70357
-5.42159
-5.13466
-4.84461
-4.55183
-4.25692
-3.96184
-3.66764
-3.37473
-3.08442
-2.79848
-2.51749
-2.24167
-1.97244
-1.71139
-1.45958
-1.21785
-0.986934
-0.767477
-0.56007
-0.365228
-0.183388
-0.0149104
0.139936
0.280967
0.408092
0.52131
0.620714
0.706487
0.778905
0.838331
0.885213
0.920084
0.94355
0.956289
0.959044
0.952606
0.937815
0.915536
0.886652
0.852052
0.812607
0.769165
0.722531
0.673457
0.622621
0.570628
0.51799
0.465126
0.412343
0.359851
0.307746
0.256036
0.204646
0.153561
0.102446
0.0617892
-22.0265
-22.0503
-22.0674
-22.081
-22.0959
-22.1137
-22.1346
-22.1591
-22.1872
-22.2188
-22.2538
-22.2918
-22.3316
-22.3727
-22.4148
-22.4574
-22.5002
-22.5432
-22.5861
-22.6287
-22.6709
-22.7126
-22.7535
-22.7937
-22.8329
-22.871
-22.9079
-22.9432
-22.9768
-23.0085
-23.038
-23.0651
-23.0893
-23.1104
-23.128
-23.1417
-23.151
-23.1555
-23.1545
-23.1477
-23.1342
-23.1136
-23.085
-23.0478
-23.0012
-22.9444
-22.8765
-22.7967
-22.7041
-22.5979
-22.4773
-22.3416
-22.1899
-22.0208
-21.8337
-21.628
-21.4036
-21.1601
-20.8975
-20.6159
-20.3154
-19.9965
-19.66
-19.3068
-18.938
-18.5551
-18.1596
-17.7533
-17.3385
-16.9172
-16.4918
-16.0648
-15.6387
-15.2159
-14.799
-14.3903
-13.9921
-13.6064
-13.2351
-12.8798
-12.5419
-12.2223
-11.9221
-11.6415
-11.381
-11.1406
-10.9199
-10.7186
-10.5363
-10.3718
-10.2247
-10.094
-9.97873
-9.87782
-9.79029
-9.71502
-9.65094
-9.59716
-9.55267
-9.51622
-9.48671
-9.46337
-9.44549
-9.43242
-9.42359
-9.41845
-9.41652
-9.41731
-9.42027
-9.4249
-9.43065
-9.43685
-9.44278
-9.44767
-9.45077
-9.45129
-9.44838
-9.44116
-9.42873
-9.41018
-9.38464
-9.35126
-9.30923
-9.25775
-9.19604
-9.1235
-9.0397
-8.94423
-8.83645
-8.71554
-8.58127
-8.4339
-8.27355
-8.10023
-7.91419
-7.71586
-7.50566
-7.28409
-7.05196
-6.8096
-6.55748
-6.29676
-6.02855
-5.75373
-5.47273
-5.18664
-4.89706
-4.60468
-4.31027
-4.01542
-3.7212
-3.42833
-3.13805
-2.85185
-2.57054
-2.29469
-2.02551
-1.76436
-1.51228
-1.27016
-1.03874
-0.818704
-0.610653
-0.41511
-0.232518
-0.0632399
0.0924505
0.234365
0.362411
0.476582
0.576969
0.663751
0.737201
0.797678
0.845629
0.881582
0.906143
0.91999
0.923863
0.918557
0.90491
0.883791
0.856085
0.822682
0.784457
0.742261
0.696899
0.649125
0.599617
0.548983
0.497731
0.446282
0.394944
0.343933
0.293357
0.243262
0.193642
0.144625
0.0960655
0.0587968
-22.0249
-22.0524
-22.0723
-22.088
-22.1045
-22.1233
-22.145
-22.1699
-22.1982
-22.2295
-22.2637
-22.3004
-22.3388
-22.3786
-22.4192
-22.4606
-22.5022
-22.5441
-22.586
-22.6277
-22.6691
-22.7101
-22.7505
-22.7901
-22.829
-22.8668
-22.9034
-22.9387
-22.9723
-23.0041
-23.0339
-23.0613
-23.086
-23.1077
-23.1261
-23.1406
-23.151
-23.1567
-23.1572
-23.1519
-23.1403
-23.1217
-23.0953
-23.0605
-23.0164
-22.9624
-22.8974
-22.8207
-22.7314
-22.6286
-22.5116
-22.3796
-22.2313
-22.0655
-21.8817
-21.6795
-21.4583
-21.2181
-20.9585
-20.6796
-20.3817
-20.0651
-19.7305
-19.3787
-19.011
-18.6285
-18.233
-17.8263
-17.4104
-16.9876
-16.5601
-16.1305
-15.7014
-15.2751
-14.8543
-14.4415
-14.0388
-13.6483
-13.2721
-12.9118
-12.5687
-12.2441
-11.9388
-11.6532
-11.3877
-11.1424
-10.9169
-10.711
-10.5244
-10.3562
-10.2057
-10.072
-9.9542
-9.85118
-9.76196
-9.68543
-9.62056
-9.56646
-9.52206
-9.48605
-9.45738
-9.43529
-9.41904
-9.40794
-9.40136
-9.39872
-9.39946
-9.40304
-9.4089
-9.41648
-9.4252
-9.43436
-9.44321
-9.45097
-9.45689
-9.46016
-9.45993
-9.45532
-9.44539
-9.42926
-9.40604
-9.37489
-9.33498
-9.28551
-9.22572
-9.15508
-9.0732
-8.9795
-8.87302
-8.75309
-8.61987
-8.47362
-8.3144
-8.1422
-7.95717
-7.75978
-7.55049
-7.32975
-7.09831
-6.85669
-6.60536
-6.34531
-6.07755
-5.80301
-5.52234
-5.23657
-4.94704
-4.65462
-4.36022
-4.06523
-3.7707
-3.47754
-3.18696
-2.90027
-2.61839
-2.34213
-2.07261
-1.81105
-1.55847
-1.31576
-1.08369
-0.862964
-0.654179
-0.457874
-0.274494
-0.10441
0.0521029
0.194853
0.323743
0.438765
0.540007
0.627645
0.701949
0.763276
0.812073
0.848865
0.874261
0.888938
0.89364
0.889165
0.876356
0.856087
0.829251
0.796744
0.759447
0.718218
0.673867
0.627152
0.578756
0.529289
0.479261
0.429093
0.379097
0.329491
0.280393
0.231868
0.183958
0.136843
0.090459
0.0549481
-22.0275
-22.0587
-22.0807
-22.0985
-22.1165
-22.1363
-22.1587
-22.184
-22.2122
-22.2431
-22.2766
-22.3122
-22.3494
-22.388
-22.4275
-22.4677
-22.5083
-22.5492
-22.5902
-22.6311
-22.6719
-22.7123
-22.7523
-22.7916
-22.8302
-22.8678
-22.9044
-22.9397
-22.9735
-23.0056
-23.0357
-23.0636
-23.0889
-23.1114
-23.1306
-23.1462
-23.1577
-23.1647
-23.1667
-23.1631
-23.1533
-23.1367
-23.1125
-23.0801
-23.0386
-22.9872
-22.9251
-22.8513
-22.765
-22.6653
-22.5515
-22.4227
-22.2773
-22.1142
-21.9332
-21.7336
-21.515
-21.2771
-21.0197
-20.7427
-20.4462
-20.1307
-19.7968
-19.4452
-19.0772
-18.694
-18.2972
-17.8886
-17.4703
-17.0446
-16.6138
-16.1804
-15.7471
-15.3163
-14.8907
-14.4728
-14.065
-13.6693
-13.2879
-12.9224
-12.574
-12.2444
-11.9341
-11.6433
-11.373
-11.1234
-10.8939
-10.6845
-10.4948
-10.324
-10.1713
-10.0359
-9.91675
-9.81288
-9.72323
-9.6467
-9.58229
-9.52908
-9.48593
-9.4515
-9.42479
-9.40502
-9.39143
-9.38329
-9.37992
-9.38069
-9.38497
-9.39218
-9.4017
-9.41294
-9.42526
-9.43793
-9.45018
-9.46125
-9.47032
-9.47661
-9.47924
-9.47733
-9.46996
-9.45622
-9.43526
-9.40624
-9.3683
-9.32064
-9.26258
-9.19366
-9.11344
-9.02102
-8.91527
-8.796
-8.66359
-8.51811
-8.35959
-8.18811
-8.00379
-7.80703
-7.59828
-7.37801
-7.14689
-6.90551
-6.65445
-6.3946
-6.12691
-5.85228
-5.57152
-5.28564
-4.99584
-4.70307
-4.40833
-4.11289
-3.81782
-3.52413
-3.233
-2.94565
-2.66305
-2.38614
-2.11602
-1.85383
-1.60057
-1.35713
-1.12431
-0.902792
-0.69321
-0.496099
-0.311912
-0.141021
0.0162933
0.159836
0.28951
0.405301
0.507298
0.595673
0.670695
0.732719
0.782192
0.819641
0.845675
0.860975
0.866291
0.862426
0.850231
0.830591
0.804407
0.772584
0.736015
0.695567
0.652056
0.606252
0.55884
0.510437
0.461552
0.412613
0.363926
0.315717
0.268102
0.221156
0.174932
0.129595
0.085112
0.0501892
-22.0342
-22.0706
-22.0933
-22.1125
-22.1314
-22.1519
-22.1746
-22.2
-22.228
-22.2585
-22.2913
-22.3259
-22.3621
-22.3996
-22.4381
-22.4773
-22.517
-22.5571
-22.5974
-22.6377
-22.6779
-22.7179
-22.7576
-22.7967
-22.8352
-22.8728
-22.9095
-22.945
-22.979
-23.0115
-23.0421
-23.0706
-23.0966
-23.1198
-23.14
-23.1567
-23.1694
-23.1778
-23.1813
-23.1794
-23.1715
-23.1569
-23.1349
-23.1048
-23.0658
-23.017
-22.9576
-22.8866
-22.8032
-22.7064
-22.5955
-22.4694
-22.3264
-22.1656
-21.9868
-21.7894
-21.5727
-21.3365
-21.0805
-20.8045
-20.5087
-20.1934
-19.8592
-19.5069
-19.1376
-18.7525
-18.3533
-17.9418
-17.5201
-17.0905
-16.6553
-16.2171
-15.7788
-15.3427
-14.9115
-14.4881
-14.0746
-13.6731
-13.2862
-12.9152
-12.5611
-12.2259
-11.9104
-11.6151
-11.3407
-11.0873
-10.8546
-10.6426
-10.4507
-10.2781
-10.1242
-9.98809
-9.86868
-9.765
-9.67598
-9.60052
-9.53761
-9.48631
-9.4454
-9.41352
-9.3897
-9.37316
-9.36309
-9.35871
-9.35931
-9.36419
-9.37268
-9.38414
-9.39791
-9.41334
-9.42974
-9.44636
-9.46241
-9.47711
-9.48963
-9.49915
-9.50481
-9.50571
-9.50095
-9.48965
-9.47095
-9.44399
-9.40793
-9.36198
-9.30556
-9.23827
-9.15942
-9.06774
-8.96241
-8.8437
-8.71189
-8.56694
-8.40885
-8.23773
-8.05373
-7.85722
-7.64864
-7.42848
-7.19736
-6.95589
-6.70471
-6.44469
-6.17673
-5.90174
-5.62057
-5.33426
-5.04392
-4.75055
-4.4552
-4.15908
-3.86327
-3.56885
-3.27696
-2.98879
-2.70536
-2.42766
-2.1568
-1.89385
-1.6398
-1.39555
-1.1619
-0.939554
-0.729145
-0.531217
-0.346226
-0.174549
-0.0164664
0.127821
0.258214
0.374698
0.477358
0.566363
0.641985
0.704575
0.754581
0.792532
0.819042
0.834796
0.840549
0.837117
0.82536
0.806174
0.780472
0.749175
0.713186
0.673386
0.630602
0.585612
0.53911
0.491718
0.443947
0.396229
0.348867
0.302085
0.255995
0.210663
0.166133
0.122489
0.0797556
0.044589
-22.0469
-22.0864
-22.1091
-22.1291
-22.1483
-22.169
-22.1918
-22.2171
-22.2447
-22.2747
-22.3067
-22.3405
-22.3758
-22.4124
-22.4499
-22.4883
-22.5273
-22.5667
-22.6064
-22.6463
-22.6861
-22.7259
-22.7653
-22.8044
-22.8429
-22.8806
-22.9175
-22.9532
-22.9877
-23.0206
-23.0518
-23.0809
-23.1076
-23.1318
-23.1529
-23.1707
-23.1847
-23.1945
-23.1996
-23.1994
-23.1933
-23.1807
-23.1609
-23.1331
-23.0965
-23.0502
-22.9934
-22.9251
-22.8443
-22.7501
-22.6419
-22.5182
-22.3771
-22.2183
-22.0413
-21.8455
-21.6303
-21.3952
-21.14
-20.8645
-20.5686
-20.2528
-19.9176
-19.5637
-19.1923
-18.8045
-18.4021
-17.9867
-17.5608
-17.1265
-16.6861
-16.2423
-15.7983
-15.3563
-14.9189
-14.4895
-14.0699
-13.6619
-13.2686
-12.8914
-12.5318
-12.1914
-11.8711
-11.5717
-11.2936
-11.037
-10.8018
-10.5878
-10.3944
-10.2209
-10.0666
-9.93061
-9.81183
-9.70925
-9.62177
-9.54829
-9.48777
-9.43925
-9.40141
-9.3729
-9.35279
-9.34024
-9.33441
-9.33448
-9.33967
-9.34924
-9.36248
-9.37869
-9.39716
-9.41719
-9.43804
-9.45894
-9.4791
-9.49768
-9.51387
-9.52681
-9.53565
-9.53948
-9.53742
-9.52859
-9.51214
-9.48722
-9.45296
-9.40866
-9.35385
-9.28803
-9.21012
-9.11872
-9.01365
-8.89538
-8.76394
-8.61926
-8.46136
-8.29034
-8.10637
-7.90981
-7.70112
-7.48076
-7.24937
-7.00754
-6.75597
-6.49549
-6.22701
-5.95141
-5.6696
-5.38261
-5.09152
-4.79735
-4.5012
-4.20423
-3.90754
-3.61222
-3.31944
-3.03035
-2.746
-2.46742
-2.19571
-1.93191
-1.67701
-1.43191
-1.19741
-0.974229
-0.762997
-0.564266
-0.378496
-0.20607
-0.0472688
0.0977022
0.228745
0.345838
0.449069
0.538603
0.614712
0.677746
0.728156
0.766472
0.793315
0.809374
0.815417
0.812267
0.8008
0.781927
0.756574
0.725681
0.690163
0.650919
0.608786
0.564558
0.518931
0.472539
0.425893
0.379428
0.333441
0.288155
0.243665
0.20002
0.157233
0.115266
0.0742421
0.0382862
-22.0657
-22.1019
-22.1253
-22.1465
-22.1661
-22.1868
-22.2095
-22.2344
-22.2615
-22.2909
-22.3222
-22.3552
-22.3897
-22.4254
-22.4622
-22.4999
-22.5383
-22.5771
-22.6164
-22.656
-22.6956
-22.7352
-22.7746
-22.8137
-22.8523
-22.8903
-22.9274
-22.9635
-22.9984
-23.0319
-23.0636
-23.0934
-23.121
-23.146
-23.1681
-23.187
-23.2023
-23.2135
-23.2201
-23.2216
-23.2174
-23.2068
-23.189
-23.1635
-23.1292
-23.0853
-23.0309
-22.9651
-22.8868
-22.7952
-22.6894
-22.5675
-22.428
-22.2708
-22.0953
-21.9008
-21.6866
-21.4522
-21.1973
-20.9217
-20.6253
-20.3083
-19.9714
-19.6153
-19.2411
-18.85
-18.4435
-18.0237
-17.5928
-17.1532
-16.707
-16.2571
-15.807
-15.3585
-14.9141
-14.4776
-14.051
-13.6365
-13.2367
-12.8535
-12.4884
-12.143
-11.8183
-11.515
-11.2337
-10.9745
-10.7373
-10.5219
-10.3277
-10.1541
-10.0002
-9.86502
-9.74766
-9.64698
-9.56185
-9.49115
-9.4338
-9.3888
-9.35475
-9.33032
-9.3146
-9.3067
-9.30571
-9.31078
-9.32108
-9.33583
-9.35424
-9.37558
-9.39909
-9.42403
-9.44961
-9.47505
-9.49951
-9.52217
-9.54217
-9.55867
-9.57078
-9.57761
-9.57829
-9.57196
-9.55776
-9.53482
-9.50231
-9.45963
-9.40638
-9.34177
-9.26427
-9.17295
-9.06816
-8.95018
-8.81894
-8.67434
-8.51641
-8.34526
-8.16111
-7.96429
-7.75525
-7.53448
-7.30258
-7.06019
-6.80802
-6.54688
-6.27766
-6.00127
-5.71864
-5.43079
-5.13879
-4.84369
-4.5466
-4.24864
-3.95095
-3.65465
-3.36088
-3.07079
-2.78546
-2.50595
-2.23332
-1.96863
-1.71285
-1.46688
-1.23152
-1.00751
-0.795465
-0.595958
-0.409446
-0.236316
-0.0768508
0.0687409
0.20036
0.317982
0.421694
0.51166
0.58815
0.651516
0.70221
0.740766
0.767811
0.784044
0.790243
0.787245
0.775941
0.757259
0.732145
0.701555
0.666425
0.62767
0.586141
0.542644
0.497886
0.452509
0.407024
0.361869
0.317334
0.273634
0.230844
0.188983
0.148023
0.10776
0.068497
0.0314115
-22.0858
-22.1168
-22.1413
-22.1638
-22.1838
-22.2045
-22.2268
-22.2512
-22.2778
-22.3064
-22.337
-22.3693
-22.4031
-22.4381
-22.4743
-22.5114
-22.5493
-22.5878
-22.6268
-22.6662
-22.7057
-22.7453
-22.7848
-22.824
-22.8628
-22.901
-22.9385
-22.975
-23.0104
-23.0444
-23.0767
-23.1072
-23.1355
-23.1614
-23.1845
-23.2045
-23.221
-23.2336
-23.2417
-23.2448
-23.2423
-23.2336
-23.2179
-23.1945
-23.1624
-23.1208
-23.0688
-23.0053
-22.9293
-22.84
-22.7363
-22.6159
-22.4776
-22.3218
-22.1475
-21.9539
-21.7404
-21.5064
-21.2514
-20.9752
-20.6776
-20.359
-20.0199
-19.661
-19.2835
-18.8886
-18.4775
-18.0526
-17.6163
-17.171
-16.7185
-16.2617
-15.8043
-15.3485
-14.897
-14.4531
-14.0194
-13.5981
-13.1919
-12.8028
-12.4323
-12.0821
-11.7533
-11.4465
-11.1624
-10.9011
-10.6625
-10.4463
-10.2521
-10.0789
-9.9261
-9.79262
-9.67742
-9.57939
-9.49736
-9.43016
-9.37668
-9.33586
-9.30624
-9.28652
-9.27578
-9.27307
-9.27744
-9.28798
-9.30382
-9.32411
-9.34804
-9.37481
-9.40363
-9.4337
-9.46422
-9.49436
-9.52328
-9.55012
-9.57403
-9.59414
-9.60957
-9.61944
-9.62287
-9.61902
-9.60702
-9.58599
-9.55518
-9.51412
-9.4623
-9.39848
-9.32104
-9.22976
-9.12523
-9.00741
-8.8762
-8.7315
-8.57338
-8.40194
-8.21741
-8.02014
-7.81057
-7.58919
-7.35661
-7.11348
-6.86052
-6.59854
-6.32844
-6.05111
-5.76751
-5.47867
-5.18564
-4.8895
-4.59135
-4.29233
-3.99357
-3.69621
-3.40139
-3.11027
-2.82393
-2.54344
-2.26988
-2.00429
-1.74763
-1.5008
-1.26461
-1.0398
-0.826994
-0.626764
-0.439569
-0.265804
-0.10575
0.0403802
0.172488
0.290544
0.394637
0.484926
0.561687
0.625265
0.676122
0.714793
0.741913
0.758192
0.76442
0.761451
0.750194
0.731597
0.706626
0.676261
0.641454
0.603142
0.56219
0.519423
0.475551
0.431229
0.386966
0.343204
0.300221
0.258224
0.217261
0.177315
0.138304
0.0998427
0.06247
0.0241141
-22.1039
-22.1358
-22.1592
-22.1815
-22.2012
-22.2215
-22.2433
-22.2671
-22.293
-22.3209
-22.3508
-22.3824
-22.4155
-22.45
-22.4857
-22.5223
-22.5599
-22.5982
-22.637
-22.6763
-22.7159
-22.7555
-22.7952
-22.8346
-22.8737
-22.9122
-22.95
-22.987
-23.0228
-23.0573
-23.0902
-23.1213
-23.1503
-23.177
-23.201
-23.2221
-23.2397
-23.2535
-23.263
-23.2677
-23.2669
-23.26
-23.2462
-23.2248
-23.1948
-23.1554
-23.1056
-23.0442
-22.9704
-22.8833
-22.7811
-22.6617
-22.5247
-22.3699
-22.1966
-22.0037
-21.7905
-21.5564
-21.301
-21.0239
-20.7248
-20.4041
-20.0623
-19.7002
-19.319
-18.92
-18.5042
-18.0736
-17.6311
-17.1792
-16.7199
-16.2559
-15.7908
-15.3273
-14.8682
-14.4168
-13.9758
-13.5477
-13.1351
-12.7401
-12.3645
-12.0098
-11.6771
-11.3673
-11.0809
-10.818
-10.5786
-10.3623
-10.1686
-9.99664
-9.84561
-9.71448
-9.60215
-9.50746
-9.4292
-9.36615
-9.31717
-9.28112
-9.25651
-9.24204
-9.23679
-9.23974
-9.24989
-9.26627
-9.28798
-9.31412
-9.34383
-9.37626
-9.41058
-9.44595
-9.48154
-9.51649
-9.54994
-9.58104
-9.6089
-9.63265
-9.65141
-9.66429
-9.67046
-9.66905
-9.65918
-9.63999
-9.61087
-9.57139
-9.52076
-9.45721
-9.3797
-9.28859
-9.18422
-9.06643
-8.93511
-8.79018
-8.63171
-8.45982
-8.27477
-8.07689
-7.86663
-7.6445
-7.4111
-7.16708
-6.9132
-6.65025
-6.37913
-6.10075
-5.81608
-5.52614
-5.232
-4.93473
-4.63546
-4.33531
-4.03544
-3.73698
-3.4411
-3.14892
-2.86156
-2.5801
-2.30561
-2.03912
-1.7816
-1.53395
-1.29697
-1.0714
-0.857891
-0.657002
-0.469196
-0.294872
-0.13431
0.0122702
0.144773
0.263164
0.367534
0.458038
0.534953
0.598627
0.649524
0.688185
0.715255
0.731454
0.737589
0.734532
0.723211
0.7046
0.679686
0.649475
0.614937
0.577035
0.536648
0.494619
0.451665
0.408452
0.365489
0.323217
0.281903
0.241742
0.202752
0.164872
0.127965
0.0914369
0.0561442
0.0165159
-22.1232
-22.1555
-22.1779
-22.199
-22.2179
-22.2374
-22.2585
-22.2815
-22.3067
-22.334
-22.3631
-22.3941
-22.4267
-22.4607
-22.4959
-22.5323
-22.5697
-22.6079
-22.6467
-22.686
-22.7256
-22.7654
-22.8053
-22.8449
-22.8843
-22.9231
-22.9613
-22.9986
-23.0348
-23.0697
-23.1031
-23.1348
-23.1644
-23.1918
-23.2166
-23.2386
-23.2572
-23.2722
-23.283
-23.2891
-23.2898
-23.2846
-23.2726
-23.2531
-23.2251
-23.1877
-23.1398
-23.0805
-23.0087
-22.9235
-22.8224
-22.7037
-22.5676
-22.4138
-22.2412
-22.0487
-21.8356
-21.6012
-21.345
-21.0668
-20.7662
-20.4433
-20.0986
-19.733
-19.3475
-18.9437
-18.5226
-18.0862
-17.6372
-17.178
-16.7111
-16.2395
-15.7664
-15.2949
-14.8281
-14.3691
-13.9207
-13.4859
-13.067
-12.6663
-12.2858
-11.9269
-11.5908
-11.2784
-10.9902
-10.7263
-10.4866
-10.2708
-10.0783
-9.90823
-9.75967
-9.63158
-9.52279
-9.4321
-9.35824
-9.29997
-9.25606
-9.22531
-9.20623
-9.19751
-9.19818
-9.20718
-9.22345
-9.246
-9.27385
-9.30607
-9.34175
-9.38
-9.41995
-9.46072
-9.50146
-9.54128
-9.57931
-9.61466
-9.64647
-9.67384
-9.6959
-9.71177
-9.72062
-9.72157
-9.71374
-9.69633
-9.66887
-9.63085
-9.58097
-9.51739
-9.43983
-9.3489
-9.24459
-9.1267
-8.99514
-8.84985
-8.6909
-8.51843
-8.33271
-8.13408
-7.923
-7.69997
-7.46562
-7.22061
-6.96568
-6.70165
-6.42942
-6.14989
-5.86406
-5.57295
-5.27763
-4.97919
-4.67875
-4.37744
-4.07643
-3.77686
-3.4799
-3.18668
-2.89832
-2.61591
-2.34052
-2.07317
-1.81484
-1.56642
-1.32872
-1.10248
-0.888343
-0.686884
-0.498561
-0.323779
-0.162814
-0.0158938
0.116891
0.2355
0.340026
0.43062
0.507564
0.571203
0.62201
0.660527
0.687416
0.703406
0.709323
0.70606
0.694569
0.67585
0.650914
0.620794
0.586485
0.548973
0.509153
0.467887
0.4259
0.383869
0.342299
0.301634
0.262124
0.223954
0.187104
0.151472
0.116857
0.0824572
0.0494858
0.00874328
-22.143
-22.1753
-22.1959
-22.2156
-22.2333
-22.2518
-22.272
-22.2943
-22.3187
-22.3452
-22.3738
-22.4042
-22.4363
-22.4699
-22.5049
-22.5411
-22.5783
-22.6165
-22.6553
-22.6947
-22.7345
-22.7745
-22.8146
-22.8545
-22.894
-22.9331
-22.9716
-23.0092
-23.0457
-23.0809
-23.1147
-23.1468
-23.1769
-23.2048
-23.2303
-23.253
-23.2725
-23.2885
-23.3004
-23.3078
-23.3099
-23.3062
-23.2959
-23.2781
-23.2519
-23.2163
-23.1703
-23.1127
-23.0429
-22.959
-22.8585
-22.7406
-22.6057
-22.4527
-22.2806
-22.0885
-21.8754
-21.6405
-21.3834
-21.1038
-20.8014
-20.4761
-20.1283
-19.7589
-19.3688
-18.9596
-18.5326
-18.0898
-17.6338
-17.167
-16.6924
-16.2128
-15.7315
-15.2519
-14.7771
-14.3104
-13.8548
-13.4131
-12.9882
-12.5821
-12.1969
-11.8341
-11.4951
-11.1805
-10.8911
-10.6268
-10.3875
-10.1728
-9.98214
-9.81458
-9.66915
-9.54473
-9.44011
-9.35403
-9.28517
-9.23222
-9.1939
-9.16894
-9.15583
-9.15327
-9.16024
-9.17562
-9.19831
-9.22727
-9.26147
-9.29994
-9.34172
-9.3859
-9.43155
-9.47778
-9.52369
-9.56839
-9.61099
-9.65059
-9.68631
-9.71725
-9.74255
-9.76134
-9.77279
-9.776
-9.77012
-9.75445
-9.72861
-9.69181
-9.64218
-9.57845
-9.501
-9.41017
-9.30581
-9.18772
-9.05581
-8.91003
-8.75048
-8.57731
-8.39081
-8.19132
-7.97931
-7.75528
-7.51988
-7.27376
-7.0177
-6.75251
-6.47908
-6.19834
-5.9113
-5.61896
-5.32243
-5.02277
-4.72113
-4.41866
-4.11651
-3.81583
-3.5178
-3.22356
-2.93423
-2.65091
-2.37466
-2.10652
-1.84743
-1.59832
-1.35997
-1.13314
-0.918472
-0.716539
-0.5278
-0.352666
-0.19141
-0.0442621
0.0886868
0.207392
0.311949
0.402506
0.479346
0.542817
0.593396
0.631635
0.658205
0.673854
0.679426
0.675839
0.664069
0.645146
0.620109
0.590022
0.555902
0.518764
0.479518
0.439048
0.398084
0.357315
0.317241
0.278309
0.240749
0.204734
0.170208
0.137021
0.104912
0.0728609
0.0424901
0.000894575
-22.1636
-22.1943
-22.2126
-22.2306
-22.247
-22.2644
-22.2837
-22.3051
-22.3287
-22.3545
-22.3825
-22.4124
-22.4441
-22.4774
-22.5122
-22.5483
-22.5856
-22.6238
-22.6627
-22.7022
-22.7422
-22.7824
-22.8226
-22.8626
-22.9024
-22.9416
-22.9802
-23.0179
-23.0546
-23.09
-23.124
-23.1563
-23.1867
-23.215
-23.2409
-23.2642
-23.2844
-23.3012
-23.3141
-23.3226
-23.326
-23.3237
-23.3149
-23.2987
-23.2742
-23.2404
-23.196
-23.1403
-23.0722
-22.9889
-22.8887
-22.7719
-22.6381
-22.4859
-22.3145
-22.1226
-21.9093
-21.6739
-21.4158
-21.1345
-20.8298
-20.5016
-20.1504
-19.7768
-19.3819
-18.967
-18.5338
-18.0843
-17.6209
-17.1464
-16.6637
-16.1758
-15.6863
-15.1984
-14.7155
-14.2411
-13.7783
-13.3301
-12.8992
-12.488
-12.0985
-11.7323
-11.3907
-11.0746
-10.7844
-10.5203
-10.282
-10.0691
-9.88093
-9.71653
-9.57486
-9.45475
-9.35491
-9.27401
-9.21069
-9.16359
-9.13133
-9.11258
-9.10586
-9.10983
-9.12341
-9.14545
-9.17479
-9.21034
-9.25105
-9.29589
-9.34386
-9.39402
-9.44541
-9.4971
-9.54819
-9.59774
-9.64486
-9.68864
-9.7282
-9.76264
-9.79109
-9.81271
-9.82665
-9.83201
-9.82797
-9.81401
-9.78967
-9.75365
-9.70396
-9.64013
-9.56282
-9.472
-9.36748
-9.24906
-9.11668
-8.9703
-8.81004
-8.63607
-8.44867
-8.24821
-8.03516
-7.81004
-7.57349
-7.32619
-7.06892
-6.80248
-6.5278
-6.2458
-5.95749
-5.66389
-5.36611
-5.06522
-4.76239
-4.45874
-4.15546
-3.85371
-3.55464
-3.25942
-2.96918
-2.685
-2.40797
-2.1391
-1.87934
-1.62962
-1.39073
-1.16342
-0.948331
-0.746045
-0.557013
-0.381656
-0.220237
-0.0729988
0.0599784
0.178639
0.283086
0.373459
0.450052
0.513206
0.56341
0.601222
0.62733
0.642496
0.64759
0.643553
0.631393
0.612172
0.586957
0.556847
0.522884
0.486112
0.447457
0.407827
0.367952
0.328539
0.290077
0.253016
0.217565
0.183888
0.151883
0.121363
0.0920011
0.0625709
0.0351133
-0.00693415
-22.1849
-22.2099
-22.227
-22.2436
-22.2587
-22.275
-22.2932
-22.3137
-22.3365
-22.3617
-22.3891
-22.4186
-22.45
-22.4831
-22.5178
-22.5539
-22.5911
-22.6294
-22.6684
-22.7081
-22.7481
-22.7884
-22.8286
-22.8687
-22.9085
-22.9478
-22.9863
-23.024
-23.0607
-23.0961
-23.13
-23.1624
-23.1929
-23.2214
-23.2476
-23.2712
-23.2919
-23.3094
-23.3231
-23.3326
-23.3372
-23.3362
-23.3288
-23.3142
-23.2912
-23.259
-23.2164
-23.1625
-23.0954
-23.0123
-22.9127
-22.797
-22.6641
-22.5127
-22.3416
-22.1499
-21.9364
-21.7003
-21.4409
-21.1578
-20.8507
-20.5195
-20.1646
-19.7866
-19.3866
-18.9659
-18.5263
-18.0698
-17.5989
-17.1164
-16.6254
-16.1291
-15.6311
-15.1349
-14.644
-14.162
-13.6921
-13.2374
-12.8008
-12.3848
-11.9914
-11.6222
-11.2787
-10.9615
-10.6711
-10.4077
-10.171
-9.96054
-9.77546
-9.61483
-9.47752
-9.36228
-9.26777
-9.19258
-9.1353
-9.09449
-9.06872
-9.05658
-9.05657
-9.06738
-9.08784
-9.11675
-9.15292
-9.19521
-9.24252
-9.2938
-9.34801
-9.40417
-9.46129
-9.51842
-9.57463
-9.62897
-9.68054
-9.72842
-9.77173
-9.80956
-9.84107
-9.86541
-9.88173
-9.88911
-9.88685
-9.87452
-9.85146
-9.81574
-9.76589
-9.70211
-9.62487
-9.53396
-9.42918
-9.31033
-9.17738
-9.0303
-8.86924
-8.69435
-8.50598
-8.30445
-8.09028
-7.86399
-7.62623
-7.37767
-7.11912
-6.85139
-6.57541
-6.2921
-6.0025
-5.70762
-5.40858
-5.10646
-4.80243
-4.49763
-4.19325
-3.89044
-3.59039
-3.29424
-3.00314
-2.71818
-2.44042
-2.17091
-1.91057
-1.66034
-1.42101
-1.19333
-0.977935
-0.775416
-0.586217
-0.410763
-0.249316
-0.10212
0.0307464
0.149222
0.253415
0.343459
0.419653
0.482339
0.532015
0.569247
0.594739
0.609276
0.61375
0.609134
0.596466
0.576846
0.551371
0.521179
0.487336
0.450921
0.412873
0.374124
0.335408
0.297445
0.260713
0.225666
0.19249
0.161335
0.132062
0.104437
0.0780817
0.0515598
0.0273511
-0.0146712
-22.205
-22.2242
-22.2398
-22.2547
-22.2684
-22.2834
-22.3006
-22.3201
-22.3421
-22.3666
-22.3935
-22.4226
-22.4537
-22.4867
-22.5213
-22.5573
-22.5946
-22.6329
-22.672
-22.7117
-22.7518
-22.792
-22.8322
-22.8721
-22.9117
-22.9508
-22.9891
-23.0265
-23.0629
-23.0981
-23.1318
-23.164
-23.1944
-23.2228
-23.2491
-23.273
-23.2941
-23.312
-23.3264
-23.3368
-23.3424
-23.3426
-23.3365
-23.3232
-23.3018
-23.2712
-23.2303
-23.1777
-23.1106
-23.0276
-22.9293
-22.8147
-22.6827
-22.5319
-22.3613
-22.1696
-21.9557
-21.7188
-21.4581
-21.1732
-20.8635
-20.5292
-20.1705
-19.788
-19.3828
-18.9562
-18.51
-18.0463
-17.5678
-17.0772
-16.5779
-16.0731
-15.5666
-15.062
-14.5631
-14.0735
-13.5967
-13.1358
-12.6938
-12.2733
-11.8764
-11.5047
-11.1596