/*--------------------------------*- C++ -*----------------------------------*\
  =========                 |
  \\      /  F ield         | OpenFOAM: The Open Source CFD Toolbox
   \\    /   O peration     | Website:  https://openfoam.org
    \\  /    A nd           | Version:  7
     \\/     M anipulation  |
\*---------------------------------------------------------------------------*/
FoamFile
{
    version     2.0;
    format      ascii;
    class       surfaceScalarField;
    location    "450";
    object      phi;
}
// * * * * * * * * * * * * * * * * * * * * * * * * * * * * * * * * * * * * * //

dimensions      [0 3 -1 0 0 0 0];

internalField   nonuniform List<scalar> 
33502
(
-4.15731e-10
3.90462e-10
-3.95104e-08
3.90826e-08
-9.947e-08
5.99586e-08
-1.69674e-07
7.01995e-08
-2.45602e-07
7.59288e-08
-3.25573e-07
7.99587e-08
-4.08685e-07
8.31105e-08
-4.94392e-07
8.57009e-08
-5.84122e-07
8.9732e-08
-6.8121e-07
9.70925e-08
-7.72446e-07
9.12408e-08
-8.53311e-07
8.08737e-08
-9.34181e-07
8.08738e-08
-1.01382e-06
7.96469e-08
-1.09174e-06
7.7921e-08
-1.16784e-06
7.6119e-08
-1.24224e-06
7.43942e-08
-1.31503e-06
7.28096e-08
-1.38641e-06
7.13695e-08
-1.45647e-06
7.00794e-08
-1.5254e-06
6.89159e-08
-1.59326e-06
6.78729e-08
-1.66019e-06
6.69217e-08
-1.72624e-06
6.60536e-08
-1.79149e-06
6.52409e-08
-1.85596e-06
6.44736e-08
-1.91969e-06
6.37277e-08
-1.98268e-06
6.29897e-08
-2.04492e-06
6.22433e-08
-2.10639e-06
6.14741e-08
-2.16706e-06
6.06677e-08
-2.22687e-06
5.98106e-08
-2.28576e-06
5.88893e-08
-2.34365e-06
5.78911e-08
-2.40046e-06
5.68029e-08
-2.45607e-06
5.56124e-08
-2.51038e-06
5.43065e-08
-2.56326e-06
5.28729e-08
-2.61456e-06
5.12987e-08
-2.66413e-06
4.95713e-08
-2.71182e-06
4.76783e-08
-2.75743e-06
4.56074e-08
-2.80078e-06
4.33467e-08
-2.84167e-06
4.08853e-08
-2.87989e-06
3.82124e-08
-2.91521e-06
3.53186e-08
-2.94741e-06
3.21952e-08
-2.97625e-06
2.88352e-08
-3.00149e-06
2.52332e-08
-3.02288e-06
2.1385e-08
-3.04017e-06
1.72863e-08
-3.05311e-06
1.2933e-08
-3.06144e-06
8.32159e-09
-3.0649e-06
3.45526e-09
-3.06326e-06
-1.65214e-09
-3.05632e-06
-6.94168e-09
-3.04395e-06
-1.23765e-08
-3.02599e-06
-1.79662e-08
-3.0023e-06
-2.36965e-08
-2.97276e-06
-2.9545e-08
-2.93728e-06
-3.54829e-08
-2.8958e-06
-4.14772e-08
-2.84832e-06
-4.74898e-08
-2.79484e-06
-5.3479e-08
-2.73544e-06
-5.93994e-08
-2.67024e-06
-6.52027e-08
-2.5994e-06
-7.08378e-08
-2.52315e-06
-7.62526e-08
-2.44175e-06
-8.13941e-08
-2.35554e-06
-8.62102e-08
-2.26489e-06
-9.06503e-08
-2.17022e-06
-9.46663e-08
-2.072e-06
-9.8214e-08
-1.97075e-06
-1.01255e-07
-1.86699e-06
-1.03755e-07
-1.76131e-06
-1.05686e-07
-1.65427e-06
-1.0703e-07
-1.5465e-06
-1.07772e-07
-1.4386e-06
-1.07907e-07
-1.33116e-06
-1.07437e-07
-1.22479e-06
-1.0637e-07
-1.12008e-06
-1.04718e-07
-1.01758e-06
-1.02501e-07
-9.17839e-07
-9.97465e-08
-8.21367e-07
-9.6477e-08
-7.28651e-07
-9.27227e-08
-6.40137e-07
-8.85207e-08
-5.56245e-07
-8.38996e-08
-4.77366e-07
-7.8887e-08
-4.0385e-07
-7.35234e-08
-3.36022e-07
-6.78375e-08
-2.7418e-07
-6.18491e-08
-2.18594e-07
-5.55945e-08
-1.695e-07
-4.91007e-08
-1.27128e-07
-4.23783e-08
-9.16728e-08
-3.54601e-08
-6.32977e-08
-2.83797e-08
-4.21446e-08
-2.11547e-08
-2.8306e-08
-1.38398e-08
-2.17888e-08
-6.51576e-09
-2.2515e-08
7.28172e-10
-3.03361e-08
7.82519e-09
-4.50355e-08
1.47041e-08
-6.63265e-08
2.1297e-08
-9.38558e-08
2.75356e-08
-1.27206e-07
3.33572e-08
-1.65912e-07
3.87125e-08
-2.09452e-07
4.35465e-08
-2.57255e-07
4.78096e-08
-3.08717e-07
5.14675e-08
-3.6321e-07
5.44976e-08
-4.2009e-07
5.68844e-08
-4.78709e-07
5.86213e-08
-5.38421e-07
5.9715e-08
-5.98602e-07
6.01823e-08
-6.58651e-07
6.00492e-08
-7.17997e-07
5.93465e-08
-7.76107e-07
5.81089e-08
-8.32481e-07
5.63729e-08
-8.8666e-07
5.41767e-08
-9.3822e-07
5.15577e-08
-9.86776e-07
4.85531e-08
-1.03198e-06
4.5199e-08
-1.07351e-06
4.15322e-08
-1.11111e-06
3.75888e-08
-1.14451e-06
3.34008e-08
-1.17351e-06
2.89915e-08
-1.19789e-06
2.43791e-08
-1.21748e-06
1.95854e-08
-1.23213e-06
1.46438e-08
-1.24172e-06
9.58584e-09
-1.24612e-06
4.40122e-09
-1.24531e-06
-8.2349e-10
-1.23934e-06
-5.96692e-09
-1.2283e-06
-1.1049e-08
-1.2122e-06
-1.61036e-08
-1.19108e-06
-2.1126e-08
-1.16497e-06
-2.6113e-08
-1.13391e-06
-3.10607e-08
-1.09793e-06
-3.59897e-08
-1.05705e-06
-4.088e-08
-1.01137e-06
-4.56841e-08
-9.60996e-07
-5.03803e-08
-9.06002e-07
-5.49973e-08
-8.464e-07
-5.96059e-08
-7.82281e-07
-6.41234e-08
-7.13861e-07
-6.84224e-08
-6.41198e-07
-7.26664e-08
-5.64214e-07
-7.69864e-08
-4.83048e-07
-8.117e-08
-3.98211e-07
-8.48412e-08
-3.09607e-07
-8.86069e-08
-2.1689e-07
-9.27185e-08
-1.19983e-07
-9.69103e-08
-1.9097e-08
-1.00891e-07
8.45639e-08
-1.03668e-07
1.90219e-07
-1.05662e-07
2.97851e-07
-1.07639e-07
4.07377e-07
-1.09533e-07
5.18657e-07
-1.11287e-07
6.31507e-07
-1.12857e-07
7.45712e-07
-1.14212e-07
8.61038e-07
-1.15333e-07
9.77238e-07
-1.16207e-07
1.09406e-06
-1.16826e-07
1.21124e-06
-1.17184e-07
1.32851e-06
-1.1728e-07
1.44562e-06
-1.1711e-07
1.56229e-06
-1.16675e-07
1.67826e-06
-1.15974e-07
1.79326e-06
-1.15007e-07
1.90703e-06
-1.13776e-07
2.01931e-06
-1.12282e-07
2.12984e-06
-1.10529e-07
2.23836e-06
-1.0852e-07
2.34462e-06
-1.06261e-07
2.44837e-06
-1.03761e-07
2.5494e-06
-1.01027e-07
2.64747e-06
-9.80726e-08
2.74238e-06
-9.49118e-08
2.83394e-06
-9.15625e-08
2.92198e-06
-8.80439e-08
3.00636e-06
-8.43794e-08
3.08695e-06
-8.05934e-08
3.16366e-06
-7.67143e-08
3.23643e-06
-7.27702e-08
3.30522e-06
-6.87933e-08
3.37003e-06
-6.48137e-08
3.43088e-06
-6.08657e-08
3.48785e-06
-5.69797e-08
3.54103e-06
-5.31906e-08
3.59055e-06
-4.95278e-08
3.63656e-06
-4.60266e-08
3.67926e-06
-4.27188e-08
3.71889e-06
-3.96493e-08
3.75574e-06
-3.68794e-08
3.79025e-06
-3.4531e-08
3.82313e-06
-3.28821e-08
3.85598e-06
-3.28364e-08
-3.6746e-08
-3.66555e-08
3.70304e-08
-8.32088e-08
8.5626e-08
-1.40928e-07
1.17673e-07
-2.07784e-07
1.37057e-07
-2.81266e-07
1.49404e-07
-3.59454e-07
1.58142e-07
-4.40994e-07
1.64646e-07
-5.24426e-07
1.69128e-07
-6.07016e-07
1.72325e-07
-6.83969e-07
1.74046e-07
-7.62573e-07
1.69852e-07
-8.43753e-07
1.62055e-07
-9.20244e-07
1.5737e-07
-9.93873e-07
1.5328e-07
-1.06534e-06
1.49392e-07
-1.13496e-06
1.45741e-07
-1.20293e-06
1.42367e-07
-1.26941e-06
1.3929e-07
-1.33454e-06
1.36503e-07
-1.39845e-06
1.3399e-07
-1.46125e-06
1.31722e-07
-1.52305e-06
1.29669e-07
-1.58392e-06
1.27794e-07
-1.64393e-06
1.26063e-07
-1.70313e-06
1.24442e-07
-1.76155e-06
1.22893e-07
-1.81921e-06
1.21386e-07
-1.87611e-06
1.19889e-07
-1.93223e-06
1.18371e-07
-1.98757e-06
1.16805e-07
-2.04206e-06
1.15163e-07
-2.09567e-06
1.13418e-07
-2.14833e-06
1.11545e-07
-2.19995e-06
1.09519e-07
-2.25047e-06
1.07316e-07
-2.29977e-06
1.04909e-07
-2.34774e-06
1.02275e-07
-2.39425e-06
9.93892e-08
-2.43918e-06
9.62266e-08
-2.48238e-06
9.27629e-08
-2.52368e-06
8.89741e-08
-2.56291e-06
8.48366e-08
-2.59989e-06
8.0328e-08
-2.63444e-06
7.54271e-08
-2.66634e-06
7.01143e-08
-2.6954e-06
6.43718e-08
-2.72139e-06
5.81846e-08
-2.7441e-06
5.154e-08
-2.7633e-06
4.4429e-08
-2.77876e-06
3.68452e-08
-2.79027e-06
2.8785e-08
-2.79758e-06
2.02441e-08
-2.80048e-06
1.12203e-08
-2.79874e-06
1.70757e-09
-2.79218e-06
-8.2123e-09
-2.78068e-06
-1.84461e-08
-2.76408e-06
-2.89871e-08
-2.74223e-06
-3.98173e-08
-2.71503e-06
-5.0901e-08
-2.68238e-06
-6.21906e-08
-2.64424e-06
-7.36284e-08
-2.60057e-06
-8.51478e-08
-2.55139e-06
-9.66737e-08
-2.49675e-06
-1.08124e-07
-2.43674e-06
-1.19409e-07
-2.37151e-06
-1.30434e-07
-2.30124e-06
-1.41102e-07
-2.22618e-06
-1.51309e-07
-2.14662e-06
-1.60954e-07
-2.0629e-06
-1.69938e-07
-1.97538e-06
-1.78162e-07
-1.88451e-06
-1.85536e-07
-1.79075e-06
-1.91977e-07
-1.69459e-06
-1.97411e-07
-1.59657e-06
-2.01777e-07
-1.49723e-06
-2.05023e-07
-1.39714e-06
-2.07116e-07
-1.29688e-06
-2.08034e-07
-1.19702e-06
-2.07766e-07
-1.09814e-06
-2.06321e-07
-1.00079e-06
-2.0372e-07
-9.05519e-07
-1.99988e-07
-8.12853e-07
-1.95169e-07
-7.23285e-07
-1.89316e-07
-6.37284e-07
-1.8248e-07
-5.55286e-07
-1.74722e-07
-4.77691e-07
-1.66118e-07
-4.04865e-07
-1.56728e-07
-3.37141e-07
-1.46613e-07
-2.74812e-07
-1.35854e-07
-2.18135e-07
-1.24518e-07
-1.67333e-07
-1.12652e-07
-1.22596e-07
-1.00334e-07
-8.40678e-08
-8.76308e-08
-5.186e-08
-7.45881e-08
-2.60459e-08
-6.1275e-08
-6.65363e-09
-4.77731e-08
6.33692e-09
-3.41452e-08
1.30047e-08
-2.05077e-08
1.34906e-08
-7.00069e-09
7.9573e-09
6.26247e-09
-3.38907e-09
1.91734e-08
-2.02795e-08
3.15965e-08
-4.23977e-08
4.34178e-08
-6.93772e-08
5.45177e-08
-1.00811e-07
6.47941e-08
-1.36263e-07
7.4167e-08
-1.75263e-07
8.25501e-08
-2.1732e-07
8.98689e-08
-2.61922e-07
9.60724e-08
-3.08551e-07
1.01129e-07
-3.56682e-07
1.05018e-07
-4.05792e-07
1.07734e-07
-4.55367e-07
1.09291e-07
-5.04905e-07
1.09722e-07
-5.53923e-07
1.09068e-07
-6.0196e-07
1.07383e-07
-6.48576e-07
1.04726e-07
-6.93362e-07
1.01158e-07
-7.3593e-07
9.67444e-08
-7.75924e-07
9.15511e-08
-8.13015e-07
8.56431e-08
-8.469e-07
7.90835e-08
-8.77305e-07
7.19352e-08
-9.03977e-07
6.42601e-08
-9.26694e-07
5.61152e-08
-9.45252e-07
4.75483e-08
-9.59474e-07
3.85988e-08
-9.692e-07
2.9309e-08
-9.7429e-07
1.97326e-08
-9.74624e-07
9.9175e-09
-9.70192e-07
-3.40035e-11
-9.61063e-07
-9.95488e-09
-9.47219e-07
-1.98126e-08
-9.28615e-07
-2.96563e-08
-9.05245e-07
-3.94755e-08
-8.77127e-07
-4.92474e-08
-8.44285e-07
-5.89577e-08
-8.06752e-07
-6.85963e-08
-7.64544e-07
-7.82005e-08
-7.17687e-07
-8.77404e-08
-6.66244e-07
-9.71299e-08
-6.10295e-07
-1.06332e-07
-5.4991e-07
-1.15385e-07
-4.85117e-07
-1.24402e-07
-4.15979e-07
-1.33264e-07
-3.42591e-07
-1.41813e-07
-2.65047e-07
-1.50212e-07
-1.83454e-07
-1.58582e-07
-9.77837e-08
-1.66843e-07
-7.77083e-09
-1.74857e-07
8.59551e-08
-1.82335e-07
1.82655e-07
-1.8942e-07
2.82339e-07
-1.96597e-07
3.84854e-07
-2.03409e-07
4.89952e-07
-2.0877e-07
5.9727e-07
-2.12984e-07
7.06566e-07
-2.16938e-07
8.17638e-07
-2.20608e-07
9.30288e-07
-2.23941e-07
1.04431e-06
-2.26884e-07
1.15949e-06
-2.29397e-07
1.2756e-06
-2.31449e-07
1.39241e-06
-2.33021e-07
1.50968e-06
-2.34098e-07
1.62716e-06
-2.34671e-07
1.74461e-06
-2.34734e-07
1.86178e-06
-2.34282e-07
1.97842e-06
-2.33313e-07
2.09427e-06
-2.31826e-07
2.20908e-06
-2.29821e-07
2.3226e-06
-2.27301e-07
2.43458e-06
-2.24269e-07
2.54478e-06
-2.20731e-07
2.65295e-06
-2.16694e-07
2.75886e-06
-2.1217e-07
2.86227e-06
-2.07174e-07
2.96297e-06
-2.01725e-07
3.06074e-06
-1.95847e-07
3.1554e-06
-1.89568e-07
3.24676e-06
-1.82923e-07
3.33466e-06
-1.7595e-07
3.41897e-06
-1.68695e-07
3.49958e-06
-1.61207e-07
3.5764e-06
-1.53538e-07
3.64937e-06
-1.45747e-07
3.71847e-06
-1.37892e-07
3.78368e-06
-1.30037e-07
3.84505e-06
-1.22242e-07
3.90263e-06
-1.14572e-07
3.95651e-06
-1.07088e-07
4.00682e-06
-9.98512e-08
4.0537e-06
-9.29235e-08
4.09733e-06
-8.63691e-08
4.13792e-06
-8.02618e-08
4.17573e-06
-7.47057e-08
4.21105e-06
-6.98797e-08
4.2443e-06
-6.61478e-08
4.27597e-06
-6.4495e-08
-6.63775e-08
-5.29333e-08
8.99323e-08
-1.07058e-07
1.39747e-07
-1.65801e-07
1.7641e-07
-2.30296e-07
2.0155e-07
-2.99688e-07
2.18796e-07
-3.72388e-07
2.30836e-07
-4.46709e-07
2.38963e-07
-5.21072e-07
2.43489e-07
-5.93627e-07
2.44878e-07
-6.62995e-07
2.43416e-07
-7.31569e-07
2.38427e-07
-8.00844e-07
2.31336e-07
-8.68269e-07
2.24797e-07
-9.33752e-07
2.18766e-07
-9.97506e-07
2.13148e-07
-1.05971e-06
2.07943e-07
-1.1205e-06
2.0316e-07
-1.18e-06
1.98799e-07
-1.23834e-06
1.94843e-07
-1.29562e-06
1.91263e-07
-1.35191e-06
1.8802e-07
-1.40731e-06
1.8507e-07
-1.46188e-06
1.82364e-07
-1.51567e-06
1.79854e-07
-1.56872e-06
1.77489e-07
-1.62105e-06
1.75224e-07
-1.67268e-06
1.73011e-07
-1.72359e-06
1.70805e-07
-1.77379e-06
1.68565e-07
-1.82323e-06
1.6625e-07
-1.87189e-06
1.63821e-07
-1.91971e-06
1.61241e-07
-1.96664e-06
1.58472e-07
-2.0126e-06
1.55479e-07
-2.05751e-06
1.52226e-07
-2.10128e-06
1.48676e-07
-2.1438e-06
1.44793e-07
-2.18495e-06
1.40543e-07
-2.22462e-06
1.35887e-07
-2.26265e-06
1.30792e-07
-2.29889e-06
1.25221e-07
-2.3332e-06
1.19141e-07
-2.36539e-06
1.12518e-07
-2.39529e-06
1.05322e-07
-2.4227e-06
9.75233e-08
-2.44743e-06
8.90976e-08
-2.46927e-06
8.00228e-08
-2.48801e-06
7.02814e-08
-2.50345e-06
5.98607e-08
-2.51536e-06
4.87531e-08
-2.52353e-06
3.69551e-08
-2.52775e-06
2.44642e-08
-2.52782e-06
1.1285e-08
-2.52356e-06
-2.55433e-09
-2.51482e-06
-1.69548e-08
-2.50144e-06
-3.18273e-08
-2.48329e-06
-4.71437e-08
-2.46024e-06
-6.28658e-08
-2.43221e-06
-7.89374e-08
-2.39911e-06
-9.52865e-08
-2.36092e-06
-1.11827e-07
-2.31761e-06
-1.28459e-07
-2.26921e-06
-1.45071e-07
-2.2158e-06
-1.6154e-07
-2.15747e-06
-1.77737e-07
-2.09438e-06
-1.93521e-07
-2.02674e-06
-2.08748e-07
-1.95478e-06
-2.23269e-07
-1.8788e-06
-2.36935e-07
-1.79913e-06
-2.49601e-07
-1.71616e-06
-2.61129e-07
-1.63031e-06
-2.71386e-07
-1.54204e-06
-2.80254e-07
-1.45182e-06
-2.8763e-07
-1.36017e-06
-2.93427e-07
-1.26761e-06
-2.97574e-07
-1.1747e-06
-3.00027e-07
-1.08198e-06
-3.0076e-07
-9.8998e-07
-2.99762e-07
-8.99251e-07
-2.9705e-07
-8.10311e-07
-2.9266e-07
-7.23665e-07
-2.86635e-07
-6.39792e-07
-2.79042e-07
-5.59143e-07
-2.69966e-07
-4.82137e-07
-2.59487e-07
-4.09166e-07
-2.47695e-07
-3.40574e-07
-2.34711e-07
-2.76676e-07
-2.20628e-07
-2.1775e-07
-2.0554e-07
-1.64032e-07
-1.89575e-07
-1.15714e-07
-1.72837e-07
-7.296e-08
-1.55408e-07
-3.58899e-08
-1.37405e-07
-4.57426e-09
-1.18948e-07
2.09542e-08
-1.00118e-07
4.06949e-08
-8.10168e-08
5.47035e-08
-6.17824e-08
6.31022e-08
-4.25445e-08
6.60453e-08
-2.34509e-08
6.37118e-08
-4.66718e-09
5.63018e-08
1.36729e-08
4.40449e-08
3.14309e-08
2.72041e-08
4.84382e-08
6.09305e-09
6.453e-08
-1.89298e-08
7.95418e-08
-4.74813e-08
9.3347e-08
-7.91611e-08
1.05848e-07
-1.13546e-07
1.16937e-07
-1.50203e-07
1.26527e-07
-1.8869e-07
1.34561e-07
-2.28568e-07
1.41008e-07
-2.69396e-07
1.45847e-07
-3.10737e-07
1.49076e-07
-3.52163e-07
1.50719e-07
-3.93258e-07
1.50817e-07
-4.3362e-07
1.4943e-07
-4.72864e-07
1.46627e-07
-5.10623e-07
1.42485e-07
-5.46549e-07
1.37084e-07
-5.80315e-07
1.3051e-07
-6.11613e-07
1.22849e-07
-6.4016e-07
1.14189e-07
-6.65689e-07
1.04612e-07
-6.87957e-07
9.42028e-08
-7.06741e-07
8.30424e-08
-7.21834e-07
7.12078e-08
-7.33053e-07
5.87657e-08
-7.4023e-07
4.57743e-08
-7.43218e-07
3.22961e-08
-7.41889e-07
1.84024e-08
-7.36168e-07
4.19524e-09
-7.26099e-07
-1.0104e-08
-7.11693e-07
-2.4363e-08
-6.9287e-07
-3.86368e-08
-6.69598e-07
-5.29292e-08
-6.4187e-07
-6.72052e-08
-6.0969e-07
-8.14285e-08
-5.73073e-07
-9.55758e-08
-5.32045e-07
-1.09626e-07
-4.8662e-07
-1.23627e-07
-4.36822e-07
-1.3754e-07
-3.82695e-07
-1.51259e-07
-3.24282e-07
-1.64746e-07
-2.61645e-07
-1.78023e-07
-1.94852e-07
-1.91196e-07
-1.23956e-07
-2.04161e-07
-4.88754e-08
-2.16895e-07
3.02483e-08
-2.29337e-07
1.13009e-07
-2.41344e-07
1.99235e-07
-2.53071e-07
2.88852e-07
-2.64474e-07
3.81698e-07
-2.75182e-07
4.77545e-07
-2.85267e-07
5.76017e-07
-2.9507e-07
6.76808e-07
-3.042e-07
7.79988e-07
-3.1195e-07
8.85504e-07
-3.18501e-07
9.92982e-07
-3.24418e-07
1.10215e-06
-3.29776e-07
1.21277e-06
-3.34558e-07
1.3246e-06
-3.38723e-07
1.43744e-06
-3.42233e-07
1.55104e-06
-3.45057e-07
1.66519e-06
-3.47171e-07
1.77965e-06
-3.48559e-07
1.89419e-06
-3.49208e-07
2.00856e-06
-3.49108e-07
2.12254e-06
-3.48255e-07
2.23587e-06
-3.46644e-07
2.34832e-06
-3.44275e-07
2.45964e-06
-3.41148e-07
2.56961e-06
-3.37265e-07
2.67797e-06
-3.32632e-07
2.78449e-06
-3.27258e-07
2.88895e-06
-3.21154e-07
2.99112e-06
-3.14337e-07
3.09078e-06
-3.0683e-07
3.18771e-06
-2.98662e-07
3.28173e-06
-2.89867e-07
3.37266e-06
-2.8049e-07
3.46031e-06
-2.7058e-07
3.54456e-06
-2.60195e-07
3.62527e-06
-2.49403e-07
3.70234e-06
-2.38276e-07
3.77569e-06
-2.26892e-07
3.84528e-06
-2.15336e-07
3.91108e-06
-2.03695e-07
3.9731e-06
-1.9206e-07
4.03138e-06
-1.80522e-07
4.08598e-06
-1.69172e-07
4.13699e-06
-1.58101e-07
4.18453e-06
-1.47397e-07
4.22875e-06
-1.37148e-07
4.26982e-06
-1.2744e-07
4.30792e-06
-1.18374e-07
4.34328e-06
-1.1007e-07
4.37611e-06
-1.02721e-07
4.40662e-06
-9.66557e-08
4.43474e-06
-9.26075e-08
-9.12193e-08
-5.94867e-08
1.49411e-07
-1.17791e-07
1.98038e-07
-1.77253e-07
2.35872e-07
-2.39378e-07
2.63673e-07
-3.03977e-07
2.83392e-07
-3.6996e-07
2.96815e-07
-4.36054e-07
3.05053e-07
-5.01269e-07
3.08701e-07
-5.64877e-07
3.08485e-07
-6.26599e-07
3.05137e-07
-6.87286e-07
2.99118e-07
-7.4756e-07
2.91609e-07
-8.06738e-07
2.83977e-07
-8.64593e-07
2.76622e-07
-9.21127e-07
2.69683e-07
-9.76405e-07
2.63223e-07
-1.03051e-06
2.57271e-07
-1.08354e-06
2.51829e-07
-1.13558e-06
2.46876e-07
-1.18669e-06
2.42379e-07
-1.23696e-06
2.3829e-07
-1.28644e-06
2.34554e-07
-1.33519e-06
2.31114e-07
-1.38325e-06
2.27908e-07
-1.43063e-06
2.24877e-07
-1.47737e-06
2.21961e-07
-1.52347e-06
2.19104e-07
-1.56891e-06
2.16249e-07
-1.61369e-06
2.13345e-07
-1.65778e-06
2.1034e-07
-1.70115e-06
2.07185e-07
-1.74374e-06
2.03833e-07
-1.7855e-06
2.00237e-07
-1.82637e-06
1.96351e-07
-1.86628e-06
1.92128e-07
-1.90512e-06
1.87522e-07
-1.94282e-06
1.82488e-07
-1.97925e-06
1.76977e-07
-2.01431e-06
1.70943e-07
-2.04786e-06
1.64338e-07
-2.07976e-06
1.57118e-07
-2.10985e-06
1.49237e-07
-2.13799e-06
1.40651e-07
-2.16399e-06
1.3132e-07
-2.18767e-06
1.21207e-07
-2.20886e-06
1.10279e-07
-2.22734e-06
9.85067e-08
-2.24293e-06
8.58684e-08
-2.25542e-06
7.2348e-08
-2.26461e-06
5.79371e-08
-2.27029e-06
4.26336e-08
-2.27226e-06
2.64376e-08
-2.27034e-06
9.35898e-09
-2.26436e-06
-8.53649e-09
-2.25419e-06
-2.71311e-08
-2.23967e-06
-4.63455e-08
-2.22068e-06
-6.61319e-08
-2.19712e-06
-8.6432e-08
-2.16889e-06
-1.07169e-07
-2.13593e-06
-1.28246e-07
-2.09821e-06
-1.4955e-07
-2.05572e-06
-1.70947e-07
-2.0085e-06
-1.9229e-07
-1.95663e-06
-2.13418e-07
-1.9002e-06
-2.34159e-07
-1.8394e-06
-2.5433e-07
-1.7744e-06
-2.73742e-07
-1.70547e-06
-2.92199e-07
-1.6329e-06
-3.09508e-07
-1.55702e-06
-3.25482e-07
-1.4782e-06
-3.39942e-07
-1.39687e-06
-3.52716e-07
-1.31347e-06
-3.63653e-07
-1.22847e-06
-3.72625e-07
-1.14238e-06
-3.79523e-07
-1.05569e-06
-3.84258e-07
-9.6894e-07
-3.86779e-07
-8.8264e-07
-3.8706e-07
-7.97312e-07
-3.8509e-07
-7.13463e-07
-3.80899e-07
-6.3158e-07
-3.74543e-07
-5.52133e-07
-3.66082e-07
-4.75566e-07
-3.55609e-07
-4.02286e-07
-3.43247e-07
-3.3267e-07
-3.29103e-07
-2.67067e-07
-3.13299e-07
-2.05776e-07
-2.96002e-07
-1.49059e-07
-2.77346e-07
-9.71497e-08
-2.5745e-07
-5.02341e-08
-2.36491e-07
-8.44586e-09
-2.14626e-07
2.81091e-08
-1.91964e-07
5.93515e-08
-1.68649e-07
8.52687e-08
-1.44866e-07
1.05912e-07
-1.20762e-07
1.21368e-07
-9.64729e-08
1.31744e-07
-7.21588e-08
1.37188e-07
-4.79882e-08
1.37879e-07
-2.41422e-08
1.34012e-07
-7.99844e-10
1.25812e-07
2.18736e-08
1.1354e-07
4.37043e-08
9.74789e-08
6.45e-08
7.79348e-08
8.40754e-08
5.52218e-08
1.02256e-07
2.96721e-08
1.18898e-07
1.65647e-09
1.33866e-07
-2.84352e-08
1.4703e-07
-6.02213e-08
1.58315e-07
-9.33183e-08
1.6766e-07
-1.27345e-07
1.75036e-07
-1.61923e-07
1.80426e-07
-1.96681e-07
1.83835e-07
-2.31257e-07
1.85295e-07
-2.65296e-07
1.84857e-07
-2.98459e-07
1.82594e-07
-3.30418e-07
1.78588e-07
-3.60862e-07
1.7293e-07
-3.89492e-07
1.65714e-07
-4.16024e-07
1.57042e-07
-4.40193e-07
1.47018e-07
-4.61746e-07
1.35742e-07
-4.80451e-07
1.23317e-07
-4.9609e-07
1.09841e-07
-5.08459e-07
9.54115e-08
-5.17373e-07
8.01209e-08
-5.22658e-07
6.40496e-08
-5.24157e-07
4.72725e-08
-5.21735e-07
2.98727e-08
-5.15274e-07
1.19409e-08
-5.04799e-07
-6.28169e-09
-4.90335e-07
-2.45686e-08
-4.718e-07
-4.28993e-08
-4.4913e-07
-6.13091e-08
-4.22294e-07
-7.97662e-08
-3.91283e-07
-9.82183e-08
-3.5609e-07
-1.16623e-07
-3.16718e-07
-1.3495e-07
-2.73177e-07
-1.53169e-07
-2.25485e-07
-1.7132e-07
-1.73685e-07
-1.89341e-07
-1.17807e-07
-2.07139e-07
-5.7836e-08
-2.24719e-07
6.23178e-09
-2.42093e-07
7.4183e-08
-2.5915e-07
1.45845e-07
-2.75825e-07
2.21191e-07
-2.92243e-07
3.00086e-07
-3.08233e-07
3.82376e-07
-3.23636e-07
4.67878e-07
-3.38574e-07
5.56375e-07
-3.52973e-07
6.47756e-07
-3.66565e-07
7.41862e-07
-3.79375e-07
8.3835e-07
-3.9156e-07
9.36976e-07
-4.02829e-07
1.03778e-06
-4.12754e-07
1.14071e-06
-4.21431e-07
1.24547e-06
-4.29179e-07
1.35178e-06
-4.36096e-07
1.45941e-06
-4.42187e-07
1.56811e-06
-4.47429e-07
1.67767e-06
-4.51792e-07
1.78786e-06
-4.55245e-07
1.89845e-06
-4.57765e-07
2.00922e-06
-4.59333e-07
2.11995e-06
-4.59936e-07
2.2304e-06
-4.59563e-07
2.34035e-06
-4.58206e-07
2.44956e-06
-4.55862e-07
2.55781e-06
-4.52528e-07
2.66487e-06
-4.48206e-07
2.7705e-06
-4.42898e-07
2.87448e-06
-4.36612e-07
2.97658e-06
-4.29359e-07
3.07658e-06
-4.21155e-07
3.17426e-06
-4.12023e-07
3.26942e-06
-4.01992e-07
3.36186e-06
-3.91101e-07
3.45139e-06
-3.79397e-07
3.53783e-06
-3.66937e-07
3.62104e-06
-3.53788e-07
3.70087e-06
-3.40027e-07
3.77721e-06
-3.25743e-07
3.84996e-06
-3.1103e-07
3.91906e-06
-2.95993e-07
3.98446e-06
-2.80742e-07
4.04615e-06
-2.65392e-07
4.10415e-06
-2.50062e-07
4.15849e-06
-2.3487e-07
4.20924e-06
-2.19936e-07
4.25651e-06
-2.05376e-07
4.3004e-06
-1.91304e-07
4.34107e-06
-1.7783e-07
4.37868e-06
-1.65063e-07
4.41341e-06
-1.53116e-07
4.44544e-06
-1.42118e-07
4.47494e-06
-1.32241e-07
4.502e-06
-1.23732e-07
4.52643e-06
-1.17035e-07
-1.12308e-07
-6.11828e-08
2.10567e-07
-1.20486e-07
2.57333e-07
-1.79098e-07
2.94476e-07
-2.38117e-07
3.2269e-07
-2.97583e-07
3.42855e-07
-3.56908e-07
3.56137e-07
-4.15417e-07
3.6356e-07
-4.72696e-07
3.65978e-07
-5.28557e-07
3.64344e-07
-5.83047e-07
3.59628e-07
-6.36581e-07
3.52649e-07
-6.89403e-07
3.44434e-07
-7.41329e-07
3.35902e-07
-7.92233e-07
3.27527e-07
-8.4209e-07
3.1954e-07
-8.90927e-07
3.12061e-07
-9.38795e-07
3.05141e-07
-9.85757e-07
2.98791e-07
-1.03187e-06
2.92994e-07
-1.0772e-06
2.87711e-07
-1.1218e-06
2.82889e-07
-1.16571e-06
2.78467e-07
-1.20898e-06
2.74378e-07
-1.25162e-06
2.70553e-07
-1.29367e-06
2.66923e-07
-1.33513e-06
2.63419e-07
-1.376e-06
2.59974e-07
-1.41627e-06
2.56525e-07
-1.45594e-06
2.5301e-07
-1.49497e-06
2.49369e-07
-1.53333e-06
2.45546e-07
-1.57098e-06
2.41483e-07
-1.60787e-06
2.37126e-07
-1.64394e-06
2.32419e-07
-1.67912e-06
2.27308e-07
-1.71333e-06
2.21735e-07
-1.74649e-06
2.15645e-07
-1.77849e-06
2.0898e-07
-1.80923e-06
2.01683e-07
-1.83859e-06
1.93696e-07
-1.86644e-06
1.84962e-07
-1.89263e-06
1.75426e-07
-1.91701e-06
1.65034e-07
-1.93943e-06
1.53734e-07
-1.9597e-06
1.41482e-07
-1.97766e-06
1.28236e-07
-1.99312e-06
1.1396e-07
-2.00588e-06
9.86285e-08
-2.01575e-06
8.22208e-08
-2.02255e-06
6.47283e-08
-2.02606e-06
4.61505e-08
-2.02612e-06
2.64922e-08
-2.02253e-06
5.76427e-09
-2.01514e-06
-1.5928e-08
-2.00383e-06
-3.84447e-08
-1.98845e-06
-6.17208e-08
-1.96889e-06
-8.5692e-08
-1.94505e-06
-1.10281e-07
-1.91683e-06
-1.3539e-07
-1.88417e-06
-1.609e-07
-1.84706e-06
-1.86667e-07
-1.80548e-06
-2.12527e-07
-1.75947e-06
-2.38297e-07
-1.70911e-06
-2.63777e-07
-1.65452e-06
-2.88753e-07
-1.59585e-06
-3.13003e-07
-1.5333e-06
-3.36291e-07
-1.46712e-06
-3.58377e-07
-1.3976e-06
-3.79022e-07
-1.32509e-06
-3.97999e-07
-1.24994e-06
-4.1509e-07
-1.17257e-06
-4.30087e-07
-1.09341e-06
-4.42804e-07
-1.01294e-06
-4.53094e-07
-9.31641e-07
-4.60826e-07
-8.50005e-07
-4.65893e-07
-7.68539e-07
-4.68245e-07
-6.87741e-07
-4.67858e-07
-6.0811e-07
-4.6472e-07
-5.30129e-07
-4.58879e-07
-4.54254e-07
-4.50419e-07
-3.80923e-07
-4.39414e-07
-3.10549e-07
-4.25983e-07
-2.43502e-07
-4.10296e-07
-1.80115e-07
-3.9249e-07
-1.20703e-07
-3.72712e-07
-6.55258e-08
-3.5118e-07
-1.4789e-08
-3.28084e-07
3.132e-08
-3.0356e-07
7.26339e-08
-2.77806e-07
1.09063e-07
-2.51056e-07
1.4059e-07
-2.23492e-07
1.67226e-07
-1.95286e-07
1.89002e-07
-1.66642e-07
2.05991e-07
-1.37752e-07
2.18311e-07
-1.08793e-07
2.26104e-07
-7.99527e-08
2.29542e-07
-5.1427e-08
2.28821e-07
-2.3422e-08
2.2415e-07
3.87175e-09
2.15766e-07
3.02572e-08
2.03942e-07
5.55289e-08
1.88965e-07
7.94776e-08
1.71135e-07
1.01905e-07
1.50763e-07
1.22629e-07
1.2817e-07
1.41492e-07
1.03683e-07
1.58353e-07
7.76251e-08
1.73089e-07
5.03196e-08
1.85621e-07
2.20941e-08
1.95886e-07
-6.70927e-09
2.0384e-07
-3.57546e-08
2.09472e-07
-6.47255e-08
2.12807e-07
-9.33133e-08
2.13883e-07
-1.21216e-07
2.1276e-07
-1.4814e-07
2.09518e-07
-1.73806e-07
2.04253e-07
-1.97942e-07
1.97066e-07
-2.20291e-07
1.88063e-07
-2.40605e-07
1.77357e-07
-2.58651e-07
1.65064e-07
-2.74208e-07
1.51299e-07
-2.87068e-07
1.36175e-07
-2.97033e-07
1.19806e-07
-3.03923e-07
1.02301e-07
-3.07564e-07
8.37615e-08
-3.07796e-07
6.42808e-08
-3.04473e-07
4.39482e-08
-2.97462e-07
2.28612e-08
-2.8674e-07
1.21843e-09
-2.72343e-07
-2.06798e-08
-2.54213e-07
-4.26988e-08
-2.32272e-07
-6.48412e-08
-2.06456e-07
-8.71265e-08
-1.76742e-07
-1.09481e-07
-1.43115e-07
-1.31846e-07
-1.05561e-07
-1.54178e-07
-6.40658e-08
-1.76445e-07
-1.85969e-08
-1.98639e-07
3.08022e-08
-2.2072e-07
8.40286e-08
-2.42568e-07
1.41047e-07
-2.64158e-07
2.01839e-07
-2.85511e-07
2.66325e-07
-3.0658e-07
3.34398e-07
-3.27223e-07
4.05964e-07
-3.47391e-07
4.80877e-07
-3.67157e-07
5.59005e-07
-3.86361e-07
6.40236e-07
-4.04867e-07
7.2439e-07
-4.22728e-07
8.11271e-07
-4.39854e-07
9.00759e-07
-4.56054e-07
9.927e-07
-4.71316e-07
1.08683e-06
-4.85685e-07
1.18294e-06
-4.98944e-07
1.28102e-06
-5.10831e-07
1.38097e-06
-5.21386e-07
1.48258e-06
-5.30784e-07
1.58559e-06
-5.39105e-07
1.68976e-06
-5.46364e-07
1.79488e-06
-5.52547e-07
1.90072e-06
-5.5763e-07
2.00706e-06
-5.61586e-07
2.11369e-06
-5.64393e-07
2.22039e-06
-5.66032e-07
2.32694e-06
-5.66486e-07
2.43312e-06
-5.65746e-07
2.53872e-06
-5.63802e-07
2.6435e-06
-5.6065e-07
2.74726e-06
-5.56287e-07
2.84977e-06
-5.50714e-07
2.95081e-06
-5.43935e-07
3.05016e-06
-5.35959e-07
3.1476e-06
-5.268e-07
3.24292e-06
-5.16476e-07
3.33592e-06
-5.05017e-07
3.42638e-06
-4.9246e-07
3.51413e-06
-4.78851e-07
3.59899e-06
-4.6425e-07
3.68078e-06
-4.48727e-07
3.75936e-06
-4.32367e-07
3.8346e-06
-4.15266e-07
3.90638e-06
-3.97531e-07
3.97464e-06
-3.79283e-07
4.0393e-06
-3.60649e-07
4.10032e-06
-3.41766e-07
4.15771e-06
-3.22777e-07
4.21147e-06
-3.03827e-07
4.26166e-06
-2.85062e-07
4.30836e-06
-2.66627e-07
4.35165e-06
-2.48666e-07
4.39166e-06
-2.31315e-07
4.42853e-06
-2.14708e-07
4.46244e-06
-1.98968e-07
4.49354e-06
-1.84222e-07
4.52201e-06
-1.70594e-07
4.54799e-06
-1.58228e-07
4.57153e-06
-1.47273e-07
4.59247e-06
-1.37964e-07
-1.30212e-07
-5.9958e-08
2.7049e-07
-1.18061e-07
3.15418e-07
-1.74463e-07
3.50872e-07
-2.29757e-07
3.77978e-07
-2.84049e-07
3.97143e-07
-3.3716e-07
4.09245e-07
-3.889e-07
4.15297e-07
-4.39232e-07
4.16308e-07
-4.88238e-07
4.13347e-07
-5.36077e-07
4.07464e-07
-5.83009e-07
3.99582e-07
-6.29179e-07
3.90602e-07
-6.74547e-07
3.81269e-07
-7.19066e-07
3.72046e-07
-7.62726e-07
3.632e-07
-8.05543e-07
3.54878e-07
-8.47552e-07
3.47151e-07
-8.88797e-07
3.40038e-07
-9.29324e-07
3.33522e-07
-9.69176e-07
3.27563e-07
-1.00839e-06
3.22105e-07
-1.047e-06
3.1708e-07
-1.08504e-06
3.12416e-07
-1.12252e-06
3.08035e-07
-1.15946e-06
3.03861e-07
-1.19586e-06
2.99818e-07
-1.23172e-06
2.95833e-07
-1.26703e-06
2.91834e-07
-1.30178e-06
2.87753e-07
-1.33593e-06
2.83523e-07
-1.36946e-06
2.79079e-07
-1.40234e-06
2.74359e-07
-1.43451e-06
2.693e-07
-1.46593e-06
2.63838e-07
-1.49653e-06
2.57911e-07
-1.52625e-06
2.51453e-07
-1.55501e-06
2.444e-07
-1.58271e-06
2.36684e-07
-1.60927e-06
2.28237e-07
-1.63457e-06
2.18992e-07
-1.65848e-06
2.08879e-07
-1.68089e-06
1.97833e-07
-1.70165e-06
1.85789e-07
-1.7206e-06
1.72688e-07
-1.73759e-06
1.58473e-07
-1.75245e-06
1.43095e-07
-1.76501e-06
1.26512e-07
-1.77507e-06
1.0869e-07
-1.78246e-06
8.96082e-08
-1.78699e-06
6.92548e-08
-1.78847e-06
4.76296e-08
-1.78672e-06
2.47419e-08
-1.78158e-06
6.20147e-10
-1.7729e-06
-2.46031e-08
-1.76057e-06
-5.07828e-08
-1.74443e-06
-7.78532e-08
-1.72439e-06
-1.05738e-07
-1.70033e-06
-1.34343e-07
-1.67217e-06
-1.63551e-07
-1.63985e-06
-1.93219e-07
-1.60334e-06
-2.23178e-07
-1.56264e-06
-2.53231e-07
-1.51778e-06
-2.83159e-07
-1.46883e-06
-3.12723e-07
-1.41592e-06
-3.4167e-07
-1.35918e-06
-3.69735e-07
-1.29883e-06
-3.9664e-07
-1.23511e-06
-4.22097e-07
-1.16831e-06
-4.45824e-07
-1.09876e-06
-4.67552e-07
-1.02682e-06
-4.87027e-07
-9.52904e-07
-5.04003e-07
-8.77445e-07
-5.18262e-07
-8.009e-07
-5.29638e-07
-7.23743e-07
-5.37983e-07
-6.46464e-07
-5.43172e-07
-5.69554e-07
-5.45155e-07
-4.93494e-07
-5.43918e-07
-4.18763e-07
-5.39451e-07
-3.45825e-07
-5.31817e-07
-2.75111e-07
-5.21133e-07
-2.07026e-07
-5.07499e-07
-1.41959e-07
-4.9105e-07
-8.02517e-08
-4.72003e-07
-2.21856e-08
-4.50556e-07
3.19636e-08
-4.26862e-07
8.19346e-08
-4.01152e-07
1.27553e-07
-3.73703e-07
1.68723e-07
-3.4473e-07
2.0537e-07
-3.14454e-07
2.37446e-07
-2.83133e-07
2.64952e-07
-2.50998e-07
2.87934e-07
-2.18268e-07
3.06462e-07
-1.85171e-07
3.20641e-07
-1.51931e-07
3.30609e-07
-1.18761e-07
3.36532e-07
-8.58759e-08
3.38599e-07
-5.34943e-08
3.37018e-07
-2.18408e-08
3.32006e-07
8.88324e-09
3.23812e-07
3.84516e-08
3.12708e-07
6.66332e-08
2.9898e-07
9.32065e-08
2.8292e-07
1.17966e-07
2.64823e-07
1.40726e-07
2.44991e-07
1.61326e-07
2.23721e-07
1.79624e-07
2.01307e-07
1.95505e-07
1.78042e-07
2.08887e-07
1.5422e-07
2.19709e-07
1.30126e-07
2.27936e-07
1.06035e-07
2.33564e-07
8.22193e-08
2.36624e-07
5.89413e-08
2.37162e-07
3.64551e-08
2.35247e-07
1.50132e-08
2.30961e-07
-5.13377e-09
2.24401e-07
-2.3748e-08
2.15681e-07
-4.06051e-08
2.0492e-07
-5.54899e-08
1.92242e-07
-6.81964e-08
1.7777e-07
-7.85284e-08
1.61631e-07
-8.62999e-08
1.43947e-07
-9.13352e-08
1.24841e-07
-9.34683e-08
1.04433e-07
-9.25402e-08
8.28331e-08
-8.84027e-08
6.01428e-08
-8.09257e-08
3.64706e-08
-7.00107e-08
1.19455e-08
-5.56958e-08
-1.30973e-08
-3.79893e-08
-3.83872e-08
-1.67798e-08
-6.39093e-08
8.01694e-09
-8.9639e-08
3.64378e-08
-1.15548e-07
6.84966e-08
-1.41541e-07
1.04221e-07
-1.67572e-07
1.43628e-07
-1.93586e-07
1.86724e-07
-2.19543e-07
2.33499e-07
-2.45415e-07
2.83906e-07
-2.71129e-07
3.37901e-07
-2.96566e-07
3.95441e-07
-3.217e-07
4.56456e-07
-3.46528e-07
5.20854e-07
-3.70979e-07
5.88551e-07
-3.94921e-07
6.59459e-07
-4.18301e-07
7.33429e-07
-4.41128e-07
8.10333e-07
-4.63267e-07
8.90063e-07
-4.84599e-07
9.72455e-07
-5.05122e-07
1.05734e-06
-5.24738e-07
1.14459e-06
-5.43304e-07
1.23405e-06
-5.6078e-07
1.32551e-06
-5.77148e-07
1.41881e-06
-5.92244e-07
1.51387e-06
-6.05894e-07
1.61059e-06
-6.18105e-07
1.70877e-06
-6.28969e-07
1.8082e-06
-6.38538e-07
1.90866e-06
-6.46826e-07
2.00994e-06
-6.53823e-07
2.11181e-06
-6.59508e-07
2.21408e-06
-6.63858e-07
2.31654e-06
-6.6685e-07
2.41897e-06
-6.68465e-07
2.52117e-06
-6.68688e-07
2.62292e-06
-6.67506e-07
2.72403e-06
-6.64909e-07
2.82427e-06
-6.60893e-07
2.92343e-06
-6.55453e-07
3.02131e-06
-6.48591e-07
3.11768e-06
-6.40311e-07
3.21234e-06
-6.30623e-07
3.30508e-06
-6.19543e-07
3.3957e-06
-6.07093e-07
3.48399e-06