/*--------------------------------*- C++ -*----------------------------------*\
  =========                 |
  \\      /  F ield         | OpenFOAM: The Open Source CFD Toolbox
   \\    /   O peration     | Website:  https://openfoam.org
    \\  /    A nd           | Version:  7
     \\/     M anipulation  |
\*---------------------------------------------------------------------------*/
FoamFile
{
    version     2.0;
    format      ascii;
    class       volVectorField;
    location    "450";
    object      U;
}
// * * * * * * * * * * * * * * * * * * * * * * * * * * * * * * * * * * * * * //

dimensions      [0 1 -1 0 0 0 0];

internalField   nonuniform List<vector> 
16900
(
(0.00379508 -0.00496846 0)
(-0.0125837 0.0238488 0)
(-0.0566288 0.0396886 0)
(-0.114262 0.0463548 0)
(-0.178992 0.0497199 0)
(-0.248757 0.0529737 0)
(-0.321454 0.0578675 0)
(-0.39526 0.0659916 0)
(-0.470146 0.0799184 0)
(-0.544667 0.098974 0)
(-0.624576 0.0805071 0)
(-0.704525 0.0484894 0)
(-0.774735 0.046665 0)
(-0.844721 0.0453694 0)
(-0.913117 0.0439895 0)
(-0.979891 0.0426477 0)
(-1.04511 0.0414009 0)
(-1.10888 0.0402675 0)
(-1.17134 0.039247 0)
(-1.23262 0.0383291 0)
(-1.29285 0.0375043 0)
(-1.35212 0.0367569 0)
(-1.41053 0.0360774 0)
(-1.46816 0.0354498 0)
(-1.52507 0.0348657 0)
(-1.58129 0.0343105 0)
(-1.63686 0.0337754 0)
(-1.69179 0.0332505 0)
(-1.74609 0.0327275 0)
(-1.79973 0.0321985 0)
(-1.8527 0.0316557 0)
(-1.90495 0.031092 0)
(-1.95643 0.0305004 0)
(-2.00709 0.0298744 0)
(-2.05685 0.0292077 0)
(-2.10562 0.0284938 0)
(-2.15332 0.0277268 0)
(-2.19983 0.0269004 0)
(-2.24505 0.0260084 0)
(-2.28884 0.0250449 0)
(-2.33107 0.0240038 0)
(-2.37158 0.0228793 0)
(-2.41022 0.0216655 0)
(-2.44682 0.0203572 0)
(-2.48119 0.0189489 0)
(-2.51315 0.0174358 0)
(-2.54251 0.0158136 0)
(-2.56905 0.0140784 0)
(-2.59258 0.0122266 0)
(-2.61287 0.0102551 0)
(-2.6297 0.00816095 0)
(-2.64287 0.00593938 0)
(-2.65217 0.00358157 0)
(-2.65737 0.00108607 0)
(-2.65818 -0.0015197 0)
(-2.65445 -0.00420115 0)
(-2.64607 -0.00695948 0)
(-2.63289 -0.0098067 0)
(-2.61478 -0.0127377 0)
(-2.59162 -0.0157435 0)
(-2.56333 -0.0188128 0)
(-2.52982 -0.0219315 0)
(-2.49108 -0.025084 0)
(-2.4471 -0.0282519 0)
(-2.39793 -0.0314155 0)
(-2.34363 -0.0345527 0)
(-2.28433 -0.0376405 0)
(-2.22021 -0.0406539 0)
(-2.15149 -0.0435679 0)
(-2.07841 -0.0463563 0)
(-2.0013 -0.0489938 0)
(-1.92051 -0.0514547 0)
(-1.83642 -0.0537152 0)
(-1.74947 -0.0557526 0)
(-1.66012 -0.0575459 0)
(-1.56885 -0.0590763 0)
(-1.47619 -0.0603286 0)
(-1.38263 -0.0612891 0)
(-1.28873 -0.061947 0)
(-1.19501 -0.0622952 0)
(-1.102 -0.0623289 0)
(-1.01021 -0.0620441 0)
(-0.920144 -0.0614411 0)
(-0.832289 -0.0605219 0)
(-0.747102 -0.0592869 0)
(-0.665018 -0.0577397 0)
(-0.586443 -0.0558873 0)
(-0.511751 -0.0537316 0)
(-0.441296 -0.0512744 0)
(-0.375401 -0.0485269 0)
(-0.314353 -0.0454948 0)
(-0.258417 -0.0421748 0)
(-0.207844 -0.0385775 0)
(-0.162855 -0.0347202 0)
(-0.123634 -0.0306116 0)
(-0.0903444 -0.0262656 0)
(-0.0631403 -0.0217023 0)
(-0.0421554 -0.0169497 0)
(-0.0274911 -0.0120781 0)
(-0.0191445 -0.00718087 0)
(-0.0170056 -0.00232785 0)
(-0.0210302 0.00241803 0)
(-0.0310871 0.00697941 0)
(-0.0469655 0.0112896 0)
(-0.0683962 0.0152904 0)
(-0.0950589 0.0189369 0)
(-0.126583 0.0221938 0)
(-0.162546 0.0250342 0)
(-0.202481 0.0274417 0)
(-0.245882 0.0294094 0)
(-0.292211 0.0309404 0)
(-0.340908 0.0320459 0)
(-0.391407 0.0327468 0)
(-0.443141 0.0330693 0)
(-0.495556 0.0330436 0)
(-0.548113 0.0326999 0)
(-0.600303 0.0320697 0)
(-0.651639 0.0311825 0)
(-0.701668 0.0300681 0)
(-0.749968 0.0287529 0)
(-0.796153 0.0272633 0)
(-0.839875 0.025621 0)
(-0.880818 0.0238469 0)
(-0.918696 0.0219583 0)
(-0.953248 0.0199748 0)
(-0.984233 0.0179145 0)
(-1.01145 0.0157913 0)
(-1.03472 0.0136031 0)
(-1.05391 0.011338 0)
(-1.0689 0.00898829 0)
(-1.07952 0.0065775 0)
(-1.08564 0.00415638 0)
(-1.08713 0.00176496 0)
(-1.08412 -0.00058434 0)
(-1.07668 -0.00290469 0)
(-1.06484 -0.00521772 0)
(-1.0486 -0.0075246 0)
(-1.028 -0.00982842 0)
(-1.00308 -0.0121311 0)
(-0.973852 -0.0144489 0)
(-0.940327 -0.016776 0)
(-0.902573 -0.0190919 0)
(-0.860707 -0.0213925 0)
(-0.814775 -0.0237211 0)
(-0.764761 -0.026098 0)
(-0.710785 -0.0284558 0)
(-0.653047 -0.0307933 0)
(-0.591463 -0.0332598 0)
(-0.526056 -0.0358312 0)
(-0.457193 -0.0384037 0)
(-0.384921 -0.0411163 0)
(-0.308551 -0.0441292 0)
(-0.229031 -0.0474298 0)
(-0.146827 -0.0509781 0)
(-0.0625229 -0.0540009 0)
(0.0308298 -0.0548466 0)
(0.121086 -0.0541837 0)
(0.213829 -0.0535675 0)
(0.30827 -0.053011 0)
(0.404248 -0.0524822 0)
(0.501619 -0.0519545 0)
(0.60021 -0.0514083 0)
(0.699829 -0.0508308 0)
(0.80027 -0.0502128 0)
(0.90132 -0.0495487 0)
(1.00276 -0.0488344 0)
(1.10436 -0.0480677 0)
(1.20591 -0.0472466 0)
(1.30717 -0.0463703 0)
(1.40791 -0.0454382 0)
(1.50792 -0.0444504 0)
(1.60695 -0.0434068 0)
(1.70479 -0.0423083 0)
(1.8012 -0.0411557 0)
(1.89598 -0.0399506 0)
(1.9889 -0.0386947 0)
(2.07974 -0.0373907 0)
(2.16832 -0.0360417 0)
(2.25442 -0.0346515 0)
(2.33787 -0.0332249 0)
(2.4185 -0.0317672 0)
(2.49616 -0.0302849 0)
(2.5707 -0.0287848 0)
(2.64201 -0.0272746 0)
(2.71001 -0.0257624 0)
(2.77462 -0.024257 0)
(2.8358 -0.0227673 0)
(2.89354 -0.0213025 0)
(2.94785 -0.0198716 0)
(2.99878 -0.0184837 0)
(3.04638 -0.0171475 0)
(3.09075 -0.0158717 0)
(3.13203 -0.0146646 0)
(3.17036 -0.0135351 0)
(3.20593 -0.0124941 0)
(3.23896 -0.0115584 0)
(3.26975 -0.0107619 0)
(3.29877 -0.0101821 0)
(3.32627 -0.0100825 0)
(3.36323 -0.0111975 0)
(-0.0227486 0.0142741 0)
(-0.0501094 0.0564822 0)
(-0.0966486 0.0823237 0)
(-0.153279 0.095912 0)
(-0.216869 0.103154 0)
(-0.285194 0.107652 0)
(-0.355952 0.11131 0)
(-0.428393 0.11451 0)
(-0.500345 0.117405 0)
(-0.570686 0.120067 0)
(-0.642879 0.119866 0)
(-0.714646 0.115346 0)
(-0.783935 0.112239 0)
(-0.850348 0.109199 0)
(-0.914636 0.106176 0)
(-0.977208 0.10329 0)
(-1.03825 0.100601 0)
(-1.0979 0.0981319 0)
(-1.15629 0.0958822 0)
(-1.21355 0.093837 0)
(-1.26978 0.0919779 0)
(-1.32508 0.0902785 0)
(-1.37952 0.0887165 0)
(-1.43317 0.0872632 0)
(-1.48608 0.0858965 0)
(-1.53829 0.0845895 0)
(-1.58982 0.0833191 0)
(-1.64068 0.082064 0)
(-1.69087 0.0808043 0)
(-1.74036 0.0795213 0)
(-1.78913 0.078197 0)
(-1.83714 0.0768144 0)
(-1.88434 0.0753571 0)
(-1.93066 0.0738093 0)
(-1.97604 0.0721558 0)
(-2.02038 0.0703817 0)
(-2.0636 0.0684722 0)
(-2.10559 0.0664128 0)
(-2.14623 0.064189 0)
(-2.18541 0.0617869 0)
(-2.22297 0.0591926 0)
(-2.25877 0.056393 0)
(-2.29267 0.0533756 0)
(-2.32449 0.0501289 0)
(-2.35405 0.0466423 0)
(-2.38118 0.0429066 0)
(-2.40568 0.038914 0)
(-2.42737 0.0346588 0)
(-2.44604 0.0301369 0)
(-2.46148 0.0253463 0)
(-2.4735 0.0202867 0)
(-2.48191 0.0149558 0)
(-2.48652 0.00934376 0)
(-2.48711 0.00344823 0)
(-2.48341 -0.0026804 0)
(-2.47541 -0.0089715 0)
(-2.46293 -0.0154107 0)
(-2.44585 -0.021995 0)
(-2.42405 -0.0287049 0)
(-2.39744 -0.0355129 0)
(-2.36595 -0.042385 0)
(-2.32956 -0.0492826 0)
(-2.28824 -0.0561619 0)
(-2.24202 -0.0629755 0)
(-2.19098 -0.0696722 0)
(-2.13523 -0.0761982 0)
(-2.07489 -0.0824971 0)
(-2.01018 -0.0885114 0)
(-1.94133 -0.0941837 0)
(-1.86861 -0.099458 0)
(-1.79235 -0.10428 0)
(-1.71292 -0.1086 0)
(-1.6307 -0.112371 0)
(-1.54614 -0.115554 0)
(-1.45969 -0.118115 0)
(-1.37184 -0.120027 0)
(-1.28309 -0.121274 0)
(-1.19394 -0.121844 0)
(-1.1049 -0.121733 0)
(-1.01651 -0.12095 0)
(-0.929242 -0.119505 0)
(-0.843607 -0.117415 0)
(-0.760077 -0.114707 0)
(-0.679102 -0.11141 0)
(-0.60111 -0.107554 0)
(-0.526503 -0.103172 0)
(-0.455652 -0.098306 0)
(-0.388893 -0.09299 0)
(-0.326535 -0.0872539 0)
(-0.268859 -0.0811427 0)
(-0.216102 -0.0746927 0)
(-0.168472 -0.0679253 0)
(-0.126158 -0.0608761 0)
(-0.0893113 -0.0535877 0)
(-0.0580326 -0.0460858 0)
(-0.032395 -0.0384005 0)
(-0.0124553 -0.0305728 0)
(0.00178289 -0.0226489 0)
(0.0103536 -0.0147123 0)
(0.0133769 -0.00686443 0)
(0.0110271 0.000832699 0)
(0.00341872 0.00831438 0)
(-0.00923043 0.015496 0)
(-0.0266706 0.0223002 0)
(-0.0485937 0.0286549 0)
(-0.0746609 0.0345025 0)
(-0.104503 0.0397932 0)
(-0.137715 0.044483 0)
(-0.173875 0.0485384 0)
(-0.212538 0.0519369 0)
(-0.253247 0.0546652 0)
(-0.295534 0.0567219 0)
(-0.338932 0.0581165 0)
(-0.382978 0.0588707 0)
(-0.427218 0.0590125 0)
(-0.471215 0.0585756 0)
(-0.514546 0.0575962 0)
(-0.556808 0.0561137 0)
(-0.597621 0.0541683 0)
(-0.636627 0.0518014 0)
(-0.673494 0.0490536 0)
(-0.707916 0.0459642 0)
(-0.739617 0.0425692 0)
(-0.768339 0.0389027 0)
(-0.793842 0.0349994 0)
(-0.815906 0.0308967 0)
(-0.834342 0.0266278 0)
(-0.848995 0.0222093 0)
(-0.859734 0.0176401 0)
(-0.866426 0.0129242 0)
(-0.868921 0.00810176 0)
(-0.867066 0.00323775 0)
(-0.861017 -0.00157649 0)
(-0.850822 -0.00630436 0)
(-0.836397 -0.0109796 0)
(-0.817725 -0.0156092 0)
(-0.794813 -0.0201868 0)
(-0.767681 -0.0247083 0)
(-0.736363 -0.0291695 0)
(-0.700877 -0.0335946 0)
(-0.661227 -0.0379709 0)
(-0.617453 -0.0422522 0)
(-0.569654 -0.0464149 0)
(-0.517886 -0.0505131 0)
(-0.462125 -0.0545952 0)
(-0.402479 -0.0585627 0)
(-0.339116 -0.0623661 0)
(-0.271874 -0.0661705 0)
(-0.200923 -0.0699937 0)
(-0.126624 -0.0737091 0)
(-0.0488001 -0.0773225 0)
(0.0338131 -0.0808752 0)
(0.118501 -0.0843564 0)
(0.205826 -0.0879944 0)
(0.295514 -0.0913965 0)
(0.388398 -0.0935253 0)
(0.482818 -0.0946896 0)
(0.579142 -0.0957435 0)
(0.677136 -0.0966847 0)
(0.776613 -0.0975009 0)
(0.877391 -0.0981689 0)
(0.979282 -0.0986689 0)
(1.08209 -0.0989874 0)
(1.1856 -0.0991155 0)
(1.28962 -0.0990482 0)
(1.39392 -0.0987824 0)
(1.49828 -0.0983169 0)
(1.60249 -0.0976514 0)
(1.70632 -0.0967868 0)
(1.80955 -0.0957242 0)
(1.91196 -0.0944657 0)
(2.01332 -0.0930136 0)
(2.11342 -0.0913712 0)
(2.21202 -0.0895423 0)
(2.30892 -0.0875318 0)
(2.40391 -0.0853458 0)
(2.49677 -0.0829916 0)
(2.58731 -0.0804784 0)
(2.67534 -0.0778166 0)
(2.76068 -0.0750191 0)
(2.84316 -0.0721002 0)
(2.92265 -0.0690764 0)
(2.999 -0.0659659 0)
(3.0721 -0.0627887 0)
(3.14188 -0.059566 0)
(3.20827 -0.0563203 0)
(3.27123 -0.0530747 0)
(3.33074 -0.0498531 0)
(3.38682 -0.0466791 0)
(3.43952 -0.0435764 0)
(3.48889 -0.040568 0)
(3.53504 -0.0376765 0)
(3.57808 -0.034924 0)
(3.61816 -0.0323339 0)
(3.65545 -0.0299334 0)
(3.69015 -0.0277627 0)
(3.72251 -0.0258945 0)
(3.75284 -0.0244847 0)
(3.78102 -0.0240353 0)
(3.81484 -0.0252035 0)
(-0.0355981 0.058812 0)
(-0.0715646 0.106083 0)
(-0.122148 0.1392 0)
(-0.179135 0.160516 0)
(-0.240937 0.174547 0)
(-0.306177 0.184453 0)
(-0.372867 0.191492 0)
(-0.439868 0.195514 0)
(-0.505925 0.196728 0)
(-0.570317 0.195083 0)
(-0.634042 0.19 0)
(-0.697402 0.18335 0)
(-0.759524 0.17752 0)
(-0.81983 0.172165 0)
(-0.878498 0.167151 0)
(-0.935709 0.162484 0)
(-0.991591 0.158178 0)
(-1.04626 0.154231 0)
(-1.09981 0.15063 0)
(-1.15235 0.147347 0)
(-1.20397 0.14435 0)
(-1.25473 0.1416 0)
(-1.30472 0.139059 0)
(-1.35397 0.136686 0)
(-1.40254 0.134442 0)
(-1.45045 0.13229 0)
(-1.49771 0.130191 0)
(-1.54434 0.128114 0)
(-1.59032 0.126025 0)
(-1.63563 0.123896 0)
(-1.68024 0.121697 0)
(-1.72413 0.119402 0)
(-1.76723 0.116985 0)
(-1.80948 0.11442 0)
(-1.85082 0.111683 0)
(-1.89117 0.108751 0)
(-1.93043 0.105598 0)
(-1.96851 0.102203 0)
(-2.0053 0.0985423 0)
(-2.04066 0.0945932 0)
(-2.07448 0.0903342 0)
(-2.10661 0.0857447 0)
(-2.13689 0.0808053 0)
(-2.16518 0.0754982 0)
(-2.19129 0.0698076 0)
(-2.21505 0.06372 0)
(-2.23628 0.0572248 0)
(-2.25479 0.0503141 0)
(-2.27038 0.0429834 0)
(-2.28287 0.0352318 0)
(-2.29205 0.0270617 0)
(-2.29773 0.018474 0)
(-2.29976 0.00946728 0)
(-2.29787 6.28309e-05 0)
(-2.29199 -0.0096575 0)
(-2.28195 -0.0196257 0)
(-2.26762 -0.0298243 0)
(-2.24888 -0.0402281 0)
(-2.22565 -0.0507985 0)
(-2.19783 -0.0614872 0)
(-2.16538 -0.0722363 0)
(-2.12827 -0.0829808 0)
(-2.08651 -0.0936479 0)
(-2.04013 -0.104159 0)
(-1.98923 -0.114432 0)
(-1.93391 -0.124378 0)
(-1.87434 -0.133907 0)
(-1.81073 -0.142929 0)
(-1.74331 -0.151352 0)
(-1.67238 -0.15909 0)
(-1.59826 -0.16606 0)
(-1.52132 -0.172187 0)
(-1.44197 -0.177401 0)
(-1.36062 -0.181647 0)
(-1.27775 -0.184878 0)
(-1.19382 -0.187058 0)
(-1.10932 -0.18817 0)
(-1.02476 -0.188205 0)
(-0.940617 -0.187166 0)
(-0.857401 -0.185073 0)
(-0.775588 -0.181956 0)
(-0.695646 -0.17785 0)
(-0.618026 -0.172805 0)
(-0.54315 -0.166879 0)
(-0.471412 -0.160129 0)
(-0.40318 -0.152616 0)
(-0.338793 -0.144418 0)
(-0.278544 -0.135598 0)
(-0.222702 -0.126212 0)
(-0.171505 -0.116343 0)
(-0.125147 -0.106056 0)
(-0.083773 -0.0953986 0)
(-0.0475257 -0.0844364 0)
(-0.016505 -0.0732433 0)
(0.00926807 -0.0618674 0)
(0.0297873 -0.0503578 0)
(0.0450396 -0.0388061 0)
(0.0551316 -0.0272807 0)
(0.0601738 -0.0158816 0)
(0.0603504 -0.00471305 0)
(0.0558387 0.00615336 0)
(0.046815 0.0166358 0)
(0.033504 0.0266394 0)
(0.0161418 0.0360734 0)
(-0.00493838 0.0448372 0)
(-0.0294079 0.0528654 0)
(-0.0569193 0.0600974 0)
(-0.0870854 0.0664753 0)
(-0.119521 0.0719575 0)
(-0.153834 0.0765154 0)
(-0.189622 0.0801308 0)
(-0.226479 0.082799 0)
(-0.264003 0.0845298 0)
(-0.301802 0.0853479 0)
(-0.339492 0.0852878 0)
(-0.376699 0.0843915 0)
(-0.413065 0.0827057 0)
(-0.448246 0.0802816 0)
(-0.481915 0.0771734 0)
(-0.513762 0.0734372 0)
(-0.543496 0.0691291 0)
(-0.57085 0.0643041 0)
(-0.595575 0.0590138 0)
(-0.617439 0.0533082 0)
(-0.636224 0.047238 0)
(-0.651726 0.0408553 0)
(-0.663771 0.0342037 0)
(-0.672216 0.0273083 0)
(-0.676936 0.0201829 0)
(-0.677788 0.0128645 0)
(-0.674609 0.00543959 0)
(-0.66739 -0.00197947 0)
(-0.656285 -0.00932405 0)
(-0.641179 -0.0166079 0)
(-0.622031 -0.0238437 0)
(-0.598823 -0.0310155 0)
(-0.571554 -0.038105 0)
(-0.540229 -0.0451011 0)
(-0.504881 -0.0519925 0)
(-0.465519 -0.0588119 0)
(-0.422155 -0.0655407 0)
(-0.374814 -0.0721141 0)
(-0.323574 -0.0785036 0)
(-0.268472 -0.084756 0)
(-0.20946 -0.0909293 0)
(-0.146743 -0.0969418 0)
(-0.0804182 -0.102761 0)
(-0.0100633 -0.108443 0)
(0.0638254 -0.113963 0)
(0.140716 -0.119325 0)
(0.220697 -0.12445 0)
(0.303979 -0.129166 0)
(0.389974 -0.133591 0)
(0.478432 -0.137932 0)
(0.56905 -0.141915 0)
(0.662029 -0.14513 0)
(0.757086 -0.147724 0)
(0.854069 -0.150018 0)
(0.952703 -0.152052 0)
(1.05275 -0.153815 0)
(1.15401 -0.155288 0)
(1.25627 -0.156452 0)
(1.35933 -0.157293 0)
(1.46298 -0.157803 0)
(1.56701 -0.157977 0)
(1.6712 -0.157811 0)
(1.77535 -0.157306 0)
(1.87923 -0.156461 0)
(1.98263 -0.155279 0)
(2.08532 -0.153762 0)
(2.1871 -0.151913 0)
(2.28773 -0.149738 0)
(2.38701 -0.147242 0)
(2.48472 -0.144432 0)
(2.58064 -0.141317 0)
(2.67457 -0.137906 0)
(2.7663 -0.134212 0)
(2.85566 -0.130252 0)
(2.94244 -0.126042 0)
(3.02648 -0.121603 0)
(3.10762 -0.116961 0)
(3.18571 -0.112141 0)
(3.26065 -0.107175 0)
(3.33231 -0.102093 0)
(3.40063 -0.0969328 0)
(3.46554 -0.0917292 0)
(3.52701 -0.0865202 0)
(3.58505 -0.0813444 0)
(3.63965 -0.07624 0)
(3.69089 -0.0712453 0)
(3.73882 -0.0663971 0)
(3.78354 -0.0617316 0)
(3.82517 -0.0572836 0)
(3.86386 -0.0530891 0)
(3.89977 -0.0491876 0)
(3.93308 -0.0456326 0)
(3.964 -0.0425105 0)
(3.99276 -0.0399833 0)
(4.01895 -0.0384569 0)
(4.04893 -0.0383154 0)
(-0.0407209 0.113379 0)
(-0.0823047 0.160824 0)
(-0.13623 0.196471 0)
(-0.193577 0.221618 0)
(-0.253199 0.23898 0)
(-0.314388 0.250762 0)
(-0.375786 0.258026 0)
(-0.436526 0.261043 0)
(-0.496133 0.260408 0)
(-0.554404 0.256786 0)
(-0.611736 0.250561 0)
(-0.668424 0.243124 0)
(-0.724161 0.2358 0)
(-0.778648 0.228815 0)
(-0.831878 0.222231 0)
(-0.883911 0.216095 0)
(-0.934821 0.210425 0)
(-0.984686 0.205219 0)
(-1.03359 0.200456 0)
(-1.0816 0.196101 0)
(-1.12879 0.192112 0)
(-1.17523 0.188439 0)
(-1.22096 0.185033 0)
(-1.26603 0.181841 0)
(-1.31047 0.178814 0)
(-1.35429 0.1759 0)
(-1.39752 0.173055 0)
(-1.44015 0.170232 0)
(-1.48217 0.16739 0)
(-1.52356 0.16449 0)
(-1.56429 0.161493 0)
(-1.60433 0.158365 0)
(-1.64363 0.15507 0)
(-1.68213 0.151575 0)
(-1.71977 0.147846 0)
(-1.75646 0.143851 0)
(-1.79214 0.139558 0)
(-1.82669 0.134935 0)
(-1.86001 0.129951 0)
(-1.892 0.124575 0)
(-1.92251 0.118777 0)
(-1.95142 0.112529 0)
(-1.97859 0.105803 0)
(-2.00384 0.0985764 0)
(-2.02703 0.0908265 0)
(-2.04798 0.0825354 0)
(-2.0665 0.0736884 0)
(-2.08242 0.0642752 0)
(-2.09555 0.0542904 0)
(-2.1057 0.0437342 0)
(-2.11266 0.0326108 0)
(-2.11628 0.0209234 0)
(-2.11638 0.00867772 0)
(-2.1127 -0.00407268 0)
(-2.10521 -0.017231 0)
(-2.09373 -0.0307348 0)
(-2.07815 -0.0445487 0)
(-2.05834 -0.0586303 0)
(-2.03421 -0.072924 0)
(-2.0057 -0.0873611 0)
(-1.97276 -0.101861 0)
(-1.93537 -0.116333 0)
(-1.89354 -0.130677 0)
(-1.84733 -0.144783 0)
(-1.79682 -0.158537 0)
(-1.74213 -0.171819 0)
(-1.68344 -0.184506 0)
(-1.62096 -0.196471 0)
(-1.55493 -0.207593 0)
(-1.48566 -0.217754 0)
(-1.41347 -0.226842 0)
(-1.33874 -0.234756 0)
(-1.26187 -0.241405 0)
(-1.18329 -0.246717 0)
(-1.10345 -0.250631 0)
(-1.02283 -0.253102 0)
(-0.941912 -0.25411 0)
(-0.86118 -0.253649 0)
(-0.78112 -0.251726 0)
(-0.702214 -0.248374 0)
(-0.624924 -0.243641 0)
(-0.549697 -0.237576 0)
(-0.47696 -0.230251 0)
(-0.407111 -0.221756 0)
(-0.340511 -0.212168 0)
(-0.277499 -0.201575 0)
(-0.218382 -0.19009 0)
(-0.163417 -0.177803 0)
(-0.112823 -0.164796 0)
(-0.0668134 -0.151183 0)
(-0.0255405 -0.137064 0)
(0.0109237 -0.122501 0)
(0.042462 -0.107591 0)
(0.0690023 -0.0924631 0)
(0.0906165 -0.0771943 0)
(0.107363 -0.0618688 0)
(0.11932 -0.0465823 0)
(0.126602 -0.0314412 0)
(0.129351 -0.0165678 0)
(0.127793 -0.00207341 0)
(0.122087 0.0119493 0)
(0.112471 0.025392 0)
(0.0991941 0.0381368 0)
(0.082525 0.0500741 0)
(0.0627594 0.0611029 0)
(0.0401966 0.0711407 0)
(0.0151279 0.0801199 0)
(-0.0120406 0.0879601 0)
(-0.0409681 0.0946269 0)
(-0.0713064 0.100093 0)
(-0.102699 0.104344 0)
(-0.134781 0.107379 0)
(-0.167202 0.109213 0)
(-0.199622 0.109882 0)
(-0.231709 0.109428 0)
(-0.26314 0.107904 0)
(-0.293603 0.10537 0)
(-0.322799 0.101888 0)
(-0.350442 0.0975261 0)
(-0.376258 0.0923534 0)
(-0.399991 0.0864395 0)
(-0.4214 0.0798524 0)
(-0.440261 0.0726566 0)
(-0.456364 0.0649159 0)
(-0.469504 0.0566956 0)
(-0.479495 0.0480589 0)
(-0.486177 0.0390543 0)
(-0.489419 0.02971 0)
(-0.48909 0.0200583 0)
(-0.485024 0.0101805 0)
(-0.477083 0.000215675 0)
(-0.465507 -0.00971418 0)
(-0.450161 -0.019584 0)
(-0.430978 -0.0294132 0)
(-0.407922 -0.0391981 0)
(-0.380973 -0.048909 0)
(-0.350125 -0.0585188 0)
(-0.315371 -0.0680121 0)
(-0.276735 -0.0773718 0)
(-0.234201 -0.086629 0)
(-0.187816 -0.0957624 0)
(-0.137608 -0.104708 0)
(-0.0836286 -0.113458 0)
(-0.0258501 -0.122034 0)
(0.035868 -0.130446 0)
(0.100944 -0.13862 0)
(0.169447 -0.146601 0)
(0.2414 -0.154294 0)
(0.316618 -0.161644 0)
(0.394862 -0.168754 0)
(0.475959 -0.175535 0)
(0.559881 -0.18183 0)
(0.646423 -0.18771 0)
(0.735284 -0.193281 0)
(0.826188 -0.198324 0)
(0.919174 -0.202596 0)
(1.01418 -0.206205 0)
(1.11102 -0.209343 0)
(1.20943 -0.212064 0)
(1.30917 -0.214373 0)
(1.41001 -0.216257 0)
(1.51174 -0.217703 0)
(1.61416 -0.2187 0)
(1.71705 -0.219238 0)
(1.82021 -0.219314 0)
(1.92343 -0.218923 0)
(2.02649 -0.218068 0)
(2.12918 -0.216747 0)
(2.23128 -0.214965 0)
(2.33259 -0.212726 0)
(2.43289 -0.210034 0)
(2.53196 -0.206895 0)
(2.62959 -0.203319 0)
(2.72556 -0.199315 0)
(2.81968 -0.194895 0)
(2.91173 -0.190073 0)
(3.00152 -0.184868 0)
(3.08886 -0.179301 0)
(3.17357 -0.173398 0)
(3.25548 -0.167187 0)
(3.33444 -0.160702 0)
(3.41032 -0.153982 0)
(3.48299 -0.147067 0)
(3.55236 -0.140004 0)
(3.61835 -0.132839 0)
(3.68092 -0.125624 0)
(3.74003 -0.118409 0)
(3.79569 -0.111249 0)
(3.84793 -0.104193 0)
(3.89679 -0.0972956 0)
(3.94235 -0.0906049 0)
(3.98472 -0.0841698 0)
(4.02402 -0.078036 0)
(4.06039 -0.0722496 0)
(4.094 -0.066858 0)
(4.12501 -0.0619197 0)
(4.1536 -0.0575171 0)
(4.17993 -0.0537806 0)
(4.20353 -0.050978 0)
(4.22987 -0.0492374 0)
(-0.0421516 0.171868 0)
(-0.086659 0.217784 0)
(-0.142215 0.253345 0)
(-0.198935 0.279634 0)
(-0.255835 0.29805 0)
(-0.312686 0.310032 0)
(-0.368801 0.316576 0)
(-0.423763 0.318335 0)
(-0.477487 0.316172 0)
(-0.530028 0.311064 0)
(-0.58165 0.30382 0)
(-0.632544 0.295521 0)
(-0.682599 0.287064 0)
(-0.731666 0.278832 0)
(-0.779714 0.271004 0)
(-0.826767 0.263671 0)
(-0.87287 0.256871 0)
(-0.918079 0.250606 0)
(-0.962453 0.244856 0)
(-1.00605 0.239582 0)
(-1.04893 0.234734 0)
(-1.09113 0.230257 0)
(-1.13269 0.22609 0)
(-1.17366 0.222172 0)
(-1.21404 0.218445 0)
(-1.25387 0.214848 0)
(-1.29313 0.211326 0)
(-1.33183 0.207827 0)
(-1.36996 0.204298 0)
(-1.4075 0.200694 0)
(-1.44442 0.196968 0)
(-1.48068 0.193076 0)
(-1.51625 0.188977 0)
(-1.55106 0.184628 0)
(-1.58506 0.179989 0)
(-1.61818 0.175021 0)
(-1.65034 0.169681 0)
(-1.68144 0.163931 0)
(-1.7114 0.157731 0)
(-1.7401 0.151041 0)
(-1.76742 0.143824 0)
(-1.79323 0.136044 0)
(-1.81739 0.127666 0)
(-1.83976 0.11866 0)
(-1.86017 0.108997 0)
(-1.87845 0.0986545 0)
(-1.89444 0.087614 0)
(-1.90795 0.0758626 0)
(-1.9188 0.0633938 0)
(-1.92679 0.0502091 0)
(-1.93175 0.0363155 0)
(-1.93352 0.0217198 0)
(-1.9319 0.00643563 0)
(-1.92666 -0.009455 0)
(-1.91777 -0.0258394 0)
(-1.90507 -0.0426596 0)
(-1.88843 -0.0598658 0)
(-1.86773 -0.0773996 0)
(-1.8429 -0.0951879 0)
(-1.81386 -0.113143 0)
(-1.78056 -0.131161 0)
(-1.74299 -0.149127 0)
(-1.70118 -0.166912 0)
(-1.65516 -0.184378 0)
(-1.60503 -0.201378 0)
(-1.55092 -0.217762 0)
(-1.49301 -0.233372 0)
(-1.4315 -0.248051 0)
(-1.36666 -0.261644 0)
(-1.29879 -0.274004 0)
(-1.22822 -0.284994 0)
(-1.15533 -0.294484 0)
(-1.08053 -0.302365 0)
(-1.00424 -0.308549 0)
(-0.926935 -0.312963 0)
(-0.849072 -0.315554 0)
(-0.771138 -0.316303 0)
(-0.693608 -0.315208 0)
(-0.616964 -0.312281 0)
(-0.541674 -0.307568 0)
(-0.468187 -0.30114 0)
(-0.39693 -0.29306 0)
(-0.328309 -0.283424 0)
(-0.262702 -0.272355 0)
(-0.200443 -0.259952 0)
(-0.141828 -0.246327 0)
(-0.0871503 -0.231629 0)
(-0.0366378 -0.215981 0)
(0.00957429 -0.199471 0)
(0.051262 -0.18225 0)
(0.088294 -0.164477 0)
(0.120672 -0.146256 0)
(0.148369 -0.127702 0)
(0.171394 -0.108948 0)
(0.189818 -0.0901183 0)
(0.203732 -0.0713252 0)
(0.213257 -0.052685 0)
(0.21853 -0.0343252 0)
(0.219721 -0.0163831 0)
(0.217078 0.00102415 0)
(0.210763 0.0177816 0)
(0.20104 0.0337597 0)
(0.188172 0.0488278 0)
(0.172438 0.062865 0)
(0.154131 0.0757619 0)
(0.13355 0.0874253 0)
(0.110998 0.0977772 0)
(0.0867964 0.106754 0)
(0.0612531 0.114314 0)
(0.0346616 0.120431 0)
(0.0073336 0.125093 0)
(-0.0203718 0.1283 0)
(-0.048155 0.130082 0)
(-0.075718 0.130479 0)
(-0.102773 0.129544 0)
(-0.129039 0.127338 0)
(-0.15424 0.123931 0)
(-0.178109 0.119395 0)
(-0.200393 0.113808 0)
(-0.22085 0.107252 0)
(-0.239252 0.099806 0)
(-0.255381 0.0915478 0)
(-0.269035 0.0825528 0)
(-0.280016 0.072897 0)
(-0.288138 0.0626576 0)
(-0.293229 0.0519048 0)
(-0.295147 0.0406874 0)
(-0.293767 0.0290395 0)
(-0.288938 0.0170248 0)
(-0.280456 0.00478291 0)
(-0.268478 -0.00751652 0)
(-0.253004 -0.0197907 0)
(-0.233917 -0.0320322 0)
(-0.211143 -0.0442501 0)
(-0.184663 -0.0564225 0)
(-0.154448 -0.0685152 0)
(-0.120486 -0.0804962 0)
(-0.0827618 -0.0923507 0)
(-0.0412892 -0.104069 0)
(0.00403098 -0.115665 0)
(0.0530355 -0.127073 0)
(0.105667 -0.138257 0)
(0.161911 -0.149238 0)
(0.221711 -0.159988 0)
(0.285049 -0.170435 0)
(0.351735 -0.180578 0)
(0.421669 -0.190461 0)
(0.494747 -0.199973 0)
(0.570863 -0.209048 0)
(0.649847 -0.217754 0)
(0.7315 -0.226019 0)
(0.815727 -0.233726 0)
(0.902391 -0.240905 0)
(0.991234 -0.247596 0)
(1.08203 -0.253637 0)
(1.17473 -0.258875 0)
(1.26929 -0.263377 0)
(1.36553 -0.267262 0)
(1.46322 -0.270582 0)
(1.56213 -0.273351 0)
(1.66205 -0.275566 0)
(1.76275 -0.277218 0)
(1.86402 -0.278297 0)
(1.96567 -0.278796 0)
(2.06749 -0.278713 0)
(2.16926 -0.278044 0)
(2.27078 -0.27679 0)
(2.37184 -0.274953 0)
(2.47223 -0.272537 0)
(2.57173 -0.269547 0)
(2.67015 -0.265988 0)
(2.76725 -0.26187 0)
(2.86285 -0.257203 0)
(2.95672 -0.251999 0)
(3.04866 -0.246273 0)
(3.13848 -0.240044 0)
(3.22597 -0.233335 0)
(3.31096 -0.226173 0)
(3.39326 -0.218592 0)
(3.47271 -0.210628 0)
(3.54917 -0.202324 0)
(3.62249 -0.193729 0)
(3.69257 -0.184897 0)
(3.75931 -0.175883 0)
(3.82265 -0.16675 0)
(3.88253 -0.157561 0)
(3.93894 -0.148382 0)
(3.99189 -0.139278 0)
(4.0414 -0.130317 0)
(4.08753 -0.121561 0)
(4.13037 -0.113074 0)
(4.17002 -0.104916 0)
(4.20662 -0.0971416 0)
(4.2403 -0.0898062 0)
(4.27123 -0.0829624 0)
(4.29958 -0.076668 0)
(4.3255 -0.0709924 0)
(4.34913 -0.0660203 0)
(4.37 -0.0618997 0)
(4.39294 -0.0586042 0)
(-0.0413384 0.230468 0)
(-0.0868177 0.274738 0)
(-0.142563 0.3088 0)
(-0.197692 0.334372 0)
(-0.251473 0.352153 0)
(-0.304004 0.363157 0)
(-0.35513 0.36837 0)
(-0.404807 0.368695 0)
(-0.453164 0.365151 0)
(-0.500381 0.358795 0)
(-0.546685 0.350555 0)
(-0.592232 0.341356 0)
(-0.637003 0.331924 0)
(-0.680935 0.32267 0)
(-0.72401 0.31382 0)
(-0.766243 0.305494 0)
(-0.807665 0.297747 0)
(-0.84832 0.290588 0)
(-0.888249 0.283996 0)
(-0.927499 0.277932 0)
(-0.96611 0.272339 0)
(-1.00412 0.267158 0)
(-1.04155 0.262319 0)
(-1.07843 0.257757 0)
(-1.11478 0.253402 0)
(-1.1506 0.249188 0)
(-1.1859 0.245054 0)
(-1.22066 0.240938 0)
(-1.25489 0.236783 0)
(-1.28855 0.232534 0)
(-1.32162 0.228141 0)
(-1.35407 0.223551 0)
(-1.38585 0.218718 0)
(-1.41693 0.213591 0)
(-1.44724 0.208125 0)
(-1.47673 0.20227 0)
(-1.50531 0.19598 0)
(-1.53292 0.189206 0)
(-1.55945 0.181901 0)
(-1.58481 0.174017 0)
(-1.60889 0.165509 0)
(-1.63155 0.156332 0)
(-1.65268 0.146445 0)
(-1.67212 0.13581 0)
(-1.68973 0.124392 0)
(-1.70533 0.112163 0)
(-1.71877 0.0991013 0)
(-1.72987 0.0851898 0)
(-1.73845 0.0704215 0)
(-1.74431 0.0547984 0)
(-1.7473 0.0383296 0)
(-1.74723 0.0210254 0)
(-1.74391 0.00291602 0)
(-1.73717 -0.0158934 0)
(-1.72694 -0.0352844 0)
(-1.71306 -0.0551965 0)
(-1.69541 -0.0755678 0)
(-1.67388 -0.0963254 0)
(-1.64837 -0.11738 0)
(-1.61883 -0.138624 0)
(-1.58519 -0.159933 0)
(-1.54744 -0.181166 0)
(-1.50561 -0.202166 0)
(-1.45973 -0.222766 0)
(-1.40991 -0.24279 0)
(-1.35627 -0.262054 0)
(-1.29898 -0.28037 0)
(-1.23827 -0.297548 0)
(-1.17439 -0.313399 0)
(-1.10766 -0.327749 0)
(-1.03841 -0.340436 0)
(-0.96702 -0.351305 0)
(-0.893907 -0.360224 0)
(-0.819509 -0.367095 0)
(-0.744278 -0.371836 0)
(-0.668693 -0.374382 0)
(-0.593235 -0.374719 0)
(-0.518377 -0.372855 0)
(-0.444594 -0.368803 0)
(-0.372346 -0.36263 0)
(-0.302073 -0.35443 0)
(-0.234187 -0.344283 0)
(-0.169061 -0.332307 0)
(-0.107072 -0.318659 0)
(-0.0485352 -0.303469 0)
(0.00634126 -0.286848 0)
(0.057228 -0.268983 0)
(0.103907 -0.250063 0)
(0.146296 -0.230225 0)
(0.184288 -0.209621 0)
(0.217821 -0.188428 0)
(0.246888 -0.166803 0)
(0.271501 -0.14489 0)
(0.291717 -0.122838 0)
(0.307628 -0.100796 0)
(0.319358 -0.0789009 0)
(0.327053 -0.0572895 0)
(0.33087 -0.036105 0)
(0.331004 -0.0154954 0)
(0.327717 0.00441631 0)
(0.321179 0.0234947 0)
(0.311665 0.0415941 0)
(0.299449 0.0585762 0)
(0.284812 0.074315 0)
(0.268041 0.0886984 0)
(0.249427 0.101632 0)
(0.229261 0.113036 0)
(0.207835 0.122851 0)
(0.185435 0.131034 0)
(0.162339 0.137562 0)
(0.138829 0.142428 0)
(0.11519 0.145646 0)
(0.0916906 0.14725 0)
(0.068592 0.147285 0)
(0.0461421 0.145808 0)
(0.0245788 0.142887 0)
(0.00415604 0.138597 0)
(-0.0148797 0.133024 0)
(-0.0323066 0.126255 0)
(-0.0479087 0.118378 0)
(-0.0614804 0.109481 0)
(-0.0728267 0.09965 0)
(-0.081761 0.0889693 0)
(-0.088101 0.0775253 0)
(-0.0916728 0.0654039 0)
(-0.0923249 0.0526766 0)
(-0.0899316 0.0393908 0)
(-0.0843622 0.025597 0)
(-0.0754354 0.0114111 0)
(-0.0630471 -0.00297709 0)
(-0.0474563 -0.017413 0)
(-0.0284833 -0.0318628 0)
(-0.00604114 -0.0463145 0)
(0.0199687 -0.0607763 0)
(0.0495004 -0.0751743 0)
(0.082615 -0.0894882 0)
(0.11933 -0.103688 0)
(0.159656 -0.117753 0)
(0.203579 -0.131678 0)
(0.251095 -0.145416 0)
(0.302136 -0.158903 0)
(0.356671 -0.172135 0)
(0.41464 -0.185122 0)
(0.475955 -0.197819 0)
(0.540557 -0.210147 0)
(0.608344 -0.222095 0)
(0.679188 -0.233682 0)
(0.752961 -0.244819 0)
(0.829564 -0.255441 0)
(0.908851 -0.265576 0)
(0.990639 -0.27516 0)
(1.07481 -0.284111 0)
(1.16124 -0.292429 0)
(1.24971 -0.300117 0)
(1.34003 -0.307063 0)
(1.43211 -0.313166 0)
(1.52589 -0.318458 0)
(1.62119 -0.323012 0)
(1.71781 -0.326869 0)
(1.81554 -0.330045 0)
(1.91417 -0.332541 0)
(2.01349 -0.334351 0)
(2.11328 -0.335471 0)
(2.21336 -0.335895 0)
(2.31351 -0.335619 0)
(2.41353 -0.334643 0)
(2.51321 -0.332968 0)
(2.61236 -0.330596 0)
(2.71076 -0.327533 0)
(2.8082 -0.323782 0)
(2.90449 -0.319354 0)
(2.9994 -0.314256 0)
(3.09274 -0.308502 0)
(3.1843 -0.302105 0)
(3.27387 -0.295085 0)
(3.36127 -0.287465 0)
(3.44629 -0.279271 0)
(3.52876 -0.270537 0)
(3.60849 -0.261303 0)
(3.68533 -0.251614 0)
(3.75913 -0.241523 0)
(3.82975 -0.231088 0)
(3.89709 -0.220373 0)
(3.96107 -0.209449 0)
(4.0216 -0.198388 0)
(4.07865 -0.18727 0)
(4.13221 -0.176171 0)
(4.18229 -0.165173 0)
(4.22892 -0.154353 0)
(4.27217 -0.143791 0)
(4.31213 -0.133559 0)
(4.3489 -0.12373 0)
(4.38262 -0.114367 0)
(4.41345 -0.105533 0)
(4.44154 -0.0972845 0)
(4.46707 -0.0896755 0)
(4.49018 -0.0827596 0)
(4.511 -0.0765773 0)
(4.52914 -0.0711941 0)
(4.54883 -0.0665109 0)
(-0.0391755 0.28743 0)
(-0.0843213 0.330146 0)
(-0.139416 0.361789 0)
(-0.192153 0.385352 0)
(-0.242443 0.401322 0)
(-0.290643 0.410571 0)
(-0.33698 0.414082 0)
(-0.381673 0.412867 0)
(-0.424982 0.407992 0)
(-0.467152 0.400501 0)
(-0.508405 0.391317 0)
(-0.548888 0.381261 0)
(-0.588637 0.37097 0)
(-0.627643 0.360848 0)
(-0.665908 0.35114 0)
(-0.703449 0.341981 0)
(-0.740292 0.333435 0)
(-0.776469 0.325515 0)
(-0.812013 0.318203 0)
(-0.846957 0.311456 0)
(-0.88133 0.305214 0)
(-0.915157 0.299412 0)
(-0.948457 0.293977 0)
(-0.981246 0.288835 0)
(-1.01353 0.283913 0)
(-1.04532 0.279138 0)
(-1.0766 0.274441 0)
(-1.10737 0.269758 0)
(-1.13762 0.265024 0)
(-1.16732 0.260182 0)
(-1.19645 0.255173 0)
(-1.22499 0.249942 0)
(-1.25289 0.244435 0)
(-1.28011 0.238598 0)
(-1.30661 0.232377 0)
(-1.33234 0.225717 0)
(-1.35722 0.218565 0)
(-1.38118 0.210865 0)
(-1.40415 0.202561 0)
(-1.42603 0.193598 0)
(-1.44672 0.183922 0)
(-1.4661 0.17348 0)
(-1.48405 0.162225 0)
(-1.50043 0.150109 0)
(-1.5151 0.137092 0)
(-1.52791 0.123141 0)
(-1.53869 0.108227 0)
(-1.54726 0.0923323 0)
(-1.55347 0.075447 0)
(-1.55712 0.0575737 0)
(-1.55804 0.0387211 0)
(-1.55607 0.0189012 0)
(-1.55096 -0.00182778 0)
(-1.54268 -0.0233396 0)
(-1.53106 -0.0455238 0)
(-1.51596 -0.0683123 0)
(-1.49727 -0.0916332 0)
(-1.47487 -0.1154 0)
(-1.44867 -0.139509 0)
(-1.41858 -0.163834 0)
(-1.38457 -0.188229 0)
(-1.3466 -0.212528 0)
(-1.30469 -0.236546 0)
(-1.25888 -0.260087 0)
(-1.20927 -0.282944 0)
(-1.15599 -0.304904 0)