/*--------------------------------*- C++ -*----------------------------------*\
  =========                 |
  \\      /  F ield         | OpenFOAM: The Open Source CFD Toolbox
   \\    /   O peration     | Website:  https://openfoam.org
    \\  /    A nd           | Version:  7
     \\/     M anipulation  |
\*---------------------------------------------------------------------------*/
FoamFile
{
    version     2.0;
    format      ascii;
    class       volScalarField;
    location    "250";
    object      epsilon;
}
// * * * * * * * * * * * * * * * * * * * * * * * * * * * * * * * * * * * * * //

dimensions      [0 2 -3 0 0 0 0];

internalField   nonuniform List<scalar> 
4500
(
789.606
724.716
675.056
641.444
616.339
597.003
581.741
569.414
559.27
551.1
546.53
552.411
578.502
623.778
674.662
720.928
761.047
797.03
830.689
862.879
893.719
922.892
949.821
973.855
994.451
1011.31
1024.47
1034.24
1041.17
1045.87
1048.93
1050.86
1052.03
1052.73
1053.13
1053.34
1053.42
1053.43
1053.39
1053.31
1053.19
1053.05
1052.89
1052.7
1052.49
1052.25
1052.01
1051.77
1051.53
1051.31
1051.07
1050.86
1050.68
1050.53
1050.41
1050.29
1050.15
1050
1049.86
1049.72
1049.61
1049.49
1049.39
1049.3
1049.23
1049.15
1049.08
1048.98
1048.88
1048.77
1048.69
1048.66
1048.69
1048.8
1048.96
180.466
258.599
265.807
255.428
244.81
236.242
229.474
224.053
219.647
216.169
214.279
216.323
225.701
240.996
255.491
265.908
273.901
281.447
289.25
297.311
305.433
313.372
320.87
327.67
333.554
338.374
342.088
344.766
346.577
347.736
348.448
348.872
349.12
349.261
349.338
349.375
349.387
349.385
349.37
349.347
349.313
349.276
349.232
349.183
349.128
349.069
349.007
348.942
348.877
348.813
348.75
348.695
348.647
348.607
348.571
348.536
348.499
348.463
348.429
348.396
348.367
348.338
348.313
348.289
348.266
348.24
348.212
348.183
348.155
348.13
348.112
348.104
348.113
348.138
348.181
52.4732
112.464
134.457
135.922
132.523
128.67
125.267
122.406
120.026
118.114
116.95
117.593
121.789
128.69
134.655
138.697
142.327
146.476
151.184
156.225
161.376
166.441
171.237
175.583
179.327
182.371
184.687
186.331
187.424
188.111
188.528
188.773
188.915
188.995
189.037
189.057
189.061
189.056
189.043
189.025
189
188.97
188.937
188.899
188.857
188.81
188.76
188.71
188.662
188.616
188.572
188.531
188.494
188.464
188.439
188.416
188.391
188.363
188.335
188.308
188.284
188.261
188.24
188.22
188.204
188.189
188.174
188.158
188.14
188.121
188.104
188.096
188.101
188.121
188.154
18.9423
52.8114
76.1113
83.4469
84.125
82.8556
81.1917
79.5876
78.1619
76.9516
76.0498
75.9552
77.7841
81.2838
84.5572
87.3743
90.5431
94.2843
98.414
102.718
107.034
111.221
115.142
118.662
121.667
124.088
125.919
127.215
128.078
128.625
128.96
129.16
129.277
129.343
129.378
129.394
129.397
129.392
129.38
129.363
129.34
129.314
129.283
129.249
129.21
129.166
129.119
129.073
129.031
128.991
128.953
128.916
128.882
128.855
128.834
128.815
128.794
128.769
128.742
128.716
128.693
128.671
128.651
128.633
128.62
128.609
128.6
128.588
128.573
128.554
128.538
128.529
128.534
128.553
128.583
8.18725
25.0219
43.8945
53.7541
57.1342
57.7152
57.2795
56.5279
55.7209
54.9418
54.1862
53.6696
54.2714
56.2909
58.8521
61.7431
65.1094
68.8384
72.7401
76.6755
80.5436
84.2472
87.6808
90.7374
93.3287
95.4056
96.9717
98.0821
98.8268
99.3042
99.6002
99.7792
99.8849
99.9452
99.9774
99.9921
99.9953
99.9904
99.9793
99.9632
99.9422
99.9172
99.8886
99.8564
99.8195
99.778
99.734
99.6912
99.6523
99.6165
99.5815
99.547
99.5159
99.4911
99.4726
99.4564
99.4371
99.4134
99.3873
99.3623
99.3402
99.3199
99.3007
99.2844
99.2724
99.2645
99.258
99.2487
99.234
99.216
99.2
99.1919
99.1964
99.2148
99.2437
4.21883
11.9893
24.7101
34.5699
39.5753
41.571
42.133
42.0733
41.7563
41.3091
40.6854
39.9634
39.9515
41.3837
43.9221
47.1175
50.6776
54.3788
58.0908
61.7444
65.2844
68.6425
71.7345
74.4724
76.7842
78.6329
80.0277
81.021
81.6926
82.1278
82.4007
82.5675
82.6669
82.724
82.7547
82.769
82.7722
82.7678
82.7573
82.7422
82.7225
82.699
82.672
82.6416
82.6068
82.5673
82.5256
82.4854
82.4493
82.4164
82.384
82.3517
82.3224
82.2995
82.2828
82.2683
82.2505
82.228
82.203
82.1791
82.1581
82.1389
82.1207
82.1054
82.0946
82.0883
82.0834
82.0754
82.0617
82.0442
82.0286
82.0208
82.0253
82.0431
82.0706
2.53588
6.06772
13.4271
21.5414
27.1069
30.0895
31.4758
32.0199
32.1348
31.9833
31.5133
30.75
30.4901
31.7546
34.4582
37.9049
41.5584
45.1811
48.706
52.1168
55.3894
58.4754
61.3056
63.8053
65.9136
67.6009
68.8781
69.7936
70.4181
70.827
71.086
71.2458
71.3417
71.3972
71.4273
71.4415
71.4451
71.4412
71.4314
71.4172
71.3987
71.3764
71.3509
71.3221
71.289
71.2515
71.2118
71.1739
71.1402
71.1096
71.0793
71.0488
71.0212
70.9997
70.9844
70.9711
70.9545
70.9332
70.9092
70.8863
70.8664
70.8481
70.8308
70.8164
70.8066
70.8013
70.7976
70.7905
70.7774
70.7605
70.7454
70.738
70.7423
70.7594
70.7856
1.72015
3.395
7.19153
12.8168
17.9497
21.4141
23.4193
24.4837
24.9923
25.1232
24.8384
24.1573
23.8693
25.1458
28.0145
31.6099
35.2737
38.7846
42.1271
45.322
48.3672
51.2286
53.8486
56.1624
58.117
59.6869
60.8823
61.7461
62.3412
62.7349
62.9867
63.1433
63.238
63.2933
63.3236
63.3382
63.3422
63.3389
63.3299
63.3165
63.2991
63.2781
63.2539
63.2265
63.1951
63.1594
63.1217
63.0858
63.054
63.0254
62.9969
62.968
62.9417
62.9215
62.9073
62.895
62.8794
62.859
62.836
62.8142
62.7951
62.7778
62.7613
62.7477
62.7386
62.7341
62.7311
62.7246
62.7122
62.696
62.6814
62.6741
62.6782
62.6946
62.7194
1.27853
2.13153
3.97946
7.32545
11.3242
14.7135
17.0625
18.5307
19.3865
19.7886
19.7163
19.2047
19.0158
20.3642
23.3392
26.993
30.6122
33.9955
37.1638
40.1641
43.0109
45.6811
48.1268
50.2912
52.1268
53.6102
54.749
55.5802
56.159
56.546
56.796
56.9528
57.0484
57.1046
57.1358
57.1511
57.156
57.1534
57.1451
57.1326
57.1163
57.0964
57.0735
57.0476
57.0177
56.9837
56.9478
56.9138
56.8838
56.8568
56.8298
56.8024
56.7774
56.7582
56.7448
56.7333
56.7186
56.6992
56.6772
56.6563
56.6381
56.6215
56.6058
56.5929
56.5843
56.5804
56.5779
56.572
56.5602
56.5446
56.5305
56.5235
56.5272
56.5427
56.5661
1.01869
1.48312
2.38193
4.15492
6.80184
9.62742
11.9836
13.6851
14.8129
15.4617
15.6153
15.3268
15.3042
16.7298
19.7431
23.3874
26.9288
30.1794
33.1835
36.0071
38.6771
41.1804
43.4775
45.5185
47.2602
48.6795
49.7804
50.5932
51.1661
51.5535
51.8062
51.9662
52.0645
52.1228
52.1556
52.1722
52.178
52.1763
52.1689
52.1574
52.142
52.1233
52.1017
52.0771
52.0488
52.0165
51.9824
51.9501
51.9216
51.8961
51.8706
51.8445
51.8207
51.8024
51.7896
51.7788
51.7649
51.7464
51.7254
51.7054
51.688
51.6721
51.6571
51.6448
51.6367
51.6331
51.631
51.6257
51.6145
51.5996
51.586
51.5791
51.5823
51.5968
51.6188
0.856489
1.12028
1.57156
2.45571
3.97562
5.97843
8.01082
9.72385
11.0064
11.8511
12.2217
12.1775
12.3483
13.8342
16.8259
20.4116
23.8564
26.9754
29.8262
32.4878
34.9979
37.3523
39.5194
41.4559
43.1218
44.4934
45.5702
46.3758
46.9509
47.3446
47.6042
47.7701
47.873
47.9346
47.9697
47.988
47.9951
47.9945
47.9881
47.9775
47.9633
47.9457
47.9253
47.9021
47.8753
47.8447
47.8124
47.7817
47.7547
47.7305
47.7063
47.6815
47.6588
47.6412
47.629
47.6187
47.6056
47.5881
47.5681
47.549
47.5323
47.5171
47.5027
47.4909
47.4832
47.4799
47.4781
47.4732
47.4627
47.4485
47.4354
47.4285
47.4313
47.4446
47.465
0.751139
0.901887
1.13571
1.57105
2.36218
3.58048
5.07582
6.56954
7.84958
8.8038
9.3526
9.54074
9.90231
11.424
14.3456
17.8374
21.1751
24.1677
26.8762
29.3887
31.7521
33.9712
36.022
37.8673
39.4701
40.8057
41.8689
42.6756
43.2599
43.6649
43.9352
44.1097
44.219
44.2852
44.3235
44.3439
44.3527
44.3533
44.348
44.3385
44.3254
44.309
44.2899
44.2681
44.2428
44.214
44.1833
44.1542
44.1286
44.1056
44.0827
44.0592
44.0375
44.0207
44.0089
43.999
43.9866
43.9701
43.9511
43.9329
43.9169
43.9023
43.8886
43.8773
43.8699
43.8667
43.8651
43.8607
43.8508
43.8374
43.8248
43.8181
43.8202
43.8323
43.8511
0.681085
0.763097
0.88457
1.10003
1.49249
2.15032
3.09079
4.20469
5.31516
6.26011
6.91447
7.28888
7.81245
9.34012
12.1524
15.5238
18.7489
21.622
24.1995
26.5745
28.8024
30.8965
32.8408
34.604
36.1525
37.4602
38.5169
39.3315
39.9304
40.3514
40.6359
40.8217
40.9393
41.0113
41.0536
41.0769
41.0876
41.0897
41.0857
41.0773
41.0654
41.0502
41.0324
41.012
40.9883
40.9612
40.9324
40.9048
40.8805
40.8587
40.8371
40.8148
40.7941
40.7779
40.7664
40.757
40.7453
40.7298
40.7118
40.6945
40.6791
40.6652
40.6521
40.6412
40.6341
40.631
40.6295
40.6255
40.6164
40.6038
40.5918
40.585
40.5865
40.5973
40.6144
0.634031
0.6716
0.730773
0.835762
1.02647
1.35694
1.87627
2.58531
3.40956
4.21982
4.87957
5.36176
5.99221
7.48689
10.1543
13.3826
16.4916
19.2531
21.7109
23.9596
26.0617
28.0391
29.8838
31.571
33.0704
34.3552
35.4103
36.2374
36.8555
37.2966
37.5987
37.7985
37.9264
38.0057
38.053
38.0796
38.0927
38.0966
38.094
38.087
38.0763
38.0624
38.0459
38.0269
38.0049
37.9795
37.9525
37.9266
37.9035
37.8829
37.8624
37.8414
37.8217
37.8061
37.795
37.7858
37.7748
37.7603
37.7434
37.7269
37.7123
37.699
37.6865
37.6761
37.6692
37.6661
37.6646
37.661
37.6527
37.6409
37.6295
37.6228
37.6236
37.633
37.6483
0.602484
0.610008
0.632173
0.678687
0.768021
0.927201
1.19004
1.58428
2.10602
2.69786
3.26095
3.75363
4.40993
5.81671
8.29948
11.3605
14.3487
17.0063
19.356
21.4893
23.4746
25.3423
27.0925
28.7073
30.1601
31.4243
32.4805
33.3233
33.9641
34.429
34.7521
34.9685
35.1089
35.197
35.2504
35.2812
35.2972
35.3032
35.3023
35.2966
35.2873
35.2748
35.2597
35.2421
35.2217
35.1982
35.173
35.1486
35.1269
35.1074
35.0881
35.0683
35.0496
35.0346
35.0237
35.0149
35.0045
34.991
34.9752
34.9597
34.9458
34.9331
34.9212
34.9112
34.9044
34.9013
34.8999
34.8966
34.889
34.8782
34.8674
34.8608
34.8609
34.8689
34.8824
0.581598
0.568258
0.567055
0.580686
0.617347
0.689634
0.815023
1.01419
1.30217
1.67
2.0736
2.487
3.07683
4.32316
6.56848
9.43106
12.2884
14.8473
17.0998
19.1288
21.0065
22.7707
24.4303
25.9744
27.3812
28.6248
29.6827
30.5429
31.2091
31.7009
32.0483
32.2844
32.4395
32.5383
32.5991
32.6349
32.6544
32.6628
32.6638
32.6598
32.6518
32.6407
32.6271
32.6111
32.5923
32.5707
32.5473
32.5246
32.5042
32.4857
32.4676
32.4491
32.4314
32.417
32.4064
32.3978
32.388
32.3755
32.3609
32.3463
32.3331
32.3211
32.3098
32.3002
32.2936
32.2904
32.2889
32.2859
32.2791
32.2692
32.2592
32.2526
32.252
32.2587
32.2703
0.568079
0.540126
0.523432
0.517432
0.525308
0.552672
0.607656
0.701112
0.844796
1.0441
1.28882
1.57582
2.02607
3.03404
4.97472
7.59152
10.2972
12.7564
14.9211
16.8568
18.636
20.3032
21.8755
23.3496
24.7091
25.9304
26.9888
27.8666
28.56
29.0816
29.4565
29.7154
29.888
29.9995
30.0692
30.111
30.1346
30.146
30.1493
30.1469
30.1406
30.131
30.1188
30.1043
30.0872
30.0675
30.046
30.025
30.0059
29.9885
29.9716
29.9543
29.9377
29.9239
29.9135
29.9051
29.8959
29.8844
29.8709
29.8573
29.8449
29.8335
29.8228
29.8137
29.8072
29.8039
29.8023
29.7996
29.7936
29.7846
29.7753
29.7689
29.7677
29.773
29.7827
0.559602
0.521507
0.494215
0.475856
0.467125
0.470266
0.488829
0.527801
0.593325
0.690471
0.819668
0.987625
1.27814
1.99892
3.55916
5.86151
8.37792
10.7271
12.8087
14.6611
16.3512
17.9281
19.4165
20.8207
22.1308
23.3264
24.3826
25.2768
25.9983
26.5522
26.9579
27.2429
27.436
27.5625
27.6429
27.6921
27.7207
27.7356
27.7414
27.741
27.7363
27.7283
27.7177
27.7047
27.6894
27.6715
27.652
27.6327
27.6149
27.5987
27.5829
27.5668
27.5513
27.5381
27.528
27.5198
27.5112
27.5006
27.4882
27.4756
27.464
27.4532
27.4432
27.4345
27.4282
27.4248
27.4231
27.4206
27.4153
27.4073
27.3987
27.3925
27.3908
27.3948
27.4027
0.5545
0.509542
0.474918
0.448453
0.429645
0.419074
0.418099
0.428814
0.453949
0.496135
0.55686
0.642357
0.802823
1.24853
2.37857
4.28446
6.55178
8.76543
10.7602
12.5365
14.1465
15.6403
17.0485
18.3832
19.6411
20.8068
21.8565
22.7647
23.5142
24.1024
24.5423
24.8572
25.0742
25.2186
25.3117
25.3697
25.4044
25.4234
25.4322
25.4341
25.4312
25.4249
25.4158
25.4045
25.3909
25.3749
25.3573
25.3397
25.3232
25.3081
25.2935
25.2786
25.2642
25.2517
25.2419
25.2339
25.2258
25.2161
25.2048
25.1933
25.1824
25.1724
25.163
25.1548
25.1486
25.1451
25.1432
25.1409
25.1362
25.1292
25.1214
25.1155
25.1133
25.1161
25.1223
0.551577
0.502159
0.462517
0.430613
0.405437
0.386738
0.37481
0.370374
0.374484
0.388209
0.412319
0.450327
0.528151
0.766541
1.48244
2.92288
4.86129
6.89242
8.78391
10.4845
12.0214
13.4391
14.7716
16.0374
17.2404
18.3712
19.4092
20.3279
21.1045
21.7288
22.2065
22.5554
22.8
22.9655
23.0738
23.1425
23.1844
23.2085
23.2207
23.2252
23.2244
23.2198
23.2124
23.2026
23.1907
23.1767
23.161
23.145
23.13
23.116
23.1025
23.0889
23.0755
23.0638
23.0543
23.0465
23.0389
23.03
23.0198
23.0093
22.9992
22.9899
22.9811
22.9734
22.9675
22.9638
22.9618
22.9596
22.9555
22.9493
22.9424
22.9367
22.9342
22.9359
22.9405
0.549997
0.497832
0.454862
0.419311
0.390008
0.366314
0.347989
0.335096
0.327903
0.326715
0.331746
0.344589
0.377379
0.489895
0.880747
1.8416
3.36911
5.14797
6.9008
8.51455
9.98041
11.3276
12.5889
13.7872
14.9331
16.024
17.0443
17.9687
18.7708
19.4329
19.952
20.3395
20.6163
20.8066
20.933
21.0144
21.065
21.0951
21.1114
21.1188
21.1203
21.1175
21.1118
21.1037
21.0935
21.0812
21.0675
21.0532
21.0396
21.0268
21.0144
21.0019
20.9897
20.9787
20.9696
20.9621
20.9548
20.9467
20.9375
20.928
20.9188
20.9101
20.902
20.8948
20.8891
20.8854
20.8832
20.881
20.8774
20.8721
20.866
20.8607
20.8579
20.8586
20.8618
0.549196
0.49545
0.450382
0.412443
0.380459
0.353629
0.331456
0.313673
0.300179
0.290923
0.285845
0.285536
0.295358
0.34231
0.527779
1.07761
2.14746
3.59221
5.1484
6.64748
8.03461
9.31271
10.5063
11.6389
12.726
13.7721
14.7684
15.6934
16.5189
17.2201
17.7847
18.216
18.53
18.7494
18.8972
18.9937
19.0547
19.0917
19.1129
19.1237
19.1276
19.1269
19.1229
19.1164
19.1079
19.0974
19.0855
19.0729
19.0607
19.049
19.0378
19.0264
19.0152
19.005
18.9964
18.9891
18.9823
18.9749
18.9666
18.958
18.9496
18.9417
18.9342
18.9275
18.9221
18.9183
18.9159
18.9138
18.9106
18.9061
18.9007
18.8959
18.8929
18.8928
18.8947
0.54882
0.494229
0.447927
0.408498
0.374812
0.346017
0.321496
0.300824
0.283715
0.269955
0.259353
0.252035
0.250239
0.265566
0.343215
0.610768
1.2519
2.29889
3.58392
4.92007
6.20497
7.40733
8.53308
9.60076
10.6278
11.6248
12.5909
13.511
14.3577
15.0998
15.7144
16.1951
16.5518
16.8049
16.9777
17.0919
17.1651
17.2104
17.2372
17.2519
17.2586
17.26
17.2577
17.2529
17.246
17.2372
17.227
17.2161
17.2052
17.1948
17.1846
17.1743
17.1642
17.1548
17.1466
17.1396
17.1332
17.1264
17.119
17.1113
17.1037
17.0965
17.0896
17.0834
17.0783
17.0745
17.072
17.0699
17.067
17.0631
17.0584
17.054
17.0511
17.0504
17.0512
0.548657
0.493654
0.446683
0.406387
0.371673
0.341678
0.315739
0.293355
0.274149
0.257824
0.24413
0.23298
0.225208
0.225596
0.252903
0.365116
0.685799
1.33296
2.27993
3.38733
4.52754
5.63357
6.68387
7.68423
8.64918
9.5931
10.5234
11.4337
12.2997
13.0849
13.7546
14.2908
14.6959
14.9875
15.1891
15.3237
15.411
15.4659
15.4991
15.5181
15.5279
15.5315
15.5311
15.5279
15.5225
15.5154
15.5068
15.4974
15.4879
15.4786
15.4694
15.4602
15.4511
15.4425
15.4348
15.4282
15.422
15.4158
15.4092
15.4023
15.3955
15.3889
15.3827
15.377
15.3721
15.3685
15.3658
15.3636
15.361
15.3577
15.3536
15.3497
15.3468
15.3456
15.3455
0.548592
0.493406
0.446107
0.405351
0.370058
0.339371
0.312608
0.289232
0.268821
0.251038
0.235601
0.222325
0.211429
0.20475
0.209717
0.249741
0.384067
0.712694
1.30421
2.11989
3.05715
4.02774
4.98256
5.9062
6.80406
7.69053
8.58031
9.47715
10.3622
11.1936
11.9237
12.5213
12.9804
13.315
13.5487
13.7064
13.8096
13.8752
13.9156
13.9394
13.9525
13.9585
13.96
13.9583
13.9544
13.9487
13.9417
13.9337
13.9255
13.9173
13.9091
13.9009
13.8927
13.8849
13.8777
13.8714
13.8656
13.8599
13.8539
13.8478
13.8416
13.8357
13.8301
13.8249
13.8203
13.8168
13.8141
13.8118
13.8094
13.8064
13.8029
13.7994
13.7966
13.7951
13.7943
0.548569
0.49331
0.445866
0.40489
0.369304
0.338249
0.311036
0.287114
0.266037
0.247447
0.231044
0.216598
0.204066
0.194046
0.1893
0.198699
0.245789
0.381811
0.680451
1.18408
1.86244
2.64448
3.46737
4.29335
5.1129
5.93563
6.78123
7.66355
8.56947
9.45116
10.2467
10.9106
11.4279
11.8091
12.0776
12.2602
12.3806
12.4579
12.5061
12.5351
12.5516
12.5601
12.5634
12.5632
12.5607
12.5563
12.5506
12.544
12.537
12.5298
12.5225
12.5152
12.5078
12.5007
12.4941
12.4882
12.4827
12.4773
12.4719
12.4664
12.4609
12.4556
12.4505
12.4458
12.4416
12.4381
12.4354
12.4331
12.4308
12.4281
12.425
12.422
12.4193
12.4176
12.4163
0.548561
0.493276
0.445775
0.404707
0.368989
0.337759
0.310324
0.286125
0.264705
0.245693
0.228778
0.213713
0.20034
0.188765
0.179889
0.176853
0.188199
0.234064
0.353955
0.600542
1.00509
1.55147
2.19402
2.88786
3.60852
4.3577
5.15675
6.02687
6.95792
7.89411
8.75827
9.49071
10.0678
10.4966
10.8009
11.0091
11.1474
11.2367
11.2929
11.3272
11.3473
11.3582
11.3632
11.3645
11.3631
11.3599
11.3554
11.3499
11.3439
11.3376
11.3312
11.3247
11.3181
11.3116
11.3055
11.2999
11.2947
11.2897
11.2847
11.2797
11.2748
11.27
11.2654
11.2611
11.2572
11.2539
11.2512
11.2488
11.2465
11.2441
11.2414
11.2386
11.2361
11.2343
11.2326
0.548559
0.493266
0.445745
0.404642
0.368873
0.337571
0.31004
0.285716
0.264137
0.244923
0.22776
0.212386
0.198604
0.186328
0.175766
0.167894
0.16557
0.175793
0.213788
0.307694
0.495033
0.802766
1.22918
1.75111
2.34488
3.00769
3.75963
4.62279
5.58367
6.57548
7.5064
8.30429
8.93807
9.41215
9.75052
9.98325
10.1385
10.2394
10.3032
10.3426
10.366
10.3792
10.3859
10.3883
10.388
10.3858
10.3822
10.3777
10.3725
10.367
10.3613
10.3554
10.3494
10.3435
10.3379
10.3326
10.3276
10.3229
10.3183
10.3137
10.3092
10.3049
10.3007
10.2967
10.2931
10.29
10.2872
10.2849
10.2826
10.2802
10.2778
10.2752
10.2729
10.271
10.2692
0.548558
0.493263
0.445735
0.404622
0.368836
0.337509
0.309944
0.285572
0.263929
0.244632
0.22736
0.21185
0.197885
0.185315
0.174106
0.164477
0.157265
0.154702
0.161927
0.189595
0.257016
0.391636
0.619833
0.956347
1.40516
1.9735
2.68032
3.54067
4.53057
5.57096
6.55803
7.41031
8.0912
8.60298
8.96984
9.22315
9.39277
9.5034
9.57378
9.61743
9.64366
9.65872
9.66666
9.67006
9.67052
9.66902
9.66615
9.66232
9.65784
9.65293
9.64773
9.64233
9.63683
9.63134
9.62601
9.62097
9.61621
9.61169
9.60733
9.60308
9.59894
9.59492
9.59106
9.58741
9.58402
9.58099
9.5783
9.57586
9.57354
9.57121
9.56882
9.56643
9.56421
9.56237
9.56042
0.548558
0.493263
0.445733
0.404617
0.368826
0.337493
0.309918
0.285532
0.263869
0.244544
0.227235
0.211676
0.197644
0.184969
0.173546
0.163369
0.15465
0.148128
0.145684
0.151517
0.174237
0.229955
0.344757
0.552783
0.888715
1.38107
2.05224
2.90908
3.91678
4.98689
6.0082
6.89377
7.60369
8.13887
8.52352
8.78976
8.96845
9.08525
9.15975
9.2061
9.23409
9.2503
9.25902
9.26299
9.2639
9.2628
9.26035
9.25694
9.25286
9.2483
9.24341
9.23829
9.23305
9.22781
9.2227
9.21781
9.21316
9.20875
9.20452
9.20045
9.19651
9.19272
9.18909
9.18565
9.18243
9.17949
9.17677
9.17424
9.1718
9.16938
9.16698
9.16465
9.1625
9.16069
9.15873
0.548558
0.493263
0.445733
0.404617
0.368826
0.337493
0.309918
0.285532
0.263869
0.244544
0.227235
0.211675
0.197644
0.184969
0.173547
0.16337
0.154652
0.14813
0.14567
0.151428
0.173891
0.228912
0.342238
0.54792
0.880845
1.37024
2.03918
2.89488
3.90247
4.97315
5.99534
6.88183
7.59257
8.12841
8.51358
8.7802
8.95915
9.07613
9.15073
9.19714
9.22515
9.24135
9.25005
9.25398
9.25487
9.25378
9.25136
9.24802
9.24401
9.23949
9.2346
9.22947
9.22423
9.21901
9.21393
9.20905
9.20439
9.19995
9.19572
9.19167
9.1878
9.18409
9.18057
9.17722
9.17408
9.17113
9.16833
9.16562
9.16296
9.16034
9.15782
9.15543
9.1533
9.15154
9.14963
0.548558
0.493263
0.445735
0.404622
0.368836
0.337509
0.309944
0.285572
0.263929
0.244631
0.22736
0.21185
0.197885
0.185315
0.174107
0.16448
0.157268
0.154682
0.161778
0.188951
0.254934
0.38634
0.609056
0.938252
1.37899
1.93997
2.64142
3.49911
4.48898
5.53107
6.52062
7.37545
8.05861
8.57224
8.94053
9.19488
9.36523
9.47632
9.54699
9.59078
9.61705
9.63207
9.63994
9.64324
9.64365
9.64216
9.63942
9.6358
9.63152
9.62671
9.62152
9.61608
9.61059
9.60517
9.59993
9.5949
9.59009
9.58549
9.58113
9.57696
9.57302
9.56926
9.56571
9.56235
9.55918
9.55614
9.55316
9.55017
9.54717
9.54424
9.54149
9.53898
9.53682
9.53514
9.53337
0.548559
0.493266
0.445745
0.404642
0.368873
0.337571
0.31004
0.285716
0.264137
0.244923
0.227759
0.212385
0.198603
0.186329
0.175769
0.167897
0.165548
0.175605
0.212924
0.304749
0.487368
0.787187
1.20332
1.71402
2.29707
2.95082
3.69638
4.55656
5.51778
6.51222
7.44681
8.24845
8.88557
9.36235
9.70281
9.93705
10.0933
10.1949
10.2591
10.2987
10.3221
10.3352
10.3417
10.344
10.3436
10.3414
10.3381
10.3339
10.3291
10.3238
10.318
10.3121
10.3061
10.3003
10.2948
10.2895
10.2845
10.2796
10.275
10.2706
10.2665
10.2626
10.2589
10.2555
10.2522
10.249
10.2457
10.2423
10.2389
10.2356
10.2325
10.2298
10.2277
10.2261
10.2246
0.548561
0.493276
0.445775
0.404706
0.368988
0.337758
0.310324
0.286124
0.264704
0.245691
0.228776
0.21371
0.200339
0.188766
0.179894
0.176837
0.188017
0.233103
0.350388
0.590792
0.984982
1.51817
2.14687
2.82757
3.53702
4.27742
5.07062
5.93829
6.87021
7.80964
8.67818
9.41509
9.99614
10.4282
10.735
10.945
11.0845
11.1745
11.2312
11.2656
11.2857
11.2965
11.3013
11.3023
11.3008
11.2977
11.2936
11.2887
11.2832
11.277
11.2705
11.2638
11.2573
11.2511
11.2452
11.2395
11.2341
11.2289
11.224
11.2193
11.215
11.2108
11.207
11.2033
11.1999
11.1964
11.1928
11.1889
11.1849
11.1811
11.1777
11.1749
11.1727
11.1714
11.1702
0.548569
0.49331
0.445865
0.404889
0.369303
0.338248
0.311034
0.287112
0.266035
0.247443
0.231038
0.216593
0.204063
0.194049
0.189299
0.198574
0.24494
0.378144
0.66949
1.1604
1.82248
2.58755
3.3948
4.20762
5.01686
5.83218
6.67333
7.55429
8.46175
9.34712
10.1474
10.8161
11.3377
11.7223
11.9935
12.178
12.2997
12.3777
12.4263
12.4554
12.4718
12.4801
12.483
12.4826
12.4799
12.4757
12.4707
12.4648
12.4584
12.4513
12.4438
12.4363
12.4291
12.4223
12.416
12.41
12.4041
12.3985
12.3932
12.3881
12.3835
12.379
12.375
12.3711
12.3674
12.3637
12.3595
12.355
12.3504
12.346
12.3423
12.3394
12.3373
12.3362
12.3355
0.548592
0.493406
0.446106
0.405349
0.370057
0.339368
0.312604
0.289227
0.268815
0.251029
0.235589
0.222312
0.211423
0.204755
0.209674
0.249179
0.380986
0.701925
1.27882
2.07503
2.99176
3.94366
4.88273
5.79426
6.68344
7.56432
8.45136
9.34817
10.2356
11.071
11.8059
12.4083
12.8718
13.2099
13.4463
13.6058
13.7102
13.7765
13.8172
13.841
13.8539
13.8596
13.8606
13.8585
13.8545
13.8491
13.843
13.8361
13.8286
13.8204
13.8118
13.8033
13.7954
13.7881
13.7813
13.7748
13.7685
13.7623
13.7566
13.7511
13.7461
13.7413
13.737
13.7329
13.7289
13.7248
13.72
13.7147
13.7094
13.7045
13.7005
13.6974
13.6955
13.6948
13.6948
0.548657
0.493653
0.446681
0.406385
0.371668
0.341672
0.315731
0.293345
0.274135
0.257805
0.244106
0.232955
0.225198
0.225597
0.252676
0.36312
0.676882
1.30851
2.23307
3.31592
4.43345
5.52055
6.55626
7.54618
8.50434
9.44459
10.3739
11.2855
12.1547
12.9442
13.6188
14.1597
14.569
14.864
15.068
15.2044
15.2928
15.3482
15.3816
15.4005
15.41
15.4131
15.4122
15.4085
15.403
15.3963
15.389
15.381
15.3723
15.3628
15.353
15.3435
15.3347
15.3269
15.3196
15.3126
15.3058
15.299
15.2928
15.2869
15.2815
15.2763
15.2716
15.2673
15.2631
15.2584
15.253
15.2468
15.2406
15.2352
15.2309
15.2278
15.2261
15.2259
15.2267
0.548819
0.494228
0.447923
0.408492
0.374803
0.346005
0.32148
0.300803
0.283687
0.269917
0.259306
0.251988
0.250221
0.265531
0.342361
0.60492
1.23147
2.25399
3.51028
4.81893
6.08076
7.26507
8.3779
9.43705
10.4592
11.4544
12.4212
13.3438
14.1944
14.9411
15.5606
16.0459
16.4066
16.6627
16.8379
16.9536
17.0277
17.0734
17.1003
17.1147
17.1209
17.1217
17.1188
17.1134
17.1064
17.0984
17.0898
17.0806
17.0705
17.0597
17.0486
17.0379
17.0284
17.02
17.0123
17.0048
16.9973
16.99
16.9831
16.9768
16.9709
16.9653
16.9603
16.9557
16.9512
16.946
16.9397
16.9326
16.9255
16.9195
16.915
16.9119
16.9105
16.9111
16.9129
0.549195
0.495446
0.450374
0.412431
0.380442
0.353606
0.331425
0.313634
0.300126
0.290851
0.285754
0.285448
0.295325
0.342124
0.525129
1.06371
2.1093
3.52155
5.04472
6.5152
7.87983
9.14151
10.3241
11.4501
12.5342
13.5802
14.5787
15.5073
16.3374
17.0435
17.6129
18.0485
18.3662
18.5884
18.7384
18.8362
18.8979
18.9351
18.9562
18.9666
18.97
18.9684
18.9636
18.9565
18.948
18.9386
18.9287
18.9181
18.9067
18.8943
18.8818
18.8701
18.8598
18.8509
18.8428
18.8346
18.8265
18.8185
18.8111
18.8042
18.7979
18.7919
18.7865
18.7816
18.7767
18.7709
18.7638
18.7555
18.7476
18.7411
18.7364
18.7334
18.7324
18.7338
18.7368
0.549994
0.497825
0.454848
0.419289
0.389977
0.366273
0.347935
0.335024
0.327807
0.32658
0.331575
0.344426
0.377302
0.489211
0.873958
1.81448
3.30797
5.04809
6.76555
8.35087
9.79546
11.128
12.3802
13.5738
14.7186
15.811
16.8348
17.7638
18.571
19.2381
19.7619
20.1536
20.4339
20.6267
20.755
20.8375
20.8886
20.9186
20.9347
20.9417
20.9424
20.9387
20.9321
20.9233
20.9132
20.9023
20.891
20.8791
20.8662
20.8523
20.8384
20.8255
20.8145
20.8051
20.7965
20.7878
20.7789
20.7702
20.7622
20.7548
20.748
20.7415
20.7358
20.7306
20.7254
20.7189
20.7108
20.7014
20.6925
20.6855
20.6807
20.6779
20.6774
20.6797
20.684
0.551572
0.502144
0.462491
0.430575
0.405384
0.386668
0.374716
0.370247
0.374308
0.387957
0.411994
0.45002
0.52795
0.764544
1.46813
2.87776
4.77348
6.76149
8.6167
10.2896
11.8069
13.2117
14.537
15.7999
17.0035
18.1374
19.1801
20.1042
20.8863
21.5158
21.9981
22.351
22.5988
22.7666
22.8765
22.9461
22.9883
23.0121
23.024
23.0279
23.0262
23.0205
23.0121
23.0016
22.9899
22.9775
22.9649
22.9516
22.9372
22.9216
22.9062
22.8922
22.8806
22.8708
22.8617
22.8523
22.8427
22.8332
22.8246
22.8167
22.8094
22.8024
22.7964
22.7909
22.7853
22.7781
22.7689
22.7583
22.7485
22.741
22.7362
22.7337
22.7338
22.7371
22.743
0.55449
0.509515
0.474874
0.448389
0.429558
0.418955
0.417937
0.428587
0.453624
0.495657
0.556236
0.641774
0.802293
1.2438
2.35316
4.21769
6.43512
8.60282
10.5613
12.311
13.903
15.3858
16.7885
18.1221
19.3822
20.5524
21.6078
22.5222
23.2775
23.8709
24.3155
24.6342
24.854
25.0005
25.095
25.1538
25.1885
25.2071
25.2154
25.2166
25.2128
25.2052
25.195
25.1828
25.1696
25.1557
25.1417
25.127
25.111
25.0938
25.0769
25.0618
25.0496
25.0394
25.0298
25.0198
25.0093
24.9991
24.9899
24.9815
24.9736
24.9661
24.9598
24.954
24.948
24.9401
24.9297
24.9179
24.9072
24.8993
24.8946
24.8924
24.8931
24.8975
24.905
0.559583
0.521462
0.494144
0.475753
0.466982
0.470066
0.488546
0.52739
0.592717
0.689554
0.818476
0.986535
1.27689
1.98968
3.51966
5.77067
8.23137
10.5329
12.5786
14.4058
16.0794
17.647
19.1316
20.5365
21.8503
23.0517
24.1145
25.0154
25.743
26.3021
26.7124
27.0011
27.1968
27.3253
27.4069
27.4566
27.4851
27.4994
27.5046
27.5034
27.4976
27.4882
27.4764
27.4626
27.4477
27.4324
27.417
27.4008
27.3832
27.3643
27.346
27.3299
27.3171
27.3065
27.2965
27.2857
27.2745
27.2634
27.2536
27.2446
27.2362
27.2283
27.2216
27.2155
27.2091
27.2005
27.1889
27.1758
27.1643
27.1561
27.1514
27.1495
27.1509
27.1566
27.1658
0.568046
0.540055
0.52332
0.517269
0.525074
0.552331
0.60715
0.700349
0.843638
1.04236
1.28664
1.57391
2.02358
3.01866
4.91897
7.47523
10.1206
12.5313
14.6607
16.5724
18.3366
19.996
21.5662
23.0425
24.4073
25.6355
26.7013
27.5863
28.286
28.813
29.1923
29.4547
29.6299
29.7431
29.8139
29.8561
29.8793
29.89
29.8926
29.8893
29.8817
29.8706
29.8571
29.8417
29.8253
29.8085
29.7918
29.7741
29.7549
29.7344
29.7145
29.6974
29.6841
29.6732
29.6627
29.6512
29.6391
29.6272
29.6168
29.6073
29.5984
29.5899
29.5829
29.5765
29.5697
29.5603
29.5475
29.5332
29.5208
29.5124
29.5077
29.5063
29.5083
29.5153
29.5263
0.581545
0.568148
0.566881
0.580427
0.616958
0.689035
0.814093
1.01275
1.3
1.66689
2.06994
2.48399
3.07261
4.30026
6.49511
9.28875
12.0821
14.5918
16.8098
18.816
20.6799
22.4378
24.0969
25.6449
27.0583
28.3099
29.3759
30.2437
30.9164
31.4136
31.7654
32.0049
32.1625
32.2628
32.3246
32.3606
32.3795
32.3871
32.3874
32.3823
32.373
32.3603
32.3453
32.3283
32.3103
32.2921
32.274
32.2549
32.234
32.2118
32.1905
32.1724
32.1587
32.1474
32.1364
32.1242
32.1112
32.0985
32.0874
32.0774
32.0679
32.0589
32.0516
32.045
32.0378
32.0276
32.0136
31.998
31.9849
31.9762
31.9716
31.9705
31.9734
31.9816
31.9944
0.6024
0.60984
0.631904
0.678267
0.767351
0.92611
1.18829
1.58162
2.10223
2.69282
3.25543
3.74937
4.40376
5.78552
8.20746
11.1923
14.1134
16.7214
19.0372
21.1486
23.1215
24.9842
26.7354
28.3556
29.8164
31.0895
32.1545
33.0052
33.6527
34.123
34.4505
34.6703
34.8129
34.9025
34.9567
34.9876
35.0029
35.0079
35.0062
34.9995
34.9887
34.9744
34.9578
34.9393
34.9198
34.9001
34.8807
34.8602
34.8377
34.8138
34.7911
34.7721
34.7578
34.7462
34.7347
34.7217
34.7078
34.6943
34.6827
34.6721
34.662
34.6526
34.6449
34.638
34.6305
34.6195
34.6043
34.5874
34.5736
34.5646
34.5602
34.5595
34.563
34.5726
34.5873
0.633903
0.671347
0.730353
0.835061
1.02527
1.3549
1.87304
2.58071
3.4036
4.21252
4.87201
5.3562
5.98395
7.44704
10.0436
13.1886
16.228
18.9398
21.3642
23.5918
25.6824
27.6561
29.5033
31.1974
32.7059
34.0006
35.0651
35.9005
36.5253
36.972
37.2785
37.4815
37.6115
37.6921
37.7402
37.7669
37.7791
37.7819
37.7786
37.7704
37.7581
37.7424
37.7243
37.7043
37.6833
37.6622
37.6414
37.6194
37.5954
37.5699
37.5457
37.5257
37.511
37.499
37.487
37.4733
37.4585
37.4441
37.4319
37.4207
37.4101
37.4001
37.3921
37.385
37.3771
37.3654
37.3489
37.3309
37.3163
37.3072
37.3028
37.3025
37.3067
37.3176
37.3341
0.680893
0.762713
0.883894
1.09881
1.49027
2.14654
3.0852
4.19753
5.30678
6.2505
6.90482
7.28195
7.80205
9.29158
12.0233
15.3052
18.4585
21.2814
23.8257
26.1802
28.3975
30.489
32.4371
34.2085
35.7672
37.0857
38.1524
38.9756
39.5814
40.008
40.2969
40.4859
40.6055
40.6789
40.7219
40.745
40.7547
40.7557
40.7509
40.7414
40.7277
40.7107
40.6912
40.6697
40.6472
40.6246
40.6025
40.5791
40.5535
40.5264
40.5008
40.4799
40.4646
40.4522
40.4397
40.4252
40.4095
40.3943
40.3814
40.3697
40.3585
40.348
40.3396
40.3322
40.324
40.3116
40.294
40.2748
40.2595
40.2501
40.2458
40.2458
40.2507
40.2629
40.2811
0.750854
0.901296
1.13458
1.56881
2.358
3.57384
5.0671
6.5596
7.83883
8.79194
9.34077
9.53233
9.88978
11.3671
14.1992
17.5958
20.8594
23.8011
26.4763
28.9684
31.3219
33.5394
35.5952
37.4498
39.064
40.4113
41.4849
42.3006
42.892
43.3027
43.5774
43.7552
43.8664
43.9338
43.9728
43.9931
44.0007
44.0002
43.994
43.9833
43.9683
43.95
43.9291
43.9062
43.8822
43.8583
43.8347
43.81
43.7828