/*--------------------------------*- C++ -*----------------------------------*\
  =========                 |
  \\      /  F ield         | OpenFOAM: The Open Source CFD Toolbox
   \\    /   O peration     | Website:  https://openfoam.org
    \\  /    A nd           | Version:  7
     \\/     M anipulation  |
\*---------------------------------------------------------------------------*/
FoamFile
{
    version     2.0;
    format      ascii;
    class       volScalarField;
    location    "250";
    object      k;
}
// * * * * * * * * * * * * * * * * * * * * * * * * * * * * * * * * * * * * * //

dimensions      [0 2 -2 0 0 0 0];

internalField   nonuniform List<scalar> 
4500
(
2.10711
1.99002
1.89804
1.8345
1.78632
1.74876
1.71883
1.69446
1.67426
1.65776
1.64768
1.65632
1.70273
1.78666
1.88211
1.96821
2.04141
2.10565
2.16464
2.22025
2.27293
2.32235
2.36771
2.40806
2.44262
2.47095
2.49313
2.50969
2.52149
2.52954
2.53482
2.53816
2.54021
2.54143
2.54213
2.5425
2.54266
2.5427
2.54264
2.54252
2.54233
2.54211
2.54185
2.54156
2.54122
2.54085
2.54047
2.54008
2.53971
2.53935
2.53897
2.53863
2.53833
2.53809
2.5379
2.53771
2.53748
2.53725
2.53703
2.5368
2.53662
2.53643
2.53627
2.53613
2.53601
2.53588
2.53576
2.53561
2.53545
2.53527
2.53515
2.53508
2.53514
2.5353
2.53556
1.10354
1.67319
1.8379
1.85191
1.83283
1.80901
1.78666
1.76693
1.74981
1.73556
1.72754
1.73863
1.79253
1.8878
1.99061
2.08198
2.16608
2.24882
2.33159
2.4137
2.49391
2.5707
2.64226
2.70663
2.76206
2.80739
2.84236
2.86772
2.88507
2.89637
2.90346
2.90779
2.91035
2.91184
2.91265
2.91305
2.91317
2.91313
2.91294
2.91266
2.91225
2.9118
2.91127
2.91067
2.90997
2.90918
2.90836
2.90755
2.9068
2.90611
2.90541
2.90474
2.90414
2.90365
2.90328
2.90295
2.90256
2.9021
2.90161
2.90113
2.90072
2.90031
2.89995
2.89962
2.89939
2.89922
2.89908
2.8989
2.89863
2.89829
2.89799
2.89783
2.89791
2.89823
2.89875
0.644943
1.23225
1.53538
1.63719
1.66542
1.66865
1.66319
1.65484
1.64577
1.63684
1.63002
1.63683
1.68577
1.78689
1.91301
2.0422
2.17022
2.29637
2.41963
2.53912
2.65391
2.76256
2.863
2.95287
3.02997
3.0929
3.1415
3.17694
3.20143
3.21759
3.22788
3.23425
3.23808
3.24032
3.24155
3.24217
3.24237
3.24231
3.24203
3.24162
3.24104
3.24036
3.23957
3.23868
3.23765
3.23646
3.23521
3.234
3.23291
3.23192
3.23093
3.22993
3.22903
3.22831
3.22778
3.22733
3.22677
3.22608
3.22533
3.22459
3.22396
3.22335
3.22279
3.2223
3.22197
3.22177
3.22164
3.22141
3.22102
3.22051
3.22004
3.21979
3.21989
3.22039
3.22115
0.463615
0.893403
1.25805
1.43576
1.51271
1.54556
1.55896
1.56332
1.56315
1.55997
1.55432
1.55641
1.6009
1.71327
1.87385
2.0507
2.22591
2.39315
2.5516
2.70195
2.84439
2.978
3.10081
3.21029
3.30405
3.38062
3.43992
3.48342
3.51375
3.53398
3.547
3.55513
3.56006
3.56296
3.56458
3.5654
3.56568
3.56563
3.5653
3.56479
3.56409
3.56325
3.56228
3.56118
3.5599
3.55843
3.55688
3.55539
3.55406
3.55286
3.55164
3.55042
3.5493
3.54842
3.54778
3.54723
3.54655
3.54569
3.54475
3.54383
3.54304
3.54229
3.54159
3.54099
3.54059
3.54037
3.54024
3.53998
3.5395
3.53885
3.53826
3.53794
3.53807
3.53869
3.53964
0.39407
0.646741
0.998484
1.23089
1.35548
1.42061
1.45546
1.47453
1.4847
1.48823
1.48447
1.48276
1.52508
1.65448
1.85667
2.08351
2.30277
2.50544
2.69292
2.86819
3.03277
3.18635
3.32712
3.45249
3.55994
3.64791
3.71634
3.76688
3.80239
3.82628
3.84178
3.85153
3.85748
3.86099
3.86296
3.86398
3.86435
3.86431
3.86395
3.86338
3.86259
3.86163
3.86052
3.85926
3.85779
3.8561
3.85432
3.85262
3.8511
3.84974
3.84835
3.84695
3.84566
3.84465
3.84392
3.8433
3.84253
3.84154
3.84045
3.83939
3.83848
3.83762
3.83681
3.83612
3.83566
3.83543
3.8353
3.83501
3.83446
3.8337
3.83302
3.83265
3.8328
3.83351
3.83459
0.370615
0.488907
0.769305
1.0235
1.18837
1.28647
1.34497
1.38082
1.403
1.41454
1.41401
1.41044
1.45362
1.60428
1.85038
2.12476
2.38296
2.61569
2.82739
3.02333
3.20634
3.37667
3.53271
3.67183
3.79141
3.88973
3.96669
4.02394
4.0645
4.09201
4.10999
4.12136
4.12834
4.13248
4.13482
4.13604
4.13651
4.1365
4.13613
4.13551
4.13464
4.13359
4.13237
4.13098
4.12936
4.1275
4.12553
4.12365
4.12198
4.12048
4.11896
4.1174
4.11598
4.11486
4.11406
4.11337
4.11252
4.11142
4.11021
4.10904
4.10802
4.10707
4.10617
4.10542
4.10492
4.10467
4.10453
4.10422
4.1036
4.10277
4.102
4.10159
4.10176
4.10254
4.10372
0.364546
0.403113
0.587013
0.82365
1.01306
1.14095
1.22398
1.27833
1.31417
1.33524
1.33975
1.33698
1.38406
1.55784
1.84634
2.16381
2.45607
2.7147
2.94714
3.16083
3.35974
3.54471
3.71432
3.86597
3.99691
4.10524
4.19067
4.25477
4.30058
4.33192
4.35254
4.36567
4.37376
4.3786
4.38135
4.3828
4.38339
4.38343
4.38306
4.38241
4.38149
4.38036
4.37904
4.37755
4.3758
4.37379
4.37167
4.36964
4.36785
4.36622
4.36458
4.3629
4.36136
4.36015
4.35928
4.35853
4.35761
4.35642
4.3551
4.35383
4.35273
4.3517
4.35073
4.34991
4.34937
4.34911
4.34897
4.34864
4.34796
4.34705
4.34622
4.34577
4.34594
4.34678
4.34804
0.364603
0.363346
0.460998
0.646589
0.836795
0.985724
1.09153
1.16509
1.21594
1.24808
1.25974
1.26078
1.31431
1.51074
1.83765
2.19328
2.51558
2.79704
3.04775
3.27709
3.49012
3.68824
3.87031
4.03377
4.17575
4.29412
4.38833
4.45972
4.51124
4.5468
4.57038
4.58549
4.59486
4.60048
4.60371
4.60544
4.60619
4.60629
4.60594
4.60527
4.60431
4.60312
4.60173
4.60015
4.59829
4.59616
4.5939
4.59175
4.58984
4.58812
4.58637
4.58458
4.58293
4.58163
4.5807
4.5799
4.57891
4.57765
4.57624
4.57489
4.57371
4.57261
4.57157
4.57069
4.57011
4.56984
4.56969
4.56934
4.56863
4.56765
4.56676
4.56628
4.56644
4.56731
4.56863
0.366684
0.347483
0.386686
0.507139
0.67168
0.826403
0.949247
1.04075
1.10712
1.15161
1.17252
1.18039
1.24224
1.4589
1.81883
2.20783
2.55698
2.85904
3.12625
3.36969
3.59549
3.80566
3.99938
4.17421
4.32717
4.45589
4.55941
4.63873
4.6966
4.73694
4.76391
4.78132
4.79218
4.79875
4.80255
4.80461
4.80555
4.80575
4.80543
4.80476
4.80378
4.80255
4.8011
4.79944
4.7975
4.79527
4.7929
4.79064
4.78863
4.78682
4.78498
4.78309
4.78134
4.77996
4.77897
4.77812
4.77708
4.77574
4.77425
4.77283
4.77158
4.77042
4.76931
4.76839
4.76777
4.76748
4.76733
4.76696
4.76621
4.76519
4.76424
4.76372
4.76387
4.76476
4.7661
0.369317
0.342581
0.348918
0.412162
0.531973
0.672833
0.801897
0.906967
0.987754
1.04511
1.07701
1.09441
1.16565
1.3988
1.78559
2.20346
2.5769
2.89796
3.18037
3.43673
3.67423
3.89556
4.1003
4.28621
4.45024
4.58973
4.70325
4.79131
4.85634
4.90216
4.93308
4.95319
4.96583
4.97353
4.97802
4.9805
4.98168
4.98201
4.98175
4.9811
4.9801
4.97884
4.97735
4.97564
4.97363
4.97132
4.96886
4.9665
4.96441
4.96251
4.96059
4.95862
4.95679
4.95533
4.95427
4.95337
4.95228
4.95089
4.94934
4.94784
4.94653
4.94532
4.94416
4.94318
4.94253
4.94222
4.94205
4.94168
4.9409
4.93984
4.93884
4.93828
4.93841
4.93929
4.94065
0.371958
0.342445
0.332103
0.356569
0.428377
0.537795
0.658006
0.76818
0.859668
0.928963
0.972714
1.00156
1.08249
1.32754
1.73461
2.177
2.57264
2.91154
3.20822
3.47658
3.7249
3.95663
4.17186
4.3686
4.54384
4.69458
4.81888
4.91664
4.98978
5.04192
5.07747
5.1008
5.11557
5.12463
5.12997
5.13296
5.13444
5.13494
5.13477
5.13416
5.13317
5.1319
5.13038
5.12862
5.12657
5.12419
5.12166
5.11923
5.11706
5.11509
5.1131
5.11106
5.10915
5.10761
5.10649
5.10554
5.10441
5.10297
5.10137
5.09981
5.09845
5.09718
5.09597
5.09495
5.09426
5.09393
5.09375
5.09336
5.09257
5.09148
5.09044
5.08984
5.08993
5.0908
5.09215
0.374409
0.344309
0.325896
0.328086
0.362102
0.432754
0.529159
0.632255
0.727281
0.805227
0.860107
0.901066
0.991085
1.24295
1.6634
2.12598
2.54196
2.89786
3.20815
3.48782
3.74622
3.98766
4.21286
4.42019
4.60673
4.76923
4.90515
5.01364
5.09598
5.15545
5.19645
5.2236
5.24095
5.25166
5.25804
5.26166
5.26352
5.26424
5.26419
5.26364
5.26268
5.26141
5.25988
5.2581
5.25601
5.2536
5.25101
5.24852
5.24629
5.24425
5.24221
5.2401
5.23812
5.23652
5.23533
5.23433
5.23316
5.23169
5.23004
5.22844
5.22702
5.2257
5.22445
5.22339
5.22266
5.2223
5.22211
5.22172
5.22091
5.2198
5.21873
5.21809
5.21814
5.21897
5.22028
0.376595
0.346935
0.32478
0.315189
0.325144
0.361916
0.426566
0.510004
0.598252
0.678495
0.741409
0.793235
0.890586
1.14371
1.5703
2.04845
2.48296
2.85523
3.17871
3.46918
3.73706
3.98758
4.2222
4.43983
4.63771
4.8124
4.96078
5.08112
5.17388
5.24181
5.28923
5.32095
5.34139
5.35412
5.36177
5.36618
5.36851
5.36951
5.36962
5.36916
5.36825
5.36701
5.36548
5.36369
5.36159
5.35916
5.35654
5.354
5.35171
5.34963
5.34754
5.34538
5.34334
5.34167
5.34042
5.33937
5.33816
5.33666
5.33498
5.33334
5.33188
5.33052
5.32923
5.32813
5.32736
5.32697
5.32676
5.32636
5.32556
5.32444
5.32334
5.32266
5.32265
5.32343
5.32469
0.378494
0.349748
0.326041
0.310425
0.306798
0.320312
0.355495
0.412088
0.482954
0.556474
0.621418
0.680283
0.781558
1.02971
1.45455
1.94308
2.39408
2.78218
3.11864
3.41957
3.69642
3.95543
4.19893
4.42645
4.63559
4.82282
4.98445
5.11779
5.2223
5.30002
5.35497
5.39214
5.41631
5.43151
5.44072
5.4461
5.44902
5.45037
5.45069
5.45036
5.44952
5.44832
5.44682
5.44504
5.44295
5.44051
5.43788
5.43531
5.43298
5.43086
5.42873
5.42653
5.42444
5.42271
5.42139
5.42029
5.41906
5.41754
5.41584
5.41416
5.41266
5.41127
5.40994
5.40881
5.408
5.40757
5.40734
5.40694
5.40615
5.40503
5.40392
5.40319
5.40313
5.40383
5.40501
0.380104
0.352468
0.328352
0.309741
0.298826
0.298554
0.312574
0.34374
0.391344
0.449223
0.507966
0.567357
0.666854
0.902521
1.31661
1.80925
2.27416
2.67748
3.02683
3.33806
3.6235
3.89047
4.14224
4.37915
4.59932
4.79929
4.97486
5.12237
5.24008
5.32904
5.39284
5.4365
5.46518
5.48337
5.49451
5.50109
5.50474
5.50654
5.50713
5.50695
5.50622
5.50508
5.50362
5.50188
5.49981
5.49739
5.49477
5.49219
5.48983
5.48767
5.48551
5.48329
5.48117
5.47938
5.478
5.47684
5.47558
5.47405
5.47234
5.47065
5.46911
5.46769
5.46633
5.46517
5.46432
5.46385
5.46359
5.46319
5.46241
5.46131
5.46019
5.45942
5.45929
5.45991
5.46099
0.381432
0.354952
0.331035
0.311051
0.296301
0.288389
0.289471
0.302065
0.327891
0.365724
0.410711
0.462594
0.552406
0.766268
1.15873
1.64749
2.12261
2.54016
2.90235
3.22387
3.51767
3.79211
4.05155
4.29725
4.52804
4.74074
4.93083
5.09364
5.22606
5.32791
5.40206
5.45345
5.48756
5.50939
5.52289
5.53095
5.53553
5.53788
5.53882
5.53885
5.53825
5.5372
5.5358
5.5341
5.53208
5.5297
5.52711
5.52454
5.52217
5.51998
5.51781
5.51557
5.51342
5.51158
5.51013
5.50892
5.50764
5.50611
5.5044
5.50269
5.50113
5.49969
5.49831
5.49712
5.49623
5.49572
5.49543
5.49503
5.49427
5.49318
5.49206
5.49126
5.49106
5.49158
5.49254
0.382496
0.357126
0.333732
0.313269
0.296566
0.284515
0.278272
0.279354
0.289378
0.309063
0.337257
0.375274
0.44718
0.628433
0.986018
1.46006
1.93981
2.36972
2.74451
3.0764
3.37847
3.66002
3.92651
4.1803
4.42111
4.64633
4.85132
5.03048
5.17921
5.29575
5.38199
5.44255
5.4832
5.50946
5.52585
5.53574
5.54145
5.54451
5.54587
5.54616
5.54573
5.5448
5.54349
5.54186
5.53989
5.53758
5.53504
5.5325
5.53012
5.52793
5.52575
5.52351
5.52134
5.51946
5.51795
5.51669
5.51538
5.51385
5.51215
5.51045
5.50887
5.50741
5.50602
5.5048
5.50387
5.50332
5.50299
5.50258
5.50184
5.5008
5.49969
5.49886
5.49858
5.49899
5.49982
0.383317
0.358954
0.336237
0.315804
0.2982
0.28395
0.273668
0.268158
0.268393
0.275201
0.288852
0.31148
0.360979
0.500227
0.807296
1.25183
1.72759
2.16645
2.55303
2.89531
3.20565
3.49404
3.76702
4.02812
4.2782
4.51547
4.7355
4.93197
5.09862
5.23184
5.33213
5.40355
5.45205
5.48369
5.50362
5.51577
5.52289
5.52681
5.52871
5.52933
5.52912
5.52833
5.52712
5.52558
5.5237
5.52147
5.51901
5.51651
5.51415
5.51195
5.50978
5.50755
5.50538
5.50346
5.50189
5.50058
5.49925
5.49773
5.49605
5.49436
5.49277
5.4913
5.4899
5.48866
5.4877
5.48709
5.48672
5.48631
5.4856
5.48459
5.4835
5.48265
5.4823
5.48259
5.48327
0.383926
0.360429
0.338436
0.318319
0.300424
0.285071
0.272595
0.263409
0.258016
0.256921
0.260545
0.270687
0.299267
0.393434
0.63531
1.03147
1.49023
1.93194
2.32824
2.68058
2.99921
3.29428
3.57324
3.84085
4.09927
4.34788
4.58285
4.79739
4.9836
5.13567
5.25224
5.3365
5.3944
5.43254
5.45679
5.47171
5.48057
5.48557
5.48813
5.48917
5.48922
5.48861
5.48754
5.4861
5.48432
5.4822
5.47982
5.47739
5.47506
5.47288
5.47072
5.46852
5.46635
5.46441
5.46279
5.46143
5.46008
5.45857
5.45692
5.45524
5.45366
5.45218
5.45078
5.44952
5.44853
5.44788
5.44746
5.44703
5.44635
5.44539
5.44433
5.44347
5.44304
5.44322
5.44374
0.384356
0.361567
0.34027
0.320613
0.302785
0.286971
0.273355
0.262149
0.253598
0.247955
0.245487
0.247332
0.260519
0.315596
0.485165
0.812385
1.23579
1.67006
2.07177
2.43286
2.75953
3.06111
3.34563
3.61894
3.88467
4.14367
4.39319
4.62637
4.83377
5.00702
5.14239
5.24176
5.31088
5.35687
5.38636
5.40468
5.41567
5.422
5.42538
5.42692
5.42729
5.4269
5.42599
5.42469
5.42302
5.42102
5.41876
5.41641
5.41413
5.41198
5.40985
5.40767
5.40553
5.40357
5.40192
5.4005
5.39913
5.39764
5.39602
5.39437
5.3928
5.39133
5.38992
5.38866
5.38765
5.38694
5.38647
5.38603
5.38537
5.38446
5.38344
5.38257
5.38208
5.38214
5.3825
0.384645
0.3624
0.341721
0.322573
0.305012
0.289119
0.274987
0.262715
0.252418
0.244212
0.238229
0.235096
0.238625
0.266158
0.369555
0.612214
0.97745
1.38829
1.78736
2.1539
2.48761
2.79534
3.08498
3.36323
3.63515
3.90338
4.16677
4.41895
4.64914
4.84609
5.00308
5.12016
5.2026
5.258
5.29383
5.31627
5.32988
5.33783
5.34221
5.34437
5.34514
5.34501
5.34429
5.34313
5.3416
5.33974
5.3376
5.33536
5.33315
5.33104
5.32894
5.32681
5.3247
5.32275
5.32105
5.31959
5.3182
5.31673
5.31515
5.31353
5.31198
5.31052
5.30913
5.30787
5.30682
5.30607
5.30555
5.30508
5.30445
5.30359
5.30262
5.30175
5.3012
5.30114
5.30134
0.384827
0.362976
0.342805
0.324148
0.306946
0.291197
0.276921
0.264152
0.252933
0.243308
0.235333
0.229327
0.227258
0.238178
0.292606
0.44908
0.734049
1.09948
1.48233
1.84763
2.18565
2.49847
2.79258
3.07497
3.35192
3.62806
3.90439
4.17574
4.43029
4.65363
4.83539
4.9731
5.07126
5.13787
5.18129
5.2087
5.22546
5.23538
5.24098
5.24389
5.24513
5.24531
5.24481
5.24382
5.24245
5.24073
5.23874
5.23662
5.2345
5.23244
5.23039
5.22832
5.22625
5.2243
5.22259
5.22109
5.21967
5.21822
5.21667
5.2151
5.21358
5.21214
5.21076
5.20951
5.20845
5.20765
5.20708
5.20658
5.20597
5.20516
5.20423
5.20337
5.20278
5.20261
5.20265
0.384935
0.363349
0.343565
0.325333
0.308508
0.293015
0.278814
0.265892
0.254245
0.243876
0.234799
0.227163
0.221946
0.223659
0.248078
0.334168
0.527604
0.823031
1.1695
1.5217
1.85801
2.1733
2.47057
2.75603
3.03676
3.31938
3.60756
3.8981
4.17862
4.43127
4.64122
4.80281
4.91934
4.99913
5.05155
5.08486
5.1054
5.11768
5.12473
5.12854
5.13034
5.13088
5.13062
5.12983
5.12862
5.12707
5.12523
5.12324
5.12122
5.11923
5.11725
5.11523
5.11321
5.11129
5.10956
5.10803
5.1066
5.10516
5.10365
5.10213
5.10064
5.09922
5.09787
5.09663
5.09556
5.09472
5.0941
5.09357
5.09296
5.0922
5.09132
5.09048
5.08986
5.08959
5.08947
0.384994
0.363574
0.344062
0.326166
0.309682
0.294476
0.280464
0.267587
0.25581
0.245106
0.235463
0.226935
0.219982
0.216772
0.224936
0.265233
0.375834
0.583531
0.868944
1.18946
1.51298
1.82501
2.12253
2.40932
2.69233
2.97992
3.27882
3.58857
3.89679
4.18187
4.42368
4.61258
4.7503
4.84537
4.90827
4.94848
4.97344
4.98848
4.99725
5.00211
5.00456
5.00551
5.00554
5.00495
5.00392
5.00253
5.00086
4.99902
4.9971
4.9952
4.99328
4.99133
4.98938
4.98749
4.98576
4.98421
4.98276
4.98133
4.97986
4.97838
4.97693
4.97555
4.97423
4.973
4.97193
4.97106
4.97039
4.96982
4.96921
4.96849
4.96766
4.96685
4.9662
4.96585
4.96559
0.385025
0.363699
0.344362
0.326707
0.310497
0.29556
0.281772
0.269041
0.257304
0.24651
0.236625
0.227652
0.219783
0.214009
0.213878
0.229225
0.281977
0.403552
0.607266
0.87214
1.16522
1.46304
1.75486
2.0396
2.32271
2.61362
2.92224
3.25153
3.58946
3.91027
4.18767
4.40729
4.56893
4.68132
4.75612
4.8042
4.83422
4.85244
4.86317
4.86922
4.87241
4.87383
4.87416
4.8738
4.87295
4.87173
4.87023
4.86853
4.86674
4.86492
4.86308
4.86121
4.85932
4.85747
4.85575
4.85419
4.85273
4.8513
4.84987
4.84844
4.84703
4.84568
4.84439
4.84319
4.84212
4.84123
4.84052
4.83991
4.8393
4.8386
4.83781
4.83703
4.83637
4.83595
4.83557
0.385039
0.363763
0.344529
0.327031
0.311019
0.296298
0.282719
0.270166
0.258549
0.2478
0.237865
0.228716
0.220409
0.213362
0.209146
0.212172
0.232777
0.290861
0.410356
0.598401
0.837834
1.1039
1.37891
1.65514
1.93468
2.22696
2.54472
2.89449
3.26454
3.62437
3.94069
4.19392
4.38176
4.51316
4.60104
4.6578
4.6934
4.71514
4.72803
4.73542
4.73941
4.74134
4.742
4.74186
4.7412
4.74015
4.7388
4.73725
4.73558
4.73386
4.7321
4.7303
4.72848
4.72669
4.72499
4.72341
4.72195
4.72053
4.71913
4.71774
4.71637
4.71506
4.71381
4.71264
4.71158
4.71067
4.70993
4.70928
4.70865
4.70796
4.70721
4.70646
4.70579
4.70532
4.70484
0.385045
0.363793
0.344613
0.327206
0.311322
0.296756
0.283344
0.270952
0.259475
0.248829
0.238943
0.229769
0.221298
0.213677
0.207549
0.204797
0.209895
0.232257
0.288284
0.396217
0.561878
0.773747
1.01423
1.27062
1.5403
1.83139
2.15842
2.53053
2.93533
3.33671
3.69403
3.98245
4.19767
4.34893
4.45052
4.51639
4.55786
4.58329
4.59848
4.60726
4.6121
4.61455
4.61554
4.61563
4.61514
4.61425
4.61305
4.61164
4.61009
4.60847
4.60679
4.60506
4.6033
4.60156
4.59989
4.59832
4.59685
4.59544
4.59406
4.59271
4.59138
4.59011
4.5889
4.58776
4.58671
4.5858
4.58502
4.58434
4.58368
4.583
4.58228
4.58155
4.58088
4.58037
4.57981
0.385047
0.363805
0.344651
0.327292
0.311482
0.297013
0.283715
0.271447
0.260092
0.249554
0.239753
0.230624
0.222128
0.214291
0.207347
0.202035
0.200183
0.205748
0.226477
0.27515
0.36624
0.506728
0.691792
0.911861
1.16212
1.44868
1.7858
2.1825
2.62355
3.06661
3.46417
3.78681
4.02856
4.19909
4.31401
4.38875
4.43596
4.46502
4.48245
4.4926
4.49827
4.50122
4.50252
4.50283
4.5025
4.50174
4.50067
4.49938
4.49794
4.49641
4.4948
4.49314
4.49144
4.48975
4.4881
4.48655
4.48507
4.48367
4.48231
4.48099
4.4797
4.47847
4.47729
4.47618
4.47516
4.47424
4.47344
4.47272
4.47204
4.47135
4.47064
4.46992
4.46926
4.46873
4.46811
0.385048
0.36381
0.344666
0.32733
0.311556
0.29714
0.28391
0.271721
0.260451
0.249998
0.240274
0.231207
0.222739
0.214851
0.207604
0.201262
0.196519
0.194959
0.199832
0.217232
0.257126
0.331994
0.451883
0.621181
0.841889
1.12022
1.46746
1.8884
2.36272
2.8423
3.27435
3.62611
3.89045
4.07742
4.20374
4.28611
4.33826
4.37045
4.38981
4.40114
4.40752
4.4109
4.41247
4.41295
4.41274
4.41209
4.41112
4.40993
4.40858
4.40712
4.40558
4.40397
4.40232
4.40066
4.39905
4.3975
4.39603
4.39463
4.39328
4.39198
4.39073
4.38953
4.38838
4.3873
4.3863
4.38539
4.38457
4.38381
4.3831
4.38239
4.38167
4.38097
4.38032
4.37977
4.37911
0.385048
0.363811
0.344671
0.327343
0.311584
0.297191
0.283992
0.271841
0.260615
0.250209
0.240531
0.231504
0.223067
0.215179
0.207847
0.201162
0.195409
0.191292
0.190347
0.195645
0.21289
0.251758
0.326309
0.452683
0.644977
0.913686
1.26701
1.70422
2.20015
2.70285
3.15656
3.52662
3.80521
4.0026
4.13618
4.22342
4.27875
4.31295
4.33356
4.34564
4.35248
4.35613
4.35787
4.35844
4.35831
4.35772
4.35682
4.35569
4.3544
4.35299
4.35148
4.3499
4.34828
4.34665
4.34506
4.34352
4.34205
4.34065
4.33931
4.33802
4.33679
4.33562
4.33451
4.33345
4.33247
4.33156
4.33072
4.32994
4.32918
4.32844
4.32771
4.327
4.32635
4.3258
4.32513
0.385048
0.363811
0.344671
0.327343
0.311584
0.297191
0.283992
0.271841
0.260615
0.250209
0.240531
0.231504
0.223067
0.215179
0.207848
0.201165
0.195415
0.191301
0.190352
0.195611
0.212711
0.2512
0.325005
0.450297
0.641357
0.909015
1.26172
1.69883
2.19506
2.69829
3.15257
3.52312
3.80211
3.9998
4.13359
4.22098
4.2764
4.31065
4.3313
4.3434
4.35025
4.3539
4.35563
4.3562
4.35606
4.35547
4.35458
4.35347
4.35219
4.35079
4.34928
4.34769
4.34607
4.34445
4.34286
4.34132
4.33985
4.33844
4.3371
4.33582
4.3346
4.33345
4.33236
4.33133
4.33036
4.32945
4.3286
4.32777
4.32696
4.32617
4.32541
4.3247
4.32405
4.32351
4.32286
0.385048
0.36381
0.344666
0.32733
0.311556
0.29714
0.28391
0.271721
0.260452
0.249999
0.240275
0.231207
0.22274
0.214852
0.207608
0.201272
0.196537
0.194976
0.199794
0.216946
0.25612
0.329464
0.446933
0.613239
0.830914
1.10676
1.45255
1.87329
2.34847
2.82948
3.26308
3.6162
3.88163
4.06941
4.1963
4.27906
4.33147
4.36381
4.38327
4.39464
4.40104
4.40441
4.40597
4.40642
4.4062
4.40555
4.40461
4.40347
4.40216
4.40072
4.39918
4.39755
4.39591
4.39427
4.39267
4.39113
4.38964
4.38822
4.38687
4.38559
4.38438
4.38323
4.38215
4.38114
4.38018
4.37928
4.37839
4.37752
4.37665
4.37581
4.37501
4.37428
4.37364
4.37313
4.37251
0.385047
0.363805
0.344651
0.327292
0.311482
0.297013
0.283715
0.271447
0.260092
0.249555
0.239753
0.230625
0.222129
0.214295
0.207356
0.202054
0.200204
0.205711
0.226142
0.273889
0.362979
0.500338
0.681585
0.897685
1.14431
1.42798
1.76342
2.15996
2.60223
3.0473
3.44704
3.77162
4.01494
4.18663
4.30237
4.37767
4.42524
4.45452
4.47207
4.48228
4.48797
4.4909
4.49218
4.49245
4.49209
4.49134
4.49032
4.48911
4.48775
4.48624
4.48463
4.48294
4.48125
4.47958
4.47797
4.47642
4.47492
4.47348
4.47211
4.47082
4.46961
4.46847
4.4674
4.4664
4.46545
4.46453
4.46362
4.46268
4.46175
4.46085
4.46002
4.45928
4.45865
4.45817
4.45761
0.385045
0.363793
0.344613
0.327207
0.311323
0.296757
0.283344
0.270953
0.259476
0.24883
0.238944
0.229771
0.221301
0.213684
0.207566
0.20482
0.20987
0.231928
0.286913
0.392498
0.554493
0.761976
0.998035
1.25032
1.51654
1.80499
2.13053
2.50262
2.90882
3.31248
3.6723
3.96297
4.18001
4.33263
4.43518
4.5017
4.54359
4.56927
4.5846
4.59344
4.59829
4.60071
4.60166
4.6017
4.60118
4.6003
4.59919
4.59789
4.59644
4.59484
4.59314
4.59138
4.58963
4.58794
4.58631
4.58474
4.58322
4.58176
4.58038
4.57908
4.57787
4.57673
4.57566
4.57466
4.57372
4.57279
4.57183
4.57084
4.56983
4.56887
4.56801
4.56726
4.56666
4.56623
4.56574
0.385039
0.363763
0.344529
0.327031
0.311019
0.296299
0.28272
0.270167
0.25855
0.247801
0.237867
0.228718
0.220414
0.213376
0.209171
0.212172
0.232527
0.289594
0.406574
0.59054
0.825076
1.08624
1.35683
1.62934
1.90593
2.19609
2.51278
2.86278
3.23435
3.59653
3.91543
4.17101
4.36076
4.49358
4.58248
4.63992
4.67595
4.69794
4.71097
4.71841
4.7224
4.72429
4.72488
4.72468
4.72398
4.72296
4.72173
4.72034
4.71879
4.71709
4.71528
4.71344
4.71163
4.70991
4.70827
4.70668
4.70515
4.70366
4.70227
4.70096
4.69975
4.6986
4.69754
4.69655
4.6956
4.69466
4.69365
4.69258
4.69149
4.69048
4.68959
4.68885
4.68828
4.68791
4.68753
0.385025
0.363699
0.344363
0.326708
0.310498
0.295562
0.281773
0.269043
0.257306
0.246512
0.236627
0.227655
0.219791
0.214032
0.213903
0.229097
0.281022
0.400165
0.599582
0.859097
1.14676
1.43976
1.72754
2.00912
2.2899
2.57929
2.88732
3.21714
3.55667
3.87982
4.15974
4.38166
4.54518
4.65897
4.73477
4.78351
4.81394
4.83239
4.84324
4.84934
4.85251
4.85387
4.85412
4.85368
4.85279
4.85163
4.85028
4.84877
4.84711
4.8453
4.84338
4.84146
4.8396
4.83786
4.83621
4.83461
4.83305
4.83155
4.83014
4.82882
4.8276
4.82646
4.8254
4.82441
4.82347
4.8225
4.82143
4.82028
4.81911
4.81805
4.81714
4.81642
4.81589
4.81561
4.81535
0.384994
0.363574
0.344063
0.326167
0.309683
0.294478
0.280466
0.26759
0.255812
0.245108
0.235464
0.226939
0.219996
0.216806
0.224921
0.264692
0.373266
0.57673
0.856446
1.171
1.48914
1.79671
2.09077
2.37502
2.6563
2.94293
3.24169
3.55227
3.86219
4.14954
4.39375
4.58482
4.7243
4.82069
4.88451
4.92534
4.95067
4.96592
4.97479
4.97966
4.98207
4.98295
4.98288
4.9822
4.98114
4.97983
4.97836
4.97674
4.97497
4.97304
4.97102
4.96901
4.96712
4.96536
4.9637
4.9621
4.96052
4.95899
4.95757
4.95625
4.95503
4.95388
4.95282
4.95184
4.9509
4.9499
4.94877
4.94753
4.94629
4.94518
4.94427
4.94357
4.9431
4.94291
4.94279
0.384935
0.363349
0.343566
0.325335
0.308511
0.293018
0.278817
0.265895
0.254247
0.243877
0.234799
0.227167
0.221968
0.223698
0.247905
0.332633
0.522343
0.81197
1.15196
1.49813
1.82942
2.14078
2.43519
2.71868
2.99823
3.28038
3.56885
3.86046
4.14275
4.39758
4.60977
4.77336
4.89151
4.9725
5.02576
5.05962
5.08048
5.09292
5.10005
5.10385
5.10559
5.10604
5.10567
5.10478
5.10354
5.10209
5.10051
5.09879
5.0969
5.09486
5.09273
5.09065
5.08872
5.08697
5.08531
5.0837
5.0821
5.08055
5.07912
5.0778
5.07658
5.07542
5.07437
5.0734
5.07246
5.07143
5.07023
5.0689
5.06759
5.06645
5.06555
5.06489
5.06449
5.0644
5.06442
0.384827
0.362977
0.342807
0.324151
0.30695
0.291201
0.276925
0.264155
0.252934
0.243306
0.235329
0.22933
0.227291
0.238196
0.292005
0.445752
0.725297
1.08389
1.46
1.81955
2.15304
2.46251
2.75432
3.03526
3.3115
3.5876
3.86456
4.13719
4.39355
4.61898
4.80281
4.94234
5.04195
5.10962
5.15379
5.18167
5.1987
5.20875
5.21439
5.21728
5.21844
5.21851
5.21788
5.21678
5.21539
5.21381
5.21212
5.2103
5.20831
5.20615
5.20393
5.20179
5.19985
5.1981
5.19646
5.19484
5.19322
5.19166
5.19022
5.18891
5.18768
5.18652
5.18548
5.18452
5.18357
5.18252
5.18125
5.17983
5.17846
5.1773
5.17642
5.1758
5.17547
5.17549
5.17568
0.384645
0.362401
0.341724
0.322577
0.305017
0.289124
0.27499
0.262716
0.252416
0.244203
0.238216
0.235095
0.238668
0.266082
0.368077
0.60639
0.964859
1.36832
1.76077
2.122
2.45171
2.75664
3.04447
3.32175
3.59337
3.86193
4.12623
4.37985
4.61185
4.81077
4.96967
5.08837
5.1721
5.22843
5.26491
5.28776
5.30158
5.30962
5.31401
5.31614
5.31681
5.31655
5.31569
5.31441
5.31288
5.31119
5.3094
5.30749
5.3054
5.30314
5.30083
5.29864
5.2967
5.29498
5.29335
5.29173
5.2901
5.28852
5.28708
5.28577
5.28454
5.28339
5.28236
5.28141
5.28047
5.27938
5.27804
5.27654
5.27511
5.27395
5.27309
5.27253
5.27227
5.27241
5.27276
0.384357
0.361569
0.340274
0.320618
0.30279
0.286975
0.273358
0.262147
0.253588
0.247933
0.245457
0.247321
0.260562
0.315277
0.482312
0.80366
1.21938
1.64611
2.04153
2.39781
2.72102
3.02029
3.30345
3.57619
3.84198
4.10162
4.35226
4.58698
4.79617
4.97129
5.10839
5.20921
5.27945
5.32626
5.35631
5.37496
5.38612
5.3925
5.39587
5.39736
5.39762
5.39709
5.39602
5.3946
5.39293
5.39114
5.38928
5.38729
5.38511
5.38276
5.38038
5.37816
5.37623
5.37453
5.37293
5.37131
5.36966
5.36808
5.36665
5.36534
5.36412
5.36297
5.36195
5.36102
5.36008
5.35896
5.35756
5.35598
5.35451
5.35335
5.35253
5.35203
5.35185
5.35211
5.35262
0.383927
0.360432
0.338442
0.318325
0.30043
0.285074
0.272594
0.263399
0.257991
0.256874
0.260482
0.270656
0.299286
0.39266
0.630716
1.01974
1.47026
1.90454
2.29499
2.64303
2.95869
3.25189
3.52988
3.79726
4.05606
4.30555
4.54181
4.75794
4.9459
5.09971
5.21785
5.30341
5.36229
5.40114
5.42586
5.44106
5.45004
5.45505
5.45759
5.45855
5.45848
5.45771
5.45648
5.45493
5.45316
5.45128
5.44935
5.44729
5.44504
5.44261
5.44017
5.43794
5.43603
5.43437
5.4328
5.43118
5.42953
5.42794
5.42652
5.42523
5.42401
5.42287
5.42186
5.42095
5.42002
5.41887
5.4174
5.41576
5.41426
5.41312
5.41234
5.4119
5.4118
5.41217
5.41285
0.383319
0.358958
0.336243
0.315811
0.298205
0.283949
0.273658
0.268131
0.26834
0.275108
0.288731
0.311412
0.360933
0.498797
0.800787
1.2372
1.70445
2.13616
2.51736
2.85582
3.16364
3.45056
3.72292
3.98409
4.2348
4.47315
4.69459
4.89266
5.061
5.19584
5.29755
5.37012
5.41948
5.45172
5.47205
5.48443
5.49162
5.49554
5.49739
5.49793
5.49758
5.49663
5.49526
5.49359
5.49173
5.48979
5.4878
5.4857
5.48338
5.48089
5.47841
5.47618
5.47431
5.4727
5.47115
5.46954
5.46789
5.4663
5.46489
5.46362
5.46241
5.46128
5.46029
5.4594
5.45848
5.45731
5.45578
5.45409
5.45257
5.45145
5.45072
5.45033
5.45031
5.4508
5.45164
0.382498
0.357131
0.333739
0.313275
0.296567
0.284506
0.278246
0.279298
0.289274
0.308892
0.33705
0.375158
0.447025
0.626224
0.97758
1.44277
1.91398
2.33712
2.70699
3.03551
3.33545
3.61586
3.88204
4.13617
4.37783
4.60427
4.81073
4.9915
5.14184
5.25987
5.34739
5.40897
5.45036
5.47714
5.49387
5.50394
5.50969
5.51272
5.51402
5.51423
5.51365
5.51255
5.51106
5.50931
5.50738
5.50539
5.50336
5.50122
5.49885
5.49632
5.49381
5.4916
5.48977
5.48821
5.4867
5.4851
5.48345
5.48188
5.48049
5.47923
5.47804
5.47692
5.47595
5.47509
5.47418
5.47299
5.47142
5.46968
5.46816
5.46707
5.46638
5.46606
5.46611
5.46671
5.46769
0.381436
0.354959
0.331043
0.311055
0.296296
0.288365
0.289413
0.301954
0.327704
0.365444
0.410401
0.462433
0.552119
0.763223
1.14846
1.62786
2.09458
2.50577
2.86349
3.18204
3.47406
3.74767
4.00705
4.25332
4.48512
4.69915
4.89075
5.05514
5.18908
5.29231
5.36761
5.4199
5.45466
5.47693
5.49072
5.49892
5.5035
5.50581
5.50668
5.50662
5.50586
5.50464
5.50307
5.50125
5.49927
5.49724
5.49519
5.49302
5.49063
5.48807
5.48555
5.48336
5.48159
5.48008
5.47861
5.47703
5.47539
5.47383
5.47246
5.47123
5.47005
5.46895
5.46801
5.46717
5.46627
5.46508
5.46347
5.4617
5.46018
5.45913
5.4585
5.45823
5.45835
5.45904
5.46015
0.380108
0.352476
0.328358
0.30974
0.298806
0.298498
0.31246
0.343544
0.391048
0.448824
0.507563
0.567171
0.666443
0.898665
1.30466
1.78768
2.24442
2.6418
2.9871
3.29573
3.57968
3.84608
4.09802
4.33568
4.55699
4.75836
4.93546
5.0845
5.20364
5.29386
5.35869
5.40316
5.4324
5.45096
5.46234
5.46903
5.47267
5.47441
5.47493
5.47465
5.47376
5.47245
5.47081
5.46895
5.46693
5.46489
5.46283
5.46065
5.45824
5.45567
5.45316
5.45101
5.4493
5.44785
5.44641
5.44486
5.44323
5.4417
5.44036
5.43916
5.43799
5.43691
5.436
5.43519
5.43431
5.43311
5.43148
5.4297
5.42819
5.42718
5.4266
5.42638
5.42656
5.42734
5.42856
0.378499
0.349756
0.326045
0.310414
0.306752
0.320201
0.355291
0.411781
0.482547
0.555977
0.620952
0.680097
0.781036
1.02512
1.44117
1.91995
2.3631
2.74569
3.07848
3.37712
3.65275
3.91141
4.15527
4.38368
4.59406
4.78274
4.94587
5.08069
5.18654
5.2654
5.32129
5.35917
5.38383
5.39935
5.40876
5.41423
5.41711
5.41839
5.41864
5.4182
5.4172
5.41582
5.41415
5.41226
5.41023
5.40818
5.40612
5.40395
5.40154
5.39898
5.3965
5.39439
5.39274
5.39136
5.38996
5.38844
5.38684
5.38533
5.38402
5.38285
5.38171
5.38066
5.37977
5.37899
5.37813
5.37694
5.37529
5.37351
5.37203
5.37107
5.37052
5.37036
5.37059
5.37144
5.37275
0.376601
0.346943
0.324778
0.315157
0.325047
0.361714
0.426247
0.50959
0.597763
0.677937
0.74091
0.793069
0.88997
1.13849
1.55578
2.0242
2.45121
2.81837
3.13852
3.42698
3.69386
3.94422
4.17936
4.39798
4.59717
4.77333
4.92318
5.04492
5.13893
5.20792
5.25617
5.28852
5.30938
5.32239
5.33022
5.33469
5.33696
5.33788
5.33792
5.33736
5.33629
5.33486
5.33316
5.33127
5.32924
5.3272
5.32516
5.32301
5.32062
5.31809
5.31564
5.3136
5.31202
5.31069
5.30934
5.30786
5.30628
5.30481
5.30354
5.3024
5.30129
5.30026
5.29941
5.29866
5.29783
5.29665
5.295
5.29324
5.29179
5.29087
5.29036
5.29024
5.29052
5.29143
5.29281
0.374415
0.344314
0.325881
0.328013
0.361918
0.432432
0.52873
0.631769
0.726755
0.804648
0.8596
0.900927
0.990399
1.23723
1.64808
2.10106
2.50991
2.86106
3.16831
3.44621
3.70381
3.94524