/*--------------------------------*- C++ -*----------------------------------*\
  =========                 |
  \\      /  F ield         | OpenFOAM: The Open Source CFD Toolbox
   \\    /   O peration     | Website:  https://openfoam.org
    \\  /    A nd           | Version:  7
     \\/     M anipulation  |
\*---------------------------------------------------------------------------*/
FoamFile
{
    version     2.0;
    format      ascii;
    class       volScalarField;
    location    "250";
    object      nut;
}
// * * * * * * * * * * * * * * * * * * * * * * * * * * * * * * * * * * * * * //

dimensions      [0 2 -1 0 0 0 0];

internalField   nonuniform List<scalar> 
4500
(
0.000506064
0.000491803
0.000480303
0.000472195
0.000465952
0.000461028
0.000457065
0.000453812
0.000451093
0.000448804
0.000447071
0.000446957
0.000451053
0.000460571
0.000472549
0.000483606
0.000492825
0.000500658
0.000507664
0.000514156
0.000520252
0.000525955
0.0005312
0.000535901
0.000539971
0.000543357
0.000546052
0.0005481
0.000549585
0.000550617
0.000551304
0.000551744
0.000552017
0.000552182
0.000552278
0.000552331
0.000552355
0.000552364
0.000552361
0.000552351
0.000552332
0.00055231
0.000552283
0.000552254
0.000552219
0.00055218
0.00055214
0.0005521
0.00055206
0.000552022
0.000551982
0.000551946
0.000551914
0.000551887
0.000551865
0.000551845
0.000551821
0.000551796
0.000551772
0.000551748
0.000551729
0.000551709
0.000551692
0.000551675
0.000551662
0.000551649
0.000551635
0.00055162
0.000551602
0.000551584
0.00055157
0.000551562
0.000551567
0.000551581
0.000551606
0.000607325
0.000974333
0.00114372
0.00120841
0.00123497
0.00124672
0.00125197
0.0012541
0.00125458
0.00125409
0.00125348
0.00125763
0.00128127
0.0013309
0.00139585
0.00146712
0.00154169
0.00161716
0.00169151
0.00176359
0.00183268
0.00189795
0.00195823
0.00201216
0.00205847
0.00209629
0.0021255
0.0021468
0.0021615
0.00217121
0.00217739
0.00218123
0.00218353
0.00218488
0.00218562
0.00218599
0.00218609
0.00218604
0.00218584
0.00218557
0.00218517
0.00218472
0.0021842
0.00218361
0.00218291
0.0021821
0.00218124
0.00218043
0.00217971
0.00217908
0.00217843
0.00217777
0.00217716
0.00217669
0.00217635
0.00217607
0.00217572
0.00217525
0.00217474
0.00217422
0.00217378
0.00217336
0.00217297
0.00217263
0.00217242
0.00217233
0.0021723
0.00217221
0.00217197
0.00217162
0.00217129
0.0021711
0.00217116
0.00217149
0.002172
0.000713422
0.00121515
0.00157793
0.00177481
0.00188365
0.00194759
0.00198743
0.0020135
0.00203097
0.00204151
0.00204471
0.00205053
0.00210007
0.00223303
0.00244599
0.00270627
0.00297825
0.00324011
0.00348526
0.00371416
0.00392805
0.00412671
0.00430814
0.00446941
0.00460758
0.00472086
0.0048093
0.00487501
0.00492158
0.00495323
0.00497396
0.00498711
0.00499517
0.00499996
0.00500265
0.00500405
0.00500455
0.0050045
0.00500399
0.0050032
0.00500208
0.00500075
0.00499921
0.00499746
0.00499538
0.00499296
0.00499041
0.00498801
0.00498592
0.00498408
0.00498218
0.00498021
0.00497839
0.00497698
0.004976
0.0049752
0.00497415
0.00497275
0.00497118
0.00496963
0.00496831
0.00496704
0.00496586
0.00496488
0.00496427
0.00496406
0.00496403
0.00496377
0.00496306
0.00496199
0.00496097
0.00496041
0.00496059
0.0049616
0.00496309
0.00102123
0.00136022
0.0018715
0.00222328
0.00244809
0.00259474
0.00269401
0.00276371
0.00281352
0.00284616
0.00285907
0.00287033
0.00296536
0.00325004
0.00373731
0.00433173
0.00492496
0.00546693
0.00595404
0.0063966
0.00680298
0.00717638
0.00751553
0.00781665
0.00807541
0.00828903
0.00845758
0.00858452
0.00867578
0.00873866
0.0087803
0.00880696
0.00882343
0.00883329
0.00883889
0.00884188
0.00884306
0.00884313
0.00884234
0.008841
0.00883905
0.00883673
0.008834
0.0088309
0.00882722
0.00882292
0.0088184
0.00881415
0.00881046
0.00880721
0.00880381
0.00880028
0.00879702
0.00879449
0.00879274
0.0087913
0.0087894
0.00878686
0.00878404
0.00878127
0.00877893
0.00877667
0.00877456
0.00877281
0.00877173
0.00877137
0.00877134
0.00877086
0.00876956
0.00876762
0.0087658
0.0087648
0.00876513
0.0087669
0.00876951
0.00170707
0.00150447
0.00204416
0.0025367
0.00289423
0.00314706
0.00332847
0.00346167
0.00356042
0.00362813
0.00366013
0.00368686
0.00385707
0.00437652
0.00527169
0.00632769
0.00732992
0.0082069
0.00897257
0.00965609
0.0102776
0.0108461
0.0113625
0.0118228
0.0122212
0.0125532
0.0128182
0.0130201
0.0131668
0.0132687
0.0133367
0.0133804
0.0134076
0.0134239
0.0134333
0.0134383
0.0134405
0.0134409
0.0134399
0.0134381
0.0134354
0.0134321
0.0134282
0.0134238
0.0134185
0.0134124
0.0134059
0.0133998
0.0133945
0.0133898
0.0133848
0.0133797
0.013375
0.0133713
0.0133687
0.0133665
0.0133637
0.01336
0.013356
0.013352
0.0133486
0.0133453
0.0133423
0.0133397
0.0133381
0.0133376
0.0133375
0.0133368
0.0133349
0.0133321
0.0133295
0.013328
0.0133285
0.0133309
0.0133346
0.00293019
0.00179432
0.00215558
0.00272721
0.00321162
0.00358301
0.00386408
0.0040786
0.00424262
0.00435942
0.00442291
0.00448013
0.00476007
0.00559723
0.00701587
0.00862345
0.0100846
0.0113237
0.0123853
0.0133234
0.0141727
0.0149495
0.0156578
0.0162934
0.0168489
0.0173172
0.0176953
0.0179865
0.0182001
0.0183496
0.0184498
0.0185146
0.018555
0.0185794
0.0185936
0.0186013
0.0186049
0.0186058
0.0186048
0.0186026
0.0185992
0.018595
0.0185901
0.0185844
0.0185777
0.0185698
0.0185615
0.0185536
0.0185468
0.0185406
0.0185342
0.0185275
0.0185213
0.0185164
0.0185129
0.01851
0.0185063
0.0185015
0.0184962
0.018491
0.0184866
0.0184824
0.0184784
0.0184751
0.018473
0.0184722
0.018472
0.018471
0.0184686
0.0184649
0.0184616
0.0184596
0.0184601
0.0184632
0.0184676
0.00471649
0.0024103
0.00230969
0.00283435
0.00340744
0.00389372
0.00428363
0.00459313
0.00483695
0.00501695
0.00512623
0.00523177
0.00565449
0.00687832
0.00890379
0.0111169
0.0130637
0.0146801
0.0160495
0.0172531
0.0183412
0.0193389
0.0202536
0.0210816
0.021813
0.0224371
0.0229471
0.0233442
0.0236381
0.0238454
0.0239853
0.0240761
0.0241329
0.0241675
0.0241876
0.0241988
0.0242042
0.024206
0.0242052
0.0242028
0.0241989
0.024194
0.0241881
0.0241813
0.0241732
0.0241638
0.0241537
0.0241442
0.0241358
0.0241283
0.0241204
0.0241122
0.0241045
0.0240984
0.024094
0.0240902
0.0240856
0.0240798
0.0240733
0.0240671
0.0240617
0.0240565
0.0240516
0.0240475
0.0240448
0.0240437
0.0240434
0.0240422
0.0240392
0.0240348
0.0240307
0.0240284
0.0240287
0.0240322
0.0240372
0.00695529
0.00349982
0.00265962
0.00293575
0.00351095
0.0040837
0.00457871
0.0049898
0.00532431
0.00558026
0.00575016
0.00592202
0.00651328
0.00816873
0.0108489
0.0136964
0.0161461
0.0181543
0.0198445
0.021326
0.0226658
0.0238984
0.0250357
0.0260746
0.0270027
0.0278043
0.0284676
0.02899
0.0293805
0.0296582
0.0298468
0.0299699
0.0300475
0.0300948
0.0301226
0.0301383
0.0301462
0.0301492
0.0301488
0.0301464
0.0301421
0.0301366
0.0301299
0.0301222
0.0301129
0.030102
0.0300904
0.0300793
0.0300695
0.0300605
0.0300512
0.0300415
0.0300324
0.0300251
0.0300196
0.030015
0.0300095
0.0300027
0.0299951
0.0299878
0.0299815
0.0299754
0.0299696
0.0299646
0.0299614
0.0299599
0.0299594
0.0299579
0.0299545
0.0299495
0.0299447
0.0299418
0.029942
0.0299456
0.029951
0.00946489
0.00509821
0.00338171
0.00315982
0.00358558
0.00417743
0.0047529
0.00526067
0.00569029
0.00603167
0.00627559
0.00652961
0.00730364
0.00940643
0.0127568
0.0162526
0.0192221
0.0216402
0.0236685
0.0254439
0.0270508
0.0285342
0.0299117
0.0311816
0.0323288
0.0333322
0.0341731
0.0348434
0.0353501
0.0357137
0.0359626
0.0361262
0.0362297
0.0362934
0.036331
0.0363525
0.0363636
0.0363683
0.0363688
0.0363666
0.0363621
0.0363561
0.0363487
0.0363401
0.0363298
0.0363177
0.0363046
0.0362921
0.0362808
0.0362705
0.0362599
0.0362487
0.0362382
0.0362295
0.036223
0.0362175
0.036211
0.0362032
0.0361947
0.0361864
0.0361791
0.0361721
0.0361654
0.0361597
0.0361558
0.0361539
0.0361531
0.0361513
0.0361475
0.0361419
0.0361366
0.0361332
0.036133
0.0361366
0.0361421
0.0120503
0.00712186
0.00460003
0.00367973
0.00374451
0.00423201
0.00482938
0.00540977
0.00592791
0.00635786
0.0066855
0.00703315
0.00799041
0.010526
0.0145343
0.018684
0.0221932
0.0250448
0.0274332
0.029522
0.0314139
0.0331658
0.0348025
0.0363246
0.037715
0.0389466
0.0399926
0.0408375
0.0414838
0.0419526
0.0422763
0.0424905
0.042627
0.0427114
0.0427617
0.0427907
0.0428061
0.0428132
0.0428148
0.0428131
0.0428086
0.0428023
0.0427945
0.0427851
0.0427739
0.0427607
0.0427464
0.0427325
0.0427198
0.0427082
0.0426962
0.0426836
0.0426717
0.0426617
0.0426539
0.0426474
0.0426401
0.0426313
0.0426219
0.0426126
0.0426044
0.0425965
0.0425889
0.0425824
0.0425778
0.0425753
0.0425742
0.0425722
0.042568
0.042562
0.042556
0.0425521
0.0425516
0.0425549
0.0425602
0.0145382
0.00942102
0.00631621
0.00465964
0.00415422
0.004354
0.00486436
0.00546173
0.00604306
0.00655359
0.00696755
0.00741375
0.00854048
0.0114652
0.0160942
0.020897
0.0249687
0.0282827
0.0310579
0.0334833
0.0356805
0.0377203
0.0396361
0.0414325
0.0430914
0.04458
0.0458621
0.0469124
0.0477266
0.0483241
0.0487408
0.0490188
0.0491972
0.0493081
0.0493747
0.0494135
0.0494346
0.0494449
0.0494482
0.0494473
0.049443
0.0494366
0.0494284
0.0494185
0.0494065
0.0493923
0.0493769
0.0493617
0.0493478
0.0493348
0.0493215
0.0493076
0.0492942
0.0492828
0.0492738
0.0492662
0.0492579
0.0492482
0.0492379
0.0492277
0.0492187
0.0492099
0.0492014
0.049194
0.0491886
0.0491856
0.049184
0.0491817
0.0491772
0.0491708
0.0491644
0.0491599
0.0491588
0.0491618
0.0491666
0.0167963
0.01183
0.00841651
0.00616635
0.00499565
0.00470743
0.00496488
0.00547636
0.00606458
0.00662841
0.00711894
0.00765903
0.00892747
0.0121711
0.0173588
0.0228048
0.0274634
0.0312725
0.0344654
0.0372538
0.0397793
0.0421278
0.0443433
0.0464367
0.0483905
0.0501669
0.0517198
0.0530114
0.0540273
0.0547826
0.0553151
0.0556735
0.0559053
0.0560502
0.0561379
0.0561894
0.0562179
0.0562325
0.0562381
0.0562384
0.0562346
0.0562283
0.0562198
0.0562095
0.056197
0.056182
0.0561656
0.0561492
0.056134
0.0561198
0.0561051
0.0560899
0.0560752
0.0560624
0.056052
0.0560431
0.0560338
0.0560233
0.0560121
0.0560011
0.0559911
0.0559815
0.0559722
0.0559639
0.0559577
0.055954
0.0559519
0.0559492
0.0559445
0.0559378
0.055931
0.0559259
0.0559242
0.0559265
0.0559307
0.0187409
0.0141958
0.0107322
0.00812791
0.00637505
0.0054822
0.00529842
0.00556746
0.00606031
0.00661841
0.00715483
0.00776937
0.00913707
0.0126045
0.0182618
0.0243274
0.0295941
0.0339335
0.0375785
0.0407598
0.0436388
0.0463182
0.0488549
0.0512682
0.0535441
0.0556412
0.0575031
0.0590773
0.0603354
0.061284
0.0619608
0.0624209
0.0627206
0.0629093
0.0630243
0.0630922
0.0631306
0.0631508
0.0631596
0.0631615
0.0631586
0.0631526
0.0631441
0.0631335
0.0631205
0.0631049
0.0630877
0.0630703
0.0630539
0.0630384
0.0630225
0.063006
0.0629899
0.0629756
0.0629637
0.0629536
0.0629432
0.0629318
0.0629199
0.062908
0.0628971
0.0628866
0.0628765
0.0628673
0.0628603
0.0628558
0.0628531
0.0628501
0.0628451
0.0628382
0.062831
0.0628253
0.0628228
0.0628245
0.0628277
0.0203353
0.0163924
0.013092
0.010377
0.00825283
0.00680502
0.00606198
0.00591167
0.00615682
0.00660448
0.00712245
0.00776808
0.00917442
0.0127459
0.0187519
0.0253912
0.0312794
0.0361838
0.0403177
0.0439246
0.0471848
0.0502188
0.0530987
0.0558553
0.0584808
0.0609331
0.0631461
0.0650503
0.0665986
0.0677841
0.0686409
0.0692293
0.069616
0.0698609
0.0700111
0.0701005
0.0701516
0.0701792
0.0701923
0.0701965
0.0701948
0.0701893
0.070181
0.0701703
0.0701571
0.0701411
0.0701232
0.0701049
0.0700873
0.0700706
0.0700535
0.0700358
0.0700183
0.0700025
0.0699891
0.0699776
0.0699661
0.0699538
0.0699411
0.0699284
0.0699167
0.0699053
0.0698943
0.0698843
0.0698764
0.069871
0.0698676
0.0698642
0.069859
0.0698519
0.0698443
0.0698381
0.0698349
0.0698356
0.0698377
0.0215825
0.0183294
0.0153492
0.0127225
0.0104642
0.00865195
0.00738906
0.0067123
0.00654481
0.00673204
0.00712143
0.00771798
0.00907555
0.0126032
0.0187977
0.0259324
0.0324393
0.0379389
0.0425994
0.0466669
0.0503385
0.0537527
0.0569986
0.0601217
0.0631244
0.0659677
0.0685775
0.0708658
0.0727609
0.0742363
0.0753176
0.0760683
0.0765658
0.0768832
0.0770789
0.0771962
0.0772639
0.0773012
0.0773198
0.0773272
0.0773272
0.0773226
0.0773146
0.0773041
0.0772907
0.0772744
0.0772561
0.077237
0.0772184
0.0772006
0.0771823
0.0771633
0.0771445
0.0771272
0.0771123
0.0770993
0.0770866
0.0770734
0.0770598
0.0770463
0.0770338
0.0770216
0.0770098
0.0769989
0.07699
0.0769837
0.0769795
0.0769756
0.0769702
0.076963
0.0769551
0.0769483
0.0769443
0.076944
0.0769448
0.0225141
0.0199543
0.0173927
0.0149956
0.0127991
0.0108538
0.00925303
0.00809701
0.0074308
0.00720827
0.00732131
0.00774405
0.00892597
0.0122237
0.0183967
0.0259015
0.032998
0.0391127
0.0443353
0.0488999
0.053015
0.0568367
0.0604723
0.0639851
0.0673925
0.0706632
0.073719
0.076452
0.0787609
0.0805907
0.0819516
0.0829073
0.0835462
0.0839566
0.0842112
0.0843646
0.0844538
0.0845038
0.0845297
0.0845412
0.0845434
0.0845401
0.0845328
0.0845225
0.0845092
0.0844928
0.0844742
0.0844545
0.084435
0.0844161
0.0843966
0.0843765
0.0843564
0.0843377
0.0843211
0.0843065
0.0842926
0.0842784
0.084264
0.0842498
0.0842364
0.0842234
0.0842107
0.084199
0.0841891
0.0841818
0.0841767
0.0841722
0.0841666
0.0841593
0.0841512
0.0841439
0.084139
0.0841376
0.0841369
0.0231786
0.0212515
0.0191504
0.0170696
0.0150685
0.0131821
0.011469
0.0100177
0.00892117
0.00823366
0.00794277
0.00804326
0.00888287
0.0117149
0.0175891
0.0252729
0.0328881
0.0396195
0.045433
0.0505303
0.0551226
0.0593806
0.0634306
0.0673562
0.0711949
0.0749298
0.0784835
0.0817294
0.08453
0.086792
0.0885007
0.0897151
0.0905343
0.0910639
0.0913943
0.0915943
0.0917115
0.0917779
0.0918132
0.09183
0.0918352
0.0918335
0.0918271
0.0918173
0.0918042
0.091788
0.0917692
0.0917492
0.0917289
0.0917089
0.0916885
0.0916673
0.0916459
0.0916257
0.0916074
0.0915912
0.0915759
0.0915607
0.0915455
0.0915305
0.0915163
0.0915025
0.0914891
0.0914765
0.0914656
0.0914572
0.0914511
0.091446
0.0914401
0.0914326
0.0914243
0.0914166
0.0914109
0.0914083
0.091406
0.0236308
0.0222361
0.0205882
0.0188627
0.0171327
0.0154306
0.013789
0.0122618
0.0109268
0.00987181
0.00916123
0.00884117
0.00917545
0.0112663
0.0164801
0.0240617
0.0320616
0.0393781
0.0457982
0.0514594
0.0565621
0.0612863
0.0657761
0.0701376
0.0744333
0.0786684
0.0827743
0.0866083
0.0899916
0.0927796
0.0949201
0.0964601
0.0975083
0.0981904
0.098618
0.0988779
0.099031
0.0991184
0.0991658
0.0991894
0.0991985
0.0991989
0.0991937
0.0991846
0.099172
0.099156
0.0991373
0.099117
0.0990961
0.0990753
0.0990538
0.0990316
0.0990091
0.0989874
0.0989675
0.0989496
0.0989328
0.0989164
0.0989004
0.0988846
0.0988696
0.098855
0.0988408
0.0988274
0.0988156
0.098806
0.0987989
0.098793
0.0987867
0.0987791
0.0987707
0.0987625
0.098756
0.0987523
0.0987482
0.0239241
0.0229458
0.0217059
0.0203353
0.0189061
0.0174525
0.0159956
0.0145625
0.0131986
0.0119741
0.0109714
0.010266
0.0100402
0.011158
0.0152721
0.0223491
0.0305064
0.0383229
0.0453397
0.0515852
0.0572279
0.0624478
0.0674031
0.072223
0.0769998
0.0817698
0.0864838
0.0909891
0.0950602
0.0984865
0.101162
0.10311
0.104448
0.105324
0.105876
0.106212
0.106411
0.106525
0.106588
0.10662
0.106634
0.106637
0.106633
0.106625
0.106613
0.106597
0.106579
0.106559
0.106537
0.106516
0.106493
0.10647
0.106447
0.106424
0.106402
0.106382
0.106364
0.106346
0.106329
0.106313
0.106297
0.106282
0.106267
0.106253
0.10624
0.106229
0.106221
0.106214
0.106207
0.106199
0.106191
0.106182
0.106175
0.10617
0.106164
0.0241048
0.0234303
0.0225301
0.0214841
0.0203511
0.0191646
0.0179426
0.0166993
0.0154561
0.0142535
0.0131543
0.0122257
0.0115655
0.0116942
0.0142904
0.0203215
0.0282735
0.0364197
0.0439782
0.0508074
0.0570107
0.0627523
0.0681976
0.0734975
0.0787777
0.0841153
0.0894941
0.0947613
0.0996415
0.10384
0.107175
0.109634
0.111337
0.112457
0.113165
0.113598
0.113855
0.114003
0.114084
0.114127
0.114147
0.114153
0.114151
0.114144
0.114133
0.114118
0.1141
0.11408
0.114058
0.114036
0.114013
0.113989
0.113964
0.11394
0.113916
0.113895
0.113875
0.113856
0.113838
0.113821
0.113804
0.113788
0.113772
0.113757
0.113744
0.113732
0.113722
0.113715
0.113707
0.113699
0.11369
0.113682
0.113674
0.113668
0.11366
0.0242104
0.023743
0.023105
0.0223338
0.0214686
0.0205373
0.0195569
0.0185371
0.0174879
0.0164288
0.0153966
0.0144355
0.01358
0.0130142
0.0139556
0.0183169
0.0255221
0.0336953
0.0416647
0.0490377
0.055803
0.0620833
0.0680391
0.0738379
0.079641
0.0855765
0.0916775
0.0978059
0.103635
0.108765
0.11291
0.116003
0.11816
0.119586
0.12049
0.121043
0.121371
0.12156
0.121665
0.121721
0.121748
0.121758
0.121758
0.121752
0.121741
0.121727
0.121709
0.121689
0.121667
0.121645
0.121621
0.121596
0.12157
0.121545
0.12152
0.121497
0.121475
0.121455
0.121436
0.121417
0.1214
0.121383
0.121367
0.121351
0.121337
0.121324
0.121313
0.121304
0.121296
0.121288
0.121279
0.12127
0.121261
0.121254
0.121244
0.0242686
0.0239331
0.0234831
0.0229279
0.0222874
0.0215808
0.0208223
0.0200204
0.0191812
0.0183138
0.0174373
0.0165764
0.0157374
0.0149151
0.0146002
0.0168433
0.0225823
0.030287
0.0384114
0.0462185
0.0535103
0.0603274
0.0668045
0.0731159
0.0794578
0.0860183
0.0929
0.0999985
0.106937
0.113185
0.11832
0.122192
0.12491
0.126713
0.127856
0.128556
0.128971
0.129209
0.129342
0.129413
0.129448
0.129462
0.129464
0.129459
0.129449
0.129435
0.129418
0.129398
0.129376
0.129353
0.129329
0.129303
0.129277
0.12925
0.129224
0.129199
0.129176
0.129154
0.129134
0.129114
0.129096
0.129079
0.129062
0.129045
0.12903
0.129016
0.129004
0.128994
0.128985
0.128976
0.128967
0.128957
0.128948
0.12894
0.128929
0.0242989
0.0240415
0.0237167
0.023319
0.022854
0.0223318
0.0217619
0.0211514
0.0205052
0.0198285
0.0191313
0.0184272
0.0177167
0.0169529
0.0161381
0.0164549
0.020012
0.026519
0.0343468
0.0423574
0.0500723
0.0573878
0.0643769
0.071204
0.0780944
0.0853046
0.093028
0.101219
0.109452
0.117038
0.123369
0.128188
0.131586
0.133843
0.135274
0.136148
0.136664
0.136961
0.137125
0.137212
0.137255
0.137273
0.137277
0.137273
0.137264
0.13725
0.137233
0.137214
0.137192
0.137169
0.137144
0.137118
0.13709
0.137063
0.137035
0.137009
0.136984
0.13696
0.136939
0.136918
0.136899
0.136881
0.136863
0.136846
0.13683
0.136815
0.136802
0.136791
0.136781
0.136771
0.136762
0.136752
0.136742
0.136734
0.136721
0.0243137
0.0240994
0.0238516
0.0235602
0.0232227
0.0228416
0.0224216
0.0219674
0.0214828
0.0209714
0.0204393
0.0198943
0.0193388
0.0187464
0.0180056
0.0173407
0.018537
0.0229908
0.0298061
0.037591
0.0455037
0.0532095
0.0606629
0.0679876
0.0754265
0.0833093
0.0919433
0.101368
0.111112
0.120285
0.128045
0.133991
0.138193
0.140983
0.142747
0.143821
0.144452
0.144812
0.14501
0.145114
0.145165
0.145186
0.145191
0.145188
0.145178
0.145165
0.145148
0.145128
0.145106
0.145083
0.145057
0.145031
0.145003
0.144974
0.144945
0.144917
0.144891
0.144866
0.144843
0.144821
0.144801
0.144782
0.144764
0.144747
0.14473
0.144714
0.1447
0.144687
0.144676
0.144666
0.144656
0.144645
0.144635
0.144626
0.144612
0.0243203
0.0241281
0.0239241
0.023699
0.023447
0.0231665
0.022858
0.0225235
0.0221652
0.0217858
0.0213889
0.0209797
0.020562
0.0201318
0.0196308
0.0189355
0.0186322
0.0205654
0.0254479
0.0322926
0.0399705
0.0478293
0.0556257
0.0633905
0.0713614
0.0799415
0.0895721
0.100402
0.111904
0.122938
0.132366
0.139616
0.144738
0.148128
0.150262
0.151552
0.152305
0.15273
0.15296
0.153079
0.153136
0.153159
0.153164
0.15316
0.153149
0.153135
0.153118
0.153098
0.153076
0.153052
0.153026
0.152999
0.15297
0.15294
0.15291
0.152881
0.152853
0.152827
0.152803
0.15278
0.152759
0.152739
0.15272
0.152702
0.152685
0.152668
0.152653
0.152639
0.152627
0.152616
0.152605
0.152594
0.152584
0.152574
0.152559
0.0243232
0.0241413
0.0239602
0.0237729
0.0235739
0.0233596
0.0231282
0.0228796
0.0226144
0.0223338
0.0220399
0.021736
0.0214255
0.0211141
0.0207965
0.0203903
0.0198409
0.0199419
0.0222725
0.0272172
0.0339216
0.0414727
0.0493532
0.0574267
0.0658858
0.0751966
0.0859439
0.0983912
0.111926
0.12509
0.136396
0.145088
0.151207
0.155234
0.157752
0.15926
0.160131
0.160615
0.160873
0.161002
0.161062
0.161083
0.161086
0.161079
0.161067
0.161051
0.161033
0.161012
0.160989
0.160965
0.160938
0.16091
0.16088
0.16085
0.160819
0.160789
0.16076
0.160732
0.160706
0.160682
0.16066
0.16064
0.16062
0.160601
0.160583
0.160566
0.16055
0.160536
0.160523
0.160511
0.160499
0.160487
0.160476
0.160466
0.16045
0.0243243
0.0241468
0.0239767
0.0238093
0.0236402
0.0234658
0.0232838
0.0230925
0.0228914
0.0226804
0.0224604
0.0222329
0.0220004
0.0217689
0.0215516
0.021344
0.0210682
0.0207418
0.0211317
0.0235269
0.0282696
0.0347294
0.0421963
0.0503148
0.0591734
0.0692701
0.081309
0.0956258
0.111449
0.126934
0.140225
0.150399
0.157516
0.162166
0.165046
0.166752
0.167723
0.168252
0.168526
0.168658
0.168713
0.16873
0.168727
0.168716
0.1687
0.168682
0.168662
0.16864
0.168616
0.168591
0.168563
0.168534
0.168504
0.168472
0.168441
0.168409
0.168379
0.168351
0.168324
0.168299
0.168275
0.168254
0.168233
0.168214
0.168196
0.168178
0.168162
0.168147
0.168133
0.16812
0.168107
0.168095
0.168084
0.168073
0.168057
0.0243246
0.024149
0.0239836
0.0238256
0.0236718
0.0235195
0.0233662
0.0232101
0.0230498
0.0228845
0.022714
0.0225386
0.0223595
0.0221806
0.0220142
0.0218807
0.0217829
0.0216728
0.0215928
0.0221444
0.0243859
0.0287874
0.0350411
0.0427353
0.0518353
0.0627991
0.076342
0.0927359
0.110943
0.128716
0.143883
0.155412
0.163418
0.168603
0.171782
0.173641
0.174681
0.175233
0.175509
0.175633
0.175679
0.175686
0.175676
0.175658
0.175637
0.175616
0.175593
0.175569
0.175544
0.175517
0.175489
0.175459
0.175428
0.175395
0.175363
0.175331
0.1753
0.17527
0.175243
0.175216
0.175192
0.17517
0.175149
0.175129
0.17511
0.175093
0.175076
0.17506
0.175045
0.175031
0.175018
0.175005
0.174994
0.174983
0.174966
0.0243248
0.0241497
0.0239862
0.0238322
0.0236855
0.023544
0.0234057
0.0232688
0.0231318
0.0229935
0.022853
0.0227099
0.0225644
0.0224184
0.0222793
0.0221646
0.0221014
0.0221123
0.0221948
0.0224009
0.0231512
0.0253292
0.0296497
0.0363131
0.0453968
0.0572284
0.0723078
0.0906454
0.110896
0.130512
0.147136
0.159694
0.168356
0.173926
0.177309
0.179262
0.180335
0.18089
0.181155
0.181265
0.181296
0.181291
0.181272
0.181247
0.181221
0.181196
0.18117
0.181144
0.181118
0.18109
0.18106
0.181029
0.180997
0.180964
0.180931
0.180899
0.180867
0.180837
0.180808
0.180781
0.180756
0.180733
0.180711
0.180691
0.180672
0.180654
0.180637
0.180621
0.180606
0.180592
0.180578
0.180565
0.180553
0.180542
0.180525
0.0243248
0.0241499
0.023987
0.0238344
0.0236903
0.0235531
0.0234211
0.0232926
0.0231662
0.0230405
0.0229144
0.0227871
0.0226584
0.022529
0.0224034
0.0222928
0.0222219
0.0222329
0.0223833
0.0227363
0.0234105
0.0248064
0.0277963
0.0333639
0.0421278
0.0544028
0.0704003
0.0898545
0.111229
0.131843
0.149254
0.162369
0.171386
0.177158
0.180644
0.182639
0.183721
0.18427
0.184522
0.184618
0.184638
0.184624
0.184597
0.184567
0.184538
0.18451
0.184482
0.184455
0.184427
0.184398
0.184368
0.184336
0.184303
0.18427
0.184236
0.184204
0.184172
0.184141
0.184112
0.184085
0.184059
0.184035
0.184013
0.183993
0.183974
0.183956
0.183939
0.183923
0.183907
0.183893
0.183879
0.183866
0.183854
0.183843
0.183826
0.0243248
0.0241499
0.023987
0.0238344
0.0236903
0.0235531
0.0234211
0.0232926
0.0231662
0.0230405
0.0229144
0.0227871
0.0226584
0.0225291
0.0224036
0.0222933
0.022223
0.0222349
0.0223866
0.0227417
0.0234177
0.0248093
0.0277776
0.033306
0.0420283
0.0542736
0.0702609
0.0897246
0.111121
0.131761
0.149196
0.162328
0.171358
0.177138
0.180628
0.182627
0.18371
0.184259
0.184511
0.184608
0.184628
0.184613
0.184586
0.184556
0.184527
0.184499
0.184471
0.184444
0.184416
0.184387
0.184356
0.184325
0.184292
0.184258
0.184225
0.184193
0.184161
0.18413
0.184101
0.184073
0.184048
0.184024
0.184001
0.183981
0.183962
0.183944
0.183927
0.183911
0.183896
0.183882
0.183868
0.183855
0.183843
0.183832
0.183815
0.0243248
0.0241497
0.0239862
0.0238322
0.0236855
0.023544
0.0234057
0.0232688
0.0231318
0.0229935
0.022853
0.02271
0.0225645
0.0224187
0.0222801
0.0221663
0.022105
0.0221191
0.0222069
0.022418
0.023158
0.0252865
0.0295169
0.036073
0.0450601
0.0568272
0.0718896
0.09026
0.110578
0.130271
0.146963
0.159573
0.168271
0.173864
0.177261
0.179223
0.1803
0.180857
0.181122
0.181232
0.181264
0.181259
0.181239
0.181214
0.181188
0.181162
0.181137
0.181111
0.181084
0.181056
0.181026
0.180995
0.180963
0.18093
0.180897
0.180865
0.180833
0.180803
0.180774
0.180747
0.180721
0.180698
0.180676
0.180656
0.180637
0.180619
0.180603
0.180587
0.180572
0.180558
0.180545
0.180532
0.18052
0.180509
0.180492
0.0243246
0.024149
0.0239836
0.0238256
0.0236718
0.0235195
0.0233663
0.0232102
0.0230499
0.0228846
0.0227141
0.0225388
0.0223598
0.0221813
0.0220158
0.0218843
0.0217905
0.021688
0.0216162
0.0221538
0.0243304
0.0286214
0.0347457
0.042313
0.0513046
0.0621936
0.0757146
0.0921506
0.110451
0.128335
0.143603
0.155213
0.163273
0.168495
0.171696
0.173569
0.174615
0.175171
0.175449
0.175574
0.175619
0.175626
0.175616
0.175598
0.175577
0.175555
0.175532
0.175508
0.175483
0.175457
0.175428
0.175398
0.175366
0.175334
0.175302
0.17527
0.175239
0.175209
0.175181
0.175154
0.17513
0.175107
0.175086
0.175066
0.175048
0.175031
0.175015
0.174999
0.174985
0.174971
0.174958
0.174945
0.174933
0.174922
0.174905
0.0243243
0.0241468
0.0239767
0.0238093
0.0236402
0.0234659
0.0232839
0.0230927
0.0228916
0.0226807
0.0224608
0.0222334
0.0220011
0.0217702
0.0215546
0.0213508
0.0210836
0.0207683
0.0211444
0.0234684
0.0280935
0.0344195
0.0417569
0.0497591
0.0585213
0.06855
0.0805667
0.094923
0.110842
0.12645
0.139859
0.150127
0.157313
0.162008
0.164916
0.16664
0.16762
0.168154
0.16843
0.168563
0.168619
0.168636
0.168634
0.168622
0.168605
0.168587
0.168567
0.168545
0.168521
0.168496
0.168468
0.168439
0.168408
0.168377
0.168346
0.168315
0.168285
0.168255
0.168228
0.168203
0.168179
0.168157
0.168137
0.168118
0.1681
0.168084
0.168068
0.168053
0.168039
0.168025
0.168013
0.168
0.167988
0.167977
0.16796
0.0243232
0.0241413
0.0239602
0.023773
0.023574
0.0233597
0.0231285
0.02288
0.0226149
0.0223344
0.0220407
0.0217369
0.0214268
0.0211165
0.0208017
0.0204031
0.0198669
0.0199601
0.0222218
0.0270478
0.0336176
0.0410399
0.0488067
0.0567844
0.0651664
0.0744239
0.0851551
0.0976394
0.111264
0.124547
0.135971
0.144762
0.150953
0.15503
0.157579
0.159107
0.159988
0.160479
0.160739
0.160871
0.16093
0.160953
0.160955
0.160947
0.160934
0.160918
0.1609
0.16088
0.160858
0.160833
0.160806
0.160778
0.160748
0.160718
0.160688
0.160658
0.160628
0.1606
0.160574
0.16055
0.160527
0.160507
0.160487
0.160469
0.160452
0.160436
0.160421
0.160407
0.160393
0.160379
0.160367
0.160355
0.160343
0.160332
0.160315
0.0243204
0.0241281
0.0239242
0.0236991
0.0234473
0.0231669
0.0228585
0.0225241
0.0221661
0.0217869
0.0213903
0.0209814
0.0205642
0.0201356
0.0196395
0.0189569
0.0186559
0.0205319
0.0253005
0.0320113
0.0395603
0.0473065
0.0550091
0.0626986
0.0706116
0.0791541
0.0887781
0.0996448
0.111229
0.122371
0.131909
0.139254
0.144446
0.147885
0.15005
0.15136
0.152125
0.152556
0.15279
0.152911
0.152969
0.152992
0.152997
0.152991
0.15298
0.152966
0.152949
0.15293
0.152908
0.152884
0.152858
0.152831
0.152802
0.152773
0.152743
0.152714
0.152686
0.152659
0.152634
0.152611
0.15259
0.152571
0.152552
0.152535
0.152519
0.152504
0.152489
0.152475
0.152461
0.152448
0.152435
0.152424
0.152412
0.152401
0.152385
0.0243137
0.0240994
0.0238518
0.0235605
0.0232232
0.0228423
0.0224226
0.0219686
0.0214843
0.0209733
0.0204416
0.019897
0.0193423
0.0187521
0.0180193
0.017365
0.0185254
0.0228777
0.0295625
0.0372179
0.0450165
0.0526281
0.0600068
0.0672742
0.0746716
0.0825312
0.0911683
0.100632
0.11045
0.11972
0.127577
0.133609
0.137876
0.140711
0.142505
0.143597
0.144239
0.144606
0.144807
0.144913
0.144964
0.144986
0.144991
0.144986
0.144976
0.144962
0.144945
0.144927
0.144906
0.144883
0.144857
0.14483
0.144802
0.144774
0.144746
0.144718
0.144691
0.144665
0.144642
0.144621
0.1446
0.144582
0.144565
0.144549
0.144533
0.144519
0.144505
0.144491
0.144477
0.144464
0.144452
0.14444
0.144429
0.144419
0.144404
0.024299
0.0240417
0.023717
0.0233196
0.0228549
0.022333
0.0217635
0.0211534
0.0205076
0.0198314
0.0191348
0.0184312
0.0177215
0.0169609
0.0161557
0.0164617
0.0199402
0.0263251
0.0340235
0.0419172
0.0495351
0.0567739
0.0637047
0.0704893
0.077352
0.084551
0.092286
0.100517
0.108819
0.11649
0.122906
0.127799
0.131254
0.133551
0.135008
0.135899
0.136425
0.136728
0.136895
0.136984
0.137027
0.137045
0.137049
0.137044
0.137033
0.13702
0.137003
0.136985
0.136965
0.136942
0.136916
0.13689
0.136863
0.136836
0.136809
0.136783
0.136757
0.136733
0.136711
0.136691
0.136672
0.136655
0.136638
0.136623
0.136609
0.136596
0.136582
0.136568
0.136554
0.136541
0.136529
0.136518
0.136507
0.136498
0.136485
0.0242687
0.0239334
0.0234838
0.022929
0.0222889
0.0215828
0.0208248
0.0200234
0.0191847
0.018318
0.0174422
0.0165819
0.0157437
0.0149254
0.0146136
0.0168115
0.0224459
0.0300245
0.0380289
0.0457344
0.0529454
0.0597011
0.0661333
0.0724144
0.0787398
0.085299
0.0921987
0.0993384
0.106339
0.112662
0.11787
0.121805
0.124571
0.126408
0.127575
0.128289
0.128712
0.128956
0.129092
0.129164
0.129199
0.129213
0.129214
0.129208
0.129197
0.129183
0.129167
0.129149
0.129128
0.129106
0.12908
0.129055
0.129029
0.129003
0.128977
0.128952
0.128928
0.128905
0.128885
0.128866
0.128848
0.128832
0.128817
0.128803
0.12879
0.128777
0.128763
0.128749
0.128735
0.128723
0.128711
0.128701
0.128691
0.128683
0.128671
0.0242106
0.0237436
0.0231061
0.0223356
0.0214709
0.0205403
0.0195605
0.0185413
0.0174927
0.0164345
0.0154029
0.0144422
0.0135875
0.013025
0.0139518
0.0182387
0.0253284
0.0333802
0.0412423
0.0485289
0.0552278
0.0614593
0.0673813
0.0731598
0.0789554
0.0848971
0.091021
0.0971905
0.103076
0.10827
0.112478
0.115624
0.117822
0.119277
0.120199
0.120765
0.1211
0.121293
0.1214
0.121457
0.121484
0.121493
0.121492
0.121485
0.121474
0.12146
0.121443
0.121425
0.121405
0.121382
0.121358
0.121333
0.121307
0.121283
0.121259
0.121235
0.121212
0.121191
0.121172
0.121155
0.121138
0.121123
0.121109
0.121096
0.121084
0.121071
0.121058
0.121044
0.12103
0.121018
0.121006
0.120997
0.120988
0.120981
0.120972
0.0241051
0.0234313
0.0225319
0.0214867
0.0203545
0.0191687
0.0179474
0.0167047
0.0154621
0.0142603
0.0131614
0.012233
0.0115737
0.011701
0.0142605
0.0201992