/*--------------------------------*- C++ -*----------------------------------*\
  =========                 |
  \\      /  F ield         | OpenFOAM: The Open Source CFD Toolbox
   \\    /   O peration     | Website:  https://openfoam.org
    \\  /    A nd           | Version:  7
     \\/     M anipulation  |
\*---------------------------------------------------------------------------*/
FoamFile
{
    version     2.0;
    format      ascii;
    class       volScalarField;
    location    "250";
    object      p;
}
// * * * * * * * * * * * * * * * * * * * * * * * * * * * * * * * * * * * * * //

dimensions      [0 2 -2 0 0 0 0];

internalField   nonuniform List<scalar> 
4500
(
129.46
126.448
125.288
124.154
123.026
121.941
120.889
119.862
118.857
117.875
116.938
116.111
115.493
115.018
114.346
113.206
111.682
109.987
108.272
106.61
105.026
103.525
102.107
100.765
99.4913
98.2598
97.0318
95.7406
94.3282
92.7548
91.0351
89.1912
87.268
85.2816
83.2668
81.2238
79.1761
77.1119
75.0521
72.983
70.9217
68.8511
66.7891
64.721
62.6612
60.5951
58.5359
56.4723
54.4156
52.353
50.2986
48.2364
46.1814
44.1209
42.0667
40.0065
37.954
35.8951
33.8425
31.7871
29.7357
27.6811
25.6305
23.5761
21.5268
19.4732
17.4252
15.3718
13.3246
11.2735
9.22815
7.17674
5.13093
3.07619
1.03154
129.074
126.42
125.287
124.154
123.026
121.941
120.89
119.862
118.857
117.875
116.938
116.111
115.493
115.018
114.345
113.206
111.682
109.986
108.272
106.61
105.026
103.525
102.106
100.765
99.4912
98.2597
97.0317
95.7405
94.3281
92.7548
91.035
89.1912
87.268
85.2816
83.2668
81.2238
79.1761
77.1119
75.0521
72.983
70.9217
68.8511
66.7891
64.721
62.6612
60.5951
58.5359
56.4723
54.4156
52.353
50.2986
48.2364
46.1814
44.1209
42.0667
40.0065
37.954
35.8951
33.8425
31.7871
29.7357
27.6811
25.6305
23.5761
21.5268
19.4732
17.4252
15.3718
13.3246
11.2735
9.22815
7.17674
5.13093
3.07619
1.03154
128.986
126.427
125.289
124.156
123.027
121.941
120.89
119.863
118.858
117.875
116.938
116.111
115.492
115.017
114.345
113.205
111.681
109.986
108.272
106.609
105.025
103.524
102.106
100.764
99.4909
98.2595
97.0316
95.7404
94.328
92.7547
91.035
89.1912
87.268
85.2816
83.2668
81.2238
79.1761
77.1119
75.0521
72.983
70.9217
68.8511
66.7891
64.721
62.6612
60.5951
58.5359
56.4723
54.4156
52.353
50.2986
48.2364
46.1813
44.1209
42.0667
40.0065
37.954
35.8951
33.8425
31.7871
29.7357
27.6811
25.6305
23.5761
21.5268
19.4732
17.4252
15.3718
13.3246
11.2735
9.22815
7.17674
5.13093
3.07619
1.03154
128.986
126.435
125.291
124.157
123.028
121.942
120.89
119.863
118.858
117.875
116.938
116.111
115.492
115.017
114.344
113.205
111.681
109.986
108.272
106.609
105.025
103.524
102.106
100.764
99.4907
98.2592
97.0314
95.7402
94.3279
92.7546
91.0349
89.1911
87.2679
85.2816
83.2668
81.2238
79.1761
77.1119
75.0521
72.983
70.9217
68.8511
66.7891
64.721
62.6612
60.595
58.5359
56.4723
54.4156
52.353
50.2986
48.2364
46.1813
44.1209
42.0667
40.0065
37.954
35.8951
33.8425
31.7871
29.7357
27.6811
25.6305
23.5761
21.5268
19.4732
17.4252
15.3718
13.3246
11.2735
9.22814
7.17674
5.13093
3.07619
1.03154
128.982
126.438
125.292
124.158
123.029
121.943
120.891
119.864
118.858
117.875
116.939
116.111
115.492
115.016
114.344
113.205
111.681
109.986
108.271
106.609
105.025
103.524
102.106
100.764
99.4904
98.259
97.0312
95.7401
94.3278
92.7546
91.0349
89.1911
87.2679
85.2816
83.2668
81.2238
79.1761
77.1119
75.0521
72.983
70.9217
68.8511
66.7891
64.721
62.6611
60.595
58.5359
56.4723
54.4156
52.353
50.2986
48.2364
46.1813
44.1209
42.0667
40.0065
37.954
35.8951
33.8425
31.7871
29.7357
27.6811
25.6305
23.5761
21.5268
19.4733
17.4252
15.3718
13.3246
11.2735
9.22814
7.17673
5.13093
3.0762
1.03154
128.972
126.441
125.293
124.159
123.029
121.943
120.892
119.864
118.859
117.876
116.939
116.111
115.492
115.017
114.345
113.206
111.682
109.986
108.272
106.609
105.025
103.524
102.105
100.764
99.4902
98.2588
97.031
95.74
94.3277
92.7545
91.0349
89.1911
87.2679
85.2816
83.2667
81.2238
79.1761
77.1119
75.0521
72.9829
70.9217
68.8511
66.7891
64.721
62.6611
60.595
58.5359
56.4722
54.4156
52.353
50.2986
48.2364
46.1813
44.1209
42.0667
40.0065
37.954
35.8951
33.8425
31.7871
29.7357
27.6811
25.6305
23.5761
21.5268
19.4733
17.4252
15.3718
13.3246
11.2735
9.22814
7.17673
5.13093
3.0762
1.03154
128.962
126.444
125.294
124.16
123.03
121.944
120.892
119.865
118.859
117.876
116.939
116.111
115.492
115.017
114.345
113.207
111.683
109.987
108.272
106.609
105.025
103.524
102.105
100.763
99.49
98.2586
97.0309
95.7399
94.3277
92.7545
91.0349
89.1911
87.2679
85.2816
83.2667
81.2238
79.1761
77.1119
75.0521
72.9829
70.9217
68.8511
66.7891
64.721
62.6611
60.595
58.5359
56.4722
54.4156
52.353
50.2986
48.2364
46.1813
44.1209
42.0667
40.0065
37.954
35.895
33.8425
31.787
29.7357
27.6811
25.6305
23.5761
21.5268
19.4733
17.4252
15.3718
13.3246
11.2735
9.22813
7.17673
5.13094
3.07621
1.03155
128.953
126.447
125.295
124.161
123.031
121.945
120.893
119.865
118.86
117.876
116.939
116.111
115.492
115.018
114.347
113.208
111.683
109.987
108.272
106.609
105.025
103.523
102.105
100.763
99.4898
98.2585
97.0308
95.7398
94.3276
92.7545
91.0349
89.1911
87.2679
85.2816
83.2667
81.2238
79.1761
77.1119
75.0521
72.9829
70.9217
68.8511
66.7891
64.721
62.6611
60.595
58.5359
56.4722
54.4156
52.353
50.2986
48.2364
46.1813
44.1209
42.0667
40.0065
37.954
35.895
33.8425
31.787
29.7357
27.6811
25.6305
23.5761
21.5268
19.4733
17.4252
15.3718
13.3246
11.2735
9.22812
7.17673
5.13094
3.07622
1.03155
128.944
126.45
125.296
124.161
123.032
121.946
120.894
119.866
118.86
117.877
116.939
116.111
115.493
115.019
114.349
113.21
111.685
109.988
108.272
106.609
105.025
103.523
102.105
100.763
99.4897
98.2584
97.0307
95.7398
94.3276
92.7545
91.0349
89.1911
87.2679
85.2816
83.2668
81.2238
79.1761
77.1119
75.0521
72.9829
70.9217
68.8511
66.7891
64.721
62.6611
60.595
58.5358
56.4722
54.4156
52.353
50.2986
48.2364
46.1813
44.1209
42.0667
40.0065
37.954
35.895
33.8425
31.787
29.7357
27.6811
25.6305
23.5761
21.5268
19.4733
17.4252
15.3718
13.3246
11.2735
9.22812
7.17672
5.13095
3.07622
1.03156
128.935
126.453
125.296
124.162
123.032
121.946
120.894
119.866
118.861
117.877
116.94
116.112
115.494
115.021
114.351
113.212
111.686
109.989
108.273
106.609
105.025
103.523
102.105
100.763
99.4896
98.2583
97.0306
95.7397
94.3276
92.7545
91.0349
89.1912
87.2679
85.2816
83.2668
81.2238
79.1761
77.1119
75.0521
72.9829
70.9217
68.8511
66.7891
64.721
62.6611
60.595
58.5358
56.4722
54.4156
52.3529
50.2986
48.2364
46.1813
44.1209
42.0667
40.0065
37.954
35.895
33.8425
31.787
29.7357
27.681
25.6305
23.5761
21.5268
19.4733
17.4253
15.3718
13.3246
11.2735
9.22811
7.17672
5.13095
3.07623
1.03156
128.925
126.457
125.297
124.162
123.033
121.947
120.895
119.867
118.861
117.878
116.94
116.113
115.496
115.023
114.353
113.214
111.688
109.99
108.274
106.61
105.025
103.523
102.105
100.763
99.4895
98.2582
97.0306
95.7397
94.3277
92.7546
91.035
89.1912
87.268
85.2816
83.2668
81.2238
79.1761
77.1119
75.0521
72.9829
70.9217
68.851
66.7891
64.721
62.6611
60.595
58.5358
56.4722
54.4155
52.3529
50.2986
48.2364
46.1813
44.1209
42.0667
40.0065
37.9539
35.895
33.8425
31.787
29.7357
27.681
25.6305
23.5761
21.5268
19.4733
17.4253
15.3718
13.3246
11.2735
9.22811
7.17672
5.13095
3.07624
1.03157
128.914
126.461
125.297
124.163
123.033
121.947
120.895
119.868
118.862
117.878
116.941
116.114
115.498
115.026
114.356
113.216
111.689
109.991
108.274
106.61
105.025
103.524
102.105
100.763
99.4895
98.2582
97.0306
95.7398
94.3277
92.7547
91.035
89.1913
87.268
85.2816
83.2668
81.2238
79.1761
77.1119
75.0521
72.9829
70.9217
68.851
66.7891
64.721
62.6611
60.5949
58.5358
56.4722
54.4155
52.3529
50.2986
48.2364
46.1813
44.1209
42.0667
40.0065
37.9539
35.895
33.8425
31.787
29.7357
27.681
25.6305
23.5761
21.5268
19.4733
17.4253
15.3718
13.3246
11.2735
9.2281
7.17671
5.13096
3.07624
1.03157
128.902
126.465
125.297
124.163
123.034
121.948
120.896
119.868
118.862
117.879
116.942
116.115
115.5
115.029
114.359
113.219
111.692
109.992
108.275
106.611
105.026
103.524
102.105
100.763
99.4896
98.2582
97.0306
95.7399
94.3278
92.7548
91.0351
89.1913
87.2681
85.2817
83.2668
81.2238
79.1761
77.1119
75.0521
72.9829
70.9217
68.851
66.7891
64.721
62.661
60.5949
58.5358
56.4722
54.4155
52.3529
50.2986
48.2364
46.1813
44.1209
42.0667
40.0065
37.9539
35.895
33.8424
31.787
29.7357
27.681
25.6305
23.5761
21.5268
19.4733
17.4253
15.3718
13.3246
11.2735
9.22809
7.17671
5.13096
3.07625
1.03159
128.89
126.47
125.297
124.163
123.034
121.948
120.896
119.868
118.863
117.879
116.943
116.116
115.502
115.031
114.362
113.222
111.694
109.994
108.276
106.612
105.026
103.524
102.105
100.763
99.4897
98.2583
97.0307
95.74
94.328
92.7549
91.0353
89.1914
87.2681
85.2817
83.2668
81.2239
79.1761
77.1119
75.0521
72.9829
70.9217
68.851
66.7891
64.721
62.661
60.5949
58.5358
56.4722
54.4155
52.3529
50.2986
48.2363
46.1813
44.1209
42.0667
40.0065
37.9539
35.895
33.8424
31.787
29.7356
27.681
25.6305
23.5761
21.5268
19.4733
17.4253
15.3718
13.3246
11.2734
9.22809
7.1767
5.13096
3.07626
1.03158
128.876
126.474
125.297
124.163
123.034
121.948
120.896
119.869
118.863
117.88
116.943
116.118
115.504
115.034
114.365
113.224
111.696
109.996
108.278
106.613
105.027
103.525
102.106
100.763
99.4899
98.2585
97.0309
95.7402
94.3282
92.7551
91.0354
89.1915
87.2682
85.2818
83.2669
81.2239
79.1761
77.1119
75.0521
72.9829
70.9217
68.851
66.7891
64.721
62.661
60.5949
58.5358
56.4722
54.4155
52.3529
50.2985
48.2363
46.1813
44.1209
42.0667
40.0065
37.9539
35.895
33.8424
31.787
29.7356
27.681
25.6305
23.5761
21.5268
19.4733
17.4253
15.3718
13.3246
11.2734
9.22808
7.1767
5.13096
3.07626
1.0316
128.862
126.48
125.297
124.163
123.034
121.948
120.896
119.869
118.863
117.88
116.944
116.119
115.506
115.036
114.367
113.227
111.699
109.998
108.28
106.614
105.028
103.526
102.106
100.764
99.4903
98.2588
97.0312
95.7404
94.3284
92.7553
91.0356
89.1917
87.2683
85.2818
83.2669
81.2239
79.1761
77.1119
75.0521
72.9829
70.9216
68.851
66.789
64.7209
62.661
60.5949
58.5358
56.4722
54.4155
52.3529
50.2985
48.2363
46.1813
44.1209
42.0667
40.0065
37.9539
35.895
33.8424
31.787
29.7356
27.681
25.6304
23.576
21.5268
19.4733
17.4253
15.3718
13.3246
11.2734
9.22808
7.17669
5.13096
3.07626
1.0316
128.848
126.486
125.298
124.164
123.034
121.948
120.896
119.869
118.864
117.881
116.945
116.121
115.508
115.038
114.369
113.229
111.701
110
108.282
106.616
105.029
103.527
102.107
100.765
99.4907
98.2592
97.0315
95.7408
94.3288
92.7556
91.0358
89.1919
87.2684
85.2819
83.267
81.2239
79.1762
77.1119
75.0521
72.9829
70.9216
68.851
66.789
64.7209
62.661
60.5949
58.5357
56.4721
54.4155
52.3529
50.2985
48.2363
46.1813
44.1209
42.0667
40.0065
37.9539
35.895
33.8424
31.7869
29.7356
27.681
25.6304
23.576
21.5268
19.4733
17.4253
15.3718
13.3246
11.2734
9.22808
7.17669
5.13096
3.07626
1.03162
128.832
126.492
125.298
124.164
123.034
121.948
120.896
119.869
118.864
117.881
116.946
116.122
115.509
115.039
114.371
113.231
111.704
110.003
108.284
106.618
105.031
103.528
102.108
100.765
99.4914
98.2597
97.032
95.7413
94.3292
92.756
91.0362
89.1921
87.2686
85.282
83.267
81.224
79.1762
77.1119
75.0521
72.9829
70.9216
68.851
66.789
64.7209
62.661
60.5949
58.5357
56.4721
54.4155
52.3529
50.2985
48.2363
46.1812
44.1209
42.0667
40.0065
37.9539
35.895
33.8424
31.7869
29.7356
27.681
25.6304
23.576
21.5268
19.4733
17.4253
15.3718
13.3246
11.2734
9.22808
7.17668
5.13096
3.07626
1.03161
128.816
126.499
125.298
124.164
123.034
121.948
120.896
119.869
118.864
117.881
116.947
116.123
115.511
115.04
114.371
113.233
111.706
110.006
108.286
106.62
105.032
103.529
102.109
100.766
99.4923
98.2605
97.0327
95.7419
94.3298
92.7565
91.0366
89.1924
87.2688
85.2822
83.2671
81.224
79.1762
77.112
75.0521
72.983
70.9216
68.851
66.789
64.7209
62.661
60.5949
58.5357
56.4721
54.4155
52.3529
50.2985
48.2363
46.1812
44.1209
42.0667
40.0065
37.9539
35.895
33.8424
31.7869
29.7356
27.681
25.6304
23.576
21.5268
19.4733
17.4253
15.3718
13.3246
11.2734
9.22808
7.17667
5.13095
3.07626
1.03163
128.799
126.506
125.298
124.165
123.035
121.948
120.896
119.869
118.864
117.882
116.947
116.125
115.512
115.04
114.37
113.233
111.708
110.009
108.289
106.622
105.035
103.531
102.111
100.768
99.4934
98.2615
97.0337
95.7428
94.3306
92.7572
91.0371
89.1928
87.269
85.2823
83.2672
81.2241
79.1762
77.112
75.0521
72.983
70.9216
68.851
66.789
64.721
62.661
60.5948
58.5357
56.4721
54.4155
52.3529
50.2985
48.2363
46.1812
44.1209
42.0667
40.0065
37.9539
35.895
33.8424
31.7869
29.7356
27.6809
25.6304
23.576
21.5268
19.4733
17.4253
15.3719
13.3246
11.2735
9.22808
7.17667
5.13095
3.07626
1.03162
128.781
126.514
125.298
124.165
123.035
121.948
120.897
119.869
118.864
117.882
116.948
116.126
115.513
115.039
114.369
113.233
111.71
110.011
108.292
106.625
105.037
103.533
102.113
100.769
99.4949
98.2628
97.0349
95.744
94.3317
92.7581
91.0378
89.1933
87.2694
85.2826
83.2673
81.2242
79.1763
77.112
75.0522
72.983
70.9216
68.851
66.789
64.721
62.661
60.5948
58.5357
56.4721
54.4155
52.3529
50.2985
48.2363
46.1812
44.1208
42.0667
40.0065
37.9539
35.895
33.8424
31.7869
29.7356
27.6809
25.6304
23.576
21.5267
19.4733
17.4253
15.3719
13.3246
11.2735
9.22808
7.17666
5.13094
3.07625
1.03165
128.763
126.521
125.298
124.166
123.035
121.949
120.897
119.869
118.864
117.882
116.949
116.127
115.513
115.038
114.366
113.232
111.711
110.014
108.295
106.628
105.04
103.536
102.115
100.771
99.4966
98.2645
97.0365
95.7455
94.333
92.7593
91.0387
89.1939
87.2698
85.2828
83.2675
81.2243
79.1763
77.1121
75.0522
72.983
70.9216
68.851
66.7891
64.721
62.661
60.5948
58.5357
56.4721
54.4155
52.3529
50.2985
48.2363
46.1812
44.1208
42.0667
40.0065
37.9539
35.895
33.8424
31.7869
29.7356
27.6809
25.6304
23.576
21.5267
19.4733
17.4253
15.3719
13.3246
11.2735
9.22809
7.17665
5.13093
3.07625
1.03164
128.744
126.53
125.298
124.166
123.036
121.949
120.897
119.869
118.864
117.883
116.95
116.129
115.514
115.036
114.363
113.23
111.712
110.016
108.298
106.631
105.043
103.538
102.117
100.774
99.4988
98.2666
97.0386
95.7475
94.3348
92.7608
91.0398
89.1948
87.2703
85.2832
83.2677
81.2244
79.1764
77.1121
75.0522
72.983
70.9216
68.8511
66.7891
64.721
62.661
60.5949
58.5357
56.4721
54.4154
52.3529
50.2985
48.2363
46.1812
44.1208
42.0666
40.0065
37.9539
35.895
33.8424
31.7869
29.7356
27.6809
25.6304
23.576
21.5267
19.4732
17.4253
15.3719
13.3247
11.2735
9.2281
7.17665
5.13092
3.07624
1.03166
128.726
126.538
125.298
124.167
123.036
121.949
120.897
119.869
118.864
117.883
116.951
116.13
115.515
115.034
114.36
113.228
111.711
110.018
108.301
106.634
105.046
103.541
102.12
100.776
99.5014
98.2692
97.0411
95.75
94.3371
92.7627
91.0413
89.1958
87.271
85.2836
83.268
81.2246
79.1765
77.1122
75.0522
72.983
70.9216
68.8511
66.7891
64.721
62.661
60.5949
58.5357
56.4721
54.4154
52.3529
50.2985
48.2363
46.1812
44.1208
42.0666
40.0065
37.9539
35.895
33.8425
31.7869
29.7356
27.6809
25.6304
23.576
21.5267
19.4732
17.4253
15.3719
13.3247
11.2735
9.22811
7.17664
5.13091
3.07623
1.03165
128.708
126.546
125.298
124.168
123.037
121.949
120.897
119.869
118.864
117.883
116.952
116.132
115.516
115.033
114.356
113.225
111.71
110.019
108.303
106.637
105.049
103.545
102.123
100.779
99.5043
98.2722
97.0442
95.753
94.3399
92.765
91.0431
89.1971
87.2719
85.2842
83.2683
81.2248
79.1766
77.1122
75.0523
72.9831
70.9217
68.8511
66.7891
64.721
62.661
60.5949
58.5357
56.4721
54.4154
52.3529
50.2985
48.2363
46.1812
44.1208
42.0666
40.0065
37.9539
35.895
33.8425
31.7869
29.7356
27.6809
25.6304
23.5759
21.5267
19.4732
17.4253
15.3719
13.3247
11.2735
9.22813
7.17663
5.1309
3.07622
1.03168
128.69
126.554
125.298
124.168
123.037
121.95
120.897
119.87
118.865
117.884
116.953
116.133
115.516
115.031
114.353
113.222
111.709
110.019
108.305
106.64
105.052
103.548
102.126
100.782
99.5076
98.2757
97.0479
95.7568
94.3433
92.7679
91.0452
89.1985
87.2728
85.2848
83.2687
81.225
79.1767
77.1123
75.0523
72.9831
70.9217
68.8511
66.7891
64.721
62.6611
60.5949
58.5357
56.4721
54.4154
52.3529
50.2985
48.2363
46.1812
44.1208
42.0666
40.0065
37.9539
35.895
33.8425
31.7869
29.7356
27.6809
25.6304
23.5759
21.5266
19.4731
17.4253
15.3719
13.3248
11.2736
9.22815
7.17663
5.13089
3.07621
1.03166
128.674
126.561
125.297
124.169
123.037
121.95
120.898
119.87
118.865
117.884
116.953
116.134
115.517
115.03
114.35
113.219
111.708
110.019
108.306
106.641
105.054
103.55
102.129
100.786
99.5111
98.2796
97.0522
95.7611
94.3473
92.7711
91.0476
89.2002
87.2739
85.2854
83.2691
81.2252
79.1769
77.1124
75.0523
72.9831
70.9217
68.8511
66.7891
64.721
62.6611
60.5949
58.5358
56.4721
54.4154
52.3529
50.2985
48.2363
46.1812
44.1208
42.0666
40.0065
37.9539
35.895
33.8425
31.7869
29.7357
27.6809
25.6304
23.5759
21.5266
19.4731
17.4253
15.3719
13.3248
11.2736
9.22818
7.17662
5.13089
3.0762
1.03168
128.66
126.568
125.297
124.169
123.038
121.95
120.898
119.87
118.865
117.885
116.954
116.135
115.518
115.029
114.347
113.217
111.706
110.019
108.306
106.642
105.056
103.553
102.132
100.789
99.5147
98.2837
97.0568
95.7659
94.3517
92.7746
91.0501
89.2018
87.2749
85.286
83.2694
81.2254
79.177
77.1124
75.0524
72.9831
70.9217
68.8511
66.7891
64.721
62.6611
60.5949
58.5358
56.472
54.4154
52.3529
50.2985
48.2363
46.1812
44.1208
42.0666
40.0065
37.9539
35.895
33.8426
31.7869
29.7357
27.6809
25.6304
23.5759
21.5266
19.473
17.4252
15.3719
13.3248
11.2736
9.22821
7.17662
5.13088
3.07619
1.03167
128.65
126.573
125.297
124.17
123.038
121.95
120.898
119.87
118.865
117.885
116.955
116.136
115.518
115.028
114.345
113.215
111.706
110.018
108.306
106.643
105.057
103.554
102.134
100.791
99.518
98.2877
97.0613
95.7704
94.3557
92.7777
91.0523
89.2032
87.2758
85.2866
83.2697
81.2256
79.177
77.1125
75.0524
72.9831
70.9217
68.8511
66.7891
64.7211
62.6611
60.5949
58.5358
56.472
54.4154
52.3528
50.2985
48.2364
46.1813
44.1207
42.0665
40.0065
37.954
35.895
33.8426
31.7869
29.7357
27.6809
25.6304
23.5758
21.5265
19.473
17.4252
15.3719
13.3249
11.2737
9.22825
7.17661
5.13088
3.07618
1.03167
128.644
126.576
125.296
124.17
123.038
121.95
120.898
119.87
118.865
117.885
116.955
116.137
115.518
115.027
114.344
113.214
111.705
110.018
108.306
106.643
105.057
103.555
102.135
100.793
99.5201
98.2904
97.0643
95.7735
94.3583
92.7798
91.0537
89.2041
87.2763
85.2869
83.2699
81.2257
79.1771
77.1125
75.0524
72.9831
70.9217
68.8511
66.7891
64.7211
62.6612
60.5949
58.5358
56.472
54.4153
52.3528
50.2985
48.2364
46.1813
44.1207
42.0665
40.0064
37.954
35.8951
33.8426
31.7869
29.7357
27.6808
25.6305
23.5758
21.5265
19.4729
17.4252
15.3719
13.325
11.2737
9.22829
7.17661
5.13088
3.07618
1.03166
128.644
126.576
125.296
124.17
123.038
121.95
120.898
119.87
118.865
117.885
116.955
116.137
115.518
115.027
114.344
113.214
111.705
110.018
108.307
106.643
105.057
103.555
102.135
100.793
99.5202
98.2904
97.0644
95.7735
94.3584
92.7798
91.0537
89.2041
87.2763
85.2869
83.2699
81.2257
79.1771
77.1125
75.0524
72.9831
70.9217
68.8511
66.7892
64.7211
62.6612
60.5949
58.5358
56.472
54.4153
52.3528
50.2986
48.2364
46.1813
44.1207
42.0665
40.0064
37.954
35.8951
33.8427
31.7869
29.7357
27.6808
25.6305
23.5758
21.5265
19.4728
17.4252
15.3719
13.325
11.2738
9.22834
7.17661
5.13089
3.07617
1.03164
128.65
126.573
125.297
124.17
123.038
121.95
120.898
119.87
118.865
117.885
116.955
116.136
115.518
115.027
114.345
113.215
111.706
110.018
108.306
106.643
105.057
103.554
102.134
100.791
99.5181
98.2879
97.0615
95.7706
94.3559
92.7779
91.0525
89.2033
87.2758
85.2865
83.2698
81.2256
79.1771
77.1124
75.0524
72.9831
70.9217
68.8511
66.7892
64.7211
62.6612
60.5949
58.5358
56.4719
54.4153
52.3528
50.2986
48.2364
46.1813
44.1207
42.0665
40.0064
37.954
35.8951
33.8427
31.7869
29.7358
27.6808
25.6305
23.5757
21.5264
19.4727
17.4251
15.3719
13.3251
11.2738
9.2284
7.1766
5.13091
3.07616
1.03164
128.66
126.568
125.297
124.169
123.038
121.95
120.898
119.87
118.865
117.884
116.954
116.135
115.518
115.028
114.347
113.216
111.706
110.019
108.306
106.643
105.056
103.553
102.132
100.789
99.5149
98.284
97.0571
95.7662
94.352
92.7749
91.0503
89.2019
87.275
85.286
83.2695
81.2254
79.177
77.1124
75.0524
72.983
70.9217
68.851
66.7892
64.7211
62.6613
60.5949
58.5359
56.4719
54.4153
52.3527
50.2986
48.2364
46.1814
44.1206
42.0665
40.0064
37.9541
35.8951
33.8428
31.7868
29.7358
27.6808
25.6305
23.5757
21.5264
19.4727
17.4251
15.3719
13.3251
11.2738
9.22845
7.17659
5.13093
3.07615
1.03162
128.674
126.561
125.297
124.169
123.037
121.95
120.898
119.87
118.865
117.884
116.954
116.134
115.517
115.029
114.349
113.218
111.708
110.019
108.306
106.642
105.055
103.551
102.13
100.786
99.5114
98.2799
97.0526
95.7615
94.3478
92.7715
91.0479
89.2002
87.274
85.2854
83.2691
81.2251
79.1769
77.1123
75.0524
72.983
70.9217
68.851
66.7892
64.721
62.6613
60.5949
58.5359
56.4718
54.4153
52.3527
50.2987
48.2364
46.1814
44.1206
42.0665
40.0063
37.9541
35.8951
33.8428
31.7868
29.7358
27.6808
25.6305
23.5756
21.5264
19.4726
17.4251
15.3719
13.3252
11.2738
9.22849
7.17658
5.13095
3.07614
1.03162
128.69
126.554
125.298
124.168
123.037
121.95
120.897
119.87
118.865
117.884
116.953
116.133
115.516
115.03
114.352
113.221
111.709
110.019
108.305
106.64
105.052
103.548
102.127
100.783
99.508
98.2761
97.0484
95.7572
94.3438
92.7682
91.0455
89.1986
87.273
85.2847
83.2687
81.2249
79.1768
77.1122
75.0524
72.983
70.9217
68.851
66.7892
64.721
62.6613
60.5949
58.5359
56.4718
54.4153
52.3527
50.2987
48.2364
46.1814
44.1206
42.0665
40.0063
37.9541
35.8951
33.8428
31.7868
29.7358
27.6807
25.6306
23.5756
21.5263
19.4725
17.4251
15.3718
13.3252
11.2739
9.22854
7.17658
5.13097
3.07614
1.03159
128.708
126.546
125.298
124.168
123.037
121.949
120.897
119.869
118.864
117.883
116.952
116.132
115.516
115.032
114.355
113.224
111.71
110.019
108.304
106.637
105.049
103.545
102.124
100.78
99.5047
98.2726
97.0447
95.7535
94.3404
92.7653
91.0434
89.1971
87.272
85.2841
83.2684
81.2247
79.1767
77.1121
75.0523
72.9829
70.9217
68.851
66.7892
64.721
62.6614
60.5949
58.5359
56.4718
54.4153
52.3526
50.2987
48.2364
46.1814
44.1206
42.0665
40.0063
37.9541
35.8951
33.8428
31.7868
29.7359
27.6807
25.6306
23.5756
21.5263
19.4725
17.4251
15.3718
13.3253
11.2739
9.22858
7.17657
5.13099
3.07613
1.03159
128.726
126.538
125.298
124.167
123.036
121.949
120.897
119.869
118.864
117.883
116.951
116.13
115.515
115.033
114.358
113.227
111.711
110.018
108.301
106.635
105.046
103.542
102.121
100.777
99.5018
98.2696
97.0417
95.7505
94.3376
92.763
91.0416
89.1958
87.2712
85.2835
83.2681
81.2244
79.1766
77.112
75.0523
72.9829
70.9217
68.8509
66.7892
64.721
62.6614
60.5949
58.5359
56.4717
54.4153
52.3526
50.2988
48.2364
46.1815
44.1205
42.0665
40.0063
37.9542
35.8951
33.8429
31.7868
29.7359
27.6807
25.6306
23.5756
21.5263
19.4724
17.4251
15.3718
13.3253
11.2739
9.22861
7.17657
5.13101
3.07613
1.03156
128.744
126.53
125.298
124.166
123.036
121.949
120.897
119.869
118.864
117.882
116.95
116.129
115.514
115.035
114.362
113.229
111.711
110.016
108.299
106.632
105.043
103.539
102.118
100.774
99.4993
98.2671
97.0391
95.748
94.3353
92.7611
91.0401
89.1947
87.2705
85.2831
83.2678
81.2243
79.1765
77.112
75.0523
72.9828
70.9217
68.8509
66.7892
64.721
62.6614
60.5949
58.5359
56.4717
54.4153
52.3526
50.2988
48.2364
46.1815
44.1205
42.0665
40.0062
37.9542
35.8951
33.8429
31.7868
29.7359
27.6807
25.6306
23.5755
21.5263
19.4724
17.4251
15.3718
13.3253
11.2739
9.22864
7.17656
5.13103
3.07612
1.03156
128.763
126.522
125.298
124.166
123.035
121.949
120.897
119.869
118.864
117.882
116.949
116.127
115.513
115.036
114.365
113.231
111.711
110.014
108.296
106.628
105.04
103.536
102.115
100.772
99.4972
98.265
97.0371
95.746
94.3336
92.7596
91.039
89.1939
87.2699
85.2827
83.2676
81.2241
79.1764
77.1119
75.0523
72.9828
70.9217
68.8509
66.7893
64.721
62.6614
60.5949
58.5359
56.4717
54.4153
52.3526
50.2988
48.2364
46.1815
44.1205
42.0665
40.0062
37.9542
35.8951
33.8429
31.7868
29.7359
27.6807
25.6306
23.5755
21.5263
19.4724
17.4251
15.3718
13.3254
11.2739
9.22867
7.17656
5.13105
3.07612
1.03154
128.781
126.514
125.298
124.165
123.035
121.948
120.897
119.869
118.864
117.882
116.948
116.126
115.512
115.037
114.367
113.232
111.71
110.011
108.293
106.625
105.038
103.534
102.113
100.77
99.4954
98.2633
97.0355
95.7445
94.3322
92.7584
91.0381
89.1932
87.2695
85.2824
83.2674
81.224
79.1764
77.1118
75.0522
72.9828
70.9218
68.8509
66.7893
64.7209
62.6615
60.5949
58.5359
56.4717
54.4153
52.3526
50.2988
48.2364
46.1815
44.1205
42.0665
40.0062
37.9542
35.8951
33.8429
31.7868
29.7359
27.6807
25.6306
23.5755
21.5263
19.4723
17.4251
15.3718
13.3254
11.2739
9.22869
7.17655
5.13106
3.07611
1.03154
128.799
126.506
125.298
124.165
123.035
121.948
120.896
119.869
118.864
117.881
116.948
116.125
115.512
115.038
114.368
113.232
111.708
110.009
108.29
106.623
105.035
103.532
102.111
100.768
99.494
98.262
97.0342
95.7433
94.3311
92.7575
91.0374
89.1927
87.2692
85.2822
83.2673
81.2239
79.1764
77.1118
75.0522
72.9828
70.9218
68.8509
66.7893
64.7209
62.6615
60.5949
58.536
56.4717
54.4153
52.3526
50.2989
48.2364
46.1816
44.1205
42.0666
40.0062
37.9543
35.8951
33.8429
31.7867
29.736
27.6807
25.6306
23.5755
21.5263
19.4723
17.4251
15.3718
13.3254
11.2739
9.22871
7.17654
5.13107
3.07611
1.03152
128.816
126.499
125.298
124.164
123.034
121.948
120.896
119.869
118.864
117.881
116.947
116.124
115.511
115.038
114.369
113.231
111.706
110.006
108.287
106.62
105.033
103.53
102.11
100.767
99.4928
98.261
97.0333
95.7424
94.3303
92.7568
91.0369
89.1923
87.2689
85.282
83.2672
81.2238
79.1763
77.1118
75.0522
72.9827
70.9218
68.8508
66.7893
64.7209
62.6615
60.5949
58.536
56.4717
54.4153
52.3526
50.2989
48.2364
46.1816
44.1205
42.0666
40.0062
37.9543
35.8951
33.843
31.7867
29.736
27.6807
25.6306
23.5755
21.5263
19.4723
17.4252
15.3718
13.3254
11.2739
9.22873
7.17654
5.13108
3.0761
1.03152
128.832
126.492
125.298
124.164
123.034
121.948
120.896
119.869
118.864
117.881
116.946
116.122
115.509
115.037
114.368
113.23
111.704
110.003
108.285
106.618
105.031
103.528
102.109
100.766
99.492
98.2602
97.0326
95.7417
94.3297
92.7563
91.0365
89.192
87.2687
85.2818
83.2671
81.2237
79.1763
77.1117
75.0522
72.9827
70.9218
68.8508
66.7893
64.7209
62.6615
60.5948
58.536
56.4717
54.4153
52.3526
50.2989
48.2364
46.1816
44.1205
42.0666
40.0062
37.9543
35.895
33.843
31.7867
29.736
27.6807
25.6307
23.5755
21.5263
19.4723
17.4252
15.3718
13.3255
11.2739
9.22875
7.17653
5.13109
3.07609
1.0315
128.848
126.486
125.298
124.164
123.034
121.948
120.896
119.869
118.864
117.881
116.945
116.121
115.508
115.036
114.367
113.228
111.701
110.001
108.282
106.616
105.03
103.527
102.108
100.765
99.4913
98.2596
97.032
95.7412
94.3293
92.7558
91.0361
89.1918
87.2686
85.2817
83.267
81.2237
79.1763
77.1117
75.0522
72.9827
70.9218
68.8508
66.7893
64.7209
62.6615
60.5948
58.536
56.4716
54.4153
52.3526
50.2989
48.2364
46.1816
44.1205
42.0666
40.0062
37.9543
35.895
33.843
31.7867
29.736
27.6806
25.6307
23.5755
21.5263
19.4723
17.4252
15.3718
13.3255
11.2739
9.22876
7.17653
5.13109
3.07608
1.0315
128.862
126.48
125.297
124.163
123.034
121.948
120.896
119.869
118.863
117.88
116.945
116.119
115.506
115.034
114.365
113.225
111.699
109.998
108.28
106.615
105.029
103.526
102.107
100.764
99.4908
98.2592
97.0317
95.7409
94.3289
92.7555
91.0359
89.1916
87.2684
85.2816
83.267
81.2236
79.1763
77.1117
75.0522
72.9827
70.9218
68.8508
66.7893
64.7209
62.6615
60.5948
58.536
56.4716
54.4153
52.3526
50.299
48.2364
46.1816
44.1205
42.0666
40.0062
37.9543
35.895
33.843
31.7867
29.736
27.6806
25.6307
23.5754
21.5263
19.4723
17.4252
15.3718
13.3255
11.2739
9.22877
7.17652
5.13109
3.07607
1.03148
128.876
126.475
125.297
124.163
123.034
121.948
120.896
119.869
118.863
117.88
116.944
116.118
115.504
115.032
114.363
113.223
111.696
109.996
108.279
106.613
105.028
103.526
102.106
100.764
99.4905
98.259
97.0314
95.7406
94.3287
92.7553
91.0357
89.1914
87.2683
85.2816
83.2669
81.2236
79.1763
77.1117
75.0522
72.9827
70.9218
68.8508
66.7893
64.7209
62.6616
60.5948
58.536
56.4716
54.4154
52.3526
50.299
48.2364
46.1816
44.1205
42.0666
40.0062
37.9544
35.895
33.843
31.7867
29.736
27.6806
25.6307
23.5754
21.5263
19.4723
17.4252
15.3718
13.3255
11.2739
9.22878
7.17651
5.13109
3.07606
1.03148
128.89
126.47
125.297
124.163
123.034
121.948
120.896
119.868
118.863
117.879
116.943
116.117
115.502
115.029
114.36
113.22
111.694
109.994
108.277
106.612
105.027
103.525
102.106
100.764
99.4903
98.2588
97.0312
95.7404
94.3285
92.7551
91.0356
89.1913
87.2683
85.2815
83.2669
81.2236
79.1763
77.1117
75.0522
72.9827
70.9218
68.8508
66.7893
64.7209
62.6616
60.5948
58.536
56.4716
54.4154
52.3526
50.299
48.2364
46.1816
44.1205
42.0666
40.0062
37.9544
35.895
33.843
31.7867
29.736
27.6806
25.6307
23.5754
21.5263
19.4723
17.4253
15.3718
13.3255
11.2739
9.22878
7.1765
5.13109
3.07605
1.03147
128.902
126.465
125.297
124.163
123.034
121.948
120.896
119.868
118.862
117.879
116.942
116.115
115.5
115.027
114.357
113.217
111.692
109.993
108.276
106.612
105.026
103.525
102.106
100.764
99.4901
98.2587
97.0311
95.7403
94.3283
92.7549
91.0354
89.1912
87.2682
85.2814
83.2669
81.2235
79.1763
77.1117
75.0522
72.9827
70.9219
68.8508
66.7894
64.7209
62.6616
60.5948
58.536
56.4716
54.4154
52.3526
50.299
48.2364
46.1816
44.1205
42.0666
40.0062
37.9544
35.895
33.843
31.7867
29.736
27.6806
25.6307
23.5754
21.5263
19.4723
17.4253
15.3719
13.3255
11.2739
9.22879
7.1765
5.13109
3.07603
1.03146
128.914
126.461
125.297
124.163
123.033
121.947
120.895
119.867
118.862
117.878
116.941
116.114
115.498
115.024
114.354
113.215
111.69
109.991
108.275
106.611
105.026
103.524
102.106
100.763
99.4901
98.2586
97.0311
95.7402
94.3282
92.7548
91.0353
89.1911
87.2682
85.2814
83.2669
81.2235
79.1763
77.1117
75.0522
72.9827
70.9219
68.8508
66.7894
64.7209
62.6616
60.5949
58.536
56.4716
54.4154
52.3526
50.299
48.2364
46.1816
44.1205
42.0666
40.0062
37.9544
35.895
33.843
31.7867
29.736
27.6806
25.6307
23.5754
21.5263
19.4723
17.4253
15.3719
13.3256
11.2739
9.22879
7.17649
5.13109
3.07602
1.03145
128.925
126.457
125.297
124.162
123.033
121.947
120.895
119.867
118.861
117.877
116.941
116.113
115.496
115.022
114.351
113.212
111.688
109.99
108.275
106.61
105.026
103.524
102.105
100.763
99.4901
98.2587
97.0311
95.7401
94.3281
92.7547
91.0353
89.191
87.2681
85.2814
83.2669
81.2235
79.1763
77.1117
75.0522