/*--------------------------------*- C++ -*----------------------------------*\
  =========                 |
  \\      /  F ield         | OpenFOAM: The Open Source CFD Toolbox
   \\    /   O peration     | Website:  https://openfoam.org
    \\  /    A nd           | Version:  7
     \\/     M anipulation  |
\*---------------------------------------------------------------------------*/
FoamFile
{
    version     2.0;
    format      ascii;
    class       surfaceScalarField;
    location    "250";
    object      phi;
}
// * * * * * * * * * * * * * * * * * * * * * * * * * * * * * * * * * * * * * //

dimensions      [0 3 -1 0 0 0 0];

internalField   nonuniform List<scalar> 
8865
(
0.00452285
0.00168699
0.00415016
0.000372737
0.0039903
0.000159918
0.00389729
9.30755e-05
0.0038334
6.39585e-05
0.00378557
4.78765e-05
0.00374798
3.7625e-05
0.00371749
3.0491e-05
0.00369237
2.52404e-05
0.0036732
1.93297e-05
0.0036677
5.63018e-06
0.00369347
-2.57449e-05
0.00376379
-7.03586e-05
0.00386693
-0.000103359
0.00397376
-0.00010678
0.00406431
-9.04517e-05
0.00413587
-7.16464e-05
0.00419375
-5.80674e-05
0.0042432
-4.96547e-05
0.00428713
-4.41447e-05
0.00432675
-3.95962e-05
0.00436229
-3.55274e-05
0.00439362
-3.13217e-05
0.00442058
-2.69752e-05
0.00444315
-2.25371e-05
0.00446153
-1.83893e-05
0.00447613
-1.45918e-05
0.00448738
-1.12958e-05
0.00449577
-8.23741e-06
0.00450174
-5.87418e-06
0.00450579
-3.99668e-06
0.00450841
-2.66011e-06
0.00451006
-1.4131e-06
0.00451105
-9.02022e-07
0.00451165
-4.80011e-07
0.00451196
-3.82188e-07
0.00451215
1.0314e-07
0.00451222
2.95113e-08
0.00451225
9.94257e-08
0.00451221
-4.23887e-08
0.00451217
3.24099e-07
0.00451208
1.99318e-07
0.00451201
1.40093e-07
0.0045119
-7.65993e-09
0.00451181
1.35344e-07
0.00451171
2.62111e-07
0.00451162
1.47674e-07
0.00451149
5.78401e-08
0.00451135
4.66418e-08
0.00451118
-6.26934e-08
0.00451105
3.02884e-07
0.00451092
3.68457e-07
0.00451084
2.27558e-07
0.00451074
1.06037e-07
0.00451065
6.54703e-08
0.00451052
-7.11302e-08
0.00451043
1.78891e-07
0.00451035
2.58603e-07
0.00451031
-1.03639e-08
0.00451026
1.71993e-07
0.00451023
-5.67087e-08
0.00451019
2.41819e-07
0.00451017
8.87089e-08
0.00451011
9.64584e-08
0.00451004
-6.66414e-08
0.00450992
1.82466e-08
0.00450979
-2.71867e-08
0.00450966
1.94708e-08
0.00450958
-1.94927e-07
0.00450954
-2.02079e-07
0.00450954
-3.3884e-07
0.00450955
-2.20465e-07
0.0045096
-3.93548e-07
0.00450965
-4.07954e-07
-3.09613e-07
0.00573448
0.00277635
0.00532416
0.000783094
0.00510631
0.000377793
0.00497607
0.000223357
0.00488796
0.000152111
0.00482309
0.000112771
0.00477275
8.79869e-05
0.00473229
7.09491e-05
0.00469929
5.83119e-05
0.00467467
4.40433e-05
0.00466839
1.19875e-05
0.00470176
-5.91025e-05
0.00478877
-0.00015739
0.0049111
-0.00022581
0.00503097
-0.000226617
0.00512593
-0.000185359
0.00519629
-0.000142059
0.00525083
-0.000112689
0.00529653
-9.54686e-05
0.00533695
-8.46668e-05
0.00537336
-7.5998e-05
0.00540606
-6.82114e-05
0.00543492
-6.01765e-05
0.00545983
-5.18882e-05
0.00548082
-4.35216e-05
0.00549808
-3.56505e-05
0.00551191
-2.84245e-05
0.00552266
-2.20564e-05
0.00553068
-1.61931e-05
0.00553638
-1.15309e-05
0.00554023
-7.82436e-06
0.00554271
-5.16616e-06
0.00554428
-2.8683e-06
0.00554523
-1.8102e-06
0.00554579
-9.94164e-07
0.00554611
-7.28936e-07
0.0055463
4.01771e-08
0.0055464
-2.97426e-08
0.00554646
9.84343e-08
0.00554647
-9.14542e-08
0.00554648
4.40641e-07
0.00554647
2.5859e-07
0.00554647
1.73083e-07
0.00554646
-4.92388e-08
0.00554648
1.36973e-07
0.00554651
3.05242e-07
0.00554653
1.47019e-07
0.00554651
4.90589e-08
0.00554645
6.99451e-08
0.00554635
-7.10587e-08
0.00554629
4.39892e-07
0.00554626
5.09585e-07
0.00554624
3.07215e-07
0.00554619
1.56722e-07
0.00554612
1.26429e-07
0.00554603
-6.50727e-08
0.00554598
2.65219e-07
0.00554598
3.39674e-07
0.00554601
-7.16118e-08
0.00554605
1.95082e-07
0.00554608
-1.36564e-07
0.00554611
3.06625e-07
0.00554614
8.56918e-08
0.00554613
1.29972e-07
0.00554606
-5.34459e-08
0.00554591
1.23982e-07
0.00554575
6.14161e-08
0.00554562
9.95089e-08
0.00554557
-2.68886e-07
0.00554558
-3.22066e-07
0.00554563
-5.39319e-07
0.00554567
-3.45051e-07
0.00554568
-5.7094e-07
0.00554568
-5.61366e-07
-5.46425e-07
0.00677261
0.00350229
0.00634446
0.00121127
0.00607519
0.000647095
0.00590746
0.000391117
0.00579399
0.000265605
0.00571125
0.000195537
0.00564765
0.000151599
0.00559697
0.000121629
0.00555603
9.9301e-05
0.00552599
7.41443e-05
0.00551837
1.96672e-05
0.00555641
-9.71408e-05
0.00565284
-0.000253832
0.00578235
-0.000355397
0.00590093
-0.000345182
0.00598757
-0.000271978
0.00604776
-0.000202273
0.00609334
-0.000158312
0.00613194
-0.000134133
0.00616682
-0.000119593
0.00619889
-0.000108065
0.00622814
-9.74669e-05
0.00625433
-8.63591e-05
0.00627722
-7.47836e-05
0.00629673
-6.30224e-05
0.00631295
-5.18685e-05
0.00632604
-4.15205e-05
0.00633625
-3.22733e-05
0.00634386
-2.37639e-05
0.00634924
-1.68935e-05
0.00635286
-1.14323e-05
0.00635519
-7.50407e-06
0.00635665
-4.27184e-06
0.00635754
-2.67778e-06
0.00635808
-1.49957e-06
0.00635838
-1.05127e-06
0.00635858
-8.63384e-08
0.0063587
-1.28599e-07
0.00635879
4.51418e-08
0.00635884
-1.60991e-07
0.00635889
4.5521e-07
0.00635894
2.39091e-07
0.00635899
1.34238e-07
0.00635906
-1.41409e-07
0.00635916
4.36075e-08
0.0063593
2.09801e-07
0.00635942
3.78392e-08
0.00635948
-2.69176e-08
0.00635947
5.23847e-08
0.00635943
-8.62861e-08
0.00635943
4.80226e-07
0.00635947
5.28886e-07
0.00635951
3.01721e-07
0.0063595
1.69379e-07
0.00635944
1.76481e-07
0.00635937
-4.01892e-08
0.00635936
2.95171e-07
0.00635942
3.20164e-07
0.00635952
-1.83867e-07
0.00635962
1.23075e-07
0.00635971
-2.42778e-07
0.0063598
2.70688e-07
0.00635987
3.05375e-08
0.00635988
1.26031e-07
0.00635981
-9.68695e-09
0.00635963
2.65331e-07
0.00635945
2.14089e-07
0.00635932
1.98195e-07
0.0063593
-3.16518e-07
0.00635936
-4.47242e-07
0.00635945
-7.00242e-07
0.0063595
-4.46206e-07
0.00635949
-6.38893e-07
0.00635944
-6.00294e-07
-5.23903e-07
0.00776838
0.00397388
0.00736522
0.00161445
0.00705882
0.000953526
0.00685371
0.000596252
0.0067123
0.000407047
0.00660915
0.000298705
0.00653028
0.000230488
0.00646783
0.000184078
0.00641782
0.00014936
0.00638156
0.000110465
0.00637159
2.96845e-05
0.0064118
-0.000137337
0.00651192
-0.000353969
0.0066396
-0.000483146
0.00674769
-0.000453265
0.00682011
-0.000344362
0.00686786
-0.000250051
0.00690441
-0.000194909
0.00693682
-0.000166588
0.00696742
-0.000150248
0.0069965
-0.00013714
0.00702369
-0.000124649
0.00704847
-0.000111138
0.00707045
-9.67659e-05
0.00708943
-8.19969e-05
0.00710534
-6.778e-05
0.00711825
-5.44289e-05
0.00712831
-4.23392e-05
0.00713578
-3.12081e-05
0.00714104
-2.21361e-05
0.00714456
-1.49403e-05
0.00714682
-9.76751e-06
0.00714823
-5.63412e-06
0.00714909
-3.52126e-06
0.00714961
-1.9941e-06
0.00714991
-1.36947e-06
0.00715011
-2.3058e-07
0.00715025
-2.48578e-07
0.00715036
-3.39169e-08
0.00715044
-2.55719e-07
0.00715052
4.2518e-07
0.00715061
1.74112e-07
0.00715071
4.73063e-08
0.00715083
-2.85046e-07
0.007151
-1.21912e-07
0.00715122
3.26226e-08
0.00715141
-1.44796e-07
0.00715153
-1.56486e-07
0.00715156
-2.21406e-09
0.00715156
-1.31718e-07
0.00715161
4.67863e-07
0.0071517
4.87138e-07
0.00715178
2.48773e-07
0.00715179
1.5791e-07
0.00715174
2.18098e-07
0.00715169
-2.13199e-08
0.00715171
2.90632e-07
0.00715182
2.47308e-07
0.00715197
-3.48666e-07
0.00715212
3.62063e-09
0.00715225
-3.93986e-07
0.00715237
1.9219e-07
0.00715247
-6.39146e-08
0.00715251
1.03169e-07
0.00715242
4.60398e-08
0.00715223
4.41568e-07
0.00715202
3.90489e-07
0.00715189
3.04019e-07
0.0071519
-3.77187e-07
0.007152
-5.93549e-07
0.00715211
-8.82749e-07
0.00715216
-5.42488e-07
0.00715213
-6.82867e-07
0.00715204
-5.80419e-07
-6.18996e-07
0.00876053
0.00426805
0.00841816
0.00195685
0.00809689
0.00127483
0.00785898
0.000834187
0.00768849
0.000577568
0.00756267
0.000424539
0.00746634
0.000326827
0.0073903
0.000260125
0.00732975
0.000209947
0.00728603
0.000154236
0.0072721
4.36603e-05
0.00731121
-0.000176444
0.00740918
-0.000451952
0.00752784
-0.000601863
0.00762027
-0.000545688
0.00767685
-0.000400924
0.00771289
-0.00028611
0.00774192
-0.000223967
0.0077697
-0.000194405
0.00779751
-0.000178082
0.00782496
-0.000164595
0.00785129
-0.000150975
0.00787574
-0.000135589
0.00789775
-0.000118783
0.00791696
-0.000101196
0.00793319
-8.40053e-05
0.00794639
-6.76306e-05
0.00795666
-5.26245e-05
0.00796427
-3.8792e-05
0.0079696
-2.74539e-05
0.00797315
-1.84814e-05
0.00797542
-1.20386e-05
0.00797684
-7.01574e-06
0.0079777
-4.37329e-06
0.00797822
-2.49951e-06
0.00797854
-1.68962e-06
0.00797875
-4.01421e-07
0.0079789
-3.887e-07
0.00797903
-1.38335e-07
0.00797913
-3.67711e-07
0.00797924
3.52882e-07
0.00797936
7.15112e-08
0.0079795
-7.80195e-08
0.00797966
-4.65721e-07
0.00797989
-3.42212e-07
0.00798016
-2.18594e-07
0.00798042
-3.898e-07
0.00798058
-3.28082e-07
0.00798064
-8.28336e-08
0.00798067
-1.90972e-07
0.00798075
4.11105e-07
0.00798088
3.90402e-07
0.007981
1.5556e-07
0.00798103
1.28412e-07
0.00798098
2.55873e-07
0.00798093
6.94867e-10
0.00798098
2.59197e-07
0.00798113
1.25126e-07
0.00798132
-5.49386e-07
0.00798151
-1.66467e-07
0.00798167
-5.66252e-07
0.00798183
6.46438e-08
0.00798196
-1.85493e-07
0.00798201
6.30371e-08
0.00798191
1.16259e-07
0.0079817
6.39923e-07
0.00798146
6.0489e-07
0.00798133
4.18551e-07
0.00798135
-4.40484e-07
0.00798148
-7.62909e-07
0.00798162
-1.06476e-06
0.00798168
-6.39733e-07
0.00798163
-6.81368e-07
0.00798151
-5.16479e-07
-5.34666e-07
0.00977742
0.00444063
0.009514
0.00222029
0.00920569
0.00158316
0.0089454
0.00109451
0.00874724
0.00077575
0.00859733
0.000574466
0.00848153
0.000442646
0.00838994
0.000351711
0.00831718
0.00028276
0.00826441
0.000207055
0.00824434
6.37785e-05
0.00827843
-0.000210529
0.00836827
-0.000541801
0.00847209
-0.000705741
0.00854595
-0.00061954
0.00858669
-0.000441644
0.00861218
-0.000311616
0.00863496
-0.00024678
0.00865926
-0.000218741
0.00868527
-0.000204135
0.00871199
-0.000191306
0.00873827
-0.000177256
0.00876313
-0.000160449
0.00878582
-0.000141472
0.00880584
-0.000121211
0.00882286
-0.000101027
0.00883675
-8.15225e-05
0.00884756
-6.34395e-05
0.00885554
-4.67524e-05
0.00886112
-3.30145e-05
0.00886482
-2.21729e-05
0.00886718
-1.44023e-05
0.00886865
-8.45099e-06
0.00886955
-5.26017e-06
0.00887009
-3.02626e-06
0.00887042
-2.02697e-06
0.00887065
-5.86745e-07
0.00887082
-5.45997e-07
0.00887096
-2.5974e-07
0.00887108
-4.99783e-07
0.00887122
2.57914e-07
0.00887137
-5.79591e-08
0.00887153
-2.34236e-07
0.00887173
-6.84325e-07
0.00887201
-6.12436e-07
0.00887234
-5.2187e-07
0.00887264
-6.84482e-07
0.00887284
-5.36326e-07
0.00887293
-1.88166e-07
0.00887298
-2.73493e-07
0.00887309
3.25221e-07
0.00887325
2.6028e-07
0.0088734
3.43959e-08
0.00887344
8.5404e-08
0.0088734
2.90511e-07
0.00887336
1.71285e-08
0.00887342
2.0805e-07
0.0088736
-2.80722e-08
0.00887383
-7.90219e-07
0.00887405
-3.65206e-07
0.00887425
-7.75881e-07
0.00887443
-8.62984e-08
0.00887459
-3.34735e-07
0.00887464
1.2574e-08
0.00887454
1.95102e-07
0.0088743
8.69243e-07
0.00887404
8.37925e-07
0.0088739
5.41815e-07
0.00887394
-5.18247e-07
0.00887409
-9.52195e-07
0.00887425
-1.27446e-06
0.00887432
-7.38928e-07
0.00887426
-6.77069e-07
0.00887411
-4.21052e-07
-5.85979e-07
0.0108418
0.00453267
0.0106586
0.00240348
0.0103907
0.00185109
0.0101252
0.00136003
0.0099049
0.000996093
0.00973125
0.000748134
0.00959458
0.000579328
0.00948565
0.000460635
0.00939888
0.000369574
0.00933523
0.000270752
0.00930643
9.26187e-05
0.00933113
-0.000235221
0.00940691
-0.0006176
0.00949104
-0.000789916
0.0095445
-0.000672988
0.00956964
-0.000466776
0.00958535
-0.000327341
0.0096026
-0.000264057
0.00962403
-0.0002402
0.00964881
-0.000228935
0.00967533
-0.000217832
0.0097021
-0.000204021
0.00972788
-0.000186232
0.00975175
-0.00016535
0.00977304
-0.000142485
0.00979128
-0.000119266
0.00980622
-9.64676e-05
0.00981786
-7.50896e-05
0.00982645
-5.53218e-05
0.00983245
-3.89934e-05
0.00983641
-2.61349e-05
0.00983894
-1.69317e-05
0.00984052
-9.99827e-06
0.00984148
-6.21315e-06
0.00984207
-3.59606e-06
0.00984242
-2.38696e-06
0.00984267
-8.00179e-07
0.00984286
-7.23159e-07
0.00984302
-4.01863e-07
0.00984315
-6.46795e-07
0.00984331
1.34522e-07
0.00984348
-2.1365e-07
0.00984367
-4.18117e-07
0.00984391
-9.32114e-07
0.00984423
-9.23857e-07
0.00984461
-8.81455e-07
0.00984495
-1.02797e-06
0.00984519
-7.7816e-07
0.0098453
-3.13364e-07
0.00984536
-3.66785e-07
0.0098455
2.09539e-07
0.0098457
9.21781e-08
0.00984587
-1.15569e-07
0.00984593
2.95582e-08
0.00984589
3.23881e-07
0.00984584
3.67221e-08
0.00984592
1.40103e-07
0.00984613
-2.15956e-07
0.0098464
-1.05942e-06
0.00984665
-6.03788e-07
0.00984687
-1.003e-06
0.00984708
-2.7522e-07
0.00984726
-5.04962e-07
0.00984733
-5.09616e-08
0.00984722
2.85309e-07
0.00984695
1.11821e-06
0.00984667
1.10671e-06
0.00984652
6.76766e-07
0.00984657
-5.97893e-07
0.00984674
-1.16323e-06
0.00984692
-1.48849e-06
0.00984699
-8.45269e-07
0.00984692
-6.42144e-07
0.00984675
-3.01004e-07
-4.58644e-07
0.0119752
0.00457243
0.0118614
0.00251724
0.0116523
0.00206025
0.0114041
0.00160828
0.0111727
0.00122746
0.0109788
0.000942124
0.0108213
0.000736856
0.0106937
0.00058814
0.0105913
0.000472042
0.0105149
0.00034728
0.0104745
0.000133018
0.0104852
-0.000245932
0.0105412
-0.00067362
0.0106014
-0.000850114
0.0106328
-0.000704441
0.0106423
-0.0004762
0.0106484
-0.000333469
0.0106603
-0.000275978
0.010679
-0.000258971
0.0107028
-0.000252736
0.0107294
-0.000244423
0.010757
-0.000231597
0.010784
-0.000213312
0.0108095
-0.000190799
0.0108325
-0.000165456
0.0108523
-0.000139126
0.0108687
-0.000112836
0.0108815
-8.78848e-05
0.0108909
-6.47514e-05
0.0108975
-4.55709e-05
0.0109019
-3.04937e-05
0.0109047
-1.97159e-05
0.0109064
-1.16999e-05
0.0109075
-7.2624e-06
0.0109081
-4.22313e-06
0.0109085
-2.78483e-06
0.0109088
-1.03658e-06
0.010909
-9.20559e-07
0.0109091
-5.60353e-07
0.0109093
-8.11788e-07
0.0109095
-5.54326e-09
0.0109097
-3.89713e-07
0.0109099
-6.26264e-07
0.0109102
-1.21094e-06
0.0109105
-1.27657e-06
0.0109109
-1.28302e-06
0.0109113
-1.41356e-06
0.0109116
-1.05127e-06
0.0109117
-4.59453e-07
0.0109118
-4.79305e-07
0.010912
7.26195e-08
0.0109122
-1.00837e-07
0.0109124
-2.88315e-07
0.0109125
-3.75065e-08
0.0109124
3.55248e-07
0.0109124
5.30837e-08
0.0109125
5.91606e-08
0.0109127
-4.26023e-07
0.010913
-1.36299e-06
0.0109133
-8.6534e-07
0.0109135
-1.26548e-06
0.0109138
-4.82973e-07
0.010914
-7.00461e-07
0.010914
-1.236e-07
0.0109139
3.82645e-07
0.0109136
1.39758e-06
0.0109133
1.39543e-06
0.0109132
8.26185e-07
0.0109132
-6.85783e-07
0.0109134
-1.38879e-06
0.0109136
-1.72987e-06
0.0109137
-9.56032e-07
0.0109136
-6.13047e-07
0.0109134
-1.59063e-07
-4.89087e-07
0.0131983
0.00457703
0.0131373
0.00257822
0.0129916
0.00220605
0.0127827
0.00181721
0.0125575
0.00145268
0.0123512
0.00114837
0.0121754
0.000912664
0.0120294
0.000734225
0.0119102
0.000591275
0.0118191
0.000438425
0.0117644
0.000187785
0.0117566
-0.000238186
0.0117874
-0.000704417
0.0118195
-0.000882242
0.0118271
-0.000712072
0.0118201
-0.000469213
0.0118162
-0.000329543
0.0118224
-0.000282182
0.0118382
-0.000274821
0.0118609
-0.000275428
0.0118876
-0.000271164
0.0119162
-0.000260158
0.0119448
-0.000241959
0.0119722
-0.000218187
0.0119973
-0.000190496
0.0120192
-0.000161021
0.0120373
-0.000131025
0.0120516
-0.00010218
0.0120622
-7.53199e-05
0.0120696
-5.29595e-05
0.0120745
-3.53957e-05
0.0120777
-2.28454e-05
0.0120796
-1.3625e-05
0.0120808
-8.44587e-06
0.0120815
-4.933e-06
0.012082
-3.22851e-06
0.0120823
-1.31073e-06
0.0120825
-1.14181e-06
0.0120827
-7.39445e-07
0.0120829
-9.90452e-07
0.0120831
-1.68482e-07
0.0120833
-5.86332e-07
0.0120835
-8.56168e-07
0.0120838
-1.51332e-06
0.0120842
-1.66292e-06
0.0120847
-1.73255e-06
0.0120851
-1.84221e-06
0.0120854
-1.35529e-06
0.0120855
-6.23745e-07
0.0120856
-6.00551e-07
0.0120858
-8.7554e-08
0.0120861
-3.24621e-07
0.0120863
-4.85969e-07
0.0120864
-1.16899e-07
0.0120863
3.85297e-07
0.0120863
7.39911e-08
0.0120864
-3.21683e-08
0.0120866
-6.62376e-07
0.012087
-1.68979e-06
0.0120873
-1.16263e-06
0.0120875
-1.54414e-06
0.0120878
-7.2549e-07
0.012088
-9.15536e-07
0.0120881
-2.09319e-07
0.012088
4.88578e-07
0.0120877
1.69501e-06
0.0120874
1.72117e-06
0.0120872
9.93342e-07
0.0120872
-7.69078e-07
0.0120874
-1.63119e-06
0.0120876
-1.97586e-06
0.0120877
-1.07803e-06
0.0120876
-5.6179e-07
0.0120874
-3.6169e-09
-3.37596e-07
0.0145294
0.00455599
0.0145054
0.0026022
0.0144157
0.00229582
0.0142598
0.00197314
0.0140612
0.00165131
0.0138565
0.00135314
0.013669
0.00110018
0.0135066
0.000896599
0.0133707
0.000727203
0.0132638
0.000545411
0.0131922
0.000259388
0.013162
-0.000207923
0.0131625
-0.000704956
0.0131624
-0.000882217
0.0131439
-0.000693509
0.013119
-0.000444354
0.0131039
-0.000314464
0.0131035
-0.00028183
0.0131159
-0.000287175
0.0131371
-0.000296696
0.0131638
-0.000297879
0.0131934
-0.000289726
0.0132238
-0.000272341
0.0132534
-0.000247783
0.0132809
-0.000218016
0.0133053
-0.000185388
0.0133257
-0.000151475
0.0133419
-0.000118367
0.0133539
-8.7355e-05
0.0133624
-6.1399e-05
0.013368
-4.10093e-05
0.0133716
-2.64373e-05
0.0133738
-1.5835e-05
0.0133752
-9.80516e-06
0.013376
-5.74713e-06
0.0133765
-3.73677e-06
0.0133769
-1.62131e-06
0.0133772
-1.38899e-06
0.0133774
-9.36118e-07
0.0133775
-1.1857e-06
0.0133778
-3.44344e-07
0.013378
-7.98369e-07
0.0133782
-1.10492e-06
0.0133786
-1.84043e-06
0.013379
-2.08344e-06
0.0133795
-2.21658e-06
0.01338
-2.30816e-06
0.0133803
-1.68822e-06
0.0133805
-8.07944e-07
0.0133806
-7.38638e-07
0.0133808
-2.63883e-07
0.013381
-5.67932e-07
0.0133813
-7.04147e-07
0.0133814
-2.07876e-07
0.0133813
4.12465e-07
0.0133813
9.36669e-08
0.0133814
-1.30552e-07
0.0133817
-9.13115e-07
0.013382
-2.0456e-06
0.0133824
-1.47927e-06
0.0133827
-1.85743e-06
0.0133829
-9.84954e-07
0.0133832
-1.15547e-06
0.0133833
-3.05137e-07
0.0133832
5.988e-07
0.0133828
2.02127e-06
0.0133825
2.06881e-06
0.0133823
1.18248e-06
0.0133823
-8.51323e-07
0.0133825
-1.88064e-06
0.0133827
-2.24751e-06
0.0133828
-1.20719e-06
0.0133828
-5.24378e-07
0.0133825
1.64825e-07
-3.63415e-07
0.0159844
0.00451448
0.0159863
0.00260033
0.0159397
0.00234247
0.015838
0.00207479
0.0156829
0.00180646
0.0154978
0.00153823
0.0153105
0.00128756
0.0151378
0.00106929
0.0149875
0.000877542
0.0148648
0.000668181
0.0147748
0.000349393
0.0147189
-0.000151987
0.0146848
-0.000670878
0.0146484
-0.000845885
0.0146006
-0.000645718
0.0145557
-0.000399391
0.0145277
-0.000286447
0.0145193
-0.000273535
0.0145272
-0.000295024
0.0145463
-0.000315844
0.0145726
-0.000324219
0.0146031
-0.00032016
0.0146352
-0.000304518
0.0146673
-0.000279845
0.0146976
-0.000248359
0.0147249
-0.000212685
0.0147481
-0.00017467
0.0147667
-0.000136905
0.0147806
-0.000101231
0.0147904
-7.1179e-05
0.0147969
-4.75365e-05
0.0148011
-3.06192e-05
0.0148037
-1.84226e-05
0.0148053
-1.13927e-05
0.0148062
-6.69948e-06
0.0148068
-4.32246e-06
0.0148072
-1.98546e-06
0.0148075
-1.66682e-06
0.0148077
-1.15475e-06
0.0148079
-1.39315e-06
0.0148082
-5.38653e-07
0.0148084
-1.02538e-06
0.0148087
-1.36907e-06
0.014809
-2.18408e-06
0.0148095
-2.52915e-06
0.01481
-2.74024e-06
0.0148105
-2.81164e-06
0.0148109
-2.05022e-06
0.0148111
-1.00979e-06
0.0148112
-8.83412e-07
0.0148114
-4.58206e-07
0.0148117
-8.36112e-07
0.0148119
-9.44623e-07
0.0148121
-3.12243e-07
0.014812
4.36804e-07
0.014812
1.19482e-07
0.0148121
-2.32817e-07
0.0148124
-1.18134e-06
0.0148127
-2.41802e-06
0.0148131
-1.82811e-06
0.0148134
-2.1851e-06
0.0148137
-1.2775e-06
0.014814
-1.41435e-06
0.0148141
-4.15522e-07
0.014814
7.13623e-07
0.0148136
2.36245e-06
0.0148132
2.45498e-06
0.014813
1.39713e-06
0.014813
-9.18682e-07
0.0148133
-2.13875e-06
0.0148135
-2.52136e-06
0.0148136
-1.35164e-06
0.0148135
-4.7275e-07
0.0148133
3.3483e-07
-1.8743e-07
0.0175785
0.00445523
0.0175995
0.0025794
0.0175838
0.00235818
0.0175282
0.0021304
0.0174233
0.00191139
0.0172752
0.00168633
0.0171045
0.00145831
0.0169324
0.00124139
0.0167735
0.00103646
0.0166374
0.000804391
0.0165291
0.000457727
0.0164458
-6.87301e-05
0.0163739
-0.000598967
0.0162972
-0.000769283
0.0162166
-0.000565026
0.0161484
-0.000331251
0.016105
-0.000243001
0.0160868
-0.00025536
0.0160887
-0.000296945
0.0161047
-0.000331911
0.01613
-0.00034951
0.0161609
-0.000351113
0.0161948
-0.000338405
0.0162295
-0.000314487
0.016263
-0.000281888
0.0162937
-0.000243385
0.0163202
-0.000201144
0.0163416
-0.000158301
0.0163577
-0.00011739
0.0163692
-8.26323e-05
0.0163769
-5.52137e-05
0.0163818
-3.5554e-05
0.0163849
-2.14794e-05
0.0163868
-1.32685e-05
0.0163879
-7.82281e-06
0.0163886
-5.01047e-06
0.0163891
-2.40608e-06
0.0163894
-1.97914e-06
0.0163897
-1.39331e-06
0.0163899
-1.61536e-06
0.0163901
-7.41805e-07
0.0163904
-1.26161e-06
0.0163906
-1.64506e-06
0.016391
-2.54375e-06
0.0163915
-2.9996e-06
0.016392
-3.28849e-06
0.0163926
-3.34589e-06
0.016393
-2.43791e-06
0.0163932
-1.2308e-06
0.0163933
-1.04247e-06
0.0163935
-6.6338e-07
0.0163938
-1.11783e-06
0.0163941
-1.2033e-06
0.0163942
-4.29229e-07
0.0163942
4.56107e-07
0.0163942
1.45875e-07
0.0163943
-3.35486e-07
0.0163946
-1.45426e-06
0.0163949
-2.81195e-06
0.0163953
-2.19124e-06
0.0163957
-2.54597e-06
0.016396
-1.58478e-06
0.0163963
-1.69772e-06
0.0163964
-5.37678e-07
0.0163963
8.28379e-07
0.0163959
2.72911e-06
0.0163955
2.86408e-06
0.0163952
1.6427e-06
0.0163952
-9.72276e-07
0.0163955
-2.39258e-06
0.0163957
-2.81681e-06
0.0163958
-1.50542e-06
0.0163958
-4.44491e-07
0.0163955
5.07079e-07
-2.2158e-07
0.0193271
0.00437966
0.0193633
0.00254323
0.01937
0.00235153
0.0193492
0.00215121
0.0192904
0.00197015
0.0191887
0.00178809
0.0190514
0.00159563
0.0188954
0.00139742
0.0187385
0.00119334
0.0185949
0.00094804
0.0184712
0.000581536
0.0183614
4.10447e-05
0.0182504
-0.000487969
0.0181302
-0.000649192
0.0180126
-0.00044739
0.0179175
-0.000236121
0.0178554
-0.000180883
0.0178247
-0.000224715
0.0178187
-0.000290967
0.0178302
-0.000343436
0.0178535
-0.000372812
0.0178844
-0.000381987
0.0179197
-0.000373723
0.0179569
-0.000351756
0.0179939
-0.000318844
0.0180285
-0.000277951
0.0180588
-0.000231465
0.0180836
-0.000183139
0.0181026
-0.000136329
0.0181161
-9.61529e-05
0.0181252
-6.43201e-05
0.0181311
-4.14219e-05
0.0181348
-2.5132e-05
0.018137
-1.55057e-05
0.0181384
-9.16336e-06
0.0181392
-5.82059e-06
0.0181397
-2.90397e-06
0.0181401
-2.33228e-06
0.0181404
-1.65634e-06
0.0181406
-1.84747e-06
0.0181408
-9.58333e-07
0.0181411
-1.50539e-06
0.0181414
-1.92764e-06
0.0181417
-2.90945e-06
0.0181422
-3.48326e-06
0.0181428
-3.86441e-06
0.0181434
-3.90891e-06
0.0181438
-2.85065e-06
0.018144
-1.46798e-06
0.0181442
-1.20505e-06
0.0181444
-8.80571e-07
0.0181447
-1.41731e-06
0.018145
-1.48078e-06
0.0181451
-5.60734e-07
0.0181451
4.70151e-07
0.0181451
1.79996e-07
0.0181452
-4.3477e-07
0.0181455
-1.73365e-06
0.0181459
-3.2127e-06
0.0181463
-2.58079e-06
0.0181466
-2.91765e-06
0.018147
-1.92263e-06
0.0181473
-1.99885e-06
0.0181475
-6.76127e-07
0.0181473
9.42529e-07
0.0181469
3.10557e-06
0.0181465
3.31188e-06
0.0181462
1.92261e-06
0.0181462
-9.9696e-07
0.0181464
-2.64226e-06
0.0181466
-3.10848e-06
0.0181468
-1.67725e-06
0.0181467
-4.1095e-07
0.0181465
6.67006e-07
-3.8492e-08
0.0212463
0.0042884
0.0212957
0.00249387
0.0213195
0.00232771
0.0213242
0.00214653
0.0213021
0.00199227
0.0212454
0.00184485
0.0211517
0.00168936
0.0210277
0.00152136
0.0208878
0.00133334
0.0207475
0.00108845
0.0206152
0.00071387
0.0204834
0.000172884
0.0203352
-0.000339798
0.0201702
-0.000484274
0.0200118
-0.000289003
0.0198853
-0.000109608
0.0198006
-9.61351e-05
0.0197542
-0.000178345
0.0197377
-0.000274559
0.0197428
-0.000348553
0.0197627
-0.000392715
0.0197926
-0.000411851
0.0198288
-0.000409939
0.0198685
-0.000391445
0.019909
-0.000359413
0.0199479
-0.000316803
0.0199826
-0.000266217
0.0200115
-0.000212033
0.0200338
-0.000158617
0.0200499
-0.000112183
0.0200607
-7.51755e-05
0.0200678
-4.84428e-05
0.0200722
-2.95087e-05
0.0200749
-1.8187e-05
0.0200765
-1.07675e-05
0.0200774
-6.78537e-06
0.0200781
-3.48632e-06
0.0200785
-2.7318e-06
0.0200788
-1.94247e-06
0.020079
-2.09152e-06
0.0200793
-1.17784e-06
0.0200795
-1.74937e-06
0.0200798
-2.21187e-06
0.0200802
-3.27842e-06
0.0200807
-3.97765e-06
0.0200813
-4.44979e-06
0.0200819
-4.49158e-06
0.0200823
-3.28249e-06
0.0200825
-1.72191e-06
0.0200827
-1.37813e-06
0.0200829
-1.10176e-06
0.0200833
-1.72184e-06
0.0200836
-1.77218e-06
0.0200837
-7.05153e-07
0.0200837
4.76236e-07
0.0200836
2.15992e-07
0.0200838
-5.27001e-07
0.020084
-2.00514e-06
0.0200844
-3.62376e-06
0.0200849
-2.97618e-06
0.0200853
-3.31863e-06
0.0200856
-2.27104e-06
0.020086
-2.32273e-06
0.0200861
-8.276e-07
0.020086
1.05094e-06
0.0200856
3.50171e-06
0.0200851
3.78138e-06
0.0200848
2.2425e-06
0.0200847
-9.9234e-07
0.0200849
-2.87187e-06
0.0200852
-3.41401e-06
0.0200853
-1.85904e-06
0.0200853
-4.11433e-07
0.0200851
8.15079e-07
-9.94138e-08
0.0233536
0.00418157
0.0234151
0.0024324
0.0234533
0.00228959
0.0234773
0.00212249
0.0234826
0.00198696
0.0234629
0.00186459
0.0234127
0.00173961
0.0233306
0.00160343
0.0232226
0.00144139
0.0231001
0.00121107
0.0229709
0.000843086
0.0228265
0.000317317
0.0226481
-0.000161502
0.0224406
-0.000276827
0.0222391
-8.74933e-05
0.0220768
5.26996e-05
0.0219649
1.57989e-05
0.0218988
-0.000112278
0.0218687
-0.000244494
0.0218648
-0.000344722
0.0218795
-0.000407382
0.021907
-0.000439365
0.0219432
-0.000446178
0.0219849
-0.000433151
0.0220291
-0.000403529
0.0220725
-0.000360261
0.0221123
-0.000305956
0.0221459
-0.000245643
0.0221721
-0.000184858
0.0221912
-0.00013122
0.0222042
-8.81387e-05
0.0222126
-5.68519e-05
0.0222179
-3.47717e-05
0.0222211
-2.14072e-05
0.022223
-1.26941e-05
0.0222242
-7.93148e-06
0.0222249
-4.17768e-06
0.0222254
-3.18542e-06
0.0222257
-2.25617e-06
0.0222259
-2.34163e-06
0.0222262
-1.4036e-06
0.0222265
-1.99016e-06
0.0222267
-2.4901e-06
0.0222271
-3.63804e-06
0.0222276
-4.46794e-06
0.0222282
-5.04469e-06
0.0222288
-5.08836e-06
0.0222292
-3.73056e-06
0.0222295
-1.98776e-06
0.0222296
-1.54941e-06
0.0222299
-1.3272e-06
0.0222302
-2.03414e-06
0.0222305
-2.07626e-06
0.0222307
-8.63707e-07
0.0222307
4.74259e-07
0.0222306
2.60896e-07
0.0222307
-6.08174e-07
0.022231
-2.26932e-06
0.0222314
-4.02764e-06
0.0222318
-3.38812e-06
0.0222322
-3.72337e-06
0.0222326
-2.64501e-06
0.022233
-2.66125e-06
0.0222332
-9.96057e-07
0.022233
1.1527e-06
0.0222326
3.90013e-06
0.0222321
4.28694e-06
0.0222317
2.60492e-06
0.0222316
-9.42374e-07
0.0222318
-3.0797e-06
0.0222321
-3.70509e-06
0.0222322
-2.05912e-06
0.0222322
-4.15634e-07
0.022232
9.34132e-07
8.16145e-08
0.025668
0.00405897
0.0257411
0.00235928
0.025792
0.00223866
0.0258319
0.0020827
0.0258581
0.00196077
0.0258666
0.0018561
0.0258528
0.00175341
0.0258126
0.00164366
0.0257451
0.00150894
0.0256541
0.00130208
0.0255429
0.000954342
0.0254007
0.000459511
0.0252061
3.31443e-05
0.0249644
-3.52623e-05
0.0247208
0.00015616
0.0245192
0.000254292
0.0243754
0.000159614
0.024285
-2.19683e-05
0.0242374
-0.000196887
0.0242215
-0.00032884
0.0242284
-0.000414314
0.0242517
-0.000462672
0.0242867
-0.000481126
0.0243295
-0.000476034
0.0243769
-0.000450926
0.0244251
-0.000408462
0.0244703
-0.000351151
0.0245093
-0.000284588
0.0245401
-0.000215688
0.0245627
-0.000153782
0.0245782
-0.000103593
0.0245882
-6.69132e-05
0.0245946
-4.10773e-05
0.0245984
-2.52654e-05
0.0246008
-1.49992e-05
0.0246021
-9.29664e-06
0.024603
-4.98792e-06
0.0246035
-3.69949e-06
0.0246038
-2.59599e-06
0.0246041
-2.59882e-06
0.0246044
-1.62388e-06
0.0246046
-2.21837e-06
0.0246049
-2.75537e-06
0.0246052
-3.98273e-06
0.0246057
-4.94891e-06
0.0246063
-5.62686e-06
0.0246069
-5.68649e-06
0.0246073
-4.1849e-06
0.0246076
-2.26384e-06
0.0246077
-1.72453e-06
0.024608
-1.54747e-06
0.0246083
-2.33976e-06
0.0246087
-2.3866e-06
0.0246088
-1.03318e-06
0.0246088
4.61647e-07
0.0246088
3.0842e-07
0.0246088
-6.74789e-07
0.0246091
-2.5106e-06
0.0246095
-4.42629e-06
0.0246099
-3.79252e-06
0.0246103
-4.1494e-06
0.0246107
-3.02205e-06
0.0246111
-3.01816e-06
0.0246113
-1.17709e-06
0.0246112
1.24288e-06
0.0246108
4.3102e-06
0.0246102
4.80974e-06
0.0246098
3.01472e-06
0.0246097
-8.45946e-07
0.0246098
-3.247e-06
0.02461
-3.99697e-06
0.0246102
-2.2659e-06
0.0246102
-4.64106e-07
0.0246101
1.02534e-06
-2.37071e-08
0.02821
0.00392017
0.0282947
0.00227466
0.0283578
0.00217555
0.0284114
0.00202907
0.0284546
0.00191766
0.0284848
0.00182591
0.0284992
0.00173901
0.0284941
0.0016487
0.0284663
0.00153677
0.0284138
0.00135467
0.0283334
0.00103479
0.028211
0.000581951
0.0280205
0.000223559
0.0277615
0.000223654
0.027483
0.000434749
0.0272416
0.000495693
0.0270619
0.000339286
0.0269425
9.73858e-05
0.0268728
-0.000127188
0.0268409
-0.000296998
0.026837
-0.000410417
0.0268536
-0.000479301
0.0268854
-0.000512918
0.0269282
-0.000518853
0.0269782
-0.00050086
0.027031
-0.000461257
0.0270819
-0.000402091
0.0271267
-0.000329421
0.0271627
-0.000251692
0.0271894
-0.000180385
0.0272077
-0.000121919
0.0272197
-7.88773e-05
0.0272272
-4.8597e-05
0.0272318
-2.98608e-05
0.0272346
-1.77433e-05
0.0272362
-1.09074e-05
0.0272372
-5.94151e-06
0.0272378
-4.28071e-06
0.0272382
-2.96497e-06
0.0272384
-2.85502e-06
0.0272387
-1.84028e-06
0.0272389
-2.42834e-06
0.0272391
-2.99724e-06
0.0272394
-4.29661e-06
0.0272399
-5.402e-06
0.0272405
-6.19265e-06
0.0272411
-6.27581e-06
0.0272415
-4.6388e-06
0.0272418
-2.54196e-06
0.0272419
-1.88844e-06
0.0272422
-1.76167e-06
0.0272425
-2.63962e-06
0.0272428
-2.69954e-06
0.027243
-1.2131e-06
0.027243
4.39108e-07
0.0272429
3.65762e-07
0.027243
-7.23314e-07
0.0272432
-2.72899e-06
0.0272436
-4.79948e-06
0.027244
-4.19817e-06
0.0272444
-4.56718e-06
0.0272449
-3.4156e-06
0.0272452
-3.38335e-06
0.0272454
-1.37323e-06
0.0272453
1.32102e-06
0.0272449
4.71345e-06
0.0272443
5.36225e-06
0.0272439
3.47254e-06
0.0272437
-6.87259e-07
0.0272438
-3.37047e-06
0.027244
-4.25787e-06
0.0272442
-2.48603e-06
0.0272442
-5.23395e-07
0.0272441
1.07044e-06
1.36608e-07
0.0310025
0.00376449
0.0310987
0.00217849
0.0311739
0.00210035
0.0312405
0.0019625
0.0312983
0.0018598
0.0313462
0.00177808
0.0313825
0.00170268
0.031405
0.00162627
0.0314103
0.00153146
0.0313943
0.00137075
0.0313497
0.00107943
0.0312603
0.000671386
0.0310968
0.000386977
0.0308464
0.000473958
0.03055
0.000731158
0.030274
0.000771746
0.0300567
0.00055657
0.0299039
0.000250131
0.0298072
-3.05412e-05
0.0297549