/*--------------------------------*- C++ -*----------------------------------*\
  =========                 |
  \\      /  F ield         | OpenFOAM: The Open Source CFD Toolbox
   \\    /   O peration     | Website:  https://openfoam.org
    \\  /    A nd           | Version:  7
     \\/     M anipulation  |
\*---------------------------------------------------------------------------*/
FoamFile
{
    version     2.0;
    format      ascii;
    class       volVectorField;
    location    "250";
    object      U;
}
// * * * * * * * * * * * * * * * * * * * * * * * * * * * * * * * * * * * * * //

dimensions      [0 1 -1 0 0 0 0];

internalField   nonuniform List<vector> 
4500
(
(15.4058 -0.778201 0)
(13.7077 -0.0619021 0)
(13.0325 -0.00325561 0)
(12.6708 0.000465685 0)
(12.4332 0.000502096 0)
(12.2594 0.000386665 0)
(12.1251 0.000304158 0)
(12.0173 0.000246557 0)
(11.9286 0.000206115 0)
(11.8554 0.000168422 0)
(11.8049 8.36782e-05 0)
(11.8195 -0.000135078 0)
(11.9712 -0.000490163 0)
(12.2745 -0.00081198 0)
(12.6371 -0.000915174 0)
(12.962 -0.000820099 0)
(13.2193 -0.000658233 0)
(13.4224 -0.000522385 0)
(13.5919 -0.000433318 0)
(13.7408 -0.000376522 0)
(13.8749 -0.000333146 0)
(13.9959 -0.000297275 0)
(14.1037 -0.000261809 0)
(14.1977 -0.000225815 0)
(14.2774 -0.00018929 0)
(14.3432 -0.000155695 0)
(14.3961 -0.000125557 0)
(14.4375 -9.97977e-05 0)
(14.4688 -7.49914e-05 0)
(14.4915 -5.5206e-05 0)
(14.5071 -3.86268e-05 0)
(14.5174 -2.62835e-05 0)
(14.5239 -1.41101e-05 0)
(14.528 -9.04507e-06 0)
(14.5303 -4.87801e-06 0)
(14.5317 -3.94998e-06 0)
(14.5324 1.02723e-06 0)
(14.5328 3.63798e-07 0)
(14.5329 1.00322e-06 0)
(14.5329 -5.17897e-07 0)
(14.5328 3.2357e-06 0)
(14.5326 2.04264e-06 0)
(14.5323 1.35868e-06 0)
(14.532 -2.1619e-07 0)
(14.5317 1.24021e-06 0)
(14.5314 2.63263e-06 0)
(14.5311 1.42414e-06 0)
(14.5307 3.40742e-07 0)
(14.5303 9.91745e-08 0)
(14.5298 -1.07265e-06 0)
(14.5293 2.81789e-06 0)
(14.5288 3.74889e-06 0)
(14.5285 2.31637e-06 0)
(14.5282 9.41969e-07 0)
(14.5279 4.23608e-07 0)
(14.5276 -1.02496e-06 0)
(14.5272 1.66239e-06 0)
(14.5269 2.72228e-06 0)
(14.5268 -6.93748e-08 0)
(14.5266 1.77421e-06 0)
(14.5265 -6.28855e-07 0)
(14.5264 2.49005e-06 0)
(14.5263 9.44027e-07 0)
(14.5262 9.07056e-07 0)
(14.526 -9.79616e-07 0)
(14.5257 -2.44574e-07 0)
(14.5252 -7.15526e-07 0)
(14.5248 -8.98744e-08 0)
(14.5245 -2.18624e-06 0)
(14.5242 -2.21059e-06 0)
(14.5242 -3.64504e-06 0)
(14.5242 -2.42775e-06 0)
(14.5243 -4.21469e-06 0)
(14.5245 -4.33778e-06 0)
(14.5248 -3.39263e-06 0)
(17.5879 0.163071 0)
(16.0152 0.0238115 0)
(15.1976 0.00458874 0)
(14.7348 0.00198996 0)
(14.4341 0.00129799 0)
(14.2183 0.000961169 0)
(14.0538 0.000751974 0)
(13.9233 0.000608083 0)
(13.8167 0.000503296 0)
(13.7298 0.000393348 0)
(13.6722 0.000144821 0)
(13.6927 -0.000443362 0)
(13.868 -0.00131311 0)
(14.2037 -0.00198436 0)
(14.5858 -0.0020805 0)
(14.906 -0.00176143 0)
(15.1419 -0.00137165 0)
(15.3183 -0.00108758 0)
(15.4614 -0.0009154 0)
(15.5861 -0.000807627 0)
(15.6983 -0.000723447 0)
(15.7996 -0.000649392 0)
(15.8899 -0.000573637 0)
(15.9688 -0.000495397 0)
(16.036 -0.000416043 0)
(16.0919 -0.000341391 0)
(16.1372 -0.000273163 0)
(16.1731 -0.000213324 0)
(16.2003 -0.000157966 0)
(16.22 -0.000113507 0)
(16.2337 -7.76308e-05 0)
(16.2426 -5.15186e-05 0)
(16.2482 -2.87751e-05 0)
(16.2517 -1.81576e-05 0)
(16.2538 -9.99884e-06 0)
(16.255 -7.27126e-06 0)
(16.2556 4.40448e-07 0)
(16.256 -1.52689e-07 0)
(16.2563 1.13855e-06 0)
(16.2564 -7.11232e-07 0)
(16.2564 4.62926e-06 0)
(16.2564 2.88885e-06 0)
(16.2563 2.06403e-06 0)
(16.2563 -7.52241e-08 0)
(16.2563 1.89742e-06 0)
(16.2564 3.66552e-06 0)
(16.2565 2.03366e-06 0)
(16.2565 8.68514e-07 0)
(16.2564 8.87698e-07 0)
(16.2561 -5.61226e-07 0)
(16.2559 4.66169e-06 0)
(16.2557 5.48655e-06 0)
(16.2557 3.3925e-06 0)
(16.2556 1.68867e-06 0)
(16.2554 1.22454e-06 0)
(16.2552 -6.78034e-07 0)
(16.2549 2.83817e-06 0)
(16.2549 3.81633e-06 0)
(16.2549 -2.59006e-07 0)
(16.2551 2.35637e-06 0)
(16.2552 -1.02485e-06 0)
(16.2552 3.40368e-06 0)
(16.2554 1.14285e-06 0)
(16.2554 1.398e-06 0)
(16.2553 -7.41403e-07 0)
(16.255 8.13488e-07 0)
(16.2545 2.16678e-07 0)
(16.254 8.4179e-07 0)
(16.2537 -2.55599e-06 0)
(16.2537 -2.93076e-06 0)
(16.2538 -5.1322e-06 0)
(16.2539 -3.39359e-06 0)
(16.2541 -5.86142e-06 0)
(16.254 -5.93601e-06 0)
(16.2541 -5.29164e-06 0)
(18.7449 0.0973759 0)
(17.3725 0.0156227 0)
(16.4743 0.00605747 0)
(15.9331 0.00350167 0)
(15.5795 0.00237096 0)
(15.3279 0.00175037 0)
(15.1381 0.00136141 0)
(14.9887 0.00109555 0)
(14.8677 0.000899356 0)
(14.7703 0.000683493 0)
(14.7074 0.000205285 0)
(14.7294 -0.000860733 0)
(14.9105 -0.00234247 0)
(15.2445 -0.00336731 0)
(15.6018 -0.00336545 0)
(15.8768 -0.00271801 0)
(16.0636 -0.00204572 0)
(16.1977 -0.00160084 0)
(16.3067 -0.00134907 0)
(16.4036 -0.00119664 0)
(16.4927 -0.00107741 0)
(16.5746 -0.000969802 0)
(16.6488 -0.000858214 0)
(16.7143 -0.000742439 0)
(16.7709 -0.000625134 0)
(16.8184 -0.000514261 0)
(16.8574 -0.000412042 0)
(16.8884 -0.000321147 0)
(16.9119 -0.000237282 0)
(16.9289 -0.000169364 0)
(16.9406 -0.000115016 0)
(16.9482 -7.57009e-05 0)
(16.953 -4.29517e-05 0)
(16.956 -2.69432e-05 0)
(16.9578 -1.50252e-05 0)
(16.9588 -1.05848e-05 0)
(16.9594 -4.74149e-07 0)
(16.9598 -9.68453e-07 0)
(16.9601 8.27186e-07 0)
(16.9603 -1.37865e-06 0)
(16.9604 5.2364e-06 0)
(16.9605 2.9894e-06 0)
(16.9606 1.91214e-06 0)
(16.9608 -9.15976e-07 0)
(16.961 1.24435e-06 0)
(16.9613 3.17823e-06 0)
(16.9617 1.25095e-06 0)
(16.962 2.6622e-07 0)
(16.962 8.08102e-07 0)
(16.9619 -7.73128e-07 0)
(16.9618 5.47489e-06 0)
(16.9619 6.17582e-06 0)
(16.9621 3.64703e-06 0)
(16.9621 1.94233e-06 0)
(16.962 1.77388e-06 0)
(16.9618 -5.44015e-07 0)
(16.9617 3.37681e-06 0)
(16.9618 4.00442e-06 0)
(16.962 -1.31993e-06 0)
(16.9623 1.96003e-06 0)
(16.9625 -2.1118e-06 0)
(16.9627 3.44452e-06 0)
(16.963 7.39766e-07 0)
(16.9631 1.49812e-06 0)
(16.9631 -4.36291e-07 0)
(16.9627 2.16881e-06 0)
(16.9622 1.56028e-06 0)
(16.9617 1.79234e-06 0)
(16.9615 -3.25745e-06 0)
(16.9616 -4.32572e-06 0)
(16.9618 -7.10299e-06 0)
(16.962 -4.61089e-06 0)
(16.9621 -7.08465e-06 0)
(16.962 -6.84528e-06 0)
(16.9619 -6.11965e-06 0)
(19.3754 0.0462261 0)
(18.326 0.0150422 0)
(17.4307 0.00910241 0)
(16.8356 0.0056458 0)
(16.435 0.00383857 0)
(16.1492 0.00281849 0)
(15.9343 0.00217924 0)
(15.7663 0.00174469 0)
(15.6311 0.00142189 0)
(15.5235 0.00106298 0)
(15.455 0.000295357 0)
(15.4749 -0.00134345 0)
(15.6503 -0.00352432 0)
(15.9616 -0.00489438 0)
(16.2705 -0.00469294 0)
(16.4861 -0.00363076 0)
(16.6217 -0.0026553 0)
(16.7178 -0.00206284 0)
(16.7991 -0.00174959 0)
(16.8751 -0.00156676 0)
(16.9476 -0.0014226 0)
(17.0162 -0.00128816 0)
(17.0796 -0.00114528 0)
(17.1365 -0.000994848 0)
(17.1863 -0.000841285 0)
(17.2287 -0.000694551 0)
(17.2636 -0.00055773 0)
(17.2914 -0.000434452 0)
(17.3125 -0.000320807 0)
(17.3276 -0.000228046 0)
(17.338 -0.000154184 0)
(17.3447 -0.000100917 0)
(17.3489 -5.80496e-05 0)
(17.3515 -3.62662e-05 0)
(17.3531 -2.04617e-05 0)
(17.354 -1.40759e-05 0)
(17.3546 -1.94134e-06 0)
(17.355 -2.17779e-06 0)
(17.3553 8.34404e-08 0)
(17.3555 -2.31711e-06 0)
(17.3557 5.1229e-06 0)
(17.3559 2.47894e-06 0)
(17.3561 1.1609e-06 0)
(17.3564 -2.29977e-06 0)
(17.3567 -2.87e-07 0)
(17.3572 1.56461e-06 0)
(17.3577 -4.64156e-07 0)
(17.3581 -9.4426e-07 0)
(17.3583 3.67133e-07 0)
(17.3583 -1.14877e-06 0)
(17.3583 5.58842e-06 0)
(17.3585 5.99895e-06 0)
(17.3588 3.27627e-06 0)
(17.3589 1.92745e-06 0)
(17.3588 2.28454e-06 0)
(17.3587 -3.10261e-07 0)
(17.3586 3.48763e-06 0)
(17.3588 3.43415e-06 0)
(17.3591 -2.94506e-06 0)
(17.3595 8.34517e-07 0)
(17.3598 -3.61451e-06 0)
(17.3601 2.7672e-06 0)
(17.3604 -1.39635e-07 0)
(17.3606 1.33389e-06 0)
(17.3606 1.34379e-07 0)
(17.3602 3.99731e-06 0)
(17.3597 3.43913e-06 0)
(17.3592 2.94682e-06 0)
(17.359 -3.90534e-06 0)
(17.3592 -5.90421e-06 0)
(17.3595 -9.08689e-06 0)
(17.3597 -5.73699e-06 0)
(17.3598 -7.70999e-06 0)
(17.3596 -6.91666e-06 0)
(17.3594 -6.62868e-06 0)
(19.693 0.0456718 0)
(18.9995 0.0202346 0)
(18.1918 0.0128986 0)
(17.577 0.00824127 0)
(17.1408 0.00564906 0)
(16.8239 0.00414216 0)
(16.585 0.00319024 0)
(16.3984 0.00254317 0)
(16.249 0.00205966 0)
(16.1309 0.00152329 0)
(16.0558 0.000424952 0)
(16.0692 -0.00182675 0)
(16.2287 -0.00470825 0)
(16.5025 -0.00635416 0)
(16.7531 -0.0058661 0)
(16.9106 -0.00437108 0)
(17.0029 -0.00313088 0)
(17.0698 -0.00243561 0)
(17.1311 -0.00209351 0)
(17.1925 -0.00190156 0)
(17.2539 -0.00174663 0)
(17.3137 -0.0015949 0)
(17.3702 -0.00142739 0)
(17.4217 -0.00124685 0)
(17.4674 -0.0010598 0)
(17.5066 -0.000878404 0)
(17.5391 -0.000706966 0)
(17.565 -0.000550569 0)
(17.5845 -0.000406346 0)
(17.5986 -0.000287963 0)
(17.6081 -0.000194052 0)
(17.6142 -0.000126488 0)
(17.6181 -7.35114e-05 0)
(17.6205 -4.58045e-05 0)
(17.6219 -2.60862e-05 0)
(17.6228 -1.76605e-05 0)
(17.6233 -3.73469e-06 0)
(17.6237 -3.66152e-06 0)
(17.624 -9.76611e-07 0)
(17.6242 -3.50379e-06 0)
(17.6244 4.50026e-06 0)
(17.6247 1.49034e-06 0)
(17.625 -8.39812e-08 0)
(17.6253 -4.18272e-06 0)
(17.6257 -2.54185e-06 0)
(17.6263 -9.49461e-07 0)
(17.6269 -2.95825e-06 0)
(17.6274 -2.69361e-06 0)
(17.6277 -4.17929e-07 0)
(17.6277 -1.7487e-06 0)
(17.6278 5.15642e-06 0)
(17.6281 5.16033e-06 0)
(17.6284 2.40924e-06 0)
(17.6286 1.68327e-06 0)
(17.6285 2.74149e-06 0)
(17.6284 -6.91739e-08 0)
(17.6283 3.25647e-06 0)
(17.6285 2.27284e-06 0)
(17.629 -5.06954e-06 0)
(17.6294 -8.64852e-07 0)
(17.6298 -5.48311e-06 0)
(17.6301 1.54942e-06 0)
(17.6305 -1.39705e-06 0)
(17.6307 9.63601e-07 0)
(17.6307 8.74494e-07 0)
(17.6303 6.16884e-06 0)
(17.6297 5.71005e-06 0)
(17.6293 4.21406e-06 0)
(17.6291 -4.62163e-06 0)
(17.6294 -7.73375e-06 0)
(17.6297 -1.11744e-05 0)
(17.6299 -6.84308e-06 0)
(17.63 -7.91329e-06 0)
(17.6297 -6.39627e-06 0)
(17.6295 -6.59064e-06 0)
(19.8488 0.0504567 0)
(19.4507 0.0244901 0)
(18.7997 0.016654 0)
(18.2081 0.0111602 0)
(17.7533 0.00779291 0)
(17.4116 0.0057378 0)
(17.1506 0.00441451 0)
(16.9461 0.00350915 0)
(16.7824 0.00282765 0)
(16.6535 0.00207741 0)
(16.5702 0.000612256 0)
(16.5726 -0.00227131 0)
(16.7074 -0.0058224 0)
(16.9343 -0.00766163 0)
(17.125 -0.00682858 0)
(17.231 -0.00492344 0)
(17.2886 -0.00347767 0)
(17.3334 -0.00272969 0)
(17.3801 -0.00239137 0)
(17.4311 -0.00221047 0)
(17.4847 -0.00205762 0)
(17.5385 -0.00189709 0)
(17.5903 -0.00171065 0)
(17.6384 -0.0015036 0)
(17.6816 -0.00128496 0)
(17.7189 -0.00106922 0)
(17.75 -0.00086237 0)
(17.7748 -0.000671456 0)
(17.7935 -0.000495264 0)
(17.8069 -0.00035006 0)
(17.8159 -0.000235252 0)
(17.8217 -0.00015284 0)
(17.8254 -8.95186e-05 0)
(17.8276 -5.56774e-05 0)
(17.829 -3.19458e-05 0)
(17.8298 -2.1392e-05 0)
(17.8303 -5.77224e-06 0)
(17.8307 -5.3689e-06 0)
(17.831 -2.28237e-06 0)
(17.8313 -4.91329e-06 0)
(17.8315 3.51302e-06 0)
(17.8318 1.32908e-07 0)
(17.8321 -1.72724e-06 0)
(17.8325 -6.50339e-06 0)
(17.8329 -5.40082e-06 0)
(17.8336 -4.18267e-06 0)
(17.8342 -6.0962e-06 0)
(17.8348 -4.89844e-06 0)
(17.835 -1.4978e-06 0)
(17.8351 -2.57095e-06 0)
(17.8352 4.30941e-06 0)
(17.8356 3.82437e-06 0)
(17.8359 1.15568e-06 0)
(17.8361 1.25955e-06 0)
(17.8361 3.15903e-06 0)
(17.836 1.51769e-07 0)
(17.8359 2.76091e-06 0)
(17.8362 6.57315e-07 0)
(17.8367 -7.63709e-06 0)
(17.8371 -3.01206e-06 0)
(17.8376 -7.69844e-06 0)
(17.8379 -7.40036e-08 0)
(17.8383 -2.97131e-06 0)
(17.8385 4.37117e-07 0)
(17.8385 1.74413e-06 0)
(17.8381 8.65076e-06 0)
(17.8376 8.29937e-06 0)
(17.8371 5.58137e-06 0)
(17.837 -5.44592e-06 0)
(17.8372 -9.81466e-06 0)
(17.8376 -1.34366e-05 0)
(17.8379 -7.9694e-06 0)
(17.8379 -7.85927e-06 0)
(17.8376 -5.44851e-06 0)
(17.8373 -6.42196e-06 0)
(19.929 0.0521828 0)
(19.7286 0.0270146 0)
(19.2674 0.0200281 0)
(18.7457 0.014246 0)
(18.2961 0.0102353 0)
(17.9398 0.00761567 0)
(17.6608 0.00587441 0)
(17.4398 0.00466594 0)
(17.2623 0.00374708 0)
(17.1223 0.00274574 0)
(17.0294 0.000884134 0)
(17.0168 -0.00263233 0)
(17.1199 -0.0068041 0)
(17.2946 -0.00876221 0)
(17.4278 -0.00756049 0)
(17.4899 -0.00529422 0)
(17.5196 -0.00370895 0)
(17.5473 -0.00295742 0)
(17.5827 -0.00265364 0)
(17.6257 -0.00250261 0)
(17.6733 -0.00236378 0)
(17.7227 -0.00220222 0)
(17.7713 -0.0020019 0)
(17.817 -0.00177133 0)
(17.8586 -0.00152225 0)
(17.8949 -0.00127178 0)
(17.9253 -0.00102792 0)
(17.9496 -0.000800306 0)
(17.968 -0.000589957 0)
(17.981 -0.000416063 0)
(17.9899 -0.00027896 0)
(17.9955 -0.000180744 0)
(17.9991 -0.000106523 0)
(18.0013 -6.61599e-05 0)
(18.0026 -3.81942e-05 0)
(18.0034 -2.53639e-05 0)
(18.0039 -8.05998e-06 0)
(18.0043 -7.29221e-06 0)
(18.0046 -3.80646e-06 0)
(18.0049 -6.52513e-06 0)
(18.0051 2.23326e-06 0)
(18.0055 -1.5289e-06 0)
(18.0058 -3.70632e-06 0)
(18.0062 -9.20961e-06 0)
(18.0066 -8.78165e-06 0)
(18.0073 -8.03828e-06 0)
(18.008 -9.80003e-06 0)
(18.0086 -7.50685e-06 0)
(18.0089 -2.83367e-06 0)
(18.009 -3.58843e-06 0)
(18.0091 3.12555e-06 0)
(18.0095 2.08007e-06 0)
(18.0099 -4.22468e-07 0)
(18.0101 6.85529e-07 0)
(18.0101 3.55188e-06 0)
(18.0099 3.58934e-07 0)
(18.0099 2.05684e-06 0)
(18.0102 -1.33504e-06 0)
(18.0107 -1.05966e-05 0)
(18.0112 -5.55373e-06 0)
(18.0116 -1.0226e-05 0)
(18.012 -2.05122e-06 0)
(18.0124 -4.82339e-06 0)
(18.0127 -2.23698e-07 0)
(18.0127 2.72829e-06 0)
(18.0123 1.14208e-05 0)
(18.0117 1.12035e-05 0)
(18.0112 7.06533e-06 0)
(18.0111 -6.36494e-06 0)
(18.0114 -1.21382e-05 0)
(18.0118 -1.58812e-05 0)
(18.012 -9.15037e-06 0)
(18.0121 -7.61009e-06 0)
(18.0117 -4.18188e-06 0)
(18.0115 -5.9443e-06 0)
(19.9739 0.0527199 0)
(19.8889 0.0285857 0)
(19.6025 0.0228021 0)
(19.1903 0.017269 0)
(18.776 0.0128827 0)
(18.4202 0.00975787 0)
(18.1303 0.00758066 0)
(17.8958 0.00603289 0)
(17.7058 0.00483889 0)
(17.5548 0.00355098 0)
(17.4511 0.00127267 0)
(17.4203 -0.00285781 0)
(17.4869 -0.00758758 0)
(17.6073 -0.00960658 0)
(17.6873 -0.00804641 0)
(17.7118 -0.00548657 0)
(17.7186 -0.00383095 0)
(17.7321 -0.00312413 0)
(17.7581 -0.00288503 0)
(17.7945 -0.00278262 0)
(17.8372 -0.00266989 0)
(17.883 -0.0025153 0)
(17.929 -0.00230634 0)
(17.9732 -0.00205524 0)
(18.0138 -0.00177678 0)
(18.0497 -0.00149081 0)
(18.0799 -0.00120782 0)
(18.1042 -0.000940619 0)
(18.1225 -0.000693159 0)
(18.1356 -0.000487966 0)
(18.1445 -0.000326549 0)
(18.1501 -0.000211099 0)
(18.1537 -0.000125077 0)
(18.1559 -7.75892e-05 0)
(18.1572 -4.50263e-05 0)
(18.158 -2.969e-05 0)
(18.1585 -1.06402e-05 0)
(18.1589 -9.44667e-06 0)
(18.1593 -5.5427e-06 0)
(18.1595 -8.32762e-06 0)
(18.1598 6.98374e-07 0)
(18.1601 -3.45678e-06 0)
(18.1604 -5.98273e-06 0)
(18.1608 -1.22631e-05 0)
(18.1613 -1.2636e-05 0)
(18.162 -1.24556e-05 0)
(18.1627 -1.40246e-05 0)
(18.1633 -1.04875e-05 0)
(18.1636 -4.40351e-06 0)
(18.1637 -4.78039e-06 0)
(18.1639 1.65163e-06 0)
(18.1643 -2.13602e-08 0)
(18.1646 -2.29417e-06 0)
(18.1649 -2.52643e-08 0)
(18.1649 3.92673e-06 0)
(18.1648 5.63931e-07 0)
(18.1647 1.18295e-06 0)
(18.1651 -3.65134e-06 0)
(18.1655 -1.39178e-05 0)
(18.166 -8.4531e-06 0)
(18.1665 -1.30598e-05 0)
(18.1669 -4.35076e-06 0)
(18.1673 -6.94124e-06 0)
(18.1675 -1.01046e-06 0)
(18.1675 3.81792e-06 0)
(18.1671 1.44801e-05 0)
(18.1666 1.44252e-05 0)
(18.1661 8.69894e-06 0)
(18.166 -7.34599e-06 0)
(18.1663 -1.46719e-05 0)
(18.1667 -1.85136e-05 0)
(18.1669 -1.03991e-05 0)
(18.167 -7.22472e-06 0)
(18.1666 -2.65104e-06 0)
(18.1663 -5.37744e-06 0)
(20.0011 0.0528713 0)
(19.9808 0.0295199 0)
(19.8226 0.024826 0)
(19.5371 0.0199543 0)
(19.1896 0.0155688 0)
(18.855 0.0121006 0)
(18.5648 0.00952132 0)
(18.3224 0.00761922 0)
(18.1222 0.00612027 0)
(17.9612 0.00451557 0)
(17.8462 0.00181144 0)
(17.7953 -0.00289421 0)
(17.8229 -0.00810773 0)
(17.8891 -0.0101474 0)
(17.9202 -0.00826828 0)
(17.912 -0.00549617 0)
(17.8989 -0.00384192 0)
(17.9 -0.00322855 0)
(17.9176 -0.00308513 0)
(17.9479 -0.00305123 0)
(17.9863 -0.00297781 0)
(18.0289 -0.00283918 0)
(18.0728 -0.00262761 0)
(18.1157 -0.00235963 0)
(18.1558 -0.00205316 0)
(18.1916 -0.001731 0)
(18.2221 -0.00140646 0)
(18.2467 -0.0010962 0)
(18.2654 -0.000807895 0)
(18.2788 -0.000568003 0)
(18.2878 -0.000379562 0)
(18.2937 -0.00024492 0)
(18.2973 -0.000145813 0)
(18.2996 -9.03497e-05 0)
(18.3009 -5.26673e-05 0)
(18.3017 -3.44996e-05 0)
(18.3023 -1.35708e-05 0)
(18.3027 -1.18556e-05 0)
(18.303 -7.49199e-06 0)
(18.3032 -1.03125e-05 0)
(18.3035 -1.06401e-06 0)
(18.3038 -5.62033e-06 0)
(18.3042 -8.524e-06 0)
(18.3045 -1.56309e-05 0)
(18.305 -1.69217e-05 0)
(18.3057 -1.73909e-05 0)
(18.3065 -1.87394e-05 0)
(18.307 -1.38255e-05 0)
(18.3074 -6.1975e-06 0)
(18.3075 -6.13245e-06 0)
(18.3077 -7.77321e-08 0)
(18.308 -2.44296e-06 0)
(18.3084 -4.43972e-06 0)
(18.3087 -8.7049e-07 0)
(18.3087 4.28344e-06 0)
(18.3086 7.77179e-07 0)
(18.3086 1.74697e-07 0)
(18.3089 -6.24691e-06 0)
(18.3093 -1.75706e-05 0)
(18.3098 -1.16902e-05 0)
(18.3103 -1.61903e-05 0)
(18.3107 -6.95871e-06 0)
(18.3111 -9.31717e-06 0)
(18.3113 -1.92437e-06 0)
(18.3113 4.99886e-06 0)
(18.311 1.78194e-05 0)
(18.3104 1.79756e-05 0)
(18.3099 1.05181e-05 0)
(18.3098 -8.34856e-06 0)
(18.3101 -1.73866e-05 0)
(18.3105 -2.13299e-05 0)
(18.3107 -1.17375e-05 0)
(18.3108 -6.74464e-06 0)
(18.3105 -9.15455e-07 0)
(18.3102 -4.67556e-06 0)
(20.0187 0.0527464 0)
(20.0354 0.0299707 0)
(19.9583 0.02613 0)
(19.7863 0.022069 0)
(19.5283 0.018064 0)
(19.2388 0.0145173 0)
(18.9638 0.0116465 0)
(18.7219 0.00941455 0)
(18.5162 0.0075992 0)
(18.3472 0.00565818 0)
(18.2213 0.00253204 0)
(18.1498 -0.00269099 0)
(18.138 -0.00830308 0)
(18.1518 -0.0103378 0)
(18.138 -0.00820264 0)
(18.1004 -0.0053106 0)
(18.0693 -0.00373265 0)
(18.0587 -0.00326357 0)
(18.0682 -0.00324915 0)
(18.0927 -0.0033059 0)
(18.1267 -0.00328696 0)
(18.1663 -0.00317494 0)
(18.2083 -0.00296824 0)
(18.2501 -0.00268815 0)
(18.2899 -0.00235591 0)
(18.326 -0.00199724 0)
(18.3571 -0.00162864 0)
(18.3824 -0.00127132 0)
(18.4017 -0.00093763 0)
(18.4156 -0.000658757 0)
(18.425 -0.000439795 0)
(18.4311 -0.000283387 0)
(18.4349 -0.000169472 0)
(18.4373 -0.000104893 0)
(18.4387 -6.13834e-05 0)
(18.4395 -3.99438e-05 0)
(18.4401 -1.69274e-05 0)
(18.4405 -1.4551e-05 0)
(18.4408 -9.66091e-06 0)
(18.4411 -1.24719e-05 0)
(18.4413 -3.03232e-06 0)
(18.4416 -7.99153e-06 0)
(18.442 -1.12994e-05 0)
(18.4423 -1.92777e-05 0)
(18.4428 -2.15985e-05 0)
(18.4435 -2.28023e-05 0)
(18.4442 -2.39178e-05 0)
(18.4448 -1.75085e-05 0)
(18.4451 -8.21079e-06 0)
(18.4453 -7.63176e-06 0)
(18.4454 -2.03389e-06 0)
(18.4458 -5.15431e-06 0)
(18.4462 -6.84652e-06 0)
(18.4464 -1.85288e-06 0)
(18.4465 4.61678e-06 0)
(18.4463 1.00977e-06 0)
(18.4463 -9.33975e-07 0)
(18.4466 -9.07737e-06 0)
(18.4471 -2.15248e-05 0)
(18.4476 -1.52454e-05 0)
(18.448 -1.96133e-05 0)
(18.4484 -9.86483e-06 0)
(18.4488 -1.19491e-05 0)
(18.4491 -2.97146e-06 0)
(18.4491 6.25445e-06 0)
(18.4487 2.14294e-05 0)
(18.4482 2.18662e-05 0)
(18.4477 1.25656e-05 0)
(18.4476 -9.32e-06 0)
(18.4478 -2.02405e-05 0)
(18.4482 -2.43212e-05 0)
(18.4485 -1.31828e-05 0)
(18.4485 -6.21546e-06 0)
(18.4482 9.72662e-07 0)
(18.4479 -3.92328e-06 0)
(20.0306 0.0523721 0)
(20.0698 0.0300725 0)
(20.0407 0.026866 0)
(19.9512 0.0235229 0)
(19.7856 0.0201303 0)
(19.5622 0.0168146 0)
(19.3212 0.0138504 0)
(19.0921 0.0113743 0)
(18.8879 0.00926493 0)
(18.7149 0.00698761 0)
(18.58 0.00345934 0)
(18.489 -0.00220488 0)
(18.4398 -0.00811792 0)
(18.4042 -0.01013 0)
(18.3487 -0.00781862 0)
(18.284 -0.00490861 0)
(18.2357 -0.00348645 0)
(18.2136 -0.00321632 0)
(18.2148 -0.00336796 0)
(18.2332 -0.00354084 0)
(18.2628 -0.00359434 0)
(18.2993 -0.00352195 0)
(18.3392 -0.00332957 0)
(18.38 -0.00304386 0)
(18.4196 -0.00268939 0)
(18.4562 -0.00229469 0)
(18.4881 -0.00187968 0)
(18.5144 -0.00147087 0)
(18.5346 -0.00108639 0)
(18.5492 -0.000763259 0)
(18.5592 -0.000509366 0)
(18.5656 -0.000327898 0)
(18.5697 -0.000196933 0)
(18.5722 -0.000121755 0)
(18.5737 -7.14904e-05 0)
(18.5746 -4.62033e-05 0)
(18.5751 -2.07998e-05 0)
(18.5756 -1.75717e-05 0)
(18.5759 -1.20571e-05 0)
(18.5761 -1.47978e-05 0)
(18.5764 -5.18122e-06 0)
(18.5767 -1.05386e-05 0)
(18.577 -1.4273e-05 0)
(18.5774 -2.31638e-05 0)
(18.5778 -2.66194e-05 0)
(18.5785 -2.86419e-05 0)
(18.5792 -2.95285e-05 0)
(18.5798 -2.1526e-05 0)
(18.5801 -1.04409e-05 0)
(18.5802 -9.26759e-06 0)
(18.5804 -4.18695e-06 0)
(18.5808 -8.12171e-06 0)
(18.5811 -9.50022e-06 0)
(18.5814 -2.97868e-06 0)
(18.5814 4.91775e-06 0)
(18.5813 1.27051e-06 0)
(18.5813 -2.10601e-06 0)
(18.5816 -1.20919e-05 0)
(18.582 -2.57437e-05 0)
(18.5825 -1.9097e-05 0)
(18.5829 -2.33213e-05 0)
(18.5833 -1.30583e-05 0)
(18.5837 -1.48346e-05 0)
(18.584 -4.16022e-06 0)
(18.584 7.5617e-06 0)
(18.5837 2.5294e-05 0)
(18.5831 2.61046e-05 0)
(18.5827 1.4887e-05 0)
(18.5825 -1.02013e-05 0)
(18.5827 -2.31856e-05 0)
(18.5831 -2.74757e-05 0)
(18.5833 -1.47569e-05 0)
(18.5834 -5.68634e-06 0)
(18.5831 2.94692e-06 0)
(18.5829 -3.07154e-06 0)
(20.039 0.0517808 0)
(20.0926 0.0299238 0)
(20.092 0.0271911 0)
(20.0552 0.0243829 0)
(19.965 0.0216168 0)
(19.8158 0.0187678 0)
(19.6269 0.0159622 0)
(19.426 0.0134016 0)
(19.2339 0.0110736 0)
(19.0632 0.00849289 0)
(18.923 0.00460436 0)
(18.8158 -0.00140568 0)
(18.7331 -0.0075059 0)
(18.6523 -0.00947564 0)
(18.5583 -0.00707735 0)
(18.4678 -0.00425963 0)
(18.4025 -0.00307868 0)
(18.3684 -0.00306765 0)
(18.3609 -0.0034276 0)
(18.3727 -0.00374654 0)
(18.3975 -0.00389415 0)
(18.4305 -0.00387747 0)
(18.4682 -0.00371152 0)
(18.5079 -0.003429 0)
(18.5473 -0.00305773 0)
(18.5844 -0.00262878 0)
(18.6174 -0.00216551 0)
(18.6449 -0.00170045 0)
(18.6663 -0.00125889 0)
(18.6818 -0.000885089 0)
(18.6924 -0.000590792 0)
(18.6993 -0.000380118 0)
(18.7037 -0.000229254 0)
(18.7064 -0.00014158 0)
(18.708 -8.33707e-05 0)
(18.709 -5.34931e-05 0)
(18.7096 -2.53039e-05 0)
(18.71 -2.09666e-05 0)
(18.7103 -1.46942e-05 0)
(18.7106 -1.7279e-05 0)
(18.7108 -7.48845e-06 0)
(18.7111 -1.32265e-05 0)
(18.7114 -1.74044e-05 0)
(18.7117 -2.72387e-05 0)
(18.7122 -3.19291e-05 0)
(18.7128 -3.48551e-05 0)
(18.7135 -3.55351e-05 0)
(18.7141 -2.5861e-05 0)
(18.7144 -1.28835e-05 0)
(18.7145 -1.10239e-05 0)
(18.7147 -6.50738e-06 0)
(18.715 -1.13124e-05 0)
(18.7154 -1.23881e-05 0)
(18.7157 -4.25466e-06 0)
(18.7157 5.17409e-06 0)
(18.7156 1.57095e-06 0)
(18.7156 -3.30291e-06 0)
(18.7158 -1.52363e-05 0)
(18.7163 -3.01824e-05 0)
(18.7167 -2.32196e-05 0)
(18.7171 -2.73023e-05 0)
(18.7175 -1.65302e-05 0)
(18.7179 -1.79707e-05 0)
(18.7182 -5.50128e-06 0)
(18.7182 8.89565e-06 0)
(18.7179 2.93911e-05 0)
(18.7173 3.07e-05 0)
(18.7169 1.75338e-05 0)
(18.7167 -1.09178e-05 0)
(18.7169 -2.61583e-05 0)
(18.7172 -3.07664e-05 0)
(18.7175 -1.64749e-05 0)
(18.7176 -5.20565e-06 0)
(18.7173 4.94294e-06 0)
(18.7171 -2.20368e-06 0)
(20.045 0.0509955 0)
(20.1082 0.0295834 0)
(20.1255 0.0272214 0)
(20.1206 0.0247849 0)
(20.0821 0.0225222 0)
(19.9987 0.0202053 0)
(19.8708 0.0177712 0)
(19.7134 0.0153374 0)
(19.5466 0.012931 0)
(19.3874 0.0101289 0)
(19.2481 0.00595352 0)
(19.13 -0.000284838 0)
(19.0203 -0.00643707 0)
(18.9002 -0.00833022 0)
(18.7709 -0.00593349 0)
(18.6555 -0.00332384 0)
(18.573 -0.00247629 0)
(18.5263 -0.00279153 0)
(18.5092 -0.00340858 0)
(18.5138 -0.00390917 0)
(18.5331 -0.00417717 0)
(18.5621 -0.00423616 0)
(18.5972 -0.00411214 0)
(18.6355 -0.0038446 0)
(18.6747 -0.00346453 0)
(18.7124 -0.00300499 0)
(18.7465 -0.00249251 0)
(18.7754 -0.00196636 0)
(18.7981 -0.00146055 0)
(18.8148 -0.00102844 0)
(18.8262 -0.000687042 0)
(18.8337 -0.000442024 0)
(18.8384 -0.000267687 0)
(18.8413 -0.000165134 0)
(18.8431 -9.74769e-05 0)
(18.8441 -6.20705e-05 0)
(18.8448 -3.05738e-05 0)
(18.8452 -2.47938e-05 0)
(18.8455 -1.7586e-05 0)
(18.8458 -1.9903e-05 0)
(18.846 -9.92333e-06 0)
(18.8463 -1.60121e-05 0)
(18.8466 -2.06436e-05 0)
(18.8469 -3.14432e-05 0)
(18.8473 -3.74606e-05 0)
(18.8479 -4.1371e-05 0)
(18.8485 -4.18872e-05 0)
(18.8491 -3.049e-05 0)
(18.8494 -1.55312e-05 0)
(18.8495 -1.28852e-05 0)
(18.8497 -8.95996e-06 0)
(18.85 -1.46841e-05 0)
(18.8504 -1.54901e-05 0)
(18.8506 -5.68714e-06 0)
(18.8507 5.37124e-06 0)
(18.8506 1.91878e-06 0)
(18.8505 -4.48283e-06 0)
(18.8508 -1.84451e-05 0)
(18.8512 -3.47876e-05 0)
(18.8516 -2.7576e-05 0)
(18.852 -3.15421e-05 0)
(18.8524 -2.02617e-05 0)
(18.8528 -2.13525e-05 0)
(18.853 -7.00392e-06 0)
(18.8531 1.02257e-05 0)
(18.8527 3.36951e-05 0)
(18.8522 3.56496e-05 0)
(18.8518 2.05577e-05 0)
(18.8516 -1.139e-05 0)
(18.8518 -2.90823e-05 0)
(18.8521 -3.41645e-05 0)
(18.8523 -1.83501e-05 0)
(18.8524 -4.83437e-06 0)
(18.8521 6.88361e-06 0)
(18.8519 -1.37669e-06 0)
(20.0492 0.0500274 0)
(20.1193 0.029083 0)
(20.1482 0.0270317 0)
(20.1629 0.0248518 0)
(20.1569 0.0229499 0)
(20.1212 0.0210879 0)
(20.0496 0.0191041 0)
(19.944 0.0169822 0)
(19.8153 0.0146826 0)
(19.6793 0.0117994 0)
(19.5498 0.00745353 0)
(19.4289 0.00113233 0)
(19.3008 -0.00490963 0)
(19.1497 -0.00666264 0)
(18.9891 -0.00433985 0)
(18.8498 -0.00205343 0)
(18.7496 -0.00163763 0)
(18.6894 -0.00235427 0)
(18.6619 -0.00328503 0)
(18.6583 -0.00400963 0)
(18.6714 -0.00442999 0)
(18.6959 -0.00458934 0)
(18.7279 -0.00452687 0)
(18.7644 -0.00428989 0)
(18.803 -0.00391238 0)
(18.8411 -0.00342853 0)
(18.8765 -0.00286743 0)
(18.9069 -0.00227558 0)
(18.9311 -0.00169755 0)
(18.949 -0.00119814 0)
(18.9614 -0.000801575 0)
(18.9695 -0.00051592 0)
(18.9747 -0.000313704 0)
(18.9779 -0.000193313 0)
(18.9798 -0.000114343 0)
(18.9809 -7.22355e-05 0)
(18.9816 -3.67726e-05 0)
(18.9821 -2.91219e-05 0)
(18.9824 -2.07513e-05 0)
(18.9826 -2.26526e-05 0)
(18.9829 -1.2454e-05 0)
(18.9831 -1.88444e-05 0)
(18.9834 -2.39313e-05 0)
(18.9836 -3.57025e-05 0)
(18.984 -4.31314e-05 0)
(18.9846 -4.81057e-05 0)
(18.9852 -4.85218e-05 0)
(18.9857 -3.53766e-05 0)
(18.986 -1.837e-05 0)
(18.9861 -1.4827e-05 0)
(18.9863 -1.15067e-05 0)
(18.9866 -1.81903e-05 0)
(18.9869 -1.87823e-05 0)
(18.9872 -7.27889e-06 0)
(18.9872 5.49258e-06 0)
(18.9871 2.32345e-06 0)
(18.9871 -5.60237e-06 0)
(18.9873 -2.16479e-05 0)
(18.9877 -3.94912e-05 0)
(18.9881 -3.21228e-05 0)
(18.9885 -3.60113e-05 0)
(18.9888 -2.42348e-05 0)
(18.9892 -2.49685e-05 0)
(18.9894 -8.67686e-06 0)
(18.9895 1.15194e-05 0)
(18.9892 3.81679e-05 0)
(18.9887 4.09515e-05 0)
(18.9883 2.40111e-05 0)
(18.9881 -1.15256e-05 0)
(18.9882 -3.18691e-05 0)
(18.9884 -3.76187e-05 0)
(18.9887 -2.039e-05 0)
(18.9887 -4.62326e-06 0)
(18.9885 8.68372e-06 0)
(18.9884 -6.09895e-07 0)
(20.0522 0.04888 0)
(20.1272 0.0284389 0)
(20.1641 0.0266655 0)
(20.1912 0.0246695 0)
(20.2053 0.0230187 0)
(20.2005 0.0214923 0)
(20.1714 0.0199069 0)
(20.114 0.0181701 0)
(20.0301 0.0161382 0)
(19.9281 0.0133503 0)
(19.8191 0.00899574 0)
(19.7055 0.00276786 0)
(19.5709 -0.00296882 0)
(19.3999 -0.00447159 0)
(19.2142 -0.00225684 0)
(19.0527 -0.000396037 0)
(18.9345 -0.000513184 0)
(18.8599 -0.00171413 0)
(18.8208 -0.00302379 0)
(18.808 -0.00402266 0)
(18.8141 -0.00463402 0)
(18.8333 -0.00492409 0)
(18.8614 -0.00494778 0)
(18.8956 -0.00476154 0)
(18.9332 -0.0044022 0)
(18.9716 -0.00390383 0)
(19.008 -0.00329698 0)
(19.04 -0.00263555 0)
(19.0658 -0.00197672 0)
(19.0852 -0.00139965 0)
(19.0986 -0.000938324 0)
(19.1074 -0.000604446 0)
(19.1131 -0.000368982 0)
(19.1165 -0.000227143 0)
(19.1186 -0.000134576 0)
(19.1199 -8.43319e-05 0)
(19.1206 -4.40806e-05 0)
(19.1211 -3.40273e-05 0)
(19.1214 -2.42071e-05 0)
(19.1216 -2.5507e-05 0)
(19.1218 -1.50369e-05 0)
(19.1221 -2.16604e-05 0)
(19.1223 -2.71956e-05 0)
(19.1226 -3.99296e-05 0)
(19.1229 -4.88439e-05 0)
(19.1234 -5.4951e-05 0)
(19.124 -5.5354e-05 0)
(19.1244 -4.04695e-05 0)
(19.1247 -2.13768e-05 0)
(19.1249 -1.68227e-05 0)
(19.125 -1.41013e-05 0)
(19.1253 -2.17708e-05 0)
(19.1256 -2.22291e-05 0)
(19.1258 -9.02733e-06 0)
(19.1259 5.52106e-06 0)
(19.1258 2.7893e-06 0)
(19.1258 -6.61706e-06 0)
(19.126 -2.4762e-05 0)
(19.1263 -4.42165e-05 0)
(19.1266 -3.67971e-05 0)
(19.127 -4.06781e-05 0)
(19.1273 -2.84142e-05 0)
(19.1277 -2.88032e-05 0)
(19.1279 -1.05231e-05 0)
(19.128 1.27408e-05 0)
(19.1277 4.27711e-05 0)
(19.1273 4.6585e-05 0)
(19.1268 2.79423e-05 0)
(19.1266 -1.1232e-05 0)
(19.1267 -3.44137e-05 0)
(19.1269 -4.10757e-05 0)
(19.1271 -2.25926e-05 0)
(19.1272 -4.63808e-06 0)
(19.127 1.02499e-05 0)
(19.1269 3.27319e-08 0)
(20.0542 0.0475524 0)
(20.1328 0.027659 0)
(20.1754 0.0261461 0)
(20.2109 0.0242908 0)
(20.2376 0.0228188 0)
(20.252 0.0215287 0)
(20.2509 0.0202415 0)
(20.2304 0.0188491 0)
(20.1879 0.0171469 0)
(20.1246 0.0146003 0)
(20.0453 0.010416 0)
(19.9501 0.00447827 0)
(19.8231 -0.000731268 0)
(19.6467 -0.00180999 0)
(19.4451 0.000331472 0)
(19.2646 0.00169626 0)
(19.129 0.000951387 0)
(19.0392 -0.000821606 0)
(18.9875 -0.00258377 0)
(18.9645 -0.00391574 0)
(18.9625 -0.00476442 0)
(18.9754 -0.00522214 0)
(18.999 -0.00536245 0)
(19.0301 -0.00525263 0)
(19.0661 -0.00493228 0)
(19.1043 -0.00443379 0)
(19.1417 -0.00378728 0)
(19.1751 -0.00305381 0)
(19.2027 -0.0023053 0)
(19.2234 -0.0016389 0)
(19.238 -0.00110161 0)
(19.2476 -0.000710504 0)
(19.2537 -0.000435378 0)
(19.2575 -0.000267754 0)
(19.2598 -0.000158846 0)
(19.2611 -9.8732e-05 0)
(19.2619 -5.27008e-05 0)
(19.2625 -3.95922e-05 0)
(19.2628 -2.79719e-05 0)
(19.263 -2.84368e-05 0)
(19.2632 -1.76258e-05 0)
(19.2634 -2.43876e-05 0)
(19.2636 -3.03517e-05 0)
(19.2638 -4.4018e-05 0)
(19.2641 -5.44798e-05 0)
(19.2646 -6.17832e-05 0)
(19.2651 -6.22794e-05 0)
(19.2655 -4.56964e-05 0)
(19.2658 -2.45136e-05 0)
(19.2659 -1.88305e-05 0)
(19.266 -1.66929e-05 0)
(19.2663 -2.53611e-05 0)
(19.2666 -2.57873e-05 0)
(19.2668 -1.09223e-05 0)
(19.2668 5.44152e-06 0)
(19.2668 3.32325e-06 0)
(19.2667 -7.48317e-06 0)
(19.2669 -2.77036e-05 0)
(19.2672 -4.8869e-05 0)
(19.2675 -4.15287e-05 0)
(19.2678 -4.5487e-05 0)
(19.2681 -3.27645e-05 0)
(19.2685 -3.28293e-05 0)
(19.2687 -1.25418e-05 0)
(19.2688 1.38563e-05 0)
(19.2685 4.74524e-05 0)
(19.2681 5.25305e-05 0)
(19.2677 3.23938e-05 0)
(19.2674 -1.04064e-05 0)
(19.2675 -3.66006e-05 0)
(19.2676 -4.4451e-05 0)
(19.2678 -2.49438e-05 0)
(19.2679 -4.92393e-06 0)
(19.2678 1.14848e-05 0)
(19.2677 5.48131e-07 0)
(20.0555 0.0460405 0)
(20.1367 0.0267464 0)
(20.1836 0.0254844 0)
(20.2248 0.023745 0)
(20.2598 0.0224074 0)
(20.2864 0.0212869 0)
(20.3029 0.0202105 0)
(20.3069 0.0190775 0)
(20.2957 0.0176702 0)
(20.2672 0.0154194 0)
(20.2206 0.0115369 0)
(20.1521 0.00606046 0)
(20.0466 0.00159754 0)
(19.8825 0.00118438 0)
(19.678 0.00338441 0)
(19.4848 0.00425028 0)
(19.3335 0.00280768 0)
(19.2285 0.000378189 0)
(19.1633 -0.00191595 0)