/*--------------------------------*- C++ -*----------------------------------*\
  =========                 |
  \\      /  F ield         | OpenFOAM: The Open Source CFD Toolbox
   \\    /   O peration     | Website:  https://openfoam.org
    \\  /    A nd           | Version:  7
     \\/     M anipulation  |
\*---------------------------------------------------------------------------*/
FoamFile
{
    version     2.0;
    format      ascii;
    class       volScalarField;
    location    "7.1";
    object      p;
}
// * * * * * * * * * * * * * * * * * * * * * * * * * * * * * * * * * * * * * //

dimensions      [0 2 -2 0 0 0 0];

internalField   nonuniform List<scalar> 
900
(
2.01047e-08
-0.000338934
-0.000890036
-0.00147754
-0.00199723
-0.00238655
-0.00261348
-0.0026628
-0.00252584
-0.00219587
-0.00166772
-0.000940049
-1.89514e-05
0.00107788
0.00231768
0.00365059
0.00500984
0.00631502
0.00747838
0.00841397
0.00904874
0.00933386
0.00925442
0.00883538
0.00814298
0.00727931
0.00637024
0.00557321
0.00504049
0.00490001
0.000337017
-1.45575e-05
-0.00043491
-0.000865328
-0.00124335
-0.00152406
-0.00168224
-0.0017034
-0.00157754
-0.00129678
-0.000855428
-0.000251607
0.000509939
0.00141476
0.00243586
0.00353193
0.00464958
0.00572208
0.00667777
0.0074468
0.00797039
0.00821035
0.00815696
0.00783331
0.00729526
0.00662671
0.00592952
0.00530638
0.00488577
0.00475729
0.000909981
0.000391712
-4.30269e-05
-0.000428557
-0.000751619
-0.000985256
-0.00111485
-0.00113157
-0.00102741
-0.000794302
-0.000424966
8.51344e-05
0.000735002
0.00151497
0.0024039
0.00336782
0.0043585
0.00531649
0.00617579
0.0068709
0.00734592
0.00756392
0.00751464
0.00721866
0.00672665
0.00611369
0.00546942
0.00488608
0.00445471
0.0042416
0.00154447
0.000802375
0.000290749
-0.000105804
-0.000419768
-0.000641761
-0.000769301
-0.000801223
-0.000732675
-0.000555462
-0.000259802
0.000163113
0.000717816
0.00140092
0.00219771
0.0030797
0.00400322
0.00491129
0.00573807
0.0064159
0.00688497
0.00710345
0.00705613
0.00675927
0.00625985
0.00562916
0.00495285
0.00431979
0.00380121
0.00343082
0.00210362
0.00112094
0.00051006
7.72305e-05
-0.000252867
-0.000486974
-0.000634303
-0.000701171
-0.000685579
-0.000578568
-0.000366846
-3.60279e-05
0.000425383
0.00102159
0.00174511
0.00257325
0.00346651
0.00436834
0.00521003
0.00591771
0.00642271
0.00667313
0.00664417
0.00634456
0.00581669
0.00513009
0.00437159
0.00363385
0.00297832
0.00240022
0.00247082
0.00125017
0.000531547
4.69856e-05
-0.000318538
-0.000586231
-0.000775734
-0.00089974
-0.000958113
-0.000940112
-0.000827772
-0.000599797
-0.000236243
0.000276203
0.000938694
0.00173531
0.00263103
0.00356898
0.00447574
0.0052678
0.00586277
0.00619281
0.00621747
0.00593288
0.00537403
0.00460915
0.00373057
0.00284236
0.00200402
0.00117949
0.00254481
0.00110085
0.000274732
-0.000270484
-0.000686523
-0.00100763
-0.00126241
-0.00146854
-0.00162652
-0.00172262
-0.00173299
-0.00162796
-0.00137743
-0.00095699
-0.000354742
0.000422164
0.00134581
0.00235911
0.00338349
0.00432328
0.00507752
0.00555551
0.00569306
0.00546593
0.00489617
0.004049
0.00302545
0.00194879
0.000885322
-0.000227657
0.0022363
0.000591074
-0.000336735
-0.000947394
-0.00142652
-0.00182031
-0.00216503
-0.00248201
-0.0027712
-0.00301484
-0.00318193
-0.00323295
-0.00312565
-0.00282193
-0.00229599
-0.00154283
-0.000577503
0.00054343
0.00173814
0.00289768
0.00389804
0.00461763
0.00495789
0.00486279
0.0043318
0.00342203
0.00224445
0.000949213
-0.000381898
-0.0018359
0.00146589
-0.000353257
-0.00137389
-0.00205307
-0.00260738
-0.00309411
-0.0035562
-0.0040176
-0.00447691
-0.00491151
-0.00528229
-0.00553842
-0.00562327
-0.00548186
-0.00506918
-0.00435947
-0.00336235
-0.00211526
-0.000701993
0.000755573
0.00210692
0.003191
0.00386143
0.00401429
0.0036111
0.00269029
0.00137058
-0.000163912
-0.00180704
-0.00366968
0.000164929
-0.00179619
-0.002899
-0.00364949
-0.0042918
-0.00489366
-0.00550396
-0.00614877
-0.00682499
-0.00750488
-0.00814068
-0.00866903
-0.00901672
-0.00910819
-0.00887461
-0.00826507
-0.00726397
-0.00589204
-0.00422476
-0.00239167
-0.000570391
0.00103078
0.00220224
0.00277076
0.00263672
0.00180101
0.000381718
-0.00139792
-0.00339814
-0.00575429
-0.00172167
-0.00378867
-0.00496183
-0.0057866
-0.00653063
-0.00727153
-0.00806384
-0.00893573
-0.00988272
-0.0108723
-0.0118483
-0.0127341
-0.0134379
-0.01386
-0.0139021
-0.0134802
-0.0125418
-0.0110797
-0.00914882
-0.00687651
-0.00446314
-0.00216862
-0.000281118
0.000930824
0.00127396
0.000680798
-0.000750019
-0.00275609
-0.00515486
-0.00810682
-0.00423187
-0.00636527
-0.00759591
-0.00849774
-0.00935717
-0.0102613
-0.0112703
-0.0124151
-0.0136908
-0.0150614
-0.0164629
-0.0178058
-0.0189789
-0.019855
-0.0203009
-0.0201902
-0.0194221
-0.0179496
-0.015787
-0.0130442
-0.00993255
-0.0067609
-0.00390717
-0.00176285
-0.000656345
-0.000769673
-0.00205893
-0.00423317
-0.00706033
-0.010726
-0.00738301
-0.00954128
-0.0108154
-0.0117956
-0.0127819
-0.0138705
-0.015128
-0.0165888
-0.0182496
-0.0200726
-0.0219881
-0.0238948
-0.0256618
-0.027133
-0.0281356
-0.0284928
-0.0280409
-0.0266927
-0.024386
-0.0211946
-0.0173209
-0.0131088
-0.00902699
-0.00561277
-0.00337653
-0.00267757
-0.00358494
-0.00580929
-0.00907072
-0.0135796
-0.0111691
-0.0133108
-0.0146131
-0.0156696
-0.0167885
-0.0180753
-0.0196038
-0.0214141
-0.0235065
-0.0258441
-0.028354
-0.0309254
-0.0334089
-0.0356196
-0.0373431
-0.0383511
-0.038425
-0.0373538
-0.035046
-0.031498
-0.0268699
-0.0215122
-0.0159684
-0.0109305
-0.00713383
-0.00519048
-0.00536841
-0.00744091
-0.0111012
-0.0165873
-0.0155601
-0.0176469
-0.0189602
-0.0200843
-0.0213311
-0.0228158
-0.0246214
-0.0267961
-0.0293464
-0.0322397
-0.0354027
-0.0387179
-0.0420205
-0.0450981
-0.0476957
-0.0495284
-0.0503021
-0.0497377
-0.0476349
-0.0438998
-0.038618
-0.0321061
-0.0249454
-0.0179667
-0.0121552
-0.00845185
-0.00743591
-0.00904623
-0.0130066
-0.0195978
-0.0205029
-0.0225037
-0.0238086
-0.024982
-0.0263355
-0.0279963
-0.0300597
-0.0325849
-0.0355886
-0.0390452
-0.0428844
-0.046985
-0.0511701
-0.0552034
-0.0587925
-0.0615992
-0.0632576
-0.0634026
-0.0617353
-0.0580434
-0.0523036
-0.0447499
-0.0359446
-0.0268091
-0.0185692
-0.0125511
-0.00977058
-0.0104822
-0.0145554
-0.0223583
-0.0259259
-0.0278223
-0.0290968
-0.0302865
-0.0317023
-0.0334875
-0.0357547
-0.0385791
-0.0419911
-0.0459753
-0.0504671
-0.0553446
-0.0604213
-0.0654414
-0.07008
-0.0739514
-0.0766257
-0.0776542
-0.0766403
-0.073245
-0.067311
-0.0589433
-0.0486168
-0.0372662
-0.0263011
-0.017445
-0.0122614
-0.0115092
-0.0153948
-0.0244756
-0.0317467
-0.0335397
-0.034758
-0.035911
-0.0373133
-0.0391325
-0.0415069
-0.0445345
-0.0482633
-0.0526911
-0.0577607
-0.0633507
-0.0692677
-0.0752391
-0.0809127
-0.085863
-0.0896083
-0.0916383
-0.0914249
-0.0885469
-0.0826953
-0.0738118
-0.0622199
-0.0487725
-0.0349621
-0.0228568
-0.0146297
-0.0117403
-0.0150053
-0.0253658
-0.0378837
-0.0396019
-0.0407327
-0.0417675
-0.0430393
-0.0447548
-0.0470911
-0.0501775
-0.054085
-0.0588263
-0.0643513
-0.0705392
-0.077189
-0.0840134
-0.0906368
-0.0966004
-0.101378
-0.104398
-0.105068
-0.10285
-0.0973011
-0.0881913
-0.0756503
-0.0603612
-0.0437719
-0.0281765
-0.0163375
-0.010573
-0.012643
-0.024192
-0.0442721
-0.0459829
-0.0469829
-0.0477775
-0.0487486
-0.0501667
-0.0522671
-0.0552219
-0.0591298
-0.0640183
-0.0698423
-0.0764779
-0.0837144
-0.0912481
-0.098681
-0.105526
-0.111219
-0.115142
-0.116646
-0.115101
-0.10995
-0.100802
-0.0875786
-0.0707362
-0.0515559
-0.0323961
-0.016496
-0.00710457
-0.00726778
-0.0197797
-0.0508903
-0.05271
-0.0535112
-0.0538817
-0.0543118
-0.0551752
-0.0567906
-0.0593857
-0.0630893
-0.0679407
-0.0738937
-0.0808148
-0.0884771
-0.0965565
-0.10463
-0.112184
-0.118619
-0.123275
-0.125457
-0.124462
-0.119639
-0.110459
-0.0966554
-0.0784376
-0.0568392
-0.0341168
-0.0138027
-4.05755e-05
0.00254778
-0.0104978
-0.0578032
-0.0599032
-0.0603814
-0.0600469
-0.0596041
-0.0595856
-0.0604225
-0.0624074
-0.0656966
-0.070332
-0.0762562
-0.083314
-0.0912536
-0.0997224
-0.108268
-0.116347
-0.123323
-0.128492
-0.131112
-0.130422
-0.125686
-0.116264
-0.101726
-0.0820611
-0.0580241
-0.0316438
-0.00653687
0.0123853
0.0187292
0.00592637
-0.0652502
-0.0678378
-0.0677462
-0.0662691
-0.0645014
-0.0632022
-0.0629375
-0.0640632
-0.0667489
-0.0710215
-0.0767964
-0.0838798
-0.0919838
-0.100718
-0.109592
-0.118019
-0.125324
-0.130763
-0.133535
-0.132814
-0.127783
-0.1177
-0.101995
-0.080472
-0.0536139
-0.0231684
0.0073566
0.0324505
0.0438482
0.0327096
-0.073831
-0.0770517
-0.0758811
-0.0725737
-0.0688759
-0.0658323
-0.0641387
-0.0641879
-0.0661312
-0.069952
-0.0755089
-0.0825577
-0.0907572
-0.0996684
-0.108754
-0.117381
-0.124827
-0.130291
-0.132907
-0.131771
-0.125968
-0.114647
-0.0971053
-0.0729814
-0.0424674
-0.00706391
0.0300381
0.0629011
0.0813388
0.0745014
-0.0849297
-0.0885314
-0.0852182
-0.0790062
-0.0725919
-0.0672947
-0.0638749
-0.0626952
-0.063832
-0.0671811
-0.0725185
-0.0795251
-0.087794
-0.0968282
-0.106037
-0.114736
-0.122147
-0.127402
-0.129561
-0.127625
-0.120551
-0.107359
-0.0871775
-0.0594381
-0.0241414
0.0176624
0.0632755
0.106711
0.135673
0.137889
-0.101704
-0.104047
-0.0963503
-0.0855902
-0.0754785
-0.0674067
-0.0620318
-0.0595654
-0.0599231
-0.0628602
-0.0680358
-0.075037
-0.0833805
-0.0925056
-0.101766
-0.110422
-0.117638
-0.122479
-0.12392
-0.120861
-0.11209
-0.0964747
-0.0729176
-0.0405643
0.000935916
0.0510231
0.107691
0.16629
0.211903
0.231333
-0.131294
-0.126668
-0.110065
-0.0923159
-0.0773039
-0.065948
-0.0584927
-0.0548033
-0.0545197
-0.0571887
-0.0623191
-0.0693893
-0.0778353
-0.087034
-0.0962867
-0.104805
-0.1117
-0.115977
-0.116532
-0.112158
-0.101494
-0.0831822
-0.0558346
-0.0181756
0.0307493
0.0912698
0.162773
0.241669
0.313911
0.366482
-0.189797
-0.159919
-0.126849
-0.0987527
-0.0773898
-0.0623629
-0.0529473
-0.0483332
-0.0477223
-0.0503872
-0.0556661
-0.0629296
-0.071543
-0.0808348
-0.0900688
-0.0984228
-0.104972
-0.108672
-0.108358
-0.102721
-0.0903853
-0.0696635
-0.0388347
0.0039465
0.06062
0.133116
0.223258
0.330352
0.443849
0.570139
-0.32101
-0.199737
-0.138415
-0.0973429
-0.0698699
-0.0524137
-0.0424801
-0.0381793
-0.038171
-0.0414957
-0.0473926
-0.055186
-0.0642213
-0.0738195
-0.0832427
-0.0916686
-0.0981704
-0.101698
-0.101064
-0.0948058
-0.0816741
-0.0597763
-0.0270994
0.0187648
0.0809443
0.163807
0.273822
0.419501
0.607842
0.897367
-0.64835
-0.236196
-0.106982
-0.0623737
-0.03802
-0.0244135
-0.0186428
-0.0180679
-0.0210387
-0.0266729
-0.0343727
-0.0436
-0.0538042
-0.0643869
-0.074673
-0.0838885
-0.0911444
-0.0954263
-0.0956075
-0.0905251
-0.0783303
-0.0574709
-0.0259287
0.0189119
0.0807591
0.165842
0.2866
0.471361
0.777509
1.37137
)
;

boundaryField
{
    movingWall
    {
        type            zeroGradient;
    }
    fixedWalls
    {
        type            zeroGradient;
    }
    frontAndBack
    {
        type            empty;
    }
}


// ************************************************************************* //
