/*--------------------------------*- C++ -*----------------------------------*\
  =========                 |
  \\      /  F ield         | OpenFOAM: The Open Source CFD Toolbox
   \\    /   O peration     | Website:  https://openfoam.org
    \\  /    A nd           | Version:  7
     \\/     M anipulation  |
\*---------------------------------------------------------------------------*/
FoamFile
{
    version     2.0;
    format      ascii;
    class       surfaceScalarField;
    location    "7.1";
    object      phi;
}
// * * * * * * * * * * * * * * * * * * * * * * * * * * * * * * * * * * * * * //

dimensions      [0 3 -1 0 0 0 0];

internalField   nonuniform List<scalar> 
1740
(
7.95464e-07
-7.95506e-07
4.40132e-07
3.5534e-07
-1.47549e-06
1.91563e-06
-4.78534e-06
3.30986e-06
-9.14554e-06
4.3602e-06
-1.42119e-05
5.06635e-06
-1.96949e-05
5.48299e-06
-2.53592e-05
5.66429e-06
-3.10023e-05
5.64316e-06
-3.64312e-05
5.4289e-06
-4.14442e-05
5.01301e-06
-4.58227e-05
4.37853e-06
-4.93332e-05
3.51044e-06
-5.1739e-05
2.40582e-06
-5.28217e-05
1.08268e-06
-5.24074e-05
-4.14331e-07
-5.03968e-05
-2.01053e-06
-4.67948e-05
-3.60206e-06
-4.17315e-05
-5.06329e-06
-3.54723e-05
-6.25915e-06
-2.84109e-05
-7.0614e-06
-2.10433e-05
-7.36766e-06
-1.39235e-05
-7.11971e-06
-7.60611e-06
-6.31743e-06
-2.57973e-06
-5.02638e-06
8.0312e-07
-3.38285e-06
2.39929e-06
-1.59617e-06
2.32506e-06
7.42386e-08
1.1159e-06
1.20916e-06
1.1159e-06
-3.38519e-07
-4.56975e-07
-3.5e-06
3.51683e-06
-1.00373e-05
8.45294e-06
-1.95705e-05
1.2843e-05
-3.14583e-05
1.6248e-05
-4.50013e-05
1.86094e-05
-5.95392e-05
2.00208e-05
-7.44742e-05
2.05993e-05
-8.92536e-05
2.04226e-05
-0.000103339
1.95148e-05
-0.000116184
1.78578e-05
-0.000127222
1.54165e-05
-0.000135881
1.21689e-05
-0.00014161
8.1355e-06
-0.000143931
3.40349e-06
-0.000142495
-1.85009e-06
-0.000137131
-7.37534e-06
-0.000127915
-1.28179e-05
-0.000115202
-1.77757e-05
-9.96392e-05
-2.18223e-05
-8.21422e-05
-2.45584e-05
-6.38406e-05
-2.56692e-05
-4.59812e-05
-2.49792e-05
-2.98027e-05
-2.24959e-05
-1.63931e-05
-1.84359e-05
-6.54347e-06
-1.32325e-05
-6.07368e-07
-7.53226e-06
1.6804e-06
-2.21352e-06
1.26482e-06
1.62474e-06
2.38072e-06
-2.07374e-06
1.61678e-06
-9.03398e-06
1.04771e-05
-2.07254e-05
2.01444e-05
-3.64848e-05
2.86024e-05
-5.54178e-05
3.5181e-05
-7.65756e-05
3.97672e-05
-9.90411e-05
4.24864e-05
-0.000121952
4.35097e-05
-0.000144482
4.29533e-05
-0.000165819
4.0852e-05
-0.00018514
3.71784e-05
-0.00020161
3.18866e-05
-0.000214407
2.49655e-05
-0.000222762
1.64911e-05
-0.000226029
6.66989e-06
-0.000223745
-4.13438e-06
-0.000215716
-1.5404e-05
-0.000202081
-2.64532e-05
-0.000183352
-3.65043e-05
-0.000160434
-4.47405e-05
-0.000134592
-5.03999e-05
-0.000107383
-5.28788e-05
-8.05273e-05
-5.18346e-05
-5.57516e-05
-4.72716e-05
-3.45924e-05
-3.95951e-05
-1.81981e-05
-2.96269e-05
-7.13741e-06
-1.85929e-05
-1.25607e-06
-8.09486e-06
4.83562e-07
-1.14885e-07
2.86429e-06
-3.93209e-06
5.54887e-06
-1.49299e-05
2.14749e-05
-3.19932e-05
3.72077e-05
-5.39772e-05
5.05865e-05
-7.96826e-05
6.08864e-05
-0.000107934
6.80185e-05
-0.000137615
7.21679e-05
-0.000167669
7.35633e-05
-0.000197069
7.23534e-05
-0.000224795
6.85778e-05
-0.000249815
6.21983e-05
-0.000271092
5.31639e-05
-0.000287615
4.14888e-05
-0.000298452
2.73279e-05
-0.00030282
1.10379e-05
-0.000300166
-6.78828e-06
-0.000290252
-2.5318e-05
-0.000273227
-4.34781e-05
-0.000249682
-6.00502e-05
-0.000220667
-7.37554e-05
-0.000187676
-8.33907e-05
-0.000152569
-8.79856e-05
-0.000117441
-8.6963e-05
-8.44322e-05
-8.028e-05
-5.5505e-05
-6.85224e-05
-3.21958e-05
-5.2936e-05
-1.53905e-05
-3.53982e-05
-5.14718e-06
-1.83382e-05
-6.21458e-07
-4.64061e-06
2.24283e-06
-5.73026e-06
1.12791e-05
-2.07417e-05
3.64863e-05
-4.31418e-05
5.96078e-05
-7.12249e-05
7.86696e-05
-0.000103444
9.31051e-05
-0.000138396
0.000102971
-0.0001748
0.000108571
-0.00021145
0.000110214
-0.000247178
0.000108082
-0.000280817
0.000102217
-0.000311184
9.2565e-05
-0.000337091
7.90708e-05
-0.000357379
6.17772e-05
-0.000370976
4.09252e-05
-0.00037697
1.70319e-05
-0.000374695
-9.0638e-06
-0.000363814
-3.61992e-05
-0.000344411
-6.28804e-05
-0.000317057
-8.74045e-05
-0.000282846
-0.000107966
-0.000243401
-0.000122836
-0.000200808
-0.000130578
-0.000157496
-0.000130275
-0.000116028
-0.000121748
-7.88437e-05
-0.000105707
-4.79634e-05
-8.38163e-05
-2.47135e-05
-5.86482e-05
-9.51547e-06
-3.35362e-05
-1.79363e-06
-1.23625e-05
4.49199e-07
-7.40962e-06
1.86888e-05
-2.62555e-05
5.53322e-05
-5.37826e-05
8.71349e-05
-8.77116e-05
0.000112599
-0.000126135
0.000131528
-0.000167429
0.000144265
-0.000210166
0.000151309
-0.000253037
0.000153085
-0.000294777
0.000149822
-0.000334122
0.000141561
-0.000369787
0.00012823
-0.000400474
0.000109758
-0.000424905
8.62074e-05
-0.000441872
5.78927e-05
-0.000450318
2.54774e-05
-0.000449416
-9.96501e-06
-0.000438662
-4.69537e-05
-0.000417979
-8.35634e-05
-0.000387806
-0.000117577
-0.000349173
-0.0001466
-0.000303732
-0.000168277
-0.000253741
-0.000180569
-0.000201947
-0.000182069
-0.000151384
-0.000172311
-0.000105074
-0.000152017
-6.56687e-05
-0.000123222
-3.50932e-05
-8.92237e-05
-1.42746e-05
-5.43548e-05
-3.01013e-06
-2.36269e-05
-2.56094e-06
-8.94747e-06
2.76362e-05
-3.13502e-05
7.77349e-05
-6.36631e-05
0.000119448
-0.000103065
0.000152
-0.000147303
0.000175766
-0.000194549
0.000191511
-0.000243257
0.000200018
-0.000292044
0.000201872
-0.000339593
0.00019737
-0.000384587
0.000186555
-0.000425681
0.000169325
-0.000461502
0.000145579
-0.000490667
0.000115373
-0.000511837
7.90631e-05
-0.00052378
3.74204e-05
-0.000525463
-8.28259e-06
-0.000516122
-5.62947e-05
-0.00049542
-0.000104265
-0.000463547
-0.000149451
-0.000421337
-0.00018881
-0.000370368
-0.000219245
-0.000312989
-0.000237948
-0.000252254
-0.000242805
-0.000191723
-0.000232841
-0.000135132
-0.000208608
-8.59488e-05
-0.000172406
-4.69036e-05
-0.000128269
-1.96031e-05
-8.16553e-05
-4.3235e-06
-3.89065e-05
-6.88444e-06
-1.03234e-05
3.79596e-05
-3.59282e-05
0.00010334
-7.25745e-05
0.000156094
-0.000116958
0.000196384
-0.00016652
0.000225328
-0.000219253
0.000244244
-0.000273524
0.000254288
-0.000327907
0.000256255
-0.00038107
0.000250533
-0.000431686
0.000237171
-0.000478389
0.000216028
-0.000519759
0.000186948
-0.000554332
0.000149945
-0.000580635
0.000105366
-0.000597239
5.40247e-05
-0.000602863
-2.65905e-06
-0.0005964
-6.27572e-05
-0.000577158
-0.000123507
-0.000544942
-0.000181667
-0.000500254
-0.000233498
-0.000444454
-0.000275045
-0.000379871
-0.000302531
-0.000309808
-0.000312868
-0.000238385
-0.000304264
-0.000170184
-0.00027681
-0.000109704
-0.000232885
-6.07416e-05
-0.000177232
-2.58152e-05
-0.000116582
-5.83276e-06
-5.88889e-05
-1.27172e-05
-1.15092e-05
4.94689e-05
-3.98852e-05
0.000131716
-8.03055e-05
0.000196514
-0.000129061
0.000245139
-0.000183333
0.000279601
-0.000240976
0.000301887
-0.000300294
0.000313606
-0.000359855
0.000315816
-0.000418347
0.000309024
-0.000474468
0.000293293
-0.000526869
0.00026843
-0.000574119
0.000234198
-0.000614697
0.000190523
-0.000647011
0.00013768
-0.000669439
7.64525e-05
-0.000680373
8.27526e-06
-0.00067839
-6.47404e-05
-0.000662302
-0.000139595
-0.000631416
-0.000212553
-0.000585742
-0.000279171
-0.000526246
-0.000334542
-0.000455062
-0.000373715
-0.000375618
-0.000392312
-0.000292559
-0.000387323
-0.000211409
-0.00035796
-0.000137935
-0.000306359
-7.73108e-05
-0.000237856
-3.3292e-05
-0.000160601
-7.6577e-06
-8.45232e-05
-2.03749e-05
-1.24697e-05
6.19386e-05
-4.31058e-05
0.000162352
-8.6632e-05
0.00024004
-0.000139021
0.000297529
-0.000197255
0.000337834
-0.000259081
0.000363713
-0.000322773
0.000377298
-0.000386922
0.000379965
-0.000450264
0.000372367
-0.000511563
0.000354591
-0.000569523
0.00032639
-0.000622741
0.000287415
-0.000669676
0.000237458
-0.00070865
0.000176654
-0.000737861
0.000105664
-0.000755425
2.5839e-05
-0.00075951
-6.06548e-05
-0.000748423
-0.000150682
-0.00072086
-0.000240116
-0.000676177
-0.000323853
-0.00061473
-0.000395989
-0.000538218
-0.000450227
-0.000449963
-0.000480567
-0.000354993
-0.000482292
-0.00025979
-0.000453163
-0.000171596
-0.000394553
-9.73388e-05
-0.000312112
-4.24434e-05
-0.000215496
-9.92772e-06
-0.000117039
-3.03026e-05
-1.31667e-05
7.51053e-05
-4.54719e-05
0.000194657
-9.13286e-05
0.000285897
-0.000146485
0.000352685
-0.000207779
0.000399128
-0.000272887
0.000428821
-0.000340078
0.000444489
-0.000407986
0.000447873
-0.000475425
0.000439806
-0.000541255
0.000420421
-0.000604274
0.000389409
-0.000663152
0.000346293
-0.000716383
0.000290689
-0.000762254
0.000222525
-0.000798844
0.000142254
-0.000824043
5.10376e-05
-0.000835636
-4.90619e-05
-0.00083142
-0.000154897
-0.00080942
-0.000262116
-0.000768199
-0.000365074
-0.000707271
-0.000456917
-0.000627587
-0.000529911
-0.000532018
-0.000576136
-0.00042568
-0.000588631
-0.000315877
-0.000562965
-0.000211458
-0.000498973
-0.000121508
-0.000402062
-5.36825e-05
-0.000283321
-1.27776e-05
-0.000157944
-4.30802e-05
-1.35657e-05
8.86709e-05
-4.68783e-05
0.00022797
-9.41938e-05
0.000333213
-0.000151129
0.000409621
-0.000214429
0.000462427
-0.000281728
0.000496121
-0.000351308
0.000514069
-0.000421861
0.000518426
-0.000492302
0.000510247
-0.000561611
0.000489731
-0.000628723
0.00045652
-0.000692432
0.000410003
-0.00075133
0.000349587
-0.000803753
0.000274948
-0.000847752
0.000186253
-0.000881084
8.43702e-05
-0.00090124
-2.89065e-05
-0.000905586
-0.000150552
-0.000891468
-0.000276234
-0.000856568
-0.000399974
-0.000799349
-0.000514136
-0.000719665
-0.000609595
-0.000619476
-0.000676325
-0.000503501
-0.000704606
-0.000379518
-0.000686948
-0.00025794
-0.000620551
-0.000150376
-0.000509626
-6.74021e-05
-0.000366295
-1.63455e-05
-0.000209
-5.94258e-05
-1.36431e-05
0.000102314
-4.72532e-05
0.00026158
-9.50838e-05
0.000381043
-0.000152707
0.000467244
-0.000216819
0.000526539
-0.000285032
0.000564334
-0.000355648
0.000584685
-0.000427427
0.000590205
-0.000499397
0.000582216
-0.000570685
0.000561019
-0.000640394
0.00052623
-0.000707501
0.000477109
-0.00077077
0.000412855
-0.000828683
0.000332861
-0.000879387
0.000236957
-0.00092066
0.000125643
-0.000949803
2.36764e-07
-0.000963962
-0.000136393
-0.000959849
-0.000280346
-0.00093428
-0.000425543
-0.000884523
-0.000563893
-0.000809004
-0.000685114
-0.000708239
-0.00077709
-0.000585881
-0.000826964
-0.000449554
-0.000823275
-0.000310903
-0.000759202
-0.000184279
-0.00063625
-8.39452e-05
-0.000466629
-2.07707e-05
-0.000272175
-8.01965e-05
-1.33943e-05
0.000115708
-4.65812e-05
0.000294767
-9.39535e-05
0.000428416
-0.000151111
0.000524401
-0.000214732
0.00059016
-0.000282419
0.000632021
-0.000352493
0.000654759
-0.000423787
0.000661499
-0.000495446
0.000653875
-0.000566764
0.000632337
-0.000637048
0.000596514
-0.000705506
0.000545567
-0.000771153
0.000478502
-0.000832725
0.000394433
-0.000888601
0.000292833
-0.000936718
0.00017376
-0.00097459
3.81092e-05
-0.000999024
-0.000111959
-0.0010065
-0.000272871
-0.000993048
-0.000438994
-0.000954726
-0.000602215
-0.000888291
-0.00075155
-0.000792292
-0.000873089
-0.000668522
-0.000950734
-0.000523513
-0.000968283
-0.000369414
-0.000913301
-0.000223204
-0.00078246
-0.000103563
-0.00058627
-2.61885e-05
-0.00034955
-0.000106385
-1.28418e-05
0.00012855
-4.49276e-05
0.000326852
-9.08995e-05
0.000474387
-0.000146431
0.000579933
-0.000208202
0.00065193
-0.000273804
0.000697623
-0.00034158
0.000722535
-0.000410431
0.000730351
-0.000479628
0.000723072
-0.000548645
0.000701354
-0.000617023
0.000664891
-0.000684249
0.000612793
-0.000749661
0.000543914
-0.000812352
0.000457125
-0.000871076
0.000351556
-0.000924141
0.000226825
-0.000969312
8.32797e-05
-0.00100362
-7.76533e-05
-0.0010234
-0.000253089
-0.00102419
-0.000438202
-0.00100099
-0.000625417
-0.000948829
-0.00080371
-0.000863904
-0.000958013
-0.000745332
-0.00106931
-0.000597384
-0.00111623
-0.000431495
-0.00107919
-0.000266626
-0.000947329
-0.00012636
-0.000726536
-3.27228e-05
-0.000443187
-0.000139108
-1.20429e-05
0.000140593
-4.24634e-05
0.000357273
-8.62037e-05
0.000518128
-0.00013902
0.00063275
-0.000197591
0.000710501
-0.000259497
0.000759529
-0.000323105
0.000786143
-0.000387388
0.000794634
-0.000451753
0.000787437
-0.000515871
0.000765472
-0.00057954
0.00072856
-0.000642569
0.000675823
-0.000704679
0.000606023
-0.000765403
0.000517849
-0.000823987
0.00041014
-0.000879263
0.000282101
-0.000929498
0.000133515
-0.000972143
-3.50081e-05
-0.0010038
-0.00022143
-0.00101985
-0.000422154
-0.00101457
-0.000630701
-0.000981457
-0.00083682
-0.000914231
-0.00102524
-0.000808683
-0.00117485
-0.000665565
-0.00125935
-0.000493932
-0.00125082
-0.000313353
-0.00112791
-0.000152223
-0.000887666
-4.0476e-05
-0.000554933
-0.000179584
-1.10985e-05
0.000151692
-3.94904e-05
0.000385665
-8.03763e-05
0.000559014
-0.000129548
0.000681921
-0.000183658
0.000764611
-0.00024028
0.000816151
-0.000297815
0.000843677
-0.000355333
0.000852152
-0.000412396
0.0008445
-0.000468895
0.000821972
-0.000524915
0.00078458
-0.000580618
0.000731525
-0.000636146
0.000661551
-0.000691531
0.000573234
-0.000746588
0.000465197
-0.000800784
0.000336298
-0.000853069
0.0001858
-0.000901546
1.34695e-05
-0.000943403
-0.000179573
-0.000974294
-0.000391264
-0.000988283
-0.000616712
-0.000977811
-0.000847292
-0.00093434
-0.00106871
-0.000850059
-0.00125914
-0.000721104
-0.00138831
-0.000552214
-0.00141971
-0.000361374
-0.00131875
-0.000180757
-0.00106828
-4.95218e-05
-0.000686169
-0.000229106
-1.01636e-05
0.000161855
-3.64719e-05
0.000411973
-7.42019e-05
0.000596744
-0.000119053
0.000726772
-0.000167611
0.000813169
-0.00021745
0.00086599
-0.000267048
0.000893276
-0.00031562
0.000900724
-0.000362929
0.00089181
-0.000409126
0.000868169
-0.00045461
0.000830065
-0.000499921
0.000776836
-0.000545646
0.000707276
-0.000592335
0.000619923
-0.000640404
0.000513266
-0.000690002
0.000385896
-0.000740825
0.000236622
-0.000791937
6.45823e-05
-0.000841143
-0.000130368
-0.000884945
-0.000347462
-0.000917754
-0.000583903
-0.000931644
-0.000833402
-0.000916464
-0.00108389
-0.000861041
-0.00131456
-0.000756267
-0.00149308
-0.000600677
-0.0015753
-0.000407792
-0.00151163
-0.000211232
-0.00126484
-5.99084e-05
-0.000837492
-0.000289014
-9.4653e-06
0.00017132
-3.40761e-05
0.000436584
-6.87953e-05
0.000631463
-0.000108998
0.000766975
-0.000151137
0.000855308
-0.000192829
0.000907682
-0.000232715
0.000933161
-0.000270242
0.000938251
-0.000305457
0.000927024
-0.000338824
0.000901537
-0.000371099
0.000862339
-0.000403215
0.000808952
-0.000436209
0.000740271
-0.000471139
0.000654852
-0.000508998
0.000551125
-0.000550605
0.000427503
-0.000596432
0.000282449
-0.000646384
0.000114534
-0.000699337
-7.74148e-05
-0.00075279
-0.000294009
-0.000802099
-0.000534593
-0.000839805
-0.000795696
-0.00085514
-0.00106856
-0.000834407
-0.00133529
-0.000763342
-0.00156414
-0.000632877
-0.00170577
-0.00044885
-0.00169566
-0.000242553
-0.00147114
-7.1686e-05
-0.00100836
-0.0003607
-9.33906e-06
0.000180659
-3.32509e-05
0.000460496
-6.56821e-05
0.000663894
-0.00010132
0.000802613
-0.000136416
0.000890405
-0.000168727
0.000939993
-0.000197208
0.000961642
-0.000221689
0.000962732
-0.000242615
0.00094795
-0.00026085
0.000919772
-0.000277546
0.000879034
-0.000294046
0.000825453
-0.000311817
0.000758042
-0.000332384
0.000675419
-0.000357259
0.000576001
-0.000387851
0.000458094
-0.000425324
0.000319923
-0.000470403
0.000159613
-0.000523027
-2.47916e-05
-0.000581906
-0.000235129
-0.000643786
-0.000472714
-0.000702486
-0.000736996
-0.000747823
-0.00102322
-0.000764959
-0.00131815
-0.000735435
-0.00159367
-0.000642076
-0.00179913
-0.000480051
-0.00185768
-0.000273257
-0.00167793
-8.49668e-05
-0.00119665
-0.000445667
-1.0301e-05
0.00019096
-3.53538e-05
0.000485549
-6.69182e-05
0.000695458
-9.84854e-05
0.00083418
-0.000126088
0.000918008
-0.000147821
0.000961725
-0.000163203
0.000977024
-0.000172671
0.0009722
-0.000177227
0.000952506
-0.000178232
0.000920777
-0.000177282
0.000878085
-0.000176131
0.000824302
-0.000176642
0.000758552
-0.000180737
0.000679515
-0.000190355
0.000585618
-0.000207381
0.000475121
-0.000233547
0.000346089
-0.000270277
0.000196343
-0.000318472
2.34039e-05
-0.000378084
-0.000175517
-0.000447508
-0.000403289
-0.000522495
-0.000662009
-0.000594651
-0.000951063
-0.00064974
-0.00126307
-0.000666922
-0.00157649
-0.000621635
-0.00184441
-0.00049626
-0.00198306
-0.000301474
-0.00187272
-0.000100018
-0.00139811
-0.000545684
-1.3191e-05
0.000204151
-4.2371e-05
0.000514729
-7.52483e-05
0.000728336
-0.000103514
0.000862446
-0.000123116
0.00093761
-0.000132874
0.000971483
-0.000133259
0.00097741
-0.00012561
0.00096455
-0.000111685
0.000938581
-9.34452e-05
0.000902538
-7.2971e-05
0.00085761
-5.24074e-05
0.000803738
-3.39593e-05
0.000740104
-1.98691e-05
0.000665425
-1.23843e-05
0.000578133
-1.37104e-05
0.000476447
-2.59889e-05
0.000358367
-5.12225e-05
0.000221576
-9.11045e-05
6.32859e-05
-0.000146755
-0.000119867
-0.000218238
-0.000331806
-0.000303622
-0.000576625
-0.000397287
-0.000857398
-0.000487421
-0.00117293
-0.000553294
-0.00151061
-0.000565027
-0.00183268
-0.000491609
-0.00205648
-0.000324736
-0.00203959
-0.000117334
-0.00160551
-0.000663019
-1.94424e-05
0.000223594
-5.72458e-05
0.000552532
-9.42314e-05
0.000765321
-0.000119793
0.000888007
-0.000130307
0.000948124
-0.00012601
0.000967185
-0.000108887
0.000960287
-8.15511e-05
0.000937215
-4.67258e-05
0.000903755
-7.06925e-06
0.000862881
3.48701e-05
0.000815671
7.65901e-05
0.000762018
0.00011563
0.000701064
0.00014954
0.000631515
0.000175871
0.000551802
0.000192175
0.000460144
0.000196021
0.00035452
0.000185028
0.00023257
0.000156888
9.14262e-05
0.000109488
-7.24674e-05
4.12207e-05
-0.000263539
-4.83452e-05
-0.000487059
-0.000156984
-0.000748759
-0.000276904
-0.00105301
-0.000390237
-0.00139728
-0.000465251
-0.00175767
-0.000458944
-0.00206278
-0.000339417
-0.00215912
-0.000137553
-0.00180737
-0.000800571
-3.15563e-05
0.00025515
-8.42378e-05
0.000605214
-0.000128021
0.000809105
-0.000150187
0.000910173
-0.000148842
0.00094678
-0.000126794
0.000945137
-8.83001e-05
0.000921793
-3.76607e-05
0.000886575
2.12567e-05
0.000844838
8.50728e-05
0.000799065
0.000150778
0.000749966
0.000215623
0.000697173
0.000276997
0.00063969
0.000332356
0.000576156
0.00037917
0.000504988
0.000414889
0.000424424
0.000436916
0.000332493
0.000442575
0.000226911
0.000429073
0.000104928
0.000393488
-3.68818e-05
0.000332917
-0.000202968
0.000244737
-0.000398879
0.000127773
-0.000631795
-1.50919e-05
-0.000910147
-0.000171985
-0.00124039
-0.000313501
-0.00161615
-0.000388542
-0.00198774
-0.00033944
-0.00220822
-0.00016083
-0.00198598
-0.000961401
-5.38386e-05
0.000308989
-0.000128885
0.00068026
-0.000179763
0.000859983
-0.000193968
0.000924379
-0.000174096
0.000926907
-0.000127291
0.000898332
-6.09879e-05
0.00085549
1.8465e-05
0.000807122
0.000105999
0.000757303
0.000197584
0.000707481
0.000289917
0.000657633
0.000380151
0.00060694
0.000465686
0.000554155
0.000544032
0.00049781
0.000612708
0.000436312
0.000669172
0.00036796
0.000710755
0.00029091
0.00073459
0.000203077
0.000737514
0.000102003
0.000715934
-1.53019e-05
0.000665983
-0.000153017
0.000583231
-0.000316128
0.000463433
-0.000511998
0.000304267
-0.00075098
0.000110421
-0.00104654
-9.66751e-05
-0.00140906
-0.000265631
-0.00181879
-0.000313549
-0.0021603
-0.000185024
-0.00211451
-0.00114642
-9.31193e-05
0.000402108
-0.000195798
0.000782939
-0.000245419
0.000909603
-0.000237654
0.000916614
-0.000184675
0.000873927
-0.000100257
0.000813914
4.25498e-06
0.000750978
0.000120479
0.000690898
0.00024244
0.000635343
0.000365847
0.000584073
0.000487471
0.000536009
0.000604689
0.000489721
0.000715183
0.000443661
0.000816735
0.000396258
0.000907092
0.000345955
0.000983866
0.000291186
0.00104444
0.000230332
0.00108589
0.000161632
0.00110481
8.30788e-05
0.00109709
-7.57867e-06
0.00105829
-0.000114211
0.000982607
-0.000240449
0.000863528
-0.000392919
0.00069432
-0.000581772
0.000471291
-0.000823514
0.000203878
-0.00114164
-6.44911e-05
-0.00155042
-0.000240212
-0.00198458
-0.000202528
-0.00215219
-0.00134895
-0.000157543
0.000559651
-0.000277055
0.000902451
-0.000293471
0.000926019
-0.000230363
0.000853507
-0.000116882
0.000760446
2.51704e-05
0.000671862
0.000181329
0.00059482
0.000342499
0.000529728
0.000503093
0.00047475
0.000659609
0.000427556
0.000809699
0.00038592
0.000951568
0.000347852
0.00108363
0.000311601
0.00120427
0.000275617
0.00131173
0.000238498
0.00140398
0.000198937
0.00147865
0.000155657
0.00153294
0.000107339
0.00156345
5.25693e-05
0.00156594
-1.0067e-05
0.00153555
-8.38178e-05
0.00146584
-0.00017074
0.00134891
-0.000275992
0.00117495
-0.000407814
0.000933033
-0.000581593
0.00061731
-0.000825921
0.000249353
-0.00118246
-7.81617e-05
-0.00165707
-0.000193801
-0.00203655
-0.00154275
-0.00024366
0.000803311
-0.000303144
0.000961936
-0.000204693
0.000827568
-2.61187e-05
0.000674932
0.000183864
0.000550463
0.000401442
0.000454284
0.000614939
0.000381323
0.000818869
0.000325798
0.00101096
0.00028266
0.00119043
0.000248085
0.00135706
0.00021929
0.0015107
0.000194215
0.00165101
0.000171285
0.00177738
0.00014925
0.0018888
0.000127082
0.00198384
0.000103898
0.0020606
7.88912e-05
0.00211665
5.12889e-05
0.00214889
2.03289e-05
0.00215383
-1.50051e-05
0.00212612
-5.61048e-05
0.00205974
-0.000104362
0.00194649
-0.000162742
0.00177514
-0.000236463
0.0015299
-0.00033636
0.00119049
-0.000486505
0.000745926
-0.000737897
0.000253382
-0.00116453
-8.12138e-05
-0.00170196
-0.00162397
-0.000194019
0.00099733
1.88536e-05
0.000749063
0.000373635
0.000472786
0.00071444
0.000334127
0.00101982
0.00024508
0.00128958
0.000184525
0.00152716
0.000143746
0.00173701
0.000115952
0.0019234
9.62673e-05
0.00208985
8.16373e-05
0.00223896
7.01769e-05
0.00237251
6.06651e-05
0.00249153
5.2268e-05
0.00259638
4.43901e-05
0.00268688
3.65853e-05
0.00276228
2.84998e-05
0.00282134
1.98349e-05
0.00286226
1.03607e-05
0.00288236
2.32655e-07
0.00287986
-1.25081e-05
0.00284971
-2.59476e-05
0.00278733
-4.19872e-05
0.00268587
-6.12759e-05
0.00253509
-8.56839e-05
0.00231827
-0.000119541
0.00200609
-0.000174322
0.00155144
-0.00028325
0.000927249
-0.000540337
0.000263759
-0.00103847
-0.00136021
0.00099733
0.00174639
0.00221918
0.00255331
0.00279839
0.00298291
0.00312666
0.00324261
0.00333888
0.00342051
0.00349069
0.00355136
0.00360362
0.00364801
0.0036846
0.0037131
0.00373293
0.00374329
0.00374353
0.00373102
0.00370507
0.00366308
0.00360181
0.00351612
0.00339658
0.00322226
0.00293901
0.00239867
0.00136021
)
;

boundaryField
{
    movingWall
    {
        type            calculated;
        value           uniform 0;
    }
    fixedWalls
    {
        type            calculated;
        value           uniform 0;
    }
    frontAndBack
    {
        type            empty;
        value           nonuniform 0();
    }
}


// ************************************************************************* //
