/*--------------------------------*- C++ -*----------------------------------*\
  =========                 |
  \\      /  F ield         | OpenFOAM: The Open Source CFD Toolbox
   \\    /   O peration     | Website:  https://openfoam.org
    \\  /    A nd           | Version:  7
     \\/     M anipulation  |
\*---------------------------------------------------------------------------*/
FoamFile
{
    version     2.0;
    format      ascii;
    class       volScalarField;
    location    "8.2";
    object      p;
}
// * * * * * * * * * * * * * * * * * * * * * * * * * * * * * * * * * * * * * //

dimensions      [0 2 -2 0 0 0 0];

internalField   nonuniform List<scalar> 
900
(
1.36776e-06
-0.000344851
-0.00091317
-0.00152486
-0.00207115
-0.0024878
-0.00274163
-0.00281652
-0.00270284
-0.00239284
-0.0018803
-0.00116291
-0.000246239
0.000852039
0.00209845
0.0034417
0.00481289
0.006129
0.00729949
0.00823588
0.00886326
0.00913199
0.00902767
0.00857711
0.00784948
0.00695025
0.00601086
0.00518946
0.00464623
0.00450714
0.000346848
-1.31202e-05
-0.000448123
-0.000897944
-0.00129807
-0.00160236
-0.00178479
-0.00183009
-0.0017274
-0.00146788
-0.00104479
-0.000455347
0.000296373
0.00119613
0.00221654
0.00331531
0.0044375
0.00551429
0.00647179
0.00723806
0.00775279
0.00797713
0.00790178
0.00755133
0.00698408
0.00628698
0.00556554
0.00492281
0.00449257
0.00436568
0.000938633
0.000407524
-4.25481e-05
-0.000446147
-0.000789571
-0.00104533
-0.00119842
-0.0012395
-0.00115978
-0.000950215
-0.00060241
-0.000110738
0.000524685
0.00129467
0.00217801
0.0031401
0.00413133
0.00509041
0.00594925
0.00664033
0.0071062
0.00730916
0.00723928
0.00691846
0.00639958
0.00576037
0.00509329
0.00449245
0.00405154
0.00383875
0.0015998
0.000836922
0.000307325
-0.000107707
-0.000441924
-0.000686115
-0.000837893
-0.000895859
-0.00085446
-0.000704429
-0.000434667
-3.49964e-05
0.000500327
0.00116875
0.0019558
0.00283261
0.00375428
0.00466208
0.00548798
0.00616216
0.006623
0.00682768
0.00676105
0.00644054
0.00591519
0.00525881
0.00455963
0.00390855
0.00337865
0.00300574
0.00218683
0.00117466
0.000542385
8.97719e-05
-0.000261577
-0.000519268
-0.000693061
-0.000789262
-0.000805176
-0.000730599
-0.000550625
-0.000249118
0.000187052
0.000763334
0.00147289
0.00229287
0.00318272
0.00408413
0.00492604
0.00563211
0.00613147
0.00637079
0.00632495
0.00600351
0.00545071
0.00473854
0.00395636
0.00319893
0.00252933
0.00194367
0.00257836
0.00131952
0.00057581
6.95176e-05
-0.000319281
-0.000613324
-0.000833172
-0.000991635
-0.00108779
-0.00110937
-0.0010364
-0.000845361
-0.000514164
-2.77496e-05
0.000616116
0.00140171
0.0022931
0.00323166
0.00414141
0.00493595
0.00553017
0.00585415
0.00586644
0.00556347
0.00498171
0.00419168
0.00328832
0.0023781
0.00152196
0.000683731
0.00266823
0.00117823
0.000323473
-0.00024587
-0.000688166
-0.00103979
-0.00133056
-0.00157827
-0.00178241
-0.0019274
-0.00198684
-0.00192828
-0.00171887
-0.00133187
-0.000753718
9.14686e-06
0.000927755
0.0019437
0.00297559
0.00392437
0.00468565
0.00516577
0.00529857
0.00505925
0.00447065
0.00360002
0.00255105
0.0014499
0.000364378
-0.000769126
0.00236263
0.000665051
-0.000294512
-0.000932006
-0.00144127
-0.00187114
-0.00225927
-0.00262702
-0.00297303
-0.00327718
-0.00350537
-0.00361464
-0.00355927
-0.00329812
-0.002803
-0.00206735
-0.00110826
1.8023e-05
0.00122639
0.002404
0.00342256
0.0041564
0.00450365
0.00440639
0.00386387
0.00293462
0.00173232
0.000410581
-0.000946878
-0.00242863
0.00157833
-0.0002974
-0.00135225
-0.0020612
-0.00265035
-0.00318008
-0.00369475
-0.00421817
-0.00474721
-0.00525635
-0.00570274
-0.00603136
-0.00618132
-0.00609376
-0.00572082
-0.00503565
-0.00404439
-0.00278855
-0.00135413
0.000132986
0.00151718
0.00263198
0.00332604
0.00349174
0.00308875
0.00215591
0.000814477
-0.000747281
-0.00242064
-0.00431838
0.000243931
-0.00177554
-0.00291426
-0.00369761
-0.00438022
-0.00503321
-0.00570686
-0.0064268
-0.00718776
-0.00795849
-0.00868679
-0.0093043
-0.0097327
-0.00989162
-0.00970828
-0.00912901
-0.00813736
-0.00675421
-0.00505777
-0.00318192
-0.00131015
0.000342454
0.00155938
0.00216141
0.00204484
0.00120925
-0.000225322
-0.0020309
-0.00406423
-0.00646266
-0.00169707
-0.00382148
-0.00503134
-0.00589213
-0.0066825
-0.00748365
-0.00835137
-0.00931301
-0.0103614
-0.0114601
-0.0125474
-0.013541
-0.0143432
-0.0148485
-0.0149535
-0.0145706
-0.0136455
-0.0121705
-0.0102027
-0.00787387
-0.00539057
-0.00302071
-0.00106129
0.000210536
0.000594541
1.9425e-05
-0.00141563
-0.00344322
-0.0058763
-0.00887709
-0.0042825
-0.00646953
-0.00773668
-0.00867759
-0.00958973
-0.0105638
-0.011661
-0.0129111
-0.0143059
-0.0158047
-0.0173375
-0.0188083
-0.0200986
-0.0210746
-0.0215971
-0.0215356
-0.0207873
-0.0193006
-0.0170945
-0.0142822
-0.0110814
-0.00780938
-0.00485456
-0.00261951
-0.00144295
-0.00151411
-0.00279099
-0.00497821
-0.00783837
-0.0115583
-0.00752785
-0.00973319
-0.0110426
-0.0120646
-0.0131098
-0.0142781
-0.0156366
-0.0172182
-0.0190158
-0.0209862
-0.0230528
-0.0251068
-0.0270095
-0.028597
-0.0296899
-0.030107
-0.029686
-0.0283188
-0.0259631
-0.0226918
-0.0187123
-0.014377
-0.0101655
-0.00662818
-0.00428887
-0.00351816
-0.00439069
-0.00661453
-0.00990424
-0.0144707
-0.0114237
-0.0136033
-0.0149384
-0.0160386
-0.0172221
-0.0185975
-0.020239
-0.0221846
-0.0244301
-0.0269327
-0.0296117
-0.0323477
-0.034983
-0.0373238
-0.0391485
-0.0402217
-0.0403162
-0.03924
-0.0368828
-0.0332483
-0.0285027
-0.0230044
-0.0173074
-0.0121171
-0.00818457
-0.00613701
-0.00625274
-0.00830606
-0.0119858
-0.0175298
-0.0159351
-0.0180483
-0.0193905
-0.0205594
-0.021875
-0.0234556
-0.0253842
-0.0277062
-0.0304234
-0.0334961
-0.0368426
-0.040336
-0.0438019
-0.0470186
-0.0497235
-0.0516255
-0.0524263
-0.0518491
-0.0496923
-0.0458659
-0.0404603
-0.0337985
-0.0264704
-0.0193187
-0.0133444
-0.00950625
-0.00839869
-0.00996689
-0.0139334
-0.0205788
-0.0210029
-0.0230169
-0.0243456
-0.025563
-0.0269874
-0.0287488
-0.0309421
-0.0336234
-0.0368037
-0.0404497
-0.0444818
-0.0487686
-0.0531223
-0.0572969
-0.0609921
-0.0638645
-0.0655452
-0.0656689
-0.0639417
-0.0601546
-0.0542894
-0.0465851
-0.0376101
-0.0282946
-0.0198772
-0.0137018
-0.0108031
-0.0114479
-0.01551
-0.0233586
-0.0265492
-0.0284442
-0.0297358
-0.0309667
-0.0324527
-0.0343398
-0.0367398
-0.0397246
-0.0433181
-0.0474966
-0.0521851
-0.0572502
-0.0624941
-0.0676502
-0.0723857
-0.0763105
-0.078992
-0.0799788
-0.0789005
-0.0754051
-0.0693454
-0.0608326
-0.0503455
-0.038823
-0.0276826
-0.0186615
-0.0133423
-0.0125013
-0.0163561
-0.0254687
-0.0324851
-0.0342612
-0.0354887
-0.0366775
-0.0381458
-0.0400638
-0.0425694
-0.0457566
-0.0496668
-0.0542886
-0.0595531
-0.0653266
-0.0714029
-0.0774984
-0.0832528
-0.0882367
-0.0919701
-0.0939512
-0.0936425
-0.09065
-0.0846693
-0.0756475
-0.0639106
-0.0503122
-0.0363461
-0.0240869
-0.015722
-0.0127301
-0.0159452
-0.0263186
-0.0387228
-0.0404088
-0.0415392
-0.0426017
-0.0439314
-0.045738
-0.0481988
-0.0514393
-0.0555235
-0.060454
-0.066168
-0.0725309
-0.0793281
-0.0862603
-0.0929435
-0.0989159
-0.103654
-0.106593
-0.107149
-0.104799
-0.0991111
-0.0898656
-0.0771952
-0.0617818
-0.0450687
-0.0293482
-0.017388
-0.0115207
-0.0135269
-0.025066
-0.0451923
-0.0468562
-0.0478451
-0.0486563
-0.0496727
-0.0511695
-0.0533829
-0.0564822
-0.0605587
-0.0656288
-0.0716338
-0.0784344
-0.085805
-0.093429
-0.1009
-0.107727
-0.113353
-0.117164
-0.118525
-0.116824
-0.111518
-0.102228
-0.088884
-0.0719404
-0.0526719
-0.033427
-0.017439
-0.00796126
-0.00805593
-0.0205342
-0.0518674
-0.0536269
-0.0544052
-0.0547782
-0.0552369
-0.0561618
-0.0578749
-0.0606018
-0.0644641
-0.069489
-0.0756153
-0.0826926
-0.0904777
-0.0986322
-0.106724
-0.114234
-0.120584
-0.125096
-0.127105
-0.125926
-0.120924
-0.111588
-0.0976596
-0.0793529
-0.0576946
-0.0349278
-0.0145688
-0.000752076
0.00189715
-0.0110935
-0.0588091
-0.0608378
-0.0612808
-0.0609315
-0.0604963
-0.0605182
-0.0614346
-0.0635376
-0.0669759
-0.0717786
-0.0778712
-0.0850798
-0.0931348
-0.101667
-0.110213
-0.118218
-0.125137
-0.130114
-0.13253
-0.131627
-0.126686
-0.117085
-0.102408
-0.0826521
-0.0585693
-0.0321753
-0.00706529
0.0118708
0.0182553
0.00552178
-0.0662523
-0.0687612
-0.0686217
-0.0671093
-0.0653245
-0.0640419
-0.0638378
-0.0650689
-0.067897
-0.0723341
-0.0782781
-0.0855126
-0.0937322
-0.10253
-0.111403
-0.119759
-0.126943
-0.132194
-0.134746
-0.133789
-0.128527
-0.118239
-0.102373
-0.0807452
-0.0538355
-0.023391
0.00710573
0.0321731
0.0435821
0.0325166
-0.0747923
-0.0779315
-0.0766997
-0.0733336
-0.0695916
-0.0665404
-0.0648903
-0.0650358
-0.0671196
-0.071108
-0.0768391
-0.0840457
-0.0923661
-0.101344
-0.11043
-0.118987
-0.126297
-0.131567
-0.133949
-0.132559
-0.126504
-0.114953
-0.0972272
-0.0729824
-0.0423827
-0.00698415
0.0300743
0.0628798
0.0812972
0.074524
-0.0858086
-0.0893317
-0.085943
-0.0796465
-0.0731605
-0.0678344
-0.0644461
-0.0633598
-0.0646415
-0.0681675
-0.07369
-0.0808658
-0.0892657
-0.0983747
-0.107591
-0.116223
-0.123498
-0.128557
-0.130474
-0.128271
-0.120931
-0.107491
-0.0871025
-0.0592118
-0.0238237
0.0179951
0.0635716
0.106938
0.135853
0.138112
-0.102458
-0.10473
-0.0969434
-0.0860727
-0.0758654
-0.06775
-0.0624027
-0.0600343
-0.0605478
-0.0636754
-0.0690508
-0.0762353
-0.0847226
-0.0939338
-0.10321
-0.111808
-0.118894
-0.123541
-0.124742
-0.12141
-0.112367
-0.0964943
-0.0727148
-0.0401918
0.00141543
0.0515406
0.108182
0.166726
0.212277
0.231722
-0.131893
-0.127209
-0.110501
-0.0926192
-0.0774954
-0.0660907
-0.058667
-0.0550866
-0.0549723
-0.0578462
-0.0631903
-0.0704567
-0.0790584
-0.0883545
-0.0976344
-0.106105
-0.11288
-0.116972
-0.117294
-0.112655
-0.101717
-0.0831453
-0.055571
-0.0177339
0.0313096
0.0918854
0.163386
0.242236
0.314422
0.366993
-0.190248
-0.160329
-0.127147
-0.0989007
-0.0774177
-0.0623433
-0.0529663
-0.0484704
-0.0480382
-0.0509168
-0.0564175
-0.0638849
-0.0726622
-0.0820604
-0.091332
-0.09965
-0.106091
-0.109621
-0.109087
-0.103201
-0.0905967
-0.069621
-0.0385694
0.00438981
0.0611863
0.133747
0.223903
0.330972
0.444428
0.570719
-0.321383
-0.200085
-0.138656
-0.097413
-0.0698114
-0.0523044
-0.0424077
-0.0382239
-0.0383933
-0.0419316
-0.0480514
-0.0560522
-0.0652574
-0.0749708
-0.0844433
-0.0928471
-0.0992569
-0.102629
-0.101788
-0.0952979
-0.0819129
-0.0597702
-0.0268757
0.0191651
0.0814704
0.164405
0.274445
0.420117
0.60844
0.897957
-0.648768
-0.236577
-0.107233
-0.0624472
-0.037949
-0.0242726
-0.0185197
-0.0180454
-0.0211823
-0.0270244
-0.0349479
-0.0443892
-0.0547753
-0.0654893
-0.0758435
-0.0850574
-0.092242
-0.0963897
-0.0963858
-0.0910722
-0.0786336
-0.057534
-0.0257721
0.0192524
0.0812363
0.166404
0.287201
0.471965
0.778101
1.37195
)
;

boundaryField
{
    movingWall
    {
        type            zeroGradient;
    }
    fixedWalls
    {
        type            zeroGradient;
    }
    frontAndBack
    {
        type            empty;
    }
}


// ************************************************************************* //
