/*--------------------------------*- C++ -*----------------------------------*\
  =========                 |
  \\      /  F ield         | OpenFOAM: The Open Source CFD Toolbox
   \\    /   O peration     | Website:  https://openfoam.org
    \\  /    A nd           | Version:  7
     \\/     M anipulation  |
\*---------------------------------------------------------------------------*/
FoamFile
{
    version     2.0;
    format      ascii;
    class       volVectorField;
    location    "8.2";
    object      U;
}
// * * * * * * * * * * * * * * * * * * * * * * * * * * * * * * * * * * * * * //

dimensions      [0 1 -1 0 0 0 0];

internalField   nonuniform List<vector> 
900
(
(0.000161317 -0.000160379 0)
(0.000284373 -6.80429e-05 0)
(-3.83743e-05 9.87668e-05 0)
(-0.000814467 0.000245472 0)
(-0.00195205 0.000351469 0)
(-0.00334749 0.000419525 0)
(-0.00490722 0.000458909 0)
(-0.00655454 0.00047772 0)
(-0.00822615 0.000480512 0)
(-0.00986479 0.000468392 0)
(-0.0114127 0.000439975 0)
(-0.0128075 0.00039259 0)
(-0.0139815 0.000323512 0)
(-0.0148639 0.00023115 0)
(-0.0153858 0.000116099 0)
(-0.0154876 -1.81248e-05 0)
(-0.0151276 -0.000165068 0)
(-0.0142913 -0.000314307 0)
(-0.0129985 -0.000452986 0)
(-0.0113087 -0.000566923 0)
(-0.0093212 -0.000642408 0)
(-0.00716992 -0.000668357 0)
(-0.00501296 -0.000638335 0)
(-0.00301688 -0.000552044 0)
(-0.00133748 -0.000416095 0)
(-0.000100184 -0.00024472 0)
(0.000614795 -5.93406e-05 0)
(0.000796007 0.000114186 0)
(0.000548516 0.000219854 0)
(0.000169944 0.000168797 0)
(7.63467e-05 -0.000291907 0)
(-0.000303352 0.000300779 0)
(-0.00172841 0.00113068 0)
(-0.00411145 0.00187664 0)
(-0.0072885 0.00244972 0)
(-0.0110585 0.00284308 0)
(-0.0152182 0.00307946 0)
(-0.0195821 0.00318398 0)
(-0.0239826 0.00317241 0)
(-0.0282604 0.0030491 0)
(-0.0322558 0.00280968 0)
(-0.0358033 0.00244588 0)
(-0.0387326 0.00195106 0)
(-0.0408747 0.00132558 0)
(-0.0420743 0.000581308 0)
(-0.0422057 -0.000255328 0)
(-0.0411898 -0.00114154 0)
(-0.0390117 -0.00201974 0)
(-0.0357359 -0.00282142 0)
(-0.0315127 -0.00347364 0)
(-0.0265772 -0.00390798 0)
(-0.0212373 -0.00407057 0)
(-0.0158507 -0.00393175 0)
(-0.0107914 -0.00349345 0)
(-0.00640983 -0.0027933 0)
(-0.00298821 -0.00190625 0)
(-0.000697557 -0.000944136 0)
(0.000431654 -5.52719e-05 0)
(0.000583589 0.000548396 0)
(0.000227892 0.000545919 0)
(-0.000106373 3.59135e-05 0)
(-0.00123707 0.00174795 0)
(-0.00400836 0.00377753 0)
(-0.00809629 0.00558845 0)
(-0.0132464 0.00700507 0)
(-0.0191933 0.00799695 0)
(-0.0256601 0.00859409 0)
(-0.0323839 0.00883782 0)
(-0.0391176 0.0087559 0)
(-0.0456206 0.00835623 0)
(-0.0516513 0.00763132 0)
(-0.0569632 0.00656843 0)
(-0.0613084 0.00516167 0)
(-0.0644484 0.00342389 0)
(-0.06617 0.0013963 0)
(-0.0663064 -0.000845139 0)
(-0.0647586 -0.00318722 0)
(-0.0615181 -0.00548475 0)
(-0.0566825 -0.00756915 0)
(-0.0504645 -0.00926424 0)
(-0.0431899 -0.0104066 0)
(-0.0352821 -0.0108684 0)
(-0.0272334 -0.0105799 0)
(-0.0195618 -0.00954724 0)
(-0.0127582 -0.00786296 0)
(-0.00722685 -0.00570892 0)
(-0.0032277 -0.00335448 0)
(-0.000827199 -0.00115579 0)
(0.000153537 0.00044567 0)
(0.000164288 0.000844844 0)
(-0.00029981 0.000911875 0)
(-0.00224277 0.00437059 0)
(-0.00645223 0.00799625 0)
(-0.0122903 0.0111471 0)
(-0.0193784 0.0135991 0)
(-0.0273859 0.0153122 0)
(-0.0359764 0.0163272 0)
(-0.0448293 0.0167001 0)
(-0.0536386 0.0164683 0)
(-0.0621035 0.0156415 0)
(-0.0699203 0.014209 0)
(-0.0767814 0.0121562 0)
(-0.0823813 0.00948362 0)
(-0.0864294 0.00622589 0)
(-0.0886693 0.00246646 0)
(-0.0889016 -0.001653 0)
(-0.0870085 -0.00593139 0)
(-0.0829773 -0.0101143 0)
(-0.076919 -0.0139106 0)
(-0.0690792 -0.0170175 0)
(-0.0598388 -0.0191534 0)
(-0.049699 -0.0200962 0)
(-0.0392519 -0.0197204 0)
(-0.0291325 -0.0180295 0)
(-0.0199569 -0.0151754 0)
(-0.0122517 -0.0114651 0)
(-0.00638212 -0.00735346 0)
(-0.00248703 -0.00342974 0)
(-0.000449098 -0.00040054 0)
(6.80971e-05 0.000856332 0)
(-0.000482379 0.00233376 0)
(-0.00322883 0.00819535 0)
(-0.00887823 0.0138017 0)
(-0.0164502 0.0185172 0)
(-0.0254226 0.0221316 0)
(-0.0353938 0.0246276 0)
(-0.0459737 0.0260703 0)
(-0.0567962 0.026534 0)
(-0.0675136 0.0260651 0)
(-0.0777819 0.0246733 0)
(-0.0872538 0.0223447 0)
(-0.0955774 0.019064 0)
(-0.102404 0.014842 0)
(-0.107401 0.00974011 0)
(-0.110275 0.00389077 0)
(-0.110792 -0.00249114 0)
(-0.108803 -0.00910685 0)
(-0.104273 -0.0155816 0)
(-0.0972998 -0.0214873 0)
(-0.0881311 -0.0263767 0)
(-0.0771708 -0.0298288 0)
(-0.0649712 -0.0315025 0)
(-0.0522056 -0.0311935 0)
(-0.03962 -0.0288832 0)
(-0.0279646 -0.0247739 0)
(-0.0179107 -0.0193002 0)
(-0.00996123 -0.0131169 0)
(-0.00436768 -0.00706705 0)
(-0.00111357 -0.00213718 0)
(-2.71198e-05 0.000524542 0)
(-0.000649134 0.00427418 0)
(-0.00415742 0.0131925 0)
(-0.0111904 0.0211667 0)
(-0.0204285 0.0276611 0)
(-0.031201 0.0325447 0)
(-0.0430337 0.0358632 0)
(-0.0554866 0.0377271 0)
(-0.0681582 0.0382382 0)
(-0.0806719 0.0374538 0)
(-0.0926564 0.0353839 0)
(-0.103736 0.0320096 0)
(-0.113528 0.027315 0)
(-0.121651 0.0213201 0)
(-0.127739 0.0141135 0)
(-0.131456 0.00587588 0)
(-0.132527 -0.0031045 0)
(-0.130757 -0.0124296 0)
(-0.126059 -0.0215995 0)
(-0.11849 -0.0300392 0)
(-0.108264 -0.0371388 0)
(-0.095777 -0.0423116 0)
(-0.081608 -0.0450646 0)
(-0.0664992 -0.045077 0)
(-0.0513123 -0.0422749 0)
(-0.0369539 -0.0368865 0)
(-0.0242775 -0.0294662 0)
(-0.0139707 -0.0208785 0)
(-0.00644335 -0.0122438 0)
(-0.00181813 -0.00485582 0)
(-0.000115817 -0.000158093 0)
(-0.000799571 0.0066946 0)
(-0.0050096 0.0192915 0)
(-0.0133291 0.0300069 0)
(-0.0241223 0.0384851 0)
(-0.0365771 0.0447358 0)
(-0.0501496 0.0489103 0)
(-0.0643559 0.0511896 0)
(-0.0787682 0.0517155 0)
(-0.0929926 0.0505616 0)
(-0.106644 0.0477382 0)
(-0.119331 0.0432205 0)
(-0.130653 0.0369879 0)
(-0.140204 0.0290656 0)
(-0.147587 0.0195626 0)
(-0.152423 0.00870028 0)
(-0.154382 -0.00316789 0)
(-0.153201 -0.0155511 0)
(-0.148721 -0.0278261 0)
(-0.140916 -0.0392646 0)
(-0.129935 -0.0490768 0)
(-0.116129 -0.0564786 0)
(-0.100074 -0.0607807 0)
(-0.0825657 -0.0614932 0)
(-0.0645865 -0.0584331 0)
(-0.0472265 -0.0518123 0)
(-0.0315692 -0.0422836 0)
(-0.0185467 -0.0309279 0)
(-0.00878475 -0.0191742 0)
(-0.00258947 -0.00867023 0)
(-0.000203198 -0.00120817 0)
(-0.000932742 0.00954903 0)
(-0.00576975 0.0263952 0)
(-0.0152458 0.0401995 0)
(-0.027445 0.0508551 0)
(-0.0414282 0.0585685 0)
(-0.0565901 0.063637 0)
(-0.0724108 0.0663384 0)
(-0.0884449 0.0668693 0)
(-0.104292 0.0653263 0)
(-0.119565 0.0617215 0)
(-0.13387 0.0560215 0)
(-0.146799 0.0481959 0)
(-0.15793 0.0382659 0)
(-0.166836 0.0263485 0)
(-0.173095 0.0126911 0)
(-0.176312 -0.00230416 0)
(-0.176139 -0.0180658 0)
(-0.172315 -0.0338595 0)
(-0.164703 -0.0488024 0)
(-0.153343 -0.061909 0)
(-0.138499 -0.0721637 0)
(-0.120704 -0.0786267 0)
(-0.100781 -0.0805687 0)
(-0.0798276 -0.077621 0)
(-0.0591386 -0.0699114 0)
(-0.0400801 -0.0581509 0)
(-0.0239006 -0.0436353 0)
(-0.011517 -0.0281425 0)
(-0.0034792 -0.0137437 0)
(-0.000299355 -0.00266609 0)
(-0.00104612 0.0127835 0)
(-0.00641993 0.0343826 0)
(-0.0168922 0.0515886 0)
(-0.0303113 0.0646015 0)
(-0.045631 0.073873 0)
(-0.0621956 0.0798831 0)
(-0.079458 0.083032 0)
(-0.0969646 0.0835866 0)
(-0.114319 0.081674 0)
(-0.131142 0.0773107 0)
(-0.147048 0.0704518 0)
(-0.161633 0.0610495 0)
(-0.17447 0.0491091 0)
(-0.185106 0.0347392 0)
(-0.193079 0.0181917 0)
(-0.197921 -0.000105219 0)
(-0.199194 -0.0195238 0)
(-0.196511 -0.0392352 0)
(-0.189595 -0.0582106 0)
(-0.178335 -0.0752598 0)
(-0.162858 -0.0891038 0)
(-0.143602 -0.0984927 0)
(-0.12137 -0.102372 0)
(-0.0973426 -0.100084 0)
(-0.0730291 -0.0915716 0)
(-0.0501248 -0.0775322 0)
(-0.0302778 -0.0594584 0)
(-0.0147924 -0.0395212 0)
(-0.00455087 -0.0203087 0)
(-0.000416278 -0.00460438 0)
(-0.00113597 0.0163339 0)
(-0.00693972 0.0431086 0)
(-0.0182176 0.063985 0)
(-0.0326337 0.0795169 0)
(-0.0490578 0.0904401 0)
(-0.0667955 0.0974492 0)
(-0.0852818 0.101089 0)
(-0.104063 0.101714 0)
(-0.122754 0.0994888 0)
(-0.140996 0.0944381 0)
(-0.158422 0.086503 0)
(-0.174643 0.0756103 0)
(-0.189236 0.0617359 0)
(-0.201738 0.0449602 0)
(-0.21165 0.0255156 0)
(-0.218442 0.00382687 0)
(-0.221576 -0.019456 0)
(-0.22054 -0.0434343 0)
(-0.214888 -0.0669536 0)
(-0.204324 -0.0886238 0)
(-0.188782 -0.106881 0)
(-0.168536 -0.120109 0)
(-0.144295 -0.126832 0)
(-0.117267 -0.125974 0)
(-0.0891463 -0.117149 0)
(-0.0619874 -0.100922 0)
(-0.0379252 -0.0789308 0)
(-0.0187735 -0.0537755 0)
(-0.00587372 -0.0286766 0)
(-0.00056682 -0.00713179 0)
(-0.00119807 0.0201244 0)
(-0.00730823 0.0524029 0)
(-0.0191721 0.0771665 0)
(-0.0343266 0.095355 0)
(-0.0515818 0.108017 0)
(-0.0702154 0.116087 0)
(-0.0896529 0.120276 0)
(-0.109446 0.121036 0)
(-0.129231 0.118585 0)
(-0.148674 0.112957 0)
(-0.167439 0.104079 0)
(-0.185165 0.091845 0)
(-0.201446 0.0761883 0)
(-0.215824 0.0571416 0)
(-0.227782 0.0348913 0)
(-0.236743 0.00982619 0)
(-0.242086 -0.0174174 0)
(-0.243171 -0.0459109 0)
(-0.239385 -0.0744105 0)
(-0.230214 -0.10135 0)
(-0.215351 -0.124879 0)
(-0.194826 -0.142977 0)
(-0.169152 -0.153651 0)
(-0.139462 -0.155255 0)
(-0.107565 -0.146885 0)
(-0.075866 -0.128789 0)
(-0.0470618 -0.102633 0)
(-0.0236213 -0.0714552 0)
(-0.00751979 -0.0392386 0)
(-0.000764679 -0.0103951 0)
(-0.00122865 0.0240682 0)
(-0.00750732 0.0620723 0)
(-0.0197128 0.0908799 0)
(-0.0353153 0.111832 0)
(-0.0530883 0.126307 0)
(-0.0722921 0.135496 0)
(-0.0923475 0.140291 0)
(-0.112818 0.141263 0)
(-0.133362 0.138687 0)
(-0.153682 0.132615 0)
(-0.17348 0.122962 0)
(-0.192435 0.109585 0)
(-0.210177 0.0923637 0)
(-0.226273 0.0712667 0)
(-0.240212 0.0464096 0)
(-0.251401 0.018113 0)
(-0.259162 -0.0130399 0)
(-0.262756 -0.0461409 0)
(-0.261412 -0.0799103 0)
(-0.254393 -0.112654 0)
(-0.241109 -0.142269 0)
(-0.221264 -0.166316 0)
(-0.195061 -0.182218 0)
(-0.163409 -0.187599 0)
(-0.128098 -0.180802 0)
(-0.0918098 -0.161487 0)
(-0.0578447 -0.131138 0)
(-0.0294823 -0.093173 0)
(-0.00956202 -0.0524626 0)
(-0.00102481 -0.0145802 0)
(-0.00122521 0.0280695 0)
(-0.00752545 0.0719054 0)
(-0.0198115 0.104847 0)
(-0.0355473 0.128631 0)
(-0.0534916 0.144969 0)
(-0.0728937 0.155318 0)
(-0.093174 0.160768 0)
(-0.113908 0.162016 0)
(-0.134783 0.159412 0)
(-0.155537 0.153035 0)
(-0.175922 0.142789 0)
(-0.195669 0.128496 0)
(-0.214463 0.109979 0)
(-0.231918 0.0871288 0)
(-0.247565 0.059973 0)
(-0.260829 0.0287352 0)
(-0.271022 -0.0060952 0)
(-0.27735 -0.0436893 0)
(-0.278921 -0.0827952 0)
(-0.274794 -0.12167 0)
(-0.264079 -0.158026 0)
(-0.246094 -0.18905 0)
(-0.220603 -0.211547 0)
(-0.188115 -0.222281 0)
(-0.150196 -0.218577 0)
(-0.109644 -0.199145 0)
(-0.0703265 -0.164935 0)
(-0.0364729 -0.119565 0)
(-0.0120721 -0.0688818 0)
(-0.00136394 -0.0199123 0)
(-0.00118751 0.0320285 0)
(-0.00736177 0.0816822 0)
(-0.0194639 0.118774 0)
(-0.0350072 0.145411 0)
(-0.0527535 0.163626 0)
(-0.0719455 0.175147 0)
(-0.092004 0.181269 0)
(-0.112518 0.182832 0)
(-0.133201 0.180273 0)
(-0.153835 0.173707 0)
(-0.174225 0.163042 0)
(-0.194167 0.148068 0)
(-0.213417 0.128552 0)
(-0.231667 0.104305 0)
(-0.248519 0.0752564 0)
(-0.263465 0.0415115 0)
(-0.275865 0.00342993 0)
(-0.284922 -0.0382922 0)
(-0.289687 -0.0825102 0)
(-0.289068 -0.127534 0)
(-0.281896 -0.171006 0)
(-0.267073 -0.209838 0)
(-0.243821 -0.240261 0)
(-0.21206 -0.258102 0)
(-0.172866 -0.259414 0)
(-0.128888 -0.24152 0)
(-0.0844022 -0.204313 0)
(-0.0446583 -0.15123 0)
(-0.015117 -0.089075 0)
(-0.00180109 -0.0266558 0)
(-0.00111839 0.0358483 0)
(-0.00703035 0.0911876 0)
(-0.0186988 0.132368 0)
(-0.033731 0.161821 0)
(-0.050904 0.181879 0)
(-0.0694552 0.194536 0)
(-0.0888057 0.201302 0)
(-0.108557 0.203172 0)
(-0.128452 0.200683 0)
(-0.148315 0.194007 0)
(-0.168013 0.183064 0)
(-0.187417 0.167626 0)
(-0.20637 0.147411 0)
(-0.224664 0.12216 0)
(-0.242009 0.0916998 0)
(-0.258009 0.0560098 0)
(-0.272122 0.0152938 0)
(-0.283627 -0.0299288 0)
(-0.291594 -0.0787032 0)
(-0.294862 -0.129509 0)
(-0.292047 -0.180068 0)
(-0.28166 -0.227182 0)
(-0.262331 -0.266642 0)
(-0.233222 -0.293365 0)
(-0.194631 -0.301946 0)
(-0.148685 -0.287855 0)
(-0.0997484 -0.249223 0)
(-0.0540236 -0.188639 0)
(-0.0187534 -0.113635 0)
(-0.0023579 -0.0351116 0)
(-0.00102453 0.039444 0)
(-0.00656423 0.10023 0)
(-0.0175879 0.145359 0)
(-0.0318212 0.177521 0)
(-0.0480605 0.199324 0)
(-0.0655372 0.213018 0)
(-0.0836731 0.220333 0)
(-0.102084 0.222438 0)
(-0.120541 0.219985 0)
(-0.13892 0.213218 0)
(-0.157152 0.202088 0)
(-0.175192 0.186364 0)
(-0.192984 0.165734 0)
(-0.21044 0.139878 0)
(-0.227404 0.108534 0)
(-0.243629 0.0715582 0)
(-0.258727 0.0289882 0)
(-0.272113 -0.0188696 0)
(-0.28297 -0.071317 0)
(-0.290168 -0.127118 0)
(-0.292218 -0.184242 0)
(-0.287325 -0.2396 0)
(-0.273552 -0.288778 0)
(-0.249211 -0.325945 0)
(-0.213559 -0.3442 0)
(-0.167758 -0.336746 0)
(-0.115766 -0.299114 0)
(-0.0644405 -0.232025 0)
(-0.0230207 -0.14312 0)
(-0.00305917 -0.0456117 0)
(-0.000917291 0.0427543 0)
(-0.0060197 0.108665 0)
(-0.0162546 0.157523 0)
(-0.0294603 0.192208 0)
(-0.0444452 0.215572 0)
(-0.0604325 0.23012 0)
(-0.0768482 0.237813 0)
(-0.0933278 0.240003 0)
(-0.10968 0.237479 0)
(-0.125835 0.230573 0)
(-0.141796 0.219287 0)
(-0.157611 0.203407 0)
(-0.173335 0.182608 0)
(-0.189011 0.15653 0)
(-0.204635 0.124842 0)
(-0.220134 0.0872907 0)
(-0.23531 0.0437569 0)
(-0.249771 -0.00567867 0)
(-0.262888 -0.0606474 0)
(-0.273673 -0.12026 0)
(-0.280665 -0.182904 0)
(-0.281917 -0.245848 0)
(-0.275042 -0.304791 0)
(-0.257522 -0.353474 0)
(-0.227397 -0.383671 0)
(-0.184437 -0.386084 0)
(-0.131539 -0.352786 0)
(-0.0756334 -0.281235 0)
(-0.0279348 -0.177993 0)
(-0.00393403 -0.0585124 0)
(-0.000813831 0.0457553 0)
(-0.00548161 0.116421 0)
(-0.0148852 0.168715 0)
(-0.0269245 0.20564 0)
(-0.0403984 0.230277 0)
(-0.0545207 0.245395 0)
(-0.0687313 0.253197 0)
(-0.0827004 0.255237 0)
(-0.0962882 0.252458 0)
(-0.109491 0.245299 0)
(-0.122397 0.233828 0)
(-0.13515 0.217868 0)
(-0.147926 0.197102 0)
(-0.1609 0.171153 0)
(-0.174229 0.13964 0)
(-0.188017 0.102224 0)
(-0.202272 0.0586447 0)
(-0.216854 0.00876384 0)
(-0.231354 -0.0473629 0)
(-0.244995 -0.10928 0)
(-0.256524 -0.17592 0)
(-0.264023 -0.245141 0)
(-0.264864 -0.313116 0)
(-0.255855 -0.373621 0)
(-0.233804 -0.417521 0)
(-0.196757 -0.433096 0)
(-0.14584 -0.408274 0)
(-0.0871534 -0.335576 0)
(-0.0334853 -0.218541 0)
(-0.00501926 -0.0741853 0)
(-0.000739465 0.0484776 0)
(-0.00507209 0.123537 0)
(-0.0137435 0.178902 0)
(-0.0245993 0.217664 0)
(-0.0363909 0.243154 0)
(-0.0483253 0.25843 0)
(-0.0598786 0.265964 0)
(-0.0707828 0.267532 0)
(-0.0809754 0.264243 0)
(-0.09054 0.256657 0)
(-0.0996612 0.244924 0)
(-0.108591 0.228918 0)
(-0.117622 0.208348 0)
(-0.127066 0.182836 0)
(-0.13723 0.151977 0)
(-0.148392 0.115368 0)
(-0.160759 0.0726345 0)
(-0.17442 0.0234452 0)
(-0.189233 -0.0324119 0)
(-0.204727 -0.0949513 0)
(-0.219939 -0.163712 0)
(-0.233187 -0.23732 0)
(-0.241879 -0.312771 0)
(-0.242438 -0.38442 0)
(-0.230625 -0.442888 0)
(-0.202632 -0.474523 0)
(-0.157168 -0.462819 0)
(-0.098365 -0.393672 0)
(-0.0396408 -0.264781 0)
(-0.00636739 -0.0930139 0)
(-0.000733082 0.0510309 0)
(-0.00496723 0.130201 0)
(-0.0131941 0.188202 0)
(-0.023 0.228244 0)
(-0.0330329 0.253991 0)
(-0.042509 0.268859 0)
(-0.0509817 0.275627 0)
(-0.0582918 0.27631 0)
(-0.0644937 0.272196 0)
(-0.0697873 0.26397 0)
(-0.074472 0.25187 0)
(-0.0789143 0.235829 0)
(-0.083525 0.215588 0)
(-0.0887398 0.190785 0)
(-0.0950011 0.161007 0)
(-0.102738 0.125815 0)
(-0.112338 0.0847516 0)
(-0.12409 0.0373269 0)
(-0.138113 -0.0169166 0)
(-0.154261 -0.0783864 0)
(-0.171946 -0.147224 0)
(-0.189896 -0.222913 0)
(-0.205843 -0.303537 0)
(-0.216218 -0.384574 0)
(-0.216121 -0.457249 0)
(-0.200039 -0.506905 0)
(-0.163837 -0.512955 0)
(-0.108443 -0.453333 0)
(-0.0463635 -0.316356 0)
(-0.00806317 -0.115403 0)
(-0.000859438 0.0536431 0)
(-0.00542945 0.136808 0)
(-0.0137422 0.196921 0)
(-0.0227989 0.23747 0)
(-0.031079 0.262649 0)
(-0.0378528 0.27635 0)
(-0.0428243 0.281717 0)
(-0.0460137 0.281021 0)
(-0.0476483 0.275725 0)
(-0.0480821 0.26663 0)
(-0.0477494 0.254054 0)
(-0.0471374 0.237984 0)
(-0.0467691 0.218197 0)
(-0.0471887 0.19435 0)
(-0.048948 0.16603 0)
(-0.0525962 0.13278 0)
(-0.0586733 0.0940954 0)
(-0.0676311 0.0493514 0)
(-0.0798018 -0.00207676 0)
(-0.0953502 -0.060907 0)
(-0.114098 -0.127803 0)
(-0.135296 -0.20307 0)
(-0.157255 -0.286006 0)
(-0.176848 -0.373652 0)
(-0.189065 -0.45874 0)
(-0.187145 -0.526925 0)
(-0.164039 -0.554681 0)
(-0.116362 -0.511474 0)
(-0.0536253 -0.372398 0)
(-0.0102521 -0.141812 0)
(-0.00123552 0.0567285 0)
(-0.00686822 0.144038 0)
(-0.0160944 0.205584 0)
(-0.0248552 0.245549 0)
(-0.0314132 0.269021 0)
(-0.0351977 0.280563 0)
(-0.0361847 0.28375 0)
(-0.0346752 0.28111 0)
(-0.0311409 0.274255 0)
(-0.0261316 0.264073 0)
(-0.0202361 0.250937 0)
(-0.0140639 0.234869 0)
(-0.00823854 0.215672 0)
(-0.00339088 0.193016 0)
(-0.000151681 0.166491 0)
(0.000853114 0.13562 0)
(-0.00105455 0.0998568 0)
(-0.00644098 0.0585568 0)
(-0.0157798 0.0109489 0)
(-0.0295219 -0.0438922 0)
(-0.0478793 -0.107009 0)
(-0.0706662 -0.179385 0)
(-0.0969454 -0.261478 0)
(-0.124424 -0.352125 0)
(-0.148625 -0.44637 0)
(-0.162286 -0.531722 0)
(-0.15583 -0.583693 0)
(-0.120826 -0.56407 0)
(-0.0613899 -0.431359 0)
(-0.0131792 -0.172821 0)
(-0.00208395 0.061016 0)
(-0.0099451 0.152957 0)
(-0.0212361 0.214938 0)
(-0.0302132 0.252737 0)
(-0.0349567 0.272946 0)
(-0.0352736 0.281061 0)
(-0.0316033 0.281146 0)
(-0.0246615 0.275952 0)
(-0.0152451 0.267175 0)
(-0.0041393 0.255733 0)
(0.00790017 0.242001 0)
(0.0201489 0.226007 0)
(0.0319043 0.207556 0)
(0.0424711 0.186321 0)
(0.0511628 0.161887 0)
(0.0572933 0.133766 0)
(0.060158 0.101383 0)
(0.0590909 0.0641163 0)
(0.0534525 0.021115 0)
(0.0426018 -0.0286473 0)
(0.025988 -0.0864258 0)
(0.00325759 -0.153658 0)
(-0.0254689 -0.231732 0)
(-0.0590133 -0.321242 0)
(-0.0940416 -0.420064 0)
(-0.12376 -0.519108 0)
(-0.136973 -0.595603 0)
(-0.12009 -0.606109 0)
(-0.0694874 -0.49072 0)
(-0.0172136 -0.209203 0)
(-0.00383477 0.0677881 0)
(-0.0157345 0.165129 0)
(-0.0304708 0.225868 0)
(-0.0399483 0.25915 0)
(-0.0423307 0.273996 0)
(-0.0382163 0.277123 0)
(-0.0287896 0.273075 0)
(-0.0153413 0.264723 0)
(0.000927982 0.253729 0)
(0.0189696 0.240938 0)
(0.0378681 0.226661 0)
(0.0568055 0.210878 0)
(0.075025 0.193366 0)
(0.091802 0.173783 0)
(0.106428 0.151708 0)
(0.118194 0.126655 0)
(0.12638 0.0980629 0)
(0.130256 0.0652868 0)
(0.129067 0.0275037 0)
(0.122011 -0.0163134 0)
(0.10826 -0.0674756 0)
(0.0869988 -0.127619 0)
(0.0575807 -0.198722 0)
(0.0199608 -0.282799 0)
(-0.0241336 -0.380587 0)
(-0.0694432 -0.487698 0)
(-0.10459 -0.58613 0)
(-0.11156 -0.631516 0)
(-0.0772313 -0.546478 0)
(-0.0227737 -0.251854 0)
(-0.0072995 0.0793134 0)
(-0.0259069 0.182672 0)
(-0.0452118 0.239068 0)
(-0.0544903 0.264316 0)
(-0.0528018 0.271054 0)
(-0.0422477 0.267389 0)
(-0.0251289 0.258181 0)
(-0.00347119 0.246189 0)
(0.0210745 0.232848 0)
(0.0472073 0.218788 0)
(0.0738881 0.204161 0)
(0.10025 0.188842 0)
(0.125529 0.172546 0)
(0.149013 0.1549 0)
(0.170012 0.135474 0)
(0.187828 0.113791 0)
(0.20174 0.0893173 0)
(0.210982 0.0614355 0)
(0.214723 0.0293927 0)
(0.212023 -0.00775624 0)
(0.201841 -0.0512434 0)
(0.182996 -0.102671 0)
(0.154205 -0.164218 0)
(0.114351 -0.23877 0)
(0.0632866 -0.329468 0)
(0.00375936 -0.437115 0)
(-0.0545329 -0.551384 0)
(-0.0910196 -0.63304 0)
(-0.0825555 -0.592316 0)
(-0.0299503 -0.301455 0)
(-0.0138804 0.0995356 0)
(-0.0426675 0.207891 0)
(-0.0657944 0.254106 0)
(-0.0713591 0.26619 0)
(-0.0613252 0.261496 0)
(-0.0403554 0.249264 0)
(-0.0122317 0.234174 0)
(0.0202262 0.218453 0)
(0.0549836 0.203018 0)
(0.0905961 0.188106 0)
(0.12601 0.173602 0)
(0.160409 0.159217 0)
(0.193104 0.144578 0)
(0.223463 0.129271 0)
(0.250867 0.112864 0)
(0.274675 0.0949024 0)
(0.294194 0.0749004 0)
(0.30866 0.0523126 0)
(0.317201 0.0264963 0)
(0.318772 -0.00334797 0)
(0.312193 -0.0382537 0)
(0.296023 -0.0796243 0)
(0.268525 -0.129495 0)
(0.227738 -0.19097 0)
(0.171834 -0.268698 0)
(0.100547 -0.368077 0)
(0.0196346 -0.488448 0)
(-0.0511823 -0.602365 0)
(-0.0804968 -0.618751 0)
(-0.0375176 -0.35834 0)
(-0.0254047 0.135049 0)
(-0.0671164 0.241009 0)
(-0.0867233 0.266516 0)
(-0.0784288 0.258748 0)
(-0.0511366 0.239549 0)
(-0.0130145 0.217957 0)
(0.030785 0.197389 0)
(0.077023 0.178867 0)
(0.123678 0.16243 0)
(0.169498 0.147739 0)
(0.21368 0.134336 0)
(0.255652 0.12174 0)
(0.294946 0.109487 0)
(0.331118 0.0971373 0)
(0.363703 0.0842764 0)
(0.392177 0.0704996 0)
(0.415932 0.0553973 0)
(0.434257 0.0385314 0)
(0.446294 0.0194032 0)
(0.450977 -0.00260008 0)
(0.447069 -0.0281955 0)
(0.432982 -0.0584929 0)
(0.406731 -0.0951389 0)
(0.365831 -0.140864 0)
(0.30721 -0.20055 0)
(0.227693 -0.282438 0)
(0.127794 -0.395554 0)
(0.0206724 -0.530993 0)
(-0.0609888 -0.612558 0)
(-0.0408536 -0.421804 0)
(-0.0413054 0.197219 0)
(-0.0902286 0.272632 0)
(-0.0798388 0.259255 0)
(-0.0362039 0.226402 0)
(0.021729 0.193597 0)
(0.0842373 0.165606 0)
(0.146734 0.142914 0)
(0.207006 0.124692 0)
(0.264057 0.109888 0)
(0.317504 0.0975733 0)
(0.367228 0.0870007 0)
(0.413184 0.0775692 0)
(0.455309 0.0687901 0)
(0.493471 0.0602571 0)
(0.527443 0.0516217 0)
(0.556891 0.0425718 0)
(0.581354 0.0328137 0)
(0.600242 0.0220511 0)
(0.612776 0.00995966 0)
(0.618043 -0.00386929 0)
(0.614852 -0.0198233 0)
(0.601608 -0.0386166 0)
(0.576345 -0.0613427 0)
(0.536413 -0.0899281 0)
(0.478092 -0.128237 0)
(0.396085 -0.184452 0)
(0.285079 -0.273855 0)
(0.14597 -0.410561 0)
(-0.00339298 -0.554019 0)
(-0.0253867 -0.47752 0)
(-0.0341434 0.293709 0)
(-0.047938 0.272551 0)
(0.0536892 0.199502 0)
(0.156765 0.149683 0)
(0.249737 0.114913 0)
(0.332051 0.0900752 0)
(0.404622 0.0724712 0)
(0.468622 0.0598706 0)
(0.525314 0.0505674 0)
(0.575818 0.0434137 0)
(0.620999 0.037657 0)
(0.661467 0.0327857 0)
(0.697606 0.0284357 0)
(0.729609 0.0243371 0)
(0.757497 0.02028 0)
(0.781141 0.0160928 0)
(0.800265 0.0116249 0)
(0.81446 0.00673812 0)
(0.823094 0.00128766 0)
(0.825558 -0.00478628 0)
(0.820898 -0.0118191 0)
(0.80781 -0.0200819 0)
(0.784681 -0.0300382 0)
(0.749197 -0.0426193 0)
(0.69776 -0.059873 0)
(0.624272 -0.0868842 0)
(0.518468 -0.137176 0)
(0.365131 -0.240274 0)
(0.144127 -0.406974 0)
(0.0588665 -0.458305 0)
(0.303207 0.180898 0)
(0.382404 0.144223 0)
(0.560581 0.0910682 0)
(0.686327 0.0589433 0)
(0.769046 0.0393394 0)
(0.828756 0.0268771 0)
(0.874799 0.0189919 0)
(0.911528 0.0140059 0)
(0.941643 0.0107725 0)
(0.966948 0.0085782 0)
(0.988587 0.00699887 0)
(1.00726 0.00577921 0)
(1.02337 0.00476028 0)
(1.03715 0.00383936 0)
(1.04868 0.00294692 0)
(1.05791 0.00203286 0)
(1.06475 0.00105695 0)
(1.069 -1.1136e-05 0)
(1.07042 -0.00121198 0)
(1.06864 -0.0024472 0)
(1.06314 -0.00391735 0)
(1.05345 -0.00565993 0)
(1.03878 -0.00774969 0)
(1.01794 -0.0103939 0)
(0.988891 -0.0140917 0)
(0.9475 -0.020187 0)
(0.883965 -0.0325725 0)
(0.776346 -0.0637493 0)
(0.54482 -0.139463 0)
(0.38249 -0.201736 0)
)
;

boundaryField
{
    movingWall
    {
        type            fixedValue;
        value           uniform (1.2 0 0);
    }
    fixedWalls
    {
        type            noSlip;
    }
    frontAndBack
    {
        type            empty;
    }
}


// ************************************************************************* //
