/*--------------------------------*- C++ -*----------------------------------*\
  =========                 |
  \\      /  F ield         | OpenFOAM: The Open Source CFD Toolbox
   \\    /   O peration     | Website:  https://openfoam.org
    \\  /    A nd           | Version:  7
     \\/     M anipulation  |
\*---------------------------------------------------------------------------*/
FoamFile
{
    version     2.0;
    format      ascii;
    class       volScalarField;
    location    "0.5";
    object      p;
}
// * * * * * * * * * * * * * * * * * * * * * * * * * * * * * * * * * * * * * //

dimensions      [0 2 -2 0 0 0 0];

internalField   nonuniform List<scalar> 
900
(
2.59935e-08
-0.000280397
-0.000473879
-0.000537194
-0.00042751
-0.00013388
0.000337174
0.000974062
0.00176428
0.00269491
0.00375221
0.00492118
0.00618524
0.00752605
0.00892347
0.0103556
0.0117991
0.013229
0.0146196
0.0159442
0.017176
0.0182886
0.0192561
0.0200536
0.0206584
0.0210515
0.0212232
0.0211871
0.0209938
0.0206966
0.000276568
-6.11332e-06
-0.000145328
-0.000152539
-1.39782e-05
0.000283405
0.000740147
0.00135046
0.00210576
0.00299551
0.00400736
0.0051272
0.00633911
0.00762537
0.00896643
0.010341
0.0117265
0.0130985
0.0144322
0.0157017
0.0168814
0.017946
0.0188716
0.0196364
0.0202221
0.0206161
0.0208162
0.0208382
0.0207026
0.020404
0.000473706
0.000125404
-1.88723e-05
-1.34361e-05
0.000133038
0.000430768
0.000881128
0.00147976
0.00221959
0.00309131
0.00408347
0.00518263
0.0063734
0.00763845
0.00895861
0.0103129
0.0116788
0.0130325
0.0143489
0.0156026
0.016768
0.0178201
0.0187355
0.0194932
0.0200759
0.0204721
0.0206803
0.0207137
0.0205704
0.0202017
0.000546238
0.000120804
-4.91763e-05
-4.91563e-05
9.60397e-05
0.000392916
0.000841577
0.00143742
0.00217381
0.00304204
0.00403124
0.00512846
0.00631868
0.00758485
0.00890796
0.0102671
0.0116398
0.0130018
0.0143281
0.0155926
0.0167694
0.017833
0.0187593
0.0195269
0.0201179
0.0205197
0.0207291
0.0207558
0.0205828
0.0201319
0.00044573
-4.14823e-05
-0.000237287
-0.000246865
-0.00010501
0.000192213
0.000643609
0.00124402
0.00198685
0.00286369
0.00386401
0.00497517
0.00618237
0.00746869
0.00881513
0.0102007
0.0116024
0.0129958
0.0143549
0.0156531
0.0168631
0.0179583
0.0189134
0.0197055
0.0203153
0.0207284
0.0209398
0.0209569
0.0207544
0.0202366
0.00015126
-0.000385285
-0.000604576
-0.000624222
-0.000484952
-0.000184304
0.00027552
0.000888785
0.00164875
0.0025471
0.00357346
0.00471533
0.00595801
0.00728455
0.00867577
0.0101103
0.0115647
0.0130136
0.01443
0.0157858
0.0170522
0.0182006
0.0192036
0.0200363
0.020677
0.0211092
0.0213263
0.0213348
0.0211052
0.0205314
-0.000344168
-0.000924994
-0.00116631
-0.00119507
-0.00105607
-0.000747664
-0.000272795
0.00036226
0.00115055
0.00208372
0.00315145
0.00434126
0.0056384
0.0070258
0.00848394
0.00999093
0.0115225
0.0130523
0.0145516
0.0159907
0.0173382
0.0185632
0.0196352
0.0205262
0.0212118
0.0216728
0.021901
0.0219031
0.0216473
0.0210203
-0.00104614
-0.00167227
-0.00193552
-0.00197198
-0.00183018
-0.00150896
-0.00101189
-0.000345746
0.000482276
0.00146374
0.00258828
0.00384339
0.00521422
0.00668343
0.00823113
0.00983473
0.0114691
0.0131062
0.0147158
0.0162655
0.0177212
0.0190484
0.0202129
0.0211826
0.0219293
0.0224307
0.0226769
0.0226751
0.0223923
0.0217075
-0.00196355
-0.00264034
-0.00292685
-0.00296978
-0.00282188
-0.00248246
-0.0019557
-0.00124893
-0.000369593
0.000673745
0.00187067
0.0032086
0.00467256
0.00624498
0.00790548
0.00963074
0.0113945
0.0131672
0.0149165
0.0166069
0.0182008
0.0196593
0.0209432
0.0220153
0.0228424
0.0233981
0.0236704
0.0236673
0.0233546
0.0226022
-0.00310982
-0.00384559
-0.00415792
-0.00420645
-0.00404915
-0.00368595
-0.0031218
-0.00236466
-0.00142229
-0.000303377
0.000981605
0.00242002
0.00399681
0.00569419
0.00749139
0.00936428
0.0112857
0.0132242
0.0151449
0.0170093
0.0187752
0.0203984
0.0218334
0.0230362
0.023967
0.0245938
0.0249018
0.0249001
0.0245529
0.023719
-0.00450308
-0.0053084
-0.00565011
-0.00570371
-0.00553371
-0.00514101
-0.00453155
-0.00371411
-0.00269683
-0.00148855
-9.97559e-05
0.00145691
0.00316637
0.00501078
0.00696905
0.00901637
0.0111252
0.0132617
0.0153888
0.0174641
0.0194406
0.0212672
0.0228908
0.0242586
0.0253217
0.0260408
0.0263966
0.0263994
0.0260111
0.0250775
-0.00616632
-0.00705389
-0.00742945
-0.00748781
-0.0073017
-0.00687349
-0.0062105
-0.00532255
-0.00421829
-0.00290671
-0.00139831
0.000294379
0.0021564
0.00417
0.00631421
0.00856447
0.0108907
0.0132595
0.0156308
0.0179583
0.0201892
0.0222649
0.0241222
0.025697
0.0269286
0.0277668
0.0281861
0.028197
0.0277595
0.0267031
-0.00812774
-0.00911269
-0.00952747
-0.00959033
-0.00938437
-0.00891413
-0.00818883
-0.0072197
-0.00601606
-0.00458709
-0.00294326
-0.00109689
0.000937393
0.00314221
0.00549696
0.00797722
0.0105534
0.0131908
0.0158471
0.0184724
0.0210079
0.0233861
0.0255319
0.0273663
0.0288125
0.0298051
0.0303087
0.0303332
0.0298355
0.0286262
-0.0104214
-0.011522
-0.0119823
-0.0120492
-0.0118189
-0.0112992
-0.0105019
-0.00944021
-0.00812424
-0.00656348
-0.00476833
-0.00275082
-0.000524996
0.00189252
0.00448206
0.00722007
0.0100779
0.0130206
0.0160051
0.0189781
0.0218752
0.0246187
0.0271195
0.0292797
0.0310006
0.032195
0.0328119
0.0328581
0.0322859
0.0308836
-0.0130883
-0.014327
-0.0148401
-0.01491
-0.0146496
-0.0140714
-0.013191
-0.012024
-0.0105819
-0.00887433
-0.00691185
-0.004706
-0.00227009
0.000380479
0.00322758
0.00624951
0.00941953
0.0127043
0.016061
0.0194352
0.0227571
0.0259392
0.0288758
0.0314458
0.0335208
0.0349821
0.0357542
0.035835
0.0351696
0.0335183
-0.0161781
-0.0175831
-0.0181576
-0.0182279
-0.0179292
-0.0172809
-0.0163038
-0.0150169
-0.0134331
-0.0115628
-0.00941654
-0.00700544
-0.00434188
-0.00143968
0.00168533
0.00501437
0.00852419
0.012185
0.0159572
0.0197871
0.0236023
0.0273067
0.0307768
0.0338631
0.0363982
0.0382181
0.0392076
0.0393456
0.0385628
0.0365812
-0.0197516
-0.0213594
-0.0220044
-0.0220699
-0.0217209
-0.0209868
-0.0198957
-0.018471
-0.0167275
-0.0146766
-0.012329
-0.00969577
-0.00678811
-0.00361803
-0.000198389
0.00345622
0.00732787
0.0113931
0.0156187
0.0199562
0.0243351
0.028654
0.0327729
0.0365102
0.039648
0.0419577
0.0432608
0.0434978
0.0425671
0.0401336
-0.0238849
-0.0257436
-0.0264686
-0.0265189
-0.0261007
-0.0252586
-0.0240303
-0.0224448
-0.0205195
-0.018267
-0.0156988
-0.0128258
-0.00965851
-0.00620706
-0.00248082
0.00151092
0.0057576
0.0102452
0.0149514
0.0198391
0.0248467
0.0298754
0.0347743
0.0393292
0.0432611
0.0462513
0.0480215
0.0484369
0.0473259
0.0442531
-0.0286763
-0.03085
-0.0316628
-0.0316779
-0.0311609
-0.0301783
-0.0287807
-0.0270039
-0.0248683
-0.0223883
-0.0195763
-0.016444
-0.0130018
-0.00925828
-0.00521917
-0.000887721
0.0037346
0.00864654
0.0138417
0.0193022
0.0249864
0.0308109
0.0366277
0.0421985
0.0471774
0.0511264
0.0536138
0.0543632
0.0530517
0.0490515
-0.0342574
-0.0368327
-0.0377345
-0.037677
-0.0370135
-0.0358424
-0.0342303
-0.0322205
-0.0298366
-0.0270948
-0.0240097
-0.0205947
-0.0168611
-0.0128166
-0.00846422
-0.00380106
0.00118173
0.00649723
0.012161
0.0181829
0.0245549
0.0312296
0.0380872
0.0448905
0.0512375
0.0565472
0.0601622
0.0615521
0.0600765
0.0547213
-0.0408153
-0.0439064
-0.0448808
-0.0446817
-0.0437952
-0.0423638
-0.0404726
-0.0381717
-0.0354871
-0.0324373
-0.0290398
-0.0253112
-0.0212653
-0.0169109
-0.0122495
-0.00727345
-0.00196437
0.00370711
0.00978068
0.0163012
0.0233096
0.0308208
0.0387838
0.0470152
0.0551046
0.0623335
0.0677422
0.0703664
0.0689305
0.0616445
-0.0486334
-0.0523816
-0.0533696
-0.0529024
-0.0516695
-0.0498708
-0.0476078
-0.0449339
-0.0418754
-0.0384529
-0.0346882
-0.0306029
-0.0262156
-0.0215381
-0.0165731
-0.0113106
-0.00572545
0.000226016
0.00660519
0.013496
0.0209986
0.0292171
0.038223
0.0479746
0.0581656
0.068027
0.0762655
0.0812332
0.0804495
0.0706294
-0.0581748
-0.0627231
-0.0635669
-0.0626008
-0.0608228
-0.0584964
-0.0557279
-0.0525645
-0.0490286
-0.0451424
-0.0409333
-0.0364301
-0.0316584
-0.0266355
-0.0213676
-0.0158462
-0.0100439
-0.00390895
0.0026337
0.00970111
0.017452
0.0260946
0.0358749
0.0470092
0.0594937
0.0727541
0.0853005
0.0945447
0.0958866
0.0833793
-0.0702539
-0.0756452
-0.0759645
-0.0740799
-0.0714357
-0.0683402
-0.0648713
-0.0610518
-0.0568928
-0.052417
-0.0476584
-0.0426544
-0.0374385
-0.032035
-0.0264551
-0.0206943
-0.0147298
-0.00851245
-0.00195391
0.0050639
0.0127455
0.0213939
0.0314524
0.0435017
0.0581018
0.0753256
0.093983
0.110519
0.11703
0.103366
-0.0864104
-0.0922576
-0.0911688
-0.0876064
-0.0835778
-0.0793465
-0.0748933
-0.0701845
-0.065208
-0.0599827
-0.0545478
-0.0489476
-0.0432211
-0.0373968
-0.0314894
-0.0254988
-0.019408
-0.0131761
-0.00672575
6.09153e-05
0.00738818
0.0156253
0.0253894
0.0376671
0.0537993
0.0750692
0.101541
0.129371
0.146505
0.137118
-0.10975
-0.114269
-0.109735
-0.103136
-0.096896
-0.0909816
-0.0851514
-0.079263
-0.0732558
-0.0671305
-0.0609195
-0.0546632
-0.0483964
-0.0421432
-0.0359151
-0.0297108
-0.0235153
-0.0172977
-0.0109983
-0.00449897
0.00238542
0.0100565
0.0192653
0.0313692
0.0485356
0.0736164
0.109136
0.152629
0.188654
0.195023
-0.146795
-0.144113
-0.131726
-0.119752
-0.11002
-0.101665
-0.0940156
-0.0867146
-0.0795835
-0.0725559
-0.0656225
-0.058794
-0.0520827
-0.0454953
-0.0390302
-0.0326774
-0.0264166
-0.0202135
-0.01401
-0.00769989
-0.00104388
0.00639969
0.0155341
0.0280787
0.0469681
0.0764035
0.122434
0.185844
0.251237
0.292245
-0.211982
-0.183483
-0.15558
-0.134722
-0.119761
-0.108237
-0.098645
-0.0901196
-0.0821954
-0.0746454
-0.0673668
-0.0603126
-0.0534593
-0.0467906
-0.04029
-0.033937
-0.027702
-0.0215376
-0.0153622
-0.00903023
-0.00222982
0.00565192
0.0157618
0.0302828
0.053025
0.090024
0.149855
0.238483
0.346323
0.462421
-0.346458
-0.225684
-0.170067
-0.137745
-0.117576
-0.104154
-0.0943107
-0.0861866
-0.0788485
-0.0718923
-0.0651537
-0.0585677
-0.0521113
-0.0457767
-0.0395576
-0.0334408
-0.0273978
-0.0213719
-0.0152514
-0.00882206
-0.00165588
0.00699745
0.0186272
0.0359754
0.0638832
0.110435
0.188071
0.31141
0.489417
0.777019
-0.671122
-0.260376
-0.137763
-0.102626
-0.0866587
-0.0782323
-0.0736287
-0.0701615
-0.066538
-0.0624207
-0.0578272
-0.0528605
-0.0476322
-0.0422384
-0.0367503
-0.0312094
-0.0256238
-0.0199581
-0.0141096
-0.0078662
-0.000814127
0.00796071
0.0200428
0.0382714
0.0678083
0.118042
0.206552
0.368097
0.663266
1.25456
)
;

boundaryField
{
    movingWall
    {
        type            zeroGradient;
    }
    fixedWalls
    {
        type            zeroGradient;
    }
    frontAndBack
    {
        type            empty;
    }
}


// ************************************************************************* //
