/*--------------------------------*- C++ -*----------------------------------*\
  =========                 |
  \\      /  F ield         | OpenFOAM: The Open Source CFD Toolbox
   \\    /   O peration     | Website:  https://openfoam.org
    \\  /    A nd           | Version:  7
     \\/     M anipulation  |
\*---------------------------------------------------------------------------*/
FoamFile
{
    version     2.0;
    format      ascii;
    class       surfaceScalarField;
    location    "0.5";
    object      phi;
}
// * * * * * * * * * * * * * * * * * * * * * * * * * * * * * * * * * * * * * //

dimensions      [0 3 -1 0 0 0 0];

internalField   nonuniform List<scalar> 
1740
(
-6.95128e-08
6.94907e-08
-1.32327e-06
1.25376e-06
-3.56535e-06
2.24208e-06
-6.33349e-06
2.76815e-06
-9.28946e-06
2.95597e-06
-1.22282e-05
2.93871e-06
-1.50349e-05
2.80673e-06
-1.76452e-05
2.61031e-06
-2.0018e-05
2.37281e-06
-2.21218e-05
2.10374e-06
-2.39287e-05
1.80699e-06
-2.54136e-05
1.48482e-06
-2.6553e-05
1.13943e-06
-2.73264e-05
7.73408e-07
-2.77163e-05
3.89891e-07
-2.77089e-05
-7.40542e-09
-2.72947e-05
-4.14194e-07
-2.64692e-05
-8.25463e-07
-2.52337e-05
-1.23557e-06
-2.35954e-05
-1.63822e-06
-2.15691e-05
-2.02633e-06
-1.91776e-05
-2.39155e-06
-1.64549e-05
-2.72269e-06
-1.34532e-05
-3.00162e-06
-1.0258e-05
-3.19519e-06
-7.01479e-06
-3.24325e-06
-3.9672e-06
-3.04759e-06
-1.49512e-06
-2.47208e-06
-9.89976e-08
-1.39612e-06
-9.89925e-08
-1.25245e-06
1.32195e-06
-4.9578e-06
4.95911e-06
-1.04124e-05
7.69667e-06
-1.68716e-05
9.22739e-06
-2.37291e-05
9.81341e-06
-3.05676e-05
9.77727e-06
-3.71237e-05
9.36285e-06
-4.3232e-05
8.71862e-06
-4.87813e-05
7.92204e-06
-5.36878e-05
7.01022e-06
-5.78824e-05
6.00161e-06
-6.13054e-05
4.90779e-06
-6.39046e-05
3.73863e-06
-6.56355e-05
2.5044e-06
-6.64622e-05
1.21652e-06
-6.63576e-05
-1.11952e-07
-6.53051e-05
-1.46672e-06
-6.32997e-05
-2.83087e-06
-6.03494e-05
-4.18586e-06
-5.6477e-05
-5.51068e-06
-5.1722e-05
-6.7813e-06
-4.61449e-05
-7.96862e-06
-3.98346e-05
-9.03303e-06
-3.29234e-05
-9.9128e-06
-2.56154e-05
-1.05031e-05
-1.823e-05
-1.06287e-05
-1.12525e-05
-1.00251e-05
-5.36099e-06
-8.36357e-06
-1.36234e-06
-5.39476e-06
-1.46133e-06
-2.28989e-06
3.61184e-06
-7.86917e-06
1.05384e-05
-1.56211e-05
1.54485e-05
-2.45852e-05
1.81915e-05
-3.40152e-05
1.92434e-05
-4.33907e-05
1.91528e-05
-5.2371e-05
1.83431e-05
-6.07327e-05
1.70804e-05
-6.8321e-05
1.55103e-05
-7.50183e-05
1.37075e-05
-8.0729e-05
1.17124e-05
-8.53721e-05
9.55086e-06
-8.88783e-05
7.24487e-06
-9.119e-05
4.81608e-06
-9.22612e-05
2.28774e-06
-9.20588e-05
-3.1443e-07
-9.05635e-05
-2.96193e-06
-8.7772e-05
-5.62243e-06
-8.3698e-05
-8.25984e-06
-7.83753e-05
-1.08333e-05
-7.18608e-05
-1.32958e-05
-6.42396e-05
-1.55898e-05
-5.56354e-05
-1.76372e-05
-4.62289e-05
-1.93194e-05
-3.62899e-05
-2.04421e-05
-2.62261e-05
-2.06924e-05
-1.66395e-05
-1.96117e-05
-8.36161e-06
-1.66415e-05
-2.42609e-06
-1.13303e-05
-3.88742e-06
-2.94138e-06
6.55322e-06
-9.8279e-06
1.74249e-05
-1.91812e-05
2.48019e-05
-2.98504e-05
2.88607e-05
-4.09892e-05
3.03822e-05
-5.202e-05
3.01837e-05
-6.25639e-05
2.8887e-05
-7.23689e-05
2.68854e-05
-8.12572e-05
2.43985e-05
-8.90927e-05
2.15431e-05
-9.57648e-05
1.83844e-05
-0.00010118
1.49662e-05
-0.00010526
1.13247e-05
-0.000107939
7.49507e-06
-0.000109166
3.51442e-06
-0.000108903
-5.77022e-07
-0.00010713
-4.7348e-06
-0.000103844
-8.90899e-06
-9.90598e-05
-1.30436e-05
-9.2818e-05
-1.70752e-05
-8.51839e-05
-2.09299e-05
-7.62563e-05
-2.45174e-05
-6.61778e-05
-2.77158e-05
-5.51547e-05
-3.03425e-05
-4.34916e-05
-3.21053e-05
-3.16432e-05
-3.25408e-05
-2.02801e-05
-3.09748e-05
-1.0346e-05
-2.65756e-05
-3.0756e-06
-1.86006e-05
-6.96302e-06
-3.33492e-06
9.88814e-06
-1.11153e-05
2.52053e-05
-2.16021e-05
3.52887e-05
-3.34818e-05
4.07404e-05
-4.58232e-05
4.27236e-05
-5.80059e-05
4.23664e-05
-6.96278e-05
4.05089e-05
-8.04217e-05
3.76793e-05
-9.01985e-05
3.41753e-05
-9.88127e-05
3.01573e-05
-0.000106146
2.57174e-05
-0.000112097
2.0918e-05
-0.000116584
1.58109e-05
-0.000119534
1.04457e-05
-0.000120894
4.87376e-06
-0.000120621
-8.49583e-07
-0.000118692
-6.6636e-06
-0.000115101
-1.25e-05
-0.000109863
-1.82819e-05
-0.000103017
-2.39215e-05
-9.46304e-05
-2.93163e-05
-8.4808e-05
-3.43398e-05
-7.37016e-05
-3.88222e-05
-6.15323e-05
-4.25117e-05
-4.86272e-05
-4.50104e-05
-3.54761e-05
-4.56918e-05
-2.28081e-05
-4.36429e-05
-1.16685e-05
-3.77152e-05
-3.4684e-06
-2.68008e-05
-1.04314e-05
-3.60409e-06
1.34922e-05
-1.20581e-05
3.36593e-05
-2.34361e-05
4.66667e-05
-3.62862e-05
5.35906e-05
-4.95976e-05
5.60349e-05
-6.27087e-05
5.54775e-05
-7.51967e-05
5.29969e-05
-8.6784e-05
4.92667e-05
-9.72746e-05
4.46658e-05
-0.000106518
3.94007e-05
-0.000114392
3.35909e-05
-0.000120792
2.73182e-05
-0.000125631
2.06498e-05
-0.000128834
1.36494e-05
-0.000130343
6.38253e-06
-0.000130112
-1.08121e-06
-0.00012811
-8.66546e-06
-0.000124326
-1.62838e-05
-0.000118769
-2.38386e-05
-0.000111474
-3.12169e-05
-0.000102504
-3.82857e-05
-9.19647e-05
-4.48794e-05
-8.00112e-05
-5.07757e-05
-6.6876e-05
-5.56469e-05
-5.29075e-05
-5.89788e-05
-3.86335e-05
-5.99658e-05
-2.48467e-05
-5.74297e-05
-1.26967e-05
-4.98652e-05
-3.75287e-06
-3.57446e-05
-1.41843e-05
-3.84096e-06
1.73332e-05
-1.29046e-05
4.27229e-05
-2.51092e-05
5.88713e-05
-3.88757e-05
6.73571e-05
-5.31127e-05
7.02719e-05
-6.71139e-05
6.94787e-05
-8.04343e-05
6.63173e-05
-9.2785e-05
6.16174e-05
-0.000103965
5.58455e-05
-0.00011382
4.92561e-05
-0.000122226
4.19971e-05
-0.000129078
3.41696e-05
-0.000134284
2.5856e-05
-0.000137768
1.71334e-05
-0.000139465
8.07954e-06
-0.000139323
-1.22287e-06
-0.000137305
-1.06837e-05
-0.000133389
-2.01998e-05
-0.000127574
-2.96533e-05
-0.000119885
-3.89063e-05
-0.000110377
-4.77931e-05
-9.91507e-05
-5.6106e-05
-8.63624e-05
-6.35641e-05
-7.22556e-05
-6.97538e-05
-5.72039e-05
-7.40305e-05
-4.17816e-05
-7.53881e-05
-2.68577e-05
-7.23536e-05
-1.36972e-05
-6.30257e-05
-4.02617e-06
-4.54156e-05
-1.82105e-05
-4.09935e-06
2.14325e-05
-1.38121e-05
5.24356e-05
-2.68983e-05
7.19575e-05
-4.16485e-05
8.21073e-05
-5.68843e-05
8.55077e-05
-7.18492e-05
8.44437e-05
-8.60719e-05
8.05399e-05
-9.92511e-05
7.47966e-05
-0.00011118
6.77746e-05
-0.000121704
5.97796e-05
-0.000130696
5.09895e-05
-0.000138051
4.15247e-05
-0.000143677
3.14819e-05
-0.000147494
2.09497e-05
-0.00014943
1.00164e-05
-0.000149428
-1.22507e-06
-0.000147438
-1.26739e-05
-0.000143426
-2.42121e-05
-0.000137375
-3.57038e-05
-0.000129295
-4.69862e-05
-0.000119228
-5.78601e-05
-0.000107263
-6.80709e-05
-9.35566e-05
-7.7271e-05
-7.83622e-05
-8.49482e-05
-6.2085e-05
-9.03078e-05
-4.53572e-05
-9.21159e-05
-2.91415e-05
-8.85693e-05
-1.48374e-05
-7.73297e-05
-4.34369e-06
-5.59094e-05
-2.25541e-05
-4.40747e-06
2.584e-05
-1.48709e-05
6.28991e-05
-2.89683e-05
8.60548e-05
-4.48441e-05
9.79832e-05
-6.12221e-05
0.000101886
-7.72878e-05
0.000100509
-9.25397e-05
9.57917e-05
-0.000106662
8.89194e-05
-0.000119444
8.05564e-05
-0.000130729
7.10641e-05
-0.000140391
6.06522e-05
-0.000148327
4.94603e-05
-0.000154444
3.75985e-05
-0.000158659
2.51647e-05
-0.000160896
1.22542e-05
-0.000161088
-1.03323e-06
-0.000159171
-1.45909e-05
-0.000155094
-2.82895e-05
-0.000148819
-4.19782e-05
-0.000140334
-5.54714e-05
-0.000129659
-6.85349e-05
-0.000116868
-8.08627e-05
-0.000102109
-9.203e-05
-8.56477e-05
-0.000101409
-6.79261e-05
-0.000108029
-4.9648e-05
-0.000110394
-3.18916e-05
-0.000106326
-1.62196e-05
-9.30017e-05
-4.73556e-06
-6.73935e-05
-2.72897e-05
-4.78056e-06
3.06206e-05
-1.61346e-05
7.42531e-05
-3.14204e-05
0.000101341
-4.86117e-05
0.000115174
-6.6318e-05
0.000119592
-8.36583e-05
0.00011785
-0.000100096
0.00011223
-0.000115302
0.000104125
-0.000129059
9.43135e-05
-0.000141213
8.32177e-05
-0.000151642
7.10813e-05
-0.000160245
5.80636e-05
-0.000166933
4.42862e-05
-0.000171621
2.98532e-05
-0.00017423
1.48629e-05
-0.000174681
-5.82415e-07
-0.000172892
-1.63794e-05
-0.000168792
-3.23902e-05
-0.000162314
-4.84556e-05
-0.000153415
-6.43704e-05
-0.000142084
-7.9866e-05
-0.000128367
-9.45795e-05
-0.0001124
-0.000107997
-9.44555e-05
-0.000119354
-7.50168e-05
-0.000127468
-5.48758e-05
-0.000130535
-3.52544e-05
-0.000125947
-1.79176e-05
-0.000110339
-5.22136e-06
-8.00897e-05
-3.25111e-05
-5.22956e-06
3.58501e-05
-1.76426e-05
8.66661e-05
-3.43302e-05
0.000118028
-5.30618e-05
0.000133906
-7.23128e-05
0.000138843
-9.11247e-05
0.000136662
-0.000108923
0.000130028
-0.000125361
0.000120564
-0.000140223
0.000109175
-0.000153357
9.63519e-05
-0.000164651
8.23749e-05
-0.000174011
6.74236e-05
-0.000181353
5.16286e-05
-0.000186597
3.50966e-05
-0.000189656
1.7922e-05
-0.000190446
2.07928e-07
-0.00018886
-1.79659e-05
-0.0001848
-3.64499e-05
-0.000178165
-5.50902e-05
-0.000168868
-7.36679e-05
-0.000156852
-9.18822e-05
-0.000142122
-0.00010931
-0.000124785
-0.000125333
-0.000105117
-0.000139022
-8.3643e-05
-0.000148942
-6.12619e-05
-0.000152916
-3.93751e-05
-0.000147834
-2.00034e-05
-0.00012971
-5.81968e-06
-9.42735e-05
-3.83307e-05
-5.76586e-06
4.1616e-05
-1.94343e-05
0.000100334
-3.77714e-05
0.000136366
-5.83008e-05
0.000154436
-7.93385e-05
0.000159881
-9.98365e-05
0.00015716
-0.000119177
0.000149369
-0.000137002
0.000138389
-0.000153095
0.000125268
-0.000167317
0.000110573
-0.000179568
9.46261e-05
-0.00018977
7.76255e-05
-0.000197851
5.97094e-05
-0.000203736
4.09814e-05
-0.00020734
2.15261e-05
-0.000208559
1.42677e-06
-0.000207278
-1.92461e-05
-0.000203359
-4.03694e-05
-0.000196653
-6.17964e-05
-0.000187014
-8.33063e-05
-0.000174323
-0.000104573
-0.00015852
-0.000125112
-0.000139666
-0.000144188
-0.000118018
-0.00016067
-9.41464e-05
-0.000172813
-6.90756e-05
-0.000177987
-4.44329e-05
-0.000172477
-2.25665e-05
-0.000151577
-6.55391e-06
-0.000110286
-4.48847e-05
-6.40412e-06
4.80201e-05
-2.15581e-05
0.000115488
-4.18321e-05
0.00015664
-6.44522e-05
0.000177056
-8.75449e-05
0.000182973
-0.000109958
0.000179573
-0.00013103
0.00017044
-0.000150391
0.00015775
-0.000167833
0.00014271
-0.000183237
0.000125977
-0.000196526
0.000107915
-0.000207645
8.87445e-05
-0.000216542
6.86063e-05
-0.000223155
4.75948e-05
-0.000227404
2.5775e-05
-0.000229176
3.19923e-06
-0.000228335
-2.00879e-05
-0.000224699
-4.40053e-05
-0.000218062
-6.84328e-05
-0.000208203
-9.31656e-05
-0.00019491
-0.000117867
-0.000178029
-0.000141993
-0.000157538
-0.000164679
-0.000133653
-0.000184555
-0.000106978
-0.000199489
-7.86803e-05
-0.000206284
-5.06736e-05
-0.000200483
-2.57311e-05
-0.000176519
-7.45683e-06
-0.00012856
-5.23415e-05
-7.16452e-06
5.51847e-05
-2.40785e-05
0.000132402
-4.66267e-05
0.000179188
-7.16732e-05
0.000202102
-9.71177e-05
0.000208418
-0.00012169
0.000204145
-0.000144681
0.000193431
-0.000165716
0.000178785
-0.000184607
0.000161602
-0.000201266
0.000142636
-0.000215652
0.000122301
-0.000227744
0.000100837
-0.000237523
7.8385e-05
-0.000244949
5.50215e-05
-0.000249955
3.07801e-05
-0.000252424
5.66911e-06
-0.000252196
-2.03163e-05
-0.000249046
-4.71554e-05
-0.000242696
-7.47827e-05
-0.000232825
-0.000103036
-0.000219098
-0.000131594
-0.000201223
-0.000159869
-0.000179043
-0.000186859
-0.000152686
-0.000210912
-0.000122759
-0.000229415
-9.05906e-05
-0.000238453
-5.84525e-05
-0.000232621
-2.96793e-05
-0.000205292
-8.57662e-06
-0.000149663
-6.09181e-05
-8.07545e-06
6.32601e-05
-2.70843e-05
0.000151411
-5.23097e-05
0.000204413
-8.01711e-05
0.000229964
-0.000108297
0.000236544
-0.000135283
0.000231131
-0.000160373
0.000218521
-0.0001832
0.000201612
-0.000203611
0.000182013
-0.000221564
0.000160589
-0.000237072
0.000137808
-0.000250165
0.00011393
-0.000260869
8.90895e-05
-0.000269184
6.33359e-05
-0.000275062
3.66581e-05
-0.000278395
9.00257e-06
-0.000279002
-1.97095e-05
-0.000276612
-4.95454e-05
-0.000270865
-8.05302e-05
-0.000261315
-0.000112586
-0.000247463
-0.000145445
-0.000228818
-0.000178514
-0.000205016
-0.000210661
-0.000176015
-0.000239914
-0.000142368
-0.000263062
-0.000105558
-0.000275262
-6.83035e-05
-0.000269876
-3.46901e-05
-0.000238906
-9.98752e-06
-0.000174366
-7.09056e-05
-9.17773e-06
7.24378e-05
-3.07004e-05
0.000172934
-5.90936e-05
0.000232806
-9.02251e-05
0.000261095
-0.000121398
0.000267717
-0.000151057
0.00026079
-0.00017841
0.000245874
-0.000203112
0.000226315
-0.000225067
0.000203968
-0.000244303
0.000179825
-0.000260908
0.000154412
-0.000274984
0.000128007
-0.000286623
0.000100729
-0.000295878
7.25909e-05
-0.000302742
4.35217e-05
-0.000307125
1.33859e-05
-0.000308838
-1.79968e-05
-0.000307566
-5.08169e-05
-0.000302861
-8.52356e-05
-0.000294131
-0.000121316
-0.000280665
-0.000158911
-0.000261697
-0.000197482
-0.000236546
-0.000235811
-0.000204875
-0.000271586
-0.000167065
-0.000300872
-0.000124709
-0.000317619
-8.10547e-05
-0.00031353
-4.12089e-05
-0.000278751
-1.18106e-05
-0.000203764
-8.27162e-05
-1.05314e-05
8.29693e-05
-3.5106e-05
0.000197509
-6.72757e-05
0.000264976
-0.000102215
0.000296034
-0.000136837
0.00030234
-0.000169427
0.00029338
-0.000199169
0.000275615
-0.000225772
0.000252918
-0.000249227
0.000227423
-0.000269662
0.00020026
-0.000287267
0.000172017
-0.000302244
0.000142983
-0.000314772
0.000113257
-0.000324982
8.28003e-05
-0.000332926
5.14655e-05
-0.000338554
1.90144e-05
-0.000341688
-1.48632e-05
-0.000341984
-5.05212e-05
-0.000338907
-8.83122e-05
-0.000331707
-0.000128516
-0.000319416
-0.000171202
-0.000300901
-0.000215996
-0.000275022
-0.000261691
-0.000240942
-0.000305665
-0.000198665
-0.000343149
-0.000149746
-0.000366538
-9.80219e-05
-0.000365254
-4.99743e-05
-0.000326799
-1.42553e-05
-0.000239483
-9.69715e-05
-1.22276e-05
9.51968e-05
-4.05631e-05
0.000225844
-7.72762e-05
0.000301689
-0.000116659
0.000335417
-0.000155166
0.000340846
-0.000190918
0.000329132
-0.000223113
0.00030781
-0.000251555
0.000281361
-0.000276365
0.000252233
-0.000297811
0.000221706
-0.00031622
0.000190426
-0.000331922
0.000158685
-0.000345213
0.000126548
-0.000356326
9.39135e-05
-0.000365401
6.05408e-05
-0.000372457
2.60695e-05
-0.000377352
-9.96772e-06
-0.000379745
-4.81284e-05
-0.00037904
-8.90175e-05
-0.000374331
-0.000133224
-0.000364365
-0.000181168
-0.000347553
-0.000232809
-0.000322106
-0.000287137
-0.000286409
-0.000341362
-0.000239718
-0.00038984
-0.00018323
-0.000423025
-0.000121303
-0.000427181
-6.22334e-05
-0.000385869
-1.76993e-05
-0.000284017
-0.000114671
-1.44085e-05
0.000109605
-4.74625e-05
0.000258898
-8.96956e-05
0.000343922
-0.00013427
0.000379991
-0.000177106
0.000383682
-0.000216189
0.000368215
-0.000250788
0.000342409
-0.000280869
0.000311441
-0.00030674
0.000278104
-0.00032886
0.000243825
-0.000347733
0.000209299
-0.000363852
0.000174804
-0.00037766
0.000140357
-0.000389522
0.000105775
-0.000399695
7.07136e-05
-0.000408299
3.46737e-05
-0.000415278
-2.98886e-06
-0.000420337
-4.30689e-05
-0.000422874
-8.6481e-05
-0.000421872
-0.000134226
-0.000415803
-0.000187237
-0.000402554
-0.000246058
-0.000379498
-0.000310193
-0.000343854
-0.000377006
-0.000293563
-0.000440132
-0.000228825
-0.000487763
-0.000154151
-0.000501855
-8.00706e-05
-0.000459949
-2.28318e-05
-0.000341256
-0.000137503
-1.73037e-05
0.000126909
-5.63945e-05
0.000297989
-0.00010539
0.000392918
-0.000156003
0.000430604
-0.000203569
0.000431248
-0.000246009
0.000410656
-0.000282766
0.000379165
-0.000314062
0.000342738
-0.000340474
0.000304516
-0.000362709
0.000266061
-0.000381499
0.000228088
-0.000397533
0.000190839
-0.000411432
0.000154255
-0.000423719
0.000118062
-0.000434799
8.17942e-05
-0.000444936
4.48103e-05
-0.000454207
6.28167e-06
-0.000462438
-3.48372e-05
-0.000469109
-7.98102e-05
-0.000473194
-0.00013014
-0.000472975
-0.000187457
-0.000465831
-0.000253201
-0.000448148
-0.000327875
-0.000415552
-0.000409602
-0.000363863
-0.000491821
-0.000291185
-0.000560441
-0.000201211
-0.000591829
-0.000106799
-0.000554361
-3.08809e-05
-0.000417174
-0.000168384
-2.12938e-05
0.000148203
-6.8256e-05
0.000344951
-0.00012556
0.000450222
-0.000183083
0.000488128
-0.000235598
0.000483763
-0.000281115
0.000456173
-0.000319422
0.000417472
-0.000351135
0.000374451
-0.000377201
0.000330581
-0.00039865
0.000287511
-0.000416488
0.000245926
-0.000431637
0.000205988
-0.000444918
0.000167537
-0.000457034
0.000130177
-0.000468561
9.33212e-05
-0.000479938
5.61878e-05
-0.000491431
1.77746e-05
-0.000503075
-2.31928e-05
-0.000514554
-6.83315e-05
-0.000525003
-0.000119692
-0.000532706
-0.000179754
-0.000534707
-0.0002512
-0.00052642
-0.000336162
-0.000501544
-0.000434478
-0.000452853
-0.000540512
-0.000374717
-0.000638578
-0.000268061
-0.000698485
-0.000147156
-0.000675266
-4.39107e-05
-0.000520419
-0.000212294
-2.70219e-05
0.000175225
-8.43944e-05
0.000402324
-0.000151797
0.000517625
-0.000216893
0.000553224
-0.000274069
0.000540939
-0.000321742
0.000503845
-0.000360306
0.000456037
-0.000390968
0.000405113
-0.000415173
0.000354787
-0.00043436
0.000306697
-0.000449857
0.000261423
-0.000462845
0.000218976
-0.000474352
0.000179044
-0.000485263
0.000141088
-0.000496328
0.000104387
-0.000508177
6.80364e-05
-0.0005213
3.08978e-05
-0.000536004
-8.48899e-06
-0.000552329
-5.20069e-05
-0.000569783
-0.000102238
-0.000586972
-0.000162565
-0.000600988
-0.000237184
-0.000606626
-0.000330525
-0.000595703
-0.000445401
-0.000557256
-0.000578958
-0.00048
-0.000715833
-0.000358912
-0.000819573
-0.000206652
-0.000827526
-6.50786e-05
-0.000661993
-0.000277373
-3.55858e-05
0.00021081
-0.000106762
0.0004735
-0.000185964
0.000596826
-0.000258454
0.000625714
-0.000318783
0.000601268
-0.000366342
0.000551404
-0.000402547
0.000492241
-0.000429457
0.000432023
-0.000449182
0.000374512
-0.000463657
0.000321172
-0.000474571
0.000272337
-0.000483365
0.000227771
-0.000491255
0.000186934
-0.000499272
0.000149104
-0.000508304
0.000113419
-0.000519136
7.88683e-05
-0.000532478
4.42401e-05
-0.000548901
7.93462e-06
-0.00056893
-3.19785e-05
-0.00059263
-7.85375e-05
-0.000619318
-0.000135878
-0.000646749
-0.000209753
-0.000669921
-0.000307352
-0.0006796
-0.000435723
-0.00066133
-0.000597229
-0.000596824
-0.000780339
-0.000471104
-0.000945293
-0.00028894
-0.00100969
-9.85467e-05
-0.000852386
-0.000375919
-4.88665e-05
0.000259677
-0.000137971
0.000562605
-0.000229496
0.000688351
-0.000306873
0.000703091
-0.000366108
0.000660503
-0.000408554
0.00059385
-0.000437272
0.000520959
-0.000455531
0.000450282
-0.000466287
0.000385268
-0.000472041
0.000326925
-0.000474837
0.000275133
-0.000476322
0.000229255
-0.000477816
0.000188429
-0.000480402
0.00015169
-0.000485002
0.000118019
-0.000492455
8.63209e-05
-0.000503575
5.53604e-05
-0.00051922
2.35795e-05
-0.000540167
-1.10316e-05
-0.000567271
-5.14331e-05
-0.000600821
-0.000102328
-0.000639937
-0.000170637
-0.000681113
-0.000266175
-0.000715974
-0.000400862
-0.000728652
-0.000584551
-0.000694658
-0.000814333
-0.000585943
-0.00105401
-0.000389858
-0.00120578
-0.000148256
-0.00109399
-0.000524176
-7.00822e-05
0.000329759
-0.000180888
0.000673411
-0.000281213
0.000788676
-0.000355391
0.00077727
-0.000403595
0.000708706
-0.000430793
0.000621048
-0.000442557
0.000532723
-0.000443763
0.000451489
-0.000438327
0.000379832
-0.000429261
0.00031786
-0.000418824
0.000264696
-0.000408684
0.000219115
-0.000400074
0.000179819
-0.000393934
0.00014555
-0.000391033
0.000115118
-0.000392077
8.73645e-05
-0.000397802
6.10857e-05
-0.000409106
3.48828e-05
-0.000426851
6.71384e-06
-0.00045255
-2.57337e-05
-0.000487435
-6.74438e-05
-0.00053249
-0.000125583
-0.000587086
-0.000211578
-0.000646508
-0.00034144
-0.000697851
-0.000533208
-0.00071516
-0.000797024
-0.000658295
-0.00111087
-0.000487443
-0.00137663
-0.000213701
-0.00136773
-0.000737877
-0.000104535
0.000434294
-0.000236529
0.000805405
-0.000331162
0.000883309
-0.000382099
0.000828206
-0.000398861
0.000725467
-0.000392385
0.000614573
-0.000371616
0.000511954
-0.000343126
0.000422998
-0.000311495
0.000348201
-0.000279805
0.00028617
-0.000250059
0.00023495
-0.000223514
0.00019257
-0.000200942
0.000157247
-0.000182824
0.000127433
-0.000169504
0.000101798
-0.000161306
7.91666e-05
-0.000158642
5.84214e-05
-0.000162105
3.83462e-05
-0.000172743
1.73521e-05
-0.000191726
-6.75142e-06
-0.000221239
-3.79303e-05
-0.000263976
-8.28458e-05
-0.0003229
-0.000152654
-0.000399461
-0.000264879
-0.000489503
-0.000443166
-0.000574677
-0.000711849
-0.00061138
-0.00107417
-0.000530116
-0.00145789
-0.000280486
-0.00161736
-0.00101836
-0.000159472
0.000593766
-0.00029447
0.000940403
-0.000343165
0.000932004
-0.000329033
0.000814075
-0.000278756
0.00067519
-0.000210924
0.000546741
-0.000137278
0.000438308
-6.47416e-05
0.000350462
2.88266e-06
0.000280577
6.37166e-05
0.000225336
0.000117026
0.00018164
0.000162727
0.00014687
0.000201066
0.000118908
0.000232417
9.60809e-05
0.000257152
7.70632e-05
0.000275541
6.07776e-05
0.000287682
4.62801e-05
0.00029341
3.26184e-05
0.000292125
1.86365e-05
0.00028266
2.71379e-06
0.000262884
-1.81544e-05
0.000228962
-4.8923e-05
0.000174804
-9.8497e-05
9.20125e-05
-0.000182087
-2.70493e-05
-0.000324105
-0.000181821
-0.000557078
-0.00034435
-0.00091164
-0.000430458
-0.00137178
-0.000312247
-0.00173557
-0.00133061
-0.000234005
0.000827772
-0.00028987
0.000996267
-0.000203589
0.000845723
-5.62819e-05
0.000666768
0.000105544
0.000513364
0.000260807
0.000391478
0.000400772
0.000298343
0.000522699
0.000228535
0.000626782
0.000176494
0.000714507
0.00013761
0.000787796
0.000108351
0.000848582
8.6083e-05
0.000898622
6.88684e-05
0.000939409
5.52943e-05
0.000972146
4.43257e-05
0.000997743
3.51804e-05
0.0010168
2.72203e-05
0.00102958
1.9841e-05
0.00103588
1.23371e-05
0.0010348
3.79517e-06
0.00102436
-7.71709e-06
0.00100056
-2.51229e-05
0.000955915
-5.38508e-05
0.000877645
-0.000103818
0.000746042
-0.000192502
0.000538338
-0.000349373
0.000247746
-0.000621049
-6.47772e-05
-0.00105926
-0.0002163
-0.00158405
-0.00154691
-0.000177662
0.00100543
5.41945e-05
0.000764411
0.000414423
0.000485495
0.000744663
0.000336528
0.00102205
0.000235974
0.00124827
0.000165256
0.00142988
0.000116741
0.00157459
8.38234e-05
0.00168975
6.13365e-05
0.00178158
4.57779e-05
0.00185508
3.48495e-05
0.00191414
2.7024e-05
0.00196173
2.12804e-05
0.00200008
1.69378e-05
0.00203087
1.35391e-05
0.00205528
1.07661e-05
0.00207413
8.37685e-06
0.00208782
6.15273e-06
0.0020963
3.8506e-06
0.00209892
1.17356e-06
0.00209406
-2.85692e-06
0.00207795
-9.00947e-06
0.00204345
-1.93504e-05
0.00197726
-3.76255e-05
0.00185551
-7.0755e-05
0.00163912
-0.000132977
0.00127654
-0.000258469
0.000747416
-0.00053014
0.000193547
-0.00103018
-0.00135336
0.00100543
0.00176984
0.00225534
0.00259187
0.00282784
0.0029931
0.00310984
0.00319366
0.003255
0.00330078
0.00333563
0.00336265
0.00338393
0.00340087
0.00341441
0.00342517
0.00343355
0.0034397
0.00344355
0.00344473
0.00344187
0.00343286
0.00341351
0.00337588
0.00330513
0.00317215
0.00291368
0.00238354
0.00135336
)
;

boundaryField
{
    movingWall
    {
        type            calculated;
        value           uniform 0;
    }
    fixedWalls
    {
        type            calculated;
        value           uniform 0;
    }
    frontAndBack
    {
        type            empty;
        value           nonuniform 0();
    }
}


// ************************************************************************* //
