/*--------------------------------*- C++ -*----------------------------------*\
  =========                 |
  \\      /  F ield         | OpenFOAM: The Open Source CFD Toolbox
   \\    /   O peration     | Website:  https://openfoam.org
    \\  /    A nd           | Version:  7
     \\/     M anipulation  |
\*---------------------------------------------------------------------------*/
FoamFile
{
    version     2.0;
    format      ascii;
    class       volScalarField;
    location    "500";
    object      epsilon;
}
// * * * * * * * * * * * * * * * * * * * * * * * * * * * * * * * * * * * * * //

dimensions      [0 2 -3 0 0 0 0];

internalField   nonuniform List<scalar> 
16900
(
2.53228
3.44561
4.68067
5.71947
6.54413
7.16686
7.60291
7.85661
7.91108
7.74198
7.83347
7.68585
35.614
40.63
45.9598
51.6143
57.5901
63.8861
70.506
77.4535
84.7357
92.3578
100.326
108.647
117.324
126.363
135.766
145.535
155.67
166.172
177.038
188.266
199.852
211.79
224.075
236.699
249.656
262.935
276.529
290.428
304.621
319.099
333.851
348.867
364.135
379.645
395.384
411.343
427.508
443.867
460.41
477.122
493.993
511.01
528.162
545.442
562.843
580.367
598.027
615.851
633.896
652.268
671.149
690.067
708.95
727.759
746.442
764.937
783.171
801.064
818.523
835.445
851.718
867.217
881.811
895.357
907.707
918.704
928.192
936.012
942.01
946.037
947.957
947.653
945.026
940.005
932.548
922.649
910.333
895.668
878.752
859.726
838.756
816.056
791.865
766.418
740.071
713.718
688.096
666.507
646.726
626.986
607.143
587.272
567.475
547.858
528.516
509.53
490.974
472.907
455.379
438.428
422.088
406.383
391.333
376.957
363.277
350.332
338.265
327.333
317.055
307.322
298.125
289.469
281.363
273.811
266.813
260.366
254.469
249.116
244.3
240.013
236.245
232.982
230.207
227.899
226.035
224.586
223.517
222.794
222.389
222.285
222.438
222.737
223.253
224.636
227.134
229.845
232.482
234.975
237.286
239.392
241.277
242.832
244.514
245.904
246.972
247.743
248.222
248.419
248.351
248.129
248.395
249.438
250.557
251.639
252.666
253.635
254.54
255.38
256.154
256.859
257.495
258.061
258.557
258.983
259.339
259.626
259.844
259.994
260.076
260.092
260.042
259.927
259.747
259.503
259.193
258.82
258.383
257.883
257.323
256.708
256.044
255.343
254.625
253.925
253.308
252.908
253.074
255.315
3.9262
3.64468
4.52649
5.54716
6.55058
7.54328
8.59285
9.80665
11.3227
13.2715
15.6759
19.1313
23.6033
26.483
29.3493
32.3367
35.4613
38.7259
42.1333
45.6863
49.3876
53.2396
57.244
61.4024
65.7155
70.1837
74.8067
79.5837
84.5133
89.5937
94.8224
100.196
105.713
111.367
117.155
123.072
129.114
135.275
141.55
147.934
154.419
161.001
167.674
174.432
181.268
188.177
195.154
202.192
209.286
216.432
223.623
230.857
238.129
245.436
252.777
260.151
267.56
275.007
282.502
290.055
297.687
305.424
313.346
321.315
329.261
337.159
344.99
352.729
360.348
367.817
375.099
382.156
388.943
395.414
401.517
407.197
412.397
417.056
421.112
424.504
427.17
429.052
430.093
430.246
429.469
427.729
425.005
421.289
416.583
410.905
404.286
396.77
388.411
379.276
369.441
358.974
347.95
336.687
325.682
315.313
305.319
295.425
285.594
275.853
266.242
256.805
247.579
238.599
229.892
221.481
213.386
205.621
198.197
191.122
184.404
178.048
172.061
166.458
161.261
156.609
152.36
148.424
144.767
141.375
138.239
135.356
132.721
130.331
128.182
126.27
124.591
123.142
121.919
120.914
120.122
119.535
119.144
118.938
118.904
119.029
119.303
119.712
120.241
120.875
121.635
122.609
123.793
125.031
126.249
127.421
128.533
129.577
130.544
131.414
132.281
133.116
133.843
134.456
134.956
135.344
135.627
135.841
136.078
136.417
136.741
137.018
137.236
137.39
137.478
137.498
137.45
137.333
137.148
136.894
136.573
136.184
135.73
135.211
134.629
133.985
133.28
132.516
131.695
130.817
129.886
128.902
127.866
126.781
125.647
124.466
123.24
121.971
120.659
119.306
117.913
116.477
114.988
113.413
111.764
109.796
5.17824
4.34437
5.04702
6.07309
7.21849
8.4596
9.8357
11.406
13.2161
15.2602
17.4851
19.9476
22.5016
24.9236
27.4017
29.9802
32.6711
35.4787
38.4055
41.4536
44.625
47.9211
51.3431
54.8917
58.5673
62.37
66.2991
70.3537
74.5326
78.8339
83.2554
87.7944
92.4478
97.212
102.083
107.057
112.129
117.294
122.548
127.883
133.296
138.781
144.331
149.941
155.606
161.32
167.078
172.874
178.705
184.565
190.452
196.362
202.293
208.242
214.209
220.194
226.198
232.224
238.277
244.363
250.49
256.667
262.889
269.1
275.276
281.404
287.471
293.459
299.351
305.126
310.759
316.222
321.486
326.515
331.273
335.718
339.808
343.496
346.735
349.475
351.667
353.264
354.219
354.491
354.042
352.842
350.869
348.11
344.562
340.233
335.139
329.309
322.78
315.591
307.805
299.42
290.726
281.869
273.04
264.37
255.823
247.351
238.96
230.682
222.552
214.606
206.875
199.386
192.162
185.219
178.574
172.235
166.212
160.51
155.134
150.087
145.377
141.013
137.013
133.383
130.068
127.028
124.239
121.686
119.36
117.254
115.363
113.682
112.206
110.93
109.85
108.962
108.261
107.74
107.394
107.214
107.193
107.32
107.586
107.978
108.486
109.099
109.805
110.596
111.474
112.44
113.471
114.515
115.542
116.535
117.486
118.387
119.234
120.021
120.764
121.441
122.03
122.526
122.928
123.237
123.458
123.605
123.708
123.794
123.832
123.811
123.721
123.56
123.327
123.021
122.642
122.192
121.669
121.077
120.415
119.686
118.891
118.032
117.111
116.13
115.092
113.998
112.851
111.653
110.406
109.113
107.775
106.395
104.974
103.515
102.019
100.487
98.922
97.3227
95.688
94.0124
92.2824
90.463
88.5692
86.4994
6.28
5.07328
5.65607
6.66787
7.87408
9.22022
10.7073
12.3506
14.153
16.0966
18.1516
20.323
22.5722
24.872
27.2539
29.7349
32.3239
35.0256
37.8429
40.7782
43.8332
47.0094
50.308
53.7298
57.2754
60.9449
64.738
68.6541
72.6923
76.851
81.1283
85.5218
90.0287
94.6455
99.3684
104.193
109.115
114.129
119.23
124.411
129.667
134.992
140.379
145.822
151.316
156.852
162.427
168.034
173.668
179.324
184.999
190.687
196.387
202.096
207.812
213.534
219.262
224.997
230.742
236.498
242.27
248.053
253.824
259.562
265.254
270.892
276.466
281.964
287.371
292.672
297.847
302.875
307.73
312.382
316.801
320.95
324.792
328.284
331.383
334.043
336.216
337.857
338.919
339.359
339.139
338.225
336.59
334.217
331.096
327.229
322.625
317.304
311.3
304.627
297.408
289.742
281.769
273.604
265.361
257.118
248.898
240.718
232.612
224.617
216.773
209.117
201.681
194.491
187.57
180.935
174.601
168.579
162.876
157.498
152.45
147.737
143.365
139.341
135.661
132.302
129.238
126.443
123.9
121.596
119.522
117.669
116.032
114.604
113.378
112.35
111.514
110.863
110.391
110.091
109.955
109.974
110.138
110.437
110.858
111.391
112.022
112.74
113.533
114.39
115.301
116.253
117.223
118.188
119.128
120.035
120.899
121.714
122.473
123.16
123.773
124.305
124.747
125.094
125.348
125.507
125.575
125.561
125.479
125.337
125.128
124.845
124.486
124.05
123.535
122.944
122.276
121.535
120.72
119.835
118.881
117.86
116.776
115.631
114.427
113.168
111.856
110.494
109.085
107.632
106.137
104.604
103.035
101.432
99.7972
98.1331
96.4411
94.7226
92.9786
91.2087
89.4109
87.5789
85.7002
83.7484
81.7583
79.7293
7.26374
5.74397
6.22577
7.20473
8.41848
9.79095
11.2995
12.9391
14.7036
16.582
18.562
20.6429
22.8163
25.0785
27.4372
29.9008
32.4757
35.1662
37.9755
40.9062
43.9603
47.1395
50.4455
53.8793
57.442
61.1342
64.9562
68.9079
72.9887
77.1978
81.5336
85.994
90.5766
95.2782
100.095
105.023
110.056
115.191
120.42
125.737
131.136
136.61
142.151
147.753
153.407
159.107
164.846
170.616
176.412
182.228
188.057
193.895
199.737
205.58
211.421
217.256
223.084
228.904
234.715
240.52
246.316
252.084
257.812
263.487
269.102
274.652
280.128
285.523
290.824
296.02
301.095
306.031
310.805
315.393
319.767
323.894
327.739
331.264
334.425
337.178
339.477
341.272
342.518
343.168
343.179
342.513
341.137
339.028
336.17
332.557
328.195
323.094
317.295
310.89
303.961
296.597
288.897
280.959
272.869
264.694
256.48
248.271
240.114
232.055
224.141
216.41
208.899
201.636
194.647
187.952
181.566
175.501
169.767
164.371
159.319
154.617
150.272
146.285
142.63
139.29
136.245
133.479
130.978
128.729
126.722
124.949
123.402
122.073
120.956
120.041
119.323
118.793
118.442
118.262
118.242
118.37
118.637
119.029
119.533
120.135
120.823
121.581
122.397
123.257
124.147
125.051
125.951
126.832
127.68
128.488
129.246
129.948
130.566
131.097
131.538
131.884
132.131
132.278
132.323
132.268
132.115
131.871
131.543
131.137
130.648
130.077
129.423
128.685
127.866
126.967
125.992
124.942
123.82
122.629
121.372
120.053
118.674
117.239
115.752
114.216
112.635
111.012
109.35
107.653
105.924
104.167
102.383
100.576
98.7477
96.9004
95.0354
93.1539
91.2563
89.3419
87.408
85.4487
83.4537
81.4049
79.3516
77.343
8.13885
6.33145
6.71498
7.6474
8.83926
10.2004
11.6962
13.3131
15.0439
16.8825
18.8245
20.87
23.0182
25.2701
27.6297
30.1021
32.6924
35.4047
38.2425
41.2084
44.305
47.5346
50.8993
54.4008
58.0408
61.8205
65.741
69.803
74.0066
78.3514
82.8367
87.4609
92.2218
97.1166
102.142
107.293
112.565
117.952
123.449
129.047
134.739
140.518
146.375
152.302
158.289
164.329
170.412
176.531
182.677
188.843
195.021
201.204
207.386
213.561
219.723
225.868
231.992
238.091
244.164
250.209
256.215
262.16
268.036
273.839
279.561
285.2
290.75
296.204
301.554
306.791
311.902
316.873
321.684
326.316
330.743
334.936
338.865
342.492
345.776
348.675
351.143
353.13
354.586
355.464
355.714
355.294
354.165
352.295
349.664
346.257
342.073
337.169
331.586
325.39
318.655
311.458
303.885
296.019
287.938
279.709
271.389
263.035
254.703
246.449
238.323
230.371
222.633
215.141
207.924
201.006
194.405
188.137
182.211
176.639
171.427
166.584
162.117
158.013
154.243
150.796
147.657
144.813
142.249
139.956
137.923
136.139
134.595
133.283
132.193
131.315
130.64
130.158
129.857
129.727
129.754
129.926
130.229
130.648
131.169
131.776
132.455
133.19
133.965
134.766
135.579
136.386
137.174
137.93
138.643
139.304
139.906
140.422
140.837
141.149
141.358
141.46
141.454
141.338
141.112
140.779
140.341
139.803
139.171
138.449
137.637
136.736
135.747
134.672
133.515
132.278
130.966
129.582
128.129
126.612
125.034
123.4
121.714
119.98
118.202
116.384
114.53
112.645
110.733
108.796
106.839
104.865
102.878
100.878
98.8704
96.855
94.8338
92.8072
90.7754
88.737
86.6892
84.6267
82.5414
80.4224
78.3263
76.3244
8.91129
6.83152
7.11454
7.99154
9.14613
10.4782
11.9469
13.5351
15.2355
17.0447
18.9616
20.9875
23.1246
25.3752
27.7432
30.2329
32.8488
35.5951
38.4754
41.493
44.6509
47.9521
51.3994
54.9954
58.7426
62.643
66.6987
70.9112
75.2814
79.81
84.4967
89.3407
94.3404
99.4935
104.796
110.245
115.835
121.558
127.41
133.382
139.465
145.651
151.93
158.292
164.726
171.224
177.773
184.364
190.988
197.633
204.291
210.951
217.607
224.247
230.866
237.454
244.006
250.515
256.977
263.388
269.718
275.955
282.095
288.131
294.062
299.883
305.59
311.178
316.643
321.978
327.172
332.215
337.093
341.789
346.28
350.545
354.555
358.279
361.677
364.71
367.333
369.498
371.153
372.248
372.73
372.55
371.664
370.033
367.626
364.453
360.52
355.861
350.514
344.534
337.983
330.93
323.451
315.623
307.519
299.208
290.756
282.227
273.686
265.194
256.808
248.578
240.549
232.76
225.243
218.026
211.132
204.577
198.377
192.544
187.089
182.019
177.346
173.032
169.067
165.439
162.135
159.144
156.454
154.053
151.93
150.073
148.472
147.115
145.992
145.09
144.397
143.901
143.588
143.444
143.455
143.605
143.878
144.258
144.73
145.275
145.877
146.52
147.188
147.866
148.538
149.189
149.807
150.379
150.896
151.348
151.719
151.975
152.118
152.146
152.059
151.854
151.531
151.09
150.532
149.859
149.076
148.187
147.198
146.112
144.931
143.659
142.298
140.852
139.325
137.721
136.046
134.304
132.5
130.639
128.726
126.765
124.762
122.721
120.647
118.544
116.419
114.274
112.114
109.944
107.767
105.586
103.405
101.227
99.0535
96.886
94.7256
92.5725
90.4261
88.2849
86.1457
84.0038
81.8535
79.6886
77.5681
75.57
9.58535
7.24869
7.42927
8.24542
9.35486
10.6492
12.084
13.6404
15.311
17.0937
18.9891
20.9997
23.129
25.3805
27.7585
30.2675
32.9121
35.6965
38.6251
41.7016
44.93
48.314
51.8572
55.5633
59.4358
63.4778
67.6923
72.0819
76.6486
81.3939
86.3186
91.4226
96.7048
102.164
107.796
113.597
119.563
125.686
131.961
138.377
144.926
151.597
158.38
165.263
172.234
179.281
186.391
193.552
200.752
207.978
215.218
222.461
229.694
236.906
244.085
251.221
258.303
265.322
272.27
279.134
285.874
292.485
298.962
305.302
311.5
317.554
323.461
329.216
334.818
340.26
345.538
350.645
355.568
360.296
364.814
369.103
373.143
376.906
380.358
383.465
386.188
388.475
390.28
391.551
392.231
392.266
391.61
390.229
388.101
385.219
381.586
377.221
372.154
366.425
360.088
353.205
345.842
338.073
329.968
321.6
313.039
304.354
295.617
286.893
278.246
269.731
261.399
253.294
245.453
237.908
230.686
223.808
217.292
211.155
205.408
200.063
195.124
190.551
186.339
182.48
178.964
175.78
172.915
170.358
168.096
166.116
164.406
162.952
161.74
160.758
159.989
159.42
159.033
158.813
158.743
158.805
158.981
159.255
159.607
160.019
160.475
160.957
161.448
161.934
162.398
162.826
163.207
163.529
163.783
163.956
164.009
163.938
163.741
163.42
162.973
162.399
161.7
160.875
159.928
158.861
157.68
156.39
154.996
153.504
151.916
150.238
148.473
146.627
144.705
142.712
140.655
138.539
136.37
134.154
131.896
129.602
127.277
124.928
122.558
120.174
117.78
115.381
112.982
110.588
108.201
105.826
103.466
101.124
98.8004
96.4979
94.2166
91.9562
89.7158
87.4932
85.2852
83.0877
80.8967
78.7088
76.582
74.5925
10.1677
7.59138
7.66922
8.42172
9.48179
10.7339
12.1311
13.6535
15.2936
17.05
18.9244
20.9202
23.0419
25.2941
27.6819
30.2101
32.8839
35.7083
38.6881
41.8281
45.133
48.6077
52.2568
56.0852
60.0974
64.2979
68.6909
73.28
78.0686
83.0591
88.2533
93.652
99.2549
105.061
111.067
117.269
123.663
130.242
136.997
143.92
151
158.225
165.584
173.062
180.645
188.32
196.072
203.886
211.747
219.64
227.551
235.463
243.363
251.234
259.062
266.832
274.529
282.141
289.656
297.033
304.246
311.29
318.158
324.846
331.35
337.665
343.788
349.717
355.45
360.985
366.318
371.447
376.364
381.061
385.53
389.762
393.742
397.448
400.855
403.937
406.662
408.979
410.849
412.222
413.039
413.253
412.822
411.709
409.884
407.329
404.035
400.008
395.265
389.835
383.763
377.099
369.906
362.248
354.198
345.827
337.209
328.417
319.528
310.611
301.735
292.961
284.346
275.937
267.779
259.907
252.352
245.142
238.297
231.837
225.777
220.13
214.89
210.025
205.535
201.412
197.65
194.236
191.159
188.406
185.963
183.816
181.949
180.349
178.998
177.881
176.98
176.278
175.756
175.396
175.179
175.086
175.098
175.194
175.357
175.566
175.804
176.054
176.298
176.52
176.707
176.844
176.919
176.922
176.842
176.649
176.319
175.855
175.257
174.525
173.66
172.661
171.53
170.27
168.885
167.378
165.755
164.022
162.187
160.254
158.229
156.118
153.926
151.66
149.325
146.929
144.478
141.979
139.439
136.863
134.259
131.632
128.989
126.335
123.676
121.017
118.364
115.722
113.096
110.49
107.908
105.354
102.83
100.34
97.8851
95.4658
93.0825
90.7347
88.4206
86.1378
83.883
81.6522
79.4427
77.2525
75.1361
73.1635
10.6636
7.86882
7.84606
8.53358
9.54228
10.7499
12.1075
13.5944
15.2031
16.9327
18.7857
20.7665
22.8804
25.133
27.5303
30.0781
32.7823
35.6487
38.6831
41.8915
45.2797
48.8536
52.6194
56.5831
60.7505
65.1276
69.7197
74.532
79.5689
84.8342
90.3305
96.0597
102.022
108.217
114.642
121.294
128.167
135.254
142.548
150.038
157.711
165.555
173.556
181.698
189.965
198.34
206.807
215.348
223.945
232.581
241.237
249.896
258.538
267.144
275.694
284.17
292.553
300.824
308.963
316.903
324.636
332.153
339.448
346.513
353.341
359.927
366.267
372.358
378.2
383.792
389.133
394.224
399.06
403.64
407.961
412.025
415.827
419.351
422.582
425.505
428.102
430.325
432.143
433.515
434.397
434.743
434.507
433.645
432.121
429.902
426.969
423.312
418.936
413.858
408.107
401.726
394.769
387.295
379.372
371.072
362.469
353.641
344.664
335.615
326.566
317.582
308.725
300.05
291.604
283.429
275.56
268.029
260.861
254.078
247.7
241.746
236.184
231.009
226.22
221.813
217.779
214.109
210.789
207.806
205.145
202.79
200.724
198.93
197.39
196.085
194.995
194.102
193.384
192.821
192.393
192.079
191.857
191.708
191.611
191.547
191.498
191.446
191.373
191.264
191.104
190.881
190.584
190.199
189.711
189.08
188.306
187.391
186.336
185.14
183.805
182.332
180.725
178.987
177.123
175.138
173.04
170.834
168.529
166.132
163.649
161.088
158.454
155.756
153
150.194
147.346
144.463
141.553
138.621
135.676
132.723
129.769
126.821
123.884
120.964
118.066
115.196
112.357
109.556
106.796
104.079
101.41
98.7905
96.2217
93.7045
91.2384
88.8224
86.4545
84.1316
81.8504
79.6069
77.399
75.2248
73.1343
71.1888
11.0789
8.0902
7.97103
8.59396
9.55031
10.7123
12.0294
13.4802
15.0573
16.7602
18.592
20.5581
22.6648
24.9188
27.3271
29.8966
32.6342
35.5471
38.6422
41.9268
45.408
49.0934
52.9904
57.1064
61.449
66.0253
70.8424
75.9066
81.2239
86.7991
92.636
98.7371
105.104
111.735
118.629
125.783
133.191
140.846
148.737
156.856
165.187
173.715
182.425
191.298
200.316
209.459
218.709
228.044
237.444
246.889
256.358
265.827
275.276
284.678
294.011
303.25
312.373
321.355
330.141
338.678
346.959
354.973
362.712
370.167
377.323
384.174
390.715
396.942
402.854
408.452
413.738
418.718
423.384
427.741
431.799
435.565
439.05
442.245
445.145
447.752
450.055
452.036
453.672
454.933
455.781
456.173
456.063
455.402
454.145
452.249
449.68
446.413
442.439
437.758
432.387
426.357
419.711
412.501
404.79
396.647
388.146
379.365
370.383
361.279
352.128
343.001
333.963
325.075
316.389
307.951
299.803
291.979
284.509
277.419
270.732
264.465
258.584
253.094
247.998
243.293
238.972
235.024
231.437
228.196
225.284
222.684
220.378
218.346
216.568
215.024
213.692
212.551
211.578
210.751
210.049
209.449
208.929
208.468
208.046
207.642
207.239
206.818
206.362
205.856
205.285
204.639
203.904
203.069
202.096
200.974
199.705
198.289
196.728
195.023
193.176
191.191
189.072
186.823
184.45
181.961
179.363
176.664
173.872
170.997
168.045
165.025
161.944
158.811
155.634
152.421
149.181
145.92
142.648
139.371
136.096
132.831
129.582
126.355
123.156
119.992
116.867
113.786
110.755
107.778
104.858
101.999
99.2031
96.4731
93.8098
91.2134
88.6834
86.218
83.8149
81.4706
79.1814
76.9432
74.754
72.6115
70.5602
68.6518
11.4166
8.26341
8.055
8.61454
9.51862
10.6349
11.9115
13.3267
14.873
16.5503
18.3626
20.3161
22.4181
24.6768
27.1002
29.6966
32.4746
35.4424
38.6087
41.9823
45.572
49.387
53.4364
57.7292
62.2746
67.0812
72.1577
77.5119
83.1509
89.081
95.3068
101.832
108.657
115.782
123.206
130.923
138.93
147.216
155.773
164.588
173.645
182.927
192.414
202.086
211.921
221.898
231.993
242.184
252.446
262.757
273.091
283.423
293.728
303.972
314.128
324.169
334.065
343.778
353.214
362.357
371.192
379.705
387.885
395.721
403.19
410.281
416.989
423.309
429.239
434.778
439.933
444.714
449.109
453.13
456.796
460.124
463.131
465.831
468.236
470.362
472.214
473.794
475.094
476.097
476.776
477.095
477.009
476.468
475.417
473.804
471.581
468.708
465.157
460.913
455.977
450.365
444.106
437.246
429.838
421.946
413.642
405.003
396.108
387.038
377.87
368.679
359.534
350.501
341.636
332.99
324.61
316.534
308.797
301.427
294.451
287.882
281.691
275.891
270.488
265.481
260.862
256.622
252.748
249.224
246.032
243.155
240.571
238.261
236.201
234.37
232.745
231.303
230.019
228.871
227.835
226.889
226.01
225.176
224.366
223.561
222.742
221.891
220.991
220.028
218.988
217.86
216.631
215.279
213.772
212.114
210.305
208.347
206.243
203.994
201.604
199.078
196.421
193.638
190.738
187.729
184.618
181.415
178.13
174.772
171.349
167.871
164.348
160.786
157.196
153.586
149.965
146.341
142.723
139.116
135.531
131.972
128.447
124.962
121.523
118.136
114.805
111.536
108.333
105.201
102.142
99.1611
96.2593
93.4387
90.7002
88.0435
85.4677
82.9706
80.5496
78.2006
75.9197
73.7025
71.5466
69.4488
67.4481
65.5864
11.6753
8.39493
8.1079
8.60674
9.45894
10.5301
11.7674
13.1487
14.6665
16.3213
18.1177
20.063
22.166
24.436
26.8827
29.5162
32.3465
35.3838
38.6386
42.1215
45.8434
49.8153
54.0483
58.5531
63.3406
68.4209
73.8042
79.4999
85.5163
91.8606
98.5387
105.554
112.907
120.598
128.624
136.981
145.662
154.657
163.955
173.543
183.402
193.512
203.848
214.386
225.104
235.975
246.973
258.072
269.245
280.464
291.703
302.933
314.124
325.234
336.232
347.087
357.764
368.167
378.242
387.972
397.338
406.324
414.914
423.1
430.838
438.121
444.941
451.292
457.168
462.57
467.501
471.97
475.98
479.547
482.693
485.445
487.832
489.883
491.629
493.102
494.329
495.331
496.118
496.692
497.041
497.139
496.946
496.412
495.48
494.087
492.172
489.677
486.558
482.78
478.325
473.193
467.399
460.974
453.962
446.42
438.414
430.019
421.312
412.373
403.283
394.117
384.951
375.85
366.878
358.091
349.537
341.261
333.3
325.688
318.453
311.601
305.119
299.023
293.32
288.012
283.092
278.551
274.375
270.549
267.054
263.87
260.976
258.35
255.969
253.808
251.844
250.051
248.406
246.885
245.462
244.115
242.822
241.559
240.306
239.044
237.754
236.419
235.022
233.55
231.99
230.33
228.557
226.634
224.555
222.325
219.943
217.414
214.739
211.922
208.969
205.883
202.673
199.345
195.909
192.372
188.746
185.039
181.263
177.427
173.542
169.617
165.662
161.686
157.699
153.71
149.727
145.76
141.816
137.904
134.03
130.202
126.426
122.707
119.053
115.467
111.955
108.522
105.172
101.908
98.7338
95.6523
92.6653
89.7743
86.9798
84.2812
81.6771
79.1651
76.7419
74.4033
72.1448
69.9616
67.8508
65.8081
63.8668
62.0597
11.8477
8.49049
8.14001
8.58089
9.38219
10.4098
11.6103
12.9611
14.4549
16.0925
17.8797
19.8249
21.9385
24.2314
26.7155
29.4025
32.3048
35.4348
38.8049
42.4282
46.3178
50.4871
54.9493
59.7171
64.8025
70.2175
75.9737
82.0815
88.5504
95.3887
102.603
110.196
118.168
126.515
135.236
144.324
153.771
163.565
173.693
184.139
194.884
205.903
217.161
228.635
240.296
252.117
264.067
276.115
288.232
300.385
312.545
324.684
336.77
348.739
360.564
372.21
383.603
394.64
405.303
415.566
425.408
434.805
443.735
452.18
460.111
467.509
474.362
480.659
486.394
491.564
496.174
500.232
503.749
506.744
509.244
511.285
512.909
514.159
515.083
515.731
516.152
516.389
516.476
516.435
516.273
515.979
515.525
514.865
513.94
512.681
511.014
508.866
506.172
502.877
498.942
494.347
489.089
483.183
476.661
469.569
461.965
453.92
445.506
436.804
427.892
418.85
409.753
400.673
391.675
382.819
374.159
365.742
357.611
349.802
342.349
335.243
328.494
322.122
316.134
310.533
305.314
300.469
295.983
291.84
288.022
284.509
281.277
278.304
275.566
273.037
270.693
268.508
266.458
264.516
262.66
260.865
259.108
257.369
255.625
253.859
252.051
250.185
248.247
246.222
244.1
241.867
239.501
236.978
234.301
231.473
228.498
225.377
222.115
218.717
215.189
211.537
207.769
203.895
199.923
195.865
191.729
187.528
183.272
178.973
174.641
170.286
165.92
161.551
157.19
152.845
148.526
144.242
140.001
135.809
131.676
127.606
123.606
119.683
115.84
112.084
108.418
104.847
101.375
98.0042
94.7381
91.5789
88.5283
85.5873
82.7559
80.0333
77.4177
74.9062
72.4951
70.18
67.9559
65.8175
63.7613
61.7817
59.9067
58.161
11.9211
8.55603
8.15957
8.54601
9.29797
10.2849
11.4532
12.7795
14.2565
15.886
17.6748
19.633
21.7728
24.1073
26.6506
29.4173
32.4223
35.6802
39.2065
43.0167
47.1268
51.5527
56.3104
61.4144
66.8774
72.713
78.9338
85.5513
92.5754
100.014
107.875
116.163
124.869
133.989
143.52
153.453
163.777
174.477
185.536
196.936
208.658
220.672
232.926
245.398
258.058
270.872
283.806
296.826
309.897
322.983
336.051
349.065
361.986
374.763
387.356
399.708
411.69
423.276
434.436
445.14
455.359
465.067
474.237
482.844
490.862
498.267
505.044
511.178
516.66
521.488
525.663
529.197
532.103
534.403
536.132
537.331
538.053
538.355
538.301
537.959
537.4
536.69
535.888
535.04
534.178
533.311
532.427
531.49
530.444
529.215
527.72
525.87
523.58
520.773
517.387
513.378
508.722
503.416
497.476
490.934
483.839
476.251
468.241
459.884
451.258
442.442
433.514
424.548
415.611
406.768
398.076
389.586
381.344
373.39
365.759
358.441
351.46
344.837
338.585
332.705
327.196
322.047
317.248
312.781
308.627
304.766
301.174
297.829
294.705
291.777
289.019
286.406
283.912
281.512
279.183
276.9
274.64
272.384
270.11
267.8
265.437
263.005
260.489
257.879
255.162
252.325
249.335
246.192
242.9
239.462
235.88
232.159
228.305
224.323
220.22
216.004
211.685
207.272
202.777
198.208
193.58
188.902
184.187
179.446
174.691
169.932
165.181
160.446
155.74
151.07
146.445
141.875
137.367
132.929
128.566
124.287
120.095
115.997
111.997
108.1
104.309
100.629
97.061
93.6092
90.2756
87.0621
83.9696
80.9989
78.1495
75.4203
72.8089
70.3124
67.9265
65.6465
63.4669
61.3822
59.3878
57.4772
55.6733
53.9937
11.9087
8.59607
8.16993
8.50719
9.21434
10.1666
11.3101
12.6214
14.0934
15.7287
17.536
19.5276
21.7179
24.1227
26.7592
29.6454
32.7997
36.2394
39.9829
44.0494
48.4578
53.2272
58.3767
63.923
69.8774
76.255
83.069
90.3309
98.0499
106.234
114.888
124.025
133.614
143.655
154.139
165.054
176.386
188.115
200.218
212.671
225.446
238.509
251.816
265.333
279.023
292.849
306.772
320.753
334.753
348.733
362.652
376.475
390.155
403.644
416.885
429.744
442.192
454.193
465.713
476.716
487.17
497.044
506.309
514.934
522.894
530.162
536.718
542.547
547.637
551.985
555.593
558.471
560.636
562.115
562.944
563.173
562.862
562.079
560.904
559.422
557.723
555.898
554.031
552.196
550.451
548.831
547.345
545.972
544.665
543.351
541.939
540.325
538.406
536.08
533.261
529.88
525.888
521.259
515.99
510.097
503.616
496.597
489.102
481.202
472.972
464.49
455.835
447.08
438.298
429.554
420.91
412.42
404.133
396.092
388.332
380.848
373.675
366.836
360.344
354.206
348.419
342.976
337.865
333.07
328.573
324.352
320.386
316.649
313.117
309.765
306.567
303.497
300.531
297.642
294.809
292.006
289.214
286.41
283.576
280.693
277.747
274.72
271.603
268.383
265.049
261.58
257.958
254.189
250.276
246.223
242.035
237.716
233.274
228.714
224.047
219.28
214.425
209.491
204.49
199.435
194.336
189.208
184.06
178.907
173.759
168.628
163.524
158.458
153.44
148.478
143.583
138.762
134.022
129.371
124.815
120.36
116.01
111.77
107.645
103.638
99.752
95.9901
92.3548
88.8481
85.4717
82.2268
79.1142
76.1337
73.2847
70.5655
67.9735
65.5052
63.1563
60.9215
58.7952
56.7711
54.8443
53.0069
51.2775
49.6679
11.8406
8.61392
8.17013
8.4672
9.13878
10.0668
11.1981
12.5091
13.9938
15.6565
17.5084
19.5647
21.8428
24.3621
27.1437
30.2104
33.5858
37.2887
41.3421
45.7689
50.5915
55.8324
61.5149
67.6593
74.2682
81.36
88.9477
97.0407
105.646
114.766
124.404
134.556
145.205
156.337
167.939
179.992
192.473
205.358
218.616
232.217
246.126
260.302
274.703
289.286
304.009
318.83
333.706
348.593
363.448
378.229
392.889
407.395
421.692
435.71
449.329
462.521
475.251
487.479
499.166
510.275
520.769
530.614
539.777
548.229
555.939
562.882
569.034
574.379
578.905
582.607
585.487
587.558
588.838
589.355
589.152
588.283
586.814
584.824
582.403
579.653
576.68
573.598
570.516
567.536
564.745
562.207
559.956
557.994
556.287
554.767
553.342
551.895
550.304
548.446
546.206
543.488
540.214
536.335
531.824
526.678
520.917
514.576
507.71
500.38
492.66
484.623
476.346
467.906
459.375
450.823
442.311
433.899
425.638
417.575
409.74
402.143
394.822
387.804
381.105
374.734
368.689
362.964
357.55
352.431
347.589
343.004
338.653
334.512
330.558
326.765
323.108
319.562
316.101
312.703
309.343
305.999
302.651
299.279
295.864
292.39
288.842
285.206
281.473
277.631
273.668
269.558
265.304
260.911
256.381
251.721
246.935
242.03
237.014
231.894
226.681
221.385
216.016
210.587
205.109
199.596
194.059
188.511
182.966
177.435
171.93
166.462
161.044
155.683
150.392
145.177
140.049
135.015
130.081
125.255
120.541
115.946
111.472
107.125
102.907
98.822
94.8713
91.0574
87.382
83.8465
80.4518
77.1986
74.0869
71.1162
68.2853
65.592
63.0336
60.6061
58.3048
56.1244
54.0587
52.1012
50.2462
48.4851
46.8323
45.295
11.7555
8.61221
8.15853
8.42927
9.08101
10.0018
11.1399
12.4733
13.9979
15.7214
17.6579
19.8275
22.252
24.9545
27.9619
31.3035
35.0126
39.1048
43.6105
48.5571
53.9702
59.874
66.2915
73.2407
80.731
88.7746
97.3801
106.552
116.291
126.595
137.455
148.86
160.788
173.219
186.127
199.486
213.265
227.431
241.946
256.771
271.865
287.182
302.676
318.298
334.003
349.743
365.469
381.139
396.701
412.115
427.326
442.306
456.938
471.149
484.911
498.194
510.957
523.16
534.761
545.72
555.999
565.564
574.379
582.412
589.634
596.018
601.54
606.183
609.936
612.794
614.76
615.848
616.079
615.485
614.111
612.015
609.27
605.962
602.19
598.068
593.719
589.273
584.863
580.617
576.651
573.06
569.908
567.221
564.987
563.149
561.616
560.266
558.959
557.549
555.894
553.868
551.365
548.305
544.636
540.332
535.394
529.843
523.719
517.076
509.979
502.499
494.712
486.692
478.513
470.247
461.957
453.705
445.546
437.528
429.68
422.026
414.608
407.454
400.585
394.01
387.732
381.746
376.042
370.608
365.426
360.478
355.741
351.192
346.809
342.566
338.439
334.405
330.438
326.516
322.617
318.72
314.805
310.853
306.847
302.773
298.616
294.365
290.012
285.544
280.946
276.207
271.332
266.326
261.195
255.943
250.579
245.109
239.542
233.888
228.157
222.36
216.51
210.618
204.698
198.762
192.823
186.895
180.991
175.122
169.3
163.538
157.845
152.231
146.707
141.28
135.96
130.752
125.663
120.7
115.866
111.167
106.605
102.184
97.9067
93.7744
89.789
85.9516
82.263
78.724
75.3347
72.0952
69.0047
66.0623
63.2662
60.614
58.1023
55.7271
53.4833
51.3653
49.3667
47.4808
45.7012
44.0186
42.4441
40.9813
11.6942
8.59431
8.13715
8.40169
9.05683
9.99571
11.1698
12.5606
14.1678
16.0046
18.0891
20.4498
23.1151
26.1112
29.4744
33.2408
37.4471
42.122
47.2985
53.0071
59.2752
66.1273
73.5838
81.6594
90.3612
99.6936
109.656
120.243
131.445
143.246
155.628
168.566
182.028
195.982
210.393
225.221
240.427
255.967
271.797
287.87
304.138
320.55
337.058
353.609
370.151
386.637
403.013
419.238
435.253
451.027
466.483
481.502
496.074
510.171
523.763
536.817
549.293
561.148
572.342
582.834
592.586
601.561
609.725
617.046
623.493
629.04
633.665
637.351
640.087
641.872
642.71
642.617
641.617
639.747
637.054
633.601
629.467
624.742
619.534
613.965
608.17
602.293
596.487
590.901
585.679
580.945
576.793
573.281
570.42
568.171
566.45
565.133
564.069
563.089
562.025
560.719
559.035
556.861
554.116
550.75
546.739
542.087
536.819
530.978
524.622
517.814
510.628
503.137
495.414
487.531
479.555
471.55
463.571
455.671
447.877