/*--------------------------------*- C++ -*----------------------------------*\
  =========                 |
  \\      /  F ield         | OpenFOAM: The Open Source CFD Toolbox
   \\    /   O peration     | Website:  https://openfoam.org
    \\  /    A nd           | Version:  7
     \\/     M anipulation  |
\*---------------------------------------------------------------------------*/
FoamFile
{
    version     2.0;
    format      ascii;
    class       volScalarField;
    location    "500";
    object      k;
}
// * * * * * * * * * * * * * * * * * * * * * * * * * * * * * * * * * * * * * //

dimensions      [0 2 -2 0 0 0 0];

internalField   nonuniform List<scalar> 
16900
(
0.0340261
0.057151
0.077751
0.0951538
0.109096
0.119767
0.127486
0.132592
0.135538
0.137157
0.13887
0.137215
0.137819
0.150148
0.163022
0.17615
0.189511
0.203096
0.216908
0.230947
0.245219
0.259727
0.274475
0.289464
0.304694
0.320165
0.335872
0.351813
0.367979
0.384364
0.400959
0.417753
0.434736
0.451895
0.469219
0.486694
0.504307
0.522046
0.539896
0.557846
0.575881
0.59399
0.61216
0.630379
0.648637
0.666922
0.685222
0.703528
0.721829
0.740114
0.758374
0.7766
0.794781
0.812909
0.830978
0.848982
0.866921
0.884798
0.902629
0.920442
0.938294
0.956281
0.974567
0.992792
1.01083
1.02864
1.0462
1.06345
1.08034
1.09681
1.11278
1.12818
1.14293
1.15692
1.17006
1.18224
1.19334
1.20325
1.21185
1.219
1.22459
1.2285
1.23061
1.23083
1.22906
1.22522
1.21927
1.21117
1.20092
1.18854
1.17407
1.15759
1.1392
1.11903
1.09725
1.07402
1.04963
1.02471
1.00004
0.978621
0.95929
0.939857
0.920098
0.900066
0.879855
0.859566
0.839298
0.81914
0.799173
0.779471
0.760097
0.741108
0.722555
0.704481
0.686926
0.669929
0.65353
0.637781
0.622761
0.609034
0.596092
0.583718
0.571887
0.56062
0.549943
0.539881
0.530451
0.521667
0.513542
0.506086
0.499305
0.493203
0.487779
0.483026
0.478935
0.475488
0.47266
0.470421
0.468733
0.467548
0.466821
0.466516
0.46661
0.467025
0.467609
0.468515
0.470628
0.47412
0.477805
0.481346
0.484654
0.487688
0.490414
0.492826
0.494979
0.497099
0.498754
0.499996
0.50084
0.501302
0.501405
0.501312
0.501953
0.503477
0.505063
0.50659
0.508041
0.509411
0.510695
0.511893
0.513
0.514017
0.514941
0.515773
0.516511
0.517158
0.517712
0.518174
0.518546
0.518828
0.519022
0.519129
0.519149
0.519084
0.518935
0.518701
0.518383
0.517982
0.517498
0.516933
0.516289
0.515573
0.514794
0.513966
0.513119
0.512297
0.511592
0.511189
0.511571
0.514813
0.0528061
0.0788232
0.101244
0.120863
0.137672
0.151978
0.164384
0.175812
0.187666
0.201697
0.218179
0.238486
0.259642
0.282125
0.305011
0.328363
0.352203
0.376513
0.401285
0.42652
0.452222
0.478398
0.505052
0.532189
0.559811
0.587917
0.616505
0.645569
0.6751
0.705087
0.735516
0.766372
0.797637
0.829291
0.861314
0.893683
0.926377
0.959373
0.992649
1.02618
1.05995
1.09394
1.12813
1.1625
1.19704
1.23173
1.26656
1.30153
1.33662
1.37184
1.40716
1.4426
1.47815
1.51381
1.54959
1.58547
1.62148
1.65762
1.69389
1.73032
1.76691
1.80369
1.84027
1.8767
1.91309
1.94944
1.98569
2.02178
2.05762
2.09313
2.12817
2.16263
2.19633
2.22912
2.26078
2.29111
2.31987
2.34681
2.37167
2.39417
2.41403
2.43096
2.44469
2.45495
2.4615
2.46412
2.46263
2.4569
2.44682
2.43238
2.41358
2.39051
2.36329
2.33209
2.29716
2.25869
2.21691
2.17255
2.12692
2.08053
2.03353
1.9859
1.93788
1.88977
1.84184
1.79435
1.74751
1.70154
1.65661
1.61287
1.57045
1.52947
1.49001
1.45218
1.41603
1.38163
1.34907
1.31843
1.28991
1.2628
1.23709
1.21291
1.19032
1.16936
1.15006
1.13242
1.11643
1.10208
1.08936
1.07824
1.06869
1.06069
1.05419
1.04914
1.04549
1.04316
1.04208
1.04216
1.04329
1.04536
1.04828
1.05191
1.05618
1.061
1.06628
1.07197
1.07802
1.08433
1.09066
1.09688
1.10289
1.10864
1.11409
1.11925
1.12353
1.12677
1.12936
1.13141
1.13292
1.13392
1.1344
1.13442
1.13401
1.13331
1.13214
1.1305
1.12838
1.12579
1.12273
1.11919
1.1152
1.11074
1.10584
1.10048
1.09469
1.08847
1.08182
1.07477
1.06731
1.05946
1.05124
1.04265
1.03371
1.02442
1.0148
1.00486
0.994608
0.984054
0.973209
0.962084
0.95069
0.93904
0.927149
0.915031
0.902701
0.890171
0.877431
0.864404
0.851425
0.837823
0.0696381
0.0991386
0.123695
0.145773
0.166048
0.185069
0.203611
0.22265
0.243233
0.266061
0.290966
0.317922
0.346093
0.375059
0.404532
0.434539
0.465123
0.496298
0.528066
0.560433
0.593405
0.62699
0.661192
0.696016
0.731461
0.767526
0.804207
0.841494
0.879376
0.917836
0.956857
0.996417
1.03649
1.07705
1.11806
1.1595
1.20133
1.24351
1.28601
1.32881
1.37185
1.41512
1.45858
1.50219
1.54594
1.5898
1.63374
1.67775
1.72181
1.7659
1.81001
1.85415
1.89828
1.94243
1.98658
2.03074
2.07492
2.11911
2.16334
2.2076
2.25191
2.29623
2.34024
2.3841
2.42786
2.4715
2.51499
2.55825
2.60122
2.64379
2.68585
2.72724
2.7678
2.80733
2.84561
2.8824
2.91741
2.95035
2.9809
3.00871
3.03345
3.05475
3.07225
3.08562
3.09452
3.09867
3.09783
3.09178
3.08039
3.0636
3.0414
3.01384
2.98108
2.94328
2.90076
2.85355
2.80298
2.74967
2.69438
2.63763
2.57972
2.52092
2.46163
2.40223
2.34308
2.28452
2.22684
2.17029
2.11511
2.06148
2.00958
1.95954
1.91149
1.86552
1.82173
1.78021
1.74103
1.70428
1.66993
1.63745
1.60692
1.57841
1.55193
1.5275
1.50513
1.48479
1.46646
1.45012
1.43573
1.42326
1.41265
1.40385
1.39679
1.3914
1.3876
1.38529
1.38435
1.38468
1.38614
1.38861
1.39195
1.39603
1.40073
1.40594
1.41156
1.41747
1.4235
1.42953
1.43543
1.44108
1.44641
1.45136
1.45589
1.45969
1.46241
1.46425
1.46534
1.46575
1.46548
1.46456
1.46298
1.46077
1.45796
1.45459
1.45059
1.44597
1.44071
1.43485
1.42838
1.42132
1.41367
1.40546
1.39669
1.38738
1.37754
1.36718
1.35633
1.34499
1.33318
1.32093
1.30825
1.29515
1.28166
1.2678
1.25357
1.239
1.2241
1.20888
1.19336
1.17755
1.16147
1.14512
1.12852
1.11168
1.09459
1.07723
1.05956
1.04143
1.02322
1.00511
0.0844448
0.117374
0.144273
0.16873
0.192084
0.215076
0.238415
0.26283
0.288925
0.316971
0.346823
0.378268
0.410916
0.444396
0.478512
0.513261
0.548678
0.584784
0.621589
0.659105
0.697339
0.736297
0.775986
0.816407
0.857563
0.899451
0.942064
0.985392
1.02942
1.07413
1.11951
1.16552
1.21213
1.25931
1.30702
1.35522
1.40386
1.45291
1.50231
1.55203
1.602
1.65219
1.70254
1.75302
1.80359
1.8542
1.90482
1.95543
2.00598
2.05646
2.10685
2.15713
2.20728
2.25731
2.30719
2.35694
2.40655
2.45603
2.5054
2.55466
2.60385
2.65269
2.70123
2.74953
2.79763
2.84552
2.89317
2.94054
2.98758
3.03418
3.08024
3.12564
3.17019
3.21372
3.256
3.29677
3.33574
3.37259
3.40699
3.43854
3.46685
3.49153
3.51214
3.5283
3.5396
3.54569
3.54626
3.54104
3.52985
3.51255
3.48912
3.45957
3.42406
3.38267
3.33606
3.28485
3.22982
3.17164
3.11094
3.04824
2.98396
2.91853
2.85245
2.78616
2.72009
2.65465
2.59016
2.52695
2.46527
2.40535
2.3474
2.29157
2.23801
2.18685
2.13818
2.0921
2.04871
2.00813
1.96991
1.93402
1.90045
1.86923
1.84036
1.81382
1.78959
1.76765
1.74796
1.73047
1.71513
1.70188
1.69065
1.68136
1.67393
1.66826
1.66424
1.66174
1.66064
1.6608
1.66207
1.6643
1.66736
1.67108
1.67532
1.67996
1.68486
1.68987
1.69486
1.69968
1.70422
1.70839
1.71213
1.71535
1.71793
1.7194
1.71988
1.71946
1.71821
1.71616
1.71334
1.70974
1.70538
1.7003
1.69451
1.68801
1.68079
1.67284
1.66418
1.65482
1.6448
1.63412
1.62281
1.61088
1.59836
1.58527
1.57163
1.55746
1.54278
1.52762
1.51199
1.49593
1.47946
1.4626
1.44538
1.42781
1.40992
1.39173
1.37326
1.35452
1.33553
1.3163
1.29685
1.27718
1.2573
1.2372
1.21688
1.1963
1.17537
1.15395
1.13259
1.1122
0.0976664
0.13352
0.162722
0.18938
0.215309
0.241401
0.268286
0.296484
0.326339
0.357954
0.391204
0.425892
0.461772
0.498591
0.536205
0.574585
0.613745
0.6537
0.694463
0.736043
0.778449
0.821687
0.865765
0.910686
0.95645
1.00306
1.0505
1.09877
1.14784
1.19771
1.24835
1.29972
1.3518
1.40453
1.45788
1.51179
1.56622
1.62111
1.6764
1.73203
1.78793
1.84405
1.90033
1.9567
2.01312
2.06952
2.12586
2.1821
2.23818
2.29408
2.34976
2.40519
2.46035
2.51522
2.56979
2.62405
2.67799
2.73162
2.78495
2.83798
2.89071
2.94289
2.99464
3.04601
3.09704
3.14775
3.19812
3.24814
3.29777
3.34694
3.39557
3.44356
3.49075
3.53698
3.58203
3.62566
3.6676
3.70751
3.74504
3.77979
3.81134
3.83925
3.86304
3.88228
3.89648
3.90524
3.90817
3.90493
3.89526
3.87897
3.85599
3.82627
3.79001
3.74771
3.6999
3.64716
3.59014
3.52948
3.4658
3.39963
3.33148
3.26187
3.19135
3.12045
3.04965
2.97939
2.91008
2.84206
2.77565
2.71109
2.64863
2.58846
2.53074
2.47561
2.4232
2.37361
2.32696
2.28324
2.24206
2.20347
2.16747
2.13408
2.10326
2.07501
2.04927
2.02601
2.00516
1.98667
1.97046
1.95645
1.94456
1.93469
1.92671
1.92052
1.91597
1.91293
1.91124
1.91075
1.9113
1.91271
1.91484
1.91751
1.92057
1.92388
1.92728
1.93064
1.93381
1.93667
1.93913
1.94109
1.94248
1.94322
1.94285
1.94139
1.93892
1.93551
1.93118
1.92597
1.91988
1.91294
1.90515
1.89657
1.8872
1.87705
1.86611
1.8544
1.84193
1.82873
1.81483
1.80026
1.78505
1.76922
1.75282
1.73585
1.71836
1.70037
1.68192
1.66302
1.64372
1.62404
1.60401
1.58366
1.56303
1.54212
1.52099
1.49963
1.47808
1.45636
1.43448
1.41245
1.39028
1.36798
1.34555
1.32297
1.30022
1.27724
1.25397
1.23028
1.20687
1.18511
0.10943
0.147592
0.178855
0.207445
0.235468
0.263926
0.293405
0.324298
0.356819
0.390999
0.426732
0.46386
0.502208
0.541607
0.581948
0.623193
0.665341
0.708398
0.752373
0.797276
0.843115
0.889899
0.937633
0.986322
1.03597
1.08658
1.13813
1.19064
1.24407
1.29841
1.35364
1.40971
1.4666
1.52426
1.58263
1.64166
1.70128
1.76144
1.82205
1.88305
1.94436
2.0059
2.0676
2.12938
2.19117
2.25289
2.31449
2.37589
2.43704
2.49789
2.55838
2.61849
2.67816
2.73737
2.7961
2.85432
2.91201
2.96918
3.02583
3.08196
3.13747
3.19224
3.24638
3.29997
3.35304
3.40564
3.45778
3.50946
3.56068
3.61141
3.6616
3.71117
3.76002
3.808
3.85494
3.90063
3.9448
3.98715
4.02732
4.06493
4.09954
4.13067
4.15782
4.18049
4.19814
4.2103
4.21649
4.2163
4.20939
4.19549
4.17444
4.14644
4.11169
4.07058
4.02359
3.97124
3.91412
3.85285
3.78803
3.72022
3.65
3.57795
3.50467
3.43074
3.3567
3.28304
3.21021
3.13861
3.06859
3.00043
2.93442
2.87077
2.80967
2.75128
2.69576
2.64322
2.59379
2.54728
2.5035
2.46252
2.42434
2.38895
2.35633
2.32644
2.29922
2.27462
2.25256
2.23295
2.21572
2.20075
2.18794
2.17716
2.16827
2.16114
2.15561
2.15152
2.1487
2.14697
2.14617
2.1461
2.14661
2.14752
2.14867
2.1499
2.15107
2.15204
2.15267
2.15285
2.15249
2.1515
2.14982
2.1471
2.14317
2.13815
2.13207
2.12498
2.1169
2.10787
2.09789
2.087
2.07521
2.06257
2.0491
2.03481
2.01972
2.00383
1.98718
1.96981
1.95174
1.93302
1.91369
1.89379
1.87334
1.8524
1.83098
1.80914
1.78691
1.76432
1.74141
1.71822
1.69477
1.67112
1.64728
1.62329
1.59918
1.57497
1.5507
1.52637
1.502
1.4776
1.45319
1.42875
1.40428
1.37977
1.35517
1.33043
1.30549
1.28027
1.25556
1.23296
0.119814
0.159668
0.192652
0.222871
0.252571
0.282825
0.314207
0.347041
0.38148
0.417532
0.45511
0.494091
0.534347
0.57576
0.618248
0.661773
0.706324
0.751904
0.798518
0.846173
0.89488
0.944646
0.99548
1.04739
1.10038
1.15445
1.2096
1.26583
1.32311
1.38144
1.44077
1.50109
1.56235
1.62449
1.68747
1.75121
1.81565
1.88071
1.9463
2.01235
2.07875
2.14541
2.21224
2.27915
2.34604
2.41283
2.47942
2.54575
2.61172
2.67728
2.74235
2.80687
2.8708
2.93407
2.99666
3.05853
3.11964
3.17998
3.23955
3.29835
3.35613
3.41296
3.46893
3.52411
3.57857
3.63234
3.68549
3.73805
3.79004
3.84148
3.89235
3.94263
3.99226
4.04113
4.08913
4.13609
4.18178
4.22595
4.26825
4.30833
4.34575
4.38001
4.4106
4.43696
4.45851
4.4747
4.48494
4.48876
4.48572
4.47557
4.45822
4.43373
4.40225
4.36409
4.31963
4.26934
4.21376
4.15348
4.08909
4.02119
3.9504
3.87735
3.80268
3.72701
3.65094
3.57501
3.49971
3.42549
3.35273
3.28177
3.21292
3.14642
3.0825
3.02135
2.96313
2.90799
2.85605
2.80698
2.7608
2.71756
2.67728
2.63993
2.60549
2.5739
2.54509
2.51899
2.49551
2.47455
2.456
2.43973
2.4256
2.41349
2.40322
2.39464
2.38758
2.38185
2.37727
2.37366
2.37083
2.36859
2.36677
2.3652
2.36371
2.36214
2.36036
2.35821
2.35559
2.35239
2.34851
2.34386
2.33827
2.3314
2.32333
2.31413
2.30382
2.29246
2.28005
2.26664
2.25223
2.23688
2.2206
2.20344
2.18544
2.16663
2.14702
2.12663
2.10552
2.08371
2.06125
2.0382
2.01459
1.99047
1.9659
1.9409
1.91553
1.88984
1.86385
1.83762
1.81118
1.78459
1.75787
1.73106
1.70421
1.67735
1.65051
1.62372
1.597
1.57037
1.54385
1.51745
1.49116
1.46499
1.43891
1.41291
1.38694
1.36095
1.33488
1.30871
1.28324
1.26016
0.128873
0.16988
0.204228
0.235768
0.266789
0.298399
0.331169
0.365397
0.401212
0.438619
0.477555
0.517927
0.55964
0.602611
0.646778
0.692108
0.738587
0.786214
0.834994
0.884935
0.936046
0.988338
1.04182
1.09651
1.15241
1.20952
1.26785
1.3274
1.38814
1.45008
1.51316
1.57737
1.64266
1.70898
1.77626
1.84443
1.91342
1.98312
2.05346
2.12432
2.19561
2.2672
2.33898
2.41086
2.4827
2.5544
2.62586
2.69697
2.76764
2.83777
2.90728
2.97609
3.04412
3.11131
3.17759
3.24291
3.30723
3.37051
3.43272
3.49382
3.55355
3.61205
3.6694
3.72569
3.78098
3.83535
3.88888
3.94162
3.99365
4.04501
4.09575
4.14589
4.19543
4.24432
4.29251
4.33989
4.38632
4.43158
4.47537
4.51738
4.55722
4.59435
4.62828
4.65845
4.68415
4.7048
4.71975
4.72844
4.73044
4.72544
4.71324
4.69378
4.66711
4.63342
4.59301
4.54628
4.49373
4.4359
4.37338
4.30679
4.23677
4.16401
4.08916
4.01292
3.93589
3.85869
3.78184
3.70583
3.63109
3.55802
3.48694
3.41814
3.35187
3.28836
3.22777
3.17029
3.11597
3.06453
3.01606
2.97064
2.92827
2.88892
2.85257
2.81915
2.78857
2.76074
2.73557
2.71293
2.69268
2.67469
2.65881
2.64486
2.63268
2.62209
2.6129
2.60491
2.59793
2.59177
2.58624
2.58115
2.57632
2.57157
2.56674
2.56169
2.55626
2.55034
2.54379
2.53654
2.52848
2.51952
2.50925
2.49771
2.48495
2.47103
2.45598
2.43983
2.42262
2.40436
2.3851
2.36487
2.34373
2.32171
2.29886
2.27523
2.25084
2.22572
2.19994
2.17353
2.14654
2.11904
2.09107
2.06269
2.03395
2.00491
1.97561
1.9461
1.91643
1.88664
1.8568
1.82693
1.79708
1.76731
1.73764
1.70811
1.67876
1.64963
1.62072
1.59208
1.5637
1.53559
1.50776
1.4802
1.45287
1.42576
1.39883
1.372
1.34526
1.31858
1.29278
1.2695
0.136699
0.178398
0.213769
0.246339
0.27837
0.310982
0.344746
0.379953
0.416729
0.455089
0.494993
0.536375
0.57917
0.623317
0.668771
0.715506
0.763511
0.812785
0.863334
0.915165
0.968293
1.02273
1.07849
1.13559
1.19404
1.25386
1.31503
1.37757
1.44147
1.50671
1.57327
1.6411
1.71017
1.78041
1.85177
1.92415
1.99748
2.07165
2.14656
2.22209
2.29811
2.3745
2.45113
2.52785
2.60455
2.68107
2.75731
2.83312
2.9084
2.98303
3.0569
3.12991
3.20196
3.27297
3.34283
3.41149
3.47886
3.54491
3.60959
3.67266
3.73407
3.79392
3.85229
3.90927
3.96494
4.0194
4.07272
4.12503
4.1764
4.22695
4.27677
4.32593
4.3745
4.42251
4.46996
4.51686
4.56313
4.60861
4.6531
4.69633
4.73801
4.77756
4.81452
4.84838
4.87828
4.90364
4.92382
4.9382
4.94626
4.94754
4.94171
4.92856
4.90803
4.88017
4.8452
4.80341
4.75526
4.70123
4.64192
4.57794
4.50996
4.43868
4.36481
4.28905
4.21208
4.13453
4.05698
3.97997
3.90398
3.82943
3.75669
3.68608
3.6179
3.55238
3.48973
3.43015
3.37359
3.31991
3.26925
3.22167
3.17719
3.13578
3.09739
3.06196
3.02939
2.99957
2.97239
2.94771
2.92537
2.90523
2.8871
2.87081
2.85618
2.843
2.83109
2.82023
2.81023
2.80089
2.79201
2.78342
2.77492
2.76635
2.75756
2.74838
2.73869
2.72837
2.71731
2.70542
2.69259
2.67856
2.66318
2.64651
2.62862
2.60955
2.58933
2.568
2.5456
2.52215
2.49771
2.47232
2.44604
2.41892
2.39101
2.36237
2.33304
2.30307
2.27251
2.24142
2.20985
2.17787
2.14554
2.11292
2.08006
2.04702
2.01387
1.98064
1.9474
1.9142
1.88109
1.84811
1.81532
1.78275
1.75046
1.71848
1.68685
1.6556
1.62476
1.59434
1.56437
1.53484
1.50575
1.47708
1.44882
1.42092
1.39335
1.36605
1.33898
1.31216
1.28633
1.26308
0.143366
0.185392
0.221486
0.254817
0.287591
0.320912
0.355355
0.391215
0.428621
0.46761
0.508161
0.550236
0.593792
0.638788
0.685195
0.732997
0.782186
0.832766
0.884744
0.938133
0.99295
1.04921
1.10694
1.16615
1.22687
1.2891
1.35285
1.41813
1.48494
1.55326
1.62306
1.6943
1.76695
1.84094
1.9162
1.99264
2.07016
2.14866
2.22802
2.3081
2.38876
2.46985
2.55123
2.63273
2.71419
2.79547
2.87642
2.95687
3.0367
3.11577
3.19393
3.27108
3.34707
3.4218
3.49516
3.56703
3.63734
3.706
3.77291
3.83775
3.90059
3.9615
4.02058
4.0779
4.13354
4.18762
4.24023
4.29151
4.3416
4.39063
4.43876
4.48613
4.53285
4.57903
4.62479
4.6702
4.71532
4.76005
4.80428
4.84785
4.89061
4.93191
4.97136
5.00842
5.04242
5.07268
5.09849
5.11914
5.13397
5.1424
5.14392
5.13818
5.12494
5.10414
5.07585
5.04029
4.99782
4.94888
4.89404
4.8339
4.76915
4.70049
4.62867
4.55443
4.47847
4.40147
4.32406
4.24681
4.17025
4.09484
4.02099
3.94907
3.87938
3.81221
3.74779
3.68635
3.62768
3.57189
3.51911
3.46941
3.42279
3.37923
3.33868
3.30106
3.26627
3.23418
3.20467
3.17759
3.15276
3.13002
3.10919
3.09007
3.07245
3.05615
3.04096
3.02666
3.01305
2.99995
2.98715
2.97446
2.96172
2.94876
2.93543
2.92158
2.90709
2.89184
2.87574
2.85868
2.84053
2.82098
2.8001
2.77795
2.75458
2.73003
2.70434
2.67754
2.64968
2.62081
2.59098
2.56024
2.52866
2.4963
2.46323
2.42951
2.39518
2.36032
2.32497
2.2892
2.25308
2.21668
2.18005
2.14327
2.10639
2.06948
2.03261
1.99582
1.95917
1.92272
1.88652
1.85062
1.81507
1.77992
1.74522
1.711
1.6773
1.64417
1.61161
1.57966
1.54833
1.51762
1.48752
1.45801
1.42907
1.40065
1.37272
1.34522
1.31811
1.29142
1.26583
1.24278
0.148959
0.191025
0.227582
0.261442
0.294723
0.32851
0.363376
0.399623
0.437393
0.476741
0.517672
0.560169
0.60421
0.649776
0.696852
0.745431
0.795515
0.847112
0.900235
0.954903
1.01114
1.06897
1.12841
1.18949
1.25224
1.31667
1.38279
1.45062
1.52015
1.59137
1.66426
1.73877
1.81486
1.89246
1.97149
2.05187
2.13348
2.21621
2.29991
2.38446
2.46967
2.5554
2.64145
2.72765
2.81382
2.89979
2.98537
3.07039
3.15469
3.23811
3.32049
3.40168
3.48153
3.55988
3.6366
3.71157
3.78465
3.85576
3.92461
3.99101
4.05504
4.11675
4.17623
4.23356
4.28881
4.34208
4.3935
4.44323
4.49143
4.53828
4.58399
4.62878
4.67279
4.71622
4.75927
4.80216
4.84508
4.88801
4.93091
4.97378
5.01646
5.05862
5.09988
5.13972
5.17752
5.21256
5.24409
5.27129
5.29336
5.30956
5.31921
5.32177
5.31683
5.30417
5.28371
5.25556
5.21997
5.17734
5.12816
5.07304
5.01265
4.94772
4.87901
4.80727
4.73326
4.65768
4.58121
4.50447
4.42801
4.35236
4.27795
4.20519
4.13443
4.06596
4.00005
3.93692
3.87638
3.81863
3.76382
3.71202
3.66324
3.61746
3.57463
3.53465
3.49742
3.4628
3.43066
3.40083
3.37314
3.3474
3.32342
3.301
3.27994
3.26002
3.24104
3.2228
3.20508
3.18769
3.17045
3.15318
3.1357
3.11785
3.09951
3.08051
3.06076
3.04015
3.01859
2.99596
2.972
2.94666
2.92001
2.89212
2.86303
2.83277
2.8014
2.76896
2.7355
2.70108
2.66576
2.62959
2.59266
2.55504
2.51679
2.47799
2.4387
2.39899
2.35892
2.31857
2.278
2.23729
2.19651
2.15572
2.11499
2.07438
2.03397
1.9938
1.95394
1.91445
1.87537
1.83677
1.79868
1.76117
1.72428
1.68804
1.6525
1.6177
1.58365
1.55038
1.51791
1.48623
1.45533
1.42519
1.39579
1.36708
1.33901
1.31153
1.28462
1.25826
1.23309
1.21038
0.153531
0.195424
0.232244
0.266436
0.300029
0.334076
0.369152
0.405566
0.443478
0.482961
0.524044
0.566734
0.611028
0.656927
0.704431
0.753545
0.804282
0.856658
0.910695
0.966418
1.02386
1.08305
1.14401
1.20679
1.2714
1.33787
1.40623
1.47647
1.5486
1.62261
1.69848
1.77616
1.85561
1.93674
2.01947
2.10371
2.18934
2.27622
2.3642
2.45314
2.54285
2.63313
2.72379
2.81461
2.9054
2.99595
3.08607
3.17556
3.26422
3.35187
3.43833
3.52343
3.60698
3.6888
3.76871
3.84657
3.92223
3.99551
4.06601
4.13371
4.19865
4.26089
4.32047
4.37749
4.43198
4.48404
4.53382
4.5815
4.62725
4.6713
4.7139
4.75537
4.79585
4.83563
4.87502
4.91434
4.95386
4.99375
5.03416
5.07519
5.1168
5.15885
5.20104
5.24294
5.28397
5.32343
5.36048
5.39423
5.42375
5.44811
5.46645
5.47803
5.48225
5.47868
5.46709
5.44744
5.41986
5.38467
5.3423
5.29332
5.2384
5.17826
5.11366
5.0454
4.97425
4.90095
4.82622
4.75072
4.67505
4.59977
4.52536
4.45225
4.38083
4.31143
4.24434
4.17974
4.11754
4.05799
4.00125
3.9474
3.89647
3.84841
3.80319
3.7607
3.72084
3.68346
3.64842
3.61554
3.58465
3.55555
3.52805
3.50193
3.477
3.45304
3.42985
3.40722
3.38496
3.36286
3.34076
3.31847
3.29585
3.27273
3.24898
3.22448
3.19912
3.17281
3.14544
3.11687
3.08688
3.05557
3.02299
2.9892
2.95425
2.91818
2.88104
2.84288
2.80377
2.76377
2.72295
2.68138
2.63914
2.5963
2.55296
2.50918
2.46504
2.42062
2.37598
2.3312
2.28636
2.24153
2.19678
2.15219
2.10782
2.06374
2.02001
1.97671
1.93387
1.89157
1.84986
1.80878
1.7684
1.72875
1.6899
1.65187
1.61471
1.57845
1.54312
1.50874
1.47532
1.44286
1.41136
1.38078
1.3511
1.32227
1.29424
1.26695
1.24039
1.21452
1.18991
1.16766
0.157097
0.198674
0.235627
0.270009
0.303749
0.337883
0.372989
0.409388
0.447255
0.486686
0.527731
0.57042
0.614773
0.660808
0.708542
0.757997
0.809196
0.862166
0.916941
0.973554
1.03205
1.09245
1.15482
1.21918
1.28556
1.35399
1.42449
1.49708
1.57176
1.64852
1.72734
1.80816
1.89093
1.97556
2.06196
2.15002
2.23962
2.3306
2.42282
2.51609
2.61022
2.70499
2.80015
2.89549
2.99078
3.0858
3.18031
3.27409
3.36693
3.45862
3.54896
3.63775
3.72478
3.80981
3.89264
3.97311
4.05104
4.12603
4.19787
4.26657
4.33211
4.39453
4.45387
4.51025
4.5636
4.61405
4.66176
4.7069
4.7497
4.79038
4.82923
4.86657
4.9027
4.93797
4.97278
5.00753
5.04262
5.0784
5.11518
5.1532
5.19262
5.23344
5.27551
5.31852
5.36198
5.40519
5.44731
5.48735
5.52427
5.55695
5.58435
5.6055
5.61957
5.62592
5.62413
5.61398
5.59548
5.5688
5.53434
5.49259
5.4442
5.38987
5.33039
5.26655
5.19915
5.12898
5.05679
4.98326
4.90906
4.83476
4.76089
4.68794
4.6163
4.54635
4.4784
4.41258
4.34895
4.28777
4.22923
4.17341
4.12033
4.06998
4.02229
3.97718
3.93453
3.8942
3.85603
3.81985
3.78548
3.75272
3.72137
3.69123
3.66209
3.63374
3.60599
3.57863
3.55147
3.52433
3.49703
3.46941
3.44132
3.41263
3.38319
3.35291
3.3217
3.28945
3.25606
3.2213
3.1852
3.14783
3.10925
3.06951
3.02866
2.98676
2.94385
2.90001
2.85529
2.80978
2.76355
2.71668
2.66925
2.62136
2.57308
2.5245
2.4757
2.42676
2.37776
2.32878
2.2799
2.23119
2.18273
2.13458
2.08683
2.03954
1.99277
1.94658
1.90103
1.85619
1.8121
1.76881
1.72638
1.68485
1.64427
1.60468
1.56612
1.52862
1.49222
1.45692
1.42274
1.38968
1.35773
1.32687
1.29705
1.26825
1.24039
1.21343
1.18733
1.16206
1.13809
1.11638
0.159633
0.200826
0.237885
0.272352
0.306106
0.340179
0.375163
0.411391
0.449059
0.48828
0.529131
0.571664
0.615919
0.661936
0.709751
0.759401
0.810926
0.864366
0.919764
0.977169
1.03663
1.09819
1.16191
1.22781
1.29595
1.36633
1.43899
1.51395
1.5912
1.67074
1.75253
1.83654
1.92266
2.01081
2.10089
2.19277
2.28632
2.38137
2.47776
2.5753
2.67377
2.77294
2.87249
2.97219
3.07181
3.17108
3.26976
3.3676
3.46436
3.55979
3.65368
3.74583
3.83602
3.92387
4.00922
4.09187
4.17151
4.24776
4.32056
4.38984
4.45559
4.5178
4.57648
4.63171
4.68348
4.73189
4.77709
4.81925
4.8586
4.89538
4.92992
4.96256
4.99368
5.02371
5.05311
5.08241
5.11212
5.14275
5.17478
5.20863
5.24465
5.28302
5.32379
5.36678
5.41163
5.45771
5.50419
5.55003
5.59406
5.63502
5.67164
5.70272
5.7272
5.74418
5.75301
5.75328
5.74482
5.72769
5.70217
5.6687
5.62787
5.58036
5.52697
5.46848
5.40573
5.33952
5.27064
5.19983
5.12776
5.05507
4.98232
4.91002
4.83861
4.7685
4.70004
4.63327
4.56845
4.50586
4.44566
4.38796
4.3328
4.28015
4.22997
4.18215
4.1366
4.09317
4.0517
4.01202
3.97395
3.9373
3.90186
3.86743
3.83382
3.80082
3.76824
3.73589
3.70358
3.67114
3.6384
3.60522
3.57146
3.53699
3.50169
3.46546
3.42823
3.38989
3.35031
3.30937
3.26715
3.22374
3.17918
3.13353
3.08684
3.03917
2.9906
2.94118
2.891
2.84013
2.78866
2.73667
2.68426
2.63151
2.57852
2.52538
2.47217
2.41898
2.3659
2.31299
2.26035
2.20805
2.15616
2.10476
2.05393
2.00371
1.95419
1.90542
1.85746
1.81036
1.76417
1.71894
1.67473
1.63157
1.58952
1.5486
1.50887
1.47034
1.43305
1.39702
1.36225
1.32876
1.29651
1.2655
1.23568
1.20701
1.17943
1.15288
1.12732
1.10271
1.07944
1.05832
0.16108
0.201953
0.23916
0.273649
0.307299
0.341182
0.375913
0.411843
0.449184
0.488073
0.528608
0.570866
0.614912
0.660804
0.708601
0.758361
0.810141
0.863994
0.919977
0.978152
1.03858
1.10132
1.16643
1.23395
1.30391
1.37634
1.45127
1.52869
1.60863
1.69105
1.77594
1.86324
1.95282
2.04456
2.13837
2.2341
2.33161
2.43071
2.53121
2.63291
2.73563
2.83906
2.94281
3.04665
3.15033
3.25357
3.35609
3.45762
3.5579
3.65665
3.75362
3.84858
3.94127
4.03137
4.11867
4.20287
4.28354
4.36056
4.43381
4.5032
4.56867
4.6302
4.68777
4.74142
4.79118
4.83711
4.87936
4.91809
4.95353
4.98595
5.01568
5.04309
5.06864
5.09278
5.11609
5.13916
5.16264
5.18718
5.21342
5.24198
5.27338
5.30806
5.34624
5.38797
5.43302
5.48089
5.5308
5.58171
5.63236
5.68132
5.72714
5.76836
5.80363
5.83181
5.85198
5.8635
5.866
5.85939
5.84381
5.81962
5.78735
5.74766
5.7013
5.64909
5.59186
5.53046
5.46568
5.3983
5.32905
5.25859
5.18752
5.1164
5.04569
4.97582
4.90717
4.8398
4.77408
4.71028
4.6486
4.58916
4.53199
4.47709
4.42441
4.37386
4.32535
4.27873
4.23384
4.19053
4.14861
4.10789
4.06819
4.0293
3.99104
3.95321
3.91562
3.8781
3.84047
3.80257
3.76426
3.72538
3.68582
3.64547
3.60421
3.56197
3.51866
3.4742
3.4284
3.38135
3.33311
3.28374
3.23331
3.18187
3.12949
3.07622
3.02216
2.96736
2.91191
2.85591
2.79943
2.74258
2.68545
2.62813
2.57072
2.51332
2.45601
2.39888
2.34202
2.28551
2.22943
2.17386
2.11888
2.06456
2.01096
1.95815
1.9062
1.85517
1.80509
1.75604
1.70805
1.66118
1.61546
1.57094
1.52767
1.48567
1.44498
1.40564
1.36767
1.33109
1.2959
1.26211
1.22971
1.19867
1.16895
1.1405
1.11328
1.08721
1.06224
1.03832
1.01577
0.995275
0.161522
0.202197
0.239588
0.274042
0.307489
0.341076
0.375449
0.410979
0.447897
0.486364
0.526501
0.568411
0.612184
0.657901
0.705646
0.755502
0.807548
0.861845
0.918468
0.977493
1.03899
1.10304
1.16971
1.23904
1.31103
1.38571
1.46312
1.54324
1.62607
1.71158
1.79975
1.89059
1.98378
2.07924
2.17686
2.27649
2.37795
2.48105
2.58557
2.69128
2.79794
2.90524
3.01285
3.12047
3.22781
3.33458
3.44046
3.54517
3.6484
3.74987
3.8493
3.94642
4.04095
4.1326
4.22107
4.30592
4.38702
4.46419
4.53729
4.60619
4.67083
4.73112
4.78706
4.83863
4.88588
4.92886
4.96769
5.00254
5.03363
5.06123
5.0857
5.10744
5.12691
5.14466
5.16129
5.17749
5.19402
5.21165
5.23117
5.2534
5.27907
5.30882
5.34313
5.38228
5.42624
5.47468
5.52693
5.58199
5.63854
5.69505
5.74984
5.80121
5.84753
5.88735
5.91948
5.94299
5.9573
5.96211
5.95743
5.9435
5.92077
5.88985
5.85148
5.80645
5.75562
5.69984
5.63995
5.57675
5.511
5.44341
5.37461
5.30519
5.23565
5.16646
5.09797
5.03036
4.96403
4.89928
4.83633
4.7753
4.71624
4.65917
4.60404
4.55078
4.49929
4.44945
4.40109
4.35407
4.30822
4.26335
4.21928
4.17583
4.13281
4.09004
4.04735
4.00457
3.96155
3.91813
3.87417
3.82956
3.78418
3.73792
3.69071
3.64247
3.59312
3.54255
3.49071
3.4377
3.38359
3.32845
3.27233
3.21531
3.15744
3.09881
3.0395
2.97958
2.91915
2.8583
2.79712
2.73572
2.67419
2.61262
2.55113
2.48981
2.42874
2.36802
2.30775
2.24799
2.18883
2.13035
2.07263
2.01574
1.95973
1.90468
1.85064
1.79766
1.74581
1.69512
1.64564
1.59741
1.55047
1.50487
1.46063
1.41779
1.37639
1.33645
1.29799
1.26104
1.22559
1.19166
1.15923
1.12826
1.09873
1.07059
1.04378
1.01823
0.993885
0.970667
0.948856
0.928999
0.161178
0.201766
0.239301
0.273649
0.306809
0.340015
0.373951
0.40901
0.445444
0.48344
0.523144
0.56469
0.608193
0.653758
0.701498
0.751529
0.803962
0.858852
0.916295
0.976384
1.0392
1.10484
1.17338
1.24488
1.31925
1.39656
1.4768
1.55997
1.64604
1.73496
1.82667
1.92109
2.01801
2.11729
2.21878
2.32229
2.42765
2.53461
2.64294
2.7524
2.86269
2.97352
3.08454
3.19543
3.30588
3.41557
3.52416
3.63133
3.73678
3.84018
3.94123
4.03966
4.13516
4.22738
4.31595
4.40072
4.4815
4.55809
4.63032
4.69805
4.76116
4.81959
4.87326
4.92219
4.96637
5.00586
5.04078
5.07127
5.09756
5.11993
5.13873
5.15438
5.16737
5.17828
5.18778
5.19661
5.2056
5.21565
5.2277
5.24271
5.26164
5.28534
5.31456
5.34982
5.39136
5.43907
5.49244
5.55057
5.61214
5.67554
5.7389
5.80028
5.85774
5.90953
5.95411
5.99027
6.01715
6.03425
6.04138
6.03865
6.02642
6.00523
5.97577
5.93885
5.89529
5.84597
5.79175
5.73348
5.67193
5.60785
5.54191
5.47473
5.40686
5.33878
5.27087
5.20338
5.13676
5.07134
5.00735
4.94492
4.88414
4.82502
4.76753
4.71163
4.65721
4.60416
4.55234
4.50161
4.4518
4.40276
4.3543
4.30625
4.25845
4.21073
4.16293
4.11489
4.06647
4.01754
3.96798
3.91767
3.86652
3.81444
3.76136
3.70723
3.65195
3.59543
3.53777
3.47903
3.41928
3.3586
3.29706
3.23472
3.17166
3.10795
3.0437
2.97898
2.9139
2.84854
2.78301
2.71741
2.65184
2.5864
2.52121
2.45634
2.3919
2.32798
2.26467
2.20205
2.14019
2.07919
2.0191
1.96
1.90195
1.84501
1.78923
1.73467
1.68137
1.62936
1.57871
1.52943
1.48156
1.43514
1.3902
1.34678
1.30488
1.26456
1.22581
1.18867
1.15313
1.11919
1.08685
1.05607
1.02682
0.999055
0.972707
0.947711
0.924006
0.901499
0.880417
0.861206
0.160384
0.2009
0.23843
0.272569
0.30537
0.338136
0.371587
0.406139
0.442071
0.479599
0.518896
0.560136
0.603463
0.648999
0.696896
0.747308
0.800421
0.856215
0.914835
0.976393
1.04098
1.10867
1.17954
1.25362
1.33086
1.41128
1.49485
1.58153
1.67126
1.76396
1.85952
1.95781
2.05865
2.16185
2.26722
2.37457
2.48365
2.59423
2.70606
2.81884
2.93228
3.04607
3.15986
3.27331
3.38609
3.49786
3.60826
3.71696
3.82362
3.92792
4.02952
4.12814
4.22339
4.31499
4.40278
4.48657
4.56615
4.6413
4.71184
4.77758
4.83841
4.89422
4.94495
4.99056
5.03106
5.0665
5.09696
5.1226
5.14364
5.16034
5.17308
5.18228
5.18844
5.19218
5.19418
5.19525
5.19629
5.19827
5.20226
5.20936
5.22072
5.23742
5.26045
5.29061
5.32844
5.37409
5.4273
5.4873
5.55287
5.62233
5.69369
5.76476
5.83332
5.89725
5.95467
6.00405
6.04421
6.07439
6.09421
6.1036
6.1028
6.09228
6.07268
6.04475
6.00934
5.96733
5.91959
5.86698
5.81034
5.75043
5.68797
5.6236
5.55791
5.49142
5.42449
5.35752
5.29097
5.22519
5.16042
5.09683
5.03452
4.97351
4.91381
4.85537
4.79811
4.74194
4.68672
4.63234
4.57863
4.52545
4.47265
4.42006
4.36753
4.31491
4.26206
4.20883
4.15511
4.10077
4.0457
3.98982
3.93303
3.87528
3.81651
3.75665
3.69563
3.63346
3.57024
3.50606
3.44098
3.37507
3.30841
3.24108
3.17316
3.10474
3.0359
2.96675
2.89738
2.8279
2.75841
2.68901
2.6198
2.5509
2.4824
2.4144
2.347
2.28028
2.21434
2.14925
2.0851
2.02196
1.9599
1.89897
1.83925
1.78079
1.72363
1.66782
1.61341
1.56042
1.5089
1.45887
1.41036
1.3634
1.31803
1.27425
1.2321
1.1916
1.15277
1.11561
1.08013
1.04634
1.01421
0.983724
0.954841
0.927513
0.90168
0.877273
0.854224
0.832433
0.812077
0.793523
0.159511
0.199822
0.237098
0.270901
0.303278
0.335568
0.368519
0.402577
0.438046
0.475186
0.514188
0.555294
0.598682
0.644464
0.692853
0.744034
0.798182
0.855378
0.915753
0.979414
1.04645
1.11692
1.19086
1.26828
1.34914
1.43339
1.52096
1.61176
1.70569
1.80262
1.90239
2.00482
2.10971
2.21685
2.32601