/*--------------------------------*- C++ -*----------------------------------*\
  =========                 |
  \\      /  F ield         | OpenFOAM: The Open Source CFD Toolbox
   \\    /   O peration     | Website:  https://openfoam.org
    \\  /    A nd           | Version:  7
     \\/     M anipulation  |
\*---------------------------------------------------------------------------*/
FoamFile
{
    version     2.0;
    format      ascii;
    class       volScalarField;
    location    "500";
    object      nut;
}
// * * * * * * * * * * * * * * * * * * * * * * * * * * * * * * * * * * * * * //

dimensions      [0 2 -1 0 0 0 0];

internalField   nonuniform List<scalar> 
16900
(
4.11487e-05
8.53147e-05
0.000116238
0.000142475
0.000163683
0.000180131
0.000192391
0.000201392
0.000208991
0.000218689
0.000221567
0.000220473
4.80001e-05
4.99384e-05
5.20425e-05
5.41052e-05
5.61258e-05
5.81085e-05
6.00574e-05
6.19761e-05
6.38681e-05
6.57358e-05
6.75821e-05
6.94085e-05
7.12167e-05
7.30078e-05
7.47827e-05
7.65419e-05
7.8286e-05
8.0015e-05
8.17289e-05
8.34276e-05
8.51109e-05
8.67785e-05
8.84301e-05
9.00653e-05
9.16836e-05
9.32849e-05
9.48686e-05
9.64346e-05
9.79824e-05
9.95119e-05
0.000101023
0.000102515
0.000103988
0.000105442
0.000106877
0.000108293
0.00010969
0.000111067
0.000112426
0.000113765
0.000115084
0.000116385
0.000117667
0.00011893
0.000120175
0.000121403
0.000122614
0.000123811
0.000124998
0.000126179
0.000127364
0.000128549
0.000129712
0.000130853
0.000131969
0.000133061
0.000134124
0.000135156
0.000136154
0.000137115
0.000138033
0.000138906
0.000139728
0.000140494
0.000141198
0.000141834
0.000142397
0.000142879
0.000143275
0.000143577
0.00014378
0.000143876
0.000143861
0.000143728
0.000143473
0.000143093
0.000142585
0.000141946
0.000141177
0.000140279
0.000139253
0.000138104
0.000136836
0.000135456
0.000133981
0.00013241
0.000130806
0.00012932
0.000128063
0.000126797
0.000125493
0.000124152
0.000122777
0.000121376
0.000119955
0.000118519
0.000117075
0.000115629
0.000114185
0.000112748
0.000111322
0.000109912
0.000108522
0.000107154
0.000105812
0.000104498
0.000103188
0.000101985
0.000100864
9.97825e-05
9.87335e-05
9.77185e-05
9.67411e-05
9.58049e-05
9.4913e-05
9.40685e-05
9.32739e-05
9.25317e-05
9.18441e-05
9.12133e-05
9.0641e-05
9.01285e-05
8.96765e-05
8.92851e-05
8.89538e-05
8.86817e-05
8.84671e-05
8.83062e-05
8.8192e-05
8.8118e-05
8.8093e-05
8.81311e-05
8.81477e-05
8.79451e-05
8.7764e-05
8.80204e-05
8.83801e-05
8.87432e-05
8.9091e-05
8.94163e-05
8.97124e-05
9.00167e-05
9.01804e-05
9.04405e-05
9.06499e-05
9.08183e-05
9.09495e-05
9.10451e-05
9.11077e-05
9.11551e-05
9.12908e-05
9.14618e-05
9.16277e-05
9.17862e-05
9.19374e-05
9.2081e-05
9.22169e-05
9.23449e-05
9.24649e-05
9.25768e-05
9.26806e-05
9.27762e-05
9.28637e-05
9.2943e-05
9.30143e-05
9.30777e-05
9.31331e-05
9.31808e-05
9.32209e-05
9.32534e-05
9.32787e-05
9.32967e-05
9.33076e-05
9.33115e-05
9.33084e-05
9.32985e-05
9.32817e-05
9.32584e-05
9.32287e-05
9.31932e-05
9.31525e-05
9.31083e-05
9.30629e-05
9.30209e-05
9.29909e-05
9.29911e-05
9.30694e-05
9.34254e-05
6.39203e-05
0.000153423
0.000203806
0.000237006
0.000260406
0.000275577
0.000283023
0.000283673
0.00027994
0.000275881
0.000273298
0.000267562
0.00025705
0.000270495
0.000285282
0.000300093
0.000314828
0.000329458
0.000343972
0.000358373
0.000372673
0.000386889
0.000401037
0.000415135
0.000429198
0.00044324
0.000457273
0.000471307
0.000485348
0.000499402
0.000513471
0.000527557
0.00054166
0.000555777
0.000569908
0.000584048
0.000598196
0.000612348
0.000626502
0.000640656
0.000654809
0.000668962
0.000683115
0.000697272
0.000711436
0.000725612
0.000739807
0.000754027
0.000768281
0.000782576
0.00079692
0.000811322
0.00082579
0.000840328
0.000854942
0.000869632
0.000884396
0.000899224
0.0009141
0.000928995
0.000943866
0.000958659
0.000972708
0.000986506
0.0010004
0.00101444
0.00102863
0.00104296
0.00105743
0.00107202
0.0010867
0.00110145
0.00111623
0.00113098
0.00114566
0.00116019
0.0011745
0.00118851
0.00120213
0.00121526
0.00122779
0.00123962
0.00125062
0.0012607
0.00126973
0.00127761
0.00128424
0.00128954
0.00129344
0.00129588
0.00129682
0.00129624
0.00129415
0.00129056
0.00128552
0.00127907
0.00127122
0.0012617
0.00125012
0.00123551
0.00121896
0.00120146
0.00118344
0.00116515
0.00114675
0.00112837
0.00111012
0.00109209
0.00107438
0.00105707
0.00104022
0.00102389
0.00100815
0.00099305
0.000978626
0.000964923
0.000951978
0.000939827
0.000928611
0.000916423
0.000904015
0.000892056
0.00088084
0.000870503
0.000861104
0.000852672
0.000845216
0.000838734
0.000833217
0.000828649
0.000825007
0.000822259
0.000820366
0.000819282
0.000818952
0.000819315
0.000820302
0.000821843
0.00082386
0.00082627
0.000828978
0.000831892
0.000834963
0.000838173
0.000841255
0.000843506
0.00084489
0.00084635
0.000848001
0.000849801
0.000851708
0.000853686
0.000855714
0.000857932
0.000858847
0.000858383
0.000857657
0.00085684
0.000855958
0.000855003
0.000853936
0.000852622
0.000850524
0.000847371
0.000843618
0.000839469
0.000834997
0.000830232
0.000825193
0.00081989
0.000814332
0.000808527
0.000802482
0.000796203
0.000789696
0.000782968
0.000776026
0.000768876
0.000761526
0.000753981
0.000746248
0.000738336
0.000730249
0.000721995
0.00071358
0.00070501
0.000696291
0.000687427
0.000678426
0.000669294
0.000660036
0.000650663
0.000641184
0.000631614
0.000621971
0.00061228
0.000602581
0.000592942
0.000583759
0.000575389
8.42857e-05
0.000203611
0.000272842
0.000314912
0.000343766
0.000364385
0.000379348
0.00039116
0.000402888
0.000417489
0.00043577
0.000456031
0.000479086
0.00050796
0.00053749
0.000566846
0.000595957
0.000624826
0.000653469
0.00068191
0.000710178
0.000738308
0.000766331
0.00079428
0.000822184
0.000850068
0.000877952
0.000905852
0.000933781
0.000961745
0.000989748
0.00101779
0.00104586
0.00107397
0.00110209
0.00113023
0.00115836
0.00118649
0.00121459
0.00124266
0.00127069
0.00129868
0.00132661
0.00135448
0.0013823
0.00141007
0.00143778
0.00146544
0.00149305
0.00152063
0.00154818
0.00157569
0.00160319
0.00163067
0.00165813
0.00168557
0.00171299
0.00174037
0.0017677
0.00179494
0.00182203
0.00184886
0.00187496
0.00190099
0.00192718
0.00195359
0.00198025
0.00200716
0.0020343
0.00206167
0.00208921
0.00211688
0.00214462
0.00217233
0.00219993
0.00222728
0.00225426
0.00228069
0.00230642
0.00233125
0.00235497
0.00237735
0.00239819
0.00241725
0.00243431
0.00244914
0.00246156
0.0024714
0.00247849
0.00248274
0.00248406
0.00248244
0.00247789
0.00247048
0.00246031
0.00244755
0.00243219
0.00241411
0.00239296
0.00236842
0.00234125
0.00231232
0.00228225
0.00225143
0.00222017
0.00218873
0.00215731
0.0021261
0.00209528
0.00206498
0.00203533
0.00200645
0.00197843
0.00195137
0.00192533
0.00190037
0.00187653
0.00185382
0.0018318
0.00180917
0.00178675
0.00176515
0.00174474
0.00172571
0.00170817
0.00169216
0.0016777
0.00166479
0.00165339
0.00164347
0.00163497
0.00162782
0.00162194
0.00161723
0.00161359
0.0016109
0.00160905
0.00160789
0.00160731
0.00160718
0.00160736
0.00160773
0.00160817
0.00160856
0.00160868
0.00160822
0.00160722
0.00160609
0.00160497
0.00160384
0.00160265
0.00160136
0.00159993
0.00159774
0.00159384
0.00158894
0.00158363
0.0015781
0.00157237
0.00156644
0.00156027
0.00155372
0.00154645
0.00153825
0.00152932
0.00151985
0.00150992
0.0014996
0.00148892
0.0014779
0.00146656
0.00145492
0.00144299
0.00143078
0.00141831
0.00140557
0.00139259
0.00137936
0.00136592
0.00135225
0.00133838
0.00132431
0.00131005
0.00129561
0.001281
0.00126622
0.00125129
0.0012362
0.00122097
0.0012056
0.00119009
0.00117445
0.00115869
0.00114284
0.0011269
0.00111091
0.00109491
0.00107902
0.00106389
0.00105114
0.000102195
0.000244399
0.000331204
0.000384274
0.000421721
0.000451527
0.000477778
0.000503389
0.000530839
0.000561753
0.000596409
0.000633655
0.000673248
0.000714613
0.000756136
0.000797358
0.000838213
0.000878714
0.000918894
0.000958792
0.000998452
0.00103792
0.00107724
0.00111645
0.0011556
0.0011947
0.0012338
0.0012729
0.00131202
0.00135117
0.00139035
0.00142956
0.00146878
0.00150801
0.00154723
0.00158643
0.00162557
0.00166465
0.00170365
0.00174254
0.0017813
0.00181992
0.00185838
0.00189667
0.00193479
0.00197271
0.00201045
0.00204799
0.00208533
0.00212248
0.00215944
0.0021962
0.00223278
0.00226917
0.00230537
0.00234139
0.00237722
0.00241287
0.00244832
0.00248359
0.00251868
0.00255312
0.00258721
0.00262132
0.00265559
0.0026901
0.00272489
0.00275997
0.00279536
0.00283102
0.00286694
0.00290306
0.00293931
0.00297559
0.00301179
0.00304776
0.00308334
0.00311832
0.00315248
0.00318557
0.00321732
0.00324743
0.0032756
0.00330151
0.00332485
0.00334533
0.00336265
0.00337657
0.00338688
0.00339341
0.00339606
0.00339478
0.00338959
0.0033806
0.0033679
0.00335168
0.00333202
0.00330893
0.00328238
0.00325243
0.00321963
0.00318466
0.00314808
0.00311036
0.00307188
0.00303296
0.00299387
0.00295485
0.00291614
0.00287791
0.00284032
0.00280353
0.00276765
0.00273277
0.00269899
0.00266634
0.00263487
0.00260462
0.00257444
0.00254446
0.00251518
0.002487
0.00246024
0.00243507
0.0024116
0.00238987
0.00236989
0.00235165
0.0023351
0.0023202
0.00230685
0.00229497
0.00228445
0.00227518
0.00226702
0.00225984
0.00225349
0.00224783
0.00224271
0.002238
0.00223355
0.00222923
0.00222492
0.0022205
0.00221583
0.0022108
0.00220544
0.0021999
0.0021942
0.00218832
0.0021822
0.00217574
0.00216877
0.00216037
0.00215085
0.0021406
0.00212992
0.00211895
0.00210771
0.00209621
0.00208442
0.00207223
0.00205949
0.00204604
0.00203195
0.00201733
0.00200225
0.00198678
0.00197095
0.0019548
0.00193836
0.00192163
0.00190465
0.00188742
0.00186996
0.00185228
0.0018344
0.00181634
0.00179809
0.00177969
0.00176113
0.00174244
0.00172362
0.00170469
0.00168564
0.0016665
0.00164727
0.00162795
0.00160854
0.00158906
0.00156949
0.00154986
0.00153016
0.00151039
0.00149057
0.0014707
0.0014508
0.001431
0.00141207
0.00139633
0.000118188
0.000279335
0.000382772
0.000448016
0.0004956
0.000535667
0.000573296
0.000611421
0.000651864
0.000695439
0.000742036
0.000790807
0.000841107
0.000892135
0.000943114
0.00099373
0.0010439
0.00109364
0.00114298
0.00119195
0.00124063
0.00128905
0.00133727
0.00138534
0.0014333
0.00148118
0.00152902
0.00157683
0.00162462
0.00167241
0.0017202
0.00176797
0.00181572
0.00186342
0.00191105
0.0019586
0.00200602
0.00205329
0.00210039
0.00214727
0.00219392
0.00224029
0.00228638
0.00233215
0.00237758
0.00242266
0.00246738
0.00251172
0.00255567
0.00259924
0.00264241
0.00268519
0.00272758
0.00276958
0.0028112
0.00285244
0.0028933
0.00293381
0.00297396
0.00301377
0.00305323
0.00309204
0.00313061
0.00316918
0.00320789
0.00324683
0.00328605
0.00332561
0.00336552
0.00340578
0.00344639
0.00348733
0.00352852
0.00356989
0.00361133
0.00365271
0.00369383
0.0037345
0.00377447
0.00381345
0.00385113
0.00388717
0.00392119
0.00395283
0.00398169
0.0040074
0.00402958
0.00404793
0.00406215
0.00407202
0.00407739
0.00407817
0.00407437
0.004066
0.00405326
0.00403632
0.00401534
0.00399046
0.00396184
0.00392973
0.0038946
0.003857
0.00381747
0.00377647
0.00373441
0.00369166
0.00364853
0.00360531
0.00356224
0.00351953
0.00347739
0.00343595
0.00339535
0.00335569
0.00331705
0.00327947
0.00324296
0.00320735
0.00317195
0.00313716
0.00310333
0.00307077
0.00303971
0.00301027
0.00298255
0.00295658
0.00293236
0.00290986
0.00288902
0.00286979
0.00285208
0.00283578
0.00282078
0.00280695
0.00279415
0.00278226
0.00277111
0.00276057
0.0027505
0.00274076
0.00273122
0.00272176
0.00271226
0.00270262
0.00269276
0.00268262
0.00267219
0.0026615
0.00265052
0.0026392
0.00262748
0.00261528
0.00260189
0.00258747
0.00257226
0.00255647
0.00254029
0.00252379
0.00250701
0.00248994
0.00247258
0.00245488
0.00243673
0.00241807
0.0023989
0.00237928
0.00235926
0.0023389
0.00231824
0.00229731
0.00227615
0.00225476
0.00223319
0.00221144
0.00218954
0.0021675
0.00214534
0.00212307
0.00210072
0.00207829
0.00205581
0.00203329
0.00201074
0.00198818
0.00196561
0.00194305
0.0019205
0.00189796
0.00187545
0.00185295
0.00183048
0.00180802
0.00178557
0.00176313
0.00174069
0.00171824
0.00169577
0.0016734
0.00165199
0.00163432
0.000132419
0.000309647
0.000428744
0.00050645
0.000564534
0.000614594
0.000662421
0.000710973
0.000761692
0.000814999
0.00087062
0.000927884
0.000986137
0.00104473
0.00110315
0.00116116
0.00121866
0.00127566
0.00133218
0.00138827
0.00144399
0.00149939
0.00155452
0.00160944
0.0016642
0.00171882
0.00177335
0.0018278
0.00188218
0.00193651
0.00199079
0.00204499
0.0020991
0.00215311
0.00220697
0.00226067
0.00231415
0.0023674
0.00242035
0.00247298
0.00252524
0.0025771
0.00262851
0.00267945
0.00272988
0.00277978
0.00282912
0.00287788
0.00292606
0.00297363
0.0030206
0.00306695
0.0031127
0.00315784
0.00320237
0.00324632
0.0032897
0.00333252
0.00337481
0.00341659
0.00345778
0.00349838
0.00353874
0.00357905
0.00361946
0.00366007
0.00370098
0.00374224
0.00378393
0.00382608
0.00386871
0.00391183
0.00395542
0.00399943
0.00404378
0.00408836
0.004133
0.0041775
0.00422163
0.00426508
0.00430753
0.00434859
0.00438785
0.00442487
0.00445919
0.00449037
0.00451793
0.0045415
0.00456068
0.00457518
0.0045848
0.00458929
0.00458867
0.00458301
0.00457245
0.00455716
0.00453735
0.00451323
0.00448507
0.00445322
0.0044181
0.00438024
0.00434012
0.00429823
0.004255
0.00421082
0.00416602
0.00412093
0.00407581
0.00403089
0.00398638
0.00394245
0.00389922
0.0038568
0.00381526
0.00377463
0.00373492
0.00369576
0.00365707
0.0036192
0.0035824
0.00354691
0.00351289
0.00348043
0.0034496
0.0034204
0.00339284
0.00336687
0.00334244
0.00331947
0.00329788
0.00327756
0.0032584
0.00324026
0.00322303
0.00320656
0.00319072
0.00317537
0.00316038
0.00314562
0.00313098
0.00311635
0.00310163
0.00308672
0.00307157
0.00305613
0.00304035
0.0030242
0.00300765
0.00299063
0.0029731
0.00295467
0.00293523
0.002915
0.00289417
0.00287287
0.00285121
0.00282925
0.00280702
0.00278451
0.00276174
0.00273869
0.0027153
0.00269154
0.0026674
0.00264291
0.00261811
0.00259306
0.00256778
0.00254231
0.00251669
0.00249093
0.00246508
0.00243914
0.00241314
0.00238711
0.00236106
0.00233501
0.00230898
0.002283
0.00225707
0.00223122
0.00220547
0.00217983
0.0021543
0.00212891
0.00210366
0.00207856
0.0020536
0.00202879
0.00200412
0.00197958
0.00195516
0.00193085
0.00190661
0.00188244
0.0018583
0.0018343
0.00181137
0.00179256
0.000144982
0.000335861
0.000469506
0.000559396
0.000627727
0.000687058
0.000743736
0.000800835
0.000859666
0.000920519
0.000983105
0.00104687
0.00111126
0.00117575
0.00123997
0.00130371
0.00136688
0.00142948
0.00149152
0.00155305
0.00161414
0.00167484
0.0017352
0.00179528
0.00185513
0.00191479
0.00197429
0.00203365
0.00209289
0.00215202
0.00221103
0.0022699
0.00232862
0.00238717
0.0024455
0.00250357
0.00256135
0.00261879
0.00267584
0.00273244
0.00278856
0.00284413
0.00289911
0.00295345
0.00300712
0.00306007
0.00311228
0.0031637
0.00321433
0.00326415
0.00331313
0.00336128
0.0034086
0.00345508
0.00350073
0.00354558
0.00358964
0.00363294
0.00367551
0.00371741
0.00375847
0.00379898
0.00383919
0.00387928
0.00391942
0.00395973
0.00400033
0.00404133
0.00408282
0.00412491
0.00416765
0.0042111
0.0042553
0.00430023
0.00434587
0.00439215
0.00443896
0.00448611
0.00453338
0.0045805
0.00462712
0.00467283
0.0047172
0.00475972
0.00479986
0.0048371
0.00487086
0.00490066
0.00492606
0.0049465
0.00496176
0.00497165
0.00497608
0.00497505
0.00496867
0.00495709
0.00494053
0.00491924
0.00489356
0.00486385
0.00483055
0.00479417
0.0047552
0.00471411
0.00467137
0.00462738
0.00458252
0.00453711
0.00449145
0.0044458
0.00440036
0.00435531
0.0043108
0.00426692
0.00422374
0.00418129
0.00413957
0.00409819
0.00405744
0.00401757
0.00397879
0.00394127
0.00390511
0.00387038
0.00383712
0.00380534
0.00377501
0.00374609
0.00371852
0.00369222
0.00366711
0.00364309
0.00362003
0.00359784
0.00357637
0.00355551
0.00353513
0.0035151
0.0034953
0.00347563
0.00345596
0.00343622
0.00341631
0.00339615
0.00337567
0.00335484
0.00333358
0.00331187
0.00328964
0.00326684
0.00324335
0.00321888
0.00319363
0.00316778
0.00314144
0.00311472
0.00308767
0.00306035
0.00303278
0.00300499
0.00297697
0.00294873
0.00292026
0.00289153
0.00286254
0.00283332
0.0028039
0.0027743
0.00274459
0.00271477
0.0026849
0.002655
0.0026251
0.00259523
0.00256541
0.00253566
0.00250601
0.00247648
0.0024471
0.00241789
0.00238887
0.00236006
0.00233148
0.00230314
0.00227507
0.00224728
0.00221977
0.00219256
0.00216563
0.002139
0.00211264
0.00208655
0.00206072
0.0020351
0.00200967
0.0019844
0.00195926
0.00193435
0.00191063
0.00189124
0.00015594
0.000358318
0.000505276
0.000606737
0.000684764
0.000752525
0.00081683
0.000880943
0.000946209
0.00101294
0.0010809
0.00114965
0.00121872
0.00128771
0.0013563
0.00142434
0.00149173
0.00155847
0.00162458
0.0016901
0.00175509
0.00181962
0.00188374
0.00194751
0.00201098
0.00207419
0.00213718
0.00219998
0.0022626
0.00232505
0.00238731
0.00244939
0.00251126
0.00257289
0.00263423
0.00269526
0.00275591
0.00281613
0.00287588
0.00293508
0.00299368
0.00305161
0.00310882
0.00316526
0.00322085
0.00327557
0.00332936
0.00338218
0.00343401
0.00348481
0.00353456
0.00358327
0.00363091
0.0036775
0.00372303
0.00376753
0.00381102
0.00385354
0.00389511
0.00393578
0.00397552
0.00401465
0.00405338
0.00409191
0.00413041
0.00416903
0.00420794
0.00424728
0.0042872
0.00432783
0.00436931
0.00441175
0.00445525
0.00449986
0.00454563
0.00459254
0.00464054
0.0046895
0.00473923
0.0047895
0.00483998
0.00489022
0.00493977
0.00498811
0.00503456
0.00507861
0.0051195
0.00515653
0.0051892
0.00521698
0.00523949
0.00525644
0.00526765
0.00527304
0.00527264
0.00526659
0.00525506
0.00523836
0.0052168
0.00519078
0.00516078
0.00512726
0.00509076
0.00505175
0.00501072
0.0049681
0.00492428
0.00487964
0.00483447
0.00478906
0.00474363
0.00469837
0.00465343
0.00460892
0.0045649
0.00452141
0.00447837
0.00443566
0.00439359
0.00435237
0.00431218
0.00427312
0.00423528
0.0041987
0.0041634
0.00412937
0.00409658
0.00406499
0.00403454
0.00400514
0.00397672
0.00394918
0.0039224
0.00389629
0.00387073
0.00384559
0.00382077
0.00379616
0.00377164
0.00374711
0.00372249
0.00369767
0.0036726
0.00364718
0.00362138
0.00359512
0.00356835
0.00354104
0.00351313
0.00348458
0.00345512
0.0034249
0.00339407
0.00336275
0.00333102
0.00329897
0.00326665
0.0032341
0.00320134
0.0031684
0.0031353
0.00310205
0.00306865
0.0030351
0.00300142
0.00296761
0.0029337
0.00289973
0.00286575
0.00283177
0.00279785
0.002764
0.00273026
0.00269667
0.00266325
0.00263002
0.00259702
0.00256427
0.0025318
0.00249963
0.00246779
0.00243631
0.00240519
0.00237448
0.00234417
0.0023143
0.00228487
0.00225589
0.00222735
0.00219927
0.00217161
0.00214437
0.00211753
0.00209105
0.00206488
0.002039
0.00201336
0.00198808
0.00196409
0.00194451
0.000165407
0.000377313
0.000536268
0.0006485
0.000735527
0.000810875
0.000881737
0.00095161
0.00102197
0.00109323
0.00116525
0.0012377
0.0013102
0.00138242
0.00145413
0.00152517
0.00159547
0.00166504
0.00173389
0.00180208
0.00186966
0.00193669
0.00200324
0.00206937
0.00213514
0.0022006
0.00226577
0.0023307
0.00239541
0.00245989
0.00252416
0.00258819
0.00265197
0.00271546
0.00277863
0.00284143
0.00290381
0.0029657
0.00302704
0.00308777
0.00314781
0.0032071
0.00326556
0.00332312
0.00337971
0.00343528
0.00348977
0.00354312
0.00359529
0.00364625
0.00369596
0.00374441
0.00379159
0.00383749
0.00388211
0.00392548
0.00396761
0.00400854
0.00404832
0.00408695
0.00412461
0.00416154
0.00419795
0.00423405
0.00427002
0.00430605
0.00434232
0.00437904
0.0044164
0.00445459
0.00449382
0.00453425
0.00457607
0.0046194
0.00466436
0.00471104
0.00475945
0.00480953
0.00486115
0.00491414
0.00496821
0.00502288
0.00507769
0.00513221
0.00518543
0.00523678
0.00528547
0.00533077
0.00537199
0.00540848
0.00543974
0.00546531
0.00548491
0.00549834
0.00550557
0.00550664
0.00550173
0.0054911
0.00547509
0.00545411
0.00542862
0.00539913
0.00536617
0.00533025
0.00529187
0.0052515
0.00520957
0.00516646
0.0051225
0.00507801
0.00503322
0.00498833
0.00494352
0.0048989
0.00485454
0.00481047
0.00476662
0.00472306
0.00468008
0.00463786
0.00459654
0.0045562
0.00451689
0.00447864
0.00444146
0.00440533
0.00437022
0.00433608
0.00430284
0.00427044
0.00423879
0.0042078
0.00417738
0.00414741
0.0041178
0.00408845
0.00405924
0.00403008
0.00400088
0.00397154
0.00394198
0.00391212
0.0038819
0.00385125
0.00382011
0.00378844
0.00375618
0.0037233
0.00368975
0.00365541
0.00362029
0.00358456
0.00354832
0.00351168
0.00347472
0.00343748
0.00340002
0.00336237
0.00332458
0.00328666
0.00324865
0.00321056
0.00317242
0.00313422
0.003096
0.00305777
0.00301955
0.00298139
0.00294331
0.00290536
0.00286757
0.00282997
0.0027926
0.0027555
0.00271869
0.00268221
0.00264608
0.00261033
0.002575
0.00254011
0.00250569
0.00247176
0.00243837
0.00240552
0.00237324
0.00234154
0.00231045
0.00227998
0.00225011
0.00222085
0.00219219
0.00216411
0.00213658
0.00210956
0.002083
0.00205686
0.00203112
0.00200587
0.00198199
0.00196249
0.000173472
0.000393112
0.00056271
0.000684808
0.000780081
0.000862201
0.000938672
0.00101324
0.00108757
0.0011622
0.00123714
0.00131213
0.00138691
0.0014612
0.00153483
0.00160767
0.00167967
0.00175083
0.00182119
0.0018908
0.00195972
0.00202802
0.00209578
0.00216305
0.00222991
0.00229641
0.00236258
0.00242848
0.00249412
0.00255951
0.00262467
0.00268958
0.00275422
0.00281856
0.00288257
0.00294619
0.00300937
0.00307204
0.00313414
0.00319558
0.0032563
0.0033162
0.00337521
0.00343323
0.0034902
0.00354603
0.00360065
0.00365399
0.003706
0.00375663
0.00380584
0.00385359
0.00389986
0.00394464
0.00398794
0.00402975
0.0040701
0.00410903
0.00414657
0.00418283
0.004218
0.00425231
0.00428594
0.00431912
0.00435204
0.00438492
0.00441798
0.00445145
0.00448559
0.00452065
0.00455688
0.00459456
0.00463391
0.00467516
0.00471853
0.00476419
0.00481229
0.00486282
0.00491573
0.00497092
0.00502829
0.00508717
0.00514714
0.00520764
0.00526786
0.00532703
0.00538429
0.00543878
0.00548965
0.0055361
0.00557744
0.00561306
0.00564251
0.00566548
0.0056818
0.00569146
0.00569456
0.00569135
0.00568213
0.00566734
0.00564745
0.00562298
0.00559448
0.00556248
0.00552753
0.00549012
0.00545071
0.00540972
0.00536752
0.00532442
0.00528071
0.0052366
0.00519228
0.00514788
0.00510348
0.00505914
0.00501476
0.00497062
0.00492695
0.00488389
0.00484156
0.00480002
0.00475931
0.00471945
0.00468042
0.00464222
0.0046048
0.00456811
0.0045321
0.0044967
0.00446182
0.00442739
0.00439332
0.00435951
0.00432587
0.0042923
0.00425872
0.00422503
0.00419116
0.00415703
0.00412255
0.00408768
0.00405233
0.00401647
0.00398004
0.003943
0.00390531
0.00386693
0.00382781
0.0037879
0.00374736
0.00370631
0.00366486
0.00362307
0.00358102
0.00353875
0.00349632
0.00345376
0.00341111
0.0033684
0.00332567
0.00328294
0.00324025
0.00319761
0.00315504
0.00311258
0.00307024
0.00302807
0.00298611
0.00294438
0.00290292
0.00286179
0.002821
0.00278059
0.00274061
0.00270108
0.00266203
0.0026235
0.00258552
0.00254812
0.00251133
0.00247519
0.00243972
0.00240495
0.0023709
0.0023376
0.00230506
0.0022733
0.00224232
0.00221211
0.00218267
0.00215397
0.00212598
0.00209867
0.00207198
0.00204586
0.00202029
0.00199535
0.00197185
0.00195262
0.000180251
0.000405943
0.000584795
0.000715815
0.000818566
0.000906681
0.000987899
0.00106622
0.00114351
0.00122048
0.00129725
0.00137371
0.00144966
0.0015249
0.0015993
0.00167277
0.00174528
0.00181685
0.00188752
0.00195736
0.00202643
0.00209482
0.00216261
0.00222987
0.00229669
0.00236311
0.0024292
0.002495
0.00256054
0.00262585
0.00269093
0.00275579
0.0028204
0.00288474
0.00294877
0.00301245
0.00307571
0.00313849
0.0032007
0.00326228
0.00332313
0.00338315
0.00344225
0.00350034
0.0035573
0.00361306
0.00366751
0.00372059
0.0037722
0.0038223
0.00387081
0.00391769
0.00396291
0.00400645
0.00404829
0.00408842
0.00412688
0.00416368
0.00419891
0.00423274
0.00426535
0.00429691
0.00432762
0.0043577
0.00438735
0.00441682
0.00444636
0.00447624
0.00450675
0.0045382
0.00457093
0.00460527
0.00464153
0.00468003
0.00472109
0.00476499
0.00481205
0.00486232
0.00491582
0.00497254
0.00503237
0.00509488
0.00515964
0.00522605
0.00529334
0.00536063
0.00542698
0.00549138
0.00555279
0.00561024
0.00566282
0.00570974
0.00575036
0.0057842
0.00581096
0.00583052
0.0058429
0.00584831
0.00584703
0.00583948
0.00582615
0.00580758
0.00578434
0.005757
0.00572614
0.00569228
0.00565593
0.00561754
0.0055775
0.00553618
0.00549387
0.00545083
0.00540726
0.0053633
0.00531906
0.00527458
0.0052299
0.00518532
0.00514105
0.00509721
0.00505389
0.00501115
0.00496903
0.00492751
0.00488661
0.00484629
0.00480651
0.00476724
0.00472842
0.00468997
0.00465184
0.00461393
0.00457619
0.00453851
0.00450082
0.00446304
0.00442509
0.00438688
0.00434837
0.00430946
0.00427011
0.00423025
0.00418984
0.00414884
0.00410719
0.00406486
0.00402183
0.00397806
0.00393352
0.00388831
0.00384259
0.00379645
0.00374997
0.00370323
0.00365629
0.00360918
0.00356197
0.0035147
0.0034674
0.00342012
0.00337289
0.00332575
0.00327873
0.00323186
0.00318518
0.0031387
0.00309246
0.00304651
0.00300086
0.00295558
0.00291068
0.00286622
0.00282223
0.00277874
0.0027358
0.00269344
0.00265169
0.00261058
0.00257016
0.00253045
0.0024915
0.00245333
0.00241597
0.00237946
0.00234383
0.0023091
0.00227529
0.00224241
0.00221048
0.00217949
0.00214943
0.00212028
0.002092
0.00206457
0.00203792
0.00201201
0.0019868
0.00196236
0.00193942
0.00192059
0.000185821
0.00041595
0.000602651
0.000741644
0.000851127
0.000944493
0.00102964
0.00111082
0.00119012
0.00126842
0.001346
0.00142286
0.00149888
0.00157394
0.00164796
0.00172089
0.00179273
0.00186352
0.00193331
0.0020022
0.00207025
0.00213758
0.00220428
0.00227043
0.00233613
0.00240144
0.00246643
0.00253117
0.00259569
0.00266003
0.0027242
0.00278821
0.00285205
0.0029157
0.00297912
0.00304227
0.00310507
0.00316747
0.00322938
0.00329071
0.00335135
0.00341121
0.00347017
0.00352811
0.00358492
0.00364049
0.00369471
0.00374747
0.00379868
0.00384826
0.00389612
0.0039422
0.00398645
0.00402883
0.00406931
0.00410789
0.00414456
0.00417935
0.0042125
0.0042441
0.00427429
0.00430324
0.00433113
0.00435817
0.00438458
0.00441062
0.00443657
0.00446272
0.00448941
0.004517
0.00454587
0.00457648
0.00460916
0.00464435
0.00468245
0.00472387
0.00476897
0.00481801
0.00487115
0.0049285
0.00499001
0.00505544
0.0051244
0.00519633
0.00527047
0.00534589
0.00542155
0.00549628
0.00556887
0.00563812
0.00570291
0.0057622
0.00581514
0.00586105
0.00589946
0.00593011
0.00595295
0.00596808
0.00597578
0.00597644
0.00597056
0.0059587
0.00594145
0.00591944
0.00589325
0.00586347
0.00583064
0.00579525
0.00575775
0.00571851
0.00567787
0.00563612
0.00559348
0.00555013
0.00550618
0.00546169
0.00541683
0.00537188
0.00532703
0.00528241
0.00523809
0.00519412
0.00515052
0.0051073
0.00506445
0.00502195
0.00497976
0.00493784
0.00489614
0.0048546
0.00481316
0.00477174
0.00473029
0.00468873
0.00464699
0.004605
0.00456269
0.00452001
0.00447688
0.00443325
0.00438909
0.00434433
0.00429894
0.00425288
0.00420612
0.00415865
0.00411041
0.00406141
0.00401172
0.00396148
0.00391081
0.00385981
0.00380853
0.00375706
0.00370544
0.00365373
0.00360197
0.00355022
0.00349851
0.00344689
0.00339541
0.00334411
0.00329301
0.00324217
0.00319161
0.00314136
0.00309147
0.00304197
0.00299289
0.00294429
0.00289619
0.00284864
0.00280167
0.00275533
0.00270966
0.00266468
0.00262044
0.00257697
0.00253431
0.00249249
0.00245156
0.00241154
0.00237247
0.0023344
0.00229733
0.00226132
0.00222638
0.00219252
0.00215977
0.00212812
0.00209756
0.00206808
0.00203963
0.00201219
0.0019857
0.00196011
0.00193539
0.00191156
0.00188929
0.00187094
0.000190244
0.000423163
0.000616291
0.000762359
0.000877868
0.000975757
0.00106403
0.00114717
0.00122751
0.00130613
0.00138345
0.0014596
0.00153456
0.00160829
0.00168074
0.00175193
0.00182189
0.00189069
0.00195841
0.00202516
0.00209105
0.00215619
0.0022207
0.00228468
0.00234824
0.00241148
0.00247447
0.00253728
0.00259997
0.00266259
0.00272515
0.00278768
0.00285018
0.00291261
0.00297496
0.00303716
0.00309917
0.00316089
0.00322224
0.00328312
0.00334342
0.00340302
0.00346178
0.00351957
0.00357626
0.00363171
0.00368579
0.00373838
0.00378934
0.00383859
0.00388601
0.00393152
0.00397505
0.00401654
0.00405594
0.00409323
0.00412838
0.00416161
0.00419306
0.00422279
0.0042509
0.00427754
0.00430289
0.00432715
0.00435055
0.00437334
0.00439582
0.00441831
0.00444118
0.00446482
0.00448968
0.00451622
0.00454491
0.00457624
0.00461073
0.00464889
0.00469121
0.0047381
0.0047899
0.00484685
0.00490907
0.00497647
0.00504878
0.00512551
0.00520595
0.00528916
0.00537399
0.00545916
0.00554326
0.00562487
0.00570258
0.00577512
0.00584136
0.0059004
0.00595156
0.00599441
0.00602877
0.00605466
0.00607232
0.0060821
0.00608451
0.00608012
0.00606956
0.00605347
0.00603252
0.00600731
0.00597843
0.00594641
0.00591176
0.00587488
0.00583615
0.00579589
0.00575434
0.00571172
0.00566817
0.00562378
0.00557881
0.00553353
0.00548812
0.0054427
0.00539734
0.00535208
0.00530695
0.00526197
0.00521711
0.00517236
0.00512769
0.00508307
0.00503844
0.00499377
0.00494899
0.00490405
0.00485889
0.00481346
0.00476768
0.00472151
0.00467489
0.00462777
0.0045801
0.00453185
0.00448296
0.00443341
0.00438316
0.00433219
0.00428049
0.00422802
0.00417476
0.00412079
0.00406623
0.00401123
0.00395588
0.00390026
0.00384444
0.00378848
0.00373244
0.00367638
0.00362033
0.00356436
0.00350852
0.00345284
0.00339738
0.00334218
0.00328729
0.00323274
0.00317858
0.00312483
0.00307154
0.00301876
0.00296651
0.00291484
0.00286378
0.00281339
0.0027637
0.00271474
0.00266656
0.0026192
0.00257269
0.00252707
0.00248237
0.00243864
0.00239591
0.00235423
0.00231362
0.00227412
0.00223578
0.00219861
0.00216266
0.00212794
0.00209447
0.00206225
0.00203128
0.00200154
0.001973
0.00194562
0.00191935
0.00189414
0.00186995
0.00184679
0.00182524
0.00180739
0.000193577
0.000427514
0.000625678
0.000777987
0.000898841
0.0010005
0.00109104
0.00117519
0.00125555
0.00133339
0.00140932
0.00148358
0.00155626
0.0016274
0.00169704
0.00176523
0.00183205
0.00189762
0.00196205
0.00202548
0.00208805
0.0021499
0.00221117
0.002272
0.00233251
0.00239281
0.002453
0.00251316
0.00257336
0.00263367
0.00269411
0.0027547
0.00281546
0.00287635
0.00293735
0.0029984
0.00305944
0.00312038
0.00318112
0.00324154
0.00330153
0.00336093
0.00341961
0.0034774
0.00353414
0.00358968
0.00364385
0.00369652
0.00374753
0.00379676