/*--------------------------------*- C++ -*----------------------------------*\
  =========                 |
  \\      /  F ield         | OpenFOAM: The Open Source CFD Toolbox
   \\    /   O peration     | Website:  https://openfoam.org
    \\  /    A nd           | Version:  7
     \\/     M anipulation  |
\*---------------------------------------------------------------------------*/
FoamFile
{
    version     2.0;
    format      ascii;
    class       volScalarField;
    location    "500";
    object      p;
}
// * * * * * * * * * * * * * * * * * * * * * * * * * * * * * * * * * * * * * //

dimensions      [0 2 -2 0 0 0 0];

internalField   nonuniform List<scalar> 
16900
(
-21.8738
-21.8802
-21.8911
-21.905
-21.922
-21.9425
-21.9671
-21.9949
-22.024
-22.0551
-22.0915
-22.1282
-22.1636
-22.2036
-22.2471
-22.2915
-22.3366
-22.382
-22.4276
-22.473
-22.5182
-22.563
-22.6073
-22.651
-22.6939
-22.7358
-22.7766
-22.8161
-22.8542
-22.8906
-22.925
-22.9574
-22.9874
-23.0147
-23.0391
-23.0604
-23.0781
-23.0921
-23.102
-23.1074
-23.108
-23.1035
-23.0934
-23.0775
-23.0552
-23.0261
-22.9898
-22.9457
-22.8934
-22.8324
-22.7621
-22.6819
-22.5912
-22.4894
-22.3759
-22.25
-22.111
-21.9584
-21.7913
-21.6093
-21.4117
-21.1976
-20.9662
-20.7169
-20.4494
-20.1631
-19.8578
-19.5332
-19.1891
-18.8256
-18.4428
-18.041
-17.6207
-17.1828
-16.7282
-16.2581
-15.774
-15.2776
-14.771
-14.2564
-13.7361
-13.213
-12.6898
-12.1694
-11.655
-11.1494
-10.6557
-10.1768
-9.71536
-9.27384
-8.85442
-8.45894
-8.08888
-7.74537
-7.42913
-7.14058
-6.8796
-6.64643
-6.43719
-6.24938
-6.08573
-5.94665
-5.83035
-5.73501
-5.65881
-5.59999
-5.55684
-5.52767
-5.51088
-5.50491
-5.50832
-5.5197
-5.53776
-5.56131
-5.58921
-5.62046
-5.65413
-5.68937
-5.72544
-5.76166
-5.79746
-5.83234
-5.86587
-5.89766
-5.92738
-5.95475
-5.97953
-6.00149
-6.02045
-6.03621
-6.04861
-6.05747
-6.0626
-6.06378
-6.0608
-6.05339
-6.04127
-6.02413
-6.00165
-5.97343
-5.93905
-5.89801
-5.84986
-5.79425
-5.73105
-5.66028
-5.58182
-5.49528
-5.40036
-5.29687
-5.18474
-5.06392
-4.93439
-4.79618
-4.64945
-4.49451
-4.33175
-4.16156
-3.98438
-3.8007
-3.61109
-3.41623
-3.21618
-3.01184
-2.80463
-2.5951
-2.38395
-2.17197
-1.95997
-1.74882
-1.5394
-1.33259
-1.12931
-0.930438
-0.736888
-0.549545
-0.369282
-0.19695
-0.0333777
0.120639
0.264339
0.396999
0.517939
0.626527
0.722177
0.80436
0.872601
0.92648
0.965637
0.989768
0.998615
0.991963
0.969599
0.931285
0.87662
0.804921
0.714675
0.603199
0.461425
0.301099
-21.8672
-21.8743
-21.882
-21.892
-21.9055
-21.9223
-21.9419
-21.9631
-21.987
-22.0162
-22.0484
-22.086
-22.1319
-22.1787
-22.223
-22.2673
-22.3119
-22.3567
-22.4015
-22.4463
-22.4908
-22.535
-22.5786
-22.6217
-22.664
-22.7053
-22.7456
-22.7847
-22.8223
-22.8582
-22.8924
-22.9244
-22.9541
-22.9813
-23.0056
-23.0268
-23.0446
-23.0587
-23.0687
-23.0744
-23.0755
-23.0715
-23.062
-23.0468
-23.0254
-22.9974
-22.9622
-22.9196
-22.8689
-22.8096
-22.7412
-22.6632
-22.5749
-22.4758
-22.3652
-22.2424
-22.107
-21.9581
-21.7952
-21.6177
-21.4249
-21.2157
-20.9895
-20.7458
-20.4842
-20.2042
-19.9055
-19.5878
-19.2509
-18.895
-18.52
-18.1262
-17.7143
-17.2847
-16.8386
-16.377
-15.9013
-15.4133
-14.9147
-14.4078
-13.8948
-13.3784
-12.8612
-12.3461
-11.8359
-11.3337
-10.8424
-10.3647
-9.90326
-9.46061
-9.03889
-8.63997
-8.26544
-7.91653
-7.59406
-7.2985
-7.02846
-6.78423
-6.56574
-6.37189
-6.2028
-6.05748
-5.93436
-5.8318
-5.74816
-5.68179
-5.63104
-5.59434
-5.57011
-5.55688
-5.55319
-5.55772
-5.56918
-5.58638
-5.60823
-5.63372
-5.66193
-5.69201
-5.72318
-5.75482
-5.78637
-5.81732
-5.84722
-5.87569
-5.90241
-5.9271
-5.94951
-5.96943
-5.98667
-6.00104
-6.01239
-6.02053
-6.02527
-6.02641
-6.02371
-6.0169
-6.00569
-5.98974
-5.96873
-5.94224
-5.90985
-5.87104
-5.82532
-5.7723
-5.71177
-5.64365
-5.56779
-5.48392
-5.39175
-5.29114
-5.18198
-5.06419
-4.93764
-4.80232
-4.65843
-4.50631
-4.34632
-4.17883
-4.00428
-3.82313
-3.63593
-3.44338
-3.24585
-3.04417
-2.8395
-2.63244
-2.42371
-2.21408
-2.00437
-1.79544
-1.58814
-1.38335
-1.18198
-0.984912
-0.793037
-0.607237
-0.428379
-0.257311
-0.0948569
0.0581913
0.201074
0.33307
0.453501
0.561733
0.657182
0.739318
0.807661
0.861792
0.901346
0.926011
0.935527
0.929664
0.908206
0.870897
0.817348
0.746891
0.658147
0.549129
0.411785
0.279997
-21.8581
-21.8702
-21.88
-21.8899
-21.9029
-21.9193
-21.9387
-21.9603
-21.9846
-22.0135
-22.046
-22.0817
-22.1217
-22.1638
-22.206
-22.2489
-22.2922
-22.3358
-22.3794
-22.4231
-22.4665
-22.5096
-22.5523
-22.5944
-22.6358
-22.6764
-22.7159
-22.7542
-22.7911
-22.8265
-22.86
-22.8916
-22.9209
-22.9477
-22.9718
-22.9928
-23.0105
-23.0246
-23.0347
-23.0407
-23.042
-23.0385
-23.0297
-23.0152
-22.9947
-22.9678
-22.9339
-22.8927
-22.8437
-22.7863
-22.7201
-22.6444
-22.5588
-22.4626
-22.3552
-22.236
-22.1044
-21.9597
-21.8014
-21.6289
-21.4412
-21.2375
-21.017
-20.7795
-20.5244
-20.2513
-19.9598
-19.6497
-19.3209
-18.9732
-18.6068
-18.222
-17.8191
-17.3989
-16.9622
-16.5102
-16.044
-15.5654
-15.0761
-14.5781
-14.0738
-13.5654
-13.0558
-12.5475
-12.0434
-11.5463
-11.0591
-10.5845
-10.1252
-9.68342
-9.26154
-8.86144
-8.48486
-8.13288
-7.80585
-7.50362
-7.22591
-6.9737
-6.74545
-6.54013
-6.35886
-6.20108
-6.06555
-5.95083
-5.85535
-5.77755
-5.71581
-5.66856
-5.63427
-5.61145
-5.59867
-5.59459
-5.59793
-5.6075
-5.6222
-5.64104
-5.66306
-5.68737
-5.71322
-5.73997
-5.76704
-5.79393
-5.82018
-5.8454
-5.86927
-5.89148
-5.91179
-5.92998
-5.94583
-5.95917
-5.96981
-5.97757
-5.98225
-5.98363
-5.98148
-5.9755
-5.96539
-5.95083
-5.93147
-5.90693
-5.87681
-5.8406
-5.79785
-5.74814
-5.69122
-5.62686
-5.55479
-5.47469
-5.38633
-5.28959
-5.18435
-5.07041
-4.9476
-4.81601
-4.67586
-4.52742
-4.37105
-4.20716
-4.03617
-3.85857
-3.67489
-3.48584
-3.29167
-3.09303
-2.89108
-2.68649
-2.48003
-2.27252
-2.06476
-1.85762
-1.65195
-1.44864
-1.24858
-1.05266
-0.861787
-0.676834
-0.498671
-0.328149
-0.166093
-0.0132989
0.129471
0.261493
0.382085
0.49061
0.586483
0.669167
0.738183
0.793104
0.833565
0.859249
0.869894
0.865273
0.845173
0.809365
0.757514
0.689128
0.603162
0.498991
0.369585
0.275251
-21.8508
-21.868
-21.881
-21.892
-21.905
-21.921
-21.9398
-21.9613
-21.9856
-22.0139
-22.046
-22.081
-22.1189
-22.1585
-22.1991
-22.2406
-22.2826
-22.3249
-22.3674
-22.41
-22.4524
-22.4945
-22.5363
-22.5776
-22.6183
-22.6581
-22.697
-22.7347
-22.7711
-22.8061
-22.8392
-22.8705
-22.8995
-22.9262
-22.9501
-22.9711
-22.9888
-23.0031
-23.0135
-23.0197
-23.0215
-23.0186
-23.0104
-22.9968
-22.9773
-22.9514
-22.9189
-22.8792
-22.8318
-22.7764
-22.7122
-22.6389
-22.5558
-22.4624
-22.358
-22.2421
-22.114
-21.9732
-21.819
-21.6509
-21.4676
-21.2684
-21.0529
-20.8205
-20.5709
-20.3034
-20.0179
-19.714
-19.3915
-19.0503
-18.6905
-18.3124
-17.9163
-17.5028
-17.0728
-16.6274
-16.1677
-15.6953
-15.2119
-14.7194
-14.2202
-13.7164
-13.2107
-12.7058
-12.2043
-11.7091
-11.2231
-10.7488
-10.2889
-9.84593
-9.42218
-9.01942
-8.63935
-8.282
-7.94798
-7.63875
-7.35398
-7.09415
-6.85823
-6.64542
-6.45633
-6.29042
-6.14666
-6.02374
-5.9202
-5.83453
-5.76519
-5.71063
-5.66933
-5.63984
-5.62075
-5.61072
-5.60848
-5.61285
-5.62275
-5.63721
-5.65521
-5.67583
-5.69836
-5.72217
-5.74669
-5.77138
-5.79579
-5.81954
-5.84227
-5.86369
-5.88353
-5.90155
-5.91754
-5.93128
-5.94258
-5.95123
-5.95701
-5.95968
-5.95899
-5.95463
-5.94625
-5.93353
-5.91609
-5.89356
-5.86551
-5.83149
-5.79104
-5.74378
-5.6894
-5.62759
-5.55804
-5.48046
-5.39468
-5.30053
-5.19777
-5.08611
-4.96552
-4.83622
-4.69838
-4.55221
-4.39805
-4.2363
-4.0674
-3.89184
-3.71013
-3.52295
-3.33064
-3.13384
-2.93355
-2.73048
-2.52543
-2.31919
-2.11262
-1.90656
-1.70187
-1.49945
-1.30018
-1.10496
-0.914694
-0.730254
-0.552512
-0.382321
-0.220505
-0.0678627
0.0748441
0.206889
0.327591
0.436311
0.532463
0.615509
0.68497
0.740419
0.781491
0.807876
0.819316
0.815599
0.796543
0.761976
0.711684
0.645426
0.562647
0.464246
0.343987
0.280599
-21.8476
-21.8686
-21.8844
-21.8968
-21.9104
-21.9266
-21.9455
-21.9672
-21.9918
-22.0198
-22.0512
-22.0854
-22.122
-22.1603
-22.1996
-22.2398
-22.2806
-22.3218
-22.3633
-22.4048
-22.4464
-22.4877
-22.5287
-22.5693
-22.6094
-22.6487
-22.6871
-22.7244
-22.7605
-22.7951
-22.8281
-22.8592
-22.8881
-22.9147
-22.9387
-22.9597
-22.9776
-22.9921
-23.0028
-23.0095
-23.0118
-23.0094
-23.002
-22.9892
-22.9706
-22.9459
-22.9146
-22.8763
-22.8305
-22.7768
-22.7146
-22.6434
-22.5626
-22.4717
-22.3701
-22.2571
-22.1322
-21.9946
-21.8441
-21.6796
-21.4999
-21.3045
-21.0931
-20.865
-20.6197
-20.3569
-20.0761
-19.7769
-19.4593
-19.123
-18.7682
-18.3949
-18.0036
-17.5949
-17.1694
-16.7282
-16.2725
-15.8038
-15.3237
-14.8342
-14.3374
-13.8355
-13.3312
-12.827
-12.3257
-11.83
-11.3429
-10.867
-10.405
-9.95931
-9.5323
-9.12499
-8.73867
-8.37498
-8.03489
-7.71938
-7.42845
-7.1624
-6.92068
-6.70268
-6.50838
-6.33716
-6.18802
-6.05973
-5.95092
-5.86012
-5.78583
-5.72653
-5.68073
-5.647
-5.62395
-5.61023
-5.6046
-5.60589
-5.61307
-5.62513
-5.64097
-5.65968
-5.68063
-5.70319
-5.72676
-5.7508
-5.77485
-5.79852
-5.82145
-5.84333
-5.86388
-5.88284
-5.89997
-5.91505
-5.92785
-5.93814
-5.94567
-5.9502
-5.95143
-5.94903
-5.94266
-5.93194
-5.9165
-5.89593
-5.86981
-5.83768
-5.7991
-5.7537
-5.70113
-5.64107
-5.57321
-5.49732
-5.41324
-5.3207
-5.21926
-5.10875
-4.98937
-4.86134
-4.72476
-4.57984
-4.42689
-4.2663
-4.09851
-3.924
-3.74329
-3.55701
-3.36563
-3.1698
-2.97039
-2.76813
-2.56382
-2.35826
-2.1523
-1.94679
-1.74259
-1.5406
-1.34171
-1.14682
-0.956809
-0.772573
-0.594979
-0.424877
-0.263094
-0.110428
0.0323615
0.164545
0.285444
0.394416
0.490879
0.574291
0.644178
0.700112
0.741735
0.768741
0.78089
0.77799
0.759907
0.726545
0.677835
0.613822
0.534395
0.441795
0.329516
0.288871
-21.8491
-21.873
-21.8909
-21.9046
-21.9191
-21.9358
-21.9551
-21.9772
-22.0022
-22.0301
-22.0609
-22.0942
-22.1297
-22.1667
-22.2049
-22.244
-22.2837
-22.3239
-22.3644
-22.4051
-22.4458
-22.4865
-22.5269
-22.5669
-22.6065
-22.6454
-22.6834
-22.7205
-22.7563
-22.7908
-22.8237
-22.8547
-22.8836
-22.9103
-22.9343
-22.9556
-22.9737
-22.9884
-22.9995
-23.0066
-23.0094
-23.0077
-23.001
-22.989
-22.9714
-22.9477
-22.9177
-22.8807
-22.8365
-22.7844
-22.7241
-22.6549
-22.5763
-22.4877
-22.3886
-22.2783
-22.1562
-22.0217
-21.8743
-21.7129
-21.5363
-21.3442
-21.1362
-20.9118
-20.6703
-20.4113
-20.1343
-19.8391
-19.5254
-19.193
-18.8419
-18.4723
-18.0845
-17.6791
-17.2567
-16.8183
-16.365
-15.8984
-15.42
-14.9317
-14.4356
-13.9341
-13.4295
-12.9245
-12.422
-11.9245
-11.4352
-10.9566
-10.4915
-10.0419
-9.60936
-9.19623
-8.80438
-8.43516
-8.08956
-7.76849
-7.47218
-7.20087
-6.95424
-6.7318
-6.53325
-6.35785
-6.20463
-6.07237
-5.95974
-5.8653
-5.78757
-5.72506
-5.67629
-5.63983
-5.61431
-5.59839
-5.59082
-5.59047
-5.59634
-5.60733
-5.62226
-5.64029
-5.66087
-5.68333
-5.70704
-5.73149
-5.75618
-5.78072
-5.80474
-5.82789
-5.8499
-5.87048
-5.88937
-5.90632
-5.92108
-5.9334
-5.94301
-5.94963
-5.95295
-5.95263
-5.9483
-5.93959
-5.9261
-5.90741
-5.88309
-5.85268
-5.81576
-5.77194
-5.72087
-5.66219
-5.59567
-5.52112
-5.43832
-5.34675
-5.24598
-5.13614
-5.01753
-4.89026
-4.75442
-4.61023
-4.45798
-4.29805
-4.13088
-3.95694
-3.77676
-3.59094
-3.40001
-3.20465
-3.00564
-2.80373
-2.59972
-2.39442
-2.18866
-1.98331
-1.77923
-1.57732
-1.37847
-1.18357
-0.993516
-0.809198
-0.631482
-0.461221
-0.29924
-0.146339
-0.00327653
0.129217
0.250465
0.359822
0.456709
0.540583
0.610971
0.667449
0.709663
0.737319
0.750193
0.748126
0.731031
0.6989
0.651807
0.590057
0.513892
0.426576
0.320498
0.296341
-21.8553
-21.8809
-21.9002
-21.9152
-21.9306
-21.9479
-21.9676
-21.99
-22.0151
-22.0429
-22.0732
-22.1057
-22.1402
-22.1762
-22.2133
-22.2514
-22.2902
-22.3295
-22.3692
-22.4091
-22.4492
-22.4893
-22.5292
-22.5688
-22.608
-22.6466
-22.6844
-22.7213
-22.757
-22.7914
-22.8243
-22.8553
-22.8844
-22.9111
-22.9354
-22.9568
-22.9752
-22.9903
-23.0017
-23.0093
-23.0126
-23.0115
-23.0055
-22.9943
-22.9776
-22.955
-22.9261
-22.8905
-22.8477
-22.7973
-22.7387
-22.6714
-22.5949
-22.5085
-22.4117
-22.3039
-22.1844
-22.0527
-21.9082
-21.7494
-21.5754
-21.3863
-21.1814
-20.9601
-20.7219
-20.4661
-20.1925
-19.9005
-19.5899
-19.2606
-18.9125
-18.5456
-18.1603
-17.757
-17.3366
-16.8998
-16.4479
-15.982
-15.5041
-15.0159
-14.5192
-14.0167
-13.5108
-13.0039
-12.4992
-11.999
-11.5066
-11.0243
-10.554
-10.0989
-9.66107
-9.24264
-8.84543
-8.47088
-8.12008
-7.79391
-7.49277
-7.21685
-6.96596
-6.73968
-6.53755
-6.3588
-6.20242
-6.06721
-5.95183
-5.85487
-5.77485
-5.71028
-5.6597
-5.62169
-5.59486
-5.57789
-5.56952
-5.56866
-5.57432
-5.58526
-5.60024
-5.61859
-5.63973
-5.66298
-5.68772
-5.71339
-5.73951
-5.76564
-5.79142
-5.81648
-5.84051
-5.86322
-5.88432
-5.90353
-5.92059
-5.93522
-5.94712
-5.95599
-5.96151
-5.96331
-5.96104
-5.95429
-5.94267
-5.92575
-5.90308
-5.87424
-5.83879
-5.79634
-5.74651
-5.68899
-5.6236
-5.55014
-5.46816
-5.37701
-5.27656
-5.16716
-5.04899
-4.92213
-4.78668
-4.64285
-4.49094
-4.33131
-4.16441
-3.99069
-3.81069
-3.625
-3.43419
-3.23893
-3.03998
-2.8381
-2.63406
-2.4287
-2.22286
-2.01738
-1.81315
-1.61105
-1.41198
-1.21684
-1.02652
-0.841914
-0.663883
-0.493284
-0.33094
-0.177654
-0.0341818
0.0987424
0.220446
0.33028
0.42767
0.512068
0.58301
0.640068
0.682903
0.711225
0.724838
0.723609
0.70751
0.676616
0.631136
0.571596
0.498476
0.415802
0.314306
0.302095
-21.8655
-21.8919
-21.9121
-21.928
-21.9441
-21.9619
-21.982
-22.0045
-22.0296
-22.0572
-22.087
-22.1188
-22.1524
-22.1875
-22.2237
-22.2609
-22.2989
-22.3374
-22.3764
-22.4158
-22.4553
-22.4949
-22.5344
-22.5737
-22.6127
-22.6511
-22.6888
-22.7256
-22.7613
-22.7958
-22.8287
-22.8598
-22.889
-22.9159
-22.9403
-22.962
-22.9807
-22.9961
-23.0079
-23.016
-23.0198
-23.0193
-23.014
-23.0036
-22.9878
-22.9662
-22.9385
-22.9041
-22.8627
-22.8138
-22.7569
-22.6914
-22.6168
-22.5325
-22.438
-22.3324
-22.2154
-22.0864
-21.9443
-21.7877
-21.6162
-21.4297
-21.2276
-21.0091
-20.7737
-20.5207
-20.2499
-19.9606
-19.6526
-19.3257
-18.9798
-18.6149
-18.2313
-17.8294
-17.41
-16.974
-16.5223
-16.0563
-15.5779
-15.0887
-14.5905
-14.0861
-13.578
-13.0683
-12.5607
-12.0568
-11.5593
-11.0718
-10.5965
-10.136
-9.69275
-9.26891
-8.86632
-8.48652
-8.1307
-7.79976
-7.49418
-7.21416
-6.95957
-6.73001
-6.52494
-6.34354
-6.1848
-6.04748
-5.93026
-5.83171
-5.75035
-5.6847
-5.63329
-5.5947
-5.56753
-5.55045
-5.54223
-5.54181
-5.54815
-5.55982
-5.57567
-5.59514
-5.61762
-5.64241
-5.66887
-5.69643
-5.7246
-5.75292
-5.78099
-5.80844
-5.83494
-5.86017
-5.88383
-5.9056
-5.92521
-5.94234
-5.95669
-5.96794
-5.97573
-5.97971
-5.97949
-5.97467
-5.96485
-5.9496
-5.92848
-5.90106
-5.86693
-5.82565
-5.77688
-5.72036
-5.65594
-5.58326
-5.50161
-5.41051
-5.31022
-5.20105
-5.08308
-4.95636
-4.82102
-4.67727
-4.52541
-4.3658
-4.19888
-4.02511
-3.84502
-3.6592
-3.46824
-3.27281
-3.07366
-2.87155
-2.66726
-2.46161
-2.25544
-2.04962
-1.84503
-1.64255
-1.44308
-1.24752
-1.05677
-0.871714
-0.693221
-0.522148
-0.359316
-0.205531
-0.0615455
0.0719031
0.194144
0.304529
0.402481
0.487456
0.558989
0.616658
0.66013
0.689131
0.703483
0.703089
0.687973
0.658291
0.614365
0.556897
0.486503
0.40775
0.309518
0.305729
-21.879
-21.9055
-21.9258
-21.9423
-21.9589
-21.977
-21.9973
-22.0199
-22.0449
-22.0721
-22.1014
-22.1326
-22.1654
-22.1997
-22.2351
-22.2715
-22.3088
-22.3467
-22.3852
-22.424
-22.4632
-22.5024
-22.5417
-22.5808
-22.6196
-22.6579
-22.6956
-22.7324
-22.7682
-22.8027
-22.8357
-22.867
-22.8963
-22.9234
-22.9481
-22.97
-22.989
-23.0047
-23.0169
-23.0254
-23.0297
-23.0297
-23.0251
-23.0154
-23.0005
-22.9799
-22.9532
-22.92
-22.88
-22.8325
-22.7772
-22.7134
-22.6407
-22.5584
-22.4659
-22.3625
-22.2479
-22.1213
-21.9811
-21.8264
-21.6573
-21.4733
-21.2737
-21.0577
-20.8248
-20.5743
-20.3058
-20.0188
-19.7129
-19.3879
-19.0437
-18.6801
-18.2975
-17.8964
-17.4773
-17.0413
-16.5891
-16.1221
-15.6423
-15.1515
-14.651
-14.144
-13.6331
-13.1197
-12.6071
-12.0985
-11.5961
-11.1032
-10.6224
-10.1563
-9.70749
-9.27812
-8.87015
-8.48521
-8.12455
-7.78912
-7.47945
-7.19577
-6.93796
-6.70564
-6.4982
-6.31481
-6.15439
-6.01571
-5.89743
-5.79809
-5.71622
-5.65032
-5.59892
-5.56058
-5.5339
-5.51753
-5.51025
-5.51107
-5.51881
-5.53189
-5.54927
-5.57056
-5.59502
-5.62196
-5.65072
-5.68072
-5.71144
-5.7424
-5.7732
-5.80343
-5.83274
-5.86079
-5.88726
-5.91181
-5.93414
-5.95392
-5.97083
-5.98452
-5.99464
-6.0008
-6.00263
-5.9997
-5.99163
-5.97797
-5.9583
-5.9322
-5.89923
-5.85897
-5.81112
-5.7555
-5.69186
-5.61956
-5.53781
-5.44661
-5.34639
-5.23726
-5.11927
-4.99248
-4.85703
-4.71314
-4.5611
-4.40128
-4.23412
-4.06006
-3.87967
-3.6935
-3.50218
-3.30637
-3.10682
-2.90427
-2.69953
-2.49341
-2.28676
-2.08043
-1.87532
-1.67231
-1.4723
-1.2762
-1.08489
-0.899277
-0.72022
-0.548581
-0.385177
-0.230819
-0.0862553
0.0477726
0.1706
0.281571
0.380119
0.465688
0.53783
0.596113
0.640224
0.669892
0.68497
0.685388
0.671227
0.642709
0.60026
0.54471
0.476737
0.40129
0.30535
0.307352
-21.8949
-21.9209
-21.9409
-21.9576
-21.9744
-21.9927
-22.013
-22.0355
-22.0602
-22.087
-22.1158
-22.1463
-22.1785
-22.212
-22.2468
-22.2826
-22.3193
-22.3567
-22.3947
-22.4332
-22.472
-22.5111
-22.5502
-22.5892
-22.628
-22.6663
-22.704
-22.7409
-22.7768
-22.8114
-22.8446
-22.876
-22.9055
-22.9328
-22.9576
-22.9798
-22.999
-23.015
-23.0276
-23.0364
-23.0412
-23.0417
-23.0376
-23.0286
-23.0144
-22.9947
-22.969
-22.937
-22.8982
-22.8521
-22.7983
-22.7362
-22.6652
-22.5848
-22.4942
-22.3929
-22.2805
-22.1559
-22.0174
-21.8646
-21.6977
-21.516
-21.3186
-21.105
-20.8743
-20.626
-20.3596
-20.0745
-19.7703
-19.4467
-19.1037
-18.7409
-18.3588
-17.9577
-17.5384
-17.1018
-16.6484
-16.1797
-15.698
-15.2051
-14.7019
-14.191
-13.6759
-13.1583
-12.6409
-12.1269
-11.6191
-11.1205
-10.6339
-10.162
-9.70745
-9.2725
-8.8592
-8.46923
-8.10394
-7.76429
-7.45088
-7.16393
-6.90335
-6.66875
-6.45948
-6.27467
-6.1132
-5.97383
-5.85517
-5.75576
-5.6741
-5.60868
-5.55801
-5.52064
-5.49516
-5.48019
-5.47457
-5.47728
-5.487
-5.50205
-5.5216
-5.54525
-5.57224
-5.60184
-5.63337
-5.66625
-5.69992
-5.7339
-5.76775
-5.80105
-5.83343
-5.86452
-5.89398
-5.92146
-5.94663
-5.96915
-5.98868
-6.00485
-6.0173
-6.02564
-6.02949
-6.02842
-6.02204
-6.0099
-5.99161
-5.96672
-5.93479
-5.89544
-5.84844
-5.79362
-5.73049
-5.65811
-5.57608
-5.4848
-5.38453
-5.27529
-5.15712
-5.03009
-4.89436
-4.75015
-4.59776
-4.43756
-4.26997
-4.09547
-3.9146
-3.72792
-3.53608
-3.33972
-3.13961
-2.93648
-2.73114
-2.52441
-2.31713
-2.11017
-1.90441
-1.70075
-1.50009
-1.30334
-1.11138
-0.925122
-0.745418
-0.573137
-0.409093
-0.254099
-0.108902
0.0257549
0.149211
0.260804
0.359974
0.446162
0.518922
0.577827
0.622569
0.652895
0.668676
0.669876
0.656622
0.629204
0.588121
0.5343
0.468423
0.395682
0.30132
0.306955
-21.9124
-21.9375
-21.9566
-21.9733
-21.9901
-22.0083
-22.0285
-22.0507
-22.0751
-22.1014
-22.1296
-22.1596
-22.1911
-22.224
-22.2582
-22.2935
-22.3297
-22.3667
-22.4044
-22.4427
-22.4814
-22.5203
-22.5594
-22.5984
-22.6372
-22.6756
-22.7134
-22.7504
-22.7864
-22.8211
-22.8544
-22.886
-22.9156
-22.9431
-22.9681
-22.9904
-23.0098
-23.026
-23.0388
-23.0479
-23.0531
-23.054
-23.0504
-23.042
-23.0285
-23.0095
-22.9848
-22.9538
-22.9162
-22.8714
-22.819
-22.7585
-22.6891
-22.6104
-22.5217
-22.4225
-22.3122
-22.189
-22.0519
-21.9011
-21.7363
-21.5567
-21.3615
-21.1499
-20.9213
-20.6749
-20.4102
-20.1267
-19.8239
-19.5014
-19.1592
-18.7968
-18.4145
-18.0131
-17.593
-17.1555
-16.7008
-16.2299
-15.7454
-15.2492
-14.7426
-14.2278
-13.7079
-13.1852
-12.6625
-12.1429
-11.6292
-11.1247
-10.632
-10.1542
-9.69385
-9.25334
-8.83479
-8.43998
-8.07028
-7.72672
-7.40992
-7.12013
-6.85725
-6.62086
-6.4103
-6.22463
-6.06273
-5.92329
-5.80491
-5.7061
-5.62532
-5.56105
-5.51178
-5.47605
-5.4524
-5.43948
-5.43612
-5.44133
-5.4535
-5.47102
-5.49327
-5.51978
-5.54976
-5.58244
-5.61714
-5.65325
-5.6902
-5.72749
-5.76465
-5.80125
-5.83689
-5.87118
-5.90376
-5.93427
-5.96235
-5.98765
-6.00982
-6.02848
-6.04325
-6.05375
-6.05957
-6.0603
-6.05553
-6.04485
-6.02785
-6.00405
-5.97306
-5.93454
-5.88834
-5.83414
-5.77109
-5.69835
-5.61606
-5.52465
-5.42421
-5.31471
-5.19622
-5.06881
-4.93265
-4.78797
-4.63509
-4.47435
-4.3062
-4.1311
-3.94961
-3.76229
-3.56978
-3.37275
-3.17194
-2.9681
-2.76205
-2.55459
-2.34658
-2.13888
-1.9324
-1.72801
-1.52662
-1.32915
-1.13648
-0.949511
-0.769112
-0.596148
-0.431429
-0.275774
-0.12992
0.00537826
0.129472
0.241688
0.341479
0.428272
0.501637
0.561138
0.606487
0.637431
0.653873
0.6558
0.643391
0.616984
0.577152
0.524883
0.460831
0.390341
0.297117
0.304782
-21.9308
-21.9545
-21.9723
-21.9887
-22.0054
-22.0235
-22.0433
-22.0652
-22.089
-22.1148
-22.1425
-22.1719
-22.2028
-22.2352
-22.2689
-22.3038
-22.3396
-22.3764
-22.4139
-22.4521
-22.4907
-22.5296
-22.5687
-22.6078
-22.6466
-22.6851
-22.7231
-22.7602
-22.7963
-22.8312
-22.8646
-22.8962
-22.9259
-22.9535
-22.9786
-23.001
-23.0205
-23.0368
-23.0497
-23.059
-23.0644
-23.0656
-23.0624
-23.0545
-23.0416
-23.0233
-22.9994
-22.9693
-22.9328
-22.8892
-22.8382
-22.7791
-22.7113
-22.6342
-22.5473
-22.45
-22.3413
-22.2193
-22.0836
-21.9348
-21.772
-21.5944
-21.4012
-21.1915
-20.9647
-20.72
-20.4569
-20.1747
-19.8729
-19.5513
-19.2097
-18.8476
-18.4652
-18.063
-17.6418
-17.2024
-16.7458
-16.2726
-15.7849
-15.2848
-14.7739
-14.2545
-13.7294
-13.2012
-12.6727
-12.1471
-11.6273
-11.1165
-10.6177
-10.1339
-9.66769
-9.22169
-8.79804
-8.39857
-8.02474
-7.6776
-7.3578
-7.06559
-6.80087
-6.5632
-6.35187
-6.16592
-6.00416
-5.86527
-5.74779
-5.65019
-5.57092
-5.50842
-5.46116
-5.42766
-5.40643
-5.3961
-5.39557
-5.40376
-5.41881
-5.43924
-5.46465
-5.49444
-5.52778
-5.5639
-5.6021
-5.64173
-5.68222
-5.72305
-5.76371
-5.80377
-5.8428
-5.88039
-5.91618
-5.94977
-5.9808
-6.0089
-6.0337
-6.05482
-6.07189
-6.08448
-6.09223
-6.09469
-6.09148
-6.08218
-6.06637
-6.04358
-6.01344
-5.9757
-5.93022
-5.87635
-5.813
-5.73983
-5.65734
-5.56572
-5.465
-5.35514
-5.23622
-5.10831
-4.97162
-4.82636
-4.67286
-4.51146
-4.34264
-4.16683
-3.9846
-3.79652
-3.60325
-3.40543
-3.20384
-2.9992
-2.79233
-2.58406
-2.37524
-2.16673
-1.95944
-1.75425
-1.55208
-1.35383
-1.16039
-0.97268
-0.791546
-0.617866
-0.452442
-0.296101
-0.149572
-0.0136164
0.111124
0.22397
0.324378
0.411772
0.485726
0.545803
0.591724
0.623249
0.640299
0.642894
0.631249
0.605756
0.56704
0.516132
0.453639
0.384966
0.292602
0.30089
-21.9491
-21.9717
-21.9876
-22.0036
-22.02
-22.0377
-22.0572
-22.0785
-22.1018
-22.127
-22.1541
-22.1829
-22.2134
-22.2453
-22.2786
-22.3132
-22.3488
-22.3854
-22.4229
-22.461
-22.4996
-22.5386
-22.5777
-22.6169
-22.6559
-22.6945
-22.7325
-22.7697
-22.8059
-22.8409
-22.8743
-22.906
-22.9357
-22.9632
-22.9883
-23.0106
-23.0301
-23.0464
-23.0594
-23.0687
-23.0742
-23.0756
-23.0727
-23.0651
-23.0526
-23.0349
-23.0117
-22.9825
-22.9469
-22.9044
-22.8546
-22.7969
-22.7305
-22.655
-22.5698
-22.4743
-22.3664
-22.2453
-22.1115
-21.9646
-21.8037
-21.628
-21.4369
-21.2292
-21.0041
-20.761
-20.4993
-20.2183
-19.9175
-19.5965
-19.2551
-18.8932
-18.5105
-18.1074
-17.6847
-17.2432
-16.7838
-16.3075
-15.8161
-15.3116
-14.7959
-14.2714
-13.7406
-13.2064
-12.6718
-12.1398
-11.6136
-11.0964
-10.5913
-10.1014
-9.6295
-9.17813
-8.74956
-8.34571
-7.96806
-7.61772
-7.29534
-7.00118
-6.73512
-6.49671
-6.28518
-6.09952
-5.93851
-5.80077
-5.68479
-5.58902
-5.51187
-5.45173
-5.40706
-5.37635
-5.35807
-5.35086
-5.35366
-5.36526
-5.38356
-5.40732
-5.4363
-5.46974
-5.50678
-5.54663
-5.58858
-5.63198
-5.67621
-5.72074
-5.76505
-5.80868
-5.85119
-5.89215
-5.93118
-5.96787
-6.00185
-6.03273
-6.06014
-6.08368
-6.10297
-6.11761
-6.1272
-6.13132
-6.12958
-6.12156
-6.10684
-6.08495
-6.0556
-6.01861
-5.97366
-5.91968
-5.85585
-5.78233
-5.69961
-5.6077
-5.5066
-5.39626
-5.27681
-5.1483
-5.01096
-4.865
-4.71078
-4.54862
-4.37901
-4.20239
-4.01934
-3.83041
-3.63627
-3.43758
-3.23511
-3.02959
-2.82185
-2.61269
-2.403
-2.19363
-1.98548
-1.77945
-1.57645
-1.3774
-1.18318
-0.994702
-0.812824
-0.638424
-0.472299
-0.315281
-0.16809
-0.0314993
0.0938653
0.207307
0.308302
0.396251
0.470751
0.531347
0.577786
0.609819
0.627406
0.630576
0.619599
0.594902
0.557162
0.507439
0.446295
0.379141
0.287549
0.295462
-21.9669
-21.9894
-22.0027
-22.0178
-22.0337
-22.0509
-22.0698
-22.0905
-22.1131
-22.1377
-22.1642
-22.1925
-22.2225
-22.2541
-22.2871
-22.3215
-22.357
-22.3935
-22.4309
-22.4691
-22.5078
-22.5468
-22.5861
-22.6254
-22.6645
-22.7031
-22.7412
-22.7785
-22.8146
-22.8495
-22.8829
-22.9145
-22.9441
-22.9714
-22.9963
-23.0185
-23.0378
-23.054
-23.0668
-23.0761
-23.0815
-23.0829
-23.0801
-23.0727
-23.0606
-23.0434
-23.0207
-22.9922
-22.9575
-22.916
-22.8674
-22.8109
-22.7459
-22.672
-22.5885
-22.4939
-22.3868
-22.2671
-22.1351
-21.9901
-21.8312
-21.6574
-21.4681
-21.2624
-21.0391
-20.7977
-20.5374
-20.2576
-19.9576
-19.6371
-19.2958
-18.9335
-18.55
-18.1457
-17.7211
-17.2771
-16.8146
-16.3347
-15.8392
-15.33
-14.809
-14.2788
-13.742
-13.2014
-12.6603
-12.1216
-11.5888
-11.065
-10.5536
-10.0576
-9.57999
-9.12339
-8.69013
-8.28218
-7.90107
-7.54792
-7.2234
-6.92778
-6.6609
-6.42228
-6.2111
-6.02631
-5.86662
-5.73061
-5.61673
-5.52337
-5.44889
-5.39168
-5.35013
-5.32271
-5.30787
-5.30425
-5.31081
-5.32615
-5.34809
-5.37558
-5.40845
-5.44583
-5.48684
-5.53067
-5.57659
-5.62392
-5.67204
-5.7204
-5.76846
-5.81573
-5.86177
-5.90613
-5.9484
-5.98818
-6.02509
-6.0587
-6.08867
-6.11456
-6.13603
-6.15262
-6.16398
-6.16967
-6.16933
-6.1625
-6.14878
-6.12771
-6.09912
-6.06279
-6.01806
-5.96365
-5.89931
-5.82553
-5.74253
-5.65024
-5.54867
-5.43778
-5.3177
-5.1885
-5.05044
-4.9037
-4.74867
-4.58568
-4.4152
-4.23768
-4.05372
-3.86387
-3.6688
-3.46918
-3.26576
-3.0593
-2.85062
-2.64053
-2.42992
-2.21964
-2.0106
-1.8037
-1.59985
-1.39996
-1.20494
-1.01569
-0.83306
-0.657938
-0.491111
-0.333423
-0.185579
-0.0483658
0.077605
0.191623
0.293175
0.381649
0.456651
0.517722
0.564614
0.597091
0.615129
0.618785
0.608365
0.584339
0.54743
0.498711
0.438719
0.372788
0.281969
0.288557
-21.9848
-22.0062
-22.0171
-22.0314
-22.0465
-22.0629
-22.081
-22.1009
-22.1228
-22.1468
-22.1727
-22.2005
-22.2301
-22.2614
-22.2942
-22.3284
-22.3639
-22.4004
-22.4379
-22.4761
-22.5149
-22.554
-22.5934
-22.6327
-22.6718
-22.7105
-22.7485
-22.7857
-22.8217
-22.8564
-22.8896
-22.9209
-22.9502
-22.9772
-23.0018
-23.0236
-23.0426
-23.0585
-23.071
-23.08
-23.0854
-23.0867
-23.0838
-23.0765
-23.0646
-23.0478
-23.0256
-22.9977
-22.9638
-22.9232
-22.8756
-22.8204
-22.7568
-22.6845
-22.6021
-22.508
-22.4019
-22.2841
-22.1541
-22.011
-21.854
-21.6822
-21.4948
-21.2907
-21.0692
-20.8293
-20.5703
-20.2915
-19.9923
-19.6721
-19.3307
-18.9678
-18.5833
-18.1774
-17.7508
-17.304
-16.8381
-16.3544
-15.8543
-15.3399
-14.8134
-14.2771
-13.7338
-13.1866
-12.6385
-12.0929
-11.5532
-11.0227
-10.5048
-10.0028
-9.51958
-9.05793
-8.62024
-8.20851
-7.82432
-7.46881
-7.14265
-6.84608
-6.57892
-6.34066
-6.13041
-5.94708
-5.78931
-5.65562
-5.54441
-5.45404
-5.38279
-5.32903
-5.29112
-5.26749
-5.25654
-5.25695
-5.26767
-5.28705
-5.31293
-5.34453
-5.38157
-5.42315
-5.46835
-5.51636
-5.56641
-5.61782
-5.66995
-5.72221
-5.77407
-5.82503
-5.87461
-5.92236
-5.96786
-6.0107
-6.05047
-6.08676
-6.11921
-6.14739
-6.17093
-6.1894
-6.20244
-6.20961
-6.21056
-6.20481
-6.19197
-6.17166
-6.14378
-6.10793
-6.063
-6.00803
-5.9433
-5.86922
-5.78586
-5.69309
-5.59096
-5.47943
-5.35864
-5.22867
-5.0898
-4.9422
-4.78628
-4.62236
-4.45094
-4.27246
-4.08752
-3.89667
-3.70061
-3.49998
-3.29557
-3.08812
-2.87845
-2.6674
-2.45583
-2.24461
-2.03466
-1.82688
-1.62217
-1.42146
-1.22565
-1.03563
-0.852271
-0.676454
-0.508957
-0.350637
-0.202181
-0.0643938
0.062133
0.176667
0.278717
0.367644
0.443079
0.504537
0.5518
0.584616
0.603001
0.607017
0.597026
0.573523
0.537286
0.489402
0.430396
0.365508
0.275591
0.280253
-22.0025
-22.0212
-22.0311
-22.0442
-22.0582
-22.0735
-22.0905
-22.1096
-22.1307
-22.154
-22.1794
-22.2068
-22.236
-22.2671
-22.2997
-22.3339
-22.3693
-22.4059
-22.4434
-22.4816
-22.5205
-22.5597
-22.5991
-22.6383
-22.6773
-22.7159
-22.7537
-22.7906
-22.8264
-22.8607
-22.8935
-22.9244
-22.9532
-22.9798
-23.0038
-23.0252
-23.0436
-23.059
-23.0711
-23.0797
-23.0847
-23.0858
-23.0829
-23.0756
-23.0638
-23.0472
-23.0254
-22.9982
-22.9649
-22.9253
-22.8787
-22.8246
-22.7625
-22.6911
-22.609
-22.5157
-22.4113
-22.2955
-22.1674
-22.0263
-21.8712
-21.7014
-21.5157
-21.3135
-21.0935
-20.8551
-20.5973
-20.3194
-20.0208
-19.7009
-19.3593
-18.9957
-18.6101
-18.2026
-17.7736
-17.324
-16.8546
-16.3667
-15.8618
-15.3421
-14.8096
-14.2669
-13.7169
-13.1626
-12.6073
-12.0545
-11.5077
-10.9703
-10.4459
-9.93782
-9.44909
-8.98257
-8.54068
-8.1255
-7.73862
-7.38119
-7.05386
-6.75686
-6.48997
-6.25261
-6.04386
-5.86255
-5.70726
-5.57645
-5.46846
-5.3816
-5.3141
-5.26428
-5.23047
-5.21105
-5.2044
-5.20924
-5.22446
-5.24814
-5.27824
-5.31425
-5.35572
-5.40171
-5.45129
-5.50363
-5.55794
-5.61352
-5.66972
-5.72594
-5.78164
-5.83627
-5.88939
-5.9405
-5.98919
-6.03502
-6.0776
-6.1165
-6.15135
-6.18172
-6.20725
-6.2275
-6.24213
-6.25068
-6.25283
-6.24806
-6.23602
-6.21642
-6.18918
-6.1535
-6.10809
-6.05255
-5.98753
-5.91311
-5.82931
-5.736
-5.63324
-5.52099
-5.39943
-5.26863
-5.12887
-4.98035
-4.82348
-4.65857
-4.48615
-4.30664
-4.12067
-3.92878
-3.73167
-3.53
-3.32456
-3.11607
-2.90539
-2.69333
-2.48079
-2.26862
-2.05774
-1.84906
-1.64349
-1.44196
-1.24535
-1.05459
-0.870507
-0.694015
-0.525871
-0.366945
-0.217908
-0.0795817
0.0474625
0.16247
0.264969
0.354297
0.4301
0.491877
0.53942
0.572485
0.591102
0.595361
0.585659
0.562532
0.526811
0.47959
0.421426
0.357383
0.268525
0.270616
-22.019
-22.0356
-22.0448
-22.0564
-22.0687
-22.0826
-22.0984
-22.1164
-22.1367
-22.1593
-22.1841
-22.2111
-22.2401
-22.2709
-22.3035
-22.3376
-22.373
-22.4095
-22.4471
-22.4853
-22.5241
-22.5633
-22.6025
-22.6416
-22.6804
-22.7186
-22.756
-22.7925
-22.8277
-22.8615
-22.8937
-22.924
-22.9522
-22.978
-23.0014
-23.022
-23.0398
-23.0546
-23.0661
-23.0742
-23.0787
-23.0795
-23.0763
-23.0689
-23.0572
-23.0408
-23.0194
-22.9926
-22.96
-22.9212
-22.8757
-22.8229
-22.7615
-22.6903
-22.6088
-22.5171
-22.4146
-22.3006
-22.1745
-22.0353
-21.8822
-21.7142
-21.5304
-21.3298
-21.1115
-20.8744
-20.6178
-20.3408
-20.0428
-19.723
-19.3812
-19.0169
-18.63
-18.2208
-17.7895
-17.3369
-16.8639
-16.3717
-15.862
-15.3367
-14.7981
-14.2488
-13.6918
-13.1302
-12.5674
-12.0071
-11.4529
-10.9085