/*--------------------------------*- C++ -*----------------------------------*\
  =========                 |
  \\      /  F ield         | OpenFOAM: The Open Source CFD Toolbox
   \\    /   O peration     | Website:  https://openfoam.org
    \\  /    A nd           | Version:  7
     \\/     M anipulation  |
\*---------------------------------------------------------------------------*/
FoamFile
{
    version     2.0;
    format      ascii;
    class       surfaceScalarField;
    location    "500";
    object      phi;
}
// * * * * * * * * * * * * * * * * * * * * * * * * * * * * * * * * * * * * * //

dimensions      [0 3 -1 0 0 0 0];

internalField   nonuniform List<scalar> 
33502
(
-2.03783e-09
2.08551e-09
-4.28723e-08
4.08965e-08
-1.02582e-07
5.97211e-08
-1.70213e-07
6.76802e-08
-2.41504e-07
7.12917e-08
-3.14947e-07
7.34497e-08
-3.90481e-07
7.55257e-08
-4.6887e-07
7.83957e-08
-5.50637e-07
8.17859e-08
-6.33299e-07
8.27301e-08
-7.21412e-07
8.81383e-08
-8.06823e-07
8.54315e-08
-8.82542e-07
7.57084e-08
-9.57789e-07
7.52416e-08
-1.03212e-06
7.43156e-08
-1.10517e-06
7.30409e-08
-1.17688e-06
7.16926e-08
-1.24726e-06
7.03761e-08
-1.31642e-06
6.91393e-08
-1.38443e-06
6.80095e-08
-1.45142e-06
6.69811e-08
-1.51748e-06
6.60504e-08
-1.58269e-06
6.52005e-08
-1.64711e-06
6.44195e-08
-1.71081e-06
6.36921e-08
-1.77382e-06
6.30024e-08
-1.83616e-06
6.23396e-08
-1.89785e-06
6.16896e-08
-1.9589e-06
6.10422e-08
-2.01929e-06
6.03878e-08
-2.07901e-06
5.97181e-08
-2.13803e-06
5.90256e-08
-2.19634e-06
5.83041e-08
-2.25389e-06
5.75477e-08
-2.31064e-06
5.67517e-08
-2.36655e-06
5.59114e-08
-2.42157e-06
5.50227e-08
-2.47565e-06
5.40814e-08
-2.52873e-06
5.30837e-08
-2.58075e-06
5.2025e-08
-2.63165e-06
5.09014e-08
-2.68135e-06
4.97077e-08
-2.72979e-06
4.84393e-08
-2.77687e-06
4.70902e-08
-2.82252e-06
4.56549e-08
-2.86665e-06
4.41265e-08
-2.90914e-06
4.24988e-08
-2.9499e-06
4.07639e-08
-2.9888e-06
3.89152e-08
-3.02574e-06
3.69446e-08
-3.06058e-06
3.4845e-08
-3.09318e-06
3.26083e-08
-3.1234e-06
3.02277e-08
-3.15108e-06
2.76953e-08
-3.17608e-06
2.50044e-08
-3.19821e-06
2.21473e-08
-3.21732e-06
1.91175e-08
-3.23321e-06
1.59066e-08
-3.24571e-06
1.25053e-08
-3.2546e-06
8.90053e-09
-3.25967e-06
5.08335e-09
-3.26069e-06
1.0348e-09
-3.25748e-06
-3.19937e-09
-3.24989e-06
-7.57648e-09
-3.23775e-06
-1.21286e-08
-3.22086e-06
-1.68714e-08
-3.19904e-06
-2.18087e-08
-3.17209e-06
-2.69385e-08
-3.13983e-06
-3.22555e-08
-3.10207e-06
-3.77495e-08
-3.05865e-06
-4.34078e-08
-3.00943e-06
-4.92121e-08
-2.95428e-06
-5.51417e-08
-2.8931e-06
-6.11695e-08
-2.82583e-06
-6.72671e-08
-2.75243e-06
-7.33996e-08
-2.67289e-06
-7.95303e-08
-2.58727e-06
-8.56151e-08
-2.49566e-06
-9.16091e-08
-2.3982e-06
-9.74624e-08
-2.29508e-06
-1.03124e-07
-2.18654e-06
-1.08538e-07
-2.0729e-06
-1.13652e-07
-1.95449e-06
-1.18408e-07
-1.83175e-06
-1.22752e-07
-1.70512e-06
-1.26636e-07
-1.57512e-06
-1.30011e-07
-1.44229e-06
-1.32837e-07
-1.30723e-06
-1.35078e-07
-1.17053e-06
-1.3671e-07
-1.03283e-06
-1.37715e-07
-8.94758e-07
-1.38093e-07
-7.56936e-07
-1.3784e-07
-6.19944e-07
-1.37012e-07
-4.84342e-07
-1.35621e-07
-3.5065e-07
-1.33722e-07
-2.19109e-07
-1.3157e-07
-8.97004e-08
-1.29442e-07
3.64473e-08
-1.26174e-07
1.57539e-07
-1.21129e-07
2.72845e-07
-1.15345e-07
3.82062e-07
-1.09264e-07
4.85085e-07
-1.03065e-07
5.81816e-07
-9.6772e-08
6.72179e-07
-9.03966e-08
7.56097e-07
-8.39495e-08
8.33516e-07
-7.74474e-08
9.04395e-07
-7.0905e-08
9.68713e-07
-6.43419e-08
1.02646e-06
-5.77722e-08
1.07765e-06
-5.12139e-08
1.12231e-06
-4.46788e-08
1.16047e-06
-3.81823e-08
1.19219e-06
-3.17344e-08
1.21751e-06
-2.53492e-08
1.23653e-06
-1.90394e-08
1.24934e-06
-1.28266e-08
1.25606e-06
-6.73801e-09
1.25682e-06
-7.77368e-10
1.25173e-06
5.07655e-09
1.2409e-06
1.08116e-08
1.22449e-06
1.63937e-08
1.20268e-06
2.17943e-08
1.17568e-06
2.69872e-08
1.14372e-06
3.19476e-08
1.10706e-06
3.6647e-08
1.066e-06
4.10577e-08
1.02085e-06
4.51462e-08
9.71962e-07
4.88818e-08
9.19734e-07
5.22277e-08
8.64583e-07
5.51533e-08
8.06965e-07
5.76233e-08
7.47358e-07
5.96132e-08
6.86271e-07
6.10958e-08
6.24224e-07
6.20584e-08
5.6175e-07
6.24873e-08
4.9938e-07
6.23867e-08
4.37632e-07
6.17635e-08
3.76997e-07
6.06469e-08
3.17934e-07
5.90718e-08
2.60855e-07
5.70899e-08
2.06135e-07
5.47413e-08
1.54118e-07
5.20499e-08
1.05156e-07
4.89983e-08
5.96356e-08
4.55499e-08
1.79676e-08
4.16905e-08
-1.95033e-08
3.74936e-08
-5.24872e-08
3.30101e-08
-8.07684e-08
2.83141e-08
-1.04196e-07
2.34597e-08
-1.22643e-07
1.84818e-08
-1.36014e-07
1.3403e-08
-1.44233e-07
8.25446e-09
-1.47185e-07
2.98542e-09
-1.44929e-07
-2.21704e-09
-1.37699e-07
-7.19633e-09
-1.25591e-07
-1.20701e-08
-1.08664e-07
-1.68947e-08
-8.69507e-08
-2.16773e-08
-6.04903e-08
-2.64289e-08
-2.92955e-08
-3.11626e-08
6.63462e-09
-3.5899e-08
4.70556e-08
-4.03845e-08
9.17055e-08
-4.46135e-08
1.40636e-07
-4.88913e-08
1.93841e-07
-5.31705e-08
2.51286e-07
-5.74111e-08
3.12902e-07
-6.15856e-08
3.78603e-07
-6.56705e-08
4.48282e-07
-6.96522e-08
5.21826e-07
-7.35153e-08
5.99102e-07
-7.72509e-08
6.79976e-07
-8.08477e-08
7.64299e-07
-8.42988e-08
8.51919e-07
-8.75954e-08
9.42673e-07
-9.0732e-08
1.0364e-06
-9.37013e-08
1.13292e-06
-9.64988e-08
1.23206e-06
-9.91186e-08
1.33364e-06
-1.01557e-07
1.43747e-06
-1.03809e-07
1.54336e-06
-1.05871e-07
1.65112e-06
-1.07739e-07
1.76055e-06
-1.0941e-07
1.87146e-06
-1.1088e-07
1.98363e-06
-1.12147e-07
2.09687e-06
-1.13209e-07
2.21096e-06
-1.14067e-07
2.32571e-06
-1.14722e-07
2.44092e-06
-1.15186e-07
2.5564e-06
-1.1547e-07
2.67201e-06
-1.15606e-07
2.78764e-06
-1.15641e-07
2.90328e-06
-1.15664e-07
3.01908e-06
-1.15838e-07
3.13551e-06
-1.16477e-07
3.25365e-06
-1.18248e-07
3.37626e-06
-1.22772e-07
3.51099e-06
-1.34986e-07
-1.68192e-07
-3.78344e-08
3.99939e-08
-8.4251e-08
8.73434e-08
-1.40304e-07
1.15799e-07
-2.03879e-07
1.31275e-07
-2.72625e-07
1.40062e-07
-3.44996e-07
1.45825e-07
-4.19948e-07
1.5049e-07
-4.96444e-07
1.54901e-07
-5.73387e-07
1.5876e-07
-6.51143e-07
1.60505e-07
-7.23948e-07
1.60962e-07
-7.96858e-07
1.58347e-07
-8.72923e-07
1.51771e-07
-9.45122e-07
1.47444e-07
-1.01473e-06
1.43925e-07
-1.08245e-06
1.40761e-07
-1.14859e-06
1.37822e-07
-1.21334e-06
1.35124e-07
-1.27687e-06
1.32664e-07
-1.3393e-06
1.30431e-07
-1.40073e-06
1.28407e-07
-1.46124e-06
1.26565e-07
-1.52092e-06
1.24879e-07
-1.57983e-06
1.23319e-07
-1.638e-06
1.21858e-07
-1.69546e-06
1.20469e-07
-1.75225e-06
1.19125e-07
-1.80837e-06
1.17805e-07
-1.86381e-06
1.16488e-07
-1.91858e-06
1.15156e-07
-1.97266e-06
1.13792e-07
-2.02602e-06
1.12384e-07
-2.07863e-06
1.10918e-07
-2.13046e-06
1.09384e-07
-2.18148e-06
1.07772e-07
-2.23165e-06
1.06074e-07
-2.2809e-06
1.0428e-07
-2.3292e-06
1.02383e-07
-2.37649e-06
1.00375e-07
-2.42271e-06
9.82466e-08
-2.4678e-06
9.59895e-08
-2.51168e-06
9.35943e-08
-2.55429e-06
9.10499e-08
-2.59554e-06
8.83457e-08
-2.63535e-06
8.54689e-08
-2.67363e-06
8.24072e-08
-2.71027e-06
7.91461e-08
-2.74518e-06
7.56721e-08
-2.77823e-06
7.19694e-08
-2.8093e-06
6.80239e-08
-2.83827e-06
6.38197e-08
-2.865e-06
5.9343e-08
-2.88935e-06
5.45783e-08
-2.91116e-06
4.95124e-08
-2.93028e-06
4.41308e-08
-2.94655e-06
3.84207e-08
-2.95979e-06
3.23684e-08
-2.96984e-06
2.5961e-08
-2.97651e-06
1.91802e-08
-2.97961e-06
1.20039e-08
-2.97893e-06
4.41138e-09
-2.97432e-06
-3.57082e-09
-2.96563e-06
-1.18773e-08
-2.9527e-06
-2.0501e-08
-2.93535e-06
-2.94785e-08
-2.91339e-06
-3.88243e-08
-2.88665e-06
-4.85403e-08
-2.85497e-06
-5.86201e-08
-2.81817e-06
-6.90493e-08
-2.77611e-06
-7.98072e-08
-2.72865e-06
-9.08645e-08
-2.67567e-06
-1.02185e-07
-2.61709e-06
-1.13723e-07
-2.55283e-06
-1.25427e-07
-2.48286e-06
-1.37234e-07
-2.40718e-06
-1.49079e-07
-2.32583e-06
-1.60884e-07
-2.23888e-06
-1.72565e-07
-2.14646e-06
-1.8403e-07
-2.04875e-06
-1.95184e-07
-1.94595e-06
-2.05925e-07
-1.83834e-06
-2.16148e-07
-1.72625e-06
-2.25745e-07
-1.61005e-06
-2.34613e-07
-1.49016e-06
-2.42647e-07
-1.36705e-06
-2.49755e-07
-1.24122e-06
-2.55844e-07
-1.11322e-06
-2.60844e-07
-9.83614e-07
-2.64688e-07
-8.52995e-07
-2.67336e-07
-7.21958e-07
-2.68757e-07
-5.91098e-07
-2.6896e-07
-4.61001e-07
-2.67943e-07
-3.32216e-07
-2.65804e-07
-2.05248e-07
-2.62596e-07
-8.04242e-08
-2.58554e-07
4.14407e-08
-2.53445e-07
1.58913e-07
-2.46925e-07
2.7135e-07
-2.3862e-07
3.78574e-07
-2.28366e-07
4.80364e-07
-2.17148e-07
5.76558e-07
-2.05474e-07
6.66951e-07
-1.93472e-07
7.51379e-07
-1.81214e-07
8.29718e-07
-1.68746e-07
9.01869e-07
-1.56111e-07
9.67767e-07
-1.43353e-07
1.02737e-06
-1.30515e-07
1.08066e-06
-1.17638e-07
1.12764e-06
-1.04761e-07
1.16834e-06
-9.19205e-08
1.2028e-06
-7.91497e-08
1.2311e-06
-6.64791e-08
1.2533e-06
-5.3939e-08
1.2695e-06
-4.15588e-08
1.27983e-06
-2.93751e-08
1.28443e-06
-1.74292e-08
1.28345e-06
-5.76132e-09
1.27705e-06
5.62088e-09
1.26541e-06
1.67109e-08
1.24875e-06
2.74668e-08
1.2273e-06
3.784e-08
1.20131e-06
4.77812e-08
1.17106e-06
5.7244e-08
1.13683e-06
6.6179e-08
1.09894e-06
7.45381e-08
1.05773e-06
8.22682e-08
1.01356e-06
8.93185e-08
9.66807e-07
9.56335e-08
9.17878e-07
1.01163e-07
8.67179e-07
1.05856e-07
8.15139e-07
1.09671e-07
7.6219e-07
1.12568e-07
7.08773e-07
1.14523e-07
6.55322e-07
1.15517e-07
6.0227e-07
1.15551e-07
5.50032e-07
1.14634e-07
4.9901e-07
1.12798e-07
4.49588e-07
1.10078e-07
4.02145e-07
1.06526e-07
3.57053e-07
1.02191e-07
3.14682e-07
9.71282e-08
2.75371e-07
9.13763e-08
2.39421e-07
8.49683e-08
2.07079e-07
7.79068e-08
1.78576e-07
7.0211e-08
1.54104e-07
6.19803e-08
1.33797e-07
5.33343e-08
1.17777e-07
4.4351e-08
1.06168e-07
3.5086e-08
9.90895e-08
2.55757e-08
9.66527e-08
1.58563e-08
9.89595e-08
5.96212e-09
1.0589e-07
-3.92919e-09
1.17305e-07
-1.36169e-08
1.33244e-07
-2.31204e-08
1.53716e-07
-3.25288e-08
1.78709e-07
-4.1874e-08
2.08207e-07
-5.11629e-08
2.42189e-07
-6.03984e-08
2.80622e-07
-6.95844e-08
3.23495e-07
-7.87612e-08
3.70759e-07
-8.76379e-08
4.22301e-07
-9.61436e-08
4.77977e-07
-1.04557e-07
5.37674e-07
-1.12858e-07
6.01303e-07
-1.21032e-07
6.68775e-07
-1.2905e-07
7.39997e-07
-1.36884e-07
8.14862e-07
-1.4451e-07
8.93261e-07
-1.51907e-07
9.75072e-07
-1.59054e-07
1.06017e-06
-1.65936e-07
1.14841e-06
-1.72535e-07
1.23966e-06
-1.78839e-07
1.33377e-06
-1.84834e-07
1.43059e-06
-1.90507e-07
1.52995e-06
-1.95848e-07
1.63169e-06
-2.00847e-07
1.73564e-06
-2.05494e-07
1.84162e-06
-2.09779e-07
1.94946e-06
-2.13695e-07
2.05897e-06
-2.17233e-07
2.16996e-06
-2.20386e-07
2.28225e-06
-2.23147e-07
2.39563e-06
-2.25509e-07
2.50991e-06
-2.27469e-07
2.6249e-06
-2.29027e-07
2.74039e-06
-2.30188e-07
2.8562e-06
-2.30966e-07
2.97214e-06
-2.31392e-07
3.08807e-06
-2.31518e-07
3.20387e-06
-2.31434e-07
3.3195e-06
-2.31299e-07
3.43504e-06
-2.31392e-07
3.55078e-06
-2.32242e-07
3.66733e-06
-2.34858e-07
3.78595e-06
-2.41513e-07
3.9085e-06
-2.57715e-07
-2.92902e-07
-5.26558e-08
9.26958e-08
-1.05368e-07
1.40094e-07
-1.61486e-07
1.7194e-07
-2.22247e-07
1.92062e-07
-2.87119e-07
2.04948e-07
-3.55006e-07
2.13735e-07
-4.24701e-07
2.20192e-07
-4.94838e-07
2.25062e-07
-5.64245e-07
2.28178e-07
-6.32489e-07
2.28769e-07
-6.98417e-07
2.26894e-07
-7.6298e-07
2.22915e-07
-8.28111e-07
2.16908e-07
-8.91857e-07
2.11194e-07
-9.5399e-07
2.06061e-07
-1.01463e-06
2.01403e-07
-1.07396e-06
1.97147e-07
-1.13211e-06
1.93271e-07
-1.1892e-06
1.8975e-07
-1.24532e-06
1.86555e-07
-1.30057e-06
1.83652e-07
-1.35501e-06
1.81003e-07
-1.40869e-06
1.78566e-07
-1.46168e-06
1.76302e-07
-1.51399e-06
1.7417e-07
-1.56565e-06
1.72133e-07
-1.61668e-06
1.70157e-07
-1.66709e-06
1.68208e-07
-1.71686e-06
1.66259e-07
-1.76599e-06
1.64284e-07
-1.81446e-06
1.62261e-07
-1.86224e-06
1.6017e-07
-1.90932e-06
1.57993e-07
-1.95565e-06
1.55717e-07
-2.0012e-06
1.53326e-07
-2.04594e-06
1.50808e-07
-2.08981e-06
1.48152e-07
-2.13277e-06
1.45345e-07
-2.17477e-06
1.42376e-07
-2.21575e-06
1.39232e-07
-2.25566e-06
1.35899e-07
-2.29443e-06
1.32363e-07
-2.33199e-06
1.2861e-07
-2.36826e-06
1.24621e-07
-2.40317e-06
1.20379e-07
-2.43662e-06
1.15863e-07
-2.46853e-06
1.11055e-07
-2.49878e-06
1.0593e-07
-2.52728e-06
1.00468e-07
-2.5539e-06
9.4646e-08
-2.57852e-06
8.84412e-08
-2.60101e-06
8.18315e-08
-2.62122e-06
7.47955e-08
-2.63902e-06
6.73123e-08
-2.65424e-06
5.93618e-08
-2.66674e-06
5.09246e-08
-2.67636e-06
4.19822e-08
-2.68291e-06
3.25158e-08
-2.68623e-06
2.25022e-08
-2.68614e-06
1.1916e-08
-2.68246e-06
7.3489e-10
-2.67505e-06
-1.09717e-08
-2.66379e-06
-2.31393e-08
-2.64849e-06
-3.58023e-08
-2.62897e-06
-4.89881e-08
-2.60509e-06
-6.27089e-08
-2.57666e-06
-7.69636e-08
-2.54354e-06
-9.17395e-08
-2.50558e-06
-1.07014e-07
-2.46263e-06
-1.22753e-07
-2.41458e-06
-1.38912e-07
-2.36134e-06
-1.55434e-07
-2.30281e-06
-1.7225e-07
-2.23896e-06
-1.89278e-07
-2.16977e-06
-2.06428e-07
-2.09525e-06
-2.23598e-07
-2.01546e-06
-2.40673e-07
-1.9305e-06
-2.57527e-07
-1.84051e-06
-2.74024e-07
-1.74567e-06
-2.90021e-07
-1.64623e-06
-3.05372e-07
-1.54246e-06
-3.19918e-07
-1.4347e-06
-3.33507e-07
-1.32332e-06
-3.45987e-07
-1.20877e-06
-3.57206e-07
-1.09148e-06
-3.67036e-07
-9.71983e-07
-3.75346e-07
-8.50792e-07
-3.82034e-07
-7.28465e-07
-3.87013e-07
-6.05572e-07
-3.90227e-07
-4.82685e-07
-3.91642e-07
-3.60371e-07
-3.91271e-07
-2.39188e-07
-3.89122e-07
-1.19662e-07
-3.85325e-07
-2.29037e-09
-3.79963e-07
1.11886e-07
-3.72727e-07
2.2196e-07
-3.63517e-07
3.27516e-07
-3.52478e-07
4.28333e-07
-3.39435e-07
5.2442e-07
-3.24451e-07
6.15507e-07
-3.08236e-07
7.01275e-07
-2.91243e-07
7.81483e-07
-2.73683e-07
8.55954e-07
-2.55686e-07
9.24558e-07
-2.37352e-07
9.87211e-07
-2.18764e-07
1.04386e-06
-2.00004e-07
1.09449e-06
-1.81142e-07
1.1391e-06
-1.6225e-07
1.17773e-06
-1.43388e-07
1.21043e-06
-1.24617e-07
1.23727e-06
-1.0599e-07
1.25835e-06
-8.75585e-08
1.27378e-06
-6.93707e-08
1.2837e-06
-5.14781e-08
1.28826e-06
-3.39389e-08
1.28765e-06
-1.68165e-08
1.28204e-06
-1.53369e-10
1.27164e-06
1.60252e-08
1.25667e-06
3.16838e-08
1.23737e-06
4.67619e-08
1.21402e-06
6.11939e-08
1.18688e-06
7.49133e-08
1.15627e-06
8.78545e-08
1.1225e-06
9.99521e-08
1.08589e-06
1.1114e-07
1.04681e-06
1.21354e-07
1.0056e-06
1.30526e-07
9.62636e-07
1.38595e-07
9.18298e-07
1.45499e-07
8.72966e-07
1.51186e-07
8.27024e-07
1.5561e-07
7.80852e-07
1.58737e-07
7.34827e-07
1.60543e-07
6.89318e-07
1.61023e-07
6.44679e-07
1.60184e-07
6.01254e-07
1.58055e-07
5.59374e-07
1.54672e-07
5.19357e-07
1.50089e-07
4.81512e-07
1.44363e-07
4.46136e-07
1.3756e-07
4.13513e-07
1.29744e-07
3.83905e-07
1.20981e-07
3.57545e-07
1.11325e-07
3.34623e-07
1.00826e-07
3.15279e-07
8.95502e-08
2.99644e-07
7.76126e-08
2.87848e-07
6.51278e-08
2.80017e-07
5.21814e-08
2.76269e-07
3.88323e-08
2.76711e-07
2.51335e-08
2.81436e-07
1.11296e-08
2.90392e-07
-2.99457e-09
3.03475e-07
-1.70136e-08
3.20719e-07
-3.0861e-08
3.42166e-07
-4.45675e-08
3.67818e-07
-5.81805e-08
3.97663e-07
-7.17196e-08
4.31684e-07
-8.5183e-08
4.69853e-07
-9.85666e-08
5.12132e-07
-1.11863e-07
5.58448e-07
-1.25075e-07
6.08798e-07
-1.37985e-07
6.63169e-07
-1.5051e-07
7.21425e-07
-1.62808e-07
7.83457e-07
-1.74884e-07
8.4916e-07
-1.8673e-07
9.18437e-07
-1.98321e-07
9.91188e-07
-2.09629e-07
1.06731e-06
-2.20625e-07
1.14669e-06
-2.31281e-07
1.22921e-06
-2.41571e-07
1.31475e-06
-2.51471e-07
1.40318e-06
-2.60959e-07
1.49436e-06
-2.70015e-07
1.58815e-06
-2.78619e-07
1.6844e-06
-2.86754e-07
1.78296e-06
-2.94404e-07
1.88367e-06
-3.01551e-07
1.98636e-06
-3.08183e-07
2.09087e-06
-3.14286e-07
2.19703e-06
-3.19845e-07
2.30465e-06
-3.2485e-07
2.41355e-06
-3.29288e-07
2.52355e-06
-3.33147e-07
2.63447e-06
-3.36419e-07
2.7461e-06
-3.39096e-07
2.85825e-06
-3.41178e-07
2.97074e-06
-3.42671e-07
3.08337e-06
-3.43595e-07
3.19597e-06
-3.43991e-07
3.30838e-06
-3.4393e-07
3.42047e-06
-3.43536e-07
3.53218e-06
-3.43015e-07
3.64349e-06
-3.42721e-07
3.75451e-06
-3.43282e-07
3.86543e-06
-3.45818e-07
3.97644e-06
-3.52596e-07
4.08638e-06
-3.67782e-07
-3.97075e-07
-5.81554e-08
1.50961e-07
-1.14261e-07
1.96241e-07
-1.70634e-07
2.28332e-07
-2.29056e-07
2.50504e-07
-2.89773e-07
2.65677e-07
-3.5215e-07
2.76124e-07
-4.152e-07
2.83254e-07
-4.77845e-07
2.87718e-07
-5.39233e-07
2.89579e-07
-5.99167e-07
2.88712e-07
-6.57694e-07
2.85428e-07
-7.1511e-07
2.80336e-07
-7.72104e-07
2.73908e-07
-8.28224e-07
2.67318e-07
-8.83262e-07
2.61101e-07
-9.37199e-07
2.5534e-07
-9.90094e-07
2.50042e-07
-1.04202e-06
2.452e-07
-1.09306e-06
2.40789e-07
-1.14328e-06
2.36774e-07
-1.19274e-06
2.33113e-07
-1.2415e-06
2.29758e-07
-1.28959e-06
2.26659e-07
-1.33705e-06
2.23766e-07
-1.38391e-06
2.21029e-07
-1.43018e-06
2.18402e-07
-1.47586e-06
2.15842e-07
-1.52096e-06
2.13309e-07
-1.56547e-06
2.10769e-07
-1.60938e-06
2.08189e-07
-1.65266e-06
2.05542e-07
-1.69529e-06
2.02803e-07
-1.73725e-06
1.99953e-07
-1.7785e-06
1.96971e-07
-1.81902e-06
1.9384e-07
-1.85875e-06
1.90546e-07
-1.89767e-06
1.87072e-07
-1.93573e-06
1.83404e-07
-1.97288e-06
1.79527e-07
-2.00908e-06
1.75425e-07
-2.04425e-06
1.7108e-07
-2.07836e-06
1.66473e-07
-2.11134e-06
1.61585e-07
-2.14311e-06
1.56392e-07
-2.1736e-06
1.50871e-07
-2.20273e-06
1.44995e-07
-2.23041e-06
1.38737e-07
-2.25654e-06
1.32068e-07
-2.28103e-06
1.24958e-07
-2.30376e-06
1.17377e-07
-2.32461e-06
1.09295e-07
-2.34346e-06
1.00681e-07
-2.36017e-06
9.15089e-08
-2.37461e-06
8.17497e-08
-2.38662e-06
7.13774e-08
-2.39606e-06
6.0367e-08
-2.40277e-06
4.86949e-08
-2.40659e-06
3.63372e-08
-2.40735e-06
2.32643e-08
-2.40488e-06
9.4474e-09
-2.39905e-06
-5.09489e-09
-2.38973e-06
-2.02878e-08
-2.37676e-06
-3.61064e-08
-2.35998e-06
-5.2583e-08
-2.33923e-06
-6.97432e-08
-2.31434e-06
-8.75973e-08
-2.28516e-06
-1.06141e-07
-2.25154e-06
-1.25354e-07
-2.21335e-06
-1.45206e-07
-2.17046e-06
-1.6565e-07
-2.12274e-06
-1.86624e-07
-2.07013e-06
-2.08053e-07
-2.01254e-06
-2.29841e-07
-1.94994e-06
-2.51879e-07
-1.88232e-06
-2.74045e-07
-1.80972e-06
-2.96204e-07
-1.73219e-06
-3.18203e-07
-1.64985e-06
-3.39874e-07
-1.56284e-06
-3.61034e-07
-1.47137e-06
-3.81499e-07
-1.37567e-06
-4.01075e-07
-1.27603e-06
-4.19554e-07
-1.1728e-06
-4.36738e-07
-1.06636e-06
-4.52432e-07
-9.57134e-07
-4.66436e-07
-8.4558e-07
-4.78591e-07
-7.32197e-07
-4.88729e-07
-6.17511e-07
-4.96721e-07
-5.02059e-07
-5.02465e-07
-3.86401e-07
-5.05885e-07
-2.71091e-07
-5.06951e-07
-1.56688e-07
-5.05672e-07
-4.36769e-08
-5.02131e-07
6.71635e-08
-4.96162e-07
1.74927e-07
-4.87723e-07
2.79098e-07
-4.76896e-07
3.79276e-07
-4.63692e-07
4.75078e-07
-4.48278e-07
5.66325e-07
-4.3068e-07
6.5296e-07
-4.11086e-07
7.34748e-07
-3.90023e-07
8.11406e-07
-3.67902e-07
8.8271e-07
-3.44988e-07
9.48497e-07
-3.21473e-07
1.00865e-06
-2.97508e-07
1.06311e-06
-2.73223e-07
1.11185e-06
-2.48735e-07
1.15486e-06
-2.24151e-07
1.19218e-06
-1.99566e-07
1.22386e-06
-1.75071e-07
1.25e-06
-1.50747e-07
1.27068e-06
-1.2667e-07
1.28604e-06
-1.02911e-07
1.29621e-06
-7.95401e-08
1.30136e-06
-5.66284e-08
1.30168e-06
-3.42559e-08
1.29738e-06
-1.25041e-08
1.28864e-06
8.58358e-09
1.27571e-06
2.89644e-08
1.25882e-06
4.85721e-08
1.23826e-06
6.7331e-08
1.21429e-06
8.51612e-08
1.18723e-06
1.01983e-07
1.15737e-06
1.17716e-07
1.12504e-06
1.32285e-07
1.09057e-06
1.45613e-07
1.0543e-06
1.57627e-07
1.01657e-06
1.68256e-07
9.77739e-07
1.77433e-07
9.38142e-07
1.85099e-07
8.98128e-07
1.91203e-07
8.58036e-07
1.95705e-07
8.18197e-07
1.98577e-07
7.78933e-07
1.99809e-07
7.40554e-07
1.99403e-07
7.03357e-07
1.97384e-07
6.67626e-07
1.93786e-07
6.33635e-07
1.88665e-07
6.01643e-07
1.82081e-07
5.71899e-07
1.74107e-07
5.44639e-07
1.6482e-07
5.20082e-07
1.54303e-07
4.98428e-07
1.42637e-07
4.79855e-07
1.29901e-07
4.64507e-07
1.16177e-07
4.525e-07
1.0156e-07
4.43949e-07
8.61668e-08
4.38973e-07
7.01073e-08
4.37689e-07
5.34688e-08
4.40203e-07
3.63206e-08
4.46612e-07
1.87266e-08
4.56903e-07
8.40401e-10
4.70986e-07
-1.70765e-08
4.88863e-07
-3.48896e-08
5.10594e-07
-5.25911e-08
5.36213e-07
-7.01857e-08
5.65724e-07
-8.76915e-08
5.99117e-07
-1.05112e-07
6.36372e-07
-1.22438e-07
6.77458e-07
-1.39653e-07
7.22334e-07
-1.56739e-07
7.7093e-07
-1.73671e-07
8.23238e-07
-1.90293e-07
8.79252e-07
-2.06523e-07
9.38876e-07
-2.22431e-07
1.00201e-06
-2.38019e-07
1.06856e-06
-2.53276e-07
1.13842e-06
-2.68181e-07
1.21149e-06
-2.82702e-07
1.28767e-06
-2.96808e-07
1.36686e-06
-3.10466e-07
1.44893e-06
-3.23645e-07
1.53377e-06
-3.36315e-07
1.62126e-06
-3.48447e-07
1.71127e-06
-3.60017e-07
1.80365e-06
-3.70997e-07
1.89826e-06
-3.81367e-07
1.99496e-06
-3.91102e-07
2.0936e-06
-4.00184e-07
2.19401e-06
-4.08593e-07
2.29604e-06
-4.16311e-07
2.39952e-06
-4.23318e-07
2.50428e-06
-4.296e-07
2.61014e-06
-4.35139e-07
2.71693e-06
-4.39919e-07
2.82445e-06
-4.43928e-07
2.93252e-06
-4.47156e-07
3.04096e-06
-4.49598e-07
3.14957e-06
-4.51265e-07
3.25817e-06
-4.52176e-07
3.36658e-06
-4.52383e-07
3.47464e-06
-4.51971e-07
3.5822e-06
-4.51086e-07
3.68916e-06
-4.49964e-07
3.79543e-06
-4.48996e-07
3.90098e-06
-4.48834e-07
4.00568e-06
-4.50544e-07
4.1091e-06
-4.56078e-07
4.20927e-06
-4.68066e-07
-4.90233e-07
-5.94389e-08
2.1045e-07
-1.16152e-07
2.52975e-07
-1.71516e-07
2.83716e-07
-2.27072e-07
3.06063e-07
-2.83284e-07
3.21898e-07
-3.3988e-07
3.32728e-07
-3.96234e-07
3.39617e-07
-4.51687e-07
3.43181e-07
-5.05817e-07
3.43719e-07
-5.5861e-07
3.41513e-07
-6.10255e-07
3.3708e-07
-6.60969e-07
3.31056e-07
-7.11069e-07
3.24014e-07
-7.60468e-07
3.16722e-07
-8.09041e-07
3.09677e-07
-8.56755e-07
3.03055e-07
-9.03632e-07
2.9692e-07
-9.49716e-07
2.91283e-07
-9.95054e-07
2.86127e-07
-1.0397e-06
2.81416e-07
-1.08368e-06
2.77103e-07
-1.12706e-06
2.73133e-07
-1.16985e-06
2.69449e-07
-1.21207e-06
2.65992e-07
-1.25375e-06
2.62707e-07
-1.29488e-06
2.59538e-07
-1.33548e-06
2.56436e-07
-1.37552e-06
2.53356e-07
-1.41501e-06
2.50256e-07
-1.45392e-06
2.47102e-07
-1.49224e-06
2.43859e-07
-1.52994e-06
2.40502e-07
-1.56699e-06
2.37005e-07
-1.60337e-06
2.33347e-07
-1.63903e-06
2.29509e-07
-1.67396e-06
2.25473e-07
-1.70811e-06
2.21221e-07
-1.74144e-06
2.16736e-07
-1.77391e-06
2.11999e-07
-1.80548e-06
2.06993e-07
-1.83609e-06
2.01695e-07
-1.8657e-06
1.96084e-07
-1.89425e-06
1.90134e-07
-1.92168e-06
1.83817e-07
-1.94791e-06
1.77105e-07
-1.97288e-06
1.69964e-07
-1.9965e-06
1.6236e-07
-2.01868e-06
1.54256e-07
-2.03934e-06
1.45616e-07
-2.05836e-06
1.36401e-07
-2.07564e-06
1.26574e-07
-2.09106e-06
1.16097e-07
-2.10448e-06
1.04935e-07
-2.11578e-06
9.30548e-08
-2.12483e-06
8.0423e-08
-2.13147e-06
6.70095e-08
-2.13556e-06
5.27864e-08
-2.13695e-06
3.77252e-08
-2.13547e-06
2.17935e-08
-2.13098e-06
4.95583e-09
-2.12335e-06
-1.27231e-08
-2.11247e-06
-3.11647e-08
-2.09819e-06
-5.03928e-08
-2.08033e-06
-7.04384e-08
-2.05875e-06
-9.13245e-08
-2.03329e-06
-1.13059e-07
-2.0038e-06
-1.35632e-07
-1.97013e-06
-1.59019e-07
-1.93216e-06
-1.83179e-07
-1.88976e-06
-2.08053e-07
-1.84282e-06
-2.33564e-07
-1.79126e-06
-2.59615e-07
-1.73501e-06
-2.86087e-07
-1.67405e-06
-3.12842e-07
-1.60837e-06
-3.39725e-07
-1.53801e-06
-3.66569e-07
-1.46303e-06
-3.93186e-07
-1.38354e-06
-4.19363e-07
-1.29971e-06
-4.44871e-07
-1.21172e-06
-4.69482e-07
-1.11984e-06
-4.92962e-07
-1.02434e-06
-5.15048e-07
-9.25585e-07
-5.35495e-07
-8.23941e-07
-5.54075e-07
-7.19844e-07
-5.70533e-07
-6.1375e-07
-5.84683e-07
-5.06152e-07
-5.96325e-07
-3.97573e-07
-6.05297e-07
-2.88543e-07
-6.11491e-07
-1.79615e-07
-6.14808e-07
-7.13071e-08
-6.15253e-07
3.57425e-08
-6.12716e-07
1.4072e-07
-6.07102e-07
2.43014e-07
-5.98449e-07
3.42143e-07
-5.86844e-07
4.37668e-07
-5.72414e-07
5.29242e-07
-5.5526e-07
6.16547e-07
-5.35577e-07
6.99394e-07
-5.13523e-07
7.77669e-07
-4.89357e-07
8.51174e-07
-4.63525e-07
9.19688e-07
-4.36413e-07
9.83028e-07
-4.08326e-07
1.04106e-06
-3.79502e-07
1.0937e-06
-3.50143e-07
1.1409e-06
-3.20423e-07
1.18266e-06
-2.90496e-07
1.21902e-06
-2.605e-07
1.25001e-06
-2.30562e-07
1.27574e-06
-2.00797e-07
1.29631e-06
-1.71309e-07
1.31184e-06
-1.42198e-07
1.32248e-06
-1.13554e-07
1.32841e-06
-8.5465e-08
1.32981e-06
-5.80258e-08
1.32689e-06
-3.13352e-08
1.31987e-06
-5.4802e-09
1.30896e-06
1.94878e-08
1.29442e-06
4.35059e-08
1.27651e-06
6.64827e-08
1.25551e-06
8.83291e-08
1.23172e-06
1.08955e-07
1.20543e-06
1.28271e-07
1.17696e-06
1.46189e-07
1.14661e-06
1.62627e-07
1.11472e-06
1.77505e-07
1.0816e-06
1.90746e-07
1.04757e-06
2.0228e-07
1.01295e-06
2.12045e-07
9.78065e-07
2.19984e-07
9.43208e-07
2.26056e-07
9.08679e-07
2.30229e-07
8.74763e-07
2.32488e-07
8.41733e-07
2.32833e-07
8.09848e-07
2.31282e-07
7.79355e-07
2.27869e-07
7.50489e-07
2.22646e-07
7.23471e-07
2.15675e-07
6.98512e-07
2.07032e-07
6.7581e-07
1.968e-07
6.5555e-07
1.85071e-07
6.37904e-07
1.71941e-07
6.23027e-07
1.57506e-07
6.11059e-07
1.41863e-07
6.02116e-07
1.25113e-07
5.96302e-07
1.07367e-07
5.93722e-07
8.87416e-08
5.94483e-07
6.93413e-08
5.98688e-07
4.92596e-08
6.06429e-07
2.85755e-08
6.17749e-07
7.40323e-09
6.32558e-07
-1.39725e-08
6.50811e-07
-3.53327e-08
6.72576e-07
-5.66571e-08
6.97899e-07
-7.79174e-08
7.26812e-07
-9.91001e-08
7.59318e-07
-1.202e-07
7.95409e-07
-1.41205e-07
8.35064e-07
-1.62095e-07
8.78256e-07
-1.82845e-07
9.24941e-07
-2.03424e-07
9.75063e-07
-2.23792e-07
1.0286e-06
-2.43829e-07
1.08554e-06
-2.63459e-07
1.14581e-06
-2.82695e-07
1.20932e-06
-3.01529e-07
1.27599e-06
-3.19942e-07
1.34573e-06
-3.37908e-07
1.41842e-06
-3.55395e-07
1.49399e-06
-3.72367e-07
1.57231e-06
-3.88787e-07
1.65329e-06
-4.04619e-07
1.73681e-06
-4.19828e-07
1.82275e-06
-4.3438e-07
1.91098e-06
-4.48244e-07
2.00138e-06
-4.61388e-07
2.0938e-06
-4.73786e-07
2.18811e-06
-4.85409e-07
2.28416e-06
-4.96232e-07
2.3818e-06
-5.06232e-07
2.48088e-06
-5.15385e-07
2.58123e-06
-5.23669e-07
2.68269e-06
-5.31063e-07
2.7851e-06
-5.37544e-07
2.88827e-06
-5.43093e-07
2.99203e-06
-5.47693e-07
3.09621e-06
-5.51329e-07
3.2006e-06
-5.53996e-07
3.30504e-06
-5.557e-07
3.40933e-06
-5.56466e-07
3.51329e-06
-5.56347e-07
3.61675e-06
-5.55441e-07
3.71956e-06
-5.53903e-07
3.82157e-06
-5.51988e-07
3.92265e-06
-5.50091e-07
4.02264e-06
-5.48838e-07
4.12124e-06
-5.49163e-07
4.21773e-06
-5.5262e-07
4.3102e-06
-5.60632e-07
-5.76068e-07
-5.82541e-08
2.68783e-07
-1.13587e-07
3.08331e-07
-1.66716e-07
3.36847e-07
-2.18781e-07
3.58137e-07
-2.703e-07
3.73422e-07
-3.21245e-07
3.83679e-07
-3.71328e-07
3.89708e-07
-4.20247e-07
3.92107e-07
-4.67869e-07
3.91349e-07
-5.14281e-07
3.87932e-07
-5.59668e-07
3.82474e-07
-6.04219e-07
3.75613e-07
-6.48127e-07
3.67929e-07
-6.91412e-07
3.60012e-07
-7.34021e-07
3.52289e-07
-7.75935e-07
3.4497e-07
-8.17163e-07
3.38148e-07
-8.57732e-07
3.31852e-07
-8.97674e-07
3.26069e-07
-9.3702e-07
3.20763e-07
-9.75802e-07
3.15885e-07
-1.01404e-06
3.11375e-07
-1.05176e-06
3.07168e-07
-1.08897e-06
3.03201e-07
-1.12567e-06
2.9941e-07
-1.16187e-06
2.95736e-07
-1.19755e-06
2.92123e-07
-1.23272e-06
2.88521e-07
-1.26735e-06
2.84885e-07
-1.30142e-06
2.81175e-07
-1.33492e-06
2.77355e-07
-1.36781e-06
2.73396e-07
-1.40008e-06
2.69272e-07
-1.43169e-06
2.64958e-07
-1.46261e-06
2.60434e-07
-1.49282e-06
2.55681e-07
-1.52228e-06
2.5068e-07
-1.55096e-06
2.45412e-07
-1.57881e-06
2.39856e-07
-1.60581e-06
2.33992e-07
-1.63191e-06
2.27795e-07
-1.65706e-06
2.21239e-07
-1.68122e-06
2.14295e-07
-1.70434e-06
2.06932e-07
-1.72634e-06
1.99113e-07
-1.74718e-06
1.908e-07
-1.76677e-06
1.81952e-07
-1.78504e-06
1.72525e-07
-1.8019e-06
1.62474e-07
-1.81725e-06
1.51755e-07
-1.83099e-06
1.4032e-07
-1.84302e-06
1.28126e-07
-1.85321e-06
1.1513e-07
-1.86145e-06
1.01291e-07
-1.8676e-06
8.65723e-08
-1.87152e-06
7.09373e-08
-1.87309e-06
5.43534e-08
-1.87215e-06
3.67862e-08
-1.86855e-06
1.82008e-08
-1.86218e-06
-1.41398e-09
-1.85293e-06
-2.19718e-08
-1.84068e-06
-4.342e-08
-1.82526e-06
-6.58053e-08
-1.80654e-06
-8.91625e-08
-1.78435e-06
-1.13513e-07
-1.75854e-06
-1.38862e-07
-1.72898e-06
-1.65197e-07
-1.69551e-06
-1.92486e-07
-1.65801e-06
-2.2068e-07
-1.61636e-06
-2.49706e-07
-1.57045e-06
-2.79475e-07
-1.52019e-06
-3.09871e-07
-1.46553e-06
-3.40749e-07
-1.40644e-06
-3.7194e-07
-1.3429e-06
-4.03261e-07
-1.27496e-06
-4.34509e-07
-1.20269e-06
-4.65466e-07
-1.12618e-06
-4.95873e-07
-1.0456e-06
-5.25452e-07
-9.61151e-07
-5.53932e-07
-8.73075e-07
-5.81041e-07
-7.81667e-07
-6.06458e-07
-6.87275e-07
-6.29889e-07
-5.90273e-07
-6.51079e-07
-4.91093e-07
-6.69714e-07
-3.90195e-07
-6.85582e-07
-2.88065e-07
-6.98456e-07
-1.85234e-07
-7.08128e-07
-8.22095e-08
-7.14516e-07
2.04294e-08
-7.17446e-07
1.21931e-07
-7.16754e-07
2.21647e-07
-7.12431e-07
3.19075e-07
-7.04528e-07
4.13732e-07
-6.93105e-07
5.05176e-07
-6.78286e-07
5.9301e-07
-6.60247e-07
6.76914e-07
-6.39163e-07
7.56613e-07
-6.15274e-07
8.31915e-07
-5.88822e-07
9.02682e-07
-5.60123e-07
9.68747e-07
-5.29589e-07
1.02994e-06
-4.97607e-07
1.08613e-06
-4.64509e-07
1.1372e-06
-4.30578e-07
1.18312e-06
-3.96058e-07
1.22386e-06
-3.61164e-07
1.25945e-06
-3.26084e-07
1.28995e-06
-2.90992e-07
1.31543e-06
-2.56041e-07
1.336e-06
-2.2137e-07
1.35181e-06
-1.87109e-07
1.36299e-06
-1.53377e-07
1.36972e-06
-1.20283e-07
1.37219e-06
-8.79344e-08
1.37062e-06
-5.64453e-08
1.36522e-06
-2.59329e-08
1.35622e-06
3.52654e-09
1.34384e-06
3.18642e-08
1.32836e-06
5.8988e-08
1.31005e-06
8.47945e-08
1.2892e-06
1.09184e-07
1.2661e-06
1.3206e-07
1.24105e-06
1.53326e-07
1.21435e-06
1.72895e-07
1.1863e-06
1.90679e-07
1.15721e-06
2.066e-07
1.12737e-06
2.20585e-07
1.09708e-06
2.32569e-07
1.06664e-06
2.42495e-07
1.03631e-06
2.50317e-07
1.00636e-06
2.56004e-07
9.77054e-07
2.59537e-07
9.48631e-07
2.60913e-07
9.2132e-07
2.60147e-07
8.95335e-07
2.57268e-07
8.7088e-07
2.52326e-07
8.48146e-07
2.45381e-07
8.27312e-07
2.3651e-07
8.08545e-07
2.25799e-07
7.92003e-07
2.13342e-07
7.77832e-07
1.99242e-07
7.66167e-07
1.83607e-07
7.57132e-07
1.66542e-07
7.50839e-07
1.48158e-07
7.47386e-07
1.28568e-07
7.46868e-07
1.07888e-07
7.49378e-07
8.62331e-08
7.55014e-07
6.37078e-08
7.63864e-07
4.04113e-08
7.76003e-07
1.64383e-08
7.91349e-07
-7.94201e-09
8.09824e-07
-3.24464e-08
8.31491e-07
-5.69989e-08
8.56401e-07
-8.15663e-08
8.84592e-07
-1.06109e-07
9.16089e-07
-1.30597e-07
9.50898e-07
-1.55009e-07
9.89011e-07
-1.79318e-07
1.03041e-06
-2.03493e-07
1.07506e-06
-2.275e-07
1.12294e-06
-2.51297e-07
1.17398e-06
-2.74836e-07
1.22817e-06
-2.98016e-07
1.28547e-06
-3.20764e-07
1.34584e-06
-3.43063e-07
1.40919e-06
-3.64887e-07
1.47546e-06
-3.86209e-07
1.54455e-06
-4.06998e-07
1.61637e-06
-4.27218e-07
1.69083e-06
-4.46827e-07
1.76783e-06
-4.65786e-07
1.84726e-06
-4.84053e-07
1.92902e-06
-5.01588e-07
2.01299e-06
-5.18351e-07
2.09906e-06
-5.34308e-07
2.18709e-06
-5.4942e-07
2.27697e-06
-5.63657e-07
2.36854e-06
-5.76985e-07
2.46169e-06
-5.89375e-07
2.55626e-06
-6.00797e-07
2.65211e-06
-6.11225e-07
2.74908e-06
-6.20631e-07
2.84701e-06
-6.28989e-07