/*--------------------------------*- C++ -*----------------------------------*\
  =========                 |
  \\      /  F ield         | OpenFOAM: The Open Source CFD Toolbox
   \\    /   O peration     | Website:  https://openfoam.org
    \\  /    A nd           | Version:  7
     \\/     M anipulation  |
\*---------------------------------------------------------------------------*/
FoamFile
{
    version     2.0;
    format      ascii;
    class       volVectorField;
    location    "500";
    object      U;
}
// * * * * * * * * * * * * * * * * * * * * * * * * * * * * * * * * * * * * * //

dimensions      [0 1 -1 0 0 0 0];

internalField   nonuniform List<vector> 
16900
(
(0.00284171 -0.00387718 0)
(-0.0160156 0.0252953 0)
(-0.0611818 0.0396318 0)
(-0.117508 0.0448005 0)
(-0.177992 0.0469212 0)
(-0.240745 0.0488158 0)
(-0.305613 0.0521954 0)
(-0.37273 0.058477 0)
(-0.441554 0.0668557 0)
(-0.512653 0.0702888 0)
(-0.58375 0.0821912 0)
(-0.660066 0.0686539 0)
(-0.735547 0.0411739 0)
(-0.799073 0.041368 0)
(-0.862854 0.0412062 0)
(-0.926644 0.0404186 0)
(-0.989334 0.0394801 0)
(-1.05089 0.038539 0)
(-1.11134 0.0376507 0)
(-1.17077 0.0368348 0)
(-1.22926 0.0360919 0)
(-1.28691 0.0354147 0)
(-1.3438 0.0347956 0)
(-1.39997 0.0342228 0)
(-1.4555 0.0336893 0)
(-1.51041 0.0331831 0)
(-1.56473 0.0326985 0)
(-1.61849 0.0322269 0)
(-1.67168 0.031763 0)
(-1.72432 0.0313012 0)
(-1.77638 0.030837 0)
(-1.82785 0.0303663 0)
(-1.8787 0.0298857 0)
(-1.92892 0.0293923 0)
(-1.97847 0.0288836 0)
(-2.02731 0.0283573 0)
(-2.0754 0.0278114 0)
(-2.1227 0.0272439 0)
(-2.16916 0.0266531 0)
(-2.21473 0.0260368 0)
(-2.25936 0.0253931 0)
(-2.30299 0.0247199 0)
(-2.34556 0.0240148 0)
(-2.38699 0.0232751 0)
(-2.42722 0.0224985 0)
(-2.46617 0.0216816 0)
(-2.50376 0.0208216 0)
(-2.5399 0.019915 0)
(-2.57448 0.0189586 0)
(-2.60742 0.0179487 0)
(-2.6386 0.016882 0)
(-2.66791 0.0157546 0)
(-2.69522 0.0145632 0)
(-2.7204 0.0133038 0)
(-2.74333 0.011973 0)
(-2.76386 0.0105665 0)
(-2.78184 0.00908075 0)
(-2.79712 0.00751136 0)
(-2.80954 0.0058526 0)
(-2.81893 0.00409274 0)
(-2.82513 0.00221955 0)
(-2.82792 0.000239415 0)
(-2.82706 -0.00181299 0)
(-2.82248 -0.0039302 0)
(-2.81404 -0.00613541 0)
(-2.80157 -0.00843905 0)
(-2.78489 -0.0108446 0)
(-2.76384 -0.0133533 0)
(-2.73825 -0.0159652 0)
(-2.70796 -0.0186783 0)
(-2.67281 -0.0214897 0)
(-2.63266 -0.0243945 0)
(-2.5874 -0.0273864 0)
(-2.53693 -0.0304569 0)
(-2.48116 -0.033597 0)
(-2.42005 -0.0367947 0)
(-2.35358 -0.040037 0)
(-2.28177 -0.043308 0)
(-2.20468 -0.0465911 0)
(-2.1224 -0.0498671 0)
(-2.03507 -0.053116 0)
(-1.94289 -0.0563151 0)
(-1.8461 -0.0594426 0)
(-1.74498 -0.0624743 0)
(-1.63988 -0.0653873 0)
(-1.53117 -0.068159 0)
(-1.41928 -0.0707672 0)
(-1.30468 -0.0731925 0)
(-1.18787 -0.0754166 0)
(-1.06938 -0.0774259 0)
(-0.949746 -0.0792079 0)
(-0.829528 -0.0807589 0)
(-0.70927 -0.0820761 0)
(-0.589501 -0.0831941 0)
(-0.470722 -0.0841863 0)
(-0.353376 -0.0851586 0)
(-0.237711 -0.0862445 0)
(-0.125625 -0.0871548 0)
(-0.0144072 -0.0856969 0)
(0.093687 -0.0808609 0)
(0.194636 -0.0752774 0)
(0.290965 -0.0698924 0)
(0.382122 -0.0647771 0)
(0.467968 -0.0599067 0)
(0.548412 -0.0552503 0)
(0.623376 -0.0507808 0)
(0.692792 -0.0464788 0)
(0.756611 -0.0423282 0)
(0.814799 -0.0383181 0)
(0.867339 -0.0344378 0)
(0.914227 -0.0306797 0)
(0.955473 -0.0270353 0)
(0.991103 -0.0234987 0)
(1.02115 -0.0200621 0)
(1.04566 -0.0167182 0)
(1.06468 -0.0134618 0)
(1.0783 -0.0102972 0)
(1.0866 -0.007236 0)
(1.08969 -0.00424226 0)
(1.0877 -0.00129267 0)
(1.08068 0.00158467 0)
(1.06877 0.00438613 0)
(1.0521 0.00711155 0)
(1.03084 0.00975891 0)
(1.00518 0.0123249 0)
(0.975329 0.0148029 0)
(0.941526 0.0171854 0)
(0.904029 0.0194609 0)
(0.863128 0.0216177 0)
(0.81914 0.0236396 0)
(0.772412 0.0255113 0)
(0.723317 0.0272138 0)
(0.672256 0.0287292 0)
(0.61965 0.0300351 0)
(0.565945 0.0311121 0)
(0.511598 0.0319412 0)
(0.457065 0.0325148 0)
(0.402784 0.0328311 0)
(0.349158 0.0328992 0)
(0.296566 0.0327265 0)
(0.245414 0.0323192 0)
(0.196176 0.0316699 0)
(0.149377 0.0307448 0)
(0.105462 0.0294555 0)
(0.0645578 0.0276946 0)
(0.0262368 0.0254249 0)
(-0.00863308 0.0228548 0)
(-0.0392758 0.0202149 0)
(-0.0658635 0.0175674 0)
(-0.0882811 0.0149135 0)
(-0.106452 0.0122227 0)
(-0.120299 0.00945641 0)
(-0.129695 0.00664682 0)
(-0.134487 0.0038566 0)
(-0.134526 0.0011556 0)
(-0.130251 -0.00145854 0)
(-0.121736 -0.00404129 0)
(-0.109013 -0.00662749 0)
(-0.0921122 -0.00923094 0)
(-0.0710431 -0.0118735 0)
(-0.045822 -0.0145786 0)
(-0.0166902 -0.0173367 0)
(0.0174449 -0.0196954 0)
(0.0546563 -0.021506 0)
(0.0959744 -0.0232602 0)
(0.140957 -0.0249451 0)
(0.189582 -0.0265456 0)
(0.241813 -0.0280527 0)
(0.297581 -0.0294611 0)
(0.356803 -0.0307709 0)
(0.419379 -0.031982 0)
(0.485206 -0.0330968 0)
(0.554167 -0.0341169 0)
(0.626142 -0.0350451 0)
(0.701 -0.0358836 0)
(0.778609 -0.036635 0)
(0.858827 -0.0373016 0)
(0.941511 -0.0378859 0)
(1.02651 -0.0383901 0)
(1.11367 -0.0388162 0)
(1.20284 -0.0391666 0)
(1.29385 -0.0394429 0)
(1.38653 -0.0396471 0)
(1.48073 -0.0397806 0)
(1.57627 -0.0398453 0)
(1.67297 -0.0398425 0)
(1.77066 -0.039774 0)
(1.86916 -0.0396421 0)
(1.9683 -0.0394497 0)
(2.06789 -0.039201 0)
(2.16778 -0.0389028 0)
(2.26782 -0.0385649 0)
(2.3679 -0.0382047 0)
(2.46795 -0.0378489 0)
(2.56801 -0.0375505 0)
(2.66834 -0.0374051 0)
(2.7695 -0.0376214 0)
(2.87322 -0.0386947 0)
(2.97936 -0.0422522 0)
(3.14591 -0.053347 0)
(-0.0237382 0.0176796 0)
(-0.0517675 0.0590362 0)
(-0.0974887 0.0823649 0)
(-0.151582 0.0934679 0)
(-0.210702 0.0987247 0)
(-0.273611 0.101483 0)
(-0.339282 0.103307 0)
(-0.406271 0.105084 0)
(-0.473596 0.107038 0)
(-0.542708 0.107889 0)
(-0.61075 0.107686 0)
(-0.676839 0.107407 0)
(-0.742277 0.104921 0)
(-0.807013 0.103474 0)
(-0.8702 0.10143 0)
(-0.93126 0.0992329 0)
(-0.990644 0.0970156 0)
(-1.04871 0.094895 0)
(-1.10563 0.0929172 0)
(-1.16152 0.091095 0)
(-1.21648 0.0894227 0)
(-1.2706 0.0878846 0)
(-1.32394 0.0864634 0)
(-1.37657 0.0851372 0)
(-1.42853 0.0838879 0)
(-1.47985 0.0826947 0)
(-1.53057 0.0815399 0)
(-1.58068 0.0804079 0)
(-1.6302 0.0792847 0)
(-1.67913 0.0781583 0)
(-1.72745 0.0770178 0)
(-1.77514 0.0758541 0)
(-1.82219 0.0746594 0)
(-1.86856 0.0734268 0)
(-1.91422 0.0721503 0)
(-1.95915 0.070825 0)
(-2.00329 0.0694457 0)
(-2.0466 0.0680081 0)
(-2.08905 0.0665075 0)
(-2.13057 0.0649395 0)
(-2.17112 0.0632992 0)
(-2.21064 0.0615815 0)
(-2.24905 0.0597808 0)
(-2.28631 0.0578911 0)
(-2.32232 0.0559059 0)
(-2.35702 0.0538184 0)
(-2.39031 0.0516211 0)
(-2.42211 0.0493066 0)
(-2.45232 0.0468669 0)
(-2.48083 0.0442944 0)
(-2.50754 0.0415812 0)
(-2.53232 0.0387198 0)
(-2.55506 0.0357028 0)
(-2.57561 0.0325233 0)
(-2.59385 0.0291743 0)
(-2.60963 0.0256493 0)
(-2.62281 0.021942 0)
(-2.63322 0.0180469 0)
(-2.64072 0.0139552 0)
(-2.64515 0.00964771 0)
(-2.64634 0.00510272 0)
(-2.64404 0.000335538 0)
(-2.63821 -0.00459443 0)
(-2.6287 -0.00967102 0)
(-2.61533 -0.0149231 0)
(-2.59795 -0.020362 0)
(-2.5764 -0.0259894 0)
(-2.55052 -0.0318014 0)
(-2.52017 -0.0377898 0)
(-2.48519 -0.0439428 0)
(-2.44548 -0.0502441 0)
(-2.4009 -0.0566734 0)
(-2.35136 -0.0632058 0)
(-2.2968 -0.0698126 0)
(-2.23716 -0.076461 0)
(-2.17242 -0.0831148 0)
(-2.10261 -0.0897331 0)
(-2.02777 -0.0962706 0)
(-1.94799 -0.102679 0)
(-1.8634 -0.108907 0)
(-1.77418 -0.114901 0)
(-1.68055 -0.120606 0)
(-1.58277 -0.125966 0)
(-1.48116 -0.130925 0)
(-1.37607 -0.135429 0)
(-1.2679 -0.139432 0)
(-1.15709 -0.142886 0)
(-1.04411 -0.145753 0)
(-0.929459 -0.148001 0)
(-0.813656 -0.149609 0)
(-0.697237 -0.15056 0)
(-0.580729 -0.150863 0)
(-0.46467 -0.15053 0)
(-0.349554 -0.149635 0)
(-0.235909 -0.14828 0)
(-0.12414 -0.14651 0)
(-0.0142271 -0.144185 0)
(0.0921437 -0.141274 0)
(0.194054 -0.136829 0)
(0.291589 -0.130402 0)
(0.384232 -0.123265 0)
(0.47201 -0.116005 0)
(0.554719 -0.108705 0)
(0.632199 -0.101403 0)
(0.704324 -0.0941111 0)
(0.770998 -0.0868394 0)
(0.832148 -0.0796003 0)
(0.887729 -0.072408 0)
(0.937715 -0.0652763 0)
(0.982102 -0.0582189 0)
(1.02091 -0.0512481 0)
(1.05415 -0.0443757 0)
(1.0819 -0.0376121 0)
(1.10421 -0.0309659 0)
(1.12115 -0.0244454 0)
(1.13283 -0.0180651 0)
(1.13935 -0.0118474 0)
(1.14086 -0.00580926 0)
(1.13751 5.70264e-05 0)
(1.12941 0.00575507 0)
(1.11677 0.0112726 0)
(1.09977 0.0165857 0)
(1.07863 0.0216717 0)
(1.05358 0.02651 0)
(1.02486 0.0310798 0)
(0.992762 0.0353603 0)
(0.957558 0.0393285 0)
(0.919562 0.0429613 0)
(0.879102 0.0462339 0)
(0.836522 0.0491226 0)
(0.792182 0.051604 0)
(0.746453 0.0536578 0)
(0.699715 0.0552653 0)
(0.652355 0.0564118 0)
(0.604764 0.057087 0)
(0.557329 0.05729 0)
(0.510428 0.05703 0)
(0.464422 0.0563283 0)
(0.419647 0.0552115 0)
(0.37643 0.0537079 0)
(0.335115 0.051842 0)
(0.296069 0.0496363 0)
(0.259664 0.0470994 0)
(0.226206 0.0442093 0)
(0.195875 0.0408922 0)
(0.168757 0.0371321 0)
(0.145095 0.0330727 0)
(0.125114 0.0288558 0)
(0.108907 0.0245338 0)
(0.0965727 0.0201237 0)
(0.0882027 0.0156152 0)
(0.0838991 0.0110066 0)
(0.0837976 0.00634597 0)
(0.0880266 0.00168915 0)
(0.0962076 -0.00284717 0)
(0.108395 -0.00722553 0)
(0.124618 -0.0115171 0)
(0.144872 -0.0157542 0)
(0.169143 -0.0199468 0)
(0.197419 -0.0241044 0)
(0.229688 -0.0282358 0)
(0.265851 -0.0323842 0)
(0.306065 -0.0362753 0)
(0.35003 -0.039851 0)
(0.397803 -0.0433594 0)
(0.449185 -0.046782 0)
(0.504092 -0.0501159 0)
(0.562453 -0.0533479 0)
(0.624185 -0.0564654 0)
(0.689199 -0.0594597 0)
(0.757397 -0.0623235 0)
(0.828676 -0.0650518 0)
(0.902924 -0.0676397 0)
(0.980024 -0.0700837 0)
(1.05985 -0.0723808 0)
(1.14228 -0.0745282 0)
(1.22717 -0.0765239 0)
(1.31438 -0.078366 0)
(1.40377 -0.0800532 0)
(1.49519 -0.0815841 0)
(1.58848 -0.0829579 0)
(1.68349 -0.0841734 0)
(1.78006 -0.0852303 0)
(1.87802 -0.0861275 0)
(1.9772 -0.0868651 0)
(2.07743 -0.0874425 0)
(2.17854 -0.087861 0)
(2.28034 -0.0881222 0)
(2.38267 -0.0882306 0)
(2.48534 -0.0881936 0)
(2.5882 -0.0880249 0)
(2.69109 -0.0877464 0)
(2.7939 -0.0873955 0)
(2.89654 -0.0870354 0)
(2.99903 -0.0867803 0)
(3.10151 -0.086845 0)
(3.2043 -0.0876617 0)
(3.3085 -0.0902206 0)
(3.41208 -0.0974539 0)
(3.55355 -0.113495 0)
(-0.0355636 0.0623617 0)
(-0.0711521 0.107581 0)
(-0.119628 0.136656 0)
(-0.173373 0.153734 0)
(-0.230787 0.163935 0)
(-0.291447 0.170638 0)
(-0.354333 0.175692 0)
(-0.417913 0.179869 0)
(-0.481115 0.182792 0)
(-0.544046 0.183266 0)
(-0.605657 0.181435 0)
(-0.665214 0.177802 0)
(-0.723811 0.171846 0)
(-0.782103 0.166175 0)
(-0.839427 0.161405 0)
(-0.895271 0.157186 0)
(-0.949798 0.153333 0)
(-1.00319 0.149799 0)
(-1.05556 0.14656 0)
(-1.10701 0.143593 0)
(-1.15763 0.14087 0)
(-1.20748 0.138361 0)
(-1.25663 0.136034 0)
(-1.30512 0.133855 0)
(-1.35298 0.131794 0)
(-1.40025 0.12982 0)
(-1.44694 0.127906 0)
(-1.49305 0.126026 0)
(-1.53859 0.12416 0)
(-1.58356 0.122287 0)
(-1.62793 0.120392 0)
(-1.6717 0.118459 0)
(-1.71483 0.116477 0)
(-1.7573 0.114435 0)
(-1.79908 0.112323 0)
(-1.84014 0.110134 0)
(-1.88043 0.107858 0)
(-1.91992 0.105489 0)
(-1.95856 0.10302 0)
(-1.9963 0.100442 0)
(-2.03309 0.0977467 0)
(-2.06888 0.0949266 0)
(-2.1036 0.0919718 0)
(-2.13718 0.0888722 0)
(-2.16957 0.0856169 0)
(-2.20068 0.0821943 0)
(-2.23042 0.0785921 0)
(-2.25872 0.0747977 0)
(-2.28547 0.0707982 0)
(-2.31057 0.0665809 0)
(-2.3339 0.0621328 0)
(-2.35537 0.057442 0)
(-2.37483 0.0524966 0)
(-2.39217 0.0472857 0)
(-2.40724 0.0417985 0)
(-2.4199 0.0360252 0)
(-2.43002 0.0299565 0)
(-2.43742 0.0235839 0)
(-2.44197 0.0168942 0)
(-2.44353 0.00986543 0)
(-2.44189 0.00248682 0)
(-2.43688 -0.00519109 0)
(-2.42846 -0.013116 0)
(-2.41644 -0.021301 0)
(-2.40067 -0.0297662 0)
(-2.381 -0.038519 0)
(-2.35727 -0.0475565 0)
(-2.32933 -0.0568683 0)
(-2.29705 -0.0664375 0)
(-2.2603 -0.0762406 0)
(-2.21895 -0.0862473 0)
(-2.1729 -0.0964206 0)
(-2.12208 -0.106716 0)
(-2.06642 -0.117081 0)
(-2.00589 -0.127461 0)
(-1.9405 -0.137792 0)
(-1.87027 -0.148004 0)
(-1.79527 -0.158021 0)
(-1.71562 -0.167761 0)
(-1.63146 -0.177142 0)
(-1.54298 -0.186075 0)
(-1.45043 -0.19447 0)
(-1.35407 -0.202239 0)
(-1.25425 -0.209295 0)
(-1.15133 -0.215552 0)
(-1.04571 -0.220942 0)
(-0.937839 -0.225392 0)
(-0.82819 -0.228849 0)
(-0.717261 -0.231265 0)
(-0.605561 -0.232618 0)
(-0.493623 -0.232892 0)
(-0.381954 -0.232119 0)
(-0.271111 -0.230333 0)
(-0.16151 -0.227621 0)
(-0.0538032 -0.224024 0)
(0.0519573 -0.219452 0)
(0.153892 -0.213789 0)
(0.251931 -0.207006 0)
(0.345729 -0.198987 0)
(0.435271 -0.189755 0)
(0.520381 -0.179847 0)
(0.600775 -0.169569 0)
(0.676202 -0.159044 0)
(0.746478 -0.148347 0)
(0.811469 -0.137529 0)
(0.871079 -0.126636 0)
(0.92525 -0.11571 0)
(0.973949 -0.104791 0)
(1.01717 -0.0939145 0)
(1.05494 -0.0831152 0)
(1.08729 -0.0724232 0)
(1.11427 -0.0618669 0)
(1.13598 -0.051472 0)
(1.1525 -0.0412611 0)
(1.16395 -0.0312584 0)
(1.17045 -0.0214964 0)
(1.17216 -0.0120111 0)
(1.16926 -0.00281966 0)
(1.16191 0.00607312 0)
(1.15029 0.0146496 0)
(1.13463 0.0228815 0)
(1.11516 0.0307362 0)
(1.09213 0.0381804 0)
(1.06579 0.0451817 0)
(1.03644 0.0517075 0)
(1.00436 0.0577257 0)
(0.969856 0.0632033 0)
(0.933261 0.068108 0)
(0.894901 0.0724078 0)
(0.855116 0.0760738 0)
(0.814251 0.0790795 0)
(0.772654 0.0814043 0)
(0.730671 0.0830324 0)
(0.688647 0.0839554 0)
(0.64692 0.0841725 0)
(0.605823 0.0836934 0)
(0.565675 0.0825379 0)
(0.526782 0.0807364 0)
(0.489431 0.078326 0)
(0.453901 0.0753497 0)
(0.420474 0.071852 0)
(0.389435 0.0678769 0)
(0.361053 0.0634548 0)
(0.335551 0.0585967 0)
(0.313095 0.0533028 0)
(0.293807 0.0476093 0)
(0.277826 0.0416052 0)
(0.265295 0.0353742 0)
(0.256322 0.0289631 0)
(0.251006 0.0223905 0)
(0.249441 0.0156667 0)
(0.251738 0.00883399 0)
(0.258021 0.00198655 0)
(0.268048 -0.00476683 0)
(0.281846 -0.0113762 0)
(0.299461 -0.0178543 0)
(0.320904 -0.0242324 0)
(0.346172 -0.0305257 0)
(0.375252 -0.036736 0)
(0.408124 -0.0428642 0)
(0.444767 -0.0489115 0)
(0.485097 -0.0548867 0)
(0.529116 -0.0606613 0)
(0.576796 -0.0661997 0)
(0.628104 -0.0716129 0)
(0.682892 -0.0769018 0)
(0.741064 -0.0820597 0)
(0.802532 -0.0870739 0)
(0.867205 -0.0919296 0)
(0.934991 -0.0966141 0)
(1.00579 -0.101116 0)
(1.0795 -0.105424 0)
(1.15601 -0.10953 0)
(1.23521 -0.113425 0)
(1.31697 -0.117103 0)
(1.40117 -0.120557 0)
(1.48767 -0.123781 0)
(1.57633 -0.12677 0)
(1.66702 -0.12952 0)
(1.75958 -0.132027 0)
(1.85387 -0.134288 0)
(1.94972 -0.136298 0)
(2.04698 -0.138056 0)
(2.14549 -0.139559 0)
(2.24508 -0.140805 0)
(2.34557 -0.141792 0)
(2.4468 -0.142521 0)
(2.54858 -0.142993 0)
(2.65074 -0.143214 0)
(2.75311 -0.143196 0)
(2.85552 -0.142958 0)
(2.95781 -0.142533 0)
(3.05985 -0.141977 0)
(3.16155 -0.141382 0)
(3.26286 -0.140907 0)
(3.36384 -0.140837 0)
(3.46456 -0.1417 0)
(3.56562 -0.144607 0)
(3.6634 -0.1519 0)
(3.78934 -0.166805 0)
(-0.040003 0.116118 0)
(-0.0804769 0.160494 0)
(-0.131526 0.190971 0)
(-0.185401 0.210941 0)
(-0.241088 0.223929 0)
(-0.298649 0.232566 0)
(-0.357318 0.238422 0)
(-0.415924 0.242151 0)
(-0.473608 0.24361 0)
(-0.530237 0.242487 0)
(-0.585648 0.239163 0)
(-0.639682 0.23422 0)
(-0.692797 0.227809 0)
(-0.745361 0.221187 0)
(-0.79714 0.215083 0)
(-0.847887 0.209497 0)
(-0.897623 0.204372 0)
(-0.946422 0.199675 0)
(-0.994354 0.19537 0)
(-1.04149 0.191423 0)
(-1.08789 0.187795 0)
(-1.13361 0.184442 0)
(-1.1787 0.181321 0)
(-1.22319 0.17839 0)
(-1.2671 0.175607 0)
(-1.31046 0.172933 0)
(-1.35327 0.170333 0)
(-1.39555 0.167774 0)
(-1.43727 0.165228 0)
(-1.47844 0.16267 0)
(-1.51904 0.160078 0)
(-1.55905 0.157434 0)
(-1.59845 0.154721 0)
(-1.6372 0.151926 0)
(-1.67528 0.149036 0)
(-1.71265 0.146041 0)
(-1.74929 0.142929 0)
(-1.78514 0.139691 0)
(-1.82017 0.136317 0)
(-1.85433 0.132796 0)
(-1.88758 0.129117 0)
(-1.91986 0.125268 0)
(-1.95111 0.121236 0)
(-1.98128 0.117006 0)
(-2.01029 0.112564 0)
(-2.03807 0.107893 0)
(-2.06455 0.102976 0)
(-2.08964 0.0977941 0)
(-2.11325 0.0923304 0)
(-2.13527 0.0865661 0)
(-2.1556 0.0804836 0)
(-2.17413 0.0740654 0)
(-2.19073 0.0672954 0)
(-2.20528 0.0601581 0)
(-2.21765 0.0526391 0)
(-2.22769 0.0447249 0)
(-2.23527 0.0364034 0)
(-2.24022 0.0276632 0)
(-2.24242 0.0184859 0)
(-2.2417 0.00884742 0)
(-2.23786 -0.00123781 0)
(-2.23087 -0.0117032 0)
(-2.22054 -0.0225195 0)
(-2.20675 -0.0337065 0)
(-2.18932 -0.0452798 0)
(-2.16812 -0.0572439 0)
(-2.14299 -0.0695919 0)
(-2.11379 -0.0823079 0)
(-2.08039 -0.0953666 0)
(-2.04266 -0.108734 0)
(-2.00049 -0.122367 0)
(-1.95378 -0.136211 0)
(-1.90246 -0.150204 0)
(-1.84648 -0.164272 0)
(-1.78582 -0.178336 0)
(-1.72048 -0.192306 0)
(-1.65051 -0.206086 0)
(-1.57599 -0.219568 0)
(-1.49704 -0.232639 0)
(-1.41382 -0.245184 0)
(-1.32653 -0.257083 0)
(-1.23544 -0.268209 0)
(-1.14082 -0.278444 0)
(-1.04302 -0.287672 0)
(-0.942415 -0.295775 0)
(-0.839424 -0.302663 0)
(-0.734496 -0.30824 0)
(-0.628104 -0.312438 0)
(-0.520754 -0.315199 0)
(-0.412949 -0.316501 0)
(-0.305236 -0.316339 0)
(-0.198093 -0.314753 0)
(-0.0921598 -0.311784 0)
(0.0124495 -0.307383 0)
(0.114308 -0.301569 0)
(0.213138 -0.294305 0)
(0.308346 -0.285582 0)
(0.399619 -0.275517 0)
(0.486706 -0.264099 0)
(0.56955 -0.251452 0)
(0.648004 -0.237985 0)
(0.721794 -0.223977 0)
(0.790681 -0.209592 0)
(0.854491 -0.194945 0)
(0.913098 -0.180125 0)
(0.966422 -0.165207 0)
(1.01442 -0.150257 0)
(1.05708 -0.135336 0)
(1.09442 -0.120499 0)
(1.12649 -0.105796 0)
(1.15334 -0.091272 0)
(1.17507 -0.0769685 0)
(1.19178 -0.0629231 0)
(1.2036 -0.0491705 0)
(1.21066 -0.0357487 0)
(1.21313 -0.0227051 0)
(1.21119 -0.0100836 0)
(1.20506 0.0021015 0)
(1.19489 0.0138297 0)
(1.18092 0.0250696 0)
(1.16341 0.0357828 0)
(1.14259 0.0459283 0)
(1.11875 0.0554649 0)
(1.09216 0.0643523 0)
(1.06312 0.0725512 0)
(1.03194 0.0800234 0)
(0.998912 0.0867316 0)
(0.964371 0.0926401 0)
(0.928635 0.0977157 0)
(0.892027 0.101929 0)
(0.85487 0.105256 0)
(0.817482 0.107679 0)
(0.780175 0.109189 0)
(0.743251 0.109783 0)
(0.707006 0.109471 0)
(0.671723 0.10827 0)
(0.637676 0.10621 0)
(0.605123 0.103325 0)
(0.574309 0.0996594 0)
(0.545467 0.0952628 0)
(0.518827 0.0901898 0)
(0.494613 0.0844953 0)
(0.473029 0.0782256 0)
(0.454246 0.0714179 0)
(0.4384 0.064112 0)
(0.425605 0.0563687 0)
(0.415978 0.0482689 0)
(0.409634 0.0398826 0)
(0.406674 0.0312513 0)
(0.407192 0.0223969 0)
(0.411289 0.0133587 0)
(0.419101 0.00422992 0)
(0.430474 -0.00485525 0)
(0.445337 -0.0138164 0)
(0.463782 -0.0226419 0)
(0.485845 -0.0313416 0)
(0.511536 -0.0399308 0)
(0.540853 -0.0484155 0)
(0.573781 -0.056793 0)
(0.610298 -0.065059 0)
(0.650375 -0.073207 0)
(0.693943 -0.0812313 0)
(0.740969 -0.0890345 0)
(0.791461 -0.0965753 0)
(0.845381 -0.103915 0)
(0.902617 -0.111059 0)
(0.963078 -0.118003 0)
(1.02667 -0.124737 0)
(1.09331 -0.131246 0)
(1.16289 -0.137516 0)
(1.23531 -0.143533 0)
(1.31049 -0.149284 0)
(1.38829 -0.154758 0)
(1.46862 -0.159943 0)
(1.55135 -0.164829 0)
(1.63636 -0.169409 0)
(1.72351 -0.173675 0)
(1.81268 -0.177618 0)
(1.90371 -0.181234 0)
(1.99647 -0.184516 0)
(2.09081 -0.18746 0)
(2.18658 -0.19006 0)
(2.28361 -0.192314 0)
(2.38174 -0.194216 0)
(2.48082 -0.195765 0)
(2.58066 -0.196957 0)
(2.6811 -0.197792 0)
(2.78196 -0.198273 0)
(2.88306 -0.198408 0)
(2.98423 -0.198209 0)
(3.08529 -0.197704 0)
(3.18609 -0.196935 0)
(3.28648 -0.195971 0)
(3.38634 -0.194925 0)
(3.48559 -0.193983 0)
(3.58418 -0.193458 0)
(3.68198 -0.193887 0)
(3.77928 -0.196286 0)
(3.87159 -0.202252 0)
(3.98804 -0.213849 0)
(-0.0412928 0.173228 0)
(-0.0842791 0.215046 0)
(-0.136517 0.244636 0)
(-0.189761 0.265338 0)
(-0.243202 0.279446 0)
(-0.297158 0.288782 0)
(-0.351188 0.294556 0)
(-0.404568 0.297383 0)
(-0.456804 0.297438 0)
(-0.507839 0.294875 0)
(-0.557731 0.290224 0)
(-0.606547 0.284117 0)
(-0.654557 0.277002 0)
(-0.701965 0.269635 0)
(-0.748686 0.262566 0)
(-0.794601 0.255948 0)
(-0.839705 0.249815 0)
(-0.884029 0.244164 0)
(-0.927618 0.238968 0)
(-0.970519 0.234188 0)
(-1.01278 0.229779 0)
(-1.05443 0.22569 0)
(-1.09552 0.221872 0)
(-1.13605 0.218272 0)
(-1.17606 0.214841 0)
(-1.21555 0.211533 0)
(-1.25453 0.208305 0)
(-1.29299 0.20512 0)
(-1.33092 0.201944 0)
(-1.36831 0.198747 0)
(-1.40514 0.195503 0)
(-1.4414 0.192191 0)
(-1.47705 0.188791 0)
(-1.51207 0.185286 0)
(-1.54644 0.181664 0)
(-1.58011 0.177909 0)
(-1.61306 0.174011 0)
(-1.64525 0.169956 0)
(-1.67664 0.165733 0)
(-1.70719 0.161328 0)
(-1.73686 0.156727 0)
(-1.76559 0.151916 0)
(-1.79334 0.146878 0)
(-1.82005 0.141595 0)
(-1.84566 0.136046 0)
(-1.8701 0.130212 0)
(-1.8933 0.124069 0)
(-1.91517 0.117595 0)
(-1.93563 0.110765 0)
(-1.95459 0.103557 0)
(-1.97194 0.0959469 0)
(-1.98757 0.0879125 0)
(-2.00136 0.0794329 0)
(-2.0132 0.0704884 0)
(-2.02295 0.0610606 0)
(-2.03048 0.0511328 0)
(-2.03564 0.040691 0)
(-2.0383 0.0297205 0)
(-2.03833 0.0181986 0)
(-2.03556 0.00610275 0)
(-2.02978 -0.0065193 0)
(-2.02102 -0.0195982 0)
(-2.00907 -0.0331353 0)
(-1.99379 -0.0471489 0)
(-1.97504 -0.0616518 0)
(-1.95265 -0.0766453 0)
(-1.92649 -0.0921187 0)
(-1.89641 -0.10805 0)
(-1.86228 -0.124405 0)
(-1.82398 -0.14114 0)
(-1.78139 -0.158199 0)
(-1.73443 -0.175512 0)
(-1.68301 -0.192995 0)
(-1.6271 -0.210556 0)
(-1.56668 -0.228089 0)
(-1.50176 -0.245482 0)
(-1.43239 -0.26261 0)
(-1.35866 -0.279337 0)
(-1.28068 -0.295513 0)
(-1.19864 -0.310996 0)
(-1.11274 -0.325634 0)
(-1.02324 -0.339266 0)
(-0.930458 -0.351742 0)
(-0.834726 -0.362918 0)
(-0.736443 -0.372645 0)
(-0.636026 -0.380816 0)
(-0.533941 -0.387312 0)
(-0.430659 -0.392054 0)
(-0.326709 -0.394983 0)
(-0.22258 -0.396073 0)
(-0.118858 -0.395328 0)
(-0.0159214 -0.392706 0)
(0.0853911 -0.388214 0)
(0.184375 -0.381827 0)
(0.280526 -0.373579 0)
(0.373459 -0.363579 0)
(0.46275 -0.351884 0)
(0.548085 -0.338628 0)
(0.629235 -0.323898 0)
(0.706087 -0.307873 0)
(0.778496 -0.290896 0)
(0.846237 -0.273237 0)
(0.909113 -0.255093 0)
(0.966976 -0.236615 0)
(1.01972 -0.217927 0)
(1.0673 -0.199132 0)
(1.10968 -0.180324 0)
(1.14688 -0.161584 0)
(1.17894 -0.142986 0)
(1.20593 -0.124595 0)
(1.22794 -0.106472 0)
(1.24509 -0.0886717 0)
(1.2575 -0.0712435 0)
(1.26533 -0.0542339 0)
(1.26875 -0.0376954 0)
(1.26794 -0.0216885 0)
(1.26313 -0.00625688 0)
(1.25451 0.00858277 0)
(1.24229 0.0227941 0)
(1.22674 0.0363332 0)
(1.2081 0.049154 0)
(1.18666 0.0612092 0)
(1.1627 0.0724522 0)
(1.1365 0.0828382 0)
(1.10837 0.0923247 0)
(1.0786 0.100871 0)
(1.04752 0.108439 0)
(1.01541 0.114995 0)
(0.982597 0.120508 0)
(0.949372 0.124951 0)
(0.916032 0.128308 0)
(0.882865 0.130566 0)
(0.850147 0.131724 0)
(0.818144 0.13179 0)
(0.787108 0.130782 0)
(0.757284 0.128728 0)
(0.728901 0.125666 0)
(0.702176 0.121638 0)
(0.677314 0.116697 0)
(0.654508 0.110898 0)
(0.633945 0.104305 0)
(0.615802 0.09698 0)
(0.600239 0.0889808 0)
(0.58739 0.0803626 0)
(0.577371 0.0711867 0)
(0.570288 0.0615269 0)
(0.566243 0.0514614 0)
(0.565336 0.0410515 0)
(0.567654 0.0303348 0)
(0.573293 0.0193488 0)
(0.582373 0.00818047 0)
(0.594898 -0.00302893 0)
(0.610641 -0.0141585 0)
(0.629709 -0.0251746 0)
(0.652164 -0.0360656 0)
(0.678039 -0.046832 0)
(0.707345 -0.0574766 0)
(0.74008 -0.0679969 0)
(0.77623 -0.0783853 0)
(0.815771 -0.088632 0)
(0.858674 -0.0987236 0)
(0.90488 -0.108644 0)
(0.954349 -0.118319 0)
(1.00708 -0.127707 0)
(1.06304 -0.136833 0)
(1.12213 -0.145698 0)
(1.18428 -0.154298 0)
(1.2494 -0.162622 0)
(1.31739 -0.170656 0)
(1.38817 -0.178384 0)
(1.46163 -0.185791 0)
(1.53767 -0.192861 0)
(1.6162 -0.199581 0)
(1.69708 -0.205938 0)
(1.78022 -0.21192 0)
(1.86548 -0.217516 0)
(1.95274 -0.222717 0)
(2.04186 -0.227513 0)
(2.13272 -0.231897 0)
(2.22516 -0.235861 0)
(2.31904 -0.2394 0)
(2.41421 -0.242507 0)
(2.51052 -0.245176 0)
(2.6078 -0.247403 0)
(2.7059 -0.249183 0)
(2.80464 -0.250512 0)
(2.90386 -0.25139 0)
(3.00337 -0.251819 0)
(3.103 -0.251806 0)
(3.20257 -0.25137 0)
(3.3019 -0.25054 0)
(3.40084 -0.249365 0)
(3.49921 -0.247925 0)
(3.59688 -0.246343 0)
(3.69372 -0.244816 0)
(3.78961 -0.243656 0)
(3.88427 -0.243351 0)
(3.97782 -0.244732 0)
(4.06539 -0.248739 0)
(4.17549 -0.256796 0)
(-0.0408723 0.230341 0)
(-0.0845845 0.269134 0)
(-0.136589 0.296714 0)
(-0.188271 0.316705 0)
(-0.238951 0.330605 0)
(-0.289077 0.339612 0)
(-0.338503 0.344639 0)
(-0.38688 0.346292 0)
(-0.434014 0.34497 0)
(-0.479948 0.341103 0)
(-0.524804 0.3353 0)
(-0.568716 0.328182 0)
(-0.611884 0.320281 0)
(-0.654451 0.312176 0)
(-0.696398 0.304298 0)
(-0.737676 0.296843 0)
(-0.778279 0.289886 0)
(-0.818224 0.283442 0)
(-0.857541 0.277493 0)
(-0.896262 0.272001 0)
(-0.934416 0.266917 0)
(-0.972031 0.262186 0)
(-1.00913 0.257749 0)
(-1.04572 0.25355 0)
(-1.08182 0.249532 0)
(-1.11743 0.245644 0)
(-1.15254 0.241837 0)
(-1.18714 0.23807 0)
(-1.22124 0.234303 0)
(-1.2548 0.230504 0)
(-1.2878 0.226644 0)
(-1.32023 0.222699 0)
(-1.35207 0.218647 0)
(-1.38327 0.21447 0)
(-1.41382 0.210152 0)
(-1.44368 0.20568 0)
(-1.47283 0.201038 0)
(-1.50124 0.196215 0)
(-1.52886 0.191194 0)
(-1.55566 0.185962 0)
(-1.5816 0.180502 0)
(-1.60665 0.174797 0)
(-1.63075 0.168825 0)
(-1.65385 0.162567 0)
(-1.67591 0.155997 0)
(-1.69685 0.149091 0)
(-1.71662 0.14182 0)
(-1.73514 0.134157 0)
(-1.75232 0.126072 0)
(-1.76809 0.117536 0)
(-1.78233 0.10852 0)
(-1.79496 0.0989968 0)
(-1.80585 0.0889409 0)
(-1.81489 0.0783282 0)
(-1.82196 0.0671366 0)
(-1.82692 0.0553465 0)
(-1.82965 0.0429412 0)
(-1.83 0.0299025 0)
(-1.82786 0.0162035 0)
(-1.82303 0.00183933 0)
(-1.81543 -0.0131186 0)
(-1.80498 -0.0286165 0)
(-1.79151 -0.0446751 0)
(-1.77489 -0.0613135 0)
(-1.75496 -0.0785423 0)
(-1.73156 -0.0963593 0)
(-1.70456 -0.11475 0)
(-1.67382 -0.133685 0)
(-1.63919 -0.153125 0)
(-1.60056 -0.173013 0)
(-1.55781 -0.193282 0)
(-1.51085 -0.213847 0)
(-1.45961 -0.234605 0)
(-1.40403 -0.25544 0)
(-1.34411 -0.276223 0)
(-1.27986 -0.296818 0)
(-1.21132 -0.317077 0)
(-1.13858 -0.336828 0)
(-1.06177 -0.35589 0)
(-0.981072 -0.37409 0)
(-0.89669 -0.391248 0)
(-0.808897 -0.407163 0)
(-0.718006 -0.421658 0)
(-0.624364 -0.434564 0)
(-0.528385 -0.445695 0)
(-0.430482 -0.454936 0)
(-0.331155 -0.462148 0)
(-0.230856 -0.467237 0)
(-0.130161 -0.470152 0)
(-0.0295184 -0.470803 0)
(0.0704511 -0.469152 0)
(0.168852 -0.465168 0)
(0.265285 -0.458869 0)
(0.359231 -0.450323 0)
(0.450226 -0.439618 0)
(0.537879 -0.42689 0)
(0.621823 -0.412257 0)
(0.701767 -0.395883 0)
(0.777487 -0.377927 0)
(0.848846 -0.358606 0)
(0.915695 -0.338226 0)
(0.97786 -0.317055 0)
(1.03518 -0.295316 0)
(1.08756 -0.27319 0)
(1.1349 -0.250833 0)
(1.17719 -0.228376 0)
(1.21442 -0.205937 0)
(1.24665 -0.183619 0)
(1.27393 -0.161514 0)
(1.29636 -0.139704 0)
(1.31406 -0.118265 0)
(1.32717 -0.0972641 0)
(1.33586 -0.0767618 0)
(1.34028 -0.0568168 0)
(1.34064 -0.0374954 0)
(1.33714 -0.0188677 0)
(1.33005 -0.000969099 0)
(1.31953 0.0161715 0)
(1.30584 0.0325043 0)
(1.28926 0.047976 0)
(1.27005 0.0625347 0)
(1.2485 0.0761294 0)
(1.2249 0.0887109 0)
(1.19954 0.100233 0)
(1.17272 0.110653 0)
(1.14474 0.119931 0)
(1.11588 0.128033 0)
(1.08644 0.134926 0)
(1.0567 0.140586 0)
(1.02694 0.144995 0)
(0.99743 0.14814 0)
(0.968421 0.150021 0)
(0.940158 0.150644 0)
(0.912869 0.150027 0)
(0.886772 0.148198 0)
(0.862072 0.145194 0)
(0.838961 0.141062 0)
(0.817619 0.135855 0)
(0.798215 0.129631 0)
(0.780906 0.122455 0)
(0.765845 0.114398 0)
(0.753173 0.105527 0)
(0.743017 0.09591 0)
(0.735487 0.0856133 0)
(0.730686 0.0747103 0)
(0.72871 0.0632801 0)
(0.729648 0.0513964 0)
(0.733584 0.0391115 0)
(0.740601 0.0264678 0)
(0.750809 0.0135393 0)
(0.764315 0.000468022 0)
(0.780816 -0.0125911 0)
(0.800405 -0.0255761 0)
(0.823142 -0.0384652 0)
(0.849076 -0.0512392 0)
(0.878237 -0.0638887 0)
(0.910635 -0.0764057 0)
(0.94627 -0.0887804 0)
(0.985128 -0.100999 0)
(1.02719 -0.113047 0)
(1.07241 -0.124904 0)
(1.12076 -0.136549 0)
(1.17219 -0.147923 0)
(1.22669 -0.158986 0)
(1.28421 -0.169742 0)
(1.3447 -0.180183 0)
(1.40807 -0.1903 0)
(1.47424 -0.200081 0)
(1.54313 -0.209511 0)
(1.61464 -0.218572 0)
(1.68868 -0.227248 0)
(1.76515 -0.235522 0)
(1.84395 -0.243377 0)
(1.92497 -0.250798 0)
(2.00809 -0.257772 0)
(2.09319 -0.264286 0)
(2.18015 -0.270328 0)
(2.26885 -0.275888 0)
(2.35914 -0.280956 0)
(2.45089 -0.285523 0)
(2.54396 -0.289581 0)
(2.6382 -0.293123 0)
(2.73345 -0.296142 0)
(2.82957 -0.29863 0)
(2.92639 -0.300583 0)
(3.02375 -0.301994 0)
(3.12146 -0.302863 0)
(3.21937 -0.303189 0)
(3.31728 -0.302983 0)
(3.41503 -0.302262 0)
(3.51243 -0.301059 0)
(3.6093 -0.299427 0)
(3.70547 -0.297452 0)
(3.80078 -0.295262 0)
(3.89506 -0.293053 0)
(3.98814 -0.291116 0)
(4.07966 -0.289867 0)
(4.16966 -0.28995 0)
(4.2531 -0.291818 0)
(4.35847 -0.296667 0)
(-0.0394059 0.285452 0)
(-0.0825328 0.321167 0)
(-0.133158 0.346167 0)
(-0.182515 0.364526 0)
(-0.230058 0.377283 0)
(-0.276283 0.385223 0)
(-0.321263 0.389053 0)
(-0.36492 0.389369 0)
(-0.407262 0.386703 0)
(-0.448413 0.381626 0)
(-0.488531 0.374778 0)
(-0.527772 0.366765 0)
(-0.566304 0.358119 0)
(-0.604244 0.349328 0)
(-0.641613 0.340756 0)
(-0.678402 0.332601 0)
(-0.714612 0.324954 0)
(-0.750258 0.317843 0)
(-0.785359 0.311254 0)
(-0.819936 0.305149 0)
(-0.854008 0.299476 0)
(-0.887591 0.294177 0)
(-0.920695 0.289187 0)
(-0.953327 0.284445 0)
(-0.985487 0.279889 0)
(-1.01717 0.275463 0)
(-1.04836 0.271114 0)
(-1.07906 0.266796 0)
(-1.10924 0.262468 0)
(-1.13888 0.258093 0)
(-1.16796 0.253642 0)
(-1.19646 0.249088 0)
(-1.22434 0.244409 0)
(-1.2516 0.239586 0)
(-1.27819 0.234602 0)
(-1.30409 0.229443 0)
(-1.32928 0.224094 0)
(-1.35372 0.21854 0)
(-1.37739 0.212766 0)
(-1.40026 0.206755 0)
(-1.42229 0.200491 0)
(-1.44344 0.193951 0)
(-1.46368 0.187114 0)
(-1.48297 0.179954 0)
(-1.50126 0.172445 0)
(-1.5185 0.164554 0)
(-1.53462 0.156251 0)
(-1.54957 0.147501 0)
(-1.56326 0.13827 0)
(-1.57563 0.128522 0)
(-1.58657 0.118224 0)
(-1.596 0.107342 0)
(-1.60381 0.0958465 0)
(-1.60988 0.0837089 0)
(-1.61411 0.0709035 0)
(-1.61637 0.0574081 0)
(-1.61652 0.0432036 0)
(-1.61446 0.0282656 0)
(-1.61006 0.0125634 0)
(-1.60309 -0.00386947 0)
(-1.59361 -0.0209505 0)
(-1.58146 -0.0386644 0)
(-1.56648 -0.0570379 0)
(-1.54854 -0.0760925 0)
(-1.52748 -0.095837 0)
(-1.50315 -0.116266 0)
(-1.47541 -0.137362 0)
(-1.44411 -0.159089 0)
(-1.40912 -0.1814 0)
(-1.37032 -0.204229 0)
(-1.32758 -0.227498 0)
(-1.28082 -0.251107 0)
(-1.22994 -0.274934 0)
(-1.17491 -0.298838 0)
(-1.11569 -0.32267 0)
(-1.05232 -0.34627 0)
(-0.984816 -0.369466 0)
(-0.913263 -0.392053 0)
(-0.837797 -0.413812 0)
(-0.758597 -0.434543 0)
(-0.675865 -0.454042 0)
(-0.589881 -0.472062 0)
(-0.500962 -0.488395 0)
(-0.40945 -0.50286 0)
(-0.315798 -0.515231 0)