/*--------------------------------*- C++ -*----------------------------------*\
  =========                 |
  \\      /  F ield         | OpenFOAM: The Open Source CFD Toolbox
   \\    /   O peration     | Website:  https://openfoam.org
    \\  /    A nd           | Version:  7
     \\/     M anipulation  |
\*---------------------------------------------------------------------------*/
FoamFile
{
    version     2.0;
    format      ascii;
    class       volScalarField;
    location    "7.5";
    object      p;
}
// * * * * * * * * * * * * * * * * * * * * * * * * * * * * * * * * * * * * * //

dimensions      [0 2 -2 0 0 0 0];

internalField   nonuniform List<scalar> 
900
(
5.98284e-07
-0.000341584
-0.000900033
-0.00149782
-0.00202881
-0.00242973
-0.00266807
-0.00272825
-0.00260116
-0.00227966
-0.00175815
-0.00103486
-0.000115673
0.000981737
0.0022243
0.00356153
0.00492578
0.00623552
0.00740183
0.00833768
0.00896922
0.0092473
0.00915721
0.00872471
0.00801728
0.00713847
0.00621651
0.00540908
0.00487203
0.00473215
0.000341013
-1.41709e-05
-0.000440761
-0.000879411
-0.00126682
-0.00155753
-0.001726
-0.0017574
-0.00164136
-0.00136961
-0.000936003
-0.000338295
0.000419057
0.0013217
0.00234246
0.00343961
0.00455911
0.00563336
0.00658973
0.0073575
0.00787724
0.00811049
0.00804769
0.00771259
0.00716209
0.00648136
0.00577383
0.00514247
0.00471787
0.00458999
0.000921843
0.000398139
-4.3121e-05
-0.000436325
-0.00076802
-0.00101103
-0.00115058
-0.00117763
-0.00108382
-0.000860673
-0.000500459
1.8192e-06
0.00064554
0.00142124
0.00230775
0.00327083
0.00426167
0.00522004
0.00607905
0.00677236
0.0072434
0.00745492
0.00739681
0.00709021
0.00658674
0.00596259
0.00530861
0.00471795
0.00428339
0.00406967
0.00156756
0.000816692
0.000297448
-0.000106954
-0.000429502
-0.000660887
-0.000798683
-0.000841629
-0.000784563
-0.000618843
-0.000334143
7.8917e-05
0.000625386
0.00130223
0.00209484
0.00297456
0.00389721
0.00480507
0.00563138
0.00630756
0.00677303
0.00698555
0.00692995
0.00662296
0.00611246
0.0054708
0.00478474
0.00414386
0.00361965
0.00324909
0.00213847
0.00114334
0.000523407
8.21812e-05
-0.000256918
-0.000500991
-0.000659501
-0.000738764
-0.00073648
-0.00064317
-0.000444871
-0.000126467
0.000324231
0.000911955
0.0016295
0.0024541
0.00334582
0.00424737
0.00508904
0.00579591
0.0062984
0.006544
0.00650777
0.00619879
0.00566025
0.00496272
0.00419412
0.00344796
0.00278627
0.00220515
0.00251596
0.00127918
0.000549935
5.61619e-05
-0.000319209
-0.000598024
-0.000800329
-0.000938875
-0.00101319
-0.00101189
-0.000916192
-0.00070385
-0.000354019
0.000147353
0.000801881
0.00159374
0.00248751
0.0034256
0.0043335
0.00512647
0.00572099
0.00604832
0.00606761
0.0057751
0.00520642
0.00443077
0.0035416
0.00264399
0.00179805
0.000967713
0.00259671
0.00113327
0.000295027
-0.000260407
-0.000687541
-0.00102151
-0.00129146
-0.00151512
-0.00169256
-0.0018093
-0.0018404
-0.00175503
-0.00152195
-0.00111573
-0.000523779
0.000247077
0.00116845
0.00218273
0.00321016
0.0041536
0.00491067
0.00538941
0.00552479
0.00529235
0.00471447
0.00385722
0.00282279
0.00173565
0.000662762
-0.000458947
0.00228951
0.000622104
-0.000319155
-0.000941174
-0.00143302
-0.00184201
-0.00220502
-0.00254339
-0.00285654
-0.00312572
-0.00331864
-0.00339432
-0.00330905
-0.00302344
-0.00251067
-0.001765
-0.000802541
0.00032049
0.00152083
0.00268787
0.00369578
0.00442125
0.00476431
0.00466813
0.00413209
0.00321392
0.00202572
0.000719126
-0.000623252
-0.00208908
0.00151332
-0.000329821
-0.00136496
-0.00205673
-0.00262574
-0.00313059
-0.00361482
-0.00410236
-0.00459108
-0.00505716
-0.00545993
-0.00574676
-0.00585926
-0.00574079
-0.00534512
-0.00464606
-0.00365157
-0.00240094
-0.000978867
0.000491067
0.00185618
0.00295313
0.00363341
0.00379155
0.00338828
0.0024622
0.00113312
-0.000413084
-0.00206915
-0.00394678
0.000198324
-0.00178757
-0.00290561
-0.00367
-0.0043293
-0.0049527
-0.00558969
-0.00626618
-0.00697817
-0.00769646
-0.00837142
-0.0089376
-0.0093196
-0.00943984
-0.00922778
-0.00863137
-0.00763452
-0.00625802
-0.00457854
-0.00272747
-0.000884909
0.000737938
0.00192855
0.00251113
0.00238433
0.0015485
0.000122548
-0.00166827
-0.00368268
-0.00605691
-0.00171118
-0.00380259
-0.00499131
-0.00583132
-0.0065949
-0.00736118
-0.00818528
-0.00909505
-0.0100849
-0.0111207
-0.0121438
-0.0130754
-0.0138212
-0.0142788
-0.0143479
-0.0139429
-0.0130105
-0.0115431
-0.00959676
-0.00730058
-0.00485764
-0.00253124
-0.000613299
0.000623944
0.000984288
0.000398629
-0.00103416
-0.00304956
-0.00546306
-0.00843593
-0.00425311
-0.00640935
-0.00765549
-0.00857385
-0.00945551
-0.0103891
-0.0114354
-0.0126246
-0.0139507
-0.0153756
-0.0168329
-0.0182302
-0.0194533
-0.0203722
-0.020851
-0.0207618
-0.020003
-0.0185243
-0.0163433
-0.0135711
-0.0104216
-0.00720738
-0.00431074
-0.00212793
-0.000991741
-0.00108728
-0.00237144
-0.00455138
-0.00739275
-0.0110817
-0.00744406
-0.00962242
-0.0109115
-0.0119094
-0.0129206
-0.0140428
-0.015343
-0.0168549
-0.0185736
-0.0204592
-0.022439
-0.0244085
-0.0262335
-0.0277545
-0.028796
-0.0291796
-0.0287439
-0.0273856
-0.0250578
-0.0218325
-0.0179139
-0.0136494
-0.00951236
-0.00604575
-0.00376568
-0.00303627
-0.00392895
-0.00615326
-0.00942691
-0.0139605
-0.0112767
-0.0134346
-0.0147508
-0.0158257
-0.0169719
-0.0182961
-0.0198725
-0.0217401
-0.0238974
-0.0263052
-0.0288871
-0.0315288
-0.0340773
-0.0363439
-0.038111
-0.0391469
-0.0392276
-0.0381571
-0.0358292
-0.0322447
-0.0275666
-0.022149
-0.0165398
-0.0114369
-0.00758231
-0.00559456
-0.00574607
-0.00781055
-0.0114793
-0.0169903
-0.0157186
-0.0178168
-0.0191424
-0.0202855
-0.0215613
-0.0230866
-0.0249443
-0.0271815
-0.0298027
-0.0327724
-0.0360137
-0.0394051
-0.0427778
-0.0459153
-0.0485593
-0.0504221
-0.0512075
-0.0506386
-0.0485133
-0.0447397
-0.0394052
-0.0328293
-0.0255971
-0.0185443
-0.0126632
-0.00890227
-0.00784725
-0.00943971
-0.0134029
-0.0200174
-0.0207145
-0.0227211
-0.0240361
-0.0252282
-0.0266117
-0.0283151
-0.0304335
-0.033025
-0.0361038
-0.0396412
-0.0435629
-0.0477434
-0.0520009
-0.0560953
-0.0597305
-0.062566
-0.0642345
-0.0643713
-0.0626789
-0.0589466
-0.0531534
-0.0455353
-0.0366572
-0.0274446
-0.0191286
-0.0130431
-0.010212
-0.0108951
-0.0149637
-0.0227863
-0.02619
-0.028086
-0.0293678
-0.0305749
-0.0320205
-0.0338488
-0.0361724
-0.039065
-0.0425542
-0.0466215
-0.0511975
-0.0561556
-0.0613044
-0.0663835
-0.0710644
-0.0749595
-0.0776377
-0.07865
-0.0776084
-0.0741704
-0.0681828
-0.0597529
-0.0493575
-0.0379331
-0.0268926
-0.0179656
-0.0127238
-0.0119336
-0.0158061
-0.0249007
-0.0320599
-0.0338458
-0.0350681
-0.0362362
-0.0376665
-0.0395276
-0.0419578
-0.0450532
-0.0488594
-0.0533702
-0.0585234
-0.0641924
-0.0701782
-0.0762036
-0.0819128
-0.0868785
-0.0906193
-0.0926282
-0.0923754
-0.0894489
-0.0835422
-0.0745994
-0.0629452
-0.0494328
-0.0355553
-0.0233837
-0.0150974
-0.012164
-0.0154076
-0.0257738
-0.0382399
-0.0399445
-0.0410751
-0.0421217
-0.043418
-0.0451722
-0.0475614
-0.0507134
-0.0546963
-0.0595186
-0.0651248
-0.0713882
-0.0781018
-0.0849734
-0.0916235
-0.097592
-0.102353
-0.105339
-0.105961
-0.103687
-0.0980784
-0.0889104
-0.0763138
-0.0609711
-0.0443283
-0.0286789
-0.0167876
-0.0109789
-0.0130216
-0.0245664
-0.0446631
-0.0463539
-0.0473493
-0.0481509
-0.0491412
-0.0505926
-0.0527411
-0.0557574
-0.0597373
-0.0647036
-0.0706055
-0.0773123
-0.084607
-0.0921804
-0.0996308
-0.10647
-0.112134
-0.116009
-0.117453
-0.115841
-0.110624
-0.101415
-0.0881397
-0.0712536
-0.0520352
-0.0328385
-0.0169004
-0.0074717
-0.00760542
-0.020103
-0.0513057
-0.0530998
-0.0538913
-0.0542628
-0.0547051
-0.0555945
-0.0572514
-0.0599026
-0.0636739
-0.0685996
-0.0746275
-0.081616
-0.0893316
-0.0974442
-0.105527
-0.113065
-0.11946
-0.124056
-0.126165
-0.125091
-0.120191
-0.110945
-0.0970872
-0.0788311
-0.0572068
-0.0344651
-0.0141314
-0.000345601
0.002269
-0.0107531
-0.0582311
-0.0603008
-0.060764
-0.0604231
-0.0599835
-0.059982
-0.0608527
-0.0628879
-0.0662406
-0.0709471
-0.0769451
-0.0840677
-0.0920573
-0.100554
-0.109103
-0.11716
-0.124089
-0.129186
-0.13172
-0.130939
-0.126116
-0.116617
-0.10202
-0.0823151
-0.0582583
-0.031872
-0.00676358
0.0121648
0.0185262
0.00575311
-0.0656767
-0.0682307
-0.0681187
-0.0666265
-0.0648514
-0.0635592
-0.0633202
-0.0644907
-0.0672366
-0.0715768
-0.0774313
-0.084577
-0.0927305
-0.101493
-0.110367
-0.118766
-0.126016
-0.131376
-0.134054
-0.133233
-0.128102
-0.117932
-0.102157
-0.0805891
-0.053709
-0.0232638
0.00724914
0.0323317
0.0437344
0.0326272
-0.0742401
-0.0774261
-0.0762295
-0.072897
-0.0691803
-0.0661333
-0.064458
-0.0645482
-0.0665514
-0.0704434
-0.0760761
-0.0831924
-0.0914441
-0.100384
-0.109471
-0.118069
-0.125457
-0.130838
-0.133354
-0.132109
-0.126198
-0.114778
-0.0971571
-0.0729805
-0.0424316
-0.0070294
0.030054
0.0628924
0.0813215
0.0745117
-0.0853038
-0.088872
-0.0855266
-0.0792785
-0.0728335
-0.0675238
-0.0641172
-0.0629772
-0.0641759
-0.0676006
-0.0730173
-0.0800967
-0.0884222
-0.097489
-0.106702
-0.115373
-0.122725
-0.127897
-0.129952
-0.127902
-0.120714
-0.107415
-0.0871446
-0.0593401
-0.0240045
0.0178058
0.0634033
0.106809
0.135751
0.137986
-0.102025
-0.104337
-0.0966024
-0.0857951
-0.0756425
-0.0675519
-0.0621886
-0.0597638
-0.0601879
-0.0632064
-0.0684677
-0.0755477
-0.0839531
-0.0931157
-0.102384
-0.111015
-0.118175
-0.122934
-0.124272
-0.121096
-0.112208
-0.0964823
-0.0728297
-0.0404035
0.00114266
0.0512462
0.107903
0.166478
0.212064
0.231501
-0.131549
-0.126898
-0.11025
-0.0924443
-0.0773845
-0.0660076
-0.0585655
-0.0549224
-0.054711
-0.0574676
-0.0626895
-0.0698439
-0.078357
-0.0875979
-0.0968627
-0.105361
-0.112205
-0.116403
-0.116858
-0.112371
-0.101589
-0.0831655
-0.0557205
-0.0179849
0.0309909
0.0915352
0.163037
0.241914
0.314131
0.366703
-0.189988
-0.160093
-0.126975
-0.0988149
-0.0774007
-0.0623532
-0.0529538
-0.0483899
-0.0478552
-0.0506114
-0.0559853
-0.0633362
-0.0720202
-0.0813579
-0.0906084
-0.0989474
-0.105451
-0.109078
-0.10867
-0.102926
-0.0904751
-0.0696443
-0.0387198
0.00413787
0.0608642
0.133388
0.223536
0.330619
0.444098
0.570389
-0.321168
-0.199885
-0.138517
-0.097372
-0.0698439
-0.0523658
-0.0424477
-0.0381966
-0.038264
-0.04168
-0.0476722
-0.0555545
-0.0646628
-0.0743107
-0.0837554
-0.0921722
-0.098635
-0.102096
-0.101373
-0.0950159
-0.0817756
-0.0597727
-0.0270023
0.0189377
0.0811713
0.164065
0.274091
0.419767
0.6081
0.897621
-0.648528
-0.236358
-0.107088
-0.0624043
-0.0379888
-0.0243523
-0.0185889
-0.0180567
-0.0210982
-0.0268211
-0.0346165
-0.0439355
-0.0542178
-0.064857
-0.0751727
-0.0843879
-0.0916135
-0.0958382
-0.0959402
-0.0907588
-0.0784594
-0.057497
-0.0258604
0.0190591
0.0809651
0.166085
0.286859
0.471622
0.777764
1.37162
)
;

boundaryField
{
    movingWall
    {
        type            zeroGradient;
    }
    fixedWalls
    {
        type            zeroGradient;
    }
    frontAndBack
    {
        type            empty;
    }
}


// ************************************************************************* //
