/*--------------------------------*- C++ -*----------------------------------*\
  =========                 |
  \\      /  F ield         | OpenFOAM: The Open Source CFD Toolbox
   \\    /   O peration     | Website:  https://openfoam.org
    \\  /    A nd           | Version:  7
     \\/     M anipulation  |
\*---------------------------------------------------------------------------*/
FoamFile
{
    version     2.0;
    format      ascii;
    class       surfaceScalarField;
    location    "7.5";
    object      phi;
}
// * * * * * * * * * * * * * * * * * * * * * * * * * * * * * * * * * * * * * //

dimensions      [0 3 -1 0 0 0 0];

internalField   nonuniform List<scalar> 
1740
(
8.10404e-07
-8.10856e-07
4.64088e-07
3.46325e-07
-1.45891e-06
1.923e-06
-4.79285e-06
3.33394e-06
-9.19121e-06
4.39835e-06
-1.43064e-05
5.11516e-06
-1.98457e-05
5.53939e-06
-2.55714e-05
5.72566e-06
-3.12784e-05
5.70701e-06
-3.67709e-05
5.49245e-06
-4.18439e-05
5.07303e-06
-4.62752e-05
4.43131e-06
-4.98272e-05
3.55202e-06
-5.22596e-05
2.43237e-06
-5.33505e-05
1.09097e-06
-5.2924e-05
-4.2652e-07
-5.08802e-05
-2.04381e-06
-4.7225e-05
-3.65521e-06
-4.20919e-05
-5.13307e-06
-3.57515e-05
-6.34043e-06
-2.86039e-05
-7.14755e-06
-2.11527e-05
-7.45124e-06
-1.39594e-05
-7.1933e-06
-7.58475e-06
-6.37464e-06
-2.52192e-06
-5.06284e-06
8.75288e-07
-3.39721e-06
2.46492e-06
-1.58963e-06
2.36545e-06
9.94774e-08
1.13014e-06
1.23531e-06
1.13015e-06
-3.29543e-07
-4.81305e-07
-3.50518e-06
3.52195e-06
-1.00938e-05
8.5116e-06
-1.97156e-05
1.29558e-05
-3.17237e-05
1.64065e-05
-4.54114e-05
1.88029e-05
-6.01108e-05
2.02388e-05
-7.52171e-05
2.08319e-05
-9.01699e-05
2.06599e-05
-0.000104423
1.9746e-05
-0.000117421
1.80708e-05
-0.000128588
1.55985e-05
-0.000137343
1.23069e-05
-0.000143128
8.21732e-06
-0.000145457
3.41968e-06
-0.000143978
-1.90511e-06
-0.00013852
-7.50215e-06
-0.000129164
-1.3011e-05
-0.000116274
-1.80236e-05
-0.000100506
-2.21077e-05
-8.27939e-05
-2.486e-05
-6.42818e-05
-2.59633e-05
-4.62329e-05
-2.52422e-05
-2.99e-05
-2.27076e-05
-1.63808e-05
-1.8582e-05
-6.47138e-06
-1.33067e-05
-5.22789e-07
-7.53822e-06
1.74588e-06
-2.16919e-06
1.2923e-06
1.68889e-06
2.42246e-06
-2.08521e-06
1.6039e-06
-9.10614e-06
1.05429e-05
-2.09139e-05
2.03194e-05
-3.68408e-05
2.88827e-05
-5.59836e-05
3.55492e-05
-7.73827e-05
4.0202e-05
-0.00010011
4.29663e-05
-0.000123292
4.40136e-05
-0.000146092
4.34596e-05
-0.000167683
4.13375e-05
-0.00018723
3.76181e-05
-0.000203886
3.22546e-05
-0.000216816
2.52365e-05
-0.000225241
1.66426e-05
-0.000228507
6.68528e-06
-0.000226148
-4.26388e-06
-0.000217973
-1.56771e-05
-0.000204126
-2.68577e-05
-0.000185133
-3.70165e-05
-0.000161914
-4.53271e-05
-0.000135754
-5.10198e-05
-0.000108231
-5.34867e-05
-8.10872e-05
-5.23859e-05
-5.60675e-05
-4.77273e-05
-3.47227e-05
-3.99267e-05
-1.82081e-05
-2.98213e-05
-7.09053e-06
-1.86558e-05
-1.20665e-06
-8.05306e-06
5.10198e-07
-2.79558e-08
2.93266e-06
-3.97043e-06
5.57432e-06
-1.50876e-05
2.166e-05
-3.23442e-05
3.7576e-05
-5.45835e-05
5.1122e-05
-8.05922e-05
6.1558e-05
-0.00010918
6.87904e-05
-0.000139219
7.30044e-05
-0.000169634
7.44288e-05
-0.000199386
7.32115e-05
-0.000227438
6.93898e-05
-0.000252743
6.29233e-05
-0.000274249
5.37605e-05
-0.000290931
4.1918e-05
-0.000301844
2.75563e-05
-0.000306201
1.10419e-05
-0.000303445
-7.0196e-06
-0.000293342
-2.57801e-05
-0.00027605
-4.415e-05
-0.000252172
-6.08946e-05
-0.000222779
-7.47203e-05
-0.000189386
-8.44128e-05
-0.000153877
-8.89954e-05
-0.000118371
-8.78916e-05
-8.50327e-05
-8.10659e-05
-5.584e-05
-6.91195e-05
-3.23404e-05
-5.33208e-05
-1.5421e-05
-3.55752e-05
-5.12926e-06
-1.83448e-05
-6.07344e-07
-4.54987e-06
2.32531e-06
-5.79793e-06
1.13723e-05
-2.09918e-05
3.68539e-05
-4.36664e-05
6.02507e-05
-7.20946e-05
7.95501e-05
-0.000104709
9.41722e-05
-0.000140089
0.000104171
-0.000176935
0.000109851
-0.000214027
0.00011152
-0.000250178
0.000109362
-0.000284202
0.000103414
-0.000314901
9.36218e-05
-0.000341069
7.9929e-05
-0.000361535
6.23837e-05
-0.000375215
4.12361e-05
-0.00038119
1.70175e-05
-0.000378794
-9.41579e-06
-0.000367694
-3.68799e-05
-0.000347985
-6.38597e-05
-0.000320248
-8.86308e-05
-0.0002856
-0.000109369
-0.000245684
-0.000124329
-0.000202613
-0.000132066
-0.000158841
-0.000131663
-0.000116958
-0.000122949
-7.94249e-05
-0.000106653
-4.82768e-05
-8.44689e-05
-2.48457e-05
-5.90063e-05
-9.54798e-06
-3.36424e-05
-1.7924e-06
-1.23054e-05
5.32913e-07
-7.50606e-06
1.88783e-05
-2.65961e-05
5.59439e-05
-5.44763e-05
8.81309e-05
-8.88354e-05
0.000113909
-0.000127739
0.000133076
-0.000169542
0.000145974
-0.000212798
0.000153107
-0.000256177
0.000154899
-0.000298397
0.000151582
-0.000338174
0.000143192
-0.000374208
0.000129655
-0.000405183
0.000110904
-0.000429806
8.70073e-05
-0.000446863
5.82934e-05
-0.00045529
2.5444e-05
-0.00045426
-1.04454e-05
-0.000443273
-4.78677e-05
-0.00042226
-8.48725e-05
-0.000391674
-0.000119217
-0.000352561
-0.000148482
-0.000306597
-0.000170293
-0.000256062
-0.000182601
-0.000203734
-0.000183992
-0.000152673
-0.000174009
-0.000105929
-0.000153397
-6.61721e-05
-0.000124225
-3.53413e-05
-8.98371e-05
-1.43634e-05
-5.46203e-05
-3.02412e-06
-2.36447e-05
-2.4912e-06
-9.06983e-06
2.79481e-05
-3.17721e-05
7.86461e-05
-6.45078e-05
0.000120867
-0.000104414
0.000153815
-0.000149205
0.000177868
-0.000197028
0.000193796
-0.000246315
0.000202394
-0.000295663
0.000204247
-0.000343734
0.000199653
-0.000389196
0.000188653
-0.000430685
0.000171145
-0.000466812
0.000147031
-0.000496185
0.00011638
-0.000517455
7.95636e-05
-0.000529386
3.73752e-05
-0.000530944
-8.88752e-06
-0.000521371
-5.74409e-05
-0.000500336
-0.000105907
-0.000468037
-0.000151515
-0.000425326
-0.000191193
-0.000373798
-0.000221821
-0.000315826
-0.000240573
-0.000254491
-0.000245327
-0.000193386
-0.000235115
-0.000136275
-0.000210508
-8.6655e-05
-0.000173846
-4.72758e-05
-0.000129216
-1.97517e-05
-8.21445e-05
-4.3538e-06
-3.90426e-05
-6.845e-06
-1.04669e-05
3.8415e-05
-3.64158e-05
0.000104595
-7.35406e-05
0.000157991
-0.000118487
0.000198762
-0.000168658
0.000228038
-0.000222018
0.000247157
-0.000276909
0.000257285
-0.000331888
0.000259226
-0.000385602
0.000253367
-0.000436706
0.000239758
-0.000483819
0.000218258
-0.000525508
0.000188719
-0.000560298
0.00015117
-0.000586712
0.000105978
-0.000603318
5.39809e-05
-0.00060883
-3.37548e-06
-0.000602152
-6.41194e-05
-0.00058259
-0.000125469
-0.000549959
-0.000184146
-0.00050477
-0.000236381
-0.000448398
-0.000278193
-0.000383193
-0.000305779
-0.000312482
-0.000316038
-0.000240419
-0.000307178
-0.000171619
-0.000279308
-0.00011062
-0.000234845
-6.12429e-05
-0.000178593
-2.6026e-05
-0.000117361
-5.88e-06
-5.91886e-05
-1.2725e-05
-1.16673e-05
5.00824e-05
-4.04178e-05
0.000133346
-8.13535e-05
0.000198927
-0.000130709
0.000248117
-0.000185625
0.000282954
-0.000243923
0.000305455
-0.000303884
0.000317246
-0.000364056
0.000319398
-0.000423107
0.000312417
-0.000479721
0.000296371
-0.000532533
0.000271071
-0.000580103
0.000236289
-0.000620902
0.000191969
-0.000653335
0.00013841
-0.000675776
7.64223e-05
-0.000686625
7.47344e-06
-0.000684451
-6.62937e-05
-0.000668074
-0.000141846
-0.000636803
-0.000215417
-0.000590655
-0.000282529
-0.000530602
-0.000338246
-0.000458795
-0.000377586
-0.000378681
-0.000396151
-0.000294938
-0.000390922
-0.000213127
-0.000361119
-0.000139057
-0.000308914
-7.79426e-05
-0.000239708
-3.35667e-05
-0.000161737
-7.72252e-06
-8.50328e-05
-2.04475e-05
-1.26344e-05
6.27168e-05
-4.36581e-05
0.000164369
-8.77148e-05
0.000242984
-0.000140718
0.00030112
-0.000199605
0.000341841
-0.000262091
0.000367941
-0.000326425
0.000381581
-0.000391177
0.00038415
-0.000455067
0.000376307
-0.000516843
0.000358147
-0.000575199
0.000329427
-0.000628723
0.000289813
-0.000675871
0.000239118
-0.000714963
0.000177502
-0.000744198
0.000105658
-0.000761694
2.49698e-05
-0.000765623
-6.23647e-05
-0.000754291
-0.000153179
-0.000726394
-0.000243314
-0.000681291
-0.000327633
-0.000619337
-0.0004002
-0.000542237
-0.000454686
-0.000453327
-0.000485061
-0.000357662
-0.000486587
-0.00026176
-0.00045702
-0.000172913
-0.000397762
-9.80981e-05
-0.000314523
-4.27823e-05
-0.000217053
-1.00107e-05
-0.000117804
-3.04583e-05
-1.3329e-05
7.60458e-05
-4.60158e-05
0.000197056
-9.23939e-05
0.000289362
-0.000148152
0.000356878
-0.000210082
0.000403771
-0.000275829
0.000433688
-0.000343636
0.000449387
-0.000412115
0.000452629
-0.000480067
0.000444259
-0.000546337
0.000424417
-0.000609715
0.000392805
-0.000668867
0.000348965
-0.000722285
0.000292535
-0.000768259
0.000223475
-0.000804871
0.00014227
-0.000830016
5.0115e-05
-0.000841485
-5.08956e-05
-0.000837075
-0.000157588
-0.00081481
-0.000265579
-0.000773247
-0.000369195
-0.000711896
-0.000461551
-0.000631704
-0.000534879
-0.000535542
-0.000581222
-0.000428543
-0.000593586
-0.000318043
-0.00056752
-0.000212941
-0.000502864
-0.000122384
-0.00040508
-5.40835e-05
-0.000285353
-1.28791e-05
-0.000159009
-4.33374e-05
-1.37162e-05
8.97621e-05
-4.73842e-05
0.000230724
-9.51866e-05
0.000337164
-0.000152684
0.000414376
-0.000216576
0.000467664
-0.000284467
0.000501578
-0.000354609
0.00051953
-0.000425678
0.000523698
-0.000496572
0.000515153
-0.000566262
0.000494107
-0.000633674
0.000460217
-0.000697602
0.000412893
-0.00075664
0.000351573
-0.00080913
0.000275965
-0.000853131
0.00018627
-0.000886409
8.33936e-05
-0.00090647
-3.0835e-05
-0.000910671
-0.000153388
-0.000896364
-0.000279886
-0.000861223
-0.000404335
-0.000803699
-0.000519075
-0.000723629
-0.000614949
-0.000622962
-0.00068189
-0.000506415
-0.000710133
-0.000381789
-0.000692146
-0.000259541
-0.000625112
-0.000151348
-0.000513273
-6.78591e-05
-0.000368842
-1.64652e-05
-0.000210403
-5.98027e-05
-1.37726e-05
0.000103535
-4.7692e-05
0.000264643
-9.59502e-05
0.000385423
-0.000154069
0.000472495
-0.000218703
0.000532298
-0.000287434
0.000570309
-0.000358535
0.000590631
-0.00043075
0.000595913
-0.00050309
0.000587493
-0.000574675
0.000565692
-0.000644605
0.000530146
-0.000711854
0.000480143
-0.000775195
0.000414913
-0.000833119
0.000333889
-0.000883785
0.000236936
-0.000924979
0.000124588
-0.000954054
-1.76015e-06
-0.000968103
-0.000139339
-0.000963877
-0.000284112
-0.000938179
-0.000430034
-0.000888258
-0.000568996
-0.000812515
-0.000690692
-0.000711436
-0.000782968
-0.000588657
-0.000832912
-0.0004518
-0.000829002
-0.000312546
-0.000764367
-0.000185311
-0.000640508
-8.44464e-05
-0.000469706
-2.0907e-05
-0.000273942
-8.07096e-05
-1.34943e-05
0.000117029
-4.69263e-05
0.000298075
-9.46437e-05
0.00043314
-0.000152205
0.000530056
-0.000216254
0.000596346
-0.000284359
0.000638415
-0.00035482
0.000661092
-0.000426449
0.000667541
-0.000498377
0.000659421
-0.000569891
0.000637206
-0.000640296
0.000600551
-0.000708803
0.000548651
-0.000774437
0.000480547
-0.000835947
0.0003954
-0.000891732
0.000292721
-0.000939753
0.000172609
-0.000977505
3.59924e-05
-0.00100187
-0.000114971
-0.00100931
-0.000276679
-0.000995837
-0.000443504
-0.000957501
-0.000607331
-0.000891026
-0.000757168
-0.000794919
-0.000879075
-0.00067093
-0.000956901
-0.00052557
-0.000974362
-0.000370995
-0.000918942
-0.000224242
-0.000787261
-0.000104089
-0.00058986
-2.63379e-05
-0.000351693
-0.000107047
-1.29053e-05
0.000129934
-4.51567e-05
0.000330327
-9.13711e-05
0.000479354
-0.000147194
0.000585879
-0.000209275
0.000658427
-0.000275178
0.000704318
-0.000343223
0.000729137
-0.000412292
0.00073661
-0.000481642
0.000728772
-0.000550742
0.000706306
-0.000619131
0.000668941
-0.000686304
0.000615823
-0.000751609
0.000545852
-0.000814156
0.000457948
-0.000872722
0.000351287
-0.000925638
0.000225525
-0.000970686
8.10403e-05
-0.00100493
-8.07271e-05
-0.00102472
-0.000256892
-0.00102558
-0.000442638
-0.00100251
-0.000630407
-0.00095049
-0.000809184
-0.000865679
-0.000963887
-0.000747128
-0.00107545
-0.000599059
-0.00112243
-0.000432885
-0.00108512
-0.000267601
-0.000952544
-0.000126881
-0.00073058
-3.28794e-05
-0.000445695
-0.000139927
-1.20651e-05
0.000141999
-4.25596e-05
0.000360821
-8.6424e-05
0.000523219
-0.000139401
0.000638857
-0.000198149
0.000717174
-0.000260223
0.000766393
-0.000323969
0.000792883
-0.000388343
0.000800984
-0.00045274
0.000793168
-0.000516824
0.000770391
-0.000580396
0.000732512
-0.000643272
0.000678699
-0.000705185
0.000607765
-0.000765688
0.000518451
-0.00082405
0.000409648
-0.000879129
0.000280605
-0.000929221
0.000131132
-0.0009718
-3.8148e-05
-0.00100349
-0.000225199
-0.00101968
-0.000426451
-0.00101463
-0.000635455
-0.000981827
-0.000841989
-0.000914922
-0.00103079
-0.000809643
-0.00118073
-0.000666664
-0.00126541
-0.000494988
-0.00125679
-0.000314178
-0.00113335
-0.000152703
-0.000892055
-4.06311e-05
-0.000557767
-0.000180558
-1.10766e-05
0.000153076
-3.94434e-05
0.000389188
-8.03243e-05
0.0005641
-0.000129514
0.000688046
-0.000183656
0.000771316
-0.000240303
0.00082304
-0.00029784
0.000850419
-0.000355319
0.000858463
-0.000412293
0.000850142
-0.00046865
0.000826748
-0.000524476
0.000788338
-0.00057994
0.000734163
-0.0006352
0.000663025
-0.000690306
0.000573557
-0.000745096
0.000464439
-0.000799065
0.000334573
-0.000851192
0.000183258
-0.000899586
1.02465e-05
-0.000941494
-0.000183292
-0.000972561
-0.000395384
-0.000986856
-0.00062116
-0.000976802
-0.000852043
-0.000933817
-0.00107378
-0.000850022
-0.00126453
-0.000721465
-0.00139397
-0.000552798
-0.00142546
-0.000361957
-0.00132419
-0.000181151
-0.00107286
-4.96639e-05
-0.000689254
-0.000230222
-1.0097e-05
0.000163173
-3.62783e-05
0.000415369
-7.3869e-05
0.00060169
-0.00011859
0.000732767
-0.000167027
0.000819753
-0.000216745
0.000872758
-0.000266208
0.000899881
-0.000314616
0.000906871
-0.000361726
0.000897252
-0.000407686
0.000872708
-0.000452899
0.000833551
-0.000497913
0.000779178
-0.000543329
0.000708441
-0.000589714
0.000619941
-0.000637502
0.000512227
-0.000686868
0.000383938
-0.000737524
0.000233915
-0.000788582
6.13038e-05
-0.000837835
-0.000134038
-0.000881824
-0.000351395
-0.000914967
-0.000588017
-0.00092933
-0.00083768
-0.000914736
-0.00108837
-0.000859957
-0.0013193
-0.000755795
-0.00149813
-0.000600681
-0.00158057
-0.000408047
-0.00151683
-0.000211492
-0.00126942
-6.0024e-05
-0.000840722
-0.000290246
-9.35565e-06
0.000172529
-3.37391e-05
0.000439753
-6.8185e-05
0.000636136
-0.000108108
0.000772691
-0.000149975
0.00086162
-0.000191401
0.000914184
-0.000231018
0.000939498
-0.000268266
0.000944119
-0.000303186
0.000932172
-0.000336244
0.000905766
-0.000368199
0.000865506
-0.000399993
0.000810972
-0.000432674
0.000741122
-0.000467313
0.00065458
-0.000504919
0.000549833
-0.000546327
0.000425346
-0.000592024
0.000279613
-0.000641938
0.000111218
-0.000694957
-8.10202e-05
-0.000748598
-0.000297753
-0.000798236
-0.000538379
-0.000836418
-0.000799498
-0.000852367
-0.00107242
-0.000832352
-0.00133932
-0.00076204
-0.00156844
-0.000632254
-0.00171036
-0.000448715
-0.00170037
-0.000242637
-0.00147549
-7.17608e-05
-0.0010116
-0.000362007
-9.18933e-06
0.000181718
-3.27792e-05
0.000463343
-6.48093e-05
0.000668166
-0.000100023
0.000807905
-0.000134702
0.000896298
-0.000166607
0.00094609
-0.000194695
0.000967586
-0.000218794
0.000968219
-0.000239348
0.000952726
-0.000257224
0.000923642
-0.00027358
0.000881861
-0.000289767
0.000827159
-0.000307259
0.000758614
-0.000327589
0.00067491
-0.000352278
0.000574522
-0.000382742
0.00045581
-0.000420156
0.000317027
-0.000465248
0.00015631
-0.000517969
-2.82996e-05
-0.000577042
-0.00023868
-0.00063923
-0.000476192
-0.000698369
-0.000740359
-0.000744286
-0.0010265
-0.000762134
-0.00132147
-0.000733411
-0.00159716
-0.000640855
-0.00180292
-0.000479505
-0.00186172
-0.000273136
-0.00168186
-8.4988e-05
-0.00119975
-0.000446995
-1.01154e-05
0.000191833
-3.47614e-05
0.000487989
-6.58089e-05
0.000699214
-9.68205e-05
0.000838917
-0.000123869
0.000923347
-0.000145068
0.000967289
-0.000159945
0.000982464
-0.000168942
0.000977215
-0.000173066
0.00095685
-0.000173683
0.000924259
-0.000172399
0.000880578
-0.000170972
0.000825731
-0.000171268
0.00075891
-0.000175212
0.000678855
-0.000184741
0.000584051
-0.000201746
0.000472816
-0.000227954
0.000343234
-0.000264779
0.000193135
-0.000313124
2.00455e-05
-0.00037295
-0.000178854
-0.000442665
-0.000406477
-0.000518039
-0.000664985
-0.000590702
-0.000953841
-0.000646432
-0.00126574
-0.000664379
-0.00157922
-0.000619924
-0.00184737
-0.000495335
-0.00198631
-0.00030114
-0.00187606
-9.99761e-05
-0.00140091
-0.000546971
-1.29752e-05
0.000204809
-4.16782e-05
0.000516692
-7.39411e-05
0.000731477
-0.000101537
0.000866513
-0.000120466
0.000942275
-0.000129575
0.000976398
-0.000129358
0.000982246
-0.000121164
0.000969021
-0.000106762
0.000942448
-8.81199e-05
0.000905617
-6.734e-05
0.000859798
-4.6556e-05
0.000804948
-2.79794e-05
0.000740333
-1.38526e-05
0.000664728
-6.41602e-06
0.000576614
-7.84102e-06
0.000474241
-2.02596e-05
0.000355653
-4.56804e-05
0.000218556
-8.57848e-05
6.01499e-05
-0.000141688
-0.000122951
-0.000213461
-0.000334704
-0.000299187
-0.000579258
-0.000393277
-0.000859751
-0.000483949
-0.00117507
-0.000550488
-0.00151268
-0.000562998
-0.00183486
-0.000490388
-0.00205892
-0.000324206
-0.00204224
-0.000117227
-0.00160789
-0.000664198
-1.92048e-05
0.000224013
-5.64825e-05
0.00055397
-9.2783e-05
0.000767777
-0.000117587
0.000891317
-0.000127332
0.00095202
-0.000122293
0.000971359
-0.000104487
0.000964441
-7.65488e-05
0.000941083
-4.12206e-05
0.00090712
-1.18058e-06
0.000865577
4.10544e-05
0.000817563
8.29399e-05
0.000763062
0.000122027
0.000701246
0.00015588
0.000630875
0.000182066
0.000550428
0.000198147
0.00045816
0.000201718
0.000352082
0.000190423
0.000229852
0.000161971
8.86017e-05
0.00011426
-7.52404e-05
4.56833e-05
-0.000266127
-4.42058e-05
-0.000489369
-0.000153205
-0.000750752
-0.000273563
-0.00105471
-0.000387431
-0.00139881
-0.000463109
-0.00175918
-0.000457551
-0.00206447
-0.00033874
-0.00216105
-0.000137384
-0.00180925
-0.000801582
-3.13119e-05
0.000255325
-8.34519e-05
0.00060611
-0.000126519
0.000810844
-0.000147879
0.000912677
-0.000145703
0.000949844
-0.00012285
0.000948506
-8.36159e-05
0.000925207
-3.23322e-05
0.000889799
2.71128e-05
0.000847675
9.1328e-05
0.000801362
0.000157281
0.00075161
0.000222238
0.000698105
0.000283592
0.000639893
0.00033881
0.000575657
0.000385382
0.000503855
0.000420782
0.00042276
0.000442437
0.000330427
0.000447701
0.000224588
0.000433805
0.000102497
0.000397844
-3.92798e-05
0.000336922
-0.000205205
0.000248414
-0.000400861
0.000131129
-0.000633467
-1.20715e-05
-0.000911509
-0.000169403
-0.00124148
-0.000311453
-0.00161713
-0.000387125
-0.0019888
-0.000338687
-0.00220949
-0.000160615
-0.00198732
-0.000962197
-5.36137e-05
0.000308939
-0.000128152
0.000680648
-0.000178339
0.000861031
-0.000191746
0.000926084
-0.000171032
0.00092913
-0.000123402
0.000900876
-5.63361e-05
0.000858141
2.37808e-05
0.000809682
0.000111853
0.000759602
0.000203833
0.000709382
0.000296409
0.000659034
0.000386734
0.00060778
0.000472216
0.00055441
0.000550379
0.000497494
0.000618764
0.000435471
0.000674852
0.000366672
0.000716004
0.000289275
0.00073938
0.000201212
0.000741845
0.000100032
0.000719834
-1.72689e-05
0.000669481
-0.000154852
0.00058637
-0.00031775
0.000466248
-0.000513345
0.000306764
-0.000752026
0.000112594
-0.00104731
-9.48907e-05
-0.00140965
-0.000264339
-0.00181935
-0.000312807
-0.00216102
-0.000184785
-0.00211534
-0.00114698
-9.29558e-05
0.000401895
-0.00019523
0.000782922
-0.000244262
0.000910063
-0.00023578
0.000917602
-0.000182019
0.000875369
-9.68122e-05
0.000815669
8.44361e-06
0.000752885
0.000125325
0.0006928
0.000247829
0.000637099
0.000371645
0.000585566
0.00049353
0.000537149
0.000610859
0.00049045
0.000721319
0.000443951
0.000822703
0.00039611
0.000912775
0.000345398
0.000989172
0.000290275
0.00104931
0.000229141
0.00109027
0.000160249
0.0011087
8.16026e-05
0.00110051
-9.08032e-06
0.00106126
-0.000115601
0.000985185
-0.000241675
0.000865763
-0.000393923
0.000696257
-0.00058252
0.000472958
-0.000824011
0.000205263
-0.00114195
-6.34303e-05
-0.00155066
-0.000239569
-0.00198488
-0.000202301
-0.00215261
-0.00134928
-0.000157487
0.000559382
-0.000276771
0.000902206
-0.000292784
0.000926075
-0.000229127
0.000853945
-0.000114998
0.00076124
2.77421e-05
0.000672929
0.00018458
0.000596047
0.00034638
0.000531
0.000507518
0.00047596
0.00066447
0.000428614
0.000814866
0.000386753
0.000956905
0.000348412
0.00108899
0.000311862
0.00120953
0.000275574
0.00131676
0.000238168
0.00140868
0.000198355
0.00148295
0.000154874
0.00153678
0.000106419
0.0015668
5.15813e-05
0.0015688
-1.10827e-05
0.00153795
-8.47476e-05
0.00146782
-0.000171552
0.00135054
-0.00027664
0.0011763
-0.000408273
0.000934145
-0.000581861
0.000618226
-0.000826033
0.000250058
-0.00118249
-7.76973e-05
-0.00165713
-0.000193617
-0.00203669
-0.0015429
-0.000243726
0.000803108
-0.000303192
0.000961672
-0.000204578
0.000827461
-2.56758e-05
0.000675043
0.000184762
0.000550803
0.000402879
0.000454811
0.000616953
0.000381973
0.000821455
0.000326498
0.00101407
0.000283342
0.001194
0.000248691
0.00136098
0.000219774
0.00151484
0.000194545
0.00165526
0.000171443
0.0017816
0.000149234
0.00189287
0.000126903
0.00198764
0.000103575
0.00206406
7.84555e-05
0.00211971
5.0777e-05
0.0021515
1.97826e-05
0.00215598
-1.55547e-05
0.00212783
-5.66023e-05
0.00206106
-0.000104782
0.00194748
-0.00016306
0.00177587
-0.000236666
0.00153046
-0.000336449
0.00119093
-0.0004865
0.00074628
-0.000737842
0.000253634
-0.00116448
-8.1091e-05
-0.00170196
-0.00162399
-0.000194152
0.00099726
1.85727e-05
0.000748947
0.000373342
0.000472692
0.000714264
0.000334121
0.0010199
0.000245167
0.00129002
0.00018469
0.00152803
0.000143963
0.00173834
0.00011619
0.00192518
9.65008e-05
0.00209203
8.18423e-05
0.00224147
7.03363e-05
0.00237524
6.07675e-05
0.00249438
5.23082e-05
0.00259925
4.43685e-05
0.00268964
3.6507e-05
0.00276484
2.83741e-05
0.00282362
1.96749e-05
0.00286422
1.01825e-05
0.00288396
3.6761e-08
0.00288109
-1.26822e-05
0.00285059
-2.61007e-05
0.00278791
-4.21067e-05
0.00268621
-6.13547e-05
0.00253526
-8.57195e-05
0.00231835
-0.000119537
0.00200613
-0.000174286
0.00155149
-0.0002832
0.000927306
-0.000540294
0.000263787
-0.00103845
-0.0013602
0.00099726
0.00174621
0.0022189
0.00255302
0.00279819
0.00298288
0.00312684
0.00324303
0.00333953
0.00342137
0.00349171
0.00355248
0.00360479
0.00364915
0.00368566
0.00371404
0.00373371
0.00374389
0.00374393
0.00373125
0.00370515
0.00366304
0.00360169
0.00351597
0.00339643
0.00322214
0.00293894
0.00239865
0.0013602
)
;

boundaryField
{
    movingWall
    {
        type            calculated;
        value           uniform 0;
    }
    fixedWalls
    {
        type            calculated;
        value           uniform 0;
    }
    frontAndBack
    {
        type            empty;
        value           nonuniform 0();
    }
}


// ************************************************************************* //
