/*--------------------------------*- C++ -*----------------------------------*\
  =========                 |
  \\      /  F ield         | OpenFOAM: The Open Source CFD Toolbox
   \\    /   O peration     | Website:  https://openfoam.org
    \\  /    A nd           | Version:  7
     \\/     M anipulation  |
\*---------------------------------------------------------------------------*/
FoamFile
{
    version     2.0;
    format      ascii;
    class       volVectorField;
    location    "7.5";
    object      U;
}
// * * * * * * * * * * * * * * * * * * * * * * * * * * * * * * * * * * * * * //

dimensions      [0 1 -1 0 0 0 0];

internalField   nonuniform List<vector> 
900
(
(0.000158007 -0.000156986 0)
(0.000275881 -6.48589e-05 0)
(-4.75024e-05 9.96222e-05 0)
(-0.000817491 0.000244048 0)
(-0.0019426 0.000348186 0)
(-0.00332077 0.000414873 0)
(-0.00485973 0.000453268 0)
(-0.00648386 0.000471358 0)
(-0.00813086 0.000473658 0)
(-0.00974447 0.00046131 0)
(-0.0112681 0.00043301 0)
(-0.0126407 0.000386174 0)
(-0.0137961 0.000318152 0)
(-0.014665 0.000227372 0)
(-0.01518 0.000114382 0)
(-0.0152825 -1.74201e-05 0)
(-0.0149314 -0.000161762 0)
(-0.014112 -0.000308477 0)
(-0.0128434 -0.000444997 0)
(-0.0111834 -0.000557416 0)
(-0.00922889 -0.000632253 0)
(-0.00711108 -0.000658556 0)
(-0.00498514 -0.000629895 0)
(-0.00301492 -0.000545835 0)
(-0.00135407 -0.000412687 0)
(-0.000126565 -0.000244227 0)
(0.000587032 -6.16023e-05 0)
(0.000774645 0.000110006 0)
(0.000538133 0.000215115 0)
(0.000167623 0.000166457 0)
(7.29836e-05 -0.000283057 0)
(-0.000307422 0.000305086 0)
(-0.00171973 0.0011232 0)
(-0.00407505 0.00185715 0)
(-0.00721065 0.00242008 0)
(-0.0109283 0.00280568 0)
(-0.0150276 0.00303655 0)
(-0.019326 0.00313754 0)
(-0.0236588 0.00312438 0)
(-0.0278696 0.00300161 0)
(-0.0318019 0.00276515 0)
(-0.035294 0.00240704 0)
(-0.0381789 0.00192076 0)
(-0.0402911 0.00130655 0)
(-0.0414782 0.000575806 0)
(-0.0416165 -0.000245843 0)
(-0.0406274 -0.00111673 0)
(-0.0384952 -0.00198061 0)
(-0.035282 -0.00277035 0)
(-0.0311341 -0.00341433 0)
(-0.0262813 -0.00384515 0)
(-0.0210253 -0.00400951 0)
(-0.0157175 -0.00387769 0)
(-0.010726 -0.00345091 0)
(-0.0063964 -0.00276542 0)
(-0.00300801 -0.0018942 0)
(-0.000732038 -0.000947002 0)
(0.000399499 -6.88727e-05 0)
(0.000565389 0.000530566 0)
(0.000223116 0.000535484 0)
(-0.000106853 4.50378e-05 0)
(-0.0012262 0.00173882 0)
(-0.00396254 0.00373855 0)
(-0.00799412 0.00551977 0)
(-0.0130696 0.00691129 0)
(-0.0189275 0.00788399 0)
(-0.0252952 0.00846787 0)
(-0.0319143 0.00870401 0)
(-0.0385419 0.00862026 0)
(-0.0449423 0.00822496 0)
(-0.0508787 0.00751119 0)
(-0.0561097 0.00646664 0)
(-0.0603926 0.00508539 0)
(-0.063493 0.00337959 0)
(-0.0652013 0.00138898 0)
(-0.0653527 -0.000812683 0)
(-0.0638485 -0.00311504 0)
(-0.0606783 -0.00537606 0)
(-0.0559363 -0.00743043 0)
(-0.0498295 -0.00910489 0)
(-0.0426765 -0.0102382 0)
(-0.0348929 -0.0107039 0)
(-0.0269625 -0.010432 0)
(-0.0193955 -0.00942682 0)
(-0.0126761 -0.00777791 0)
(-0.00720462 -0.00566268 0)
(-0.0032398 -0.00334508 0)
(-0.00085024 -0.00117425 0)
(0.000137222 0.000414561 0)
(0.000159508 0.000823733 0)
(-0.000296575 0.000911702 0)
(-0.00221257 0.00432686 0)
(-0.00635959 0.00789731 0)
(-0.0121084 0.0109961 0)
(-0.0190862 0.013405 0)
(-0.0269676 0.0150859 0)
(-0.0354218 0.0160796 0)
(-0.0441339 0.0164419 0)
(-0.0528035 0.0162106 0)
(-0.0611357 0.015396 0)
(-0.068833 0.0139883 0)
(-0.0755939 0.011973 0)
(-0.0811185 0.00935033 0)
(-0.0851212 0.00615316 0)
(-0.0873488 0.00246207 0)
(-0.0876039 -0.0015853 0)
(-0.0857682 -0.00579268 0)
(-0.0818268 -0.00991099 0)
(-0.0758861 -0.0136543 0)
(-0.0681857 -0.0167245 0)
(-0.059098 -0.0188437 0)
(-0.0491158 -0.0197916 0)
(-0.0388213 -0.0194427 0)
(-0.0288404 -0.0177975 0)
(-0.0197813 -0.0150031 0)
(-0.0121649 -0.0113592 0)
(-0.00635399 -0.00731181 0)
(-0.00248863 -0.0034394 0)
(-0.000457903 -0.000437689 0)
(6.41091e-05 0.000827026 0)
(-0.000475094 0.00231276 0)
(-0.00317764 0.00809264 0)
(-0.00873525 0.0136114 0)
(-0.0161838 0.0182489 0)
(-0.02501 0.0218009 0)
(-0.0348194 0.0242519 0)
(-0.0452287 0.0256665 0)
(-0.0558783 0.0261192 0)
(-0.066427 0.0256565 0)
(-0.0765378 0.0242893 0)
(-0.0858701 0.0220042 0)
(-0.0940786 0.0187861 0)
(-0.10082 0.0146444 0)
(-0.105768 0.00963757 0)
(-0.10863 0.00389356 0)
(-0.109175 -0.00237875 0)
(-0.107254 -0.00888749 0)
(-0.102827 -0.0152653 0)
(-0.0959887 -0.0210913 0)
(-0.08698 -0.0259247 0)
(-0.0761971 -0.0293494 0)
(-0.0641827 -0.0310273 0)
(-0.0516001 -0.0307538 0)
(-0.0391852 -0.0285074 0)
(-0.0276789 -0.0244834 0)
(-0.017745 -0.0191065 0)
(-0.0098823 -0.013019 0)
(-0.00434204 -0.00704933 0)
(-0.00111221 -0.00216878 0)
(-2.93257e-05 0.000491646 0)
(-0.000637899 0.00422086 0)
(-0.0040857 0.013006 0)
(-0.0109984 0.0208532 0)
(-0.0200803 0.0272411 0)
(-0.0306733 0.0320427 0)
(-0.0423118 0.0353045 0)
(-0.0545638 0.037136 0)
(-0.0670353 0.0376386 0)
(-0.0793567 0.0368701 0)
(-0.091164 0.0348413 0)
(-0.102088 0.0315341 0)
(-0.111754 0.0269318 0)
(-0.119785 0.0210523 0)
(-0.125819 0.0139794 0)
(-0.129525 0.00588796 0)
(-0.130626 -0.00294182 0)
(-0.128927 -0.0121208 0)
(-0.12434 -0.0211582 0)
(-0.116915 -0.0294879 0)
(-0.106863 -0.0365084 0)
(-0.094571 -0.0416393 0)
(-0.0806094 -0.0443916 0)
(-0.0657103 -0.0444454 0)
(-0.0507244 -0.0417232 0)
(-0.0365475 -0.0364453 0)
(-0.0240238 -0.0291537 0)
(-0.0138344 -0.020697 0)
(-0.00638669 -0.0121765 0)
(-0.00180537 -0.00486626 0)
(-0.000116205 -0.000188574 0)
(-0.000784788 0.00659819 0)
(-0.00491949 0.0189982 0)
(-0.0130932 0.0295412 0)
(-0.0237016 0.037882 0)
(-0.0359482 0.0440317 0)
(-0.0492994 0.0481397 0)
(-0.0632804 0.050385 0)
(-0.0774711 0.0509085 0)
(-0.0914854 0.0497838 0)
(-0.104945 0.047022 0)
(-0.117466 0.0425986 0)
(-0.128653 0.0364915 0)
(-0.138107 0.0287224 0)
(-0.145432 0.0193942 0)
(-0.150253 0.00872077 0)
(-0.152241 -0.00295411 0)
(-0.151131 -0.0151501 0)
(-0.146761 -0.0272547 0)
(-0.139103 -0.0385499 0)
(-0.128302 -0.0482559 0)
(-0.114701 -0.0555965 0)
(-0.0988692 -0.0598881 0)
(-0.0815923 -0.0606428 0)
(-0.0638411 -0.0576748 0)
(-0.0466938 -0.0511876 0)
(-0.0312222 -0.04182 0)
(-0.018349 -0.0306333 0)
(-0.00869482 -0.0190334 0)
(-0.00256466 -0.0086434 0)
(-0.00020181 -0.00123006 0)
(-0.000915076 0.00940028 0)
(-0.00566481 0.0259753 0)
(-0.0149749 0.039557 0)
(-0.0269667 0.0500432 0)
(-0.0407196 0.0576375 0)
(-0.0556401 0.062632 0)
(-0.071218 0.0653008 0)
(-0.0870162 0.0658385 0)
(-0.102642 0.0643413 0)
(-0.117716 0.0608217 0)
(-0.131849 0.0552458 0)
(-0.144639 0.0475807 0)
(-0.155669 0.0378429 0)
(-0.164513 0.0261421 0)
(-0.170753 0.0127161 0)
(-0.173993 -0.00204345 0)
(-0.173885 -0.0175762 0)
(-0.170165 -0.0331601 0)
(-0.162695 -0.0479241 0)
(-0.151512 -0.0608936 0)
(-0.136874 -0.0710626 0)
(-0.11931 -0.077499 0)
(-0.0996327 -0.0794776 0)
(-0.0789281 -0.0766284 0)
(-0.0584792 -0.0690717 0)
(-0.0396377 -0.0575035 0)
(-0.0236395 -0.0431971 0)
(-0.0113924 -0.027903 0)
(-0.00344187 -0.0136626 0)
(-0.000296167 -0.00267301 0)
(-0.00102647 0.0125755 0)
(-0.00630496 0.0338217 0)
(-0.0165978 0.0507514 0)
(-0.0297947 0.0635624 0)
(-0.0448705 0.0726978 0)
(-0.0611819 0.0786289 0)
(-0.0781924 0.0817494 0)
(-0.0954567 0.0823229 0)
(-0.112586 0.0804755 0)
(-0.129207 0.0762232 0)
(-0.144942 0.0695197 0)
(-0.159389 0.0603136 0)
(-0.172124 0.0486041 0)
(-0.182698 0.0344912 0)
(-0.190648 0.0182164 0)
(-0.195507 0.000196187 0)
(-0.196834 -0.0189536 0)
(-0.194244 -0.0384167 0)
(-0.187458 -0.0571767 0)
(-0.176363 -0.0740551 0)
(-0.161083 -0.0877842 0)
(-0.142053 -0.097124 0)
(-0.120069 -0.101027 0)
(-0.096303 -0.098836 0)
(-0.0722498 -0.0904896 0)
(-0.0495891 -0.0766702 0)
(-0.0299529 -0.0588464 0)
(-0.0146323 -0.0391575 0)
(-0.00450057 -0.020156 0)
(-0.000411196 -0.00458976 0)
(-0.00111544 0.0160625 0)
(-0.0068205 0.0423982 0)
(-0.0179135 0.0629432 0)
(-0.0321021 0.0782409 0)
(-0.048278 0.0890127 0)
(-0.0657602 0.0959399 0)
(-0.0839946 0.0995585 0)
(-0.102536 0.100216 0)
(-0.121007 0.0980781 0)
(-0.139053 0.0931655 0)
(-0.156314 0.0854176 0)
(-0.172404 0.0747563 0)
(-0.1869 0.0611499 0)
(-0.199343 0.0446692 0)
(-0.20923 0.0255353 0)
(-0.216033 0.00416079 0)
(-0.219212 -0.0188172 0)
(-0.218253 -0.0425115 0)
(-0.212713 -0.0657803 0)
(-0.202291 -0.0872454 0)
(-0.186926 -0.105355 0)
(-0.166888 -0.118506 0)
(-0.142885 -0.125231 0)
(-0.116115 -0.124459 0)
(-0.0882632 -0.115805 0)
(-0.061366 -0.0998199 0)
(-0.0375391 -0.0781172 0)
(-0.0185782 -0.0532625 0)
(-0.0058101 -0.0284345 0)
(-0.000559684 -0.00708878 0)
(-0.00117792 0.0197889 0)
(-0.00719122 0.0515421 0)
(-0.0188737 0.0759193 0)
(-0.0338054 0.0938424 0)
(-0.0508184 0.10634 0)
(-0.0692046 0.114327 0)
(-0.0884 0.118502 0)
(-0.107966 0.119313 0)
(-0.127544 0.116972 0)
(-0.146806 0.11151 0)
(-0.165421 0.102851 0)
(-0.183029 0.0908819 0)
(-0.199226 0.0755279 0)
(-0.213552 0.0568104 0)
(-0.22549 0.0349039 0)
(-0.23446 0.0101845 0)
(-0.239839 -0.0167236 0)
(-0.240986 -0.0449027 0)
(-0.237287 -0.0731212 0)
(-0.22823 -0.0998239 0)
(-0.213511 -0.123174 0)
(-0.19316 -0.141161 0)
(-0.167695 -0.151808 0)
(-0.138244 -0.153478 0)
(-0.106608 -0.145271 0)
(-0.0751747 -0.127429 0)
(-0.0466211 -0.101595 0)
(-0.0233925 -0.0707703 0)
(-0.00744276 -0.03889 0)
(-0.000755289 -0.0103167 0)
(-0.00121017 0.0236716 0)
(-0.00739927 0.0610677 0)
(-0.0194361 0.0894363 0)
(-0.0348308 0.110093 0)
(-0.0523785 0.124391 0)
(-0.0713529 0.133498 0)
(-0.0911863 0.138292 0)
(-0.11145 0.139332 0)
(-0.131811 0.13689 0)
(-0.151973 0.131013 0)
(-0.171645 0.12161 0)
(-0.190504 0.10853 0)
(-0.208182 0.0916428 0)
(-0.224243 0.0709049 0)
(-0.238173 0.0464189 0)
(-0.249375 0.0184926 0)
(-0.257167 -0.0123025 0)
(-0.260808 -0.0450675 0)
(-0.259527 -0.0785337 0)
(-0.252588 -0.111016 0)
(-0.239404 -0.140423 0)
(-0.219686 -0.164328 0)
(-0.193644 -0.180167 0)
(-0.16219 -0.185583 0)
(-0.12711 -0.178929 0)
(-0.0910744 -0.159866 0)
(-0.0573619 -0.129862 0)
(-0.0292242 -0.0922977 0)
(-0.0094721 -0.0519917 0)
(-0.00101297 -0.0144593 0)
(-0.00120968 0.0276184 0)
(-0.00743291 0.0707714 0)
(-0.0195721 0.103225 0)
(-0.0351255 0.126687 0)
(-0.0528714 0.142837 0)
(-0.0720726 0.153107 0)
(-0.0921603 0.158567 0)
(-0.112719 0.159904 0)
(-0.133441 0.157459 0)
(-0.154071 0.151305 0)
(-0.174361 0.141339 0)
(-0.194043 0.127374 0)
(-0.2128 0.10922 0)
(-0.230245 0.086754 0)
(-0.245901 0.0599902 0)
(-0.259189 0.0291396 0)
(-0.269415 -0.00531936 0)
(-0.275779 -0.042569 0)
(-0.277391 -0.0813621 0)
(-0.273307 -0.119962 0)
(-0.262643 -0.15609 0)
(-0.244726 -0.186944 0)
(-0.219331 -0.209344 0)
(-0.186979 -0.220073 0)
(-0.149238 -0.216476 0)
(-0.108903 -0.197277 0)
(-0.0698214 -0.16342 0)
(-0.0361932 -0.118488 0)
(-0.0119708 -0.068276 0)
(-0.00134953 -0.0197423 0)
(-0.00117604 0.031533 0)
(-0.00729067 0.0804407 0)
(-0.019276 0.117003 0)
(-0.0346717 0.143293 0)
(-0.0522562 0.161312 0)
(-0.0712849 0.172757 0)
(-0.091189 0.178902 0)
(-0.111566 0.180575 0)
(-0.132136 0.178199 0)
(-0.152684 0.171886 0)
(-0.173018 0.16153 0)
(-0.192932 0.146912 0)
(-0.212181 0.127784 0)
(-0.23045 0.103942 0)
(-0.247336 0.0752993 0)
(-0.262323 0.0419492 0)
(-0.274764 0.00424015 0)
(-0.283856 -0.0371403 0)
(-0.288643 -0.0810499 0)
(-0.288033 -0.125801 0)
(-0.280862 -0.169039 0)
(-0.266042 -0.207683 0)
(-0.242811 -0.237977 0)
(-0.211105 -0.25577 0)
(-0.172014 -0.257142 0)
(-0.128192 -0.239443 0)
(-0.0839034 -0.202574 0)
(-0.0443692 -0.149952 0)
(-0.0150072 -0.0883264 0)
(-0.00178414 -0.0264309 0)
(-0.00111186 0.0353213 0)
(-0.00698554 0.0898671 0)
(-0.0185744 0.130484 0)
(-0.033502 0.15957 0)
(-0.0505581 0.179424 0)
(-0.0689913 0.192009 0)
(-0.0882328 0.198811 0)
(-0.107893 0.20081 0)
(-0.127718 0.198532 0)
(-0.147539 0.192136 0)
(-0.167223 0.18153 0)
(-0.18664 0.166474 0)
(-0.205628 0.146669 0)
(-0.223975 0.121838 0)
(-0.241383 0.0917917 0)
(-0.257445 0.0564948 0)
(-0.271612 0.0161413 0)
(-0.283154 -0.0287539 0)
(-0.291132 -0.0772395 0)
(-0.294382 -0.127791 0)
(-0.291525 -0.178128 0)
(-0.28108 -0.225052 0)
(-0.261693 -0.264363 0)
(-0.232549 -0.290996 0)
(-0.193969 -0.299583 0)
(-0.148095 -0.28563 0)
(-0.0992933 -0.247298 0)
(-0.0537423 -0.187175 0)
(-0.0186398 -0.112743 0)
(-0.0023387 -0.0348278 0)
(-0.0010235 0.0389009 0)
(-0.00654918 0.0988642 0)
(-0.0175358 0.143405 0)
(-0.0317141 0.175184 0)
(-0.047888 0.196776 0)
(-0.0652982 0.210401 0)
(-0.0833755 0.217766 0)
(-0.101743 0.22002 0)
(-0.12018 0.217801 0)
(-0.138561 0.211341 0)
(-0.156821 0.200574 0)
(-0.174913 0.185256 0)
(-0.192776 0.165054 0)
(-0.210316 0.139629 0)
(-0.227369 0.1087 0)
(-0.243677 0.0721097 0)
(-0.258842 0.0298846 0)
(-0.272271 -0.0176724 0)
(-0.283135 -0.0698655 0)
(-0.290298 -0.125447 0)
(-0.292273 -0.182378 0)
(-0.287271 -0.237563 0)
(-0.27337 -0.286588 0)
(-0.248907 -0.323636 0)
(-0.213167 -0.341843 0)
(-0.16734 -0.334458 0)
(-0.115398 -0.297064 0)
(-0.0641892 -0.230406 0)
(-0.0229102 -0.142095 0)
(-0.00303836 -0.0452679 0)
(-0.000921986 0.0422119 0)
(-0.00603627 0.107291 0)
(-0.0162803 0.155547 0)
(-0.0294848 0.189838 0)
(-0.0444604 0.212985 0)
(-0.0604367 0.227468 0)
(-0.0768472 0.235221 0)
(-0.0933346 0.237577 0)
(-0.109713 0.235309 0)
(-0.125913 0.228733 0)
(-0.141942 0.217832 0)
(-0.157842 0.202376 0)
(-0.173666 0.182019 0)
(-0.189449 0.156378 0)
(-0.205181 0.125103 0)
(-0.220776 0.087923 0)
(-0.236028 0.0447081 0)
(-0.250537 -0.0044647 0)
(-0.263662 -0.0592177 0)
(-0.274402 -0.118656 0)
(-0.2813 -0.181152 0)
(-0.282409 -0.243958 0)
(-0.275355 -0.302764 0)
(-0.257641 -0.351318 0)
(-0.227337 -0.381423 0)
(-0.184248 -0.383833 0)
(-0.131303 -0.350692 0)
(-0.0754376 -0.279511 0)
(-0.0278361 -0.176857 0)
(-0.00391268 -0.0581114 0)
(-0.000824153 0.0452307 0)
(-0.00553008 0.115078 0)
(-0.0149905 0.166768 0)
(-0.0270847 0.203292 0)
(-0.0406077 0.227709 0)
(-0.0547763 0.242763 0)
(-0.0690361 0.250633 0)
(-0.0830626 0.252853 0)
(-0.0967203 0.250346 0)
(-0.110007 0.243534 0)
(-0.123011 0.232465 0)
(-0.135875 0.216943 0)
(-0.148768 0.196626 0)
(-0.161861 0.171115 0)
(-0.175304 0.140007 0)
(-0.189192 0.102945 0)
(-0.203525 0.0596568 0)
(-0.218149 0.0100014 0)
(-0.23265 -0.0459552 0)
(-0.246247 -0.107751 0)
(-0.257677 -0.174297 0)
(-0.265019 -0.24343 0)
(-0.265654 -0.311304 0)
(-0.256404 -0.371691 0)
(-0.234104 -0.415474 0)
(-0.196838 -0.430985 0)
(-0.145774 -0.406229 0)
(-0.0870389 -0.333817 0)
(-0.0334086 -0.217328 0)
(-0.00499892 -0.0737346 0)
(-0.000755066 0.0479877 0)
(-0.00515133 0.122264 0)
(-0.0139266 0.177037 0)
(-0.0248934 0.215397 0)
(-0.0367926 0.240663 0)
(-0.0488305 0.255873 0)
(-0.0604859 0.263479 0)
(-0.0714946 0.265234 0)
(-0.0817967 0.262227 0)
(-0.0914766 0.254998 0)
(-0.100718 0.243677 0)
(-0.109771 0.228114 0)
(-0.118924 0.207993 0)
(-0.128484 0.182914 0)
(-0.138753 0.152448 0)
(-0.150002 0.116174 0)
(-0.162432 0.0737046 0)
(-0.176123 0.0247087 0)
(-0.190931 -0.0310258 0)
(-0.206378 -0.0934963 0)
(-0.221491 -0.162219 0)
(-0.234586 -0.235797 0)
(-0.243069 -0.311197 0)
(-0.24337 -0.382761 0)
(-0.231269 -0.441113 0)
(-0.202993 -0.472641 0)
(-0.157296 -0.460921 0)
(-0.0983532 -0.391958 0)
(-0.0395963 -0.263538 0)
(-0.00635003 -0.0925267 0)
(-0.000753467 0.0505918 0)
(-0.00507494 0.129035 0)
(-0.0134502 0.18647 0)
(-0.0234208 0.226114 0)
(-0.0336177 0.251634 0)
(-0.0432523 0.266433 0)
(-0.0518775 0.27327 0)
(-0.059335 0.27414 0)
(-0.0656801 0.270308 0)
(-0.0711124 0.26244 0)
(-0.0759297 0.25075 0)
(-0.0804961 0.235147 0)
(-0.0852192 0.215347 0)
(-0.0905317 0.190966 0)
(-0.096874 0.161565 0)
(-0.104672 0.126686 0)
(-0.114305 0.0858558 0)
(-0.126063 0.0385949 0)
(-0.140065 -0.0155606 0)
(-0.156158 -0.0770041 0)
(-0.173749 -0.145854 0)
(-0.191558 -0.221567 0)
(-0.207311 -0.302196 0)
(-0.21744 -0.383196 0)
(-0.21705 -0.45578 0)
(-0.200654 -0.505316 0)
(-0.164159 -0.511287 0)
(-0.108546 -0.451746 0)
(-0.0463601 -0.315139 0)
(-0.00805101 -0.114898 0)
(-0.000884048 0.0532692 0)
(-0.00556239 0.135784 0)
(-0.0140636 0.195367 0)
(-0.023334 0.235531 0)
(-0.0318303 0.260481 0)
(-0.0388136 0.274105 0)
(-0.0439837 0.279532 0)
(-0.0473587 0.279014 0)
(-0.0491644 0.27399 0)
(-0.0497528 0.265242 0)
(-0.0495561 0.253063 0)
(-0.0490591 0.237414 0)
(-0.0487822 0.218051 0)
(-0.0492694 0.194605 0)
(-0.0510745 0.166642 0)
(-0.0547491 0.133682 0)
(-0.0608175 0.0951969 0)
(-0.0697394 0.0505976 0)
(-0.0818633 -0.000766298 0)
(-0.0973438 -0.0595998 0)
(-0.115997 -0.126545 0)
(-0.137069 -0.20188 0)
(-0.158861 -0.284873 0)
(-0.178236 -0.372535 0)
(-0.190184 -0.457576 0)
(-0.187955 -0.525656 0)
(-0.16453 -0.5533 0)
(-0.116578 -0.510087 0)
(-0.0536683 -0.371267 0)
(-0.0102474 -0.141311 0)
(-0.0012637 0.0564326 0)
(-0.00702204 0.143186 0)
(-0.0164699 0.20425 0)
(-0.0254862 0.243848 0)
(-0.0323058 0.267091 0)
(-0.036345 0.278546 0)
(-0.0375714 0.281778 0)
(-0.0362807 0.279297 0)
(-0.0329398 0.272693 0)
(-0.0280944 0.262833 0)
(-0.0223317 0.250068 0)
(-0.0162589 0.234392 0)
(-0.0104964 0.215588 0)
(-0.00567835 0.193303 0)
(-0.0024425 0.167105 0)
(-0.00143318 0.136502 0)
(-0.00328209 0.100934 0)
(-0.00857435 0.0597551 0)
(-0.0178363 0.0121922 0)
(-0.03149 -0.0426697 0)
(-0.0497459 -0.105857 0)
(-0.0724154 -0.17833 0)
(-0.0985523 -0.260519 0)
(-0.12585 -0.351232 0)
(-0.149824 -0.44548 0)
(-0.163208 -0.530766 0)
(-0.156441 -0.582623 0)
(-0.121139 -0.562935 0)
(-0.0614798 -0.430368 0)
(-0.0131839 -0.172349 0)
(-0.00211467 0.0608083 0)
(-0.0101134 0.1523 0)
(-0.0216495 0.213857 0)
(-0.0309134 0.251313 0)
(-0.0359542 0.271295 0)
(-0.0365626 0.279312 0)
(-0.0331655 0.27942 0)
(-0.0264694 0.274358 0)
(-0.0172641 0.2658 0)
(-0.00632605 0.254642 0)
(0.00558683 0.241241 0)
(0.0177519 0.225599 0)
(0.0294718 0.2075 0)
(0.0400449 0.186596 0)
(0.0487767 0.162455 0)
(0.0549715 0.134575 0)
(0.0579362 0.102389 0)
(0.0569911 0.0652259 0)
(0.0514706 0.0222597 0)
(0.0407382 -0.0275281 0)
(0.0242419 -0.0853826 0)
(0.00162932 -0.152723 0)
(-0.0269716 -0.230917 0)
(-0.0603661 -0.32053 0)
(-0.0952129 -0.419401 0)
(-0.124706 -0.518428 0)
(-0.137643 -0.594836 0)
(-0.120468 -0.605249 0)
(-0.069618 -0.489912 0)
(-0.0172287 -0.208785 0)
(-0.00386595 0.0676745 0)
(-0.0159066 0.164681 0)
(-0.0308971 0.225061 0)
(-0.0406772 0.258031 0)
(-0.0433785 0.272656 0)
(-0.03958 0.275672 0)
(-0.03045 0.271623 0)
(-0.0172663 0.263367 0)
(-0.00121956 0.25255 0)
(0.0166496 0.239997 0)
(0.0354274 0.225997 0)
(0.0542971 0.210516 0)
(0.0725029 0.19331 0)
(0.0893146 0.174016 0)
(0.104016 0.1522 0)
(0.11589 0.127362 0)
(0.124211 0.0989376 0)
(0.128238 0.0662598 0)
(0.127202 0.0285135 0)
(0.120294 -0.0153233 0)
(0.10668 -0.0665545 0)
(0.0855467 -0.126803 0)
(0.0562493 -0.19803 0)
(0.0187618 -0.282227 0)
(-0.0251897 -0.380105 0)
(-0.0703278 -0.487245 0)
(-0.105249 -0.585628 0)
(-0.111961 -0.630924 0)
(-0.0773899 -0.545874 0)
(-0.022799 -0.251511 0)
(-0.00732698 0.0792924 0)
(-0.0260648 0.182431 0)
(-0.045612 0.238537 0)
(-0.0551867 0.26351 0)
(-0.0538179 0.270038 0)
(-0.043586 0.266253 0)
(-0.0267726 0.257018 0)
(-0.00538796 0.245083 0)
(0.018929 0.231869 0)
(0.0448859 0.217993 0)
(0.0714475 0.203587 0)
(0.0977482 0.188513 0)
(0.123023 0.172469 0)
(0.146556 0.155065 0)
(0.167648 0.135859 0)
(0.185593 0.114362 0)
(0.199661 0.0900316 0)
(0.209077 0.0622412 0)
(0.212996 0.0302377 0)
(0.210467 -0.00692119 0)
(0.200444 -0.0504639 0)
(0.181743 -0.101982 0)
(0.153081 -0.163643 0)
(0.113348 -0.238315 0)
(0.0624008 -0.329125 0)
(0.00300586 -0.436833 0)
(-0.0551168 -0.551096 0)
(-0.0913987 -0.632683 0)
(-0.0827233 -0.591916 0)
(-0.0299834 -0.3012 0)
(-0.0138973 0.0995921 0)
(-0.0427843 0.207829 0)
(-0.066113 0.253826 0)
(-0.0719373 0.26568 0)
(-0.0621953 0.260796 0)
(-0.0415293 0.248441 0)
(-0.0137005 0.233301 0)
(0.0184883 0.217598 0)
(0.0530161 0.202243 0)
(0.088448 0.187458 0)
(0.123736 0.173118 0)
(0.158066 0.15892 0)
(0.190749 0.144476 0)
(0.22115 0.129362 0)
(0.248643 0.113133 0)
(0.272579 0.0953239 0)
(0.292257 0.0754417 0)
(0.306903 0.0529342 0)
(0.315632 0.0271562 0)
(0.317388 -0.00269086 0)
(0.310984 -0.0376364 0)
(0.294975 -0.0790792 0)
(0.267618 -0.129046 0)
(0.226952 -0.190629 0)
(0.171154 -0.268463 0)
(0.0999679 -0.367917 0)
(0.0191742 -0.48831 0)
(-0.0514971 -0.602192 0)
(-0.0806502 -0.618529 0)
(-0.0375532 -0.358176 0)
(-0.0254034 0.135149 0)
(-0.0671625 0.241072 0)
(-0.0868991 0.26643 0)
(-0.0787936 0.258484 0)
(-0.0517341 0.239127 0)
(-0.0138703 0.217421 0)
(0.0296649 0.19679 0)
(0.0756506 0.178259 0)
(0.12208 0.161861 0)
(0.167712 0.14725 0)
(0.211753 0.133956 0)
(0.253635 0.121491 0)
(0.292893 0.109378 0)
(0.329083 0.0971702 0)
(0.361733 0.0844418 0)
(0.390315 0.0707806 0)
(0.414213 0.0557706 0)
(0.432707 0.0389683 0)
(0.444927 0.0198722 0)
(0.449798 -0.00213195 0)
(0.446073 -0.0277543 0)
(0.432153 -0.0581045 0)
(0.40605 -0.0948238 0)
(0.365274 -0.140634 0)
(0.306752 -0.200407 0)
(0.227312 -0.282363 0)
(0.127487 -0.395512 0)
(0.020451 -0.53094 0)
(-0.061103 -0.612468 0)
(-0.0408827 -0.421721 0)
(-0.0412851 0.197317 0)
(-0.0901947 0.272743 0)
(-0.0798444 0.259281 0)
(-0.036305 0.226313 0)
(0.0214768 0.193395 0)
(0.0837923 0.165313 0)
(0.146072 0.142564 0)
(0.206122 0.124322 0)
(0.26296 0.10953 0)
(0.316217 0.0972576 0)
(0.365787 0.0867491 0)
(0.411633 0.0773973 0)
(0.453695 0.0687065 0)
(0.491845 0.0602633 0)
(0.525853 0.0517127 0)
(0.555381 0.0427372 0)
(0.579962 0.0330385 0)
(0.598996 0.0223169 0)
(0.611696 0.0102465 0)
(0.617137 -0.00358408 0)
(0.61412 -0.0195576 0)
(0.601036 -0.0383869 0)
(0.575912 -0.0611622 0)
(0.536092 -0.0898047 0)
(0.477854 -0.128171 0)
(0.395902 -0.184435 0)
(0.284931 -0.273864 0)
(0.145856 -0.410567 0)
(-0.0034565 -0.554002 0)
(-0.0254036 -0.477494 0)
(-0.0341187 0.293762 0)
(-0.0478672 0.272638 0)
(0.0537927 0.19956 0)
(0.156861 0.149684 0)
(0.249764 0.114854 0)
(0.331959 0.0899648 0)
(0.404374 0.0723265 0)
(0.4682 0.0597105 0)
(0.524714 0.0504097 0)
(0.575053 0.0432736 0)
(0.620093 0.0375461 0)
(0.660455 0.0327119 0)
(0.696528 0.028403 0)
(0.728508 0.0243457 0)
(0.756415 0.0203273 0)
(0.780118 0.0161731 0)
(0.799334 0.0117303 0)
(0.813648 0.00685937 0)
(0.822415 0.00141389 0)
(0.825019 -0.0046623 0)
(0.820498 -0.011708 0)
(0.807536 -0.0199915 0)
(0.784511 -0.0299736 0)
(0.749106 -0.042583 0)
(0.69772 -0.0598639 0)
(0.624255 -0.0868965 0)
(0.518453 -0.137199 0)
(0.365111 -0.240293 0)
(0.144109 -0.40698 0)
(0.0588599 -0.458305 0)
(0.303221 0.180907 0)
(0.382452 0.144248 0)
(0.560669 0.0910936 0)
(0.686439 0.0589559 0)
(0.769145 0.039336 0)
(0.828805 0.0268593 0)
(0.874774 0.0189639 0)
(0.911413 0.013973 0)
(0.941436 0.0107398 0)
(0.966655 0.00854982 0)
(0.988223 0.00697781 0)
(1.00684 0.0057673 0)
(1.02293 0.00475825 0)
(1.03671 0.00384695 0)
(1.04825 0.00296303 0)
(1.05753 0.00205575 0)
(1.06442 0.00108431 0)
(1.06873 1.81133e-05 0)
(1.07023 -0.00118499 0)
(1.06852 -0.0024216 0)
(1.06308 -0.00389611 0)
(1.05344 -0.00564521 0)
(1.03881 -0.00774234 0)
(1.018 -0.0103939 0)
(0.988954 -0.014098 0)
(0.947555 -0.0201977 0)
(0.884002 -0.0325846 0)
(0.776364 -0.0637589 0)
(0.544825 -0.139469 0)
(0.382491 -0.201738 0)
)
;

boundaryField
{
    movingWall
    {
        type            fixedValue;
        value           uniform (1.2 0 0);
    }
    fixedWalls
    {
        type            noSlip;
    }
    frontAndBack
    {
        type            empty;
    }
}


// ************************************************************************* //
