/*--------------------------------*- C++ -*----------------------------------*\
  =========                 |
  \\      /  F ield         | OpenFOAM: The Open Source CFD Toolbox
   \\    /   O peration     | Website:  https://openfoam.org
    \\  /    A nd           | Version:  7
     \\/     M anipulation  |
\*---------------------------------------------------------------------------*/
FoamFile
{
    version     2.0;
    format      ascii;
    class       volScalarField;
    location    "7.7";
    object      p;
}
// * * * * * * * * * * * * * * * * * * * * * * * * * * * * * * * * * * * * * //

dimensions      [0 2 -2 0 0 0 0];

internalField   nonuniform List<scalar> 
900
(
-1.89838e-07
-0.000345251
-0.000907789
-0.00151067
-0.00204703
-0.00245335
-0.00269694
-0.00276205
-0.00263945
-0.00232179
-0.00180327
-0.00108199
-0.000163702
0.000933891
0.0021776
0.00351669
0.0048831
0.00619482
0.00736241
0.00829839
0.00892855
0.00920361
0.00910894
0.00867064
0.00795673
0.00707135
0.0061438
0.00533188
0.0047929
0.00465326
0.000340247
-1.70157e-05
-0.000446925
-0.00088971
-0.00128162
-0.001577
-0.0017502
-0.00178625
-0.00167467
-0.00140698
-0.00097687
-0.000381914
0.000373539
0.00127517
0.00229573
0.00339334
0.00451364
0.00558864
0.00654531
0.00731256
0.00783065
0.00806102
0.00799418
0.00765415
0.00709827
0.00641229
0.00570028
0.00506529
0.004639
0.00451131
0.000923638
0.000397302
-4.71466e-05
-0.000444057
-0.00077986
-0.00102724
-0.00117135
-0.00120307
-0.00111393
-0.000895277
-0.000539159
-4.03803e-05
0.000600596
0.00137438
0.0022598
0.00322249
0.00421339
0.00517192
0.00603083
0.00672338
0.00719273
0.00740148
0.00733957
0.00702841
0.00651999
0.00589101
0.00523281
0.00463899
0.00420321
0.00398906
0.00157365
0.000818769
0.000295975
-0.000112071
-0.00043861
-0.000674337
-0.000816798
-0.0008647
-0.000812792
-0.000652227
-0.000372418
3.62688e-05
0.000579094
0.00125316
0.00204391
0.00292264
0.00384491
0.00475269
0.00557881
0.00625431
0.00671826
0.00692823
0.00686908
0.00655774
0.00604246
0.00539607
0.00470579
0.0040615
0.00353472
0.00316422
0.00214924
0.00114854
0.00052449
7.94551e-05
-0.000263744
-0.000512356
-0.000675912
-0.000760726
-0.000764388
-0.000677181
-0.000484839
-0.000171921
0.000274057
0.000858044
0.00157296
0.00239602
0.00328708
0.00418852
0.00503021
0.00573679
0.00623823
0.00648178
0.00644244
0.00612944
0.00558631
0.00488407
0.00411111
0.00336133
0.00269695
0.00211453
0.00253083
0.00128693
0.000552936
5.50461e-05
-0.000324754
-0.000608578
-0.000816616
-0.000961637
-0.00104304
-0.00104915
-0.000960799
-0.000755342
-0.000411538
8.49751e-05
0.000736021
0.00152581
0.00241875
0.00335693
0.00426537
0.0050588
0.00565318
0.00597939
0.0059964
0.0057005
0.0051276
0.00434732
0.00345359
0.00255194
0.00170272
0.00086985
0.00261419
0.00114223
0.000298611
-0.000261356
-0.000693436
-0.00103316
-0.00130985
-0.00154128
-0.00172734
-0.00185318
-0.00189341
-0.00181668
-0.00159123
-0.00119122
-0.00060376
0.000164475
0.00108489
0.00209964
0.00312844
0.00407354
0.00483192
0.00531104
0.00544555
0.00521086
0.00462951
0.00376795
0.00272884
0.00163719
0.000560238
-0.000565252
0.00230725
0.000630183
-0.000316997
-0.000944024
-0.00144151
-0.00185725
-0.00222834
-0.00257617
-0.00289987
-0.00318029
-0.00338454
-0.00347101
-0.00339537
-0.00311766
-0.0026106
-0.00186819
-0.000906897
0.0002171
0.00141995
0.00259031
0.00360158
0.00432967
0.00467401
0.00457744
0.00403929
0.00311754
0.00192479
0.000613325
-0.000733906
-0.00220484
0.00152828
-0.000325301
-0.0013668
-0.0020641
-0.0026396
-0.00315245
-0.00364644
-0.00414549
-0.00464713
-0.00512702
-0.00554378
-0.00584403
-0.00596858
-0.00586007
-0.00547175
-0.00477722
-0.00378383
-0.00253161
-0.00110565
0.000369728
0.00174089
0.00284349
0.00352813
0.00368864
0.00328542
0.00235714
0.00102406
-0.000527149
-0.00218878
-0.00407288
0.000206929
-0.00178973
-0.00291443
-0.00368491
-0.00435169
-0.00498457
-0.0056333
-0.0063237
-0.00705136
-0.00778645
-0.00847851
-0.00906117
-0.00945809
-0.00959078
-0.00938799
-0.00879716
-0.00780206
-0.00642351
-0.00473867
-0.00287972
-0.00102787
0.000604445
0.00180343
0.00239219
0.00226862
0.00143283
4.07612e-06
-0.0017915
-0.00381201
-0.00619403
-0.00171278
-0.00381478
-0.0050103
-0.00585697
-0.00662913
-0.00740656
-0.00824461
-0.00917097
-0.0101796
-0.0112354
-0.0122792
-0.0132307
-0.0139946
-0.0144675
-0.0145482
-0.0141504
-0.0132205
-0.0117507
-0.0097976
-0.00749102
-0.00503521
-0.00269493
-0.000763746
0.000484537
0.000852424
0.000270099
-0.00116346
-0.0031828
-0.00560262
-0.0085845
-0.00426874
-0.00643488
-0.00768777
-0.00861334
-0.00950475
-0.0104513
-0.0115138
-0.0127225
-0.0140706
-0.0155192
-0.0170007
-0.0184216
-0.0196663
-0.0206036
-0.0210965
-0.0210163
-0.0202611
-0.0187799
-0.0165909
-0.0138059
-0.01064
-0.00740729
-0.00449202
-0.00229249
-0.00114338
-0.00123115
-0.00251301
-0.00469532
-0.00754278
-0.0112417
-0.00747721
-0.00966424
-0.0109599
-0.0119655
-0.0129876
-0.0141245
-0.0154432
-0.0169775
-0.0187215
-0.0206342
-0.0226418
-0.0246385
-0.0264885
-0.028031
-0.0290891
-0.0294836
-0.0290531
-0.0276918
-0.0253551
-0.0221151
-0.018177
-0.0138898
-0.00972888
-0.00623958
-0.00394052
-0.00319789
-0.00408413
-0.00630833
-0.0095872
-0.0141314
-0.0113302
-0.0134951
-0.0148173
-0.0159004
-0.0170585
-0.018399
-0.0199962
-0.0218888
-0.0240743
-0.0265125
-0.0291256
-0.0317977
-0.0343742
-0.0366647
-0.0384505
-0.0394985
-0.0395836
-0.0385116
-0.0361744
-0.032574
-0.0278743
-0.0224307
-0.0167933
-0.0116623
-0.00778267
-0.00577572
-0.00591576
-0.0079767
-0.011649
-0.0171707
-0.0157944
-0.0178975
-0.0192284
-0.0203798
-0.0216683
-0.0232113
-0.0250916
-0.027356
-0.0300079
-0.0330107
-0.0362858
-0.0397101
-0.0431128
-0.046276
-0.0489398
-0.0508155
-0.0516059
-0.0510345
-0.0488993
-0.0451087
-0.0397515
-0.0331479
-0.0258848
-0.0188002
-0.0128891
-0.00910333
-0.00803143
-0.00961612
-0.0135804
-0.0202049
-0.0208135
-0.0228225
-0.0241419
-0.025342
-0.0267387
-0.0284606
-0.030603
-0.0332232
-0.0363346
-0.0399069
-0.0438641
-0.0480789
-0.0523675
-0.0564879
-0.0601427
-0.0629902
-0.0646629
-0.0647957
-0.0630922
-0.0593424
-0.053526
-0.0458802
-0.0369708
-0.027725
-0.0193763
-0.0132619
-0.010409
-0.0110798
-0.0151463
-0.0229774
-0.0263118
-0.0282075
-0.0294924
-0.0307072
-0.0321657
-0.0340128
-0.0363608
-0.039283
-0.0428057
-0.0469087
-0.0515209
-0.0565136
-0.0616932
-0.0667973
-0.0714961
-0.075401
-0.0780806
-0.0790852
-0.0780316
-0.0745752
-0.0685643
-0.0601077
-0.0496827
-0.0382266
-0.0271539
-0.0181965
-0.0129298
-0.0121232
-0.01599
-0.0250905
-0.0322029
-0.0339858
-0.0352097
-0.0363844
-0.0378269
-0.0397062
-0.0421605
-0.0452854
-0.049125
-0.0536715
-0.0588606
-0.0645633
-0.0705785
-0.0766268
-0.0823509
-0.0873227
-0.0910613
-0.093061
-0.0927907
-0.0898431
-0.0839126
-0.0749444
-0.0632634
-0.0497233
-0.0358171
-0.0236172
-0.0153055
-0.0123532
-0.0155876
-0.0259562
-0.0384015
-0.0401003
-0.0412308
-0.0422825
-0.0435895
-0.0453605
-0.0477726
-0.050953
-0.0549685
-0.0598255
-0.0654665
-0.071762
-0.0785029
-0.0853943
-0.0920554
-0.0980255
-0.102779
-0.10575
-0.106351
-0.104052
-0.0984186
-0.0892256
-0.0766052
-0.0612396
-0.0445741
-0.0289016
-0.016988
-0.0111604
-0.0131912
-0.0247343
-0.0448397
-0.046522
-0.0475152
-0.0483199
-0.0493186
-0.0507846
-0.0529539
-0.0559968
-0.0600077
-0.0650074
-0.0709425
-0.0776797
-0.0849991
-0.0925891
-0.100047
-0.106882
-0.112534
-0.116388
-0.117806
-0.116165
-0.110919
-0.101684
-0.088387
-0.0714823
-0.0522476
-0.0330353
-0.017081
-0.00763639
-0.00775749
-0.0202489
-0.0514929
-0.0532759
-0.0540632
-0.0544352
-0.0548827
-0.0557835
-0.0574584
-0.060134
-0.0639345
-0.0688921
-0.0749516
-0.0819687
-0.089707
-0.0978334
-0.105919
-0.11345
-0.119828
-0.124398
-0.126475
-0.125367
-0.120435
-0.111159
-0.097279
-0.0790066
-0.0573712
-0.0346213
-0.0142794
-0.000483569
0.00214225
-0.0108697
-0.0584236
-0.0604802
-0.0609369
-0.0605933
-0.0601551
-0.0601611
-0.0610465
-0.0631036
-0.0664838
-0.0712211
-0.0772494
-0.0843996
-0.0924106
-0.100919
-0.109467
-0.117518
-0.124426
-0.129491
-0.131988
-0.131168
-0.126307
-0.116775
-0.102152
-0.0824309
-0.0583657
-0.0319768
-0.00686786
0.012063
0.018432
0.00567165
-0.0658685
-0.068408
-0.0682872
-0.0667886
-0.0650104
-0.0637212
-0.0634934
-0.0646836
-0.067456
-0.0718268
-0.0777103
-0.0848841
-0.0930592
-0.101833
-0.110707
-0.119094
-0.126321
-0.131647
-0.134284
-0.133419
-0.128246
-0.118038
-0.102234
-0.0806464
-0.0537568
-0.0233118
0.00719593
0.0322736
0.0436784
0.0325847
-0.0744245
-0.0775955
-0.0763875
-0.0730442
-0.0693194
-0.066271
-0.0646038
-0.0647119
-0.0667412
-0.070664
-0.0763279
-0.083473
-0.0917472
-0.1007
-0.109787
-0.118372
-0.125735
-0.13108
-0.133552
-0.132261
-0.126304
-0.114841
-0.0971866
-0.0729876
-0.0424231
-0.00702176
0.0300537
0.0628814
0.0813068
0.0745088
-0.0854729
-0.0890267
-0.0856674
-0.0794037
-0.0729455
-0.0676305
-0.0642298
-0.0631071
-0.0643325
-0.0677896
-0.0732401
-0.0803504
-0.0887002
-0.0977808
-0.106995
-0.115654
-0.122981
-0.128116
-0.130127
-0.128028
-0.120791
-0.107446
-0.0871379
-0.0593055
-0.0239531
0.01786
0.0634507
0.106844
0.135777
0.13802
-0.102171
-0.104471
-0.096719
-0.0858912
-0.0757211
-0.0676224
-0.0622642
-0.0598575
-0.0603103
-0.0633639
-0.0686618
-0.0757754
-0.0842074
-0.0933858
-0.102657
-0.111277
-0.118413
-0.123136
-0.12443
-0.121204
-0.112266
-0.096493
-0.0727995
-0.040342
0.00122383
0.0513343
0.107986
0.166551
0.212126
0.231566
-0.131666
-0.127005
-0.110338
-0.0925075
-0.077427
-0.0660411
-0.0586049
-0.0549818
-0.0548016
-0.0575959
-0.0628571
-0.0700476
-0.0785893
-0.0878482
-0.097118
-0.105607
-0.112429
-0.116593
-0.117006
-0.112469
-0.101637
-0.0831658
-0.0556791
-0.0179107
0.031087
0.0916414
0.163143
0.242011
0.314218
0.36679
-0.190079
-0.160176
-0.127037
-0.0988494
-0.077413
-0.0623568
-0.0529646
-0.0484224
-0.0479206
-0.0507161
-0.0561308
-0.0635193
-0.0722334
-0.0815907
-0.0908482
-0.0991805
-0.105664
-0.10926
-0.108811
-0.103021
-0.0905211
-0.0696436
-0.038678
0.00421238
0.0609614
0.133497
0.223648
0.330727
0.444198
0.570488
-0.321245
-0.199956
-0.138569
-0.0973922
-0.0698404
-0.0523529
-0.0424416
-0.038212
-0.0383122
-0.0417674
-0.0478007
-0.0557212
-0.0648607
-0.0745299
-0.0839837
-0.0923964
-0.0988421
-0.102275
-0.101514
-0.0951136
-0.0818266
-0.0597786
-0.0269683
0.0190043
0.081261
0.164168
0.274199
0.419873
0.608203
0.897723
-0.648612
-0.236435
-0.107142
-0.0624251
-0.0379829
-0.0243335
-0.0185734
-0.0180597
-0.0211318
-0.026893
-0.0347296
-0.044088
-0.0544038
-0.0650672
-0.0753954
-0.0846102
-0.0918228
-0.0960227
-0.0960906
-0.0908667
-0.0785223
-0.0575157
-0.0258387
0.0191147
0.0810458
0.166181
0.286963
0.471726
0.777866
1.37172
)
;

boundaryField
{
    movingWall
    {
        type            zeroGradient;
    }
    fixedWalls
    {
        type            zeroGradient;
    }
    frontAndBack
    {
        type            empty;
    }
}


// ************************************************************************* //
