/*--------------------------------*- C++ -*----------------------------------*\
  =========                 |
  \\      /  F ield         | OpenFOAM: The Open Source CFD Toolbox
   \\    /   O peration     | Website:  https://openfoam.org
    \\  /    A nd           | Version:  7
     \\/     M anipulation  |
\*---------------------------------------------------------------------------*/
FoamFile
{
    version     2.0;
    format      ascii;
    class       volVectorField;
    location    "7.7";
    object      U;
}
// * * * * * * * * * * * * * * * * * * * * * * * * * * * * * * * * * * * * * //

dimensions      [0 1 -1 0 0 0 0];

internalField   nonuniform List<vector> 
900
(
(0.000159115 -0.000158016 0)
(0.000278677 -6.58591e-05 0)
(-4.45268e-05 9.93558e-05 0)
(-0.000816473 0.000244508 0)
(-0.00194557 0.000349238 0)
(-0.00332926 0.000416362 0)
(-0.00487486 0.000455072 0)
(-0.00650641 0.000473393 0)
(-0.00816128 0.00047585 0)
(-0.0097829 0.000463576 0)
(-0.0113143 0.000435238 0)
(-0.012694 0.000388227 0)
(-0.0138554 0.000319867 0)
(-0.0147286 0.000228581 0)
(-0.0152458 0.000114931 0)
(-0.0153481 -1.76466e-05 0)
(-0.0149942 -0.000162821 0)
(-0.0141693 -0.000310345 0)
(-0.012893 -0.000447556 0)
(-0.0112235 -0.000560461 0)
(-0.00925836 -0.000635505 0)
(-0.00712983 -0.000661694 0)
(-0.00499397 -0.000632596 0)
(-0.00301547 -0.000547819 0)
(-0.0013487 -0.000413771 0)
(-0.000118089 -0.000244374 0)
(0.000595904 -6.08625e-05 0)
(0.000781405 0.000111328 0)
(0.000541405 0.000216549 0)
(0.000168371 0.000167186 0)
(7.40745e-05 -0.000285797 0)
(-0.000306076 0.000303747 0)
(-0.00172243 0.0011256 0)
(-0.00408661 0.00186338 0)
(-0.00723544 0.00242955 0)
(-0.0109698 0.00281763 0)
(-0.0150884 0.00305027 0)
(-0.0194078 0.00315239 0)
(-0.0237622 0.00313975 0)
(-0.0279945 0.0030168 0)
(-0.031947 0.0027794 0)
(-0.0354568 0.00241948 0)
(-0.0383559 0.00193047 0)
(-0.0404778 0.00131265 0)
(-0.0416689 0.000577576 0)
(-0.041805 -0.000248873 0)
(-0.0408073 -0.00112467 0)
(-0.0386605 -0.00199313 0)
(-0.0354272 -0.0027867 0)
(-0.0312552 -0.00343333 0)
(-0.0263759 -0.00386527 0)
(-0.021093 -0.00402906 0)
(-0.01576 -0.00389499 0)
(-0.0107468 -0.00346451 0)
(-0.00640059 -0.00277431 0)
(-0.00300161 -0.00189799 0)
(-0.000721056 -0.000946001 0)
(0.000409569 -6.44904e-05 0)
(0.000571125 0.000536055 0)
(0.000224708 0.000538769 0)
(-0.000106689 4.21749e-05 0)
(-0.00122964 0.00174176 0)
(-0.00397711 0.003751 0)
(-0.00802667 0.0055417 0)
(-0.013126 0.00694124 0)
(-0.0190123 0.00792009 0)
(-0.0254117 0.00850822 0)
(-0.0320643 0.0087468 0)
(-0.0387258 0.00866366 0)
(-0.0451591 0.00826698 0)
(-0.0511257 0.00754966 0)
(-0.0563827 0.00649925 0)
(-0.0606855 0.00510985 0)
(-0.0637987 0.00339382 0)
(-0.0655113 0.00139137 0)
(-0.0656579 -0.000823036 0)
(-0.0641398 -0.00313813 0)
(-0.0609472 -0.00541085 0)
(-0.0561752 -0.00747485 0)
(-0.0500328 -0.00915593 0)
(-0.0428408 -0.0102922 0)
(-0.0350174 -0.0107566 0)
(-0.0270491 -0.0104793 0)
(-0.0194486 -0.00946533 0)
(-0.0127023 -0.00780505 0)
(-0.00721165 -0.00567732 0)
(-0.00323599 -0.00334782 0)
(-0.000843269 -0.00116784 0)
(0.00014233 0.000425379 0)
(0.000161239 0.000830763 0)
(-0.000297596 0.000911782 0)
(-0.00222218 0.00434082 0)
(-0.00638911 0.00792889 0)
(-0.0121664 0.0110443 0)
(-0.0191794 0.013467 0)
(-0.0271011 0.0151582 0)
(-0.035599 0.0161587 0)
(-0.0443561 0.0165245 0)
(-0.0530704 0.0162931 0)
(-0.0614452 0.0154746 0)
(-0.0691808 0.014059 0)
(-0.0759739 0.0120317 0)
(-0.0815227 0.00939313 0)
(-0.08554 0.00617658 0)
(-0.0877717 0.00246359 0)
(-0.0880196 -0.00160688 0)
(-0.0861656 -0.00583703 0)
(-0.0821954 -0.00997608 0)
(-0.0762171 -0.0137364 0)
(-0.068472 -0.0168183 0)
(-0.0593353 -0.0189429 0)
(-0.0493026 -0.0198892 0)
(-0.0389592 -0.0195316 0)
(-0.0289338 -0.0178717 0)
(-0.0198374 -0.0150582 0)
(-0.0121926 -0.0113929 0)
(-0.00636274 -0.00732484 0)
(-0.00248765 -0.00343578 0)
(-0.000455079 -0.000424871 0)
(6.51037e-05 0.000836744 0)
(-0.000477409 0.00231947 0)
(-0.00319395 0.0081254 0)
(-0.00878085 0.0136721 0)
(-0.0162688 0.0183346 0)
(-0.0251417 0.0219066 0)
(-0.0350029 0.024372 0)
(-0.0454668 0.0257957 0)
(-0.0561718 0.026252 0)
(-0.0667745 0.0257873 0)
(-0.0769359 0.0244123 0)
(-0.086313 0.0221134 0)
(-0.0945585 0.0188753 0)
(-0.101327 0.0147079 0)
(-0.106291 0.00967066 0)
(-0.109158 0.0038929 0)
(-0.109693 -0.00241455 0)
(-0.10775 -0.00895762 0)
(-0.103291 -0.0153665 0)
(-0.0964092 -0.0212181 0)
(-0.0873492 -0.0260695 0)
(-0.0765094 -0.029503 0)
(-0.0644356 -0.0311796 0)
(-0.0517942 -0.0308947 0)
(-0.0393246 -0.0286278 0)
(-0.0277704 -0.0245764 0)
(-0.0177979 -0.0191684 0)
(-0.00990739 -0.0130502 0)
(-0.00434996 -0.00705489 0)
(-0.00111258 -0.00215879 0)
(-2.87248e-05 0.000502216 0)
(-0.000641477 0.00423787 0)
(-0.00410858 0.0130655 0)
(-0.0110597 0.0209533 0)
(-0.0201915 0.0273752 0)
(-0.0308419 0.0322031 0)
(-0.0425425 0.0354832 0)
(-0.0548589 0.0373251 0)
(-0.0673945 0.0378306 0)
(-0.0797776 0.0370571 0)
(-0.0916418 0.0350153 0)
(-0.102616 0.0316868 0)
(-0.112322 0.0270549 0)
(-0.120383 0.0211385 0)
(-0.126435 0.0140228 0)
(-0.130144 0.00588449 0)
(-0.131236 -0.00299362 0)
(-0.129514 -0.0122195 0)
(-0.124892 -0.0212995 0)
(-0.11742 -0.0296645 0)
(-0.107312 -0.0367105 0)
(-0.0949582 -0.0418549 0)
(-0.08093 -0.0446074 0)
(-0.0659635 -0.044648 0)
(-0.0509131 -0.0419001 0)
(-0.0366779 -0.0365867 0)
(-0.0241051 -0.0292538 0)
(-0.013878 -0.020755 0)
(-0.00640472 -0.012198 0)
(-0.0018094 -0.00486292 0)
(-0.00011609 -0.000178765 0)
(-0.000789503 0.00662894 0)
(-0.00494826 0.0190918 0)
(-0.0131686 0.0296899 0)
(-0.0238361 0.0380747 0)
(-0.0361492 0.0442568 0)
(-0.0495713 0.0483862 0)
(-0.0636246 0.0506426 0)
(-0.0778864 0.051167 0)
(-0.0919682 0.0500332 0)
(-0.105489 0.0472518 0)
(-0.118064 0.0427983 0)
(-0.129295 0.0366511 0)
(-0.13878 0.028833 0)
(-0.146124 0.0194488 0)
(-0.15095 0.0087148 0)
(-0.152928 -0.00302215 0)
(-0.151796 -0.0152783 0)
(-0.14739 -0.0274376 0)
(-0.139686 -0.038779 0)
(-0.128827 -0.0485192 0)
(-0.11516 -0.0558795 0)
(-0.0992564 -0.0601745 0)
(-0.0819051 -0.0609156 0)
(-0.0640806 -0.057918 0)
(-0.0468648 -0.0513879 0)
(-0.0313336 -0.0419686 0)
(-0.0184124 -0.0307276 0)
(-0.00872361 -0.0190784 0)
(-0.00257258 -0.00865187 0)
(-0.00020225 -0.00122296 0)
(-0.000920717 0.00944775 0)
(-0.00569834 0.0261093 0)
(-0.0150615 0.0397623 0)
(-0.0271197 0.0503027 0)
(-0.0409463 0.0579352 0)
(-0.0559442 0.0629537 0)
(-0.0716 0.0656331 0)
(-0.087474 0.0661689 0)
(-0.103171 0.0646573 0)
(-0.118309 0.0611107 0)
(-0.132497 0.0554952 0)
(-0.145332 0.0477788 0)
(-0.156395 0.0379795 0)
(-0.16526 0.0262092 0)
(-0.171506 0.0127089 0)
(-0.174739 -0.00212635 0)
(-0.17461 -0.0177327 0)
(-0.170857 -0.0333841 0)
(-0.163341 -0.0482057 0)
(-0.152101 -0.0612194 0)
(-0.137397 -0.071416 0)
(-0.119758 -0.077861 0)
(-0.100002 -0.0798279 0)
(-0.0792174 -0.076947 0)
(-0.0586912 -0.0693412 0)
(-0.0397799 -0.0577112 0)
(-0.0237234 -0.0433376 0)
(-0.0114324 -0.0279797 0)
(-0.00345383 -0.0136885 0)
(-0.000297185 -0.00267071 0)
(-0.00103275 0.0126419 0)
(-0.00634173 0.0340008 0)
(-0.016692 0.0510189 0)
(-0.0299601 0.0638947 0)
(-0.0451141 0.0730738 0)
(-0.0615067 0.0790306 0)
(-0.0785981 0.0821604 0)
(-0.0959403 0.0827282 0)
(-0.113142 0.0808603 0)
(-0.129828 0.0765727 0)
(-0.145618 0.0698197 0)
(-0.16011 0.0605508 0)
(-0.172878 0.0487674 0)
(-0.183473 0.034572 0)
(-0.19143 0.0182096 0)
(-0.196284 0.000100411 0)
(-0.197594 -0.0191359 0)
(-0.194974 -0.038679 0)
(-0.188147 -0.0575084 0)
(-0.176998 -0.0744419 0)
(-0.161655 -0.088208 0)
(-0.142552 -0.0975637 0)
(-0.120488 -0.101459 0)
(-0.0966376 -0.0992369 0)
(-0.0725006 -0.0908371 0)
(-0.0497615 -0.0769469 0)
(-0.0300574 -0.0590428 0)
(-0.0146837 -0.0392741 0)
(-0.00451672 -0.0202049 0)
(-0.000412825 -0.00459436 0)
(-0.00112201 0.0161492 0)
(-0.00685866 0.0426252 0)
(-0.0180109 0.0632763 0)
(-0.0322724 0.0786491 0)
(-0.048528 0.0894697 0)
(-0.0660922 0.0964234 0)
(-0.0844076 0.100049 0)
(-0.103026 0.100697 0)
(-0.121568 0.0985313 0)
(-0.139678 0.0935748 0)
(-0.156992 0.0857672 0)
(-0.173124 0.0750319 0)
(-0.187652 0.0613396 0)
(-0.200114 0.0447642 0)
(-0.21001 0.0255304 0)
(-0.216809 0.00405475 0)
(-0.219974 -0.0190214 0)
(-0.218991 -0.0428073 0)
(-0.213414 -0.0661569 0)
(-0.202947 -0.0876881 0)
(-0.187524 -0.105846 0)
(-0.16742 -0.119021 0)
(-0.143339 -0.125746 0)
(-0.116486 -0.124946 0)
(-0.0885477 -0.116237 0)
(-0.0615661 -0.100174 0)
(-0.0376634 -0.0783785 0)
(-0.0186411 -0.0534272 0)
(-0.00583056 -0.0285121 0)
(-0.000561974 -0.00710251 0)
(-0.00118438 0.0198962 0)
(-0.00722872 0.0518173 0)
(-0.0189694 0.0763183 0)
(-0.0339726 0.0943265 0)
(-0.0510634 0.106877 0)
(-0.0695291 0.114891 0)
(-0.0888024 0.119071 0)
(-0.108442 0.119867 0)
(-0.128086 0.117491 0)
(-0.147407 0.111976 0)
(-0.166071 0.103247 0)
(-0.183717 0.091193 0)
(-0.199941 0.0757419 0)
(-0.214285 0.0569187 0)
(-0.226229 0.0349015 0)
(-0.235197 0.0100708 0)
(-0.240564 -0.0169454 0)
(-0.241691 -0.045226 0)
(-0.237964 -0.0735353 0)
(-0.228871 -0.100314 0)
(-0.214105 -0.123722 0)
(-0.193698 -0.141745 0)
(-0.168165 -0.152401 0)
(-0.138637 -0.154049 0)
(-0.106916 -0.14579 0)
(-0.0753975 -0.127866 0)
(-0.0467631 -0.101928 0)
(-0.0234662 -0.0709903 0)
(-0.00746755 -0.0390019 0)
(-0.000758306 -0.0103418 0)
(-0.0012161 0.0237984 0)
(-0.00743396 0.061389 0)
(-0.0195249 0.0898982 0)
(-0.0349864 0.11065 0)
(-0.0526065 0.125005 0)
(-0.0716548 0.134139 0)
(-0.0915597 0.138934 0)
(-0.11189 0.139952 0)
(-0.13231 0.137468 0)
(-0.152524 0.131529 0)
(-0.172237 0.122046 0)
(-0.191127 0.108871 0)
(-0.208826 0.0918768 0)
(-0.224899 0.0710234 0)
(-0.238832 0.046418 0)
(-0.25003 0.0183723 0)
(-0.257812 -0.0125382 0)
(-0.261438 -0.0454119 0)
(-0.260137 -0.078976 0)
(-0.253172 -0.111543 0)
(-0.239955 -0.141017 0)
(-0.220196 -0.164968 0)
(-0.194101 -0.180827 0)
(-0.162584 -0.186232 0)
(-0.127429 -0.179532 0)
(-0.0913117 -0.160388 0)
(-0.0575175 -0.130273 0)
(-0.0293073 -0.0925791 0)
(-0.00950106 -0.052143 0)
(-0.00101678 -0.0144981 0)
(-0.00121468 0.0277628 0)
(-0.00746268 0.0711344 0)
(-0.0196491 0.103744 0)
(-0.0352611 0.12731 0)
(-0.0530709 0.143521 0)
(-0.0723369 0.153816 0)
(-0.0924868 0.159274 0)
(-0.113102 0.160583 0)
(-0.133874 0.158088 0)
(-0.154544 0.151863 0)
(-0.174865 0.141807 0)
(-0.194569 0.127737 0)
(-0.213338 0.109466 0)
(-0.230787 0.0868771 0)
(-0.24644 0.0599869 0)
(-0.259721 0.0290113 0)
(-0.269937 -0.00556774 0)
(-0.276289 -0.0429286 0)
(-0.277887 -0.0818228 0)
(-0.273789 -0.120512 0)
(-0.263109 -0.156713 0)
(-0.245169 -0.187622 0)
(-0.219743 -0.210053 0)
(-0.187346 -0.220784 0)
(-0.149547 -0.217152 0)
(-0.109142 -0.197878 0)
(-0.0699844 -0.163907 0)
(-0.0362834 -0.118835 0)
(-0.0120035 -0.0684708 0)
(-0.00135417 -0.0197969 0)
(-0.00117975 0.0316916 0)
(-0.00731361 0.0808382 0)
(-0.0193365 0.11757 0)
(-0.0347798 0.143972 0)
(-0.0524165 0.162054 0)
(-0.071498 0.173524 0)
(-0.091452 0.179662 0)
(-0.111874 0.181301 0)
(-0.13248 0.178867 0)
(-0.153056 0.172474 0)
(-0.173409 0.162019 0)
(-0.193333 0.147287 0)
(-0.212582 0.128034 0)
(-0.230845 0.104062 0)
(-0.247721 0.0752881 0)
(-0.262695 0.0418103 0)
(-0.275123 0.00398075 0)
(-0.284204 -0.0375101 0)
(-0.288983 -0.0815196 0)
(-0.28837 -0.126359 0)
(-0.281199 -0.169672 0)
(-0.266377 -0.208378 0)
(-0.243139 -0.238714 0)
(-0.211415 -0.256522 0)
(-0.17229 -0.257874 0)
(-0.128417 -0.240112 0)
(-0.0840646 -0.203134 0)
(-0.0444625 -0.150363 0)
(-0.0150427 -0.0885673 0)
(-0.0017896 -0.0265032 0)
(-0.00111399 0.0354901 0)
(-0.00700008 0.0902901 0)
(-0.0186147 0.131088 0)
(-0.0335761 0.160291 0)
(-0.05067 0.180212 0)
(-0.0691414 0.19282 0)
(-0.0884183 0.199611 0)
(-0.108108 0.201571 0)
(-0.127956 0.199225 0)
(-0.147791 0.19274 0)
(-0.16748 0.182027 0)
(-0.186893 0.166848 0)
(-0.205871 0.146911 0)
(-0.224201 0.121945 0)
(-0.241589 0.091765 0)
(-0.257631 0.056341 0)
(-0.271781 0.0158703 0)
(-0.28331 -0.0291311 0)
(-0.291285 -0.0777105 0)
(-0.29454 -0.128344 0)
(-0.291697 -0.178753 0)
(-0.28127 -0.225739 0)
(-0.261901 -0.265098 0)
(-0.232768 -0.29176 0)
(-0.194184 -0.300345 0)
(-0.148286 -0.286347 0)
(-0.0994406 -0.247918 0)
(-0.0538332 -0.187646 0)
(-0.0186765 -0.11303 0)
(-0.0023449 -0.0349191 0)
(-0.00102387 0.039075 0)
(-0.00655419 0.0993021 0)
(-0.0175529 0.144031 0)
(-0.0317492 0.175934 0)
(-0.0479444 0.197594 0)
(-0.0653762 0.211242 0)
(-0.0834726 0.218592 0)
(-0.101855 0.220798 0)
(-0.120298 0.218506 0)
(-0.138679 0.211948 0)
(-0.156931 0.201065 0)
(-0.175006 0.185616 0)
(-0.192847 0.165276 0)
(-0.210359 0.139712 0)
(-0.227384 0.10865 0)
(-0.243665 0.0719346 0)
(-0.258809 0.0295978 0)
(-0.272224 -0.0180568 0)
(-0.283086 -0.0703327 0)
(-0.29026 -0.125985 0)
(-0.292258 -0.182979 0)
(-0.287291 -0.23822 0)
(-0.273431 -0.287295 0)
(-0.249007 -0.324381 0)
(-0.213295 -0.342604 0)
(-0.167476 -0.335196 0)
(-0.115517 -0.297725 0)
(-0.0642705 -0.230928 0)
(-0.0229459 -0.142425 0)
(-0.00304508 -0.0453786 0)
(-0.000920517 0.0423858 0)
(-0.00603114 0.107731 0)
(-0.0162725 0.156181 0)
(-0.0294776 0.190599 0)
(-0.0444565 0.213816 0)
(-0.0604365 0.22832 0)
(-0.076849 0.236055 0)
(-0.0933342 0.238359 0)
(-0.109704 0.236009 0)
(-0.12589 0.229328 0)
(-0.141898 0.218304 0)
(-0.15777 0.202712 0)
(-0.173562 0.182212 0)
(-0.189311 0.156431 0)
(-0.205008 0.125022 0)
(-0.220573 0.0877217 0)
(-0.2358 0.0444033 0)
(-0.250293 -0.00485515 0)
(-0.263415 -0.0596782 0)
(-0.27417 -0.119173 0)
(-0.281098 -0.181717 0)
(-0.282253 -0.244568 0)
(-0.275256 -0.303419 0)
(-0.257604 -0.352015 0)
(-0.227358 -0.382149 0)
(-0.18431 -0.38456 0)
(-0.13138 -0.351368 0)
(-0.0755011 -0.280067 0)
(-0.0278681 -0.177223 0)
(-0.00391958 -0.0582406 0)
(-0.000820875 0.045399 0)
(-0.0055147 0.115509 0)
(-0.0149571 0.167393 0)
(-0.0270339 0.204046 0)
(-0.0405414 0.228534 0)
(-0.0546953 0.243609 0)
(-0.0689395 0.251458 0)
(-0.0829478 0.253621 0)
(-0.0965831 0.251028 0)
(-0.109843 0.244105 0)
(-0.122816 0.232907 0)
(-0.135644 0.217244 0)
(-0.148499 0.196783 0)
(-0.161554 0.171131 0)
(-0.174961 0.139892 0)
(-0.188816 0.102715 0)
(-0.203123 0.0593321 0)
(-0.217733 0.00960316 0)
(-0.232233 -0.0464088 0)
(-0.245845 -0.108244 0)
(-0.257307 -0.174821 0)
(-0.2647 -0.243983 0)
(-0.265401 -0.31189 0)
(-0.256228 -0.372315 0)
(-0.234009 -0.416135 0)
(-0.196813 -0.431667 0)
(-0.145796 -0.406889 0)
(-0.0870763 -0.334385 0)
(-0.0334335 -0.217719 0)
(-0.0050055 -0.0738799 0)
(-0.000750085 0.048145 0)
(-0.00512604 0.122672 0)
(-0.0138682 0.177636 0)
(-0.0247995 0.216125 0)
(-0.0366644 0.241463 0)
(-0.0486691 0.256695 0)
(-0.0602918 0.264279 0)
(-0.071267 0.265975 0)
(-0.0815339 0.262878 0)
(-0.0911766 0.255535 0)
(-0.100379 0.244082 0)
(-0.109393 0.228377 0)
(-0.118506 0.208111 0)
(-0.128029 0.182892 0)
(-0.138264 0.152299 0)
(-0.149484 0.115917 0)
(-0.161895 0.073361 0)
(-0.175575 0.0243023 0)
(-0.190384 -0.0314724 0)
(-0.205846 -0.0939657 0)
(-0.220991 -0.162701 0)
(-0.234136 -0.236289 0)
(-0.242686 -0.311706 0)
(-0.24307 -0.383297 0)
(-0.231062 -0.441686 0)
(-0.202877 -0.473249 0)
(-0.157255 -0.461534 0)
(-0.0983574 -0.392512 0)
(-0.0396108 -0.26394 0)
(-0.00635565 -0.0926838 0)
(-0.00074694 0.0507328 0)
(-0.00504046 0.129409 0)
(-0.0133683 0.187026 0)
(-0.0232861 0.226798 0)
(-0.0334304 0.252392 0)
(-0.0430142 0.267213 0)
(-0.0515904 0.274029 0)
(-0.0590005 0.274839 0)
(-0.0652993 0.270918 0)
(-0.0706868 0.262935 0)
(-0.0754613 0.251114 0)
(-0.0799876 0.23537 0)
(-0.0846742 0.215428 0)
(-0.089955 0.190911 0)
(-0.0962711 0.161388 0)
(-0.10405 0.126408 0)
(-0.113672 0.0855003 0)
(-0.125427 0.0381865 0)
(-0.139435 -0.0159977 0)
(-0.155546 -0.0774501 0)
(-0.173167 -0.146297 0)
(-0.191022 -0.222002 0)
(-0.206838 -0.302629 0)
(-0.217046 -0.383641 0)
(-0.216751 -0.456255 0)
(-0.200456 -0.50583 0)
(-0.164056 -0.511826 0)
(-0.108513 -0.452258 0)
(-0.0463614 -0.315532 0)
(-0.00805496 -0.115061 0)
(-0.000876152 0.0533894 0)
(-0.00551976 0.136113 0)
(-0.0139605 0.195866 0)
(-0.0231624 0.236154 0)
(-0.0315893 0.261178 0)
(-0.0385053 0.274827 0)
(-0.0436115 0.280235 0)
(-0.0469267 0.279661 0)
(-0.0486771 0.27455 0)
(-0.0492153 0.265691 0)
(-0.0489745 0.253385 0)
(-0.0484404 0.237601 0)
(-0.0481337 0.218101 0)
(-0.0485986 0.194526 0)
(-0.0503886 0.166448 0)
(-0.0540564 0.133395 0)
(-0.0601272 0.0948403 0)
(-0.0690581 0.0501955 0)
(-0.0811972 -0.00118886 0)
(-0.0966997 -0.0600216 0)
(-0.115384 -0.126951 0)
(-0.136497 -0.202264 0)
(-0.158342 -0.285239 0)
(-0.177788 -0.372897 0)
(-0.189823 -0.457953 0)
(-0.187694 -0.526067 0)
(-0.164372 -0.553746 0)
(-0.116508 -0.510535 0)
(-0.0536546 -0.371632 0)
(-0.0102489 -0.141472 0)
(-0.00125464 0.0565277 0)
(-0.00697264 0.14346 0)
(-0.0163494 0.204678 0)
(-0.0252836 0.244394 0)
(-0.0320192 0.267712 0)
(-0.0359764 0.279195 0)
(-0.0371258 0.282413 0)
(-0.0357646 0.279882 0)
(-0.0323612 0.273197 0)
(-0.027462 0.263233 0)
(-0.0216562 0.250351 0)
(-0.0155518 0.234549 0)
(-0.00976835 0.215618 0)
(-0.00494006 0.193213 0)
(-0.00170148 0.166909 0)
(-0.000699268 0.136219 0)
(-0.00256705 0.100588 0)
(-0.00788304 0.0593694 0)
(-0.0171708 0.0117916 0)
(-0.0308536 -0.043064 0)
(-0.0491424 -0.106229 0)
(-0.07185 -0.178671 0)
(-0.098033 -0.260829 0)
(-0.125389 -0.351521 0)
(-0.149436 -0.445767 0)
(-0.16291 -0.531075 0)
(-0.156244 -0.582969 0)
(-0.121038 -0.563301 0)
(-0.0614509 -0.430688 0)
(-0.0131824 -0.172502 0)
(-0.00210479 0.0608751 0)
(-0.0100593 0.152511 0)
(-0.0215167 0.214204 0)
(-0.0306884 0.25177 0)
(-0.0356337 0.271826 0)
(-0.0361483 0.279874 0)
(-0.0326632 0.279976 0)
(-0.0258882 0.274872 0)
(-0.0166148 0.266244 0)
(-0.00562046 0.254995 0)
(0.00633354 0.241488 0)
(0.0185241 0.225732 0)
(0.0302561 0.20752 0)
(0.040828 0.186509 0)
(0.0495473 0.162272 0)
(0.0557192 0.134313 0)
(0.0586519 0.102068 0)
(0.0576701 0.0648696 0)
(0.0521116 0.0218912 0)
(0.0413408 -0.0278889 0)
(0.0248066 -0.0857191 0)
(0.00215581 -0.153025 0)
(-0.0264858 -0.23118 0)
(-0.0599286 -0.32076 0)
(-0.0948343 -0.419615 0)
(-0.1244 -0.518648 0)
(-0.137427 -0.595084 0)
(-0.120346 -0.605527 0)
(-0.0695759 -0.490173 0)
(-0.0172238 -0.20892 0)
(-0.00385592 0.0677111 0)
(-0.0158513 0.164825 0)
(-0.0307601 0.22532 0)
(-0.0404429 0.25839 0)
(-0.0430417 0.273087 0)
(-0.0391416 0.276138 0)
(-0.029916 0.272091 0)
(-0.0166471 0.263804 0)
(-0.000528496 0.252931 0)
(0.0173976 0.240302 0)
(0.0362147 0.226212 0)
(0.0551056 0.210634 0)
(0.0733162 0.193329 0)
(0.0901173 0.173942 0)
(0.104794 0.152042 0)
(0.116633 0.127134 0)
(0.124911 0.0986571 0)
(0.12889 0.065947 0)
(0.127805 0.0281884 0)
(0.120849 -0.0156424 0)
(0.107191 -0.0668516 0)
(0.0860162 -0.127067 0)
(0.0566797 -0.198253 0)
(0.0191497 -0.282412 0)
(-0.024848 -0.380261 0)
(-0.070042 -0.487391 0)
(-0.105036 -0.58579 0)
(-0.111832 -0.631116 0)
(-0.0773387 -0.54607 0)
(-0.0227908 -0.251622 0)
(-0.00731814 0.0792991 0)
(-0.026014 0.182508 0)
(-0.0454833 0.238707 0)
(-0.0549629 0.263769 0)
(-0.0534912 0.270364 0)
(-0.0431557 0.266618 0)
(-0.0262439 0.257393 0)
(-0.00477129 0.245439 0)
(0.0196195 0.232185 0)
(0.0456338 0.21825 0)
(0.0722342 0.203773 0)
(0.0985546 0.18862 0)
(0.123831 0.172495 0)
(0.147349 0.155013 0)
(0.168411 0.135735 0)
(0.186314 0.114178 0)
(0.200332 0.089802 0)
(0.209692 0.0619819 0)
(0.213554 0.0299655 0)
(0.21097 -0.00719037 0)
(0.200895 -0.0507153 0)
(0.182148 -0.102204 0)
(0.153444 -0.163828 0)
(0.113672 -0.238462 0)
(0.0626873 -0.329236 0)
(0.00324944 -0.436924 0)
(-0.0549281 -0.551189 0)
(-0.0912762 -0.632799 0)
(-0.0826691 -0.592046 0)
(-0.0299727 -0.301283 0)
(-0.0138918 0.099574 0)
(-0.0427468 0.207849 0)
(-0.0660107 0.253916 0)
(-0.0717515 0.265844 0)
(-0.0619157 0.26102 0)
(-0.0411519 0.248705 0)
(-0.0132283 0.233582 0)
(0.0190472 0.217873 0)
(0.0536492 0.202493 0)
(0.0891396 0.187668 0)
(0.124469 0.173275 0)
(0.158821 0.159016 0)
(0.191508 0.14451 0)
(0.221896 0.129334 0)
(0.249361 0.113046 0)
(0.273255 0.0951885 0)
(0.292882 0.0752676 0)
(0.30747 0.0527341 0)
(0.316139 0.0269437 0)
(0.317835 -0.00290261 0)
(0.311375 -0.0378354 0)
(0.295314 -0.079255 0)
(0.267911 -0.129191 0)
(0.227206 -0.190739 0)
(0.171374 -0.268539 0)
(0.100155 -0.367968 0)
(0.0193231 -0.488355 0)
(-0.0513953 -0.602248 0)
(-0.0806006 -0.618601 0)
(-0.0375417 -0.358229 0)
(-0.0254038 0.135117 0)
(-0.0671477 0.241051 0)
(-0.0868427 0.266457 0)
(-0.0786765 0.258569 0)
(-0.0515422 0.239263 0)
(-0.0135954 0.217593 0)
(0.0300248 0.196983 0)
(0.0760918 0.178455 0)
(0.122594 0.162045 0)
(0.168287 0.147408 0)
(0.212373 0.134079 0)
(0.254285 0.121571 0)
(0.293554 0.109414 0)
(0.329739 0.0971602 0)
(0.362368 0.084389 0)
(0.390915 0.0706904 0)
(0.414768 0.0556506 0)
(0.433207 0.0388277 0)
(0.445368 0.0197212 0)
(0.450178 -0.00228275 0)
(0.446395 -0.0278966 0)
(0.432421 -0.0582297 0)
(0.40627 -0.0949254 0)
(0.365454 -0.140708 0)
(0.3069 -0.200453 0)
(0.227435 -0.282387 0)
(0.127586 -0.395525 0)
(0.0205226 -0.530957 0)
(-0.0610661 -0.612497 0)
(-0.0408733 -0.421748 0)
(-0.0412916 0.197286 0)
(-0.0902056 0.272707 0)
(-0.0798427 0.259273 0)
(-0.0362727 0.226342 0)
(0.0215576 0.193459 0)
(0.083935 0.165407 0)
(0.146285 0.142677 0)
(0.206406 0.124441 0)
(0.263312 0.109645 0)
(0.316631 0.0973594 0)
(0.36625 0.0868304 0)
(0.412132 0.077453 0)
(0.454215 0.0687338 0)
(0.492368 0.0602617 0)
(0.526365 0.0516837 0)
(0.555868 0.0426842 0)
(0.580411 0.0329662 0)
(0.599398 0.0222314 0)
(0.612045 0.0101541 0)
(0.617429 -0.003676 0)
(0.614356 -0.0196433 0)
(0.601221 -0.038461 0)
(0.576052 -0.0612204 0)
(0.536196 -0.0898445 0)
(0.477931 -0.128192 0)
(0.395961 -0.184441 0)
(0.284979 -0.273861 0)
(0.145893 -0.410565 0)
(-0.00343595 -0.554007 0)
(-0.0253981 -0.477503 0)
(-0.0341266 0.293745 0)
(-0.04789 0.27261 0)
(0.0537594 0.199541 0)
(0.15683 0.149683 0)
(0.249755 0.114873 0)
(0.331988 0.0900002 0)
(0.404453 0.0723729 0)
(0.468335 0.0597619 0)
(0.524907 0.0504605 0)
(0.575298 0.0433188 0)
(0.620385 0.0375819 0)
(0.66078 0.0327358 0)
(0.696875 0.0284137 0)
(0.728862 0.0243431 0)
(0.756764 0.0203122 0)
(0.780448 0.0161473 0)
(0.799634 0.0116964 0)
(0.81391 0.00682034 0)
(0.822634 0.00137322 0)
(0.825193 -0.00470228 0)
(0.820627 -0.0117438 0)
(0.807624 -0.0200207 0)
(0.784566 -0.0299945 0)
(0.749135 -0.0425947 0)
(0.697733 -0.0598668 0)
(0.624261 -0.0868926 0)
(0.518458 -0.137191 0)
(0.365117 -0.240287 0)
(0.144115 -0.406978 0)
(0.058862 -0.458305 0)
(0.303216 0.180904 0)
(0.382437 0.14424 0)
(0.560641 0.0910855 0)
(0.686403 0.0589519 0)
(0.769113 0.0393371 0)
(0.828789 0.026865 0)
(0.874782 0.0189729 0)
(0.91145 0.0139836 0)
(0.941502 0.0107503 0)
(0.966749 0.00855897 0)
(0.98834 0.00698461 0)
(1.00698 0.00577117 0)
(1.02307 0.00475894 0)
(1.03685 0.00384454 0)
(1.04839 0.00295787 0)
(1.05765 0.00204839 0)
(1.06453 0.0010755 0)
(1.06882 8.69285e-06 0)
(1.07029 -0.00119369 0)
(1.06856 -0.00242986 0)
(1.0631 -0.00390296 0)
(1.05344 -0.00564997 0)
(1.0388 -0.00774472 0)
(1.01798 -0.0103939 0)
(0.988934 -0.014096 0)
(0.947537 -0.0201943 0)
(0.88399 -0.0325807 0)
(0.776358 -0.0637558 0)
(0.544823 -0.139467 0)
(0.38249 -0.201738 0)
)
;

boundaryField
{
    movingWall
    {
        type            fixedValue;
        value           uniform (1.2 0 0);
    }
    fixedWalls
    {
        type            noSlip;
    }
    frontAndBack
    {
        type            empty;
    }
}


// ************************************************************************* //
