/*--------------------------------*- C++ -*----------------------------------*\
  =========                 |
  \\      /  F ield         | OpenFOAM: The Open Source CFD Toolbox
   \\    /   O peration     | Website:  https://openfoam.org
    \\  /    A nd           | Version:  7
     \\/     M anipulation  |
\*---------------------------------------------------------------------------*/
FoamFile
{
    version     2.0;
    format      ascii;
    class       volScalarField;
    location    "9.1";
    object      p;
}
// * * * * * * * * * * * * * * * * * * * * * * * * * * * * * * * * * * * * * //

dimensions      [0 2 -2 0 0 0 0];

internalField   nonuniform List<scalar> 
900
(
-1.31926e-07
-0.000352855
-0.000931637
-0.00155676
-0.00211742
-0.00254865
-0.00281672
-0.00290508
-0.00280365
-0.00250416
-0.00199985
-0.00128795
-0.000373713
0.000725172
0.00197488
0.00332337
0.00470067
0.00602241
0.00719663
0.00813359
0.0087574
0.00901804
0.00890134
0.00843504
0.00768979
0.00677275
0.00581811
0.00498456
0.00443582
0.00429735
0.000346946
-1.84331e-05
-0.000461981
-0.000922548
-0.00133464
-0.00165156
-0.00184688
-0.00190495
-0.00181446
-0.0015661
-0.00115262
-0.000570744
0.000175784
0.00107284
0.00209285
0.003193
0.00431756
0.00539664
0.00635519
0.00712023
0.00763067
0.0078473
0.00776103
0.00739722
0.00681536
0.00610398
0.00537051
0.00471755
0.00428259
0.00415649
0.000946771
0.000408557
-5.00305e-05
-0.00046346
-0.000817829
-0.00108539
-0.00125096
-0.00130491
-0.00123806
-0.00104085
-0.000704324
-0.000222293
0.000405586
0.00117038
0.00205084
0.00301203
0.00400361
0.00496338
0.00582215
0.00651139
0.00697283
0.0071684
0.00708829
0.0067551
0.00622277
0.00557043
0.00489193
0.0042822
0.00383599
0.00362376
0.00162049
0.000846691
0.000307468
-0.000117444
-0.000462455
-0.000718427
-0.000883026
-0.000954709
-0.000927565
-0.000791767
-0.000535527
-0.000147954
0.000377321
0.00103816
0.00182024
0.00269446
0.0036153
0.00452313
0.0053488
0.00602135
0.00647827
0.0066762
0.00660004
0.00626778
0.00572949
0.00506028
0.00434964
0.00368958
0.00315445
0.00277967
0.00222091
0.00119349
0.000550021
8.69745e-05
-0.000275614
-0.000545756
-0.000733482
-0.000845083
-0.000877497
-0.000819856
-0.000656401
-0.00037009
5.30477e-05
0.0006191
0.00132155
0.00213746
0.00302573
0.00392714
0.00476942
0.00547495
0.00597175
0.00620575
0.00615164
0.0058194
0.00525423
0.00452932
0.00373528
0.00296799
0.00229139
0.00170175
0.00262414
0.00134569
0.000588983
7.13587e-05
-0.000329656
-0.000637544
-0.000873314
-0.00104982
-0.00116569
-0.00120787
-0.00115533
-0.00098338
-0.000668829
-0.00019573
0.000438697
0.00121882
0.0021082
0.00304734
0.00395893
0.00475508
0.00534928
0.00567055
0.00567692
0.00536497
0.0047719
0.00396941
0.0030537
0.00213246
0.00126738
0.000422208
0.00272145
0.00120787
0.000338369
-0.000243464
-0.000699458
-0.00106706
-0.00137665
-0.00164606
-0.00187425
-0.00204459
-0.0021294
-0.00209478
-0.00190645
-0.00153648
-0.000970497
-0.000214605
0.000701736
0.00171936
0.00275544
0.0037092
0.00447449
0.00495613
0.00508695
0.00484184
0.00424408
0.00336189
0.00230033
0.00118696
9.04203e-05
-0.0010534
0.00241662
0.000692337
-0.000283511
-0.000934842
-0.00145976
-0.00190846
-0.00231923
-0.00271341
-0.00308891
-0.00342435
-0.00368403
-0.00382319
-0.00379434
-0.00355479
-0.00307518
-0.0023483
-0.00139186
-0.000262429
0.000953328
0.00214058
0.00316887
0.00391043
0.0042617
0.00416382
0.00361591
0.00267719
0.00146271
0.000127834
-0.00124274
-0.00273837
0.00162449
-0.000279986
-0.00135233
-0.0020766
-0.00268382
-0.00323592
-0.00377794
-0.00433354
-0.00489864
-0.00544619
-0.0059314
-0.00629706
-0.00648013
-0.00641978
-0.00606671
-0.00539347
-0.00440478
-0.00314402
-0.00169836
-0.000195734
0.00120563
0.00233651
0.00304306
0.00321576
0.00281338
0.00187492
0.000522906
-0.00105229
-0.00274063
-0.00465587
0.000272278
-0.00177672
-0.00293373
-0.00373399
-0.00443745
-0.00511698
-0.00582347
-0.00658227
-0.0073869
-0.00820426
-0.00897985
-0.00964274
-0.010112
-0.0103048
-0.0101465
-0.00958185
-0.0085944
-0.00720497
-0.00549315
-0.0035951
-0.00169725
-1.81328e-05
0.00122229
0.00184176
0.00173453
0.000899518
-0.000542301
-0.00236056
-0.00441024
-0.00682966
-0.00169719
-0.00385053
-0.00507904
-0.00595834
-0.00677266
-0.00760498
-0.00851167
-0.00951957
-0.0106201
-0.0117744
-0.0129184
-0.0139667
-0.0148185
-0.0153653
-0.0155014
-0.0151374
-0.0142181
-0.0127358
-0.0107487
-0.00839075
-0.00587165
-0.00346331
-0.00146716
-0.00016468
0.000240422
-0.000325089
-0.00176177
-0.00379973
-0.00624966
-0.00927464
-0.0043216
-0.00653555
-0.0078212
-0.00878217
-0.00972148
-0.0107316
-0.0118743
-0.0131784
-0.0146342
-0.0161982
-0.0177976
-0.0193327
-0.0206817
-0.0217074
-0.0222677
-0.0222298
-0.0214898
-0.0199953
-0.0177666
-0.0149187
-0.0116726
-0.00834972
-0.00534371
-0.0030627
-0.00185049
-0.0019
-0.00317015
-0.00536339
-0.00823965
-0.0119863
-0.00761545
-0.00984428
-0.0111715
-0.0122149
-0.0132905
-0.0144997
-0.0159101
-0.0175536
-0.0194208
-0.0214659
-0.0236087
-0.0257366
-0.0277068
-0.0293518
-0.0304887
-0.0309341
-0.0305241
-0.029149
-0.0267682
-0.0234562
-0.0194233
-0.0150259
-0.0107492
-0.00714998
-0.00475876
-0.00395174
-0.00480634
-0.00702943
-0.0103328
-0.0149276
-0.0115675
-0.0137658
-0.0151174
-0.0162401
-0.0174567
-0.0188775
-0.0205769
-0.0225914
-0.0249147
-0.0275004
-0.0302643
-0.0330826
-0.0357929
-0.0381976
-0.0400714
-0.041176
-0.0412822
-0.040199
-0.0378153
-0.0341366
-0.0293318
-0.023763
-0.0179895
-0.0127231
-0.00872263
-0.00662282
-0.00670712
-0.00875042
-0.0124393
-0.0180118
-0.0161401
-0.0182663
-0.0196231
-0.0208149
-0.0221656
-0.0237953
-0.0257866
-0.0281835
-0.030985
-0.0341479
-0.037586
-0.0411679
-0.0447141
-0.0479986
-0.0507551
-0.0526897
-0.0535026
-0.0529167
-0.0507312
-0.0468582
-0.0413905
-0.0346539
-0.0272427
-0.0200052
-0.0139501
-0.0100449
-0.00889148
-0.0104384
-0.0144074
-0.0210794
-0.0212713
-0.0232915
-0.0246322
-0.025872
-0.0273327
-0.0291454
-0.0314047
-0.034165
-0.0374342
-0.0411751
-0.0453032
-0.0496818
-0.054118
-0.0583609
-0.0621066
-0.0650094
-0.0666988
-0.0668083
-0.0650503
-0.0612148
-0.0552869
-0.047508
-0.0384492
-0.029045
-0.02054
-0.014287
-0.0113296
-0.0119411
-0.0159972
-0.023868
-0.0268798
-0.0287736
-0.0300739
-0.0313257
-0.0328476
-0.0347864
-0.0372538
-0.0403195
-0.0440041
-0.0482796
-0.0530655
-0.0582228
-0.0635479
-0.0687692
-0.0735502
-0.0774987
-0.0801798
-0.0811355
-0.0800301
-0.0764853
-0.0703632
-0.0617788
-0.0512128
-0.0396061
-0.0283798
-0.0192778
-0.0138918
-0.0130069
-0.0168461
-0.0259739
-0.0328734
-0.0346407
-0.0358727
-0.0370797
-0.0385817
-0.0405499
-0.0431218
-0.0463893
-0.0503904
-0.0551087
-0.0604695
-0.0663327
-0.0724859
-0.0786404
-0.0844321
-0.0894292
-0.0931544
-0.0951159
-0.094751
-0.0916993
-0.0856543
-0.0765641
-0.0647563
-0.0510843
-0.0370424
-0.0247082
-0.016276
-0.0132336
-0.016424
-0.0268033
-0.0391613
-0.0408309
-0.041961
-0.0430376
-0.0443967
-0.0462496
-0.0487732
-0.0520912
-0.0562637
-0.0612881
-0.0670953
-0.0735434
-0.0804114
-0.0873943
-0.0941046
-0.100078
-0.104791
-0.107689
-0.108186
-0.105769
-0.100013
-0.0907004
-0.0779668
-0.062493
-0.0457202
-0.0299392
-0.01792
-0.0120027
-0.0139775
-0.0255113
-0.0456711
-0.0473111
-0.0482944
-0.0491141
-0.0501536
-0.0516902
-0.0539607
-0.0571325
-0.0612932
-0.0664534
-0.0725474
-0.0794283
-0.0868629
-0.0945289
-0.102017
-0.108833
-0.114419
-0.118171
-0.119461
-0.117682
-0.112299
-0.102939
-0.0895364
-0.0725439
-0.0532328
-0.0339472
-0.0179169
-0.00839752
-0.00845867
-0.02092
-0.0523741
-0.0541032
-0.05487
-0.0552444
-0.0557177
-0.0566737
-0.0584361
-0.0612293
-0.0651708
-0.0702818
-0.0764934
-0.0836469
-0.0914901
-0.0996774
-0.107783
-0.11527
-0.121558
-0.126003
-0.127926
-0.126655
-0.121565
-0.112152
-0.0981635
-0.0798138
-0.0581269
-0.0353392
-0.014959
-0.0011162
0.0015626
-0.0114009
-0.0593295
-0.0613225
-0.0617478
-0.0613911
-0.06096
-0.0610024
-0.0619591
-0.0641215
-0.0676344
-0.0725201
-0.0786956
-0.0859783
-0.0940868
-0.10264
-0.111222
-0.119194
-0.125991
-0.130922
-0.133238
-0.132229
-0.127188
-0.117499
-0.102754
-0.082954
-0.0588497
-0.0324495
-0.00733845
0.011604
0.018008
0.00530857
-0.0667703
-0.0692398
-0.0690762
-0.0675463
-0.0657532
-0.0644794
-0.0643061
-0.0655903
-0.0684896
-0.0730092
-0.0790351
-0.0863445
-0.0946195
-0.103443
-0.112317
-0.120638
-0.127746
-0.132911
-0.135353
-0.134279
-0.128904
-0.118515
-0.102571
-0.0808928
-0.0539569
-0.023514
0.00696878
0.0320228
0.0434371
0.0324073
-0.0752896
-0.0783881
-0.0771256
-0.0737303
-0.0699664
-0.0669119
-0.0652841
-0.0654782
-0.0676323
-0.0717042
-0.0775211
-0.0848052
-0.0931838
-0.102192
-0.111275
-0.119795
-0.127035
-0.132208
-0.134474
-0.132958
-0.12678
-0.115117
-0.0973014
-0.0730017
-0.0423492
-0.00695808
0.030078
0.0628551
0.0812623
0.0745204
-0.0862646
-0.0897484
-0.0863221
-0.0799834
-0.073462
-0.0681219
-0.0647499
-0.0637109
-0.0650651
-0.068679
-0.074293
-0.0815517
-0.0900149
-0.0991588
-0.108376
-0.116973
-0.124178
-0.129139
-0.130937
-0.128603
-0.121132
-0.107571
-0.0870802
-0.0591157
-0.0236807
0.0181442
0.0637023
0.107034
0.135927
0.138206
-0.102851
-0.105089
-0.0972567
-0.0863309
-0.0760762
-0.0679396
-0.0626067
-0.060288
-0.0608794
-0.0641019
-0.0695761
-0.0768505
-0.0854076
-0.0946595
-0.103942
-0.112509
-0.119528
-0.124079
-0.12516
-0.121695
-0.112518
-0.0965185
-0.0726301
-0.0400239
0.00163601
0.0517795
0.108407
0.166926
0.212445
0.231898
-0.132209
-0.127496
-0.110736
-0.092788
-0.0776089
-0.0661804
-0.0587733
-0.0552478
-0.0552183
-0.0581943
-0.0636441
-0.0710069
-0.0796845
-0.0890271
-0.0983184
-0.106763
-0.113477
-0.117477
-0.117684
-0.112914
-0.101842
-0.0831424
-0.0554568
-0.0175325
0.0315692
0.092172
0.16367
0.242498
0.314657
0.367228
-0.190491
-0.160551
-0.127313
-0.0989919
-0.0774495
-0.062352
-0.052995
-0.0485588
-0.0482161
-0.0512011
-0.0568117
-0.0643795
-0.0732368
-0.0826861
-0.0919745
-0.100273
-0.106659
-0.110103
-0.109461
-0.103452
-0.0907165
-0.0696158
-0.0384546
0.0045918
0.0614485
0.134041
0.224203
0.33126
0.444696
0.570987
-0.321587
-0.200276
-0.138793
-0.0974651
-0.0697998
-0.0522682
-0.0423907
-0.038266
-0.0385245
-0.0421692
-0.0483995
-0.0565025
-0.0657908
-0.07556
-0.0850553
-0.0934466
-0.0998092
-0.103103
-0.102154
-0.0955544
-0.0820459
-0.0597829
-0.0267815
0.0193459
0.0817127
0.164682
0.274735
0.420403
0.608717
0.89823
-0.648993
-0.236783
-0.107375
-0.0625007
-0.0379308
-0.0242203
-0.0184772
-0.0180538
-0.021274
-0.0272198
-0.0352545
-0.0448015
-0.0552769
-0.0660548
-0.0764413
-0.0856532
-0.0928021
-0.096885
-0.0967934
-0.0913561
-0.0787964
-0.05758
-0.0257106
0.0194039
0.0814548
0.166665
0.287479
0.472246
0.778375
1.37222
)
;

boundaryField
{
    movingWall
    {
        type            zeroGradient;
    }
    fixedWalls
    {
        type            zeroGradient;
    }
    frontAndBack
    {
        type            empty;
    }
}


// ************************************************************************* //
