/*--------------------------------*- C++ -*----------------------------------*\
  =========                 |
  \\      /  F ield         | OpenFOAM: The Open Source CFD Toolbox
   \\    /   O peration     | Website:  https://openfoam.org
    \\  /    A nd           | Version:  7
     \\/     M anipulation  |
\*---------------------------------------------------------------------------*/
FoamFile
{
    version     2.0;
    format      ascii;
    class       volVectorField;
    location    "8.6";
    object      U;
}
// * * * * * * * * * * * * * * * * * * * * * * * * * * * * * * * * * * * * * //

dimensions      [0 1 -1 0 0 0 0];

internalField   nonuniform List<vector> 
900
(
(0.000162809 -0.000161844 0)
(0.000288163 -6.94327e-05 0)
(-3.43406e-05 9.83994e-05 0)
(-0.000813156 0.000246107 0)
(-0.00195626 0.000352922 0)
(-0.00335933 0.000421578 0)
(-0.00492821 0.000461394 0)
(-0.00658572 0.00048052 0)
(-0.00826815 0.000483526 0)
(-0.00991779 0.000471505 0)
(-0.0114764 0.000443038 0)
(-0.0128809 0.000395409 0)
(-0.0140631 0.000325868 0)
(-0.0149514 0.000232811 0)
(-0.0154763 0.000116856 0)
(-0.0155778 -1.84302e-05 0)
(-0.0152139 -0.000166515 0)
(-0.0143701 -0.000316859 0)
(-0.0130667 -0.000456485 0)
(-0.0113639 -0.000571087 0)
(-0.00936196 -0.000646858 0)
(-0.00719601 -0.000672654 0)
(-0.00502546 -0.000642038 0)
(-0.00301803 -0.000554774 0)
(-0.00133046 -0.0004176 0)
(-8.88337e-05 -0.000244952 0)
(0.000626814 -5.83723e-05 0)
(0.000805296 0.000116045 0)
(0.000553052 0.000221934 0)
(0.000170962 0.000169826 0)
(7.78355e-05 -0.000295756 0)
(-0.000301562 0.000298928 0)
(-0.00173229 0.00113402 0)
(-0.0041276 0.00188526 0)
(-0.00732295 0.0024628 0)
(-0.0111161 0.00285956 0)
(-0.0153024 0.00309835 0)
(-0.0196951 0.0032044 0)
(-0.0241253 0.00319352 0)
(-0.0284326 0.00306996 0)
(-0.0324555 0.00282923 0)
(-0.0360274 0.00246292 0)
(-0.0389761 0.00196434 0)
(-0.0411313 0.00133391 0)
(-0.0423362 0.000583705 0)
(-0.0424645 -0.0002595 0)
(-0.0414368 -0.00115242 0)
(-0.0392386 -0.0020369 0)
(-0.0359353 -0.0028438 0)
(-0.0316792 -0.00349963 0)
(-0.0267075 -0.00393551 0)
(-0.0213308 -0.00409733 0)
(-0.0159096 -0.00395546 0)
(-0.0108207 -0.00351213 0)
(-0.00641625 -0.00280559 0)
(-0.00297999 -0.00191162 0)
(-0.000682726 -0.000942981 0)
(0.000445587 -4.93895e-05 0)
(0.000591466 0.00055614 0)
(0.000229964 0.000550473 0)
(-0.000106165 3.19465e-05 0)
(-0.0012419 0.00175208 0)
(-0.00402867 0.00379483 0)
(-0.00814149 0.00561881 0)
(-0.0133246 0.00704645 0)
(-0.0193107 0.00804672 0)
(-0.025821 0.00864964 0)
(-0.0325909 0.00889664 0)
(-0.0393711 0.00881547 0)
(-0.0459191 0.00841383 0)
(-0.0519911 0.00768399 0)
(-0.0573382 0.006613 0)
(-0.0617107 0.00519502 0)
(-0.0648679 0.0034432 0)
(-0.0665952 0.0013994 0)
(-0.0667248 -0.000859462 0)
(-0.0651579 -0.00321893 0)
(-0.0618864 -0.00553241 0)
(-0.0570099 -0.00762995 0)
(-0.0507432 -0.00933405 0)
(-0.0434153 -0.0104803 0)
(-0.0354531 -0.0109404 0)
(-0.0273526 -0.0106447 0)
(-0.0196353 -0.00960008 0)
(-0.0127947 -0.00790037 0)
(-0.00723712 -0.00572938 0)
(-0.00322277 -0.00335884 0)
(-0.00081734 -0.00114799 0)
(0.00016057 0.000459101 0)
(0.000166359 0.000854026 0)
(-0.000301249 0.000912036 0)
(-0.00225614 0.00439002 0)
(-0.0064932 0.00804004 0)
(-0.0123707 0.0112138 0)
(-0.0195074 0.0136846 0)
(-0.0275703 0.0154119 0)
(-0.0362208 0.0164361 0)
(-0.0451354 0.0168135 0)
(-0.054006 0.0165814 0)
(-0.0625289 0.0157491 0)
(-0.0703979 0.0143056 0)
(-0.0773028 0.0122362 0)
(-0.0829354 0.00954175 0)
(-0.0870031 0.00625745 0)
(-0.0892481 0.00246808 0)
(-0.0894702 -0.00168293 0)
(-0.0875517 -0.00599236 0)
(-0.0834811 -0.0102035 0)
(-0.0773712 -0.014023 0)
(-0.0694705 -0.0171458 0)
(-0.0601632 -0.019289 0)
(-0.0499546 -0.0202295 0)
(-0.0394408 -0.0198421 0)
(-0.0292608 -0.0181312 0)
(-0.0200343 -0.0152511 0)
(-0.0122902 -0.0115117 0)
(-0.00639483 -0.00737209 0)
(-0.00248657 -0.00342592 0)
(-0.000445366 -0.000384599 0)
(6.9807e-05 0.000869036 0)
(-0.000485608 0.00234314 0)
(-0.00325146 0.00824086 0)
(-0.00894139 0.0138859 0)
(-0.0165678 0.0186356 0)
(-0.0256044 0.0222772 0)
(-0.0356468 0.0247929 0)
(-0.0463016 0.0262477 0)
(-0.0571999 0.0267161 0)
(-0.067991 0.0262442 0)
(-0.0783281 0.0248414 0)
(-0.0878608 0.0224935 0)
(-0.0962344 0.0191852 0)
(-0.103097 0.0149279 0)
(-0.108116 0.00978436 0)
(-0.110995 0.00388892 0)
(-0.111498 -0.0025409 0)
(-0.10948 -0.00920329 0)
(-0.104905 -0.0157203 0)
(-0.0978727 -0.0216608 0)
(-0.088634 -0.0265746 0)
(-0.0775963 -0.0300385 0)
(-0.0653159 -0.0317104 0)
(-0.0524704 -0.0313858 0)
(-0.0398103 -0.0290478 0)
(-0.0280899 -0.0249013 0)
(-0.0179835 -0.0193853 0)
(-0.00999606 -0.0131603 0)
(-0.00437913 -0.00707533 0)
(-0.00111428 -0.0021238 0)
(-2.61831e-05 0.000538739 0)
(-0.000654105 0.00429784 0)
(-0.00418909 0.013275 0)
(-0.0112751 0.021305 0)
(-0.020582 0.0278463 0)
(-0.0314333 0.0327656 0)
(-0.0433512 0.0361088 0)
(-0.0558921 0.0379866 0)
(-0.0686513 0.0385011 0)
(-0.0812489 0.0377094 0)
(-0.0933106 0.035621 0)
(-0.104457 0.0322171 0)
(-0.114304 0.0274817 0)
(-0.122467 0.0214363 0)
(-0.128577 0.014171 0)
(-0.1323 0.00586953 0)
(-0.133357 -0.00317658 0)
(-0.131555 -0.0125654 0)
(-0.126809 -0.021793 0)
(-0.119176 -0.0302805 0)
(-0.108874 -0.0374145 0)
(-0.0963029 -0.0426055 0)
(-0.0820435 -0.0453586 0)
(-0.0668433 -0.0453531 0)
(-0.051569 -0.0425162 0)
(-0.0371315 -0.0370797 0)
(-0.0243885 -0.0296032 0)
(-0.0140304 -0.0209585 0)
(-0.00646827 -0.0122738 0)
(-0.0018238 -0.00485178 0)
(-0.000115672 -0.000145019 0)
(-0.000806099 0.00673728 0)
(-0.00504933 0.0194211 0)
(-0.013433 0.0302123 0)
(-0.0243075 0.0387507 0)
(-0.0368536 0.0450455 0)
(-0.050523 0.0492487 0)
(-0.0648279 0.0515424 0)
(-0.0793369 0.052069 0)
(-0.0936528 0.0509017 0)
(-0.107387 0.0480508 0)
(-0.120146 0.0434913 0)
(-0.131526 0.0372035 0)
(-0.141119 0.029214 0)
(-0.148526 0.0196344 0)
(-0.153368 0.00868968 0)
(-0.155314 -0.00326272 0)
(-0.154103 -0.0157274 0)
(-0.149573 -0.0280765 0)
(-0.141705 -0.0395772 0)
(-0.130646 -0.0494355 0)
(-0.11675 -0.0568638 0)
(-0.100598 -0.0611703 0)
(-0.0829894 -0.0618645 0)
(-0.0649111 -0.0587643 0)
(-0.0474586 -0.0520853 0)
(-0.0317206 -0.0424865 0)
(-0.018633 -0.0310572 0)
(-0.0088241 -0.0192364 0)
(-0.00260036 -0.00868253 0)
(-0.000203825 -0.0011989 0)
(-0.000940531 0.00961478 0)
(-0.00581594 0.0265804 0)
(-0.015365 0.0404826 0)
(-0.0276552 0.0512124 0)
(-0.0417393 0.0589776 0)
(-0.0570068 0.0640779 0)
(-0.0729334 0.0667929 0)
(-0.0890702 0.0673202 0)
(-0.105014 0.0657564 0)
(-0.120373 0.0621136 0)
(-0.134753 0.0563588 0)
(-0.147741 0.0484624 0)
(-0.158915 0.0384482 0)
(-0.167847 0.0264362 0)
(-0.174113 0.0126778 0)
(-0.177319 -0.00241999 0)
(-0.177118 -0.0182811 0)
(-0.173248 -0.0341657 0)
(-0.165574 -0.0491863 0)
(-0.154137 -0.0623523 0)
(-0.139204 -0.072644 0)
(-0.121309 -0.0791184 0)
(-0.10128 -0.0810445 0)
(-0.0802183 -0.0780539 0)
(-0.0594252 -0.0702778 0)
(-0.0402725 -0.0584337 0)
(-0.0240144 -0.0438271 0)
(-0.0115713 -0.0282477 0)
(-0.00349551 -0.0137796 0)
(-0.00030076 -0.00266338 0)
(-0.00105477 0.0128753 0)
(-0.00647045 0.0346298 0)
(-0.0170215 0.0519572 0)
(-0.0305378 0.0650583 0)
(-0.0459643 0.0743889 0)
(-0.0626394 0.0804328 0)
(-0.0800115 0.0835932 0)
(-0.0976233 0.0841385 0)
(-0.115075 0.0821966 0)
(-0.131985 0.0777838 0)
(-0.147965 0.0708563 0)
(-0.16261 0.0613677 0)
(-0.175489 0.0493262 0)
(-0.186152 0.0348441 0)
(-0.194133 0.0181779 0)
(-0.198968 -0.000239324 0)
(-0.200216 -0.0197744 0)
(-0.197493 -0.0395934 0)
(-0.190521 -0.0586621 0)
(-0.179189 -0.0757851 0)
(-0.163627 -0.0896786 0)
(-0.144273 -0.0990888 0)
(-0.121933 -0.102958 0)
(-0.0977933 -0.100628 0)
(-0.0733672 -0.0920431 0)
(-0.0503574 -0.077908 0)
(-0.030419 -0.0597256 0)
(-0.014862 -0.0396804 0)
(-0.00457277 -0.0203759 0)
(-0.000418503 -0.00461108 0)
(-0.00114497 0.0164535 0)
(-0.00699199 0.0434213 0)
(-0.0183508 0.0644432 0)
(-0.0328664 0.0800773 0)
(-0.0493989 0.0910661 0)
(-0.0672478 0.09811 0)
(-0.0858435 0.101759 0)
(-0.104728 0.102367 0)
(-0.123515 0.100103 0)
(-0.14184 0.0949908 0)
(-0.159337 0.086973 0)
(-0.175615 0.0759788 0)
(-0.190248 0.0619871 0)
(-0.202776 0.0450828 0)
(-0.212697 0.0255032 0)
(-0.219483 0.00367812 0)
(-0.222598 -0.0197368 0)
(-0.221527 -0.0438378 0)
(-0.215828 -0.0674654 0)
(-0.205202 -0.089224 0)
(-0.189584 -0.107545 0)
(-0.169248 -0.120806 0)
(-0.144905 -0.127529 0)
(-0.117765 -0.126633 0)
(-0.0895286 -0.117734 0)
(-0.0622566 -0.101402 0)
(-0.0380926 -0.0792853 0)
(-0.0188583 -0.0539994 0)
(-0.00590136 -0.0287825 0)
(-0.000569932 -0.00715084 0)
(-0.00120689 0.0202722 0)
(-0.00735939 0.0527815 0)
(-0.0193025 0.0777145 0)
(-0.0345543 0.0960187 0)
(-0.0519149 0.108752 0)
(-0.0706561 0.116857 0)
(-0.0901984 0.12105 0)
(-0.11009 0.121787 0)
(-0.129964 0.119286 0)
(-0.149484 0.113585 0)
(-0.168314 0.10461 0)
(-0.186089 0.0922596 0)
(-0.202405 0.0764707 0)
(-0.216805 0.0572806 0)
(-0.22877 0.0348811 0)
(-0.237727 0.00966629 0)
(-0.243054 -0.0177224 0)
(-0.244112 -0.0463515 0)
(-0.240288 -0.0749723 0)
(-0.231069 -0.102013 0)
(-0.216144 -0.12562 0)
(-0.195543 -0.143765 0)
(-0.169781 -0.154451 0)
(-0.139988 -0.156027 0)
(-0.107979 -0.147586 0)
(-0.076165 -0.12938 0)
(-0.0472525 -0.103084 0)
(-0.0237205 -0.0717536 0)
(-0.00755319 -0.0393908 0)
(-0.000768764 -0.0104295 0)
(-0.0012367 0.0242426 0)
(-0.00755443 0.0625137 0)
(-0.0198334 0.0915134 0)
(-0.0355263 0.112594 0)
(-0.0533973 0.127146 0)
(-0.0727004 0.136369 0)
(-0.0928519 0.141163 0)
(-0.113411 0.142103 0)
(-0.134034 0.139467 0)
(-0.154421 0.133309 0)
(-0.174272 0.123545 0)
(-0.193267 0.110038 0)
(-0.211036 0.092671 0)
(-0.227146 0.0714179 0)
(-0.241088 0.0464 0)
(-0.252271 0.0179433 0)
(-0.260018 -0.0133641 0)
(-0.263591 -0.0466097 0)
(-0.26222 -0.0805095 0)
(-0.255168 -0.113366 0)
(-0.241841 -0.14307 0)
(-0.221942 -0.167179 0)
(-0.19567 -0.183107 0)
(-0.163935 -0.188473 0)
(-0.128524 -0.181615 0)
(-0.0921272 -0.162191 0)
(-0.0580532 -0.131693 0)
(-0.0295939 -0.0935536 0)
(-0.00960096 -0.0526677 0)
(-0.00102995 -0.014633 0)
(-0.00123195 0.0282677 0)
(-0.00756563 0.072403 0)
(-0.0199155 0.105557 0)
(-0.0357304 0.129482 0)
(-0.0537606 0.145901 0)
(-0.0732497 0.156283 0)
(-0.0936129 0.161726 0)
(-0.114423 0.162934 0)
(-0.135362 0.160259 0)
(-0.156169 0.153782 0)
(-0.176594 0.143413 0)
(-0.196368 0.128977 0)
(-0.215175 0.110301 0)
(-0.232635 0.0872847 0)
(-0.248276 0.0599592 0)
(-0.261529 0.0285544 0)
(-0.271708 -0.00643571 0)
(-0.278019 -0.0441782 0)
(-0.279573 -0.0834184 0)
(-0.275429 -0.122411 0)
(-0.264693 -0.158864 0)
(-0.246679 -0.189962 0)
(-0.221148 -0.212501 0)
(-0.188603 -0.223238 0)
(-0.150608 -0.219487 0)
(-0.109963 -0.199954 0)
(-0.0705442 -0.165593 0)
(-0.0365936 -0.120032 0)
(-0.0121159 -0.0691452 0)
(-0.00137019 -0.0199864 0)
(-0.00119245 0.0322459 0)
(-0.00739245 0.0822264 0)
(-0.019545 0.119549 0)
(-0.0351521 0.146337 0)
(-0.0529682 0.164637 0)
(-0.0722307 0.176189 0)
(-0.0923554 0.182299 0)
(-0.112928 0.183813 0)
(-0.133659 0.18117 0)
(-0.154328 0.174493 0)
(-0.174742 0.163691 0)
(-0.194695 0.148562 0)
(-0.213944 0.128877 0)
(-0.232185 0.104455 0)
(-0.249021 0.0752308 0)
(-0.263949 0.0413159 0)
(-0.27633 0.00307434 0)
(-0.285372 -0.0387945 0)
(-0.290128 -0.0831446 0)
(-0.289506 -0.128285 0)
(-0.282334 -0.171857 0)
(-0.26751 -0.21077 0)
(-0.244251 -0.241249 0)
(-0.212468 -0.259111 0)
(-0.173231 -0.260397 0)
(-0.129187 -0.242419 0)
(-0.0846167 -0.205067 0)
(-0.0447829 -0.151784 0)
(-0.0151644 -0.0893999 0)
(-0.00180842 -0.0267537 0)
(-0.00112115 0.0360792 0)
(-0.00704944 0.0917659 0)
(-0.018752 0.133192 0)
(-0.0338291 0.162804 0)
(-0.0510522 0.182951 0)
(-0.069654 0.195638 0)
(-0.089051 0.202384 0)
(-0.108841 0.204196 0)
(-0.128764 0.201613 0)
(-0.148645 0.194814 0)
(-0.168348 0.183722 0)
(-0.187745 0.168117 0)
(-0.206682 0.147724 0)
(-0.224952 0.122291 0)
(-0.24227 0.0916523 0)
(-0.258242 0.055793 0)
(-0.272331 0.0149213 0)
(-0.283821 -0.0304414 0)
(-0.291783 -0.0793388 0)
(-0.295059 -0.130253 0)
(-0.292264 -0.180907 0)
(-0.281903 -0.228102 0)
(-0.2626 -0.267627 0)
(-0.233507 -0.294387 0)
(-0.194914 -0.302967 0)
(-0.148937 -0.288817 0)
(-0.0999436 -0.250055 0)
(-0.0541445 -0.189274 0)
(-0.0188023 -0.114021 0)
(-0.00236619 -0.0352348 0)
(-0.00102487 0.0396816 0)
(-0.00657027 0.100828 0)
(-0.0176093 0.146213 0)
(-0.031866 0.178542 0)
(-0.048133 0.200435 0)
(-0.0656378 0.214156 0)
(-0.0837982 0.221448 0)
(-0.102227 0.223485 0)
(-0.120693 0.220928 0)
(-0.139069 0.214026 0)
(-0.157288 0.202736 0)
(-0.175304 0.186836 0)
(-0.193065 0.16602 0)
(-0.210484 0.139978 0)
(-0.22741 0.108455 0)
(-0.243598 0.0713126 0)
(-0.258667 0.0285946 0)
(-0.272035 -0.019392 0)
(-0.282889 -0.0719469 0)
(-0.290103 -0.12784 0)
(-0.292186 -0.185047 0)
(-0.287341 -0.240479 0)
(-0.273624 -0.289723 0)
(-0.249337 -0.32694 0)
(-0.213724 -0.345217 0)
(-0.167936 -0.337734 0)
(-0.115923 -0.3 0)
(-0.0645481 -0.232726 0)
(-0.0230681 -0.143563 0)
(-0.00306814 -0.0457608 0)
(-0.000915133 0.0429914 0)
(-0.00601193 0.109266 0)
(-0.0162421 0.158386 0)
(-0.0294476 0.193243 0)
(-0.0444358 0.216699 0)
(-0.0604271 0.231274 0)
(-0.0768442 0.238938 0)
(-0.0933198 0.241053 0)
(-0.10966 0.238415 0)
(-0.125794 0.231364 0)
(-0.141726 0.219909 0)
(-0.157503 0.203844 0)
(-0.173184 0.182853 0)
(-0.188813 0.156587 0)
(-0.204392 0.124721 0)
(-0.219849 0.0870105 0)
(-0.234993 0.0433406 0)
(-0.249432 -0.00620596 0)
(-0.262545 -0.0612668 0)
(-0.27335 -0.120953 0)
(-0.280384 -0.18366 0)
(-0.281697 -0.246663 0)
(-0.2749 -0.305664 0)
(-0.257465 -0.354403 0)
(-0.227419 -0.38464 0)
(-0.184515 -0.387055 0)
(-0.131639 -0.35369 0)
(-0.0757168 -0.281979 0)
(-0.0279771 -0.178484 0)
(-0.00394321 -0.058686 0)
(-0.000809228 0.0459843 0)
(-0.00545996 0.117008 0)
(-0.0148381 0.169564 0)
(-0.0268527 0.206663 0)
(-0.0403047 0.231395 0)
(-0.0544061 0.246539 0)
(-0.0685948 0.254309 0)
(-0.0825384 0.256269 0)
(-0.0960954 0.253369 0)
(-0.109261 0.246057 0)
(-0.122124 0.234409 0)
(-0.13483 0.218259 0)
(-0.147555 0.197299 0)
(-0.160478 0.171161 0)
(-0.173759 0.139474 0)
(-0.187504 0.101906 0)
(-0.201725 0.058202 0)
(-0.216289 0.00822637 0)
(-0.230789 -0.0479727 0)
(-0.24445 -0.109941 0)
(-0.256022 -0.176619 0)
(-0.263588 -0.245878 0)
(-0.264519 -0.313896 0)
(-0.255614 -0.374451 0)
(-0.233671 -0.418401 0)
(-0.196719 -0.434006 0)
(-0.145866 -0.409155 0)
(-0.0872017 -0.336335 0)
(-0.0335181 -0.219065 0)
(-0.00502799 -0.0743801 0)
(-0.00073258 0.0486911 0)
(-0.00503712 0.124093 0)
(-0.0136627 0.179715 0)
(-0.0244695 0.218651 0)
(-0.0362138 0.244238 0)
(-0.0481027 0.259541 0)
(-0.0596111 0.267042 0)
(-0.0704697 0.268526 0)
(-0.0806147 0.265111 0)
(-0.0901292 0.257368 0)
(-0.0991984 0.245456 0)
(-0.108075 0.229258 0)
(-0.117054 0.208493 0)
(-0.126449 0.182794 0)
(-0.13657 0.151767 0)
(-0.147695 0.115014 0)
(-0.160035 0.0721653 0)
(-0.173682 0.0228942 0)
(-0.188498 -0.0330131 0)
(-0.204012 -0.0955802 0)
(-0.219266 -0.164355 0)
(-0.23258 -0.237976 0)
(-0.241363 -0.313448 0)
(-0.242033 -0.385133 0)
(-0.230344 -0.443651 0)
(-0.202474 -0.475333 0)
(-0.157111 -0.463637 0)
(-0.098369 -0.394411 0)
(-0.0396595 -0.265318 0)
(-0.00637482 -0.0932243 0)
(-0.000724141 0.0512221 0)
(-0.00491997 0.130709 0)
(-0.0130818 0.188958 0)
(-0.0228154 0.229171 0)
(-0.0327766 0.255016 0)
(-0.0421834 0.269912 0)
(-0.0505898 0.276648 0)
(-0.0578358 0.277248 0)
(-0.0639757 0.273009 0)
(-0.0692095 0.264626 0)
(-0.0738372 0.252348 0)
(-0.0782265 0.236116 0)
(-0.0827891 0.215684 0)
(-0.0879623 0.190701 0)
(-0.0941918 0.160764 0)
(-0.101907 0.125435 0)
(-0.111491 0.0842642 0)
(-0.123237 0.0367733 0)
(-0.13727 -0.0175047 0)
(-0.153442 -0.0789838 0)
(-0.171168 -0.147815 0)
(-0.189179 -0.223492 0)
(-0.205208 -0.304113 0)
(-0.21569 -0.385166 0)
(-0.215719 -0.45788 0)
(-0.199772 -0.507588 0)
(-0.163697 -0.513673 0)
(-0.108398 -0.454016 0)
(-0.0463646 -0.31688 0)
(-0.00806834 -0.115621 0)
(-0.000848691 0.0538057 0)
(-0.00537136 0.137254 0)
(-0.0136018 0.197598 0)
(-0.0225651 0.238314 0)
(-0.0307509 0.263591 0)
(-0.0374335 0.277324 0)
(-0.0423187 0.282663 0)
(-0.0454277 0.281889 0)
(-0.0469885 0.276471 0)
(-0.0473558 0.267225 0)
(-0.0469649 0.254476 0)
(-0.046304 0.238223 0)
(-0.0458963 0.218253 0)
(-0.0462851 0.194234 0)
(-0.0480308 0.16577 0)
(-0.0516809 0.132391 0)
(-0.057756 0.0935996 0)
(-0.0667186 0.0488059 0)
(-0.0789117 -0.00264478 0)
(-0.0944908 -0.0614717 0)
(-0.11328 -0.128345 0)
(-0.134533 -0.203582 0)
(-0.156564 -0.286492 0)
(-0.17625 -0.374132 0)
(-0.188582 -0.45924 0)
(-0.186795 -0.52747 0)
(-0.163827 -0.555274 0)
(-0.116268 -0.512071 0)
(-0.0536063 -0.372885 0)
(-0.0102541 -0.142028 0)
(-0.00122325 0.0568572 0)
(-0.00680119 0.144409 0)
(-0.0159308 0.206164 0)
(-0.0245802 0.246289 0)
(-0.0310242 0.269861 0)
(-0.034698 0.281439 0)
(-0.0355812 0.284604 0)
(-0.0339773 0.281894 0)
(-0.0303596 0.274927 0)
(-0.0252798 0.264605 0)
(-0.0193276 0.251308 0)
(-0.0131137 0.235069 0)
(-0.00726054 0.215701 0)
(-0.00239136 0.192886 0)
(0.00084069 0.16622 0)
(0.00180534 0.135234 0)
(-0.00011322 0.0993875 0)
(-0.0055096 0.0580381 0)
(-0.0148905 0.010412 0)
(-0.0286742 -0.0444194 0)
(-0.0470759 -0.107506 0)
(-0.0699136 -0.179839 0)
(-0.0962541 -0.26189 0)
(-0.12381 -0.352508 0)
(-0.148109 -0.446752 0)
(-0.161888 -0.532133 0)
(-0.155566 -0.584152 0)
(-0.120691 -0.564558 0)
(-0.061351 -0.431786 0)
(-0.0131772 -0.173024 0)
(-0.00207061 0.0611064 0)
(-0.0098719 0.153243 0)
(-0.0210562 0.215408 0)
(-0.0299085 0.253356 0)
(-0.0345227 0.273664 0)
(-0.034713 0.281821 0)
(-0.0309244 0.281893 0)
(-0.0238766 0.276641 0)
(-0.0143695 0.267768 0)
(-0.00319109 0.2562 0)
(0.00890227 0.242325 0)
(0.0211855 0.226178 0)
(0.032956 0.207574 0)
(0.0435227 0.186194 0)
(0.0521911 0.161624 0)
(0.0582777 0.133402 0)
(0.0611045 0.10096 0)
(0.059997 0.0636416 0)
(0.0543059 0.0206226 0)
(0.0434032 -0.0291289 0)
(0.0267386 -0.0868747 0)
(0.00395754 -0.154059 0)
(-0.0248229 -0.232082 0)
(-0.0584322 -0.321548 0)
(-0.0935384 -0.42035 0)
(-0.123353 -0.5194 0)
(-0.136685 -0.595932 0)
(-0.119927 -0.606479 0)
(-0.069431 -0.491068 0)
(-0.017207 -0.209383 0)
(-0.00382124 0.0678375 0)
(-0.0156598 0.165325 0)
(-0.0302854 0.22622 0)
(-0.0396314 0.259638 0)
(-0.0418751 0.27458 0)
(-0.0376237 0.277753 0)
(-0.0280685 0.273705 0)
(-0.014506 0.26531 0)
(0.00185902 0.254238 0)
(0.0199748 0.241343 0)
(0.0389246 0.226943 0)
(0.0578898 0.211029 0)
(0.0761143 0.193385 0)
(0.092876 0.173676 0)
(0.107466 0.151486 0)
(0.11918 0.126342 0)
(0.127309 0.0976885 0)
(0.131123 0.0648687 0)
(0.129869 0.0270692 0)
(0.122749 -0.0167395 0)
(0.108939 -0.0678719 0)
(0.0876229 -0.12797 0)
(0.0581531 -0.199019 0)
(0.0204749 -0.283045 0)
(-0.0236808 -0.380793 0)
(-0.0690623 -0.487893 0)
(-0.104306 -0.586345 0)
(-0.111387 -0.63177 0)
(-0.0771629 -0.546738 0)
(-0.0227628 -0.252002 0)
(-0.00728758 0.0793226 0)
(-0.0258382 0.182778 0)
(-0.0450378 0.2393 0)
(-0.0541875 0.264668 0)
(-0.0523601 0.271496 0)
(-0.0416662 0.267882 0)
(-0.024415 0.258686 0)
(-0.00263941 0.246668 0)
(0.0220047 0.23327 0)
(0.048213 0.21913 0)
(0.0749443 0.204406 0)
(0.101331 0.18898 0)
(0.126611 0.172575 0)
(0.150073 0.154823 0)
(0.17103 0.135301 0)
(0.188788 0.11354 0)
(0.202631 0.0890084 0)
(0.2118 0.0610881 0)
(0.215465 0.0290286 0)
(0.212692 -0.00811574 0)
(0.202441 -0.0515789 0)
(0.183534 -0.102967 0)
(0.154688 -0.164465 0)
(0.114782 -0.238966 0)
(0.0636666 -0.329615 0)
(0.00408315 -0.437236 0)
(-0.0542818 -0.551508 0)
(-0.0908565 -0.633193 0)
(-0.0824833 -0.592488 0)
(-0.029936 -0.301565 0)
(-0.013873 0.0995111 0)
(-0.0426167 0.207918 0)
(-0.0656558 0.254229 0)
(-0.0711076 0.266413 0)
(-0.0609467 0.261801 0)
(-0.039845 0.249622 0)
(-0.0115934 0.234554 0)
(0.0209808 0.218823 0)
(0.0558372 0.203353 0)
(0.0915272 0.188384 0)
(0.126995 0.173809 0)
(0.161423 0.159343 0)
(0.194121 0.144618 0)
(0.224462 0.129228 0)
(0.251826 0.112744 0)
(0.275576 0.0947176 0)
(0.295026 0.0746655 0)
(0.309415 0.0520441 0)
(0.317875 0.0262117 0)
(0.319367 -0.00363116 0)
(0.312712 -0.0385195 0)
(0.296474 -0.079859 0)
(0.268915 -0.129688 0)
(0.228075 -0.191116 0)
(0.172126 -0.268799 0)
(0.100796 -0.368146 0)
(0.0198324 -0.488506 0)
(-0.051047 -0.602439 0)
(-0.0804309 -0.618846 0)
(-0.0375023 -0.358411 0)
(-0.0254052 0.135005 0)
(-0.0670963 0.240982 0)
(-0.0866466 0.266554 0)
(-0.0782698 0.258863 0)
(-0.0508763 0.239733 0)
(-0.0126418 0.218191 0)
(0.0312723 0.197649 0)
(0.0776197 0.179131 0)
(0.124372 0.162676 0)
(0.170273 0.147951 0)
(0.214515 0.134499 0)
(0.256525 0.121846 0)
(0.295833 0.109531 0)
(0.331998 0.0971207 0)
(0.364554 0.0842025 0)
(0.392979 0.0703762 0)
(0.416672 0.0552351 0)
(0.434924 0.0383424 0)
(0.446881 0.0192008 0)
(0.451484 -0.002802 0)
(0.447498 -0.0283856 0)
(0.433338 -0.0586602 0)
(0.407023 -0.0952745 0)
(0.36607 -0.140963 0)
(0.307407 -0.200611 0)
(0.227856 -0.282469 0)
(0.127927 -0.395571 0)
(0.0207674 -0.531015 0)
(-0.0609398 -0.612597 0)
(-0.0408412 -0.42184 0)
(-0.0413142 0.197177 0)
(-0.0902433 0.272584 0)
(-0.079836 0.259245 0)
(-0.0361595 0.226442 0)
(0.0218394 0.193685 0)
(0.0844316 0.165734 0)
(0.147022 0.143066 0)
(0.207392 0.124853 0)
(0.264535 0.110042 0)
(0.318063 0.0977096 0)
(0.367853 0.0871088 0)
(0.413856 0.0776424 0)
(0.456008 0.068825 0)
(0.494174 0.0602531 0)
(0.52813 0.0515809 0)
(0.557542 0.0424992 0)
(0.581954 0.0327159 0)
(0.600778 0.0219361 0)
(0.613241 0.00983582 0)
(0.618432 -0.00399225 0)
(0.615167 -0.0199377 0)
(0.601854 -0.0387155 0)
(0.576531 -0.0614204 0)
(0.53655 -0.0899812 0)
(0.478194 -0.128265 0)
(0.396163 -0.18446 0)
(0.285142 -0.273851 0)
(0.146019 -0.410558 0)
(-0.00336576 -0.554027 0)
(-0.0253794 -0.477531 0)
(-0.0341542 0.293685 0)
(-0.0479687 0.272514 0)
(0.0536444 0.199478 0)
(0.156723 0.149682 0)
(0.249725 0.114939 0)
(0.332092 0.0901234 0)
(0.40473 0.0725343 0)
(0.468807 0.0599402 0)
(0.525576 0.0506358 0)
(0.576151 0.0434742 0)
(0.621393 0.0377047 0)
(0.661906 0.0328172 0)
(0.698073 0.0284494 0)
(0.730085 0.0243327 0)
(0.757964 0.020259 0)
(0.781582 0.0160576 0)
(0.800666 0.011579 0)
(0.814809 0.00668566 0)
(0.823386 0.00123319 0)
(0.82579 -0.00483966 0)
(0.821069 -0.0118669 0)
(0.807928 -0.0201208 0)
(0.784753 -0.0300659 0)
(0.749235 -0.0426348 0)
(0.697777 -0.0598769 0)
(0.62428 -0.0868788 0)
(0.518474 -0.137166 0)
(0.36514 -0.240266 0)
(0.144135 -0.406971 0)
(0.0588693 -0.458304 0)
(0.303202 0.180894 0)
(0.382384 0.144212 0)
(0.560543 0.0910572 0)
(0.686278 0.0589378 0)
(0.769004 0.039341 0)
(0.828734 0.026885 0)
(0.87481 0.0190041 0)
(0.911578 0.0140202 0)
(0.941733 0.0107867 0)
(0.967076 0.00859047 0)
(0.988745 0.00700792 0)
(1.00744 0.00578426 0)
(1.02356 0.00476103 0)
(1.03734 0.00383595 0)
(1.04886 0.00293983 0)
(1.05808 0.00202288 0)
(1.06489 0.00104508 0)
(1.06911 -2.37658e-05 0)
(1.0705 -0.00122361 0)
(1.06869 -0.00245821 0)
(1.06316 -0.00392646 0)
(1.05345 -0.00566624 0)
(1.03876 -0.00775283 0)
(1.01792 -0.0103939 0)
(0.988864 -0.0140889 0)
(0.947476 -0.0201823 0)
(0.883948 -0.0325673 0)
(0.776338 -0.0637452 0)
(0.544818 -0.139461 0)
(0.38249 -0.201735 0)
)
;

boundaryField
{
    movingWall
    {
        type            fixedValue;
        value           uniform (1.2 0 0);
    }
    fixedWalls
    {
        type            noSlip;
    }
    frontAndBack
    {
        type            empty;
    }
}


// ************************************************************************* //
