/*--------------------------------*- C++ -*----------------------------------*\
  =========                 |
  \\      /  F ield         | OpenFOAM: The Open Source CFD Toolbox
   \\    /   O peration     | Website:  https://openfoam.org
    \\  /    A nd           | Version:  7
     \\/     M anipulation  |
\*---------------------------------------------------------------------------*/
FoamFile
{
    version     2.0;
    format      ascii;
    class       volScalarField;
    location    "300";
    object      k;
}
// * * * * * * * * * * * * * * * * * * * * * * * * * * * * * * * * * * * * * //

dimensions      [0 2 -2 0 0 0 0];

internalField   nonuniform List<scalar> 
4500
(
2.10711
1.99003
1.89804
1.8345
1.78632
1.74875
1.71881
1.69443
1.67421
1.65718
1.64266
1.63012
1.61911
1.60919
1.6001
1.59221
1.58708
1.58783
1.59834
1.62099
1.65462
1.69481
1.73652
1.77657
1.8139
1.84873
1.88159
1.91285
1.94262
1.97082
1.99721
2.02149
2.04334
2.06251
2.07884
2.09231
2.10306
2.11136
2.11754
2.12198
2.12504
2.12707
2.12834
2.12909
2.12949
2.12967
2.1297
2.12965
2.12953
2.12939
2.12921
2.12903
2.12885
2.12867
2.1285
2.12834
2.12817
2.12802
2.12787
2.12771
2.12757
2.12743
2.12731
2.1272
2.12709
2.12699
2.12689
2.12679
2.12669
2.12659
2.12648
2.12638
2.1263
2.12625
2.12623
1.10354
1.6732
1.83791
1.85191
1.83283
1.809
1.78664
1.7669
1.74973
1.73483
1.72186
1.71048
1.70035
1.69109
1.68254
1.67516
1.67066
1.67202
1.68339
1.70763
1.74332
1.78509
1.82713
1.86635
1.90248
1.93647
1.96921
2.00115
2.03235
2.06259
2.0915
2.11864
2.14352
2.16567
2.18471
2.20041
2.21273
2.22182
2.22809
2.23209
2.23447
2.23579
2.23645
2.23674
2.2368
2.23674
2.2366
2.23642
2.2362
2.23598
2.23573
2.23549
2.23526
2.23504
2.23482
2.23462
2.23442
2.23423
2.23405
2.23387
2.23369
2.23352
2.23336
2.23322
2.23308
2.23295
2.23283
2.23272
2.2326
2.23248
2.23236
2.23225
2.23216
2.2321
2.23207
0.644943
1.23225
1.53537
1.63719
1.66542
1.66864
1.66317
1.65482
1.64581
1.63702
1.62879
1.62122
1.61419
1.60745
1.60067
1.59382
1.58779
1.585
1.58996
1.60684
1.636
1.67318
1.71275
1.7514
1.7887
1.82548
1.86249
1.90002
1.9379
1.97568
2.01271
2.0482
2.08131
2.1112
2.13716
2.1587
2.17566
2.18822
2.19693
2.20258
2.20601
2.20797
2.20901
2.20949
2.20963
2.20956
2.20936
2.20907
2.20873
2.20838
2.20801
2.20765
2.20729
2.20694
2.2066
2.2063
2.20601
2.20573
2.20546
2.20517
2.20489
2.20462
2.20436
2.20411
2.20389
2.20368
2.20351
2.20336
2.20323
2.20308
2.20292
2.20276
2.20262
2.20252
2.20246
0.463615
0.893401
1.25805
1.43575
1.5127
1.54555
1.55894
1.56332
1.56337
1.56131
1.55827
1.55481
1.55111
1.54699
1.54193
1.53526
1.52702
1.51913
1.51661
1.52537
1.54807
1.58203
1.62185
1.66366
1.70631
1.75007
1.79531
1.842
1.88973
1.93776
1.98515
2.03078
2.0735
2.11218
2.14586
2.17389
2.19608
2.21269
2.22441
2.23222
2.23716
2.24013
2.2418
2.24266
2.24299
2.24298
2.24276
2.24239
2.24194
2.24146
2.24097
2.24048
2.24
2.23952
2.23906
2.23864
2.23825
2.23788
2.23752
2.23713
2.23674
2.23635
2.23599
2.23564
2.23532
2.23504
2.23482
2.23464
2.23448
2.23431
2.2341
2.23388
2.23368
2.23354
2.23346
0.39407
0.646738
0.998478
1.23088
1.35547
1.4206
1.45545
1.47455
1.48512
1.49089
1.49385
1.49511
1.49521
1.49403
1.49082
1.48429
1.47359
1.46031
1.45013
1.45094
1.46808
1.50072
1.54371
1.59217
1.64371
1.69766
1.75377
1.8117
1.87078
1.93006
1.98836
2.04437
2.0967
2.14403
2.18525
2.21966
2.24703
2.26773
2.28257
2.2927
2.29927
2.30335
2.30575
2.30704
2.3076
2.30769
2.30747
2.30704
2.3065
2.30592
2.30532
2.30471
2.30411
2.30351
2.30294
2.30243
2.30195
2.3015
2.30104
2.30056
2.30007
2.29958
2.29911
2.29867
2.29827
2.29792
2.29765
2.29744
2.29726
2.29706
2.29682
2.29654
2.29629
2.29611
2.29601
0.370615
0.488904
0.769298
1.02349
1.18836
1.28645
1.34496
1.38088
1.40365
1.41853
1.4285
1.43528
1.43977
1.44201
1.44097
1.43478
1.42185
1.40354
1.38629
1.38008
1.39308
1.42652
1.47533
1.53323
1.59609
1.66201
1.73013
1.79981
1.87028
1.94049
2.00916
2.07486
2.13608
2.19141
2.23966
2.28007
2.31242
2.33713
2.35509
2.36755
2.37581
2.38104
2.38419
2.38594
2.38676
2.38697
2.38677
2.38631
2.38569
2.38502
2.38433
2.38363
2.38293
2.38223
2.38156
2.38096
2.3804
2.37988
2.37934
2.37878
2.3782
2.37763
2.37707
2.37655
2.37608
2.37567
2.37536
2.37512
2.37492
2.3747
2.37442
2.37409
2.37379
2.37358
2.37346
0.364546
0.403111
0.587006
0.823639
1.01304
1.14094
1.22397
1.27842
1.31506
1.34045
1.35856
1.37177
1.38139
1.3876
1.38921
1.38385
1.36936
1.34696
1.32388
1.31212
1.32265
1.35876
1.41538
1.48441
1.55969
1.63803
1.71802
1.79892
1.87996
1.96011
2.03812
2.11252
2.18177
2.2444
2.29917
2.34527
2.38246
2.41115
2.43227
2.44714
2.45714
2.46358
2.46752
2.46976
2.47087
2.47122
2.47107
2.47059
2.46993
2.46919
2.46842
2.46764
2.46686
2.46607
2.46532
2.46465
2.46403
2.46343
2.46283
2.4622
2.46155
2.4609
2.46027
2.45968
2.45914
2.45869
2.45834
2.45808
2.45786
2.45761
2.4573
2.45694
2.4566
2.45635
2.45621
0.364603
0.363346
0.460993
0.646578
0.836781
0.98571
1.09153
1.16521
1.21703
1.25427
1.28169
1.30232
1.31788
1.32876
1.33368
1.3299
1.31488
1.28981
1.26263
1.24709
1.25672
1.29684
1.36226
1.44293
1.5306
1.62083
1.71182
1.80285
1.89327
1.9822
2.06843
2.15057
2.22706
2.29641
2.35734
2.40897
2.45099
2.48375
2.50817
2.52558
2.53746
2.54521
2.55003
2.55282
2.55426
2.55478
2.5547
2.55423
2.55354
2.55276
2.55193
2.55109
2.55023
2.54938
2.54856
2.54782
2.54714
2.54649
2.54584
2.54514
2.54442
2.54371
2.54302
2.54237
2.54178
2.54128
2.5409
2.54062
2.54039
2.54012
2.53978
2.53938
2.539
2.53873
2.53857
0.366685
0.347483
0.386683
0.507131
0.671667
0.826389
0.94925
1.04089
1.10836
1.15845
1.19625
1.22529
1.24767
1.26401
1.27301
1.27178
1.25759
1.23161
1.20235
1.18487
1.19489
1.23962
1.31384
1.40568
1.50489
1.60593
1.70672
1.80662
1.9052
2.00175
2.0952
2.18421
2.2673
2.34294
2.40981
2.46694
2.51391
2.55096
2.57893
2.59914
2.61309
2.62232
2.62813
2.63157
2.6334
2.63414
2.63417
2.63374
2.63305
2.63223
2.63136
2.63047
2.62955
2.62864
2.62776
2.62696
2.62624
2.62554
2.62483
2.62409
2.62332
2.62255
2.6218
2.6211
2.62047
2.61993
2.61952
2.61922
2.61897
2.61868
2.61832
2.61789
2.61748
2.61718
2.617
0.369317
0.342581
0.348917
0.412156
0.531962
0.67282
0.801901
0.907126
0.989075
1.05222
1.10113
1.13942
1.16948
1.1921
1.20609
1.20854
1.19671
1.17181
1.14259
1.12497
1.13631
1.18555
1.26773
1.36954
1.479
1.58953
1.69882
1.80636
1.91195
2.01507
2.11483
2.21
2.29915
2.38076
2.45347
2.51619
2.56835
2.61001
2.64188
2.66521
2.68154
2.69247
2.69945
2.70366
2.70597
2.707
2.70718
2.70682
2.70614
2.70531
2.70441
2.70348
2.70252
2.70156
2.70063
2.69978
2.69901
2.69828
2.69753
2.69673
2.69592
2.6951
2.69431
2.69357
2.69289
2.69232
2.69188
2.69156
2.69129
2.69099
2.69061
2.69016
2.68972
2.6894
2.6892
0.371958
0.342445
0.332102
0.356565
0.428369
0.537785
0.658013
0.768345
0.860994
0.935937
0.995902
1.04393
1.08233
1.11201
1.1319
1.13924
1.1314
1.1096
1.08256
1.06647
1.07972
1.13283
1.22155
1.3317
1.44985
1.5685
1.68505
1.7991
1.91064
2.01941
2.12469
2.22539
2.32014
2.40749
2.48598
2.55444
2.6121
2.65878
2.69501
2.7219
2.74098
2.75392
2.7623
2.76743
2.77033
2.77173
2.77212
2.77187
2.77123
2.77041
2.7695
2.76854
2.76755
2.76654
2.76557
2.76469
2.76388
2.7631
2.76232
2.76149
2.76063
2.75978
2.75895
2.75816
2.75745
2.75684
2.75638
2.75604
2.75576
2.75544
2.75504
2.75457
2.75411
2.75377
2.75354
0.374409
0.344309
0.325896
0.328084
0.362098
0.432747
0.529166
0.632413
0.728533
0.811705
0.88128
0.938711
0.985694
1.02299
1.04961
1.06299
1.06072
1.04398
1.02114
1.00808
1.02362
1.07967
1.17315
1.28974
1.41495
1.54037
1.66304
1.78256
1.89914
2.01273
2.12281
2.22845
2.32841
2.42125
2.50552
2.5799
2.6434
2.69559
2.7367
2.76768
2.78997
2.8053
2.81536
2.82164
2.82529
2.82714
2.82782
2.82772
2.82716
2.82637
2.82546
2.82449
2.82347
2.82244
2.82143
2.82051
2.81967
2.81886
2.81804
2.81718
2.81629
2.8154
2.81454
2.81372
2.81298
2.81234
2.81185
2.81149
2.81119
2.81086
2.81045
2.80996
2.80949
2.80912
2.80887
0.376595
0.346935
0.32478
0.315189
0.325142
0.361912
0.426573
0.510143
0.599354
0.684169
0.759755
0.824883
0.879844
0.924801
0.95867
0.979027
0.983701
0.973766
0.956931
0.948268
0.966385
1.02433
1.1207
1.24174
1.37234
1.50324
1.63097
1.75505
1.87584
1.99349
2.1077
2.21773
2.32247
2.42058
2.51058
2.59105
2.66077
2.71897
2.76558
2.80126
2.82732
2.84551
2.85763
2.86532
2.86989
2.87234
2.87338
2.87349
2.87306
2.87232
2.87143
2.87046
2.86943
2.86838
2.86735
2.86639
2.86552
2.86468
2.86384
2.86295
2.86204
2.86112
2.86023
2.85938
2.8586
2.85794
2.85742
2.85704
2.85672
2.85638
2.85596
2.85546
2.85497
2.85459
2.85431
0.378494
0.349749
0.326042
0.310425
0.306797
0.320311
0.355501
0.412198
0.483845
0.561111
0.63642
0.70547
0.766382
0.818116
0.859114
0.886938
0.899523
0.897757
0.88841
0.885326
0.906336
0.965262
1.06268
1.18619
1.32054
1.45566
1.58748
1.7153
1.83954
1.96055
2.07826
2.19213
2.30122
2.4043
2.49995
2.58663
2.66291
2.72768
2.78045
2.82153
2.85203
2.87364
2.88825
2.89768
2.90342
2.90662
2.90813
2.90853
2.90826
2.90761
2.90677
2.90581
2.90478
2.90371
2.90267
2.90169
2.90079
2.89993
2.89906
2.89815
2.89722
2.89628
2.89536
2.89449
2.89369
2.893
2.89245
2.89205
2.89171
2.89136
2.89093
2.89043
2.88993
2.88952
2.88921
0.380104
0.352469
0.328352
0.309742
0.298826
0.298553
0.31258
0.343818
0.391991
0.452697
0.519398
0.586194
0.649018
0.705142
0.752075
0.787037
0.807838
0.815011
0.814183
0.817605
0.841845
0.901053
0.997902
1.12197
1.25844
1.39657
1.53157
1.66239
1.78941
1.91314
2.03372
2.15085
2.2638
2.37152
2.47262
2.56557
2.6487
2.72056
2.7802
2.82747
2.86318
2.88888
2.90654
2.91811
2.9253
2.92946
2.93157
2.93235
2.93231
2.93179
2.93101
2.93009
2.92907
2.928
2.92694
2.92595
2.92502
2.92414
2.92325
2.92233
2.92138
2.92043
2.91949
2.9186
2.91778
2.91706
2.91649
2.91606
2.9157
2.91534
2.91491
2.9144
2.91389
2.91347
2.91313
0.381432
0.354953
0.331036
0.311052
0.296302
0.28839
0.289475
0.302114
0.328313
0.368068
0.418677
0.47564
0.53425
0.590412
0.640477
0.680974
0.709265
0.725261
0.733316
0.743752
0.771488
0.830505
0.925432
1.0483
1.18529
1.32524
1.46256
1.5957
1.72488
1.85072
1.97358
2.09338
2.20966
2.32155
2.42784
2.52697
2.61717
2.69661
2.76384
2.81818
2.85997
2.89056
2.9119
2.92612
2.93512
2.94049
2.94338
2.94465
2.94491
2.94457
2.94389
2.94302
2.94203
2.94097
2.93991
2.9389
2.93796
2.93705
2.93616
2.93522
2.93426
2.9333
2.93235
2.93144
2.9306
2.92986
2.92926
2.9288
2.92843
2.92805
2.92762
2.92711
2.9266
2.92616
2.92579
0.382496
0.357126
0.333732
0.313269
0.296566
0.284515
0.278275
0.279385
0.28963
0.310487
0.342256
0.383472
0.431109
0.481283
0.529797
0.572505
0.606093
0.62957
0.645874
0.663154
0.694345
0.752765
0.844651
0.964715
1.10066
1.24122
1.38001
1.51482
1.64562
1.77303
1.89758
2.01946
2.13847
2.254
2.36504
2.47016
2.5675
2.65494
2.73049
2.79281
2.84168
2.87808
2.9039
2.92136
2.93263
2.93951
2.94339
2.9453
2.94594
2.94584
2.9453
2.9445
2.94356
2.94252
2.94147
2.94045
2.9395
2.93858
2.93767
2.93673
2.93577
2.9348
2.93384
2.93292
2.93206
2.93131
2.93068
2.9302
2.9298
2.92941
2.92897
2.92847
2.92795
2.9275
2.9271
0.383317
0.358954
0.336237
0.315805
0.298201
0.283951
0.273671
0.268176
0.268537
0.276002
0.291694
0.316097
0.348544
0.386994
0.42818
0.468111
0.503066
0.5311
0.553652
0.576571
0.610515
0.667682
0.755437
0.871143
1.00445
1.14435
1.28372
1.41959
1.55149
1.67997
1.80568
1.92905
2.05014
2.16867
2.28392
2.39465
2.49906
2.5948
2.67935
2.75063
2.80768
2.85098
2.88219
2.90364
2.91771
2.92649
2.93163
2.93434
2.93549
2.93569
2.93534
2.93465
2.93377
2.93277
2.93174
2.93072
2.92976
2.92883
2.92792
2.92698
2.92601
2.92504
2.92408
2.92315
2.92228
2.92151
2.92086
2.92034
2.91992
2.91952
2.91908
2.91858
2.91806
2.9176
2.91718
0.383926
0.360429
0.338437
0.318319
0.300425
0.285071
0.272597
0.26342
0.258096
0.257353
0.262055
0.273045
0.290829
0.315139
0.344547
0.376431
0.40762
0.43575
0.460945
0.486942
0.521876
0.576436
0.658603
0.768191
0.897068
1.03484
1.17377
1.31003
1.44257
1.57167
1.69805
1.82231
1.94484
2.06566
2.18442
2.30021
2.41141
2.5156
2.60976
2.691
2.75745
2.80886
2.84657
2.87288
2.89043
2.90158
2.90829
2.91202
2.91382
2.91442
2.91431
2.91377
2.91298
2.91203
2.91103
2.91003
2.90906
2.90813
2.90721
2.90627
2.90531
2.90434
2.90338
2.90245
2.90157
2.90078
2.90011
2.89957
2.89912
2.8987
2.89826
2.89777
2.89725
2.89679
2.89633
0.384356
0.361567
0.340271
0.320613
0.302786
0.286971
0.273357
0.262155
0.253642
0.248183
0.246261
0.248456
0.25536
0.267365
0.284319
0.305214
0.328256
0.351618
0.374797
0.399987
0.432894
0.482409
0.556671
0.657705
0.779802
0.913522
1.05069
1.1865
1.31912
1.44842
1.575
1.69963
1.82292
1.94527
2.06674
2.18687
2.30439
2.41696
2.52122
2.61343
2.6906
2.75152
2.79699
2.82922
2.85102
2.86513
2.87381
2.87883
2.88145
2.88256
2.88276
2.88241
2.88173
2.88086
2.8799
2.87892
2.87796
2.87702
2.8761
2.87517
2.87421
2.87325
2.8723
2.87137
2.87049
2.86969
2.869
2.86843
2.86795
2.86752
2.86707
2.86658
2.86607
2.8656
2.86513
0.384645
0.3624
0.341721
0.322574
0.305012
0.28912
0.274988
0.262719
0.252442
0.244331
0.238618
0.235608
0.23567
0.239168
0.246316
0.25697
0.270505
0.28606
0.303297
0.323553
0.350725
0.391838
0.454805
0.543701
0.655563
0.782384
0.915758
1.04984
1.18176
1.31074
1.43709
1.56157
1.68499
1.80808
1.93137
2.05494
2.17807
2.29877
2.41347
2.5176
2.60689
2.6789
2.7336
2.77297
2.79998
2.81772
2.82885
2.83547
2.83912
2.84089
2.84148
2.84138
2.84085
2.84007
2.83917
2.83821
2.83727
2.83634
2.83542
2.83449
2.83355
2.8326
2.83165
2.83073
2.82985
2.82904
2.82833
2.82774
2.82724
2.82678
2.82633
2.82584
2.82534
2.82487
2.82437
0.384827
0.362976
0.342805
0.324148
0.306947
0.291198
0.276922
0.264155
0.252946
0.243368
0.235523
0.229551
0.225631
0.22397
0.224749
0.228033
0.233706
0.241527
0.251485
0.264497
0.283277
0.313059
0.361096
0.433271
0.529948
0.645462
0.771723
0.901873
1.03176
1.1596
1.28515
1.40894
1.53187
1.65493
1.77908
1.90507
2.03292
2.16122
2.28652
2.40349
2.5064
2.59122
2.65682
2.70474
2.73805
2.76022
2.77436
2.78297
2.7879
2.79047
2.79156
2.79177
2.79143
2.79077
2.78993
2.78902
2.7881
2.78718
2.78626
2.78535
2.78442
2.78348
2.78255
2.78164
2.78076
2.77995
2.77923
2.77861
2.77808
2.77761
2.77714
2.77666
2.77617
2.77569
2.77518
0.384935
0.363349
0.343566
0.325334
0.308509
0.293015
0.278815
0.265893
0.254251
0.243905
0.234889
0.227256
0.221081
0.216458
0.213477
0.212199
0.212621
0.214709
0.218561
0.224785
0.23511
0.253098
0.284578
0.336254
0.41202
0.51004
0.62391
0.746279
0.871616
0.996776
1.12055
1.24296
1.36471
1.48694
1.611
1.73829
1.86978
2.00498
2.14087
2.27151
2.38958
2.48909
2.56742
2.62547
2.66633
2.69383
2.71162
2.72264
2.72914
2.7327
2.73441
2.73499
2.73488
2.73437
2.73363
2.73277
2.73187
2.73097
2.73007
2.72916
2.72825
2.72733
2.72641
2.72551
2.72464
2.72383
2.7231
2.72246
2.72191
2.72141
2.72094
2.72046
2.71997
2.71949
2.71897
0.384994
0.363574
0.344062
0.326166
0.309682
0.294477
0.280464
0.267588
0.255813
0.24512
0.235503
0.226971
0.219543
0.213251
0.20813
0.204204
0.201476
0.199944
0.199681
0.201028
0.204935
0.213499
0.230593
0.26192
0.313284
0.387296
0.481471
0.589907
0.70621
0.825707
0.945807
1.06557
1.18521
1.30571
1.42867
1.55614
1.6901
1.83133
1.97765
2.12276
2.25756
2.37372
2.46675
2.53662
2.58634
2.62017
2.6423
2.65621
2.66458
2.66933
2.67179
2.67283
2.673
2.67266
2.67203
2.67124
2.67038
2.6695
2.66861
2.66772
2.66682
2.66591
2.66502
2.66413
2.66328
2.66247
2.66173
2.66107
2.6605
2.65998
2.65949
2.65901
2.65852
2.65805
2.65752
0.385025
0.363699
0.344363
0.326707
0.310498
0.295561
0.281772
0.269042
0.257306
0.246517
0.236644
0.227666
0.219576
0.212371
0.206055
0.200629
0.196087
0.192422
0.189666
0.18798
0.187828
0.190283
0.197483
0.21308
0.242115
0.289513
0.357461
0.44399
0.544236
0.652801
0.765588
0.880297
0.996167
1.11368
1.23441
1.36087
1.49614
1.64253
1.79909
1.95941
2.11252
2.2473
2.35697
2.44033
2.50025
2.54139
2.56854
2.58582
2.59638
2.60254
2.60587
2.60745
2.60795
2.60781
2.6073
2.60659
2.60578
2.60492
2.60405
2.60317
2.60229
2.60141
2.60053
2.59966
2.59882
2.59802
2.59728
2.59661
2.59602
2.59548
2.59498
2.59449
2.594
2.59353
2.59299
0.385039
0.363763
0.344529
0.327031
0.311019
0.296298
0.282719
0.270166
0.25855
0.247804
0.237875
0.228725
0.220325
0.212656
0.205702
0.19945
0.193887
0.189001
0.184795
0.181335
0.178824
0.177761
0.179184
0.185009
0.198321
0.223271
0.264038
0.322931
0.39907
0.488983
0.588323
0.693522
0.802545
0.914948
1.03188
1.15608
1.29163
1.44248
1.60922
1.78552
1.95835
2.11348
2.24147
2.33978
2.41103
2.46032
2.49312
2.51418
2.52722
2.53495
2.53928
2.54147
2.54234
2.54243
2.54206
2.54143
2.54067
2.53985
2.539
2.53814
2.53727
2.53641
2.53555
2.5347
2.53387
2.53308
2.53234
2.53167
2.53105
2.5305
2.52998
2.52948
2.529
2.52852
2.52798
0.385045
0.363793
0.344613
0.327207
0.311323
0.296757
0.283344
0.270952
0.259476
0.248832
0.238951
0.229781
0.221278
0.213409
0.206148
0.199472
0.19336
0.187796
0.18277
0.1783
0.174465
0.171477
0.169799
0.170327
0.174609
0.185045
0.204867
0.237579
0.285721
0.349672
0.427585
0.516392
0.613312
0.716914
0.82762
0.948069
1.08306
1.23806
1.4152
1.60813
1.80163
1.97814
2.12543
2.2395
2.32276
2.38073
2.41954
2.44465
2.46035
2.46979
2.47518
2.47803
2.47931
2.47964
2.47942
2.47888
2.47818
2.47739
2.47656
2.47572
2.47487
2.47402
2.47318
2.47235
2.47154
2.47076
2.47002
2.46934
2.46872
2.46815
2.46761
2.46711
2.46661
2.46614
2.46559
0.385047
0.363805
0.344651
0.327293
0.311482
0.297013
0.283715
0.271447
0.260093
0.249557
0.239761
0.230639
0.22214
0.214219
0.20684
0.199974
0.193594
0.187679
0.182212
0.177189
0.172631
0.16862
0.165346
0.163195
0.16287
0.165529
0.172929
0.187478
0.21202
0.249167
0.300408
0.365662
0.443606
0.532981
0.633861
0.748645
0.882444
1.0417
1.22946
1.43903
1.65291
1.85035
2.0165
2.14602
2.24107
2.30759
2.35237
2.38151
2.39986
2.411
2.41747
2.42098
2.42267
2.42324
2.42317
2.42272
2.42207
2.42131
2.4205
2.41968
2.41884
2.41801
2.41719
2.41637
2.41558
2.41481
2.41409
2.4134
2.41277
2.41218
2.41164
2.41112
2.41062
2.41014
2.40958
0.385048
0.36381
0.344666
0.32733
0.311556
0.29714
0.28391
0.271721
0.260452
0.250001
0.240283
0.231225
0.222767
0.214858
0.207457
0.200527
0.194037
0.187962
0.182279
0.176977
0.172051
0.167524
0.163469
0.160041
0.157542
0.156497
0.157747
0.162565
0.172743
0.190581
0.218658
0.259356
0.314447
0.385059
0.472553
0.579722
0.711686
0.874922
1.07242
1.29664
1.52808
1.74342
1.9257
2.06849
2.17373
2.24768
2.29766
2.33033
2.35101
2.36366
2.37108
2.37518
2.37722
2.37801
2.37806
2.37769
2.37709
2.37636
2.37557
2.37476
2.37394
2.37312
2.3723
2.37151
2.37073
2.36997
2.36925
2.36857
2.36793
2.36734
2.36677
2.36624
2.36573
2.36524
2.36468
0.385048
0.363811
0.344671
0.327343
0.311584
0.297191
0.283992
0.271841
0.260616
0.250212
0.24054
0.231524
0.2231
0.215215
0.207821
0.20088
0.194357
0.188225
0.182459
0.177041
0.17196
0.167217
0.162839
0.158895
0.15553
0.153008
0.151779
0.152563
0.156459
0.165065
0.180591
0.205896
0.244356
0.299547
0.375079
0.475022
0.604694
0.770157
0.973788
1.2072
1.44962
1.67618
1.86866
2.0199
2.13167
2.21041
2.26378
2.29875
2.32096
2.33461
2.34265
2.34714
2.34942
2.35036
2.35049
2.35017
2.3496
2.34889
2.34811
2.34731
2.34649
2.34568
2.34488
2.34409
2.34333
2.34259
2.34187
2.3412
2.34055
2.33994
2.33937
2.33882
2.33829
2.33779
2.33723
0.385048
0.363811
0.344671
0.327343
0.311584
0.297191
0.283992
0.271841
0.260616
0.250212
0.24054
0.231524
0.2231
0.215215
0.207821
0.20088
0.194357
0.188224
0.182458
0.17704
0.171958
0.167214
0.162833
0.158883
0.155507
0.152965
0.151702
0.152426
0.15622
0.164658
0.179922
0.204848
0.24282
0.297451
0.372429
0.471902
0.601251
0.766574
0.970255
1.20388
1.44661
1.6735
1.8663
2.01782
2.12982
2.20873
2.26222
2.29729
2.31956
2.33325
2.34133
2.34584
2.34813
2.34907
2.34921
2.3489
2.34833
2.34762
2.34684
2.34603
2.34522
2.34441
2.34361
2.34283
2.34208
2.34134
2.34064
2.33996
2.33931
2.33869
2.3381
2.33753
2.33699
2.33648
2.33591
0.385048
0.36381
0.344666
0.32733
0.311556
0.29714
0.28391
0.271721
0.260452
0.250001
0.240283
0.231225
0.222767
0.214858
0.207457
0.200527
0.194037
0.187961
0.182278
0.176974
0.172045
0.167512
0.163443
0.159989
0.157445
0.156315
0.157418
0.161983
0.171743
0.188928
0.216069
0.255566
0.309273
0.378467
0.46466
0.570764
0.702001
0.864931
1.06259
1.28737
1.51965
1.73591
1.91907
2.06262
2.16847
2.24288
2.2932
2.32612
2.34697
2.35974
2.36725
2.3714
2.37348
2.37429
2.37435
2.37399
2.37339
2.37267
2.37188
2.37106
2.37024
2.36943
2.36863
2.36785
2.3671
2.36637
2.36567
2.365
2.36434
2.36371
2.3631
2.36251
2.36196
2.36144
2.36086
0.385047
0.363805
0.344651
0.327293
0.311482
0.297013
0.283715
0.271447
0.260093
0.249557
0.239761
0.23064
0.22214
0.214219
0.206841
0.199974
0.193594
0.187678
0.182209
0.177182
0.172616
0.168586
0.165275
0.163053
0.162595
0.165017
0.172005
0.185876
0.209385
0.245119
0.294649
0.358052
0.434176
0.521894
0.62135
0.734989
0.867999
1.02693
1.21493
1.42529
1.64033
1.83906
2.00646
2.13706
2.23298
2.30016
2.34542
2.3749
2.3935
2.40482
2.41141
2.415
2.41673
2.41734
2.41728
2.41685
2.4162
2.41545
2.41464
2.41381
2.41298
2.41216
2.41135
2.41058
2.40983
2.4091
2.4084
2.40773
2.40707
2.40642
2.40579
2.40518
2.40461
2.40408
2.4035
0.385045
0.363793
0.344613
0.327207
0.311323
0.296757
0.283344
0.270953
0.259477
0.248833
0.238952
0.229781
0.221279
0.21341
0.206149
0.199472
0.193359
0.187793
0.182763
0.178284
0.174427
0.171394
0.169624
0.16997
0.173915
0.183755
0.202602
0.23387
0.280137
0.341964
0.41774
0.504562
0.599755
0.701898
0.811401
0.930894
1.06522
1.21999
1.39743
1.59123
1.78604
1.96402
2.11274
2.22806
2.31231
2.37104
2.41041
2.43592
2.45191
2.46156
2.4671
2.47004
2.47137
2.47174
2.47154
2.47102
2.47032
2.46953
2.4687
2.46785
2.46701
2.46618
2.46537
2.4646
2.46385
2.46313
2.46243
2.46175
2.46107
2.46041
2.45976
2.45913
2.45855
2.45801
2.45743
0.385039
0.363763
0.344529
0.327031
0.311019
0.296299
0.28272
0.270167
0.258551
0.247805
0.237876
0.228726
0.220326
0.212656
0.205702
0.199449
0.193884
0.188994
0.18478
0.181298
0.178738
0.17757
0.178774
0.184168
0.1967
0.220364
0.25927
0.315853
0.389521
0.477086
0.574357
0.677833
0.78546
0.896743
1.01278
1.1363
1.2714
1.42216
1.5893
1.76651
1.94067
2.09731
2.22678
2.32637
2.39865
2.44873
2.48211
2.50359
2.51693
2.52489
2.52937
2.53166
2.53259
2.53271
2.53236
2.53176
2.53101
2.53018
2.52932
2.52846
2.5276
2.52676
2.52595
2.52517
2.52443
2.52371
2.52301
2.52232
2.52163
2.52095
2.52027
2.51963
2.51903
2.5185
2.51793
0.385025
0.363699
0.344363
0.326708
0.310499
0.295562
0.281774
0.269044
0.257308
0.246519
0.236645
0.227668
0.219576
0.21237
0.206053
0.200625
0.196079
0.192407
0.189632
0.1879
0.187642
0.189863
0.196573
0.211241
0.238717
0.28387
0.349114
0.432856
0.530565
0.636982
0.748047
0.861412
0.976249
1.09298
1.2131
1.33914
1.47421
1.62068
1.77774
1.93901
2.09343
2.22968
2.34078
2.42539
2.4863
2.5282
2.55591
2.5736
2.58447
2.59085
2.59434
2.59601
2.59656
2.59645
2.59597
2.59528
2.59448
2.59362
2.59274
2.59185
2.59098
2.59013
2.58932
2.58854
2.5878
2.58708
2.58639
2.58569
2.58498
2.58427
2.58358
2.58292
2.58231
2.58178
2.58122
0.384994
0.363574
0.344063
0.326167
0.309684
0.294479
0.280467
0.267591
0.255816
0.245122
0.235505
0.226971
0.219541
0.213247
0.208123
0.204193
0.201458
0.199911
0.199611
0.200862
0.204549
0.212625
0.228724
0.258314
0.307138
0.378083
0.469164
0.574837
0.688874
0.80661
0.925379
1.04416
1.16308
1.28308
1.4057
1.53298
1.66694
1.80844
1.95537
2.10146
2.23753
2.35508
2.44944
2.52046
2.5711
2.60563
2.62826
2.64256
2.65123
2.65621
2.65882
2.65994
2.66016
2.65984
2.65924
2.65847
2.65762
2.65673
2.65583
2.65492
2.65404
2.65319
2.65238
2.6516
2.65086
2.65015
2.64945
2.64874
2.64802
2.64728
2.64656
2.64589
2.64528
2.64475
2.64422
0.384935
0.36335
0.343567
0.325335
0.308511
0.293018
0.278818
0.265896
0.254254
0.243907
0.234889
0.227253
0.221074
0.216446
0.21346
0.212174
0.212584
0.214645
0.218423
0.224458
0.234339
0.251381
0.281127
0.330123
0.402532
0.497098
0.6079
0.727815
0.851288
0.975076
1.09786
1.21959
1.34089
1.46284
1.58677
1.71409
1.84577
1.98139
2.118
2.24965
2.36894
2.46973
2.54928
2.60836
2.65003
2.67815
2.6964
2.70778
2.71456
2.71833
2.72019
2.72084
2.72076
2.72027
2.71956
2.71873
2.71784
2.71692
2.71599
2.71508
2.71419
2.71334
2.71252
2.71175
2.71101
2.7103
2.7096
2.70888
2.70814
2.70738
2.70664
2.70595
2.70535
2.70484
2.70433
0.384827
0.362977
0.342807
0.324151
0.30695
0.291202
0.276926
0.264158
0.252948
0.243368
0.235519
0.229541
0.225614
0.223944
0.224711
0.227983
0.233635
0.241409
0.251232
0.263901
0.281882
0.310082
0.355499
0.424163
0.517037
0.629104
0.752595
0.880677
1.00908
1.13588
1.26072
1.38408
1.50677
1.62974
1.75395
1.88014
2.00834
2.13721
2.26331
2.38129
2.48536
2.57136
2.63804
2.68687
2.72089
2.74359
2.75813
2.76707
2.77227
2.77504
2.77626
2.77652
2.7762
2.77556
2.77476
2.77388
2.77296
2.77202
2.77108
2.77015
2.76925
2.7684
2.76759
2.76682
2.76609
2.76539
2.76468
2.76395
2.76318
2.7624
2.76164
2.76095
2.76035
2.75986
2.75939
0.384645
0.362402
0.341724
0.322578
0.305017
0.289125
0.274992
0.262721
0.252441
0.244324
0.238604
0.235584
0.235632
0.239113
0.246242
0.256876
0.270382
0.285863
0.302879
0.322567
0.348493
0.387315
0.446859
0.531675
0.639597
0.763172
0.894128
1.02651
1.15727
1.28548
1.41136
1.53559
1.65894
1.78212
1.90562
2.02954
2.15318
2.27454
2.39009
2.49523
2.58562
2.6587
2.71436
2.75451
2.78212
2.80031
2.81179
2.81871
2.82262
2.82457
2.82528
2.82521
2.82469
2.82394
2.82307
2.82215
2.8212
2.82024
2.81928
2.81835
2.81745
2.8166
2.81579
2.81503
2.81431
2.81362
2.81291
2.81216
2.81137
2.81057
2.8098
2.8091
2.80851
2.80805
2.80761
0.384357
0.361569
0.340275
0.320619
0.302791
0.286976
0.273359
0.262154
0.253634
0.248166
0.24623
0.248405
0.255285
0.267261
0.284186
0.305059
0.328069
0.351332
0.37419
0.398551
0.429721
0.476259
0.546446
0.643065
0.761264
0.892012
1.0271
1.16153
1.29325
1.422
1.5483
1.67284
1.79622
1.91879
2.04062
2.16122
2.27936
2.39268
2.49783
2.59103
2.66922
2.73111
2.77741
2.8103
2.83261
2.84709
2.85608
2.86137
2.86423
2.86553
2.86582
2.8655
2.86481
2.86396
2.86304
2.86209
2.86113
2.86016
2.85919
2.85826
2.85736
2.85651
2.85571
2.85496
2.85425
2.85356
2.85285
2.85209
2.85128
2.85046
2.84968
2.84899
2.84841
2.84797
2.84758
0.383927
0.360433
0.338442
0.318326
0.300431
0.285075
0.272596
0.263411
0.258075
0.257313
0.26199
0.272947
0.290692
0.314962
0.344339
0.37621
0.40738
0.435395
0.46016
0.485057
0.517767
0.568728
0.646316
0.751318
0.87644
1.01153
1.14869
1.28383
1.41569
1.54442
1.67066
1.79498
1.91773
2.0389
2.15813
2.27451
2.38642
2.49141
2.58647
2.66868
2.73607
2.78834
2.82676
2.85364
2.87159
2.88306
2.89004
2.89403
2.89606
2.89683
2.89679
2.89626
2.89546
2.89453
2.89357
2.89261
2.89163
2.89065
2.88968
2.88875
2.88786
2.88702
2.88622
2.88548
2.88478
2.8841
2.88339
2.88262
2.8818
2.88096
2.88017
2.87949
2.87893
2.87852
2.87817
0.383319
0.358958
0.336244
0.315812
0.298206
0.283951
0.273661
0.268152
0.268489
0.275922
0.291572
0.315926
0.348322
0.386732
0.4279
0.467844
0.502807
0.530716
0.552738
0.574287
0.605542
0.658568
0.741368
0.852435
0.98218
1.11968
1.25754
1.39251
1.52391
1.65217
1.77788
1.90142
2.02285
2.14184
2.25765
2.36906
2.47424
2.57082
2.65627
2.72847
2.78638
2.83043
2.86226
2.88418
2.89859
2.90763
2.913
2.91595
2.91733
2.91769
2.9174
2.9167
2.9158
2.91483
2.91384
2.91287
2.91189
2.91091
2.90994
2.90901
2.90812
2.90729
2.90651
2.90578
2.9051
2.90443
2.90372
2.90294
2.9021
2.90125
2.90046
2.89979
2.89926
2.89888
2.89856
0.382499
0.357132
0.333739
0.313276
0.296568
0.284508
0.27825
0.279332
0.289536
0.31034
0.34205
0.383209
0.4308
0.480948
0.529469
0.572226
0.605854
0.629206
0.644889
0.660545
0.688623
0.742442
0.829107
0.944561
1.07716
1.21559
1.3531
1.48718
1.61762
1.74493
1.86959
1.99176
2.11119
2.22727
2.33896
2.44483
2.54298
2.63129
2.70772
2.7709
2.82055
2.85762
2.88396
2.90181
2.91334
2.92044
2.92454
2.92667
2.92754
2.92758
2.92708
2.92627
2.9253
2.92429
2.92329
2.92232
2.92134
2.92036
2.91939
2.91847
2.9176
2.91678
2.91601
2.9153
2.91463
2.91397
2.91326
2.91248
2.91163
2.91078
2.90999
2.90934
2.90882
2.90847
2.9082
0.381436
0.35496
0.331044
0.311056
0.296297
0.288366
0.28942
0.302009
0.328143
0.367829
0.418375
0.475292
0.533873
0.590032
0.640133
0.680716
0.709086
0.724967
0.732322
0.740908
0.76516
0.819202
0.908743
1.02709
1.16096
1.299
1.43523
1.56778
1.69672
1.82257
1.94562
2.0658
2.18259
2.2951
2.40211
2.50204
2.59307
2.67338
2.74146
2.7966
2.83909
2.87027
2.89205
2.90658
2.9158
2.92135
2.92443
2.92593
2.92639
2.92619
2.92554
2.92464
2.92362
2.92259
2.92159
2.92062
2.91965
2.91868
2.91772
2.91681
2.91595
2.91515
2.9144
2.9137
2.91305
2.9124
2.9117
2.91092
2.91006
2.90921
2.90843
2.9078
2.90731
2.90699
2.90676
0.380108
0.352477
0.328359
0.309741
0.298807
0.2985
0.312469
0.34363
0.391722
0.45236
0.519015
0.585788
0.648606
0.704747
0.751742
0.786825
0.807748
0.814827
0.813241
0.814624
0.835074
0.889031
0.98042
1.1001
1.23366
1.37007
1.50413
1.63448
1.76134
1.88515
2.006
2.12357
2.2371
2.3455
2.44738
2.54115
2.62513
2.69784
2.75828
2.80631
2.84264
2.86886
2.88688
2.8987
2.90606
2.91037
2.91266
2.91367
2.91382
2.91344
2.91268
2.91171
2.91066
2.90962
2.90863
2.90767
2.90671
2.90575
2.90481
2.90392
2.90308
2.9023
2.90156
2.90088
2.90025
2.89962
2.89892
2.89814
2.89728
2.89644
2.89568
2.89506
2.8946
2.89431
2.89411
0.3785
0.349757
0.326046
0.310415
0.306753
0.320203
0.355304
0.411905
0.483475
0.560699
0.635991
0.705042
0.765966
0.817732
0.858811
0.886788
0.899539
0.897714
0.887576
0.882313
0.899307
0.952811
1.04478
1.16406
1.29568
1.42924
1.56021
1.68764
1.81179
1.93294
2.05098
2.16534
2.27506
2.37887
2.47532
2.56284
2.63996
2.70556
2.75909
2.80086
2.83192
2.85398
2.8689
2.87853
2.8844
2.88773
2.8894
2.89002
2.88994
2.88942
2.88858
2.88757
2.8865
2.88548
2.8845
2.88356
2.88261
2.88167
2.88075
2.87988
2.87906
2.8783
2.87758
2.87693
2.87631
2.8757
2.87501
2.87424
2.87339
2.87256
2.87181
2.87122
2.87078
2.87052
2.87036
0.376601
0.346943
0.324779
0.315158
0.325047
0.361716
0.426264
0.509747
0.598914
0.683719
0.759315
0.824461
0.879444
0.924443
0.958407
0.978945
0.983831
0.973878
0.95625
0.945325
0.959299
1.01177
1.10277
1.21975
1.34779
1.47723
1.60418
1.72792
1.84865
1.96648
2.08106
2.19162
2.29702
2.39588
2.48669
2.56801
2.63855
2.69755
2.74488
2.78119
2.80775
2.82632
2.83869
2.84655
2.85122
2.85378
2.85496
2.85529
2.85504
2.85443
2.85353
2.8525
2.85143