/*--------------------------------*- C++ -*----------------------------------*\
  =========                 |
  \\      /  F ield         | OpenFOAM: The Open Source CFD Toolbox
   \\    /   O peration     | Website:  https://openfoam.org
    \\  /    A nd           | Version:  7
     \\/     M anipulation  |
\*---------------------------------------------------------------------------*/
FoamFile
{
    version     2.0;
    format      ascii;
    class       volScalarField;
    location    "300";
    object      nut;
}
// * * * * * * * * * * * * * * * * * * * * * * * * * * * * * * * * * * * * * //

dimensions      [0 2 -1 0 0 0 0];

internalField   nonuniform List<scalar> 
4500
(
0.000506064
0.000491803
0.000480303
0.000472195
0.000465952
0.000461027
0.000457063
0.00045381
0.000451094
0.000448794
0.000446824
0.000445118
0.00044362
0.00044227
0.000441018
0.000439855
0.000438898
0.000438456
0.000439038
0.00044114
0.000444876
0.000449805
0.000455204
0.000460498
0.000465428
0.000469971
0.000474198
0.000478175
0.000481939
0.000485495
0.000488831
0.000491917
0.00049472
0.000497209
0.000499362
0.000501169
0.000502636
0.000503791
0.000504669
0.000505314
0.000505769
0.000506079
0.000506278
0.000506401
0.00050647
0.000506505
0.000506518
0.000506517
0.000506507
0.000506492
0.000506472
0.000506452
0.000506431
0.000506411
0.00050639
0.000506371
0.000506352
0.000506334
0.000506316
0.000506298
0.000506281
0.000506265
0.00050625
0.000506236
0.000506224
0.000506211
0.0005062
0.000506188
0.000506176
0.000506164
0.000506151
0.000506139
0.00050613
0.000506123
0.000506119
0.000607327
0.000974335
0.00114372
0.00120841
0.00123497
0.00124672
0.00125196
0.00125409
0.00125464
0.00125437
0.00125367
0.00125275
0.00125166
0.00125034
0.00124861
0.00124634
0.00124378
0.00124182
0.00124262
0.00124853
0.00125994
0.00127501
0.00129133
0.00130762
0.00132386
0.00134044
0.00135766
0.00137555
0.00139396
0.00141262
0.00143115
0.00144912
0.00146604
0.00148142
0.00149484
0.00150598
0.0015147
0.00152108
0.00152541
0.00152814
0.00152973
0.00153059
0.001531
0.00153116
0.00153117
0.00153108
0.00153093
0.00153074
0.00153053
0.00153031
0.00153009
0.00152987
0.00152966
0.00152946
0.00152927
0.00152909
0.00152893
0.00152877
0.00152862
0.00152845
0.00152829
0.00152812
0.00152797
0.00152782
0.00152768
0.00152756
0.00152747
0.0015274
0.00152733
0.00152727
0.00152719
0.0015271
0.00152701
0.00152695
0.00152692
0.000713425
0.00121515
0.00157793
0.00177481
0.00188365
0.00194758
0.00198742
0.00201353
0.0020314
0.00204407
0.00205334
0.00206027
0.00206538
0.0020686
0.00206912
0.00206559
0.00205718
0.0020455
0.00203636
0.00203734
0.00205266
0.00208093
0.00211788
0.0021602
0.0022066
0.00225681
0.00231062
0.00236757
0.00242689
0.00248751
0.00254809
0.00260706
0.00266276
0.00271352
0.00275795
0.00279507
0.00282453
0.00284669
0.00286247
0.00287316
0.00288004
0.00288429
0.00288674
0.00288803
0.00288854
0.00288853
0.00288818
0.0028876
0.00288689
0.00288615
0.00288538
0.00288462
0.00288388
0.00288314
0.00288244
0.00288181
0.00288122
0.00288067
0.00288013
0.00287953
0.00287893
0.00287831
0.00287772
0.00287716
0.00287666
0.00287623
0.00287591
0.00287568
0.0028755
0.00287529
0.00287503
0.0028747
0.0028744
0.00287417
0.00287405
0.00102124
0.00136022
0.0018715
0.00222328
0.00244808
0.00259473
0.002694
0.00276382
0.00281468
0.00285291
0.00288243
0.00290571
0.00292403
0.00293726
0.00294342
0.00293903
0.00292151
0.00289387
0.00286791
0.00286024
0.00288273
0.00293659
0.00301529
0.00311129
0.00321946
0.0033369
0.00346171
0.00359222
0.00372653
0.0038623
0.00399669
0.00412648
0.00424828
0.00435891
0.00445566
0.00453684
0.00460192
0.00465178
0.00468824
0.0047138
0.00473091
0.00474191
0.00474858
0.00475231
0.00475403
0.0047544
0.00475388
0.00475276
0.0047513
0.00474973
0.0047481
0.00474648
0.00474486
0.00474325
0.00474172
0.00474035
0.00473909
0.0047379
0.0047367
0.0047354
0.00473407
0.00473271
0.00473141
0.00473017
0.00472906
0.00472813
0.00472745
0.00472697
0.00472661
0.00472618
0.0047256
0.00472489
0.00472421
0.0047237
0.00472343
0.00170708
0.00150447
0.00204415
0.00253668
0.00289421
0.00314704
0.00332847
0.0034619
0.00356263
0.0036406
0.00370232
0.00375205
0.00379205
0.00382208
0.00383857
0.00383524
0.00380759
0.00376096
0.00371556
0.00370074
0.00374018
0.00384029
0.00399166
0.0041791
0.00438971
0.00461506
0.0048501
0.00509131
0.00533542
0.00557868
0.00581666
0.00604447
0.00625698
0.00644946
0.00661795
0.00676001
0.00687495
0.00696418
0.00703055
0.00707792
0.00711023
0.00713137
0.00714445
0.00715198
0.00715567
0.0071568
0.00715621
0.00715451
0.00715217
0.00714959
0.00714688
0.00714417
0.00714144
0.00713873
0.00713614
0.00713381
0.00713168
0.00712966
0.00712762
0.00712541
0.00712315
0.00712083
0.00711862
0.00711651
0.00711463
0.00711305
0.0071119
0.0071111
0.0071105
0.00710977
0.00710878
0.00710757
0.0071064
0.00710554
0.00710506
0.00293022
0.00179432
0.00215557
0.00272719
0.0032116
0.00358299
0.00386409
0.00407899
0.0042461
0.00437848
0.00448525
0.0045726
0.00464392
0.00469879
0.00473175
0.00473354
0.00469794
0.00463351
0.00457096
0.00455577
0.00462773
0.00480137
0.00506316
0.00538547
0.00574237
0.00611661
0.00649872
0.00688334
0.00726622
0.00764274
0.00800747
0.00835432
0.00867685
0.00896903
0.00922576
0.00944371
0.0096218
0.00976169
0.00986707
0.0099432
0.00999572
0.0100304
0.0100522
0.0100649
0.0100715
0.0100738
0.0100734
0.0100712
0.010068
0.0100644
0.0100605
0.0100566
0.0100527
0.0100487
0.0100449
0.0100415
0.0100384
0.0100355
0.0100325
0.0100292
0.0100259
0.0100225
0.0100193
0.0100162
0.0100135
0.0100112
0.0100095
0.0100083
0.0100074
0.0100063
0.0100049
0.0100031
0.0100014
0.0100001
0.00999938
0.00471653
0.00241032
0.00230969
0.00283433
0.00340741
0.00389369
0.00428366
0.00459369
0.00484179
0.00504269
0.00520753
0.00534428
0.00545738
0.00554622
0.00560341
0.00561678
0.00557889
0.0055022
0.00542944
0.00542502
0.00554903
0.00582697
0.00623932
0.00673997
0.00728407
0.00784261
0.00840132
0.00895383
0.0094961
0.0100238
0.0105314
0.0110124
0.0114598
0.0118665
0.0122262
0.0125343
0.0127889
0.0129912
0.0131453
0.0132577
0.013336
0.0133883
0.0134213
0.013441
0.0134515
0.0134558
0.013456
0.0134535
0.0134495
0.0134449
0.0134399
0.0134348
0.0134296
0.0134244
0.0134194
0.0134149
0.0134107
0.0134068
0.0134028
0.0133985
0.013394
0.0133896
0.0133853
0.0133812
0.0133775
0.0133744
0.0133722
0.0133706
0.0133693
0.0133679
0.0133659
0.0133636
0.0133613
0.0133596
0.0133586
0.00695535
0.00349986
0.00265963
0.00293574
0.00351092
0.00408366
0.00457875
0.00499054
0.00533046
0.00561209
0.00584729
0.00604515
0.00621093
0.00634373
0.00643436
0.00646813
0.00643688
0.00635737
0.00628514
0.00630548
0.00650238
0.0069149
0.00751523
0.00823244
0.00899731
0.00976704
0.0105232
0.0112598
0.0119747
0.0126651
0.0133266
0.0139534
0.014538
0.0150726
0.0155496
0.0159627
0.0163081
0.0165859
0.0168
0.0169578
0.0170687
0.0171433
0.0171911
0.01722
0.0172358
0.0172429
0.0172443
0.017242
0.0172375
0.017232
0.017226
0.0172198
0.0172134
0.017207
0.0172007
0.0171951
0.0171899
0.0171849
0.0171799
0.0171745
0.017169
0.0171634
0.0171581
0.017153
0.0171484
0.0171445
0.0171417
0.0171396
0.017138
0.0171361
0.0171337
0.0171307
0.0171279
0.0171258
0.0171244
0.00946495
0.00509828
0.00338175
0.00315983
0.00358555
0.0041774
0.00475295
0.00526158
0.00569758
0.00606844
0.00638424
0.00665397
0.00688312
0.00707029
0.00720468
0.00726959
0.00725662
0.00718681
0.00712838
0.00718842
0.00747736
0.00805015
0.00886876
0.00983202
0.0108421
0.0118416
0.0128087
0.0137397
0.0146356
0.0154966
0.0163205
0.0171026
0.0178358
0.0185118
0.0191211
0.0196553
0.0201077
0.0204764
0.0207639
0.0209782
0.0211304
0.0212337
0.0213007
0.0213418
0.021365
0.0213763
0.0213797
0.0213781
0.0213734
0.0213674
0.0213605
0.0213532
0.0213457
0.0213381
0.0213307
0.021324
0.0213177
0.0213117
0.0213057
0.0212992
0.0212927
0.021286
0.0212797
0.0212736
0.0212681
0.0212634
0.0212599
0.0212573
0.0212553
0.021253
0.02125
0.0212466
0.0212432
0.0212406
0.0212388
0.0120503
0.00712194
0.00460011
0.00367977
0.00374451
0.00423199
0.00482945
0.0054108
0.00593603
0.00639798
0.00680067
0.00715076
0.00745276
0.00770438
0.00789335
0.00800141
0.00802023
0.00797462
0.0079444
0.00805799
0.00845364
0.0092044
0.0102616
0.0114905
0.012762
0.0140034
0.0151905
0.0163229
0.017406
0.018444
0.0194377
0.0203843
0.0212776
0.0221088
0.0228666
0.0235396
0.0241177
0.0245952
0.0249725
0.0252572
0.0254617
0.0256022
0.0256943
0.0257516
0.025785
0.0258022
0.0258087
0.0258085
0.0258043
0.0257979
0.0257904
0.0257822
0.0257737
0.025765
0.0257565
0.0257486
0.0257413
0.0257343
0.0257273
0.0257198
0.0257122
0.0257046
0.0256972
0.0256901
0.0256837
0.0256783
0.025674
0.0256709
0.0256684
0.0256656
0.0256622
0.0256582
0.0256544
0.0256513
0.0256491
0.0145382
0.00942112
0.00631632
0.00465972
0.00415425
0.00435399
0.00486444
0.00546284
0.00605161
0.00659511
0.00708393
0.00751844
0.0079001
0.00822482
0.00847871
0.00864224
0.00870718
0.00870105
0.0087132
0.00889147
0.00940192
0.0103381
0.0116429
0.0131475
0.0146902
0.0161819
0.0175961
0.018936
0.0202121
0.0214334
0.0226045
0.0237251
0.0247903
0.0257911
0.0267146
0.027546
0.0282706
0.0288781
0.0293652
0.0297377
0.0300088
0.0301972
0.0303222
0.0304013
0.0304484
0.0304738
0.0304851
0.0304873
0.030484
0.0304777
0.0304698
0.0304609
0.0304515
0.0304418
0.0304323
0.0304234
0.030415
0.0304069
0.0303989
0.0303904
0.0303819
0.0303732
0.0303649
0.0303569
0.0303496
0.0303433
0.0303384
0.0303346
0.0303315
0.0303283
0.0303244
0.03032
0.0303156
0.0303121
0.0303093
0.0167964
0.0118301
0.00841664
0.00616649
0.00499573
0.00470746
0.00496497
0.00547745
0.00607302
0.00666906
0.00723095
0.00774604
0.00820908
0.0086123
0.00893958
0.00916994
0.00929488
0.00934317
0.00941051
0.00966078
0.0102864
0.0114045
0.0129545
0.0147365
0.0165554
0.0183041
0.0199523
0.0215064
0.0229822
0.0243939
0.0257503
0.0270545
0.0283036
0.0294889
0.0305962
0.0316071
0.0325018
0.033264
0.0338848
0.0343666
0.0347224
0.0349728
0.0351411
0.0352491
0.0353147
0.0353516
0.0353695
0.0353754
0.0353739
0.0353682
0.0353602
0.0353508
0.0353407
0.0353301
0.0353195
0.0353096
0.0353002
0.0352911
0.035282
0.0352726
0.0352631
0.0352535
0.0352443
0.0352354
0.0352272
0.03522
0.0352143
0.0352098
0.0352062
0.0352024
0.0351981
0.0351932
0.0351884
0.0351844
0.035181
0.0187409
0.0141959
0.0107323
0.00812808
0.00637519
0.00548228
0.00529851
0.00556839
0.0060679
0.00665553
0.00725642
0.00783449
0.00837147
0.00885249
0.00925752
0.00956338
0.00976026
0.00987635
0.0100096
0.010335
0.0110684
0.0123536
0.0141354
0.0161887
0.0182851
0.0202968
0.0221868
0.0239632
0.0256466
0.0272566
0.028807
0.0303048
0.0317497
0.0331344
0.034444
0.0356569
0.0367477
0.0376929
0.0384759
0.0390937
0.0395568
0.0398874
0.0401125
0.0402589
0.0403494
0.0404019
0.0404293
0.0404405
0.0404417
0.0404373
0.0404296
0.04042
0.0404092
0.0403978
0.0403864
0.0403754
0.040365
0.0403549
0.0403449
0.0403345
0.040324
0.0403135
0.0403034
0.0402936
0.0402845
0.0402765
0.0402699
0.0402647
0.0402604
0.0402561
0.0402513
0.0402459
0.0402407
0.0402362
0.0402322
0.0203353
0.0163925
0.0130921
0.0103772
0.00825302
0.00680515
0.00606207
0.00591226
0.0061626
0.00663479
0.00720671
0.00780675
0.00839429
0.00894147
0.00942102
0.0098056
0.0100824
0.0102766
0.0104835
0.0108835
0.0117104
0.0131376
0.0151265
0.017437
0.0198084
0.0220881
0.0242284
0.0262366
0.0281371
0.0299546
0.0317081
0.0334093
0.0350618
0.0366605
0.0381908
0.039629
0.0409442
0.0421044
0.0430835
0.0438697
0.0444687
0.0449026
0.045202
0.0453993
0.0455233
0.0455969
0.0456372
0.0456559
0.0456614
0.045659
0.0456521
0.0456425
0.0456313
0.0456193
0.045607
0.0455951
0.0455836
0.0455725
0.0455614
0.0455501
0.0455387
0.0455273
0.0455163
0.0455056
0.0454957
0.0454867
0.0454793
0.0454732
0.0454682
0.0454633
0.045458
0.0454522
0.0454465
0.0454416
0.0454368
0.0215825
0.0183294
0.0153493
0.0127226
0.0104644
0.00865213
0.00738913
0.00671237
0.00654768
0.00675167
0.00718019
0.0077245
0.00831257
0.00889533
0.00943268
0.0098895
0.010247
0.0105245
0.0108091
0.0112791
0.0121801
0.013715
0.0158749
0.0184185
0.0210567
0.0236074
0.0260068
0.0282575
0.0303857
0.0324208
0.0343871
0.0363016
0.0381727
0.039999
0.0417679
0.0434551
0.0450249
0.046436
0.0476504
0.0486442
0.0494148
0.0499815
0.0503779
0.0506425
0.0508111
0.0509133
0.0509711
0.0510003
0.0510117
0.0510124
0.0510069
0.0509977
0.0509863
0.0509738
0.0509607
0.0509479
0.0509354
0.0509232
0.0509111
0.0508988
0.0508866
0.0508743
0.0508624
0.0508508
0.05084
0.0508302
0.0508218
0.0508149
0.050809
0.0508034
0.0507976
0.0507914
0.0507853
0.0507798
0.0507743
0.0225141
0.0199544
0.0173928
0.0149958
0.0127993
0.010854
0.00925307
0.00809651
0.00743002
0.00721364
0.00734577
0.00771057
0.00820929
0.00876629
0.00932187
0.0098276
0.0102542
0.010611
0.0109711
0.0115028
0.012454
0.0140548
0.0163378
0.0190783
0.0219663
0.0247866
0.0274524
0.0299563
0.0323237
0.0345872
0.0367763
0.0389137
0.0410136
0.04308
0.0451044
0.0470637
0.0489192
0.0506208
0.0521159
0.0533644
0.0543505
0.0550875
0.0556101
0.0559633
0.0561912
0.0563316
0.0564132
0.0564566
0.0564762
0.0564814
0.056478
0.0564696
0.0564584
0.0564454
0.0564317
0.056418
0.0564045
0.0563913
0.0563782
0.0563649
0.0563517
0.0563386
0.0563258
0.0563134
0.0563017
0.0562909
0.0562816
0.0562737
0.0562669
0.0562606
0.0562543
0.0562476
0.056241
0.056235
0.0562287
0.0231786
0.0212515
0.0191504
0.0170698
0.0150687
0.0131823
0.011469
0.0100168
0.0089171
0.00822391
0.0079273
0.00796227
0.0082386
0.00866611
0.00916497
0.00966858
0.0101318
0.0105478
0.010971
0.0115494
0.0125229
0.0141416
0.0164876
0.0193736
0.0224812
0.0255611
0.0284962
0.0312627
0.0338807
0.0363838
0.0388058
0.0411753
0.0435132
0.0458305
0.0481252
0.0503785
0.0525515
0.0545861
0.0564136
0.0579727
0.0592285
0.0601829
0.0608691
0.0613384
0.0616449
0.061836
0.0619494
0.0620121
0.0620428
0.0620542
0.0620539
0.0620469
0.062036
0.0620229
0.0620086
0.061994
0.0619796
0.0619653
0.0619512
0.0619369
0.0619228
0.0619088
0.0618951
0.0618818
0.0618692
0.0618575
0.0618472
0.0618382
0.0618306
0.0618234
0.0618164
0.0618093
0.0618022
0.0617957
0.0617886
0.0236309
0.0222362
0.0205882
0.0188628
0.0171329
0.0154307
0.0137891
0.0122607
0.0109209
0.00985091
0.00910999
0.00871287
0.00862678
0.00878606
0.00911077
0.00952182
0.00995615
0.010386
0.0108407
0.0114389
0.0123998
0.0139819
0.0163186
0.0192795
0.0225577
0.0258735
0.0290724
0.0321065
0.0349845
0.0377377
0.0404024
0.0430127
0.0455966
0.0481737
0.0507511
0.0533183
0.0558397
0.0582521
0.0604699
0.0624056
0.0639971
0.0652277
0.0661251
0.066746
0.0671556
0.067414
0.0675695
0.0676577
0.0677034
0.0677231
0.0677272
0.0677222
0.067712
0.0676988
0.0676841
0.0676687
0.0676533
0.067638
0.0676228
0.0676075
0.0675925
0.0675775
0.0675629
0.0675488
0.0675353
0.0675226
0.0675113
0.0675013
0.0674926
0.0674846
0.0674769
0.0674691
0.0674616
0.0674545
0.0674465
0.0239241
0.0229458
0.0217059
0.0203354
0.0189063
0.0174526
0.0159956
0.0145615
0.0131927
0.0119492
0.0109003
0.0101061
0.00959916
0.00937379
0.00938893
0.00958023
0.00987978
0.0102411
0.0106657
0.0112346
0.0121338
0.0136148
0.0158558
0.0187991
0.0221734
0.0256794
0.029122
0.0324197
0.0355625
0.0385739
0.04149
0.0443487
0.0471851
0.0500286
0.0528981
0.0557956
0.0586946
0.0615311
0.0642033
0.0665923
0.0685992
0.070179
0.0713475
0.0721649
0.0727092
0.0730557
0.0732666
0.0733884
0.0734537
0.0734844
0.0734943
0.0734921
0.073483
0.0734699
0.0734547
0.0734387
0.0734223
0.0734059
0.0733896
0.0733734
0.0733573
0.0733414
0.0733259
0.0733109
0.0732965
0.0732829
0.0732704
0.0732594
0.0732496
0.0732406
0.0732321
0.0732237
0.0732156
0.073208
0.0731991
0.0241048
0.0234303
0.0225301
0.0214842
0.0203512
0.0191647
0.0179427
0.0166986
0.0154511
0.0142309
0.0130828
0.0120625
0.0112259
0.0106152
0.0102459
0.0101013
0.0101397
0.0103158
0.0106117
0.01107
0.0118337
0.0131309
0.0151711
0.0179771
0.0213392
0.0249586
0.0286009
0.0321425
0.0355451
0.0388174
0.0419902
0.0451028
0.0481962
0.0513099
0.0544774
0.0577176
0.06102
0.064327
0.0675233
0.0704542
0.0729723
0.0749909
0.076505
0.0775753
0.0782937
0.0787544
0.0790372
0.0792025
0.0792932
0.079338
0.0793554
0.0793567
0.079349
0.0793362
0.0793206
0.0793038
0.0792865
0.079269
0.0792516
0.0792343
0.0792172
0.0792003
0.0791839
0.0791679
0.0791526
0.079138
0.0791246
0.0791124
0.0791014
0.0790914
0.079082
0.0790729
0.0790642
0.079056
0.0790462
0.0242104
0.023743
0.0231051
0.0223339
0.0214687
0.0205374
0.0195569
0.0185366
0.0174843
0.0164116
0.0153381
0.0142948
0.0133232
0.0124708
0.0117824
0.0112868
0.010989
0.0108738
0.0109269
0.0111672
0.011694
0.0126998
0.0144082
0.0169223
0.0201205
0.023732
0.0274931
0.0312325
0.0348724
0.0383971
0.0418253
0.0451929
0.0485445
0.0519291
0.0553962
0.0589866
0.062714
0.0665366
0.0703322
0.0739061
0.0770488
0.0796149
0.0815659
0.0829583
0.0838994
0.0845061
0.0848806
0.0851012
0.0852239
0.0852864
0.0853129
0.0853186
0.0853126
0.0853
0.085284
0.0852663
0.0852479
0.0852293
0.0852108
0.0851923
0.0851742
0.0851563
0.0851389
0.085122
0.0851057
0.0850902
0.0850757
0.0850623
0.0850502
0.0850391
0.0850288
0.0850189
0.0850095
0.0850006
0.0849899
0.0242687
0.0239331
0.0234832
0.022928
0.0222874
0.0215809
0.0208224
0.0200202
0.0191789
0.0183022
0.0173958
0.016471
0.0155467
0.0146516
0.0138232
0.013102
0.0125223
0.0121038
0.0118553
0.0117943
0.0119866
0.0125855
0.0138113
0.0158417
0.0186691
0.0220901
0.0258342
0.0296825
0.0335071
0.0372557
0.0409249
0.0445403
0.0481455
0.0517968
0.0555601
0.0595025
0.0636712
0.0680529
0.0725277
0.0768593
0.0807597
0.0840028
0.0865002
0.0882974
0.0895187
0.0903089
0.0907978
0.0910869
0.0912489
0.0913327
0.09137
0.0913805
0.0913761
0.0913636
0.0913469
0.0913282
0.0913086
0.0912887
0.091269
0.0912493
0.09123
0.0912111
0.0911927
0.0911748
0.0911576
0.0911411
0.0911255
0.091111
0.0910978
0.0910855
0.0910742
0.0910634
0.0910532
0.0910436
0.0910319
0.0242989
0.0240415
0.0237167
0.023319
0.0228541
0.0223319
0.0217619
0.0211513
0.0205038
0.0198214
0.019105
0.0183566
0.0175811
0.0167892
0.0159994
0.0152388
0.01454
0.0139342
0.0134468
0.0131017
0.0129441
0.0130846
0.0137157
0.0150665
0.017266
0.020237
0.0237488
0.0275505
0.0314573
0.035366
0.0392379
0.0430781
0.0469217
0.050828
0.0548778
0.0591682
0.063789
0.068771
0.0740104
0.0792286
0.0840405
0.0881115
0.0912823
0.0935795
0.0951459
0.0961607
0.0967888
0.0971601
0.0973682
0.0974764
0.0975254
0.0975407
0.0975375
0.0975245
0.0975066
0.0974864
0.0974653
0.0974439
0.0974228
0.0974019
0.0973814
0.0973613
0.0973418
0.097323
0.0973048
0.0972873
0.0972707
0.0972551
0.0972407
0.0972273
0.0972149
0.0972032
0.0971921
0.0971817
0.097169
0.0243137
0.0240994
0.0238516
0.0235602
0.0232227
0.0228417
0.0224217
0.0219673
0.021482
0.0209674
0.020424
0.0198513
0.0192491
0.0186191
0.0179668
0.0173034
0.0166469
0.01602
0.0154457
0.0149464
0.0145518
0.0143261
0.0144011
0.0149916
0.0163348
0.0185399
0.0215076
0.0250098
0.028816
0.0327614
0.0367555
0.0407684
0.0448159
0.0489526
0.0532709
0.0578988
0.0629785
0.0686019
0.0746979
0.0809469
0.0868435
0.0919115
0.0958955
0.098795
0.100774
0.102055
0.102846
0.103311
0.103571
0.103705
0.103766
0.103785
0.103781
0.103767
0.103746
0.103724
0.103701
0.103678
0.103655
0.103633
0.103611
0.10359
0.103569
0.103549
0.10353
0.103511
0.103494
0.103477
0.103462
0.103447
0.103434
0.103421
0.103409
0.103398
0.103384
0.0243203
0.0241281
0.0239241
0.023699
0.0234471
0.0231665
0.022858
0.0225234
0.0221648
0.0217837
0.0213807
0.0209556
0.0205077
0.0200359
0.0195407
0.0190249
0.0184949
0.0179613
0.0174373
0.0169366
0.0164753
0.0160829
0.0158224
0.0158231
0.0163044
0.0175155
0.0195811
0.0224204
0.0258272
0.0295892
0.0335526
0.0376349
0.0418169
0.0461373
0.0506929
0.055642
0.0611866
0.0674965
0.0745514
0.0819895
0.0891571
0.0953981
0.100336
0.103935
0.106389
0.107971
0.108942
0.109509
0.109821
0.10998
0.110049
0.110069
0.110063
0.110045
0.110021
0.109995
0.109969
0.109944
0.109919
0.109895
0.109872
0.109849
0.109828
0.109807
0.109786
0.109767
0.109748
0.109731
0.109714
0.109699
0.109684
0.109671
0.109658
0.109646
0.109631
0.0243232
0.0241413
0.0239602
0.0237729
0.0235739
0.0233596
0.0231282
0.0228796
0.0226142
0.0223328
0.0220359
0.0217237
0.0213959
0.0210517
0.0206906
0.0203126
0.0199191
0.0195136
0.0191014
0.0186888
0.0182833
0.0178966
0.0175519
0.0172975
0.0172388
0.017576
0.0185656
0.0203728
0.0229715
0.0261979
0.0298627
0.0338232
0.0380092
0.0424277
0.0471697
0.0524186
0.0584399
0.0654939
0.0736226
0.0824137
0.0910315
0.0986024
0.104609
0.108981
0.111949
0.113851
0.115007
0.115673
0.116033
0.11621
0.116282
0.116299
0.116286
0.116261
0.116231
0.116201
0.116171
0.116143
0.116116
0.11609
0.116065
0.116041
0.116018
0.115996
0.115975
0.115954
0.115935
0.115916
0.115899
0.115882
0.115867
0.115852
0.115839
0.115826
0.11581
0.0243243
0.0241468
0.0239767
0.0238093
0.0236402
0.0234659
0.0232838
0.0230926
0.0228914
0.0226801
0.0224587
0.0222274
0.0219861
0.0217345
0.0214724
0.0211994
0.0209157
0.0206222
0.0203203
0.0200126
0.0197024
0.0193954
0.0191016
0.0188374
0.018632
0.0185548
0.0187626
0.0194961
0.0209656
0.0232278
0.0261916
0.029711
0.0336716
0.0380389
0.0428847
0.0484082
0.0549326
0.0628067
0.0721275
0.082409
0.0925998
0.101586
0.108707
0.113868
0.117349
0.119559
0.120885
0.121636
0.122031
0.122216
0.122283
0.122288
0.122264
0.122229
0.12219
0.122153
0.122118
0.122086
0.122056
0.122028
0.122001
0.121976
0.121952
0.121929
0.121906
0.121885
0.121865
0.121845
0.121827
0.12181
0.121794
0.121778
0.121764
0.12175
0.121733
0.0243246
0.024149
0.0239836
0.0238256
0.0236718
0.0235195
0.0233663
0.0232101
0.0230498
0.0228845
0.0227135
0.0225367
0.0223538
0.0221647
0.0219694
0.0217677
0.0215596
0.0213454
0.0211255
0.0209009
0.0206733
0.0204463
0.0202267
0.0200251
0.0198548
0.0197321
0.0196941
0.0198408
0.0203656
0.0214982
0.0233892
0.0260595
0.0294541
0.0335352
0.0383584
0.0441234
0.0511862
0.0599493
0.0705247
0.0823175
0.0940501
0.104384
0.112539
0.118416
0.122348
0.124818
0.126279
0.127088
0.127498
0.127676
0.127727
0.127714
0.127674
0.127624
0.127575
0.127529
0.127488
0.127451
0.127418
0.127388
0.12736
0.127333
0.127307
0.127283
0.12726
0.127238
0.127217
0.127197
0.127178
0.12716
0.127143
0.127127
0.127112
0.127098
0.12708
0.0243248
0.0241497
0.0239862
0.0238322
0.0236855
0.023544
0.0234057
0.0232688
0.0231318
0.0229936
0.0228531
0.0227097
0.022563
0.0224126
0.0222584
0.0221003
0.0219384
0.0217727
0.0216036
0.0214317
0.0212579
0.0210847
0.0209172
0.0207645
0.02064
0.0205596
0.02054
0.0206055
0.0208148
0.0213004
0.0222734
0.0239592
0.0265229
0.0300683
0.0347044
0.0406323
0.0481932
0.0577746
0.0694451
0.0824925
0.0954596
0.106848
0.115798
0.122213
0.126476
0.129128
0.130674
0.131511
0.131917
0.132076
0.132105
0.13207
0.132011
0.131946
0.131885
0.13183
0.131783
0.131742
0.131705
0.131673
0.131643
0.131615
0.131588
0.131563
0.131539
0.131516
0.131495
0.131474
0.131455
0.131437
0.131419
0.131403
0.131387
0.131373
0.131354
0.0243248
0.0241499
0.023987
0.0238344
0.0236903
0.0235531
0.0234211
0.0232926
0.0231662
0.0230406
0.0229147
0.0227876
0.0226586
0.0225273
0.0223934
0.0222567
0.0221171
0.0219749
0.0218302
0.0216835
0.0215357
0.0213887
0.0212461
0.0211156
0.0210098
0.0209478
0.0209548
0.0210609
0.0213031
0.0217396
0.0224825
0.0237289
0.0257463
0.0288125
0.0331766
0.0390905
0.0468789
0.0568882
0.0691397
0.0828537
0.0964821
0.108441
0.117827
0.124538
0.12898
0.131726
0.133312
0.134155
0.134551
0.134694
0.134704
0.134652
0.134579
0.134502
0.134433
0.134372
0.13432
0.134276
0.134237
0.134203
0.134172
0.134143
0.134116
0.13409
0.134066
0.134042
0.13402
0.134
0.13398
0.133961
0.133944
0.133927
0.133912
0.133897
0.133879
0.0243248
0.0241499
0.023987
0.0238344
0.0236903
0.0235531
0.0234211
0.0232926
0.0231662
0.0230406
0.0229147
0.0227876
0.0226587
0.0225273
0.0223934
0.0222567
0.0221171
0.0219748
0.0218301
0.0216835
0.0215358
0.0213889
0.0212466
0.0211161
0.0210103
0.0209482
0.0209551
0.0210611
0.0213032
0.0217385
0.0224767
0.0237115
0.0257089
0.0287499
0.0330884
0.0389815
0.0467569
0.056763
0.0690214
0.0827502
0.0963975
0.108376
0.117779
0.124503
0.128955
0.131708
0.133298
0.134143
0.13454
0.134683
0.134693
0.134642
0.134568
0.134491
0.134421
0.13436
0.134308
0.134264
0.134225
0.134191
0.13416
0.134131
0.134104
0.134078
0.134054
0.13403
0.134008
0.133987
0.133968
0.133949
0.133932
0.133915
0.1339
0.133885
0.133867
0.0243248
0.0241497
0.0239862
0.0238322
0.0236855
0.023544
0.0234057
0.0232688
0.0231319
0.0229936
0.0228531
0.0227097
0.022563
0.0224126
0.0222585
0.0221004
0.0219384
0.0217727
0.0216037
0.0214319
0.0212584
0.0210857
0.0209187
0.0207665
0.0206423
0.0205622
0.020543
0.0206077
0.0208111
0.0212783
0.0222138
0.0238428
0.0263388
0.0298166
0.0343941
0.0402783
0.0478153
0.057397
0.0690934
0.0821878
0.0952124
0.106658
0.115657
0.122112
0.126403
0.129073
0.130631
0.131474
0.131883
0.132045
0.132073
0.132039
0.131979
0.131913
0.131851
0.131796
0.131749
0.131708
0.131671
0.131638
0.131608
0.13158
0.131553
0.131528
0.131504
0.131481
0.131459
0.131439
0.131419
0.131401
0.131384
0.131368
0.131353
0.131338
0.13132
0.0243246
0.024149
0.0239836
0.0238256
0.0236719
0.0235196
0.0233663
0.0232102
0.0230499
0.0228846
0.0227136
0.0225368
0.022354
0.022165
0.0219697
0.021768
0.0215599
0.0213456
0.0211258
0.0209016
0.0206747
0.0204487
0.0202303
0.0200302
0.0198614
0.0197397
0.0196991
0.0198318
0.0203202
0.0213903
0.0231996
0.0257814
0.0290912
0.0330973
0.0378581
0.0435762
0.0506127
0.0593781
0.0699901
0.0818504
0.0936675
0.104087
0.112317
0.118251
0.122226
0.124724
0.126204
0.127023
0.127439
0.127619
0.127671
0.127659
0.127618
0.127568
0.127517
0.127471
0.12743
0.127393
0.12736
0.127329
0.1273
0.127274
0.127248
0.127224
0.1272
0.127178
0.127157
0.127137
0.127118
0.1271
0.127084
0.127068
0.127053
0.127039
0.127022
0.0243243
0.0241468
0.0239767
0.0238093
0.0236402
0.0234659
0.0232839
0.0230927
0.0228916
0.0226803
0.0224591
0.0222278
0.0219865
0.021735
0.021473
0.0212
0.0209163
0.0206228
0.0203212
0.0200142
0.0197053
0.0194003
0.0191089
0.0188471
0.0186425
0.0185589
0.0187417
0.0194215
0.0208105
0.0229787
0.0258488
0.029283
0.03317
0.0374751
0.0422695
0.047753
0.0542538
0.0621299
0.0714875
0.0818406
0.0921253
0.10121
0.108418
0.113649
0.117181
0.119425
0.120774
0.121539
0.121941
0.12213
0.122198
0.122204
0.12218
0.122144
0.122105
0.122068
0.122032
0.122
0.12197
0.121941
0.121915
0.121889
0.121865
0.121841
0.121819
0.121798
0.121778
0.121758
0.12174
0.121723
0.121707
0.121691
0.121677
0.121664
0.121647
0.0243232
0.0241413
0.0239602
0.023773
0.0235741
0.0233598
0.0231285
0.02288
0.0226147
0.0223334
0.0220366
0.0217245
0.0213968
0.0210528
0.0206918
0.0203138
0.0199204
0.019515
0.0191033
0.0186918
0.0182883
0.0179044
0.0175621
0.0173068
0.0172364
0.0175383
0.0184609
0.020177
0.0226769
0.0258105
0.0293947
0.0332879
0.0374186
0.0417917
0.0464963
0.0517161
0.0577207
0.064779
0.0729427
0.0818019
0.0905111
0.09818
0.104276
0.108721
0.111743
0.113681
0.114861
0.115542
0.115911
0.116093
0.116168
0.116185
0.116173
0.116147
0.116117
0.116087
0.116057
0.116028
0.116001
0.115975
0.115949
0.115925
0.115902
0.11588
0.115859
0.115839
0.11582
0.115801
0.115784
0.115767
0.115752
0.115737
0.115723
0.11571
0.115694
0.0243204
0.0241281
0.0239242
0.0236991
0.0234473
0.0231669
0.0228585
0.0225241
0.0221657
0.0217848
0.021382
0.0209571
0.0205093
0.0200378
0.0195428
0.019027
0.0184971
0.0179637
0.0174403
0.0169411
0.0164817
0.0160902
0.0158263
0.0158105
0.0162494
0.0173862
0.0193558
0.0220955
0.0254121
0.0290984
0.0330006
0.0370343
0.041178
0.0454676
0.0499987
0.0549295
0.0604657
0.0667845
0.0738738
0.0813748
0.0886263
0.0949582
0.0999798
0.103648
0.106154
0.107772
0.108767
0.109349
0.10967
0.109833
0.109905
0.109927
0.109921
0.109903
0.109879
0.109853
0.109827
0.109801
0.109776
0.109752
0.109729
0.109706
0.109684
0.109664
0.109644
0.109625
0.109606
0.109589
0.109573
0.109557
0.109542
0.109528
0.109514
0.109502
0.109486
0.0243137
0.0240994
0.0238518
0.0235606
0.0232232
0.0228424
0.0224226
0.0219685
0.0214835
0.0209692
0.020426
0.0198536
0.0192518
0.0186221
0.0179699
0.0173066
0.0166501
0.0160232
0.0154495
0.014951
0.0145552
0.0143229
0.0143786
0.0149242
0.0161914
0.0182998
0.0211684
0.0245825
0.0283165
0.0322052
0.0361559
0.0401359
0.0441585
0.0482762
0.0525803
0.0571993
0.0622785
0.0679157
0.0740466
0.0803535
0.0863252
0.0914739
0.0955328
0.0984942
0.10052
0.101834
0.102646
0.103126
0.103394
0.103533
0.103596
0.103617
0.103614
0.103599
0.103579
0.103557
0.103534
0.103511
0.103488
0.103465
0.103443
0.103422
0.103401
0.103382
0.103363
0.103345
0.103328
0.103312
0.103296
0.103281
0.103267
0.103253
0.10324
0.103228
0.103214
0.024299
0.0240417
0.0237171
0.0233196
0.022855
0.0223331
0.0217635
0.0211532
0.0205061
0.0198241
0.0191081
0.01836
0.017585
0.0167933
0.0160036
0.0152428
0.0145437
0.0139376
0.0134497
0.0131029
0.0129381
0.0130587
0.013646
0.0149235
0.0170277
0.0198997
0.0233236
0.0270546
0.0309073
0.0347759
0.0386186
0.0424379
0.0462668
0.050163
0.0542068
0.0584957
0.0631227
0.0681231
0.0733977
0.0786692
0.0835472
0.0876883
0.0909235
0.093274
0.0948806
0.0959239
0.0965709
0.0969545
0.0971703
0.0972833
0.0973349
0.0973516
0.097349
0.0973364
0.0973187
0.0972987
0.0972775
0.0972561
0.0972346
0.0972136
0.0971929
0.097173
0.0971537
0.0971355
0.097118
0.0971016
0.0970856
0.0970702
0.0970552
0.0970408
0.0970269
0.0970138
0.0970016
0.0969902
0.0969767
0.0242687
0.0239334
0.0234838
0.022929
0.022289
0.0215829
0.0208248
0.0200231
0.0191823
0.018306
0.0174002
0.0164757
0.0155517
0.0146566
0.013828
0.0131062
0.0125256
0.0121059
0.0118553
0.0117879
0.0119636
0.0125254
0.0136851
0.0156237
0.0183511
0.0216816
0.0253531
0.0291474
0.0329334
0.0366549
0.0403058
0.0439093
0.0475074
0.0511553
0.0549186
0.0588656
0.0630456
0.067449
0.0719589
0.0763392
0.0802974
0.0836002
0.0861517
0.0879936
0.0892483
0.0900623
0.0905671
0.0908668
0.0910354
0.0911236
0.0911632
0.0911751
0.0911712
0.0911592
0.0911428
0.0911244
0.0911047
0.0910847
0.0910645
0.0910448
0.0910254
0.0910068
0.0909888
0.0909718
0.0909556
0.0909403
0.0909254
0.0909109
0.0908966
0.0908828
0.0908695
0.090857
0.0908453
0.0908347
0.0908221
0.0242106
0.0237436
0.0231062
0.0223356
0.021471
0.0205404
0.0195605
0.0185407
0.017489
0.0164167
0.0153436
0.0143004
0.0133287
0.0124759
0.0117867