/*--------------------------------*- C++ -*----------------------------------*\
  =========                 |
  \\      /  F ield         | OpenFOAM: The Open Source CFD Toolbox
   \\    /   O peration     | Website:  https://openfoam.org
    \\  /    A nd           | Version:  7
     \\/     M anipulation  |
\*---------------------------------------------------------------------------*/
FoamFile
{
    version     2.0;
    format      ascii;
    class       volScalarField;
    location    "300";
    object      p;
}
// * * * * * * * * * * * * * * * * * * * * * * * * * * * * * * * * * * * * * //

dimensions      [0 2 -2 0 0 0 0];

internalField   nonuniform List<scalar> 
4500
(
74.1685
71.1568
69.9969
68.8628
67.7348
66.65
65.5989
64.5721
63.5657
62.5776
61.6049
60.6459
59.6987
58.7636
57.8438
56.9531
56.1165
55.3707
54.752
54.2816
53.9507
53.7019
53.4589
53.1504
52.7399
52.2383
51.663
51.0423
50.3945
49.7379
49.078
48.4215
47.7721
47.1288
46.4921
45.8544
45.2073
44.526
43.79
42.9671
42.0523
41.0397
39.957
38.8144
37.6389
36.4339
35.2172
33.9883
32.7574
31.5202
30.2853
29.0452
27.8079
26.5682
25.3313
24.0919
22.8558
21.6165
20.3798
19.1419
17.9057
16.6683
15.4328
14.1958
12.9611
11.7249
10.491
9.25491
8.02118
6.78596
5.55278
4.31814
3.08507
1.85069
0.617597
73.7817
71.1285
69.9958
68.8633
67.7352
66.6503
65.5991
64.5722
63.5659
62.5777
61.605
60.646
59.6988
58.7637
57.8438
56.9531
56.1165
55.3706
54.7519
54.2814
53.9505
53.7017
53.4587
53.1502
52.7397
52.238
51.6628
51.0422
50.3943
49.7377
49.0779
48.4214
47.772
47.1287
46.492
45.8543
45.2073
44.526
43.7899
42.9671
42.0523
41.0397
39.957
38.8144
37.6389
36.4339
35.2172
33.9883
32.7574
31.5202
30.2853
29.0452
27.8079
26.5682
25.3313
24.0919
22.8558
21.6165
20.3798
19.1419
17.9057
16.6683
15.4328
14.1958
12.9611
11.7249
10.491
9.25491
8.02118
6.78596
5.55278
4.31814
3.08507
1.85069
0.617596
73.6942
71.1354
69.9979
68.8643
67.7359
66.6508
65.5995
64.5725
63.5661
62.578
61.6052
60.6461
59.6989
58.7638
57.8439
56.9532
56.1165
55.3705
54.7518
54.2811
53.9501
53.7012
53.4582
53.1498
52.7394
52.2377
51.6625
51.0419
50.3941
49.7375
49.0777
48.4212
47.7718
47.1285
46.4919
45.8542
45.2072
44.5259
43.7899
42.967
42.0523
41.0397
39.957
38.8144
37.6389
36.4339
35.2172
33.9883
32.7574
31.5202
30.2853
29.0452
27.8079
26.5682
25.3313
24.0919
22.8558
21.6165
20.3798
19.1419
17.9057
16.6683
15.4328
14.1958
12.9611
11.7249
10.491
9.25491
8.02118
6.78596
5.55278
4.31814
3.08507
1.85069
0.617596
73.6938
71.1436
69.9997
68.8654
67.7367
66.6513
65.5999
64.5729
63.5664
62.5782
61.6054
60.6463
59.6991
58.7639
57.844
56.9533
56.1165
55.3704
54.7515
54.2808
53.9497
53.7009
53.4579
53.1495
52.7391
52.2375
51.6622
51.0417
50.3939
49.7373
49.0775
48.421
47.7717
47.1284
46.4918
45.8541
45.2071
44.5259
43.7898
42.967
42.0522
41.0396
39.9569
38.8143
37.6389
36.4339
35.2172
33.9883
32.7574
31.5202
30.2853
29.0452
27.8079
26.5682
25.3313
24.0919
22.8558
21.6165
20.3798
19.1419
17.9057
16.6683
15.4328
14.1958
12.9611
11.7249
10.491
9.25492
8.02118
6.78596
5.55278
4.31814
3.08507
1.85069
0.617596
73.69
71.1468
70.0009
68.8665
67.7375
66.652
65.6005
64.5733
63.5668
62.5785
61.6057
60.6465
59.6993
58.7641
57.8441
56.9533
56.1165
55.3703
54.7513
54.2805
53.9494
53.7005
53.4576
53.1492
52.7388
52.2373
51.6621
51.0415
50.3937
49.7372
49.0774
48.4209
47.7716
47.1283
46.4917
45.854
45.207
44.5258
43.7898
42.967
42.0522
41.0396
39.9569
38.8143
37.6389
36.4339
35.2172
33.9883
32.7574
31.5202
30.2853
29.0452
27.8079
26.5682
25.3313
24.0919
22.8558
21.6165
20.3798
19.1419
17.9057
16.6683
15.4328
14.1958
12.9611
11.7249
10.491
9.25492
8.02119
6.78596
5.55278
4.31814
3.08507
1.85069
0.617595
73.6797
71.1491
70.0019
68.8676
67.7384
66.6527
65.6011
64.5738
63.5672
62.5788
61.606
60.6468
59.6995
58.7643
57.8443
56.9534
56.1164
55.3701
54.751
54.2802
53.9491
53.7002
53.4573
53.149
52.7387
52.2372
51.662
51.0414
50.3936
49.7371
49.0773
48.4208
47.7715
47.1282
46.4916
45.8539
45.207
44.5257
43.7898
42.9669
42.0522
41.0396
39.9569
38.8143
37.6389
36.4339
35.2172
33.9883
32.7574
31.5202
30.2853
29.0452
27.8079
26.5682
25.3313
24.0919
22.8558
21.6165
20.3798
19.1419
17.9057
16.6683
15.4328
14.1958
12.9611
11.7249
10.491
9.25492
8.02119
6.78596
5.55278
4.31814
3.08507
1.85069
0.617594
73.6701
71.152
70.0028
68.8686
67.7393
66.6535
65.6017
64.5744
63.5676
62.5792
61.6063
60.6471
59.6998
58.7645
57.8444
56.9534
56.1164
55.37
54.7508
54.2799
53.9488
53.7
53.4572
53.1489
52.7386
52.2371
51.6619
51.0414
50.3936
49.737
49.0772
48.4208
47.7714
47.1281
46.4915
45.8539
45.2069
44.5257
43.7897
42.9669
42.0522
41.0396
39.9569
38.8143
37.6389
36.4339
35.2172
33.9883
32.7574
31.5202
30.2853
29.0452
27.8079
26.5682
25.3313
24.0919
22.8558
21.6165
20.3798
19.1419
17.9057
16.6683
15.4328
14.1958
12.9611
11.7249
10.491
9.25492
8.02119
6.78596
5.55278
4.31814
3.08507
1.85069
0.617593
73.6614
71.1552
70.0036
68.8694
67.7402
66.6543
65.6024
64.5749
63.5681
62.5797
61.6067
60.6474
59.7
58.7647
57.8446
56.9535
56.1163
55.3698
54.7505
54.2797
53.9486
53.6999
53.4571
53.1489
52.7387
52.2372
51.662
51.0414
50.3936
49.737
49.0772
48.4207
47.7714
47.1281
46.4915
45.8539
45.2069
44.5257
43.7897
42.9669
42.0522
41.0396
39.9569
38.8143
37.6389
36.4339
35.2172
33.9883
32.7574
31.5202
30.2852
29.0451
27.8079
26.5682
25.3313
24.0919
22.8558
21.6165
20.3798
19.1418
17.9057
16.6683
15.4328
14.1958
12.9611
11.7249
10.491
9.25492
8.02119
6.78597
5.55278
4.31813
3.08507
1.85068
0.617591
73.6525
71.1584
70.0042
68.87
67.7409
66.655
65.6031
64.5756
63.5687
62.5802
61.6071
60.6478
59.7004
58.765
57.8448
56.9536
56.1163
55.3697
54.7503
54.2795
53.9485
53.6999
53.4573
53.1491
52.7389
52.2373
51.6621
51.0415
50.3936
49.737
49.0772
48.4207
47.7714
47.1281
46.4915
45.8538
45.2069
44.5257
43.7897
42.9669
42.0522
41.0396
39.957
38.8144
37.6389
36.4339
35.2172
33.9882
32.7574
31.5201
30.2852
29.0451
27.8079
26.5682
25.3313
24.0919
22.8557
21.6165
20.3798
19.1418
17.9057
16.6683
15.4328
14.1958
12.9611
11.7249
10.491
9.25492
8.02119
6.78597
5.55278
4.31813
3.08506
1.85068
0.61759
73.6429
71.1617
70.0047
68.8706
67.7415
66.6557
65.6038
64.5762
63.5693
62.5807
61.6076
60.6482
59.7007
58.7653
57.845
56.9537
56.1163
55.3696
54.7502
54.2794
53.9485
53.7001
53.4575
53.1494
52.7392
52.2376
51.6623
51.0416
50.3937
49.7371
49.0773
48.4208
47.7714
47.1281
46.4915
45.8539
45.2069
44.5257
43.7897
42.967
42.0522
41.0397
39.957
38.8144
37.6389
36.4339
35.2172
33.9882
32.7574
31.5201
30.2852
29.0451
27.8079
26.5682
25.3313
24.0919
22.8557
21.6165
20.3798
19.1418
17.9057
16.6683
15.4328
14.1958
12.9611
11.7249
10.491
9.25493
8.0212
6.78597
5.55278
4.31813
3.08506
1.85068
0.617587
73.6327
71.1653
70.0051
68.871
67.742
66.6563
65.6044
64.5768
63.5698
62.5812
61.6081
60.6486
59.7011
58.7656
57.8453
56.9539
56.1164
55.3696
54.7502
54.2795
53.9487
53.7004
53.4579
53.1499
52.7396
52.238
51.6626
51.0419
50.3939
49.7373
49.0774
48.4209
47.7715
47.1282
46.4915
45.8539
45.2069
44.5257
43.7898
42.967
42.0523
41.0397
39.957
38.8144
37.6389
36.4339
35.2172
33.9882
32.7574
31.5201
30.2852
29.0451
27.8079
26.5682
25.3313
24.0919
22.8557
21.6165
20.3798
19.1418
17.9057
16.6683
15.4328
14.1958
12.9611
11.7249
10.491
9.25493
8.0212
6.78597
5.55278
4.31813
3.08506
1.85068
0.617586
73.6217
71.1691
70.0053
68.8714
67.7424
66.6567
65.6049
64.5774
63.5704
62.5818
61.6086
60.6491
59.7016
58.766
57.8456
56.9541
56.1166
55.3697
54.7504
54.2797
53.9491
53.7009
53.4585
53.1505
52.7402
52.2385
51.663
51.0422
50.3942
49.7375
49.0775
48.421
47.7716
47.1283
46.4916
45.8539
45.207
44.5258
43.7899
42.9671
42.0524
41.0398
39.9571
38.8144
37.6389
36.4339
35.2172
33.9882
32.7574
31.5201
30.2852
29.0451
27.8079
26.5682
25.3313
24.0919
22.8557
21.6165
20.3798
19.1418
17.9057
16.6683
15.4328
14.1958
12.9611
11.7249
10.491
9.25493
8.0212
6.78597
5.55278
4.31813
3.08506
1.85067
0.617582
73.6101
71.1733
70.0055
68.8716
67.7427
66.657
65.6053
64.5778
63.5709
62.5823
61.6091
60.6496
59.702
58.7664
57.8459
56.9544
56.1168
55.37
54.7507
54.2801
53.9497
53.7016
53.4593
53.1512
52.7409
52.239
51.6635
51.0426
50.3945
49.7377
49.0778
48.4212
47.7717
47.1284
46.4917
45.854
45.207
44.5259
43.7899
42.9672
42.0524
41.0399
39.9571
38.8145
37.6389
36.4339
35.2172
33.9882
32.7574
31.5201
30.2852
29.0451
27.8079
26.5682
25.3313
24.0919
22.8557
21.6165
20.3798
19.1418
17.9057
16.6683
15.4328
14.1958
12.9611
11.7249
10.491
9.25493
8.0212
6.78597
5.55278
4.31812
3.08505
1.85067
0.61758
73.5977
71.1778
70.0056
68.8718
67.7428
66.6572
65.6056
64.5782
63.5713
62.5827
61.6096
60.6501
59.7025
58.7668
57.8463
56.9548
56.1171
55.3703
54.7511
54.2807
53.9504
53.7024
53.4602
53.1521
52.7417
52.2397
51.6641
51.0431
50.3949
49.7381
49.0781
48.4214
47.7719
47.1286
46.4919
45.8541
45.2072
44.526
43.7901
42.9673
42.0526
41.0399
39.9572
38.8145
37.639
36.4339
35.2172
33.9882
32.7574
31.5201
30.2852
29.0451
27.8079
26.5682
25.3313
24.0919
22.8557
21.6165
20.3798
19.1418
17.9057
16.6683
15.4328
14.1958
12.9611
11.7249
10.491
9.25493
8.02121
6.78597
5.55278
4.31812
3.08505
1.85067
0.617576
73.5845
71.1828
70.0058
68.872
67.7429
66.6574
65.6057
64.5784
63.5717
62.5831
61.61
60.6505
59.7029
58.7673
57.8468
56.9552
56.1176
55.3708
54.7517
54.2814
53.9513
53.7034
53.4612
53.1531
52.7426
52.2406
51.6648
51.0437
50.3954
49.7385
49.0784
48.4217
47.7722
47.1288
46.492
45.8543
45.2073
44.5261
43.7902
42.9674
42.0527
41.04
39.9573
38.8146
37.639
36.434
35.2172
33.9883
32.7574
31.5201
30.2852
29.0451
27.8079
26.5682
25.3313
24.0919
22.8557
21.6165
20.3798
19.1418
17.9057
16.6683
15.4328
14.1957
12.9611
11.7249
10.491
9.25493
8.02121
6.78597
5.55278
4.31812
3.08505
1.85066
0.617574
73.5706
71.1882
70.0059
68.8722
67.743
66.6574
65.6058
64.5786
63.5719
62.5834
61.6103
60.6509
59.7033
58.7677
57.8472
56.9557
56.1181
55.3715
54.7525
54.2823
53.9523
53.7045
53.4624
53.1542
52.7436
52.2415
51.6656
51.0444
50.396
49.739
49.0788
48.4221
47.7725
47.129
46.4923
45.8545
45.2075
44.5263
43.7904
42.9676
42.0528
41.0402
39.9574
38.8146
37.639
36.434
35.2172
33.9883
32.7574
31.5201
30.2852
29.0451
27.8079
26.5681
25.3313
24.0919
22.8557
21.6165
20.3798
19.1418
17.9057
16.6683
15.4328
14.1957
12.9611
11.7249
10.491
9.25493
8.02121
6.78597
5.55278
4.31812
3.08505
1.85066
0.617569
73.5558
71.1941
70.006
68.8724
67.7431
66.6574
65.6058
64.5786
63.572
62.5835
61.6105
60.6512
59.7036
58.7681
57.8477
56.9562
56.1188
55.3722
54.7533
54.2833
53.9534
53.7057
53.4636
53.1554
52.7447
52.2425
51.6665
51.0451
50.3967
49.7396
49.0794
48.4225
47.7729
47.1294
46.4926
45.8548
45.2077
44.5265
43.7906
42.9678
42.053
41.0403
39.9575
38.8147
37.6391
36.434
35.2173
33.9883
32.7574
31.5201
30.2852
29.0451
27.8079
26.5681
25.3313
24.0919
22.8557
21.6165
20.3798
19.1418
17.9057
16.6683
15.4327
14.1957
12.9611
11.7248
10.491
9.25493
8.02121
6.78597
5.55278
4.31812
3.08505
1.85066
0.617567
73.5403
71.2004
70.0062
68.8727
67.7433
66.6575
65.6058
64.5786
63.572
62.5836
61.6106
60.6513
59.7039
58.7684
57.8481
56.9568
56.1195
55.3731
54.7544
54.2844
53.9546
53.7069
53.4647
53.1566
52.7459
52.2436
51.6675
51.046
50.3975
49.7403
49.08
48.4231
47.7734
47.1298
46.4929
45.8551
45.208
44.5268
43.7909
42.9681
42.0532
41.0405
39.9576
38.8148
37.6392
36.4341
35.2173
33.9883
32.7574
31.5201
30.2852
29.0451
27.8079
26.5681
25.3313
24.0919
22.8557
21.6165
20.3798
19.1418
17.9057
16.6683
15.4327
14.1957
12.961
11.7248
10.491
9.25493
8.02121
6.78597
5.55278
4.31811
3.08505
1.85066
0.617562
73.524
71.2072
70.0064
68.8731
67.7434
66.6575
65.6058
64.5786
63.5719
62.5836
61.6107
60.6514
59.704
58.7686
57.8484
56.9573
56.1202
55.3741
54.7555
54.2856
53.9557
53.708
53.4658
53.1577
52.747
52.2447
51.6686
51.047
50.3984
49.7411
49.0807
48.4237
47.7739
47.1303
46.4934
45.8555
45.2084
44.5272
43.7912
42.9684
42.0535
41.0408
39.9578
38.8149
37.6392
36.4341
35.2173
33.9883
32.7574
31.5201
30.2852
29.0451
27.8078
26.5681
25.3313
24.0919
22.8557
21.6165
20.3798
19.1418
17.9057
16.6683
15.4327
14.1957
12.961
11.7248
10.491
9.25492
8.02121
6.78597
5.55278
4.31811
3.08505
1.85065
0.61756
73.5069
71.2143
70.0065
68.8735
67.7437
66.6576
65.6059
64.5786
63.5719
62.5835
61.6106
60.6514
59.704
58.7687
57.8487
56.9578
56.121
55.3751
54.7566
54.2868
53.9568
53.7089
53.4667
53.1586
52.7481
52.2459
51.6697
51.0481
50.3994
49.742
49.0815
48.4245
47.7746
47.131
46.494
45.8561
45.2089
44.5277
43.7917
42.9688
42.0539
41.0411
39.958
38.8151
37.6393
36.4342
35.2174
33.9883
32.7574
31.5201
30.2852
29.0451
27.8078
26.5681
25.3313
24.0919
22.8557
21.6165
20.3798
19.1418
17.9057
16.6683
15.4327
14.1957
12.961
11.7248
10.491
9.25492
8.02121
6.78597
5.55278
4.31811
3.08505
1.85065
0.617554
73.4892
71.2219
70.0066
68.874
67.744
66.6578
65.606
64.5786
63.5719
62.5835
61.6105
60.6513
59.704
58.7688
57.8489
56.9582
56.1217
55.3761
54.7578
54.288
53.9578
53.7097
53.4674
53.1594
52.749
52.247
51.6709
51.0493
50.4005
49.7431
49.0825
48.4254
47.7755
47.1317
46.4947
45.8567
45.2095
44.5283
43.7923
42.9694
42.0544
41.0414
39.9583
38.8153
37.6395
36.4342
35.2174
33.9884
32.7574
31.5201
30.2852
29.0451
27.8078
26.5681
25.3313
24.0919
22.8557
21.6165
20.3798
19.1418
17.9057
16.6682
15.4327
14.1957
12.961
11.7248
10.491
9.25491
8.02121
6.78597
5.55279
4.31812
3.08505
1.85065
0.617553
73.471
71.2298
70.0067
68.8746
67.7443
66.658
65.6061
64.5787
63.5719
62.5835
61.6105
60.6513
59.7039
58.7687
57.849
56.9586
56.1224
55.377
54.759
54.2891
53.9587
53.7103
53.4678
53.1599
52.7498
52.248
51.6721
51.0505
50.4017
49.7442
49.0836
48.4264
47.7764
47.1326
46.4955
45.8576
45.2103
44.5291
43.793
42.9701
42.055
41.0419
39.9586
38.8155
37.6396
36.4343
35.2175
33.9884
32.7575
31.5202
30.2852
29.0451
27.8078
26.5681
25.3313
24.0919
22.8557
21.6165
20.3798
19.1418
17.9057
16.6682
15.4327
14.1957
12.961
11.7248
10.491
9.2549
8.02121
6.78597
5.55279
4.31812
3.08505
1.85065
0.617548
73.4525
71.2379
70.0066
68.8752
67.7447
66.6582
65.6062
64.5788
63.572
62.5835
61.6105
60.6512
59.7039
58.7687
57.8491
56.9589
56.123
55.378
54.7601
54.2902
53.9594
53.7106
53.4678
53.16
52.7502
52.2487
51.6731
51.0517
50.4029
49.7455
49.0848
48.4275
47.7775
47.1337
46.4966
45.8586
45.2114
44.5301
43.794
42.971
42.0557
41.0425
39.9591
38.8158
37.6398
36.4345
35.2176
33.9884
32.7575
31.5202
30.2852
29.0451
27.8078
26.5681
25.3312
24.0919
22.8557
21.6164
20.3798
19.1418
17.9057
16.6682
15.4327
14.1957
12.961
11.7248
10.491
9.25489
8.0212
6.78597
5.5528
4.31812
3.08505
1.85065
0.617546
73.4339
71.2462
70.0066
68.8758
67.7451
66.6585
65.6064
64.5789
63.572
62.5835
61.6105
60.6512
59.7039
58.7687
57.8492
56.9592
56.1237
55.3789
54.7612
54.2912
53.9601
53.7107
53.4675
53.1597
52.7502
52.2492
51.674
51.0528
50.4042
49.7467
49.086
48.4287
47.7787
47.1349
46.4977
45.8598
45.2126
44.5313
43.7952
42.9721
42.0567
41.0433
39.9596
38.8162
37.6401
36.4346
35.2177
33.9885
32.7575
31.5202
30.2852
29.0451
27.8078
26.5681
25.3312
24.0919
22.8557
21.6164
20.3798
19.1418
17.9057
16.6682
15.4327
14.1957
12.961
11.7248
10.491
9.25488
8.0212
6.78597
5.5528
4.31812
3.08506
1.85065
0.617542
73.4157
71.2543
70.0064
68.8765
67.7456
66.6587
65.6067
64.5791
63.5722
62.5836
61.6106
60.6512
59.7039
58.7688
57.8494
56.9596
56.1243
55.3799
54.7623
54.2922
53.9607
53.7107
53.4671
53.1591
52.7498
52.2493
51.6745
51.0537
50.4052
49.7479
49.0873
48.43
47.78
47.1362
46.4991
45.8612
45.214
44.5329
43.7968
42.9735
42.0579
41.0442
39.9603
38.8167
37.6404
36.4348
35.2178
33.9886
32.7576
31.5202
30.2852
29.0451
27.8078
26.5681
25.3312
24.0919
22.8557
21.6164
20.3798
19.1418
17.9057
16.6682
15.4327
14.1957
12.961
11.7248
10.491
9.25487
8.02119
6.78596
5.55281
4.31813
3.08507
1.85065
0.617542
73.3982
71.2623
70.0061
68.8771
67.746
66.659
65.6069
64.5793
63.5723
62.5837
61.6106
60.6513
59.7039
58.7689
57.8495
56.96
56.1249
55.3808
54.7634
54.2932
53.9613
53.7107
53.4666
53.1584
52.7493
52.249
51.6746
51.0542
50.4061
49.749
49.0885
48.4313
47.7813
47.1375
46.5005
45.8627
45.2158
44.5347
43.7986
42.9752
42.0593
41.0453
39.9611
38.8172
37.6407
36.435
35.2179
33.9886
32.7576
31.5202
30.2852
29.0451
27.8078
26.5681
25.3312
24.0919
22.8557
21.6164
20.3798
19.1418
17.9057
16.6682
15.4327
14.1957
12.961
11.7248
10.491
9.25485
8.02119
6.78596
5.55282
4.31813
3.08507
1.85065
0.61754
73.3822
71.2697
70.0058
68.8777
67.7465
66.6593
65.6071
64.5794
63.5725
62.5839
61.6107
60.6514
59.704
58.769
57.8497
56.9603
56.1256
55.3817
54.7644
54.2941
53.9618
53.7107
53.4661
53.1577
52.7486
52.2486
51.6745
51.0544
50.4066
49.7497
49.0894
48.4324
47.7825
47.1389
46.5021
45.8644
45.2177
44.5368
43.8007
42.9772
42.0609
41.0466
39.962
38.8178
37.6411
36.4352
35.2181
33.9887
32.7576
31.5202
30.2852
29.0451
27.8078
26.5681
25.3312
24.0918
22.8557
21.6164
20.3798
19.1418
17.9057
16.6682
15.4328
14.1957
12.961
11.7248
10.491
9.25483
8.02118
6.78595
5.55283
4.31814
3.08509
1.85065
0.617541
73.3683
71.2761
70.0055
68.8782
67.7468
66.6595
65.6073
64.5796
63.5726
62.584
61.6108
60.6514
59.7041
58.7691
57.8499
56.9607
56.1261
55.3824
54.7652
54.2948
53.9622
53.7106
53.4657
53.1571
52.748
52.2481
51.6742
51.0543
50.4067
49.7501
49.0901
48.4333
47.7836
47.1402
46.5036
45.8662
45.2197
44.5391
43.8031
42.9794
42.0627
41.0479
39.9629
38.8184
37.6415
36.4355
35.2182
33.9888
32.7577
31.5202
30.2852
29.0451
27.8078
26.5681
25.3312
24.0918
22.8556
21.6164
20.3798
19.1418
17.9057
16.6682
15.4328
14.1957
12.961
11.7247
10.4909
9.25481
8.02117
6.78595
5.55284
4.31814
3.0851
1.85066
0.617542
73.3577
71.2812
70.0051
68.8786
67.7471
66.6597
65.6074
64.5797
63.5727
62.5841
61.6109
60.6515
59.7041
58.7691
57.8501
56.961
56.1266
55.383
54.7659
54.2954
53.9625
53.7105
53.4653
53.1566
52.7476
52.2478
51.674
51.0542
50.4067
49.7503
49.0904
48.4338
47.7844
47.1412
46.5049
45.8678
45.2217
44.5412
43.8053
42.9814
42.0643
41.049
39.9637
38.8189
37.6418
36.4356
35.2183
33.9888
32.7577
31.5202
30.2852
29.0451
27.8078
26.5681
25.3312
24.0918
22.8556
21.6164
20.3798
19.1418
17.9057
16.6682
15.4328
14.1957
12.961
11.7247
10.4909
9.25478
8.02116
6.78594
5.55285
4.31815
3.08511
1.85066
0.617546
73.3516
71.2841
70.0049
68.8788
67.7473
66.6598
65.6075
64.5798
63.5728
62.5841
61.6109
60.6515
59.7042
58.7692
57.8502
56.9612
56.1268
55.3834
54.7662
54.2957
53.9626
53.7104
53.465
53.1563
52.7473
52.2476
51.6739
51.0541
50.4067
49.7503
49.0905
48.434
47.7848
47.1418
46.5057
45.8689
45.223
44.5427
43.8067
42.9827
42.0654
41.0498
39.9642
38.8192
37.6419
36.4357
35.2184
33.9888
32.7577
31.5202
30.2852
29.0451
27.8079
26.5681
25.3312
24.0918
22.8556
21.6164
20.3798
19.1418
17.9058
16.6682
15.4328
14.1957
12.961
11.7247
10.4909
9.25475
8.02115
6.78593
5.55287
4.31816
3.08513
1.85067
0.617552
73.3516
71.2841
70.0049
68.8788
67.7473
66.6598
65.6075
64.5798
63.5728
62.5841
61.6109
60.6516
59.7042
58.7692
57.8502
56.9612
56.1268
55.3834
54.7662
54.2956
53.9625
53.7103
53.465
53.1563
52.7474
52.2476
51.6739
51.0542
50.4067
49.7503
49.0905
48.4341
47.7848
47.1419
46.5058
45.869
45.223
44.5428
43.8068
42.9827
42.0654
41.0498
39.9642
38.8192
37.642
36.4357
35.2184
33.9888
32.7577
31.5202
30.2852
29.045
27.8079
26.5681
25.3313
24.0918
22.8556
21.6164
20.3798
19.1418
17.9058
16.6682
15.4328
14.1957
12.961
11.7247
10.4909
9.25472
8.02114
6.78592
5.55288
4.31817
3.08516
1.85068
0.617559
73.3577
71.2812
70.0051
68.8786
67.7471
66.6597
65.6074
64.5797
63.5727
62.5841
61.6109
60.6515
59.7041
58.7692
57.8501
56.961
56.1266
55.383
54.7658
54.2952
53.9621
53.7102
53.4651
53.1566
52.7477
52.2479
51.6741
51.0543
50.4068
49.7503
49.0905
48.4339
47.7845
47.1413
46.505
45.8679
45.2218
44.5414
43.8054
42.9815
42.0645
41.0491
39.9637
38.8188
37.6418
36.4356
35.2183
33.9888
32.7577
31.5202
30.2852
29.045
27.8079
26.5681
25.3313
24.0918
22.8557
21.6164
20.3798
19.1418
17.9058
16.6682
15.4328
14.1957
12.961
11.7247
10.4909
9.25468
8.02114
6.78591
5.5529
4.31817
3.08518
1.85068
0.617568
73.3683
71.2761
70.0055
68.8782
67.7468
66.6595
65.6073
64.5796
63.5726
62.584
61.6108
60.6514
59.7041
58.7691
57.8499
56.9608
56.1262
55.3825
54.7651
54.2945
53.9616
53.7101
53.4653
53.157
52.7482
52.2483
51.6744
51.0545
50.4069
49.7502
49.0902
48.4334
47.7837
47.1403
46.5037
45.8663
45.2199
44.5392
43.8033
42.9795
42.0629
41.0479
39.963
38.8183
37.6415
36.4354
35.2183
33.9888
32.7577
31.5202
30.2852
29.045
27.8079
26.5681
25.3313
24.0918
22.8557
21.6164
20.3799
19.1418
17.9058
16.6682
15.4328
14.1957
12.961
11.7246
10.4909
9.25465
8.02113
6.7859
5.55292
4.31818
3.0852
1.85069
0.617576
73.3822
71.2697
70.0058
68.8777
67.7465
66.6593
65.6071
64.5794
63.5725
62.5839
61.6107
60.6514
59.704
58.769
57.8498
56.9605
56.1256
55.3817
54.7642
54.2936
53.9611
53.7099
53.4656
53.1576
52.7488
52.2488
51.6748
51.0546
50.4068
49.7499
49.0896
48.4326
47.7827
47.1391
46.5022
45.8646
45.2179
44.537
43.801
42.9774
42.0612
41.0466
39.9621
38.8177
37.6412
36.4352
35.2182
33.9887
32.7577
31.5201
30.2852
29.045
27.8079
26.5681
25.3313
24.0918
22.8557
21.6164
20.3799
19.1418
17.9059
16.6682
15.4328
14.1956
12.961
11.7246
10.4909
9.25463
8.02113
6.78589
5.55294
4.31818
3.08522
1.85069
0.617585
73.3982
71.2623
70.0061
68.8771
67.746
66.659
65.6069
64.5793
63.5723
62.5837
61.6106
60.6513
59.7039
58.7689
57.8496
56.9601
56.125
55.3808
54.7631
54.2927
53.9604
53.7098
53.466
53.1583
52.7495
52.2494
51.675
51.0545
50.4063
49.7492
49.0887
48.4315
47.7815
47.1377
46.5007
45.8629
45.216
44.5349
43.7989
42.9754
42.0596
41.0453
39.9613
38.8171
37.6409
36.4349
35.2181
33.9886
32.7577
31.5201
30.2852
29.045
27.8079
26.5681
25.3313
24.0918
22.8557
21.6163
20.3799
19.1418
17.9059
16.6682
15.4329
14.1956
12.961
11.7246
10.4909
9.2546
8.02113
6.78588
5.55296
4.31819
3.08524
1.8507
0.617592
73.4157
71.2544
70.0064
68.8765
67.7456
66.6587
65.6067
64.5791
63.5722
62.5836
61.6105
60.6512
59.7039
58.7688
57.8494
56.9598
56.1244
55.3799
54.7621
54.2916
53.9597
53.7097
53.4664
53.159
52.7501
52.2497
51.6749
51.054
50.4056
49.7482
49.0875
48.4302
47.7802
47.1363
46.4993
45.8613
45.2143
44.5331
43.7971
42.9737
42.0581
41.0442
39.9605
38.8166
37.6405
36.4347
35.218
33.9885
32.7577
31.5201
30.2852
29.045
27.8079
26.5681
25.3313
24.0918
22.8557
21.6163
20.3799
19.1418
17.9059
16.6682
15.4329
14.1956
12.961
11.7246
10.4909
9.25458
8.02113
6.78587
5.55298
4.31819
3.08526
1.8507
0.617599
73.4339
71.2462
70.0066
68.8758
67.7451
66.6585
65.6064
64.5789
63.572
62.5836
61.6105
60.6512
59.7038
58.7688
57.8493
56.9594
56.1238
55.379
54.7609
54.2905
53.959
53.7095
53.4668
53.1595
52.7505
52.2497
51.6745
51.0533
50.4045
49.747
49.0863
48.429
47.7789
47.1351
46.498
45.8599
45.2129
44.5315
43.7956
42.9722
42.0569
41.0432
39.9598
38.8161
37.6403
36.4345
35.2179
33.9884
32.7576
31.5201
30.2852
29.045
27.8079
26.5681
25.3313
24.0918
22.8557
21.6163
20.3799
19.1417
17.9059
16.6682
15.4329
14.1956
12.961
11.7246
10.4909
9.25456
8.02113
6.78586
5.55299
4.3182
3.08527
1.85071
0.617605
73.4525
71.2379
70.0066
68.8752
67.7447
66.6582
65.6062
64.5788
63.5719
62.5835
61.6105
60.6512
59.7039
58.7688
57.8492
56.9591
56.1231
55.3781
54.7598
54.2894
53.9582
53.7092
53.467
53.1598
52.7506
52.2493
51.6737
51.0522
50.4034
49.7458
49.0851
48.4278
47.7778
47.1339
46.4968
45.8587
45.2117
44.5303
43.7943
42.9711
42.056
41.0424
39.9593
38.8157
37.64
36.4343
35.2178
33.9884
32.7576
31.52
30.2852
29.045
27.8079
26.5681
25.3313
24.0918
22.8557
21.6163
20.3799
19.1417
17.9059
16.6682
15.4329
14.1956
12.961
11.7245
10.4909
9.25455
8.02113
6.78586
5.55301
4.3182
3.08529
1.85071
0.617611
73.471
71.2298
70.0067
68.8746
67.7443
66.658
65.6061
64.5787
63.5719
62.5835
61.6105
60.6513
59.7039
58.7688
57.8491
56.9588
56.1225
55.3771
54.7586
54.2883
53.9573
53.7088
53.4669
53.1597
52.7502
52.2486
51.6727
51.0511
50.4022
49.7446
49.0839
48.4267
47.7767
47.1328
46.4958
45.8577
45.2107
44.5293
43.7934
42.9702
42.0552
41.0418
39.9588
38.8154
37.6398
36.4342
35.2177
33.9883
32.7576
31.52
30.2852
29.0449
27.808
26.5681
25.3313
24.0918
22.8557
21.6163
20.3799
19.1417
17.9059
16.6682
15.4329
14.1956
12.9611
11.7245
10.4909
9.25454
8.02114
6.78586
5.55302
4.3182
3.0853
1.85072
0.617615
73.4892
71.2219
70.0066
68.874
67.744
66.6578
65.606
64.5786
63.5719
62.5835
61.6105
60.6513
59.704
58.7688
57.8489
56.9585
56.1218
55.3762
54.7575
54.2871
53.9564
53.7082
53.4665
53.1593
52.7495
52.2477
51.6716
51.0499
50.401
49.7435
49.0829
48.4257
47.7758
47.1319
46.495
45.8569
45.2098
44.5284
43.7926
42.9695
42.0546
41.0413
39.9585
38.8151
37.6397
36.4341
35.2176
33.9883
32.7576
31.52
30.2852
29.0449
27.808
26.5681
25.3314
24.0918
22.8557
21.6163
20.3799
19.1417
17.9059
16.6682
15.4329
14.1956
12.9611
11.7245
10.4909
9.25453
8.02114
6.78585
5.55304
4.31821
3.08532
1.85072
0.617621
73.5069
71.2144
70.0065
68.8735
67.7437
66.6576
65.6059
64.5786
63.5719
62.5836
61.6106
60.6514
59.704
58.7688
57.8488
56.9581
56.1211
55.3752
54.7563
54.2859
53.9553
53.7074
53.4658
53.1586
52.7486
52.2466
51.6705
51.0487
50.3999
49.7424
49.0819
48.4248
47.7749
47.1312
46.4942
45.8562
45.2092
44.5278
43.792
42.9689
42.0542
41.0409
39.9582
38.8149
37.6396
36.434
35.2176
33.9882
32.7576
31.52
30.2852
29.0449
27.808
26.5681
25.3314
24.0917
22.8558
21.6163
20.38
19.1417
17.906
16.6682
15.4329
14.1956
12.9611
11.7245
10.4909
9.25452
8.02115
6.78585
5.55305
4.31821
3.08533
1.85072
0.617624
73.5239
71.2072
70.0064
68.8731
67.7434
66.6575
65.6058
64.5786
63.5719
62.5836
61.6106
60.6514
59.704
58.7687
57.8485
56.9576
56.1204
55.3742
54.7551
54.2847
53.9542
53.7064
53.4649
53.1576
52.7476
52.2455
51.6693
51.0477
50.3989
49.7415
49.0811
48.424
47.7742
47.1305
46.4937
45.8557
45.2087
44.5273
43.7915
42.9685
42.0538
41.0406
39.958
38.8147
37.6395
36.4339
35.2176
33.9882
32.7576
31.5199
30.2852
29.0449
27.808
26.5681
25.3314
24.0917
22.8558
21.6163
20.38
19.1417
17.906
16.6682
15.4329
14.1956
12.9611
11.7245
10.4909
9.25451
8.02115
6.78585
5.55306
4.31822
3.08534
1.85073
0.617628
73.5402
71.2004
70.0062
68.8727
67.7432
66.6575
65.6058
64.5786
63.572
62.5836
61.6106
60.6514
59.7039
58.7685
57.8482
56.9571
56.1197
55.3733
54.754
54.2835
53.953
53.7053
53.4638
53.1565
52.7465
52.2444
51.6683
51.0467
50.398
49.7407
49.0803
48.4234
47.7737
47.13
46.4932
45.8552
45.2083
44.5269
43.7912
42.9681
42.0535
41.0404
39.9578
38.8146
37.6394
36.4338
35.2176
33.9882
32.7576
31.5199
30.2853
29.0449
27.808
26.5681
25.3314
24.0917
22.8558
21.6163
20.38
19.1417
17.906
16.6682
15.4329
14.1956
12.9611
11.7245
10.4909
9.25451
8.02116
6.78586
5.55307
4.31822
3.08534
1.85073
0.617631
73.5558
71.1941
70.006
68.8724
67.7431
66.6574
65.6058
64.5786
63.5719
62.5836
61.6105
60.6512
59.7036
58.7682
57.8478
56.9565
56.119
55.3724
54.753
54.2824
53.9519
53.7041
53.4627
53.1554
52.7454
52.2433
51.6673
51.0458
50.3972
49.74
49.0797
48.4228
47.7732
47.1296
46.4928
45.8549
45.208
44.5266
43.7909
42.9678
42.0533
41.0402
39.9577
38.8145
37.6394
36.4338
35.2175
33.9881
32.7576
31.5199
30.2853
29.0449
27.808
26.5681
25.3314
24.0917
22.8558
21.6163
20.38
19.1417
17.906
16.6682
15.433
14.1956
12.9611
11.7245
10.4909
9.25451
8.02117
6.78586
5.55308
4.31822
3.08535
1.85073
0.617634
73.5705
71.1882
70.0059
68.8722
67.743
66.6574
65.6058
64.5786
63.5718
62.5834
61.6103
60.6509
59.7033
58.7678
57.8473
56.956
56.1183
55.3716
54.7521
54.2814
53.9508
53.703
53.4615
53.1542
52.7443
52.2423
51.6664
51.045
50.3965
49.7394
49.0792
48.4224
47.7728
47.1292
46.4925
45.8546
45.2078
44.5264
43.7907
42.9676
42.0531
41.04
39.9576
38.8144
37.6393
36.4338
35.2175
33.9881
32.7576
31.5199
30.2853
29.0449
27.808
26.5681
25.3314
24.0917
22.8558
21.6163
20.38
19.1417
17.906
16.6682
15.433
14.1956
12.9611
11.7245
10.4909
9.25451
8.02117
6.78586
5.55309
4.31823
3.08536
1.85073
0.617636
73.5844
71.1828
70.0058
68.872
67.7429
66.6574
65.6057
64.5784
63.5716
62.5831
61.61
60.6505
59.7029
58.7674
57.8469
56.9555
56.1178
55.371
54.7513
54.2805
53.9498
53.7019
53.4604
53.1532
52.7433
52.2414
51.6656
51.0443
50.3959
49.7389
49.0788
48.422
47.7725
47.129
46.4923
45.8544
45.2076
44.5262
43.7905
42.9674
42.053
41.0399
39.9575
38.8143
37.6393
36.4337
35.2175
33.9881
32.7576
31.5199
30.2853
29.0449
27.808
26.5681
25.3314
24.0917
22.8558
21.6163
20.38
19.1417
17.906
16.6682
15.433
14.1956
12.9611
11.7245
10.4909
9.25451
8.02118
6.78587
5.5531
4.31823
3.08536
1.85073
0.617639
73.5976
71.1778
70.0056
68.8718
67.7428
66.6572
65.6056
64.5782
63.5713
62.5828
61.6095
60.6501
59.7024
58.7669
57.8464
56.9551
56.1173
55.3705
54.7508
54.2798
53.9489
53.7009
53.4594
53.1522
52.7424
52.2406
51.6649
51.0437
50.3954
49.7385
49.0784
48.4217
47.7722
47.1287
46.4921
45.8543
45.2074
44.5261
43.7903
42.9673
42.0529
41.0397
39.9574
38.8143
37.6393
36.4337
35.2175
33.9881
32.7576
31.5199
30.2853
29.0449
27.808
26.5681
25.3314
24.0917
22.8558
21.6163
20.38
19.1417
17.906
16.6682
15.433
14.1956
12.9611
11.7245
10.491
9.25451
8.02119
6.78587
5.55311
4.31823
3.08537
1.85074
0.61764
73.61
71.1733
70.0055
68.8716
67.7426
66.657
65.6053
64.5778
63.5709
62.5823
61.6091
60.6496
59.702
58.7665
57.846
56.9547
56.117
55.3702
54.7503
54.2793
53.9482
53.7001
53.4585
53.1513
52.7416
52.2399
51.6643
51.0432
50.395
49.7381
49.0781
48.4214
47.772
47.1286
46.4919
45.8541
45.2073
44.5259
43.7902
42.9672
42.0528
41.0397
39.9574
38.8142
37.6392
36.4337
35.2175
33.9881
32.7576
31.5199
30.2853
29.0449
27.808
26.5681
25.3314
24.0917
22.8558
21.6163
20.38
19.1417
17.906
16.6682
15.433
14.1956
12.9611
11.7245
10.491
9.25451
8.0212
6.78588
5.55312
4.31824
3.08537
1.85074
0.617642
73.6217
71.1691
70.0053
68.8714
67.7424
66.6567
65.6049
64.5774
63.5704
62.5818
61.6085
60.6491
59.7015
58.7661
57.8457
56.9545
56.1168
55.3699
54.7501
54.2789
53.9477
53.6995
53.4577
53.1506
52.7409
52.2393
51.6638
51.0428
50.3947
49.7379
49.0779
48.4212
47.7718
47.1284
46.4918
45.8541
45.2072
44.5259
43.7901
42.9671
42.0527
41.0396
39.9573
38.8142
37.6392
36.4337
35.2175
33.9881
32.7576
31.5199
30.2853
29.0449
27.808
26.5681
25.3314
24.0917
22.8558
21.6163
20.38
19.1417
17.906
16.6682
15.433
14.1956
12.9611
11.7245
10.491
9.25452
8.02121
6.78588
5.55312
4.31824
3.08537
1.85074
0.617643
73.6326
71.1653
70.0051
68.871
67.742
66.6563
65.6044
64.5768
63.5698
62.5812
61.608
60.6487
59.7011
58.7657
57.8454
56.9542
56.1166
55.3698
54.7499
54.2787
53.9473
53.699
53.4572
53.15
52.7403
52.2389
51.6634
51.0425
50.3944
49.7376