/*--------------------------------*- C++ -*----------------------------------*\
  =========                 |
  \\      /  F ield         | OpenFOAM: The Open Source CFD Toolbox
   \\    /   O peration     | Website:  https://openfoam.org
    \\  /    A nd           | Version:  7
     \\/     M anipulation  |
\*---------------------------------------------------------------------------*/
FoamFile
{
    version     2.0;
    format      ascii;
    class       surfaceScalarField;
    location    "300";
    object      phi;
}
// * * * * * * * * * * * * * * * * * * * * * * * * * * * * * * * * * * * * * //

dimensions      [0 3 -1 0 0 0 0];

internalField   nonuniform List<scalar> 
8865
(
0.00452285
0.00168693
0.00415016
0.00037268
0.0039903
0.000159855
0.00389729
9.29974e-05
0.00383339
6.3886e-05
0.00378555
4.78258e-05
0.00374796
3.75828e-05
0.00371746
3.04975e-05
0.00369215
2.52852e-05
0.0036708
2.1328e-05
0.00365253
1.82502e-05
0.00363666
1.58607e-05
0.0036226
1.40657e-05
0.00360983
1.27985e-05
0.00359822
1.15929e-05
0.00358865
9.54057e-06
0.00358375
4.90068e-06
0.00358778
-3.97743e-06
0.0036049
-1.70647e-05
0.00363669
-3.17488e-05
0.00368062
-4.39024e-05
0.00373116
-5.0554e-05
0.00378279
-5.16389e-05
0.00383203
-4.92129e-05
0.00387759
-4.55865e-05
0.0039196
-4.20096e-05
0.00395859
-3.89842e-05
0.00399497
-3.63587e-05
0.00402892
-3.39188e-05
0.00406043
-3.14531e-05
0.00408932
-2.88442e-05
0.00411536
-2.60213e-05
0.00413838
-2.29017e-05
0.00415824
-1.97977e-05
0.00417498
-1.66709e-05
0.00418873
-1.37559e-05
0.00419981
-1.08811e-05
0.00420855
-8.6502e-06
0.00421531
-6.67387e-06
0.00422039
-5.13417e-06
0.00422407
-3.4658e-06
0.0042266
-2.45431e-06
0.00422826
-1.6312e-06
0.00422927
-1.13362e-06
0.00422985
-5.67172e-07
0.00423014
-2.01489e-07
0.00423025
-1.07698e-07
0.00423023
-7.24868e-08
0.00423016
-1.00149e-08
0.00423002
-3.51394e-08
0.00422987
2.27001e-07
0.00422969
2.87272e-07
0.00422952
2.33473e-07
0.00422934
1.678e-07
0.00422917
1.42869e-07
0.004229
6.47519e-08
0.00422885
1.90587e-07
0.00422869
2.34077e-07
0.00422854
1.1784e-07
0.00422839
2.09218e-07
0.00422825
9.49038e-08
0.00422812
2.26051e-07
0.004228
1.34738e-07
0.00422789
1.27894e-07
0.00422779
2.45962e-08
0.00422768
5.12976e-08
0.00422758
1.02419e-08
0.00422747
5.16369e-08
0.00422737
-2.62514e-08
0.00422725
2.71579e-09
0.00422714
-5.09512e-08
0.00422705
4.45873e-09
0.00422698
-8.50349e-08
0.00422694
-9.84831e-08
-1.22796e-07
0.00573448
0.00277625
0.00532416
0.000783
0.00510631
0.000377693
0.00497607
0.000223234
0.00488795
0.000151998
0.00482307
0.000112695
0.00477272
8.79267e-05
0.00473224
7.09787e-05
0.00469887
5.86471e-05
0.00467084
4.93413e-05
0.00464694
4.21335e-05
0.00462625
3.65456e-05
0.00460798
3.23363e-05
0.00459153
2.92747e-05
0.00457684
2.62728e-05
0.00456525
2.11053e-05
0.00456028
9.87687e-06
0.00456715
-1.08195e-05
0.00459069
-4.05774e-05
0.00463236
-7.33604e-05
0.00468851
-0.000100062
0.004752
-0.000114057
0.00481593
-0.000115576
0.00487609
-0.000109394
0.00493108
-0.000100557
0.00498118
-9.21136e-05
0.00502715
-8.49507e-05
0.00506958
-7.87949e-05
0.00510874
-7.30382e-05
0.00514469
-6.7375e-05
0.00517732
-6.1446e-05
0.00520646
-5.51475e-05
0.005232
-4.8384e-05
0.00525392
-4.16854e-05
0.00527234
-3.50549e-05
0.0052875
-2.8913e-05
0.00529975
-2.30382e-05
0.00530948
-1.83352e-05
0.00531704
-1.41808e-05
0.0053227
-1.08323e-05
0.0053268
-7.44669e-06
0.0053296
-5.22038e-06
0.00533143
-3.44614e-06
0.00533255
-2.31577e-06
0.0053332
-1.20682e-06
0.00533353
-4.92794e-07
0.00533367
-2.47515e-07
0.00533368
-1.28687e-07
0.00533362
7.18773e-09
0.00533349
3.51475e-10
0.00533335
4.12918e-07
0.00533318
5.113e-07
0.00533301
4.34423e-07
0.00533284
3.35283e-07
0.00533267
2.95799e-07
0.0053325
1.7968e-07
0.00533234
3.69236e-07
0.00533218
4.31659e-07
0.00533203
2.54773e-07
0.00533188
3.8617e-07
0.00533175
2.05049e-07
0.00533163
3.96139e-07
0.00533152
2.5067e-07
0.00533142
2.37318e-07
0.00533132
8.33439e-08
0.00533122
1.29028e-07
0.00533111
7.27642e-08
0.00533099
1.44529e-07
0.00533086
3.34818e-08
0.00533073
7.68237e-08
0.00533061
-1.50862e-08
0.00533052
5.56892e-08
0.00533045
-9.76896e-08
0.00533041
-1.2974e-07
-1.96896e-07
0.00677261
0.00350215
0.00634446
0.00121114
0.00607519
0.000646963
0.00590745
0.00039096
0.00579398
0.000265465
0.00571122
0.000195447
0.00564761
0.000151535
0.00559687
0.000121718
0.0055553
0.000100207
0.00552056
8.40707e-05
0.00549106
7.16266e-05
0.00546561
6.19926e-05
0.00544326
5.46949e-05
0.00542333
4.9217e-05
0.00540593
4.36625e-05
0.00539284
3.41793e-05
0.00538824
1.44837e-05
0.00539798
-2.05421e-05
0.00542719
-6.97632e-05
0.00547698
-0.000123159
0.00554271
-0.000165761
0.00561585
-0.000187196
0.00568832
-0.000188055
0.00575539
-0.000176436
0.00581568
-0.00016087
0.00586975
-0.000146179
0.00591865
-0.000133853
0.0059632
-0.000123323
0.00600384
-0.000113688
0.00604077
-0.000104281
0.00607398
-9.46412e-05
0.00610343
-8.45857e-05
0.00612911
-7.40293e-05
0.0061511
-6.36553e-05
0.00616958
-5.35203e-05
0.00618485
-4.41806e-05
0.00619727
-3.53913e-05
0.00620717
-2.82136e-05
0.00621488
-2.18616e-05
0.00622066
-1.6634e-05
0.00622483
-1.15454e-05
0.00622768
-8.04711e-06
0.00622954
-5.29422e-06
0.00623068
-3.49706e-06
0.00623135
-1.8751e-06
0.00623172
-8.34191e-07
0.0062319
-4.24968e-07
0.00623195
-2.10011e-07
0.00623193
1.2491e-09
0.00623185
3.11781e-08
0.00623174
5.49113e-07
0.0062316
6.78694e-07
0.00623146
5.9141e-07
0.00623132
4.72683e-07
0.00623119
4.25813e-07
0.00623104
2.92184e-07
0.0062309
5.22312e-07
0.00623076
5.94944e-07
0.00623063
3.77686e-07
0.00623051
5.23817e-07
0.0062304
2.94862e-07
0.00623031
5.14033e-07
0.00623024
3.31413e-07
0.00623017
3.13863e-07
0.00623009
1.34793e-07
0.00623
2.02458e-07
0.0062299
1.51957e-07
0.00622977
2.54263e-07
0.00622963
1.29643e-07
0.0062295
1.75801e-07
0.00622938
4.96232e-08
0.0062293
1.11286e-07
0.00622924
-8.94758e-08
0.00622921
-1.42725e-07
-2.18883e-07
0.00776838
0.00397371
0.00736522
0.00161429
0.00705881
0.000953365
0.00685371
0.000596062
0.00671228
0.000406881
0.00660912
0.000298603
0.00653023
0.000230429
0.00646766
0.000184281
0.00641668
0.000151184
0.00637426
0.000126478
0.00633838
0.000107502
0.00630754
9.28251e-05
0.00628061
8.1623e-05
0.0062569
7.29411e-05
0.0062367
6.38539e-05
0.00622224
4.86303e-05
0.00621823
1.85012e-05
0.00623091
-3.32064e-05
0.00626543
-0.000104262
0.00632241
-0.000180097
0.00639612
-0.000239485
0.00647668
-0.000267762
0.00655498
-0.000266363
0.00662595
-0.000247428
0.00668845
-0.000223354
0.00674351
-0.000201235
0.00679257
-0.000182916
0.00683675
-0.000167514
0.00687669
-0.000153593
0.00691272
-0.000140293
0.00694496
-0.000126876
0.00697348
-0.000113098
0.00699835
-9.88661e-05
0.00701969
-8.49802e-05
0.00703772
-7.15244e-05
0.00705269
-5.91555e-05
0.00706494
-4.75915e-05
0.00707476
-3.80094e-05
0.00708241
-2.94887e-05
0.00708814
-2.23817e-05
0.00709226
-1.56082e-05
0.00709507
-1.08399e-05
0.00709691
-7.12021e-06
0.00709804
-4.66566e-06
0.00709873
-2.55615e-06
0.00709912
-1.20832e-06
0.00709934
-6.42554e-07
0.00709944
-3.33974e-07
0.00709947
-4.90502e-08
0.00709943
2.41282e-08
0.00709936
6.36298e-07
0.00709928
7.95829e-07
0.00709918
7.02104e-07
0.00709908
5.69335e-07
0.00709898
5.20425e-07
0.00709887
3.7999e-07
0.00709875
6.46941e-07
0.00709864
7.27551e-07
0.00709853
4.7255e-07
0.00709845
6.23585e-07
0.00709839
3.47059e-07
0.00709834
5.8624e-07
0.0070983
3.71268e-07
0.00709827
3.53523e-07
0.00709822
1.62685e-07
0.00709814
2.62782e-07
0.00709804
2.30961e-07
0.00709791
3.72041e-07
0.00709777
2.40309e-07
0.00709763
2.82579e-07
0.00709753
1.12259e-07
0.00709746
1.56508e-07
0.00709742
-9.18685e-08
0.0070974
-1.57922e-07
-2.61654e-07
0.00876053
0.00426786
0.00841816
0.00195666
0.00809688
0.00127464
0.00785897
0.000833966
0.00768847
0.00057738
0.00756264
0.00042443
0.00746628
0.000326787
0.00739004
0.000260516
0.00732813
0.000213094
0.00727679
0.000177809
0.00723349
0.000150788
0.00719643
0.000129891
0.00716425
0.000113802
0.00713625
0.00010095
0.00711293
8.71639e-05
0.00709692
6.46383e-05
0.0070933
2.21188e-05
0.0071085
-4.83923e-05
0.00714747
-0.000143218
0.00721024
-0.000242871
0.00729001
-0.000319226
0.00737564
-0.000353396
0.00745715
-0.000347873
0.00752936
-0.00031961
0.00759161
-0.000285636
0.00764553
-0.000255149
0.00769302
-0.000230411
0.00773548
-0.00020995
0.00777371
-0.000191838
0.00780817
-0.000174735
0.00783904
-0.000157739
0.00786643
-0.000140482
0.00789043
-0.000122847
0.00791117
-0.000105707
0.00792882
-8.91604e-05
0.0079436
-7.39369e-05
0.00795578
-5.97275e-05
0.00796557
-4.77857e-05
0.0079732
-3.71056e-05
0.00797891
-2.81024e-05
0.00798301
-1.96602e-05
0.0079858
-1.36155e-05
0.00798762
-8.93461e-06
0.00798875
-5.82613e-06
0.00798946
-3.25362e-06
0.00798988
-1.61831e-06
0.00799014
-9.00582e-07
0.00799029
-4.99829e-07
0.00799036
-1.41532e-07
0.00799037
-1.72595e-08
0.00799035
6.7493e-07
0.0079903
8.62856e-07
0.00799025
7.67241e-07
0.00799019
6.26104e-07
0.00799013
5.81141e-07
0.00799004
4.45406e-07
0.00798995
7.438e-07
0.00798986
8.29418e-07
0.00798979
5.41009e-07
0.00798974
6.84079e-07
0.00798971
3.65027e-07
0.0079897
6.11471e-07
0.00798971
3.71405e-07
0.00798971
3.5674e-07
0.00798969
1.68158e-07
0.00798963
3.09103e-07
0.00798953
3.13005e-07
0.00798939
4.98255e-07
0.00798924
3.66918e-07
0.00798911
3.95715e-07
0.00798901
1.77602e-07
0.00798896
1.8967e-07
0.00798894
-9.72013e-08
0.00798893
-1.74601e-07
-2.7325e-07
0.00977742
0.00444043
0.00951399
0.00222008
0.00920568
0.00158294
0.00894539
0.00109426
0.00874722
0.000775538
0.0085973
0.00057435
0.00848145
0.000442635
0.00838959
0.000352373
0.00831503
0.000287647
0.00825331
0.000239518
0.00820138
0.000202713
0.00815705
0.000174221
0.00811877
0.000152082
0.00808581
0.00013392
0.00805886
0.000114109
0.00804083
8.26517e-05
0.00803705
2.59004e-05
0.00805388
-6.51999e-05
0.0080959
-0.000185226
0.00816252
-0.000309452
0.00824601
-0.000402733
0.00833415
-0.000441532
0.00841631
-0.000430041
0.00848749
-0.000390815
0.00854767
-0.000345791
0.0085991
-0.000306583
0.00864412
-0.00027543
0.00868433
-0.000250175
0.00872064
-0.000228114
0.00875352
-0.000207601
0.00878317
-0.000187389
0.0088097
-0.000167004
0.00883317
-0.000146291
0.00885365
-0.000126175
0.00887126
-0.000106752
0.00888613
-8.88152e-05
0.00889847
-7.20278e-05
0.00890843
-5.77303e-05
0.0089162
-4.48582e-05
0.008922
-3.39165e-05
0.00892616
-2.37739e-05
0.00892898
-1.643e-05
0.00893083
-1.07777e-05
0.008932
-7.012e-06
0.00893273
-3.98231e-06
0.00893319
-2.06636e-06
0.00893349
-1.20204e-06
0.00893369
-7.11126e-07
0.00893381
-2.79259e-07
0.00893386
-9.94642e-08
0.00893388
6.7273e-07
0.00893387
8.8991e-07
0.00893385
7.93534e-07
0.00893383
6.46775e-07
0.0089338
6.10108e-07
0.00893374
4.86096e-07
0.00893367
8.17645e-07
0.0089336
9.07898e-07
0.00893356
5.83405e-07
0.00893354
7.13592e-07
0.00893355
3.47655e-07
0.00893357
6.00024e-07
0.00893361
3.35791e-07
0.00893365
3.28128e-07
0.00893365
1.50223e-07
0.0089336
3.43341e-07
0.00893351
3.93196e-07
0.00893337
6.31817e-07
0.00893321
5.02896e-07
0.00893307
5.12926e-07
0.00893298
2.3545e-07
0.00893295
2.10909e-07
0.00893294
-1.17584e-07
0.00893294
-1.97819e-07
-3.11544e-07
0.0108418
0.00453247
0.0106586
0.00240325
0.0103907
0.00185084
0.0101252
0.00135974
0.00990487
0.000995857
0.0097312
0.000748015
0.00959447
0.000579362
0.00948519
0.000461659
0.00939621
0.000376612
0.00932252
0.000313199
0.00926056
0.00026467
0.00920776
0.000227016
0.00916237
0.000197478
0.0091236
0.000172695
0.00909229
0.000145415
0.00907154
0.000103399
0.00906667
3.07712e-05
0.00908377
-8.22904e-05
0.00912695
-0.000228391
0.009195
-0.000377522
0.00927949
-0.000487183
0.00936745
-0.000529489
0.00944794
-0.000510534
0.00951629
-0.000459138
0.00957317
-0.000402702
0.0096214
-0.000354812
0.00966363
-0.000317654
0.00970155
-0.00028807
0.00973608
-0.000262661
0.00976767
-0.000239189
0.0097965
-0.000216209
0.00982259
-0.000193093
0.00984596
-0.000169643
0.00986661
-0.000146812
0.00988456
-0.000124694
0.00989988
-0.000104136
0.00991268
-8.47951e-05
0.00992306
-6.80914e-05
0.00993116
-5.29465e-05
0.00993721
-3.99739e-05
0.00994153
-2.80682e-05
0.00994448
-1.93643e-05
0.00994641
-1.27011e-05
0.00994763
-8.25138e-06
0.00994841
-4.76001e-06
0.00994892
-2.56367e-06
0.00994927
-1.54946e-06
0.00994951
-9.65653e-07
0.00994967
-4.57117e-07
0.00994976
-2.14518e-07
0.00994981
6.31996e-07
0.00994984
8.78703e-07
0.00994986
7.84407e-07
0.00994987
6.35612e-07
0.00994986
6.12075e-07
0.00994983
5.08102e-07
0.00994978
8.71124e-07
0.00994973
9.64451e-07
0.00994971
6.04968e-07
0.00994971
7.13195e-07
0.00994975
3.02319e-07
0.00994981
5.52371e-07
0.00994989
2.68163e-07
0.00994995
2.70153e-07
0.00994997
1.12802e-07
0.00994994
3.66192e-07
0.00994984
4.76461e-07
0.00994969
7.74197e-07
0.00994952
6.52567e-07
0.00994938
6.36095e-07
0.0099493
2.95283e-07
0.00994928
2.22106e-07
0.00994928
-1.41421e-07
0.00994929
-2.24447e-07
-3.20272e-07
0.0119752
0.00457222
0.0118614
0.00251699
0.0116523
0.00205997
0.0114041
0.00160796
0.0111727
0.0012272
0.0109787
0.000942
0.0108211
0.000736948
0.0106932
0.000589616
0.0105882
0.00048159
0.0105009
0.000400462
0.0104274
0.000338149
0.0103648
0.000289604
0.0103112
0.000251152
0.0102656
0.00021829
0.010229
0.000182013
0.0102045
0.000127869
0.0101973
3.79931e-05
0.0102129
-9.79184e-05
0.0102549
-0.000270366
0.0103215
-0.000444123
0.010404
-0.000569698
0.0104891
-0.000614577
0.0105659
-0.000587281
0.01063
-0.000523328
0.0106829
-0.000455495
0.0107276
-0.000399517
0.0107669
-0.000357041
0.0108027
-0.000323875
0.0108358
-0.000295677
0.0108665
-0.000269859
0.0108949
-0.000244606
0.010921
-0.000219178
0.0109447
-0.000193328
0.0109659
-0.000168035
0.0109846
-0.000143378
0.0110007
-0.00012026
0.0110143
-9.8339e-05
0.0110253
-7.91378e-05
0.011034
-6.15915e-05
0.0110405
-4.64542e-05
0.0110451
-3.26653e-05
0.0110483
-2.25073e-05
0.0110503
-1.47662e-05
0.0110516
-9.58803e-06
0.0110525
-5.60958e-06
0.0110531
-3.1188e-06
0.0110535
-1.94848e-06
0.0110538
-1.26689e-06
0.011054
-6.77546e-07
0.0110541
-3.66476e-07
0.0110542
5.58035e-07
0.0110542
8.36331e-07
0.0110543
7.44927e-07
0.0110543
5.96131e-07
0.0110543
5.891e-07
0.0110543
5.10517e-07
0.0110543
9.07732e-07
0.0110543
1.00453e-06
0.0110543
6.06762e-07
0.0110543
6.90077e-07
0.0110543
2.28772e-07
0.0110544
4.76709e-07
0.0110545
1.71764e-07
0.0110546
1.86623e-07
0.0110547
5.58804e-08
0.0110546
3.79882e-07
0.0110546
5.5886e-07
0.0110544
9.24973e-07
0.0110542
8.1226e-07
0.0110541
7.65951e-07
0.011054
3.50882e-07
0.011054
2.26046e-07
0.011054
-1.77869e-07
0.011054
-2.56765e-07
-3.58893e-07
0.0131983
0.00457682
0.0131373
0.00257797
0.0129915
0.00220575
0.0127826
0.00181685
0.0125574
0.00145239
0.0123512
0.00114825
0.0121753
0.000912828
0.0120287
0.000736235
0.0119066
0.000603625
0.0118044
0.000502712
0.0117179
0.000424613
0.0116441
0.000363379
0.0115809
0.000314382
0.0115273
0.000271874
0.0114843
0.000225034
0.0114549
0.000157309
0.0114437
4.91278e-05
0.0114558
-0.000110011
0.0114939
-0.000308474
0.011556
-0.000506229
0.0116334
-0.000646983
0.0117129
-0.000694125
0.011784
-0.00065842
0.0118429
-0.000582176
0.0118912
-0.000503761
0.0119322
-0.000440519
0.0119688
-0.000393642
0.0120026
-0.000357679
0.0120344
-0.000327507
0.0120645
-0.000299926
0.0120928
-0.000272931
0.0121193
-0.000245632
0.0121437
-0.000217737
0.0121659
-0.000190235
0.0121857
-0.000163187
0.012203
-0.000137552
0.0122177
-0.000113003
0.0122297
-9.11708e-05
0.0122392
-7.10464e-05
0.0122463
-5.3553e-05
0.0122514
-3.77193e-05
0.0122549
-2.59644e-05
0.0122571
-1.7041e-05
0.0122586
-1.10605e-05
0.0122595
-6.55548e-06
0.0122602
-3.74723e-06
0.0122606
-2.40446e-06
0.012261
-1.61482e-06
0.0122612
-9.37382e-07
0.0122614
-5.49257e-07
0.0122615
4.51392e-07
0.0122616
7.63007e-07
0.0122617
6.77187e-07
0.0122617
5.31264e-07
0.0122618
5.44515e-07
0.0122618
4.97933e-07
0.0122617
9.28809e-07
0.0122617
1.02857e-06
0.0122617
5.93255e-07
0.0122618
6.44533e-07
0.0122619
1.33655e-07
0.012262
3.72535e-07
0.0122621
4.93499e-08
0.0122622
7.88734e-08
0.0122623
-1.78337e-08
0.0122623
3.83773e-07
0.0122622
6.44192e-07
0.012262
1.08476e-06
0.0122618
9.85997e-07
0.0122617
9.0444e-07
0.0122616
4.12072e-07
0.0122616
2.24606e-07
0.0122616
-2.15291e-07
0.0122616
-2.9223e-07
-3.68401e-07
0.0145294
0.00455579
0.0145054
0.00260194
0.0144157
0.0022955
0.0142598
0.00197275
0.0140612
0.001651
0.0138564
0.001353
0.0136688
0.00110042
0.0135058
0.000899213
0.0133669
0.000742548
0.0132488
0.000620752
0.0131482
0.00052526
0.0130619
0.000449653
0.0129878
0.000388472
0.012925
0.000334715
0.0128742
0.000275771
0.0128384
0.000193167
0.0128215
6.5975e-05
0.0128278
-0.000116244
0.0128591
-0.000339795
0.0129133
-0.000560354
0.0129821
-0.000715854
0.0130534
-0.000765442
0.0131172
-0.000722156
0.0131698
-0.000634803
0.0132129
-0.000546888
0.01325
-0.000477627
0.0132838
-0.000427412
0.0133157
-0.000389637
0.0133465
-0.000358203
0.0133761
-0.000329587
0.0134047
-0.000301431
0.0134318
-0.000272743
0.0134572
-0.000243187
0.0134808
-0.000213757
0.0135021
-0.000184486
0.0135209
-0.000156384
0.0135371
-0.00012914
0.0135504
-0.000104516
0.013561
-8.15917e-05
0.0135689
-6.1501e-05
0.0135746
-4.3394e-05
0.0135785
-2.98539e-05
0.0135811
-1.96063e-05
0.0135827
-1.27244e-05
0.0135838
-7.62873e-06
0.0135846
-4.46317e-06
0.0135851
-2.92627e-06
0.0135855
-2.01455e-06
0.0135858
-1.24029e-06
0.0135859
-7.67399e-07
0.0135861
3.15226e-07
0.0135862
6.63579e-07
0.0135863
5.84565e-07
0.0135864
4.43366e-07
0.0135865
4.79247e-07
0.0135865
4.68837e-07
0.0135865
9.36326e-07
0.0135865
1.04044e-06
0.0135865
5.64942e-07
0.0135866
5.82662e-07
0.0135867
1.62497e-08
0.0135868
2.46562e-07
0.013587
-9.68711e-08
0.0135871
-5.03459e-08
0.0135872
-1.08831e-07
0.0135872
3.7934e-07
0.0135871
7.28006e-07
0.0135869
1.25268e-06
0.0135867
1.17067e-06
0.0135865
1.05312e-06
0.0135864
4.73932e-07
0.0135864
2.21441e-07
0.0135865
-2.61996e-07
0.0135865
-3.32377e-07
-4.09611e-07
0.0159844
0.00451428
0.0159863
0.00260007
0.0159396
0.00234214
0.015838
0.00207438
0.0156829
0.00180612
0.0154978
0.00153809
0.0153103
0.0012879
0.015137
0.00107255
0.0149835
0.000895964
0.0148501
0.000754126
0.0147348
0.000640606
0.014635
0.000549398
0.0145489
0.000474589
0.0144756
0.00040808
0.0144157
0.000335604
0.0143719
0.000237034
0.0143474
9.04879e-05
0.0143453
-0.000114169
0.0143668
-0.000361321
0.0144096
-0.000603198
0.0144666
-0.000772753
0.0145269
-0.000825719
0.0145813
-0.000776583
0.0146265
-0.000679943
0.0146639
-0.000584365
0.0146967
-0.000510463
0.0147275
-0.000458145
0.0147574
-0.000419548
0.014787
-0.000387836
0.0148163
-0.000358898
0.0148452
-0.000330229
0.0148731
-0.000300698
0.0148999
-0.00026993
0.014925
-0.000238908
0.0149482
-0.000207627
0.0149689
-0.000177133
0.014987
-0.000147141
0.015002
-0.000119543
0.015014
-9.35519e-05
0.015023
-7.05577e-05
0.0150295
-4.98938e-05
0.015034
-3.43182e-05
0.015037
-2.25553e-05
0.0150389
-1.46348e-05
0.0150401
-8.86412e-06
0.0150409
-5.2883e-06
0.0150415
-3.52305e-06
0.015042
-2.46851e-06
0.0150423
-1.5849e-06
0.0150425
-1.01642e-06
0.0150427
1.48918e-07
0.0150429
5.37412e-07
0.015043
4.68358e-07
0.0150431
3.34519e-07
0.0150432
3.95634e-07
0.0150432
4.26648e-07
0.0150432
9.30622e-07
0.0150432
1.03986e-06
0.0150433
5.25674e-07
0.0150433
5.04332e-07
0.0150435
-1.17193e-07
0.0150436
9.79123e-08
0.0150438
-2.646e-07
0.0150439
-2.00325e-07
0.015044
-2.15317e-07
0.0150441
3.64829e-07
0.015044
8.12964e-07
0.0150438
1.42831e-06
0.0150436
1.36954e-06
0.0150434
1.21359e-06
0.0150433
5.46354e-07
0.0150433
2.18399e-07
0.0150433
-3.06155e-07
0.0150433
-3.75091e-07
-4.19585e-07
0.0175785
0.00445504
0.0175994
0.00257915
0.0175837
0.00235786
0.0175281
0.00212998
0.0174232
0.00191103
0.0172751
0.00168619
0.0171043
0.00145875
0.0169315
0.00124532
0.0167695
0.0010579
0.0166236
0.000900093
0.0164944
0.000769784
0.016381
0.000662778
0.0162821
0.000573457
0.0161972
0.000493019
0.016127
0.000405844
0.0160735
0.000290511
0.0160393
0.00012465
0.0160265
-0.000101332
0.0160353
-0.000370082
0.0160633
-0.000631191
0.0161049
-0.000814328
0.0161511
-0.000871934
0.016194
-0.000819501
0.0162303
-0.000716298
0.0162611
-0.000615116
0.016289
-0.000538382
0.0163162
-0.000485359
0.0163438
-0.000447166
0.0163721
-0.000416075
0.0164009
-0.000387728
0.01643
-0.000359293
0.0164589
-0.000329561
0.0164871
-0.000298118
0.0165141
-0.000265928
0.0165394
-0.000232929
0.0165625
-0.000200182
0.0165828
-0.000167411
0.0165999
-0.000136656
0.0166136
-0.000107293
0.0166241
-8.10314e-05
0.0166317
-5.74469e-05
0.0166369
-3.95223e-05
0.0166404
-2.60015e-05
0.0166426
-1.68678e-05
0.016644
-1.03061e-05
0.016645
-6.24505e-06
0.0166457
-4.20818e-06
0.0166462
-2.9839e-06
0.0166466
-1.97594e-06
0.0166468
-1.30109e-06
0.016647
-4.55234e-08
0.0166472
3.88213e-07
0.0166473
3.31158e-07
0.0166475
2.06674e-07
0.0166476
2.94153e-07
0.0166476
3.69643e-07
0.0166476
9.12744e-07
0.0166476
1.02973e-06
0.0166477
4.75621e-07
0.0166478
4.15268e-07
0.0166479
-2.6743e-07
0.0166481
-6.71344e-08
0.0166483
-4.51905e-07
0.0166485
-3.68591e-07
0.0166486
-3.37899e-07
0.0166486
3.41366e-07
0.0166485
8.94009e-07
0.0166483
1.61019e-06
0.0166481
1.57944e-06
0.0166479
1.38781e-06
0.0166478
6.25148e-07
0.0166478
2.20127e-07
0.0166478
-3.55518e-07
0.0166478
-4.21121e-07
-4.64229e-07
0.0193271
0.00437947
0.0193633
0.00254298
0.0193699
0.00235121
0.0193491
0.00215078
0.0192903
0.00196978
0.0191886
0.00178795
0.0190512
0.00159615
0.0188945
0.00140198
0.0187348
0.00121761
0.0185826
0.0010523
0.0184429
0.000909488
0.0183172
0.000788392
0.0182059
0.000684826
0.0181089
0.000590003
0.0180273
0.000487472
0.0179628
0.000355013
0.0179171
0.000170297
0.0178913
-7.54607e-05
0.0178845
-0.000363342
0.0178946
-0.000641268
0.0179172
-0.000836907
0.0179461
-0.00090079
0.0179748
-0.000848271
0.0180004
-0.000741802
0.0180231
-0.00063791
0.0180451
-0.000560345
0.018068
-0.000508256
0.0180926
-0.000471756
0.0181191
-0.000442543
0.0181471
-0.000415734
0.0181762
-0.000388409
0.0182059
-0.000359243
0.0182356
-0.00032779
0.0182646
-0.00029498
0.0182924
-0.000260667
0.0183181
-0.000225899
0.0183411
-0.000190386
0.0183607
-0.000156302
0.0183767
-0.000123232
0.0183889
-9.32714e-05
0.0183978
-6.63323e-05
0.018404
-4.56648e-05
0.0184081
-3.0077e-05
0.0184107
-1.95043e-05
0.0184124
-1.20053e-05
0.0184135
-7.36447e-06
0.0184143
-4.99598e-06
0.0184149
-3.56592e-06
0.0184153
-2.41345e-06
0.0184156
-1.6178e-06
0.0184158
-2.69082e-07
0.018416
2.15263e-07
0.0184162
1.74253e-07
0.0184163
6.18345e-08
0.0184165
1.76945e-07
0.0184165
3.00762e-07
0.0184165
8.82554e-07
0.0184166
1.0094e-06
0.0184166
4.18392e-07
0.0184167
3.1531e-07
0.0184169
-4.27984e-07
0.0184171
-2.49217e-07
0.0184173
-6.56252e-07
0.0184175
-5.54371e-07
0.0184176
-4.75034e-07
0.0184176
3.06583e-07
0.0184175
9.72929e-07
0.0184173
1.79684e-06
0.0184171
1.80268e-06
0.0184169
1.57679e-06
0.0184168
7.20228e-07
0.0184168
2.28626e-07
0.0184168
-3.97615e-07
0.0184168
-4.6827e-07
-4.75581e-07
0.0212463
0.00428822
0.0212957
0.00249363
0.0213195
0.00232739
0.0213242
0.00214609
0.0213021
0.00199189
0.0212453
0.0018447
0.0211515
0.00168996
0.021027
0.00152649
0.0208845
0.00136004
0.0207371
0.0011997
0.020594
0.00105265
0.0204602
0.000922145
0.0203384
0.000806618
0.0202301
0.000698295
0.0201369
0.000580683
0.0200605
0.000431418
0.020002
0.00022885
0.0199612
-3.46847e-05
0.0199367
-0.000338787
0.0199259
-0.000630417
0.0199262
-0.000837297
0.0199342
-0.00090876
0.0199456
-0.000859734
0.0199579
-0.000754101
0.0199707
-0.000650663
0.0199852
-0.000574848
0.0200026
-0.000525611
0.0200232
-0.00049244
0.020047
-0.000466335
0.0200736
-0.000442297
0.0201023
-0.000417127
0.0201326
-0.000389459
0.0201636
-0.000358819
0.0201947
-0.000326098
0.0202251
-0.000291033
0.0202538
-0.000254614
0.02028
-0.000216492
0.0203026
-0.000178955
0.0203212
-0.000141831
0.0203356
-0.000107682
0.0203462
-7.68611e-05
0.0203535
-5.2974e-05
0.0203584
-3.49398e-05
0.0203615
-2.26493e-05
0.0203635
-1.40246e-05
0.0203649
-8.67981e-06
0.0203658
-5.90578e-06
0.0203664
-4.22427e-06
0.0203669
-2.90314e-06
0.0203672
-1.97122e-06
0.0203675
-5.1996e-07
0.0203677
2.22187e-08
0.0203679
2.89715e-10
0.020368
-9.76695e-08
0.0203682
4.46613e-08
0.0203682
2.18468e-07
0.0203683
8.40711e-07
0.0203683
9.81385e-07
0.0203684
3.53952e-07
0.0203685
2.10293e-07
0.0203687
-5.99349e-07
0.0203689
-4.41666e-07
0.0203691
-8.75361e-07
0.0203693
-7.54773e-07
0.0203694
-6.27058e-07
0.0203695
2.61602e-07
0.0203694
1.04413e-06
0.0203692
1.98603e-06
0.0203689
2.03537e-06
0.0203687
1.7822e-06
0.0203686
8.27518e-07
0.0203686
2.49334e-07
0.0203686
-4.39632e-07
0.0203686
-5.16526e-07
-5.23903e-07
0.0233536
0.00418139
0.0234151
0.00243216
0.0234532
0.00228928
0.0234772
0.00212206
0.0234825
0.00198658
0.0234628
0.00186445
0.0234125
0.00174026
0.02333
0.00160898
0.0232201
0.00146996
0.0230924
0.00132737
0.0229574
0.00118757
0.0228236
0.00105596
0.0226965
0.000933733
0.0225798
0.000814989
0.0224764
0.000684146
0.0223882
0.00051953
0.0223162
0.000300881
0.0222594
2.21228e-05
0.0222155
-0.000294842
0.0221817
-0.000596692
0.0221569
-0.000812385
0.0221404
-0.00089227
0.0221309
-0.000850258
0.0221267
-0.000749838
0.0221269
-0.000650946
0.0221319
-0.000579792
0.022142
-0.00053572
0.0221573
-0.000507683
0.0221773
-0.000486404
0.0222015
-0.000466477
0.0222291
-0.000444713
0.0222593
-0.00041967
0.0222914
-0.00039087
0.0223244
-0.000359148
0.0223575
-0.000324096
0.0223895
-0.000286582
0.0224191
-0.000246134
0.0224453
-0.000205102
0.0224671
-0.000163587
0.0224841
-0.000124704
0.0224966
-8.93958e-05
0.0225054
-6.17141e-05
0.0225112
-4.07688e-05
0.022515
-2.64148e-05
0.0225174
-1.64341e-05
0.022519
-1.02332e-05
0.02252
-6.95784e-06
0.0225207
-4.96684e-06
0.0225213
-3.44592e-06
0.0225216
-2.35768e-06
0.0225219
-7.9871e-07
0.0225221
-1.90969e-07
0.0225223
-1.8877e-07
0.0225225
-2.69174e-07
0.0225227
-1.00082e-07
0.0225227
1.25944e-07
0.0225228
7.87042e-07
0.0225228
9.44937e-07
0.0225229
2.85808e-07
0.022523
1.00188e-07
0.0225232
-7.74549e-07
0.0225234
-6.44454e-07
0.0225236
-1.10597e-06
0.0225239
-9.68372e-07
0.022524
-7.92098e-07
0.0225241
2.0402e-07
0.022524
1.1089e-06
0.0225238
2.17534e-06
0.0225235
2.27862e-06
0.0225233
2.00409e-06
0.0225231
9.566e-07
0.0225231
2.84306e-07
0.0225231
-4.68182e-07
0.0225231
-5.63122e-07
-5.3545e-07
0.025668
0.00405881
0.0257411
0.00235905
0.025792
0.00223836
0.0258318
0.00208227
0.025858
0.0019604
0.0258664
0.00185596
0.0258526
0.00175409
0.0258121
0.00164945
0.0257435
0.00153862
0.0256497
0.00142114
0.0255379
0.00129939
0.0254165
0.00117732
0.0252934
0.00105686
0.0251746
0.000933758
0.0250648
0.000793922
0.0249672
0.000617189
0.0248826
0.000385425
0.0248099
9.48392e-05
0.0247461
-0.000231024
0.0246883
-0.000538849
0.0246363
-0.000760345
0.0245921
-0.00084813
0.0245578
-0.000815975
0.0245334
-0.000725406
0.0245177
-0.000635287
0.0245104
-0.00057243
0.0245109
-0.000536276
0.0245189
-0.000515679
0.0245335
-0.000501
0.024554
-0.00048692
0.0245794
-0.000470064
0.0246087
-0.000449016
0.0246412
-0.000423315
0.0246758
-0.000393748
0.0247114
-0.000359723
0.0247468
-0.000321914
0.0247803
-0.000279627
0.0248104
-0.000235199
0.0248358
-0.000189004
0.0248559
-0.000144814
0.0248709
-0.00010432
0.0248814
-7.21726e-05
0.0248883
-4.77647e-05
0.0248929
-3.09335e-05
0.0248957
-1.9314e-05
0.0248976
-1.20681e-05
0.0248988
-8.17649e-06
0.0248996
-5.80503e-06
0.0249002
-4.04734e-06
0.0249006
-2.7807e-06
0.0249009
-1.1026e-06
0.0249012
-4.19844e-07
0.0249014
-3.89416e-07
0.0249016
-4.49379e-07
0.0249017
-2.55677e-07
0.0249018
2.24848e-08
0.0249019
7.22419e-07
0.0249019
9.0239e-07
0.024902
2.13853e-07
0.0249021
-9.08233e-09
0.0249023
-9.53651e-07
0.0249025
-8.50283e-07
0.0249027
-1.345e-06
0.024903
-1.1914e-06
0.0249031
-9.69588e-07
0.0249032
1.35526e-07
0.0249031
1.16157e-06
0.0249029
2.36196e-06
0.0249027
2.52766e-06
0.0249024
2.24333e-06
0.0249022
1.10297e-06
0.0249022
3.39488e-07
0.0249022
-4.89949e-07
0.0249022
-6.06885e-07
-5.85692e-07
0.02821
0.00392001
0.0282946
0.00227445
0.0283577
0.00217526
0.0284113
0.00202865
0.0284544
0.0019173
0.0284846
0.00182578
0.028499
0.00173971
0.0284939
0.00165457
0.0284657
0.00156676
0.0284129
0.00147397
0.0283369
0.00137537
0.0282426
0.00127161
0.0281368
0.00116267
0.0280266
0.00104393
0.0279183
0.000902232
0.0278164
0.000719125
0.0277227
0.000479066
0.0276363
0.000181312
0.027554
-0.000148686
0.0274728
-0.000457796
0.0273931
-0.000680511
0.0273192
-0.000774224
0.0272565
-0.000753326
0.0272077
-0.000676478
0.0271723
-0.000599935
0.0271491
-0.000549306
0.0271372
-0.000524334
0.0271353
-0.000513772
0.0271424
-0.0005081
0.0271573
-0.000501793
0.0271789
-0.000491638
0.0272061
-0.000476227
0.027238
-0.000455163
0.0272734
-0.000429187
0.0273112
-0.000397503
0.0273498
-0.0003605
0.0273873
-0.000317141
0.0274218
-0.000269616
0.0274513
-0.000218553
0.027475
-0.000168475
0.0274927
-0.000122037
0.0275052
-8.46499e-05
0.0275136
-5.61335e-05
0.027519
-3.63352e-05
0.0275224
-2.2745e-05
0.0275246
-1.42321e-05
0.027526
-9.58437e-06
0.0275269
-6.74679e-06
0.0275276
-4.70719e-06
0.027528
-3.23476e-06
0.0275283
-1.43044e-06
0.0275286
-6.62675e-07
0.0275288
-5.98302e-07
0.027529
-6.34194e-07
0.0275291
-4.18308e-07
0.0275292
-8.76761e-08
0.0275293
6.47155e-07
0.0275294
8.53236e-07
0.0275295
1.41547e-07
0.0275296
-1.17454e-07
0.0275297
-1.12921e-06
0.02753
-1.05831e-06
0.0275302
-1.5882e-06
0.0275304
-1.4213e-06
0.0275306
-1.15677e-06
0.0275307
5.44002e-08
0.0275306
1.2035e-06
0.0275304
2.54285e-06
0.0275302
2.7823e-06
0.0275299
2.49854e-06
0.0275297
1.2752e-06
0.0275296
4.16512e-07
0.0275296
-4.90723e-07
0.0275296
-6.44066e-07
-5.94143e-07
0.0310025
0.00376434
0.0310986
0.00217829
0.0311738
0.00210008
0.0312404
0.0019621
0.0312982
0.00185945
0.031346
0.00177795
0.0313824
0.00170337
0.0314049
0.00163208
0.0314106
0.00156104
0.0313966
0.00148791
0.0313612
0.0014108
0.0313046
0.00132817
0.0312299
0.00123739
0.0311421
0.0011317
0.0310472
0.000997114
0.0309504
0.000815914
0.0308547
0.000574806
0.0307597
0.000276313
0.0306629
-5.18867e-05
0.0305617
-0.000356484
0.0304563
-0.000575172
0.0303527
-0.000670598
0.0302594
-0.000660055
0.0301824
-0.000599484
0.0301229
-0.000540447
0.03008
-0.000506389
0.030052
-0.000496277
0.0300371
-0.000498933
0.0300338
-0.000504792
0.0300407
-0.000508684