/*--------------------------------*- C++ -*----------------------------------*\
  =========                 |
  \\      /  F ield         | OpenFOAM: The Open Source CFD Toolbox
   \\    /   O peration     | Website:  https://openfoam.org
    \\  /    A nd           | Version:  7
     \\/     M anipulation  |
\*---------------------------------------------------------------------------*/
FoamFile
{
    version     2.0;
    format      ascii;
    class       volVectorField;
    location    "300";
    object      U;
}
// * * * * * * * * * * * * * * * * * * * * * * * * * * * * * * * * * * * * * //

dimensions      [0 1 -1 0 0 0 0];

internalField   nonuniform List<vector> 
4500
(
(15.4058 -0.778201 0)
(13.7077 -0.0619026 0)
(13.0325 -0.00325627 0)
(12.6708 0.000464843 0)
(12.4331 0.000501288 0)
(12.2594 0.000386068 0)
(12.125 0.000303648 0)
(12.0172 0.000246393 0)
(11.9286 0.000204262 0)
(11.8542 0.000172285 0)
(11.791 0.0001474 0)
(11.7365 0.000128037 0)
(11.6888 0.000113501 0)
(11.6459 0.000103955 0)
(11.6065 9.69322e-05 0)
(11.571 8.78697e-05 0)
(11.5446 6.29917e-05 0)
(11.5392 5.74318e-06 0)
(11.5704 -8.95756e-05 0)
(11.6495 -0.000208242 0)
(11.7755 -0.000318681 0)
(11.9331 -0.000391652 0)
(12.1017 -0.000418451 0)
(12.266 -0.000410402 0)
(12.4188 -0.000385832 0)
(12.5593 -0.000357389 0)
(12.6893 -0.000331799 0)
(12.8103 -0.000309413 0)
(12.9235 -0.000288924 0)
(13.0289 -0.00026873 0)
(13.1264 -0.000247559 0)
(13.215 -0.000224589 0)
(13.2941 -0.00019859 0)
(13.3632 -0.000172624 0)
(13.4221 -0.000146034 0)
(13.4711 -0.000121151 0)
(13.5108 -9.60269e-05 0)
(13.5426 -7.73497e-05 0)
(13.5674 -6.09875e-05 0)
(13.5862 -4.85602e-05 0)
(13.6001 -3.35742e-05 0)
(13.6098 -2.44992e-05 0)
(13.6163 -1.68261e-05 0)
(13.6204 -1.21321e-05 0)
(13.6227 -6.35955e-06 0)
(13.624 -2.44501e-06 0)
(13.6246 -1.43201e-06 0)
(13.6247 -1.13727e-06 0)
(13.6245 -5.29086e-07 0)
(13.6241 -8.38751e-07 0)
(13.6236 1.91979e-06 0)
(13.6231 2.69244e-06 0)
(13.6225 2.16576e-06 0)
(13.6219 1.45838e-06 0)
(13.6214 1.1842e-06 0)
(13.6209 3.43313e-07 0)
(13.6203 1.64432e-06 0)
(13.6198 2.1822e-06 0)
(13.6193 9.87605e-07 0)
(13.6188 1.93969e-06 0)
(13.6184 8.11661e-07 0)
(13.6179 2.19365e-06 0)
(13.6175 1.32478e-06 0)
(13.6172 1.23287e-06 0)
(13.6168 1.17966e-07 0)
(13.6165 3.23875e-07 0)
(13.6162 -1.35672e-07 0)
(13.6158 2.52874e-07 0)
(13.6155 -6.07134e-07 0)
(13.6151 -3.32221e-07 0)
(13.6147 -8.6452e-07 0)
(13.6144 -2.20876e-07 0)
(13.6141 -1.08971e-06 0)
(13.614 -1.21637e-06 0)
(13.6139 -1.38845e-06 0)
(17.5879 0.16307 0)
(16.0152 0.0238106 0)
(15.1976 0.00458779 0)
(14.7348 0.00198879 0)
(14.4341 0.00129689 0)
(14.2183 0.000960405 0)
(14.0538 0.000751344 0)
(13.9232 0.000608013 0)
(13.8165 0.000503281 0)
(13.7275 0.000423984 0)
(13.6522 0.000362391 0)
(13.5874 0.000314544 0)
(13.5309 0.000278639 0)
(13.4803 0.000253666 0)
(13.4344 0.000231912 0)
(13.3942 0.00019686 0)
(13.3664 0.000114244 0)
(13.3649 -5.0172e-05 0)
(13.4066 -0.000300077 0)
(13.5029 -0.000589105 0)
(13.651 -0.000837312 0)
(13.8323 -0.000980601 0)
(14.0235 -0.00101265 0)
(14.2072 -0.000970735 0)
(14.3761 -0.000899437 0)
(14.5295 -0.000827442 0)
(14.6697 -0.000765279 0)
(14.7989 -0.000711683 0)
(14.9183 -0.000661935 0)
(15.0284 -0.000612914 0)
(15.129 -0.000561384 0)
(15.2197 -0.000506078 0)
(15.2998 -0.000445732 0)
(15.3694 -0.000385408 0)
(15.4284 -0.000324921 0)
(15.4774 -0.000268511 0)
(15.5173 -0.000214031 0)
(15.5493 -0.000171013 0)
(15.5744 -0.00013315 0)
(15.5936 -0.000102862 0)
(15.6076 -7.1249e-05 0)
(15.6175 -5.04945e-05 0)
(15.624 -3.36789e-05 0)
(15.6282 -2.29068e-05 0)
(15.6306 -1.20347e-05 0)
(15.6319 -4.94837e-06 0)
(15.6325 -2.52304e-06 0)
(15.6327 -1.39135e-06 0)
(15.6326 -7.14821e-08 0)
(15.6323 -1.82595e-07 0)
(15.6319 3.89106e-06 0)
(15.6314 4.90147e-06 0)
(15.6309 4.15327e-06 0)
(15.6304 3.1724e-06 0)
(15.6299 2.78163e-06 0)
(15.6294 1.61345e-06 0)
(15.629 3.46596e-06 0)
(15.6285 4.10878e-06 0)
(15.628 2.38934e-06 0)
(15.6276 3.71879e-06 0)
(15.6272 1.99652e-06 0)
(15.6268 3.90421e-06 0)
(15.6265 2.51132e-06 0)
(15.6262 2.36701e-06 0)
(15.6259 8.00867e-07 0)
(15.6256 1.17434e-06 0)
(15.6253 5.56501e-07 0)
(15.6249 1.2008e-06 0)
(15.6246 5.28012e-08 0)
(15.6242 4.96249e-07 0)
(15.6238 -3.47171e-07 0)
(15.6235 4.27999e-07 0)
(15.6233 -1.03002e-06 0)
(15.6231 -1.34214e-06 0)
(15.623 -1.85136e-06 0)
(18.7449 0.0973742 0)
(17.3725 0.0156214 0)
(16.4743 0.00605612 0)
(15.9331 0.00350004 0)
(15.5795 0.00236948 0)
(15.3279 0.00174938 0)
(15.138 0.00136065 0)
(14.9886 0.0010959 0)
(14.8673 0.000904097 0)
(14.7668 0.000759736 0)
(14.682 0.000648129 0)
(14.6094 0.000561673 0)
(14.5463 0.000496574 0)
(14.4902 0.000449345 0)
(14.4399 0.000404087 0)
(14.3973 0.000327424 0)
(14.37 0.000159877 0)
(14.3727 -0.00015071 0)
(14.422 -0.000599773 0)
(14.5285 -0.00109822 0)
(14.6877 -0.00150691 0)
(14.8793 -0.00172439 0)
(15.0781 -0.00175056 0)
(15.266 -0.00165631 0)
(15.4358 -0.00151946 0)
(15.5876 -0.00138698 0)
(15.7242 -0.00127436 0)
(15.8484 -0.00117772 0)
(15.9618 -0.00108872 0)
(16.0652 -0.00100166 0)
(16.1587 -0.00091164 0)
(16.2423 -0.00081689 0)
(16.3158 -0.0007162 0)
(16.3793 -0.000616763 0)
(16.4331 -0.000518859 0)
(16.4779 -0.00042844 0)
(16.5146 -0.000342723 0)
(16.5442 -0.000273688 0)
(16.5675 -0.000212657 0)
(16.5853 -0.000162827 0)
(16.5984 -0.000113001 0)
(16.6075 -7.92081e-05 0)
(16.6136 -5.23411e-05 0)
(16.6174 -3.49019e-05 0)
(16.6196 -1.85705e-05 0)
(16.6209 -8.03174e-06 0)
(16.6216 -4.05698e-06 0)
(16.6219 -2.05208e-06 0)
(16.6219 1.8567e-08 0)
(16.6217 1.67018e-07 0)
(16.6215 5.63422e-06 0)
(16.6211 7.00035e-06 0)
(16.6208 6.05207e-06 0)
(16.6204 4.77529e-06 0)
(16.62 4.26578e-06 0)
(16.6196 2.79454e-06 0)
(16.6192 5.23339e-06 0)
(16.6189 6.03595e-06 0)
(16.6185 3.75425e-06 0)
(16.6182 5.39388e-06 0)
(16.6179 3.03363e-06 0)
(16.6176 5.43544e-06 0)
(16.6174 3.53236e-06 0)
(16.6172 3.33418e-06 0)
(16.617 1.3467e-06 0)
(16.6168 1.9547e-06 0)
(16.6165 1.29101e-06 0)
(16.6162 2.28025e-06 0)
(16.6159 8.68811e-07 0)
(16.6155 1.41351e-06 0)
(16.6151 1.66619e-07 0)
(16.6149 9.77612e-07 0)
(16.6147 -1.09488e-06 0)
(16.6146 -1.61978e-06 0)
(16.6145 -2.34014e-06 0)
(19.3754 0.0462243 0)
(18.326 0.0150406 0)
(17.4307 0.0091007 0)
(16.8356 0.00564378 0)
(16.435 0.00383677 0)
(16.1491 0.00281734 0)
(15.9342 0.00217847 0)
(15.7661 0.00174594 0)
(15.6305 0.00143498 0)
(15.5186 0.00120231 0)
(15.4246 0.00102326 0)
(15.3444 0.000884804 0)
(15.2749 0.000779884 0)
(15.2137 0.000700885 0)
(15.1598 0.000621021 0)
(15.1156 0.000485806 0)
(15.0895 0.000206616 0)
(15.096 -0.000287651 0)
(15.151 -0.00098054 0)
(15.2636 -0.00173114 0)
(15.4277 -0.00232872 0)
(15.6216 -0.00262616 0)
(15.819 -0.00263234 0)
(16.0018 -0.00246179 0)
(16.1635 -0.00223486 0)
(16.3052 -0.0020219 0)
(16.4307 -0.00184365 0)
(16.5433 -0.00169256 0)
(16.6451 -0.00155536 0)
(16.7372 -0.00142323 0)
(16.82 -0.00128906 0)
(16.8937 -0.00115035 0)
(16.9584 -0.00100595 0)
(17.0144 -0.000864696 0)
(17.062 -0.000727311 0)
(17.1019 -0.000601092 0)
(17.1348 -0.000482762 0)
(17.1614 -0.000385807 0)
(17.1825 -0.000299707 0)
(17.1986 -0.00022828 0)
(17.2103 -0.00015898 0)
(17.2185 -0.000110705 0)
(17.224 -7.28188e-05 0)
(17.2274 -4.79479e-05 0)
(17.2295 -2.59963e-05 0)
(17.2307 -1.19244e-05 0)
(17.2314 -6.19406e-06 0)
(17.2317 -3.15523e-06 0)
(17.2319 -2.58175e-07 0)
(17.2319 3.28699e-07 0)
(17.2317 6.94023e-06 0)
(17.2315 8.64857e-06 0)
(17.2313 7.59628e-06 0)
(17.231 6.12191e-06 0)
(17.2308 5.55713e-06 0)
(17.2305 3.94517e-06 0)
(17.2303 6.83173e-06 0)
(17.23 7.73969e-06 0)
(17.2297 5.00738e-06 0)
(17.2295 6.76266e-06 0)
(17.2293 3.84955e-06 0)
(17.2292 6.52928e-06 0)
(17.2291 4.2226e-06 0)
(17.229 3.9988e-06 0)
(17.2289 1.79578e-06 0)
(17.2288 2.7188e-06 0)
(17.2285 2.19601e-06 0)
(17.2283 3.58945e-06 0)
(17.2279 2.05741e-06 0)
(17.2276 2.60101e-06 0)
(17.2273 8.97589e-07 0)
(17.227 1.55657e-06 0)
(17.2269 -1.07153e-06 0)
(17.2269 -1.79038e-06 0)
(17.2268 -2.70733e-06 0)
(19.693 0.0456698 0)
(18.9995 0.0202326 0)
(18.1918 0.0128966 0)
(17.577 0.00823889 0)
(17.1407 0.00564698 0)
(16.8239 0.00414091 0)
(16.5849 0.00318959 0)
(16.3982 0.00254608 0)
(16.2481 0.00208552 0)
(16.1247 0.00174244 0)
(16.0213 0.00147942 0)
(15.9334 0.00127617 0)
(15.8575 0.00112084 0)
(15.7912 0.000999749 0)
(15.7338 0.000872746 0)
(15.6882 0.000661836 0)
(15.663 0.000248869 0)
(15.6722 -0.000454191 0)
(15.7301 -0.00141553 0)
(15.8443 -0.00243775 0)
(16.0075 -0.00323217 0)
(16.1969 -0.00360234 0)
(16.3859 -0.00356915 0)
(16.557 -0.00329929 0)
(16.7049 -0.00296309 0)
(16.832 -0.00265657 0)
(16.943 -0.00240497 0)
(17.0418 -0.00219531 0)
(17.1306 -0.00200825 0)
(17.2107 -0.00183089 0)
(17.2828 -0.00165361 0)
(17.347 -0.00147282 0)
(17.4037 -0.00128721 0)
(17.4531 -0.0011067 0)
(17.4954 -0.00093224 0)
(17.5311 -0.000772105 0)
(17.5607 -0.000622585 0)
(17.5849 -0.000498205 0)
(17.604 -0.000387126 0)
(17.6186 -0.000293883 0)
(17.6292 -0.000205235 0)
(17.6367 -0.000142329 0)
(17.6415 -9.34157e-05 0)
(17.6447 -6.10849e-05 0)
(17.6466 -3.37437e-05 0)
(17.6477 -1.63232e-05 0)
(17.6484 -8.86573e-06 0)
(17.6489 -4.7875e-06 0)
(17.6491 -1.05935e-06 0)
(17.6492 6.53608e-08 0)
(17.6492 7.66215e-06 0)
(17.6491 9.69677e-06 0)
(17.649 8.59676e-06 0)
(17.6488 6.99661e-06 0)
(17.6487 6.44633e-06 0)
(17.6485 4.83045e-06 0)
(17.6483 8.10163e-06 0)
(17.6481 9.07962e-06 0)
(17.6479 5.94534e-06 0)
(17.6478 7.67407e-06 0)
(17.6477 4.24959e-06 0)
(17.6477 7.07327e-06 0)
(17.6477 4.44106e-06 0)
(17.6477 4.23426e-06 0)
(17.6477 1.98456e-06 0)
(17.6476 3.33116e-06 0)
(17.6474 3.13041e-06 0)
(17.6472 5.00303e-06 0)
(17.6468 3.43741e-06 0)
(17.6465 3.87878e-06 0)
(17.6462 1.64584e-06 0)
(17.6461 2.00981e-06 0)
(17.646 -1.10905e-06 0)
(17.646 -1.96619e-06 0)
(17.646 -2.97536e-06 0)
(19.8488 0.0504545 0)
(19.4507 0.0244877 0)
(18.7997 0.0166515 0)
(18.2081 0.0111575 0)
(17.7532 0.00779057 0)
(17.4116 0.00573646 0)
(17.1505 0.00441414 0)
(16.9458 0.00351466 0)
(16.7812 0.00287126 0)
(16.6461 0.00239305 0)
(16.5331 0.00202732 0)
(16.4373 0.00174461 0)
(16.3549 0.0015265 0)
(16.2834 0.00135108 0)
(16.2224 0.00116235 0)
(16.175 0.000857162 0)
(16.1499 0.000288744 0)
(16.1598 -0.000644774 0)
(16.2174 -0.00189262 0)
(16.3287 -0.0031974 0)
(16.4854 -0.00418862 0)
(16.6645 -0.00461826 0)
(16.8398 -0.00452387 0)
(16.9949 -0.00413335 0)
(17.126 -0.00367312 0)
(17.2368 -0.00326588 0)
(17.3327 -0.00293896 0)
(17.4177 -0.00267172 0)
(17.4943 -0.00243723 0)
(17.5637 -0.00221799 0)
(17.6265 -0.00200135 0)
(17.6829 -0.00178237 0)
(17.7331 -0.00155939 0)
(17.7772 -0.00134303 0)
(17.8154 -0.00113428 0)
(17.848 -0.000942202 0)
(17.8753 -0.000762712 0)
(17.8976 -0.000611262 0)
(17.9154 -0.000475144 0)
(17.9289 -0.000359824 0)
(17.9387 -0.000251787 0)
(17.9455 -0.000174118 0)
(17.9501 -0.000114162 0)
(17.9529 -7.43736e-05 0)
(17.9547 -4.18079e-05 0)
(17.9559 -2.11797e-05 0)
(17.9566 -1.20484e-05 0)
(17.9571 -6.94779e-06 0)
(17.9574 -2.38611e-06 0)
(17.9575 -6.52509e-07 0)
(17.9576 7.85682e-06 0)
(17.9576 1.02161e-05 0)
(17.9576 9.09977e-06 0)
(17.9575 7.4215e-06 0)
(17.9575 6.94606e-06 0)
(17.9574 5.4318e-06 0)
(17.9572 9.0716e-06 0)
(17.9571 1.01013e-05 0)
(17.957 6.56922e-06 0)
(17.9569 8.17265e-06 0)
(17.9569 4.23575e-06 0)
(17.9569 7.12962e-06 0)
(17.957 4.21668e-06 0)
(17.9571 4.06993e-06 0)
(17.9572 1.90139e-06 0)
(17.9571 3.78883e-06 0)
(17.957 4.06561e-06 0)
(17.9567 6.50334e-06 0)
(17.9564 4.95454e-06 0)
(17.9561 5.20747e-06 0)
(17.9559 2.35224e-06 0)
(17.9557 2.3162e-06 0)
(17.9557 -1.26109e-06 0)
(17.9557 -2.19211e-06 0)
(17.9557 -3.24508e-06 0)
(19.929 0.0521805 0)
(19.7286 0.027012 0)
(19.2674 0.0200253 0)
(18.7457 0.0142428 0)
(18.2961 0.0102327 0)
(17.9397 0.00761427 0)
(17.6607 0.00587446 0)
(17.4395 0.00467511 0)
(17.2609 0.00381346 0)
(17.114 0.00317262 0)
(16.9913 0.00268279 0)
(16.8873 0.00230356 0)
(16.7982 0.0020081 0)
(16.7213 0.00176405 0)
(16.6563 0.00149732 0)
(16.6067 0.00107873 0)
(16.5803 0.000334519 0)
(16.5888 -0.000847568 0)
(16.6428 -0.00239471 0)
(16.7468 -0.00398753 0)
(16.8919 -0.00517123 0)
(17.056 -0.00564565 0)
(17.2138 -0.00547004 0)
(17.3505 -0.00494214 0)
(17.4639 -0.00434943 0)
(17.5586 -0.00384015 0)
(17.6403 -0.00344084 0)
(17.713 -0.00312067 0)
(17.779 -0.00284399 0)
(17.8393 -0.00258801 0)
(17.8946 -0.0023369 0)
(17.9448 -0.00208422 0)
(17.99 -0.00182782 0)
(18.0303 -0.00157878 0)
(18.0656 -0.00133806 0)
(18.096 -0.00111538 0)
(18.1216 -0.000906442 0)
(18.1428 -0.00072765 0)
(18.1596 -0.000565857 0)
(18.1724 -0.000427706 0)
(18.1818 -0.000299759 0)
(18.1882 -0.000206853 0)
(18.1925 -0.000135569 0)
(18.1953 -8.81446e-05 0)
(18.197 -5.03562e-05 0)
(18.1981 -2.65546e-05 0)
(18.1989 -1.57563e-05 0)
(18.1994 -9.62619e-06 0)
(18.1997 -4.20984e-06 0)
(18.2 -1.7985e-06 0)
(18.2001 7.59266e-06 0)
(18.2001 1.02846e-05 0)
(18.2002 9.17469e-06 0)
(18.2002 7.45426e-06 0)
(18.2002 7.10683e-06 0)
(18.2002 5.78211e-06 0)
(18.2001 9.79187e-06 0)
(18.2 1.08623e-05 0)
(18.1999 6.92179e-06 0)
(18.1999 8.31919e-06 0)
(18.2 3.85598e-06 0)
(18.2 6.76577e-06 0)
(18.2002 3.6018e-06 0)
(18.2003 3.55309e-06 0)
(18.2004 1.57073e-06 0)
(18.2004 4.11109e-06 0)
(18.2003 5.00863e-06 0)
(18.2001 8.09679e-06 0)
(18.1997 6.60314e-06 0)
(18.1994 6.5907e-06 0)
(18.1992 3.02423e-06 0)
(18.1991 2.49275e-06 0)
(18.1991 -1.52024e-06 0)
(18.1991 -2.47611e-06 0)
(18.1992 -3.48853e-06 0)
(19.9739 0.0527176 0)
(19.8889 0.0285829 0)
(19.6024 0.022799 0)
(19.1903 0.0172655 0)
(18.776 0.0128798 0)
(18.4202 0.00975641 0)
(18.1301 0.00758131 0)
(17.8955 0.00604681 0)
(17.7041 0.00493273 0)
(17.546 0.00410039 0)
(17.4136 0.00346297 0)
(17.3014 0.00296797 0)
(17.2052 0.00257847 0)
(17.1227 0.00224962 0)
(17.0534 0.00188746 0)
(17.0008 0.00133672 0)
(16.9719 0.000399105 0)
(16.9767 -0.00104458 0)
(17.0239 -0.00289735 0)
(17.1165 -0.00477804 0)
(17.2459 -0.00614768 0)
(17.3913 -0.00665421 0)
(17.5293 -0.00638311 0)
(17.6468 -0.00570867 0)
(17.7429 -0.00498193 0)
(17.8226 -0.00437483 0)
(17.8917 -0.00390988 0)
(17.9537 -0.00354407 0)
(18.0108 -0.00323208 0)
(18.0637 -0.00294561 0)
(18.1129 -0.00266553 0)
(18.1583 -0.00238385 0)
(18.1998 -0.00209792 0)
(18.2372 -0.00181913 0)
(18.2705 -0.00154832 0)
(18.2994 -0.00129587 0)
(18.3242 -0.00105742 0)
(18.3447 -0.000850438 0)
(18.361 -0.000661751 0)
(18.3735 -0.000499465 0)
(18.3826 -0.000350552 0)
(18.3889 -0.000241513 0)
(18.3931 -0.000158284 0)
(18.3957 -0.000102807 0)
(18.3974 -5.96161e-05 0)
(18.3986 -3.25543e-05 0)
(18.3993 -2.00308e-05 0)
(18.3999 -1.28256e-05 0)
(18.4003 -6.51174e-06 0)
(18.4006 -3.34797e-06 0)
(18.4007 6.91785e-06 0)
(18.4008 9.95749e-06 0)
(18.4009 8.87432e-06 0)
(18.401 7.14305e-06 0)
(18.4011 6.97049e-06 0)
(18.4011 5.9127e-06 0)
(18.401 1.03005e-05 0)
(18.4009 1.14058e-05 0)
(18.4009 7.04153e-06 0)
(18.4009 8.16528e-06 0)
(18.401 3.15295e-06 0)
(18.4011 6.03557e-06 0)
(18.4013 2.63905e-06 0)
(18.4015 2.72229e-06 0)
(18.4016 1.01654e-06 0)
(18.4016 4.31682e-06 0)
(18.4015 5.96477e-06 0)
(18.4013 9.7903e-06 0)
(18.401 8.38726e-06 0)
(18.4007 8.04555e-06 0)
(18.4005 3.67995e-06 0)
(18.4004 2.56887e-06 0)
(18.4005 -1.87506e-06 0)
(18.4005 -2.81357e-06 0)
(18.4005 -3.74817e-06 0)
(20.0011 0.052869 0)
(19.9807 0.029517 0)
(19.8226 0.0248226 0)
(19.5371 0.0199503 0)
(19.1896 0.0155656 0)
(18.8549 0.0120991 0)
(18.5647 0.00952273 0)
(18.322 0.00763896 0)
(18.1205 0.0062456 0)
(17.9523 0.00519453 0)
(17.8107 0.00438538 0)
(17.6903 0.00375383 0)
(17.5872 0.00325186 0)
(17.4988 0.00282047 0)
(17.4248 0.00234474 0)
(17.3684 0.00164419 0)
(17.3356 0.000499078 0)
(17.3346 -0.00121335 0)
(17.3722 -0.00337103 0)
(17.4501 -0.00553385 0)
(17.5604 -0.00708199 0)
(17.6845 -0.00761294 0)
(17.8015 -0.00724072 0)
(17.9001 -0.00641937 0)
(17.9799 -0.00556396 0)
(18.0462 -0.00486771 0)
(18.1041 -0.00434667 0)
(18.157 -0.00394422 0)
(18.2066 -0.00360491 0)
(18.2534 -0.00329487 0)
(18.2977 -0.00299171 0)
(18.3392 -0.00268597 0)
(18.3778 -0.00237444 0)
(18.4132 -0.00206873 0)
(18.4451 -0.00176953 0)
(18.4732 -0.00148785 0)
(18.4975 -0.00121941 0)
(18.5178 -0.000982906 0)
(18.534 -0.000765551 0)
(18.5465 -0.000577248 0)
(18.5555 -0.000405745 0)
(18.5618 -0.000279204 0)
(18.566 -0.000183037 0)
(18.5687 -0.000118822 0)
(18.5704 -6.98528e-05 0)
(18.5716 -3.93141e-05 0)
(18.5724 -2.49322e-05 0)
(18.5729 -1.6563e-05 0)
(18.5734 -9.28517e-06 0)
(18.5737 -5.28603e-06 0)
(18.5739 5.86486e-06 0)
(18.574 9.27489e-06 0)
(18.5742 8.23879e-06 0)
(18.5743 6.52473e-06 0)
(18.5743 6.56824e-06 0)
(18.5744 5.8462e-06 0)
(18.5744 1.06246e-05 0)
(18.5743 1.17641e-05 0)
(18.5743 6.96106e-06 0)
(18.5744 7.75245e-06 0)
(18.5745 2.16478e-06 0)
(18.5746 4.98112e-06 0)
(18.5748 1.36257e-06 0)
(18.575 1.60646e-06 0)
(18.5752 2.55271e-07 0)
(18.5752 4.41503e-06 0)
(18.5751 6.93483e-06 0)
(18.5749 1.15855e-05 0)
(18.5746 1.03112e-05 0)
(18.5743 9.58876e-06 0)
(18.5741 4.34385e-06 0)
(18.5741 2.5724e-06 0)
(18.5741 -2.30745e-06 0)
(18.5741 -3.2012e-06 0)
(18.5742 -4.01239e-06 0)
(20.0187 0.052744 0)
(20.0354 0.0299677 0)
(19.9582 0.0261263 0)
(19.7862 0.0220647 0)
(19.5283 0.0180605 0)
(19.2388 0.0145157 0)
(18.9637 0.0116488 0)
(18.7216 0.00944106 0)
(18.5144 0.0077591 0)
(18.3385 0.00646904 0)
(18.1889 0.00546616 0)
(18.061 0.00467727 0)
(17.9511 0.00404346 0)
(17.8567 0.00349087 0)
(17.7778 0.00288332 0)
(17.7168 0.00201687 0)
(17.6788 0.000654088 0)
(17.6703 -0.00132812 0)
(17.696 -0.00378293 0)
(17.7567 -0.00621693 0)
(17.8455 -0.00793647 0)
(17.9467 -0.00849098 0)
(18.0423 -0.00802223 0)
(18.1225 -0.00706284 0)
(18.1873 -0.00609025 0)
(18.2414 -0.0053171 0)
(18.2895 -0.00475155 0)
(18.3345 -0.00432268 0)
(18.3775 -0.00396486 0)
(18.4192 -0.00363876 0)
(18.4593 -0.00331891 0)
(18.4977 -0.00299436 0)
(18.5341 -0.00266143 0)
(18.568 -0.00233183 0)
(18.599 -0.00200598 0)
(18.6267 -0.00169553 0)
(18.6509 -0.00139639 0)
(18.6713 -0.00112865 0)
(18.6878 -0.00088031 0)
(18.7004 -0.000663492 0)
(18.7097 -0.000467149 0)
(18.7161 -0.000321197 0)
(18.7204 -0.000210674 0)
(18.7232 -0.000136724 0)
(18.7249 -8.13795e-05 0)
(18.7261 -4.70003e-05 0)
(18.7269 -3.05404e-05 0)
(18.7276 -2.08673e-05 0)
(18.728 -1.25333e-05 0)
(18.7283 -7.60491e-06 0)
(18.7286 4.45483e-06 0)
(18.7287 8.2658e-06 0)
(18.7289 7.29909e-06 0)
(18.729 5.62897e-06 0)
(18.7291 5.92368e-06 0)
(18.7292 5.59918e-06 0)
(18.7292 1.07827e-05 0)
(18.7292 1.19619e-05 0)
(18.7292 6.70828e-06 0)
(18.7292 7.11737e-06 0)
(18.7294 9.24633e-07 0)
(18.7295 3.63809e-06 0)
(18.7297 -1.99554e-07 0)
(18.73 2.28576e-07 0)
(18.7301 -7.01116e-07 0)
(18.7302 4.41002e-06 0)
(18.7301 7.91416e-06 0)
(18.7299 1.34805e-05 0)
(18.7296 1.23796e-05 0)
(18.7293 1.12403e-05 0)
(18.7292 5.0431e-06 0)
(18.7291 2.53496e-06 0)
(18.7291 -2.7997e-06 0)
(18.7292 -3.63406e-06 0)
(18.7292 -4.29623e-06 0)
(20.0306 0.0523698 0)
(20.0698 0.0300695 0)
(20.0406 0.0268623 0)
(19.9512 0.0235182 0)
(19.7855 0.0201265 0)
(19.5621 0.016813 0)
(19.3211 0.0138538 0)
(19.0917 0.0114083 0)
(18.8862 0.0094613 0)
(18.7068 0.00792798 0)
(18.5515 0.00671658 0)
(18.4174 0.00575236 0)
(18.3013 0.00496814 0)
(18.2013 0.00427586 0)
(18.1172 0.00351892 0)
(18.0511 0.00247257 0)
(18.007 0.000886107 0)
(17.9895 -0.00136094 0)
(18.0018 -0.00409838 0)
(18.0436 -0.00678765 0)
(18.1094 -0.00867209 0)
(18.1867 -0.00925687 0)
(18.2608 -0.00870687 0)
(18.3233 -0.00762737 0)
(18.3741 -0.00655481 0)
(18.4172 -0.00572006 0)
(18.4564 -0.00512325 0)
(18.4942 -0.00467933 0)
(18.5315 -0.00431269 0)
(18.5685 -0.0039788 0)
(18.6051 -0.00364927 0)
(18.6408 -0.00331179 0)
(18.6752 -0.00296219 0)
(18.7079 -0.00261218 0)
(18.7383 -0.00226181 0)
(18.766 -0.00192324 0)
(18.7904 -0.00159265 0)
(18.8112 -0.00129166 0)
(18.8282 -0.0010095 0)
(18.8413 -0.000761005 0)
(18.8509 -0.00053687 0)
(18.8576 -0.000368977 0)
(18.8621 -0.000242185 0)
(18.865 -0.000157142 0)
(18.8669 -9.45695e-05 0)
(18.8681 -5.58165e-05 0)
(18.869 -3.6957e-05 0)
(18.8696 -2.57806e-05 0)
(18.8701 -1.62688e-05 0)
(18.8704 -1.03046e-05 0)
(18.8707 2.70177e-06 0)
(18.8709 6.95368e-06 0)
(18.871 6.08148e-06 0)
(18.8712 4.4807e-06 0)
(18.8713 5.05509e-06 0)
(18.8714 5.18238e-06 0)
(18.8714 1.07875e-05 0)
(18.8714 1.20191e-05 0)
(18.8714 6.30806e-06 0)
(18.8715 6.29388e-06 0)
(18.8716 -5.35915e-07 0)
(18.8718 2.03928e-06 0)
(18.872 -2.02187e-06 0)
(18.8722 -1.392e-06 0)
(18.8724 -1.84533e-06 0)
(18.8725 4.29995e-06 0)
(18.8724 8.89244e-06 0)
(18.8722 1.54679e-05 0)
(18.8719 1.45939e-05 0)
(18.8717 1.30187e-05 0)
(18.8715 5.80677e-06 0)
(18.8715 2.48849e-06 0)
(18.8715 -3.33146e-06 0)
(18.8715 -4.10868e-06 0)
(18.8716 -4.58917e-06 0)
(20.039 0.0517785 0)
(20.0925 0.0299208 0)
(20.092 0.0271873 0)
(20.0552 0.0243781 0)
(19.9649 0.0216127 0)
(19.8158 0.0187661 0)
(19.6268 0.0159667 0)
(19.4257 0.0134437 0)
(19.2323 0.011307 0)
(19.0559 0.00955581 0)
(18.899 0.00813676 0)
(18.7609 0.00698716 0)
(18.6401 0.00603784 0)
(18.5352 0.0051895 0)
(18.4462 0.00426756 0)
(18.3748 0.00303011 0)
(18.324 0.00121826 0)
(18.2967 -0.00128303 0)
(18.2946 -0.00428233 0)
(18.3168 -0.00720592 0)
(18.3588 -0.0092487 0)
(18.4118 -0.00987718 0)
(18.4645 -0.0092715 0)
(18.5099 -0.00809868 0)
(18.5474 -0.00694892 0)
(18.5801 -0.00607094 0)
(18.6111 -0.00545798 0)
(18.6422 -0.00501167 0)
(18.6741 -0.004647 0)
(18.7067 -0.0043146 0)
(18.7399 -0.00398335 0)
(18.7731 -0.00363972 0)
(18.8058 -0.00327907 0)
(18.8375 -0.00291296 0)
(18.8675 -0.0025409 0)
(18.8953 -0.00217539 0)
(18.9202 -0.00181281 0)
(18.9417 -0.0014764 0)
(18.9593 -0.0011571 0)
(18.9731 -0.000873049 0)
(18.9832 -0.000617388 0)
(18.9903 -0.000424305 0)
(18.9951 -0.000278751 0)
(18.9982 -0.000180822 0)
(19.0002 -0.000109874 0)
(19.0015 -6.60136e-05 0)
(19.0024 -4.43097e-05 0)
(19.003 -3.13575e-05 0)
(19.0035 -2.05107e-05 0)
(19.0039 -1.33868e-05 0)
(19.0041 6.13315e-07 0)
(19.0043 5.35568e-06 0)
(19.0045 4.60793e-06 0)
(19.0047 3.10261e-06 0)
(19.0048 3.97821e-06 0)
(19.0049 4.60517e-06 0)
(19.0049 1.06468e-05 0)
(19.0049 1.19506e-05 0)
(19.005 5.78357e-06 0)
(19.005 5.31365e-06 0)
(19.0052 -2.18515e-06 0)
(19.0054 2.15097e-07 0)
(19.0056 -4.08034e-06 0)
(19.0058 -3.2375e-06 0)
(19.006 -3.17092e-06 0)
(19.0061 4.08057e-06 0)
(19.006 9.85591e-06 0)
(19.0058 1.75367e-05 0)
(19.0056 1.69548e-05 0)
(19.0053 1.49445e-05 0)
(19.0052 6.66841e-06 0)
(19.0051 2.47006e-06 0)
(19.0051 -3.87836e-06 0)
(19.0052 -4.61749e-06 0)
(19.0052 -4.8998e-06 0)
(20.0449 0.0509933 0)
(20.1082 0.0295804 0)
(20.1254 0.0272176 0)
(20.1206 0.0247799 0)
(20.0821 0.022518 0)
(19.9986 0.0202036 0)
(19.8706 0.0177768 0)
(19.7131 0.0153875 0)
(19.5451 0.0132002 0)
(19.3812 0.011303 0)
(19.2289 0.00970563 0)
(19.0909 0.00837687 0)
(18.9678 0.00725699 0)
(18.8595 0.00624177 0)
(18.7663 0.00514334 0)
(18.6898 0.00370752 0)
(18.6322 0.00167315 0)
(18.5949 -0.00106653 0)
(18.5784 -0.00430119 0)
(18.5809 -0.00743266 0)
(18.5994 -0.00962537 0)
(18.6282 -0.0103154 0)
(18.6596 -0.00968856 0)
(18.6881 -0.00845789 0)
(18.7126 -0.00725958 0)
(18.7353 -0.00636026 0)
(18.7582 -0.00574849 0)
(18.7828 -0.00531416 0)
(18.8093 -0.00496374 0)
(18.8377 -0.00464348 0)
(18.8675 -0.00431982 0)
(18.8982 -0.00397809 0)
(18.9292 -0.00361325 0)
(18.9599 -0.00323658 0)
(18.9896 -0.00284676 0)
(19.0175 -0.00245636 0)
(19.043 -0.00206175 0)
(19.0654 -0.0016878 0)
(19.0839 -0.00132764 0)
(19.0985 -0.00100341 0)
(19.1094 -0.000711619 0)
(19.117 -0.000489269 0)
(19.1221 -0.000321778 0)
(19.1255 -0.000208665 0)
(19.1276 -0.000127836 0)
(19.129 -7.78968e-05 0)
(19.1299 -5.27565e-05 0)
(19.1306 -3.76687e-05 0)
(19.1311 -2.52865e-05 0)
(19.1315 -1.68585e-05 0)
(19.1317 -1.80484e-06 0)
(19.1319 3.48879e-06 0)
(19.1321 2.90047e-06 0)
(19.1323 1.5171e-06 0)
(19.1324 2.70759e-06 0)
(19.1325 3.87392e-06 0)
(19.1325 1.03652e-05 0)
(19.1326 1.17692e-05 0)
(19.1326 5.15625e-06 0)
(19.1327 4.209e-06 0)
(19.1328 -3.99084e-06 0)
(19.133 -1.80181e-06 0)
(19.1332 -6.34965e-06 0)
(19.1334 -5.28942e-06 0)
(19.1336 -4.67285e-06 0)
(19.1337 3.74479e-06 0)
(19.1337 1.0785e-05 0)
(19.1335 1.96698e-05 0)
(19.1333 1.94572e-05 0)
(19.133 1.70354e-05 0)
(19.1329 7.66027e-06 0)
(19.1328 2.51856e-06 0)
(19.1328 -4.41488e-06 0)
(19.1328 -5.15233e-06 0)
(19.1329 -5.23123e-06 0)
(20.0492 0.0500253 0)
(20.1193 0.0290801 0)
(20.1481 0.0270279 0)
(20.1628 0.0248468 0)
(20.1568 0.0229456 0)
(20.1211 0.0210862 0)
(20.0495 0.0191107 0)
(19.9437 0.0170398 0)
(19.8141 0.0149846 0)
(19.6744 0.013069 0)
(19.5354 0.011366 0)
(19.4037 0.00989284 0)
(19.2825 0.0086147 0)
(19.1734 0.00743306 0)
(19.0777 0.00615445 0)
(18.9971 0.00451908 0)
(18.9331 0.0022704 0)
(18.8862 -0.000686821 0)
(18.856 -0.00412505 0)
(18.8399 -0.00743198 0)
(18.8357 -0.00976149 0)
(18.8408 -0.0105318 0)
(18.851 -0.0099247 0)
(18.8626 -0.00867973 0)
(18.8742 -0.00746804 0)
(18.8867 -0.00657357 0)
(18.9015 -0.00598327 0)
(18.9195 -0.00557758 0)
(18.9406 -0.00525567 0)
(18.9645 -0.00495999 0)
(18.9908 -0.00465492 0)
(19.0188 -0.00432483 0)
(19.0479 -0.00396433 0)
(19.0775 -0.00358425 0)
(19.1068 -0.00318218 0)
(19.1349 -0.00277026 0)
(19.1611 -0.00234451 0)
(19.1844 -0.00193124 0)
(19.204 -0.00152621 0)
(19.2196 -0.00115646 0)
(19.2312 -0.000822967 0)
(19.2395 -0.000566326 0)
(19.2451 -0.000372935 0)
(19.2487 -0.000241738 0)
(19.251 -0.000149108 0)
(19.2525 -9.18347e-05 0)
(19.2535 -6.24893e-05 0)
(19.2542 -4.47989e-05 0)
(19.2547 -3.06284e-05 0)
(19.2551 -2.07253e-05 0)
(19.2553 -4.54857e-06 0)
(19.2556 1.36923e-06 0)
(19.2557 9.81459e-07 0)
(19.2559 -2.51221e-07 0)
(19.256 1.25903e-06 0)
(19.2561 2.99671e-06 0)
(19.2562 9.94553e-06 0)
(19.2562 1.1485e-05 0)
(19.2563 4.44712e-06 0)
(19.2563 3.01185e-06 0)
(19.2565 -5.91769e-06 0)
(19.2566 -3.97769e-06 0)
(19.2569 -8.80222e-06 0)
(19.2571 -7.52712e-06 0)
(19.2572 -6.34434e-06 0)
(19.2573 3.28456e-06 0)
(19.2573 1.16582e-05 0)
(19.2572 2.18458e-05 0)
(19.2569 2.20929e-05 0)
(19.2567 1.93067e-05 0)
(19.2565 8.8178e-06 0)
(19.2565 2.67638e-06 0)
(19.2565 -4.90805e-06 0)
(19.2565 -5.70058e-06 0)
(19.2565 -5.57711e-06 0)
(20.0522 0.048878 0)
(20.1272 0.0284361 0)
(20.164 0.0266618 0)
(20.1912 0.0246645 0)
(20.2052 0.0230143 0)
(20.2004 0.0214906 0)
(20.1712 0.0199143 0)
(20.1138 0.0182338 0)
(20.0293 0.016467 0)
(19.9247 0.0146948 0)
(19.8096 0.0130081 0)
(19.6925 0.011467 0)
(19.5793 0.0100726 0)
(19.4738 0.00874518 0)
(19.3785 0.00729657 0)
(19.2957 0.0054704 0)
(19.2267 0.00302281 0)
(19.1716 -0.00012554 0)
(19.1289 -0.00373043 0)
(19.096 -0.0071738 0)
(19.071 -0.00961934 0)
(19.0536 -0.0104844 0)
(19.0429 -0.00994036 0)
(19.0374 -0.00873144 0)
(19.0356 -0.00754842 0)
(19.0377 -0.00669032 0)
(19.0441 -0.0061456 0)
(19.055 -0.0057882 0)
(19.0703 -0.00551158 0)
(19.0895 -0.00525526 0)
(19.1119 -0.00498195 0)
(19.137 -0.00467532 0)
(19.1639 -0.00432976 0)
(19.1921 -0.00395555 0)
(19.2208 -0.00354879 0)
(19.249 -0.0031206 0)
(19.2758 -0.00266599 0)
(19.3001 -0.00221234 0)
(19.3209 -0.00175839 0)
(19.3376 -0.00133708 0)
(19.3502 -0.000955332 0)
(19.3592 -0.00065832 0)
(19.3652 -0.000434166 0)
(19.3692 -0.00028129 0)
(19.3717 -0.000174454 0)
(19.3733 -0.00010826 0)
(19.3744 -7.37354e-05 0)
(19.3751 -5.28489e-05 0)
(19.3756 -3.65749e-05 0)
(19.376 -2.4994e-05 0)
(19.3763 -7.61068e-06 0)
(19.3765 -9.82101e-07 0)
(19.3767 -1.12254e-06 0)
(19.3768 -2.17378e-06 0)
(19.377 -3.49207e-07 0)
(19.3771 1.98203e-06 0)
(19.3771 9.39015e-06 0)
(19.3772 1.11084e-05 0)
(19.3772 3.67577e-06 0)
(19.3773 1.75654e-06 0)
(19.3774 -7.92936e-06 0)
(19.3776 -6.27311e-06 0)
(19.3778 -1.14064e-05 0)
(19.378 -9.92565e-06 0)
(19.3781 -8.17696e-06 0)
(19.3782 2.69271e-06 0)
(19.3782 1.24494e-05 0)
(19.3781 2.40375e-05 0)
(19.3779 2.4845e-05 0)
(19.3776 2.17688e-05 0)
(19.3775 1.01712e-05 0)
(19.3774 2.98756e-06 0)
(19.3774 -5.32484e-06 0)
(19.3774 -6.24664e-06 0)
(19.3774 -5.94132e-06 0)
(20.0542 0.0475504 0)
(20.1328 0.0276563 0)
(20.1754 0.0261425 0)
(20.2108 0.0242858 0)
(20.2375 0.0228144 0)
(20.2519 0.021527 0)
(20.2508 0.0202495 0)
(20.2303 0.0189168 0)
(20.1874 0.017494 0)
(20.1227 0.0159936 0)
(20.0406 0.0144671 0)
(19.9476 0.0129768 0)
(19.8506 0.0115487 0)
(19.7548 0.0101277 0)
(19.6645 0.0085423 0)
(19.5828 0.00655047 0)
(19.5115 0.0039303 0)
(19.4503 0.000624764 0)
(19.3975 -0.0031041 0)
(19.3504 -0.00663811 0)
(19.3073 -0.00916813 0)
(19.2693 -0.010132 0)
(19.2385 -0.00969116 0)
(19.2157 -0.00857243 0)
(19.2001 -0.00746687 0)
(19.1911 -0.00668272 0)
(19.1885 -0.00621252 0)
(19.1919 -0.00592684 0)
(19.2009 -0.00571556 0)
(19.2148 -0.00551619 0)
(19.2329 -0.00529045 0)
(19.2545 -0.00502163 0)
(19.2789 -0.00470416 0)
(19.3053 -0.00434769 0)
(19.3331 -0.00394642 0)
(19.3611 -0.00350967 0)
(19.3884 -0.00303051 0)
(19.4137 -0.00253666 0)
(19.4356 -0.00203006 0)
(19.4535 -0.00155064 0)
(19.4671 -0.00111306 0)
(19.4769 -0.000768455 0)
(19.4835 -0.000507669 0)
(19.4878 -0.000328737 0)
(19.4905 -0.000204743 0)
(19.4923 -0.000127668 0)
(19.4934 -8.67516e-05 0)
(19.4942 -6.19294e-05 0)
(19.4947 -4.31623e-05 0)
(19.4951 -2.96625e-05 0)
(19.4954 -1.09794e-05 0)
(19.4956 -3.54086e-06 0)
(19.4958 -3.38024e-06 0)
(19.4959 -4.2164e-06 0)
(19.496 -2.09289e-06 0)
(19.4961 8.44429e-07 0)
(19.4962 8.70257e-06 0)
(19.4962 1.06475e-05 0)
(19.4963 2.86256e-06 0)
(19.4963 4.76129e-07 0)
(19.4965 -9.98467e-06 0)
(19.4966 -8.64701e-06 0)
(19.4968 -1.41255e-05 0)
(19.497 -1.24555e-05 0)
(19.4972 -1.01566e-05 0)
(19.4972 1.96409e-06 0)
(19.4972 1.31341e-05 0)
(19.4971 2.62143e-05 0)
(19.4969 2.76933e-05 0)
(19.4967 2.44268e-05 0)
(19.4965 1.17526e-05 0)
(19.4965 3.49774e-06 0)
(19.4964 -5.62263e-06 0)
(19.4965 -6.76751e-06 0)
(19.4965 -6.30466e-06 0)
(20.0555 0.0460386 0)
(20.1367 0.0267439 0)
(20.1835 0.0254809 0)
(20.2248 0.0237401 0)
(20.2598 0.0224032 0)
(20.2863 0.0212852 0)
(20.3028 0.0202187 0)
(20.3068 0.0191469 0)
(20.2955 0.0180256 0)
(20.2667 0.0168311 0)
(20.2202 0.0155647 0)
(20.1584 0.0142511 0)
(20.0858 0.0129053 0)
(20.0076 0.0114815 0)
(19.9288 0.00982608 0)
(19.8532 0.00771943 0)
(19.7833 0.00497035 0)
(19.7196 0.00155318 0)
(19.66 -0.00224889 0)
(19.6023 -0.00582041 0)
(19.5447 -0.00839076 0)
(19.4891 -0.00944107 0)
(19.4397 -0.00913203 0)
(19.3999 -0.00815602 0)
(19.3701 -0.00718128 0)
(19.3494 -0.00651501 0)
(19.337 -0.00615382 0)
(19.3323 -0.00596796 0)
(19.3343 -0.00584589 0)
(19.3423 -0.00572453 0)
(19.3555 -0.0055653 0)
(19.373 -0.00535164 0)