/*--------------------------------*- C++ -*----------------------------------*\
  =========                 |
  \\      /  F ield         | OpenFOAM: The Open Source CFD Toolbox
   \\    /   O peration     | Website:  https://openfoam.org
    \\  /    A nd           | Version:  7
     \\/     M anipulation  |
\*---------------------------------------------------------------------------*/
FoamFile
{
    version     2.0;
    format      ascii;
    class       volScalarField;
    location    "200";
    object      epsilon;
}
// * * * * * * * * * * * * * * * * * * * * * * * * * * * * * * * * * * * * * //

dimensions      [0 2 -3 0 0 0 0];

internalField   nonuniform List<scalar> 
16900
(
8.90513
42.3769
56.2163
83.9608
114.531
146.742
180.032
213.946
248.114
282.202
315.931
349.056
381.371
412.698
442.892
471.837
499.435
525.639
550.374
573.653
595.424
615.737
634.577
652.012
668.06
682.795
696.269
708.549
719.704
729.808
738.935
747.16
754.555
761.19
767.133
772.445
777.185
781.405
785.152
788.468
791.387
793.938
796.147
798.032
799.609
800.889
801.883
802.598
803.045
803.234
803.181
802.903
802.427
801.789
800.514
798.549
795.854
792.387
788.105
782.96
776.908
769.9
761.891
752.836
742.692
731.423
718.996
705.388
690.587
674.591
657.418
639.098
619.683
599.245
577.873
555.679
532.789
509.348
485.508
461.424
437.246
413.109
389.143
365.474
342.275
319.807
298.16
277.99
260.267
245.657
236.475
228.369
220.908
213.948
207.42
201.281
195.5
190.054
184.922
180.087
175.532
171.24
167.196
163.386
159.795
156.41
153.217
150.204
147.36
144.672
142.131
139.726
137.449
135.292
133.245
131.302
129.457
127.702
126.032
124.443
122.928
121.485
120.108
118.794
117.54
116.343
115.199
114.106
113.062
112.064
111.11
110.197
109.324
108.488
107.688
106.922
106.187
105.482
104.805
104.154
103.528
102.923
102.34
101.776
101.229
100.698
100.182
99.6797
99.189
98.7093
98.2397
97.7792
97.3271
96.8829
96.4459
96.0159
95.5925
95.1754
94.7647
94.3602
93.9619
93.57
93.1845
92.8055
92.4334
92.0683
91.7105
91.3602
91.0177
90.6832
90.3571
90.0396
89.731
89.4315
89.1414
88.8609
88.5903
88.3296
88.079
87.8387
87.6089
87.3897
87.1812
86.9835
86.7966
86.6208
86.4561
86.3028
86.161
86.0309
85.9131
85.8078
85.7156
85.6371
85.5732
85.5246
85.4928
85.4795
85.4855
85.5282
54.6986
44.1517
63.4098
85.2984
106.578
126.788
145.818
163.701
180.493
196.263
211.074
224.982
238.026
250.244
261.658
272.291
282.156
291.274
299.656
307.318
314.276
320.551
326.164
331.139
335.501
339.279
342.503
345.202
347.409
349.156
350.476
351.402
351.966
352.201
352.137
351.806
351.237
350.458
349.497
348.379
347.128
345.77
344.327
342.822
341.276
339.712
338.153
336.623
335.149
333.76
332.493
331.388
330.498
329.894
329.345
328.744
328.079
327.341
326.517
325.593
324.552
323.375
322.037
320.515
318.778
316.794
314.53
311.949
309.014
305.687
301.933
297.721
293.025
287.826
282.115
275.891
269.167
261.967
254.326
246.288
237.9
229.2
220.219
210.969
201.48
191.752
181.893
171.543
161.967
153.204
145.946
139.244
132.944
127.006
121.412
116.149
111.202
106.557
102.2
98.1149
94.2867
90.7004
87.3411
84.1945
81.2467
78.4848
75.896
73.4687
71.1918
69.0549
67.0483
65.163
63.3907
61.7236
60.1546
58.677
57.2847
55.972
54.7336
53.5649
52.4613
51.4187
50.4333
49.5016
48.6203
47.7864
46.9971
46.2497
45.5417
44.8708
44.2349
43.6318
43.0597
42.5165
42.0006
41.5102
41.0436
40.5993
40.1758
39.7716
39.3852
39.0155
38.661
38.3206
37.9932
37.6777
37.3731
37.0786
36.7933
36.5164
36.2474
35.9856
35.7306
35.4819
35.2393
35.0023
34.7709
34.5448
34.3238
34.108
33.8972
33.6914
33.4907
33.2951
33.1046
32.9193
32.7393
32.5649
32.3961
32.2332
32.0762
31.925
31.7797
31.6402
31.5067
31.3791
31.2575
31.1419
31.0323
30.9286
30.8308
30.7389
30.6526
30.5723
30.498
30.4294
30.3665
30.309
30.2569
30.2101
30.1684
30.1319
30.1004
30.0739
30.0522
30.035
30.0219
30.0118
30.0019
29.9935
66.0334
55.5021
74.3361
94.6776
113.894
131.547
147.724
162.633
176.485
189.453
201.669
213.227
224.188
234.59
244.45
253.778
262.573
270.835
278.558
285.741
292.381
298.481
304.045
309.08
313.595
317.604
321.122
324.163
326.746
328.89
330.616
331.944
332.896
333.494
333.762
333.723
333.401
332.821
332.006
330.983
329.778
328.417
326.926
325.334
323.669
321.957
320.229
318.512
316.835
315.226
313.714
312.325
311.082
309.969
308.895
307.85
306.836
305.852
304.893
303.951
303.012
302.058
301.067
300.008
298.848
297.547
296.06
294.338
292.329
289.981
287.24
284.06
280.395
276.211
271.485
266.201
260.364
253.985
247.091
239.712
231.889
223.65
215.025
206.014
196.611
186.685
176.015
165.769
156.528
148.124
140.484
133.331
126.575
120.189
114.165
108.495
103.167
98.1691
93.4863
89.1022
85
81.1629
77.5742
74.2177
71.0779
68.1398
65.3895
62.8137
60.4001
58.1371
56.0141
54.021
52.1486
50.3885
48.7328
47.1742
45.706
44.322
43.0167
41.7848
40.6214
39.522
38.4827
37.4996
36.5692
35.6883
34.8538
34.0629
33.313
32.6017
31.9267
31.2858
30.6769
30.0983
29.548
29.0243
28.5257
28.0504
27.5971
27.1643
26.7507
26.355
25.976
25.6125
25.2635
24.928
24.605
24.2937
23.9932
23.703
23.4222
23.1504
22.8869
22.6314
22.3834
22.1425
21.9085
21.681
21.4599
21.2449
21.036
20.8328
20.6355
20.4437
20.2575
20.0769
19.9017
19.732
19.5676
19.4086
19.2549
19.1065
18.9633
18.8253
18.6924
18.5646
18.4418
18.324
18.2111
18.1031
17.9998
17.9012
17.8072
17.7178
17.6328
17.5523
17.4761
17.404
17.3361
17.2722
17.2122
17.156
17.1035
17.0545
17.009
16.9665
16.9267
16.889
16.8518
16.8173
88.3083
65.7438
82.6846
101.773
119.862
136.484
151.771
165.989
179.387
192.159
204.438
216.31
227.816
238.971
249.771
260.198
270.23
279.839
289
297.689
305.886
313.576
320.746
327.39
333.503
339.087
344.146
348.684
352.712
356.24
359.28
361.846
363.953
365.619
366.862
367.7
368.154
368.245
367.997
367.433
366.58
365.464
364.113
362.556
360.824
358.946
356.955
354.881
352.755
350.609
348.472
346.373
344.336
342.325
340.321
338.333
336.372
334.443
332.549
330.684
328.837
326.991
325.122
323.199
321.184
319.031
316.689
314.104
311.216
307.965
304.293
300.147
295.478
290.253
284.448
278.051
271.073
263.527
255.447
246.858
237.804
228.305
218.382
208.037
197.023
185.868
175.197
165.253
156.121
147.678
139.807
132.398
125.403
118.803
112.586
106.742
101.259
96.1197
91.3085
86.807
82.5971
78.6604
74.9793
71.5364
68.3155
65.3011
62.4784
59.834
57.355
55.0295
52.8465
50.7959
48.8683
47.0549
45.3478
43.7396
42.2234
40.793
39.4427
38.1672
36.9614
35.8211
34.7419
33.7201
32.752
31.8345
30.9644
30.139
29.3555
28.6116
27.9048
27.2332
26.5945
25.9869
25.4087
24.8579
24.3331
23.8327
23.3552
22.8992
22.4633
22.0464
21.6472
21.2646
20.8976
20.545
20.2061
19.8799
19.5657
19.2627
18.9702
18.6875
18.4143
18.1498
17.8937
17.6455
17.4049
17.1716
16.9452
16.7254
16.5121
16.305
16.1039
15.9087
15.7192
15.5353
15.3568
15.1837
15.0157
14.8529
14.6951
14.5423
14.3943
14.251
14.1123
13.9783
13.8487
13.7235
13.6027
13.486
13.3735
13.2651
13.1606
13.06
12.9632
12.8701
12.7806
12.6946
12.6121
12.5329
12.4569
12.3842
12.3144
12.2476
12.1836
12.1221
12.0629
12.0056
11.9494
11.8972
110.141
73.7964
88.3611
106.209
123.435
139.491
154.496
168.719
182.409
195.752
208.866
221.814
234.617
247.262
259.72
271.947
283.894
295.509
306.744
317.553
327.895
337.736
347.048
355.809
364.002
371.616
378.643
385.081
390.931
396.195
400.88
404.993
408.545
411.548
414.015
415.96
417.402
418.359
418.85
418.899
418.529
417.766
416.637
415.171
413.4
411.353
409.064
406.565
403.89
401.071
398.143
395.136
392.076
388.926
385.711
382.453
379.172
375.884
372.594
369.303
366.004
362.683
359.316
355.872
352.311
348.583
344.633
340.404
335.833
330.853
325.404
319.437
312.904
305.774
298.038
289.689
280.751
271.247
261.228
250.722
239.794
228.43
216.655
204.443
192.609
181.401
170.906
161.163
152.151
143.78
135.957
128.611
121.703
115.209
109.112
103.394
98.0393
93.0278
88.3402
83.957
79.8586
76.0261
72.4413
69.0868
65.9464
63.0047
60.2474
57.6611
55.2335
52.9531
50.8094
48.7927
46.8939
45.1048
43.4177
41.8258
40.3224
38.9018
37.5585
36.2874
35.084
33.9439
32.8633
31.8386
30.8663
29.9435
29.0671
28.2346
27.4434
26.6912
25.9759
25.2953
24.6476
24.0309
23.4434
22.8836
22.3498
21.8406
21.3546
20.8903
20.4466
20.0221
19.6158
19.2264
18.853
18.4946
18.1502
17.8189
17.5001
17.1928
16.8965
16.6104
16.334
16.0667
15.8081
15.5577
15.3151
15.0799
14.8517
14.6304
14.4156
14.207
14.0044
13.8076
13.6165
13.4308
13.2505
13.0752
12.905
12.7396
12.579
12.423
12.2715
12.1244
11.9817
11.8431
11.7086
11.5781
11.4516
11.3288
11.2098
11.0943
10.9825
10.874
10.769
10.6672
10.5685
10.473
10.3805
10.2909
10.2042
10.1201
10.0388
9.95992
9.88349
9.8093
9.73714
9.66673
9.59776
9.53359
129.034
79.6537
91.6883
108.293
124.772
140.436
155.37
169.826
184.041
198.185
212.358
226.603
240.918
255.269
269.599
283.841
297.919
311.757
325.282
338.425
351.125
363.326
374.984
386.059
396.521
406.347
415.516
424.019
431.846
438.995
445.463
451.255
456.375
460.829
464.627
467.781
470.304
472.21
473.518
474.247
474.419
474.057
473.189
471.842
470.047
467.834
465.236
462.285
459.016
455.464
451.666
447.652
443.438
439.005
434.408
429.684
424.863
419.969
415.016
410.01
404.95
399.824
394.612
389.285
383.802
378.108
372.144
365.851
359.167
352.017
344.339
336.093
327.233
317.734
307.607
296.853
285.52
273.639
261.318
248.53
235.491
221.857
208.689
196.042
184.108
172.967
162.619
153.046
144.203
136.016
128.408
121.318
114.7
108.52
102.75
97.3652
92.3407
87.6527
83.2781
79.1947
75.3813
71.8181
68.4863
65.3685
62.4486
59.7115
57.1436
54.7321
52.4654
50.3328
48.3246
46.4317
44.646
42.9599
41.3667
39.8598
38.4337
37.0829
35.8027
34.5886
33.4365
32.3426
31.3035
30.316
29.3772
28.4842
27.6346
26.826
26.0563
25.3233
24.6251
23.9599
23.326
22.7218
22.1456
21.596
21.0715
20.5709
20.0927
19.6357
19.1986
18.7805
18.38
17.9962
17.628
17.2745
16.9348
16.608
16.2934
15.9902
15.6976
15.4152
15.1421
14.8781
14.6224
14.3747
14.1346
13.9017
13.6756
13.456
13.2427
13.0354
12.8338
12.6378
12.4471
12.2615
12.081
11.9053
11.7342
11.5678
11.4058
11.248
11.0945
10.945
10.7995
10.6579
10.5201
10.3859
10.2553
10.1282
10.0045
9.88406
9.76686
9.6528
9.54178
9.43373
9.32855
9.22616
9.12648
9.02942
8.9349
8.84284
8.75313
8.6657
8.58041
8.49714
8.41572
8.33595
8.25779
8.18508
144.214
83.5502
93.0531
108.429
124.209
139.54
154.456
169.184
183.945
198.894
214.119
229.644
245.451
261.484
277.666
293.905
310.102
326.158
341.975
357.459
372.528
387.107
401.13
414.542
427.297
439.357
450.694
461.283
471.11
480.162
488.433
495.92
502.621
508.541
513.683
518.056
521.668
524.532
526.662
528.076
528.793
528.835
528.228
526.999
525.178
522.795
519.883
516.475
512.604
508.307
503.623
498.578
493.168
487.411
481.382
475.131
468.699
462.119
455.413
448.592
441.661
434.61
427.424
420.074
412.52
404.703
396.554
388.011
379.019
369.493
359.365
348.605
337.178
325.067
312.292
298.902
284.963
270.476
255.764
240.405
225.545
211.127
197.485
184.667
172.714
161.64
151.426
142.034
133.41
125.485
118.186
111.45
105.224
99.4624
94.1262
89.1805
84.5934
80.3352
76.3788
72.6987
69.2719
66.077
63.0946
60.3069
57.6979
55.2528
52.9583
50.8025
48.7742
46.8637
45.062
43.3608
41.7529
40.2315
38.7906
37.4246
36.1285
34.8978
33.7282
32.6161
31.5579
30.5506
29.5911
28.6769
27.8054
26.9745
26.1821
25.4261
24.7049
24.0167
23.3599
22.733
22.1345
21.5631
21.0174
20.4962
19.9982
19.5223
19.0672
18.6319
18.2151
17.816
17.4334
17.0664
16.714
16.3753
16.0494
15.7357
15.4332
15.1414
14.8594
14.5868
14.3229
14.0673
13.8195
13.579
13.3454
13.1184
12.8977
12.6829
12.4739
12.2704
12.0721
11.8788
11.6905
11.5068
11.3277
11.1531
10.9827
10.8165
10.6543
10.4961
10.3417
10.191
10.044
9.9005
9.76047
9.62381
9.49043
9.36025
9.23318
9.10914
8.98805
8.86983
8.75441
8.64169
8.53161
8.42409
8.31904
8.21638
8.11605
8.01794
7.92199
7.82809
7.73616
7.64607
7.55769
7.47089
7.38577
7.30661
155.496
85.79
92.8724
107.031
122.123
137.115
151.981
166.923
182.146
197.792
213.939
230.602
247.748
265.306
283.182
301.263
319.431
337.561
355.533
373.232
390.553
407.399
423.686
439.34
454.3
468.515
481.94
494.545
506.303
517.195
527.208
536.332
544.561
551.895
558.334
563.881
568.541
572.325
575.244
577.312
578.547
578.97
578.605
577.48
575.625
573.071
569.851
565.998
561.546
556.532
550.995
544.96
538.385
531.351
523.938
516.208
508.212
499.992
491.577
482.984
474.217
465.273
456.133
446.772
437.153
427.208
416.855
406.026
394.67
382.705
370.052
356.677
342.567
327.765
312.217
296.111
279.564
262.311
245.557
229.116
213.444
198.599
184.689
171.751
159.794
148.805
138.748
129.574
121.217
113.606
106.667
100.33
94.5328
89.2219
84.3487
79.8703
75.7481
71.9476
68.4377
65.1902
62.1801
59.3847
56.7839
54.3595
52.0954
49.9769
47.9911
46.1265
44.3725
42.72
41.1606
39.6867
38.2919
36.9699
35.7155
34.5239
33.3906
32.3119
31.2841
30.3041
29.369
28.4763
27.6236
26.8087
26.0298
25.2851
24.5729
23.8917
23.2401
22.6168
22.0205
21.4501
20.9045
20.3825
19.8831
19.4052
18.9478
18.51
18.0906
17.6888
17.3036
16.9341
16.5793
16.2383
15.9104
15.5946
15.2902
14.9964
14.7126
14.4382
14.1724
13.9147
13.6647
13.4218
13.1857
12.956
12.7323
12.5142
12.3017
12.0943
11.8919
11.6942
11.5011
11.3125
11.1281
10.9479
10.7717
10.5995
10.431
10.2662
10.1051
9.94749
9.79332
9.64253
9.49502
9.35072
9.20956
9.07147
8.93637
8.8042
8.67487
8.54833
8.4245
8.30331
8.18469
8.06857
7.95488
7.84354
7.73449
7.62764
7.52293
7.42028
7.3196
7.22083
7.12386
7.0286
6.93495
6.84281
6.75241
6.66834
163.041
86.6841
91.5282
104.489
118.875
133.484
148.226
163.273
178.815
194.989
211.864
229.45
247.706
266.552
285.88
305.561
325.457
345.427
365.328
385.025
404.389
423.306
441.672
459.395
476.397
492.612
507.984
522.471
536.035
548.651
560.297
570.958
580.623
589.286
596.943
603.594
609.24
613.887
617.545
620.225
621.943
622.72
622.579
621.549
619.659
616.944
613.438
609.174
604.188
598.52
592.204
585.249
577.608
569.406
560.728
551.642
542.208
532.475
522.481
512.244
501.77
491.053
480.072
468.8
457.201
445.204
432.714
419.64
405.932
391.524
376.357
360.347
343.491
326.052
307.673
288.887
270.227
251.735
233.885
216.781
200.606
185.447
171.361
158.371
146.468
135.622
125.782
116.881
108.845
101.593
95.0448
89.1245
83.7633
78.8993
74.4776
70.4495
66.772
63.4071
60.3209
57.4836
54.8689
52.4535
50.2167
48.1403
46.2081
44.4059
42.7209
41.1421
39.6593
38.2639
36.9479
35.7045
34.5274
33.4112
32.3511
31.3427
30.3821
29.466
28.5914
27.7556
26.9561
26.1908
25.4579
24.7556
24.0824
23.4369
22.8179
22.2243
21.6549
21.1089
20.5853
20.0831
19.6017
19.14
18.6974
18.2729
17.8659
17.4754
17.1006
16.7408
16.395
16.0626
15.7426
15.4344
15.1371
14.85
14.5724
14.3037
14.0432
13.7904
13.5448
13.3057
13.0729
12.846
12.6245
12.4081
12.1967
11.9899
11.7875
11.5894
11.3953
11.2052
11.0189
10.8363
10.6572
10.4817
10.3096
10.1409
9.97542
9.81318
9.65409
9.49811
9.34516
9.1952
9.04817
8.90402
8.7627
8.62415
8.48831
8.35513
8.22456
8.09654
7.97101
7.84791
7.72718
7.60876
7.49259
7.37861
7.26674
7.15692
7.04908
6.94315
6.83905
6.73673
6.63609
6.53705
6.43954
6.34348
6.24918
6.16148
167.166
86.5154
89.3581
101.146
114.797
128.959
143.479
158.498
174.192
190.692
208.067
226.326
245.423
265.273
285.758
306.741
328.07
349.584
371.126
392.541
413.682
434.415
454.617
474.181
493.012
511.028
528.162
544.358
559.571
573.764
586.909
598.985
609.975
619.868
628.654
636.331
642.895
648.35
652.7
655.956
658.131
659.245
659.321
658.389
656.48
653.632
649.881
645.261
639.812
633.578
626.586
618.805
610.24
601.019
591.234
580.958
570.255
559.181
547.778
536.068
524.055
511.729
499.063
486.013
472.544
458.59
444.052
428.814
412.775
395.918
378.293
359.686
340.007
320.131
299.821
279.566
259.655
240.301
221.744
204.141
187.623
172.27
158.123
145.188
133.44
122.828
113.286
104.73
97.0737
90.2255
84.0977
78.6078
73.681
69.2501
65.256
61.6466
58.3763
55.4053
52.6988
50.2263
47.9613
45.8806
43.9638
42.193
40.5526
39.0288
37.6093
36.2836
35.0422
33.8767
32.7798
31.745
30.7666
29.8396
28.9593
28.1219
27.324
26.5624
25.8345
25.138
24.4706
23.8307
23.2165
22.6268
22.0603
21.5158
20.9925
20.4894
20.0057
19.5408
19.0938
18.6643
18.2515
17.8549
17.4737
17.1074
16.7553
16.4167
16.091
15.7775
15.4754
15.1841
14.9028
14.631
14.3678
14.1126
13.8649
13.6241
13.3896
13.161
12.9377
12.7195
12.5059
12.2966
12.0914
11.8901
11.6924
11.4982
11.3073
11.1197
10.9351
10.7536
10.5751
10.3995
10.2268
10.0569
9.88986
9.72555
9.56398
9.40512
9.24895
9.09545
8.94458
8.79632
8.65065
8.50752
8.36692
8.2288
8.09314
7.95989
7.82901
7.70047
7.57421
7.4502
7.32837
7.20869
7.0911
6.97554
6.86195
6.75027
6.64044
6.53241
6.42609
6.32143
6.21836
6.11681
6.01671
5.91803
5.82112
5.73097
168.282
85.5341
86.6418
97.2978
110.183
123.829
138.023
152.873
168.544
185.163
202.801
221.466
241.115
261.663
282.987
304.944
327.372
350.101
372.958
395.773
418.384
440.639
462.399
483.541
503.955
523.544
542.228
559.939
576.621
592.229
606.727
620.086
632.283
643.303
653.131
661.758
669.18
675.394
680.401
684.209
686.829
688.279
688.583
687.771
685.878
682.943
679.005
674.103
668.28
661.585
654.028
645.549
636.211
626.139
615.424
604.142
592.356
580.123
567.49
554.483
541.103
527.335
513.141
498.454
483.204
467.359
450.847
433.53
415.151
395.813
375.847
355.089
333.729
312.185
290.596
269.281
248.492
228.463
209.395
191.45
174.742
159.34
145.271
132.521
121.046
110.775
101.622
93.4873
86.2706
79.8709
74.1923
69.1466
64.6542
60.6447
57.0564
53.8359
50.9366
48.3186
45.9473
43.7927
41.829
40.0339
38.3878
36.8739
35.4774
34.1853
32.9864
31.8706
30.8293
29.8547
28.9401
28.0794
27.2675
26.4995
25.7716
25.0799
24.4214
23.7933
23.1931
22.6187
22.0682
21.54
21.0327
20.5451
20.0761
19.6248
19.1904
18.7722
18.3695
17.9818
17.6085
17.2491
16.9032
16.5702
16.2496
15.9409
15.6435
15.357
15.0806
14.8138
14.5559
14.3064
14.0645
13.8297
13.6014
13.379
13.1619
12.9497
12.7419
12.5381
12.338
12.1412
11.9474
11.7565
11.5683
11.3825
11.1992
11.0181
10.8393
10.6627
10.4883
10.316
10.1459
9.97793
9.81213
9.6485
9.48705
9.32781
9.17079
9.01599
8.86343
8.71311
8.56505
8.41924
8.27567
8.13436
7.99527
7.85841
7.72376
7.59129
7.46098
7.33281
7.20675
7.08275
6.96079
6.84082
6.7228
6.60667
6.4924
6.37992
6.26919
6.16014
6.05272
5.94687
5.84253
5.73965
5.63817
5.53808
5.43975
5.34824
166.817
83.9533
83.6127
93.1907
105.288
118.356
132.126
146.676
162.158
178.695
196.361
215.17
235.084
256.018
277.854
300.446
323.627
347.221
371.045
394.92
418.67
442.13
465.146
487.582
509.311
530.226
550.232
569.249
587.211
604.063
619.761
634.268
647.556
659.601
670.386
679.896
688.122
695.056
700.697
705.047
708.115
709.916
710.475
709.821
707.993
705.032
700.98
695.881
689.784
682.742
674.731
665.691
655.739
644.982
633.513
621.407
608.722
595.508
581.803
567.657
553.059
537.987
522.395
506.19
489.182
471.468
453.038
433.765
413.523
392.465
370.75
348.46
325.808
303.064
280.474
258.319
236.854
216.317
196.909
178.785
162.05
146.757
132.915
120.487
109.405
99.5789
90.9009
83.2577
76.5348
70.6221
65.4169
60.8264
56.7681
53.1699
49.9694
47.1131
44.5551
42.2562
40.183
38.307
36.6037
35.052
33.634
32.334
31.1385
30.0356
29.0152
28.0682
27.1869
26.3642
25.5942
24.8714
24.1912
23.5493
22.9421
22.3664
21.8192
21.2981
20.8009
20.3256
19.8706
19.4343
19.0156
18.6133
18.2264
17.8542
17.496
17.151
16.8188
16.4989
16.1908
15.894
15.6081
15.3327
15.0674
14.8115
14.5647
14.3264
14.0961
13.8731
13.6569
13.4469
13.2424
13.043
12.8479
12.6569
12.4692
12.2846
12.1025
11.9228
11.745
11.569
11.3946
11.2216
11.0499
10.8795
10.7103
10.5423
10.3755
10.21
10.0457
9.88276
9.7212
9.56108
9.40245
9.24539
9.08994
8.93618
8.78414
8.63388
8.48544
8.33887
8.19419
8.05144
7.91063
7.77179
7.63492
7.50005
7.36715
7.23624
7.1073
6.98033
6.85529
6.73218
6.61096
6.49161
6.37408
6.25834
6.14435
6.03205
5.92141
5.81238
5.7049
5.59892
5.4944
5.39129
5.28956
5.18919
5.09058
4.99877
163.195
81.9579
80.4644
89.0376
100.342
112.786
126.05
140.187
155.331
171.606
189.085
207.791
227.692
248.712
270.737
293.625
317.21
341.315
365.753
390.337
414.884
439.219
463.177
486.607
509.374
531.355
552.445
572.55
591.596
609.516
626.257
641.776
656.036
669.007
680.667
690.996
699.977
707.601
713.859
718.749
722.278
724.456
725.307
724.86
723.155
720.237
716.15
710.942
704.675
697.392
689.019
679.57
669.152
657.869
645.807
633.039
619.619
605.576
590.904
575.742
560.04
543.765
526.873
509.291
490.906
471.761
451.806
431.005
409.35
386.945
363.914
340.421
316.692
292.98
269.566
246.735
224.758
203.88
184.301
166.17
149.576
134.554
121.085
109.109
98.5338
89.2453
81.1181
74.0235
67.8358
62.4372
57.7202
53.5891
49.9602
46.7614
43.931
41.4167
39.1742
37.1662
35.3611
33.732
32.2565
30.9151
29.6914
28.5714
27.5428
26.5953
25.7197
24.9082
24.1539
23.4508
22.7935
22.1775
21.5987
21.0534
20.5384
20.051
19.5886
19.149
18.7304
18.3309
17.9492
17.5839
17.2339
16.8981
16.5759
16.2663
15.9688
15.6828
15.4077
15.1432
14.8888
14.644
14.4085
14.1818
13.9634
13.7529
13.5497
13.3534
13.1633
12.9789
12.7995
12.6246
12.4535
12.2858
12.1208
11.958
11.7971
11.6375
11.479
11.3213
11.1641
11.0073
10.8508
10.6945
10.5383
10.3822
10.2263
10.0707
9.91533
9.76037
9.6059
9.45202
9.29884
9.14648
8.99502
8.84458
8.69526
8.54716
8.40036
8.25494
8.11098
7.96855
7.8277
7.68849
7.55096
7.41515
7.2811
7.14883
7.01835
6.88968
6.76281
6.63776
6.51452
6.39307
6.2734
6.15548
6.03929
5.92479
5.81196
5.70076
5.59114
5.48306
5.37648
5.27136
5.16765
5.06533
4.96437
4.86477
4.76692
4.67576
157.861
79.7484
77.385
85.0436
95.5733
107.366
120.07
133.704
148.391
164.247
181.35
199.729
219.363
240.185
262.091
284.947
308.596
332.861
357.559
382.501
407.501
432.375
456.953
481.075
504.592
527.374
549.301
570.272
590.199
609.006
626.63
643.02
658.131
671.927
684.379
695.461
705.151
713.433
720.293
725.724
729.727
732.309
733.49
733.3
731.779
728.971
724.923
719.69
713.343
705.898
697.269
687.535
676.783
665.107
652.587
639.293
625.281
610.587
595.24
579.296
562.732
545.515
527.605
508.956
489.509
469.247
448.128
426.149
403.351
379.826
355.709
331.195
306.532
281.998
257.898
234.54
212.212
191.163
171.59
153.628
137.346
122.75
109.795
98.3914
88.4213
79.749
72.2314
65.7269
60.1009
55.2303
51.0048
47.3279
44.1168
41.3007
38.8201
36.625
34.6734
32.9304
31.3667
29.9577
28.6828
27.5246
26.4685
25.5018
24.6139
23.7956
23.0392
22.3379
21.6856
21.0774
20.5087
19.9756
19.4747
19.0029
18.5576
18.1363
17.7371
17.358
16.9974
16.654
16.3263
16.0133
15.7141
15.4278
15.1536
14.8909
14.6391
14.3977
14.1662
13.9443
13.7315
13.5273
13.3313
13.1432
12.9624
12.7884
12.6207
12.4587
12.3018
12.1494
12.0008
11.8553
11.7125
11.5717
11.4323
11.2938
11.1559
11.018
10.88
10.7415
10.6024
10.4626
10.3219
10.1804
10.0381
9.89493
9.75112
9.60673
9.46188
9.31672
9.17138
9.02603
8.8808
8.73586
8.59134
8.44738
8.30413
8.16171
8.02022
7.8798
7.74052
7.60249
7.46579
7.33048
7.19664
7.06432
6.93356
6.80441
6.67689
6.55103
6.42685
6.30436
6.18356
6.06446
5.94703
5.83127
5.71716
5.60467
5.49378
5.38447
5.27668
5.17039
5.06557
4.96217
4.86018
4.75955
4.66028
4.56237
4.46622
4.37659
152.347
77.8468
74.6584
81.4309
91.1826
102.303
114.399
127.462
141.591
156.898
173.462
191.319
210.458
230.827
252.335
274.86
298.255
322.354
346.979
371.944
397.064
422.153
447.038
471.55
495.534
518.849
541.368
562.976
583.576
603.083
621.424
638.538
654.373
668.885
682.038
693.8
704.143
713.045
720.486
726.452
730.939
733.95
735.5
735.618
734.342
731.718
727.793
722.633
716.307
708.787
700.054
690.19
679.272
667.381
654.596
640.982
626.596
611.483
595.676
579.198
562.032
544.149
525.511
506.08
485.813
464.673
442.626
419.681
395.899
371.385
346.298
320.868
295.374
270.132
245.479
221.747
199.235
178.196
158.813
141.2
125.397
111.378
99.0651
88.3393
79.0568
71.0613
64.1948
58.3052
53.2523
48.9101
45.1681
41.9314
39.1193
36.6642
34.5096
32.6086
30.9224
29.4188
28.0712
26.8574
25.7591
24.7606
23.8492
23.0139
22.2454
21.536
20.8788
20.2682
19.6993
19.1676
18.6696
18.2019
17.7618
17.3467
16.9545
16.5832
16.2311
15.8967
15.5788
15.2761
14.9876
14.7124
14.4497
14.1988
13.9591
13.7301
13.5112
13.3021
13.1023
12.9114
12.7291
12.5549
12.3884
12.2292
12.0768
11.9306
11.7901
11.6547
11.5236
11.3962
11.2719
11.15
11.0297
10.9106
10.7919
10.6733
10.5542
10.4343
10.3133
10.1909
10.067
9.94146
9.81428
9.68546
9.55505
9.42317
9.28992
9.15546
9.01995
8.88358
8.74652
8.60895
8.47108
8.33306
8.19509
8.05734
7.91995
7.78308
7.64687
7.51146
7.37696
7.24348
7.11112
6.97997
6.85011
6.72161
6.59452
6.4689
6.34478
6.22222
6.10122
5.98181
5.86401
5.74781
5.63322
5.52024
5.40884
5.29902
5.19074
5.08399
4.97875
4.87497
4.77264
4.67172
4.57219
4.47404
4.37725
4.28184
4.18818
4.10084
146.595
76.2233
72.3234
78.2619
87.2541
97.6929
109.151
121.585
135.076
149.723
165.607
182.772
201.218
220.909
241.769
263.693
286.549
310.183
334.428
359.107
384.038
409.039
433.934
458.551
482.731
506.325
529.196
551.223
572.296
592.322
611.218
628.914
645.349
660.472
674.24
686.614
697.56
707.049
715.054
721.557
726.546
730.018
731.984
732.471
731.514
729.158
725.456
720.48
714.288
706.817
698.143
688.319
677.413
665.501
652.656
638.939
624.408
609.107
593.064
576.288
558.761
540.451
521.316
501.316
480.404
458.536
435.687
411.878
387.184
361.739
335.742
309.463
283.226
257.39
232.325
208.384
185.873
165.034
146.033
128.949
113.787
100.484
88.9274
78.9673
70.436
63.1592
56.9672
51.7014
47.2186
43.3933
40.117
37.2984
34.8605
32.74
30.8843
29.2504
27.8029
26.5129
25.3565
24.3141
23.3696
22.5094
21.7225
20.9993
20.3322
19.7144
19.1403
18.6051
18.1048
17.6358
17.195
16.7799
16.3881
16.0176
15.6667
15.3338
15.0176
14.7169
14.4307
14.158
13.898
13.6501
13.4135
13.1879
12.9726
12.7672
12.5714
12.3849
12.2072
12.0381
11.8772
11.7242
11.5786
11.44
11.308
11.1819
11.0611
10.9451
10.833
10.7243
10.6181
10.5139
10.4107
10.3082
10.2055
10.1023
9.99796
9.89219
9.78465
9.67512
9.56345
9.44955
9.33341
9.21507
9.09462
8.97217
8.84789
8.72194
8.59453
8.46584
8.3361
8.20552
8.07429
7.94263
7.81073
7.67878
7.54696
7.41544
7.28437
7.15391
7.02417
6.8953
6.76738
6.64054
6.51485
6.3904
6.26725
6.14547
6.0251
5.90618
5.78876
5.67285
5.55848
5.44565
5.33438
5.22466
5.11649
5.00985
4.90473
4.80111
4.69898
4.5983
4.49905
4.40123
4.3048
4.20975
4.11609
4.02384
3.93333
3.8489
140.488
74.7905
70.385
75.5743
83.8476
93.6131
104.416
116.183
128.971
142.87
157.961
174.294
191.883
210.706
230.707
251.799
273.867
296.776
320.372
344.49
368.955
393.591
418.225
442.686
466.81
490.443
513.443
535.679
557.034
577.405
596.699
614.839
631.754
647.387
661.685
674.604
686.104
696.148
704.704
711.746
717.255
721.223
723.657
724.578
724.021
722.028
718.657
713.984
708.032
700.783
692.334
682.725
672.019
660.282
647.582
633.978
619.519
604.244
588.173
571.303
553.61
535.051
515.576
495.133
473.668
451.138
427.526
402.871
377.277
350.916
324.04
296.971
270.084
243.782
218.467
194.502
172.193
151.759
133.333
116.956
102.587
90.1255
79.42
70.2935
62.5567
56.0216
50.5106
45.8623
41.9343
38.604
35.7678
33.3389
31.2459
29.4303
27.8443
26.449
25.2131
24.1108
23.1212
22.2273
21.4152
20.6734
19.9924
19.3642
18.7825
18.2415
17.7368
17.2643
16.8208
16.4033
16.0094
15.637
15.2843
14.9496
14.6315
14.329
14.0408
13.7661
13.5041
13.254
13.0153
12.7874
12.5699
12.3623
12.1643
11.9757
11.796
11.625
11.4626
11.3084
11.1621
11.0235
10.8921
10.7676
10.6494
10.5371
10.4299
10.3273
10.2285
10.1328
10.0394
9.94759
9.85675
9.76619
9.67525
9.5834
9.49011
9.39498
9.29768
9.198
9.09578
8.99097
8.88354
8.77357
8.66114
8.5464
8.42952
8.31069
8.19012
8.06804
7.94466
7.82021
7.69491
7.56898
7.44264
7.31607
7.18947
7.06303
6.9369
6.81124
6.68619
6.56189
6.43844
6.31597
6.19456
6.07431
5.95528
5.83754
5.72114
5.60614
5.49257
5.38047
5.26985
5.16074
5.05314
4.94706
4.8425
4.73945
4.63791
4.53785
4.43926
4.34214
4.24645
4.15218
4.05933
3.96788
3.87785
3.78925
3.7024
3.62136
134.003
73.4731
68.8262
73.3865
81.0016
90.1196
100.268
111.346
123.39
136.48
150.694
166.09
182.695
200.504
219.481
239.556
260.638
282.609
305.331
328.654
352.417
376.451
400.587
424.658
448.499
471.954
494.875
517.127
538.584
559.134
578.678
597.127
614.405
630.445
645.189
658.585
670.587
681.151
690.241
697.821
703.867
708.365
711.316
712.736
712.659
711.124
708.197
703.948
698.354
691.503
683.448
674.229
663.903
652.529
640.167
626.867
612.669
597.602
581.672
564.861
547.132
528.43
508.69
487.847
465.841
442.633
418.227
392.69
366.167
338.885
311.157
283.367
255.945
229.335
203.958
180.182
158.293
138.477
120.821
105.318
91.8806
80.3638
70.5832
62.3361
55.4164
49.6271
44.7874
40.7372
37.3381
34.473
32.0446
29.9727
28.192
26.6496
25.3029
24.1176
23.066
22.1261
21.2799
20.5129
19.8133
19.1715
18.5796
18.0312
17.5207
17.0438
16.5967
16.1762
15.7796
15.4045
15.0492
14.7118
14.3909
14.0854
13.7939
13.5158
13.25
12.9959
12.7529
12.5205
12.2982
12.0855
11.8823
11.6881
11.5028
11.326
11.1578
10.9977
10.8458
10.7017
10.5653
10.4362
10.3142
10.1989
10.0899
9.98647
9.88814
9.79415
9.70388
9.6167
9.53186
9.4486
9.36612
9.28376
9.20084
9.11683
9.03124
8.9437
8.85382
8.76135
8.66614
8.56814
8.46734
8.36382
8.25768
8.14907
8.03817
7.92518
7.81032
7.69381
7.57588
7.45677
7.3367
7.21591
7.09459
6.97297
6.85123
6.72956
6.60812
6.48709
6.36659
6.24678
6.12776
6.00965
5.89255
5.77655
5.66173
5.54815
5.43587
5.32494
5.21541
5.10731
5.00066
4.89549
4.79181
4.68963
4.58894
4.48976
4.39207
4.29587
4.20114
4.10787
4.01605
3.92568
3.83673
3.74923
3.66316
3.57856
3.49572
3.41843
127.146
72.1962
67.6132
71.6948
78.7377
87.2537
96.7668
107.156
118.44
130.689
143.981
158.378
173.921
190.621
208.461
227.394
247.346
268.22
289.9
312.25
335.121
358.359
381.8
405.282
428.645
451.73
474.389
496.479
517.87
538.444
558.093
576.721
594.245
610.59
625.692
639.492
651.938
662.983
672.58
680.69
687.281
692.333
695.842
697.82
698.296
697.313
694.936
691.214
686.135
679.828
672.32
663.651
653.868
643.022
631.159
618.32
604.531
589.802
574.123
557.459
539.752
520.932
500.918
479.635
457.023
433.06
407.776
381.284
353.786
325.578
297.044
268.633
240.825
214.099
188.884
165.532
144.296
125.313
108.615
94.1395
81.7497
71.2587
62.4523
55.1073
49.0068
43.9502
39.758
36.2753
33.3705
30.9344
28.8773
27.1266
25.6237
24.322
23.1841
22.1804
21.2873
20.4858
19.7611
19.101
18.4957
17.9375
17.4199
16.9376
16.4862
16.0623
15.6628
15.2851
14.9272
14.5872
14.2636
13.955
13.6604
13.3787