/*--------------------------------*- C++ -*----------------------------------*\
  =========                 |
  \\      /  F ield         | OpenFOAM: The Open Source CFD Toolbox
   \\    /   O peration     | Website:  https://openfoam.org
    \\  /    A nd           | Version:  7
     \\/     M anipulation  |
\*---------------------------------------------------------------------------*/
FoamFile
{
    version     2.0;
    format      ascii;
    class       volScalarField;
    location    "200";
    object      k;
}
// * * * * * * * * * * * * * * * * * * * * * * * * * * * * * * * * * * * * * //

dimensions      [0 2 -2 0 0 0 0];

internalField   nonuniform List<scalar> 
16900
(
0.123084
0.143475
0.181726
0.241707
0.297781
0.351619
0.403269
0.45273
0.500003
0.545073
0.587939
0.6286
0.667067
0.703356
0.737495
0.76952
0.799473
0.827424
0.853404
0.877517
0.899792
0.920347
0.939224
0.956543
0.972361
0.986788
0.999903
1.01179
1.02255
1.03225
1.04098
1.04884
1.05588
1.06219
1.06783
1.07287
1.07736
1.08136
1.08492
1.08807
1.09085
1.09328
1.0954
1.09721
1.09874
1.1
1.10099
1.10172
1.10221
1.10246
1.10249
1.1023
1.10194
1.10144
1.10045
1.09883
1.09655
1.09357
1.08984
1.08531
1.07995
1.0737
1.0665
1.05831
1.04908
1.03876
1.02729
1.01464
1.00076
0.985635
0.969238
0.951567
0.932628
0.91245
0.891074
0.868562
0.844996
0.820472
0.795105
0.769017
0.742333
0.715167
0.687635
0.659842
0.63198
0.604237
0.5768
0.550454
0.526955
0.505003
0.491258
0.479683
0.469032
0.459021
0.449542
0.440539
0.431976
0.42383
0.41608
0.408709
0.401702
0.395042
0.388716
0.382706
0.376998
0.371576
0.366426
0.361533
0.356883
0.352461
0.348255
0.344251
0.340439
0.336805
0.333341
0.330036
0.32688
0.323866
0.320984
0.318228
0.315591
0.313066
0.310649
0.308333
0.306113
0.303986
0.301947
0.299993
0.298119
0.296322
0.294599
0.292948
0.291364
0.289845
0.288388
0.28699
0.285649
0.28436
0.283122
0.281932
0.280785
0.27968
0.278614
0.277583
0.276586
0.275618
0.274678
0.273763
0.272871
0.271999
0.271147
0.270311
0.26949
0.268684
0.267891
0.26711
0.26634
0.265581
0.264832
0.264094
0.263366
0.262647
0.261939
0.261242
0.260555
0.25988
0.259216
0.258564
0.257925
0.2573
0.256688
0.25609
0.255507
0.25494
0.254389
0.253854
0.253336
0.252836
0.252353
0.251889
0.251443
0.251017
0.250609
0.250221
0.249853
0.249505
0.249178
0.248871
0.248585
0.248321
0.248079
0.247861
0.247666
0.247496
0.247352
0.247237
0.247152
0.2471
0.247084
0.247134
0.15066
0.249073
0.351186
0.445207
0.534585
0.619976
0.701658
0.779937
0.854971
0.926837
0.995535
1.06103
1.12325
1.18215
1.23764
1.28969
1.33825
1.38335
1.42497
1.46316
1.49796
1.52947
1.55776
1.58296
1.60517
1.62453
1.64119
1.6553
1.667
1.67646
1.68385
1.68933
1.69308
1.69527
1.69606
1.69562
1.69413
1.69174
1.68862
1.68491
1.68077
1.67634
1.67174
1.66711
1.66255
1.65819
1.6541
1.65038
1.64712
1.64437
1.6422
1.64067
1.63983
1.63959
1.63953
1.6397
1.64007
1.64058
1.64114
1.64168
1.64209
1.64225
1.64202
1.64126
1.63979
1.63745
1.63405
1.62939
1.62328
1.61552
1.60592
1.59433
1.58058
1.56457
1.54622
1.52549
1.5024
1.47699
1.44937
1.41967
1.38806
1.35465
1.31955
1.28274
1.24431
1.2042
1.16278
1.1186
1.076
1.03475
0.997756
0.962409
0.928449
0.895867
0.864676
0.834877
0.806451
0.779372
0.753602
0.729097
0.70581
0.683692
0.662692
0.642757
0.623836
0.605879
0.588835
0.572656
0.557298
0.542715
0.528865
0.515709
0.503209
0.491329
0.480037
0.469302
0.459093
0.449383
0.440147
0.43136
0.423
0.415045
0.407477
0.400275
0.393422
0.386902
0.380698
0.374795
0.369179
0.363836
0.358751
0.353913
0.349307
0.344923
0.340746
0.336766
0.33297
0.329347
0.325885
0.322574
0.319403
0.31636
0.313437
0.310622
0.307908
0.305284
0.302743
0.300278
0.297882
0.295547
0.293269
0.291043
0.288864
0.286729
0.284634
0.282578
0.280559
0.278574
0.276623
0.274706
0.272821
0.270968
0.269149
0.267362
0.265608
0.263889
0.262204
0.260555
0.258942
0.257367
0.255831
0.254335
0.252881
0.251468
0.250098
0.248771
0.247487
0.246247
0.245052
0.2439
0.242792
0.241728
0.240706
0.239725
0.238784
0.237883
0.23702
0.236195
0.235408
0.234658
0.233944
0.233267
0.232627
0.232022
0.231454
0.23092
0.230419
0.229948
0.229495
0.229087
0.188284
0.368041
0.496945
0.617143
0.732643
0.843462
0.949866
1.05221
1.15075
1.24563
1.33688
1.42447
1.50831
1.58827
1.66425
1.73611
1.80379
1.86719
1.92629
1.98107
2.03154
2.07775
2.11976
2.15766
2.19157
2.22162
2.24793
2.27067
2.28999
2.30606
2.31906
2.32916
2.33655
2.3414
2.34391
2.34425
2.34263
2.33922
2.33421
2.32778
2.32012
2.3114
2.30181
2.2915
2.28066
2.26943
2.25797
2.24642
2.23492
2.22359
2.21254
2.20187
2.19165
2.18164
2.17185
2.16229
2.15298
2.14389
2.13497
2.12616
2.11736
2.10846
2.09932
2.08978
2.07965
2.06871
2.05676
2.04356
2.02886
2.01244
1.99406
1.97352
1.95065
1.92532
1.89744
1.86698
1.83397
1.79846
1.76059
1.72048
1.67829
1.63412
1.58807
1.54008
1.49007
1.43741
1.38109
1.32623
1.27556
1.22823
1.18393
1.14157
1.10086
1.06177
1.02431
0.988487
0.954302
0.921721
0.890702
0.861192
0.833134
0.806465
0.781122
0.757041
0.734159
0.712414
0.691747
0.672098
0.653413
0.635639
0.618727
0.60263
0.587303
0.572706
0.558798
0.545543
0.532908
0.520861
0.509371
0.498412
0.487957
0.477982
0.468464
0.459382
0.450716
0.442447
0.434557
0.427028
0.419844
0.41299
0.406449
0.400207
0.39425
0.388562
0.38313
0.37794
0.372977
0.368228
0.36368
0.359318
0.355131
0.351104
0.347226
0.343484
0.339867
0.336365
0.332966
0.329661
0.326442
0.323301
0.320231
0.317225
0.314278
0.311385
0.308543
0.305749
0.302999
0.300293
0.297629
0.295005
0.292422
0.28988
0.287377
0.284915
0.282494
0.280115
0.277778
0.275484
0.273235
0.271029
0.268869
0.266755
0.264688
0.262668
0.260695
0.25877
0.256893
0.255065
0.253284
0.251552
0.249867
0.248231
0.246641
0.245098
0.243602
0.242151
0.240745
0.239384
0.238066
0.236791
0.23556
0.23437
0.233222
0.232116
0.23105
0.230022
0.229032
0.228075
0.227143
0.226287
0.233454
0.461932
0.613896
0.752704
0.886139
1.01483
1.13906
1.25922
1.37563
1.48849
1.59785
1.70364
1.80573
1.90393
1.99804
2.08784
2.17315
2.2538
2.32965
2.40063
2.46666
2.52772
2.58384
2.63506
2.68145
2.72312
2.76017
2.79275
2.82099
2.84507
2.86513
2.88137
2.89394
2.90305
2.90886
2.91158
2.91138
2.90847
2.90303
2.89526
2.88536
2.87353
2.85996
2.84484
2.82838
2.81076
2.79217
2.77278
2.75278
2.73233
2.71159
2.6907
2.66979
2.64864
2.62738
2.60609
2.58483
2.56362
2.54247
2.52133
2.50013
2.47879
2.45717
2.43512
2.41245
2.38895
2.3644
2.33856
2.31119
2.28204
2.2509
2.21759
2.18195
2.14388
2.10336
2.06038
2.01504
1.96744
1.91774
1.86607
1.81259
1.75736
1.70038
1.64159
1.57974
1.51722
1.45702
1.40041
1.34781
1.29856
1.25202
1.20761
1.1651
1.12443
1.08556
1.04846
1.0131
0.979426
0.947377
0.916887
0.887886
0.860302
0.834064
0.809103
0.785351
0.762743
0.741217
0.720713
0.701176
0.682553
0.664794
0.647853
0.631685
0.61625
0.60151
0.587429
0.573974
0.561115
0.548822
0.537069
0.525831
0.515085
0.504808
0.494982
0.485586
0.476601
0.468012
0.459802
0.451953
0.444452
0.437283
0.430432
0.423882
0.417621
0.411633
0.405904
0.40042
0.395164
0.390124
0.385284
0.38063
0.376147
0.371822
0.367641
0.363591
0.359661
0.355838
0.352112
0.348473
0.344913
0.341423
0.337998
0.33463
0.331316
0.328051
0.324832
0.321656
0.318522
0.315428
0.312375
0.30936
0.306386
0.303451
0.300557
0.297703
0.294892
0.292123
0.289398
0.286717
0.284082
0.281493
0.27895
0.276454
0.274007
0.271608
0.269257
0.266955
0.264701
0.262497
0.260341
0.258234
0.256175
0.254164
0.252201
0.250285
0.248416
0.246592
0.244815
0.243082
0.241394
0.23975
0.238149
0.236591
0.235075
0.2336
0.232165
0.230768
0.229406
0.228074
0.226847
0.271583
0.534457
0.704413
0.856532
1.00238
1.14373
1.28106
1.41485
1.5455
1.67322
1.79805
1.91988
2.0385
2.1536
2.26488
2.37197
2.47458
2.57239
2.66517
2.75269
2.83481
2.91142
2.98246
3.04791
3.1078
3.16216
3.2111
3.25471
3.29312
3.32646
3.3549
3.37859
3.39769
3.41239
3.42286
3.42929
3.43186
3.43076
3.42619
3.41835
3.40743
3.39365
3.3772
3.3583
3.33715
3.31396
3.28894
3.26227
3.23417
3.20482
3.17441
3.14312
3.11109
3.07814
3.04453
3.01043
2.97595
2.94118
2.90614
2.87085
2.83527
2.79934
2.76295
2.72598
2.68824
2.64953
2.60964
2.56834
2.52541
2.48062
2.43379
2.38477
2.33347
2.27983
2.22394
2.16585
2.10575
2.0438
1.98026
1.91525
1.84906
1.78151
1.71265
1.64223
1.57408
1.50945
1.44881
1.39239
1.34002
1.29113
1.24514
1.2016
1.16024
1.12092
1.08353
1.04799
1.01422
0.982117
0.951606
0.922598
0.895009
0.868758
0.843767
0.819964
0.797279
0.775646
0.755007
0.735303
0.716482
0.698496
0.681297
0.664846
0.649101
0.634027
0.619591
0.60576
0.592508
0.579806
0.56763
0.555958
0.544769
0.534042
0.523761
0.513907
0.504464
0.495418
0.486754
0.478458
0.470516
0.462915
0.455641
0.448681
0.442023
0.435651
0.429552
0.423713
0.418117
0.41275
0.407598
0.402644
0.397873
0.393271
0.388821
0.384511
0.380325
0.37625
0.372275
0.368388
0.364578
0.360837
0.357156
0.353529
0.349949
0.346413
0.342916
0.339457
0.336031
0.33264
0.329281
0.325955
0.322662
0.319403
0.316179
0.31299
0.309838
0.306725
0.30365
0.300617
0.297625
0.294676
0.291771
0.288911
0.286096
0.283328
0.280606
0.277932
0.275305
0.272727
0.270195
0.267712
0.265277
0.262889
0.260548
0.258254
0.256007
0.253805
0.25165
0.249539
0.247473
0.24545
0.243471
0.241535
0.239641
0.237789
0.235976
0.234203
0.232467
0.230765
0.229098
0.227564
0.302114
0.588006
0.771181
0.932622
1.08706
1.23734
1.38436
1.52872
1.67089
1.8111
1.94937
2.08553
2.21924
2.35011
2.47766
2.6014
2.72085
2.83558
2.94518
3.04933
3.14774
3.2402
3.32657
3.40674
3.48066
3.54835
3.60983
3.66518
3.71449
3.75788
3.79548
3.82744
3.85391
3.87506
3.89106
3.90209
3.90832
3.90994
3.90715
3.90013
3.8891
3.87425
3.8558
3.83395
3.80893
3.78095
3.75021
3.71693
3.68131
3.64356
3.6039
3.56249
3.51942
3.47464
3.42853
3.38134
3.33324
3.28437
3.2348
3.18458
3.13373
3.0822
3.02993
2.97682
2.9227
2.86739
2.81067
2.75235
2.69224
2.63011
2.56581
2.49929
2.43051
2.35948
2.28639
2.2114
2.13481
2.05685
1.97807
1.89828
1.81854
1.73703
1.65886
1.58425
1.51413
1.44888
1.38847
1.33275
1.28138
1.23385
1.18962
1.14825
1.10941
1.07286
1.03841
1.0059
0.97517
0.946103
0.918572
0.892464
0.867674
0.844109
0.821679
0.800307
0.779921
0.760454
0.741847
0.724046
0.707001
0.690669
0.675008
0.659981
0.645556
0.631701
0.618388
0.605592
0.593291
0.581463
0.57009
0.559153
0.548638
0.538529
0.528813
0.519479
0.510513
0.501906
0.493646
0.485723
0.478128
0.470849
0.463876
0.457198
0.450803
0.44468
0.438816
0.433197
0.427809
0.422636
0.417665
0.412878
0.40826
0.403795
0.399467
0.395261
0.391162
0.387156
0.38323
0.379373
0.375574
0.371825
0.368116
0.364443
0.360799
0.357181
0.353586
0.350012
0.346459
0.342925
0.339412
0.335919
0.33245
0.329004
0.325584
0.322192
0.318829
0.315498
0.312201
0.308938
0.305713
0.302526
0.299379
0.296274
0.293211
0.290191
0.287215
0.284285
0.281399
0.278559
0.275765
0.273017
0.270315
0.267659
0.265049
0.262484
0.259964
0.257489
0.255059
0.252672
0.250328
0.248027
0.245767
0.243549
0.241372
0.239235
0.237136
0.235075
0.233049
0.231058
0.229104
0.22731
0.32548
0.62509
0.817166
0.984805
1.14494
1.30139
1.45546
1.60794
1.75936
1.90999
2.05981
2.20857
2.35587
2.50114
2.64379
2.78315
2.91859
3.04952
3.17539
3.2957
3.41007
3.51815
3.61969
3.71452
3.80251
3.88358
3.95775
4.02502
4.08546
4.13916
4.18624
4.22682
4.26105
4.28907
4.31105
4.32715
4.33755
4.34243
4.34197
4.33637
4.32582
4.31054
4.29073
4.26661
4.2384
4.20632
4.17058
4.13139
4.08897
4.04352
3.99528
3.94439
3.89082
3.83473
3.77661
3.71675
3.65539
3.59271
3.52884
3.46387
3.39782
3.3307
3.26247
3.19306
3.12234
3.05012
2.97616
2.90031
2.82244
2.74234
2.65984
2.575
2.48786
2.39854
2.30727
2.21449
2.12061
2.02568
1.93136
1.83544
1.7437
1.65572
1.57311
1.49605
1.42471
1.35908
1.29897
1.24406
1.19395
1.14811
1.10603
1.06724
1.03133
0.997988
0.966933
0.93793
0.910772
0.885277
0.861284
0.838648
0.817244
0.796959
0.777693
0.759359
0.741879
0.725184
0.709214
0.693915
0.679241
0.665148
0.651601
0.638565
0.626013
0.613919
0.602259
0.591014
0.580167
0.5697
0.559602
0.54986
0.540463
0.531402
0.522669
0.514256
0.506155
0.498362
0.490869
0.48367
0.476759
0.470128
0.46377
0.457678
0.451841
0.446249
0.440891
0.435754
0.430825
0.426089
0.42153
0.417133
0.41288
0.408755
0.404741
0.400823
0.396984
0.393211
0.38949
0.38581
0.382161
0.378533
0.374921
0.371317
0.367719
0.364123
0.360529
0.356934
0.353341
0.34975
0.346162
0.342581
0.339008
0.335446
0.331899
0.328369
0.32486
0.321373
0.317912
0.314479
0.311077
0.307708
0.304373
0.301075
0.297815
0.294594
0.291414
0.288276
0.28518
0.282127
0.279117
0.276151
0.273228
0.27035
0.267515
0.264724
0.261976
0.259272
0.256609
0.253989
0.251411
0.248873
0.246375
0.243917
0.241498
0.239117
0.236772
0.234463
0.232188
0.229946
0.227745
0.225726
0.342302
0.648315
0.845615
1.01683
1.18037
1.34076
1.4997
1.65818
1.8168
1.97586
2.13531
2.29487
2.45402
2.61208
2.7683
2.92189
3.07204
3.21801
3.35908
3.49463
3.62412
3.7471
3.86321
3.97216
4.07376
4.16787
4.25441
4.33338
4.40479
4.46871
4.52521
4.57442
4.61646
4.65146
4.67957
4.70095
4.71577
4.7242
4.72642
4.72261
4.71298
4.69773
4.67708
4.65124
4.62044
4.5849
4.54485
4.5005
4.45205
4.39972
4.34374
4.28426
4.22101
4.15452
4.08529
4.01366
3.93993
3.8643
3.78697
3.70803
3.62754
3.54553
3.46196
3.37678
3.28993
3.2012
3.11034
3.01717
2.92163
2.8236
2.72291
2.6196
2.51389
2.40625
2.29649
2.18585
2.07497
1.96241
1.8546
1.75039
1.65204
1.55981
1.47417
1.39523
1.32293
1.25709
1.19738
1.1434
1.09467
1.05064
1.01077
0.97454
0.94151
0.91128
0.883509
0.8579
0.834195
0.812172
0.791633
0.77241
0.754355
0.73734
0.721253
0.705999
0.691494
0.677665
0.664449
0.651792
0.639646
0.62797
0.616728
0.605891
0.595431
0.585326
0.575557
0.566106
0.556961
0.548109
0.539541
0.531248
0.523225
0.515467
0.507969
0.500727
0.49374
0.487004
0.480518
0.474278
0.468281
0.462525
0.457003
0.451711
0.446641
0.441784
0.437131
0.432669
0.428384
0.424263
0.420289
0.416446
0.412716
0.409081
0.405524
0.402029
0.398579
0.39516
0.391758
0.388363
0.384964
0.381554
0.378127
0.374678
0.371205
0.367707
0.364184
0.360637
0.357069
0.353482
0.34988
0.346266
0.342645
0.339021
0.335398
0.33178
0.328172
0.324576
0.320998
0.317439
0.313904
0.310395
0.306915
0.303466
0.300051
0.29667
0.293326
0.290019
0.286752
0.283524
0.280337
0.27719
0.274085
0.271022
0.268
0.26502
0.262081
0.259184
0.256327
0.25351
0.250733
0.247994
0.245295
0.242632
0.240007
0.237417
0.234862
0.232341
0.229853
0.227396
0.224982
0.22277
0.353325
0.660189
0.859669
1.0323
1.19731
1.35977
1.52169
1.68424
1.84812
2.01366
2.18081
2.34921
2.5183
2.68728
2.85528
3.02136
3.18459
3.34405
3.49889
3.64835
3.79176
3.92852
4.05819
4.18037
4.29479
4.40122
4.49954
4.58968
4.67163
4.74539
4.81104
4.86866
4.91836
4.96025
4.99448
5.0212
5.04054
5.05269
5.0578
5.05607
5.04769
5.03286
5.0118
4.98475
4.95192
4.91355
4.86987
4.8211
4.76744
4.70912
4.64635
4.57917
4.50731
4.43153
4.35234
4.27011
4.18516
4.09776
4.0081
3.91633
3.82251
3.72666
3.62873
3.5287
3.42652
3.32204
3.21498
3.10507
2.9923
2.87669
2.75827
2.6368
2.51258
2.38732
2.2592
2.13118
2.00628
1.88457
1.76853
1.65862
1.55578
1.46035
1.37254
1.29236
1.21961
1.15398
1.09505
1.04232
0.995219
0.953153
0.915535
0.881813
0.851486
0.824111
0.799298
0.776709
0.756052
0.737075
0.719561
0.703324
0.688203
0.674061
0.66078
0.648259
0.63641
0.625159
0.614441
0.604201
0.594391
0.584969
0.575901
0.567157
0.558711
0.550542
0.542631
0.534965
0.527531
0.520319
0.513322
0.506535
0.499953
0.493575
0.487399
0.481424
0.475651
0.47008
0.464711
0.459546
0.454582
0.449819
0.445255
0.440884
0.436703
0.432702
0.428872
0.425201
0.421677
0.418283
0.415003
0.41182
0.408713
0.405666
0.402658
0.399674
0.396696
0.393709
0.390701
0.38766
0.384577
0.381447
0.378264
0.375025
0.371731
0.368381
0.364978
0.361526
0.358027
0.354488
0.350913
0.347308
0.343679
0.340031
0.336371
0.332702
0.329032
0.325365
0.321705
0.318057
0.314424
0.310811
0.30722
0.303655
0.300117
0.29661
0.293136
0.289695
0.28629
0.282921
0.27959
0.276297
0.273042
0.269828
0.266652
0.263516
0.260419
0.257362
0.254343
0.251363
0.24842
0.245515
0.242646
0.239813
0.237014
0.23425
0.231519
0.228819
0.226151
0.223513
0.220919
0.218544
0.35929
0.662955
0.862246
1.0345
1.19936
1.36225
1.52548
1.69034
1.85764
2.02774
2.20059
2.37583
2.5528
2.73066
2.90842
3.08503
3.25942
3.43054
3.59743
3.75916
3.91496
4.06412
4.20606
4.3403
4.46648
4.58431
4.69358
4.79417
4.88601
4.9691
5.04345
5.10913
5.16622
5.21482
5.25506
5.28707
5.31098
5.32695
5.33514
5.33572
5.32889
5.31485
5.29382
5.26603
5.23172
5.19114
5.14451
5.09207
5.03403
4.97063
4.90202
4.82805
4.74874
4.66486
4.57695
4.48537
4.39048
4.29255
4.19182
4.08844
3.9825
3.87398
3.76283
3.64895
3.53231
3.41287
3.29041
3.16454
3.03499
2.90215
2.76673
2.62777
2.48498
2.34361
2.20246
2.06409
1.93013
1.80168
1.68
1.56587
1.45988
1.36235
1.27338
1.19283
1.12043
1.05574
0.998222
0.947261
0.90221
0.862409
0.827218
0.79604
0.768332
0.743615
0.72147
0.701534
0.683496
0.667092
0.652095
0.638315
0.625589
0.613778
0.602767
0.592453
0.582753
0.573592
0.564909
0.556648
0.548763
0.541215
0.53397
0.526997
0.520273
0.513775
0.507488
0.501397
0.495489
0.489757
0.484194
0.478795
0.473558
0.46848
0.463563
0.458807
0.454214
0.449785
0.445524
0.441431
0.437509
0.433755
0.43017
0.42675
0.42349
0.420382
0.417417
0.414581
0.411861
0.40924
0.4067
0.404222
0.401784
0.399368
0.396953
0.39452
0.392053
0.389536
0.386956
0.384304
0.381571
0.378751
0.375843
0.372844
0.369757
0.366584
0.363329
0.359998
0.356597
0.353133
0.349613
0.346044
0.342434
0.338791
0.33512
0.33143
0.327727
0.324016
0.320303
0.316593
0.312892
0.309203
0.305531
0.301879
0.298249
0.294646
0.29107
0.287525
0.284011
0.280532
0.277087
0.273677
0.270304
0.266968
0.26367
0.260408
0.257185
0.253999
0.250849
0.247737
0.244661
0.24162
0.238614
0.235642
0.232703
0.229796
0.226921
0.224077
0.221262
0.218478
0.215738
0.213229
0.360907
0.658585
0.85592
1.02639
1.18975
1.35169
1.51471
1.68027
1.84925
2.02204
2.19863
2.37864
2.56138
2.74596
2.93132
3.1163
3.29975
3.48051
3.65748
3.82964
3.99609
4.15602
4.30874
4.45369
4.5904
4.71851
4.83774
4.94792
5.04891
5.14068
5.22319
5.29649
5.36064
5.41571
5.4618
5.49902
5.52751
5.54739
5.55881
5.56194
5.55696
5.54407
5.52349
5.49546
5.46023
5.41804
5.36915
5.31379
5.25218
5.18457
5.11102
5.03124
4.94558
4.85477
4.75934
4.65967
4.55607
4.44883
4.3382
4.22439
4.10746
3.98739
3.8641
3.73736
3.60697
3.47319
3.33603
3.19503
3.04904
2.89915
2.74777
2.59425
2.43982
2.287
2.13664
1.99053
1.85007
1.71649
1.59082
1.47382
1.36599
1.26758
1.17857
1.09874
1.02765
0.964756
0.909396
0.86085
0.818377
0.781244
0.748757
0.720274
0.695219
0.673087
0.653442
0.635908
0.620172
0.605965
0.593066
0.581288
0.570475
0.560496
0.551241
0.542618
0.534549
0.526966
0.519813
0.513041
0.506606
0.500474
0.494612
0.488993
0.483595
0.478397
0.473384
0.468541
0.463858
0.459326
0.454939
0.450693
0.446584
0.442612
0.438777
0.435082
0.431526
0.428115
0.424849
0.421731
0.418763
0.415946
0.413276
0.410752
0.408368
0.406115
0.403982
0.401956
0.40002
0.398156
0.396344
0.394561
0.392785
0.390994
0.389167
0.387284
0.385327
0.38328
0.38113
0.378868
0.376487
0.373983
0.371354
0.368602
0.365729
0.362741
0.359645
0.356447
0.353157
0.349782
0.346332
0.342816
0.339243
0.335622
0.331961
0.328269
0.324553
0.320821
0.317077
0.31333
0.309584
0.305844
0.302115
0.2984
0.294704
0.29103
0.28738
0.283757
0.280163
0.2766
0.273068
0.269571
0.266107
0.262679
0.259286
0.255928
0.252607
0.249322
0.246072
0.242858
0.239678
0.236533
0.233421
0.230341
0.227294
0.224277
0.221291
0.218335
0.215408
0.21251
0.209658
0.207045
0.358825
0.648759
0.842945
1.0106
1.17138
1.3312
1.49273
1.65753
1.82656
2.00026
2.17866
2.3614
2.54778
2.73686
2.92756
3.11867
3.30895
3.49716
3.68211
3.86269
4.0379
4.20682
4.36869
4.52283
4.6687
4.80586
4.93396
5.05275
5.16206
5.26178
5.35186
5.43229
5.50309
5.56434
5.61609
5.65843
5.69148
5.71535
5.73017
5.73608
5.73325
5.72189
5.70219
5.6744
5.63878
5.5956
5.5451
5.48752
5.42312
5.35213
5.27448
5.18981
5.09883
5.00218
4.90036
4.79373
4.68259
4.56714
4.4476
4.32435
4.19739
4.0667
3.93216
3.79345
3.64966
3.50191
3.35067
3.19556
3.03634
2.87427
2.7107
2.54638
2.38273
2.22144
2.06399
1.91193
1.76666
1.62942
1.50118
1.38269
1.27436
1.17634
1.0885
1.01047
0.941697
0.881485
0.829048
0.78356
0.744188
0.710131
0.68064
0.655037
0.632721
0.613172
0.595945
0.580667
0.567025
0.554762
0.543666
0.533561
0.524304
0.515778
0.507884
0.500543
0.493685
0.487256
0.481205
0.475493
0.470083
0.464946
0.460054
0.455385
0.45092
0.446641
0.442534
0.438588
0.434792
0.431139
0.427623
0.424241
0.420989
0.417868
0.414877
0.412018
0.409293
0.406705
0.404256
0.401949
0.399785
0.397763
0.395881
0.394136
0.392521
0.391025
0.389636
0.388339
0.387113
0.385939
0.384792
0.383649
0.382484
0.381272
0.379991
0.378619
0.377136
0.375527
0.373779
0.371882
0.369832
0.367624
0.365259
0.362741
0.360073
0.357265
0.354322
0.351256
0.348077
0.344794
0.34142
0.337964
0.334437
0.33085
0.327212
0.323532
0.319818
0.31608
0.312324
0.308557
0.304786
0.301015
0.29725
0.293496
0.289756
0.286034
0.282333
0.278657
0.275007
0.271385
0.267793
0.264233
0.260705
0.257211
0.253751
0.250325
0.246934
0.243578
0.240257
0.236969
0.233716
0.230495
0.227307
0.224151
0.221027
0.217932
0.214867
0.211831
0.208825
0.205848
0.202917
0.200231
0.353623
0.63491
0.825276
0.98945
1.1469
1.30369
1.46264
1.62541
1.79301
1.96597
2.14435
2.32781
2.51568
2.70706
2.90081
3.09573
3.29053
3.48392
3.67465
3.86153
4.04348
4.21952
4.38877
4.55049
4.70406
4.84893
4.98472
5.11108
5.22779
5.33468
5.43166
5.51867
5.59572
5.66281
5.72
5.76734
5.80493
5.83284
5.85118
5.86009
5.85971
5.85021
5.83181
5.80474
5.76926
5.72565
5.67415
5.61501
5.54853
5.47489
5.39375
5.30515
5.20979
5.10827
5.00103
4.88844
4.77074
4.64804
4.52024
4.38831
4.25206
4.11142
3.96633
3.81665
3.66208
3.50332
3.34063
3.17423
3.00456
2.83268
2.65972
2.48693
2.31581
2.14795
1.98497
1.82845
1.67983
1.54035
1.41097
1.29237
1.18489
1.08853
1.00304
0.927886
0.86237
0.805655
0.756829
0.714959
0.67913
0.648479
0.622214
0.599631
0.580114
0.563139
0.548267
0.535131
0.523434
0.512933
0.50343
0.494768
0.48682
0.479483
0.472674
0.466326
0.460385
0.454803
0.449544
0.444576
0.439871
0.435405
0.43116
0.427118
0.423263
0.419583
0.416068
0.412707
0.409495
0.406424
0.403491
0.400693
0.398028
0.395497
0.393101
0.39084
0.388718
0.386737
0.3849
0.383208
0.381662
0.380262
0.379004
0.377884
0.376893
0.37602
0.375248
0.37456
0.373934
0.373346
0.372769
0.372175
0.371537
0.370827
0.37002
0.369092
0.368023
0.366796
0.365399
0.363823
0.362062
0.360115
0.357983
0.355671
0.353187
0.350538
0.347735
0.34479
0.341713
0.338518
0.335217
0.331822
0.328344
0.324795
0.321186
0.317527
0.313828
0.310096
0.306341
0.30257
0.298789
0.295004
0.291222
0.287446
0.283682
0.279934
0.276204
0.272496
0.268812
0.265155
0.261526
0.257928
0.25436
0.250826
0.247324
0.243856
0.240422
0.237022
0.233655
0.230323
0.227023
0.223757
0.220522
0.217319
0.214147
0.211005
0.207893
0.204809
0.201756
0.198732
0.195756
0.193026
0.345881
0.618315
0.804686
0.965178
1.11888
1.272
1.42752
1.58716
1.75203
1.92271
2.09931
2.28156
2.46885
2.6603
2.85482
3.05121
3.24817
3.44442
3.63865
3.82965
4.01626
4.19744
4.37224
4.53985
4.69955
4.85075
4.99295
5.12577
5.2489
5.36213
5.46529
5.5583
5.64109
5.71366
5.77602
5.8282
5.87024
5.90221
5.92419
5.93627
5.93858
5.93127
5.91453
5.8886
5.85374
5.81019
5.75823
5.69811
5.63014
5.55438
5.47041
5.37865
5.27971
5.1741
5.06224
4.94448
4.82107
4.69218
4.55798
4.41888
4.27489
4.12599
3.97221
3.81358
3.65017
3.4824
3.31058
3.13522
2.95706
2.77713
2.59664
2.41701
2.23984
2.06684
1.89972
1.74013
1.58957
1.44928
1.32019
1.20288
1.09757
1.00412
0.922092
0.850807
0.789397
0.736881
0.692228
0.65441
0.622441
0.595408
0.572492
0.552976
0.536244
0.521782
0.509163
0.498042
0.48814
0.479236
0.471152
0.463751
0.456923
0.450584
0.444665
0.439113
0.433886
0.428948
0.424272
0.419836
0.415619
0.411607
0.407785
0.404143
0.40067
0.397358
0.394202
0.391194
0.38833
0.385609
0.383027
0.380584
0.378279
0.376115
0.374094
0.372217
0.370488
0.36891
0.367485
0.366217
0.365105
0.364148
0.363343
0.362684
0.36216
0.361757
0.361459
0.361245
0.361089
0.360963
0.360839
0.360686
0.360471
0.360166
0.359743
0.359176
0.358443
0.357528
0.356417
0.355102
0.353578
0.351844
0.349904
0.347763
0.34543
0.342915
0.340229
0.337386
0.334398
0.33128
0.328045
0.324706
0.321275
0.317766
0.31419
0.310557
0.306878
0.303162
0.299418
0.295654
0.291877
0.288093
0.284309
0.280529
0.276758
0.273001
0.269261
0.265541
0.261844
0.258173
0.254529
0.250915
0.247331
0.243778
0.240259
0.236772
0.23332
0.2299
0.226515
0.223163
0.219844
0.216559
0.213305
0.210083
0.206892
0.203732
0.200601
0.197501
0.194431
0.191393
0.188404
0.185659
0.337744
0.600512
0.78304
0.93973
1.08936
1.23834
1.38971
1.54531
1.70629
1.87329
2.04651
2.22576
2.4105
2.59992
2.79302
2.98862
3.18548
3.3823
3.57781
3.77075
3.95994
4.14428
4.32277
4.49453
4.65877
4.81482
4.96213
5.10022
5.22872
5.34736
5.45592
5.55424
5.64224
5.71984
5.78703
5.8438
5.89016
5.92614
5.9518
5.96718
5.97238
5.96755
5.95283
5.92845
5.89467
5.85172
5.79986
5.73939
5.67059
5.59331
5.50742
5.41347
5.31195
5.20333
5.088
4.96629
4.83847
4.70477
4.56541
4.42062
4.27046
4.11499
3.9543
3.78854
3.61792
3.4428
3.26358
3.08093
2.89574
2.70912
2.52241
2.3372
2.15524
1.97837
1.80843
1.64717
1.4961
1.35646
1.2291
1.11448
1.01264
0.923268
0.845747
0.779207
0.722619
0.674865
0.634804
0.601325
0.573391
0.550056
0.530493
0.513986
0.499937
0.487853
0.477333
0.468058
0.459777
0.452293
0.445455
0.439146
0.433276
0.427777
0.422595
0.417691
0.413034
0.408599
0.404367
0.400324
0.396458
0.39276
0.389221
0.385836
0.382599
0.379507
0.376557
0.373747
0.371076
0.368543
0.36615
0.363897
0.361786
0.359822
0.358007
0.356345
0.354841
0.353499
0.352322
0.351312
0.350472
0.349799
0.34929
0.348938
0.348731
0.348654
0.348688
0.34881
0.348992
0.349203
0.349411
0.349582
0.349681
0.349678
0.34954
0.349242
0.348762
0.34808
0.347184
0.346065
0.344719
0.343146
0.341351
0.339339
0.337121
0.334709
0.332114
0.329352
0.326435
0.32338
0.3202
0.316909
0.313522
0.31005
0.306507
0.302903
0.29925
0.295556
0.291832
0.288085
0.284322
0.280552
0.276779
0.273009
0.269247
0.265497
0.261764
0.25805
0.254358
0.250692
0.247052
0.243442
0.239862
0.236313
0.232798
0.229315
0.225866
0.222451
0.21907
0.215723
0.212409
0.209129
0.205882
0.202667
0.199483
0.196332
0.193212
0.190123
0.187066
0.184042
0.181069
0.178337
0.329169
0.582037
0.760972
0.914029
1.05954
1.20408
1.3508
1.50159
1.65767
1.81976
1.98815
2.16275
2.34312
2.52858
2.71819
2.91089
3.10548
3.30073
3.49538
3.68818
3.87794
4.06352
4.24389
4.41811
4.58533
4.74481
4.89591
5.0381
5.17095
5.29409
5.40725
5.51023
5.60287
5.68507
5.75675
5.81788
5.86843
5.90839
5.93777
5.95659
5.96492
5.96285
5.95053
5.92815
5.89594
5.85415
5.80302
5.74287
5.67392
5.59584
5.50901
5.41384
5.31079
5.20025
5.08261
4.95818
4.82725
4.69005
4.54682
4.39771
4.24283
4.08228
3.91617
3.74473
3.56823
3.38705
3.20169
3.01293
2.82178
2.62952
2.43765
2.24796
2.06238
1.8829
1.71151
1.55001
1.39993
1.26244
1.13826
1.02768
0.930555
0.846358
0.774258
0.713202
0.662003
0.619415
0.584206
0.555203
0.531336
0.511651
0.495329
0.481677
0.470126
0.460218
0.451587
0.44395
0.437088
0.430833
0.42506
0.419674
0.414605
0.409801
0.405224
0.400846
0.396645
0.392607
0.38872
0.384977
0.381371
0.377898
0.374556
0.371342
0.368255
0.365296
0.362464
0.35976
0.357186
0.354745
0.352439
0.350272
0.348249
0.346373
0.344651
0.343088
0.34169
0.340462
0.339409
0.338534
0.337838
0.337322
0.336981
0.336808
0.33679
0.336913
0.337155
0.33749
0.337888
0.338318
0.338743
0.339128
0.339436
0.339632
0.339685
0.339567
0.339255
0.338729
0.337976
0.336988
0.335761
0.334296
0.332598
0.330674
0.328535
0.326193
0.323662
0.320957
0.318093
0.315086
0.311949
0.308698
0.305348
0.30191
0.298399
0.294825
0.2912
0.287534
0.283835
0.280113
0.276375
0.272627
0.268877
0.26513
0.26139
0.257662
0.25395
0.250258
0.246588
0.242943
0.239325
0.235737
0.232179
0.228654
0.225161
0.221702
0.218277
0.214887
0.211531
0.20821
0.204924
0.201672
0.198453
0.195269
0.192117
0.188999
0.185914
0.182862
0.179844
0.176861
0.173931
0.171237
0.31995
0.563252
0.739028
0.88879
1.03033
1.17032
1.31202
1.45741
1.60775
1.76387
1.92615
2.09463
2.26901
2.44873
2.63299
2.82084
3.01119
3.20287
3.39467
3.58539
3.77382
3.95884
4.13937
4.31443
4.48311
4.64463
4.79826
4.94342
5.07958
5.20632
5.32331
5.43027
5.527
5.61334
5.68918
5.75442
5.80901
5.8529
5.88605
5.90846
5.92013
5.92113
5.91158
5.89164
5.86152
5.82145
5.77168
5.71254
5.64405
5.56612
5.47929
5.3839
5.28034
5.16897
5.05015
4.92418
4.79134
4.65186
4.50595
4.35376
4.19538
4.03095
3.8606
3.68457
3.50318
3.31686
3.12625
2.93222
2.73595
2.53892
2.34285
2.14974
1.96172
1.78097
1.60957
1.44935
1.30181
1.16798
1.04842
0.943205
0.851945
0.773883
0.707974
0.65298
0.607567
0.570383
0.540125
0.515585
0.495683
0.479482
0.466189
0.455154
0.445851
0.437866
0.430879
0.424645
0.418982
0.413753
0.408859
0.404229
0.39981
0.395567
0.391474
0.387514
0.383674
0.379948
0.376329
0.372816
0.369408
0.366104
0.362904
0.35981
0.356824
0.353949
0.351186
0.34854
0.346013
0.343612
0.341339
0.339201
0.337204
0.335354
0.333658
0.332123
0.330756
0.329564
0.328553
0.327727
0.327088
0.326637
0.326369
0.326279
0.326353
0.326574
0.326922
0.327368
0.327883
0.32843
0.328973
0.329474
0.329895
0.3302
0.330358
0.330338
0.330117
0.329676
0.329001
0.328083
0.326921
0.325514
0.323868
0.321993
0.319898
0.317597
0.315104
0.312435
0.309605
0.30663
0.303525
0.300306
0.296985
0.293579
0.290097
0.286554
0.282959
0.279324
0.275656
0.271965
0.268259
0.264543
0.260826
0.257111
0.253405
0.249711
0.246034
0.242377
0.238743
0.235134
0.231554
0.228003
0.224484
0.220997
0.217544
0.214126
0.210743
0.207395
0.204083
0.200807
0.197567
0.194363
0.191193
0.188059
0.18496
0.181897
0.178868
0.175875
0.172919
0.170001
0.167137
0.164503
0.31002
0.544403
0.717547
0.864499
1.00235
1.13784
1.27434
1.41387
1.55781
1.70707
1.86216
2.02325
2.19023
2.36267
2.53995
2.72124
2.90558
3.09189
3.27906
3.46592
3.6513
3.83408
4.01316
4.18755
4.35628
4.5185
4.67346
4.82046
4.95894
5.0884
5.20844
5.31871
5.41897
5.50899
5.58861
5.6577
5.71617
5.76391
5.80085
5.82694
5.84214
5.84649
5.84007
5.823
5.79547
5.75768
5.70991
5.65243
5.58505
5.50822
5.42233
5.32767
5.22458
5.1134
4.99445
4.86801
4.73433