/*--------------------------------*- C++ -*----------------------------------*\
  =========                 |
  \\      /  F ield         | OpenFOAM: The Open Source CFD Toolbox
   \\    /   O peration     | Website:  https://openfoam.org
    \\  /    A nd           | Version:  7
     \\/     M anipulation  |
\*---------------------------------------------------------------------------*/
FoamFile
{
    version     2.0;
    format      ascii;
    class       volScalarField;
    location    "200";
    object      nut;
}
// * * * * * * * * * * * * * * * * * * * * * * * * * * * * * * * * * * * * * //

dimensions      [0 2 -1 0 0 0 0];

internalField   nonuniform List<scalar> 
16900
(
0.000153111
4.37188e-05
5.28708e-05
6.26248e-05
6.96809e-05
7.58283e-05
8.12985e-05
8.62217e-05
9.06852e-05
9.47529e-05
9.84725e-05
0.000101882
0.000105011
0.000107885
0.000110525
0.000112951
0.000115178
0.000117222
0.000119095
0.00012081
0.000122377
0.000123808
0.000125111
0.000126298
0.000127374
0.000128351
0.000129235
0.000130034
0.000130754
0.000131402
0.000131985
0.000132508
0.000132978
0.000133399
0.000133775
0.000134112
0.000134413
0.000134682
0.000134922
0.000135136
0.000135326
0.000135494
0.000135641
0.00013577
0.00013588
0.000135973
0.00013605
0.00013611
0.000136155
0.000136184
0.000136199
0.000136201
0.000136192
0.000136176
0.000136148
0.000136082
0.000135977
0.00013583
0.000135638
0.000135398
0.000135108
0.000134763
0.000134361
0.000133897
0.000133368
0.000132771
0.0001321
0.000131352
0.000130522
0.000129609
0.000128606
0.000127513
0.000126325
0.000125042
0.000123662
0.000122186
0.000120614
0.000118948
0.000117191
0.000115349
0.000113426
0.000111428
0.000109357
0.000107218
0.00010502
0.000102747
0.000100425
9.80967e-05
9.60216e-05
9.34333e-05
9.18496e-05
9.06803e-05
8.96263e-05
8.86336e-05
8.76863e-05
8.67777e-05
8.59045e-05
8.50647e-05
8.42572e-05
8.34812e-05
8.27361e-05
8.2021e-05
8.13354e-05
8.06784e-05
8.0049e-05
7.94464e-05
7.88694e-05
7.83171e-05
7.77885e-05
7.72824e-05
7.67977e-05
7.63335e-05
7.58887e-05
7.54622e-05
7.50532e-05
7.46608e-05
7.42841e-05
7.39222e-05
7.35745e-05
7.32403e-05
7.29188e-05
7.26095e-05
7.23119e-05
7.20254e-05
7.17497e-05
7.14842e-05
7.12288e-05
7.09829e-05
7.07463e-05
7.05187e-05
7.02999e-05
7.00895e-05
6.98875e-05
6.96934e-05
6.95071e-05
6.93284e-05
6.91569e-05
6.89925e-05
6.88348e-05
6.86836e-05
6.85386e-05
6.83994e-05
6.82657e-05
6.81373e-05
6.80136e-05
6.78945e-05
6.77795e-05
6.76683e-05
6.75605e-05
6.74559e-05
6.7354e-05
6.72547e-05
6.71576e-05
6.70625e-05
6.69692e-05
6.68774e-05
6.6787e-05
6.66978e-05
6.66098e-05
6.65228e-05
6.64368e-05
6.63517e-05
6.62675e-05
6.61842e-05
6.61018e-05
6.60202e-05
6.59397e-05
6.58602e-05
6.57817e-05
6.57043e-05
6.56282e-05
6.55533e-05
6.54797e-05
6.54075e-05
6.53369e-05
6.52679e-05
6.52005e-05
6.51349e-05
6.50711e-05
6.50092e-05
6.49493e-05
6.48914e-05
6.48357e-05
6.47821e-05
6.47307e-05
6.46816e-05
6.46347e-05
6.45902e-05
6.45481e-05
6.45083e-05
6.44711e-05
6.44363e-05
6.44042e-05
6.43748e-05
6.43482e-05
6.43246e-05
6.43043e-05
6.42875e-05
6.42745e-05
6.42687e-05
3.73474e-05
0.000126459
0.000175049
0.000209135
0.000241329
0.000272844
0.000303866
0.000334434
0.00036449
0.000393923
0.000422591
0.000450351
0.000477061
0.000502599
0.000526861
0.000549766
0.000571255
0.000591293
0.000609859
0.000626955
0.000642589
0.000656791
0.00066959
0.000681036
0.000691176
0.000700069
0.000707778
0.000714364
0.000719898
0.000724452
0.0007281
0.00073092
0.000732991
0.000734394
0.000735211
0.000735525
0.00073542
0.000734978
0.00073428
0.000733407
0.000732435
0.000731436
0.00073048
0.000729628
0.000728935
0.000728448
0.000728204
0.00072823
0.000728541
0.000729132
0.000729986
0.000731057
0.000732272
0.000733394
0.000734563
0.000736063
0.000737886
0.000740006
0.000742386
0.000744981
0.000747742
0.000750609
0.000753516
0.000756392
0.000759158
0.000761734
0.000764032
0.000765968
0.000767454
0.000768405
0.000768745
0.0007684
0.00076731
0.000765426
0.000762712
0.000759147
0.000754727
0.000749462
0.000743376
0.000736507
0.000728898
0.000720585
0.0007116
0.000701936
0.000691622
0.000680609
0.000668999
0.000656476
0.000643338
0.000628993
0.000613901
0.000598668
0.000583566
0.000568728
0.000554226
0.000540098
0.000526365
0.000513038
0.000500121
0.000487616
0.000475518
0.000463825
0.000452529
0.000441624
0.000431099
0.000420948
0.000411159
0.000401725
0.000392633
0.000383876
0.000375443
0.000367325
0.000359512
0.000351995
0.000344766
0.000337815
0.000331135
0.000324717
0.000318554
0.000312638
0.000306961
0.000301518
0.000296299
0.000291299
0.000286512
0.000281929
0.000277545
0.000273352
0.000269344
0.000265515
0.000261857
0.000258364
0.000255028
0.000251842
0.000248799
0.000245892
0.000243112
0.000240453
0.000237907
0.000235467
0.000233124
0.000230871
0.000228702
0.000226608
0.000224583
0.000222621
0.000220715
0.00021886
0.000217051
0.000215282
0.000213549
0.000211849
0.000210179
0.000208534
0.000206914
0.000205316
0.000203739
0.000202182
0.000200643
0.000199123
0.000197621
0.000196137
0.000194672
0.000193224
0.000191796
0.000190386
0.000188996
0.000187625
0.000186275
0.000184946
0.00018364
0.000182358
0.000181102
0.000179874
0.000178673
0.000177501
0.000176357
0.000175243
0.000174158
0.000173104
0.000172079
0.000171083
0.000170117
0.000169177
0.000168261
0.000167369
0.000166502
0.000165658
0.000164839
0.000164044
0.000163273
0.000162526
0.000161804
0.000161106
0.000160433
0.000159785
0.000159162
0.000158565
0.000157994
0.000157477
4.83175e-05
0.000219648
0.000298992
0.000362049
0.000424156
0.000486734
0.000549689
0.000612683
0.000675299
0.000737087
0.00079761
0.000856463
0.000913291
0.000967795
0.00101973
0.00106892
0.00111522
0.00115855
0.00119887
0.00123614
0.00127041
0.0013017
0.00133008
0.00135562
0.00137843
0.0013986
0.00141625
0.00143149
0.00144444
0.00145524
0.00146401
0.00147088
0.00147599
0.00147947
0.00148145
0.00148206
0.00148143
0.0014797
0.00147698
0.0014734
0.00146906
0.00146409
0.00145858
0.00145263
0.00144632
0.00143972
0.00143291
0.00142594
0.00141885
0.00141166
0.0014044
0.00139707
0.00138967
0.00138195
0.00137433
0.00136688
0.00135961
0.00135249
0.00134548
0.00133854
0.0013316
0.0013246
0.00131746
0.00131012
0.00130248
0.00129446
0.00128597
0.00127694
0.00126729
0.00125695
0.00124587
0.001234
0.00122133
0.00120784
0.00119354
0.00117846
0.00116264
0.00114614
0.00112902
0.00111135
0.00109319
0.00107459
0.00105558
0.00103617
0.00101636
0.000996079
0.000975294
0.000954943
0.000935512
0.000916596
0.000897986
0.000879668
0.000861712
0.000844182
0.000827119
0.000810545
0.000794464
0.000778873
0.000763764
0.000749125
0.000734942
0.0007212
0.000707885
0.000694982
0.000682478
0.000670358
0.00065861
0.000647221
0.00063618
0.000625476
0.000615098
0.000605037
0.000595285
0.000585833
0.000576674
0.000567801
0.000559209
0.000550891
0.000542843
0.000535059
0.000527535
0.000520267
0.00051325
0.000506482
0.000499958
0.000493673
0.000487625
0.000481808
0.000476217
0.000470848
0.000465695
0.000460751
0.000456009
0.000451463
0.000447103
0.00044292
0.000438906
0.000435048
0.000431338
0.000427762
0.000424311
0.00042097
0.000417729
0.000414576
0.000411498
0.000408485
0.000405526
0.000402611
0.00039973
0.000396876
0.00039404
0.000391218
0.000388403
0.000385591
0.00038278
0.000379967
0.00037715
0.00037433
0.000371505
0.000368678
0.000365849
0.000363019
0.000360191
0.000357366
0.000354548
0.000351737
0.000348938
0.000346152
0.000343381
0.000340628
0.000337896
0.000335187
0.000332504
0.000329848
0.000327222
0.000324627
0.000322065
0.000319538
0.000317046
0.00031459
0.000312172
0.000309793
0.000307452
0.00030515
0.000302887
0.000300663
0.000298479
0.000296334
0.000294228
0.000292164
0.00029014
0.000288158
0.000286219
0.000284323
0.000282472
0.000280667
0.000278909
0.000277201
0.000275547
0.000274033
5.55449e-05
0.000292109
0.000410211
0.000501026
0.00058961
0.000679119
0.000769386
0.000859733
0.000949414
0.00103771
0.00112396
0.0012076
0.00128815
0.00136521
0.0014385
0.00150776
0.00157285
0.00163367
0.00169016
0.00174232
0.00179019
0.00183383
0.00187333
0.00190879
0.00194036
0.00196817
0.00199238
0.00201313
0.00203061
0.00204496
0.00205636
0.00206498
0.00207099
0.00207454
0.0020758
0.00207494
0.0020721
0.00206744
0.00206111
0.00205324
0.00204397
0.00203343
0.00202174
0.00200902
0.00199537
0.00198089
0.00196568
0.00194981
0.00193336
0.0019164
0.00189899
0.00188118
0.00186301
0.00184438
0.00182557
0.00180666
0.00178767
0.0017686
0.00174944
0.00173017
0.00171075
0.00169116
0.00167134
0.00165125
0.00163081
0.00161
0.00158874
0.00156699
0.00154472
0.00152191
0.00149853
0.00147459
0.00145013
0.00142518
0.0013998
0.00137408
0.0013481
0.00132196
0.00129575
0.00126955
0.00124344
0.00121743
0.00119156
0.00116582
0.00113997
0.00111464
0.00109055
0.00106807
0.00104722
0.00102767
0.0010091
0.000991318
0.000974234
0.000957813
0.000942027
0.000926851
0.000912253
0.000898201
0.000884662
0.000871604
0.000858997
0.000846813
0.000835026
0.000823612
0.000812551
0.000801823
0.000791412
0.000781303
0.000771483
0.000761939
0.000752663
0.000743646
0.000734879
0.000726358
0.000718078
0.000710033
0.000702221
0.00069464
0.000687287
0.000680162
0.000673265
0.000666594
0.000660149
0.000653932
0.000647941
0.000642178
0.00063664
0.000631328
0.000626239
0.000621371
0.000616721
0.000612283
0.000608053
0.000604021
0.000600181
0.00059652
0.000593028
0.000589692
0.000586495
0.000583424
0.000580461
0.000577589
0.000574791
0.000572048
0.000569343
0.000566659
0.00056398
0.000561292
0.000558581
0.000555834
0.000553042
0.000550197
0.000547292
0.000544322
0.000541284
0.000538176
0.000534999
0.000531754
0.000528443
0.00052507
0.000521639
0.000518155
0.000514622
0.000511046
0.000507433
0.000503789
0.000500119
0.000496429
0.000492724
0.00048901
0.000485291
0.000481573
0.00047786
0.000474156
0.000470465
0.00046679
0.000463135
0.000459504
0.000455897
0.000452318
0.00044877
0.000445253
0.000441771
0.000438323
0.000434912
0.000431539
0.000428205
0.000424912
0.000421659
0.00041845
0.000415285
0.000412166
0.000409095
0.000406072
0.000403101
0.000400184
0.000397322
0.000394519
0.000391785
0.000389282
6.02698e-05
0.000348364
0.000505401
0.000621684
0.000732612
0.000843997
0.000956008
0.00106783
0.00117851
0.00128719
0.00139308
0.00149555
0.00159405
0.00168817
0.00177756
0.00186199
0.00194128
0.00201533
0.00208408
0.00214754
0.00220575
0.00225879
0.00230676
0.0023498
0.00238805
0.00242168
0.00245087
0.00247579
0.00249665
0.00251362
0.0025269
0.00253668
0.00254314
0.00254648
0.00254686
0.00254448
0.00253949
0.00253206
0.00252236
0.00251053
0.00249673
0.0024811
0.00246377
0.00244487
0.00242452
0.00240283
0.00237992
0.00235587
0.0023308
0.00230477
0.00227788
0.00225019
0.00222176
0.00219255
0.00216282
0.00213266
0.00210212
0.00207124
0.00204005
0.00200854
0.00197672
0.00194458
0.00191211
0.00187929
0.00184608
0.00181248
0.00177847
0.00174402
0.00170917
0.0016739
0.00163827
0.00160232
0.00156615
0.00152985
0.00149354
0.00145736
0.00142146
0.00138597
0.00135104
0.00131675
0.00128323
0.00125046
0.00121846
0.00118724
0.00115776
0.00113042
0.00110538
0.00108268
0.00106216
0.00104348
0.00102631
0.00101038
0.000995493
0.000981534
0.000968402
0.000956011
0.000944287
0.00093316
0.000922567
0.000912453
0.000902767
0.000893465
0.000884508
0.000875864
0.000867504
0.000859403
0.000851542
0.000843903
0.000836471
0.000829237
0.00082219
0.000815323
0.000808632
0.000802114
0.000795766
0.000789588
0.00078358
0.000777745
0.000772085
0.000766603
0.000761304
0.000756192
0.000751272
0.000746548
0.000742025
0.000737708
0.000733601
0.000729707
0.000726027
0.000722562
0.000719312
0.000716273
0.00071344
0.000710805
0.00070836
0.000706092
0.000703986
0.000702024
0.000700188
0.000698455
0.000696804
0.000695209
0.000693645
0.000692087
0.000690511
0.000688893
0.000687211
0.000685443
0.000683571
0.000681581
0.000679458
0.000677193
0.000674778
0.000672208
0.000669482
0.0006666
0.000663564
0.000660378
0.00065705
0.000653584
0.000649991
0.000646279
0.000642456
0.000638534
0.000634522
0.00063043
0.000626267
0.000622042
0.000617765
0.000613445
0.000609089
0.000604705
0.0006003
0.00059588
0.000591453
0.000587023
0.000582595
0.000578174
0.000573765
0.000569371
0.000564995
0.000560641
0.000556312
0.000552009
0.000547736
0.000543495
0.000539287
0.000535115
0.00053098
0.000526885
0.000522831
0.000518821
0.000514856
0.000510939
0.000507072
0.000503257
0.000499498
0.000495797
0.000492172
0.000488872
6.3662e-05
0.000390661
0.000583769
0.00072286
0.000852375
0.000981169
0.00111012
0.00123849
0.00136528
0.00148956
0.00161051
0.00172746
0.00183985
0.00194725
0.0020493
0.00214576
0.00223642
0.00232118
0.00239998
0.0024728
0.00253968
0.0026007
0.00265597
0.00270561
0.00274979
0.00278868
0.00282246
0.00285133
0.00287549
0.00289513
0.00291047
0.00292171
0.00292904
0.00293265
0.00293275
0.0029295
0.0029231
0.00291372
0.00290152
0.00288666
0.00286931
0.00284962
0.00282772
0.00280375
0.00277784
0.00275012
0.0027207
0.00268968
0.00265717
0.00262326
0.00258803
0.00255158
0.00251393
0.00247509
0.00243535
0.00239481
0.00235357
0.00231168
0.0022692
0.00222614
0.00218255
0.00213843
0.00209381
0.0020487
0.00200311
0.00195705
0.00191052
0.00186357
0.00181624
0.00176859
0.0017207
0.0016727
0.00162472
0.00157692
0.00152949
0.00148264
0.00143657
0.00139146
0.00134758
0.00130493
0.00126391
0.001224
0.00118677
0.00115224
0.00112071
0.0010923
0.00106695
0.00104452
0.00102476
0.00100734
0.000991903
0.000978125
0.000965759
0.000954605
0.000944495
0.000935286
0.000926851
0.000919082
0.000911881
0.000905165
0.00089886
0.000892905
0.000887245
0.000881835
0.000876639
0.000871625
0.000866769
0.00086205
0.000857452
0.000852965
0.000848579
0.00084429
0.000840094
0.00083599
0.000831982
0.000828071
0.000824264
0.000820565
0.000816982
0.000813525
0.000810201
0.000807022
0.000803996
0.000801135
0.000798448
0.000795945
0.000793634
0.000791524
0.00078962
0.000787926
0.000786444
0.000785173
0.000784108
0.000783243
0.000782565
0.00078206
0.00078171
0.00078149
0.000781377
0.000781341
0.00078135
0.000781373
0.000781375
0.000781323
0.000781183
0.000780924
0.000780516
0.000779934
0.000779153
0.000778155
0.000776924
0.000775449
0.000773724
0.000771744
0.00076951
0.000767025
0.000764296
0.000761331
0.000758141
0.000754737
0.000751134
0.000747345
0.000743384
0.000739267
0.000735007
0.00073062
0.000726119
0.000721518
0.000716828
0.000712063
0.000707233
0.00070235
0.000697422
0.000692459
0.000687469
0.000682459
0.000677437
0.000672409
0.00066738
0.000662355
0.000657339
0.000652337
0.000647351
0.000642385
0.000637442
0.000632526
0.000627637
0.00062278
0.000617956
0.000613168
0.000608417
0.000603706
0.000599037
0.000594412
0.000589834
0.000585306
0.000580828
0.000576406
0.000572064
0.000568141
6.61126e-05
0.000420901
0.00064585
0.000805001
0.00094984
0.00109234
0.00123435
0.00137538
0.00151448
0.00165075
0.00178336
0.00191166
0.00203507
0.00215315
0.00226555
0.00237197
0.00247221
0.00256613
0.00265364
0.00273471
0.00280937
0.00287766
0.00293969
0.00299557
0.00304545
0.00308951
0.00312793
0.0031609
0.00318862
0.00321129
0.00322914
0.00324235
0.00325113
0.00325569
0.00325621
0.00325289
0.00324592
0.00323546
0.00322169
0.00320478
0.00318489
0.00316217
0.00313678
0.00310884
0.00307851
0.0030459
0.00301113
0.00297431
0.00293554
0.00289492
0.00285254
0.00280846
0.00276267
0.00271529
0.00266659
0.00261671
0.00256576
0.00251382
0.00246095
0.0024072
0.00235263
0.00229728
0.00224119
0.00218439
0.00212695
0.0020689
0.00201027
0.00195114
0.00189161
0.0018318
0.00177181
0.00171184
0.00165209
0.00159281
0.00153418
0.0014766
0.00142029
0.00136538
0.00131259
0.00126118
0.00121326
0.00116862
0.00112778
0.0010908
0.00105772
0.00102846
0.00100286
0.000980695
0.000961663
0.000945409
0.000931562
0.000919777
0.000909753
0.000901227
0.000893974
0.000887796
0.000882522
0.000878001
0.000874103
0.000870714
0.00086774
0.000865096
0.000862714
0.000860537
0.000858516
0.000856612
0.000854796
0.000853042
0.000851333
0.000849655
0.000847999
0.000846361
0.00084474
0.000843137
0.000841556
0.000840004
0.00083849
0.000837024
0.000835618
0.000834286
0.00083304
0.000831898
0.000830873
0.000829983
0.000829241
0.000828664
0.000828265
0.000828057
0.000828049
0.00082825
0.000828663
0.000829289
0.000830125
0.000831162
0.000832387
0.000833781
0.00083532
0.000836975
0.000838713
0.000840496
0.000842283
0.000844032
0.000845699
0.00084724
0.000848613
0.000849778
0.000850698
0.000851343
0.000851683
0.000851698
0.000851372
0.000850692
0.000849654
0.000848258
0.000846507
0.000844409
0.000841976
0.000839221
0.000836162
0.000832815
0.000829201
0.000825338
0.000821247
0.000816948
0.000812461
0.000807804
0.000802996
0.000798054
0.000792994
0.000787832
0.000782582
0.000777258
0.000771871
0.000766433
0.000760955
0.000755444
0.00074991
0.000744361
0.000738803
0.000733242
0.000727684
0.000722134
0.000716595
0.000711073
0.00070557
0.00070009
0.000694635
0.000689208
0.000683812
0.000678448
0.00067312
0.000667828
0.000662576
0.000657364
0.000652197
0.000647074
0.000641999
0.000636976
0.000632039
0.000627609
6.78173e-05
0.000440939
0.000692948
0.000869426
0.00102678
0.00117994
0.00133188
0.00148247
0.00163094
0.00177641
0.00191812
0.0020554
0.0021877
0.00231456
0.00243559
0.00255049
0.00265901
0.00276099
0.0028563
0.00294487
0.00302669
0.0031018
0.00317026
0.00323218
0.00328768
0.00333693
0.00338009
0.00341736
0.00344892
0.00347498
0.00349574
0.00351141
0.00352219
0.00352829
0.00352988
0.00352718
0.00352035
0.00350959
0.00349506
0.00347693
0.00345538
0.00343054
0.00340259
0.00337165
0.00333787
0.00330137
0.00326227
0.00322069
0.0031767
0.00313042
0.00308193
0.0030313
0.00297839
0.0029235
0.00286687
0.00280866
0.00274899
0.00268796
0.00262564
0.0025621
0.00249741
0.00243163
0.0023648
0.00229701
0.00222834
0.00215888
0.00208868
0.00201785
0.00194653
0.00187493
0.00180321
0.00173156
0.00166031
0.00158986
0.00152025
0.0014522
0.00138607
0.00132132
0.00126064
0.00120353
0.0011508
0.00110257
0.001059
0.00102008
0.000985725
0.000955775
0.00092999
0.000908079
0.000889699
0.000874472
0.000862012
0.000851947
0.000843936
0.000837673
0.000832886
0.000829336
0.000826811
0.000825128
0.000824129
0.000823675
0.00082365
0.000823954
0.000824504
0.000825231
0.000826077
0.000826996
0.000827952
0.000828915
0.000829865
0.000830785
0.000831666
0.000832504
0.000833296
0.000834046
0.00083476
0.000835447
0.000836117
0.000836785
0.000837467
0.000838179
0.000838941
0.000839771
0.000840691
0.000841722
0.000842883
0.000844196
0.000845678
0.000847347
0.000849217
0.000851299
0.000853599
0.000856119
0.000858856
0.000861799
0.000864932
0.000868231
0.000871667
0.000875201
0.000878791
0.00088239
0.000885946
0.000889404
0.00089271
0.000895809
0.00089865
0.000901185
0.00090337
0.000905169
0.00090655
0.000907491
0.000907977
0.000907997
0.00090755
0.00090664
0.000905275
0.00090347
0.000901243
0.000898614
0.000895605
0.000892243
0.000888551
0.000884556
0.000880284
0.00087576
0.000871008
0.000866052
0.000860915
0.000855618
0.000850181
0.000844621
0.000838956
0.000833202
0.000827373
0.000821483
0.000815542
0.000809563
0.000803554
0.000797524
0.000791481
0.000785432
0.000779383
0.00077334
0.000767307
0.000761289
0.000755288
0.00074931
0.000743356
0.000737429
0.000731531
0.000725665
0.000719832
0.000714035
0.000708275
0.000702554
0.000696874
0.000691236
0.000685643
0.0006801
0.000674649
0.000669786
6.89122e-05
0.000452522
0.000726691
0.000917883
0.00108534
0.00124664
0.00140595
0.00156364
0.0017191
0.00187157
0.00202032
0.00216471
0.00230419
0.00243829
0.00256659
0.00268875
0.0028045
0.00291361
0.00301593
0.00311134
0.0031998
0.00328131
0.00335589
0.00342363
0.00348463
0.00353903
0.00358698
0.00362866
0.00366425
0.00369394
0.00371794
0.00373643
0.00374963
0.00375772
0.00376089
0.00375935
0.00375326
0.00374282
0.00372818
0.00370953
0.00368703
0.00366083
0.00363108
0.00359793
0.00356153
0.00352198
0.00347942
0.00343394
0.00338564
0.0033346
0.00328091
0.0032246
0.00316551
0.00310404
0.00304044
0.00297484
0.00290738
0.00283815
0.00276726
0.00269479
0.00262081
0.00254538
0.00246857
0.00239048
0.00231123
0.00223097
0.0021498
0.00206781
0.00198518
0.00190226
0.00181935
0.00173651
0.00165412
0.00157317
0.001493
0.00141499
0.0013406
0.00126977
0.00120355
0.00114213
0.00108591
0.00103499
0.000989425
0.000949143
0.000913982
0.000883706
0.000858018
0.000836571
0.000818977
0.000804829
0.000793714
0.000785233
0.000779012
0.000774713
0.00077203
0.000770692
0.000770462
0.000771131
0.000772521
0.000774478
0.000776871
0.000779591
0.000782544
0.000785654
0.000788858
0.000792107
0.000795358
0.000798582
0.000801754
0.000804858
0.000807882
0.000810823
0.000813678
0.000816452
0.00081915
0.000821784
0.000824366
0.000826913
0.000829444
0.000831977
0.000834536
0.000837144
0.000839826
0.000842607
0.000845512
0.000848566
0.00085179
0.000855208
0.000858835
0.000862686
0.000866768
0.000871085
0.000875632
0.000880395
0.000885354
0.000890479
0.000895733
0.000901068
0.00090643
0.000911761
0.000916996
0.000922069
0.000926912
0.000931461
0.000935654
0.000939435
0.000942755
0.000945572
0.000947856
0.000949582
0.000950737
0.000951315
0.000951319
0.000950759
0.00094965
0.000948013
0.000945873
0.000943259
0.000940199
0.000936726
0.000932872
0.000928669
0.000924147
0.000919338
0.000914271
0.000908974
0.000903472
0.000897792
0.000891955
0.000885982
0.000879893
0.000873707
0.000867438
0.000861101
0.000854711
0.000848278
0.000841813
0.000835326
0.000828826
0.000822319
0.000815812
0.000809311
0.000802822
0.000796347
0.000789892
0.00078346
0.000777053
0.000770673
0.000764323
0.000758005
0.000751721
0.000745471
0.000739257
0.000733082
0.000726946
0.000720851
0.000714799
0.000708795
0.00070289
0.000697646
6.94997e-05
0.000457212
0.00074881
0.000952263
0.00112774
0.00129511
0.0014597
0.00162244
0.00178295
0.00194059
0.00209467
0.0022446
0.0023898
0.0025298
0.00266415
0.00279247
0.00291445
0.00302982
0.00313838
0.00323997
0.0033345
0.00342192
0.00350225
0.00357551
0.0036418
0.00370122
0.00375391
0.00380001
0.00383969
0.00387315
0.00390056
0.00392211
0.003938
0.00394842
0.00395355
0.00395357
0.00394868
0.00393904
0.00392482
0.00390619
0.00388332
0.00385636
0.00382546
0.00379076
0.0037524
0.00371051
0.0036652
0.00361656
0.00356469
0.00350966
0.00345153
0.00339026
0.00332582
0.00325861
0.00318885
0.0031167
0.00304226
0.00296565
0.00288697
0.00280633
0.00272381
0.00263947
0.00255339
0.00246565
0.00237639
0.0022859
0.00219436
0.00210182
0.00200836
0.0019146
0.00182115
0.0017278
0.00163455
0.00154414
0.00145612
0.00137156
0.00129127
0.00121574
0.00114554
0.00108099
0.00102233
0.000969645
0.000922915
0.000882008
0.000846701
0.000816694
0.000791628
0.000771098
0.000754668
0.000741891
0.000732316
0.000725514
0.000721083
0.000718652
0.00071789
0.000718506
0.00072024
0.000722873
0.000726212
0.000730098
0.000734394
0.000738986
0.000743782
0.000748704
0.00075369
0.00075869
0.000763666
0.000768587
0.000773431
0.000778183
0.000782833
0.000787377
0.000791816
0.000796154
0.000800399
0.000804563
0.000808662
0.000812712
0.000816735
0.000820752
0.00082479
0.000828874
0.000833033
0.000837295
0.000841689
0.000846243
0.000850983
0.000855934
0.000861116
0.000866544
0.000872228
0.00087817
0.000884362
0.000890789
0.000897423
0.000904228
0.000911156
0.000918149
0.000925142
0.000932061
0.000938828
0.000945365
0.000951592
0.000957431
0.000962813
0.000967674
0.00097196
0.000975628
0.000978643
0.000980986
0.000982646
0.000983622
0.000983923
0.000983565
0.000982572
0.000980973
0.000978799
0.000976088
0.000972875
0.0009692
0.000965101
0.000960616
0.000955781
0.000950632
0.000945202
0.000939524
0.000933627
0.000927538
0.000921283
0.000914885
0.000908365
0.000901744
0.000895037
0.000888262
0.000881432
0.000874561
0.000867658
0.000860735
0.000853801
0.000846862
0.000839926
0.000832999
0.000826086
0.00081919
0.000812317
0.000805469
0.000798648
0.000791856
0.000785097
0.00077837
0.000771678
0.000765021
0.000758401
0.000751819
0.000745276
0.000738774
0.000732314
0.000725903
0.000719598
0.000714016
6.9662e-05
0.00045638
0.000760993
0.00097447
0.00115622
0.00132792
0.00149607
0.00166216
0.00182608
0.00198731
0.00214524
0.00229928
0.00244888
0.00259353
0.00273276
0.00286617
0.00299339
0.00311411
0.00322809
0.00333513
0.00343509
0.00352789
0.00361349
0.00369189
0.00376316
0.00382736
0.0038846
0.00393502
0.00397876
0.004016
0.00404689
0.00407163
0.00409038
0.00410334
0.00411068
0.00411257
0.0041092
0.00410074
0.00408734
0.00406918
0.0040464
0.00401916
0.00398762
0.00395191
0.00391216
0.0038685
0.00382103
0.00376985
0.00371503
0.00365664
0.00359469
0.0035291
0.00345999
0.00338774
0.00331254
0.00323455
0.00315385
0.00307053
0.00298472
0.00289656
0.00280613
0.00271352
0.0026188
0.00252201
0.00242324
0.002323
0.00222164
0.00211921
0.00201541
0.00191114
0.00180797
0.00170581
0.00160533
0.00150786
0.00141389
0.00132426
0.00123967
0.00116067
0.00108771
0.00102111
0.000961041
0.000907548
0.000860553
0.000819867
0.000785202
0.000756196
0.000732424
0.00071342
0.000698693
0.000687746
0.000680088
0.000675253
0.000672804
0.000672345
0.000673521
0.00067602
0.000679573
0.000683949
0.000688953
0.000694423
0.000700225
0.000706252
0.000712414
0.000718641
0.00072488
0.000731086
0.000737229
0.000743286
0.000749239
0.000755079
0.000760802
0.000766408
0.0007719
0.000777287
0.00078258
0.000787793
0.000792944
0.000798051
0.000803139
0.000808232
0.000813358
0.000818546
0.000823826
0.00082923
0.000834791
0.000840538
0.000846501
0.000852707
0.000859178
0.000865932
0.000872976
0.000880311
0.000887928
0.000895806
0.00090391
0.000912195
0.000920602
0.000929062
0.000937494
0.000945812
0.000953922
0.000961733
0.000969151
0.000976089
0.000982467
0.000988215
0.000993277
0.000997605
0.00100117
0.00100395
0.00100594
0.00100716
0.0010076
0.0010073
0.00100629
0.0010046
0.00100229
0.000999376
0.00099592
0.000991964
0.00098755
0.000982723
0.000977523
0.000971992
0.000966166
0.000960079
0.000953765
0.000947254
0.000940572
0.000933745
0.000926796
0.000919745
0.000912611
0.000905411
0.000898158
0.000890867
0.00088355
0.000876216
0.000868874
0.000861533
0.000854199
0.000846878
0.000839576
0.000832296
0.000825041
0.000817815
0.000810621
0.000803459
0.000796332
0.00078924
0.000782185
0.000775167
0.000768187
0.000761247
0.000754346
0.000747487
0.000740672
0.000733908
0.000727256
0.000721378
6.94652e-05
0.000451202
0.000764837
0.000986335
0.00117289
0.00134752
0.00151781
0.0016858
0.0018517
0.00201513
0.00217554
0.00233238
0.00248509
0.00263317
0.00277612
0.00291351
0.00304493
0.00317006
0.00328858
0.00340027
0.00350494
0.00360247
0.00369279
0.00377585
0.00385169
0.00392034
0.00398188
0.00403641
0.00408408
0.00412501
0.00415937
0.00418731
0.004209
0.00422462
0.00423434
0.00423831
0.00423671
0.00422969
0.00421742
0.00420006
0.00417774
0.00415063
0.00411886
0.00408257
0.00404189
0.00399694
0.0039478
0.00389457
0.00383731
0.00377607
0.00371083
0.00364143
0.00356822
0.00349151
0.00341148
0.00332824
0.00324186
0.00315242
0.00305998
0.00296482
0.00286702
0.00276665
0.00266382
0.00255857
0.00245063
0.00234099
0.00223034
0.00211876
0.00200651
0.00189451
0.00178371
0.00167469
0.0015683
0.00146548
0.00136698
0.00127359
0.00118596
0.00110463
0.00103002
0.000962413
0.000901946
0.000848614
0.000802282
0.000762695
0.000729503
0.000702272
0.000680509
0.000663686
0.000651253
0.000642657
0.000637365
0.000634866
0.000634692
0.000636416
0.000639662
0.000644102
0.000649457
0.000655491
0.000662009
0.000668856
0.000675903
0.000683053
0.000690229
0.000697373
0.000704443
0.00071141
0.000718254
0.000724962
0.000731531
0.000737958
0.00074425
0.000750413
0.000756458
0.000762398
0.000768251
0.000774035
0.000779771
0.000785482
0.000791195
0.000796937
0.000802738
0.000808631
0.000814649
0.000820827
0.000827198
0.000833797
0.000840656
0.000847803
0.000855261
0.000863049
0.000871174
0.000879634
0.000888417
0.000897495
0.000906827
0.000916355
0.000926011
0.00093571
0.000945358
0.000954853
0.000964087
0.000972953
0.000981347
0.00098917
0.000996334
0.00100276
0.0010084
0.0010132
0.00101712
0.00102017
0.00102233
0.00102362
0.00102406
0.00102369
0.00102254
0.00102066
0.0010181
0.00101491
0.00101114
0.00100684
0.00100205
0.000996842
0.000991243
0.000985302
0.000979058
0.00097255
0.000965812
0.000958876
0.000951771
0.000944523
0.000937156
0.000929691
0.000922148
0.000914544
0.000906893
0.00089921
0.000891506
0.000883791
0.000876076
0.000868367
0.000860671
0.000852994
0.00084534
0.000837715
0.00083012
0.00082256
0.000815034
0.000807546
0.000800097
0.000792686
0.000785316
0.000777986
0.000770696
0.000763449
0.000756244
0.000749084
0.00074197
0.00073491
0.00072797
0.000721843
6.8963e-05
0.000442665
0.000761793
0.000989594
0.0011798
0.00135625
0.00152748
0.00169613
0.00186273
0.00202705
0.00218864
0.00234698
0.00250154
0.0026518
0.00279727
0.00293749
0.00307204
0.00320054
0.00332266
0.00343813
0.00354672
0.00364827
0.00374267
0.00382984
0.00390976
0.00398245
0.00404794
0.00410633
0.0041577
0.00420217
0.00423989
0.00427099
0.00429563
0.00431395
0.00432613
0.0043323
0.00433263
0.00432727
0.00431636
0.00430005
0.00427849
0.00425181
0.00422015
0.00418364
0.0041424
0.00409653
0.00404613
0.00399126
0.00393196
0.00386826
0.00380009
0.00372738
0.00365055
0.00356985
0.00348545
0.00339745
0.0033059
0.0032108
0.00311206
0.0030103
0.00290551
0.00279779
0.00268729
0.00257419
0.00245866
0.00234142
0.00222303
0.00210396
0.00198476
0.00186632
0.00174951
0.00163513
0.00152409
0.00141727
0.00131548
0.00121949
0.00112995
0.00104738
0.000972193
0.000904621
0.000844761
0.000792554
0.000747802
0.000710184
0.000679274
0.000654569
0.000635507
0.000621492
0.000611913
0.000606165
0.000603663
0.000603856
0.00060624
0.000610361
0.000615822
0.000622283
0.000629458
0.000637111
0.000645053
0.000653135
0.000661244
0.000669295
0.000677228
0.000685002
0.00069259
0.00069998
0.000707167
0.000714154
0.00072095
0.000727567
0.000734021
0.000740328
0.00074651
0.000752587
0.000758584
0.000764524
0.000770435
0.000776344
0.000782282
0.000788281
0.000794375
0.000800598
0.000806989
0.000813583
0.000820419
0.000827533
0.000834959
0.000842729
0.000850866
0.000859388
0.000868304
0.000877607
0.000887281
0.000897292
0.000907589
0.000918106
0.00092876
0.000939452
0.000950074