/*--------------------------------*- C++ -*----------------------------------*\
  =========                 |
  \\      /  F ield         | OpenFOAM: The Open Source CFD Toolbox
   \\    /   O peration     | Website:  https://openfoam.org
    \\  /    A nd           | Version:  7
     \\/     M anipulation  |
\*---------------------------------------------------------------------------*/
FoamFile
{
    version     2.0;
    format      ascii;
    class       volScalarField;
    location    "200";
    object      p;
}
// * * * * * * * * * * * * * * * * * * * * * * * * * * * * * * * * * * * * * //

dimensions      [0 2 -2 0 0 0 0];

internalField   nonuniform List<scalar> 
16900
(
-21.9344
-21.9972
-22.0929
-22.2608
-22.5034
-22.8036
-23.1533
-23.5442
-23.9676
-24.4155
-24.8806
-25.3565
-25.838
-26.3207
-26.8009
-27.2761
-27.7439
-28.203
-28.6517
-29.0899
-29.5161
-29.9307
-30.3325
-30.7221
-31.0987
-31.4625
-31.8133
-32.151
-32.4752
-32.7858
-33.0825
-33.3648
-33.6324
-33.8847
-34.1211
-34.341
-34.5435
-34.7277
-34.8925
-35.0369
-35.1594
-35.2585
-35.3326
-35.3799
-35.3985
-35.3862
-35.3404
-35.2584
-35.1375
-34.9754
-34.7693
-34.5159
-34.2107
-33.8491
-33.4272
-32.9418
-32.3898
-31.7681
-31.0739
-30.305
-29.4596
-28.5366
-27.5359
-26.4583
-25.3058
-24.0821
-22.7919
-21.4417
-20.0397
-18.5953
-17.1197
-15.6251
-14.1246
-12.6323
-11.1621
-9.72781
-8.34257
-7.01859
-5.76677
-4.59625
-3.51389
-2.52388
-1.628
-0.826668
-0.119963
0.492081
1.01053
1.44213
1.80107
2.10751
2.36062
2.55061
2.6839
2.76855
2.81209
2.82125
2.80198
2.75951
2.69845
2.62281
2.53606
2.4412
2.34078
2.23697
2.13158
2.02611
1.92179
1.81962
1.72037
1.62466
1.53294
1.44554
1.36268
1.28448
1.21099
1.1422
1.07806
1.01844
0.963224
0.912238
0.865297
0.822209
0.78276
0.746742
0.713932
0.684118
0.657081
0.632613
0.610504
0.590561
0.572587
0.556404
0.541835
0.528721
0.516903
0.506241
0.496598
0.487853
0.479888
0.472603
0.465896
0.459684
0.453883
0.448424
0.443238
0.43827
0.433462
0.428771
0.424151
0.419568
0.414983
0.410372
0.405704
0.400961
0.396119
0.391164
0.38608
0.380855
0.375479
0.369946
0.364246
0.358376
0.352332
0.346113
0.339716
0.333142
0.32639
0.319464
0.312363
0.305092
0.297652
0.290047
0.28228
0.274354
0.266273
0.258041
0.249662
0.241139
0.232477
0.223678
0.214746
0.205684
0.196495
0.187184
0.177752
0.168201
0.158531
0.148738
0.138821
0.128773
0.118588
0.108256
0.0977618
0.0870858
0.0761934
0.0650301
0.0534923
0.0414426
0.0284583
0.0156472
-21.8628
-21.9422
-22.0355
-22.2034
-22.4395
-22.7342
-23.0795
-23.4667
-23.8869
-24.3321
-24.7947
-25.2685
-25.7481
-26.2292
-26.7081
-27.1823
-27.6494
-28.108
-28.5569
-28.9951
-29.422
-29.8372
-30.2402
-30.6309
-31.0091
-31.3746
-31.7274
-32.0671
-32.3937
-32.7067
-33.0061
-33.2912
-33.5618
-33.8173
-34.0571
-34.2806
-34.4868
-34.675
-34.8441
-34.9929
-35.1201
-35.2243
-35.3037
-35.3567
-35.3814
-35.3756
-35.3367
-35.262
-35.1491
-34.9955
-34.799
-34.5559
-34.2612
-33.9103
-33.4997
-33.0264
-32.4871
-31.879
-31.1991
-30.4453
-29.6155
-28.7088
-27.7247
-26.6641
-25.5287
-24.3218
-23.0482
-21.714
-20.3271
-18.8967
-17.4336
-15.9497
-14.4582
-12.9726
-11.5069
-10.0749
-8.68985
-7.36384
-6.10762
-4.93013
-3.83827
-2.83709
-1.92991
-1.11878
-0.403696
0.218682
0.754187
1.21408
1.60185
1.92004
2.17553
2.37123
2.51281
2.60714
2.66096
2.6805
2.67143
2.63881
2.58714
2.52037
2.44196
2.35489
2.26172
2.16464
2.06547
1.96573
1.86669
1.76937
1.67457
1.58293
1.49494
1.41095
1.33119
1.25583
1.18493
1.1185
1.0565
0.998838
0.945398
0.896026
0.850556
0.8088
0.770566
0.735646
0.703837
0.674927
0.648713
0.624989
0.603557
0.584224
0.566805
0.551122
0.537008
0.524302
0.512856
0.502528
0.493189
0.484716
0.477
0.469937
0.463434
0.457403
0.451768
0.446457
0.441408
0.436561
0.431866
0.427275
0.422748
0.418246
0.413739
0.409196
0.404592
0.399905
0.395116
0.390209
0.385169
0.379985
0.374647
0.369147
0.36348
0.35764
0.351624
0.345431
0.339059
0.332508
0.325778
0.318871
0.31179
0.304535
0.297111
0.28952
0.281766
0.273853
0.265784
0.257564
0.249195
0.240683
0.23203
0.22324
0.214318
0.205266
0.196089
0.186788
0.177364
0.16782
0.158154
0.148366
0.138453
0.128409
0.118228
0.107901
0.097413
0.0867464
0.0758704
0.0647359
0.0532538
0.0413215
0.0285566
0.0168616
-21.8423
-21.9634
-22.0795
-22.2513
-22.4854
-22.7754
-23.114
-23.4927
-23.9036
-24.3389
-24.7917
-25.256
-25.7267
-26.1996
-26.6712
-27.1389
-27.6005
-28.0546
-28.4997
-28.935
-29.3597
-29.7734
-30.1756
-30.5661
-30.9446
-31.3109
-31.6649
-32.0062
-32.3347
-32.6501
-32.952
-33.24
-33.5138
-33.7727
-34.0162
-34.2436
-34.4541
-34.6468
-34.8207
-34.9746
-35.1073
-35.2172
-35.3028
-35.3624
-35.3941
-35.3957
-35.3647
-35.2984
-35.1943
-35.0501
-34.8637
-34.6311
-34.3471
-34.0071
-33.6081
-33.1469
-32.6203
-32.0253
-31.359
-30.6189
-29.8032
-28.9105
-27.9404
-26.8933
-25.7711
-24.5767
-23.3146
-21.9908
-20.6131
-19.1905
-17.7336
-16.2544
-14.7658
-13.2816
-11.8158
-10.3824
-8.99455
-7.66459
-6.40321
-5.21959
-4.12123
-3.1144
-2.20335
-1.39035
-0.672795
-0.0421126
0.507924
0.981501
1.3825
1.71585
1.98562
2.19517
2.35017
2.45719
2.52282
2.55327
2.55425
2.53088
2.48773
2.4288
2.35761
2.27721
2.19018
2.09876
2.00481
1.9099
1.8153
1.72208
1.63105
1.54289
1.45811
1.37706
1.30003
1.22717
1.15858
1.09427
1.03423
0.978367
0.926583
0.87874
0.834675
0.794215
0.757171
0.723348
0.692547
0.664566
0.639204
0.616263
0.59555
0.576877
0.560063
0.544934
0.531326
0.519084
0.508061
0.498119
0.489131
0.480979
0.473553
0.466755
0.46049
0.454677
0.449239
0.444107
0.439218
0.434517
0.429953
0.42548
0.421059
0.416654
0.412233
0.407768
0.403234
0.39861
0.393877
0.38902
0.384026
0.378882
0.37358
0.368112
0.362473
0.356659
0.350666
0.344493
0.338139
0.331604
0.32489
0.317997
0.310928
0.303686
0.296273
0.288693
0.28095
0.273046
0.264986
0.256774
0.248414
0.239909
0.231263
0.22248
0.213563
0.204517
0.195343
0.186046
0.176626
0.167086
0.157425
0.147642
0.137736
0.1277
0.11753
0.107217
0.09675
0.0861139
0.0752853
0.0642287
0.0528778
0.0411888
0.0288254
0.018702
-21.8791
-22.0327
-22.1798
-22.3614
-22.5973
-22.8842
-23.216
-23.5855
-23.9856
-24.4094
-24.8504
-25.3032
-25.7629
-26.2255
-26.6879
-27.1473
-27.6017
-28.0494
-28.4893
-28.9203
-29.3416
-29.7527
-30.153
-30.5423
-30.9203
-31.2866
-31.6411
-31.9834
-32.3133
-32.6305
-32.9347
-33.2253
-33.5019
-33.7641
-34.0112
-34.2425
-34.4572
-34.6544
-34.8332
-34.9923
-35.1307
-35.2467
-35.3389
-35.4055
-35.4446
-35.4542
-35.4317
-35.3744
-35.2799
-35.1459
-34.97
-34.7482
-34.4748
-34.1459
-33.7585
-33.3093
-32.7952
-32.213
-31.5596
-30.8325
-30.0295
-29.1492
-28.1908
-27.1546
-26.0422
-24.8563
-23.6013
-22.2829
-20.9087
-19.4878
-18.0307
-16.5494
-15.0572
-13.5678
-12.0954
-10.6542
-9.25759
-7.91825
-6.64741
-5.45529
-4.35026
-3.33902
-2.42367
-1.6036
-0.871294
-0.222998
0.340069
0.823724
1.23353
1.5745
1.85083
2.06695
2.22864
2.34232
2.41446
2.45119
2.45818
2.44056
2.40289
2.34919
2.28298
2.20731
2.12478
2.03763
1.94772
1.85663
1.76564
1.67582
1.588
1.50285
1.42089
1.3425
1.26796
1.19742
1.13101
1.06874
1.0106
0.956513
0.906387
0.860088
0.817464
0.778344
0.74255
0.709888
0.680167
0.653188
0.628757
0.606679
0.586764
0.568829
0.552696
0.538195
0.525166
0.513454
0.502917
0.49342
0.484839
0.477058
0.46997
0.463476
0.45749
0.451926
0.446714
0.441785
0.437078
0.43254
0.428121
0.423778
0.419472
0.415168
0.410836
0.406448
0.401983
0.397418
0.392737
0.387923
0.382967
0.377854
0.372579
0.367134
0.361514
0.355714
0.349733
0.343568
0.337222
0.330691
0.32398
0.317089
0.310021
0.302777
0.295363
0.287781
0.280036
0.272129
0.264067
0.255851
0.247489
0.238981
0.230333
0.221547
0.21263
0.203582
0.194408
0.18511
0.175691
0.166151
0.156492
0.146712
0.13681
0.126782
0.116624
0.106328
0.0958862
0.0852895
0.0745226
0.0635667
0.052382
0.0409893
0.0290753
0.020573
-21.967
-22.1465
-22.316
-22.508
-22.7475
-23.0334
-23.3603
-23.7222
-24.1128
-24.5257
-24.9555
-25.3969
-25.8456
-26.2978
-26.7505
-27.2012
-27.6477
-28.0887
-28.5226
-28.9486
-29.3659
-29.7737
-30.1716
-30.5592
-30.936
-31.3019
-31.6564
-31.9993
-32.3303
-32.6489
-32.9549
-33.2477
-33.5269
-33.792
-34.0423
-34.2771
-34.4956
-34.697
-34.8804
-35.0445
-35.1881
-35.31
-35.4083
-35.4816
-35.5278
-35.5449
-35.5305
-35.4818
-35.3963
-35.2721
-35.1063
-34.8943
-34.6308
-34.3123
-33.9358
-33.4982
-32.996
-32.4259
-31.7848
-31.0699
-30.2789
-29.41
-28.4623
-27.4359
-26.332
-25.1532
-23.9037
-22.5889
-21.2164
-19.7951
-18.3357
-16.8502
-15.352
-13.8552
-12.3738
-10.9227
-9.51553
-8.16601
-6.8863
-5.68728
-4.57636
-3.5582
-2.63
-1.79101
-1.04298
-0.383673
0.189345
0.68133
1.09791
1.44432
1.72544
1.94644
2.11326
2.23224
2.30973
2.3518
2.36404
2.35156
2.31887
2.27001
2.20847
2.13729
2.05908
1.97606
1.8901
1.80276
1.71534
1.62889
1.54427
1.46214
1.38302
1.30731
1.23527
1.1671
1.1029
1.04271
0.986513
0.934252
0.88583
0.841125
0.799991
0.762264
0.727769
0.69632
0.667729
0.641803
0.61835
0.597182
0.578111
0.560957
0.545547
0.531713
0.519297
0.508149
0.498128
0.489103
0.480952
0.473561
0.466826
0.460652
0.454952
0.449646
0.444663
0.439938
0.435412
0.431032
0.426753
0.42253
0.418329
0.414115
0.409859
0.405536
0.401123
0.396602
0.391955
0.38717
0.382233
0.377136
0.371871
0.36643
0.360812
0.35501
0.349025
0.342854
0.336499
0.329959
0.323237
0.316334
0.309254
0.301998
0.294572
0.286976
0.279218
0.271299
0.263224
0.254997
0.246623
0.238103
0.229445
0.22065
0.211723
0.202666
0.193484
0.184179
0.174754
0.16521
0.155548
0.145767
0.135867
0.125844
0.115697
0.105419
0.0950062
0.0844547
0.0737596
0.0629189
0.0519189
0.0408399
0.0293583
0.0223647
-22.1071
-22.299
-22.4804
-22.6791
-22.9208
-23.2051
-23.5271
-23.8817
-24.2631
-24.6658
-25.0846
-25.515
-25.9528
-26.3946
-26.8376
-27.2794
-27.718
-28.1518
-28.5797
-29.0005
-29.4134
-29.8177
-30.2129
-30.5985
-30.9741
-31.3393
-31.6937
-32.0371
-32.3689
-32.6889
-32.9967
-33.2917
-33.5734
-33.8413
-34.0948
-34.3331
-34.5555
-34.7611
-34.949
-35.1181
-35.2671
-35.3947
-35.4994
-35.5793
-35.6327
-35.6576
-35.6513
-35.6112
-35.5349
-35.4205
-35.2648
-35.0624
-34.8086
-34.5004
-34.135
-33.709
-33.2188
-32.6609
-32.0321
-31.3294
-30.5502
-29.6926
-28.7556
-27.7387
-26.6429
-25.4707
-24.226
-22.9143
-21.5426
-20.1201
-18.6577
-17.1669
-15.6617
-14.1563
-12.665
-11.2036
-9.78659
-8.42854
-7.14145
-5.93457
-4.81206
-3.77576
-2.83034
-1.97865
-1.21983
-0.551182
0.0305845
0.530316
0.953474
1.3055
1.59174
1.81785
1.98994
2.11434
2.19733
2.2449
2.2626
2.25549
2.22808
2.18435
2.12779
2.06143
1.98786
1.9093
1.8276
1.74432
1.66077
1.57799
1.49685
1.418
1.34199
1.26919
1.19991
1.13432
1.07254
1.01463
0.960564
0.910301
0.863753
0.820802
0.781309
0.745116
0.712055
0.681945
0.654604
0.629842
0.607474
0.587312
0.569176
0.552888
0.538279
0.525182
0.513446
0.50292
0.49347
0.484964
0.477284
0.470319
0.46397
0.45814
0.452749
0.447717
0.442977
0.438464
0.434125
0.429906
0.425766
0.421662
0.417561
0.413429
0.409242
0.404974
0.400605
0.396115
0.391493
0.386722
0.381794
0.376698
0.371431
0.365983
0.360354
0.354538
0.348537
0.342348
0.335974
0.329413
0.322671
0.315746
0.308644
0.301366
0.293919
0.286302
0.278524
0.270584
0.262491
0.254245
0.245853
0.237317
0.228643
0.219832
0.210892
0.201822
0.192629
0.183313
0.173879
0.164327
0.15466
0.144876
0.134977
0.124959
0.114823
0.104564
0.0941822
0.0836791
0.0730583
0.0623353
0.0515168
0.0407382
0.0296266
0.023955
-22.284
-22.4761
-22.6603
-22.8616
-23.1026
-23.3834
-23.6999
-24.0469
-24.4193
-24.812
-25.2204
-25.6402
-26.0677
-26.4997
-26.9334
-27.3667
-27.7976
-28.2247
-28.6466
-29.0624
-29.4711
-29.8721
-30.2647
-30.6485
-31.023
-31.3877
-31.7422
-32.0862
-32.4191
-32.7406
-33.0503
-33.3476
-33.632
-33.9029
-34.1597
-34.4017
-34.6282
-34.8381
-35.0308
-35.2049
-35.3594
-35.4929
-35.6039
-35.6906
-35.7513
-35.7839
-35.7858
-35.7544
-35.6875
-35.583
-35.4373
-35.2442
-34.9997
-34.7019
-34.3476
-33.9332
-33.455
-32.9094
-32.2929
-31.6024
-30.835
-29.9888
-29.0623
-28.0548
-26.9671
-25.8014
-24.5616
-23.2529
-21.8819
-20.4581
-18.9925
-17.4962
-15.9837
-14.4704
-12.9699
-11.5003
-10.0754
-8.70905
-7.41156
-6.18792
-5.0477
-3.99781
-3.04084
-2.17842
-1.40975
-0.732251
-0.142343
0.364715
0.794345
1.15217
1.44393
1.67556
1.85333
1.98356
2.0725
2.12607
2.14978
2.14861
2.12705
2.08905
2.03807
1.97711
1.90874
1.83518
1.75827
1.67956
1.60036
1.5217
1.44445
1.36929
1.29675
1.22723
1.16102
1.09832
1.03926
0.983885
0.932206
0.884178
0.839721
0.798728
0.761066
0.726585
0.695123
0.666506
0.640557
0.617093
0.595932
0.576891
0.559796
0.54447
0.53075
0.518472
0.507488
0.497651
0.488828
0.480893
0.473731
0.467232
0.461301
0.455845
0.450785
0.446046
0.441563
0.437274
0.433128
0.429075
0.425075
0.421089
0.417085
0.413032
0.408907
0.404686
0.400353
0.395887
0.391279
0.386514
0.381585
0.376483
0.371203
0.365739
0.36009
0.354252
0.348227
0.342011
0.33561
0.329022
0.322251
0.315297
0.308168
0.300862
0.293388
0.285744
0.27794
0.269976
0.261859
0.25359
0.245176
0.236619
0.227926
0.219097
0.21014
0.201054
0.191846
0.182517
0.173072
0.16351
0.153836
0.144048
0.134148
0.124134
0.114008
0.103768
0.0934177
0.0829631
0.0724173
0.0618092
0.0511636
0.0406602
0.0298529
0.0253063
-22.4775
-22.6611
-22.8415
-23.0415
-23.2793
-23.5551
-23.8651
-24.2043
-24.5679
-24.9512
-25.3498
-25.7599
-26.1779
-26.6008
-27.0261
-27.4516
-27.8755
-28.2964
-28.7131
-29.1244
-29.5295
-29.9277
-30.3182
-30.7007
-31.0744
-31.4391
-31.7941
-32.139
-32.4734
-32.7968
-33.1088
-33.4087
-33.6961
-33.9703
-34.2307
-34.4766
-34.7072
-34.9218
-35.1193
-35.2986
-35.4588
-35.5983
-35.7156
-35.8093
-35.8773
-35.9176
-35.9277
-35.9049
-35.8472
-35.7526
-35.6164
-35.4323
-35.1971
-34.9095
-34.5661
-34.1631
-33.6968
-33.1633
-32.5589
-31.8803
-31.1246
-30.2895
-29.3734
-28.3755
-27.2957
-26.1364
-24.9016
-23.5961
-22.2258
-20.8006
-19.3322
-17.831
-16.3124
-14.7934
-13.2861
-11.8095
-10.376
-8.99487
-7.68157
-6.44519
-5.29327
-4.23209
-3.26482
-2.39275
-1.61516
-0.929541
-0.33217
0.181737
0.61766
0.981414
1.27899
1.51658
1.70052
1.83715
1.93267
1.99293
2.02335
2.02888
2.01394
1.98243
1.93777
1.88294
1.82049
1.7526
1.68112
1.60759
1.53329
1.45929
1.38644
1.31543
1.2468
1.18095
1.11819
1.05873
1.0027
0.950175
0.90116
0.855624
0.813501
0.774688
0.739066
0.706489
0.676806
0.649847
0.625445
0.603419
0.583597
0.565798
0.549854
0.535592
0.522854
0.511479
0.501323
0.492242
0.484109
0.476798
0.470201
0.464208
0.458731
0.453677
0.448975
0.444548
0.440338
0.436284
0.432341
0.428459
0.424603
0.420735
0.416828
0.41285
0.408785
0.404607
0.400304
0.395856
0.391256
0.38649
0.381555
0.376438
0.37114
0.365652
0.359978
0.354111
0.348056
0.341808
0.335375
0.328753
0.321949
0.314962
0.307801
0.300463
0.292958
0.285284
0.277452
0.269459
0.261315
0.253021
0.244583
0.236003
0.227289
0.218439
0.209463
0.20036
0.191137
0.181793
0.172336
0.162764
0.153082
0.143289
0.133389
0.12338
0.113265
0.103045
0.0927256
0.0823188
0.0718431
0.0613408
0.0508463
0.0405806
0.0300007
0.0263726
-22.6703
-22.8394
-23.0113
-23.2073
-23.4398
-23.7094
-24.0123
-24.3436
-24.6987
-25.0732
-25.463
-25.8643
-26.2738
-26.6888
-27.1066
-27.5254
-27.9434
-28.3592
-28.7714
-29.1792
-29.5815
-29.9776
-30.3668
-30.7485
-31.1223
-31.4874
-31.8435
-32.1899
-32.5263
-32.8521
-33.1667
-33.4697
-33.7604
-34.0383
-34.3026
-34.5527
-34.7878
-35.0071
-35.2097
-35.3945
-35.5603
-35.7059
-35.8297
-35.9302
-36.0055
-36.0535
-36.0716
-36.0573
-36.0087
-35.9236
-35.7962
-35.6205
-35.3945
-35.1169
-34.784
-34.3921
-33.9372
-33.4153
-32.8226
-32.1556
-31.4111
-30.5867
-29.6808
-28.692
-27.6199
-26.4668
-25.2367
-23.9345
-22.5649
-21.1387
-19.6688
-18.1645
-16.6414
-15.119
-13.6057
-12.117
-10.6719
-9.28069
-7.95652
-6.70959
-5.54781
-4.47718
-3.50113
-2.62089
-1.83571
-1.14306
-0.539097
-0.0189489
0.422973
0.792649
1.09627
1.34019
1.53078
1.6744
1.77715
1.8448
1.88272
1.89574
1.88821
1.86399
1.82646
1.77853
1.72273
1.66123
1.59585
1.52812
1.45934
1.39055
1.32262
1.25624
1.19196
1.13021
1.07129
1.01542
0.962768
0.913393
0.867329
0.824553
0.785009
0.748606
0.715234
0.684758
0.657034
0.631902
0.609201
0.588757
0.570405
0.553969
0.539287
0.52619
0.514525
0.504136
0.494883
0.486627
0.479243
0.47261
0.466622
0.461177
0.456187
0.451566
0.447243
0.443149
0.439227
0.435421
0.431689
0.427985
0.424277
0.420529
0.416719
0.412817
0.408809
0.404671
0.400394
0.395961
0.391365
0.386594
0.381647
0.376511
0.37119
0.365675
0.359971
0.354071
0.347981
0.341698
0.335229
0.32857
0.32173
0.314707
0.30751
0.300137
0.292599
0.284892
0.277029
0.269005
0.260833
0.252511
0.244048
0.235442
0.226705
0.217833
0.208837
0.199715
0.190475
0.181116
0.171645
0.162061
0.152371
0.142573
0.132671
0.122665
0.112561
0.102358
0.0920684
0.0817055
0.071295
0.0608873
0.0505257
0.0404613
0.0300484
0.0271563
-22.8484
-22.9994
-23.1597
-23.3494
-23.5754
-23.8382
-24.1336
-24.4572
-24.8044
-25.171
-25.5528
-25.9465
-26.3488
-26.757
-27.1688
-27.5821
-27.9953
-28.407
-28.8161
-29.2213
-29.6218
-30.0167
-30.4055
-30.7874
-31.1618
-31.5283
-31.8861
-32.2347
-32.5736
-32.9023
-33.2202
-33.5267
-33.8212
-34.1031
-34.3718
-34.6264
-34.8662
-35.0905
-35.2983
-35.4886
-35.6602
-35.8119
-35.9422
-36.0495
-36.132
-36.1874
-36.2133
-36.2073
-36.1676
-36.0914
-35.972
-35.804
-35.5869
-35.3189
-34.9961
-34.6147
-34.1706
-33.6597
-33.0779
-32.4217
-31.6877
-30.8733
-29.9769
-28.9967
-27.9315
-26.7837
-25.558
-24.2593
-22.891
-21.4646
-19.9955
-18.4914
-16.9639
-15.4338
-13.9145
-12.4189
-10.9649
-9.56511
-8.2324
-6.97717
-5.80764
-4.72971
-3.74687
-2.86029
-2.06911
-1.37076
-0.761261
-0.235618
0.211871
0.587327
0.897085
1.14757
1.34522
1.4963
1.60685
1.68256
1.72865
1.74988
1.75053
1.73435
1.70467
1.66436
1.61592
1.56146
1.50281
1.44149
1.37877
1.31572
1.25321
1.19192
1.13243
1.07517
1.02046
0.968535
0.919566
0.873641
0.830802
0.791038
0.754309
0.720533
0.689614
0.661425
0.635835
0.612689
0.591836
0.57311
0.556353
0.541394
0.528079
0.516243
0.50574
0.496415
0.488138
0.480768
0.47419
0.468284
0.462953
0.458092
0.453624
0.449462
0.445544
0.4418
0.438184
0.434638
0.431127
0.427607
0.424053
0.420429
0.416718
0.412892
0.408941
0.404842
0.400591
0.396169
0.391576
0.386797
0.381835
0.376677
0.371331
0.365785
0.360048
0.354112
0.347986
0.341664
0.335157
0.328458
0.32158
0.314518
0.307284
0.299874
0.292301
0.284559
0.276663
0.268608
0.260406
0.252054
0.243565
0.234933
0.226172
0.217277
0.208261
0.199119
0.189862
0.180486
0.171003
0.161407
0.151709
0.141905
0.132003
0.122
0.111905
0.101721
0.0914588
0.0811368
0.0707828
0.0604559
0.0501994
0.0402947
0.0299841
0.0276422
-23.0015
-23.1325
-23.2794
-23.4614
-23.6802
-23.9356
-24.2238
-24.54
-24.88
-25.2395
-25.6147
-26.0019
-26.3984
-26.8012
-27.2082
-27.6175
-28.0273
-28.4363
-28.8433
-29.2472
-29.647
-30.0419
-30.4311
-30.8141
-31.1902
-31.5586
-31.9189
-32.2705
-32.6126
-32.9448
-33.2665
-33.577
-33.8757
-34.1621
-34.4353
-34.6947
-34.9396
-35.1691
-35.3823
-35.5782
-35.7557
-35.9135
-36.0502
-36.1641
-36.2536
-36.3163
-36.3497
-36.3516
-36.3204
-36.2525
-36.1399
-35.9791
-35.7705
-35.5114
-35.198
-34.8264
-34.3923
-33.8913
-33.3194
-32.6728
-31.9483
-31.1428
-30.2546
-29.2821
-28.2229
-27.08
-25.8588
-24.5653
-23.2017
-21.7762
-20.3054
-18.8003
-17.2715
-15.7365
-14.2111
-12.7099
-11.2494
-9.84328
-8.50446
-7.24349
-6.06866
-4.98583
-3.99841
-3.10748
-2.31207
-1.60947
-0.995573
-0.465272
-0.0127461
0.36823
0.684081
0.941276
1.14622
1.30513
1.42393
1.50819
1.56302
1.59306
1.60247
1.59495
1.57373
1.54164
1.50112
1.45427
1.40289
1.34847
1.29231
1.23545
1.17877
1.12297
1.06864
1.01621
0.966034
0.918358
0.87336
0.831147
0.791778
0.755255
0.721552
0.690601
0.662317
0.636586
0.613285
0.59227
0.5734
0.556516
0.541468
0.528092
0.51624
0.505753
0.496491
0.488304
0.481066
0.474642
0.468923
0.463791
0.459154
0.454914
0.450997
0.447321
0.443829
0.440456
0.437159
0.433886
0.430607
0.427279
0.423884
0.420388
0.416779
0.41303
0.409137
0.405078
0.400852
0.396441
0.39185
0.387062
0.382084
0.376904
0.37153
0.365952
0.360181
0.354207
0.348042
0.34168
0.335132
0.328393
0.321475
0.314372
0.3071
0.299651
0.292041
0.284264
0.276333
0.268245
0.260012
0.25163
0.243112
0.234453
0.225667
0.216748
0.20771
0.198547
0.189272
0.179879
0.170381
0.160773
0.151065
0.141254
0.13135
0.121349
0.111262
0.101093
0.0908547
0.0805671
0.0702621
0.0600018
0.0498313
0.0400517
0.0297991
0.0278535
-23.1223
-23.2329
-23.3656
-23.5389
-23.75
-23.9983
-24.2794
-24.589
-24.9226
-25.2762
-25.6458
-26.0281
-26.4201
-26.819
-27.2228
-27.6294
-28.0372
-28.4448
-28.8511
-29.2548
-29.6551
-30.051
-30.4418
-30.8268
-31.2053
-31.5767
-31.9402
-32.2952
-32.6412
-32.9775
-33.3035
-33.6185
-33.922
-34.2131
-34.4913
-34.7558
-35.0059
-35.2408
-35.4595
-35.6611
-35.8444
-36.0083
-36.1513
-36.2718
-36.368
-36.4376
-36.4781
-36.4876
-36.4644
-36.4034
-36.2969
-36.1429
-35.9422
-35.6913
-35.3864
-35.0234
-34.5982
-34.1059
-33.5424
-32.9042
-32.1876
-31.3899
-30.5093
-29.545
-28.4939
-27.3569
-26.1401
-24.8498
-23.4905
-22.0682
-20.597
-19.0896
-17.5585
-16.0202
-14.4906
-12.9855
-11.5208
-10.111
-8.76869
-7.50465
-6.32712
-5.24186
-4.25216
-3.35894
-2.56108
-1.85571
-1.23859
-0.704486
-0.247496
0.138679
0.460502
0.724439
0.936838
1.10382
1.23119
1.32437
1.38834
1.42761
1.44624
1.44782
1.43551
1.41208
1.37992
1.34109
1.29737
1.25025
1.20099
1.15067
1.10015
1.05015
1.00127
0.953955
0.90857
0.865379
0.82458
0.786293
0.750595
0.7175
0.687
0.659037
0.633543
0.610411
0.589534
0.570774
0.554003
0.539066
0.525826
0.514123
0.503818
0.494755
0.486804
0.479817
0.473677
0.46825
0.463436
0.459119
0.455215
0.451627
0.44829
0.445123
0.442079
0.439093
0.436132
0.433143
0.430106
0.426978
0.42375
0.420387
0.416885
0.413217
0.409385
0.405366
0.401167
0.396768
0.392178
0.387381
0.382388
0.377183
0.371782
0.366171
0.360365
0.354351
0.348148
0.341743
0.335155
0.328372
0.321414
0.314269
0.306958
0.299469
0.291821
0.284006
0.276042
0.267918
0.259654
0.25124
0.242694
0.234007
0.225196
0.216252
0.207192
0.198008
0.188714
0.179304
0.169792
0.160171
0.150454
0.140637
0.13073
0.120731
0.110653
0.100497
0.0902806
0.0800237
0.0697579
0.0595504
0.0494388
0.0397468
0.0295035
0.027792
-23.2068
-23.2973
-23.4157
-23.5798
-23.7833
-24.0245
-24.2992
-24.6029
-24.9312
-25.2799
-25.6454
-26.0241
-26.4131
-26.8097
-27.2116
-27.617
-28.0242
-28.4319
-28.8386
-29.2435
-29.6453
-30.0433
-30.4366
-30.8245
-31.2063
-31.5813
-31.9488
-32.308
-32.6585
-32.9994
-33.3302
-33.6501
-33.9586
-34.2549
-34.5383
-34.8082
-35.0637
-35.3041
-35.5284
-35.7357
-35.9249
-36.0948
-36.2439
-36.3707
-36.4733
-36.5494
-36.5966
-36.6133
-36.5973
-36.5419
-36.4405
-36.2931
-36.0993
-35.8556
-35.5581
-35.2027
-34.7855
-34.3017
-33.7466
-33.1165
-32.4078
-31.6176
-30.7439
-29.7862
-28.7428
-27.6126
-26.4007
-25.1128
-23.7548
-22.3339
-20.8626
-19.3538
-17.8211
-16.2808
-14.7491
-13.2421
-11.7758
-10.3647
-9.02171
-7.75732
-6.57972
-5.49453
-4.50483
-3.61136
-2.81278
-2.10607
-1.48685
-0.949783
-0.4889
-0.0978707
0.229759
0.500406
0.720329
0.895522
1.03165
1.13398
1.20734
1.25612
1.28424
1.29521
1.29209
1.2776
1.25407
1.22353
1.18772
1.14814
1.10603
1.06247
1.01833
0.974343
0.931108
0.889095
0.848684
0.810154
0.77372
0.739517
0.707639
0.678116
0.650953
0.626107
0.603522
0.583103
0.564755
0.54835
0.53377
0.520869
0.509517
0.499561
0.490872
0.483297
0.476715
0.470982
0.465987
0.461601
0.457731
0.454264
0.451123
0.448215
0.445482
0.442846
0.440268
0.437686
0.435073
0.432381
0.429595
0.426677
0.423622
0.420398
0.417007
0.413424
0.409656
0.405681
0.40151
0.397124
0.392537
0.387732
0.382723
0.377495
0.372066
0.366421
0.360579
0.354527
0.348283
0.341836
0.335206
0.32838
0.321379
0.314192
0.30684
0.29931
0.291624
0.283771
0.27577
0.267611
0.259314
0.250868
0.242292
0.233576
0.224738
0.215769
0.206686
0.197479
0.188166
0.178738
0.16921
0.159575
0.149848
0.140022
0.130111
0.120112
0.110038
0.0998922
0.0896932
0.0794594
0.0692249
0.0590559
0.048987
0.0393538
0.0290913
0.0274881
-23.2538
-23.3248
-23.4293
-23.584
-23.7799
-24.0147
-24.2836
-24.5823
-24.9062
-25.2514
-25.614
-25.9904
-26.3778
-26.7734
-27.175
-27.5806
-27.9885
-28.3974
-28.8059
-29.213
-29.6175
-30.0185
-30.4152
-30.8069
-31.1928
-31.5722
-31.9442
-32.3083
-32.6636
-33.0097
-33.3457
-33.671
-33.9848
-34.2866
-34.5755
-34.8509
-35.112
-35.358
-35.588
-35.8011
-35.9961
-36.1719
-36.327
-36.4599
-36.5687
-36.6511
-36.7047
-36.7283
-36.7188
-36.6679
-36.5714
-36.4304
-36.2433
-36.0064
-35.7158
-35.3674
-34.9572
-34.4811
-33.9339
-33.3115
-32.6103
-31.8271
-30.9598
-30.0071
-28.968
-27.8424
-26.6339
-25.3479
-23.9907
-22.5706
-21.0993
-19.5898
-18.0567
-16.5158
-14.9839
-13.4772
-12.0117
-10.6021
-9.26102
-7.99895
-6.82389
-5.74119
-4.75369
-3.86189
-3.06423
-2.35752
-1.73725
-1.19799
-0.733752
-0.338208
-0.00495831
0.272323
0.499769
0.683227
0.828199
0.939786
1.02267
1.08108
1.11884
1.13932
1.14554
1.14011
1.12534
1.10322
1.07545
1.04352
1.00869
0.971999
0.934354
0.896487
0.859011
0.822409
0.787079
0.753314
0.721347
0.691327
0.663366
0.637507
0.613773
0.592129
0.572538
0.554911
0.53917
0.525191
0.512871
0.502067
0.492665
0.484512
0.477492
0.471453
0.466286
0.461847
0.458037
0.454726
0.451832
0.449242
0.446892
0.444686
0.442579
0.440492
0.438397
0.436232
0.433982
0.431597
0.429074
0.426373
0.423499
0.420419
0.417146
0.413651
0.409952
0.406023
0.401884
0.397513
0.392931
0.388118
0.383095
0.377844
0.372388
0.366709
0.360832
0.354739
0.348455
0.341965
0.335292
0.328422
0.321379
0.314148
0.306755
0.299183
0.291458
0.283565
0.275528
0.267333
0.259003
0.250523
0.241918
0.233171
0.224308
0.215312
0.206206
0.196976
0.187644
0.178197
0.168654
0.159005
0.149267
0.139433
0.129519
0.119518
0.10945
0.0993128
0.0891284
0.0789143
0.0687021
0.05856
0.0485104
0.0389057
0.0285894
0.0269545
-23.2637
-23.3165
-23.4079
-23.5531
-23.7419
-23.9705
-24.2343
-24.5287
-24.8493
-25.1919
-25.5527
-25.9281
-26.3151
-26.711
-27.1135
-27.5205
-27.9304
-28.3418
-28.7532
-29.1635
-29.5717
-29.9767
-30.3777
-30.774
-31.1647
-31.549
-31.9263
-32.2958
-32.6567
-33.0083
-33.35
-33.681
-34.0006
-34.3081
-34.6029
-34.8841
-35.151
-35.4028
-35.6386
-35.8576
-36.0585
-36.2403
-36.4014
-36.5404
-36.6553
-36.7437
-36.8037
-36.8339
-36.8298
-36.783
-36.6916
-36.5568
-36.3759
-36.1454
-35.8613
-35.5194
-35.1155
-34.6454
-34.1043
-33.4879
-32.7924
-32.0146
-31.152
-30.203
-29.1668
-28.0439
-26.8375
-25.5526
-24.196
-22.7763
-21.3051
-19.7959
-18.2632
-16.7234
-15.1931
-13.689
-12.2268
-10.8212
-9.48468
-8.22756
-7.05752
-5.97962
-4.9964
-4.10806
-3.31284
-2.60734
-1.98695
-1.4462
-0.979095
-0.579364
-0.2407
0.0430929
0.277996
0.469684
0.623483
0.744321
0.836717
0.904764
0.952149
0.982155
0.997698
1.00134
0.995326
0.981613
0.961898
0.937635
0.910079
0.880285
0.849158
0.817437
0.785752
0.754597
0.724387
0.695429
0.667974
0.642185
0.618192
0.596047
0.575792
0.557403
0.540856
0.526072
0.512985
0.50148
0.491466
0.482805
0.475393
0.469083
0.463768
0.4593
0.455579
0.452465
0.449866
0.447657
0.445762
0.444072
0.442531
0.441045
0.439579
0.438057
0.436458
0.434722
0.432845
0.430778
0.428525
0.426049
0.423363
0.420435
0.417284
0.413882
0.410254
0.406375
0.40227
0.397917
0.393341
0.388522
0.383486
0.378212
0.37273
0.367018
0.361105
0.354972
0.348648
0.342114
0.335398
0.328483
0.321397
0.314122
0.306687
0.299072
0.291307
0.283374
0.2753
0.267067
0.258703
0.250189
0.241553
0.232775
0.223884
0.21486
0.205731
0.196477
0.187124
0.177656
0.168097
0.158432
0.148682
0.138838
0.128918
0.118914
0.108846
0.0987139
0.0885392
0.0783369
0.0681396
0.0580117
0.0479693
0.0383711
0.0279853
0.0262201
-23.2391
-23.275
-23.354
-23.4898
-23.6714
-23.8943
-24.1535
-24.4444
-24.7624
-25.1035
-25.4636
-25.8391
-26.227
-26.6244
-27.0289
-27.4386
-27.8515
-28.2663
-28.6816
-29.0962
-29.5088
-29.9186
-30.3247
-30.7263
-31.1225
-31.5125
-31.8956
-32.2709
-32.6378
-32.9955
-33.3433
-33.6804
-34.0062
-34.3198
-34.6206
-34.9079
-35.1809
-35.4387
-35.6806
-35.9056
-36.1126
-36.3004
-36.4676
-36.6126
-36.7334
-36.8278
-36.8942
-36.9306
-36.9305
-36.8873
-36.8011
-36.6719
-36.4967
-36.2717
-35.9931
-35.6566
-35.258
-34.7927
-34.2562
-33.6441
-32.9527
-32.1784
-31.3188
-30.3721
-29.3375
-28.2159
-27.0103
-25.7257
-24.3692
-22.9497
-21.4791
-19.9707
-18.4398
-16.9026
-15.3759
-13.8764
-12.4199
-11.0209
-9.6915
-8.44183
-7.27917
-6.20822
-5.23116
-4.34791
-3.55645
-2.85324
-2.23356
-1.69193
-1.22239
-0.818782
-0.474925
-0.184783
0.0574443
0.257247
0.419763
0.549742
0.651539
0.729106
0.786002
0.825412
0.850167
0.862765
0.865406
0.86001
0.848252
0.831574
0.811226
0.788266
0.763602
0.737985
0.712056
0.686322
0.661216
0.637054
0.614109
0.592552
0.572533
0.554114
0.537355
0.522236
0.508755
0.496834
0.486426
0.477418
0.469734
0.463237
0.45784
0.453394
0.449807
0.446931
0.444678
0.442905
0.441537
0.440444
0.439566
0.438789
0.438072
0.437318
0.436508
0.435559
0.434468
0.433172
0.431678
0.429935
0.427963
0.425718
0.423227
0.420454
0.417431
0.414126
0.410575
0.406747
0.402681
0.398346
0.39378
0.388955
0.383908
0.378612
0.373104
0.367358
0.361411
0.355237
0.348873
0.342293
0.335536
0.328574
0.321445
0.314124
0.306647
0.298988
0.291184
0.283209
0.275098
0.266826
0.258427
0.249878
0.241211
0.232402
0.223483
0.214432
0.205278
0.196
0.186627
0.177139
0.167564
0.157882
0.148121
0.138266
0.128341
0.118333
0.108267
0.0981378
0.0879708
0.0777776
0.0675878
0.0574655
0.047412
0.0377976
0.02732
0.0253063
-23.1832
-23.2037
-23.2711
-23.3971
-23.5719
-23.7895
-24.0447
-24.3328
-24.6492
-24.9897
-25.3502
-25.727
-26.1168
-26.5167
-26.9244
-27.3376
-27.7546
-28.1737
-28.5937
-29.0132
-29.4311
-29.8463
-30.258
-30.6654
-31.0676
-31.4637
-31.8529
-32.2346
-32.6078
-32.9719
-33.326
-33.6696
-34.0017
-34.3217
-34.6289
-34.9224
-35.2016
-35.4656
-35.7137
-35.9448
-36.1578
-36.3517
-36.525
-36.6759
-36.8025
-36.9028
-36.9753
-37.017
-37.0199
-36.9801
-36.8989
-36.7748
-36.6044
-36.3842
-36.11
-35.7778
-35.3831
-34.9214
-34.3881
-33.7789
-33.0898
-32.3175
-31.4592
-30.5132
-29.4788
-28.3571
-27.1513
-25.8663
-24.5094
-23.0902
-21.6203
-20.1137
-18.5857
-17.0527
-15.5315
-14.0389
-12.5905
-11.2004
-9.88069
-8.64081
-7.48771
-6.42567
-5.45648
-4.57974
-3.79321
-3.09319
-2.47492
-1.93294
-1.46137
-1.0542
-0.705393
-0.40912
-0.159772
0.0479405
0.218963
0.357866
0.468842
0.555701
0.621884
0.670475
0.704226
0.725572
0.736672
0.739408
0.735438
0.72619
0.712911
0.696657
0.678347
0.658735
0.63848