/*--------------------------------*- C++ -*----------------------------------*\
  =========                 |
  \\      /  F ield         | OpenFOAM: The Open Source CFD Toolbox
   \\    /   O peration     | Website:  https://openfoam.org
    \\  /    A nd           | Version:  7
     \\/     M anipulation  |
\*---------------------------------------------------------------------------*/
FoamFile
{
    version     2.0;
    format      ascii;
    class       surfaceScalarField;
    location    "200";
    object      phi;
}
// * * * * * * * * * * * * * * * * * * * * * * * * * * * * * * * * * * * * * //

dimensions      [0 3 -1 0 0 0 0];

internalField   nonuniform List<scalar> 
33502
(
-7.75856e-08
7.76306e-08
-3.09858e-07
2.32311e-07
-5.97968e-07
2.88133e-07
-8.98483e-07
3.00561e-07
-1.19957e-06
3.01103e-07
-1.4961e-06
2.96572e-07
-1.78502e-06
2.88936e-07
-2.06433e-06
2.79342e-07
-2.33286e-06
2.68538e-07
-2.58995e-06
2.57111e-07
-2.83543e-06
2.45476e-07
-3.06937e-06
2.33965e-07
-3.29213e-06
2.22767e-07
-3.50418e-06
2.12058e-07
-3.70606e-06
2.019e-07
-3.89844e-06
1.9236e-07
-4.08179e-06
1.83445e-07
-4.25695e-06
1.7512e-07
-4.42423e-06
1.67425e-07
-4.58452e-06
1.60228e-07
-4.73799e-06
1.53589e-07
-4.88542e-06
1.47366e-07
-5.02694e-06
1.41613e-07
-5.16316e-06
1.36194e-07
-5.29424e-06
1.31148e-07
-5.42057e-06
1.26375e-07
-5.5424e-06
1.21862e-07
-5.65996e-06
1.17569e-07
-5.77342e-06
1.13468e-07
-5.88295e-06
1.09529e-07
-5.98867e-06
1.05723e-07
-6.09069e-06
1.02022e-07
-6.1891e-06
9.84004e-08
-6.28393e-06
9.4833e-08
-6.37524e-06
9.12966e-08
-6.46301e-06
8.77665e-08
-6.54724e-06
8.42197e-08
-6.62788e-06
8.0631e-08
-6.70486e-06
7.69766e-08
-6.7781e-06
7.32305e-08
-6.84748e-06
6.93668e-08
-6.91285e-06
6.5357e-08
-6.97403e-06
6.11713e-08
-7.03082e-06
5.67787e-08
-7.08298e-06
5.21482e-08
-7.13024e-06
4.72492e-08
-7.1723e-06
4.20495e-08
-7.20882e-06
3.65134e-08
-7.23943e-06
3.06012e-08
-7.26372e-06
2.42739e-08
-7.28122e-06
1.74958e-08
-7.29146e-06
1.02316e-08
-7.29386e-06
2.39833e-09
-7.28784e-06
-6.02815e-09
-7.27282e-06
-1.50226e-08
-7.2482e-06
-2.46116e-08
-7.21338e-06
-3.48212e-08
-7.1677e-06
-4.56729e-08
-7.11051e-06
-5.71817e-08
-7.04115e-06
-6.93508e-08
-6.95896e-06
-8.21705e-08
-6.86333e-06
-9.5616e-08
-6.75366e-06
-1.09644e-07
-6.62945e-06
-1.24195e-07
-6.49025e-06
-1.39182e-07
-6.33572e-06
-1.54502e-07
-6.16567e-06
-1.70027e-07
-5.98004e-06
-1.85611e-07
-5.77894e-06
-2.01083e-07
-5.56267e-06
-2.16258e-07
-5.33172e-06
-2.30939e-07
-5.0868e-06
-2.4492e-07
-4.8288e-06
-2.57995e-07
-4.55884e-06
-2.69968e-07
-4.27819e-06
-2.80655e-07
-3.98831e-06
-2.89889e-07
-3.69078e-06
-2.9754e-07
-3.38729e-06
-3.03501e-07
-3.07958e-06
-3.07724e-07
-2.76939e-06
-3.10198e-07
-2.45843e-06
-3.10975e-07
-2.14831e-06
-3.10125e-07
-1.8405e-06
-3.0783e-07
-1.53633e-06
-3.04177e-07
-1.23664e-06
-2.99691e-07
-9.41739e-07
-2.94879e-07
-6.52744e-07
-2.88983e-07
-3.66406e-07
-2.86354e-07
-7.95654e-08
-2.86865e-07
1.99753e-07
-2.79301e-07
4.64839e-07
-2.65023e-07
7.13802e-07
-2.4888e-07
9.47316e-07
-2.33439e-07
1.16626e-06
-2.18894e-07
1.37143e-06
-2.0516e-07
1.56357e-06
-1.92142e-07
1.74332e-06
-1.79766e-07
1.91128e-06
-1.67992e-07
2.06804e-06
-1.56792e-07
2.21415e-06
-1.46151e-07
2.35018e-06
-1.36057e-07
2.47664e-06
-1.26498e-07
2.59407e-06
-1.17464e-07
2.70298e-06
-1.0894e-07
2.80387e-06
-1.00911e-07
2.8972e-06
-9.33607e-08
2.98345e-06
-8.62725e-08
3.06306e-06
-7.96254e-08
3.13644e-06
-7.3403e-08
3.20401e-06
-6.75832e-08
3.26615e-06
-6.21496e-08
3.32322e-06
-5.70801e-08
3.37557e-06
-5.23594e-08
3.42354e-06
-4.7966e-08
3.46742e-06
-4.3886e-08
3.50752e-06
-4.00991e-08
3.54411e-06
-3.65927e-08
3.57746e-06
-3.33479e-08
3.60781e-06
-3.03535e-08
3.63541e-06
-2.75918e-08
3.66046e-06
-2.50529e-08
3.68319e-06
-2.27202e-08
3.70377e-06
-2.05849e-08
3.72241e-06
-1.86315e-08
3.73927e-06
-1.68519e-08
3.75451e-06
-1.52313e-08
3.76827e-06
-1.37625e-08
3.78071e-06
-1.24315e-08
3.79195e-06
-1.12314e-08
3.80211e-06
-1.01492e-08
3.81129e-06
-9.17835e-09
3.8196e-06
-8.30661e-09
3.82714e-06
-7.52807e-09
3.83397e-06
-6.83124e-09
3.84019e-06
-6.21086e-09
3.84585e-06
-5.65637e-09
3.85102e-06
-5.16327e-09
3.85575e-06
-4.72203e-09
3.86008e-06
-4.32902e-09
3.86406e-06
-3.9758e-09
3.86773e-06
-3.65964e-09
3.87111e-06
-3.37323e-09
3.87422e-06
-3.11476e-09
3.87711e-06
-2.87802e-09
3.87977e-06
-2.66201e-09
3.88224e-06
-2.46155e-09
3.88452e-06
-2.27641e-09
3.88662e-06
-2.10227e-09
3.88856e-06
-1.93957e-09
3.89035e-06
-1.78473e-09
3.89199e-06
-1.63872e-09
3.89349e-06
-1.49858e-09
3.89486e-06
-1.36567e-09
3.8961e-06
-1.23752e-09
3.89722e-06
-1.11575e-09
3.89822e-06
-9.98275e-10
3.89911e-06
-8.86886e-10
3.89989e-06
-7.79747e-10
3.90057e-06
-6.78755e-10
3.90115e-06
-5.82254e-10
3.90165e-06
-4.9218e-10
3.90205e-06
-4.0699e-10
3.90238e-06
-3.28599e-10
3.90264e-06
-2.55564e-10
3.90283e-06
-1.89662e-10
3.90296e-06
-1.29519e-10
3.90304e-06
-7.65782e-11
3.90306e-06
-2.76395e-11
3.90305e-06
1.65061e-11
3.90299e-06
5.69978e-11
3.9029e-06
9.17735e-11
3.90278e-06
1.21986e-10
3.90263e-06
1.45795e-10
3.90246e-06
1.64505e-10
3.90229e-06
1.76427e-10
3.9021e-06
1.82929e-10
3.90192e-06
1.82387e-10
3.90174e-06
1.76162e-10
3.90158e-06
1.62584e-10
3.90143e-06
1.42804e-10
3.90132e-06
1.14543e-10
3.90124e-06
7.69832e-11
3.90121e-06
2.62362e-11
3.90124e-06
-3.43905e-11
3.90134e-06
-1.03893e-10
3.90152e-06
-1.81084e-10
3.90178e-06
-2.68438e-10
3.90214e-06
-3.65631e-10
3.90261e-06
-4.7589e-10
3.90321e-06
-5.99569e-10
3.90394e-06
-7.41132e-10
3.90484e-06
-9.02192e-10
3.90591e-06
-1.08991e-09
3.9072e-06
-1.30916e-09
3.90875e-06
-1.57449e-09
3.91063e-06
-1.90197e-09
3.91293e-06
-2.32987e-09
3.91581e-06
-2.92479e-09
3.91957e-06
-3.82485e-09
-5.70868e-09
-1.99219e-07
2.76891e-07
-4.30512e-07
4.63629e-07
-6.9449e-07
5.52133e-07
-9.67902e-07
5.74005e-07
-1.24245e-06
5.75704e-07
-1.51344e-06
5.67596e-07
-1.77773e-06
5.53287e-07
-2.03335e-06
5.35001e-07
-2.2791e-06
5.14343e-07
-2.51441e-06
4.92465e-07
-2.73911e-06
4.70232e-07
-2.95336e-06
4.48227e-07
-3.15744e-06
4.269e-07
-3.35187e-06
4.06492e-07
-3.53712e-06
3.87186e-07
-3.7138e-06
3.6904e-07
-3.8824e-06
3.52098e-07
-4.04355e-06
3.36315e-07
-4.19774e-06
3.2165e-07
-4.34551e-06
3.08025e-07
-4.48727e-06
2.9537e-07
-4.62348e-06
2.83592e-07
-4.75447e-06
2.72619e-07
-4.88062e-06
2.62361e-07
-5.0022e-06
2.5274e-07
-5.11948e-06
2.43677e-07
-5.23269e-06
2.35094e-07
-5.34205e-06
2.26929e-07
-5.4477e-06
2.19119e-07
-5.54977e-06
2.11607e-07
-5.64839e-06
2.04335e-07
-5.74361e-06
1.9725e-07
-5.83551e-06
1.90298e-07
-5.92411e-06
1.8343e-07
-6.00942e-06
1.76597e-07
-6.09141e-06
1.69751e-07
-6.17004e-06
1.62842e-07
-6.24523e-06
1.55823e-07
-6.31691e-06
1.48642e-07
-6.38493e-06
1.41248e-07
-6.44916e-06
1.33588e-07
-6.50942e-06
1.25604e-07
-6.56549e-06
1.17239e-07
-6.61715e-06
1.08431e-07
-6.66413e-06
9.91189e-08
-6.70613e-06
8.92403e-08
-6.74282e-06
7.87323e-08
-6.77385e-06
6.75275e-08
-6.7988e-06
5.55525e-08
-6.81727e-06
4.27299e-08
-6.82876e-06
2.89883e-08
-6.83281e-06
1.42698e-08
-6.82892e-06
-1.49557e-09
-6.81663e-06
-1.8316e-08
-6.79547e-06
-3.61941e-08
-6.76487e-06
-5.52089e-08
-6.72427e-06
-7.54202e-08
-6.67306e-06
-9.68739e-08
-6.61064e-06
-1.19598e-07
-6.53638e-06
-1.436e-07
-6.44968e-06
-1.6886e-07
-6.34995e-06
-1.95329e-07
-6.23666e-06
-2.22925e-07
-6.10931e-06
-2.5153e-07
-5.96749e-06
-2.8098e-07
-5.81091e-06
-3.11071e-07
-5.63936e-06
-3.41557e-07
-5.45281e-06
-3.72151e-07
-5.25135e-06
-4.02526e-07
-5.03528e-06
-4.32317e-07
-4.80508e-06
-4.61141e-07
-4.56139e-06
-4.886e-07
-4.3051e-06
-5.14286e-07
-4.03726e-06
-5.37815e-07
-3.75909e-06
-5.58832e-07
-3.47198e-06
-5.77008e-07
-3.17743e-06
-5.92104e-07
-2.87702e-06
-6.03917e-07
-2.57239e-06
-6.12366e-07
-2.26515e-06
-6.17442e-07
-1.95688e-06
-6.19254e-07
-1.64906e-06
-6.17957e-07
-1.34293e-06
-6.13971e-07
-1.03962e-06
-6.07488e-07
-7.39673e-07
-5.99639e-07
-4.43039e-07
-5.91505e-07
-1.4723e-07
-5.84787e-07
1.42095e-07
-5.75686e-07
4.14978e-07
-5.59758e-07
6.72711e-07
-5.3703e-07
9.17359e-07
-5.09651e-07
1.15024e-06
-4.81732e-07
1.37122e-06
-4.54383e-07
1.58026e-06
-4.27919e-07
1.77752e-06
-4.02413e-07
1.96326e-06
-3.77883e-07
2.13782e-06
-3.54337e-07
2.3016e-06
-3.31786e-07
2.45503e-06
-3.1024e-07
2.59856e-06
-2.89706e-07
2.73267e-06
-2.70185e-07
2.85782e-06
-2.51671e-07
2.97449e-06
-2.3415e-07
3.08313e-06
-2.17605e-07
3.18422e-06
-2.0201e-07
3.27818e-06
-1.87337e-07
3.36544e-06
-1.73553e-07
3.44643e-06
-1.60623e-07
3.52153e-06
-1.48511e-07
3.59111e-06
-1.37181e-07
3.65555e-06
-1.26595e-07
3.71518e-06
-1.16716e-07
3.77033e-06
-1.07509e-07
3.8213e-06
-9.89381e-08
3.86838e-06
-9.09691e-08
3.91185e-06
-8.35708e-08
3.95197e-06
-7.67099e-08
3.98898e-06
-7.03582e-08
4.02312e-06
-6.44851e-08
4.05459e-06
-5.90649e-08
4.08361e-06
-5.40694e-08
4.11037e-06
-4.9475e-08
4.13505e-06
-4.52558e-08
4.15781e-06
-4.139e-08
4.17881e-06
-3.78535e-08
4.19821e-06
-3.46262e-08
4.21614e-06
-3.16854e-08
4.23273e-06
-2.90124e-08
4.24809e-06
-2.6586e-08
4.26233e-06
-2.43886e-08
4.27556e-06
-2.24004e-08
4.28786e-06
-2.06051e-08
4.29933e-06
-1.89844e-08
4.31002e-06
-1.75232e-08
4.32002e-06
-1.6205e-08
4.32939e-06
-1.50164e-08
4.33817e-06
-1.39425e-08
4.34642e-06
-1.29718e-08
4.35419e-06
-1.20916e-08
4.36151e-06
-1.1292e-08
4.36842e-06
-1.05625e-08
4.37494e-06
-9.89533e-09
4.38112e-06
-9.28178e-09
4.38696e-06
-8.71598e-09
4.39249e-06
-8.19116e-09
4.39773e-06
-7.70306e-09
4.40271e-06
-7.24655e-09
4.40743e-06
-6.81877e-09
4.41191e-06
-6.41595e-09
4.41616e-06
-6.03634e-09
4.4202e-06
-5.67727e-09
4.42404e-06
-5.33784e-09
4.4277e-06
-5.01616e-09
4.43117e-06
-4.71191e-09
4.43448e-06
-4.4238e-09
4.43764e-06
-4.15185e-09
4.44065e-06
-3.89514e-09
4.44352e-06
-3.6539e-09
4.44627e-06
-3.4274e-09
4.44891e-06
-3.21597e-09
4.45144e-06
-3.01897e-09
4.45387e-06
-2.83673e-09
4.45621e-06
-2.66865e-09
4.45847e-06
-2.51499e-09
4.46066e-06
-2.37517e-09
4.46278e-06
-2.24934e-09
4.46484e-06
-2.13689e-09
4.46685e-06
-2.03807e-09
4.46882e-06
-1.95229e-09
4.47076e-06
-1.87965e-09
4.47267e-06
-1.81965e-09
4.47456e-06
-1.77248e-09
4.47645e-06
-1.73778e-09
4.47833e-06
-1.71572e-09
4.48021e-06
-1.70598e-09
4.4821e-06
-1.70879e-09
4.48401e-06
-1.72395e-09
4.48594e-06
-1.75178e-09
4.48789e-06
-1.79233e-09
4.48988e-06
-1.84617e-09
4.49191e-06
-1.91367e-09
4.49398e-06
-1.99552e-09
4.49609e-06
-2.09205e-09
4.49826e-06
-2.20428e-09
4.50049e-06
-2.3331e-09
4.50278e-06
-2.47973e-09
4.50516e-06
-2.64583e-09
4.50763e-06
-2.83377e-09
4.51019e-06
-3.04649e-09
4.51288e-06
-3.28791e-09
4.5157e-06
-3.56298e-09
4.51867e-06
-3.87849e-09
4.52181e-06
-4.24351e-09
4.52516e-06
-4.67162e-09
4.52875e-06
-5.18311e-09
4.53264e-06
-5.81184e-09
4.5369e-06
-6.61349e-09
4.54163e-06
-7.69399e-09
4.547e-06
-9.24932e-09
-1.19724e-08
-2.40757e-07
5.17649e-07
-4.80471e-07
7.03365e-07
-7.17326e-07
7.89046e-07
-9.60237e-07
8.16944e-07
-1.20355e-06
8.19064e-07
-1.44312e-06
8.07239e-07
-1.67648e-06
7.86705e-07
-1.90209e-06
7.60687e-07
-2.11912e-06
7.31431e-07
-2.32715e-06
7.00562e-07
-2.52613e-06
6.69248e-07
-2.71617e-06
6.38334e-07
-2.89761e-06
6.08357e-07
-3.07079e-06
5.79696e-07
-3.23614e-06
5.52558e-07
-3.39412e-06
5.27048e-07
-3.54518e-06
5.03184e-07
-3.68976e-06
4.80928e-07
-3.82829e-06
4.60217e-07
-3.9612e-06
4.40946e-07
-4.08882e-06
4.23016e-07
-4.21153e-06
4.06307e-07
-4.32961e-06
3.90714e-07
-4.44337e-06
3.76115e-07
-4.55302e-06
3.62407e-07
-4.65881e-06
3.49478e-07
-4.76094e-06
3.37226e-07
-4.85957e-06
3.25561e-07
-4.95485e-06
3.14395e-07
-5.04689e-06
3.03646e-07
-5.13578e-06
2.93233e-07
-5.22161e-06
2.8308e-07
-5.30443e-06
2.73112e-07
-5.38426e-06
2.63258e-07
-5.46111e-06
2.53446e-07
-5.53497e-06
2.43607e-07
-5.6058e-06
2.33668e-07
-5.67354e-06
2.23557e-07
-5.7381e-06
2.13198e-07
-5.79937e-06
2.02515e-07
-5.85722e-06
1.91426e-07
-5.91147e-06
1.79848e-07
-5.96193e-06
1.6769e-07
-6.00836e-06
1.54863e-07
-6.05052e-06
1.41273e-07
-6.08811e-06
1.26824e-07
-6.12081e-06
1.11422e-07
-6.14826e-06
9.49676e-08
-6.17007e-06
7.73549e-08
-6.18582e-06
5.84754e-08
-6.19506e-06
3.82285e-08
-6.19734e-06
1.65415e-08
-6.19219e-06
-6.64476e-09
-6.17917e-06
-3.13464e-08
-6.15775e-06
-5.76074e-08
-6.12742e-06
-8.55379e-08
-6.08761e-06
-1.15232e-07
-6.03772e-06
-1.46759e-07
-5.97715e-06
-1.80163e-07
-5.90529e-06
-2.15454e-07
-5.82153e-06
-2.52605e-07
-5.72531e-06
-2.91545e-07
-5.61606e-06
-3.32156e-07
-5.49331e-06
-3.74265e-07
-5.35665e-06
-4.17633e-07
-5.20574e-06
-4.6196e-07
-5.0404e-06
-5.06885e-07
-4.86055e-06
-5.51989e-07
-4.66628e-06
-5.9679e-07
-4.45784e-06
-6.40747e-07
-4.23568e-06
-6.83295e-07
-4.00042e-06
-7.23853e-07
-3.7529e-06
-7.61806e-07
-3.49413e-06
-7.96586e-07
-3.22529e-06
-8.27682e-07
-2.94771e-06
-8.54593e-07
-2.66283e-06
-8.76986e-07
-2.37219e-06
-8.94566e-07
-2.07735e-06
-9.07213e-07
-1.77984e-06
-9.14955e-07
-1.48117e-06
-9.17937e-07
-1.18269e-06
-9.16439e-07
-8.85515e-07
-9.11152e-07
-5.90575e-07
-9.02431e-07
-2.98042e-07
-8.92169e-07
-8.7809e-09
-8.80757e-07
2.7027e-07
-8.63831e-07
5.35008e-07
-8.40425e-07
7.866e-07
-8.11355e-07
1.02669e-06
-7.7712e-07
1.25652e-06
-7.39471e-07
1.47576e-06
-7.00948e-07
1.68407e-06
-6.6267e-07
1.88132e-06
-6.25151e-07
2.06756e-06
-5.88648e-07
2.243e-06
-5.53317e-07
2.40792e-06
-5.1926e-07
2.56267e-06
-4.86554e-07
2.70767e-06
-4.55251e-07
2.84334e-06
-4.25386e-07
2.97011e-06
-3.96975e-07
3.08844e-06
-3.70018e-07
3.19878e-06
-3.44504e-07
3.30156e-06
-3.20406e-07
3.39723e-06
-2.97693e-07
3.4862e-06
-2.76322e-07
3.56888e-06
-2.56247e-07
3.64567e-06
-2.37417e-07
3.71692e-06
-2.19781e-07
3.78302e-06
-2.03284e-07
3.84429e-06
-1.87872e-07
3.90106e-06
-1.73491e-07
3.95363e-06
-1.60088e-07
4.0023e-06
-1.47611e-07
4.04734e-06
-1.36012e-07
4.08901e-06
-1.25242e-07
4.12755e-06
-1.15254e-07
4.1632e-06
-1.06005e-07
4.19616e-06
-9.74523e-08
4.22665e-06
-8.9555e-08
4.25486e-06
-8.22752e-08
4.28096e-06
-7.55746e-08
4.30513e-06
-6.94185e-08
4.32751e-06
-6.37716e-08
4.34826e-06
-5.86018e-08
4.36751e-06
-5.38762e-08
4.3854e-06
-4.95649e-08
4.40203e-06
-4.56372e-08
4.41751e-06
-4.20654e-08
4.43194e-06
-3.88205e-08
4.44542e-06
-3.5877e-08
4.45803e-06
-3.32081e-08
4.46984e-06
-3.07903e-08
4.48092e-06
-2.85992e-08
4.49133e-06
-2.66137e-08
4.50113e-06
-2.4812e-08
4.51037e-06
-2.31759e-08
4.51908e-06
-2.16863e-08
4.52732e-06
-2.0328e-08
4.53512e-06
-1.90852e-08
4.5425e-06
-1.79454e-08
4.54951e-06
-1.6896e-08
4.55615e-06
-1.59273e-08
4.56247e-06
-1.50294e-08
4.56848e-06
-1.41955e-08
4.57419e-06
-1.34179e-08
4.57964e-06
-1.2692e-08
4.58484e-06
-1.2012e-08
4.5898e-06
-1.13752e-08
4.59454e-06
-1.07773e-08
4.59908e-06
-1.02167e-08
4.60343e-06
-9.69034e-09
4.60762e-06
-9.19744e-09
4.61164e-06
-8.73564e-09
4.61552e-06
-8.3047e-09
4.61927e-06
-7.9027e-09
4.62291e-06
-7.52965e-09
4.62644e-06
-7.18385e-09
4.62988e-06
-6.86546e-09
4.63323e-06
-6.57285e-09
4.63652e-06
-6.30622e-09
4.63975e-06
-6.06397e-09
4.64293e-06
-5.8463e-09
4.64606e-06
-5.65159e-09
4.64917e-06
-5.48006e-09
4.65225e-06
-5.33011e-09
4.65531e-06
-5.20196e-09
4.65837e-06
-5.09412e-09
4.66142e-06
-5.00687e-09
4.66448e-06
-4.93868e-09
4.66755e-06
-4.88988e-09
4.67064e-06
-4.85906e-09
4.67375e-06
-4.84668e-09
4.67688e-06
-4.85145e-09
4.68005e-06
-4.87398e-09
4.68325e-06
-4.91316e-09
4.6865e-06
-4.9698e-09
4.68979e-06
-5.04304e-09
4.69313e-06
-5.13404e-09
4.69652e-06
-5.24224e-09
4.69997e-06
-5.36919e-09
4.70349e-06
-5.51457e-09
4.70708e-06
-5.6802e-09
4.71074e-06
-5.86646e-09
4.71448e-06
-6.07609e-09
4.7183e-06
-6.31019e-09
4.72223e-06
-6.57258e-09
4.72626e-06
-6.86574e-09
4.7304e-06
-7.19525e-09
4.73467e-06
-7.56557e-09
4.73909e-06
-7.98515e-09
4.74367e-06
-8.46208e-09
4.74842e-06
-9.01044e-09
4.75338e-06
-9.64656e-09
4.75858e-06
-1.03988e-08
4.76406e-06
-1.13071e-08
4.76987e-06
-1.24406e-08
4.77606e-06
-1.39159e-08
4.78269e-06
-1.59237e-08
-1.9052e-08
-2.45079e-07
7.62839e-07
-4.73437e-07
9.31788e-07
-6.92217e-07
1.00782e-06
-9.09529e-07
1.03433e-06
-1.12429e-06
1.03385e-06
-1.33443e-06
1.01743e-06
-1.53856e-06
9.90887e-07
-1.7358e-06
9.57984e-07
-1.92567e-06
9.21353e-07
-2.10796e-06
8.82901e-07
-2.28267e-06
8.44012e-07
-2.44995e-06
8.05632e-07
-2.61002e-06
7.68447e-07
-2.76317e-06
7.32863e-07
-2.90973e-06
6.99131e-07
-3.05003e-06
6.67369e-07
-3.18442e-06
6.37603e-07
-3.31326e-06
6.09793e-07
-3.43687e-06
5.8385e-07
-3.55557e-06
5.59666e-07
-3.66966e-06
5.37115e-07
-3.77941e-06
5.16062e-07
-3.88506e-06
4.96369e-07
-3.98684e-06
4.77904e-07
-4.08497e-06
4.60534e-07
-4.17962e-06
4.44125e-07
-4.27095e-06
4.28561e-07
-4.35912e-06
4.13725e-07
-4.44423e-06
3.99512e-07
-4.5264e-06
3.85818e-07
-4.60571e-06
3.72544e-07
-4.68223e-06
3.59597e-07
-4.756e-06
3.46884e-07
-4.82706e-06
3.34314e-07
-4.89542e-06
3.21798e-07
-4.96106e-06
3.09247e-07
-5.02396e-06
2.96567e-07
-5.08407e-06
2.83666e-07
-5.14133e-06
2.70445e-07
-5.19562e-06
2.56802e-07
-5.24683e-06
2.42631e-07
-5.2948e-06
2.27819e-07
-5.33937e-06
2.1225e-07
-5.38031e-06
1.95802e-07
-5.41739e-06
1.78348e-07
-5.45034e-06
1.59763e-07
-5.47884e-06
1.39916e-07
-5.50255e-06
1.18676e-07
-5.52111e-06
9.59068e-08
-5.5341e-06
7.14664e-08
-5.5411e-06
4.52233e-08
-5.54164e-06
1.70793e-08
-5.53528e-06
-1.30071e-08
-5.52159e-06
-4.50427e-08
-5.50008e-06
-7.91217e-08
-5.47022e-06
-1.15394e-07
-5.43146e-06
-1.53989e-07
-5.38322e-06
-1.95002e-07
-5.32488e-06
-2.38491e-07
-5.25586e-06
-2.84473e-07
-5.17554e-06
-3.32915e-07
-5.08335e-06
-3.83727e-07
-4.97874e-06
-4.36759e-07
-4.8612e-06
-4.91787e-07
-4.73032e-06
-5.48504e-07
-4.58575e-06
-6.06514e-07
-4.42728e-06
-6.65344e-07
-4.25481e-06
-7.24451e-07
-4.06839e-06
-7.83206e-07
-3.86824e-06
-8.40886e-07
-3.65479e-06
-8.96745e-07
-3.42861e-06
-9.50032e-07
-3.1905e-06
-9.99919e-07
-2.94145e-06
-1.04564e-06
-2.68256e-06
-1.08657e-06
-2.41517e-06
-1.122e-06
-2.14064e-06
-1.15152e-06
-1.86045e-06
-1.17476e-06
-1.57617e-06
-1.1915e-06
-1.28923e-06
-1.2019e-06
-1.00113e-06
-1.20604e-06
-7.13124e-07
-1.20445e-06
-4.26313e-07
-1.19797e-06
-1.40625e-07
-1.18812e-06
1.39697e-07
-1.17249e-06
4.08522e-07
-1.14957e-06
6.65374e-07
-1.12068e-06
9.10801e-07
-1.08585e-06
1.14521e-06
-1.04576e-06
1.36937e-06
-1.00128e-06
1.58381e-06
-9.53901e-07
1.78825e-06
-9.05375e-07
1.98241e-06
-8.56822e-07
2.16619e-06
-8.08914e-07
2.33962e-06
-7.62072e-07
2.50288e-06
-7.16578e-07
2.65624e-06
-6.7263e-07
2.80004e-06
-6.30367e-07
2.93467e-06
-5.89886e-07
3.06052e-06
-5.51249e-07
3.17802e-06
-5.14486e-07
3.28759e-06
-4.79606e-07
3.38967e-06
-4.46595e-07
3.48468e-06
-4.15422e-07
3.57302e-06
-3.86046e-07
3.6551e-06
-3.58412e-07
3.7313e-06
-3.3246e-07
3.802e-06
-3.08125e-07
3.86755e-06
-2.85338e-07
3.92829e-06
-2.64028e-07
3.98454e-06
-2.44124e-07
4.0366e-06
-2.25557e-07
4.08476e-06
-2.08257e-07
4.12931e-06
-1.92157e-07
4.17049e-06
-1.77193e-07
4.20855e-06
-1.63301e-07
4.24372e-06
-1.50421e-07
4.27621e-06
-1.38497e-07
4.30623e-06
-1.27471e-07
4.33397e-06
-1.17293e-07
4.35961e-06
-1.0791e-07
4.38331e-06
-9.92743e-08
4.40523e-06
-9.13395e-08
4.42553e-06
-8.40607e-08
4.44432e-06
-7.73943e-08
4.46175e-06
-7.12992e-08
4.47792e-06
-6.57345e-08
4.49295e-06
-6.06621e-08
4.50693e-06
-5.6044e-08
4.51996e-06
-5.18446e-08
4.53212e-06
-4.80288e-08
4.54348e-06
-4.45639e-08
4.55411e-06
-4.14178e-08
4.56407e-06
-3.85609e-08
4.57343e-06
-3.59645e-08
4.58222e-06
-3.36028e-08
4.5905e-06
-3.14509e-08
4.5983e-06
-2.94867e-08
4.60567e-06
-2.76895e-08
4.61263e-06
-2.60413e-08
4.61921e-06
-2.45256e-08
4.62544e-06
-2.31282e-08
4.63136e-06
-2.18364e-08
4.63697e-06
-2.06396e-08
4.64231e-06
-1.95285e-08
4.64738e-06
-1.84954e-08
4.65223e-06
-1.75337e-08
4.65686e-06
-1.6638e-08
4.66129e-06
-1.58036e-08
4.66554e-06
-1.5027e-08
4.66963e-06
-1.43048e-08
4.67358e-06
-1.36346e-08
4.67739e-06
-1.30138e-08
4.6811e-06
-1.24406e-08
4.68471e-06
-1.19131e-08
4.68824e-06
-1.14297e-08
4.6917e-06
-1.09886e-08
4.69511e-06
-1.05885e-08
4.69847e-06
-1.02277e-08
4.7018e-06
-9.90483e-09
4.70512e-06
-9.61824e-09
4.70842e-06
-9.36659e-09
4.71172e-06
-9.1483e-09
4.71503e-06
-8.96206e-09
4.71836e-06
-8.80635e-09
4.72171e-06
-8.67991e-09
4.72509e-06
-8.58136e-09
4.72851e-06
-8.50958e-09
4.73196e-06
-8.46332e-09
4.73547e-06
-8.44153e-09
4.73902e-06
-8.44316e-09
4.74263e-06
-8.46735e-09
4.7463e-06
-8.51327e-09
4.75003e-06
-8.58029e-09
4.75382e-06
-8.66787e-09
4.75768e-06
-8.77566e-09
4.76162e-06
-8.9035e-09
4.76562e-06
-9.05139e-09
4.76971e-06
-9.21962e-09
4.77388e-06
-9.40865e-09
4.77813e-06
-9.6193e-09
4.78246e-06
-9.85248e-09
4.78689e-06
-1.01096e-08
4.79142e-06
-1.03925e-08
4.79604e-06
-1.07037e-08
4.80078e-06
-1.1046e-08
4.80563e-06
-1.14235e-08
4.8106e-06
-1.18406e-08
4.81571e-06
-1.23036e-08
4.82096e-06
-1.28194e-08
4.82637e-06
-1.33975e-08
4.83195e-06
-1.40495e-08
4.83772e-06
-1.47911e-08
4.84371e-06
-1.56432e-08
4.84994e-06
-1.66367e-08
4.85643e-06
-1.78176e-08
4.86323e-06
-1.92557e-08
4.87035e-06
-2.10677e-08
4.8778e-06
-2.34067e-08
-2.67315e-08
-2.3083e-07
9.93649e-07
-4.41513e-07
1.14246e-06
-6.39986e-07
1.20635e-06
-8.32999e-07
1.22731e-06
-1.02123e-06
1.2221e-06
-1.20416e-06
1.20038e-06
-1.38127e-06
1.16802e-06
-1.55221e-06
1.12896e-06
-1.71681e-06
1.08599e-06
-1.87503e-06
1.04116e-06
-2.02695e-06
9.95943e-07
-2.17268e-06
9.51396e-07
-2.31243e-06
9.08208e-07
-2.44641e-06
8.66857e-07
-2.57488e-06
8.27606e-07
-2.69808e-06
7.90587e-07
-2.81628e-06
7.55829e-07
-2.92975e-06
7.23282e-07
-3.03875e-06
6.92863e-07
-3.14351e-06
6.64443e-07
-3.24427e-06
6.37884e-07
-3.34124e-06
6.13037e-07
-3.43461e-06
5.89748e-07
-3.52457e-06
5.67866e-07
-3.61129e-06
5.4724e-07
-3.69489e-06
5.2773e-07
-3.77552e-06
5.0919e-07
-3.8533e-06
4.91497e-07
-3.92831e-06
4.74526e-07
-4.00065e-06
4.5816e-07
-4.07039e-06
4.42285e-07
-4.13759e-06
4.26792e-07
-4.20228e-06
4.11576e-07
-4.2645e-06
3.9653e-07
-4.32425e-06
3.8155e-07
-4.38154e-06
3.66531e-07
-4.43633e-06
3.51362e-07
-4.4886e-06
3.35932e-07
-4.53828e-06
3.20121e-07
-4.58529e-06
3.03807e-07
-4.62952e-06
2.86859e-07
-4.67085e-06
2.69139e-07
-4.7091e-06
2.50502e-07
-4.7441e-06
2.30797e-07
-4.77563e-06
2.09868e-07
-4.80343e-06
1.87555e-07
-4.82721e-06
1.63696e-07
-4.84667e-06
1.38127e-07
-4.86144e-06
1.10679e-07
-4.87116e-06
8.11775e-08
-4.8754e-06
4.94607e-08
-4.87372e-06
1.53929e-08
-4.86569e-06
-2.10371e-08
-4.85092e-06
-5.9817e-08
-4.82893e-06
-1.01112e-07
-4.7992e-06
-1.45116e-07
-4.7612e-06
-1.91993e-07
-4.71433e-06
-2.41863e-07
-4.65802e-06
-2.94803e-07
-4.59165e-06
-3.50836e-07
-4.51463e-06
-4.09928e-07
-4.42637e-06
-4.71973e-07
-4.32633e-06
-5.36792e-07
-4.21398e-06
-6.0412e-07
-4.08889e-06
-6.73583e-07
-3.9507e-06
-7.44693e-07
-3.79917e-06
-8.16866e-07
-3.63416e-06
-8.89445e-07
-3.4557e-06
-9.61663e-07
-3.26397e-06
-1.0326e-06
-3.05938e-06
-1.10133e-06
-2.84245e-06
-1.16696e-06
-2.61393e-06
-1.22843e-06
-2.37483e-06
-1.28475e-06
-2.12616e-06
-1.33524e-06
-1.86922e-06
-1.37894e-06
-1.60539e-06
-1.41535e-06
-1.33606e-06
-1.4441e-06
-1.06285e-06
-1.46471e-06
-7.87075e-07
-1.47769e-06
-5.10188e-07
-1.48293e-06
-2.32948e-07
-1.48169e-06
4.25457e-08
-1.47346e-06
3.10696e-07
-1.45628e-06
5.6908e-07
-1.43087e-06
8.17591e-07
-1.39808e-06
1.05579e-06
-1.35887e-06
1.28373e-06
-1.31379e-06
1.50159e-06
-1.26363e-06
1.70972e-06
-1.20941e-06
1.90834e-06
-1.15252e-06
2.09735e-06
-1.09436e-06
2.27658e-06
-1.03604e-06
2.446e-06
-9.78324e-07
2.60569e-06
-9.21755e-07
2.75584e-06
-8.6672e-07
2.8967e-06
-8.13497e-07
3.02861e-06
-7.62284e-07
3.15193e-06
-7.13217e-07
3.26706e-06
-6.66382e-07
3.37438e-06
-6.21824e-07
3.47432e-06
-5.79555e-07
3.56727e-06
-5.39561e-07
3.65364e-06
-5.01805e-07
3.73382e-06
-4.66235e-07
3.80818e-06
-4.32786e-07
3.87709e-06
-4.01382e-07
3.9409e-06
-3.71944e-07
3.99994e-06
-3.44387e-07
4.05453e-06
-3.18625e-07
4.10497e-06
-2.94571e-07
4.15155e-06
-2.72139e-07
4.19454e-06
-2.51246e-07
4.23418e-06
-2.31808e-07
4.27073e-06
-2.13747e-07
4.30441e-06
-1.96986e-07
4.33544e-06
-1.81452e-07
4.36402e-06
-1.67074e-07
4.39033e-06
-1.53786e-07
4.41456e-06
-1.41522e-07
4.43688e-06
-1.30221e-07
4.45743e-06
-1.19823e-07
4.47636e-06
-1.10272e-07
4.49381e-06
-1.01512e-07
4.50991e-06
-9.34907e-08
4.52477e-06
-8.61574e-08
4.5385e-06
-7.94632e-08
4.5512e-06
-7.33601e-08
4.56296e-06
-6.78033e-08
4.57387e-06
-6.27482e-08
4.58399e-06
-5.81533e-08
4.59341e-06
-5.39777e-08
4.60218e-06
-5.01841e-08
4.61036e-06
-4.67355e-08
4.61799e-06
-4.35988e-08
4.62513e-06
-4.0742e-08
4.63182e-06
-3.81368e-08
4.63809e-06
-3.5756e-08
4.64398e-06
-3.35767e-08
4.64952e-06
-3.15769e-08
4.65474e-06
-2.97385e-08
4.65965e-06
-2.80446e-08
4.6643e-06
-2.64817e-08
4.6687e-06
-2.5037e-08
4.67287e-06
-2.37011e-08
4.67684e-06
-2.24645e-08
4.68063e-06
-2.13207e-08
4.68426e-06
-2.02628e-08
4.68774e-06
-1.92866e-08
4.6911e-06
-1.83867e-08
4.69436e-06
-1.75602e-08
4.69753e-06
-1.6803e-08
4.70063e-06
-1.61126e-08
4.70367e-06
-1.54857e-08
4.70668e-06
-1.49202e-08
4.70966e-06
-1.44127e-08
4.71264e-06
-1.39614e-08
4.71561e-06
-1.35631e-08
4.7186e-06
-1.3216e-08
4.72161e-06
-1.29167e-08
4.72466e-06
-1.26638e-08
4.72774e-06
-1.24539e-08
4.73088e-06
-1.22855e-08
4.73407e-06
-1.21555e-08
4.73733e-06
-1.20625e-08
4.74065e-06
-1.20037e-08
4.74405e-06
-1.19778e-08
4.74752e-06
-1.19823e-08
4.75107e-06
-1.20163e-08
4.75471e-06
-1.20773e-08
4.75843e-06
-1.21648e-08
4.76224e-06
-1.22767e-08
4.76613e-06
-1.24127e-08
4.77012e-06
-1.25712e-08
4.77421e-06
-1.27524e-08
4.77839e-06
-1.29549e-08
4.78266e-06
-1.31794e-08
4.78703e-06
-1.34252e-08
4.79151e-06
-1.36936e-08
4.79608e-06
-1.39843e-08
4.80076e-06
-1.42993e-08
4.80554e-06
-1.46391e-08
4.81044e-06
-1.50065e-08
4.81544e-06
-1.54031e-08
4.82057e-06
-1.58331e-08
4.82582e-06
-1.62994e-08
4.8312e-06
-1.68078e-08
4.83672e-06
-1.73633e-08
4.84239e-06
-1.79742e-08
4.84821e-06
-1.86485e-08
4.85421e-06
-1.93981e-08
4.86039e-06
-2.02358e-08
4.86677e-06
-2.11803e-08
4.87337e-06
-2.22539e-08
4.88021e-06
-2.34903e-08
4.88731e-06
-2.49351e-08
4.8947e-06
-2.66572e-08
4.90237e-06
-2.87622e-08
4.91028e-06
-3.13583e-08
-3.47783e-08
-2.08187e-07
1.20186e-06
-3.97195e-07
1.33147e-06
-5.73336e-07
1.38244e-06
-7.42059e-07
1.39606e-06
-9.04958e-07
1.38499e-06
-1.0623e-06
1.35773e-06
-1.21413e-06
1.31987e-06
-1.36047e-06
1.27531e-06
-1.50135e-06
1.2269e-06
-1.63689e-06
1.17671e-06
-1.76717e-06
1.12625e-06
-1.89236e-06
1.07659e-06
-2.01261e-06
1.02847e-06
-2.12811e-06
9.82359e-07
-2.23904e-06
9.38545e-07
-2.3456e-06
8.97161e-07
-2.44799e-06
8.58236e-07
-2.54641e-06
8.21728e-07
-2.64107e-06
7.87532e-07
-2.73214e-06
7.55522e-07
-2.8198e-06
7.25547e-07
-2.9042e-06
6.97444e-07
-2.9855e-06
6.7105e-07
-3.06384e-06
6.462e-07
-3.13933e-06
6.22731e-07
-3.21209e-06
6.00483e-07
-3.28222e-06
5.79313e-07
-3.3498e-06
5.59075e-07
-3.4149e-06
5.39633e-07
-3.47761e-06
5.20861e-07
-3.53795e-06
5.02634e-07
-3.59599e-06
4.84832e-07
-3.65176e-06
4.67338e-07
-3.70526e-06
4.50036e-07
-3.75653e-06
4.32809e-07
-3.80554e-06
4.15539e-07
-3.85228e-06
3.98102e-07
-3.89672e-06
3.8037e-07
-3.93881e-06
3.62209e-07
-3.97848e-06
3.43474e-07
-4.01564e-06
3.24014e-07
-4.05017e-06
3.03669e-07
-4.08194e-06
2.82267e-07
-4.11078e-06
2.59631e-07
-4.13649e-06
2.35573e-07
-4.15884e-06
2.09904e-07
-4.17758e-06
1.82429e-07
-4.19241e-06
1.52952e-07
-4.203e-06
1.21272e-07
-4.20902e-06
8.71849e-08
-4.21006e-06
5.05044e-08
-4.20571e-06
1.10336e-08
-4.19557e-06
-3.11789e-08
-4.17929e-06
-7.60986e-08
-4.1564e-06
-1.24005e-07
-4.12639e-06
-1.75127e-07
-4.08872e-06
-2.2966e-07
-4.04283e-06
-2.87753e-07
-3.98813e-06
-3.495e-07
-3.92403e-06
-4.14933e-07
-3.84993e-06
-4.84018e-07
-3.76525e-06
-5.56641e-07
-3.66944e-06
-6.326e-07
-3.56195e-06
-7.11591e-07
-3.44234e-06
-7.93188e-07
-3.31022e-06
-8.768e-07
-3.16534e-06
-9.61737e-07
-3.00755e-06
-1.04723e-06
-2.8368e-06
-1.1324e-06
-2.65327e-06
-1.21613e-06
-2.45735e-06
-1.29725e-06
-2.24952e-06
-1.3748e-06
-2.03046e-06
-1.44749e-06
-1.80123e-06
-1.51398e-06
-1.56275e-06
-1.57372e-06
-1.31629e-06
-1.62541e-06
-1.06333e-06
-1.66832e-06
-8.05096e-07
-1.70234e-06
-5.43247e-07
-1.72657e-06
-2.78924e-07
-1.74202e-06
-1.33501e-08
-1.74851e-06
2.48668e-07
-1.74372e-06
5.03469e-07
-1.72827e-06
7.50598e-07
-1.70341e-06
9.89393e-07
-1.66966e-06
1.21926e-06
-1.62795e-06
1.43969e-06
-1.5793e-06
1.65051e-06
-1.52461e-06
1.85177e-06
-1.46488e-06
2.04362e-06
-1.40127e-06
2.22619e-06
-1.33509e-06
2.39947e-06
-1.26763e-06
2.56344e-06
-1.2e-06
2.71813e-06
-1.13301e-06
2.86367e-06
-1.06729e-06
3.00028e-06
-1.00333e-06
3.12822e-06
-9.41442e-07
3.24782e-06
-8.81889e-07
3.35943e-06
-8.24837e-07
3.46343e-06
-7.7039e-07
3.5602e-06
-7.18604e-07
3.65013e-06
-6.69494e-07
3.7336e-06
-6.23043e-07
3.81099e-06
-5.79207e-07
3.88267e-06
-5.37923e-07
3.94899e-06
-4.99113e-07
4.01029e-06
-4.6269e-07
4.0669e-06
-4.28558e-07
4.11913e-06
-3.96618e-07
4.16726e-06
-3.66768e-07
4.2116e-06
-3.38906e-07
4.25239e-06
-3.12932e-07
4.28989e-06
-2.88748e-07
4.32434e-06
-2.66257e-07
4.35596e-06
-2.45367e-07
4.38496e-06
-2.25988e-07
4.41155e-06
-2.08036e-07
4.4359e-06
-1.91426e-07
4.4582e-06
-1.76082e-07
4.47861e-06
-1.61927e-07
4.49728e-06
-1.4889e-07
4.51436e-06
-1.369e-07
4.52998e-06
-1.25892e-07
4.54427e-06
-1.15801e-07
4.55735e-06
-1.06565e-07
4.56932e-06
-9.81256e-08
4.58029e-06
-9.04246e-08
4.59034e-06
-8.3407e-08
4.59956e-06
-7.70193e-08
4.60802e-06
-7.12106e-08
4.61581e-06
-6.59318e-08
4.62297e-06
-6.11362e-08
4.62957e-06
-5.67796e-08
4.63565e-06
-5.28203e-08
4.64128e-06
-4.92195e-08
4.64648e-06
-4.59413e-08
4.6513e-06
-4.29527e-08
4.65577e-06
-4.0224e-08
4.65993e-06
-3.77284e-08
4.66379e-06
-3.54423e-08
4.6674e-06
-3.33451e-08
4.67078e-06
-3.14188e-08
4.67395e-06
-2.9648e-08
4.67693e-06
-2.80196e-08
4.67976e-06
-2.65224e-08
4.68244e-06
-2.51472e-08
4.68501e-06
-2.38858e-08
4.68748e-06
-2.27315e-08
4.68987e-06
-2.16784e-08
4.69221e-06
-2.07214e-08
4.69451e-06
-1.98556e-08
4.69678e-06
-1.90769e-08
4.69905e-06
-1.83811e-08
4.70133e-06
-1.77643e-08
4.70364e-06
-1.72227e-08
4.70598e-06
-1.67525e-08
4.70837e-06
-1.63499e-08
4.71082e-06
-1.60113e-08
4.71334e-06
-1.57329e-08
4.71593e-06
-1.55112e-08
4.71861e-06
-1.53426e-08
4.72138e-06
-1.52237e-08
4.72425e-06
-1.51512e-08
4.72722e-06
-1.51219e-08
4.73029e-06
-1.5133e-08
4.73347e-06
-1.51816e-08
4.73675e-06
-1.52652e-08
4.74015e-06
-1.53812e-08
4.74367e-06
-1.55277e-08
4.74729e-06
-1.57025e-08
4.75103e-06
-1.59041e-08
4.75489e-06
-1.61308e-08
4.75886e-06
-1.63816e-08
4.76294e-06
-1.66552e-08
4.76714e-06
-1.69513e-08
4.77145e-06
-1.72691e-08
4.77588e-06
-1.76088e-08
4.78043e-06