/*--------------------------------*- C++ -*----------------------------------*\
  =========                 |
  \\      /  F ield         | OpenFOAM: The Open Source CFD Toolbox
   \\    /   O peration     | Website:  https://openfoam.org
    \\  /    A nd           | Version:  7
     \\/     M anipulation  |
\*---------------------------------------------------------------------------*/
FoamFile
{
    version     2.0;
    format      ascii;
    class       volVectorField;
    location    "200";
    object      U;
}
// * * * * * * * * * * * * * * * * * * * * * * * * * * * * * * * * * * * * * //

dimensions      [0 1 -1 0 0 0 0];

internalField   nonuniform List<vector> 
16900
(
(-0.0508265 0.0741372 0)
(-0.138238 0.183127 0)
(-0.360485 0.201846 0)
(-0.648032 0.188339 0)
(-0.906688 0.182061 0)
(-1.16606 0.174861 0)
(-1.42017 0.166926 0)
(-1.66674 0.158656 0)
(-1.90442 0.150308 0)
(-2.13242 0.1421 0)
(-2.35038 0.134166 0)
(-2.55827 0.126615 0)
(-2.75628 0.119491 0)
(-2.94479 0.112838 0)
(-3.12424 0.106655 0)
(-3.29515 0.100939 0)
(-3.45804 0.0956692 0)
(-3.61347 0.0908098 0)
(-3.76194 0.0863521 0)
(-3.90397 0.0822266 0)
(-4.04001 0.0784358 0)
(-4.17049 0.074913 0)
(-4.29578 0.0716616 0)
(-4.41624 0.0686212 0)
(-4.53216 0.0657944 0)
(-4.64381 0.0631341 0)
(-4.75146 0.060628 0)
(-4.85531 0.0582551 0)
(-4.95554 0.0559991 0)
(-5.0523 0.0538433 0)
(-5.1457 0.0517729 0)
(-5.23586 0.0497737 0)
(-5.32285 0.0478332 0)
(-5.40673 0.045939 0)
(-5.48755 0.0440803 0)
(-5.5653 0.0422453 0)
(-5.64 0.0404235 0)
(-5.71161 0.0386036 0)
(-5.78009 0.0367747 0)
(-5.84538 0.034925 0)
(-5.90737 0.0330423 0)
(-5.96596 0.0311129 0)
(-6.02101 0.0291231 0)
(-6.07235 0.027059 0)
(-6.11981 0.0249065 0)
(-6.16316 0.0226504 0)
(-6.20213 0.0202748 0)
(-6.23644 0.0177636 0)
(-6.26578 0.0150997 0)
(-6.28985 0.0122599 0)
(-6.30832 0.00921016 0)
(-6.32078 0.0059126 0)
(-6.3267 0.00234272 0)
(-6.32545 -0.00148172 0)
(-6.31669 -0.00555531 0)
(-6.29987 -0.00990536 0)
(-6.27448 -0.0145475 0)
(-6.23995 -0.0194948 0)
(-6.19572 -0.0247568 0)
(-6.14121 -0.0303388 0)
(-6.07583 -0.0362402 0)
(-5.99902 -0.0424544 0)
(-5.91025 -0.0489671 0)
(-5.809 -0.0557561 0)
(-5.69486 -0.0627895 0)
(-5.56747 -0.0700269 0)
(-5.42657 -0.0774181 0)
(-5.27204 -0.0849043 0)
(-5.10388 -0.0924172 0)
(-4.92225 -0.0998828 0)
(-4.72748 -0.107222 0)
(-4.5201 -0.11435 0)
(-4.30078 -0.121183 0)
(-4.07043 -0.127636 0)
(-3.83007 -0.133633 0)
(-3.58092 -0.139113 0)
(-3.32429 -0.144047 0)
(-3.06162 -0.148428 0)
(-2.79445 -0.152263 0)
(-2.52437 -0.15553 0)
(-2.25295 -0.158169 0)
(-1.98158 -0.160106 0)
(-1.71136 -0.161447 0)
(-1.44315 -0.162687 0)
(-1.17774 -0.164972 0)
(-0.916213 -0.169907 0)
(-0.660459 -0.178006 0)
(-0.410645 -0.18749 0)
(-0.177194 -0.192576 0)
(0.0953265 -0.180535 0)
(0.318302 -0.162604 0)
(0.533752 -0.146482 0)
(0.737907 -0.132497 0)
(0.930446 -0.120306 0)
(1.11161 -0.109564 0)
(1.28178 -0.0999947 0)
(1.44135 -0.0913917 0)
(1.59076 -0.0836012 0)
(1.73045 -0.0765083 0)
(1.86084 -0.0700252 0)
(1.9824 -0.0640831 0)
(2.09555 -0.0586264 0)
(2.20074 -0.0536095 0)
(2.2984 -0.0489927 0)
(2.38895 -0.0447428 0)
(2.47281 -0.0408291 0)
(2.55037 -0.0372255 0)
(2.62202 -0.0339072 0)
(2.68813 -0.030853 0)
(2.74905 -0.0280421 0)
(2.80513 -0.025457 0)
(2.85667 -0.0230801 0)
(2.90399 -0.0208967 0)
(2.94737 -0.0188917 0)
(2.9871 -0.0170531 0)
(3.02344 -0.0153678 0)
(3.05662 -0.0138256 0)
(3.08689 -0.0124152 0)
(3.11446 -0.0111281 0)
(3.13954 -0.00995452 0)
(3.16233 -0.00888705 0)
(3.18302 -0.00791721 0)
(3.20177 -0.00703862 0)
(3.21876 -0.00624378 0)
(3.23413 -0.00552713 0)
(3.24803 -0.00488196 0)
(3.26059 -0.0043034 0)
(3.27195 -0.0037854 0)
(3.2822 -0.00332362 0)
(3.29147 -0.0029126 0)
(3.29985 -0.00254847 0)
(3.30744 -0.00222629 0)
(3.31431 -0.00194263 0)
(3.32054 -0.00169304 0)
(3.32619 -0.00147453 0)
(3.33134 -0.00128313 0)
(3.33604 -0.00111629 0)
(3.34033 -0.000970527 0)
(3.34426 -0.000843723 0)
(3.34786 -0.000732898 0)
(3.35118 -0.000636355 0)
(3.35423 -0.00055159 0)
(3.35705 -0.000477315 0)
(3.35965 -0.000411468 0)
(3.36205 -0.000353135 0)
(3.36428 -0.000300652 0)
(3.36634 -0.000253431 0)
(3.36824 -0.000210157 0)
(3.36999 -0.000170519 0)
(3.37161 -0.000133492 0)
(3.37309 -9.89882e-05 0)
(3.37446 -6.62227e-05 0)
(3.3757 -3.52866e-05 0)
(3.37683 -5.59163e-06 0)
(3.37785 2.26485e-05 0)
(3.37876 4.98865e-05 0)
(3.37958 7.57875e-05 0)
(3.3803 0.000100685 0)
(3.38093 0.000124183 0)
(3.38148 0.000146518 0)
(3.38194 0.0001673 0)
(3.38233 0.00018676 0)
(3.38265 0.00020458 0)
(3.3829 0.000221096 0)
(3.38309 0.00023614 0)
(3.38322 0.000250172 0)
(3.38331 0.000263092 0)
(3.38335 0.00027534 0)
(3.38336 0.000286681 0)
(3.38332 0.000297241 0)
(3.38326 0.000306636 0)
(3.38316 0.000314969 0)
(3.38304 0.0003219 0)
(3.3829 0.000327555 0)
(3.38275 0.000331646 0)
(3.3826 0.000334307 0)
(3.38244 0.000335271 0)
(3.38228 0.000334619 0)
(3.38213 0.000332004 0)
(3.38199 0.00032728 0)
(3.38188 0.00031982 0)
(3.3818 0.000309188 0)
(3.38175 0.000295081 0)
(3.38175 0.000278145 0)
(3.38181 0.000258785 0)
(3.38193 0.000237177 0)
(3.38213 0.000213146 0)
(3.3824 0.000186518 0)
(3.38277 0.000156885 0)
(3.38324 0.000123789 0)
(3.38382 8.65207e-05 0)
(3.38453 4.42052e-05 0)
(3.38539 -4.53926e-06 0)
(3.38643 -6.1585e-05 0)
(3.38767 -0.000130283 0)
(3.38916 -0.000215831 0)
(3.39097 -0.000328335 0)
(3.39321 -0.000488951 0)
(3.39587 -0.000733948 0)
(3.40161 -0.00131124 0)
(-0.144223 0.165111 0)
(-0.249955 0.3173 0)
(-0.491727 0.39957 0)
(-0.735879 0.416238 0)
(-0.97944 0.416803 0)
(-1.22216 0.410117 0)
(-1.46018 0.398914 0)
(-1.69125 0.384861 0)
(-1.914 0.369112 0)
(-2.12765 0.352515 0)
(-2.33192 0.335687 0)
(-2.5268 0.319073 0)
(-2.7125 0.30298 0)
(-2.88939 0.287605 0)
(-3.05792 0.273067 0)
(-3.21856 0.259421 0)
(-3.37181 0.246687 0)
(-3.51819 0.234832 0)
(-3.65817 0.223835 0)
(-3.79221 0.213612 0)
(-3.92075 0.204135 0)
(-4.04416 0.19531 0)
(-4.1628 0.187102 0)
(-4.27698 0.179425 0)
(-4.38698 0.172241 0)
(-4.49306 0.165478 0)
(-4.59543 0.159086 0)
(-4.69429 0.153019 0)
(-4.78979 0.147233 0)
(-4.88208 0.141686 0)
(-4.97124 0.136338 0)
(-5.05738 0.131154 0)
(-5.14054 0.126096 0)
(-5.22076 0.121132 0)
(-5.29806 0.116231 0)
(-5.37244 0.111361 0)
(-5.44386 0.106491 0)
(-5.51227 0.101591 0)
(-5.57761 0.096631 0)
(-5.63977 0.0915799 0)
(-5.69863 0.0864057 0)
(-5.75406 0.0810746 0)
(-5.80587 0.075552 0)
(-5.85388 0.0698035 0)
(-5.89787 0.0637949 0)
(-5.9376 0.0574915 0)
(-5.97277 0.0508568 0)
(-6.00304 0.0438549 0)
(-6.0281 0.0364507 0)
(-6.04761 0.0286029 0)
(-6.06125 0.0202552 0)
(-6.06856 0.0113467 0)
(-6.06894 0.00183952 0)
(-6.06201 -0.00824667 0)
(-6.04746 -0.0189 0)
(-6.02478 -0.0301601 0)
(-5.99348 -0.0420564 0)
(-5.95304 -0.0546105 0)
(-5.9029 -0.0678338 0)
(-5.8425 -0.0817245 0)
(-5.77131 -0.0962665 0)
(-5.68877 -0.111427 0)
(-5.59438 -0.127153 0)
(-5.48766 -0.143373 0)
(-5.3682 -0.159988 0)
(-5.23567 -0.176879 0)
(-5.08983 -0.193906 0)
(-4.93057 -0.210903 0)
(-4.75789 -0.227687 0)
(-4.57197 -0.244054 0)
(-4.37314 -0.259796 0)
(-4.16189 -0.274694 0)
(-3.93893 -0.288528 0)
(-3.7051 -0.30109 0)
(-3.46145 -0.312189 0)
(-3.20915 -0.321665 0)
(-2.94951 -0.329413 0)
(-2.68394 -0.335365 0)
(-2.4139 -0.339506 0)
(-2.14086 -0.341809 0)
(-1.86624 -0.34226 0)
(-1.59139 -0.340843 0)
(-1.3175 -0.337804 0)
(-1.04582 -0.333705 0)
(-0.777148 -0.329684 0)
(-0.5124 -0.327233 0)
(-0.251931 -0.326445 0)
(0.013998 -0.325596 0)
(0.259646 -0.320214 0)
(0.495723 -0.305609 0)
(0.717075 -0.286026 0)
(0.927764 -0.266967 0)
(1.12809 -0.249012 0)
(1.31797 -0.232221 0)
(1.49743 -0.216497 0)
(1.66665 -0.201729 0)
(1.82589 -0.187827 0)
(1.97545 -0.174725 0)
(2.1157 -0.162376 0)
(2.24703 -0.150743 0)
(2.36984 -0.139795 0)
(2.48453 -0.129504 0)
(2.59153 -0.119843 0)
(2.69124 -0.110787 0)
(2.78406 -0.102309 0)
(2.8704 -0.094382 0)
(2.95064 -0.0869805 0)
(3.02514 -0.0800774 0)
(3.09426 -0.0736468 0)
(3.15834 -0.0676629 0)
(3.21771 -0.062101 0)
(3.27267 -0.0569369 0)
(3.32352 -0.0521477 0)
(3.37054 -0.0477112 0)
(3.41399 -0.0436064 0)
(3.45412 -0.0398133 0)
(3.49116 -0.0363129 0)
(3.52535 -0.033087 0)
(3.55689 -0.0301188 0)
(3.58598 -0.0273919 0)
(3.6128 -0.0248912 0)
(3.63753 -0.0226018 0)
(3.66034 -0.02051 0)
(3.68137 -0.0186023 0)
(3.70078 -0.0168664 0)
(3.71871 -0.0152899 0)
(3.73526 -0.0138615 0)
(3.75057 -0.0125697 0)
(3.76475 -0.0114043 0)
(3.77788 -0.0103546 0)
(3.79007 -0.00941126 0)
(3.8014 -0.00856458 0)
(3.81194 -0.00780594 0)
(3.82177 -0.00712662 0)
(3.83096 -0.0065189 0)
(3.83955 -0.00597502 0)
(3.84761 -0.00548824 0)
(3.85517 -0.00505181 0)
(3.86228 -0.00466 0)
(3.86897 -0.00430714 0)
(3.87529 -0.0039885 0)
(3.88125 -0.00369945 0)
(3.88689 -0.00343625 0)
(3.89222 -0.00319521 0)
(3.89726 -0.00297353 0)
(3.90205 -0.00276837 0)
(3.90658 -0.00257771 0)
(3.91088 -0.00239944 0)
(3.91496 -0.00223223 0)
(3.91884 -0.00207455 0)
(3.92252 -0.0019256 0)
(3.92602 -0.00178433 0)
(3.92934 -0.00165032 0)
(3.9325 -0.00152289 0)
(3.93551 -0.00140187 0)
(3.93838 -0.00128682 0)
(3.94111 -0.00117778 0)
(3.94372 -0.00107448 0)
(3.94622 -0.000977068 0)
(3.94861 -0.000885387 0)
(3.9509 -0.00079965 0)
(3.95309 -0.000719732 0)
(3.95521 -0.000645828 0)
(3.95725 -0.000577742 0)
(3.95922 -0.000515543 0)
(3.96113 -0.000458859 0)
(3.96298 -0.000407636 0)
(3.96479 -0.000361446 0)
(3.96655 -0.000320306 0)
(3.96828 -0.000284057 0)
(3.96999 -0.0002529 0)
(3.97168 -0.000226717 0)
(3.97335 -0.000205687 0)
(3.97502 -0.000189667 0)
(3.97669 -0.000178801 0)
(3.97836 -0.000172941 0)
(3.98005 -0.000172224 0)
(3.98175 -0.00017654 0)
(3.98347 -0.0001861 0)
(3.98522 -0.000200986 0)
(3.987 -0.000221711 0)
(3.98882 -0.00024878 0)
(3.99068 -0.000282659 0)
(3.99258 -0.000322994 0)
(3.99454 -0.000369676 0)
(3.99655 -0.000422847 0)
(3.99862 -0.000483093 0)
(4.00077 -0.000551108 0)
(4.00301 -0.000627977 0)
(4.00535 -0.000715004 0)
(4.00779 -0.000814018 0)
(4.01037 -0.000927388 0)
(4.01309 -0.00105854 0)
(4.01597 -0.00121243 0)
(4.01906 -0.00139699 0)
(4.02238 -0.00162521 0)
(4.026 -0.00192 0)
(4.03 -0.00232607 0)
(4.03427 -0.00293231 0)
(4.04136 -0.00408984 0)
(-0.178952 0.367805 0)
(-0.317973 0.560202 0)
(-0.538069 0.641166 0)
(-0.760267 0.664763 0)
(-0.982489 0.665563 0)
(-1.20264 0.654512 0)
(-1.41804 0.636149 0)
(-1.62694 0.613241 0)
(-1.82832 0.587713 0)
(-2.02164 0.560945 0)
(-2.20672 0.533928 0)
(-2.38359 0.507359 0)
(-2.55247 0.481701 0)
(-2.71367 0.45725 0)
(-2.86755 0.434173 0)
(-3.01453 0.412543 0)
(-3.155 0.392371 0)
(-3.28939 0.373609 0)
(-3.41809 0.356193 0)
(-3.54149 0.340027 0)
(-3.65993 0.32502 0)
(-3.77375 0.311065 0)
(-3.88323 0.298067 0)
(-3.98865 0.285924 0)
(-4.09024 0.274545 0)
(-4.18821 0.263838 0)
(-4.28278 0.253716 0)
(-4.37409 0.244106 0)
(-4.46229 0.234937 0)
(-4.5475 0.22614 0)
(-4.62981 0.217652 0)
(-4.70931 0.209412 0)
(-4.78606 0.201364 0)
(-4.86008 0.193451 0)
(-4.93139 0.185623 0)
(-5 0.177825 0)
(-5.06588 0.170008 0)
(-5.12898 0.162118 0)
(-5.18924 0.154106 0)
(-5.24657 0.145917 0)
(-5.30086 0.137497 0)
(-5.35196 0.128791 0)
(-5.39972 0.11974 0)
(-5.44393 0.110284 0)
(-5.48439 0.100366 0)
(-5.52085 0.0899276 0)
(-5.55301 0.078907 0)
(-5.58055 0.0672429 0)
(-5.60312 0.0548727 0)
(-5.62042 0.0417306 0)
(-5.6321 0.0277473 0)
(-5.63771 0.0128697 0)
(-5.63663 -0.00291215 0)
(-5.62862 -0.0195871 0)
(-5.61323 -0.0371881 0)
(-5.58998 -0.0557792 0)
(-5.55838 -0.0754098 0)
(-5.51788 -0.0961137 0)
(-5.46794 -0.117906 0)
(-5.40799 -0.140781 0)
(-5.33749 -0.164706 0)
(-5.25587 -0.189624 0)
(-5.16262 -0.215444 0)
(-5.05726 -0.242041 0)
(-4.93936 -0.269252 0)
(-4.80858 -0.296872 0)
(-4.66467 -0.324666 0)
(-4.50749 -0.35236 0)
(-4.33704 -0.379644 0)
(-4.15346 -0.406179 0)
(-3.95708 -0.431614 0)
(-3.74837 -0.455584 0)
(-3.528 -0.477724 0)
(-3.29683 -0.4977 0)
(-3.05586 -0.515209 0)
(-2.80628 -0.529984 0)
(-2.54937 -0.54184 0)
(-2.28651 -0.550603 0)
(-2.0191 -0.556203 0)
(-1.74859 -0.558602 0)
(-1.47631 -0.557949 0)
(-1.20369 -0.554514 0)
(-0.931877 -0.549004 0)
(-0.662504 -0.542156 0)
(-0.395068 -0.534745 0)
(-0.13118 -0.526675 0)
(0.130105 -0.516346 0)
(0.376287 -0.502586 0)
(0.60969 -0.48438 0)
(0.832927 -0.462508 0)
(1.0461 -0.438458 0)
(1.24966 -0.414036 0)
(1.44341 -0.389984 0)
(1.62718 -0.366601 0)
(1.80094 -0.344015 0)
(1.96483 -0.32229 0)
(2.11906 -0.301463 0)
(2.26393 -0.281559 0)
(2.39979 -0.262594 0)
(2.527 -0.244575 0)
(2.64597 -0.227499 0)
(2.75708 -0.211357 0)
(2.86076 -0.196133 0)
(2.95739 -0.181806 0)
(3.04738 -0.168348 0)
(3.13112 -0.155728 0)
(3.20897 -0.143914 0)
(3.2813 -0.132871 0)
(3.34846 -0.122561 0)
(3.41078 -0.112951 0)
(3.46856 -0.104002 0)
(3.52212 -0.0956799 0)
(3.57174 -0.0879501 0)
(3.61769 -0.0807791 0)
(3.66022 -0.0741346 0)
(3.69957 -0.0679858 0)
(3.73598 -0.0623032 0)
(3.76966 -0.0570587 0)
(3.80081 -0.0522254 0)
(3.82962 -0.0477778 0)
(3.85627 -0.0436916 0)
(3.88093 -0.0399436 0)
(3.90376 -0.0365115 0)
(3.9249 -0.0333743 0)
(3.94449 -0.0305116 0)
(3.96266 -0.0279042 0)
(3.97953 -0.0255333 0)
(3.99521 -0.0233812 0)
(4.0098 -0.0214308 0)
(4.02339 -0.0196656 0)
(4.03607 -0.0180699 0)
(4.04793 -0.016629 0)
(4.05902 -0.0153284 0)
(4.06942 -0.0141548 0)
(4.07919 -0.0130956 0)
(4.08837 -0.0121389 0)
(4.09702 -0.0112737 0)
(4.10518 -0.0104898 0)
(4.11289 -0.00977808 0)
(4.12018 -0.00913006 0)
(4.12708 -0.00853823 0)
(4.13362 -0.00799582 0)
(4.13982 -0.00749697 0)
(4.14571 -0.00703644 0)
(4.15131 -0.00660981 0)
(4.15664 -0.00621317 0)
(4.16172 -0.00584335 0)
(4.16655 -0.00549753 0)
(4.17117 -0.00517352 0)
(4.17557 -0.00486935 0)
(4.17979 -0.00458358 0)
(4.18383 -0.00431487 0)
(4.18771 -0.00406231 0)
(4.19144 -0.00382496 0)
(4.19503 -0.00360226 0)
(4.1985 -0.00339353 0)
(4.20185 -0.00319839 0)
(4.20511 -0.00301632 0)
(4.20827 -0.00284703 0)
(4.21136 -0.00269007 0)
(4.21437 -0.00254521 0)
(4.21733 -0.00241202 0)
(4.22024 -0.00229033 0)
(4.22311 -0.00217972 0)
(4.22594 -0.00208004 0)
(4.22875 -0.0019909 0)
(4.23154 -0.00191213 0)
(4.23432 -0.00184331 0)
(4.2371 -0.00178423 0)
(4.23988 -0.00173446 0)
(4.24266 -0.00169379 0)
(4.24546 -0.00166187 0)
(4.24827 -0.00163854 0)
(4.25111 -0.00162348 0)
(4.25397 -0.0016166 0)
(4.25687 -0.00161767 0)
(4.2598 -0.00162667 0)
(4.26277 -0.00164344 0)
(4.26578 -0.00166811 0)
(4.26884 -0.00170062 0)
(4.27196 -0.00174116 0)
(4.27512 -0.00178975 0)
(4.27835 -0.0018468 0)
(4.28165 -0.00191279 0)
(4.28501 -0.00198846 0)
(4.28846 -0.00207452 0)
(4.29198 -0.00217209 0)
(4.2956 -0.00228246 0)
(4.29932 -0.0024074 0)
(4.30315 -0.00254907 0)
(4.3071 -0.00271037 0)
(4.31119 -0.00289506 0)
(4.31544 -0.00310835 0)
(4.31986 -0.00335776 0)
(4.32449 -0.0036547 0)
(4.32934 -0.00401763 0)
(4.33447 -0.00447698 0)
(4.33994 -0.00508909 0)
(4.34556 -0.00594949 0)
(4.35401 -0.00738632 0)
(-0.175432 0.620516 0)
(-0.332712 0.788515 0)
(-0.538689 0.86271 0)
(-0.744334 0.886276 0)
(-0.946348 0.884391 0)
(-1.1446 0.868061 0)
(-1.33777 0.842765 0)
(-1.52482 0.811956 0)
(-1.70516 0.778029 0)
(-1.8785 0.742702 0)
(-2.04475 0.707195 0)
(-2.20399 0.672358 0)
(-2.3564 0.638758 0)
(-2.50223 0.606747 0)
(-2.64176 0.576521 0)
(-2.7753 0.548164 0)
(-2.90319 0.521678 0)
(-3.02574 0.497009 0)
(-3.14327 0.474065 0)
(-3.25609 0.452734 0)
(-3.36449 0.432894 0)
(-3.46871 0.414416 0)
(-3.56901 0.397175 0)
(-3.66561 0.381045 0)
(-3.75871 0.365908 0)
(-3.84849 0.351647 0)
(-3.93512 0.338157 0)
(-4.01873 0.325337 0)
(-4.09945 0.313097 0)
(-4.17738 0.301348 0)
(-4.25261 0.290008 0)
(-4.32522 0.278998 0)
(-4.39526 0.268243 0)
(-4.46276 0.25767 0)
(-4.52774 0.247209 0)
(-4.59021 0.23679 0)
(-4.65014 0.226344 0)
(-4.70751 0.2158 0)
(-4.76225 0.205086 0)
(-4.8143 0.19413 0)
(-4.86354 0.182855 0)
(-4.90985 0.171184 0)
(-4.95307 0.159035 0)
(-4.99303 0.146325 0)
(-5.02952 0.132971 0)
(-5.06231 0.118889 0)
(-5.09111 0.103997 0)
(-5.1156 0.0882101 0)
(-5.13545 0.0714404 0)
(-5.15036 0.0535938 0)
(-5.15998 0.0345764 0)
(-5.16386 0.0143272 0)
(-5.16131 -0.00714626 0)
(-5.15222 -0.0298319 0)
(-5.13608 -0.0537971 0)
(-5.11243 -0.0791307 0)
(-5.08076 -0.105905 0)
(-5.04052 -0.134171 0)
(-4.99117 -0.163952 0)
(-4.93214 -0.195242 0)
(-4.86284 -0.228001 0)
(-4.78274 -0.262151 0)
(-4.69128 -0.297575 0)
(-4.58797 -0.334104 0)
(-4.47237 -0.371515 0)
(-4.3441 -0.40953 0)
(-4.2029 -0.447825 0)
(-4.0486 -0.48603 0)
(-3.88116 -0.523715 0)
(-3.70073 -0.560407 0)
(-3.50758 -0.595624 0)
(-3.30217 -0.628868 0)
(-3.08516 -0.65962 0)
(-2.85739 -0.687421 0)
(-2.61986 -0.711857 0)
(-2.37373 -0.732517 0)
(-2.12024 -0.749145 0)
(-1.86079 -0.761466 0)
(-1.59672 -0.769424 0)
(-1.32955 -0.773093 0)
(-1.06063 -0.772881 0)
(-0.791604 -0.76932 0)
(-0.523127 -0.763173 0)
(-0.25794 -0.754884 0)
(0.00957738 -0.743386 0)
(0.264378 -0.728233 0)
(0.508833 -0.708862 0)
(0.74221 -0.685484 0)
(0.964978 -0.65838 0)
(1.17811 -0.628267 0)
(1.382 -0.596387 0)
(1.57662 -0.563989 0)
(1.76175 -0.53182 0)
(1.93725 -0.500304 0)
(2.1031 -0.469688 0)
(2.25942 -0.440127 0)
(2.40642 -0.411725 0)
(2.54439 -0.384549 0)
(2.67367 -0.35864 0)
(2.79461 -0.33402 0)
(2.90761 -0.310694 0)
(3.01306 -0.288654 0)
(3.11136 -0.267877 0)
(3.2029 -0.248335 0)
(3.28806 -0.229989 0)
(3.36722 -0.212796 0)
(3.44075 -0.196712 0)
(3.509 -0.181685 0)
(3.57231 -0.167666 0)
(3.63099 -0.154604 0)
(3.68535 -0.142449 0)
(3.73569 -0.131152 0)
(3.78227 -0.120664 0)
(3.82536 -0.110938 0)
(3.8652 -0.101931 0)
(3.90204 -0.0935987 0)
(3.93608 -0.0859012 0)
(3.96754 -0.0787991 0)
(3.9966 -0.0722556 0)
(4.02346 -0.0662351 0)
(4.04828 -0.0607043 0)
(4.07122 -0.055631 0)
(4.09244 -0.0509847 0)
(4.11208 -0.0467363 0)
(4.13026 -0.042858 0)
(4.14711 -0.0393231 0)
(4.16274 -0.0361062 0)
(4.17725 -0.0331826 0)
(4.19075 -0.0305293 0)
(4.20332 -0.0281238 0)
(4.21504 -0.0259448 0)
(4.22598 -0.023972 0)
(4.23621 -0.0221864 0)
(4.2458 -0.0205698 0)
(4.25479 -0.0191053 0)
(4.26323 -0.0177772 0)
(4.27118 -0.016571 0)
(4.27867 -0.0154733 0)
(4.28573 -0.0144721 0)
(4.29239 -0.0135564 0)
(4.2987 -0.0127167 0)
(4.30466 -0.0119443 0)
(4.31032 -0.0112319 0)
(4.31568 -0.010573 0)
(4.32077 -0.00996195 0)
(4.32562 -0.00939408 0)
(4.33024 -0.00886548 0)
(4.33465 -0.00837269 0)
(4.33886 -0.00791306 0)
(4.3429 -0.00748412 0)
(4.34678 -0.00708406 0)
(4.35052 -0.00671114 0)
(4.35413 -0.00636408 0)
(4.35763 -0.00604157 0)
(4.36103 -0.00574268 0)
(4.36435 -0.00546633 0)
(4.3676 -0.00521176 0)
(4.3708 -0.00497799 0)
(4.37395 -0.00476434 0)
(4.37706 -0.0045699 0)
(4.38015 -0.004394 0)
(4.38323 -0.00423574 0)
(4.38631 -0.0040945 0)
(4.38938 -0.00396941 0)
(4.39247 -0.00385989 0)
(4.39558 -0.00376512 0)
(4.39871 -0.00368457 0)
(4.40187 -0.00361748 0)
(4.40507 -0.00356337 0)
(4.40831 -0.00352151 0)
(4.41159 -0.0034915 0)
(4.41493 -0.0034727 0)
(4.41831 -0.00346481 0)
(4.42176 -0.00346728 0)
(4.42526 -0.00347993 0)
(4.42882 -0.00350237 0)
(4.43245 -0.00353454 0)
(4.43615 -0.00357624 0)
(4.43992 -0.00362762 0)
(4.44376 -0.00368868 0)
(4.44768 -0.00375972 0)
(4.45168 -0.00384094 0)
(4.45576 -0.00393289 0)
(4.45993 -0.00403616 0)
(4.46419 -0.00415176 0)
(4.46855 -0.00428075 0)
(4.47301 -0.00442473 0)
(4.47759 -0.00458553 0)
(4.48229 -0.00476563 0)
(4.48711 -0.00496797 0)
(4.49208 -0.00519646 0)
(4.4972 -0.00545603 0)
(4.50249 -0.00575338 0)
(4.50797 -0.00609784 0)
(4.51366 -0.00650317 0)
(4.51959 -0.00699066 0)
(4.52578 -0.00759364 0)
(4.53229 -0.00837016 0)
(4.53884 -0.00940306 0)
(4.54833 -0.0109581 0)
(-0.164822 0.851246 0)
(-0.321611 0.999854 0)
(-0.513441 1.06297 0)
(-0.701925 1.08209 0)
(-0.884125 1.07576 0)
(-1.0613 1.05396 0)
(-1.23312 1.02241 0)
(-1.39918 0.98485 0)
(-1.55924 0.943932 0)
(-1.71322 0.901554 0)
(-1.86113 0.859072 0)
(-2.00307 0.817433 0)
(-2.1392 0.777265 0)
(-2.26973 0.738965 0)
(-2.39487 0.702752 0)
(-2.51487 0.668719 0)
(-2.62998 0.636869 0)
(-2.74045 0.607139 0)
(-2.84654 0.57943 0)
(-2.94848 0.553615 0)
(-3.04649 0.529552 0)
(-3.14079 0.507096 0)
(-3.23157 0.4861 0)
(-3.31901 0.466423 0)
(-3.40328 0.447924 0)
(-3.48452 0.430472 0)
(-3.56287 0.41394 0)
(-3.63843 0.398213 0)
(-3.71133 0.383181 0)
(-3.78164 0.368743 0)
(-3.84943 0.354798 0)
(-3.91478 0.341255 0)
(-3.97772 0.328023 0)
(-4.0383 0.315015 0)
(-4.09652 0.302145 0)
(-4.1524 0.289328 0)
(-4.20593 0.27648 0)
(-4.25706 0.263511 0)
(-4.30577 0.250334 0)
(-4.35197 0.236854 0)
(-4.39559 0.222977 0)
(-4.4365 0.208602 0)
(-4.47457 0.193627 0)
(-4.50964 0.177944 0)
(-4.54151 0.161444 0)
(-4.56997 0.14402 0)
(-4.59475 0.125562 0)
(-4.61554 0.105964 0)
(-4.63202 0.0851156 0)
(-4.64391 0.0628952 0)
(-4.65089 0.0391842 0)
(-4.65245 0.0139119 0)
(-4.64793 -0.0128942 0)
(-4.6373 -0.0412153 0)
(-4.62003 -0.0711582 0)
(-4.59563 -0.102842 0)
(-4.56361 -0.136361 0)
(-4.52341 -0.171784 0)
(-4.47449 -0.20914 0)
(-4.41625 -0.248426 0)
(-4.34812 -0.289593 0)
(-4.26954 -0.332545 0)
(-4.17994 -0.377136 0)
(-4.0788 -0.423159 0)
(-3.96566 -0.470334 0)
(-3.84011 -0.518307 0)
(-3.70188 -0.566667 0)
(-3.55075 -0.614953 0)
(-3.38666 -0.662623 0)
(-3.20972 -0.709062 0)
(-3.02019 -0.753664 0)
(-2.81848 -0.795817 0)
(-2.60526 -0.834829 0)
(-2.38136 -0.8701 0)
(-2.14771 -0.901122 0)
(-1.90554 -0.927298 0)
(-1.65598 -0.948368 0)
(-1.40055 -0.964033 0)
(-1.14054 -0.974345 0)
(-0.877639 -0.979605 0)
(-0.613203 -0.980211 0)
(-0.348733 -0.976717 0)
(-0.0837059 -0.968607 0)
(0.177026 -0.955585 0)
(0.428085 -0.937433 0)
(0.669426 -0.914064 0)
(0.901233 -0.886348 0)
(1.12317 -0.854706 0)
(1.33534 -0.819605 0)
(1.53813 -0.781834 0)
(1.73176 -0.74247 0)
(1.91624 -0.702543 0)
(2.09144 -0.662794 0)
(2.25728 -0.623723 0)
(2.41381 -0.585666 0)
(2.56116 -0.548851 0)
(2.69956 -0.513436 0)
(2.82928 -0.479526 0)
(2.95066 -0.447187 0)
(3.06406 -0.416455 0)
(3.16985 -0.387341 0)
(3.26843 -0.359836 0)
(3.36018 -0.333915 0)
(3.44548 -0.309541 0)
(3.52471 -0.286665 0)
(3.59824 -0.265235 0)
(3.6664 -0.245192 0)
(3.72955 -0.226473 0)
(3.78801 -0.209014 0)
(3.84209 -0.192753 0)
(3.89207 -0.177625 0)
(3.93824 -0.163568 0)
(3.98087 -0.150522 0)
(4.0202 -0.138429 0)
(4.05647 -0.127231 0)
(4.08991 -0.116876 0)
(4.12072 -0.107312 0)
(4.1491 -0.0984902 0)
(4.17523 -0.090364 0)
(4.1993 -0.082889 0)
(4.22146 -0.0760232 0)
(4.24187 -0.0697263 0)
(4.26068 -0.0639599 0)
(4.27801 -0.0586874 0)
(4.29399 -0.0538739 0)
(4.30873 -0.0494859 0)
(4.32235 -0.0454915 0)
(4.33494 -0.0418599 0)
(4.3466 -0.0385619 0)
(4.3574 -0.0355696 0)
(4.36742 -0.0328565 0)
(4.37674 -0.0303972 0)
(4.3854 -0.0281681 0)
(4.39348 -0.0261466 0)
(4.40101 -0.0243122 0)
(4.40806 -0.0226453 0)
(4.41465 -0.0211284 0)
(4.42083 -0.0197452 0)
(4.42662 -0.0184813 0)
(4.43207 -0.0173236 0)
(4.43719 -0.0162609 0)
(4.44202 -0.0152828 0)
(4.44658 -0.014381 0)
(4.45089 -0.0135477 0)
(4.45498 -0.0127767 0)
(4.45886 -0.0120625 0)
(4.46255 -0.0114006 0)
(4.46609 -0.0107871 0)
(4.46947 -0.0102188 0)
(4.47273 -0.00969285 0)
(4.47588 -0.00920692 0)
(4.47894 -0.00875884 0)
(4.48193 -0.00834686 0)
(4.48486 -0.00796917 0)
(4.48774 -0.00762429 0)
(4.49059 -0.00731061 0)
(4.49343 -0.0070268 0)
(4.49626 -0.00677132 0)
(4.4991 -0.00654292 0)
(4.50196 -0.0063401 0)
(4.50485 -0.00616166 0)
(4.50777 -0.00600616 0)
(4.51073 -0.00587246 0)
(4.51375 -0.0057592 0)
(4.51682 -0.00566533 0)
(4.51996 -0.00558959 0)
(4.52316 -0.00553103 0)
(4.52644 -0.00548853 0)
(4.52978 -0.00546126 0)
(4.53321 -0.0054482 0)
(4.53672 -0.0054487 0)
(4.54031 -0.00546188 0)
(4.54398 -0.00548727 0)
(4.54774 -0.00552416 0)
(4.55159 -0.00557225 0)
(4.55553 -0.00563108 0)
(4.55956 -0.00570054 0)
(4.56369 -0.00578042 0)
(4.5679 -0.00587089 0)
(4.57222 -0.00597199 0)
(4.57663 -0.0060842 0)
(4.58114 -0.00620786 0)
(4.58576 -0.00634381 0)
(4.59048 -0.00649291 0)
(4.59532 -0.00665654 0)
(4.60027 -0.00683619 0)
(4.60534 -0.00703394 0)
(4.61054 -0.00725222 0)
(4.61587 -0.00749415 0)
(4.62136 -0.00776347 0)
(4.627 -0.00806494 0)
(4.63281 -0.00840453 0)
(4.6388 -0.00879007 0)
(4.64499 -0.00923219 0)
(4.65141 -0.00974584 0)
(4.65806 -0.0103534 0)
(4.66497 -0.0110878 0)
(4.67218 -0.0120035 0)
(4.67937 -0.0131617 0)
(4.6896 -0.0147637 0)
(-0.149751 1.06335 0)
(-0.297652 1.19203 0)
(-0.472983 1.24234 0)
(-0.642592 1.25446 0)
(-0.804667 1.24235 0)
(-0.961073 1.21477 0)
(-1.1121 1.1773 0)
(-1.25774 1.13375 0)
(-1.39803 1.08682 0)
(-1.53303 1.0385 0)
(-1.66286 0.990196 0)
(-1.78763 0.942899 0)
(-1.9075 0.897274 0)
(-2.02264 0.853735 0)
(-2.13322 0.812517 0)
(-2.23944 0.773719 0)
(-2.34149 0.737342 0)
(-2.43956 0.703322 0)
(-2.53387 0.671549 0)
(-2.62458 0.641887 0)
(-2.71189 0.614182 0)
(-2.79593 0.588275 0)
(-2.87688 0.564006 0)
(-2.95487 0.541217 0)
(-3.03002 0.519754 0)
(-3.10245 0.499472 0)
(-3.17226 0.480232 0)
(-3.23955 0.461903 0)
(-3.30439 0.444366 0)
(-3.36684 0.427503 0)
(-3.42698 0.411205 0)
(-3.48485 0.395368 0)
(-3.54048 0.379889 0)
(-3.5939 0.364671 0)
(-3.64512 0.349616 0)
(-3.69415 0.334627 0)
(-3.74098 0.319605 0)
(-3.78559 0.304447 0)
(-3.82793 0.289049 0)
(-3.86795 0.273301 0)
(-3.90557 0.257089 0)
(-3.94069 0.240293 0)
(-3.97318 0.222789 0)
(-4.0029 0.204448 0)
(-4.02968 0.185137 0)
(-4.05332 0.164722 0)
(-4.07355 0.143071 0)
(-4.0901 0.120053 0)
(-4.10267 0.0955332 0)
(-4.11101 0.0693626 0)
(-4.11477 0.0414 0)
(-4.11345 0.0115729 0)
(-4.10646 -0.0200768 0)
(-4.09381 -0.0535336 0)
(-4.07493 -0.0889488 0)
(-4.04936 -0.126471 0)
(-4.01658 -0.166219 0)
(-3.97605 -0.208278 0)
(-3.9272 -0.252688 0)
(-3.86945 -0.299446 0)
(-3.80222 -0.348499 0)
(-3.72492 -0.399736 0)
(-3.63698 -0.452988 0)
(-3.53786 -0.508014 0)
(-3.42704 -0.564481 0)
(-3.30413 -0.621956 0)
(-3.1688 -0.679942 0)
(-3.02083 -0.7379 0)
(-2.86008 -0.795188 0)
(-2.68666 -0.851031 0)
(-2.50084 -0.904688 0)
(-2.30296 -0.955465 0)
(-2.09367 -1.00245 0)
(-1.87383 -1.04488 0)
(-1.64426 -1.08224 0)
(-1.40637 -1.11372 0)
(-1.16111 -1.13914 0)
(-0.910319 -1.15833 0)
(-0.655233 -1.17121 0)
(-0.397156 -1.17827 0)
(-0.138165 -1.17903 0)
(0.122723 -1.17313 0)
(0.374727 -1.16046 0)
(0.620097 -1.14107 0)
(0.857534 -1.11578 0)
(1.0863 -1.08513 0)
(1.30601 -1.04988 0)
(1.51636 -1.01066 0)
(1.71729 -0.968143 0)
(1.90895 -0.923148 0)
(2.09148 -0.876665 0)
(2.26492 -0.82962 0)
(2.42925 -0.782757 0)
(2.58449 -0.736629 0)
(2.73074 -0.691638 0)
(2.86816 -0.648073 0)
(2.99701 -0.606138 0)
(3.11757 -0.565971 0)
(3.23018 -0.527662 0)
(3.3352 -0.49126 0)
(3.43299 -0.456779 0)
(3.52393 -0.424213 0)
(3.6084 -0.39353 0)
(3.68677 -0.364688 0)
(3.75939 -0.337628 0)
(3.82663 -0.312286 0)
(3.88881 -0.288592 0)
(3.94626 -0.266471 0)
(3.9993 -0.245847 0)
(4.04821 -0.226643 0)
(4.09328 -0.208784 0)
(4.13477 -0.192195 0)
(4.17293 -0.176805 0)
(4.208 -0.162543 0)
(4.24021 -0.149344 0)
(4.26976 -0.137141 0)
(4.29686 -0.125876 0)
(4.3217 -0.115489 0)
(4.34444 -0.105925 0)
(4.36527 -0.0971311 0)
(4.38432 -0.0890572 0)
(4.40176 -0.0816554 0)
(4.41771 -0.0748799 0)
(4.4323 -0.0686872 0)
(4.44565 -0.0630356 0)
(4.45787 -0.0578852 0)
(4.46906 -0.0531979 0)
(4.47931 -0.0489373 0)
(4.48871 -0.0450686 0)
(4.49734 -0.0415586 0)
(4.50527 -0.0383759 0)
(4.51256 -0.0354904 0)
(4.51927 -0.0328744 0)
(4.52547 -0.0305013 0)
(4.53118 -0.0283469 0)
(4.53647 -0.0263886 0)
(4.54136 -0.024606 0)
(4.54589 -0.0229805 0)
(4.5501 -0.0214954 0)
(4.55402 -0.020136 0)
(4.55766 -0.0188894 0)
(4.56107 -0.0177443 0)
(4.56427 -0.0166911 0)
(4.56727 -0.0157215 0)
(4.5701 -0.0148284 0)
(4.57279 -0.0140057 0)
(4.57535 -0.0132485 0)
(4.5778 -0.0125523 0)
(4.58018 -0.0119135 0)
(4.58248 -0.0113286 0)
(4.58474 -0.0107948 0)
(4.58697 -0.0103094 0)
(4.58919 -0.00986996 0)
(4.59141 -0.00947406 0)
(4.59364 -0.00911957 0)
(4.59591 -0.00880416 0)
(4.59821 -0.00852582 0)
(4.60058 -0.00828231 0)
(4.603 -0.00807172 0)
(4.60549 -0.00789187 0)
(4.60807 -0.00774096 0)
(4.61073 -0.00761694 0)
(4.61348 -0.00751812 0)
(4.61633 -0.00744263 0)
(4.61928 -0.00738895 0)
(4.62233 -0.00735537 0)
(4.62549 -0.0073406 0)
(4.62875 -0.00734314 0)
(4.63213 -0.0073619 0)
(4.63561 -0.00739559 0)
(4.63921 -0.00744336 0)
(4.64292 -0.00750417 0)
(4.64674 -0.00757741 0)
(4.65067 -0.00766228 0)
(4.65472 -0.00775846 0)
(4.65888 -0.00786542 0)
(4.66315 -0.00798312 0)
(4.66753 -0.00811137 0)
(4.67203 -0.00825045 0)
(4.67664 -0.00840053 0)
(4.68137 -0.00856226 0)
(4.68621 -0.00873622 0)
(4.69117 -0.00892355 0)
(4.69625 -0.00912541 0)
(4.70146 -0.00934358 0)
(4.7068 -0.00957998 0)
(4.71227 -0.00983726 0)
(4.71789 -0.0101184 0)
(4.72365 -0.0104272 0)
(4.72957 -0.010768 0)
(4.73566 -0.0111466 0)
(4.74193 -0.0115697 0)
(4.7484 -0.012046 0)
(4.75508 -0.0125869 0)
(4.76198 -0.013208 0)
(4.76912 -0.0139313 0)
(4.77652 -0.0147873 0)
(4.78421 -0.0158245 0)
(4.79181 -0.0170805 0)
(4.80259 -0.0186983 0)
(-0.132474 1.25182 0)
(-0.266746 1.36209 0)
(-0.423245 1.39956 0)
(-0.572468 1.40365 0)
(-0.71393 1.38523 0)
(-0.849551 1.35191 0)
(-0.979987 1.30896 0)
(-1.1055 1.26011 0)
(-1.22629 1.20804 0)
(-1.34254 1.15474 0)
(-1.45441 1.10161 0)
(-1.56206 1.04966 0)
(-1.66562 0.999554 0)
(-1.76526 0.951716 0)
(-1.86112 0.906383 0)
(-1.95336 0.863657 0)
(-2.04212 0.823536 0)
(-2.12758 0.785951 0)
(-2.20987 0.750787 0)
(-2.28913 0.717897 0)
(-2.36551 0.68712 0)
(-2.43911 0.658285 0)
(-2.51004 0.631221 0)
(-2.57842 0.605757 0)
(-2.64432 0.581732 0)
(-2.70784 0.558986 0)
(-2.76903 0.537372 0)
(-2.82797 0.516751 0)
(-2.8847 0.49699 0)
(-2.93927 0.477965 0)
(-2.99172 0.459558 0)
(-3.04209 0.441656 0)
(-3.09038 0.42415 0)
(-3.13663 0.406932 0)
(-3.18083 0.389896 0)
(-3.22298 0.372935 0)
(-3.26308 0.355941 0)
(-3.3011 0.338799 0)
(-3.337 0.321391 0)
(-3.37073 0.303593 0)
(-3.40223 0.285275 0)
(-3.43141 0.2663 0)
(-3.45816 0.246523 0)
(-3.48233 0.225795 0)
(-3.50379 0.20396 0)
(-3.52234 0.180861 0)
(-3.53774 0.156341 0)
(-3.54973 0.130248 0)
(-3.55804 0.102419 0)
(-3.56244 0.0726753 0)
(-3.56257 0.0408554 0)
(-3.55778 0.00690994 0)
(-3.54808 -0.0291076 0)
(-3.53298 -0.0672251 0)
(-3.51208 -0.107632 0)
(-3.4849 -0.150506 0)
(-3.45094 -0.19599 0)
(-3.40965 -0.244186 0)
(-3.36045 -0.295145 0)
(-3.30276 -0.348866 0)
(-3.236 -0.405296 0)
(-3.15958 -0.464311 0)
(-3.07291 -0.525721 0)
(-2.97543 -0.589261 0)
(-2.86658 -0.654552 0)
(-2.74593 -0.721076 0)
(-2.61319 -0.788248 0)
(-2.46809 -0.85546 0)
(-2.31042 -0.921999 0)
(-2.14028 -0.986889 0)
(-1.958 -1.04923 0)
(-1.76378 -1.10828 0)
(-1.55831 -1.16294 0)
(-1.34256 -1.21218 0)
(-1.11703 -1.25569 0)
(-0.883789 -1.29247 0)
(-0.64321 -1.32226 0)
(-0.397475 -1.34508 0)
(-0.148257 -1.36012 0)
(0.106097 -1.36713 0)
(0.354175 -1.36557 0)
(0.598785 -1.35546 0)
(0.837449 -1.33743 0)
(1.06945 -1.31219 0)
(1.29388 -1.2805 0)