/*--------------------------------*- C++ -*----------------------------------*\
  =========                 |
  \\      /  F ield         | OpenFOAM: The Open Source CFD Toolbox
   \\    /   O peration     | Website:  https://openfoam.org
    \\  /    A nd           | Version:  7
     \\/     M anipulation  |
\*---------------------------------------------------------------------------*/
FoamFile
{
    version     2.0;
    format      ascii;
    class       volScalarField;
    location    "1.4";
    object      p;
}
// * * * * * * * * * * * * * * * * * * * * * * * * * * * * * * * * * * * * * //

dimensions      [0 2 -2 0 0 0 0];

internalField   nonuniform List<scalar> 
900
(
2.22857e-08
-0.000230357
-0.000508833
-0.000740508
-0.000867771
-0.000858647
-0.000701764
-0.000396982
5.05683e-05
0.000633348
0.00134251
0.00216799
0.00309795
0.0041181
0.00521085
0.00635476
0.0075241
0.00868897
0.00981576
0.0108683
0.0118096
0.0126043
0.0132218
0.0136398
0.013848
0.0138531
0.0136834
0.0133952
0.0130669
0.0128256
0.000227797
-5.5627e-06
-0.000207752
-0.000355106
-0.000415933
-0.000365469
-0.000192285
0.00010684
0.000530641
0.00107499
0.00173364
0.00249831
0.00335844
0.00430073
0.00530859
0.00636183
0.00743645
0.00850492
0.00953672
0.0104996
0.0113612
0.0120915
0.0126658
0.0130672
0.0132904
0.0133437
0.0132528
0.0130623
0.0128252
0.012585
0.000512434
0.000190481
-1.73483e-05
-0.000142328
-0.000179934
-0.000113216
6.60267e-05
0.000360254
0.000769046
0.00128978
0.00191778
0.00264628
0.00346602
0.00436489
0.0053274
0.00633441
0.00736315
0.00838709
0.00937699
0.0103019
0.011131
0.0118357
0.0123927
0.0127867
0.0130129
0.0130789
0.0130071
0.0128347
0.012589
0.012257
0.000759455
0.00032986
8.50019e-05
-4.66064e-05
-8.25055e-05
-1.29914e-05
0.000165887
0.000454402
0.000851752
0.00135598
0.00196362
0.00266925
0.00346505
0.0043402
0.0052804
0.00626749
0.00727935
0.00828992
0.00927001
0.0101884
0.0110137
0.0117165
0.0122726
0.0126658
0.0128899
0.0129508
0.0128682
0.0126752
0.0123817
0.0119406
0.00090509
0.000371934
8.26741e-05
-6.66472e-05
-0.000110705
-4.55154e-05
0.000129016
0.000410915
0.000798767
0.00129107
0.00188542
0.00257776
0.00336174
0.00422794
0.00516325
0.00615038
0.00716759
0.0081887
0.00918372
0.01012
0.0109639
0.0116839
0.012253
0.0126525
0.0128742
0.0129222
0.0128148
0.0125841
0.01223
0.011682
0.000904942
0.000278186
-5.67353e-05
-0.000229382
-0.000287427
-0.000231082
-6.33494e-05
0.000211895
0.00059271
0.00107804
0.00166653
0.00235555
0.00314026
0.00401273
0.00496107
0.00596877
0.00701424
0.00807064
0.00910634
0.0100861
0.0109728
0.0117307
0.0123288
0.0127444
0.0129666
0.0129976
0.0128559
0.0125758
0.012154
0.0115049
0.000731073
2.01045e-05
-0.00035952
-0.000557995
-0.000633064
-0.000587957
-0.000428063
-0.000158717
0.000217836
0.000701118
0.00129094
0.00198619
0.00278374
0.00367726
0.00465622
0.00570489
0.00680172
0.00791879
0.00902213
0.0100727
0.0110287
0.0118482
0.0124943
0.0129389
0.0131671
0.0131798
0.0129969
0.0126579
0.012161
0.0114121
0.000364357
-0.000424716
-0.000847804
-0.00107296
-0.00116632
-0.00113341
-0.000981463
-0.000716902
-0.000342005
0.000143533
0.00074089
0.00145073
0.00227186
0.00319988
0.00422586
0.00533514
0.00650618
0.00770988
0.00890933
0.0100608
0.0111157
0.0120247
0.0127422
0.0132329
0.0134765
0.0134719
0.013242
0.0128338
0.0122513
0.0113946
-0.000210708
-0.00107591
-0.00154221
-0.00179453
-0.0019068
-0.00188647
-0.00174236
-0.00148172
-0.00110665
-0.000615811
-6.38303e-06
0.000724398
0.00157769
0.00255149
0.00363903
0.00482714
0.00609475
0.0074117
0.0087378
0.0100237
0.0112127
0.0122451
0.0130643
0.0136244
0.0138976
0.0138796
0.0135967
0.0131067
0.0124218
0.0114378
-0.00100894
-0.00195229
-0.00246302
-0.0027434
-0.00287529
-0.00286809
-0.00273217
-0.00247555
-0.00209997
-0.00160288
-0.000979477
-0.000224463
0.000666237
0.0016937
0.00285412
0.00413673
0.00552175
0.00697863
0.00846407
0.00992242
0.0112873
0.012486
0.013447
0.0141095
0.0144341
0.014411
0.0140697
0.0134811
0.0126689
0.0115233
-0.00204625
-0.00307331
-0.00363128
-0.00394135
-0.00409412
-0.00410126
-0.00397494
-0.00372404
-0.00334996
-0.0028487
-0.00221317
-0.00143504
-0.000506633
0.000577142
0.00181659
0.0032047
0.00472437
0.00634631
0.00802484
0.00969818
0.0112889
0.0127084
0.0138652
0.0146777
0.0150882
0.0150764
0.0146732
0.0139654
0.0129904
0.0116304
-0.00334084
-0.00446025
-0.00506976
-0.00541196
-0.00558761
-0.00561127
-0.00549741
-0.00525612
-0.00488856
-0.0043892
-0.00374838
-0.00295424
-0.00199472
-0.000859625
0.000456952
0.00195352
0.00361756
0.00542526
0.00732911
0.0092629
0.0111381
0.0128472
0.0142731
0.0153046
0.0158559
0.0158868
0.015425
0.0145742
0.0133884
0.0117365
-0.00491386
-0.00613718
-0.00680389
-0.00718138
-0.00738255
-0.00742586
-0.0073289
-0.00710358
-0.00675109
-0.00626448
-0.00563135
-0.0048359
-0.00386098
-0.00269014
-0.00131016
0.000285121
0.00208931
0.00409449
0.00624885
0.00848709
0.0107117
0.0127951
0.0145883
0.0159393
0.0167187
0.0168507
0.0163485
0.0153323
0.0138736
0.0118202
-0.00679012
-0.00813193
-0.00886265
-0.00927889
-0.00950842
-0.00957504
-0.00950072
-0.00930005
-0.00897484
-0.00851702
-0.00791153
-0.00713854
-0.0061753
-0.0049981
-0.00358465
-0.0019166
1.70878e-05
0.00219852
0.00460936
0.00718539
0.00982446
0.0123808
0.0146693
0.0164832
0.0176278
0.0179651
0.0174726
0.0162787
0.0144718
0.0118664
-0.00899881
-0.0104772
-0.0112796
-0.0117377
-0.0119976
-0.0120908
-0.0120452
-0.0118794
-0.0115967
-0.0111887
-0.010638
-0.00992112
-0.00900981
-0.00787273
-0.00647729
-0.0047921
-0.00279134
-0.000465165
0.00218122
0.00510304
0.00820771
0.0113409
0.0142819
0.0167567
0.0184758
0.019198
0.0188247
0.017471
0.0152329
0.011875
-0.0115747
-0.0132122
-0.0140945
-0.0145956
-0.0148856
-0.0150062
-0.0149939
-0.0148731
-0.0146499
-0.0143161
-0.0138536
-0.0132358
-0.0124301
-0.0113981
-0.0100967
-0.00847965
-0.00650087
-0.00412131
-0.00131324
0.00191281
0.00549538
0.00929291
0.013062
0.0164552
0.0190548
0.0204563
0.0204161
0.0189862
0.0162437
0.0118771
-0.01456
-0.0163856
-0.0173553
-0.0178968
-0.0182111
-0.0183546
-0.0183758
-0.018307
-0.0181585
-0.0179244
-0.0175864
-0.0171175
-0.0164823
-0.0156374
-0.0145312
-0.0131029
-0.011283
-0.00899643
-0.00617521
-0.00276521
0.00123327
0.0057292
0.0104898
0.0151063
0.0190047
0.02154
0.0222144
0.0209189
0.0176449
0.0119588
-0.0180084
-0.0200595
-0.0211221
-0.0216931
-0.0220159
-0.0221678
-0.0222135
-0.022196
-0.0221317
-0.0220181
-0.0218394
-0.0215699
-0.021175
-0.0206105
-0.01982
-0.018732
-0.0172557
-0.0152789
-0.0126715
-0.00929998
-0.00506028
6.43533e-05
0.00591379
0.0120634
0.0177795
0.0220962
0.0241088
0.0233757
0.0196566
0.0123024
-0.0219908
-0.0243168
-0.0254719
-0.026047
-0.026345
-0.0264736
-0.026519
-0.026538
-0.0265548
-0.0265714
-0.0265764
-0.0265486
-0.0264584
-0.0262658
-0.0259169
-0.025336
-0.0244172
-0.0230132
-0.0209271
-0.0179239
-0.0137538
-0.00822078
-0.00132129
0.00659677
0.0146888
0.0216173
0.0258926
0.0264768
0.0226193
0.0132561
-0.0266067
-0.0292734
-0.0305078
-0.031035
-0.0312457
-0.0312914
-0.0312869
-0.0313054
-0.0313793
-0.0315159
-0.0317093
-0.0319453
-0.0322035
-0.0324547
-0.0326549
-0.0327344
-0.0325826
-0.0320267
-0.0308047
-0.0285497
-0.0248819
-0.0193225
-0.0116
-0.00185052
0.0090952
0.0195584
0.0273163
0.030395
0.0270668
0.0154592
-0.032004
-0.0350975
-0.0363703
-0.0367508
-0.0367642
-0.0366253
-0.0364848
-0.0364336
-0.0365111
-0.0367285
-0.0370849
-0.0375745
-0.0381892
-0.0389154
-0.0397269
-0.0405695
-0.0413394
-0.0418501
-0.0417781
-0.0405981
-0.0379265
-0.0328126
-0.0246588
-0.0132429
0.000814413
0.0156524
0.0282908
0.0354804
0.0338527
0.0200521
-0.0384171
-0.042043
-0.0432547
-0.0433073
-0.0429375
-0.0424496
-0.0420368
-0.0418049
-0.0417955
-0.042019
-0.0424767
-0.0431699
-0.0441029
-0.0452801
-0.0466966
-0.0483204
-0.0500626
-0.0517347
-0.0530045
-0.0533595
-0.0517627
-0.0474323
-0.0392596
-0.0265094
-0.00936717
0.0104142
0.0292863
0.0425261
0.0443554
0.0290069
-0.0462436
-0.0505049
-0.0514324
-0.0508306
-0.0497732
-0.048684
-0.0477976
-0.047225
-0.0469983
-0.0471182
-0.0475812
-0.0483905
-0.0495593
-0.0511072
-0.0530482
-0.05537
-0.0579983
-0.0607434
-0.0632351
-0.064844
-0.0645548
-0.0611454
-0.0531635
-0.0393589
-0.0193215
0.00564578
0.0318457
0.0531782
0.0607947
0.0456128
-0.0562077
-0.0611118
-0.06127
-0.0594367
-0.0572086
-0.0551485
-0.0535113
-0.0523884
-0.0517813
-0.0516647
-0.052018
-0.0528367
-0.0541345
-0.0559368
-0.0582673
-0.0611221
-0.0644296
-0.0679893
-0.0713931
-0.0739342
-0.074517
-0.0716593
-0.063612
-0.0486531
-0.0257325
0.00455668
0.0389183
0.0703532
0.0866871
0.075127
-0.0697305
-0.0748716
-0.0732161
-0.0691563
-0.065024
-0.061482
-0.0587425
-0.0568264
-0.0556675
-0.0551877
-0.0553306
-0.0560682
-0.0574007
-0.0593452
-0.061918
-0.0651048
-0.0688155
-0.0728153
-0.0766416
-0.0795064
-0.0802119
-0.0770845
-0.0681661
-0.05134
-0.0249753
0.0111128
0.0545751
0.0983439
0.127302
0.125355
-0.0898038
-0.0934049
-0.0876822
-0.0797482
-0.0726665
-0.0669948
-0.0627617
-0.0598258
-0.0579905
-0.057084
-0.056985
-0.0576193
-0.0589551
-0.0609828
-0.0636918
-0.0670347
-0.0708764
-0.0749224
-0.0786298
-0.0811137
-0.081071
-0.0765964
-0.0655637
-0.0455595
-0.0144869
0.0286331
0.0828541
0.14215
0.189468
0.206392
-0.123003
-0.119247
-0.104846
-0.0904751
-0.079061
-0.070532
-0.0644708
-0.0604127
-0.0579247
-0.0566784
-0.0564451
-0.0570796
-0.0584969
-0.0606433
-0.0634644
-0.0668611
-0.0706334
-0.0744054
-0.0775351
-0.0790194
-0.0774047
-0.0706567
-0.0563465
-0.0317403
0.00580415
0.0581902
0.125823
0.205504
0.279834
0.331265
-0.184364
-0.154851
-0.124066
-0.0997485
-0.0823739
-0.0704052
-0.0625046
-0.057563
-0.054751
-0.0534988
-0.0534339
-0.0543216
-0.0560161
-0.0584153
-0.0614166
-0.0648655
-0.0684933
-0.0718399
-0.0741627
-0.0743407
-0.0707698
-0.0613731
-0.0433195
-0.0134302
0.0317524
0.0956089
0.180975
0.287409
0.402681
0.528196
-0.316533
-0.195196
-0.135961
-0.0992057
-0.0760173
-0.0618492
-0.053623
-0.0491697
-0.0471322
-0.0467178
-0.04746
-0.0490795
-0.0514058
-0.0543185
-0.0576939
-0.0613488
-0.0649763
-0.0680689
-0.069826
-0.069059
-0.0640374
-0.0527411
-0.0320936
0.00154893
0.0526728
0.126937
0.231678
0.37543
0.56403
0.854054
-0.642451
-0.230459
-0.103738
-0.063502
-0.0437251
-0.0338103
-0.030202
-0.0299459
-0.0313372
-0.0336316
-0.0365082
-0.039813
-0.0434693
-0.0474267
-0.0516118
-0.0558778
-0.0599457
-0.0633357
-0.0652902
-0.0647027
-0.0600632
-0.0489582
-0.0286469
0.0045268
0.0555252
0.131797
0.246676
0.428743
0.734649
1.32886
)
;

boundaryField
{
    movingWall
    {
        type            zeroGradient;
    }
    fixedWalls
    {
        type            zeroGradient;
    }
    frontAndBack
    {
        type            empty;
    }
}


// ************************************************************************* //
