/*--------------------------------*- C++ -*----------------------------------*\
  =========                 |
  \\      /  F ield         | OpenFOAM: The Open Source CFD Toolbox
   \\    /   O peration     | Website:  https://openfoam.org
    \\  /    A nd           | Version:  7
     \\/     M anipulation  |
\*---------------------------------------------------------------------------*/
FoamFile
{
    version     2.0;
    format      ascii;
    class       surfaceScalarField;
    location    "1.4";
    object      phi;
}
// * * * * * * * * * * * * * * * * * * * * * * * * * * * * * * * * * * * * * //

dimensions      [0 3 -1 0 0 0 0];

internalField   nonuniform List<scalar> 
1740
(
2.71647e-07
-2.71662e-07
-3.75239e-07
6.46886e-07
-2.01713e-06
1.6419e-06
-4.42764e-06
2.4105e-06
-7.33655e-06
2.90891e-06
-1.05081e-05
3.17156e-06
-1.37586e-05
3.25051e-06
-1.69521e-05
3.19344e-06
-1.99881e-05
3.03601e-06
-2.27895e-05
2.80142e-06
-2.52923e-05
2.5028e-06
-2.74385e-05
2.14622e-06
-2.91722e-05
1.73372e-06
-3.04381e-05
1.26589e-06
-3.11823e-05
7.44146e-07
-3.13548e-05
1.72549e-07
-3.09142e-05
-4.40634e-07
-2.98327e-05
-1.08152e-06
-2.81031e-05
-1.72955e-06
-2.57462e-05
-2.35689e-06
-2.28179e-05
-2.92832e-06
-1.94158e-05
-3.4021e-06
-1.56842e-05
-3.73164e-06
-1.18159e-05
-3.86831e-06
-8.05068e-06
-3.7652e-06
-4.66812e-06
-3.38255e-06
-1.96993e-06
-2.69819e-06
-2.40166e-07
-1.72976e-06
3.55963e-07
-5.96125e-07
3.55968e-07
-6.39292e-07
3.67629e-07
-3.29579e-06
3.30338e-06
-7.95727e-06
6.30339e-06
-1.42059e-05
8.65914e-06
-2.15412e-05
1.02442e-05
-2.94833e-05
1.11137e-05
-3.76219e-05
1.13891e-05
-4.56267e-05
1.11982e-05
-5.3237e-05
1.06464e-05
-6.02446e-05
9.80893e-06
-6.64753e-05
8.7335e-06
-7.17759e-05
7.44683e-06
-7.60051e-05
5.96292e-06
-7.903e-05
4.29086e-06
-8.07277e-05
2.4418e-06
-8.099e-05
4.349e-07
-7.97335e-05
-1.69722e-06
-7.691e-05
-3.90495e-06
-7.25225e-05
-6.11704e-06
-6.66396e-05
-8.23989e-06
-5.94105e-05
-1.01573e-05
-5.10788e-05
-1.17339e-05
-4.19892e-05
-1.28212e-05
-3.25886e-05
-1.3269e-05
-2.34138e-05
-1.294e-05
-1.50639e-05
-1.17324e-05
-8.14747e-06
-9.61465e-06
-3.19666e-06
-6.68057e-06
-5.50455e-07
-3.24232e-06
-1.94488e-07
-1.68142e-06
2.04905e-06
-6.47084e-06
8.0928e-06
-1.39296e-05
1.37622e-05
-2.34604e-05
1.81899e-05
-3.44034e-05
2.11871e-05
-4.61286e-05
2.28389e-05
-5.80845e-05
2.3345e-05
-6.98124e-05
2.29261e-05
-8.09393e-05
2.17733e-05
-9.116e-05
2.00296e-05
-0.000100218
1.77911e-05
-0.000107887
1.51162e-05
-0.000113964
1.20399e-05
-0.000118261
8.58788e-06
-0.000120608
4.78899e-06
-0.000120861
6.87759e-07
-0.000118911
-3.64758e-06
-0.000114702
-8.11362e-06
-0.000108251
-1.2568e-05
-9.96658e-05
-1.6825e-05
-8.91664e-05
-2.06568e-05
-7.71001e-05
-2.38001e-05
-6.39507e-05
-2.59706e-05
-5.03343e-05
-2.68854e-05
-3.69793e-05
-2.6295e-05
-2.46842e-05
-2.40275e-05
-1.42494e-05
-2.00495e-05
-6.38188e-06
-1.45481e-05
-1.57172e-06
-8.05249e-06
-1.76621e-06
-2.58815e-06
4.63721e-06
-9.30317e-06
1.48078e-05
-1.92755e-05
2.37345e-05
-3.16621e-05
3.05765e-05
-4.56468e-05
3.51718e-05
-6.04826e-05
3.76748e-05
-7.55207e-05
3.83831e-05
-9.02175e-05
3.7623e-05
-0.000104125
3.5681e-05
-0.000116873
3.27772e-05
-0.000128146
2.90638e-05
-0.000137667
2.46378e-05
-0.000145188
1.95609e-05
-0.00015048
1.38802e-05
-0.000153339
7.6478e-06
-0.000153591
9.3961e-07
-0.000151107
-6.13168e-06
-0.000145823
-1.33981e-05
-0.00013776
-2.06309e-05
-0.000127051
-2.75334e-05
-0.000113965
-3.37428e-05
-9.89228e-05
-3.88425e-05
-8.25078e-05
-4.23856e-05
-6.54604e-05
-4.39328e-05
-4.86512e-05
-4.31042e-05
-3.30316e-05
-3.96471e-05
-1.95615e-05
-3.35196e-05
-9.12019e-06
-2.49894e-05
-2.42043e-06
-1.47523e-05
-4.18665e-06
-3.32394e-06
7.96116e-06
-1.17021e-05
2.3186e-05
-2.38782e-05
3.59106e-05
-3.87566e-05
4.54549e-05
-5.53594e-05
5.17746e-05
-7.28323e-05
5.51476e-05
-9.04494e-05
5.60003e-05
-0.000107608
5.4781e-05
-0.000123809
5.18827e-05
-0.000138641
4.76089e-05
-0.000151749
4.21722e-05
-0.000162823
3.57113e-05
-0.000171578
2.83165e-05
-0.000177756
2.00574e-05
-0.000181119
1.10108e-05
-0.000181465
1.28553e-06
-0.000178639
-8.95728e-06
-0.000172558
-1.94789e-05
-0.000163235
-2.99537e-05
-0.000150811
-3.99581e-05
-0.000135579
-4.89741e-05
-0.000118016
-5.64064e-05
-9.8783e-05
-6.16182e-05
-7.87293e-05
-6.39865e-05
-5.8856e-05
-6.29775e-05
-4.02643e-05
-5.82388e-05
-2.40797e-05
-4.97042e-05
-1.13676e-05
-3.77015e-05
-3.06656e-06
-2.30533e-05
-7.25321e-06
-3.91973e-06
1.18809e-05
-1.37228e-05
3.29891e-05
-2.7831e-05
5.00187e-05
-4.49113e-05
6.25352e-05
-6.3826e-05
7.06894e-05
-8.36166e-05
7.49382e-05
-0.000103489
7.58728e-05
-0.000122795
7.40864e-05
-0.000141002
7.00903e-05
-0.000157671
6.42781e-05
-0.000172425
5.69257e-05
-0.000184927
4.82131e-05
-0.000194868
3.82573e-05
-0.000201958
2.71476e-05
-0.000205928
1.49813e-05
-0.00020654
1.89761e-06
-0.000203602
-1.18956e-05
-0.000196994
-2.60871e-05
-0.000186701
-4.02468e-05
-0.000172848
-5.38107e-05
-0.000155739
-6.60834e-05
-0.000135884
-7.62615e-05
-0.000114019
-8.34824e-05
-9.11038e-05
-8.6902e-05
-6.82837e-05
-8.57976e-05
-4.68334e-05
-7.96891e-05
-2.80706e-05
-6.8467e-05
-1.32651e-05
-5.25069e-05
-3.56723e-06
-3.27512e-05
-1.08204e-05
-4.4213e-06
1.63022e-05
-1.54748e-05
4.40426e-05
-3.13164e-05
6.58603e-05
-5.03976e-05
8.16164e-05
-7.14266e-05
9.17184e-05
-9.33434e-05
9.68549e-05
-0.000115291
9.78203e-05
-0.000136582
9.53777e-05
-0.000156664
9.0172e-05
-0.000175079
8.26939e-05
-0.000191438
7.32841e-05
-0.000205386
6.21616e-05
-0.000216593
4.94644e-05
-0.00022474
3.52943e-05
-0.000229519
1.97604e-05
-0.000230645
3.02298e-06
-0.00022787
-1.46704e-05
-0.000221018
-3.29391e-05
-0.000210019
-5.12456e-05
-0.000194958
-6.88718e-05
-0.000176122
-8.49198e-05
-0.000154043
-9.834e-05
-0.00012953
-0.000107996
-0.000103664
-0.000112768
-7.7769e-05
-0.000111692
-5.3336e-05
-0.000104122
-3.19192e-05
-8.98838e-05
-1.50216e-05
-6.94046e-05
-3.99693e-06
-4.37759e-05
-1.48174e-05
-4.87275e-06
2.11749e-05
-1.70778e-05
5.62477e-05
-3.4541e-05
8.33235e-05
-5.55154e-05
0.000102591
-7.85619e-05
0.000114765
-0.000102521
0.000120814
-0.000126477
0.000121776
-0.000149711
0.000118612
-0.000171655
0.000112116
-0.000191845
0.000102884
-0.000209884
9.13233e-05
-0.00022541
7.76869e-05
-0.000238071
6.21256e-05
-0.000247518
4.47412e-05
-0.000253398
2.56406e-05
-0.000255365
4.98941e-06
-0.000253096
-1.69392e-05
-0.000246329
-3.97058e-05
-0.000234908
-6.26665e-05
-0.000218842
-8.49379e-05
-0.000198371
-0.000105391
-0.000174028
-0.000122683
-0.000146689
-0.000135335
-0.00011758
-0.000141877
-8.8245e-05
-0.000141027
-6.04545e-05
-0.000131913
-3.60662e-05
-0.000114272
-1.68668e-05
-8.86039e-05
-4.42813e-06
-5.62145e-05
-1.92455e-05
-5.31092e-06
2.64858e-05
-1.86407e-05
6.95775e-05
-3.76989e-05
0.000102382
-6.0548e-05
0.00012544
-8.56045e-05
0.000139821
-0.000111613
0.000146823
-0.000137601
0.000147764
-0.000162823
0.000143834
-0.000186705
0.000135997
-0.000208784
0.000124964
-0.000228667
0.000111206
-0.000245985
9.50056e-05
-0.000260375
7.65155e-05
-0.000271455
5.58208e-05
-0.00027882
3.30054e-05
-0.000282048
8.21739e-06
-0.000280719
-1.82677e-05
-0.000274453
-4.5972e-05
-0.000262965
-7.41548e-05
-0.000246141
-0.000101762
-0.000224129
-0.000127403
-0.00019743
-0.000149382
-0.000166971
-0.000165794
-0.000134141
-0.000174707
-0.000100759
-0.000174409
-6.89586e-05
-0.000163713
-4.10014e-05
-0.000142229
-1.90452e-05
-0.00011056
-4.93014e-06
-7.03297e-05
-2.41757e-05
-5.76498e-06
3.22508e-05
-2.02549e-05
8.40674e-05
-4.09573e-05
0.000123084
-6.57406e-05
0.000150223
-9.2875e-05
0.000166956
-0.000121009
0.000174956
-0.000149116
0.000175872
-0.000176435
0.000171152
-0.000202389
0.000161952
-0.00022653
0.000149105
-0.000248476
0.000133152
-0.000267867
0.000114396
-0.000284329
9.29778e-05
-0.000297453
6.89447e-05
-0.000306779
4.23313e-05
-0.000311798
1.3236e-05
-0.000311967
-1.80981e-05
-0.000306751
-5.11887e-05
-0.000295684
-8.52217e-05
-0.000278468
-0.000118977
-0.000255092
-0.000150779
-0.000225962
-0.000178513
-0.000192022
-0.000199734
-0.00015483
-0.000211898
-0.000116539
-0.0002127
-7.97601e-05
-0.000200492
-4.7302e-05
-0.000174687
-2.18372e-05
-0.000136025
-5.57741e-06
-8.65895e-05
-2.97531e-05
-6.25779e-06
3.85086e-05
-2.19948e-05
9.98044e-05
-4.44546e-05
0.000145544
-7.12961e-05
0.000177065
-0.000100634
0.000196294
-0.00013102
0.000205342
-0.000161378
0.00020623
-0.000190933
0.000200708
-0.000219126
0.000190144
-0.00024553
0.000175509
-0.000269791
0.000157413
-0.00029157
0.000136175
-0.000310497
0.000111906
-0.000326145
8.45927e-05
-0.000338002
5.41877e-05
-0.000345463
2.06973e-05
-0.000347845
-1.57163e-05
-0.000344413
-5.46209e-05
-0.000334462
-9.51724e-05
-0.000317427
-0.000136012
-0.00029304
-0.000175167
-0.000261514
-0.000210038
-0.000223739
-0.000237509
-0.000181419
-0.000254218
-0.000137097
-0.000257022
-9.40014e-05
-0.000243587
-5.56979e-05
-0.000212991
-2.55968e-05
-0.000166126
-6.46259e-06
-0.000105724
-3.62156e-05
-6.80794e-06
4.53165e-05
-2.39223e-05
0.000116919
-4.83057e-05
0.000169927
-7.73801e-05
0.000206139
-0.00010909
0.000228004
-0.000141883
0.000238135
-0.00017464
0.000238987
-0.000206583
0.000232651
-0.000237179
0.00022074
-0.000266045
0.000204375
-0.000292873
0.00018424
-0.000317362
0.000160664
-0.000339171
0.000133714
-0.00035787
0.000103291
-0.000372907
6.9225e-05
-0.000383588
3.1378e-05
-0.000389076
-1.02287e-05
-0.000388394
-5.53028e-05
-0.000380532
-0.000103034
-0.000364556
-0.000151988
-0.000339805
-0.000199918
-0.000306155
-0.000243688
-0.000264309
-0.000279356
-0.000216041
-0.000302486
-0.000164318
-0.000308746
-0.000113152
-0.000294753
-6.71494e-05
-0.000258993
-3.07981e-05
-0.000202477
-7.712e-06
-0.00012881
-4.39276e-05
-7.43224e-06
5.27488e-05
-2.60934e-05
0.00013558
-5.26121e-05
0.000196446
-8.41336e-05
0.000237661
-0.000118409
0.00026228
-0.000153776
0.000273501
-0.000189073
0.000274284
-0.000223534
0.000267112
-0.000256668
0.000253874
-0.000288158
0.000235864
-0.000317763
0.000213846
-0.000345254
0.000188155
-0.000370341
0.000158801
-0.000392624
0.000125575
-0.00041154
8.81407e-05
-0.000426316
4.6154e-05
-0.000435976
-5.68104e-07
-0.000439257
-5.20223e-05
-0.000434787
-0.000107504
-0.00042114
-0.000165635
-0.000397097
-0.000223961
-0.000361988
-0.000278797
-0.000316112
-0.000325232
-0.000261161
-0.000357437
-0.000200494
-0.000369413
-0.000139073
-0.000356174
-8.29161e-05
-0.00031515
-3.80806e-05
-0.000247313
-9.50152e-06
-0.000157389
-5.34292e-05
-8.14863e-06
6.08974e-05
-2.85659e-05
0.000155997
-5.74745e-05
0.000225355
-9.16887e-05
0.000271875
-0.000128735
0.000299327
-0.00016683
0.000311595
-0.000204776
0.00031223
-0.000241832
0.000304168
-0.000277571
0.000289614
-0.000311764
0.000270057
-0.000344271
0.000246353
-0.000374961
0.000218845
-0.000403639
0.00018748
-0.000429977
0.000151912
-0.000453442
0.000111606
-0.000473235
6.59463e-05
-0.000488198
1.43958e-05
-0.000496879
-4.33422e-05
-0.000497427
-0.000106955
-0.00048782
-0.000175242
-0.000466088
-0.000245693
-0.000430747
-0.000314138
-0.000381387
-0.000374591
-0.000319335
-0.000419489
-0.000248196
-0.000440552
-0.000173992
-0.000430377
-0.000104583
-0.00038456
-4.82819e-05
-0.000303614
-1.20702e-05
-0.0001936
-6.54994e-05
-8.97976e-06
6.98772e-05
-3.14098e-05
0.000178427
-6.30092e-05
0.000256954
-0.000100188
0.000309053
-0.000140208
0.000339347
-0.000181151
0.000352539
-0.000221791
0.000352871
-0.000261429
0.000343805
-0.000299726
0.000327911
-0.000336565
0.000306897
-0.00037194
0.000281727
-0.000405856
0.000252762
-0.000438258
0.000219881
-0.00046894
0.000182594
-0.00049746
0.000140127
-0.000523042
9.15276e-05
-0.000544463
3.58171e-05
-0.000560011
-2.77938e-05
-0.000567406
-9.956e-05
-0.000563931
-0.000178718
-0.000546677
-0.000262947
-0.000513049
-0.000347766
-0.000461529
-0.000426112
-0.000392636
-0.000488381
-0.000309883
-0.000523305
-0.000220299
-0.000519961
-0.000134
-0.00047086
-6.24415e-05
-0.000375172
-1.57291e-05
-0.000240313
-8.12285e-05
-9.95776e-06
7.98349e-05
-3.47198e-05
0.000203189
-6.93665e-05
0.000291601
-0.000109805
0.000349492
-0.000152982
0.000382524
-0.000196833
0.00039639
-0.000240112
0.000396149
-0.00028218
0.000385874
-0.000322813
0.000368544
-0.000362037
0.000346121
-0.000400004
0.000319694
-0.000436897
0.000289654
-0.000472841
0.000255825
-0.000507813
0.000217567
-0.000541535
0.000173848
-0.000573337
0.00012333
-0.000602012
6.44928e-05
-0.000625689
-4.11763e-06
-0.00064169
-8.35591e-05
-0.000646597
-0.00017381
-0.000636446
-0.000273098
-0.000607256
-0.000376956
-0.00055595
-0.000477417
-0.000481645
-0.000562686
-0.000387138
-0.000617813
-0.00028009
-0.000627009
-0.000173095
-0.000577855
-8.17633e-05
-0.000466503
-2.08656e-05
-0.000301211
-0.000102094
-1.11308e-05
9.09658e-05
-3.86327e-05
0.000230691
-7.67539e-05
0.000329722
-0.000120768
0.000393506
-0.000167245
0.000429001
-0.000213964
0.000443108
-0.000259673
0.000441858
-0.000303823
0.000430024
-0.000346329
0.00041105
-0.000387382
0.000387174
-0.000427321
0.000359633
-0.000466531
0.000328864
-0.00050536
0.000294654
-0.000544019
0.000256226
-0.000582465
0.000212294
-0.000620238
0.000161103
-0.00065627
0.000100524
-0.000688654
2.82671e-05
-0.000714494
-5.7719e-05
-0.000729764
-0.000158541
-0.000729467
-0.000273396
-0.000708095
-0.000398327
-0.000660614
-0.000524898
-0.000584032
-0.000639268
-0.000479485
-0.000722359
-0.000354377
-0.000752117
-0.000223496
-0.000708736
-0.000107524
-0.000582475
-2.79467e-05
-0.000380788
-0.000130041
-1.25736e-05
0.000103539
-4.33506e-05
0.000261468
-8.54662e-05
0.000371838
-0.000133383
0.000441423
-0.000183227
0.000478845
-0.000232616
0.000492498
-0.000280326
0.000489568
-0.00032593
0.000475629
-0.00036951
0.00045463
-0.000411445
0.000429108
-0.000452272
0.00040046
-0.000492594
0.000369186
-0.000532999
0.000335059
-0.00057397
0.000297197
-0.000615759
0.000254084
-0.000658215
0.000203558
-0.000700546
0.000142855
-0.000741045
6.87662e-05
-0.000776804
-2.19602e-05
-0.0008035
-0.000131845
-0.000815353
-0.000261542
-0.000805434
-0.000408246
-0.000766556
-0.000563776
-0.000692955
-0.000712869
-0.000582892
-0.000832422
-0.000441951
-0.000893059
-0.000285933
-0.000864754
-0.000140912
-0.000727497
-3.75281e-05
-0.000484172
-0.000167569
-1.44045e-05
0.000117944
-4.91785e-05
0.000296242
-9.59242e-05
0.000418583
-0.000148059
0.000493558
-0.000201194
0.000531979
-0.000252812
0.000544116
-0.000301768
0.000538524
-0.00034781
0.000521671
-0.000391221
0.000498041
-0.000432582
0.000470469
-0.000472631
0.000440509
-0.000512183
0.000408738
-0.000552062
0.000374937
-0.000593025
0.00033816
-0.000635652
0.000296711
-0.000680172
0.000248079
-0.000726223
0.000188906
-0.000772535
0.000115078
-0.000816539
2.20438e-05
-0.000854084
-9.43008e-05
-0.000879144
-0.000236482
-0.000883834
-0.000403555
-0.000859017
-0.000588594
-0.000795778
-0.000776108
-0.000688243
-0.000939957
-0.000537982
-0.00104332
-0.000359336
-0.0010434
-0.000182734
-0.000904099
-5.02649e-05
-0.000616641
-0.000217834
-1.68165e-05
0.00013476
-5.65824e-05
0.000336008
-0.000108728
0.000470729
-0.000165322
0.000550152
-0.000221414
0.000588071
-0.000274428
0.000597129
-0.000323394
0.000587491
-0.000368317
0.000566593
-0.000409728
0.000539452
-0.000448427
0.000509168
-0.000485348
0.000477431
-0.000521491
0.000444881
-0.00055788
0.000411327
-0.000595518
0.000375798
-0.000635298
0.00033649
-0.000677864
0.000290645
-0.000723394
0.000234436
-0.000771288
0.000162972
-0.00081977
7.05258e-05
-0.000865299
-4.87716e-05
-0.000902584
-0.000199196
-0.000923582
-0.000382558
-0.000917946
-0.00059423
-0.000873831
-0.000820223
-0.000780355
-0.00103343
-0.000632616
-0.00119106
-0.000439647
-0.00123637
-0.000232923
-0.00111082
-6.69062e-05
-0.000782658
-0.00028474
-2.01368e-05
0.000154897
-6.62871e-05
0.000382158
-0.000124729
0.000529171
-0.000185814
0.000611237
-0.000244058
0.000646315
-0.000296995
0.000650066
-0.000344013
0.000634509
-0.000385498
0.000608079
-0.000422307
0.00057626
-0.000455489
0.00054235
-0.000486166
0.000508108
-0.000515491
0.000474206
-0.000544635
0.000440471
-0.000574779
0.000405942
-0.00060707
0.000368781
-0.000642539
0.000326115
-0.000681947
0.000273844
-0.000725536
0.000206561
-0.000772739
0.000117728
-0.000820964
-5.46197e-07
-0.000867008
-0.000153153
-0.000903544
-0.000346021
-0.000920431
-0.000577344
-0.000903959
-0.000836696
-0.000838306
-0.00109909
-0.000710145
-0.00131922
-0.000518508
-0.00142801
-0.00028973
-0.0013396
-8.82314e-05
-0.000984156
-0.000372971
-2.49423e-05
0.00017984
-7.94393e-05
0.000436655
-0.000145111
0.000594843
-0.000210215
0.00067634
-0.000268941
0.000705041
-0.000319286
0.000700412
-0.000361296
0.000676518
-0.000395945
0.000642727
-0.000424535
0.000604851
-0.000448424
0.000566239
-0.000468931
0.000528615
-0.000487334
0.000492609
-0.000504895
0.000458032
-0.000522886
0.000423933
-0.000542612
0.000388507
-0.000565396
0.000348898
-0.00059252
0.000300969
-0.000625085
0.000239126
-0.000663684
0.000156326
-0.000708563
4.43329e-05
-0.000757077
-0.000104638
-0.000805328
-0.000297771
-0.000844877
-0.000537794
-0.000862096
-0.000819477
-0.000837708
-0.00112347
-0.000749534
-0.00140739
-0.000582342
-0.0015952
-0.000348642
-0.0015733
-0.00011487
-0.00121793
-0.000487841
-3.22885e-05
0.000212128
-9.78649e-05
0.000502231
-0.000171434
0.000668413
-0.00023897
0.000743876
-0.000294939
0.00076101
-0.000338458
0.000743931
-0.000370718
0.000708778
-0.000393593
0.000665603
-0.000409015
0.000620273
-0.000418742
0.000575966
-0.000424328
0.000534201
-0.000427166
0.000495447
-0.000428555
0.000459421
-0.000429778
0.000425156
-0.000432178
0.000390907
-0.000437234
0.000353954
-0.000446608
0.000310343
-0.000462146
0.000254664
-0.000485778
0.000179958
-0.000519336
7.78909e-05
-0.000563419
-6.05554e-05
-0.000617098
-0.000244092
-0.000675613
-0.000479279
-0.000728058
-0.000767032
-0.00075477
-0.00109676
-0.000726744
-0.00143542
-0.00061247
-0.00170947
-0.000401242
-0.00178453
-0.000146888
-0.00147228
-0.000634729
-4.41487e-05
0.000256277
-0.000124406
0.000582489
-0.000205421
0.000749427
-0.000271425
0.000809879
-0.00031856
0.000808145
-0.000348208
0.000773579
-0.000363443
0.000724013
-0.000367472
0.000669632
-0.000363084
0.000615885
-0.000352554
0.000565436
-0.00033771
0.000519356
-0.000320044
0.000477782
-0.000300846
0.000440223
-0.000281321
0.000405631
-0.000262731
0.000372318
-0.000246541
0.000337764
-0.000234578
0.00029838
-0.000229162
0.000249249
-0.000233183
0.000183979
-0.000250027
9.47349e-05
-0.000283082
-2.75009e-05
-0.000334884
-0.000192289
-0.000405573
-0.000408591
-0.000489445
-0.00068316
-0.000570656
-0.00101555
-0.000618246
-0.00138783
-0.000586434
-0.00174128
-0.000434247
-0.00193672
-0.00018288
-0.00172365
-0.000817609
-6.41979e-05
0.000320475
-0.000163081
0.000681372
-0.000247705
0.000834052
-0.000303252
0.000865426
-0.000330423
0.000835316
-0.000334696
0.000777852
-0.000322021
0.000711338
-0.000297414
0.000645025
-0.000264713
0.000583185
-0.000226742
0.000527464
-0.000185554
0.000478168
-0.000142661
0.000434889
-9.92364e-05
0.000396798
-5.62915e-05
0.000362686
-1.48699e-05
0.000330896
2.37476e-05
0.000299146
5.78236e-05
0.000264304
8.48955e-05
0.000222177
0.000101567
0.000167307
0.000103382
9.29194e-05
8.48764e-05
-8.9948e-06
4.04259e-05
-0.000147839
-3.46825e-05
-0.000333482
-0.000141941
-0.000575902
-0.000273551
-0.00088394
-0.000403696
-0.00125769
-0.00047944
-0.00166554
-0.000428422
-0.00198773
-0.000218009
-0.00193406
-0.00103562
-9.88396e-05
0.000419314
-0.000217637
0.000800169
-0.000292853
0.000909268
-0.000318936
0.000891509
-0.000306442
0.000822822
-0.000267419
0.000738829
-0.000211633
0.000655551
-0.000146086
0.000579478
-7.54894e-05
0.000512588
-2.91753e-06
0.000454892
6.96735e-05
0.000405577
0.000141044
0.000363518
0.00021039
0.000327452
0.0002771
0.000295976
0.000340534
0.000267463
0.000399785
0.000239895
0.000453409
0.000210681
0.000499125
0.00017646
0.0005335
0.000132932
0.000551683
7.47365e-05
0.000546872
-4.18372e-06
0.000511805
-0.000112771
0.000437209
-0.000258887
0.000315265
-0.000453957
0.000143449
-0.000712124
-6.49048e-05
-0.00104933
-0.000263427
-0.00146702
-0.000356067
-0.00189509
-0.000240764
-0.00204937
-0.00127638
-0.000156863
0.000576177
-0.000281669
0.000924974
-0.000311673
0.000939272
-0.000270618
0.000850455
-0.000186649
0.000738853
-8.00126e-05
0.000632193
3.62333e-05
0.000539305
0.000154297
0.000461414
0.000269802
0.000397083
0.000380491
0.000344204
0.000485341
0.000300727
0.000584027
0.000264832
0.000676571
0.000234908
0.000763089
0.000209459
0.000843572
0.00018698
0.000917657
0.00016581
0.000984369
0.000143968
0.00104182
0.00011901
0.00108686
8.78929e-05
0.00111468
4.69159e-05
0.00111845
-7.95261e-06
0.00108954
-8.38665e-05
0.00101674
-0.000186082
0.000887176
-0.000324395
0.000688356
-0.000513304
0.000416094
-0.00077707
9.76534e-05
-0.00114857
-0.000174326
-0.00162312
-0.000230026
-0.00199367
-0.00150641
-0.000237393
0.000813571
-0.000291843
0.000979424
-0.000194128
0.000841557
-2.45088e-05
0.000680835
0.000168971
0.000545373
0.000363212
0.000437952
0.000547611
0.000354906
0.000717853
0.000291173
0.000872903
0.000242033
0.0010133
0.000203802
0.00114027
0.000173763
0.00125521
0.000149894
0.00135948
0.000130633
0.00145424
0.000114702
0.00154026
0.000100957
0.00161782
8.82533e-05
0.00168645
7.53317e-05
0.00174475
6.07163e-05
0.00178999
4.26527e-05
0.0018178
1.91009e-05
0.00182226
-1.24071e-05
0.00179404
-5.5652e-05
0.0017218
-0.000113839
0.00159043
-0.000193024
0.00138077
-0.000303647
0.00107132
-0.000467622
0.000653766
-0.000731016
0.000191523
-0.00116087
-0.000109609
-0.00169253
-0.00161602
-0.0001864
0.000999971
3.73646e-05
0.00075566
0.000398585
0.000480337
0.000740789
0.000338631
0.00104083
0.000245331
0.00129842
0.000180362
0.00151768
0.000135645
0.00170412
0.000104733
0.00186327
8.28858e-05
0.002
6.70696e-05
0.00211839
5.53792e-05
0.00222172
4.65634e-05
0.0023126
3.97539e-05
0.00239299
3.43087e-05
0.00246424
2.97063e-05
0.00252702
2.54683e-05
0.00258125
2.11031e-05
0.0026259
1.60669e-05
0.00265879
9.76537e-06
0.0026762
1.69184e-06
0.00267384
-1.00475e-05
0.00264322
-2.50314e-05
0.00257471
-4.53285e-05
0.00245448
-7.27982e-05
0.0022623
-0.000111468
0.00196668
-0.000172002
0.00152172
-0.00028605
0.000906097
-0.000545252
0.000254839
-0.00104128
-0.00136118
0.000999971
0.00175563
0.00223597
0.0025746
0.00281993
0.00300029
0.00313594
0.00324067
0.00332355
0.00339062
0.003446
0.00349257
0.00353232
0.00356663
0.00359634
0.0036218
0.00364291
0.00365897
0.00366874
0.00367043
0.00366038
0.00363535
0.00359002
0.00351723
0.00340576
0.00323376
0.00294771
0.00240245
0.00136118
)
;

boundaryField
{
    movingWall
    {
        type            calculated;
        value           uniform 0;
    }
    fixedWalls
    {
        type            calculated;
        value           uniform 0;
    }
    frontAndBack
    {
        type            empty;
        value           nonuniform 0();
    }
}


// ************************************************************************* //
