/*--------------------------------*- C++ -*----------------------------------*\
  =========                 |
  \\      /  F ield         | OpenFOAM: The Open Source CFD Toolbox
   \\    /   O peration     | Website:  https://openfoam.org
    \\  /    A nd           | Version:  7
     \\/     M anipulation  |
\*---------------------------------------------------------------------------*/
FoamFile
{
    version     2.0;
    format      ascii;
    class       volVectorField;
    location    "1.4";
    object      U;
}
// * * * * * * * * * * * * * * * * * * * * * * * * * * * * * * * * * * * * * //

dimensions      [0 1 -1 0 0 0 0];

internalField   nonuniform List<vector> 
900
(
(7.35536e-05 -7.29351e-05 0)
(5.14101e-05 1.36624e-05 0)
(-0.000287944 0.000121867 0)
(-0.00088337 0.000202976 0)
(-0.00165758 0.000252898 0)
(-0.0025386 0.00027756 0)
(-0.00346601 0.000284164 0)
(-0.00439421 0.000278567 0)
(-0.00529001 0.000264694 0)
(-0.00612863 0.000244806 0)
(-0.0068904 0.000219959 0)
(-0.0075582 0.000190436 0)
(-0.00811595 0.000156109 0)
(-0.00854778 0.00011673 0)
(-0.00883799 7.21512e-05 0)
(-0.00897155 2.25125e-05 0)
(-0.00893514 -3.16124e-05 0)
(-0.0087185 -8.90852e-05 0)
(-0.00831624 -0.000148072 0)
(-0.00772989 -0.000205986 0)
(-0.00696998 -0.000259462 0)
(-0.00605813 -0.000304416 0)
(-0.00502873 -0.000336168 0)
(-0.00392995 -0.000349646 0)
(-0.00282397 -0.000339603 0)
(-0.00178598 -0.000300958 0)
(-0.000900309 -0.000229759 0)
(-0.000250157 -0.000126104 0)
(8.86995e-05 -3.32987e-06 0)
(8.56115e-05 8.42268e-05 0)
(-1.09458e-05 -5.33839e-05 0)
(-0.000410074 0.000410291 0)
(-0.00148309 0.000916936 0)
(-0.00307744 0.00131372 0)
(-0.00505088 0.00157628 0)
(-0.00726327 0.00171783 0)
(-0.00958569 0.00176233 0)
(-0.011912 0.00173319 0)
(-0.0141586 0.00164868 0)
(-0.0162598 0.00152114 0)
(-0.018162 0.00135787 0)
(-0.0198192 0.00116255 0)
(-0.0211897 0.000936712 0)
(-0.0222345 0.000681097 0)
(-0.0229167 0.000396846 0)
(-0.023203 8.64636e-05 0)
(-0.0230651 -0.000245378 0)
(-0.0224836 -0.000590993 0)
(-0.021451 -0.000939269 0)
(-0.0199765 -0.00127529 0)
(-0.0180902 -0.00158032 0)
(-0.0158477 -0.00183226 0)
(-0.0133327 -0.00200666 0)
(-0.0106585 -0.00207821 0)
(-0.00796693 -0.00202303 0)
(-0.00542312 -0.00182196 0)
(-0.00320381 -0.00146637 0)
(-0.00147419 -0.000969224 0)
(-0.000370111 -0.00038947 0)
(5.27108e-06 9.02439e-05 0)
(-0.000122251 0.000285387 0)
(-0.000944073 0.00148894 0)
(-0.00274006 0.00267514 0)
(-0.00522163 0.00361067 0)
(-0.00819167 0.00424483 0)
(-0.0114709 0.00459539 0)
(-0.0148893 0.00470674 0)
(-0.0183016 0.00462749 0)
(-0.02159 0.00439888 0)
(-0.024659 0.00405113 0)
(-0.0274295 0.0036039 0)
(-0.0298336 0.00306872 0)
(-0.0318107 0.00245206 0)
(-0.0333048 0.00175837 0)
(-0.0342646 0.000992896 0)
(-0.0346445 0.000164069 0)
(-0.0344074 -0.000714409 0)
(-0.0335288 -0.00162173 0)
(-0.0320017 -0.00252878 0)
(-0.0298426 -0.00339737 0)
(-0.0270969 -0.00418035 0)
(-0.023845 -0.004823 0)
(-0.0202054 -0.0052658 0)
(-0.0163356 -0.00544893 0)
(-0.0124299 -0.00531876 0)
(-0.00871055 -0.00483705 0)
(-0.00541064 -0.00399476 0)
(-0.00274342 -0.00283227 0)
(-0.000897452 -0.00147289 0)
(-0.00010137 -0.000220525 0)
(-0.000215156 0.000906027 0)
(-0.00141602 0.00315276 0)
(-0.00386981 0.00519608 0)
(-0.00713706 0.00678291 0)
(-0.0109598 0.00785638 0)
(-0.0151258 0.00844699 0)
(-0.0194358 0.00862379 0)
(-0.0237185 0.00846373 0)
(-0.0278335 0.00803428 0)
(-0.0316651 0.00738678 0)
(-0.035117 0.00655621 0)
(-0.0381056 0.00556449 0)
(-0.0405566 0.00442517 0)
(-0.0424018 0.00314837 0)
(-0.0435791 0.00174546 0)
(-0.0440337 0.000233198 0)
(-0.0437213 -0.00136262 0)
(-0.0426129 -0.0030042 0)
(-0.0407007 -0.00463935 0)
(-0.0380054 -0.00620031 0)
(-0.0345826 -0.00760423 0)
(-0.0305297 -0.00875568 0)
(-0.0259903 -0.00955203 0)
(-0.0211542 -0.00989182 0)
(-0.016254 -0.00968661 0)
(-0.011555 -0.00887681 0)
(-0.00733433 -0.0074527 0)
(-0.00384765 -0.00548094 0)
(-0.00134342 -0.00314002 0)
(-0.000184894 -0.000804001 0)
(-0.000286004 0.0017588 0)
(-0.00180665 0.00532535 0)
(-0.00483663 0.00838044 0)
(-0.00879304 0.010701 0)
(-0.0133553 0.0122517 0)
(-0.0182787 0.0130902 0)
(-0.0233389 0.0133175 0)
(-0.0283458 0.0130428 0)
(-0.0331435 0.0123623 0)
(-0.0376035 0.0113504 0)
(-0.041618 0.0100588 0)
(-0.045093 0.00852119 0)
(-0.0479444 0.00675924 0)
(-0.0500946 0.00478969 0)
(-0.0514725 0.002631 0)
(-0.0520145 0.000309444 0)
(-0.0516682 -0.00213548 0)
(-0.0503982 -0.00464647 0)
(-0.0481923 -0.00714483 0)
(-0.0450705 -0.00952868 0)
(-0.0410932 -0.0116737 0)
(-0.036369 -0.0134371 0)
(-0.0310602 -0.0146663 0)
(-0.0253835 -0.0152117 0)
(-0.0196061 -0.0149447 0)
(-0.0140336 -0.0137807 0)
(-0.0089882 -0.0117053 0)
(-0.00477133 -0.00880517 0)
(-0.001694 -0.0052986 0)
(-0.000241481 -0.00159648 0)
(-0.000339899 0.00279996 0)
(-0.00212814 0.00793603 0)
(-0.00565928 0.0121512 0)
(-0.0102235 0.0152832 0)
(-0.01544 0.0173426 0)
(-0.0210307 0.0184306 0)
(-0.0267485 0.0186899 0)
(-0.0323873 0.0182675 0)
(-0.0377805 0.0172917 0)
(-0.0427915 0.0158614 0)
(-0.0473052 0.0140464 0)
(-0.0512211 0.0118923 0)
(-0.0544478 0.00942878 0)
(-0.0568999 0.00667905 0)
(-0.0584973 0.00366833 0)
(-0.0591666 0.000432273 0)
(-0.0588448 -0.00297559 0)
(-0.0574855 -0.00647722 0)
(-0.0550671 -0.00996494 0)
(-0.0516029 -0.0132986 0)
(-0.0471518 -0.0163067 0)
(-0.0418281 -0.0187915 0)
(-0.0358096 -0.0205417 0)
(-0.0293392 -0.021351 0)
(-0.0227207 -0.0210426 0)
(-0.0163062 -0.0195001 0)
(-0.0104702 -0.0166996 0)
(-0.00556832 -0.0127419 0)
(-0.00197499 -0.00787809 0)
(-0.000278723 -0.00254926 0)
(-0.000383052 0.00399564 0)
(-0.00240181 0.0109245 0)
(-0.00637828 0.0164404 0)
(-0.0114919 0.02046 0)
(-0.0173053 0.0230594 0)
(-0.0235076 0.0243986 0)
(-0.0298292 0.024673 0)
(-0.0360503 0.0240744 0)
(-0.0419963 0.0227668 0)
(-0.0475256 0.0208761 0)
(-0.0525192 0.0184901 0)
(-0.0568724 0.0156662 0)
(-0.0604884 0.0124412 0)
(-0.0632746 0.00884302 0)
(-0.0651414 0.00490206 0)
(-0.066003 0.000661604 0)
(-0.0657818 -0.00381191 0)
(-0.0644148 -0.00841989 0)
(-0.0618641 -0.0130241 0)
(-0.0581285 -0.0174423 0)
(-0.0532579 -0.0214487 0)
(-0.0473668 -0.0247817 0)
(-0.0406455 -0.0271596 0)
(-0.0333647 -0.0283062 0)
(-0.0258717 -0.027985 0)
(-0.0185761 -0.026038 0)
(-0.0119183 -0.0224263 0)
(-0.00632013 -0.0172637 0)
(-0.00222309 -0.0108372 0)
(-0.000305368 -0.00363094 0)
(-0.00042079 0.00532518 0)
(-0.00264947 0.0142511 0)
(-0.0070393 0.0212029 0)
(-0.01267 0.0261866 0)
(-0.0190508 0.0293596 0)
(-0.0258386 0.0309552 0)
(-0.0327423 0.0312324 0)
(-0.0395296 0.0304353 0)
(-0.0460199 0.0287685 0)
(-0.0520692 0.0263866 0)
(-0.0575569 0.0233962 0)
(-0.0623765 0.0198653 0)
(-0.0664271 0.0158357 0)
(-0.0696095 0.0113375 0)
(-0.0718229 0.00640269 0)
(-0.0729667 0.00107896 0)
(-0.0729434 -0.00455738 0)
(-0.0716669 -0.0103889 0)
(-0.0690737 -0.0162464 0)
(-0.0651386 -0.0219019 0)
(-0.0598926 -0.027068 0)
(-0.0534423 -0.0314063 0)
(-0.0459868 -0.034549 0)
(-0.0378264 -0.0361319 0)
(-0.0293612 -0.0358408 0)
(-0.021074 -0.033463 0)
(-0.0134913 -0.0289385 0)
(-0.00711905 -0.0223976 0)
(-0.00247615 -0.0141766 0)
(-0.000328744 -0.00483123 0)
(-0.000457145 0.00677986 0)
(-0.00289008 0.0178985 0)
(-0.00768483 0.0264193 0)
(-0.0138257 0.0324456 0)
(-0.02077 0.0362293 0)
(-0.0281431 0.0380906 0)
(-0.0356326 0.0383634 0)
(-0.0429954 0.0373524 0)
(-0.0500469 0.0353078 0)
(-0.0566427 0.0324154 0)
(-0.0626637 0.0288007 0)
(-0.0680033 0.0245408 0)
(-0.0725587 0.0196796 0)
(-0.076224 0.0142453 0)
(-0.0788871 0.00826665 0)
(-0.0804291 0.00179021 0)
(-0.0807278 -0.00510303 0)
(-0.0796657 -0.012281 0)
(-0.0771432 -0.0195447 0)
(-0.0730978 -0.0266177 0)
(-0.0675283 -0.0331422 0)
(-0.0605211 -0.0386883 0)
(-0.0522761 -0.0427799 0)
(-0.0431235 -0.0449391 0)
(-0.0335262 -0.0447481 0)
(-0.0240611 -0.0419194 0)
(-0.0153682 -0.0363637 0)
(-0.00806589 -0.0282355 0)
(-0.00277209 -0.0179447 0)
(-0.000354763 -0.00616012 0)
(-0.000495058 0.00836042 0)
(-0.003139 0.0218685 0)
(-0.00835111 0.0320937 0)
(-0.0150179 0.0392437 0)
(-0.0225441 0.0436783 0)
(-0.0305228 0.0458181 0)
(-0.0386215 0.0460837 0)
(-0.0465872 0.0448496 0)
(-0.0542336 0.042417 0)
(-0.0614192 0.0390056 0)
(-0.0680288 0.0347602 0)
(-0.0739593 0.0297649 0)
(-0.0791079 0.0240624 0)
(-0.0833641 0.0176733 0)
(-0.0866043 0.0106166 0)
(-0.0886894 0.00292984 0)
(-0.0894675 -0.00530947 0)
(-0.0887809 -0.0139618 0)
(-0.0864812 -0.0228029 0)
(-0.0824523 -0.0315072 0)
(-0.0766411 -0.0396383 0)
(-0.069095 -0.0466566 0)
(-0.0599996 -0.0519496 0)
(-0.0497097 -0.0548892 0)
(-0.0387598 -0.0549156 0)
(-0.0278462 -0.0516354 0)
(-0.017761 -0.0449157 0)
(-0.00927819 -0.0349455 0)
(-0.00315282 -0.022243 0)
(-0.000388974 -0.00764759 0)
(-0.000536692 0.010075 0)
(-0.0034085 0.0261793 0)
(-0.009068 0.0382501 0)
(-0.0162958 0.0466083 0)
(-0.0244399 0.0517356 0)
(-0.0330603 0.054168 0)
(-0.0418042 0.0544262 0)
(-0.050411 0.0529642 0)
(-0.0586955 0.0501407 0)
(-0.0665221 0.0462126 0)
(-0.0737841 0.041344 0)
(-0.0803854 0.0356245 0)
(-0.0862278 0.0290908 0)
(-0.0911992 0.0217498 0)
(-0.0951663 0.0136021 0)
(-0.0979699 0.0046657 0)
(-0.0994246 -0.00499707 0)
(-0.0993241 -0.0152515 0)
(-0.0974565 -0.0258571 0)
(-0.0936313 -0.0364428 0)
(-0.0877176 -0.0464879 0)
(-0.0796942 -0.0553236 0)
(-0.0697069 -0.0621655 0)
(-0.0581189 -0.0661859 0)
(-0.0455399 -0.0666261 0)
(-0.0328139 -0.0629365 0)
(-0.0209377 -0.0549135 0)
(-0.0109049 -0.0427896 0)
(-0.00367088 -0.0272379 0)
(-0.000438012 -0.00934667 0)
(-0.00058373 0.0119374 0)
(-0.00370867 0.0308623 0)
(-0.0098604 0.0449291 0)
(-0.0176996 0.0545829 0)
(-0.0265114 0.0604442 0)
(-0.0358197 0.0631822 0)
(-0.045252 0.0634324 0)
(-0.0545417 0.0617399 0)
(-0.0635082 0.0585283 0)
(-0.0720269 0.0540956 0)
(-0.080004 0.0486262 0)
(-0.0873569 0.0422129 0)
(-0.0939972 0.0348822 0)
(-0.0998173 0.0266202 0)
(-0.104679 0.0173984 0)
(-0.108405 0.00720212 0)
(-0.110777 -0.00393785 0)
(-0.111532 -0.0159099 0)
(-0.110379 -0.0284736 0)
(-0.10703 -0.041224 0)
(-0.101241 -0.0535561 0)
(-0.0928824 -0.064654 0)
(-0.0820157 -0.0735202 0)
(-0.0689808 -0.0790611 0)
(-0.0544537 -0.0802368 0)
(-0.0394536 -0.0762604 0)
(-0.0252485 -0.0668062 0)
(-0.0131448 -0.0521505 0)
(-0.00439756 -0.0331805 0)
(-0.00051123 -0.0113407 0)
(-0.000637684 0.0139665 0)
(-0.00404868 0.0359606 0)
(-0.0107507 0.052185 0)
(-0.0192649 0.0632237 0)
(-0.0288036 0.0698569 0)
(-0.0388514 0.0729079 0)
(-0.0490153 0.0731454 0)
(-0.0590257 0.0712185 0)
(-0.0687108 0.067625 0)
(-0.0779622 0.0627086 0)
(-0.0867061 0.0566755 0)
(-0.0948802 0.0496207 0)
(-0.102415 0.0415561 0)
(-0.109214 0.0324392 0)
(-0.115145 0.0222012 0)
(-0.120018 0.0107773 0)
(-0.123585 -0.00185492 0)
(-0.125524 -0.0156263 0)
(-0.125451 -0.0303298 0)
(-0.122956 -0.045549 0)
(-0.117641 -0.0606054 0)
(-0.109208 -0.074525 0)
(-0.0975767 -0.0860531 0)
(-0.0830033 -0.0937475 0)
(-0.0661989 -0.0961699 0)
(-0.0483743 -0.0921698 0)
(-0.0311469 -0.081203 0)
(-0.0162635 -0.063568 0)
(-0.00543134 -0.0404363 0)
(-0.000622422 -0.0137555 0)
(-0.000700225 0.0161859 0)
(-0.00443827 0.0415281 0)
(-0.0117618 0.0600847 0)
(-0.0210259 0.072597 0)
(-0.0313574 0.0800317 0)
(-0.0421962 0.0833925 0)
(-0.0531288 0.0836027 0)
(-0.0638852 0.081432 0)
(-0.0743078 0.0774624 0)
(-0.084311 0.0720894 0)
(-0.0938485 0.0655437 0)
(-0.102887 0.057922 0)
(-0.111386 0.0492188 0)
(-0.119274 0.039356 0)
(-0.126434 0.0282121 0)
(-0.132679 0.0156548 0)
(-0.137734 0.00158237 0)
(-0.141226 -0.0140172 0)
(-0.142677 -0.0310049 0)
(-0.141523 -0.0489931 0)
(-0.137169 -0.06726 0)
(-0.129088 -0.0846779 0)
(-0.116965 -0.0996964 0)
(-0.100887 -0.110428 0)
(-0.081531 -0.11488 0)
(-0.0602856 -0.111346 0)
(-0.0391931 -0.0988961 0)
(-0.0206052 -0.0777789 0)
(-0.00690505 -0.0495218 0)
(-0.000791488 -0.0167753 0)
(-0.0007736 0.0186248 0)
(-0.00488965 0.0476306 0)
(-0.0129209 0.068707 0)
(-0.0230215 0.0827768 0)
(-0.0342153 0.0910279 0)
(-0.0458914 0.0946768 0)
(-0.0576155 0.0948288 0)
(-0.0691211 0.0923924 0)
(-0.0802706 0.0880464 0)
(-0.0910086 0.0822453 0)
(-0.101325 0.0752483 0)
(-0.111224 0.0671552 0)
(-0.120707 0.0579413 0)
(-0.12974 0.0474877 0)
(-0.138239 0.0356098 0)
(-0.146035 0.0220884 0)
(-0.15285 0.00671345 0)
(-0.158268 -0.0106554 0)
(-0.161718 -0.0299953 0)
(-0.162473 -0.0510075 0)
(-0.159706 -0.0729823 0)
(-0.152586 -0.0946696 0)
(-0.140468 -0.114204 0)
(-0.12314 -0.129153 0)
(-0.101122 -0.136779 0)
(-0.0759129 -0.134547 0)
(-0.0500216 -0.120859 0)
(-0.0265899 -0.0957489 0)
(-0.00899038 -0.0611446 0)
(-0.00104608 -0.0206632 0)
(-0.000861189 0.0213199 0)
(-0.00541987 0.0543493 0)
(-0.0142643 0.0781452 0)
(-0.0253005 0.0938447 0)
(-0.0374272 0.102902 0)
(-0.0499753 0.106789 0)
(-0.0624903 0.106825 0)
(-0.0747138 0.10408 0)
(-0.0865355 0.0993428 0)
(-0.0979373 0.0931359 0)
(-0.108953 0.0857517 0)
(-0.119635 0.0772961 0)
(-0.130036 0.0677262 0)
(-0.140177 0.0568802 0)
(-0.150022 0.0445017 0)
(-0.159446 0.030267 0)
(-0.168191 0.0138261 0)
(-0.175826 -0.00513141 0)
(-0.181704 -0.026768 0)
(-0.184947 -0.0509555 0)
(-0.184475 -0.0770805 0)
(-0.179104 -0.103839 0)
(-0.167751 -0.12907 0)
(-0.149757 -0.149723 0)
(-0.125298 -0.162102 0)
(-0.0958211 -0.162492 0)
(-0.0642534 -0.148192 0)
(-0.0346898 -0.118678 0)
(-0.0118991 -0.076238 0)
(-0.00142376 -0.0257823 0)
(-0.000968345 0.024319 0)
(-0.00605425 0.0617864 0)
(-0.0158436 0.0885103 0)
(-0.0279292 0.105888 0)
(-0.0410567 0.115702 0)
(-0.0544912 0.119734 0)
(-0.0677599 0.119557 0)
(-0.0806201 0.116427 0)
(-0.0929959 0.111259 0)
(-0.104914 0.104651 0)
(-0.116459 0.0969333 0)
(-0.12774 0.0882239 0)
(-0.138868 0.0784653 0)
(-0.149931 0.0674542 0)
(-0.160963 0.0548591 0)
(-0.171903 0.0402397 0)
(-0.182549 0.0230796 0)
(-0.19249 0.00285181 0)
(-0.201048 -0.0208642 0)
(-0.207232 -0.0482047 0)
(-0.209734 -0.0787678 0)
(-0.207003 -0.111312 0)
(-0.197448 -0.143461 0)
(-0.179802 -0.171536 0)
(-0.153658 -0.190702 0)
(-0.120124 -0.195651 0)
(-0.0823324 -0.181966 0)
(-0.0453755 -0.147944 0)
(-0.0158822 -0.0959775 0)
(-0.00197617 -0.032619 0)
(-0.0011038 0.0276866 0)
(-0.00683145 0.0700738 0)
(-0.0177336 0.0999365 0)
(-0.0309995 0.119 0)
(-0.0451861 0.129462 0)
(-0.0594871 0.133484 0)
(-0.073418 0.13294 0)
(-0.0867614 0.129301 0)
(-0.0994859 0.123622 0)
(-0.11167 0.116582 0)
(-0.123453 0.108558 0)
(-0.135003 0.0996819 0)
(-0.146498 0.0898895 0)
(-0.158097 0.0789416 0)
(-0.169916 0.0664354 0)
(-0.181984 0.05181 0)
(-0.194185 0.0343671 0)
(-0.20618 0.013326 0)
(-0.217328 -0.012058 0)
(-0.226601 -0.0422827 0)
(-0.232545 -0.0772917 0)
(-0.2333 -0.116072 0)
(-0.226765 -0.156192 0)
(-0.210955 -0.193441 0)
(-0.184612 -0.221775 0)
(-0.148089 -0.233912 0)
(-0.10427 -0.222938 0)
(-0.0590184 -0.184953 0)
(-0.0212263 -0.121763 0)
(-0.00277725 -0.0418084 0)
(-0.0012822 0.0315139 0)
(-0.00781176 0.0793876 0)
(-0.0200447 0.112588 0)
(-0.0346387 0.133276 0)
(-0.0499199 0.144185 0)
(-0.0650106 0.147953 0)
(-0.079429 0.146812 0)
(-0.0929998 0.142476 0)
(-0.105748 0.136148 0)
(-0.117812 0.128595 0)
(-0.129387 0.120241 0)
(-0.140701 0.111238 0)
(-0.151993 0.10152 0)
(-0.163495 0.0908251 0)
(-0.175409 0.0786882 0)
(-0.187865 0.0644373 0)
(-0.200866 0.0471922 0)
(-0.214201 0.0259039 0)
(-0.227345 -0.000537274 0)
(-0.239353 -0.0330787 0)
(-0.248773 -0.0721286 0)
(-0.253592 -0.117108 0)
(-0.251305 -0.165781 0)
(-0.239202 -0.213654 0)
(-0.214962 -0.253605 0)
(-0.177691 -0.276163 0)
(-0.12929 -0.271095 0)
(-0.0757264 -0.230833 0)
(-0.0282434 -0.155136 0)
(-0.00393769 -0.0541624 0)
(-0.00152913 0.0359347 0)
(-0.00909132 0.0899677 0)
(-0.0229407 0.126665 0)
(-0.0390216 0.148799 0)
(-0.0553828 0.159824 0)
(-0.0710902 0.162973 0)
(-0.0856943 0.160903 0)
(-0.099089 0.155595 0)
(-0.111375 0.148408 0)
(-0.122758 0.140193 0)
(-0.133493 0.131415 0)
(-0.143859 0.12225 0)
(-0.154149 0.112637 0)
(-0.164659 0.1023 0)
(-0.175667 0.0907334 0)
(-0.187407 0.0771745 0)
(-0.200016 0.0605854 0)
(-0.21346 0.0396657 0)
(-0.227427 0.0129398 0)
(-0.241177 -0.0210288 0)
(-0.253472 -0.0632046 0)
(-0.262403 -0.113653 0)
(-0.265299 -0.170642 0)
(-0.258888 -0.22982 0)
(-0.239732 -0.283404 0)
(-0.205246 -0.319881 0)
(-0.155417 -0.32508 0)
(-0.0950813 -0.285939 0)
(-0.0372347 -0.197595 0)
(-0.00562597 -0.0707013 0)
(-0.00189133 0.0411535 0)
(-0.010828 0.102148 0)
(-0.0266667 0.142409 0)
(-0.0443817 0.165623 0)
(-0.0617049 0.176234 0)
(-0.0776916 0.178234 0)
(-0.0919809 0.174775 0)
(-0.104582 0.168123 0)
(-0.115699 0.159785 0)
(-0.125621 0.15068 0)
(-0.134662 0.141306 0)
(-0.143151 0.131855 0)
(-0.151421 0.122274 0)
(-0.159811 0.112285 0)
(-0.168658 0.101363 0)
(-0.178283 0.0886896 0)
(-0.18896 0.0731168 0)
(-0.200857 0.0531508 0)
(-0.213946 0.0270165 0)
(-0.227815 -0.00716596 0)
(-0.241672 -0.0510884 0)
(-0.254022 -0.105465 0)
(-0.262387 -0.169419 0)
(-0.26331 -0.239305 0)
(-0.252447 -0.307431 0)
(-0.225324 -0.360912 0)
(-0.179104 -0.381594 0)
(-0.115775 -0.349145 0)
(-0.0484008 -0.250226 0)
(-0.00809317 -0.0926768 0)
(-0.00245851 0.0474979 0)
(-0.0132888 0.116401 0)
(-0.03159 0.160094 0)
(-0.0510156 0.183711 0)
(-0.0689758 0.193093 0)
(-0.0846217 0.193199 0)
(-0.0977826 0.18774 0)
(-0.108655 0.179267 0)
(-0.117595 0.169407 0)
(-0.124997 0.159119 0)
(-0.131246 0.14891 0)
(-0.136714 0.138973 0)
(-0.141762 0.129258 0)
(-0.146752 0.119491 0)
(-0.152054 0.109148 0)
(-0.158047 0.0973983 0)
(-0.165114 0.0830457 0)
(-0.173609 0.064491 0)
(-0.183805 0.0397589 0)
(-0.195841 0.00662355 0)
(-0.209421 -0.0371596 0)
(-0.22366 -0.0931071 0)
(-0.236845 -0.161429 0)
(-0.245868 -0.239766 0)
(-0.246013 -0.321504 0)
(-0.231174 -0.393673 0)
(-0.195144 -0.435047 0)
(-0.135224 -0.417033 0)
(-0.0616614 -0.313096 0)
(-0.0116915 -0.121566 0)
(-0.00340924 0.0555185 0)
(-0.0169369 0.13339 0)
(-0.038253 0.179977 0)
(-0.0592528 0.202821 0)
(-0.0771187 0.20976 0)
(-0.0913173 0.206958 0)
(-0.102041 0.198731 0)
(-0.109786 0.187873 0)
(-0.115126 0.176075 0)
(-0.1186 0.164288 0)
(-0.120681 0.152989 0)
(-0.121788 0.142343 0)
(-0.1223 0.132289 0)
(-0.122583 0.122555 0)
(-0.123009 0.112631 0)
(-0.12398 0.101712 0)
(-0.125945 0.0886246 0)
(-0.129412 0.0717687 0)
(-0.134934 0.0491032 0)
(-0.143074 0.0182258 0)
(-0.154213 -0.0233713 0)
(-0.168362 -0.0780204 0)
(-0.18481 -0.14706 0)
(-0.201444 -0.229852 0)
(-0.214039 -0.321901 0)
(-0.215691 -0.411923 0)
(-0.197033 -0.477749 0)
(-0.149323 -0.483239 0)
(-0.0763438 -0.384367 0)
(-0.0168554 -0.158982 0)
(-0.00510562 0.0661854 0)
(-0.0225796 0.154036 0)
(-0.0474071 0.202168 0)
(-0.0693019 0.222265 0)
(-0.0855564 0.225006 0)
(-0.0963692 0.217987 0)
(-0.102569 0.206094 0)
(-0.105114 0.192266 0)
(-0.104883 0.178156 0)
(-0.102604 0.164627 0)
(-0.0988586 0.152066 0)
(-0.0941134 0.140573 0)
(-0.0887586 0.130046 0)
(-0.0831431 0.120202 0)
(-0.0776121 0.110549 0)
(-0.0725476 0.100336 0)
(-0.0684136 0.0884725 0)
(-0.065798 0.0734616 0)
(-0.0654442 0.0533623 0)
(-0.0682598 0.0258172 0)
(-0.0752358 -0.0118155 0)
(-0.0872641 -0.0622815 0)
(-0.104847 -0.127877 0)
(-0.127376 -0.20979 0)
(-0.152072 -0.306407 0)
(-0.172627 -0.410048 0)
(-0.177746 -0.500857 0)
(-0.152467 -0.538343 0)
(-0.0906844 -0.459199 0)
(-0.0239547 -0.206362 0)
(-0.00827227 0.0812708 0)
(-0.0315828 0.179514 0)
(-0.0598787 0.226254 0)
(-0.0806895 0.240416 0)
(-0.0923134 0.236548 0)
(-0.0964103 0.223755 0)
(-0.0948379 0.207305 0)
(-0.0892048 0.190065 0)
(-0.0807815 0.173482 0)
(-0.0705093 0.15821 0)
(-0.0590705 0.144469 0)
(-0.0469611 0.132234 0)
(-0.0345525 0.121326 0)
(-0.0221461 0.111427 0)
(-0.0100245 0.102061 0)
(0.00149395 0.0925398 0)
(0.0119888 0.0818989 0)
(0.0208724 0.0688243 0)
(0.0273244 0.0516029 0)
(0.0302324 0.028112 0)
(0.0281745 -0.00414078 0)
(0.0195787 -0.04797 0)
(0.00280414 -0.106205 0)
(-0.0232436 -0.181437 0)
(-0.0579829 -0.275067 0)
(-0.097358 -0.384487 0)
(-0.130452 -0.495948 0)
(-0.137645 -0.57054 0)
(-0.101035 -0.528691 0)
(-0.0328137 -0.264267 0)
(-0.0142504 0.104031 0)
(-0.0459599 0.210929 0)
(-0.0756615 0.25042 0)
(-0.0904054 0.253787 0)
(-0.0916064 0.240302 0)
(-0.0834951 0.220223 0)
(-0.0693804 0.198688 0)
(-0.0516402 0.178089 0)
(-0.0319135 0.159398 0)
(-0.0112773 0.142895 0)
(0.00957871 0.128527 0)
(0.0302201 0.116086 0)
(0.0503726 0.105275 0)
(0.0698472 0.0957234 0)
(0.0884783 0.0869596 0)
(0.106059 0.0783689 0)
(0.12227 0.0691316 0)
(0.136597 0.0581645 0)
(0.148248 0.0440652 0)
(0.156061 0.0250813 0)
(0.158372 -0.000899375 0)
(0.15322 -0.0363491 0)
(0.138189 -0.084138 0)
(0.110727 -0.147509 0)
(0.0689657 -0.230129 0)
(0.0133904 -0.334715 0)
(-0.0484659 -0.456758 0)
(-0.0960273 -0.566991 0)
(-0.1007 -0.579394 0)
(-0.0416105 -0.331928 0)
(-0.024953 0.140368 0)
(-0.0671031 0.247363 0)
(-0.0898037 0.268875 0)
(-0.087071 0.254951 0)
(-0.0676057 0.22908 0)
(-0.0392359 0.201225 0)
(-0.00668645 0.175312 0)
(0.0272102 0.152589 0)
(0.0608163 0.133189 0)
(0.0932558 0.11683 0)
(0.124104 0.103102 0)
(0.153197 0.0915759 0)
(0.180511 0.0818291 0)
(0.20608 0.0734385 0)
(0.229932 0.0659489 0)
(0.252028 0.0588301 0)
(0.272193 0.051427 0)
(0.290037 0.0429102 0)
(0.304867 0.0322294 0)
(0.315578 0.0180753 0)
(0.320509 -0.00114715 0)
(0.317552 -0.02725 0)
(0.30385 -0.0626493 0)
(0.275976 -0.110422 0)
(0.230121 -0.175069 0)
(0.163017 -0.263167 0)
(0.0760658 -0.380517 0)
(-0.0153595 -0.515527 0)
(-0.0785339 -0.593576 0)
(-0.0449432 -0.406746 0)
(-0.0402121 0.201448 0)
(-0.0873021 0.279046 0)
(-0.076422 0.263919 0)
(-0.0343094 0.227516 0)
(0.0197583 0.190347 0)
(0.0762276 0.158008 0)
(0.130841 0.13148 0)
(0.181718 0.110172 0)
(0.228234 0.0931393 0)
(0.270404 0.0795001 0)
(0.308524 0.0685295 0)
(0.342994 0.059643 0)
(0.374224 0.0523595 0)
(0.402581 0.046263 0)
(0.428349 0.0409618 0)
(0.451689 0.036049 0)
(0.472587 0.0310626 0)
(0.49079 0.0254487 0)
(0.505733 0.0185284 0)
(0.516431 0.00946935 0)
(0.521419 -0.00274456 0)
(0.518639 -0.0192116 0)
(0.505138 -0.0415123 0)
(0.477225 -0.0718509 0)
(0.430093 -0.113965 0)
(0.357656 -0.175217 0)
(0.254696 -0.268977 0)
(0.123851 -0.406749 0)
(-0.0149318 -0.548283 0)
(-0.0282962 -0.472128 0)
(-0.0331673 0.295591 0)
(-0.0445992 0.276516 0)
(0.0597216 0.20327 0)
(0.164472 0.151906 0)
(0.256894 0.114968 0)
(0.336533 0.0878842 0)
(0.404477 0.0682743 0)
(0.462177 0.0540739 0)
(0.51126 0.0436433 0)
(0.553261 0.0358494 0)
(0.589475 0.0299347 0)
(0.620957 0.0253761 0)
(0.648544 0.021795 0)
(0.672888 0.0189 0)
(0.694459 0.0164463 0)
(0.71355 0.0142034 0)
(0.730251 0.0119298 0)
(0.744412 0.0093527 0)
(0.755597 0.0061544 0)
(0.76297 0.0019631 0)
(0.765412 -0.00359605 0)
(0.761157 -0.0111568 0)
(0.747659 -0.0213701 0)
(0.721635 -0.0352289 0)
(0.678448 -0.0546717 0)
(0.611104 -0.0843875 0)
(0.509037 -0.137052 0)
(0.358016 -0.240978 0)
(0.139757 -0.406991 0)
(0.0574406 -0.45805 0)
(0.303549 0.18105 0)
(0.384029 0.145119 0)
(0.564318 0.0922448 0)
(0.692014 0.0598358 0)
(0.775516 0.0397068 0)
(0.834629 0.026663 0)
(0.87879 0.0182506 0)
(0.912576 0.0128545 0)
(0.938973 0.00935155 0)
(0.960088 0.00702874 0)
(0.977358 0.00545323 0)
(0.991761 0.00435866 0)
(1.00397 0.00357492 0)
(1.01447 0.00298754 0)
(1.02356 0.00251277 0)
(1.0314 0.00208122 0)
(1.03804 0.00162705 0)
(1.04336 0.00108067 0)
(1.0471 0.000368629 0)
(1.0488 -0.000594288 0)
(1.04775 -0.00181544 0)
(1.04294 -0.00353931 0)
(1.03313 -0.00588131 0)
(1.01657 -0.00902418 0)
(0.990662 -0.013406 0)
(0.950854 -0.0202463 0)
(0.887242 -0.0332141 0)
(0.778361 -0.0645188 0)
(0.545484 -0.140064 0)
(0.382537 -0.202112 0)
)
;

boundaryField
{
    movingWall
    {
        type            fixedValue;
        value           uniform (1.2 0 0);
    }
    fixedWalls
    {
        type            noSlip;
    }
    frontAndBack
    {
        type            empty;
    }
}


// ************************************************************************* //
