/*--------------------------------*- C++ -*----------------------------------*\
  =========                 |
  \\      /  F ield         | OpenFOAM: The Open Source CFD Toolbox
   \\    /   O peration     | Website:  https://openfoam.org
    \\  /    A nd           | Version:  7
     \\/     M anipulation  |
\*---------------------------------------------------------------------------*/
FoamFile
{
    version     2.0;
    format      ascii;
    class       volScalarField;
    location    "8";
    object      p;
}
// * * * * * * * * * * * * * * * * * * * * * * * * * * * * * * * * * * * * * //

dimensions      [0 2 -2 0 0 0 0];

internalField   nonuniform List<scalar> 
900
(
-5.70216e-07
-0.000347274
-0.000913932
-0.00152262
-0.00206541
-0.00247839
-0.00272858
-0.00279997
-0.0026831
-0.00237036
-0.0018557
-0.00113694
-0.000219738
0.000878221
0.00212357
0.00346521
0.00483457
0.006149
0.00731836
0.00825456
0.00888293
0.00915398
0.00905322
0.00860718
0.00788462
0.00699052
0.00605552
0.00523761
0.00469594
0.00455665
0.000342128
-1.72216e-05
-0.000450598
-0.00089798
-0.00129522
-0.00159635
-0.0017755
-0.00181751
-0.00171164
-0.00144919
-0.00102358
-0.00043216
0.000320879
0.00122127
0.00224168
0.00333996
0.00446139
0.00553747
0.00649461
0.0072612
0.00777714
0.00800369
0.00793147
0.00758486
0.00702181
0.00632881
0.00561086
0.004971
0.00454216
0.00441501
0.000930301
0.000400826
-4.73143e-05
-0.000448559
-0.000789287
-0.00104207
-0.00119196
-0.00122968
-0.00114658
-0.000933737
-0.000582925
-8.86808e-05
0.000548738
0.00132007
0.00220412
0.00316638
0.00415743
0.00511626
0.00597508
0.00666666
0.00713378
0.00733886
0.00727191
0.00695465
0.00643963
0.0058042
0.00514039
0.00454211
0.00410283
0.00388976
0.00158704
0.000827098
0.000299925
-0.000112616
-0.000444097
-0.000685257
-0.000833692
-0.000888029
-0.000842822
-0.000688961
-0.000415541
-1.2588e-05
0.000525458
0.00119592
0.00198429
0.00286175
0.00378359
0.00469133
0.00551727
0.00619189
0.00665384
0.00686045
0.00679657
0.00647944
0.0059578
0.00530512
0.00460923
0.0039607
0.00343219
0.00305991
0.00216963
0.00116172
0.000532434
8.25602e-05
-0.000265858
-0.000520275
-0.000690362
-0.00078242
-0.000793864
-0.000714672
-0.000530171
-0.000224485
0.00021527
0.00079436
0.00150585
0.00232691
0.00321716
0.00411853
0.00496031
0.00566651
0.00616661
0.00640746
0.006364
0.00604566
0.00549644
0.00478793
0.00400916
0.00325456
0.00258694
0.00200244
0.00255733
0.00130405
0.000563902
6.0672e-05
-0.000324857
-0.000615182
-0.000830719
-0.00098426
-0.001075
-0.0010909
-0.00101227
-0.000815935
-0.000480109
1.00058e-05
0.000656484
0.00144358
0.00233549
0.00327386
0.00418307
0.00497714
0.00557138
0.00589614
0.00591015
0.00560978
0.00503128
0.00424485
0.00334504
0.00243798
0.00158441
0.000748174
0.00264469
0.00116139
0.000310737
-0.000255162
-0.000693719
-0.00104098
-0.00132658
-0.0015683
-0.00176578
-0.0019037
-0.00195606
-0.0018908
-0.00167548
-0.00128369
-0.000702138
6.26665e-05
0.000981893
0.00199734
0.00302803
0.00397538
0.00473554
0.00521525
0.00534864
0.005111
0.00452506
0.00365776
0.00261243
0.00151478
0.00043244
-0.000698082
0.00233852
0.000648562
-0.000306432
-0.000940063
-0.00144499
-0.00186965
-0.0022515
-0.00261189
-0.00294965
-0.00324502
-0.00346437
-0.00356521
-0.00350236
-0.0032351
-0.0027356
-0.00199749
-0.00103764
8.77336e-05
0.001294
0.00246885
0.00348466
0.00421632
0.00456245
0.0044654
0.00392446
0.00299795
0.00179916
0.000481216
-0.000872449
-0.00235018
0.00155615
-0.000311345
-0.00136126
-0.0020659
-0.00265001
-0.0031735
-0.00368051
-0.0041949
-0.00471379
-0.0052121
-0.00564753
-0.00596565
-0.00610621
-0.00601092
-0.00563232
-0.00494373
-0.00395174
-0.00269731
-0.00126609
0.000216613
0.00159592
0.00270614
0.00339666
0.00356038
0.00315726
0.00222607
0.000887698
-0.000670169
-0.00233918
-0.00423187
0.000226583
-0.00178441
-0.00291794
-0.00369653
-0.00437327
-0.0050188
-0.00568321
-0.0063922
-0.00714081
-0.00789833
-0.0086132
-0.00921781
-0.00963456
-0.00978379
-0.00959329
-0.0090098
-0.00801693
-0.00663555
-0.00494347
-0.00307396
-0.00120963
0.000435387
0.0016456
0.00224265
0.00212343
0.00128773
-0.000144723
-0.00194661
-0.0039752
-0.00636755
-0.00170651
-0.00382259
-0.00502714
-0.0058827
-0.00666631
-0.00745865
-0.00831535
-0.0092639
-0.0102976
-0.0113803
-0.0124515
-0.0134295
-0.0142176
-0.0147109
-0.0148069
-0.0144186
-0.0134917
-0.0120187
-0.0100565
-0.00773596
-0.00526292
-0.00290409
-0.000955196
0.000307832
0.000685804
0.00010798
-0.00132655
-0.00335112
-0.00577929
-0.00877308
-0.00428097
-0.00646025
-0.00772211
-0.00865733
-0.00956177
-0.0105256
-0.0116099
-0.0128446
-0.0142221
-0.0157023
-0.0172161
-0.0186684
-0.0199418
-0.0209035
-0.0214152
-0.0213468
-0.020596
-0.0191114
-0.0169117
-0.0141096
-0.0109218
-0.00766445
-0.00472435
-0.00250254
-0.00133621
-0.00141357
-0.00269233
-0.00487775
-0.00773322
-0.0114453
-0.00751259
-0.00971114
-0.0110154
-0.0120313
-0.013068
-0.0142246
-0.0155683
-0.0171324
-0.01891
-0.020859
-0.0229038
-0.0249366
-0.0268198
-0.0283907
-0.0294708
-0.0298796
-0.0294552
-0.0280903
-0.0257416
-0.022482
-0.018518
-0.0142005
-0.0100078
-0.00648838
-0.00416404
-0.00340378
-0.00428142
-0.00650542
-0.00979114
-0.0143494
-0.0113925
-0.0135666
-0.0148969
-0.0159908
-0.0171648
-0.0185273
-0.0201523
-0.0220782
-0.0243015
-0.0267802
-0.0294348
-0.0321472
-0.0347607
-0.037083
-0.0388934
-0.0399574
-0.0400484
-0.038974
-0.0366243
-0.0330025
-0.0282739
-0.022796
-0.0171211
-0.0119528
-0.0080399
-0.00600742
-0.0061322
-0.00818837
-0.0118654
-0.0174012
-0.0158863
-0.0179958
-0.0193338
-0.0204962
-0.0218017
-0.0233683
-0.025279
-0.0275796
-0.0302726
-0.0333194
-0.0366394
-0.0401073
-0.0435499
-0.0467469
-0.0494367
-0.0513291
-0.0521261
-0.0515512
-0.0494025
-0.0455894
-0.0402019
-0.0335617
-0.0262577
-0.0191309
-0.01318
-0.00936126
-0.00826693
-0.00984127
-0.013807
-0.0204447
-0.020936
-0.0229482
-0.0242734
-0.0254844
-0.0268985
-0.0286452
-0.0308196
-0.0334782
-0.0366329
-0.0402517
-0.0442561
-0.0485163
-0.0528459
-0.0570006
-0.0606811
-0.0635444
-0.0652223
-0.0653495
-0.0636312
-0.0598579
-0.0540109
-0.0463283
-0.0373776
-0.0280879
-0.0196959
-0.0135432
-0.0106614
-0.0113159
-0.0153796
-0.0232218
-0.0264644
-0.0283597
-0.0296489
-0.0308737
-0.0323496
-0.0342218
-0.0366025
-0.039564
-0.0431313
-0.0472818
-0.0519421
-0.0569805
-0.0622007
-0.0673377
-0.0720599
-0.0759776
-0.0786585
-0.0796523
-0.078583
-0.075102
-0.0690605
-0.0605685
-0.0501044
-0.0386065
-0.0274911
-0.0184936
-0.0131938
-0.0123656
-0.0162249
-0.025333
-0.0323837
-0.0341623
-0.0353885
-0.036572
-0.0380308
-0.0399344
-0.042421
-0.0455851
-0.0494691
-0.054063
-0.0592997
-0.0650471
-0.0711008
-0.0771791
-0.0829225
-0.0879023
-0.0916377
-0.0936255
-0.0933314
-0.0903556
-0.0843936
-0.0753915
-0.0636754
-0.0500985
-0.0361546
-0.0239173
-0.0155721
-0.0125948
-0.0158171
-0.0261888
-0.0386068
-0.0402976
-0.041428
-0.0424866
-0.0438078
-0.0456012
-0.0480439
-0.0512621
-0.0553209
-0.0602242
-0.0659113
-0.0722493
-0.0790257
-0.085943
-0.0926184
-0.0985907
-0.103334
-0.106285
-0.106858
-0.104527
-0.0988591
-0.0896331
-0.0769812
-0.0615854
-0.04489
-0.0291872
-0.0172442
-0.0113916
-0.013407
-0.0249475
-0.0450647
-0.0467354
-0.047726
-0.0485348
-0.0495446
-0.0510299
-0.053227
-0.0563054
-0.0603576
-0.0654016
-0.0713808
-0.078158
-0.0855097
-0.0931213
-0.100587
-0.10742
-0.113054
-0.116881
-0.118263
-0.116585
-0.111301
-0.102031
-0.0887044
-0.0717752
-0.0525192
-0.0332863
-0.0173108
-0.0078453
-0.00794975
-0.0204329
-0.0517317
-0.0534999
-0.0542816
-0.0546542
-0.0551088
-0.0560247
-0.0577236
-0.0604315
-0.0642709
-0.0692709
-0.0753725
-0.0824276
-0.0901956
-0.0983393
-0.106427
-0.113953
-0.120307
-0.124841
-0.126876
-0.125723
-0.120747
-0.111434
-0.0975231
-0.0792291
-0.0575793
-0.0348187
-0.014466
-0.000656984
0.00198358
-0.011015
-0.0586693
-0.0607084
-0.0611565
-0.0608093
-0.060373
-0.0603889
-0.0612938
-0.0633797
-0.0667966
-0.0715751
-0.0776438
-0.084831
-0.09287
-0.101392
-0.109928
-0.11799
-0.124868
-0.129886
-0.132334
-0.131461
-0.12655
-0.116975
-0.102318
-0.0825745
-0.0584982
-0.0321061
-0.00699651
0.0119377
0.0183164
0.00557298
-0.0661131
-0.0686334
-0.0685008
-0.0669935
-0.0652112
-0.0639262
-0.0637133
-0.0649291
-0.0677366
-0.0721497
-0.0780704
-0.085283
-0.0934864
-0.102275
-0.111147
-0.119522
-0.126715
-0.131995
-0.134579
-0.133656
-0.128427
-0.118169
-0.102326
-0.0807128
-0.0538106
-0.0233659
0.00713486
0.032206
0.0436135
0.0325375
-0.074659
-0.0778101
-0.0765871
-0.0732295
-0.0694938
-0.0664437
-0.0647872
-0.0649188
-0.0669824
-0.0709466
-0.0766529
-0.083837
-0.0921404
-0.101109
-0.110196
-0.118764
-0.126093
-0.13139
-0.133806
-0.132452
-0.126434
-0.114916
-0.0972163
-0.0729882
-0.042402
-0.00700229
0.0300624
0.0628761
0.0812965
0.0745142
-0.0856872
-0.0892217
-0.085844
-0.0795596
-0.073084
-0.067762
-0.064369
-0.0632692
-0.06453
-0.0680305
-0.0735265
-0.0806782
-0.0890597
-0.0981584
-0.107374
-0.116017
-0.123311
-0.128398
-0.130349
-0.128185
-0.120883
-0.107479
-0.0871197
-0.0592505
-0.0238758
0.017941
0.0635227
0.106899
0.135821
0.138074
-0.102354
-0.104637
-0.0968633
-0.0860085
-0.075815
-0.0677058
-0.0623544
-0.0599719
-0.0604628
-0.0635631
-0.0689099
-0.0760683
-0.0845352
-0.0937344
-0.103009
-0.111616
-0.11872
-0.123395
-0.12463
-0.121338
-0.112334
-0.0964978
-0.0727502
-0.0402514
0.00134042
0.0514602
0.108105
0.166657
0.212217
0.23166
-0.131812
-0.127136
-0.110444
-0.0925809
-0.0774732
-0.0660755
-0.0586471
-0.0550508
-0.0549121
-0.0577566
-0.0630701
-0.0703084
-0.0788881
-0.0881706
-0.0974469
-0.105925
-0.112717
-0.116835
-0.117192
-0.11259
-0.101691
-0.0831569
-0.055615
-0.0178034
0.0312232
0.0917911
0.163292
0.242148
0.314343
0.366914
-0.190188
-0.160275
-0.127109
-0.0988848
-0.0774191
-0.0623514
-0.0529688
-0.0484557
-0.0479977
-0.0508456
-0.0563145
-0.0637528
-0.0725068
-0.08189
-0.0911565
-0.0994799
-0.105937
-0.109491
-0.108989
-0.103138
-0.0905727
-0.0696333
-0.0386136
0.00432014
0.061099
0.133651
0.223804
0.330877
0.444339
0.570629
-0.321335
-0.20004
-0.138627
-0.0974085
-0.0698253
-0.0523256
-0.0424234
-0.0382226
-0.0383664
-0.0418739
-0.0479617
-0.0559329
-0.0651139
-0.074811
-0.0842768
-0.092684
-0.0991072
-0.102502
-0.10169
-0.0952336
-0.0818849
-0.0597773
-0.0269139
0.0191016
0.0813889
0.164313
0.27435
0.420023
0.608348
0.897866
-0.648713
-0.236527
-0.107202
-0.0624422
-0.0379647
-0.0242984
-0.0185428
-0.0180539
-0.0211667
-0.0269788
-0.0348702
-0.0442809
-0.0546411
-0.0653365
-0.0756812
-0.0848956
-0.0920906
-0.0962577
-0.0962804
-0.0910001
-0.0785963
-0.0575312
-0.0258007
0.0191974
0.0811618
0.166318
0.287109
0.471873
0.77801
1.37186
)
;

boundaryField
{
    movingWall
    {
        type            zeroGradient;
    }
    fixedWalls
    {
        type            zeroGradient;
    }
    frontAndBack
    {
        type            empty;
    }
}


// ************************************************************************* //
