/*--------------------------------*- C++ -*----------------------------------*\
  =========                 |
  \\      /  F ield         | OpenFOAM: The Open Source CFD Toolbox
   \\    /   O peration     | Website:  https://openfoam.org
    \\  /    A nd           | Version:  7
     \\/     M anipulation  |
\*---------------------------------------------------------------------------*/
FoamFile
{
    version     2.0;
    format      ascii;
    class       surfaceScalarField;
    location    "8";
    object      phi;
}
// * * * * * * * * * * * * * * * * * * * * * * * * * * * * * * * * * * * * * //

dimensions      [0 3 -1 0 0 0 0];

internalField   nonuniform List<scalar> 
1740
(
8.26291e-07
-8.25845e-07
4.8883e-07
3.37477e-07
-1.44191e-06
1.93073e-06
-4.80058e-06
3.35866e-06
-9.23794e-06
4.43736e-06
-1.44029e-05
5.16495e-06
-1.99997e-05
5.59684e-06
-2.57878e-05
5.78811e-06
-3.15597e-05
5.77191e-06
-3.71167e-05
5.55699e-06
-4.22506e-05
5.13393e-06
-4.67355e-05
4.48482e-06
-5.03296e-05
3.59415e-06
-5.27888e-05
2.45924e-06
-5.38881e-05
1.09929e-06
-5.34492e-05
-4.38941e-07
-5.13716e-05
-2.07758e-06
-4.76625e-05
-3.70909e-06
-4.24588e-05
-5.20377e-06
-3.6036e-05
-6.42277e-06
-2.88012e-05
-7.23483e-06
-2.12652e-05
-7.53594e-06
-1.39973e-05
-7.26794e-06
-7.56451e-06
-6.43276e-06
-2.46449e-06
-5.10003e-06
9.47607e-07
-3.41209e-06
2.53107e-06
-1.58346e-06
2.40679e-06
1.24288e-07
1.14466e-06
1.26213e-06
1.14466e-06
-3.20215e-07
-5.05614e-07
-3.51046e-06
3.52773e-06
-1.01517e-05
8.57195e-06
-1.98641e-05
1.30711e-05
-3.1995e-05
1.65682e-05
-4.58301e-05
1.90001e-05
-6.06941e-05
2.04608e-05
-7.59744e-05
2.10684e-05
-9.11034e-05
2.09009e-05
-0.000105527
1.99805e-05
-0.00011868
1.82868e-05
-0.000129978
1.57829e-05
-0.00013883
1.24463e-05
-0.000144671
8.29978e-06
-0.000147007
3.43558e-06
-0.000145484
-1.96132e-06
-0.000139931
-7.63099e-06
-0.000130433
-1.32069e-05
-0.000117362
-1.82748e-05
-0.000101388
-2.23969e-05
-8.34574e-05
-2.51655e-05
-6.47322e-05
-2.62612e-05
-4.64912e-05
-2.55089e-05
-3.00015e-05
-2.29225e-05
-1.63709e-05
-1.87306e-05
-6.40006e-06
-1.33829e-05
-4.37849e-07
-7.54567e-06
1.81246e-06
-2.12602e-06
1.31972e-06
1.75489e-06
2.46438e-06
-2.09692e-06
1.59129e-06
-9.18004e-06
1.06108e-05
-2.11068e-05
2.04987e-05
-3.72048e-05
2.91691e-05
-5.65615e-05
3.59249e-05
-7.82064e-05
4.0645e-05
-0.0001012
4.34546e-05
-0.000124657
4.45256e-05
-0.00014773
4.39733e-05
-0.000169579
4.18296e-05
-0.000189355
3.80632e-05
-0.000206199
3.26265e-05
-0.000219262
2.55096e-05
-0.000227757
1.67946e-05
-0.000231021
6.69936e-06
-0.000228586
-4.39641e-06
-0.000220262
-1.59548e-05
-0.000206201
-2.7268e-05
-0.00018694
-3.75356e-05
-0.000163416
-4.59211e-05
-0.000136934
-5.16473e-05
-0.000109093
-5.41021e-05
-8.16576e-05
-5.29443e-05
-5.63908e-05
-4.81893e-05
-3.48576e-05
-4.02638e-05
-1.82204e-05
-3.00201e-05
-7.04385e-06
-1.87222e-05
-1.15424e-06
-8.01563e-06
5.34547e-07
6.61117e-08
2.99893e-06
-4.00967e-06
5.60096e-06
-1.52489e-05
2.18501e-05
-3.2703e-05
3.79528e-05
-5.52026e-05
5.16688e-05
-8.15203e-05
6.22426e-05
-0.000110451
6.95761e-05
-0.000140852
7.38547e-05
-0.000171634
7.53075e-05
-0.000201742
7.40815e-05
-0.000230124
7.02118e-05
-0.000255717
6.36561e-05
-0.000277453
5.43624e-05
-0.000294293
4.23496e-05
-0.000305282
2.77843e-05
-0.000309626
1.10428e-05
-0.000306765
-7.25664e-06
-0.00029647
-2.62501e-05
-0.000278907
-4.48316e-05
-0.000254692
-6.17498e-05
-0.000224917
-7.56967e-05
-0.000191117
-8.54467e-05
-0.000155203
-9.0017e-05
-0.000119316
-8.88311e-05
-8.56432e-05
-8.18617e-05
-5.61819e-05
-6.97252e-05
-3.24896e-05
-5.37124e-05
-1.54545e-05
-3.57573e-05
-5.11566e-06
-1.83544e-05
-5.91518e-07
-4.45803e-06
2.40741e-06
-5.86715e-06
1.14681e-05
-2.12473e-05
3.72302e-05
-4.42021e-05
6.09076e-05
-7.29817e-05
8.04484e-05
-0.000105998
9.52591e-05
-0.000141813
0.000105391
-0.000179109
0.00011115
-0.000216647
0.000112846
-0.000253224
0.000110659
-0.000287637
0.000104625
-0.00031867
9.46882e-05
-0.0003451
8.07928e-05
-0.000365742
6.29918e-05
-0.000379503
4.15448e-05
-0.000385457
1.69971e-05
-0.000382937
-9.77689e-06
-0.000371614
-3.75724e-05
-0.000351593
-6.48528e-05
-0.000323471
-8.98722e-05
-0.000288381
-0.000110787
-0.00024799
-0.000125838
-0.000204437
-0.00013357
-0.000160202
-0.000133066
-0.0001179
-0.000124163
-8.00143e-05
-0.000107611
-4.85958e-05
-8.5131e-05
-2.49816e-05
-5.93715e-05
-9.58297e-06
-3.3753e-05
-1.79106e-06
-1.22499e-05
6.16351e-07
-7.60459e-06
1.90727e-05
-2.69437e-05
5.65693e-05
-5.51837e-05
8.91476e-05
-8.99803e-05
0.000115245
-0.000129372
0.000134651
-0.000171692
0.00014771
-0.000215472
0.000154931
-0.000259364
0.000156738
-0.000302067
0.000153362
-0.00034228
0.000144838
-0.000378682
0.00013109
-0.000409944
0.000112054
-0.000434759
8.78067e-05
-0.000451903
5.86889e-05
-0.000460307
2.54011e-05
-0.000459145
-1.09387e-05
-0.00044792
-4.87975e-05
-0.000426574
-8.61993e-05
-0.000395571
-0.000120875
-0.000355975
-0.000150383
-0.000309483
-0.000172329
-0.000258402
-0.000184651
-0.000205535
-0.000185933
-0.000153974
-0.000175725
-0.000106792
-0.000154793
-6.66814e-05
-0.000125241
-3.55931e-05
-9.04599e-05
-1.44541e-05
-5.4892e-05
-3.03853e-06
-2.36655e-05
-2.42218e-06
-9.19466e-06
2.82674e-05
-3.2202e-05
7.95767e-05
-6.5368e-05
0.000122314
-0.000105786
0.000155663
-0.000151139
0.000180004
-0.000199546
0.000196117
-0.000249417
0.000204802
-0.00029933
0.00020665
-0.000347927
0.000201959
-0.000393856
0.000190768
-0.00043574
0.000172974
-0.000472172
0.000148486
-0.000501749
0.000117383
-0.000523115
8.00549e-05
-0.00053503
3.73162e-05
-0.000536459
-9.5095e-06
-0.00052665
-5.86069e-05
-0.000505277
-0.000107571
-0.000472551
-0.000153601
-0.000429336
-0.000193598
-0.000377246
-0.000224419
-0.000318679
-0.000243219
-0.000256742
-0.00024787
-0.000195058
-0.000237408
-0.000137426
-0.000212425
-8.7367e-05
-0.0001753
-4.76516e-05
-0.000130175
-1.9902e-05
-8.26415e-05
-4.38459e-06
-3.9183e-05
-6.80678e-06
-1.0613e-05
3.88804e-05
-3.6912e-05
0.000105876
-7.45227e-05
0.000159924
-0.00012004
0.00020118
-0.000170827
0.000230791
-0.00022482
0.00025011
-0.000280338
0.00026032
-0.000335915
0.000262227
-0.00039018
0.000256224
-0.000441772
0.000242359
-0.000489293
0.000220495
-0.000531296
0.00019049
-0.0005663
0.000152387
-0.00059282
0.000106575
-0.000609423
5.39185e-05
-0.00061482
-4.11254e-06
-0.000607921
-6.55052e-05
-0.000588037
-0.000127455
-0.000554989
-0.00018665
-0.000509298
-0.000239289
-0.000452354
-0.000281363
-0.000386524
-0.000309049
-0.000315165
-0.000319229
-0.00024246
-0.000310113
-0.000173061
-0.000281824
-0.00011154
-0.000236821
-6.17474e-05
-0.000179968
-2.62385e-05
-0.00011815
-5.92772e-06
-5.94937e-05
-1.27345e-05
-1.1828e-05
5.07084e-05
-4.09587e-05
0.000135006
-8.2417e-05
0.000201383
-0.00013238
0.000251143
-0.000187946
0.000286357
-0.000246905
0.000309069
-0.000307513
0.000320927
-0.000368296
0.000323011
-0.000427906
0.000315834
-0.000485009
0.000299463
-0.00053823
0.000273715
-0.000586114
0.000238375
-0.000627129
0.000193402
-0.000659675
0.000139121
-0.000682125
7.63685e-05
-0.000692884
6.64625e-06
-0.000690515
-6.78736e-05
-0.000673847
-0.000144124
-0.000642191
-0.000218306
-0.000595569
-0.000285911
-0.000534961
-0.000341972
-0.00046253
-0.000381479
-0.000381748
-0.000400012
-0.000297321
-0.00039454
-0.000214849
-0.000364296
-0.000140183
-0.000311487
-7.85769e-05
-0.000241574
-3.38428e-05
-0.000162885
-7.78777e-06
-8.55488e-05
-2.05223e-05
-1.28015e-05
6.35099e-05
-4.42178e-05
0.000166423
-8.88113e-05
0.000245976
-0.000142435
0.000304767
-0.00020198
0.000345902
-0.00026513
0.000372219
-0.000330108
0.000385905
-0.000395463
0.000388366
-0.000459897
0.000380268
-0.000522146
0.000361712
-0.000580892
0.000332461
-0.000634716
0.000292199
-0.00068207
0.000240757
-0.000721274
0.000178324
-0.000750528
0.000105623
-0.000767952
2.40707e-05
-0.000771722
-6.4104e-05
-0.000760143
-0.000155702
-0.000731914
-0.000246535
-0.000686392
-0.000331433
-0.000623933
-0.00040443
-0.000546248
-0.000459163
-0.000456687
-0.000489573
-0.00036033
-0.000490898
-0.000263731
-0.000460895
-0.000174231
-0.000400987
-9.88586e-05
-0.000316947
-4.31222e-05
-0.000218621
-1.00941e-05
-0.000118577
-3.06164e-05
-1.34933e-05
7.70031e-05
-4.65655e-05
0.000199495
-9.347e-05
0.000292881
-0.000149834
0.000361131
-0.000212405
0.000408473
-0.000278793
0.000438607
-0.000347214
0.000454327
-0.000416263
0.000457415
-0.000484723
0.000448728
-0.000551427
0.000428416
-0.000615158
0.000396192
-0.000674576
0.000351617
-0.000728173
0.000294354
-0.000774242
0.000224393
-0.000810871
0.000142251
-0.000835958
4.91584e-05
-0.000847301
-5.27615e-05
-0.000842697
-0.000160307
-0.000820167
-0.000269064
-0.000778268
-0.000373333
-0.000716499
-0.000466199
-0.000635802
-0.00053986
-0.000539054
-0.000586321
-0.000431398
-0.000598554
-0.000320205
-0.000572087
-0.000214424
-0.000506768
-0.00012326
-0.000408111
-5.44848e-05
-0.000287396
-1.29809e-05
-0.000160081
-4.35973e-05
-1.3868e-05
9.08711e-05
-4.7894e-05
0.000233521
-9.61867e-05
0.000341173
-0.000154249
0.000419193
-0.000218736
0.00047296
-0.000287217
0.000507088
-0.000357921
0.00052503
-0.000429501
0.000528995
-0.000500842
0.000520069
-0.000570904
0.000498478
-0.000638609
0.000463896
-0.000702748
0.000415756
-0.000761918
0.000353524
-0.000814468
0.000276943
-0.000858465
0.000186249
-0.000891687
8.23798e-05
-0.000911647
-3.28011e-05
-0.000915704
-0.00015625
-0.000901211
-0.000283557
-0.000865835
-0.000408709
-0.000808012
-0.000524022
-0.000727564
-0.000620308
-0.000626425
-0.00068746
-0.000509314
-0.000715665
-0.000384051
-0.000697351
-0.000261137
-0.000629682
-0.000152317
-0.00051693
-6.83157e-05
-0.000371397
-1.6585e-05
-0.000211812
-6.01823e-05
-1.39026e-05
0.000104774
-4.81326e-05
0.000267751
-9.68199e-05
0.00038986
-0.000155435
0.000477808
-0.000220592
0.000538117
-0.000289837
0.000576334
-0.000361421
0.000596614
-0.000434067
0.00060164
-0.000506771
0.000592773
-0.000578645
0.000570352
-0.000648785
0.000534036
-0.000716168
0.000483139
-0.000779572
0.000416928
-0.0008375
0.000334871
-0.000888124
0.000236872
-0.000929242
0.000123498
-0.000958233
-3.80992e-06
-0.000972177
-0.000142305
-0.000967843
-0.000287891
-0.000942021
-0.000434531
-0.000891944
-0.0005741
-0.000815985
-0.000696267
-0.000714602
-0.000788842
-0.00059141
-0.000838858
-0.000454032
-0.000834728
-0.00031418
-0.000769534
-0.000186338
-0.000644771
-8.49462e-05
-0.00047279
-2.1043e-05
-0.000275715
-8.12253e-05
-1.35941e-05
0.000118368
-4.72709e-05
0.000301428
-9.53331e-05
0.000437923
-0.000153298
0.000535773
-0.000217772
0.000602591
-0.000286294
0.000644856
-0.000357137
0.000667457
-0.000429093
0.000673597
-0.000501283
0.000664963
-0.000572984
0.000642054
-0.000643501
0.000604553
-0.000712049
0.000551687
-0.000777661
0.00048254
-0.000839103
0.000396313
-0.00089479
0.00029256
-0.000942707
0.000171415
-0.000980353
3.38362e-05
-0.00100465
-0.000118006
-0.00101204
-0.000280499
-0.000998561
-0.000448015
-0.000960219
-0.000612441
-0.000893712
-0.000762775
-0.000797506
-0.000885049
-0.000673309
-0.000963055
-0.000527605
-0.000980432
-0.000372563
-0.000924577
-0.000225275
-0.00079206
-0.000104612
-0.000593452
-2.64868e-05
-0.00035384
-0.000107712
-1.29679e-05
0.000131336
-4.5383e-05
0.000333843
-9.18379e-05
0.000484377
-0.00014795
0.000591885
-0.000210338
0.000664979
-0.000276539
0.000711056
-0.000344847
0.000735765
-0.000414126
0.000742876
-0.000483622
0.000734459
-0.000552797
0.000711228
-0.00062119
0.000672945
-0.000688301
0.000618798
-0.000753492
0.000547731
-0.00081589
0.000458711
-0.000874293
0.000350962
-0.000927058
0.00022418
-0.000971987
7.87652e-05
-0.00100617
-8.38233e-05
-0.00102596
-0.000260704
-0.00102691
-0.000447072
-0.00100396
-0.000635386
-0.0009521
-0.000814639
-0.000867409
-0.000969739
-0.00074889
-0.00108157
-0.000600709
-0.00112861
-0.000434259
-0.00109103
-0.000268568
-0.000957752
-0.0001274
-0.00073462
-3.30352e-05
-0.000448205
-0.000140747
-1.20857e-05
0.000143421
-4.26512e-05
0.000364408
-8.66362e-05
0.000528362
-0.000139771
0.00064502
-0.000198691
0.000723898
-0.000260929
0.000773295
-0.000324808
0.000799644
-0.000389267
0.000807335
-0.000453688
0.00079888
-0.000517732
0.000775273
-0.0005812
0.000736413
-0.000643916
0.000681515
-0.000705627
0.000609442
-0.000765906
0.00051899
-0.000824043
0.0004091
-0.000878926
0.000279063
-0.000928876
0.000128715
-0.000971389
-4.13097e-05
-0.00100312
-0.000228975
-0.00101945
-0.000430741
-0.00101464
-0.000640192
-0.000982147
-0.000847135
-0.00091557
-0.00103632
-0.000810567
-0.00118658
-0.000667737
-0.00127144
-0.000496026
-0.00126274
-0.000314993
-0.00113878
-0.000153178
-0.000896435
-4.07851e-05
-0.000560598
-0.000181532
-1.10526e-05
0.000154474
-3.93905e-05
0.000392746
-8.02618e-05
0.000569234
-0.000129465
0.000694224
-0.000183633
0.000778066
-0.000240302
0.000829964
-0.000297835
0.000857177
-0.00035527
0.000864771
-0.000412151
0.00085576
-0.00046836
0.000831482
-0.000523987
0.00079204
-0.000579209
0.000736737
-0.000634199
0.000664432
-0.000689024
0.000573815
-0.000743548
0.000463623
-0.00079729
0.000332805
-0.000849264
0.000180689
-0.000897572
6.99767e-06
-0.000939536
-0.000187011
-0.000970782
-0.000399494
-0.000985386
-0.000625588
-0.000975753
-0.000856767
-0.000933259
-0.00107881
-0.000849955
-0.00126988
-0.000721801
-0.0013996
-0.000553363
-0.00143118
-0.000362529
-0.00132962
-0.000181539
-0.00107742
-4.98046e-05
-0.000692333
-0.000231337
-1.00282e-05
0.000164502
-3.60781e-05
0.000418796
-7.35241e-05
0.00060668
-0.000118109
0.000738809
-0.000166422
0.000826378
-0.000216014
0.000879556
-0.000265336
0.000906499
-0.000313577
0.000913012
-0.000360485
0.000902668
-0.000406206
0.000877203
-0.000451147
0.00083698
-0.000495863
0.000781454
-0.00054097
0.000709538
-0.00058705
0.000619895
-0.00063456
0.000511133
-0.000683694
0.00038194
-0.000734187
0.000231182
-0.0007852
5.801e-05
-0.000834501
-0.000137709
-0.000878679
-0.000355317
-0.000912155
-0.000592111
-0.000926992
-0.00084193
-0.000912986
-0.00109282
-0.000858851
-0.00132402
-0.000755304
-0.00150314
-0.00060067
-0.00158581
-0.000408291
-0.001522
-0.000211747
-0.00127397
-6.0138e-05
-0.000843942
-0.000291475
-9.24372e-06
0.000173746
-3.33951e-05
0.000442948
-6.75621e-05
0.000640847
-0.0001072
0.000778447
-0.000148791
0.000867969
-0.000189946
0.000920712
-0.000229292
0.000945845
-0.000266259
0.000949979
-0.000300884
0.000937293
-0.000333632
0.000909951
-0.000365268
0.000868616
-0.000396742
0.000812928
-0.000429112
0.000741909
-0.000463462
0.000654245
-0.000500817
0.000548488
-0.00054203
0.000423153
-0.000587604
0.000276756
-0.000637487
0.000107892
-0.000690572
-8.46238e-05
-0.000744403
-0.000301486
-0.000794369
-0.000542146
-0.000833024
-0.000803275
-0.000849585
-0.00107626
-0.000830288
-0.00134331
-0.000760726
-0.0015727
-0.00063162
-0.00171492
-0.000448571
-0.00170505
-0.000242717
-0.00147982
-7.1834e-05
-0.00101482
-0.000363309
-9.03747e-06
0.000182783
-3.23009e-05
0.000466211
-6.39244e-05
0.00067247
-9.87097e-05
0.000813233
-0.000132965
0.000902224
-0.000164462
0.000952209
-0.000192156
0.000973538
-0.000215873
0.000973696
-0.000236056
0.000957476
-0.000253576
0.000927471
-0.000269595
0.000884634
-0.000285472
0.000828805
-0.000302689
0.000759126
-0.000322784
0.000674341
-0.000347287
0.000572991
-0.000377634
0.000453499
-0.000414997
0.000314119
-0.000460108
0.000153003
-0.000512927
-3.1804e-05
-0.000572195
-0.000242219
-0.000634689
-0.000479651
-0.000694264
-0.0007437
-0.000740757
-0.00102976
-0.000759313
-0.00132476
-0.000731386
-0.00160063
-0.000639629
-0.00180667
-0.000478955
-0.00186572
-0.000273012
-0.00168577
-8.50078e-05
-0.00120283
-0.000448317
-9.92801e-06
0.000192711
-3.4163e-05
0.000490446
-6.46884e-05
0.000702996
-9.51394e-05
0.000843684
-0.00012163
0.000928714
-0.000142292
0.000972872
-0.000156664
0.000987911
-0.000165192
0.000982223
-0.000168887
0.000961172
-0.000169123
0.000927707
-0.000167509
0.000883021
-0.000165811
0.000827106
-0.000165899
0.000759213
-0.000169697
0.000678139
-0.000179119
0.000582413
-0.000196123
0.000470504
-0.000222389
0.000340385
-0.000259313
0.000189927
-0.000307809
1.66914e-05
-0.000367848
-0.000182179
-0.000437851
-0.000409649
-0.000513608
-0.000667942
-0.000586773
-0.000956598
-0.000643139
-0.00126839
-0.000661844
-0.00158193
-0.000618216
-0.0018503
-0.000494409
-0.00198953
-0.000300804
-0.00187937
-9.99336e-05
-0.0014037
-0.00054825
-1.27579e-05
0.000205469
-4.09802e-05
0.000518668
-7.26238e-05
0.000734639
-9.95457e-05
0.000870606
-0.000117797
0.000946965
-0.000126257
0.000981332
-0.000125437
0.00098709
-0.0001167
0.000973486
-0.000101828
0.000946299
-8.27981e-05
0.000908678
-6.17108e-05
0.000861933
-4.07153e-05
0.000806111
-2.2023e-05
0.000740521
-7.88583e-06
0.000664002
-5.71476e-07
0.000575098
-2.06305e-06
0.000471996
-1.45848e-05
0.000352906
-4.01837e-05
0.000215526
-8.05076e-05
5.70154e-05
-0.000136661
-0.000126026
-0.00020872
-0.000337589
-0.000294786
-0.000581877
-0.000389296
-0.000862087
-0.0004805
-0.00117719
-0.000547698
-0.00151473
-0.000560979
-0.00183702
-0.000489171
-0.00206134
-0.000323678
-0.00204486
-0.00011712
-0.00161026
-0.00066537
-1.8966e-05
0.000224435
-5.57148e-05
0.000555417
-9.1326e-05
0.00077025
-0.000115369
0.000894649
-0.000124341
0.000955937
-0.000118559
0.00097555
-0.00010007
0.000968602
-7.15309e-05
0.000944947
-3.56986e-05
0.000910467
4.74242e-06
0.000868237
4.72406e-05
0.000819435
8.92768e-05
0.000764075
0.000128402
0.000701396
0.000162194
0.00063021
0.000188253
0.000549039
0.000204094
0.000456155
0.000207375
0.000349626
0.000195775
0.000227126
0.000167012
8.57781e-05
0.000118993
-7.80067e-05
5.0108e-05
-0.000268705
-4.01007e-05
-0.000491668
-0.000149456
-0.000752732
-0.00027025
-0.00105639
-0.000384645
-0.00140033
-0.000460981
-0.00176068
-0.000456166
-0.00206615
-0.000338066
-0.00216296
-0.000137217
-0.00181111
-0.000802586
-3.10663e-05
0.000255502
-8.26621e-05
0.000607013
-0.000125008
0.000812597
-0.000145558
0.000915198
-0.000142549
0.000952927
-0.000118889
0.00095189
-7.8916e-05
0.000928629
-2.69908e-05
0.000893022
3.29753e-05
0.000850501
9.75739e-05
0.000803638
0.000163777
0.000753232
0.00022884
0.000699012
0.000290166
0.00064007
0.000345239
0.000575137
0.00039157
0.000502708
0.000426644
0.000421081
0.000447922
0.000328348
0.000452789
0.00022226
0.000438499
0.000100068
0.000402165
-4.16725e-05
0.000340894
-0.000207434
0.00025206
-0.000402834
0.00013446
-0.000635132
-9.06605e-06
-0.000912868
-0.000166838
-0.00124256
-0.000309418
-0.0016181
-0.000385717
-0.00198985
-0.000337938
-0.00221074
-0.0001604
-0.00198864
-0.000962987
-5.33879e-05
0.00030889
-0.000127417
0.000681042
-0.000176909
0.000862089
-0.000189512
0.000927802
-0.000167954
0.000931369
-0.000119496
0.000903433
-5.16683e-05
0.000860801
2.91096e-05
0.000812244
0.000117714
0.000761896
0.000210082
0.00071127
0.000302895
0.00066042
0.000393305
0.000608602
0.000478728
0.000554646
0.000556705
0.00049716
0.000624796
0.000434616
0.000680506
0.000365372
0.000721222
0.000287631
0.000744138
0.000199344
0.000746145
9.80609e-05
0.000723704
-1.92312e-05
0.000672952
-0.000156682
0.000589484
-0.000319366
0.000469039
-0.000514686
0.000309238
-0.000753067
0.000114749
-0.00104807
-9.312e-05
-0.00141023
-0.000263057
-0.00181992
-0.00031207
-0.00216173
-0.000184547
-0.00211617
-0.00114753
-9.27914e-05
0.000401681
-0.000194658
0.000782908
-0.000243097
0.000910528
-0.000233895
0.0009186
-0.000179348
0.000876822
-9.33508e-05
0.000817436
1.26491e-05
0.000754801
0.000130187
0.000694706
0.00025323
0.000638853
0.000377448
0.000587052
0.000499589
0.000538279
0.000617024
0.000491167
0.000727444
0.000444227
0.000828655
0.000395949
0.000918441
0.00034483
0.000994458
0.000289355
0.00105415
0.000227943
0.00109463
0.000158863
0.00111256
8.01254e-05
0.00110391
-1.05765e-05
0.00106421
-0.000116988
0.000987745
-0.000242898
0.000867981
-0.000394922
0.000698178
-0.000583265
0.000474612
-0.000824506
0.000206636
-0.00114226
-6.23775e-05
-0.0015509
-0.000238931
-0.00198518
-0.000202076
-0.00215302
-0.00134961
-0.000157431
0.000559112
-0.000276484
0.000901961
-0.000292091
0.000926135
-0.00022788
0.00085439
-0.000113101
0.000762043
3.03306e-05
0.000674004
0.00018785
0.000597281
0.000350279
0.000532277
0.00051196
0.000477172
0.000669343
0.000429669
0.000820041
0.000387581
0.000962245
0.000348964
0.00109436
0.000312113
0.00121479
0.000275522
0.00132179
0.00023783
0.00141337
0.000197767
0.00148723
0.000154088
0.0015406
0.000105496
0.00157013
5.05928e-05
0.00157165
-1.2095e-05
0.00154034
-8.56757e-05
0.0014698
-0.000172361
0.00135216
-0.000277286
0.00117763
-0.00040873
0.000935249
-0.000582127
0.000619133
-0.000826143
0.000250757
-0.00118252
-7.72368e-05
-0.00165718
-0.000193434
-0.00203683
-0.00154304
-0.000243792
0.000802904
-0.000303238
0.000961406
-0.000204459
0.000827356
-2.52266e-05
0.000675157
0.00018567
0.000551146
0.00040433
0.000455344
0.000618984
0.000382628
0.000824059
0.000327202
0.0010172
0.000284026
0.00119758
0.000249296
0.0013649
0.000220255
0.001519
0.000194871
0.00165951
0.000171598
0.00178582
0.000149214
0.00189693
0.000126719
0.00199145
0.000103249
0.00206752
7.80173e-05
0.00212275
5.02639e-05
0.00215411
1.92363e-05
0.00215811
-1.61029e-05
0.00212954
-5.70984e-05
0.00206238
-0.000105201
0.00194847
-0.000163378
0.00177661
-0.000236869
0.00153102
-0.000336538
0.00119137
-0.000486495
0.000746631
-0.000737786
0.000253884
-0.00116444
-8.09693e-05
-0.00170197
-0.00162401
-0.000194286
0.00099719
1.82905e-05
0.00074883
0.000373049
0.000472598
0.00071409
0.000334115
0.00101998
0.000245256
0.00129047
0.000184857
0.00152891
0.000144181
0.00173969
0.000116431
0.00192698
9.67349e-05
0.00209423
8.20472e-05
0.00224399
7.04948e-05
0.00237799
6.08687e-05
0.00249724
5.2347e-05
0.00260211
4.43453e-05
0.0026924
3.64273e-05
0.0027674
2.82474e-05
0.0028259
1.95141e-05
0.00286616
1.00041e-05
0.00288556
-1.59012e-07
0.00288231
-1.28554e-05
0.00285147
-2.62534e-05
0.00278849
-4.22256e-05
0.00268655
-6.14329e-05
0.00253543
-8.57547e-05
0.00231843
-0.000119532
0.00200618
-0.000174251
0.00155155
-0.00028315
0.000927362
-0.000540251
0.000263815
-0.00103843
-0.0013602
0.00099719
0.00174602
0.00221862
0.00255273
0.00279799
0.00298285
0.00312703
0.00324346
0.00334019
0.00342224
0.00349273
0.0035536
0.00360595
0.0036503
0.00368672
0.00371497
0.00373448
0.00374449
0.00374433
0.00373147
0.00370522
0.003663
0.00360156
0.00351581
0.00339628
0.00322203
0.00293887
0.00239862
0.0013602
)
;

boundaryField
{
    movingWall
    {
        type            calculated;
        value           uniform 0;
    }
    fixedWalls
    {
        type            calculated;
        value           uniform 0;
    }
    frontAndBack
    {
        type            empty;
        value           nonuniform 0();
    }
}


// ************************************************************************* //
