/*--------------------------------*- C++ -*----------------------------------*\
  =========                 |
  \\      /  F ield         | OpenFOAM: The Open Source CFD Toolbox
   \\    /   O peration     | Website:  https://openfoam.org
    \\  /    A nd           | Version:  7
     \\/     M anipulation  |
\*---------------------------------------------------------------------------*/
FoamFile
{
    version     2.0;
    format      ascii;
    class       volVectorField;
    location    "8";
    object      U;
}
// * * * * * * * * * * * * * * * * * * * * * * * * * * * * * * * * * * * * * //

dimensions      [0 1 -1 0 0 0 0];

internalField   nonuniform List<vector> 
900
(
(0.000160575 -0.000159422 0)
(0.00028238 -6.71999e-05 0)
(-4.05779e-05 9.89984e-05 0)
(-0.000815148 0.000245119 0)
(-0.00194958 0.000350642 0)
(-0.00334066 0.00041835 0)
(-0.00489513 0.000457483 0)
(-0.00653658 0.000476111 0)
(-0.00820197 0.000478778 0)
(-0.00983428 0.000466601 0)
(-0.011376 0.000438214 0)
(-0.0127652 0.000390967 0)
(-0.0139346 0.000322156 0)
(-0.0148136 0.000230195 0)
(-0.0153337 0.000115665 0)
(-0.0154357 -1.79473e-05 0)
(-0.015078 -0.000164233 0)
(-0.0142459 -0.000312834 0)
(-0.0129592 -0.000450968 0)
(-0.011277 -0.000564521 0)
(-0.00929778 -0.000639842 0)
(-0.00715496 -0.00066588 0)
(-0.00500584 -0.000636201 0)
(-0.0030163 -0.000550473 0)
(-0.00134159 -0.00041523 0)
(-0.000106788 -0.00024459 0)
(0.000607821 -5.99046e-05 0)
(0.000790622 0.000113121 0)
(0.000545891 0.000218647 0)
(0.000169358 0.000168203 0)
(7.55325e-05 -0.000289507 0)
(-0.000304297 0.000301942 0)
(-0.00172611 0.00112881 0)
(-0.00410213 0.00187171 0)
(-0.00726867 0.00244222 0)
(-0.0110254 0.00283361 0)
(-0.0151698 0.0030686 0)
(-0.0195172 0.00317223 0)
(-0.0239005 0.00316026 0)
(-0.0281614 0.00303709 0)
(-0.0321408 0.00279842 0)
(-0.0356744 0.00243606 0)
(-0.0385924 0.00194341 0)
(-0.040727 0.00132078 0)
(-0.0419234 0.000579924 0)
(-0.0420566 -0.000252925 0)
(-0.0410475 -0.00113527 0)
(-0.038881 -0.00200985 0)
(-0.035621 -0.00280851 0)
(-0.0314169 -0.00345866 0)
(-0.0265023 -0.0038921 0)
(-0.0211836 -0.00405514 0)
(-0.0158169 -0.00391808 0)
(-0.0107747 -0.00348269 0)
(-0.00640629 -0.00278624 0)
(-0.00299309 -0.00190318 0)
(-0.000706205 -0.000944824 0)
(0.000423544 -5.86853e-05 0)
(0.000579003 0.000543887 0)
(0.000226697 0.000543279 0)
(-0.000106475 3.83206e-05 0)
(-0.00123426 0.00174569 0)
(-0.00399667 0.00376768 0)
(-0.0080703 0.00557105 0)
(-0.0132015 0.00698132 0)
(-0.0191258 0.00796835 0)
(-0.0255676 0.00856214 0)
(-0.0322649 0.00880396 0)
(-0.0389717 0.0087216 0)
(-0.0454489 0.00832304 0)
(-0.0514557 0.00760097 0)
(-0.0567472 0.00654272 0)
(-0.0610767 0.00514242 0)
(-0.0642067 0.00341273 0)
(-0.0659251 0.00139449 0)
(-0.0660652 -0.000836905 0)
(-0.0645285 -0.00316896 0)
(-0.0613058 -0.00545727 0)
(-0.0564939 -0.0075341 0)
(-0.050304 -0.00922398 0)
(-0.04306 -0.010364 0)
(-0.0351836 -0.0108268 0)
(-0.0271648 -0.0105425 0)
(-0.0195196 -0.00951679 0)
(-0.0127373 -0.00784142 0)
(-0.0072211 -0.00569716 0)
(-0.00323067 -0.00335201 0)
(-0.000833005 -0.00116032 0)
(0.000149429 0.000437945 0)
(0.000163104 0.000839548 0)
(-0.000298976 0.000911883 0)
(-0.00223507 0.00435952 0)
(-0.00642867 0.00797118 0)
(-0.0122441 0.0111089 0)
(-0.0193043 0.0135499 0)
(-0.0272798 0.0152549 0)
(-0.0358359 0.0162645 0)
(-0.0446531 0.0166348 0)
(-0.0534272 0.0164032 0)
(-0.0618585 0.0155795 0)
(-0.0696452 0.0141533 0)
(-0.0764811 0.01211 0)
(-0.0820621 0.00945003 0)
(-0.0860988 0.00620762 0)
(-0.0883357 0.00246545 0)
(-0.0885738 -0.00163581 0)
(-0.0866952 -0.00589628 0)
(-0.0826867 -0.0100629 0)
(-0.0766581 -0.0138459 0)
(-0.0688536 -0.0169435 0)
(-0.0596517 -0.0190752 0)
(-0.0495516 -0.0200193 0)
(-0.039143 -0.0196503 0)
(-0.0290586 -0.0179709 0)
(-0.0199124 -0.0151319 0)
(-0.0122297 -0.0114382 0)
(-0.00637489 -0.00734281 0)
(-0.00248732 -0.00343201 0)
(-0.00045129 -0.000409749 0)
(6.70737e-05 0.000848988 0)
(-0.00048052 0.00232846 0)
(-0.00321581 0.0081693 0)
(-0.00884193 0.0137535 0)
(-0.0163826 0.0184492 0)
(-0.025318 0.0220478 0)
(-0.0352482 0.0245325 0)
(-0.045785 0.0259681 0)
(-0.0565639 0.0264291 0)
(-0.0672386 0.0259618 0)
(-0.0774672 0.0245763 0)
(-0.0869039 0.0222588 0)
(-0.0951986 0.018994 0)
(-0.102004 0.0147922 0)
(-0.106989 0.00971442 0)
(-0.10986 0.00389167 0)
(-0.110384 -0.00246258 0)
(-0.108412 -0.00905132 0)
(-0.103908 -0.0155016 0)
(-0.0969691 -0.0213873 0)
(-0.0878407 -0.0262626 0)
(-0.0769252 -0.0297077 0)
(-0.0647723 -0.0313826 0)
(-0.0520527 -0.0310825 0)
(-0.0395102 -0.0287883 0)
(-0.0278924 -0.0247005 0)
(-0.0178687 -0.0192512 0)
(-0.0099412 -0.0130921 0)
(-0.00436112 -0.00706244 0)
(-0.00111319 -0.00214507 0)
(-2.76789e-05 0.000516284 0)
(-0.000646276 0.00426066 0)
(-0.00413921 0.0131452 0)
(-0.0111417 0.0210872 0)
(-0.0203402 0.0275547 0)
(-0.0310673 0.0324176 0)
(-0.0428509 0.0357218 0)
(-0.055253 0.0375776 0)
(-0.0678741 0.0380867 0)
(-0.0803393 0.0373064 0)
(-0.0922792 0.035247 0)
(-0.10332 0.0318898 0)
(-0.11308 0.0272185 0)
(-0.12118 0.0212528 0)
(-0.127254 0.01408 0)
(-0.130969 0.00587927 0)
(-0.132048 -0.00306314 0)
(-0.130295 -0.0123514 0)
(-0.125626 -0.021488 0)
(-0.118093 -0.0298999 0)
(-0.107911 -0.0369797 0)
(-0.0954731 -0.042142 0)
(-0.0813563 -0.0448948 0)
(-0.0663003 -0.0449177 0)
(-0.0511641 -0.0421357 0)
(-0.0368514 -0.0367751 0)
(-0.0242135 -0.0293872 0)
(-0.0139362 -0.0208326 0)
(-0.00642899 -0.0122267 0)
(-0.00181487 -0.00485833 0)
(-0.000115908 -0.00016572 0)
(-0.000795817 0.00667014 0)
(-0.00498675 0.0192171 0)
(-0.0132693 0.0298888 0)
(-0.0240158 0.0383323 0)
(-0.0364179 0.0445576 0)
(-0.0499344 0.0487154 0)
(-0.0640839 0.0509862 0)
(-0.0784403 0.0515117 0)
(-0.0926118 0.0503653 0)
(-0.106215 0.0475576 0)
(-0.11886 0.0430639 0)
(-0.130148 0.036863 0)
(-0.139676 0.0289795 0)
(-0.147044 0.0195206 0)
(-0.151876 0.00870596 0)
(-0.153842 -0.00311351 0)
(-0.15268 -0.0154496 0)
(-0.148227 -0.0276817 0)
(-0.14046 -0.0390842 0)
(-0.129524 -0.0488697 0)
(-0.11577 -0.0562562 0)
(-0.0997707 -0.0605556 0)
(-0.0823207 -0.0612788 0)
(-0.0643988 -0.0582419 0)
(-0.0470923 -0.0516547 0)
(-0.0314818 -0.0421666 0)
(-0.0184968 -0.0308535 0)
(-0.00876205 -0.0191385 0)
(-0.00258319 -0.0086633 0)
(-0.000202842 -0.00121361 0)
(-0.000928262 0.0095113 0)
(-0.00574316 0.0262887 0)
(-0.0151772 0.0400367 0)
(-0.027324 0.0506496 0)
(-0.041249 0.0583329 0)
(-0.0563499 0.0633829 0)
(-0.0721094 0.0660762 0)
(-0.0880841 0.0666092 0)
(-0.103876 0.0650779 0)
(-0.119099 0.0614948 0)
(-0.133361 0.0558264 0)
(-0.146255 0.0480414 0)
(-0.157361 0.0381599 0)
(-0.166252 0.0262972 0)
(-0.172506 0.0126981 0)
(-0.175728 -0.00223779 0)
(-0.175573 -0.0179419 0)
(-0.171774 -0.0336828 0)
(-0.164198 -0.0485808 0)
(-0.152883 -0.061653 0)
(-0.13809 -0.0718862 0)
(-0.120353 -0.0783425 0)
(-0.100493 -0.0802938 0)
(-0.0796013 -0.0773708 0)
(-0.0589727 -0.0696997 0)
(-0.0399687 -0.0579876 0)
(-0.0238349 -0.0435247 0)
(-0.0114856 -0.028082 0)
(-0.00346978 -0.0137231 0)
(-0.000298547 -0.00266775 0)
(-0.00104114 0.0127308 0)
(-0.00639083 0.0342405 0)
(-0.0168177 0.0513766 0)
(-0.0301807 0.0643385 0)
(-0.0454388 0.0735758 0)
(-0.0619396 0.0795662 0)
(-0.0791386 0.0827082 0)
(-0.0965842 0.0832678 0)
(-0.113882 0.081372 0)
(-0.130654 0.077037 0)
(-0.146518 0.0702176 0)
(-0.161068 0.0608649 0)
(-0.173879 0.0489829 0)
(-0.184501 0.0346777 0)
(-0.192468 0.0181989 0)
(-0.197315 -2.84248e-05 0)
(-0.198601 -0.0193794 0)
(-0.195942 -0.0390285 0)
(-0.189059 -0.0579499 0)
(-0.17784 -0.0749562 0)
(-0.162413 -0.0887714 0)
(-0.143213 -0.098148 0)
(-0.121043 -0.102033 0)
(-0.0970814 -0.0997698 0)
(-0.0728333 -0.0912991 0)
(-0.0499902 -0.077315 0)
(-0.0301961 -0.0593041 0)
(-0.0147521 -0.0394294 0)
(-0.0045382 -0.0202701 0)
(-0.000414995 -0.00460061 0)
(-0.00113077 0.0162651 0)
(-0.00690958 0.0429287 0)
(-0.0181408 0.0637213 0)
(-0.0324994 0.0791941 0)
(-0.048861 0.0900793 0)
(-0.0665343 0.097068 0)
(-0.0849572 0.100703 0)
(-0.103678 0.101336 0)
(-0.122314 0.0991336 0)
(-0.140507 0.0941181 0)
(-0.157892 0.0862305 0)
(-0.17408 0.0753963 0)
(-0.188649 0.0615896 0)
(-0.201137 0.0448882 0)
(-0.211043 0.0255218 0)
(-0.217837 0.003912 0)
(-0.220983 -0.0192943 0)
(-0.219967 -0.0432013 0)
(-0.214343 -0.0666579 0)
(-0.203814 -0.0882766 0)
(-0.188316 -0.106497 0)
(-0.168123 -0.119706 0)
(-0.143941 -0.126429 0)
(-0.116978 -0.125593 0)
(-0.0889246 -0.11681 0)
(-0.0618313 -0.100645 0)
(-0.0378282 -0.0787258 0)
(-0.0187244 -0.0536462 0)
(-0.00585772 -0.0286154 0)
(-0.000565021 -0.00712087 0)
(-0.00119298 0.0200395 0)
(-0.00727869 0.052185 0)
(-0.0190968 0.076851 0)
(-0.0341952 0.0949726 0)
(-0.0513893 0.107594 0)
(-0.0699607 0.115643 0)
(-0.0893373 0.119829 0)
(-0.109074 0.120602 0)
(-0.128807 0.118179 0)
(-0.148204 0.112594 0)
(-0.166932 0.103771 0)
(-0.184629 0.091604 0)
(-0.200889 0.0760236 0)
(-0.215255 0.0570598 0)
(-0.227208 0.0348959 0)
(-0.236171 0.00991763 0)
(-0.241523 -0.0172418 0)
(-0.242624 -0.0456565 0)
(-0.23886 -0.0740858 0)
(-0.229718 -0.100966 0)
(-0.21489 -0.12445 0)
(-0.194408 -0.14252 0)
(-0.168787 -0.153187 0)
(-0.139157 -0.154808 0)
(-0.107325 -0.146479 0)
(-0.0756926 -0.128447 0)
(-0.0469512 -0.102371 0)
(-0.0235639 -0.0712827 0)
(-0.00750043 -0.0391507 0)
(-0.000762315 -0.0103753 0)
(-0.00122399 0.0239678 0)
(-0.00748009 0.0618181 0)
(-0.0196431 0.0905148 0)
(-0.0351932 0.111393 0)
(-0.0529096 0.125823 0)
(-0.0720557 0.134992 0)
(-0.0920555 0.139787 0)
(-0.112474 0.140777 0)
(-0.132973 0.138235 0)
(-0.153253 0.132213 0)
(-0.17302 0.122623 0)
(-0.191951 0.109321 0)
(-0.209677 0.0921842 0)
(-0.225765 0.0711776 0)
(-0.239702 0.0464137 0)
(-0.250894 0.01821 0)
(-0.258664 -0.0128532 0)
(-0.262269 -0.0458702 0)
(-0.260941 -0.0795637 0)
(-0.253942 -0.112242 0)
(-0.240683 -0.141805 0)
(-0.22087 -0.165816 0)
(-0.194706 -0.181702 0)
(-0.163104 -0.187092 0)
(-0.12785 -0.180331 0)
(-0.0916255 -0.16108 0)
(-0.0577236 -0.130817 0)
(-0.0294175 -0.0929528 0)
(-0.00953944 -0.052344 0)
(-0.00102183 -0.0145497 0)
(-0.00122131 0.0279554 0)
(-0.00750218 0.0716187 0)
(-0.0197513 0.104437 0)
(-0.0354412 0.12814 0)
(-0.0533357 0.144431 0)
(-0.0726874 0.15476 0)
(-0.0929194 0.160213 0)
(-0.11361 0.161485 0)
(-0.134446 0.158921 0)
(-0.15517 0.152601 0)
(-0.175531 0.142426 0)
(-0.195263 0.128216 0)
(-0.214047 0.10979 0)
(-0.2315 0.0870367 0)
(-0.24715 0.0599792 0)
(-0.26042 0.0288385 0)
(-0.270622 -0.00589904 0)
(-0.276959 -0.0434069 0)
(-0.27854 -0.0824346 0)
(-0.274424 -0.12124 0)
(-0.263721 -0.157539 0)
(-0.245753 -0.188521 0)
(-0.220285 -0.210994 0)
(-0.187831 -0.221727 0)
(-0.149956 -0.218049 0)
(-0.109458 -0.198675 0)
(-0.0701999 -0.164554 0)
(-0.0364028 -0.119294 0)
(-0.0120467 -0.0687294 0)
(-0.00136032 -0.0198695 0)
(-0.00118464 0.0319033 0)
(-0.00734395 0.0813684 0)
(-0.0194167 0.118326 0)
(-0.034923 0.144876 0)
(-0.0526288 0.163042 0)
(-0.0717799 0.174545 0)
(-0.0917998 0.180673 0)
(-0.11228 0.182265 0)
(-0.132935 0.179752 0)
(-0.153547 0.173251 0)
(-0.173924 0.162664 0)
(-0.193859 0.14778 0)
(-0.21311 0.128361 0)
(-0.231364 0.104216 0)
(-0.248225 0.0752694 0)
(-0.263182 0.0416233 0)
(-0.275592 0.00363477 0)
(-0.284658 -0.0380019 0)
(-0.289428 -0.0821429 0)
(-0.288811 -0.127098 0)
(-0.281639 -0.170512 0)
(-0.266816 -0.209297 0)
(-0.24357 -0.239688 0)
(-0.211822 -0.257517 0)
(-0.172654 -0.258844 0)
(-0.128714 -0.240999 0)
(-0.0842774 -0.203877 0)
(-0.0445859 -0.150908 0)
(-0.0150895 -0.0888868 0)
(-0.00179683 -0.0265992 0)
(-0.00111677 0.0357152 0)
(-0.00701919 0.0908541 0)
(-0.0186678 0.131892 0)
(-0.0336738 0.161253 0)
(-0.0508176 0.18126 0)
(-0.0693393 0.1939 0)
(-0.0886627 0.200675 0)
(-0.108391 0.202579 0)
(-0.128269 0.200144 0)
(-0.148122 0.193539 0)
(-0.167817 0.182681 0)
(-0.187224 0.167339 0)
(-0.206187 0.147228 0)
(-0.224494 0.122082 0)
(-0.241855 0.0917253 0)
(-0.257871 0.0561337 0)
(-0.271997 0.0155082 0)
(-0.283512 -0.0296327 0)
(-0.291482 -0.0783353 0)
(-0.294745 -0.129078 0)
(-0.291919 -0.179581 0)
(-0.281517 -0.226648 0)
(-0.262173 -0.266071 0)
(-0.233055 -0.292771 0)
(-0.194467 -0.301354 0)
(-0.148538 -0.287297 0)
(-0.0996347 -0.24874 0)
(-0.0539532 -0.188272 0)
(-0.0187249 -0.113411 0)
(-0.00235309 -0.0350402 0)
(-0.0010243 0.0393069 0)
(-0.00656059 0.0998854 0)
(-0.0175751 0.144866 0)
(-0.0317948 0.176932 0)
(-0.0480179 0.198682 0)
(-0.0654781 0.212359 0)
(-0.0835995 0.219688 0)
(-0.102 0.22183 0)
(-0.120452 0.219438 0)
(-0.138832 0.212749 0)
(-0.157071 0.20171 0)
(-0.175124 0.186089 0)
(-0.192935 0.165566 0)
(-0.210411 0.139819 0)
(-0.227398 0.108579 0)
(-0.243644 0.0716989 0)
(-0.258759 0.0292149 0)
(-0.272156 -0.0185679 0)
(-0.283015 -0.0709522 0)
(-0.290204 -0.126698 0)
(-0.292235 -0.183775 0)
(-0.287314 -0.23909 0)
(-0.273509 -0.28823 0)
(-0.249137 -0.325366 0)
(-0.213462 -0.34361 0)
(-0.167654 -0.336173 0)
(-0.115674 -0.2986 0)
(-0.0643777 -0.231619 0)
(-0.022993 -0.142862 0)
(-0.00305396 -0.0455254 0)
(-0.000918508 0.0426175 0)
(-0.00602404 0.108318 0)
(-0.0162614 0.157024 0)
(-0.0294671 0.191611 0)
(-0.0444499 0.21492 0)
(-0.0604346 0.229453 0)
(-0.0768492 0.237162 0)
(-0.0933311 0.239394 0)
(-0.10969 0.236935 0)
(-0.125857 0.230113 0)
(-0.141835 0.218924 0)
(-0.157671 0.203151 0)
(-0.173421 0.182463 0)
(-0.189123 0.156495 0)
(-0.204775 0.12491 0)
(-0.220298 0.0874516 0)
(-0.235493 0.0439971 0)
(-0.249966 -0.0053734 0)
(-0.263085 -0.0602884 0)
(-0.273858 -0.119857 0)
(-0.280827 -0.182465 0)
(-0.282042 -0.245375 0)
(-0.275122 -0.304283 0)
(-0.257553 -0.352934 0)
(-0.227383 -0.383108 0)
(-0.184391 -0.38552 0)
(-0.131481 -0.352261 0)
(-0.0755846 -0.280802 0)
(-0.0279102 -0.177708 0)
(-0.00392869 -0.0584117 0)
(-0.000816463 0.045623 0)
(-0.00549398 0.116083 0)
(-0.0149121 0.168224 0)
(-0.0269654 0.205048 0)
(-0.0404519 0.22963 0)
(-0.054586 0.244733 0)
(-0.0688092 0.252553 0)
(-0.0827929 0.254639 0)
(-0.0963984 0.251929 0)
(-0.109622 0.244858 0)
(-0.122553 0.233488 0)
(-0.135334 0.217638 0)
(-0.148139 0.196986 0)
(-0.161143 0.171146 0)
(-0.174501 0.139735 0)
(-0.188314 0.102407 0)
(-0.202588 0.0589 0)
(-0.21718 0.00907488 0)
(-0.23168 -0.0470095 0)
(-0.245311 -0.108897 0)
(-0.256815 -0.175513 0)
(-0.264274 -0.244713 0)
(-0.265064 -0.312663 0)
(-0.255994 -0.373138 0)
(-0.233881 -0.417008 0)
(-0.196778 -0.432568 0)
(-0.145824 -0.407761 0)
(-0.0871251 -0.335136 0)
(-0.0334662 -0.218237 0)
(-0.00501418 -0.0740722 0)
(-0.000743421 0.0483541 0)
(-0.00509218 0.123216 0)
(-0.0137899 0.178432 0)
(-0.0246739 0.217093 0)
(-0.0364928 0.242526 0)
(-0.0484534 0.257787 0)
(-0.0600324 0.26534 0)
(-0.070963 0.266955 0)
(-0.0811832 0.263738 0)
(-0.0907767 0.256242 0)
(-0.0999281 0.244613 0)
(-0.108889 0.228719 0)
(-0.11795 0.208262 0)
(-0.127423 0.182858 0)
(-0.137613 0.152097 0)
(-0.148797 0.115573 0)
(-0.16118 0.0729043 0)
(-0.174848 0.023763 0)
(-0.18966 -0.0320639 0)
(-0.205142 -0.0945866 0)
(-0.220329 -0.163338 0)
(-0.233538 -0.236939 0)
(-0.242178 -0.312377 0)
(-0.242672 -0.384005 0)
(-0.230787 -0.442444 0)
(-0.202723 -0.474052 0)
(-0.1572 -0.462344 0)
(-0.0983624 -0.393243 0)
(-0.0396298 -0.26447 0)
(-0.00636306 -0.0928917 0)
(-0.000738234 0.0509203 0)
(-0.00499446 0.129907 0)
(-0.0132589 0.187766 0)
(-0.0231063 0.227707 0)
(-0.0331807 0.253398 0)
(-0.0426967 0.268249 0)
(-0.0512079 0.275035 0)
(-0.0585551 0.275766 0)
(-0.0647928 0.271723 0)
(-0.0701212 0.263588 0)
(-0.0748391 0.251592 0)
(-0.0793124 0.23566 0)
(-0.0839511 0.21553 0)
(-0.0891899 0.190833 0)
(-0.0954706 0.161149 0)
(-0.103224 0.126038 0)
(-0.112833 0.0850289 0)
(-0.124585 0.0376452 0)
(-0.138602 -0.0165764 0)
(-0.154736 -0.0780399 0)
(-0.172398 -0.146881 0)
(-0.190313 -0.222576 0)
(-0.206211 -0.303201 0)
(-0.216525 -0.38423 0)
(-0.216355 -0.456882 0)
(-0.200194 -0.506508 0)
(-0.163918 -0.512538 0)
(-0.108469 -0.452936 0)
(-0.0463628 -0.316051 0)
(-0.00806014 -0.115276 0)
(-0.000865644 0.0535489 0)
(-0.00546299 0.13655 0)
(-0.0138233 0.19653 0)
(-0.0229339 0.236982 0)
(-0.0312685 0.262103 0)
(-0.0380951 0.275785 0)
(-0.0431165 0.281168 0)
(-0.0463525 0.280518 0)
(-0.04803 0.275291 0)
(-0.0485024 0.266283 0)
(-0.0482037 0.253808 0)
(-0.0476203 0.237843 0)
(-0.0472748 0.218163 0)
(-0.0477109 0.194415 0)
(-0.049478 0.166183 0)
(-0.0531365 0.133016 0)
(-0.0592142 0.0943692 0)
(-0.0681586 0.0496632 0)
(-0.0803175 -0.00174817 0)
(-0.0958491 -0.0605794 0)
(-0.114574 -0.127488 0)
(-0.13574 -0.202772 0)
(-0.157657 -0.285722 0)
(-0.177196 -0.373373 0)
(-0.189346 -0.458449 0)
(-0.187348 -0.526608 0)
(-0.164162 -0.554336 0)
(-0.116416 -0.511127 0)
(-0.0536362 -0.372115 0)
(-0.010251 -0.141686 0)
(-0.00124261 0.056654 0)
(-0.00690697 0.143824 0)
(-0.016189 0.205248 0)
(-0.0250142 0.245121 0)
(-0.031638 0.268536 0)
(-0.0354866 0.280056 0)
(-0.0365337 0.283254 0)
(-0.0350791 0.280656 0)
(-0.0315933 0.273864 0)
(-0.0266249 0.263763 0)
(-0.0207625 0.250721 0)
(-0.014615 0.234752 0)
(-0.00880566 0.215653 0)
(-0.00396646 0.19309 0)
(-0.000715691 0.166646 0)
(0.000279498 0.135843 0)
(-0.00162324 0.100128 0)
(-0.00697238 0.0588579 0)
(-0.0162931 0.011261 0)
(-0.0300139 -0.0435857 0)
(-0.048346 -0.10672 0)
(-0.0711037 -0.179121 0)
(-0.0973474 -0.261238 0)
(-0.124781 -0.351902 0)
(-0.148925 -0.446147 0)
(-0.162517 -0.531483 0)
(-0.155983 -0.583425 0)
(-0.120904 -0.563786 0)
(-0.0614125 -0.431111 0)
(-0.0131804 -0.172703 0)
(-0.00209168 0.0609638 0)
(-0.00998745 0.152791 0)
(-0.0213402 0.214665 0)
(-0.0303895 0.252378 0)
(-0.0352078 0.272531 0)
(-0.0355979 0.280621 0)
(-0.0319962 0.280712 0)
(-0.0251161 0.275552 0)
(-0.0157525 0.266831 0)
(-0.00468866 0.25546 0)
(0.00731933 0.241812 0)
(0.0195476 0.225907 0)
(0.0312942 0.207544 0)
(0.0418628 0.186392 0)
(0.0505688 0.162033 0)
(0.0567115 0.133961 0)
(0.0595975 0.101638 0)
(0.0585658 0.0643963 0)
(0.0529571 0.0214027 0)
(0.0421359 -0.0283665 0)
(0.0255515 -0.0861643 0)
(0.00285048 -0.153424 0)
(-0.0258447 -0.231528 0)
(-0.0593515 -0.321064 0)
(-0.0943345 -0.419898 0)
(-0.123997 -0.518938 0)
(-0.137141 -0.595411 0)
(-0.120185 -0.605894 0)
(-0.0695201 -0.490518 0)
(-0.0172174 -0.209098 0)
(-0.00384261 0.0677595 0)
(-0.0157778 0.165017 0)
(-0.0305781 0.225665 0)
(-0.0401318 0.258868 0)
(-0.0425943 0.273659 0)
(-0.0385594 0.276758 0)
(-0.0292071 0.27271 0)
(-0.0158252 0.264383 0)
(0.000388413 0.253434 0)
(0.018387 0.240703 0)
(0.0372555 0.226496 0)
(0.0561763 0.210789 0)
(0.0743928 0.193353 0)
(0.0911789 0.173843 0)
(0.105825 0.151833 0)
(0.117617 0.12683 0)
(0.125836 0.0982834 0)
(0.129751 0.0655317 0)
(0.128601 0.0277573 0)
(0.121582 -0.016065 0)
(0.107865 -0.0672447 0)
(0.0866357 -0.127415 0)
(0.0572477 -0.198548 0)
(0.0196612 -0.282656 0)
(-0.0243975 -0.380466 0)
(-0.0696646 -0.487585 0)
(-0.104755 -0.586004 0)
(-0.11166 -0.631368 0)
(-0.077271 -0.546327 0)
(-0.0227801 -0.251768 0)
(-0.00730641 0.0793081 0)
(-0.0259466 0.182611 0)
(-0.0453125 0.238934 0)
(-0.0546655 0.264113 0)
(-0.0530574 0.270798 0)
(-0.0425844 0.267103 0)
(-0.0255422 0.257889 0)
(-0.00395304 0.245912 0)
(0.0205354 0.232603 0)
(0.0466243 0.218589 0)
(0.0732755 0.204018 0)
(0.0996223 0.188761 0)
(0.1249 0.172528 0)
(0.148397 0.154942 0)
(0.16942 0.135571 0)
(0.187269 0.113934 0)
(0.201219 0.0894968 0)
(0.210504 0.0616379 0)
(0.214291 0.0296048 0)
(0.211634 -0.00754676 0)
(0.201491 -0.0510479 0)
(0.182682 -0.102498 0)
(0.153924 -0.164074 0)
(0.1141 -0.238656 0)
(0.0630652 -0.329382 0)
(0.00357091 -0.437044 0)
(-0.0546789 -0.551312 0)
(-0.0911144 -0.632951 0)
(-0.0825975 -0.592216 0)
(-0.0299586 -0.301391 0)
(-0.0138846 0.0995498 0)
(-0.0426969 0.207875 0)
(-0.0658746 0.254036 0)
(-0.0715047 0.266062 0)
(-0.0615442 0.261319 0)
(-0.0406508 0.249057 0)
(-0.0126012 0.233955 0)
(0.0197891 0.218238 0)
(0.054489 0.202823 0)
(0.0900564 0.187944 0)
(0.125439 0.173481 0)
(0.159821 0.159143 0)
(0.192513 0.144553 0)
(0.222883 0.129294 0)
(0.25031 0.112932 0)
(0.27415 0.0950083 0)
(0.293708 0.0750363 0)
(0.30822 0.0524687 0)
(0.316808 0.026662 0)
(0.318426 -0.00318309 0)
(0.31189 -0.0380988 0)
(0.295761 -0.0794876 0)
(0.268298 -0.129382 0)
(0.227541 -0.190884 0)
(0.171664 -0.268639 0)
(0.100402 -0.368037 0)
(0.0195195 -0.488413 0)
(-0.051261 -0.602322 0)
(-0.0805352 -0.618696 0)
(-0.0375265 -0.358299 0)
(-0.0254044 0.135074 0)
(-0.067128 0.241025 0)
(-0.0867676 0.266494 0)
(-0.0785207 0.258681 0)
(-0.0512871 0.239443 0)
(-0.01323 0.217822 0)
(0.030503 0.197238 0)
(0.0766777 0.178714 0)
(0.123276 0.162287 0)
(0.169049 0.147617 0)
(0.213196 0.134241 0)
(0.255145 0.121678 0)
(0.29443 0.10946 0)
(0.330608 0.0971461 0)
(0.363209 0.0843183 0)
(0.39171 0.0705703 0)
(0.415501 0.0554911 0)
(0.433869 0.0386411 0)
(0.445951 0.019521 0)
(0.450682 -0.00248258 0)
(0.44682 -0.0280849 0)
(0.432774 -0.0583955 0)
(0.40656 -0.0950599 0)
(0.365692 -0.140806 0)
(0.307096 -0.200514 0)
(0.227598 -0.282419 0)
(0.127718 -0.395543 0)
(0.0206171 -0.53098 0)
(-0.0610174 -0.612536 0)
(-0.0408609 -0.421784 0)
(-0.0413003 0.197244 0)
(-0.0902201 0.27266 0)
(-0.0798403 0.259262 0)
(-0.0362295 0.22638 0)
(0.0216654 0.193546 0)
(0.084125 0.165532 0)
(0.146567 0.142826 0)
(0.206784 0.124599 0)
(0.263781 0.109798 0)
(0.31718 0.0974941 0)
(0.366865 0.0869378 0)
(0.412794 0.0775264 0)
(0.454904 0.0687695 0)
(0.493063 0.060259 0)
(0.527044 0.0516448 0)
(0.556512 0.0426135 0)
(0.581005 0.0328702 0)
(0.59993 0.0221179 0)
(0.612506 0.0100316 0)
(0.617816 -0.00379775 0)
(0.614669 -0.0197567 0)
(0.601465 -0.038559 0)
(0.576237 -0.0612975 0)
(0.536332 -0.0898972 0)
(0.478032 -0.12822 0)
(0.396039 -0.184448 0)
(0.285042 -0.273857 0)
(0.145941 -0.410562 0)
(-0.00340886 -0.554015 0)
(-0.0253909 -0.477513 0)
(-0.0341372 0.293722 0)
(-0.0479202 0.272573 0)
(0.0537152 0.199517 0)
(0.156789 0.149683 0)
(0.249743 0.114898 0)
(0.332028 0.0900473 0)
(0.404559 0.0724347 0)
(0.468516 0.0598303 0)
(0.525163 0.0505278 0)
(0.575625 0.0433786 0)
(0.620771 0.0376292 0)
(0.661213 0.0327673 0)
(0.697335 0.0284277 0)
(0.729332 0.0243394 0)
(0.757226 0.020292 0)
(0.780884 0.016113 0)
(0.800032 0.0116514 0)
(0.814256 0.00676856 0)
(0.822924 0.00131933 0)
(0.825423 -0.0047552 0)
(0.820797 -0.0117913 0)
(0.807741 -0.0200593 0)
(0.784638 -0.030022 0)
(0.749174 -0.0426102 0)
(0.69775 -0.0598707 0)
(0.624268 -0.0868873 0)
(0.518464 -0.137182 0)
(0.365126 -0.240279 0)
(0.144123 -0.406975 0)
(0.0588649 -0.458305 0)
(0.303211 0.1809 0)
(0.382416 0.144229 0)
(0.560604 0.0910746 0)
(0.686355 0.0589464 0)
(0.769071 0.0393385 0)
(0.828768 0.0268726 0)
(0.874792 0.0189848 0)
(0.911499 0.0139976 0)
(0.94159 0.0107643 0)
(0.966874 0.00857108 0)
(0.988496 0.0069936 0)
(1.00715 0.00577625 0)
(1.02326 0.0047598 0)
(1.03704 0.0038413 0)
(1.04857 0.00295099 0)
(1.05782 0.00203862 0)
(1.06467 0.00106382 0)
(1.06893 -3.7982e-06 0)
(1.07037 -0.00120522 0)
(1.06861 -0.00244078 0)
(1.06312 -0.00391203 0)
(1.05344 -0.00565625 0)
(1.03879 -0.00774785 0)
(1.01796 -0.0103939 0)
(0.988907 -0.0140933 0)
(0.947514 -0.0201897 0)
(0.883974 -0.0325755 0)
(0.77635 -0.0637517 0)
(0.544821 -0.139465 0)
(0.38249 -0.201737 0)
)
;

boundaryField
{
    movingWall
    {
        type            fixedValue;
        value           uniform (1.2 0 0);
    }
    fixedWalls
    {
        type            noSlip;
    }
    frontAndBack
    {
        type            empty;
    }
}


// ************************************************************************* //
