/*--------------------------------*- C++ -*----------------------------------*\
  =========                 |
  \\      /  F ield         | OpenFOAM: The Open Source CFD Toolbox
   \\    /   O peration     | Website:  https://openfoam.org
    \\  /    A nd           | Version:  7
     \\/     M anipulation  |
\*---------------------------------------------------------------------------*/
FoamFile
{
    version     2.0;
    format      ascii;
    class       volScalarField;
    location    "400";
    object      epsilon;
}
// * * * * * * * * * * * * * * * * * * * * * * * * * * * * * * * * * * * * * //

dimensions      [0 2 -3 0 0 0 0];

internalField   nonuniform List<scalar> 
4500
(
789.607
724.717
675.056
641.444
616.337
596.999
581.733
569.399
559.236
550.727
543.512
537.331
531.994
527.355
523.302
519.746
516.619
513.861
511.429
509.282
507.39
505.724
504.255
502.953
501.779
500.685
499.619
498.522
497.346
496.052
494.623
493.062
491.396
489.664
487.927
486.248
484.698
483.34
482.244
481.468
481.067
481.083
481.559
482.52
483.98
485.934
488.366
491.247
494.537
498.183
502.13
506.313
510.674
515.155
519.702
524.261
528.788
533.236
537.567
541.743
545.728
549.491
553.004
556.243
559.19
561.832
564.168
566.2
567.942
569.412
570.633
571.632
572.437
573.069
573.557
180.467
258.6
265.807
255.427
244.809
236.24
229.47
224.046
219.618
215.941
212.845
210.208
207.941
205.978
204.268
202.77
201.455
200.297
199.275
198.374
197.578
196.875
196.252
195.697
195.192
194.718
194.255
193.782
193.284
192.751
192.18
191.578
190.959
190.343
189.752
189.212
188.746
188.376
188.124
188.006
188.039
188.229
188.586
189.121
189.834
190.723
191.779
192.992
194.346
195.822
197.399
199.054
200.767
202.514
204.275
206.031
207.764
209.459
211.101
212.676
214.174
215.584
216.897
218.106
219.207
220.195
221.072
221.839
222.499
223.058
223.524
223.904
224.206
224.439
224.61
52.4732
112.464
134.457
135.922
132.522
128.669
125.265
122.401
120.007
117.993
116.284
114.823
113.562
112.469
111.515
110.679
109.944
109.297
108.725
108.22
107.773
107.378
107.028
106.715
106.431
106.165
105.909
105.652
105.388
105.113
104.828
104.535
104.243
103.961
103.699
103.466
103.274
103.131
103.044
103.02
103.064
103.178
103.369
103.64
103.994
104.43
104.947
105.541
106.205
106.934
107.717
108.543
109.403
110.286
111.18
112.076
112.964
113.838
114.689
115.512
116.3
117.05
117.756
118.414
119.021
119.574
120.072
120.513
120.897
121.225
121.499
121.721
121.896
122.028
122.122
18.9423
52.8112
76.111
83.4465
84.1244
82.8547
81.1903
79.5846
78.1513
76.9017
75.8187
74.8792
74.0618
73.3479
72.7222
72.1719
71.6868
71.2582
70.879
70.5433
70.2461
69.9828
69.7491
69.5407
69.3527
69.1798
69.017
68.8593
68.7031
68.5466
68.3896
68.234
68.0826
67.9392
67.8077
67.6922
67.5962
67.5227
67.4743
67.4534
67.4612
67.4996
67.574
67.6873
67.8423
68.0413
68.2859
68.5765
68.9119
69.2898
69.7058
70.1553
70.6323
71.1304
71.6432
72.165
72.6899
73.2136
73.7317
74.2405
74.7366
75.2169
75.6782
76.1171
76.5304
76.9146
77.2666
77.5839
77.8641
78.1059
78.3091
78.4747
78.6047
78.7029
78.773
8.1872
25.0217
43.8942
53.7537
57.1337
57.7145
57.2786
56.5262
55.7185
54.9491
54.2478
53.6201
53.0624
52.5681
52.1302
51.742
51.3976
51.0917
50.8201
50.5787
50.3644
50.1742
50.0055
49.8559
49.7226
49.6032
49.4947
49.3947
49.3007
49.2112
49.1252
49.0422
48.9623
48.8858
48.813
48.7444
48.6803
48.6214
48.5678
48.5203
48.4792
48.4475
48.4295
48.4288
48.4491
48.4945
48.5687
48.6745
48.8134
48.9859
49.1906
49.4254
49.6871
49.9717
50.2752
50.5935
50.9229
51.2605
51.6032
51.9485
52.294
52.637
52.9747
53.3039
53.6207
53.9215
54.2022
54.4592
54.6893
54.8901
55.0605
55.2006
55.3117
55.3967
55.459
4.2188
11.9892
24.7098
34.5695
39.5749
41.5705
42.1325
42.0729
41.7614
41.3618
40.9462
40.5459
40.1736
39.8334
39.5253
39.2478
38.9985
38.7751
38.575
38.3962
38.2367
38.0948
37.9692
37.8586
37.762
37.6783
37.6062
37.544
37.49
37.4422
37.3985
37.3566
37.3146
37.2705
37.2224
37.1689
37.1087
37.0412
36.9658
36.8829
36.7929
36.7
36.6079
36.5209
36.4439
36.382
36.3402
36.3228
36.3329
36.3726
36.4423
36.5414
36.6683
36.8204
36.995
37.1893
37.4004
37.6263
37.8645
38.113
38.3697
38.6321
38.8973
39.162
39.4222
39.6737
39.9122
40.1336
40.3342
40.5113
40.6632
40.7896
40.8914
40.9708
41.0307
2.53586
6.06763
13.4269
21.5411
27.1065
30.0891
31.4755
32.0206
32.1462
32.069
31.8979
31.6884
31.4685
31.2526
31.0476
30.8568
30.6812
30.5209
30.3754
30.2438
30.1255
30.0198
29.9264
29.845
29.7757
29.7183
29.6724
29.6368
29.6098
29.5888
29.5707
29.5521
29.5293
29.499
29.4581
29.4041
29.3349
29.2497
29.1478
29.0295
28.8964
28.7529
28.6028
28.4513
28.3037
28.166
28.0439
27.9424
27.8656
27.8165
27.7964
27.8059
27.8442
27.9097
28.0004
28.1143
28.2491
28.403
28.574
28.7601
28.9593
29.1691
29.3865
29.6082
29.83
30.0477
30.2568
30.4532
30.6331
30.7937
30.933
31.0504
31.1465
31.2229
31.2821
1.72014
3.39495
7.19137
12.8165
17.9493
21.4137
23.4192
24.4852
25.0083
25.2292
25.2842
25.2494
25.1674
25.0624
24.9482
24.8326
24.7203
24.6136
24.514
24.422
24.3379
24.2622
24.1953
24.1377
24.0903
24.0536
24.0275
24.0113
24.0029
23.9993
23.9966
23.9904
23.9761
23.9494
23.9067
23.8449
23.7619
23.6568
23.5294
23.3804
23.2123
23.0296
22.8367
22.6388
22.4419
22.2522
22.0757
21.9179
21.7831
21.6749
21.5953
21.5452
21.5245
21.5323
21.5672
21.6274
21.7111
21.8165
21.9419
22.0851
22.2443
22.4167
22.5995
22.7891
22.9818
23.1732
23.3592
23.5355
23.6987
23.8458
23.9748
24.0851
24.1766
24.2506
24.3092
1.27853
2.13151
3.97936
7.32524
11.3239
14.7132
17.0625
18.5327
19.4051
19.9031
20.1732
20.3058
20.3557
20.3562
20.3275
20.2824
20.2286
20.1712
20.1134
20.0571
20.0039
19.955
19.9115
19.8748
19.8461
19.8265
19.8163
19.8147
19.8194
19.8271
19.8334
19.8331
19.8212
19.793
19.7444
19.6725
19.5754
19.4524
19.3037
19.1306
18.9368
18.7263
18.504
18.2754
18.0466
17.8237
17.6128
17.4193
17.2478
17.1019
16.9839
16.8951
16.8358
16.8055
16.8031
16.8271
16.8758
16.9476
17.0407
17.153
17.2825
17.4265
17.5821
17.7461
17.9147
18.084
18.2499
18.4087
18.557
18.692
18.8118
18.9153
19.0024
19.0739
19.1315
1.01869
1.48311
2.38188
4.15478
6.8016
9.62717
11.9836
13.6873
14.8322
15.5744
16.0457
16.3399
16.5188
16.623
16.6785
16.7023
16.7057
16.6961
16.6786
16.6567
16.6328
16.6093
16.5878
16.5704
16.5587
16.5542
16.5572
16.567
16.5813
16.5966
16.6079
16.6101
16.5977
16.566
16.5109
16.4296
16.3206
16.1837
16.0195
15.8302
15.6197
15.3921
15.1525
14.9065
14.6599
14.4188
14.189
13.9757
13.7833
13.6155
13.4745
13.3621
13.2786
13.2238
13.1968
13.1964
13.221
13.2689
13.3384
13.4274
13.5338
13.655
13.7883
13.9304
14.0781
14.2278
14.3757
14.5185
14.653
14.7766
14.8874
14.9842
15.0667
15.1352
15.1911
0.856486
1.12027
1.57153
2.45563
3.97547
5.97825
8.01089
9.72611
11.0249
11.954
12.6007
13.0453
13.349
13.5554
13.6948
13.7877
13.8485
13.8869
13.9098
13.9221
13.9276
13.9291
13.9294
13.9307
13.9352
13.9444
13.9591
13.9786
14.0005
14.0211
14.0357
14.0388
14.0252
13.99
13.9297
13.8416
13.7246
13.5789
13.4058
13.2079
12.9893
12.7543
12.5078
12.2554
12.0026
11.7552
11.5184
11.2972
11.0959
10.9178
10.7652
10.6399
10.5424
10.4727
10.4301
10.4134
10.4212
10.4519
10.5036
10.5744
10.6621
10.7643
10.8785
11.0016
11.1307
11.2626
11.394
11.5219
11.6434
11.756
11.858
11.9481
12.0257
12.0908
12.1445
0.751138
0.901882
1.1357
1.57101
2.36209
3.58036
5.07589
6.57156
7.86573
8.89151
9.66657
10.2385
10.6564
10.9608
11.1828
11.3449
11.4637
11.551
11.6151
11.6625
11.6979
11.7251
11.7473
11.7674
11.7879
11.8106
11.8363
11.8645
11.893
11.9183
11.9355
11.9396
11.9253
11.8884
11.8252
11.7339
11.6134
11.4646
11.289
11.0898
10.871
10.6368
10.3922
10.1423
9.89236
9.64763
9.41305
9.19306
8.99154
8.81164
8.65569
8.52524
8.42106
8.34318
8.29107
8.26372
8.25979
8.27768
8.31562
8.3717
8.44384
8.5298
8.62718
8.73341
8.84577
8.96147
9.07768
9.19165
9.30084
9.40304
9.49643
9.57974
9.65219
9.71363
9.76485
0.681084
0.763094
0.884561
1.10001
1.49244
2.15026
3.09086
4.2063
5.32813
6.32978
7.15924
7.81699
8.3269
8.71822
9.01769
9.2472
9.42378
9.56035
9.66667
9.75011
9.8164
9.87011
9.91508
9.95461
9.9915
10.0278
10.0646
10.1014
10.1365
10.1664
10.1867
10.1927
10.1794
10.143
10.0803
9.98965
9.87057
9.72403
9.55199
9.3579
9.14551
8.91912
8.68334
8.44299
8.2029
7.96779
7.74208
7.5298
7.33443
7.15886
7.00525
6.87514
6.76931
6.68791
6.63055
6.59634
6.58404
6.59219
6.61909
6.66292
6.72175
6.79351
6.87606
6.96711
7.06431
7.16523
7.26742
7.36848
7.46616
7.55841
7.64351
7.72016
7.78747
7.84509
7.89357
0.63403
0.671598
0.730768
0.835749
1.02644
1.35691
1.87632
2.58645
3.41896
4.27086
5.05819
5.73808
6.30134
6.75721
7.12188
7.41233
7.64372
7.82861
7.97711
8.0972
8.19525
8.27642
8.34505
8.40483
8.45883
8.50936
8.55767
8.60367
8.64579
8.68111
8.70567
8.71508
8.70503
8.67189
8.61305
8.5271
8.41393
8.27469
8.11157
7.92799
7.7276
7.5145
7.29299
7.06749
6.84236
6.6218
6.40974
6.20975
6.02492
5.85786
5.71057
5.58449
5.48044
5.39866
5.33887
5.30035
5.282
5.28248
5.30023
5.33359
5.38078
5.43996
5.50922
5.58658
5.67
5.75742
5.84673
5.93585
6.02277
6.10565
6.18286
6.25307
6.31534
6.36915
6.41484
0.602484
0.610007
0.63217
0.67868
0.768007
0.927183
1.19007
1.58499
2.11209
2.73181
3.38151
4.00409
4.56404
5.04728
5.45396
5.79145
6.06965
6.29854
6.48713
6.6431
6.77292
6.88202
6.97501
7.05581
7.12773
7.19329
7.25395
7.30996
7.36016
7.40209
7.43237
7.44713
7.44261
7.41561
7.36392
7.28645
7.18328
7.05567
6.90591
6.73728
6.55324
6.35763
6.15441
5.94756
5.74097
5.53835
5.34316
5.1585
4.98713
4.83134
4.69298
4.57338
4.47338
4.39329
4.33296
4.29183
4.26897
4.26321
4.27318
4.29739
4.33424
4.38214
4.4394
4.50433
4.57521
4.65028
4.72775
4.80583
4.88275
4.95685
5.0266
5.09069
5.1481
5.19822
5.24118
0.581598
0.568258
0.567053
0.580682
0.61734
0.689625
0.815044
1.01459
1.30566
1.69024
2.14768
2.64103
3.13178
3.59126
4.00373
4.36394
4.67321
4.93623
5.15893
5.34736
5.50717
5.64345
5.76069
5.86283
5.95324
6.03455
6.10844
6.17547
6.23491
6.28486
6.32251
6.3446
6.34791
6.32973
6.28819
6.22245
6.13274
6.02032
5.88745
5.73716
5.57272
5.39763
5.21548
5.02983
4.84412
4.6616
4.48527
4.31785
4.16172
4.01894
3.89115
3.77961
3.68513
3.60811
3.54852
3.50596
3.4797
3.46877
3.47199
3.48807
3.51566
3.55335
3.59972
3.65334
3.71276
3.77651
3.84308
3.91094
3.97856
4.04444
4.10716
4.16545
4.21825
4.26485
4.30521
0.568079
0.540126
0.523431
0.51743
0.525304
0.552668
0.607669
0.701329
0.846657
1.05501
1.32993
1.66241
2.03209
2.41414
2.78659
3.13432
3.44925
3.72876
3.97368
4.18675
4.37157
4.53198
4.67174
4.7944
4.9031
5.00041
5.08811
5.16701
5.23679
5.29608
5.34268
5.37393
5.38715
5.38009
5.3512
5.29984
5.2263
5.1318
5.01844
4.88896
4.74634
4.59377
4.43447
4.27157
4.1081
3.94688
3.79052
3.64137
3.50152
3.37275
3.25655
3.15406
3.06611
2.99312
2.9352
2.89212
2.86335
2.84811
2.84547
2.85434
2.87359
2.90204
2.93851
2.98181
3.03073
3.08407
3.14057
3.19894
3.25788
3.31605
3.37214
3.42494
3.47337
3.51664
3.55454
0.559602
0.521507
0.494215
0.475854
0.467123
0.470264
0.488837
0.527918
0.594281
0.695972
0.840597
1.03225
1.26844
1.53938
1.83035
2.12588
2.41303
2.68294
2.93069
3.15445
3.35446
3.53225
3.69004
3.83033
3.95559
4.06805
4.16935
4.26039
4.34117
4.41076
4.46753
4.50937
4.53414
4.53998
4.52563
4.49058
4.43517
4.36048
4.26838
4.16128
4.04186
3.91297
3.77745
3.63806
3.49744
3.35804
3.22212
3.09171
2.96862
2.85441
2.7504
2.65765
2.57693
2.50875
2.45331
2.41052
2.38005
2.36135
2.35369
2.35623
2.36805
2.38819
2.41569
2.44958
2.4889
2.53265
2.57982
2.62936
2.68014
2.73103
2.78083
2.82839
2.87265
2.91275
2.94836
0.5545
0.509542
0.474918
0.448452
0.429644
0.419073
0.418104
0.428877
0.454437
0.498844
0.567016
0.664009
0.793577
0.956396
1.14891
1.36364
1.59092
1.82103
2.04588
2.25971
2.45907
2.64242
2.8096
2.96135
3.09893
3.22371
3.33688
3.43917
3.53066
3.61074
3.6782
3.73143
3.7687
3.78852
3.78986
3.77231
3.73614
3.68233
3.61244
3.52851
3.43292
3.32815
3.21669
3.10096
2.98325
2.86568
2.75022
2.63862
2.53243
2.43304
2.3416
2.25908
2.18623
2.12356
2.07137
2.02971
1.99842
1.97716
1.96541
1.96255
1.96788
1.98066
2.00012
2.02551
2.05607
2.09101
2.12955
2.17082
2.21392
2.25788
2.30165
2.34417
2.38441
2.42147
2.45491
0.551578
0.502159
0.462517
0.430613
0.405436
0.386738
0.374813
0.370408
0.374735
0.389544
0.417192
0.460615
0.52306
0.607482
0.715642
0.847209
0.99934
1.16703
1.34409
1.5243
1.70231
1.87411
2.03708
2.18979
2.33176
2.46303
2.5839
2.69455
2.79486
2.88428
2.96181
3.02617
3.07595
3.10993
3.12722
3.12744
3.11079
3.07806
3.03053
2.96985
2.89803
2.81722
2.72957
2.63717
2.54201
2.44594
2.35064
2.25763
2.16828
2.08378
2.00515
1.93328
1.86887
1.81243
1.76433
1.72472
1.69359
1.67079
1.65599
1.64878
1.64866
1.6551
1.66752
1.68535
1.70802
1.73495
1.76552
1.79908
1.83493
1.87227
1.91023
1.94784
1.98415
2.01824
2.04958
0.549997
0.497833
0.454862
0.419311
0.390008
0.366314
0.347991
0.335115
0.328033
0.327378
0.334101
0.349515
0.375307
0.413461
0.466039
0.534794
0.620652
0.723264
0.840812
0.970196
1.10754
1.24884
1.39046
1.52947
1.66376
1.7919
1.91295
2.02622
2.13102
2.22654
2.31174
2.38543
2.44636
2.49342
2.52577
2.543
2.54516
2.53281
2.50696
2.46885
2.4201
2.36253
2.29794
2.22814
2.15483
2.0796
2.00391
1.9291
1.85633
1.78666
1.721
1.66013
1.60471
1.55524
1.51211
1.47556
1.4457
1.42251
1.40585
1.39548
1.3911
1.39233
1.3988
1.4101
1.42583
1.44557
1.4689
1.49534
1.52438
1.55542
1.58774
1.62055
1.65297
1.68412
1.71341
0.549196
0.49545
0.450382
0.412443
0.380459
0.353629
0.331457
0.313683
0.300245
0.291252
0.28699
0.287933
0.294771
0.308424
0.330031
0.360892
0.402324
0.455437
0.52086
0.598488
0.687359
0.785721
0.891261
1.00143
1.11375
1.22601
1.33633
1.44312
1.54499
1.6406
1.72861
1.80767
1.87646
1.93383
1.97885
2.01097
2.03001
2.03627
2.03041
2.01338
1.98629
1.95062
1.90784
1.85947
1.80694
1.75161
1.69475
1.6375
1.5809
1.52585
1.47317
1.42356
1.37761
1.33582
1.29856
1.26614
1.23873
1.21642
1.19921
1.18701
1.17966
1.17698
1.17872
1.18464
1.19449
1.208
1.2249
1.2449
1.26765
1.29275
1.31966
1.34777
1.37633
1.40455
1.43181
0.54882
0.494229
0.447927
0.408498
0.374812
0.346017
0.321496
0.300829
0.283749
0.270116
0.259909
0.253214
0.250232
0.251294
0.256863
0.267551
0.2841
0.307348
0.338155
0.377278
0.425229
0.482135
0.547635
0.620878
0.70059
0.785207
0.873012
0.962245
1.05116
1.13804
1.22121
1.29903
1.36998
1.43268
1.486
1.52912
1.56157
1.58329
1.59456
1.59599
1.58824
1.57237
1.54952
1.52087
1.48761
1.45087
1.41172
1.37113
1.33002
1.28916
1.24929
1.21101
1.17488
1.14134
1.11077
1.08349
1.0597
1.03957
1.02319
1.01057
1.0017
0.996504
0.994883
0.996722
1.00189
1.01027
1.02172
1.03609
1.05321
1.07285
1.09468
1.11827
1.14305
1.16837
1.19362
0.548657
0.493654
0.446683
0.406388
0.371673
0.341678
0.31574
0.293358
0.274166
0.257902
0.244398
0.233559
0.225367
0.219876
0.217213
0.217587
0.221296
0.228722
0.240336
0.256672
0.278296
0.305745
0.339457
0.379683
0.426422
0.479365
0.537882
0.601039
0.667634
0.736253
0.805335
0.873237
0.938322
0.999042
1.05402
1.10215
1.14259
1.17488
1.19886
1.21471
1.2228
1.2236
1.21789
1.20651
1.19037
1.17036
1.14732
1.12209
1.09541
1.06797
1.0404
1.01324
0.986978
0.962024
0.938735
0.917404
0.898271
0.881523
0.867299
0.855694
0.846767
0.840544
0.837027
0.836206
0.838059
0.842568
0.849711
0.859469
0.871808
0.886663
0.903907
0.923316
0.944525
0.967052
0.990381
0.548592
0.493406
0.446107
0.405351
0.370059
0.339371
0.312608
0.289233
0.268829
0.251075
0.235728
0.222608
0.211595
0.202617
0.19565
0.190716
0.187888
0.187286
0.189086
0.19352
0.200873
0.211478
0.225705
0.243929
0.2665
0.293692
0.32565
0.362332
0.403459
0.448488
0.496602
0.546743
0.597668
0.648037
0.69651
0.741844
0.782973
0.819073
0.849585
0.874235
0.893009
0.905968
0.913404
0.915794
0.913702
0.907737
0.898531
0.886704
0.872853
0.857542
0.841289
0.824564
0.807788
0.79133
0.775509
0.760598
0.746828
0.734391
0.723444
0.714114
0.706506
0.700701
0.696769
0.694769
0.694758
0.696797
0.700954
0.707308
0.715944
0.726938
0.74034
0.756131
0.774174
0.7942
0.815831
0.548569
0.49331
0.445866
0.40489
0.369304
0.338249
0.311036
0.287114
0.266042
0.247465
0.231105
0.216739
0.204196
0.193345
0.184094
0.176382
0.17018
0.165488
0.162338
0.160793
0.160949
0.162936
0.16692
0.173101
0.181708
0.192988
0.207189
0.224529
0.245161
0.269128
0.296318
0.32643
0.35896
0.393214
0.428348
0.463432
0.497526
0.529758
0.559378
0.585811
0.608671
0.627771
0.642943
0.654268
0.661951
0.666288
0.667637
0.666391
0.662959
0.657746
0.651148
0.643536
0.635253
0.626611
0.617883
0.609311
0.601103
0.593436
0.586463
0.580314
0.575106
0.570943
0.567922
0.566141
0.5657
0.566711
0.5693
0.573614
0.579823
0.588117
0.59869
0.61171
0.627267
0.645322
0.66567
0.548561
0.493276
0.445775
0.404707
0.368989
0.337759
0.310324
0.286125
0.264707
0.245702
0.22881
0.213787
0.200435
0.188595
0.17814
0.168972
0.161016
0.154218
0.148548
0.143992
0.140556
0.138267
0.137171
0.137336
0.13885
0.141826
0.146393
0.152697
0.160884
0.171091
0.183419
0.19791
0.214519
0.233094
0.25336
0.27493
0.297319
0.319982
0.342352
0.363892
0.384128
0.402684
0.419291
0.433685
0.445773
0.455559
0.463126
0.468622
0.472239
0.474202
0.474749
0.474128
0.47258
0.470335
0.467608
0.464592
0.461461
0.458365
0.455438
0.452797
0.450548
0.448791
0.447625
0.447156
0.447495
0.448773
0.451144
0.454789
0.45993
0.466831
0.475792
0.487133
0.501141
0.518
0.537682
0.548559
0.493266
0.445745
0.404642
0.368873
0.337571
0.31004
0.285716
0.264139
0.24493
0.227779
0.212432
0.198676
0.186338
0.175272
0.165362
0.156511
0.148642
0.141694
0.13562
0.13039
0.125983
0.122393
0.119624
0.117693
0.116631
0.11648
0.117295
0.11914
0.122086
0.126205
0.131564
0.138211
0.146164
0.155402
0.165849
0.177375
0.18979
0.202857
0.216302
0.229833
0.243165
0.256043
0.268231
0.279506
0.289713
0.29876
0.306608
0.313267
0.318786
0.32325
0.326766
0.329458
0.331459
0.332902
0.333918
0.334632
0.335157
0.335598
0.33605
0.3366
0.337333
0.338334
0.339696
0.341524
0.343941
0.347098
0.351185
0.356437
0.363154
0.371698
0.382493
0.395973
0.412504
0.432206
0.548558
0.493263
0.445735
0.404622
0.368836
0.337509
0.309944
0.285572
0.26393
0.244636
0.227375
0.211885
0.197946
0.185378
0.174026
0.163764
0.154484
0.146098
0.138532
0.131724
0.125625
0.120197
0.11541
0.111243
0.107683
0.104725
0.102372
0.100632
0.0995233
0.0990668
0.0992895
0.10022
0.101888
0.104317
0.107523
0.111509
0.116258
0.121734
0.127875
0.134594
0.141785
0.149323
0.157075
0.164912
0.172692
0.180277
0.18755
0.194413
0.200798
0.206662
0.211987
0.21678
0.221069
0.224897
0.228321
0.231409
0.23423
0.236857
0.239364
0.241822
0.244299
0.246864
0.24959
0.252553
0.255841
0.259561
0.263848
0.268874
0.274867
0.282127
0.291039
0.302077
0.315765
0.332588
0.352766
0.548558
0.493263
0.445733
0.404617
0.368827
0.337493
0.309918
0.285532
0.26387
0.244548
0.227249
0.211707
0.197701
0.185045
0.173583
0.163183
0.153733
0.145139
0.137321
0.130213
0.123758
0.11791
0.112631
0.107891
0.103664
0.0999345
0.0966893
0.093922
0.0916309
0.0898187
0.0884919
0.0876599
0.0873341
0.0875265
0.0882478
0.0895054
0.0913018
0.0936318
0.0964811
0.0998246
0.103625
0.107835
0.112397
0.117243
0.122306
0.127504
0.132755
0.137981
0.14311
0.148083
0.152854
0.15739
0.161677
0.165715
0.169518
0.173113
0.176537
0.179837
0.183065
0.186276
0.18953
0.192887
0.196413
0.200176
0.204255
0.208746
0.213766
0.219473
0.226078
0.233868
0.243228
0.254646
0.268683
0.28588
0.306514
0.548558
0.493263
0.445733
0.404617
0.368827
0.337493
0.309918
0.285532
0.26387
0.244548
0.227249
0.211707
0.197701
0.185045
0.173583
0.163183
0.153733
0.145138
0.137321
0.130212
0.123758
0.11791
0.112631
0.10789
0.103664
0.0999344
0.0966894
0.0939226
0.0916322
0.0898212
0.088496
0.0876665
0.087344
0.0875406
0.088267
0.0895306
0.0913336
0.0936705
0.0965263
0.0998753
0.10368
0.10789
0.112448
0.117288
0.122338
0.127516
0.132737
0.137922
0.143
0.147909
0.152604
0.157053
0.161241
0.16517
0.168854
0.172322
0.175615
0.17878
0.181872
0.18495
0.188076
0.191313
0.194728
0.198393
0.202389
0.206811
0.211777
0.217446
0.224026
0.231805
0.241166
0.252597
0.266658
0.283889
0.304568
0.548558
0.493263
0.445735
0.404622
0.368836
0.337509
0.309944
0.285572
0.26393
0.244636
0.227375
0.211884
0.197946
0.185377
0.174026
0.163763
0.154484
0.146097
0.138531
0.131722
0.125624
0.120195
0.115408
0.11124
0.10768
0.104722
0.102369
0.100631
0.0995236
0.0990707
0.0992991
0.100238
0.101918
0.104362
0.107587
0.111595
0.11637
0.121872
0.128037
0.134778
0.141982
0.149522
0.157262
0.165068
0.172793
0.180295
0.187452
0.194166
0.200366
0.206009
0.211079
0.215585
0.219556
0.223041
0.226103
0.228813
0.231249
0.233491
0.235621
0.237716
0.239854
0.242109
0.24456
0.247286
0.250379
0.253946
0.25812
0.263071
0.269023
0.276272
0.285201
0.296281
0.310035
0.326948
0.34724
0.548559
0.493266
0.445745
0.404642
0.368873
0.337571
0.31004
0.285716
0.264138
0.244929
0.227779
0.212431
0.198675
0.186336
0.175271
0.16536
0.156509
0.148639
0.14169
0.135616
0.130385
0.125977
0.122385
0.119614
0.117683
0.11662
0.116469
0.117286
0.119135
0.122089
0.126222
0.131602
0.138279
0.146271
0.155558
0.166064
0.177654
0.190135
0.203262
0.216755
0.230313
0.243643
0.256486
0.26859
0.279727
0.289743
0.298538
0.306075
0.312364
0.317458
0.321447
0.324445
0.326582
0.328003
0.328849
0.329266
0.329387
0.32934
0.329239
0.329192
0.329293
0.329634
0.330305
0.331398
0.333018
0.335284
0.338342
0.342372
0.347604
0.35433
0.362908
0.373758
0.387316
0.403951
0.423782
0.548561
0.493276
0.445775
0.404707
0.368988
0.337758
0.310324
0.286124
0.264706
0.245701
0.228808
0.213785
0.200432
0.188591
0.178136
0.168967
0.161009
0.15421
0.148538
0.143979
0.140541
0.138249
0.137149
0.13731
0.138821
0.141794
0.146361
0.152667
0.160864
0.17109
0.183451
0.197993
0.214673
0.233342
0.253722
0.275423
0.297949
0.320744
0.343227
0.364847
0.385113
0.403641
0.420146
0.434358
0.446177
0.455608
0.462734
0.467709
0.470732
0.472036
0.471871
0.470497
0.46817
0.465135
0.461623
0.457844
0.453987
0.450218
0.446681
0.443504
0.440799
0.438668
0.437208
0.436518
0.436703
0.437883
0.440201
0.443826
0.44897
0.455887
0.464875
0.476251
0.490306
0.507234
0.527011
0.548569
0.49331
0.445866
0.404889
0.369303
0.338248
0.311035
0.287112
0.266039
0.247462
0.2311
0.216733
0.204189
0.193336
0.184083
0.176368
0.170163
0.165467
0.162313
0.160762
0.160911
0.16289
0.166866
0.173037
0.181635
0.192907
0.207105
0.224452
0.245107
0.26912
0.296387
0.326614
0.359301
0.393752
0.429113
0.464442
0.498778
0.531227
0.561013
0.58754
0.610404
0.629406
0.644364
0.655356
0.662587
0.666363
0.667045
0.665043
0.660774
0.654666
0.647128
0.638553
0.629303
0.619709
0.610068
0.600638
0.591645
0.58328
0.575705
0.569056
0.563446
0.558977
0.555736
0.553808
0.553278
0.554243
0.556814
0.561125
0.567335
0.575627
0.586191
0.599199
0.614749
0.632814
0.653202
0.548592
0.493406
0.446106
0.40535
0.370057
0.339369
0.312604
0.289228
0.268823
0.251067
0.235717
0.222595
0.211579
0.202597
0.195624
0.190685
0.187849
0.187238
0.189028
0.193448
0.200785
0.211373
0.225579
0.243781
0.266331
0.293508
0.325463
0.362165
0.403348
0.448482
0.496763
0.547137
0.598361
0.649085
0.697945
0.743671
0.785162
0.821559
0.852272
0.877001
0.895712
0.908461
0.915525
0.917394
0.914633
0.907875
0.89776
0.884935
0.870013
0.853587
0.836193
0.818333
0.800446
0.782928
0.766118
0.750311
0.735749
0.722636
0.71113
0.701359
0.693416
0.687373
0.683282
0.681184
0.681118
0.683127
0.687264
0.693594
0.702194
0.713139
0.726479
0.742202
0.760184
0.78017
0.801797
0.548657
0.493653
0.446681
0.406385
0.371669
0.341672
0.315732
0.293348
0.274153
0.257886
0.244376
0.233532
0.225333
0.219833
0.217159
0.21752
0.221212
0.228618
0.240207
0.256513
0.278102
0.305512
0.339181
0.379365
0.426068
0.478992
0.537522
0.60074
0.667464
0.736299
0.805693
0.874007
0.939588
1.00087
1.05642
1.1051
1.14603
1.17868
1.20287
1.21875
1.22668
1.22712
1.22085
1.20875
1.19171
1.17066
1.14648
1.12002
1.09206
1.06331
1.03444
1.00601
0.97853
0.952447
0.928131
0.905893
0.88598
0.868584
0.85384
0.841835
0.832611
0.826178
0.822518
0.821599
0.82338
0.827825
0.834902
0.844578
0.856819
0.871562
0.888688
0.90798
0.929092
0.951553
0.97486
0.54882
0.494228
0.447924
0.408492
0.374804
0.346005
0.321481
0.300809
0.283722
0.270083
0.259867
0.253159
0.250163
0.251206
0.256753
0.267411
0.283923
0.307127
0.33788
0.376941
0.424825
0.481659
0.54709
0.620274
0.699949
0.784567
0.872433
0.961811
1.05098
1.13824
1.22192
1.30038
1.37207
1.43556
1.48966
1.5335
1.56654
1.58867
1.60014
1.60153
1.59351
1.57712
1.55351
1.52391
1.48953
1.45153
1.41101
1.369
1.32641
1.2841
1.24279
1.20314
1.16571
1.13099
1.09937
1.07116
1.04659
1.02582
1.00892
0.995897
0.986714
0.981279
0.979472
0.981156
0.986189
0.994427
1.00573
1.01994
1.03689
1.05634
1.07801
1.10146
1.12614
1.15139
1.17663
0.549195
0.495446
0.450375
0.412431
0.380442
0.353607
0.331427
0.313645
0.300196
0.291189
0.286908
0.287827
0.294635
0.308247
0.329804
0.360602
0.401957
0.454982
0.520305
0.597828
0.686596
0.784863
0.890324
1.00044
1.11275
1.22507
1.33554
1.4426
1.54489
1.64108
1.72985
1.80981
1.8796
1.938
1.98402
2.01702
2.03676
2.04348
2.03779
2.02065
1.99316
1.9568
1.91309
1.86356
1.8097
1.75292
1.69451
1.63566
1.57744
1.5208
1.46657
1.4155
1.36819
1.32516
1.2868
1.25341
1.22517
1.20217
1.18438
1.1717
1.16397
1.16096
1.16242
1.16808
1.17768
1.19095
1.2076
1.22735
1.24986
1.27473
1.30146
1.32943
1.3579
1.3861
1.41339
0.549994
0.497825
0.454848
0.419289
0.389977
0.366273
0.347938
0.335046
0.327943
0.32726
0.333945
0.34931
0.375036
0.413106
0.46558
0.534211
0.61993
0.722397
0.8398
0.969051
1.10629
1.2475
1.38906
1.52807
1.66241
1.79069
1.912
2.02568
2.1311
2.22744
2.31366
2.38853
2.45074
2.49909
2.53266
2.55093
2.55389
2.54204
2.51634
2.47806
2.4288
2.3704
2.30472
2.2336
2.1588
2.08195
2.00456
1.92801
1.8535
1.78213
1.71482
1.6524
1.59552
1.54472
1.50039
1.46278
1.432
1.408
1.39064
1.37967
1.37476
1.37553
1.38158
1.39248
1.40783
1.42721
1.45018
1.4763
1.50504
1.53584
1.56798
1.60069
1.63307
1.66427
1.69365
0.551572
0.502144
0.462491
0.430575
0.405384
0.386669
0.374721
0.370286
0.374571
0.389323
0.416894
0.460212
0.522523
0.606782
0.714753
0.846118
0.998051
1.16556
1.34247
1.52257
1.7005
1.87226
2.03522
2.18798
2.33007
2.46158
2.58283
2.69407
2.79521
2.88569
2.96452
3.03035
3.0817
3.11723
3.13595
3.13738
3.12164
3.08946
3.04211
2.98121
2.9088
2.82707
2.73822
2.64439
2.54762
2.44981
2.35269
2.25784
2.16664
2.08033
1.99995
1.92641
1.86042
1.80253
1.75308
1.71225
1.68003
1.65624
1.64056
1.63257
1.63175
1.63754
1.64937
1.66665
1.6888
1.71524
1.74536
1.77854
1.81407
1.85118
1.889
1.92658
1.96294
1.99716
2.02868
0.55449
0.509515
0.474874
0.448389
0.429558
0.418956
0.417945
0.428659
0.454136
0.498425
0.566438
0.663225
0.792544
0.95509
1.14733
1.36182
1.58889
1.81885
2.0436
2.25737
2.45671
2.64007
2.8073
2.95917
3.09694
3.22205
3.33573
3.43877
3.5313
3.61271
3.68174
3.73673
3.77585
3.79748
3.80047
3.7843
3.74918
3.69601
3.62633
3.5422
3.446
3.34029
3.22758
3.11037
2.99098
2.87162
2.75426
2.64073
2.5326
2.43129
2.33797
2.25364
2.17905
2.11474
2.061
2.01791
1.98529
1.96282
1.94996
1.94609
1.95049
1.96243
1.98111
2.00578
2.03568
2.07003
2.10805
2.14891
2.1917
2.23547
2.27918
2.32177
2.36218
2.39948
2.43319
0.559583
0.521462
0.494144
0.475753
0.466982
0.470068
0.48856
0.527523
0.593716
0.69517
0.839487
1.03078
1.2666
1.53718
1.82787
2.12319
2.41021
2.68005
2.92778
3.15154
3.35159
3.52944
3.68733
3.82778
3.9533
4.06617
4.16811
4.26007
4.34209
4.41325
4.47186
4.51574
4.54262
4.55052
4.53803
4.50457
4.45036
4.37645
4.28467
4.17744
4.05749
3.9277
3.79096
3.6501
3.5078
3.36659
3.22875
3.09635
2.97123
2.85499
2.74896
2.65422
2.57156
2.50151
2.44426
2.39977
2.3677
2.34751
2.33847
2.33975
2.3504
2.36948
2.39601
2.42902
2.46754
2.51062
2.55723
2.60635
2.65687
2.70765
2.7575
2.80526
2.84982
2.89029
2.9263
0.568046
0.540055
0.523319
0.517269
0.525073
0.552333
0.607175
0.700596
0.845582
1.05349
1.3279
1.65988
2.02915
2.41088
2.78314
3.13077
3.44567
3.7252
3.97017
4.18331
4.36821
4.52871
4.66861
4.79147
4.90048
4.99828
5.08673
5.16669
5.2379
5.29897
5.34765
5.38119
5.39677
5.39201
5.36521
5.31564
5.24351
5.14998
5.0371
4.90765
4.76465
4.61132
4.45092
4.28666
4.12158
3.95859
3.80032
3.64915
3.5072
3.37628
3.25789
3.15322
3.06307
2.98794
2.92794
2.88285
2.85217
2.83514
2.83083
2.83816
2.856
2.88316
2.91847
2.96073
3.00877
3.06136
3.11729
3.17528
3.23403
3.29221
3.3485
3.40165
3.45055
3.49433
3.53278
0.581544
0.568148
0.56688
0.580426
0.616956
0.689037
0.814135
1.0132
1.30365
1.68754
2.14433
2.63718
3.1276
3.58692
3.99935
4.35958
4.66893
4.93204
5.15484
5.34338
5.5033
5.6397
5.75709
5.85946
5.95022
6.03208
6.10681
6.17503
6.23605
6.28796
6.32789
6.35248
6.35836
6.34269
6.30346
6.23974
6.15167
6.04047
5.90834
5.75834
5.59375
5.41814
5.2351
5.04828
4.86111
4.67693
4.49873
4.32928
4.171
4.02595
3.89581
3.78187
3.68495
3.6055
3.54351
3.49863
3.47015
3.45712
3.45837
3.47264
3.49857
3.53475
3.57978
3.63223
3.69068
3.75365
3.81966
3.88721
3.95476
4.0208
4.0839
4.14272
4.19618
4.24347
4.28452
0.6024
0.609839
0.631903
0.678265
0.767348
0.926113
1.18836
1.58242
2.10857
2.72746
3.37659
3.99885
4.55868
5.04194
5.44872
5.78634
6.06468
6.29371
6.48243
6.63853
6.76848
6.87771
6.97086
7.05191
7.12421
7.19037
7.25193
7.30922
7.36109
7.40512
7.43781
7.45522
7.45343
7.42913
7.37996
7.30475
7.20349
7.0774
6.9287
6.76069
6.57685
6.38105
6.17726
5.9695
5.76168
5.55757
5.3606
5.17397
5.00039
4.84224
4.70137
4.57917
4.47647
4.39367
4.33065
4.28689
4.26151
4.25336
4.26108
4.28321
4.31817
4.36435
4.42011
4.48377
4.55361
4.6279
4.70487
4.78273
4.85973
4.93418
5.00451
5.06935
5.12762
5.17864
5.22246
0.633903
0.671346
0.73035
0.835057
1.02526
1.35491
1.87316
2.582
3.41343
4.26465
5.05167
5.73151
6.29488
6.75093
7.1158
7.40645
7.63802
7.82309
7.97174
8.09196
8.19013
8.27144
8.34025
8.40027
8.45466
8.50582
8.55506
8.60237
8.64622
8.68368
8.71072
8.72285
8.71564
8.68534
8.62919
8.54573
8.43476
8.29738
8.1357
7.95316
7.7534
7.54054
7.31885
7.0928
6.86673
6.64491
6.43124
6.22934
6.04231
5.87282
5.72289
5.59403
5.48707
5.40234
5.33959
5.29818
5.27704
5.27486
5.29012
5.32117
5.36625
5.42355
5.49117
5.56716
5.64952
5.73618
5.82508
5.91412
6.0013
6.08474
6.16277
6.23398
6.29734
6.35227
6.39903
0.680892
0.762711
0.883889
1.0988
1.49025
2.14654
3.08538
4.19938
5.32037
6.32173
7.15124
7.80921
8.3194
8.711
9.01073
9.24048
9.41726
9.55401
9.66048
9.74406