/*--------------------------------*- C++ -*----------------------------------*\
  =========                 |
  \\      /  F ield         | OpenFOAM: The Open Source CFD Toolbox
   \\    /   O peration     | Website:  https://openfoam.org
    \\  /    A nd           | Version:  7
     \\/     M anipulation  |
\*---------------------------------------------------------------------------*/
FoamFile
{
    version     2.0;
    format      ascii;
    class       volScalarField;
    location    "400";
    object      k;
}
// * * * * * * * * * * * * * * * * * * * * * * * * * * * * * * * * * * * * * //

dimensions      [0 2 -2 0 0 0 0];

internalField   nonuniform List<scalar> 
4500
(
2.10711
1.99003
1.89804
1.8345
1.78632
1.74875
1.71881
1.69443
1.67421
1.65718
1.64268
1.6302
1.61939
1.60996
1.6017
1.59444
1.58803
1.58238
1.57738
1.57296
1.56906
1.56563
1.5626
1.55992
1.55751
1.55527
1.55311
1.5509
1.54855
1.54596
1.54309
1.53994
1.53655
1.533
1.5294
1.52588
1.52258
1.51964
1.51719
1.51536
1.51427
1.514
1.51465
1.51627
1.51891
1.52256
1.5272
1.53277
1.53919
1.54637
1.55418
1.5625
1.5712
1.58018
1.5893
1.59846
1.60757
1.61654
1.62528
1.63373
1.6418
1.64945
1.6566
1.66323
1.66928
1.67473
1.67958
1.68382
1.68748
1.69059
1.69319
1.69533
1.69707
1.69845
1.69952
1.10354
1.6732
1.8379
1.85191
1.83283
1.80901
1.78664
1.7669
1.74973
1.73484
1.72188
1.71057
1.70066
1.69195
1.68428
1.6775
1.67151
1.66621
1.66152
1.65738
1.65373
1.65052
1.6477
1.64521
1.64297
1.64088
1.63885
1.63675
1.63449
1.632
1.62924
1.62622
1.62299
1.61963
1.61624
1.61293
1.60985
1.60709
1.60477
1.60302
1.60192
1.60154
1.60196
1.60329
1.60558
1.60885
1.61309
1.61827
1.62433
1.63118
1.63872
1.64683
1.65539
1.66427
1.67336
1.68256
1.69176
1.70087
1.70982
1.71853
1.72693
1.73496
1.74255
1.74965
1.75621
1.76219
1.76755
1.77229
1.77639
1.77986
1.78275
1.78507
1.78689
1.78825
1.7892
0.644943
1.23225
1.53537
1.63719
1.66542
1.66864
1.66318
1.65482
1.64581
1.63702
1.62881
1.62129
1.61447
1.60833
1.60283
1.5979
1.59351
1.5896
1.58614
1.58308
1.5804
1.57806
1.57604
1.57429
1.57278
1.57141
1.57011
1.56878
1.5673
1.56559
1.56359
1.56126
1.55861
1.55565
1.55246
1.54909
1.54566
1.54224
1.53896
1.5359
1.53319
1.53092
1.52923
1.52825
1.52807
1.52879
1.53045
1.53308
1.53667
1.54116
1.54649
1.55257
1.55929
1.56655
1.57422
1.58221
1.59042
1.59876
1.60716
1.61553
1.6238
1.63188
1.63972
1.64721
1.65427
1.66084
1.66684
1.67221
1.67692
1.68094
1.68429
1.68699
1.68909
1.69065
1.69174
0.463615
0.893401
1.25805
1.43575
1.5127
1.54555
1.55894
1.56332
1.56337
1.56132
1.55829
1.55487
1.55137
1.54798
1.54477
1.54181
1.5391
1.53665
1.53447
1.53254
1.53087
1.52944
1.52826
1.52731
1.52656
1.52597
1.52547
1.52496
1.52431
1.52341
1.52214
1.52042
1.51819
1.51543
1.51213
1.50836
1.50417
1.49966
1.49492
1.49009
1.48529
1.48067
1.47642
1.47272
1.46972
1.46757
1.46638
1.46623
1.46717
1.46918
1.47224
1.47627
1.48119
1.48688
1.49325
1.50019
1.50759
1.51538
1.52346
1.53174
1.54014
1.54856
1.55689
1.56502
1.57284
1.58023
1.58708
1.59329
1.59879
1.60354
1.60752
1.61075
1.61329
1.61521
1.61658
0.39407
0.646738
0.998479
1.23088
1.35547
1.4206
1.45545
1.47456
1.48513
1.49089
1.49385
1.49516
1.49547
1.49521
1.49462
1.49387
1.49306
1.49226
1.49151
1.49085
1.49031
1.4899
1.48966
1.48959
1.48971
1.48999
1.49036
1.49073
1.49096
1.49087
1.4903
1.48911
1.48717
1.4844
1.48077
1.47629
1.47103
1.46508
1.45854
1.45158
1.44435
1.43707
1.42997
1.42328
1.41723
1.41201
1.4078
1.40475
1.40294
1.4024
1.40314
1.40512
1.40824
1.41243
1.41756
1.42354
1.43027
1.43763
1.44554
1.45389
1.46257
1.47147
1.48045
1.48937
1.49807
1.50639
1.5142
1.52136
1.52775
1.53333
1.53805
1.54192
1.545
1.54738
1.54912
0.370615
0.488905
0.769299
1.02349
1.18836
1.28645
1.34497
1.38088
1.40366
1.41853
1.4285
1.43532
1.44007
1.44345
1.44589
1.4477
1.44908
1.45017
1.45107
1.45187
1.45261
1.45337
1.45419
1.45513
1.45622
1.45745
1.45878
1.4601
1.46122
1.46194
1.46204
1.46128
1.4595
1.45657
1.45241
1.44703
1.44047
1.43284
1.42428
1.41497
1.40512
1.39501
1.38492
1.37513
1.36593
1.35758
1.35032
1.34432
1.33974
1.33666
1.3351
1.33504
1.33642
1.33915
1.34312
1.34822
1.35435
1.36139
1.36922
1.37773
1.38678
1.39624
1.40593
1.41569
1.42531
1.43463
1.44344
1.45159
1.45895
1.46541
1.47094
1.47553
1.47924
1.48215
1.48433
0.364546
0.403111
0.587007
0.823641
1.01304
1.14094
1.22398
1.27842
1.31506
1.34046
1.35855
1.3718
1.38173
1.38935
1.39533
1.40011
1.40404
1.40732
1.41013
1.4126
1.41483
1.41693
1.41897
1.42105
1.42323
1.42552
1.42788
1.43019
1.43223
1.43376
1.43447
1.43409
1.43239
1.42918
1.42436
1.41793
1.40995
1.40052
1.38983
1.3781
1.36559
1.35263
1.33954
1.32668
1.31438
1.30295
1.29269
1.28383
1.27655
1.27099
1.26719
1.26517
1.26486
1.2662
1.26908
1.27338
1.27898
1.28575
1.29356
1.30227
1.31172
1.32175
1.33216
1.34276
1.35331
1.36361
1.37343
1.38259
1.39092
1.39832
1.40471
1.41008
1.41448
1.41798
1.42066
0.364603
0.363346
0.460994
0.64658
0.836783
0.985712
1.09154
1.16521
1.21704
1.25428
1.28169
1.30236
1.31829
1.33084
1.34093
1.34918
1.35605
1.36188
1.36691
1.37132
1.37528
1.37891
1.38236
1.38573
1.38913
1.39258
1.39605
1.3994
1.40239
1.40472
1.40604
1.40599
1.40431
1.40077
1.39525
1.38774
1.37829
1.36707
1.35427
1.34017
1.32507
1.30937
1.29343
1.27765
1.2624
1.24806
1.23496
1.22339
1.21356
1.20565
1.19973
1.19584
1.19395
1.19398
1.19583
1.19938
1.2045
1.21103
1.21884
1.22775
1.23759
1.24816
1.25926
1.27064
1.28208
1.29332
1.30412
1.31428
1.32359
1.33194
1.33922
1.34542
1.35056
1.3547
1.35793
0.366685
0.347483
0.386684
0.507132
0.671669
0.826391
0.949252
1.04089
1.10836
1.15845
1.19625
1.22534
1.24815
1.26638
1.28121
1.29348
1.30378
1.31256
1.32015
1.32682
1.33276
1.33817
1.34323
1.34807
1.35283
1.35756
1.36223
1.36668
1.37067
1.37382
1.37574
1.37604
1.37438
1.37052
1.36433
1.35578
1.34496
1.33205
1.31729
1.30099
1.28352
1.2653
1.24675
1.2283
1.21038
1.1934
1.17771
1.16366
1.15149
1.14141
1.13353
1.1279
1.12453
1.12333
1.12422
1.12706
1.13172
1.13803
1.14581
1.15489
1.16506
1.17612
1.18782
1.19992
1.21216
1.22427
1.236
1.24711
1.2574
1.2667
1.27491
1.28197
1.28789
1.29272
1.29655
0.369317
0.342581
0.348917
0.412157
0.531963
0.672822
0.801903
0.907129
0.989078
1.05222
1.10113
1.13948
1.17002
1.1947
1.21496
1.23184
1.24608
1.25827
1.26883
1.27809
1.28633
1.29379
1.30069
1.3072
1.31349
1.31964
1.32561
1.33125
1.33628
1.3403
1.34288
1.34357
1.34201
1.33793
1.33118
1.32175
1.30974
1.29535
1.27888
1.26067
1.24114
1.22074
1.19993
1.17918
1.15893
1.13963
1.12169
1.10544
1.09119
1.07917
1.06951
1.06231
1.05756
1.05523
1.05521
1.05738
1.06158
1.06763
1.07535
1.08453
1.09495
1.10639
1.11859
1.1313
1.14424
1.15714
1.16972
1.18174
1.19297
1.20322
1.21237
1.22032
1.22706
1.23263
1.23709
0.371958
0.342445
0.332102
0.356566
0.42837
0.537786
0.658014
0.768348
0.860997
0.935939
0.995905
1.044
1.08291
1.11474
1.1411
1.16319
1.18194
1.19803
1.21199
1.22424
1.23512
1.24493
1.25394
1.26235
1.27037
1.27809
1.2855
1.29243
1.2986
1.30358
1.3069
1.30809
1.30676
1.30262
1.29552
1.28544
1.27252
1.25699
1.23915
1.21942
1.19823
1.17608
1.15344
1.13081
1.10867
1.08746
1.06763
1.04954
1.03351
1.0198
1.00858
0.999962
0.993974
0.990584
0.989707
0.991212
0.994935
1.00069
1.00827
1.01746
1.02802
1.03972
1.0523
1.06548
1.079
1.09257
1.10592
1.11878
1.13091
1.14209
1.15217
1.16104
1.16865
1.17501
1.18016
0.374409
0.344309
0.325896
0.328085
0.362098
0.432748
0.529167
0.632415
0.728536
0.811707
0.881286
0.938793
0.986292
1.02573
1.05874
1.08663
1.11042
1.13091
1.14874
1.1644
1.1783
1.1908
1.20221
1.21279
1.22275
1.23224
1.24124
1.2496
1.25703
1.26309
1.2673
1.26916
1.26825
1.26429
1.25712
1.24674
1.23327
1.21699
1.19824
1.17744
1.15509
1.13168
1.10771
1.08369
1.06012
1.03746
1.01616
0.996602
0.979131
0.96402
0.951474
0.941623
0.934523
0.93016
0.928459
0.929295
0.932503
0.937887
0.945232
0.95431
0.96488
0.976693
0.98949
1.003
1.01696
1.03108
1.04509
1.0587
1.07167
1.08376
1.09477
1.10458
1.11309
1.12028
1.12618
0.376595
0.346935
0.32478
0.315189
0.325142
0.361913
0.426574
0.510145
0.599357
0.684171
0.759763
0.824969
0.880429
0.92743
0.967348
1.00143
1.03072
1.05609
1.07823
1.09773
1.11505
1.13059
1.14473
1.15776
1.16993
1.1814
1.19218
1.20215
1.211
1.21832
1.22359
1.22634
1.22613
1.22266
1.21577
1.20547
1.19191
1.17536
1.1562
1.13488
1.1119
1.08777
1.06301
1.03814
1.01365
0.990028
0.967706
0.94709
0.928534
0.912329
0.898704
0.887812
0.879734
0.874476
0.87198
0.872131
0.874765
0.879688
0.886679
0.895507
0.905927
0.91769
0.930541
0.944218
0.958456
0.972981
0.987515
1.00178
1.01551
1.02846
1.0404
1.05115
1.06059
1.06868
1.07539
0.378494
0.349749
0.326042
0.310425
0.306798
0.320311
0.355502
0.412199
0.483847
0.561114
0.636428
0.705553
0.766924
0.820518
0.867011
0.907312
0.942336
0.972911
0.999753
1.02347
1.04458
1.06354
1.08074
1.09653
1.11118
1.12488
1.13767
1.14944
1.15992
1.1687
1.17529
1.17919
1.17999
1.17736
1.17117
1.16142
1.14827
1.13199
1.11297
1.0917
1.06867
1.04441
1.01944
0.994276
0.96941
0.94532
0.922447
0.901198
0.881932
0.864956
0.850514
0.838783
0.829866
0.823794
0.820528
0.819967
0.82196
0.826317
0.832821
0.841243
0.851341
0.862873
0.875592
0.889249
0.903589
0.918352
0.933269
0.948065
0.962465
0.976203
0.989031
1.00074
1.01116
1.02019
1.02779
0.380104
0.352469
0.328352
0.309741
0.298825
0.298554
0.31258
0.343818
0.391993
0.452699
0.519406
0.586268
0.64949
0.707223
0.758929
0.804788
0.845312
0.881122
0.91284
0.941044
0.966257
0.988945
1.00953
1.02837
1.04579
1.06198
1.07702
1.09084
1.10319
1.11368
1.12185
1.12722
1.12937
1.12801
1.12297
1.11427
1.10206
1.08662
1.06835
1.04772
1.02526
1.00147
0.976869
0.951975
0.927275
0.903235
0.88029
0.858843
0.839255
0.82184
0.806856
0.794499
0.784895
0.778097
0.77409
0.772795
0.774076
0.777758
0.783636
0.791487
0.801084
0.812192
0.824582
0.838018
0.852266
0.867082
0.882211
0.897388
0.912337
0.926783
0.940454
0.953102
0.964521
0.974565
0.983135
0.381432
0.354953
0.331036
0.311052
0.296302
0.288389
0.289475
0.302115
0.328313
0.36807
0.418684
0.475701
0.534633
0.59211
0.646117
0.695722
0.740694
0.781191
0.817567
0.850249
0.879681
0.906295
0.930499
0.952663
0.973102
0.992044
1.00959
1.02571
1.04017
1.05265
1.0627
1.06988
1.07377
1.07409
1.07068
1.06355
1.05285
1.03884
1.02192
1.00256
0.981269
0.95855
0.934916
0.910865
0.886874
0.863397
0.84086
0.819654
0.800139
0.78263
0.767393
0.75464
0.744514
0.737096
0.732395
0.730355
0.730867
0.733775
0.738892
0.746014
0.754927
0.765417
0.777271
0.790279
0.804224
0.818888
0.834037
0.84942
0.864772
0.879811
0.894251
0.907813
0.920245
0.931351
0.940975
0.382496
0.357126
0.333732
0.313269
0.296566
0.284515
0.278275
0.279385
0.28963
0.310488
0.342261
0.383516
0.431393
0.482568
0.53415
0.584096
0.631195
0.674875
0.714983
0.75162
0.785022
0.815494
0.843371
0.86898
0.89262
0.914517
0.934794
0.953435
0.970274
0.985009
0.997248
1.00657
1.0126
1.01504
1.01374
1.00871
1.00007
0.988087
0.973122
0.955636
0.936116
0.915063
0.892971
0.87032
0.847573
0.825167
0.803511
0.782987
0.763945
0.746696
0.731512
0.718612
0.708159
0.700254
0.694932
0.692168
0.691879
0.693937
0.698181
0.704429
0.712491
0.722176
0.733293
0.745658
0.759084
0.773377
0.788331
0.803721
0.819296
0.834783
0.849888
0.864306
0.877746
0.889956
0.900717
0.383317
0.358954
0.336237
0.315805
0.298201
0.28395
0.27367
0.268176
0.268537
0.276002
0.291697
0.316126
0.348733
0.387879
0.431278
0.47661
0.521952
0.565946
0.60776
0.646971
0.683442
0.717217
0.748456
0.777373
0.804194
0.82911
0.852236
0.873572
0.892984
0.910216
0.924918
0.936709
0.945231
0.95021
0.95149
0.949055
0.94302
0.93362
0.921191
0.906163
0.889002
0.870187
0.850194
0.829484
0.808499
0.787656
0.76735
0.747945
0.729779
0.713158
0.69835
0.68558
0.675025
0.666804
0.660978
0.657552
0.656474
0.657648
0.660943
0.666207
0.673279
0.681992
0.692187
0.703706
0.716393
0.730088
0.744619
0.759791
0.775383
0.791138
0.806766
0.82195
0.836363
0.8497
0.861673
0.383926
0.360429
0.338437
0.318319
0.300425
0.285071
0.272597
0.26342
0.258096
0.257353
0.262057
0.273062
0.290942
0.315686
0.346543
0.382133
0.420773
0.460829
0.500945
0.540137
0.577768
0.613485
0.647144
0.678742
0.708351
0.736066
0.761948
0.78598
0.808043
0.82791
0.845272
0.85978
0.871102
0.878972
0.88323
0.883842
0.880896
0.874597
0.865242
0.853216
0.838958
0.822922
0.805555
0.787298
0.768569
0.749767
0.731264
0.71341
0.696528
0.680911
0.666823
0.65449
0.644096
0.635777
0.629617
0.625647
0.62385
0.624162
0.626488
0.630708
0.636694
0.64431
0.653427
0.663919
0.675664
0.688539
0.702411
0.717126
0.7325
0.748308
0.764281
0.780101
0.795417
0.809878
0.823123
0.384356
0.361567
0.340271
0.320613
0.302785
0.286971
0.273357
0.262155
0.253642
0.248183
0.246262
0.248465
0.255422
0.267671
0.285474
0.308658
0.336564
0.368157
0.402223
0.437582
0.473232
0.508409
0.54259
0.575453
0.606822
0.636607
0.664749
0.691162
0.715698
0.738134
0.75818
0.77551
0.789807
0.80081
0.808345
0.812355
0.812894
0.81013
0.804313
0.795772
0.784906
0.772136
0.75788
0.74255
0.726542
0.71023
0.693969
0.678087
0.662891
0.648664
0.635658
0.624098
0.61417
0.606021
0.599753
0.595424
0.593045
0.592589
0.593995
0.597179
0.602045
0.608494
0.616426
0.625751
0.636383
0.648238
0.661226
0.67524
0.690147
0.705766
0.721866
0.738149
0.754257
0.769803
0.784359
0.384645
0.3624
0.341721
0.322574
0.305012
0.28912
0.274988
0.262719
0.252442
0.244331
0.238618
0.235613
0.235703
0.239328
0.246928
0.258848
0.275219
0.295878
0.320344
0.347885
0.37764
0.408746
0.440438
0.472099
0.503265
0.533597
0.562838
0.590765
0.617144
0.641709
0.66415
0.684141
0.701359
0.715533
0.726468
0.734067
0.738345
0.739418
0.737487
0.732815
0.725746
0.716657
0.705932
0.69395
0.68108
0.667673
0.65406
0.640552
0.627438
0.614984
0.603434
0.593003
0.58388
0.576215
0.570125
0.565688
0.562942
0.56189
0.562505
0.56474
0.568532
0.573816
0.580526
0.588606
0.598006
0.608682
0.620591
0.633678
0.647868
0.663042
0.679023
0.695556
0.712302
0.728856
0.744731
0.384827
0.362976
0.342805
0.324148
0.306947
0.291198
0.276922
0.264155
0.252946
0.243368
0.235524
0.229553
0.225648
0.224051
0.225056
0.228985
0.236149
0.246788
0.261
0.278691
0.299557
0.323118
0.348779
0.375915
0.403929
0.432295
0.460556
0.488313
0.515193
0.540832
0.564856
0.586894
0.606591
0.623637
0.637794
0.648916
0.656955
0.661964
0.664083
0.663512
0.660511
0.655406
0.648535
0.640241
0.630859
0.620713
0.610109
0.599339
0.588671
0.578359
0.568632
0.559697
0.551737
0.544906
0.539327
0.535092
0.532262
0.530865
0.530905
0.532366
0.535219
0.539429
0.544965
0.551802
0.559926
0.569332
0.580022
0.591999
0.605249
0.619728
0.635332
0.651877
0.669068
0.686514
0.703686
0.384935
0.363349
0.343566
0.325333
0.308509
0.293015
0.278815
0.265893
0.254251
0.243905
0.234889
0.227257
0.221089
0.216497
0.213627
0.212662
0.213817
0.217326
0.223417
0.232275
0.244
0.258575
0.275846
0.295528
0.317235
0.340519
0.364901
0.389901
0.415043
0.439857
0.463881
0.486666
0.507786
0.526866
0.543598
0.557756
0.569213
0.577938
0.58399
0.587498
0.588627
0.587629
0.584785
0.580388
0.574733
0.568109
0.560796
0.553061
0.545153
0.537308
0.529741
0.522648
0.516206
0.510566
0.505855
0.502174
0.499597
0.498173
0.49793
0.498878
0.501016
0.50434
0.508847
0.514541
0.52144
0.529576
0.538994
0.54975
0.561897
0.575471
0.59046
0.606773
0.624198
0.642388
0.660803
0.384994
0.363574
0.344062
0.326166
0.309682
0.294477
0.280464
0.267588
0.255813
0.24512
0.235503
0.226971
0.219547
0.21327
0.208201
0.204423
0.202042
0.201191
0.202025
0.204711
0.209422
0.216309
0.22548
0.236977
0.250754
0.26667
0.284489
0.30389
0.324483
0.345823
0.367432
0.388817
0.409493
0.429009
0.446969
0.463052
0.477024
0.488749
0.498178
0.505344
0.510334
0.51328
0.514387
0.513884
0.512013
0.509019
0.505146
0.500629
0.495696
0.49056
0.48542
0.480461
0.475849
0.47173
0.468232
0.465458
0.463492
0.462395
0.462214
0.462978
0.464708
0.467424
0.471145
0.475901
0.481736
0.488714
0.496916
0.506446
0.517423
0.529964
0.54416
0.560035
0.577492
0.596271
0.615861
0.385025
0.363699
0.344363
0.326707
0.310498
0.295561
0.281772
0.269042
0.257306
0.246517
0.236644
0.227667
0.219578
0.21238
0.206088
0.20073
0.196348
0.193
0.190761
0.189722
0.189991
0.191691
0.19495
0.19989
0.206618
0.215206
0.22567
0.237957
0.251931
0.267365
0.283949
0.301302
0.318994
0.336577
0.353617
0.369717
0.384548
0.397856
0.409472
0.419309
0.427355
0.433627
0.438216
0.441263
0.442938
0.443426
0.442919
0.441614
0.439703
0.437372
0.4348
0.432155
0.429589
0.427243
0.425238
0.423679
0.422653
0.42223
0.422465
0.423403
0.425079
0.427528
0.430789
0.434908
0.439951
0.446001
0.453172
0.461607
0.471478
0.482983
0.496316
0.511633
0.52898
0.548225
0.568928
0.385039
0.363763
0.344529
0.327031
0.311019
0.296298
0.282719
0.270166
0.25855
0.247804
0.237875
0.228725
0.220326
0.21266
0.205716
0.199495
0.194005
0.189262
0.185294
0.182139
0.179848
0.178481
0.178112
0.178826
0.180716
0.183877
0.188398
0.194351
0.201773
0.210654
0.220917
0.232413
0.244919
0.258148
0.271766
0.285424
0.298777
0.311518
0.323386
0.334186
0.343788
0.352124
0.359145
0.364882
0.36941
0.37283
0.375266
0.376856
0.377744
0.378077
0.378004
0.377665
0.377197
0.376726
0.376366
0.376217
0.376366
0.376887
0.377841
0.379279
0.381248
0.383791
0.386957
0.390804
0.395408
0.40087
0.40732
0.41493
0.423916
0.434542
0.447099
0.461878
0.479085
0.498753
0.520549
0.385045
0.363793
0.344613
0.327207
0.311323
0.296756
0.283344
0.270952
0.259476
0.248832
0.238951
0.229781
0.221278
0.213411
0.206155
0.199492
0.193412
0.187912
0.182994
0.178668
0.17495
0.171864
0.169441
0.16772
0.16675
0.166586
0.167292
0.168931
0.171569
0.175257
0.180028
0.185885
0.192788
0.200646
0.209322
0.218629
0.228348
0.238244
0.24808
0.257636
0.266725
0.2752
0.282952
0.28989
0.295985
0.301242
0.305702
0.309424
0.31249
0.31499
0.317026
0.318704
0.320129
0.321406
0.322632
0.323898
0.325288
0.326872
0.328715
0.330872
0.333395
0.336331
0.339736
0.343673
0.348223
0.353491
0.359619
0.366792
0.375256
0.385322
0.397365
0.411795
0.428984
0.449142
0.47207
0.385047
0.363805
0.344651
0.327293
0.311482
0.297013
0.283715
0.271447
0.260093
0.249557
0.239761
0.230639
0.22214
0.21422
0.206844
0.199984
0.193619
0.187734
0.182318
0.177365
0.172874
0.168851
0.165302
0.162243
0.159692
0.157672
0.156214
0.155352
0.155122
0.155566
0.156718
0.158612
0.161266
0.164683
0.16884
0.173691
0.179159
0.185142
0.191515
0.198141
0.204879
0.211593
0.218161
0.224475
0.230437
0.235984
0.241079
0.24571
0.249887
0.253639
0.257008
0.260052
0.262833
0.265424
0.267895
0.27032
0.272769
0.275308
0.277999
0.280898
0.284059
0.287536
0.291385
0.295673
0.300479
0.305911
0.312108
0.319261
0.327627
0.337547
0.349452
0.363851
0.381256
0.402044
0.426159
0.385048
0.36381
0.344666
0.32733
0.311556
0.29714
0.28391
0.271721
0.260452
0.250001
0.240283
0.231225
0.222767
0.214859
0.207459
0.200533
0.194052
0.187994
0.18234
0.177077
0.172195
0.167688
0.163555
0.159795
0.156415
0.15342
0.150824
0.148639
0.146883
0.145576
0.144739
0.144392
0.144555
0.145244
0.146466
0.148222
0.150499
0.153273
0.156502
0.160136
0.164109
0.168349
0.172779
0.177325
0.181907
0.186453
0.1909
0.1952
0.19932
0.20324
0.206958
0.210483
0.213838
0.217054
0.220175
0.223248
0.226325
0.229462
0.232713
0.236135
0.239782
0.243713
0.247986
0.25267
0.257845
0.263613
0.27011
0.277521
0.286102
0.296203
0.308287
0.322923
0.340727
0.362207
0.387422
0.385048
0.363811
0.344671
0.327343
0.311584
0.297191
0.283992
0.271841
0.260616
0.250212
0.24054
0.231524
0.2231
0.215215
0.207823
0.200885
0.19437
0.18825
0.182505
0.177117
0.172072
0.16736
0.162974
0.158909
0.155164
0.151741
0.148643
0.145875
0.143447
0.141369
0.139653
0.13831
0.137355
0.1368
0.136654
0.136926
0.137616
0.138723
0.140234
0.142133
0.144393
0.14698
0.149855
0.152971
0.156281
0.159733
0.163273
0.166852
0.17043
0.17397
0.17745
0.180857
0.184188
0.187455
0.190677
0.193884
0.197115
0.200416
0.203835
0.207429
0.211252
0.215366
0.219832
0.224723
0.230118
0.236117
0.242852
0.2505
0.259311
0.269632
0.281935
0.296816
0.314944
0.336902
0.362824
0.385048
0.363811
0.344671
0.327343
0.311584
0.297191
0.283992
0.271841
0.260616
0.250212
0.24054
0.231524
0.2231
0.215215
0.207823
0.200885
0.19437
0.18825
0.182505
0.177117
0.172072
0.16736
0.162974
0.158909
0.155164
0.151741
0.148643
0.145876
0.143448
0.141371
0.139655
0.138314
0.137361
0.136808
0.136665
0.13694
0.137634
0.138745
0.14026
0.142162
0.144424
0.147012
0.149884
0.152995
0.156298
0.159736
0.163257
0.166812
0.170357
0.173858
0.177291
0.180644
0.183914
0.187112
0.190259
0.193386
0.196533
0.199746
0.203076
0.206581
0.210318
0.214348
0.218736
0.223555
0.228885
0.234828
0.241514
0.249122
0.257899
0.268194
0.280475
0.295343
0.313463
0.335422
0.361357
0.385048
0.36381
0.344666
0.32733
0.311556
0.29714
0.28391
0.271721
0.260452
0.250001
0.240283
0.231225
0.222767
0.214859
0.207459
0.200533
0.194052
0.187994
0.18234
0.177077
0.172195
0.167688
0.163554
0.159795
0.156414
0.153419
0.150823
0.148639
0.146884
0.145579
0.144744
0.144402
0.144572
0.145268
0.146501
0.148269
0.150559
0.153346
0.156589
0.160234
0.164213
0.168453
0.172875
0.177403
0.181953
0.18645
0.190831
0.195047
0.199061
0.202857
0.206429
0.209788
0.212958
0.215974
0.218878
0.221723
0.224564
0.227459
0.230469
0.233654
0.237074
0.240788
0.244862
0.249364
0.254378
0.260005
0.266381
0.27369
0.282186
0.292215
0.304241
0.318833
0.336609
0.358085
0.383328
0.385047
0.363805
0.344651
0.327293
0.311482
0.297013
0.283715
0.271447
0.260093
0.249557
0.239761
0.23064
0.222141
0.21422
0.206844
0.199984
0.193619
0.187734
0.182317
0.177364
0.172873
0.168849
0.1653
0.16224
0.159688
0.157668
0.15621
0.155349
0.155121
0.155569
0.156728
0.158632
0.161301
0.164736
0.168917
0.173796
0.179294
0.185307
0.191707
0.198354
0.205102
0.211813
0.218361
0.22463
0.230523
0.235973
0.240942
0.245417
0.249407
0.252941
0.256065
0.258835
0.26132
0.263593
0.265732
0.267813
0.269914
0.272106
0.274457
0.27703
0.279883
0.283076
0.286667
0.290723
0.295327
0.300581
0.306625
0.313645
0.321893
0.331708
0.343521
0.35784
0.375186
0.395947
0.420081
0.385045
0.363793
0.344613
0.327207
0.311323
0.296757
0.283344
0.270953
0.259477
0.248833
0.238952
0.229782
0.221279
0.213412
0.206155
0.199492
0.193412
0.187911
0.182993
0.178666
0.174947
0.171859
0.169434
0.167712
0.16674
0.166575
0.16728
0.168921
0.171563
0.175259
0.180046
0.185925
0.192857
0.200755
0.209478
0.218839
0.228613
0.238562
0.248441
0.258027
0.267125
0.275584
0.28329
0.290147
0.296124
0.301226
0.30549
0.30898
0.311774
0.313969
0.315668
0.31698
0.318016
0.318886
0.319694
0.32054
0.321512
0.322691
0.324147
0.325942
0.328131
0.330766
0.333903
0.337604
0.341946
0.347032
0.352997
0.360023
0.368349
0.378282
0.390198
0.404511
0.421603
0.4417
0.464625
0.385039
0.363763
0.344529
0.327031
0.311019
0.296299
0.28272
0.270167
0.258551
0.247805
0.237876
0.228726
0.220327
0.21266
0.205716
0.199494
0.194003
0.189258
0.185289
0.182132
0.179838
0.178468
0.178096
0.178807
0.180693
0.183851
0.188372
0.194328
0.201759
0.210658
0.22095
0.23249
0.245054
0.258354
0.272054
0.285799
0.299237
0.312052
0.323976
0.334807
0.344407
0.352705
0.359643
0.365254
0.369608
0.37281
0.374981
0.376264
0.376804
0.376754
0.376265
0.375486
0.374559
0.373618
0.372785
0.37217
0.371868
0.371961
0.372516
0.37359
0.375231
0.377483
0.380394
0.384018
0.388425
0.393709
0.399995
0.407448
0.41628
0.426748
0.43915
0.45378
0.47086
0.490442
0.512218
0.385025
0.363699
0.344363
0.326708
0.310499
0.295562
0.281774
0.269044
0.257308
0.246519
0.236645
0.227668
0.219578
0.212379
0.206086
0.200726
0.196342
0.192991
0.190748
0.189704
0.189969
0.191663
0.194914
0.199847
0.206569
0.215153
0.225617
0.237912
0.251906
0.267376
0.284016
0.301446
0.319234
0.33693
0.354091
0.370313
0.385256
0.398655
0.410333
0.420194
0.428219
0.434422
0.438887
0.441757
0.443202
0.443409
0.442573
0.440894
0.438568
0.435789
0.43274
0.429598
0.426524
0.423667
0.421158
0.419112
0.417623
0.416771
0.416614
0.417199
0.418564
0.420741
0.423763
0.427672
0.432525
0.438399
0.445401
0.453667
0.463367
0.474695
0.487853
0.503003
0.52021
0.539365
0.560048
0.384994
0.363574
0.344063
0.326167
0.309684
0.294479
0.280466
0.267591
0.255816
0.245122
0.235505
0.226971
0.219545
0.213266
0.208194
0.204412
0.202027
0.20117
0.201996
0.204673
0.209374
0.21625
0.225409
0.236894
0.250662
0.266575
0.2844
0.303822
0.324455
0.345859
0.36756
0.389063
0.40988
0.429553
0.447674
0.463911
0.478018
0.489845
0.499334
0.506511
0.511457
0.514298
0.515238
0.51451
0.512354
0.509024
0.504764
0.499817
0.494415
0.488779
0.483117
0.477623
0.47247
0.467818
0.4638
0.460532
0.458104
0.456585
0.456022
0.456448
0.457881
0.460335
0.463826
0.468376
0.474021
0.480816
0.488839
0.498187
0.508977
0.521328
0.53534
0.551048
0.568373
0.587075
0.606664
0.384935
0.36335
0.343567
0.325335
0.308511
0.293018
0.278818
0.265896
0.254254
0.243907
0.234889
0.227254
0.221083
0.216486
0.21361
0.212637
0.213783
0.21728
0.223358
0.2322
0.243908
0.258466
0.275721
0.29539
0.317091
0.340379
0.36478
0.389821
0.415031
0.439945
0.464102
0.487049
0.508356
0.527636
0.544565
0.558906
0.570514
0.579347
0.585452
0.588955
0.590013
0.588876
0.585825
0.581157
0.575171
0.568164
0.560418
0.552208
0.543791
0.53541
0.52729
0.519637
0.512636
0.506449
0.501212
0.497035
0.493999
0.492158
0.491541
0.492158
0.494004
0.49707
0.501345
0.506827
0.513526
0.521467
0.530692
0.541252
0.553203
0.566584
0.581395
0.597556
0.614872
0.633014
0.651459
0.384827
0.362977
0.342807
0.324151
0.30695
0.291202
0.276926
0.264158
0.252948
0.243368
0.235519
0.229544
0.225631
0.224025
0.225019
0.228933
0.23608
0.246699
0.26089
0.278558
0.299404
0.322945
0.348592
0.375721
0.403738
0.432121
0.46042
0.488243
0.515222
0.540998
0.565197
0.587443
0.607369
0.624654
0.639041
0.650368
0.65857
0.663688
0.665853
0.665259
0.662161
0.656886
0.649774
0.641173
0.631424
0.620857
0.609786
0.59851
0.587305
0.576434
0.566134
0.556624
0.548093
0.540708
0.534599
0.529867
0.526578
0.524764
0.52443
0.525558
0.528114
0.532059
0.537353
0.543965
0.551875
0.561072
0.571556
0.583329
0.596382
0.610676
0.62612
0.642539
0.659658
0.677094
0.694331
0.384645
0.362402
0.341724
0.322578
0.305017
0.289125
0.274992
0.262721
0.252441
0.244324
0.238605
0.23559
0.235666
0.239274
0.246854
0.258749
0.275094
0.295725
0.320165
0.347684
0.37742
0.408513
0.440199
0.471863
0.503043
0.533408
0.562707
0.590725
0.617236
0.641974
0.664631
0.68487
0.702358
0.716805
0.727996
0.735818
0.740268
0.74145
0.739556
0.734846
0.727658
0.718375
0.707382
0.695068
0.681805
0.667954
0.653851
0.639818
0.62615
0.613123
0.600989
0.589973
0.580272
0.572047
0.565422
0.560482
0.557271
0.555796
0.556029
0.557921
0.561405
0.56641
0.572864
0.580704
0.589875
0.60033
0.612025
0.624909
0.63891
0.653917
0.669765
0.68621
0.702925
0.719512
0.735488
0.384357
0.361569
0.340275
0.320619
0.302791
0.286976
0.273359
0.262154
0.253634
0.248166
0.246231
0.248416
0.255349
0.267569
0.28534
0.30849
0.336365
0.367931
0.401975
0.437319
0.472959
0.508133
0.542318
0.575193
0.606589
0.636422
0.664641
0.691169
0.715865
0.73851
0.758807
0.776423
0.791024
0.802327
0.810142
0.814388
0.815107
0.812451
0.806666
0.798075
0.787076
0.774096
0.759556
0.743878
0.727462
0.710694
0.693933
0.677517
0.66176
0.646954
0.633358
0.621207
0.610695
0.601978
0.595167
0.590326
0.587472
0.586581
0.587591
0.590417
0.59496
0.601113
0.608773
0.617844
0.628237
0.639864
0.652639
0.666458
0.681192
0.696673
0.712676
0.728912
0.745033
0.760653
0.77534
0.383927
0.360433
0.338442
0.318325
0.300431
0.285075
0.272596
0.263411
0.258075
0.257314
0.261993
0.272966
0.290808
0.315512
0.34633
0.381887
0.420501
0.460539
0.500645
0.539832
0.577464
0.613186
0.646858
0.678477
0.708123
0.735899
0.761874
0.786043
0.808292
0.828397
0.846043
0.860867
0.87252
0.880715
0.885269
0.886128
0.883368
0.87718
0.867854
0.855773
0.841376
0.825123
0.807468
0.788858
0.769719
0.750459
0.731456
0.713068
0.695624
0.679427
0.664747
0.65182
0.640836
0.631941
0.625228
0.620734
0.618448
0.61831
0.620224
0.624072
0.629717
0.637023
0.645854
0.656082
0.667582
0.680231
0.693897
0.708432
0.72366
0.739363
0.755278
0.771095
0.786466
0.801037
0.81444
0.383319
0.358958
0.336244
0.315811
0.298206
0.283951
0.273661
0.268152
0.26849
0.275923
0.291577
0.315958
0.348517
0.38762
0.430987
0.476297
0.521626
0.565616
0.607431
0.646647
0.683126
0.716914
0.748171
0.777116
0.803981
0.828968
0.852202
0.873692
0.893313
0.910807
0.925818
0.937949
0.946823
0.952144
0.953733
0.951556
0.945713
0.936428
0.924031
0.908948
0.891651
0.872624
0.852348
0.831291
0.809904
0.788611
0.767813
0.747881
0.72916
0.711963
0.696564
0.683198
0.672048
0.663244
0.656855
0.652893
0.651313
0.652022
0.654891
0.659767
0.666485
0.674877
0.684778
0.696028
0.708471
0.721946
0.736286
0.751302
0.766778
0.782464
0.798076
0.813299
0.827805
0.841282
0.853432
0.382499
0.357132
0.333739
0.313276
0.296568
0.284508
0.27825
0.279332
0.289537
0.310342
0.342057
0.383258
0.431091
0.482236
0.533801
0.583741
0.630842
0.674529
0.714647
0.751295
0.78471
0.815199
0.843097
0.868739
0.892428
0.914404
0.9348
0.95361
0.970673
0.985688
0.998254
1.00793
1.01432
1.01712
1.01615
1.01138
1.00294
0.991075
0.976149
0.958618
0.938974
0.917721
0.89536
0.872379
0.849247
0.826406
0.804274
0.783237
0.763651
0.745835
0.730065
0.71657
0.705521
0.697027
0.691134
0.687825
0.687024
0.688607
0.692414
0.698263
0.705963
0.71532
0.726141
0.738238
0.751426
0.765513
0.780297
0.795558
0.811051
0.826507
0.841635
0.856129
0.869694
0.882068
0.89302
0.381436
0.354959
0.331044
0.311056
0.296297
0.288366
0.28942
0.30201
0.328145
0.367832
0.418385
0.475358
0.534265
0.591732
0.64574
0.695354
0.740337
0.780848
0.817239
0.849936
0.879384
0.906016
0.930243
0.952441
0.972933
0.991959
1.00964
1.02593
1.04063
1.0534
1.06379
1.07133
1.07559
1.07627
1.07319
1.06633
1.05583
1.04196
1.02509
1.0057
0.984301
0.961403
0.937523
0.913166
0.888813
0.864926
0.841933
0.820234
0.800191
0.782127
0.766315
0.752972
0.742253
0.734247
0.728972
0.726385
0.72638
0.728808
0.733483
0.740202
0.74875
0.758911
0.770472
0.783219
0.79694
0.811417
0.82642
0.841704
0.857007
0.872052
0.886551
0.900222
0.912805
0.924093
0.933916
0.380108
0.352477
0.328359
0.309741
0.298807
0.2985
0.312469
0.343631
0.391724
0.452364
0.519027
0.585869
0.649089
0.70683
0.75855
0.804426
0.844968
0.880795
0.91253
0.94075
0.965979
0.988686
1.00929
1.02817
1.04564
1.06192
1.07709
1.09109
1.10368
1.11447
1.12298