/*--------------------------------*- C++ -*----------------------------------*\
  =========                 |
  \\      /  F ield         | OpenFOAM: The Open Source CFD Toolbox
   \\    /   O peration     | Website:  https://openfoam.org
    \\  /    A nd           | Version:  7
     \\/     M anipulation  |
\*---------------------------------------------------------------------------*/
FoamFile
{
    version     2.0;
    format      ascii;
    class       volScalarField;
    location    "400";
    object      p;
}
// * * * * * * * * * * * * * * * * * * * * * * * * * * * * * * * * * * * * * //

dimensions      [0 2 -2 0 0 0 0];

internalField   nonuniform List<scalar> 
4500
(
51.0531
48.0414
46.8815
45.7473
44.6193
43.5344
42.4833
41.4564
40.4502
39.4619
38.4892
37.5302
36.5835
35.6478
34.7222
33.8057
32.8976
31.9972
31.1041
30.2177
29.3375
28.463
27.5935
26.7282
25.8661
25.006
24.1464
23.2865
22.4256
21.5642
20.7036
19.8466
18.9963
18.1579
17.3352
16.5335
15.7563
15.0089
14.2929
13.6113
12.9644
12.3549
11.7808
11.2425
10.738
10.2672
9.82727
9.41604
9.03044
8.66857
8.32634
8.00253
7.69256
7.39344
7.10176
6.81513
6.53017
6.24556
5.95855
5.66732
5.37067
5.06744
4.75697
4.43858
4.11187
3.77633
3.43182
3.07776
2.71395
2.3393
1.95287
1.55274
1.13638
0.701187
0.246296
50.6663
48.0131
46.8804
45.7478
44.6197
43.5347
42.4835
41.4566
40.4503
39.462
38.4893
37.5303
36.5836
35.6479
34.7222
33.8057
32.8976
31.9973
31.1042
30.2178
29.3375
28.463
27.5935
26.7282
25.8661
25.006
24.1465
23.2865
22.4256
21.5642
20.7036
19.8466
18.9964
18.1579
17.3353
16.5335
15.7563
15.009
14.293
13.6113
12.9644
12.3549
11.7808
11.2425
10.738
10.2672
9.82723
9.416
9.03039
8.66851
8.32628
8.00247
7.6925
7.39338
7.1017
6.81507
6.53011
6.24551
5.95849
5.66727
5.37062
5.0674
4.75693
4.43854
4.11184
3.7763
3.4318
3.07774
2.71393
2.33929
1.95286
1.55272
1.13637
0.701178
0.246292
50.5788
48.02
46.8825
45.7488
44.6204
43.5352
42.4839
41.4569
40.4506
39.4623
38.4895
37.5305
36.5837
35.648
34.7223
33.8058
32.8977
31.9974
31.1042
30.2178
29.3376
28.4631
27.5935
26.7283
25.8661
25.006
24.1465
23.2865
22.4256
21.5642
20.7037
19.8466
18.9964
18.158
17.3353
16.5335
15.7564
15.009
14.293
13.6113
12.9644
12.3548
11.7807
11.2425
10.7379
10.2672
9.82716
9.41592
9.03031
8.66843
8.32619
8.00237
7.6924
7.39329
7.10161
6.81497
6.53002
6.24542
5.95841
5.66719
5.37054
5.06733
4.75687
4.43848
4.11179
3.77626
3.43176
3.0777
2.7139
2.33926
1.95284
1.5527
1.13636
0.701165
0.246284
50.5785
48.0282
46.8843
45.75
44.6212
43.5358
42.4844
41.4572
40.4509
39.4625
38.4897
37.5307
36.5839
35.6481
34.7224
33.8059
32.8978
31.9974
31.1043
30.2179
29.3376
28.4631
27.5936
26.7283
25.8662
25.0061
24.1465
23.2866
22.4256
21.5643
20.7037
19.8467
18.9964
18.158
17.3353
16.5335
15.7564
15.009
14.293
13.6113
12.9644
12.3548
11.7807
11.2424
10.7379
10.2671
9.82707
9.41583
9.03021
8.66833
8.32609
8.00227
7.6923
7.39319
7.10151
6.81488
6.52993
6.24533
5.95833
5.66711
5.37047
5.06726
4.75681
4.43843
4.11174
3.77622
3.43172
3.07767
2.71388
2.33924
1.95282
1.55269
1.13634
0.701154
0.246277
50.5746
48.0314
46.8855
45.7511
44.622
43.5364
42.4849
41.4577
40.4512
39.4628
38.49
37.5309
36.5841
35.6483
34.7226
33.806
32.8979
31.9975
31.1044
30.218
29.3377
28.4632
27.5936
26.7284
25.8662
25.0061
24.1466
23.2866
22.4257
21.5643
20.7038
19.8467
18.9965
18.158
17.3354
16.5336
15.7564
15.009
14.293
13.6113
12.9644
12.3547
11.7806
11.2423
10.7378
10.267
9.82697
9.41572
9.0301
8.66822
8.32598
8.00216
7.69219
7.39308
7.10141
6.81478
6.52984
6.24525
5.95825
5.66704
5.37041
5.06721
4.75676
4.43839
4.1117
3.77618
3.4317
3.07765
2.71386
2.33922
1.9528
1.55268
1.13633
0.701145
0.246269
50.5644
48.0337
46.8865
45.7521
44.6229
43.5372
42.4855
41.4582
40.4516
39.4631
38.4902
37.5311
36.5843
35.6485
34.7227
33.8062
32.898
31.9977
31.1045
30.2181
29.3378
28.4633
27.5937
26.7284
25.8663
25.0062
24.1466
23.2867
22.4258
21.5644
20.7038
19.8468
18.9965
18.1581
17.3354
16.5336
15.7564
15.0089
14.2929
13.6112
12.9643
12.3547
11.7805
11.2422
10.7377
10.2669
9.82684
9.41559
9.02998
8.66809
8.32585
8.00205
7.69208
7.39298
7.10131
6.81469
6.52975
6.24517
5.95818
5.66698
5.37035
5.06716
4.75672
4.43835
4.11167
3.77616
3.43168
3.07763
2.71384
2.33921
1.95279
1.55267
1.13633
0.701139
0.246261
50.5547
48.0366
46.8874
45.7531
44.6238
43.5379
42.4861
41.4587
40.4521
39.4635
38.4906
37.5314
36.5845
35.6487
34.723
33.8064
32.8982
31.9978
31.1046
30.2182
29.3379
28.4633
27.5938
26.7285
25.8664
25.0062
24.1467
23.2868
22.4258
21.5645
20.7039
19.8468
18.9966
18.1581
17.3354
16.5336
15.7564
15.0089
14.2928
13.6112
12.9642
12.3545
11.7804
11.2421
10.7375
10.2667
9.8267
9.41545
9.02984
8.66796
8.32572
8.00192
7.69197
7.39287
7.10121
6.8146
6.52967
6.2451
5.95811
5.66692
5.3703
5.06712
4.75668
4.43832
4.11165
3.77614
3.43166
3.07762
2.71383
2.3392
1.95279
1.55266
1.13632
0.701136
0.24625
50.546
48.0398
46.8881
45.7539
44.6247
43.5387
42.4868
41.4593
40.4526
39.464
38.491
37.5318
36.5848
35.649
34.7232
33.8066
32.8984
31.998
31.1048
30.2183
29.338
28.4635
27.5939
26.7286
25.8665
25.0063
24.1468
23.2868
22.4259
21.5645
20.7039
19.8469
18.9966
18.1581
17.3354
16.5335
15.7563
15.0088
14.2928
13.6111
12.9641
12.3544
11.7803
11.2419
10.7374
10.2666
9.82654
9.4153
9.02969
8.66781
8.32559
8.00179
7.69185
7.39276
7.10111
6.81451
6.52959
6.24503
5.95805
5.66687
5.37026
5.06708
4.75666
4.4383
4.11163
3.77613
3.43165
3.07761
2.71382
2.33919
1.95278
1.55266
1.13632
0.701134
0.246238
50.5372
48.043
46.8888
45.7545
44.6254
43.5395
42.4875
41.4599
40.4532
39.4645
38.4914
37.5321
36.5852
35.6493
34.7235
33.8068
32.8986
31.9982
31.105
30.2185
29.3382
28.4636
27.594
26.7287
25.8666
25.0064
24.1469
23.2869
22.426
21.5646
20.704
19.8469
18.9966
18.1581
17.3354
16.5335
15.7562
15.0088
14.2927
13.6109
12.9639
12.3543
11.7801
11.2418
10.7372
10.2664
9.82637
9.41513
9.02953
8.66766
8.32545
8.00166
7.69173
7.39265
7.10101
6.81442
6.52951
6.24496
5.958
5.66683
5.37022
5.06705
4.75663
4.43829
4.11162
3.77612
3.43164
3.07761
2.71382
2.33919
1.95278
1.55266
1.13632
0.701135
0.246222
50.5276
48.0463
46.8893
45.7551
44.626
43.5401
42.4882
41.4606
40.4537
39.465
38.4919
37.5325
36.5855
35.6496
34.7238
33.8071
32.8988
31.9984
31.1052
30.2187
29.3383
28.4637
27.5942
26.7289
25.8667
25.0066
24.147
23.287
22.4261
21.5647
20.7041
19.8469
18.9967
18.1581
17.3353
16.5334
15.7562
15.0087
14.2925
13.6108
12.9638
12.3541
11.7799
11.2416
10.737
10.2662
9.82619
9.41496
9.02936
8.6675
8.3253
8.00153
7.6916
7.39254
7.10092
6.81434
6.52945
6.2449
5.95795
5.66679
5.37019
5.06703
4.75662
4.43828
4.11161
3.77612
3.43164
3.07761
2.71382
2.3392
1.95278
1.55266
1.13632
0.701138
0.246201
50.5173
48.0499
46.8896
45.7555
44.6265
43.5407
42.4888
41.4612
40.4543
39.4655
38.4924
37.533
36.586
35.65
34.7241
33.8074
32.8991
31.9986
31.1054
30.2189
29.3385
28.4639
27.5943
26.729
25.8668
25.0067
24.1471
23.2871
22.4262
21.5648
20.7041
19.847
18.9967
18.1581
17.3353
16.5334
15.7561
15.0085
14.2924
13.6106
12.9636
12.3539
11.7797
11.2414
10.7368
10.266
9.826
9.41477
9.02919
8.66734
8.32516
8.0014
7.69149
7.39244
7.10083
6.81426
6.52938
6.24485
5.95791
5.66676
5.37017
5.06702
4.75661
4.43827
4.11161
3.77612
3.43165
3.07762
2.71383
2.3392
1.95279
1.55267
1.13633
0.701143
0.246172
50.5064
48.0537
46.8899
45.7559
44.6269
43.5411
42.4893
41.4617
40.4549
39.4661
38.4929
37.5335
36.5864
35.6504
34.7245
33.8077
32.8994
31.9989
31.1056
30.2191
29.3387
28.4641
27.5945
26.7292
25.867
25.0068
24.1473
23.2873
22.4263
21.5649
20.7042
19.847
18.9967
18.1581
17.3353
16.5333
15.756
15.0084
14.2923
13.6105
12.9634
12.3537
11.7795
11.2412
10.7366
10.2658
9.82581
9.41459
9.02902
8.66718
8.32501
8.00126
7.69137
7.39234
7.10074
6.81419
6.52932
6.24481
5.95787
5.66673
5.37015
5.06701
4.75661
4.43827
4.11162
3.77612
3.43166
3.07762
2.71384
2.33921
1.9528
1.55267
1.13633
0.70115
0.246134
50.4947
48.0579
46.89
45.7561
44.6271
43.5414
42.4897
41.4622
40.4554
39.4666
38.4934
37.534
36.5868
35.6508
34.7249
33.8081
32.8998
31.9992
31.1059
30.2194
29.339
28.4644
27.5947
26.7294
25.8672
25.007
24.1474
23.2874
22.4264
21.565
20.7043
19.8471
18.9967
18.1581
17.3352
16.5333
15.7559
15.0083
14.2921
13.6103
12.9633
12.3535
11.7793
11.241
10.7364
10.2656
9.82562
9.41441
9.02885
8.66703
8.32487
8.00114
7.69126
7.39224
7.10066
6.81412
6.52927
6.24476
5.95784
5.66671
5.37014
5.067
4.75661
4.43828
4.11163
3.77613
3.43167
3.07764
2.71385
2.33922
1.95281
1.55268
1.13634
0.70116
0.246083
50.4823
48.0624
46.8902
45.7563
44.6273
43.5417
42.49
41.4625
40.4558
39.467
38.4939
37.5344
36.5873
35.6513
34.7253
33.8085
32.9001
31.9996
31.1063
30.2197
29.3393
28.4646
27.595
26.7296
25.8674
25.0072
24.1476
23.2876
22.4266
21.5651
20.7044
19.8472
18.9968
18.1581
17.3352
16.5332
15.7558
15.0082
14.292
13.6102
12.9631
12.3534
11.7792
11.2408
10.7362
10.2654
9.82544
9.41424
9.02868
8.66688
8.32473
8.00102
7.69115
7.39215
7.10058
6.81406
6.52922
6.24473
5.95782
5.6667
5.37013
5.067
4.75661
4.43829
4.11164
3.77615
3.43168
3.07765
2.71386
2.33923
1.95282
1.55269
1.13635
0.701171
0.246014
50.4691
48.0674
46.8903
45.7565
44.6274
43.5418
42.4902
41.4628
40.4561
39.4674
38.4943
37.5349
36.5878
35.6517
34.7257
33.8089
32.9005
32
31.1066
30.22
29.3396
28.4649
27.5953
26.7299
25.8677
25.0074
24.1478
23.2878
22.4267
21.5652
20.7045
19.8473
18.9968
18.1581
17.3352
16.5332
15.7557
15.0081
14.2919
13.61
12.9629
12.3532
11.779
11.2406
10.7361
10.2653
9.82527
9.41408
9.02854
8.66674
8.32461
8.00091
7.69105
7.39207
7.10052
6.81401
6.52918
6.2447
5.9578
5.66669
5.37013
5.06701
4.75662
4.4383
4.11165
3.77617
3.4317
3.07767
2.71388
2.33925
1.95284
1.55271
1.13637
0.701186
0.245922
50.4552
48.0728
46.8905
45.7567
44.6275
43.5418
42.4902
41.4629
40.4563
39.4677
38.4946
37.5353
36.5882
35.6521
34.7261
33.8093
32.9009
32.0004
31.107
30.2204
29.3399
28.4652
27.5956
26.7302
25.8679
25.0077
24.148
23.288
22.4269
21.5654
20.7046
19.8474
18.9969
18.1582
17.3352
16.5331
15.7557
15.008
14.2918
13.6099
12.9628
12.3531
11.7788
11.2405
10.7359
10.2651
9.82513
9.41394
9.02841
8.66662
8.32451
8.00081
7.69097
7.392
7.10046
6.81397
6.52916
6.24468
5.95779
5.66669
5.37014
5.06702
4.75664
4.43832
4.11168
3.77619
3.43173
3.0777
2.71391
2.33928
1.95286
1.55273
1.13639
0.701206
0.245801
50.4405
48.0787
46.8906
45.7569
44.6276
43.5419
42.4903
41.463
40.4564
39.4678
38.4948
37.5355
36.5885
35.6525
34.7265
33.8097
32.9013
32.0007
31.1074
30.2207
29.3403
28.4656
27.5959
26.7305
25.8682
25.008
24.1483
23.2882
22.4271
21.5656
20.7048
19.8475
18.997
18.1583
17.3353
16.5332
15.7557
15.008
14.2917
13.6099
12.9627
12.353
11.7787
11.2404
10.7358
10.265
9.82502
9.41383
9.02831
8.66653
8.32442
8.00074
7.69091
7.39195
7.10043
6.81394
6.52914
6.24468
5.95779
5.6667
5.37015
5.06704
4.75666
4.43835
4.1117
3.77622
3.43176
3.07773
2.71394
2.33931
1.95289
1.55276
1.13642
0.701233
0.24564
50.4249
48.085
46.8908
45.7572
44.6277
43.5419
42.4903
41.463
40.4564
39.4679
38.4949
37.5357
36.5887
35.6528
34.7268
33.8101
32.9017
32.0011
31.1078
30.2211
29.3407
28.4659
27.5962
26.7308
25.8685
25.0083
24.1486
23.2885
22.4274
21.5658
20.705
19.8477
18.9971
18.1584
17.3354
16.5332
15.7557
15.008
14.2917
13.6098
12.9627
12.3529
11.7787
11.2403
10.7357
10.2649
9.82494
9.41376
9.02824
8.66646
8.32437
8.00069
7.69088
7.39192
7.10041
6.81393
6.52914
6.24468
5.9578
5.66672
5.37017
5.06707
4.75669
4.43838
4.11174
3.77626
3.4318
3.07777
2.71398
2.33935
1.95293
1.5528
1.13645
0.70127
0.245432
50.4086
48.0918
46.8909
45.7576
44.6279
43.542
42.4903
41.4629
40.4564
39.4679
38.495
37.5358
36.5888
35.653
34.7271
33.8103
32.902
32.0015
31.1081
30.2215
29.341
28.4663
27.5966
26.7311
25.8689
25.0086
24.1489
23.2888
22.4276
21.566
20.7052
19.8478
18.9973
18.1585
17.3355
16.5333
15.7558
15.0081
14.2918
13.6099
12.9627
12.3529
11.7787
11.2403
10.7357
10.2649
9.82491
9.41373
9.02821
8.66644
8.32436
8.00068
7.69087
7.39192
7.10042
6.81395
6.52916
6.24471
5.95783
5.66675
5.37021
5.06711
4.75674
4.43843
4.11179
3.77631
3.43185
3.07782
2.71403
2.3394
1.95298
1.55286
1.13651
0.701322
0.245161
50.3916
48.0989
46.8911
45.758
44.6282
43.5421
42.4903
41.4629
40.4564
39.4678
38.4949
37.5358
36.5889
35.653
34.7272
33.8105
32.9022
32.0017
31.1084
30.2218
29.3414
28.4666
27.5969
26.7315
25.8692
25.0089
24.1492
23.289
22.4279
21.5663
20.7055
19.8481
18.9975
18.1587
17.3357
16.5335
15.756
15.0082
14.2919
13.6099
12.9628
12.353
11.7787
11.2403
10.7357
10.2649
9.82492
9.41374
9.02822
8.66645
8.32438
8.0007
7.69089
7.39195
7.10045
6.81398
6.52921
6.24476
5.95788
5.6668
5.37026
5.06717
4.75679
4.43849
4.11185
3.77638
3.43192
3.07789
2.7141
2.33947
1.95306
1.55293
1.13658
0.701394
0.244814
50.3739
48.1065
46.8912
45.7586
44.6285
43.5422
42.4904
41.463
40.4563
39.4678
38.4949
37.5357
36.5888
35.653
34.7272
33.8106
32.9023
32.0019
31.1086
30.222
29.3416
28.4669
27.5972
26.7318
25.8695
25.0092
24.1495
23.2893
22.4282
21.5666
20.7057
19.8483
18.9978
18.159
17.3359
16.5337
15.7562
15.0084
14.2921
13.6101
12.9629
12.3531
11.7788
11.2404
10.7358
10.265
9.82499
9.4138
9.02828
8.66651
8.32444
8.00076
7.69095
7.39202
7.10051
6.81405
6.52928
6.24483
5.95795
5.66688
5.37034
5.06724
4.75687
4.43857
4.11193
3.77646
3.43201
3.07798
2.7142
2.33957
1.95316
1.55303
1.13668
0.701493
0.244373
50.3557
48.1144
46.8912
45.7591
44.6288
43.5424
42.4905
41.463
40.4564
39.4678
38.4948
37.5356
36.5887
35.6529
34.7271
33.8105
32.9023
32.0019
31.1087
30.2222
29.3418
28.4671
27.5975
26.7321
25.8698
25.0095
24.1498
23.2896
22.4285
21.5669
20.706
19.8486
18.9981
18.1593
17.3362
16.534
15.7564
15.0086
14.2923
13.6103
12.9631
12.3533
11.779
11.2405
10.7359
10.2651
9.8251
9.41391
9.02838
8.66661
8.32453
8.00085
7.69104
7.39211
7.1006
6.81414
6.52937
6.24492
5.95804
5.66697
5.37043
5.06734
4.75697
4.43867
4.11204
3.77657
3.43212
3.0781
2.71432
2.3397
1.95329
1.55317
1.13682
0.701628
0.243823
50.3371
48.1225
46.8912
45.7597
44.6292
43.5426
42.4907
41.4631
40.4564
39.4678
38.4948
37.5356
36.5887
35.6528
34.727
33.8104
32.9023
32.0019
31.1087
30.2222
29.3418
28.4672
27.5976
26.7322
25.87
25.0097
24.15
23.2899
22.4288
21.5671
20.7063
19.849
18.9984
18.1596
17.3365
16.5343
15.7568
15.009
14.2926
13.6106
12.9634
12.3535
11.7792
11.2408
10.7361
10.2653
9.82527
9.41406
9.02853
8.66674
8.32466
8.00098
7.69116
7.39222
7.10072
6.81425
6.52948
6.24503
5.95815
5.66708
5.37054
5.06745
4.75708
4.43879
4.11216
3.77669
3.43225
3.07824
2.71447
2.33985
1.95346
1.55335
1.137
0.701808
0.243144
50.3186
48.1308
46.8911
45.7604
44.6296
43.5429
42.4909
41.4633
40.4565
39.4678
38.4948
37.5356
36.5886
35.6528
34.727
33.8104
32.9022
32.0018
31.1086
30.2221
29.3418
28.4672
27.5976
26.7323
25.8701
25.0098
24.1502
23.2901
22.429
21.5674
20.7066
19.8492
18.9987
18.1599
17.3369
16.5347
15.7571
15.0093
14.2929
13.6109
12.9637
12.3538
11.7795
11.241
10.7364
10.2655
9.82547
9.41425
9.0287
8.66691
8.32482
8.00112
7.6913
7.39236
7.10085
6.81438
6.52961
6.24516
5.95828
5.66721
5.37067
5.06759
4.75722
4.43892
4.1123
3.77684
3.43241
3.07841
2.71465
2.34005
1.95367
1.55357
1.13723
0.702042
0.242328
50.3003
48.1389
46.8909
45.761
44.6301
43.5432
42.4911
41.4634
40.4566
39.4679
38.4949
37.5356
36.5886
35.6528
34.7269
33.8103
32.9021
32.0017
31.1085
30.222
29.3417
28.4671
27.5976
26.7322
25.87
25.0098
24.1502
23.2901
22.4291
21.5675
20.7068
19.8495
18.999
18.1602
17.3372
16.5351
15.7575
15.0097
14.2933
13.6113
12.9641
12.3542
11.7798
11.2413
10.7367
10.2658
9.82571
9.41448
9.02891
8.66709
8.325
8.00129
7.69145
7.3925
7.10099
6.81451
6.52975
6.24529
5.95841
5.66735
5.37081
5.06773
4.75736
4.43908
4.11246
3.77701
3.43259
3.0786
2.71486
2.34028
1.95392
1.55385
1.13752
0.702336
0.241371
50.2829
48.1469
46.8907
45.7616
44.6305
43.5434
42.4913
41.4636
40.4568
39.468
38.4949
37.5357
36.5887
35.6528
34.7269
33.8103
32.902
32.0016
31.1084
30.2219
29.3416
28.467
27.5974
26.7321
25.8699
25.0097
24.1501
23.2901
22.429
21.5675
20.7069
19.8496
18.9992
18.1605
17.3375
16.5354
15.7579
15.0101
14.2937
13.6117
12.9645
12.3545
11.7801
11.2416
10.737
10.2661
9.82597
9.41471
9.02912
8.66729
8.32519
8.00146
7.69161
7.39265
7.10113
6.81465
6.52988
6.24542
5.95854
5.66749
5.37095
5.06788
4.75752
4.43924
4.11263
3.7772
3.43279
3.07882
2.7151
2.34055
1.95422
1.55417
1.13787
0.702694
0.240295
50.2668
48.1543
46.8904
45.7622
44.631
43.5437
42.4915
41.4638
40.4569
39.4682
38.495
37.5357
36.5887
35.6528
34.7269
33.8103
32.902
32.0016
31.1084
30.2218
29.3415
28.4669
27.5973
26.732
25.8698
25.0096
24.15
23.2899
22.4289
21.5675
20.7068
19.8496
18.9993
18.1606
17.3377
16.5356
15.7582
15.0104
14.294
13.612
12.9648
12.3549
11.7805
11.242
10.7373
10.2664
9.82622
9.41496
9.02934
8.66749
8.32538
8.00163
7.69176
7.39279
7.10126
6.81478
6.53001
6.24555
5.95866
5.66762
5.37108
5.06802
4.75766
4.4394
4.1128
3.77738
3.43299
3.07905
2.71536
2.34083
1.95454
1.55454
1.13827
0.703107
0.239147
50.253
48.1607
46.89
45.7627
44.6313
43.5439
42.4917
41.464
40.4571
39.4683
38.4951
37.5358
36.5888
35.6529
34.727
33.8103
32.902
32.0016
31.1083
30.2218
29.3415
28.4669
27.5973
26.7319
25.8697
25.0095
24.1498
23.2898
22.4288
21.5674
20.7067
19.8496
18.9993
18.1607
17.3378
16.5358
15.7583
15.0106
14.2943
13.6123
12.9651
12.3551
11.7807
11.2422
10.7375
10.2666
9.82645
9.41517
9.02954
8.66768
8.32555
8.00178
7.6919
7.39292
7.10138
6.81489
6.53012
6.24566
5.95877
5.66773
5.3712
5.06815
4.7578
4.43955
4.11297
3.77757
3.4332
3.07927
2.71562
2.34113
1.95488
1.55493
1.1387
0.703553
0.238028
50.2423
48.1658
46.8897
45.7631
44.6316
43.5441
42.4919
41.4641
40.4572
39.4684
38.4952
37.5359
36.5888
35.6529
34.727
33.8103
32.9021
32.0016
31.1083
30.2218
29.3415
28.4669
27.5972
26.7319
25.8696
25.0094
24.1498
23.2897
22.4287
21.5673
20.7067
19.8495
18.9992
18.1606
17.3378
16.5358
15.7584
15.0107
14.2944
13.6124
12.9652
12.3553
11.7809
11.2424
10.7377
10.2668
9.82662
9.41534
9.0297
8.66783
8.32568
8.00191
7.69201
7.39303
7.10148
6.81498
6.53021
6.24575
5.95886
5.66783
5.3713
5.06826
4.75793
4.43968
4.11312
3.77773
3.43338
3.07948
2.71585
2.3414
1.9552
1.55528
1.1391
0.703969
0.237084
50.2362
48.1687
46.8895
45.7633
44.6318
43.5442
42.492
41.4642
40.4572
39.4684
38.4953
37.5359
36.5889
35.6529
34.727
33.8103
32.9021
32.0016
31.1083
30.2218
29.3415
28.4669
27.5972
26.7319
25.8696
25.0094
24.1497
23.2897
22.4287
21.5672
20.7066
19.8495
18.9992
18.1606
17.3378
16.5358
15.7584
15.0107
14.2944
13.6125
12.9653
12.3554
11.781
11.2425
10.7378
10.2669
9.8267
9.41543
9.02978
8.66791
8.32576
8.00199
7.69208
7.3931
7.10153
6.81504
6.53027
6.24581
5.95892
5.6679
5.37137
5.06834
4.75801
4.43977
4.11322
3.77784
3.43351
3.07962
2.71602
2.34159
1.95542
1.55553
1.13937
0.704251
0.236504
50.2362
48.1687
46.8895
45.7633
44.6318
43.5442
42.492
41.4642
40.4572
39.4684
38.4953
37.5359
36.5889
35.6529
34.727
33.8103
32.9021
32.0016
31.1083
30.2218
29.3415
28.4669
27.5972
26.7319
25.8696
25.0094
24.1497
23.2897
22.4287
21.5672
20.7066
19.8495
18.9992
18.1606
17.3378
16.5358
15.7584
15.0107
14.2944
13.6125
12.9653
12.3554
11.781
11.2425
10.7378
10.2669
9.82668
9.41542
9.02976
8.6679
8.32574
8.00198
7.69206
7.39309
7.10153
6.81505
6.53027
6.24582
5.95893
5.66791
5.37137
5.06835
4.75802
4.43978
4.11323
3.77785
3.43352
3.07963
2.71603
2.3416
1.95543
1.55554
1.13939
0.704266
0.236473
50.2423
48.1658
46.8897
45.7631
44.6316
43.5441
42.4919
41.4641
40.4572
39.4684
38.4952
37.5359
36.5888
35.6529
34.727
33.8103
32.9021
32.0016
31.1083
30.2218
29.3415
28.4669
27.5972
26.7319
25.8697
25.0094
24.1498
23.2897
22.4287
21.5673
20.7067
19.8495
18.9992
18.1607
17.3378
16.5358
15.7584
15.0107
14.2944
13.6124
12.9652
12.3553
11.7809
11.2424
10.7376
10.2668
9.82656
9.41531
9.02964
8.6678
8.32564
8.00189
7.69198
7.39302
7.10146
6.81499
6.53021
6.24577
5.95887
5.66786
5.37132
5.06829
4.75795
4.43971
4.11314
3.77775
3.43341
3.0795
2.71589
2.34143
1.95524
1.55532
1.13914
0.70401
0.236995
50.2529
48.1607
46.89
45.7627
44.6313
43.5439
42.4917
41.464
40.4571
39.4683
38.4951
37.5358
36.5888
35.6529
34.727
33.8103
32.902
32.0016
31.1083
30.2218
29.3415
28.4669
27.5973
26.7319
25.8697
25.0095
24.1499
23.2898
22.4288
21.5674
20.7068
19.8496
18.9993
18.1607
17.3378
16.5358
15.7583
15.0106
14.2942
13.6122
12.965
12.3551
11.7807
11.2422
10.7374
10.2666
9.82635
9.41513
9.02945
8.66764
8.32548
8.00176
7.69185
7.39291
7.10135
6.8149
6.53012
6.24569
5.95879
5.66778
5.37122
5.06819
4.75784
4.43959
4.11301
3.7776
3.43324
3.07931
2.71567
2.34117
1.95494
1.55497
1.13876
0.703611
0.237895
50.2668
48.1543
46.8904
45.7622
44.631
43.5437
42.4915
41.4638
40.4569
39.4682
38.495
37.5357
36.5887
35.6528
34.7269
33.8103
32.902
32.0016
31.1083
30.2219
29.3415
28.4669
27.5973
26.732
25.8698
25.0096
24.15
23.29
22.429
21.5675
20.7069
19.8497
18.9993
18.1607
17.3377
16.5356
15.7581
15.0103
14.294
13.612
12.9647
12.3548
11.7803
11.2419
10.7371
10.2663
9.82609
9.41489
9.02923
8.66744
8.32529
8.0016
7.69169
7.39278
7.10123
6.81479
6.53001
6.24559
5.95869
5.66768
5.37111
5.06808
4.75772
4.43945
4.11286
3.77744
3.43306
3.07909
2.71542
2.34089
1.95462
1.5546
1.13835
0.703176
0.238982
50.2828
48.1469
46.8907
45.7616
44.6305
43.5434
42.4913
41.4636
40.4568
39.468
38.4949
37.5357
36.5887
35.6528
34.7269
33.8103
32.902
32.0016
31.1084
30.2219
29.3416
28.467
27.5975
26.7321
25.8699
25.0098
24.1501
23.2901
22.4291
21.5676
20.7069
19.8497
18.9992
18.1605
17.3375
16.5354
15.7578
15.01
14.2936
13.6116
12.9643
12.3544
11.78
11.2415
10.7368
10.266
9.82581
9.41465
9.02899
8.66723
8.32509
8.00143
7.69154
7.39265
7.1011
6.81468
6.52989
6.24549
5.95857
5.66757
5.37099
5.06796
4.75758
4.43931
4.1127
3.77726
3.43286
3.07888
2.71518
2.34061
1.95431
1.55424
1.13796
0.702769
0.240108
50.3003
48.139
46.891
45.761
44.6301
43.5432
42.4911
41.4634
40.4566
39.4679
38.4949
37.5356
36.5886
35.6528
34.7269
33.8103
32.9021
32.0017
31.1085
30.222
29.3417
28.4671
27.5976
26.7322
25.8701
25.0099
24.1502
23.2902
22.4291
21.5676
20.7069
19.8496
18.9991
18.1603
17.3372
16.535
15.7575
15.0096
14.2932
13.6112
12.9639
12.3541
11.7796
11.2412
10.7365
10.2657
9.82553
9.4144
9.02875
8.66703
8.32489
8.00127
7.69137
7.39251
7.10096
6.81455
6.52977
6.24537
5.95845
5.66745
5.37087
5.06783
4.75744
4.43916
4.11255
3.77709
3.43268
3.07867
2.71496
2.34036
1.95402
1.55392
1.13762
0.702414
0.241173
50.3185
48.1308
46.8911
45.7604
44.6296
43.5429
42.4909
41.4633
40.4565
39.4678
38.4948
37.5356
36.5886
35.6528
34.727
33.8104
32.9022
32.0018
31.1086
30.2221
29.3418
28.4672
27.5976
26.7323
25.8701
25.0099
24.1502
23.2901
22.429
21.5675
20.7067
19.8493
18.9988
18.16
17.3369
16.5347
15.7571
15.0093
14.2928
13.6108
12.9636
12.3537
11.7793
11.2409
10.7362
10.2655
9.82528
9.41418
9.02854
8.66685
8.32471
8.00111
7.69122
7.39237
7.10082
6.81443
6.52964
6.24525
5.95833
5.66733
5.37074
5.0677
4.7573
4.43902
4.1124
3.77693
3.43251
3.07848
2.71475
2.34013
1.95377
1.55365
1.13733
0.70212
0.242124
50.3371
48.1225
46.8912
45.7597
44.6292
43.5426
42.4907
41.4631
40.4564
39.4678
38.4948
37.5356
36.5887
35.6528
34.727
33.8104
32.9023
32.0019
31.1087
30.2222
29.3418
28.4672
27.5976
26.7323
25.87
25.0098
24.1501
23.29
22.4289
21.5673
20.7064
19.8491
18.9985
18.1596
17.3365
16.5343
15.7567
15.0089
14.2925
13.6105
12.9632
12.3534
11.779
11.2406
10.7359
10.2652
9.82506
9.41399
9.02836
8.66669
8.32455
8.00097
7.69108
7.39225
7.1007
6.81432
6.52952
6.24514
5.95821
5.66721
5.37062
5.06758
4.75718
4.43889
4.11226
3.77679
3.43236
3.07832
2.71458
2.33994
1.95357
1.55343
1.1371
0.701884
0.24294
50.3556
48.1144
46.8912
45.7591
44.6288
43.5424
42.4905
41.463
40.4564
39.4678
38.4948
37.5356
36.5887
35.6529
34.7271
33.8105
32.9023
32.0019
31.1087
30.2222
29.3418
28.4672
27.5975
26.7321
25.8698
25.0096
24.1499
23.2897
22.4286
21.567
20.7061
19.8487
18.9982
18.1593
17.3362
16.534
15.7564
15.0086
14.2922
13.6102
12.9629
12.3532
11.7788
11.2404
10.7357
10.2651
9.82489
9.41384
9.02821
8.66656
8.32442
8.00086
7.69097
7.39214
7.10059
6.81422
6.52941
6.24504
5.95811
5.66711
5.37051
5.06748
4.75707
4.43878
4.11215
3.77667
3.43223
3.07818
2.71443
2.33978
1.9534
1.55325
1.13692
0.701702
0.24362
50.3738
48.1065
46.8912
45.7586
44.6285
43.5422
42.4904
41.463
40.4563
39.4678
38.4949
37.5357
36.5888
35.653
34.7272
33.8106
32.9023
32.0019
31.1086
30.222
29.3416
28.4669
27.5973
26.7318
25.8696
25.0093
24.1496
23.2894
22.4283
21.5667
20.7058
19.8485
18.9979
18.159
17.3359
16.5337
15.7561
15.0083
14.2919
13.61
12.9627
12.353
11.7786
11.2403
10.7356
10.2649
9.82477
9.41374
9.02811
8.66647
8.32433
8.00078
7.69089
7.39207
7.10051
6.81414
6.52933
6.24496
5.95802
5.66703
5.37043
5.06739
4.75698
4.43869
4.11205
3.77657
3.43212
3.07807
2.71431
2.33966
1.95327
1.55311
1.13678
0.701563
0.244174
50.3915
48.099
46.8911
45.758
44.6282
43.5421
42.4903
41.4629
40.4564
39.4678
38.4949
37.5358
36.5889
35.653
34.7272
33.8105
32.9022
32.0017
31.1084
30.2218
29.3414
28.4667
27.5969
26.7315
25.8692
25.009
24.1493
23.2892
22.428
21.5664
20.7056
19.8482
18.9976
18.1588
17.3357
16.5335
15.7559
15.0081
14.2917
13.6098
12.9626
12.3529
11.7785
11.2402
10.7355
10.2649
9.82471
9.41369
9.02805
8.66643
8.32427
8.00074
7.69083
7.39202
7.10045
6.81409
6.52927
6.2449
5.95796
5.66697
5.37036
5.06732
4.75691
4.43861
4.11197
3.77649
3.43203
3.07798
2.71422
2.33956
1.95317
1.55301
1.13667
0.701461
0.244618
50.4085
48.0918
46.8909
45.7576
44.6279
43.542
42.4903
41.4629
40.4564
39.4679
38.495
37.5358
36.5888
35.653
34.7271
33.8103
32.902
32.0015
31.1081
30.2215
29.341
28.4663
27.5966
26.7312
25.8689
25.0086
24.149
23.2889
22.4277
21.5662
20.7053
19.848
18.9974
18.1586
17.3355
16.5333
15.7557
15.008
14.2916
13.6097
12.9625
12.3528
11.7784
11.2402
10.7355
10.2649
9.82469
9.41369
9.02804
8.66642
8.32426
8.00073
7.69081
7.392
7.10042
6.81406
6.52923
6.24487
5.95792
5.66692
5.37031
5.06727
4.75685
4.43856
4.11191
3.77642
3.43197
3.07791
2.71415
2.33949
1.95309
1.55293
1.1366
0.701386
0.244969
50.4249
48.085
46.8908
45.7572
44.6277
43.5419
42.4903
41.463
40.4564
39.4679
38.4949
37.5357
36.5887
35.6528
34.7268
33.8101
32.9017
32.0011
31.1078
30.2211
29.3407
28.466
27.5963
26.7308
25.8686
25.0083
24.1487
23.2886
22.4275
21.5659
20.7051
19.8478
18.9972
18.1584
17.3353
16.5332
15.7556
15.0079
14.2916
13.6097
12.9625
12.3528
11.7784
11.2402
10.7355
10.2649
9.82473
9.41373
9.02808
8.66646
8.32428
8.00075
7.69083
7.39201
7.10042
6.81405
6.52921
6.24485
5.95789
5.6669
5.37027
5.06724
4.75681
4.43851
4.11186
3.77638
3.43192
3.07786
2.71409
2.33943
1.95304
1.55287
1.13654
0.701331
0.245244
50.4404
48.0787
46.8906
45.7569
44.6276
43.5419
42.4903
41.463
40.4564
39.4678
38.4948
37.5355
36.5885
35.6525
34.7265
33.8097
32.9013
32.0007
31.1074
30.2207
29.3403
28.4656
27.5959
26.7305
25.8683
25.008
24.1484
23.2883
22.4273
21.5657
20.7049
19.8476
18.9971
18.1583
17.3353
16.5331
15.7556
15.0079
14.2916
13.6097
12.9625
12.3529
11.7785
11.2403
10.7356
10.265
9.82481
9.41381
9.02815
8.66653
8.32434
8.00081
7.69087
7.39205
7.10044
6.81407
6.52922
6.24485
5.95788
5.66688
5.37025
5.06721
4.75678
4.43848
4.11183
3.77634
3.43188
3.07782
2.71405
2.33939
1.953
1.55283
1.1365
0.701292
0.245456
50.4551
48.0728
46.8905
45.7567
44.6275
43.5418
42.4902
41.4629
40.4563
39.4677
38.4946
37.5353
36.5882
35.6521
34.7261
33.8093
32.9009
32.0004
31.107
30.2204
29.3399
28.4653
27.5956
26.7302
25.868
25.0078
24.1481
23.2881
22.427
21.5655
20.7048
19.8475
18.997
18.1582
17.3352
16.5331
15.7556
15.008
14.2916
13.6098
12.9626
12.353
11.7786
11.2404
10.7357
10.2651
9.82492
9.41393
9.02826
8.66663
8.32443
8.00089
7.69094
7.3921
7.10049
6.81411
6.52924
6.24486
5.95788
5.66688
5.37024
5.0672
4.75676
4.43845
4.1118
3.77631
3.43184
3.07779
2.71402
2.33936
1.95297
1.5528
1.13647
0.701263
0.24562
50.4691
48.0674
46.8903
45.7565
44.6274
43.5418
42.4902
41.4628
40.4561
39.4674
38.4943
37.5349
36.5878
35.6517
34.7257
33.8089
32.9005
32
31.1066
30.22
29.3396
28.4649
27.5953
26.7299
25.8677
25.0075
24.1479
23.2879
22.4269
21.5654
20.7046
19.8474
18.9969
18.1582
17.3352
16.5331
15.7556
15.008
14.2917
13.6099
12.9627
12.3531
11.7788
11.2405
10.7358
10.2653
9.82507
9.41407
9.02839
8.66676
8.32454
8.00099
7.69102
7.39218
7.10055
6.81415
6.52927
6.24489
5.95789
5.66688
5.37023
5.06719
4.75674
4.43844
4.11178
3.77628
3.43182
3.07776
2.714
2.33933
1.95294
1.55278
1.13645
0.701242
0.245743
50.4822
48.0624
46.8902
45.7563
44.6273
43.5417
42.49
41.4625
40.4558
39.467
38.4939
37.5344
36.5873
35.6513
34.7253
33.8085
32.9001
31.9996
31.1063
30.2197
29.3393
28.4646
27.595
26.7296
25.8675
25.0073
24.1477
23.2877
22.4267
21.5652
20.7045
19.8473
18.9968
18.1582
17.3352
16.5332
15.7557
15.0081
14.2918
13.6101
12.9629
12.3533
11.7789
11.2407
10.736
10.2654
9.82524
9.41424
9.02854
8.6669
8.32467
8.00111
7.69112
7.39226
7.10062
6.81421
6.52931
6.24492
5.95791
5.6669
5.37024
5.06718
4.75673
4.43842
4.11176
3.77627
3.4318
3.07774
2.71398
2.33932
1.95292
1.55276
1.13644
0.701225
0.245837
50.4946
48.0579
46.89
45.7561
44.6271
43.5414
42.4897
41.4622
40.4554
39.4666
38.4934
37.534
36.5868
35.6508
34.7249
33.8081
32.8998
31.9992
31.1059
30.2194
29.339
28.4644
27.5948
26.7294
25.8672
25.0071
24.1475
23.2875
22.4265
21.5651
20.7044
19.8472
18.9968
18.1581
17.3352
16.5332
15.7558
15.0082
14.292
13.6102
12.9631
12.3534
11.7791
11.2409
10.7362
10.2656
9.82542
9.41442
9.02871
8.66706
8.32481
8.00123
7.69123
7.39236
7.10069
6.81428
6.52936
6.24496
5.95794
5.66691
5.37024
5.06719
4.75673
4.43842
4.11175
3.77625
3.43178
3.07772
2.71396
2.3393
1.95291
1.55275
1.13642
0.701212
0.245907
50.5063
48.0537
46.8899
45.7559
44.6269
43.5411
42.4893
41.4617
40.4549
39.4661
38.4929
37.5335
36.5864
35.6504
34.7245
33.8077
32.8994
31.9989
31.1057
30.2191
29.3387
28.4641
27.5945
26.7292
25.8671
25.0069
24.1473
23.2874
22.4264
21.565
20.7043
19.8471
18.9967
18.1581
17.3352
16.5333
15.7559
15.0083
14.2921
13.6104
12.9632
12.3536
11.7793
11.2411
10.7364
10.2658
9.82562
9.4146
9.02888
8.66722
8.32495
8.00137
7.69135
7.39246
7.10078
6.81435
6.52941
6.245
5.95797
5.66694
5.37026
5.06719
4.75672
4.43841
4.11174
3.77624
3.43177
3.07771
2.71395
2.33929
1.9529
1.55274
1.13641
0.701202
0.24596
50.5173
48.0499
46.8896
45.7555
44.6265
43.5407
42.4888
41.4612
40.4543
39.4655
38.4924
37.533
36.586
35.65
34.7241
33.8074
32.8991
31.9986
31.1054
30.2189
29.3385
28.4639
27.5943
26.729
25.8669
25.0067