/*--------------------------------*- C++ -*----------------------------------*\
  =========                 |
  \\      /  F ield         | OpenFOAM: The Open Source CFD Toolbox
   \\    /   O peration     | Website:  https://openfoam.org
    \\  /    A nd           | Version:  7
     \\/     M anipulation  |
\*---------------------------------------------------------------------------*/
FoamFile
{
    version     2.0;
    format      ascii;
    class       surfaceScalarField;
    location    "400";
    object      phi;
}
// * * * * * * * * * * * * * * * * * * * * * * * * * * * * * * * * * * * * * //

dimensions      [0 3 -1 0 0 0 0];

internalField   nonuniform List<scalar> 
8865
(
0.00452285
0.00168694
0.00415016
0.000372689
0.0039903
0.000159866
0.00389729
9.30106e-05
0.00383339
6.38982e-05
0.00378555
4.78345e-05
0.00374796
3.75904e-05
0.00371746
3.04975e-05
0.00369216
2.53056e-05
0.00367081
2.13466e-05
0.00365258
1.82332e-05
0.00363685
1.57252e-05
0.00362319
1.36649e-05
0.00361124
1.19451e-05
0.00360075
1.0489e-05
0.00359151
9.2427e-06
0.00358334
8.16508e-06
0.00357612
7.22428e-06
0.00356973
6.39512e-06
0.00356407
5.65913e-06
0.00355907
4.9992e-06
0.00355465
4.41342e-06
0.00355075
3.8987e-06
0.00354729
3.46852e-06
0.00354415
3.13812e-06
0.00354121
2.93702e-06
0.00353833
2.87902e-06
0.00353536
2.97212e-06
0.00353215
3.17756e-06
0.00352862
3.51331e-06
0.0035247
3.90318e-06
0.00352039
4.29292e-06
0.00351577
4.57407e-06
0.00351094
4.79831e-06
0.00350605
4.85191e-06
0.00350129
4.75522e-06
0.00349684
4.36987e-06
0.00349289
3.9043e-06
0.00348963
3.21526e-06
0.00348724
2.40563e-06
0.00348585
1.29295e-06
0.00348561
1.90183e-07
0.00348662
-1.03287e-06
0.00348894
-2.28442e-06
0.0034926
-3.66559e-06
0.00349758
-5.02903e-06
0.00350384
-6.26416e-06
0.00351129
-7.41578e-06
0.00351982
-8.48219e-06
0.00352929
-9.38054e-06
0.00353954
-1.02778e-05
0.00355041
-1.09048e-05
0.00356172
-1.13266e-05
0.00357333
-1.15895e-05
0.00358509
-1.17259e-05
0.00359686
-1.17054e-05
0.00360851
-1.16502e-05
0.00361993
-1.14243e-05
0.00363102
-1.10585e-05
0.00364168
-1.06494e-05
0.00365184
-1.01141e-05
0.0036614
-9.54667e-06
0.00367032
-8.88338e-06
0.00367853
-8.17694e-06
0.003686
-7.43337e-06
0.0036927
-6.67334e-06
0.00369865
-5.91338e-06
0.00370385
-5.1701e-06
0.00370833
-4.46964e-06
0.00371216
-3.81325e-06
0.00371539
-3.22431e-06
0.00371809
-2.69002e-06
0.00372033
-2.22871e-06
0.00372215
-1.81093e-06
-9.00735e-07
0.00573448
0.00277626
0.00532416
0.000783016
0.00510631
0.00037771
0.00497607
0.000223254
0.00488795
0.000152017
0.00482307
0.000112709
0.00477273
8.79385e-05
0.00473224
7.09788e-05
0.00469887
5.86781e-05
0.00467085
4.9364e-05
0.00464701
4.20787e-05
0.0046265
3.62348e-05
0.00460871
3.14505e-05
0.00459319
2.74678e-05
0.00457958
2.41041e-05
0.00456759
2.12305e-05
0.004557
1.87495e-05
0.00454764
1.65866e-05
0.00453935
1.4683e-05
0.00453202
1.29949e-05
0.00452553
1.14874e-05
0.00451979
1.01494e-05
0.00451471
8.97928e-06
0.00451017
8.00539e-06
0.00450605
7.26695e-06
0.00450216
6.82134e-06
0.00449834
6.70156e-06
0.00449439
6.91982e-06
0.00449015
7.39928e-06
0.00448551
8.1417e-06
0.00448042
8.98717e-06
0.0044749
9.80984e-06
0.00446904
1.04025e-05
0.00446301
1.08103e-05
0.00445701
1.08322e-05
0.00445128
1.04877e-05
0.00444604
9.56066e-06
0.00444154
8.37536e-06
0.00443802
6.71698e-06
0.00443567
4.75974e-06
0.00443467
2.24003e-06
0.00443516
-3.30395e-07
0.00443725
-3.13588e-06
0.004441
-6.01283e-06
0.00444642
-9.08882e-06
0.00445347
-1.21089e-05
0.00446209
-1.48784e-05
0.00447214
-1.74453e-05
0.00448347
-1.97864e-05
0.0044959
-2.17612e-05
0.00450923
-2.36198e-05
0.00452324
-2.4941e-05
0.00453774
-2.58322e-05
0.00455253
-2.63682e-05
0.00456743
-2.66061e-05
0.00458226
-2.65077e-05
0.00459688
-2.62708e-05
0.00461115
-2.56919e-05
0.00462494
-2.48289e-05
0.00463814
-2.38384e-05
0.00465064
-2.25978e-05
0.00466237
-2.12635e-05
0.00467325
-1.97446e-05
0.00468323
-1.81339e-05
0.00469226
-1.64513e-05
0.00470035
-1.47417e-05
0.0047075
-1.30432e-05
0.00471374
-1.13936e-05
0.00471912
-9.84296e-06
0.00472371
-8.40148e-06
0.0047276
-7.10879e-06
0.00473087
-5.94581e-06
0.00473357
-4.92797e-06
0.00473578
-4.01853e-06
-1.91588e-06
0.00677261
0.00350217
0.00634446
0.00121116
0.00607519
0.000646986
0.00590745
0.000390987
0.00579398
0.000265489
0.00571123
0.000195463
0.00564762
0.00015155
0.00559688
0.000121718
0.00555531
0.000100245
0.00552058
8.40905e-05
0.00549114
7.15222e-05
0.00546589
6.14846e-05
0.00544404
5.32965e-05
0.00542501
4.65008e-05
0.00540834
4.07763e-05
0.00539367
3.58961e-05
0.00538073
3.16904e-05
0.00536929
2.80299e-05
0.00535916
2.48136e-05
0.00535019
2.19665e-05
0.00534224
1.94296e-05
0.00533521
1.71842e-05
0.00532896
1.52277e-05
0.00532336
1.36072e-05
0.00531824
1.23867e-05
0.0053134
1.16552e-05
0.00530864
1.14615e-05
0.00530375
1.18159e-05
0.00529854
1.26009e-05
0.0052929
1.37745e-05
0.00528679
1.50866e-05
0.00528027
1.63258e-05
0.00527347
1.71861e-05
0.00526658
1.76813e-05
0.00525987
1.75349e-05
0.00525359
1.676e-05
0.00524803
1.50907e-05
0.00524346
1.29338e-05
0.00524012
1.00367e-05
0.00523825
6.6377e-06
0.00523801
2.44038e-06
0.00523955
-1.8898e-06
0.00524297
-6.56e-06
0.00524831
-1.13376e-05
0.00525556
-1.63456e-05
0.00526467
-2.12359e-05
0.00527553
-2.57403e-05
0.00528799
-2.98918e-05
0.00530186
-3.36386e-05
0.00531693
-3.6792e-05
0.00533295
-3.96523e-05
0.00534968
-4.16938e-05
0.0053669
-4.30569e-05
0.00538438
-4.38389e-05
0.00540191
-4.41199e-05
0.00541929
-4.38636e-05
0.00543635
-4.33275e-05
0.00545292
-4.22696e-05
0.00546888
-4.07746e-05
0.0054841
-3.90473e-05
0.00549846
-3.69455e-05
0.00551188
-3.4677e-05
0.00552429
-3.2141e-05
0.00553564
-2.94666e-05
0.00554589
-2.66923e-05
0.00555505
-2.38895e-05
0.00556314
-2.11209e-05
0.0055702
-1.84456e-05
0.00557631
-1.59369e-05
0.00558152
-1.36146e-05
0.00558595
-1.15329e-05
0.00558967
-9.6632e-06
0.00559276
-8.01588e-06
0.00559529
-6.54215e-06
-3.1024e-06
0.00776838
0.00397374
0.00736522
0.00161432
0.00705881
0.000953392
0.00685371
0.000596094
0.00671229
0.00040691
0.00660913
0.000298622
0.00653023
0.000230446
0.00646767
0.000184282
0.00641668
0.000151226
0.00637428
0.000126492
0.00633846
0.000107342
0.00630783
9.21124e-05
0.0062814
7.97338e-05
0.00625841
6.94919e-05
0.00623829
6.0888e-05
0.00622062
5.35698e-05
0.00620504
4.72754e-05
0.00619126
4.18071e-05
0.00617906
3.70111e-05
0.00616825
3.27731e-05
0.00615868
2.90087e-05
0.00615018
2.56842e-05
0.0061426
2.27993e-05
0.00613579
2.04191e-05
0.00612954
1.86359e-05
0.00612363
1.75651e-05
0.00611782
1.72694e-05
0.00611189
1.77488e-05
0.00610565
1.8831e-05
0.006099
2.0419e-05
0.00609192
2.21575e-05
0.0060845
2.37404e-05
0.00607691
2.47589e-05
0.00606939
2.51896e-05
0.00606223
2.46856e-05
0.00605573
2.32571e-05
0.0060502
2.06001e-05
0.00604591
1.72033e-05
0.00604314
1.27901e-05
0.00604212
7.66815e-06
0.006043
1.52799e-06
0.00604591
-4.81951e-06
0.00605094
-1.15984e-05
0.00605812
-1.85021e-05
0.00606741
-2.56402e-05
0.00607873
-3.2574e-05
0.00609195
-3.89617e-05
0.00610689
-4.48187e-05
0.00612333
-5.00611e-05
0.00614103
-5.44549e-05
0.00615971
-5.83443e-05
0.00617911
-6.1108e-05
0.00619896
-6.29184e-05
0.00621903
-6.38956e-05
0.00623906
-6.41424e-05
0.00625885
-6.36299e-05
0.0062782
-6.2674e-05
0.00629693
-6.10032e-05
0.0063149
-5.87327e-05
0.00633198
-5.61165e-05
0.00634804
-5.29996e-05
0.00636302
-4.96429e-05
0.00637683
-4.59416e-05
0.00638944
-4.20623e-05
0.00640082
-3.80644e-05
0.00641099
-3.40466e-05
0.00641998
-3.00966e-05
0.00642784
-2.62945e-05
0.00643464
-2.27344e-05
0.00644048
-1.94456e-05
0.00644544
-1.64929e-05
0.00644962
-1.384e-05
0.00645309
-1.14845e-05
0.00645593
-9.37792e-06
-4.38788e-06
0.00876053
0.0042679
0.00841816
0.00195669
0.00809688
0.00127467
0.00785897
0.000834003
0.00768847
0.000577412
0.00756264
0.000424452
0.00746628
0.000326806
0.00739005
0.000260516
0.00732813
0.00021314
0.00727681
0.000177815
0.00723358
0.000150569
0.00719672
0.00012898
0.00716496
0.000111491
0.00713739
9.70631e-05
0.0071133
8.49752e-05
0.00709215
7.47172e-05
0.00707352
6.59125e-05
0.00705705
5.82777e-05
0.00704246
5.15944e-05
0.00702953
4.57013e-05
0.00701806
4.04797e-05
0.00700787
3.58823e-05
0.00699876
3.19062e-05
0.00699054
2.8636e-05
0.00698299
2.61891e-05
0.00697585
2.47064e-05
0.00696886
2.42556e-05
0.00696179
2.48158e-05
0.00695447
2.61515e-05
0.00694679
2.80899e-05
0.00693878
3.01642e-05
0.00693055
3.19652e-05
0.00692231
3.29824e-05
0.00691434
3.31496e-05
0.00690696
3.20587e-05
0.00690049
2.97219e-05
0.00689526
2.58132e-05
0.00689155
2.08976e-05
0.00688964
1.46919e-05
0.00688973
7.57735e-06
0.00689198
-7.464e-07
0.00689649
-9.34349e-06
0.00690333
-1.84453e-05
0.0069125
-2.76672e-05
0.00692396
-3.7097e-05
0.00693758
-4.62116e-05
0.00695322
-5.46013e-05
0.00697067
-6.22575e-05
0.00698968
-6.90632e-05
0.00701
-7.47412e-05
0.00703131
-7.96685e-05
0.00705334
-8.3144e-05
0.00707578
-8.53683e-05
0.00709838
-8.64818e-05
0.00712085
-8.66111e-05
0.00714298
-8.57394e-05
0.00716455
-8.42386e-05
0.00718537
-8.18211e-05
0.00720528
-7.86351e-05
0.00722415
-7.49839e-05
0.00724187
-7.07092e-05
0.00725836
-6.61237e-05
0.00727355
-6.11257e-05
0.00728742
-5.59183e-05
0.00729995
-5.05825e-05
0.00731116
-4.52443e-05
0.00732108
-4.00156e-05
0.00732979
-3.49946e-05
0.00733736
-3.02945e-05
0.00734387
-2.59527e-05
0.00734942
-2.2045e-05
0.00735411
-1.85246e-05
0.00735801
-1.53798e-05
0.00736119
-1.25568e-05
-5.86506e-06
0.00977742
0.00444046
0.00951399
0.00222012
0.00920569
0.00158298
0.00894539
0.0010943
0.00874723
0.000775575
0.0085973
0.000574374
0.00848145
0.000442656
0.00838959
0.000352373
0.00831504
0.000287697
0.00825334
0.000239514
0.00820147
0.000202436
0.00815732
0.000173134
0.00811934
0.000149463
0.00808642
0.000129986
0.00805769
0.000113707
0.00803248
9.99226e-05
0.00801028
8.81147e-05
0.00799066
7.78954e-05
0.00797329
6.89667e-05
0.00795788
6.11096e-05
0.0079442
5.41674e-05
0.00793201
4.80698e-05
0.0079211
4.28121e-05
0.00791124
3.84943e-05
0.00790217
3.52585e-05
0.00789362
3.32612e-05
0.00788531
3.25687e-05
0.00787699
3.31282e-05
0.00786851
3.4625e-05
0.00785979
3.68032e-05
0.00785088
3.90728e-05
0.00784192
4.09181e-05
0.00783316
4.17268e-05
0.00782491
4.13936e-05
0.0078175
3.94565e-05
0.00781129
3.59377e-05
0.00780658
3.04974e-05
0.00780368
2.37852e-05
0.00780284
1.55198e-05
0.00780425
6.16556e-06
0.00780804
-4.56524e-06
0.0078143
-1.5615e-05
0.00782307
-2.72198e-05
0.00783433
-3.89163e-05
0.007848
-5.07699e-05
0.00786395
-6.21765e-05
0.00788201
-7.26578e-05
0.00790194
-8.21843e-05
0.0079235
-9.06031e-05
0.00794638
-9.75953e-05
0.00797027
-0.000103569
0.00799486
-0.000107742
0.00801983
-0.000110342
0.00804488
-0.00011153
0.00806974
-0.000111459
0.00809415
-0.000110126
0.00811787
-0.000107963
0.00814072
-0.000104671
0.00816253
-0.000100438
0.00818317
-9.56199e-05
0.00820254
-9.00592e-05
0.00822054
-8.41242e-05
0.00823715
-7.77173e-05
0.00825232
-7.10785e-05
0.00826605
-6.43096e-05
0.00827838
-5.75619e-05
0.00828934
-5.09685e-05
0.008299
-4.46441e-05
0.00830743
-3.87183e-05
0.00831472
-3.32358e-05
0.00832096
-2.82814e-05
0.00832624
-2.38021e-05
0.00833063
-1.97721e-05
0.00833422
-1.61463e-05
-7.4855e-06
0.0108418
0.0045325
0.0106586
0.00240329
0.0103907
0.00185088
0.0101252
0.00135979
0.00990487
0.000995898
0.00973121
0.000748041
0.00959448
0.000579385
0.00948519
0.000461659
0.00939622
0.000376664
0.00932255
0.000313186
0.00926065
0.00026434
0.00920799
0.000225789
0.00916276
0.000194702
0.00912357
0.000169174
0.00908939
0.000147882
0.00905943
0.000129887
0.00903304
0.000114501
0.00900973
0.000101209
0.00898908
8.96165e-05
0.00897075
7.94365e-05
0.00895446
7.04626e-05
0.00893993
6.26002e-05
0.0089269
5.58347e-05
0.00891512
5.02793e-05
0.00890428
4.60923e-05
0.0088941
4.34424e-05
0.00888429
4.2381e-05
0.00887461
4.28116e-05
0.00886489
4.43325e-05
0.0088551
4.65878e-05
0.00884531
4.88624e-05
0.00883569
5.0532e-05
0.00882652
5.08867e-05
0.00881812
4.9784e-05
0.00881085
4.67184e-05
0.00880506
4.17294e-05
0.00880106
3.44773e-05
0.00879914
2.56953e-05
0.00879953
1.5117e-05
0.0088024
3.29764e-06
0.00880784
-1.0033e-05
0.00881592
-2.37115e-05
0.00882667
-3.79688e-05
0.00884003
-5.22657e-05
0.0088559
-6.66432e-05
0.00887413
-8.04232e-05
0.00889454
-9.30649e-05
0.00891688
-0.000104515
0.00894087
-0.000114585
0.00896622
-0.000122915
0.00899258
-0.000129935
0.00901961
-0.00013479
0.009047
-0.000137732
0.00907442
-0.000138942
0.00910156
-0.000138593
0.00912816
-0.000136706
0.00915397
-0.000133774
0.0091788
-0.000129495
0.00920247
-0.0001241
0.00922485
-0.000118002
0.00924586
-0.000111051
0.00926541
-0.000103668
0.00928346
-9.57644e-05
0.00930001
-8.76144e-05
0.00931505
-7.93381e-05
0.0093286
-7.11088e-05
0.00934072
-6.30786e-05
0.00935146
-5.53738e-05
0.00936088
-4.81387e-05
0.00936908
-4.14247e-05
0.00937612
-3.5328e-05
0.00938211
-2.97877e-05
0.00938711
-2.47714e-05
0.00939121
-2.02355e-05
-9.38096e-06
0.0119752
0.00457226
0.0118614
0.00251703
0.0116523
0.00206002
0.0114041
0.00160801
0.0111727
0.00122725
0.0109787
0.000942029
0.0108211
0.000736974
0.0106932
0.000589615
0.0105882
0.000481646
0.0105009
0.000400441
0.0104275
0.000337775
0.010365
0.000288285
0.0103113
0.000248397
0.0102648
0.00021568
0.0102243
0.000188429
0.0101887
0.000165433
0.0101574
0.000145801
0.0101298
0.000128867
0.0101052
0.000114124
0.0100835
0.000101201
0.0100641
8.98345e-05
0.0100468
7.9894e-05
0.0100313
7.13517e-05
0.0100173
6.43258e-05
0.0100044
5.89866e-05
0.0099923
5.55004e-05
0.00998079
5.38957e-05
0.00996958
5.40205e-05
0.00995853
5.53718e-05
0.00994762
5.74919e-05
0.00993695
5.95333e-05
0.00992671
6.07646e-05
0.0099172
6.0383e-05
0.00990876
5.82163e-05
0.00990175
5.3724e-05
0.0098965
4.6972e-05
0.00989333
3.76271e-05
0.0098925
2.65149e-05
0.00989421
1.33901e-05
0.00989861
-1.09161e-06
0.00990574
-1.71907e-05
0.00991565
-3.36418e-05
0.00992835
-5.06668e-05
0.00994375
-6.76556e-05
0.00996173
-8.46286e-05
0.00998213
-0.000100839
0.0100048
-0.000115685
0.0100293
-0.000129095
0.0100556
-0.000140841
0.0100832
-0.000150523
0.0101119
-0.000158593
0.0101412
-0.000164121
0.0101709
-0.000167376
0.0102005
-0.00016856
0.0102298
-0.000167872
0.0102584
-0.000165354
0.0102862
-0.000161565
0.0103129
-0.000156208
0.0103384
-0.00014956
0.0103625
-0.000142095
0.0103851
-0.000133674
0.0104063
-0.000124775
0.0104258
-0.000115316
0.0104438
-0.000105602
0.0104603
-9.57685e-05
0.0104752
-8.6007e-05
0.0104886
-7.64832e-05
0.0105005
-6.73328e-05
0.0105111
-5.87114e-05
0.0105204
-5.06768e-05
0.0105284
-4.33363e-05
0.0105352
-3.66273e-05
0.010541
-3.0506e-05
0.0105457
-2.49482e-05
-1.15132e-05
0.0131983
0.00457685
0.0131373
0.00257801
0.0129915
0.0022058
0.0127826
0.00181691
0.0125574
0.00145244
0.0123512
0.00114828
0.0121753
0.000912856
0.0120287
0.000736235
0.0119067
0.000603685
0.0118044
0.000502684
0.011718
0.000424208
0.0116442
0.000362024
0.0115808
0.00031184
0.0115258
0.00027067
0.0114778
0.000236397
0.0114358
0.000207499
0.0113987
0.000182855
0.011366
0.000161625
0.0113369
0.000143167
0.0113111
0.000127014
0.0112881
0.000112832
0.0112675
0.000100447
0.0112491
8.98087e-05
0.0112324
8.10325e-05
0.0112171
7.4288e-05
0.0112028
6.97325e-05
0.0111894
6.7357e-05
0.0111765
6.69426e-05
0.0111639
6.78808e-05
0.0111518
6.95994e-05
0.0111402
7.11222e-05
0.0111294
7.16132e-05
0.0111196
7.01842e-05
0.0111111
6.66384e-05
0.0111045
6.04108e-05
0.0110998
5.16013e-05
0.0110975
3.98939e-05
0.0110978
2.62055e-05
0.0111009
1.03249e-05
0.0111068
-6.99179e-06
0.0111156
-2.5996e-05
0.0111273
-4.53321e-05
0.0111418
-6.52085e-05
0.0111591
-8.49505e-05
0.011179
-0.000104559
0.0112014
-0.000123228
0.011226
-0.000140302
0.0112526
-0.000155689
0.0112809
-0.000169126
0.0113106
-0.000180171
0.0113413
-0.000189291
0.0113726
-0.000195484
0.0114043
-0.000199037
0.0114359
-0.000200166
0.0114671
-0.000199094
0.0114977
-0.000195892
0.0115273
-0.000191182
0.0115558
-0.000184683
0.0115829
-0.000176722
0.0116087
-0.000167837
0.0116329
-0.000157903
0.0116556
-0.000147453
0.0116767
-0.000136412
0.0116962
-0.000125113
0.0117142
-0.000113701
0.0117306
-0.000102382
0.0117454
-9.13295e-05
0.0117588
-8.06835e-05
0.0117707
-7.06089e-05
0.0117812
-6.11691e-05
0.0117903
-5.24854e-05
0.0117982
-4.44924e-05
0.0118048
-3.71439e-05
0.0118103
-3.04276e-05
-1.40544e-05
0.0145294
0.00455582
0.0145054
0.00260198
0.0144157
0.00229555
0.0142598
0.00197282
0.0140612
0.00165105
0.0138564
0.00135304
0.0136688
0.00110045
0.0135058
0.000899212
0.0133669
0.000742611
0.0132489
0.000620721
0.0131482
0.000524838
0.0130619
0.000448324
0.0129874
0.000386335
0.0129227
0.00033538
0.0128662
0.000292927
0.0128166
0.00025713
0.0127728
0.000226614
0.0127341
0.000200343
0.0126997
0.000177526
0.0126692
0.000157582
0.0126419
0.000140096
0.0126175
0.000124839
0.0125956
0.000111727
0.0125758
0.000100864
0.0125576
9.24083e-05
0.0125409
8.64927e-05
0.0125252
8.3061e-05
0.0125103
8.18182e-05
0.0124961
8.20385e-05
0.0124827
8.30398e-05
0.0124701
8.37143e-05
0.0124586
8.31277e-05
0.0124484
8.03132e-05
0.01244
7.50589e-05
0.0124336
6.67831e-05
0.0124296
5.56276e-05
0.0124282
4.12976e-05
0.0124296
2.48075e-05
0.0124339
5.98877e-06
0.0124412
-1.43047e-05
0.0124515
-3.63257e-05
0.0124648
-5.86245e-05
0.012481
-8.14018e-05
0.0124999
-0.000103925
0.0125216
-0.000126181
0.0125456
-0.000147312
0.0125719
-0.000166611
0.0126002
-0.000183975
0.0126302
-0.000199103
0.0126616
-0.000211515
0.012694
-0.000221688
0.012727
-0.000228548
0.0127604
-0.000232394
0.0127937
-0.000233457
0.0128266
-0.000231982
0.0128588
-0.000228069
0.01289
-0.00022241
0.0129201
-0.000214741
0.0129488
-0.000205444
0.0129761
-0.000195125
0.0130019
-0.000183671
0.0130261
-0.000171675
0.0130488
-0.000159064
0.0130699
-0.000146195
0.0130894
-0.000133219
0.0131074
-0.000120347
0.0131238
-0.000107758
0.0131387
-9.55893e-05
0.0131521
-8.40129e-05
0.0131641
-7.30961e-05
0.0131745
-6.29729e-05
0.0131836
-5.35818e-05
0.0131914
-4.48686e-05
0.0131978
-3.68535e-05
-1.6981e-05
0.0159844
0.00451431
0.0159863
0.00260011
0.0159396
0.0023422
0.015838
0.00207445
0.0156829
0.00180618
0.0154978
0.00153813
0.0153103
0.00128793
0.015137
0.00107255
0.0149835
0.000896031
0.0148502
0.000754093
0.0147348
0.000640181
0.014635
0.000548155
0.0145483
0.000473035
0.0144727
0.000411005
0.0144064
0.000359188
0.0143481
0.000315432
0.0142966
0.000278108
0.014251
0.000245973
0.0142104
0.000218076
0.0141743
0.000193707
0.0141421
0.000172357
0.0141132
0.000153735
0.0140872
0.000137711
0.0140637
0.000124363
0.0140423
0.000113828
0.0140225
0.000106201
0.0140042
0.000101367
0.0139871
9.89441e-05
0.0139711
9.80908e-05
0.0139561
9.80063e-05
0.0139423
9.74606e-05
0.01393
9.54269e-05
0.0139195
9.08696e-05
0.0139109
8.35668e-05
0.0139048
7.29301e-05
0.0139013
5.91485e-05
0.0139006
4.19559e-05
0.0139029
2.24594e-05
0.0139084
5.48691e-07
0.0139169
-2.2835e-05
0.0139285
-4.79505e-05
0.0139431
-7.32591e-05
0.0139607
-9.89562e-05
0.013981
-0.000124259
0.014004
-0.000149144
0.0140293
-0.000172712
0.014057
-0.000194213
0.0140865
-0.000213536
0.0141178
-0.000230342
0.0141504
-0.000244117
0.014184
-0.000255344
0.0142184
-0.00026288
0.014253
-0.000267031
0.0142876
-0.000268042
0.0143218
-0.000266174
0.0143553
-0.000261562
0.0143879
-0.000254963
0.0144193
-0.000246137
0.0144493
-0.000235526
0.014478
-0.000223801
0.0145052
-0.000210869
0.0145309
-0.000197374
0.0145551
-0.000183248
0.0145778
-0.000168866
0.014599
-0.000154377
0.0146186
-0.000139995
0.0146368
-0.000125894
0.0146534
-0.000112207
0.0146685
-9.91057e-05
0.0146821
-8.66589e-05
0.0146941
-7.50151e-05
0.0147046
-6.41134e-05
0.0147137
-5.39016e-05
0.0147213
-4.44232e-05
-2.05092e-05
0.0175785
0.00445507
0.0175995
0.00257919
0.0175837
0.00235791
0.0175281
0.00213005
0.0174232
0.00191109
0.0172751
0.00168623
0.0171043
0.00145878
0.0169315
0.00124532
0.0167696
0.00105797
0.0166236
0.000900063
0.0164944
0.000769372
0.0163809
0.000661677
0.0162813
0.000572636
0.0161938
0.0004985
0.0161167
0.00043624
0.0160487
0.000383487
0.0159884
0.000338392
0.0159348
0.000299523
0.0158872
0.000265761
0.0158446
0.000236267
0.0158065
0.000210432
0.0157724
0.000187886
0.0157416
0.000168446
0.0157138
0.000152153
0.0156886
0.000139107
0.0156654
0.000129354
0.0156441
0.000122707
0.0156243
0.000118695
0.0156061
0.00011635
0.0155893
0.000114766
0.0155742
0.000112589
0.0155609
0.000108712
0.0155497
0.000102036
0.0155409
9.23406e-05
0.0155348
7.90357e-05
0.0155316
6.23629e-05
0.0155314
4.20854e-05
0.0155345
1.9407e-05
0.0155407
-5.72216e-06
0.0155502
-3.22799e-05
0.0155627
-6.05386e-05
0.0155783
-8.88704e-05
0.0155968
-0.000117473
0.0156181
-0.000145523
0.015642
-0.000172991
0.0156682
-0.000198946
0.0156966
-0.000222602
0.0157269
-0.000243845
0.0157589
-0.000262303
0.0157922
-0.000277429
0.0158266
-0.000289714
0.0158616
-0.000297944
0.015897
-0.00030243
0.0159324
-0.000303428
0.0159675
-0.000301213
0.0160019
-0.000295953
0.0160354
-0.000288469
0.0160678
-0.00027855
0.016099
-0.000266695
0.0161288
-0.000253644
0.0161573
-0.000239321
0.0161843
-0.000224425
0.01621
-0.000208884
0.0162342
-0.00019309
0.016257
-0.000177186
0.0162784
-0.000161379
0.0162984
-0.000145834
0.0163168
-0.000130672
0.0163338
-0.000116057
0.0163492
-0.000102058
0.016363
-8.88318e-05
0.0163752
-7.63226e-05
0.0163858
-6.44718e-05
0.0163948
-5.33684e-05
-2.46219e-05
0.0193271
0.00437951
0.0193633
0.00254302
0.0193699
0.00235126
0.0193491
0.00215085
0.0192904
0.00196985
0.0191886
0.00178799
0.0190512
0.00159619
0.0188945
0.00140198
0.0187348
0.00121769
0.0185826
0.00105227
0.0184429
0.000909103
0.0183171
0.000787479
0.0182049
0.000684847
0.0181051
0.000598216
0.0180166
0.000524786
0.0179379
0.000462176
0.0178679
0.000408428
0.0178054
0.000361969
0.0177496
0.000321542
0.0176997
0.000286187
0.017655
0.000255192
0.0176147
0.00022811
0.0175785
0.000204692
0.0175457
0.000184933
0.0175159
0.000168881
0.0174888
0.000156524
0.0174639
0.000147594
0.017441
0.000141521
0.0174202
0.000137221
0.0174013
0.000133674
0.0173844
0.000129421
0.0173698
0.000123278
0.0173578
0.000114099
0.0173484
0.000101665
0.0173421
8.53938e-05
0.0173389
6.55814e-05
0.0173389
4.20237e-05
0.0173423
1.6016e-05
0.017349
-1.24295e-05
0.0173589
-4.2218e-05
0.017372
-7.36323e-05
0.0173881
-0.000104971
0.017407
-0.000136437
0.0174287
-0.000167172
0.0174528
-0.000197149
0.0174793
-0.000225415
0.0175079
-0.000251157
0.0175383
-0.000274264
0.0175703
-0.000294334
0.0176037
-0.000310795
0.0176381
-0.000324137
0.0176733
-0.00033309
0.0177088
-0.000337964
0.0177444
-0.000339018
0.0177797
-0.000336542
0.0178145
-0.00033073
0.0178485
-0.000322468
0.0178815
-0.000311572
0.0179135
-0.000298599
0.0179442
-0.000284354
0.0179736
-0.000268783
0.0180019
-0.00025263
0.0180288
-0.000235827
0.0180545
-0.00021877
0.0180789
-0.000201597
0.018102
-0.000184499
0.0181238
-0.000167628
0.0181443
-0.00015108
0.0181632
-0.000135011
0.0181806
-0.000119476
0.0181965
-0.000104641
0.0182106
-9.04473e-05
0.0182229
-7.68361e-05
0.0182335
-6.39303e-05
-2.95777e-05
0.0212463
0.00428825
0.0212957
0.00249367
0.0213195
0.00232744
0.0213242
0.00214617
0.0213021
0.00199196
0.0212453
0.00184475
0.0211515
0.00169
0.021027
0.00152649
0.0208846
0.00136013
0.0207372
0.00119968
0.020594
0.0010523
0.02046
0.000921452
0.0203373
0.000807543
0.0202262
0.000709284
0.0201263
0.000624731
0.0200366
0.000551871
0.0199562
0.000488856
0.019884
0.0004341
0.0198193
0.000386278
0.0197611
0.000344346
0.0197088
0.000307512
0.0196617
0.000275251
0.0196191
0.000247254
0.0195806
0.000223458
0.0195456
0.000203855
0.0195138
0.000188359
0.0194847
0.000176617
0.0194583
0.000167961
0.0194343
0.000161187
0.0194128
0.000155178
0.0193939
0.000148373
0.0193776
0.000139527
0.0193643
0.00012745
0.019354
0.000111936
0.0193469
9.24127e-05
0.0193433
6.92339e-05
0.0193431
4.22249e-05
0.0193463
1.27727e-05
0.0193529
-1.90564e-05
0.0193628
-5.21008e-05
0.0193758
-8.66556e-05
0.0193918
-0.000120953
0.0194105
-0.000155207
0.0194319
-0.000188539
0.0194557
-0.000220924
0.0194817
-0.000251403
0.0195096
-0.000279139
0.0195394
-0.000304035
0.0195708
-0.000325662
0.0196034
-0.000343432
0.0196371
-0.00035784
0.0196716
-0.000367555
0.0197065
-0.000372888
0.0197416
-0.000374102
0.0197765
-0.000371489
0.0198111
-0.000365274
0.019845
-0.000356394
0.0198781
-0.000344695
0.0199103
-0.000330786
0.0199415
-0.000315539
0.0199717
-0.000298913
0.0200008
-0.000281705
0.0200288
-0.00026384
0.0200557
-0.000245724
0.0200816
-0.000227479
0.0201064
-0.000209279
0.0201301
-0.000191254
0.0201525
-0.000173469
0.0201735
-0.00015606
0.0201931
-0.000139061
0.0202111
-0.000122635
0.0202274
-0.000106718
0.0202418
-9.12387e-05
0.0202542
-7.63723e-05
-3.53618e-05
0.0233536
0.00418142
0.0234151
0.0024322
0.0234532
0.00228933
0.0234772
0.00212213
0.0234826
0.00198665
0.0234628
0.00186449
0.0234125
0.0017403
0.02333
0.00160898
0.0232201
0.00147005
0.0230924
0.00132737
0.0229574
0.00118727
0.0228234
0.00105551
0.0226954
0.000935567
0.022576
0.000828655
0.0224663
0.000734453
0.0223663
0.000651886
0.0222755
0.000579595
0.0221934
0.000516218
0.0221192
0.000460507
0.0220521
0.000411423
0.0219915
0.000368139
0.0219366
0.000330091
0.021887
0.000296914
0.0218419
0.000268493
0.021801
0.000244759
0.0217638
0.000225552
0.02173
0.00021043
0.0216994
0.000198624
0.0216717
0.000188825
0.0216471
0.00017982
0.0216255
0.000169965
0.021607
0.000157962
0.0215919
0.000142593
0.0215801
0.000123665
0.0215719
0.000100622
0.0215673
7.38723e-05
0.0215662
4.32745e-05
0.0215687
1.02928e-05
0.0215746
-2.49576e-05
0.0215837
-6.12543e-05
0.0215959
-9.88996e-05
0.021611
-0.000136078
0.0216289
-0.000173021
0.0216492
-0.000208832
0.0216717
-0.0002435
0.0216964
-0.000276067
0.0217229
-0.000305686
0.0217512
-0.000332279
0.0217809
-0.000355399
0.021812
-0.000374449
0.021844
-0.000389924
0.0218769
-0.000400453
0.0219104
-0.000406339
0.0219441
-0.000407849
0.0219779
-0.00040527
0.0220115
-0.00039885
0.0220447
-0.000389569
0.0220773
-0.000377299
0.0221092
-0.000362698
0.0221404
-0.000346695
0.0221707
-0.000329268
0.0222003
-0.000311257
0.0222291
-0.000292585
0.022257
-0.000273664
0.0222841
-0.000254599
0.0223104
-0.000235544
0.0223358
-0.000216598
0.0223601
-0.00019779
0.0223833
-0.000179222
0.0224051
-0.000160897
0.0224254
-0.000142962
0.022444
-0.000125332
0.0224607
-0.000107924
0.0224753
-9.0944e-05
-4.22607e-05
0.025668
0.00405883
0.0257411
0.00235909
0.025792
0.00223841
0.0258318
0.00208234
0.025858
0.00196046
0.0258665
0.00185601
0.0258526
0.00175413
0.0258122
0.00164945
0.0257435
0.00153871
0.0256497
0.00142115
0.0255378
0.00129914
0.0254163
0.00117709
0.0252923
0.00105955
0.0251711
0.000949846
0.0250558
0.000849719
0.0249481
0.000759618
0.0248485
0.000679179
0.0247571
0.000607631
0.0246735
0.00054406
0.0245974
0.000487593
0.024528
0.000437481
0.0244649
0.000393175
0.0244076
0.000354301
0.0243553
0.00032071
0.0243078
0.000292282
0.0242646
0.000268788
0.0242253
0.0002497
0.0241898
0.000234162
0.0241578
0.000220761
0.0241294
0.000208213
0.0241046
0.0001948
0.0240834
0.000179186
0.0240658
0.000160134
0.024052
0.000137472
0.0240419
0.000110661
0.0240357
8.01651e-05
0.024033
4.58706e-05
0.024034
9.30991e-06
0.0240384
-2.93679e-05
0.024046
-6.88816e-05
0.0240566
-0.000109541
0.02407
-0.000149495
0.024086
-0.000188994
0.0241043
-0.000227143
0.0241248
-0.000263943
0.0241471
-0.000298454
0.0241713
-0.000329821
0.024197
-0.000358002
0.0242242
-0.000382533
0.0242526
-0.000402823
0.024282
-0.000419373
0.0243123
-0.000430776
0.0243433
-0.00043733
0.0243748
-0.000439301
0.0244065
-0.000436966
0.0244382
-0.000430588
0.0244698
-0.000421179
0.0245012
-0.000408632
0.0245321
-0.00039364
0.0245626
-0.000377189
0.0245926
-0.000359266
0.0246221
-0.000340759
0.0246511
-0.000321587
0.0246797
-0.000302167
0.0247077
-0.00028259
0.0247351
-0.000262984
0.0247619
-0.000243417
0.024788
-0.00022387
0.0248132
-0.000204402
0.0248373
-0.000184969
0.02486
-0.000165682
0.0248811
-0.000146425
0.0249003
-0.000127075
0.0249172
-0.000107881
-5.02332e-05
0.02821
0.00392003
0.0282946
0.00227448
0.0283577
0.0021753
0.0284114
0.00202872
0.0284545
0.00191736
0.0284846
0.00182582
0.028499
0.00173975
0.0284939
0.00165457
0.0284658
0.00156685
0.0284129
0.00147398
0.0283369
0.00137516
0.0282424
0.00127159
0.0281359
0.00116607
0.0280237
0.00106203
0.027911
0.000962453
0.0278012
0.000869351
0.0276967
0.000783729
0.0275985
0.000705828
0.0275071
0.000635409
0.0274227
0.00057203
0.027345
0.000515196
0.0272737
0.000464505
0.0272083
0.000419648
0.0271485
0.000380499
0.0270939
0.000346914
0.0270441
0.000318621
0.0269987
0.000295024
0.0269577
0.000275189
0.0269208
0.00025763
0.026888
0.000241
0.0268593
0.00022353
0.0268346
0.000203865
0.026814
0.000180761
0.0267974
0.000154067
0.0267847
0.000123269
0.026776
8.88803e-05
0.0267711
5.08209e-05
0.0267697
1.06667e-05
0.0267717
-3.14122e-05
0.0267769
-7.40785e-05
0.026785
-0.000117642
0.0267957
-0.000160238
0.0268089
-0.000202139
0.0268242
-0.00024246
0.0268415
-0.000281217
0.0268605
-0.000317502
0.0268811
-0.000350465
0.0269033
-0.000380105
0.0269267
-0.000405952
0.0269513
-0.000427434
0.026977
-0.000445055
0.0270036
-0.000457395
0.027031
-0.000464744
0.0270591
-0.000467367
0.0270877
-0.00046552
0.0271166
-0.000459477
0.0271456
-0.000450262
0.0271748
-0.000437785
0.0272039
-0.000422763
0.027233
-0.000406225
0.0272619
-0.000388169
0.0272906
-0.000369523
0.0273193
-0.000350207
0.0273478
-0.000330645
0.0273761
-0.000310914
0.0274042
-0.00029112
0.0274321
-0.000271296
0.0274596
-0.000251369
0.0274866
-0.000231346
0.0275127
-0.000211114
0.0275378
-0.000190734
0.0275614
-0.000170024
0.0275831
-0.000148811
0.0276026
-0.000127346
-5.95506e-05
0.0310025
0.00376437
0.0310986
0.00217833
0.0311738
0.00210012
0.0312404
0.00196216
0.0312982
0.00185951
0.0313461
0.00177799
0.0313824
0.00170341
0.0314049
0.00163208
0.0314106
0.00156113
0.0313966
0.00148794
0.0313612
0.00141063
0.0313045
0.0013283
0.0312292
0.00124132
0.03114
0.00115123
0.0310421
0.00106038
0.0309402
0.000971207
0.0308382
0.000885734
0.0307387
0.000805313
0.0306435
0.000730662
0.0305535
0.000662063
0.0304691
0.000599531
0.0303906
0.000542998
0.0303179
0.000492366
0.0302508
0.000447623
0.030189
0.00040868
0.0301324
0.00037526
0.0300807
0.000346742
0.0300337
0.000322151
0.0299914
0.000299945
0.0299536
0.000278755
0.0299204
0.000256781
0.0298916