/*--------------------------------*- C++ -*----------------------------------*\
  =========                 |
  \\      /  F ield         | OpenFOAM: The Open Source CFD Toolbox
   \\    /   O peration     | Website:  https://openfoam.org
    \\  /    A nd           | Version:  7
     \\/     M anipulation  |
\*---------------------------------------------------------------------------*/
FoamFile
{
    version     2.0;
    format      ascii;
    class       volVectorField;
    location    "400";
    object      U;
}
// * * * * * * * * * * * * * * * * * * * * * * * * * * * * * * * * * * * * * //

dimensions      [0 1 -1 0 0 0 0];

internalField   nonuniform List<vector> 
4500
(
(15.4058 -0.778201 0)
(13.7077 -0.0619025 0)
(13.0325 -0.00325616 0)
(12.6708 0.000464984 0)
(12.4331 0.000501425 0)
(12.2594 0.000386174 0)
(12.125 0.000303741 0)
(12.0172 0.000246404 0)
(11.9286 0.000204493 0)
(11.8542 0.000172551 0)
(11.7911 0.000147429 0)
(11.7368 0.000127184 0)
(11.6898 0.000110544 0)
(11.6488 9.66503e-05 0)
(11.6128 8.48762e-05 0)
(11.5812 7.47966e-05 0)
(11.5533 6.60817e-05 0)
(11.5286 5.84726e-05 0)
(11.5067 5.17636e-05 0)
(11.4874 4.57976e-05 0)
(11.4703 4.04377e-05 0)
(11.4552 3.56426e-05 0)
(11.4419 3.1371e-05 0)
(11.4301 2.7697e-05 0)
(11.4195 2.4737e-05 0)
(11.4099 2.27308e-05 0)
(11.4006 2.18383e-05 0)
(11.3913 2.22018e-05 0)
(11.3815 2.35029e-05 0)
(11.3707 2.61345e-05 0)
(11.3587 2.94764e-05 0)
(11.3454 3.31243e-05 0)
(11.3309 3.60417e-05 0)
(11.3155 3.88969e-05 0)
(11.2997 4.05382e-05 0)
(11.284 4.11691e-05 0)
(11.269 3.92402e-05 0)
(11.2553 3.69431e-05 0)
(11.2435 3.2755e-05 0)
(11.2343 2.76406e-05 0)
(11.2281 1.93564e-05 0)
(11.2253 1.12524e-05 0)
(11.2265 1.99395e-06 0)
(11.2318 -7.66777e-06 0)
(11.2415 -1.8944e-05 0)
(11.2554 -3.038e-05 0)
(11.2736 -4.07892e-05 0)
(11.2957 -5.07103e-05 0)
(11.3216 -6.02138e-05 0)
(11.3507 -6.84035e-05 0)
(11.3826 -7.71286e-05 0)
(11.4168 -8.3448e-05 0)
(11.4526 -8.79094e-05 0)
(11.4897 -9.10184e-05 0)
(11.5275 -9.31243e-05 0)
(11.5655 -9.38494e-05 0)
(11.6033 -9.45156e-05 0)
(11.6406 -9.3621e-05 0)
(11.6769 -9.13697e-05 0)
(11.712 -8.88386e-05 0)
(11.7456 -8.50933e-05 0)
(11.7774 -8.11162e-05 0)
(11.8073 -7.61626e-05 0)
(11.8349 -7.07243e-05 0)
(11.8602 -6.48282e-05 0)
(11.883 -5.86592e-05 0)
(11.9034 -5.23457e-05 0)
(11.9213 -4.60415e-05 0)
(11.9369 -3.99937e-05 0)
(11.9502 -3.42416e-05 0)
(11.9616 -2.9057e-05 0)
(11.9711 -2.43703e-05 0)
(11.979 -2.03954e-05 0)
(11.9855 -1.68333e-05 0)
(11.9909 -8.96487e-06 0)
(17.5879 0.16307 0)
(16.0152 0.0238108 0)
(15.1976 0.00458795 0)
(14.7348 0.00198899 0)
(14.4341 0.00129708 0)
(14.2183 0.000960544 0)
(14.0538 0.000751465 0)
(13.9232 0.00060802 0)
(13.8165 0.000503598 0)
(13.7275 0.000424272 0)
(13.6522 0.000362056 0)
(13.5878 0.00031204 0)
(13.532 0.000271016 0)
(13.4835 0.000236815 0)
(13.441 0.000207887 0)
(13.4037 0.000183149 0)
(13.3708 0.000161775 0)
(13.3416 0.000143126 0)
(13.3159 0.000126699 0)
(13.2931 0.000112109 0)
(13.2729 9.90569e-05 0)
(13.255 8.74202e-05 0)
(13.2392 7.71681e-05 0)
(13.2252 6.85158e-05 0)
(13.2127 6.18025e-05 0)
(13.201 5.75406e-05 0)
(13.1899 5.6086e-05 0)
(13.1786 5.76367e-05 0)
(13.1667 6.15603e-05 0)
(13.1538 6.80871e-05 0)
(13.1395 7.58269e-05 0)
(13.1239 8.37183e-05 0)
(13.1071 8.98371e-05 0)
(13.0896 9.47428e-05 0)
(13.0718 9.6462e-05 0)
(13.0544 9.51776e-05 0)
(13.0381 8.86691e-05 0)
(13.0237 8.01139e-05 0)
(13.0118 6.73092e-05 0)
(13.003 5.18638e-05 0)
(12.998 3.08909e-05 0)
(12.9971 9.44701e-06 0)
(13.0009 -1.43417e-05 0)
(13.0094 -3.90138e-05 0)
(13.0228 -6.59675e-05 0)
(13.0411 -9.2748e-05 0)
(13.0642 -0.000117484 0)
(13.0916 -0.000140714 0)
(13.1231 -0.000162245 0)
(13.1581 -0.00018066 0)
(13.196 -0.000198451 0)
(13.2362 -0.00021137 0)
(13.2781 -0.000220423 0)
(13.3212 -0.000226332 0)
(13.3649 -0.000229635 0)
(13.4086 -0.000229904 0)
(13.4518 -0.000229089 0)
(13.4943 -0.000225126 0)
(13.5355 -0.000218522 0)
(13.5751 -0.000210817 0)
(13.6129 -0.000200752 0)
(13.6484 -0.00018983 0)
(13.6816 -0.000177093 0)
(13.7122 -0.000163383 0)
(13.7401 -0.000148853 0)
(13.7652 -0.000133899 0)
(13.7875 -0.00011887 0)
(13.8071 -0.000104112 0)
(13.8241 -9.01146e-05 0)
(13.8387 -7.69978e-05 0)
(13.851 -6.52141e-05 0)
(13.8615 -5.46203e-05 0)
(13.8702 -4.54401e-05 0)
(13.8774 -3.72582e-05 0)
(13.8832 -1.83484e-05 0)
(18.7449 0.0973745 0)
(17.3725 0.0156216 0)
(16.4743 0.00605635 0)
(15.9331 0.00350032 0)
(15.5795 0.00236974 0)
(15.3279 0.00174956 0)
(15.138 0.00136081 0)
(14.9886 0.0010959 0)
(14.8673 0.000904515 0)
(14.7668 0.000760036 0)
(14.6821 0.000647295 0)
(14.6098 0.000557029 0)
(14.5474 0.000483238 0)
(14.4932 0.000421887 0)
(14.4459 0.000370121 0)
(14.4043 0.000325935 0)
(14.3676 0.000287816 0)
(14.3353 0.000254604 0)
(14.3066 0.000225391 0)
(14.2812 0.000199489 0)
(14.2587 0.00017638 0)
(14.2389 0.000155855 0)
(14.2212 0.000137896 0)
(14.2055 0.000122911 0)
(14.1913 0.00011151 0)
(14.1782 0.000104532 0)
(14.1656 0.000102523 0)
(14.1528 0.000105679 0)
(14.1394 0.00011291 0)
(14.125 0.00012412 0)
(14.1093 0.000136941 0)
(14.0924 0.000149449 0)
(14.0745 0.000158626 0)
(14.0561 0.000164864 0)
(14.0378 0.000165283 0)
(14.0203 0.000160059 0)
(14.0043 0.000146249 0)
(13.9906 0.000128203 0)
(13.9799 0.000103061 0)
(13.9728 7.31932e-05 0)
(13.9699 3.51383e-05 0)
(13.9715 -4.00578e-06 0)
(13.9781 -4.66693e-05 0)
(13.9898 -9.05628e-05 0)
(14.0066 -0.000137225 0)
(14.0284 -0.000183058 0)
(14.0552 -0.000225327 0)
(14.0864 -0.000264548 0)
(14.1216 -0.000300275 0)
(14.1604 -0.00033052 0)
(14.202 -0.000358572 0)
(14.2459 -0.000378738 0)
(14.2913 -0.000392486 0)
(14.3377 -0.000400832 0)
(14.3846 -0.000404576 0)
(14.4312 -0.000403254 0)
(14.4773 -0.000399561 0)
(14.5223 -0.00039083 0)
(14.5657 -0.000377875 0)
(14.6074 -0.000362814 0)
(14.6469 -0.000344075 0)
(14.684 -0.000323765 0)
(14.7185 -0.000300755 0)
(14.7502 -0.000276293 0)
(14.779 -0.000250729 0)
(14.8049 -0.000224721 0)
(14.8279 -0.000198891 0)
(14.8481 -0.0001738 0)
(14.8656 -0.000150205 0)
(14.8806 -0.000128285 0)
(14.8934 -0.000108663 0)
(14.9043 -9.10544e-05 0)
(14.9133 -7.56687e-05 0)
(14.9208 -6.1921e-05 0)
(14.9269 -2.98781e-05 0)
(19.3754 0.0462246 0)
(18.326 0.0150408 0)
(17.4307 0.009101 0)
(16.8356 0.00564413 0)
(16.435 0.00383708 0)
(16.1491 0.00281756 0)
(15.9342 0.00217866 0)
(15.7661 0.00174595 0)
(15.6305 0.00143547 0)
(15.5186 0.00120256 0)
(15.4247 0.00102179 0)
(15.3447 0.000877705 0)
(15.276 0.000760361 0)
(15.2164 0.000663106 0)
(15.1644 0.000581275 0)
(15.1188 0.000511583 0)
(15.0786 0.000451576 0)
(15.0431 0.000399388 0)
(15.0117 0.000353564 0)
(14.9839 0.000313013 0)
(14.9593 0.000276938 0)
(14.9374 0.000244996 0)
(14.918 0.00021719 0)
(14.9007 0.000194149 0)
(14.8849 0.000176805 0)
(14.8703 0.000166336 0)
(14.8562 0.000163471 0)
(14.8421 0.000168333 0)
(14.8274 0.000179258 0)
(14.8118 0.000195576 0)
(14.7951 0.000213758 0)
(14.7775 0.00023082 0)
(14.7591 0.000242556 0)
(14.7406 0.000248969 0)
(14.7226 0.000246319 0)
(14.7058 0.000234737 0)
(14.691 0.000210754 0)
(14.6789 0.000179725 0)
(14.6702 0.000138384 0)
(14.6655 8.98835e-05 0)
(14.6652 3.05604e-05 0)
(14.6698 -3.07101e-05 0)
(14.6794 -9.66599e-05 0)
(14.6942 -0.000164116 0)
(14.7142 -0.000234519 0)
(14.7393 -0.000303171 0)
(14.7692 -0.000366471 0)
(14.8035 -0.000424756 0)
(14.8417 -0.000477238 0)
(14.8833 -0.000521385 0)
(14.9276 -0.000561076 0)
(14.974 -0.000589426 0)
(15.0218 -0.000608308 0)
(15.0704 -0.000619016 0)
(15.1192 -0.000622622 0)
(15.1677 -0.000618711 0)
(15.2153 -0.000610677 0)
(15.2616 -0.000595436 0)
(15.3062 -0.000574137 0)
(15.3488 -0.000549469 0)
(15.3891 -0.000519667 0)
(15.4268 -0.000487453 0)
(15.4618 -0.000451624 0)
(15.4939 -0.00041386 0)
(15.523 -0.000374754 0)
(15.5492 -0.000335286 0)
(15.5724 -0.000296375 0)
(15.5928 -0.000258827 0)
(15.6105 -0.000223656 0)
(15.6258 -0.000191138 0)
(15.6389 -0.000162032 0)
(15.6499 -0.000135927 0)
(15.6592 -0.000112923 0)
(15.6668 -9.23379e-05 0)
(15.673 -4.40006e-05 0)
(19.693 0.0456702 0)
(18.9995 0.0202329 0)
(18.1918 0.0128969 0)
(17.577 0.0082393 0)
(17.1407 0.00564735 0)
(16.8239 0.00414116 0)
(16.5849 0.00318982 0)
(16.3982 0.00254609 0)
(16.2481 0.00208606 0)
(16.1247 0.00174261 0)
(16.0214 0.00147726 0)
(15.9337 0.00126662 0)
(15.8585 0.0010957 0)
(15.7934 0.000954478 0)
(15.7367 0.000835985 0)
(15.687 0.000735307 0)
(15.6433 0.000648797 0)
(15.6047 0.000573704 0)
(15.5705 0.000507893 0)
(15.5403 0.000449777 0)
(15.5134 0.000398219 0)
(15.4896 0.00035271 0)
(15.4684 0.00031326 0)
(15.4494 0.000280723 0)
(15.4321 0.000256353 0)
(15.416 0.000241636 0)
(15.4005 0.000237422 0)
(15.3851 0.000243653 0)
(15.3693 0.000257967 0)
(15.3528 0.000278927 0)
(15.3354 0.000301727 0)
(15.3174 0.000322218 0)
(15.299 0.000334993 0)
(15.2809 0.000339585 0)
(15.2638 0.000331485 0)
(15.2483 0.000310817 0)
(15.2352 0.000273765 0)
(15.2252 0.000226621 0)
(15.2188 0.000165909 0)
(15.2167 9.56406e-05 0)
(15.2192 1.21757e-05 0)
(15.2266 -7.40561e-05 0)
(15.2392 -0.000165939 0)
(15.2569 -0.000259392 0)
(15.2797 -0.000355645 0)
(15.3075 -0.000448967 0)
(15.3399 -0.000534928 0)
(15.3765 -0.000613629 0)
(15.417 -0.0006839 0)
(15.4606 -0.000742696 0)
(15.5067 -0.000794357 0)
(15.5547 -0.000830972 0)
(15.604 -0.000854774 0)
(15.6539 -0.000867317 0)
(15.7038 -0.000869946 0)
(15.7532 -0.000862358 0)
(15.8016 -0.000848617 0)
(15.8485 -0.000825367 0)
(15.8936 -0.000794122 0)
(15.9365 -0.00075815 0)
(15.9769 -0.000715592 0)
(16.0148 -0.000669785 0)
(16.0498 -0.000619525 0)
(16.0819 -0.000566927 0)
(16.111 -0.00051284 0)
(16.1372 -0.000458569 0)
(16.1606 -0.000405327 0)
(16.1811 -0.000354146 0)
(16.199 -0.000306273 0)
(16.2145 -0.000262079 0)
(16.2278 -0.000222444 0)
(16.2391 -0.000186834 0)
(16.2485 -0.000155216 0)
(16.2563 -0.000126859 0)
(16.2626 -5.99764e-05 0)
(19.8488 0.0504549 0)
(19.4507 0.0244881 0)
(18.7997 0.016652 0)
(18.2081 0.0111579 0)
(17.7532 0.00779098 0)
(17.4116 0.00573674 0)
(17.1505 0.00441439 0)
(16.9458 0.00351467 0)
(16.7812 0.00287184 0)
(16.6461 0.00239312 0)
(16.5332 0.00202446 0)
(16.4376 0.00173281 0)
(16.3557 0.00149689 0)
(16.2849 0.00130253 0)
(16.2233 0.00113987 0)
(16.1694 0.00100199 0)
(16.122 0.000883756 0)
(16.0802 0.000781323 0)
(16.0432 0.000691729 0)
(16.0103 0.000612781 0)
(15.9812 0.000542934 0)
(15.9553 0.000481463 0)
(15.9322 0.000428363 0)
(15.9115 0.000384698 0)
(15.8926 0.000352022 0)
(15.875 0.00033206 0)
(15.8582 0.000325693 0)
(15.8416 0.000332556 0)
(15.8248 0.000349445 0)
(15.8075 0.000374002 0)
(15.7897 0.000400039 0)
(15.7716 0.000422182 0)
(15.7537 0.000433834 0)
(15.7364 0.000434054 0)
(15.7205 0.000417662 0)
(15.7066 0.000384852 0)
(15.6955 0.000331604 0)
(15.6877 0.000265164 0)
(15.6838 0.000181987 0)
(15.6843 8.70632e-05 0)
(15.6895 -2.31231e-05 0)
(15.6996 -0.000136739 0)
(15.7146 -0.000256717 0)
(15.7348 -0.00037806 0)
(15.7599 -0.000501743 0)
(15.7898 -0.000621066 0)
(15.824 -0.000730799 0)
(15.8623 -0.000830792 0)
(15.9042 -0.000919474 0)
(15.949 -0.000993308 0)
(15.9962 -0.00105701 0)
(16.0451 -0.00110174 0)
(16.095 -0.00113005 0)
(16.1455 -0.00114374 0)
(16.1958 -0.00114444 0)
(16.2454 -0.00113201 0)
(16.2939 -0.00111118 0)
(16.3408 -0.00107844 0)
(16.3858 -0.00103572 0)
(16.4285 -0.000986875 0)
(16.4687 -0.000930044 0)
(16.5063 -0.000869187 0)
(16.5411 -0.000803152 0)
(16.5731 -0.000734477 0)
(16.6021 -0.000664265 0)
(16.6283 -0.000594128 0)
(16.6517 -0.00052555 0)
(16.6724 -0.000459759 0)
(16.6905 -0.000398205 0)
(16.7063 -0.000341346 0)
(16.7198 -0.000290174 0)
(16.7314 -0.000244047 0)
(16.7411 -0.000202798 0)
(16.7491 -0.000165698 0)
(16.7555 -7.79023e-05 0)
(19.929 0.0521809 0)
(19.7286 0.0270124 0)
(19.2674 0.0200258 0)
(18.7457 0.0142434 0)
(18.2961 0.0102331 0)
(17.9397 0.00761458 0)
(17.6607 0.00587474 0)
(17.4395 0.00467512 0)
(17.2609 0.00381408 0)
(17.114 0.00317257 0)
(16.9914 0.00267927 0)
(16.8876 0.00228984 0)
(16.7988 0.00197561 0)
(16.7221 0.00171734 0)
(16.6554 0.00150172 0)
(16.597 0.00131932 0)
(16.5458 0.00116322 0)
(16.5005 0.00102823 0)
(16.4605 0.000910393 0)
(16.425 0.000806778 0)
(16.3934 0.000715343 0)
(16.3654 0.00063509 0)
(16.3403 0.000565956 0)
(16.3177 0.000509177 0)
(16.2972 0.000466556 0)
(16.2781 0.000439975 0)
(16.2599 0.00043023 0)
(16.2422 0.000436511 0)
(16.2245 0.000454638 0)
(16.2066 0.000481191 0)
(16.1887 0.000508522 0)
(16.1708 0.000530004 0)
(16.1535 0.000537878 0)
(16.1372 0.000530766 0)
(16.1227 0.00050292 0)
(16.1106 0.000454698 0)
(16.1015 0.000382008 0)
(16.096 0.000293079 0)
(16.0945 0.000184436 0)
(16.0974 6.21645e-05 0)
(16.105 -7.71167e-05 0)
(16.1173 -0.000220275 0)
(16.1345 -0.000370207 0)
(16.1566 -0.000521022 0)
(16.1834 -0.00067343 0)
(16.2147 -0.000819821 0)
(16.2501 -0.000954202 0)
(16.2893 -0.00107617 0)
(16.3319 -0.00118375 0)
(16.3771 -0.00127291 0)
(16.4246 -0.00134869 0)
(16.4736 -0.00140135 0)
(16.5235 -0.00143374 0)
(16.5738 -0.0014479 0)
(16.6238 -0.00144574 0)
(16.6731 -0.00142733 0)
(16.7211 -0.00139811 0)
(16.7675 -0.00135448 0)
(16.812 -0.00129885 0)
(16.8541 -0.00123572 0)
(16.8939 -0.00116328 0)
(16.931 -0.00108612 0)
(16.9654 -0.00100317 0)
(16.997 -0.00091738 0)
(17.0259 -0.000830086 0)
(17.0521 -0.000743174 0)
(17.0755 -0.000658363 0)
(17.0964 -0.000577042 0)
(17.1148 -0.000500836 0)
(17.1309 -0.000430279 0)
(17.1448 -0.000366486 0)
(17.1567 -0.000308721 0)
(17.1667 -0.000256704 0)
(17.175 -0.000209749 0)
(17.1817 -9.82386e-05 0)
(19.9739 0.052718 0)
(19.8889 0.0285834 0)
(19.6025 0.0227995 0)
(19.1903 0.0172661 0)
(18.776 0.0128803 0)
(18.4202 0.00975676 0)
(18.1302 0.00758161 0)
(17.8955 0.00604682 0)
(17.7042 0.00493338 0)
(17.546 0.00410023 0)
(17.4137 0.00345887 0)
(17.3016 0.00295285 0)
(17.2056 0.00254507 0)
(17.1228 0.0022105 0)
(17.0508 0.00193167 0)
(16.9878 0.00169622 0)
(16.9324 0.00149507 0)
(16.8836 0.00132144 0)
(16.8404 0.00117013 0)
(16.802 0.00103736 0)
(16.7679 0.000920469 0)
(16.7375 0.000818109 0)
(16.7103 0.000730094 0)
(16.6859 0.000657773 0)
(16.6636 0.000603122 0)
(16.6429 0.000568075 0)
(16.6234 0.000553214 0)
(16.6046 0.000557148 0)
(16.5861 0.000574592 0)
(16.5678 0.000600953 0)
(16.5498 0.000627078 0)
(16.5323 0.000645082 0)
(16.5157 0.000646097 0)
(16.5006 0.000628368 0)
(16.4876 0.000585692 0)
(16.4772 0.000518683 0)
(16.4701 0.000423298 0)
(16.4667 0.000308784 0)
(16.4673 0.000171877 0)
(16.4724 1.98345e-05 0)
(16.4819 -0.000150627 0)
(16.4961 -0.000325155 0)
(16.5149 -0.000506548 0)
(16.5384 -0.000688069 0)
(16.5662 -0.000870176 0)
(16.5982 -0.00104442 0)
(16.6341 -0.00120409 0)
(16.6735 -0.00134855 0)
(16.716 -0.00147538 0)
(16.761 -0.00158008 0)
(16.808 -0.00166797 0)
(16.8564 -0.00172842 0)
(16.9056 -0.00176453 0)
(16.9551 -0.00177857 0)
(17.0043 -0.00177273 0)
(17.0526 -0.00174735 0)
(17.0997 -0.00170859 0)
(17.1451 -0.00165288 0)
(17.1886 -0.00158314 0)
(17.2299 -0.00150457 0)
(17.2689 -0.00141545 0)
(17.3053 -0.00132102 0)
(17.3392 -0.00122032 0)
(17.3704 -0.00111665 0)
(17.3991 -0.00101156 0)
(17.4252 -0.000907164 0)
(17.4487 -0.000805371 0)
(17.4698 -0.000707687 0)
(17.4886 -0.000615891 0)
(17.5051 -0.000530585 0)
(17.5194 -0.000453018 0)
(17.5317 -0.000382394 0)
(17.5422 -0.000318335 0)
(17.5509 -0.000260259 0)
(17.5579 -0.000121573 0)
(20.0011 0.0528694 0)
(19.9807 0.0295175 0)
(19.8226 0.0248232 0)
(19.5371 0.019951 0)
(19.1896 0.0155661 0)
(18.8549 0.0120995 0)
(18.5647 0.00952306 0)
(18.3221 0.00763897 0)
(18.1205 0.00624629 0)
(17.9523 0.00519428 0)
(17.8107 0.00438083 0)
(17.6905 0.00373794 0)
(17.5873 0.00321978 0)
(17.4983 0.0027949 0)
(17.4207 0.00244119 0)
(17.3529 0.0021429 0)
(17.2933 0.00188841 0)
(17.2407 0.00166905 0)
(17.1941 0.00147822 0)
(17.1527 0.00131105 0)
(17.1158 0.00116418 0)
(17.083 0.0010358 0)
(17.0536 0.000925518 0)
(17.0271 0.000834705 0)
(17.003 0.000765412 0)
(16.9807 0.000719498 0)
(16.9599 0.000697197 0)
(16.9399 0.000696408 0)
(16.9207 0.000710626 0)
(16.902 0.000734009 0)
(16.884 0.000755875 0)
(16.8669 0.000767111 0)
(16.8511 0.000757812 0)
(16.8371 0.000725921 0)
(16.8256 0.000664892 0)
(16.8169 0.000575693 0)
(16.8115 0.00045443 0)
(16.8099 0.000311395 0)
(16.8124 0.000143693 0)
(16.8192 -4.02321e-05 0)
(16.8303 -0.000243636 0)
(16.8458 -0.000450986 0)
(16.8656 -0.000664965 0)
(16.8898 -0.000878052 0)
(16.9181 -0.00109048 0)
(16.9502 -0.00129306 0)
(16.9858 -0.0014784 0)
(17.0248 -0.00164565 0)
(17.0665 -0.00179196 0)
(17.1105 -0.00191237 0)
(17.1564 -0.0020124 0)
(17.2035 -0.00208053 0)
(17.2514 -0.0021201 0)
(17.2994 -0.00213359 0)
(17.3471 -0.00212346 0)
(17.394 -0.00209034 0)
(17.4397 -0.00204116 0)
(17.4838 -0.00197246 0)
(17.526 -0.00188773 0)
(17.5661 -0.0017929 0)
(17.604 -0.00168639 0)
(17.6396 -0.00157411 0)
(17.6727 -0.00145515 0)
(17.7035 -0.00133318 0)
(17.7319 -0.00120989 0)
(17.7579 -0.00108756 0)
(17.7815 -0.000968248 0)
(17.8029 -0.000853521 0)
(17.822 -0.000745287 0)
(17.8389 -0.000644209 0)
(17.8538 -0.000551694 0)
(17.8667 -0.000466909 0)
(17.8777 -0.00038941 0)
(17.8868 -0.00031878 0)
(17.8943 -0.000148665 0)
(20.0187 0.0527445 0)
(20.0354 0.0299682 0)
(19.9582 0.026127 0)
(19.7862 0.0220655 0)
(19.5283 0.0180611 0)
(19.2388 0.0145161 0)
(18.9637 0.0116492 0)
(18.7216 0.00944108 0)
(18.5144 0.00775983 0)
(18.3385 0.00646873 0)
(18.189 0.00546132 0)
(18.0611 0.00466132 0)
(17.951 0.00401502 0)
(17.8557 0.00348461 0)
(17.7726 0.00304307 0)
(17.6999 0.00267089 0)
(17.6358 0.00235362 0)
(17.5792 0.00208043 0)
(17.5291 0.00184307 0)
(17.4845 0.00163546 0)
(17.4448 0.00145335 0)
(17.4093 0.00129437 0)
(17.3775 0.0011578 0)
(17.3489 0.00104494 0)
(17.3229 0.000957784 0)
(17.2989 0.000897979 0)
(17.2767 0.000865271 0)
(17.2556 0.000856726 0)
(17.2356 0.00086453 0)
(17.2166 0.000881546 0)
(17.1986 0.000895572 0)
(17.1818 0.000896319 0)
(17.1668 0.000872932 0)
(17.1539 0.000823135 0)
(17.1435 0.000740147 0)
(17.1363 0.000625386 0)
(17.1324 0.000475181 0)
(17.1323 0.000300902 0)
(17.1362 0.000100172 0)
(17.1442 -0.000117426 0)
(17.1564 -0.000355194 0)
(17.1726 -0.000596437 0)
(17.193 -0.000843746 0)
(17.2173 -0.00108889 0)
(17.2453 -0.00133193 0)
(17.2769 -0.001563 0)
(17.3117 -0.00177412 0)
(17.3494 -0.00196426 0)
(17.3897 -0.00213014 0)
(17.4321 -0.00226633 0)
(17.4762 -0.00237852 0)
(17.5214 -0.00245432 0)
(17.5673 -0.00249724 0)
(17.6134 -0.00250993 0)
(17.6591 -0.00249514 0)
(17.7041 -0.00245381 0)
(17.7479 -0.00239369 0)
(17.7902 -0.00231146 0)
(17.8308 -0.00221126 0)
(17.8694 -0.00209977 0)
(17.906 -0.0019756 0)
(17.9405 -0.00184528 0)
(17.9729 -0.001708 0)
(18.003 -0.00156769 0)
(18.031 -0.00142616 0)
(18.0569 -0.00128577 0)
(18.0806 -0.00114867 0)
(18.1022 -0.00101644 0)
(18.1217 -0.000891087 0)
(18.1391 -0.000773315 0)
(18.1546 -0.000664703 0)
(18.1681 -0.000564418 0)
(18.1797 -0.000471971 0)
(18.1894 -0.000387181 0)
(18.1974 -0.000180423 0)
(20.0306 0.0523702 0)
(20.0698 0.03007 0)
(20.0406 0.0268629 0)
(19.9512 0.023519 0)
(19.7855 0.0201272 0)
(19.5621 0.0168135 0)
(19.3211 0.0138542 0)
(19.0917 0.0114083 0)
(18.8862 0.00946208 0)
(18.7068 0.00792763 0)
(18.5516 0.00671162 0)
(18.4174 0.00573708 0)
(18.3011 0.00494558 0)
(18.1999 0.00429408 0)
(18.1114 0.0037509 0)
(18.0336 0.00329279 0)
(17.9651 0.00290226 0)
(17.9044 0.00256613 0)
(17.8506 0.00227431 0)
(17.8027 0.00201932 0)
(17.76 0.00179591 0)
(17.7218 0.001601 0)
(17.6875 0.00143344 0)
(17.6566 0.0012943 0)
(17.6285 0.00118538 0)
(17.6028 0.00110797 0)
(17.5791 0.0010612 0)
(17.5569 0.00104118 0)
(17.5361 0.00103873 0)
(17.5166 0.0010454 0)
(17.4985 0.0010475 0)
(17.4821 0.00103365 0)
(17.4677 0.000992128 0)
(17.4556 0.000920542 0)
(17.4463 0.000811971 0)
(17.4401 0.000668363 0)
(17.4374 0.000486321 0)
(17.4384 0.000278332 0)
(17.4433 4.26562e-05 0)
(17.452 -0.000210078 0)
(17.4647 -0.00048328 0)
(17.4811 -0.00075911 0)
(17.5013 -0.00104012 0)
(17.5251 -0.00131744 0)
(17.5524 -0.00159102 0)
(17.5828 -0.00185045 0)
(17.6161 -0.00208719 0)
(17.652 -0.0023001 0)
(17.6903 -0.00248548 0)
(17.7304 -0.00263745 0)
(17.7721 -0.00276183 0)
(17.8149 -0.00284537 0)
(17.8582 -0.00289168 0)
(17.9018 -0.0029036 0)
(17.945 -0.00288408 0)
(17.9876 -0.00283447 0)
(18.0291 -0.00276327 0)
(18.0693 -0.00266744 0)
(18.1079 -0.00255177 0)
(18.1448 -0.0024237 0)
(18.1799 -0.00228208 0)
(18.2131 -0.00213403 0)
(18.2444 -0.00197882 0)
(18.2738 -0.00182059 0)
(18.3013 -0.00166119 0)
(18.3269 -0.00150301 0)
(18.3506 -0.00134822 0)
(18.3724 -0.00119834 0)
(18.3923 -0.00105542 0)
(18.4103 -0.000920212 0)
(18.4264 -0.000794458 0)
(18.4405 -0.000677347 0)
(18.4528 -0.00056837 0)
(18.4632 -0.000467654 0)
(18.4719 -0.000217932 0)
(20.039 0.0517789 0)
(20.0926 0.0299213 0)
(20.092 0.0271879 0)
(20.0552 0.0243789 0)
(19.9649 0.0216134 0)
(19.8158 0.0187666 0)
(19.6268 0.0159671 0)
(19.4257 0.0134437 0)
(19.2323 0.0113078 0)
(19.0559 0.00955546 0)
(18.899 0.00813187 0)
(18.761 0.00697326 0)
(18.6398 0.00602317 0)
(18.5336 0.00523641 0)
(18.4401 0.00457806 0)
(18.3576 0.00402157 0)
(18.2847 0.00354662 0)
(18.22 0.00313762 0)
(18.1624 0.00278256 0)
(18.1111 0.00247244 0)
(18.0653 0.00220086 0)
(18.0242 0.00196393 0)
(17.9873 0.00175991 0)
(17.954 0.00158952 0)
(17.9238 0.00145421 0)
(17.8963 0.00135477 0)
(17.871 0.00128953 0)
(17.8476 0.00125361 0)
(17.8259 0.00123642 0)
(17.8059 0.00122818 0)
(17.7876 0.00121382 0)
(17.7713 0.00118091 0)
(17.7572 0.00111701 0)
(17.7458 0.00101967 0)
(17.7372 0.000881923 0)
(17.7318 0.000706323 0)
(17.7298 0.000489767 0)
(17.7314 0.000245903 0)
(17.7367 -2.63154e-05 0)
(17.7457 -0.000315326 0)
(17.7583 -0.00062466 0)
(17.7744 -0.000935402 0)
(17.7939 -0.00125011 0)
(17.8166 -0.00155939 0)
(17.8425 -0.00186312 0)
(17.8711 -0.00215045 0)
(17.9023 -0.00241238 0)
(17.9359 -0.00264773 0)
(17.9715 -0.00285236 0)
(18.0089 -0.00302004 0)
(18.0477 -0.00315662 0)
(18.0874 -0.00324805 0)
(18.1277 -0.00329801 0)
(18.1682 -0.00330946 0)
(18.2085 -0.00328557 0)
(18.2483 -0.00322803 0)
(18.2871 -0.00314613 0)
(18.3248 -0.00303715 0)
(18.3611 -0.00290654 0)
(18.396 -0.00276253 0)
(18.4293 -0.0026042 0)
(18.461 -0.00243927 0)
(18.4911 -0.00226704 0)
(18.5195 -0.00209181 0)
(18.5464 -0.00191539 0)
(18.5716 -0.00174016 0)
(18.5953 -0.00156821 0)
(18.6172 -0.00140092 0)
(18.6374 -0.00124036 0)
(18.6559 -0.00108726 0)
(18.6726 -0.000943511 0)
(18.6875 -0.000808342 0)
(18.7005 -0.000681232 0)
(18.7117 -0.00056269 0)
(18.721 -0.00026242 0)
(20.0449 0.0509937 0)
(20.1082 0.029581 0)
(20.1254 0.0272182 0)
(20.1206 0.0247808 0)
(20.0821 0.0225187 0)
(19.9986 0.0202042 0)
(19.8707 0.0177773 0)
(19.7131 0.0153876 0)
(19.5451 0.0132011 0)
(19.3812 0.0113027 0)
(19.2289 0.00970099 0)
(19.0909 0.00836498 0)
(18.9675 0.00725182 0)
(18.8577 0.00632037 0)
(18.7603 0.00553556 0)
(18.6738 0.00486918 0)
(18.5968 0.00429877 0)
(18.5283 0.00380669 0)
(18.4671 0.00337906 0)
(18.4124 0.00300539 0)
(18.3633 0.00267808 0)
(18.3194 0.0023923 0)
(18.2798 0.00214563 0)
(18.244 0.00193829 0)
(18.2117 0.00177122 0)
(18.1822 0.00164455 0)
(18.1552 0.00155574 0)
(18.1305 0.0014988 0)
(18.1078 0.00146172 0)
(18.0871 0.00143349 0)
(18.0685 0.00139768 0)
(18.0521 0.00134097 0)
(18.0382 0.00125027 0)
(18.027 0.00112318 0)
(18.0188 0.000952756 0)
(18.0137 0.000742203 0)
(18.0121 0.000488717 0)
(18.0138 0.000207142 0)
(18.0191 -0.000102883 0)
(18.0277 -0.000428975 0)
(18.0397 -0.00077477 0)
(18.0549 -0.00112038 0)
(18.0731 -0.00146844 0)
(18.0943 -0.00180911 0)
(18.1181 -0.00214227 0)
(18.1445 -0.00245676 0)
(18.1731 -0.00274319 0)
(18.2038 -0.00300041 0)
(18.2363 -0.0032239 0)
(18.2704 -0.0034071 0)
(18.3057 -0.00355591 0)
(18.3419 -0.00365552 0)
(18.3787 -0.0037096 0)
(18.4157 -0.00372122 0)
(18.4527 -0.0036937 0)
(18.4892 -0.0036291 0)
(18.525 -0.00353746 0)
(18.5599 -0.00341637 0)
(18.5936 -0.00327197 0)
(18.6262 -0.00311327 0)
(18.6574 -0.00293958 0)
(18.6874 -0.00275917 0)
(18.7161 -0.00257138 0)
(18.7434 -0.00238061 0)
(18.7694 -0.0021886 0)
(18.7942 -0.00199758 0)
(18.8175 -0.00180951 0)
(18.8395 -0.00162558 0)
(18.8599 -0.00144776 0)
(18.8789 -0.0012767 0)
(18.8961 -0.00111443 0)
(18.9117 -0.000960171 0)
(18.9255 -0.00081339 0)
(18.9374 -0.000675044 0)
(18.9475 -0.000315265 0)
(20.0492 0.0500256 0)
(20.1193 0.0290806 0)
(20.1481 0.0270286 0)
(20.1628 0.0248476 0)
(20.1569 0.0229463 0)
(20.1211 0.0210868 0)
(20.0495 0.0191112 0)
(19.9437 0.0170398 0)
(19.8141 0.0149855 0)
(19.6744 0.0130688 0)
(19.5354 0.0113618 0)
(19.4037 0.00988346 0)
(19.2821 0.00862017 0)
(19.1717 0.0075449 0)
(19.0721 0.00662837 0)
(18.9827 0.00584392 0)
(18.9025 0.00516874 0)
(18.8306 0.00458409 0)
(18.7661 0.00407473 0)
(18.7082 0.0036289 0)
(18.6561 0.00323788 0)
(18.6093 0.0028959 0)
(18.567 0.00259978 0)
(18.5288 0.0023491 0)
(18.4942 0.00214421 0)
(18.4627 0.00198442 0)
(18.434 0.00186622 0)
(18.4078 0.00178247 0)
(18.384 0.00171979 0)
(18.3625 0.00166596 0)
(18.3433 0.00160335 0)
(18.3266 0.00151784 0)
(18.3126 0.00139582 0)
(18.3013 0.001235 0)
(18.2931 0.00102853 0)
(18.288 0.000780288 0)
(18.2862 0.00048776 0)
(18.2876 0.000166986 0)
(18.2923 -0.00018177 0)
(18.3001 -0.000545402 0)
(18.3109 -0.00092762 0)
(18.3246 -0.00130771 0)
(18.3411 -0.00168842 0)
(18.3601 -0.00205959 0)
(18.3815 -0.00242114 0)
(18.4051 -0.00276176 0)
(18.4306 -0.00307175 0)
(18.458 -0.00335005 0)
(18.4869 -0.00359186 0)
(18.5173 -0.00379032 0)
(18.5487 -0.00395139 0)
(18.581 -0.00405956 0)
(18.6139 -0.00411849 0)
(18.647 -0.00413129 0)
(18.6802 -0.00410137 0)
(18.7132 -0.00403115 0)
(18.7456 -0.00393131 0)
(18.7773 -0.00379982 0)
(18.8082 -0.00364344 0)
(18.8382 -0.00347193 0)
(18.8672 -0.00328484 0)
(18.8952 -0.00309099 0)
(18.9222 -0.00288969 0)
(18.9482 -0.00268543 0)
(18.9732 -0.00247981 0)
(18.9972 -0.00227487 0)
(19.0201 -0.00207236 0)
(19.0419 -0.00187315 0)
(19.0624 -0.00167905 0)
(19.0817 -0.00149053 0)
(19.0995 -0.00130965 0)
(19.1157 -0.00113559 0)
(19.1303 -0.000967781 0)
(19.143 -0.000807659 0)
(19.1539 -0.000377965 0)
(20.0522 0.0488783 0)
(20.1272 0.0284366 0)
(20.164 0.0266624 0)
(20.1912 0.0246654 0)
(20.2052 0.0230151 0)
(20.2004 0.0214911 0)
(20.1713 0.0199148 0)
(20.1139 0.0182338 0)
(20.0293 0.016468 0)
(19.9247 0.0146947 0)
(19.8096 0.0130044 0)
(19.6925 0.0114605 0)
(19.579 0.0100893 0)
(19.4722 0.00889024 0)
(19.3736 0.00784884 0)
(19.2834 0.0069457 0)
(19.2015 0.00616108 0)
(19.1273 0.00547711 0)
(19.0602 0.0048784 0)
(18.9995 0.00435254 0)
(18.9448 0.00389007 0)
(18.8952 0.00348444 0)
(18.8504 0.00313176 0)
(18.8098 0.00283095 0)
(18.7729 0.00258163 0)
(18.7394 0.00238224 0)
(18.7089 0.00222823 0)
(18.6812 0.00211132 0)
(18.6561 0.00201679 0)
(18.6336 0.00193135 0)
(18.6137 0.00183626 0)
(18.5965 0.00171677 0)
(18.582 0.00155886 0)
(18.5704 0.0013604 0)
(18.5618 0.00111469 0)
(18.5562 0.000826277 0)
(18.5537 0.000492939 0)
(18.5543 0.000131837 0)
(18.558 -0.000256231 0)
(18.5645 -0.00065751 0)
(18.5737 -0.00107575 0)
(18.5855 -0.00148957 0)
(18.5997 -0.00190189 0)
(18.6161 -0.00230236 0)
(18.6346 -0.00269099 0)
(18.655 -0.00305643 0)
(18.677 -0.00338877 0)
(18.7007 -0.00368719 0)
(18.7257 -0.00394659 0)
(18.7519 -0.00415999 0)
(18.7791 -0.00433338 0)
(18.8071 -0.00445063 0)
(18.8357 -0.00451537 0)
(18.8647 -0.00453075 0)
(18.8938 -0.00450016 0)
(18.9228 -0.00442634 0)
(18.9516 -0.00432052 0)
(18.9799 -0.004181 0)
(19.0077 -0.00401512 0)
(19.0349 -0.00383337 0)
(19.0613 -0.0036355 0)
(19.0871 -0.00343083 0)
(19.1122 -0.0032187 0)
(19.1366 -0.0030036 0)
(19.1603 -0.00278698 0)
(19.1833 -0.00257064 0)
(19.2055 -0.00235604 0)
(19.2269 -0.00214363 0)
(19.2474 -0.00193495 0)
(19.2668 -0.00173014 0)
(19.285 -0.00153119 0)
(19.3018 -0.00133714 0)
(19.317 -0.00114728 0)
(19.3305 -0.000963543 0)
(19.3422 -0.000452081 0)
(20.0542 0.0475508 0)
(20.1328 0.0276568 0)
(20.1754 0.0261431 0)
(20.2109 0.0242866 0)
(20.2375 0.0228152 0)
(20.252 0.0215276 0)
(20.2508 0.02025 0)
(20.2303 0.0189168 0)
(20.1875 0.0174951 0)
(20.1228 0.0159937 0)
(20.0406 0.0144639 0)
(19.9476 0.0129732 0)
(19.8502 0.0115763 0)
(19.7535 0.0103042 0)
(19.6605 0.00916624 0)
(19.573 0.0081582 0)
(19.4918 0.00726897 0)
(19.417 0.00648517 0)
(19.3486 0.00579347 0)
(19.2862 0.00518224 0)
(19.2294 0.00464208 0)
(19.1776 0.00416619 0)
(19.1306 0.00375019 0)
(19.0878 0.00339248 0)
(19.0488 0.00309196 0)
(19.0134 0.0028462 0)
(18.9811 0.00264959 0)
(18.9519 0.00249277 0)
(18.9255 0.00235978 0)
(18.9019 0.0022364 0)
(18.881 0.00210297 0)
(18.8629 0.00194423 0)
(18.8477 0.00174586 0)
(18.8354 0.00150597 0)
(18.8261 0.00121805 0)
(18.8197 0.000887274 0)
(18.8162 0.000511738 0)
(18.8156 0.000109549 0)
(18.8177 -0.000318074 0)
(18.8224 -0.000756742 0)
(18.8296 -0.00121025 0)
(18.839 -0.00165672 0)
(18.8506 -0.0020993 0)
(18.864 -0.00252755 0)
(18.8793 -0.00294164 0)
(18.8961 -0.00333033 0)
(18.9143 -0.0036836 0)
(18.9339 -0.00400096 0)
(18.9546 -0.0042771 0)
(18.9764 -0.00450503 0)
(18.9991 -0.00469077 0)
(19.0225 -0.00481776 0)
(19.0466 -0.00488953 0)
(19.0711 -0.00490925 0)
(19.0958 -0.00488021 0)
(19.1207 -0.0048054 0)
(19.1456 -0.00469646 0)
(19.1702 -0.00455198 0)
(19.1947 -0.00437981 0)
(19.2187 -0.00419104 0)
(19.2424 -0.00398565 0)
(19.2657 -0.00377343 0)
(19.2886 -0.00355373 0)
(19.3112 -0.00333106 0)
(19.3333 -0.0031067 0)
(19.355 -0.00288217 0)
(19.3763 -0.00265856 0)
(19.397 -0.00243584 0)
(19.4171 -0.00221511 0)
(19.4365 -0.00199604 0)
(19.4548 -0.00178038 0)
(19.4721 -0.00156683 0)
(19.4879 -0.00135444 0)
(19.5021 -0.00114556 0)
(19.5145 -0.000539153 0)
(20.0555 0.046039 0)
(20.1367 0.0267443 0)
(20.1836 0.0254815 0)
(20.2248 0.0237409 0)
(20.2598 0.0224039 0)
(20.2863 0.0212858 0)
(20.3028 0.0202192 0)
(20.3068 0.019147 0)
(20.2955 0.0180268 0)
(20.2667 0.0168313 0)
(20.2202 0.0155621 0)
(20.1584 0.0142502 0)
(20.0856 0.0129428 0)
(20.0066 0.0116859 0)
(19.9257 0.0105115 0)
(19.8459 0.0094364 0)
(19.7693 0.00846455 0)
(19.697 0.00759234 0)
(19.6294 0.00681224 0)
(19.5668 0.0061159 0)
(19.5091 0.00549561 0)
(19.4561 0.00494535 0)
(19.4074 0.0044609 0)
(19.3629 0.00404049 0)
(19.3223 0.00368254 0)
(19.2851 0.00338387 0)
(19.2512 0.00313795 0)
(19.2205 0.00293441 0)
(19.1928 0.00275628 0)
(19.168 0.00258856 0)
(19.146 0.00241089 0)
(19.127 0.00220766 0)
(19.1108 0.00196441 0)
(19.0976 0.00167951 0)
(19.0872 0.00134666 0)
(19.0796 0.000971669 0)
(19.0747 0.000552952 0)
(19.0725 0.000109316 0)
(19.0727 -0.000357741 0)
(19.0753 -0.00083319 0)