/*--------------------------------*- C++ -*----------------------------------*\
  =========                 |
  \\      /  F ield         | OpenFOAM: The Open Source CFD Toolbox
   \\    /   O peration     | Website:  https://openfoam.org
    \\  /    A nd           | Version:  7
     \\/     M anipulation  |
\*---------------------------------------------------------------------------*/
FoamFile
{
    version     2.0;
    format      ascii;
    class       volScalarField;
    location    "6.8";
    object      p;
}
// * * * * * * * * * * * * * * * * * * * * * * * * * * * * * * * * * * * * * //

dimensions      [0 2 -2 0 0 0 0];

internalField   nonuniform List<scalar> 
900
(
-3.22182e-07
-0.000338785
-0.00088492
-0.00146435
-0.00197491
-0.0023547
-0.00257214
-0.00261241
-0.00246718
-0.00213012
-0.00159647
-0.000865222
5.73039e-05
0.00115343
0.00239064
0.0037196
0.00507437
0.00637549
0.00753624
0.00847163
0.00910929
0.00940068
0.00933068
0.00892356
0.00824447
0.00739425
0.00649656
0.00570888
0.00517989
0.00503884
0.000331354
-1.7941e-05
-0.000433809
-0.000857776
-0.00122826
-0.00150079
-0.00165048
-0.00166312
-0.00152903
-0.00124072
-0.000792875
-0.000183969
0.000581013
0.00148756
0.00250879
0.00360378
0.00471972
0.00579066
0.00674575
0.00751591
0.00804293
0.00828887
0.00824382
0.00793031
0.0074033
0.00674554
0.00605754
0.0054415
0.00502463
0.00489558
0.000896017
0.000382123
-4.75192e-05
-0.000426922
-0.000742979
-0.00096892
-0.00109026
-0.00109837
-0.000985512
-0.000744003
-0.000366971
0.000149716
0.000804735
0.00158825
0.00247914
0.00344368
0.00443416
0.0053918
0.00625136
0.00694809
0.00742667
0.00765042
0.00760899
0.00732243
0.0068406
0.00623757
0.00560193
0.0050251
0.00459702
0.00438402
0.00151972
0.000785115
0.000279756
-0.000110383
-0.000417293
-0.000631493
-0.000750469
-0.000773136
-0.000694889
-0.000507932
-0.000202963
0.000228319
0.000790004
0.00147841
0.00227871
0.00316259
0.00408681
0.00499507
0.00582227
0.00650161
0.00697391
0.00719771
0.00715777
0.00686991
0.00638035
0.0057594
0.00509176
0.00446558
0.00395152
0.0035817
0.00206785
0.00109594
0.000492713
6.68919e-05
-0.000255708
-0.000481464
-0.000619375
-0.000675759
-0.000648862
-0.000530175
-0.000306983
3.44482e-05
0.000505015
0.00110847
0.0018371
0.00266824
0.00356283
0.00446492
0.00530666
0.00601511
0.00652241
0.00677718
0.00675474
0.00646349
0.00594513
0.00526826
0.00451876
0.00378848
0.0031383
0.00256293
0.00242541
0.0012188
0.00050928
3.25245e-05
-0.000324686
-0.000582972
-0.000761611
-0.000873241
-0.000917995
-0.000885679
-0.000759052
-0.00051764
-0.000142284
0.0003797
0.00104906
0.00184978
0.00274719
0.00368504
0.00459086
0.00538221
0.00597771
0.00631028
0.00633983
0.00606236
0.0055123
0.00475702
0.00388788
0.00300803
0.00217641
0.001357
0.00249293
0.00106596
0.000250336
-0.00028613
-0.000692718
-0.00100286
-0.00124469
-0.00143582
-0.00157707
-0.00165543
-0.00164792
-0.0015259
-0.0012603
-0.000827528
-0.000216343
0.000565801
0.00149146
0.00250395
0.00352576
0.00446246
0.00521438
0.00569189
0.00583153
0.00560928
0.00504684
0.0042087
0.00319487
0.00212753
0.0010724
-3.28602e-05
0.00218279
0.000556947
-0.000359168
-0.000960038
-0.00142827
-0.00180902
-0.00213805
-0.00243663
-0.00270516
-0.00292674
-0.00307147
-0.0031011
-0.00297466
-0.00265517
-0.00211777
-0.00135822
-0.000390214
0.000729001
0.00191891
0.00307203
0.00406595
0.0047806
0.00511861
0.00502468
0.00449833
0.00359616
0.00242808
0.00114296
-0.000178142
-0.00162166
0.00141696
-0.000381146
-0.00138913
-0.00205741
-0.00259907
-0.00307022
-0.00351321
-0.00395206
-0.00438591
-0.00479321
-0.00513621
-0.00536558
-0.00542631
-0.00526486
-0.00483726
-0.00411808
-0.00311875
-0.00187463
-0.000468894
0.000978023
0.0023175
0.00339049
0.00405248
0.00420094
0.00379804
0.00288209
0.00157081
4.67761e-05
-0.00158482
-0.00343415
0.000127861
-0.00181148
-0.00290098
-0.00363942
-0.00426705
-0.0048503
-0.00543752
-0.00605488
-0.00670004
-0.00734652
-0.00794817
-0.00844346
-0.0087611
-0.00882732
-0.00857481
-0.00795369
-0.00694883
-0.00558067
-0.00392386
-0.00210633
-0.000303512
0.00127881
0.00243365
0.00299002
0.00284982
0.00201443
0.000601209
-0.00116839
-0.00315593
-0.00549598
-0.00173905
-0.00378455
-0.00494407
-0.00575561
-0.00648271
-0.00720161
-0.00796634
-0.00880531
-0.00971496
-0.0106643
-0.011599
-0.0124445
-0.0131115
-0.0135023
-0.0135206
-0.0130837
-0.01214
-0.0106822
-0.00876462
-0.00651302
-0.00412543
-0.00185878
2.10056e-06
0.00119193
0.00152009
0.000920533
-0.000508321
-0.00250596
-0.00489151
-0.00782481
-0.00422176
-0.00633499
-0.00755203
-0.00843947
-0.0092796
-0.0101581
-0.0111347
-0.0122407
-0.0134724
-0.0147954
-0.0161479
-0.0174431
-0.018572
-0.0194102
-0.0198267
-0.0196972
-0.0189229
-0.0174538
-0.0153067
-0.0125893
-0.00951073
-0.00637647
-0.00356049
-0.00145002
-0.000369568
-0.000498419
-0.00179196
-0.00396093
-0.00677532
-0.0104202
-0.00733823
-0.0094787
-0.0107397
-0.0117045
-0.0126692
-0.0137285
-0.0149487
-0.0163649
-0.0179749
-0.019743
-0.0216018
-0.0234531
-0.0251687
-0.0265955
-0.0275633
-0.0278985
-0.0274432
-0.026093
-0.0238024
-0.0206404
-0.0168062
-0.0126403
-0.00860728
-0.00523935
-0.00304181
-0.00236966
-0.00328985
-0.00551402
-0.00876438
-0.0132512
-0.0110838
-0.013211
-0.0145011
-0.0155413
-0.0166365
-0.0178906
-0.0193773
-0.0211375
-0.0231727
-0.0254487
-0.0278949
-0.0304038
-0.0328295
-0.0349901
-0.0366743
-0.037655
-0.037711
-0.0366491
-0.034361
-0.0308456
-0.0262618
-0.0209572
-0.0154714
-0.0104912
-0.00674602
-0.00484198
-0.00504321
-0.00712262
-0.0107751
-0.0162389
-0.01543
-0.0175066
-0.018809
-0.0199166
-0.021138
-0.0225873
-0.0243473
-0.026467
-0.0289549
-0.0317807
-0.0348743
-0.0381216
-0.0413615
-0.0443853
-0.0469411
-0.0487459
-0.0495061
-0.0489464
-0.0468636
-0.0431628
-0.0379279
-0.031473
-0.0243761
-0.0174633
-0.0117138
-0.00806174
-0.00708046
-0.00870649
-0.0126642
-0.0192343
-0.0203261
-0.0223217
-0.0236176
-0.0247747
-0.026102
-0.0277255
-0.0297405
-0.0322074
-0.0351448
-0.0385298
-0.0422956
-0.0463251
-0.050445
-0.0544232
-0.0579704
-0.0607505
-0.0623985
-0.0625498
-0.0609045
-0.0572483
-0.0515562
-0.0440601
-0.0353197
-0.0262533
-0.0180814
-0.0121235
-0.009388
-0.0101248
-0.0142021
-0.0219871
-0.0257028
-0.0275995
-0.0288675
-0.0300419
-0.0314317
-0.033179
-0.0353966
-0.038161
-0.0415046
-0.0454152
-0.0498319
-0.0546371
-0.059649
-0.0646156
-0.0692152
-0.0730643
-0.0757337
-0.0767752
-0.075786
-0.0724285
-0.0665423
-0.0582303
-0.0479656
-0.0366813
-0.0257838
-0.0169911
-0.0118596
-0.0111413
-0.0150385
-0.0241067
-0.0314803
-0.0332793
-0.0344942
-0.0356338
-0.0370115
-0.0387939
-0.0411194
-0.0440869
-0.0477472
-0.0521013
-0.0570962
-0.0626153
-0.06847
-0.0743921
-0.0800328
-0.084968
-0.0887162
-0.0907645
-0.0905851
-0.08775
-0.0819475
-0.0731171
-0.0615811
-0.0481922
-0.0344422
-0.0223966
-0.0142227
-0.0113728
-0.0146566
-0.0250119
-0.037579
-0.0393092
-0.04044
-0.0414645
-0.0427148
-0.0443963
-0.046686
-0.0497143
-0.053555
-0.0582242
-0.0636766
-0.0697966
-0.0763885
-0.0831697
-0.0897678
-0.0957258
-0.100517
-0.103566
-0.104279
-0.102111
-0.0966145
-0.0875569
-0.0750659
-0.0598252
-0.043284
-0.0277374
-0.0159456
-0.0102209
-0.0123154
-0.0238678
-0.0439365
-0.0456648
-0.046669
-0.0474575
-0.0484116
-0.0498003
-0.0518584
-0.0547588
-0.0586028
-0.063422
-0.0691764
-0.0757478
-0.0829313
-0.0904283
-0.0978443
-0.104694
-0.110411
-0.114375
-0.115933
-0.114448
-0.109355
-0.100261
-0.0870853
-0.0702822
-0.0511366
-0.0320102
-0.0161446
-0.00678677
-0.00697646
-0.0195011
-0.0505328
-0.0523752
-0.0531849
-0.0535546
-0.0539741
-0.0548145
-0.0563934
-0.0589388
-0.0625823
-0.0673673
-0.0732537
-0.0801139
-0.0877277
-0.0957762
-0.103841
-0.111407
-0.117877
-0.122586
-0.124833
-0.123908
-0.119153
-0.110034
-0.0962777
-0.0780945
-0.0565196
-0.0338149
-0.0135187
0.000221986
0.00278669
-0.0102798
-0.0574345
-0.0595613
-0.0600527
-0.0597239
-0.0592784
-0.0592449
-0.0600521
-0.0619925
-0.0652253
-0.069797
-0.0756561
-0.0826552
-0.0905491
-0.0989912
-0.107533
-0.115631
-0.122649
-0.127881
-0.130577
-0.129967
-0.12531
-0.115957
-0.101473
-0.081843
-0.0578239
-0.0314493
-0.00634393
0.0125725
0.0189005
0.00607099
-0.0648826
-0.0674999
-0.0674264
-0.0659626
-0.0642015
-0.0628963
-0.0626091
-0.0636952
-0.0663271
-0.0705372
-0.0762465
-0.0832716
-0.0913302
-0.100039
-0.108911
-0.117362
-0.124716
-0.130224
-0.13308
-0.132449
-0.127506
-0.117503
-0.101859
-0.080377
-0.0535385
-0.023093
0.00744271
0.0325465
0.0439397
0.0327728
-0.0734786
-0.0767301
-0.0755827
-0.0722974
-0.0686166
-0.0655762
-0.0638666
-0.0638795
-0.0657697
-0.0695267
-0.0750169
-0.0820048
-0.0901569
-0.0990413
-0.108125
-0.116778
-0.124275
-0.129812
-0.132517
-0.131479
-0.125773
-0.114539
-0.0970691
-0.0729932
-0.0425089
-0.00710501
0.0300135
0.0628984
0.0813438
0.0744815
-0.0846084
-0.0882399
-0.0849552
-0.0787752
-0.0723884
-0.0671026
-0.0636711
-0.0624563
-0.0635382
-0.0668202
-0.0720868
-0.0790283
-0.0872461
-0.0962504
-0.105456
-0.114179
-0.12164
-0.12697
-0.129221
-0.127387
-0.120415
-0.107318
-0.0872175
-0.0595366
-0.0242743
0.0175233
0.0631505
0.106613
0.135593
0.137792
-0.10143
-0.103799
-0.0961372
-0.0854192
-0.0753441
-0.0672892
-0.0619036
-0.0594015
-0.0596995
-0.0625642
-0.0676636
-0.0745944
-0.0828821
-0.0919732
-0.101226
-0.109903
-0.117168
-0.122082
-0.123616
-0.120662
-0.111994
-0.0964785
-0.0730071
-0.0407192
0.000739917
0.0508124
0.107491
0.16611
0.211747
0.231172
-0.131079
-0.126475
-0.109911
-0.0922127
-0.0772434
-0.0659067
-0.0584397
-0.0547093
-0.0543615
-0.0569528
-0.0620018
-0.0689967
-0.0773824
-0.086543
-0.0957842
-0.10432
-0.11126
-0.115607
-0.116251
-0.111978
-0.10142
-0.083208
-0.0559477
-0.0183572
0.030522
0.091021
0.162525
0.24144
0.313702
0.366274
-0.189637
-0.159775
-0.126748
-0.098708
-0.077391
-0.0623827
-0.0529532
-0.0482945
-0.0476161
-0.0501999
-0.0553944
-0.0625797
-0.0711299
-0.0803801
-0.0895988
-0.0979657
-0.104555
-0.10832
-0.10809
-0.102548
-0.0903161
-0.0696918
-0.0389486
0.00376407
0.0603902
0.132861
0.222998
0.330101
0.443614
0.569903
-0.32088
-0.199616
-0.138334
-0.0973275
-0.0699034
-0.052467
-0.0425201
-0.0381756
-0.0381003
-0.0413441
-0.047156
-0.0548701
-0.06384
-0.0733934
-0.082797
-0.0912303
-0.0977665
-0.101353
-0.100797
-0.0946284
-0.0815943
-0.0597905
-0.0271973
0.0185989
0.08073
0.163565
0.273571
0.419251
0.607599
0.897127
-0.648204
-0.236063
-0.106897
-0.0623566
-0.038058
-0.0244786
-0.0187018
-0.0180895
-0.0209977
-0.0265532
-0.034168
-0.0433135
-0.0534479
-0.0639798
-0.0742391
-0.0834544
-0.0907369
-0.0950699
-0.0953218
-0.0903262
-0.0782249
-0.0574582
-0.0260007
0.018769
0.0805635
0.165613
0.286357
0.471117
0.777269
1.37113
)
;

boundaryField
{
    movingWall
    {
        type            zeroGradient;
    }
    fixedWalls
    {
        type            zeroGradient;
    }
    frontAndBack
    {
        type            empty;
    }
}


// ************************************************************************* //
