/*--------------------------------*- C++ -*----------------------------------*\
  =========                 |
  \\      /  F ield         | OpenFOAM: The Open Source CFD Toolbox
   \\    /   O peration     | Website:  https://openfoam.org
    \\  /    A nd           | Version:  7
     \\/     M anipulation  |
\*---------------------------------------------------------------------------*/
FoamFile
{
    version     2.0;
    format      ascii;
    class       volVectorField;
    location    "6.8";
    object      U;
}
// * * * * * * * * * * * * * * * * * * * * * * * * * * * * * * * * * * * * * //

dimensions      [0 1 -1 0 0 0 0];

internalField   nonuniform List<vector> 
900
(
(0.000153462 -0.000152347 0)
(0.000264204 -6.04798e-05 0)
(-6.01286e-05 0.000100813 0)
(-0.000821836 0.000242116 0)
(-0.00192987 0.000343693 0)
(-0.00328435 0.000408486 0)
(-0.00479476 0.000445508 0)
(-0.00638697 0.000462595 0)
(-0.00800002 0.000464209 0)
(-0.00957905 0.000451539 0)
(-0.011069 0.000423392 0)
(-0.0124109 0.000377314 0)
(-0.0135405 0.000310748 0)
(-0.0143908 0.000222155 0)
(-0.0148961 0.000112017 0)
(-0.0149995 -1.64299e-05 0)
(-0.0146607 -0.000157164 0)
(-0.0138648 -0.000300379 0)
(-0.0126298 -0.000433903 0)
(-0.011011 -0.000544219 0)
(-0.00910232 -0.000618162 0)
(-0.00703096 -0.000644967 0)
(-0.00494802 -0.000618213 0)
(-0.00301358 -0.000537267 0)
(-0.00137832 -0.000408021 0)
(-0.0001641 -0.000243617 0)
(0.000547896 -6.48093e-05 0)
(0.00074488 0.0001045 0)
(0.000523845 0.000208805 0)
(0.000164405 0.000163282 0)
(6.83476e-05 -0.000270924 0)
(-0.000313137 0.000311091 0)
(-0.00170814 0.00111307 0)
(-0.00402565 0.00183054 0)
(-0.00710447 0.00237947 0)
(-0.0107501 0.00275433 0)
(-0.0147663 0.0029775 0)
(-0.0189745 0.00307353 0)
(-0.0232138 0.00305809 0)
(-0.0273319 0.00293596 0)
(-0.0311769 0.00270352 0)
(-0.0345919 0.00235321 0)
(-0.037415 0.00187871 0)
(-0.0394856 0.00128007 0)
(-0.040655 0.000568061 0)
(-0.0408024 -0.000232799 0)
(-0.0398502 -0.00108241 0)
(-0.0377816 -0.00192636 0)
(-0.0346552 -0.00269949 0)
(-0.0306117 -0.00333202 0)
(-0.0258737 -0.00375796 0)
(-0.0207342 -0.00392481 0)
(-0.0155357 -0.0038028 0)
(-0.0106382 -0.00339213 0)
(-0.00638039 -0.00272711 0)
(-0.00303757 -0.00187797 0)
(-0.000780982 -0.000951561 0)
(0.000354615 -8.79993e-05 0)
(0.000539841 0.000506133 0)
(0.00021623 0.000521024 0)
(-0.000107554 5.76492e-05 0)
(-0.00121153 0.00172659 0)
(-0.0039002 0.00368546 0)
(-0.00785473 0.00542585 0)
(-0.0128278 0.00678269 0)
(-0.0185633 0.00772874 0)
(-0.0247946 0.00829404 0)
(-0.031269 0.0085194 0)
(-0.03775 0.00843281 0)
(-0.0440082 0.00804323 0)
(-0.0498135 0.00734459 0)
(-0.0549319 0.00632518 0)
(-0.0591273 0.00497909 0)
(-0.0621719 0.0033175 0)
(-0.0638609 0.00137815 0)
(-0.0640323 -0.000768269 0)
(-0.0625879 -0.00301537 0)
(-0.0595151 -0.00522554 0)
(-0.0549027 -0.00723802 0)
(-0.0489503 -0.0088837 0)
(-0.0419664 -0.0100045 0)
(-0.0343555 -0.0104756 0)
(-0.0265896 -0.0102268 0)
(-0.0191678 -0.00926015 0)
(-0.0125653 -0.00766072 0)
(-0.0071763 -0.00559976 0)
(-0.00325816 -0.0033337 0)
(-0.000882359 -0.00120226 0)
(0.000114246 0.000368388 0)
(0.000152219 0.00079335 0)
(-0.00029221 0.000911741 0)
(-0.00217146 0.0042675 0)
(-0.00623314 0.00776225 0)
(-0.0118597 0.0107893 0)
(-0.0186858 0.0131386 0)
(-0.0263936 0.0147746 0)
(-0.0346598 0.0157382 0)
(-0.043177 0.0160853 0)
(-0.0516529 0.015854 0)
(-0.0598006 0.0150556 0)
(-0.0673311 0.0136814 0)
(-0.0739516 0.0117177 0)
(-0.0793703 0.00916377 0)
(-0.0833081 0.00605039 0)
(-0.0855171 0.00245413 0)
(-0.0858024 -0.00149294 0)
(-0.0840455 -0.00560134 0)
(-0.0802282 -0.00962941 0)
(-0.0744508 -0.0132986 0)
(-0.066944 -0.0163175 0)
(-0.0580693 -0.0184133 0)
(-0.0483066 -0.0193684 0)
(-0.0382247 -0.0190569 0)
(-0.0284368 -0.0174757 0)
(-0.0195398 -0.014765 0)
(-0.0120468 -0.011214 0)
(-0.00631724 -0.00725635 0)
(-0.00249314 -0.0034559 0)
(-0.00047071 -0.000492988 0)
(5.9148e-05 0.000784818 0)
(-0.000465193 0.00228444 0)
(-0.00310774 0.00795266 0)
(-0.00853961 0.013351 0)
(-0.0158187 0.017881 0)
(-0.0244438 0.0213466 0)
(-0.03403 0.0237344 0)
(-0.0442031 0.0251092 0)
(-0.0546128 0.0255453 0)
(-0.0649269 0.02509 0)
(-0.0748178 0.0237555 0)
(-0.0839544 0.0215296 0)
(-0.0920007 0.0183974 0)
(-0.0986221 0.0143664 0)
(-0.103498 0.00949135 0)
(-0.106342 0.00389375 0)
(-0.106924 -0.00222575 0)
(-0.105095 -0.00858508 0)
(-0.100811 -0.0148271 0)
(-0.0941601 -0.0205414 0)
(-0.0853747 -0.0252961 0)
(-0.0748393 -0.0286823 0)
(-0.0630838 -0.0303658 0)
(-0.0507571 -0.0301421 0)
(-0.0385808 -0.027985 0)
(-0.0272826 -0.0240805 0)
(-0.0175161 -0.0188391 0)
(-0.0097743 -0.0128854 0)
(-0.00430804 -0.00702732 0)
(-0.00111096 -0.00221434 0)
(-3.22605e-05 0.000444886 0)
(-0.000622574 0.00414839 0)
(-0.00398754 0.0127513 0)
(-0.010735 0.0204239 0)
(-0.019602 0.0266643 0)
(-0.0299475 0.031352 0)
(-0.0413174 0.0345339 0)
(-0.0532908 0.0363188 0)
(-0.0654836 0.0368076 0)
(-0.0775364 0.036059 0)
(-0.0890952 0.0340853 0)
(-0.099801 0.0308694 0)
(-0.109287 0.0263939 0)
(-0.117187 0.0206735 0)
(-0.123143 0.0137865 0)
(-0.126828 0.00589854 0)
(-0.127969 -0.00272079 0)
(-0.126367 -0.0116951 0)
(-0.121933 -0.0205465 0)
(-0.11471 -0.0287216 0)
(-0.104901 -0.0356307 0)
(-0.0928826 -0.0407024 0)
(-0.079212 -0.0434535 0)
(-0.064607 -0.0435651 0)
(-0.049903 -0.0409547 0)
(-0.0359805 -0.0358317 0)
(-0.0236707 -0.0287205 0)
(-0.0136454 -0.0204469 0)
(-0.00630871 -0.0120858 0)
(-0.00178812 -0.00488311 0)
(-0.000116824 -0.000232245 0)
(-0.000764564 0.00646669 0)
(-0.00479585 0.0185967 0)
(-0.012769 0.0289023 0)
(-0.0231224 0.0370528 0)
(-0.0350811 0.0430614 0)
(-0.0481254 0.0470753 0)
(-0.0617927 0.0492708 0)
(-0.0756741 0.0497877 0)
(-0.0893936 0.0487005 0)
(-0.102583 0.0460214 0)
(-0.114869 0.0417264 0)
(-0.125865 0.0357918 0)
(-0.135178 0.0282346 0)
(-0.142418 0.0191497 0)
(-0.147214 0.00873985 0)
(-0.149238 -0.00266417 0)
(-0.148225 -0.0145974 0)
(-0.144008 -0.026462 0)
(-0.136556 -0.0375553 0)
(-0.126007 -0.0471111 0)
(-0.112695 -0.0543651 0)
(-0.0971768 -0.0586413 0)
(-0.0802255 -0.0594549 0)
(-0.0627953 -0.0566161 0)
(-0.0459471 -0.0503165 0)
(-0.0307365 -0.0411748 0)
(-0.018073 -0.030225 0)
(-0.00856965 -0.0188402 0)
(-0.00253037 -0.00860881 0)
(-0.000199968 -0.00126202 0)
(-0.00089083 0.00919691 0)
(-0.00552041 0.0253997 0)
(-0.0146014 0.0386743 0)
(-0.0263064 0.0489253 0)
(-0.03974 0.0563523 0)
(-0.0543246 0.0612413 0)
(-0.0695634 0.0638611 0)
(-0.0850309 0.0644039 0)
(-0.100345 0.0629661 0)
(-0.115135 0.059561 0)
(-0.129023 0.0541543 0)
(-0.141614 0.0467103 0)
(-0.152497 0.0372388 0)
(-0.161251 0.0258397 0)
(-0.167459 0.0127375 0)
(-0.170728 -0.00169121 0)
(-0.170709 -0.0169013 0)
(-0.167134 -0.032189 0)
(-0.159863 -0.0467 0)
(-0.148929 -0.0594751 0)
(-0.134583 -0.0695225 0)
(-0.117344 -0.0759208 0)
(-0.0980136 -0.0779503 0)
(-0.0776613 -0.0752396 0)
(-0.0575514 -0.0678979 0)
(-0.0390159 -0.0565997 0)
(-0.0232729 -0.042587 0)
(-0.0112179 -0.0275715 0)
(-0.00338979 -0.0135524 0)
(-0.000291783 -0.00268422 0)
(-0.000999412 0.0122904 0)
(-0.00614625 0.0330513 0)
(-0.0161907 0.0495993 0)
(-0.0290796 0.0621292 0)
(-0.043816 0.071073 0)
(-0.0597739 0.0768902 0)
(-0.0764312 0.0799662 0)
(-0.0933544 0.0805604 0)
(-0.110165 0.078798 0)
(-0.1265 0.074695 0)
(-0.141987 0.0682037 0)
(-0.156234 0.0592681 0)
(-0.168821 0.0478793 0)
(-0.179302 0.0341253 0)
(-0.187215 0.018233 0)
(-0.192092 0.000602336 0)
(-0.193494 -0.0181675 0)
(-0.191034 -0.037279 0)
(-0.184431 -0.0557333 0)
(-0.173569 -0.0723691 0)
(-0.158569 -0.0859348 0)
(-0.13986 -0.0952043 0)
(-0.118229 -0.0991391 0)
(-0.0948335 -0.0970856 0)
(-0.0711493 -0.0889731 0)
(-0.0488335 -0.0754636 0)
(-0.0294952 -0.0579914 0)
(-0.0144072 -0.038651 0)
(-0.00443002 -0.0199451 0)
(-0.000404127 -0.00457083 0)
(-0.00108706 0.0156898 0)
(-0.00665532 0.041421 0)
(-0.0174916 0.0615071 0)
(-0.0313636 0.0764781 0)
(-0.0471931 0.0870357 0)
(-0.0643174 0.0938436 0)
(-0.0821973 0.0974256 0)
(-0.100399 0.0981231 0)
(-0.118557 0.0960984 0)
(-0.136323 0.0913721 0)
(-0.153346 0.0838801 0)
(-0.169243 0.0735383 0)
(-0.183597 0.0603049 0)
(-0.195949 0.0442372 0)
(-0.205797 0.0255405 0)
(-0.212611 0.00460993 0)
(-0.215851 -0.0179359 0)
(-0.215001 -0.0412271 0)
(-0.209617 -0.0641394 0)
(-0.1994 -0.0853125 0)
(-0.184286 -0.103213 0)
(-0.164546 -0.116252 0)
(-0.140881 -0.122979 0)
(-0.114481 -0.12233 0)
(-0.0870119 -0.113916 0)
(-0.0604867 -0.0982727 0)
(-0.0369934 -0.0769771 0)
(-0.0183026 -0.0525454 0)
(-0.00572051 -0.0280976 0)
(-0.000549697 -0.00702999 0)
(-0.00114991 0.0193274 0)
(-0.00702841 0.0503558 0)
(-0.0184581 0.0741972 0)
(-0.0330786 0.0917491 0)
(-0.0497524 0.104012 0)
(-0.0677903 0.111877 0)
(-0.0866436 0.116027 0)
(-0.105886 0.116899 0)
(-0.125167 0.114702 0)
(-0.14417 0.109465 0)
(-0.162566 0.101105 0)
(-0.18 0.0895032 0)
(-0.196071 0.0745712 0)
(-0.210318 0.0563158 0)
(-0.222221 0.0348942 0)
(-0.231199 0.0106649 0)
(-0.236626 -0.0157658 0)
(-0.23786 -0.0434975 0)
(-0.234286 -0.0713149 0)
(-0.225393 -0.0976798 0)
(-0.21088 -0.120773 0)
(-0.190782 -0.138603 0)
(-0.165617 -0.14921 0)
(-0.136509 -0.150974 0)
(-0.105245 -0.142999 0)
(-0.074193 -0.125516 0)
(-0.0459964 -0.100136 0)
(-0.0230686 -0.0698095 0)
(-0.00733396 -0.0384025 0)
(-0.000742094 -0.010208 0)
(-0.00118434 0.0231249 0)
(-0.00724814 0.0596806 0)
(-0.0190488 0.0874395 0)
(-0.0341523 0.107683 0)
(-0.0513828 0.121728 0)
(-0.0700333 0.130713 0)
(-0.0895512 0.135494 0)
(-0.10952 0.13662 0)
(-0.129616 0.134355 0)
(-0.14955 0.128742 0)
(-0.169035 0.119681 0)
(-0.187752 0.107013 0)
(-0.205331 0.0905934 0)
(-0.221335 0.0703607 0)
(-0.235246 0.0463996 0)
(-0.246461 0.0189999 0)
(-0.254296 -0.0112841 0)
(-0.258004 -0.0435697 0)
(-0.256813 -0.0766017 0)
(-0.24999 -0.10871 0)
(-0.236952 -0.137818 0)
(-0.217421 -0.161519 0)
(-0.191613 -0.17727 0)
(-0.160445 -0.182735 0)
(-0.125699 -0.176284 0)
(-0.0900266 -0.15758 0)
(-0.0566752 -0.128064 0)
(-0.0288577 -0.0910666 0)
(-0.00934472 -0.0513309 0)
(-0.000996281 -0.0142905 0)
(-0.00118778 0.0269952 0)
(-0.0073026 0.0692029 0)
(-0.019235 0.100979 0)
(-0.0345313 0.123989 0)
(-0.0519969 0.13987 0)
(-0.0709127 0.150019 0)
(-0.0907254 0.155483 0)
(-0.111032 0.156931 0)
(-0.131532 0.154698 0)
(-0.151978 0.148846 0)
(-0.172126 0.139266 0)
(-0.191709 0.125755 0)
(-0.210407 0.108108 0)
(-0.227828 0.0861844 0)
(-0.243492 0.0599764 0)
(-0.25681 0.0296769 0)
(-0.267081 -0.00425209 0)
(-0.273499 -0.0410052 0)
(-0.275168 -0.0793476 0)
(-0.271149 -0.117553 0)
(-0.260563 -0.153353 0)
(-0.242749 -0.183962 0)
(-0.217498 -0.206223 0)
(-0.185345 -0.216946 0)
(-0.147864 -0.213503 0)
(-0.107843 -0.194636 0)
(-0.0691006 -0.161279 0)
(-0.0357948 -0.11697 0)
(-0.0118269 -0.0674232 0)
(-0.00132916 -0.0195039 0)
(-0.00115966 0.0308469 0)
(-0.00718954 0.0787203 0)
(-0.0190091 0.114545 0)
(-0.0341954 0.140349 0)
(-0.05155 0.158085 0)
(-0.0703451 0.169412 0)
(-0.0900273 0.175578 0)
(-0.110206 0.17739 0)
(-0.130609 0.175261 0)
(-0.151029 0.16929 0)
(-0.171275 0.159361 0)
(-0.191142 0.145238 0)
(-0.21038 0.126653 0)
(-0.22867 0.103383 0)
(-0.2456 0.0753173 0)
(-0.260642 0.0425306 0)
(-0.27314 0.00535554 0)
(-0.28228 -0.0355306 0)
(-0.2871 -0.0789938 0)
(-0.286507 -0.12335 0)
(-0.279344 -0.166251 0)
(-0.264536 -0.204624 0)
(-0.241342 -0.234734 0)
(-0.209721 -0.25246 0)
(-0.170785 -0.253919 0)
(-0.127192 -0.236499 0)
(-0.0831888 -0.200112 0)
(-0.043956 -0.148145 0)
(-0.0148508 -0.0872702 0)
(-0.00176011 -0.0261145 0)
(-0.00110224 0.0345902 0)
(-0.00692053 0.0880337 0)
(-0.0183949 0.127865 0)
(-0.0331725 0.156434 0)
(-0.0500609 0.175994 0)
(-0.0683239 0.188467 0)
(-0.0874068 0.195307 0)
(-0.106931 0.197474 0)
(-0.126653 0.195476 0)
(-0.146408 0.189462 0)
(-0.166065 0.179322 0)
(-0.185492 0.164798 0)
(-0.204524 0.145569 0)
(-0.22294 0.121332 0)
(-0.240432 0.0918757 0)
(-0.256581 0.0571434 0)
(-0.270824 0.0173134 0)
(-0.282417 -0.027109 0)
(-0.290413 -0.075175 0)
(-0.293643 -0.125357 0)
(-0.29073 -0.175371 0)
(-0.280209 -0.22202 0)
(-0.260747 -0.261117 0)
(-0.231561 -0.287625 0)
(-0.193005 -0.296223 0)
(-0.147242 -0.282469 0)
(-0.0986378 -0.244567 0)
(-0.0533388 -0.185099 0)
(-0.0184775 -0.111482 0)
(-0.0023114 -0.0344274 0)
(-0.00102149 0.0381459 0)
(-0.00652537 0.0969643 0)
(-0.0174567 0.140684 0)
(-0.0315538 0.171924 0)
(-0.0476318 0.193212 0)
(-0.064944 0.206729 0)
(-0.082934 0.214149 0)
(-0.101236 0.216597 0)
(-0.119636 0.214694 0)
(-0.138016 0.208651 0)
(-0.156311 0.198388 0)
(-0.174469 0.183634 0)
(-0.192429 0.164034 0)
(-0.210084 0.139221 0)
(-0.22726 0.108887 0)
(-0.243685 0.0728509 0)
(-0.258946 0.0311255 0)
(-0.272435 -0.0159948 0)
(-0.283311 -0.0678151 0)
(-0.290428 -0.123075 0)
(-0.2923 -0.179725 0)
(-0.287148 -0.234657 0)
(-0.273072 -0.283462 0)
(-0.248442 -0.320343 0)
(-0.212584 -0.338483 0)
(-0.166727 -0.3312 0)
(-0.114864 -0.294148 0)
(-0.0638268 -0.228106 0)
(-0.0227516 -0.140642 0)
(-0.00300867 -0.0447817 0)
(-0.000927965 0.0414561 0)
(-0.00605658 0.105376 0)
(-0.0163097 0.152792 0)
(-0.0295085 0.186527 0)
(-0.0444668 0.209363 0)
(-0.0604234 0.223742 0)
(-0.0768226 0.231565 0)
(-0.0933165 0.234139 0)
(-0.109726 0.232216 0)
(-0.125988 0.22609 0)
(-0.142107 0.215725 0)
(-0.158125 0.200862 0)
(-0.174087 0.181126 0)
(-0.190021 0.156107 0)
(-0.205904 0.125423 0)
(-0.221638 0.0887792 0)
(-0.236998 0.0460293 0)
(-0.251577 -0.0027571 0)
(-0.264713 -0.0571944 0)
(-0.275394 -0.116376 0)
(-0.282161 -0.178653 0)
(-0.283071 -0.241257 0)
(-0.275766 -0.299865 0)
(-0.25778 -0.348235 0)
(-0.227227 -0.378209 0)
(-0.183962 -0.38062 0)
(-0.130955 -0.347706 0)
(-0.075153 -0.277058 0)
(-0.0276938 -0.175242 0)
(-0.00388211 -0.0575428 0)
(-0.000838051 0.0444983 0)
(-0.0055952 0.113203 0)
(-0.0151316 0.164051 0)
(-0.027299 0.200009 0)
(-0.0408871 0.224109 0)
(-0.0551173 0.23906 0)
(-0.0694429 0.247012 0)
(-0.0835475 0.249469 0)
(-0.0973012 0.24733 0)
(-0.110705 0.240995 0)
(-0.123846 0.230485 0)
(-0.136865 0.215575 0)
(-0.149924 0.195893 0)
(-0.163186 0.171005 0)
(-0.176792 0.140478 0)
(-0.190823 0.103929 0)
(-0.205267 0.0610668 0)
(-0.219956 0.0117448 0)
(-0.234463 -0.043961 0)
(-0.247999 -0.105575 0)
(-0.259288 -0.17198 0)
(-0.26641 -0.240981 0)
(-0.266753 -0.308708 0)
(-0.257161 -0.368926 0)
(-0.23451 -0.412543 0)
(-0.196937 -0.427965 0)
(-0.145668 -0.403309 0)
(-0.0868694 -0.331309 0)
(-0.0332971 -0.215601 0)
(-0.00496967 -0.0730943 0)
(-0.000776459 0.0473026 0)
(-0.00525996 0.120484 0)
(-0.0141777 0.17443 0)
(-0.0252968 0.212224 0)
(-0.0373439 0.237168 0)
(-0.0495246 0.252275 0)
(-0.0613218 0.259967 0)
(-0.0724765 0.26197 0)
(-0.0829323 0.259346 0)
(-0.0927753 0.252609 0)
(-0.102188 0.241859 0)
(-0.111416 0.226917 0)
(-0.120743 0.207432 0)
(-0.13047 0.18297 0)
(-0.14089 0.153068 0)
(-0.152265 0.11728 0)
(-0.164789 0.0751987 0)
(-0.178529 0.0264876 0)
(-0.193333 -0.0290616 0)
(-0.208713 -0.0914245 0)
(-0.223688 -0.160088 0)
(-0.236565 -0.233615 0)
(-0.244749 -0.30894 0)
(-0.244682 -0.380379 0)
(-0.232172 -0.438566 0)
(-0.203494 -0.469944 0)
(-0.157467 -0.458205 0)
(-0.0983302 -0.389509 0)
(-0.0395305 -0.261766 0)
(-0.00632491 -0.0918331 0)
(-0.000781715 0.0499767 0)
(-0.00522412 0.127403 0)
(-0.013805 0.184044 0)
(-0.024004 0.223131 0)
(-0.0344289 0.248326 0)
(-0.0442847 0.263016 0)
(-0.0531238 0.269937 0)
(-0.0607894 0.271055 0)
(-0.067338 0.26761 0)
(-0.0729686 0.260235 0)
(-0.0779764 0.249115 0)
(-0.0827218 0.234126 0)
(-0.0876079 0.214952 0)
(-0.0930632 0.19117 0)
(-0.0995232 0.16231 0)
(-0.107409 0.127885 0)
(-0.117096 0.0874062 0)
(-0.128869 0.0403855 0)
(-0.142843 -0.0136368 0)
(-0.15886 -0.075035 0)
(-0.176317 -0.143897 0)
(-0.193925 -0.219639 0)
(-0.209401 -0.300272 0)
(-0.219175 -0.381215 0)
(-0.218366 -0.45367 0)
(-0.201522 -0.503035 0)
(-0.16461 -0.508896 0)
(-0.108688 -0.449475 0)
(-0.046353 -0.313401 0)
(-0.00803324 -0.114177 0)
(-0.000918397 0.0527448 0)
(-0.00574773 0.13435 0)
(-0.0145114 0.193191 0)
(-0.02408 0.232813 0)
(-0.0328786 0.257436 0)
(-0.040156 0.270942 0)
(-0.0456062 0.276443 0)
(-0.0492446 0.276162 0)
(-0.0512949 0.271512 0)
(-0.0521062 0.263241 0)
(-0.0521066 0.251614 0)
(-0.0517772 0.236558 0)
(-0.0516358 0.217794 0)
(-0.0522245 0.194919 0)
(-0.0540969 0.167466 0)
(-0.0578034 0.134927 0)
(-0.0638681 0.0967577 0)
(-0.0727544 0.0523634 0)
(-0.0848133 0.00109471 0)
(-0.100197 -0.0577378 0)
(-0.118715 -0.124747 0)
(-0.139605 -0.200176 0)
(-0.161155 -0.283247 0)
(-0.180218 -0.370931 0)
(-0.19178 -0.455903 0)
(-0.189107 -0.523834 0)
(-0.165226 -0.551319 0)
(-0.116883 -0.508099 0)
(-0.0537279 -0.369648 0)
(-0.0102402 -0.140595 0)
(-0.00130323 0.0560172 0)
(-0.00723744 0.141992 0)
(-0.0169954 0.202381 0)
(-0.0263695 0.241463 0)
(-0.0335561 0.26438 0)
(-0.0379538 0.275705 0)
(-0.0395189 0.27899 0)
(-0.038539 0.276722 0)
(-0.0354754 0.270462 0)
(-0.0308691 0.261048 0)
(-0.0253003 0.248796 0)
(-0.019373 0.233674 0)
(-0.013708 0.215427 0)
(-0.00894011 0.193672 0)
(-0.00571241 0.167945 0)
(-0.00467036 0.137729 0)
(-0.00644746 0.10245 0)
(-0.011642 0.0614484 0)
(-0.0207901 0.0139561 0)
(-0.0343147 -0.0409293 0)
(-0.0524245 -0.104212 0)
(-0.0749247 -0.17682 0)
(-0.100856 -0.259145 0)
(-0.127894 -0.349949 0)
(-0.15154 -0.444201 0)
(-0.164526 -0.529392 0)
(-0.157314 -0.581088 0)
(-0.121583 -0.561306 0)
(-0.0616067 -0.428949 0)
(-0.0131901 -0.171674 0)
(-0.00215791 0.0605166 0)
(-0.0103497 0.15138 0)
(-0.0222296 0.212343 0)
(-0.0318958 0.249316 0)
(-0.0373546 0.268977 0)
(-0.0383739 0.276849 0)
(-0.0353635 0.276982 0)
(-0.0290166 0.272095 0)
(-0.0201129 0.263837 0)
(-0.00942522 0.253074 0)
(0.00230205 0.240132 0)
(0.0143488 0.224986 0)
(0.02601 0.207388 0)
(0.0365845 0.18696 0)
(0.0453706 0.163243 0)
(0.0516649 0.135716 0)
(0.0547653 0.103792 0)
(0.0539779 0.0667885 0)
(0.0486246 0.0238821 0)
(0.0380613 -0.0259361 0)
(0.0217336 -0.0838947 0)
(-0.000709293 -0.151388 0)
(-0.0291288 -0.22975 0)
(-0.0623091 -0.319507 0)
(-0.0968937 -0.41845 0)
(-0.126059 -0.517451 0)
(-0.138601 -0.593733 0)
(-0.121007 -0.604015 0)
(-0.0698038 -0.488752 0)
(-0.0172499 -0.208186 0)
(-0.0039099 0.0675153 0)
(-0.0161486 0.164054 0)
(-0.0314961 0.223931 0)
(-0.0417012 0.256462 0)
(-0.0448512 0.270775 0)
(-0.0414983 0.27363 0)
(-0.0327882 0.269573 0)
(-0.0199809 0.261445 0)
(-0.00425312 0.250868 0)
(0.0133631 0.238642 0)
(0.0319635 0.225035 0)
(0.0507338 0.209978 0)
(0.0689133 0.193204 0)
(0.0857681 0.174325 0)
(0.100573 0.152881 0)
(0.1126 0.128355 0)
(0.12111 0.100164 0)
(0.125346 0.0676329 0)
(0.124526 0.0299452 0)
(0.117827 -0.0139149 0)
(0.104412 -0.0652418 0)
(0.0834612 -0.125639 0)
(0.0543382 -0.19704 0)
(0.017037 -0.281409 0)
(-0.0267082 -0.379414 0)
(-0.0715952 -0.486594 0)
(-0.106194 -0.584907 0)
(-0.112535 -0.630075 0)
(-0.0776164 -0.545008 0)
(-0.0228349 -0.251019 0)
(-0.0073657 0.0792633 0)
(-0.0262869 0.182093 0)
(-0.0461742 0.237794 0)
(-0.056165 0.262381 0)
(-0.0552459 0.268614 0)
(-0.0454682 0.264657 0)
(-0.0290863 0.255378 0)
(-0.00808986 0.243517 0)
(0.015899 0.230477 0)
(0.0416008 0.216852 0)
(0.0679877 0.202757 0)
(0.0941965 0.188028 0)
(0.11946 0.17234 0)
(0.143055 0.155282 0)
(0.164276 0.136391 0)
(0.182403 0.115161 0)
(0.196692 0.0910356 0)
(0.206351 0.0633792 0)
(0.210521 0.0314357 0)
(0.208235 -0.00573383 0)
(0.198438 -0.0493537 0)
(0.179944 -0.101001 0)
(0.151467 -0.162823 0)
(0.111905 -0.237668 0)
(0.0611276 -0.328632 0)
(0.00192447 -0.436427 0)
(-0.0559544 -0.55068 0)
(-0.0919422 -0.632171 0)
(-0.0829634 -0.591341 0)
(-0.0300308 -0.300835 0)
(-0.013921 0.0996721 0)
(-0.0429483 0.207745 0)
(-0.0665599 0.253436 0)
(-0.0727482 0.264967 0)
(-0.0634168 0.259816 0)
(-0.0431785 0.247286 0)
(-0.0157643 0.232072 0)
(0.0160429 0.216391 0)
(0.0502406 0.201142 0)
(0.0854125 0.186533 0)
(0.120518 0.172421 0)
(0.154745 0.158484 0)
(0.187405 0.144318 0)
(0.21786 0.129477 0)
(0.245476 0.113502 0)
(0.269591 0.0959125 0)
(0.289493 0.0762025 0)
(0.304392 0.0538118 0)
(0.313389 0.028091 0)
(0.315407 -0.00175827 0)
(0.309253 -0.0367583 0)
(0.293473 -0.0783026 0)
(0.266317 -0.128406 0)
(0.225825 -0.190143 0)
(0.170177 -0.268126 0)
(0.0991361 -0.367687 0)
(0.0185133 -0.488112 0)
(-0.0519488 -0.601944 0)
(-0.08087 -0.61821 0)
(-0.0376042 -0.357941 0)
(-0.0254016 0.135291 0)
(-0.0672265 0.241161 0)
(-0.0871446 0.266311 0)
(-0.0793035 0.258118 0)
(-0.0525701 0.238539 0)
(-0.0150693 0.21667 0)
(0.0280946 0.19595 0)
(0.0737235 0.177402 0)
(0.119831 0.161055 0)
(0.165195 0.146552 0)
(0.209032 0.133411 0)
(0.250782 0.121128 0)
(0.289984 0.109214 0)
(0.326193 0.0972069 0)
(0.358932 0.0846676 0)
(0.387665 0.0711722 0)
(0.411765 0.0562947 0)
(0.430497 0.0395845 0)
(0.442977 0.0205357 0)
(0.448113 -0.00146855 0)
(0.444648 -0.0271273 0)
(0.430968 -0.0575513 0)
(0.405075 -0.0943746 0)
(0.364475 -0.140307 0)
(0.306093 -0.200202 0)
(0.226766 -0.282257 0)
(0.127045 -0.395452 0)
(0.020133 -0.530864 0)
(-0.0612669 -0.612337 0)
(-0.0409243 -0.4216 0)
(-0.0412564 0.197454 0)
(-0.0901464 0.272899 0)
(-0.0798507 0.259319 0)
(-0.036444 0.226191 0)
(0.0211268 0.193113 0)
(0.0831724 0.164905 0)
(0.145149 0.142075 0)
(0.204884 0.123801 0)
(0.26142 0.109025 0)
(0.314409 0.096809 0)
(0.363758 0.0863893 0)
(0.409443 0.0771489 0)
(0.451414 0.0685822 0)
(0.489541 0.0602661 0)
(0.523597 0.0518363 0)
(0.553236 0.0429674 0)
(0.577982 0.033354 0)
(0.597223 0.0226917 0)
(0.610156 0.0106522 0)
(0.615844 -0.00317919 0)
(0.613075 -0.0191796 0)
(0.600218 -0.0380595 0)
(0.575291 -0.0609047 0)
(0.535632 -0.0896285 0)
(0.477513 -0.128077 0)
(0.395639 -0.18441 0)
(0.284718 -0.273876 0)
(0.145691 -0.410575 0)
(-0.00354787 -0.553976 0)
(-0.0254279 -0.477457 0)
(-0.034084 0.293837 0)
(-0.0477677 0.272759 0)
(0.053939 0.199641 0)
(0.156999 0.149687 0)
(0.249805 0.114772 0)
(0.331833 0.0898112 0)
(0.404031 0.0721241 0)
(0.467612 0.0594855 0)
(0.523876 0.0501872 0)
(0.57398 0.043075 0)
(0.618821 0.0373878 0)
(0.65903 0.0326052 0)
(0.695006 0.028354 0)
(0.72695 0.0243554 0)
(0.754883 0.020392 0)
(0.778667 0.016285 0)
(0.798012 0.0118788 0)
(0.812491 0.00703111 0)
(0.821446 0.00159427 0)
(0.82425 -0.00448484 0)
(0.819927 -0.0115492 0)
(0.807143 -0.0198623 0)
(0.784267 -0.0298813 0)
(0.748975 -0.0425309 0)
(0.697661 -0.0598506 0)
(0.62423 -0.0869139 0)
(0.518431 -0.137231 0)
(0.36508 -0.24032 0)
(0.144084 -0.406989 0)
(0.0588503 -0.458305 0)
(0.303239 0.18092 0)
(0.382519 0.144283 0)
(0.560793 0.0911293 0)
(0.686596 0.058974 0)
(0.769284 0.0393315 0)
(0.828877 0.0268345 0)
(0.874741 0.0189248 0)
(0.911255 0.0139269 0)
(0.941147 0.0106937 0)
(0.966246 0.00850956 0)
(0.987713 0.00694769 0)
(1.00626 0.00574996 0)
(1.02231 0.00475481 0)
(1.03608 0.00385714 0)
(1.04765 0.0029854 0)
(1.05698 0.00208788 0)
(1.06395 0.00112305 0)
(1.06836 5.98858e-05 0)
(1.06995 -0.00114513 0)
(1.06835 -0.002384 0)
(1.063 -0.00386523 0)
(1.05344 -0.00562389 0)
(1.03886 -0.00773162 0)
(1.01808 -0.0103936 0)
(0.989044 -0.0141069 0)
(0.947633 -0.020213 0)
(0.884055 -0.0326018 0)
(0.776389 -0.0637725 0)
(0.544831 -0.139476 0)
(0.382491 -0.201741 0)
)
;

boundaryField
{
    movingWall
    {
        type            fixedValue;
        value           uniform (1.2 0 0);
    }
    fixedWalls
    {
        type            noSlip;
    }
    frontAndBack
    {
        type            empty;
    }
}


// ************************************************************************* //
