/*--------------------------------*- C++ -*----------------------------------*\
  =========                 |
  \\      /  F ield         | OpenFOAM: The Open Source CFD Toolbox
   \\    /   O peration     | Website:  https://openfoam.org
    \\  /    A nd           | Version:  7
     \\/     M anipulation  |
\*---------------------------------------------------------------------------*/
FoamFile
{
    version     2.0;
    format      ascii;
    class       volScalarField;
    location    "8.8";
    object      p;
}
// * * * * * * * * * * * * * * * * * * * * * * * * * * * * * * * * * * * * * //

dimensions      [0 2 -2 0 0 0 0];

internalField   nonuniform List<scalar> 
900
(
-9.98424e-07
-0.000351659
-0.000927154
-0.00154822
-0.0021046
-0.00253153
-0.00279544
-0.00287988
-0.00277487
-0.00247231
-0.00196558
-0.00125206
-0.000337095
0.000761639
0.00201042
0.00335743
0.00473298
0.0060531
0.00722626
0.00816306
0.00878789
0.00905086
0.0089377
0.0084759
0.00773569
0.00682375
0.00587347
0.0050434
0.00449625
0.00435761
0.000345835
-1.78954e-05
-0.000458725
-0.000916051
-0.00132459
-0.00163778
-0.0018293
-0.00188363
-0.00178959
-0.00153799
-0.0011217
-0.000537606
0.000210444
0.0011083
0.00212844
0.0032282
0.00435208
0.0054305
0.00638875
0.00715415
0.00766582
0.00788466
0.00780152
0.00744154
0.00686386
0.00615657
0.00542652
0.00477651
0.00434288
0.00421658
0.000943637
0.00040753
-4.84375e-05
-0.000458952
-0.000810113
-0.00107421
-0.0012361
-0.00128627
-0.00121568
-0.00101488
-0.000675073
-0.000190231
0.000439847
0.00120615
0.00208745
0.00304891
0.00404039
0.00499997
0.00585876
0.00654853
0.00701123
0.00720892
0.00713174
0.0068021
0.00627362
0.00562503
0.00494979
0.0043426
0.00389785
0.0036855
0.001614
0.000843358
0.000307005
-0.000115001
-0.000456856
-0.000709383
-0.000870223
-0.000937904
-0.00090662
-0.000766691
-0.000506528
-0.000115446
0.00041274
0.00107577
0.0018593
0.00273427
0.00365535
0.00456317
0.0053889
0.00606192
0.00651996
0.00671982
0.00664639
0.00631749
0.0057829
0.00511735
0.00440999
0.0037525
0.00321888
0.00284462
0.00221078
0.00118772
0.000547517
8.75223e-05
-0.000271775
-0.000538282
-0.000721949
-0.000829078
-0.00085671
-0.000794163
-0.000625928
-0.000335223
9.16788e-05
0.000660683
0.00136519
0.00218226
0.00307099
0.0039724
0.00481457
0.00552025
0.00601778
0.0062533
0.00620155
0.0058724
0.00531076
0.00458947
0.00379881
0.00303434
0.00235975
0.00177126
0.00261081
0.00133797
0.000585024
7.06844e-05
-0.000326768
-0.000630625
-0.000861769
-0.00103305
-0.00114322
-0.00117945
-0.00112101
-0.000943548
-0.000624199
-0.000147265
0.000489877
0.00127157
0.00216153
0.0031005
0.00401155
0.00480723
0.00540143
0.00572346
0.00573152
0.00542212
0.00483227
0.00403333
0.00312114
0.00220305
0.00134053
0.000497357
0.0027061
0.0011993
0.000334059
-0.000244177
-0.000696202
-0.00105916
-0.0013633
-0.00162644
-0.00184768
-0.00201071
-0.00208821
-0.00204669
-0.0018523
-0.00147743
-0.000907952
-0.000150063
0.00076692
0.00178406
0.00281893
0.00377124
0.00453537
0.00501655
0.00514792
0.00490445
0.00430928
0.00343038
0.0023724
0.00126253
0.000169148
-0.000971718
0.00240119
0.000684577
-0.000286563
-0.000933918
-0.00145432
-0.00189757
-0.00230179
-0.00268834
-0.00305534
-0.00338177
-0.00363238
-0.00376295
-0.00372648
-0.00348073
-0.00299668
-0.00226729
-0.00131011
-0.000181592
0.00103203
0.0022165
0.00324198
0.00398131
0.0043314
0.00423367
0.00368727
0.00275124
0.00154022
0.000209103
-0.00115772
-0.00264938
0.00161146
-0.000284781
-0.00135207
-0.00207194
-0.00267395
-0.0032196
-0.00375372
-0.00430004
-0.00485475
-0.00539126
-0.00586532
-0.00622034
-0.00639392
-0.00632577
-0.00596702
-0.00529038
-0.00430098
-0.00304165
-0.00159922
-0.000101069
0.00129535
0.00242161
0.00312455
0.00329521
0.00289263
0.00195575
0.000606738
-0.00096463
-0.00264869
-0.00455893
0.000264519
-0.00177605
-0.00292779
-0.00372318
-0.00442064
-0.00509251
-0.00578954
-0.00653715
-0.00732922
-0.00813319
-0.0088952
-0.00954508
-0.0100026
-0.0101858
-0.0100203
-0.00945152
-0.00846289
-0.00707528
-0.0053679
-0.00347623
-0.00158588
8.56255e-05
0.0013193
0.00193374
0.0018238
0.000988599
-0.000451174
-0.00226583
-0.00431085
-0.00672428
-0.00169664
-0.00384173
-0.00506487
-0.00593885
-0.00674627
-0.00756961
-0.00846508
-0.00945968
-0.0105452
-0.0116836
-0.0128113
-0.013844
-0.0146816
-0.0152165
-0.0153438
-0.0149744
-0.0140535
-0.0125733
-0.0105918
-0.00824221
-0.00573339
-0.00333608
-0.00135047
-5.67927e-05
0.000342244
-0.00022604
-0.00166228
-0.00369731
-0.00614245
-0.00916053
-0.00430973
-0.006516
-0.00779634
-0.00875155
-0.00968304
-0.0106828
-0.0118124
-0.013101
-0.0145393
-0.0160846
-0.0176649
-0.0191816
-0.0205139
-0.0215254
-0.022075
-0.0220304
-0.0212881
-0.0197959
-0.0175737
-0.014736
-0.0115028
-0.00819458
-0.00520322
-0.00293538
-0.00173339
-0.00178911
-0.00306122
-0.00525277
-0.00812446
-0.0118635
-0.00758954
-0.00981167
-0.0111338
-0.012171
-0.0132379
-0.0144354
-0.0158308
-0.0174566
-0.0193038
-0.0213275
-0.0234485
-0.0255554
-0.0275063
-0.029135
-0.0302594
-0.0306967
-0.0302838
-0.028911
-0.0265374
-0.0232371
-0.0192194
-0.0148398
-0.0105817
-0.00700022
-0.00462384
-0.00382722
-0.00468698
-0.00691032
-0.0102098
-0.0147965
-0.0115254
-0.0137184
-0.0150652
-0.0161815
-0.0173885
-0.0187963
-0.0204791
-0.0224738
-0.0247748
-0.0273368
-0.0300764
-0.0328713
-0.0355603
-0.0379468
-0.0398067
-0.0409025
-0.0410054
-0.0399244
-0.0375483
-0.0338822
-0.0290944
-0.0235457
-0.017794
-0.0125494
-0.00856828
-0.00648339
-0.0065767
-0.0086229
-0.0123092
-0.0178736
-0.0160803
-0.0182028
-0.0195555
-0.0207406
-0.0220813
-0.0236969
-0.0256702
-0.0280457
-0.030823
-0.0339601
-0.0373722
-0.0409289
-0.0444522
-0.0477176
-0.0504595
-0.0523849
-0.0531945
-0.0526112
-0.050434
-0.0465743
-0.0411244
-0.0344092
-0.0270216
-0.0198086
-0.0137765
-0.00989038
-0.00875011
-0.0103031
-0.0142715
-0.0209359
-0.0211933
-0.0232117
-0.024549
-0.0257824
-0.0272326
-0.0290306
-0.031271
-0.0340087
-0.0372525
-0.0409663
-0.0450671
-0.0494196
-0.0538324
-0.058056
-0.0617875
-0.0646817
-0.0663688
-0.0664827
-0.0647335
-0.0609119
-0.0550018
-0.0472442
-0.0382092
-0.0288302
-0.0203502
-0.0141193
-0.0111787
-0.0117997
-0.0158575
-0.023722
-0.0267839
-0.028678
-0.0299758
-0.0312217
-0.0327332
-0.0346572
-0.0371053
-0.0401479
-0.0438064
-0.0480543
-0.0528125
-0.0579437
-0.0632457
-0.0684487
-0.073217
-0.077159
-0.0798405
-0.0808068
-0.0797079
-0.0761769
-0.0700725
-0.0615085
-0.0509649
-0.0393821
-0.0281803
-0.0191013
-0.0137343
-0.0128619
-0.0167055
-0.0258291
-0.0327609
-0.0345307
-0.0357614
-0.0369632
-0.0384555
-0.0404094
-0.0429623
-0.0462069
-0.050182
-0.0548728
-0.0602062
-0.066044
-0.0721755
-0.0783135
-0.0840949
-0.0890885
-0.0928159
-0.0947815
-0.0944342
-0.0913997
-0.0853731
-0.0763023
-0.0645146
-0.0508636
-0.0368432
-0.0245303
-0.0161172
-0.0130892
-0.0162866
-0.0266643
-0.0390344
-0.0407087
-0.0418388
-0.0429114
-0.0442621
-0.0461017
-0.0486074
-0.0519032
-0.0560506
-0.0610482
-0.0668289
-0.0732529
-0.0801009
-0.0870697
-0.0937728
-0.099746
-0.104467
-0.107376
-0.10789
-0.105492
-0.0997553
-0.090462
-0.0777463
-0.0622897
-0.0455338
-0.0297699
-0.0177675
-0.0118644
-0.0138481
-0.0253835
-0.0455326
-0.0471795
-0.0481643
-0.0489816
-0.0500145
-0.0515396
-0.0537939
-0.056945
-0.0610816
-0.0662162
-0.0722848
-0.079143
-0.0865595
-0.094214
-0.101698
-0.108517
-0.114115
-0.117883
-0.119194
-0.117437
-0.112076
-0.102736
-0.0893499
-0.0723712
-0.0530722
-0.0337981
-0.0177798
-0.00827224
-0.00834293
-0.0208091
-0.0522276
-0.0539654
-0.0547355
-0.0551095
-0.0555786
-0.0565257
-0.058274
-0.0610482
-0.0649671
-0.0700535
-0.0762409
-0.0833727
-0.0911993
-0.0993771
-0.107482
-0.114976
-0.121279
-0.125744
-0.127691
-0.126446
-0.121382
-0.111991
-0.0980192
-0.0796817
-0.0580029
-0.0352211
-0.0148469
-0.00101143
0.00165896
-0.0113123
-0.059179
-0.0611822
-0.0616127
-0.061258
-0.0608257
-0.0608623
-0.0618074
-0.0639528
-0.0674444
-0.0723065
-0.0784583
-0.0857199
-0.0938125
-0.102356
-0.110941
-0.118922
-0.125741
-0.130689
-0.133035
-0.132057
-0.127044
-0.11738
-0.102655
-0.082867
-0.0587688
-0.0323703
-0.00725955
0.0116811
0.0180796
0.00537042
-0.0666206
-0.0691012
-0.0689446
-0.0674196
-0.0656289
-0.0643526
-0.0641704
-0.0654394
-0.0683184
-0.0728145
-0.078817
-0.0861052
-0.0943643
-0.10318
-0.112057
-0.120388
-0.127516
-0.132705
-0.135179
-0.134139
-0.128796
-0.118436
-0.102513
-0.0808495
-0.0539212
-0.0234777
0.007009
0.0320668
0.0434796
0.0324397
-0.0751457
-0.0782558
-0.0770021
-0.0736151
-0.0698574
-0.0668039
-0.0651696
-0.0653498
-0.0674839
-0.071532
-0.0773245
-0.0845866
-0.0929487
-0.101948
-0.111033
-0.119564
-0.126823
-0.132024
-0.134323
-0.132843
-0.1267
-0.115069
-0.0972788
-0.0729941
-0.0423581
-0.00696428
0.0300782
0.0628634
0.0812735
0.0745228
-0.0861324
-0.0896275
-0.0862119
-0.0798853
-0.0733739
-0.0680378
-0.064661
-0.0636085
-0.064942
-0.0685309
-0.0741189
-0.0813541
-0.0897995
-0.0989336
-0.108151
-0.116758
-0.123983
-0.128972
-0.130804
-0.128507
-0.121073
-0.107547
-0.087085
-0.0591415
-0.0237202
0.0181032
0.0636665
0.107008
0.135907
0.138181
-0.102737
-0.104984
-0.0971652
-0.0862551
-0.076014
-0.0678834
-0.0625463
-0.0602134
-0.0607826
-0.0639781
-0.0694242
-0.0766731
-0.0852104
-0.0944509
-0.103732
-0.112308
-0.119346
-0.123924
-0.125039
-0.121613
-0.112474
-0.0965101
-0.0726527
-0.0400701
0.00157474
0.051713
0.108344
0.16687
0.212399
0.231849
-0.132116
-0.127412
-0.110667
-0.0927377
-0.0775743
-0.0661527
-0.0587408
-0.0551996
-0.0551459
-0.0580928
-0.0635126
-0.070848
-0.0795041
-0.0888336
-0.0981219
-0.106574
-0.113305
-0.117332
-0.117572
-0.112839
-0.101805
-0.0831416
-0.0554877
-0.0175882
0.0314969
0.092092
0.163591
0.242425
0.314592
0.367163
-0.190419
-0.160485
-0.127263
-0.0989638
-0.0774383
-0.0623473
-0.0529846
-0.0485313
-0.0481631
-0.0511178
-0.0566971
-0.0642365
-0.0730711
-0.082506
-0.0917897
-0.100094
-0.106496
-0.109964
-0.109353
-0.103379
-0.0906806
-0.0696156
-0.0384856
0.00453596
0.0613755
0.133959
0.22412
0.33118
0.444621
0.570912
-0.321527
-0.200219
-0.138752
-0.0974481
-0.0698009
-0.0522764
-0.0423933
-0.0382518
-0.0384848
-0.0420992
-0.0482982
-0.0563721
-0.0656369
-0.0753903
-0.0848792
-0.0932742
-0.0996504
-0.102967
-0.10205
-0.0954802
-0.0820064
-0.0597777
-0.0268067
0.0192961
0.0816454
0.164605
0.274654
0.420324
0.60864
0.898154
-0.648927
-0.236722
-0.107332
-0.0624833
-0.0379338
-0.024233
-0.0184871
-0.0180492
-0.0212457
-0.0271619
-0.0351649
-0.044682
-0.055132
-0.0658918
-0.0762692
-0.0854816
-0.0926405
-0.0967411
-0.0966732
-0.0912743
-0.0787493
-0.0575657
-0.0257266
0.0193623
0.0813942
0.166592
0.287402
0.472167
0.778299
1.37215
)
;

boundaryField
{
    movingWall
    {
        type            zeroGradient;
    }
    fixedWalls
    {
        type            zeroGradient;
    }
    frontAndBack
    {
        type            empty;
    }
}


// ************************************************************************* //
