/*--------------------------------*- C++ -*----------------------------------*\
  =========                 |
  \\      /  F ield         | OpenFOAM: The Open Source CFD Toolbox
   \\    /   O peration     | Website:  https://openfoam.org
    \\  /    A nd           | Version:  7
     \\/     M anipulation  |
\*---------------------------------------------------------------------------*/
FoamFile
{
    version     2.0;
    format      ascii;
    class       volVectorField;
    location    "8.8";
    object      U;
}
// * * * * * * * * * * * * * * * * * * * * * * * * * * * * * * * * * * * * * //

dimensions      [0 1 -1 0 0 0 0];

internalField   nonuniform List<vector> 
900
(
(0.000163578 -0.000162357 0)
(0.000290005 -6.99834e-05 0)
(-3.2464e-05 9.82629e-05 0)
(-0.000812497 0.000246394 0)
(-0.00195802 0.000353559 0)
(-0.00336439 0.000422472 0)
(-0.00493724 0.000462473 0)
(-0.00659918 0.000481733 0)
(-0.00828629 0.000484832 0)
(-0.0099407 0.000472854 0)
(-0.0115039 0.000444364 0)
(-0.0129127 0.000396631 0)
(-0.0140984 0.000326888 0)
(-0.0149892 0.000233531 0)
(-0.0155154 0.000117185 0)
(-0.0156168 -1.85606e-05 0)
(-0.0152512 -0.000167138 0)
(-0.0144042 -0.000317961 0)
(-0.0130962 -0.000457995 0)
(-0.0113878 -0.000572886 0)
(-0.0093796 -0.00064878 0)
(-0.00720732 -0.00067451 0)
(-0.00503088 -0.000643638 0)
(-0.00301856 -0.000555953 0)
(-0.00132746 -0.000418251 0)
(-8.39502e-05 -0.000245054 0)
(0.000631993 -5.79573e-05 0)
(0.000809301 0.000116853 0)
(0.00055501 0.00022283 0)
(0.000171402 0.00017027 0)
(7.85322e-05 -0.000297225 0)
(-0.000300686 0.00029823 0)
(-0.00173388 0.00113552 0)
(-0.00413452 0.00188904 0)
(-0.00733782 0.00246849 0)
(-0.011141 0.00286671 0)
(-0.0153388 0.00310653 0)
(-0.019744 0.00321325 0)
(-0.0241871 0.00320265 0)
(-0.028507 0.00307899 0)
(-0.0325419 0.00283768 0)
(-0.0361243 0.00247029 0)
(-0.0390814 0.00197008 0)
(-0.0412422 0.00133752 0)
(-0.0424494 0.00058474 0)
(-0.0425764 -0.000261303 0)
(-0.0415436 -0.00115712 0)
(-0.0393367 -0.00204431 0)
(-0.0360215 -0.00285347 0)
(-0.0317511 -0.00351086 0)
(-0.0267638 -0.0039474 0)
(-0.0213713 -0.00410889 0)
(-0.0159352 -0.0039657 0)
(-0.0108334 -0.00352021 0)
(-0.00641909 -0.0028109 0)
(-0.00297649 -0.00191395 0)
(-0.000676352 -0.000942492 0)
(0.000451581 -4.6857e-05 0)
(0.000594851 0.000559468 0)
(0.000230859 0.000552434 0)
(-0.000106053 3.03583e-05 0)
(-0.00124394 0.00175396 0)
(-0.00403742 0.00380239 0)
(-0.00816102 0.005632 0)
(-0.0133584 0.0070644 0)
(-0.0193614 0.00806829 0)
(-0.0258907 0.00867369 0)
(-0.0326805 0.0089221 0)
(-0.0394808 0.00884124 0)
(-0.0460482 0.00843874 0)
(-0.052138 0.00770675 0)
(-0.0575005 0.00663226 0)
(-0.0618847 0.00520943 0)
(-0.0650492 0.00345154 0)
(-0.066779 0.00140072 0)
(-0.0669057 -0.000865664 0)
(-0.0653305 -0.00323264 0)
(-0.0620456 -0.00555302 0)
(-0.0571513 -0.00765622 0)
(-0.0508636 -0.0093642 0)
(-0.0435127 -0.0105121 0)
(-0.0355271 -0.0109715 0)
(-0.0274042 -0.0106728 0)
(-0.0196671 -0.00962292 0)
(-0.0128106 -0.00791655 0)
(-0.00724162 -0.00573824 0)
(-0.0032207 -0.00336075 0)
(-0.000813128 -0.00114464 0)
(0.000163586 0.000464905 0)
(0.000167257 0.00085799 0)
(-0.000301861 0.000912202 0)
(-0.00226191 0.00439854 0)
(-0.00651092 0.00805908 0)
(-0.0124055 0.0112428 0)
(-0.0195632 0.0137217 0)
(-0.0276502 0.015455 0)
(-0.0363265 0.0164832 0)
(-0.0452679 0.0168626 0)
(-0.0541649 0.0166303 0)
(-0.0627129 0.0157956 0)
(-0.0706044 0.0143474 0)
(-0.0775281 0.0122708 0)
(-0.0831748 0.00956682 0)
(-0.087251 0.00627103 0)
(-0.0894981 0.00246873 0)
(-0.0897158 -0.00169591 0)
(-0.0877863 -0.00601873 0)
(-0.0836986 -0.0102421 0)
(-0.0775665 -0.0140715 0)
(-0.0696395 -0.0172012 0)
(-0.0603033 -0.0193475 0)
(-0.050065 -0.0202871 0)
(-0.0395224 -0.0198947 0)
(-0.0293163 -0.0181751 0)
(-0.0200677 -0.0152838 0)
(-0.0123069 -0.0115319 0)
(-0.00640035 -0.00738018 0)
(-0.00248639 -0.00342431 0)
(-0.00044377 -0.000377726 0)
(7.05312e-05 0.000874516 0)
(-0.000487001 0.00234729 0)
(-0.00326126 0.00826066 0)
(-0.00896873 0.0139224 0)
(-0.0166187 0.018687 0)
(-0.0256832 0.0223403 0)
(-0.0357563 0.0248645 0)
(-0.0464434 0.0263245 0)
(-0.0573745 0.0267948 0)
(-0.0681974 0.0263216 0)
(-0.0785642 0.0249141 0)
(-0.0881231 0.0225577 0)
(-0.0965183 0.0192375 0)
(-0.103397 0.0149649 0)
(-0.108425 0.00980336 0)
(-0.111305 0.00388802 0)
(-0.111804 -0.00256248 0)
(-0.109773 -0.00924502 0)
(-0.105178 -0.0157803 0)
(-0.0981199 -0.0217357 0)
(-0.088851 -0.02666 0)
(-0.0777799 -0.0301291 0)
(-0.0654646 -0.0318002 0)
(-0.0525847 -0.0314689 0)
(-0.0398925 -0.0291188 0)
(-0.028144 -0.0249563 0)
(-0.018015 -0.0194221 0)
(-0.0100111 -0.0131791 0)
(-0.00438409 -0.00707898 0)
(-0.0011146 -0.00211809 0)
(-2.57858e-05 0.000544846 0)
(-0.000656255 0.00430816 0)
(-0.0042028 0.0133108 0)
(-0.0113118 0.021365 0)
(-0.0206484 0.0279266 0)
(-0.0315339 0.0328613 0)
(-0.0434886 0.0362151 0)
(-0.0560675 0.0380988 0)
(-0.0688645 0.0386147 0)
(-0.0814983 0.0378198 0)
(-0.0935933 0.0357234 0)
(-0.104769 0.0323066 0)
(-0.114639 0.0275536 0)
(-0.122819 0.0214863 0)
(-0.128939 0.0141956 0)
(-0.132664 0.00586659 0)
(-0.133715 -0.00320787 0)
(-0.131899 -0.0126242 0)
(-0.127133 -0.0218766 0)
(-0.119472 -0.0303847 0)
(-0.109138 -0.0375335 0)
(-0.0965295 -0.0427323 0)
(-0.0822312 -0.0454855 0)
(-0.0669917 -0.0454722 0)
(-0.0516796 -0.0426203 0)
(-0.0372081 -0.037163 0)
(-0.0244364 -0.0296624 0)
(-0.0140562 -0.020993 0)
(-0.00647904 -0.0122869 0)
(-0.00182625 -0.00485011 0)
(-0.000115613 -0.000139403 0)
(-0.000808925 0.00675584 0)
(-0.00506653 0.0194773 0)
(-0.0134779 0.0303013 0)
(-0.0243876 0.0388658 0)
(-0.0369732 0.0451795 0)
(-0.0506845 0.0493951 0)
(-0.065032 0.051695 0)
(-0.0795826 0.0522216 0)
(-0.0939379 0.0510485 0)
(-0.107708 0.0481856 0)
(-0.120498 0.0436081 0)
(-0.131903 0.0372963 0)
(-0.141514 0.0292778 0)
(-0.148931 0.0196651 0)
(-0.153775 0.00868482 0)
(-0.155716 -0.00330389 0)
(-0.154491 -0.0158036 0)
(-0.149941 -0.0281847 0)
(-0.142044 -0.0397122 0)
(-0.130951 -0.0495903 0)
(-0.117018 -0.05703 0)
(-0.100824 -0.0613384 0)
(-0.0831719 -0.0620246 0)
(-0.0650509 -0.0589072 0)
(-0.0475586 -0.0522031 0)
(-0.0317858 -0.0425741 0)
(-0.0186702 -0.0311131 0)
(-0.00884107 -0.0192633 0)
(-0.00260506 -0.0086879 0)
(-0.000204097 -0.00119493 0)
(-0.000943901 0.00964332 0)
(-0.00583592 0.0266607 0)
(-0.0154165 0.0406052 0)
(-0.0277461 0.051367 0)
(-0.0418737 0.0591546 0)
(-0.0571868 0.0642685 0)
(-0.0731592 0.0669893 0)
(-0.0893402 0.0675149 0)
(-0.105325 0.0659419 0)
(-0.120722 0.0622826 0)
(-0.135133 0.056504 0)
(-0.148147 0.0485771 0)
(-0.15934 0.0385264 0)
(-0.168282 0.0264736 0)
(-0.174552 0.0126717 0)
(-0.177753 -0.00247031 0)
(-0.17754 -0.0183743 0)
(-0.17365 -0.034298 0)
(-0.165949 -0.0493519 0)
(-0.154479 -0.0625434 0)
(-0.139507 -0.0728511 0)
(-0.121569 -0.0793303 0)
(-0.101495 -0.0812496 0)
(-0.0803866 -0.0782405 0)
(-0.0595486 -0.0704358 0)
(-0.0403554 -0.0585557 0)
(-0.0240633 -0.0439099 0)
(-0.0115947 -0.0282931 0)
(-0.00350253 -0.0137952 0)
(-0.000301367 -0.00266224 0)
(-0.0010585 0.0129152 0)
(-0.00649229 0.0347369 0)
(-0.0170774 0.0521167 0)
(-0.0306357 0.065256 0)
(-0.0461083 0.0746119 0)
(-0.062831 0.0806704 0)
(-0.0802505 0.0838356 0)
(-0.0979075 0.0843767 0)
(-0.115401 0.0824219 0)
(-0.132348 0.0779876 0)
(-0.14836 0.0710303 0)
(-0.16303 0.0615044 0)
(-0.175928 0.0494193 0)
(-0.186602 0.0348887 0)
(-0.194587 0.0181713 0)
(-0.199418 -0.000297625 0)
(-0.200655 -0.0198829 0)
(-0.197915 -0.0397481 0)
(-0.190919 -0.0588568 0)
(-0.179557 -0.0760116 0)
(-0.163958 -0.0899264 0)
(-0.144562 -0.0993457 0)
(-0.122176 -0.103211 0)
(-0.0979871 -0.100862 0)
(-0.0735127 -0.0922463 0)
(-0.0504574 -0.0780701 0)
(-0.0304797 -0.0598408 0)
(-0.0148919 -0.0397491 0)
(-0.0045822 -0.0204049 0)
(-0.000419462 -0.00461399 0)
(-0.00114887 0.0165054 0)
(-0.00701457 0.0435568 0)
(-0.0184084 0.0646415 0)
(-0.0329668 0.0803197 0)
(-0.0495461 0.0913367 0)
(-0.067443 0.0983955 0)
(-0.0860858 0.102047 0)
(-0.105015 0.102649 0)
(-0.123843 0.100368 0)
(-0.142204 0.0952287 0)
(-0.159731 0.0871751 0)
(-0.176033 0.0761369 0)
(-0.190684 0.0620947 0)
(-0.203221 0.0451349 0)
(-0.213147 0.0254971 0)
(-0.21993 0.00361342 0)
(-0.223037 -0.0198582 0)
(-0.221952 -0.044012 0)
(-0.216232 -0.0676861 0)
(-0.205578 -0.0894827 0)
(-0.189928 -0.107831 0)
(-0.169554 -0.121107 0)
(-0.145167 -0.127829 0)
(-0.117979 -0.126916 0)
(-0.0896929 -0.117986 0)
(-0.0623723 -0.101609 0)
(-0.0381646 -0.0794381 0)
(-0.0188948 -0.054096 0)
(-0.00591326 -0.0288283 0)
(-0.000571273 -0.00715907 0)
(-0.0012107 0.0203361 0)
(-0.00738148 0.0529454 0)
(-0.0193588 0.0779515 0)
(-0.0346525 0.0963056 0)
(-0.0520585 0.10907 0)
(-0.0708461 0.11719 0)
(-0.0904335 0.121384 0)
(-0.110368 0.12211 0)
(-0.13028 0.119588 0)
(-0.149833 0.113855 0)
(-0.168689 0.104838 0)
(-0.186486 0.0924374 0)
(-0.202817 0.0765914 0)
(-0.217226 0.0573396 0)
(-0.229195 0.0348759 0)
(-0.238149 0.00959669 0)
(-0.243469 -0.0178543 0)
(-0.244516 -0.0465416 0)
(-0.240676 -0.0752145 0)
(-0.231435 -0.102299 0)
(-0.216484 -0.12594 0)
(-0.195851 -0.144105 0)
(-0.17005 -0.154796 0)
(-0.140214 -0.156359 0)
(-0.108157 -0.147888 0)
(-0.0762934 -0.129635 0)
(-0.0473345 -0.103279 0)
(-0.0237631 -0.0718822 0)
(-0.00756756 -0.0394564 0)
(-0.000770523 -0.0104444 0)
(-0.00124017 0.0243181 0)
(-0.00757473 0.0627046 0)
(-0.0198854 0.0917874 0)
(-0.0356172 0.112923 0)
(-0.0535304 0.127508 0)
(-0.0728763 0.136745 0)
(-0.093069 0.141539 0)
(-0.113666 0.142465 0)
(-0.134323 0.139802 0)
(-0.154738 0.133607 0)
(-0.174613 0.123796 0)
(-0.193624 0.110232 0)
(-0.211404 0.0928023 0)
(-0.22752 0.0714819 0)
(-0.241464 0.0463949 0)
(-0.252643 0.0178694 0)
(-0.260385 -0.0135043 0)
(-0.263949 -0.0468119 0)
(-0.262566 -0.0807676 0)
(-0.2555 -0.113672 0)
(-0.242155 -0.143414 0)
(-0.222233 -0.16755 0)
(-0.195932 -0.183489 0)
(-0.16416 -0.188849 0)
(-0.128707 -0.181964 0)
(-0.0922634 -0.162494 0)
(-0.0581428 -0.131931 0)
(-0.0296418 -0.0937175 0)
(-0.00961769 -0.052756 0)
(-0.00103216 -0.0146557 0)
(-0.00123485 0.0283534 0)
(-0.00758291 0.0726182 0)
(-0.0199602 0.105865 0)
(-0.0358092 0.12985 0)
(-0.0538764 0.146303 0)
(-0.0734027 0.156699 0)
(-0.0938015 0.162139 0)
(-0.114644 0.163329 0)
(-0.135611 0.160623 0)
(-0.15644 0.154103 0)
(-0.176882 0.14368 0)
(-0.196667 0.129182 0)
(-0.215481 0.110439 0)
(-0.232941 0.0873505 0)
(-0.248581 0.0599521 0)
(-0.261829 0.0284756 0)
(-0.272001 -0.00658296 0)
(-0.278305 -0.044389 0)
(-0.279852 -0.0836867 0)
(-0.2757 -0.122729 0)
(-0.264955 -0.159225 0)
(-0.246929 -0.190354 0)
(-0.221381 -0.212912 0)
(-0.188812 -0.223649 0)
(-0.150784 -0.219878 0)
(-0.1101 -0.200303 0)
(-0.0706376 -0.165876 0)
(-0.0366455 -0.120234 0)
(-0.0121347 -0.0692586 0)
(-0.00137287 -0.0200183 0)
(-0.00119456 0.0323399 0)
(-0.00740561 0.0824615 0)
(-0.0195799 0.119884 0)
(-0.0352144 0.146737 0)
(-0.0530604 0.165073 0)
(-0.0723531 0.176639 0)
(-0.0925061 0.182742 0)
(-0.113103 0.184234 0)
(-0.133855 0.181556 0)
(-0.15454 0.174831 0)
(-0.174963 0.16397 0)
(-0.19492 0.148773 0)
(-0.214169 0.129015 0)
(-0.232405 0.104518 0)
(-0.249235 0.0752184 0)
(-0.264155 0.0412307 0)
(-0.276528 0.00292059 0)
(-0.285564 -0.0390111 0)
(-0.290316 -0.0834177 0)
(-0.289692 -0.128608 0)
(-0.282521 -0.172223 0)
(-0.267697 -0.21117 0)
(-0.244435 -0.241673 0)
(-0.212643 -0.259544 0)
(-0.173387 -0.260819 0)
(-0.129315 -0.242806 0)
(-0.0847086 -0.205391 0)
(-0.0448363 -0.152022 0)
(-0.0151848 -0.0895396 0)
(-0.00181157 -0.0267958 0)
(-0.00112232 0.0361789 0)
(-0.00705758 0.0920156 0)
(-0.0187748 0.133548 0)
(-0.0338711 0.163229 0)
(-0.0511157 0.183413 0)
(-0.069739 0.196112 0)
(-0.0891559 0.202851 0)
(-0.108963 0.204636 0)
(-0.128898 0.202013 0)
(-0.148785 0.19516 0)
(-0.16849 0.184003 0)
(-0.187885 0.168326 0)
(-0.206814 0.147857 0)
(-0.225074 0.122346 0)
(-0.24238 0.0916305 0)
(-0.25834 0.0556986 0)
(-0.272419 0.0147602 0)
(-0.283902 -0.0306625 0)
(-0.291863 -0.0796123 0)
(-0.295142 -0.130572 0)
(-0.292355 -0.181267 0)
(-0.282006 -0.228497 0)
(-0.262714 -0.268049 0)
(-0.233629 -0.294826 0)
(-0.195034 -0.303405 0)
(-0.149045 -0.28923 0)
(-0.100027 -0.250413 0)
(-0.0541963 -0.189546 0)
(-0.0188232 -0.114187 0)
(-0.00236976 -0.0352878 0)
(-0.001025 0.0397842 0)
(-0.00657278 0.101086 0)
(-0.0176184 0.146582 0)
(-0.0318849 0.178982 0)
(-0.0481637 0.200914 0)
(-0.0656804 0.214647 0)
(-0.0838513 0.221928 0)
(-0.102287 0.223935 0)
(-0.120756 0.221333 0)
(-0.139132 0.214373 0)
(-0.157345 0.203013 0)
(-0.175351 0.187037 0)
(-0.193098 0.166141 0)
(-0.210501 0.140019 0)
(-0.22741 0.108419 0)
(-0.243583 0.0712058 0)
(-0.25864 0.0284244 0)
(-0.272 -0.0196173 0)
(-0.282852 -0.0722179 0)
(-0.290073 -0.128151 0)
(-0.29217 -0.185392 0)
(-0.287346 -0.240856 0)
(-0.273653 -0.290128 0)
(-0.24939 -0.327367 0)
(-0.213794 -0.345654 0)
(-0.168011 -0.338158 0)
(-0.11599 -0.300381 0)
(-0.0645942 -0.233027 0)
(-0.0230885 -0.143754 0)
(-0.00307199 -0.0458248 0)
(-0.000914181 0.0430937 0)
(-0.00600848 0.109525 0)
(-0.0162365 0.158758 0)
(-0.0294417 0.193689 0)
(-0.0444312 0.217185 0)
(-0.0604241 0.231771 0)
(-0.0768417 0.239422 0)
(-0.0933153 0.241504 0)
(-0.109651 0.238817 0)
(-0.125775 0.231703 0)
(-0.141695 0.220174 0)
(-0.157456 0.20403 0)
(-0.173118 0.182957 0)
(-0.188726 0.15661 0)
(-0.204285 0.124668 0)
(-0.219725 0.0868889 0)
(-0.234855 0.0431611 0)
(-0.249284 -0.00643235 0)
(-0.262396 -0.0615328 0)
(-0.273209 -0.12125 0)
(-0.280261 -0.183984 0)
(-0.281602 -0.247012 0)
(-0.274838 -0.306038 0)
(-0.25744 -0.354801 0)
(-0.227427 -0.385055 0)
(-0.184548 -0.387471 0)
(-0.131682 -0.354078 0)
(-0.0757525 -0.282299 0)
(-0.0279952 -0.178695 0)
(-0.00394715 -0.0587606 0)
(-0.000807224 0.046083 0)
(-0.00545053 0.117261 0)
(-0.0148176 0.16993 0)
(-0.0268214 0.207104 0)
(-0.0402638 0.231877 0)
(-0.0543561 0.247032 0)
(-0.0685353 0.254788 0)
(-0.0824678 0.256712 0)
(-0.0960115 0.253759 0)
(-0.109161 0.246381 0)
(-0.122006 0.234658 0)
(-0.134691 0.218426 0)
(-0.147394 0.197381 0)
(-0.160295 0.171162 0)
(-0.173555 0.139401 0)
(-0.187282 0.101768 0)
(-0.201488 0.0580113 0)
(-0.216045 0.00799572 0)
(-0.230546 -0.0482345 0)
(-0.244214 -0.110224 0)
(-0.255805 -0.176919 0)
(-0.2634 -0.246193 0)
(-0.264369 -0.31423 0)
(-0.25551 -0.374807 0)
(-0.233613 -0.418779 0)
(-0.196702 -0.434396 0)
(-0.145877 -0.409533 0)
(-0.0872222 -0.336661 0)
(-0.033532 -0.21929 0)
(-0.00503172 -0.0744638 0)
(-0.000729597 0.0487832 0)
(-0.00502196 0.124332 0)
(-0.0136276 0.180066 0)
(-0.0244132 0.219077 0)
(-0.036137 0.244705 0)
(-0.0480062 0.260019 0)
(-0.0594953 0.267505 0)
(-0.0703343 0.268952 0)
(-0.0804587 0.265484 0)
(-0.0899517 0.257673 0)
(-0.0989985 0.245683 0)
(-0.107853 0.229402 0)
(-0.116809 0.208553 0)
(-0.126183 0.182775 0)
(-0.136284 0.151675 0)
(-0.147394 0.114861 0)
(-0.159722 0.0719631 0)
(-0.173364 0.022657 0)
(-0.188181 -0.0332713 0)
(-0.203704 -0.0958501 0)
(-0.218976 -0.164631 0)
(-0.232319 -0.238256 0)
(-0.24114 -0.313737 0)
(-0.241859 -0.385439 0)
(-0.230223 -0.443978 0)
(-0.202405 -0.47568 0)
(-0.157086 -0.463987 0)
(-0.0983705 -0.394728 0)
(-0.0396675 -0.265548 0)
(-0.006378 -0.0933146 0)
(-0.000720277 0.0513045 0)
(-0.00489954 0.130928 0)
(-0.0130332 0.189283 0)
(-0.0227356 0.229571 0)
(-0.0326658 0.255458 0)
(-0.0420428 0.270366 0)
(-0.0504205 0.277088 0)
(-0.0576391 0.277651 0)
(-0.0637523 0.273358 0)
(-0.0689604 0.264907 0)
(-0.0735637 0.252551 0)
(-0.0779303 0.236237 0)
(-0.0824724 0.215723 0)
(-0.0876273 0.190662 0)
(-0.093843 0.160658 0)
(-0.101548 0.125271 0)
(-0.111126 0.0840548 0)
(-0.122871 0.0365355 0)
(-0.136908 -0.0177572 0)
(-0.15309 -0.0792401 0)
(-0.170834 -0.148068 0)
(-0.188871 -0.22374 0)
(-0.204936 -0.304359 0)
(-0.215464 -0.38542 0)
(-0.215547 -0.45815 0)
(-0.199658 -0.507881 0)
(-0.163637 -0.513981 0)
(-0.108378 -0.454309 0)
(-0.046365 -0.317105 0)
(-0.00807055 -0.115715 0)
(-0.000844055 0.0538758 0)
(-0.00534629 0.137446 0)
(-0.0135412 0.19789 0)
(-0.0224642 0.238678 0)
(-0.0306094 0.263998 0)
(-0.0372527 0.277744 0)
(-0.0421008 0.28307 0)
(-0.0451752 0.282261 0)
(-0.0467043 0.276792 0)
(-0.0470432 0.267479 0)
(-0.0466275 0.254656 0)
(-0.045946 0.238324 0)
(-0.0455217 0.218275 0)
(-0.045896 0.194181 0)
(-0.0476353 0.165657 0)
(-0.0512862 0.132222 0)
(-0.0573611 0.0933883 0)
(-0.0663276 0.0485721 0)
(-0.0785302 -0.00288852 0)
(-0.0941224 -0.0617139 0)
(-0.112929 -0.128577 0)
(-0.134205 -0.203801 0)
(-0.156267 -0.286701 0)
(-0.175993 -0.374337 0)
(-0.188375 -0.459454 0)
(-0.186645 -0.527703 0)
(-0.163735 -0.555529 0)
(-0.116227 -0.512327 0)
(-0.0535982 -0.373094 0)
(-0.0102549 -0.14212 0)
(-0.00121797 0.0569126 0)
(-0.00677229 0.144569 0)
(-0.0158602 0.206415 0)
(-0.0244616 0.246608 0)
(-0.0308566 0.270222 0)
(-0.0344827 0.281816 0)
(-0.0353213 0.284972 0)
(-0.0336768 0.282231 0)
(-0.0300234 0.275216 0)
(-0.0249135 0.264832 0)
(-0.0189372 0.251466 0)
(-0.0127062 0.235153 0)
(-0.00684238 0.215713 0)
(-0.00196061 0.192829 0)
(0.00126892 0.166103 0)
(0.00221733 0.135068 0)
(0.000293192 0.0991851 0)
(-0.00511234 0.0578146 0)
(-0.0145104 0.0101812 0)
(-0.0283113 -0.0446457 0)
(-0.0467319 -0.107718 0)
(-0.0695911 -0.180034 0)
(-0.0959578 -0.262066 0)
(-0.123547 -0.352673 0)
(-0.147887 -0.446916 0)
(-0.161717 -0.532309 0)
(-0.155452 -0.584349 0)
(-0.120633 -0.564767 0)
(-0.0613342 -0.431968 0)
(-0.0131763 -0.173111 0)
(-0.00206486 0.0611452 0)
(-0.00984038 0.153366 0)
(-0.0209787 0.215611 0)
(-0.0297772 0.253623 0)
(-0.0343357 0.273973 0)
(-0.0344716 0.282148 0)
(-0.0306322 0.282215 0)
(-0.0235388 0.276937 0)
(-0.0139929 0.268022 0)
(-0.00278339 0.256401 0)
(0.00933289 0.242463 0)
(0.0216304 0.22625 0)
(0.0334068 0.207581 0)
(0.0439749 0.186141 0)
(0.052634 0.16151 0)
(0.0587018 0.133246 0)
(0.0615115 0.100774 0)
(0.0603849 0.0634359 0)
(0.0546712 0.0204104 0)
(0.0437463 -0.029336 0)
(0.02706 -0.0870674 0)
(0.00425731 -0.154232 0)
(-0.0245462 -0.232232 0)
(-0.0581835 -0.321678 0)
(-0.0933229 -0.420472 0)
(-0.123179 -0.519525 0)
(-0.136561 -0.596073 0)
(-0.119857 -0.606637 0)
(-0.0694067 -0.491217 0)
(-0.0172042 -0.20946 0)
(-0.00381542 0.0678588 0)
(-0.0156276 0.165409 0)
(-0.0302056 0.226371 0)
(-0.0394949 0.259848 0)
(-0.041679 0.274831 0)
(-0.0373686 0.278024 0)
(-0.0277581 0.273976 0)
(-0.0141466 0.265562 0)
(0.00225946 0.254456 0)
(0.020407 0.241516 0)
(0.0393786 0.227064 0)
(0.0583556 0.211093 0)
(0.076582 0.193393 0)
(0.0933375 0.17363 0)
(0.107912 0.151389 0)
(0.119604 0.126207 0)
(0.127708 0.0975258 0)
(0.131495 0.064688 0)
(0.130212 0.0268819 0)
(0.123065 -0.0169227 0)
(0.109229 -0.0680421 0)
(0.0878902 -0.128121 0)
(0.0583984 -0.199147 0)
(0.0206948 -0.28315 0)
(-0.0234871 -0.380882 0)
(-0.068899 -0.487976 0)
(-0.104185 -0.586437 0)
(-0.111313 -0.631879 0)
(-0.0771336 -0.546849 0)
(-0.0227582 -0.252065 0)
(-0.00728245 0.0793265 0)
(-0.0258087 0.182823 0)
(-0.0449629 0.2394 0)
(-0.0540571 0.264819 0)
(-0.0521699 0.271686 0)
(-0.0414159 0.268095 0)
(-0.0241078 0.258903 0)
(-0.00228148 0.246874 0)
(0.0224049 0.233452 0)
(0.0486455 0.219277 0)
(0.0753984 0.204511 0)
(0.101796 0.189039 0)
(0.127076 0.172587 0)
(0.150529 0.15479 0)
(0.171467 0.135227 0)
(0.1892 0.113432 0)
(0.203014 0.0888748 0)
(0.212151 0.060938 0)
(0.215783 0.0288717 0)
(0.212978 -0.00827036 0)
(0.202698 -0.051723 0)
(0.183765 -0.103094 0)
(0.154895 -0.164572 0)
(0.114966 -0.239051 0)
(0.0638292 -0.329677 0)
(0.00422184 -0.437287 0)
(-0.0541743 -0.551561 0)
(-0.0907866 -0.633259 0)
(-0.0824523 -0.592562 0)
(-0.0299299 -0.301612 0)
(-0.0138699 0.0995006 0)
(-0.0425948 0.20793 0)
(-0.0655961 0.254282 0)
(-0.0709993 0.266509 0)
(-0.0607837 0.261932 0)
(-0.0396252 0.249776 0)
(-0.0113186 0.234717 0)
(0.0213056 0.218982 0)
(0.0562045 0.203497 0)
(0.0919278 0.188504 0)
(0.127419 0.173897 0)
(0.161858 0.159396 0)
(0.194559 0.144635 0)
(0.224891 0.129209 0)
(0.252238 0.112692 0)
(0.275964 0.0946377 0)
(0.295384 0.0745641 0)
(0.30974 0.0519281 0)
(0.318164 0.026089 0)
(0.319622 -0.00375301 0)
(0.312935 -0.0386337 0)
(0.296667 -0.0799597 0)
(0.269082 -0.129771 0)
(0.228219 -0.19118 0)
(0.172251 -0.268842 0)
(0.100902 -0.368175 0)
(0.019917 -0.488532 0)
(-0.0509891 -0.602471 0)
(-0.0804026 -0.618887 0)
(-0.0374957 -0.358441 0)
(-0.0254054 0.134986 0)
(-0.0670876 0.24097 0)
(-0.0866136 0.266571 0)
(-0.0782013 0.258913 0)
(-0.0507641 0.239812 0)
(-0.0124813 0.218292 0)
(0.0314822 0.197761 0)
(0.0778766 0.179244 0)
(0.124671 0.162782 0)
(0.170606 0.148041 0)
(0.214874 0.134569 0)
(0.2569 0.121891 0)
(0.296215 0.10955 0)
(0.332376 0.0971135 0)
(0.364919 0.0841706 0)
(0.393324 0.070323 0)
(0.41699 0.055165 0)
(0.435211 0.0382608 0)
(0.447133 0.0191134 0)
(0.451702 -0.00288894 0)
(0.447682 -0.0284673 0)
(0.43349 -0.058732 0)
(0.407148 -0.0953328 0)
(0.366173 -0.141005 0)
(0.307492 -0.200638 0)
(0.227926 -0.282483 0)
(0.127983 -0.395579 0)
(0.0208081 -0.531025 0)
(-0.0609188 -0.612614 0)
(-0.0408358 -0.421856 0)
(-0.041318 0.197158 0)
(-0.0902496 0.272563 0)
(-0.0798348 0.25924 0)
(-0.0361404 0.226458 0)
(0.021887 0.193723 0)
(0.0845154 0.165789 0)
(0.147147 0.143132 0)
(0.207558 0.124922 0)
(0.26474 0.110109 0)
(0.318304 0.0977683 0)
(0.368122 0.0871553 0)
(0.414146 0.0776739 0)
(0.456308 0.0688399 0)
(0.494477 0.0602513 0)
(0.528425 0.0515634 0)
(0.557822 0.0424679 0)
(0.582212 0.0326738 0)
(0.601008 0.0218864 0)
(0.613441 0.00978195 0)
(0.6186 -0.00404533 0)
(0.615302 -0.0199869 0)
(0.60196 -0.0387579 0)
(0.576611 -0.0614537 0)
(0.536609 -0.090004 0)
(0.478237 -0.128277 0)
(0.396197 -0.184463 0)
(0.285169 -0.273849 0)
(0.14604 -0.410557 0)
(-0.0033541 -0.55403 0)
(-0.0253763 -0.477535 0)
(-0.0341589 0.293675 0)
(-0.0479819 0.272498 0)
(0.0536251 0.199467 0)
(0.156705 0.149682 0)
(0.24972 0.11495 0)
(0.33211 0.0901442 0)
(0.404777 0.0725614 0)
(0.468887 0.0599702 0)
(0.525688 0.0506652 0)
(0.576294 0.0435003 0)
(0.621562 0.0377252 0)
(0.662095 0.0328307 0)
(0.698274 0.0284552 0)
(0.73029 0.0243309 0)
(0.758166 0.02025 0)
(0.781772 0.0160426 0)
(0.800839 0.0115596 0)
(0.814959 0.0066638 0)
(0.823512 0.00121168 0)
(0.82589 -0.00486161 0)
(0.821143 -0.0118872 0)
(0.807978 -0.0201374 0)
(0.784785 -0.0300778 0)
(0.749252 -0.0426415 0)
(0.697784 -0.0598785 0)
(0.624283 -0.0868765 0)
(0.518477 -0.137162 0)
(0.365144 -0.240263 0)
(0.144138 -0.40697 0)
(0.0588706 -0.458304 0)
(0.303199 0.180892 0)
(0.382375 0.144208 0)
(0.560527 0.0910525 0)
(0.686257 0.0589354 0)
(0.768985 0.0393416 0)
(0.828725 0.0268883 0)
(0.874815 0.0190094 0)
(0.9116 0.0140263 0)
(0.941772 0.0107928 0)
(0.967131 0.00859575 0)
(0.988813 0.00701181 0)
(1.00752 0.00578643 0)
(1.02365 0.00476135 0)
(1.03743 0.00383448 0)
(1.04894 0.0029368 0)
(1.05815 0.00201864 0)
(1.06495 0.00104019 0)
(1.06916 -2.86262e-05 0)
(1.07054 -0.00122643 0)
(1.06871 -0.00246173 0)
(1.06317 -0.00392995 0)
(1.05345 -0.00566879 0)
(1.03876 -0.00775411 0)
(1.01791 -0.0103939 0)
(0.988852 -0.0140877 0)
(0.947466 -0.0201803 0)
(0.883941 -0.032565 0)
(0.776335 -0.0637434 0)
(0.544817 -0.13946 0)
(0.38249 -0.201735 0)
)
;

boundaryField
{
    movingWall
    {
        type            fixedValue;
        value           uniform (1.2 0 0);
    }
    fixedWalls
    {
        type            noSlip;
    }
    frontAndBack
    {
        type            empty;
    }
}


// ************************************************************************* //
