/*--------------------------------*- C++ -*----------------------------------*\
  =========                 |
  \\      /  F ield         | OpenFOAM: The Open Source CFD Toolbox
   \\    /   O peration     | Website:  https://openfoam.org
    \\  /    A nd           | Version:  7
     \\/     M anipulation  |
\*---------------------------------------------------------------------------*/
FoamFile
{
    version     2.0;
    format      ascii;
    class       volScalarField;
    location    "9.7";
    object      p;
}
// * * * * * * * * * * * * * * * * * * * * * * * * * * * * * * * * * * * * * //

dimensions      [0 2 -2 0 0 0 0];

internalField   nonuniform List<scalar> 
900
(
-1.773e-06
-0.000355911
-0.000938364
-0.00156891
-0.00213559
-0.00257306
-0.00284731
-0.00294154
-0.00284547
-0.00255057
-0.00204982
-0.00134023
-0.000426931
0.000672387
0.00192375
0.00327477
0.00465498
0.0059794
0.00715545
0.00809278
0.00871507
0.00897211
0.00884984
0.00837641
0.00762316
0.00669803
0.00573645
0.00489739
0.00434614
0.00420796
0.000347657
-1.95772e-05
-0.000466247
-0.000931162
-0.00134827
-0.00167056
-0.00187144
-0.00193506
-0.00184993
-0.00160648
-0.0011972
-0.000618601
0.000125725
0.0010217
0.00204166
0.00314257
0.00426832
0.00534857
0.00630772
0.00707232
0.0075809
0.00779411
0.00770294
0.00733309
0.00674461
0.00602675
0.00528784
0.00463008
0.00419304
0.00406734
0.00095232
0.000411119
-5.08793e-05
-0.000468403
-0.000827432
-0.00110008
-0.00127105
-0.00133062
-0.00126945
-0.00107771
-0.000746167
-0.000268371
0.00035622
0.00111878
0.00199806
0.00295896
0.00395084
0.00491104
0.00576991
0.00645842
0.00691794
0.00711024
0.00702555
0.00668678
0.00614837
0.00549008
0.0048064
0.00419259
0.00374403
0.003532
0.00163259
0.000853893
0.000310567
-0.000118569
-0.000468235
-0.000729343
-0.000899567
-0.000977318
-0.000956514
-0.000827058
-0.000576844
-0.000194656
0.000326162
0.000983672
0.00176361
0.00263678
0.00355737
0.00446535
0.00529103
0.00596297
0.00641821
0.00661317
0.00653274
0.00619518
0.00565104
0.00497601
0.00426018
0.00359603
0.00305843
0.00268289
0.00223974
0.00120538
0.000556949
8.9346e-05
-0.000278146
-0.00055378
-0.000747706
-0.000866194
-0.000906005
-0.000855968
-0.00069994
-0.000420455
-3.15295e-06
0.000558349
0.00125769
0.00207186
0.00295955
0.00386109
0.00470368
0.00540909
0.00590484
0.00613653
0.00607874
0.00574166
0.00517089
0.0044402
0.00364079
0.00286904
0.00218926
0.00159784
0.00264879
0.00136137
0.000598838
7.61661e-05
-0.000330263
-0.00064433
-0.000887252
-0.00107189
-0.00119668
-0.00124818
-0.00120488
-0.00104155
-0.000734505
-0.000267373
0.00036287
0.00114062
0.00202923
0.00296878
0.00388135
0.00467837
0.00527269
0.00559284
0.00559662
0.00528066
0.00468251
0.00387437
0.00295309
0.00202688
0.00115777
0.00030946
0.00274983
0.00122551
0.000349362
-0.000238106
-0.000700256
-0.00107506
-0.00139317
-0.00167243
-0.00191154
-0.00209342
-0.00218977
-0.00216601
-0.00198722
-0.00162492
-0.00106437
-0.000311528
0.000603926
0.00162247
0.00266062
0.00361679
0.00438405
0.0048665
0.00499654
0.0047489
0.00414704
0.00325966
0.00219242
0.00107357
-2.79319e-05
-0.00117643
0.00244564
0.000709189
-0.000274014
-0.000931624
-0.00146364
-0.0019209
-0.00234198
-0.00274821
-0.00313716
-0.00348688
-0.00376092
-0.00391368
-0.00389687
-0.00366707
-0.00319443
-0.00247143
-0.00151602
-0.000384976
0.000834315
0.00202612
0.00305899
0.0038042
0.00415744
0.00405939
0.00350912
0.00256619
0.00134626
5.49074e-06
-0.00137099
-0.0028729
0.00165017
-0.000267415
-0.00134767
-0.00207891
-0.00269436
-0.00325668
-0.0038112
-0.00438151
-0.00496311
-0.00552823
-0.00603116
-0.0064137
-0.00661182
-0.00656378
-0.00621964
-0.00555168
-0.00456399
-0.00330081
-0.00184984
-0.000339995
0.00106934
0.0022077
0.00292007
0.00309609
0.00269411
0.00175321
0.000396491
-0.00118472
-0.00287981
-0.00480295
0.000290026
-0.00177244
-0.00293775
-0.0037457
-0.0044587
-0.00515037
-0.00587192
-0.00664852
-0.00747315
-0.00831185
-0.00910903
-0.0097926
-0.0102804
-0.0104886
-0.0103415
-0.00978334
-0.00879763
-0.00740513
-0.00568613
-0.00377781
-0.00186794
-0.000176601
0.00107466
0.0017022
0.00159936
0.000764736
-0.000680253
-0.00250417
-0.0045612
-0.0069901
-0.00169229
-0.00385881
-0.00509577
-0.00598352
-0.0068088
-0.00765542
-0.00857999
-0.0096091
-0.0107335
-0.0119133
-0.0130831
-0.0141563
-0.0150306
-0.0155962
-0.0157463
-0.0153907
-0.0144738
-0.012988
-0.0109919
-0.00862051
-0.00608499
-0.00365902
-0.00164604
-0.000329495
8.53315e-05
-0.000475673
-0.00191296
-0.00395553
-0.00641302
-0.00944889
-0.00433436
-0.00656053
-0.00785459
-0.00882472
-0.00977649
-0.0108032
-0.0119667
-0.0132956
-0.0147793
-0.0163732
-0.0180029
-0.0195673
-0.0209429
-0.021991
-0.0225682
-0.0225408
-0.0218042
-0.020306
-0.0180668
-0.0152026
-0.0119357
-0.00858966
-0.0055603
-0.0032583
-0.0020298
-0.00206934
-0.00333631
-0.00553217
-0.00841564
-0.0121743
-0.0076502
-0.00988966
-0.011225
-0.0122782
-0.0133677
-0.0145957
-0.0160299
-0.0177017
-0.0196008
-0.0216799
-0.0238574
-0.0260189
-0.0280197
-0.0296906
-0.0308473
-0.0313051
-0.0308997
-0.0295206
-0.0271283
-0.0237977
-0.0197404
-0.0153148
-0.0110084
-0.0073811
-0.00496625
-0.00414265
-0.00498901
-0.00721165
-0.0105211
-0.0151286
-0.0116277
-0.0138345
-0.0151936
-0.0163266
-0.0175584
-0.0190001
-0.0207259
-0.022772
-0.0251307
-0.0277544
-0.0305568
-0.0334124
-0.0361567
-0.0385901
-0.0404858
-0.0416043
-0.0417153
-0.0406285
-0.0382325
-0.0345336
-0.0297019
-0.0241012
-0.0182929
-0.0129921
-0.00896082
-0.00683728
-0.00690726
-0.00894592
-0.0126389
-0.0182241
-0.0162281
-0.0183601
-0.0197236
-0.0209257
-0.0222927
-0.0239448
-0.0259649
-0.028396
-0.0312359
-0.0344398
-0.0379196
-0.0415414
-0.0451238
-0.0484388
-0.0512182
-0.0531673
-0.0539854
-0.0533948
-0.0511959
-0.0473014
-0.0418055
-0.0350352
-0.0275865
-0.0203103
-0.0142186
-0.010283
-0.00910888
-0.010646
-0.0146162
-0.0213
-0.021388
-0.0234109
-0.024757
-0.0260071
-0.0274844
-0.0293207
-0.0316102
-0.0344065
-0.0377162
-0.0415002
-0.0456718
-0.0500919
-0.0545651
-0.0588386
-0.0626067
-0.0655232
-0.067216
-0.067315
-0.0655444
-0.0616874
-0.0557314
-0.047919
-0.0388226
-0.0293784
-0.020834
-0.014546
-0.0115621
-0.0121585
-0.0162118
-0.0240925
-0.0270246
-0.0289178
-0.0302219
-0.0314834
-0.0330216
-0.0349842
-0.0374823
-0.0405849
-0.044311
-0.0486304
-0.0534604
-0.0586593
-0.0640208
-0.0692711
-0.0740721
-0.0780312
-0.0807089
-0.081632
-0.0805297
-0.0769659
-0.0708161
-0.0621997
-0.0515982
-0.0399538
-0.0286889
-0.0195505
-0.0141345
-0.0132296
-0.0170618
-0.0261963
-0.0330442
-0.0348074
-0.0360414
-0.0372568
-0.0387741
-0.0407653
-0.0433675
-0.0466716
-0.050714
-0.055476
-0.0608802
-0.0667838
-0.0729716
-0.0791524
-0.0849603
-0.0899629
-0.093687
-0.0956561
-0.0952487
-0.092167
-0.0860924
-0.0769713
-0.0651315
-0.0514266
-0.0373506
-0.0249828
-0.0165203
-0.0134553
-0.0166345
-0.0270163
-0.0393547
-0.0410167
-0.0421466
-0.0432297
-0.0446022
-0.0464762
-0.0490285
-0.0523818
-0.0565944
-0.0616613
-0.0675105
-0.073997
-0.0808967
-0.0879022
-0.0946237
-0.100596
-0.105299
-0.10818
-0.108648
-0.106201
-0.100413
-0.0910704
-0.0783082
-0.0628074
-0.0460078
-0.0301997
-0.0181542
-0.0122143
-0.014175
-0.0257063
-0.0458824
-0.0475115
-0.0484922
-0.0493158
-0.0503658
-0.0519206
-0.0542172
-0.057422
-0.0616209
-0.0668219
-0.0729559
-0.0798728
-0.0873362
-0.0950211
-0.102515
-0.109325
-0.114894
-0.11862
-0.119877
-0.118062
-0.112644
-0.103254
-0.0898239
-0.0728094
-0.0534794
-0.0341756
-0.0181265
-0.00858834
-0.00863444
-0.0210881
-0.0525977
-0.054313
-0.0550746
-0.0554495
-0.0559295
-0.0568998
-0.0586848
-0.061508
-0.0654855
-0.0706354
-0.0768854
-0.0840726
-0.0919421
-0.100147
-0.108252
-0.115729
-0.121993
-0.126408
-0.12829
-0.126977
-0.121848
-0.1124
-0.0983841
-0.0800152
-0.0583155
-0.0355186
-0.0151288
-0.00127436
0.0014177
-0.0115335
-0.059559
-0.0615358
-0.0619531
-0.061593
-0.0611638
-0.0612157
-0.0621908
-0.0643802
-0.0679269
-0.0728502
-0.0790629
-0.086378
-0.0945115
-0.103088
-0.111652
-0.119618
-0.126379
-0.131285
-0.133553
-0.132495
-0.127408
-0.117679
-0.102904
-0.0830839
-0.0589701
-0.0325673
-0.00745554
0.0114897
0.0179026
0.00521842
-0.0669985
-0.0694501
-0.0692756
-0.0677377
-0.0659409
-0.0646712
-0.064512
-0.0658203
-0.068752
-0.0733087
-0.0793718
-0.086714
-0.0950131
-0.103851
-0.112722
-0.121028
-0.128105
-0.13323
-0.135621
-0.134494
-0.129068
-0.118634
-0.102654
-0.0809539
-0.0540054
-0.0235637
0.00691305
0.0319611
0.0433777
0.032364
-0.0755081
-0.0785882
-0.0773118
-0.0739032
-0.0701294
-0.0670736
-0.0654559
-0.0656722
-0.0678583
-0.0719679
-0.0778236
-0.0851422
-0.0935464
-0.102568
-0.11165
-0.120154
-0.127362
-0.132492
-0.134705
-0.133132
-0.126898
-0.115184
-0.0973295
-0.0730078
-0.0423246
-0.00693988
0.0300857
0.06285
0.0812525
0.0745247
-0.0864642
-0.0899302
-0.0864869
-0.0801291
-0.0735916
-0.0682453
-0.0648808
-0.0638634
-0.0652505
-0.0689043
-0.0745597
-0.0818558
-0.0903473
-0.0995068
-0.108724
-0.117306
-0.124479
-0.129396
-0.13114
-0.128747
-0.121217
-0.1076
-0.0870643
-0.059067
-0.0236095
0.0182176
0.0637672
0.107084
0.135966
0.138255
-0.103023
-0.105244
-0.0973915
-0.0864408
-0.0761647
-0.0680186
-0.0626923
-0.0603963
-0.0610231
-0.0642887
-0.0698076
-0.0771226
-0.0857111
-0.0949812
-0.104266
-0.112819
-0.119808
-0.124316
-0.125343
-0.121818
-0.11258
-0.0965236
-0.0725862
-0.0399425
0.00174145
0.0518931
0.108514
0.167021
0.212527
0.231983
-0.132345
-0.127618
-0.110836
-0.0928574
-0.0776532
-0.0662141
-0.0588146
-0.0553142
-0.0553232
-0.0583455
-0.0638432
-0.0712496
-0.0799614
-0.0893248
-0.0986212
-0.107054
-0.11374
-0.117699
-0.117854
-0.113025
-0.101892
-0.0831351
-0.0553995
-0.0174359
0.031692
0.0923069
0.163805
0.242621
0.314769
0.36734
-0.190594
-0.160644
-0.127381
-0.099026
-0.0774567
-0.0623488
-0.0530011
-0.0485921
-0.0482901
-0.0513235
-0.0569838
-0.064597
-0.0734905
-0.0829627
-0.0922585
-0.100548
-0.106909
-0.110315
-0.109623
-0.10356
-0.0907646
-0.0696075
-0.038397
0.00468869
0.0615724
0.134179
0.224345
0.331396
0.444823
0.571114
-0.321672
-0.200355
-0.138849
-0.0974814
-0.0697873
-0.0522447
-0.042376
-0.0382783
-0.0385773
-0.0422703
-0.0485508
-0.0567001
-0.0660259
-0.0758202
-0.0853256
-0.0937111
-0.100052
-0.10331
-0.102311
-0.0956636
-0.0820998
-0.0597825
-0.026733
0.0194333
0.0818278
0.164813
0.274871
0.420538
0.608848
0.898359
-0.649088
-0.23687
-0.107432
-0.0625177
-0.0379153
-0.0241894
-0.0184509
-0.0180508
-0.0213089
-0.0273019
-0.0353869
-0.0449819
-0.0554976
-0.0663043
-0.0767054
-0.0859163
-0.0930494
-0.0971038
-0.0969739
-0.0914773
-0.0788627
-0.0575942
-0.0256768
0.0194782
0.0815592
0.166788
0.287611
0.472378
0.778505
1.37235
)
;

boundaryField
{
    movingWall
    {
        type            zeroGradient;
    }
    fixedWalls
    {
        type            zeroGradient;
    }
    frontAndBack
    {
        type            empty;
    }
}


// ************************************************************************* //
