/*--------------------------------*- C++ -*----------------------------------*\
  =========                 |
  \\      /  F ield         | OpenFOAM: The Open Source CFD Toolbox
   \\    /   O peration     | Website:  https://openfoam.org
    \\  /    A nd           | Version:  7
     \\/     M anipulation  |
\*---------------------------------------------------------------------------*/
FoamFile
{
    version     2.0;
    format      ascii;
    class       volVectorField;
    location    "9.7";
    object      U;
}
// * * * * * * * * * * * * * * * * * * * * * * * * * * * * * * * * * * * * * //

dimensions      [0 1 -1 0 0 0 0];

internalField   nonuniform List<vector> 
900
(
(0.000165844 -0.00016453 0)
(0.000295727 -7.20469e-05 0)
(-2.64232e-05 9.77258e-05 0)
(-0.000810588 0.000247358 0)
(-0.00196442 0.000355745 0)
(-0.00338224 0.000425552 0)
(-0.00496881 0.000466196 0)
(-0.00664603 0.000485924 0)
(-0.00834934 0.000489342 0)
(-0.0100202 0.000477512 0)
(-0.0115993 0.000448944 0)
(-0.0130227 0.000400847 0)
(-0.0142206 0.000330411 0)
(-0.0151202 0.000236016 0)
(-0.0156509 0.000118318 0)
(-0.0157518 -1.90136e-05 0)
(-0.0153804 -0.000169294 0)
(-0.0145222 -0.000321768 0)
(-0.0131985 -0.000463215 0)
(-0.0114706 -0.000579098 0)
(-0.00944079 -0.000655419 0)
(-0.00724661 -0.000680922 0)
(-0.00504988 -0.000649168 0)
(-0.00302061 -0.000560034 0)
(-0.0013173 -0.000420509 0)
(-6.72644e-05 -0.000245423 0)
(0.000649753 -5.65497e-05 0)
(0.000823059 0.000119664 0)
(0.000561741 0.00022592 0)
(0.00017292 0.000171802 0)
(8.07741e-05 -0.000302947 0)
(-0.000298021 0.000295524 0)
(-0.0017398 0.00114061 0)
(-0.00415893 0.00190204 0)
(-0.00738974 0.00248816 0)
(-0.0112276 0.00289144 0)
(-0.0154652 0.00313485 0)
(-0.0199136 0.00324383 0)
(-0.0244012 0.00323424 0)
(-0.0287651 0.00311018 0)
(-0.0328413 0.00286689 0)
(-0.0364599 0.00249573 0)
(-0.0394459 0.0019899 0)
(-0.0416261 0.00134993 0)
(-0.0428413 0.000588283 0)
(-0.0429636 -0.000267568 0)
(-0.0419131 -0.0011734 0)
(-0.039676 -0.00206995 0)
(-0.0363199 -0.00288689 0)
(-0.0320002 -0.00354965 0)
(-0.0269589 -0.00398848 0)
(-0.0215115 -0.00414884 0)
(-0.0160239 -0.0040011 0)
(-0.0108777 -0.00354813 0)
(-0.00642932 -0.0028293 0)
(-0.00296477 -0.00192205 0)
(-0.000654554 -0.000940876 0)
(0.000472139 -3.81801e-05 0)
(0.000606433 0.000570873 0)
(0.000233929 0.000559175 0)
(-0.00010575 2.44808e-05 0)
(-0.00125125 0.0017603 0)
(-0.00406805 0.0038285 0)
(-0.00822909 0.00567769 0)
(-0.0134759 0.00712655 0)
(-0.0195378 0.00814294 0)
(-0.0261323 0.00875692 0)
(-0.032991 0.00901014 0)
(-0.0398608 0.00893033 0)
(-0.0464954 0.00852481 0)
(-0.0526467 0.00778537 0)
(-0.0580617 0.00669872 0)
(-0.0624864 0.00525908 0)
(-0.0656764 0.00348019 0)
(-0.0674144 0.00140515 0)
(-0.0675308 -0.000887221 0)
(-0.0659267 -0.00328011 0)
(-0.0625957 -0.00562426 0)
(-0.0576401 -0.007747 0)
(-0.0512798 -0.00946838 0)
(-0.0438494 -0.0106221 0)
(-0.0357828 -0.011079 0)
(-0.0275828 -0.0107695 0)
(-0.0197774 -0.00970184 0)
(-0.0128657 -0.0079725 0)
(-0.00725753 -0.00576896 0)
(-0.00321382 -0.00336747 0)
(-0.000798795 -0.00113326 0)
(0.000173889 0.000484845 0)
(0.000170349 0.000871621 0)
(-0.000304036 0.000912563 0)
(-0.00228207 0.00442794 0)
(-0.00657257 0.00812504 0)
(-0.0125263 0.011343 0)
(-0.0197569 0.0138502 0)
(-0.027927 0.0156044 0)
(-0.0366929 0.0166463 0)
(-0.0457266 0.0170322 0)
(-0.054715 0.0167992 0)
(-0.0633495 0.0159562 0)
(-0.0713186 0.0144914 0)
(-0.0783072 0.01239 0)
(-0.0840022 0.00965313 0)
(-0.0881072 0.00631762 0)
(-0.0903615 0.00247064 0)
(-0.0905636 -0.00174101 0)
(-0.088596 -0.00611005 0)
(-0.0844494 -0.0103754 0)
(-0.0782403 -0.0142391 0)
(-0.0702225 -0.0173925 0)
(-0.0607868 -0.0195497 0)
(-0.050446 -0.0204859 0)
(-0.0398042 -0.0200761 0)
(-0.029508 -0.0183269 0)
(-0.0201835 -0.0153968 0)
(-0.0123647 -0.0116018 0)
(-0.00641963 -0.00740833 0)
(-0.0024859 -0.00341901 0)
(-0.000438348 -0.000354179 0)
(7.29818e-05 0.000893332 0)
(-0.000491865 0.00236153 0)
(-0.0032953 0.00832926 0)
(-0.0090636 0.0140489 0)
(-0.0167952 0.0188647 0)
(-0.0259559 0.0225588 0)
(-0.0361354 0.0251121 0)
(-0.0469344 0.0265899 0)
(-0.0579785 0.0270669 0)
(-0.0689112 0.0265888 0)
(-0.0793803 0.0251646 0)
(-0.0890294 0.0227792 0)
(-0.0974985 0.0194176 0)
(-0.104431 0.0150922 0)
(-0.10949 0.00986834 0)
(-0.112377 0.00388427 0)
(-0.112856 -0.00263753 0)
(-0.11078 -0.00938949 0)
(-0.106117 -0.0159875 0)
(-0.0989716 -0.0219945 0)
(-0.0895986 -0.0269549 0)
(-0.0784125 -0.0304415 0)
(-0.0659771 -0.0321099 0)
(-0.0529785 -0.0317555 0)
(-0.0401757 -0.029364 0)
(-0.0283306 -0.0251463 0)
(-0.0181236 -0.0195493 0)
(-0.0100632 -0.0132441 0)
(-0.00440127 -0.00709189 0)
(-0.00111576 -0.0020987 0)
(-2.44442e-05 0.000565745 0)
(-0.000663729 0.00434389 0)
(-0.00425035 0.0134349 0)
(-0.0114389 0.0215729 0)
(-0.0208784 0.0282044 0)
(-0.0318819 0.0331924 0)
(-0.0439638 0.0365826 0)
(-0.056674 0.0384867 0)
(-0.0696012 0.0390071 0)
(-0.0823597 0.0382007 0)
(-0.0945691 0.0360764 0)
(-0.105844 0.0326148 0)
(-0.115795 0.0278008 0)
(-0.124033 0.0216577 0)
(-0.130186 0.0142796 0)
(-0.133917 0.00585546 0)
(-0.134948 -0.00331669 0)
(-0.133084 -0.0128275 0)
(-0.128245 -0.0221656 0)
(-0.120491 -0.0307444 0)
(-0.110044 -0.0379441 0)
(-0.0973094 -0.0431697 0)
(-0.0828771 -0.0459231 0)
(-0.0675023 -0.0458829 0)
(-0.0520605 -0.0429794 0)
(-0.0374717 -0.0374506 0)
(-0.0246012 -0.0298666 0)
(-0.0141451 -0.0211125 0)
(-0.00651616 -0.0123322 0)
(-0.00183474 -0.00484467 0)
(-0.000115424 -0.000120227 0)
(-0.000818724 0.00682011 0)
(-0.00512609 0.019672 0)
(-0.0136335 0.0306095 0)
(-0.0246647 0.0392638 0)
(-0.0373867 0.045643 0)
(-0.0512425 0.049901 0)
(-0.0657367 0.0522217 0)
(-0.0804308 0.0527485 0)
(-0.0949217 0.0515548 0)
(-0.108815 0.0486501 0)
(-0.12171 0.0440097 0)
(-0.1332 0.0376151 0)
(-0.142873 0.0294962 0)
(-0.150325 0.0197694 0)
(-0.155177 0.00866656 0)
(-0.157098 -0.00344716 0)
(-0.155826 -0.0160676 0)
(-0.151203 -0.0285584 0)
(-0.143211 -0.0401778 0)
(-0.132003 -0.0501239 0)
(-0.117937 -0.0576026 0)
(-0.101599 -0.0619175 0)
(-0.0837989 -0.0625763 0)
(-0.0655314 -0.0593994 0)
(-0.0479024 -0.052609 0)
(-0.03201 -0.042876 0)
(-0.0187981 -0.0313057 0)
(-0.00889945 -0.0193562 0)
(-0.00262125 -0.00870673 0)
(-0.000205042 -0.00118144 0)
(-0.000955569 0.00974216 0)
(-0.00590506 0.0269387 0)
(-0.0155947 0.0410296 0)
(-0.0280602 0.0519019 0)
(-0.0423382 0.0597663 0)
(-0.0578083 0.0649269 0)
(-0.073938 0.067667 0)
(-0.0902712 0.0681861 0)
(-0.106398 0.0665811 0)
(-0.121923 0.0628642 0)
(-0.136443 0.057003 0)
(-0.149544 0.0489703 0)
(-0.160799 0.0387939 0)
(-0.169778 0.0266002 0)
(-0.176058 0.0126484 0)
(-0.179242 -0.00264553 0)
(-0.178986 -0.0186966 0)
(-0.175028 -0.0347548 0)
(-0.167236 -0.0499231 0)
(-0.155653 -0.0632022 0)
(-0.140548 -0.0735643 0)
(-0.122463 -0.0800602 0)
(-0.102232 -0.0819556 0)
(-0.0809639 -0.078883 0)
(-0.0599722 -0.0709797 0)
(-0.0406399 -0.0589758 0)
(-0.0242316 -0.0441949 0)
(-0.0116751 -0.0284497 0)
(-0.0035267 -0.0138491 0)
(-0.00030346 -0.00265848 0)
(-0.00107143 0.013053 0)
(-0.00656775 0.0351076 0)
(-0.0172703 0.0526686 0)
(-0.0309736 0.0659392 0)
(-0.0466049 0.0753825 0)
(-0.0634917 0.0814903 0)
(-0.0810738 0.0846714 0)
(-0.0988863 0.0851974 0)
(-0.116523 0.0831973 0)
(-0.133598 0.0786882 0)
(-0.149719 0.0716277 0)
(-0.164474 0.0619727 0)
(-0.177434 0.0497368 0)
(-0.188145 0.0350395 0)
(-0.196143 0.0181461 0)
(-0.200962 -0.000500771 0)
(-0.202162 -0.0202581 0)
(-0.199361 -0.0402818 0)
(-0.192282 -0.0595279 0)
(-0.180815 -0.0767913 0)
(-0.16509 -0.090779 0)
(-0.145551 -0.100229 0)
(-0.123006 -0.104079 0)
(-0.0986517 -0.101668 0)
(-0.0740114 -0.0929452 0)
(-0.0508006 -0.0786274 0)
(-0.0306881 -0.0602373 0)
(-0.0149947 -0.0399856 0)
(-0.00461459 -0.020505 0)
(-0.000422761 -0.00462416 0)
(-0.0011623 0.0166848 0)
(-0.00709248 0.0440251 0)
(-0.0186068 0.0653268 0)
(-0.0333132 0.081157 0)
(-0.0500533 0.0922707 0)
(-0.0681151 0.09938 0)
(-0.0869197 0.103043 0)
(-0.106002 0.103618 0)
(-0.124969 0.101278 0)
(-0.143454 0.0960457 0)
(-0.161084 0.0878681 0)
(-0.177467 0.076678 0)
(-0.192176 0.0624612 0)
(-0.204749 0.0453105 0)
(-0.214687 0.0254728 0)
(-0.221462 0.00338783 0)
(-0.224538 -0.0202784 0)
(-0.223403 -0.0446129 0)
(-0.217612 -0.0684462 0)
(-0.206868 -0.0903727 0)
(-0.191106 -0.108814 0)
(-0.170601 -0.122139 0)
(-0.146064 -0.128859 0)
(-0.118713 -0.127891 0)
(-0.0902558 -0.118851 0)
(-0.0627689 -0.10232 0)
(-0.0384114 -0.0799633 0)
(-0.0190198 -0.0544279 0)
(-0.00595407 -0.0289856 0)
(-0.000575877 -0.00718749 0)
(-0.00122381 0.0205573 0)
(-0.00745754 0.0535117 0)
(-0.0195526 0.0787702 0)
(-0.0349905 0.0972962 0)
(-0.0525528 0.110166 0)
(-0.0714994 0.118336 0)
(-0.0912415 0.122534 0)
(-0.11132 0.123223 0)
(-0.131362 0.120626 0)
(-0.151028 0.114781 0)
(-0.169978 0.105619 0)
(-0.187846 0.0930448 0)
(-0.204228 0.0770022 0)
(-0.218666 0.057538 0)
(-0.230645 0.0348537 0)
(-0.239591 0.00935382 0)
(-0.244887 -0.0183108 0)
(-0.245894 -0.0471972 0)
(-0.241999 -0.0760479 0)
(-0.232687 -0.103282 0)
(-0.217646 -0.127036 0)
(-0.196904 -0.14527 0)
(-0.170973 -0.155978 0)
(-0.140986 -0.157499 0)
(-0.108765 -0.148924 0)
(-0.0767331 -0.130509 0)
(-0.0476152 -0.103947 0)
(-0.0239091 -0.0723238 0)
(-0.00761681 -0.0396818 0)
(-0.000776556 -0.0104955 0)
(-0.00125211 0.0245789 0)
(-0.00764454 0.063364 0)
(-0.020064 0.0927331 0)
(-0.0359297 0.11406 0)
(-0.0539876 0.128756 0)
(-0.0734801 0.138043 0)
(-0.0938139 0.142833 0)
(-0.114541 0.143709 0)
(-0.135313 0.140955 0)
(-0.155825 0.134629 0)
(-0.175777 0.124653 0)
(-0.194846 0.110895 0)
(-0.212663 0.0932481 0)
(-0.228798 0.0716967 0)
(-0.242745 0.0463724 0)
(-0.253914 0.0176112 0)
(-0.261634 -0.0139895 0)
(-0.265168 -0.047509 0)
(-0.263746 -0.0816556 0)
(-0.25663 -0.114724 0)
(-0.243224 -0.144598 0)
(-0.223224 -0.168823 0)
(-0.196824 -0.184801 0)
(-0.164929 -0.190139 0)
(-0.129332 -0.183164 0)
(-0.0927293 -0.163533 0)
(-0.0584493 -0.13275 0)
(-0.029806 -0.09428 0)
(-0.00967502 -0.0530593 0)
(-0.00103974 -0.014734 0)
(-0.00124478 0.0286492 0)
(-0.00764219 0.0733609 0)
(-0.0201137 0.106925 0)
(-0.0360794 0.131117 0)
(-0.0542733 0.147689 0)
(-0.0739273 0.158132 0)
(-0.0944477 0.16356 0)
(-0.1154 0.164687 0)
(-0.136461 0.161872 0)
(-0.157367 0.155203 0)
(-0.177865 0.144595 0)
(-0.197687 0.129884 0)
(-0.21652 0.110906 0)
(-0.233985 0.0875706 0)
(-0.249615 0.0599223 0)
(-0.262846 0.0282005 0)
(-0.272997 -0.00709227 0)
(-0.279276 -0.0451154 0)
(-0.280798 -0.0846092 0)
(-0.276621 -0.123824 0)
(-0.265846 -0.160462 0)
(-0.247781 -0.191699 0)
(-0.222175 -0.214318 0)
(-0.189525 -0.225058 0)
(-0.151386 -0.22122 0)
(-0.110567 -0.201497 0)
(-0.070957 -0.166846 0)
(-0.0368228 -0.120923 0)
(-0.0121991 -0.0696475 0)
(-0.00138208 -0.0201279 0)
(-0.00120177 0.0326641 0)
(-0.00745058 0.0832728 0)
(-0.019699 0.12104 0)
(-0.0354272 0.148115 0)
(-0.0533758 0.166575 0)
(-0.0727715 0.178185 0)
(-0.0930212 0.184267 0)
(-0.113703 0.185682 0)
(-0.134524 0.182878 0)
(-0.15526 0.175985 0)
(-0.175715 0.16492 0)
(-0.195686 0.149492 0)
(-0.214933 0.129484 0)
(-0.233153 0.104728 0)
(-0.249959 0.07517 0)
(-0.264851 0.0409331 0)
(-0.277196 0.00238879 0)
(-0.28621 -0.0397576 0)
(-0.290948 -0.084356 0)
(-0.290321 -0.129716 0)
(-0.283152 -0.173476 0)
(-0.26833 -0.212542 0)
(-0.245059 -0.243126 0)
(-0.213236 -0.261028 0)
(-0.173919 -0.262266 0)
(-0.129752 -0.24413 0)
(-0.0850226 -0.206501 0)
(-0.0450189 -0.152839 0)
(-0.0152543 -0.0900189 0)
(-0.00182236 -0.0269402 0)
(-0.00112626 0.0365227 0)
(-0.00708519 0.0928766 0)
(-0.0188521 0.134775 0)
(-0.034014 0.164692 0)
(-0.0513317 0.185004 0)
(-0.0700286 0.197744 0)
(-0.0895128 0.204452 0)
(-0.109376 0.206147 0)
(-0.129351 0.203382 0)
(-0.149262 0.196342 0)
(-0.168973 0.184964 0)
(-0.188356 0.169039 0)
(-0.20726 0.148306 0)
(-0.225483 0.122527 0)
(-0.242748 0.0915489 0)
(-0.258666 0.0553691 0)
(-0.272711 0.0142023 0)
(-0.28417 -0.0314263 0)
(-0.292123 -0.0805522 0)
(-0.295415 -0.131668 0)
(-0.292659 -0.1825 0)
(-0.28235 -0.229849 0)
(-0.263099 -0.269495 0)
(-0.23404 -0.296329 0)
(-0.195443 -0.304906 0)
(-0.149412 -0.290644 0)
(-0.100312 -0.251639 0)
(-0.0543732 -0.19048 0)
(-0.0188949 -0.114756 0)
(-0.00238194 -0.0354694 0)
(-0.00102534 0.0401376 0)
(-0.00658092 0.101975 0)
(-0.0176484 0.147852 0)
(-0.0319482 0.180499 0)
(-0.0482668 0.202562 0)
(-0.0658239 0.216334 0)
(-0.0840298 0.223576 0)
(-0.10249 0.22548 0)
(-0.120971 0.222719 0)
(-0.139341 0.215556 0)
(-0.157533 0.203958 0)
(-0.175503 0.187719 0)
(-0.193204 0.166549 0)
(-0.210551 0.140152 0)
(-0.227403 0.108289 0)
(-0.243525 0.0708335 0)
(-0.25854 0.0278345 0)
(-0.271869 -0.0203984 0)
(-0.282713 -0.0731484 0)
(-0.28996 -0.129214 0)
(-0.292109 -0.186574 0)
(-0.287357 -0.242145 0)
(-0.273748 -0.291513 0)
(-0.249566 -0.328827 0)
(-0.21403 -0.347146 0)
(-0.168268 -0.339608 0)
(-0.116218 -0.301683 0)
(-0.0647512 -0.234057 0)
(-0.0231579 -0.144407 0)
(-0.00308515 -0.0460443 0)
(-0.00091081 0.0434458 0)
(-0.00599611 0.110417 0)
(-0.016216 0.16004 0)
(-0.0294197 0.195224 0)
(-0.0444129 0.218856 0)
(-0.0604106 0.233478 0)
(-0.0768292 0.241083 0)
(-0.0932957 0.24305 0)
(-0.109613 0.240191 0)
(-0.125706 0.23286 0)
(-0.14158 0.221079 0)
(-0.157285 0.204661 0)
(-0.172883 0.183305 0)
(-0.188423 0.15668 0)
(-0.203914 0.124479 0)
(-0.219296 0.0864687 0)
(-0.234385 0.0425485 0)
(-0.248771 -0.00719598 0)
(-0.261871 -0.0624388 0)
(-0.27272 -0.122266 0)
(-0.279836 -0.185091 0)
(-0.281269 -0.248205 0)
(-0.274622 -0.307316 0)
(-0.257349 -0.356161 0)
(-0.227453 -0.386475 0)
(-0.184658 -0.388895 0)
(-0.131826 -0.355405 0)
(-0.0758737 -0.283392 0)
(-0.0280568 -0.179418 0)
(-0.00396059 -0.059016 0)
(-0.000800241 0.0464227 0)
(-0.00541763 0.118132 0)
(-0.0147459 0.171191 0)
(-0.0267121 0.208622 0)
(-0.0401207 0.233534 0)
(-0.0541813 0.248724 0)
(-0.0683272 0.256429 0)
(-0.0822213 0.25823 0)
(-0.0957189 0.255096 0)
(-0.108814 0.247489 0)
(-0.121595 0.235503 0)
(-0.13421 0.218989 0)
(-0.146838 0.197658 0)
(-0.159664 0.171161 0)
(-0.172852 0.139145 0)
(-0.186513 0.101292 0)
(-0.200665 0.0573612 0)
(-0.215207 0.00721776 0)
(-0.229718 -0.0491265 0)
(-0.243408 -0.111192 0)
(-0.25506 -0.177944 0)
(-0.262754 -0.247271 0)
(-0.263855 -0.31537 0)
(-0.25515 -0.376022 0)
(-0.233413 -0.420068 0)
(-0.196642 -0.435728 0)
(-0.145913 -0.410825 0)
(-0.0872917 -0.337775 0)
(-0.0335796 -0.220059 0)
(-0.00504447 -0.0747502 0)
(-0.000719263 0.0490996 0)
(-0.00496943 0.125156 0)
(-0.0135062 0.181272 0)
(-0.0242183 0.220541 0)
(-0.035871 0.24631 0)
(-0.0476722 0.261661 0)
(-0.0590945 0.269094 0)
(-0.0698657 0.270414 0)
(-0.0799197 0.266758 0)
(-0.0893389 0.258712 0)
(-0.0983094 0.246455 0)
(-0.107086 0.229889 0)
(-0.115967 0.208753 0)
(-0.125268 0.1827 0)
(-0.135305 0.151353 0)
(-0.146359 0.114329 0)
(-0.158646 0.0712648 0)
(-0.172273 0.0218362 0)
(-0.1871 -0.034158 0)
(-0.202652 -0.0967733 0)
(-0.217985 -0.165573 0)
(-0.231425 -0.239215 0)
(-0.240379 -0.314726 0)
(-0.241261 -0.386481 0)
(-0.229808 -0.445094 0)
(-0.20217 -0.476864 0)
(-0.157001 -0.465184 0)
(-0.098375 -0.395811 0)
(-0.0396945 -0.266334 0)
(-0.00638882 -0.0936236 0)
(-0.00070694 0.0515875 0)
(-0.004829 0.131681 0)
(-0.0128655 0.190402 0)
(-0.0224602 0.230944 0)
(-0.0322834 0.256975 0)
(-0.0415575 0.271923 0)
(-0.0498369 0.278594 0)
(-0.0569609 0.279031 0)
(-0.0629829 0.27455 0)
(-0.0681033 0.265865 0)
(-0.0726235 0.253244 0)
(-0.0769129 0.236648 0)
(-0.0813857 0.215852 0)
(-0.0864822 0.190526 0)
(-0.0926501 0.160283 0)
(-0.100319 0.1247 0)
(-0.109874 0.0833331 0)
(-0.121616 0.0357166 0)
(-0.13567 -0.0186233 0)
(-0.151888 -0.0801172 0)
(-0.169691 -0.148933 0)
(-0.187817 -0.224587 0)
(-0.204004 -0.305201 0)
(-0.214688 -0.386285 0)
(-0.214955 -0.459073 0)
(-0.199264 -0.508879 0)
(-0.16343 -0.515031 0)
(-0.108311 -0.45531 0)
(-0.046366 -0.317873 0)
(-0.00807805 -0.116034 0)
(-0.000828095 0.0541162 0)
(-0.00525992 0.138107 0)
(-0.0133323 0.198892 0)
(-0.0221165 0.239928 0)
(-0.0301217 0.265392 0)
(-0.0366299 0.279184 0)
(-0.0413506 0.284466 0)
(-0.0443067 0.283537 0)
(-0.0457275 0.277887 0)
(-0.0459692 0.268348 0)
(-0.0454689 0.255269 0)
(-0.0447163 0.238665 0)
(-0.0442359 0.218348 0)
(-0.0445737 0.194004 0)
(-0.0462902 0.16525 0)
(-0.0499304 0.131634 0)
(-0.056006 0.0926625 0)
(-0.0649897 0.0477715 0)
(-0.0772276 -0.00372332 0)
(-0.0928645 -0.0625426 0)
(-0.111731 -0.129372 0)
(-0.133087 -0.20455 0)
(-0.155253 -0.287412 0)
(-0.175117 -0.375038 0)
(-0.187667 -0.460185 0)
(-0.186131 -0.528499 0)
(-0.163423 -0.556397 0)
(-0.116089 -0.5132 0)
(-0.05357 -0.373808 0)
(-0.0102577 -0.142437 0)
(-0.00119981 0.0571025 0)
(-0.00667292 0.145118 0)
(-0.0156174 0.207274 0)
(-0.0240536 0.247704 0)
(-0.0302799 0.271464 0)
(-0.0337424 0.28311 0)
(-0.0344278 0.286232 0)
(-0.0326444 0.283384 0)
(-0.028869 0.276203 0)
(-0.0236561 0.265609 0)
(-0.0175976 0.252003 0)
(-0.0113052 0.235438 0)
(-0.0054004 0.215747 0)
(-0.000511654 0.192628 0)
(0.00271064 0.165695 0)
(0.00364159 0.134493 0)
(0.00169217 0.0984903 0)
(-0.00375379 0.0570483 0)
(-0.0132141 0.0093904 0)
(-0.0270733 -0.0454202 0)
(-0.0455578 -0.108446 0)
(-0.0684908 -0.180698 0)
(-0.0949466 -0.262667 0)
(-0.12265 -0.353232 0)
(-0.147132 -0.447476 0)
(-0.161135 -0.53291 0)
(-0.155065 -0.58502 0)
(-0.120435 -0.565481 0)
(-0.0612767 -0.432593 0)
(-0.0131732 -0.173409 0)
(-0.00204516 0.0612785 0)
(-0.00973208 0.153788 0)
(-0.0207124 0.216307 0)
(-0.0293261 0.254541 0)
(-0.0336932 0.275035 0)
(-0.0336423 0.28327 0)
(-0.0296285 0.283318 0)
(-0.0223793 0.277952 0)
(-0.0127007 0.268892 0)
(-0.00138502 0.257084 0)
(0.0108091 0.242933 0)
(0.0231558 0.226494 0)
(0.0349529 0.207598 0)
(0.0455101 0.185942 0)
(0.0541366 0.161132 0)
(0.0601562 0.132716 0)
(0.0629066 0.10014 0)
(0.0617106 0.0627294 0)
(0.0559176 0.019683 0)
(0.0449168 -0.0300445 0)
(0.0281565 -0.0877261 0)
(0.00528025 -0.15482 0)
(-0.0236017 -0.232743 0)
(-0.0573363 -0.322124 0)
(-0.0925887 -0.420892 0)
(-0.122582 -0.519953 0)
(-0.136138 -0.596555 0)
(-0.119618 -0.607177 0)
(-0.0693238 -0.491726 0)
(-0.0171946 -0.209723 0)
(-0.00379546 0.0679315 0)
(-0.0155171 0.165697 0)
(-0.0299315 0.226892 0)
(-0.0390261 0.260569 0)
(-0.0410053 0.275693 0)
(-0.0364925 0.278956 0)
(-0.0266927 0.274905 0)
(-0.0129133 0.266426 0)
(0.00363295 0.255204 0)
(0.0218886 0.242108 0)
(0.0409342 0.227475 0)
(0.0599504 0.21131 0)
(0.0781825 0.193413 0)
(0.0949113 0.173465 0)
(0.109434 0.151063 0)
(0.121054 0.125747 0)
(0.129071 0.0969691 0)
(0.132764 0.0640682 0)
(0.131384 0.0262404 0)
(0.124144 -0.0175497 0)
(0.110221 -0.0686241 0)
(0.0888028 -0.128636 0)
(0.0592366 -0.199583 0)
(0.0214422 -0.28351 0)
(-0.0228289 -0.381183 0)
(-0.0683401 -0.48826 0)
(-0.103768 -0.586751 0)
(-0.11106 -0.63225 0)
(-0.0770333 -0.547228 0)
(-0.0227421 -0.252281 0)
(-0.00726487 0.0793399 0)
(-0.0257073 0.182979 0)
(-0.0447057 0.239743 0)
(-0.0536095 0.265339 0)
(-0.0515169 0.27234 0)
(-0.0405564 0.268824 0)
(-0.0230532 0.259648 0)
(-0.00105341 0.24758 0)
(0.0237773 0.234073 0)
(0.050128 0.219778 0)
(0.0769541 0.204868 0)
(0.103387 0.189238 0)
(0.128666 0.172625 0)
(0.152085 0.154673 0)
(0.172961 0.134972 0)
(0.190609 0.113061 0)
(0.204322 0.0884172 0)
(0.21335 0.0604241 0)
(0.21687 0.0283346 0)
(0.213957 -0.00879949 0)
(0.203576 -0.052216 0)
(0.184552 -0.103529 0)
(0.155601 -0.164935 0)
(0.115593 -0.239341 0)
(0.0643826 -0.329891 0)
(0.00469524 -0.437463 0)
(-0.053807 -0.551742 0)
(-0.090548 -0.633482 0)
(-0.0823466 -0.592813 0)
(-0.0299089 -0.301772 0)
(-0.013859 0.0994642 0)
(-0.0425197 0.20797 0)
(-0.0653913 0.254463 0)
(-0.0706274 0.266839 0)
(-0.060224 0.262384 0)
(-0.0388706 0.250306 0)
(-0.0103753 0.235277 0)
(0.0224202 0.219528 0)
(0.0574645 0.20399 0)
(0.0933011 0.188913 0)
(0.12887 0.1742 0)
(0.163351 0.159578 0)
(0.196055 0.144692 0)
(0.226358 0.129143 0)
(0.253646 0.112514 0)
(0.277288 0.0943638 0)
(0.296605 0.0742163 0)
(0.310847 0.0515311 0)
(0.319153 0.025669 0)
(0.320493 -0.00416999 0)
(0.313695 -0.0390244 0)
(0.297325 -0.0803043 0)
(0.269651 -0.130056 0)
(0.228711 -0.191396 0)
(0.172676 -0.268989 0)
(0.101266 -0.368275 0)
(0.020206 -0.488617 0)
(-0.0507914 -0.602579 0)
(-0.0803061 -0.619026 0)
(-0.0374733 -0.358543 0)
(-0.0254062 0.134921 0)
(-0.0670579 0.24093 0)
(-0.0865002 0.266627 0)
(-0.0779661 0.259083 0)
(-0.0503789 0.240085 0)
(-0.01193 0.218638 0)
(0.032203 0.198146 0)
(0.0787586 0.179634 0)
(0.125696 0.163145 0)
(0.17175 0.148352 0)
(0.216106 0.134808 0)
(0.258187 0.122046 0)
(0.297522 0.109614 0)
(0.33367 0.0970871 0)
(0.366169 0.0840603 0)
(0.394503 0.07014 0)
(0.418077 0.0549246 0)
(0.43619 0.0379809 0)
(0.447996 0.0188137 0)
(0.452445 -0.00318655 0)
(0.448309 -0.0287466 0)
(0.434011 -0.0589775 0)
(0.407576 -0.0955319 0)
(0.366522 -0.14115 0)
(0.307779 -0.200728 0)
(0.228164 -0.282529 0)
(0.128176 -0.395605 0)
(0.020947 -0.531057 0)
(-0.0608471 -0.61267 0)
(-0.0408176 -0.421908 0)
(-0.0413311 0.197095 0)
(-0.0902713 0.272492 0)
(-0.0798308 0.259224 0)
(-0.0360745 0.226517 0)
(0.0220505 0.193855 0)
(0.0848033 0.165978 0)
(0.147574 0.143357 0)
(0.208128 0.12516 0)
(0.265447 0.110338 0)
(0.31913 0.097969 0)
(0.369045 0.0873141 0)
(0.415138 0.0777809 0)
(0.457338 0.0688902 0)
(0.495513 0.0602442 0)
(0.529436 0.0515025 0)
(0.55878 0.0423603 0)
(0.583094 0.0325292 0)
(0.601795 0.0217161 0)
(0.614124 0.00959704 0)
(0.619173 -0.00422721 0)
(0.615764 -0.0201553 0)
(0.60232 -0.0389031 0)
(0.576883 -0.0615677 0)
(0.53681 -0.0900818 0)
(0.478386 -0.128318 0)
(0.396311 -0.184474 0)
(0.285261 -0.273843 0)
(0.146111 -0.410553 0)
(-0.00331433 -0.554041 0)
(-0.0253657 -0.477551 0)
(-0.0341749 0.29364 0)
(-0.0480273 0.272442 0)
(0.0535588 0.199431 0)
(0.156643 0.149682 0)
(0.249704 0.114989 0)
(0.332171 0.0902158 0)
(0.404938 0.0726549 0)
(0.46916 0.0600733 0)
(0.526076 0.0507662 0)
(0.576787 0.0435895 0)
(0.622144 0.0377952 0)
(0.662744 0.0328767 0)
(0.698964 0.0284749 0)
(0.730993 0.024324 0)
(0.758854 0.0202188 0)
(0.782422 0.0159909 0)
(0.801428 0.0114931 0)
(0.815469 0.00658945 0)
(0.823941 0.00113978 0)
(0.826232 -0.00493528 0)
(0.821396 -0.0119557 0)
(0.808151 -0.0201939 0)
(0.784891 -0.0301182 0)
(0.749309 -0.0426642 0)
(0.697809 -0.0598842 0)
(0.624293 -0.0868687 0)
(0.518486 -0.137147 0)
(0.365157 -0.240251 0)
(0.144149 -0.406966 0)
(0.0588747 -0.458304 0)
(0.303191 0.180886 0)
(0.382344 0.144192 0)
(0.56047 0.0910361 0)
(0.686185 0.0589273 0)
(0.768922 0.0393439 0)
(0.828694 0.0268999 0)
(0.874832 0.0190275 0)
(0.911675 0.0140475 0)
(0.941907 0.0108137 0)
(0.96732 0.00861382 0)
(0.989047 0.00702509 0)
(1.00778 0.00579379 0)
(1.02393 0.00476236 0)
(1.03771 0.00382936 0)
(1.04921 0.00292634 0)
(1.0584 0.00200409 0)
(1.06516 0.00102356 0)
(1.06933 -4.4907e-05 0)
(1.07066 -0.00123439 0)
(1.06878 -0.00247215 0)
(1.0632 -0.00394097 0)
(1.05345 -0.00567709 0)
(1.03873 -0.00775827 0)
(1.01787 -0.0103937 0)
(0.988812 -0.0140836 0)
(0.947431 -0.0201735 0)
(0.883918 -0.0325574 0)
(0.776323 -0.0637374 0)
(0.544815 -0.139457 0)
(0.38249 -0.201734 0)
)
;

boundaryField
{
    movingWall
    {
        type            fixedValue;
        value           uniform (1.2 0 0);
    }
    fixedWalls
    {
        type            noSlip;
    }
    frontAndBack
    {
        type            empty;
    }
}


// ************************************************************************* //
