/*--------------------------------*- C++ -*----------------------------------*\
  =========                 |
  \\      /  F ield         | OpenFOAM: The Open Source CFD Toolbox
   \\    /   O peration     | Website:  https://openfoam.org
    \\  /    A nd           | Version:  7
     \\/     M anipulation  |
\*---------------------------------------------------------------------------*/
FoamFile
{
    version     2.0;
    format      ascii;
    class       volScalarField;
    location    "1.5";
    object      p;
}
// * * * * * * * * * * * * * * * * * * * * * * * * * * * * * * * * * * * * * //

dimensions      [0 2 -2 0 0 0 0];

internalField   nonuniform List<scalar> 
900
(
1.75509e-08
-0.000229586
-0.000512327
-0.000750986
-0.000887581
-0.00088913
-0.000743316
-0.000449247
-1.1471e-05
0.000562918
0.00126541
0.00208616
0.00301345
0.0040329
0.00512661
0.00627252
0.007444
0.00860991
0.00973523
0.0107824
0.0117131
0.0124915
0.0130871
0.0134785
0.013658
0.013635
0.0134418
0.0131381
0.0128011
0.0125656
0.00022702
-5.66635e-06
-0.000210945
-0.000363806
-0.000431818
-0.000389634
-0.000225276
6.49565e-05
0.000480203
0.00101669
0.00166844
0.0024274
0.00328312
0.00422223
0.00522794
0.00627956
0.00735236
0.00841792
0.00944464
0.0103992
0.0112486
0.0119624
0.0125161
0.0128939
0.0130923
0.0131221
0.0130114
0.0128073
0.0125644
0.0123305
0.000516128
0.000193401
-1.7609e-05
-0.000147523
-0.000191308
-0.000131672
3.98832e-05
0.000326101
0.000726834
0.00123973
0.00186038
0.00258224
0.00339622
0.0042902
0.00524855
0.00625174
0.00727645
0.00829533
0.00927825
0.0101934
0.0110092
0.0116968
0.0122333
0.0126042
0.0128065
0.0128499
0.0127592
0.0125734
0.0123221
0.0119945
0.000770614
0.000338263
8.94875e-05
-4.70675e-05
-8.87725e-05
-2.57915e-05
0.000145923
0.000426754
0.000816062
0.00131211
0.00191168
0.00260964
0.00339835
0.00426714
0.00520162
0.00618337
0.00718977
0.00819402
0.00916606
0.0100738
0.010885
0.0115701
0.012105
0.0124743
0.0126736
0.0127109
0.0126082
0.0124006
0.0121005
0.0116637
0.000926094
0.000387263
9.28447e-05
-6.18312e-05
-0.000111737
-5.29679e-05
0.000114474
0.000388571
0.000767976
0.00125137
0.00183663
0.00252003
0.00329551
0.00415389
0.0050821
0.00606266
0.00707341
0.00808744
0.00907384
0.00999894
0.0108283
0.0115298
0.0120765
0.0124506
0.0126454
0.0126673
0.0125371
0.0122892
0.0119264
0.0113809
0.000936633
0.000300774
-4.08707e-05
-0.00021959
-0.000283896
-0.000234284
-7.40333e-05
0.000192806
0.000564291
0.00103955
0.00161754
0.00229604
0.00307066
0.00393378
0.00487371
0.00587385
0.00691222
0.00796125
0.00898829
0.00995687
0.0108289
0.0115676
0.0121419
0.0125299
0.0127221
0.0127232
0.0125546
0.0122533
0.0118191
0.0111694
0.000772608
4.90321e-05
-0.000339009
-0.000544493
-0.000626552
-0.000588904
-0.000437366
-0.000177555
0.00018825
0.000659766
0.00123719
0.00191995
0.00270547
0.00358792
0.00455709
0.0055973
0.00668665
0.00779647
0.00889162
0.00993167
0.0108732
0.0116733
0.0122942
0.0127085
0.0129029
0.0128807
0.0126653
0.0122994
0.0117852
0.0110314
0.000413311
-0.000391604
-0.000824768
-0.001058
-0.00115936
-0.00113503
-0.000992826
-0.000739506
-0.0003774
9.40416e-05
0.000676482
0.00137125
0.00217787
0.00309264
0.00410716
0.00520695
0.00637022
0.00756708
0.00875933
0.00990146
0.0109431
0.0118329
0.0125245
0.0129822
0.0131875
0.013142
0.0128724
0.0124301
0.0118235
0.010956
-0.000158113
-0.00104187
-0.00151975
-0.0017813
-0.00190283
-0.00189264
-0.00176021
-0.00151318
-0.00115369
-0.000680095
-8.89681e-05
0.000623272
0.00145872
0.00241631
0.00349002
0.00466712
0.00592643
0.00723705
0.00855741
0.00983604
0.0110139
0.0120287
0.012822
0.0133472
0.0135776
0.0135118
0.0131806
0.0126471
0.0119291
0.0109258
-0.000957532
-0.00192146
-0.00244504
-0.00273587
-0.00287855
-0.00288351
-0.00276184
-0.002522
-0.00216574
-0.00169011
-0.00108958
-0.000357851
0.00051032
0.00151724
0.0026602
0.0039292
0.00530462
0.00675533
0.00823667
0.00969071
0.011048
0.0122325
0.0131695
0.0137968
0.0140749
0.0139969
0.0135973
0.0129537
0.0120965
0.0109191
-0.00200158
-0.00305042
-0.00362223
-0.00394401
-0.00410942
-0.00413128
-0.00402255
-0.00379258
-0.00344273
-0.00296856
-0.00236212
-0.00161389
-0.000714745
0.000341975
0.00155814
0.00292801
0.00443508
0.00604977
0.00772545
0.00939806
0.0109866
0.0123979
0.0135361
0.014316
0.0146788
0.0146059
0.0141336
0.013357
0.0123213
0.0109114
-0.00330879
-0.00445028
-0.00507432
-0.00542957
-0.00562006
-0.00566161
-0.00556959
-0.00535457
-0.00501766
-0.00455286
-0.00394955
-0.00319453
-0.00227401
-0.00117583
0.000108073
0.00157824
0.00322367
0.00501994
0.00692048
0.00885706
0.0107372
0.0124479
0.0138656
0.0148729
0.0153802
0.015347
0.014806
0.0138707
0.0126044
0.0108772
-0.00490027
-0.00614498
-0.00682658
-0.00721853
-0.00743713
-0.00750222
-0.00743239
-0.00724006
-0.00692647
-0.00648419
-0.00589987
-0.00515628
-0.00423432
-0.00311517
-0.00178284
-0.000227869
0.00154791
0.00353021
0.00567667
0.00791944
0.0101573
0.0122564
0.014059
0.0154034
0.0161516
0.0162236
0.0156358
0.014519
0.0129559
0.010793
-0.00680036
-0.00816176
-0.00890736
-0.00933955
-0.0095895
-0.00968254
-0.00964173
-0.00948233
-0.00920635
-0.00880538
-0.00826356
-0.00755964
-0.00666887
-0.00556492
-0.00422221
-0.0026188
-0.000740992
0.00140524
0.00379727
0.00637445
0.00903381
0.0116238
0.0139486
0.0157867
0.0169281
0.0172231
0.0166474
0.0153401
0.0134018
0.0106438
-0.00903728
-0.0105323
-0.0113491
-0.0118246
-0.0121083
-0.0122332
-0.0122285
-0.0121138
-0.0118929
-0.0115572
-0.0110891
-0.0104638
-0.00965122
-0.00861736
-0.00732584
-0.00574026
-0.00382865
-0.00157247
0.00102866
0.00393678
0.00706258
0.0102485
0.0132621
0.0158095
0.0175757
0.0182958
0.0178595
0.016389
0.0139936
0.0104325
-0.0116442
-0.0132941
-0.0141898
-0.0147097
-0.0150269
-0.0151848
-0.0152217
-0.0151631
-0.015016
-0.0147731
-0.014416
-0.0139181
-0.013245
-0.0123561
-0.0112044
-0.00973766
-0.00790145
-0.00564526
-0.00293012
0.00024835
0.00383918
0.0077036
0.0115885
0.0151217
0.0178479
0.0193209
0.0192676
0.017738
0.0148204
0.0101965
-0.0146614
-0.0164935
-0.017475
-0.0180362
-0.0183808
-0.0185672
-0.0186458
-0.0186508
-0.0185943
-0.0184716
-0.0182657
-0.0179499
-0.0174887
-0.0168372
-0.0159401
-0.0147307
-0.0131292
-0.0110454
-0.00839076
-0.00508927
-0.00111825
0.00344461
0.00836346
0.0132031
0.0173389
0.0200615
0.0208166
0.0194734
0.0160263
0.0100334
-0.0181395
-0.0201897
-0.0212615
-0.0218525
-0.0222077
-0.0224069
-0.0225172
-0.0225845
-0.0226277
-0.0226469
-0.0226288
-0.0225495
-0.0223759
-0.0220637
-0.0215541
-0.0207698
-0.0196084
-0.0179385
-0.0156022
-0.0124323
-0.0082855
-0.00311733
0.00292064
0.0093809
0.0154697
0.020132
0.0223719
0.0216928
0.0178378
0.0101437
-0.0221457
-0.0244621
-0.0256227
-0.0262165
-0.0265469
-0.0267246
-0.0268393
-0.0269514
-0.0270891
-0.0272585
-0.0274521
-0.0276526
-0.0278334
-0.0279568
-0.0279681
-0.0277866
-0.0272941
-0.0263208
-0.0246348
-0.0219514
-0.0179658
-0.0124385
-0.00534189
0.00296199
0.011566
0.0190242
0.0237199
0.0245164
0.0206096
0.0109068
-0.0267749
-0.029422
-0.0306569
-0.031199
-0.0314388
-0.0315312
-0.0315958
-0.0317109
-0.0319144
-0.0322194
-0.0326257
-0.0331249
-0.0337019
-0.0343318
-0.0349716
-0.0355477
-0.0359361
-0.035938
-0.0352501
-0.0334497
-0.0300602
-0.0245673
-0.0166589
-0.00647401
0.00509841
0.0162647
0.0246513
0.0281421
0.0249054
0.0130101
-0.0321693
-0.0352329
-0.0364994
-0.0368877
-0.0369214
-0.0368202
-0.0367415
-0.0367831
-0.0369917
-0.0373862
-0.037973
-0.038754
-0.0397284
-0.0408885
-0.0422104
-0.0436361
-0.0450463
-0.0462238
-0.0468033
-0.0462276
-0.0438667
-0.0388609
-0.0305334
-0.0186557
-0.00390162
0.0117586
0.0251942
0.0329909
0.0316312
0.0176612
-0.0385571
-0.0421436
-0.0433402
-0.0433883
-0.0430227
-0.042555
-0.0421875
-0.0420356
-0.04215
-0.0425505
-0.0432474
-0.044251
-0.0455744
-0.0472285
-0.0492109
-0.0514833
-0.0539372
-0.0563454
-0.0583071
-0.0591961
-0.0580498
-0.0538508
-0.0454865
-0.032243
-0.0143715
0.00627255
0.0260145
0.0399831
0.042243
0.0269092
-0.0463294
-0.0505445
-0.0514456
-0.0508207
-0.0497425
-0.048646
-0.0477784
-0.0472633
-0.0471444
-0.0474329
-0.0481353
-0.0492651
-0.0508444
-0.0528989
-0.0554433
-0.0584555
-0.0618354
-0.0653463
-0.0685463
-0.0707156
-0.0707809
-0.0674177
-0.0591511
-0.0447693
-0.0239659
0.00184649
0.0288749
0.0509265
0.0590557
0.044106
-0.0562053
-0.0610608
-0.0611788
-0.0592962
-0.0570131
-0.0549085
-0.0532552
-0.0521603
-0.0516386
-0.0516765
-0.0522641
-0.053407
-0.0551272
-0.0574547
-0.0604101
-0.0639747
-0.0680435
-0.07236
-0.0764362
-0.079471
-0.0802833
-0.0773214
-0.0688165
-0.0531267
-0.0293501
0.00177173
0.0368535
0.0688692
0.0856701
0.0745228
-0.0696047
-0.0747009
-0.0729893
-0.0688476
-0.0646187
-0.060989
-0.0581943
-0.056274
-0.0551769
-0.0548368
-0.0552075
-0.0562708
-0.0580332
-0.0605134
-0.0637205
-0.0676194
-0.072078
-0.0767981
-0.0812289
-0.0844815
-0.0852668
-0.0818534
-0.0722556
-0.0545102
-0.0271333
0.00983924
0.0539545
0.0981139
0.127374
0.125895
-0.0895281
-0.0930944
-0.0872996
-0.0792487
-0.0720271
-0.0662251
-0.0618999
-0.0589313
-0.0571382
-0.0563603
-0.0564848
-0.0574465
-0.0592173
-0.0617854
-0.0651282
-0.0691713
-0.0737319
-0.0784452
-0.0826761
-0.0854356
-0.0853212
-0.0803941
-0.0685158
-0.0473908
-0.0151318
0.0289717
0.0839337
0.143457
0.190871
0.20816
-0.122578
-0.118803
-0.104318
-0.0897996
-0.0782075
-0.0695127
-0.0633308
-0.0592191
-0.0567605
-0.0556363
-0.0556256
-0.0565888
-0.0584421
-0.0611264
-0.0645704
-0.0686432
-0.0730931
-0.0774716
-0.081045
-0.0827107
-0.0809224
-0.0735981
-0.0583277
-0.0324791
0.00638568
0.0599195
0.128339
0.208183
0.282509
0.334162
-0.183837
-0.154329
-0.123455
-0.0989653
-0.0813812
-0.0692221
-0.061181
-0.0561722
-0.053381
-0.0522462
-0.0524014
-0.0536154
-0.0557405
-0.0586657
-0.0622683
-0.066359
-0.0706161
-0.0745079
-0.0772054
-0.0774965
-0.0736955
-0.0636764
-0.0446377
-0.0134947
0.0330326
0.0980899
0.184286
0.291026
0.406252
0.531915
-0.315994
-0.194683
-0.135366
-0.098408
-0.0749893
-0.0606105
-0.0522267
-0.0476921
-0.0456635
-0.0453563
-0.0463089
-0.0482435
-0.0509859
-0.0544046
-0.0583541
-0.0626155
-0.0668304
-0.070424
-0.0725166
-0.0718392
-0.0665796
-0.0546917
-0.0331168
0.00170231
0.054098
0.129524
0.235118
0.379297
0.567985
0.857969
-0.641992
-0.230017
-0.103199
-0.0627578
-0.0427367
-0.0325911
-0.0288022
-0.0284401
-0.0298152
-0.0321924
-0.0352554
-0.0388514
-0.0428998
-0.0473389
-0.0520743
-0.0569252
-0.0615641
-0.0654478
-0.0677445
-0.0672728
-0.0624729
-0.0508616
-0.0297301
0.00450895
0.0566897
0.134085
0.249845
0.432416
0.738458
1.33265
)
;

boundaryField
{
    movingWall
    {
        type            zeroGradient;
    }
    fixedWalls
    {
        type            zeroGradient;
    }
    frontAndBack
    {
        type            empty;
    }
}


// ************************************************************************* //
