/*--------------------------------*- C++ -*----------------------------------*\
  =========                 |
  \\      /  F ield         | OpenFOAM: The Open Source CFD Toolbox
   \\    /   O peration     | Website:  https://openfoam.org
    \\  /    A nd           | Version:  7
     \\/     M anipulation  |
\*---------------------------------------------------------------------------*/
FoamFile
{
    version     2.0;
    format      ascii;
    class       surfaceScalarField;
    location    "1.5";
    object      phi;
}
// * * * * * * * * * * * * * * * * * * * * * * * * * * * * * * * * * * * * * //

dimensions      [0 3 -1 0 0 0 0];

internalField   nonuniform List<scalar> 
1740
(
2.83946e-07
-2.83957e-07
-3.43557e-07
6.27503e-07
-1.96914e-06
1.62559e-06
-4.37574e-06
2.4066e-06
-7.29705e-06
2.92131e-06
-1.04978e-05
3.20074e-06
-1.37925e-05
3.29474e-06
-1.70422e-05
3.24969e-06
-2.01428e-05
3.10057e-06
-2.3013e-05
2.87026e-06
-2.55848e-05
2.57172e-06
-2.77956e-05
2.21084e-06
-2.9585e-05
1.78942e-06
-3.08929e-05
1.3079e-06
-3.16607e-05
7.67758e-07
-3.18342e-05
1.73568e-07
-3.1369e-05
-4.65271e-07
-3.0236e-05
-1.13294e-06
-2.84298e-05
-1.80619e-06
-2.5976e-05
-2.45388e-06
-2.29386e-05
-3.03737e-06
-1.94268e-05
-3.51185e-06
-1.55978e-05
-3.82894e-06
-1.16577e-05
-3.94015e-06
-7.85641e-06
-3.80127e-06
-4.47833e-06
-3.37809e-06
-1.82191e-06
-2.65642e-06
-1.57313e-07
-1.6646e-06
3.80952e-07
-5.38262e-07
3.80957e-07
-6.19607e-07
3.35649e-07
-3.24858e-06
3.25648e-06
-7.89996e-06
6.27698e-06
-1.41691e-05
8.67579e-06
-2.15631e-05
1.03152e-05
-2.96032e-05
1.12409e-05
-3.78753e-05
1.15668e-05
-4.60417e-05
1.14161e-05
-5.38326e-05
1.08914e-05
-6.10289e-05
1.00666e-05
-6.74457e-05
8.98848e-06
-7.2918e-05
7.68318e-06
-7.72929e-05
6.16423e-06
-8.04256e-05
4.44061e-06
-8.2182e-05
2.5242e-06
-8.24448e-05
4.3641e-07
-8.11242e-05
-1.78593e-06
-7.81706e-05
-4.08652e-06
-7.35916e-05
-6.38516e-06
-6.74679e-05
-8.57767e-06
-5.99682e-05
-1.0537e-05
-5.13618e-05
-1.21183e-05
-4.20226e-05
-1.31681e-05
-3.2426e-05
-1.35368e-05
-2.3131e-05
-1.30963e-05
-1.47471e-05
-1.1762e-05
-7.87637e-06
-9.52713e-06
-3.02504e-06
-6.51592e-06
-4.92275e-07
-3.07102e-06
-1.11319e-07
-1.66593e-06
2.00158e-06
-6.44819e-06
8.03873e-06
-1.39318e-05
1.37605e-05
-2.35346e-05
1.82786e-05
-3.46046e-05
2.13853e-05
-4.65122e-05
2.31485e-05
-5.86997e-05
2.37543e-05
-7.06975e-05
2.34139e-05
-8.21186e-05
2.23125e-05
-9.2642e-05
2.05901e-05
-0.000101994
1.83406e-05
-0.000109933
1.56217e-05
-0.000116236
1.24675e-05
-0.000120699
8.90386e-06
-0.000123137
4.96174e-06
-0.000123391
6.90669e-07
-0.000121345
-3.8324e-06
-0.000116941
-8.49047e-06
-0.000110202
-1.31235e-05
-0.000101255
-1.75251e-05
-9.03456e-05
-2.14463e-05
-7.78579e-05
-2.4606e-05
-6.4316e-05
-2.671e-05
-5.03759e-05
-2.74769e-05
-3.67978e-05
-2.66744e-05
-2.43966e-05
-2.41631e-05
-1.39677e-05
-1.9956e-05
-6.18892e-06
-1.42947e-05
-1.49682e-06
-7.76312e-06
-1.60815e-06
-2.5887e-06
4.59028e-06
-9.33534e-06
1.47854e-05
-1.93899e-05
2.38151e-05
-3.19221e-05
3.08109e-05
-4.61214e-05
3.55846e-05
-6.12388e-05
3.82659e-05
-7.66167e-05
3.91321e-05
-9.16971e-05
3.84944e-05
-0.000106015
3.663e-05
-0.000119178
3.37537e-05
-0.000130852
3.00144e-05
-0.000140738
2.55076e-05
-0.000148564
2.02939e-05
-0.000154082
1.44212e-05
-0.000157065
7.94519e-06
-0.000157325
9.50265e-07
-0.000154721
-6.43656e-06
-0.000149186
-1.40253e-05
-0.00014075
-2.1559e-05
-0.000129567
-2.87078e-05
-0.000115938
-3.50752e-05
-0.000100328
-4.02161e-05
-8.33715e-05
-4.36669e-05
-6.5858e-05
-4.49904e-05
-4.87003e-05
-4.38321e-05
-3.28743e-05
-3.99892e-05
-1.93396e-05
-3.34907e-05
-8.94608e-06
-2.46882e-05
-2.34843e-06
-1.43608e-05
-3.95658e-06
-3.34718e-06
7.93747e-06
-1.1809e-05
2.32472e-05
-2.41403e-05
3.61464e-05
-3.92531e-05
4.59237e-05
-5.61714e-05
5.25028e-05
-7.40355e-05
5.61301e-05
-9.2108e-05
5.72045e-05
-0.000109768
5.61547e-05
-0.000126498
5.336e-05
-0.000141861
4.91165e-05
-0.000155479
4.36324e-05
-0.000167015
3.70436e-05
-0.00017616
2.9439e-05
-0.000182628
2.08894e-05
-0.00018616
1.14766e-05
-0.000186531
1.32158e-06
-0.000183574
-9.39397e-06
-0.000177199
-2.04e-05
-0.000167428
-3.13303e-05
-0.000154422
-4.17137e-05
-0.000138514
-5.09833e-05
-0.000120228
-5.85016e-05
-0.000100289
-6.36061e-05
-7.96054e-05
-6.56741e-05
-5.92325e-05
-6.42051e-05
-4.03067e-05
-5.8915e-05
-2.39607e-05
-4.98367e-05
-1.12338e-05
-3.74151e-05
-3.00334e-06
-2.25912e-05
-6.95993e-06
-3.96848e-06
1.1906e-05
-1.39134e-05
3.31921e-05
-2.82574e-05
5.04904e-05
-4.56683e-05
6.33346e-05
-6.50055e-05
7.184e-05
-8.53017e-05
7.64262e-05
-0.000105748
7.76513e-05
-0.000125677
7.60833e-05
-0.000144534
7.22168e-05
-0.000161853
6.64356e-05
-0.00017723
5.90093e-05
-0.0001903
5.01142e-05
-0.000200726
3.98647e-05
-0.000208188
2.83511e-05
-0.000212388
1.56769e-05
-0.000213063
1.99626e-06
-0.000210001
-1.24561e-05
-0.000203073
-2.73276e-05
-0.000192269
-4.21343e-05
-0.000177735
-5.62477e-05
-0.000159813
-6.89052e-05
-0.000139071
-7.92437e-05
-0.000116315
-8.6362e-05
-9.25781e-05
-8.9411e-05
-6.90758e-05
-8.77073e-05
-4.71326e-05
-8.08582e-05
-2.80852e-05
-6.88841e-05
-1.31831e-05
-5.23172e-05
-3.514e-06
-3.22604e-05
-1.04739e-05
-4.49536e-06
1.64013e-05
-1.5749e-05
4.44458e-05
-3.19069e-05
6.66482e-05
-5.14143e-05
8.28419e-05
-7.29717e-05
9.33975e-05
-9.55071e-05
9.89616e-05
-0.000118146
0.000100291
-0.000140182
9.81185e-05
-0.000161035
9.30702e-05
-0.000180224
8.56242e-05
-0.000197328
7.61134e-05
-0.000211964
6.47508e-05
-0.00022377
5.16706e-05
-0.000232392
3.69735e-05
-0.00023749
2.07748e-05
-0.000238746
3.25192e-06
-0.000235887
-1.53155e-05
-0.000228718
-3.44961e-05
-0.000217169
-5.36836e-05
-0.00020134
-7.20767e-05
-0.000181557
-8.86883e-05
-0.000158414
-0.000102386
-0.000132799
-0.000111977
-0.000105886
-0.000116325
-7.90857e-05
-0.000114507
-5.3961e-05
-0.000105983
-3.21026e-05
-9.07425e-05
-1.50031e-05
-6.94168e-05
-3.95433e-06
-4.33091e-05
-1.44283e-05
-4.96958e-06
2.13709e-05
-1.7428e-05
5.69042e-05
-3.52814e-05
8.45016e-05
-5.67704e-05
0.000104331
-8.0444e-05
0.000117071
-0.000105129
0.000123646
-0.000129889
0.000125051
-0.000153985
0.000122215
-0.000176824
0.000115909
-0.000197916
0.000106716
-0.000216835
9.50322e-05
-0.000233187
8.11023e-05
-0.000246586
6.507e-05
-0.000256646
4.70332e-05
-0.000262973
2.71024e-05
-0.000265182
5.46044e-06
-0.000262913
-1.75839e-05
-0.000255877
-4.15323e-05
-0.000243903
-6.56573e-05
-0.000227008
-8.89717e-05
-0.000205466
-0.000110231
-0.000179873
-0.000127979
-0.000151194
-0.000140656
-0.000120767
-0.000146752
-9.02496e-05
-0.000145024
-6.15123e-05
-0.00013472
-3.64757e-05
-0.000115779
-1.69334e-05
-8.8959e-05
-4.39923e-06
-5.58433e-05
-1.88275e-05
-5.42639e-06
2.67973e-05
-1.90538e-05
7.05316e-05
-3.85647e-05
0.000104013
-6.20044e-05
0.000127771
-8.77747e-05
0.000142841
-0.000114604
0.000150475
-0.000141501
0.000151948
-0.000167699
0.000148413
-0.0001926
0.00014081
-0.000215717
0.000129833
-0.000236627
0.000115943
-0.000254934
9.94087e-05
-0.000270235
8.03709e-05
-0.000282107
5.89057e-05
-0.0002901
3.50956e-05
-0.000293742
9.1023e-06
-0.000292563
-1.87628e-05
-0.000286139
-4.79573e-05
-0.000274152
-7.76434e-05
-0.000256483
-0.000106641
-0.0002333
-0.000133414
-0.000205163
-0.000156117
-0.000173096
-0.000172722
-0.000138622
-0.000181227
-0.000103706
-0.00017994
-7.06231e-05
-0.000167803
-4.17364e-05
-0.000144666
-1.9239e-05
-0.000111456
-4.92362e-06
-7.01587e-05
-2.37511e-05
-5.89391e-06
3.26912e-05
-2.07142e-05
8.53519e-05
-4.19169e-05
0.000125215
-6.73507e-05
0.000153204
-9.52695e-05
0.00017076
-0.000124305
0.000179511
-0.000153416
0.000181058
-0.000181817
0.000176814
-0.000208914
0.000167907
-0.000234236
0.000155155
-0.000257375
0.000139082
-0.000277942
0.000119976
-0.000295527
9.79565e-05
-0.000309677
7.30555e-05
-0.000319878
4.52963e-05
-0.000325559
1.47832e-05
-0.000326112
-1.82096e-05
-0.000320935
-5.31343e-05
-0.000309508
-8.90703e-05
-0.000291499
-0.00012465
-0.000266895
-0.000158017
-0.000236149
-0.000186863
-0.000200307
-0.000208564
-0.000161079
-0.000220454
-0.000120808
-0.000220212
-8.22998e-05
-0.000206311
-4.85228e-05
-0.000178443
-2.22307e-05
-0.000137748
-5.61075e-06
-8.67787e-05
-2.93619e-05
-6.39432e-06
3.90855e-05
-2.24812e-05
0.000101439
-4.54716e-05
0.000148206
-7.30042e-05
0.000180737
-0.000103179
0.000200935
-0.000134531
0.000210863
-0.00016597
0.000212498
-0.000196707
0.00020755
-0.000226162
0.000197363
-0.000253895
0.000182888
-0.00027953
0.000164717
-0.000302701
0.000143147
-0.000323007
0.000118262
-0.000339971
9.00201e-05
-0.000353024
5.83486e-05
-0.000361486
2.32459e-05
-0.00036459
-1.51062e-05
-0.000361507
-5.6217e-05
-0.000351445
-9.91326e-05
-0.000333766
-0.000142329
-0.000308166
-0.000183617
-0.000274881
-0.000220148
-0.000234893
-0.000248553
-0.000190076
-0.000265271
-0.000143212
-0.000267076
-9.77977e-05
-0.000251725
-5.76399e-05
-0.000218601
-2.63013e-05
-0.000169087
-6.5648e-06
-0.000106515
-3.59267e-05
-6.94571e-06
4.60312e-05
-2.44149e-05
0.000118908
-4.93395e-05
0.00017313
-7.91239e-05
0.000210521
-0.0001117
0.000233511
-0.000145503
0.000244666
-0.000179403
0.000246398
-0.00021261
0.000240758
-0.000244582
0.000229334
-0.000274924
0.00021323
-0.000303316
0.000193108
-0.000329438
0.000169269
-0.000352917
0.000141742
-0.00037328
0.000110383
-0.000389911
7.49795e-05
-0.000402029
3.53642e-05
-0.000408692
-8.44395e-06
-0.000408798
-5.61104e-05
-0.000401208
-0.000106723
-0.000384863
-0.000158673
-0.000359019
-0.000209462
-0.000323528
-0.000255639
-0.000279162
-0.000292919
-0.00022788
-0.000316554
-0.000172934
-0.000322021
-0.000118696
-0.000305963
-7.01252e-05
-0.000267172
-3.19663e-05
-0.000207246
-7.9249e-06
-0.000130557
-4.38516e-05
-7.56429e-06
5.35955e-05
-2.65689e-05
0.000137913
-5.36178e-05
0.000200179
-8.58436e-05
0.000242747
-0.000120989
0.000268657
-0.000157384
0.000281061
-0.000193861
0.000282875
-0.000229649
0.000276546
-0.000264254
0.00026394
-0.000297357
0.000246333
-0.000328715
0.000224466
-0.000358086
0.00019864
-0.00038516
0.000168816
-0.000409497
0.000134719
-0.000430467
9.59497e-05
-0.000447204
5.21008e-05
-0.000458598
2.95043e-06
-0.000463236
-5.14724e-05
-0.000459562
-0.000110397
-0.000445968
-0.000172268
-0.000421081
-0.000234348
-0.000384147
-0.000292573
-0.000335494
-0.000341571
-0.00027699
-0.000375058
-0.000212327
-0.000386684
-0.000146925
-0.000371365
-8.72944e-05
-0.000326803
-3.9899e-05
-0.000254641
-9.87818e-06
-0.000160577
-5.37297e-05
-8.26722e-06
6.18627e-05
-2.89987e-05
0.000158644
-5.84021e-05
0.000229582
-9.32867e-05
0.000277632
-0.000131177
0.000306547
-0.000170286
0.000320169
-0.000209416
0.000322005
-0.000247829
0.000314959
-0.000285105
0.000301215
-0.00032102
0.000282248
-0.000355444
0.00025889
-0.000388247
0.000231444
-0.000419225
0.000199793
-0.000448014
0.000163509
-0.00047402
0.000121956
-0.000496341
7.44214e-05
-0.000513677
2.02866e-05
-0.000524376
-4.0773e-05
-0.000526362
-0.000108411
-0.000517363
-0.000181267
-0.00049518
-0.000256532
-0.000458167
-0.000329586
-0.000405881
-0.000393858
-0.000339794
-0.000441145
-0.000263869
-0.000462609
-0.00018468
-0.000450554
-0.000110736
-0.000400747
-5.09483e-05
-0.000314429
-1.26696e-05
-0.000198856
-6.63993e-05
-9.07622e-06
7.09389e-05
-3.17711e-05
0.000181339
-6.38024e-05
0.000261614
-0.000101585
0.000315414
-0.000142385
0.000347347
-0.000184289
0.000362073
-0.000226076
0.000363792
-0.000267054
0.000355937
-0.000306901
0.000341063
-0.00034552
0.000320867
-0.000382922
0.000296292
-0.000419131
0.000267653
-0.00045409
0.000234753
-0.000487574
0.000196992
-0.000519083
0.000153465
-0.000547737
0.000103075
-0.000572155
4.47048e-05
-0.000590405
-2.25232e-05
-0.000599927
-9.88889e-05
-0.000597699
-0.000183495
-0.00058051
-0.000273721
-0.000545525
-0.000364571
-0.000491114
-0.000448269
-0.000417884
-0.000514374
-0.000329688
-0.000550804
-0.00023416
-0.000546082
-0.000142215
-0.000492692
-6.61285e-05
-0.000390515
-1.66074e-05
-0.000248377
-8.30067e-05
-1.00223e-05
8.09612e-05
-3.49773e-05
0.000206294
-6.99619e-05
0.000296598
-0.0001109
0.000356353
-0.000154752
0.000391198
-0.00019946
0.000406782
-0.00024379
0.000408121
-0.000287118
0.000399265
-0.000329243
0.000383188
-0.000370219
0.000361843
-0.000410231
0.000336304
-0.000449488
0.00030691
-0.000488132
0.000273396
-0.00052613
0.00023499
-0.000563154
0.000190489
-0.000598436
0.000138357
-0.0006306
7.68697e-05
-0.000657551
4.42762e-06
-0.00067629
-8.01503e-05
-0.000683066
-0.000176719
-0.000673561
-0.000283226
-0.000643493
-0.000394639
-0.000589596
-0.000502166
-0.000510989
-0.000592981
-0.000410731
-0.000651063
-0.000297062
-0.000659752
-0.000183457
-0.000606297
-8.65709e-05
-0.000487401
-2.20658e-05
-0.000312882
-0.000105073
-1.11524e-05
9.21136e-05
-3.87504e-05
0.000233892
-7.70815e-05
0.000334929
-0.000121449
0.000400721
-0.000168444
0.000438193
-0.000215857
0.000454195
-0.000262451
0.000454716
-0.000307697
0.000444511
-0.000351536
0.000427027
-0.000394196
0.000404504
-0.000436057
0.000378164
-0.000477541
0.000348394
-0.00051902
0.000314876
-0.000560709
0.000276679
-0.000602525
0.000232305
-0.000643916
0.000179747
-0.000683655
0.000116609
-0.00071959
4.0363e-05
-0.000748549
-5.11914e-05
-0.000766149
-0.000159119
-0.000767041
-0.000282333
-0.000745399
-0.000416282
-0.000695948
-0.000551617
-0.000615597
-0.000673332
-0.000505595
-0.000761064
-0.000373775
-0.000791572
-0.000235762
-0.00074431
-0.000113428
-0.000609735
-2.94898e-05
-0.000396821
-0.000134562
-1.25405e-05
0.000104654
-4.32908e-05
0.000264642
-8.54516e-05
0.00037709
-0.000133531
0.0004488
-0.000183679
0.000488341
-0.000233531
0.000504047
-0.000281876
0.000503061
-0.000328309
0.000490944
-0.000372941
0.000471658
-0.000416188
0.000447751
-0.000458633
0.000420609
-0.00050092
0.000390681
-0.000543668
0.000357624
-0.000587368
0.000320379
-0.000632242
0.000277179
-0.000678056
0.000225562
-0.00072388
0.000162432
-0.000767799
8.42818e-05
-0.00080665
-1.23399e-05
-0.000835826
-0.000129943
-0.000849247
-0.000268912
-0.000839712
-0.000425817
-0.000799798
-0.000591532
-0.00072355
-0.000749579
-0.00060914
-0.000875474
-0.000462293
-0.000938418
-0.000299399
-0.000907204
-0.000147707
-0.000761428
-3.94028e-05
-0.000505124
-0.000173965
-1.4305e-05
0.000118959
-4.8904e-05
0.000299241
-9.54947e-05
0.000423681
-0.000147553
0.000500858
-0.000200721
0.000541508
-0.000252497
0.000555823
-0.000301747
0.000552312
-0.000348239
0.000537436
-0.000392281
0.0005157
-0.000434491
0.000489961
-0.00047565
0.000461768
-0.00051661
0.000431641
-0.000558225
0.000399239
-0.000601262
0.000363416
-0.000646278
0.000322195
-0.000693439
0.000272723
-0.000742271
0.000211264
-0.000791351
0.000133362
-0.000837942
3.42505e-05
-0.000877699
-9.01859e-05
-0.000904426
-0.000242185
-0.000910084
-0.000420158
-0.000885367
-0.000616249
-0.000821132
-0.000813814
-0.000711209
-0.000985398
-0.000556925
-0.0010927
-0.000372741
-0.00109139
-0.00018997
-0.000944199
-5.24117e-05
-0.000642683
-0.000226377
-1.66405e-05
0.0001356
-5.60626e-05
0.000338663
-0.000107823
0.000475441
-0.000164062
0.000557097
-0.00021986
0.000597307
-0.000272654
0.000608617
-0.000321485
0.000601142
-0.000366367
0.000582318
-0.000407855
0.000557188
-0.000446777
0.000528884
-0.000484101
0.000499092
-0.000520857
0.000468397
-0.000558093
0.000436475
-0.000596818
0.000402141
-0.000637911
0.000363288
-0.000681975
0.000316786
-0.000729118
0.000258407
-0.00077866
0.000182904
-0.000828753
8.43434e-05
-0.000875839
-4.31e-05
-0.000914557
-0.000203468
-0.000936903
-0.000397811
-0.000932499
-0.000620653
-0.000889312
-0.000857001
-0.000796028
-0.00107868
-0.000647127
-0.0012416
-0.000451151
-0.00128736
-0.000239838
-0.00115551
-6.91874e-05
-0.000813334
-0.000295564
-1.98792e-05
0.000155479
-6.55076e-05
0.000384292
-0.000123318
0.000533252
-0.00018374
0.000617519
-0.000241323
0.000654889
-0.000293608
0.000660903
-0.000339988
0.000647522
-0.000380856
0.000623186
-0.000417084
0.000593416
-0.00044974
0.00056154
-0.000479967
0.000529319
-0.000508938
0.000497367
-0.000537838
0.000465375
-0.000567854
0.000432157
-0.000600129
0.000395564
-0.000635684
0.000352341
-0.000675261
0.000297985
-0.000719098
0.000226741
-0.00076663
0.000131875
-0.00081557
5.84061e-06
-0.000862497
-0.000156541
-0.000900483
-0.000359826
-0.000919482
-0.000601654
-0.000905726
-0.000870758
-0.000842965
-0.00114144
-0.000717024
-0.00136755
-0.000525865
-0.00147852
-0.000295224
-0.00138615
-9.03946e-05
-0.00101816
-0.000385959
-2.46083e-05
0.000180087
-7.84172e-05
0.000438101
-0.00014322
0.000598055
-0.000207354
0.000681653
-0.000265039
0.000712574
-0.000314278
0.000710141
-0.000355116
0.000688361
-0.000388535
0.000656605
-0.000415845
0.000620725
-0.000438412
0.000584107
-0.000457565
0.000548473
-0.000474591
0.000514393
-0.000490758
0.000481543
-0.00050735
0.000448748
-0.000525684
0.000413898
-0.00054711
0.000373767
-0.00057296
0.000323834
-0.000604414
0.000258196
-0.000642216
0.000169676
-0.0006866
5.02252e-05
-0.000735494
-0.000107647
-0.00078508
-0.00031024
-0.000827215
-0.000559519
-0.000848404
-0.000849568
-0.000829102
-0.00116074
-0.000746305
-0.00145034
-0.000583384
-0.00164144
-0.000351398
-0.00161814
-0.000116529
-0.00125303
-0.000502488
-3.19015e-05
0.000211989
-9.66696e-05
0.000502869
-0.000169182
0.000670567
-0.000235483
0.000747955
-0.000290068
0.000767159
-0.000332059
0.000752133
-0.000362651
0.000718953
-0.000383726
0.00067768
-0.000397219
0.000634218
-0.000404889
0.000591777
-0.000408292
0.000551875
-0.000408818
0.000514919
-0.000407773
0.000480498
-0.000406459
0.000447434
-0.00040626
0.000413699
-0.000408725
0.000376232
-0.000415625
0.000330734
-0.000428953
0.000271524
-0.000450828
0.000191551
-0.000483268
8.26657e-05
-0.000527234
-6.36815e-05
-0.000582031
-0.000255442
-0.000643214
-0.000498337
-0.00070016
-0.000792622
-0.000733171
-0.00112773
-0.000712691
-0.00147082
-0.000605876
-0.00174826
-0.000400065
-0.00182395
-0.000147564
-0.00150553
-0.000650052
-4.37598e-05
0.000255748
-0.000123182
0.000582291
-0.000203055
0.000750439
-0.000267665
0.000812565
-0.000313177
0.000812671
-0.000340988
0.000779944
-0.000354183
0.000732148
-0.00035598
0.000679476
-0.000349171
0.000627409
-0.000336026
0.000578633
-0.000318364
0.000534213
-0.000297675
0.000494231
-0.000275255
0.000458077
-0.000252343
0.000424522
-0.000230271
0.000391626
-0.000210621
0.000356582
-0.000195382
0.000315495
-0.000187084
0.000263227
-0.000188853
0.00019332
-0.000204308
9.81206e-05
-0.000237095
-3.08939e-05
-0.000289967
-0.000202571
-0.00036315
-0.000425154
-0.000451529
-0.000704243
-0.000539191
-0.00104007
-0.000595077
-0.00141494
-0.000572503
-0.00177083
-0.000428595
-0.00196786
-0.000182134
-0.00175199
-0.000832186
-6.3892e-05
0.00031964
-0.000162058
0.000680457
-0.000245621
0.000834002
-0.000299788
0.000866732
-0.000325284
0.000838167
-0.000327609
0.000782269
-0.000312738
0.000717276
-0.000285698
0.000652437
-0.00025033
0.000592041
-0.000209447
0.00053775
-0.000165092
0.000489858
-0.000118769
0.000447908
-7.16637e-05
0.000410973
-2.4838e-05
0.000377696
2.05698e-05
0.000346219
6.31327e-05
0.000314019
0.00010089
0.000277738
0.000131126
0.000232991
0.000150172
0.000174273
0.000153329
9.49639e-05
0.000134962
-1.25265e-05
8.93011e-05
-0.00015691
1.12287e-05
-0.000347081
-9.99984e-05
-0.000593016
-0.000237421
-0.000902648
-0.000375361
-0.001277
-0.000460366
-0.00168583
-0.000418879
-0.00200934
-0.000215667
-0.00195521
-0.00104785
-9.87245e-05
0.000418365
-0.0002171
0.000798833
-0.000291544
0.000908447
-0.000316493
0.000891681
-0.000302518
0.000824192
-0.000261699
0.00074145
-0.00020383
0.000659407
-0.000135926
0.000584533
-6.26984e-05
0.000518813
1.27913e-05
0.00046226
8.86007e-05
0.000414048
0.000163493
0.000373015
0.000236643
0.000337822
0.00030738
0.000306959
0.000374952
0.000278647
0.000438273
0.000250698
0.000495662
0.000220349
0.000544549
0.000184105
0.000581194
0.000137628
0.000600467
7.56909e-05
0.00059548
-7.53972e-06
0.000558795
-0.000120225
0.000481478
-0.000269765
0.000355473
-0.00046701
0.000178545
-0.000725721
-3.61221e-05
-0.00106233
-0.000242729
-0.00147922
-0.000344489
-0.00190759
-0.000237195
-0.0020625
-0.00128505
-0.000157011
0.000575376
-0.000281834
0.000923655
-0.00031154
0.000938153
-0.000269813
0.000849954
-0.000184794
0.000739172
-7.67636e-05
0.00063342
4.12007e-05
0.000541443
0.000161295
0.000464438
0.000279149
0.00040096
0.000392512
0.000348897
0.00050037
0.00030619
0.000602392
0.000270993
0.000698571
0.000241644
0.000788954
0.000216576
0.000873411
0.00019419
0.000951398
0.000172711
0.0010217
0.00015005
0.00108212
0.000123678
0.00112922
9.05351e-05
0.00115789
4.70147e-05
0.00116115
-1.07952e-05
0.00113036
-8.94365e-05
0.00105448
-0.000193888
0.000920917
-0.000333446
0.000717465
-0.000522268
0.000439899
-0.000784762
0.000115308
-0.00115463
-0.000163402
-0.00162887
-0.000226068
-0.00199983
-0.00151112
-0.000237753
0.000813129
-0.00029262
0.000978523
-0.000195123
0.000840656
-2.53724e-05
0.000680203
0.000168588
0.000545212
0.000363675
0.000438333
0.000549275
0.000355843
0.000721067
0.000292646
0.000878016
0.000244011
0.00102066
0.000206251
0.00115021
0.00017664
0.00126806
0.000153144
0.00137553
0.000134176
0.00147369
0.000118419
0.0015632
0.000104677
0.00164416
9.17485e-05
0.0017159
7.83172e-05
0.00177671
6.2867e-05
0.0018236
4.36433e-05
0.00185194
1.86707e-05
0.00185561
-1.44642e-05
0.00182534
-5.91666e-05
0.00174994
-0.000118482
0.00161466
-0.000198173
0.00140086
-0.000308464
0.00108739
-0.000471298
0.000665994
-0.000733229
0.000199466
-0.00116235
-0.000106097
-0.00169427
-0.00161721
-0.000186758
0.000999887
3.6422e-05
0.000755343
0.000397167
0.000479911
0.000739074
0.000338296
0.00103912
0.00024517
0.00129704
0.000180409
0.00151698
0.000135903
0.00170444
0.00010519
0.00186493
8.35219e-05
0.00200331
6.78642e-05
0.00212364
5.63108e-05
0.00222918
4.76065e-05
0.00232248
4.08753e-05
0.00240544
3.54623e-05
0.00247928
3.08289e-05
0.00254455
2.64775e-05
0.00260097
2.18987e-05
0.0026473
1.6538e-05
0.00268114
9.80714e-06
0.00269854
1.27211e-06
0.00269514
-1.10698e-05
0.00266245
-2.64766e-05
0.00259105
-4.70801e-05
0.00246747
-7.45958e-05
0.002272
-0.000112993
0.00197366
-0.000172952
0.0015267
-0.000286276
0.000909345
-0.000544989
0.000256134
-0.00104106
-0.00136108
0.000999887
0.00175523
0.00223514
0.00257344
0.00281861
0.00299902
0.00313492
0.00324011
0.00332363
0.00339149
0.00344781
0.00349541
0.00353629
0.00357175
0.00360258
0.00362906
0.00365095
0.00366749
0.0036773
0.00367857
0.0036675
0.00364103
0.00359395
0.00351935
0.00340636
0.0032334
0.00294713
0.00240214
0.00136108
)
;

boundaryField
{
    movingWall
    {
        type            calculated;
        value           uniform 0;
    }
    fixedWalls
    {
        type            calculated;
        value           uniform 0;
    }
    frontAndBack
    {
        type            empty;
        value           nonuniform 0();
    }
}


// ************************************************************************* //
