/*--------------------------------*- C++ -*----------------------------------*\
  =========                 |
  \\      /  F ield         | OpenFOAM: The Open Source CFD Toolbox
   \\    /   O peration     | Website:  https://openfoam.org
    \\  /    A nd           | Version:  7
     \\/     M anipulation  |
\*---------------------------------------------------------------------------*/
FoamFile
{
    version     2.0;
    format      ascii;
    class       volVectorField;
    location    "1.5";
    object      U;
}
// * * * * * * * * * * * * * * * * * * * * * * * * * * * * * * * * * * * * * //

dimensions      [0 1 -1 0 0 0 0];

internalField   nonuniform List<vector> 
900
(
(7.47832e-05 -7.41539e-05 0)
(5.7484e-05 1.11533e-05 0)
(-0.000275809 0.000119314 0)
(-0.000868159 0.000201529 0)
(-0.00164348 0.000252991 0)
(-0.00253048 0.000279225 0)
(-0.00346851 0.000287223 0)
(-0.00441129 0.000282738 0)
(-0.0053246 0.000269655 0)
(-0.00618256 0.000250225 0)
(-0.00696429 0.000225495 0)
(-0.00765147 0.00019573 0)
(-0.00822671 0.000160771 0)
(-0.00867279 0.000120334 0)
(-0.00897265 7.42566e-05 0)
(-0.00910995 2.27031e-05 0)
(-0.00907028 -3.36644e-05 0)
(-0.00884275 -9.35362e-05 0)
(-0.00842199 -0.000154822 0)
(-0.00781042 -0.00021461 0)
(-0.00702048 -0.000269182 0)
(-0.00607664 -0.000314128 0)
(-0.00501687 -0.000344565 0)
(-0.00389322 -0.00035541 0)
(-0.00277138 -0.000341674 0)
(-0.00172883 -0.000298833 0)
(-0.000850126 -0.000223783 0)
(-0.000215315 -0.000117908 0)
(0.000103468 3.13656e-06 0)
(8.75172e-05 8.61753e-05 0)
(-8.33936e-06 -5.95363e-05 0)
(-0.000400208 0.000400472 0)
(-0.00146654 0.000909434 0)
(-0.00306156 0.00131283 0)
(-0.00504602 0.00158404 0)
(-0.00728089 0.00173453 0)
(-0.00963678 0.00178708 0)
(-0.0120058 0.0017644 0)
(-0.014302 0.00168433 0)
(-0.0164568 0.00155904 0)
(-0.0184133 0.00139571 0)
(-0.0201225 0.00119792 0)
(-0.0215391 0.000967093 0)
(-0.0226209 0.000703921 0)
(-0.0233276 0.000409607 0)
(-0.0236228 8.69535e-05 0)
(-0.0234762 -0.000258731 0)
(-0.0228668 -0.000618718 0)
(-0.0217877 -0.000980463 0)
(-0.0202503 -0.00132732 0)
(-0.0182895 -0.00163876 0)
(-0.0159673 -0.00189113 0)
(-0.0133753 -0.00205905 0)
(-0.0106357 -0.00211734 0)
(-0.00789782 -0.00204356 0)
(-0.00533175 -0.00182144 0)
(-0.0031151 -0.00144656 0)
(-0.00140873 -0.000937209 0)
(-0.00033896 -0.000358891 0)
(1.16468e-05 0.000104792 0)
(-0.00011969 0.000273133 0)
(-0.000937176 0.00147256 0)
(-0.00273431 0.00266792 0)
(-0.00522882 0.00362129 0)
(-0.00822702 0.00427769 0)
(-0.0115507 0.00465111 0)
(-0.0150289 0.00478308 0)
(-0.0185137 0.0047202 0)
(-0.0218838 0.00450256 0)
(-0.0250392 0.00415972 0)
(-0.0278962 0.00371102 0)
(-0.0303822 0.00316774 0)
(-0.0324312 0.00253617 0)
(-0.0339825 0.00182078 0)
(-0.03498 0.00102716 0)
(-0.0353738 0.000164705 0)
(-0.0351235 -0.000751106 0)
(-0.0342031 -0.00169673 0)
(-0.0326063 -0.00263941 0)
(-0.0303528 -0.00353667 0)
(-0.0274946 -0.00433702 0)
(-0.0241213 -0.00498201 0)
(-0.0203625 -0.00541004 0)
(-0.0163879 -0.00556169 0)
(-0.0124023 -0.00538692 0)
(-0.0086354 -0.00485441 0)
(-0.00532228 -0.00396498 0)
(-0.00267173 -0.00277071 0)
(-0.000859897 -0.00140675 0)
(-9.22552e-05 -0.000185127 0)
(-0.000214052 0.000891298 0)
(-0.00141768 0.00313868 0)
(-0.00388662 0.00520274 0)
(-0.00718573 0.00682329 0)
(-0.0110598 0.00793695 0)
(-0.0152971 0.00856825 0)
(-0.0196967 0.00878135 0)
(-0.024084 0.00864973 0)
(-0.0283136 0.00823871 0)
(-0.0322647 0.0075984 0)
(-0.0358349 0.00676312 0)
(-0.0389344 0.00575437 0)
(-0.0414826 0.00458548 0)
(-0.0434051 0.00326671 0)
(-0.0446336 0.00181022 0)
(-0.0451081 0.000234647 0)
(-0.0447801 -0.00143092 0)
(-0.0436186 -0.00314376 0)
(-0.0416165 -0.00484521 0)
(-0.0387982 -0.00645999 0)
(-0.0352274 -0.0078976 0)
(-0.0310126 -0.00905617 0)
(-0.0263111 -0.00982939 0)
(-0.0213276 -0.0101164 0)
(-0.0163087 -0.00983488 0)
(-0.0115294 -0.00893683 0)
(-0.00727095 -0.00742913 0)
(-0.00378525 -0.00539784 0)
(-0.00130758 -0.00304083 0)
(-0.000175655 -0.00074802 0)
(-0.000287082 0.00174723 0)
(-0.00182029 0.00532709 0)
(-0.00488374 0.00842024 0)
(-0.00889555 0.0107949 0)
(-0.0135365 0.0124073 0)
(-0.0185614 0.0133071 0)
(-0.0237437 0.0135883 0)
(-0.0288888 0.0133551 0)
(-0.0338353 0.0127006 0)
(-0.0384484 0.0116971 0)
(-0.0426134 0.0103956 0)
(-0.0462291 0.00882883 0)
(-0.049204 0.00701832 0)
(-0.0514532 0.00498104 0)
(-0.0528983 0.00273676 0)
(-0.0534691 0.000314644 0)
(-0.0531084 -0.00224076 0)
(-0.0517775 -0.00486468 0)
(-0.0494645 -0.00746865 0)
(-0.0461936 -0.00993942 0)
(-0.0420335 -0.0121411 0)
(-0.0371056 -0.013921 0)
(-0.0315884 -0.0151207 0)
(-0.0257166 -0.0155911 0)
(-0.0197746 -0.0152121 0)
(-0.0140814 -0.0139159 0)
(-0.00896568 -0.0117122 0)
(-0.00472697 -0.00871593 0)
(-0.00166315 -0.00517385 0)
(-0.000232654 -0.00152096 0)
(-0.000343426 0.00279859 0)
(-0.00215529 0.00796978 0)
(-0.00574036 0.0122466 0)
(-0.0103858 0.0154576 0)
(-0.0157102 0.0176035 0)
(-0.0214344 0.0187755 0)
(-0.0273077 0.0191077 0)
(-0.0331191 0.0187406 0)
(-0.0386959 0.017798 0)
(-0.0438944 0.0163767 0)
(-0.048592 0.0145446 0)
(-0.0526802 0.0123465 0)
(-0.0560595 0.00981178 0)
(-0.058636 0.00696378 0)
(-0.0603212 0.00382947 0)
(-0.0610338 0.000448407 0)
(-0.0607043 -0.003119 0)
(-0.0592819 -0.00678449 0)
(-0.056744 -0.0104269 0)
(-0.0531075 -0.0138903 0)
(-0.0484395 -0.0169866 0)
(-0.0428686 -0.0195042 0)
(-0.0365908 -0.0212227 0)
(-0.0298706 -0.0219355 0)
(-0.0230329 -0.0214764 0)
(-0.0164479 -0.019751 0)
(-0.0105007 -0.0167681 0)
(-0.00554747 -0.0126671 0)
(-0.00195026 -0.00773839 0)
(-0.000270117 -0.0024569 0)
(-0.000388984 0.00401189 0)
(-0.00244238 0.0110073 0)
(-0.00649326 0.016615 0)
(-0.0117138 0.0207428 0)
(-0.0176642 0.0234564 0)
(-0.0240314 0.0249044 0)
(-0.0305416 0.0252719 0)
(-0.0369696 0.0247429 0)
(-0.043134 0.0234761 0)
(-0.048886 0.0215942 0)
(-0.0540986 0.0191832 0)
(-0.0586588 0.0162989 0)
(-0.062461 0.0129775 0)
(-0.0654031 0.0092469 0)
(-0.0673857 0.00513933 0)
(-0.0683135 0.000702825 0)
(-0.0681003 -0.00398762 0)
(-0.0666768 -0.00882033 0)
(-0.0640018 -0.0136395 0)
(-0.0600759 -0.0182421 0)
(-0.0549568 -0.0223802 0)
(-0.0487735 -0.0257723 0)
(-0.0417367 -0.0281233 0)
(-0.0341425 -0.0291548 0)
(-0.0263647 -0.0286421 0)
(-0.0188369 -0.0264548 0)
(-0.0120161 -0.0225957 0)
(-0.00632863 -0.0172296 0)
(-0.00220534 -0.0106958 0)
(-0.000296642 -0.00352464 0)
(-0.000428853 0.00536605 0)
(-0.00270216 0.0143992 0)
(-0.00718515 0.021479 0)
(-0.0129464 0.0266046 0)
(-0.0194912 0.0299224 0)
(-0.0264734 0.0316536 0)
(-0.0335971 0.0320455 0)
(-0.0406243 0.0313335 0)
(-0.0473676 0.0297159 0)
(-0.0536755 0.0273436 0)
(-0.0594199 0.0243206 0)
(-0.0644855 0.0207129 0)
(-0.0687622 0.016561 0)
(-0.0721403 0.0118942 0)
(-0.074508 0.00674632 0)
(-0.0757529 0.0011699 0)
(-0.0757666 -0.00474876 0)
(-0.0744531 -0.0108766 0)
(-0.0717427 -0.0170225 0)
(-0.0676089 -0.022932 0)
(-0.0620881 -0.0282885 0)
(-0.0553009 -0.0327268 0)
(-0.0474682 -0.0358591 0)
(-0.0389201 -0.0373149 0)
(-0.0300899 -0.0367915 0)
(-0.0214925 -0.0341091 0)
(-0.0136792 -0.0292593 0)
(-0.00716706 -0.0224381 0)
(-0.00246765 -0.0140505 0)
(-0.000319709 -0.00471421 0)
(-0.000466919 0.00685134 0)
(-0.00295271 0.0181259 0)
(-0.00785633 0.0268167 0)
(-0.0141479 0.0330224 0)
(-0.0212797 0.0369847 0)
(-0.0288732 0.0390107 0)
(-0.0366114 0.039422 0)
(-0.0442451 0.0385135 0)
(-0.0515834 0.0365287 0)
(-0.058475 0.0336489 0)
(-0.0647932 0.0299966 0)
(-0.0704232 0.0256457 0)
(-0.0752526 0.020638 0)
(-0.0791645 0.0149996 0)
(-0.082034 0.00875996 0)
(-0.0837284 0.00197027 0)
(-0.0841109 -0.00527797 0)
(-0.0830502 -0.0128347 0)
(-0.0804353 -0.0204753 0)
(-0.0761977 -0.0278903 0)
(-0.0703373 -0.0346848 0)
(-0.0629518 -0.0403926 0)
(-0.0542637 -0.0445085 0)
(-0.0446366 -0.0465408 0)
(-0.0345748 -0.0460807 0)
(-0.0246985 -0.0428771 0)
(-0.0156843 -0.0369035 0)
(-0.00817206 -0.0283973 0)
(-0.00277817 -0.0178578 0)
(-0.000345686 -0.00603707 0)
(-0.000506036 0.00846714 0)
(-0.00320883 0.0221865 0)
(-0.00854156 0.0326283 0)
(-0.0153747 0.0399991 0)
(-0.023107 0.0446489 0)
(-0.0313279 0.0469854 0)
(-0.0397001 0.0474162 0)
(-0.0479652 0.0463053 0)
(-0.0559312 0.0439468 0)
(-0.0634504 0.0405555 0)
(-0.0704011 0.0362722 0)
(-0.0766724 0.0311771 0)
(-0.0821524 0.0253085 0)
(-0.0867191 0.0186836 0)
(-0.0902348 0.0113198 0)
(-0.0925439 0.00325792 0)
(-0.0934761 -0.00541457 0)
(-0.0928543 -0.0145391 0)
(-0.0905121 -0.0238623 0)
(-0.0863197 -0.0330191 0)
(-0.0802183 -0.041527 0)
(-0.072261 -0.0487978 0)
(-0.0626544 -0.0541771 0)
(-0.0517897 -0.0570113 0)
(-0.0402522 -0.0567424 0)
(-0.0287955 -0.0530142 0)
(-0.0182658 -0.0457678 0)
(-0.00947375 -0.0352953 0)
(-0.00318358 -0.0222314 0)
(-0.000380889 -0.00752675 0)
(-0.000548313 0.01022 0)
(-0.00348241 0.0265954 0)
(-0.00926968 0.0389333 0)
(-0.0166739 0.0475567 0)
(-0.0250373 0.0529391 0)
(-0.0339164 0.0556036 0)
(-0.0429542 0.0560575 0)
(-0.0518854 0.054744 0)
(-0.0605203 0.0520145 0)
(-0.0687186 0.0481206 0)
(-0.0763682 0.0432217 0)
(-0.0833669 0.0374018 0)
(-0.0896079 0.0306912 0)
(-0.094968 0.0230906 0)
(-0.0992987 0.0145958 0)
(-0.102422 0.00522504 0)
(-0.104129 -0.00495174 0)
(-0.104188 -0.0157812 0)
(-0.10236 -0.0269917 0)
(-0.0984308 -0.0381672 0)
(-0.0922527 -0.0487301 0)
(-0.0838011 -0.0579489 0)
(-0.0732371 -0.0649792 0)
(-0.0609617 -0.0689497 0)
(-0.0476447 -0.0690896 0)
(-0.0342058 -0.0648819 0)
(-0.0217188 -0.0562069 0)
(-0.011237 -0.0434242 0)
(-0.00374262 -0.0273569 0)
(-0.000433012 -0.00924279 0)
(-0.000595392 0.012122 0)
(-0.00378324 0.0313801 0)
(-0.0100648 0.0457667 0)
(-0.0180845 0.0557329 0)
(-0.0271224 0.0618925 0)
(-0.0366996 0.0649017 0)
(-0.0464404 0.0653828 0)
(-0.0560749 0.06387 0)
(-0.0654194 0.0607798 0)
(-0.0743463 0.0564045 0)
(-0.082759 0.050923 0)
(-0.0905702 0.0444209 0)
(-0.097685 0.0369157 0)
(-0.103985 0.0283831 0)
(-0.109318 0.0187856 0)
(-0.113484 0.00810337 0)
(-0.116237 -0.0036298 0)
(-0.117281 -0.0162859 0)
(-0.116288 -0.0295946 0)
(-0.112933 -0.0431015 0)
(-0.10694 -0.0561345 0)
(-0.0981605 -0.0677976 0)
(-0.0866623 -0.0770099 0)
(-0.0728203 -0.0826075 0)
(-0.0573791 -0.0835143 0)
(-0.0414541 -0.0789632 0)
(-0.0264207 -0.0687175 0)
(-0.0136772 -0.0532075 0)
(-0.00453342 -0.0335134 0)
(-0.000512645 -0.0112787 0)
(-0.000648731 0.0141901 0)
(-0.00412019 0.0365793 0)
(-0.0109484 0.0531773 0)
(-0.0196404 0.0645776 0)
(-0.0294046 0.0715551 0)
(-0.0397241 0.0749205 0)
(-0.0502041 0.0754293 0)
(-0.060573 0.0737205 0)
(-0.070658 0.0702846 0)
(-0.0803502 0.06546 0)
(-0.0895754 0.0594466 0)
(-0.0982697 0.0523304 0)
(-0.106359 0.044111 0)
(-0.11374 0.0347308 0)
(-0.120262 0.0241056 0)
(-0.125717 0.0121585 0)
(-0.129822 -0.00113717 0)
(-0.132214 -0.0157041 0)
(-0.132463 -0.0313075 0)
(-0.1301 -0.0474806 0)
(-0.12468 -0.0634687 0)
(-0.11587 -0.0781985 0)
(-0.103574 -0.0903023 0)
(-0.0880782 -0.0982305 0)
(-0.0701674 -0.100472 0)
(-0.0511691 -0.0958687 0)
(-0.0328438 -0.0839634 0)
(-0.0170733 -0.0652355 0)
(-0.0056604 -0.0411018 0)
(-0.000634773 -0.013774 0)
(-0.000709934 0.0164458 0)
(-0.00450259 0.0422419 0)
(-0.0119424 0.0612251 0)
(-0.0213739 0.0741492 0)
(-0.0319219 0.0819768 0)
(-0.0430263 0.0856992 0)
(-0.0542731 0.0862269 0)
(-0.0653925 0.0843199 0)
(-0.0762279 0.080554 0)
(-0.0866959 0.0753197 0)
(-0.0967531 0.0688411 0)
(-0.106368 0.0612042 0)
(-0.115499 0.0523872 0)
(-0.124069 0.0422915 0)
(-0.131948 0.0307724 0)
(-0.138926 0.0176754 0)
(-0.144693 0.00288395 0)
(-0.148827 -0.0136172 0)
(-0.150789 -0.03167 0)
(-0.149944 -0.0508381 0)
(-0.145627 -0.0703169 0)
(-0.137249 -0.0888595 0)
(-0.124466 -0.104768 0)
(-0.107376 -0.116 0)
(-0.0867279 -0.120436 0)
(-0.0640441 -0.116321 0)
(-0.0415465 -0.10279 0)
(-0.0217732 -0.0802983 0)
(-0.00725942 -0.050679 0)
(-0.000820138 -0.0169295 0)
(-0.000781149 0.018916 0)
(-0.00494212 0.0484285 0)
(-0.0130727 0.0699817 0)
(-0.0233215 0.0845135 0)
(-0.0347129 0.0932076 0)
(-0.0466375 0.0972686 0)
(-0.0586622 0.0977892 0)
(-0.0705223 0.0956693 0)
(-0.0820838 0.0915827 0)
(-0.093296 0.08598 0)
(-0.104155 0.0791138 0)
(-0.114671 0.0710715 0)
(-0.124847 0.0618083 0)
(-0.134649 0.0511785 0)
(-0.14398 0.0389646 0)
(-0.152652 0.0249133 0)
(-0.160347 0.00878421 0)
(-0.166598 -0.00958006 0)
(-0.170759 -0.030152 0)
(-0.172018 -0.0525915 0)
(-0.169456 -0.076102 0)
(-0.162164 -0.0992954 0)
(-0.149439 -0.120121 0)
(-0.131063 -0.135936 0)
(-0.107615 -0.143809 0)
(-0.0807314 -0.14109 0)
(-0.053127 -0.126208 0)
(-0.0281845 -0.0994075 0)
(-0.00950033 -0.0629916 0)
(-0.00109669 -0.0210255 0)
(-0.00086564 0.0216347 0)
(-0.00545529 0.0552142 0)
(-0.0143743 0.0795321 0)
(-0.0255295 0.0957417 0)
(-0.0378233 0.105292 0)
(-0.0505897 0.109644 0)
(-0.0633765 0.110103 0)
(-0.0759289 0.107733 0)
(-0.0881419 0.103319 0)
(-0.100005 0.0973815 0)
(-0.111561 0.0902063 0)
(-0.122872 0.0818859 0)
(-0.133996 0.0723538 0)
(-0.144956 0.061414 0)
(-0.155711 0.0487666 0)
(-0.166114 0.0340394 0)
(-0.17587 0.0168343 0)
(-0.184491 -0.00319558 0)
(-0.191251 -0.0262231 0)
(-0.195177 -0.0520925 0)
(-0.195086 -0.080104 0)
(-0.189697 -0.108799 0)
(-0.177854 -0.135793 0)
(-0.158865 -0.157771 0)
(-0.132941 -0.170765 0)
(-0.101648 -0.170858 0)
(-0.0681241 -0.155309 0)
(-0.0367458 -0.123783 0)
(-0.0125873 -0.0790007 0)
(-0.00150187 -0.02644 0)
(-0.000968638 0.0246467 0)
(-0.00606684 0.0626943 0)
(-0.0158972 0.0899779 0)
(-0.0280617 0.10791 0)
(-0.0413126 0.118266 0)
(-0.0549194 0.122815 0)
(-0.0684128 0.123117 0)
(-0.0815543 0.120423 0)
(-0.0942748 0.115646 0)
(-0.10661 0.109385 0)
(-0.118656 0.101965 0)
(-0.130534 0.0934887 0)
(-0.142365 0.0838719 0)
(-0.154241 0.0728697 0)
(-0.166192 0.0600962 0)
(-0.178141 0.0450463 0)
(-0.189848 0.0271367 0)
(-0.200846 0.00578278 0)
(-0.21038 -0.0194664 0)
(-0.217368 -0.048733 0)
(-0.220395 -0.0815315 0)
(-0.217811 -0.116454 0)
(-0.207944 -0.15087 0)
(-0.189475 -0.180785 0)
(-0.161995 -0.201022 0)
(-0.126683 -0.205978 0)
(-0.0868486 -0.19109 0)
(-0.0478698 -0.154776 0)
(-0.0167574 -0.099887 0)
(-0.00208713 -0.0336697 0)
(-0.00109877 0.0280134 0)
(-0.00681506 0.0709934 0)
(-0.0177155 0.101443 0)
(-0.0310084 0.121099 0)
(-0.0452603 0.132148 0)
(-0.05967 0.136735 0)
(-0.0737567 0.136723 0)
(-0.0873076 0.133579 0)
(-0.100298 0.128359 0)
(-0.112817 0.121744 0)
(-0.125015 0.114108 0)
(-0.137075 0.105568 0)
(-0.149184 0.0960283 0)
(-0.161509 0.0852019 0)
(-0.174163 0.0726198 0)
(-0.187161 0.0576415 0)
(-0.200355 0.0394825 0)
(-0.213356 0.0172843 0)
(-0.225455 -0.00974826 0)
(-0.235545 -0.0421092 0)
(-0.242085 -0.0796607 0)
(-0.243132 -0.121214 0)
(-0.236512 -0.16407 0)
(-0.220178 -0.203669 0)
(-0.192832 -0.233575 0)
(-0.154827 -0.246126 0)
(-0.109132 -0.234137 0)
(-0.0618439 -0.193696 0)
(-0.0222774 -0.12702 0)
(-0.00292635 -0.0433521 0)
(-0.00127067 0.0318224 0)
(-0.00776032 0.08028 0)
(-0.0199401 0.114081 0)
(-0.0344974 0.13539 0)
(-0.0497709 0.146923 0)
(-0.0648879 0.151298 0)
(-0.0793699 0.150735 0)
(-0.0930454 0.146944 0)
(-0.105946 0.141134 0)
(-0.118218 0.134078 0)
(-0.130071 0.126195 0)
(-0.141742 0.117623 0)
(-0.153481 0.108263 0)
(-0.165528 0.0977958 0)
(-0.178084 0.0856824 0)
(-0.191268 0.0711564 0)
(-0.205054 0.0532359 0)
(-0.219197 0.0307777 0)
(-0.233122 0.00261032 0)
(-0.245829 -0.0322146 0)
(-0.255812 -0.0740284 0)
(-0.261012 -0.122068 0)
(-0.25888 -0.173826 0)
(-0.246657 -0.224461 0)
(-0.221948 -0.26645 0)
(-0.183773 -0.289896 0)
(-0.133989 -0.284168 0)
(-0.0786641 -0.241488 0)
(-0.0294281 -0.161864 0)
(-0.00412924 -0.0562905 0)
(-0.00151003 0.0362043 0)
(-0.00899985 0.0907871 0)
(-0.0227375 0.128082 0)
(-0.0387077 0.150854 0)
(-0.0549746 0.162528 0)
(-0.0706081 0.166314 0)
(-0.0851607 0.164854 0)
(-0.0985289 0.160129 0)
(-0.110819 0.153505 0)
(-0.122242 0.14584 0)
(-0.133064 0.137599 0)
(-0.143573 0.12894 0)
(-0.154071 0.119767 0)
(-0.164858 0.109745 0)
(-0.176213 0.0982812 0)
(-0.18836 0.0845115 0)
(-0.201423 0.0672846 0)
(-0.215343 0.0451981 0)
(-0.229783 0.0167132 0)
(-0.243989 -0.0196007 0)
(-0.256707 -0.0646436 0)
(-0.266028 -0.118274 0)
(-0.269286 -0.178503 0)
(-0.263191 -0.240663 0)
(-0.244224 -0.296619 0)
(-0.209644 -0.334441 0)
(-0.159248 -0.339478 0)
(-0.0977782 -0.298228 0)
(-0.0384639 -0.205771 0)
(-0.00585969 -0.0734785 0)
(-0.00186411 0.0413612 0)
(-0.0106942 0.102844 0)
(-0.0263591 0.143682 0)
(-0.0438835 0.167534 0)
(-0.0610161 0.178803 0)
(-0.0768148 0.181453 0)
(-0.0909194 0.178619 0)
(-0.10334 0.172568 0)
(-0.114285 0.164816 0)
(-0.124047 0.156291 0)
(-0.132948 0.147492 0)
(-0.141321 0.138592 0)
(-0.149505 0.129503 0)
(-0.157842 0.119881 0)
(-0.166671 0.109111 0)
(-0.17631 0.0962686 0)
(-0.187028 0.0800874 0)
(-0.198988 0.0589717 0)
(-0.21216 0.0310859 0)
(-0.226171 -0.00544084 0)
(-0.24024 -0.0521698 0)
(-0.252903 -0.109654 0)
(-0.261759 -0.176766 0)
(-0.263373 -0.2496 0)
(-0.253345 -0.320198 0)
(-0.227021 -0.375349 0)
(-0.181265 -0.396423 0)
(-0.117754 -0.362449 0)
(-0.0495207 -0.259613 0)
(-0.00835731 -0.0961123 0)
(-0.00242371 0.0476203 0)
(-0.0131159 0.116922 0)
(-0.0311846 0.16115 0)
(-0.0503411 0.185387 0)
(-0.0680125 0.19542 0)
(-0.0833513 0.196168 0)
(-0.0961868 0.191327 0)
(-0.106716 0.18345 0)
(-0.115297 0.174174 0)
(-0.122326 0.164468 0)
(-0.128192 0.154841 0)
(-0.133269 0.145466 0)
(-0.137922 0.136255 0)
(-0.142513 0.12687 0)
(-0.147417 0.116697 0)
(-0.153019 0.104796 0)
(-0.15971 0.0898581 0)
(-0.167862 0.0701886 0)
(-0.177779 0.0437642 0)
(-0.189615 0.00838585 0)
(-0.203155 -0.0380371 0)
(-0.217608 -0.0968533 0)
(-0.231323 -0.168038 0)
(-0.241272 -0.24902 0)
(-0.242739 -0.333044 0)
(-0.229472 -0.406962 0)
(-0.194935 -0.449186 0)
(-0.13596 -0.430404 0)
(-0.0624507 -0.323185 0)
(-0.0119544 -0.125575 0)
(-0.00336955 0.0555358 0)
(-0.0167372 0.133694 0)
(-0.0377766 0.180754 0)
(-0.0584422 0.204178 0)
(-0.0759324 0.211737 0)
(-0.0897146 0.209548 0)
(-0.0999812 0.201909 0)
(-0.107231 0.191619 0)
(-0.112038 0.180379 0)
(-0.114943 0.169151 0)
(-0.116418 0.158408 0)
(-0.116883 0.148302 0)
(-0.116717 0.138731 0)
(-0.11629 0.129361 0)
(-0.115981 0.119597 0)
(-0.116208 0.108532 0)
(-0.117446 0.0948854 0)
(-0.120237 0.0769755 0)
(-0.12518 0.0527303 0)
(-0.13289 0.0197996 0)
(-0.143826 -0.0242045 0)
(-0.158085 -0.081383 0)
(-0.175034 -0.152856 0)
(-0.192668 -0.237788 0)
(-0.206823 -0.331676 0)
(-0.210521 -0.423221 0)
(-0.194133 -0.490101 0)
(-0.148415 -0.495552 0)
(-0.0765499 -0.394378 0)
(-0.01706 -0.16335 0)
(-0.00506715 0.066088 0)
(-0.0223795 0.154097 0)
(-0.0469151 0.202623 0)
(-0.0684405 0.223239 0)
(-0.084262 0.226545 0)
(-0.0945799 0.220087 0)
(-0.100226 0.208735 0)
(-0.10216 0.195427 0)
(-0.101265 0.181829 0)
(-0.0982672 0.168811 0)
(-0.0937464 0.156759 0)
(-0.0881675 0.145756 0)
(-0.0819202 0.135664 0)
(-0.075359 0.126143 0)
(-0.0688432 0.116626 0)
(-0.0627815 0.106268 0)
(-0.0576774 0.0938877 0)
(-0.0541704 0.0779173 0)
(-0.0530672 0.0563945 0)
(-0.0553416 0.027017 0)
(-0.0620563 -0.0127171 0)
(-0.0741744 -0.0653311 0)
(-0.0922231 -0.132897 0)
(-0.11572 -0.216369 0)
(-0.141984 -0.314235 0)
(-0.164693 -0.418911 0)
(-0.172431 -0.510646 0)
(-0.149837 -0.548566 0)
(-0.0901113 -0.468201 0)
(-0.0240256 -0.21073 0)
(-0.0082455 0.0810689 0)
(-0.0314244 0.179343 0)
(-0.0594588 0.226383 0)
(-0.0799142 0.240983 0)
(-0.0910992 0.237604 0)
(-0.0946776 0.225303 0)
(-0.0925129 0.209328 0)
(-0.0862188 0.192547 0)
(-0.0770676 0.176414 0)
(-0.0659996 0.161589 0)
(-0.0536937 0.148289 0)
(-0.0406423 0.136476 0)
(-0.0272174 0.125936 0)
(-0.0137283 0.116307 0)
(-0.000476913 0.107045 0)
(0.0121815 0.0973889 0)
(0.0237756 0.0862954 0)
(0.033652 0.0723931 0)
(0.0409126 0.0539528 0)
(0.0443695 0.028902 0)
(0.0425343 -0.00512005 0)
(0.0337743 -0.0507083 0)
(0.0165205 -0.11046 0)
(-0.0104467 -0.186798 0)
(-0.0466514 -0.281093 0)
(-0.0880057 -0.390941 0)
(-0.123616 -0.502921 0)
(-0.133665 -0.578025 0)
(-0.0996653 -0.535835 0)
(-0.0326852 -0.268178 0)
(-0.0142486 0.103764 0)
(-0.0458958 0.210588 0)
(-0.0754222 0.250277 0)
(-0.0898881 0.253983 0)
(-0.0907131 0.240894 0)
(-0.0821329 0.221222 0)
(-0.0674644 0.200084 0)
(-0.0490907 0.17987 0)
(-0.0286526 0.161555 0)
(-0.00722498 0.145423 0)
(0.0145063 0.131416 0)
(0.03611 0.119313 0)
(0.0573099 0.108793 0)
(0.0779066 0.0994485 0)
(0.0977106 0.0907582 0)
(0.116474 0.0820482 0)
(0.133818 0.0724416 0)
(0.149153 0.0608092 0)
(0.161602 0.0457363 0)
(0.169915 0.025511 0)
(0.172378 -0.00187225 0)
(0.166978 -0.0387045 0)
(0.151342 -0.0876173 0)
(0.122932 -0.151756 0)
(0.0798631 -0.234624 0)
(0.0225821 -0.339135 0)
(-0.0413799 -0.461152 0)
(-0.0914762 -0.571654 0)
(-0.0987955 -0.584199 0)
(-0.0412824 -0.334949 0)
(-0.0249847 0.140105 0)
(-0.0671712 0.246961 0)
(-0.0898294 0.268571 0)
(-0.0869547 0.254876 0)
(-0.0672427 0.229295 0)
(-0.0385245 0.201751 0)
(-0.00553188 0.176146 0)
(0.0288992 0.153723 0)
(0.0631302 0.134614 0)
(0.096286 0.118537 0)
(0.127945 0.105077 0)
(0.157944 0.0937971 0)
(0.186255 0.0842569 0)
(0.212899 0.0760078 0)
(0.237878 0.0685601 0)
(0.26111 0.0613434 0)
(0.282359 0.0536629 0)
(0.301159 0.0446581 0)
(0.316729 0.0332704 0)
(0.327876 0.0182205 0)
(0.332879 -0.00200882 0)
(0.329587 -0.0291102 0)
(0.315181 -0.0653128 0)
(0.286295 -0.113562 0)
(0.239196 -0.178234 0)
(0.170666 -0.26599 0)
(0.0821364 -0.382911 0)
(-0.0112204 -0.517877 0)
(-0.0766099 -0.59613 0)
(-0.0445272 -0.408612 0)
(-0.0402658 0.201262 0)
(-0.0874756 0.278708 0)
(-0.0766877 0.263599 0)
(-0.0345912 0.227315 0)
(0.0195608 0.190327 0)
(0.0762195 0.158194 0)
(0.131123 0.131875 0)
(0.182392 0.11077 0)
(0.229401 0.0939303 0)
(0.272162 0.0804732 0)
(0.310972 0.0696715 0)
(0.346228 0.060935 0)
(0.378331 0.0537727 0)
(0.407634 0.0477532 0)
(0.434394 0.0424652 0)
(0.458729 0.0374781 0)
(0.480569 0.0323069 0)
(0.499592 0.0263806 0)
(0.515152 0.019017 0)
(0.52618 0.00940327 0)
(0.531154 -0.00342869 0)
(0.527975 -0.0204977 0)
(0.513726 -0.0432747 0)
(0.48479 -0.0738596 0)
(0.436481 -0.115903 0)
(0.36285 -0.176778 0)
(0.258758 -0.270028 0)
(0.126715 -0.407573 0)
(-0.0134915 -0.549188 0)
(-0.0279453 -0.472861 0)
(-0.033207 0.295521 0)
(-0.044757 0.276329 0)
(0.0594022 0.203058 0)
(0.164018 0.151738 0)
(0.25639 0.114886 0)
(0.336072 0.0879038 0)
(0.404159 0.0683982 0)
(0.4621 0.0542971 0)
(0.51152 0.0439577 0)
(0.553949 0.0362464 0)
(0.590679 0.0304046 0)
(0.622755 0.0259073 0)
(0.651006 0.0223719 0)
(0.676064 0.0195003 0)
(0.698379 0.0170391 0)
(0.718205 0.0147479 0)
(0.735584 0.0123757 0)
(0.750312 0.00964328 0)
(0.761888 0.00623325 0)
(0.769411 0.00178369 0)
(0.771721 -0.00404532 0)
(0.767027 -0.0118566 0)
(0.752817 -0.0222513 0)
(0.725883 -0.0361731 0)
(0.681714 -0.0555243 0)
(0.613471 -0.0849979 0)
(0.510707 -0.137349 0)
(0.359159 -0.241078 0)
(0.140393 -0.407068 0)
(0.0576369 -0.458104 0)
(0.303541 0.181052 0)
(0.38397 0.145083 0)
(0.564151 0.0921881 0)
(0.69173 0.0597836 0)
(0.775155 0.0396733 0)
(0.834247 0.0266543 0)
(0.878451 0.018268 0)
(0.912339 0.0128961 0)
(0.938893 0.0094142 0)
(0.960213 0.00710914 0)
(0.97773 0.00554799 0)
(0.992416 0.00446413 0)
(1.00494 0.00368664 0)
(1.01576 0.00309968 0)
(1.02518 0.00261759 0)
(1.03333 0.00216883 0)
(1.04023 0.00168563 0)
(1.04574 0.00109723 0)
(1.04956 0.000331054 0)
(1.05121 -0.000696753 0)
(1.04997 -0.0019748 0)
(1.0448 -0.00374753 0)
(1.03453 -0.00611637 0)
(1.01746 -0.00925286 0)
(0.991054 -0.0135895 0)
(0.950871 -0.020352 0)
(0.887073 -0.0332333 0)
(0.778198 -0.0644871 0)
(0.545412 -0.140012 0)
(0.382528 -0.202065 0)
)
;

boundaryField
{
    movingWall
    {
        type            fixedValue;
        value           uniform (1.2 0 0);
    }
    fixedWalls
    {
        type            noSlip;
    }
    frontAndBack
    {
        type            empty;
    }
}


// ************************************************************************* //
