/*--------------------------------*- C++ -*----------------------------------*\
  =========                 |
  \\      /  F ield         | OpenFOAM: The Open Source CFD Toolbox
   \\    /   O peration     | Website:  https://openfoam.org
    \\  /    A nd           | Version:  7
     \\/     M anipulation  |
\*---------------------------------------------------------------------------*/
FoamFile
{
    version     2.0;
    format      ascii;
    class       volScalarField;
    location    "750";
    object      epsilon;
}
// * * * * * * * * * * * * * * * * * * * * * * * * * * * * * * * * * * * * * //

dimensions      [0 2 -3 0 0 0 0];

internalField   nonuniform List<scalar> 
16900
(
0.972889
1.75923
2.70451
3.56477
4.33415
5.01534
5.61536
6.1406
6.59521
6.97932
7.28898
7.51673
7.65212
7.68951
7.64488
7.85781
8.00203
33.8002
37.6406
41.8224
46.2957
51.0546
56.0998
61.435
67.0654
72.9972
79.2358
85.7864
92.6532
99.8394
107.347
115.178
123.332
131.806
140.6
149.707
159.124
168.843
178.856
189.154
199.724
210.556
221.634
232.943
244.467
256.187
268.084
280.136
292.321
304.614
316.99
329.423
341.886
354.35
366.787
379.168
391.467
403.658
415.72
427.636
439.4
451.018
462.522
473.976
485.271
496.241
506.871
517.144
527.041
536.541
545.626
554.277
562.473
570.198
577.434
584.165
590.375
596.048
601.173
605.736
609.728
613.139
615.962
618.191
619.823
620.855
621.287
621.121
620.362
619.017
617.094
614.603
611.558
607.974
603.869
599.262
594.176
588.633
582.657
576.278
569.523
562.422
555.005
547.302
539.348
531.176
522.816
514.3
505.662
496.937
488.155
479.341
470.526
461.743
453.023
444.381
435.839
427.428
419.176
411.094
403.19
395.485
388.01
380.778
373.786
367.038
360.546
354.345
348.437
342.813
337.492
332.491
327.865
323.896
321.244
319.218
317.586
316.342
315.508
315.11
315.178
315.749
316.858
318.55
320.869
323.866
327.592
332.101
337.446
343.676
350.835
358.954
368.044
378.089
389.034
400.771
413.129
425.866
438.664
451.139
462.861
473.385
482.288
489.206
493.87
496.118
495.906
493.298
488.448
481.576
472.948
462.846
451.56
439.363
426.51
413.227
399.712
386.132
372.625
359.306
346.262
333.565
321.264
309.396
297.988
287.054
276.599
266.626
257.129
248.1
239.529
231.401
223.704
216.429
209.603
203.179
197.11
191.351
185.877
180.692
1.94795
1.87161
2.50595
3.21946
3.90828
4.55595
5.17131
5.77212
6.38107
7.02618
7.74356
8.58068
9.59849
10.8658
12.431
14.2763
16.8403
20.9208
23.1951
25.4399
27.787
30.2559
32.85
35.5715
38.422
41.4034
44.5166
47.7624
51.1411
54.6525
58.2958
62.0697
65.9724
70.0017
74.1545
78.4276
82.817
87.3181
91.926
96.6353
101.44
106.333
111.308
116.358
121.474
126.649
131.874
137.14
142.437
147.758
153.092
158.429
163.761
169.077
174.369
179.629
184.849
190.022
195.144
200.212
205.227
210.191
215.115
220.014
224.873
229.612
234.217
238.681
242.994
247.149
251.138
254.952
258.585
262.029
265.277
268.322
271.156
273.775
276.173
278.343
280.282
281.985
283.448
284.669
285.646
286.376
286.86
287.097
287.088
286.835
286.34
285.608
284.642
283.448
282.031
280.4
278.563
276.526
274.301
271.898
269.327
266.6
263.729
260.726
257.605
254.378
251.058
247.659
244.194
240.676
237.12
233.536
229.938
226.338
222.749
219.181
215.644
212.147
208.705
205.326
202.015
198.777
195.627
192.574
189.62
186.767
184.003
181.375
178.878
176.506
174.264
172.161
170.216
168.485
167.072
165.905
164.926
164.126
163.51
163.086
162.866
162.862
163.088
163.563
164.304
165.331
166.665
168.326
170.333
172.704
175.45
178.574
182.072
185.921
190.081
194.492
199.067
203.694
208.237
212.541
216.441
219.773
222.388
224.162
225.008
224.879
223.771
221.719
218.789
215.071
210.67
205.698
200.268
194.488
188.458
182.267
175.995
169.708
163.463
157.305
151.272
145.393
139.69
134.179
128.873
123.777
118.896
114.232
109.783
105.547
101.52
97.6974
94.074
90.645
87.4178
84.3952
81.5618
78.9106
76.4539
74.3077
2.72843
2.24063
2.71372
3.35339
4.02324
4.69248
5.36539
6.06108
6.80545
7.62855
8.56323
9.64204
10.8903
12.3145
13.8917
15.5928
17.4902
19.5606
21.4606
23.3997
25.4253
27.5504
29.7782
32.1101
34.5473
37.0906
39.7406
42.4977
45.3618
48.3325
51.4093
54.5909
57.8758
61.2621
64.7476
68.3295
72.0046
75.7694
79.62
83.5521
87.561
91.6417
95.7887
99.9966
104.259
108.571
112.925
117.314
121.734
126.175
130.633
135.099
139.568
144.032
148.485
152.921
157.334
161.719
166.071
170.386
174.662
178.897
183.091
187.244
191.321
195.3
199.172
202.929
206.564
210.071
213.443
216.674
219.756
222.686
225.455
228.059
230.493
232.75
234.828
236.72
238.423
239.934
241.249
242.367
243.285
244.001
244.516
244.828
244.939
244.85
244.562
244.079
243.404
242.54
241.493
240.268
238.872
237.312
235.594
233.727
231.72
229.583
227.324
224.953
222.48
219.918
217.276
214.564
211.793
208.975
206.12
203.24
200.341
197.435
194.535
191.647
188.78
185.938
183.138
180.387
177.686
175.033
172.451
169.95
167.527
165.184
162.92
160.75
158.678
156.703
154.829
153.06
151.406
149.887
148.537
147.347
146.301
145.393
144.625
144.002
143.53
143.219
143.078
143.119
143.355
143.801
144.468
145.373
146.526
147.937
149.61
151.544
153.725
156.131
158.725
161.453
164.246
167.019
169.672
172.097
174.181
175.817
176.908
177.378
177.178
176.283
174.701
172.464
169.624
166.248
162.416
158.207
153.703
148.98
144.109
139.152
134.164
129.192
124.273
119.44
114.718
110.125
105.677
101.384
97.2529
93.2885
89.4928
85.8661
82.4072
79.1139
75.983
73.0108
70.1932
67.5249
65.0133
62.6527
60.4378
58.3666
56.4549
54.8292
3.34582
2.59639
2.96767
3.5574
4.2166
4.90668
5.62568
6.38793
7.2142
8.12674
9.14613
10.2876
11.5565
12.9445
14.4354
16.0158
17.6964
19.4612
21.2628
23.1325
25.0871
27.1353
29.2807
31.5253
33.8708
36.3182
38.8683
41.522
44.2794
47.1407
50.1056
53.1736
56.3436
59.6144
62.9843
66.4511
70.0124
73.6652
77.4063
81.232
85.1382
89.1205
93.1741
97.2942
101.475
105.712
109.999
114.33
118.699
123.1
127.526
131.972
136.431
140.897
145.363
149.822
154.269
158.696
163.099
167.471
171.807
176.101
180.35
184.534
188.634
192.637
196.534
200.318
203.981
207.518
210.922
214.185
217.303
220.268
223.076
225.72
228.195
230.497
232.62
234.56
236.315
237.879
239.251
240.428
241.408
242.19
242.773
243.157
243.343
243.332
243.127
242.728
242.141
241.368
240.415
239.286
237.989
236.53
234.915
233.152
231.251
229.22
227.068
224.805
222.44
219.984
217.448
214.841
212.174
209.456
206.7
203.916
201.111
198.292
195.477
192.673
189.884
187.108
184.377
181.69
179.05
176.461
173.931
171.468
169.076
166.755
164.509
162.344
160.262
158.265
156.357
154.54
152.819
151.205
149.712
148.341
147.09
145.956
144.941
144.048
143.282
142.651
142.161
141.825
141.65
141.65
141.836
142.219
142.809
143.611
144.629
145.858
147.284
148.886
150.626
152.457
154.319
156.138
157.83
159.307
160.479
161.26
161.575
161.367
160.599
159.257
157.351
154.912
151.987
148.636
144.925
140.923
136.699
132.317
127.835
123.305
118.773
114.276
109.845
105.505
101.276
97.1729
93.2071
89.3862
85.715
82.1964
78.8312
75.619
72.5581
69.646
66.8796
64.2551
61.7681
59.4172
57.2016
55.1171
53.1599
51.3299
49.6458
48.2474
3.85615
2.90428
3.20228
3.75417
4.40217
5.10331
5.85016
6.65125
7.52102
8.47437
9.52352
10.6758
11.9321
13.2865
14.7314
16.2611
17.8771
19.5759
21.3505
23.2075
25.1539
27.1952
29.335
31.5759
33.9198
36.3685
38.9235
41.586
44.3572
47.2377
50.228
53.3283
56.5383
59.8575
63.2847
66.8187
70.4574
74.1987
78.0397
81.9772
86.0076
90.1269
94.3306
98.6139
102.972
107.399
111.889
116.438
121.038
125.683
130.368
135.085
139.828
144.589
149.362
154.138
158.91
163.671
168.411
173.124
177.801
182.435
187.01
191.506
195.909
200.208
204.395
208.461
212.398
216.201
219.862
223.373
226.728
229.921
232.946
235.796
238.467
240.954
243.252
245.356
247.262
248.968
250.47
251.767
252.857
253.738
254.41
254.874
255.129
255.177
255.021
254.664
254.109
253.359
252.42
251.298
249.999
248.53
246.898
245.111
243.177
241.108
238.911
236.596
234.172
231.651
229.045
226.364
223.615
220.809
217.963
215.086
212.181
209.253
206.332
203.42
200.522
197.642
194.794
191.986
189.222
186.506
183.845
181.244
178.707
176.237
173.836
171.509
169.258
167.084
164.989
162.976
161.049
159.212
157.473
155.835
154.297
152.861
151.527
150.299
149.18
148.177
147.297
146.548
145.939
145.481
145.186
145.062
145.12
145.365
145.8
146.42
147.215
148.163
149.232
150.378
151.548
152.676
153.691
154.513
155.064
155.271
155.068
154.406
153.255
151.603
149.46
146.855
143.832
140.444
136.751
132.816
128.7
124.46
120.15
115.814
111.493
107.221
103.023
98.9233
94.937
91.0775
87.3538
83.772
80.3359
77.0472
73.9061
70.9116
68.0615
65.353
62.7829
60.3473
58.0423
55.8664
53.8158
51.8865
50.0756
48.3835
46.8329
45.5717
4.28191
3.16008
3.39865
3.9183
4.5522
5.25415
6.01263
6.83138
7.71987
8.68812
9.74403
10.8921
12.1333
13.4655
14.886
16.3932
17.9881
19.6713
21.443
23.3061
25.2648
27.3232
29.4849
31.7528
34.1296
36.618
39.2201
41.938
44.7737
47.7288
50.8047
54.0024
57.3226
60.7654
64.3308
68.0179
71.8257
75.7524
79.7957
83.953
88.2208
92.5953
97.0724
101.647
106.314
111.069
115.904
120.815
125.794
130.835
135.931
141.074
146.257
151.472
156.71
161.962
167.219
172.47
177.706
182.915
188.088
193.213
198.262
203.219
208.071
212.809
217.422
221.902
226.241
230.43
234.462
238.328
242.022
245.538
248.867
252.006
254.947
257.686
260.218
262.538
264.642
266.528
268.193
269.635
270.853
271.845
272.611
273.153
273.47
273.564
273.44
273.099
272.546
271.785
270.821
269.66
268.31
266.778
265.071
263.197
261.166
258.988
256.674
254.232
251.671
249.005
246.247
243.406
240.488
237.504
234.48
231.419
228.33
225.218
222.103
218.991
215.89
212.805
209.747
206.723
203.738
200.798
197.908
195.073
192.297
189.584
186.934
184.353
181.841
179.399
177.03
174.735
172.516
170.376
168.318
166.345
164.459
162.659
160.947
159.325
157.798
156.369
155.046
153.836
152.747
151.791
150.976
150.315
149.817
149.489
149.335
149.354
149.539
149.871
150.323
150.859
151.431
151.98
152.441
152.745
152.819
152.596
152.014
151.027
149.604
147.734
145.426
142.704
139.607
136.186
132.494
128.59
124.53
120.367
116.151
111.923
107.72
103.574
99.5096
95.5461
91.6992
87.9804
84.3976
80.9563
77.6594
74.5081
71.5022
68.6402
65.9199
63.3381
60.8915
58.5758
56.3883
54.3252
52.3824
50.556
48.8432
47.2451
45.7875
44.6225
4.63585
3.36635
3.55206
4.04144
4.65786
5.35218
6.10996
6.93148
7.82282
8.79111
9.84221
10.98
12.2062
13.5215
14.9259
16.4203
18.0066
19.6868
21.4632
23.3384
25.3162
27.4002
29.5944
31.9024
34.3276
36.8735
39.5433
42.3402
45.267
48.3266
51.5212
54.8531
58.3238
61.9346
65.6862
69.5787
73.6117
77.7842
82.0943
86.5398
91.1175
95.8239
100.655
105.605
110.669
115.842
121.116
126.486
131.943
137.481
143.091
148.766
154.495
160.271
166.082
171.918
177.767
183.616
189.454
195.266
201.038
206.751
212.37
217.884
223.278
228.544
233.669
238.644
243.46
248.107
252.576
256.86
260.95
264.839
268.521
271.988
275.236
278.259
281.052
283.61
285.93
288.008
289.844
291.435
292.78
293.879
294.733
295.34
295.705
295.828
295.714
295.366
294.789
293.987
292.967
291.735
290.298
288.666
286.846
284.845
282.673
280.345
277.869
275.255
272.506
269.646
266.688
263.64
260.511
257.312
254.061
250.767
247.439
244.086
240.721
237.353
233.99
230.64
227.312
224.011
220.745
217.519
214.339
211.208
208.131
205.111
202.151
199.252
196.417
193.646
190.941
188.302
185.731
183.228
180.797
178.437
176.15
173.937
171.798
169.735
167.751
165.85
164.038
162.322
160.71
159.211
157.838
156.601
155.512
154.58
153.813
153.214
152.779
152.497
152.349
152.303
152.319
152.347
152.327
152.194
151.881
151.322
150.456
149.236
147.628
145.618
143.21
140.423
137.293
133.863
130.186
126.314
122.301
118.198
114.049
109.897
105.775
101.714
97.7364
93.8627
90.1069
86.48
82.9895
79.6405
76.4357
73.3759
70.4609
67.6889
65.0576
62.5638
60.2039
57.9739
55.8701
53.8883
52.0244
50.2745
48.6356
47.1093
45.724
44.6327
4.92712
3.52781
3.66398
4.12325
4.71906
5.39936
6.14757
6.96165
7.84547
8.80449
9.84373
10.9671
12.1773
13.4767
14.8671
16.3511
17.9314
19.6113
21.3937
23.2823
25.2808
27.3934
29.6246
31.9788
34.4605
37.0741
39.824
42.7145
45.7497
48.9336
52.2698
55.7616
59.4118
63.2226
67.1959
71.3327
75.6332
80.0972
84.7233
89.5097
94.4536
99.5512
104.798
110.19
115.72
121.382
127.169
133.073
139.086
145.2
151.406
157.693
164.051
170.47
176.937
183.44
189.964
196.494
203.014
209.508
215.959
222.322
228.578
234.712
240.711
246.562
252.253
257.773
263.112
268.259
273.205
277.939
282.453
286.741
290.795
294.608
298.174
301.489
304.547
307.343
309.875
312.14
314.136
315.864
317.322
318.51
319.429
320.081
320.469
320.595
320.464
320.081
319.45
318.578
317.47
316.133
314.578
312.814
310.847
308.686
306.338
303.826
301.156
298.339
295.383
292.305
289.118
285.832
282.459
279.01
275.499
271.936
268.334
264.7
261.048
257.385
253.721
250.065
246.424
242.806
239.216
235.661
232.146
228.676
225.254
221.883
218.566
215.306
212.103
208.957
205.871
202.844
199.876
196.967
194.12
191.333
188.606
185.941
183.337
180.795
178.319
175.91
173.574
171.317
169.147
167.074
165.109
163.265
161.554
159.99
158.584
157.345
156.275
155.372
154.623
154.007
153.49
153.03
152.575
152.063
151.428
150.604
149.53
148.152
146.432
144.35
141.902
139.104
135.983
132.581
128.945
125.123
121.167
117.125
113.041
108.955
104.9
100.907
96.9983
93.1928
89.505
85.946
82.5232
79.2417
76.1043
73.1119
70.2641
67.5593
64.9952
62.5685
60.2755
58.1117
56.0733
54.1559
52.3554
50.6676
49.0895
47.6232
46.2987
45.2676
5.16332
3.6499
3.73859
4.16724
4.73977
5.40134
6.13376
6.9334
7.80273
8.74628
9.76876
10.8744
12.0667
13.3493
14.7253
16.1984
17.7725
19.4516
21.2397
23.1413
25.1609
27.3036
29.5745
31.9793
34.5235
37.2127
40.0526
43.049
46.2072
49.5327
53.0303
56.7047
60.56
64.5996
68.8264
73.2424
77.8487
82.6456
87.6323
92.8072
98.1676
103.71
109.43
115.321
121.377
127.592
133.957
140.462
147.099
153.858
160.728
167.697
174.753
181.884
189.076
196.313
203.578
210.853
218.118
225.353
232.529
239.593
246.53
253.327
259.968
266.439
272.728
278.821
284.707
290.373
295.809
301.004
305.95
310.638
315.063
319.217
323.094
326.689
329.996
333.013
335.735
338.163
340.295
342.131
343.672
344.918
345.871
346.534
346.91
347.005
346.822
346.368
345.649
344.671
343.442
341.965
340.258
338.329
336.187
333.84
331.299
328.579
325.692
322.648
319.459
316.138
312.697
309.15
305.507
301.781
297.985
294.129
290.226
286.285
282.317
278.333
274.34
270.349
266.367
262.401
258.458
254.544
250.664
246.822
243.023
239.27
235.565
231.91
228.306
224.753
221.253
217.805
214.408
211.063
207.769
204.525
201.332
198.188
195.093
192.048
189.055
186.115
183.232
180.413
177.664
174.995
172.418
169.946
167.595
165.38
163.318
161.423
159.705
158.171
156.817
155.634
154.597
153.672
152.812
151.962
151.056
150.026
148.805
147.334
145.567
143.474
141.045
138.287
135.222
131.886
128.32
124.573
120.692
116.724
112.711
108.695
104.707
100.778
96.9307
93.1847
89.5549
86.0523
82.6852
79.4586
76.3758
73.438
70.6449
67.9952
65.4865
63.1156
60.8779
58.7696
56.7865
54.9243
53.1786
51.5451
50.0208
48.6079
47.3376
46.358
5.35104
3.73807
3.78107
4.17849
4.72567
5.36511
6.07739
6.8578
7.70791
8.63175
9.63398
10.7192
11.8918
13.1561
14.5166
15.9779
17.5449
19.2226
21.0162
22.9311
24.9729
27.1477
29.462
31.9226
34.5362
37.3101
40.2514
43.3673
46.6648
50.1507
53.8315
57.7132
61.8012
66.1003
70.6145
75.3467
80.2988
85.4718
90.8651
96.4774
102.306
108.347
114.595
121.044
127.688
134.516
141.521
148.691
156.015
163.482
171.079
178.792
186.607
194.51
202.484
210.51
218.57
226.641
234.701
242.724
250.644
258.434
266.078
273.559
280.859
287.965
294.861
301.533
307.967
314.151
320.07
325.716
331.079
336.151
340.925
345.395
349.555
353.401
356.926
360.127
363.003
365.554
367.78
369.684
371.267
372.526
373.469
374.098
374.42
374.439
374.16
373.593
372.744
371.622
370.236
368.591
366.702
364.58
362.234
359.674
356.912
353.961
350.833
347.54
344.094
340.508
336.793
332.964
329.032
325.009
320.908
316.74
312.516
308.248
303.947
299.621
295.281
290.935
286.591
282.257
277.94
273.646
269.379
265.146
260.948
256.791
252.675
248.603
244.576
240.595
236.659
232.768
228.922
225.12
221.36
217.642
213.964
210.326
206.726
203.165
199.642
196.16
192.722
189.332
185.997
182.726
179.532
176.427
173.429
170.557
167.831
165.273
162.9
160.73
158.769
157.02
155.469
154.093
152.853
151.696
150.559
149.37
148.055
146.548
144.791
142.744
140.388
137.72
134.755
131.523
128.063
124.417
120.633
116.755
112.827
108.889
104.973
101.111
97.3254
93.6375
90.0625
86.6124
83.2958
80.1187
77.0846
74.1953
71.4508
68.8501
66.391
64.0693
61.8811
59.8226
57.8897
56.078
54.3828
52.7997
51.3255
49.9626
48.7425
47.8088
5.49632
3.79752
3.79676
4.16259
4.6829
5.29785
5.98704
6.745
7.57276
8.47408
9.45372
10.5167
11.6682
12.9134
14.2577
15.707
17.267
18.9439
20.7442
22.6745
24.7418
26.9536
29.3176
31.8422
34.5359
37.4074
40.4655
43.7192
47.1771
50.8477
54.739
58.8585
63.2131
67.8088
72.6507
77.7428
83.0877
88.6866
94.5392
100.644
106.998
113.596
120.434
127.503
134.796
142.302
150.01
157.909
165.983
174.219
182.602
191.116
199.744
208.47
217.274
226.135
235.03
243.934
252.819
261.635
270.313
278.839
287.193
295.358
303.314
311.045
318.536
325.77
332.735
339.411
345.787
351.852
357.597
363.014
368.096
372.839
377.237
381.287
384.979
388.313
391.289
393.909
396.175
398.091
399.659
400.878
401.755
402.297
402.512
402.405
401.985
401.26
400.24
398.934
397.352
395.502
393.398
391.05
388.469
385.668
382.657
379.449
376.056
372.491
368.766
364.894
360.888
356.759
352.521
348.185
343.764
339.27
334.713
330.105
325.456
320.776
316.075
311.362
306.645
301.931
297.227
292.539
287.874
283.235
278.626
274.05
269.511
265.01
260.547
256.124
251.74
247.395
243.088
238.818
234.583
230.382
226.214
222.076
217.968
213.888
209.836
205.814
201.823
197.867
193.952
190.087
186.282
182.553
178.917
175.396
172.013
168.797
165.772
162.967
160.4
158.086
156.026
154.208
152.603
151.163
149.826
148.517
147.154
145.661
143.966
142.018
139.785
137.254
134.433
131.344
128.021
124.505
120.841
117.073
113.245
109.396
105.562
101.772
98.0535
94.4263
90.9074
87.5099
84.2433
81.1144
78.1274
75.2847
72.5867
70.0329
67.6206
65.3453
63.2041
61.1932
59.3085
57.5453
55.8988
54.3644
52.9388
51.6242
50.4521
49.5605
5.60461
3.83302
3.79073
4.12497
4.61746
5.20641
5.87064
6.60418
7.40772
8.28494
9.2408
10.2808
11.4109
12.6372
13.9661
15.4045
16.9595
18.6386
20.4497
22.4008
24.5007
26.7584
29.1834
31.7858
34.5758
37.5643
40.7619
44.1795
47.8274
51.716
55.8547
60.2527
64.9182
69.8585
75.0798
80.5868
86.3826
92.4686
98.8438
105.506
112.452
119.677
127.172
134.931
142.942
151.194
159.674
168.366
177.253
186.318
195.543
204.909
214.398
223.99
233.66
243.387
253.143
262.9
272.62
282.206
291.633
300.879
309.925
318.749
327.333
335.657
343.706
351.463
358.915
366.038
372.819
379.249
385.319
391.022
396.352
401.303
405.876
410.065
413.856
417.255
420.263
422.885
425.123
426.983
428.467
429.582
430.335
430.732
430.784
430.499
429.885
428.954
427.715
426.179
424.358
422.263
419.904
417.295
414.446
411.371
408.082
404.59
400.908
397.049
393.026
388.85
384.535
380.092
375.534
370.874
366.122
361.291
356.392
351.435
346.432
341.391
336.323
331.236
326.139
321.039
315.943
310.857
305.787
300.736
295.711
290.712
285.744
280.808
275.905
271.036
266.2
261.398
256.627
251.888
247.178
242.495
237.838
233.205
228.594
224.003
219.432
214.882
210.352
205.847
201.37
196.931
192.538
188.207
183.956
179.807
175.788
171.931
168.269
164.839
161.673
158.8
156.235
153.982
152.021
150.315
148.802
147.405
146.033
144.597
143.011
141.21
139.147
136.798
134.161
131.252
128.099
124.741
121.221
117.583
113.871
110.126
106.383
102.675
99.0293
95.4679
92.0091
88.6671
85.4527
82.3736
79.4348
76.6395
73.9887
71.4822
69.1155
66.8865
64.7923
62.8289
60.9922
59.2774
57.6795
56.1935
54.816
53.5492
52.4238
51.5718
5.68098
3.84882
3.76756
4.07064
4.53494
5.09713
5.73549
6.44372
7.22234
8.07508
9.00724
10.0249
11.1348
12.3441
13.6604
15.0918
16.6468
18.3346
20.1647
22.1469
24.292
26.6109
29.1153
31.8172
34.729
37.8638
41.2343
44.8536
48.734
52.8874
57.325
62.0572
67.0935
72.4424
78.1107
84.1039
90.4252
97.0756
104.053
111.353
118.972
126.903
135.137
143.663
152.469
161.541
170.864
180.419
190.181
200.132
210.25
220.514
230.901
241.387
251.947
262.553
273.176
283.784
294.286
304.616
314.754
324.68
334.371
343.804
352.96
361.819
370.361
378.573
386.448
393.944
401.054
407.771
414.087
419.995
425.49
430.567
435.225
439.461
443.27
446.654
449.618
452.164
454.299
456.03
457.363
458.304
458.864
459.052
458.877
458.352
457.488
456.294
454.784
452.969
450.863
448.477
445.823
442.914
439.763
436.383
432.785
428.983
424.989
420.815
416.474
411.978
407.34
402.571
397.683
392.689
387.6
382.427
377.18
371.872
366.511
361.108
355.672
350.212
344.735
339.249
333.761
328.277
322.803
317.344
311.903
306.483
301.088
295.72
290.379
285.067
279.783
274.528
269.299
264.097
258.919
253.763
248.628
243.511
238.412
233.326
228.255
223.197
218.152
213.123
208.114
203.131
198.184
193.286
188.455
183.714
179.092
174.625
170.353
166.319
162.571
159.148
156.086
153.402
151.094
149.132
147.462
146.001
144.653
143.311
141.878
140.267
138.417
136.292
133.878
131.183
128.232
125.059
121.706
118.218
114.64
111.012
107.373
103.756
100.192
96.7028
93.3098
90.0282
86.87
83.8441
80.9566
78.2114
75.6103
73.1514
70.8323
68.6513
66.6054
64.6909
62.9033
61.2378
59.6891
58.2521
56.9231
55.7041
54.6246
53.8102
5.73009
3.84868
3.7313
4.00411
4.44044
4.97587
5.58835
6.27144
7.02564
7.85492
8.76502
9.76281
10.8559
12.0527
13.3621
14.794
16.3584
18.0665
19.9298
21.9605
24.1715
26.5764
29.1891
32.024
35.0961
38.4208
42.0136
45.8896
50.0635
54.5485
59.3569
64.5004
69.9894
75.833
82.0385
88.6113
95.5549
102.869
110.547
118.584
126.973
135.706
144.771
154.154
163.839
173.811
184.051
194.539
205.237
216.124
227.177
238.37
249.677
261.071
272.52
283.995
295.462
306.847
318.073
329.085
339.868
350.4
360.658
370.619
380.261
389.562
398.505
407.072
415.25
423.015
430.355
437.259
443.722
449.736
455.297
460.402
465.05
469.24
472.973
476.25
479.077
481.46
483.407
484.926
486.026
486.716
487.008
486.913
486.444
485.614
484.435
482.921
481.084
478.938
476.497
473.775
470.784
467.538
464.049
460.331
456.398
452.26
447.931
443.423
438.748
433.918
428.945
423.841
418.617
413.285
407.855
402.338
396.746
391.087
385.372
379.61
373.81
367.98
362.129
356.264
350.391
344.517
338.647
332.785
326.937
321.105
315.292
309.5
303.731
297.986
292.265
286.568
280.894
275.241
269.61
263.997
258.401
252.821
247.253
241.697
236.15
230.612
225.084
219.565
214.06
208.574
203.114
197.694
192.33
187.044
181.866
176.833
171.99
167.387
163.081
159.129
155.581
152.474
149.823
147.613
145.797
144.292
142.992
141.779
140.533
139.152
137.556
135.693
133.538
131.091
128.371
125.41
122.248
118.93
115.501
112.005
108.482
104.968
101.494
98.0856
94.7652
91.55
88.4533
85.4855
82.6537
79.9626
77.4139
75.0054
72.7366
70.6062
68.6111
66.7475
65.011
63.3963
61.8981
60.511
59.231
58.0598
57.0256
56.2473
5.75624
3.83589
3.68551
3.92942
4.33861
4.84809
5.43569
6.09501
6.82674
7.63525
8.52699
9.50975
10.5924
11.7848
13.0977
14.5427
16.1323
17.8798
19.7995
21.9062
24.216
26.7452
29.5107
32.5297
35.8199
39.3996
43.287
47.4999
52.0553
56.9671
62.2478
67.9097
73.9637
80.4187
87.2813
94.5564
102.247
110.352
118.855
127.749
137.025
146.672
156.673
167.011
177.665
188.616
199.845
211.334
223.017
234.878
246.889
259.023
271.248
283.532
295.84
308.136
320.35
332.385
344.218
355.808
367.131
378.162
388.875
399.247
409.256
418.88
428.099
436.898
445.262
453.172
460.616
467.584
474.07
480.069
485.577
490.592
495.117
499.152
502.699
505.763
508.351
510.471
512.133
513.348
514.127
514.481
514.425
513.971
513.135
511.93
510.372
508.476
506.255
503.726
500.902
497.799
494.43
490.81
486.95
482.866
478.57
474.075
469.392
464.534
459.512
454.339
449.025
443.581
438.018
432.347
426.578
420.721
414.787
408.784
402.722
396.61
390.456
384.269
378.055
371.823
365.577
359.326
353.073
346.823
340.582
334.351
328.135
321.936
315.755
309.593
303.452
297.33
291.229
285.146
279.082
273.034
267.001
260.981
254.973
248.974
242.983
237
231.024
225.056
219.098
213.154
207.232
201.341
195.499
189.725
184.048
178.504
173.142
168.016
163.191
158.737
154.722
151.203
148.216
145.763
143.809
142.273
141.043
139.983
138.958
137.842
136.535
134.97
133.109
130.941
128.481
125.756
122.807
119.678
116.416
113.067
109.673
106.272
102.898
99.5793
96.3392
93.1973
90.1685
87.2644
84.4935
81.8615
79.3679
77.0137
74.7991
72.7225
70.7811
68.9711
67.2878
65.7257
64.2794
62.943
61.7125
60.589
59.5994
58.8558
5.76341
3.81329
3.6333
3.85021
4.23388
4.71918
5.28412
5.92255
6.63562
7.42838
8.30828
9.28444
10.3674
11.5689
12.9019
14.3808
16.0208
17.8384
19.8509
22.077
24.5363
27.2494
30.2363
33.5169
37.1125
41.0442
45.3331
49.9999
55.0644
60.5397
66.4356
72.765
79.538
86.7616
94.4403
102.576
111.172
120.231
129.708
139.602
149.9
160.585
171.636
183.03
194.742
206.744
219.011
231.512
244.199
257.039
270.001
283.048
296.148
309.263
322.351
335.34
348.125
360.688
373.002
385.032
396.75
408.13
419.147
429.776
439.996
449.785
459.125
467.999
476.395
484.296
491.693
498.575
504.938
510.778
516.093
520.884
525.154
528.906
532.145
534.878
537.113
538.862
540.135
540.947
541.312
541.242
540.754
539.862
538.584
536.936
534.935
532.597
529.939
526.975
523.723
520.197
516.413
512.385
508.126
503.651
498.971
494.1
489.049
483.83
478.454
472.932
467.274
461.49
455.592
449.587
443.486
437.299
431.033
424.698
418.303
411.856
405.363
398.834
392.275
385.693
379.094
372.483
365.867
359.249
352.635
346.027
339.429
332.843
326.272
319.716
313.177
306.655
300.15
293.662
287.191
280.735
274.293
267.864
261.446
255.039
248.64
242.25
235.867
229.493
223.128
216.778
210.446
204.144
197.883
191.684
185.573
179.584
173.765
168.174
162.881
157.966
153.512
149.598
146.284
143.593
141.505
139.946
138.8
137.917
137.138
136.318
135.333
134.099
132.562
130.703
128.529
126.065
123.35
120.43
117.352
114.164
110.912
107.636
104.372
101.152
98.0004
94.9392
91.9852
89.1513
86.4473
83.8779
81.4443
79.1491
76.9926
74.9736
73.0891
71.3354
69.7074
68.1997
66.8063
65.5214
64.3406
63.2645
62.3184
61.608
5.75533
3.78342
3.5775
3.77003
4.13077
4.59494
5.14105
5.76356
6.46442
7.2498
8.12863
9.11193
10.2125
11.4449
12.825
14.3707
16.1017
18.038
20.2013
22.6149
25.3037
28.2935
31.6085
35.2703
39.3041
43.7344
48.5845
53.877
59.6371
65.873
72.5854
79.7887
87.4899
95.6916
104.393
113.591
123.278
133.445
144.061
155.109
166.569
178.415
190.621
203.158
215.993
229.095
242.427
255.953
269.628
283.413
297.268
311.15
325.026
338.85
352.53
365.973
379.163
392.077
404.69
416.971
428.891
440.425
451.548
462.237
472.47
482.229
491.496
500.256
508.497
516.207
523.376
529.998
536.068
541.585
546.549
550.962
554.831
558.159
560.956
563.23
564.991
566.253
567.03
567.338
567.191
566.608
565.603
564.196
562.405
560.248
557.743
554.908
551.761
548.318
544.597
540.614
536.383
531.921
527.24
522.354
517.277
512.019
506.592
501.008
495.276
489.407
483.41
477.294
471.068
464.742
458.322
451.819
445.239
438.591
431.881
425.119
418.31
411.461
404.58
397.672
390.743
383.799
376.844
369.884
362.923
355.964
349.01
342.065
335.13
328.208
321.299
314.406
307.527
300.664
293.817
286.985
280.167
273.364
266.573
259.794
253.027
246.271
239.525
232.791
226.07
219.365
212.68
206.025
199.411
192.853
186.377
180.015
173.812
167.823
162.124
156.799
151.947
147.665
144.037
141.113
138.894
137.318
136.265
135.573
135.064
134.564
133.931
133.056
131.873
130.351
128.489
126.309
123.85
121.156
118.278
115.267
112.169
109.03
105.887
102.774
99.7202
96.7478
93.8758
91.1189
88.4877
85.9853
83.6169
81.3853
79.2912
77.3334
75.509
73.814
72.2433
70.7914
69.4519
68.2187
67.0872
66.0576
65.1536
64.4748
5.73553
3.74859
3.52092
3.69264
4.0344
4.48233
5.01586
5.63053
6.32966
7.12122
8.01647
9.02918
10.1756
11.4742
12.945
14.6113
16.4993
18.6336
21.0415
23.753
26.7994
30.2152
34.0287
38.2596
42.9389
48.093
53.7457
59.9176
66.6267
73.8803
81.6798
90.0291
98.9274
108.369
118.344
128.84
139.84
151.322
163.257
175.615
188.367
201.48
214.921
228.653
242.637
256.835
271.205
285.704
300.286
314.908
329.521
344.077
358.546
372.793
386.756
400.425
413.783
426.809
439.477
451.762
463.637
475.077
486.06
496.566
506.574
516.067
525.031
533.452
541.32
548.627
555.364
561.527
567.114
572.125
576.563
580.433
583.742
586.498
588.71
590.391
591.553
592.212
592.383
592.083
591.332
590.147
588.547
586.552
584.181
581.455
578.392
575.013
571.335
567.376
563.155
558.687
553.988
549.073
543.957
538.652
533.17
527.523
521.722
515.777
509.696
503.49
497.166
490.733
484.197
477.567
470.85
464.053
457.182
450.245
443.248
436.198
429.1
421.961
414.787
407.583
400.355
393.108
385.846
378.575
371.299
364.021
356.744
349.472
342.207
334.951
327.707
320.475
313.257
306.054
298.867
291.695
284.539
277.398
270.274
263.164
256.071
248.992
241.93
234.884
227.856
220.851
213.87
206.923
200.019
193.172
186.403
179.742
173.23
166.92
160.885
155.215
150.015
145.401
141.482
138.336
135.989
134.397
133.441
132.951
132.726
132.57
132.312
131.823
131.02
129.86
128.334
126.461
124.276
121.828
119.167
116.346
113.417
110.426
107.414
104.419
101.472
98.5961
95.8138
93.1408
90.5866
88.1574
85.8595
83.6963
81.6686
79.7754
78.0139
76.3799
74.8682
73.4729
72.1876
71.0059
69.9227
68.9383
68.0743
67.4253
5.70743
3.71111
3.4667
3.62269
3.95157
4.391
4.92198
5.54188
6.25637
7.0764
8.01694
9.09598
10.3354
11.7596
13.3946
15.272
17.4296
19.8967
22.7084
25.9038
29.5218
33.6005
38.1731
43.2666
48.9101
55.1281
61.9397
69.3587
77.3927
86.0406
95.2953
105.147
115.583
126.582
138.122
150.178
162.721
175.717
189.129
202.919
217.049
231.477
246.164
261.065
276.138
291.338
306.618
321.933
337.23
352.467
367.59
382.538
397.157
411.444
425.385
438.97
452.185
465.009
477.423
489.403
500.927
511.974
522.523
532.557
542.059
551.015
559.411
567.239
574.489
581.156
587.234
592.722
597.62
601.93
605.657
608.809
611.393
613.422
614.906
615.859
616.298
616.237
615.696
614.694
613.249
611.383
609.116
606.469
603.462
600.117
596.454
592.493
588.254
583.754
579.013
574.045
568.868
563.496
557.942
552.22
546.34
540.313
534.149
527.857
521.446
514.922
508.293
501.566
494.747
487.841
480.855
473.795
466.665
459.472
452.22