/*--------------------------------*- C++ -*----------------------------------*\
  =========                 |
  \\      /  F ield         | OpenFOAM: The Open Source CFD Toolbox
   \\    /   O peration     | Website:  https://openfoam.org
    \\  /    A nd           | Version:  7
     \\/     M anipulation  |
\*---------------------------------------------------------------------------*/
FoamFile
{
    version     2.0;
    format      ascii;
    class       volScalarField;
    location    "750";
    object      k;
}
// * * * * * * * * * * * * * * * * * * * * * * * * * * * * * * * * * * * * * //

dimensions      [0 2 -2 0 0 0 0];

internalField   nonuniform List<scalar> 
16900
(
0.0131052
0.0292192
0.0449278
0.0592312
0.0720306
0.0833729
0.0933676
0.102119
0.109694
0.116117
0.121395
0.125561
0.128753
0.131295
0.133723
0.136568
0.137136
0.133425
0.143074
0.153481
0.164242
0.175315
0.186685
0.198343
0.210286
0.222511
0.235017
0.2478
0.260855
0.274177
0.287757
0.301589
0.315661
0.329964
0.344483
0.359206
0.374117
0.389203
0.404444
0.419825
0.435326
0.450929
0.466612
0.482356
0.498139
0.513938
0.529731
0.545493
0.561201
0.576829
0.592352
0.607745
0.622981
0.638034
0.652881
0.667495
0.681856
0.695943
0.709742
0.723244
0.736451
0.749379
0.762068
0.774598
0.786863
0.798684
0.810058
0.820975
0.831426
0.841399
0.850882
0.859865
0.868336
0.876285
0.8837
0.890574
0.896895
0.902655
0.907846
0.91246
0.916493
0.919938
0.922791
0.92505
0.926713
0.927778
0.928246
0.92812
0.927405
0.926105
0.924228
0.921782
0.918777
0.915226
0.911143
0.906545
0.901448
0.89587
0.889833
0.88336
0.876476
0.869203
0.861569
0.8536
0.845327
0.836779
0.827984
0.818972
0.809774
0.800426
0.790955
0.781387
0.771754
0.762093
0.752432
0.742791
0.733194
0.723679
0.71428
0.705004
0.695869
0.686902
0.678145
0.66961
0.661298
0.653221
0.645396
0.637886
0.630672
0.623762
0.617184
0.610972
0.605225
0.600485
0.597257
0.594613
0.592427
0.59071
0.589491
0.588802
0.588683
0.589175
0.590323
0.592179
0.594794
0.598224
0.602525
0.607755
0.613967
0.621209
0.629521
0.638924
0.649419
0.660974
0.673513
0.686907
0.700961
0.715405
0.729898
0.744031
0.757353
0.769396
0.779718
0.787934
0.793754
0.796992
0.797581
0.795559
0.791057
0.784274
0.775459
0.764886
0.752836
0.739585
0.725396
0.710505
0.695128
0.679449
0.663631
0.647809
0.632097
0.616586
0.601352
0.586454
0.571939
0.557841
0.544185
0.530988
0.518262
0.506011
0.494237
0.482938
0.47211
0.461753
0.45191
0.442559
0.433637
0.425092
0.416891
0.409057
0.026265
0.045643
0.0621864
0.0774867
0.0914249
0.104014
0.115399
0.125764
0.135279
0.144099
0.152396
0.160444
0.168758
0.178186
0.1896
0.202397
0.21637
0.233734
0.252031
0.270043
0.288628
0.307852
0.32768
0.348087
0.369065
0.390612
0.412724
0.4354
0.458636
0.482426
0.506763
0.531635
0.55703
0.582933
0.609327
0.636193
0.66351
0.691253
0.719399
0.747921
0.776789
0.805976
0.835449
0.865176
0.895124
0.925258
0.955542
0.985939
1.01641
1.04692
1.07742
1.10787
1.13823
1.16845
1.19849
1.22831
1.25785
1.28708
1.31595
1.34442
1.37247
1.40005
1.42715
1.45373
1.47948
1.50455
1.52895
1.55266
1.57565
1.59789
1.61937
1.64005
1.65991
1.67892
1.69706
1.7143
1.73061
1.74597
1.76037
1.77376
1.78614
1.79748
1.80777
1.81698
1.82511
1.83215
1.83807
1.84288
1.84657
1.84914
1.85059
1.85092
1.85015
1.84828
1.84533
1.84132
1.83628
1.83022
1.82318
1.8152
1.80631
1.79656
1.78598
1.77462
1.76253
1.74978
1.7364
1.72245
1.708
1.6931
1.67781
1.66219
1.64629
1.63018
1.61392
1.59757
1.58117
1.56478
1.54847
1.5323
1.51629
1.50048
1.48495
1.46976
1.45493
1.4405
1.42641
1.41288
1.39989
1.38746
1.37562
1.36442
1.3539
1.34418
1.33538
1.32745
1.32035
1.31412
1.30882
1.30451
1.30128
1.29918
1.29832
1.29879
1.3007
1.30416
1.30928
1.31617
1.32495
1.33568
1.34843
1.36319
1.37991
1.39843
1.41849
1.43972
1.46161
1.48349
1.5046
1.52408
1.54103
1.55459
1.56399
1.56861
1.56806
1.56215
1.55093
1.53465
1.5137
1.48861
1.45998
1.42842
1.39454
1.35891
1.32209
1.28453
1.24665
1.20881
1.1713
1.13437
1.0982
1.06295
1.02873
0.995645
0.96374
0.933059
0.903626
0.875449
0.848527
0.822851
0.798403
0.775164
0.753115
0.732246
0.712521
0.693829
0.676117
0.659347
0.64357
0.629554
0.0367977
0.0589303
0.0765195
0.0926625
0.107693
0.121695
0.134843
0.147392
0.159629
0.171855
0.1844
0.197657
0.212101
0.228209
0.246154
0.265494
0.286127
0.308281
0.331252
0.354651
0.378668
0.403394
0.428841
0.455008
0.481892
0.509493
0.537809
0.566838
0.596574
0.627009
0.658134
0.689934
0.722394
0.755494
0.789212
0.823523
0.8584
0.893813
0.929728
0.966111
1.00292
1.04013
1.07769
1.11556
1.15369
1.19205
1.23058
1.26925
1.308
1.34678
1.38554
1.42424
1.46282
1.50122
1.5394
1.57729
1.61484
1.652
1.68872
1.72494
1.76061
1.79571
1.83019
1.86379
1.89653
1.92843
1.95948
1.98964
2.01889
2.0472
2.07453
2.10085
2.12614
2.15036
2.17347
2.19545
2.21627
2.23589
2.2543
2.27145
2.28733
2.30191
2.31517
2.32709
2.33765
2.34683
2.35463
2.36104
2.36604
2.36964
2.37184
2.37264
2.37206
2.3701
2.36678
2.36214
2.35619
2.34897
2.34051
2.33086
2.32005
2.30815
2.29521
2.28127
2.26641
2.25068
2.23416
2.21691
2.19899
2.18049
2.16148
2.14203
2.1222
2.10207
2.08173
2.06125
2.04068
2.02006
1.99952
1.97912
1.9589
1.93885
1.91912
1.89979
1.88089
1.86244
1.84446
1.82704
1.81022
1.79403
1.77851
1.76371
1.74967
1.73646
1.72418
1.71286
1.7025
1.69315
1.68487
1.67774
1.67185
1.6673
1.6642
1.66268
1.66287
1.66491
1.66896
1.67516
1.68364
1.69451
1.70783
1.7236
1.74172
1.76199
1.78409
1.80751
1.8316
1.85555
1.87842
1.89917
1.91674
1.9301
1.93837
1.94087
1.93714
1.92702
1.91062
1.88825
1.86043
1.82781
1.79111
1.75107
1.70844
1.66389
1.61807
1.57154
1.52477
1.47819
1.43213
1.38687
1.34264
1.2996
1.2579
1.21762
1.17884
1.14158
1.10589
1.07175
1.03918
1.00815
0.978642
0.950636
0.924108
0.899046
0.875321
0.852882
0.831684
0.811707
0.793127
0.777401
0.045131
0.069795
0.0884941
0.105406
0.121386
0.13668
0.151507
0.166152
0.18094
0.196202
0.212264
0.229443
0.248034
0.268244
0.29008
0.313301
0.337751
0.363363
0.389852
0.417024
0.444919
0.473595
0.503082
0.53339
0.564526
0.596491
0.629287
0.662912
0.697361
0.732627
0.768699
0.805562
0.843199
0.88159
0.920708
0.960525
1.00101
1.04213
1.08384
1.12611
1.16889
1.21213
1.25579
1.29982
1.34417
1.38878
1.43361
1.47859
1.52368
1.56881
1.61393
1.65898
1.7039
1.74863
1.79311
1.83728
1.88106
1.9244
1.96723
2.00949
2.05111
2.09205
2.13223
2.1714
2.2096
2.24681
2.28301
2.31818
2.35228
2.38527
2.41713
2.4478
2.47727
2.50549
2.53242
2.55804
2.58232
2.60521
2.62669
2.64673
2.6653
2.68238
2.69794
2.71196
2.72442
2.7353
2.7446
2.7523
2.75839
2.76288
2.76576
2.76704
2.76673
2.76484
2.7614
2.75643
2.74996
2.74202
2.73266
2.72192
2.70985
2.69651
2.68195
2.66624
2.64944
2.63164
2.6129
2.59329
2.5729
2.5518
2.53009
2.50785
2.48514
2.46204
2.43867
2.4151
2.39139
2.36754
2.34378
2.32015
2.29668
2.27342
2.25045
2.22785
2.20566
2.18393
2.16269
2.14201
2.12192
2.10247
2.0837
2.06565
2.04838
2.03194
2.0164
2.00182
1.98823
1.97568
1.96424
1.954
1.94505
1.93752
1.93152
1.92721
1.92475
1.9243
1.92605
1.93017
1.93683
1.94615
1.95822
1.97305
1.99055
2.01051
2.03254
2.05609
2.08044
2.10467
2.12773
2.14846
2.16568
2.17828
2.18527
2.18592
2.17975
2.16661
2.14661
2.12015
2.08781
2.05031
2.00845
1.96306
1.91495
1.86488
1.81353
1.76152
1.70937
1.65753
1.60636
1.55617
1.50718
1.45958
1.41352
1.36908
1.32633
1.28532
1.24607
1.20858
1.17284
1.13883
1.10653
1.07592
1.04697
1.0196
0.993706
0.969256
0.946206
0.924562
0.904628
0.888346
0.0520196
0.0787029
0.098494
0.116161
0.132985
0.149404
0.165688
0.182133
0.199055
0.216759
0.235518
0.255557
0.277046
0.300067
0.324585
0.350451
0.377527
0.405714
0.434863
0.464862
0.49571
0.527438
0.56007
0.593622
0.628105
0.663524
0.699883
0.737184
0.775424
0.814597
0.854693
0.8957
0.9376
0.980371
1.02399
1.06842
1.11363
1.15959
1.20624
1.25355
1.30147
1.34994
1.39891
1.44832
1.49812
1.54824
1.59863
1.64922
1.69995
1.75076
1.80158
1.85234
1.90298
1.95343
2.00362
2.05348
2.10292
2.15189
2.20029
2.24806
2.29512
2.34141
2.38672
2.43095
2.47408
2.51609
2.55696
2.59664
2.63511
2.67232
2.70824
2.74282
2.77604
2.80784
2.8382
2.86708
2.89445
2.92028
2.94453
2.96716
2.98817
3.0075
3.02516
3.0411
3.05532
3.06779
3.0785
3.08745
3.09462
3.10002
3.10364
3.10549
3.10559
3.10394
3.10056
3.09549
3.08876
3.08041
3.07046
3.05897
3.046
3.0316
3.01585
2.99879
2.9805
2.96106
2.94057
2.91909
2.89669
2.87346
2.84954
2.82498
2.79986
2.77421
2.74827
2.72207
2.69567
2.66913
2.64259
2.6161
2.58973
2.56355
2.53761
2.51198
2.48673
2.4619
2.43753
2.41368
2.39039
2.3677
2.34565
2.3243
2.30367
2.28384
2.26487
2.2468
2.22968
2.21358
2.19856
2.18472
2.17216
2.16101
2.15142
2.14353
2.13754
2.13365
2.13205
2.13297
2.13659
2.1431
2.15262
2.16519
2.18076
2.19911
2.21987
2.24248
2.26614
2.2899
2.3126
2.33299
2.34978
2.36174
2.36782
2.3672
2.35937
2.34415
2.32169
2.2924
2.25692
2.21602
2.17057
2.12146
2.06954
2.01563
1.96046
1.90468
1.84883
1.79339
1.73875
1.68522
1.63303
1.58239
1.53343
1.48625
1.44092
1.39748
1.35595
1.31633
1.27861
1.24276
1.20876
1.17658
1.14617
1.1174
1.09023
1.06461
1.04051
1.01794
0.997342
0.980967
0.057767
0.0859701
0.106744
0.125121
0.142687
0.160042
0.177518
0.195409
0.214008
0.233577
0.254335
0.276443
0.299997
0.325028
0.351494
0.379292
0.40832
0.43849
0.469711
0.501915
0.53509
0.56925
0.604415
0.640601
0.677824
0.716092
0.755413
0.795792
0.83723
0.879724
0.923268
0.967849
1.01345
1.06006
1.10764
1.15617
1.2056
1.2559
1.30703
1.35892
1.41154
1.46481
1.51868
1.57309
1.62797
1.68325
1.73886
1.79473
1.85079
1.90697
1.9632
2.01939
2.07549
2.1314
2.18704
2.24235
2.29722
2.35158
2.40532
2.45837
2.51063
2.56202
2.61225
2.66128
2.70909
2.75566
2.80094
2.8449
2.88749
2.92867
2.96841
3.00667
3.04339
3.07855
3.11212
3.14405
3.17431
3.20287
3.2297
3.25476
3.27804
3.29949
3.31911
3.33687
3.35276
3.36675
3.37883
3.389
3.39725
3.40357
3.40798
3.41047
3.41105
3.40975
3.40658
3.40157
3.39475
3.38616
3.37584
3.36384
3.3502
3.33501
3.31831
3.30019
3.28068
3.2599
3.23795
3.21489
3.19077
3.16569
3.13984
3.11327
3.08605
3.05825
3.03003
3.00146
2.97262
2.94357
2.91443
2.88526
2.85614
2.82713
2.7983
2.76972
2.74144
2.71351
2.68599
2.65891
2.63234
2.6063
2.58084
2.55599
2.53182
2.50836
2.48567
2.46381
2.44283
2.42279
2.40377
2.38585
2.36915
2.35381
2.33997
2.32781
2.31753
2.30936
2.30353
2.30029
2.29989
2.30256
2.30847
2.31774
2.33036
2.34617
2.36485
2.38582
2.40831
2.43129
2.45354
2.47371
2.49039
2.50223
2.50805
2.50695
2.49836
2.48206
2.45818
2.42716
2.38968
2.34655
2.29869
2.24703
2.19249
2.13591
2.07806
2.01963
1.96119
1.90324
1.84617
1.7903
1.7359
1.68316
1.63222
1.58319
1.53613
1.49109
1.44807
1.40708
1.3681
1.33111
1.29608
1.26297
1.23165
1.20206
1.17416
1.14789
1.12322
1.1002
1.07934
1.06311
0.0625447
0.091832
0.113423
0.132424
0.150616
0.168723
0.187129
0.206132
0.225996
0.246947
0.269161
0.292755
0.31779
0.344276
0.372173
0.401413
0.431918
0.463624
0.496469
0.530411
0.565438
0.601559
0.63879
0.67715
0.716656
0.757321
0.799158
0.842177
0.886382
0.931776
0.978354
1.02611
1.07503
1.12509
1.17628
1.22855
1.28187
1.3362
1.39149
1.44769
1.50473
1.56255
1.62108
1.68026
1.74
1.80023
1.86087
1.92185
1.98307
2.04446
2.10594
2.16742
2.22881
2.29004
2.35101
2.41162
2.47178
2.53139
2.59034
2.64853
2.70584
2.76212
2.81709
2.87076
2.92307
2.97401
3.02351
3.07155
3.11807
3.16304
3.2064
3.24812
3.28816
3.32649
3.36305
3.39784
3.4308
3.46191
3.49114
3.51846
3.54385
3.56728
3.58872
3.60818
3.62562
3.64104
3.65441
3.66575
3.67503
3.68226
3.68744
3.69059
3.69171
3.69081
3.68791
3.68305
3.67625
3.66756
3.65701
3.64464
3.63051
3.6147
3.59726
3.57827
3.55774
3.53583
3.51263
3.48822
3.46266
3.43605
3.40853
3.38017
3.35106
3.3213
3.29098
3.26021
3.22907
3.19763
3.166
3.13424
3.10243
3.07065
3.03896
3.00743
2.9761
2.94504
2.9143
2.88393
2.85396
2.82444
2.79541
2.76691
2.73898
2.71167
2.68503
2.65911
2.63397
2.60966
2.58626
2.56388
2.5426
2.52259
2.50398
2.48698
2.47179
2.45867
2.44788
2.43971
2.43447
2.43245
2.4339
2.43901
2.44788
2.46043
2.4764
2.49529
2.51633
2.53846
2.56041
2.58072
2.59783
2.61024
2.61664
2.61598
2.6076
2.59123
2.56697
2.53527
2.49681
2.45247
2.4032
2.34997
2.29375
2.23542
2.17579
2.11557
2.05537
1.99569
1.93696
1.8795
1.8236
1.76944
1.71718
1.66692
1.61874
1.57266
1.52871
1.48688
1.44716
1.40952
1.37392
1.34026
1.30846
1.27846
1.2502
1.22364
1.19874
1.17557
1.15471
1.13876
0.0664761
0.096482
0.118705
0.138214
0.156906
0.17559
0.194691
0.214512
0.235295
0.257237
0.280482
0.305124
0.331205
0.358728
0.387664
0.417966
0.44958
0.48246
0.516566
0.551873
0.588373
0.626075
0.664998
0.705162
0.746586
0.789292
0.833295
0.878611
0.925251
0.973221
1.02252
1.07315
1.1251
1.17834
1.23287
1.28863
1.34561
1.40375
1.46299
1.52329
1.58457
1.64677
1.70981
1.7736
1.83806
1.90312
1.96867
2.03462
2.10089
2.16738
2.234
2.30065
2.36724
2.43368
2.49985
2.56565
2.63098
2.69571
2.75974
2.82292
2.88516
2.94609
3.00562
3.06373
3.12035
3.17545
3.22898
3.28089
3.33114
3.37967
3.42644
3.47141
3.51454
3.55579
3.59514
3.63256
3.668
3.70145
3.73287
3.76224
3.78954
3.81474
3.83784
3.85883
3.87768
3.89438
3.90892
3.92131
3.93153
3.9396
3.94551
3.94928
3.9509
3.95041
3.94781
3.94314
3.93642
3.92769
3.91701
3.90438
3.88986
3.87357
3.85554
3.83585
3.81454
3.79173
3.76751
3.74195
3.71515
3.68719
3.65818
3.62822
3.5974
3.56581
3.53354
3.5007
3.46738
3.43365
3.39961
3.36533
3.3309
3.29638
3.26185
3.22737
3.19299
3.15877
3.12477
3.09103
3.05759
3.02449
2.99178
2.95949
2.92765
2.89633
2.86555
2.83537
2.80585
2.77703
2.74901
2.72186
2.6957
2.67067
2.64692
2.62466
2.6041
2.58553
2.56923
2.55555
2.54483
2.53745
2.53374
2.53402
2.53847
2.54717
2.55995
2.57642
2.59584
2.61718
2.63909
2.66
2.67819
2.69198
2.69986
2.70063
2.69348
2.67807
2.65444
2.62305
2.58459
2.53995
2.49015
2.4362
2.37911
2.3198
2.25912
2.19782
2.13652
2.07576
2.01597
1.95751
1.90065
1.8456
1.79252
1.74152
1.69267
1.646
1.60154
1.55927
1.51919
1.48125
1.4454
1.41151
1.37953
1.34941
1.32108
1.29449
1.2696
1.2465
1.22584
1.21023
0.0696634
0.100088
0.122759
0.142649
0.161712
0.180809
0.2004
0.220787
0.242201
0.264818
0.288761
0.314108
0.340895
0.369128
0.398789
0.429846
0.462266
0.496019
0.531084
0.567446
0.605108
0.644082
0.68439
0.726055
0.769103
0.813561
0.859451
0.906794
0.955607
1.0059
1.05769
1.11096
1.16572
1.22194
1.27961
1.33869
1.39915
1.46093
1.52399
1.58825
1.65365
1.7201
1.78752
1.85582
1.92491
1.99469
2.06506
2.1359
2.20712
2.27862
2.35028
2.422
2.49367
2.56518
2.63643
2.70729
2.77764
2.84734
2.91626
2.98426
3.05113
3.11652
3.1804
3.24271
3.30341
3.36243
3.41973
3.47526
3.52897
3.5808
3.63072
3.67866
3.72461
3.76853
3.81039
3.85016
3.88782
3.92334
3.95669
3.98785
4.01681
4.04355
4.06807
4.09036
4.11042
4.12821
4.14375
4.15703
4.16805
4.17683
4.18337
4.18767
4.18973
4.1896
4.18727
4.18277
4.17615
4.16743
4.15666
4.14388
4.12912
4.11248
4.09402
4.07378
4.05185
4.0283
4.00322
3.97669
3.94881
3.91965
3.88932
3.85791
3.82552
3.79224
3.75816
3.72337
3.68798
3.65206
3.6157
3.57899
3.54199
3.50479
3.46746
3.43005
3.39264
3.35526
3.31799
3.28086
3.24391
3.20719
3.17073
3.13458
3.09876
3.06333
3.02831
2.99377
2.95974
2.92629
2.89348
2.86141
2.83018
2.79993
2.77082
2.74305
2.71684
2.6925
2.67033
2.65072
2.63407
2.62083
2.61144
2.60633
2.60584
2.61019
2.61937
2.63313
2.65083
2.67146
2.69363
2.71565
2.73561
2.75162
2.76193
2.76513
2.76024
2.7468
2.7248
2.69466
2.65709
2.61301
2.56348
2.50956
2.45231
2.39269
2.3316
2.2698
2.20796
2.14664
2.0863
2.0273
1.96994
1.91443
1.86093
1.80957
1.76041
1.71351
1.66886
1.62647
1.58632
1.54837
1.51249
1.47862
1.44671
1.41669
1.3885
1.36207
1.33738
1.31452
1.29417
1.27897
0.0721958
0.102798
0.12575
0.145891
0.165198
0.184561
0.204459
0.225202
0.24701
0.270044
0.294415
0.320195
0.347418
0.376096
0.406222
0.43778
0.470753
0.505129
0.540898
0.578062
0.616629
0.65662
0.698062
0.740984
0.78542
0.831401
0.878959
0.92812
0.978909
1.03134
1.08543
1.14118
1.19859
1.25765
1.31833
1.3806
1.44443
1.50975
1.57652
1.64465
1.71407
1.7847
1.85643
1.92916
2.0028
2.07722
2.15232
2.22797
2.30405
2.38044
2.45703
2.53369
2.6103
2.68675
2.76291
2.83864
2.91381
2.98827
3.06188
3.13446
3.20559
3.27516
3.34308
3.4093
3.47376
3.5364
3.59717
3.65601
3.71286
3.76767
3.8204
3.87099
3.91943
3.96567
4.00971
4.05151
4.09106
4.12833
4.1633
4.19594
4.22626
4.25425
4.27991
4.30324
4.32425
4.3429
4.3592
4.37316
4.3848
4.39412
4.40114
4.40583
4.40824
4.40838
4.40628
4.40194
4.39541
4.38674
4.37594
4.36306
4.34815
4.33127
4.31247
4.29182
4.26937
4.24522
4.21942
4.19207
4.16324
4.13304
4.10153
4.06882
4.035
4.00016
3.9644
3.9278
3.89046
3.85246
3.81389
3.77483
3.73537
3.69557
3.6555
3.61524
3.57483
3.53435
3.49383
3.45333
3.4129
3.37257
3.33237
3.29236
3.25255
3.21299
3.17373
3.13479
3.09623
3.05811
3.0205
2.98346
2.94712
2.91159
2.87703
2.84365
2.81168
2.78141
2.7532
2.72743
2.70458
2.68516
2.66972
2.65881
2.65295
2.65253
2.65776
2.66854
2.6844
2.70439
2.72711
2.75073
2.77315
2.79222
2.80589
2.81251
2.81089
2.80042
2.781
2.75301
2.71717
2.67445
2.62592
2.57271
2.51593
2.45658
2.39561
2.33383
2.27193
2.21051
2.15003
2.09089
2.0334
1.97778
1.9242
1.8728
1.82364
1.77677
1.73221
1.68996
1.64998
1.61219
1.57649
1.54285
1.5112
1.48146
1.45357
1.42746
1.4031
1.3806
1.36066
1.34588
0.0741546
0.104746
0.12783
0.1481
0.167531
0.187026
0.207077
0.227997
0.250001
0.273241
0.297823
0.323814
0.351253
0.380158
0.410535
0.442384
0.475701
0.51049
0.546756
0.584512
0.623778
0.664584
0.706963
0.750954
0.796597
0.843933
0.892999
0.943831
0.996458
1.0509
1.10719
1.16531
1.22528
1.28708
1.3507
1.41609
1.48322
1.55203
1.62245
1.6944
1.7678
1.84254
1.91852
1.99563
2.07374
2.15274
2.23249
2.31285
2.39368
2.47485
2.55623
2.63767
2.71905
2.80023
2.88107
2.96143
3.04116
3.1201
3.19807
3.27478
3.34986
3.42323
3.49483
3.56459
3.63244
3.69831
3.76215
3.82391
3.88352
3.94093
3.99607
4.04892
4.09944
4.14762
4.19344
4.23689
4.27795
4.31662
4.35283
4.38659
4.41792
4.44681
4.47328
4.49735
4.51902
4.53824
4.55504
4.56944
4.58147
4.59113
4.59843
4.60339
4.60602
4.60635
4.6044
4.60019
4.59374
4.5851
4.57429
4.56136
4.54633
4.52927
4.51022
4.48924
4.46639
4.44174
4.41535
4.3873
4.35768
4.32655
4.29401
4.26015
4.22505
4.1888
4.15149
4.11321
4.07406
4.03411
3.99346
3.95219
3.91037
3.86807
3.82538
3.78235
3.73906
3.69554
3.65187
3.60809
3.56424
3.52036
3.4765
3.43268
3.38895
3.34533
3.30187
3.25861
3.2156
3.17288
3.13051
3.08858
3.04719
3.00644
2.96651
2.92757
2.88987
2.85371
2.81942
2.78745
2.7583
2.73255
2.71084
2.69387
2.68232
2.6768
2.67774
2.68529
2.69916
2.71852
2.742
2.76766
2.79319
2.8161
2.83405
2.84506
2.84769
2.84114
2.82521
2.80023
2.76693
2.72629
2.67943
2.62755
2.5718
2.51325
2.45289
2.39157
2.33002
2.26887
2.20862
2.14968
2.09237
2.03694
1.98357
1.93238
1.88347
1.83688
1.79263
1.75071
1.71108
1.67362
1.63829
1.60504
1.57379
1.54448
1.51702
1.49134
1.46741
1.44536
1.42589
1.41155
0.0756138
0.106051
0.129141
0.14943
0.168875
0.188382
0.208452
0.229399
0.251436
0.27471
0.299324
0.325346
0.352821
0.381776
0.41223
0.444196
0.477688
0.512723
0.54932
0.587506
0.627315
0.668786
0.711961
0.75689
0.80362
0.852202
0.902681
0.9551
1.0095
1.0659
1.12432
1.18478
1.24728
1.31181
1.37834
1.44685
1.51727
1.58956
1.66363
1.73938
1.81673
1.89556
1.97575
2.05718
2.13972
2.22321
2.30752
2.39248
2.47794
2.56373
2.64971
2.73573
2.82163
2.90727
2.99251
3.07717
3.16111
3.24415
3.32607
3.40638
3.48495
3.56169
3.63651
3.70934
3.78011
3.84875
3.9152
3.97941
4.04134
4.10087
4.15797
4.21261
4.26476
4.31443
4.36158
4.40622
4.44837
4.48802
4.52506
4.55954
4.59148
4.6209
4.64782
4.67226
4.69422
4.71371
4.73073
4.74533
4.75751
4.76731
4.77473
4.77979
4.78251
4.78291
4.78102
4.77685
4.77044
4.7618
4.75098
4.73799
4.72287
4.70568
4.68644
4.6652
4.64203
4.61698
4.59012
4.56149
4.5312
4.49929
4.46586
4.43099
4.39476
4.35725
4.31855
4.27876
4.23795
4.19621
4.15362
4.11027
4.06624
4.0216
3.97642
3.93076
3.88471
3.8383
3.7916
3.74465
3.69751
3.65022
3.6028
3.55531
3.50778
3.46024
3.41272
3.36528
3.31795
3.27078
3.22383
3.17717
3.1309
3.08512
3.03998
2.99567
2.95242
2.91051
2.87031
2.83225
2.79687
2.7648
2.73678
2.71361
2.69617
2.68527
2.68163
2.68566
2.69734
2.71603
2.74041
2.76845
2.79763
2.82513
2.84821
2.86453
2.87235
2.87064
2.85908
2.83793
2.8079
2.77002
2.72546
2.67547
2.62126
2.56398
2.50465
2.44418
2.38335
2.32281
2.2631
2.20465
2.1478
2.09281
2.03988
1.98914
1.94069
1.89458
1.85082
1.80941
1.77024
1.73327
1.69846
1.66573
1.63501
1.60623
1.57929
1.55413
1.53072
1.50918
1.49021
1.47631
0.0766421
0.106818
0.12981
0.15002
0.169381
0.188797
0.208771
0.22962
0.251555
0.274722
0.299223
0.325131
0.352498
0.381362
0.411754
0.443703
0.477239
0.512394
0.549204
0.58771
0.627958
0.670001
0.713893
0.759691
0.807456
0.857245
0.909114
0.963113
1.01928
1.07766
1.13825
1.20109
1.26616
1.33346
1.40296
1.47463
1.54841
1.62422
1.70197
1.78156
1.86286
1.94577
2.03015
2.11586
2.20274
2.29063
2.37939
2.46882
2.55873
2.64894
2.73927
2.82958
2.9197
3.00945
3.09869
3.18723
3.27492
3.36156
3.44674
3.53015
3.61167
3.69123
3.76873
3.84408
3.91722
3.98808
4.05658
4.12269
4.18641
4.24754
4.30606
4.36196
4.41523
4.46587
4.51386
4.55921
4.60193
4.64201
4.67943
4.71421
4.74637
4.77594
4.80294
4.8274
4.84935
4.86879
4.88575
4.90027
4.91237
4.92207
4.9294
4.93438
4.93702
4.93736
4.93541
4.9312
4.92474
4.91606
4.90518
4.89213
4.87694
4.85963
4.84025
4.81883
4.79542
4.77007
4.74283
4.71375
4.68291
4.65037
4.6162
4.58047
4.54327
4.50467
4.46475
4.42361
4.38131
4.33795
4.29361
4.24836
4.20229
4.15547
4.10798
4.05987
4.01122
3.96209
3.91253
3.86259
3.81233
3.76179
3.71101
3.66002
3.60887
3.55759
3.50622
3.4548
3.40337
3.35197
3.30067
3.24952
3.19863
3.14808
3.09802
3.04862
3.00011
2.95275
2.90691
2.86302
2.82163
2.78342
2.74918
2.71983
2.69641
2.67996
2.67148
2.67171
2.68095
2.69881
2.7241
2.75478
2.78806
2.82079
2.84979
2.87229
2.88619
2.89021
2.88384
2.86729
2.84124
2.80676
2.76507
2.71749
2.6653
2.6097
2.55178
2.49252
2.43273
2.37309
2.31419
2.25649
2.20033
2.14601
2.09373
2.04363
1.99582
1.95035
1.90725
1.86645
1.82789
1.79154
1.75735
1.72525
1.69517
1.667
1.64067
1.61609
1.59324
1.57225
1.55381
1.54034
0.0773023
0.107142
0.129951
0.149999
0.169192
0.188426
0.208209
0.228857
0.25058
0.273526
0.297799
0.323479
0.350625
0.37929
0.409519
0.441357
0.47485
0.510047
0.547001
0.585771
0.626418
0.669008
0.713608
0.760285
0.809111
0.860152
0.913474
0.969134
1.02718
1.08764
1.15053
1.21586
1.28363
1.35383
1.42643
1.50138
1.57862
1.65806
1.73958
1.82305
1.90835
1.99535
2.08389
2.17381
2.26494
2.35711
2.45015
2.54388
2.638
2.73233
2.8267
2.92092
3.01483
3.10823
3.20096
3.29282
3.38364
3.47311
3.56094
3.64679
3.73063
3.81235
3.89188
3.96912
4.04398
4.11641
4.18633
4.2537
4.31847
4.38055
4.4399
4.49649
4.55033
4.60141
4.64971
4.69526
4.73807
4.77814
4.81548
4.85012
4.88207
4.91138
4.93808
4.9622
4.98379
5.00287
5.01946
5.03362
5.04537
5.05474
5.06176
5.06646
5.06886
5.06898
5.06685
5.06248
5.05589
5.0471
5.03613
5.023
5.00773
4.99034
4.97085
4.94931
4.92574
4.90018
4.87267
4.84326
4.81202
4.77898
4.74423
4.70781
4.66981
4.6303
4.58935
4.54704
4.50346
4.45868
4.41277
4.36583
4.31792
4.26913
4.21952
4.16917
4.11813
4.06648
4.01427
3.96155
3.90839
3.85481
3.80088
3.74662
3.69209
3.63731
3.58233
3.52719
3.47192
3.41658
3.36122
3.3059
3.2507
3.19573
3.14111
3.08699
3.03359
2.98117
2.93008
2.88074
2.83371
2.78966
2.74945
2.71408
2.68473
2.66265
2.64914
2.64529
2.65178
2.66857
2.69468
2.72808
2.76581
2.80431
2.83994
2.86942
2.89024
2.9008
2.90043
2.8892
2.86781
2.83733
2.79906
2.75436
2.70461
2.65109
2.59494
2.53719
2.47872
2.42026
2.36241
2.30567
2.25042
2.19696
2.1455
2.09621
2.0492
2.00452
1.96218
1.9221
1.88427
1.84865
1.81519
1.7838
1.75441
1.72693
1.70125
1.6773
1.65505
1.63462
1.61671
1.60366
0.0776527
0.107104
0.129666
0.149482
0.168434
0.187412
0.206925
0.227287
0.248712
0.271348
0.295307
0.320673
0.347521
0.375916
0.405919
0.437595
0.471007
0.506224
0.543318
0.582364
0.623443
0.666638
0.712027
0.759688
0.8097
0.862143
0.917088
0.974599
1.03473
1.0975
1.16291
1.23097
1.30168
1.375
1.4509
1.52932
1.6102
1.69345
1.77885
1.86629
1.95562
2.0467
2.13935
2.23339
2.32863
2.42488
2.52197
2.61975
2.71773
2.81578
2.91373
3.01137
3.10851
3.20495
3.3005
3.39496
3.48803
3.57941
3.66897
3.7565
3.8419
3.92505
4.00587
4.08426
4.16014
4.23343
4.30408
4.37202
4.43722
4.49961
4.55915
4.61583
4.66963
4.72056
4.76862
4.81384
4.85622
4.8958
4.93258
4.96661
4.99792
5.02656
5.05256
5.07598
5.09686
5.11524
5.13116
5.14466
5.15579
5.16459
5.17109
5.17531
5.17728
5.17704
5.17459
5.16996
5.16316
5.1542
5.1431
5.12987
5.11452
5.09707
5.07753
5.05592
5.03227
5.0066
4.97895
4.94934
4.91783
4.88447
4.84929
4.81237
4.77376
4.73353
4.69175
4.64849
4.60383
4.55784
4.5106
4.46218
4.41267
4.36213
4.31064
4.25828
4.20509
4.15116
4.09654
4.04129
3.98547
3.92912
3.87229
3.81503
3.75739
3.69939
3.64109
3.58252
3.52374
3.46478
3.4057
3.34656
3.28744
3.22843
3.16965
3.11125
3.05341
2.9964
2.94053
2.88622
2.834
2.78456
2.73875
2.69766
2.66255
2.63489
2.61623
2.60805
2.61146
2.62684
2.65355
2.68964
2.732
2.7767
2.81955
2.85673
2.88525
2.90315
2.90951
2.90432
2.88822
2.86232
2.82797
2.78662
2.73972
2.68862
2.63455
2.57861
2.52172
2.46467
2.40809
2.35251
2.29835
2.24591
2.19544
2.1471
2.10102
2.05725
2.01574
1.9765
1.9395
1.9047
1.87203
1.84143
1.81279
1.78603
1.76104
1.73774
1.71609
1.69622
1.67883
1.66618
0.077747
0.10678
0.129042
0.14857
0.167221
0.185883
0.205061
0.225074
0.246135
0.268398
0.291981
0.316983
0.34349
0.371585
0.401349
0.432866
0.466223
0.501508
0.538812
0.578235
0.619879
0.663845
0.710223
0.759095
0.810552
0.86468
0.921557
0.981255
1.04383
1.10929
1.17758
1.24873
1.32271
1.39947
1.47897
1.56112
1.64587
1.73316
1.82258
1.91405
2.00743
2.10255
2.1992
2.29719
2.39631
2.49633
2.59704
2.69822
2.79953
2.90075
3.00166
3.10203
3.20166
3.30034
3.39784
3.4939
3.5882
3.68066
3.77116
3.85953
3.94564
4.02939
4.11068
4.18941
4.2655
4.33888
4.40948
4.47727
4.54218
4.60419
4.66325
4.71935
4.77248
4.82266
4.8699
4.91422
4.95565
4.99422
5.02996
5.06293
5.09315
5.12069
5.1456
5.16795
5.18777
5.20513
5.22007
5.23264
5.2429
5.25089
5.25665
5.26021
5.26159
5.26083
5.25794
5.25295
5.24586
5.23669
5.22543
5.21209
5.19668
5.17921
5.15966
5.13807
5.11443
5.08876
5.06109
5.03143
4.99981
4.96628
4.93087
4.89363
4.85462
4.81389
4.7715
4.72751
4.68201
4.63505
4.58672
4.53708
4.48621
4.43419
4.38108
4.32696
4.27189
4.21595
4.1592
4.10169
4.04349
3.98465
3.92523
3.86526
3.80481
3.74391
3.68261
3.62095
3.55899
3.49677
3.43435
3.37178
3.30915
3.24653
3.18404
3.12183
3.06006
2.99897
2.93885
2.88011
2.82325
2.76894
2.71804
2.67164
2.63109
2.598
2.57418
2.56148
2.56147
2.57506
2.602
2.64058
2.68761
2.73878
2.78934
2.83486
2.8718
2.89777
2.91159
2.9131
2.90291
2.88214
2.8522
2.81462
2.77094
2.72261
2.67093
2.61705
2.56198
2.50655
2.45143
2.3972
2.34428
2.29302
2.24367
2.19641
2.15136
2.10857
2.06801
2.02968
1.99359
1.95967
1.92786
1.89809
1.87024
1.84422
1.81993
1.79728
1.77624
1.75692
1.74001
1.72773
0.0776357
0.106234
0.128159
0.147353
0.165656
0.183953
0.202749
0.222365
0.243018
0.26487
0.288051
0.312673
0.338842
0.36666
0.39623
0.427663
0.461074
0.49657
0.534267
0.574289
0.616763
0.661819
0.709555
0.760041
0.81338
0.869664
0.928971
0.991369
1.05695
1.12565
1.19736
1.27209
1.34981
1.43045
1.51391
1.6001
1.68891
1.78018
1.87365
1.96916
2.0665
2.1655
2.26592
2.36754
2.47012
2.57344
2.67723
2.78125
2.8852
2.98881
3.09184
3.19404
3.29521
3.39509
3.4934
3.58986
3.68444
3.77703
3.86753
3.95579
4.04168
4.1251
4.20594
4.28412
4.35956
4.43218
4.50192
4.56875
4.63263
4.69351
4.75137
4.80621
4.85803
4.90683
4.95264
4.9955
5.03543
5.07248
5.1067
5.13814
5.16684
5.19288
5.21632
5.23723
5.25567
5.27169
5.28537
5.29676
5.30591
5.31287
5.3177
5.32042
5.32107
5.31967
5.31625
5.31082
5.30339
5.29396
5.28253
5.2691
5.25366
5.2362
5.21673
5.19524
5.17172
5.14619
5.11863
5.08907
5.05753
5.02402
4.98858
4.95124
4.91204
4.87104
4.82828
4.78382
4.73773
4.69007
4.64091
4.59032
4.53838
4.48515
4.43071
4.37512
4.31847
4.26082
4.20223
4.14277
4.0825
4.02149
3.95978
3.89744
3.83451
3.77104
3.7071
3.64272
3.57795
3.51285
3.44748
3.3819
3.31618
3.25041
3.18469
3.11916
3.05397
2.98934
2.92556
2.86297
2.80208
2.7435
2.68808
2.6369
2.59133
2.55311
2.52423
2.50689
2.50316
2.51449
2.54121
2.58193
2.63349
2.69125
2.74988
2.80428
2.85026
2.88498
2.90695
2.91581
2.91213
2.89702
2.87197
2.83859
2.7985
2.75325
2.70422
2.65267
2.59963
2.54601
2.49254
2.4398
2.38828
2.33832
2.29021
2.24413
2.20022
2.15847
2.11893
2.08161
2.04648
2.01349
1.98258
1.95366
1.92662
1.90135
1.87776
1.85575
1.83528
1.81649
1.80002
1.78807
0.0773664
0.105523
0.127082
0.145907
0.163826
0.181722
0.200103
0.219295
0.239522
0.260958
0.283748
0.308024
0.333917
0.361554
0.391061
0.422586
0.456285
0.492281
0.530712
0.571734
0.615505
0.662201
0.711921
0.764675
0.820596
0.879771
0.942261
1.00811
1.07733
1.14987
1.22563
1.30455
1.38655
1.47151
1.55932
1.64982
1.74286
1.83825
1.93575
2.03515
2.13623
2.23876
2.34251
2.44722
2.55266
2.65855
2.76464
2.87064
2.97627
3.08124
3.18529
3.28815
3.3896
3.48928
3.58703
3.68282
3.77659
3.86825
3.95769
4.04479
4.12942
4.2115
4.29091
4.36758
4.44143
4.5124
4.58042
4.64547
4.7075
4.7665
4.82244
4.87532
4.92514
4.97194
5.01573
5.05655
5.09446
5.12949
5.16171
5.19117
5.21795
5.2421
5.26372
5.28286
5.2996
5.31402
5.32619
5.33615
5.34399
5.34975
5.35349
5.35524
5.35504
5.35291
5.34889
5.34297
5.33517
5.32547
5.31388
5.30039
5.28498
5.26762
5.24832
5.22704
5.20377
5.17851
5.15124
5.12197
5.09069
5.05741
5.02216
4.98495
4.94581
4.90479
4.86192
4.81726
4.77087
4.72279
4.67309
4.62185
4.56913
4.515
4.45953
4.4028
4.34488
4.28584
4.22574
4.16466
4.10266
4.03981
3.97617
3.91179
3.84675
3.78108
3.71486
3.64813
3.58095
3.51338
3.44548
3.37732
3.30896
3.2405
3.17203
3.10368
3.0356
2.968
2.90112
2.83531
2.771
2.7088
2.6495
2.59414
2.5441
2.50114
2.46744
2.44546
2.43774
2.44636
2.47228
2.51464
2.57041
2.63471
2.70161
2.76529
2.82089
2.86499
2.89575
2.91259
2.91599
2.90708
2.88739
2.85861
2.82248
2.78061
2.73452
2.68551
2.63472
2.5831
2.53142
2.48033
2.43033
2.3818
2.33502
2.29022
2.24749
2.20687
2.16842
2.13215
2.09803
2.06601
2.03602
2.00796
1.98172
1.9572
1.93429
1.91289
1.89296
1.87464
1.85857
1.84691
0.0769854
0.104699
0.125872
0.1443
0.161807
0.179279
0.197231
0.215994
0.235808
0.256864
0.279331
0.303366
0.329134
0.3568