/*--------------------------------*- C++ -*----------------------------------*\
  =========                 |
  \\      /  F ield         | OpenFOAM: The Open Source CFD Toolbox
   \\    /   O peration     | Website:  https://openfoam.org
    \\  /    A nd           | Version:  7
     \\/     M anipulation  |
\*---------------------------------------------------------------------------*/
FoamFile
{
    version     2.0;
    format      ascii;
    class       volScalarField;
    location    "750";
    object      nut;
}
// * * * * * * * * * * * * * * * * * * * * * * * * * * * * * * * * * * * * * //

dimensions      [0 2 -1 0 0 0 0];

internalField   nonuniform List<scalar> 
16900
(
1.5888e-05
4.36775e-05
6.71713e-05
8.85752e-05
0.000107739
0.000124736
0.00013972
0.000152843
0.000164203
0.000173869
0.000181959
0.000188766
0.000194972
0.000201762
0.000210517
0.000213619
0.000211518
4.74025e-05
4.89448e-05
5.06924e-05
5.24411e-05
5.4181e-05
5.59114e-05
5.76314e-05
5.93422e-05
6.10436e-05
6.27364e-05
6.44207e-05
6.60967e-05
6.77643e-05
6.94231e-05
7.10729e-05
7.27129e-05
7.43427e-05
7.59615e-05
7.75686e-05
7.9163e-05
8.0744e-05
8.23106e-05
8.38618e-05
8.53968e-05
8.69144e-05
8.84136e-05
8.98935e-05
9.1353e-05
9.27911e-05
9.42067e-05
9.55987e-05
9.6966e-05
9.83075e-05
9.96223e-05
0.000100909
0.000102167
0.000103395
0.000104591
0.000105756
0.000106889
0.000107988
0.000109054
0.000110088
0.000111089
0.00011206
0.000113005
0.00011393
0.00011483
0.000115691
0.000116514
0.000117298
0.000118044
0.000118753
0.000119422
0.000120054
0.000120647
0.000121201
0.000121717
0.000122193
0.00012263
0.000123028
0.000123386
0.000123705
0.000123984
0.000124223
0.000124422
0.000124581
0.0001247
0.000124779
0.000124818
0.000124817
0.000124777
0.000124698
0.00012458
0.000124424
0.00012423
0.000123998
0.00012373
0.000123425
0.000123086
0.000122712
0.000122306
0.000121867
0.000121398
0.000120899
0.000120372
0.000119819
0.00011924
0.000118639
0.000118015
0.000117372
0.000116711
0.000116034
0.000115342
0.000114639
0.000113925
0.000113203
0.000112475
0.000111743
0.000111008
0.000110274
0.000109542
0.000108814
0.00010809
0.000107375
0.000106671
0.000105978
0.000105297
0.000104629
0.000103977
0.000103348
0.000102737
0.000102146
0.00010158
0.000101043
0.00010055
0.000100194
9.99379e-05
9.96834e-05
9.94607e-05
9.92739e-05
9.91257e-05
9.90192e-05
9.89574e-05
9.89439e-05
9.89824e-05
9.90766e-05
9.92311e-05
9.94499e-05
9.97377e-05
0.000100099
0.000100537
0.000101058
0.000101662
0.000102353
0.000103132
0.000103996
0.000104942
0.00010596
0.00010704
0.000108162
0.000109304
0.000110437
0.000111529
0.000112546
0.000113452
0.000114217
0.000114816
0.00011523
0.00011545
0.000115472
0.000115303
0.000114951
0.000114432
0.000113762
0.000112961
0.000112046
0.000111036
0.000109948
0.000108799
0.000107602
0.000106371
0.000105117
0.000103849
0.000102577
0.000101307
0.000100045
9.87969e-05
9.75664e-05
9.63572e-05
9.5172e-05
9.40133e-05
9.28826e-05
9.17816e-05
9.0711e-05
8.96717e-05
8.86637e-05
8.76898e-05
8.67572e-05
8.58595e-05
8.49917e-05
8.41514e-05
8.33435e-05
3.18729e-05
0.000100178
0.000138887
0.000167847
0.000192481
0.000213721
0.000231765
0.000246615
0.000258114
0.000265977
0.000269928
0.000270003
0.000267035
0.000262984
0.000260264
0.000258247
0.000250199
0.000235022
0.000246465
0.000257984
0.000269822
0.000281914
0.000294175
0.00030656
0.000319057
0.000331663
0.000344382
0.000357218
0.000370176
0.000383261
0.000396474
0.000409816
0.000423289
0.000436889
0.000450615
0.000464463
0.000478429
0.000492507
0.000506692
0.000520976
0.000535354
0.000549817
0.000564358
0.000578969
0.000593642
0.000608368
0.000623138
0.00063794
0.000652765
0.0006676
0.000682431
0.000697243
0.000712019
0.000726739
0.000741383
0.000755927
0.000770342
0.000784599
0.000798665
0.000812501
0.000826063
0.000839297
0.000852138
0.000864485
0.000876041
0.000887287
0.00089828
0.000909028
0.000919527
0.000929777
0.000939771
0.000949505
0.000958975
0.000968173
0.000977094
0.000985732
0.000994079
0.00100213
0.00100987
0.00101731
0.00102442
0.00103121
0.00103766
0.00104377
0.00104953
0.00105494
0.00105998
0.00106465
0.00106895
0.00107287
0.00107641
0.00107956
0.00108232
0.00108468
0.00108666
0.00108823
0.00108942
0.00109022
0.00109063
0.00109065
0.00109031
0.00108959
0.00108852
0.00108709
0.00108533
0.00108325
0.00108085
0.00107816
0.00107518
0.00107194
0.00106846
0.00106475
0.00106082
0.00105671
0.00105243
0.001048
0.00104343
0.00103875
0.00103399
0.00102917
0.00102429
0.00101938
0.00101447
0.00100957
0.00100472
0.000999921
0.000995191
0.000990541
0.000985994
0.000981581
0.000977312
0.000973195
0.0009692
0.000965151
0.000960612
0.000955913
0.000951328
0.000946963
0.00094288
0.000939122
0.00093573
0.000932746
0.000930217
0.00092819
0.000926721
0.000925866
0.000925683
0.00092623
0.000927558
0.00092971
0.000932712
0.000936566
0.00094124
0.000946661
0.000952701
0.000959176
0.000965835
0.000972371
0.00097842
0.000983588
0.000987472
0.00098969
0.000989915
0.000987899
0.000983493
0.000976654
0.000967439
0.000955994
0.000942532
0.000927311
0.000910616
0.000892737
0.000873958
0.000854544
0.000834735
0.000814744
0.000794755
0.000774923
0.000755377
0.000736221
0.000717539
0.000699397
0.000681843
0.000664915
0.000648636
0.000633025
0.000618089
0.000603832
0.000590253
0.000577349
0.000565112
0.000553537
0.00054262
0.000532369
0.000522683
0.000513369
0.000504429
0.000495833
0.000487568
0.000480038
4.46653e-05
0.000139492
0.000194188
0.000230445
0.000259443
0.000284044
0.000304998
0.000322582
0.000336985
0.000348437
0.000357376
0.000364668
0.00037178
0.000380619
0.000392555
0.000406844
0.000421275
0.000437274
0.000460168
0.000483765
0.000507567
0.000531586
0.000555824
0.000580281
0.000604962
0.000629877
0.000655036
0.000680449
0.000706124
0.000732067
0.000758279
0.000784761
0.000811509
0.000838518
0.000865777
0.000893278
0.000921006
0.000948946
0.000977084
0.0010054
0.00103388
0.00106249
0.00109123
0.00112006
0.00114897
0.00117793
0.00120691
0.0012359
0.00126487
0.00129378
0.00132261
0.00135132
0.00137987
0.00140823
0.00143635
0.00146419
0.0014917
0.00151881
0.00154548
0.00157165
0.00159725
0.00162222
0.00164652
0.00166966
0.001692
0.00171375
0.00173498
0.00175569
0.00177587
0.00179554
0.00181468
0.00183328
0.00185134
0.00186884
0.00188578
0.00190214
0.00191792
0.0019331
0.00194767
0.00196162
0.00197493
0.00198759
0.00199959
0.00201092
0.00202155
0.00203149
0.00204071
0.00204921
0.00205697
0.00206399
0.00207026
0.00207576
0.00208049
0.00208445
0.00208764
0.00209005
0.00209169
0.00209256
0.00209266
0.00209201
0.00209062
0.00208849
0.00208566
0.00208212
0.00207791
0.00207305
0.00206757
0.00206148
0.00205483
0.00204764
0.00203996
0.00203181
0.00202322
0.00201424
0.00200491
0.00199527
0.00198534
0.00197516
0.00196479
0.00195427
0.00194363
0.0019329
0.00192211
0.00191133
0.00190057
0.0018899
0.00187934
0.0018689
0.00185861
0.00184852
0.00183867
0.00182909
0.00181975
0.00181054
0.00180126
0.00179204
0.00178309
0.00177456
0.00176658
0.00175924
0.00175265
0.00174691
0.00174213
0.00173844
0.00173597
0.00173486
0.00173525
0.00173729
0.00174112
0.00174685
0.00175457
0.00176432
0.00177605
0.00178962
0.0018048
0.00182119
0.00183826
0.00185534
0.00187162
0.00188625
0.00189831
0.00190696
0.00191148
0.00191132
0.00190614
0.00189586
0.00188058
0.00186064
0.00183646
0.00180862
0.0017777
0.00174431
0.00170906
0.0016725
0.00163511
0.00159736
0.00155961
0.00152218
0.00148535
0.00144932
0.00141426
0.00138032
0.00134758
0.00131613
0.00128601
0.00125727
0.00122991
0.00120396
0.00117939
0.00115622
0.00113442
0.001114
0.00109495
0.00107732
0.00106066
0.00104492
0.00103003
0.00101596
0.00100283
0.000992021
5.47884e-05
0.000168858
0.000237496
0.000281088
0.000314496
0.000342662
0.000367224
0.000388949
0.000408434
0.000426316
0.000443361
0.000460552
0.000479115
0.000500288
0.000524626
0.000551593
0.000580166
0.000610595
0.000643314
0.000676619
0.000710154
0.000743914
0.000777928
0.000812218
0.000846807
0.000881711
0.000916947
0.000952525
0.000988454
0.00102474
0.00106137
0.00109836
0.00113569
0.00117334
0.00121131
0.00124956
0.00128809
0.00132685
0.00136584
0.001405
0.00144432
0.00148377
0.0015233
0.00156288
0.00160248
0.00164205
0.00168157
0.00172099
0.00176028
0.00179939
0.00183828
0.0018769
0.00191521
0.00195316
0.00199069
0.00202775
0.00206428
0.00210022
0.0021355
0.00217007
0.00220385
0.00223678
0.00226879
0.00229956
0.00232942
0.00235849
0.00238683
0.00241445
0.00244135
0.00246753
0.00249299
0.00251771
0.00254169
0.00256492
0.00258739
0.00260909
0.00263
0.0026501
0.0026694
0.00268786
0.00270548
0.00272224
0.00273812
0.00275311
0.00276719
0.00278034
0.00279255
0.00280379
0.00281407
0.00282335
0.00283164
0.00283891
0.00284516
0.00285038
0.00285456
0.0028577
0.00285981
0.00286087
0.00286091
0.00285991
0.00285791
0.00285491
0.00285093
0.002846
0.00284013
0.00283337
0.00282573
0.00281727
0.002808
0.00279798
0.00278724
0.00277585
0.00276383
0.00275123
0.00273811
0.00272453
0.00271054
0.00269615
0.00268146
0.00266651
0.00265135
0.00263604
0.00262062
0.00260513
0.00258964
0.00257419
0.00255883
0.0025436
0.00252855
0.00251372
0.00249917
0.00248495
0.00247107
0.00245752
0.00244422
0.00243126
0.00241876
0.00240687
0.00239575
0.00238553
0.00237637
0.00236843
0.00236189
0.00235695
0.00235382
0.00235273
0.00235392
0.00235764
0.00236412
0.00237359
0.00238621
0.00240209
0.00242122
0.00244344
0.00246843
0.00249563
0.00252426
0.00255332
0.00258159
0.00260773
0.00263036
0.00264815
0.00265998
0.00266499
0.00266266
0.00265281
0.00263561
0.00261151
0.00258118
0.0025454
0.00250508
0.00246109
0.0024143
0.00236552
0.00231548
0.00226482
0.0022141
0.00216377
0.00211422
0.00206577
0.00201868
0.00197313
0.00192928
0.00188724
0.0018471
0.00180889
0.00177267
0.00173844
0.0017062
0.00167596
0.0016477
0.00162142
0.00159716
0.00157466
0.00155364
0.00153403
0.00151576
0.0014988
0.00148354
0.00147208
6.31571e-05
0.000191949
0.000272648
0.000323479
0.000361563
0.000393653
0.000422336
0.000448868
0.000474147
0.000498988
0.000524194
0.000550577
0.000578937
0.000609914
0.000643656
0.000679744
0.000717534
0.000756766
0.000797149
0.000838037
0.00087921
0.000920646
0.000962368
0.0010044
0.00104678
0.00108951
0.00113261
0.00117611
0.00121999
0.00126427
0.00130893
0.00135397
0.00139938
0.00144512
0.00149119
0.00153754
0.00158416
0.00163099
0.00167801
0.00172518
0.00177244
0.00181977
0.0018671
0.00191441
0.00196163
0.00200873
0.00205566
0.00210236
0.00214879
0.00219491
0.00224066
0.002286
0.00233087
0.00237522
0.00241899
0.00246214
0.0025046
0.00254631
0.00258721
0.00262724
0.00266636
0.0027045
0.00274146
0.00277722
0.00281199
0.00284586
0.00287886
0.00291101
0.00294232
0.00297278
0.00300239
0.00303116
0.00305906
0.00308609
0.00311225
0.00313752
0.00316189
0.00318535
0.00320787
0.00322946
0.00325008
0.00326973
0.00328838
0.00330601
0.00332261
0.00333816
0.00335264
0.00336603
0.0033783
0.00338945
0.00339945
0.00340828
0.00341594
0.00342241
0.00342767
0.00343173
0.00343458
0.0034362
0.00343662
0.00343582
0.00343383
0.00343065
0.0034263
0.0034208
0.00341417
0.00340646
0.00339769
0.00338789
0.00337711
0.0033654
0.0033528
0.00333936
0.00332513
0.00331016
0.00329452
0.00327828
0.00326148
0.00324418
0.00322645
0.00320834
0.00318993
0.00317126
0.00315239
0.00313338
0.00311429
0.00309518
0.00307612
0.00305714
0.00303831
0.00301969
0.00300134
0.00298332
0.0029657
0.00294849
0.00293172
0.00291545
0.00289981
0.00288493
0.00287097
0.0028581
0.00284653
0.00283646
0.00282812
0.00282179
0.00281774
0.00281631
0.00281783
0.00282265
0.00283113
0.0028436
0.00286036
0.0028816
0.0029074
0.00293763
0.00297192
0.00300963
0.00304977
0.00309103
0.00313182
0.00317033
0.00320469
0.0032331
0.00325401
0.00326623
0.00326904
0.00326218
0.00324584
0.00322059
0.00318728
0.00314694
0.00310071
0.00304973
0.00299511
0.00293788
0.00287897
0.00281918
0.00275923
0.0026997
0.00264108
0.00258378
0.00252812
0.00247434
0.00242264
0.00237317
0.00232602
0.00228128
0.00223899
0.00219916
0.00216181
0.00212693
0.00209451
0.00206456
0.00203702
0.00201146
0.00198779
0.00196594
0.00194583
0.00192749
0.00191152
0.00190045
7.01399e-05
0.000210494
0.000301733
0.000359586
0.000402523
0.000438743
0.000471696
0.000503067
0.000533939
0.000565167
0.000597471
0.000631452
0.000667572
0.000706095
0.000746963
0.000789815
0.000834176
0.000879689
0.000926017
0.000972821
0.00101995
0.00106737
0.0011151
0.00116315
0.00121156
0.00126033
0.00130949
0.00135905
0.00140899
0.00145933
0.00151006
0.00156115
0.00161259
0.00166436
0.00171641
0.00176872
0.00182125
0.00187395
0.00192678
0.00197968
0.00203262
0.00208553
0.00213836
0.00219107
0.00224358
0.00229586
0.00234785
0.00239949
0.00245074
0.00250153
0.00255183
0.00260158
0.00265072
0.00269922
0.00274702
0.00279406
0.0028403
0.00288567
0.00293014
0.00297364
0.00301612
0.00305754
0.00309765
0.0031366
0.00317452
0.00321147
0.00324748
0.00328257
0.00331674
0.00335001
0.00338236
0.0034138
0.00344431
0.00347391
0.00350257
0.00353029
0.00355706
0.00358287
0.0036077
0.00363153
0.00365436
0.00367615
0.00369691
0.00371659
0.0037352
0.00375269
0.00376905
0.00378426
0.00379829
0.00381112
0.00382273
0.0038331
0.0038422
0.00385002
0.00385654
0.00386176
0.00386564
0.00386819
0.00386941
0.00386929
0.00386784
0.00386505
0.00386096
0.00385557
0.00384891
0.003841
0.00383188
0.00382157
0.00381013
0.00379759
0.00378401
0.00376943
0.00375393
0.00373754
0.00372033
0.00370238
0.00368373
0.00366446
0.00364463
0.0036243
0.00360353
0.0035824
0.00356096
0.00353929
0.00351743
0.00349546
0.00347345
0.00345145
0.00342953
0.00340777
0.00338622
0.00336497
0.00334409
0.00332365
0.0033037
0.00328434
0.00326568
0.00324786
0.00323106
0.00321547
0.00320132
0.00318885
0.00317835
0.00317015
0.00316461
0.00316213
0.00316315
0.00316814
0.00317758
0.00319194
0.00321166
0.00323708
0.00326839
0.00330557
0.00334829
0.00339584
0.0034471
0.00350051
0.00355408
0.00360557
0.00365257
0.00369279
0.0037242
0.00374526
0.003755
0.00375304
0.00373961
0.00371539
0.0036814
0.00363891
0.00358928
0.0035339
0.00347411
0.00341114
0.0033461
0.00327996
0.00321355
0.00314757
0.00308261
0.00301914
0.00295752
0.00289807
0.00284101
0.0027865
0.00273468
0.00268562
0.00263937
0.00259597
0.00255542
0.00251771
0.00248284
0.0024508
0.00242117
0.00239384
0.00236872
0.0023457
0.0023247
0.00230583
0.00228987
0.00227951
7.59442e-05
0.000225461
0.000325961
0.000390514
0.000438325
0.000478696
0.000515807
0.000551705
0.000587597
0.000624319
0.00066248
0.000702504
0.000744632
0.000788917
0.000835203
0.000883166
0.000932424
0.000982649
0.00103356
0.00108492
0.00113662
0.00118862
0.00124094
0.00129357
0.00134654
0.00139987
0.00145357
0.00150764
0.00156208
0.00161689
0.00167205
0.00172754
0.00178335
0.00183944
0.00189578
0.00195232
0.00200902
0.00206584
0.00212272
0.0021796
0.00223644
0.00229317
0.00234974
0.00240608
0.00246215
0.00251787
0.0025732
0.00262807
0.00268244
0.00273625
0.00278946
0.002842
0.00289384
0.00294493
0.00299522
0.00304467
0.00309324
0.00314087
0.00318752
0.00323314
0.00327769
0.00332108
0.00336319
0.00340417
0.0034441
0.00348303
0.00352099
0.00355801
0.00359408
0.00362921
0.00366341
0.00369667
0.003729
0.00376038
0.00379082
0.0038203
0.00384882
0.00387638
0.00390294
0.00392851
0.00395306
0.00397659
0.00399906
0.00402047
0.00404078
0.00405998
0.00407803
0.00409491
0.0041106
0.00412507
0.0041383
0.00415024
0.00416088
0.00417019
0.00417816
0.00418475
0.00418995
0.00419374
0.0041961
0.00419704
0.00419656
0.00419464
0.00419129
0.00418652
0.00418037
0.00417283
0.00416394
0.00415374
0.00414226
0.00412954
0.00411564
0.00410061
0.00408451
0.00406738
0.00404929
0.00403031
0.0040105
0.00398992
0.00396864
0.00394673
0.00392425
0.00390127
0.00387786
0.00385409
0.00383002
0.00380572
0.00378127
0.00375672
0.00373216
0.00370766
0.00368329
0.00365913
0.00363527
0.0036118
0.00358881
0.0035664
0.0035447
0.00352386
0.00350406
0.00348551
0.00346845
0.00345318
0.00344002
0.00342933
0.00342156
0.00341718
0.00341672
0.00342077
0.00342995
0.00344489
0.0034662
0.00349441
0.00352988
0.00357276
0.00362282
0.0036794
0.0037413
0.00380672
0.00387335
0.00393845
0.00399906
0.0040523
0.00409561
0.00412703
0.00414528
0.00414989
0.00414105
0.00411957
0.00408665
0.00404379
0.00399261
0.00393473
0.0038717
0.00380497
0.0037358
0.00366533
0.0035945
0.00352411
0.00345482
0.00338717
0.00332157
0.00325836
0.0031978
0.00314007
0.00308531
0.0030336
0.002985
0.00293953
0.00289719
0.00285798
0.00282188
0.00278861
0.00275792
0.00272973
0.00270393
0.00268042
0.00265911
0.00264016
0.0026245
0.00261488
8.072e-05
0.000237481
0.00034612
0.00041697
0.000469533
0.000513924
0.000554923
0.000594884
0.000635108
0.0006764
0.000719273
0.000764018
0.000810743
0.00085939
0.00090976
0.000961561
0.00101447
0.00106822
0.00112256
0.00117732
0.00123242
0.0012878
0.00134348
0.00139945
0.00145573
0.00151233
0.00156926
0.00162653
0.00168412
0.00174204
0.00180027
0.00185878
0.00191756
0.00197658
0.00203578
0.00209514
0.00215461
0.00221413
0.00227365
0.00233313
0.00239248
0.00245167
0.00251062
0.00256928
0.00262758
0.00268547
0.00274288
0.00279975
0.00285604
0.00291169
0.00296665
0.00302087
0.00307432
0.00312694
0.0031787
0.00322957
0.0032795
0.00332845
0.00337638
0.00342326
0.00346905
0.00351359
0.00355695
0.00359921
0.00364045
0.00368069
0.00371996
0.00375827
0.00379565
0.00383208
0.00386758
0.00390215
0.00393579
0.00396849
0.00400027
0.0040311
0.00406099
0.00408992
0.0041179
0.00414489
0.0041709
0.00419589
0.00421987
0.0042428
0.00426467
0.00428544
0.00430509
0.00432359
0.00434091
0.00435702
0.0043719
0.00438549
0.00439777
0.0044087
0.00441827
0.00442645
0.00443319
0.00443846
0.00444226
0.00444457
0.00444539
0.00444468
0.00444244
0.00443869
0.00443345
0.00442671
0.00441852
0.00440889
0.00439785
0.00438545
0.00437174
0.00435675
0.00434055
0.00432318
0.0043047
0.00428518
0.00426469
0.00424328
0.00422102
0.00419797
0.00417422
0.00414982
0.00412485
0.00409938
0.00407347
0.0040472
0.00402064
0.00399385
0.00396693
0.00393994
0.00391297
0.0038861
0.00385942
0.00383304
0.00380705
0.00378158
0.00375676
0.00373275
0.00370974
0.00368796
0.00366766
0.00364915
0.00363278
0.00361899
0.00360824
0.00360108
0.00359815
0.00360014
0.00360781
0.00362196
0.0036434
0.00367289
0.00371105
0.00375824
0.00381446
0.00387914
0.0039511
0.00402839
0.00410836
0.00418777
0.00426303
0.0043306
0.0043873
0.00443062
0.00445897
0.00447166
0.00446891
0.00445161
0.00442118
0.00437936
0.00432803
0.00426906
0.00420423
0.00413519
0.00406338
0.00399007
0.00391633
0.00384303
0.00377091
0.00370056
0.00363245
0.00356692
0.00350426
0.00344466
0.00338826
0.00333514
0.00328536
0.00323893
0.00319583
0.00315604
0.00311943
0.00308563
0.00305456
0.0030261
0.00300013
0.00297651
0.00295519
0.00293636
0.00292106
0.00291202
8.45908e-05
0.000247016
0.00036278
0.000439471
0.000496556
0.000544732
0.000589263
0.000632767
0.000676627
0.000721628
0.000768209
0.000816575
0.000866752
0.00091863
0.000971995
0.00102658
0.00108212
0.00113837
0.00119514
0.00125229
0.00130973
0.00136743
0.00142538
0.00148358
0.00154205
0.00160078
0.00165979
0.00171908
0.00177865
0.0018385
0.0018986
0.00195894
0.00201949
0.00208023
0.00214112
0.00220212
0.00226318
0.00232425
0.00238529
0.00244624
0.00250703
0.00256761
0.00262791
0.00268787
0.00274743
0.00280654
0.00286511
0.00292311
0.00298047
0.00303714
0.00309307
0.00314822
0.00320254
0.003256
0.00330856
0.00336019
0.00341085
0.00346052
0.00350916
0.00355673
0.00360318
0.00364846
0.00369263
0.00373575
0.00377787
0.00381901
0.0038592
0.00389845
0.00393678
0.00397418
0.00401066
0.00404623
0.00408089
0.00411463
0.00414747
0.0041794
0.00421042
0.00424053
0.0042697
0.00429793
0.00432522
0.00435154
0.00437688
0.00440123
0.00442456
0.00444683
0.00446802
0.0044881
0.00450704
0.00452481
0.00454138
0.00455668
0.00457068
0.00458334
0.00459465
0.00460458
0.00461302
0.00461997
0.00462542
0.00462933
0.00463168
0.00463245
0.00463164
0.00462923
0.00462523
0.00461966
0.00461251
0.00460382
0.0045936
0.00458189
0.00456874
0.00455417
0.00453824
0.004521
0.00450251
0.00448282
0.00446199
0.0044401
0.0044172
0.00439336
0.00436866
0.00434315
0.00431692
0.00429003
0.00426255
0.00423455
0.00420612
0.00417732
0.00414824
0.00411894
0.00408952
0.00406007
0.00403068
0.00400145
0.0039725
0.00394395
0.00391595
0.00388865
0.00386226
0.00383701
0.00381316
0.00379103
0.00377101
0.00375355
0.00373915
0.00372844
0.00372212
0.00372098
0.00372594
0.00373797
0.0037581
0.00378736
0.00382665
0.00387667
0.00393771
0.00400944
0.00409077
0.0041797
0.00427326
0.0043677
0.00445875
0.00454206
0.0046137
0.00467055
0.00471057
0.00473285
0.00473756
0.00472573
0.00469901
0.00465938
0.004609
0.00455004
0.00448451
0.00441425
0.00434091
0.00426588
0.00419033
0.00411525
0.00404142
0.00396949
0.00389994
0.00383316
0.00376944
0.00370896
0.00365188
0.00359826
0.00354815
0.00350153
0.00345839
0.00341865
0.00338193
0.00334813
0.00331711
0.00328873
0.00326285
0.00323933
0.0032181
0.0031994
0.00318436
0.00317569
8.76653e-05
0.000254429
0.000376394
0.000458437
0.000519741
0.000571402
0.000619069
0.000665585
0.000712418
0.000760346
0.000809762
0.000860814
0.000913485
0.000967638
0.00102306
0.00107952
0.00113678
0.00119463
0.00125291
0.00131149
0.00137032
0.00142935
0.00148856
0.00154797
0.00160758
0.00166739
0.00172742
0.00178767
0.00184815
0.00190885
0.00196975
0.00203086
0.00209214
0.00215357
0.00221512
0.00227675
0.00233844
0.00240012
0.00246175
0.00252328
0.00258464
0.00264579
0.00270665
0.00276717
0.00282728
0.00288691
0.00294601
0.00300452
0.00306237
0.00311952
0.0031759
0.00323148
0.00328622
0.00334007
0.003393
0.003445
0.00349602
0.00354604
0.00359503
0.00364296
0.00368979
0.00373557
0.0037803
0.00382405
0.00386682
0.00390865
0.00394955
0.00398953
0.00402861
0.00406679
0.00410407
0.00414046
0.00417596
0.00421058
0.00424433
0.0042772
0.00430921
0.00434034
0.00437058
0.00439993
0.00442837
0.00445591
0.00448252
0.0045082
0.00453293
0.00455664
0.00457933
0.00460096
0.0046215
0.00464094
0.00465923
0.00467627
0.00469205
0.00470651
0.00471963
0.00473136
0.00474164
0.00475043
0.00475769
0.00476339
0.0047675
0.00476998
0.00477083
0.00477001
0.00476753
0.00476338
0.00475756
0.00475009
0.00474099
0.00473026
0.00471796
0.00470411
0.00468875
0.00467193
0.00465371
0.00463413
0.00461327
0.00459116
0.0045679
0.00454352
0.00451812
0.00449175
0.00446449
0.00443641
0.00440757
0.00437806
0.00434795
0.00431731
0.00428623
0.00425478
0.00422306
0.00419114
0.00415913
0.00412714
0.00409527
0.00406366
0.00403245
0.00400182
0.00397195
0.00394307
0.00391547
0.00388947
0.00386545
0.00384389
0.00382532
0.00381042
0.00379993
0.00379477
0.00379595
0.00380463
0.00382208
0.0038496
0.00388846
0.00393973
0.00400412
0.00408167
0.00417151
0.00427168
0.00437899
0.00448915
0.00459711
0.00469763
0.00478587
0.00485793
0.00491122
0.00494457
0.00495809
0.00495293
0.00493096
0.0048945
0.004846
0.00478791
0.00472252
0.00465189
0.00457785
0.00450193
0.00442543
0.0043494
0.00427469
0.004202
0.00413183
0.00406459
0.00400056
0.00393994
0.00388286
0.00382938
0.00377952
0.00373326
0.00369055
0.00365109
0.00361467
0.00358117
0.00355044
0.00352233
0.00349666
0.00347327
0.00345211
0.00343345
0.00341849
0.00340994
9.00423e-05
0.000260028
0.000387343
0.000474232
0.000539411
0.000594217
0.000644605
0.000693615
0.000742799
0.000792943
0.000844416
0.000897334
0.000951655
0.00100724
0.00106388
0.00112137
0.00117949
0.00123808
0.00129698
0.0013561
0.00141537
0.00147477
0.00153429
0.00159392
0.00165367
0.00171357
0.00177361
0.00183383
0.00189421
0.00195478
0.00201552
0.00207643
0.0021375
0.00219871
0.00226005
0.00232148
0.00238297
0.00244448
0.00250596
0.00256737
0.00262866
0.00268975
0.00275059
0.00281113
0.00287128
0.00293099
0.00299018
0.00304881
0.00310679
0.00316407
0.0032206
0.00327633
0.00333121
0.0033852
0.00343828
0.00349042
0.00354158
0.00359175
0.0036409
0.00368903
0.00373618
0.00378235
0.00382755
0.00387181
0.00391513
0.00395754
0.00399905
0.00403967
0.0040794
0.00411826
0.00415624
0.00419335
0.0042296
0.00426499
0.00429955
0.00433326
0.00436615
0.00439822
0.00442943
0.0044598
0.00448931
0.00451797
0.00454577
0.0045727
0.00459877
0.00462387
0.00464799
0.00467113
0.00469324
0.0047143
0.00473425
0.00475304
0.0047706
0.00478691
0.0048019
0.00481553
0.00482774
0.00483847
0.00484768
0.00485532
0.00486134
0.00486571
0.0048684
0.00486937
0.00486861
0.00486611
0.00486184
0.00485582
0.00484806
0.00483856
0.00482735
0.00481445
0.00479991
0.00478376
0.00476605
0.00474682
0.00472614
0.00470407
0.00468065
0.00465597
0.00463009
0.00460307
0.00457498
0.0045459
0.00451591
0.00448507
0.00445345
0.00442115
0.00438823
0.00435479
0.00432089
0.00428665
0.00425214
0.00421749
0.0041828
0.0041482
0.00411384
0.00407988
0.00404652
0.00401398
0.00398254
0.00395252
0.00392431
0.00389839
0.00387531
0.00385575
0.00384053
0.00383061
0.00382714
0.00383142
0.00384494
0.0038693
0.00390617
0.00395708
0.00402323
0.00410517
0.00420243
0.00431322
0.00443422
0.00456063
0.00468658
0.00480578
0.00491229
0.0050013
0.00506952
0.00511544
0.00513906
0.00514169
0.00512546
0.00509302
0.00504716
0.00499065
0.00492608
0.00485575
0.00478165
0.00470548
0.00462865
0.0045523
0.00447735
0.0044045
0.00433431
0.00426718
0.00420339
0.00414315
0.00408655
0.00403365
0.00398443
0.00393885
0.00389675
0.00385781
0.00382189
0.00378886
0.00375855
0.00373075
0.00370527
0.00368196
0.00366077
0.003642
0.00362689
0.00361823
9.18121e-05
0.000264078
0.000395957
0.000487187
0.000555864
0.000613453
0.000666143
0.000717143
0.000768088
0.000819787
0.0008726
0.000926628
0.000981819
0.00103803
0.00109508
0.00115278
0.00121093
0.00126939
0.00132803
0.00138677
0.00144556
0.00150438
0.00156322
0.00162209
0.00168101
0.00174001
0.0017991
0.00185832
0.00191767
0.00197719
0.00203687
0.00209673
0.00215677
0.00221699
0.00227736
0.00233788
0.00239852
0.00245925
0.00252003
0.00258081
0.00264153
0.00270214
0.00276258
0.00282278
0.00288267
0.00294217
0.00300122
0.00305974
0.00311767
0.00317493
0.00323146
0.0032872
0.00334211
0.00339615
0.00344927
0.00350146
0.00355268
0.00360291
0.00365214
0.00370051
0.00374799
0.00379456
0.00384022
0.00388497
0.00392882
0.00397179
0.00401387
0.00405508
0.00409544
0.00413493
0.00417356
0.00421133
0.00424827
0.00428437
0.00431966
0.00435415
0.00438785
0.00442078
0.00445288
0.00448418
0.00451468
0.00454438
0.00457327
0.00460136
0.00462862
0.00465501
0.00468051
0.00470509
0.00472872
0.00475135
0.00477295
0.00479346
0.00481282
0.00483097
0.00484787
0.00486345
0.00487764
0.00489038
0.00490162
0.0049113
0.00491935
0.00492574
0.00493041
0.00493332
0.00493444
0.00493375
0.00493122
0.00492684
0.0049206
0.00491252
0.00490261
0.00489088
0.00487736
0.00486208
0.00484509
0.00482642
0.00480614
0.0047843
0.00476095
0.00473616
0.00470999
0.00468251
0.0046538
0.00462392
0.00459295
0.00456096
0.00452803
0.00449424
0.00445966
0.00442438
0.00438849
0.00435207
0.00431523
0.00427806
0.00424068
0.00420322
0.00416582
0.00412864
0.00409187
0.00405574
0.00402049
0.00398645
0.00395401
0.00392362
0.00389586
0.0038714
0.00385108
0.00383592
0.00382713
0.00382616
0.0038347
0.00385465
0.00388805
0.00393695
0.00400316
0.00408786
0.00419116
0.00431164
0.00444599
0.00458898
0.00473385
0.00487313
0.00499959
0.00510729
0.00519213
0.0052521
0.00528713
0.00529864
0.00528906
0.00526141
0.00521886
0.00516455
0.00510135
0.00503182
0.00495817
0.00488225
0.00480557
0.00472938
0.00465463
0.00458208
0.0045123
0.00444568
0.00438253
0.004323
0.00426721
0.00421516
0.00416682
0.00412211
0.00408068
0.00404239
0.00400708
0.00397457
0.00394465
0.00391712
0.00389177
0.00386842
0.00384705
0.00382797
0.00381251
0.00380353
9.30581e-05
0.000266812
0.00040253
0.000497596
0.000569379
0.000629368
0.000683931
0.000736421
0.000788553
0.000841167
0.000894625
0.000949026
0.00100432
0.00106037
0.001117
0.00117405
0.00123136
0.00128878
0.00134623
0.00140364
0.00146097
0.00151821
0.00157539
0.00163251
0.00168961
0.00174674
0.00180393
0.00186123
0.00191867
0.00197629
0.00203412
0.00209219
0.0021505
0.00220907
0.0022679
0.00232698
0.00238629
0.00244581
0.00250549
0.00256531
0.00262519
0.00268508
0.00274491
0.0028046
0.00286409
0.00292329
0.00298211
0.00304047
0.0030983
0.00315551
0.00321202
0.00326777
0.00332271
0.00337679
0.00342996
0.00348219
0.00353346
0.00358374
0.00363322
0.00368193
0.00372982
0.00377684
0.00382299
0.00386827
0.00391267
0.0039562
0.00399887
0.00404067
0.00408165
0.00412176
0.00416101
0.00419942
0.00423699
0.00427376
0.00430973
0.00434492
0.00437934
0.00441301
0.00444591
0.00447805
0.00450944
0.00454009
0.00456998
0.00459913
0.00462752
0.00465511
0.00468189
0.00470783
0.0047329
0.00475706
0.00478026
0.00480245
0.00482356
0.00484355
0.00486234
0.00487987
0.00489607
0.00491086
0.00492418
0.00493595
0.00494611
0.0049546
0.00496135
0.00496632
0.00496944
0.0049707
0.00497004
0.00496745
0.00496291
0.00495642
0.00494797
0.00493758
0.00492527
0.00491105
0.00489497
0.00487706
0.00485736
0.00483594
0.00481285
0.00478815
0.00476189
0.00473416
0.00470501
0.00467452
0.00464277
0.00460982
0.00457576
0.00454067
0.00450462
0.0044677
0.00443
0.0043916
0.00435261
0.00431312
0.00427324
0.00423311
0.00419285
0.00415263
0.00411262
0.00407303
0.00403413
0.0039962
0.00395961
0.00392482
0.00389238
0.00386295
0.00383739
0.00381672
0.00380221
0.0037954
0.00379814
0.00381259
0.00384118
0.00388649
0.00395099
0.00403664
0.00414433
0.00427321
0.00442021
0.00457977
0.00474426
0.00490488
0.00505292
0.00518106
0.0052842
0.00535975
0.00540748
0.00542893
0.00542689
0.00540475
0.00536612
0.00531452
0.00525316
0.00518486
0.00511206
0.00503676
0.00496061
0.00488493
0.00481073
0.0047388
0.00466972
0.00460391
0.00454164
0.00448306
0.00442826
0.00437722
0.00432988
0.00428599
0.00424533
0.00420773
0.00417303
0.00414101
0.00411143
0.00408407
0.00405871
0.00403518
0.00401345
0.00399389
0.00397786
0.00396836
9.38568e-05
0.000268439
0.000407326
0.000505721
0.000580195
0.000642179
0.000698165
0.000751629
0.000804359
0.000857231
0.00091062
0.000964628
0.00101921
0.00107424
0.00112957
0.00118505
0.00124055
0.00129595
0.00135119
0.00140623
0.00146105
0.00151568
0.00157015
0.0016245
0.0016788
0.00173311
0.0017875
0.00184202
0.00189676
0.00195176
0.00200708
0.00206275
0.00211881
0.00217527
0.00223216
0.00228946
0.00234717