/*--------------------------------*- C++ -*----------------------------------*\
  =========                 |
  \\      /  F ield         | OpenFOAM: The Open Source CFD Toolbox
   \\    /   O peration     | Website:  https://openfoam.org
    \\  /    A nd           | Version:  7
     \\/     M anipulation  |
\*---------------------------------------------------------------------------*/
FoamFile
{
    version     2.0;
    format      ascii;
    class       volScalarField;
    location    "750";
    object      p;
}
// * * * * * * * * * * * * * * * * * * * * * * * * * * * * * * * * * * * * * //

dimensions      [0 2 -2 0 0 0 0];

internalField   nonuniform List<scalar> 
16900
(
-22.3799
-22.3835
-22.3902
-22.3995
-22.4113
-22.4254
-22.4418
-22.4607
-22.482
-22.5058
-22.5325
-22.5623
-22.5952
-22.6293
-22.6633
-22.7032
-22.7477
-22.7825
-22.8158
-22.8562
-22.8982
-22.9412
-22.9846
-23.0284
-23.0722
-23.1159
-23.1594
-23.2024
-23.2449
-23.2865
-23.3271
-23.3664
-23.4042
-23.4402
-23.4742
-23.5059
-23.5349
-23.5609
-23.5836
-23.6027
-23.6178
-23.6285
-23.6345
-23.6354
-23.6309
-23.6204
-23.6037
-23.5804
-23.55
-23.5122
-23.4667
-23.4131
-23.3509
-23.28
-23.2
-23.1107
-23.0118
-22.9032
-22.7846
-22.6561
-22.5174
-22.3686
-22.2097
-22.0406
-21.8614
-21.6722
-21.4733
-21.2649
-21.0473
-20.8207
-20.5854
-20.3418
-20.0903
-19.8312
-19.5649
-19.2919
-19.0126
-18.7275
-18.4372
-18.1421
-17.8428
-17.5398
-17.2337
-16.9251
-16.6146
-16.3028
-15.9901
-15.6772
-15.3648
-15.0532
-14.7431
-14.435
-14.1293
-13.8266
-13.5273
-13.2319
-12.9406
-12.6538
-12.372
-12.0952
-11.8239
-11.5581
-11.298
-11.0438
-10.7955
-10.5531
-10.3168
-10.0863
-9.86179
-9.64302
-9.4299
-9.22229
-9.02001
-8.82285
-8.6306
-8.44302
-8.25988
-8.08088
-7.90575
-7.73423
-7.56604
-7.40086
-7.23838
-7.07832
-6.92043
-6.76441
-6.60992
-6.45662
-6.30432
-6.15281
-6.00181
-5.85103
-5.70023
-5.54905
-5.39713
-5.24446
-5.09114
-4.93695
-4.7816
-4.6249
-4.46669
-4.30682
-4.14518
-3.98166
-3.81615
-3.64856
-3.47878
-3.30673
-3.1323
-2.95538
-2.77585
-2.59361
-2.4086
-2.22083
-2.03043
-1.83774
-1.64337
-1.4483
-1.25393
-1.06206
-0.874948
-0.695109
-0.525217
-0.367868
-0.225384
-0.0995972
0.00826285
0.0976633
0.16874
0.222255
0.259464
0.282004
0.29174
0.290654
0.28072
0.26384
0.241764
0.21607
0.188124
0.159096
0.129947
0.101454
0.0742199
0.048701
0.0252199
0.0039954
-0.0148463
-0.0312447
-0.0451959
-0.0567291
-0.0658997
-0.0727687
-0.0773948
-0.0797909
-0.0798762
-0.0774888
-0.0723388
-0.0638837
-0.0506182
-0.0338797
-22.3758
-22.3801
-22.3852
-22.3923
-22.4022
-22.4147
-22.4298
-22.4473
-22.4671
-22.4893
-22.5135
-22.5396
-22.5668
-22.5954
-22.6295
-22.6658
-22.6994
-22.7429
-22.7925
-22.8362
-22.8789
-22.9217
-22.9647
-23.0079
-23.0512
-23.0944
-23.1373
-23.1798
-23.2217
-23.2629
-23.3031
-23.342
-23.3795
-23.4153
-23.4491
-23.4806
-23.5095
-23.5355
-23.5583
-23.5776
-23.5929
-23.604
-23.6105
-23.6119
-23.608
-23.5984
-23.5826
-23.5602
-23.531
-23.4945
-23.4504
-23.3983
-23.3378
-23.2687
-23.1907
-23.1034
-23.0066
-22.9002
-22.784
-22.6579
-22.5217
-22.3756
-22.2194
-22.0529
-21.8763
-21.6898
-21.4936
-21.2879
-21.073
-20.8491
-20.6166
-20.3757
-20.1269
-19.8704
-19.6067
-19.3363
-19.0595
-18.7768
-18.4888
-18.196
-17.8988
-17.5979
-17.2937
-16.987
-16.6781
-16.3677
-16.0564
-15.7448
-15.4333
-15.1226
-14.8132
-14.5056
-14.2003
-13.8978
-13.5985
-13.3029
-13.0112
-12.724
-12.4415
-12.164
-11.8916
-11.6248
-11.3635
-11.108
-10.8583
-10.6144
-10.3765
-10.1444
-9.91813
-9.69761
-9.48272
-9.27332
-9.06924
-8.8703
-8.67627
-8.48695
-8.3021
-8.12145
-7.94471
-7.77166
-7.60201
-7.43546
-7.27166
-7.11038
-6.95139
-6.79439
-6.63901
-6.48486
-6.33181
-6.17971
-6.02823
-5.8771
-5.72606
-5.57485
-5.4232
-5.27104
-5.11834
-4.96487
-4.81035
-4.65462
-4.49752
-4.33891
-4.17867
-4.01667
-3.85283
-3.68704
-3.5192
-3.34922
-3.177
-3.00243
-2.82542
-2.64588
-2.46376
-2.27909
-2.09203
-1.90291
-1.71233
-1.52121
-1.33085
-1.14294
-0.959553
-0.783031
-0.615858
-0.460466
-0.319041
-0.19334
-0.084564
0.00671608
0.0805594
0.137604
0.178969
0.206136
0.220821
0.224865
0.22012
0.208379
0.191312
0.170427
0.147048
0.122308
0.0971549
0.0723551
0.0485147
0.0260957
0.00543511
-0.0132351
-0.029769
-0.04409
-0.0561729
-0.0660304
-0.0736982
-0.0792225
-0.0826342
-0.0839097
-0.0829817
-0.079721
-0.0738135
-0.0647637
-0.0509285
-0.036168
-22.3699
-22.3774
-22.3841
-22.3912
-22.4007
-22.4129
-22.4277
-22.4451
-22.4649
-22.4871
-22.5118
-22.5385
-22.5671
-22.5975
-22.6313
-22.6668
-22.7012
-22.7391
-22.7811
-22.8225
-22.864
-22.9059
-22.948
-22.9904
-23.0328
-23.0751
-23.1172
-23.159
-23.2002
-23.2407
-23.2802
-23.3186
-23.3556
-23.3909
-23.4243
-23.4555
-23.4842
-23.51
-23.5328
-23.5521
-23.5675
-23.5789
-23.5857
-23.5876
-23.5843
-23.5753
-23.5604
-23.5391
-23.511
-23.4758
-23.4331
-23.3825
-23.3238
-23.2565
-23.1805
-23.0953
-23.0008
-22.8968
-22.7831
-22.6595
-22.5261
-22.3828
-22.2293
-22.0656
-21.8919
-21.7082
-21.515
-21.3122
-21.1003
-20.8794
-20.6498
-20.412
-20.1661
-19.9125
-19.6517
-19.3841
-19.1102
-18.8302
-18.5449
-18.2546
-17.9599
-17.6614
-17.3595
-17.0548
-16.7479
-16.4394
-16.1298
-15.8196
-15.5095
-15.2
-14.8916
-14.5849
-14.2802
-13.9782
-13.6792
-13.3837
-13.092
-12.8045
-12.5216
-12.2435
-11.9705
-11.7027
-11.4404
-11.1838
-10.9328
-10.6876
-10.4482
-10.2145
-9.98668
-9.76448
-9.54787
-9.33672
-9.13089
-8.93017
-8.73435
-8.5433
-8.35677
-8.17445
-7.99605
-7.82143
-7.65035
-7.48245
-7.31732
-7.15479
-6.99473
-6.8368
-6.68062
-6.52587
-6.37239
-6.22
-6.06839
-5.91728
-5.76644
-5.61562
-5.46449
-5.3129
-5.16083
-5.00808
-4.85444
-4.69975
-4.54387
-4.38666
-4.22797
-4.0677
-3.90575
-3.74201
-3.5764
-3.40882
-3.23917
-3.06738
-2.89334
-2.717
-2.53831
-2.35732
-2.17416
-1.98914
-1.80279
-1.61593
-1.42971
-1.24568
-1.0657
-0.89193
-0.726681
-0.572239
-0.430695
-0.30377
-0.192686
-0.0980872
-0.0200361
0.0419566
0.0888405
0.121928
0.142772
0.153065
0.154532
0.148862
0.137642
0.12232
0.10418
0.0843303
0.0637047
0.0430709
0.0230416
0.00409198
-0.0134237
-0.0292533
-0.04323
-0.0552547
-0.0652806
-0.0733002
-0.0793321
-0.0834027
-0.0855116
-0.0856333
-0.0837296
-0.0796855
-0.0731942
-0.0639244
-0.050088
-0.0396597
-22.3653
-22.3764
-22.3856
-22.3936
-22.4034
-22.4157
-22.4304
-22.4475
-22.467
-22.4889
-22.513
-22.5393
-22.5674
-22.5975
-22.6302
-22.6648
-22.7002
-22.7372
-22.7763
-22.8162
-22.8566
-22.8975
-22.9388
-22.9803
-23.022
-23.0636
-23.1051
-23.1462
-23.1869
-23.2269
-23.266
-23.304
-23.3406
-23.3757
-23.4089
-23.4399
-23.4686
-23.4944
-23.5173
-23.5367
-23.5524
-23.564
-23.5713
-23.5737
-23.571
-23.5628
-23.5487
-23.5283
-23.5012
-23.4672
-23.4257
-23.3765
-23.3192
-23.2536
-23.1791
-23.0957
-23.0031
-22.9009
-22.7892
-22.6677
-22.5363
-22.3951
-22.2436
-22.0819
-21.9102
-21.7286
-21.5375
-21.3368
-21.127
-20.9082
-20.6808
-20.445
-20.2012
-19.9497
-19.6909
-19.4252
-19.1531
-18.8751
-18.5915
-18.3029
-18.0098
-17.7127
-17.4122
-17.1089
-16.8032
-16.4957
-16.1871
-15.8778
-15.5685
-15.2596
-14.9517
-14.6452
-14.3408
-14.0389
-13.7399
-13.4442
-13.1522
-12.8644
-12.581
-12.3023
-12.0286
-11.76
-11.4969
-11.2393
-10.9873
-10.741
-10.5005
-10.2657
-10.0366
-9.81323
-9.59537
-9.38301
-9.17602
-8.97408
-8.77701
-8.5848
-8.39724
-8.21385
-8.03435
-7.85873
-7.68676
-7.51804
-7.35221
-7.18908
-7.0285
-6.87011
-6.71359
-6.55862
-6.40501
-6.25258
-6.10103
-5.95008
-5.79951
-5.64907
-5.49847
-5.34751
-5.19613
-5.04416
-4.89139
-4.73767
-4.58287
-4.42683
-4.26945
-4.11059
-3.95018
-3.78812
-3.62432
-3.45871
-3.2912
-3.12172
-2.9502
-2.77656
-2.60078
-2.42287
-2.24294
-2.06122
-1.87817
-1.69451
-1.51127
-1.32986
-1.15207
-0.979938
-0.815698
-0.661584
-0.519651
-0.391612
-0.278703
-0.181614
-0.100466
-0.0348565
0.0160717
0.0535236
0.0789529
0.0939482
0.10015
0.0991655
0.0925203
0.0816082
0.0676768
0.051805
0.0349125
0.0177549
0.000945967
-0.0150387
-0.0298351
-0.0431835
-0.0549024
-0.0648818
-0.0730598
-0.0794208
-0.08397
-0.0867126
-0.0876254
-0.086717
-0.0839779
-0.079318
-0.0724684
-0.0633514
-0.0499708
-0.0447567
-22.364
-22.3778
-22.3892
-22.3983
-22.4087
-22.4212
-22.436
-22.4531
-22.4725
-22.4941
-22.518
-22.5439
-22.5717
-22.6015
-22.6334
-22.6672
-22.7022
-22.7388
-22.7768
-22.8156
-22.8552
-22.8953
-22.9358
-22.9766
-23.0177
-23.0587
-23.0997
-23.1404
-23.1807
-23.2204
-23.2592
-23.297
-23.3335
-23.3684
-23.4015
-23.4326
-23.4613
-23.4872
-23.5102
-23.5299
-23.5459
-23.5579
-23.5656
-23.5686
-23.5665
-23.5589
-23.5455
-23.5259
-23.4998
-23.4667
-23.4263
-23.3782
-23.3221
-23.2577
-23.1845
-23.1024
-23.0111
-22.9104
-22.8001
-22.68
-22.5502
-22.4103
-22.26
-22.0995
-21.9292
-21.749
-21.5592
-21.3599
-21.1515
-20.934
-20.7079
-20.4735
-20.2309
-19.9807
-19.7231
-19.4587
-19.1877
-18.9107
-18.6282
-18.3405
-18.0483
-17.7521
-17.4524
-17.1497
-16.8446
-16.5377
-16.2295
-15.9205
-15.6115
-15.3027
-14.9949
-14.6885
-14.384
-14.0819
-13.7827
-13.4867
-13.1944
-12.9061
-12.6222
-12.343
-12.0686
-11.7994
-11.5356
-11.2773
-11.0245
-10.7775
-10.5361
-10.3006
-10.0708
-9.84656
-9.62785
-9.41474
-9.2071
-9.00441
-8.80653
-8.61363
-8.42542
-8.24146
-8.06151
-7.88548
-7.71313
-7.5441
-7.37806
-7.21481
-7.05414
-6.89571
-6.73922
-6.58438
-6.43098
-6.27878
-6.12752
-5.97694
-5.82679
-5.67684
-5.52682
-5.37655
-5.22589
-5.07467
-4.92271
-4.76985
-4.61595
-4.46088
-4.30451
-4.14676
-3.98752
-3.82671
-3.66428
-3.50015
-3.33426
-3.16656
-2.99697
-2.82544
-2.65194
-2.47644
-2.299
-2.11979
-1.93917
-1.75774
-1.57645
-1.39662
-1.21996
-1.04849
-0.884436
-0.730056
-0.587424
-0.458275
-0.343864
-0.244901
-0.161531
-0.0933821
-0.0396359
0.00086524
0.0295226
0.0478685
0.0574889
0.0599383
0.0566957
0.0491141
0.0384076
0.0256287
0.0116772
-0.00270522
-0.0169134
-0.030476
-0.0430295
-0.054312
-0.0641371
-0.0723892
-0.0790028
-0.0839589
-0.0872478
-0.0888473
-0.0887596
-0.0870357
-0.0836729
-0.078627
-0.0716785
-0.0630586
-0.050405
-0.050695
-22.3664
-22.382
-22.3949
-22.4051
-22.4162
-22.4292
-22.4442
-22.4614
-22.4808
-22.5024
-22.526
-22.5517
-22.5793
-22.6088
-22.6402
-22.6733
-22.7078
-22.7437
-22.7808
-22.8188
-22.8576
-22.897
-22.9369
-22.9772
-23.0177
-23.0584
-23.099
-23.1394
-23.1794
-23.2189
-23.2576
-23.2953
-23.3317
-23.3666
-23.3998
-23.431
-23.4598
-23.486
-23.5092
-23.5292
-23.5455
-23.5579
-23.5661
-23.5695
-23.568
-23.561
-23.5483
-23.5295
-23.5042
-23.4719
-23.4324
-23.3852
-23.3301
-23.2666
-23.1945
-23.1134
-23.0231
-22.9234
-22.8141
-22.6951
-22.5663
-22.4271
-22.2775
-22.1179
-21.9484
-21.769
-21.5801
-21.3817
-21.1741
-20.9575
-20.7323
-20.4986
-20.2569
-20.0074
-19.7505
-19.4868
-19.2165
-18.9401
-18.658
-18.3709
-18.0792
-17.7833
-17.484
-17.1816
-16.8767
-16.57
-16.2619
-15.953
-15.6439
-15.3351
-15.0272
-14.7206
-14.4159
-14.1136
-13.814
-13.5177
-13.225
-12.9363
-12.6519
-12.3722
-12.0974
-11.8277
-11.5633
-11.3045
-11.0513
-10.8036
-10.5617
-10.3257
-10.0955
-9.87066
-9.65135
-9.43776
-9.22963
-9.02655
-8.82842
-8.63526
-8.44679
-8.26266
-8.08264
-7.90658
-7.73422
-7.56522
-7.39931
-7.23624
-7.07577
-6.91759
-6.76141
-6.60694
-6.45395
-6.3022
-6.15142
-6.00134
-5.85174
-5.70237
-5.553
-5.4034
-5.25344
-5.10293
-4.9517
-4.79957
-4.64643
-4.49213
-4.33656
-4.17963
-4.02126
-3.86138
-3.69993
-3.53686
-3.37214
-3.20572
-3.03756
-2.86762
-2.69584
-2.52218
-2.34666
-2.16936
-1.99053
-1.81067
-1.63061
-1.45161
-1.27533
-1.10382
-0.939338
-0.784204
-0.64056
-0.510191
-0.394379
-0.293852
-0.208752
-0.138714
-0.0829154
-0.0402151
-0.00922513
0.011558
0.0236948
0.0287037
0.0280356
0.0230088
0.0148138
0.00447502
-0.00712401
-0.019261
-0.0313397
-0.0429006
-0.0535823
-0.0631285
-0.0713503
-0.0781365
-0.0834219
-0.0871833
-0.08938
-0.0900012
-0.0890986
-0.0867401
-0.0829287
-0.0776809
-0.0708193
-0.0629194
-0.051049
-0.0568841
-22.3721
-22.3889
-22.4029
-22.4139
-22.4256
-22.439
-22.4543
-22.4716
-22.4911
-22.5126
-22.5361
-22.5616
-22.589
-22.6182
-22.6492
-22.6817
-22.7156
-22.7508
-22.7872
-22.8246
-22.8627
-22.9016
-22.941
-22.9808
-23.021
-23.0613
-23.1017
-23.1419
-23.1818
-23.2211
-23.2598
-23.2975
-23.334
-23.369
-23.4023
-23.4336
-23.4627
-23.4891
-23.5126
-23.5329
-23.5496
-23.5625
-23.571
-23.575
-23.574
-23.5676
-23.5555
-23.5373
-23.5127
-23.4811
-23.4424
-23.396
-23.3416
-23.2789
-23.2076
-23.1273
-23.0377
-22.9388
-22.8302
-22.7119
-22.5836
-22.4447
-22.2955
-22.1363
-21.9673
-21.7884
-21.6
-21.4021
-21.195
-20.9789
-20.7541
-20.5209
-20.2796
-20.0305
-19.774
-19.5106
-19.2406
-18.9644
-18.6826
-18.3957
-18.1041
-17.8083
-17.509
-17.2066
-16.9018
-16.5949
-16.2867
-15.9777
-15.6685
-15.3595
-15.0513
-14.7444
-14.4394
-14.1367
-13.8369
-13.5402
-13.2471
-12.958
-12.6733
-12.3932
-12.118
-11.8478
-11.583
-11.324
-11.0704
-10.8222
-10.5799
-10.3435
-10.1129
-9.88788
-9.66845
-9.45468
-9.24638
-9.04324
-8.84515
-8.65202
-8.46361
-8.27961
-8.0998
-7.92397
-7.75186
-7.58317
-7.41763
-7.25496
-7.09492
-6.9372
-6.78152
-6.6276
-6.47518
-6.324
-6.17382
-6.02436
-5.87538
-5.72665
-5.57793
-5.42901
-5.27971
-5.12984
-4.97925
-4.82775
-4.67522
-4.52152
-4.36655
-4.2102
-4.05242
-3.89314
-3.73232
-3.56992
-3.40594
-3.24035
-3.07314
-2.90426
-2.73369
-2.56135
-2.38721
-2.21128
-2.03372
-1.8549
-1.67556
-1.49685
-1.32044
-1.14839
-0.983045
-0.826827
-0.681966
-0.550321
-0.43321
-0.331371
-0.244932
-0.173506
-0.11625
-0.0720066
-0.0393782
-0.0168654
-0.00291665
0.00396855
0.00522185
0.00213778
-0.00411491
-0.0125342
-0.0222557
-0.0325749
-0.0429096
-0.0528125
-0.0619305
-0.0700137
-0.0768785
-0.0824229
-0.0865835
-0.0893139
-0.0905578
-0.0903631
-0.0888131
-0.0859675
-0.0818492
-0.0765396
-0.069888
-0.062841
-0.0516863
-0.0629602
-22.3808
-22.3981
-22.4126
-22.4243
-22.4365
-22.4502
-22.4657
-22.4831
-22.5026
-22.5241
-22.5475
-22.5728
-22.5999
-22.6287
-22.6592
-22.6913
-22.7247
-22.7593
-22.7951
-22.8319
-22.8696
-22.908
-22.947
-22.9865
-23.0264
-23.0665
-23.1068
-23.1469
-23.1867
-23.2261
-23.2648
-23.3026
-23.3392
-23.3744
-23.4079
-23.4394
-23.4687
-23.4954
-23.5193
-23.5399
-23.557
-23.5702
-23.5792
-23.5836
-23.5831
-23.5773
-23.5657
-23.5481
-23.524
-23.4931
-23.4549
-23.4092
-23.3554
-23.2933
-23.2226
-23.1428
-23.0539
-22.9554
-22.8473
-22.7294
-22.6011
-22.4622
-22.3132
-22.1542
-21.9854
-21.8068
-21.6185
-21.4209
-21.214
-20.9981
-20.7735
-20.5404
-20.2992
-20.0503
-19.7939
-19.5305
-19.2606
-18.9844
-18.7026
-18.4156
-18.1239
-17.8281
-17.5286
-17.2261
-16.921
-16.6139
-16.3054
-15.9961
-15.6866
-15.3773
-15.0688
-14.7616
-14.4562
-14.1532
-13.8531
-13.556
-13.2624
-12.973
-12.688
-12.4077
-12.1321
-11.8614
-11.5964
-11.3369
-11.0831
-10.8348
-10.5923
-10.3558
-10.1251
-9.90003
-9.68067
-9.46697
-9.25876
-9.05581
-8.85797
-8.66511
-8.47699
-8.29336
-8.11396
-7.93858
-7.76695
-7.59878
-7.4338
-7.27173
-7.11229
-6.95521
-6.80018
-6.64693
-6.4952
-6.34471
-6.19522
-6.04645
-5.89815
-5.7501
-5.60204
-5.45377
-5.3051
-5.15583
-5.0058
-4.85483
-4.70279
-4.54955
-4.39499
-4.23902
-4.08158
-3.92261
-3.7621
-3.60001
-3.43637
-3.27117
-3.10442
-2.93611
-2.76622
-2.59467
-2.42141
-2.24637
-2.06961
-1.89139
-1.71233
-1.53353
-1.3566
-1.18366
-1.01716
-0.859641
-0.713442
-0.580513
-0.462214
-0.359291
-0.271844
-0.199454
-0.141231
-0.0959844
-0.0622864
-0.038627
-0.0234443
-0.0152479
-0.0126123
-0.0142639
-0.0190479
-0.0259865
-0.0342297
-0.0430958
-0.0520147
-0.0605569
-0.0683764
-0.0752365
-0.0809631
-0.0854682
-0.0886704
-0.0904948
-0.0909314
-0.090086
-0.0880243
-0.0848159
-0.0805047
-0.0752391
-0.0688733
-0.0627481
-0.0521837
-0.0686688
-22.3916
-22.4092
-22.4238
-22.4359
-22.4484
-22.4623
-22.4779
-22.4954
-22.5148
-22.5362
-22.5594
-22.5844
-22.6112
-22.6397
-22.6698
-22.7014
-22.7343
-22.7685
-22.8038
-22.8401
-22.8774
-22.9155
-22.9542
-22.9935
-23.0333
-23.0733
-23.1135
-23.1536
-23.1935
-23.2329
-23.2717
-23.3097
-23.3465
-23.3819
-23.4156
-23.4474
-23.477
-23.504
-23.5281
-23.5491
-23.5665
-23.5801
-23.5895
-23.5943
-23.5942
-23.5888
-23.5778
-23.5606
-23.537
-23.5066
-23.4689
-23.4236
-23.3704
-23.3087
-23.2384
-23.159
-23.0704
-22.9722
-22.8644
-22.7466
-22.618
-22.4788
-22.3298
-22.1708
-22.002
-21.8234
-21.6352
-21.4376
-21.2307
-21.0148
-20.7902
-20.5571
-20.3158
-20.0668
-19.8104
-19.5469
-19.2768
-19.0005
-18.7184
-18.4312
-18.1393
-17.8432
-17.5434
-17.2406
-16.9352
-16.6277
-16.3189
-16.0092
-15.6994
-15.3898
-15.0808
-14.7732
-14.4674
-14.1641
-13.8637
-13.5663
-13.2722
-12.9824
-12.697
-12.4164
-12.1405
-11.8698
-11.6045
-11.3449
-11.0909
-10.8426
-10.6002
-10.3637
-10.1331
-9.90824
-9.68913
-9.4757
-9.26779
-9.06523
-8.86783
-8.67544
-8.48783
-8.30475
-8.12596
-7.95122
-7.78025
-7.61278
-7.44851
-7.28718
-7.12851
-6.97219
-6.81794
-6.66548
-6.51453
-6.36482
-6.21608
-6.06806
-5.92049
-5.77313
-5.62575
-5.47812
-5.33005
-5.18134
-5.0318
-4.88128
-4.72962
-4.57669
-4.42239
-4.26661
-4.10929
-3.95038
-3.78987
-3.62776
-3.46407
-3.29882
-3.13207
-2.96382
-2.79408
-2.6228
-2.44988
-2.27524
-2.09884
-1.92083
-1.74171
-1.56249
-1.38476
-1.21069
-1.04284
-0.88387
-0.736274
-0.602094
-0.482735
-0.378948
-0.290796
-0.217813
-0.159045
-0.113257
-0.0789725
-0.0546576
-0.0387307
-0.0296991
-0.0261389
-0.0267896
-0.0305094
-0.0363401
-0.0434494
-0.0511754
-0.0589645
-0.0664034
-0.073158
-0.0790083
-0.0837974
-0.0874358
-0.0898029
-0.0908483
-0.0906388
-0.0892804
-0.0868256
-0.08336
-0.0789488
-0.0738049
-0.0677643
-0.0625838
-0.0524504
-0.0738195
-22.4042
-22.4215
-22.436
-22.4483
-22.4609
-22.4749
-22.4905
-22.5079
-22.5272
-22.5483
-22.5713
-22.5961
-22.6225
-22.6507
-22.6803
-22.7115
-22.744
-22.7777
-22.8127
-22.8487
-22.8857
-22.9235
-22.9621
-23.0013
-23.0409
-23.081
-23.1212
-23.1614
-23.2014
-23.241
-23.2799
-23.3181
-23.3551
-23.3907
-23.4247
-23.4567
-23.4866
-23.5138
-23.5383
-23.5595
-23.5773
-23.5912
-23.6009
-23.6061
-23.6063
-23.6013
-23.5906
-23.5738
-23.5506
-23.5206
-23.4833
-23.4383
-23.3854
-23.3241
-23.254
-23.1749
-23.0864
-22.9884
-22.8807
-22.7623
-22.6331
-22.4938
-22.3446
-22.1855
-22.0165
-21.8378
-21.6495
-21.4518
-21.2448
-21.0287
-20.8039
-20.5707
-20.3292
-20.08
-19.8233
-19.5596
-19.2893
-19.0126
-18.7303
-18.4427
-18.1504
-17.854
-17.5539
-17.2507
-16.9449
-16.637
-16.3277
-16.0177
-15.7075
-15.3976
-15.0882
-14.78
-14.4738
-14.1701
-13.8693
-13.5715
-13.2772
-12.9871
-12.7015
-12.4206
-12.1446
-11.8737
-11.6084
-11.3487
-11.0948
-10.8467
-10.6044
-10.3682
-10.1378
-9.91333
-9.69462
-9.48164
-9.27423
-9.07222
-8.87543
-8.68369
-8.49676
-8.31441
-8.13638
-7.96243
-7.79228
-7.62564
-7.46224
-7.30178
-7.14398
-6.98855
-6.83518
-6.68359
-6.5335
-6.38464
-6.23673
-6.08949
-5.94268
-5.79605
-5.64935
-5.50235
-5.35485
-5.20665
-5.05757
-4.90742
-4.75606
-4.60334
-4.44916
-4.2934
-4.13602
-3.97695
-3.81619
-3.65375
-3.48966
-3.32397
-3.15676
-2.98808
-2.81797
-2.64641
-2.47331
-2.29856
-2.12207
-1.94388
-1.76438
-1.58448
-1.40574
-1.23037
-1.06102
-0.900529
-0.751517
-0.616142
-0.495849
-0.391399
-0.302805
-0.229549
-0.170599
-0.124662
-0.0902029
-0.0656536
-0.0493999
-0.0399436
-0.0358516
-0.0358766
-0.0388828
-0.0439341
-0.0502108
-0.0570759
-0.0639886
-0.070556
-0.0764564
-0.0814975
-0.0855293
-0.0884351
-0.0900729
-0.0904888
-0.0897806
-0.0880275
-0.0852812
-0.0816488
-0.077211
-0.0722439
-0.0665422
-0.0622932
-0.0524313
-0.0782742
-22.4179
-22.4347
-22.4487
-22.461
-22.4737
-22.4875
-22.503
-22.5202
-22.5393
-22.5602
-22.5828
-22.6072
-22.6334
-22.6611
-22.6904
-22.7211
-22.7533
-22.7867
-22.8214
-22.8571
-22.8939
-22.9316
-22.9701
-23.0093
-23.049
-23.0891
-23.1294
-23.1697
-23.2098
-23.2496
-23.2888
-23.3271
-23.3644
-23.4002
-23.4344
-23.4667
-23.4968
-23.5243
-23.5489
-23.5704
-23.5884
-23.6026
-23.6125
-23.6179
-23.6185
-23.6137
-23.6033
-23.5868
-23.5638
-23.534
-23.497
-23.4523
-23.3995
-23.3383
-23.2684
-23.1893
-23.1009
-23.0029
-22.8947
-22.7756
-22.6459
-22.5064
-22.3569
-22.1976
-22.0284
-21.8495
-21.661
-21.463
-21.2558
-21.0394
-20.8144
-20.5808
-20.3391
-20.0896
-19.8327
-19.5686
-19.298
-19.021
-18.7382
-18.4502
-18.1576
-17.8607
-17.5603
-17.2568
-16.9505
-16.6421
-16.3324
-16.0219
-15.7111
-15.4007
-15.091
-14.7825
-14.4759
-14.1718
-13.8705
-13.5725
-13.278
-12.9877
-12.7019
-12.4209
-12.1448
-11.874
-11.6088
-11.3492
-11.0955
-10.8476
-10.6057
-10.3698
-10.1399
-9.91591
-9.69777
-9.4854
-9.27865
-9.07735
-8.88133
-8.69038
-8.5043
-8.32282
-8.1457
-7.97268
-7.80347
-7.6378
-7.47538
-7.3159
-7.15908
-7.00462
-6.85221
-6.70157
-6.55241
-6.40444
-6.25739
-6.11099
-5.96496
-5.81906
-5.67304
-5.52666
-5.37971
-5.23199
-5.08331
-4.93347
-4.78233
-4.62973
-4.47555
-4.31969
-4.16208
-4.00266
-3.84143
-3.67838
-3.51357
-3.34706
-3.17897
-3.00937
-2.83836
-2.66595
-2.4921
-2.31671
-2.13965
-1.96088
-1.78069
-1.59988
-1.41995
-1.24314
-1.07222
-0.910182
-0.759784
-0.623301
-0.502228
-0.397325
-0.308552
-0.235326
-0.176532
-0.130807
-0.0965465
-0.0721406
-0.0559366
-0.0464212
-0.0421506
-0.0418836
-0.0444913
-0.0490551
-0.0547717
-0.0610252
-0.0672907
-0.0731945
-0.0784384
-0.0828551
-0.0862772
-0.0885427
-0.0895855
-0.0895326
-0.088447
-0.0864019
-0.0834552
-0.0797327
-0.0753271
-0.0705742
-0.0652044
-0.0618486
-0.0520995
-0.0819371
-22.4321
-22.4483
-22.4617
-22.4738
-22.4863
-22.4999
-22.5151
-22.5321
-22.5508
-22.5713
-22.5936
-22.6176
-22.6434
-22.6707
-22.6997
-22.7301
-22.7619
-22.7951
-22.8296
-22.8652
-22.9019
-22.9395
-22.978
-23.0172
-23.057
-23.0972
-23.1376
-23.1781
-23.2185
-23.2584
-23.2978
-23.3363
-23.3738
-23.4098
-23.4442
-23.4767
-23.5069
-23.5345
-23.5594
-23.581
-23.5991
-23.6134
-23.6235
-23.629
-23.6297
-23.6251
-23.6148
-23.5985
-23.5757
-23.546
-23.509
-23.4644
-23.4118
-23.3506
-23.2806
-23.2015
-23.113
-23.0148
-22.9057
-22.7856
-22.6556
-22.5158
-22.3661
-22.2064
-22.037
-21.8578
-21.669
-21.4708
-21.2632
-21.0466
-20.8212
-20.5873
-20.3453
-20.0955
-19.8382
-19.5739
-19.3029
-19.0256
-18.7423
-18.4539
-18.1608
-17.8635
-17.5626
-17.2586
-16.9519
-16.6431
-16.333
-16.022
-15.7108
-15.3999
-15.0897
-14.7809
-14.474
-14.1696
-13.868
-13.5697
-13.2751
-12.9847
-12.6988
-12.4178
-12.1418
-11.8712
-11.6061
-11.3468
-11.0934
-10.8459
-10.6045
-10.3691
-10.1398
-9.91642
-9.69899
-9.48738
-9.28143
-9.08099
-8.88587
-8.69587
-8.51076
-8.33029
-8.1542
-7.98222
-7.81408
-7.64948
-7.48813
-7.32973
-7.17397
-7.02056
-6.86919
-6.71955
-6.57137
-6.42434
-6.27819
-6.13264
-5.98741
-5.84225
-5.69691
-5.55114
-5.40473
-5.25746
-5.10913
-4.95956
-4.80857
-4.65602
-4.50177
-4.3457
-4.18774
-4.02782
-3.86592
-3.70204
-3.53625
-3.3686
-3.19924
-3.02827
-2.85584
-2.68202
-2.50685
-2.33025
-2.15209
-1.97231
-1.79108
-1.60911
-1.42783
-1.24949
-1.07696
-0.91337
-0.761633
-0.624144
-0.502438
-0.397282
-0.308568
-0.23565
-0.177314
-0.132127
-0.0984018
-0.0744831
-0.0586675
-0.0494276
-0.045298
-0.0450466
-0.0475431
-0.0518915
-0.0572984
-0.0631736
-0.0690033
-0.0744436
-0.079221
-0.0831794
-0.0860911
-0.0878282
-0.0884388
-0.0880503
-0.086693
-0.0844496
-0.0813815
-0.0776348
-0.0733074
-0.0687921
-0.0637366
-0.0612155
-0.051448
-0.0847491
-22.4466
-22.462
-22.4747
-22.4864
-22.4985
-22.5118
-22.5266
-22.5431
-22.5614
-22.5815
-22.6034
-22.627
-22.6523
-22.6793
-22.7079
-22.7381
-22.7697
-22.8027
-22.837
-22.8726
-22.9092
-22.9469
-22.9855
-23.0248
-23.0647
-23.105
-23.1456
-23.1863
-23.2268
-23.2669
-23.3065
-23.3451
-23.3827
-23.4189
-23.4534
-23.4859
-23.5162
-23.5439
-23.5687
-23.5904
-23.6085
-23.6228
-23.6329
-23.6385
-23.6392
-23.6346
-23.6243
-23.608
-23.5852
-23.5555
-23.5186
-23.4739
-23.4212
-23.36
-23.2899
-23.2107
-23.122
-23.0228
-22.9125
-22.7919
-22.6616
-22.5215
-22.3714
-22.2114
-22.0417
-21.8622
-21.6731
-21.4747
-21.2669
-21.0499
-20.8242
-20.5901
-20.3477
-20.0975
-19.8399
-19.5751
-19.3038
-19.0261
-18.7426
-18.4538
-18.1602
-17.8625
-17.5611
-17.2566
-16.9494
-16.6402
-16.3296
-16.0183
-15.7066
-15.3953
-15.0848
-14.7757
-14.4685
-14.1638
-13.862
-13.5636
-13.269
-12.9786
-12.6927
-12.4117
-12.1359
-11.8656
-11.6008
-11.3419
-11.0889
-10.842
-10.6011
-10.3664
-10.1378
-9.91526
-9.69867
-9.48795
-9.28295
-9.0835
-8.88941
-8.70048
-8.51646
-8.33711
-8.16216
-7.99134
-7.82436
-7.66092
-7.50073
-7.34347
-7.18885
-7.03655
-6.88626
-6.73768
-6.59052
-6.44446
-6.29923
-6.15454
-6.01012
-5.8657
-5.72102
-5.57585
-5.42995
-5.28309
-5.13509
-4.98573
-4.83485
-4.68228
-4.52788
-4.37151
-4.2131
-4.05255
-3.88984
-3.72495
-3.55794
-3.38887
-3.21788
-3.04512
-2.87078
-2.695
-2.5179
-2.33947
-2.15965
-1.97835
-1.79569
-1.61229
-1.4295
-1.24956
-1.07539
-0.910284
-0.757291
-0.618926
-0.496765
-0.391572
-0.303171
-0.230844
-0.173271
-0.128941
-0.0960795
-0.0729768
-0.0578763
-0.0492277
-0.0455443
-0.0455956
-0.0482534
-0.0526384
-0.0579715
-0.0636827
-0.0692763
-0.0744433
-0.0789334
-0.0825548
-0.0850409
-0.0863974
-0.0867293
-0.0861173
-0.0845857
-0.0822273
-0.0791098
-0.0753948
-0.071182
-0.0669172
-0.0621478
-0.0603896
-0.050488
-0.0866792
-22.461
-22.4755
-22.4873
-22.4985
-22.5101
-22.5229
-22.5372
-22.5531
-22.5709
-22.5905
-22.6119
-22.6351
-22.6601
-22.6867
-22.7151
-22.745
-22.7765
-22.8094
-22.8436
-22.8791
-22.9158
-22.9536
-22.9922
-23.0316
-23.0717
-23.1122
-23.1529
-23.1937
-23.2344
-23.2746
-23.3142
-23.353
-23.3906
-23.4267
-23.4612
-23.4937
-23.5239
-23.5515
-23.5763
-23.5978
-23.6158
-23.63
-23.6399
-23.6454
-23.646
-23.6413
-23.6309
-23.6144
-23.5915
-23.5617
-23.5247
-23.4799
-23.427
-23.3655
-23.2953
-23.2158
-23.1263
-23.0259
-22.9149
-22.7941
-22.6635
-22.523
-22.3726
-22.2123
-22.0422
-21.8624
-21.6731
-21.4743
-21.2663
-21.0491
-20.8232
-20.5887
-20.3461
-20.0955
-19.8375
-19.5724
-19.3007
-19.0226
-18.7387
-18.4495
-18.1556
-17.8575
-17.5556
-17.2507
-16.9431
-16.6336
-16.3226
-16.0108
-15.6988
-15.3872
-15.0764
-14.7671
-14.4597
-14.1548
-13.853
-13.5545
-13.2599
-12.9695
-12.6838
-12.4031
-12.1276
-11.8576
-11.5933
-11.3348
-11.0824
-10.8362
-10.596
-10.3621
-10.1343
-9.9127
-9.69708
-9.48737
-9.28344
-9.08509
-8.89215
-8.70439
-8.52157
-8.34344
-8.16972
-8.00014
-7.83441
-7.67221
-7.51325
-7.3572
-7.20377
-7.05263
-6.90347
-6.75598
-6.60986
-6.46479
-6.3205
-6.17668
-6.03307
-5.88938
-5.74536
-5.60076
-5.45535
-5.30888
-5.16117
-5.01199
-4.86118
-4.70853
-4.55393
-4.3972
-4.23826
-4.077
-3.91337
-3.74734
-3.57894
-3.40823
-3.23535
-3.06045
-2.88376
-2.7055
-2.52587
-2.34499
-2.16287
-1.9795
-1.79497
-1.60981
-1.4253
-1.24365
-1.06783
-0.901242
-0.747077
-0.607964
-0.485511
-0.380486
-0.292631
-0.221159
-0.164632
-0.121461
-0.0897709
-0.0677984
-0.0537208
-0.0459675
-0.0430189
-0.0436514
-0.0467295
-0.0513972
-0.0568808
-0.0626371
-0.0681905
-0.0732767
-0.0776305
-0.0809939
-0.0831794
-0.0843304
-0.084505
-0.0837721
-0.0821538
-0.079758
-0.076653
-0.0730183
-0.0689487
-0.0649393
-0.060428
-0.0593503
-0.0492383
-0.0877243
-22.4751
-22.4886
-22.4994
-22.5099
-22.5209
-22.533
-22.5466
-22.562
-22.5792
-22.5982
-22.6191
-22.6419
-22.6665
-22.6929
-22.721
-22.7507
-22.7821
-22.8149
-22.8492
-22.8847
-22.9215
-22.9593
-22.9981
-23.0376
-23.0778
-23.1184
-23.1592
-23.2001
-23.2408
-23.281
-23.3206
-23.3592
-23.3967
-23.4327
-23.467
-23.4993
-23.5293
-23.5567
-23.5811
-23.6023
-23.6201
-23.6339
-23.6436
-23.6488
-23.6491
-23.6442
-23.6337
-23.617
-23.5939
-23.5639
-23.5266
-23.4816
-23.4285
-23.3668
-23.2963
-23.2161
-23.1251
-23.0238
-22.9126
-22.7915
-22.6606
-22.5198
-22.3691
-22.2086
-22.0383
-21.8582
-21.6686
-21.4696
-21.2613
-21.0438
-20.8176
-20.5829
-20.34
-20.0892
-19.8309
-19.5655
-19.2934
-19.015
-18.7308
-18.4413
-18.147
-17.8485
-17.5464
-17.241
-16.9332
-16.6233
-16.312
-16
-15.6877
-15.3758
-15.0648
-14.7553
-14.4479
-14.1429
-13.8411
-13.5426
-13.2482
-12.958
-12.6726
-12.3921
-12.117
-11.8475
-11.5837
-11.3259
-11.0743
-10.8287
-10.5895
-10.3564
-10.1296
-9.90902
-9.69448
-9.48591
-9.28314
-9.08602
-8.89432
-8.70783
-8.5263
-8.34948
-8.17708
-8.00882
-7.84439
-7.6835
-7.52582
-7.37104
-7.21884
-7.06889
-6.92089
-6.77451
-6.62944
-6.48538
-6.34202
-6.19907
-6.05626
-5.91328
-5.76991
-5.62585
-5.4809
-5.33479
-5.18733
-5.03828
-4.88749
-4.73473
-4.57986
-4.42272
-4.26319
-4.10114
-3.93651
-3.76923
-3.59932
-3.4268
-3.25179
-3.07445
-2.89504
-2.71381
-2.53109
-2.34711
-2.16204
-1.97596
-1.78903
-1.60173
-1.41526
-1.23178
-1.05427
-0.886253
-0.731018
-0.591307
-0.468754
-0.364124
-0.277071
-0.206735
-0.151553
-0.109852
-0.0796508
-0.0591252
-0.0463833
-0.0398252
-0.0379004
-0.0393835
-0.0431373
-0.0483213
-0.0541722
-0.0601715
-0.0658802
-0.0710599
-0.075377
-0.0785703
-0.0806263
-0.0817137
-0.0818396
-0.0810776
-0.0794546
-0.0770897
-0.0740545
-0.070541
-0.0666372
-0.0628826
-0.0585964
-0.058111
-0.0477314
-0.087899
-22.4886
-22.5011
-22.5109
-22.5206
-22.5307
-22.5421
-22.5549
-22.5696
-22.5861
-22.6046
-22.625
-22.6473
-22.6716
-22.6977
-22.7256
-22.7552
-22.7865
-22.8193
-22.8536
-22.8892
-22.926
-22.964
-23.0028
-23.0424
-23.0826
-23.1232
-23.164
-23.2048
-23.2454
-23.2854
-23.3248
-23.3631
-23.4003
-23.436
-23.4699
-23.5018
-23.5315
-23.5584
-23.5824
-23.6032
-23.6205
-23.6339
-23.6432
-23.648
-23.648
-23.6427
-23.6318
-23.6149
-23.5915
-23.5612
-23.5237
-23.4784
-23.425
-23.3631
-23.2918
-23.2101
-23.1181
-23.0164
-22.9049
-22.7836
-22.6525
-22.5115
-22.3606
-22.1998
-22.0293
-21.849
-21.6592
-21.4599
-21.2514
-21.0338
-20.8075
-20.5726
-20.3294
-20.0784
-19.8199
-19.5543
-19.2819
-19.0033
-18.7189
-18.4291
-18.1346
-17.8358
-17.5334
-17.2278
-16.9197
-16.6096
-16.2981
-15.9859
-15.6734
-15.3614
-15.0503
-14.7408
-14.4333
-14.1284
-13.8266
-13.5284
-13.2341
-12.9442
-12.6592
-12.3792
-12.1046
-11.8356
-11.5725
-11.3155
-11.0646
-10.82
-10.5816
-10.3496
-10.1239
-9.90442
-9.69106
-9.48372
-9.28223
-9.0864
-8.89604
-8.7109
-8.53075
-8.3553
-8.18429
-8.0174
-7.85435
-7.6948
-7.53845
-7.38497
-7.23403
-7.08531
-6.93848
-6.79322
-6.64922
-6.50615
-6.36373
-6.22163
-6.0796
-5.93733
-5.79457
-5.65103
-5.50651
-5.36072
-5.21348
-5.06453
-4.91372
-4.7608
-4.60565
-4.44804
-4.28789
-4.12501
-3.95933
-3.79075
-3.61925
-3.44481
-3.26754
-3.08755
-2.90513
-2.72055
-2.53423
-2.34654
-2.15784
-1.96838
-1.77842
-1.58849
-1.39973
-1.21424
-1.03498
-0.865555
-0.709332
-0.569152
-0.446664
-0.342634
-0.256615
-0.187678
-0.134124
-0.0941947
-0.0657891
-0.0470232
-0.035921
-0.0308581
-0.0302387
-0.0328441
-0.0375233
-0.0434586
-0.0498882
-0.0563365
-0.0623966
-0.0678146
-0.0721622
-0.0753328
-0.0774344
-0.0785789
-0.0787545
-0.0780517