/*--------------------------------*- C++ -*----------------------------------*\
  =========                 |
  \\      /  F ield         | OpenFOAM: The Open Source CFD Toolbox
   \\    /   O peration     | Website:  https://openfoam.org
    \\  /    A nd           | Version:  7
     \\/     M anipulation  |
\*---------------------------------------------------------------------------*/
FoamFile
{
    version     2.0;
    format      ascii;
    class       surfaceScalarField;
    location    "750";
    object      phi;
}
// * * * * * * * * * * * * * * * * * * * * * * * * * * * * * * * * * * * * * //

dimensions      [0 3 -1 0 0 0 0];

internalField   nonuniform List<scalar> 
33502
(
3.20679e-09
-3.20331e-09
-3.16256e-08
3.4834e-08
-8.39449e-08
5.23232e-08
-1.42688e-07
5.87421e-08
-2.03991e-07
6.13076e-08
-2.66545e-07
6.25515e-08
-3.29832e-07
6.32901e-08
-3.93652e-07
6.38175e-08
-4.57945e-07
6.42929e-08
-5.22806e-07
6.48627e-08
-5.88519e-07
6.57123e-08
-6.55549e-07
6.70314e-08
-7.24402e-07
6.88537e-08
-7.94991e-07
7.05897e-08
-8.63859e-07
6.88689e-08
-9.31824e-07
6.7966e-08
-1.008e-06
7.61774e-08
-1.07943e-06
7.14307e-08
-1.14017e-06
6.07315e-08
-1.20291e-06
6.27459e-08
-1.26615e-06
6.32329e-08
-1.32918e-06
6.3037e-08
-1.39178e-06
6.25913e-08
-1.45385e-06
6.20713e-08
-1.51538e-06
6.15344e-08
-1.57639e-06
6.10015e-08
-1.63686e-06
6.04713e-08
-1.69679e-06
5.99377e-08
-1.75619e-06
5.9392e-08
-1.81501e-06
5.88254e-08
-1.87324e-06
5.82291e-08
-1.93083e-06
5.75954e-08
-1.98775e-06
5.6917e-08
-2.04394e-06
5.61876e-08
-2.09934e-06
5.54017e-08
-2.15389e-06
5.45542e-08
-2.20753e-06
5.36408e-08
-2.26019e-06
5.26577e-08
-2.31179e-06
5.16013e-08
-2.36226e-06
5.04685e-08
-2.41151e-06
4.92565e-08
-2.45948e-06
4.79627e-08
-2.50606e-06
4.65847e-08
-2.55118e-06
4.51204e-08
-2.59475e-06
4.35677e-08
-2.63667e-06
4.19251e-08
-2.67686e-06
4.01913e-08
-2.71523e-06
3.83654e-08
-2.75168e-06
3.64473e-08
-2.78611e-06
3.44372e-08
-2.81845e-06
3.23363e-08
-2.8486e-06
3.01466e-08
-2.87647e-06
2.78709e-08
-2.90198e-06
2.55132e-08
-2.92506e-06
2.30783e-08
-2.94563e-06
2.05723e-08
-2.96364e-06
1.80019e-08
-2.97901e-06
1.53747e-08
-2.99171e-06
1.26986e-08
-3.00169e-06
9.98203e-09
-3.00893e-06
7.23242e-09
-3.01338e-06
4.4549e-09
-3.01504e-06
1.65373e-09
-3.01388e-06
-1.15797e-09
-3.00994e-06
-3.94338e-09
-3.00325e-06
-6.68644e-09
-2.99385e-06
-9.40086e-09
-2.98177e-06
-1.20893e-08
-2.96702e-06
-1.47515e-08
-2.94963e-06
-1.7385e-08
-2.92965e-06
-1.99874e-08
-2.90709e-06
-2.25548e-08
-2.88201e-06
-2.50838e-08
-2.85444e-06
-2.757e-08
-2.82443e-06
-3.00095e-08
-2.79204e-06
-3.23973e-08
-2.75731e-06
-3.47289e-08
-2.72031e-06
-3.69988e-08
-2.68111e-06
-3.92018e-08
-2.63978e-06
-4.13321e-08
-2.5964e-06
-4.33847e-08
-2.55104e-06
-4.53542e-08
-2.50381e-06
-4.72361e-08
-2.45478e-06
-4.90251e-08
-2.40407e-06
-5.07166e-08
-2.35176e-06
-5.2305e-08
-2.29798e-06
-5.37858e-08
-2.24282e-06
-5.51545e-08
-2.18642e-06
-5.64079e-08
-2.12887e-06
-5.75428e-08
-2.07031e-06
-5.85567e-08
-2.01087e-06
-5.94458e-08
-1.95066e-06
-6.02076e-08
-1.88982e-06
-6.08406e-08
-1.82847e-06
-6.13451e-08
-1.76675e-06
-6.17216e-08
-1.70477e-06
-6.19698e-08
-1.64268e-06
-6.20881e-08
-1.5806e-06
-6.20784e-08
-1.51865e-06
-6.19446e-08
-1.45696e-06
-6.16919e-08
-1.39563e-06
-6.13217e-08
-1.33479e-06
-6.08347e-08
-1.27455e-06
-6.02364e-08
-1.21501e-06
-5.95368e-08
-1.15626e-06
-5.87431e-08
-1.0984e-06
-5.78554e-08
-1.04152e-06
-5.68779e-08
-9.85688e-07
-5.58228e-08
-9.30974e-07
-5.47072e-08
-8.77434e-07
-5.35326e-08
-8.25133e-07
-5.22944e-08
-7.7412e-07
-5.10056e-08
-7.24415e-07
-4.96969e-08
-6.76034e-07
-4.83748e-08
-6.29006e-07
-4.70198e-08
-5.83357e-07
-4.56414e-08
-5.39064e-07
-4.42854e-08
-4.96088e-07
-4.29699e-08
-4.5442e-07
-4.16603e-08
-4.14062e-07
-4.03519e-08
-3.74957e-07
-3.90976e-08
-3.3701e-07
-3.79422e-08
-3.00152e-07
-3.6852e-08
-2.64348e-07
-3.57987e-08
-2.29549e-07
-3.47942e-08
-1.95626e-07
-3.39184e-08
-1.62429e-07
-3.31931e-08
-1.29883e-07
-3.25434e-08
-9.78908e-08
-3.19887e-08
-6.63261e-08
-3.15641e-08
-3.50378e-08
-3.12878e-08
-3.88251e-09
-3.11565e-08
2.72859e-08
-3.11695e-08
5.85437e-08
-3.12602e-08
8.99958e-08
-3.14559e-08
1.2186e-07
-3.18696e-08
1.5437e-07
-3.25164e-08
1.87748e-07
-3.33858e-08
2.22205e-07
-3.44657e-08
2.57942e-07
-3.57448e-08
2.95149e-07
-3.72168e-08
3.3401e-07
-3.88713e-08
3.74698e-07
-4.06989e-08
4.17374e-07
-4.26864e-08
4.62184e-07
-4.48215e-08
5.09264e-07
-4.70898e-08
5.58734e-07
-4.94806e-08
6.10711e-07
-5.19866e-08
6.65312e-07
-5.46094e-08
7.22666e-07
-5.73618e-08
7.82932e-07
-6.02722e-08
8.46311e-07
-6.33844e-08
9.13064e-07
-6.67561e-08
9.83512e-07
-7.04509e-08
1.05804e-06
-7.45244e-08
1.13704e-06
-7.90059e-08
1.22092e-06
-8.38768e-08
1.30997e-06
-8.90544e-08
1.40435e-06
-9.43819e-08
1.50399e-06
-9.96369e-08
1.60853e-06
-1.04549e-07
1.71737e-06
-1.08835e-07
1.8296e-06
-1.12234e-07
1.94413e-06
-1.14539e-07
2.05975e-06
-1.15618e-07
2.17517e-06
-1.15424e-07
2.28916e-06
-1.13982e-07
2.40054e-06
-1.11388e-07
2.50832e-06
-1.07779e-07
2.61164e-06
-1.03321e-07
2.70983e-06
-9.819e-08
2.80239e-06
-9.25608e-08
2.88899e-06
-8.65939e-08
2.96942e-06
-8.04365e-08
3.04363e-06
-7.42111e-08
3.11165e-06
-6.80242e-08
3.17361e-06
-6.19573e-08
3.22969e-06
-5.60782e-08
3.28012e-06
-5.04335e-08
3.32518e-06
-4.50605e-08
3.36517e-06
-3.99793e-08
3.40037e-06
-3.52051e-08
3.43112e-06
-3.07399e-08
3.4577e-06
-2.65842e-08
3.48044e-06
-2.27284e-08
3.4996e-06
-1.91635e-08
3.51548e-06
-1.58727e-08
3.52832e-06
-1.28411e-08
3.53837e-06
-1.00473e-08
3.54585e-06
-7.47185e-09
3.55094e-06
-5.08922e-09
3.55382e-06
-2.87843e-09
3.55466e-06
-8.35208e-10
3.55356e-06
1.09933e-09
3.55049e-06
3.06018e-09
3.54531e-06
5.17734e-09
3.53763e-06
7.68596e-09
3.52654e-06
1.10851e-08
1.72943e-08
-3.14541e-08
2.82528e-08
-7.1707e-08
7.50887e-08
-1.19913e-07
1.0053e-07
-1.74114e-07
1.12945e-07
-2.31979e-07
1.19173e-07
-2.92086e-07
1.22661e-07
-3.53702e-07
1.24904e-07
-4.16468e-07
1.26584e-07
-4.80223e-07
1.28047e-07
-5.44867e-07
1.29507e-07
-6.10251e-07
1.31095e-07
-6.76067e-07
1.32848e-07
-7.41841e-07
1.34625e-07
-8.07064e-07
1.35813e-07
-8.73314e-07
1.35117e-07
-9.39518e-07
1.3417e-07
-9.98536e-07
1.35194e-07
-1.05932e-06
1.32213e-07
-1.12501e-06
1.26419e-07
-1.18665e-06
1.24384e-07
-1.24644e-06
1.23029e-07
-1.30516e-06
1.21748e-07
-1.36307e-06
1.2051e-07
-1.42032e-06
1.19318e-07
-1.47696e-06
1.1817e-07
-1.53301e-06
1.17055e-07
-1.58849e-06
1.15955e-07
-1.64341e-06
1.14853e-07
-1.69774e-06
1.13728e-07
-1.75148e-06
1.12563e-07
-1.80459e-06
1.11342e-07
-1.85704e-06
1.10048e-07
-1.9088e-06
1.08669e-07
-1.9598e-06
1.07192e-07
-2.01e-06
1.05606e-07
-2.05935e-06
1.03903e-07
-2.10778e-06
1.02073e-07
-2.15523e-06
1.0011e-07
-2.20164e-06
9.8006e-08
-2.24693e-06
9.57559e-08
-2.29102e-06
9.33539e-08
-2.33386e-06
9.07948e-08
-2.37534e-06
8.80739e-08
-2.41541e-06
8.51866e-08
-2.45397e-06
8.21291e-08
-2.49094e-06
7.88978e-08
-2.52624e-06
7.54901e-08
-2.55978e-06
7.19041e-08
-2.59147e-06
6.8139e-08
-2.62123e-06
6.41952e-08
-2.64897e-06
6.00748e-08
-2.6746e-06
5.57812e-08
-2.69805e-06
5.13201e-08
-2.71924e-06
4.66988e-08
-2.73809e-06
4.19268e-08
-2.75453e-06
3.70155e-08
-2.76851e-06
3.19784e-08
-2.77997e-06
2.683e-08
-2.78885e-06
2.15863e-08
-2.79514e-06
1.62635e-08
-2.79878e-06
1.08763e-08
-2.79976e-06
5.43517e-09
-2.79805e-06
-5.44543e-11
-2.79368e-06
-5.52978e-09
-2.78669e-06
-1.09331e-08
-2.7771e-06
-1.62759e-08
-2.76494e-06
-2.15668e-08
-2.75022e-06
-2.68074e-08
-2.73298e-06
-3.19953e-08
-2.71324e-06
-3.71262e-08
-2.69103e-06
-4.21939e-08
-2.6664e-06
-4.71917e-08
-2.63937e-06
-5.21118e-08
-2.60999e-06
-5.69463e-08
-2.57832e-06
-6.16866e-08
-2.54439e-06
-6.63238e-08
-2.50827e-06
-7.08481e-08
-2.47002e-06
-7.52495e-08
-2.42971e-06
-7.95169e-08
-2.3874e-06
-8.36398e-08
-2.34318e-06
-8.76073e-08
-2.29712e-06
-9.141e-08
-2.24932e-06
-9.50379e-08
-2.19987e-06
-9.8482e-08
-2.14885e-06
-1.01732e-07
-2.09638e-06
-1.04779e-07
-2.04255e-06
-1.07613e-07
-1.98748e-06
-1.10225e-07
-1.93128e-06
-1.1261e-07
-1.87406e-06
-1.14761e-07
-1.81594e-06
-1.16675e-07
-1.75704e-06
-1.18343e-07
-1.69749e-06
-1.19762e-07
-1.6374e-06
-1.20929e-07
-1.5769e-06
-1.21843e-07
-1.51611e-06
-1.22509e-07
-1.45516e-06
-1.22925e-07
-1.39415e-06
-1.23089e-07
-1.33323e-06
-1.23004e-07
-1.27249e-06
-1.22679e-07
-1.21206e-06
-1.22125e-07
-1.15203e-06
-1.21345e-07
-1.09252e-06
-1.20342e-07
-1.03363e-06
-1.19125e-07
-9.75451e-07
-1.17715e-07
-9.18064e-07
-1.16128e-07
-8.61552e-07
-1.14365e-07
-8.05993e-07
-1.12433e-07
-7.51456e-07
-1.10357e-07
-6.97992e-07
-1.08168e-07
-6.45647e-07
-1.05875e-07
-5.94469e-07
-1.03469e-07
-5.44497e-07
-1.00974e-07
-4.95747e-07
-9.84428e-08
-4.48224e-07
-9.58942e-08
-4.01938e-07
-9.33011e-08
-3.56896e-07
-9.068e-08
-3.13079e-07
-8.80979e-08
-2.70452e-07
-8.5593e-08
-2.28982e-07
-8.31262e-08
-1.88631e-07
-8.06995e-08
-1.49351e-07
-7.83728e-08
-1.11085e-07
-7.62048e-08
-7.37561e-08
-7.41762e-08
-3.72706e-08
-7.22809e-08
-1.50146e-09
-7.05589e-08
3.36031e-08
-6.90198e-08
6.80787e-08
-6.76645e-08
1.02074e-07
-6.65355e-08
1.35754e-07
-6.56653e-08
1.69261e-07
-6.50688e-08
2.02742e-07
-6.47659e-08
2.36363e-07
-6.47762e-08
2.70292e-07
-6.50958e-08
3.04686e-07
-6.56535e-08
3.39716e-07
-6.64842e-08
3.7554e-07
-6.76942e-08
4.1232e-07
-6.92973e-08
4.50233e-07
-7.13005e-08
4.89468e-07
-7.37013e-08
5.30212e-07
-7.64919e-08
5.72653e-07
-7.96605e-08
6.16971e-07
-8.31937e-08
6.63342e-07
-8.7074e-08
7.11932e-07
-9.12813e-08
7.62898e-07
-9.57926e-08
8.16388e-07
-1.00585e-07
8.72538e-07
-1.05637e-07
9.31481e-07
-1.10936e-07
9.93346e-07
-1.1648e-07
1.05826e-06
-1.22285e-07
1.12637e-06
-1.28391e-07
1.19784e-06
-1.34858e-07
1.27284e-06
-1.41765e-07
1.35158e-06
-1.49194e-07
1.43426e-06
-1.57208e-07
1.52106e-06
-1.65816e-07
1.61213e-06
-1.74945e-07
1.70748e-06
-1.84414e-07
1.80701e-06
-1.93919e-07
1.91042e-06
-2.03055e-07
2.01722e-06
-2.11349e-07
2.1267e-06
-2.18318e-07
2.23799e-06
-2.2353e-07
2.3501e-06
-2.26654e-07
2.46197e-06
-2.27493e-07
2.57253e-06
-2.25993e-07
2.68078e-06
-2.22233e-07
2.78579e-06
-2.16401e-07
2.88676e-06
-2.0876e-07
2.98306e-06
-1.99617e-07
3.07416e-06
-1.89297e-07
3.15972e-06
-1.78116e-07
3.23949e-06
-1.66367e-07
3.31337e-06
-1.54315e-07
3.38134e-06
-1.42184e-07
3.44348e-06
-1.30164e-07
3.49992e-06
-1.18404e-07
3.55087e-06
-1.07024e-07
3.59655e-06
-9.61113e-08
3.63722e-06
-8.57275e-08
3.67315e-06
-7.59127e-08
3.70464e-06
-6.66883e-08
3.73196e-06
-5.80609e-08
3.75541e-06
-5.00249e-08
3.77525e-06
-4.25654e-08
3.79175e-06
-3.56596e-08
3.80515e-06
-2.92793e-08
3.81571e-06
-2.33913e-08
3.82362e-06
-1.79583e-08
3.82909e-06
-1.29391e-08
3.83229e-06
-8.28927e-09
3.83338e-06
-3.96476e-09
3.83245e-06
9.2999e-11
3.82955e-06
4.00424e-09
3.82466e-06
7.94481e-09
3.8177e-06
1.21382e-08
3.80838e-06
1.70016e-08
3.79617e-06
2.32911e-08
3.26448e-08
-4.5883e-08
7.41388e-08
-9.12363e-08
1.20443e-07
-1.39016e-07
1.48312e-07
-1.90382e-07
1.64312e-07
-2.44749e-07
1.73542e-07
-3.01283e-07
1.79194e-07
-3.59358e-07
1.8298e-07
-4.1856e-07
1.85785e-07
-4.7858e-07
1.88067e-07
-5.39135e-07
1.90061e-07
-5.99906e-07
1.91864e-07
-6.60504e-07
1.93445e-07
-7.20499e-07
1.94619e-07
-7.79619e-07
1.94932e-07
-8.3835e-07
1.93848e-07
-8.96136e-07
1.91955e-07
-9.50988e-07
1.90046e-07
-1.00549e-06
1.86719e-07
-1.06154e-06
1.82466e-07
-1.11651e-06
1.79352e-07
-1.17037e-06
1.76892e-07
-1.22338e-06
1.74757e-07
-1.27569e-06
1.72821e-07
-1.3274e-06
1.71022e-07
-1.37854e-06
1.69317e-07
-1.42916e-06
1.67671e-07
-1.47925e-06
1.66051e-07
-1.52883e-06
1.64426e-07
-1.57786e-06
1.62767e-07
-1.62635e-06
1.61048e-07
-1.67425e-06
1.59245e-07
-1.72154e-06
1.57335e-07
-1.76817e-06
1.55301e-07
-1.8141e-06
1.53124e-07
-1.85929e-06
1.50791e-07
-1.90367e-06
1.48286e-07
-1.9472e-06
1.45599e-07
-1.9898e-06
1.42719e-07
-2.03144e-06
1.39637e-07
-2.07202e-06
1.36344e-07
-2.1115e-06
1.32832e-07
-2.1498e-06
1.29093e-07
-2.18685e-06
1.25121e-07
-2.22257e-06
1.20908e-07
-2.25689e-06
1.16449e-07
-2.28973e-06
1.11738e-07
-2.32101e-06
1.0677e-07
-2.35065e-06
1.01543e-07
-2.37856e-06
9.6055e-08
-2.40467e-06
9.03058e-08
-2.4289e-06
8.42978e-08
-2.45115e-06
7.80359e-08
-2.47136e-06
7.15274e-08
-2.48944e-06
6.47829e-08
-2.50533e-06
5.78158e-08
-2.51896e-06
5.06425e-08
-2.53026e-06
4.32823e-08
-2.53919e-06
3.57569e-08
-2.54569e-06
2.80895e-08
-2.54974e-06
2.03042e-08
-2.55128e-06
1.24221e-08
-2.55031e-06
4.4614e-09
-2.54683e-06
-3.53646e-09
-2.54087e-06
-1.14915e-08
-2.53244e-06
-1.93592e-08
-2.52157e-06
-2.71461e-08
-2.50828e-06
-3.48587e-08
-2.49259e-06
-4.24978e-08
-2.47453e-06
-5.00594e-08
-2.45412e-06
-5.75366e-08
-2.43139e-06
-6.49203e-08
-2.40638e-06
-7.21999e-08
-2.37913e-06
-7.93642e-08
-2.34968e-06
-8.64011e-08
-2.31806e-06
-9.32983e-08
-2.28435e-06
-1.00042e-07
-2.24858e-06
-1.06619e-07
-2.21081e-06
-1.13014e-07
-2.17112e-06
-1.19211e-07
-2.12956e-06
-1.25193e-07
-2.08623e-06
-1.30945e-07
-2.04119e-06
-1.36453e-07
-1.99452e-06
-1.41702e-07
-1.94632e-06
-1.4668e-07
-1.89668e-06
-1.51373e-07
-1.8457e-06
-1.55765e-07
-1.79347e-06
-1.59843e-07
-1.7401e-06
-1.63595e-07
-1.68569e-06
-1.67011e-07
-1.63037e-06
-1.70085e-07
-1.57424e-06
-1.72809e-07
-1.5174e-06
-1.75175e-07
-1.45999e-06
-1.77175e-07
-1.40211e-06
-1.78804e-07
-1.34389e-06
-1.80066e-07
-1.28544e-06
-1.80964e-07
-1.22686e-06
-1.815e-07
-1.16828e-06
-1.81669e-07
-1.10981e-06
-1.81476e-07
-1.05155e-06
-1.80934e-07
-9.93613e-07
-1.80061e-07
-9.36091e-07
-1.78866e-07
-8.79085e-07
-1.77347e-07
-8.22687e-07
-1.75522e-07
-7.6698e-07
-1.73421e-07
-7.12039e-07
-1.71068e-07
-6.57934e-07
-1.68468e-07
-6.04736e-07
-1.65631e-07
-5.52503e-07
-1.62588e-07
-5.0128e-07
-1.5939e-07
-4.51102e-07
-1.56051e-07
-4.02006e-07
-1.52564e-07
-3.54023e-07
-1.48956e-07
-3.07165e-07
-1.453e-07
-2.61431e-07
-1.41628e-07
-2.16818e-07
-1.37914e-07
-1.73316e-07
-1.34181e-07
-1.30912e-07
-1.30501e-07
-8.95783e-08
-1.26926e-07
-4.92674e-08
-1.23437e-07
-9.9034e-09
-1.20063e-07
2.85562e-08
-1.16832e-07
6.61196e-08
-1.13768e-07
1.02863e-07
-1.1092e-07
1.38908e-07
-1.08326e-07
1.74358e-07
-1.0601e-07
2.09318e-07
-1.0398e-07
2.43895e-07
-1.02242e-07
2.78206e-07
-1.00847e-07
3.12379e-07
-9.98392e-08
3.46549e-07
-9.92391e-08
3.80855e-07
-9.90727e-08
4.15442e-07
-9.93642e-08
4.50467e-07
-1.00121e-07
4.86117e-07
-1.01304e-07
5.22568e-07
-1.02936e-07
5.59962e-07
-1.05089e-07
5.98455e-07
-1.07791e-07
6.38209e-07
-1.11055e-07
6.79395e-07
-1.14888e-07
7.22188e-07
-1.19285e-07
7.66764e-07
-1.24238e-07
8.13301e-07
-1.29731e-07
8.61969e-07
-1.35743e-07
9.12937e-07
-1.4225e-07
9.66365e-07
-1.49221e-07
1.02241e-06
-1.56626e-07
1.0812e-06
-1.64435e-07
1.14289e-06
-1.72626e-07
1.2076e-06
-1.81189e-07
1.27545e-06
-1.90136e-07
1.34657e-06
-1.995e-07
1.42105e-06
-2.09341e-07
1.49902e-06
-2.19733e-07
1.58058e-06
-2.3075e-07
1.66581e-06
-2.42432e-07
1.75474e-06
-2.54748e-07
1.84736e-06
-2.67558e-07
1.94352e-06
-2.80577e-07
2.04298e-06
-2.93373e-07
2.14531e-06
-3.05386e-07
2.24995e-06
-3.15983e-07
2.35617e-06
-3.24533e-07
2.46312e-06
-3.30484e-07
2.5699e-06
-3.33429e-07
2.67555e-06
-3.33142e-07
2.77915e-06
-3.29595e-07
2.87985e-06
-3.2293e-07
2.97689e-06
-3.13434e-07
3.06961e-06
-3.01487e-07
3.15752e-06
-2.87526e-07
3.24023e-06
-2.72003e-07
3.31747e-06
-2.5536e-07
3.38911e-06
-2.38002e-07
3.45508e-06
-2.20293e-07
3.51544e-06
-2.02542e-07
3.57028e-06
-1.85006e-07
3.61977e-06
-1.67893e-07
3.6641e-06
-1.51364e-07
3.70353e-06
-1.35535e-07
3.73829e-06
-1.20492e-07
3.76866e-06
-1.06284e-07
3.79491e-06
-9.29405e-08
3.81732e-06
-8.04654e-08
3.83614e-06
-6.88494e-08
3.85164e-06
-5.80676e-08
3.86407e-06
-4.80869e-08
3.87366e-06
-3.88643e-08
3.88062e-06
-3.03522e-08
3.88515e-06
-2.24956e-08
3.88745e-06
-1.52368e-08
3.88768e-06
-8.51143e-09
3.88596e-06
-2.25377e-09
3.88241e-06
3.65121e-09
3.87705e-06
9.35992e-09
3.86992e-06
1.50698e-08
3.861e-06
2.10643e-08
3.85014e-06
2.78579e-08
3.83728e-06
3.61528e-08
4.70657e-08
-5.05476e-08
1.2469e-07
-9.87656e-08
1.68663e-07
-1.46701e-07
1.96249e-07
-1.96156e-07
2.13768e-07
-2.47462e-07
2.24849e-07
-3.00326e-07
2.32059e-07
-3.54345e-07
2.37e-07
-4.09146e-07
2.40585e-07
-4.64382e-07
2.43302e-07
-5.19708e-07
2.45387e-07
-5.74767e-07
2.46921e-07
-6.29201e-07
2.47878e-07
-6.82702e-07
2.48119e-07
-7.35159e-07
2.47389e-07
-7.86802e-07
2.4549e-07
-8.37613e-07
2.42766e-07
-8.87204e-07
2.39637e-07
-9.36303e-07
2.35818e-07
-9.8555e-07
2.31713e-07
-1.03434e-06
2.2814e-07
-1.0825e-06
2.25054e-07
-1.13006e-06
2.22318e-07
-1.17707e-06
2.19833e-07
-1.22358e-06
2.17529e-07
-1.26961e-06
2.15347e-07
-1.31518e-06
2.13237e-07
-1.36028e-06
2.11157e-07
-1.40492e-06
2.09064e-07
-1.44907e-06
2.06922e-07
-1.49272e-06
2.04698e-07
-1.53584e-06
2.02361e-07
-1.57839e-06
1.99883e-07
-1.62033e-06
1.97242e-07
-1.66162e-06
1.94415e-07
-1.70221e-06
1.91384e-07
-1.74206e-06
1.88133e-07
-1.7811e-06
1.84647e-07
-1.8193e-06
1.80912e-07
-1.85658e-06
1.76918e-07
-1.89289e-06
1.72652e-07
-1.92816e-06
1.68106e-07
-1.96233e-06
1.63269e-07
-1.99534e-06
1.58131e-07
-2.02712e-06
1.52685e-07
-2.05759e-06
1.46922e-07
-2.08669e-06
1.40833e-07
-2.11433e-06
1.34414e-07
-2.14045e-06
1.27659e-07
-2.16496e-06
1.20565e-07
-2.18779e-06
1.13132e-07
-2.20885e-06
1.05362e-07
-2.22807e-06
9.72595e-08
-2.24538e-06
8.88348e-08
-2.2607e-06
8.01002e-08
-2.27396e-06
7.10728e-08
-2.28509e-06
6.17738e-08
-2.29403e-06
5.22279e-08
-2.30074e-06
4.24636e-08
-2.30516e-06
3.25119e-08
-2.30726e-06
2.24053e-08
-2.30701e-06
1.21735e-08
-2.30439e-06
1.83947e-09
-2.29942e-06
-8.51056e-09
-2.29213e-06
-1.87811e-08
-2.28254e-06
-2.89533e-08
-2.27065e-06
-3.90288e-08
-2.2565e-06
-4.90108e-08
-2.2401e-06
-5.88982e-08
-2.22148e-06
-6.86851e-08
-2.20065e-06
-7.8362e-08
-2.17766e-06
-8.79163e-08
-2.15252e-06
-9.73342e-08
-2.12529e-06
-1.06601e-07
-2.09599e-06
-1.157e-07
-2.06467e-06
-1.24616e-07
-2.03138e-06
-1.3333e-07
-1.99618e-06
-1.41826e-07
-1.95911e-06
-1.50084e-07
-1.92024e-06
-1.58081e-07
-1.87963e-06
-1.65797e-07
-1.83737e-06
-1.73212e-07
-1.79352e-06
-1.80305e-07
-1.74816e-06
-1.87061e-07
-1.70138e-06
-1.93461e-07
-1.65326e-06
-1.99489e-07
-1.6039e-06
-2.05124e-07
-1.5534e-06
-2.10348e-07
-1.50185e-06
-2.15145e-07
-1.44936e-06
-2.19504e-07
-1.39602e-06
-2.23416e-07
-1.34196e-06
-2.26874e-07
-1.28727e-06
-2.29866e-07
-1.23206e-06
-2.3238e-07
-1.17646e-06
-2.34413e-07
-1.12055e-06
-2.35966e-07
-1.06447e-06
-2.37051e-07
-1.0083e-06
-2.37668e-07
-9.52157e-07
-2.3781e-07
-8.96149e-07
-2.37483e-07
-8.40376e-07
-2.36706e-07
-7.84931e-07
-2.35505e-07
-7.29904e-07
-2.33892e-07
-6.75385e-07
-2.31865e-07
-6.21462e-07
-2.29445e-07
-5.68209e-07
-2.26672e-07
-5.15691e-07
-2.23585e-07
-4.63972e-07
-2.20186e-07
-4.13113e-07
-2.16489e-07
-3.63165e-07
-2.12534e-07
-3.14168e-07
-2.08386e-07
-2.6615e-07
-2.04068e-07
-2.19136e-07
-1.99576e-07
-1.73145e-07
-1.94945e-07
-1.28194e-07
-1.90249e-07
-8.42822e-08
-1.85537e-07
-4.1392e-08
-1.80802e-07
5.22643e-10
-1.76093e-07
4.14519e-08
-1.71429e-07
8.13847e-08
-1.66857e-07
1.20391e-07
-1.62441e-07
1.58542e-07
-1.58213e-07
1.95908e-07
-1.54196e-07
2.32555e-07
-1.50413e-07
2.68556e-07
-1.46919e-07
3.04e-07
-1.43768e-07
3.3898e-07
-1.40988e-07
3.73604e-07
-1.38602e-07
4.07989e-07
-1.36625e-07
4.42247e-07
-1.35104e-07
4.76496e-07
-1.34087e-07
5.10862e-07
-1.33603e-07
5.45476e-07
-1.33685e-07
5.80473e-07
-1.3436e-07
6.15999e-07
-1.35646e-07
6.52228e-07
-1.37532e-07
6.89327e-07
-1.40034e-07
7.27444e-07
-1.43205e-07
7.66726e-07
-1.47073e-07
8.07329e-07
-1.51658e-07
8.49412e-07
-1.56971e-07
8.93139e-07
-1.63013e-07
9.38678e-07
-1.69778e-07
9.86198e-07
-1.77253e-07
1.03587e-06
-1.85416e-07
1.08786e-06
-1.94239e-07
1.14232e-06
-2.03689e-07
1.19942e-06
-2.13727e-07
1.2593e-06
-2.24317e-07
1.3221e-06
-2.35425e-07
1.38793e-06
-2.47029e-07
1.45692e-06
-2.59126e-07
1.52915e-06
-2.71734e-07
1.6047e-06
-2.84892e-07
1.68362e-06
-2.98654e-07
1.76593e-06
-3.13064e-07
1.85161e-06
-3.28122e-07
1.9406e-06
-3.43744e-07
2.03276e-06
-3.59715e-07
2.12783e-06
-3.75653e-07
2.22546e-06
-3.91011e-07
2.32517e-06
-4.05098e-07
2.42634e-06
-4.17152e-07
2.52823e-06
-4.2643e-07
2.63003e-06
-4.32294e-07
2.7309e-06
-4.34295e-07
2.82996e-06
-4.32209e-07
2.92641e-06
-4.26049e-07
3.01951e-06
-4.16035e-07
3.10863e-06
-4.02554e-07
3.19324e-06
-3.861e-07
3.27295e-06
-3.67232e-07
3.34746e-06
-3.46517e-07
3.4166e-06
-3.24506e-07
3.4803e-06
-3.01703e-07
3.53856e-06
-2.78555e-07
3.59146e-06
-2.55443e-07
3.63914e-06
-2.32684e-07
3.68177e-06
-2.10528e-07
3.71958e-06
-1.8917e-07
3.7528e-06
-1.68753e-07
3.78168e-06
-1.49375e-07
3.8065e-06
-1.31096e-07
3.8275e-06
-1.13944e-07
3.84496e-06
-9.79235e-08
3.85913e-06
-8.30162e-08
3.87025e-06
-6.91889e-08
3.87856e-06
-5.63958e-08
3.88428e-06
-4.45811e-08
3.88761e-06
-3.36818e-08
3.88875e-06
-2.36285e-08
3.88786e-06
-1.43469e-08
3.88511e-06
-5.75835e-09
3.88061e-06
2.2443e-09
3.87446e-06
9.80488e-09
3.86673e-06
1.7087e-08
3.85748e-06
2.43126e-08
3.84675e-06
3.17948e-08
3.83453e-06
4.00773e-08
3.821e-06
4.96851e-08
6.13099e-08
-5.12555e-08
1.75948e-07
-9.99795e-08
2.17389e-07
-1.47269e-07
2.43541e-07
-1.94729e-07
2.6123e-07
-2.43e-07
2.73121e-07
-2.92103e-07
2.81164e-07
-3.41822e-07
2.86719e-07
-3.91864e-07
2.90627e-07
-4.41924e-07
2.93361e-07
-4.91693e-07
2.95154e-07
-5.40877e-07
2.96105e-07
-5.89225e-07
2.96223e-07
-6.36569e-07
2.95462e-07
-6.82913e-07
2.93733e-07
-7.2845e-07
2.91027e-07
-7.73295e-07
2.8761e-07
-8.1744e-07
2.83782e-07
-8.61211e-07
2.79589e-07
-9.04837e-07
2.75339e-07
-9.48135e-07
2.71438e-07
-9.91009e-07
2.67928e-07
-1.03344e-06
2.64752e-07
-1.07545e-06
2.61839e-07
-1.11704e-06
2.59121e-07
-1.15823e-06
2.56535e-07
-1.19901e-06
2.54025e-07
-1.23939e-06
2.51537e-07
-1.27935e-06
2.49025e-07
-1.31888e-06
2.46444e-07
-1.35793e-06
2.43756e-07
-1.3965e-06
2.40924e-07
-1.43453e-06
2.37917e-07
-1.47199e-06
2.34707e-07
-1.50885e-06
2.3127e-07
-1.54505e-06
2.27585e-07
-1.58055e-06
2.23631e-07
-1.61529e-06
2.19393e-07
-1.64924e-06
2.14855e-07
-1.68232e-06
2.10003e-07
-1.71449e-06
2.04825e-07
-1.7457e-06
1.99309e-07
-1.77587e-06
1.93443e-07
-1.80496e-06
1.87217e-07
-1.83289e-06
1.80618e-07
-1.8596e-06
1.73638e-07
-1.88504e-06
1.66265e-07
-1.90911e-06
1.58492e-07
-1.93177e-06
1.50312e-07
-1.95292e-06
1.4172e-07
-1.97251e-06
1.32716e-07
-1.99045e-06
1.233e-07
-2.00666e-06
1.13478e-07
-2.02109e-06
1.03261e-07
-2.03365e-06
9.26624e-08
-2.04428e-06
8.17034e-08
-2.05292e-06
7.04092e-08
-2.0595e-06
5.881e-08
-2.06398e-06
4.6941e-08
-2.06631e-06
3.48408e-08
-2.06645e-06
2.25495e-08
-2.06438e-06
1.01057e-08
-2.0601e-06
-2.44126e-09
-2.05364e-06
-1.49736e-08
-2.04502e-06
-2.74016e-08
-2.03425e-06
-3.97198e-08
-2.02136e-06
-5.19275e-08
-2.00634e-06
-6.40252e-08
-1.98923e-06
-7.60096e-08
-1.97004e-06
-8.78728e-08
-1.9488e-06
-9.9602e-08
-1.92554e-06
-1.11181e-07
-1.90028e-06
-1.22594e-07
-1.87306e-06
-1.3382e-07
-1.84392e-06
-1.44842e-07
-1.8129e-06
-1.55638e-07
-1.78004e-06
-1.66188e-07
-1.7454e-06
-1.7647e-07
-1.70902e-06
-1.8646e-07
-1.67097e-06
-1.96132e-07
-1.63131e-06
-2.05459e-07
-1.5901e-06
-2.14415e-07
-1.54743e-06
-2.22979e-07
-1.50336e-06
-2.31127e-07
-1.45798e-06
-2.3884e-07
-1.41137e-06
-2.46099e-07
-1.36362e-06
-2.52878e-07
-1.31481e-06
-2.59153e-07
-1.26505e-06
-2.64906e-07
-1.21444e-06
-2.70122e-07
-1.16306e-06
-2.74792e-07
-1.11102e-06
-2.7891e-07
-1.05843e-06
-2.82461e-07
-1.00538e-06
-2.85429e-07
-9.5198e-07
-2.87809e-07
-8.98342e-07
-2.89604e-07
-8.4456e-07
-2.90832e-07
-7.90733e-07
-2.91495e-07
-7.36961e-07
-2.91581e-07
-6.83345e-07
-2.91099e-07
-6.29982e-07
-2.90069e-07
-5.76955e-07
-2.88531e-07
-5.24345e-07
-2.86501e-07
-4.72238e-07
-2.83973e-07
-4.20711e-07
-2.80971e-07
-3.69836e-07
-2.77547e-07
-3.19669e-07
-2.73751e-07
-2.70267e-07
-2.69588e-07
-2.21678e-07
-2.65077e-07
-1.73948e-07
-2.60264e-07
-1.27119e-07
-2.55215e-07
-8.12154e-08
-2.49971e-07
-3.62448e-08
-2.44547e-07
7.80504e-09
-2.38995e-07
5.08886e-08
-2.33332e-07
9.29753e-08
-2.27624e-07
1.34112e-07
-2.21938e-07
1.74332e-07
-2.16314e-07
2.13674e-07
-2.1077e-07
2.52171e-07
-2.05355e-07
2.89868e-07
-2.00138e-07
3.26823e-07
-1.95168e-07
3.63104e-07
-1.90478e-07
3.98788e-07
-1.86099e-07
4.33953e-07
-1.82085e-07
4.68679e-07
-1.78494e-07
5.03055e-07
-1.75365e-07
5.37182e-07
-1.7273e-07
5.71171e-07
-1.70616e-07
6.05135e-07
-1.69069e-07
6.39183e-07
-1.68136e-07
6.73434e-07
-1.67855e-07
7.08011e-07
-1.68262e-07
7.4304e-07
-1.69391e-07
7.78658e-07
-1.71264e-07
8.15018e-07
-1.73892e-07
8.52276e-07
-1.77293e-07
8.90576e-07
-1.81505e-07
9.3006e-07
-1.86559e-07
9.70877e-07
-1.92475e-07
1.01318e-06
-1.9927e-07
1.05711e-06
-2.06951e-07
1.10285e-06
-2.15513e-07
1.15055e-06
-2.24948e-07
1.20037e-06
-2.35235e-07
1.25247e-06
-2.46347e-07
1.30703e-06
-2.58246e-07
1.3642e-06
-2.70892e-07
1.42412e-06
-2.84238e-07
1.48694e-06
-2.98238e-07
1.55276e-06
-3.12857e-07
1.62171e-06
-3.28067e-07
1.69384e-06
-3.43862e-07
1.7692e-06
-3.6025e-07
1.84779e-06
-3.77244e-07
1.92958e-06
-3.94845e-07
2.01446e-06
-4.13002e-07
2.10229e-06
-4.31566e-07
2.19282e-06
-4.50245e-07
2.28574e-06
-4.68567e-07
2.38061e-06
-4.85878e-07
2.4769e-06
-5.0138e-07
2.57395e-06
-5.14204e-07
2.67104e-06
-5.23518e-07
2.76738e-06
-5.2863e-07
2.86216e-06
-5.29072e-07
2.9546e-06
-5.24645e-07
3.04397e-06
-5.15419e-07
3.12964e-06
-5.01702e-07
3.21107e-06
-4.83984e-07
3.28785e-06
-4.62874e-07
3.35966e-06
-4.39042e-07
3.4263e-06
-4.13164e-07
3.48769e-06
-3.85888e-07
3.54378e-06
-3.57803e-07
3.59466e-06
-3.29429e-07
3.64042e-06
-3.01207e-07
3.68124e-06
-2.73501e-07
3.7173e-06
-2.46598e-07
3.74885e-06
-2.2072e-07
3.77612e-06
-1.96027e-07
3.79937e-06
-1.72627e-07
3.81886e-06
-1.50584e-07
3.83484e-06
-1.29927e-07
3.84757e-06
-1.10653e-07
3.85729e-06
-9.27375e-08
3.86424e-06
-7.61363e-08
3.86863e-06
-6.0792e-08
3.87068e-06
-4.66348e-08
3.87059e-06
-3.35885e-08
3.86853e-06
-2.15689e-08
3.86467e-06
-1.0489e-08
3.85916e-06
-2.43626e-10
3.8521e-06
9.30295e-09
3.8436e-06
1.8302e-08
3.83376e-06
2.69208e-08
3.82268e-06
3.53984e-08
3.81042e-06
4.40529e-08
3.79708e-06
5.34174e-08
3.78296e-06
6.38062e-08
7.56258e-08
-4.99589e-08
2.25909e-07
-9.75751e-08
2.65007e-07
-1.43305e-07
2.89273e-07
-1.88378e-07
3.06305e-07
-2.33453e-07
3.18198e-07
-2.78702e-07
3.26414e-07
-3.24034e-07
3.32052e-07
-3.69252e-07
3.35845e-07
-4.14125e-07
3.38233e-07
-4.58427e-07
3.39456e-07
-5.01967e-07
3.39643e-07
-5.44603e-07
3.38859e-07
-5.86284e-07
3.37142e-07
-6.27077e-07
3.34525e-07
-6.67154e-07
3.31103e-07
-7.06653e-07
3.27108e-07
-7.45658e-07
3.22788e-07
-7.84357e-07
3.18288e-07
-8.22857e-07
3.13839e-07
-8.61096e-07
3.09676e-07
-8.9902e-07
3.05852e-07
-9.36608e-07
3.0234e-07
-9.73856e-07
2.99087e-07
-1.01076e-06
2.96027e-07
-1.04732e-06
2.93097e-07
-1.08353e-06
2.90234e-07
-1.11938e-06
2.87383e-07
-1.15484e-06
2.84487e-07
-1.18989e-06
2.815e-07
-1.22451e-06
2.78377e-07
-1.25867e-06
2.75078e-07
-1.29232e-06
2.71569e-07
-1.32543e-06
2.67818e-07
-1.35796e-06
2.63799e-07
-1.38986e-06
2.59488e-07
-1.42109e-06
2.54864e-07
-1.45161e-06
2.49909e-07
-1.48136e-06
2.44605e-07
-1.5103e-06
2.38939e-07
-1.53837e-06
2.32896e-07
-1.56552e-06
2.26464e-07
-1.59171e-06
2.19628e-07
-1.61687e-06
2.12377e-07
-1.64095e-06
2.04696e-07
-1.66388e-06
1.96575e-07
-1.68562e-06
1.88e-07
-1.70609e-06
1.78962e-07
-1.72523e-06
1.69451e-07
-1.74297e-06
1.59461e-07
-1.75924e-06
1.4899e-07
-1.77398e-06
1.38037e-07
-1.78711e-06
1.2661e-07
-1.79857e-06
1.14717e-07
-1.80828e-06
1.02376e-07
-1.81619e-06
8.96094e-08
-1.82222e-06
7.6447e-08
-1.82634e-06
6.29244e-08
-1.82848e-06
4.90831e-08
-1.82861e-06
3.49698e-08
-1.82669e-06
2.06314e-08
-1.8227e-06
6.11311e-09
-1.81666e-06
-8.48159e-09
-1.80861e-06
-2.30175e-08
-1.79858e-06
-3.74398e-08
-1.78655e-06
-5.17421e-08
-1.77256e-06
-6.59223e-08
-1.75661e-06
-7.99786e-08
-1.73871e-06
-9.39053e-08
-1.71889e-06
-1.07692e-07
-1.69717e-06
-1.21324e-07
-1.67357e-06
-1.3478e-07
-1.64813e-06
-1.4804e-07
-1.62087e-06
-1.61082e-07
-1.59182e-06
-1.73883e-07
-1.56104e-06
-1.8642e-07
-1.52856e-06
-1.98667e-07
-1.49443e-06
-2.10601e-07
-1.4587e-06
-2.22193e-07
-1.42142e-06
-2.33412e-07
-1.38266e-06
-2.44225e-07
-1.34247e-06
-2.54603e-07
-1.30093e-06
-2.64518e-07
-1.25811e-06
-2.73947e-07
-1.21409e-06
-2.82865e-07
-1.16893e-06
-2.91251e-07
-1.12274e-06
-2.99076e-07
-1.07558e-06
-3.06309e-07
-1.02756e-06
-3.12929e-07
-9.78761e-07
-3.18918e-07
-9.29284e-07
-3.24268e-07
-8.7922e-07
-3.28975e-07
-8.28661e-07
-3.3302e-07
-7.77709e-07
-3.36381e-07
-7.26463e-07
-3.39055e-07
-6.75024e-07
-3.41043e-07
-6.23484e-07
-3.42373e-07
-5.71932e-07
-3.43048e-07
-5.20463e-07
-3.4305e-07
-4.69171e-07
-3.42391e-07
-4.18145e-07
-3.41094e-07
-3.67466e-07
-3.3921e-07
-3.17207e-07
-3.36759e-07
-2.67443e-07
-3.33736e-07
-2.18242e-07
-3.3017e-07
-1.69674e-07
-3.26115e-07
-1.21796e-07
-3.21627e-07
-7.46561e-08
-3.16727e-07
-2.82811e-08
-3.11452e-07
1.72997e-08
-3.05843e-07
6.20162e-08
-2.9993e-07
1.05829e-07
-2.93783e-07
1.48752e-07
-2.87468e-07
1.90789e-07
-2.8103e-07
2.31945e-07
-2.74488e-07
2.72228e-07
-2.67905e-07
3.11653e-07
-2.61362e-07
3.50249e-07
-2.54909e-07
3.88059e-07
-2.48579e-07
4.25131e-07
-2.42425e-07
4.61507e-07
-2.36513e-07
4.97244e-07
-2.30903e-07
5.32407e-07
-2.25638e-07
5.67071e-07
-2.20761e-07
6.01314e-07
-2.16326e-07
6.35214e-07
-2.12392e-07
6.68857e-07
-2.09006e-07
7.02337e-07
-2.06208e-07
7.35759e-07
-2.04036e-07
7.69227e-07
-2.02535e-07
8.02847e-07
-2.01754e-07
8.36729e-07
-2.01736e-07
8.70988e-07
-2.0252e-07
9.05743e-07
-2.04144e-07
9.41117e-07
-2.06638e-07
9.77248e-07
-2.10022e-07
1.01428e-06
-2.14321e-07
1.05234e-06
-2.19567e-07
1.09157e-06
-2.25791e-07
1.13211e-06
-2.33017e-07
1.17411e-06
-2.41263e-07
1.2177e-06
-2.5054e-07
1.26303e-06
-2.6085e-07
1.31027e-06
-2.72188e-07
1.35957e-06
-2.84537e-07
1.41109e-06
-2.9787e-07
1.465e-06
-3.12153e-07
1.52144e-06
-3.2734e-07
1.58058e-06
-3.43378e-07
1.64255e-06
-3.6021e-07
1.70747e-06
-3.77781e-07
1.77544e-06
-3.9604e-07
1.84652e-06
-4.14943e-07
1.92072e-06
-4.34458e-07
1.99802e-06
-4.54548e-07
2.07833e-06
-4.75156e-07
2.16149e-06
-4.96166e-07
2.24728e-06
-5.1736e-07
2.33539e-06
-5.38365e-07
2.42544e-06
-5.58623e-07
2.51695e-06
-5.77387e-07
2.60932e-06
-5.9376e-07
2.7019e-06
-6.06789e-07
2.79396e-06
-6.15573e-07
2.88471e-06
-6.19387e-07
2.9734e-06
-6.17766e-07
3.0593e-06
-6.10551e-07
3.14177e-06
-5.97887e-07
3.22024e-06
-5.80178e-07
3.29427e-06
-5.58022e-07
3.36354e-06
-5.32142e-07
3.42781e-06
-5.03315e-07
3.48696e-06
-4.72317e-07