/*--------------------------------*- C++ -*----------------------------------*\
  =========                 |
  \\      /  F ield         | OpenFOAM: The Open Source CFD Toolbox
   \\    /   O peration     | Website:  https://openfoam.org
    \\  /    A nd           | Version:  7
     \\/     M anipulation  |
\*---------------------------------------------------------------------------*/
FoamFile
{
    version     2.0;
    format      ascii;
    class       volVectorField;
    location    "750";
    object      U;
}
// * * * * * * * * * * * * * * * * * * * * * * * * * * * * * * * * * * * * * //

dimensions      [0 1 -1 0 0 0 0];

internalField   nonuniform List<vector> 
16900
(
(0.00649064 -0.00768009 0)
(-0.00809604 0.0205531 0)
(-0.048621 0.033732 0)
(-0.0976942 0.0374647 0)
(-0.150073 0.0383738 0)
(-0.203949 0.0386249 0)
(-0.258602 0.0387971 0)
(-0.313686 0.0390795 0)
(-0.369035 0.0396177 0)
(-0.424645 0.0406111 0)
(-0.480776 0.042353 0)
(-0.538061 0.0452025 0)
(-0.59727 0.049316 0)
(-0.658292 0.0533706 0)
(-0.719845 0.0512351 0)
(-0.780725 0.0543516 0)
(-0.840901 0.0777441 0)
(-0.903728 0.0644962 0)
(-0.962321 0.0327477 0)
(-1.01526 0.0332492 0)
(-1.07011 0.0334429 0)
(-1.12492 0.0332229 0)
(-1.17939 0.0328496 0)
(-1.23342 0.0324319 0)
(-1.287 0.03201 0)
(-1.34011 0.0315951 0)
(-1.39276 0.031188 0)
(-1.44495 0.030785 0)
(-1.49667 0.0303812 0)
(-1.54792 0.0299719 0)
(-1.59866 0.0295524 0)
(-1.64887 0.0291183 0)
(-1.69851 0.0286661 0)
(-1.74754 0.0281925 0)
(-1.79592 0.0276946 0)
(-1.84359 0.02717 0)
(-1.8905 0.0266167 0)
(-1.93659 0.0260328 0)
(-1.98179 0.0254168 0)
(-2.02605 0.0247673 0)
(-2.06929 0.0240831 0)
(-2.11144 0.0233631 0)
(-2.15244 0.0226063 0)
(-2.19221 0.021812 0)
(-2.23067 0.0209794 0)
(-2.26774 0.0201079 0)
(-2.30335 0.0191973 0)
(-2.33742 0.0182473 0)
(-2.36987 0.017258 0)
(-2.40061 0.01623 0)
(-2.42957 0.015164 0)
(-2.45667 0.014061 0)
(-2.48184 0.0129227 0)
(-2.50499 0.011751 0)
(-2.52607 0.0105482 0)
(-2.54501 0.00931722 0)
(-2.56174 0.00806107 0)
(-2.57622 0.00678304 0)
(-2.58839 0.00548653 0)
(-2.59823 0.00417492 0)
(-2.6057 0.00285123 0)
(-2.61077 0.00151669 0)
(-2.61343 0.000171611 0)
(-2.61363 -0.00117117 0)
(-2.6114 -0.00249223 0)
(-2.60679 -0.003791 0)
(-2.5998 -0.00507589 0)
(-2.59048 -0.0063483 0)
(-2.57884 -0.00760814 0)
(-2.56489 -0.0088547 0)
(-2.54868 -0.0100869 0)
(-2.53023 -0.0113035 0)
(-2.50956 -0.012503 0)
(-2.48672 -0.0136838 0)
(-2.46174 -0.0148443 0)
(-2.43466 -0.0159825 0)
(-2.40554 -0.0170966 0)
(-2.37442 -0.0181842 0)
(-2.34135 -0.0192433 0)
(-2.30641 -0.0202714 0)
(-2.26965 -0.0212665 0)
(-2.23115 -0.0222264 0)
(-2.19097 -0.023149 0)
(-2.1492 -0.0240321 0)
(-2.10592 -0.0248735 0)
(-2.06122 -0.0256709 0)
(-2.01518 -0.0264221 0)
(-1.96791 -0.0271252 0)
(-1.9195 -0.0277785 0)
(-1.87005 -0.0283806 0)
(-1.81967 -0.0289298 0)
(-1.76847 -0.0294243 0)
(-1.71655 -0.0298628 0)
(-1.66403 -0.0302443 0)
(-1.61102 -0.0305686 0)
(-1.55762 -0.0308353 0)
(-1.50396 -0.0310436 0)
(-1.45015 -0.0311924 0)
(-1.39629 -0.0312824 0)
(-1.34249 -0.0313146 0)
(-1.28887 -0.0312906 0)
(-1.23552 -0.0312102 0)
(-1.18256 -0.0310731 0)
(-1.13006 -0.0308819 0)
(-1.07814 -0.0306403 0)
(-1.02688 -0.0303504 0)
(-0.976344 -0.0300115 0)
(-0.92663 -0.0296254 0)
(-0.877806 -0.029198 0)
(-0.829933 -0.0287361 0)
(-0.783058 -0.0282386 0)
(-0.73724 -0.0277033 0)
(-0.692529 -0.0271383 0)
(-0.648954 -0.0265579 0)
(-0.606527 -0.0259626 0)
(-0.565269 -0.0253421 0)
(-0.525207 -0.0247043 0)
(-0.486343 -0.0240714 0)
(-0.448648 -0.0234522 0)
(-0.412096 -0.0228284 0)
(-0.376686 -0.0221963 0)
(-0.342401 -0.0215822 0)
(-0.30918 -0.021018 0)
(-0.276944 -0.0204917 0)
(-0.245631 -0.0199761 0)
(-0.215217 -0.0194857 0)
(-0.185596 -0.0190451 0)
(-0.15674 -0.0186792 0)
(-0.128504 -0.0183852 0)
(-0.10075 -0.0181489 0)
(-0.0734246 -0.0179794 0)
(-0.046418 -0.0178986 0)
(-0.0196143 -0.0179067 0)
(0.00737894 -0.0179338 0)
(0.0343064 -0.0178088 0)
(0.0611808 -0.0175947 0)
(0.0885805 -0.0174745 0)
(0.116499 -0.0174856 0)
(0.145052 -0.0176228 0)
(0.174444 -0.0178708 0)
(0.204866 -0.0182143 0)
(0.23649 -0.0186454 0)
(0.269478 -0.0191552 0)
(0.303984 -0.0197359 0)
(0.340151 -0.0203775 0)
(0.378111 -0.0210712 0)
(0.417986 -0.0218069 0)
(0.459885 -0.022577 0)
(0.503911 -0.0233746 0)
(0.550166 -0.0241985 0)
(0.598758 -0.0250517 0)
(0.649817 -0.025946 0)
(0.703508 -0.0269007 0)
(0.760042 -0.0279433 0)
(0.819684 -0.0291057 0)
(0.882756 -0.030419 0)
(0.949612 -0.0319051 0)
(1.02061 -0.0335665 0)
(1.09604 -0.0353792 0)
(1.17611 -0.0372858 0)
(1.26081 -0.0391996 0)
(1.34993 -0.0410101 0)
(1.44302 -0.0425995 0)
(1.53938 -0.0438559 0)
(1.63812 -0.0446906 0)
(1.73822 -0.0450444 0)
(1.83859 -0.0448955 0)
(1.93813 -0.0442535 0)
(2.03583 -0.0431575 0)
(2.13075 -0.0416647 0)
(2.22212 -0.0398454 0)
(2.30928 -0.0377727 0)
(2.39175 -0.0355197 0)
(2.46918 -0.0331527 0)
(2.54134 -0.0307312 0)
(2.60815 -0.0283046 0)
(2.66959 -0.0259142 0)
(2.72573 -0.0235914 0)
(2.7767 -0.0213607 0)
(2.8227 -0.0192389 0)
(2.86394 -0.0172377 0)
(2.90066 -0.015363 0)
(2.93313 -0.0136177 0)
(2.96161 -0.0120011 0)
(2.98636 -0.0105105 0)
(3.00766 -0.0091409 0)
(3.02574 -0.00788662 0)
(3.04087 -0.00674039 0)
(3.05326 -0.00569492 0)
(3.06314 -0.00474171 0)
(3.07069 -0.00387229 0)
(3.07611 -0.00307771 0)
(3.07953 -0.00235332 0)
(3.0811 -0.00169264 0)
(3.08098 -0.00107251 0)
(3.0792 -0.000458145 0)
(3.07567 0.000188 0)
(3.07014 0.000935041 0)
(3.0626 0.0019352 0)
(3.04616 0.00404082 0)
(-0.0195861 0.0100041 0)
(-0.0436205 0.0512261 0)
(-0.0831534 0.0724185 0)
(-0.129612 0.0814307 0)
(-0.179783 0.0852252 0)
(-0.232366 0.0869566 0)
(-0.286511 0.087823 0)
(-0.341739 0.0882937 0)
(-0.397829 0.0885587 0)
(-0.454734 0.0886794 0)
(-0.512508 0.088633 0)
(-0.571085 0.0883483 0)
(-0.629839 0.0878186 0)
(-0.687733 0.0872015 0)
(-0.746105 0.0863012 0)
(-0.804411 0.0853049 0)
(-0.85928 0.0858473 0)
(-0.913788 0.0867093 0)
(-0.970454 0.0857938 0)
(-1.0265 0.0855204 0)
(-1.08031 0.0849069 0)
(-1.13282 0.0840101 0)
(-1.18456 0.0830133 0)
(-1.23567 0.0819999 0)
(-1.28621 0.0810006 0)
(-1.33623 0.0800199 0)
(-1.38574 0.0790513 0)
(-1.43475 0.0780842 0)
(-1.48325 0.0771067 0)
(-1.53123 0.0761073 0)
(-1.57866 0.0750752 0)
(-1.62553 0.0740005 0)
(-1.6718 0.0728746 0)
(-1.71742 0.07169 0)
(-1.76236 0.0704404 0)
(-1.80656 0.06912 0)
(-1.84998 0.0677241 0)
(-1.89256 0.0662487 0)
(-1.93424 0.0646903 0)
(-1.97495 0.0630457 0)
(-2.01465 0.0613123 0)
(-2.05325 0.0594878 0)
(-2.0907 0.0575701 0)
(-2.12692 0.0555574 0)
(-2.16184 0.0534482 0)
(-2.19539 0.0512415 0)
(-2.22749 0.0489366 0)
(-2.25806 0.0465335 0)
(-2.28704 0.0440328 0)
(-2.31434 0.0414359 0)
(-2.33988 0.0387451 0)
(-2.36359 0.0359638 0)
(-2.38539 0.0330963 0)
(-2.40522 0.0301481 0)
(-2.42301 0.0271261 0)
(-2.43869 0.0240381 0)
(-2.4522 0.020893 0)
(-2.4635 0.0177003 0)
(-2.47254 0.0144702 0)
(-2.47928 0.0112129 0)
(-2.48369 0.00793732 0)
(-2.48575 0.00464788 0)
(-2.48544 0.00134624 0)
(-2.48271 -0.00193666 0)
(-2.47766 -0.00515905 0)
(-2.47029 -0.00831932 0)
(-2.46063 -0.0114277 0)
(-2.44869 -0.014487 0)
(-2.43449 -0.0174965 0)
(-2.41806 -0.0204543 0)
(-2.39943 -0.0233577 0)
(-2.37862 -0.0262031 0)
(-2.35567 -0.0289869 0)
(-2.33062 -0.0317051 0)
(-2.3035 -0.0343536 0)
(-2.27435 -0.0369279 0)
(-2.24324 -0.0394233 0)
(-2.2102 -0.0418348 0)
(-2.1753 -0.0441571 0)
(-2.1386 -0.0463851 0)
(-2.10016 -0.0485137 0)
(-2.06005 -0.0505385 0)
(-2.01836 -0.052455 0)
(-1.97515 -0.054259 0)
(-1.93052 -0.0559462 0)
(-1.88454 -0.057512 0)
(-1.83732 -0.0589523 0)
(-1.78894 -0.0602637 0)
(-1.73951 -0.0614437 0)
(-1.68912 -0.0624906 0)
(-1.63788 -0.0634022 0)
(-1.5859 -0.0641765 0)
(-1.53328 -0.0648114 0)
(-1.48014 -0.065307 0)
(-1.42657 -0.0656644 0)
(-1.3727 -0.0658859 0)
(-1.31862 -0.0659719 0)
(-1.26445 -0.0659222 0)
(-1.2103 -0.0657397 0)
(-1.15627 -0.0654296 0)
(-1.10246 -0.0649983 0)
(-1.04897 -0.0644484 0)
(-0.995891 -0.0637815 0)
(-0.94332 -0.0630042 0)
(-0.891344 -0.0621274 0)
(-0.840038 -0.0611592 0)
(-0.789475 -0.0601011 0)
(-0.739728 -0.0589576 0)
(-0.690864 -0.0577414 0)
(-0.642934 -0.0564697 0)
(-0.595979 -0.0551459 0)
(-0.550041 -0.0537657 0)
(-0.505164 -0.0523423 0)
(-0.461369 -0.0509041 0)
(-0.418666 -0.0494603 0)
(-0.377056 -0.0479948 0)
(-0.336554 -0.0465162 0)
(-0.297148 -0.0450592 0)
(-0.258825 -0.043647 0)
(-0.221544 -0.0422588 0)
(-0.185274 -0.0408873 0)
(-0.149971 -0.0395608 0)
(-0.115606 -0.0383207 0)
(-0.0821239 -0.0371633 0)
(-0.0494215 -0.0360668 0)
(-0.0174325 -0.0350464 0)
(0.0140337 -0.0341163 0)
(0.0448398 -0.0332894 0)
(0.0751328 -0.0325773 0)
(0.105116 -0.0319869 0)
(0.134882 -0.0315283 0)
(0.164555 -0.0312173 0)
(0.194275 -0.0310653 0)
(0.224212 -0.0310544 0)
(0.254476 -0.0310833 0)
(0.285199 -0.0311846 0)
(0.316604 -0.0314727 0)
(0.348793 -0.0319557 0)
(0.381899 -0.0326356 0)
(0.416093 -0.0335054 0)
(0.451547 -0.0345542 0)
(0.488428 -0.0357719 0)
(0.526899 -0.0371485 0)
(0.567119 -0.0386728 0)
(0.609238 -0.0403321 0)
(0.653401 -0.0421133 0)
(0.699743 -0.044003 0)
(0.74839 -0.0459897 0)
(0.799462 -0.0480658 0)
(0.853073 -0.0502305 0)
(0.90934 -0.0524925 0)
(0.968385 -0.0548725 0)
(1.03034 -0.0574034 0)
(1.09537 -0.0601284 0)
(1.16365 -0.0630938 0)
(1.23536 -0.0663381 0)
(1.31068 -0.0698764 0)
(1.38978 -0.073685 0)
(1.47272 -0.077688 0)
(1.55949 -0.0817523 0)
(1.64988 -0.0856941 0)
(1.74353 -0.0892968 0)
(1.8399 -0.0923377 0)
(1.93826 -0.0946158 0)
(2.03777 -0.0959775 0)
(2.13749 -0.0963305 0)
(2.23648 -0.0956501 0)
(2.33379 -0.0939725 0)
(2.42858 -0.0913846 0)
(2.52008 -0.0880073 0)
(2.60767 -0.0839821 0)
(2.69082 -0.0794561 0)
(2.76918 -0.0745731 0)
(2.84247 -0.0694652 0)
(2.91057 -0.0642497 0)
(2.97342 -0.0590257 0)
(3.03105 -0.0538753 0)
(3.08357 -0.0488629 0)
(3.13112 -0.0440382 0)
(3.17389 -0.0394367 0)
(3.21211 -0.035083 0)
(3.24601 -0.0309912 0)
(3.27584 -0.0271682 0)
(3.30185 -0.0236139 0)
(3.32431 -0.0203237 0)
(3.34344 -0.0172888 0)
(3.35951 -0.0144976 0)
(3.37272 -0.0119363 0)
(3.38331 -0.00958923 0)
(3.39146 -0.00743919 0)
(3.39736 -0.00546781 0)
(3.40117 -0.00365653 0)
(3.40304 -0.00198905 0)
(3.4031 -0.000445166 0)
(3.4014 0.00102293 0)
(3.39795 0.00249117 0)
(3.39272 0.00405201 0)
(3.38552 0.00587218 0)
(3.37651 0.00830707 0)
(3.3599 0.0121781 0)
(-0.0312265 0.0485792 0)
(-0.0620826 0.0925676 0)
(-0.103234 0.118155 0)
(-0.148963 0.131691 0)
(-0.197335 0.138801 0)
(-0.247925 0.14277 0)
(-0.300142 0.145221 0)
(-0.353508 0.146945 0)
(-0.407717 0.148347 0)
(-0.462565 0.149653 0)
(-0.517875 0.150985 0)
(-0.57333 0.152376 0)
(-0.628316 0.153704 0)
(-0.682283 0.154412 0)
(-0.735743 0.153406 0)
(-0.78861 0.151318 0)
(-0.839511 0.149227 0)
(-0.889356 0.145331 0)
(-0.939967 0.14073 0)
(-0.990491 0.137763 0)
(-1.03991 0.135468 0)
(-1.08845 0.133427 0)
(-1.1363 0.131528 0)
(-1.18358 0.12973 0)
(-1.23033 0.128007 0)
(-1.27659 0.126335 0)
(-1.32237 0.124693 0)
(-1.36769 0.123057 0)
(-1.41252 0.121408 0)
(-1.45687 0.119724 0)
(-1.5007 0.11799 0)
(-1.54398 0.11619 0)
(-1.58669 0.114309 0)
(-1.62878 0.112337 0)
(-1.67022 0.110264 0)
(-1.71095 0.10808 0)
(-1.75093 0.105778 0)
(-1.7901 0.103352 0)
(-1.82842 0.100797 0)
(-1.86581 0.0981076 0)
(-1.90223 0.0952793 0)
(-1.9376 0.0923088 0)
(-1.97187 0.0891925 0)
(-2.00497 0.0859275 0)
(-2.03683 0.0825114 0)
(-2.06738 0.0789423 0)
(-2.09655 0.0752191 0)
(-2.12426 0.0713414 0)
(-2.15045 0.0673101 0)
(-2.17503 0.0631272 0)
(-2.19793 0.0587964 0)
(-2.21908 0.0543229 0)
(-2.2384 0.0497135 0)
(-2.25582 0.044977 0)
(-2.27128 0.0401243 0)
(-2.28472 0.0351679 0)
(-2.29606 0.0301219 0)
(-2.30527 0.0250019 0)
(-2.31229 0.0198241 0)
(-2.31709 0.014605 0)
(-2.31964 0.0093593 0)
(-2.31991 0.00409665 0)
(-2.31786 -0.00116425 0)
(-2.31357 -0.00636485 0)
(-2.30702 -0.0114668 0)
(-2.29824 -0.0164788 0)
(-2.28725 -0.0214071 0)
(-2.27406 -0.0262535 0)
(-2.25871 -0.0310163 0)
(-2.24121 -0.0356919 0)
(-2.22158 -0.0402753 0)
(-2.19987 -0.0447609 0)
(-2.1761 -0.0491424 0)
(-2.1503 -0.0534133 0)
(-2.12252 -0.0575668 0)
(-2.0928 -0.0615956 0)
(-2.06119 -0.0654922 0)
(-2.02774 -0.0692485 0)
(-1.9925 -0.072856 0)
(-1.95554 -0.0763063 0)
(-1.91692 -0.0795914 0)
(-1.87672 -0.082704 0)
(-1.83499 -0.0856374 0)
(-1.79184 -0.0883852 0)
(-1.74733 -0.0909407 0)
(-1.70155 -0.0932969 0)
(-1.65459 -0.0954473 0)
(-1.60655 -0.097387 0)
(-1.55752 -0.0991125 0)
(-1.5076 -0.100621 0)
(-1.4569 -0.101912 0)
(-1.40551 -0.102981 0)
(-1.35353 -0.103825 0)
(-1.30109 -0.104445 0)
(-1.24828 -0.104845 0)
(-1.1952 -0.105029 0)
(-1.14196 -0.104998 0)
(-1.08867 -0.104754 0)
(-1.03543 -0.104301 0)
(-0.98234 -0.103648 0)
(-0.929494 -0.102807 0)
(-0.876983 -0.101785 0)
(-0.824897 -0.100583 0)
(-0.773325 -0.0992132 0)
(-0.722347 -0.097693 0)
(-0.672035 -0.0960379 0)
(-0.622452 -0.0942514 0)
(-0.573664 -0.0923403 0)
(-0.525732 -0.0903242 0)
(-0.478702 -0.0882316 0)
(-0.432607 -0.0860713 0)
(-0.387481 -0.0838375 0)
(-0.343359 -0.0815479 0)
(-0.300253 -0.0792441 0)
(-0.25818 -0.076945 0)
(-0.217126 -0.0746328 0)
(-0.177093 -0.0723186 0)
(-0.138047 -0.0700427 0)
(-0.100015 -0.067838 0)
(-0.0629344 -0.0656922 0)
(-0.0267567 -0.0636069 0)
(0.00861755 -0.0616035 0)
(0.0431515 -0.0597113 0)
(0.0768678 -0.0579463 0)
(0.109919 -0.0563146 0)
(0.14238 -0.0548323 0)
(0.174359 -0.0535056 0)
(0.205921 -0.0523288 0)
(0.237182 -0.051328 0)
(0.268273 -0.0505322 0)
(0.299298 -0.0499501 0)
(0.33038 -0.0495935 0)
(0.361652 -0.0494729 0)
(0.393251 -0.0495876 0)
(0.425328 -0.0499034 0)
(0.458045 -0.0504309 0)
(0.491571 -0.0512232 0)
(0.526031 -0.0522941 0)
(0.561559 -0.0536455 0)
(0.59831 -0.0552744 0)
(0.636444 -0.0571738 0)
(0.676122 -0.0593345 0)
(0.717503 -0.0617448 0)
(0.760746 -0.0643909 0)
(0.806007 -0.0672567 0)
(0.853434 -0.0703245 0)
(0.903171 -0.0735761 0)
(0.955353 -0.0769952 0)
(1.01011 -0.0805699 0)
(1.06755 -0.0842964 0)
(1.1278 -0.0881819 0)
(1.19097 -0.0922478 0)
(1.25715 -0.0965291 0)
(1.32647 -0.101071 0)
(1.39901 -0.105917 0)
(1.47488 -0.111099 0)
(1.55412 -0.11661 0)
(1.63676 -0.122391 0)
(1.72273 -0.128309 0)
(1.81186 -0.134159 0)
(1.90383 -0.139673 0)
(1.99819 -0.144547 0)
(2.09434 -0.148475 0)
(2.19155 -0.151192 0)
(2.28901 -0.152504 0)
(2.38584 -0.152303 0)
(2.4812 -0.150578 0)
(2.57426 -0.147398 0)
(2.66428 -0.142904 0)
(2.75064 -0.13728 0)
(2.8328 -0.130735 0)
(2.91037 -0.123485 0)
(2.98306 -0.11574 0)
(3.05069 -0.107692 0)
(3.11318 -0.0995113 0)
(3.17053 -0.0913414 0)
(3.22281 -0.0833015 0)
(3.27014 -0.0754855 0)
(3.3127 -0.0679657 0)
(3.35068 -0.060794 0)
(3.38431 -0.0540058 0)
(3.41383 -0.047622 0)
(3.43949 -0.0416521 0)
(3.46153 -0.0360957 0)
(3.4802 -0.0309455 0)
(3.49573 -0.0261879 0)
(3.50837 -0.0218053 0)
(3.51832 -0.0177762 0)
(3.52579 -0.0140769 0)
(3.53097 -0.010681 0)
(3.53404 -0.0075612 0)
(3.53515 -0.00468981 0)
(3.53444 -0.0020357 0)
(3.53204 0.000451051 0)
(3.52797 0.00283956 0)
(3.52229 0.00522109 0)
(3.51502 0.00772291 0)
(3.506 0.0105786 0)
(3.4957 0.014159 0)
(3.4789 0.0191039 0)
(-0.0351136 0.0949414 0)
(-0.0702439 0.13799 0)
(-0.113342 0.164324 0)
(-0.15912 0.180042 0)
(-0.206211 0.189284 0)
(-0.254824 0.194856 0)
(-0.304686 0.198403 0)
(-0.355416 0.200817 0)
(-0.40669 0.202564 0)
(-0.458225 0.203874 0)
(-0.509742 0.204842 0)
(-0.560888 0.205455 0)
(-0.611227 0.205555 0)
(-0.660474 0.204764 0)
(-0.708845 0.202676 0)
(-0.756502 0.199757 0)
(-0.803126 0.196558 0)
(-0.849036 0.192467 0)
(-0.894949 0.188028 0)
(-0.940673 0.18432 0)
(-0.985816 0.181145 0)
(-1.03037 0.178305 0)
(-1.07439 0.175692 0)
(-1.11793 0.173243 0)
(-1.16101 0.170907 0)
(-1.20366 0.168646 0)
(-1.24588 0.166424 0)
(-1.28767 0.164209 0)
(-1.32902 0.161973 0)
(-1.36991 0.159688 0)
(-1.41032 0.157332 0)
(-1.45021 0.154885 0)
(-1.48956 0.152329 0)
(-1.52833 0.149648 0)
(-1.56646 0.146829 0)
(-1.60393 0.143862 0)
(-1.64068 0.140736 0)
(-1.67666 0.137443 0)
(-1.71181 0.133976 0)
(-1.74609 0.130328 0)
(-1.77944 0.126494 0)
(-1.81179 0.12247 0)
(-1.84309 0.118249 0)
(-1.87327 0.113828 0)
(-1.90227 0.109203 0)
(-1.93002 0.104371 0)
(-1.95646 0.099331 0)
(-1.98151 0.0940808 0)
(-2.0051 0.0886214 0)
(-2.02716 0.0829552 0)
(-2.04761 0.0770865 0)
(-2.06639 0.0710217 0)
(-2.08342 0.0647697 0)
(-2.09862 0.0583423 0)
(-2.11194 0.0517536 0)
(-2.12331 0.0450205 0)
(-2.13267 0.0381623 0)
(-2.13997 0.0312002 0)
(-2.14516 0.0241569 0)
(-2.1482 0.0170557 0)
(-2.14907 0.00991634 0)
(-2.14775 0.00275338 0)
(-2.14418 -0.0043813 0)
(-2.13847 -0.0114175 0)
(-2.1306 -0.0183334 0)
(-2.1206 -0.0251328 0)
(-2.10847 -0.0318201 0)
(-2.09423 -0.0383963 0)
(-2.07792 -0.0448585 0)
(-2.05954 -0.0512015 0)
(-2.03912 -0.0574182 0)
(-2.0167 -0.0635006 0)
(-1.9923 -0.06944 0)
(-1.96597 -0.0752273 0)
(-1.93773 -0.0808532 0)
(-1.90763 -0.0863079 0)
(-1.87572 -0.0915809 0)
(-1.84205 -0.0966612 0)
(-1.80667 -0.101537 0)
(-1.76964 -0.106197 0)
(-1.73103 -0.110629 0)
(-1.6909 -0.114824 0)
(-1.64934 -0.118773 0)
(-1.60641 -0.122467 0)
(-1.5622 -0.125897 0)
(-1.51678 -0.129054 0)
(-1.47025 -0.131929 0)
(-1.42271 -0.134514 0)
(-1.37423 -0.136806 0)
(-1.32493 -0.138801 0)
(-1.27489 -0.140498 0)
(-1.22422 -0.141892 0)
(-1.17302 -0.14298 0)
(-1.12139 -0.143762 0)
(-1.06944 -0.144243 0)
(-1.01727 -0.144431 0)
(-0.964973 -0.144329 0)
(-0.912652 -0.143937 0)
(-0.860407 -0.143262 0)
(-0.808337 -0.142316 0)
(-0.756531 -0.141118 0)
(-0.705073 -0.139678 0)
(-0.654048 -0.137996 0)
(-0.603539 -0.136089 0)
(-0.553623 -0.133981 0)
(-0.504365 -0.131698 0)
(-0.455822 -0.129242 0)
(-0.408053 -0.126622 0)
(-0.361112 -0.123864 0)
(-0.315041 -0.12101 0)
(-0.269874 -0.118073 0)
(-0.225629 -0.115047 0)
(-0.182337 -0.111954 0)
(-0.139988 -0.108843 0)
(-0.0986355 -0.105743 0)
(-0.0582388 -0.102642 0)
(-0.0187889 -0.0995622 0)
(0.0198172 -0.0965251 0)
(0.0574225 -0.0935717 0)
(0.0941418 -0.0907156 0)
(0.130041 -0.0879741 0)
(0.165179 -0.0853644 0)
(0.19961 -0.0828959 0)
(0.233395 -0.080597 0)
(0.266628 -0.0784997 0)
(0.299384 -0.0766189 0)
(0.331757 -0.0749633 0)
(0.363845 -0.0735348 0)
(0.395763 -0.072357 0)
(0.427622 -0.0714598 0)
(0.45953 -0.0708572 0)
(0.491605 -0.0705624 0)
(0.523975 -0.070588 0)
(0.556768 -0.0709396 0)
(0.590129 -0.0716019 0)
(0.62422 -0.0725784 0)
(0.6592 -0.0739011 0)
(0.695198 -0.0755864 0)
(0.732353 -0.0776396 0)
(0.77081 -0.0800618 0)
(0.810723 -0.0828486 0)
(0.852246 -0.0859914 0)
(0.895536 -0.0894775 0)
(0.940751 -0.0932908 0)
(0.988048 -0.0974117 0)
(1.03758 -0.101818 0)
(1.08949 -0.106487 0)
(1.14393 -0.111397 0)
(1.20103 -0.116528 0)
(1.2609 -0.121871 0)
(1.32366 -0.127427 0)
(1.38941 -0.133211 0)
(1.45822 -0.139251 0)
(1.53015 -0.145583 0)
(1.60525 -0.152242 0)
(1.68352 -0.159237 0)
(1.76492 -0.166536 0)
(1.84937 -0.174036 0)
(1.93668 -0.18155 0)
(2.02659 -0.188804 0)
(2.11869 -0.195453 0)
(2.21246 -0.201117 0)
(2.30727 -0.205425 0)
(2.40238 -0.208063 0)
(2.497 -0.208812 0)
(2.59032 -0.207567 0)
(2.68156 -0.204341 0)
(2.76998 -0.19925 0)
(2.85494 -0.192491 0)
(2.93591 -0.184315 0)
(3.01246 -0.175001 0)
(3.08427 -0.164832 0)
(3.15113 -0.15408 0)
(3.21294 -0.142992 0)
(3.26967 -0.131786 0)
(3.32135 -0.120644 0)
(3.3681 -0.109719 0)
(3.41007 -0.0991279 0)
(3.44743 -0.0889612 0)
(3.48041 -0.0792833 0)
(3.50924 -0.070137 0)
(3.53416 -0.0615466 0)
(3.55541 -0.0535218 0)
(3.57325 -0.0460595 0)
(3.5879 -0.039148 0)
(3.59961 -0.0327674 0)
(3.6086 -0.0268929 0)
(3.61508 -0.0214948 0)
(3.61924 -0.0165404 0)
(3.62128 -0.0119948 0)
(3.62135 -0.00782231 0)
(3.61962 -0.00398486 0)
(3.61623 -0.000431843 0)
(3.61125 0.00290385 0)
(3.60477 0.00610159 0)
(3.59685 0.0092668 0)
(3.58756 0.0125479 0)
(3.5768 0.0162061 0)
(3.56528 0.0205421 0)
(3.54788 0.0259715 0)
(-0.0359707 0.144208 0)
(-0.073165 0.184827 0)
(-0.117326 0.21004 0)
(-0.162836 0.226296 0)
(-0.208577 0.236603 0)
(-0.255071 0.243141 0)
(-0.302267 0.247359 0)
(-0.349897 0.250119 0)
(-0.397674 0.251887 0)
(-0.445324 0.252892 0)
(-0.492582 0.25323 0)
(-0.539178 0.252906 0)
(-0.584853 0.251838 0)
(-0.629493 0.249853 0)
(-0.673249 0.246848 0)
(-0.716302 0.243119 0)
(-0.758668 0.239028 0)
(-0.800552 0.234532 0)
(-0.842269 0.229954 0)
(-0.883766 0.225778 0)
(-0.924872 0.22201 0)
(-0.965554 0.218573 0)
(-1.00582 0.21539 0)
(-1.04568 0.212397 0)
(-1.08516 0.209538 0)
(-1.12425 0.206763 0)
(-1.16296 0.204029 0)
(-1.20128 0.201297 0)
(-1.23919 0.198531 0)
(-1.27667 0.195699 0)
(-1.31369 0.192775 0)
(-1.35023 0.189732 0)
(-1.38624 0.186551 0)
(-1.42169 0.183213 0)
(-1.45654 0.179702 0)
(-1.49075 0.176006 0)
(-1.52426 0.172111 0)
(-1.55703 0.16801 0)
(-1.589 0.163693 0)
(-1.62014 0.159152 0)
(-1.65037 0.154382 0)
(-1.67966 0.149374 0)
(-1.70793 0.144125 0)
(-1.73514 0.138627 0)
(-1.76122 0.132876 0)
(-1.7861 0.126868 0)
(-1.80973 0.1206 0)
(-1.83203 0.11407 0)
(-1.85294 0.107278 0)
(-1.87238 0.100227 0)
(-1.89029 0.0929198 0)
(-1.9066 0.0853652 0)
(-1.92123 0.0775734 0)
(-1.93412 0.0695585 0)
(-1.94519 0.0613378 0)
(-1.95439 0.0529323 0)
(-1.96166 0.0443662 0)
(-1.96695 0.0356662 0)
(-1.9702 0.0268617 0)
(-1.97139 0.0179827 0)
(-1.97048 0.00905488 0)
(-1.96744 0.000105815 0)
(-1.9623 -0.00878259 0)
(-1.95511 -0.0175369 0)
(-1.94586 -0.0261499 0)
(-1.93456 -0.034623 0)
(-1.92125 -0.0429588 0)
(-1.90592 -0.0511567 0)
(-1.8886 -0.0592127 0)
(-1.86931 -0.0671196 0)
(-1.84808 -0.074868 0)
(-1.82493 -0.0824475 0)
(-1.79989 -0.0898472 0)
(-1.773 -0.0970553 0)
(-1.74429 -0.10406 0)
(-1.71381 -0.110849 0)
(-1.68161 -0.11741 0)
(-1.64772 -0.123729 0)
(-1.61221 -0.12979 0)
(-1.57513 -0.135578 0)
(-1.53654 -0.141079 0)
(-1.49652 -0.146282 0)
(-1.45513 -0.151174 0)
(-1.41245 -0.155746 0)
(-1.36855 -0.159986 0)
(-1.32353 -0.163883 0)
(-1.27745 -0.167424 0)
(-1.23042 -0.170601 0)
(-1.18252 -0.173408 0)
(-1.13385 -0.175843 0)
(-1.0845 -0.177905 0)
(-1.03458 -0.179587 0)
(-0.984167 -0.180885 0)
(-0.933375 -0.181799 0)
(-0.882305 -0.182336 0)
(-0.831052 -0.182507 0)
(-0.779709 -0.182319 0)
(-0.72837 -0.181768 0)
(-0.677134 -0.180864 0)
(-0.626096 -0.179622 0)
(-0.57534 -0.178071 0)
(-0.524946 -0.176221 0)
(-0.47499 -0.174073 0)
(-0.425555 -0.171645 0)
(-0.376707 -0.168971 0)
(-0.328513 -0.166086 0)
(-0.281024 -0.162992 0)
(-0.234289 -0.159702 0)
(-0.188352 -0.156245 0)
(-0.14325 -0.15267 0)
(-0.0990374 -0.148999 0)
(-0.0557085 -0.145234 0)
(-0.0132803 -0.141404 0)
(0.028315 -0.137535 0)
(0.0688889 -0.133673 0)
(0.108558 -0.129837 0)
(0.147336 -0.126053 0)
(0.18527 -0.122335 0)
(0.222363 -0.11871 0)
(0.258672 -0.115217 0)
(0.294248 -0.111885 0)
(0.329146 -0.108733 0)
(0.363434 -0.105772 0)
(0.397188 -0.103032 0)
(0.430488 -0.100549 0)
(0.463409 -0.0983426 0)
(0.496041 -0.096427 0)
(0.528486 -0.0948119 0)
(0.560853 -0.09352 0)
(0.59325 -0.0925796 0)
(0.625783 -0.0920089 0)
(0.658566 -0.0918236 0)
(0.69172 -0.0920385 0)
(0.72537 -0.0926629 0)
(0.75965 -0.0936933 0)
(0.794711 -0.0951331 0)
(0.830703 -0.0970036 0)
(0.867758 -0.0993202 0)
(0.906013 -0.10209 0)
(0.94561 -0.105316 0)
(0.986695 -0.108995 0)
(1.02942 -0.113121 0)
(1.07394 -0.117681 0)
(1.1204 -0.122658 0)
(1.16897 -0.128031 0)
(1.2198 -0.133775 0)
(1.27305 -0.139861 0)
(1.32886 -0.146263 0)
(1.38736 -0.152954 0)
(1.44869 -0.159915 0)
(1.51295 -0.167136 0)
(1.58022 -0.174619 0)
(1.65056 -0.182377 0)
(1.724 -0.19043 0)
(1.80051 -0.198789 0)
(1.88005 -0.20744 0)
(1.96249 -0.216316 0)
(2.04766 -0.225273 0)
(2.13529 -0.234071 0)
(2.22502 -0.242377 0)
(2.31639 -0.249782 0)
(2.40883 -0.255844 0)
(2.50166 -0.260141 0)
(2.59415 -0.262328 0)
(2.68553 -0.262174 0)
(2.77502 -0.259586 0)
(2.8619 -0.254612 0)
(2.94551 -0.247416 0)
(3.0253 -0.238257 0)
(3.1008 -0.227448 0)
(3.17169 -0.215335 0)
(3.23772 -0.20226 0)
(3.29874 -0.188552 0)
(3.35472 -0.174507 0)
(3.40567 -0.160383 0)
(3.45168 -0.146397 0)
(3.49289 -0.132727 0)
(3.52947 -0.119511 0)
(3.56163 -0.106852 0)
(3.5896 -0.0948252 0)
(3.61361 -0.0834775 0)
(3.63391 -0.0728348 0)
(3.65074 -0.0629053 0)
(3.66436 -0.0536826 0)
(3.675 -0.0451495 0)
(3.68288 -0.0372796 0)
(3.68823 -0.0300406 0)
(3.69126 -0.0233946 0)
(3.69214 -0.017301 0)
(3.69107 -0.011717 0)
(3.68821 -0.00659916 0)
(3.68371 -0.00189438 0)
(3.67769 0.00246419 0)
(3.67024 0.00655017 0)
(3.66148 0.0104479 0)
(3.65148 0.0142734 0)
(3.64035 0.0181833 0)
(3.62803 0.022441 0)
(3.61544 0.0272484 0)
(3.59729 0.0328456 0)
(-0.0353956 0.193233 0)
(-0.073128 0.231287 0)
(-0.117335 0.254663 0)
(-0.161954 0.270456 0)
(-0.206025 0.280955 0)
(-0.250163 0.287802 0)
(-0.29445 0.29219 0)
(-0.338719 0.294885 0)
(-0.382751 0.296329 0)
(-0.42633 0.296756 0)
(-0.469264 0.296283 0)
(-0.511387 0.294964 0)
(-0.552582 0.292807 0)
(-0.592841 0.289792 0)
(-0.632301 0.285966 0)
(-0.671127 0.281556 0)
(-0.70942 0.276827 0)
(-0.74734 0.271904 0)
(-0.785057 0.26703 0)
(-0.822561 0.262463 0)
(-0.859772 0.258245 0)
(-0.896658 0.254343 0)
(-0.933211 0.250699 0)
(-0.969429 0.247251 0)
(-1.00531 0.243943 0)
(-1.04086 0.240719 0)
(-1.07606 0.237531 0)
(-1.11089 0.234333 0)
(-1.14534 0.231085 0)
(-1.17938 0.227752 0)
(-1.21298 0.224302 0)
(-1.2461 0.220707 0)
(-1.27872 0.216943 0)
(-1.31079 0.21299 0)
(-1.34227 0.208832 0)
(-1.37312 0.204451 0)
(-1.40329 0.199837 0)
(-1.43274 0.194978 0)
(-1.46141 0.189865 0)
(-1.48927 0.184489 0)
(-1.51626 0.178843 0)
(-1.54232 0.17292 0)
(-1.56741 0.166711 0)
(-1.59147 0.160211 0)
(-1.61445 0.153414 0)
(-1.63629 0.146313 0)
(-1.65691 0.138905 0)
(-1.67628 0.131187 0)
(-1.6943 0.123158 0)
(-1.71093 0.114819 0)
(-1.7261 0.106176 0)
(-1.73973 0.0972358 0)
(-1.75175 0.0880107 0)
(-1.76211 0.0785166 0)
(-1.77073 0.0687739 0)
(-1.77755 0.0588072 0)
(-1.78252 0.0486455 0)
(-1.78559 0.0383212 0)
(-1.7867 0.0278702 0)
(-1.78584 0.0173281 0)
(-1.78296 0.00672556 0)
(-1.77802 -0.00387612 0)
(-1.77115 -0.0143752 0)
(-1.76231 -0.0247171 0)
(-1.75153 -0.0348979 0)
(-1.73882 -0.0449181 0)
(-1.72419 -0.0547785 0)
(-1.70765 -0.0644768 0)
(-1.68922 -0.0740078 0)
(-1.66892 -0.0833619 0)
(-1.64678 -0.0925276 0)
(-1.62282 -0.101492 0)
(-1.59706 -0.110241 0)
(-1.56955 -0.118762 0)
(-1.54032 -0.12704 0)
(-1.5094 -0.135061 0)
(-1.47685 -0.142809 0)
(-1.44271 -0.150268 0)
(-1.40704 -0.15742 0)
(-1.36987 -0.164246 0)
(-1.33129 -0.170729 0)
(-1.29135 -0.176854 0)
(-1.25012 -0.182608 0)
(-1.20768 -0.187979 0)
(-1.1641 -0.192956 0)
(-1.11946 -0.197523 0)
(-1.07384 -0.201665 0)
(-1.02732 -0.205371 0)
(-0.980008 -0.208635 0)
(-0.931983 -0.211456 0)
(-0.883338 -0.213834 0)
(-0.834163 -0.215761 0)
(-0.784555 -0.21723 0)
(-0.734612 -0.218241 0)
(-0.684432 -0.218801 0)
(-0.63411 -0.218931 0)
(-0.583733 -0.218637 0)
(-0.533391 -0.217912 0)
(-0.483177 -0.216767 0)
(-0.433183 -0.215224 0)
(-0.383487 -0.213317 0)
(-0.334172 -0.211062 0)
(-0.285302 -0.208457 0)
(-0.236956 -0.205525 0)
(-0.189184 -0.202305 0)
(-0.142069 -0.198837 0)
(-0.0956583 -0.195132 0)
(-0.0499861 -0.191208 0)
(-0.00506837 -0.187095 0)
(0.0390631 -0.182828 0)
(0.0822789 -0.178448 0)
(0.124637 -0.173982 0)
(0.16612 -0.169464 0)
(0.206756 -0.164905 0)
(0.246512 -0.160344 0)
(0.285427 -0.155832 0)
(0.323518 -0.151397 0)
(0.36082 -0.147059 0)
(0.39737 -0.142844 0)
(0.433221 -0.138794 0)
(0.46842 -0.134945 0)
(0.503022 -0.13132 0)
(0.537097 -0.127938 0)
(0.570723 -0.124829 0)
(0.603977 -0.122029 0)
(0.636935 -0.119563 0)
(0.669686 -0.117448 0)
(0.702326 -0.115702 0)
(0.73496 -0.114348 0)
(0.767692 -0.113412 0)
(0.800626 -0.112915 0)
(0.833871 -0.112876 0)
(0.867542 -0.11331 0)
(0.901756 -0.114231 0)
(0.93664 -0.115642 0)
(0.972332 -0.11755 0)
(1.00897 -0.11997 0)
(1.04668 -0.122917 0)
(1.08561 -0.126397 0)
(1.12588 -0.130415 0)
(1.16764 -0.134971 0)
(1.21104 -0.140058 0)
(1.25621 -0.145666 0)
(1.30333 -0.151777 0)
(1.35253 -0.158372 0)
(1.40399 -0.165422 0)
(1.45785 -0.172897 0)
(1.51427 -0.180764 0)
(1.5734 -0.188988 0)
(1.63535 -0.19754 0)
(1.70024 -0.206395 0)
(1.76815 -0.215537 0)
(1.83912 -0.224958 0)
(1.91315 -0.23465 0)
(1.99017 -0.244598 0)
(2.07007 -0.254755 0)
(2.15268 -0.265017 0)
(2.23774 -0.275197 0)
(2.32491 -0.28501 0)
(2.41377 -0.294067 0)
(2.5038 -0.301908 0)
(2.59436 -0.308039 0)
(2.68478 -0.312001 0)
(2.77431 -0.313429 0)
(2.86217 -0.312094 0)
(2.94764 -0.307925 0)
(3.03003 -0.301009 0)
(3.10876 -0.291566 0)
(3.18333 -0.279914 0)
(3.25336 -0.266431 0)
(3.3186 -0.251521 0)
(3.37887 -0.235585 0)
(3.4341 -0.219 0)
(3.48429 -0.202105 0)
(3.52952 -0.185193 0)
(3.56991 -0.168509 0)
(3.60563 -0.152252 0)
(3.63688 -0.136576 0)
(3.66389 -0.121595 0)
(3.68689 -0.107389 0)
(3.70614 -0.0940092 0)
(3.72188 -0.0814799 0)
(3.73437 -0.069807 0)
(3.74384 -0.0589797 0)
(3.75054 -0.0489749 0)
(3.75469 -0.0397594 0)
(3.75649 -0.0312933 0)
(3.75616 -0.0235309 0)
(3.75388 -0.0164244 0)
(3.74983 -0.00992415 0)
(3.74417 -0.00397539 0)
(3.73704 0.00149145 0)
(3.72855 0.0065479 0)
(3.71882 0.0112699 0)
(3.70796 0.0157465 0)
(3.69609 0.0200992 0)
(3.68333 0.0244829 0)
(3.66967 0.0291492 0)
(3.65617 0.0341983 0)
(3.63732 0.0397606 0)
(-0.0340371 0.240373 0)
(-0.0712684 0.276115 0)
(-0.114656 0.297421 0)
(-0.15778 0.312151 0)
(-0.199814 0.322192 0)
(-0.241356 0.328782 0)
(-0.282556 0.332877 0)
(-0.323332 0.335135 0)
(-0.363545 0.335969 0)
(-0.403056 0.335622 0)
(-0.441755 0.334242 0)
(-0.479571 0.331935 0)
(-0.516485 0.328783 0)
(-0.552555 0.324867 0)
(-0.587915 0.320309 0)
(-0.622715 0.315312 0)
(-0.657074 0.31009 0)
(-0.691118 0.3048 0)
(-0.724954 0.299628 0)
(-0.758594 0.294733 0)
(-0.791997 0.290157 0)
(-0.82514 0.285881 0)
(-0.858007 0.281855 0)
(-0.890587 0.278023 0)
(-0.922872 0.274324 0)
(-0.954848 0.270703 0)
(-0.986498 0.267106 0)
(-1.0178 0.263483 0)
(-1.04873 0.25979 0)
(-1.07926 0.255989 0)
(-1.10935 0.252045 0)
(-1.13897 0.247928 0)
(-1.16809 0.243613 0)
(-1.19666 0.239078 0)
(-1.22464 0.234303 0)
(-1.25199 0.229274 0)
(-1.27867 0.223977 0)
(-1.30463 0.218401 0)
(-1.32983 0.212535 0)
(-1.35422 0.206371 0)
(-1.37776 0.199901 0)
(-1.40039 0.193117 0)
(-1.42209 0.18601 0)
(-1.44278 0.178573 0)
(-1.46243 0.170799 0)
(-1.48097 0.162681 0)
(-1.49836 0.154213 0)
(-1.51453 0.14539 0)
(-1.52943 0.136211 0)
(-1.54298 0.126678 0)
(-1.55514 0.116794 0)
(-1.56583 0.106567 0)
(-1.57499 0.0960098 0)
(-1.58255 0.0851405 0)
(-1.58845 0.0739818 0)
(-1.59264 0.062562 0)
(-1.59506 0.0509146 0)
(-1.59565 0.0390778 0)
(-1.59438 0.027094 0)
(-1.59123 0.0150042 0)
(-1.58615 0.00284563 0)
(-1.57912 -0.00927293 0)
(-1.57029 -0.0212392 0)
(-1.55963 -0.0330333 0)
(-1.54715 -0.0446504 0)
(-1.53285 -0.056089 0)
(-1.51675 -0.0673481 0)
(-1.49886 -0.078424 0)
(-1.47919 -0.0893096 0)
(-1.45777 -0.0999932 0)
(-1.4346 -0.11046 0)